ITEM: TIMESTEP
73400
ITEM: NUMBER OF ATOMS
10500
ITEM: BOX BOUNDS xy xz yz pp pp pp
0	8.9688	2.9896
0	118.725	0
0	252.977	0
ITEM: ATOMS id type element xu yu zu q Q_1 Q_2 Q_3 Q_4 Q_5 Q_6 Q_7 Q_8 Q_9 Q_10 Q_11 Q_12 Q_13 Q_14 Q_15 Q_16 Q_17 Q_18 Q_19 Q_20 Q_21
1 1 Mg -3.2312 7.00572 57.5048 1.2 1 0.00800197 0.0171344 0.00950676 0.0275965 0.015705 0.0351944 0.0154242 0.0542244 0.0160773 0.085539 0.0234377 0.0526995 0.0205902 0.0694576 0.0281274 0.0977162 0.0246998 0.110944 0.0287859 0.0959141
2 1 Mg -1.82655 6.90154 50.0912 1.2 1 0.214633 0.0899443 0.0319854 0.0312368 0.0280822 0.0542256 0.0493258 0.0438769 0.0584089 0.0668353 0.0561279 0.0751394 0.0709046 0.0607844 0.0952141 0.062289 0.0873437 0.0966286 0.0737691 0.0776679
3 2 Si -0.257935 3.96038 48.0876 2.4 1 0.368473 0.0740793 0.0738135 0.0373613 0.059112 0.0486748 0.0728975 0.0785236 0.0579788 0.0766072 0.0549324 0.0695583 0.0654665 0.0916451 0.102294 0.100832 0.108711 0.0901785 0.0682417 0.0732883
4 3 O -0.335812 5.46814 47.6264 -1.2 1 0.427015 0.0401218 0.0645894 0.0310537 0.0406971 0.0471473 0.0654289 0.071695 0.0883336 0.0752027 0.0901743 0.0752752 0.0724278 0.0697423 0.0918757 0.125168 0.0949706 0.0798173 0.0762785 0.0807524
5 3 O -2.03793 3.43377 51.8941 -1.2 1 0.112032 0.058199 0.0309928 0.0251462 0.0222713 0.0512555 0.0611982 0.0499272 0.0494402 0.0587219 0.0647728 0.0524851 0.0489824 0.0758398 0.0884713 0.0816951 0.0684214 0.0618943 0.0681398 0.0653118
6 3 O -1.54015 3.53929 48.9521 -1.2 1 0.297075 0.0979113 0.0386504 0.0457909 0.0405897 0.0482857 0.0713169 0.0549097 0.054001 0.0634252 0.0783051 0.0699777 0.0704841 0.0706074 0.0722835 0.110627 0.0814766 0.073371 0.0696097 0.0887567
7 1 Mg 1.82954 2.54582 47.1376 1.2 1 0.463479 0.0288455 0.0806612 0.0502352 0.0376477 0.0834322 0.0623713 0.0596373 0.0759439 0.0899166 0.0704116 0.0783249 0.084418 0.0876646 0.0703332 0.0962308 0.101197 0.102018 0.105012 0.101473
8 3 O 1.22989 3.66364 48.7877 -1.2 1 0.324635 0.0689421 0.0221996 0.0419546 0.0321101 0.0659273 0.0774141 0.0329367 0.0865269 0.0802896 0.0532001 0.0769598 0.0814738 0.0676023 0.0674891 0.0873988 0.0896978 0.0872469 0.0951702 0.0925707
9 1 Mg 0.98375 2.3127 54.5876 1.2 1 0.0133932 0.0214753 0.0186914 0.0350067 0.0247903 0.0341159 0.0247384 0.0328184 0.0441666 0.0596253 0.0541062 0.0534082 0.0621973 0.0625252 0.0739688 0.0792962 0.0678696 0.0825877 0.0756198 0.0691965
10 2 Si 1.10398 4.74957 56.5961 2.4 1 0.0271576 0.0192287 0.0204903 0.0201684 0.0132993 0.0210159 0.0411454 0.0382859 0.0489094 0.0705935 0.0558794 0.0566754 0.0493781 0.0465489 0.0850301 0.066229 0.0764592 0.0794167 0.0627786 0.0600483
11 3 O 1.24923 3.25134 56.7005 -1.2 1 0.0284489 0.01022 0.0164339 0.0225868 0.012011 0.0274274 0.0257591 0.0638261 0.0425907 0.0510781 0.041862 0.0581636 0.0572037 0.061108 0.0692219 0.0734077 0.0604183 0.0725223 0.0531392 0.0838696
12 3 O 1.10813 6.07342 52.8172 -1.2 1 0.0758149 0.0440264 0.0319572 0.0189362 0.022817 0.0444578 0.0440182 0.0578528 0.0573153 0.0451396 0.0591898 0.0481049 0.0687355 0.0681551 0.0838501 0.0902264 0.0589833 0.0668725 0.0675928 0.0653868
13 3 O -0.0387151 5.44163 55.7093 -1.2 1 0.0235314 0.0212876 0.0275202 0.0228691 0.0226779 0.0223043 0.0457397 0.0512955 0.0390436 0.0556884 0.0510604 0.0335852 0.0525053 0.0684283 0.0683408 0.0793295 0.0683551 0.0657806 0.0590563 0.0747853
14 3 O 2.44416 5.54519 55.8714 -1.2 1 0.0274795 0.0116266 0.0249155 0.0268836 0.0227763 0.0197427 0.0426158 0.0468519 0.0440137 0.0422812 0.0550965 0.0368411 0.0528518 0.0665393 0.0728888 0.0759866 0.0753242 0.0672569 0.0663436 0.0616632
15 1 Mg -0.459401 4.67631 52.2426 1.2 1 0.0885343 0.0669275 0.0355548 0.0432575 0.0316207 0.0324434 0.0387036 0.0633498 0.0416606 0.075884 0.0462476 0.058602 0.0565603 0.0697655 0.0456088 0.0993551 0.0556116 0.0913461 0.0607455 0.0843217
16 1 Mg 2.79456 3.9971 49.9987 1.2 1 0.217572 0.102434 0.0364036 0.0406671 0.0432113 0.0637908 0.0548817 0.0578328 0.0770576 0.0603835 0.0610529 0.0556219 0.0612398 0.070788 0.0851554 0.0803536 0.0715589 0.0865681 0.0825622 0.0728392
17 2 Si 1.16169 6.59457 51.2556 2.4 1 0.135923 0.0876738 0.0388627 0.036102 0.041455 0.0502249 0.0489134 0.0452136 0.0592593 0.0656347 0.063252 0.0772268 0.0754577 0.0676315 0.083656 0.086066 0.0758713 0.0865632 0.0786697 0.0676125
18 3 O 1.28989 8.18905 51.2909 -1.2 1 0.135588 0.090071 0.0229757 0.0314773 0.0368001 0.0457378 0.0494839 0.0774006 0.0548029 0.0724615 0.0451659 0.0863224 0.0743165 0.0657753 0.0763976 0.0655373 0.0679933 0.0696479 0.0714251 0.0704545
19 3 O 1.0719 5.53538 57.8944 -1.2 1 0.0246425 0.0229274 0.017113 0.0210549 0.0220257 0.0331092 0.0316977 0.0445607 0.0627243 0.0385296 0.0536788 0.0430301 0.0503685 0.0698492 0.0983751 0.0703951 0.0658308 0.0490625 0.0731413 0.0611221
20 3 O -0.184847 6.06029 50.6845 -1.2 1 0.17298 0.0925316 0.0231099 0.031878 0.0359112 0.0345505 0.0491191 0.0609328 0.0597549 0.0628321 0.0643344 0.0786588 0.0695195 0.0642789 0.0916938 0.0708934 0.0797043 0.0791596 0.0596619 0.0762145
21 1 Mg -3.49704 4.67769 52.6661 1.2 1 0.0615494 0.0530787 0.0263922 0.0252674 0.0164363 0.0402374 0.0386248 0.056569 0.0571874 0.0735333 0.0418326 0.0471799 0.0534877 0.0575448 0.0597457 0.0850049 0.082489 0.0729848 0.0702701 0.0720577
22 3 O 2.48581 5.93312 50.6539 -1.2 1 0.188312 0.093494 0.0318951 0.0217021 0.0331763 0.0461872 0.0627511 0.0597925 0.0421693 0.0701205 0.048452 0.0666536 0.0589139 0.0648504 0.103626 0.0637991 0.0785216 0.070199 0.0747193 0.0734936
23 1 Mg -1.75499 4.67534 55.2912 1.2 1 0.0132895 0.0129709 0.02245 0.0315951 0.0206628 0.0229498 0.0273982 0.0386661 0.040195 0.0566261 0.0532742 0.0577288 0.0607937 0.0641801 0.059501 0.0729025 0.0788042 0.0942229 0.0695923 0.0706899
24 2 Si -1.84133 2.56135 53.2989 2.4 1 0.0493033 0.0316195 0.0272298 0.0247565 0.0255206 0.0188201 0.0484075 0.044705 0.0646512 0.068946 0.0604874 0.0674517 0.0782299 0.0536266 0.0686248 0.0542204 0.0726585 0.0857146 0.0744394 0.0612673
25 3 O -1.88038 1.03606 53.1627 -1.2 1 0.0471015 0.0395925 0.0354064 0.0270812 0.0201124 0.0419165 0.0237098 0.0638743 0.0639706 0.0647419 0.0605904 0.0717704 0.0581832 0.0747768 0.0784105 0.077005 0.0492349 0.0676011 0.0706396 0.0767721
26 3 O -0.0467762 2.97103 46.8385 -1.2 1 0.497741 0.037083 0.0874871 0.0292138 0.0796588 0.0656035 0.0795911 0.0727438 0.0736616 0.0788758 0.0808059 0.0748435 0.097266 0.0900242 0.0893938 0.0884503 0.0992685 0.0967281 0.103728 0.109884
27 3 O -2.98124 3.18727 54.1308 -1.2 1 0.0279361 0.0146782 0.0269518 0.018254 0.0301298 0.0285063 0.0369448 0.0445101 0.0460204 0.0500884 0.0645653 0.0460128 0.0525748 0.0646626 0.0687607 0.0696183 0.0640925 0.0686494 0.065936 0.0573669
28 3 O -0.51152 3.40147 53.9964 -1.2 1 0.0415529 0.0229175 0.0355401 0.0133862 0.0198559 0.0244095 0.0454553 0.0481982 0.0470382 0.0477646 0.0641971 0.0440981 0.0562912 0.052557 0.0920699 0.0613485 0.0732703 0.0690006 0.061419 0.0642336
29 1 Mg -3.32968 11.8502 57.4532 1.2 1 0.0066613 0.014667 0.0156632 0.0294193 0.0157777 0.0371423 0.0139693 0.0506837 0.0203488 0.0802935 0.017607 0.0536099 0.0260148 0.0669178 0.0322864 0.0919711 0.036869 0.107726 0.0341823 0.0809085
30 1 Mg -1.75014 11.5838 49.8362 1.2 1 0.230682 0.0800434 0.0271028 0.0413543 0.0294888 0.0569465 0.0499685 0.0559691 0.0472183 0.058079 0.0666577 0.0605169 0.0706705 0.0706507 0.10806 0.0860032 0.0652438 0.0943042 0.08506 0.0796289
31 2 Si -1.18003 9.02138 47.9309 2.4 1 0.367539 0.0713491 0.0658489 0.0541112 0.0404692 0.0615095 0.0761912 0.077312 0.0735474 0.0709125 0.0594671 0.0657177 0.0676341 0.0821205 0.103586 0.0640235 0.0978938 0.0897836 0.103509 0.0860054
32 3 O -1.23224 10.5991 47.9811 -1.2 1 0.371998 0.0684438 0.0581548 0.0571599 0.0530968 0.0708434 0.0690889 0.078595 0.0586063 0.0893777 0.0709819 0.0630588 0.072494 0.0799171 0.0843162 0.0709964 0.0910281 0.0826406 0.0663184 0.0735302
33 3 O -1.79016 8.01447 51.8693 -1.2 1 0.114564 0.0605064 0.0307527 0.0293502 0.0323354 0.0436779 0.0608286 0.0575574 0.0576621 0.0547407 0.0504538 0.0527243 0.0681352 0.0865457 0.0923396 0.0696441 0.0754232 0.0535194 0.0770594 0.0686908
34 3 O -2.30986 8.37215 48.8528 -1.2 1 0.309658 0.0867265 0.064876 0.023321 0.0543582 0.0613979 0.0651047 0.0641065 0.0558105 0.0664001 0.0855217 0.0691759 0.0588036 0.065106 0.0814074 0.093946 0.0991436 0.0783323 0.0753533 0.0934829
35 1 Mg 0.154883 7.08234 46.8007 1.2 1 0.48767 0.0252649 0.0923702 0.0341755 0.0578566 0.0737173 0.0595121 0.0730669 0.075909 0.0830575 0.0871543 0.074516 0.0797607 0.081391 0.0703303 0.0928532 0.0927765 0.106171 0.112172 0.102643
36 3 O 0.325447 8.50934 48.3809 -1.2 1 0.347852 0.0795785 0.0598286 0.0443247 0.0341743 0.0545312 0.0371178 0.0575348 0.0638459 0.0653096 0.0750078 0.06417 0.0779398 0.0910281 0.0892092 0.0676529 0.0912588 0.103487 0.0856642 0.0866971
37 1 Mg 1.33778 6.92653 54.8759 1.2 1 0.0222579 0.0282747 0.0253657 0.0360638 0.0177476 0.0267585 0.0300723 0.0285062 0.0539896 0.0532737 0.0544973 0.0587289 0.0492008 0.0590056 0.0617197 0.0878178 0.0733627 0.0919589 0.0611019 0.0881492
38 2 Si 1.22689 9.76812 56.452 2.4 1 0.0200322 0.0164301 0.0222593 0.0263746 0.0227333 0.0316141 0.04684 0.0317413 0.0579734 0.0578683 0.0516521 0.0645673 0.0603612 0.0622755 0.0899167 0.0721939 0.0618874 0.087507 0.0667936 0.0671006
39 3 O 1.13447 8.15485 56.6536 -1.2 1 0.0283281 0.00931105 0.0223106 0.0206176 0.0212669 0.0324025 0.025791 0.0644447 0.0404892 0.0404094 0.0390931 0.0634783 0.0581814 0.0637554 0.0732706 0.0648919 0.0626018 0.0765473 0.052441 0.077806
40 3 O 1.28624 10.7248 52.7351 -1.2 1 0.0735768 0.0433304 0.031552 0.0224869 0.0280978 0.0378305 0.0579215 0.0526204 0.0517181 0.0465827 0.0501722 0.047506 0.0646794 0.063077 0.0951225 0.0768568 0.0705574 0.0487742 0.0711996 0.0653438
41 3 O -0.1295 10.4387 55.8408 -1.2 1 0.00597846 0.0112246 0.0237978 0.0172964 0.0236441 0.0201924 0.0397444 0.0383312 0.0404915 0.0453855 0.0511774 0.0407789 0.0519911 0.0527956 0.0840508 0.0780322 0.0641994 0.0591219 0.0633568 0.0757467
42 3 O 2.40756 10.4609 55.7507 -1.2 1 0.0205351 0.0202014 0.0259341 0.0133166 0.0284429 0.0195207 0.042657 0.0364617 0.0391578 0.0416572 0.0557641 0.0365888 0.0536432 0.066722 0.0870322 0.0739848 0.0770744 0.0644212 0.0696354 0.0643152
43 1 Mg -0.262694 9.34741 52.2523 1.2 1 0.1146 0.0608778 0.0227317 0.0410913 0.0376055 0.0431519 0.0396578 0.0714241 0.0284875 0.0841325 0.0276816 0.0548907 0.0392489 0.0707448 0.0451907 0.104833 0.0578007 0.0959302 0.0553523 0.0942744
44 1 Mg 1.87648 9.01537 49.4629 1.2 1 0.274443 0.0936355 0.0392318 0.0385213 0.0295947 0.0487743 0.0681235 0.0466328 0.0793761 0.0626971 0.0795541 0.0548788 0.0847156 0.0646788 0.0856352 0.0942334 0.0869128 0.0961485 0.0849026 0.0889519
45 2 Si 1.21415 11.3799 51.2378 2.4 1 0.143123 0.0793984 0.0425458 0.0288238 0.0322491 0.0520219 0.0498835 0.049661 0.0558344 0.0660649 0.0710156 0.0678935 0.0773191 0.0675756 0.0891663 0.0853948 0.0757573 0.0803432 0.0771995 0.0603324
46 3 O 1.31634 12.9512 51.3023 -1.2 1 0.146786 0.0724157 0.0269422 0.0285306 0.0372353 0.0431122 0.0441934 0.0679971 0.0517481 0.0661499 0.0451957 0.0769893 0.0678958 0.0596086 0.0750761 0.0688741 0.0783548 0.0691444 0.0725408 0.0724499
47 3 O 1.25474 10.4928 57.7799 -1.2 1 0.0161069 0.00951681 0.0276548 0.0170034 0.0217883 0.0326841 0.0415752 0.0490043 0.05993 0.0370676 0.041774 0.0414846 0.0543937 0.0672305 0.103312 0.0743099 0.059961 0.0431028 0.0769347 0.0586734
48 3 O -0.115718 10.7564 50.681 -1.2 1 0.184356 0.0804206 0.0258501 0.0276303 0.0405702 0.040922 0.0533093 0.0670267 0.0520453 0.0575305 0.0597325 0.0517399 0.0654137 0.0735887 0.093843 0.0791641 0.0745423 0.0789293 0.0760529 0.0810045
49 1 Mg -3.26386 9.35564 52.3622 1.2 1 0.0833342 0.0581042 0.025108 0.0307197 0.0181371 0.0553062 0.0332993 0.0577565 0.0311762 0.08308 0.0293811 0.0479797 0.0363775 0.0647807 0.0364893 0.1112 0.0485186 0.103059 0.0536148 0.0898785
50 3 O 2.45216 10.7265 50.4558 -1.2 1 0.204387 0.0852291 0.0247225 0.0152965 0.042024 0.0539771 0.0599468 0.0508744 0.0576543 0.0690757 0.0660212 0.0742106 0.0557139 0.0646215 0.0939892 0.0791117 0.0705676 0.0731208 0.0558163 0.0844903
51 1 Mg -1.76177 9.48236 55.1643 1.2 1 0.0229915 0.0200461 0.0149199 0.024724 0.0162401 0.0203802 0.0209563 0.0305849 0.0432445 0.056476 0.0541448 0.0551017 0.0590995 0.0613562 0.0615967 0.0723355 0.0798362 0.0930004 0.0736588 0.0800239
52 2 Si -1.74589 7.41965 53.3379 2.4 1 0.043905 0.0318843 0.0290275 0.0338469 0.035781 0.0321446 0.0479571 0.060118 0.0647476 0.0581084 0.0552321 0.064167 0.0837804 0.0430323 0.0649394 0.0643628 0.0660761 0.0923806 0.0614224 0.0539967
53 3 O -1.86439 5.92411 53.4294 -1.2 1 0.0605315 0.0326401 0.0226208 0.0210216 0.0232394 0.0314944 0.0428716 0.0672145 0.0449192 0.0729494 0.0426629 0.0659271 0.0664117 0.0715848 0.0599764 0.0579755 0.0665516 0.0580999 0.0734578 0.0660401
54 3 O -1.19417 8.46968 46.4488 -1.2 1 0.525022 0.0665972 0.0669356 0.0518447 0.066929 0.0554989 0.0775979 0.054366 0.0761287 0.0714208 0.0576281 0.0525033 0.0710043 0.0986018 0.130026 0.113481 0.098165 0.0952791 0.0811711 0.0816531
55 3 O -2.99104 8.01561 54.189 -1.2 1 0.036564 0.019747 0.0247255 0.0248662 0.0204795 0.0277216 0.0417789 0.0438569 0.0399295 0.0582448 0.0538531 0.0418002 0.0576131 0.0620165 0.0828988 0.072616 0.0644419 0.0759679 0.0676099 0.0695339
56 3 O -0.585063 8.22345 54.0234 -1.2 1 0.0460144 0.0260749 0.0313131 0.0308387 0.0264399 0.0277736 0.0420794 0.0476494 0.0412588 0.0460695 0.0559697 0.0439196 0.0624764 0.0579443 0.0842215 0.0563303 0.0799831 0.0745342 0.0676443 0.0748713
57 1 Mg -2.97751 16.6079 56.9746 1.2 1 0.0119174 0.0147267 0.0203218 0.0222608 0.0196332 0.0417891 0.0258709 0.0446318 0.0553271 0.0648945 0.0328771 0.0446694 0.0355158 0.0560098 0.0551611 0.0837673 0.0702013 0.0894101 0.0755169 0.0786919
58 1 Mg -1.6714 16.3544 49.8412 1.2 1 0.233228 0.082001 0.0255877 0.0425876 0.0276067 0.054295 0.0490275 0.0541258 0.048703 0.0579821 0.0607357 0.0646786 0.0740826 0.0751591 0.103413 0.0851107 0.0742854 0.0936531 0.0835707 0.0821602
59 2 Si -1.18567 13.8526 47.9314 2.4 1 0.376899 0.0626231 0.0668075 0.0663777 0.0277178 0.06661 0.0490058 0.0810028 0.0652451 0.0650091 0.0517944 0.0731154 0.0601997 0.0757709 0.0974948 0.07416 0.103148 0.0965447 0.090048 0.0916684
60 3 O -1.09664 15.4205 47.9915 -1.2 1 0.373418 0.061044 0.0437106 0.0591413 0.046179 0.0923364 0.0618274 0.0810256 0.0548846 0.0864649 0.0536234 0.073966 0.0626781 0.0769212 0.0726969 0.0712805 0.0928223 0.0731003 0.0747787 0.0730031
61 3 O -1.73493 12.7491 51.7772 -1.2 1 0.118054 0.0561061 0.0291514 0.0321148 0.031121 0.0490389 0.0657582 0.0474418 0.0661247 0.0521779 0.0630506 0.0483377 0.0544124 0.087498 0.104523 0.0771158 0.0805918 0.0492834 0.0700813 0.0686956
62 3 O -2.36115 13.2717 48.8238 -1.2 1 0.312785 0.0861321 0.0545719 0.0302196 0.0532833 0.0469042 0.0584857 0.0695042 0.0629997 0.066476 0.0756621 0.0615908 0.0514137 0.0535915 0.0833852 0.0855666 0.0850617 0.0784733 0.0836979 0.0864796
63 1 Mg -0.159928 11.7639 46.8533 1.2 1 0.485655 0.0228271 0.0747169 0.0315465 0.0476691 0.09478 0.0659979 0.084881 0.0849112 0.0866814 0.0839566 0.0693517 0.0750574 0.0946472 0.0781845 0.0850276 0.0979689 0.0992772 0.100464 0.107059
64 3 O 0.2623 13.1866 48.413 -1.2 1 0.343659 0.0779048 0.0537471 0.039725 0.0457054 0.0595373 0.0391289 0.0677349 0.0705035 0.0712289 0.061296 0.0609994 0.0649954 0.0874417 0.09867 0.0817498 0.0901896 0.0941846 0.0819018 0.0869548
65 1 Mg 1.23286 11.6131 54.5826 1.2 1 0.00756339 0.0222508 0.0203663 0.0252307 0.0150357 0.0185135 0.0225479 0.0378992 0.0517895 0.0575726 0.0602561 0.0576832 0.0598684 0.0629764 0.0735544 0.0711047 0.0649591 0.0926933 0.0722928 0.0898228
66 2 Si 1.283 14.4791 56.2987 2.4 1 0.0186378 0.0174405 0.0236131 0.0260456 0.0284252 0.0285676 0.0372557 0.0437803 0.0480914 0.0593629 0.0544189 0.0652219 0.0649369 0.0627548 0.0785658 0.073163 0.0630726 0.0933548 0.067026 0.0554839
67 3 O 1.19488 12.989 56.6215 -1.2 1 0.0296538 0.0169321 0.0199963 0.0160492 0.0193747 0.0249828 0.0253163 0.0624807 0.0489061 0.0409628 0.0498903 0.0659185 0.0536704 0.0554426 0.0755571 0.0715949 0.0663132 0.0771212 0.0458546 0.0762574
68 3 O 1.36565 15.4813 52.729 -1.2 1 0.0845498 0.0403571 0.021709 0.0203238 0.0254255 0.042792 0.0506661 0.0530201 0.0465936 0.0476302 0.0381171 0.0517231 0.0575988 0.0647661 0.0989494 0.0705535 0.0698425 0.0600506 0.0711706 0.0586194
69 3 O -0.0438923 15.0315 55.706 -1.2 1 0.0206718 0.0163839 0.0261711 0.0113311 0.0172183 0.0254836 0.0432399 0.0410265 0.0400788 0.0579255 0.0501358 0.0381438 0.0549844 0.0815386 0.0702805 0.0764807 0.0687383 0.0670255 0.0672973 0.0695573
70 3 O 2.67029 15.1084 55.6499 -1.2 1 0.014663 0.0256454 0.0173548 0.0171033 0.0245602 0.0277567 0.0419825 0.0367201 0.039527 0.0494503 0.0558477 0.0355164 0.0560205 0.0683179 0.0848101 0.0782868 0.0743937 0.0723967 0.0582265 0.0740964
71 1 Mg -0.206989 14.1049 52.2121 1.2 1 0.10446 0.0656432 0.0241171 0.039905 0.0318688 0.040238 0.0345308 0.0734359 0.026662 0.0871309 0.0299365 0.0532471 0.0322821 0.0731209 0.0385204 0.104261 0.0421955 0.100403 0.0454233 0.103166
72 1 Mg 1.82591 13.8102 49.4556 1.2 1 0.266498 0.100568 0.0323491 0.0392585 0.0345561 0.0338717 0.0691583 0.0474581 0.0736675 0.0759196 0.0770464 0.0574198 0.0757159 0.0736555 0.0847783 0.0897257 0.0752895 0.0952177 0.0918937 0.0861428
73 2 Si 1.29285 16.1518 51.2434 2.4 1 0.15388 0.0656418 0.0424061 0.0430922 0.0341545 0.0523048 0.0520814 0.033367 0.0569607 0.0683529 0.0662296 0.0656345 0.0609926 0.0648197 0.0934839 0.0879242 0.0767005 0.0800211 0.0764781 0.0647836
74 3 O 1.39496 17.7199 51.3047 -1.2 1 0.143801 0.0762919 0.0273381 0.0351408 0.0365663 0.0384367 0.0392198 0.0688333 0.0535993 0.0584886 0.0444128 0.0762876 0.0647506 0.0638168 0.0720711 0.0682874 0.0801654 0.0746143 0.0717554 0.071626
75 3 O 1.35627 15.2795 57.7174 -1.2 1 0.0119235 0.0158774 0.0193074 0.0138277 0.0155239 0.0369646 0.0378458 0.0435772 0.0597189 0.0418698 0.0442046 0.0421693 0.043215 0.0701732 0.107514 0.0747719 0.078098 0.0428357 0.0679504 0.0579428
76 3 O -0.0269106 15.5178 50.6688 -1.2 1 0.184584 0.0820183 0.0245466 0.0282585 0.0446541 0.037217 0.0528319 0.0649997 0.0576646 0.0568312 0.0579109 0.0512023 0.0588912 0.0737427 0.0931585 0.0809812 0.0723149 0.0816728 0.0721395 0.0866604
77 1 Mg -3.18391 14.1057 52.3125 1.2 1 0.0803094 0.0590221 0.0283232 0.0322326 0.0190872 0.0518266 0.0344201 0.0647795 0.0313118 0.0765262 0.040054 0.0521407 0.0259187 0.071732 0.0337477 0.103695 0.0492061 0.102849 0.0448623 0.0877676
78 3 O 2.52432 15.503 50.4579 -1.2 1 0.202905 0.0847551 0.0238361 0.0173614 0.0385729 0.0551645 0.0549588 0.0432108 0.0557785 0.0645949 0.0627897 0.0661472 0.0565471 0.0630413 0.099344 0.0785939 0.0732666 0.0715477 0.0609086 0.0888346
79 1 Mg -1.77237 13.9376 55.257 1.2 1 0.0242649 0.0251478 0.0214859 0.0286994 0.0190071 0.0215077 0.0259874 0.0398983 0.0523867 0.052796 0.0507621 0.0605562 0.0633687 0.0629774 0.0672589 0.0535858 0.083758 0.0914398 0.0630282 0.0765861
80 2 Si -1.81703 12.1353 53.2979 2.4 1 0.0463387 0.034858 0.0310097 0.0290441 0.0436758 0.0333988 0.048264 0.0570458 0.0653007 0.0600696 0.0583056 0.0620288 0.0869967 0.0476362 0.0753676 0.0664248 0.0601598 0.0823165 0.0644435 0.052421
81 3 O -1.8367 10.6237 53.0979 -1.2 1 0.0649663 0.0452199 0.0207671 0.0207174 0.0262762 0.0268886 0.0434694 0.0743265 0.0603336 0.0444876 0.0559807 0.0674977 0.0630022 0.0742926 0.0755859 0.0722737 0.0451347 0.0680042 0.0594808 0.0753984
82 3 O -1.21337 13.3381 46.4311 -1.2 1 0.52019 0.0681558 0.0700403 0.0414264 0.0564773 0.0579586 0.0580726 0.0708998 0.0804873 0.0668806 0.0474792 0.0717434 0.067693 0.0875495 0.121069 0.114933 0.105788 0.0988812 0.0609578 0.0929473
83 3 O -3.03938 12.8016 54.0724 -1.2 1 0.0288339 0.0205531 0.0325234 0.0212264 0.0220507 0.0320459 0.0500882 0.0464402 0.0445723 0.0569945 0.04821 0.0394869 0.0566252 0.064477 0.0772452 0.0701637 0.0687121 0.0575495 0.0555488 0.0737937
84 3 O -0.591895 12.8066 53.9637 -1.2 1 0.0504679 0.021116 0.0281672 0.0209399 0.0252443 0.029203 0.0386566 0.0406458 0.0429265 0.0512767 0.0580531 0.0358697 0.0617288 0.0642855 0.0864937 0.0698487 0.0729741 0.0715529 0.0727642 0.0665798
85 1 Mg -3.05528 21.3584 57.4634 1.2 1 0.00570846 0.0199052 0.0156359 0.0211194 0.0197369 0.0317546 0.014411 0.0525573 0.0197459 0.0756275 0.0236642 0.0513268 0.0320841 0.0678414 0.033955 0.0964839 0.0350989 0.10757 0.0446646 0.0826838
86 1 Mg -1.5831 21.1217 49.8405 1.2 1 0.236199 0.0757642 0.0223272 0.0403689 0.0290506 0.0449814 0.057611 0.0550636 0.0510253 0.0588143 0.0618822 0.0665164 0.0707276 0.0650326 0.0957874 0.0809123 0.0768816 0.0948366 0.0794352 0.0775413
87 2 Si -1.09384 18.6291 47.9287 2.4 1 0.381347 0.0603756 0.0697541 0.067429 0.0303823 0.0665927 0.045055 0.0753398 0.0634232 0.0695117 0.0586567 0.0754562 0.0584499 0.0711323 0.0984024 0.0741475 0.101824 0.0906894 0.0889918 0.0898785
88 3 O -1.02071 20.1985 47.9911 -1.2 1 0.365622 0.0704421 0.0506628 0.0629768 0.0454991 0.0923134 0.0630272 0.081492 0.0568851 0.0891631 0.0533581 0.0715165 0.0605204 0.0824372 0.0811064 0.0742323 0.0951107 0.0777139 0.0760688 0.0659569
89 3 O -1.65002 17.5002 51.771 -1.2 1 0.10738 0.0607859 0.0332407 0.0302897 0.0355512 0.0512921 0.0612855 0.050847 0.065975 0.05919 0.050566 0.0481223 0.0564385 0.0825528 0.0986919 0.0772988 0.0797623 0.0558375 0.072525 0.0660779
90 3 O -2.26174 18.0434 48.8281 -1.2 1 0.316942 0.0773368 0.0502608 0.0362525 0.0556751 0.0450804 0.0576517 0.0711271 0.0588265 0.0665695 0.07157 0.0611128 0.0514615 0.0558021 0.0769404 0.081559 0.0827936 0.0785689 0.0819252 0.0877538
91 1 Mg -0.0440435 16.5651 46.8269 1.2 1 0.480892 0.0215385 0.0824854 0.032269 0.0659353 0.087 0.0781159 0.084848 0.0683202 0.0835275 0.0854868 0.0622091 0.0630708 0.0791522 0.0787277 0.0949439 0.0941789 0.0955907 0.0984467 0.106852
92 3 O 0.37001 17.9877 48.3925 -1.2 1 0.344407 0.0793486 0.056119 0.0363022 0.043858 0.0593908 0.0478329 0.0685561 0.0636263 0.0762406 0.0627836 0.0546264 0.0634981 0.0881198 0.0971709 0.077944 0.0929113 0.0995528 0.0799188 0.0850437
93 1 Mg 1.56057 16.489 54.3789 1.2 1 0.0188283 0.0279249 0.0146101 0.0390544 0.013214 0.0184575 0.0293466 0.0368523 0.0434234 0.0646709 0.0492189 0.053295 0.0639511 0.0712583 0.063748 0.0637435 0.0805754 0.094176 0.0650697 0.0675669
94 2 Si 1.4362 19.1175 56.3674 2.4 1 0.0241991 0.0120766 0.018171 0.0145204 0.0251568 0.0229239 0.0437947 0.0374263 0.0418586 0.06662 0.0578632 0.0580576 0.0636748 0.0580284 0.0760599 0.0729575 0.0681391 0.0888117 0.0667972 0.0642598
95 3 O 1.47404 17.5437 56.2057 -1.2 1 0.0222302 0.0213771 0.0133144 0.022202 0.0352198 0.0214548 0.0251854 0.0690175 0.0370097 0.0637039 0.0381972 0.0584396 0.0617024 0.0685616 0.0666543 0.0667252 0.0538763 0.0584599 0.0827121 0.0658838
96 3 O 1.45147 20.239 52.7294 -1.2 1 0.0679614 0.0427966 0.0284174 0.0244532 0.0255049 0.0456684 0.0508391 0.0548027 0.0439066 0.0501016 0.0405411 0.0522255 0.0613044 0.0607588 0.097778 0.0674429 0.0709843 0.0669077 0.0743904 0.0693043
97 3 O 0.307795 19.9746 55.6568 -1.2 1 0.00850668 0.00980813 0.0225698 0.0301381 0.0226846 0.0238118 0.0458689 0.033898 0.041233 0.046624 0.0548908 0.0509384 0.0510214 0.0514897 0.0811761 0.0671455 0.0719597 0.0666331 0.0698775 0.0488046
98 3 O 2.76472 19.8213 56.0272 -1.2 1 0.0184104 0.0106298 0.0273779 0.0220943 0.0274888 0.0211502 0.0412571 0.0409672 0.0520525 0.0352378 0.044297 0.0478389 0.0506267 0.0610238 0.0728747 0.0721657 0.0820763 0.0579238 0.0688262 0.0582947
99 1 Mg -0.126194 18.8651 52.2079 1.2 1 0.110083 0.0657574 0.0234746 0.0394521 0.0301951 0.0417127 0.0374863 0.0712699 0.0274176 0.0791048 0.0321918 0.0561538 0.0314765 0.0708798 0.0337452 0.103426 0.0463592 0.100544 0.0420878 0.0938585
100 1 Mg 1.92402 18.5815 49.4545 1.2 1 0.271561 0.0948302 0.0316653 0.0426571 0.035137 0.0329527 0.0665201 0.0486154 0.0685354 0.0756572 0.0820567 0.0547593 0.0680426 0.0658249 0.0831343 0.0891769 0.0726088 0.101744 0.0888358 0.0844161
101 2 Si 1.38106 20.9117 51.2443 2.4 1 0.137917 0.081807 0.0391711 0.0398763 0.0364568 0.051709 0.0555273 0.0369327 0.0585612 0.0689978 0.0660481 0.0685729 0.0683374 0.0709741 0.0916101 0.084872 0.0797474 0.0780009 0.0763478 0.0642038
102 3 O 1.48527 22.4795 51.3054 -1.2 1 0.138446 0.0752838 0.0285292 0.0315982 0.0340813 0.0425621 0.046426 0.0703881 0.058155 0.0673965 0.0488178 0.0796942 0.068148 0.0629001 0.0835921 0.0672541 0.0739907 0.0728036 0.0636313 0.0749795
103 3 O 1.37984 19.7654 57.9507 -1.2 1 0.0112328 0.0188162 0.0236746 0.0232704 0.0237254 0.031505 0.0329789 0.0442156 0.0541323 0.0406545 0.041603 0.0440321 0.0560408 0.0756943 0.0953739 0.0662099 0.0681946 0.0602346 0.0574618 0.0659921
104 3 O 0.0615419 20.2804 50.6669 -1.2 1 0.194481 0.0757875 0.0259421 0.0241536 0.0504182 0.040315 0.0533092 0.0560264 0.0527984 0.0609197 0.0599717 0.0527783 0.0611919 0.069615 0.0927922 0.0826276 0.0749849 0.0785032 0.072445 0.0832115
105 1 Mg -3.09665 18.8643 52.3122 1.2 1 0.0814514 0.0577982 0.0283872 0.0213513 0.0246338 0.0537946 0.034533 0.0600944 0.0332341 0.0795792 0.0321676 0.0453256 0.0357573 0.071621 0.0388894 0.105046 0.0552825 0.10233 0.0463192 0.0886749
106 3 O 2.61548 20.2646 50.4626 -1.2 1 0.195304 0.0923803 0.023848 0.01887 0.0359967 0.0619406 0.053495 0.0418023 0.0591823 0.0663487 0.0646425 0.0673704 0.0566169 0.0638499 0.0960908 0.0733936 0.0790468 0.0713897 0.0641584 0.0846819
107 1 Mg -1.49159 19.0519 54.8756 1.2 1 0.0274142 0.0110934 0.0196389 0.0291633 0.0166912 0.0253829 0.0310642 0.0400485 0.0466783 0.0613433 0.0607378 0.0545347 0.059014 0.0685451 0.062032 0.0801511 0.0662071 0.0989855 0.0711904 0.0906764
108 2 Si -1.45826 16.842 53.2628 2.4 1 0.0550109 0.042995 0.0188509 0.0282017 0.0299759 0.0303912 0.0450307 0.0542447 0.0567745 0.0569291 0.0614999 0.0646828 0.070206 0.0500781 0.0644534 0.0651463 0.0648285 0.0873506 0.0668822 0.0585415
109 3 O -1.75521 15.2605 53.1695 -1.2 1 0.0668661 0.0404617 0.0232733 0.0192252 0.0327232 0.0370773 0.0295403 0.0784893 0.0575188 0.0590793 0.0510108 0.0632926 0.0525006 0.0723642 0.0734861 0.0665839 0.0508306 0.0667441 0.0683434 0.0786752
110 3 O -1.12868 18.1227 46.4249 -1.2 1 0.521901 0.0657078 0.0726912 0.051695 0.0572476 0.0653483 0.0609618 0.0782292 0.0783293 0.0615663 0.0458126 0.0680877 0.0668222 0.0875068 0.116904 0.11457 0.106213 0.100578 0.0634489 0.0932282
111 3 O -2.72181 17.7018 53.9238 -1.2 1 0.0420577 0.0149477 0.0312321 0.0194001 0.0232403 0.026349 0.0530892 0.0451534 0.0394961 0.0559581 0.0523497 0.0381677 0.0562557 0.053638 0.0883159 0.0688976 0.074057 0.070951 0.0659328 0.061769
112 3 O -0.105697 17.5032 53.7789 -1.2 1 0.0423037 0.0269527 0.0254191 0.0243728 0.0285513 0.0201296 0.045077 0.0411594 0.0554785 0.0548281 0.0556549 0.0431458 0.0594817 0.0588716 0.0814692 0.0703242 0.0735446 0.0714302 0.073659 0.0670272
113 1 Mg -2.98492 26.1913 57.0804 1.2 1 0.0144998 0.0213477 0.0162773 0.0348806 0.0171869 0.0320638 0.0230728 0.0541054 0.0435505 0.0694443 0.0335857 0.0501186 0.0329894 0.0645036 0.0501013 0.106553 0.0689355 0.0951322 0.060919 0.0756933
114 1 Mg -1.48778 25.88 49.8402 1.2 1 0.234118 0.0810505 0.0222493 0.0420148 0.0302904 0.0479818 0.0541115 0.0545548 0.048059 0.0579125 0.0656193 0.063674 0.0705994 0.0706919 0.100277 0.0786488 0.0731013 0.0955602 0.0856936 0.0820234
115 2 Si -1.00491 23.3922 47.9274 2.4 1 0.37399 0.0684114 0.0740694 0.0654855 0.036098 0.077748 0.044931 0.085079 0.0703175 0.0733205 0.0532229 0.0785874 0.0592388 0.0689502 0.0901538 0.075221 0.100966 0.0959828 0.0905329 0.0927946
116 3 O -0.927602 24.9615 47.9909 -1.2 1 0.365674 0.0696651 0.049499 0.0631631 0.0458794 0.0917355 0.0627966 0.08153 0.0567696 0.0898591 0.0553716 0.0702967 0.0604838 0.0829997 0.0819436 0.0738576 0.0926102 0.0767733 0.0776968 0.0689598
117 3 O -1.55795 22.2588 51.7696 -1.2 1 0.110122 0.0583271 0.0343274 0.0332652 0.0332688 0.0522421 0.060424 0.051677 0.0633379 0.0569979 0.0548041 0.0482414 0.0553333 0.0847251 0.0998669 0.0739751 0.0816578 0.0453173 0.0729112 0.0701724
118 3 O -2.17411 22.8111 48.8277 -1.2 1 0.310856 0.0841466 0.0529203 0.0366548 0.0558863 0.0483962 0.0539344 0.0718379 0.0620104 0.0687858 0.0705868 0.0588555 0.0542908 0.0541434 0.0778909 0.0865792 0.0867072 0.0795396 0.0828283 0.0870032
119 1 Mg 0.0423997 21.3296 46.8225 1.2 1 0.488412 0.0227883 0.0753032 0.0317812 0.0576947 0.0804428 0.0692697 0.0809219 0.0741978 0.0888602 0.0876235 0.0627087 0.0638095 0.0812548 0.0777437 0.0905916 0.0939749 0.0980229 0.100774 0.108486
120 3 O 0.458537 22.7495 48.3911 -1.2 1 0.343124 0.08145 0.0611475 0.0330512 0.0480034 0.0607805 0.0458992 0.0651888 0.0621587 0.0764938 0.0631158 0.0566457 0.0674385 0.0864516 0.0944163 0.0790269 0.0957542 0.104039 0.0758063 0.0824696
121 1 Mg 1.69997 21.393 54.6215 1.2 1 0.0101568 0.0160488 0.0182507 0.0340472 0.0169068 0.0229481 0.0211297 0.0398623 0.0492634 0.0545559 0.0615697 0.057584 0.0576226 0.0663024 0.0603611 0.0833582 0.0694455 0.0873356 0.0757738 0.0747486
122 2 Si 1.66586 23.9353 56.403 2.4 1 0.0209226 0.00909993 0.0236321 0.0371465 0.0241503 0.0263687 0.0359863 0.0373528 0.0477967 0.0541455 0.0471827 0.0609114 0.0654737 0.0517376 0.0769391 0.0772659 0.0707045 0.0934251 0.0621129 0.0612862
123 3 O 1.61214 22.3449 56.4068 -1.2 1 0.0208133 0.019895 0.0166312 0.0273067 0.016669 0.0247775 0.0208463 0.0654918 0.0433503 0.061742 0.035036 0.0623166 0.0518557 0.0590186 0.0721128 0.0663922 0.0606097 0.074089 0.0559528 0.0623107
124 3 O 1.54441 24.9963 52.7297 -1.2 1 0.0614735 0.0473747 0.0281565 0.0225038 0.0274155 0.0445111 0.052867 0.056068 0.0511417 0.0491918 0.0501311 0.0444617 0.0564788 0.0668114 0.104794 0.0782261 0.0664695 0.0557793 0.0756544 0.058481
125 3 O 0.511605 24.7017 55.6975 -1.2 1 0.0250688 0.0125491 0.0253314 0.0203921 0.0239356 0.0272995 0.0399828 0.0372818 0.0300684 0.0434051 0.0448299 0.0489491 0.0539173 0.0512217 0.0901389 0.0601103 0.0774337 0.0606454 0.0716675 0.0614704
126 3 O 3.0685 24.4718 55.8486 -1.2 1 0.0237962 0.0194208 0.0306989 0.0243122 0.0313465 0.017376 0.0407808 0.0441404 0.0531746 0.0459349 0.0502343 0.036482 0.0515062 0.0652382 0.0763127 0.0763985 0.0721078 0.0740465 0.0566996 0.0681282