ITEM: TIMESTEP
74500
ITEM: NUMBER OF ATOMS
10500
ITEM: BOX BOUNDS xy xz yz pp pp pp
0	8.9688	2.9896
0	118.725	0
0	252.977	0
ITEM: ATOMS id type element xu yu zu q Q_1 Q_2 Q_3 Q_4 Q_5 Q_6 Q_7 Q_8 Q_9 Q_10 Q_11 Q_12 Q_13 Q_14 Q_15 Q_16 Q_17 Q_18 Q_19 Q_20 Q_21
1 1 Mg -3.33962 7.06945 57.4601 1.2 1 0.00723312 0.0207514 0.00900869 0.026313 0.00915482 0.0392241 0.015957 0.0528432 0.0199758 0.0782501 0.0190147 0.0561555 0.0233427 0.0700567 0.0271678 0.0899866 0.0345709 0.117775 0.0351939 0.0969541
2 1 Mg -1.82655 6.90154 50.0912 1.2 1 0.223324 0.0841803 0.0315442 0.0323594 0.0295681 0.0519576 0.050487 0.0429763 0.0545538 0.0677523 0.0548484 0.0713705 0.0661998 0.0617228 0.0972946 0.0631915 0.0851968 0.0966037 0.0697355 0.0698029
3 2 Si -0.257935 3.96038 48.0876 2.4 1 0.372244 0.0724604 0.0734278 0.0369246 0.061125 0.0526054 0.074916 0.0765961 0.0578751 0.0787213 0.0566956 0.0696231 0.0640204 0.0847496 0.0964526 0.1005 0.109776 0.0903529 0.0698745 0.0739725
4 3 O -0.335812 5.46814 47.6264 -1.2 1 0.427397 0.0380725 0.0636841 0.0313678 0.0410386 0.048179 0.0649045 0.0713378 0.0875868 0.0757877 0.0934953 0.0768717 0.0700441 0.0683947 0.0932234 0.126814 0.0945935 0.0781696 0.074492 0.0769922
5 3 O -2.03793 3.43377 51.8941 -1.2 1 0.112792 0.0618384 0.0264552 0.0229705 0.0248521 0.0508968 0.0577857 0.0487216 0.0472395 0.0572174 0.0657136 0.0483182 0.0523992 0.0777211 0.0907751 0.0874633 0.0677495 0.0536982 0.0714513 0.0627611
6 3 O -1.54015 3.53929 48.9521 -1.2 1 0.300296 0.0903452 0.032114 0.0467532 0.0339974 0.049282 0.0692272 0.050417 0.0524563 0.0607269 0.0781482 0.0669007 0.0722725 0.0707417 0.0752525 0.11229 0.0837339 0.0758748 0.0734439 0.0890736
7 1 Mg 1.82954 2.54582 47.1376 1.2 1 0.463469 0.0260429 0.0798054 0.0511762 0.0388439 0.0829214 0.0617648 0.0595648 0.0758546 0.0895076 0.0691471 0.07768 0.0848601 0.0877999 0.0703359 0.0974257 0.102735 0.102523 0.104379 0.0998688
8 3 O 1.22989 3.66364 48.7877 -1.2 1 0.316727 0.0779371 0.0271942 0.0453143 0.033984 0.0663309 0.0791746 0.0359537 0.0848864 0.0775662 0.0524511 0.0802622 0.0852095 0.0696299 0.0662039 0.0836015 0.0930636 0.0891457 0.0902048 0.0932528
9 1 Mg 0.940598 2.24863 54.5734 1.2 1 0.0172586 0.0283505 0.0189868 0.0362464 0.0227912 0.0297543 0.0278256 0.0319176 0.0425606 0.0590688 0.0546803 0.0487435 0.0545293 0.066069 0.0620508 0.0796426 0.0651033 0.087799 0.0738062 0.0709884
10 2 Si 1.24297 5.09142 56.4928 2.4 1 0.0237373 0.0192082 0.0199136 0.032907 0.0259147 0.0286756 0.0365381 0.0373621 0.0582223 0.0515137 0.0455902 0.0627037 0.0586306 0.0544508 0.0755761 0.0773037 0.0712522 0.0786941 0.0602041 0.0557513
11 3 O 1.08114 3.51533 56.3857 -1.2 1 0.0106897 0.0151057 0.0138554 0.0284973 0.0245385 0.029052 0.0246114 0.063397 0.0417669 0.054324 0.0330147 0.0595936 0.062372 0.0602465 0.0635719 0.0741944 0.0546601 0.062461 0.0641318 0.0682045
12 3 O 1.10813 6.07342 52.8172 -1.2 1 0.0904207 0.0414176 0.0316761 0.0172854 0.0192654 0.0439387 0.043907 0.0549366 0.0564857 0.0414989 0.0509394 0.0542391 0.0671898 0.0674155 0.0887906 0.0797599 0.0602972 0.0687874 0.0680514 0.0691947
13 3 O -0.107732 5.71082 55.8447 -1.2 1 0.00541271 0.0112414 0.0290257 0.0224126 0.0254073 0.0225948 0.0371609 0.0314276 0.0382721 0.0415841 0.0534704 0.042978 0.0510875 0.0605276 0.0884227 0.0649699 0.0744625 0.0605285 0.0707698 0.0645205
14 3 O 2.48444 5.61602 55.7567 -1.2 1 0.0339845 0.0143424 0.0328707 0.0184006 0.0262108 0.017976 0.0341188 0.0339524 0.0444454 0.038869 0.0571128 0.0328749 0.0580539 0.0577151 0.0731713 0.073639 0.0699502 0.0618022 0.0682389 0.0747194
15 1 Mg -0.459401 4.67631 52.2426 1.2 1 0.0945903 0.0669 0.0339858 0.0393168 0.0330303 0.0308738 0.0433452 0.061156 0.0448995 0.0753819 0.0447429 0.0595913 0.0492021 0.0682818 0.0461427 0.104616 0.0551316 0.0896844 0.0570331 0.0806711
16 1 Mg 2.79456 3.9971 49.9987 1.2 1 0.228081 0.0897593 0.0293388 0.0458838 0.0471049 0.0590358 0.0579682 0.0521041 0.0807321 0.0651871 0.0616632 0.0548043 0.0611733 0.0699994 0.0850467 0.0774687 0.0725685 0.0887863 0.0862838 0.0794143
17 2 Si 1.16169 6.59457 51.2556 2.4 1 0.160835 0.0709774 0.0348379 0.0281063 0.0365968 0.051603 0.0460843 0.0408623 0.0553837 0.0676757 0.0639431 0.0734641 0.0658078 0.063259 0.0823601 0.0857224 0.0760766 0.0928782 0.0780796 0.0717073
18 3 O 1.28989 8.18905 51.2909 -1.2 1 0.156926 0.0775698 0.0247072 0.033801 0.0326319 0.0465989 0.0372483 0.0734377 0.0493354 0.0711915 0.0447668 0.0848759 0.0639276 0.0652111 0.0784517 0.0658626 0.07021 0.0709467 0.0673549 0.0668125
19 3 O 1.09498 5.61623 57.9602 -1.2 1 0.0225534 0.0259968 0.0216159 0.0131014 0.0201726 0.0345481 0.0316092 0.0381573 0.052852 0.0475964 0.0341017 0.0448567 0.0554565 0.0727348 0.097548 0.0630911 0.070843 0.0683544 0.0676076 0.0648183
20 3 O -0.184847 6.06029 50.6845 -1.2 1 0.192162 0.0802006 0.0241121 0.0276706 0.0391856 0.029846 0.047909 0.0559466 0.0609763 0.0581479 0.0661246 0.0764159 0.0653563 0.0601885 0.0891679 0.0702116 0.0795972 0.0744154 0.0605277 0.0776599
21 1 Mg -3.49704 4.67769 52.6661 1.2 1 0.0757097 0.0478923 0.0274748 0.028859 0.0114919 0.0378798 0.0390965 0.0596616 0.0522494 0.0638938 0.0468017 0.0507118 0.0476035 0.0495281 0.0561456 0.0880545 0.0860149 0.0739013 0.0714593 0.0682583
22 3 O 2.48581 5.93312 50.6539 -1.2 1 0.195711 0.0872419 0.0358188 0.0197317 0.0323662 0.0466393 0.0571014 0.0583068 0.0467835 0.0642142 0.0460211 0.0678424 0.060802 0.05926 0.100641 0.0707905 0.0764827 0.0684943 0.0807991 0.0769972
23 1 Mg -1.68685 4.60577 55.1622 1.2 1 0.0314652 0.0233236 0.02167 0.026716 0.018423 0.0231754 0.0269915 0.0387364 0.0409321 0.0490776 0.0562815 0.0506889 0.0589082 0.0682562 0.0563149 0.0653335 0.0802395 0.0927213 0.0647109 0.0583415
24 2 Si -2.05866 2.75457 53.3405 2.4 1 0.0328851 0.0382627 0.0306349 0.0203484 0.0323695 0.0220433 0.0504777 0.0483845 0.065389 0.0670852 0.05015 0.0639226 0.0816274 0.0552183 0.0726136 0.0533827 0.0661818 0.0856869 0.0760066 0.055425
25 3 O -2.07081 1.24781 53.2609 -1.2 1 0.0534362 0.0384728 0.0283817 0.0241686 0.0252449 0.031369 0.0304646 0.050321 0.0543377 0.0572069 0.0539169 0.0664419 0.0621296 0.0759145 0.0672943 0.0628913 0.0574735 0.0724075 0.0675992 0.0655967
26 3 O -0.0467762 2.97103 46.8385 -1.2 1 0.489374 0.0284657 0.0979521 0.0242221 0.0799215 0.0642344 0.0785319 0.0768783 0.0790942 0.0798357 0.0793446 0.0735222 0.098328 0.094305 0.0957495 0.0909005 0.09698 0.0927719 0.10033 0.108604
27 3 O -3.22928 3.35125 54.3591 -1.2 1 0.0261459 0.0311608 0.0197904 0.0161466 0.0155693 0.028156 0.0286636 0.0396561 0.0481532 0.0556607 0.0598462 0.043814 0.0584109 0.0641905 0.0744245 0.0658428 0.0625112 0.0711221 0.0723308 0.0559858
28 3 O -0.610917 3.41633 54.0041 -1.2 1 0.0454291 0.0286253 0.0323332 0.0205306 0.0223519 0.030848 0.0393621 0.0420874 0.0439143 0.047833 0.0636252 0.0431194 0.0536024 0.0580495 0.0887005 0.0654785 0.0743059 0.0773419 0.0589875 0.0637078
29 1 Mg -3.07677 11.6551 57.1987 1.2 1 0.0191609 0.0131017 0.0116891 0.0232319 0.0144447 0.0377137 0.0166167 0.0534154 0.0270472 0.0787811 0.0320582 0.0488942 0.0311411 0.0638381 0.0358804 0.079507 0.0541945 0.0984904 0.047019 0.0880051
30 1 Mg -1.75014 11.5838 49.8362 1.2 1 0.233331 0.078772 0.0257171 0.0398637 0.030165 0.0534346 0.0498284 0.0524531 0.0470074 0.0562245 0.0644648 0.0621653 0.0721369 0.0687114 0.105529 0.0865432 0.0653564 0.0937143 0.0841903 0.0783538
31 2 Si -1.18003 9.02138 47.9309 2.4 1 0.367458 0.0710209 0.0695262 0.0546957 0.0417746 0.0622531 0.0726363 0.0765974 0.0693037 0.0681506 0.0592668 0.0668697 0.0680808 0.0803361 0.102175 0.0644842 0.099065 0.0905072 0.101936 0.0865501
32 3 O -1.23224 10.5991 47.9811 -1.2 1 0.375283 0.0653297 0.0591875 0.054953 0.0519381 0.0707658 0.0667355 0.0774302 0.0566282 0.0869112 0.071874 0.0651786 0.072078 0.0796404 0.0837985 0.070463 0.0908462 0.0808497 0.0627638 0.072547
33 3 O -1.79016 8.01447 51.8693 -1.2 1 0.122577 0.062141 0.0265275 0.0276773 0.0301583 0.0422315 0.057426 0.0583808 0.0580655 0.0531627 0.0501039 0.0505313 0.0671292 0.0809437 0.0870974 0.0723954 0.0718426 0.0566075 0.0745154 0.0655696
34 3 O -2.30986 8.37215 48.8528 -1.2 1 0.327023 0.067605 0.0538483 0.0317646 0.0456977 0.0615488 0.0685651 0.0660778 0.0535402 0.0660786 0.0799797 0.0678544 0.0581039 0.0664991 0.0789799 0.0864642 0.0930456 0.0800424 0.0753501 0.0883293
35 1 Mg 0.154883 7.08234 46.8007 1.2 1 0.497279 0.0363518 0.0758719 0.0381742 0.0646446 0.0768364 0.0609558 0.0674701 0.0705319 0.0838329 0.0896336 0.0756184 0.0788422 0.0804221 0.0701721 0.0917028 0.0937527 0.109918 0.113946 0.0998377
36 3 O 0.325447 8.50934 48.3809 -1.2 1 0.350054 0.0765011 0.0613336 0.0439115 0.0357101 0.0511949 0.0381591 0.0580014 0.0612601 0.0660067 0.0761076 0.0632528 0.0795083 0.0931316 0.0876978 0.0681124 0.0905052 0.0986504 0.0827207 0.0879512
37 1 Mg 1.24725 6.99329 54.4231 1.2 1 0.024263 0.0391933 0.0157564 0.0291872 0.0152937 0.0258828 0.0283561 0.03161 0.0431355 0.0610718 0.0640981 0.0573655 0.0570526 0.065408 0.0736506 0.0654543 0.0764 0.0880954 0.0723179 0.0751159
38 2 Si 1.39935 9.56639 56.35 2.4 1 0.0256329 0.0212853 0.0273661 0.0148005 0.0235749 0.0306564 0.0360373 0.0399009 0.0445558 0.0659029 0.0559704 0.0493498 0.0582285 0.048619 0.074244 0.0764293 0.0602311 0.0846497 0.0715569 0.0670568
39 3 O 1.26385 8.09607 56.4229 -1.2 1 0.0299702 0.0149984 0.0190256 0.0230798 0.0210162 0.0258 0.0208974 0.0662907 0.0291045 0.0564098 0.0331792 0.0644536 0.0573371 0.0621516 0.0667677 0.0632872 0.0643349 0.0697446 0.0660279 0.0636325
40 3 O 1.28624 10.7248 52.7351 -1.2 1 0.0792568 0.0444127 0.0289617 0.0287722 0.0232253 0.0488835 0.0486954 0.0566079 0.0474514 0.0471172 0.0481075 0.0471272 0.062906 0.0623021 0.0962502 0.0690904 0.0657984 0.0595939 0.0771551 0.0600382
41 3 O 0.121842 10.3163 55.8277 -1.2 1 0.00438168 0.00804323 0.0282375 0.0254493 0.0193007 0.0232873 0.0360314 0.0417284 0.0317129 0.0397209 0.0456902 0.0481368 0.0495013 0.0610317 0.0790416 0.0674061 0.0808727 0.0527189 0.0719726 0.0653385
42 3 O 2.72563 10.3639 55.7239 -1.2 1 0.0254954 0.0213447 0.0224973 0.0233072 0.0306973 0.0239033 0.0551031 0.0443582 0.0429574 0.0479168 0.057823 0.0312389 0.0557922 0.052371 0.0785838 0.0754489 0.0675792 0.0643079 0.0638731 0.0725419
43 1 Mg -0.262694 9.34741 52.2523 1.2 1 0.118203 0.0665246 0.0217974 0.0377165 0.0328797 0.0403557 0.045335 0.0646911 0.0289604 0.0824769 0.0339667 0.0584981 0.0457999 0.0747201 0.0505524 0.0919266 0.0582315 0.0996749 0.0534698 0.0944862
44 1 Mg 1.87648 9.01537 49.4629 1.2 1 0.276502 0.0924924 0.0380826 0.0331974 0.0373393 0.0450941 0.0636633 0.0497873 0.0755185 0.0661352 0.0859071 0.0539177 0.0826971 0.0655808 0.0831294 0.0936091 0.0892869 0.0952311 0.0869975 0.0880614
45 2 Si 1.21415 11.3799 51.2378 2.4 1 0.150337 0.0745636 0.0391423 0.0348394 0.033098 0.0516571 0.0592993 0.0403843 0.0546251 0.0711208 0.0769609 0.0622401 0.0777481 0.064614 0.0905724 0.0899627 0.0797843 0.0800918 0.0830027 0.0637159
46 3 O 1.31634 12.9512 51.3023 -1.2 1 0.140797 0.0798205 0.0230444 0.0346529 0.026427 0.0464276 0.0444787 0.070693 0.04511 0.0623764 0.0482358 0.0759979 0.07209 0.0649659 0.0748986 0.0687804 0.0744468 0.0698117 0.0671792 0.0710467
47 3 O 1.46779 10.352 57.8246 -1.2 1 0.0220788 0.0213509 0.0227882 0.0230155 0.0141201 0.0328064 0.0262349 0.0406434 0.0534773 0.0470517 0.0459936 0.039782 0.0543322 0.0567295 0.0905079 0.0744903 0.06441 0.0548715 0.0662232 0.0576933
48 3 O -0.115718 10.7564 50.681 -1.2 1 0.195459 0.0805862 0.0256528 0.0254402 0.046407 0.0272947 0.0543327 0.0639447 0.0490817 0.0565437 0.0651722 0.0473125 0.0633555 0.0716178 0.0903418 0.0797902 0.0736763 0.0744417 0.0819399 0.0808855
49 1 Mg -3.26386 9.35564 52.3622 1.2 1 0.0833218 0.0530488 0.0257056 0.0333827 0.0150378 0.0497234 0.0448421 0.0531686 0.0333962 0.0862607 0.0357933 0.0483805 0.0385849 0.0655329 0.0405883 0.103567 0.0540003 0.102986 0.055462 0.0909379
50 3 O 2.45216 10.7265 50.4558 -1.2 1 0.208102 0.0803727 0.023198 0.0189775 0.0367162 0.0524685 0.0573541 0.0465995 0.0549374 0.0661969 0.0625097 0.0744387 0.0553628 0.0667734 0.0950831 0.0758048 0.0731707 0.0743164 0.0616295 0.0910306
51 1 Mg -1.50859 9.3659 55.0475 1.2 1 0.0213378 0.024311 0.0212122 0.0334361 0.0205374 0.0253595 0.0269575 0.0352644 0.0460303 0.0572524 0.0507259 0.0476396 0.0602849 0.0592356 0.0644282 0.07516 0.0719272 0.0955178 0.0709905 0.0673879
52 2 Si -1.89078 7.33294 53.3244 2.4 1 0.0591101 0.0451621 0.0207238 0.0281423 0.0306452 0.0360121 0.043818 0.0515374 0.0608267 0.065968 0.057958 0.0545548 0.0742904 0.0485082 0.0648317 0.0693797 0.0684012 0.0854456 0.0695246 0.0617705
53 3 O -1.94312 5.83078 53.3865 -1.2 1 0.0565926 0.0411686 0.021052 0.0162815 0.0183554 0.0313404 0.0311173 0.0634825 0.0506514 0.0678124 0.0354876 0.0710043 0.0614729 0.0761265 0.060329 0.0665866 0.0645325 0.0607274 0.0709008 0.0574567
54 3 O -1.19417 8.46968 46.4488 -1.2 1 0.524914 0.0663899 0.0674547 0.0511513 0.0663072 0.057357 0.079563 0.0548116 0.07533 0.0709991 0.0572908 0.0515904 0.0704615 0.098797 0.13064 0.114046 0.0979569 0.0953533 0.0832095 0.0834109
55 3 O -3.13772 8.10093 53.8997 -1.2 1 0.0566986 0.0271239 0.0204323 0.0162137 0.0196206 0.0275858 0.044982 0.0456846 0.0446689 0.0535808 0.0569484 0.0495742 0.0496263 0.0500049 0.0883984 0.0610567 0.0674314 0.0611144 0.0612628 0.073311
56 3 O -0.611951 8.04464 53.8808 -1.2 1 0.0485225 0.0287563 0.0354882 0.0339594 0.0321512 0.0214233 0.0391359 0.0478212 0.0403627 0.0485105 0.0570868 0.0479942 0.0587908 0.0613468 0.08366 0.0562427 0.0772142 0.0633818 0.0756433 0.0684836
57 1 Mg -3.26978 16.3612 57.5782 1.2 1 0.0178628 0.0178149 0.0114928 0.0274974 0.0142595 0.0366 0.022901 0.0558371 0.0372983 0.0721422 0.0266928 0.0539243 0.0238048 0.0673015 0.0410799 0.0966355 0.0556578 0.0939006 0.0531602 0.0767935
58 1 Mg -1.6714 16.3544 49.8412 1.2 1 0.240128 0.0716011 0.0237827 0.0404777 0.0291147 0.0448256 0.0553868 0.0545773 0.0468815 0.0560445 0.0605006 0.0643936 0.0685212 0.0675977 0.099449 0.081316 0.0752502 0.0979982 0.0887011 0.0826088
59 2 Si -1.18567 13.8526 47.9314 2.4 1 0.377089 0.061776 0.0654346 0.0672083 0.0283967 0.0670688 0.0472581 0.0788851 0.0623106 0.0677233 0.0542035 0.0725042 0.060054 0.0755917 0.0984581 0.0758206 0.104517 0.0981561 0.0908619 0.0903092
60 3 O -1.09664 15.4205 47.9915 -1.2 1 0.36634 0.0695484 0.0482415 0.063006 0.0451279 0.0918052 0.06454 0.0842959 0.0572554 0.0885592 0.0558417 0.0726727 0.0591652 0.0813489 0.0812774 0.0734381 0.0935953 0.0785151 0.0761052 0.069925
61 3 O -1.73493 12.7491 51.7772 -1.2 1 0.117271 0.0563079 0.0306433 0.0316037 0.035298 0.0450721 0.0665721 0.0533261 0.0652329 0.0510328 0.061776 0.0437751 0.059265 0.0883822 0.100589 0.0746175 0.0815026 0.0506583 0.0706858 0.0707971
62 3 O -2.36115 13.2717 48.8238 -1.2 1 0.31798 0.0797492 0.0532079 0.0315904 0.0533862 0.0477882 0.0536037 0.0671201 0.0595089 0.0678791 0.0748122 0.0602571 0.0562444 0.0566549 0.0808821 0.0822374 0.087776 0.0807508 0.0828726 0.086148
63 1 Mg -0.159928 11.7639 46.8533 1.2 1 0.486371 0.023811 0.0713272 0.0347046 0.0482119 0.0909048 0.0651171 0.0891972 0.0878946 0.0875701 0.0846848 0.0686726 0.0731842 0.093968 0.0772422 0.0811353 0.0935734 0.0983254 0.102869 0.109476
64 3 O 0.2623 13.1866 48.413 -1.2 1 0.343259 0.0779009 0.0539774 0.0393418 0.0446888 0.055203 0.0465526 0.0635958 0.0633726 0.0738687 0.0640031 0.0600492 0.0691769 0.0897595 0.0984104 0.0811433 0.0933064 0.100455 0.0801099 0.0829074
65 1 Mg 1.06855 11.5091 54.5998 1.2 1 0.0243736 0.0206426 0.0148722 0.0316681 0.0145099 0.0244075 0.0292492 0.0284648 0.0553844 0.0533117 0.0508224 0.0467033 0.0566515 0.0605319 0.0635955 0.0731058 0.076349 0.0873477 0.0700135 0.0709312
66 2 Si 1.36616 14.3459 56.3614 2.4 1 0.0253918 0.0192618 0.020304 0.0149124 0.023051 0.0263933 0.0433708 0.0404862 0.0440519 0.0500173 0.0531134 0.0578979 0.0664242 0.0555547 0.0745734 0.0759508 0.066572 0.0912843 0.0597562 0.0591748
67 3 O 1.29244 12.8147 56.2812 -1.2 1 0.0283513 0.0113085 0.011673 0.0177736 0.0285911 0.0241071 0.023893 0.0682376 0.0327402 0.0599806 0.0358364 0.055821 0.0574638 0.0662611 0.0721545 0.0680778 0.0596792 0.0600689 0.0602766 0.0636879
68 3 O 1.36565 15.4813 52.729 -1.2 1 0.0754228 0.0434805 0.0209198 0.0225879 0.0195192 0.041613 0.0492597 0.0519096 0.0469401 0.0483035 0.0491952 0.0487619 0.0620726 0.0676232 0.0955862 0.0712561 0.0703004 0.0594285 0.0740071 0.0634559
69 3 O 0.201832 15.0588 55.5072 -1.2 1 0.0164168 0.0125432 0.0283129 0.0185054 0.0192724 0.0322597 0.0366494 0.0404387 0.0361606 0.0541447 0.0463226 0.0377777 0.0524089 0.0579978 0.0724933 0.0690675 0.0654517 0.0722791 0.0601718 0.0604984
70 3 O 2.73117 15.0486 55.8833 -1.2 1 0.0278885 0.021238 0.0283027 0.0185653 0.0196214 0.0241553 0.0420984 0.04276 0.0438767 0.0364519 0.0569804 0.0370341 0.0546695 0.0556602 0.0773719 0.0754031 0.0712516 0.0730683 0.0679296 0.06353
71 1 Mg -0.206989 14.1049 52.2121 1.2 1 0.107529 0.0646269 0.024835 0.0466595 0.027909 0.0413017 0.0409419 0.0683265 0.0285485 0.0830946 0.0290804 0.0499993 0.0331776 0.0711326 0.0351124 0.109512 0.0437083 0.100661 0.039657 0.0945707
72 1 Mg 1.82591 13.8102 49.4556 1.2 1 0.26226 0.109695 0.0431036 0.0386115 0.0325602 0.0372467 0.0685699 0.0469063 0.074136 0.0726867 0.0736677 0.0545567 0.0696385 0.0688179 0.0835023 0.0932437 0.0805373 0.101038 0.0885386 0.0840892
73 2 Si 1.29285 16.1518 51.2434 2.4 1 0.135263 0.0821172 0.0396493 0.0345751 0.0394585 0.0487731 0.0530053 0.0457508 0.0545131 0.0686127 0.0659725 0.0676303 0.069798 0.0749823 0.0939967 0.0834774 0.0735206 0.0830682 0.0779411 0.0664301
74 3 O 1.39496 17.7199 51.3047 -1.2 1 0.134318 0.0794303 0.0248854 0.0231567 0.0310028 0.0459615 0.0451074 0.0696094 0.0576815 0.0628255 0.0469377 0.0802729 0.0772014 0.0680219 0.0800839 0.070003 0.07828 0.0776761 0.0671093 0.0728422
75 3 O 1.22088 14.9833 57.8191 -1.2 1 0.00968804 0.0207606 0.0157543 0.0235671 0.023939 0.0398998 0.0356176 0.0403472 0.0589376 0.0411444 0.0435763 0.0435349 0.0559117 0.0690208 0.0928014 0.066561 0.0578596 0.0539874 0.0731408 0.0643594
76 3 O -0.0269106 15.5178 50.6688 -1.2 1 0.182678 0.0926445 0.0242801 0.0244224 0.0416279 0.0434785 0.0619523 0.0620848 0.0525547 0.0559665 0.0589427 0.0494035 0.0602494 0.0689565 0.0922958 0.0768969 0.0774868 0.0786406 0.0745767 0.0865064
77 1 Mg -3.18391 14.1057 52.3125 1.2 1 0.0772043 0.0555456 0.0319244 0.0294531 0.0194701 0.051854 0.041622 0.0602968 0.0377388 0.0836524 0.0327477 0.049918 0.0257122 0.0735711 0.0382504 0.105404 0.046911 0.104455 0.0491201 0.0885739
78 3 O 2.52432 15.503 50.4579 -1.2 1 0.196908 0.0927955 0.0245535 0.0174508 0.0403872 0.0551207 0.0558128 0.0514153 0.0511151 0.0682702 0.0637481 0.0694346 0.0545127 0.0640013 0.0976598 0.0746608 0.0787001 0.0751366 0.0668009 0.088963
79 1 Mg -1.56506 14.1395 55.2091 1.2 1 0.0234372 0.0192029 0.0226722 0.0216128 0.018526 0.0250783 0.0281696 0.0350007 0.0355545 0.0559217 0.0500787 0.0656289 0.0590788 0.0603334 0.0612919 0.0708221 0.0843325 0.0819339 0.0745626 0.0765757
80 2 Si -1.76793 12.1049 53.2898 2.4 1 0.0563096 0.0336325 0.0262765 0.0250033 0.0316863 0.0398084 0.0527764 0.0550899 0.0623054 0.0568965 0.0572045 0.0683073 0.0858996 0.0544555 0.0654143 0.0658978 0.0633554 0.0845701 0.0608998 0.0520536
81 3 O -1.59997 10.6541 53.2815 -1.2 1 0.0678823 0.0368968 0.0219698 0.0219401 0.0323743 0.0306568 0.0295931 0.0715807 0.040105 0.0591804 0.0580752 0.0640486 0.0633011 0.0668353 0.0698265 0.0606884 0.060326 0.0607205 0.0674737 0.0689075
82 3 O -1.21337 13.3381 46.4311 -1.2 1 0.520316 0.0682603 0.0690741 0.0411494 0.0567296 0.05703 0.0571197 0.0711102 0.0808928 0.0664873 0.0452254 0.0705185 0.0684483 0.088551 0.120465 0.113843 0.106329 0.0998158 0.0585806 0.0909802
83 3 O -2.94029 12.6673 54.0456 -1.2 1 0.0284501 0.0171434 0.0339589 0.0271872 0.024384 0.0264086 0.0453885 0.0496224 0.0375324 0.0565621 0.0557087 0.0403884 0.0549431 0.0666136 0.0767959 0.0723298 0.0679185 0.0756398 0.0638607 0.0651988
84 3 O -0.432859 12.7199 54.0292 -1.2 1 0.0498896 0.0256086 0.0217597 0.0178809 0.0264493 0.027305 0.0357401 0.0369595 0.0447025 0.0522155 0.0622684 0.0442819 0.0523454 0.0534643 0.0857717 0.0645279 0.0734253 0.0729227 0.0696959 0.0774185
85 1 Mg -3.02476 21.289 57.1035 1.2 1 0.0036186 0.0207773 0.0152781 0.0242793 0.0169126 0.0332068 0.0228586 0.0514372 0.0307658 0.0763993 0.0291489 0.0476677 0.0315829 0.0587475 0.042309 0.0893284 0.0486733 0.104098 0.0549039 0.0811907
86 1 Mg -1.5831 21.1217 49.8405 1.2 1 0.232544 0.0815183 0.0234255 0.0366077 0.0326449 0.04831 0.0514421 0.0541478 0.0522859 0.0556451 0.0611809 0.0686527 0.0732779 0.0713205 0.0973206 0.0791633 0.0725385 0.0992357 0.0843203 0.0840339
87 2 Si -1.09384 18.6291 47.9287 2.4 1 0.376201 0.0629444 0.0657906 0.0679371 0.0281239 0.0686519 0.0456418 0.0779729 0.0641052 0.068848 0.0533932 0.0730656 0.0613785 0.0751775 0.099427 0.0733656 0.10569 0.0944994 0.0907205 0.089518
88 3 O -1.02071 20.1985 47.9911 -1.2 1 0.365493 0.0705413 0.0495612 0.0623096 0.0448376 0.0915586 0.0626023 0.0825369 0.0560682 0.08736 0.0549304 0.073992 0.061693 0.08216 0.0828679 0.0733851 0.0911531 0.0749616 0.0763319 0.0730235
89 3 O -1.65002 17.5002 51.771 -1.2 1 0.113553 0.0594157 0.0315181 0.023993 0.0347485 0.0517173 0.059227 0.0517252 0.0628678 0.0482111 0.0598085 0.0501051 0.0504941 0.0824816 0.0990113 0.0743352 0.0831707 0.0471137 0.0769775 0.0734978
90 3 O -2.26174 18.0434 48.8281 -1.2 1 0.301603 0.097107 0.0603402 0.0293801 0.0612356 0.0502212 0.0538832 0.07192 0.0580281 0.0649309 0.0741574 0.0595514 0.0526556 0.0580316 0.0772727 0.0856409 0.0875109 0.080608 0.0840334 0.0875007
91 1 Mg -0.0440435 16.5651 46.8269 1.2 1 0.481123 0.021169 0.0808886 0.0316427 0.0666844 0.087542 0.0796572 0.0863975 0.0691666 0.0833202 0.0845405 0.06201 0.0638045 0.0777363 0.0760635 0.0934127 0.09303 0.0958616 0.0995432 0.105401
92 3 O 0.37001 17.9877 48.3925 -1.2 1 0.341282 0.0836108 0.0586287 0.0408467 0.0447967 0.0600423 0.0421089 0.0674304 0.0665323 0.0734254 0.0603877 0.0575051 0.0666273 0.0857298 0.0925458 0.0750553 0.0940364 0.103118 0.0817583 0.0874934
93 1 Mg 1.35514 16.4598 54.6467 1.2 1 0.0032879 0.0227847 0.0120894 0.028347 0.0172128 0.0190276 0.0206698 0.0331791 0.0470758 0.0603368 0.0645978 0.0545288 0.0573462 0.0667186 0.0605855 0.0873745 0.0689004 0.0979185 0.0637035 0.0852485
94 2 Si 1.40977 19.1253 56.4356 2.4 1 0.0241042 0.0126302 0.0143238 0.0174975 0.0284237 0.0281546 0.0336012 0.0394778 0.0468768 0.0578254 0.0464398 0.0601356 0.0631199 0.0536562 0.0800576 0.0725544 0.0708727 0.085096 0.0506791 0.0602983
95 3 O 1.30036 17.5342 56.7179 -1.2 1 0.0296149 0.0236076 0.0174053 0.0213418 0.0176504 0.0265001 0.030108 0.0567573 0.0494646 0.0436653 0.0504506 0.0608861 0.0544392 0.0628878 0.0787843 0.0717366 0.0666058 0.077398 0.0463541 0.0796027
96 3 O 1.45147 20.239 52.7294 -1.2 1 0.0763601 0.0441848 0.0267832 0.0167609 0.0255709 0.0398591 0.0429605 0.0608493 0.0554736 0.0443782 0.0448665 0.04844 0.0544585 0.0664004 0.100862 0.0738098 0.0677404 0.0600516 0.0713226 0.0616228
97 3 O 0.0950714 19.7709 55.5751 -1.2 1 0.00530764 0.00802667 0.0197916 0.0192074 0.0158619 0.0217603 0.0446787 0.0442023 0.0389898 0.0563439 0.0578175 0.0378033 0.0571335 0.0681595 0.0788635 0.0798667 0.0707926 0.0659305 0.0634843 0.0704248
98 3 O 2.65191 19.7549 55.7083 -1.2 1 0.0131729 0.0218572 0.0230146 0.0226204 0.0204776 0.0184592 0.0509242 0.0451359 0.041841 0.0514575 0.0506701 0.0372723 0.0592392 0.0633641 0.0696235 0.0752796 0.0819969 0.0485057 0.0646187 0.0743516
99 1 Mg -0.126194 18.8651 52.2079 1.2 1 0.103641 0.0675081 0.0235104 0.0444004 0.0319448 0.0415089 0.0383026 0.0677246 0.0270909 0.0868805 0.026586 0.0550631 0.0329154 0.0737135 0.0336954 0.105094 0.0481387 0.105499 0.0439251 0.098807
100 1 Mg 1.92402 18.5815 49.4545 1.2 1 0.26769 0.102508 0.0330182 0.0426408 0.0273582 0.0316721 0.0691639 0.0433238 0.0687796 0.0761488 0.079975 0.0576824 0.0761814 0.0707362 0.0810312 0.0911075 0.0769779 0.0980478 0.0861103 0.0841714
101 2 Si 1.38106 20.9117 51.2443 2.4 1 0.130991 0.0840918 0.035529 0.0390639 0.0352722 0.0510053 0.0534362 0.0418276 0.053931 0.0696302 0.0692197 0.0692102 0.06841 0.0652321 0.0889634 0.0839581 0.0788419 0.0790762 0.0720885 0.0691252
102 3 O 1.48527 22.4795 51.3054 -1.2 1 0.139564 0.076577 0.0264454 0.0298972 0.0348668 0.0416796 0.0447412 0.0671821 0.053282 0.0637012 0.0473797 0.0716391 0.0728342 0.0709097 0.0715492 0.0635319 0.0758365 0.0790891 0.0719425 0.0665618
103 3 O 1.30695 19.8528 57.8997 -1.2 1 0.0151073 0.0195555 0.0236128 0.0167973 0.0150871 0.0340371 0.0305739 0.0433059 0.0549362 0.0457631 0.0378601 0.0535187 0.0481665 0.0663545 0.104937 0.0626916 0.0735226 0.0582548 0.07648 0.0576192
104 3 O 0.0615419 20.2804 50.6669 -1.2 1 0.181622 0.0820066 0.0239346 0.0248763 0.0468961 0.0405049 0.0525095 0.0640273 0.0562825 0.0615078 0.0610815 0.0482966 0.0629295 0.0766222 0.0927555 0.0772629 0.0702379 0.0814919 0.0726202 0.0864303
105 1 Mg -3.09665 18.8643 52.3122 1.2 1 0.0724685 0.0616089 0.026058 0.0356023 0.0185644 0.0515241 0.0353166 0.0583158 0.0358908 0.084352 0.0310578 0.0445006 0.0249913 0.0720535 0.0316352 0.106532 0.0499402 0.10327 0.046555 0.0889868
106 3 O 2.61548 20.2646 50.4626 -1.2 1 0.20067 0.0900165 0.0252802 0.021588 0.0366315 0.053443 0.0562835 0.0421121 0.0544969 0.0665466 0.0630196 0.0692651 0.0560096 0.065412 0.0963112 0.0700135 0.0752374 0.071114 0.0633065 0.0895935
107 1 Mg -1.69294 18.9675 55.0084 1.2 1 0.0198283 0.0146817 0.0209186 0.0292227 0.0187494 0.0162235 0.0241361 0.0325478 0.044398 0.0589038 0.0562927 0.052688 0.0678001 0.0644667 0.0552796 0.0809413 0.0787028 0.0955544 0.0703059 0.0792969
108 2 Si -1.62756 16.7148 53.2065 2.4 1 0.0579064 0.0379789 0.0185777 0.0239553 0.0330846 0.0331008 0.0512375 0.0479537 0.0518355 0.0657767 0.0663092 0.0642472 0.0781536 0.0521623 0.0805348 0.0670523 0.0733088 0.0755683 0.0623079 0.0665813
109 3 O -1.67122 15.2076 53.0479 -1.2 1 0.0710921 0.0460219 0.028407 0.0206325 0.0280139 0.0343259 0.0361549 0.0651404 0.0471885 0.0568537 0.0517091 0.0703007 0.0602738 0.0810679 0.0720704 0.0615663 0.0505307 0.0758498 0.0574439 0.0799539
110 3 O -1.12868 18.1227 46.4249 -1.2 1 0.522011 0.0667374 0.0731005 0.0517545 0.0572458 0.0656521 0.0618601 0.079287 0.0794015 0.0619846 0.0445446 0.067281 0.0667407 0.0869858 0.116037 0.114217 0.106474 0.10045 0.0625474 0.0928207
111 3 O -2.90812 17.3555 53.8451 -1.2 1 0.0381029 0.0301 0.0292315 0.0268871 0.0208198 0.0309132 0.0476727 0.0502083 0.0400937 0.0590092 0.0466328 0.0450271 0.0560946 0.0736483 0.067357 0.0665927 0.0762648 0.0573433 0.0676775 0.0740895
112 3 O -0.380122 17.4167 54.0204 -1.2 1 0.0440061 0.0315754 0.0264109 0.0221707 0.0273458 0.0262977 0.0299746 0.0408207 0.0455786 0.0546829 0.0564644 0.0392202 0.0576761 0.060927 0.0800736 0.0647105 0.0705671 0.0663409 0.0722321 0.0771008
113 1 Mg -2.95451 25.9828 57.4733 1.2 1 0.0117195 0.0162381 0.0125684 0.0289319 0.0160154 0.0425571 0.0181775 0.0540379 0.0181848 0.078363 0.023737 0.0552096 0.0216702 0.06764 0.0296283 0.10317 0.0399621 0.106934 0.0396283 0.0918487
114 1 Mg -1.48778 25.88 49.8402 1.2 1 0.237022 0.0747518 0.0216043 0.0385207 0.0315824 0.0451017 0.0564254 0.0536147 0.0496116 0.0585131 0.0612392 0.0649906 0.0700524 0.0690093 0.0957865 0.0803201 0.0735122 0.0946497 0.0813195 0.0782657
115 2 Si -1.00491 23.3922 47.9274 2.4 1 0.380458 0.0553504 0.0612638 0.0730431 0.0314051 0.0750194 0.0389483 0.0779812 0.0637269 0.0743332 0.0530948 0.0735084 0.0623403 0.0738852 0.09229 0.0760662 0.103341 0.0935917 0.0866891 0.0937943
116 3 O -0.927602 24.9615 47.9909 -1.2 1 0.366032 0.0692005 0.046721 0.0611267 0.046061 0.0920347 0.0618583 0.082222 0.0526116 0.0839261 0.0539752 0.0757793 0.0615109 0.0798394 0.0809132 0.0724887 0.095172 0.0765212 0.0711896 0.0715574
117 3 O -1.55795 22.2588 51.7696 -1.2 1 0.111228 0.0593558 0.0285912 0.0271433 0.0380738 0.0451036 0.0655187 0.0541038 0.0651691 0.0528184 0.0613443 0.0489823 0.0581881 0.0845293 0.0936324 0.0840229 0.0805141 0.0489663 0.0702517 0.068624
118 3 O -2.17411 22.8111 48.8277 -1.2 1 0.310935 0.0857336 0.0526202 0.0348824 0.0564442 0.0476629 0.0513042 0.0716296 0.0599057 0.0701256 0.0737706 0.0583072 0.054594 0.0578505 0.0788029 0.0856534 0.0866606 0.0775736 0.0818777 0.0863841
119 1 Mg 0.0423997 21.3296 46.8225 1.2 1 0.481487 0.0215704 0.080757 0.0314951 0.0661869 0.0884488 0.0795072 0.0858463 0.068706 0.0825339 0.0841187 0.0620026 0.0636431 0.0781489 0.0768611 0.0938141 0.0948753 0.0975355 0.0999019 0.106022
120 3 O 0.458537 22.7495 48.3911 -1.2 1 0.354828 0.0644554 0.0456231 0.0496159 0.0437764 0.0564543 0.0439848 0.0630778 0.0630844 0.0718604 0.0594933 0.0552414 0.0605505 0.0831088 0.0913992 0.0743703 0.0935616 0.101969 0.0831434 0.0870022
121 1 Mg 1.46466 21.0583 54.5464 1.2 1 0.0100446 0.029003 0.0142415 0.0348486 0.0163595 0.0185455 0.0275599 0.0318002 0.0490441 0.0594611 0.0498063 0.0506022 0.0574586 0.0656305 0.0672327 0.0781241 0.0543857 0.105267 0.0674319 0.079273
122 2 Si 1.55895 23.9352 56.1957 2.4 1 0.0170185 0.0202061 0.0151425 0.0144159 0.0248965 0.0256204 0.0329843 0.0445574 0.0452799 0.0561615 0.0556235 0.0613566 0.064217 0.0589931 0.0743816 0.079363 0.0580248 0.0873462 0.0682773 0.0486394
123 3 O 1.43006 22.4271 56.2877 -1.2 1 0.0144109 0.0106 0.0110441 0.0156079 0.0258249 0.0214029 0.020528 0.0716227 0.0358346 0.0521941 0.0376915 0.0671414 0.0589317 0.0605586 0.0701199 0.060507 0.0613754 0.0686136 0.0623076 0.0639742
124 3 O 1.54441 24.9963 52.7297 -1.2 1 0.0795845 0.0374789 0.0309362 0.0208974 0.0232028 0.0400543 0.0418765 0.0617704 0.0519042 0.0531168 0.0420411 0.0507557 0.060166 0.0679139 0.0992827 0.0667471 0.067735 0.0654775 0.0790039 0.0590535
125 3 O 0.324875 24.5838 55.5496 -1.2 1 0.0159942 0.0135983 0.0242199 0.0282819 0.0188777 0.028936 0.043758 0.0469798 0.0398803 0.051743 0.0543561 0.0390152 0.0508781 0.0582851 0.0763587 0.0727549 0.0725305 0.0648571 0.0595745 0.0600502
126 3 O 2.77863 24.4403 55.5029 -1.2 1 0.0172206 0.0141561 0.0205424 0.0154823 0.0218907 0.0278954 0.0390614 0.0511432 0.0354313 0.0521109 0.0513994 0.0349045 0.0519978 0.0757216 0.0658143 0.079986 0.0821163 0.0777157 0.0603698 0.0757648