ITEM: TIMESTEP
34000
ITEM: NUMBER OF ATOMS
10500
ITEM: BOX BOUNDS xy xz yz pp pp pp
0	8.9688	2.9896
0	118.725	0
0	252.977	0
ITEM: ATOMS id type element xu yu zu q Q_1 Q_2 Q_3 Q_4 Q_5 Q_6 Q_7 Q_8 Q_9 Q_10 Q_11 Q_12 Q_13 Q_14 Q_15 Q_16 Q_17 Q_18 Q_19 Q_20 Q_21
1 1 Mg -3.24343 7.00421 57.4235 1.2 1 0.00483918 0.0164069 0.0100536 0.0259175 0.00884026 0.036514 0.00885133 0.0537372 0.0139429 0.0828871 0.0202188 0.0526099 0.0179002 0.0657246 0.0245309 0.0992423 0.02981 0.10959 0.0282353 0.0968921
2 1 Mg -1.82655 6.90154 50.0912 1.2 1 0.222385 0.0857085 0.0305452 0.0320389 0.0260694 0.0540295 0.0492606 0.0439966 0.0533519 0.068307 0.0571351 0.0715417 0.0690257 0.0616878 0.0919364 0.0583543 0.0872392 0.0999598 0.0728616 0.0790451
3 2 Si -0.257935 3.96038 48.0876 2.4 1 0.371325 0.0740533 0.0757532 0.0345261 0.0614875 0.0528273 0.0735776 0.0762003 0.0566922 0.0779154 0.0569444 0.0680716 0.0622116 0.0855911 0.0963257 0.0991082 0.109755 0.0906662 0.0694215 0.0725936
4 3 O -0.335812 5.46814 47.6264 -1.2 1 0.426687 0.0402692 0.0662506 0.0298283 0.0411469 0.0489824 0.0652722 0.0710025 0.0869459 0.075103 0.0924628 0.0757133 0.0684611 0.0665187 0.0924743 0.125358 0.0944222 0.0809132 0.0763037 0.0786271
5 3 O -2.03793 3.43377 51.8941 -1.2 1 0.110816 0.0646003 0.0240459 0.0211868 0.0217451 0.0500358 0.0628184 0.0495558 0.0497973 0.0575279 0.0668178 0.0489539 0.0489389 0.0764265 0.08903 0.080848 0.0706633 0.0563381 0.073144 0.0683852
6 3 O -1.54015 3.53929 48.9521 -1.2 1 0.305688 0.0855997 0.0287705 0.0492024 0.0301267 0.0524815 0.0754519 0.0483194 0.0547175 0.059876 0.0724382 0.0677011 0.0686174 0.0679809 0.0740451 0.109156 0.0816361 0.0817304 0.0779033 0.089469
7 1 Mg 1.82954 2.54582 47.1376 1.2 1 0.462681 0.0198207 0.0825778 0.0531867 0.03941 0.0843146 0.0634536 0.060764 0.0747058 0.0863933 0.0671611 0.0774032 0.0819809 0.0846446 0.071265 0.0989054 0.101504 0.101184 0.104244 0.0995193
8 3 O 1.22989 3.66364 48.7877 -1.2 1 0.317522 0.0753649 0.0232874 0.0458769 0.032047 0.0648272 0.0799503 0.032509 0.0821169 0.078854 0.0529034 0.0780464 0.0828599 0.0675477 0.0653056 0.087177 0.0938144 0.090811 0.0930246 0.0915616
9 1 Mg 0.937371 2.2697 54.5788 1.2 1 0.0153914 0.0235575 0.0213015 0.0320045 0.0252856 0.0324078 0.0225201 0.0295597 0.046762 0.0622041 0.0547864 0.0512724 0.0591338 0.0664189 0.0605135 0.0821388 0.0650435 0.0914823 0.0726634 0.0743996
10 2 Si 1.18877 5.08735 56.4347 2.4 1 0.017888 0.0138287 0.0180947 0.0269255 0.0226579 0.0319839 0.0413089 0.0470461 0.0595305 0.0488226 0.0473544 0.0607028 0.0694334 0.0553229 0.0793929 0.0671888 0.0589468 0.0949277 0.0520358 0.054656
11 3 O 0.995482 3.46417 56.3697 -1.2 1 0.0175637 0.00898875 0.0160191 0.0244297 0.0276106 0.0256598 0.0214599 0.0666021 0.0350136 0.0529379 0.038928 0.0640752 0.0594885 0.0620002 0.0695296 0.0718569 0.0532038 0.0677232 0.0706393 0.0664232
12 3 O 1.10813 6.07342 52.8172 -1.2 1 0.0902209 0.0369547 0.0332138 0.0192796 0.0189423 0.047586 0.0431706 0.0512783 0.0549776 0.0454393 0.0524374 0.0567023 0.0645778 0.0699896 0.0895859 0.0786856 0.0608978 0.073462 0.0719853 0.0640365
13 3 O -0.0766664 5.79868 55.7677 -1.2 1 0.0139908 0.012717 0.0216878 0.0226873 0.02432 0.0233106 0.0415884 0.0391629 0.0417594 0.0414667 0.0542268 0.0481403 0.0572192 0.0491123 0.0993547 0.0639592 0.0762272 0.0683917 0.0690959 0.0669437
14 3 O 2.46343 5.70269 55.7763 -1.2 1 0.0163134 0.0131077 0.0284507 0.0171444 0.0272237 0.0177011 0.0436011 0.0413894 0.0458581 0.0392221 0.0549222 0.0387077 0.0565946 0.059022 0.0784012 0.0733571 0.0698916 0.0646542 0.0649057 0.0689953
15 1 Mg -0.459401 4.67631 52.2426 1.2 1 0.088323 0.072756 0.0313009 0.0418386 0.0293421 0.031475 0.0422339 0.0595467 0.0433614 0.0804405 0.0412768 0.0639291 0.0481342 0.0717528 0.0436601 0.102429 0.0523952 0.0951009 0.0571396 0.0882382
16 1 Mg 2.79456 3.9971 49.9987 1.2 1 0.225306 0.0926079 0.0315901 0.0404757 0.0453538 0.0597118 0.0584736 0.0544405 0.0801393 0.0659674 0.0625046 0.0552254 0.0601919 0.0693798 0.0861598 0.0754819 0.071972 0.0904165 0.0852145 0.0738011
17 2 Si 1.16169 6.59457 51.2556 2.4 1 0.134217 0.0904576 0.0352132 0.0336172 0.0430521 0.0516774 0.043495 0.042596 0.0612059 0.0622644 0.0637339 0.0756567 0.0697159 0.0672925 0.0881047 0.0878535 0.0816961 0.0905454 0.0719074 0.0620661
18 3 O 1.28989 8.18905 51.2909 -1.2 1 0.153899 0.0770854 0.0207114 0.0345605 0.0311718 0.04603 0.0391847 0.0688492 0.0468463 0.0773199 0.0427873 0.0878237 0.0716938 0.0614683 0.0742583 0.0696221 0.0705251 0.0645495 0.0699404 0.0714266
19 3 O 1.07155 5.65622 57.9593 -1.2 1 0.00913824 0.021514 0.0220591 0.0169619 0.0200276 0.0347012 0.0280049 0.0491899 0.0522635 0.0475749 0.0361923 0.0501506 0.0512387 0.0640362 0.103634 0.0582562 0.0683377 0.0592681 0.0705896 0.0679083
20 3 O -0.184847 6.06029 50.6845 -1.2 1 0.18654 0.0803094 0.0232068 0.0274195 0.0367287 0.0318697 0.0461076 0.0567917 0.0584676 0.0617352 0.0621632 0.0735854 0.0685055 0.0612507 0.0849787 0.0738381 0.0804699 0.0744386 0.0610747 0.0802441
21 1 Mg -3.49704 4.67769 52.6661 1.2 1 0.0704705 0.0521149 0.0240068 0.0261308 0.0123109 0.0422231 0.0379753 0.0561216 0.0543865 0.0685004 0.0464487 0.0488478 0.0456667 0.0446022 0.0609833 0.0880732 0.0892968 0.080783 0.0713389 0.0701362
22 3 O 2.48581 5.93312 50.6539 -1.2 1 0.190184 0.0938033 0.0313753 0.0201257 0.0341206 0.0463798 0.0603564 0.0591896 0.0446257 0.0676998 0.0454988 0.0686856 0.056312 0.0614866 0.101335 0.0694149 0.075263 0.0670543 0.0788117 0.0741719
23 1 Mg -1.7563 4.68179 55.1083 1.2 1 0.0279464 0.0163936 0.0223119 0.0204821 0.0196464 0.0270926 0.0245007 0.0371573 0.0402922 0.0522062 0.055088 0.0525527 0.0620161 0.0664119 0.0592965 0.0791305 0.0841234 0.0948731 0.0641832 0.0718562
24 2 Si -1.95955 2.57279 53.2558 2.4 1 0.0498776 0.0356704 0.0297476 0.0260602 0.0249519 0.0170113 0.0486336 0.042797 0.0576669 0.069253 0.0593352 0.0661438 0.0749718 0.0499653 0.0740231 0.0572018 0.0777063 0.0829513 0.0784497 0.0623421
25 3 O -2.0114 1.04139 53.1054 -1.2 1 0.0554563 0.0379483 0.026971 0.0231699 0.0213657 0.0423662 0.0278168 0.0637472 0.0596912 0.0599932 0.0558923 0.0648116 0.0544741 0.0784977 0.0720347 0.0676886 0.0491815 0.0684156 0.0589663 0.0856624
26 3 O -0.0467762 2.97103 46.8385 -1.2 1 0.497628 0.0374062 0.0884476 0.0290399 0.0792915 0.0673121 0.0811322 0.0724211 0.0726041 0.0782751 0.0808327 0.0755528 0.0970195 0.0885979 0.0888131 0.0887121 0.0989891 0.0967412 0.104853 0.11125
27 3 O -3.30619 3.23236 54.0917 -1.2 1 0.0289556 0.0330721 0.02261 0.0183719 0.0203126 0.0285723 0.0323259 0.0410733 0.055977 0.0549205 0.0628302 0.036813 0.0602463 0.0611838 0.0773933 0.0649246 0.067047 0.070868 0.0665762 0.0652202
28 3 O -0.760766 3.17991 53.9712 -1.2 1 0.0337729 0.0249901 0.0367719 0.0179271 0.0220309 0.0280282 0.0402918 0.0455456 0.043239 0.0590697 0.060017 0.0419881 0.055627 0.0778053 0.0722962 0.0704694 0.0836547 0.0730756 0.0695566 0.05859
29 1 Mg -3.20423 11.8514 57.3749 1.2 1 0.00955567 0.0195385 0.00537572 0.0303443 0.00411075 0.0310381 0.00895255 0.056583 0.0104837 0.0836766 0.013267 0.0516267 0.0166581 0.0701312 0.0176306 0.106324 0.0264181 0.111947 0.0268302 0.100881
30 1 Mg -1.75014 11.5838 49.8362 1.2 1 0.234312 0.080131 0.0279456 0.0415026 0.0290612 0.0549517 0.0470674 0.0538224 0.0477048 0.0551084 0.0664579 0.0612565 0.0718026 0.0685957 0.106754 0.0876588 0.0660862 0.0925048 0.0881526 0.0816918
31 2 Si -1.18003 9.02138 47.9309 2.4 1 0.371251 0.0664698 0.065981 0.0519765 0.0419234 0.0619453 0.0713738 0.0751834 0.0703864 0.0658965 0.0585438 0.0667748 0.0676596 0.0807844 0.100748 0.0654993 0.100868 0.0910505 0.101824 0.0863446
32 3 O -1.23224 10.5991 47.9811 -1.2 1 0.379406 0.0592262 0.0556379 0.0572081 0.0506249 0.0699364 0.0667941 0.0768203 0.0595292 0.0880642 0.0716888 0.0660904 0.0718874 0.0775233 0.0808742 0.0693173 0.0905066 0.0811715 0.0653249 0.0724349
33 3 O -1.79016 8.01447 51.8693 -1.2 1 0.115829 0.0615551 0.0322974 0.028568 0.0299986 0.0447428 0.0584292 0.0585946 0.0569872 0.0506909 0.0480072 0.0543028 0.0649098 0.0840097 0.0851414 0.0744922 0.0711749 0.0527349 0.0735147 0.0705993
34 3 O -2.30986 8.37215 48.8528 -1.2 1 0.311384 0.0879466 0.0678248 0.0245279 0.0530146 0.0618302 0.0674715 0.0655757 0.0568207 0.0660256 0.0806834 0.0662997 0.0558886 0.067443 0.0807675 0.090167 0.0959773 0.0810129 0.075664 0.0937762
35 1 Mg 0.154883 7.08234 46.8007 1.2 1 0.497254 0.0363576 0.0759956 0.0389028 0.0645681 0.0752338 0.05886 0.0671959 0.0707618 0.0842793 0.0903955 0.075971 0.0785493 0.0799486 0.0697268 0.0912891 0.0926941 0.109305 0.114442 0.0999439
36 3 O 0.325447 8.50934 48.3809 -1.2 1 0.347331 0.0808755 0.0611005 0.0456085 0.0340602 0.0521586 0.0377867 0.0581474 0.06218 0.064524 0.0755752 0.064763 0.0767609 0.0926777 0.091559 0.0691028 0.0932564 0.102071 0.0842336 0.0877506
37 1 Mg 1.15816 7.20876 54.5386 1.2 1 0.0174353 0.0349013 0.0185655 0.0329554 0.0224753 0.024739 0.0223173 0.0306234 0.0437187 0.0601159 0.0642036 0.060919 0.053435 0.0678747 0.0629258 0.0840652 0.0709462 0.0774359 0.091376 0.0721616
38 2 Si 1.32109 9.68981 56.433 2.4 1 0.0208743 0.0157703 0.0262078 0.0295034 0.0253992 0.0251637 0.0409362 0.0332726 0.0493127 0.0629447 0.0569495 0.0624673 0.0595103 0.0582646 0.0898053 0.0719006 0.068004 0.0857957 0.0561732 0.069162
39 3 O 1.25487 8.17904 56.5071 -1.2 1 0.0258838 0.0135263 0.0236933 0.0182682 0.0239593 0.0257594 0.0226209 0.0643708 0.0390601 0.050385 0.0365623 0.0677548 0.0603859 0.0636645 0.0765217 0.0677052 0.0616651 0.0751961 0.061038 0.0693975
40 3 O 1.28624 10.7248 52.7351 -1.2 1 0.0786038 0.0438177 0.0293762 0.0240995 0.0255762 0.0479981 0.046709 0.0502568 0.0480172 0.0468622 0.0421064 0.0459425 0.0564733 0.0670461 0.0977841 0.0818327 0.0679557 0.0542873 0.066613 0.0628503
41 3 O 0.059267 10.4646 55.8149 -1.2 1 0.0110515 0.0108979 0.0324334 0.0215954 0.0237606 0.0228747 0.04114 0.0381569 0.0316853 0.0426877 0.0462766 0.0433739 0.0521506 0.0568599 0.0866124 0.0636811 0.0820466 0.0517575 0.0722161 0.0636744
42 3 O 2.57238 10.4539 55.7074 -1.2 1 0.0223635 0.0140356 0.0233615 0.0216411 0.0226664 0.0216961 0.0493018 0.0402953 0.0350645 0.0431981 0.0579848 0.0387646 0.0528591 0.056482 0.0815077 0.0758002 0.0672092 0.0673754 0.0649676 0.0690021
43 1 Mg -0.262694 9.34741 52.2523 1.2 1 0.115908 0.066325 0.0187355 0.0415174 0.0308541 0.0394114 0.0409233 0.0676313 0.0284109 0.0848129 0.0311947 0.0541042 0.0401921 0.069358 0.0451502 0.101884 0.0524373 0.0970426 0.052521 0.102915
44 1 Mg 1.87648 9.01537 49.4629 1.2 1 0.273021 0.0954893 0.0408246 0.037842 0.0357273 0.0505645 0.0665024 0.0457261 0.0767648 0.0603691 0.0810827 0.0525059 0.0782077 0.0629134 0.0887212 0.0945595 0.0854731 0.0966747 0.0863288 0.0888989
45 2 Si 1.21415 11.3799 51.2378 2.4 1 0.131374 0.0882532 0.0402348 0.0323546 0.0402537 0.0524168 0.0530079 0.0423791 0.0563757 0.0610825 0.0712184 0.0722572 0.0745805 0.067655 0.0930614 0.0892596 0.0782726 0.0813007 0.0776129 0.0586484
46 3 O 1.31634 12.9512 51.3023 -1.2 1 0.153714 0.0684015 0.0249183 0.0334994 0.0260657 0.0450604 0.0406923 0.0643584 0.0486394 0.0641203 0.0465121 0.0737959 0.0662869 0.0629365 0.0683209 0.0685009 0.0777356 0.0689806 0.0686145 0.0745609
47 3 O 1.43059 10.3928 57.9078 -1.2 1 0.0112492 0.0190536 0.0191194 0.0258844 0.0104046 0.0306214 0.0305751 0.047943 0.0556439 0.0470622 0.0435529 0.0465478 0.0594504 0.0687341 0.0992392 0.0779532 0.059405 0.0599415 0.072743 0.0590167
48 3 O -0.115718 10.7564 50.681 -1.2 1 0.187999 0.0850242 0.0240224 0.0251425 0.041729 0.032532 0.0527546 0.0685548 0.0502103 0.055212 0.0603782 0.0504951 0.0614873 0.0700086 0.0946726 0.0795896 0.074331 0.0761881 0.0763226 0.0807591
49 1 Mg -3.26386 9.35564 52.3622 1.2 1 0.0835074 0.0553841 0.025404 0.0281401 0.0182512 0.0538173 0.0363716 0.0564858 0.0304804 0.0872264 0.0317836 0.0518642 0.0371654 0.0674435 0.0388806 0.103229 0.0494884 0.100877 0.052516 0.0958064
50 3 O 2.45216 10.7265 50.4558 -1.2 1 0.203515 0.0877159 0.0199743 0.0165796 0.0355905 0.0552616 0.0581679 0.0487599 0.0573617 0.0677032 0.061712 0.0747259 0.053008 0.0645126 0.0963177 0.0832121 0.0748289 0.0757787 0.0587665 0.0881042
51 1 Mg -1.70987 9.61149 55.1604 1.2 1 0.0195338 0.00845618 0.0188417 0.0320213 0.0125065 0.0218103 0.0272179 0.0335167 0.0395171 0.0546918 0.0603088 0.058854 0.0614404 0.0656883 0.0689908 0.0724136 0.080219 0.085097 0.0823604 0.068877
52 2 Si -1.88498 7.44033 53.336 2.4 1 0.0451219 0.0400257 0.0315913 0.0349332 0.0374924 0.0314262 0.0484169 0.0521404 0.0586854 0.0601445 0.0606095 0.0582459 0.0776673 0.0500439 0.0666906 0.063715 0.0753735 0.0860346 0.0631207 0.056801
53 3 O -1.83901 5.82939 53.2151 -1.2 1 0.0656674 0.0373447 0.0229888 0.0142793 0.0181241 0.0289324 0.034196 0.0670549 0.0519998 0.0557278 0.0344538 0.0796453 0.053589 0.0736636 0.0674234 0.068486 0.0551483 0.0618896 0.0647654 0.071584
54 3 O -1.19417 8.46968 46.4488 -1.2 1 0.524934 0.0663263 0.0671739 0.0513086 0.0665685 0.0565113 0.078473 0.054726 0.0764969 0.0722523 0.0582075 0.0515655 0.0690544 0.0974764 0.130404 0.114393 0.0979219 0.0949696 0.0828256 0.0828298
55 3 O -3.14336 8.03316 54.0079 -1.2 1 0.0446577 0.0251913 0.0207381 0.0215687 0.0208262 0.0277608 0.0403797 0.0454044 0.0449392 0.0537938 0.0551998 0.0414834 0.0568881 0.0621576 0.0812038 0.0656461 0.0651435 0.0609122 0.061463 0.0773481
56 3 O -0.601912 8.13396 54.0229 -1.2 1 0.0596735 0.0243885 0.0266227 0.0200959 0.0297153 0.0216633 0.0334873 0.0437135 0.0416981 0.0491707 0.059235 0.0474585 0.0540332 0.0572573 0.0849639 0.0649512 0.0721007 0.0735452 0.0680015 0.0704781
57 1 Mg -3.38425 16.5241 57.4297 1.2 1 0.00596195 0.018899 0.00928189 0.0314435 0.00762704 0.0319367 0.0172347 0.0545016 0.0280466 0.0770628 0.0232172 0.0517054 0.0256061 0.0698845 0.0347657 0.0922938 0.0511346 0.104328 0.0484879 0.0813833
58 1 Mg -1.6714 16.3544 49.8412 1.2 1 0.229351 0.0826431 0.0246217 0.0434139 0.0290114 0.0508395 0.053553 0.0549492 0.0491138 0.0608966 0.0621249 0.0630018 0.0745486 0.0754157 0.107495 0.0871014 0.0763335 0.0932679 0.0843918 0.0850931
59 2 Si -1.18567 13.8526 47.9314 2.4 1 0.375827 0.0656698 0.0727368 0.0664935 0.0279294 0.0660047 0.0496579 0.0817705 0.0585276 0.0654325 0.0560599 0.0726219 0.0587511 0.0754036 0.0989126 0.0740784 0.102743 0.0987459 0.0906256 0.0886426
60 3 O -1.09664 15.4205 47.9915 -1.2 1 0.366097 0.0702624 0.0496064 0.0623965 0.0452495 0.092594 0.0627599 0.0814506 0.056515 0.0896416 0.0546771 0.0723701 0.0599075 0.0816567 0.0817302 0.074724 0.0949326 0.0787664 0.0759123 0.0685828
61 3 O -1.73493 12.7491 51.7772 -1.2 1 0.11726 0.0573536 0.0288996 0.0302723 0.0367832 0.0444232 0.0663425 0.0518382 0.0656738 0.0519 0.05744 0.0486269 0.0610681 0.0821589 0.102421 0.0792628 0.0814572 0.0516849 0.0718138 0.070644
62 3 O -2.36115 13.2717 48.8238 -1.2 1 0.311119 0.086904 0.0551896 0.0302735 0.0549106 0.0498378 0.0540963 0.0689331 0.0614474 0.0646891 0.0742329 0.063132 0.0580966 0.0547294 0.0836286 0.0857742 0.0864769 0.0776004 0.0801782 0.0879954
63 1 Mg -0.159928 11.7639 46.8533 1.2 1 0.485444 0.0221471 0.0754851 0.0323918 0.0476492 0.0935969 0.0644837 0.0856233 0.0845105 0.0844105 0.0830559 0.0694016 0.0740044 0.0939244 0.078546 0.0866232 0.100201 0.100639 0.100056 0.107026
64 3 O 0.2623 13.1866 48.413 -1.2 1 0.346682 0.0742985 0.0533236 0.0378805 0.046095 0.0581289 0.0377838 0.0636036 0.0679347 0.0708623 0.0599361 0.0583742 0.0656409 0.0875276 0.0964146 0.0810926 0.0956289 0.099436 0.0813635 0.0825095
65 1 Mg 1.36473 11.7278 54.542 1.2 1 0.0110907 0.0258156 0.0137035 0.0312234 0.00926499 0.0167269 0.0229746 0.03497 0.0416855 0.0590331 0.0550622 0.0524818 0.0534209 0.0660843 0.0580641 0.0760491 0.0698373 0.101219 0.0693847 0.0809065
66 2 Si 1.28155 14.4209 56.2954 2.4 1 0.0226457 0.0211397 0.0135772 0.026649 0.030138 0.0184963 0.0426129 0.041001 0.0426605 0.0584975 0.0580047 0.0555622 0.0638741 0.0590547 0.0738067 0.0826832 0.0617551 0.0928892 0.0624103 0.060488
67 3 O 1.27276 12.897 56.4675 -1.2 1 0.0316046 0.0124689 0.0161129 0.0238432 0.020539 0.0285808 0.0191346 0.0665098 0.039578 0.0485265 0.0409738 0.0645769 0.0534635 0.0627092 0.0742158 0.0701584 0.0622813 0.0735311 0.057882 0.0754577
68 3 O 1.36565 15.4813 52.729 -1.2 1 0.0741724 0.0453732 0.0216547 0.0230518 0.0252809 0.0416371 0.0508907 0.0518211 0.0460227 0.0485262 0.043564 0.0523675 0.0587319 0.0643105 0.0994426 0.0712865 0.0738259 0.0582124 0.0707633 0.0647197
69 3 O 0.11071 15.1683 55.5658 -1.2 1 0.0130248 0.0129038 0.0216176 0.0152259 0.0156676 0.0204051 0.0436555 0.0451276 0.0306773 0.0478428 0.0517508 0.0390372 0.0529176 0.059628 0.0787158 0.0718341 0.0717102 0.0655088 0.0620244 0.0673568
70 3 O 2.5928 15.1247 55.759 -1.2 1 0.0275411 0.013571 0.026455 0.0203146 0.0234463 0.0175828 0.0443622 0.0422293 0.037131 0.0418342 0.0574295 0.0372889 0.0501163 0.0679503 0.0776968 0.0767131 0.0777991 0.0605816 0.068331 0.0682884
71 1 Mg -0.206989 14.1049 52.2121 1.2 1 0.0994304 0.0658544 0.0280605 0.0441991 0.0275631 0.0463873 0.0342056 0.0744831 0.0295249 0.0845513 0.0266761 0.0533999 0.0293833 0.0738901 0.0339718 0.111739 0.0410222 0.101502 0.0432077 0.101457
72 1 Mg 1.82591 13.8102 49.4556 1.2 1 0.263566 0.105886 0.0371103 0.0408562 0.0379426 0.0372971 0.0679434 0.0460626 0.0700223 0.0714949 0.0751916 0.0569417 0.0694385 0.0675812 0.0860697 0.0930075 0.0787338 0.101793 0.0880036 0.0807132
73 2 Si 1.29285 16.1518 51.2434 2.4 1 0.133655 0.081119 0.038791 0.03529 0.0383133 0.0527806 0.0520633 0.0402954 0.055909 0.0661887 0.0664925 0.0700655 0.0648839 0.0711133 0.0945016 0.0849227 0.0750969 0.0850189 0.0777527 0.064005
74 3 O 1.39496 17.7199 51.3047 -1.2 1 0.143945 0.070881 0.031446 0.0359536 0.0391558 0.0405243 0.0395193 0.0616319 0.0612242 0.0638717 0.0438869 0.0769533 0.0662761 0.0641516 0.0714615 0.0673329 0.0755306 0.0780061 0.0696232 0.0740259
75 3 O 1.18533 15.1951 57.7963 -1.2 1 0.00999843 0.0232507 0.0239225 0.00956985 0.0196061 0.0319521 0.0294165 0.0490949 0.0549225 0.041957 0.0434163 0.0413755 0.0499422 0.0641218 0.102949 0.068298 0.06181 0.0520169 0.0719419 0.0660789
76 3 O -0.0269106 15.5178 50.6688 -1.2 1 0.185056 0.0883556 0.0251473 0.0229865 0.0429833 0.0408549 0.0577731 0.0623505 0.0567659 0.0568806 0.0587093 0.0487746 0.0615311 0.0714435 0.0930711 0.078619 0.0759797 0.0782646 0.0729773 0.0881321
77 1 Mg -3.18391 14.1057 52.3125 1.2 1 0.0818632 0.0553696 0.0282359 0.0302268 0.0218572 0.0514163 0.0357013 0.060911 0.0315826 0.0811282 0.0323879 0.049165 0.0277264 0.0720677 0.0332398 0.106264 0.0478276 0.102126 0.0454511 0.0911505
78 3 O 2.52432 15.503 50.4579 -1.2 1 0.200071 0.0866922 0.0226357 0.0149065 0.041856 0.0522541 0.0539676 0.0469355 0.0543518 0.0655816 0.0636461 0.0670013 0.0535629 0.061787 0.100497 0.077254 0.0773296 0.074953 0.0662985 0.083721
79 1 Mg -1.78171 14.2941 55.0471 1.2 1 0.0222509 0.0171631 0.0152701 0.0310493 0.0144933 0.0194213 0.0171403 0.0336958 0.0395667 0.0550205 0.0642723 0.0541703 0.0602257 0.0598241 0.063017 0.076217 0.0735645 0.0933169 0.0755604 0.0804073
80 2 Si -1.61833 12.1389 53.2793 2.4 1 0.0456143 0.034227 0.0226374 0.0281447 0.0342757 0.037634 0.0466699 0.0582965 0.0561158 0.0598235 0.0588155 0.0689878 0.0822836 0.0479211 0.0686265 0.063161 0.0630152 0.0912131 0.0608136 0.058872
81 3 O -1.67008 10.5859 53.2733 -1.2 1 0.0648338 0.0348554 0.02415 0.0198012 0.0341522 0.031318 0.0267911 0.0723757 0.0426303 0.0565497 0.0506739 0.063665 0.0575168 0.0694715 0.068696 0.0613306 0.0509875 0.0617502 0.0695738 0.0700495
82 3 O -1.21337 13.3381 46.4311 -1.2 1 0.520165 0.0676225 0.0694391 0.0408433 0.056171 0.0574378 0.0573978 0.0702854 0.0798678 0.0660463 0.0460593 0.0709978 0.0679355 0.0882032 0.121064 0.114778 0.106616 0.0999022 0.0597923 0.0913558
83 3 O -2.9817 12.8572 53.9722 -1.2 1 0.044324 0.0158792 0.0298694 0.0208981 0.0203248 0.0269155 0.051619 0.0419835 0.040397 0.0520584 0.0509232 0.0417674 0.0552377 0.062943 0.0872871 0.0644612 0.0712085 0.0643982 0.0658033 0.0724376
84 3 O -0.346649 12.8236 53.8763 -1.2 1 0.0523909 0.0240063 0.0268128 0.0208252 0.0262056 0.0177653 0.0438378 0.0442652 0.0470128 0.0530734 0.0576747 0.0449498 0.0547706 0.0559791 0.0872588 0.0626162 0.0742646 0.0634649 0.0695561 0.0692694
85 1 Mg -3.17897 21.2605 57.3826 1.2 1 0.00428077 0.0175409 0.0078872 0.03649 0.00654739 0.0396397 0.0058327 0.0574516 0.0119029 0.0845021 0.0104951 0.0499225 0.0169628 0.0673098 0.0209786 0.106199 0.0222796 0.108601 0.0201724 0.101291
86 1 Mg -1.5831 21.1217 49.8405 1.2 1 0.22946 0.0833866 0.0253882 0.0403105 0.0323056 0.0497804 0.052665 0.0548866 0.0507467 0.0598641 0.0633876 0.0663939 0.0735996 0.074223 0.103139 0.0802675 0.0724189 0.0946249 0.0847201 0.0858996
87 2 Si -1.09384 18.6291 47.9287 2.4 1 0.379205 0.0607055 0.0676309 0.0668767 0.0289002 0.0671899 0.0441951 0.0788528 0.0619047 0.0681417 0.0544528 0.0732419 0.0588971 0.0734325 0.100342 0.0741956 0.103198 0.0930271 0.0903894 0.0875299
88 3 O -1.02071 20.1985 47.9911 -1.2 1 0.365798 0.0697026 0.0488144 0.0633177 0.0444446 0.0909165 0.0632057 0.0828603 0.0556116 0.0877359 0.0544215 0.0720435 0.06239 0.0846087 0.0824449 0.0746423 0.094482 0.0765112 0.0751264 0.0698413
89 3 O -1.65002 17.5002 51.771 -1.2 1 0.110493 0.0602896 0.0316016 0.0268228 0.0337066 0.0538232 0.0586564 0.0491959 0.0660952 0.0537832 0.0550741 0.0499827 0.0515256 0.0823359 0.102307 0.0735703 0.0807595 0.0440838 0.0760184 0.0740637
90 3 O -2.26174 18.0434 48.8281 -1.2 1 0.306597 0.0888845 0.0558715 0.0335414 0.0596778 0.0505729 0.0566449 0.0727651 0.0577536 0.0607294 0.0711982 0.0614908 0.0537181 0.0548036 0.0767708 0.0864254 0.0866812 0.0818524 0.0830423 0.08711
91 1 Mg -0.0440435 16.5651 46.8269 1.2 1 0.488104 0.0225563 0.0753202 0.0319968 0.0584655 0.0796582 0.0690921 0.0804999 0.0731871 0.0885991 0.0880051 0.0635826 0.063918 0.0807464 0.077562 0.0904212 0.0927735 0.0977845 0.101147 0.108708
92 3 O 0.37001 17.9877 48.3925 -1.2 1 0.345099 0.0780623 0.0565311 0.0401261 0.0466861 0.0621322 0.0410792 0.0662897 0.0656242 0.0710694 0.0593198 0.0567723 0.0654593 0.086818 0.0950862 0.0778844 0.0957079 0.103068 0.0819056 0.0863471
93 1 Mg 1.46707 16.6328 54.6569 1.2 1 0.0170692 0.0262067 0.0151553 0.0272969 0.0187614 0.0220398 0.022356 0.032381 0.0438447 0.0592089 0.0615329 0.0521613 0.0609896 0.0627677 0.0601847 0.0942748 0.0679098 0.094745 0.0689561 0.0825832
94 2 Si 1.22788 19.2913 56.3502 2.4 1 0.0181918 0.0183566 0.0243863 0.0272069 0.0365817 0.0273486 0.0418664 0.0450901 0.0562172 0.0491165 0.0515048 0.0597873 0.0671884 0.0552969 0.0762312 0.0765068 0.0610883 0.0847366 0.058734 0.0533704
95 3 O 1.24495 17.7561 56.5646 -1.2 1 0.0404704 0.0141129 0.01846 0.0184949 0.0208902 0.0226956 0.0257241 0.0606733 0.0439722 0.0375056 0.0450329 0.0649654 0.0553458 0.0640667 0.0774084 0.0706283 0.0699965 0.0775172 0.0510702 0.0774873
96 3 O 1.45147 20.239 52.7294 -1.2 1 0.068015 0.0414625 0.0326143 0.0189443 0.0281941 0.0439259 0.0488348 0.0553565 0.0502901 0.0481668 0.0461312 0.0527056 0.0586664 0.0653275 0.103949 0.0752039 0.0708531 0.0598238 0.0722885 0.0654015
97 3 O -0.0338659 19.8814 55.6436 -1.2 1 0.0108197 0.00778047 0.0228935 0.0170397 0.0200594 0.0247389 0.0382018 0.0469437 0.0382711 0.0496035 0.0580629 0.0362747 0.0548666 0.0642447 0.0848393 0.0753224 0.0704349 0.0646749 0.0606408 0.0805783
98 3 O 2.56765 19.9197 55.7057 -1.2 1 0.0284998 0.0172761 0.0304089 0.0144354 0.0230314 0.0159535 0.0452299 0.0424599 0.0392357 0.0403122 0.0534819 0.0404665 0.0516231 0.063448 0.0804021 0.0725884 0.078543 0.0604835 0.0668637 0.0691241
99 1 Mg -0.126194 18.8651 52.2079 1.2 1 0.10218 0.0682121 0.0223917 0.0428613 0.0280937 0.0442311 0.033996 0.071899 0.0247787 0.0885423 0.0219319 0.0578479 0.0300542 0.074701 0.0351628 0.104953 0.0421983 0.104343 0.0375487 0.101122
100 1 Mg 1.92402 18.5815 49.4545 1.2 1 0.263925 0.106981 0.0323701 0.0445166 0.0304394 0.0356337 0.0701003 0.0411119 0.0666579 0.0708552 0.077014 0.0575338 0.0735492 0.0678571 0.0851503 0.0940628 0.0806977 0.0974409 0.0834208 0.0811272
101 2 Si 1.38106 20.9117 51.2443 2.4 1 0.135477 0.0800953 0.0398605 0.0353505 0.03375 0.0501931 0.0515136 0.0474864 0.0547932 0.0691597 0.0645594 0.0688098 0.0704241 0.0688334 0.0927128 0.0861136 0.0716824 0.0833814 0.0718113 0.0636111
102 3 O 1.48527 22.4795 51.3054 -1.2 1 0.138853 0.0729809 0.0332298 0.0393926 0.0355749 0.0454687 0.0399821 0.0648448 0.0597513 0.0652146 0.0410808 0.0786742 0.0723268 0.064925 0.075119 0.0669425 0.0767786 0.079511 0.0718785 0.0716547
103 3 O 1.25163 20.0036 57.8792 -1.2 1 0.013461 0.0163942 0.0232494 0.0137746 0.0193965 0.0356177 0.0330441 0.043442 0.0475309 0.0454969 0.0361944 0.0517004 0.0459214 0.0601689 0.108134 0.0630423 0.0685625 0.0538669 0.0680382 0.0648807
104 3 O 0.0615419 20.2804 50.6669 -1.2 1 0.184832 0.0809051 0.0243273 0.0285081 0.0437676 0.0379941 0.0511251 0.0684922 0.0566003 0.05786 0.0598277 0.0439582 0.0608895 0.0769182 0.0935722 0.0803019 0.0732153 0.0792283 0.0751462 0.0875618
105 1 Mg -3.09665 18.8643 52.3122 1.2 1 0.0739545 0.0594531 0.0295148 0.0318341 0.0175537 0.0541857 0.031904 0.0623573 0.0313097 0.0797423 0.029918 0.0461192 0.0217114 0.074631 0.0307387 0.109059 0.0486988 0.105135 0.0417843 0.0895033
106 3 O 2.61548 20.2646 50.4626 -1.2 1 0.201459 0.0872805 0.0265097 0.0181256 0.0415487 0.0486652 0.0584964 0.0459822 0.0541738 0.0670881 0.0666693 0.0691887 0.0520561 0.0592867 0.0990103 0.0735569 0.0721715 0.0707626 0.0637688 0.0843453
107 1 Mg -1.69988 19.0563 54.9902 1.2 1 0.0318297 0.0109381 0.0172034 0.0257024 0.013352 0.0165777 0.0197027 0.0310862 0.0415288 0.0543355 0.0603072 0.0580671 0.0568444 0.0595542 0.0612282 0.0824318 0.0724437 0.0984533 0.0703989 0.0875763
108 2 Si -1.59516 16.8279 53.2243 2.4 1 0.0524137 0.0363393 0.0209661 0.0303256 0.0320799 0.0355092 0.0497131 0.0542526 0.0568946 0.0627387 0.0604789 0.0661091 0.0776184 0.0504568 0.0723924 0.0633326 0.0664611 0.0906983 0.0625214 0.0666704
109 3 O -1.66144 15.3084 53.0548 -1.2 1 0.0810741 0.0388918 0.0212953 0.0218618 0.0357432 0.029525 0.031707 0.0748619 0.048902 0.0550425 0.0518217 0.0706901 0.0533341 0.0736299 0.0709086 0.0625335 0.0507001 0.0735453 0.0619284 0.0905205
110 3 O -1.12868 18.1227 46.4249 -1.2 1 0.522037 0.0663337 0.0724322 0.0518688 0.0576048 0.0650279 0.060835 0.0789063 0.0791962 0.0618074 0.0449249 0.0678921 0.067469 0.0875785 0.116498 0.114819 0.107377 0.101296 0.0628364 0.0924984
111 3 O -2.86677 17.616 53.9164 -1.2 1 0.0357917 0.0167976 0.0332879 0.0234432 0.0222612 0.0258745 0.0513001 0.0437782 0.04108 0.0519541 0.0518471 0.0407443 0.054258 0.0601088 0.0845854 0.0686946 0.068154 0.0624953 0.0691515 0.0684916
112 3 O -0.196189 17.4623 53.8654 -1.2 1 0.0531256 0.029765 0.0193936 0.0203585 0.0287298 0.021998 0.0340071 0.0477509 0.0546015 0.0557338 0.0519675 0.0374863 0.0608532 0.0620097 0.0795501 0.0647737 0.0732706 0.0708774 0.0687474 0.0735613
113 1 Mg -2.97682 25.8781 57.2198 1.2 1 0.0128622 0.0142377 0.0152274 0.0296506 0.0128193 0.0355239 0.0166137 0.0500183 0.0274555 0.0741654 0.0297265 0.0485368 0.0302029 0.0588498 0.0317402 0.0931198 0.0524314 0.104357 0.0549932 0.0796555
114 1 Mg -1.48778 25.88 49.8402 1.2 1 0.229844 0.08067 0.0243392 0.0416871 0.0324485 0.0491282 0.053744 0.0561961 0.0502661 0.0617324 0.0617271 0.0655516 0.0737658 0.0735183 0.102083 0.0820803 0.0732476 0.0959412 0.0855007 0.0835037
115 2 Si -1.00491 23.3922 47.9274 2.4 1 0.372857 0.0684579 0.0744127 0.0693089 0.0371268 0.0743029 0.0422249 0.0814121 0.0688554 0.0748413 0.0550884 0.0764335 0.0593177 0.0738719 0.0932163 0.0777109 0.103147 0.0964752 0.0896606 0.0964364
116 3 O -0.927602 24.9615 47.9909 -1.2 1 0.370085 0.0628538 0.0424326 0.0631504 0.0440513 0.0907355 0.062612 0.0805282 0.0542341 0.0867538 0.0547791 0.0748397 0.0610641 0.0776492 0.0774977 0.0720309 0.0943923 0.0774213 0.0745631 0.0708045
117 3 O -1.55795 22.2588 51.7696 -1.2 1 0.111577 0.0585938 0.0336041 0.0292857 0.0318972 0.0522769 0.0627501 0.0510757 0.0636618 0.0529105 0.0589076 0.0513025 0.0507984 0.0839181 0.100511 0.0755552 0.0811487 0.0455857 0.0723414 0.071935
118 3 O -2.17411 22.8111 48.8277 -1.2 1 0.298358 0.10112 0.065209 0.0267594 0.0633067 0.048209 0.0578646 0.0704066 0.0615844 0.0685658 0.0717036 0.0601104 0.052444 0.0585295 0.0790816 0.0875438 0.0859606 0.0779757 0.0860183 0.0920965
119 1 Mg 0.0423997 21.3296 46.8225 1.2 1 0.484635 0.0201559 0.0789455 0.0303481 0.0615669 0.0841429 0.0731087 0.0831142 0.071292 0.0834185 0.0835008 0.0630002 0.0660597 0.0796066 0.0761401 0.0930885 0.0962732 0.0986189 0.100392 0.106836
120 3 O 0.458537 22.7495 48.3911 -1.2 1 0.347607 0.0763873 0.0573987 0.0385892 0.0471488 0.0611575 0.0419694 0.0635515 0.0629436 0.0730606 0.0612739 0.0572054 0.0668761 0.0847933 0.0922001 0.0776116 0.0944577 0.103525 0.0825665 0.0861472
121 1 Mg 1.37071 21.2529 54.6101 1.2 1 0.0118819 0.0239688 0.0189627 0.0287141 0.00964128 0.0197125 0.0245034 0.0351874 0.0512475 0.0613945 0.0537114 0.0539097 0.05668 0.0656248 0.0593486 0.0887053 0.0601152 0.096785 0.0671792 0.0854427
122 2 Si 1.36006 23.9715 56.39 2.4 1 0.0179862 0.0202086 0.0243862 0.0281632 0.0332733 0.0271949 0.0422251 0.0450855 0.046418 0.0485733 0.0549317 0.0603867 0.0691102 0.0600475 0.0813005 0.0743632 0.0625556 0.0938562 0.0548708 0.0571097
123 3 O 1.35591 22.5 56.4718 -1.2 1 0.0288032 0.0190184 0.00837402 0.0163229 0.0281573 0.0227956 0.0227008 0.0578508 0.0344138 0.0470633 0.0482273 0.0634711 0.054922 0.0620513 0.0739773 0.0706547 0.0591376 0.0740147 0.0568473 0.071949
124 3 O 1.54441 24.9963 52.7297 -1.2 1 0.0664696 0.0375672 0.0326707 0.0232343 0.0231674 0.0477325 0.054521 0.0529264 0.0515739 0.0452646 0.0466092 0.0502109 0.0563478 0.0679458 0.103132 0.0732691 0.0727938 0.0608147 0.0754006 0.0594372
125 3 O 0.146895 24.7434 55.8389 -1.2 1 0.00791991 0.0109995 0.0291174 0.0196279 0.0158068 0.0167839 0.0386186 0.0421732 0.0339265 0.0368267 0.0552483 0.0433617 0.0473029 0.0584553 0.0963629 0.0668389 0.0742986 0.0639928 0.0662601 0.0711027
126 3 O 2.62168 24.6277 55.6046 -1.2 1 0.00965746 0.0164289 0.0230903 0.0146045 0.0286061 0.0293801 0.0464958 0.0438015 0.0384671 0.0446294 0.055701 0.0358701 0.0596608 0.0690101 0.0764464 0.0741057 0.0715959 0.0711457 0.0660196 0.0663701