ITEM: TIMESTEP
73600
ITEM: NUMBER OF ATOMS
10500
ITEM: BOX BOUNDS xy xz yz pp pp pp
0	8.9688	2.9896
0	118.725	0
0	252.977	0
ITEM: ATOMS id type element xu yu zu q Q_1 Q_2 Q_3 Q_4 Q_5 Q_6 Q_7 Q_8 Q_9 Q_10 Q_11 Q_12 Q_13 Q_14 Q_15 Q_16 Q_17 Q_18 Q_19 Q_20 Q_21
1 1 Mg -3.14412 7.18826 57.0416 1.2 1 0.00742008 0.0129305 0.0174101 0.0256932 0.0225272 0.0286029 0.0266918 0.035047 0.0517015 0.0601339 0.0405019 0.0417847 0.0374283 0.0540934 0.0584568 0.0879266 0.0774869 0.0807808 0.0794893 0.0578961
2 1 Mg -1.82655 6.90154 50.0912 1.2 1 0.226192 0.0841641 0.0342233 0.0284014 0.0294464 0.0552521 0.048273 0.0407641 0.0544679 0.0670284 0.0550614 0.069034 0.071067 0.0614733 0.0940838 0.0598145 0.0835804 0.0965495 0.0718801 0.0771771
3 2 Si -0.257935 3.96038 48.0876 2.4 1 0.371285 0.0710753 0.0726589 0.035135 0.05882 0.0481135 0.0715996 0.0779255 0.0619196 0.0757305 0.0552353 0.0717898 0.0662951 0.0890123 0.101615 0.10073 0.107017 0.0908725 0.0722908 0.0735922
4 3 O -0.335812 5.46814 47.6264 -1.2 1 0.427187 0.0396081 0.0646741 0.0317346 0.040499 0.0483655 0.0655341 0.0706387 0.0873061 0.074926 0.0915815 0.0762312 0.0707398 0.0686697 0.092113 0.124078 0.0928567 0.0797704 0.076658 0.0791113
5 3 O -2.03793 3.43377 51.8941 -1.2 1 0.110495 0.0608699 0.0272408 0.0240563 0.0238374 0.052691 0.0601799 0.049701 0.0506384 0.0590994 0.0665297 0.0488395 0.0513526 0.0804124 0.0907702 0.082103 0.0656125 0.0601639 0.0713874 0.0670193
6 3 O -1.54015 3.53929 48.9521 -1.2 1 0.296075 0.0998676 0.0408433 0.0471353 0.0404619 0.0493335 0.0724239 0.0524582 0.0544137 0.0617428 0.0767925 0.068389 0.0674664 0.069208 0.0709596 0.109107 0.0804847 0.0775622 0.0755583 0.0930881
7 1 Mg 1.82954 2.54582 47.1376 1.2 1 0.461814 0.0231599 0.0868861 0.0543104 0.0398306 0.0839284 0.0614588 0.0592482 0.0724432 0.0849765 0.0685797 0.0793734 0.0823352 0.0840723 0.0696169 0.0962606 0.101623 0.105137 0.105631 0.0983903
8 3 O 1.22989 3.66364 48.7877 -1.2 1 0.318173 0.0744366 0.0222083 0.0465948 0.0317791 0.0644661 0.0796378 0.0338405 0.0825029 0.0796666 0.0524208 0.0761524 0.0808174 0.0687269 0.0675012 0.0859285 0.0903008 0.089151 0.0949976 0.09372
9 1 Mg 1.05958 2.34927 54.5635 1.2 1 0.0089373 0.0213538 0.0180955 0.0344956 0.0262609 0.0333363 0.0187799 0.0354798 0.0415006 0.0584791 0.055495 0.0604832 0.0631292 0.068376 0.0635951 0.0857907 0.071142 0.0799783 0.0763259 0.0686771
10 2 Si 1.17894 5.10114 56.4922 2.4 1 0.0280303 0.0129129 0.0187536 0.0358426 0.0250627 0.0290252 0.0421673 0.0438175 0.0601483 0.0547932 0.048034 0.0650041 0.0628151 0.0549653 0.0746833 0.072513 0.0647198 0.0950534 0.0598489 0.0558325
11 3 O 1.11934 3.53234 56.6264 -1.2 1 0.0140432 0.0160049 0.00971008 0.0245712 0.0231597 0.0230996 0.0219822 0.0586253 0.0415217 0.0424052 0.0485243 0.0710105 0.0526638 0.0519586 0.0689445 0.0726635 0.0639301 0.0691875 0.0601576 0.0836242
12 3 O 1.10813 6.07342 52.8172 -1.2 1 0.0718746 0.0518811 0.0317531 0.0185919 0.022299 0.0459696 0.0490667 0.0531041 0.0519923 0.0413693 0.0623064 0.0521816 0.0739869 0.0761133 0.0883629 0.0854666 0.060918 0.0675064 0.0712186 0.0654569
13 3 O -0.130298 5.79593 55.6985 -1.2 1 0.00895682 0.0200066 0.0225111 0.0228714 0.0298047 0.0196979 0.0462459 0.0374514 0.0447756 0.044281 0.0574274 0.0384783 0.054713 0.0514164 0.089062 0.0756463 0.06849 0.0670289 0.0608752 0.0639253
14 3 O 2.56258 5.67877 55.9548 -1.2 1 0.0236525 0.011364 0.0314975 0.0251013 0.0269914 0.0222072 0.0416368 0.039249 0.0507985 0.0424204 0.0480698 0.0431355 0.0453197 0.0645503 0.0856685 0.0748119 0.0737277 0.0669763 0.0710066 0.067082
15 1 Mg -0.459401 4.67631 52.2426 1.2 1 0.0895539 0.0699883 0.0333234 0.0426567 0.029325 0.0286793 0.0408739 0.0631471 0.0458514 0.078497 0.0494445 0.0593272 0.048738 0.0749335 0.0454034 0.105014 0.0541781 0.0922931 0.0626029 0.0809455
16 1 Mg 2.79456 3.9971 49.9987 1.2 1 0.22834 0.0909913 0.0317719 0.0374239 0.0404333 0.062881 0.0539868 0.0539046 0.0801096 0.0587244 0.0575366 0.0563236 0.0620854 0.0670872 0.0873925 0.0771051 0.0727268 0.0917464 0.0825261 0.0693504
17 2 Si 1.16169 6.59457 51.2556 2.4 1 0.138756 0.0870588 0.0341105 0.0324388 0.0411816 0.0508259 0.050024 0.0458521 0.0584407 0.0632287 0.0609037 0.0755278 0.0681295 0.0631908 0.0867992 0.0900767 0.0756744 0.0930867 0.077352 0.068969
18 3 O 1.28989 8.18905 51.2909 -1.2 1 0.136451 0.0953102 0.0264429 0.0393069 0.0350238 0.0427562 0.0488846 0.0810324 0.0484179 0.0703145 0.0487402 0.0880456 0.0688227 0.0649144 0.0847922 0.0751839 0.066587 0.0653527 0.0707004 0.0743794
19 3 O 1.23983 5.73286 57.9576 -1.2 1 0.00549423 0.0160902 0.0234091 0.0128549 0.0137909 0.0357374 0.0303724 0.0466096 0.0540187 0.0477471 0.0356396 0.0504904 0.0516957 0.0702988 0.100539 0.0740157 0.0693845 0.0617917 0.0725815 0.0667628
20 3 O -0.184847 6.06029 50.6845 -1.2 1 0.180899 0.0888305 0.020603 0.0313909 0.0337881 0.0340835 0.0491452 0.0568632 0.0574101 0.0623949 0.0628727 0.0761086 0.0686511 0.0590388 0.087145 0.0717001 0.0812095 0.0738653 0.063492 0.0772123
21 1 Mg -3.49704 4.67769 52.6661 1.2 1 0.0605173 0.0578725 0.0255625 0.0287648 0.0177516 0.044027 0.0353506 0.062842 0.052996 0.0660971 0.055234 0.0531095 0.0563554 0.0503022 0.0613029 0.0839398 0.0860536 0.0781741 0.0685452 0.0733861
22 3 O 2.48581 5.93312 50.6539 -1.2 1 0.192836 0.0918361 0.0319385 0.0169029 0.0345418 0.0495707 0.0579418 0.0576529 0.0493947 0.0621961 0.0485963 0.0645288 0.0580622 0.0617566 0.100301 0.0664073 0.0744288 0.0678818 0.0812889 0.0776895
23 1 Mg -1.8895 4.56891 55.2561 1.2 1 0.0251193 0.0193348 0.0236741 0.0276595 0.0224569 0.0225524 0.0230145 0.0386389 0.0439156 0.0436185 0.0518221 0.0572221 0.0543443 0.0572376 0.061459 0.0649466 0.0851193 0.0976894 0.0613233 0.0774716
24 2 Si -1.8615 2.63977 53.1883 2.4 1 0.0304096 0.0403687 0.0334134 0.0231318 0.0247647 0.0276215 0.0461861 0.0458793 0.0670036 0.0675637 0.0575226 0.067434 0.0783593 0.0501642 0.0696809 0.0581939 0.0734413 0.085895 0.0803887 0.0529081
25 3 O -1.8056 1.10124 53.0239 -1.2 1 0.0430442 0.0465646 0.0358142 0.0197557 0.0234651 0.0417774 0.0292934 0.0649388 0.0634452 0.0528523 0.0515349 0.0684777 0.0629203 0.0730556 0.0759899 0.0838906 0.0525033 0.0748427 0.0539205 0.0714541
26 3 O -0.0467762 2.97103 46.8385 -1.2 1 0.497538 0.0370246 0.0885003 0.0292745 0.0795721 0.0666944 0.079982 0.0714945 0.0723043 0.0795412 0.0826514 0.0757426 0.0969661 0.0891857 0.0883677 0.0884913 0.100219 0.0973874 0.104193 0.110208
27 3 O -3.16318 3.26597 54.1089 -1.2 1 0.0257046 0.0270697 0.0307647 0.0250917 0.0269208 0.0306538 0.0370662 0.0423498 0.0559642 0.0558071 0.0616202 0.0397162 0.061835 0.0675966 0.0779575 0.0652729 0.0640757 0.0694838 0.0681894 0.05742
28 3 O -0.694555 3.40738 53.951 -1.2 1 0.0491081 0.0118665 0.0323655 0.0150227 0.0216139 0.0279719 0.0394596 0.0442624 0.0415544 0.0487116 0.0610853 0.0447395 0.0501873 0.0720027 0.0816063 0.0659389 0.0822837 0.0685354 0.059299 0.0507594
29 1 Mg -3.10287 11.9371 57.457 1.2 1 0.0140216 0.0189688 0.00855767 0.0262531 0.0148947 0.0300301 0.0156954 0.0546668 0.0190746 0.0718851 0.0339674 0.0459138 0.0270428 0.0729645 0.0312854 0.1033 0.0411061 0.106847 0.0412339 0.0758794
30 1 Mg -1.75014 11.5838 49.8362 1.2 1 0.237669 0.0742849 0.0289326 0.0378996 0.0291428 0.0510462 0.0496449 0.0555411 0.047903 0.0544713 0.0649878 0.0611288 0.0688835 0.0674473 0.107575 0.0846631 0.0651186 0.0948335 0.0871069 0.0803525
31 2 Si -1.18003 9.02138 47.9309 2.4 1 0.364482 0.0736231 0.0676327 0.0577598 0.0404929 0.0598116 0.0726063 0.0784856 0.0718165 0.0642535 0.0589821 0.0707743 0.0703013 0.0802758 0.103307 0.0646197 0.0988162 0.0912642 0.102466 0.0857216
32 3 O -1.23224 10.5991 47.9811 -1.2 1 0.384448 0.0503783 0.0472676 0.0590708 0.0501501 0.0679908 0.0667862 0.0764626 0.055871 0.0852208 0.0699366 0.0655352 0.0713181 0.0763797 0.0785845 0.0662798 0.0884516 0.0805948 0.0680897 0.0736781
33 3 O -1.79016 8.01447 51.8693 -1.2 1 0.111208 0.0614805 0.0333431 0.0306758 0.0334058 0.0454881 0.0583624 0.0595486 0.0549154 0.0551394 0.048316 0.0562555 0.0666138 0.0854 0.093407 0.076438 0.0717684 0.051663 0.0735139 0.0710938
34 3 O -2.30986 8.37215 48.8528 -1.2 1 0.320273 0.0770934 0.0587855 0.0275598 0.0476136 0.0596699 0.0624227 0.0664158 0.0582857 0.0684115 0.0777851 0.0669958 0.0590079 0.0624042 0.0776078 0.0900548 0.0970394 0.0792178 0.0747706 0.0938825
35 1 Mg 0.154883 7.08234 46.8007 1.2 1 0.492898 0.0287507 0.0816993 0.0391439 0.0638468 0.073377 0.0596139 0.0725355 0.0716716 0.0793189 0.0871612 0.0759903 0.07798 0.0780573 0.0703983 0.0943363 0.092404 0.104589 0.111063 0.101379
36 3 O 0.325447 8.50934 48.3809 -1.2 1 0.349693 0.0772018 0.0623998 0.0449086 0.0348151 0.0503493 0.0404635 0.0588073 0.0597594 0.0659695 0.0754748 0.0632549 0.0783517 0.0932201 0.0894832 0.068765 0.0918021 0.100558 0.0834234 0.0864399
37 1 Mg 1.17992 7.26542 54.6435 1.2 1 0.0166458 0.0320133 0.0191978 0.0315194 0.0217663 0.022333 0.0260216 0.0332187 0.045769 0.0572856 0.0652699 0.0548243 0.0527959 0.0649003 0.058473 0.0910599 0.0600483 0.0804474 0.0887657 0.0723995
38 2 Si 1.38625 9.83296 56.2291 2.4 1 0.0287653 0.0174327 0.0202784 0.0226647 0.0315087 0.0311815 0.0340653 0.0478354 0.051807 0.0535464 0.0566901 0.0615313 0.0597682 0.0644734 0.0644031 0.0944411 0.0672732 0.0862967 0.0646289 0.0523805
39 3 O 1.36853 8.21637 56.489 -1.2 1 0.0200561 0.00866623 0.0272898 0.0192635 0.0263255 0.0265021 0.0249027 0.0658299 0.0416777 0.0561584 0.0423203 0.0660915 0.057435 0.0607025 0.0657648 0.058177 0.06907 0.0656312 0.0680295 0.0704683
40 3 O 1.28624 10.7248 52.7351 -1.2 1 0.0636433 0.0528021 0.0238662 0.018425 0.0300259 0.037794 0.0562981 0.0525975 0.053431 0.0472157 0.0499093 0.0437953 0.0588585 0.0703135 0.0961037 0.0806015 0.0642576 0.0580183 0.0698836 0.0570751
41 3 O 0.0702024 10.4915 55.7801 -1.2 1 0.0168712 0.0146906 0.0271795 0.0186125 0.0208276 0.0219978 0.0428544 0.0404716 0.0353944 0.0409629 0.0509168 0.0444557 0.0521902 0.0604868 0.0883264 0.0677674 0.0768135 0.0599981 0.0686259 0.0673126
42 3 O 2.58239 10.5222 55.6543 -1.2 1 0.00741685 0.0245626 0.0264848 0.0160243 0.0234348 0.0288826 0.0454538 0.0507011 0.0347051 0.047383 0.0518312 0.041584 0.0573871 0.0674974 0.0827753 0.0769673 0.0666227 0.0877542 0.0578962 0.0665149
43 1 Mg -0.262694 9.34741 52.2523 1.2 1 0.118285 0.0599988 0.020416 0.0398855 0.0307441 0.0402801 0.0413447 0.0705195 0.0316981 0.0804028 0.0352061 0.0542848 0.0407615 0.0723247 0.0426893 0.102919 0.0520882 0.0916814 0.0549799 0.0958489
44 1 Mg 1.87648 9.01537 49.4629 1.2 1 0.273261 0.0964089 0.0461761 0.0353174 0.0274773 0.0549017 0.0614556 0.0472314 0.0847914 0.0625801 0.0778759 0.0533169 0.0806955 0.0708698 0.0848258 0.0907451 0.0833953 0.0959367 0.0845598 0.0924574
45 2 Si 1.21415 11.3799 51.2378 2.4 1 0.137408 0.0858716 0.0379161 0.0338188 0.0381026 0.051015 0.0585051 0.0428702 0.0524917 0.064942 0.0742607 0.0720777 0.0813964 0.0708931 0.0901024 0.0894399 0.0807257 0.0813959 0.0836859 0.0604225
46 3 O 1.31634 12.9512 51.3023 -1.2 1 0.131287 0.0813493 0.031352 0.0357339 0.0376125 0.0451287 0.043035 0.0697852 0.0579985 0.0655217 0.0429482 0.078486 0.0673117 0.066129 0.0761133 0.0672799 0.0791628 0.0740456 0.0763594 0.0661836
47 3 O 1.35972 10.4008 57.8898 -1.2 1 0.00694946 0.0153748 0.0232133 0.0191949 0.0160737 0.033984 0.031927 0.0502802 0.0599324 0.0427985 0.0406256 0.0483963 0.0597895 0.0695103 0.0969918 0.0680089 0.0666115 0.0579157 0.0725417 0.0632728
48 3 O -0.115718 10.7564 50.681 -1.2 1 0.192984 0.0761548 0.0248067 0.0275656 0.037294 0.0374491 0.0522106 0.066634 0.052659 0.0557275 0.0530609 0.050624 0.0632196 0.0718215 0.0920508 0.07915 0.0738561 0.072803 0.0787876 0.0818412
49 1 Mg -3.26386 9.35564 52.3622 1.2 1 0.086888 0.0513927 0.0254313 0.0281974 0.0184265 0.0514408 0.0406612 0.0554095 0.0341145 0.0883323 0.0373503 0.0460869 0.0352273 0.068183 0.0419396 0.114323 0.0521809 0.099887 0.0506821 0.0925206
50 3 O 2.45216 10.7265 50.4558 -1.2 1 0.201596 0.091621 0.0217195 0.0144838 0.040887 0.0550269 0.0563454 0.0493553 0.0552011 0.0694435 0.0658101 0.075901 0.0541974 0.0632577 0.0969442 0.0799993 0.0741188 0.0756301 0.061306 0.0815488
51 1 Mg -1.56229 9.5129 54.97 1.2 1 0.024522 0.0171245 0.0185038 0.0312597 0.0162494 0.0249764 0.0287383 0.0318224 0.0413508 0.0544855 0.0572685 0.0556298 0.0607211 0.0673888 0.0612918 0.0915028 0.0597951 0.0890067 0.0775322 0.087476
52 2 Si -1.73772 7.34183 53.5733 2.4 1 0.0569638 0.0396032 0.0201959 0.0254945 0.0316029 0.0311099 0.0480655 0.0467917 0.0642697 0.0555599 0.056514 0.0619088 0.0643567 0.0664306 0.0584231 0.080182 0.0610933 0.0789056 0.0640829 0.0613014
53 3 O -1.95576 5.81446 53.265 -1.2 1 0.0589268 0.0445148 0.0255722 0.0221811 0.0205328 0.0240497 0.0419054 0.0651111 0.0560599 0.0588852 0.0434584 0.080037 0.0492088 0.0634897 0.0689832 0.067113 0.0618854 0.0638421 0.063836 0.0659638
54 3 O -1.19417 8.46968 46.4488 -1.2 1 0.52503 0.0664084 0.0664462 0.0513134 0.0667615 0.0554825 0.077744 0.0546291 0.0759507 0.0707676 0.0568046 0.0517291 0.0703137 0.0983278 0.130136 0.11336 0.0976338 0.0957483 0.0832147 0.0830373
55 3 O -2.97558 8.06116 54.1788 -1.2 1 0.0461542 0.025591 0.0242226 0.0147864 0.0212958 0.030254 0.0415726 0.0448217 0.0349428 0.0604217 0.0537187 0.0349105 0.0591711 0.06107 0.0763805 0.0705777 0.066818 0.0774883 0.0633112 0.0689216
56 3 O -0.415662 8.10688 54.0768 -1.2 1 0.0459075 0.0304447 0.0243031 0.0225221 0.0246534 0.0319514 0.0388555 0.0505914 0.0416951 0.049675 0.0650527 0.0451042 0.0559455 0.0557992 0.0831313 0.0676511 0.0777483 0.0740978 0.0699374 0.0625355
57 1 Mg -3.13278 16.504 57.2658 1.2 1 0.0236651 0.0123732 0.00782335 0.0245045 0.0111824 0.0301522 0.012248 0.0573876 0.0280976 0.0742315 0.0221675 0.0400357 0.0273963 0.0724329 0.031508 0.091589 0.0443681 0.117893 0.0505416 0.0796631
58 1 Mg -1.6714 16.3544 49.8412 1.2 1 0.233047 0.0795617 0.0230542 0.0406193 0.0289897 0.0501202 0.0527158 0.0552625 0.0491291 0.0578409 0.0609307 0.065223 0.072741 0.0741115 0.104975 0.0834155 0.07785 0.0968355 0.0811214 0.0844086
59 2 Si -1.18567 13.8526 47.9314 2.4 1 0.374651 0.0672064 0.0759299 0.0610929 0.0311615 0.0684363 0.0474686 0.0791848 0.0642945 0.068282 0.0530502 0.0717164 0.0607554 0.0785885 0.0993608 0.0742722 0.10071 0.0958629 0.0909266 0.092848
60 3 O -1.09664 15.4205 47.9915 -1.2 1 0.365305 0.0729913 0.0519303 0.0612113 0.0476334 0.0926143 0.0643731 0.0847715 0.0608562 0.0922263 0.0533596 0.0708544 0.0621091 0.0793816 0.0780738 0.0762931 0.0943428 0.0745535 0.0774772 0.0733268
61 3 O -1.73493 12.7491 51.7772 -1.2 1 0.119953 0.0563446 0.03148 0.0298402 0.0317255 0.0519834 0.0605435 0.0518452 0.0685578 0.0553021 0.0578841 0.0471534 0.0538067 0.0805101 0.102585 0.0768332 0.0769713 0.0448974 0.0730657 0.0720704
62 3 O -2.36115 13.2717 48.8238 -1.2 1 0.302094 0.0967949 0.0621142 0.0273133 0.0587019 0.0523476 0.0588275 0.0701099 0.0596092 0.065803 0.0735895 0.0643652 0.0602127 0.058058 0.0835839 0.0860311 0.083192 0.0767569 0.0830221 0.0893043
63 1 Mg -0.159928 11.7639 46.8533 1.2 1 0.477284 0.0241311 0.0870568 0.0288744 0.0483296 0.0974452 0.0706554 0.0906444 0.0873697 0.0859008 0.0825366 0.0679322 0.0744671 0.0942699 0.0769565 0.0834369 0.0954172 0.0986885 0.10299 0.109159
64 3 O 0.2623 13.1866 48.413 -1.2 1 0.341394 0.0820036 0.0514139 0.039871 0.0440352 0.0608949 0.0408912 0.0655378 0.0672188 0.0681513 0.0622654 0.0631254 0.0630169 0.0859949 0.0988679 0.0811262 0.0916275 0.0969796 0.0851106 0.0871526
65 1 Mg 1.29146 11.9784 54.8532 1.2 1 0.0127219 0.0219669 0.0166739 0.030174 0.01927 0.0182517 0.0243134 0.0286065 0.0512963 0.059663 0.062159 0.059329 0.0559327 0.062975 0.05629 0.10101 0.0688112 0.0890089 0.0680698 0.0942233
66 2 Si 1.23487 14.4483 56.432 2.4 1 0.0124483 0.0184714 0.0204394 0.017126 0.0288262 0.0290514 0.0418469 0.0378498 0.0523222 0.056234 0.0539944 0.0573805 0.0676167 0.0565785 0.0692208 0.068128 0.0625036 0.0916232 0.0683366 0.0548594
67 3 O 1.35856 12.8719 56.6744 -1.2 1 0.0340672 0.0142459 0.0203359 0.010304 0.0183341 0.0272574 0.0267794 0.0607595 0.0404954 0.0444947 0.0514633 0.063736 0.0536463 0.0643465 0.0810307 0.0780533 0.0577909 0.0753351 0.0436201 0.0866093
68 3 O 1.36565 15.4813 52.729 -1.2 1 0.0709192 0.0449316 0.0236998 0.0200091 0.0296817 0.0382336 0.0521711 0.0530764 0.0480868 0.0500304 0.0436908 0.0485336 0.0610778 0.0623319 0.0981814 0.0764818 0.07356 0.0616966 0.0695741 0.0587686
69 3 O -0.0429399 15.1817 55.746 -1.2 1 0.0130057 0.0226069 0.0238784 0.0221933 0.0196461 0.0209214 0.0435181 0.0450591 0.0392534 0.0460799 0.0565941 0.0443916 0.0554491 0.0543032 0.0910542 0.0711078 0.0682445 0.0679351 0.0656728 0.0713735
70 3 O 2.442 15.0144 55.6464 -1.2 1 0.018967 0.023689 0.0232417 0.0173216 0.0297532 0.025583 0.0433513 0.0436274 0.0365477 0.053412 0.0589471 0.0453093 0.0502413 0.0625513 0.0669507 0.0830654 0.0693892 0.0756326 0.0628388 0.0704713
71 1 Mg -0.206989 14.1049 52.2121 1.2 1 0.104401 0.0648654 0.0265222 0.047344 0.0261453 0.0412855 0.040356 0.0701025 0.0293682 0.0843029 0.0294425 0.0504818 0.0289671 0.0732491 0.0359347 0.105073 0.0474899 0.10415 0.0472096 0.0986627
72 1 Mg 1.82591 13.8102 49.4556 1.2 1 0.268817 0.0993523 0.0344511 0.0464803 0.0397867 0.0316007 0.0675679 0.0474706 0.0670934 0.0690068 0.0723661 0.0599804 0.0674584 0.0650672 0.084025 0.0917433 0.0777068 0.0996655 0.0903809 0.0805277
73 2 Si 1.29285 16.1518 51.2434 2.4 1 0.131432 0.0886314 0.0357317 0.0392172 0.0423298 0.047669 0.0566301 0.0430499 0.0533808 0.068017 0.0670324 0.0712561 0.0677356 0.0677499 0.0883994 0.084721 0.0761808 0.082927 0.0762341 0.0635998
74 3 O 1.39496 17.7199 51.3047 -1.2 1 0.124105 0.0863212 0.023506 0.0243511 0.0424559 0.0416387 0.0429779 0.0779221 0.0590927 0.0594441 0.0473905 0.0825381 0.0695926 0.0642738 0.0838702 0.069821 0.0792337 0.0761672 0.0700635 0.0655961
75 3 O 1.38253 15.2247 57.9122 -1.2 1 0.00789968 0.0150303 0.0295597 0.0199988 0.018522 0.0338045 0.0324935 0.0444923 0.050781 0.0424387 0.0449127 0.050443 0.0496497 0.0672686 0.101957 0.0655072 0.0695098 0.0540981 0.0665228 0.0615144
76 3 O -0.0269106 15.5178 50.6688 -1.2 1 0.180766 0.0855269 0.0231277 0.0244359 0.0432918 0.0435835 0.0586549 0.0629833 0.0559913 0.0554699 0.0608537 0.0499395 0.0615489 0.0762157 0.0975547 0.079325 0.073134 0.0835732 0.0716954 0.0840963
77 1 Mg -3.18391 14.1057 52.3125 1.2 1 0.0738945 0.0590846 0.0313094 0.0285556 0.0203993 0.0556045 0.0323729 0.0623142 0.0318406 0.0810954 0.0330092 0.042306 0.0309097 0.0746639 0.029595 0.100996 0.0517591 0.101853 0.0464154 0.0888915
78 3 O 2.52432 15.503 50.4579 -1.2 1 0.191869 0.0994351 0.0194669 0.016106 0.0441064 0.0520054 0.060086 0.0557111 0.0531365 0.0671654 0.0667801 0.0714894 0.056691 0.0660963 0.100943 0.079495 0.0716254 0.0658034 0.0615274 0.0898389
79 1 Mg -1.70766 13.9987 54.9633 1.2 1 0.024307 0.0122796 0.0163671 0.0291968 0.0155555 0.0209044 0.0290144 0.0328805 0.0528326 0.0606636 0.0510307 0.0554475 0.0637107 0.0618736 0.0650915 0.0839595 0.0672049 0.0999309 0.0513091 0.0917398
80 2 Si -1.74948 12.044 53.2906 2.4 1 0.0560818 0.0378269 0.0191483 0.023628 0.0377505 0.0276202 0.0453519 0.0627815 0.0575899 0.0641214 0.0613328 0.0652339 0.0735946 0.0509631 0.0761398 0.0682407 0.0654113 0.0839189 0.0688657 0.0619385
81 3 O -1.69282 10.5235 53.1989 -1.2 1 0.0527297 0.0471692 0.0227647 0.021629 0.0336571 0.0295945 0.0404117 0.0780905 0.0548851 0.0517892 0.0513563 0.067537 0.0606415 0.0736209 0.0793162 0.0692364 0.0493965 0.0683242 0.0628532 0.0733858
82 3 O -1.21337 13.3381 46.4311 -1.2 1 0.520076 0.0675141 0.0700495 0.0407731 0.0557895 0.0582939 0.0585955 0.070378 0.0795745 0.0660965 0.0467619 0.0715553 0.0681109 0.0879881 0.121133 0.115211 0.106752 0.0994149 0.0591826 0.0916203
83 3 O -2.94371 12.7054 53.9094 -1.2 1 0.0226362 0.0330763 0.0258159 0.0256051 0.0275389 0.0266656 0.0510827 0.0475743 0.0404679 0.0496413 0.0476895 0.0468365 0.0602468 0.0688569 0.0728124 0.0732323 0.069676 0.0630207 0.0630043 0.0731634
84 3 O -0.419396 12.9503 53.8981 -1.2 1 0.0271398 0.0329709 0.0318412 0.0266488 0.0329105 0.0200698 0.0450966 0.049993 0.0431417 0.046534 0.0570839 0.0432547 0.0592094 0.0542318 0.0993767 0.0598447 0.0813541 0.0587261 0.0674247 0.0661223
85 1 Mg -2.9035 21.0541 57.6107 1.2 1 0.0143107 0.0156512 0.0210697 0.0335867 0.0202364 0.0371262 0.0176379 0.0539637 0.0334112 0.0760683 0.0288715 0.0429952 0.0300701 0.062778 0.0470031 0.091981 0.0559441 0.104162 0.0669131 0.0790991
86 1 Mg -1.5831 21.1217 49.8405 1.2 1 0.229577 0.0825278 0.0272751 0.0393671 0.0309062 0.0510031 0.0531059 0.0547086 0.0532372 0.0581977 0.0604564 0.065527 0.075274 0.0745702 0.101435 0.0796202 0.0749961 0.0963595 0.0821927 0.0847057
87 2 Si -1.09384 18.6291 47.9287 2.4 1 0.378898 0.0615693 0.0688431 0.0657495 0.0296032 0.067873 0.045962 0.0794161 0.0630601 0.0674976 0.0534258 0.0726811 0.0607733 0.0733192 0.0989346 0.0768787 0.104228 0.0938455 0.0909281 0.0894157
88 3 O -1.02071 20.1985 47.9911 -1.2 1 0.368336 0.0677385 0.0509883 0.058889 0.0483395 0.0929591 0.0626918 0.0829059 0.0570148 0.0890193 0.0539312 0.0698991 0.0616205 0.0823561 0.0780368 0.0754547 0.0955012 0.0745435 0.0763404 0.0678563
89 3 O -1.65002 17.5002 51.771 -1.2 1 0.114838 0.0563776 0.034973 0.029347 0.034031 0.0497292 0.0625451 0.0469226 0.0663038 0.0551128 0.0548942 0.0473401 0.0559078 0.0838846 0.10028 0.0758367 0.0768593 0.0491943 0.0717847 0.0680707
90 3 O -2.26174 18.0434 48.8281 -1.2 1 0.301008 0.0976081 0.0607479 0.0274048 0.0610217 0.0499846 0.0546277 0.071478 0.0579385 0.063758 0.0725787 0.0606236 0.0520563 0.059016 0.0796184 0.0843178 0.0862241 0.0837757 0.0860118 0.0901932
91 1 Mg -0.0440435 16.5651 46.8269 1.2 1 0.485047 0.0205998 0.0759667 0.032369 0.0622504 0.0816417 0.0739406 0.0845898 0.0727403 0.0876417 0.0879671 0.0630332 0.0623726 0.0800661 0.0796741 0.0921663 0.0908614 0.0962243 0.101859 0.109628
92 3 O 0.37001 17.9877 48.3925 -1.2 1 0.348056 0.0748048 0.0558551 0.0373174 0.0475372 0.0621587 0.0410774 0.0653033 0.0649478 0.073448 0.0592091 0.0545303 0.0628021 0.0847656 0.0941374 0.0781226 0.095045 0.0998254 0.077099 0.0849958
93 1 Mg 1.47059 16.42 54.4549 1.2 1 0.0128673 0.0263892 0.0130828 0.0281172 0.0158996 0.0229426 0.0272988 0.0392736 0.0492729 0.0568535 0.0514271 0.0528028 0.0626196 0.0681938 0.0657059 0.071662 0.0720988 0.0818916 0.0685341 0.0795396
94 2 Si 1.41365 19.1729 56.4705 2.4 1 0.0167785 0.0153488 0.0169041 0.0271827 0.0310063 0.0314298 0.0378703 0.040833 0.053919 0.0594563 0.0550732 0.0585048 0.0697619 0.0584695 0.0779081 0.0638163 0.0725723 0.09047 0.0538264 0.05221
95 3 O 1.37662 17.6607 56.6074 -1.2 1 0.0315734 0.00633426 0.0208532 0.0215889 0.0228447 0.0257066 0.0293258 0.0629399 0.0405712 0.0492117 0.0478833 0.0624927 0.04842 0.072041 0.0694475 0.067818 0.0504228 0.0727384 0.0445376 0.0801919
96 3 O 1.45147 20.239 52.7294 -1.2 1 0.0673023 0.0451752 0.0302854 0.0158345 0.0307671 0.0443883 0.0499346 0.0610487 0.0545363 0.0446472 0.0408752 0.0499302 0.0580936 0.0625436 0.104107 0.0717806 0.0647365 0.0659422 0.0718527 0.058024
97 3 O 0.245618 19.6222 55.6286 -1.2 1 0.00816559 0.0148962 0.023877 0.0165678 0.0218599 0.0244746 0.0313744 0.0440955 0.0362483 0.0623362 0.0501397 0.0397842 0.0513699 0.0655196 0.0685535 0.0773016 0.0722852 0.0630699 0.0670125 0.0573811
98 3 O 2.67518 19.9191 55.7161 -1.2 1 0.0163735 0.0146849 0.027447 0.0192771 0.0220006 0.02425 0.0503453 0.0398927 0.0343542 0.0450943 0.051322 0.0469815 0.0629096 0.0615488 0.0826616 0.0717858 0.0738801 0.0583409 0.0621655 0.068213
99 1 Mg -0.126194 18.8651 52.2079 1.2 1 0.104879 0.0654653 0.0252811 0.0453558 0.0246395 0.0457873 0.0379724 0.0727273 0.0280324 0.0816327 0.0231444 0.0544672 0.028434 0.0745919 0.0296777 0.106452 0.0458953 0.10491 0.0446713 0.10136
100 1 Mg 1.92402 18.5815 49.4545 1.2 1 0.261722 0.10621 0.0323712 0.0412455 0.0337005 0.0335254 0.0716817 0.0458361 0.069824 0.0761138 0.0816053 0.0591313 0.0771237 0.0711825 0.0855161 0.0972943 0.077984 0.0959909 0.088005 0.0844067
101 2 Si 1.38106 20.9117 51.2443 2.4 1 0.131286 0.0842501 0.0375461 0.0360754 0.036142 0.0511137 0.0567059 0.0393483 0.0580278 0.0700505 0.0671925 0.0748365 0.0699211 0.0700082 0.0883514 0.083123 0.0765125 0.0798925 0.0717811 0.065432
102 3 O 1.48527 22.4795 51.3054 -1.2 1 0.143491 0.0773904 0.0210767 0.0255466 0.0363657 0.0379062 0.0418722 0.073231 0.0535288 0.0581245 0.0485741 0.0729747 0.0656536 0.0721568 0.0763405 0.0654456 0.0736092 0.0762037 0.0662008 0.0673525
103 3 O 1.36603 19.7693 57.9502 -1.2 1 0.0153087 0.0188576 0.0227064 0.0180254 0.0221377 0.0412959 0.0343213 0.0365009 0.0483619 0.0438378 0.0461013 0.0447924 0.0525696 0.0651766 0.0991821 0.0653562 0.0635727 0.0609273 0.0672311 0.0627278
104 3 O 0.0615419 20.2804 50.6669 -1.2 1 0.181585 0.0869293 0.0219732 0.0272058 0.0436496 0.0388229 0.0531943 0.0686562 0.0565688 0.0596636 0.0599549 0.0495946 0.063235 0.0752521 0.0943671 0.0814666 0.0726402 0.0773419 0.0758215 0.0910418
105 1 Mg -3.09665 18.8643 52.3122 1.2 1 0.0729143 0.0592629 0.0327357 0.0360661 0.0182904 0.0546467 0.0349333 0.0623804 0.0332874 0.0823942 0.0276656 0.0438056 0.0290911 0.0727739 0.0352931 0.108172 0.0512942 0.103321 0.0452886 0.087838
106 3 O 2.61548 20.2646 50.4626 -1.2 1 0.1944 0.0951024 0.0232054 0.0184929 0.0415043 0.052441 0.0548834 0.0449781 0.0562326 0.0679507 0.0646034 0.0706032 0.0608302 0.0652216 0.0997965 0.0742262 0.0769693 0.0717979 0.0650549 0.0842182
107 1 Mg -1.57965 18.9216 55.0459 1.2 1 0.0226565 0.00758446 0.0238163 0.0223813 0.0134107 0.0230001 0.0221793 0.0381811 0.0426227 0.0594713 0.0614133 0.0576881 0.0536076 0.059253 0.0563069 0.0877765 0.0649585 0.0958249 0.0632515 0.0826018
108 2 Si -1.56247 16.8448 53.2387 2.4 1 0.0467393 0.0362817 0.0288766 0.0287303 0.0355078 0.0278109 0.0512979 0.0538808 0.0562996 0.0582447 0.0583756 0.0705276 0.0781397 0.0527027 0.0747585 0.0608705 0.0666888 0.0920805 0.0624184 0.0606164
109 3 O -1.69682 15.3769 53.0813 -1.2 1 0.0600668 0.050707 0.0225736 0.0156589 0.0393215 0.0293907 0.0407525 0.0708198 0.0521203 0.0478975 0.0514937 0.0713769 0.057668 0.0756787 0.0738664 0.0772309 0.052195 0.0814289 0.0601046 0.0810452
110 3 O -1.12868 18.1227 46.4249 -1.2 1 0.522104 0.0663042 0.0718208 0.0518966 0.0580462 0.0645056 0.0600566 0.0791858 0.0799186 0.0623651 0.045265 0.0679651 0.0674686 0.0877303 0.116559 0.114488 0.106847 0.101058 0.0630206 0.09318
111 3 O -2.71037 17.6288 54.0027 -1.2 1 0.0175586 0.0319042 0.0227671 0.0249557 0.0293511 0.0259821 0.0556668 0.0392195 0.0443363 0.0484504 0.053418 0.0420509 0.0544088 0.0584039 0.0857981 0.0702203 0.066016 0.0711029 0.063951 0.0650581
112 3 O -0.142606 17.4043 53.7224 -1.2 1 0.0358802 0.0347813 0.0250543 0.0258891 0.0344434 0.0184626 0.0438363 0.0473565 0.0547111 0.0542344 0.0551624 0.0410434 0.0633136 0.0656843 0.0824736 0.0735008 0.079929 0.0703261 0.0736589 0.0709279
113 1 Mg -2.88092 26.0185 57.2135 1.2 1 0.0159102 0.0159016 0.0101209 0.0331479 0.00886276 0.0367821 0.0151979 0.0570878 0.0308996 0.0830685 0.0280449 0.0548171 0.0228645 0.0676901 0.0332216 0.102672 0.0472383 0.0985257 0.0479418 0.0923522
114 1 Mg -1.48778 25.88 49.8402 1.2 1 0.229213 0.0836517 0.0253327 0.0384658 0.032598 0.049474 0.0539369 0.0536667 0.053171 0.0574226 0.0606622 0.064113 0.0741621 0.0711614 0.0995705 0.0824733 0.0748791 0.0924226 0.0819917 0.0848388
115 2 Si -1.00491 23.3922 47.9274 2.4 1 0.375736 0.0622809 0.066265 0.0709773 0.0322034 0.0745852 0.0408575 0.0825001 0.067311 0.0749571 0.0518101 0.0739142 0.0595596 0.0747521 0.0951869 0.077623 0.102041 0.0918234 0.0850602 0.0936
116 3 O -0.927602 24.9615 47.9909 -1.2 1 0.365582 0.0699314 0.0492592 0.0620633 0.0457756 0.092085 0.0632371 0.0832354 0.0590552 0.0893981 0.0555103 0.0734017 0.0597765 0.0802334 0.0822267 0.076024 0.0941435 0.0735828 0.0736219 0.0697488
117 3 O -1.55795 22.2588 51.7696 -1.2 1 0.111582 0.0572186 0.0331483 0.0295175 0.0379633 0.0462949 0.066537 0.0520905 0.0656296 0.0537634 0.0573279 0.0481565 0.0533543 0.0861873 0.0991896 0.0783765 0.0791659 0.0532628 0.0724209 0.0676403
118 3 O -2.17411 22.8111 48.8277 -1.2 1 0.29688 0.101803 0.0633406 0.0275689 0.0622709 0.0499431 0.0583406 0.0739242 0.0568826 0.0665109 0.0734975 0.0619912 0.0579914 0.059398 0.0809909 0.0885199 0.0871314 0.0797821 0.0832069 0.0883803
119 1 Mg 0.0423997 21.3296 46.8225 1.2 1 0.488134 0.0223557 0.0764376 0.0316918 0.057696 0.0805437 0.0689658 0.0810796 0.0738521 0.0876633 0.0865577 0.0620401 0.0639148 0.0810399 0.0763093 0.0899975 0.0954941 0.100171 0.101949 0.108695
120 3 O 0.458537 22.7495 48.3911 -1.2 1 0.348269 0.0738279 0.0547183 0.0368788 0.0464422 0.0613359 0.040228 0.0662744 0.067031 0.0724121 0.0584341 0.055132 0.0645165 0.0860811 0.0939122 0.0766098 0.0961371 0.104203 0.0773386 0.0871112
121 1 Mg 1.69241 21.2753 54.4406 1.2 1 0.0089621 0.0250257 0.0252558 0.0336024 0.0185425 0.0236801 0.0331373 0.0440338 0.0428391 0.0582474 0.0583631 0.0593486 0.0660498 0.0638475 0.0698253 0.0725996 0.0826165 0.0858698 0.0696691 0.0617168
122 2 Si 1.42782 23.7302 56.5168 2.4 1 0.020969 0.0125988 0.0127251 0.0248128 0.0246048 0.0276037 0.0406825 0.0354225 0.0433765 0.0694323 0.0536429 0.0551597 0.058817 0.0521543 0.0850425 0.0617521 0.081367 0.0678531 0.0582827 0.0671657
123 3 O 1.54577 22.2596 56.5059 -1.2 1 0.0203604 0.0196306 0.0162201 0.0279477 0.0211678 0.0265754 0.023016 0.0711953 0.0446531 0.0537221 0.0394424 0.0639658 0.0501213 0.0669727 0.0749206 0.0716544 0.0542126 0.07619 0.0556159 0.0711866
124 3 O 1.54441 24.9963 52.7297 -1.2 1 0.0728506 0.0434285 0.0266362 0.0194867 0.0245994 0.0455223 0.0486425 0.060437 0.0487334 0.0509099 0.0472007 0.0501505 0.0593597 0.0634976 0.101468 0.0687284 0.0683459 0.0603315 0.0674544 0.0630883
125 3 O 0.0985369 24.4052 55.7525 -1.2 1 0.0161672 0.0190287 0.0338534 0.014229 0.0236384 0.029095 0.0465263 0.0407612 0.0491725 0.0568085 0.0517568 0.0401319 0.051691 0.0741568 0.0625223 0.0737859 0.0736075 0.0585353 0.0606075 0.0795333
126 3 O 2.63326 24.3203 55.6852 -1.2 1 0.025096 0.0208739 0.0141047 0.022485 0.0276643 0.0239685 0.0476072 0.0459005 0.0396671 0.0579468 0.0474474 0.0379047 0.049872 0.0727905 0.0658616 0.0841616 0.0808449 0.0682719 0.0585219 0.0745944