ITEM: TIMESTEP
32400
ITEM: NUMBER OF ATOMS
10500
ITEM: BOX BOUNDS xy xz yz pp pp pp
0	8.9688	2.9896
0	118.725	0
0	252.977	0
ITEM: ATOMS id type element xu yu zu q Q_1 Q_2 Q_3 Q_4 Q_5 Q_6 Q_7 Q_8 Q_9 Q_10 Q_11 Q_12 Q_13 Q_14 Q_15 Q_16 Q_17 Q_18 Q_19 Q_20 Q_21
1 1 Mg -3.40125 6.98144 57.5278 1.2 1 0.0157817 0.0157975 0.00784863 0.0297325 0.0113388 0.0354575 0.0123045 0.0525681 0.0180805 0.083279 0.0159588 0.0537811 0.0172066 0.0713048 0.0185722 0.0993468 0.0343415 0.11311 0.0263714 0.0995704
2 1 Mg -1.82655 6.90154 50.0912 1.2 1 0.219793 0.0873838 0.0332334 0.0308028 0.0290812 0.0571196 0.0460633 0.0441028 0.05408 0.067403 0.0563776 0.0745441 0.0699936 0.0639979 0.0951913 0.0601391 0.0862362 0.0997335 0.0745272 0.0815308
3 2 Si -0.257935 3.96038 48.0876 2.4 1 0.374512 0.0690094 0.0725277 0.0333955 0.0611203 0.0505355 0.0724537 0.0763425 0.0594983 0.0764463 0.056801 0.0717633 0.0638226 0.0841118 0.0959764 0.100233 0.109086 0.0916127 0.0727501 0.0710106
4 3 O -0.335812 5.46814 47.6264 -1.2 1 0.427009 0.0397043 0.0651647 0.0305902 0.0410055 0.0485417 0.0652637 0.0711962 0.0872903 0.0742117 0.090742 0.0754713 0.0707415 0.0680529 0.0919654 0.125445 0.0948713 0.0801972 0.0753558 0.0775914
5 3 O -2.03793 3.43377 51.8941 -1.2 1 0.113625 0.0602136 0.0273771 0.0231417 0.0201444 0.0538953 0.0586484 0.0490482 0.0494174 0.0582526 0.0641003 0.0517492 0.0488603 0.0756749 0.0893211 0.0819355 0.0660236 0.0515741 0.0761408 0.0694546
6 3 O -1.54015 3.53929 48.9521 -1.2 1 0.298689 0.0980171 0.0420193 0.0511246 0.0359291 0.0498816 0.0766489 0.0483164 0.0512207 0.0612956 0.0767792 0.0693015 0.0676482 0.0615669 0.0718426 0.110783 0.085005 0.0795752 0.0739053 0.0911067
7 1 Mg 1.82954 2.54582 47.1376 1.2 1 0.462812 0.0195824 0.0823058 0.0537714 0.0396958 0.0842225 0.0632987 0.06049 0.074689 0.0866135 0.0676957 0.0776815 0.0821207 0.0848949 0.0710057 0.0986662 0.101833 0.101802 0.104619 0.0984825
8 3 O 1.22989 3.66364 48.7877 -1.2 1 0.320294 0.0724014 0.0255614 0.047229 0.0308344 0.0645634 0.0810395 0.0306733 0.0806741 0.0769761 0.0513444 0.07785 0.0843375 0.0690481 0.0642444 0.0849861 0.0923251 0.0913442 0.0955559 0.0930573
9 1 Mg 0.982656 2.24526 54.7349 1.2 1 0.00765048 0.0185129 0.0155106 0.0280734 0.0201517 0.0327484 0.024965 0.0284242 0.0470338 0.0617041 0.0536713 0.0523326 0.0527322 0.0664627 0.0579035 0.0907135 0.0723994 0.0959936 0.0584545 0.0831696
10 2 Si 0.967753 4.98348 56.5317 2.4 1 0.0120236 0.011366 0.0254034 0.0316831 0.0294058 0.0279156 0.0409786 0.0475694 0.0542346 0.0545982 0.0513889 0.062135 0.0646412 0.0573012 0.0829314 0.0684874 0.0582766 0.0960725 0.0545908 0.0557127
11 3 O 0.924314 3.46822 56.614 -1.2 1 0.0192611 0.0167914 0.0229094 0.0292283 0.0225063 0.0197731 0.023853 0.0635956 0.0408394 0.0490692 0.0399438 0.0674019 0.0553097 0.0562265 0.0697513 0.0690377 0.0594632 0.0764122 0.0570331 0.0795085
12 3 O 1.10813 6.07342 52.8172 -1.2 1 0.0824654 0.04838 0.0295755 0.0162579 0.0226465 0.0461993 0.0438729 0.0563007 0.0517399 0.0407667 0.0580535 0.0523049 0.0681261 0.0709124 0.0847934 0.0848679 0.0562081 0.0726331 0.0711662 0.0703915
13 3 O -0.237805 5.74644 55.885 -1.2 1 0.0115221 0.00692213 0.0246374 0.0302673 0.0237947 0.0185796 0.0442455 0.03748 0.0392609 0.0410687 0.0536694 0.0477605 0.0482657 0.0502697 0.0897781 0.069724 0.0762652 0.0590101 0.0653399 0.0695082
14 3 O 2.27989 5.73705 55.7086 -1.2 1 0.00684969 0.0283495 0.0295659 0.0227466 0.0210974 0.015821 0.0440733 0.0472283 0.0387454 0.0469131 0.0500698 0.040898 0.0538848 0.060688 0.0899693 0.0690406 0.0777499 0.0756388 0.0595301 0.0569461
15 1 Mg -0.459401 4.67631 52.2426 1.2 1 0.0907908 0.0665721 0.0340518 0.0398209 0.0306128 0.0289554 0.0397258 0.0600081 0.0415775 0.0830285 0.0447332 0.0608813 0.0458089 0.0745781 0.043987 0.0991596 0.0511134 0.0945019 0.0627269 0.0910731
16 1 Mg 2.79456 3.9971 49.9987 1.2 1 0.222915 0.0964771 0.0296604 0.0398803 0.0443237 0.0582174 0.0577033 0.0547199 0.0802362 0.0637449 0.0634786 0.0589248 0.0634076 0.0690678 0.0863621 0.0762537 0.0722255 0.0899428 0.0865128 0.0723415
17 2 Si 1.16169 6.59457 51.2556 2.4 1 0.138838 0.0870328 0.0366764 0.0367153 0.0431844 0.0473041 0.0476012 0.0460022 0.0594592 0.0667968 0.0679996 0.0772021 0.0741778 0.0685267 0.0848221 0.0904968 0.0789825 0.0909881 0.0722846 0.0656122
18 3 O 1.28989 8.18905 51.2909 -1.2 1 0.147314 0.0872551 0.017974 0.0289166 0.0410429 0.0419972 0.0413728 0.0718873 0.0482458 0.0675969 0.0438878 0.0915498 0.0649121 0.0670503 0.0819824 0.0747457 0.0735185 0.0643726 0.0707952 0.0683366
19 3 O 1.08376 5.55428 58.0144 -1.2 1 0.0177487 0.0218125 0.0206246 0.0192473 0.0225291 0.0376888 0.0240707 0.0449752 0.0570275 0.0470297 0.0367993 0.0464917 0.0558667 0.0673785 0.10127 0.0593069 0.0667262 0.0577278 0.0707547 0.0631586
20 3 O -0.184847 6.06029 50.6845 -1.2 1 0.181668 0.087665 0.0224091 0.0316134 0.0344167 0.0329194 0.0514958 0.0591563 0.0552017 0.06149 0.0660027 0.0749696 0.0692495 0.0609263 0.0878342 0.0692636 0.0833726 0.0765411 0.0623223 0.0785567
21 1 Mg -3.49704 4.67769 52.6661 1.2 1 0.0711532 0.0497737 0.0225731 0.025403 0.0177547 0.0437731 0.0341249 0.0536605 0.0544063 0.0688992 0.0475355 0.0487352 0.0484138 0.0497515 0.0568629 0.087499 0.0864789 0.0780552 0.0725508 0.0720504
22 3 O 2.48581 5.93312 50.6539 -1.2 1 0.192873 0.0924429 0.031278 0.0233257 0.0330301 0.046896 0.0596396 0.0588102 0.0458079 0.0664202 0.0473692 0.0704085 0.0569447 0.0583044 0.101662 0.0678981 0.0788272 0.0646919 0.0799955 0.0775772
23 1 Mg -1.96752 4.6945 55.1109 1.2 1 0.0241832 0.0189048 0.0265413 0.0278199 0.0155902 0.0239049 0.0265179 0.0325265 0.0422287 0.0536699 0.0589208 0.0463115 0.0588931 0.0668108 0.0614618 0.0884126 0.074479 0.0895607 0.0592904 0.0913139
24 2 Si -1.99022 2.59409 53.1962 2.4 1 0.0283704 0.0462643 0.0286599 0.0224464 0.0281922 0.0292897 0.0478213 0.040016 0.0660786 0.0726965 0.0538871 0.0705751 0.0705481 0.0524879 0.0794162 0.0527048 0.0747978 0.0897014 0.073683 0.0598911
25 3 O -1.99671 1.10953 53.1197 -1.2 1 0.0443085 0.0548318 0.0306924 0.0211164 0.0233008 0.0436564 0.0232508 0.0602885 0.0615295 0.0594537 0.0572931 0.0724168 0.0592161 0.0777097 0.0771455 0.0759514 0.0562062 0.0720787 0.0585385 0.0789044
26 3 O -0.0467762 2.97103 46.8385 -1.2 1 0.497675 0.0374367 0.088293 0.0294966 0.0796772 0.0677264 0.0811429 0.0720426 0.0725589 0.0785286 0.0807591 0.0753131 0.0969808 0.0886075 0.0888692 0.0890067 0.0996823 0.0975676 0.104868 0.110446
27 3 O -3.2754 3.2549 54.0193 -1.2 1 0.0341805 0.0253879 0.0254157 0.0164428 0.0243252 0.0245412 0.0369182 0.0430359 0.0524064 0.0533317 0.0631377 0.0444935 0.0551556 0.0615354 0.0785408 0.0624543 0.0637672 0.0626318 0.0731098 0.0648421
28 3 O -0.717759 3.31127 54.0592 -1.2 1 0.0384237 0.0153835 0.0404458 0.0166789 0.0225166 0.0227823 0.0364339 0.0462109 0.0448794 0.0516031 0.0611289 0.0447552 0.0495321 0.0732851 0.0826451 0.0740888 0.074561 0.0683721 0.0625636 0.0589575
29 1 Mg -3.19113 11.7716 57.4244 1.2 1 0.0071937 0.0220429 0.0068987 0.0284718 0.00444017 0.0317614 0.0106984 0.055094 0.0100796 0.0814385 0.0121639 0.0511469 0.0142831 0.0722902 0.0187439 0.0980636 0.0185483 0.120392 0.0278785 0.0999403
30 1 Mg -1.75014 11.5838 49.8362 1.2 1 0.229622 0.0824088 0.0273684 0.0395031 0.0291258 0.056046 0.0496708 0.0538085 0.0458045 0.0583859 0.0646757 0.0625442 0.074081 0.0738603 0.109741 0.0890222 0.0652098 0.0957476 0.085838 0.080411
31 2 Si -1.18003 9.02138 47.9309 2.4 1 0.371378 0.0657663 0.0655776 0.0520682 0.0413978 0.0622724 0.07207 0.0740314 0.068685 0.0658629 0.0595477 0.0666376 0.066934 0.0813108 0.101598 0.0645379 0.0999027 0.091722 0.103925 0.0871542
32 3 O -1.23224 10.5991 47.9811 -1.2 1 0.379551 0.0588207 0.0551208 0.0569263 0.0507277 0.0698421 0.0675678 0.0778596 0.0583432 0.0867267 0.0713804 0.0657586 0.072501 0.0782604 0.0817174 0.0684962 0.0884753 0.0807516 0.0676849 0.074773
33 3 O -1.79016 8.01447 51.8693 -1.2 1 0.113154 0.0626766 0.0324239 0.0284643 0.0325118 0.0468921 0.0587019 0.0556141 0.0587739 0.0518621 0.0496008 0.0532088 0.0644855 0.0884635 0.0904792 0.0769703 0.0716392 0.0525889 0.0742865 0.0698014
34 3 O -2.30986 8.37215 48.8528 -1.2 1 0.310378 0.0888139 0.0663182 0.0246992 0.0539676 0.063235 0.0648045 0.0642715 0.0563744 0.0654946 0.07801 0.0676954 0.0598074 0.065319 0.0792721 0.0909116 0.0981368 0.0801697 0.0776419 0.0959253
35 1 Mg 0.154883 7.08234 46.8007 1.2 1 0.497349 0.0363681 0.075185 0.0385312 0.0649745 0.075162 0.0594003 0.0688129 0.0708604 0.08202 0.0884756 0.0756752 0.078385 0.0791472 0.0699016 0.0920103 0.0916365 0.107005 0.113587 0.100643
36 3 O 0.325447 8.50934 48.3809 -1.2 1 0.345264 0.0838902 0.0672779 0.0459236 0.036518 0.0503438 0.0415135 0.0605505 0.0613043 0.0645597 0.0754297 0.0649726 0.0794287 0.0934113 0.0902876 0.068633 0.0932564 0.102458 0.0845183 0.0878152
37 1 Mg 1.07583 7.2294 54.6548 1.2 1 0.0120625 0.0338139 0.0201854 0.0341586 0.0260021 0.0257435 0.0236857 0.0324662 0.0398583 0.0595504 0.0671618 0.0603429 0.0518235 0.0641415 0.0625638 0.0955702 0.0662767 0.0727313 0.0821232 0.0762331
38 2 Si 1.22661 9.70371 56.446 2.4 1 0.00887668 0.0231459 0.0237513 0.0186722 0.0305288 0.0336079 0.0399063 0.0410438 0.0482013 0.0573384 0.0557596 0.0624546 0.0534875 0.0616875 0.0805686 0.0687828 0.0584 0.0918691 0.0601971 0.0648181
39 3 O 1.15696 8.17377 56.4915 -1.2 1 0.0250706 0.0181308 0.020091 0.0261664 0.0297504 0.0294056 0.0217105 0.0675101 0.0409625 0.0558199 0.0383804 0.0694826 0.061798 0.0636262 0.0729099 0.0625446 0.0579012 0.0759723 0.0586749 0.0682085
40 3 O 1.28624 10.7248 52.7351 -1.2 1 0.0797442 0.0495926 0.0257686 0.0220163 0.0250792 0.045613 0.0462414 0.0527472 0.044832 0.0481543 0.0491713 0.0439612 0.0583581 0.0661939 0.0975578 0.0756922 0.0634445 0.0574606 0.0724432 0.0590909
41 3 O -0.0544001 10.469 55.7931 -1.2 1 0.00250819 0.0113066 0.0290286 0.0159144 0.0220119 0.0163074 0.0420519 0.0370207 0.0395042 0.0443841 0.0515027 0.0463146 0.052962 0.0531437 0.0911086 0.0687195 0.0808357 0.058338 0.0658713 0.0711528
42 3 O 2.47592 10.4475 55.7747 -1.2 1 0.014819 0.0141038 0.0283893 0.0199885 0.0264902 0.018557 0.0500322 0.0385811 0.0372968 0.0452864 0.0526336 0.039989 0.0517692 0.0601662 0.0793193 0.0720315 0.071717 0.0584394 0.0707365 0.0681106
43 1 Mg -0.262694 9.34741 52.2523 1.2 1 0.115397 0.0666836 0.0192475 0.0393318 0.0320614 0.0441493 0.0390836 0.071761 0.0303101 0.0865772 0.0283689 0.0595365 0.0378192 0.0751157 0.0409268 0.104876 0.049969 0.0982737 0.0553142 0.100377
44 1 Mg 1.87648 9.01537 49.4629 1.2 1 0.279271 0.0914841 0.040364 0.0326124 0.0337154 0.0452907 0.0639439 0.0490265 0.0762777 0.0643892 0.0862708 0.0544754 0.0805025 0.0650755 0.0823716 0.0883917 0.0864959 0.100457 0.0895663 0.0908119
45 2 Si 1.21415 11.3799 51.2378 2.4 1 0.143552 0.0786868 0.0350237 0.0348586 0.0395316 0.0540637 0.0558608 0.037096 0.0544116 0.0615729 0.0760728 0.0664033 0.0704408 0.0680698 0.0953033 0.0903811 0.0784563 0.0836966 0.0782335 0.0629423
46 3 O 1.31634 12.9512 51.3023 -1.2 1 0.14649 0.0719066 0.0287769 0.0373116 0.0305801 0.0419626 0.0413185 0.0665217 0.0548142 0.064418 0.0459992 0.0783768 0.0678689 0.0663762 0.0740788 0.0679412 0.0788675 0.0711021 0.0721146 0.070005
47 3 O 1.32426 10.4849 57.9414 -1.2 1 0.00579675 0.0198069 0.0189945 0.0133595 0.0208644 0.0394334 0.0339478 0.0442806 0.0460307 0.0463 0.0360431 0.0491366 0.0495484 0.060331 0.104526 0.0643858 0.079784 0.0595734 0.0705094 0.0596101
48 3 O -0.115718 10.7564 50.681 -1.2 1 0.194497 0.0798147 0.0244947 0.0179839 0.0480518 0.0333279 0.0517079 0.0611342 0.0487035 0.0563004 0.0640156 0.0488154 0.0610331 0.0732833 0.0877729 0.0769564 0.0744113 0.0788601 0.0798749 0.0834886
49 1 Mg -3.26386 9.35564 52.3622 1.2 1 0.0816085 0.0561726 0.0252858 0.0317997 0.0147578 0.0549733 0.0393454 0.0582032 0.0309596 0.0861186 0.0351273 0.050224 0.0387289 0.0640424 0.0402681 0.109705 0.0476199 0.105183 0.0518063 0.0917737
50 3 O 2.45216 10.7265 50.4558 -1.2 1 0.201443 0.0947109 0.0156061 0.0177341 0.0352051 0.0580246 0.0539215 0.0458627 0.056409 0.068634 0.0622085 0.0740353 0.0535175 0.0680456 0.0921715 0.0794556 0.0803328 0.0773737 0.0589867 0.0868409
51 1 Mg -1.76514 9.45978 55.2289 1.2 1 0.0226076 0.0166649 0.0196263 0.0288791 0.0142313 0.0231736 0.0272535 0.0338756 0.0378477 0.0558876 0.0578788 0.0649815 0.0631725 0.0609279 0.0708714 0.0669457 0.0831133 0.0953571 0.0703007 0.0741421
52 2 Si -1.76737 7.29774 53.3887 2.4 1 0.048854 0.0443806 0.0247822 0.0298608 0.029965 0.0356816 0.0390639 0.0524466 0.0599876 0.0681786 0.0609995 0.0577419 0.0747869 0.050121 0.0643539 0.0747983 0.0726021 0.0802402 0.0689513 0.0606272
53 3 O -1.85335 5.79503 53.3472 -1.2 1 0.0554076 0.0336925 0.0253853 0.0163414 0.0226219 0.0331452 0.0355113 0.0703651 0.0476435 0.0660441 0.0325206 0.0749385 0.058419 0.073332 0.0620309 0.0656785 0.0593942 0.0575442 0.0688305 0.0636416
54 3 O -1.19417 8.46968 46.4488 -1.2 1 0.525036 0.0665935 0.0666779 0.0513756 0.0668752 0.0563088 0.0785003 0.0549114 0.0757064 0.0704808 0.0560891 0.0504042 0.0693604 0.0977424 0.129871 0.113393 0.0975226 0.0951509 0.0826587 0.0822784
55 3 O -3.11156 7.9658 53.9155 -1.2 1 0.0296455 0.0328227 0.029804 0.0278856 0.0281901 0.0309853 0.0481025 0.0461491 0.047677 0.0545864 0.047298 0.048128 0.0576583 0.0629502 0.0769841 0.0610443 0.0739963 0.0582251 0.0743748 0.0682874
56 3 O -0.544879 8.09618 54.0117 -1.2 1 0.054617 0.0281979 0.0267036 0.0232934 0.0329088 0.0243377 0.0353557 0.04458 0.0442814 0.0525329 0.0602027 0.0466605 0.0582148 0.0586428 0.0836776 0.0578921 0.0748007 0.0710767 0.0706257 0.0703649
57 1 Mg -3.17878 16.5797 57.3392 1.2 1 0.00717886 0.019559 0.0128421 0.0326235 0.00808455 0.0352531 0.0118667 0.0544372 0.0165247 0.0781576 0.017849 0.0499016 0.0223382 0.0709622 0.0161896 0.103539 0.0293827 0.115001 0.0280577 0.0971035
58 1 Mg -1.6714 16.3544 49.8412 1.2 1 0.238762 0.0751785 0.0259324 0.0365132 0.0304744 0.046723 0.0519508 0.0562343 0.0458648 0.0575469 0.0595499 0.0645431 0.0721783 0.0717891 0.100313 0.0780972 0.076045 0.0982031 0.084599 0.0820609
59 2 Si -1.18567 13.8526 47.9314 2.4 1 0.379315 0.0606116 0.0701824 0.0636264 0.0298343 0.0676327 0.046212 0.0792465 0.0600231 0.0659771 0.0541323 0.0720993 0.0588436 0.0741138 0.0973421 0.0755457 0.103326 0.0965249 0.0908439 0.0904644
60 3 O -1.09664 15.4205 47.9915 -1.2 1 0.373255 0.061407 0.0448592 0.0592309 0.0472452 0.09222 0.0617544 0.0813126 0.0535411 0.0863856 0.0551677 0.0732583 0.0626513 0.0790713 0.0737273 0.0697795 0.0927167 0.0749265 0.0747188 0.07148
61 3 O -1.73493 12.7491 51.7772 -1.2 1 0.118556 0.0597336 0.0253887 0.0278727 0.0320614 0.050506 0.0613759 0.0510043 0.0668839 0.0516451 0.0579559 0.0489819 0.0543 0.0804114 0.100715 0.0811064 0.079599 0.0490882 0.0704115 0.0702806
62 3 O -2.36115 13.2717 48.8238 -1.2 1 0.316322 0.0781104 0.0490145 0.0351791 0.0514436 0.0518625 0.0614094 0.0689 0.0586763 0.0657573 0.0698087 0.0617148 0.058657 0.0578473 0.0835142 0.0848888 0.0885212 0.080717 0.0816947 0.0856571
63 1 Mg -0.159928 11.7639 46.8533 1.2 1 0.482354 0.0243026 0.0771156 0.0335931 0.0535043 0.0974609 0.071273 0.0886093 0.0832272 0.0840432 0.0834011 0.0682869 0.0721732 0.092276 0.0779005 0.0859913 0.0967204 0.0980281 0.100478 0.106484
64 3 O 0.2623 13.1866 48.413 -1.2 1 0.347609 0.0736584 0.0495515 0.0407306 0.0413388 0.0541979 0.0425726 0.0647274 0.0656775 0.0699683 0.0627285 0.0602468 0.0637464 0.0869998 0.0968414 0.0801361 0.0922937 0.09698 0.0853 0.0877754
65 1 Mg 1.39989 11.7203 54.4831 1.2 1 0.0170127 0.0281826 0.0201563 0.0271779 0.0107517 0.0200468 0.0245733 0.0364921 0.0416293 0.0602587 0.0561088 0.051014 0.0583041 0.0652705 0.0621584 0.0748335 0.0682135 0.0957343 0.0692013 0.0763919
66 2 Si 1.27033 14.4475 56.2622 2.4 1 0.0191203 0.0170562 0.0212422 0.0183116 0.0329403 0.0308294 0.0346255 0.0410607 0.0415465 0.0591716 0.053815 0.0688249 0.0683621 0.054702 0.0757698 0.0749924 0.0599586 0.0986545 0.0571072 0.0534652
67 3 O 1.35587 12.9203 56.227 -1.2 1 0.021053 0.00966506 0.0126015 0.0167088 0.0254255 0.0215703 0.0211899 0.0645086 0.0430086 0.0628814 0.0446399 0.0634111 0.0715365 0.0583551 0.0659892 0.0688574 0.0566167 0.0669103 0.0737547 0.0611867
68 3 O 1.36565 15.4813 52.729 -1.2 1 0.0748857 0.0458884 0.02824 0.021556 0.0233001 0.0425087 0.0438825 0.0562675 0.0536778 0.0470274 0.0434982 0.0487717 0.0579227 0.068605 0.101605 0.0653661 0.0685408 0.0635664 0.0746013 0.0605794
69 3 O -0.0225388 15.166 55.7168 -1.2 1 0.00214794 0.0112042 0.0319726 0.0195119 0.0173846 0.0240812 0.0370948 0.041687 0.0423494 0.047105 0.0487458 0.0418592 0.0554174 0.0542015 0.0866256 0.0776366 0.073404 0.0617108 0.0636699 0.0720926
70 3 O 2.55442 15.2499 55.5786 -1.2 1 0.00643369 0.0184586 0.019443 0.0170216 0.0197406 0.0166318 0.0429206 0.0489487 0.0320045 0.0476214 0.0484229 0.0393074 0.0532947 0.0536149 0.0850009 0.0747734 0.0703774 0.0724798 0.0595413 0.064816
71 1 Mg -0.206989 14.1049 52.2121 1.2 1 0.102982 0.0715062 0.0184986 0.0432086 0.0264582 0.0410279 0.0381983 0.0690776 0.0284437 0.0850384 0.024299 0.0576007 0.0278912 0.074014 0.0335704 0.103615 0.0459749 0.105792 0.048606 0.100371
72 1 Mg 1.82591 13.8102 49.4556 1.2 1 0.263129 0.103476 0.0313663 0.0373774 0.0362334 0.0316512 0.0694604 0.0461008 0.0703115 0.075296 0.0793251 0.0605455 0.0765789 0.0715961 0.0863087 0.0965805 0.081863 0.0979985 0.0906359 0.0853641
73 2 Si 1.29285 16.1518 51.2434 2.4 1 0.152077 0.0720642 0.0364079 0.0340537 0.0398653 0.0442467 0.0550516 0.0372739 0.0486874 0.0753303 0.0704327 0.0706748 0.0662837 0.0626337 0.0905406 0.0838396 0.0792101 0.0843642 0.0722333 0.066014
74 3 O 1.39496 17.7199 51.3047 -1.2 1 0.158004 0.0676599 0.0243973 0.0317419 0.031402 0.0388347 0.035472 0.0623049 0.0484144 0.0640637 0.0445162 0.0718701 0.0614253 0.0631372 0.0716177 0.0646384 0.0793468 0.0734203 0.0653351 0.0738324
75 3 O 1.4459 15.0523 57.7634 -1.2 1 0.0127289 0.0210403 0.0234222 0.0235894 0.0153777 0.0346543 0.0330686 0.0397637 0.0582086 0.047738 0.0440562 0.0358562 0.0609193 0.0701633 0.0991325 0.0693148 0.0662764 0.0492731 0.0760205 0.0602822
76 3 O -0.0269106 15.5178 50.6688 -1.2 1 0.191122 0.0815132 0.0244719 0.0213263 0.0450206 0.034531 0.0525754 0.0629339 0.0534396 0.0556882 0.059883 0.0457172 0.0589788 0.0745757 0.0908692 0.0821656 0.0771433 0.0775171 0.0742394 0.0918646
77 1 Mg -3.18391 14.1057 52.3125 1.2 1 0.0709361 0.0633905 0.0265185 0.0352175 0.017772 0.0526238 0.0356297 0.0607248 0.0350037 0.0831605 0.0321476 0.0474702 0.0265779 0.0740676 0.0331766 0.110071 0.0471998 0.103168 0.0484574 0.0911307
78 3 O 2.52432 15.503 50.4579 -1.2 1 0.211444 0.0786936 0.0246858 0.0198611 0.0335589 0.0520265 0.0539208 0.0441222 0.0524252 0.0634914 0.0595773 0.065326 0.0528783 0.0630254 0.0950178 0.0748051 0.0765843 0.0691422 0.0647346 0.0888368
79 1 Mg -1.71859 14.1351 54.844 1.2 1 0.0211002 0.0251721 0.0161011 0.0308446 0.0117092 0.0207314 0.0224425 0.0339845 0.0435239 0.0625508 0.0528366 0.0501418 0.0600469 0.0680576 0.0594977 0.0958354 0.0652426 0.0975057 0.0565893 0.10505
80 2 Si -1.67865 11.984 53.2566 2.4 1 0.0475991 0.0460891 0.0202282 0.0288139 0.033102 0.0320547 0.0438284 0.0549782 0.0506679 0.0685119 0.0613888 0.0691148 0.0724659 0.0497908 0.0764337 0.0654825 0.0748045 0.082628 0.0638086 0.0624721
81 3 O -1.76649 10.4755 53.2822 -1.2 1 0.0657435 0.0351193 0.0205878 0.0248699 0.0292929 0.0338485 0.0264499 0.0746028 0.0427159 0.0618097 0.0444328 0.0660193 0.0568794 0.0757965 0.0696463 0.0606129 0.0535065 0.058299 0.073723 0.0707436
82 3 O -1.21337 13.3381 46.4311 -1.2 1 0.520182 0.0679552 0.0696478 0.0403557 0.0558825 0.0582896 0.0587243 0.0705643 0.0794513 0.0652802 0.0444321 0.0701386 0.0679889 0.0882566 0.12039 0.11376 0.106177 0.100122 0.0602962 0.0918795
83 3 O -2.94711 12.7492 53.84 -1.2 1 0.028469 0.0401391 0.0275535 0.0260008 0.0242696 0.027339 0.0552306 0.0462549 0.0444294 0.0526571 0.0530268 0.0504386 0.0510364 0.0663189 0.0785301 0.0665713 0.0684365 0.0599959 0.0727396 0.071204
84 3 O -0.320012 12.6263 53.8485 -1.2 1 0.0397631 0.032702 0.0269225 0.0229236 0.0284252 0.0185485 0.0450551 0.0464253 0.0522872 0.0626548 0.050215 0.0432632 0.0570471 0.0764207 0.078415 0.0701872 0.0817173 0.073859 0.0656122 0.0735028
85 1 Mg -3.11447 21.311 57.3426 1.2 1 0.0133118 0.0126393 0.0179652 0.0303372 0.0139161 0.0330387 0.0106582 0.0575287 0.0136966 0.0847537 0.0141289 0.052877 0.0205003 0.0715523 0.0173177 0.103639 0.0222683 0.110109 0.0298582 0.0972438
86 1 Mg -1.5831 21.1217 49.8405 1.2 1 0.236095 0.0769708 0.018553 0.0388389 0.03091 0.0459802 0.0553143 0.0528394 0.0493492 0.0566483 0.062659 0.0667943 0.0704784 0.0661831 0.0962341 0.0784864 0.0735611 0.0982931 0.0863442 0.0805324
87 2 Si -1.09384 18.6291 47.9287 2.4 1 0.37881 0.0609544 0.0684624 0.0653376 0.0302664 0.0684029 0.0452942 0.0789092 0.0631794 0.0682613 0.0534934 0.0722113 0.0590383 0.07387 0.099066 0.0742751 0.105477 0.0919854 0.0883645 0.0892303
88 3 O -1.02071 20.1985 47.9911 -1.2 1 0.370308 0.0629151 0.0424653 0.0621643 0.0448272 0.092075 0.0619732 0.0802906 0.0541662 0.0869949 0.0545043 0.0747012 0.0611192 0.0791848 0.0795918 0.0724122 0.091646 0.0738038 0.0739598 0.0712401
89 3 O -1.65002 17.5002 51.771 -1.2 1 0.108769 0.0633996 0.0291638 0.0266474 0.0321121 0.0562135 0.0561752 0.0473535 0.0661767 0.0530417 0.0543116 0.0511618 0.055127 0.0839315 0.0981169 0.0750064 0.0800513 0.0417336 0.0744347 0.0736948
90 3 O -2.26174 18.0434 48.8281 -1.2 1 0.306405 0.0909474 0.0551541 0.0336967 0.0564026 0.0465796 0.0557635 0.0740018 0.0609593 0.069228 0.0708096 0.060679 0.0548049 0.0599359 0.0795458 0.084465 0.0846058 0.0812049 0.0868896 0.0912393
91 1 Mg -0.0440435 16.5651 46.8269 1.2 1 0.481094 0.021149 0.0812463 0.032744 0.0665232 0.0865814 0.0783933 0.0856642 0.0689559 0.0840422 0.0855557 0.0621586 0.0632081 0.0776985 0.0765513 0.094102 0.0932799 0.0950858 0.0991291 0.106135
92 3 O 0.37001 17.9877 48.3925 -1.2 1 0.352226 0.0690909 0.0517887 0.0355918 0.0456706 0.0613121 0.0386197 0.0650475 0.0662241 0.0725055 0.0602019 0.054878 0.062934 0.0839294 0.0937848 0.0777122 0.0928785 0.103059 0.0794592 0.0848937
93 1 Mg 1.42981 16.6582 54.4387 1.2 1 0.00783529 0.030487 0.0186517 0.0287252 0.0136194 0.0167755 0.020976 0.032667 0.0418028 0.0624766 0.064248 0.0556983 0.064745 0.0646934 0.0671789 0.0754541 0.07955 0.082625 0.0825473 0.0708402
94 2 Si 1.31444 19.2103 56.286 2.4 1 0.0154257 0.0295149 0.0137784 0.0256096 0.032346 0.0316923 0.0412548 0.0434491 0.0490166 0.0570336 0.0532073 0.0493827 0.0679048 0.0545213 0.0782746 0.0710031 0.0594592 0.0976935 0.0627481 0.0566887
95 3 O 1.36041 17.7017 56.4027 -1.2 1 0.0187419 0.0233624 0.0147856 0.0240454 0.0258547 0.0246036 0.0243291 0.0708911 0.0440059 0.0493886 0.0507632 0.0691137 0.0520272 0.0681364 0.0713664 0.0700418 0.0556875 0.0664116 0.0664321 0.0692633
96 3 O 1.45147 20.239 52.7294 -1.2 1 0.080249 0.0413711 0.0209274 0.0204832 0.0222293 0.0477885 0.0431398 0.054171 0.0477729 0.0500756 0.0423842 0.0517164 0.0595784 0.0633591 0.0992077 0.0634455 0.0667877 0.0651249 0.0709904 0.0626915
97 3 O 0.00106566 19.8623 55.7064 -1.2 1 0.0109231 0.00666613 0.0312912 0.0191826 0.0166017 0.0241999 0.0431328 0.0464261 0.0424058 0.0471895 0.0562215 0.0414318 0.0541515 0.0607605 0.0827114 0.0793821 0.0716578 0.0634303 0.0663395 0.0768079
98 3 O 2.53037 19.9482 55.5585 -1.2 1 0.00926102 0.0200108 0.0210851 0.0134113 0.0256238 0.0221661 0.0431067 0.0419433 0.0425616 0.0464393 0.0511048 0.0405507 0.0541828 0.0637486 0.0923172 0.0741666 0.0688259 0.0799166 0.0620441 0.0524354
99 1 Mg -0.126194 18.8651 52.2079 1.2 1 0.104642 0.0660013 0.0228751 0.0404675 0.031549 0.0424471 0.0316466 0.0731252 0.0272199 0.0877606 0.0283054 0.0546957 0.0316683 0.076484 0.0314277 0.104293 0.0407364 0.0995042 0.0436469 0.104747
100 1 Mg 1.92402 18.5815 49.4545 1.2 1 0.271272 0.0988243 0.0344806 0.0392224 0.0329702 0.0334675 0.0680627 0.0446254 0.0683365 0.0740428 0.0819371 0.0606971 0.0692789 0.0640242 0.0828291 0.095932 0.0806304 0.0973577 0.0854505 0.0863853
101 2 Si 1.38106 20.9117 51.2443 2.4 1 0.149755 0.0734053 0.0337116 0.0332796 0.0329301 0.0471684 0.0553508 0.0453821 0.0563885 0.0695637 0.0635717 0.0613392 0.0697109 0.0660656 0.0933281 0.0898635 0.0764467 0.0855378 0.0674893 0.0670925
102 3 O 1.48527 22.4795 51.3054 -1.2 1 0.158598 0.0653699 0.0250234 0.0293392 0.0318205 0.0427645 0.0327711 0.0632243 0.0475324 0.0642642 0.0432602 0.075738 0.061247 0.0626402 0.0699362 0.0660717 0.0786299 0.0714496 0.0641115 0.073312
103 3 O 1.44007 19.8686 57.7981 -1.2 1 0.0131202 0.0191424 0.0185944 0.0172757 0.0168234 0.0349702 0.0352256 0.0436572 0.0550294 0.0431088 0.0414323 0.0456769 0.0513948 0.0634619 0.105174 0.0685304 0.0707082 0.0538822 0.0673221 0.0631203
104 3 O 0.0615419 20.2804 50.6669 -1.2 1 0.1904 0.0773876 0.0260541 0.0207777 0.0502557 0.0371905 0.0506233 0.0586194 0.0557943 0.0601271 0.0609824 0.0461206 0.058297 0.0738576 0.0936079 0.0807368 0.0756506 0.0809526 0.0694123 0.0886533
105 1 Mg -3.09665 18.8643 52.3122 1.2 1 0.0780846 0.0625714 0.0238539 0.0287072 0.0234703 0.0506992 0.0320462 0.0611085 0.0365528 0.0825287 0.031735 0.0505103 0.0302516 0.0743336 0.0357858 0.102094 0.0588837 0.106681 0.0441368 0.0904282
106 3 O 2.61548 20.2646 50.4626 -1.2 1 0.204111 0.0855629 0.0234226 0.0190244 0.0413019 0.0486993 0.0554724 0.0442316 0.0564586 0.065857 0.0615873 0.0690664 0.055576 0.0591232 0.0960252 0.0709234 0.0767084 0.0670183 0.0638874 0.0892417
107 1 Mg -1.74593 18.999 55.0548 1.2 1 0.0240142 0.0154749 0.0187845 0.0295214 0.0130038 0.0211991 0.0229097 0.036056 0.0340662 0.0592 0.0607965 0.0570746 0.0622892 0.0640922 0.0645289 0.0745726 0.0760928 0.0903086 0.0753212 0.080564
108 2 Si -1.55137 16.7625 53.2679 2.4 1 0.0601243 0.0410046 0.0182807 0.0219221 0.0333506 0.0269449 0.0439001 0.0572652 0.0517979 0.0650743 0.0593334 0.0601826 0.0703585 0.0541951 0.0720494 0.0707644 0.0646022 0.0829343 0.0632519 0.0612104
109 3 O -1.63492 15.191 53.1049 -1.2 1 0.0663234 0.0466866 0.0209917 0.0230228 0.0329949 0.0344906 0.0275561 0.0743373 0.0491179 0.0576052 0.0405656 0.0675403 0.0566185 0.0725916 0.0687806 0.0618252 0.0560702 0.0709647 0.0657419 0.0773115
110 3 O -1.12868 18.1227 46.4249 -1.2 1 0.522021 0.0664828 0.0726385 0.0516666 0.0575393 0.065389 0.0609274 0.078482 0.0785641 0.0609412 0.0442786 0.0683664 0.068313 0.0873496 0.115301 0.113546 0.10729 0.10182 0.0616807 0.0914877
111 3 O -2.77011 17.4524 54.0381 -1.2 1 0.0258511 0.0263094 0.0311093 0.0210494 0.0232103 0.0295599 0.0468003 0.0432247 0.0442181 0.0604188 0.0508504 0.0389427 0.0507781 0.058458 0.0746095 0.0756537 0.0649605 0.0673249 0.0619238 0.0687299
112 3 O -0.231893 17.4891 53.7509 -1.2 1 0.0380199 0.0321865 0.0280385 0.0230141 0.0259257 0.0169181 0.0492889 0.0473493 0.0534823 0.0538556 0.0560507 0.0444649 0.057116 0.0624224 0.0827255 0.0639722 0.0851963 0.07154 0.0733909 0.0674654
113 1 Mg -3.02135 25.9746 57.187 1.2 1 0.00904918 0.0219618 0.0155165 0.0276476 0.0108784 0.0316748 0.00856291 0.0585138 0.018595 0.0762307 0.0202469 0.0531695 0.0173261 0.0672392 0.0270677 0.102802 0.0369708 0.108635 0.035467 0.0863059
114 1 Mg -1.48778 25.88 49.8402 1.2 1 0.236987 0.0772561 0.0214299 0.041015 0.0302927 0.0485741 0.0516868 0.0535031 0.0498449 0.0566772 0.0641475 0.0641102 0.0693023 0.0689416 0.0976946 0.0798987 0.0759448 0.0949736 0.0842149 0.0804224
115 2 Si -1.00491 23.3922 47.9274 2.4 1 0.372801 0.0656627 0.0647054 0.0728141 0.030587 0.0753197 0.0424871 0.0831091 0.0685541 0.0735039 0.0524069 0.0762035 0.0603711 0.0741006 0.0929288 0.0760415 0.10344 0.0950306 0.0874593 0.0954887
116 3 O -0.927602 24.9615 47.9909 -1.2 1 0.365958 0.0689554 0.0461082 0.0618183 0.0461891 0.0917577 0.0616676 0.0808646 0.051347 0.0845074 0.053177 0.0736838 0.0621441 0.0803913 0.078886 0.0732743 0.097008 0.0784157 0.0723435 0.0717412
117 3 O -1.55795 22.2588 51.7696 -1.2 1 0.116471 0.0588101 0.0313492 0.0226137 0.0347917 0.0469935 0.0588131 0.0549016 0.0660001 0.0519052 0.0584276 0.0474486 0.0530359 0.0813265 0.100439 0.0743786 0.0793504 0.047582 0.0676729 0.0674616
118 3 O -2.17411 22.8111 48.8277 -1.2 1 0.312063 0.0851935 0.0523451 0.0347367 0.0561356 0.0433837 0.0543538 0.0734667 0.0639192 0.0712034 0.0716587 0.0568921 0.051713 0.0575786 0.0768447 0.0825732 0.0832425 0.0802054 0.0859178 0.0867046
119 1 Mg 0.0423997 21.3296 46.8225 1.2 1 0.485441 0.022173 0.0760648 0.030868 0.0614005 0.0844162 0.0750711 0.0820656 0.0709935 0.0883225 0.0878475 0.0616701 0.0625421 0.0795666 0.0763102 0.0903705 0.0936966 0.0975614 0.0988131 0.105563
120 3 O 0.458537 22.7495 48.3911 -1.2 1 0.358729 0.0598399 0.0431772 0.0485262 0.0426402 0.0550515 0.0408456 0.0648669 0.0645721 0.0721443 0.0618771 0.0573389 0.0591872 0.0813089 0.0919064 0.0762263 0.0900336 0.0990624 0.0809404 0.084438
121 1 Mg 1.35064 21.2784 54.4416 1.2 1 0.0212499 0.0251641 0.0157472 0.0328653 0.0155411 0.0175192 0.018463 0.036648 0.0433213 0.0582776 0.0596628 0.0510693 0.0625162 0.0647168 0.0615201 0.0740544 0.0701197 0.0887752 0.08251 0.0697983
122 2 Si 1.47099 23.9245 56.1843 2.4 1 0.0196663 0.00753543 0.0213134 0.0288492 0.0280161 0.0287872 0.0400124 0.0438115 0.0480822 0.0606669 0.0520256 0.0581825 0.0653217 0.056473 0.0762067 0.0776129 0.0549809 0.0962869 0.0641667 0.056674
123 3 O 1.38207 22.3571 56.2815 -1.2 1 0.0234907 0.0151236 0.0101828 0.0248388 0.0277277 0.0200191 0.0246927 0.0689731 0.0415321 0.0555276 0.0403802 0.0698505 0.0527841 0.0629346 0.0692369 0.0679582 0.0586171 0.0585489 0.0727725 0.0615482
124 3 O 1.54441 24.9963 52.7297 -1.2 1 0.0791972 0.0432475 0.0297422 0.0219744 0.0196462 0.0444687 0.0395281 0.0576751 0.0514408 0.0480454 0.0426221 0.0520057 0.0570043 0.062936 0.101613 0.0649277 0.0651138 0.060849 0.0633188 0.0662433
125 3 O 0.230438 24.7239 55.559 -1.2 1 0.00894461 0.0151612 0.0248075 0.0222355 0.0168447 0.0241398 0.0455407 0.0378216 0.039811 0.049347 0.0479236 0.044248 0.0542857 0.0513296 0.0875173 0.0720561 0.0681882 0.0692351 0.0568278 0.0654325
126 3 O 2.82158 24.7043 55.5965 -1.2 1 0.0178405 0.0210564 0.0287625 0.0225514 0.0203158 0.0202432 0.0450271 0.0446332 0.0387496 0.0439161 0.0531628 0.0334069 0.0550346 0.0547989 0.0865639 0.0781625 0.0668845 0.0694705 0.0592767 0.0644972