ITEM: TIMESTEP
8200
ITEM: NUMBER OF ATOMS
10500
ITEM: BOX BOUNDS xy xz yz pp pp pp
0	8.9688	2.9896
0	118.725	0
0	252.977	0
ITEM: ATOMS id type element xu yu zu q Q_1 Q_2 Q_3 Q_4 Q_5 Q_6 Q_7 Q_8 Q_9 Q_10 Q_11 Q_12 Q_13 Q_14 Q_15 Q_16 Q_17 Q_18 Q_19 Q_20 Q_21
1 1 Mg -3.37594 7.01588 57.4826 1.2 1 0.00604178 0.0117727 0.00764632 0.0290871 0.00648429 0.0343392 0.0077426 0.0553125 0.00827422 0.0846286 0.008213 0.0523785 0.0102386 0.0698217 0.0147236 0.10184 0.0126039 0.113423 0.0165145 0.101515
2 1 Mg -1.82655 6.90154 50.0912 1.2 1 0.220633 0.085964 0.0310842 0.0357775 0.0301037 0.0528134 0.0489802 0.0447188 0.0555024 0.0707314 0.0562593 0.0708897 0.0694416 0.0634584 0.0964306 0.0602811 0.0865417 0.0992413 0.0746226 0.0767509
3 2 Si -0.257935 3.96038 48.0876 2.4 1 0.366822 0.0796271 0.0801116 0.0301451 0.0627475 0.0552976 0.0738507 0.0781458 0.0588665 0.0800252 0.0562111 0.0664014 0.0612433 0.0849719 0.097634 0.100662 0.109904 0.0895966 0.0696251 0.0745112
4 3 O -0.335812 5.46814 47.6264 -1.2 1 0.427172 0.039121 0.0644598 0.0312298 0.0406682 0.0479717 0.0654595 0.0712168 0.0874975 0.0756526 0.0918501 0.0756612 0.0710372 0.0686787 0.0919984 0.125159 0.094253 0.0794974 0.0751364 0.0784047
5 3 O -2.03793 3.43377 51.8941 -1.2 1 0.114551 0.0592315 0.0280452 0.0217421 0.0221403 0.0505611 0.060162 0.0494252 0.0486985 0.0579796 0.0646656 0.0521359 0.0492182 0.0761583 0.0889496 0.0821172 0.0679597 0.0566902 0.0733422 0.0680177
6 3 O -1.54015 3.53929 48.9521 -1.2 1 0.300064 0.0908339 0.0325538 0.0478472 0.0335843 0.0487366 0.06939 0.0502128 0.0532948 0.0614612 0.0788296 0.0671349 0.0707422 0.0696853 0.0734121 0.109933 0.0819003 0.0777617 0.0764444 0.0882472
7 1 Mg 1.82954 2.54582 47.1376 1.2 1 0.466146 0.0214046 0.0798839 0.0500988 0.035421 0.0828485 0.0600197 0.058724 0.0762945 0.0889332 0.069324 0.077235 0.0819695 0.0849814 0.0698758 0.0962086 0.101723 0.105048 0.106772 0.0995194
8 3 O 1.22989 3.66364 48.7877 -1.2 1 0.318454 0.0733093 0.0206819 0.0472409 0.0317343 0.0646982 0.0794293 0.0336133 0.0828038 0.0795069 0.0531882 0.0771703 0.0821385 0.0679536 0.0662827 0.0875148 0.0922716 0.0898139 0.093884 0.0929715
9 1 Mg 0.961609 2.25163 54.6121 1.2 1 0.0126416 0.0218892 0.0181105 0.0378245 0.0208085 0.0342781 0.0226202 0.0328816 0.0448818 0.0587044 0.0546043 0.054806 0.0573711 0.0685819 0.0631832 0.0797516 0.0673602 0.0941648 0.0682912 0.0788523
10 2 Si 1.07884 4.9771 56.4969 2.4 1 0.0170882 0.0155039 0.021787 0.03521 0.0274008 0.023496 0.0395435 0.0472824 0.0537862 0.0565896 0.0528247 0.0656847 0.066084 0.0568608 0.0812317 0.0640905 0.0574013 0.0988068 0.0546489 0.0596319
11 3 O 0.982395 3.40327 56.5317 -1.2 1 0.0112386 0.014224 0.0133822 0.0302826 0.0247016 0.0215671 0.0209833 0.0690982 0.0352051 0.0489904 0.0366665 0.0687938 0.0577316 0.0608568 0.0718361 0.0717984 0.0553166 0.070738 0.0634071 0.0708675
12 3 O 1.10813 6.07342 52.8172 -1.2 1 0.0872573 0.0442615 0.0295083 0.0185532 0.0213938 0.0446156 0.0424089 0.054015 0.050461 0.0415037 0.0556367 0.0527314 0.0700485 0.0673343 0.0841788 0.0857799 0.0576887 0.0674047 0.069966 0.0690368
13 3 O -0.223158 5.71935 55.9127 -1.2 1 0.01507 0.00954982 0.0267571 0.0308618 0.0297746 0.0185957 0.0385596 0.036877 0.0367923 0.0432549 0.0585667 0.0435735 0.0495712 0.0528126 0.087131 0.0697669 0.0752926 0.0596095 0.0679206 0.0662243
14 3 O 2.31939 5.67307 55.7353 -1.2 1 0.0119517 0.0229477 0.0256184 0.0211293 0.0255093 0.0188377 0.0473847 0.0490888 0.0421162 0.0470214 0.0568256 0.0396589 0.0549543 0.0601698 0.0819385 0.0749876 0.0705871 0.0717856 0.0621259 0.0642097
15 1 Mg -0.459401 4.67631 52.2426 1.2 1 0.093801 0.0671707 0.0320691 0.0381075 0.028242 0.0318268 0.0387361 0.0596834 0.0422338 0.080659 0.0461156 0.0591126 0.0476366 0.0729888 0.0437786 0.0998118 0.0535352 0.0935335 0.0578281 0.0879202
16 1 Mg 2.79456 3.9971 49.9987 1.2 1 0.222996 0.0932456 0.032396 0.0464654 0.0478609 0.061863 0.0569763 0.054807 0.0806091 0.0640847 0.0598689 0.0568239 0.0616572 0.0720486 0.0858093 0.0744412 0.072453 0.0895268 0.0843008 0.0745541
17 2 Si 1.16169 6.59457 51.2556 2.4 1 0.136316 0.0870148 0.0384789 0.033384 0.0411784 0.0522761 0.0455803 0.0436595 0.0614424 0.0630156 0.0644029 0.0747925 0.0715125 0.065881 0.0851933 0.0884911 0.0769996 0.0894402 0.0745166 0.0633843
18 3 O 1.28989 8.18905 51.2909 -1.2 1 0.13713 0.0898457 0.0245072 0.0380077 0.0363432 0.0450053 0.043511 0.0755081 0.0530318 0.0700961 0.0439928 0.0887739 0.0707946 0.0638605 0.0794536 0.0724738 0.0741442 0.0676171 0.0694834 0.0720184
19 3 O 1.18345 5.62485 57.9337 -1.2 1 0.00986827 0.0227255 0.0188007 0.0237359 0.0171546 0.0339182 0.0305651 0.043395 0.0605417 0.0440825 0.0443213 0.0440641 0.0517667 0.0655662 0.102954 0.0734285 0.0617874 0.0548028 0.0761221 0.0593056
20 3 O -0.184847 6.06029 50.6845 -1.2 1 0.186031 0.0829901 0.0215395 0.0297756 0.0366351 0.0293562 0.0513693 0.0595146 0.055576 0.0593038 0.0651705 0.0775272 0.0645127 0.0587461 0.08885 0.0688275 0.0823419 0.0796287 0.0622684 0.0786461
21 1 Mg -3.49704 4.67769 52.6661 1.2 1 0.0635989 0.0527172 0.0300803 0.0302565 0.0145009 0.0449932 0.0364393 0.0611557 0.0511455 0.0690777 0.0505727 0.05025 0.050402 0.0501014 0.0595319 0.0903041 0.0819088 0.0774314 0.0733587 0.0720573
22 3 O 2.48581 5.93312 50.6539 -1.2 1 0.193153 0.0915434 0.0309209 0.0189872 0.0341244 0.0458534 0.0574139 0.0577683 0.0452508 0.0669932 0.0476083 0.0646305 0.0536129 0.0618164 0.102842 0.0681893 0.0777774 0.0664406 0.0767808 0.07557
23 1 Mg -1.86349 4.75224 55.2305 1.2 1 0.0273065 0.0152661 0.0193061 0.020363 0.0159963 0.0217334 0.0276309 0.0353328 0.0379038 0.0522261 0.0590653 0.0581067 0.0588558 0.0616007 0.0620663 0.0740208 0.0874993 0.0885986 0.0676046 0.0759014
24 2 Si -1.93505 2.67539 53.3073 2.4 1 0.0360801 0.0385482 0.025134 0.023128 0.0254219 0.0249901 0.0463694 0.047023 0.068796 0.0638979 0.055564 0.0688918 0.078903 0.0479985 0.0700004 0.0544401 0.0739611 0.0901361 0.0772209 0.0564288
25 3 O -2.01163 1.09296 53.1803 -1.2 1 0.0466812 0.0477547 0.0294943 0.0271473 0.0204148 0.0386399 0.0236621 0.0638194 0.0610137 0.0614728 0.0514971 0.0687452 0.0573498 0.0715366 0.0782462 0.0728019 0.0496428 0.0749906 0.0648097 0.0776191
26 3 O -0.0467762 2.97103 46.8385 -1.2 1 0.497794 0.0373664 0.0875625 0.0295907 0.0801284 0.0675544 0.0808381 0.0719464 0.0728517 0.0793524 0.0815455 0.0757135 0.0972215 0.0886175 0.0884191 0.0884847 0.0990455 0.096722 0.104795 0.111127
27 3 O -3.19773 3.25851 54.1478 -1.2 1 0.0285912 0.0268058 0.0259981 0.0207942 0.0226534 0.0264524 0.0317094 0.0392916 0.0501255 0.0532935 0.0660465 0.0427932 0.0571845 0.0603262 0.0739508 0.0689892 0.0616124 0.0713151 0.0695178 0.0579801
28 3 O -0.672101 3.34352 54.0275 -1.2 1 0.035351 0.0197939 0.037224 0.0145265 0.0196536 0.0232461 0.0459435 0.0475454 0.0408816 0.0512789 0.0629558 0.0431172 0.0524163 0.0712714 0.0883439 0.0696997 0.0772095 0.0776036 0.0605866 0.0610903
29 1 Mg -3.26186 11.7411 57.4425 1.2 1 0.0055096 0.0169002 0.00774801 0.0319793 0.00626884 0.0326988 0.0062048 0.0560239 0.0110034 0.0816735 0.0115142 0.0490435 0.0124293 0.0723028 0.0119659 0.103788 0.0117506 0.114746 0.0183418 0.0962769
30 1 Mg -1.75014 11.5838 49.8362 1.2 1 0.23061 0.0802097 0.0270588 0.0418592 0.0292181 0.0557714 0.0490048 0.0551503 0.0461787 0.058316 0.0659716 0.0607147 0.0716842 0.0719948 0.109839 0.0885386 0.0633487 0.0937172 0.0871227 0.0799825
31 2 Si -1.18003 9.02138 47.9309 2.4 1 0.367468 0.0711142 0.0692731 0.0545466 0.0411823 0.060439 0.073393 0.0781375 0.0700454 0.0664095 0.0587745 0.0666336 0.0687037 0.0807767 0.10216 0.0648347 0.10089 0.0924385 0.102884 0.0857455
32 3 O -1.23224 10.5991 47.9811 -1.2 1 0.37545 0.0647402 0.058477 0.0549753 0.0519092 0.070863 0.0669246 0.0763847 0.0540645 0.0854728 0.0695519 0.0637864 0.0730346 0.080188 0.08297 0.0694159 0.0911867 0.0811521 0.0643567 0.0720705
33 3 O -1.79016 8.01447 51.8693 -1.2 1 0.114753 0.0599688 0.0332152 0.0296012 0.0313261 0.0468309 0.0586847 0.0555392 0.0562315 0.0529811 0.0499347 0.0543264 0.0645186 0.0847136 0.0910594 0.0735909 0.0740953 0.0547298 0.0720696 0.0686991
34 3 O -2.30986 8.37215 48.8528 -1.2 1 0.31055 0.0885459 0.0665933 0.0248826 0.05503 0.0631819 0.0645057 0.0644979 0.0562168 0.0648644 0.0794811 0.0686419 0.0596708 0.0637919 0.0796097 0.0916283 0.0984412 0.0799101 0.07428 0.0943931
35 1 Mg 0.154883 7.08234 46.8007 1.2 1 0.497327 0.0361669 0.0754259 0.0388247 0.0647166 0.0749426 0.0588015 0.0681047 0.0712554 0.0831564 0.0891361 0.0759966 0.0789527 0.0797862 0.0702537 0.0924926 0.0930504 0.108295 0.113751 0.100477
36 3 O 0.325447 8.50934 48.3809 -1.2 1 0.345372 0.0836915 0.0672277 0.045725 0.0363567 0.0511514 0.0414325 0.0611514 0.0627528 0.0659925 0.0761526 0.0653143 0.0786925 0.0929634 0.0905256 0.0684246 0.0925757 0.101385 0.0842871 0.0882738
37 1 Mg 1.1905 7.07021 54.609 1.2 1 0.0174127 0.0296288 0.0138017 0.0321155 0.0174502 0.0238617 0.0236485 0.0336856 0.0425147 0.0605479 0.0607127 0.0577081 0.0511287 0.0659054 0.0629126 0.0842874 0.0690382 0.0848312 0.076542 0.0827558
38 2 Si 1.16005 9.73922 56.4869 2.4 1 0.0199165 0.0199414 0.0189863 0.0220107 0.0341677 0.0337115 0.0419818 0.0412769 0.0496834 0.0534787 0.0560673 0.0669809 0.0663061 0.0602465 0.0841614 0.0685765 0.0577495 0.0959376 0.0597272 0.0565637
39 3 O 1.2107 8.20284 56.6178 -1.2 1 0.0338062 0.0115809 0.0152944 0.0199121 0.0238143 0.0290006 0.0263662 0.0633145 0.0426147 0.0489937 0.0448301 0.0683631 0.0540526 0.0619383 0.0760918 0.0716897 0.0600406 0.0720772 0.0579375 0.0815352
40 3 O 1.28624 10.7248 52.7351 -1.2 1 0.0791661 0.0360471 0.0352384 0.0228812 0.0292177 0.0455728 0.0496376 0.0493382 0.0458686 0.0472327 0.050877 0.0478921 0.0589662 0.0685959 0.0989805 0.0784347 0.0711327 0.0530976 0.0759108 0.0611116
41 3 O -0.160698 10.4511 55.8702 -1.2 1 0.011341 0.0136769 0.0288141 0.0186367 0.0171359 0.018996 0.0420729 0.0470938 0.0363355 0.0422989 0.0550758 0.045318 0.0501041 0.05533 0.0920983 0.0697856 0.0743021 0.0539521 0.0630299 0.0783316
42 3 O 2.41402 10.4322 55.8066 -1.2 1 0.0237864 0.00739525 0.0240712 0.0188921 0.0228589 0.0191958 0.0483259 0.0428767 0.0335629 0.0426537 0.0542851 0.0395285 0.0508877 0.0627397 0.087816 0.0775943 0.0749301 0.0610075 0.067451 0.0636084
43 1 Mg -0.262694 9.34741 52.2523 1.2 1 0.114456 0.0614818 0.0222175 0.0401192 0.0309716 0.0446455 0.0353583 0.0730144 0.0257008 0.0878731 0.0286411 0.0559795 0.0365196 0.0765666 0.0380976 0.106607 0.0502066 0.0939877 0.0502009 0.104292
44 1 Mg 1.87648 9.01537 49.4629 1.2 1 0.270972 0.0961932 0.038134 0.0378927 0.0332824 0.0489212 0.0691982 0.0467091 0.0762002 0.0630254 0.082614 0.0534003 0.0842134 0.0666249 0.0850053 0.095767 0.0877831 0.0950939 0.0854261 0.0906733
45 2 Si 1.21415 11.3799 51.2378 2.4 1 0.131273 0.0845868 0.0430234 0.0365218 0.0398407 0.0521022 0.0526102 0.0414148 0.0578397 0.0633781 0.0736163 0.0718037 0.0779086 0.0685435 0.0915106 0.0893906 0.0755254 0.0817942 0.0771814 0.0564267
46 3 O 1.31634 12.9512 51.3023 -1.2 1 0.131279 0.0827988 0.0277375 0.035874 0.0344618 0.0442285 0.0411948 0.0711233 0.0602577 0.0675807 0.0417778 0.0814056 0.0719976 0.0673256 0.0744952 0.0693829 0.0773519 0.0728313 0.0696987 0.0710468
47 3 O 1.17081 10.4196 57.9551 -1.2 1 0.0146787 0.0166746 0.0268351 0.0154769 0.019544 0.0357194 0.0338968 0.0465182 0.0532353 0.0459041 0.0393967 0.0458746 0.0491322 0.0594459 0.110116 0.068093 0.0695857 0.0472706 0.0701261 0.0647372
48 3 O -0.115718 10.7564 50.681 -1.2 1 0.191115 0.0796615 0.0268505 0.0182202 0.0464335 0.0350366 0.049425 0.0648567 0.0514294 0.0573562 0.0611004 0.0508157 0.0608421 0.0737872 0.0946463 0.0812569 0.072359 0.076874 0.0765174 0.0816318
49 1 Mg -3.26386 9.35564 52.3622 1.2 1 0.0800527 0.0535997 0.0272231 0.0323293 0.0155223 0.053394 0.0353798 0.0572166 0.0316516 0.0861821 0.0294803 0.0480639 0.0328998 0.0679527 0.0359119 0.113843 0.045443 0.102609 0.0495212 0.0912369
50 3 O 2.45216 10.7265 50.4558 -1.2 1 0.194429 0.0930755 0.0219804 0.0117554 0.0411329 0.0572371 0.0577183 0.0462937 0.0599027 0.0704464 0.0670102 0.0715882 0.0563388 0.0675846 0.0973548 0.0827014 0.0728413 0.0754068 0.0571188 0.086121
51 1 Mg -1.80965 9.51472 55.1465 1.2 1 0.0247851 0.0128364 0.0202772 0.0277596 0.0131485 0.0219118 0.0233457 0.0348356 0.0407907 0.0549017 0.0619499 0.0522873 0.0587996 0.064569 0.0650583 0.0817014 0.072387 0.0910641 0.0729991 0.0823926
52 2 Si -1.75625 7.37185 53.4317 2.4 1 0.0569447 0.0390847 0.020022 0.0253386 0.0289171 0.0311586 0.0388851 0.0557408 0.060716 0.0631151 0.062345 0.0598527 0.0716041 0.0505964 0.0626284 0.0726844 0.0675126 0.0860821 0.0654231 0.0577471
53 3 O -1.90466 5.8099 53.3384 -1.2 1 0.0638439 0.031439 0.0247453 0.0151361 0.02065 0.0329683 0.0334253 0.0691174 0.0503547 0.0652308 0.0384772 0.0743171 0.0526886 0.0770489 0.0600734 0.0657434 0.0595495 0.0571432 0.0734887 0.0650633
54 3 O -1.19417 8.46968 46.4488 -1.2 1 0.525027 0.0664976 0.0666468 0.0515217 0.0668665 0.0555649 0.0776911 0.0545228 0.0761162 0.0711444 0.0569696 0.0512266 0.0696791 0.0980597 0.130219 0.113497 0.0974112 0.0954038 0.0831844 0.0827616
55 3 O -3.0166 8.07828 54.046 -1.2 1 0.0440699 0.0200316 0.0233285 0.0208659 0.0263086 0.0285509 0.0487245 0.0426991 0.0416375 0.056126 0.0543611 0.0454211 0.0600114 0.0582602 0.0802733 0.0685642 0.0669429 0.0625536 0.065733 0.0679419
56 3 O -0.502449 8.12249 53.9935 -1.2 1 0.0613306 0.0264327 0.026003 0.0198277 0.0322274 0.021689 0.0340506 0.048177 0.0420834 0.0517454 0.0608898 0.0512041 0.05659 0.0527444 0.0883021 0.0581374 0.0765432 0.0700254 0.065019 0.0715507
57 1 Mg -3.32742 16.5069 57.4632 1.2 1 0.00578381 0.0193251 0.0106334 0.032242 0.00862086 0.0333328 0.00883893 0.0566277 0.0140609 0.0850486 0.0137262 0.0526379 0.0159147 0.0700671 0.0232672 0.100577 0.0283857 0.110242 0.029449 0.0960311
58 1 Mg -1.6714 16.3544 49.8412 1.2 1 0.22962 0.0821703 0.023814 0.0437548 0.0291238 0.0532836 0.0538394 0.0533905 0.0475438 0.0619624 0.0634716 0.0644659 0.0732583 0.0756588 0.106271 0.0857486 0.0727474 0.0946973 0.0849759 0.0837187
59 2 Si -1.18567 13.8526 47.9314 2.4 1 0.371601 0.0697842 0.0737201 0.0628704 0.0315909 0.0689968 0.0481155 0.0795971 0.0652367 0.0665552 0.0510258 0.0724516 0.0599872 0.0777681 0.0993024 0.0749453 0.104462 0.0968199 0.0891586 0.0905179
60 3 O -1.09664 15.4205 47.9915 -1.2 1 0.366189 0.0699472 0.0485269 0.0622696 0.0450677 0.0925146 0.0634073 0.0826597 0.0569393 0.0890159 0.0545901 0.0729989 0.0607485 0.0821083 0.0824965 0.0746181 0.093088 0.0753777 0.0740323 0.0692659
61 3 O -1.73493 12.7491 51.7772 -1.2 1 0.114969 0.05664 0.031599 0.0333637 0.0308332 0.0531733 0.0639649 0.0492641 0.0649842 0.0536183 0.0577573 0.051094 0.052919 0.0864061 0.105208 0.0759706 0.0814483 0.0474459 0.0723838 0.0696514
62 3 O -2.36115 13.2717 48.8238 -1.2 1 0.302197 0.097148 0.0613756 0.0271671 0.0584783 0.0520199 0.0597503 0.0695757 0.0591712 0.0661998 0.0742655 0.0646234 0.0604368 0.0567983 0.0830791 0.0876704 0.0875347 0.0776881 0.0816722 0.0899604
63 1 Mg -0.159928 11.7639 46.8533 1.2 1 0.482412 0.0250629 0.077049 0.0335161 0.0532837 0.0971036 0.0707398 0.0881679 0.0829489 0.0844629 0.0841357 0.0686285 0.0720312 0.09194 0.0774459 0.0861473 0.0969828 0.0973816 0.099388 0.106023
64 3 O 0.2623 13.1866 48.413 -1.2 1 0.343668 0.0777028 0.0535686 0.039677 0.0457201 0.059353 0.0397063 0.0654866 0.067776 0.0697878 0.0617846 0.0599393 0.0655932 0.0881723 0.0980841 0.0818032 0.0938677 0.0980991 0.0827867 0.087057
65 1 Mg 1.27498 11.8039 54.5781 1.2 1 0.0134006 0.0276346 0.0138926 0.0303944 0.0111358 0.020541 0.0188487 0.0327803 0.0444112 0.0614117 0.0617256 0.0539638 0.0565057 0.0670396 0.0639898 0.0836374 0.0711797 0.0905284 0.0734252 0.0801657
66 2 Si 1.14881 14.4712 56.4691 2.4 1 0.0147606 0.0193161 0.0183084 0.0309304 0.0332886 0.0335016 0.0411498 0.0403833 0.0512552 0.0536436 0.0511714 0.0655316 0.0711159 0.0565906 0.0805776 0.0711754 0.0600196 0.0930693 0.0601332 0.0544035
67 3 O 1.20076 12.9254 56.5361 -1.2 1 0.0353092 0.00714958 0.0226358 0.0266 0.0254396 0.0262794 0.0236792 0.0668941 0.0391752 0.0538833 0.0433783 0.0691482 0.0545279 0.064132 0.0728448 0.0670815 0.0571086 0.0741372 0.0577873 0.0760674
68 3 O 1.36565 15.4813 52.729 -1.2 1 0.0674713 0.0368092 0.0331461 0.022435 0.0267441 0.0442193 0.0505644 0.0541995 0.050942 0.0478196 0.0464588 0.0518589 0.0550488 0.0661406 0.105309 0.0747435 0.0737731 0.0571086 0.0746036 0.0608631
69 3 O -0.167344 15.1415 55.8082 -1.2 1 0.00967463 0.0116812 0.0280655 0.0208907 0.0159553 0.0220948 0.0417263 0.0463484 0.041363 0.0470225 0.0531122 0.0407914 0.0536396 0.0576707 0.0896871 0.0756538 0.0705733 0.0594894 0.0607794 0.0785213
70 3 O 2.45665 15.1923 55.7502 -1.2 1 0.0255502 0.0143021 0.0273049 0.0164789 0.024188 0.0178334 0.0426122 0.0476431 0.0357661 0.0423858 0.0513966 0.0400692 0.0501845 0.0621566 0.0906319 0.0772018 0.0782307 0.0614555 0.0632773 0.0621798
71 1 Mg -0.206989 14.1049 52.2121 1.2 1 0.105666 0.063755 0.0243659 0.042666 0.0297938 0.0418091 0.0342565 0.0721045 0.0251826 0.089054 0.025735 0.0572701 0.0284634 0.0764433 0.0290175 0.106416 0.0380383 0.10529 0.0386247 0.103306
72 1 Mg 1.82591 13.8102 49.4556 1.2 1 0.266484 0.1004 0.0279525 0.0392799 0.0326335 0.033557 0.0689553 0.0449696 0.0692898 0.0766847 0.0798943 0.0594043 0.0763636 0.0723084 0.0827118 0.0914261 0.0779885 0.0968858 0.0908688 0.0860322
73 2 Si 1.29285 16.1518 51.2434 2.4 1 0.125159 0.0877479 0.0416225 0.0380653 0.0383478 0.0506809 0.0521311 0.0439569 0.0562626 0.0669391 0.0669381 0.073096 0.071098 0.0685222 0.0922959 0.0856477 0.0735566 0.0865818 0.07007 0.0622832
74 3 O 1.39496 17.7199 51.3047 -1.2 1 0.122356 0.0917637 0.0244546 0.0373679 0.03388 0.0416258 0.0491877 0.0745619 0.0573136 0.0667019 0.0423031 0.080662 0.0704944 0.0652384 0.0777606 0.0696787 0.0765462 0.074938 0.0683436 0.0715866
75 3 O 1.15701 15.1074 57.9235 -1.2 1 0.0170579 0.020179 0.0247431 0.0156166 0.0191189 0.031578 0.0309546 0.0475718 0.0557135 0.0443037 0.0429754 0.0455511 0.0540753 0.0659517 0.101713 0.0704061 0.0658682 0.0479795 0.0744676 0.0588354
76 3 O -0.0269106 15.5178 50.6688 -1.2 1 0.183953 0.0820311 0.0225026 0.0223766 0.0495962 0.0377697 0.0526648 0.0647419 0.0565819 0.0581085 0.0610042 0.0509521 0.0650444 0.0765717 0.0935835 0.08022 0.0759524 0.0808079 0.0715824 0.0894836
77 1 Mg -3.18391 14.1057 52.3125 1.2 1 0.0745125 0.0557995 0.0322635 0.0339129 0.0168116 0.0534864 0.0344155 0.0626916 0.0339804 0.0823417 0.0299856 0.046657 0.0224481 0.0763582 0.029813 0.109971 0.0419477 0.104778 0.0395417 0.0888665
78 3 O 2.52432 15.503 50.4579 -1.2 1 0.195393 0.0917865 0.0234822 0.0118627 0.0384579 0.0566736 0.0623879 0.0495739 0.0552688 0.0657816 0.0663349 0.066752 0.0563282 0.0640626 0.101591 0.0785249 0.0757936 0.0702434 0.0609136 0.0864533
79 1 Mg -1.76977 14.1656 55.1678 1.2 1 0.0253477 0.0154228 0.0182972 0.0248419 0.0161689 0.0227337 0.0283986 0.0317546 0.0399112 0.0563053 0.056692 0.0601339 0.0595077 0.0610877 0.0639917 0.0744184 0.0817447 0.0941282 0.0664908 0.0859439
80 2 Si -1.68993 12.0654 53.279 2.4 1 0.047407 0.0424663 0.0221971 0.0273264 0.0348818 0.031803 0.0455785 0.0562736 0.0621035 0.0624578 0.0595955 0.0707009 0.0774221 0.0514393 0.0724437 0.0640624 0.0644944 0.0883959 0.0619164 0.0608276
81 3 O -1.76932 10.5142 53.2122 -1.2 1 0.0751846 0.0305788 0.0241094 0.0221159 0.0323014 0.0312735 0.0281747 0.0733099 0.0446513 0.0574764 0.0504517 0.0704819 0.0586686 0.0747887 0.0702095 0.066204 0.0504149 0.0610965 0.0703432 0.0745811
82 3 O -1.21337 13.3381 46.4311 -1.2 1 0.520134 0.0679031 0.0700223 0.0407482 0.0559806 0.0582662 0.0583327 0.0701371 0.0792228 0.0654316 0.0458566 0.0712589 0.0681578 0.0878517 0.120417 0.114185 0.106602 0.100275 0.0598224 0.0911016
83 3 O -2.99922 12.7539 53.9381 -1.2 1 0.0400853 0.0222683 0.0319698 0.0236535 0.0202746 0.0299586 0.0522042 0.047081 0.0416855 0.0562685 0.0496774 0.0475931 0.0521642 0.0653492 0.0783581 0.0699799 0.0688603 0.0587093 0.0656679 0.0676791
84 3 O -0.430513 12.7733 53.9453 -1.2 1 0.0519819 0.0244736 0.0311085 0.0201567 0.0272621 0.020081 0.0354669 0.0510924 0.0425224 0.0543025 0.0598164 0.0499248 0.0553419 0.0588318 0.0942618 0.0584948 0.0812045 0.0581556 0.067383 0.0720392
85 1 Mg -3.0909 21.2403 57.3521 1.2 1 0.00736851 0.0164213 0.00641608 0.0292878 0.00579309 0.0352614 0.0078493 0.0554588 0.0102225 0.0865795 0.0122117 0.0523715 0.0119872 0.0704491 0.015573 0.100421 0.0219856 0.1131 0.0233403 0.100936
86 1 Mg -1.5831 21.1217 49.8405 1.2 1 0.230091 0.0808291 0.024445 0.041152 0.0326045 0.0493998 0.0543356 0.0548939 0.0494736 0.0612808 0.062507 0.06489 0.071688 0.0725373 0.102225 0.0829914 0.0726561 0.0938625 0.0837346 0.0832521
87 2 Si -1.09384 18.6291 47.9287 2.4 1 0.376189 0.0635434 0.0657771 0.0684945 0.0280806 0.0679555 0.0467603 0.0801415 0.0647295 0.0680308 0.0533117 0.0741067 0.0597679 0.0745321 0.0995506 0.0740072 0.10462 0.0934311 0.0893065 0.0881774
88 3 O -1.02071 20.1985 47.9911 -1.2 1 0.365746 0.0698977 0.0489948 0.0630109 0.0451743 0.0916978 0.0636676 0.0831134 0.0566061 0.088021 0.05481 0.0724647 0.0612184 0.0823542 0.0809465 0.0741542 0.0945902 0.0767353 0.0738082 0.0690073
89 3 O -1.65002 17.5002 51.771 -1.2 1 0.109137 0.0581697 0.034635 0.032093 0.0316019 0.0533536 0.0623303 0.0502984 0.0643482 0.0540974 0.058837 0.0509282 0.0516531 0.0847361 0.10282 0.0771962 0.0800849 0.0444974 0.0754204 0.0730141
90 3 O -2.26174 18.0434 48.8281 -1.2 1 0.297202 0.10145 0.0618274 0.0278861 0.0623918 0.0512512 0.0585172 0.0737556 0.0596646 0.0663376 0.0720843 0.0613645 0.0559995 0.0585333 0.0792402 0.0884467 0.0863854 0.0787815 0.0831672 0.0909283
91 1 Mg -0.0440435 16.5651 46.8269 1.2 1 0.481204 0.0219711 0.0812293 0.0325803 0.0664098 0.0873341 0.078955 0.0851423 0.0688153 0.0841402 0.0853647 0.0623693 0.0633698 0.0779446 0.077117 0.0942155 0.0938748 0.0961589 0.0987826 0.104685
92 3 O 0.37001 17.9877 48.3925 -1.2 1 0.341359 0.0834124 0.0588831 0.0418062 0.0445744 0.0605676 0.0426443 0.0686422 0.0670511 0.0737035 0.0612721 0.05707 0.0653765 0.0874134 0.0945794 0.076612 0.0924226 0.0998284 0.0824844 0.0883622
93 1 Mg 1.32465 16.5282 54.58 1.2 1 0.0105132 0.0246699 0.0146256 0.0313855 0.0106843 0.0204339 0.0197845 0.0372406 0.0459148 0.0581719 0.0613519 0.0525689 0.0548741 0.0687422 0.0633456 0.0816324 0.067496 0.0936422 0.0729875 0.0854498
94 2 Si 1.28119 19.2274 56.3794 2.4 1 0.00597266 0.0143653 0.0253267 0.0254261 0.0349067 0.0318989 0.0376348 0.044467 0.0529414 0.0502958 0.0509856 0.0597097 0.0708482 0.0543589 0.0842342 0.0732419 0.0609434 0.0956169 0.0574131 0.0531535
95 3 O 1.25213 17.6572 56.4432 -1.2 1 0.0143553 0.015654 0.00756008 0.0250955 0.0328425 0.0255426 0.0183804 0.0731976 0.0373408 0.0576507 0.0412193 0.0730137 0.0574379 0.064417 0.0742548 0.0697674 0.0565865 0.0668869 0.0672281 0.0675759
96 3 O 1.45147 20.239 52.7294 -1.2 1 0.0734455 0.0373666 0.0282591 0.0233208 0.0228207 0.0434589 0.051716 0.0540127 0.0523227 0.0466337 0.0469549 0.049921 0.0582315 0.0653452 0.102576 0.0706279 0.0722044 0.0585033 0.0717198 0.0610314
97 3 O 0.00896168 19.9516 55.7403 -1.2 1 0.012686 0.0103707 0.0295463 0.0217112 0.0189381 0.0255678 0.0443264 0.0460471 0.0426132 0.0441434 0.0537418 0.0388346 0.0536146 0.0556442 0.0907121 0.0744714 0.068588 0.0606169 0.057993 0.0756861
98 3 O 2.52879 19.9167 55.6878 -1.2 1 0.0176131 0.0163434 0.0239219 0.0181361 0.0233112 0.0183665 0.0468121 0.0471711 0.0365185 0.0470645 0.0503328 0.0381068 0.0513446 0.0641031 0.0858492 0.078226 0.0759724 0.0672014 0.0635481 0.0643457
99 1 Mg -0.126194 18.8651 52.2079 1.2 1 0.104103 0.0651689 0.0244124 0.0428189 0.031073 0.0418275 0.0344088 0.0722226 0.0260611 0.0897635 0.0265764 0.0563957 0.0298278 0.0751866 0.0315383 0.105367 0.0411203 0.105508 0.0389261 0.103859
100 1 Mg 1.92402 18.5815 49.4545 1.2 1 0.263692 0.107075 0.0335335 0.0448174 0.0288013 0.0333662 0.0715408 0.041513 0.0693044 0.0735451 0.0771545 0.0574508 0.0758404 0.0692066 0.0843721 0.0925888 0.0777554 0.0943795 0.0857835 0.0858276
101 2 Si 1.38106 20.9117 51.2443 2.4 1 0.127636 0.0861399 0.0387569 0.0357785 0.0398082 0.0475798 0.0529215 0.0462629 0.0562908 0.0677421 0.0673347 0.0711525 0.0716041 0.0663897 0.0932467 0.0855315 0.0763559 0.086692 0.0704545 0.0594129
102 3 O 1.48527 22.4795 51.3054 -1.2 1 0.14787 0.071699 0.0252712 0.0347528 0.0257921 0.0450475 0.0406421 0.0677658 0.0488821 0.0613475 0.0448875 0.0758945 0.0677306 0.0665122 0.0727463 0.06906 0.0762167 0.072756 0.0679033 0.0726161
103 3 O 1.32608 19.848 57.8673 -1.2 1 0.01628 0.0150641 0.0266331 0.0194179 0.0162507 0.0330892 0.0337682 0.0439277 0.05654 0.04439 0.0404766 0.0439312 0.0520128 0.0683232 0.104788 0.0729391 0.0681763 0.0521946 0.0786737 0.0661095
104 3 O 0.0615419 20.2804 50.6669 -1.2 1 0.183674 0.0803607 0.0258431 0.0210119 0.0458422 0.0414584 0.0519855 0.0660501 0.055324 0.056972 0.0580893 0.049556 0.0634011 0.0754459 0.0896724 0.0805066 0.0735062 0.0806367 0.0708127 0.0859422
105 1 Mg -3.09665 18.8643 52.3122 1.2 1 0.0756857 0.056737 0.0303239 0.0325147 0.0178743 0.0548488 0.031551 0.0643308 0.0317169 0.0779213 0.034294 0.0489516 0.0246786 0.0724285 0.0318437 0.11116 0.0422439 0.105318 0.0396516 0.0876114
106 3 O 2.61548 20.2646 50.4626 -1.2 1 0.193774 0.0949152 0.0272965 0.0150817 0.0380059 0.0542523 0.0605445 0.047228 0.0555108 0.067313 0.0658185 0.0667831 0.0529378 0.0621543 0.101079 0.0766517 0.0729079 0.067794 0.0603625 0.0864494
107 1 Mg -1.67079 18.9434 55.1332 1.2 1 0.0182907 0.0145538 0.0195548 0.0249946 0.0148718 0.0235184 0.0248133 0.033134 0.0395436 0.0600175 0.0585106 0.0597766 0.0595534 0.0636152 0.0627477 0.0746611 0.0785292 0.096114 0.0704439 0.0824164
108 2 Si -1.65239 16.8323 53.2248 2.4 1 0.0523451 0.0357495 0.0254405 0.0319919 0.0350094 0.0357129 0.0485543 0.0548121 0.0599899 0.0626542 0.0594705 0.0674274 0.0818929 0.0524706 0.0732526 0.0615859 0.0667851 0.086594 0.0622997 0.0589489
109 3 O -1.73413 15.264 53.1993 -1.2 1 0.0594762 0.0419412 0.0238823 0.0256881 0.0246191 0.0343837 0.0323963 0.0747814 0.0437108 0.0629377 0.0492625 0.0686151 0.0628924 0.0760517 0.073515 0.0653351 0.0516468 0.0683162 0.0691127 0.078497
110 3 O -1.12868 18.1227 46.4249 -1.2 1 0.522032 0.0664727 0.0727491 0.0522051 0.057688 0.0650668 0.0610563 0.079352 0.0798182 0.0624739 0.0456493 0.0683349 0.0676114 0.0876588 0.117052 0.115575 0.107333 0.100593 0.0627543 0.0928833
111 3 O -2.91026 17.5414 53.9062 -1.2 1 0.0321031 0.0251768 0.0254134 0.0224755 0.0261867 0.02645 0.0518761 0.0435283 0.0434406 0.0477556 0.0502401 0.0436439 0.0545476 0.062604 0.0865219 0.0678159 0.0699705 0.0606399 0.0691609 0.0732273
112 3 O -0.367629 17.5341 53.8966 -1.2 1 0.0478833 0.0243862 0.0341898 0.0219519 0.0274803 0.0198521 0.0391066 0.0515041 0.0437314 0.053964 0.0571293 0.0480589 0.0564914 0.06362 0.0925401 0.0597128 0.0799514 0.0643153 0.0716975 0.0710129
113 1 Mg -2.98756 25.9177 57.3955 1.2 1 0.0103842 0.0156445 0.00546897 0.0299907 0.00572309 0.0350695 0.00712581 0.0560139 0.0118891 0.0864935 0.0119798 0.0502333 0.0122471 0.070549 0.0142667 0.101197 0.0170329 0.113342 0.0243671 0.0986996
114 1 Mg -1.48778 25.88 49.8402 1.2 1 0.22637 0.0844808 0.0238889 0.0430533 0.0298133 0.0526771 0.0549628 0.0538838 0.0512868 0.0616361 0.0621878 0.0650763 0.0746207 0.0745957 0.102902 0.0819162 0.0735287 0.0946361 0.0841912 0.0840389
115 2 Si -1.00491 23.3922 47.9274 2.4 1 0.375837 0.0622496 0.0660634 0.0715837 0.0317642 0.0740679 0.0413861 0.0834288 0.0666337 0.0730722 0.0524458 0.0740101 0.0587294 0.0741516 0.0941778 0.0755486 0.102223 0.0952405 0.0886724 0.093191
116 3 O -0.927602 24.9615 47.9909 -1.2 1 0.361435 0.0760422 0.052934 0.060972 0.0469807 0.092797 0.0618049 0.0812537 0.0529285 0.0869089 0.0527486 0.0720103 0.0615074 0.0833603 0.082691 0.0741374 0.0969392 0.0784973 0.0729851 0.0685919
117 3 O -1.55795 22.2588 51.7696 -1.2 1 0.111969 0.0574136 0.0341979 0.0271629 0.0329723 0.0538953 0.0581291 0.05018 0.0647753 0.0527389 0.055547 0.0493632 0.0532283 0.0836421 0.102612 0.0751104 0.0802884 0.0467903 0.0744629 0.0723417
118 3 O -2.17411 22.8111 48.8277 -1.2 1 0.306224 0.0906795 0.0559163 0.0321776 0.0583472 0.048821 0.0532918 0.0724274 0.0619166 0.0661039 0.0723534 0.0596728 0.0532104 0.0558127 0.0798896 0.0871491 0.0858364 0.0780544 0.0831346 0.0887459
119 1 Mg 0.0423997 21.3296 46.8225 1.2 1 0.481565 0.0223933 0.0808332 0.0327473 0.066098 0.0872008 0.0783613 0.0862035 0.069937 0.0832723 0.0845227 0.0621426 0.0634075 0.0776151 0.0760141 0.0937222 0.0954694 0.0971022 0.0980995 0.104572
120 3 O 0.458537 22.7495 48.3911 -1.2 1 0.344657 0.0790228 0.0567656 0.0391555 0.0451633 0.0600316 0.0415801 0.0672068 0.0666137 0.0735327 0.0607153 0.0559317 0.0650359 0.0864828 0.0930405 0.0755213 0.0937894 0.102236 0.0810154 0.0852946
121 1 Mg 1.45733 21.3364 54.4722 1.2 1 0.0107065 0.0260895 0.0169136 0.0280513 0.0130974 0.0204463 0.0262024 0.0396073 0.039824 0.058653 0.0575387 0.0567094 0.0595324 0.068772 0.0705829 0.076161 0.0762853 0.0847819 0.0749841 0.0742286
122 2 Si 1.47859 23.9943 56.3794 2.4 1 0.0167379 0.0160962 0.0190543 0.0215829 0.031353 0.0348528 0.0401013 0.0390711 0.0512664 0.0518603 0.0508773 0.0650357 0.0708229 0.056842 0.0794717 0.0723833 0.0562739 0.0963172 0.0587483 0.0533174
123 3 O 1.42741 22.445 56.5067 -1.2 1 0.0185209 0.0208962 0.0185604 0.0263115 0.0245135 0.0277434 0.0250362 0.0720711 0.0407703 0.0480774 0.0429225 0.0704544 0.0555607 0.0644619 0.078385 0.0689258 0.0562981 0.0758415 0.0616903 0.0795935
124 3 O 1.54441 24.9963 52.7297 -1.2 1 0.0737608 0.0442928 0.025587 0.0212025 0.0270188 0.0420671 0.0492038 0.0555178 0.0503711 0.0473591 0.044356 0.0488824 0.0578282 0.065193 0.101111 0.0728738 0.0673839 0.0598131 0.0698092 0.0613311
125 3 O 0.207533 24.681 55.6765 -1.2 1 0.00593469 0.00618438 0.0293481 0.0183791 0.0150202 0.0210277 0.0424361 0.0440692 0.0322507 0.050176 0.055813 0.0414983 0.0524901 0.0562547 0.0888231 0.0787126 0.0710882 0.0630465 0.0593284 0.0684001
126 3 O 2.81233 24.6094 55.767 -1.2 1 0.0233326 0.0124232 0.0273519 0.0182356 0.0197452 0.0223331 0.0463197 0.0439396 0.0372009 0.0437334 0.0562654 0.0352191 0.0564522 0.0666948 0.0771105 0.0776614 0.0771531 0.0613909 0.0634308 0.0694512