ITEM: TIMESTEP
29700
ITEM: NUMBER OF ATOMS
10500
ITEM: BOX BOUNDS xy xz yz pp pp pp
0	8.9688	2.9896
0	118.725	0
0	252.977	0
ITEM: ATOMS id type element xu yu zu q Q_1 Q_2 Q_3 Q_4 Q_5 Q_6 Q_7 Q_8 Q_9 Q_10 Q_11 Q_12 Q_13 Q_14 Q_15 Q_16 Q_17 Q_18 Q_19 Q_20 Q_21
1 1 Mg -3.51127 7.09634 57.5418 1.2 1 0.00803564 0.0145852 0.00909506 0.0325394 0.0115424 0.0370431 0.0123494 0.0553372 0.0128272 0.0828141 0.0178884 0.0528202 0.0156472 0.0704562 0.0220197 0.101811 0.0309131 0.111292 0.0280209 0.0958573
2 1 Mg -1.82655 6.90154 50.0912 1.2 1 0.221702 0.0831406 0.0338775 0.0383772 0.0289199 0.0548486 0.0484313 0.0458507 0.0546989 0.0711565 0.0579654 0.069014 0.0682787 0.0638783 0.098986 0.0622308 0.0830375 0.0961729 0.0742898 0.0809345
3 2 Si -0.257935 3.96038 48.0876 2.4 1 0.367088 0.0792601 0.0797504 0.032253 0.0624132 0.0549035 0.074091 0.0774442 0.0596226 0.0810377 0.057244 0.065146 0.0602901 0.083367 0.0961405 0.100059 0.11076 0.0912861 0.0706059 0.0723693
4 3 O -0.335812 5.46814 47.6264 -1.2 1 0.427486 0.0378719 0.0635781 0.0322745 0.0407653 0.0483721 0.06524 0.0701927 0.0866489 0.0762044 0.0941092 0.0779177 0.0712805 0.0676049 0.0908745 0.12485 0.0942901 0.0809136 0.0776908 0.0785241
5 3 O -2.03793 3.43377 51.8941 -1.2 1 0.109139 0.060081 0.0305 0.0274987 0.0225205 0.0544785 0.0607513 0.0484661 0.0479115 0.0614652 0.0630116 0.053795 0.0499297 0.0798109 0.0886484 0.0829666 0.0626064 0.0609503 0.078828 0.0677088
6 3 O -1.54015 3.53929 48.9521 -1.2 1 0.296979 0.0974779 0.0376625 0.0503781 0.0321347 0.0479364 0.076699 0.052528 0.0535931 0.0633084 0.0758444 0.0673289 0.070724 0.0665613 0.0726757 0.113054 0.0865936 0.079423 0.0747064 0.0907681
7 1 Mg 1.82954 2.54582 47.1376 1.2 1 0.462885 0.0198882 0.0821827 0.0543723 0.0404102 0.0840576 0.0627042 0.0598084 0.0749305 0.0875819 0.0687692 0.0778521 0.0812975 0.0838787 0.0699384 0.0971353 0.100618 0.101709 0.103994 0.0976423
8 3 O 1.22989 3.66364 48.7877 -1.2 1 0.320914 0.0730065 0.0238463 0.0453852 0.0338497 0.0651458 0.0787353 0.0302695 0.0822473 0.0774526 0.0493162 0.0777298 0.0855455 0.0704215 0.0660331 0.0866072 0.0950034 0.0932982 0.093327 0.0912809
9 1 Mg 1.17291 2.51982 54.5865 1.2 1 0.0114778 0.0202492 0.022562 0.0393293 0.0267606 0.0388306 0.0186097 0.0352759 0.044937 0.0619848 0.0619158 0.0518238 0.0587245 0.0684122 0.0648875 0.0769661 0.0668883 0.0735464 0.0853618 0.0600863
10 2 Si 1.03528 5.12813 56.5601 2.4 1 0.0130818 0.00824029 0.025144 0.0415373 0.0287897 0.0263125 0.0415912 0.0427492 0.0481805 0.0525706 0.0477325 0.0717301 0.0659892 0.0559492 0.0785284 0.071913 0.0611174 0.102315 0.0578425 0.0621031
11 3 O 0.947666 3.56069 56.577 -1.2 1 0.0146368 0.0172781 0.0163779 0.0244349 0.0255794 0.0189183 0.024207 0.0611827 0.0363263 0.0511482 0.0324056 0.0682135 0.0602459 0.0573263 0.0770683 0.0665167 0.0592648 0.0694786 0.0606626 0.0765816
12 3 O 1.10813 6.07342 52.8172 -1.2 1 0.0815066 0.0433632 0.0327589 0.016225 0.0232355 0.0476254 0.0471947 0.0519666 0.0491288 0.0432968 0.0591774 0.051149 0.0720851 0.0651163 0.0850005 0.0898321 0.0620622 0.0706281 0.0714125 0.0676585
13 3 O -0.225431 5.77736 55.9526 -1.2 1 0.0232588 0.0115624 0.0254523 0.033165 0.0289591 0.0214977 0.0383738 0.0444876 0.0354925 0.0457906 0.0549158 0.0460913 0.0497897 0.0585971 0.0866465 0.0743993 0.0739801 0.058824 0.0644803 0.0670673
14 3 O 2.30447 5.77252 55.9569 -1.2 1 0.0178523 0.0144298 0.0301208 0.0212284 0.0279106 0.0182826 0.0388868 0.0424762 0.0435102 0.0362023 0.0533102 0.0423689 0.0502678 0.063803 0.0866891 0.0656757 0.0822746 0.0598902 0.0692769 0.0589521
15 1 Mg -0.459401 4.67631 52.2426 1.2 1 0.0912515 0.0630386 0.0389596 0.0352844 0.0330076 0.0304506 0.0412917 0.0617759 0.0445379 0.0816747 0.0403223 0.0614642 0.0479692 0.0783411 0.0462618 0.100769 0.0542406 0.0932457 0.0571069 0.0851363
16 1 Mg 2.79456 3.9971 49.9987 1.2 1 0.219001 0.0971086 0.0283785 0.0427359 0.0429789 0.0638386 0.0552271 0.0575896 0.0780231 0.0642071 0.0645518 0.0566407 0.0633013 0.0751428 0.0864894 0.0742572 0.0734391 0.0876109 0.0824316 0.0725308
17 2 Si 1.16169 6.59457 51.2556 2.4 1 0.140164 0.0846967 0.0397354 0.0326191 0.0395879 0.0534438 0.047294 0.045555 0.0624802 0.0619253 0.0644262 0.0742475 0.0726422 0.0684211 0.0832363 0.0869712 0.0799253 0.0915527 0.0789848 0.0619039
18 3 O 1.28989 8.18905 51.2909 -1.2 1 0.125497 0.0949202 0.0236446 0.0364396 0.0346142 0.0478299 0.046584 0.0797401 0.0503878 0.0738093 0.050624 0.0901606 0.0711684 0.069547 0.0819438 0.0720692 0.0680818 0.0664876 0.0740706 0.0737345
19 3 O 1.10716 5.74449 58.1101 -1.2 1 0.010182 0.019925 0.0262643 0.0161626 0.0245872 0.0368588 0.0289099 0.0425309 0.0488827 0.0472108 0.0359198 0.0502292 0.050126 0.0668705 0.102672 0.0614185 0.0628334 0.0600228 0.0715481 0.0695705
20 3 O -0.184847 6.06029 50.6845 -1.2 1 0.178366 0.084683 0.0272204 0.0293728 0.0403025 0.0277992 0.0541172 0.0589886 0.0589333 0.0628407 0.066697 0.0786303 0.0649322 0.0580607 0.0917832 0.0701537 0.0828473 0.0784567 0.0585832 0.0805492
21 1 Mg -3.49704 4.67769 52.6661 1.2 1 0.0641833 0.0541084 0.0297288 0.023496 0.0178259 0.042336 0.0318319 0.0641643 0.0491664 0.0686292 0.0485245 0.0498308 0.0531444 0.057771 0.0592133 0.0881698 0.0839954 0.0761584 0.074507 0.0680842
22 3 O 2.48581 5.93312 50.6539 -1.2 1 0.186097 0.0947431 0.0318627 0.0174744 0.0358185 0.0507286 0.0648826 0.0640895 0.0452493 0.0683899 0.0523399 0.0633469 0.0590848 0.0622355 0.102109 0.070828 0.0792306 0.0655795 0.0757451 0.0746623
23 1 Mg -1.95841 4.88553 55.2882 1.2 1 0.0241869 0.015368 0.0219095 0.0248167 0.0179075 0.0205476 0.0270996 0.0359155 0.0393991 0.0547557 0.0670786 0.0594503 0.0534585 0.0626784 0.0674614 0.071864 0.0839199 0.0840211 0.0698377 0.0717476
24 2 Si -1.87451 2.71028 53.4039 2.4 1 0.038763 0.0382647 0.0273227 0.0286466 0.0316526 0.0259494 0.04278 0.0453789 0.0713692 0.0586959 0.0575989 0.0657844 0.0759825 0.0488061 0.0699914 0.063576 0.0752008 0.0865956 0.0773511 0.061367
25 3 O -1.98731 1.11332 53.2861 -1.2 1 0.0540171 0.0294295 0.0265943 0.0262872 0.0197658 0.0375562 0.0284195 0.0679037 0.0574325 0.0645363 0.0453829 0.0665817 0.0544765 0.0685117 0.0735398 0.0708915 0.06001 0.0609843 0.075484 0.0716193
26 3 O -0.0467762 2.97103 46.8385 -1.2 1 0.497872 0.03703 0.0868812 0.0300739 0.081216 0.0683514 0.0804748 0.0709684 0.0726076 0.0803215 0.0827798 0.0762484 0.0972133 0.0888623 0.0886231 0.0879291 0.0983402 0.0962349 0.103716 0.109738
27 3 O -3.13192 3.35936 54.0799 -1.2 1 0.0243647 0.0245885 0.0287685 0.020023 0.0288128 0.0251856 0.0409944 0.0428752 0.0473933 0.051611 0.0616054 0.0462448 0.0609275 0.0630322 0.0809772 0.0680109 0.0686894 0.0682211 0.0706174 0.0515081
28 3 O -0.595069 3.34098 53.9564 -1.2 1 0.0357508 0.0294156 0.0345563 0.0191571 0.026907 0.0272924 0.0472264 0.0523279 0.0463384 0.0531527 0.0581745 0.0480335 0.0592798 0.0719015 0.0819246 0.0681883 0.0812477 0.0725141 0.06018 0.0652115
29 1 Mg -3.27859 11.8179 57.5912 1.2 1 0.00425751 0.0175809 0.0106766 0.0374924 0.0121767 0.0366357 0.0100996 0.0580466 0.0159362 0.0778247 0.0121258 0.0481607 0.021245 0.0674513 0.0218917 0.106163 0.0301489 0.111892 0.0295027 0.0918465
30 1 Mg -1.75014 11.5838 49.8362 1.2 1 0.231699 0.0785231 0.0269566 0.0431338 0.0301311 0.0554927 0.050908 0.0530551 0.0456645 0.0589136 0.0676517 0.0610429 0.0710008 0.0723747 0.108194 0.0907579 0.0614647 0.0914321 0.0842409 0.0782805
31 2 Si -1.18003 9.02138 47.9309 2.4 1 0.371324 0.0660436 0.0658368 0.0517065 0.0422861 0.0628716 0.0714774 0.074857 0.0708972 0.0666471 0.0582433 0.0663834 0.0667706 0.0803089 0.10031 0.0649021 0.101057 0.0911252 0.102507 0.0872394
32 3 O -1.23224 10.5991 47.9811 -1.2 1 0.370287 0.0733176 0.065716 0.0511664 0.0528067 0.0745607 0.0679504 0.0760821 0.0563613 0.0876042 0.0695203 0.0636565 0.0751253 0.0820001 0.0852119 0.0728139 0.0931579 0.0813981 0.0619206 0.0711504
33 3 O -1.79016 8.01447 51.8693 -1.2 1 0.11426 0.0564451 0.0365496 0.035525 0.0283039 0.0514173 0.0622683 0.0559947 0.0534968 0.0506842 0.0573076 0.0549294 0.0630841 0.0841832 0.086831 0.0758713 0.0717121 0.051018 0.0757902 0.0665172
34 3 O -2.30986 8.37215 48.8528 -1.2 1 0.312394 0.0862162 0.0655354 0.0242039 0.0527484 0.0618329 0.0681399 0.0669541 0.058035 0.0666308 0.0796054 0.0672152 0.058822 0.0658698 0.0766213 0.0901534 0.0992527 0.0814655 0.0748869 0.0902483
35 1 Mg 0.154883 7.08234 46.8007 1.2 1 0.492372 0.0321277 0.085499 0.0339292 0.0602437 0.0772856 0.0618971 0.0689086 0.0735349 0.0860053 0.0893611 0.0738807 0.0788599 0.0811386 0.0692645 0.0896566 0.0906846 0.109651 0.117371 0.103918
36 3 O 0.325447 8.50934 48.3809 -1.2 1 0.34543 0.0833917 0.0667428 0.0460366 0.0370126 0.0505973 0.0405116 0.0622252 0.0637989 0.0646502 0.0767281 0.0660228 0.0788194 0.0940768 0.0919889 0.0696835 0.0925942 0.100917 0.0841397 0.0880828
37 1 Mg 1.2143 7.20606 54.7444 1.2 1 0.0219343 0.022949 0.0139087 0.0318764 0.0174404 0.0212762 0.0277443 0.0344017 0.0475618 0.0614851 0.0659276 0.0578961 0.046504 0.0600362 0.0621972 0.0905815 0.0639726 0.0871031 0.0805473 0.0777426
38 2 Si 1.08226 9.81539 56.6062 2.4 1 0.0211782 0.0100328 0.0229163 0.0250067 0.0304858 0.0428395 0.0394123 0.0353781 0.054656 0.0518416 0.052397 0.060317 0.0675819 0.0592135 0.081646 0.0682449 0.0631594 0.0906044 0.0546698 0.0525038
39 3 O 1.05511 8.25303 56.7215 -1.2 1 0.0411759 0.00537187 0.0124471 0.0211845 0.0223018 0.0327885 0.0272067 0.06604 0.0402978 0.0515017 0.0455226 0.067431 0.0528717 0.0671845 0.0733964 0.0679892 0.0663912 0.0678366 0.0509085 0.0809581
40 3 O 1.28624 10.7248 52.7351 -1.2 1 0.0743626 0.0368109 0.0319201 0.0209091 0.030712 0.046224 0.0513797 0.0496974 0.0465132 0.0488987 0.0517331 0.0460637 0.0617895 0.0698993 0.0931538 0.0748077 0.0745059 0.0550482 0.0817818 0.0611163
41 3 O -0.18057 10.4079 55.9535 -1.2 1 0.0166394 0.0176337 0.0279114 0.0289328 0.0221414 0.0212214 0.0424794 0.0482337 0.0343419 0.044849 0.0558152 0.0419544 0.0507891 0.0608811 0.0844178 0.0752664 0.0762229 0.0583534 0.062766 0.0748484
42 3 O 2.293 10.5542 55.8189 -1.2 1 0.0252855 0.00724894 0.0261306 0.0205484 0.0252923 0.0259857 0.0476486 0.038001 0.0346949 0.038711 0.0534895 0.0385577 0.0565682 0.0487333 0.0876928 0.069381 0.0736795 0.075639 0.0634333 0.0579574
43 1 Mg -0.262694 9.34741 52.2523 1.2 1 0.109353 0.064187 0.025867 0.0407577 0.035352 0.0481684 0.0369898 0.0739234 0.0256476 0.0859531 0.0265516 0.061578 0.0331264 0.0745554 0.03932 0.104176 0.0435275 0.0971017 0.0518565 0.10474
44 1 Mg 1.87648 9.01537 49.4629 1.2 1 0.271387 0.0951454 0.0375554 0.0365441 0.0334063 0.0488317 0.0682018 0.0462334 0.0766847 0.0627583 0.0835973 0.0562133 0.0858533 0.0676099 0.0825114 0.0939096 0.0888708 0.0932766 0.08166 0.0895601
45 2 Si 1.21415 11.3799 51.2378 2.4 1 0.133248 0.0810089 0.0447568 0.0380386 0.0394348 0.0535617 0.0537457 0.0411862 0.0583046 0.0665607 0.0752702 0.0706008 0.0788892 0.0657447 0.0897474 0.0920314 0.0757617 0.0807641 0.073742 0.0545026
46 3 O 1.31634 12.9512 51.3023 -1.2 1 0.116959 0.0964275 0.0231968 0.0337418 0.0356085 0.0425077 0.0484358 0.076999 0.0613148 0.0694327 0.0452872 0.0842588 0.0713655 0.0713206 0.0773385 0.0674101 0.0751963 0.0681807 0.0704042 0.0703733
47 3 O 1.2372 10.5529 58.0504 -1.2 1 0.020181 0.0205393 0.0296373 0.0168109 0.0216958 0.0323843 0.0346911 0.0490949 0.0478206 0.0462597 0.0414005 0.0515769 0.0533897 0.0596984 0.106392 0.0639126 0.0612775 0.0612498 0.063869 0.0660413
48 3 O -0.115718 10.7564 50.681 -1.2 1 0.177943 0.090813 0.0180932 0.0322556 0.0434693 0.0292765 0.0548392 0.0688824 0.0523477 0.0594777 0.0616106 0.057817 0.070422 0.0735803 0.0970798 0.08488 0.0706082 0.0781199 0.0800772 0.0767502
49 1 Mg -3.26386 9.35564 52.3622 1.2 1 0.0837254 0.0475579 0.0310709 0.0325127 0.0152982 0.0544368 0.0333148 0.0609255 0.0317625 0.0859301 0.0294717 0.0477705 0.0317193 0.0715058 0.0357544 0.109722 0.0428845 0.105971 0.0506018 0.0868093
50 3 O 2.45216 10.7265 50.4558 -1.2 1 0.198657 0.0883348 0.0215878 0.0122104 0.03954 0.0550018 0.0602486 0.0506265 0.0558899 0.0696958 0.0678732 0.073765 0.0543204 0.0644522 0.0987371 0.0854316 0.0733443 0.0756426 0.0587107 0.0864638
51 1 Mg -1.90983 9.48464 55.1322 1.2 1 0.025547 0.0113736 0.0179971 0.0297056 0.0141416 0.0270674 0.0268134 0.0288079 0.0430937 0.0518394 0.0580585 0.0532914 0.0569659 0.0679232 0.0662775 0.0837095 0.0705892 0.092445 0.065173 0.0920571
52 2 Si -1.87225 7.31143 53.3901 2.4 1 0.0534838 0.0345685 0.0271361 0.0280562 0.0327063 0.031759 0.044184 0.0531806 0.0561401 0.0668977 0.0631055 0.0600052 0.0736508 0.0496479 0.0708921 0.0683364 0.0652651 0.0852173 0.0681706 0.065212
53 3 O -1.85729 5.81795 53.2597 -1.2 1 0.0499726 0.0439477 0.0217032 0.0184128 0.018202 0.032436 0.0389131 0.0633425 0.0538116 0.0644115 0.0392572 0.075369 0.0549498 0.0792564 0.0675178 0.0696115 0.0632131 0.0672956 0.0646308 0.0698369
54 3 O -1.19417 8.46968 46.4488 -1.2 1 0.524925 0.0662319 0.0670258 0.0509568 0.0665056 0.0572139 0.0792188 0.0549975 0.0760217 0.071599 0.0573478 0.0507062 0.0693197 0.0982501 0.130492 0.11343 0.0967646 0.0949679 0.0837173 0.0834282
55 3 O -3.11001 8.03727 54.0067 -1.2 1 0.0367469 0.0176414 0.029818 0.0260735 0.0288253 0.0252674 0.0491154 0.0456159 0.0462279 0.0478535 0.0528227 0.0477224 0.053214 0.0675 0.0835157 0.0708554 0.0737754 0.0537104 0.0669458 0.0721597
56 3 O -0.582616 7.93997 54.108 -1.2 1 0.0354165 0.0220843 0.0306176 0.0289873 0.0313157 0.0310287 0.0376433 0.048284 0.0348424 0.0550844 0.0590303 0.0467178 0.0601058 0.0690977 0.0747013 0.071952 0.0808091 0.0722579 0.070534 0.0644556
57 1 Mg -3.34267 16.5557 57.4296 1.2 1 0.00853118 0.0157748 0.0071797 0.033217 0.00859422 0.0359173 0.0128879 0.0591776 0.0159267 0.0801387 0.0170551 0.055942 0.0188749 0.0744585 0.0200404 0.109782 0.0269632 0.110736 0.0320983 0.0929272
58 1 Mg -1.6714 16.3544 49.8412 1.2 1 0.230448 0.0811091 0.0235428 0.04395 0.0298252 0.0521568 0.0542825 0.0530585 0.0485202 0.0604626 0.0614655 0.064382 0.074106 0.0756081 0.10758 0.0859804 0.0700056 0.0917496 0.0850326 0.0832131
59 2 Si -1.18567 13.8526 47.9314 2.4 1 0.370984 0.0719744 0.0788377 0.0633631 0.0300774 0.0667267 0.0510487 0.0844713 0.0621444 0.0655894 0.053916 0.071812 0.058512 0.0770336 0.0996106 0.0746637 0.104188 0.0996834 0.0896324 0.0886396
60 3 O -1.09664 15.4205 47.9915 -1.2 1 0.362171 0.0755919 0.0520899 0.0608333 0.0470199 0.0934342 0.0624796 0.0821271 0.0519932 0.0869658 0.0519795 0.0713729 0.0611847 0.0845936 0.0832553 0.0739846 0.0962017 0.0770196 0.0716014 0.0697885
61 3 O -1.73493 12.7491 51.7772 -1.2 1 0.11794 0.0519879 0.0340056 0.0340361 0.0310013 0.0530622 0.0630559 0.0472851 0.06518 0.0535986 0.0572895 0.0507971 0.0563929 0.0847243 0.104725 0.075264 0.0809564 0.050956 0.0751071 0.0652666
62 3 O -2.36115 13.2717 48.8238 -1.2 1 0.302668 0.0961253 0.0597397 0.0270283 0.0572474 0.0530183 0.0606219 0.0699107 0.058253 0.0639778 0.0738364 0.0646686 0.061237 0.0575801 0.085462 0.0906951 0.0893605 0.075734 0.0792623 0.0908066
63 1 Mg -0.159928 11.7639 46.8533 1.2 1 0.479564 0.0266926 0.0784971 0.0371289 0.0536402 0.0949449 0.070377 0.0879708 0.0827186 0.0878984 0.0870652 0.0700502 0.0738627 0.0926149 0.0773624 0.0871385 0.0978313 0.0963195 0.0965106 0.105421
64 3 O 0.2623 13.1866 48.413 -1.2 1 0.342819 0.079538 0.0563551 0.0391955 0.0462154 0.0589226 0.0401041 0.0677805 0.0693101 0.0705073 0.0625847 0.0602782 0.0644043 0.0878928 0.0976502 0.0836491 0.0981347 0.0996455 0.080408 0.085635
65 1 Mg 1.35198 11.8169 54.5064 1.2 1 0.0113478 0.0245063 0.0118452 0.030074 0.0161864 0.0202093 0.023052 0.0334365 0.0442134 0.0609779 0.0562207 0.0569051 0.0634702 0.0618263 0.074537 0.0739528 0.0775739 0.0806626 0.0693152 0.0712269
66 2 Si 1.06289 14.5189 56.5498 2.4 1 0.0125912 0.0140339 0.017122 0.0315112 0.0341884 0.0347035 0.0399026 0.0388928 0.0510815 0.0560011 0.0545074 0.0617103 0.0654055 0.0570502 0.0825601 0.0769159 0.0654705 0.0883395 0.0643123 0.0543046
67 3 O 1.11583 13.0033 56.7725 -1.2 1 0.0356464 0.0131165 0.0169442 0.0213502 0.0145489 0.0247083 0.0254065 0.060029 0.0440756 0.042418 0.0455147 0.0669884 0.0505141 0.0636251 0.0818714 0.0711684 0.0659193 0.0786249 0.0522999 0.0778957
68 3 O 1.36565 15.4813 52.729 -1.2 1 0.0658987 0.0375757 0.0358552 0.0213178 0.0269409 0.0414006 0.0535025 0.0555063 0.0502096 0.0484974 0.0500436 0.0479647 0.0510429 0.0722192 0.102869 0.0744966 0.0759376 0.054098 0.0712289 0.0572119
69 3 O -0.23327 15.2466 55.9215 -1.2 1 0.0125995 0.017629 0.0279149 0.0171709 0.0207348 0.0241832 0.042268 0.0447781 0.042866 0.0400735 0.0582426 0.0435624 0.0515923 0.0547881 0.0937779 0.0744106 0.0745592 0.0627599 0.0630424 0.0814453
70 3 O 2.30435 15.059 55.8227 -1.2 1 0.024754 0.0128276 0.0291237 0.0171717 0.0286727 0.0196376 0.0403705 0.0445711 0.0384124 0.0431292 0.0521548 0.0420069 0.0517989 0.0684264 0.0775127 0.0716358 0.0779376 0.0600854 0.0640779 0.0691756
71 1 Mg -0.206989 14.1049 52.2121 1.2 1 0.106245 0.0600411 0.0285622 0.0409908 0.0283577 0.0429283 0.0331948 0.0745966 0.0274312 0.0877694 0.0255525 0.0568705 0.0293555 0.0765814 0.0278925 0.106601 0.0351573 0.108409 0.0425554 0.0987776
72 1 Mg 1.82591 13.8102 49.4556 1.2 1 0.255373 0.112048 0.0349287 0.0388941 0.0356376 0.0353861 0.0719071 0.0460604 0.0738583 0.0725094 0.0771423 0.0598809 0.0743659 0.0727379 0.0875969 0.0940629 0.0785019 0.0960591 0.0876475 0.0883009
73 2 Si 1.29285 16.1518 51.2434 2.4 1 0.130255 0.0834864 0.0402791 0.0349239 0.0384683 0.0485141 0.0532884 0.0476035 0.0558619 0.0660923 0.0687198 0.072409 0.0770677 0.0651623 0.0926119 0.088564 0.0738198 0.0885937 0.0706614 0.0589607
74 3 O 1.39496 17.7199 51.3047 -1.2 1 0.135253 0.0790821 0.0299896 0.0364362 0.0344953 0.0445653 0.041827 0.0702809 0.0562725 0.066274 0.0403577 0.0810138 0.0670961 0.0679392 0.0745576 0.0712266 0.076623 0.0751152 0.0711408 0.071525
75 3 O 1.07878 15.4207 58.0251 -1.2 1 0.0138956 0.0113706 0.032369 0.0135886 0.0207259 0.0369656 0.0335779 0.0418586 0.0379864 0.0470014 0.0371538 0.0585071 0.048275 0.0626801 0.0964702 0.0690357 0.0782357 0.0627082 0.0668676 0.0599116
76 3 O -0.0269106 15.5178 50.6688 -1.2 1 0.176913 0.0850731 0.0273929 0.0301224 0.0455479 0.0434307 0.0504226 0.068947 0.0574054 0.0588794 0.05931 0.0521369 0.0665045 0.0771667 0.0981164 0.0824327 0.0787636 0.0831846 0.0700156 0.086816
77 1 Mg -3.18391 14.1057 52.3125 1.2 1 0.0776555 0.0519388 0.0335255 0.0337393 0.0185721 0.05321 0.0316494 0.066374 0.0323081 0.0795057 0.0296802 0.0482245 0.0237647 0.0788013 0.0291015 0.112913 0.0372658 0.102542 0.0408628 0.0866663
78 3 O 2.52432 15.503 50.4579 -1.2 1 0.19259 0.0951353 0.0215803 0.014184 0.0361133 0.0593806 0.0601155 0.0472155 0.0576565 0.0666059 0.0672633 0.0651715 0.0566273 0.0676635 0.101759 0.0769675 0.0771506 0.0744092 0.0626904 0.0830332
79 1 Mg -1.83557 14.0971 55.3333 1.2 1 0.0136444 0.00738681 0.0179717 0.0254127 0.0170024 0.0219672 0.0252539 0.0364326 0.0440509 0.0536284 0.053316 0.0616458 0.0620661 0.0602832 0.0691044 0.0588632 0.0813279 0.0975555 0.0633299 0.0823651
80 2 Si -1.64218 12.1658 53.3431 2.4 1 0.0545364 0.0307737 0.0239662 0.0284246 0.030403 0.0351711 0.0401923 0.0618607 0.0623976 0.058119 0.05037 0.0690154 0.0804271 0.0524522 0.0652092 0.0659098 0.0637868 0.0828673 0.0628576 0.0581547
81 3 O -1.65346 10.5918 53.3782 -1.2 1 0.0584325 0.0357633 0.0340545 0.020923 0.0337034 0.033593 0.0276417 0.069538 0.0446203 0.0641864 0.042187 0.0706049 0.0625276 0.0710419 0.0704958 0.0608243 0.059955 0.0554115 0.0623348 0.0638228
82 3 O -1.21337 13.3381 46.4311 -1.2 1 0.520276 0.0679294 0.0688983 0.041058 0.0567777 0.0567643 0.0563497 0.0705287 0.0806228 0.0665255 0.0460778 0.0709793 0.0680413 0.0880208 0.120389 0.113968 0.106637 0.100448 0.059423 0.0908807
83 3 O -2.92613 12.8213 53.9881 -1.2 1 0.0389348 0.0107668 0.0373693 0.0156603 0.0257529 0.0306342 0.053277 0.0418023 0.0411702 0.0523803 0.0511969 0.0392999 0.0550534 0.0639161 0.0842705 0.0700504 0.0704606 0.0605365 0.0637689 0.0684127
84 3 O -0.333839 12.7739 53.9647 -1.2 1 0.0479007 0.021704 0.0284076 0.0202011 0.0227276 0.0238389 0.0416813 0.0517698 0.0497009 0.0576413 0.0550921 0.0452575 0.0587431 0.0589575 0.0909551 0.0635829 0.0767746 0.060449 0.0569232 0.077075
85 1 Mg -3.19754 21.3233 57.3973 1.2 1 0.00846408 0.018177 0.00884413 0.0331941 0.00759097 0.0356866 0.0109949 0.058927 0.00727761 0.0784273 0.0114464 0.0527656 0.014146 0.0743464 0.0164888 0.105828 0.020801 0.118983 0.0183488 0.0911874
86 1 Mg -1.5831 21.1217 49.8405 1.2 1 0.234027 0.077543 0.0249258 0.0380496 0.0341999 0.0471435 0.0524299 0.0550029 0.0504164 0.0579295 0.0622518 0.0668549 0.0710644 0.0702528 0.102185 0.084654 0.071127 0.0931369 0.0851737 0.0841979
87 2 Si -1.09384 18.6291 47.9287 2.4 1 0.371105 0.0705723 0.0727445 0.0647111 0.0313322 0.0701626 0.0473734 0.0801472 0.0669883 0.0689675 0.0519209 0.0727549 0.0607777 0.0777441 0.100854 0.0745859 0.105418 0.0947784 0.0895002 0.0895397
88 3 O -1.02071 20.1985 47.9911 -1.2 1 0.365963 0.0694108 0.0483159 0.0628027 0.0456638 0.0922407 0.063269 0.082217 0.0563529 0.0881798 0.0549739 0.0736484 0.0617437 0.0821395 0.0818113 0.074854 0.0962697 0.0794209 0.0733629 0.0678855
89 3 O -1.65002 17.5002 51.771 -1.2 1 0.111569 0.0548479 0.036035 0.0309726 0.032251 0.0539874 0.0609706 0.0505128 0.0640264 0.0533477 0.0583273 0.048989 0.05379 0.0871774 0.102319 0.0751206 0.0784508 0.0481391 0.0740977 0.0700442
90 3 O -2.26174 18.0434 48.8281 -1.2 1 0.297709 0.1005 0.0607407 0.0279993 0.0619327 0.0512758 0.0577393 0.0746897 0.0615661 0.0663642 0.0707241 0.0606301 0.0562831 0.0605271 0.0797996 0.0879257 0.0858838 0.0785928 0.0831382 0.0896421
91 1 Mg -0.0440435 16.5651 46.8269 1.2 1 0.481306 0.0221784 0.0808489 0.0333217 0.0668015 0.086912 0.0785815 0.0855672 0.0694387 0.0838325 0.0846077 0.0621126 0.0637497 0.0775179 0.0758085 0.0936667 0.0939388 0.0954273 0.0976257 0.10454
92 3 O 0.37001 17.9877 48.3925 -1.2 1 0.3371 0.0901346 0.0640364 0.0442359 0.045265 0.0608094 0.0442427 0.071356 0.0682078 0.0723923 0.0625235 0.059651 0.0661077 0.0885615 0.0953501 0.0770866 0.0949509 0.101962 0.0806187 0.0868108
93 1 Mg 1.2897 16.7256 54.6074 1.2 1 0.00628005 0.025497 0.0218618 0.0320569 0.0151517 0.0227548 0.0219512 0.0359306 0.0447915 0.0576405 0.0675597 0.0555602 0.0543401 0.0654634 0.0614449 0.0905445 0.0731154 0.0799553 0.080375 0.072653
94 2 Si 1.16048 19.2951 56.3738 2.4 1 0.00397958 0.0153945 0.0267525 0.0330542 0.0344427 0.0301378 0.0377312 0.0420382 0.0537865 0.0494192 0.0519911 0.059693 0.0690716 0.0553053 0.0772478 0.0784014 0.0620552 0.0916219 0.061169 0.0497758
95 3 O 1.22368 17.7765 56.4464 -1.2 1 0.0119738 0.0215336 0.010806 0.0194874 0.0269965 0.0289571 0.0237815 0.0681272 0.0350999 0.0588324 0.0399458 0.0717413 0.0679857 0.0662804 0.0755668 0.0649372 0.059928 0.0672676 0.0697026 0.0649828
96 3 O 1.45147 20.239 52.7294 -1.2 1 0.072534 0.0350991 0.0302298 0.0224555 0.0223285 0.0436639 0.0533248 0.0532258 0.0505072 0.0466906 0.0483083 0.052479 0.0565448 0.0638406 0.101074 0.070532 0.0763176 0.0592966 0.0719009 0.0600839
97 3 O -0.0659662 19.9669 55.7863 -1.2 1 0.0134836 0.0155972 0.0289291 0.0169006 0.0173351 0.0217263 0.0366423 0.0480841 0.0357225 0.0439782 0.0539573 0.0403406 0.0579246 0.0553192 0.0923956 0.0703861 0.074996 0.060945 0.0610299 0.0729712
98 3 O 2.41538 19.9722 55.7035 -1.2 1 0.0202539 0.016269 0.0237251 0.0193806 0.0256882 0.0203052 0.0465617 0.0461443 0.0392572 0.0420524 0.0487929 0.0358338 0.0551536 0.063405 0.0839278 0.0772102 0.0766883 0.0734568 0.0626704 0.063747
99 1 Mg -0.126194 18.8651 52.2079 1.2 1 0.10349 0.0627235 0.0275656 0.0428321 0.0282953 0.043577 0.0336121 0.0735349 0.0268454 0.0879907 0.0252769 0.0564887 0.0249928 0.0772597 0.0279829 0.111091 0.0372939 0.106728 0.0384735 0.105271
100 1 Mg 1.92402 18.5815 49.4545 1.2 1 0.262753 0.106803 0.0374684 0.0420434 0.0330966 0.0351671 0.0695709 0.0458821 0.0705691 0.0736485 0.0793435 0.054615 0.0713276 0.0696962 0.0849921 0.0909512 0.0774771 0.0991076 0.0858132 0.0883491
101 2 Si 1.38106 20.9117 51.2443 2.4 1 0.135035 0.081311 0.0375934 0.0334825 0.0382918 0.0519063 0.0540842 0.0428479 0.0564402 0.0659685 0.0668909 0.0700501 0.0719189 0.0640314 0.0926147 0.0863686 0.0732918 0.0902927 0.0724141 0.059531
102 3 O 1.48527 22.4795 51.3054 -1.2 1 0.136574 0.0728975 0.0358538 0.0391377 0.0329602 0.0446906 0.04 0.066988 0.0597821 0.066727 0.040637 0.079914 0.0682362 0.0656203 0.072481 0.06911 0.0775536 0.0735284 0.0666642 0.0737186
103 3 O 1.29735 19.9465 57.8446 -1.2 1 0.00811488 0.0222739 0.0283646 0.0154677 0.0133245 0.0305364 0.0318641 0.0488607 0.0597692 0.0437041 0.0400889 0.0435691 0.0536609 0.0616937 0.104431 0.07364 0.0652007 0.054145 0.0729021 0.0625815
104 3 O 0.0615419 20.2804 50.6669 -1.2 1 0.18652 0.081298 0.0242168 0.0194892 0.0474155 0.0400644 0.0559076 0.0636641 0.0549472 0.0577374 0.0601328 0.049902 0.0644103 0.0763218 0.0917241 0.0769273 0.075906 0.0829785 0.0703046 0.0850277
105 1 Mg -3.09665 18.8643 52.3122 1.2 1 0.0777363 0.053292 0.0321194 0.0315054 0.0174386 0.055383 0.0312686 0.0646962 0.0294628 0.0777152 0.034584 0.0509907 0.0228416 0.0753266 0.0333354 0.112518 0.0402992 0.106452 0.033659 0.0847932
106 3 O 2.61548 20.2646 50.4626 -1.2 1 0.201065 0.0853294 0.0326909 0.021964 0.0361172 0.0570994 0.0563517 0.0449761 0.0557776 0.0672974 0.0675667 0.0648851 0.0531027 0.0634403 0.0965777 0.0770653 0.0737944 0.0697127 0.0622962 0.0872304
107 1 Mg -1.83508 19.0408 55.1922 1.2 1 0.0284489 0.0130285 0.0195901 0.0279283 0.0175456 0.0242795 0.0259114 0.0393703 0.0362268 0.0538199 0.0588335 0.0620687 0.0539781 0.0618367 0.0675263 0.0703708 0.0822113 0.089052 0.0720885 0.0761921
108 2 Si -1.66598 16.8233 53.2738 2.4 1 0.0505694 0.0358827 0.0256519 0.0304827 0.032724 0.0357289 0.0447063 0.0547958 0.0597989 0.0638066 0.0583123 0.0711898 0.079203 0.0482056 0.0715777 0.0634791 0.0690147 0.084745 0.065018 0.0583954
109 3 O -1.60863 15.2858 53.353 -1.2 1 0.0554014 0.0288739 0.0226547 0.0237487 0.0256033 0.0347211 0.0207389 0.0732489 0.0423284 0.0689388 0.0386699 0.068744 0.059095 0.0710998 0.0662835 0.0596566 0.062379 0.0586827 0.0710677 0.0667062
110 3 O -1.12868 18.1227 46.4249 -1.2 1 0.522103 0.0665927 0.072351 0.0522317 0.0579038 0.0647088 0.0606967 0.0795105 0.0801097 0.0625709 0.0450353 0.067695 0.067425 0.0877067 0.116809 0.115288 0.107378 0.100552 0.0617657 0.0920895
111 3 O -2.90077 17.4943 53.9089 -1.2 1 0.0254892 0.0250035 0.0293325 0.0261413 0.0313585 0.0230608 0.0541432 0.0404757 0.0470153 0.0486664 0.0500194 0.0428395 0.0580231 0.0718932 0.0759353 0.0723346 0.0697826 0.0618658 0.0722189 0.0700427
112 3 O -0.345294 17.56 53.9234 -1.2 1 0.0601047 0.0264859 0.020668 0.0220633 0.0260483 0.0188773 0.0358385 0.0456836 0.0442729 0.054671 0.0571 0.0444026 0.0571002 0.0564945 0.0904613 0.0615128 0.0807687 0.0696933 0.063463 0.0728051
113 1 Mg -3.23437 26.1627 57.3914 1.2 1 0.00663065 0.0133787 0.00867388 0.0315636 0.0124972 0.0335197 0.0146371 0.0558589 0.0129788 0.0858798 0.0173228 0.0527213 0.0219869 0.0665964 0.027103 0.0961059 0.0329687 0.109811 0.0339647 0.0892329
114 1 Mg -1.48778 25.88 49.8402 1.2 1 0.229935 0.0810496 0.0225123 0.0411119 0.0333516 0.0479352 0.054428 0.0555378 0.0505881 0.0608394 0.0616245 0.0652349 0.072929 0.0729203 0.102556 0.0837491 0.0720005 0.0938319 0.0829518 0.0827739
115 2 Si -1.00491 23.3922 47.9274 2.4 1 0.367757 0.0726554 0.0709622 0.0698039 0.0336841 0.0762918 0.0433305 0.0844097 0.0709644 0.0728125 0.0492296 0.0754625 0.0595977 0.0761028 0.0950202 0.0776658 0.104199 0.0968634 0.0891346 0.0933117
116 3 O -0.927602 24.9615 47.9909 -1.2 1 0.365754 0.0694408 0.048282 0.0625771 0.0447755 0.0915217 0.0635242 0.0822767 0.055833 0.08798 0.0538475 0.0713427 0.061422 0.083321 0.0824819 0.0744081 0.0942243 0.0757719 0.0741229 0.0709176
117 3 O -1.55795 22.2588 51.7696 -1.2 1 0.112608 0.0571671 0.034731 0.0266979 0.0339685 0.0541058 0.0580878 0.04924 0.0663486 0.0516063 0.0563012 0.0524202 0.0498632 0.0827116 0.102878 0.0746775 0.0790963 0.0453979 0.0737287 0.0715394
118 3 O -2.17411 22.8111 48.8277 -1.2 1 0.29742 0.10061 0.0602616 0.0280211 0.0609705 0.0511228 0.0586553 0.0735731 0.060449 0.066148 0.0713632 0.0612944 0.0576612 0.0593378 0.0794984 0.0892166 0.0890604 0.0790355 0.0825134 0.0895439
119 1 Mg 0.0423997 21.3296 46.8225 1.2 1 0.481602 0.0226169 0.0808231 0.0329613 0.0661692 0.0873387 0.0782165 0.08537 0.0689989 0.0833536 0.0850062 0.062342 0.0630054 0.0773511 0.0761097 0.0939158 0.095809 0.0972397 0.0973279 0.103687
120 3 O 0.458537 22.7495 48.3911 -1.2 1 0.341526 0.0826882 0.0577343 0.0416029 0.0438704 0.0603802 0.0423887 0.0677403 0.0674165 0.072656 0.0597222 0.055882 0.0645735 0.087546 0.0951661 0.0768139 0.0937023 0.100535 0.0810733 0.0882943
121 1 Mg 1.47596 21.3999 54.5427 1.2 1 0.0034761 0.0259152 0.017692 0.0331479 0.013455 0.0241374 0.0268864 0.0393076 0.047547 0.0611131 0.0577254 0.0532892 0.0658862 0.063726 0.0668984 0.0800505 0.0721166 0.0856055 0.0751376 0.0771818
122 2 Si 1.16366 23.9975 56.42 2.4 1 0.0111614 0.0200291 0.0247493 0.0242996 0.0320631 0.0298981 0.0394397 0.0388618 0.0482602 0.0546888 0.0594995 0.0570152 0.0734327 0.058375 0.0827382 0.0723097 0.067971 0.0871529 0.0653347 0.0492904
123 3 O 1.26416 22.4633 56.5291 -1.2 1 0.0283992 0.0102205 0.0120918 0.0203334 0.0216333 0.030519 0.0239337 0.061627 0.0359627 0.0494822 0.0448928 0.0653968 0.0502427 0.0666495 0.0706109 0.0672195 0.0649944 0.0729249 0.0592119 0.0774907
124 3 O 1.54441 24.9963 52.7297 -1.2 1 0.0700381 0.0422621 0.0309581 0.0230129 0.0237545 0.0455474 0.0502238 0.0510132 0.0476288 0.0481849 0.0501255 0.0523088 0.0556084 0.0697958 0.104003 0.0726119 0.0747334 0.059652 0.07317 0.0638987
125 3 O -0.134291 24.6406 55.8295 -1.2 1 0.0103676 0.0170533 0.0274865 0.0179603 0.0177696 0.0256409 0.0387072 0.0470566 0.0453172 0.0466795 0.0549651 0.0401607 0.0595438 0.0641015 0.0835563 0.0764806 0.0738374 0.0598011 0.0645196 0.0787634
126 3 O 2.44834 24.6039 55.6162 -1.2 1 0.0232167 0.0230961 0.0235267 0.0190592 0.0314686 0.0208818 0.0413082 0.0423615 0.0413232 0.0457049 0.0556302 0.040248 0.054636 0.0658257 0.0823122 0.0818946 0.0734754 0.0727285 0.0577757 0.0666926