ITEM: TIMESTEP
18000
ITEM: NUMBER OF ATOMS
10500
ITEM: BOX BOUNDS xy xz yz pp pp pp
0	8.9688	2.9896
0	118.725	0
0	252.977	0
ITEM: ATOMS id type element xu yu zu q Q_1 Q_2 Q_3 Q_4 Q_5 Q_6 Q_7 Q_8 Q_9 Q_10 Q_11 Q_12 Q_13 Q_14 Q_15 Q_16 Q_17 Q_18 Q_19 Q_20 Q_21
1 1 Mg -3.55087 7.02453 57.551 1.2 1 0.00937134 0.0199028 0.00462736 0.0387624 0.0066376 0.0389893 0.00735624 0.0551821 0.010734 0.0789523 0.0067079 0.0499712 0.0159973 0.0684679 0.0180871 0.104231 0.0216688 0.115119 0.0266579 0.100181
2 1 Mg -1.82655 6.90154 50.0912 1.2 1 0.220615 0.0856771 0.0339663 0.032546 0.0290748 0.0554424 0.046571 0.0450956 0.0556629 0.0677658 0.0569257 0.0743532 0.0671826 0.0613499 0.0973202 0.0612898 0.0840945 0.0979157 0.0756069 0.0797534
3 2 Si -0.257935 3.96038 48.0876 2.4 1 0.369857 0.0755992 0.0776308 0.0287293 0.062611 0.0537007 0.0723286 0.0760846 0.0616306 0.0808872 0.0573995 0.069363 0.0622248 0.0837246 0.0967392 0.101907 0.109794 0.0902246 0.0729712 0.0723391
4 3 O -0.335812 5.46814 47.6264 -1.2 1 0.427163 0.0382941 0.0644108 0.0313591 0.0407444 0.0485236 0.0653715 0.0702792 0.0871028 0.0763633 0.0924276 0.0754096 0.0709266 0.0688669 0.0914499 0.125382 0.0951792 0.0799231 0.0755731 0.0775721
5 3 O -2.03793 3.43377 51.8941 -1.2 1 0.115441 0.0582932 0.0286855 0.0228383 0.0197996 0.0523486 0.0595913 0.0505892 0.0480135 0.0573104 0.0611517 0.0536021 0.0513511 0.0762103 0.0895443 0.0813844 0.0665296 0.0547126 0.0798387 0.0676284
6 3 O -1.54015 3.53929 48.9521 -1.2 1 0.295264 0.0969753 0.0361911 0.0496825 0.0371392 0.0472698 0.0717981 0.0535502 0.052018 0.0612459 0.0795941 0.0678083 0.0709005 0.0668948 0.0726671 0.113088 0.083708 0.0739783 0.0718015 0.0881358
7 1 Mg 1.82954 2.54582 47.1376 1.2 1 0.466044 0.0215748 0.0804326 0.0504828 0.0356007 0.0827443 0.0595649 0.0583336 0.076461 0.0890933 0.0687622 0.0770128 0.0823225 0.0851058 0.0706029 0.0970649 0.101514 0.103631 0.104638 0.0973948
8 3 O 1.22989 3.66364 48.7877 -1.2 1 0.324568 0.0680859 0.0222438 0.0424729 0.0322522 0.0648225 0.0776609 0.0336084 0.0849371 0.0794909 0.0506409 0.0778823 0.0829892 0.0681485 0.0672682 0.0896141 0.0939487 0.0893545 0.095866 0.0901782
9 1 Mg 0.954483 2.38134 54.5895 1.2 1 0.0159011 0.0215394 0.0172737 0.0360902 0.0213714 0.0345566 0.0186142 0.0313337 0.0393791 0.0620382 0.0571543 0.0542481 0.0605872 0.0660037 0.0652668 0.0823288 0.0697089 0.0883246 0.0752308 0.0726606
10 2 Si 0.915199 5.00187 56.5905 2.4 1 0.00954921 0.0254653 0.0180348 0.0370623 0.0273601 0.0307563 0.0404904 0.0425088 0.0496427 0.0585657 0.0562819 0.0650313 0.066935 0.0581326 0.0855829 0.0704519 0.0609184 0.0977766 0.0574014 0.0627853
11 3 O 0.861591 3.47339 56.6839 -1.2 1 0.0285326 0.0163103 0.0164047 0.0225192 0.0166523 0.0225046 0.0234617 0.0595316 0.0371674 0.0470434 0.0428903 0.0674232 0.0541649 0.0595411 0.0771384 0.0718936 0.0623962 0.071798 0.0570852 0.0840452
12 3 O 1.10813 6.07342 52.8172 -1.2 1 0.0801164 0.0353491 0.0361959 0.023304 0.0228725 0.0472566 0.0461003 0.0547447 0.0514855 0.0413376 0.0584247 0.0511777 0.0691164 0.0673925 0.0863521 0.0893033 0.0624938 0.0667373 0.0712381 0.0683189
13 3 O -0.300998 5.69299 55.9362 -1.2 1 0.0137054 0.0144029 0.0226805 0.0277033 0.0254197 0.0200552 0.0389452 0.0480395 0.0431207 0.0452677 0.0526847 0.0456056 0.0492489 0.0623671 0.0850707 0.0718686 0.076896 0.0601161 0.0666967 0.0717246
14 3 O 2.30187 5.65702 55.9196 -1.2 1 0.0228974 0.0180247 0.0316248 0.0169281 0.0273574 0.0238733 0.0433308 0.044635 0.0432975 0.040376 0.0556691 0.0410555 0.0483181 0.0649033 0.0766935 0.072646 0.0799756 0.0578534 0.0746207 0.063764
15 1 Mg -0.459401 4.67631 52.2426 1.2 1 0.0929053 0.0641125 0.0353245 0.0373475 0.0313254 0.0313216 0.0402972 0.0616335 0.0418232 0.0819173 0.0445359 0.0617506 0.0461876 0.0759961 0.0445397 0.0988283 0.0522338 0.0927179 0.0602885 0.0893423
16 1 Mg 2.79456 3.9971 49.9987 1.2 1 0.221686 0.097301 0.0312305 0.0420365 0.0438753 0.0645257 0.0539064 0.0542319 0.0766508 0.0614868 0.0627096 0.0577108 0.0625735 0.0736105 0.08628 0.075839 0.0723588 0.0892689 0.0831535 0.0715384
17 2 Si 1.16169 6.59457 51.2556 2.4 1 0.145041 0.07863 0.042248 0.0368842 0.0398815 0.0514649 0.0444209 0.0442294 0.0625446 0.065843 0.0627972 0.0732267 0.0727639 0.0680473 0.0850791 0.0879036 0.0774222 0.0892615 0.0786792 0.0638239
18 3 O 1.28989 8.18905 51.2909 -1.2 1 0.140828 0.0868697 0.0256919 0.0413619 0.034739 0.049188 0.0391204 0.0736712 0.0524932 0.069213 0.0496577 0.0900796 0.0674374 0.064597 0.0795166 0.0705988 0.0715772 0.068918 0.0701538 0.076525
19 3 O 1.00771 5.7397 58.0677 -1.2 1 0.00772838 0.018428 0.0215638 0.0148098 0.0221437 0.036436 0.0348231 0.0477631 0.0482871 0.0475117 0.0378079 0.0525757 0.0480353 0.062143 0.105473 0.0614261 0.0696674 0.0614329 0.064801 0.066979
20 3 O -0.184847 6.06029 50.6845 -1.2 1 0.183131 0.0819267 0.0251757 0.0319031 0.0373832 0.0277705 0.0495817 0.0601197 0.0591082 0.0589309 0.0676531 0.0781299 0.0644094 0.0575041 0.0921965 0.0677706 0.0802795 0.078199 0.0595106 0.0784071
21 1 Mg -3.49704 4.67769 52.6661 1.2 1 0.0631789 0.0543788 0.0291258 0.0254038 0.0144961 0.042122 0.0352586 0.0619471 0.0494334 0.0692915 0.0483865 0.0477921 0.0505311 0.0535354 0.0563136 0.0888925 0.0846431 0.0732067 0.0761235 0.0722509
22 3 O 2.48581 5.93312 50.6539 -1.2 1 0.190106 0.090108 0.0348777 0.0222994 0.0331592 0.0509505 0.0608604 0.0606961 0.0461209 0.0689579 0.0500389 0.0659373 0.0581699 0.0607216 0.103114 0.0707431 0.077778 0.0674303 0.075474 0.0755734
23 1 Mg -1.99928 4.80556 55.2078 1.2 1 0.0256078 0.0172506 0.0219381 0.0257492 0.0153492 0.0242708 0.0252537 0.0360627 0.0389993 0.0553512 0.061664 0.055015 0.0572631 0.0641455 0.0663972 0.0778974 0.0788078 0.0921952 0.0668971 0.0821183
24 2 Si -1.96731 2.66475 53.337 2.4 1 0.0458082 0.0307166 0.0263375 0.0225574 0.0262245 0.0249842 0.0453547 0.0458949 0.0608961 0.0684893 0.0607769 0.0666026 0.0727312 0.0515725 0.0695448 0.0588871 0.0723949 0.0881104 0.0781233 0.0625051
25 3 O -1.9324 1.1467 53.2281 -1.2 1 0.0586306 0.0338917 0.0260566 0.0250483 0.0229488 0.0376286 0.0303543 0.0622047 0.0595078 0.0605204 0.0489969 0.0673876 0.0598064 0.0683321 0.0770763 0.0750105 0.0567674 0.0683664 0.0705795 0.0681624
26 3 O -0.0467762 2.97103 46.8385 -1.2 1 0.497823 0.0371892 0.0872828 0.0299327 0.080595 0.0677082 0.0805487 0.0715268 0.0725948 0.0794537 0.0818493 0.0757331 0.0969275 0.0884104 0.0885455 0.0887771 0.0995204 0.0973503 0.104625 0.109878
27 3 O -3.2248 3.33015 54.0839 -1.2 1 0.027379 0.0228479 0.0303275 0.021653 0.0223369 0.0250273 0.0381508 0.0442789 0.0490192 0.0504855 0.0633627 0.0428833 0.0627496 0.0623875 0.0784033 0.0674322 0.067465 0.0668994 0.070503 0.0595297
28 3 O -0.658703 3.38532 54.0057 -1.2 1 0.0381551 0.0249462 0.035732 0.0151062 0.0199661 0.0265398 0.0461727 0.0478301 0.0417028 0.0528588 0.0613253 0.0467846 0.0551941 0.064247 0.0921873 0.0651309 0.0784868 0.0697828 0.0609961 0.0651665
29 1 Mg -3.482 11.8243 57.6072 1.2 1 0.0111697 0.0135274 0.0141057 0.0289262 0.0170989 0.0330374 0.0200222 0.0544384 0.0253585 0.0777579 0.0213725 0.0482375 0.0220787 0.0648659 0.0293424 0.101239 0.0394876 0.108696 0.0470323 0.0868197
30 1 Mg -1.75014 11.5838 49.8362 1.2 1 0.231188 0.079492 0.0266532 0.0419197 0.0281234 0.0555831 0.0493337 0.0546784 0.046145 0.0587676 0.0666267 0.0608065 0.0713437 0.0721286 0.109977 0.0907053 0.0629753 0.0933472 0.0859149 0.0792889
31 2 Si -1.18003 9.02138 47.9309 2.4 1 0.367674 0.0704253 0.0683086 0.0548078 0.0408541 0.0602536 0.0731159 0.0773257 0.0704465 0.0669904 0.0593005 0.0667418 0.0679401 0.081051 0.103177 0.0627595 0.0993633 0.0923346 0.103683 0.0859264
32 3 O -1.23224 10.5991 47.9811 -1.2 1 0.375717 0.0639828 0.0574301 0.0546858 0.0521615 0.0717187 0.0661164 0.0755071 0.0550184 0.0862226 0.0696142 0.0637123 0.0729982 0.0800055 0.083514 0.0690387 0.0901574 0.0819377 0.0643905 0.0716309
33 3 O -1.79016 8.01447 51.8693 -1.2 1 0.116641 0.0570178 0.0357915 0.0298995 0.0313544 0.0475593 0.0592261 0.0556996 0.0577039 0.0515392 0.0512272 0.0529014 0.0652128 0.0858814 0.0876348 0.0719951 0.073724 0.0549864 0.0743039 0.0689723
34 3 O -2.30986 8.37215 48.8528 -1.2 1 0.312485 0.0865311 0.0656097 0.0256117 0.0532049 0.0610121 0.0662232 0.0664114 0.0574091 0.065737 0.0797312 0.068215 0.0582633 0.0647001 0.0791416 0.0919814 0.0985131 0.079248 0.0735519 0.092186
35 1 Mg 0.154883 7.08234 46.8007 1.2 1 0.487812 0.0257209 0.0918564 0.0341104 0.0580493 0.0738533 0.059657 0.0720417 0.0747325 0.0834477 0.0881518 0.0752358 0.0797635 0.0805694 0.0699043 0.0934041 0.0929146 0.106257 0.1131 0.103809
36 3 O 0.325447 8.50934 48.3809 -1.2 1 0.341084 0.0886419 0.0698069 0.0414913 0.0373643 0.0525936 0.0435143 0.0646461 0.0617702 0.0676967 0.0782265 0.0650629 0.08131 0.0948986 0.0920071 0.0702665 0.093487 0.101948 0.0835312 0.0871198
37 1 Mg 1.16708 7.12258 54.7749 1.2 1 0.0137548 0.0297314 0.00924818 0.0371891 0.014164 0.023372 0.0239282 0.0333043 0.0422469 0.0562221 0.0596598 0.056005 0.0488528 0.0645069 0.0518487 0.100901 0.0628117 0.0847514 0.0754376 0.0854783
38 2 Si 1.15138 9.79079 56.5583 2.4 1 0.0238207 0.013611 0.0209991 0.02265 0.0247413 0.0318547 0.0419334 0.0409898 0.0516359 0.0550935 0.0496739 0.0655727 0.0651588 0.0609434 0.0832346 0.0683065 0.0620197 0.0899329 0.0546753 0.0616318
39 3 O 1.14728 8.239 56.5878 -1.2 1 0.0255723 0.015363 0.0209854 0.020283 0.0277973 0.0314007 0.0282765 0.0617386 0.0378245 0.0508409 0.0387627 0.0661979 0.0617403 0.0635369 0.0724336 0.0681074 0.0617842 0.0771143 0.0615166 0.0702301
40 3 O 1.28624 10.7248 52.7351 -1.2 1 0.0776501 0.0364402 0.0301145 0.0222822 0.0282586 0.0449438 0.0500387 0.0515498 0.0511229 0.0463546 0.0517645 0.0470582 0.0613526 0.0659396 0.0978224 0.076936 0.0724671 0.0518093 0.0756307 0.0598992
41 3 O -0.113146 10.4291 55.8195 -1.2 1 0.0104868 0.0132344 0.0244082 0.0232214 0.0218275 0.0290276 0.0380647 0.0441746 0.0363339 0.0454121 0.0500129 0.0466279 0.0527781 0.0548407 0.0852988 0.0686653 0.0785708 0.0582917 0.0657566 0.0703881
42 3 O 2.37701 10.4578 55.8913 -1.2 1 0.0157495 0.0178843 0.0274926 0.0158927 0.0221421 0.0196688 0.0489003 0.0421888 0.0415649 0.0422511 0.0529813 0.0450005 0.0483962 0.0630137 0.0821554 0.0743796 0.0740876 0.0590496 0.0756147 0.0621964
43 1 Mg -0.262694 9.34741 52.2523 1.2 1 0.118129 0.0589458 0.0238947 0.037911 0.0348262 0.0441438 0.0361411 0.0720007 0.0258383 0.0874557 0.0324737 0.0554728 0.0367748 0.0737663 0.0428573 0.105753 0.0488009 0.0955889 0.0497206 0.10173
44 1 Mg 1.87648 9.01537 49.4629 1.2 1 0.271298 0.0951373 0.0372428 0.0385294 0.0341023 0.0494818 0.0686613 0.0469006 0.0775167 0.0630828 0.0824823 0.053562 0.0833328 0.0663217 0.0840345 0.0945699 0.0881702 0.0943288 0.0828629 0.0911358
45 2 Si 1.21415 11.3799 51.2378 2.4 1 0.133944 0.0844884 0.0424161 0.0382868 0.0415465 0.0498442 0.0554376 0.0414306 0.0576557 0.0644321 0.0750441 0.0710236 0.079215 0.069794 0.0905737 0.0908467 0.0742488 0.0842791 0.077755 0.0580138
46 3 O 1.31634 12.9512 51.3023 -1.2 1 0.130843 0.0872058 0.023454 0.0295052 0.0352817 0.0436364 0.04113 0.069647 0.0537422 0.0618675 0.0471111 0.0831684 0.0725161 0.0643604 0.075202 0.0712881 0.0791697 0.0691132 0.0711338 0.071303
47 3 O 1.1004 10.4502 58.0553 -1.2 1 0.0135567 0.0137025 0.0241558 0.0149293 0.0243688 0.0355578 0.0303041 0.0408289 0.0426092 0.04904 0.0376561 0.0534652 0.0507196 0.0648714 0.104008 0.0647985 0.0692557 0.0571309 0.0697976 0.0701044
48 3 O -0.115718 10.7564 50.681 -1.2 1 0.192843 0.0763525 0.0246754 0.0186446 0.0449554 0.0346262 0.0492584 0.0659569 0.0502587 0.0557354 0.0622924 0.0511614 0.0634335 0.0745566 0.0927348 0.0777987 0.0745068 0.0755796 0.0755988 0.0851962
49 1 Mg -3.26386 9.35564 52.3622 1.2 1 0.0882357 0.0511759 0.0282635 0.0313875 0.0187725 0.0545728 0.0318544 0.0588763 0.0331503 0.0819789 0.0342736 0.0513527 0.0343034 0.0672365 0.0337281 0.111219 0.0454976 0.106452 0.0445945 0.088615
50 3 O 2.45216 10.7265 50.4558 -1.2 1 0.19467 0.0937298 0.0201967 0.0156145 0.0364139 0.0608372 0.0591049 0.0435685 0.0623552 0.0705293 0.0672499 0.069769 0.0549922 0.0685085 0.0972436 0.082466 0.0740273 0.0789051 0.0578578 0.0854327
51 1 Mg -1.81519 9.49439 55.1361 1.2 1 0.0271813 0.0143476 0.0163938 0.026545 0.0108827 0.0247462 0.0257463 0.0323369 0.0384275 0.0567924 0.0550726 0.0542225 0.0597827 0.0681458 0.0664604 0.0840228 0.0718022 0.0969511 0.0707072 0.0853891
52 2 Si -1.82644 7.41766 53.3875 2.4 1 0.0473864 0.0436268 0.0242869 0.0290592 0.0338646 0.0352072 0.0426978 0.053878 0.0671717 0.0596702 0.0555767 0.0609318 0.0751658 0.0488539 0.0668984 0.0630352 0.067945 0.0877628 0.0650156 0.0532742
53 3 O -1.87128 5.87444 53.348 -1.2 1 0.062119 0.030291 0.0231454 0.0215642 0.0191512 0.0368881 0.0332143 0.0660403 0.0468626 0.0685483 0.0390156 0.0751656 0.0606175 0.0735379 0.0608881 0.0645019 0.0635271 0.059611 0.0709513 0.0699936
54 3 O -1.19417 8.46968 46.4488 -1.2 1 0.524989 0.0667513 0.0674602 0.0518645 0.0667721 0.0562231 0.0781743 0.0538192 0.0751115 0.0704812 0.056549 0.0512292 0.0702746 0.0982366 0.129722 0.113079 0.09806 0.0961413 0.0827205 0.0816528
55 3 O -3.17337 8.11628 54.0455 -1.2 1 0.0403839 0.0208575 0.0301453 0.0181675 0.0186044 0.0236289 0.0428693 0.0461729 0.0408948 0.0559149 0.0571014 0.0436925 0.057945 0.0525451 0.081393 0.0732226 0.0675432 0.0645631 0.0714661 0.0723038
56 3 O -0.573941 8.10667 54.1431 -1.2 1 0.0478291 0.0230099 0.0221185 0.0224995 0.0287875 0.0243979 0.0300387 0.0470773 0.0374781 0.0503072 0.0605615 0.0454016 0.059984 0.0557289 0.0851419 0.0674733 0.0734169 0.0708124 0.0617189 0.0707248
57 1 Mg -3.23829 16.5304 57.3864 1.2 1 0.00955789 0.0175024 0.00572762 0.0319889 0.00779799 0.0304928 0.00997932 0.0583153 0.0102795 0.0831281 0.0128731 0.0481978 0.0162771 0.0710472 0.0155563 0.10348 0.0218748 0.116019 0.0196802 0.0996841
58 1 Mg -1.6714 16.3544 49.8412 1.2 1 0.233979 0.0761869 0.0257784 0.0421523 0.0311539 0.0503114 0.0527698 0.0547401 0.0470492 0.061266 0.0626724 0.0645116 0.0704422 0.0733674 0.106211 0.0882574 0.0734846 0.0945249 0.0847812 0.0838006
59 2 Si -1.18567 13.8526 47.9314 2.4 1 0.376915 0.0621019 0.0657868 0.0669426 0.0283183 0.0668309 0.0478714 0.080078 0.0628358 0.0653114 0.0534528 0.0734158 0.0569498 0.0748118 0.0978594 0.0747255 0.104342 0.0966325 0.0888657 0.0890489
60 3 O -1.09664 15.4205 47.9915 -1.2 1 0.366368 0.0694914 0.0478123 0.0626442 0.04568 0.0926164 0.0630741 0.0823313 0.0565096 0.0887622 0.0542513 0.0720606 0.0599424 0.0820502 0.0819967 0.0745819 0.0938175 0.0762283 0.0739585 0.0696266
61 3 O -1.73493 12.7491 51.7772 -1.2 1 0.116229 0.0546779 0.0327573 0.0333633 0.0304495 0.0532845 0.0627086 0.0480337 0.0639842 0.0511989 0.0597201 0.0509611 0.0541305 0.0843059 0.104755 0.0773413 0.0826777 0.0485328 0.0716167 0.0704621
62 3 O -2.36115 13.2717 48.8238 -1.2 1 0.30416 0.0963342 0.0604556 0.0252677 0.0573593 0.049158 0.0618808 0.0711947 0.060131 0.0667341 0.073822 0.062159 0.0574916 0.0576285 0.0820683 0.0867685 0.0876143 0.078669 0.0831038 0.0883444
63 1 Mg -0.159928 11.7639 46.8533 1.2 1 0.48255 0.0255733 0.0767676 0.0335432 0.0533806 0.0977042 0.0711983 0.0872645 0.0825842 0.0853376 0.0848433 0.069053 0.0723294 0.092272 0.0779221 0.0859034 0.0964725 0.0974568 0.0996205 0.105642
64 3 O 0.2623 13.1866 48.413 -1.2 1 0.346618 0.0752717 0.0539179 0.0378665 0.0458568 0.0589834 0.0401134 0.0625912 0.0656561 0.0720158 0.0619542 0.0589674 0.066957 0.0873206 0.0954618 0.081289 0.093189 0.0974667 0.0811423 0.0861833
65 1 Mg 1.19844 11.7742 54.5846 1.2 1 0.0119581 0.0251395 0.0150098 0.0326566 0.011296 0.0203755 0.0191869 0.0309085 0.0438679 0.0609537 0.0594054 0.053528 0.0520812 0.0690544 0.0639654 0.0818721 0.0696889 0.0906423 0.0731377 0.0831099
66 2 Si 1.22313 14.4565 56.402 2.4 1 0.0172467 0.0163139 0.0165744 0.0254817 0.0313041 0.0314984 0.0411083 0.0441183 0.0486603 0.0557478 0.0551903 0.0638669 0.0704734 0.055456 0.0750954 0.0699765 0.0607356 0.0968244 0.0578962 0.0579721
67 3 O 1.13791 12.9288 56.4306 -1.2 1 0.0224064 0.0185302 0.0118185 0.0237448 0.0266805 0.0289437 0.0229931 0.0674723 0.0330809 0.0525037 0.0411159 0.0668219 0.0599184 0.0653262 0.0729432 0.0696698 0.0594147 0.0699536 0.0611798 0.065319
68 3 O 1.36565 15.4813 52.729 -1.2 1 0.0737903 0.0383288 0.0303328 0.0228072 0.0240304 0.045502 0.0492618 0.0521396 0.0513514 0.0452983 0.0489902 0.0508417 0.0587406 0.0675317 0.0990934 0.0727186 0.074614 0.06118 0.0766051 0.0599134
69 3 O -0.114073 15.1596 55.735 -1.2 1 0.00616413 0.0128223 0.0282009 0.0200014 0.0132685 0.0231233 0.0371397 0.0454748 0.0348004 0.0467083 0.053859 0.0405974 0.0526043 0.0572347 0.0894978 0.0737494 0.0705114 0.0617809 0.0587695 0.0779646
70 3 O 2.47519 15.1834 55.7703 -1.2 1 0.0259012 0.0160945 0.0261243 0.0176879 0.0194994 0.0228531 0.0439411 0.045325 0.0325813 0.0388926 0.0552756 0.0387943 0.0510525 0.0597076 0.0839249 0.0698675 0.0796137 0.061841 0.0707047 0.0614366
71 1 Mg -0.206989 14.1049 52.2121 1.2 1 0.104798 0.0596903 0.0314597 0.0390087 0.0288362 0.0439357 0.0350455 0.0706635 0.026919 0.0863388 0.0300016 0.0519342 0.0271848 0.0770748 0.0303949 0.108537 0.0402363 0.10516 0.0362984 0.102069
72 1 Mg 1.82591 13.8102 49.4556 1.2 1 0.266789 0.103411 0.0341912 0.0419239 0.0332903 0.0366901 0.0681153 0.0435859 0.0690454 0.0753939 0.0749104 0.0558938 0.0735928 0.0712201 0.0804942 0.0904353 0.0785696 0.0957639 0.0904989 0.0841359
73 2 Si 1.29285 16.1518 51.2434 2.4 1 0.128054 0.0866174 0.0406876 0.0390592 0.0382809 0.049721 0.0558278 0.0428066 0.0538579 0.069291 0.0685794 0.0750402 0.075154 0.0695826 0.0920941 0.0834083 0.0723166 0.0897864 0.075455 0.0619466
74 3 O 1.39496 17.7199 51.3047 -1.2 1 0.142796 0.0733906 0.0319009 0.0357741 0.0341027 0.0479183 0.0332837 0.0677796 0.0557162 0.0612712 0.0435314 0.0777474 0.0671509 0.0674808 0.0725423 0.0693196 0.0735739 0.0779928 0.0683086 0.0741709
75 3 O 1.22895 15.1094 57.9099 -1.2 1 0.0127818 0.0229884 0.0250194 0.0195535 0.0159446 0.0368297 0.0372381 0.0449766 0.053598 0.043522 0.0473938 0.0420407 0.0513395 0.0691323 0.102588 0.0732502 0.0679559 0.0502094 0.0780973 0.0621148
76 3 O -0.0269106 15.5178 50.6688 -1.2 1 0.187156 0.080416 0.0237294 0.0190537 0.0472771 0.0390408 0.054578 0.0620933 0.0536142 0.0573152 0.0623201 0.0478894 0.0654267 0.0762576 0.0911487 0.077431 0.0752598 0.0808369 0.0708535 0.0877057
77 1 Mg -3.18391 14.1057 52.3125 1.2 1 0.0764496 0.0559276 0.0321962 0.0339585 0.0188621 0.0520132 0.0337053 0.0635345 0.0334451 0.0801567 0.0341089 0.0473994 0.0237704 0.0748634 0.0281176 0.110202 0.0419629 0.106141 0.0414312 0.0884065
78 3 O 2.52432 15.503 50.4579 -1.2 1 0.195442 0.0922645 0.0263317 0.0170646 0.0342617 0.0585579 0.0606775 0.0449521 0.0558496 0.0668977 0.0659035 0.0641473 0.0565271 0.0680208 0.101187 0.0775623 0.0770172 0.072486 0.06111 0.0850372
79 1 Mg -1.77808 14.1432 55.1558 1.2 1 0.0208588 0.0169977 0.0141763 0.0257051 0.0162121 0.0272861 0.0255397 0.0337279 0.0407855 0.0573997 0.0552759 0.0580185 0.060682 0.0662312 0.0692613 0.0801921 0.075095 0.0954944 0.0614405 0.0859491
80 2 Si -1.81122 12.0891 53.2697 2.4 1 0.0464918 0.037358 0.0208889 0.0265824 0.0348693 0.0369325 0.0514023 0.0557845 0.0621505 0.0622744 0.0577263 0.065651 0.0796209 0.0500504 0.0755906 0.0640575 0.0674531 0.0877543 0.0633385 0.0575739
81 3 O -1.85093 10.5424 53.2307 -1.2 1 0.0631849 0.0394218 0.0187412 0.0202345 0.0347151 0.0323095 0.0337779 0.0756759 0.0507414 0.0578962 0.0485762 0.0710172 0.0602808 0.0766845 0.074858 0.0680736 0.0491306 0.0601015 0.0699405 0.0747288
82 3 O -1.21337 13.3381 46.4311 -1.2 1 0.520182 0.0682064 0.0701393 0.0411657 0.0562528 0.058304 0.0584651 0.0703721 0.0793433 0.0654818 0.0462297 0.0718918 0.0688654 0.0880437 0.120504 0.114536 0.106923 0.10027 0.0600281 0.0915865
83 3 O -3.04236 12.8679 53.9918 -1.2 1 0.0251479 0.0243087 0.0219573 0.0244975 0.0268555 0.0251435 0.0542726 0.0449262 0.038811 0.0526232 0.0537383 0.0418923 0.0544212 0.0572191 0.0875897 0.0683246 0.065646 0.0654254 0.0628369 0.0685995
84 3 O -0.509055 12.7458 53.9807 -1.2 1 0.0406705 0.0283851 0.0321472 0.0242305 0.0232489 0.0299817 0.036544 0.0501274 0.0395424 0.0538692 0.0582095 0.0468476 0.0573639 0.0670617 0.0914725 0.0640427 0.0787075 0.0619918 0.068735 0.0735683
85 1 Mg -3.07573 21.2223 57.38 1.2 1 0.00709983 0.0150313 0.00718042 0.0305021 0.00865383 0.0328123 0.0115517 0.0544801 0.0175675 0.0814026 0.0201767 0.0488243 0.017877 0.0715315 0.0198583 0.101372 0.0250411 0.113479 0.0318982 0.0958221
86 1 Mg -1.5831 21.1217 49.8405 1.2 1 0.226594 0.0842722 0.0225873 0.0442738 0.029839 0.052469 0.0551631 0.053788 0.0504766 0.0610743 0.0627176 0.0654613 0.074414 0.0764357 0.104473 0.0834275 0.0714374 0.0949012 0.0824945 0.0826279
87 2 Si -1.09384 18.6291 47.9287 2.4 1 0.371247 0.0701676 0.0725381 0.0648514 0.0308546 0.0702653 0.0458748 0.0785451 0.0664411 0.0699334 0.0517038 0.0727225 0.0610458 0.0763001 0.100409 0.074561 0.10441 0.0942502 0.0905447 0.0891005
88 3 O -1.02071 20.1985 47.9911 -1.2 1 0.365977 0.0693073 0.0479318 0.0631293 0.0444118 0.0912951 0.0633988 0.0833034 0.0568123 0.0880988 0.0552878 0.0727109 0.0611634 0.0822987 0.0819448 0.0748448 0.0941805 0.0763737 0.0743097 0.0715825
89 3 O -1.65002 17.5002 51.771 -1.2 1 0.113367 0.0553619 0.0361246 0.0273737 0.0338126 0.0536002 0.0579207 0.0514788 0.0665785 0.052504 0.0562561 0.049822 0.0493879 0.0854433 0.103986 0.0737012 0.0812615 0.0469203 0.0752431 0.0738386
90 3 O -2.26174 18.0434 48.8281 -1.2 1 0.297952 0.10009 0.0598587 0.0289124 0.0615391 0.0506713 0.0578798 0.0742894 0.0590792 0.0664367 0.0724925 0.0613676 0.0580918 0.0594089 0.078699 0.0877516 0.0865392 0.0800015 0.0824475 0.0874711
91 1 Mg -0.0440435 16.5651 46.8269 1.2 1 0.481219 0.0221083 0.0811211 0.0324693 0.066648 0.0876168 0.079072 0.0848431 0.0681774 0.0838312 0.0852733 0.0622897 0.0632953 0.0775709 0.0762931 0.093933 0.0944119 0.0964276 0.0980808 0.10405
92 3 O 0.37001 17.9877 48.3925 -1.2 1 0.341833 0.0822053 0.0571028 0.0420686 0.0442368 0.0599101 0.0418592 0.0679459 0.0668466 0.0730608 0.0606495 0.0560535 0.0654083 0.0884253 0.0954374 0.0763367 0.0926615 0.0997178 0.0813551 0.0887763
93 1 Mg 1.33177 16.6147 54.5509 1.2 1 0.00644843 0.0248529 0.0157368 0.0288401 0.011291 0.0189397 0.0206947 0.0346695 0.0465868 0.062114 0.0634834 0.0559218 0.0576925 0.0652208 0.0708207 0.0804421 0.0742551 0.0840271 0.0791677 0.076101
94 2 Si 1.13588 19.1736 56.5515 2.4 1 0.029827 0.0163882 0.0236658 0.0164999 0.0224117 0.0312326 0.0424571 0.0351232 0.0516251 0.0589064 0.0535703 0.058587 0.0614236 0.0615757 0.0781106 0.0659509 0.0675538 0.0853581 0.0698384 0.0552769
95 3 O 1.17501 17.637 56.5155 -1.2 1 0.0384649 0.0105351 0.0156501 0.019928 0.0267788 0.0311324 0.0237225 0.0607401 0.0326706 0.0531522 0.0402477 0.0645284 0.0559446 0.0699149 0.0770484 0.0667857 0.05919 0.0730379 0.0652884 0.074621
96 3 O 1.45147 20.239 52.7294 -1.2 1 0.0719759 0.0391524 0.0304259 0.0231328 0.0243257 0.0434139 0.0494329 0.0548471 0.0520697 0.0466447 0.0492517 0.0506081 0.059877 0.0644566 0.101684 0.072427 0.0732637 0.0599352 0.0745514 0.0614343
97 3 O -0.0900589 19.831 55.7777 -1.2 1 0.00421989 0.00626117 0.0315477 0.021 0.0182964 0.0247652 0.0421286 0.047052 0.0414226 0.0462202 0.0578571 0.0369569 0.0518898 0.0581921 0.0893512 0.0756429 0.0671163 0.061721 0.0588798 0.0770497
98 3 O 2.48696 19.7892 55.8297 -1.2 1 0.019124 0.00924088 0.0274296 0.0158522 0.0238013 0.020236 0.0432173 0.0431375 0.0348159 0.0422518 0.0525908 0.0386706 0.0491973 0.0699854 0.0799258 0.0714191 0.0871002 0.0567714 0.0704494 0.0643709
99 1 Mg -0.126194 18.8651 52.2079 1.2 1 0.104887 0.0642549 0.0253407 0.0414159 0.0304603 0.0416665 0.0351285 0.0716047 0.0243811 0.089079 0.0239237 0.0581623 0.0272223 0.0770893 0.0292891 0.105238 0.0387048 0.108658 0.0348665 0.103287
100 1 Mg 1.92402 18.5815 49.4545 1.2 1 0.259911 0.108879 0.0354918 0.0442684 0.0352591 0.0354083 0.0696379 0.0457078 0.0692561 0.0736003 0.0783228 0.0550959 0.0727008 0.0698085 0.0839052 0.0950961 0.0806332 0.0973871 0.0833662 0.0871556
101 2 Si 1.38106 20.9117 51.2443 2.4 1 0.130822 0.0834978 0.0441182 0.0417325 0.0355132 0.0526072 0.0540221 0.0428321 0.0547088 0.0708729 0.0666955 0.0720548 0.070997 0.0682719 0.091215 0.0828757 0.0723425 0.0825318 0.0753865 0.0653181
102 3 O 1.48527 22.4795 51.3054 -1.2 1 0.138312 0.0782115 0.0260847 0.031559 0.0309492 0.047592 0.0401882 0.0664366 0.0593064 0.0658355 0.0398718 0.0800369 0.0735829 0.066559 0.0782402 0.0709406 0.0775969 0.0753471 0.067688 0.0738055
103 3 O 1.18956 19.8967 57.9338 -1.2 1 0.0103573 0.0187932 0.0271342 0.014323 0.0188687 0.0304705 0.0340054 0.0489211 0.0507649 0.042648 0.0419484 0.0495455 0.0486016 0.0641538 0.107846 0.0713401 0.065568 0.0505854 0.0699015 0.0613501
104 3 O 0.0615419 20.2804 50.6669 -1.2 1 0.183592 0.0855768 0.0181627 0.0262404 0.0458579 0.0341757 0.0590303 0.0643594 0.0542435 0.0565493 0.0614317 0.0467717 0.0635701 0.0782472 0.0928293 0.077572 0.0743151 0.0828417 0.074762 0.0860061
105 1 Mg -3.09665 18.8643 52.3122 1.2 1 0.0735096 0.0549335 0.0323783 0.0331317 0.0173889 0.053763 0.0352587 0.0653792 0.0320008 0.0804666 0.0302438 0.0465098 0.0212709 0.0760655 0.027372 0.111181 0.0399029 0.1064 0.0365231 0.0885806
106 3 O 2.61548 20.2646 50.4626 -1.2 1 0.199406 0.0870072 0.0302654 0.0179039 0.0397422 0.0533406 0.0601941 0.0456021 0.0554448 0.0677143 0.0679145 0.0643066 0.0518771 0.0616924 0.100879 0.0752777 0.0706741 0.0675436 0.0635828 0.0873143
107 1 Mg -1.72461 18.8451 55.1545 1.2 1 0.0141686 0.0117753 0.021884 0.0229104 0.0153064 0.0228538 0.0248369 0.0310108 0.0427215 0.0592796 0.0516409 0.0621068 0.062119 0.0638206 0.0628666 0.0717042 0.0763085 0.100857 0.0658119 0.0878342
108 2 Si -1.69513 16.7899 53.2594 2.4 1 0.0606774 0.0346647 0.0211138 0.0284581 0.0308352 0.0350144 0.0458012 0.0567249 0.0548145 0.0680425 0.0600798 0.0674034 0.0766876 0.0490083 0.0752209 0.0650035 0.0677488 0.0849173 0.061566 0.0626829
109 3 O -1.66758 15.2641 53.1985 -1.2 1 0.0641653 0.0403726 0.0244544 0.0229483 0.0264237 0.0389051 0.0262404 0.0777551 0.046071 0.0630157 0.0446224 0.0684883 0.0612136 0.07629 0.0776559 0.065917 0.0482882 0.0716597 0.0659635 0.0744582
110 3 O -1.12868 18.1227 46.4249 -1.2 1 0.522043 0.0667039 0.0729582 0.0520802 0.0574089 0.0653606 0.0617191 0.0793581 0.0793314 0.0617868 0.0445266 0.0677237 0.0676514 0.0877434 0.11676 0.115288 0.107354 0.100631 0.062622 0.0927257
111 3 O -3.00732 17.5786 53.8769 -1.2 1 0.0288036 0.028628 0.021616 0.0298734 0.027652 0.0233681 0.0590707 0.0424082 0.0413032 0.0450095 0.055215 0.0462102 0.0521462 0.0532176 0.088947 0.0640822 0.0721435 0.0583587 0.0685917 0.0751145
112 3 O -0.387835 17.4322 53.9093 -1.2 1 0.0429499 0.0313749 0.0265074 0.0265547 0.024117 0.0230433 0.0425641 0.0459864 0.0410333 0.0567951 0.0554881 0.0442096 0.0598639 0.0667295 0.0888921 0.0650835 0.0815005 0.0642006 0.0691675 0.0730149
113 1 Mg -2.9117 25.9314 57.3837 1.2 1 0.0108063 0.0150036 0.0197449 0.0316996 0.0139491 0.035809 0.0151903 0.0575641 0.0171024 0.082822 0.0151556 0.052807 0.0166305 0.0703035 0.0186252 0.100001 0.0342492 0.112739 0.0280485 0.0932591
114 1 Mg -1.48778 25.88 49.8402 1.2 1 0.226281 0.0844916 0.0230683 0.043393 0.0302435 0.0528477 0.0552174 0.053933 0.0502495 0.0608359 0.0621074 0.0655717 0.074998 0.0746634 0.102551 0.0819942 0.0713482 0.0956538 0.0849381 0.0827681
115 2 Si -1.00491 23.3922 47.9274 2.4 1 0.367754 0.072569 0.0709545 0.0695928 0.0340737 0.0770988 0.0435741 0.0842513 0.0705422 0.0736489 0.0492604 0.0751034 0.060501 0.0761589 0.0949956 0.0785026 0.105447 0.0960321 0.0885229 0.0948309
116 3 O -0.927602 24.9615 47.9909 -1.2 1 0.365653 0.0696883 0.0486835 0.0629888 0.0452199 0.0913041 0.0639126 0.0832437 0.0568349 0.0881353 0.0547292 0.0724508 0.0604575 0.0816647 0.0813628 0.0736942 0.0936388 0.0751999 0.0745074 0.0695463
117 3 O -1.55795 22.2588 51.7696 -1.2 1 0.112306 0.0559898 0.0353296 0.0282513 0.0339217 0.0538781 0.0591367 0.0486699 0.0652738 0.0514773 0.0571577 0.0493991 0.0517633 0.0863857 0.0987863 0.0741673 0.0826391 0.0453154 0.0749181 0.0739264
118 3 O -2.17411 22.8111 48.8277 -1.2 1 0.297118 0.10138 0.0618483 0.0274377 0.0625987 0.0513446 0.0584021 0.0725632 0.0590959 0.0664494 0.0723029 0.0613174 0.0560134 0.0592121 0.0801037 0.0882984 0.0886382 0.0796709 0.0826523 0.0898403
119 1 Mg 0.0423997 21.3296 46.8225 1.2 1 0.481613 0.0217479 0.0803502 0.0327034 0.0663916 0.0875982 0.0789782 0.0862597 0.0698124 0.0837296 0.0847828 0.0618549 0.0634082 0.0778858 0.0763516 0.0935397 0.0947553 0.0976273 0.10023 0.105937
120 3 O 0.458537 22.7495 48.3911 -1.2 1 0.343991 0.0813514 0.0591172 0.0400596 0.0451061 0.0594889 0.0434504 0.0651991 0.065421 0.0742926 0.0615099 0.0563512 0.0671325 0.086432 0.0928219 0.0769526 0.0936246 0.101465 0.0809832 0.0881065
121 1 Mg 1.51416 21.1578 54.5899 1.2 1 0.012904 0.0279153 0.0144899 0.0322404 0.0134614 0.0183483 0.0239325 0.034963 0.0495185 0.059978 0.0539733 0.0524289 0.0591351 0.0656214 0.0630393 0.0747927 0.0711921 0.0956807 0.0659308 0.0873135
122 2 Si 1.37444 23.9366 56.4022 2.4 1 0.0123105 0.0201867 0.0192479 0.0249904 0.030493 0.0334265 0.0418387 0.0415435 0.0531533 0.0502343 0.0511662 0.0664844 0.072062 0.0565279 0.0799577 0.0726319 0.0643337 0.0950014 0.0573457 0.0556752
123 3 O 1.32556 22.3875 56.5177 -1.2 1 0.0408721 0.0129359 0.0173178 0.0212532 0.0241358 0.0281334 0.0223804 0.0646577 0.0363017 0.0515515 0.0379664 0.0708218 0.0570076 0.0669829 0.0738076 0.0668438 0.0621821 0.0711873 0.0553979 0.0737908
124 3 O 1.54441 24.9963 52.7297 -1.2 1 0.0771342 0.0343953 0.0271134 0.0242859 0.0235025 0.0438837 0.0497024 0.0533712 0.0524819 0.046323 0.0474191 0.0495251 0.0579106 0.0670198 0.101953 0.0719255 0.0694565 0.0596839 0.0729039 0.0613086
125 3 O 0.103293 24.6267 55.8403 -1.2 1 0.0087924 0.0148671 0.0269093 0.0222286 0.015435 0.0193169 0.0393012 0.0456082 0.039065 0.0438052 0.0567578 0.0424635 0.0492488 0.0603926 0.089479 0.0695987 0.0755957 0.0569616 0.0674553 0.0709105
126 3 O 2.65601 24.584 55.727 -1.2 1 0.0296767 0.0164998 0.0276236 0.0118214 0.0234522 0.0243704 0.0456715 0.0442621 0.0368637 0.0421489 0.0531574 0.0344424 0.0565949 0.0671075 0.0786015 0.0768998 0.0811497 0.0636785 0.0707954 0.0670886