ITEM: TIMESTEP
50500
ITEM: NUMBER OF ATOMS
10500
ITEM: BOX BOUNDS xy xz yz pp pp pp
0	8.9688	2.9896
0	118.725	0
0	252.977	0
ITEM: ATOMS id type element xu yu zu q Q_1 Q_2 Q_3 Q_4 Q_5 Q_6 Q_7 Q_8 Q_9 Q_10 Q_11 Q_12 Q_13 Q_14 Q_15 Q_16 Q_17 Q_18 Q_19 Q_20 Q_21
1 1 Mg -3.45005 7.18842 57.7122 1.2 1 0.00854269 0.017489 0.0125081 0.0283045 0.0179264 0.0371223 0.0162821 0.0559672 0.0239597 0.076388 0.028932 0.0514903 0.0331449 0.0672202 0.034142 0.0878762 0.0576904 0.109542 0.0517218 0.0834769
2 1 Mg -1.82655 6.90154 50.0912 1.2 1 0.212794 0.0925114 0.0349403 0.0382891 0.0322642 0.0586595 0.0448029 0.0447569 0.0583251 0.0721857 0.0567428 0.0735132 0.0740047 0.0681063 0.101322 0.0626618 0.083152 0.0970465 0.0748001 0.07439
3 2 Si -0.257935 3.96038 48.0876 2.4 1 0.369896 0.0751987 0.0771769 0.0293568 0.0617887 0.0527612 0.0729035 0.0763279 0.0611102 0.0791091 0.0569314 0.0700867 0.0628075 0.083389 0.0963701 0.102378 0.110251 0.0912531 0.0747402 0.0726709
4 3 O -0.335812 5.46814 47.6264 -1.2 1 0.427304 0.0384908 0.063578 0.0314553 0.0404286 0.0471099 0.0652904 0.070686 0.0862166 0.0748276 0.0923635 0.0754871 0.0704902 0.0696268 0.0923384 0.125618 0.0964399 0.0824556 0.0767619 0.0785521
5 3 O -2.03793 3.43377 51.8941 -1.2 1 0.109114 0.0591922 0.0324126 0.0260819 0.025026 0.0549207 0.0606705 0.047619 0.0480974 0.0562183 0.0643385 0.0547013 0.0523174 0.0773241 0.0921119 0.0883367 0.0686493 0.0542038 0.0773709 0.06673
6 3 O -1.54015 3.53929 48.9521 -1.2 1 0.299453 0.0969417 0.0411492 0.04641 0.0416303 0.0496562 0.0736334 0.0521602 0.0508321 0.0630665 0.0778823 0.070234 0.0682819 0.066669 0.0701083 0.109827 0.0865106 0.0751912 0.067739 0.0876523
7 1 Mg 1.82954 2.54582 47.1376 1.2 1 0.466171 0.0212405 0.0801255 0.0508813 0.0357864 0.082879 0.0596795 0.0579394 0.0762121 0.0894246 0.0698787 0.0771659 0.0819469 0.0855683 0.0702688 0.0958578 0.101017 0.103791 0.105333 0.0980474
8 3 O 1.22989 3.66364 48.7877 -1.2 1 0.313272 0.0859645 0.0376023 0.0352606 0.0371123 0.0661322 0.0761461 0.0371848 0.0855071 0.0771479 0.0537798 0.082511 0.0883879 0.0743952 0.0678184 0.0850342 0.0949829 0.0930918 0.0933388 0.0888845
9 1 Mg 0.864845 2.38343 54.5513 1.2 1 0.00637806 0.0252472 0.0214808 0.0317651 0.0180233 0.0395873 0.0179786 0.0384326 0.0345801 0.0599077 0.0588247 0.0588814 0.0591824 0.0684015 0.0655106 0.0756957 0.0643337 0.0870964 0.0793824 0.0665324
10 2 Si 1.06114 5.03572 56.7041 2.4 1 0.0258561 0.0134677 0.0297248 0.0297908 0.0356937 0.0357397 0.0379912 0.0330284 0.0526236 0.0584646 0.050709 0.0637502 0.0616583 0.0616879 0.0817039 0.0744812 0.0672053 0.0921836 0.0622151 0.0580752
11 3 O 1.14192 3.51773 56.8539 -1.2 1 0.021408 0.0188308 0.0242117 0.0142008 0.0219186 0.0258442 0.0330103 0.0633762 0.053565 0.0373122 0.0512906 0.0619825 0.0598702 0.0597086 0.0822634 0.0748302 0.0732018 0.0779601 0.0503773 0.0787174
12 3 O 1.10813 6.07342 52.8172 -1.2 1 0.07078 0.0482126 0.0307427 0.0208451 0.0223049 0.0469653 0.0470824 0.0567688 0.0506613 0.0401369 0.0568403 0.0515605 0.0700823 0.0706686 0.082664 0.0951543 0.062622 0.0680569 0.0620382 0.0703598
13 3 O -0.201376 5.64498 55.9925 -1.2 1 0.0110237 0.0101769 0.0305116 0.0262973 0.0283251 0.022768 0.0436125 0.0339819 0.0389485 0.0416885 0.0529404 0.0451964 0.0558169 0.0659828 0.086971 0.0753881 0.081476 0.049641 0.0704613 0.0662299
14 3 O 2.36805 5.49001 55.9486 -1.2 1 0.0222564 0.00944816 0.0254985 0.0217106 0.0326322 0.0152849 0.0432366 0.0437116 0.0454056 0.0488102 0.0578797 0.0434003 0.0508364 0.0821781 0.0660267 0.0792096 0.0870883 0.063902 0.0706368 0.061782
15 1 Mg -0.459401 4.67631 52.2426 1.2 1 0.0892968 0.063831 0.0418548 0.0379034 0.0289267 0.0330427 0.0429555 0.0630135 0.0435555 0.08097 0.0391695 0.0562767 0.0476009 0.0790843 0.0493897 0.10564 0.0521349 0.0924959 0.0614842 0.0857429
16 1 Mg 2.79456 3.9971 49.9987 1.2 1 0.218686 0.103158 0.0349415 0.036341 0.0442528 0.0663154 0.051455 0.0496007 0.0752374 0.067273 0.0666799 0.0552233 0.0609463 0.0731006 0.0871312 0.07443 0.0715355 0.0916532 0.0853701 0.0728908
17 2 Si 1.16169 6.59457 51.2556 2.4 1 0.137035 0.0858198 0.0405929 0.0350371 0.041797 0.0509754 0.0479342 0.0424485 0.0585983 0.0664532 0.0652577 0.0752374 0.0781919 0.0668033 0.0849481 0.0856208 0.0748938 0.0874619 0.0765122 0.0657704
18 3 O 1.28989 8.18905 51.2909 -1.2 1 0.137798 0.0991812 0.0257255 0.0355344 0.0357342 0.0455962 0.0409185 0.0714908 0.0474038 0.0701601 0.0469309 0.0944991 0.067757 0.0649367 0.0786302 0.0730672 0.0741191 0.0702624 0.069524 0.0700816
19 3 O 1.09203 5.798 58.1092 -1.2 1 0.00895301 0.0253245 0.0251199 0.0201068 0.0197561 0.0378415 0.0268571 0.0502221 0.0507992 0.045396 0.0426519 0.0554203 0.0478307 0.0625195 0.102922 0.0656577 0.0753667 0.0609973 0.0666627 0.0567009
20 3 O -0.184847 6.06029 50.6845 -1.2 1 0.176113 0.0886688 0.0222199 0.0405203 0.0320822 0.0353361 0.0482272 0.0592082 0.0588196 0.0649179 0.0685198 0.078504 0.0708402 0.0629873 0.0904623 0.0664021 0.0836444 0.0787342 0.0583265 0.0756974
21 1 Mg -3.49704 4.67769 52.6661 1.2 1 0.0570269 0.0508081 0.035193 0.0250375 0.016817 0.046397 0.0375118 0.0591518 0.0571354 0.0710035 0.046928 0.055201 0.0500649 0.0552467 0.0570412 0.0853166 0.0847876 0.0714117 0.0792346 0.0708649
22 3 O 2.48581 5.93312 50.6539 -1.2 1 0.186378 0.0930909 0.0338042 0.0230979 0.0360648 0.0486494 0.063769 0.0616137 0.0471375 0.0685179 0.0525035 0.0658413 0.0590043 0.0639579 0.105837 0.0701987 0.077992 0.0673997 0.0767951 0.0753423
23 1 Mg -1.91402 4.84342 55.4052 1.2 1 0.0153109 0.0112584 0.0209637 0.0283642 0.0219915 0.0230777 0.0280953 0.0373812 0.0340573 0.0587062 0.0603137 0.0693174 0.0563834 0.0548623 0.0716841 0.0556792 0.0928817 0.0865681 0.070019 0.0650149
24 2 Si -2.01816 2.67869 53.3333 2.4 1 0.0299932 0.0458998 0.0314763 0.0264217 0.0342071 0.021983 0.0513877 0.0419924 0.064759 0.0664728 0.0502473 0.0755601 0.0719903 0.0536604 0.0745168 0.0580227 0.0686702 0.0823585 0.0740681 0.0654002
25 3 O -1.87296 1.12504 53.2294 -1.2 1 0.0418351 0.0424131 0.0281969 0.0271928 0.020908 0.0420585 0.0259899 0.0699225 0.0579191 0.0607102 0.0509607 0.0705633 0.0599055 0.0737848 0.0805765 0.0738993 0.0588899 0.0629718 0.0752157 0.0677583
26 3 O -0.0467762 2.97103 46.8385 -1.2 1 0.500807 0.0391749 0.0855974 0.0304533 0.0781527 0.0676419 0.0821911 0.0726188 0.0705129 0.0768371 0.0816482 0.0783627 0.0995725 0.0879505 0.0835696 0.0858747 0.0999634 0.0979486 0.104402 0.108978
27 3 O -3.27829 3.27727 54.0713 -1.2 1 0.00493058 0.0319129 0.0242382 0.0266293 0.0353634 0.0272621 0.046898 0.0471377 0.0496795 0.0472636 0.0677132 0.0497345 0.0680549 0.0688102 0.0860387 0.0631755 0.068214 0.058571 0.0733721 0.0587974
28 3 O -0.666155 3.49723 54.0061 -1.2 1 0.027237 0.0271255 0.0292547 0.0221899 0.0198786 0.0291211 0.0448912 0.0501354 0.0381926 0.0524201 0.0645871 0.0464175 0.0562826 0.0601871 0.0943664 0.0647826 0.0783588 0.0696981 0.0555959 0.0684056
29 1 Mg -3.39223 11.8771 57.509 1.2 1 0.0168581 0.0121851 0.0187296 0.0240092 0.0154476 0.0330772 0.0187128 0.0573299 0.0220505 0.0761454 0.0232308 0.0506268 0.023605 0.0725081 0.0212953 0.0889718 0.0470618 0.117647 0.0365307 0.0934445
30 1 Mg -1.75014 11.5838 49.8362 1.2 1 0.235953 0.0772654 0.0278167 0.0358148 0.0317898 0.0517738 0.0472231 0.0570847 0.0455583 0.055825 0.0641122 0.0637728 0.0704942 0.0691913 0.107196 0.0862648 0.063043 0.0951648 0.0856585 0.0783687
31 2 Si -1.18003 9.02138 47.9309 2.4 1 0.367132 0.0716613 0.0673479 0.0528447 0.04111 0.0621214 0.0749162 0.0760425 0.0726767 0.0693038 0.0585367 0.0665385 0.0668594 0.0799146 0.101225 0.0643511 0.0994936 0.0910121 0.105566 0.0904953
32 3 O -1.23224 10.5991 47.9811 -1.2 1 0.379259 0.0592333 0.0545787 0.0566123 0.0500788 0.0691284 0.0681693 0.0784608 0.0591251 0.0870029 0.0708709 0.0643671 0.0725662 0.080287 0.0819875 0.0683406 0.0883805 0.0794241 0.0658912 0.0757177
33 3 O -1.79016 8.01447 51.8693 -1.2 1 0.111323 0.0632129 0.0330026 0.036784 0.0307235 0.0471874 0.0620012 0.058714 0.0589519 0.0522818 0.0575422 0.0524609 0.0635765 0.0888724 0.090742 0.0770809 0.0758308 0.054127 0.072345 0.0667919
34 3 O -2.30986 8.37215 48.8528 -1.2 1 0.311945 0.0880357 0.0660295 0.024684 0.0542427 0.0620067 0.0670011 0.0672255 0.0586866 0.0667716 0.080019 0.067041 0.0601173 0.0651739 0.0758278 0.0898205 0.0974813 0.0816026 0.076038 0.0907435
35 1 Mg 0.154883 7.08234 46.8007 1.2 1 0.497257 0.0369519 0.0758847 0.0371805 0.0641204 0.0760874 0.0608405 0.0685867 0.0697797 0.0813511 0.0885021 0.0762551 0.0790273 0.0794385 0.0693034 0.0915592 0.0926019 0.108217 0.113695 0.100728
36 3 O 0.325447 8.50934 48.3809 -1.2 1 0.343147 0.0865284 0.0651147 0.044696 0.036287 0.0530469 0.0373666 0.0587113 0.0632521 0.0625431 0.0753686 0.0657777 0.0776231 0.0919548 0.0917072 0.0681492 0.0915116 0.101071 0.0856553 0.0904748
37 1 Mg 0.869554 7.09153 54.7037 1.2 1 0.0116584 0.0260282 0.0251042 0.035113 0.0235274 0.0351592 0.0246211 0.0381459 0.0375849 0.0540694 0.0640358 0.050979 0.0506263 0.0673669 0.05756 0.0912852 0.0672743 0.0814096 0.078705 0.0732577
38 2 Si 0.916935 9.84268 56.463 2.4 1 0.0130565 0.0127341 0.0257076 0.025339 0.0368614 0.0316661 0.0443142 0.0390725 0.0498659 0.0449683 0.0513143 0.058876 0.0657876 0.0531826 0.0716174 0.0765285 0.0659222 0.08709 0.0708342 0.0497317
39 3 O 1.07548 8.17909 56.4643 -1.2 1 0.0156791 0.0191803 0.0101403 0.0203624 0.0361957 0.0294488 0.0226238 0.0612471 0.0341161 0.0577704 0.038344 0.071068 0.0632004 0.058898 0.0689856 0.0678902 0.0598492 0.066977 0.0628982 0.0627109
40 3 O 1.28624 10.7248 52.7351 -1.2 1 0.0729876 0.0399728 0.0325912 0.0214375 0.0312198 0.0452239 0.0498658 0.0514652 0.0466393 0.0467459 0.0519034 0.049952 0.0572711 0.0688571 0.100602 0.0776427 0.071598 0.0523931 0.0762476 0.059447
41 3 O -0.337873 10.4255 55.8208 -1.2 1 0.0114298 0.0141909 0.0226342 0.020845 0.01441 0.0282418 0.0432271 0.0443372 0.0435152 0.0467358 0.0496189 0.040284 0.0593969 0.0592175 0.081799 0.0773669 0.0688435 0.0626672 0.061206 0.0755075
42 3 O 2.29618 10.4746 55.8227 -1.2 1 0.016282 0.0109761 0.0281695 0.0192482 0.0221713 0.0202335 0.0428609 0.0416138 0.0329233 0.0394659 0.0492087 0.0442379 0.0504713 0.0645288 0.0856156 0.0756798 0.0816153 0.0637797 0.0674195 0.0625367
43 1 Mg -0.262694 9.34741 52.2523 1.2 1 0.113993 0.0651535 0.0223182 0.0442946 0.0350129 0.0461907 0.0392798 0.0714932 0.0301526 0.0875265 0.0309714 0.062782 0.0347293 0.0771832 0.049054 0.105106 0.0497422 0.0942972 0.0491608 0.103268
44 1 Mg 1.87648 9.01537 49.4629 1.2 1 0.279883 0.0897059 0.0434789 0.0340371 0.0255527 0.0501262 0.0625755 0.0474657 0.0783729 0.0654316 0.0847586 0.0604229 0.0826315 0.0704366 0.0811072 0.0896801 0.0872648 0.0985043 0.0871416 0.093865
45 2 Si 1.21415 11.3799 51.2378 2.4 1 0.139209 0.0865236 0.0351822 0.0339688 0.046715 0.0438684 0.0576006 0.0415205 0.0573062 0.0635623 0.0736075 0.0692295 0.0753463 0.0675315 0.0923342 0.0896457 0.0749078 0.0871423 0.0752703 0.0599525
46 3 O 1.31634 12.9512 51.3023 -1.2 1 0.141923 0.0745587 0.0327776 0.0396892 0.0346601 0.0394101 0.0442897 0.0688518 0.0520384 0.0683487 0.0444106 0.0773067 0.0701225 0.0637417 0.0719667 0.068389 0.0788198 0.0715425 0.0732522 0.0720988
47 3 O 0.969712 10.5707 57.9821 -1.2 1 0.00511511 0.022342 0.0233915 0.0179424 0.0191828 0.0349194 0.0373802 0.0388465 0.046276 0.0471751 0.0450567 0.0495686 0.0553124 0.0714976 0.0919578 0.0788387 0.0737454 0.0628237 0.0761185 0.0523689
48 3 O -0.115718 10.7564 50.681 -1.2 1 0.183532 0.0894389 0.019816 0.0240699 0.0416679 0.0331961 0.0516589 0.0705113 0.0546665 0.0551384 0.0622557 0.0546159 0.0651362 0.0762315 0.0900627 0.0771749 0.0742414 0.0749857 0.0780434 0.0797026
49 1 Mg -3.26386 9.35564 52.3622 1.2 1 0.0786415 0.0539589 0.0293461 0.0323464 0.0155327 0.0551958 0.0375575 0.0583254 0.0350233 0.0842228 0.0356439 0.0493092 0.0340656 0.0701288 0.040047 0.110957 0.0464759 0.108174 0.0467516 0.0911713
50 3 O 2.45216 10.7265 50.4558 -1.2 1 0.198715 0.0925444 0.0204487 0.018155 0.0338492 0.0602701 0.0608738 0.0449193 0.0578833 0.0690104 0.0659165 0.0703645 0.0521749 0.0711816 0.0965455 0.0801075 0.0745191 0.079856 0.0593392 0.0892073
51 1 Mg -2.1132 9.35382 55.2029 1.2 1 0.0218273 0.0102013 0.0223599 0.0296196 0.0145107 0.0304466 0.0277505 0.0351149 0.0358999 0.0535786 0.0631109 0.0519493 0.062897 0.0617364 0.0706586 0.0665427 0.080291 0.0864231 0.0733241 0.0758949
52 2 Si -1.89329 7.27094 53.2549 2.4 1 0.0493992 0.0403048 0.0222946 0.0202248 0.0354329 0.0370719 0.047334 0.049117 0.0627274 0.0611362 0.0605848 0.0595294 0.0802276 0.0480524 0.0785188 0.0614604 0.0728184 0.0789815 0.0598926 0.0602974
53 3 O -1.89229 5.71579 53.3513 -1.2 1 0.0520746 0.0333826 0.0290481 0.0101552 0.0222966 0.0328599 0.0396294 0.0603549 0.0442501 0.0722738 0.0310289 0.073222 0.0590479 0.0808839 0.0642034 0.0666401 0.0621489 0.0540753 0.0717163 0.0644693
54 3 O -1.19417 8.46968 46.4488 -1.2 1 0.524883 0.0664493 0.0677945 0.0511096 0.0662328 0.0580901 0.080276 0.0549993 0.0748345 0.0702264 0.0564648 0.0510815 0.0700374 0.0980953 0.129937 0.113462 0.0977577 0.0954903 0.0831787 0.082767
55 3 O -3.21281 8.03406 53.8908 -1.2 1 0.0176883 0.0337848 0.0257826 0.0259475 0.0272318 0.0297538 0.055317 0.049871 0.0430487 0.0456098 0.0567555 0.0477908 0.0591987 0.0607973 0.0855003 0.0658615 0.0743513 0.0574601 0.0708487 0.0741012
56 3 O -0.711064 7.97686 54.0311 -1.2 1 0.0355483 0.029274 0.0346243 0.0285088 0.02853 0.0311421 0.0330664 0.0495985 0.0287154 0.0495712 0.0621815 0.0488957 0.0587892 0.0667659 0.0748383 0.0633685 0.075204 0.0699129 0.0754225 0.0587135
57 1 Mg -3.08146 16.4902 57.473 1.2 1 0.0100704 0.0124483 0.0110749 0.0292247 0.00872419 0.0395294 0.0129123 0.0566846 0.0130536 0.0864531 0.0154229 0.0501111 0.0162853 0.070207 0.0223308 0.0984313 0.0260845 0.109029 0.0310681 0.0949594
58 1 Mg -1.6714 16.3544 49.8412 1.2 1 0.238783 0.074506 0.0218095 0.0394805 0.0283929 0.0457947 0.0541847 0.0564278 0.0468479 0.0580262 0.0608016 0.0629417 0.0716411 0.0686028 0.0992398 0.0818306 0.0764186 0.0972922 0.0837056 0.0800748
59 2 Si -1.18567 13.8526 47.9314 2.4 1 0.376381 0.0633309 0.0674797 0.0659891 0.0291653 0.0673932 0.0482317 0.0804633 0.0641381 0.065801 0.0524618 0.073235 0.0604686 0.0761214 0.0977949 0.0753605 0.104345 0.0957779 0.089267 0.0905734
60 3 O -1.09664 15.4205 47.9915 -1.2 1 0.370253 0.0639633 0.0432069 0.0623107 0.0436755 0.0912395 0.0622166 0.080151 0.0540103 0.0881931 0.0543336 0.0741205 0.0601924 0.0780681 0.0784856 0.073245 0.0929227 0.0746564 0.0733392 0.0706496
61 3 O -1.73493 12.7491 51.7772 -1.2 1 0.112258 0.0597012 0.0323947 0.0339146 0.0326958 0.0534582 0.0649591 0.0491895 0.0639348 0.0516638 0.062228 0.0542565 0.0507914 0.0839474 0.0982451 0.0812122 0.0798736 0.0456145 0.0724239 0.0769261
62 3 O -2.36115 13.2717 48.8238 -1.2 1 0.310932 0.0874294 0.0532705 0.0313288 0.0524818 0.0490798 0.0579603 0.0677827 0.0603978 0.0688606 0.072282 0.0639787 0.0583581 0.0573234 0.0844498 0.0848118 0.0857658 0.0777892 0.0826147 0.0894061
63 1 Mg -0.159928 11.7639 46.8533 1.2 1 0.482211 0.0245055 0.0777013 0.0329931 0.0526879 0.0969471 0.0707763 0.0885528 0.0832973 0.0848585 0.0844949 0.0685835 0.07234 0.0924557 0.0775003 0.0858299 0.0969585 0.0982736 0.100957 0.106824
64 3 O 0.2623 13.1866 48.413 -1.2 1 0.354436 0.0653261 0.0450709 0.0438976 0.0410175 0.0507987 0.0487397 0.0613787 0.062448 0.0745139 0.0615702 0.056735 0.0646914 0.0836639 0.0908112 0.0798668 0.0938295 0.0977069 0.0815611 0.083752
65 1 Mg 1.29718 11.6806 54.5145 1.2 1 0.0181843 0.0256016 0.0205476 0.0286902 0.0151419 0.0226761 0.0307247 0.039102 0.0479568 0.0593461 0.0523116 0.0521282 0.056622 0.0701656 0.0698952 0.0679463 0.0685609 0.0919314 0.0699425 0.083909
66 2 Si 1.2667 14.4564 56.2372 2.4 1 0.0187563 0.0116867 0.0208637 0.0188078 0.0271806 0.0305721 0.036286 0.0445478 0.0440748 0.0586603 0.0524974 0.0642549 0.0669949 0.0537545 0.0710646 0.0710588 0.063118 0.0997923 0.0673286 0.0542731
67 3 O 1.18803 12.877 56.3183 -1.2 1 0.0196767 0.0162561 0.0131483 0.0249622 0.0245379 0.0221992 0.0217345 0.0705598 0.0387498 0.0626893 0.0419055 0.0639068 0.0619544 0.0555733 0.0665871 0.0624916 0.0597862 0.0667502 0.0721578 0.0613457
68 3 O 1.36565 15.4813 52.729 -1.2 1 0.0619289 0.042145 0.0318431 0.0234224 0.0258358 0.0491395 0.0528394 0.0529849 0.0532358 0.0467861 0.0488355 0.0510405 0.0580095 0.0689718 0.104599 0.0728468 0.0719281 0.0604303 0.0763656 0.0579107
69 3 O -0.0741519 15.0309 55.7228 -1.2 1 0.0121443 0.0102479 0.0322835 0.0191565 0.020434 0.0260494 0.0390305 0.0483028 0.0424289 0.0532404 0.0513718 0.0397555 0.0577565 0.0724775 0.0742242 0.0863769 0.0763332 0.0710085 0.0634024 0.0713546
70 3 O 2.45196 15.1331 55.5763 -1.2 1 0.0141778 0.0181542 0.0267736 0.0161396 0.0250939 0.0242507 0.0446112 0.0505186 0.0382903 0.0470074 0.0550847 0.0363361 0.0541324 0.0664294 0.075717 0.0752719 0.0727738 0.077588 0.0621798 0.0543011
71 1 Mg -0.206989 14.1049 52.2121 1.2 1 0.102841 0.0664953 0.0275688 0.0428256 0.0307965 0.0413322 0.0357274 0.0732518 0.0244265 0.0880072 0.0264051 0.0581161 0.0302587 0.0764853 0.0327503 0.102941 0.0447755 0.103645 0.0416824 0.104349
72 1 Mg 1.82591 13.8102 49.4556 1.2 1 0.261986 0.108718 0.0360856 0.0424552 0.0360732 0.0383354 0.0680645 0.0454759 0.0673498 0.0735456 0.0749916 0.0565677 0.0731195 0.0698076 0.0810957 0.0905411 0.0750138 0.0962322 0.0886267 0.0873728
73 2 Si 1.29285 16.1518 51.2434 2.4 1 0.142008 0.0810121 0.0336874 0.0375189 0.0303699 0.0503715 0.0578978 0.0410067 0.053131 0.0722978 0.0690291 0.0692168 0.0703877 0.0629988 0.0928434 0.0896921 0.0769374 0.0841323 0.0758847 0.0658675
74 3 O 1.39496 17.7199 51.3047 -1.2 1 0.138436 0.081036 0.0223603 0.0296645 0.0328735 0.0429979 0.0434831 0.0685804 0.0531639 0.0607607 0.0463753 0.078095 0.0636289 0.0641271 0.0771593 0.0696056 0.0780936 0.0766128 0.0697809 0.0690119
75 3 O 1.49507 15.1619 57.845 -1.2 1 0.00611547 0.0222418 0.0170246 0.0281879 0.0147819 0.0374948 0.0347742 0.0381541 0.0578064 0.0388953 0.0421967 0.0434238 0.063247 0.070392 0.101206 0.0721538 0.0682048 0.0584685 0.0659234 0.0508014
76 3 O -0.0269106 15.5178 50.6688 -1.2 1 0.179481 0.0876048 0.0242469 0.021493 0.0442689 0.0427851 0.0536998 0.0646558 0.0554373 0.0593357 0.0581359 0.0493181 0.0653112 0.0768833 0.0936134 0.0810596 0.0750574 0.082479 0.0717037 0.0860856
77 1 Mg -3.18391 14.1057 52.3125 1.2 1 0.0722412 0.0577764 0.0330732 0.0305763 0.0193083 0.0525448 0.0348808 0.0628188 0.0316741 0.0793439 0.0358734 0.0491793 0.0283758 0.0702065 0.0336203 0.111013 0.0431706 0.104498 0.0448827 0.0893752
78 3 O 2.52432 15.503 50.4579 -1.2 1 0.196219 0.0931313 0.0217829 0.0140393 0.0406712 0.0501626 0.0575941 0.0484465 0.0558945 0.0649799 0.0612595 0.070632 0.0563287 0.063586 0.0989668 0.0776045 0.075741 0.0688907 0.0617688 0.0852339
79 1 Mg -1.75775 14.2206 54.9956 1.2 1 0.0184443 0.0108927 0.0232421 0.0283884 0.0186291 0.022501 0.0268106 0.0330299 0.0413774 0.0589469 0.062227 0.0537184 0.058156 0.0669399 0.0581048 0.08944 0.0681143 0.0964848 0.0597966 0.090889
80 2 Si -1.75353 12.0461 53.2538 2.4 1 0.0502964 0.0417963 0.0234815 0.0292593 0.040391 0.0335872 0.0522484 0.0531662 0.0583736 0.0585873 0.0617364 0.0661189 0.0767402 0.0542502 0.0797876 0.0634058 0.0675432 0.0786808 0.0659119 0.0589412
81 3 O -1.70289 10.4819 53.044 -1.2 1 0.0562321 0.0605464 0.0208152 0.0249281 0.0332537 0.0407014 0.0387646 0.0694366 0.0536337 0.0512191 0.0508771 0.0673835 0.0676576 0.0738347 0.0748432 0.0630904 0.0530939 0.0779955 0.0507827 0.0815497
82 3 O -1.21337 13.3381 46.4311 -1.2 1 0.520055 0.0676142 0.0702794 0.0406835 0.0557551 0.0585483 0.0586631 0.0702003 0.0794126 0.0659505 0.0468431 0.0718991 0.0684408 0.0877772 0.120487 0.11447 0.106699 0.0999094 0.0593038 0.0915112
83 3 O -2.95274 12.6709 53.954 -1.2 1 0.019438 0.0300874 0.0287902 0.0278576 0.0272524 0.0261897 0.0526508 0.0440014 0.044632 0.0565692 0.0522984 0.0406756 0.052292 0.0704943 0.0748732 0.0744278 0.0610709 0.0621747 0.0686371 0.0728443
84 3 O -0.465557 12.8418 53.9748 -1.2 1 0.0406329 0.0265793 0.0313464 0.0291378 0.0288568 0.0218731 0.0399932 0.0494469 0.0471533 0.0531156 0.0606847 0.0426833 0.0585934 0.0583348 0.0912552 0.0579058 0.0755023 0.0726952 0.0682636 0.068148
85 1 Mg -3.02165 21.304 57.4064 1.2 1 0.00605204 0.0169591 0.00722359 0.0242002 0.00937549 0.0309866 0.0111004 0.0617646 0.00832964 0.0838085 0.0155092 0.0501489 0.0207614 0.0745186 0.0223627 0.0986492 0.0220071 0.119075 0.0280791 0.0911856
86 1 Mg -1.5831 21.1217 49.8405 1.2 1 0.232956 0.0789874 0.0201752 0.0424725 0.0272259 0.0484477 0.0571727 0.0552454 0.0509924 0.0571276 0.0632551 0.0658259 0.0703232 0.0702355 0.0986088 0.0805971 0.0778902 0.0957251 0.0841574 0.0831871
87 2 Si -1.09384 18.6291 47.9287 2.4 1 0.370759 0.0716669 0.0738638 0.064745 0.0310274 0.0694534 0.0473659 0.0799693 0.0672489 0.068509 0.0519373 0.0739583 0.061103 0.075438 0.09983 0.0756612 0.103988 0.0922745 0.0880763 0.0902836
88 3 O -1.02071 20.1985 47.9911 -1.2 1 0.370332 0.0625183 0.0423388 0.0643673 0.0442397 0.0902479 0.0625576 0.0807208 0.0557133 0.0884018 0.0546566 0.0727801 0.0615167 0.0805715 0.078704 0.0738821 0.0955123 0.0772381 0.0741919 0.0684922
89 3 O -1.65002 17.5002 51.771 -1.2 1 0.112931 0.0591726 0.0328736 0.0282832 0.0334883 0.0494972 0.061512 0.0500277 0.0675975 0.0527085 0.0576133 0.0465518 0.0511377 0.0830921 0.098289 0.0752283 0.0770793 0.0478329 0.0748508 0.0720799
90 3 O -2.26174 18.0434 48.8281 -1.2 1 0.310596 0.085777 0.0523891 0.035223 0.0557835 0.0471706 0.0539058 0.073511 0.0616732 0.067866 0.0710281 0.0593748 0.0537827 0.0570407 0.0778244 0.0819484 0.0832196 0.0814528 0.0843807 0.0880345
91 1 Mg -0.0440435 16.5651 46.8269 1.2 1 0.481038 0.0220985 0.0819772 0.0325258 0.066012 0.0868031 0.0784256 0.0851272 0.0682129 0.0836799 0.086037 0.0630669 0.0628836 0.0776886 0.0771753 0.0943239 0.0941714 0.0963652 0.098753 0.105055
92 3 O 0.37001 17.9877 48.3925 -1.2 1 0.347762 0.0753331 0.0568679 0.0367772 0.048198 0.0613183 0.0405263 0.0666117 0.0643948 0.0735997 0.0605866 0.055901 0.0636888 0.0857416 0.0936046 0.076749 0.0948924 0.102281 0.0778553 0.0818748
93 1 Mg 1.34552 16.6612 54.4102 1.2 1 0.0156275 0.0265745 0.0212543 0.0336107 0.0148395 0.0254933 0.029583 0.0398569 0.0419079 0.0575392 0.0591058 0.0584236 0.0638043 0.0691313 0.0686194 0.0747409 0.0811397 0.0738432 0.0877126 0.0591817
94 2 Si 1.56556 19.2049 56.4073 2.4 1 0.017495 0.0133113 0.0235464 0.027089 0.0242131 0.0277272 0.0381453 0.0453486 0.0522912 0.0540005 0.0530655 0.0654031 0.0685179 0.0542671 0.0762102 0.0709149 0.0615111 0.0919325 0.0574514 0.0589829
95 3 O 1.49325 17.6856 56.4499 -1.2 1 0.019121 0.0117813 0.0245189 0.0205373 0.0282899 0.0252564 0.0251278 0.0682823 0.0378995 0.0497701 0.0399761 0.067776 0.0587282 0.0647049 0.0740812 0.065963 0.0613456 0.0733745 0.0621923 0.0694947
96 3 O 1.45147 20.239 52.7294 -1.2 1 0.0653339 0.049066 0.0244574 0.0203406 0.0251286 0.0424835 0.0494536 0.0511772 0.0519067 0.044854 0.0405278 0.053451 0.0621502 0.0623838 0.101242 0.0726237 0.0723433 0.0614058 0.0687271 0.0635277
97 3 O 0.286409 19.8065 55.7925 -1.2 1 0.0174166 0.00537754 0.0256804 0.0229229 0.0245555 0.0243748 0.0416812 0.0423255 0.0362469 0.0478211 0.0446306 0.0499477 0.0556107 0.0608979 0.0794678 0.0776265 0.0821617 0.0539837 0.0714907 0.064214
98 3 O 2.84075 19.8683 55.6431 -1.2 1 0.015792 0.0103966 0.0155004 0.018034 0.0215779 0.0229981 0.046561 0.0451697 0.0345566 0.0446468 0.0594313 0.0342208 0.0574184 0.0607532 0.0787041 0.0804881 0.0693698 0.0669854 0.0598257 0.0688496
99 1 Mg -0.126194 18.8651 52.2079 1.2 1 0.0993014 0.0709241 0.0234675 0.046044 0.0260259 0.0414097 0.038245 0.0676825 0.0314731 0.0847732 0.0265052 0.0530354 0.0320156 0.0735331 0.0306586 0.103227 0.0477416 0.0991585 0.0429418 0.100364
100 1 Mg 1.92402 18.5815 49.4545 1.2 1 0.272646 0.0980239 0.0399968 0.0397845 0.0359946 0.0337647 0.0652787 0.0503348 0.0720317 0.0738882 0.0803338 0.0557476 0.0652251 0.0624136 0.0841668 0.0929613 0.077784 0.0975652 0.0886132 0.0835623
101 2 Si 1.38106 20.9117 51.2443 2.4 1 0.134974 0.0878204 0.03355 0.0203181 0.0367541 0.0518047 0.053645 0.0452437 0.0514165 0.0647448 0.0680145 0.0730107 0.0686662 0.070164 0.0936815 0.0813424 0.0764856 0.0837122 0.073273 0.0635539
102 3 O 1.48527 22.4795 51.3054 -1.2 1 0.139349 0.0809883 0.0191948 0.0241969 0.0403264 0.0370916 0.044272 0.0728377 0.0492498 0.0610556 0.0497086 0.0805834 0.0626271 0.0676215 0.0794797 0.0693986 0.0738559 0.074285 0.0646617 0.0687738
103 3 O 1.60338 19.9744 57.8906 -1.2 1 0.01942 0.0171805 0.0220041 0.014725 0.0197343 0.0384056 0.0373786 0.0426324 0.0423146 0.0445039 0.0472803 0.0524905 0.0504425 0.0687166 0.0989143 0.0699635 0.0689276 0.0629561 0.0760897 0.0612841
104 3 O 0.0615419 20.2804 50.6669 -1.2 1 0.176987 0.0948036 0.0209918 0.0253757 0.0442362 0.04102 0.0634844 0.0676151 0.0558061 0.0567168 0.0599312 0.04983 0.0654228 0.0764873 0.0945398 0.0828025 0.0749957 0.0829811 0.0727338 0.0879666
105 1 Mg -3.09665 18.8643 52.3122 1.2 1 0.073235 0.057577 0.0360595 0.0352855 0.0166458 0.0549875 0.0364355 0.0589418 0.0346479 0.0817624 0.0361858 0.0470703 0.0247698 0.0737575 0.0348652 0.104952 0.0488316 0.103427 0.0486877 0.0879332
106 3 O 2.61548 20.2646 50.4626 -1.2 1 0.196317 0.0970881 0.022778 0.0174788 0.0414813 0.05429 0.0556188 0.0480323 0.0528154 0.0677247 0.0639046 0.0713357 0.0545465 0.0590673 0.0986234 0.0747043 0.0783455 0.0726832 0.0607215 0.0819419
107 1 Mg -1.41435 18.9134 55.0044 1.2 1 0.0219128 0.0135313 0.0207582 0.028327 0.0161983 0.0275686 0.0220951 0.0310472 0.0414916 0.0664421 0.0540333 0.0541473 0.0605407 0.0652446 0.0609604 0.082841 0.0634633 0.0980949 0.0687139 0.0848679
108 2 Si -1.63788 16.8439 53.1939 2.4 1 0.040968 0.0461544 0.0217505 0.0260479 0.0390266 0.0353225 0.0498096 0.0580089 0.0598337 0.0599865 0.0610004 0.0649752 0.0759634 0.0571267 0.0783147 0.0602285 0.0650239 0.0867378 0.0611245 0.06229
109 3 O -1.68968 15.2917 53.0693 -1.2 1 0.0712297 0.0445284 0.0185866 0.0206188 0.0371835 0.0397732 0.0276805 0.0830069 0.0541359 0.0534478 0.0436062 0.0691752 0.0542932 0.075024 0.0828851 0.066363 0.0502383 0.0703741 0.0626929 0.0798111
110 3 O -1.12868 18.1227 46.4249 -1.2 1 0.521969 0.0661802 0.0728474 0.0520749 0.0574473 0.0651031 0.0610456 0.0791503 0.07964 0.0625238 0.046055 0.0685373 0.0676511 0.0877502 0.117071 0.115405 0.10726 0.100804 0.0630484 0.0930299
111 3 O -2.88322 17.6286 53.9361 -1.2 1 0.0265449 0.0297364 0.0235938 0.0243614 0.0212508 0.0232787 0.0547136 0.0419087 0.0417859 0.0513983 0.0540546 0.0400172 0.0564891 0.0553533 0.0899079 0.0611136 0.0672771 0.0644893 0.0612685 0.0812871
112 3 O -0.335813 17.478 53.8957 -1.2 1 0.0365526 0.0339001 0.0248793 0.0226151 0.0256529 0.0228928 0.03813 0.0462573 0.0471604 0.052924 0.0582489 0.0420919 0.0608557 0.0660848 0.09127 0.0646541 0.0808206 0.0716593 0.0730117 0.0683334
113 1 Mg -2.98497 25.8427 57.3302 1.2 1 0.0122873 0.0105139 0.0162871 0.0245789 0.00939761 0.0313936 0.0200865 0.0553968 0.0196288 0.0786379 0.0229839 0.0512647 0.0214279 0.0694111 0.0307367 0.0926543 0.0431043 0.113571 0.0422741 0.0952915
114 1 Mg -1.48778 25.88 49.8402 1.2 1 0.229243 0.082378 0.0218968 0.0420791 0.0287254 0.0506864 0.0536111 0.0534534 0.0506432 0.0592268 0.0614196 0.0675153 0.0744866 0.0734251 0.0995072 0.0801654 0.0756342 0.0978964 0.0830393 0.0816385
115 2 Si -1.00491 23.3922 47.9274 2.4 1 0.378181 0.0607584 0.0664758 0.0724412 0.0317841 0.0708857 0.0429176 0.0823145 0.0685309 0.0741251 0.0561217 0.0779734 0.0594931 0.0719542 0.0933866 0.0761207 0.10083 0.0962141 0.0908299 0.0929442
116 3 O -0.927602 24.9615 47.9909 -1.2 1 0.368451 0.0670085 0.0499448 0.0596142 0.0483006 0.092401 0.0622652 0.0824174 0.0570359 0.0881799 0.0522055 0.0699051 0.0637971 0.0822775 0.0759362 0.0711695 0.0937083 0.0731442 0.0754219 0.0703661
117 3 O -1.55795 22.2588 51.7696 -1.2 1 0.111063 0.0572377 0.0356021 0.0314921 0.0374085 0.0471431 0.0635859 0.0507495 0.067382 0.0530493 0.0576736 0.048185 0.05099 0.0827001 0.10181 0.0759518 0.0785672 0.0453438 0.075983 0.0695552
118 3 O -2.17411 22.8111 48.8277 -1.2 1 0.308798 0.0894604 0.0581614 0.0305042 0.0584831 0.0421948 0.0563226 0.072758 0.0636431 0.0677538 0.0724575 0.0572966 0.0474425 0.0565995 0.0787111 0.0850987 0.0843491 0.0800684 0.0877133 0.0887327
119 1 Mg 0.0423997 21.3296 46.8225 1.2 1 0.484453 0.0200221 0.0797405 0.0297774 0.0612959 0.0844935 0.0726727 0.0819285 0.0708135 0.0847951 0.0854172 0.0636945 0.0653795 0.0794534 0.0765453 0.0938135 0.097854 0.100383 0.100597 0.105913
120 3 O 0.458537 22.7495 48.3911 -1.2 1 0.346688 0.0781503 0.0594194 0.0313954 0.0484552 0.061458 0.0422129 0.0662778 0.0640538 0.0759281 0.0637073 0.0576345 0.0666597 0.0869202 0.095876 0.0781647 0.0941635 0.101499 0.078664 0.0852556
121 1 Mg 1.6309 21.3195 54.5614 1.2 1 0.00816703 0.0216209 0.0189063 0.0275396 0.0129936 0.0216166 0.0205859 0.038831 0.0460354 0.0575154 0.0660291 0.05417 0.0595103 0.0665834 0.068499 0.0823229 0.0757259 0.0873747 0.0743334 0.0757674
122 2 Si 1.3552 23.8336 56.3294 2.4 1 0.00856449 0.0179243 0.021918 0.0168368 0.0333362 0.0294474 0.0379766 0.0401261 0.0495222 0.0602099 0.0575889 0.0568849 0.0637049 0.0529992 0.0744988 0.0766511 0.062966 0.0850198 0.0634126 0.0532674
123 3 O 1.46298 22.2815 56.5259 -1.2 1 0.0154249 0.0184491 0.0118469 0.0236861 0.0220453 0.0308288 0.0239891 0.0692216 0.0407729 0.0521093 0.0432899 0.0679393 0.053341 0.0631915 0.0820179 0.0686899 0.0619052 0.0764838 0.0594152 0.0753676
124 3 O 1.54441 24.9963 52.7297 -1.2 1 0.0667033 0.0465205 0.0304739 0.0174483 0.0306917 0.0403269 0.0460035 0.060127 0.0524149 0.0479188 0.0463305 0.0451129 0.0540715 0.0654071 0.101683 0.0760187 0.0682241 0.0593268 0.0708893 0.0607363
125 3 O 0.157921 24.5283 55.6831 -1.2 1 0.0077138 0.0163028 0.0280275 0.0179062 0.0235508 0.0283077 0.0501669 0.0456002 0.0367973 0.051072 0.0535203 0.0374524 0.0513866 0.0587872 0.0761516 0.0727331 0.0693781 0.0603373 0.0594406 0.0727513
126 3 O 2.7669 24.5371 55.9301 -1.2 1 0.0184924 0.0118695 0.0358688 0.0199622 0.0253557 0.0175634 0.0428146 0.0404122 0.0447558 0.0403356 0.0518503 0.0453696 0.0453722 0.0792782 0.0769988 0.0703145 0.0864188 0.0571939 0.0684672 0.0627298