ITEM: TIMESTEP
35900
ITEM: NUMBER OF ATOMS
10500
ITEM: BOX BOUNDS xy xz yz pp pp pp
0	8.9688	2.9896
0	118.725	0
0	252.977	0
ITEM: ATOMS id type element xu yu zu q Q_1 Q_2 Q_3 Q_4 Q_5 Q_6 Q_7 Q_8 Q_9 Q_10 Q_11 Q_12 Q_13 Q_14 Q_15 Q_16 Q_17 Q_18 Q_19 Q_20 Q_21
1 1 Mg -3.46094 7.09016 57.2641 1.2 1 0.0117126 0.0158004 0.0098217 0.0244705 0.00960473 0.0264483 0.0170064 0.0541946 0.0192781 0.07498 0.023281 0.0472093 0.0173343 0.0614204 0.0317693 0.0967382 0.0403087 0.100171 0.0438806 0.0921481
2 1 Mg -1.82655 6.90154 50.0912 1.2 1 0.216101 0.0906702 0.0289868 0.0386591 0.0328852 0.0518621 0.0511711 0.04637 0.0551514 0.0726562 0.0546786 0.0690331 0.0725549 0.0625433 0.0968656 0.0635593 0.0871917 0.0969347 0.0714251 0.0758317
3 2 Si -0.257935 3.96038 48.0876 2.4 1 0.37155 0.0735874 0.0750863 0.0347612 0.0610925 0.0529869 0.0739225 0.0774567 0.0590546 0.0791532 0.0556135 0.0670781 0.0631778 0.0857471 0.0964325 0.0983483 0.109039 0.0904601 0.0696126 0.0728151
4 3 O -0.335812 5.46814 47.6264 -1.2 1 0.426903 0.0396274 0.0654749 0.0302395 0.0406632 0.0486107 0.0658552 0.071524 0.0878128 0.0763917 0.0922537 0.0753723 0.0701959 0.0687115 0.0922696 0.124201 0.0926598 0.0796044 0.0764413 0.0788696
5 3 O -2.03793 3.43377 51.8941 -1.2 1 0.115876 0.0605118 0.0277359 0.019597 0.0194486 0.047637 0.0652984 0.0485636 0.0498755 0.0546911 0.0669901 0.0502465 0.048956 0.0776673 0.0881953 0.0855258 0.0671391 0.0559868 0.071222 0.0669147
6 3 O -1.54015 3.53929 48.9521 -1.2 1 0.300993 0.0920886 0.0331394 0.0482295 0.0309671 0.0503156 0.0739244 0.0485567 0.0553911 0.0622746 0.0737386 0.068173 0.0715379 0.0672955 0.0723583 0.110342 0.083155 0.0782825 0.072421 0.0908771
7 1 Mg 1.82954 2.54582 47.1376 1.2 1 0.465883 0.0218511 0.0806031 0.0494252 0.0351847 0.0829191 0.060128 0.0590216 0.0760613 0.0881135 0.0678488 0.0768345 0.0819614 0.0847705 0.0708175 0.0967268 0.101434 0.104429 0.105216 0.0990462
8 3 O 1.22989 3.66364 48.7877 -1.2 1 0.317979 0.074297 0.0218664 0.0467021 0.0310181 0.0641596 0.0806655 0.0318304 0.081119 0.0785567 0.0536774 0.0775305 0.0815873 0.0692566 0.0682862 0.0865941 0.0937255 0.0903435 0.0945162 0.0914168
9 1 Mg 0.994617 2.25575 54.534 1.2 1 0.0176132 0.022992 0.0181607 0.0302176 0.0208502 0.0339504 0.0206003 0.036687 0.0422759 0.0583251 0.0582552 0.0585784 0.057329 0.0713284 0.0685269 0.0723222 0.0699919 0.090455 0.0749184 0.0762974
10 2 Si 1.01922 5.0354 56.404 2.4 1 0.0151396 0.0189652 0.0248354 0.0260915 0.0267045 0.0293654 0.0387507 0.0456345 0.0584372 0.050674 0.0497402 0.0660328 0.0716011 0.0489882 0.0820395 0.0657118 0.0614762 0.0992652 0.0541846 0.0576191
11 3 O 0.938096 3.44973 56.4585 -1.2 1 0.0106589 0.0167834 0.0160311 0.026938 0.0285969 0.0262447 0.0226129 0.0564361 0.0434217 0.0527598 0.0408211 0.0601051 0.0539031 0.0519231 0.0681773 0.0692081 0.0553845 0.0719053 0.0617163 0.0684323
12 3 O 1.10813 6.07342 52.8172 -1.2 1 0.0854301 0.0455706 0.0300508 0.0208877 0.0184245 0.0484581 0.043167 0.0568105 0.052618 0.0394139 0.0548812 0.0569445 0.0681606 0.0682253 0.0892775 0.0797718 0.0588526 0.0728857 0.0634916 0.0717995
13 3 O -0.236942 5.68942 55.8223 -1.2 1 0.00201504 0.00883356 0.0276964 0.0157714 0.0216885 0.0197876 0.0377845 0.0388214 0.0370271 0.0445824 0.0485399 0.0461679 0.059142 0.053211 0.084817 0.0683852 0.0726428 0.0596569 0.0652802 0.0663674
14 3 O 2.37984 5.66774 55.7365 -1.2 1 0.0229677 0.0147627 0.0373749 0.0201704 0.0217193 0.0187371 0.0443865 0.0428268 0.0461784 0.0444495 0.0534496 0.0364791 0.0559233 0.0640126 0.0849186 0.0829617 0.0664617 0.0753142 0.0634139 0.0673718
15 1 Mg -0.459401 4.67631 52.2426 1.2 1 0.0877762 0.0679159 0.0343141 0.0419816 0.0327563 0.029029 0.0390913 0.0621 0.0419129 0.0839355 0.0436784 0.0604116 0.0444421 0.0768338 0.0450211 0.101568 0.0523699 0.0924362 0.061729 0.0859284
16 1 Mg 2.79456 3.9971 49.9987 1.2 1 0.226095 0.0910056 0.0309413 0.0380081 0.0418508 0.0611871 0.0577276 0.055023 0.0809459 0.0612704 0.0596448 0.0575621 0.064059 0.0713012 0.08787 0.0787717 0.0727458 0.0883009 0.08356 0.0708894
17 2 Si 1.16169 6.59457 51.2556 2.4 1 0.137737 0.0884379 0.0364592 0.0299777 0.0427588 0.0500245 0.0459389 0.0435591 0.0581832 0.0635151 0.0636187 0.0753281 0.0699439 0.0642685 0.0884445 0.0909424 0.0798671 0.0907246 0.0750559 0.0620879
18 3 O 1.28989 8.18905 51.2909 -1.2 1 0.147325 0.0807901 0.0262421 0.0395528 0.0337553 0.046635 0.0377534 0.0709621 0.0494887 0.0699971 0.0430571 0.0890206 0.0718319 0.0611925 0.0771493 0.0718639 0.0748615 0.0661074 0.0669749 0.0706949
19 3 O 1.14737 5.57456 57.9445 -1.2 1 0.013496 0.0206386 0.0223821 0.0217075 0.0181109 0.0329978 0.0277906 0.0406926 0.0555046 0.0462408 0.0382626 0.0458767 0.0549379 0.0660858 0.0976251 0.0737411 0.0654213 0.0604316 0.0698923 0.0640916
20 3 O -0.184847 6.06029 50.6845 -1.2 1 0.187227 0.0856858 0.022426 0.030623 0.0363871 0.0342275 0.0514398 0.0543064 0.0566984 0.0578977 0.0623598 0.0774749 0.0664741 0.0583774 0.0881074 0.0702295 0.080317 0.0741351 0.0635114 0.0785876
21 1 Mg -3.49704 4.67769 52.6661 1.2 1 0.0683454 0.0562338 0.0266569 0.0240064 0.0167262 0.039801 0.0405527 0.0564813 0.0554404 0.0668512 0.0490085 0.0499097 0.046463 0.0463294 0.0587458 0.087315 0.0872104 0.0742756 0.0736493 0.0702419
22 3 O 2.48581 5.93312 50.6539 -1.2 1 0.191584 0.0941448 0.0333379 0.0171035 0.036625 0.045454 0.0599047 0.0583961 0.0452385 0.0661372 0.0479324 0.0637097 0.0548582 0.0607796 0.102906 0.0728328 0.0783829 0.0693094 0.0783958 0.0762165
23 1 Mg -1.92967 4.53885 55.2426 1.2 1 0.0186366 0.0154844 0.0211093 0.0270611 0.0144396 0.0203309 0.0274924 0.0386425 0.0430922 0.0500266 0.0509451 0.054902 0.0610249 0.0626259 0.05928 0.0654214 0.0825406 0.102885 0.0579348 0.0745522
24 2 Si -1.97613 2.61046 53.322 2.4 1 0.0407697 0.0333721 0.0310174 0.0294187 0.0301237 0.0254066 0.0489612 0.0469121 0.0609374 0.0715897 0.0586593 0.0662965 0.0795644 0.0486325 0.0750571 0.0570774 0.0683656 0.0844753 0.0783382 0.0644944
25 3 O -1.91658 1.07249 53.1882 -1.2 1 0.0530484 0.0393346 0.0266441 0.0260127 0.0206613 0.0384343 0.0297391 0.0600817 0.0555209 0.0616982 0.04829 0.0657471 0.0618254 0.0728001 0.0768517 0.0737653 0.0514003 0.0685167 0.0674283 0.0706067
26 3 O -0.0467762 2.97103 46.8385 -1.2 1 0.497656 0.0371972 0.0881393 0.0289819 0.0794512 0.0674908 0.0814973 0.0725371 0.0722693 0.0783312 0.0809838 0.0756646 0.0976249 0.0888165 0.088038 0.0888879 0.100005 0.0967916 0.10409 0.110607
27 3 O -3.25383 3.19693 54.1567 -1.2 1 0.0202119 0.0234027 0.0247509 0.0230721 0.0253273 0.0282667 0.0324031 0.0464167 0.0492879 0.0595108 0.0611314 0.0434299 0.0591118 0.0677001 0.0771504 0.0690582 0.0618897 0.0685876 0.0621107 0.0567154
28 3 O -0.765894 3.32262 54.0262 -1.2 1 0.0408476 0.0194072 0.0366743 0.0156998 0.0192885 0.0297519 0.0403038 0.0417351 0.0422781 0.0523287 0.0631506 0.0423392 0.0494342 0.0712062 0.0814995 0.0734693 0.0761418 0.072182 0.0642037 0.05746
29 1 Mg -3.34883 11.8126 57.4645 1.2 1 0.00553294 0.0167443 0.00654425 0.0316459 0.00979997 0.0313737 0.010099 0.0566767 0.0120373 0.0815446 0.0142577 0.0479107 0.0159868 0.0702946 0.0192578 0.104452 0.0274815 0.111883 0.019336 0.0970587
30 1 Mg -1.75014 11.5838 49.8362 1.2 1 0.234026 0.0765654 0.0275599 0.0402467 0.0316997 0.0521102 0.0495919 0.0552694 0.0455729 0.0581119 0.0642444 0.0626823 0.0703304 0.070728 0.108694 0.0908666 0.0647381 0.093798 0.0871519 0.0790658
31 2 Si -1.18003 9.02138 47.9309 2.4 1 0.367423 0.0710441 0.0693413 0.0544556 0.0409353 0.059814 0.0734443 0.0781529 0.0702907 0.0660887 0.059484 0.0665763 0.0673136 0.0810488 0.103287 0.0633363 0.0990252 0.093014 0.10507 0.0864559
32 3 O -1.23224 10.5991 47.9811 -1.2 1 0.37973 0.0581446 0.0539492 0.0571448 0.0508723 0.0697535 0.0677068 0.0773458 0.0582454 0.0872034 0.0702202 0.0637915 0.072311 0.0784438 0.0803035 0.0669995 0.0892915 0.0812415 0.066634 0.0735815
33 3 O -1.79016 8.01447 51.8693 -1.2 1 0.109465 0.0642127 0.0302172 0.0329738 0.028537 0.0487526 0.0600139 0.0547231 0.0578466 0.0511991 0.0501659 0.0514603 0.0641912 0.0872994 0.0941678 0.075765 0.068831 0.047916 0.0761322 0.0733951
34 3 O -2.30986 8.37215 48.8528 -1.2 1 0.311711 0.0879784 0.0670448 0.0248856 0.0536488 0.0617652 0.0675569 0.0658773 0.0578914 0.0658881 0.0786009 0.0662079 0.0556483 0.0625636 0.0777357 0.0908419 0.0963772 0.0799476 0.0777636 0.0962814
35 1 Mg 0.154883 7.08234 46.8007 1.2 1 0.492824 0.0288586 0.0818641 0.0384198 0.0632531 0.0724719 0.0585423 0.0728761 0.0723655 0.079231 0.0870394 0.0766785 0.0790957 0.0784565 0.0701919 0.0946617 0.0927489 0.104559 0.11133 0.101307
36 3 O 0.325447 8.50934 48.3809 -1.2 1 0.343135 0.0849934 0.0628318 0.0405227 0.0370642 0.0558194 0.0391546 0.0608019 0.0613605 0.0651525 0.0742108 0.0630851 0.0794686 0.0921572 0.0912205 0.070536 0.0929158 0.101401 0.0860093 0.0883103
37 1 Mg 1.0099 7.18026 54.5707 1.2 1 0.00834985 0.0410509 0.0201321 0.0383898 0.0210632 0.0273052 0.0200128 0.0336334 0.0378153 0.0594898 0.059852 0.0531685 0.0497534 0.0683785 0.0601511 0.0847644 0.0730732 0.0724097 0.0861191 0.0763531
38 2 Si 1.05812 9.83555 56.41 2.4 1 0.0231898 0.0222745 0.0220393 0.0218734 0.0330008 0.0335974 0.0452971 0.0405427 0.0520372 0.0503518 0.0531634 0.0683149 0.0663887 0.0598739 0.0788573 0.0740902 0.0562664 0.0940045 0.0588463 0.0507826
39 3 O 1.01655 8.23256 56.504 -1.2 1 0.0192197 0.0151073 0.0169208 0.0257073 0.0316016 0.027884 0.0221015 0.058779 0.0364111 0.0494308 0.0419151 0.0666613 0.0540399 0.0679025 0.0718127 0.0610307 0.0631684 0.0725609 0.060284 0.0724088
40 3 O 1.28624 10.7248 52.7351 -1.2 1 0.0720398 0.044235 0.0320538 0.0242059 0.0247891 0.0500931 0.0468567 0.0487868 0.045784 0.0460494 0.0523747 0.0455995 0.0589652 0.0723375 0.097672 0.0784308 0.0702007 0.055155 0.0758598 0.0618788
41 3 O -0.253847 10.5262 55.74 -1.2 1 0.010978 0.0139818 0.0281433 0.0184637 0.0200459 0.0192546 0.0439877 0.0391292 0.0407443 0.0474076 0.0530145 0.0383619 0.0567195 0.0488071 0.0969597 0.0733159 0.0647623 0.0717069 0.0569658 0.0794545
42 3 O 2.40765 10.5045 55.865 -1.2 1 0.0234396 0.0192715 0.0360682 0.0169805 0.0210775 0.0218678 0.0452746 0.0455367 0.0401659 0.0384094 0.0510284 0.0469123 0.0519082 0.059187 0.092334 0.0701317 0.0763649 0.0547038 0.0737622 0.0661332
43 1 Mg -0.262694 9.34741 52.2523 1.2 1 0.112759 0.0668473 0.021116 0.0398726 0.0272775 0.0468557 0.0382508 0.0714929 0.0266332 0.0862982 0.0288383 0.0542386 0.0389531 0.0756005 0.0396311 0.109102 0.0464214 0.0952155 0.0497343 0.105776
44 1 Mg 1.87648 9.01537 49.4629 1.2 1 0.273556 0.0949289 0.0402632 0.0383472 0.029187 0.0492288 0.0692319 0.0454247 0.0773278 0.0642562 0.0810463 0.0532172 0.0845394 0.0698094 0.0850531 0.0915602 0.086618 0.0971365 0.0870231 0.0910973
45 2 Si 1.21415 11.3799 51.2378 2.4 1 0.14471 0.0812538 0.0364066 0.0338495 0.0420026 0.0466839 0.0559743 0.0398501 0.0562618 0.0630896 0.0720627 0.0693343 0.0745898 0.0692953 0.0934625 0.0900076 0.0736985 0.0863404 0.0794878 0.0587248
46 3 O 1.31634 12.9512 51.3023 -1.2 1 0.125034 0.0916135 0.0230101 0.0332017 0.0338458 0.044179 0.0440606 0.0715333 0.0598046 0.0628117 0.0439824 0.0819817 0.069575 0.0676154 0.0782361 0.0734595 0.0788479 0.0762076 0.0751933 0.0697439
47 3 O 1.0592 10.5554 57.9116 -1.2 1 0.00662903 0.0156455 0.0240171 0.0140522 0.0223567 0.0322665 0.0417516 0.0385326 0.0489274 0.0423053 0.0412404 0.0482225 0.0496138 0.0677797 0.104635 0.0730126 0.0762874 0.0579323 0.0609803 0.057023
48 3 O -0.115718 10.7564 50.681 -1.2 1 0.198702 0.0747682 0.0234807 0.0167579 0.0441635 0.035776 0.0507243 0.0593503 0.0499914 0.0553237 0.061715 0.0491705 0.0618527 0.0730307 0.0877903 0.0773546 0.0722179 0.0791887 0.0774983 0.0817992
49 1 Mg -3.26386 9.35564 52.3622 1.2 1 0.0811179 0.0588524 0.0246336 0.0305805 0.016395 0.0516812 0.0376261 0.0560816 0.0346968 0.0819837 0.0355754 0.0491347 0.034752 0.0652703 0.0352146 0.114673 0.0458405 0.101054 0.0504579 0.0936873
50 3 O 2.45216 10.7265 50.4558 -1.2 1 0.205445 0.081981 0.0258967 0.0171675 0.0367171 0.0584647 0.054023 0.0416552 0.0575679 0.0702263 0.0654002 0.0699951 0.0541987 0.0673054 0.0932477 0.0811045 0.0723966 0.0745353 0.0573913 0.0888102
51 1 Mg -1.9624 9.40824 55.1604 1.2 1 0.0239406 0.0139273 0.0182792 0.0251798 0.0108786 0.0219989 0.0258264 0.0330281 0.0397714 0.0513237 0.0526765 0.0547766 0.062082 0.0626651 0.0631357 0.0690835 0.0786605 0.100413 0.0701347 0.0843998
52 2 Si -1.80158 7.3928 53.3424 2.4 1 0.0477941 0.0404144 0.0295109 0.0308928 0.0332078 0.0340852 0.0417897 0.0514527 0.0631519 0.0579218 0.0603452 0.0563007 0.0782638 0.047579 0.0636483 0.0689656 0.0628762 0.0845782 0.0660739 0.0589583
53 3 O -1.89078 5.90599 53.1217 -1.2 1 0.0608032 0.0485828 0.0243973 0.0115907 0.0233805 0.0283549 0.043743 0.0605772 0.0608708 0.0522209 0.0427764 0.0813573 0.0493072 0.0762684 0.0736893 0.0670542 0.0561292 0.068759 0.0537981 0.0771144
54 3 O -1.19417 8.46968 46.4488 -1.2 1 0.525069 0.0668102 0.0668153 0.0518709 0.0671102 0.0556336 0.0777224 0.0543983 0.0756508 0.0704428 0.0564591 0.0515477 0.0702954 0.0979546 0.129476 0.112875 0.0978913 0.0960841 0.0828328 0.0820598
55 3 O -3.07986 8.08124 54.0974 -1.2 1 0.0335753 0.0210433 0.026933 0.0158844 0.018526 0.0315024 0.0414359 0.044068 0.0398906 0.0569041 0.055865 0.0350385 0.0649318 0.0615808 0.079459 0.0739313 0.0691629 0.0727674 0.0689066 0.0671758
56 3 O -0.527061 8.11501 54.0227 -1.2 1 0.0600786 0.0273489 0.0175316 0.0204708 0.0284193 0.0267774 0.0354885 0.0429118 0.0426359 0.0505676 0.0639987 0.0442435 0.0624336 0.0523552 0.0831994 0.0616195 0.0714645 0.069699 0.0662947 0.0734893
57 1 Mg -3.22614 16.4761 57.378 1.2 1 0.00886132 0.0135324 0.0116137 0.0313021 0.0104167 0.0375924 0.0128275 0.057558 0.0172543 0.0816507 0.0195368 0.0531923 0.021514 0.0724492 0.0178158 0.104028 0.0245902 0.105355 0.0308533 0.0930274
58 1 Mg -1.6714 16.3544 49.8412 1.2 1 0.233002 0.0781682 0.0268604 0.040635 0.0326322 0.0504261 0.052112 0.0562452 0.0461592 0.0621918 0.0624899 0.0664582 0.0717274 0.0757604 0.105669 0.0845603 0.0715539 0.0955615 0.0847983 0.0839713
59 2 Si -1.18567 13.8526 47.9314 2.4 1 0.379701 0.0596605 0.0690032 0.0648031 0.0288012 0.0673041 0.0449761 0.0774224 0.0593481 0.0668976 0.0537091 0.0715953 0.0578698 0.0742523 0.0975004 0.07374 0.102122 0.0965766 0.0914163 0.0901796
60 3 O -1.09664 15.4205 47.9915 -1.2 1 0.36612 0.0699815 0.0485983 0.0632389 0.0441769 0.0912684 0.063426 0.0828097 0.0551931 0.087767 0.0539439 0.0722138 0.0617716 0.0839493 0.0826572 0.0733505 0.092972 0.0770622 0.0755978 0.0711793
61 3 O -1.73493 12.7491 51.7772 -1.2 1 0.11404 0.0577128 0.0308906 0.0323861 0.0303027 0.0534109 0.0631885 0.0516624 0.0658068 0.0508776 0.0576032 0.0520609 0.0500495 0.0855567 0.103817 0.0784873 0.0808935 0.0481103 0.0703545 0.0696391
62 3 O -2.36115 13.2717 48.8238 -1.2 1 0.303964 0.0966708 0.0604954 0.0246476 0.0574016 0.0477564 0.0614477 0.0726551 0.0617043 0.0681188 0.0738687 0.0612685 0.0577459 0.0578755 0.0818644 0.0879227 0.0871321 0.0774491 0.0835254 0.0874587
63 1 Mg -0.159928 11.7639 46.8533 1.2 1 0.485508 0.0219393 0.0751286 0.0319156 0.0479827 0.0947968 0.0658525 0.0845005 0.0832117 0.0845957 0.0832696 0.069572 0.0745121 0.0936873 0.077722 0.0853334 0.0978102 0.0986507 0.100053 0.106856
64 3 O 0.2623 13.1866 48.413 -1.2 1 0.33984 0.0839455 0.0560951 0.04105 0.0437109 0.0562345 0.0401314 0.0655711 0.0685202 0.0694954 0.0625163 0.0608349 0.0651445 0.0887058 0.0995409 0.0818091 0.0921428 0.0948085 0.0852231 0.0913228
65 1 Mg 1.24376 11.9195 54.5903 1.2 1 0.0137392 0.0247 0.0188732 0.0296418 0.013386 0.0194257 0.0210146 0.0320638 0.0488442 0.0594651 0.0628463 0.0521825 0.058829 0.0620153 0.0630951 0.0886226 0.0704248 0.0903861 0.0826752 0.0711491
66 2 Si 1.09001 14.5191 56.458 2.4 1 0.0111786 0.0117959 0.0308555 0.0277706 0.0347277 0.0294939 0.0396175 0.0431652 0.0532951 0.0469096 0.0508586 0.0580297 0.0674102 0.0583406 0.0795828 0.0700746 0.0593231 0.0941251 0.0637573 0.0506724
67 3 O 0.991003 13.0194 56.514 -1.2 1 0.0276094 0.01638 0.0211302 0.0178903 0.0234597 0.0350876 0.027657 0.0551957 0.0440233 0.060631 0.0478283 0.0671634 0.058314 0.064509 0.073406 0.062628 0.0737292 0.0632717 0.0658264 0.0730699
68 3 O 1.36565 15.4813 52.729 -1.2 1 0.0663649 0.0406711 0.031031 0.0192264 0.0266574 0.0441687 0.0481461 0.05396 0.052471 0.0487561 0.0500252 0.0507287 0.0576081 0.0687833 0.102302 0.073238 0.071369 0.0625971 0.0758837 0.0616944
69 3 O -0.14545 15.2743 55.7054 -1.2 1 0.0162692 0.0124532 0.0273794 0.0164607 0.0114121 0.0237072 0.038724 0.0429185 0.0437052 0.0421582 0.0579351 0.0370678 0.0490007 0.043877 0.0975339 0.0788974 0.0649851 0.0686753 0.0503103 0.0763987
70 3 O 2.38737 15.1221 55.7575 -1.2 1 0.0210707 0.0153102 0.0264857 0.0190853 0.0251501 0.0245106 0.0420333 0.0443026 0.036476 0.0420834 0.0545846 0.0435117 0.0499501 0.0633081 0.0823195 0.0744518 0.0823832 0.0618271 0.0676192 0.0642117
71 1 Mg -0.206989 14.1049 52.2121 1.2 1 0.104834 0.0646522 0.0262691 0.0434931 0.0269934 0.0438178 0.0353464 0.07111 0.0259077 0.0885207 0.0289232 0.0590918 0.0266701 0.0769251 0.0336513 0.102802 0.036446 0.10883 0.03932 0.10469
72 1 Mg 1.82591 13.8102 49.4556 1.2 1 0.266397 0.100676 0.0276801 0.0384597 0.032595 0.0347093 0.068278 0.0440579 0.0679396 0.0768934 0.0790369 0.0605446 0.0785563 0.0732836 0.0833349 0.0907086 0.0793356 0.0970983 0.0891389 0.085427
73 2 Si 1.29285 16.1518 51.2434 2.4 1 0.13164 0.0839741 0.0380765 0.0365967 0.0435646 0.0431951 0.0556503 0.0471253 0.0542258 0.0683775 0.0649962 0.0690552 0.0710983 0.0684068 0.0895398 0.0838129 0.0731788 0.0865794 0.0680222 0.0648092
74 3 O 1.39496 17.7199 51.3047 -1.2 1 0.129368 0.0788348 0.0320901 0.0310266 0.0348129 0.0467804 0.0436321 0.072091 0.0591029 0.0687113 0.0422094 0.0765688 0.0739041 0.0681571 0.0753088 0.0678787 0.0779946 0.0768113 0.071129 0.0715547
75 3 O 1.23039 15.1673 57.9245 -1.2 1 0.0136095 0.0200256 0.0247821 0.0153386 0.0167676 0.0354401 0.0384215 0.0428828 0.0456579 0.0446291 0.040327 0.0501397 0.0521479 0.065127 0.102946 0.0669707 0.0678164 0.061868 0.0706244 0.0628226
76 3 O -0.0269106 15.5178 50.6688 -1.2 1 0.174971 0.095021 0.0181229 0.0285658 0.0420609 0.0410897 0.0610291 0.0622658 0.0608496 0.0584805 0.0604355 0.0491412 0.0632696 0.0801291 0.093426 0.0824571 0.0756933 0.0819195 0.0750821 0.0885655
77 1 Mg -3.18391 14.1057 52.3125 1.2 1 0.0808336 0.052708 0.0325018 0.0326291 0.020639 0.0531413 0.0332794 0.0617779 0.032985 0.0799466 0.0371094 0.0507537 0.0254067 0.0773737 0.0252438 0.108533 0.0435377 0.106177 0.0398251 0.0880443
78 3 O 2.52432 15.503 50.4579 -1.2 1 0.201329 0.0882278 0.028101 0.0169431 0.0332236 0.0596212 0.0609289 0.0464163 0.0531997 0.0646849 0.0658592 0.0655606 0.0539744 0.0626809 0.100128 0.0798615 0.0730526 0.0690026 0.0625863 0.0885806
79 1 Mg -1.87371 14.1021 55.0541 1.2 1 0.0234975 0.011763 0.0238125 0.0236176 0.0136188 0.0253089 0.0247075 0.0277329 0.0438261 0.0592759 0.0548552 0.0585451 0.0568215 0.0602017 0.060611 0.0819508 0.0706131 0.0994868 0.0693787 0.0911252
80 2 Si -1.78528 11.9451 53.1563 2.4 1 0.0628838 0.0372536 0.0260959 0.0316217 0.0333345 0.0323617 0.0470958 0.0530062 0.0470326 0.0752268 0.06115 0.0626823 0.0705866 0.0490595 0.0822791 0.060589 0.0754448 0.0797829 0.0625365 0.0640624
81 3 O -1.7843 10.4541 53.2041 -1.2 1 0.0618015 0.0436146 0.0197994 0.0278585 0.020815 0.0352876 0.0317671 0.0799942 0.0458669 0.0592571 0.039667 0.0669905 0.0631264 0.0731509 0.0786475 0.062616 0.0564632 0.0665921 0.0632211 0.0724746
82 3 O -1.21337 13.3381 46.4311 -1.2 1 0.520148 0.0680322 0.0700667 0.0404572 0.0557935 0.0588448 0.0593054 0.0702869 0.0788761 0.0651158 0.0451348 0.0705131 0.0676129 0.0876153 0.120282 0.114135 0.106448 0.100029 0.0602319 0.0917448
83 3 O -3.0013 12.7566 53.9282 -1.2 1 0.0366425 0.0241709 0.0311269 0.0276234 0.0226509 0.0291074 0.0475693 0.0461467 0.0462033 0.0538587 0.0491577 0.0435974 0.051097 0.0632255 0.0744784 0.0687024 0.0649885 0.0631186 0.070421 0.0690071
84 3 O -0.365262 12.7319 53.8797 -1.2 1 0.0460109 0.0247212 0.0264167 0.0234096 0.0226419 0.0192652 0.0399706 0.0489986 0.0503271 0.0555346 0.0549297 0.0409754 0.0605768 0.0608214 0.085883 0.0644882 0.0805869 0.0652843 0.0632405 0.0729212
85 1 Mg -2.95162 21.1866 57.3201 1.2 1 0.0126174 0.0187497 0.00716804 0.0312046 0.0101348 0.031639 0.00996013 0.0529968 0.0229503 0.0800757 0.0235719 0.0522894 0.0198841 0.0653303 0.0292475 0.0961269 0.0418331 0.106475 0.0453727 0.0864468
86 1 Mg -1.5831 21.1217 49.8405 1.2 1 0.233223 0.078374 0.0231135 0.0407927 0.033664 0.0464777 0.0556267 0.0529077 0.0505715 0.058146 0.0605515 0.0664382 0.0708472 0.0703391 0.0994659 0.080012 0.0744763 0.0957686 0.0839651 0.081883
87 2 Si -1.09384 18.6291 47.9287 2.4 1 0.378907 0.0611603 0.0686402 0.0659284 0.0294069 0.0684982 0.0453761 0.0785667 0.0621273 0.0688509 0.0540701 0.0722956 0.0593929 0.0728192 0.0985804 0.0746383 0.103724 0.091703 0.0895207 0.0901237
88 3 O -1.02071 20.1985 47.9911 -1.2 1 0.361281 0.0769398 0.0540458 0.0612582 0.0463136 0.0924021 0.0624618 0.082585 0.0519531 0.0862332 0.053514 0.0729269 0.0611839 0.0829432 0.0817959 0.0743001 0.0967426 0.0784297 0.073746 0.0686933
89 3 O -1.65002 17.5002 51.771 -1.2 1 0.111702 0.0574347 0.0350235 0.0273225 0.0353767 0.0538607 0.0578713 0.0499715 0.0668337 0.0516508 0.0567773 0.0505987 0.0512338 0.0819732 0.0991415 0.0755812 0.0801382 0.0479586 0.0700678 0.0730718
90 3 O -2.26174 18.0434 48.8281 -1.2 1 0.305958 0.0919767 0.0558388 0.0299291 0.0584504 0.048133 0.0524564 0.0717404 0.0591798 0.0666089 0.0716053 0.0593637 0.0543529 0.0572126 0.0766926 0.0847715 0.0845969 0.0833685 0.0868441 0.0903906
91 1 Mg -0.0440435 16.5651 46.8269 1.2 1 0.481108 0.0208845 0.081034 0.0324558 0.0664828 0.0866636 0.079005 0.0865547 0.0690817 0.0830081 0.0846983 0.0618803 0.0630322 0.0778983 0.0772412 0.0943984 0.0934555 0.09565 0.0995363 0.106097
92 3 O 0.37001 17.9877 48.3925 -1.2 1 0.341041 0.0843073 0.0594562 0.0420069 0.0446957 0.0600957 0.0437194 0.0677921 0.0656106 0.0730089 0.0620776 0.0580049 0.0649672 0.0871478 0.0951403 0.0770037 0.0926906 0.100108 0.0846366 0.0896531
93 1 Mg 1.37387 16.4747 54.5811 1.2 1 0.0125289 0.0232421 0.0161076 0.0303424 0.0119493 0.0187758 0.0220756 0.0370348 0.0490924 0.0580914 0.0526718 0.0527161 0.0560249 0.0688602 0.0653662 0.0829798 0.0642204 0.0959285 0.0707138 0.0817005
94 2 Si 1.30819 19.2788 56.36 2.4 1 0.0162096 0.0146022 0.0245041 0.0204828 0.0309979 0.0324557 0.0359414 0.0443351 0.0548803 0.0415438 0.0485614 0.0645186 0.0719061 0.0539303 0.0774084 0.07703 0.0670124 0.0953833 0.0620957 0.0475
95 3 O 1.16434 17.6757 56.3746 -1.2 1 0.0205842 0.0123218 0.0162532 0.0229914 0.0280369 0.0276969 0.0154923 0.0632913 0.0411131 0.065799 0.0405404 0.0648722 0.0599486 0.0619093 0.0659173 0.0652655 0.0705472 0.0618252 0.0706326 0.0636187
96 3 O 1.45147 20.239 52.7294 -1.2 1 0.0661779 0.0458392 0.0294143 0.0208422 0.0283662 0.0418567 0.0493697 0.0546067 0.0484398 0.0534282 0.0469611 0.0488792 0.0588759 0.071422 0.0999863 0.0742244 0.0682412 0.0615298 0.0725957 0.0592703
97 3 O 0.0246274 19.9854 55.6434 -1.2 1 0.0069889 0.00745872 0.0292151 0.0204126 0.022525 0.021777 0.0411591 0.0394239 0.039663 0.0484293 0.0581093 0.0404165 0.0533026 0.0508576 0.088297 0.0768012 0.0671759 0.0684319 0.0534952 0.0697481
98 3 O 2.60325 19.8913 55.651 -1.2 1 0.0142344 0.0190123 0.0213338 0.0205272 0.0234386 0.0190461 0.0463981 0.0437573 0.0348861 0.049819 0.0517547 0.0388231 0.0520216 0.0640831 0.0813754 0.0782238 0.0731981 0.074064 0.0608219 0.0632602
99 1 Mg -0.126194 18.8651 52.2079 1.2 1 0.105108 0.0666384 0.0231541 0.0446874 0.0278246 0.0375385 0.0392918 0.0686188 0.0300341 0.0867237 0.0277493 0.0567143 0.0292715 0.0783044 0.0305258 0.101176 0.0437749 0.108006 0.0402922 0.103312
100 1 Mg 1.92402 18.5815 49.4545 1.2 1 0.258838 0.111376 0.0382902 0.0423941 0.0340909 0.0348793 0.0700584 0.0471125 0.0688622 0.0736475 0.0789705 0.0539903 0.072858 0.0696846 0.0857628 0.0960179 0.0783801 0.0964086 0.082934 0.0875602
101 2 Si 1.38106 20.9117 51.2443 2.4 1 0.127871 0.0857097 0.0392135 0.034931 0.0410284 0.0468834 0.0533683 0.0454112 0.0574997 0.0693247 0.0656839 0.0720969 0.0708149 0.0674854 0.0901951 0.0852898 0.0779604 0.0848122 0.0699596 0.062125
102 3 O 1.48527 22.4795 51.3054 -1.2 1 0.136261 0.0781162 0.0266927 0.0285962 0.0345269 0.0449116 0.0434731 0.0686387 0.0572419 0.0695678 0.0417606 0.076931 0.0653625 0.0652475 0.0792353 0.0674891 0.0779234 0.0753232 0.068627 0.0706466
103 3 O 1.3624 19.8723 57.9167 -1.2 1 0.0166673 0.0141038 0.0237703 0.0205313 0.0199482 0.0372545 0.0339676 0.0439584 0.0496124 0.0451071 0.0428253 0.050428 0.057769 0.0656242 0.104962 0.0608756 0.0657984 0.053464 0.0797681 0.0639038
104 3 O 0.0615419 20.2804 50.6669 -1.2 1 0.175863 0.0868485 0.0286857 0.0244359 0.0427101 0.0477752 0.0533256 0.0675481 0.0593626 0.0615801 0.0554994 0.0508359 0.0661921 0.0744562 0.0927079 0.0847063 0.0753731 0.0812102 0.0743533 0.0898777
105 1 Mg -3.09665 18.8643 52.3122 1.2 1 0.0749835 0.056302 0.0319826 0.0330412 0.0183336 0.0561981 0.0334968 0.0610062 0.0343494 0.0793138 0.0330521 0.0497884 0.0230764 0.0754084 0.031723 0.108115 0.0407911 0.103622 0.0442654 0.0893122
106 3 O 2.61548 20.2646 50.4626 -1.2 1 0.19956 0.0906681 0.0285446 0.0194334 0.0407889 0.0530528 0.051379 0.045849 0.0519506 0.0666808 0.0678475 0.0701248 0.0539859 0.0604104 0.0967901 0.0717677 0.0697056 0.064101 0.0655319 0.0869954
107 1 Mg -1.45674 18.8723 55.1089 1.2 1 0.0165815 0.0131838 0.0161922 0.0291857 0.0145601 0.0233939 0.025617 0.034901 0.0405744 0.0554689 0.0560889 0.0538369 0.0603768 0.0666535 0.0604181 0.0774663 0.0796356 0.0928727 0.0673628 0.077876
108 2 Si -1.51407 16.742 53.2374 2.4 1 0.055208 0.0413621 0.0211907 0.029599 0.036818 0.0261622 0.0461281 0.0526496 0.0502381 0.0645663 0.060363 0.0612317 0.0746218 0.048263 0.0727038 0.0663579 0.0732481 0.0811915 0.0672877 0.0592558
109 3 O -1.69844 15.1788 53.1351 -1.2 1 0.070488 0.0405578 0.0208358 0.0231904 0.0288692 0.0375104 0.0285519 0.0756519 0.0482498 0.0613367 0.0389895 0.0685825 0.0606803 0.0729426 0.0747372 0.0640041 0.0537713 0.0696932 0.0690752 0.0760888
110 3 O -1.12868 18.1227 46.4249 -1.2 1 0.522034 0.0664197 0.0725303 0.0517677 0.0574942 0.0651541 0.0611533 0.0792866 0.0796424 0.0620118 0.0445696 0.0677048 0.0675619 0.0878526 0.116824 0.11485 0.106643 0.100284 0.0624354 0.0932401
111 3 O -2.80997 17.4017 54.0346 -1.2 1 0.0256414 0.0209548 0.0305769 0.0215879 0.0209651 0.0297709 0.0396587 0.0501931 0.0391194 0.0578593 0.0528615 0.0405577 0.0504779 0.0602057 0.0698168 0.0750876 0.0643112 0.0671551 0.0679311 0.0699229
112 3 O -0.29754 17.4606 53.8312 -1.2 1 0.0346646 0.0359057 0.0255664 0.0281781 0.0289384 0.0173198 0.0475704 0.0521842 0.0505707 0.0551945 0.0537372 0.0448915 0.055204 0.067557 0.0897802 0.0682013 0.0836044 0.0632563 0.0699683 0.0694655
113 1 Mg -2.99767 26.1198 57.6061 1.2 1 0.00697435 0.020201 0.0103621 0.0274987 0.0182752 0.0349179 0.0187244 0.0511849 0.0233099 0.0723267 0.0265872 0.0481734 0.0279457 0.0667291 0.0345497 0.0976091 0.051922 0.106671 0.0548623 0.0837266
114 1 Mg -1.48778 25.88 49.8402 1.2 1 0.226608 0.0836322 0.0245632 0.0430185 0.030884 0.0525883 0.0538316 0.0551498 0.0502907 0.0609612 0.0634466 0.064325 0.0741095 0.0749918 0.104434 0.0829323 0.073438 0.094559 0.0828293 0.0824545
115 2 Si -1.00491 23.3922 47.9274 2.4 1 0.375917 0.0622957 0.0659052 0.0717557 0.0311837 0.073912 0.0415499 0.083475 0.0666326 0.0732539 0.05228 0.074185 0.0596388 0.0746181 0.0942816 0.0770487 0.101441 0.0951699 0.0892305 0.0936233
116 3 O -0.927602 24.9615 47.9909 -1.2 1 0.361246 0.0765583 0.0539209 0.061748 0.0467995 0.092033 0.0620216 0.0818824 0.0529075 0.086866 0.0533975 0.0724142 0.0620168 0.0837046 0.0820822 0.0755693 0.0991643 0.0790255 0.072442 0.0687736
117 3 O -1.55795 22.2588 51.7696 -1.2 1 0.112217 0.056557 0.0349103 0.0280961 0.0326234 0.0540626 0.0592613 0.0480662 0.0640798 0.0529134 0.0567708 0.049572 0.0518803 0.0838907 0.100469 0.0742383 0.0813048 0.0457304 0.0726091 0.0728446
118 3 O -2.17411 22.8111 48.8277 -1.2 1 0.301192 0.096497 0.0604263 0.0281079 0.0613401 0.0501605 0.054387 0.0722853 0.0600293 0.0642099 0.0714026 0.0602732 0.053713 0.0569277 0.0794274 0.0870239 0.0849537 0.0801664 0.0847611 0.0889605
119 1 Mg 0.0423997 21.3296 46.8225 1.2 1 0.481523 0.0217456 0.0810325 0.0332122 0.0660463 0.087351 0.0786368 0.0860964 0.0698573 0.0836659 0.084812 0.0619232 0.0632046 0.0780953 0.0770664 0.0939653 0.0946798 0.0970181 0.0997011 0.105955
120 3 O 0.458537 22.7495 48.3911 -1.2 1 0.344179 0.0790722 0.0582424 0.0346896 0.0480232 0.0622165 0.0418794 0.069695 0.0658206 0.073206 0.0622008 0.0563767 0.0632095 0.0871502 0.0979791 0.078467 0.094148 0.100894 0.0800608 0.0853353
121 1 Mg 1.58377 21.2618 54.5477 1.2 1 0.01361 0.0284049 0.0143482 0.0258097 0.013437 0.0215845 0.0298927 0.0358028 0.0486086 0.0582697 0.0584892 0.0521828 0.0605962 0.0634727 0.0720023 0.0792919 0.0711499 0.0891059 0.0676918 0.0801395
122 2 Si 1.41036 23.9573 56.4683 2.4 1 0.00408599 0.0188134 0.0202965 0.0230558 0.0315904 0.0326192 0.0412692 0.0381892 0.0578459 0.0509986 0.0497203 0.0609715 0.0670488 0.0544013 0.0751512 0.0754853 0.0607114 0.0870943 0.0605615 0.0580166
123 3 O 1.60433 22.4102 56.6222 -1.2 1 0.0200604 0.0161061 0.0229772 0.0210929 0.0224865 0.0207099 0.0323295 0.0668668 0.0420676 0.042844 0.0520139 0.0644833 0.0572709 0.0629341 0.0808078 0.0677188 0.0587357 0.0745695 0.0565081 0.0775083
124 3 O 1.54441 24.9963 52.7297 -1.2 1 0.0695996 0.041689 0.0288839 0.0191164 0.0283916 0.0415626 0.0519113 0.0564265 0.0515867 0.0456269 0.0420856 0.0511519 0.0569564 0.0634195 0.101075 0.0763609 0.0699459 0.0590361 0.0704645 0.0622341
125 3 O 0.226933 24.5677 55.6754 -1.2 1 0.0029448 0.0190809 0.0239784 0.0181185 0.013485 0.0232124 0.0425297 0.0442426 0.032737 0.0505873 0.0539458 0.0328563 0.0531256 0.0651646 0.0832062 0.0805673 0.0717117 0.065278 0.0628873 0.0633826
126 3 O 2.71047 24.6741 55.8543 -1.2 1 0.0210852 0.0193392 0.0315951 0.02116 0.023832 0.0212813 0.0456388 0.0372215 0.0387142 0.0396705 0.0516644 0.0467792 0.0562743 0.0673924 0.0866475 0.0659876 0.0801605 0.0609976 0.0660468 0.0626406