ITEM: TIMESTEP
46600
ITEM: NUMBER OF ATOMS
10500
ITEM: BOX BOUNDS xy xz yz pp pp pp
0	8.9688	2.9896
0	118.725	0
0	252.977	0
ITEM: ATOMS id type element xu yu zu q Q_1 Q_2 Q_3 Q_4 Q_5 Q_6 Q_7 Q_8 Q_9 Q_10 Q_11 Q_12 Q_13 Q_14 Q_15 Q_16 Q_17 Q_18 Q_19 Q_20 Q_21
1 1 Mg -3.37292 6.9967 57.4121 1.2 1 0.00955087 0.0102425 0.00885273 0.0281378 0.00936669 0.0324554 0.0124563 0.0572823 0.0117819 0.0812227 0.0152559 0.0539786 0.0215722 0.0706803 0.0154861 0.100303 0.0238365 0.113211 0.0188208 0.098118
2 1 Mg -1.82655 6.90154 50.0912 1.2 1 0.220156 0.0866421 0.0315093 0.0343128 0.0292516 0.0525474 0.049619 0.0440366 0.0559898 0.0706496 0.0571041 0.071952 0.0704276 0.0628014 0.0970815 0.0626472 0.0857419 0.0967509 0.0729413 0.0777914
3 2 Si -0.257935 3.96038 48.0876 2.4 1 0.374463 0.0692742 0.0723772 0.0336328 0.0608437 0.0501407 0.0732247 0.0765077 0.0600796 0.0774627 0.0571653 0.0719804 0.0639646 0.083777 0.0957649 0.100558 0.110132 0.0911923 0.0704465 0.0697088
4 3 O -0.335812 5.46814 47.6264 -1.2 1 0.427017 0.0392787 0.0650137 0.0310319 0.0409 0.0483066 0.0655506 0.071128 0.0869592 0.0755497 0.0923054 0.076144 0.0711776 0.0674581 0.0912142 0.125453 0.0941128 0.0779247 0.0746682 0.0780731
5 3 O -2.03793 3.43377 51.8941 -1.2 1 0.112304 0.0630347 0.0258447 0.0212561 0.0219131 0.0498362 0.0621392 0.0490625 0.0505955 0.0590514 0.0645275 0.0517845 0.0501126 0.0767976 0.0897172 0.0800058 0.0644558 0.0533003 0.0739802 0.0690203
6 3 O -1.54015 3.53929 48.9521 -1.2 1 0.299551 0.0918112 0.0332896 0.0475676 0.0341277 0.0483153 0.0694741 0.0496715 0.0547866 0.0619385 0.0773085 0.066024 0.0705573 0.0697693 0.0727828 0.109427 0.081443 0.0784333 0.0774595 0.0889263
7 1 Mg 1.82954 2.54582 47.1376 1.2 1 0.462665 0.0199656 0.0828813 0.0534621 0.0394027 0.0843498 0.0632789 0.0604691 0.0745867 0.0865805 0.068197 0.0781303 0.0817534 0.0842703 0.070842 0.0984226 0.101466 0.101873 0.104932 0.0992719
8 3 O 1.22989 3.66364 48.7877 -1.2 1 0.320084 0.0742759 0.0249748 0.0438607 0.033482 0.0653285 0.0787798 0.0318935 0.0836941 0.0768732 0.0488124 0.0785137 0.0852715 0.0683824 0.0651144 0.0852872 0.0936174 0.0926296 0.0933534 0.0893913
9 1 Mg 0.992128 2.3226 54.6855 1.2 1 0.00818972 0.0224625 0.0220323 0.0348286 0.0222057 0.0337832 0.0248749 0.0317363 0.0472439 0.0543953 0.0586899 0.0531815 0.0545917 0.0751871 0.0635856 0.0940948 0.0736084 0.0863488 0.0670923 0.0766821
10 2 Si 0.991268 5.01977 56.4166 2.4 1 0.0257218 0.0189773 0.0315555 0.0257278 0.0256454 0.0244582 0.038765 0.0478367 0.0510817 0.0558676 0.0521352 0.0622505 0.0654093 0.0553797 0.078548 0.0636583 0.0574117 0.0949218 0.05535 0.0620001
11 3 O 0.98243 3.44146 56.355 -1.2 1 0.0296236 0.0142218 0.0192491 0.0228047 0.0317109 0.0297494 0.0221176 0.0715913 0.0366114 0.0572472 0.0326576 0.0638452 0.0627524 0.0607966 0.0640362 0.0744047 0.0568755 0.076233 0.0698623 0.062846
12 3 O 1.10813 6.07342 52.8172 -1.2 1 0.0884578 0.044572 0.0313553 0.0190341 0.0179062 0.0449326 0.0420989 0.053705 0.0518239 0.0422452 0.052472 0.0543579 0.0670897 0.0673904 0.0865475 0.0853502 0.0601618 0.0669222 0.0686772 0.0719517
13 3 O -0.316492 5.63819 55.7294 -1.2 1 0.00222276 0.0150425 0.0242385 0.0214776 0.0236222 0.0231323 0.0362163 0.0411168 0.04321 0.0519949 0.0563712 0.0384074 0.0551428 0.0533613 0.0872268 0.0740158 0.0717761 0.0633447 0.0611587 0.0665292
14 3 O 2.29241 5.66966 55.6966 -1.2 1 0.0143237 0.0246268 0.0258588 0.0204553 0.0225618 0.0170199 0.047095 0.0475068 0.0419488 0.0451553 0.0521832 0.0408071 0.0538509 0.0596696 0.081645 0.0706887 0.0753202 0.0749905 0.0653414 0.0641433
15 1 Mg -0.459401 4.67631 52.2426 1.2 1 0.0895809 0.0690606 0.0316728 0.039763 0.0298618 0.032112 0.038539 0.061396 0.0408271 0.0845676 0.0441553 0.0617366 0.0482952 0.0729908 0.0440413 0.0988232 0.0557392 0.094693 0.0574547 0.0904725
16 1 Mg 2.79456 3.9971 49.9987 1.2 1 0.230689 0.0853318 0.0314236 0.0400156 0.0435243 0.0611824 0.0567352 0.0540409 0.0797832 0.0631915 0.0590975 0.05503 0.062667 0.0711659 0.0866277 0.0765269 0.0730576 0.0874965 0.0817256 0.0718516
17 2 Si 1.16169 6.59457 51.2556 2.4 1 0.139401 0.0890058 0.033983 0.0321084 0.0436778 0.0486984 0.0459589 0.0458528 0.059057 0.0653863 0.0662099 0.0744325 0.0725969 0.0678946 0.087002 0.0884413 0.0801885 0.0924554 0.0750923 0.0636247
18 3 O 1.28989 8.18905 51.2909 -1.2 1 0.148978 0.0812294 0.0249615 0.0363907 0.0380372 0.0476995 0.035189 0.0670621 0.0521251 0.0697017 0.0443982 0.0907983 0.0695761 0.0620089 0.074884 0.0698756 0.0712978 0.0690658 0.0697057 0.0714961
19 3 O 0.944335 5.63905 57.8744 -1.2 1 0.0124455 0.0136644 0.025484 0.016826 0.0153431 0.0367376 0.0346777 0.0469203 0.0522487 0.0420083 0.0406877 0.0445214 0.05564 0.0687003 0.101059 0.0731861 0.0699681 0.0522919 0.0775618 0.0652152
20 3 O -0.184847 6.06029 50.6845 -1.2 1 0.188108 0.082942 0.0231307 0.0271832 0.0375516 0.0309178 0.0473157 0.0559622 0.0581613 0.0607398 0.0630774 0.075426 0.0654819 0.0592295 0.0856986 0.0691638 0.0786961 0.0770113 0.062736 0.0803084
21 1 Mg -3.49704 4.67769 52.6661 1.2 1 0.0755957 0.047533 0.0292332 0.0299272 0.011266 0.0459053 0.0325836 0.0593457 0.0536047 0.0679056 0.0477283 0.0465752 0.046121 0.0423815 0.0623073 0.0912626 0.0834161 0.0737485 0.0738918 0.0680381
22 3 O 2.48581 5.93312 50.6539 -1.2 1 0.197084 0.0918781 0.0296339 0.0167197 0.0320795 0.0477679 0.056178 0.0593305 0.0443603 0.0628238 0.0504647 0.0656699 0.054711 0.0576248 0.0976685 0.0645516 0.0790425 0.0632075 0.0795104 0.0748837
23 1 Mg -1.96511 4.70625 55.2186 1.2 1 0.0210998 0.020932 0.0178876 0.0296737 0.0174677 0.0248621 0.0267794 0.0314486 0.0406631 0.0538994 0.0522643 0.0577737 0.0612269 0.0614997 0.0612748 0.0745435 0.0859233 0.0903415 0.06567 0.0706104
24 2 Si -1.91108 2.63976 53.2214 2.4 1 0.0401967 0.0399615 0.0256341 0.0232192 0.0265839 0.024349 0.0472519 0.0453855 0.0680643 0.0642238 0.0581215 0.0697324 0.0754405 0.0486855 0.070126 0.0584884 0.0778696 0.0862593 0.0800214 0.0507243
25 3 O -2.01254 1.06856 53.0713 -1.2 1 0.0479901 0.0513817 0.0210665 0.0229746 0.0206659 0.047721 0.0288877 0.0627294 0.0631345 0.0563883 0.050496 0.0659922 0.0591782 0.0773621 0.0764121 0.0710157 0.051853 0.0725429 0.0587719 0.081695
26 3 O -0.0467762 2.97103 46.8385 -1.2 1 0.497656 0.0371282 0.0880752 0.0293208 0.079769 0.0671242 0.0803904 0.0719121 0.0728567 0.0791279 0.0817625 0.0760991 0.0973464 0.0890555 0.0888395 0.0883187 0.0988228 0.0967468 0.104737 0.110996
27 3 O -3.19616 3.28544 54.1453 -1.2 1 0.0208597 0.0278853 0.0247484 0.0220442 0.0262463 0.0243518 0.0358752 0.0377735 0.0532898 0.049339 0.0638411 0.0449094 0.0641943 0.056829 0.0798287 0.06572 0.0612838 0.076997 0.0720253 0.0588649
28 3 O -0.674066 3.25644 53.8901 -1.2 1 0.0279463 0.0412392 0.0349329 0.0232971 0.0269207 0.0261458 0.0437782 0.0520066 0.0449069 0.0556056 0.0582761 0.0488648 0.0581866 0.0738852 0.0837345 0.06145 0.0854536 0.0756746 0.0688258 0.0650793
29 1 Mg -3.23794 11.8287 57.5114 1.2 1 0.0147875 0.0184275 0.00608401 0.0284447 0.00795955 0.0310116 0.00729465 0.0533049 0.0125467 0.0836903 0.0207267 0.0480702 0.0192076 0.0699925 0.0234453 0.0972947 0.027693 0.119359 0.0350209 0.0971079
30 1 Mg -1.75014 11.5838 49.8362 1.2 1 0.229639 0.0822032 0.0272879 0.0412603 0.028987 0.0552821 0.0496191 0.0550933 0.0474045 0.0589842 0.0642651 0.0621157 0.0734496 0.0747028 0.109275 0.0867634 0.0651714 0.0974267 0.0865426 0.0784086
31 2 Si -1.18003 9.02138 47.9309 2.4 1 0.367574 0.070708 0.0692425 0.0546942 0.0411647 0.0598985 0.0726617 0.0772018 0.0692295 0.0658566 0.0593774 0.0671337 0.0685049 0.0808623 0.102661 0.0637356 0.100045 0.0936042 0.105538 0.0873596
32 3 O -1.23224 10.5991 47.9811 -1.2 1 0.379705 0.0583148 0.0541548 0.0566011 0.0504605 0.0694521 0.0673926 0.0775693 0.0583358 0.087006 0.0709009 0.0641548 0.0725564 0.0807663 0.0833132 0.0684123 0.0886753 0.0811791 0.0677002 0.0754387
33 3 O -1.79016 8.01447 51.8693 -1.2 1 0.113186 0.0629047 0.032354 0.0276172 0.0322013 0.0472122 0.0572028 0.0576112 0.0573985 0.0531135 0.0499594 0.051522 0.0643783 0.0867669 0.0905064 0.0764281 0.0718151 0.051149 0.075369 0.0646279
34 3 O -2.30986 8.37215 48.8528 -1.2 1 0.310593 0.0887322 0.0662001 0.024632 0.0538942 0.0629474 0.0640951 0.06407 0.057862 0.0654511 0.0778421 0.0692332 0.0619091 0.0642221 0.0792188 0.0906982 0.0994248 0.0816165 0.0761018 0.0955391
35 1 Mg 0.154883 7.08234 46.8007 1.2 1 0.497439 0.0365799 0.0749076 0.0392443 0.065473 0.0748183 0.0586181 0.0688205 0.0713435 0.081946 0.088167 0.0762082 0.0793219 0.0793227 0.0697531 0.0924256 0.0919942 0.106703 0.113403 0.101082
36 3 O 0.325447 8.50934 48.3809 -1.2 1 0.349876 0.0763681 0.0612203 0.043778 0.0340133 0.0504688 0.0388287 0.0575051 0.0616992 0.0654477 0.0724773 0.0614225 0.0804369 0.0937532 0.0910025 0.0699255 0.0919942 0.100645 0.0850616 0.0890045
37 1 Mg 1.06111 7.14157 54.6382 1.2 1 0.0165312 0.0372269 0.018665 0.0360233 0.0208767 0.0304658 0.0220678 0.0402291 0.0386761 0.0582237 0.0686604 0.0546655 0.0502267 0.0676289 0.0636836 0.0925886 0.0668029 0.0762949 0.0784312 0.0836485
38 2 Si 1.1392 9.71356 56.4141 2.4 1 0.018852 0.017357 0.0197655 0.0178075 0.025707 0.029631 0.0387622 0.0426724 0.0530883 0.0521152 0.0537432 0.0681566 0.0667273 0.0587989 0.0796983 0.075987 0.0583042 0.0885368 0.0533614 0.0578099
39 3 O 1.19566 8.16968 56.4995 -1.2 1 0.0167596 0.0157136 0.0209664 0.0190897 0.0264589 0.0262334 0.0244577 0.0696384 0.0353729 0.0488426 0.0456524 0.0658896 0.0653723 0.0676745 0.0734925 0.0692692 0.0598526 0.0728155 0.0605209 0.0754571
40 3 O 1.28624 10.7248 52.7351 -1.2 1 0.0712869 0.0446768 0.0325484 0.020181 0.0316 0.0465731 0.0488514 0.0486044 0.0447958 0.0460177 0.0505743 0.0447575 0.0553009 0.0717024 0.101823 0.0802031 0.0689869 0.0544093 0.0761132 0.0621963
41 3 O -0.188479 10.3839 55.8498 -1.2 1 0.00240987 0.00778499 0.0311637 0.0214625 0.0207437 0.0187424 0.0396828 0.045198 0.0353532 0.0455513 0.0574592 0.0440932 0.0507981 0.0608654 0.0918233 0.0751144 0.0739537 0.0539666 0.0638306 0.07866
42 3 O 2.39058 10.3749 55.7219 -1.2 1 0.0200253 0.0140162 0.0252107 0.013919 0.0252945 0.0185048 0.0415701 0.0449382 0.0357739 0.0427646 0.0536986 0.0399756 0.0545102 0.065155 0.0857001 0.0723476 0.077335 0.0664565 0.0620814 0.0635911
43 1 Mg -0.262694 9.34741 52.2523 1.2 1 0.113059 0.0668282 0.0215895 0.0389737 0.0268535 0.0479738 0.0373444 0.0708408 0.0303433 0.0869371 0.0252868 0.0577419 0.034578 0.0752034 0.0345409 0.108555 0.0491759 0.0943436 0.0520821 0.103969
44 1 Mg 1.87648 9.01537 49.4629 1.2 1 0.273954 0.0940255 0.0392624 0.0388984 0.0306257 0.0487036 0.0679529 0.0454864 0.0780482 0.0630678 0.0818479 0.0547548 0.0852618 0.0678196 0.0849675 0.0927446 0.0877334 0.0978538 0.0854802 0.0899155
45 2 Si 1.21415 11.3799 51.2378 2.4 1 0.131078 0.0888369 0.0410141 0.0308634 0.0406139 0.0534294 0.0522266 0.0408811 0.0565155 0.061625 0.076838 0.0727547 0.0751625 0.070139 0.0962448 0.0874243 0.077052 0.0822062 0.0740345 0.0606761
46 3 O 1.31634 12.9512 51.3023 -1.2 1 0.138058 0.077232 0.0281723 0.0372146 0.0266726 0.0472102 0.0398241 0.0717966 0.0517488 0.066594 0.0418768 0.0801337 0.070016 0.0630175 0.0731903 0.0684422 0.0797305 0.074057 0.0717798 0.0730334
47 3 O 1.12798 10.4589 57.9436 -1.2 1 0.00285626 0.0169641 0.0267579 0.0188553 0.0179748 0.0336088 0.0371037 0.0460234 0.0507047 0.0467104 0.0388002 0.0466686 0.0516803 0.061587 0.108651 0.0683809 0.0670812 0.0516 0.0692296 0.0653307
48 3 O -0.115718 10.7564 50.681 -1.2 1 0.193539 0.0797559 0.0250286 0.0174438 0.0459211 0.0348065 0.0483463 0.0651753 0.0515994 0.0573098 0.0620684 0.0505446 0.0608896 0.0740114 0.0902007 0.077311 0.0740622 0.0780161 0.0754977 0.0834044
49 1 Mg -3.26386 9.35564 52.3622 1.2 1 0.0804743 0.0562425 0.024855 0.0305323 0.0155327 0.0539174 0.0353417 0.0588513 0.0298584 0.0828639 0.0290534 0.0494989 0.0350839 0.0643239 0.0348265 0.110672 0.04751 0.104479 0.0514839 0.0916824
50 3 O 2.45216 10.7265 50.4558 -1.2 1 0.196304 0.0927173 0.0193927 0.0089133 0.0411434 0.054681 0.059571 0.0507243 0.056934 0.0696087 0.0637428 0.0725975 0.0536771 0.0668095 0.0968348 0.0796741 0.0728087 0.0754356 0.0582942 0.0888825
51 1 Mg -1.91848 9.42235 55.1481 1.2 1 0.0273274 0.0142939 0.0171496 0.0261857 0.0126949 0.0248151 0.0248724 0.0320746 0.0414981 0.0529831 0.0615753 0.0557925 0.0641755 0.063372 0.0655374 0.0732174 0.0752951 0.0945831 0.0684863 0.0806969
52 2 Si -1.76271 7.33716 53.371 2.4 1 0.0558931 0.0471599 0.0242855 0.0317428 0.0289945 0.030556 0.0400105 0.051771 0.0572071 0.0675289 0.0626601 0.0638447 0.0727944 0.04842 0.0653056 0.0705936 0.0682521 0.0837447 0.0669827 0.0591529
53 3 O -1.8508 5.89243 53.3697 -1.2 1 0.0613294 0.0340149 0.0222846 0.0193448 0.0205652 0.0308812 0.0352509 0.0715216 0.0423582 0.0676932 0.0341668 0.0713362 0.0653711 0.0749603 0.0588216 0.0616666 0.0643503 0.057739 0.0690541 0.0601839
54 3 O -1.19417 8.46968 46.4488 -1.2 1 0.525093 0.0667966 0.0664885 0.051673 0.0672801 0.0558031 0.0776245 0.0541573 0.0757062 0.0705839 0.0556843 0.0492855 0.0689347 0.0980784 0.129911 0.112432 0.096309 0.0955012 0.084188 0.0825183
55 3 O -3.15942 8.09657 53.9298 -1.2 1 0.041379 0.0222738 0.0248047 0.0161172 0.020192 0.0306301 0.0510982 0.0451772 0.0441344 0.0505134 0.0545691 0.0487836 0.0556078 0.0539559 0.08522 0.0674294 0.0694415 0.0585139 0.067555 0.0754632
56 3 O -0.465734 8.00377 53.9449 -1.2 1 0.0482163 0.0276849 0.0376328 0.0273946 0.0307936 0.028715 0.03561 0.0470304 0.0451287 0.0556037 0.0575668 0.0507822 0.059785 0.0607392 0.083895 0.0538648 0.0763667 0.0688666 0.0676631 0.0739412
57 1 Mg -3.19287 16.497 57.4171 1.2 1 0.00882823 0.0212328 0.00712867 0.0349339 0.00750487 0.0360727 0.0139078 0.0542879 0.0146659 0.0832853 0.0171933 0.0501652 0.0148367 0.074254 0.0187585 0.105361 0.0271998 0.114067 0.0303193 0.0965512
58 1 Mg -1.6714 16.3544 49.8412 1.2 1 0.232693 0.0809689 0.0222321 0.0438452 0.0293643 0.0507563 0.05302 0.0530157 0.0483892 0.059449 0.0618852 0.0660323 0.0736977 0.0752136 0.104177 0.084278 0.0734904 0.0937874 0.0820712 0.0833481
59 2 Si -1.18567 13.8526 47.9314 2.4 1 0.37907 0.0608811 0.0706143 0.063453 0.0297679 0.0674635 0.046845 0.0788172 0.0604784 0.0654406 0.0534084 0.0722283 0.0579124 0.0734142 0.0961634 0.0757492 0.104526 0.0956868 0.088272 0.0919974
60 3 O -1.09664 15.4205 47.9915 -1.2 1 0.365522 0.0717079 0.0511716 0.0615769 0.045265 0.0930693 0.0632637 0.0818102 0.0563394 0.0889921 0.0543974 0.0726826 0.0603096 0.0822005 0.0814009 0.0732381 0.0929521 0.076621 0.0754135 0.0685523
61 3 O -1.73493 12.7491 51.7772 -1.2 1 0.115759 0.0587272 0.0286587 0.0290544 0.0330119 0.053023 0.0610036 0.0498665 0.0682361 0.0513601 0.0606545 0.0497974 0.0537067 0.0860954 0.0982223 0.0755486 0.0812505 0.0473647 0.0721762 0.0698748
62 3 O -2.36115 13.2717 48.8238 -1.2 1 0.301246 0.0990667 0.0633023 0.0254836 0.0585762 0.0519882 0.0606833 0.0691731 0.0593241 0.0666745 0.0737421 0.0640272 0.0601326 0.0577944 0.0835437 0.0868385 0.0878436 0.079267 0.0823339 0.0908408
63 1 Mg -0.159928 11.7639 46.8533 1.2 1 0.482295 0.0239422 0.0771982 0.0335085 0.0530795 0.0969357 0.0708105 0.0882785 0.0824122 0.0839701 0.0844877 0.069196 0.0718032 0.0916931 0.078089 0.0867251 0.096641 0.0975788 0.100617 0.106774
64 3 O 0.2623 13.1866 48.413 -1.2 1 0.341772 0.0838584 0.0591537 0.0391927 0.0441105 0.0561788 0.0439502 0.0637416 0.0664442 0.0725797 0.0640051 0.0615734 0.0674652 0.088106 0.0974366 0.0826508 0.0925245 0.0953059 0.0835162 0.0904058
65 1 Mg 1.30951 11.7487 54.6066 1.2 1 0.0148228 0.0322501 0.0148246 0.0292768 0.0116991 0.0223878 0.023643 0.0355481 0.0450658 0.0620724 0.057136 0.0520669 0.0585255 0.0677306 0.0636271 0.0832234 0.0613732 0.0969527 0.0706849 0.0864067
66 2 Si 1.23986 14.5231 56.4537 2.4 1 0.015228 0.0153185 0.026703 0.0240341 0.0254306 0.0342788 0.0396917 0.0441405 0.0526865 0.0516518 0.0476029 0.0630752 0.0656242 0.0577693 0.0820483 0.0706485 0.0635436 0.0987386 0.0535928 0.0485962
67 3 O 1.26486 12.9376 56.4889 -1.2 1 0.0282817 0.0123673 0.0258049 0.0265909 0.0204108 0.0291989 0.0267058 0.0661754 0.0348174 0.0503137 0.0461886 0.0663529 0.0578578 0.066671 0.0778196 0.0642496 0.0535053 0.0712243 0.0617417 0.0778699
68 3 O 1.36565 15.4813 52.729 -1.2 1 0.0716971 0.0379974 0.0310544 0.0231153 0.0228982 0.0448905 0.0494432 0.0542078 0.0536419 0.0460312 0.0441086 0.0515089 0.056081 0.0665229 0.103148 0.0691354 0.0735263 0.0584915 0.0741763 0.0608019
69 3 O -0.100846 15.1357 55.6907 -1.2 1 0.0088732 0.00833421 0.0295476 0.0185428 0.0135004 0.025871 0.0391942 0.0473434 0.0398598 0.0500306 0.0550654 0.0370898 0.0500721 0.0676151 0.0815906 0.0784388 0.0692075 0.0728486 0.0551193 0.0743286
70 3 O 2.49564 15.1982 55.7698 -1.2 1 0.0179931 0.00930592 0.0231878 0.0197464 0.024863 0.0220015 0.0457526 0.0435233 0.0411593 0.0359598 0.0529721 0.0400683 0.0517658 0.0678078 0.0840362 0.0704289 0.0820772 0.0637675 0.0650741 0.0677826
71 1 Mg -0.206989 14.1049 52.2121 1.2 1 0.103545 0.0669521 0.0232997 0.042007 0.0308762 0.0441298 0.034568 0.0729004 0.0283613 0.0876199 0.0245821 0.0590542 0.0296038 0.0743874 0.030823 0.106914 0.0398875 0.105366 0.0421156 0.105042
72 1 Mg 1.82591 13.8102 49.4556 1.2 1 0.258528 0.109528 0.0342607 0.0409069 0.0363588 0.0369708 0.0710076 0.0453351 0.0713316 0.0735928 0.0783577 0.0598281 0.07618 0.0736227 0.0861935 0.0950357 0.0761909 0.0944695 0.0891869 0.0863675
73 2 Si 1.29285 16.1518 51.2434 2.4 1 0.124048 0.0895778 0.0393182 0.037819 0.0377084 0.0528041 0.0515138 0.0434901 0.0555421 0.0674511 0.0662705 0.0766362 0.0698158 0.0674685 0.0924466 0.0855874 0.0775579 0.0856236 0.0698165 0.0639937
74 3 O 1.39496 17.7199 51.3047 -1.2 1 0.135146 0.0764195 0.030832 0.0357293 0.0323118 0.0449244 0.040371 0.0680114 0.0607072 0.0681242 0.0441328 0.0771797 0.0675515 0.0640975 0.0733248 0.068973 0.0777124 0.0737812 0.0699588 0.0731727
75 3 O 1.17306 15.2487 57.8953 -1.2 1 0.0116125 0.013771 0.0288073 0.019643 0.0182323 0.0324945 0.0327976 0.0469406 0.0511235 0.0439582 0.0450094 0.0482224 0.0502339 0.0595245 0.103522 0.0766113 0.063082 0.0542691 0.072697 0.066691
76 3 O -0.0269106 15.5178 50.6688 -1.2 1 0.184399 0.0858939 0.0224464 0.0240722 0.0443925 0.0349248 0.0529127 0.067474 0.0560702 0.0567054 0.0582608 0.0494489 0.0624566 0.0750248 0.0889725 0.0807526 0.077826 0.077615 0.0738817 0.0915998
77 1 Mg -3.18391 14.1057 52.3125 1.2 1 0.0758265 0.0584909 0.0304065 0.0322779 0.0183335 0.0533507 0.0336552 0.0632226 0.0323687 0.0806376 0.0338755 0.0485398 0.027747 0.0730586 0.0321052 0.108909 0.0472149 0.107248 0.0453198 0.0916366
78 3 O 2.52432 15.503 50.4579 -1.2 1 0.198938 0.0885474 0.0273759 0.0143429 0.0398432 0.0562305 0.0585605 0.0487172 0.0547132 0.0647473 0.0644206 0.0674727 0.0552952 0.0655689 0.101845 0.0780399 0.0744828 0.0696296 0.0635154 0.0875667
79 1 Mg -1.83118 14.1149 55.0615 1.2 1 0.019802 0.0187043 0.021562 0.0305633 0.0151168 0.0254161 0.0239095 0.0318295 0.0422354 0.0596309 0.0576566 0.0525211 0.0597488 0.0650716 0.0624454 0.0763632 0.0742311 0.0981757 0.0665287 0.0865381
80 2 Si -1.66569 11.977 53.1894 2.4 1 0.0589271 0.037656 0.0229277 0.0283377 0.0321798 0.0287811 0.0457764 0.0536697 0.052718 0.0644089 0.0635356 0.0666231 0.0754776 0.0525827 0.0754633 0.0622512 0.0740898 0.0800726 0.0662829 0.0633831
81 3 O -1.77491 10.3639 53.2435 -1.2 1 0.0570049 0.0430131 0.0215982 0.0251526 0.0272975 0.0358205 0.0303013 0.0814378 0.0465905 0.0660889 0.0436615 0.0611948 0.0622269 0.0770087 0.0740958 0.0584077 0.0553169 0.0608021 0.0684604 0.0757914
82 3 O -1.21337 13.3381 46.4311 -1.2 1 0.520061 0.0676338 0.0701588 0.040167 0.0554812 0.0588287 0.0592112 0.0703015 0.0791606 0.0653618 0.0452073 0.0707037 0.0681217 0.0881546 0.12043 0.113834 0.106202 0.100186 0.0604446 0.091977
83 3 O -2.96797 12.7316 53.8798 -1.2 1 0.0396342 0.0253836 0.030926 0.026539 0.0246718 0.0272409 0.0550323 0.0435989 0.048361 0.0534916 0.049525 0.0452676 0.054116 0.0647364 0.0773678 0.0656999 0.0696424 0.0569127 0.0687526 0.0710154
84 3 O -0.368328 12.6347 53.8413 -1.2 1 0.0357942 0.0324207 0.0244275 0.0255439 0.0314397 0.0171837 0.043252 0.0525144 0.0512274 0.0592588 0.0557473 0.0438472 0.0600561 0.0735306 0.0780213 0.0675438 0.0812965 0.0636894 0.0656441 0.0788469
85 1 Mg -3.15363 21.2856 57.3203 1.2 1 0.00585885 0.0134264 0.0133659 0.0317347 0.00851983 0.0358339 0.0119523 0.0527819 0.0161333 0.0811098 0.0161336 0.0519657 0.0229679 0.0697437 0.0268433 0.0947847 0.038434 0.106567 0.0377248 0.0973169
86 1 Mg -1.5831 21.1217 49.8405 1.2 1 0.226608 0.0846872 0.0240607 0.043507 0.0288573 0.0514728 0.0544422 0.0553124 0.0521607 0.0598268 0.0631992 0.0647145 0.0726719 0.0741114 0.104234 0.0841469 0.0739694 0.0913351 0.0827048 0.0860642
87 2 Si -1.09384 18.6291 47.9287 2.4 1 0.375304 0.0664594 0.0715151 0.0687054 0.0279656 0.0663524 0.0486282 0.0825923 0.0619786 0.0682428 0.0558193 0.0733111 0.0594003 0.0740169 0.100774 0.0732829 0.102808 0.0935303 0.0888688 0.0876101
88 3 O -1.02071 20.1985 47.9911 -1.2 1 0.36596 0.0694754 0.0490409 0.0635958 0.0451373 0.0918431 0.0630996 0.0822536 0.0575198 0.0893262 0.0545821 0.0717699 0.0615268 0.0823945 0.080533 0.0744288 0.0952248 0.0772851 0.0736721 0.0671874
89 3 O -1.65002 17.5002 51.771 -1.2 1 0.111291 0.0586569 0.0343372 0.027392 0.0328951 0.0532301 0.0597129 0.0505387 0.0665192 0.0553152 0.0525621 0.050476 0.0527232 0.0811211 0.104114 0.0724129 0.0770811 0.0467616 0.0757503 0.0745559
90 3 O -2.26174 18.0434 48.8281 -1.2 1 0.305984 0.0913461 0.0569463 0.0328769 0.058512 0.0473742 0.053344 0.0738329 0.0625356 0.0666475 0.0724879 0.0615572 0.0555856 0.055206 0.0801907 0.0886744 0.0832647 0.0766054 0.0829088 0.09017
91 1 Mg -0.0440435 16.5651 46.8269 1.2 1 0.481029 0.0220994 0.0822241 0.033146 0.0658315 0.0863113 0.0776879 0.0847829 0.0689207 0.0846564 0.0862948 0.062534 0.0626896 0.0778623 0.0772043 0.0947642 0.0952216 0.0967388 0.0981467 0.104501
92 3 O 0.37001 17.9877 48.3925 -1.2 1 0.344393 0.0798989 0.0582269 0.0400416 0.0450003 0.0598121 0.042623 0.0679141 0.0671218 0.0746152 0.0608653 0.0548482 0.0649124 0.0870643 0.0946014 0.0774633 0.0937409 0.101595 0.0803395 0.0844965
93 1 Mg 1.48161 16.6953 54.532 1.2 1 0.00420652 0.0226975 0.0177856 0.0354455 0.0135493 0.0241049 0.0233632 0.0360251 0.0448267 0.0619295 0.060532 0.0507193 0.0655902 0.0619785 0.0675788 0.0835831 0.0787399 0.0838012 0.0800446 0.0710157
94 2 Si 1.44299 19.1459 56.3988 2.4 1 0.0120322 0.011531 0.0187582 0.0255266 0.0242212 0.02349 0.0449424 0.035601 0.0502095 0.0604466 0.0531358 0.0558577 0.0703794 0.0602995 0.0887599 0.0774071 0.0654496 0.0875574 0.0547531 0.0601101
95 3 O 1.22808 17.6454 56.5456 -1.2 1 0.026803 0.0168529 0.0205962 0.0248976 0.0258129 0.0238672 0.0273653 0.0676608 0.0440359 0.0437869 0.0478459 0.0620969 0.0545935 0.068065 0.0711268 0.0629608 0.0598777 0.0680312 0.0647937 0.0774961
96 3 O 1.45147 20.239 52.7294 -1.2 1 0.0730023 0.0419942 0.025137 0.0236378 0.0249654 0.0401611 0.0500222 0.0566374 0.0544309 0.0490232 0.0444847 0.0519638 0.0589116 0.0595463 0.103586 0.0723362 0.0691978 0.0592622 0.0672511 0.0669981
97 3 O 0.231296 19.9811 55.6805 -1.2 1 0.0111833 0.00613342 0.0232005 0.0240063 0.020016 0.0221238 0.049596 0.0420803 0.0354334 0.0442546 0.0515532 0.0409515 0.0522091 0.0576153 0.0866663 0.071407 0.0740257 0.0596873 0.0629249 0.0651714
98 3 O 2.68836 19.8108 55.7209 -1.2 1 0.018056 0.0245395 0.0299109 0.0170909 0.0227897 0.0233193 0.0478926 0.0489965 0.0368506 0.0476429 0.0519095 0.0361848 0.0581566 0.0726698 0.07082 0.0791975 0.0748353 0.0657628 0.072115 0.0703776
99 1 Mg -0.126194 18.8651 52.2079 1.2 1 0.104564 0.0657132 0.0242129 0.0408194 0.0300685 0.042581 0.036303 0.0717013 0.0267806 0.0841053 0.028662 0.0532979 0.0327187 0.0718894 0.0345126 0.103065 0.0447203 0.10454 0.04148 0.0975061
100 1 Mg 1.92402 18.5815 49.4545 1.2 1 0.257766 0.110683 0.0322241 0.0447253 0.0352163 0.0358998 0.0712996 0.0444554 0.0719108 0.0729827 0.0773897 0.0569338 0.0728503 0.0687075 0.0887184 0.0949755 0.0779767 0.096268 0.0853203 0.0856141
101 2 Si 1.38106 20.9117 51.2443 2.4 1 0.130592 0.0899601 0.0334739 0.0378853 0.0348148 0.0520402 0.0564178 0.0463231 0.0534282 0.0677072 0.0676972 0.0716468 0.0715295 0.0677698 0.0909375 0.083571 0.0789629 0.0851487 0.0764653 0.0622793
102 3 O 1.48527 22.4795 51.3054 -1.2 1 0.140989 0.0745781 0.0285658 0.0349304 0.0320347 0.0392127 0.0417884 0.0724627 0.0518735 0.0643583 0.0415886 0.0776942 0.067416 0.0614724 0.0774859 0.0691826 0.0785644 0.0726514 0.0689483 0.0710596
103 3 O 1.40933 19.8512 57.9129 -1.2 1 0.00928799 0.0157907 0.0206252 0.0157878 0.0188345 0.0323252 0.0271571 0.0430618 0.0564991 0.0459552 0.0410796 0.0463845 0.0463717 0.0677385 0.104701 0.0649673 0.0653145 0.0505173 0.0677861 0.074754
104 3 O 0.0615419 20.2804 50.6669 -1.2 1 0.183185 0.0873263 0.0186129 0.0263988 0.0455132 0.034597 0.0590145 0.0645583 0.0552502 0.0563803 0.0602897 0.0494537 0.0628069 0.0751562 0.0944639 0.0814172 0.0776424 0.0833449 0.0780065 0.0875556
105 1 Mg -3.09665 18.8643 52.3122 1.2 1 0.0725247 0.0578696 0.0327667 0.0310816 0.0191579 0.0535791 0.0319317 0.064234 0.0305684 0.0767692 0.0324168 0.0461162 0.0276012 0.0736837 0.0349691 0.113091 0.0452367 0.102802 0.0408353 0.0873513
106 3 O 2.61548 20.2646 50.4626 -1.2 1 0.191273 0.0980207 0.0206653 0.013855 0.0448746 0.0502662 0.058418 0.0486676 0.0579888 0.0680581 0.0675622 0.0694022 0.0541107 0.0619376 0.101558 0.0736169 0.073023 0.0712397 0.0641793 0.0824206
107 1 Mg -1.57435 19.0102 55.0497 1.2 1 0.0154528 0.0180264 0.0138109 0.0245008 0.0139906 0.0197962 0.0238285 0.0347062 0.0401429 0.0626446 0.0593385 0.0573009 0.058727 0.0637953 0.0567078 0.076798 0.0761491 0.100515 0.0674223 0.08478
108 2 Si -1.58961 16.8362 53.2558 2.4 1 0.0526508 0.0409486 0.0247555 0.033328 0.0323713 0.0338081 0.0442075 0.0584856 0.0600534 0.0639332 0.0562616 0.0637567 0.0757169 0.0561389 0.068087 0.0664948 0.0656685 0.089755 0.0624515 0.0570509
109 3 O -1.6126 15.2634 53.2366 -1.2 1 0.06138 0.040259 0.0264249 0.0216505 0.0326028 0.0341904 0.0256227 0.066813 0.042566 0.0642151 0.0363605 0.0678229 0.0626653 0.0726529 0.0661095 0.0621148 0.0591161 0.0664333 0.0669683 0.0723764
110 3 O -1.12868 18.1227 46.4249 -1.2 1 0.521998 0.066044 0.0725036 0.0522733 0.0577672 0.0646546 0.0602813 0.0790456 0.0799042 0.0627855 0.0462264 0.0686776 0.0677175 0.087672 0.117128 0.115754 0.107629 0.100682 0.0619914 0.0922352
111 3 O -2.85135 17.6764 53.9386 -1.2 1 0.0333494 0.0209692 0.0274513 0.0236128 0.02094 0.0247077 0.0528325 0.0460346 0.038212 0.0519681 0.0499778 0.043672 0.0513949 0.0514624 0.0878748 0.0630826 0.0693811 0.0632577 0.0671641 0.069528
112 3 O -0.333679 17.6237 53.8279 -1.2 1 0.0455842 0.0235976 0.0292264 0.022854 0.0236594 0.0163001 0.0429295 0.0504422 0.0487881 0.0478453 0.0543649 0.0447856 0.0594068 0.0544589 0.0892145 0.0598564 0.0812522 0.061471 0.0683318 0.0708525
113 1 Mg -2.87254 26.2457 57.2949 1.2 1 0.00398467 0.0183323 0.0126665 0.0273361 0.01076 0.0350856 0.0209283 0.0596147 0.0275417 0.0841817 0.0243581 0.0518504 0.0230643 0.0688984 0.0264384 0.0934172 0.041174 0.10907 0.0466668 0.0905345
114 1 Mg -1.48778 25.88 49.8402 1.2 1 0.238111 0.0722965 0.0221122 0.039081 0.0307595 0.0457303 0.0567778 0.0521951 0.0504291 0.0577465 0.0620178 0.0669151 0.068616 0.0662393 0.0978964 0.0820147 0.0719956 0.0955858 0.083746 0.0801082
115 2 Si -1.00491 23.3922 47.9274 2.4 1 0.368079 0.0718737 0.0696687 0.0706202 0.0329057 0.0759823 0.0440115 0.0846917 0.0708876 0.0735535 0.0497624 0.0757783 0.0618569 0.0781572 0.0966612 0.0767798 0.10314 0.096573 0.090497 0.0935675
116 3 O -0.927602 24.9615 47.9909 -1.2 1 0.358067 0.0795928 0.0525205 0.0637048 0.0479433 0.0922905 0.0635902 0.0837925 0.056516 0.0895358 0.052497 0.0702276 0.0619361 0.084163 0.0847104 0.0758383 0.0967379 0.078977 0.0744559 0.073041
117 3 O -1.55795 22.2588 51.7696 -1.2 1 0.112069 0.0583794 0.0321893 0.0267034 0.0312585 0.0554171 0.0582271 0.0483922 0.0652938 0.0543733 0.0561254 0.0486234 0.0544141 0.0856013 0.102712 0.0740771 0.0770406 0.0444161 0.0759802 0.0711902
118 3 O -2.17411 22.8111 48.8277 -1.2 1 0.307125 0.0879424 0.053258 0.0345301 0.0564605 0.0484633 0.054764 0.0724864 0.0619862 0.0695276 0.0691695 0.0592825 0.0547567 0.0584164 0.0796347 0.0860071 0.0855248 0.0774479 0.0816385 0.0873866
119 1 Mg 0.0423997 21.3296 46.8225 1.2 1 0.480598 0.0191837 0.0848545 0.0264436 0.0576888 0.0830276 0.0748179 0.086866 0.0774513 0.0893693 0.0864378 0.0617944 0.0644964 0.0805063 0.0758866 0.0885096 0.0911138 0.0986109 0.10399 0.110644
120 3 O 0.458537 22.7495 48.3911 -1.2 1 0.348224 0.0751719 0.0559355 0.0389137 0.0463827 0.0615183 0.0416839 0.0634871 0.063571 0.0740183 0.0616263 0.0568111 0.0679486 0.0861714 0.0920284 0.07661 0.0944866 0.103869 0.0801888 0.0829621
121 1 Mg 1.46566 21.3429 54.713 1.2 1 0.0209846 0.0283539 0.010363 0.0334725 0.0129402 0.0171758 0.0259745 0.0333664 0.0454561 0.0609096 0.0589326 0.0565297 0.0540502 0.0654336 0.0485753 0.0999157 0.0655729 0.0971254 0.0655763 0.0953648
122 2 Si 1.52773 23.9994 56.3462 2.4 1 0.0139478 0.021694 0.0232394 0.0233379 0.0244129 0.0324325 0.0373883 0.0477048 0.0516771 0.0549925 0.0480552 0.0581779 0.0669863 0.0541739 0.0755486 0.0699342 0.0576159 0.0984655 0.0533479 0.0577399
123 3 O 1.49784 22.4947 56.4291 -1.2 1 0.0188519 0.0222839 0.00974576 0.0206619 0.0223772 0.0264241 0.0229137 0.0715096 0.0373504 0.0495994 0.0363959 0.0669207 0.0562429 0.0608186 0.0725995 0.071299 0.0601329 0.0741424 0.0584618 0.0667215
124 3 O 1.54441 24.9963 52.7297 -1.2 1 0.0725022 0.0438698 0.0284354 0.0228485 0.0219269 0.0436762 0.0515848 0.0599713 0.0529712 0.0467085 0.0471093 0.0537995 0.0593379 0.0619378 0.100384 0.0710691 0.0647531 0.0629104 0.0749293 0.0633226
125 3 O 0.275683 24.6789 55.7798 -1.2 1 0.00498376 0.0108919 0.0364258 0.0153664 0.0176551 0.0226366 0.041482 0.039422 0.0364934 0.0462172 0.0488975 0.0451539 0.0507951 0.0568764 0.0868658 0.0731111 0.0719965 0.0561262 0.0723599 0.0741477
126 3 O 2.73938 24.6184 55.6821 -1.2 1 0.0172391 0.0164156 0.0250837 0.0145892 0.0280331 0.0184914 0.0472472 0.0446957 0.0397813 0.0498671 0.0553157 0.0378181 0.0548147 0.0660109 0.0807082 0.0759214 0.0810567 0.0598563 0.0684256 0.0695008