ITEM: TIMESTEP
35100
ITEM: NUMBER OF ATOMS
10500
ITEM: BOX BOUNDS xy xz yz pp pp pp
0	8.9688	2.9896
0	118.725	0
0	252.977	0
ITEM: ATOMS id type element xu yu zu q Q_1 Q_2 Q_3 Q_4 Q_5 Q_6 Q_7 Q_8 Q_9 Q_10 Q_11 Q_12 Q_13 Q_14 Q_15 Q_16 Q_17 Q_18 Q_19 Q_20 Q_21
1 1 Mg -3.39699 6.88799 57.5032 1.2 1 0.0130721 0.0175017 0.008754 0.0248055 0.00863929 0.0343205 0.0181144 0.0511186 0.0200309 0.0788738 0.017631 0.0504647 0.0201556 0.0678158 0.0229268 0.104524 0.0300435 0.111462 0.0355479 0.0941943
2 1 Mg -1.82655 6.90154 50.0912 1.2 1 0.219831 0.0878047 0.032293 0.0297659 0.0299276 0.0552459 0.0466464 0.0456587 0.0570618 0.0656689 0.0550733 0.074422 0.0701285 0.0625397 0.0942455 0.0598799 0.0874002 0.101267 0.075677 0.0792157
3 2 Si -0.257935 3.96038 48.0876 2.4 1 0.374684 0.0685981 0.0715856 0.033454 0.0610317 0.0505846 0.0726863 0.07704 0.0619911 0.0782429 0.0570632 0.0715706 0.0632389 0.0837111 0.0956932 0.100309 0.109077 0.090664 0.0730884 0.0725315
4 3 O -0.335812 5.46814 47.6264 -1.2 1 0.427079 0.0398434 0.0647037 0.0305085 0.0404673 0.0473143 0.0658089 0.0717446 0.0874381 0.07656 0.0929624 0.0755472 0.0696044 0.0680821 0.0922277 0.124925 0.0938611 0.0801311 0.0762708 0.0787482
5 3 O -2.03793 3.43377 51.8941 -1.2 1 0.111008 0.0599355 0.0307683 0.0249981 0.0227291 0.0505382 0.063987 0.0509032 0.0496467 0.056089 0.0675286 0.0488704 0.0519097 0.0791642 0.0906652 0.087457 0.0696951 0.053305 0.0723305 0.0690917
6 3 O -1.54015 3.53929 48.9521 -1.2 1 0.29639 0.0985718 0.0380035 0.0501429 0.0323163 0.0490735 0.0756755 0.050721 0.0526594 0.062906 0.075947 0.0693644 0.0707124 0.0639544 0.0746143 0.115006 0.085616 0.0762332 0.07232 0.0917347
7 1 Mg 1.82954 2.54582 47.1376 1.2 1 0.466057 0.0219164 0.0803175 0.0501607 0.035289 0.0826936 0.0598796 0.0586789 0.0761843 0.0885461 0.0683079 0.076907 0.0820587 0.0847964 0.070774 0.0971672 0.101383 0.104545 0.106968 0.0992449
8 3 O 1.22989 3.66364 48.7877 -1.2 1 0.320596 0.0727195 0.0222914 0.0443608 0.0315057 0.0648993 0.0796295 0.0332356 0.0840933 0.0810486 0.0551825 0.0793071 0.0814192 0.0690873 0.0687209 0.0874441 0.0936469 0.0906445 0.0950183 0.0904909
9 1 Mg 1.02022 2.24045 54.5375 1.2 1 0.0140037 0.0271927 0.0165823 0.0355471 0.0234697 0.0345833 0.020434 0.031198 0.0377246 0.0577503 0.0534449 0.0543276 0.0563425 0.0695717 0.065114 0.0803852 0.0665594 0.0887884 0.0720817 0.0758323
10 2 Si 1.08616 4.96444 56.4896 2.4 1 0.0145605 0.0230598 0.0175616 0.0281006 0.0263856 0.0303079 0.0404178 0.0458185 0.0532067 0.055692 0.050689 0.0618122 0.0592724 0.0572235 0.0811476 0.0714183 0.0591694 0.100192 0.0586451 0.0600058
11 3 O 0.920527 3.34899 56.5736 -1.2 1 0.0152192 0.0110088 0.0186456 0.0270646 0.0237302 0.0234034 0.0267433 0.0601856 0.0380917 0.0466185 0.0422453 0.0637568 0.0582928 0.0588227 0.0728217 0.0710975 0.0556939 0.0782316 0.0663575 0.0725589
12 3 O 1.10813 6.07342 52.8172 -1.2 1 0.094578 0.039738 0.0277141 0.0163192 0.0223301 0.0430437 0.0396183 0.0528971 0.0537379 0.0420669 0.0542919 0.0503894 0.0648633 0.0687199 0.0850711 0.0832252 0.0599407 0.0708039 0.0649588 0.0670493
13 3 O -0.160081 5.76903 55.8283 -1.2 1 0.00841096 0.0128811 0.0252779 0.0221492 0.0208002 0.0176873 0.0441637 0.0338921 0.0378822 0.0385978 0.0565094 0.040573 0.0528931 0.044814 0.0939278 0.063141 0.0765964 0.066544 0.0639014 0.0602868
14 3 O 2.29337 5.51084 55.7528 -1.2 1 0.028306 0.0153932 0.0279265 0.0199332 0.0246658 0.0150209 0.0383261 0.0486558 0.038648 0.0403992 0.0570163 0.0364089 0.0468357 0.0698046 0.0829891 0.0753968 0.0830642 0.0698106 0.0674256 0.0629998
15 1 Mg -0.459401 4.67631 52.2426 1.2 1 0.0887842 0.065813 0.0365106 0.0409741 0.0324796 0.0298928 0.0408678 0.0615486 0.0432561 0.0821505 0.0450525 0.0594213 0.0461861 0.0744559 0.0437695 0.100282 0.0532351 0.0937814 0.0614649 0.088054
16 1 Mg 2.79456 3.9971 49.9987 1.2 1 0.223067 0.0961124 0.0295345 0.0416003 0.0445424 0.0585196 0.0574888 0.0553337 0.0812435 0.0647225 0.0627813 0.0562176 0.0623378 0.0687083 0.0848924 0.0755968 0.0725166 0.0915247 0.0894167 0.074582
17 2 Si 1.16169 6.59457 51.2556 2.4 1 0.140435 0.0881194 0.0332719 0.0361574 0.0404043 0.0515201 0.0482332 0.0460953 0.0584673 0.0651719 0.0634931 0.0776023 0.074224 0.0636994 0.0854078 0.0889572 0.0773093 0.091915 0.0753077 0.064016
18 3 O 1.28989 8.18905 51.2909 -1.2 1 0.160279 0.0643143 0.0332908 0.0363751 0.0271705 0.0504451 0.040211 0.0728204 0.0410343 0.0666227 0.0484519 0.0814312 0.0675649 0.0600865 0.0805349 0.0708019 0.0707433 0.0664723 0.0737299 0.0742713
19 3 O 1.13842 5.56622 58.0187 -1.2 1 0.0108721 0.022718 0.0243248 0.0112578 0.0230034 0.0362393 0.0262127 0.0475101 0.0508933 0.0487315 0.0406401 0.0537986 0.0523512 0.065231 0.104431 0.0606228 0.0724465 0.0603492 0.066241 0.0711474
20 3 O -0.184847 6.06029 50.6845 -1.2 1 0.182085 0.0866662 0.0209773 0.0337091 0.032118 0.0339664 0.052316 0.0589875 0.0553553 0.0601538 0.066146 0.0776485 0.0680539 0.0585695 0.0866864 0.0705525 0.0822742 0.0768698 0.0632997 0.0781074
21 1 Mg -3.49704 4.67769 52.6661 1.2 1 0.0768795 0.0461027 0.0269861 0.0251932 0.012531 0.0431347 0.0316553 0.0544027 0.0546999 0.0652096 0.045394 0.053546 0.0473667 0.0446269 0.0599796 0.0852679 0.0835409 0.0748843 0.0720004 0.0733771
22 3 O 2.48581 5.93312 50.6539 -1.2 1 0.192393 0.0897847 0.0346968 0.019201 0.0320827 0.0526938 0.0606022 0.0625104 0.0450416 0.0642623 0.0515685 0.0642769 0.0558035 0.0637209 0.103006 0.0674432 0.0765312 0.0674877 0.078635 0.0779331
23 1 Mg -1.91363 4.53142 55.2046 1.2 1 0.0262575 0.0142762 0.0211616 0.030394 0.0133279 0.0184426 0.0232391 0.0356137 0.0385317 0.0503337 0.051236 0.0543349 0.0566981 0.063606 0.0622161 0.0659502 0.0802491 0.0966204 0.0666097 0.0803302
24 2 Si -2.01128 2.66193 53.2455 2.4 1 0.0387578 0.0385799 0.0356845 0.02462 0.0334641 0.0248499 0.0532091 0.0545781 0.0640337 0.0645776 0.0538343 0.0684372 0.075527 0.0510495 0.0722659 0.0543273 0.0661086 0.0868342 0.0757482 0.0551986
25 3 O -1.95502 1.06494 53.2624 -1.2 1 0.0494934 0.0343132 0.0286142 0.0265103 0.0227519 0.036914 0.0311974 0.0569783 0.054698 0.0646307 0.0485725 0.0657698 0.0583401 0.0694473 0.0760315 0.068948 0.0538043 0.0606467 0.0723815 0.067785
26 3 O -0.0467762 2.97103 46.8385 -1.2 1 0.493828 0.0321179 0.0910897 0.0272184 0.0820024 0.0669714 0.0794597 0.0742797 0.075598 0.0795269 0.0809469 0.0737661 0.096194 0.090736 0.0919736 0.089274 0.0980874 0.0948037 0.101704 0.109331
27 3 O -3.27183 3.24754 54.1849 -1.2 1 0.0334545 0.0186955 0.0255741 0.0240416 0.0221294 0.0276087 0.0349854 0.0385034 0.047322 0.0504663 0.0625335 0.0410713 0.0560949 0.0619987 0.0774889 0.0637659 0.0630924 0.0728118 0.064195 0.060371
28 3 O -0.718824 3.29836 53.9604 -1.2 1 0.0474796 0.0247204 0.0386269 0.011889 0.0219294 0.0277853 0.0399607 0.0426327 0.0390047 0.0523519 0.059465 0.0486629 0.0510168 0.0674683 0.0776761 0.0631298 0.0834518 0.0670357 0.069038 0.0515815
29 1 Mg -3.37973 11.7616 57.5782 1.2 1 0.0105819 0.0109854 0.013163 0.0309934 0.0182419 0.03581 0.0209467 0.0506837 0.0361139 0.0727868 0.0280619 0.0487736 0.0286701 0.0621381 0.0279845 0.0925413 0.0519841 0.105469 0.0533688 0.0894185
30 1 Mg -1.75014 11.5838 49.8362 1.2 1 0.22962 0.0821968 0.0271493 0.0402188 0.0287195 0.055687 0.0488607 0.0553972 0.0459519 0.0575775 0.0646705 0.0606455 0.0734217 0.0727505 0.109557 0.0858579 0.0643881 0.0963395 0.0876735 0.078258
31 2 Si -1.18003 9.02138 47.9309 2.4 1 0.367552 0.0706969 0.0688152 0.0549996 0.040453 0.06014 0.0729308 0.07655 0.068685 0.0668513 0.059191 0.0675107 0.0681826 0.080022 0.101955 0.064733 0.101568 0.0928376 0.102903 0.0860217
32 3 O -1.23224 10.5991 47.9811 -1.2 1 0.375439 0.0649865 0.0588582 0.0550964 0.0518518 0.0708745 0.066623 0.0764636 0.0543517 0.0857767 0.0692015 0.0627953 0.0732593 0.0813807 0.0839434 0.0694796 0.0906012 0.0810614 0.0657918 0.0731256
33 3 O -1.79016 8.01447 51.8693 -1.2 1 0.116674 0.0633213 0.0304488 0.029018 0.0324282 0.0441659 0.0601075 0.056786 0.0603345 0.05495 0.04897 0.0513145 0.0657697 0.086257 0.0900399 0.0730353 0.0713412 0.0559098 0.0742464 0.0684538
34 3 O -2.30986 8.37215 48.8528 -1.2 1 0.315599 0.0827928 0.0618731 0.0256685 0.0509221 0.0610281 0.0623434 0.065024 0.0548596 0.066645 0.0788526 0.0698987 0.0616107 0.0648908 0.0783509 0.0873608 0.0961138 0.0827824 0.0781398 0.0947702
35 1 Mg 0.154883 7.08234 46.8007 1.2 1 0.497237 0.0358288 0.0754273 0.0384111 0.0644521 0.0741524 0.0584802 0.0692097 0.0712113 0.0819233 0.0887836 0.0764513 0.0789652 0.0793024 0.0701226 0.09287 0.0928064 0.107793 0.114316 0.101504
36 3 O 0.325447 8.50934 48.3809 -1.2 1 0.349955 0.0764479 0.0611235 0.0442973 0.0348657 0.0505688 0.0395114 0.0569436 0.0600225 0.065793 0.0748023 0.0621018 0.0788366 0.0931541 0.0904618 0.0688964 0.0916227 0.101302 0.0847147 0.0866037
37 1 Mg 1.12033 7.10772 54.6894 1.2 1 0.017435 0.0261194 0.0163625 0.0307842 0.015441 0.0258359 0.0214799 0.0324089 0.043681 0.0567336 0.0658287 0.0513783 0.0463383 0.0594326 0.0566701 0.0985498 0.0634795 0.0825804 0.0779503 0.0831699
38 2 Si 1.3006 9.63286 56.4011 2.4 1 0.0251272 0.0161771 0.0178945 0.0237592 0.0260991 0.026528 0.0381177 0.0383072 0.051227 0.0569117 0.0550064 0.0649226 0.0649531 0.0571833 0.0799526 0.0752786 0.0623916 0.0929668 0.056288 0.0596622
39 3 O 1.3643 8.07612 56.4825 -1.2 1 0.0201567 0.0124799 0.0197566 0.0240576 0.0226094 0.0246973 0.0231745 0.0695678 0.0377464 0.050703 0.038925 0.0634633 0.0655109 0.0614733 0.0746502 0.0626991 0.0696255 0.0634991 0.0631503 0.0656371
40 3 O 1.28624 10.7248 52.7351 -1.2 1 0.0847892 0.044388 0.0227671 0.0202608 0.0265112 0.0473177 0.0501096 0.0513706 0.0455709 0.0478823 0.0498447 0.0437247 0.0604644 0.0656117 0.0981486 0.0764676 0.064587 0.0547989 0.0738321 0.062396
41 3 O 0.0151159 10.3281 55.7914 -1.2 1 0.0114711 0.0118143 0.0307144 0.0124281 0.0216465 0.0173034 0.0406617 0.0419057 0.0348468 0.046759 0.0493444 0.0417926 0.0557837 0.0615553 0.0844461 0.0757687 0.081212 0.0485551 0.0687984 0.0688615
42 3 O 2.49501 10.3741 55.741 -1.2 1 0.02783 0.0152502 0.0213852 0.0176044 0.025703 0.0161624 0.05182 0.0450385 0.0336799 0.0430606 0.0547519 0.0385544 0.0528869 0.0643511 0.0884294 0.0777174 0.0735976 0.0666016 0.0645631 0.0668926
43 1 Mg -0.262694 9.34741 52.2523 1.2 1 0.115515 0.0695013 0.014116 0.0430893 0.0308037 0.0424462 0.0397442 0.0710151 0.0272001 0.0841684 0.0289109 0.058079 0.0355692 0.0729931 0.0407024 0.10481 0.0511771 0.0937723 0.0549746 0.101102
44 1 Mg 1.87648 9.01537 49.4629 1.2 1 0.270958 0.096393 0.0379978 0.0383786 0.0339149 0.0498636 0.068428 0.046334 0.076781 0.0630913 0.0817548 0.0540043 0.0840533 0.0674197 0.0852089 0.0968279 0.0880027 0.0954473 0.0859739 0.0901434
45 2 Si 1.21415 11.3799 51.2378 2.4 1 0.129295 0.0879455 0.0431356 0.0363243 0.0398414 0.0505957 0.0537963 0.0439436 0.0574596 0.0629896 0.0738577 0.0692778 0.0748593 0.070074 0.0936191 0.088469 0.0775023 0.0800003 0.0737164 0.0613205
46 3 O 1.31634 12.9512 51.3023 -1.2 1 0.138251 0.0791823 0.0276743 0.0382534 0.0301093 0.0405545 0.0455209 0.0710864 0.0536117 0.0657492 0.042264 0.0807145 0.0715508 0.0638595 0.0729785 0.0691061 0.0785846 0.0725837 0.0729279 0.0697384
47 3 O 1.32617 10.2412 57.8791 -1.2 1 0.00798195 0.0169407 0.0187161 0.0179625 0.0145716 0.037634 0.0245062 0.0416105 0.0583588 0.0461068 0.0404356 0.044288 0.0528599 0.0671962 0.101856 0.0711321 0.0627931 0.0494705 0.075083 0.0647268
48 3 O -0.115718 10.7564 50.681 -1.2 1 0.190916 0.0798648 0.0221036 0.0184456 0.0447096 0.034761 0.0491976 0.0658752 0.0504966 0.0556535 0.0630507 0.0493469 0.0601794 0.0759511 0.092174 0.0775263 0.0750846 0.0749952 0.0783172 0.086087
49 1 Mg -3.26386 9.35564 52.3622 1.2 1 0.0757646 0.056019 0.0274165 0.0329062 0.0130264 0.0561174 0.0382359 0.0548804 0.0316384 0.0881271 0.0331145 0.0495584 0.0333071 0.0664894 0.0399129 0.111496 0.049604 0.105755 0.048143 0.094057
50 3 O 2.45216 10.7265 50.4558 -1.2 1 0.199652 0.0922264 0.0176117 0.0187323 0.0348901 0.0573452 0.0544542 0.0443633 0.0593539 0.0670783 0.063415 0.0715173 0.0554973 0.0696546 0.0946509 0.0769308 0.07575 0.0785119 0.0614632 0.0889942
51 1 Mg -1.71655 9.4347 55.1543 1.2 1 0.0177477 0.0182504 0.0173808 0.0272005 0.0137982 0.019415 0.0247911 0.0311346 0.0393572 0.0573587 0.0541295 0.0541566 0.063483 0.0637861 0.0640148 0.0723417 0.0798042 0.0946213 0.0779427 0.0781263
52 2 Si -1.72877 7.34851 53.327 2.4 1 0.0545892 0.0387685 0.0291379 0.0302803 0.0313162 0.0279102 0.0429797 0.0529311 0.053848 0.0568606 0.060224 0.0602344 0.0814827 0.0454432 0.0635125 0.0665614 0.0701572 0.0881226 0.0623948 0.0531194
53 3 O -1.78822 5.78272 53.2902 -1.2 1 0.0625448 0.0332599 0.0243634 0.0160328 0.0204978 0.0325746 0.034474 0.0644755 0.0453543 0.0677193 0.0357462 0.0765956 0.0543726 0.0732955 0.0603645 0.0683284 0.0607647 0.0589659 0.0698025 0.0681616
54 3 O -1.19417 8.46968 46.4488 -1.2 1 0.525026 0.0664069 0.0664908 0.0512673 0.0666958 0.0556577 0.0779233 0.0544959 0.0756981 0.0704924 0.055922 0.0501148 0.0694709 0.0980737 0.129805 0.112774 0.0971928 0.095631 0.082963 0.0820712
55 3 O -3.05644 8.05573 54 -1.2 1 0.0486404 0.0205372 0.0233029 0.0208311 0.0193792 0.0294094 0.0443831 0.0454462 0.0394062 0.0519281 0.0534791 0.0453088 0.0550376 0.0595518 0.0826446 0.0638062 0.0643844 0.0597915 0.0687564 0.0739325
56 3 O -0.448216 8.01906 53.9697 -1.2 1 0.0601176 0.0291213 0.0277986 0.0229253 0.0330154 0.0246277 0.0345128 0.0441595 0.0445872 0.0512377 0.0604555 0.0507831 0.0535308 0.054832 0.0833035 0.0562597 0.0740636 0.0716426 0.0656678 0.076181
57 1 Mg -3.26699 16.4839 57.6097 1.2 1 0.00954787 0.0143523 0.0134685 0.0287914 0.013765 0.033739 0.0157913 0.0493597 0.0288829 0.0792782 0.023807 0.0436364 0.0214543 0.0708838 0.030644 0.0988687 0.0548379 0.103641 0.0483672 0.0887611
58 1 Mg -1.6714 16.3544 49.8412 1.2 1 0.229734 0.0818962 0.0235522 0.0444025 0.0294463 0.0530994 0.0544827 0.0531804 0.0475773 0.0615954 0.0635101 0.0646628 0.0733894 0.0746437 0.104764 0.0865549 0.0729509 0.0932931 0.0837636 0.0841895
59 2 Si -1.18567 13.8526 47.9314 2.4 1 0.371235 0.0705268 0.075027 0.0618633 0.0332728 0.0705961 0.0485265 0.0794112 0.0650046 0.0663137 0.051421 0.0724895 0.0592724 0.0768336 0.0979964 0.0770717 0.107499 0.096606 0.0869758 0.0927512
60 3 O -1.09664 15.4205 47.9915 -1.2 1 0.366344 0.0694673 0.0463184 0.0605377 0.0467214 0.0934144 0.0616003 0.0801244 0.0507329 0.085468 0.0532359 0.0749371 0.0607755 0.0793996 0.0800674 0.0731382 0.0954075 0.0766104 0.0712023 0.0701734
61 3 O -1.73493 12.7491 51.7772 -1.2 1 0.115801 0.0591986 0.027849 0.0286162 0.0335786 0.0531486 0.0601201 0.0495058 0.0644092 0.0472477 0.0616505 0.0493505 0.0568099 0.0845477 0.0993422 0.0768471 0.0831135 0.0470131 0.0725457 0.0742528
62 3 O -2.36115 13.2717 48.8238 -1.2 1 0.311315 0.084929 0.0549091 0.0330449 0.0543878 0.0522852 0.062404 0.068162 0.0592359 0.0651948 0.0721235 0.0638118 0.0567928 0.0568318 0.0850378 0.0870898 0.0881973 0.078107 0.0817111 0.0889115
63 1 Mg -0.159928 11.7639 46.8533 1.2 1 0.485511 0.0216513 0.0749811 0.0322964 0.0478674 0.0941041 0.0657229 0.0858594 0.0845351 0.0848443 0.0827323 0.0685717 0.0740591 0.0937327 0.0777942 0.0855714 0.0980007 0.0988245 0.101066 0.108554
64 3 O 0.2623 13.1866 48.413 -1.2 1 0.343047 0.0790082 0.0557025 0.0394314 0.0466044 0.0591384 0.0388957 0.0658996 0.0683586 0.0699054 0.062054 0.0611415 0.0647021 0.0872428 0.0974401 0.0809419 0.0951228 0.102164 0.0846637 0.0862044
65 1 Mg 1.22429 11.7078 54.5876 1.2 1 0.0121331 0.0287505 0.0157907 0.0308687 0.00881988 0.0201908 0.0194396 0.0326264 0.0437851 0.0636959 0.058637 0.0495619 0.0523721 0.0702885 0.0594984 0.0806172 0.0695223 0.0966765 0.0725944 0.0810153
66 2 Si 1.26364 14.5372 56.2895 2.4 1 0.0190963 0.00872552 0.0267397 0.0195462 0.0316962 0.037722 0.0328131 0.0432503 0.0536872 0.0469163 0.0454911 0.0606284 0.0672785 0.0544791 0.065803 0.0750348 0.0606781 0.0970138 0.0582308 0.046021
67 3 O 1.21532 12.9108 56.485 -1.2 1 0.0356881 0.0151498 0.0127839 0.024977 0.0231639 0.0275887 0.0226363 0.0710433 0.0350951 0.0441687 0.0405652 0.0671475 0.0535043 0.0638774 0.0681894 0.0657093 0.0608787 0.0693863 0.0555947 0.0725928
68 3 O 1.36565 15.4813 52.729 -1.2 1 0.0703164 0.0420638 0.0266743 0.0222041 0.023543 0.0475395 0.0546429 0.0500281 0.0479964 0.0455848 0.0467608 0.0512921 0.0579416 0.0668492 0.100787 0.068597 0.0738702 0.060108 0.0729555 0.0595349
69 3 O -0.110454 15.2161 55.7832 -1.2 1 0.0070941 0.00963258 0.0285644 0.0166334 0.0149802 0.0181688 0.0410793 0.0421529 0.0369192 0.0427712 0.0548929 0.0397549 0.0529656 0.051893 0.0915353 0.0667724 0.0702974 0.0722159 0.0592308 0.0756774
70 3 O 2.48506 15.1743 55.6004 -1.2 1 0.00972055 0.0231828 0.0215409 0.0156776 0.0262031 0.0247333 0.0443187 0.0483994 0.0353735 0.047764 0.0594871 0.0352109 0.0588967 0.0600155 0.086004 0.0819294 0.0697894 0.0718855 0.0611586 0.0586254
71 1 Mg -0.206989 14.1049 52.2121 1.2 1 0.102344 0.0666297 0.0244047 0.0450693 0.0313963 0.0429976 0.0361935 0.0723514 0.0284315 0.0881146 0.0223445 0.0565619 0.0315941 0.075366 0.0333434 0.108063 0.0425516 0.101047 0.0429307 0.103202
72 1 Mg 1.82591 13.8102 49.4556 1.2 1 0.259964 0.108979 0.0380859 0.0417072 0.0363542 0.0375761 0.0692124 0.047673 0.0710331 0.0751737 0.0787222 0.0557854 0.0713048 0.0724489 0.0826401 0.0927907 0.0767498 0.0973485 0.0898855 0.0865177
73 2 Si 1.29285 16.1518 51.2434 2.4 1 0.131967 0.0840415 0.0362722 0.038253 0.0415584 0.0453216 0.0524984 0.0473555 0.0584359 0.0675653 0.0667895 0.0720152 0.0726604 0.0626233 0.093149 0.0860373 0.0760325 0.0876704 0.0710234 0.0589732
74 3 O 1.39496 17.7199 51.3047 -1.2 1 0.122919 0.0910278 0.0214893 0.0275151 0.0388635 0.040308 0.0428338 0.0726395 0.0631512 0.0688591 0.0405124 0.0814464 0.0682166 0.0706128 0.0777424 0.0716834 0.0794661 0.0735665 0.0644307 0.0693897
75 3 O 1.39893 15.1637 57.7602 -1.2 1 0.00654146 0.0197863 0.0236344 0.0243602 0.014542 0.029924 0.0306249 0.042467 0.0620725 0.0413107 0.0423527 0.0366952 0.0574929 0.0686174 0.0996288 0.0710767 0.0675821 0.0452381 0.072934 0.0552321
76 3 O -0.0269106 15.5178 50.6688 -1.2 1 0.182169 0.0854807 0.0226348 0.0198218 0.0470734 0.0407266 0.0545695 0.0640571 0.0562329 0.0593596 0.0595198 0.0506879 0.0651047 0.0762583 0.0908829 0.0815298 0.0765215 0.0794453 0.0695821 0.0862587
77 1 Mg -3.18391 14.1057 52.3125 1.2 1 0.0729501 0.0592359 0.0304741 0.0338104 0.0167663 0.0532423 0.0329954 0.0621662 0.0339662 0.0825577 0.0316084 0.048009 0.0260901 0.0764597 0.0324196 0.108001 0.0443737 0.105103 0.0452451 0.0889718
78 3 O 2.52432 15.503 50.4579 -1.2 1 0.195835 0.0970578 0.0202302 0.0161128 0.0397555 0.0547303 0.0575555 0.0502638 0.0532219 0.0671558 0.0641178 0.0715665 0.0559901 0.0663298 0.0997329 0.0769243 0.0810435 0.0721453 0.062187 0.0840955
79 1 Mg -1.79961 14.2934 55.0612 1.2 1 0.0312906 0.019309 0.0207609 0.031868 0.0152451 0.0203031 0.0217249 0.031219 0.0378681 0.0504045 0.062758 0.0543369 0.0569582 0.0615888 0.0594563 0.0843472 0.0749554 0.0859403 0.0728769 0.0830464
80 2 Si -1.72042 12.053 53.3408 2.4 1 0.0585513 0.037091 0.0183008 0.0273302 0.0353732 0.0365389 0.0489747 0.0570113 0.0559639 0.0627757 0.0615075 0.0714639 0.0756306 0.0500882 0.0641506 0.0665826 0.0667756 0.0913255 0.068001 0.0666516
81 3 O -1.74763 10.4509 53.1685 -1.2 1 0.0693812 0.0422296 0.0180965 0.024572 0.0287383 0.0339974 0.0289789 0.0780381 0.0481957 0.0593002 0.0524014 0.065372 0.0570453 0.0754743 0.0719277 0.0632176 0.0474891 0.0674987 0.0671093 0.081402
82 3 O -1.21337 13.3381 46.4311 -1.2 1 0.520029 0.0676463 0.0705009 0.0405196 0.0554986 0.0587778 0.0591369 0.0704246 0.0794302 0.0657003 0.046042 0.0715034 0.0687122 0.0883212 0.120596 0.114125 0.106331 0.0999126 0.0597226 0.0918162
83 3 O -3.00481 12.6498 53.9579 -1.2 1 0.0315538 0.0227267 0.0326309 0.0233127 0.0197392 0.0326254 0.0537245 0.0441195 0.0428869 0.0613052 0.0508025 0.0390123 0.0522185 0.0748943 0.0705253 0.0753496 0.0656079 0.0642386 0.0649081 0.0700991
84 3 O -0.498999 12.6711 53.997 -1.2 1 0.0397694 0.0281489 0.0345223 0.0217302 0.0250145 0.0261513 0.0381633 0.0465264 0.0399654 0.055488 0.0565805 0.0461356 0.0557887 0.0704799 0.0848157 0.0685204 0.0730088 0.0712702 0.0743949 0.0684768
85 1 Mg -3.11594 21.1825 57.6204 1.2 1 0.0119321 0.0217663 0.0124306 0.0319132 0.015222 0.0393495 0.0157783 0.0557706 0.026412 0.0754413 0.0237463 0.0493136 0.0265906 0.0666262 0.0324003 0.0954009 0.0489096 0.107595 0.0488775 0.0849672
86 1 Mg -1.5831 21.1217 49.8405 1.2 1 0.23029 0.0801284 0.025261 0.0418103 0.0323558 0.0501159 0.0544825 0.0560418 0.0502263 0.0615717 0.0627648 0.0643662 0.0718039 0.0724781 0.102157 0.0831338 0.0732027 0.0956112 0.0841078 0.0833045
87 2 Si -1.09384 18.6291 47.9287 2.4 1 0.379305 0.0607005 0.0678152 0.0670069 0.0287144 0.0672319 0.0452524 0.0797335 0.0624281 0.0680687 0.054221 0.072954 0.0603027 0.0736658 0.0990876 0.0733705 0.103393 0.0939637 0.0908835 0.0879267
88 3 O -1.02071 20.1985 47.9911 -1.2 1 0.366031 0.0691651 0.0480517 0.0633044 0.044811 0.091292 0.0634859 0.0832584 0.0567626 0.088003 0.0552429 0.0728402 0.0618773 0.0831435 0.0821212 0.0744136 0.0946276 0.0771395 0.0738097 0.0704529
89 3 O -1.65002 17.5002 51.771 -1.2 1 0.112773 0.056195 0.0367211 0.0270047 0.0338807 0.0533112 0.0590092 0.0514686 0.0652627 0.0530587 0.0559065 0.0499477 0.0523411 0.0814922 0.103869 0.0747509 0.081928 0.0482725 0.0729838 0.0728585
90 3 O -2.26174 18.0434 48.8281 -1.2 1 0.299339 0.0996572 0.060309 0.0278597 0.0608311 0.0473196 0.0605595 0.0757186 0.0620103 0.0682524 0.0728228 0.0597292 0.0547785 0.06006 0.0786939 0.089472 0.0871742 0.0775554 0.0825347 0.087747
91 1 Mg -0.0440435 16.5651 46.8269 1.2 1 0.481208 0.0225785 0.0814527 0.0326562 0.0665963 0.0877806 0.0789928 0.0847084 0.0690467 0.0849439 0.085755 0.0622736 0.0633341 0.0776879 0.0764324 0.0942191 0.0948211 0.0966366 0.0979476 0.10357
92 3 O 0.37001 17.9877 48.3925 -1.2 1 0.346825 0.0752769 0.0506444 0.0379482 0.0466085 0.0651956 0.0396022 0.0658661 0.0643591 0.0681615 0.0582788 0.0576447 0.0645213 0.0871416 0.0967049 0.0777125 0.0940319 0.102099 0.0824346 0.0868983
93 1 Mg 1.4599 16.6203 54.5007 1.2 1 0.00980208 0.0258897 0.0175818 0.0332959 0.0140959 0.0258971 0.0273739 0.0382115 0.0433198 0.0592292 0.0635076 0.0538469 0.0650975 0.064318 0.0747195 0.0749322 0.0714452 0.0805786 0.0812553 0.0728581
94 2 Si 1.25023 19.1552 56.4515 2.4 1 0.00332444 0.0161274 0.0225567 0.024404 0.0351501 0.035538 0.0395861 0.0407678 0.0499965 0.0556539 0.0528856 0.0642573 0.0695946 0.0546138 0.0780428 0.0745503 0.0689 0.0905159 0.0650661 0.0624759
95 3 O 1.16825 17.6223 56.4586 -1.2 1 0.0242075 0.00936889 0.0248085 0.0238776 0.0316702 0.0250167 0.0203773 0.0667399 0.039968 0.0611022 0.0388689 0.0595083 0.0610241 0.0670324 0.0742952 0.0634253 0.0620813 0.0625153 0.0634976 0.0646082
96 3 O 1.45147 20.239 52.7294 -1.2 1 0.0602909 0.0451606 0.0314563 0.0172489 0.0314042 0.0433614 0.0534494 0.0573526 0.0536575 0.0455267 0.0465111 0.049315 0.057012 0.0659697 0.105948 0.0754811 0.0741379 0.0569376 0.0687772 0.0610704
97 3 O -0.0320683 19.8865 55.7368 -1.2 1 0.0142213 0.0260025 0.02513 0.0205984 0.0167933 0.0263016 0.0408599 0.0443258 0.0447883 0.047604 0.0561995 0.0379014 0.0529863 0.0494811 0.0921946 0.0785665 0.0694135 0.0565621 0.0531425 0.07533
98 3 O 2.57725 19.7387 55.8127 -1.2 1 0.0222435 0.0123155 0.0280052 0.0173275 0.0218867 0.0232605 0.0463177 0.0425894 0.03332 0.0434361 0.0518674 0.0360055 0.0511756 0.0777466 0.0707442 0.0785252 0.0790299 0.0567938 0.0689045 0.0701266
99 1 Mg -0.126194 18.8651 52.2079 1.2 1 0.104817 0.0630905 0.0269833 0.0426793 0.0293989 0.041716 0.0346603 0.073399 0.0247359 0.0876823 0.0247068 0.0555106 0.027636 0.0759298 0.0295279 0.105587 0.0425538 0.106924 0.0395699 0.10375
100 1 Mg 1.92402 18.5815 49.4545 1.2 1 0.268984 0.100637 0.0360358 0.0427786 0.0338365 0.0321768 0.0698966 0.045564 0.0722704 0.0692121 0.0766604 0.0588465 0.0706091 0.0654417 0.0886208 0.0940338 0.080807 0.0968392 0.0843126 0.0848612
101 2 Si 1.38106 20.9117 51.2443 2.4 1 0.126503 0.0875339 0.0419156 0.0354446 0.0388326 0.0540367 0.0526677 0.0418656 0.056873 0.0670574 0.067267 0.071274 0.0726006 0.0689722 0.0925483 0.0802305 0.0773677 0.0858986 0.0718496 0.0622101
102 3 O 1.48527 22.4795 51.3054 -1.2 1 0.131666 0.080337 0.0270404 0.0329288 0.040504 0.0426368 0.0455682 0.070948 0.0606991 0.0644428 0.0469529 0.079959 0.0728093 0.0721607 0.0729396 0.0684856 0.074613 0.0760006 0.0686338 0.070222
103 3 O 1.30158 19.6934 57.9313 -1.2 1 0.0286806 0.0208826 0.0294623 0.0188617 0.0216614 0.0348884 0.0289453 0.0432384 0.0561245 0.0403604 0.0478845 0.0404 0.0603376 0.0683306 0.10304 0.0720492 0.0650004 0.0509422 0.068762 0.0678742
104 3 O 0.0615419 20.2804 50.6669 -1.2 1 0.184919 0.0813556 0.0248861 0.0228857 0.0464386 0.0394334 0.0554155 0.0650037 0.0539758 0.0555604 0.0627915 0.0498116 0.0626383 0.0778898 0.0946632 0.081223 0.07365 0.0839517 0.0738099 0.084948
105 1 Mg -3.09665 18.8643 52.3122 1.2 1 0.0768357 0.0549366 0.0318912 0.0320882 0.017254 0.055695 0.0322421 0.0647851 0.0303485 0.0796046 0.0308172 0.0488547 0.0255854 0.0718451 0.0292192 0.112501 0.0395034 0.100925 0.0397841 0.0877553
106 3 O 2.61548 20.2646 50.4626 -1.2 1 0.187539 0.0997954 0.024332 0.0172154 0.0390597 0.0591417 0.0567587 0.0409074 0.0610814 0.0723283 0.0684636 0.0648621 0.0575507 0.0686002 0.100099 0.0743098 0.072082 0.0701681 0.0622744 0.0839349
107 1 Mg -1.69024 18.9353 55.1935 1.2 1 0.0269459 0.00901101 0.0168588 0.0276749 0.0163204 0.0211067 0.0266165 0.0362668 0.0422466 0.054587 0.0614985 0.0600133 0.0590858 0.0523177 0.0681488 0.0727993 0.0737599 0.0890481 0.0725043 0.0806059
108 2 Si -1.66159 16.8779 53.1896 2.4 1 0.036877 0.0420084 0.0251469 0.0293294 0.0387897 0.0380859 0.0540528 0.0540832 0.0619618 0.0580365 0.0551698 0.0747015 0.0798238 0.0516734 0.0760681 0.0568826 0.0704979 0.0905907 0.0560788 0.0619931
109 3 O -1.69694 15.3514 53.2443 -1.2 1 0.0649415 0.0349429 0.0211003 0.0164115 0.0274356 0.0335464 0.0310053 0.0799615 0.0445537 0.0565708 0.0407701 0.0668462 0.0665992 0.0708692 0.0783711 0.0630289 0.0544622 0.0670185 0.0696009 0.0717596
110 3 O -1.12868 18.1227 46.4249 -1.2 1 0.522101 0.0667073 0.0725461 0.0524045 0.0580109 0.0648101 0.0606912 0.0794193 0.0800615 0.0627046 0.0454372 0.0677453 0.0669702 0.0873738 0.116975 0.115602 0.107343 0.100515 0.0626455 0.0923969
111 3 O -2.98762 17.5602 53.8713 -1.2 1 0.022166 0.0300605 0.0287737 0.026038 0.0283812 0.026248 0.0620502 0.0431905 0.0428046 0.0477687 0.0573485 0.0452104 0.0553802 0.062983 0.088786 0.0634772 0.0672396 0.0571277 0.0718971 0.076847
112 3 O -0.393772 17.5784 53.8422 -1.2 1 0.0346797 0.0298304 0.0267663 0.0245983 0.0229429 0.0167866 0.0477439 0.0462956 0.0435579 0.0519423 0.0530751 0.0505519 0.0605673 0.0569797 0.0956669 0.060881 0.0821153 0.0616903 0.0747009 0.0683188
113 1 Mg -2.94774 25.9294 57.4046 1.2 1 0.0151406 0.0229428 0.00689103 0.0341778 0.00731696 0.0306642 0.00823414 0.0565242 0.0102675 0.0787022 0.0142038 0.0504758 0.0153472 0.076228 0.0173849 0.0998792 0.0190923 0.108991 0.0192064 0.0958528
114 1 Mg -1.48778 25.88 49.8402 1.2 1 0.230052 0.0815388 0.0218051 0.0421979 0.0295006 0.050342 0.0541473 0.0531684 0.0511267 0.0586712 0.0609501 0.066883 0.0735266 0.0727479 0.0997209 0.0815646 0.0727298 0.0955603 0.0814675 0.0822115
115 2 Si -1.00491 23.3922 47.9274 2.4 1 0.370552 0.0700812 0.0737757 0.0675588 0.036183 0.0767624 0.0422316 0.0843411 0.0693206 0.0730424 0.0497667 0.0735798 0.0592256 0.0750026 0.0936326 0.0783334 0.104797 0.0957415 0.0886243 0.0953991
116 3 O -0.927602 24.9615 47.9909 -1.2 1 0.36059 0.078199 0.0561359 0.058631 0.0473276 0.095846 0.0659944 0.082516 0.0572702 0.0888948 0.0520439 0.0716466 0.062687 0.0839304 0.0832232 0.0747999 0.094828 0.0768349 0.074595 0.0674773
117 3 O -1.55795 22.2588 51.7696 -1.2 1 0.11603 0.0539797 0.0338895 0.0276159 0.0348739 0.0500648 0.0613947 0.0476885 0.0669052 0.0518928 0.0582626 0.0483206 0.0532963 0.084445 0.0977644 0.0749734 0.0796941 0.0469223 0.0701463 0.0688935
118 3 O -2.17411 22.8111 48.8277 -1.2 1 0.298757 0.100376 0.0642128 0.0274558 0.0626992 0.048698 0.0592204 0.0709879 0.0600299 0.067386 0.071805 0.0601326 0.0530041 0.0592937 0.0796651 0.0877458 0.0887475 0.0803047 0.0849422 0.0909647
119 1 Mg 0.0423997 21.3296 46.8225 1.2 1 0.488549 0.023738 0.0748442 0.0326141 0.0585986 0.0802232 0.0687916 0.0812666 0.0745657 0.0880659 0.0865412 0.0629927 0.064508 0.0807565 0.0772475 0.0904675 0.0936355 0.0980284 0.101253 0.109255
120 3 O 0.458537 22.7495 48.3911 -1.2 1 0.343979 0.0814916 0.0589689 0.0399289 0.0443248 0.0603129 0.0448746 0.0651176 0.064653 0.0743365 0.06084 0.0564175 0.0675571 0.0863465 0.0924843 0.0771389 0.0934877 0.101016 0.081703 0.0888226
121 1 Mg 1.50615 21.2321 54.593 1.2 1 0.00680311 0.0265937 0.0139717 0.0343928 0.0150939 0.0168765 0.0250147 0.0348056 0.0458664 0.0558645 0.0599737 0.0551536 0.056984 0.0646519 0.0622831 0.0805845 0.0723548 0.09224 0.0739264 0.0839104
122 2 Si 1.38837 23.8757 56.395 2.4 1 0.0174293 0.0203721 0.0165909 0.0234541 0.0333457 0.0279601 0.0405554 0.0372165 0.0417709 0.0590186 0.0584053 0.0566195 0.0714058 0.0531749 0.0785907 0.0689278 0.0697292 0.0903131 0.0595317 0.0548735
123 3 O 1.40041 22.3609 56.5784 -1.2 1 0.0419373 0.0108247 0.0223042 0.0203521 0.0203101 0.0251169 0.0247147 0.0633781 0.0354035 0.0448806 0.045107 0.0660275 0.0545494 0.0653929 0.0712946 0.0632276 0.0605452 0.0723612 0.0587885 0.0759389
124 3 O 1.54441 24.9963 52.7297 -1.2 1 0.0685859 0.0348151 0.0332467 0.0252669 0.0212205 0.0470088 0.0508456 0.0550649 0.0533958 0.0459921 0.0482021 0.0485615 0.0558062 0.0721722 0.102028 0.07146 0.070817 0.0589448 0.0727031 0.0607639
125 3 O 0.0201373 24.5817 55.9371 -1.2 1 0.024856 0.0206231 0.0271639 0.0150058 0.0317572 0.0245462 0.0378615 0.0434192 0.0493166 0.0485468 0.0532545 0.0419743 0.0513117 0.0664291 0.0843975 0.0763798 0.0731856 0.0667891 0.0648604 0.077623
126 3 O 2.63389 24.5938 55.7093 -1.2 1 0.0226698 0.0185562 0.0339405 0.015607 0.0202972 0.0232395 0.0423009 0.04752 0.0340647 0.0422428 0.0527719 0.0358479 0.0559883 0.0644195 0.0851174 0.0748095 0.0748266 0.0652873 0.0629064 0.0615494