ITEM: TIMESTEP
32600
ITEM: NUMBER OF ATOMS
10500
ITEM: BOX BOUNDS xy xz yz pp pp pp
0	8.9688	2.9896
0	118.725	0
0	252.977	0
ITEM: ATOMS id type element xu yu zu q Q_1 Q_2 Q_3 Q_4 Q_5 Q_6 Q_7 Q_8 Q_9 Q_10 Q_11 Q_12 Q_13 Q_14 Q_15 Q_16 Q_17 Q_18 Q_19 Q_20 Q_21
1 1 Mg -3.28127 6.96541 57.5526 1.2 1 0.0178374 0.0184076 0.00916578 0.02944 0.0155105 0.0335847 0.0192202 0.0515992 0.0173544 0.0822053 0.0221115 0.0506272 0.0208162 0.0636331 0.0337133 0.109266 0.0362488 0.103817 0.0384701 0.0896051
2 1 Mg -1.82655 6.90154 50.0912 1.2 1 0.219571 0.0874116 0.0302829 0.0359266 0.0305677 0.0523321 0.0500013 0.0454276 0.0549206 0.0714094 0.0566751 0.0719012 0.0683467 0.0607286 0.096304 0.0614633 0.087046 0.0984123 0.0731053 0.0782542
3 2 Si -0.257935 3.96038 48.0876 2.4 1 0.37467 0.0692022 0.0720137 0.0339743 0.0606806 0.0506844 0.0733648 0.0766984 0.0605377 0.0783078 0.0572726 0.0716336 0.0640022 0.0844801 0.0960823 0.100191 0.108504 0.0899745 0.0727715 0.0729629
4 3 O -0.335812 5.46814 47.6264 -1.2 1 0.427031 0.0388382 0.0649862 0.0311192 0.0404095 0.0477001 0.0656878 0.0713324 0.0867918 0.0759186 0.093182 0.075736 0.0693601 0.0678084 0.0922855 0.125299 0.0942151 0.0804116 0.0761919 0.0783991
5 3 O -2.03793 3.43377 51.8941 -1.2 1 0.111806 0.0645264 0.0249273 0.0200736 0.0213017 0.0484823 0.0605651 0.0487029 0.0488768 0.0572592 0.0616672 0.053298 0.050944 0.0763857 0.0897513 0.0821777 0.0647624 0.0538436 0.0760181 0.0703701
6 3 O -1.54015 3.53929 48.9521 -1.2 1 0.310904 0.0785217 0.025193 0.0502631 0.0280705 0.0523363 0.0754994 0.0493873 0.0553546 0.0605825 0.0725055 0.0661737 0.0686573 0.0686895 0.0749142 0.109438 0.0811761 0.0804412 0.076859 0.0882687
7 1 Mg 1.82954 2.54582 47.1376 1.2 1 0.465936 0.0215329 0.0807263 0.0504071 0.0354082 0.0825449 0.0597713 0.0590771 0.0764219 0.0886353 0.0684398 0.076637 0.0813005 0.0843867 0.0712612 0.0978626 0.102132 0.104368 0.105384 0.0981597
8 3 O 1.22989 3.66364 48.7877 -1.2 1 0.317886 0.0743284 0.0223509 0.0469457 0.031456 0.0649817 0.0795994 0.033284 0.0824789 0.0792847 0.0524434 0.0777758 0.0834723 0.0674829 0.0645585 0.087979 0.0931562 0.0893966 0.0925784 0.092472
9 1 Mg 0.878242 2.33258 54.4003 1.2 1 0.0108877 0.0396683 0.0203234 0.0352349 0.0226927 0.0302237 0.0171291 0.035622 0.0387305 0.058504 0.0538485 0.0526381 0.0608308 0.0647487 0.0670475 0.0648085 0.0746048 0.0797852 0.0712158 0.0634534
10 2 Si 1.06274 4.97639 56.1881 2.4 1 0.0150281 0.0186937 0.0298346 0.0191792 0.0241048 0.0210901 0.0316525 0.0467176 0.0460258 0.057801 0.0530582 0.0644344 0.0580615 0.0601051 0.0695988 0.0814887 0.064314 0.101223 0.0542557 0.0710571
11 3 O 0.977603 3.40713 56.3582 -1.2 1 0.0109244 0.0139959 0.0171986 0.0237948 0.0233731 0.0270785 0.0215618 0.0673725 0.0327603 0.0534215 0.0392625 0.0654667 0.0564615 0.0555863 0.0682504 0.0662182 0.0543263 0.067916 0.0719095 0.0664494
12 3 O 1.10813 6.07342 52.8172 -1.2 1 0.0902244 0.0442439 0.0306723 0.01775 0.0238235 0.0464064 0.043295 0.0519553 0.0514175 0.0421736 0.0553718 0.0549948 0.0670628 0.0652148 0.0846309 0.0765623 0.0591108 0.0734476 0.0736307 0.0680146
13 3 O -0.261084 5.74946 55.6489 -1.2 1 0.00712209 0.0136846 0.0305423 0.019856 0.0212969 0.0154316 0.0363083 0.0354963 0.041758 0.0471135 0.0544603 0.0344115 0.0517406 0.05 0.0870772 0.0729415 0.0668129 0.0755016 0.0566028 0.0676149
14 3 O 2.3094 5.68234 55.7072 -1.2 1 0.020462 0.0153429 0.0317346 0.0169759 0.025302 0.0137533 0.0402234 0.0472181 0.040129 0.0422596 0.0549821 0.0406923 0.0470729 0.0691861 0.0833545 0.0755987 0.0736866 0.0695832 0.062574 0.0637387
15 1 Mg -0.459401 4.67631 52.2426 1.2 1 0.0918139 0.0733958 0.0276569 0.0358665 0.0258751 0.0329522 0.0402594 0.0608235 0.0426731 0.0785729 0.0397897 0.0618179 0.0458397 0.0730816 0.0402534 0.102594 0.0496064 0.0929239 0.0536689 0.0904902
16 1 Mg 2.79456 3.9971 49.9987 1.2 1 0.225913 0.0912111 0.0292519 0.0428496 0.0461224 0.0601349 0.0584424 0.0542716 0.0787768 0.0641177 0.059867 0.0557808 0.0626631 0.0703523 0.0848312 0.0772759 0.073969 0.0904494 0.0861289 0.0742346
17 2 Si 1.16169 6.59457 51.2556 2.4 1 0.141156 0.0864783 0.0356419 0.0261806 0.0400436 0.0525248 0.0446899 0.0419457 0.0598666 0.0686036 0.0647627 0.0735169 0.0740878 0.0641409 0.0876678 0.0894055 0.0820145 0.0895153 0.0738437 0.0626386
18 3 O 1.28989 8.18905 51.2909 -1.2 1 0.146392 0.0835561 0.0174875 0.0351107 0.0324705 0.0478865 0.0382631 0.0751446 0.0467566 0.0726204 0.0457835 0.0913332 0.0685344 0.0595789 0.0785703 0.0720358 0.0734645 0.0668592 0.0703528 0.0677487
19 3 O 1.07595 5.62565 57.9293 -1.2 1 0.0156945 0.0229202 0.017944 0.0190707 0.0211812 0.0331612 0.0312603 0.0403607 0.0500861 0.0446248 0.03798 0.0458142 0.058183 0.0707953 0.09985 0.0607439 0.0672373 0.0612005 0.0704133 0.0648404
20 3 O -0.184847 6.06029 50.6845 -1.2 1 0.192317 0.0784609 0.021908 0.0314024 0.0354203 0.0327278 0.0479843 0.0501624 0.0568251 0.0626177 0.0618987 0.0738723 0.0665928 0.0581541 0.0850805 0.0725736 0.0798612 0.0767312 0.0609256 0.0740949
21 1 Mg -3.49704 4.67769 52.6661 1.2 1 0.0822676 0.0429681 0.0279437 0.0259362 0.0134891 0.0399656 0.0366353 0.0548719 0.0527429 0.0645055 0.0464085 0.0488274 0.0453997 0.0411097 0.0677364 0.0942692 0.080997 0.0748207 0.0676912 0.0712961
22 3 O 2.48581 5.93312 50.6539 -1.2 1 0.194645 0.0890322 0.0317142 0.020518 0.0299297 0.0458328 0.059372 0.0572638 0.0423523 0.0674194 0.0464305 0.0663795 0.0552136 0.0624256 0.104833 0.0713352 0.0749706 0.0683436 0.0777776 0.0749266
23 1 Mg -1.92166 4.82235 55.1135 1.2 1 0.0197419 0.0277713 0.0248488 0.032866 0.0148109 0.0169719 0.0191774 0.0349526 0.0363855 0.0539592 0.0582074 0.0486024 0.0594475 0.0628469 0.0558314 0.0852546 0.0714251 0.0864475 0.0707319 0.0752991
24 2 Si -1.95192 2.66045 53.3665 2.4 1 0.0396081 0.0430777 0.0245153 0.025618 0.0232543 0.0226538 0.0423384 0.0462861 0.064301 0.0675885 0.0566887 0.065831 0.0739608 0.0506068 0.0642379 0.0595354 0.0669885 0.0881725 0.0801987 0.0683449
25 3 O -2.01824 1.14346 53.2173 -1.2 1 0.059953 0.0371422 0.0230146 0.0213132 0.0239686 0.0319925 0.0275597 0.055923 0.0543177 0.0588373 0.0484314 0.0671124 0.0517891 0.0648889 0.0720433 0.0730951 0.0549917 0.0676645 0.0685277 0.0709706
26 3 O -0.0467762 2.97103 46.8385 -1.2 1 0.493867 0.0319538 0.0907788 0.0275786 0.0824144 0.06689 0.0791357 0.0743799 0.0758897 0.0793751 0.0802562 0.072713 0.0954534 0.0902661 0.0919916 0.0896158 0.0980549 0.0940721 0.100799 0.108575
27 3 O -3.22172 3.26197 54.2357 -1.2 1 0.0195335 0.0282186 0.0280773 0.0249434 0.0208314 0.0303972 0.0313694 0.0364122 0.0565929 0.0510604 0.057627 0.0380124 0.0566017 0.0593337 0.0784098 0.068879 0.0635127 0.0739633 0.0739726 0.0579303
28 3 O -0.636 3.39131 53.8767 -1.2 1 0.0412918 0.0357473 0.033558 0.0148525 0.0228868 0.0246906 0.0410391 0.0483009 0.0494705 0.0476587 0.0599493 0.0437455 0.0544851 0.0649293 0.0865958 0.06032 0.0769248 0.0757664 0.0555816 0.0544337
29 1 Mg -3.29099 11.8186 57.4023 1.2 1 0.00846303 0.0126156 0.0108089 0.0300834 0.00816947 0.0354115 0.010012 0.0583167 0.0149622 0.082847 0.0218853 0.0519722 0.0173737 0.0720788 0.0205675 0.0986884 0.0224637 0.115206 0.0309964 0.0969689
30 1 Mg -1.75014 11.5838 49.8362 1.2 1 0.230416 0.080517 0.0281749 0.0407758 0.0294014 0.0548671 0.049511 0.055331 0.0471216 0.0580822 0.0653857 0.0618838 0.0720725 0.0709509 0.109241 0.0889776 0.06424 0.0939686 0.0869834 0.0806331
31 2 Si -1.18003 9.02138 47.9309 2.4 1 0.371401 0.0660817 0.0653281 0.0527368 0.040987 0.0605617 0.0716462 0.0758998 0.0711745 0.0657252 0.0580785 0.0673215 0.0675147 0.0802873 0.100958 0.0646896 0.0992446 0.0907682 0.10306 0.0858679
32 3 O -1.23224 10.5991 47.9811 -1.2 1 0.379661 0.0585383 0.0547549 0.0578498 0.0503422 0.0688848 0.0673873 0.0779576 0.0604053 0.0885063 0.0712313 0.0641172 0.0715728 0.078138 0.0806811 0.0682015 0.0901498 0.0812547 0.0669447 0.0729775
33 3 O -1.79016 8.01447 51.8693 -1.2 1 0.11916 0.0606403 0.0289897 0.0265702 0.0330497 0.0483989 0.0546382 0.0584616 0.0561805 0.0537743 0.0489228 0.0483569 0.064109 0.0817513 0.0872598 0.0754239 0.0736707 0.0511974 0.0697011 0.0685862
34 3 O -2.30986 8.37215 48.8528 -1.2 1 0.311901 0.086815 0.0667442 0.0246584 0.0532078 0.061706 0.066868 0.066322 0.0575768 0.06578 0.0800166 0.0673092 0.0572203 0.0660882 0.0788657 0.0898709 0.0959057 0.0805008 0.0751466 0.0935048
35 1 Mg 0.154883 7.08234 46.8007 1.2 1 0.497242 0.0361794 0.0759987 0.03917 0.0641869 0.0739939 0.0577731 0.0676555 0.0710401 0.0836773 0.0900324 0.0763541 0.0788805 0.0798075 0.0698666 0.0917411 0.0925547 0.108761 0.114403 0.100389
36 3 O 0.325447 8.50934 48.3809 -1.2 1 0.347095 0.0790321 0.0598049 0.0408224 0.0398399 0.0566892 0.0362355 0.0591056 0.0611294 0.0652798 0.0757719 0.0626209 0.075778 0.0921658 0.0936022 0.0717507 0.0917545 0.101116 0.0856548 0.0869439
37 1 Mg 1.09622 7.22206 54.5861 1.2 1 0.0267328 0.0280639 0.0226369 0.0324351 0.0225894 0.0230351 0.0234898 0.034419 0.041502 0.0612806 0.0655184 0.0566181 0.0506196 0.0671896 0.060449 0.0876463 0.0662982 0.0717194 0.096317 0.0770735
38 2 Si 1.27744 9.70873 56.5466 2.4 1 0.0365008 0.0142586 0.0195475 0.023674 0.0175411 0.026543 0.0401093 0.0339453 0.0496575 0.0634503 0.0528932 0.0658682 0.0583662 0.0580692 0.0802315 0.0628626 0.067399 0.0904357 0.0592844 0.0705817
39 3 O 1.21477 8.13203 56.4979 -1.2 1 0.0311042 0.008442 0.0197314 0.0174288 0.0177167 0.0288806 0.0245076 0.0606833 0.0417497 0.0513881 0.0402515 0.0605405 0.0584806 0.0626418 0.0794033 0.0657171 0.0610591 0.070541 0.0535859 0.0728296
40 3 O 1.28624 10.7248 52.7351 -1.2 1 0.0785116 0.0451551 0.0273353 0.0206875 0.0279227 0.0458 0.0471272 0.0509761 0.04515 0.044859 0.0458296 0.0480067 0.058817 0.0644306 0.0976186 0.0805753 0.0657333 0.0548702 0.0704803 0.0608434
41 3 O 0.046659 10.4112 55.7758 -1.2 1 0.0134754 0.0118724 0.0264258 0.0207301 0.0217684 0.0235452 0.0451555 0.0357531 0.0344213 0.0425726 0.0536689 0.0403669 0.0569632 0.0527169 0.0902331 0.0680142 0.0740337 0.0595926 0.0683464 0.067864
42 3 O 2.56659 10.4319 55.9122 -1.2 1 0.0235924 0.0134582 0.0363052 0.0187318 0.0187016 0.0184028 0.042504 0.0418015 0.0356165 0.0370409 0.0556488 0.0420639 0.0488411 0.0603991 0.0880242 0.0697074 0.0745779 0.0636214 0.0680635 0.0646419
43 1 Mg -0.262694 9.34741 52.2523 1.2 1 0.116359 0.064327 0.0214383 0.0395897 0.0325629 0.0440046 0.040134 0.0700276 0.0312223 0.0856996 0.0253675 0.0595271 0.0374548 0.0729311 0.0433885 0.104797 0.0511939 0.0965391 0.0493475 0.0994032
44 1 Mg 1.87648 9.01537 49.4629 1.2 1 0.283814 0.088569 0.0468595 0.0370943 0.0286321 0.0512784 0.0637389 0.0464259 0.075576 0.0612693 0.0829036 0.0561768 0.0760082 0.0592533 0.0823872 0.0905709 0.0844211 0.097736 0.0840791 0.087352
45 2 Si 1.21415 11.3799 51.2378 2.4 1 0.133951 0.0874847 0.0398641 0.0346244 0.0427057 0.0523514 0.0539852 0.0399204 0.0546131 0.0615168 0.0732141 0.0720696 0.0748071 0.0706085 0.0930629 0.0882882 0.0781177 0.0840147 0.0790863 0.0594058
46 3 O 1.31634 12.9512 51.3023 -1.2 1 0.134823 0.0835091 0.0247168 0.0342553 0.030556 0.0430507 0.0464151 0.0707833 0.0527173 0.0685382 0.0445333 0.0776071 0.0708663 0.0657978 0.073492 0.07005 0.0787749 0.0696805 0.0728579 0.0693521
47 3 O 1.08056 10.3508 57.9974 -1.2 1 0.00978351 0.0237878 0.0215894 0.0209366 0.0206323 0.0287945 0.0287536 0.0475834 0.0494137 0.0468774 0.0450466 0.0463423 0.0568382 0.0629722 0.0980471 0.0682961 0.0662754 0.065606 0.0632584 0.0638758
48 3 O -0.115718 10.7564 50.681 -1.2 1 0.196197 0.0799143 0.0223905 0.0218812 0.0451522 0.0286693 0.0529431 0.0634113 0.0497231 0.0540795 0.0630369 0.0490143 0.0610034 0.0699121 0.0889386 0.0811574 0.0737698 0.0763999 0.0798703 0.0831765
49 1 Mg -3.26386 9.35564 52.3622 1.2 1 0.0829567 0.0523881 0.0308848 0.0305701 0.017317 0.0550704 0.0384652 0.0560208 0.0310917 0.0845773 0.0343004 0.0511533 0.0345906 0.0670601 0.0395924 0.10781 0.0502975 0.102927 0.0512284 0.0916032
50 3 O 2.45216 10.7265 50.4558 -1.2 1 0.194202 0.098674 0.0194484 0.0135911 0.0388564 0.0621176 0.0550877 0.0470215 0.0559627 0.0700544 0.0683725 0.071002 0.0542173 0.0676401 0.0963321 0.0819609 0.0735314 0.0776397 0.0606016 0.0821965
51 1 Mg -1.78457 9.41717 55.3037 1.2 1 0.0121596 0.0144314 0.0208824 0.0240962 0.0155445 0.0149324 0.0288466 0.0307223 0.0386785 0.0567808 0.0526678 0.0663596 0.0616965 0.057486 0.0691416 0.0585675 0.0850833 0.0919799 0.0695217 0.0771767
52 2 Si -1.81862 7.43029 53.3696 2.4 1 0.05126 0.0404233 0.0260585 0.0223805 0.0311162 0.0377082 0.0384616 0.0524904 0.0694783 0.0559734 0.0582104 0.0545338 0.0772948 0.0531055 0.0671737 0.0639746 0.0689916 0.0821817 0.0601924 0.0572617
53 3 O -1.82746 5.80316 53.2021 -1.2 1 0.067238 0.0416561 0.0217496 0.0188916 0.0153928 0.0305091 0.039224 0.0683288 0.0525992 0.0619979 0.0369377 0.0755142 0.0553963 0.074008 0.0700761 0.0695606 0.0563739 0.0617732 0.067423 0.0724681
54 3 O -1.19417 8.46968 46.4488 -1.2 1 0.524978 0.0663014 0.0667663 0.0513839 0.0666622 0.055549 0.0776522 0.0546873 0.076811 0.0721897 0.0578785 0.0513691 0.0690714 0.0976069 0.130425 0.114161 0.0977342 0.0952048 0.0831116 0.0827617
55 3 O -3.06843 8.10329 54.0362 -1.2 1 0.0377585 0.0249046 0.0242063 0.0205182 0.0238549 0.0271411 0.0481092 0.0413758 0.0457922 0.0540503 0.0555299 0.0429749 0.0593968 0.0588074 0.083419 0.0658988 0.0702895 0.0638347 0.0659421 0.0745148
56 3 O -0.525823 8.14701 54.0443 -1.2 1 0.0482541 0.0333751 0.0231374 0.0204602 0.0306636 0.0259989 0.0341254 0.0469909 0.0382459 0.0502056 0.060673 0.0498243 0.058165 0.0554093 0.0874981 0.0598059 0.0737769 0.0735433 0.066579 0.0746673
57 1 Mg -3.03205 16.4773 57.283 1.2 1 0.0185698 0.0171752 0.0127387 0.027269 0.0159303 0.0344924 0.0173259 0.0551646 0.0225759 0.0785759 0.0185085 0.0480534 0.0182442 0.0674359 0.0292468 0.0994982 0.0344126 0.109706 0.0409496 0.0887014
58 1 Mg -1.6714 16.3544 49.8412 1.2 1 0.229563 0.081496 0.0258681 0.0436471 0.0283437 0.0539203 0.0533698 0.0534943 0.0479054 0.0615773 0.0619903 0.0646237 0.0746145 0.076893 0.107568 0.0854017 0.0732382 0.0947063 0.084312 0.0852848
59 2 Si -1.18567 13.8526 47.9314 2.4 1 0.37968 0.0598823 0.0687633 0.0647411 0.0285667 0.0664654 0.0466492 0.0791576 0.0596827 0.0656282 0.0541374 0.0722554 0.0590107 0.0746124 0.0980181 0.0755073 0.103691 0.0974192 0.09102 0.0890296
60 3 O -1.09664 15.4205 47.9915 -1.2 1 0.369415 0.0663847 0.047371 0.0586682 0.0489702 0.0929046 0.0610549 0.0811346 0.0499218 0.0847578 0.0517378 0.0722622 0.0633107 0.0815773 0.0771565 0.0722379 0.0958217 0.0750556 0.0720665 0.0703979
61 3 O -1.73493 12.7491 51.7772 -1.2 1 0.120992 0.0549797 0.029705 0.0287875 0.0325112 0.0500736 0.0621749 0.0484063 0.0667592 0.0525261 0.0560094 0.0497834 0.0574193 0.0815265 0.0999083 0.0766371 0.081059 0.0503297 0.0687195 0.0696877
62 3 O -2.36115 13.2717 48.8238 -1.2 1 0.31119 0.0867231 0.0552359 0.0306004 0.0552046 0.0498848 0.0544262 0.0688913 0.0606161 0.0647687 0.0745775 0.0623344 0.0569476 0.0545292 0.0840176 0.0875428 0.0873215 0.077112 0.0805056 0.0879384
63 1 Mg -0.159928 11.7639 46.8533 1.2 1 0.485485 0.0217194 0.0750303 0.0325432 0.0477555 0.0932221 0.0645742 0.0863567 0.0852463 0.0849184 0.0831331 0.0694946 0.0743744 0.0936813 0.0779437 0.0859231 0.0986418 0.0996351 0.101105 0.108174
64 3 O 0.2623 13.1866 48.413 -1.2 1 0.343063 0.0799501 0.0549007 0.0384531 0.0438018 0.0565729 0.0408375 0.0656456 0.068649 0.0709568 0.0627733 0.0616591 0.0657153 0.0875267 0.0966726 0.0797796 0.094348 0.0986632 0.084032 0.0858885
65 1 Mg 1.3553 11.7203 54.5659 1.2 1 0.00686654 0.0256853 0.0150145 0.0309784 0.0139844 0.0145577 0.0228649 0.0301526 0.0465923 0.0589038 0.0543395 0.0551177 0.0532979 0.0623158 0.0602153 0.0769797 0.0704681 0.0960908 0.0705345 0.0806004
66 2 Si 1.35323 14.4106 56.3078 2.4 1 0.0218306 0.015217 0.0209258 0.026062 0.0326635 0.0273021 0.0409822 0.0426542 0.0510746 0.0556726 0.0535339 0.0601078 0.0692978 0.0576132 0.0738761 0.0717661 0.0609159 0.0899801 0.0567036 0.0600418
67 3 O 1.31742 12.905 56.5714 -1.2 1 0.0385693 0.0145665 0.0164608 0.019343 0.0193136 0.0251432 0.0251501 0.0660423 0.0384259 0.049474 0.0437289 0.0635217 0.0497874 0.0588898 0.072798 0.0699786 0.0594075 0.0741414 0.0537627 0.0802114
68 3 O 1.36565 15.4813 52.729 -1.2 1 0.0680512 0.0469113 0.0252345 0.0199955 0.0276862 0.0410498 0.0513041 0.0552087 0.0524599 0.045571 0.0442459 0.0449995 0.0552317 0.0692333 0.101599 0.0761166 0.0709952 0.0566416 0.071477 0.0606073
69 3 O -0.0172619 15.131 55.6873 -1.2 1 0.00346729 0.0120862 0.0312302 0.0168593 0.0149109 0.0171939 0.039977 0.0421067 0.0324773 0.0514331 0.0571325 0.0387269 0.0523625 0.0561951 0.0886931 0.0801989 0.0695199 0.0619286 0.0621822 0.0684803
70 3 O 2.56881 15.0403 55.6158 -1.2 1 0.0180861 0.0180241 0.027109 0.0145434 0.0169773 0.0237723 0.0503158 0.0517519 0.0317622 0.0485239 0.0567139 0.032662 0.0550884 0.0714413 0.0724561 0.082879 0.0729964 0.070359 0.0622788 0.0692376
71 1 Mg -0.206989 14.1049 52.2121 1.2 1 0.103815 0.0629234 0.0277303 0.0444353 0.0312123 0.0431557 0.0372266 0.0745157 0.0278199 0.086491 0.0253603 0.0584769 0.029022 0.0738182 0.0315828 0.105929 0.0440792 0.103085 0.0434062 0.101371
72 1 Mg 1.82591 13.8102 49.4556 1.2 1 0.259717 0.107099 0.0305139 0.0423591 0.0360173 0.0354193 0.0711976 0.0449866 0.0709267 0.0725058 0.0755447 0.0581521 0.0778408 0.0736786 0.085262 0.0943825 0.0792701 0.0988809 0.0885765 0.0809669
73 2 Si 1.29285 16.1518 51.2434 2.4 1 0.129736 0.0874155 0.0383061 0.0371394 0.0335725 0.0518932 0.0555682 0.0445916 0.0521462 0.070588 0.0703801 0.0740961 0.0754101 0.0671815 0.0915019 0.0850457 0.0754566 0.0827434 0.0752317 0.0634351
74 3 O 1.39496 17.7199 51.3047 -1.2 1 0.132685 0.0858782 0.0224518 0.0322902 0.0351853 0.0429741 0.0438418 0.0688793 0.0548063 0.0616149 0.046194 0.0796801 0.068873 0.0661409 0.0715463 0.0668973 0.0758816 0.0793802 0.0687799 0.0738298
75 3 O 1.40251 15.0502 57.8766 -1.2 1 0.00949875 0.0214774 0.0247532 0.0185013 0.017838 0.0330059 0.0339573 0.0420142 0.0600103 0.0445086 0.0442004 0.0435502 0.0490218 0.0678623 0.102073 0.0745496 0.0647098 0.0508668 0.0771719 0.065205
76 3 O -0.0269106 15.5178 50.6688 -1.2 1 0.181735 0.0835588 0.0238402 0.0213083 0.0455007 0.0413615 0.0535908 0.0652957 0.056724 0.0595793 0.058755 0.0514629 0.0627919 0.0773671 0.0947314 0.0811595 0.0755185 0.0780997 0.0725099 0.0860251
77 1 Mg -3.18391 14.1057 52.3125 1.2 1 0.0746988 0.0568881 0.0315672 0.0348232 0.0180834 0.0510526 0.0347565 0.0625213 0.0303078 0.082465 0.0314245 0.047157 0.0259471 0.0767897 0.0294352 0.11259 0.0435085 0.0975852 0.0476572 0.0894667
78 3 O 2.52432 15.503 50.4579 -1.2 1 0.194701 0.0925874 0.0219632 0.0130131 0.0425496 0.0485294 0.0588035 0.0525596 0.0537426 0.0664615 0.0661135 0.0667082 0.0555243 0.0672663 0.101801 0.0763959 0.0756695 0.0703671 0.063421 0.0853207
79 1 Mg -1.70958 14.2105 55.1012 1.2 1 0.0263633 0.00998819 0.0183564 0.0319859 0.018112 0.0204916 0.0208404 0.0383135 0.0397224 0.0592517 0.0614686 0.054016 0.0555912 0.0630135 0.059163 0.0815747 0.0697316 0.0947656 0.0709296 0.0842725
80 2 Si -1.63143 12.0784 53.2202 2.4 1 0.0464383 0.0439133 0.0171974 0.0230325 0.0354047 0.036574 0.045494 0.0569949 0.060091 0.0635757 0.0608857 0.0703353 0.0781541 0.0485843 0.0752829 0.060698 0.0678262 0.0899092 0.0626899 0.0644071
81 3 O -1.65751 10.5242 53.1962 -1.2 1 0.0589479 0.0476535 0.023234 0.0238666 0.034177 0.0342541 0.0292743 0.0772908 0.04733 0.0589254 0.0507065 0.070383 0.0567571 0.0790856 0.0728673 0.0661796 0.0508503 0.0634992 0.0679759 0.0761208
82 3 O -1.21337 13.3381 46.4311 -1.2 1 0.520238 0.06787 0.0690882 0.0407442 0.0564994 0.0573061 0.0570728 0.070494 0.0803284 0.0663036 0.0457342 0.0706925 0.0677808 0.0878674 0.120353 0.113892 0.106307 0.100125 0.0597085 0.0914743
83 3 O -2.88502 12.7295 54.0034 -1.2 1 0.0278507 0.0276209 0.0242982 0.0257941 0.025984 0.027204 0.0453218 0.0441941 0.0403213 0.0548962 0.0527207 0.0432851 0.0575124 0.0625605 0.0762122 0.0694549 0.061859 0.0658861 0.0686547 0.0635859
84 3 O -0.337104 12.7635 53.8445 -1.2 1 0.0395851 0.0313078 0.0231948 0.0220725 0.0286818 0.0180704 0.0438951 0.0578635 0.0477449 0.0536082 0.0600068 0.0521766 0.0559843 0.0593557 0.0954667 0.0616896 0.077441 0.060085 0.0663947 0.0687858
85 1 Mg -3.00881 21.114 57.4806 1.2 1 0.00841176 0.0136169 0.00589306 0.0302073 0.00730784 0.0361463 0.0113343 0.0545089 0.0149316 0.0839564 0.0118767 0.0477585 0.0173521 0.0711123 0.0191806 0.103764 0.0193738 0.115718 0.0243965 0.103754
86 1 Mg -1.5831 21.1217 49.8405 1.2 1 0.22656 0.0840209 0.0235241 0.0439918 0.0303268 0.0532493 0.0538364 0.0548548 0.050753 0.0613571 0.0629912 0.0659753 0.0751486 0.074961 0.103954 0.0827005 0.0708098 0.0947475 0.0850319 0.0839873
87 2 Si -1.09384 18.6291 47.9287 2.4 1 0.372564 0.0706078 0.0788182 0.0666288 0.0323459 0.0669345 0.0493205 0.0800346 0.0639756 0.0706792 0.0588919 0.0747829 0.0582317 0.07337 0.0992377 0.0752768 0.106022 0.0956083 0.0903377 0.0899256
88 3 O -1.02071 20.1985 47.9911 -1.2 1 0.368308 0.0684591 0.0508175 0.0627761 0.0402708 0.0911502 0.0624833 0.0810801 0.0538839 0.0884173 0.0543555 0.0724117 0.0582955 0.0814413 0.082158 0.074627 0.0919923 0.0770639 0.0756035 0.0717964
89 3 O -1.65002 17.5002 51.771 -1.2 1 0.115266 0.0561246 0.0323547 0.0269763 0.0326431 0.0508433 0.0606531 0.0495942 0.0662949 0.0547843 0.0541914 0.0495105 0.0523977 0.0836848 0.100669 0.0741975 0.0804136 0.0491842 0.0711733 0.0708038
90 3 O -2.26174 18.0434 48.8281 -1.2 1 0.298874 0.100837 0.0651003 0.0279239 0.0636788 0.0468571 0.0577476 0.0720609 0.0597759 0.0681368 0.0729387 0.0620616 0.0542448 0.0582834 0.0782892 0.0876824 0.0874309 0.0799262 0.085843 0.0919324
91 1 Mg -0.0440435 16.5651 46.8269 1.2 1 0.48811 0.0227555 0.0753319 0.0322541 0.0586689 0.0796523 0.0692876 0.081116 0.0740111 0.0887583 0.0871419 0.0623985 0.0643324 0.0810236 0.0771127 0.0904681 0.092544 0.0971985 0.102081 0.109791
92 3 O 0.37001 17.9877 48.3925 -1.2 1 0.348642 0.0729885 0.0539594 0.0371506 0.0466159 0.0623543 0.0403578 0.0645172 0.0645735 0.0725951 0.0588802 0.0537134 0.0651186 0.0859085 0.0935721 0.0771666 0.0962155 0.105419 0.0807572 0.0850575
93 1 Mg 1.45796 16.5516 54.5466 1.2 1 0.00821942 0.0241207 0.0151809 0.0319207 0.0169005 0.0158598 0.0249162 0.0333236 0.0470411 0.0594394 0.0562563 0.0567462 0.0620342 0.0638886 0.0603833 0.0836181 0.0776342 0.0882384 0.079099 0.0792152
94 2 Si 1.29787 19.1169 56.4715 2.4 1 0.00768661 0.0189654 0.0158522 0.0228295 0.0296855 0.03202 0.0417662 0.0445507 0.0508656 0.0570369 0.05302 0.0584296 0.0711598 0.055192 0.0867478 0.0695969 0.0629543 0.0917075 0.0596378 0.0577126
95 3 O 1.38058 17.6204 56.542 -1.2 1 0.0272006 0.00760485 0.0233268 0.0264718 0.0238185 0.0271798 0.0261078 0.0703635 0.0403089 0.0512163 0.0421235 0.0662416 0.0516246 0.0649387 0.0757921 0.0672596 0.0540656 0.0766681 0.0576456 0.0803953
96 3 O 1.45147 20.239 52.7294 -1.2 1 0.0648655 0.0443253 0.0292351 0.0213191 0.0281563 0.0433594 0.0504417 0.0547508 0.0541828 0.0484113 0.0484154 0.0496628 0.059097 0.0687066 0.0983782 0.0729572 0.0705679 0.0606045 0.0697295 0.0656846
97 3 O 0.0127667 19.8532 55.8332 -1.2 1 0.0107131 0.00611443 0.029867 0.0217381 0.0228765 0.0246786 0.0441713 0.0477494 0.0448084 0.0454432 0.0520086 0.0417772 0.0522532 0.0556474 0.0829301 0.0751886 0.0674252 0.0578778 0.0665314 0.0804801
98 3 O 2.55622 19.8624 55.8138 -1.2 1 0.0146097 0.0125439 0.0313543 0.0132884 0.0183348 0.0214787 0.0415919 0.0444717 0.0373162 0.0414058 0.0498807 0.0415832 0.0505784 0.0713128 0.0863765 0.0662823 0.0898435 0.0590239 0.0705256 0.0621946
99 1 Mg -0.126194 18.8651 52.2079 1.2 1 0.104744 0.0619228 0.0267272 0.0408004 0.0313311 0.0429342 0.033146 0.0761588 0.0254113 0.0872988 0.0249369 0.0561069 0.0311072 0.0775337 0.031841 0.106624 0.0432138 0.10272 0.0406897 0.103763
100 1 Mg 1.92402 18.5815 49.4545 1.2 1 0.268929 0.102191 0.0366833 0.0408949 0.0288614 0.0326621 0.0663633 0.044664 0.0681705 0.077618 0.0827983 0.0572473 0.0718693 0.0674523 0.0807131 0.0911149 0.078281 0.0989939 0.0854925 0.0840796
101 2 Si 1.38106 20.9117 51.2443 2.4 1 0.126229 0.0881435 0.0402457 0.0409011 0.0411844 0.0466248 0.0558788 0.0470523 0.0536574 0.0675571 0.0660295 0.0719335 0.0737817 0.069916 0.092007 0.084546 0.0739968 0.0819982 0.0725509 0.068259
102 3 O 1.48527 22.4795 51.3054 -1.2 1 0.135246 0.0830416 0.019172 0.0249004 0.0343594 0.0455507 0.037149 0.0717652 0.0479529 0.0673539 0.042489 0.0824222 0.0670659 0.0652823 0.0767471 0.0709319 0.076559 0.0746657 0.0649494 0.07139
103 3 O 1.35287 19.8226 57.9243 -1.2 1 0.0205291 0.0166651 0.0277551 0.0192415 0.0223824 0.0313106 0.0277807 0.0444076 0.0554934 0.0414955 0.041407 0.0471208 0.0468919 0.0661395 0.103195 0.0708547 0.071526 0.0479028 0.0738449 0.0652559
104 3 O 0.0615419 20.2804 50.6669 -1.2 1 0.178332 0.0880352 0.025981 0.0234259 0.0457442 0.044042 0.0559506 0.0607346 0.0594505 0.0623781 0.0577039 0.0505207 0.0653464 0.0768682 0.0945414 0.0818939 0.0760225 0.0817809 0.071973 0.0870423
105 1 Mg -3.09665 18.8643 52.3122 1.2 1 0.0734837 0.0603828 0.0308555 0.0345182 0.0185159 0.0551344 0.0312344 0.0599306 0.0353857 0.0847349 0.029327 0.0481548 0.026415 0.0746292 0.0346047 0.110622 0.0492109 0.100628 0.0438462 0.0876337
106 3 O 2.61548 20.2646 50.4626 -1.2 1 0.196033 0.0956788 0.0278609 0.0165534 0.0388008 0.0558551 0.0630792 0.050642 0.0562029 0.067313 0.0648669 0.0676405 0.0559414 0.0621959 0.0964705 0.0714728 0.0731384 0.0659314 0.0620344 0.0881117
107 1 Mg -1.61828 18.9853 55.1813 1.2 1 0.0235179 0.0156882 0.0199597 0.0338547 0.0177819 0.0267222 0.0238259 0.0335212 0.0385352 0.0574923 0.0628901 0.0609404 0.0589968 0.0609494 0.0657592 0.0746141 0.0821514 0.0890922 0.0739835 0.0751337
108 2 Si -1.5777 16.7693 53.2407 2.4 1 0.0558763 0.0337581 0.0237758 0.0299623 0.036629 0.030912 0.0500058 0.0586351 0.052949 0.0669754 0.0598285 0.0683599 0.0781385 0.0519302 0.0695194 0.0626873 0.0655184 0.0901865 0.0607553 0.0615377
109 3 O -1.64902 15.2072 53.1673 -1.2 1 0.0705562 0.0332742 0.0246434 0.0242616 0.0283199 0.0332521 0.0290366 0.0772313 0.0473286 0.063343 0.0446074 0.0690302 0.0580531 0.0761982 0.0735952 0.0626113 0.0484873 0.0700793 0.0673011 0.0791106
110 3 O -1.12868 18.1227 46.4249 -1.2 1 0.52204 0.0665108 0.0725365 0.0517261 0.0576323 0.0652519 0.0608336 0.0786854 0.0788895 0.0612621 0.0444589 0.0682658 0.0681347 0.087374 0.115472 0.113722 0.107346 0.10181 0.0617944 0.0915532
111 3 O -2.76911 17.4519 54.0382 -1.2 1 0.0288371 0.0248335 0.0301071 0.0239624 0.0224101 0.029138 0.046041 0.0456175 0.0405629 0.0553465 0.0534187 0.0464922 0.052846 0.0628213 0.077289 0.0708058 0.0659811 0.0676653 0.0693397 0.0645632
112 3 O -0.241582 17.4852 53.7373 -1.2 1 0.0288837 0.0331078 0.0311609 0.028495 0.0307624 0.0155443 0.0496618 0.0518625 0.0551494 0.0468469 0.0574979 0.0488696 0.0572363 0.061031 0.0935851 0.0642094 0.0866618 0.0681177 0.0765355 0.0707843
113 1 Mg -3.01449 26.0356 57.6115 1.2 1 0.0124379 0.0142483 0.0149379 0.0299552 0.0170505 0.0334498 0.0197322 0.0552003 0.034262 0.0778923 0.0277135 0.0486051 0.0319845 0.0720093 0.0343518 0.0977391 0.0449933 0.105725 0.0546748 0.0810073
114 1 Mg -1.48778 25.88 49.8402 1.2 1 0.231176 0.0809432 0.023961 0.0447725 0.0294339 0.0538789 0.0515572 0.0527752 0.0523091 0.0582844 0.0634983 0.0657146 0.0719443 0.0741883 0.101326 0.0819251 0.0733969 0.0957225 0.0823039 0.0824707
115 2 Si -1.00491 23.3922 47.9274 2.4 1 0.373299 0.0641556 0.062657 0.0741463 0.0293699 0.0742771 0.0428607 0.0830109 0.0669318 0.0729611 0.0530754 0.0765707 0.0605822 0.0743777 0.0937445 0.0765292 0.104829 0.0977621 0.0905071 0.0938323
116 3 O -0.927602 24.9615 47.9909 -1.2 1 0.365975 0.0688294 0.0471827 0.0638649 0.0449969 0.0906977 0.063749 0.083589 0.0571025 0.0875322 0.05471 0.0725928 0.0611709 0.0822527 0.0824152 0.0745303 0.093674 0.0757274 0.0755349 0.0720497
117 3 O -1.55795 22.2588 51.7696 -1.2 1 0.116046 0.0539305 0.0353845 0.0267206 0.035107 0.0502002 0.0619747 0.0516469 0.0646609 0.0509124 0.0577647 0.0466957 0.0520641 0.0844595 0.0965245 0.0762474 0.0796569 0.0472836 0.0723776 0.0675031
118 3 O -2.17411 22.8111 48.8277 -1.2 1 0.305784 0.0918651 0.0570659 0.0284976 0.0593767 0.0433195 0.058752 0.0718961 0.0620564 0.073367 0.0733288 0.0586051 0.0531803 0.0606428 0.0759886 0.0837827 0.0874754 0.0832992 0.0873539 0.0853851
119 1 Mg 0.0423997 21.3296 46.8225 1.2 1 0.485546 0.0222064 0.0753754 0.0313579 0.0617716 0.0836865 0.0747322 0.0827853 0.0714637 0.0882078 0.0877972 0.0620847 0.0630772 0.0792911 0.0756345 0.0896692 0.0924293 0.0972946 0.100389 0.106783
120 3 O 0.458537 22.7495 48.3911 -1.2 1 0.341486 0.0828521 0.0581631 0.0414383 0.0444401 0.0597714 0.0417655 0.0682442 0.0670087 0.0731672 0.0624194 0.0581513 0.0653677 0.0866179 0.0947392 0.0762984 0.094015 0.103253 0.0827724 0.0881589
121 1 Mg 1.30433 21.246 54.6434 1.2 1 0.0110455 0.0186978 0.0211218 0.0315807 0.0157194 0.0200104 0.0238828 0.0361368 0.0456012 0.0575259 0.0608071 0.0534079 0.0524864 0.0635492 0.0613215 0.0894819 0.0695955 0.089971 0.0757564 0.0820105
122 2 Si 1.49287 23.882 56.4446 2.4 1 0.0129327 0.0166254 0.0216081 0.0247767 0.0276802 0.0326986 0.0431243 0.0405734 0.0517849 0.0513402 0.0504829 0.0668793 0.0731061 0.0620029 0.0821221 0.0713423 0.0621361 0.0907064 0.0587636 0.055646
123 3 O 1.41654 22.3803 56.4474 -1.2 1 0.0184787 0.0229499 0.0114011 0.0297314 0.0331001 0.0248903 0.02186 0.0713128 0.0347557 0.0577087 0.0381822 0.0711016 0.057947 0.0616291 0.0734352 0.0654407 0.0575972 0.0745703 0.0621427 0.069746
124 3 O 1.54441 24.9963 52.7297 -1.2 1 0.0648215 0.0502435 0.0243125 0.0184768 0.0278151 0.0366355 0.0531887 0.0572943 0.0520415 0.0464827 0.0477715 0.0476773 0.0619732 0.0680482 0.100298 0.0743777 0.06945 0.0632534 0.0713231 0.060664
125 3 O 0.168098 24.5419 55.7554 -1.2 1 0.00183885 0.0123593 0.0369381 0.0174236 0.0185603 0.0227876 0.0431128 0.0409575 0.0419067 0.0495753 0.0552948 0.0369646 0.0527521 0.0605942 0.0790139 0.0807472 0.0698693 0.0563295 0.0594956 0.0775237
126 3 O 2.79646 24.6237 55.7536 -1.2 1 0.0146662 0.0157146 0.0279778 0.0198149 0.0179069 0.0224223 0.0465171 0.0481448 0.0377272 0.0421804 0.055678 0.0438946 0.05597 0.0539257 0.0887272 0.0770199 0.0760675 0.0637465 0.0623462 0.0662004