ITEM: TIMESTEP
63700
ITEM: NUMBER OF ATOMS
10500
ITEM: BOX BOUNDS xy xz yz pp pp pp
0	8.9688	2.9896
0	118.725	0
0	252.977	0
ITEM: ATOMS id type element xu yu zu q Q_1 Q_2 Q_3 Q_4 Q_5 Q_6 Q_7 Q_8 Q_9 Q_10 Q_11 Q_12 Q_13 Q_14 Q_15 Q_16 Q_17 Q_18 Q_19 Q_20 Q_21
1 1 Mg -3.28189 7.12465 57.409 1.2 1 0.0135505 0.0178879 0.0154386 0.0239206 0.0138326 0.0373905 0.0203936 0.0568365 0.0131609 0.0814569 0.0179094 0.0532234 0.0182254 0.0699279 0.0180196 0.108656 0.0333731 0.109485 0.03012 0.0890109
2 1 Mg -1.82655 6.90154 50.0912 1.2 1 0.223027 0.085106 0.0331285 0.0378308 0.0285993 0.053104 0.0470518 0.0446712 0.0558072 0.06962 0.0563959 0.0708484 0.0680884 0.0595727 0.0969218 0.0648148 0.0861592 0.0962557 0.077025 0.0817832
3 2 Si -0.257935 3.96038 48.0876 2.4 1 0.366409 0.0812296 0.0814865 0.0302559 0.0629037 0.0555208 0.0736475 0.0786492 0.0602956 0.0804331 0.0558379 0.064665 0.0601984 0.0868336 0.0986957 0.101128 0.109801 0.0903547 0.070991 0.071697
4 3 O -0.335812 5.46814 47.6264 -1.2 1 0.426778 0.0387405 0.065744 0.0318928 0.0402995 0.0466183 0.0657302 0.07184 0.086676 0.0756405 0.092034 0.0735215 0.0699606 0.0703782 0.092632 0.124598 0.0939066 0.0811794 0.0769158 0.0787333
5 3 O -2.03793 3.43377 51.8941 -1.2 1 0.115626 0.0609184 0.0236284 0.0205637 0.0189154 0.0530059 0.0569056 0.0495272 0.0483139 0.0567672 0.0630887 0.0518507 0.0532075 0.072148 0.0862128 0.0835533 0.0658758 0.0503809 0.082071 0.0659864
6 3 O -1.54015 3.53929 48.9521 -1.2 1 0.307139 0.0875824 0.0345281 0.0462309 0.034319 0.0492979 0.0720483 0.0509931 0.0576572 0.0652472 0.0719789 0.0647691 0.0667377 0.0684357 0.0752065 0.110772 0.0809775 0.0772587 0.0734222 0.0921656
7 1 Mg 1.82954 2.54582 47.1376 1.2 1 0.462795 0.0193083 0.0825318 0.054168 0.0398053 0.084264 0.0624457 0.0591724 0.0762166 0.0893264 0.0686708 0.0767604 0.081188 0.0844998 0.0721974 0.0988871 0.0998212 0.0996017 0.103193 0.0978365
8 3 O 1.22989 3.66364 48.7877 -1.2 1 0.321367 0.0705173 0.0218017 0.0443016 0.0315087 0.0646554 0.0782983 0.0349933 0.0820493 0.0780966 0.0497174 0.0784018 0.0827243 0.0638941 0.0659179 0.0919641 0.0939926 0.0892338 0.0950361 0.0915061
9 1 Mg 0.816735 2.41815 54.4652 1.2 1 0.0138389 0.0332668 0.0165824 0.0293419 0.022927 0.030499 0.0167398 0.0375216 0.0360456 0.0651413 0.0554684 0.0509561 0.0618573 0.0669615 0.0645178 0.0724768 0.0753194 0.0842413 0.0719321 0.0680935
10 2 Si 1.02836 4.97219 56.3773 2.4 1 0.0209549 0.00969257 0.0269365 0.0213207 0.0192384 0.0177825 0.048728 0.0453449 0.0414689 0.0601488 0.0548681 0.0575595 0.053535 0.0621997 0.077915 0.0756643 0.0738145 0.0884577 0.0606847 0.0693044
11 3 O 0.886082 3.4856 56.3294 -1.2 1 0.0140939 0.00815974 0.0168761 0.0258255 0.0301955 0.0227773 0.0230322 0.0719605 0.030032 0.0587723 0.0418222 0.0564834 0.0519814 0.0622517 0.0680747 0.067283 0.0519152 0.0638872 0.0725123 0.0683922
12 3 O 1.10813 6.07342 52.8172 -1.2 1 0.0907569 0.0422283 0.0290166 0.0195013 0.021504 0.0461852 0.0463159 0.0485187 0.0483096 0.0416439 0.0536739 0.0570442 0.0682506 0.0650979 0.0829619 0.0798165 0.062099 0.0751068 0.0707222 0.0654484
13 3 O -0.275916 5.73311 55.8921 -1.2 1 0.0133685 0.0263592 0.0319198 0.0266019 0.023971 0.0226869 0.0398243 0.0384545 0.0503339 0.0444866 0.0567988 0.0358204 0.0561675 0.0613389 0.077937 0.0714413 0.0725008 0.0628247 0.0649515 0.0661181
14 3 O 2.29147 5.82058 55.7039 -1.2 1 0.023644 0.0247015 0.024046 0.0229607 0.0228223 0.0211342 0.0459053 0.0427751 0.0420623 0.041045 0.0586166 0.0364482 0.0522207 0.0593163 0.0854045 0.0619581 0.0729164 0.072683 0.0673712 0.0619651
15 1 Mg -0.459401 4.67631 52.2426 1.2 1 0.0981656 0.0701511 0.0287009 0.0284164 0.029886 0.0346281 0.0388861 0.0595104 0.0400653 0.0758778 0.0447306 0.0608576 0.0456878 0.0754 0.0447529 0.104287 0.0528847 0.0898595 0.0577328 0.0895283
16 1 Mg 2.79456 3.9971 49.9987 1.2 1 0.227033 0.0916825 0.0290998 0.0436554 0.0467662 0.0587689 0.0575814 0.0527448 0.0793046 0.0633418 0.0598518 0.0555664 0.0614568 0.0703584 0.0828358 0.0720362 0.0702591 0.0885485 0.0883536 0.0757164
17 2 Si 1.16169 6.59457 51.2556 2.4 1 0.143688 0.0813314 0.0407121 0.0332757 0.0398032 0.0533002 0.0413029 0.0434572 0.0619559 0.0636141 0.0635258 0.0743085 0.0732212 0.0677624 0.0863928 0.0884578 0.0769077 0.0871059 0.0760936 0.0690024
18 3 O 1.28989 8.18905 51.2909 -1.2 1 0.138533 0.0869642 0.0222894 0.0395964 0.0288908 0.054658 0.0364893 0.0669937 0.0528861 0.0739998 0.0474116 0.0923836 0.0740578 0.0649509 0.0799298 0.0748888 0.0729895 0.069922 0.0739755 0.067543
19 3 O 1.22623 5.73588 57.8343 -1.2 1 0.0205238 0.0147667 0.0232046 0.0185016 0.0219331 0.0296215 0.0311945 0.0415535 0.0548279 0.0401744 0.0452359 0.0411887 0.0635672 0.0700978 0.0946293 0.0689451 0.0619594 0.0490509 0.0715774 0.0603464
20 3 O -0.184847 6.06029 50.6845 -1.2 1 0.192552 0.0778579 0.0193771 0.0319883 0.0383818 0.0316393 0.0495541 0.0528451 0.0550822 0.0603382 0.0617705 0.0776061 0.0659074 0.0562574 0.0846242 0.065356 0.0774442 0.0774353 0.0625762 0.0770044
21 1 Mg -3.49704 4.67769 52.6661 1.2 1 0.0745992 0.0513796 0.0243949 0.0235837 0.0135862 0.0382374 0.0378518 0.0626936 0.0498104 0.0704244 0.0483755 0.0459871 0.0488564 0.0434075 0.0625084 0.0858484 0.0835991 0.0733913 0.0710983 0.0773264
22 3 O 2.48581 5.93312 50.6539 -1.2 1 0.198446 0.0854964 0.0361566 0.0230542 0.0309472 0.0484019 0.0566535 0.0606321 0.044604 0.0634943 0.0423895 0.0679518 0.0570186 0.0597687 0.100959 0.0711706 0.0785177 0.0643684 0.0799495 0.0753105
23 1 Mg -1.90495 4.99807 55.1132 1.2 1 0.0185637 0.0267516 0.0195508 0.0249008 0.0159889 0.0252539 0.0260041 0.0346397 0.0335368 0.0550479 0.0635471 0.0629344 0.0542963 0.06515 0.0638489 0.0816259 0.0712763 0.08837 0.0682184 0.067948
24 2 Si -2.06112 2.63416 53.4005 2.4 1 0.0316887 0.0402628 0.0311116 0.0204607 0.0290914 0.0226275 0.0563747 0.0416923 0.0614896 0.0714062 0.0570319 0.0632435 0.0713078 0.0531504 0.0647765 0.0638649 0.0633228 0.0815832 0.077957 0.0678489
25 3 O -1.86371 1.07223 53.1945 -1.2 1 0.0567104 0.0364139 0.0261464 0.0237615 0.0185712 0.03888 0.027326 0.061291 0.0638368 0.0548309 0.0473516 0.065523 0.0618834 0.067589 0.0681717 0.0750495 0.0551953 0.07072 0.0705979 0.0721122
26 3 O -0.0467762 2.97103 46.8385 -1.2 1 0.49777 0.0371752 0.0875964 0.0297966 0.0802699 0.0674262 0.0800755 0.0709387 0.0727844 0.080282 0.0828707 0.0765772 0.0966341 0.08722 0.087875 0.0886546 0.0991191 0.096999 0.104767 0.110193
27 3 O -3.28819 3.33977 53.988 -1.2 1 0.0286852 0.0279738 0.0287017 0.0211226 0.0191839 0.0308886 0.0491926 0.0434234 0.0503601 0.0503581 0.0642723 0.0424101 0.0645421 0.0657392 0.0753205 0.0622955 0.0694132 0.0647929 0.0796927 0.0695572
28 3 O -0.816682 3.42543 54.0633 -1.2 1 0.0328982 0.0239439 0.0365161 0.0144162 0.0231082 0.028025 0.0436299 0.046437 0.0457695 0.0501305 0.0572455 0.0421095 0.0494455 0.0701567 0.0765436 0.0713861 0.0745716 0.0784762 0.0650584 0.0566063
29 1 Mg -3.19517 11.7942 57.4415 1.2 1 0.00409794 0.0157721 0.00831271 0.0329066 0.0129987 0.03582 0.0143838 0.0511806 0.0166964 0.0874856 0.022632 0.0481524 0.0238538 0.0690404 0.022006 0.096881 0.0249351 0.117124 0.029229 0.0934122
30 1 Mg -1.75014 11.5838 49.8362 1.2 1 0.232505 0.080387 0.0313982 0.0419009 0.0302925 0.0524177 0.0495592 0.0557796 0.0467447 0.0580564 0.065239 0.0580263 0.0710714 0.0726199 0.11209 0.0935219 0.0641104 0.0900569 0.0843563 0.083067
31 2 Si -1.18003 9.02138 47.9309 2.4 1 0.367622 0.0713373 0.0682418 0.0551563 0.0399103 0.0584862 0.072902 0.0778745 0.070271 0.0669866 0.0602363 0.0678469 0.0672455 0.0814697 0.104035 0.0631843 0.0987786 0.0923239 0.102775 0.083824
32 3 O -1.23224 10.5991 47.9811 -1.2 1 0.375769 0.0639983 0.0581085 0.0557732 0.0522485 0.0710484 0.0661269 0.0750865 0.0537199 0.0855334 0.0678339 0.0623121 0.0740107 0.081355 0.0836874 0.0690396 0.0911939 0.0825693 0.0673165 0.0737715
33 3 O -1.79016 8.01447 51.8693 -1.2 1 0.123549 0.0585304 0.0284981 0.0281489 0.0313867 0.0484081 0.054634 0.055063 0.0591365 0.0572958 0.0429798 0.0519131 0.0688948 0.0786582 0.0849987 0.0714244 0.0717588 0.0538657 0.0668956 0.0647727
34 3 O -2.30986 8.37215 48.8528 -1.2 1 0.310933 0.0871835 0.0656172 0.0253683 0.0544487 0.0625369 0.0624125 0.0667638 0.0589325 0.0636484 0.0769678 0.0687465 0.0613037 0.0650431 0.0789753 0.0904031 0.0973254 0.0822064 0.0759812 0.0930376
35 1 Mg 0.154883 7.08234 46.8007 1.2 1 0.497145 0.0355298 0.0763318 0.0401823 0.0640161 0.0720644 0.0555955 0.0685395 0.0716294 0.0823586 0.0893647 0.0766653 0.0785154 0.0792273 0.0704638 0.0936097 0.0941864 0.107448 0.111815 0.100115
36 3 O 0.325447 8.50934 48.3809 -1.2 1 0.345295 0.0836243 0.0654629 0.0397285 0.0388901 0.0566574 0.0411658 0.0593699 0.0588761 0.0658 0.0768231 0.0642902 0.0793696 0.0931586 0.0921934 0.0721123 0.0950024 0.104834 0.08659 0.0867887
37 1 Mg 1.21769 7.34686 54.7147 1.2 1 0.0269634 0.0220739 0.0195412 0.0294006 0.0160162 0.0229014 0.0288432 0.0364192 0.0462263 0.0551029 0.0702708 0.0591408 0.044323 0.0602569 0.0609419 0.0936533 0.0679045 0.0819808 0.0829117 0.0797597
38 2 Si 1.34211 9.64544 56.5227 2.4 1 0.0263322 0.00652235 0.0175869 0.0242322 0.0264453 0.0232356 0.0436744 0.0365599 0.0494888 0.0692736 0.0496763 0.0612995 0.0602365 0.0608354 0.0806159 0.0665534 0.0702512 0.0838981 0.0646433 0.0698512
39 3 O 1.30355 8.09851 56.6494 -1.2 1 0.0299812 0.0133558 0.016063 0.0225694 0.0158889 0.0328863 0.026089 0.054032 0.037663 0.0505822 0.0474424 0.0579659 0.0562709 0.067023 0.0782362 0.0644305 0.0619102 0.0747764 0.0564826 0.0833259
40 3 O 1.28624 10.7248 52.7351 -1.2 1 0.0769975 0.0447916 0.0261302 0.0237834 0.0281216 0.0482158 0.0533057 0.0448662 0.0433267 0.0498456 0.0530012 0.0507612 0.0624971 0.0734842 0.0945441 0.0836382 0.0724158 0.054442 0.0712048 0.0635459
41 3 O -0.0316104 10.2829 55.7904 -1.2 1 0.012157 0.0136483 0.0273684 0.0130385 0.0286961 0.0236253 0.0400523 0.0429786 0.0354104 0.0519735 0.0516017 0.0343824 0.0522737 0.0643675 0.0725654 0.0778965 0.0744692 0.0601314 0.0736055 0.072987
42 3 O 2.51661 10.5596 55.8065 -1.2 1 0.0204478 0.026737 0.031089 0.0172649 0.0274357 0.0269594 0.0463535 0.0446838 0.0380006 0.0444363 0.058277 0.0430228 0.0508172 0.0576201 0.0876051 0.0627725 0.0696687 0.0643358 0.0614764 0.0686877
43 1 Mg -0.262694 9.34741 52.2523 1.2 1 0.118016 0.0616338 0.0219123 0.0383634 0.033519 0.0458779 0.0366954 0.073025 0.0258466 0.0877546 0.033183 0.0544396 0.0396212 0.0768189 0.0384437 0.107345 0.0516031 0.0900806 0.048217 0.0999452
44 1 Mg 1.87648 9.01537 49.4629 1.2 1 0.273811 0.0953408 0.043114 0.0353243 0.033129 0.0552388 0.0669028 0.0440336 0.0802656 0.0597237 0.0804347 0.0547526 0.0769224 0.064934 0.0856888 0.0947865 0.0846047 0.0991943 0.0848192 0.0888555
45 2 Si 1.21415 11.3799 51.2378 2.4 1 0.133456 0.0850665 0.0413466 0.0362453 0.0372339 0.0518377 0.0557602 0.0417225 0.0564926 0.0623653 0.073818 0.0718718 0.0768031 0.0687425 0.0896539 0.0871784 0.0766391 0.0791291 0.0806939 0.0560925
46 3 O 1.31634 12.9512 51.3023 -1.2 1 0.126067 0.0836068 0.0279448 0.0307591 0.0316974 0.0487549 0.0421343 0.0706991 0.0569744 0.0702455 0.0434578 0.0850348 0.0730027 0.0617433 0.0756797 0.070344 0.0806802 0.0715112 0.0771806 0.0727504
47 3 O 1.24324 10.1975 57.843 -1.2 1 0.0120177 0.0197658 0.017723 0.019105 0.0226542 0.028669 0.0295326 0.0449008 0.066428 0.0430903 0.0482386 0.0475577 0.055132 0.0715289 0.0941167 0.0755944 0.0660874 0.0473308 0.076757 0.0648453
48 3 O -0.115718 10.7564 50.681 -1.2 1 0.195117 0.0766581 0.0251771 0.0168492 0.0465195 0.0338131 0.0489264 0.0663774 0.0502883 0.0567351 0.0585079 0.049432 0.0576554 0.074885 0.0945672 0.0784358 0.0700764 0.0756419 0.0770768 0.0856245
49 1 Mg -3.26386 9.35564 52.3622 1.2 1 0.0836928 0.0519378 0.0314692 0.0289752 0.0196309 0.0499174 0.0376012 0.0594034 0.0297167 0.0843079 0.0316139 0.0442102 0.0412085 0.0669837 0.0388512 0.113981 0.0541179 0.104073 0.0495072 0.0896342
50 3 O 2.45216 10.7265 50.4558 -1.2 1 0.199685 0.0927988 0.0177011 0.0109534 0.0429107 0.0526797 0.0542952 0.0502208 0.0533768 0.0693569 0.064533 0.0749148 0.0528526 0.0625201 0.09496 0.0835538 0.0729726 0.0764699 0.0610831 0.0822678
51 1 Mg -1.81433 9.6507 55.0753 1.2 1 0.0277608 0.0119841 0.0210427 0.0277455 0.0112237 0.025371 0.0233002 0.0315756 0.0391087 0.0537878 0.0620138 0.0589689 0.0647843 0.0722656 0.0668961 0.0835018 0.0693149 0.0913748 0.071065 0.0785966
52 2 Si -1.59297 7.46304 53.4195 2.4 1 0.0486357 0.0412297 0.0273556 0.0281688 0.030398 0.0338423 0.0353203 0.0529084 0.0583737 0.062379 0.0586272 0.0531291 0.0742072 0.0504713 0.0646278 0.0682 0.0689801 0.0826395 0.0678738 0.0530026
53 3 O -1.76907 5.84499 53.329 -1.2 1 0.0519312 0.036569 0.0261989 0.0177434 0.0133444 0.0278719 0.0366716 0.0716186 0.0493965 0.0605224 0.0335683 0.0663646 0.0645609 0.0735094 0.0679354 0.0596383 0.067576 0.0586074 0.0760399 0.071471
54 3 O -1.19417 8.46968 46.4488 -1.2 1 0.525037 0.0663197 0.0664069 0.051583 0.0665525 0.0540807 0.0765794 0.0540055 0.0763008 0.0712286 0.0563581 0.0499849 0.0692825 0.0985445 0.130822 0.113919 0.0974885 0.0952675 0.0829826 0.0825024
55 3 O -3.03415 8.22258 54.0132 -1.2 1 0.0469589 0.0202066 0.0281518 0.0191763 0.0227389 0.0278291 0.045987 0.0436681 0.0412427 0.0539636 0.0510118 0.0444057 0.0545907 0.0580873 0.088707 0.0660255 0.0683663 0.061147 0.0674671 0.072481
56 3 O -0.376781 8.15608 54.017 -1.2 1 0.0537705 0.0281298 0.0234158 0.0199191 0.0273441 0.0255155 0.033227 0.0472037 0.044133 0.0532849 0.0591075 0.0515784 0.0579973 0.0546256 0.0879187 0.0646557 0.0667997 0.0704535 0.0636434 0.075787
57 1 Mg -3.16875 16.6281 57.5244 1.2 1 0.0129536 0.02067 0.00832007 0.0301359 0.0117982 0.0353129 0.0108533 0.0542184 0.0183352 0.0843789 0.0224832 0.0503489 0.0227253 0.0707721 0.0220046 0.104634 0.0323161 0.112692 0.0400599 0.085436
58 1 Mg -1.6714 16.3544 49.8412 1.2 1 0.230027 0.0819416 0.0264282 0.0426894 0.0290754 0.0526515 0.0531609 0.0539889 0.0476682 0.0625167 0.0637416 0.0640098 0.0730614 0.0756112 0.106068 0.0864088 0.0731144 0.0929937 0.0823825 0.0839591
59 2 Si -1.18567 13.8526 47.9314 2.4 1 0.371076 0.0716785 0.078329 0.0635881 0.0295753 0.0668884 0.0493027 0.082096 0.0603306 0.0658494 0.0560532 0.0735797 0.0592533 0.0781429 0.100948 0.0737024 0.105185 0.100117 0.0911848 0.0898461
60 3 O -1.09664 15.4205 47.9915 -1.2 1 0.362179 0.0755072 0.0521431 0.0618374 0.0474729 0.0935929 0.0601109 0.079666 0.0516292 0.0873167 0.0524569 0.072688 0.0619393 0.0846816 0.0852679 0.0750894 0.0965046 0.080684 0.0740593 0.0684374
61 3 O -1.73493 12.7491 51.7772 -1.2 1 0.118314 0.0565893 0.0281933 0.0270897 0.0310322 0.0548583 0.0578898 0.04877 0.0663277 0.0529733 0.05357 0.0491442 0.0564642 0.0825021 0.102856 0.0781502 0.0813581 0.046917 0.0751621 0.0719167
62 3 O -2.36115 13.2717 48.8238 -1.2 1 0.30674 0.0918913 0.0585976 0.0280676 0.057718 0.050706 0.0540481 0.0695333 0.0606583 0.0631831 0.0720689 0.0627726 0.0581361 0.0554354 0.0820933 0.0874132 0.0877932 0.0781274 0.0808429 0.089075
63 1 Mg -0.159928 11.7639 46.8533 1.2 1 0.480747 0.0190317 0.083856 0.0285075 0.0436388 0.0945612 0.0650161 0.0868787 0.0877284 0.0866713 0.0822319 0.0688434 0.0763921 0.0957043 0.0773497 0.0823768 0.095496 0.0992561 0.103136 0.110158
64 3 O 0.2623 13.1866 48.413 -1.2 1 0.342117 0.0816011 0.0582759 0.0356437 0.0467778 0.059573 0.042911 0.063954 0.0636366 0.0728063 0.0654085 0.0605531 0.0675949 0.0891816 0.0996847 0.085356 0.0983116 0.10097 0.081489 0.0839043
65 1 Mg 1.27719 12.0213 54.8093 1.2 1 0.0299034 0.0202885 0.0112285 0.0346507 0.0146545 0.017558 0.0230484 0.0289323 0.0462553 0.0549435 0.0660367 0.0596621 0.048934 0.0609298 0.0558797 0.10275 0.068167 0.0891525 0.060179 0.0831596
66 2 Si 1.29239 14.5419 56.4596 2.4 1 0.0183719 0.0122186 0.0266345 0.0398652 0.0257942 0.0267765 0.0477346 0.0422445 0.0458779 0.0546113 0.0521967 0.0676207 0.0683565 0.0632821 0.0849961 0.0732332 0.0566751 0.0845955 0.0549731 0.0613548
67 3 O 1.36294 13.0552 56.6341 -1.2 1 0.0361064 0.0109765 0.0203833 0.0196336 0.0210892 0.0315232 0.0292853 0.0574634 0.0409375 0.0428913 0.0384808 0.0661192 0.0424036 0.0600911 0.0786216 0.0671417 0.0626444 0.0812446 0.0544993 0.0856364
68 3 O 1.36565 15.4813 52.729 -1.2 1 0.0640795 0.0441734 0.0302411 0.0219845 0.0290823 0.0403887 0.0544348 0.052927 0.0509854 0.0507759 0.0491709 0.0493553 0.0550167 0.0725079 0.097304 0.0754022 0.0716952 0.0601031 0.071169 0.0656103
69 3 O 0.156842 15.2545 55.74 -1.2 1 0.0145019 0.0104847 0.0302018 0.0123462 0.0215817 0.0199291 0.043275 0.0424541 0.039454 0.0480799 0.0511099 0.044336 0.0512069 0.0599857 0.0913403 0.0641766 0.0819983 0.058315 0.0710626 0.0643177
70 3 O 2.65647 15.1807 55.8337 -1.2 1 0.0233617 0.0158904 0.0290913 0.017428 0.0234514 0.0233664 0.047818 0.0405737 0.0418106 0.0411152 0.0599443 0.0388205 0.0515091 0.0701833 0.0742813 0.0729377 0.0795603 0.0577489 0.0686195 0.0737041
71 1 Mg -0.206989 14.1049 52.2121 1.2 1 0.102972 0.0645217 0.0279254 0.0458379 0.0248372 0.0435294 0.0399256 0.0689287 0.0291271 0.0811036 0.0277402 0.0491701 0.0317936 0.0765686 0.0368944 0.111136 0.0423423 0.102172 0.044005 0.0959058
72 1 Mg 1.82591 13.8102 49.4556 1.2 1 0.263231 0.104037 0.031022 0.0409996 0.0359633 0.0381757 0.0686952 0.042934 0.0704344 0.0702476 0.0755954 0.0577052 0.0718606 0.071609 0.0868115 0.093186 0.0795329 0.100238 0.085866 0.0769705
73 2 Si 1.29285 16.1518 51.2434 2.4 1 0.129861 0.0831257 0.0439967 0.0363184 0.0395451 0.0506872 0.0517955 0.0442174 0.0543027 0.0683303 0.0689628 0.0699282 0.0699264 0.0702953 0.092592 0.0871517 0.073361 0.083605 0.0689182 0.0666626
74 3 O 1.39496 17.7199 51.3047 -1.2 1 0.132853 0.0844125 0.0243681 0.0365449 0.035731 0.0388085 0.0465315 0.0710393 0.0579522 0.0650258 0.046587 0.0817102 0.0670556 0.0649944 0.0757662 0.0655945 0.077341 0.074447 0.0689668 0.0705784
75 3 O 1.34043 15.2855 57.98 -1.2 1 0.00804156 0.00831523 0.0239566 0.0169682 0.0249767 0.0341652 0.0335841 0.0458758 0.0518871 0.0457971 0.038729 0.0434582 0.0499845 0.0707222 0.103438 0.0589235 0.0640867 0.0583907 0.0712487 0.0675208
76 3 O -0.0269106 15.5178 50.6688 -1.2 1 0.183541 0.0809798 0.0263703 0.02045 0.0453651 0.0446216 0.0532962 0.0611337 0.0590607 0.0589353 0.0587382 0.0486295 0.0592838 0.0750643 0.0929329 0.0806586 0.0755644 0.0820389 0.0680093 0.088226
77 1 Mg -3.18391 14.1057 52.3125 1.2 1 0.0719661 0.0569767 0.0320739 0.0300741 0.0178145 0.0562552 0.0337246 0.0636095 0.0310644 0.085802 0.0292505 0.0413494 0.0285855 0.0781425 0.0317701 0.10612 0.0492021 0.105713 0.0431571 0.0892268
78 3 O 2.52432 15.503 50.4579 -1.2 1 0.192543 0.0944038 0.0206733 0.0141222 0.0439012 0.0508432 0.0575587 0.049602 0.0570667 0.0690489 0.0640946 0.0708945 0.0586648 0.0618365 0.101309 0.0789152 0.0737768 0.0713987 0.062233 0.0810698
79 1 Mg -1.65139 14.3927 55.0863 1.2 1 0.0309488 0.0189921 0.0140528 0.0267987 0.012944 0.0205738 0.0235613 0.0294107 0.0380298 0.05431 0.0568508 0.0638331 0.0554913 0.066099 0.0648472 0.084339 0.0762472 0.0889964 0.0749138 0.0776908
80 2 Si -1.7065 12.0649 53.2993 2.4 1 0.0603004 0.0342681 0.0160492 0.0207747 0.030706 0.03324 0.0465794 0.0535004 0.0533661 0.0637161 0.063359 0.0699137 0.0757605 0.0567543 0.0729101 0.0652356 0.0672683 0.0840162 0.0663923 0.0611942
81 3 O -1.75321 10.5679 53.1415 -1.2 1 0.0775149 0.0375666 0.0216224 0.02627 0.0259102 0.0329835 0.029914 0.076023 0.0516633 0.0525299 0.0538823 0.0712952 0.0591005 0.0763253 0.0702089 0.0691638 0.052845 0.0688788 0.0641444 0.0835318
82 3 O -1.21337 13.3381 46.4311 -1.2 1 0.520162 0.0679343 0.0698019 0.0406359 0.0560662 0.0582164 0.0581675 0.0698202 0.0787799 0.0651145 0.0457604 0.0709719 0.0676268 0.0874964 0.120116 0.113891 0.106748 0.100809 0.0600427 0.0906432
83 3 O -2.98934 12.7889 53.9455 -1.2 1 0.0354556 0.0310609 0.0281092 0.0245982 0.0312448 0.0216043 0.0546061 0.0481906 0.0459524 0.0490269 0.0485939 0.0461872 0.0534348 0.0694251 0.0774823 0.0673816 0.0696434 0.0622915 0.0675074 0.0727603
84 3 O -0.306793 12.8078 53.9481 -1.2 1 0.0448936 0.0221772 0.0262026 0.0201014 0.0250535 0.0184857 0.0379409 0.0478956 0.0522727 0.0508747 0.0540821 0.0481727 0.0575878 0.0633374 0.0867722 0.0660696 0.0808735 0.0645912 0.0642031 0.0761302
85 1 Mg -3.08262 21.387 57.352 1.2 1 0.0140981 0.00996255 0.0108648 0.0253805 0.0135952 0.0306992 0.0156864 0.0546154 0.016235 0.0850346 0.0167102 0.0498908 0.0204993 0.0741919 0.0199956 0.104615 0.026963 0.108528 0.0276337 0.0936695
86 1 Mg -1.5831 21.1217 49.8405 1.2 1 0.229521 0.0848047 0.0240915 0.0415713 0.0288985 0.0486864 0.0551728 0.0523036 0.0522676 0.0592223 0.0637699 0.0691601 0.0733959 0.0721297 0.100837 0.0815965 0.0739533 0.0931377 0.0798706 0.0858766
87 2 Si -1.09384 18.6291 47.9287 2.4 1 0.378788 0.061821 0.0692079 0.0656881 0.0299262 0.0684024 0.0451159 0.0785326 0.0633333 0.0677712 0.054604 0.0729274 0.0560075 0.0718428 0.0982963 0.0731443 0.102902 0.0922146 0.0896954 0.0924258
88 3 O -1.02071 20.1985 47.9911 -1.2 1 0.370355 0.0627396 0.0427941 0.0634058 0.0445246 0.0917999 0.0621105 0.0794668 0.0543597 0.0869858 0.0549448 0.0742475 0.0614101 0.0791104 0.0775417 0.0721039 0.0944237 0.0789389 0.0757795 0.0710512
89 3 O -1.65002 17.5002 51.771 -1.2 1 0.118531 0.0554054 0.0288311 0.0261941 0.0347278 0.0503262 0.0572749 0.0497356 0.0691349 0.0494353 0.0590882 0.0458233 0.0589509 0.0775826 0.0983556 0.0805793 0.0770407 0.0449171 0.0769163 0.0704677
90 3 O -2.26174 18.0434 48.8281 -1.2 1 0.301666 0.0953898 0.0586497 0.0292745 0.0589083 0.0495819 0.0572199 0.0739667 0.0638782 0.0682624 0.0707079 0.0597987 0.0551237 0.0563794 0.0783135 0.0879099 0.0862497 0.0787692 0.0829136 0.0906852
91 1 Mg -0.0440435 16.5651 46.8269 1.2 1 0.476304 0.0223903 0.0902268 0.027433 0.0626506 0.0875882 0.0796337 0.0869238 0.07149 0.0848709 0.0847144 0.0622495 0.0648167 0.07909 0.0769753 0.0931181 0.0926667 0.0975871 0.102927 0.108596
92 3 O 0.37001 17.9877 48.3925 -1.2 1 0.344899 0.0782775 0.0569027 0.0408214 0.0464779 0.0624193 0.040843 0.0667346 0.0664446 0.0718311 0.0591599 0.0565969 0.0658751 0.0879365 0.0959306 0.0780599 0.0935388 0.100224 0.0811945 0.0859091
93 1 Mg 1.33453 16.67 54.7071 1.2 1 0.00866007 0.0288878 0.0173127 0.0281811 0.0147778 0.018073 0.0255409 0.0341133 0.0462999 0.0595087 0.0652403 0.0541693 0.0565215 0.065508 0.0581131 0.0934687 0.0633533 0.097785 0.0615437 0.0874869
94 2 Si 1.39036 19.4545 56.3056 2.4 1 0.00485043 0.00781331 0.030366 0.0294874 0.0303452 0.0330402 0.0369119 0.0447107 0.0523957 0.0463518 0.0430698 0.0606899 0.0644962 0.0565501 0.0677315 0.0821938 0.0564899 0.100767 0.0630336 0.0509766
95 3 O 1.34611 17.8475 56.5524 -1.2 1 0.0339011 0.0113755 0.0220178 0.0235074 0.0196652 0.0272858 0.0196371 0.0647741 0.0393104 0.0381906 0.0512778 0.0606567 0.0524739 0.0581522 0.0758955 0.0669068 0.0630475 0.0761788 0.0540054 0.0797264
96 3 O 1.45147 20.239 52.7294 -1.2 1 0.0696876 0.0445089 0.0247524 0.0225472 0.0277599 0.042657 0.0536625 0.0526389 0.0485133 0.0477106 0.0418152 0.0546627 0.0575373 0.0693665 0.097389 0.0703574 0.0730489 0.0618207 0.0696297 0.0579915
97 3 O 0.126591 20.1102 55.6797 -1.2 1 0.0141905 0.0124677 0.0317417 0.0196034 0.0208404 0.0210822 0.0398382 0.0401401 0.0401385 0.0433018 0.054935 0.0385267 0.05379 0.0542716 0.0916381 0.0754342 0.0738925 0.0668638 0.0587716 0.0707656
98 3 O 2.71551 20.009 55.5922 -1.2 1 0.0222303 0.0151032 0.0226125 0.019414 0.02047 0.0179124 0.0386496 0.0490265 0.0320617 0.0479464 0.0538634 0.0356113 0.0526974 0.0600808 0.0842541 0.0780396 0.0718601 0.0665368 0.0586101 0.0697935
99 1 Mg -0.126194 18.8651 52.2079 1.2 1 0.10778 0.0654631 0.0226655 0.0477957 0.0314162 0.0463305 0.0313567 0.0738138 0.0326182 0.0882386 0.0321041 0.0511311 0.0331452 0.0687895 0.0358669 0.103712 0.0447799 0.100925 0.0485494 0.0999137
100 1 Mg 1.92402 18.5815 49.4545 1.2 1 0.268894 0.1021 0.0409822 0.0388574 0.0339216 0.0335192 0.0669827 0.0462907 0.0696105 0.0747404 0.0831598 0.0565099 0.0687232 0.0665267 0.0861734 0.0905168 0.0762638 0.0983288 0.0864904 0.0838402
101 2 Si 1.38106 20.9117 51.2443 2.4 1 0.134876 0.0872645 0.0304309 0.0398708 0.033723 0.0482934 0.0577737 0.0478895 0.0527092 0.068972 0.0662076 0.0731679 0.0705356 0.0634401 0.0939719 0.089827 0.0827698 0.0884215 0.0675603 0.0641202
102 3 O 1.48527 22.4795 51.3054 -1.2 1 0.146673 0.0733697 0.0290374 0.0369371 0.03642 0.0379402 0.0393474 0.0626231 0.0599191 0.0694316 0.0439822 0.081068 0.0630007 0.0569774 0.0737981 0.0657273 0.0794438 0.0699977 0.0642512 0.0723693
103 3 O 1.34512 20.0931 57.7423 -1.2 1 0.0163161 0.0208026 0.0224834 0.0145024 0.0181648 0.0364923 0.0331429 0.0428323 0.0548738 0.0431981 0.0463374 0.0390229 0.0517232 0.0693082 0.0968043 0.0763407 0.0689532 0.0474857 0.0749579 0.0645125
104 3 O 0.0615419 20.2804 50.6669 -1.2 1 0.180633 0.0887141 0.0198028 0.0258583 0.0429288 0.0384521 0.0535923 0.0673361 0.0600671 0.0572721 0.0555047 0.0522946 0.0625439 0.0761821 0.0926953 0.0828925 0.0784756 0.0794584 0.0754393 0.0888652
105 1 Mg -3.09665 18.8643 52.3122 1.2 1 0.0729245 0.0578924 0.0336493 0.0340418 0.0191383 0.0520644 0.0363717 0.0644494 0.0338378 0.0786158 0.0369335 0.0448769 0.032151 0.0746287 0.0369957 0.107095 0.0491375 0.10474 0.046061 0.0894812
106 3 O 2.61548 20.2646 50.4626 -1.2 1 0.197109 0.0953362 0.0220049 0.017264 0.0391649 0.0504672 0.0589898 0.0512381 0.0527683 0.0634547 0.0633284 0.0704984 0.0524691 0.0586401 0.100252 0.074124 0.0750045 0.0711499 0.0647936 0.0887636
107 1 Mg -1.67715 18.9185 55.1765 1.2 1 0.0196044 0.0196914 0.0179473 0.0281688 0.0150276 0.0223557 0.0259372 0.0333813 0.0398235 0.0554105 0.0533926 0.0597298 0.0583234 0.0663586 0.0632367 0.0603565 0.0857516 0.100505 0.0607834 0.0794167
108 2 Si -1.6249 16.8082 53.1894 2.4 1 0.0577859 0.0369268 0.0165807 0.0282622 0.0318689 0.0306518 0.0477475 0.0560613 0.0525096 0.0727687 0.0617523 0.0699159 0.0716496 0.0507926 0.0736276 0.0586384 0.073797 0.0789875 0.0597344 0.074042
109 3 O -1.74744 15.216 53.2631 -1.2 1 0.0578909 0.0416924 0.0218094 0.0226297 0.0274464 0.027846 0.0329539 0.0773064 0.0430838 0.0664639 0.0380407 0.0592016 0.0649722 0.0714318 0.0766883 0.0624411 0.0581041 0.0652898 0.0755769 0.0768744
110 3 O -1.12868 18.1227 46.4249 -1.2 1 0.52193 0.0661645 0.0730849 0.051815 0.0570636 0.065512 0.0617658 0.0791047 0.0791432 0.062026 0.0454241 0.0679079 0.0672233 0.0877875 0.117069 0.115165 0.107039 0.100927 0.063612 0.0931732
111 3 O -2.96797 17.6138 54.0885 -1.2 1 0.0245584 0.0208837 0.0269304 0.0246731 0.0207811 0.0298443 0.0443322 0.0509556 0.049208 0.053451 0.0483089 0.0348742 0.0590827 0.0555409 0.0769668 0.0677949 0.0660736 0.0639107 0.0594987 0.0680083
112 3 O -0.308499 17.4091 53.7689 -1.2 1 0.0381291 0.0272063 0.0302379 0.0278024 0.0271699 0.0186485 0.0476715 0.0476485 0.0539668 0.05615 0.0507573 0.0408118 0.0586054 0.0771202 0.0747095 0.0724402 0.07996 0.0680149 0.0724101 0.0704285
113 1 Mg -2.87216 26.1927 57.5596 1.2 1 0.0180103 0.017334 0.0074886 0.0253205 0.0130976 0.0325263 0.018863 0.0518939 0.0274113 0.0729108 0.0406666 0.0455184 0.0300673 0.0692253 0.0380239 0.0927799 0.052662 0.0968955 0.0620459 0.0833677
114 1 Mg -1.48778 25.88 49.8402 1.2 1 0.239547 0.074086 0.021911 0.0340519 0.0338811 0.0441979 0.0520783 0.0558513 0.050751 0.0554008 0.063341 0.0669404 0.0685133 0.0679799 0.097947 0.0756791 0.0743233 0.0956103 0.0842113 0.0834709
115 2 Si -1.00491 23.3922 47.9274 2.4 1 0.375896 0.0621216 0.0655607 0.0723292 0.0313027 0.0723707 0.041169 0.0847893 0.0675636 0.0723696 0.0521577 0.0753215 0.0587684 0.0750161 0.0945402 0.0737863 0.101737 0.0951847 0.0877818 0.0928714
116 3 O -0.927602 24.9615 47.9909 -1.2 1 0.370221 0.0625449 0.0425323 0.0629493 0.044071 0.0905277 0.0613091 0.0800483 0.0550379 0.0873465 0.054784 0.075013 0.0624482 0.0796367 0.0808241 0.074769 0.0933037 0.076216 0.0763717 0.0728092
117 3 O -1.55795 22.2588 51.7696 -1.2 1 0.111101 0.0589607 0.0313591 0.0275131 0.0361847 0.0508099 0.0599641 0.0519019 0.0671012 0.0554886 0.0553651 0.0456644 0.0572196 0.0795365 0.0980329 0.0846149 0.0784616 0.0468816 0.071589 0.0693622
118 3 O -2.17411 22.8111 48.8277 -1.2 1 0.310912 0.0851686 0.0530101 0.0371524 0.0562665 0.0477631 0.0525095 0.0730597 0.0627793 0.0682595 0.0727992 0.0598658 0.0548532 0.056528 0.0781293 0.0841055 0.08554 0.079107 0.0837933 0.0911238
119 1 Mg 0.0423997 21.3296 46.8225 1.2 1 0.488294 0.0225747 0.0758662 0.0320807 0.0578696 0.0803903 0.0681184 0.0796864 0.0735919 0.0887873 0.0875585 0.0629849 0.0645093 0.080902 0.0762438 0.0903886 0.0954228 0.099013 0.100375 0.107879
120 3 O 0.458537 22.7495 48.3911 -1.2 1 0.344258 0.0799706 0.0580486 0.039787 0.04398 0.0595205 0.0432992 0.0671645 0.068118 0.0749776 0.0609389 0.0549473 0.0644182 0.0858995 0.0957997 0.0793992 0.0937476 0.101107 0.0765178 0.0860086
121 1 Mg 1.61631 21.5026 54.6037 1.2 1 0.00763721 0.0188897 0.0223652 0.0344364 0.0127234 0.0168667 0.020319 0.039762 0.0455264 0.0603676 0.0616323 0.048382 0.0616224 0.0590749 0.0613284 0.0867619 0.0703613 0.0922505 0.0745949 0.075288
122 2 Si 1.63521 24.2158 56.3118 2.4 1 0.0181279 0.0118796 0.0224996 0.0304932 0.0353526 0.0297852 0.0382332 0.0431839 0.0604883 0.0549418 0.0469972 0.0568722 0.0682352 0.0630221 0.0707581 0.0744902 0.0585256 0.0866056 0.0627438 0.0457532
123 3 O 1.74535 22.5476 56.291 -1.2 1 0.00875704 0.00926955 0.0258073 0.0213058 0.0273958 0.0199136 0.0236236 0.071059 0.0397249 0.0469344 0.0437144 0.0608412 0.064394 0.0684214 0.0776343 0.0605602 0.0549853 0.0621141 0.0752043 0.0584398
124 3 O 1.54441 24.9963 52.7297 -1.2 1 0.0776847 0.0468861 0.0195577 0.0179566 0.0233374 0.0420354 0.0474296 0.0547527 0.0496174 0.0486287 0.0403556 0.0525647 0.0575347 0.0612276 0.0976922 0.0682873 0.0702784 0.0656405 0.0687225 0.0617996
125 3 O 0.323622 24.7484 55.5928 -1.2 1 0.0109471 0.020358 0.0180205 0.0225707 0.025347 0.0212383 0.0435568 0.0379362 0.0343406 0.0481831 0.051656 0.0419698 0.0565693 0.0532494 0.0875909 0.0691241 0.0694564 0.0698556 0.0666912 0.0599011
126 3 O 2.73779 24.8477 55.5882 -1.2 1 0.00246626 0.0281611 0.0258506 0.0167398 0.0253413 0.0209107 0.0462292 0.0495966 0.0314163 0.048607 0.0506297 0.0385358 0.0563284 0.0576166 0.0903382 0.0696582 0.071334 0.0687629 0.0646785 0.0604065