ITEM: TIMESTEP
47500
ITEM: NUMBER OF ATOMS
10500
ITEM: BOX BOUNDS xy xz yz pp pp pp
0	8.9688	2.9896
0	118.725	0
0	252.977	0
ITEM: ATOMS id type element xu yu zu q Q_1 Q_2 Q_3 Q_4 Q_5 Q_6 Q_7 Q_8 Q_9 Q_10 Q_11 Q_12 Q_13 Q_14 Q_15 Q_16 Q_17 Q_18 Q_19 Q_20 Q_21
1 1 Mg -3.47519 7.09739 57.4243 1.2 1 0.0128448 0.0186726 0.0125971 0.0292864 0.0100654 0.0367048 0.01682 0.0543995 0.0235944 0.0755076 0.0176829 0.0448359 0.0214752 0.0655093 0.0257105 0.106848 0.0386553 0.104101 0.0383221 0.0872811
2 1 Mg -1.82655 6.90154 50.0912 1.2 1 0.215595 0.0925382 0.0315476 0.0336756 0.0318915 0.0548429 0.0473084 0.0466974 0.0563445 0.0701651 0.0536504 0.0732976 0.0746746 0.0660347 0.0948814 0.0606817 0.0873098 0.0996348 0.0726606 0.0745078
3 2 Si -0.257935 3.96038 48.0876 2.4 1 0.371416 0.073079 0.0751345 0.0341693 0.061473 0.0518297 0.0730989 0.0768875 0.0570144 0.0767213 0.0559836 0.0683034 0.0617693 0.0846645 0.0954929 0.0993469 0.110583 0.0910545 0.0681525 0.0704437
4 3 O -0.335812 5.46814 47.6264 -1.2 1 0.426687 0.041264 0.0660618 0.0290876 0.0414288 0.0486768 0.064837 0.0710777 0.0873775 0.0744252 0.0908036 0.0754463 0.0705372 0.06704 0.0918144 0.125777 0.0948746 0.0797008 0.0746344 0.0782415
5 3 O -2.03793 3.43377 51.8941 -1.2 1 0.113562 0.0635409 0.0221882 0.0224775 0.0215401 0.0526486 0.0593702 0.0516182 0.0468389 0.0560394 0.0675726 0.0508114 0.0506032 0.0760296 0.0861885 0.0809885 0.0722451 0.0557537 0.0692862 0.0674938
6 3 O -1.54015 3.53929 48.9521 -1.2 1 0.303439 0.0911246 0.0359451 0.0517276 0.0348872 0.0533303 0.0798112 0.0485218 0.0496248 0.0598152 0.0766271 0.0714863 0.0679933 0.0646441 0.0730922 0.110278 0.0850419 0.0798833 0.072802 0.0867828
7 1 Mg 1.82954 2.54582 47.1376 1.2 1 0.465914 0.0225533 0.080878 0.0495951 0.0348311 0.0827607 0.0601168 0.0594152 0.0759834 0.0877353 0.0678004 0.0768063 0.0823412 0.0852326 0.0704874 0.0970199 0.101414 0.103637 0.106209 0.0999307
8 3 O 1.22989 3.66364 48.7877 -1.2 1 0.322302 0.0716437 0.0262517 0.0438803 0.0309908 0.0654449 0.0804827 0.0297363 0.0839136 0.0786297 0.0527284 0.0791054 0.0839928 0.0704125 0.0663074 0.084885 0.0903627 0.0905896 0.0964503 0.0923275
9 1 Mg 0.970243 2.31663 54.5539 1.2 1 0.00594305 0.0260602 0.0217 0.0304029 0.0265992 0.0364485 0.0263086 0.0342346 0.0413479 0.0520693 0.057891 0.060331 0.0649774 0.0653192 0.0734401 0.0760775 0.0709129 0.0863175 0.0698702 0.0700446
10 2 Si 1.07388 4.86854 56.3999 2.4 1 0.00849582 0.0144919 0.0210346 0.0246537 0.0268202 0.0249191 0.0392159 0.0460062 0.0509306 0.0578023 0.0555709 0.063918 0.0650793 0.0560326 0.0828479 0.0621287 0.0590791 0.0898826 0.0631079 0.059493
11 3 O 1.04914 3.36948 56.6324 -1.2 1 0.0145782 0.0184953 0.0130731 0.0255456 0.0197291 0.0280266 0.0276814 0.0579078 0.0410288 0.0493388 0.0441967 0.0644314 0.0572896 0.0552708 0.0693368 0.0685998 0.0543004 0.0764927 0.0628132 0.0872691
12 3 O 1.10813 6.07342 52.8172 -1.2 1 0.0779866 0.0477046 0.0308658 0.0180842 0.0216925 0.0503286 0.0415757 0.0589691 0.0546818 0.0422265 0.0543766 0.0514973 0.068321 0.070819 0.0896657 0.0849615 0.0575494 0.0690614 0.0648368 0.0696433
13 3 O -0.132513 5.57205 55.7621 -1.2 1 0.00888393 0.0136951 0.0241354 0.0208763 0.0227344 0.0202183 0.0360676 0.0418636 0.0353416 0.0520583 0.0525899 0.0421433 0.0551683 0.0591842 0.0865937 0.0771711 0.077821 0.0613202 0.0673142 0.0614473
14 3 O 2.26312 5.61133 55.6816 -1.2 1 0.0152754 0.0156228 0.033447 0.0161508 0.020651 0.0227797 0.0459932 0.047155 0.0397124 0.0462418 0.0559936 0.0385611 0.0564745 0.0657 0.078687 0.083056 0.0725035 0.0722046 0.0559568 0.0604922
15 1 Mg -0.459401 4.67631 52.2426 1.2 1 0.0916877 0.0705785 0.031159 0.0371518 0.030076 0.0291221 0.0436978 0.0557492 0.0414985 0.0828741 0.0444083 0.0596515 0.0492205 0.0742734 0.0417736 0.0937561 0.0559765 0.0977321 0.0594198 0.0898627
16 1 Mg 2.79456 3.9971 49.9987 1.2 1 0.223938 0.0974363 0.032357 0.0380822 0.0429862 0.0599902 0.0570355 0.0549232 0.076928 0.0617221 0.0620881 0.0587546 0.0642096 0.0708912 0.0857942 0.0781589 0.0753345 0.0917528 0.0844688 0.070025
17 2 Si 1.16169 6.59457 51.2556 2.4 1 0.134657 0.088671 0.0397026 0.038492 0.0387691 0.055049 0.0450423 0.0421603 0.0631477 0.0648095 0.0649581 0.0766271 0.0711428 0.0658339 0.08711 0.0871053 0.0780803 0.0882728 0.077451 0.064272
18 3 O 1.28989 8.18905 51.2909 -1.2 1 0.139904 0.0904084 0.0221652 0.0363971 0.0399998 0.0461538 0.0422396 0.0740454 0.0535051 0.0662896 0.0461126 0.0879364 0.070068 0.0613347 0.0755181 0.0703911 0.0732413 0.0732283 0.0666964 0.0719757
19 3 O 1.08804 5.47488 57.8507 -1.2 1 0.0148568 0.00916759 0.0228444 0.0203554 0.016143 0.0338744 0.0326845 0.0388469 0.0620274 0.0381213 0.0486581 0.0396379 0.0576838 0.0712812 0.101174 0.0784649 0.0631871 0.0504391 0.0683065 0.0614417
20 3 O -0.184847 6.06029 50.6845 -1.2 1 0.175328 0.0925919 0.0228732 0.0262448 0.0390607 0.0339666 0.0487511 0.0587372 0.0585378 0.0603071 0.066567 0.0744302 0.0711389 0.0672343 0.0897864 0.0714197 0.0799353 0.0806245 0.0616189 0.0786452
21 1 Mg -3.49704 4.67769 52.6661 1.2 1 0.0551994 0.0605923 0.0291151 0.0292337 0.0147544 0.0433757 0.0347506 0.0560095 0.0536964 0.0702429 0.0509729 0.0502349 0.0519635 0.0489085 0.059109 0.0886296 0.0857941 0.0744445 0.0717379 0.0740048
22 3 O 2.48581 5.93312 50.6539 -1.2 1 0.194769 0.0874963 0.0359956 0.0247977 0.0348652 0.0448677 0.0593022 0.058197 0.0452679 0.0670125 0.0457652 0.0657184 0.0575481 0.0631353 0.100764 0.0680765 0.0775219 0.0674168 0.0775384 0.0756573
23 1 Mg -1.92376 4.58483 55.1075 1.2 1 0.0186533 0.0202163 0.0300098 0.0305564 0.0207099 0.0267754 0.0278413 0.0361058 0.0418218 0.0538868 0.0552567 0.0499137 0.0574331 0.0609023 0.0624814 0.0820213 0.07217 0.0895317 0.0634183 0.0875073
24 2 Si -1.96643 2.4949 53.1991 2.4 1 0.0503488 0.0396158 0.0246093 0.0236057 0.0262528 0.0198102 0.0478702 0.0439395 0.0583902 0.0782135 0.0577536 0.0596302 0.0724558 0.0479079 0.0792341 0.0561491 0.082661 0.0778544 0.0751911 0.067315
25 3 O -2.05735 0.994386 53.1088 -1.2 1 0.0335959 0.0515393 0.0294532 0.0195144 0.0212486 0.040096 0.0312674 0.0654607 0.0607051 0.057822 0.0470641 0.0697052 0.0575537 0.0781513 0.0806416 0.0705434 0.0475859 0.0729819 0.0568905 0.0725847
26 3 O -0.0467762 2.97103 46.8385 -1.2 1 0.497586 0.0374914 0.0887799 0.0289309 0.0789539 0.0673142 0.0812647 0.0724428 0.0726719 0.0780518 0.0801687 0.0750415 0.0970962 0.0889641 0.0890987 0.0886966 0.0988034 0.096378 0.104135 0.110541
27 3 O -3.21941 3.17346 54.0263 -1.2 1 0.0255981 0.0264625 0.027254 0.0218851 0.0270512 0.0288454 0.0375388 0.0412486 0.0526764 0.0545416 0.0604701 0.0456672 0.0569079 0.0679415 0.0701956 0.0657052 0.0671618 0.0683752 0.0633674 0.0564796
28 3 O -0.746116 3.20706 53.9009 -1.2 1 0.0201994 0.0432716 0.0344762 0.0216544 0.0267693 0.0282608 0.0452884 0.0526448 0.0430606 0.0575994 0.0579931 0.0489957 0.0521307 0.0808206 0.0812961 0.0668402 0.0892566 0.0611936 0.0695208 0.0592091
29 1 Mg -3.27582 11.6515 57.4917 1.2 1 0.00861192 0.0195108 0.00850562 0.0364576 0.00691099 0.0353178 0.0109604 0.0589333 0.0151918 0.0757368 0.014953 0.0492139 0.0158031 0.0725578 0.0213841 0.108691 0.0294961 0.108635 0.0275382 0.0956453
30 1 Mg -1.75014 11.5838 49.8362 1.2 1 0.233849 0.0765988 0.0281232 0.0403556 0.0314981 0.053388 0.0486933 0.0566834 0.0451148 0.0583072 0.0669326 0.0592299 0.0698526 0.0683847 0.106364 0.0874362 0.0685844 0.0948314 0.0856499 0.078223
31 2 Si -1.18003 9.02138 47.9309 2.4 1 0.367078 0.0717222 0.0707397 0.0537312 0.0424237 0.0620626 0.0734651 0.0776419 0.0696523 0.0666355 0.0586817 0.0661343 0.0688325 0.0807847 0.101446 0.0648084 0.099773 0.0923574 0.103872 0.0875315
32 3 O -1.23224 10.5991 47.9811 -1.2 1 0.379432 0.0589458 0.0548637 0.056959 0.0510642 0.0698586 0.0685106 0.0778357 0.0583676 0.0874777 0.0700639 0.0635577 0.0716808 0.0777537 0.080791 0.0683249 0.0886065 0.0798266 0.0663682 0.073251
33 3 O -1.79016 8.01447 51.8693 -1.2 1 0.112464 0.0633893 0.0317888 0.0288987 0.0340223 0.0447188 0.0608103 0.0552173 0.0587447 0.0526681 0.0504495 0.0533804 0.0644802 0.0893589 0.0942429 0.0763608 0.0720723 0.0480686 0.0732179 0.0671278
34 3 O -2.30986 8.37215 48.8528 -1.2 1 0.309737 0.0907456 0.0681678 0.0241111 0.0553572 0.0631504 0.0656977 0.0634709 0.0538027 0.0645541 0.0786126 0.0687257 0.0594489 0.0636349 0.0805816 0.0914927 0.0975559 0.0789001 0.0786707 0.0980567
35 1 Mg 0.154883 7.08234 46.8007 1.2 1 0.49723 0.0360864 0.0756174 0.0377048 0.0644759 0.0757967 0.0603791 0.0691365 0.0710057 0.0819461 0.0881127 0.0753609 0.0788601 0.0800378 0.0699232 0.0918699 0.0932896 0.109226 0.11428 0.100084
36 3 O 0.325447 8.50934 48.3809 -1.2 1 0.347326 0.0801969 0.0603504 0.0433246 0.0351134 0.0536347 0.0369643 0.0585654 0.062537 0.0643935 0.0732372 0.0632178 0.0797445 0.0916918 0.0879054 0.0666654 0.0913489 0.101829 0.0852882 0.0872839
37 1 Mg 1.11642 6.95676 54.573 1.2 1 0.0115644 0.0293674 0.0132796 0.0322734 0.0177805 0.025997 0.0295234 0.034495 0.0455033 0.0561702 0.0601764 0.0547579 0.0529163 0.0735069 0.0721164 0.0795309 0.0694722 0.0867869 0.0741806 0.0857466
38 2 Si 1.14255 9.59244 56.4475 2.4 1 0.0241662 0.0128753 0.0213486 0.0183084 0.0261446 0.0258409 0.0428381 0.0373466 0.0428435 0.0590387 0.0530289 0.058937 0.0635058 0.0536621 0.0778724 0.0730515 0.0641372 0.0915092 0.0580407 0.068333
39 3 O 1.11169 8.1104 56.4387 -1.2 1 0.0226025 0.0094981 0.0152583 0.0181458 0.0266027 0.0314102 0.0246476 0.0686004 0.0344299 0.0527921 0.0396342 0.0640613 0.0593872 0.0748158 0.0677277 0.0692312 0.0604246 0.0610032 0.0629511 0.0675803
40 3 O 1.28624 10.7248 52.7351 -1.2 1 0.0792714 0.0394015 0.0305973 0.0231626 0.0302302 0.0466624 0.0502687 0.0486271 0.0466915 0.0467504 0.0508013 0.041415 0.0579908 0.0690572 0.0989321 0.0770969 0.0721796 0.0575225 0.0763479 0.0562863
41 3 O -0.295034 10.419 55.9202 -1.2 1 0.0110937 0.0186763 0.0286119 0.0173815 0.0198628 0.023722 0.0406471 0.0432779 0.0467678 0.0345695 0.0554743 0.0444752 0.051978 0.0571781 0.0856349 0.067743 0.0710917 0.0687764 0.0670387 0.0726212
42 3 O 2.48179 10.3268 55.6511 -1.2 1 0.013672 0.0122497 0.0256336 0.0218313 0.0234536 0.0225126 0.0519912 0.037592 0.0448204 0.0480303 0.0504449 0.0352007 0.0549479 0.0684849 0.0769085 0.0771869 0.0643796 0.0693048 0.0628966 0.0610818
43 1 Mg -0.262694 9.34741 52.2523 1.2 1 0.114459 0.0625989 0.0225686 0.0404177 0.0360696 0.0415489 0.0386831 0.0743336 0.0288253 0.088426 0.0291496 0.0538917 0.0404875 0.0759516 0.0437845 0.103419 0.0556783 0.0957146 0.0500728 0.102728
44 1 Mg 1.87648 9.01537 49.4629 1.2 1 0.270259 0.0977279 0.0425304 0.0368505 0.0331053 0.0494617 0.0708564 0.0472545 0.0805328 0.0638503 0.0808042 0.0558223 0.0834749 0.0682104 0.0877392 0.0945098 0.0877641 0.0970336 0.0864558 0.0943112
45 2 Si 1.21415 11.3799 51.2378 2.4 1 0.130759 0.0849712 0.0420195 0.0373435 0.0401163 0.0524488 0.0541331 0.0379034 0.0582066 0.066814 0.0755664 0.0727483 0.0786585 0.0677328 0.0944111 0.088343 0.0794629 0.0837405 0.0809361 0.058689
46 3 O 1.31634 12.9512 51.3023 -1.2 1 0.127285 0.0840996 0.0272839 0.0338392 0.0371714 0.0450035 0.0418034 0.0725169 0.0580907 0.0647029 0.0481236 0.083337 0.0717146 0.0686516 0.0738091 0.0696564 0.0731002 0.0767759 0.0720471 0.0686749
47 3 O 1.24075 10.1851 57.9561 -1.2 1 0.015752 0.0170632 0.0174645 0.0190817 0.0165482 0.0369156 0.0316818 0.0406635 0.0541587 0.0491418 0.0443032 0.0375729 0.0569635 0.0680147 0.092346 0.0741199 0.0653757 0.0484792 0.0688446 0.0632078
48 3 O -0.115718 10.7564 50.681 -1.2 1 0.180867 0.0908646 0.0226768 0.0267491 0.0399828 0.034837 0.0495995 0.070071 0.0547462 0.0574124 0.0611186 0.0550618 0.0699717 0.0711082 0.0917201 0.0793594 0.0734712 0.0754152 0.0825914 0.0814693
49 1 Mg -3.26386 9.35564 52.3622 1.2 1 0.0837158 0.055201 0.0263832 0.0319657 0.0142193 0.0542337 0.0395339 0.0569649 0.0353855 0.0842303 0.0328427 0.0469361 0.0386599 0.0628688 0.0380255 0.114017 0.0505821 0.103451 0.0523683 0.0892372
50 3 O 2.45216 10.7265 50.4558 -1.2 1 0.202897 0.0873879 0.0198568 0.0157599 0.0381847 0.0508668 0.0591317 0.0478999 0.0568353 0.0674405 0.0614441 0.072263 0.0526969 0.0688546 0.0956955 0.0826045 0.0800826 0.07156 0.058699 0.0902283
51 1 Mg -1.8145 9.31046 55.2286 1.2 1 0.0136587 0.0168986 0.0180278 0.024161 0.0123681 0.0290851 0.0275637 0.0323945 0.0426289 0.0552306 0.0566919 0.0554783 0.0620418 0.065138 0.0670271 0.0724231 0.0755644 0.100815 0.0586754 0.0737666
52 2 Si -1.77118 7.28754 53.3828 2.4 1 0.0494192 0.0397651 0.030476 0.0256053 0.0334611 0.029522 0.0411232 0.0524402 0.052843 0.0583327 0.062318 0.0605684 0.0765432 0.0492536 0.0670424 0.0732568 0.0658235 0.0847766 0.063935 0.0550854
53 3 O -1.863 5.81759 53.3115 -1.2 1 0.059704 0.0349267 0.0266126 0.0159464 0.0211042 0.036879 0.0332474 0.0641704 0.0466144 0.065069 0.0329167 0.0767761 0.0526148 0.0757099 0.0631348 0.0699468 0.0612926 0.06303 0.0662209 0.0618811
54 3 O -1.19417 8.46968 46.4488 -1.2 1 0.524951 0.0664115 0.0671396 0.0511656 0.0664482 0.0568332 0.0790422 0.0547835 0.0754401 0.07056 0.0564052 0.0508714 0.0698302 0.0980195 0.130013 0.113698 0.0980578 0.0954019 0.0823972 0.0820608
55 3 O -3.12329 7.99065 53.8421 -1.2 1 0.0241497 0.0322517 0.0253973 0.0325795 0.032919 0.0321861 0.05724 0.0436171 0.047931 0.0520948 0.0488425 0.0515297 0.0587925 0.0636936 0.0825616 0.060319 0.0776616 0.0575877 0.0795218 0.0625083
56 3 O -0.592116 8.12456 54.0272 -1.2 1 0.0516214 0.0224581 0.0299855 0.0212168 0.0322256 0.0231401 0.0354188 0.0462364 0.0414378 0.0512327 0.0568528 0.0457032 0.0597162 0.0583853 0.0873394 0.0604828 0.0773292 0.0769627 0.0648766 0.0703204
57 1 Mg -3.28408 16.5345 57.5128 1.2 1 0.00576443 0.0168877 0.0106442 0.0314785 0.0102482 0.0343494 0.0067898 0.0576496 0.0160596 0.0786114 0.0197019 0.0534607 0.0189144 0.0705868 0.0231368 0.0994058 0.0255542 0.118577 0.0330802 0.0958878
58 1 Mg -1.6714 16.3544 49.8412 1.2 1 0.229713 0.0815894 0.0252356 0.0438709 0.02699 0.0538748 0.0525167 0.0557674 0.0488364 0.0611312 0.0629805 0.0646494 0.0732562 0.0763201 0.105217 0.0834846 0.0751145 0.0967075 0.0812358 0.0829104
59 2 Si -1.18567 13.8526 47.9314 2.4 1 0.371955 0.0691795 0.0727654 0.0633951 0.030481 0.0685796 0.048131 0.0780863 0.0656237 0.0683252 0.0519858 0.0724916 0.0594302 0.0772365 0.0990613 0.0744313 0.102397 0.0971186 0.0897579 0.0904092
60 3 O -1.09664 15.4205 47.9915 -1.2 1 0.36637 0.0694898 0.0482269 0.0628797 0.0447396 0.0926093 0.0631406 0.082124 0.0581981 0.0899105 0.0537803 0.0725038 0.0609953 0.0813054 0.0811662 0.0752863 0.0943167 0.076033 0.0755711 0.0709713
61 3 O -1.73493 12.7491 51.7772 -1.2 1 0.114645 0.0564394 0.032973 0.0343088 0.0303483 0.0518621 0.0651434 0.0499895 0.0668736 0.0525259 0.0601529 0.0461896 0.0506116 0.0880892 0.107453 0.0748798 0.0796436 0.0472447 0.0714845 0.0699325
62 3 O -2.36115 13.2717 48.8238 -1.2 1 0.302303 0.0966568 0.0604625 0.0281338 0.0579849 0.0518894 0.0602066 0.0705075 0.0594879 0.0661919 0.072578 0.0639166 0.0634642 0.0604882 0.0826787 0.0855532 0.0867278 0.0792065 0.0824524 0.0886544
63 1 Mg -0.159928 11.7639 46.8533 1.2 1 0.482385 0.0253965 0.0772856 0.033537 0.0531628 0.0969492 0.0705639 0.0881605 0.0826663 0.0841546 0.084471 0.0692388 0.0719914 0.0916254 0.0770067 0.0858673 0.0971251 0.0976153 0.0992571 0.105785
64 3 O 0.2623 13.1866 48.413 -1.2 1 0.333354 0.0946358 0.065783 0.0362861 0.0453764 0.0589101 0.0485829 0.0690384 0.0660488 0.0753875 0.0699276 0.0635625 0.0662449 0.0885008 0.100629 0.0856486 0.094581 0.0960549 0.0802511 0.0892889
65 1 Mg 1.28336 11.9672 54.6606 1.2 1 0.0142217 0.0240707 0.0203756 0.0287841 0.0167765 0.0237701 0.0289835 0.0363633 0.0490994 0.0533763 0.0710843 0.056657 0.0559461 0.0652175 0.0717529 0.0884302 0.0708943 0.0841653 0.083744 0.0748379
66 2 Si 1.23613 14.3573 56.5286 2.4 1 0.0298379 0.00885989 0.0137283 0.018131 0.029379 0.0243186 0.0379932 0.0356938 0.0435367 0.0606837 0.0587825 0.0584531 0.0705727 0.0520251 0.0876051 0.066453 0.0701347 0.0834262 0.0564783 0.0602406
67 3 O 1.13786 12.8455 56.518 -1.2 1 0.0319777 0.0208662 0.0124818 0.0182844 0.0215585 0.0266932 0.0251165 0.0641492 0.0351806 0.0607803 0.0386437 0.0681211 0.0579209 0.0699682 0.0779794 0.0630147 0.0628299 0.070031 0.0622389 0.0716179
68 3 O 1.36565 15.4813 52.729 -1.2 1 0.0629963 0.036988 0.036322 0.0231174 0.0252787 0.0414689 0.0529465 0.0577462 0.0534259 0.0491959 0.0488076 0.0498979 0.0583953 0.0656388 0.104489 0.0747328 0.0721846 0.0606732 0.0775949 0.0616352
69 3 O -0.0331592 15.1405 55.831 -1.2 1 0.00716481 0.0137678 0.0268382 0.023907 0.0233609 0.020965 0.0429247 0.0482748 0.0383494 0.0443926 0.0533268 0.0422918 0.0539858 0.0561101 0.0923309 0.0705749 0.0790296 0.0581425 0.0643998 0.0722184
70 3 O 2.55406 15.0961 55.8826 -1.2 1 0.0298327 0.0128828 0.0343217 0.0178926 0.0258766 0.0190447 0.0463332 0.0446077 0.0407145 0.0419726 0.050406 0.042573 0.0455123 0.0649478 0.0848943 0.0826402 0.0720926 0.0588708 0.0722205 0.0679617
71 1 Mg -0.206989 14.1049 52.2121 1.2 1 0.105601 0.0608166 0.0267924 0.0422652 0.0288087 0.0440795 0.0390379 0.0676201 0.0277567 0.0821913 0.0299888 0.0524173 0.0274288 0.0739898 0.0355121 0.104168 0.0415799 0.108952 0.0427085 0.0973152
72 1 Mg 1.82591 13.8102 49.4556 1.2 1 0.260715 0.107073 0.0342337 0.0427435 0.038593 0.0402174 0.068852 0.0458736 0.0710263 0.0735804 0.0739224 0.0550943 0.0716624 0.0709034 0.0847482 0.0929002 0.0769653 0.0977434 0.0900115 0.0851558
73 2 Si 1.29285 16.1518 51.2434 2.4 1 0.130983 0.0861766 0.0406186 0.0349003 0.0375439 0.0496684 0.0570931 0.0441486 0.0575946 0.0675588 0.066119 0.0744429 0.0673391 0.0706781 0.0933523 0.0859949 0.0765844 0.0841017 0.0722095 0.067944
74 3 O 1.39496 17.7199 51.3047 -1.2 1 0.117861 0.0965158 0.0211709 0.0348644 0.0318461 0.0419925 0.0509727 0.079454 0.0560053 0.0648543 0.047268 0.0792562 0.0699524 0.0653788 0.0809038 0.070689 0.0757034 0.0761255 0.0658394 0.0717608
75 3 O 1.26577 15.0509 58.0613 -1.2 1 0.0187991 0.0151242 0.023203 0.0180492 0.0233064 0.0359234 0.0337933 0.0472432 0.0443208 0.0486559 0.0391545 0.0535008 0.0472391 0.0644374 0.104217 0.0638743 0.0700249 0.0600613 0.0648836 0.0708767
76 3 O -0.0269106 15.5178 50.6688 -1.2 1 0.181284 0.0841467 0.0242689 0.0230802 0.0462801 0.0407043 0.0571354 0.0648163 0.0551587 0.0565937 0.062262 0.0483206 0.0614946 0.0785404 0.0981004 0.081778 0.0741495 0.0849944 0.0708846 0.0870209
77 1 Mg -3.18391 14.1057 52.3125 1.2 1 0.0735387 0.0558441 0.0340641 0.0308964 0.0202923 0.0526095 0.0333268 0.0610361 0.0335832 0.0790775 0.0333297 0.0429827 0.0289931 0.0766062 0.0317838 0.10673 0.0467518 0.108086 0.0413023 0.0865116
78 3 O 2.52432 15.503 50.4579 -1.2 1 0.184845 0.100734 0.0205822 0.0135781 0.0427335 0.0591218 0.0579079 0.0438107 0.061064 0.0674145 0.0691283 0.0672545 0.0604017 0.0707034 0.10238 0.0758842 0.073 0.0713228 0.0603536 0.0853933
79 1 Mg -1.68239 13.908 55.0726 1.2 1 0.0265288 0.0104043 0.0200886 0.0226852 0.0123226 0.0288175 0.0283022 0.0332663 0.0490717 0.0620498 0.0496985 0.0543491 0.0574428 0.0670462 0.0630647 0.0778265 0.0672439 0.104194 0.0641722 0.085974
80 2 Si -1.75791 12.0466 53.2311 2.4 1 0.0569247 0.0397993 0.0199671 0.0254267 0.0339324 0.0333977 0.0501137 0.0531735 0.061893 0.0631546 0.0625505 0.0712131 0.0759109 0.0564747 0.0755383 0.0618894 0.0645118 0.0870176 0.0599118 0.0650513
81 3 O -1.70508 10.5438 53.2003 -1.2 1 0.0497594 0.0496056 0.0279845 0.0197684 0.0325697 0.0327173 0.0331197 0.069903 0.0444525 0.0597983 0.0506995 0.0696533 0.0644734 0.0776956 0.0725162 0.0668453 0.0556105 0.0693863 0.0594387 0.0759943
82 3 O -1.21337 13.3381 46.4311 -1.2 1 0.520118 0.0678508 0.0701202 0.0407694 0.0558434 0.0583125 0.0585875 0.0702865 0.0792933 0.0655293 0.0457919 0.0711681 0.0683972 0.088138 0.120379 0.11405 0.106698 0.10036 0.0595695 0.0910384
83 3 O -3.00196 12.8259 53.9321 -1.2 1 0.0269685 0.0239555 0.0358893 0.0258949 0.0286628 0.0226111 0.0542991 0.0518148 0.0452979 0.0453022 0.0565068 0.0455928 0.0547436 0.0617346 0.0855106 0.0622906 0.0758162 0.0568133 0.0623067 0.0743898
84 3 O -0.447903 12.7106 54.0007 -1.2 1 0.0511566 0.0219775 0.0245585 0.0209329 0.0230934 0.0257535 0.035567 0.0476281 0.0419869 0.0570357 0.0558571 0.047515 0.0539439 0.0579176 0.0865484 0.0653075 0.0797381 0.0595269 0.0654644 0.0704419
85 1 Mg -3.15677 21.3416 57.4452 1.2 1 0.00645527 0.0181054 0.0104289 0.0314441 0.0107315 0.0330711 0.0129212 0.0578529 0.0140728 0.0840356 0.0157918 0.0500833 0.0228144 0.0711548 0.0192077 0.10374 0.0226782 0.110464 0.0313805 0.0936477
86 1 Mg -1.5831 21.1217 49.8405 1.2 1 0.226437 0.0847719 0.0233889 0.0447926 0.0295186 0.0523783 0.0556089 0.0546209 0.0505115 0.0624078 0.0648128 0.0640598 0.0736545 0.0753231 0.102191 0.0805287 0.0727056 0.0947354 0.0838507 0.0832671
87 2 Si -1.09384 18.6291 47.9287 2.4 1 0.366968 0.0768659 0.0775431 0.0661925 0.0297663 0.0687854 0.0507717 0.0840106 0.0667844 0.0679829 0.0529667 0.0749875 0.0641454 0.0760753 0.0997996 0.0748699 0.10618 0.0936285 0.0872676 0.0905525
88 3 O -1.02071 20.1985 47.9911 -1.2 1 0.360266 0.0795865 0.0557254 0.0625165 0.0417203 0.0920684 0.0627918 0.0811194 0.0538706 0.0903991 0.0517786 0.0696056 0.0588682 0.0833872 0.0838214 0.076659 0.0951378 0.0794251 0.0756898 0.0740113
89 3 O -1.65002 17.5002 51.771 -1.2 1 0.112345 0.0562068 0.0345035 0.0295693 0.0328848 0.0522056 0.0599988 0.048068 0.0673681 0.0531191 0.0580114 0.0478228 0.0545767 0.085957 0.101362 0.072176 0.0822328 0.0444294 0.0795547 0.0770612
90 3 O -2.26174 18.0434 48.8281 -1.2 1 0.302759 0.0968619 0.0610557 0.0285364 0.0607649 0.0446999 0.0568572 0.0736486 0.0605337 0.066811 0.0744375 0.0596839 0.0507496 0.057718 0.0773472 0.0849889 0.0845852 0.080625 0.0854164 0.0888363
91 1 Mg -0.0440435 16.5651 46.8269 1.2 1 0.481139 0.0217362 0.0814302 0.0320379 0.066522 0.0882701 0.079587 0.0848294 0.0691447 0.0852412 0.085684 0.0617102 0.0636929 0.0788678 0.0773275 0.0940146 0.0944887 0.0979433 0.100983 0.106143
92 3 O 0.37001 17.9877 48.3925 -1.2 1 0.332587 0.0932778 0.0645038 0.0369487 0.0463997 0.061258 0.0481323 0.0716132 0.0660847 0.0759612 0.0639685 0.0574831 0.0671855 0.0908812 0.0986335 0.0778727 0.0919483 0.101566 0.0797645 0.0869143
93 1 Mg 1.57229 16.2991 54.6392 1.2 1 0.0128571 0.0219338 0.0117145 0.0365985 0.0195089 0.0282977 0.0271326 0.0392725 0.0528605 0.0564229 0.0561635 0.0535911 0.0563851 0.0740298 0.0681925 0.0708932 0.0720205 0.0937229 0.0702271 0.0797524
94 2 Si 1.45859 19.2402 56.4544 2.4 1 0.0233216 0.0113923 0.0170549 0.0285389 0.0289809 0.0294417 0.0451372 0.0433744 0.055782 0.0509543 0.0466887 0.0643743 0.070583 0.0517033 0.076746 0.0707367 0.068663 0.093133 0.0644321 0.0547874
95 3 O 1.35948 17.6887 56.5757 -1.2 1 0.025849 0.0045182 0.023236 0.0205093 0.0225264 0.0256275 0.0217832 0.0667626 0.0379774 0.048268 0.0395887 0.0633877 0.0573396 0.0580553 0.0745087 0.0676044 0.0635785 0.0781822 0.0523327 0.0768669
96 3 O 1.45147 20.239 52.7294 -1.2 1 0.0598599 0.0464043 0.0251577 0.0213892 0.0252367 0.0432222 0.0562168 0.0584483 0.0586045 0.0478176 0.0485313 0.0543582 0.0591343 0.0646451 0.10239 0.0697747 0.0708989 0.0576762 0.0715587 0.0588215
97 3 O 0.184108 19.8998 55.7576 -1.2 1 0.0169293 0.0116572 0.0252627 0.0196891 0.0261403 0.0214734 0.0436135 0.0457549 0.0366706 0.0508618 0.0478523 0.0421865 0.0499212 0.0595494 0.0889862 0.0715237 0.0724383 0.0582797 0.0668706 0.0710503
98 3 O 2.73982 19.9887 55.8121 -1.2 1 0.0187528 0.021057 0.0269125 0.0203466 0.0305174 0.01866 0.047716 0.0412697 0.0439886 0.0411947 0.0541561 0.0376857 0.0556338 0.0551817 0.0930579 0.0716324 0.0683837 0.0729279 0.0647024 0.0678487
99 1 Mg -0.126194 18.8651 52.2079 1.2 1 0.109007 0.0616408 0.0266403 0.0389796 0.0312398 0.0391127 0.0353724 0.0709628 0.0287316 0.0858011 0.0305308 0.0525652 0.033298 0.0707549 0.0324142 0.104293 0.0414709 0.105439 0.0418861 0.0967613
100 1 Mg 1.92402 18.5815 49.4545 1.2 1 0.258792 0.111219 0.0383462 0.0440242 0.0359842 0.0365723 0.0699475 0.0479462 0.0705657 0.0741914 0.0792025 0.0537355 0.0690659 0.0660677 0.083833 0.096125 0.0792864 0.0952164 0.0837678 0.0888822
101 2 Si 1.38106 20.9117 51.2443 2.4 1 0.126645 0.0883622 0.039312 0.039563 0.0397209 0.0508815 0.0550841 0.0412676 0.0554695 0.0673128 0.0675122 0.0760415 0.0726158 0.0708242 0.0924273 0.0873028 0.0754623 0.085696 0.0713761 0.0602506
102 3 O 1.48527 22.4795 51.3054 -1.2 1 0.131763 0.0824118 0.0290289 0.0364626 0.0319075 0.0447425 0.041892 0.0702401 0.055879 0.0632424 0.0441277 0.0805675 0.0712058 0.0625767 0.0761174 0.0715319 0.0779187 0.0753862 0.0694623 0.0734693
103 3 O 1.3343 19.7911 57.9304 -1.2 1 0.0176216 0.0209124 0.0254352 0.0191151 0.0185784 0.0360737 0.0352223 0.0501834 0.058723 0.0463868 0.0398931 0.0433973 0.0550727 0.070944 0.104641 0.0717866 0.0584006 0.0539144 0.0713795 0.0633725
104 3 O 0.0615419 20.2804 50.6669 -1.2 1 0.180948 0.0841991 0.023989 0.0219567 0.0464774 0.0410038 0.0525768 0.0666091 0.0555761 0.0575491 0.0591166 0.0508405 0.0646391 0.078706 0.0970552 0.0834233 0.0776226 0.0775279 0.0708946 0.0909764
105 1 Mg -3.09665 18.8643 52.3122 1.2 1 0.0711495 0.056046 0.0362005 0.0340293 0.0148652 0.0572867 0.0373337 0.0634145 0.0366683 0.0829077 0.033066 0.0470964 0.0240799 0.0753744 0.0339877 0.109879 0.0451388 0.105855 0.0466056 0.0888193
106 3 O 2.61548 20.2646 50.4626 -1.2 1 0.194963 0.0976538 0.0214089 0.0177942 0.0417393 0.0561701 0.0568867 0.0505187 0.0552411 0.0673023 0.066347 0.0709145 0.0546725 0.0610398 0.0973392 0.0751395 0.0786656 0.0739644 0.0650843 0.0860867
107 1 Mg -1.48138 18.8704 55.1896 1.2 1 0.0190742 0.0200452 0.0207864 0.025685 0.0202247 0.0308542 0.0245466 0.0338948 0.0398603 0.0637484 0.0507268 0.0567562 0.0596845 0.0695059 0.0620159 0.0710934 0.0789584 0.0970012 0.0660682 0.0757326
108 2 Si -1.69252 16.863 53.2668 2.4 1 0.0373734 0.0389342 0.0265275 0.028609 0.0391079 0.0363631 0.0518746 0.0537506 0.0626519 0.0599897 0.0559701 0.0689707 0.086074 0.0530537 0.0673104 0.0650238 0.0637858 0.0911051 0.0664401 0.0545105
109 3 O -1.69254 15.2932 53.1674 -1.2 1 0.0570551 0.0433241 0.0225003 0.0141611 0.0343801 0.0330898 0.0343046 0.0738167 0.049131 0.0547953 0.0471798 0.0705936 0.0608751 0.0735588 0.0730552 0.0717157 0.0581886 0.0746821 0.0616559 0.0784474
110 3 O -1.12868 18.1227 46.4249 -1.2 1 0.521987 0.0664325 0.0730242 0.0521007 0.0574726 0.0653668 0.0613084 0.0789332 0.0790604 0.0618019 0.0454865 0.0685752 0.0679205 0.0875059 0.116381 0.114897 0.107559 0.101333 0.062525 0.0921399
111 3 O -2.93107 17.53 53.9862 -1.2 1 0.0300942 0.0131574 0.0310597 0.0257278 0.0216476 0.0299987 0.0517426 0.0492987 0.0434865 0.0570064 0.0501742 0.0394471 0.0583328 0.0677235 0.0842436 0.0700545 0.0672599 0.0623902 0.0630473 0.0715219
112 3 O -0.33342 17.5175 53.931 -1.2 1 0.0412187 0.0295894 0.0337583 0.0271596 0.0258567 0.0289709 0.0371476 0.0463343 0.0434786 0.0549598 0.0568718 0.0433344 0.0597813 0.0625906 0.0900845 0.0703302 0.0780346 0.0652621 0.0689886 0.0760945
113 1 Mg -3.03715 25.8907 57.3486 1.2 1 0.0198708 0.01321 0.00524471 0.0306895 0.011899 0.0360901 0.0157061 0.0605493 0.0217895 0.0842224 0.0247377 0.0479212 0.022953 0.0667594 0.0328581 0.0952983 0.0407014 0.108104 0.0460524 0.0855995
114 1 Mg -1.48778 25.88 49.8402 1.2 1 0.234861 0.0770417 0.025845 0.0434754 0.0338108 0.0513355 0.0495564 0.0541757 0.0518622 0.0572167 0.0648162 0.0639017 0.0690208 0.0708146 0.102035 0.083211 0.0718508 0.0918893 0.0852833 0.084394
115 2 Si -1.00491 23.3922 47.9274 2.4 1 0.373207 0.0644556 0.0625562 0.0745701 0.0292066 0.07344 0.0434743 0.0853823 0.0694196 0.0732566 0.0523922 0.0767226 0.0588335 0.07524 0.0943654 0.0737856 0.102527 0.0953603 0.0888494 0.0922739
116 3 O -0.927602 24.9615 47.9909 -1.2 1 0.365815 0.0691877 0.0479319 0.0636538 0.0454915 0.0909705 0.0629836 0.0827758 0.0576017 0.0887967 0.0545889 0.0730069 0.0610878 0.0805441 0.0811787 0.0744878 0.0941148 0.0758049 0.073707 0.0694057
117 3 O -1.55795 22.2588 51.7696 -1.2 1 0.110118 0.0554709 0.0373462 0.0309179 0.0372474 0.050593 0.062289 0.0513647 0.0666538 0.0521436 0.0578183 0.0480579 0.0549329 0.0834518 0.104371 0.0766512 0.0799454 0.0421122 0.0747823 0.0728626
118 3 O -2.17411 22.8111 48.8277 -1.2 1 0.298996 0.0999563 0.0617701 0.0273648 0.0619107 0.0480445 0.059692 0.0754501 0.060181 0.0667468 0.0734288 0.0604833 0.0540476 0.0592358 0.0780132 0.0869242 0.0861513 0.0791372 0.0864692 0.0905068
119 1 Mg 0.0423997 21.3296 46.8225 1.2 1 0.481572 0.0230719 0.0811625 0.0323974 0.0657858 0.0878293 0.0783232 0.0842108 0.068951 0.0856079 0.0869335 0.0628697 0.0631144 0.0774615 0.0760122 0.0938245 0.0955956 0.0973506 0.0980175 0.103675
120 3 O 0.458537 22.7495 48.3911 -1.2 1 0.332884 0.0923591 0.0634253 0.0380848 0.0462195 0.0603479 0.047736 0.0722882 0.0680743 0.0752072 0.0623737 0.0565379 0.0671367 0.0901759 0.0961937 0.0759925 0.0928597 0.102383 0.0790933 0.0860663
121 1 Mg 1.49566 21.3835 54.635 1.2 1 0.0153986 0.0192417 0.0194907 0.0331223 0.0138899 0.0241556 0.0243807 0.0351729 0.0487708 0.0623785 0.0613889 0.0516374 0.0590942 0.0679443 0.0640856 0.0804677 0.0664595 0.0901505 0.0851002 0.0845184
122 2 Si 1.43422 23.9762 56.4034 2.4 1 0.0140274 0.0206702 0.0201134 0.0216775 0.0303341 0.0389269 0.0403799 0.0441275 0.0497584 0.0491306 0.0518388 0.064572 0.0690891 0.0546954 0.0779887 0.0708557 0.0620062 0.0911571 0.0513234 0.058001
123 3 O 1.29518 22.4135 56.4524 -1.2 1 0.00459115 0.0158321 0.020118 0.0202401 0.0336235 0.0274683 0.0249136 0.071414 0.0358133 0.0558637 0.0397955 0.062303 0.0587962 0.0680342 0.0787151 0.060463 0.0545637 0.0712957 0.0657848 0.0675405
124 3 O 1.54441 24.9963 52.7297 -1.2 1 0.0714287 0.0370434 0.0325547 0.021157 0.0261314 0.0406888 0.0505496 0.055082 0.0501577 0.0476807 0.0434951 0.050709 0.0552814 0.0648621 0.100547 0.0740938 0.0728133 0.06251 0.0722109 0.0618603
125 3 O 0.191899 24.747 55.7006 -1.2 1 0.0170637 0.0152787 0.0250388 0.0194715 0.0263145 0.0224061 0.0490837 0.0423258 0.0347557 0.0470843 0.0530734 0.0401209 0.0538789 0.0580743 0.0942302 0.0687942 0.0687014 0.0639865 0.065751 0.0687706
126 3 O 2.74198 24.5829 55.8838 -1.2 1 0.0211125 0.0184629 0.0289105 0.0234872 0.0234741 0.0217644 0.0484875 0.0448847 0.0394425 0.0440171 0.0517907 0.0437713 0.0513378 0.0686965 0.0710928 0.0718653 0.0830341 0.0602419 0.0680085 0.061257