ITEM: TIMESTEP
54500
ITEM: NUMBER OF ATOMS
10500
ITEM: BOX BOUNDS xy xz yz pp pp pp
0	8.9688	2.9896
0	118.725	0
0	252.977	0
ITEM: ATOMS id type element xu yu zu q Q_1 Q_2 Q_3 Q_4 Q_5 Q_6 Q_7 Q_8 Q_9 Q_10 Q_11 Q_12 Q_13 Q_14 Q_15 Q_16 Q_17 Q_18 Q_19 Q_20 Q_21
1 1 Mg -3.30299 6.83007 57.3126 1.2 1 0.00920596 0.0108135 0.0152807 0.0297887 0.0205904 0.0293298 0.0207348 0.0562339 0.033803 0.0754578 0.0346031 0.0501566 0.0311241 0.0704596 0.0427718 0.0893619 0.0576176 0.0995663 0.0568014 0.0828241
2 1 Mg -1.82655 6.90154 50.0912 1.2 1 0.222143 0.0863671 0.0274471 0.0319075 0.0292865 0.0519546 0.048731 0.0479484 0.0578373 0.0659492 0.0559696 0.0737923 0.0659374 0.0600202 0.0910526 0.060148 0.0899154 0.101683 0.0744062 0.0768333
3 2 Si -0.257935 3.96038 48.0876 2.4 1 0.376384 0.0672059 0.0706775 0.0397636 0.061944 0.0500469 0.0700431 0.0743966 0.0592746 0.0790073 0.0551139 0.0668511 0.0599452 0.0845085 0.0952155 0.0972855 0.109008 0.0895298 0.0669646 0.0723896
4 3 O -0.335812 5.46814 47.6264 -1.2 1 0.426844 0.0400323 0.065272 0.0297182 0.0407721 0.0473824 0.0654568 0.0720642 0.0877727 0.0768162 0.0928098 0.0753187 0.0706001 0.0675406 0.0904783 0.124624 0.0940003 0.0789025 0.0755452 0.0803328
5 3 O -2.03793 3.43377 51.8941 -1.2 1 0.11358 0.0597275 0.0293545 0.0242887 0.0217736 0.0482745 0.0655415 0.0501279 0.0521057 0.0577972 0.0680479 0.049526 0.0504745 0.0769281 0.090288 0.0803681 0.0622601 0.0516927 0.0753735 0.0740934
6 3 O -1.54015 3.53929 48.9521 -1.2 1 0.305056 0.0882595 0.0348474 0.0496254 0.0280469 0.047582 0.0725154 0.0524643 0.0557711 0.0612411 0.0770314 0.0694755 0.0655863 0.0642624 0.0735397 0.110592 0.0847303 0.0792171 0.0734887 0.0865192
7 1 Mg 1.82954 2.54582 47.1376 1.2 1 0.466038 0.0218727 0.0801754 0.0498216 0.0352655 0.0825108 0.0595826 0.0591916 0.0769968 0.0887704 0.0671644 0.0757116 0.081984 0.0848806 0.0707307 0.097367 0.100761 0.103194 0.106225 0.0992048
8 3 O 1.22989 3.66364 48.7877 -1.2 1 0.318081 0.0738956 0.0212304 0.0474689 0.0303016 0.0648606 0.0809012 0.0333356 0.0822728 0.0799375 0.0547155 0.0772502 0.0819446 0.0679519 0.0654233 0.0866322 0.0922113 0.0890767 0.0934463 0.0918921
9 1 Mg 1.0117 2.25366 54.722 1.2 1 0.0229956 0.0301197 0.0154776 0.0332283 0.0239598 0.0351143 0.0265152 0.0326663 0.0485757 0.0523721 0.0558175 0.0549103 0.0574142 0.0636265 0.0659976 0.0899613 0.0642699 0.087672 0.0606831 0.0800012
10 2 Si 1.03832 4.86838 56.3599 2.4 1 0.0231486 0.0126464 0.0212488 0.0283827 0.0287345 0.0249297 0.0385115 0.0427346 0.0529276 0.0626441 0.0509453 0.0629187 0.0623413 0.0535549 0.0749805 0.0680037 0.0672977 0.0902886 0.0577432 0.0637433
11 3 O 1.06765 3.40786 56.5776 -1.2 1 0.020394 0.022583 0.0147776 0.0197875 0.0247321 0.0297608 0.0286524 0.0610813 0.0379414 0.0452526 0.0441081 0.0625883 0.058824 0.0592753 0.0650787 0.0714366 0.0522709 0.0772433 0.0591642 0.0787354
12 3 O 1.10813 6.07342 52.8172 -1.2 1 0.0745996 0.0519478 0.0281189 0.0186027 0.0213103 0.0444598 0.0429932 0.0580145 0.0539894 0.0433668 0.0572948 0.0522281 0.0658513 0.0681556 0.0859175 0.0877444 0.0581378 0.0635242 0.0599169 0.0683146
13 3 O -0.276935 5.55406 55.8786 -1.2 1 0.00896474 0.015866 0.0243728 0.0189682 0.0205883 0.0235926 0.040327 0.045059 0.0389526 0.044142 0.0602238 0.0389067 0.0492923 0.0611389 0.085965 0.0768271 0.073389 0.0592581 0.0654576 0.064463
14 3 O 2.17932 5.48167 55.4898 -1.2 1 0.0163159 0.0153067 0.0240033 0.0183566 0.0265111 0.0224069 0.0394945 0.0490288 0.0384738 0.0615533 0.0522165 0.0361393 0.0593905 0.063013 0.0730596 0.0840603 0.0688897 0.0830711 0.0593789 0.0621461
15 1 Mg -0.459401 4.67631 52.2426 1.2 1 0.0940544 0.0673106 0.034861 0.0397476 0.032347 0.0303295 0.0419908 0.0626565 0.0395955 0.0838799 0.0445446 0.0591319 0.0492214 0.0724761 0.0452635 0.0971707 0.0555575 0.0939039 0.0585672 0.0925479
16 1 Mg 2.79456 3.9971 49.9987 1.2 1 0.230415 0.088776 0.0282067 0.0444547 0.0426993 0.0574121 0.0571769 0.0562876 0.0822387 0.0620654 0.058384 0.0582353 0.0623524 0.0717116 0.0848363 0.0766463 0.0722186 0.0898087 0.0837228 0.0705872
17 2 Si 1.16169 6.59457 51.2556 2.4 1 0.141542 0.0866438 0.0362234 0.036687 0.0386269 0.0517851 0.0455197 0.0472244 0.0579632 0.0689078 0.0662473 0.0767133 0.0735252 0.0639717 0.081852 0.0918071 0.0800224 0.0854535 0.0763293 0.0658546
18 3 O 1.28989 8.18905 51.2909 -1.2 1 0.138145 0.093709 0.0232142 0.0378141 0.0339535 0.0445685 0.0422428 0.0739023 0.0502259 0.0767167 0.0400043 0.0900218 0.0712383 0.0634216 0.0798874 0.0695297 0.0744929 0.0633511 0.0670545 0.0700416
19 3 O 1.1719 5.42025 57.9291 -1.2 1 0.00407842 0.0219768 0.0178706 0.0178541 0.0243932 0.0365492 0.0344348 0.0414914 0.0619622 0.0434408 0.0478332 0.0423279 0.0591541 0.0666005 0.0972234 0.0747444 0.0559956 0.0569548 0.0683172 0.0561674
20 3 O -0.184847 6.06029 50.6845 -1.2 1 0.178036 0.0893042 0.0186683 0.0371456 0.0340061 0.0323374 0.0511847 0.0591815 0.0582451 0.0614906 0.0624844 0.0806879 0.0697953 0.063316 0.0889093 0.068593 0.0808227 0.0827251 0.0641807 0.0803735
21 1 Mg -3.49704 4.67769 52.6661 1.2 1 0.0570551 0.0555753 0.0321606 0.0261275 0.0157459 0.0452161 0.0349469 0.0624104 0.052843 0.0693375 0.0462978 0.0479779 0.0479945 0.0502561 0.0611212 0.0907345 0.0839024 0.0747318 0.0735838 0.075697
22 3 O 2.48581 5.93312 50.6539 -1.2 1 0.191921 0.0941174 0.0309208 0.0244378 0.0330334 0.0463006 0.0609066 0.061648 0.0444544 0.0667727 0.0467554 0.0696826 0.0558814 0.0592017 0.101747 0.0645013 0.0754269 0.0650607 0.0771242 0.0781369
23 1 Mg -1.89843 4.56093 55.0911 1.2 1 0.0259283 0.0183977 0.0259713 0.0228579 0.0139295 0.0289744 0.0277369 0.0347318 0.0428148 0.0570339 0.057424 0.0433586 0.0596955 0.0675429 0.0623851 0.0769985 0.0754966 0.0878249 0.064622 0.0840588
24 2 Si -2.03913 2.61683 53.3336 2.4 1 0.0297361 0.0448539 0.0252458 0.0238381 0.0339321 0.0264975 0.0498197 0.0459162 0.0646093 0.0663249 0.0514722 0.0694326 0.0775853 0.0469757 0.0740017 0.0574976 0.0709444 0.0871098 0.0772 0.062728
25 3 O -2.00616 1.11822 53.1033 -1.2 1 0.05574 0.0480417 0.028608 0.0185701 0.0309825 0.0410641 0.0279711 0.0575436 0.061094 0.057435 0.0514814 0.0733766 0.0535641 0.0730255 0.0732043 0.0735298 0.053319 0.0742096 0.0632588 0.0802471
26 3 O -0.0467762 2.97103 46.8385 -1.2 1 0.497817 0.0375077 0.0876246 0.0296302 0.0798189 0.0674748 0.0815553 0.072825 0.0727919 0.0784792 0.0806297 0.0753915 0.0975726 0.0895003 0.0893529 0.088561 0.0984117 0.096459 0.10499 0.111351
27 3 O -3.18021 3.20958 54.176 -1.2 1 0.0185973 0.0258216 0.0234376 0.0187928 0.0191871 0.0232693 0.035797 0.0412393 0.0485809 0.0530992 0.0633043 0.0459916 0.0559776 0.056069 0.0755271 0.0690926 0.0583882 0.0719416 0.06448 0.0608066
28 3 O -0.717808 3.18914 54.0096 -1.2 1 0.0278346 0.0315287 0.0315546 0.0221534 0.0228243 0.0249552 0.0446197 0.044187 0.042462 0.0563762 0.0638225 0.0428488 0.054767 0.0771462 0.0707376 0.0677484 0.0838346 0.0715525 0.0667003 0.0639548
29 1 Mg -3.50456 11.6774 57.2138 1.2 1 0.0084898 0.0156048 0.0141741 0.0269671 0.017947 0.0369276 0.0197917 0.0540211 0.0256802 0.069231 0.0378422 0.0480509 0.0262652 0.0573039 0.0378808 0.0985229 0.0564831 0.0969801 0.0620287 0.0744569
30 1 Mg -1.75014 11.5838 49.8362 1.2 1 0.233155 0.0800516 0.0268671 0.0388925 0.0300058 0.0522698 0.0479491 0.0548906 0.0487528 0.0567727 0.0614557 0.0626062 0.0729867 0.0686021 0.108135 0.0895594 0.0649799 0.0953579 0.0864947 0.0784393
31 2 Si -1.18003 9.02138 47.9309 2.4 1 0.371037 0.0668196 0.0667254 0.0513811 0.0424676 0.0626149 0.0725046 0.0756834 0.0700059 0.0635883 0.0570377 0.0660219 0.0682206 0.079611 0.0997853 0.0664068 0.100962 0.0920607 0.105195 0.0880199
32 3 O -1.23224 10.5991 47.9811 -1.2 1 0.378089 0.0617762 0.0596256 0.0507957 0.053956 0.0732905 0.0654464 0.0764356 0.0555037 0.0842768 0.0660081 0.0621445 0.0745039 0.0784921 0.0782206 0.0692179 0.0914878 0.0804313 0.0672958 0.072446
33 3 O -1.79016 8.01447 51.8693 -1.2 1 0.111692 0.0646846 0.0296279 0.0325901 0.0270555 0.0464779 0.0631141 0.0540296 0.0595507 0.0564046 0.0545747 0.0523165 0.0625313 0.0879755 0.0892793 0.0750338 0.0720923 0.05578 0.0723245 0.0686761
34 3 O -2.30986 8.37215 48.8528 -1.2 1 0.311117 0.0892764 0.0683974 0.0238612 0.0542391 0.0616757 0.0673306 0.0650307 0.0567824 0.0659928 0.0818948 0.0669018 0.0535762 0.0650357 0.0815876 0.0897503 0.094206 0.0779825 0.0774656 0.097069
35 1 Mg 0.154883 7.08234 46.8007 1.2 1 0.497218 0.0363385 0.0760096 0.0384138 0.0638171 0.0737828 0.0577464 0.0685751 0.0717959 0.0827156 0.0886259 0.0765215 0.0805485 0.0807359 0.0693821 0.0918173 0.093689 0.109613 0.114946 0.100688
36 3 O 0.325447 8.50934 48.3809 -1.2 1 0.34696 0.0822069 0.0624778 0.0439214 0.0341453 0.0526396 0.0391949 0.0586584 0.064786 0.0669477 0.0757134 0.0676191 0.076681 0.0900683 0.0930532 0.0702082 0.089874 0.0996467 0.0842551 0.0872654
37 1 Mg 0.927707 6.90009 54.5708 1.2 1 0.0188704 0.024351 0.0155451 0.0444607 0.0178642 0.0320082 0.0212502 0.0349893 0.0453018 0.0534312 0.0639753 0.0505002 0.0573009 0.0715049 0.0693905 0.0728111 0.0728319 0.0810964 0.0775231 0.0771437
38 2 Si 1.02231 9.581 56.3615 2.4 1 0.0140032 0.0192468 0.0235371 0.0240655 0.028844 0.0293314 0.0378262 0.0453586 0.0517125 0.0629833 0.0545273 0.0535993 0.0669973 0.0600891 0.0768335 0.0743764 0.0601326 0.0854314 0.0710395 0.0672995
39 3 O 1.14858 8.00844 56.4548 -1.2 1 0.0202681 0.028198 0.0226536 0.0208722 0.0293599 0.0316362 0.0250768 0.067945 0.0385808 0.0604895 0.0368039 0.0583002 0.0602849 0.074099 0.0735736 0.0693431 0.0653844 0.0640729 0.0635881 0.073512
40 3 O 1.28624 10.7248 52.7351 -1.2 1 0.071703 0.0470674 0.0302107 0.0254297 0.0249664 0.052609 0.0473196 0.0514376 0.0474875 0.0441325 0.0516389 0.04516 0.0591023 0.0666573 0.0962092 0.0724172 0.0692926 0.0514563 0.0643374 0.0606522
41 3 O -0.22566 10.4241 55.7593 -1.2 1 0.0107388 0.00628966 0.0196415 0.013365 0.017109 0.0211234 0.0445568 0.0448495 0.0355572 0.0500102 0.0555151 0.0454664 0.0544939 0.055382 0.0978482 0.0780957 0.0703677 0.0660939 0.0622019 0.0726676
42 3 O 2.24348 10.3428 55.7777 -1.2 1 0.00639267 0.0182399 0.0232177 0.0181451 0.0276166 0.0234104 0.0441622 0.0409209 0.0418928 0.04933 0.0492574 0.0460981 0.0514496 0.0606029 0.0808778 0.0737073 0.0749902 0.0572894 0.0670949 0.0686279
43 1 Mg -0.262694 9.34741 52.2523 1.2 1 0.113489 0.0702097 0.0159592 0.0418163 0.0295528 0.0478047 0.0398476 0.0723272 0.0283825 0.0883026 0.0287588 0.0573633 0.0342881 0.0744622 0.0391147 0.110743 0.0490213 0.092422 0.0462839 0.104837
44 1 Mg 1.87648 9.01537 49.4629 1.2 1 0.271138 0.0957813 0.0410209 0.0315582 0.0359173 0.0464845 0.0693778 0.0511322 0.0782164 0.066983 0.0877396 0.0561642 0.0831441 0.068922 0.0865766 0.0938563 0.0855816 0.0991339 0.0899671 0.094927
45 2 Si 1.21415 11.3799 51.2378 2.4 1 0.137325 0.086687 0.0343652 0.0295787 0.0412627 0.0498426 0.0538935 0.0403324 0.0593679 0.0610769 0.0719721 0.0703188 0.0730792 0.0661508 0.0948317 0.088371 0.0751573 0.0828779 0.0762164 0.0610415
46 3 O 1.31634 12.9512 51.3023 -1.2 1 0.129392 0.0926159 0.0156553 0.0290364 0.0402357 0.0390916 0.0428936 0.0677676 0.0641999 0.0704907 0.0429517 0.0816986 0.0595915 0.0679661 0.0750972 0.0738877 0.0766955 0.0763683 0.0758812 0.0661686
47 3 O 0.993414 10.1174 57.9021 -1.2 1 0.00340949 0.0217243 0.0176152 0.02633 0.019473 0.0277043 0.0336203 0.0430878 0.0599345 0.0461756 0.0449259 0.0429909 0.0624409 0.0678268 0.0957058 0.0728288 0.0651772 0.0536478 0.0790742 0.0563078
48 3 O -0.115718 10.7564 50.681 -1.2 1 0.18678 0.086878 0.0230292 0.0186754 0.0416341 0.0400773 0.0524581 0.0659931 0.0516794 0.0554989 0.0610711 0.0544989 0.0636803 0.0736898 0.0900702 0.0772393 0.0690754 0.0784248 0.0780338 0.0808293
49 1 Mg -3.26386 9.35564 52.3622 1.2 1 0.0806893 0.0590666 0.0227284 0.0364994 0.0182055 0.0502437 0.0421617 0.0582529 0.0322653 0.0809399 0.0349551 0.052477 0.0346821 0.0619913 0.0360334 0.115126 0.0475547 0.101472 0.0467675 0.0860101
50 3 O 2.45216 10.7265 50.4558 -1.2 1 0.199199 0.0912318 0.0195431 0.0125256 0.0373326 0.0560986 0.0588163 0.0495497 0.0552991 0.0682786 0.0645585 0.0682629 0.0520086 0.0703637 0.0978664 0.0852981 0.0751783 0.0750112 0.0603225 0.0893448
51 1 Mg -1.98462 9.49796 55.2334 1.2 1 0.0233144 0.0106146 0.0233536 0.0224284 0.0156692 0.021857 0.0248673 0.0367329 0.0361039 0.0631971 0.0547149 0.061505 0.0621617 0.0598528 0.0640836 0.0695842 0.0778957 0.092013 0.0689607 0.0681821
52 2 Si -1.80256 7.43227 53.3356 2.4 1 0.0494562 0.0382455 0.0275697 0.0305974 0.0321088 0.0391623 0.0412805 0.0571571 0.0639347 0.0580389 0.0553544 0.0569822 0.0831289 0.047454 0.0636958 0.0665602 0.0677511 0.0879835 0.0648542 0.0528446
53 3 O -1.77964 5.82078 53.2892 -1.2 1 0.0506357 0.0421439 0.0325402 0.0163711 0.0177339 0.031063 0.0370745 0.0686566 0.0509968 0.0695314 0.0339183 0.0678874 0.0577471 0.0794834 0.0693809 0.0572405 0.0655098 0.0593828 0.0655838 0.0672851
54 3 O -1.19417 8.46968 46.4488 -1.2 1 0.524999 0.0665118 0.0670004 0.051705 0.0667137 0.0554421 0.0775556 0.0541235 0.0760389 0.0713867 0.0570342 0.0505167 0.0687774 0.0975509 0.130234 0.113878 0.0976325 0.0951116 0.0826243 0.0819906
55 3 O -3.11271 8.11801 54.0045 -1.2 1 0.0221953 0.0264967 0.0257241 0.0246198 0.0282024 0.0231734 0.0554181 0.0430671 0.0474105 0.0480167 0.0513054 0.0408773 0.0662786 0.0586558 0.0854767 0.0674285 0.0645679 0.0645344 0.0721494 0.0790439
56 3 O -0.532195 8.20943 53.8959 -1.2 1 0.0396149 0.0363255 0.0201971 0.0324072 0.0394634 0.0203824 0.0442178 0.0501494 0.0452524 0.0471301 0.0618639 0.0452605 0.0656207 0.0568088 0.095223 0.0505158 0.078626 0.0739274 0.0700221 0.0751453
57 1 Mg -3.36927 16.4742 57.567 1.2 1 0.0216049 0.0163757 0.0114744 0.0323564 0.0154324 0.0365211 0.0138666 0.0603713 0.0214275 0.0732756 0.0238452 0.0487592 0.02591 0.0716014 0.0296741 0.103454 0.0421034 0.107453 0.0454059 0.0855894
58 1 Mg -1.6714 16.3544 49.8412 1.2 1 0.236641 0.0750698 0.026135 0.0383583 0.0334347 0.0474753 0.0521383 0.0551125 0.046774 0.0585384 0.0618411 0.0665864 0.0720564 0.068376 0.102005 0.0865118 0.07287 0.09369 0.0848641 0.0837758
59 2 Si -1.18567 13.8526 47.9314 2.4 1 0.370597 0.0730456 0.0799704 0.0631006 0.0301379 0.0675242 0.0486322 0.081284 0.060362 0.0680427 0.0556192 0.0726004 0.058429 0.0758269 0.0995579 0.0759825 0.104784 0.0983769 0.0910147 0.0899251
60 3 O -1.09664 15.4205 47.9915 -1.2 1 0.36629 0.0695642 0.0483368 0.0632896 0.0454088 0.0917819 0.0631682 0.0826919 0.0562576 0.0891566 0.0558776 0.0726402 0.0612911 0.0842236 0.0839203 0.0760926 0.0953214 0.07691 0.0737848 0.0685143
61 3 O -1.73493 12.7491 51.7772 -1.2 1 0.113167 0.0592159 0.0287317 0.0327317 0.0301943 0.053165 0.0660536 0.0489823 0.0648854 0.0548877 0.0553424 0.0525292 0.0527567 0.0850877 0.100236 0.0743817 0.0836571 0.0527104 0.0669609 0.0721545
62 3 O -2.36115 13.2717 48.8238 -1.2 1 0.306988 0.0910031 0.0558159 0.0288029 0.0555036 0.0485694 0.0568077 0.0701135 0.0620413 0.0680855 0.0726719 0.0639258 0.0604665 0.0566411 0.0855614 0.0908922 0.0913357 0.0780942 0.0792675 0.0859058
63 1 Mg -0.159928 11.7639 46.8533 1.2 1 0.489214 0.0241587 0.0718527 0.0348312 0.0435647 0.0901142 0.0601409 0.0831551 0.0864481 0.0896029 0.0870244 0.0692807 0.0719509 0.0945419 0.0799543 0.0832104 0.0952004 0.0986566 0.102119 0.110302
64 3 O 0.2623 13.1866 48.413 -1.2 1 0.345749 0.0775407 0.0551467 0.0368333 0.0451707 0.0558425 0.0414726 0.0613012 0.0656698 0.0713767 0.0631409 0.0611801 0.0678572 0.0881206 0.096262 0.0825097 0.0967205 0.0990677 0.0831267 0.0883825
65 1 Mg 1.50083 11.9011 54.5296 1.2 1 0.00473892 0.0252919 0.0183649 0.0347581 0.0169301 0.0240514 0.0279585 0.0427907 0.0442074 0.0586457 0.0587103 0.046678 0.0698066 0.0556231 0.0728901 0.0733044 0.069597 0.081197 0.0716097 0.0688272
66 2 Si 1.14388 14.4148 56.3103 2.4 1 0.027866 0.0209092 0.0201955 0.0220326 0.0244005 0.0318075 0.0375275 0.0467475 0.0465264 0.0592591 0.0488135 0.0659579 0.0643711 0.0605276 0.0727372 0.0797133 0.0643409 0.0859718 0.059639 0.0629017
67 3 O 1.00615 12.8463 56.3906 -1.2 1 0.0162199 0.0161567 0.0168198 0.0245032 0.0328765 0.0328771 0.0209365 0.0713659 0.0364952 0.0614445 0.0351513 0.0653595 0.0584819 0.0706242 0.0664902 0.0676126 0.0681455 0.0654425 0.0734796 0.0533928
68 3 O 1.36565 15.4813 52.729 -1.2 1 0.068858 0.0402231 0.0316436 0.0195458 0.0244043 0.0437118 0.0486176 0.0560334 0.0520129 0.0470253 0.0492804 0.0509645 0.058717 0.0633026 0.103274 0.0715752 0.0774393 0.0568171 0.0716081 0.0651208
69 3 O -0.1979 15.0682 55.8186 -1.2 1 0.010498 0.020853 0.0224131 0.0178676 0.0182715 0.0239767 0.038676 0.0513459 0.0365644 0.0522317 0.0479097 0.0447172 0.0575267 0.0649889 0.0840792 0.0783158 0.0832721 0.0616555 0.0642062 0.0707797
70 3 O 2.38188 15.0445 55.6937 -1.2 1 0.00779615 0.0240613 0.0255917 0.0186991 0.0246307 0.0247749 0.0449014 0.0395571 0.0453813 0.0483787 0.0521369 0.0353352 0.0503234 0.0695045 0.0727504 0.0836919 0.074874 0.0667872 0.0618072 0.063837
71 1 Mg -0.206989 14.1049 52.2121 1.2 1 0.104015 0.0675387 0.0240794 0.0427086 0.0288996 0.0450059 0.0340741 0.0733097 0.0240385 0.0868147 0.0203952 0.0634053 0.0232 0.0797683 0.0328481 0.103049 0.0401552 0.107161 0.0337814 0.102349
72 1 Mg 1.82591 13.8102 49.4556 1.2 1 0.264034 0.104763 0.0353097 0.0388464 0.0348286 0.0384593 0.0680597 0.0454163 0.0713624 0.0738517 0.0774552 0.0573839 0.0732118 0.0737381 0.0833882 0.0912567 0.0767997 0.0959952 0.0886977 0.082873
73 2 Si 1.29285 16.1518 51.2434 2.4 1 0.1445 0.0794359 0.0345822 0.0301139 0.0332743 0.0471959 0.0575741 0.0446381 0.0528274 0.0691745 0.0662177 0.0599952 0.0705182 0.0664417 0.0904379 0.0822691 0.0762065 0.089683 0.0763974 0.0663434
74 3 O 1.39496 17.7199 51.3047 -1.2 1 0.129793 0.0829376 0.0270074 0.0274282 0.039019 0.0418646 0.0459676 0.0722517 0.0589195 0.0661218 0.0420568 0.0835143 0.0694409 0.0728732 0.0810518 0.0683069 0.0712361 0.0760616 0.066126 0.0699652
75 3 O 1.13326 15.02 57.854 -1.2 1 0.0203863 0.016393 0.02045 0.022724 0.0165314 0.0393489 0.0404209 0.0422886 0.0595809 0.0459753 0.0530909 0.0379798 0.058111 0.0779613 0.0989643 0.0752721 0.0676378 0.0552293 0.0747049 0.0544329
76 3 O -0.0269106 15.5178 50.6688 -1.2 1 0.180655 0.0878985 0.0164498 0.0311496 0.043793 0.0373277 0.0587243 0.0634266 0.0589371 0.0599882 0.0599643 0.0502585 0.0662784 0.0757944 0.0937086 0.0810927 0.071434 0.0854515 0.077861 0.0900828
77 1 Mg -3.18391 14.1057 52.3125 1.2 1 0.0770242 0.0578726 0.0279652 0.0306479 0.0172817 0.0536543 0.0330471 0.0632505 0.0312301 0.0806824 0.0262138 0.0460786 0.0227606 0.079555 0.0290377 0.117304 0.0408428 0.0986563 0.0343931 0.0865158
78 3 O 2.52432 15.503 50.4579 -1.2 1 0.198871 0.0883647 0.0257851 0.0147573 0.0359961 0.0573882 0.0617195 0.0491403 0.0528112 0.0667373 0.0656757 0.0662834 0.0554122 0.063105 0.0965225 0.0752954 0.0731614 0.0689809 0.0639657 0.0818819
79 1 Mg -1.82739 14.4031 55.0852 1.2 1 0.00451329 0.0151936 0.0237053 0.0381354 0.0256465 0.0289739 0.0308034 0.0367994 0.0399035 0.0556636 0.064562 0.0647136 0.0590796 0.0755053 0.0682825 0.075292 0.0668599 0.0899729 0.0795596 0.0717248
80 2 Si -1.62151 12.0496 53.2088 2.4 1 0.0473422 0.0482267 0.017934 0.0290032 0.0347373 0.0330239 0.0469888 0.0558557 0.0577097 0.06214 0.0652954 0.0736925 0.0723879 0.0539878 0.072721 0.0667726 0.0703401 0.0871596 0.0752268 0.0614057
81 3 O -1.85226 10.4938 53.1558 -1.2 1 0.0601139 0.049426 0.0224173 0.0219702 0.0283538 0.0438689 0.0280199 0.0767721 0.0480638 0.0591928 0.0481671 0.0674934 0.0639934 0.0838913 0.0735016 0.0632978 0.0585381 0.0638414 0.0628225 0.0796116
82 3 O -1.21337 13.3381 46.4311 -1.2 1 0.520076 0.0675181 0.0698991 0.0403019 0.0556733 0.0584024 0.0586008 0.0701391 0.0790628 0.0652314 0.0456791 0.0711535 0.0682075 0.0882473 0.120715 0.114043 0.106246 0.100454 0.0611653 0.0922431
83 3 O -2.88991 12.8526 53.8782 -1.2 1 0.0205056 0.0330836 0.0305878 0.0246634 0.0280822 0.0298262 0.0528499 0.0506035 0.0449663 0.0462432 0.0516452 0.048776 0.0563474 0.0606366 0.0881465 0.0653128 0.0690015 0.0576371 0.0748258 0.0594612
84 3 O -0.291284 12.6603 53.7832 -1.2 1 0.0321817 0.0331934 0.0250205 0.0255246 0.0240169 0.0202557 0.0435506 0.0476885 0.0559402 0.0520523 0.054539 0.0403342 0.0715118 0.0608565 0.0871889 0.0709394 0.0825518 0.0717599 0.0707489 0.0736334
85 1 Mg -3.22589 21.1193 57.2361 1.2 1 0.00199508 0.0160456 0.0256034 0.0200076 0.0241498 0.0297133 0.018898 0.0532122 0.0206549 0.0762301 0.0298142 0.0510555 0.0205922 0.0712338 0.0313269 0.10071 0.0463645 0.0994384 0.0449604 0.077222
86 1 Mg -1.5831 21.1217 49.8405 1.2 1 0.229476 0.0833365 0.0225063 0.0369676 0.0337145 0.0486967 0.053339 0.0526278 0.0498408 0.0588079 0.061599 0.0659008 0.0735869 0.0715289 0.0993949 0.0803473 0.0712343 0.0964851 0.0857103 0.0842174
87 2 Si -1.09384 18.6291 47.9287 2.4 1 0.380924 0.0559627 0.059835 0.0702399 0.0282103 0.0675404 0.0457272 0.0771605 0.0642526 0.0678487 0.0527215 0.0740016 0.0615916 0.0731783 0.0966079 0.0749111 0.106959 0.0960864 0.0900461 0.0866437
88 3 O -1.02071 20.1985 47.9911 -1.2 1 0.366648 0.067858 0.0439236 0.064839 0.0441496 0.0904706 0.0644291 0.083288 0.0577344 0.0892621 0.0536316 0.0722911 0.0612203 0.0807106 0.0797548 0.0732288 0.0944092 0.0756713 0.0736033 0.0754739
89 3 O -1.65002 17.5002 51.771 -1.2 1 0.112113 0.0571546 0.0354327 0.0291673 0.0324521 0.0523891 0.0619784 0.0508446 0.0632042 0.0505426 0.0617407 0.0509325 0.0524486 0.0835617 0.0964129 0.0728452 0.0831226 0.046721 0.0694425 0.07139
90 3 O -2.26174 18.0434 48.8281 -1.2 1 0.302256 0.0953095 0.0576533 0.0310064 0.0583755 0.0493518 0.0557391 0.0723764 0.0629469 0.0686109 0.0705024 0.0607741 0.0552644 0.0592297 0.0827289 0.0919232 0.0893048 0.0781964 0.0821994 0.0890485
91 1 Mg -0.0440435 16.5651 46.8269 1.2 1 0.488163 0.0229409 0.0750217 0.0326096 0.0588789 0.0792334 0.0695076 0.0819934 0.074021 0.0881116 0.0869136 0.0627927 0.0646749 0.0803915 0.0757408 0.0898726 0.0926773 0.0980391 0.103285 0.10997
92 3 O 0.37001 17.9877 48.3925 -1.2 1 0.352936 0.0682524 0.0494966 0.0430147 0.0437385 0.058103 0.0443629 0.0631582 0.0627958 0.0741887 0.0606803 0.0555083 0.0635179 0.0828059 0.0925055 0.0799887 0.0972311 0.10269 0.081566 0.0880167
93 1 Mg 1.38022 16.4927 54.6705 1.2 1 0.00971969 0.0267729 0.0192833 0.0286365 0.0135617 0.0207973 0.0259153 0.0312646 0.0485785 0.0573582 0.0608485 0.0558641 0.0636193 0.0654874 0.0605969 0.0859259 0.0730701 0.0941608 0.0661601 0.0886399
94 2 Si 1.09613 19.0659 56.2851 2.4 1 0.0218672 0.0180831 0.0206112 0.0266257 0.0212976 0.0297507 0.0344989 0.0392547 0.0408203 0.0573062 0.0621141 0.0539244 0.0667515 0.0582923 0.0762039 0.0756068 0.0612602 0.0784296 0.065628 0.0507481
95 3 O 1.0332 17.5618 56.5966 -1.2 1 0.024769 0.023342 0.0193917 0.0242401 0.0290527 0.0350374 0.0294946 0.0684122 0.0472781 0.0541026 0.0479657 0.0681102 0.0609845 0.0673313 0.0813035 0.0663641 0.0680591 0.0767759 0.0552637 0.0660114
96 3 O 1.45147 20.239 52.7294 -1.2 1 0.0731501 0.0366894 0.0312777 0.0242541 0.0175915 0.0422174 0.0474008 0.05997 0.0562479 0.0452825 0.047382 0.0489022 0.0525788 0.0692377 0.10518 0.0692017 0.0720373 0.0556863 0.0682665 0.0592924
97 3 O -0.204572 19.8403 55.7139 -1.2 1 0.0100885 0.0206058 0.0248204 0.0153456 0.0157757 0.0214972 0.0405562 0.0402968 0.0413845 0.0496837 0.054323 0.034343 0.0564566 0.0535541 0.092477 0.0813303 0.0707254 0.0737281 0.0609513 0.0670406
98 3 O 2.31477 19.6587 55.4259 -1.2 1 0.0208297 0.0216118 0.0240441 0.0190753 0.0202143 0.032568 0.0332895 0.0530211 0.0436829 0.0562716 0.0519904 0.0432895 0.0519142 0.0619208 0.0764897 0.0843475 0.0629505 0.0783171 0.05076 0.0724267
99 1 Mg -0.126194 18.8651 52.2079 1.2 1 0.1018 0.065673 0.0246638 0.0440448 0.0292799 0.0449318 0.0333681 0.0742781 0.0264662 0.0896806 0.0230973 0.0562533 0.0296858 0.0752212 0.0320175 0.107638 0.0347538 0.106766 0.0349885 0.102665
100 1 Mg 1.92402 18.5815 49.4545 1.2 1 0.271031 0.0988776 0.0342279 0.0402991 0.0278058 0.0311748 0.0696075 0.0406595 0.0664927 0.0719845 0.0806529 0.0614753 0.074142 0.0674783 0.0846907 0.0908388 0.0800666 0.100319 0.0873594 0.0894105
101 2 Si 1.38106 20.9117 51.2443 2.4 1 0.138871 0.0781772 0.0398281 0.0360913 0.0341993 0.0495858 0.0524325 0.0484054 0.0535844 0.069667 0.0638943 0.0689984 0.0725105 0.0642428 0.0913688 0.0882879 0.0713383 0.0842558 0.0720444 0.0602115
102 3 O 1.48527 22.4795 51.3054 -1.2 1 0.132492 0.0854214 0.0196862 0.0309492 0.0307944 0.043335 0.0444714 0.0709446 0.0499504 0.0649144 0.0447661 0.0775032 0.0660095 0.0683921 0.0739289 0.0687212 0.075342 0.0768746 0.0654024 0.0757195
103 3 O 1.34318 19.8628 57.8004 -1.2 1 0.0143154 0.0192295 0.00992433 0.0160638 0.0117602 0.027941 0.0352362 0.0332374 0.0564211 0.0420044 0.0497414 0.0484601 0.058189 0.0651983 0.0979895 0.0699698 0.0763159 0.056625 0.0708673 0.0578746
104 3 O 0.0615419 20.2804 50.6669 -1.2 1 0.175691 0.0887461 0.0210428 0.0304318 0.0465013 0.0347894 0.0544478 0.0657592 0.0574327 0.0586662 0.0601431 0.0504227 0.0619565 0.0737988 0.0932562 0.0813107 0.0747199 0.0853752 0.0730404 0.0808751
105 1 Mg -3.09665 18.8643 52.3122 1.2 1 0.0811426 0.0554963 0.0265577 0.0328813 0.0164589 0.0524598 0.0337385 0.0662692 0.0324742 0.0780657 0.0325792 0.0487365 0.0292997 0.0735473 0.0281434 0.112644 0.0386604 0.102884 0.0386246 0.0856684
106 3 O 2.61548 20.2646 50.4626 -1.2 1 0.194032 0.0963076 0.0232685 0.0214695 0.0321294 0.0592203 0.0577965 0.0420611 0.0575449 0.0655339 0.0654938 0.064401 0.0564998 0.0666276 0.099105 0.0733354 0.0724561 0.0698877 0.0632661 0.0859084
107 1 Mg -1.84821 18.8265 55.1055 1.2 1 0.0202429 0.0162072 0.02769 0.031478 0.016723 0.0192178 0.0243208 0.0333318 0.042092 0.0590286 0.0580553 0.0462207 0.0626446 0.0601474 0.0639493 0.077872 0.0686548 0.095306 0.0700502 0.0772004
108 2 Si -1.5899 16.8597 53.2118 2.4 1 0.0479978 0.0409289 0.0271511 0.0276913 0.0370718 0.0376323 0.0421809 0.0591035 0.0568262 0.0609821 0.0543078 0.0679613 0.0763997 0.0498937 0.073759 0.0673737 0.0651955 0.0906617 0.0614879 0.0598215
109 3 O -1.62544 15.2727 53.1324 -1.2 1 0.0512384 0.0584707 0.0217377 0.0224621 0.0307236 0.0407588 0.0296383 0.075206 0.0437049 0.0644503 0.040565 0.0710095 0.059739 0.0814141 0.076927 0.0604379 0.0604942 0.0788948 0.059822 0.0781281
110 3 O -1.12868 18.1227 46.4249 -1.2 1 0.522125 0.0666747 0.0721191 0.0518932 0.0579183 0.0646946 0.0604805 0.0795317 0.0803745 0.0627236 0.0447449 0.0673948 0.0671521 0.0874338 0.116346 0.114536 0.106809 0.100611 0.0624874 0.0930056
111 3 O -2.91625 17.3683 54.0762 -1.2 1 0.011676 0.0319435 0.02502 0.026534 0.0307245 0.0251506 0.0438688 0.0447934 0.0483325 0.0577066 0.0510649 0.0356735 0.0522708 0.0647769 0.074799 0.0828005 0.063581 0.0666775 0.0647838 0.0676146
112 3 O -0.26882 17.4312 53.9685 -1.2 1 0.0379667 0.0440068 0.0169141 0.0243208 0.0255105 0.0199044 0.0352289 0.0483832 0.0526639 0.0584229 0.0561135 0.0429561 0.0641397 0.0632256 0.0903243 0.0720598 0.0802672 0.0633056 0.0627556 0.0732372
113 1 Mg -3.08684 25.851 57.3204 1.2 1 0.0112837 0.0172576 0.012286 0.0268093 0.0141536 0.0379365 0.0155264 0.0585131 0.0183165 0.0773375 0.0189566 0.0597129 0.0264528 0.0705942 0.0270976 0.107208 0.0325751 0.107705 0.0298446 0.0905548
114 1 Mg -1.48778 25.88 49.8402 1.2 1 0.229291 0.0822337 0.0217124 0.0413403 0.0340291 0.0486229 0.0544002 0.0549482 0.0491724 0.061078 0.0619943 0.0643127 0.072309 0.0707394 0.0992769 0.081876 0.0744273 0.0953477 0.0860303 0.0814341
115 2 Si -1.00491 23.3922 47.9274 2.4 1 0.374171 0.0657624 0.0697933 0.074121 0.0334392 0.0716211 0.0463286 0.0849348 0.0659872 0.0746842 0.0576143 0.0756007 0.0565743 0.0727826 0.0943384 0.0755192 0.102788 0.0966632 0.0870693 0.0943495
116 3 O -0.927602 24.9615 47.9909 -1.2 1 0.361269 0.0764264 0.0528815 0.0599163 0.0469716 0.0930701 0.0619866 0.08186 0.0531793 0.0863442 0.0527078 0.072739 0.06204 0.0833189 0.0826307 0.0734686 0.0952115 0.0762317 0.0720783 0.0700238
117 3 O -1.55795 22.2588 51.7696 -1.2 1 0.11419 0.0582615 0.0320659 0.0219464 0.0366809 0.0481258 0.057499 0.0512896 0.0644299 0.0515218 0.059081 0.0480265 0.0520656 0.0817954 0.0986426 0.0720466 0.0829889 0.05497 0.0690602 0.0719236
118 3 O -2.17411 22.8111 48.8277 -1.2 1 0.308056 0.0901767 0.0559036 0.0308418 0.0577003 0.0447279 0.0543193 0.0706622 0.062122 0.0706555 0.0716566 0.0611455 0.0532644 0.0599951 0.079777 0.0855944 0.0844634 0.076169 0.0860649 0.0926996
119 1 Mg 0.0423997 21.3296 46.8225 1.2 1 0.484696 0.0200235 0.0787635 0.0307259 0.0616812 0.084209 0.0730183 0.0829012 0.0719048 0.08441 0.083674 0.0620726 0.0652733 0.0794901 0.0764128 0.0939171 0.097643 0.0991054 0.0995136 0.106082
120 3 O 0.458537 22.7495 48.3911 -1.2 1 0.358397 0.0594157 0.0403437 0.046408 0.0403796 0.0540407 0.0458668 0.0639591 0.0644161 0.0741626 0.0599497 0.0542691 0.0599113 0.0817846 0.091255 0.0761167 0.0922052 0.0994627 0.0801297 0.0846956
121 1 Mg 1.46302 21.2539 54.3496 1.2 1 0.0130218 0.0278166 0.0148915 0.0262339 0.0162175 0.0193248 0.0275219 0.0329212 0.0424818 0.0591148 0.0526271 0.0544041 0.0650348 0.0650637 0.0752582 0.0634354 0.0854994 0.0796022 0.0698294 0.0664688
122 2 Si 1.24689 23.8139 56.1777 2.4 1 0.0182368 0.0143677 0.0242436 0.0171803 0.0226991 0.0327614 0.0368197 0.0364506 0.0422224 0.0580911 0.0599084 0.0603458 0.0644592 0.0621595 0.0751047 0.0827672 0.0646078 0.0857465 0.0712454 0.0597577
123 3 O 1.25579 22.1852 56.2748 -1.2 1 0.0312573 0.02582 0.0156079 0.025736 0.0232762 0.0253134 0.0224788 0.0763046 0.0375738 0.0584651 0.0312115 0.0619129 0.059873 0.0724348 0.0705406 0.0677993 0.0658644 0.0590994 0.0772754 0.0595765
124 3 O 1.54441 24.9963 52.7297 -1.2 1 0.0696195 0.0435436 0.0288007 0.0186286 0.0250774 0.0427392 0.0452967 0.0565927 0.0491638 0.0521876 0.0468253 0.049938 0.055288 0.0676076 0.100042 0.0694085 0.0668404 0.0582787 0.0660128 0.0698556
125 3 O -0.00128254 24.6638 55.6544 -1.2 1 0.00934562 0.0144503 0.0250711 0.0211582 0.0222985 0.0197857 0.0408367 0.0404751 0.0453632 0.0441517 0.0551566 0.0363099 0.0586955 0.0444532 0.0866818 0.074865 0.0676689 0.065264 0.0566428 0.0748699
126 3 O 2.48637 24.5454 55.5979 -1.2 1 0.0261152 0.022888 0.025319 0.0148809 0.0246804 0.0246514 0.0422348 0.0435077 0.0413407 0.0504918 0.054 0.0297247 0.0496345 0.0745524 0.0771167 0.0830281 0.076056 0.0758912 0.06606 0.0633397