ITEM: TIMESTEP
79200
ITEM: NUMBER OF ATOMS
10500
ITEM: BOX BOUNDS xy xz yz pp pp pp
0	8.9688	2.9896
0	118.725	0
0	252.977	0
ITEM: ATOMS id type element xu yu zu q Q_1 Q_2 Q_3 Q_4 Q_5 Q_6 Q_7 Q_8 Q_9 Q_10 Q_11 Q_12 Q_13 Q_14 Q_15 Q_16 Q_17 Q_18 Q_19 Q_20 Q_21
1 1 Mg -3.38126 6.89939 57.3148 1.2 1 0.0393922 0.0280972 0.0206816 0.0306651 0.0211812 0.0290134 0.0152791 0.0519685 0.0182326 0.0728058 0.0231718 0.0585649 0.0227963 0.0725299 0.0301163 0.0992294 0.0400856 0.110065 0.0305649 0.095062
2 1 Mg -1.82655 6.90154 50.0912 1.2 1 0.217577 0.0876392 0.0296313 0.0269122 0.0311802 0.0519321 0.0519926 0.0445835 0.0565478 0.0663614 0.052987 0.0731514 0.0688161 0.0597838 0.0950456 0.0595653 0.086547 0.0992298 0.0755483 0.0784088
3 2 Si -0.257935 3.96038 48.0876 2.4 1 0.374553 0.068745 0.0718484 0.0331591 0.0601709 0.0501354 0.0748035 0.0756341 0.0583938 0.078846 0.0571244 0.0703555 0.0639179 0.0846682 0.095439 0.100616 0.110401 0.090449 0.0708981 0.0721956
4 3 O -0.335812 5.46814 47.6264 -1.2 1 0.427045 0.0395119 0.064938 0.0299583 0.0404909 0.0491438 0.0661201 0.0705627 0.086985 0.0764345 0.0925174 0.0760186 0.0703847 0.0665966 0.0908513 0.125238 0.0956224 0.0812525 0.0762506 0.0787135
5 3 O -2.03793 3.43377 51.8941 -1.2 1 0.119809 0.0630519 0.0213772 0.0207421 0.0203502 0.0486166 0.0632862 0.0496482 0.051206 0.0568837 0.06574 0.0502569 0.0519474 0.0726841 0.0807043 0.0761115 0.0739737 0.0628631 0.0701985 0.0668075
6 3 O -1.54015 3.53929 48.9521 -1.2 1 0.318914 0.0756481 0.0327666 0.047954 0.0348484 0.0520021 0.0725041 0.0483736 0.0572553 0.0598965 0.0702659 0.0699256 0.0639269 0.0655865 0.0732352 0.105532 0.0838571 0.0811637 0.0715228 0.0881541
7 1 Mg 1.82954 2.54582 47.1376 1.2 1 0.466 0.021899 0.0804563 0.0495546 0.0352394 0.083286 0.0600716 0.0585848 0.0765478 0.0890254 0.0690309 0.0767104 0.0806407 0.0836462 0.0698096 0.0962139 0.101352 0.104956 0.106293 0.0992875
8 3 O 1.22989 3.66364 48.7877 -1.2 1 0.324124 0.0689459 0.0232658 0.0408254 0.0351173 0.0646779 0.0771651 0.0320131 0.0826467 0.073802 0.0466218 0.0785419 0.0858939 0.0680587 0.0639422 0.0883464 0.0944439 0.0894878 0.092711 0.0915508
9 1 Mg 0.952615 2.27172 54.4624 1.2 1 0.0105763 0.0188118 0.0249983 0.0260518 0.0277822 0.0329646 0.0259919 0.041023 0.040289 0.0581605 0.0612678 0.0620498 0.0579141 0.0666557 0.068448 0.0748132 0.0700152 0.0814863 0.0739528 0.0740958
10 2 Si 1.00363 4.77642 56.226 2.4 1 0.0366996 0.0326245 0.0277287 0.0225826 0.0327498 0.0260487 0.0330701 0.0385664 0.0499568 0.0639749 0.0558524 0.064798 0.0595289 0.0563275 0.0778807 0.0757809 0.0693252 0.0845469 0.0604248 0.0675052
11 3 O 0.891854 3.23119 56.4821 -1.2 1 0.0204288 0.0256962 0.011985 0.0294915 0.0274914 0.0207174 0.0273886 0.0596418 0.0466941 0.0515233 0.033583 0.0670769 0.0511056 0.0613067 0.0704231 0.0680653 0.0585841 0.0712047 0.0622595 0.077704
12 3 O 1.10813 6.07342 52.8172 -1.2 1 0.0796913 0.0525669 0.0243078 0.0176277 0.0204807 0.0493116 0.0419455 0.0533068 0.0497448 0.0428438 0.0571682 0.0543087 0.0700445 0.0673917 0.0875273 0.0805189 0.0614163 0.0662472 0.0664733 0.0753078
13 3 O -0.34141 5.40941 55.73 -1.2 1 0.0168339 0.0276431 0.0199013 0.0285129 0.030904 0.0258578 0.0419322 0.0414045 0.0395264 0.0509382 0.0537 0.0463514 0.0555473 0.0703898 0.0688837 0.0840544 0.071511 0.0689032 0.0610324 0.0700675
14 3 O 2.28613 5.54568 55.6458 -1.2 1 0.00954504 0.0281577 0.0239997 0.0190138 0.0279975 0.0221741 0.0480675 0.0481561 0.0418224 0.0478801 0.0539269 0.0438796 0.0575152 0.0696725 0.076268 0.0769641 0.0786163 0.0737412 0.0579165 0.058363
15 1 Mg -0.459401 4.67631 52.2426 1.2 1 0.0866079 0.0681945 0.0364147 0.0446827 0.0313467 0.0284474 0.0415011 0.0643772 0.0415161 0.0810539 0.038271 0.0645995 0.0487861 0.0761459 0.0392654 0.0985177 0.0559559 0.0838436 0.0546326 0.088107
16 1 Mg 2.79456 3.9971 49.9987 1.2 1 0.2265 0.0900786 0.0303311 0.0395455 0.0409488 0.0622772 0.0560944 0.0550016 0.08035 0.0613181 0.0593671 0.0577503 0.0680532 0.07471 0.0891513 0.0809237 0.0691182 0.0867974 0.0816607 0.0711339
17 2 Si 1.16169 6.59457 51.2556 2.4 1 0.151497 0.0792875 0.0396434 0.0289879 0.0450529 0.0478316 0.0450946 0.0418026 0.0586853 0.0658406 0.0615087 0.0723145 0.0683488 0.0617965 0.0838181 0.0848797 0.0821835 0.0882843 0.0709803 0.0621893
18 3 O 1.28989 8.18905 51.2909 -1.2 1 0.160357 0.07286 0.025492 0.0361257 0.03818 0.0445321 0.0359076 0.0673487 0.0482146 0.0668797 0.0441504 0.0843069 0.0666952 0.0653633 0.0727462 0.0638281 0.0650611 0.0690471 0.0717396 0.0777585
19 3 O 1.05452 5.48367 57.8172 -1.2 1 0.013582 0.0136823 0.0157123 0.0206789 0.0159142 0.0344413 0.0298019 0.0521817 0.0554523 0.0355628 0.0496091 0.0451104 0.0513573 0.0645756 0.0966061 0.0759707 0.066702 0.0472465 0.0655052 0.0681368
20 3 O -0.184847 6.06029 50.6845 -1.2 1 0.18489 0.0851113 0.0207543 0.0302515 0.0336383 0.030547 0.0508347 0.059657 0.0559513 0.0600879 0.0631394 0.0748798 0.0653169 0.0612747 0.0882268 0.0664956 0.0776226 0.0785058 0.0630199 0.0775176
21 1 Mg -3.49704 4.67769 52.6661 1.2 1 0.0748135 0.0494796 0.0290585 0.0287211 0.0156788 0.048465 0.0319206 0.0523874 0.0559682 0.0659953 0.0493567 0.0448993 0.049435 0.0448998 0.0580972 0.0926595 0.0856272 0.0749963 0.0677477 0.0764099
22 3 O 2.48581 5.93312 50.6539 -1.2 1 0.196425 0.0849419 0.0375572 0.0222339 0.0342329 0.0470011 0.0578372 0.0568611 0.0458896 0.0637862 0.0469753 0.0678771 0.0586218 0.0624906 0.0974834 0.065401 0.0791164 0.0658152 0.0746766 0.0763964
23 1 Mg -1.99487 4.72068 55.1455 1.2 1 0.0260169 0.0290769 0.0249503 0.029736 0.0224107 0.0218559 0.0228719 0.0378733 0.03201 0.0586992 0.0561504 0.0541953 0.0575998 0.058555 0.0552269 0.0786948 0.0813748 0.0842251 0.0626126 0.0758463
24 2 Si -1.81368 2.67826 53.3703 2.4 1 0.046275 0.031055 0.0270615 0.0248978 0.0361175 0.0291279 0.0465893 0.0469248 0.0701879 0.0584098 0.0594178 0.0602289 0.0835997 0.0432805 0.0670075 0.0639824 0.0825158 0.0785948 0.0786115 0.0563662
25 3 O -1.82411 1.12321 53.1032 -1.2 1 0.0642592 0.0361043 0.0303599 0.0293864 0.0178944 0.0395603 0.0341497 0.0622667 0.0533065 0.0624366 0.0438411 0.062226 0.0636341 0.069966 0.0816625 0.0714674 0.0601016 0.0800288 0.0697596 0.063315
26 3 O -0.0467762 2.97103 46.8385 -1.2 1 0.497706 0.0370096 0.0875698 0.0293949 0.0800306 0.0662414 0.0797581 0.0725263 0.0735627 0.0793573 0.0815581 0.0750674 0.0966835 0.0888133 0.0883068 0.0881739 0.0995222 0.0972028 0.104516 0.110503
27 3 O -3.09493 3.24647 54.0282 -1.2 1 0.0363795 0.0294596 0.0279682 0.0176468 0.0289936 0.0297913 0.0339686 0.0392867 0.0462933 0.052148 0.060119 0.0477475 0.0579217 0.0602153 0.0816253 0.0672718 0.06163 0.0750945 0.0711426 0.0588765
28 3 O -0.541014 3.38552 53.9162 -1.2 1 0.0444551 0.0360028 0.0297948 0.0195422 0.0251947 0.0219781 0.0461415 0.0467348 0.0441776 0.0548059 0.0589351 0.0435768 0.0583549 0.0545104 0.0955977 0.0602252 0.0740779 0.0760053 0.050935 0.0695848
29 1 Mg -3.36551 11.6813 57.2958 1.2 1 0.00970042 0.0126353 0.00856297 0.029881 0.00601578 0.035655 0.015332 0.0570121 0.0200245 0.0804352 0.0226608 0.0550134 0.0261966 0.0595892 0.0315909 0.0951935 0.0437464 0.109932 0.0484018 0.0989958
30 1 Mg -1.75014 11.5838 49.8362 1.2 1 0.230178 0.0841287 0.029336 0.041044 0.0306513 0.0563139 0.0471333 0.0565152 0.0487109 0.05748 0.0646 0.0597052 0.0738564 0.0721157 0.107424 0.0877478 0.0654382 0.0938925 0.0865273 0.0789583
31 2 Si -1.18003 9.02138 47.9309 2.4 1 0.372669 0.0636088 0.0626987 0.0585865 0.0390065 0.059944 0.0732063 0.0762179 0.067251 0.0653566 0.0598081 0.0669577 0.0696316 0.0807951 0.102499 0.0630793 0.0997757 0.0911218 0.102409 0.0867435
32 3 O -1.23224 10.5991 47.9811 -1.2 1 0.379445 0.0591779 0.0554785 0.0565222 0.0503087 0.0699764 0.0667861 0.0777837 0.0596907 0.0862749 0.0705223 0.0659591 0.0719249 0.0779109 0.0822856 0.0685965 0.0867503 0.0774601 0.0643606 0.0726708
33 3 O -1.79016 8.01447 51.8693 -1.2 1 0.117518 0.0630861 0.0291226 0.0246581 0.0313627 0.0410663 0.0583816 0.0604465 0.0568412 0.0512638 0.0519203 0.050818 0.0638894 0.0857329 0.0865806 0.0713302 0.0744993 0.052696 0.0692772 0.065156
34 3 O -2.30986 8.37215 48.8528 -1.2 1 0.321053 0.076694 0.0609718 0.0279187 0.0486926 0.0614791 0.0692403 0.0645999 0.0532009 0.0631605 0.0803697 0.0641958 0.0544719 0.0645918 0.0783113 0.0883559 0.0951089 0.0798555 0.076178 0.0947467
35 1 Mg 0.154883 7.08234 46.8007 1.2 1 0.497238 0.0363481 0.075699 0.0379033 0.0648332 0.0761632 0.0600551 0.0678409 0.0703979 0.0831137 0.0895659 0.0761878 0.0790136 0.0796444 0.0693999 0.0915741 0.0925706 0.109042 0.115124 0.100837
36 3 O 0.325447 8.50934 48.3809 -1.2 1 0.345205 0.0839774 0.0670943 0.0452988 0.0358211 0.0499937 0.0433383 0.0619646 0.0620722 0.0659462 0.0768622 0.066708 0.0800187 0.0938093 0.0907125 0.0700624 0.0923354 0.100013 0.0835556 0.089821
37 1 Mg 1.13312 7.05686 54.5536 1.2 1 0.0122051 0.0405899 0.0130738 0.0337629 0.0219512 0.0302485 0.0267396 0.0347878 0.0387775 0.0502728 0.0615166 0.0588766 0.0585989 0.0659121 0.0651172 0.0890541 0.0739288 0.078739 0.0697486 0.0885321
38 2 Si 1.05596 9.53727 56.4844 2.4 1 0.016365 0.0233342 0.0245741 0.0219998 0.0338187 0.0249892 0.0458163 0.0362828 0.0432672 0.0628444 0.057878 0.0577289 0.0614124 0.055597 0.0807903 0.0628314 0.0723547 0.0718323 0.0608188 0.0633291
39 3 O 0.980646 8.01654 56.5429 -1.2 1 0.0248572 0.0244464 0.0190492 0.0264407 0.0273566 0.0289782 0.0319873 0.0681288 0.0413555 0.0441749 0.0418988 0.0668568 0.0544594 0.0712451 0.0703426 0.0682597 0.0611214 0.0661768 0.0464059 0.0854487
40 3 O 1.28624 10.7248 52.7351 -1.2 1 0.0809406 0.0411124 0.0312323 0.0206145 0.0303378 0.0413123 0.0468179 0.0524341 0.0436479 0.0475692 0.0468798 0.0477014 0.052273 0.0695831 0.100177 0.0817448 0.0640097 0.0575291 0.0714844 0.0646236
41 3 O -0.0274049 10.1802 55.6081 -1.2 1 0.0198491 0.018507 0.019936 0.015671 0.0199496 0.0248516 0.0413725 0.0432732 0.0413272 0.0600548 0.0549064 0.0387854 0.0616002 0.061227 0.0702129 0.0801947 0.0702742 0.0640868 0.0603944 0.0722458
42 3 O 2.51869 10.3024 55.702 -1.2 1 0.0179229 0.0257946 0.0173794 0.0219783 0.0247268 0.0248754 0.0537895 0.0391232 0.0442263 0.0471535 0.0550868 0.041002 0.0641653 0.0679628 0.0744395 0.0795375 0.0706565 0.0706252 0.0701519 0.0632218
43 1 Mg -0.262694 9.34741 52.2523 1.2 1 0.111556 0.0697261 0.0143081 0.0440888 0.0281076 0.0442589 0.0433813 0.0626359 0.027955 0.0809946 0.0297793 0.0560544 0.0426774 0.0733247 0.0386691 0.104517 0.0566157 0.0994402 0.0490025 0.101388
44 1 Mg 1.87648 9.01537 49.4629 1.2 1 0.274343 0.0928557 0.0378743 0.0330603 0.0335363 0.0472569 0.0656309 0.0491745 0.0757496 0.0636861 0.0844599 0.0538459 0.0833484 0.0655918 0.0837797 0.0948879 0.0879457 0.0962709 0.085983 0.0886538
45 2 Si 1.21415 11.3799 51.2378 2.4 1 0.142828 0.0802416 0.0381406 0.0371489 0.0446447 0.048024 0.058914 0.0396031 0.0532689 0.0665096 0.07392 0.0691491 0.0725828 0.0638304 0.0932192 0.0882529 0.0812563 0.0799251 0.0761514 0.0638101
46 3 O 1.31634 12.9512 51.3023 -1.2 1 0.147636 0.073265 0.0260616 0.0317269 0.0320559 0.0416465 0.0433924 0.0681507 0.0549615 0.0669458 0.044881 0.0781344 0.0621519 0.0617599 0.0776058 0.0654951 0.0778864 0.0699214 0.0731315 0.0736508
47 3 O 1.10094 10.2958 57.9029 -1.2 1 0.0138487 0.0112303 0.0182278 0.0250719 0.0245111 0.0462548 0.0340862 0.0444015 0.0490232 0.0440614 0.0437553 0.0423728 0.0455628 0.0665752 0.101409 0.0731482 0.0659205 0.0466012 0.0666781 0.0754451
48 3 O -0.115718 10.7564 50.681 -1.2 1 0.186572 0.0845027 0.0211326 0.0212826 0.0433467 0.0347395 0.0490269 0.0709896 0.0493378 0.0528355 0.0578935 0.0521763 0.063351 0.0774095 0.0898322 0.0796459 0.0712739 0.0766964 0.081378 0.0816101
49 1 Mg -3.26386 9.35564 52.3622 1.2 1 0.0778742 0.0581558 0.0291119 0.028029 0.0158489 0.0555518 0.0416115 0.052716 0.0362314 0.0855023 0.0309281 0.0481193 0.0360412 0.0632419 0.0351672 0.111865 0.0495925 0.103745 0.0492672 0.0964362
50 3 O 2.45216 10.7265 50.4558 -1.2 1 0.201839 0.0904096 0.0194066 0.0134287 0.0426087 0.054313 0.0539146 0.0467823 0.0548102 0.0711193 0.060718 0.0778879 0.0546034 0.0633647 0.0927052 0.0769755 0.0713897 0.0731282 0.0640272 0.0871164
51 1 Mg -1.62062 9.38395 55.0994 1.2 1 0.0128211 0.0286023 0.0172727 0.0252759 0.0173468 0.0259518 0.0210967 0.0328466 0.0429472 0.0606914 0.0528089 0.0480724 0.0678179 0.0717534 0.0618945 0.071854 0.0758801 0.0995449 0.0774182 0.0735671
52 2 Si -1.90411 7.36729 53.287 2.4 1 0.0441444 0.050546 0.0265531 0.0292013 0.0324649 0.0318414 0.0462834 0.0528411 0.0611046 0.0593758 0.0564182 0.0606357 0.0761624 0.0526316 0.0644082 0.0655505 0.0687479 0.0928933 0.0585895 0.0523008
53 3 O -1.84007 5.81581 53.1632 -1.2 1 0.074299 0.0415778 0.0191141 0.0175331 0.0203335 0.0339193 0.0352473 0.0643722 0.0516729 0.0640966 0.0414369 0.0802596 0.0492075 0.0732637 0.0702356 0.0650093 0.0574721 0.0645855 0.0680491 0.0739147
54 3 O -1.19417 8.46968 46.4488 -1.2 1 0.524928 0.0664688 0.0674164 0.0511994 0.0664752 0.0573304 0.0792912 0.0544061 0.0750555 0.0705436 0.0567107 0.0508636 0.0691971 0.0973158 0.129611 0.11341 0.0978308 0.0955129 0.082787 0.0821616
55 3 O -3.19444 7.9791 53.9657 -1.2 1 0.0337625 0.0330797 0.0171041 0.0220896 0.0247394 0.0299661 0.0458843 0.042808 0.0505875 0.0511533 0.05101 0.0478363 0.0565157 0.0627518 0.0825487 0.0630719 0.0690296 0.0654284 0.0696898 0.0792488
56 3 O -0.56946 8.07082 53.9651 -1.2 1 0.0393589 0.0437511 0.0260303 0.0230221 0.0294397 0.0275119 0.0365225 0.050107 0.0459063 0.0491949 0.0516815 0.0506457 0.066012 0.0534323 0.0913617 0.0594518 0.0809058 0.0697931 0.0712931 0.0794756
57 1 Mg -2.99088 16.5629 57.1276 1.2 1 0.0161359 0.0124011 0.0112405 0.0260318 0.0110369 0.0312437 0.023779 0.0542246 0.0343837 0.0694058 0.0238343 0.0544011 0.0229921 0.0585449 0.0376078 0.088417 0.0557503 0.108459 0.0473006 0.0852876
58 1 Mg -1.6714 16.3544 49.8412 1.2 1 0.239713 0.0744391 0.0234679 0.036844 0.0309793 0.047449 0.0536956 0.0526432 0.0473147 0.0546243 0.0620314 0.0659789 0.0696461 0.0699824 0.101011 0.0813482 0.0764251 0.0970577 0.0850071 0.0837125
59 2 Si -1.18567 13.8526 47.9314 2.4 1 0.374466 0.0675439 0.0765009 0.0608783 0.0320543 0.0684289 0.0475746 0.0804516 0.061658 0.0652374 0.0536145 0.0727167 0.060083 0.0771285 0.0989925 0.0765856 0.103967 0.0965378 0.0891715 0.0915609
60 3 O -1.09664 15.4205 47.9915 -1.2 1 0.370089 0.0656637 0.0455582 0.0629753 0.0468728 0.0907685 0.0631779 0.0830859 0.0553818 0.0880299 0.0537326 0.0734179 0.0628037 0.0797019 0.0789037 0.075931 0.0930134 0.0734651 0.0764524 0.0726702
61 3 O -1.73493 12.7491 51.7772 -1.2 1 0.118258 0.058785 0.0264811 0.0278144 0.0337784 0.0468556 0.0641316 0.0481748 0.0679607 0.0528375 0.0571219 0.0447207 0.0573303 0.0859274 0.100601 0.0767429 0.0809992 0.0521174 0.0728117 0.0669556
62 3 O -2.36115 13.2717 48.8238 -1.2 1 0.311142 0.0857285 0.0536073 0.0299882 0.0532609 0.050777 0.056646 0.0679778 0.0610412 0.0685701 0.0720049 0.0610198 0.0580275 0.0582385 0.0853902 0.0861339 0.0864721 0.0765057 0.0809247 0.0891899
63 1 Mg -0.159928 11.7639 46.8533 1.2 1 0.480606 0.0188398 0.0845445 0.0285758 0.0440233 0.0952687 0.0654074 0.0872244 0.0880568 0.0854829 0.0805634 0.0685156 0.0766274 0.0959465 0.0785993 0.084403 0.0969584 0.0994363 0.102843 0.110389
64 3 O 0.2623 13.1866 48.413 -1.2 1 0.339284 0.0825951 0.0571122 0.0413357 0.0464342 0.0564536 0.0413546 0.0660605 0.0686961 0.0699694 0.0605103 0.0621023 0.067962 0.0900759 0.0983848 0.0799849 0.092501 0.0979112 0.0808762 0.0851663
65 1 Mg 1.28794 11.6547 54.7338 1.2 1 0.0134798 0.040556 0.010096 0.0335327 0.0128729 0.021755 0.0184358 0.029499 0.0457463 0.0540309 0.0549374 0.0540997 0.0537548 0.0648148 0.0615719 0.0915119 0.0693879 0.0983683 0.0601624 0.0922136
66 2 Si 1.43022 14.4906 56.3957 2.4 1 0.0246024 0.0183342 0.0314389 0.0321816 0.0257498 0.0255552 0.0363573 0.0409693 0.0544734 0.0557041 0.0468596 0.0567396 0.0614721 0.0545278 0.0812245 0.0729251 0.0704333 0.0865111 0.0528481 0.056158
67 3 O 1.37347 12.8984 56.41 -1.2 1 0.0187242 0.00902132 0.0258133 0.0233744 0.0263117 0.0227306 0.0248195 0.0729482 0.0395222 0.0455388 0.0427532 0.0625359 0.0589489 0.058664 0.0757114 0.0751958 0.0531625 0.0744184 0.0596224 0.0719389
68 3 O 1.36565 15.4813 52.729 -1.2 1 0.0723673 0.0485583 0.0227279 0.021894 0.0191567 0.0428123 0.0468118 0.0549926 0.0561885 0.0470994 0.0411639 0.0503524 0.0587384 0.0658175 0.100446 0.071483 0.0662955 0.0583472 0.0630014 0.0721208
69 3 O 0.174577 15.1285 55.8343 -1.2 1 0.0107319 0.0118995 0.0368194 0.0215818 0.0210131 0.0163228 0.0403872 0.0421883 0.0414171 0.0476597 0.0426631 0.050662 0.0461488 0.0653273 0.0884572 0.0682135 0.0872483 0.0516318 0.0741266 0.0608972
70 3 O 2.79264 15.2341 55.6773 -1.2 1 0.011277 0.0201662 0.0247514 0.0186606 0.0199802 0.0224393 0.0424327 0.0413367 0.0377067 0.0432858 0.0482023 0.0391187 0.058961 0.0483142 0.0791501 0.0707313 0.0683986 0.0645724 0.0639514 0.0765688
71 1 Mg -0.206989 14.1049 52.2121 1.2 1 0.101604 0.0701646 0.0235496 0.0457543 0.0282096 0.0402893 0.0408406 0.0690568 0.0311506 0.0818821 0.0248434 0.0548004 0.0357256 0.0762169 0.0331232 0.109464 0.0491731 0.100357 0.046485 0.0953367
72 1 Mg 1.82591 13.8102 49.4556 1.2 1 0.270261 0.100093 0.0391736 0.0361546 0.035656 0.0342338 0.0660818 0.047457 0.0718359 0.073284 0.0775513 0.0564477 0.0669752 0.0643558 0.0852287 0.0925157 0.0802454 0.101083 0.0924018 0.0832458
73 2 Si 1.29285 16.1518 51.2434 2.4 1 0.1443 0.0789841 0.0285011 0.0344495 0.0397633 0.045609 0.0539208 0.0433406 0.0513134 0.0687683 0.068324 0.0601448 0.0643767 0.0677336 0.0929304 0.0863662 0.076325 0.0836984 0.0705453 0.0612989
74 3 O 1.39496 17.7199 51.3047 -1.2 1 0.152256 0.0722481 0.0224308 0.0317912 0.0375168 0.0389038 0.037242 0.0650303 0.0526762 0.0631722 0.0459929 0.0776976 0.0577123 0.0650468 0.0730989 0.0651743 0.0772549 0.0737747 0.0651668 0.0713154
75 3 O 1.58527 15.1391 57.8836 -1.2 1 0.00884058 0.0169639 0.0131226 0.023326 0.0237713 0.035456 0.0344419 0.0451061 0.0552648 0.0469972 0.0426159 0.041374 0.0606005 0.0687186 0.0930707 0.0744353 0.0545812 0.0639372 0.071453 0.067715
76 3 O -0.0269106 15.5178 50.6688 -1.2 1 0.181594 0.0828016 0.0229132 0.0232406 0.0452987 0.0420624 0.0555633 0.068194 0.0545353 0.0550294 0.0591453 0.0500012 0.0658482 0.075993 0.0868911 0.0817128 0.0756386 0.0775123 0.0731994 0.0923506
77 1 Mg -3.18391 14.1057 52.3125 1.2 1 0.0723128 0.0601008 0.0292915 0.0360056 0.0160104 0.0537235 0.0392467 0.0581656 0.0374383 0.0855296 0.0335585 0.0490788 0.0221202 0.0709695 0.0337401 0.109526 0.0471672 0.100122 0.0495581 0.0854201
78 3 O 2.52432 15.503 50.4579 -1.2 1 0.200478 0.0917104 0.0203441 0.0179276 0.0360555 0.059123 0.0563319 0.0485815 0.0521142 0.0673676 0.0612036 0.0727856 0.0564688 0.0624421 0.0958996 0.0773202 0.0787096 0.0712944 0.0597889 0.082821
79 1 Mg -1.39541 14.2216 55.0967 1.2 1 0.0241583 0.0208864 0.0181908 0.0271619 0.0101237 0.0215564 0.0242943 0.0401923 0.0369302 0.0593124 0.0582583 0.0535448 0.0616419 0.0659468 0.0596513 0.0687033 0.0861889 0.0905801 0.0740437 0.0624433
80 2 Si -1.67215 12.0935 53.3062 2.4 1 0.0431862 0.0467525 0.0199254 0.0306239 0.036948 0.0326433 0.0474485 0.0593093 0.0636101 0.0592877 0.0592979 0.0712122 0.0782907 0.054015 0.0694445 0.0717344 0.0667277 0.0897071 0.0647274 0.0554146
81 3 O -1.79069 10.5182 53.3433 -1.2 1 0.0556102 0.0447079 0.0182489 0.0210916 0.0331625 0.0319596 0.0302873 0.0673982 0.03982 0.0633257 0.040958 0.0627845 0.0649917 0.0789606 0.0600878 0.0621292 0.066111 0.0537463 0.0701259 0.0662628
82 3 O -1.21337 13.3381 46.4311 -1.2 1 0.520216 0.0679394 0.0694238 0.0408143 0.056323 0.0577267 0.0577863 0.0704679 0.0797837 0.0657291 0.0456095 0.0710129 0.0681793 0.0881778 0.120906 0.114714 0.106638 0.0999273 0.0599548 0.0916995
83 3 O -2.93065 12.7574 53.8603 -1.2 1 0.0347223 0.0276087 0.0313882 0.0268102 0.0244007 0.0305378 0.0505295 0.0531667 0.043616 0.0537182 0.0461747 0.0474622 0.0576799 0.0637536 0.0769316 0.0646489 0.0695183 0.0624847 0.0664638 0.0667239
84 3 O -0.342518 12.8073 53.8814 -1.2 1 0.0403124 0.0271212 0.0259624 0.0193986 0.0306624 0.0178086 0.0411227 0.0487105 0.0508039 0.0529763 0.0575101 0.0443849 0.0616133 0.0635524 0.0947124 0.0650599 0.0804845 0.0618129 0.0700057 0.0736324
85 1 Mg -3.10139 21.3182 57.3114 1.2 1 0.00863692 0.0197596 0.0114205 0.0355118 0.0111444 0.032033 0.0133912 0.0542623 0.0167313 0.0790634 0.0204815 0.0590194 0.0173759 0.0634178 0.0224291 0.105609 0.0197745 0.113395 0.0316422 0.0931415
86 1 Mg -1.5831 21.1217 49.8405 1.2 1 0.235326 0.0790935 0.0241471 0.0354913 0.0361101 0.0440532 0.0550203 0.0521722 0.0505094 0.0555175 0.0575333 0.0697359 0.0737942 0.0698231 0.0987809 0.0772643 0.0757737 0.0949939 0.0837217 0.0856416
87 2 Si -1.09384 18.6291 47.9287 2.4 1 0.381563 0.0595594 0.0687334 0.0682969 0.0286775 0.065151 0.0460228 0.0771077 0.0629472 0.0701037 0.0581976 0.0767264 0.0594476 0.0712058 0.0987567 0.077173 0.102684 0.0921919 0.0908707 0.0890091
88 3 O -1.02071 20.1985 47.9911 -1.2 1 0.371018 0.0659898 0.0519666 0.0606603 0.0424478 0.0907105 0.0634198 0.0829596 0.0540523 0.0880131 0.0522856 0.0686207 0.0597563 0.0822754 0.0757889 0.0733082 0.0961266 0.07931 0.0766704 0.0702698
89 3 O -1.65002 17.5002 51.771 -1.2 1 0.112838 0.0615317 0.0289852 0.0280275 0.0315227 0.0521079 0.0583954 0.0511669 0.0690337 0.0546734 0.0527476 0.0487276 0.0535791 0.0791841 0.104059 0.0747551 0.0746536 0.0475801 0.0760151 0.0692948
90 3 O -2.26174 18.0434 48.8281 -1.2 1 0.312236 0.0847188 0.0546897 0.032188 0.0577455 0.0454476 0.0531207 0.0742689 0.0619372 0.0674926 0.0707186 0.0590735 0.0545712 0.0591345 0.0761813 0.0821581 0.0837684 0.0821679 0.0860814 0.0892723
91 1 Mg -0.0440435 16.5651 46.8269 1.2 1 0.48495 0.0202403 0.0764156 0.032524 0.0618354 0.0811444 0.0734908 0.0841458 0.0716634 0.0869941 0.0879438 0.0628349 0.0620953 0.0796776 0.078491 0.0915943 0.0913148 0.0960879 0.100923 0.108783
92 3 O 0.37001 17.9877 48.3925 -1.2 1 0.345307 0.0782411 0.0559647 0.0412028 0.0465601 0.0618016 0.0421412 0.0676785 0.0670004 0.0706406 0.0600427 0.0576231 0.062294 0.0878449 0.0980661 0.077369 0.0923032 0.0985648 0.0823868 0.088081
93 1 Mg 1.41508 16.6043 54.5537 1.2 1 0.00689071 0.0274411 0.0176871 0.0270936 0.0137441 0.0171202 0.0228914 0.0384845 0.0485618 0.0623415 0.0643535 0.0463564 0.0601913 0.0659573 0.0614677 0.0803981 0.0700361 0.0912826 0.0766389 0.0825626
94 2 Si 1.26067 19.1724 56.2739 2.4 1 0.0304511 0.014695 0.0249469 0.0231642 0.0266754 0.0301674 0.0418383 0.0370708 0.0491845 0.063795 0.0577282 0.0575561 0.0575789 0.0553574 0.0868601 0.0760507 0.0646301 0.0798993 0.0611402 0.0618443
95 3 O 1.22858 17.6197 56.3996 -1.2 1 0.0146155 0.0163943 0.0118494 0.0227331 0.0188543 0.0244692 0.0272248 0.0692515 0.0362857 0.05408 0.0386036 0.0714341 0.0518779 0.0608622 0.0720963 0.0617878 0.0654966 0.0669315 0.0565197 0.069906
96 3 O 1.45147 20.239 52.7294 -1.2 1 0.0766581 0.0433964 0.0296786 0.0245551 0.0234369 0.0410123 0.0448376 0.0626307 0.0559282 0.0441249 0.0420927 0.0512366 0.0563699 0.0610109 0.10072 0.0612281 0.0658529 0.0621697 0.0677164 0.0615414
97 3 O 0.0600206 19.8514 55.6406 -1.2 1 0.0173249 0.0250985 0.0183649 0.0147153 0.017852 0.0266767 0.0361699 0.0421518 0.0374125 0.0524179 0.0471313 0.0414687 0.0546176 0.051969 0.0852391 0.0669939 0.0815571 0.0681659 0.0570336 0.0729338
98 3 O 2.49695 19.8239 55.6182 -1.2 1 0.0150088 0.0239918 0.0221842 0.0180231 0.0294253 0.0190604 0.0472395 0.0452507 0.0412691 0.0438294 0.0510832 0.0418128 0.0532747 0.0693785 0.0831348 0.0773273 0.0730207 0.0668436 0.065084 0.0675899
99 1 Mg -0.126194 18.8651 52.2079 1.2 1 0.102688 0.0710964 0.0206969 0.044742 0.0296177 0.0375142 0.0406541 0.0681134 0.0303825 0.0849863 0.0263851 0.0578285 0.0309031 0.0708926 0.0384487 0.10599 0.0466358 0.106037 0.0470887 0.0949067
100 1 Mg 1.92402 18.5815 49.4545 1.2 1 0.266306 0.1036 0.0377642 0.0389779 0.033782 0.0329876 0.0667179 0.046333 0.0681486 0.0735843 0.0805472 0.0609853 0.0724395 0.0634138 0.086116 0.0962464 0.0818938 0.100684 0.084421 0.0804022
101 2 Si 1.38106 20.9117 51.2443 2.4 1 0.142175 0.0802124 0.0332287 0.0348128 0.0406083 0.0460442 0.0547064 0.0407424 0.0539199 0.0703763 0.0655869 0.0638936 0.0647157 0.0645539 0.0911102 0.0857049 0.0751797 0.0762118 0.0725248 0.0657661
102 3 O 1.48527 22.4795 51.3054 -1.2 1 0.152386 0.0735327 0.0189599 0.031568 0.0306318 0.042207 0.0369969 0.0640263 0.0481746 0.0622862 0.0456147 0.075913 0.0619815 0.067577 0.0770445 0.0677783 0.076079 0.0762188 0.0705877 0.0706641
103 3 O 1.18304 20.0676 57.7333 -1.2 1 0.00460547 0.0132996 0.0225713 0.0183927 0.01764 0.0294944 0.0433282 0.0527373 0.0455329 0.0472536 0.0396165 0.0538939 0.0506693 0.0623256 0.0980902 0.0695062 0.0652194 0.0597208 0.0652576 0.0575599
104 3 O 0.0615419 20.2804 50.6669 -1.2 1 0.188974 0.0876756 0.025144 0.0283515 0.0446543 0.0348016 0.055604 0.0622242 0.0593944 0.0594926 0.0598216 0.0456807 0.0590566 0.0714263 0.0880443 0.0853713 0.0747141 0.075687 0.0741501 0.0848817
105 1 Mg -3.09665 18.8643 52.3122 1.2 1 0.0736237 0.0632064 0.0239961 0.0305437 0.0216154 0.0515752 0.0380853 0.0592211 0.0350667 0.0800678 0.0317989 0.0508396 0.0275503 0.078477 0.0361375 0.109026 0.0521624 0.0984144 0.0429147 0.0868374
106 3 O 2.61548 20.2646 50.4626 -1.2 1 0.205226 0.0838861 0.0264481 0.0227868 0.0329851 0.0540027 0.0559508 0.0462876 0.0554797 0.0654236 0.0632889 0.0646115 0.0534823 0.0647483 0.0946137 0.0751912 0.079298 0.0734492 0.069086 0.0845907
107 1 Mg -1.48162 18.8086 55.0173 1.2 1 0.011238 0.0176605 0.0173436 0.0319692 0.0229433 0.0288471 0.0272867 0.0310161 0.0461735 0.0600454 0.0460937 0.0504855 0.065476 0.0689567 0.053497 0.0747378 0.069509 0.108705 0.0727064 0.0806784
108 2 Si -1.54798 16.7498 53.2205 2.4 1 0.0509006 0.0437325 0.0211121 0.0309712 0.0320147 0.0324389 0.0464825 0.0598177 0.0577014 0.0715292 0.0546758 0.0645512 0.0694202 0.0544008 0.0756691 0.0697598 0.0684864 0.0837769 0.0615729 0.0638471
109 3 O -1.66978 15.2692 53.1697 -1.2 1 0.0661202 0.0446985 0.0191671 0.0197027 0.0304704 0.0293078 0.0330999 0.0676565 0.0478177 0.0551421 0.0420798 0.0687017 0.0635522 0.0782025 0.0683767 0.0681962 0.0534218 0.0673791 0.0723314 0.0730924
110 3 O -1.12868 18.1227 46.4249 -1.2 1 0.522057 0.0660987 0.0719747 0.0517774 0.057679 0.0647066 0.0606715 0.0793642 0.079926 0.0625286 0.0451337 0.067404 0.066933 0.087766 0.116952 0.114868 0.106648 0.10048 0.0630679 0.0935698
111 3 O -2.75082 17.6709 53.9897 -1.2 1 0.0343075 0.0210156 0.0318349 0.0245871 0.0230444 0.0242327 0.0570971 0.0456714 0.0361028 0.0487473 0.0488752 0.0409253 0.0528916 0.0524441 0.0872933 0.0604428 0.065199 0.0733483 0.0624068 0.061074
112 3 O -0.159586 17.4362 53.5758 -1.2 1 0.0550703 0.0381353 0.0253967 0.0277855 0.0191543 0.0204165 0.0439975 0.0444736 0.0631916 0.0578442 0.0478628 0.0449573 0.0612369 0.0520637 0.079317 0.0739338 0.0794712 0.0678171 0.0683003 0.0692817
113 1 Mg -2.96598 26.062 57.322 1.2 1 0.0172771 0.0202327 0.0160067 0.0299076 0.0105881 0.0385788 0.0172825 0.0596513 0.018112 0.0732556 0.022872 0.0499095 0.0228905 0.0739917 0.0281654 0.107813 0.0264592 0.104437 0.0356888 0.0830946
114 1 Mg -1.48778 25.88 49.8402 1.2 1 0.235819 0.0771972 0.0234147 0.0354924 0.0338945 0.0454043 0.0526252 0.0549302 0.0503592 0.0569195 0.0587455 0.0641902 0.0726352 0.0704319 0.0988303 0.0791163 0.0723784 0.0951789 0.0860097 0.0830312
115 2 Si -1.00491 23.3922 47.9274 2.4 1 0.375653 0.0625295 0.0660393 0.0712544 0.0315016 0.0734845 0.0430964 0.0853448 0.067807 0.0733584 0.0525706 0.0738853 0.05743 0.0738976 0.0947688 0.0773423 0.103261 0.097261 0.092262 0.0936766
116 3 O -0.927602 24.9615 47.9909 -1.2 1 0.369478 0.0656866 0.0439082 0.066106 0.0392807 0.0891426 0.0661915 0.0832431 0.051357 0.0850698 0.0529143 0.0750106 0.0584954 0.079122 0.0750904 0.0681878 0.0960113 0.083268 0.0757359 0.0726183
117 3 O -1.55795 22.2588 51.7696 -1.2 1 0.111803 0.061044 0.0261013 0.0315129 0.0308432 0.0509351 0.0577884 0.0485094 0.0686103 0.0552107 0.0534496 0.0499064 0.0580341 0.0818688 0.0993014 0.0763433 0.0750096 0.0456392 0.0703814 0.0659058
118 3 O -2.17411 22.8111 48.8277 -1.2 1 0.315153 0.079214 0.0513893 0.0387009 0.0553356 0.0493237 0.0558217 0.0720944 0.061445 0.062363 0.0662609 0.0594661 0.0493532 0.0572236 0.0817837 0.0848511 0.0845463 0.0859328 0.0896103 0.0880629
119 1 Mg 0.0423997 21.3296 46.8225 1.2 1 0.481285 0.0191203 0.081249 0.0322317 0.0600896 0.0777476 0.0738654 0.0902032 0.0727578 0.0837235 0.0878313 0.0644682 0.0643715 0.0819045 0.079458 0.0943034 0.09587 0.0969749 0.100168 0.108995
120 3 O 0.458537 22.7495 48.3911 -1.2 1 0.357805 0.0601335 0.0432234 0.0466371 0.0424031 0.0561545 0.0441818 0.0636102 0.0630425 0.0710366 0.0576543 0.0546813 0.0598862 0.080883 0.0903393 0.0766598 0.0979374 0.104167 0.0816861 0.0842073
121 1 Mg 1.65559 21.4014 54.4933 1.2 1 0.0140324 0.0328328 0.0162954 0.0295175 0.0175595 0.0180976 0.0190784 0.0360531 0.0449786 0.0590828 0.0601209 0.0470066 0.0647224 0.0601658 0.0621616 0.0808776 0.0679924 0.0831734 0.0784838 0.0686541
122 2 Si 1.39797 24.0362 56.1951 2.4 1 0.0298187 0.0276832 0.0254589 0.0183927 0.025555 0.0297055 0.0391732 0.0538019 0.0530443 0.0536512 0.0525321 0.0636477 0.0596216 0.0571302 0.0682274 0.0796483 0.0592029 0.100358 0.0542225 0.0567506
123 3 O 1.25145 22.4883 56.2397 -1.2 1 0.0251655 0.018928 0.0218596 0.0117681 0.0216502 0.0252723 0.0249953 0.0666971 0.0327436 0.051856 0.0444741 0.0673547 0.0589789 0.067948 0.0674999 0.0665074 0.0630411 0.0635559 0.0670468 0.0539811
124 3 O 1.54441 24.9963 52.7297 -1.2 1 0.0801217 0.0435361 0.0260606 0.0232359 0.0228194 0.0411983 0.0443724 0.0550806 0.0538602 0.0487345 0.0467227 0.0466983 0.062237 0.066874 0.0986244 0.0703703 0.0677409 0.0683802 0.0690958 0.0603506
125 3 O 0.161027 24.6308 55.6032 -1.2 1 0.0182743 0.014859 0.0177966 0.0123983 0.0179898 0.0190866 0.040382 0.0400461 0.0396618 0.0535335 0.0492449 0.0416002 0.0558324 0.0591426 0.0872113 0.0692388 0.0777968 0.0660125 0.0585466 0.0658835
126 3 O 2.62383 24.7507 55.5764 -1.2 1 0.0112311 0.0152083 0.0290043 0.0156694 0.0191452 0.0232738 0.0512749 0.0418451 0.0450043 0.0426554 0.0512399 0.0410842 0.0539554 0.0596593 0.0858415 0.0679644 0.0614394 0.0652955 0.0691352 0.0717331