ITEM: TIMESTEP
59100
ITEM: NUMBER OF ATOMS
10500
ITEM: BOX BOUNDS xy xz yz pp pp pp
0	8.9688	2.9896
0	118.725	0
0	252.977	0
ITEM: ATOMS id type element xu yu zu q Q_1 Q_2 Q_3 Q_4 Q_5 Q_6 Q_7 Q_8 Q_9 Q_10 Q_11 Q_12 Q_13 Q_14 Q_15 Q_16 Q_17 Q_18 Q_19 Q_20 Q_21
1 1 Mg -3.59083 6.92381 57.9716 1.2 1 0.0163887 0.0181582 0.0180528 0.022522 0.0268813 0.0291435 0.0320166 0.0359909 0.0578095 0.0617592 0.0416561 0.046781 0.0382864 0.0505716 0.0719674 0.0771401 0.094069 0.0833747 0.0747386 0.062917
2 1 Mg -1.82655 6.90154 50.0912 1.2 1 0.218341 0.0907111 0.0296655 0.0307122 0.0297708 0.0536532 0.0486239 0.0471405 0.0555377 0.0700075 0.0601995 0.0740344 0.0643003 0.0572712 0.0956453 0.0608709 0.0870648 0.0973986 0.0731898 0.0827063
3 2 Si -0.257935 3.96038 48.0876 2.4 1 0.375431 0.0686354 0.0743334 0.0346132 0.0616287 0.0556819 0.0733846 0.0744902 0.0549984 0.0781628 0.0573924 0.0656865 0.0601427 0.0816667 0.0928046 0.0986555 0.110305 0.092234 0.0683966 0.0683198
4 3 O -0.335812 5.46814 47.6264 -1.2 1 0.427225 0.0377428 0.0642888 0.0315108 0.0410725 0.0491888 0.0650011 0.0695179 0.0868222 0.0772159 0.0945046 0.0771759 0.0702582 0.0670385 0.0905302 0.125474 0.0950663 0.0794622 0.0757474 0.0776681
5 3 O -2.03793 3.43377 51.8941 -1.2 1 0.114159 0.0599275 0.0306148 0.0254292 0.019274 0.0499112 0.0599763 0.0511165 0.0490165 0.0596284 0.0587893 0.0551237 0.0502942 0.0736139 0.0876497 0.0852363 0.061777 0.0584702 0.0750134 0.0711291
6 3 O -1.54015 3.53929 48.9521 -1.2 1 0.303959 0.0875384 0.0336628 0.0464686 0.0342238 0.0450618 0.068455 0.052696 0.0540691 0.0591961 0.076938 0.0688231 0.0725383 0.0698976 0.0712407 0.107287 0.0810998 0.0818795 0.0799694 0.0884619
7 1 Mg 1.82954 2.54582 47.1376 1.2 1 0.465878 0.0219628 0.0810061 0.0503414 0.0356533 0.0826433 0.0593662 0.0585124 0.0760954 0.0882109 0.0674897 0.0761627 0.0817418 0.0846514 0.0702527 0.0966828 0.101122 0.103604 0.104801 0.0967856
8 3 O 1.22989 3.66364 48.7877 -1.2 1 0.324001 0.0689837 0.0228343 0.0416791 0.0334175 0.064775 0.0769653 0.0310247 0.0837252 0.0771524 0.0471485 0.0771009 0.086291 0.0705432 0.0645294 0.0862176 0.0938218 0.0911721 0.0934398 0.0909782
9 1 Mg 1.21986 2.47385 54.4251 1.2 1 0.0104523 0.0318916 0.0197034 0.0329183 0.0249856 0.0348723 0.0203122 0.0375908 0.0395202 0.0585414 0.0557768 0.0578638 0.0620864 0.0611975 0.0776372 0.0644876 0.0721427 0.0668316 0.0836371 0.0525527
10 2 Si 1.08076 4.96682 56.3758 2.4 1 0.0238958 0.0100343 0.0255589 0.0278596 0.0324535 0.0225178 0.0416706 0.0455249 0.0476122 0.0574329 0.0528635 0.0619151 0.0660952 0.0518203 0.0835697 0.0750652 0.0679739 0.101274 0.0572321 0.0675669
11 3 O 1.14089 3.32688 56.3367 -1.2 1 0.0255947 0.0176976 0.0083809 0.0268561 0.0259753 0.0230957 0.0227196 0.065729 0.0354832 0.0583048 0.0325181 0.0598578 0.0609532 0.0563461 0.072951 0.0681266 0.0648581 0.0601397 0.069867 0.0731809
12 3 O 1.10813 6.07342 52.8172 -1.2 1 0.083055 0.0481033 0.0214855 0.0222282 0.0197688 0.0516824 0.041878 0.0530688 0.048792 0.0419734 0.0530172 0.0524508 0.0695197 0.0639841 0.0834246 0.08389 0.0564878 0.0724571 0.0654586 0.0707743
13 3 O -0.277815 5.57967 55.8732 -1.2 1 0.00916398 0.00968597 0.0278595 0.0249553 0.0246855 0.0267335 0.0352492 0.042062 0.0365156 0.0490452 0.0541811 0.0411619 0.0534533 0.0596032 0.0711375 0.0775173 0.0816521 0.0669774 0.0627134 0.0634316
14 3 O 2.22742 5.72464 55.6471 -1.2 1 0.0229807 0.0232265 0.0271403 0.0189853 0.0249278 0.0255511 0.0391581 0.042456 0.0362747 0.0522267 0.0530507 0.0417144 0.0531717 0.0561875 0.0896612 0.0732054 0.0740465 0.0720676 0.0569923 0.0555026
15 1 Mg -0.459401 4.67631 52.2426 1.2 1 0.0877061 0.0652313 0.036699 0.0378997 0.0355935 0.0331296 0.0400201 0.0620615 0.0411985 0.0814985 0.0382802 0.0622489 0.046496 0.0764035 0.0420185 0.100911 0.0497691 0.0863016 0.054365 0.0877794
16 1 Mg 2.79456 3.9971 49.9987 1.2 1 0.220805 0.0990827 0.0301607 0.0420648 0.0433798 0.0643829 0.0534445 0.0551173 0.0758411 0.0612341 0.0622715 0.0567873 0.0648752 0.0763734 0.0880526 0.0762007 0.0738464 0.0881105 0.07785 0.0712779
17 2 Si 1.16169 6.59457 51.2556 2.4 1 0.140106 0.0878925 0.0378199 0.0311196 0.0400128 0.0521825 0.0471778 0.0450005 0.0591428 0.0669244 0.0646801 0.069142 0.074337 0.0714844 0.0855091 0.0865852 0.083677 0.0948306 0.0730547 0.0625582
18 3 O 1.28989 8.18905 51.2909 -1.2 1 0.129577 0.0958926 0.0252082 0.0338304 0.043537 0.0441175 0.0416969 0.0735429 0.0526199 0.0735397 0.0447409 0.0950435 0.0683874 0.0671541 0.0820401 0.0690561 0.0694109 0.0689363 0.0679359 0.0638346
19 3 O 1.17968 5.36469 57.9688 -1.2 1 0.00755219 0.0150266 0.0149559 0.0174471 0.0277511 0.0373197 0.029588 0.038873 0.0607638 0.0442502 0.0424684 0.0428634 0.0551715 0.068286 0.0907563 0.0694118 0.061758 0.0507254 0.069384 0.0614432
20 3 O -0.184847 6.06029 50.6845 -1.2 1 0.173814 0.0947109 0.0158216 0.0336094 0.0361042 0.0371022 0.0481046 0.0571683 0.061681 0.0646882 0.0684769 0.0770875 0.067076 0.0651059 0.0920738 0.0726095 0.0796705 0.0787684 0.0684226 0.0838363
21 1 Mg -3.49704 4.67769 52.6661 1.2 1 0.063018 0.0528429 0.0294094 0.0261594 0.0192583 0.0459594 0.0287478 0.063039 0.0502665 0.0675805 0.046949 0.0463213 0.0542712 0.0510646 0.064167 0.0853086 0.0893051 0.0713989 0.07332 0.0717702
22 3 O 2.48581 5.93312 50.6539 -1.2 1 0.183711 0.0995627 0.0295136 0.0201056 0.0392855 0.0438448 0.062602 0.0619027 0.0460957 0.0677546 0.0479979 0.0683397 0.063176 0.0604527 0.103078 0.0746089 0.0776615 0.0657111 0.0748543 0.073552
23 1 Mg -2.02222 4.84763 55.2971 1.2 1 0.0166429 0.0157975 0.0259914 0.0239721 0.0182113 0.0205862 0.0271102 0.0356689 0.034355 0.0570631 0.0615763 0.0629445 0.0508239 0.0565917 0.0643457 0.071628 0.0795624 0.0727946 0.0725132 0.0599069
24 2 Si -1.96141 2.66705 53.3487 2.4 1 0.0508441 0.0297281 0.0310694 0.0237802 0.0256169 0.020257 0.0473286 0.0513392 0.0619371 0.0668242 0.0591536 0.0664977 0.0748328 0.0473728 0.0682764 0.0574428 0.0738836 0.0984139 0.0750409 0.0654092
25 3 O -1.99988 1.17644 53.2938 -1.2 1 0.0628197 0.0329866 0.0226731 0.0300887 0.0217114 0.036587 0.0246161 0.0649155 0.0522021 0.0581826 0.0459892 0.0613335 0.0558043 0.0731903 0.0717041 0.0714913 0.0543621 0.0660427 0.0710867 0.0674552
26 3 O -0.0467762 2.97103 46.8385 -1.2 1 0.497882 0.0368604 0.0867897 0.0300634 0.0812895 0.0689272 0.0811663 0.0710083 0.072162 0.0803217 0.082966 0.0762734 0.09746 0.0895783 0.0893582 0.0883403 0.0985946 0.0964954 0.103382 0.108825
27 3 O -3.02481 3.48539 54.1649 -1.2 1 0.0314555 0.019303 0.0324886 0.0130539 0.0226144 0.0268268 0.0462815 0.0397755 0.0413462 0.0527937 0.0572494 0.0464976 0.0551987 0.0585341 0.0845315 0.0675784 0.0588348 0.082447 0.0561731 0.057162
28 3 O -0.538507 3.33355 53.8191 -1.2 1 0.0223757 0.0396621 0.0189224 0.0238012 0.0227051 0.0298426 0.0418607 0.0553356 0.043637 0.0508608 0.0587737 0.0511173 0.057873 0.0654751 0.0913831 0.0611822 0.0827509 0.0762259 0.0597427 0.0529019
29 1 Mg -3.32457 11.8505 57.4817 1.2 1 0.00943471 0.0169417 0.00766388 0.0287412 0.0129552 0.0336305 0.00820187 0.0595656 0.0119601 0.0838002 0.0194018 0.0564992 0.0207882 0.0736282 0.0269744 0.0929459 0.0320592 0.106751 0.0411678 0.092475
30 1 Mg -1.75014 11.5838 49.8362 1.2 1 0.234371 0.0804818 0.0303991 0.0396795 0.0313477 0.0554797 0.0468084 0.0527879 0.048647 0.0540434 0.0644653 0.0615699 0.0721805 0.0711384 0.111195 0.088442 0.0624276 0.091069 0.0872307 0.0792309
31 2 Si -1.18003 9.02138 47.9309 2.4 1 0.37651 0.0590123 0.0588074 0.055916 0.0385584 0.0608122 0.0715031 0.0740307 0.0667802 0.0646472 0.059791 0.0671534 0.0681555 0.0790581 0.0998295 0.0642938 0.0995174 0.0909165 0.104464 0.0872861
32 3 O -1.23224 10.5991 47.9811 -1.2 1 0.382421 0.0553557 0.0553395 0.0532295 0.0523107 0.071029 0.065779 0.0796267 0.0608052 0.0842797 0.0694 0.0657049 0.0730462 0.0764604 0.077025 0.0672189 0.0876452 0.0789855 0.0681776 0.0737777
33 3 O -1.79016 8.01447 51.8693 -1.2 1 0.116865 0.0605592 0.0325148 0.0294594 0.0318097 0.043111 0.0598795 0.0580319 0.0559939 0.0490317 0.0540281 0.0508351 0.0663215 0.0860531 0.0883376 0.0722697 0.072213 0.0558088 0.0707317 0.0687335
34 3 O -2.30986 8.37215 48.8528 -1.2 1 0.311851 0.0874818 0.066487 0.0237035 0.0531092 0.0625563 0.0673932 0.0654503 0.0591201 0.0668742 0.0803451 0.0665661 0.0576723 0.0639146 0.0788961 0.0924115 0.0974052 0.0799431 0.0750411 0.0926018
35 1 Mg 0.154883 7.08234 46.8007 1.2 1 0.496825 0.0358241 0.0784419 0.0351911 0.0563354 0.0684865 0.0544718 0.0685575 0.0737025 0.0845143 0.0908067 0.0788457 0.0798929 0.0788208 0.0679708 0.0895242 0.0902391 0.107088 0.114269 0.104116
36 3 O 0.325447 8.50934 48.3809 -1.2 1 0.343267 0.0870015 0.0657313 0.0466224 0.0345674 0.0527347 0.0381863 0.0613558 0.0642942 0.0615058 0.0760748 0.0682687 0.0779549 0.0927752 0.0924009 0.0695063 0.0912841 0.10174 0.0860406 0.090736
37 1 Mg 0.987888 7.02658 54.5179 1.2 1 0.0242074 0.0335048 0.0180409 0.0370816 0.0188643 0.027426 0.0224736 0.0382553 0.0399501 0.0553336 0.0666041 0.0574338 0.051678 0.0652222 0.0679084 0.0669163 0.0727018 0.0852952 0.0924102 0.0698813
38 2 Si 1.18008 9.73599 56.5019 2.4 1 0.0240745 0.0192926 0.0222529 0.020143 0.029015 0.0355642 0.0388115 0.0383045 0.0555036 0.0577003 0.0522849 0.0593624 0.0630281 0.0585244 0.070048 0.0670233 0.0590982 0.0898558 0.0567204 0.0605372
39 3 O 1.19314 8.12086 56.7599 -1.2 1 0.0311831 0.0163265 0.0226245 0.0176054 0.0169268 0.0260632 0.0341013 0.0553603 0.0478545 0.0453407 0.0478373 0.0585653 0.0520277 0.0636045 0.0702396 0.0699301 0.0664109 0.0763135 0.0477534 0.0777255
40 3 O 1.28624 10.7248 52.7351 -1.2 1 0.0647308 0.0531335 0.0353512 0.0215634 0.031663 0.0464422 0.0477835 0.0540894 0.0457217 0.0500239 0.0479252 0.0469916 0.0581677 0.0694753 0.0992517 0.0772982 0.0696205 0.055982 0.0661198 0.0617948
41 3 O -0.134325 10.4044 55.6144 -1.2 1 0.0103413 0.0183039 0.0268788 0.0155979 0.0173975 0.0268385 0.0403129 0.0390232 0.0443454 0.0546941 0.0543891 0.0341268 0.0602776 0.0576629 0.0851814 0.0803391 0.0735661 0.0581355 0.0615807 0.0726941
42 3 O 2.40068 10.3325 55.6719 -1.2 1 0.0113072 0.0209613 0.0203687 0.0242586 0.0237094 0.0238109 0.0451628 0.0446128 0.0393969 0.0513493 0.0551896 0.0391419 0.0604948 0.0701382 0.0757043 0.0831257 0.0674938 0.0635135 0.0643714 0.0666348
43 1 Mg -0.262694 9.34741 52.2523 1.2 1 0.116267 0.0649883 0.0232529 0.0373146 0.0310925 0.0441301 0.0361682 0.0706542 0.0332378 0.0870381 0.0267921 0.0575545 0.038495 0.073106 0.0407877 0.103945 0.0493513 0.0931577 0.0522564 0.103567
44 1 Mg 1.87648 9.01537 49.4629 1.2 1 0.271991 0.0986921 0.0460324 0.0308641 0.0281444 0.0497272 0.0627328 0.049961 0.0770503 0.0636285 0.0860999 0.0555609 0.0818089 0.0688424 0.0832031 0.0906979 0.0879469 0.0978283 0.0809867 0.0923588
45 2 Si 1.21415 11.3799 51.2378 2.4 1 0.132086 0.0922299 0.0293192 0.0331066 0.0466015 0.0475294 0.0533544 0.039955 0.0603846 0.0604176 0.0733411 0.0701748 0.073067 0.0655354 0.0925996 0.088055 0.0757939 0.0795217 0.0781553 0.0590189
46 3 O 1.31634 12.9512 51.3023 -1.2 1 0.133083 0.0886543 0.0163185 0.0299818 0.0409677 0.0382315 0.0460343 0.071144 0.0620689 0.0677542 0.0411888 0.082451 0.0663694 0.0640817 0.0745636 0.0695985 0.0792168 0.0731242 0.0731914 0.0708606
47 3 O 0.964573 10.4528 57.8288 -1.2 1 0.0118766 0.0108329 0.0240614 0.0217981 0.0185475 0.0286562 0.0374169 0.03988 0.0528618 0.0457084 0.0488633 0.0415939 0.0569319 0.0778104 0.0880367 0.0822296 0.0636864 0.0567613 0.0778021 0.0455647
48 3 O -0.115718 10.7564 50.681 -1.2 1 0.187136 0.0867423 0.0262283 0.0260711 0.0408937 0.036222 0.0499652 0.0695562 0.0521611 0.0551682 0.0614982 0.0513656 0.0631935 0.0769151 0.0906619 0.0808302 0.0726546 0.0746397 0.0753316 0.0816491
49 1 Mg -3.26386 9.35564 52.3622 1.2 1 0.0783221 0.0562927 0.0275517 0.0341143 0.0151225 0.056577 0.0367186 0.0554912 0.0330757 0.0840359 0.0402158 0.0523911 0.0359792 0.0681976 0.0339738 0.111281 0.0474203 0.101663 0.0545552 0.0855356
50 3 O 2.45216 10.7265 50.4558 -1.2 1 0.198768 0.0934045 0.0177545 0.019038 0.0357161 0.0532476 0.0571602 0.0485791 0.0546056 0.0682207 0.0645554 0.071116 0.050158 0.0683365 0.0984908 0.0828517 0.0757686 0.0791188 0.0620218 0.086728
51 1 Mg -1.79642 9.43938 55.3194 1.2 1 0.0103547 0.0200878 0.0229771 0.0257924 0.0247886 0.0244792 0.026917 0.0304142 0.0398509 0.0565393 0.0465557 0.07044 0.0653172 0.063173 0.0670162 0.0580654 0.0901614 0.0903732 0.0704095 0.0705228
52 2 Si -1.94054 7.41065 53.3461 2.4 1 0.0478948 0.0418445 0.031029 0.0271715 0.0349854 0.0361502 0.0487137 0.0503901 0.061432 0.0596239 0.0610915 0.0668091 0.0810057 0.0498981 0.0689172 0.0629401 0.0730919 0.0851133 0.0673737 0.0554443
53 3 O -1.85694 5.90365 53.3094 -1.2 1 0.0515983 0.0416815 0.0244123 0.0237905 0.0157745 0.0277507 0.0404356 0.0620276 0.0405056 0.0643602 0.0401775 0.0717059 0.0656819 0.0819158 0.0647317 0.0581313 0.0641386 0.0676076 0.0627405 0.0653245
54 3 O -1.19417 8.46968 46.4488 -1.2 1 0.525005 0.0667884 0.0673578 0.0518582 0.0670242 0.0568285 0.0787645 0.0548896 0.0761946 0.0718568 0.0577122 0.0510287 0.0692824 0.0980212 0.130567 0.114076 0.0973026 0.0946784 0.0833822 0.0833726
55 3 O -3.23374 8.08984 53.9875 -1.2 1 0.0364153 0.0312025 0.0291828 0.0178201 0.0227864 0.0278542 0.0505816 0.0465127 0.0495157 0.0508526 0.0563715 0.0408441 0.0585176 0.0594331 0.0846804 0.0647845 0.074663 0.0654122 0.0674316 0.0798164
56 3 O -0.709662 8.03551 54.07 -1.2 1 0.0400205 0.0229534 0.0292092 0.0240948 0.0297664 0.0369867 0.0280469 0.0437245 0.0426856 0.0509441 0.0586594 0.0448415 0.0595796 0.0658286 0.0829542 0.0687648 0.0701245 0.0738378 0.0727054 0.0711759
57 1 Mg -3.14594 16.554 57.2863 1.2 1 0.01683 0.0127988 0.00736463 0.0281309 0.0108445 0.0370909 0.0156112 0.0488038 0.023189 0.0823071 0.0280289 0.0488114 0.0294851 0.0654716 0.03256 0.102909 0.0388945 0.105122 0.0391732 0.0860022
58 1 Mg -1.6714 16.3544 49.8412 1.2 1 0.236732 0.0750345 0.024973 0.0404309 0.0340749 0.0479921 0.0526654 0.0545863 0.0469946 0.0575456 0.0592643 0.0665467 0.0727588 0.0705921 0.100246 0.0836517 0.0734011 0.0949334 0.0847737 0.0820349
59 2 Si -1.18567 13.8526 47.9314 2.4 1 0.370421 0.0733649 0.080649 0.0627419 0.0309897 0.0681353 0.0501782 0.0825714 0.0602517 0.0668539 0.0542899 0.0714638 0.0597839 0.078025 0.0999008 0.0761974 0.104872 0.0990769 0.0903717 0.0910801
60 3 O -1.09664 15.4205 47.9915 -1.2 1 0.366091 0.0702954 0.0496845 0.0631377 0.0457855 0.0921381 0.0638887 0.0832236 0.0553827 0.0877965 0.0560381 0.074132 0.0601312 0.0814088 0.0819771 0.0749123 0.0942729 0.0756316 0.072905 0.068996
61 3 O -1.73493 12.7491 51.7772 -1.2 1 0.116776 0.0580557 0.0283307 0.0273074 0.0339179 0.051408 0.0624643 0.0482203 0.0663608 0.0538101 0.053889 0.0512501 0.0546731 0.0818838 0.100788 0.0762707 0.0845235 0.051478 0.0635449 0.0656482
62 3 O -2.36115 13.2717 48.8238 -1.2 1 0.306747 0.0916051 0.0569235 0.0264591 0.055607 0.050141 0.0571507 0.0688687 0.058636 0.0663025 0.0712252 0.0629457 0.0603527 0.0605198 0.0839412 0.0852344 0.0865495 0.0790859 0.0816014 0.0893307
63 1 Mg -0.159928 11.7639 46.8533 1.2 1 0.482318 0.0243304 0.0773027 0.0343205 0.0533878 0.0965834 0.0708133 0.0897784 0.0845217 0.0845622 0.0833728 0.0677843 0.0720753 0.0925204 0.0782948 0.0865312 0.0967084 0.0978552 0.101324 0.107515
64 3 O 0.2623 13.1866 48.413 -1.2 1 0.345428 0.0781879 0.0559683 0.0371541 0.0454935 0.0562659 0.0426561 0.0624083 0.0657892 0.0718413 0.0626829 0.0602371 0.0683474 0.087625 0.0951516 0.0815813 0.0952608 0.0980358 0.0836734 0.0873698
65 1 Mg 1.47495 11.701 54.4355 1.2 1 0.0145811 0.0337612 0.0221576 0.0304993 0.0120238 0.0175419 0.0231723 0.0409796 0.0521172 0.0538366 0.0523019 0.0543209 0.0625562 0.0658075 0.0732786 0.0672183 0.075587 0.0932578 0.0693125 0.0621002
66 2 Si 1.10943 14.5346 56.3737 2.4 1 0.0136587 0.0159839 0.0277 0.0287621 0.03354 0.0313905 0.0407943 0.0442425 0.0501594 0.0472647 0.0511924 0.0639651 0.0610249 0.0589139 0.0771961 0.0783067 0.0690351 0.0925942 0.0629663 0.0563829
67 3 O 1.13712 12.9854 56.3686 -1.2 1 0.0248841 0.0155895 0.0188384 0.019649 0.0282651 0.0272714 0.0248827 0.0730157 0.0382461 0.0595537 0.0419812 0.0631862 0.0652722 0.065267 0.0670747 0.0622981 0.0605855 0.0668358 0.0678019 0.061279
68 3 O 1.36565 15.4813 52.729 -1.2 1 0.0671849 0.0421303 0.0288934 0.0185858 0.0275194 0.0432992 0.0521633 0.0544775 0.0500848 0.0463328 0.0416792 0.050229 0.0562417 0.0657318 0.102122 0.070439 0.075325 0.0632215 0.0721197 0.0627295
69 3 O -0.197814 15.2496 55.8607 -1.2 1 0.0170934 0.0170709 0.025852 0.0185323 0.0151638 0.0216106 0.0396284 0.0452343 0.0452283 0.040334 0.0562131 0.0440895 0.0485779 0.0518016 0.0917057 0.0769116 0.061093 0.0648264 0.0628391 0.0759145
70 3 O 2.36009 15.1557 55.6288 -1.2 1 0.0268963 0.0172181 0.0237039 0.0200155 0.0247108 0.0174715 0.0379293 0.0428268 0.0412774 0.0445044 0.0521284 0.0338691 0.0553929 0.0649914 0.0775546 0.0766875 0.071604 0.0710231 0.0614092 0.0603372
71 1 Mg -0.206989 14.1049 52.2121 1.2 1 0.108785 0.0651276 0.0217389 0.0408872 0.0285062 0.0409486 0.0365086 0.0696214 0.0265561 0.0865822 0.0277606 0.0586403 0.032903 0.0751331 0.0343543 0.105692 0.0467305 0.104514 0.0378917 0.100277
72 1 Mg 1.82591 13.8102 49.4556 1.2 1 0.266335 0.101273 0.0339256 0.0362365 0.0337385 0.0329547 0.0697258 0.0451467 0.0721213 0.0745973 0.0807613 0.0618941 0.0755015 0.0715817 0.0848534 0.0914024 0.0762093 0.0957315 0.090983 0.0870351
73 2 Si 1.29285 16.1518 51.2434 2.4 1 0.132398 0.0864013 0.0343267 0.0366105 0.0380068 0.0487859 0.0550575 0.0462662 0.0580017 0.0645592 0.0678246 0.070564 0.0733177 0.066789 0.0925608 0.0863216 0.0769242 0.0836205 0.0734798 0.0595747
74 3 O 1.39496 17.7199 51.3047 -1.2 1 0.133527 0.0802083 0.0301651 0.0405115 0.0295524 0.0467498 0.0448765 0.067446 0.054313 0.0681017 0.0458595 0.0796081 0.0707711 0.065231 0.0754565 0.068733 0.0728801 0.0723475 0.0665438 0.0719478
75 3 O 1.10722 15.1823 57.9211 -1.2 1 0.00768236 0.020362 0.0247453 0.0213426 0.0161051 0.0353757 0.028869 0.0454116 0.0549144 0.047228 0.0394904 0.0408807 0.0562084 0.0703602 0.0990284 0.0738187 0.0664191 0.0548783 0.0669652 0.0603786
76 3 O -0.0269106 15.5178 50.6688 -1.2 1 0.17432 0.0924405 0.0191821 0.0266266 0.0449559 0.037874 0.0563999 0.0647589 0.0618528 0.0609722 0.054274 0.0531374 0.0632715 0.0725887 0.0919357 0.0866463 0.0753655 0.0839296 0.0748015 0.0849152
77 1 Mg -3.18391 14.1057 52.3125 1.2 1 0.0772737 0.0587876 0.0270435 0.0283948 0.0206124 0.0554679 0.0306527 0.065712 0.0313908 0.0780808 0.0298865 0.0521174 0.0303565 0.076167 0.0373753 0.112308 0.0464888 0.0995408 0.0408584 0.0854628
78 3 O 2.52432 15.503 50.4579 -1.2 1 0.19935 0.0887753 0.0290846 0.0189123 0.0332142 0.0613033 0.062215 0.0527596 0.0533932 0.0648133 0.0627648 0.0630465 0.055913 0.0659044 0.0940839 0.0732737 0.0754041 0.0649927 0.0612894 0.0858544
79 1 Mg -1.64744 14.2875 55.0369 1.2 1 0.024828 0.00568702 0.0215002 0.0268481 0.00723415 0.0230393 0.0276714 0.0363987 0.0454357 0.0531168 0.0615834 0.0559092 0.0476617 0.0680497 0.0562884 0.0889686 0.0668864 0.0970551 0.0640123 0.0788045
80 2 Si -1.60033 12.0282 53.2073 2.4 1 0.0462685 0.0436775 0.0261976 0.032917 0.0346444 0.0314719 0.0462319 0.05398 0.0529318 0.0633505 0.0571888 0.0691942 0.0741813 0.0530822 0.0597404 0.061038 0.0712352 0.0815351 0.0658327 0.0604555
81 3 O -1.74394 10.5351 53.2056 -1.2 1 0.0636569 0.0424455 0.0269043 0.0249013 0.0245485 0.0318767 0.0326285 0.0681631 0.0397355 0.0573901 0.0481293 0.0717352 0.0621242 0.0783602 0.068747 0.0666924 0.0497699 0.0647331 0.0640642 0.0695628
82 3 O -1.21337 13.3381 46.4311 -1.2 1 0.520175 0.0676128 0.0692166 0.0404213 0.0561861 0.0577876 0.0578253 0.0705796 0.0800481 0.0659682 0.045446 0.0707656 0.068296 0.088537 0.120884 0.114376 0.106655 0.100148 0.0591496 0.0912873
83 3 O -2.83364 12.6149 54.0453 -1.2 1 0.0176082 0.0267136 0.0310953 0.0278022 0.0279734 0.0244727 0.0523631 0.0455383 0.0458525 0.0594751 0.0517954 0.0403189 0.061233 0.0657036 0.0704289 0.0767017 0.0646674 0.0700034 0.0621219 0.0624908
84 3 O -0.278823 12.824 53.7017 -1.2 1 0.045944 0.0362518 0.0236886 0.0260829 0.0344408 0.0184032 0.0444027 0.047527 0.0626617 0.0510099 0.0558359 0.052369 0.0596297 0.051065 0.0893108 0.0631577 0.0803992 0.0690624 0.0738458 0.0655035
85 1 Mg -3.06451 21.0875 57.5148 1.2 1 0.0141549 0.01436 0.0108832 0.0247118 0.00775734 0.032255 0.0111278 0.0563292 0.0212735 0.0806788 0.0198931 0.0473013 0.0242216 0.0684273 0.0262877 0.106867 0.0383337 0.109411 0.0385383 0.0769903
86 1 Mg -1.5831 21.1217 49.8405 1.2 1 0.229752 0.0824728 0.0208713 0.0417619 0.0285278 0.0492414 0.0550092 0.0521588 0.0514806 0.0581703 0.06283 0.0678999 0.073298 0.0729927 0.100932 0.0819498 0.0776026 0.0967793 0.0834234 0.0850154
87 2 Si -1.09384 18.6291 47.9287 2.4 1 0.381739 0.0588206 0.0677328 0.0674738 0.0289524 0.0659797 0.0468308 0.0769625 0.0640732 0.0693581 0.0591359 0.0757974 0.0582399 0.0717942 0.0974508 0.0741107 0.104634 0.0954986 0.090393 0.0897118
88 3 O -1.02071 20.1985 47.9911 -1.2 1 0.364531 0.0744253 0.0538172 0.0644947 0.0406207 0.0913246 0.0639919 0.0816695 0.056728 0.0906422 0.051189 0.0692849 0.059498 0.0835241 0.0829445 0.0759745 0.0940518 0.0794601 0.0778282 0.0753506
89 3 O -1.65002 17.5002 51.771 -1.2 1 0.111748 0.0563119 0.0364543 0.0297077 0.036785 0.0539067 0.0601842 0.0499826 0.0665998 0.053707 0.0578067 0.0444727 0.0577176 0.0853091 0.100146 0.0749557 0.0805652 0.0463322 0.0736058 0.0682258
90 3 O -2.26174 18.0434 48.8281 -1.2 1 0.312818 0.0839437 0.0532532 0.0348692 0.0558282 0.0468793 0.054441 0.0712617 0.0622981 0.0684998 0.0708502 0.0593913 0.0532343 0.0589951 0.0790366 0.0837105 0.0852511 0.0810893 0.084954 0.0900159
91 1 Mg -0.0440435 16.5651 46.8269 1.2 1 0.483412 0.0185371 0.083983 0.0282041 0.0553342 0.0800422 0.070202 0.0841744 0.0778491 0.0887398 0.0849228 0.0618313 0.0664845 0.0823141 0.0761676 0.0886812 0.0919799 0.0991146 0.104895 0.111993
92 3 O 0.37001 17.9877 48.3925 -1.2 1 0.345006 0.0782643 0.0564475 0.0404744 0.0456293 0.0632656 0.0433559 0.0673551 0.0652979 0.0722571 0.0590934 0.0550916 0.0650023 0.0871621 0.0969367 0.0800499 0.0958395 0.101664 0.0777928 0.0858476
93 1 Mg 1.39291 16.6535 54.7645 1.2 1 0.0153713 0.0241401 0.0145642 0.0332323 0.0171926 0.0192799 0.0292131 0.0284068 0.0487448 0.0569127 0.0557463 0.0571883 0.0549385 0.0663968 0.0616533 0.104759 0.0683318 0.0884389 0.0669899 0.083674
94 2 Si 1.51308 19.0987 56.3388 2.4 1 0.0236747 0.0156237 0.0221129 0.0253123 0.0222972 0.0267607 0.0388282 0.0399618 0.0445075 0.0569643 0.0486196 0.064742 0.0619483 0.0555124 0.0727287 0.0759426 0.0723567 0.0859288 0.0650913 0.0642605
95 3 O 1.36486 17.5402 56.4511 -1.2 1 0.0148112 0.0142598 0.0210713 0.0248916 0.0253454 0.0221212 0.0167308 0.0764387 0.0347316 0.0632793 0.0369473 0.0632365 0.0541695 0.0667485 0.0740456 0.0639343 0.0601131 0.0700114 0.0619876 0.0724591
96 3 O 1.45147 20.239 52.7294 -1.2 1 0.0669439 0.0513901 0.0194789 0.0179463 0.0303841 0.0435848 0.0485767 0.0563986 0.0497878 0.0494902 0.0465812 0.0421528 0.058479 0.0684805 0.101594 0.0741674 0.0686955 0.0581262 0.0700685 0.0600425
97 3 O 0.18965 19.8188 55.6922 -1.2 1 0.0113123 0.00712303 0.0305235 0.0182574 0.0181733 0.0243977 0.0437214 0.0433563 0.0328604 0.048596 0.055389 0.0397576 0.0504548 0.0609721 0.0795677 0.0726261 0.077676 0.0629988 0.0646621 0.0583584
98 3 O 2.82072 19.7159 55.7259 -1.2 1 0.0336862 0.0179626 0.0218585 0.0252524 0.0202933 0.0251082 0.0463145 0.0392598 0.0398894 0.0510324 0.0556574 0.0373956 0.0534122 0.0647907 0.0659784 0.0831773 0.0721175 0.063617 0.0644594 0.0751744
99 1 Mg -0.126194 18.8651 52.2079 1.2 1 0.101392 0.0682794 0.0269553 0.0436956 0.0273983 0.0428739 0.0360509 0.0749323 0.026343 0.0860769 0.0311748 0.0524781 0.0259832 0.0693547 0.0303017 0.105601 0.0391454 0.102626 0.042837 0.100448
100 1 Mg 1.92402 18.5815 49.4545 1.2 1 0.266304 0.102972 0.036226 0.0406792 0.0369796 0.0359257 0.0671295 0.045562 0.0686033 0.0754987 0.0825596 0.0569388 0.0676321 0.0645214 0.0861484 0.0937255 0.0796777 0.101799 0.0864438 0.0853828
101 2 Si 1.38106 20.9117 51.2443 2.4 1 0.131833 0.0877518 0.0368746 0.0396301 0.0315148 0.0521965 0.0566893 0.0421719 0.0531371 0.070667 0.0685145 0.0714191 0.0758313 0.0631833 0.0922654 0.0872244 0.0751002 0.0837709 0.0769914 0.0633404
102 3 O 1.48527 22.4795 51.3054 -1.2 1 0.134417 0.0886364 0.0180774 0.0270516 0.0359216 0.0461084 0.0401995 0.0649194 0.0525522 0.063414 0.0494105 0.0791677 0.0648634 0.0718443 0.0753216 0.067316 0.0783377 0.0742104 0.0679031 0.0699237
103 3 O 1.41797 19.8939 57.8985 -1.2 1 0.0113085 0.0168535 0.0219771 0.0195846 0.0177862 0.0397729 0.0338473 0.0419295 0.0528658 0.0405747 0.0528995 0.0495716 0.0568186 0.0656908 0.100978 0.068748 0.0639071 0.0578227 0.0745019 0.0644759
104 3 O 0.0615419 20.2804 50.6669 -1.2 1 0.176876 0.0882957 0.0277974 0.0237137 0.0437499 0.044642 0.051698 0.0668522 0.0574423 0.0629616 0.0570791 0.0544042 0.0654754 0.076343 0.0939133 0.0798796 0.072569 0.0818571 0.0742594 0.0878287
105 1 Mg -3.09665 18.8643 52.3122 1.2 1 0.0748018 0.0560512 0.0350249 0.0329364 0.0168144 0.055574 0.0320607 0.0620024 0.0327128 0.0830005 0.033069 0.0492052 0.029814 0.0740163 0.0366333 0.10932 0.0447155 0.103124 0.0461963 0.0890749
106 3 O 2.61548 20.2646 50.4626 -1.2 1 0.194071 0.0952556 0.0225815 0.015756 0.0417291 0.0514883 0.055923 0.0459812 0.0572132 0.0708021 0.0647103 0.0672002 0.0551746 0.0641587 0.101314 0.0786689 0.0758034 0.0717375 0.0618413 0.0836708
107 1 Mg -1.49656 18.9406 54.9706 1.2 1 0.0214159 0.0128182 0.0262076 0.0273766 0.0148438 0.0226328 0.0284917 0.0288251 0.0404294 0.0591724 0.0572243 0.0540874 0.0595139 0.0687946 0.062906 0.087702 0.065907 0.098555 0.0697802 0.0852931
108 2 Si -1.60049 16.8112 53.2596 2.4 1 0.0591326 0.040032 0.0212687 0.0283799 0.029568 0.0280429 0.0464954 0.0540288 0.0543517 0.0672847 0.0640268 0.0681724 0.0714078 0.0577842 0.0730288 0.0665249 0.0665551 0.085411 0.06142 0.062375
109 3 O -1.5765 15.3241 53.2993 -1.2 1 0.0556466 0.036709 0.027354 0.0229254 0.0273935 0.0337606 0.0256997 0.0721817 0.0429977 0.0637288 0.0427817 0.0692463 0.0612194 0.0714419 0.0691999 0.0596783 0.0638654 0.0603806 0.0763577 0.0688809
110 3 O -1.12868 18.1227 46.4249 -1.2 1 0.522046 0.0662222 0.0722082 0.0519312 0.0577633 0.064646 0.0603076 0.0791196 0.0799555 0.0628672 0.0455393 0.0671652 0.0663063 0.0873404 0.116558 0.114534 0.107003 0.101207 0.0625566 0.0917781
111 3 O -2.85144 17.576 54.0248 -1.2 1 0.02201 0.0250764 0.0266726 0.0185986 0.024843 0.0220876 0.0494757 0.0504613 0.0385766 0.0502788 0.0558241 0.0476035 0.0515628 0.0595938 0.0872624 0.0702385 0.0628776 0.0644217 0.0635931 0.069793
112 3 O -0.231353 17.5097 53.8424 -1.2 1 0.0325974 0.0303512 0.0227445 0.0237838 0.0265137 0.0166252 0.0430472 0.0582175 0.0479151 0.0526666 0.0574765 0.04235 0.0635929 0.0561488 0.0867479 0.0622784 0.0732601 0.0664766 0.0666379 0.080033
113 1 Mg -2.93852 26.0518 57.2254 1.2 1 0.0161395 0.0133145 0.00801223 0.0268186 0.0133627 0.0359409 0.0176208 0.0581424 0.0222233 0.081265 0.0238653 0.0526265 0.0208053 0.0681272 0.0246629 0.0910951 0.0358442 0.118733 0.03294 0.0964955
114 1 Mg -1.48778 25.88 49.8402 1.2 1 0.230234 0.0851625 0.0208641 0.0354104 0.0331037 0.0465256 0.0528931 0.0552252 0.051956 0.0582287 0.0640912 0.0701654 0.0720587 0.0687342 0.0951888 0.0763939 0.0790919 0.100293 0.0865701 0.0838668
115 2 Si -1.00491 23.3922 47.9274 2.4 1 0.37529 0.0640601 0.0647576 0.0743856 0.0300318 0.0713063 0.0431679 0.0809812 0.0686741 0.0757695 0.057998 0.0789819 0.060468 0.0746533 0.095491 0.0735187 0.100798 0.0977773 0.0917239 0.0918427
116 3 O -0.927602 24.9615 47.9909 -1.2 1 0.361199 0.0766695 0.0536915 0.0600798 0.0466195 0.0927085 0.0609904 0.0810768 0.0529034 0.0868451 0.0532411 0.0722967 0.062597 0.0855438 0.0853765 0.0743615 0.0953507 0.0783024 0.0736837 0.0703337
117 3 O -1.55795 22.2588 51.7696 -1.2 1 0.107721 0.0611313 0.0327902 0.0328732 0.0302955 0.051858 0.0601358 0.0507675 0.0640686 0.0560088 0.0568955 0.0490694 0.0524872 0.0853634 0.0986084 0.0789074 0.0791143 0.0520139 0.0773402 0.0695919
118 3 O -2.17411 22.8111 48.8277 -1.2 1 0.313503 0.0833126 0.0532291 0.0341967 0.0562602 0.0447108 0.0539665 0.069167 0.0618233 0.0714206 0.0702252 0.0570517 0.0507161 0.0552097 0.0772596 0.0851998 0.0876808 0.0796954 0.0831592 0.0890713
119 1 Mg 0.0423997 21.3296 46.8225 1.2 1 0.485246 0.0214722 0.0764224 0.0306436 0.0615054 0.0835207 0.0740685 0.0831071 0.0715905 0.0872909 0.0873998 0.0617806 0.0621766 0.0794149 0.0768454 0.0913221 0.0942897 0.0977244 0.0994573 0.107093
120 3 O 0.458537 22.7495 48.3911 -1.2 1 0.34841 0.0737722 0.0549831 0.0365241 0.046832 0.0617994 0.0388803 0.0648928 0.0651704 0.0722669 0.0591503 0.0553673 0.066084 0.0873606 0.0936326 0.0753611 0.0960425 0.105582 0.0808749 0.0848154
121 1 Mg 1.6194 21.3379 54.4542 1.2 1 0.0112626 0.031229 0.0205662 0.0350892 0.0109599 0.0235986 0.023155 0.0405194 0.040316 0.0600891 0.061855 0.0547477 0.0607514 0.0677572 0.0762793 0.0735017 0.0829233 0.0759729 0.0785449 0.0674029
122 2 Si 1.48312 23.943 56.3631 2.4 1 0.0164511 0.0109323 0.016366 0.0299446 0.0283801 0.0323995 0.0363163 0.0424463 0.0495431 0.0552033 0.0462871 0.0662075 0.0696297 0.0497112 0.0751056 0.0726817 0.072215 0.0953938 0.0626359 0.0658208
123 3 O 1.44528 22.3909 56.4112 -1.2 1 0.0181911 0.00853262 0.0154804 0.0181893 0.0215351 0.0285627 0.0269661 0.0706946 0.0362937 0.0521389 0.0402221 0.0652733 0.0596905 0.0677532 0.0708729 0.0722422 0.0596748 0.0687574 0.0651081 0.0737913
124 3 O 1.54441 24.9963 52.7297 -1.2 1 0.0602225 0.0474354 0.0302428 0.0171492 0.0283215 0.040682 0.0504287 0.0593341 0.0539221 0.047739 0.0443455 0.0516954 0.0553618 0.0667917 0.104783 0.0716523 0.0674458 0.054861 0.0662249 0.0650804
125 3 O 0.258007 24.6209 55.6107 -1.2 1 0.012841 0.0166653 0.0210018 0.0218542 0.0204724 0.0252313 0.0383359 0.0400959 0.0351563 0.0498555 0.0551866 0.0450825 0.0523388 0.0497983 0.0874426 0.0842443 0.0736468 0.0524656 0.0608019 0.0604529
126 3 O 2.81954 24.4978 55.7738 -1.2 1 0.0205004 0.0200476 0.0207047 0.0198655 0.0231647 0.021866 0.0433388 0.0424536 0.0418094 0.0463591 0.0497336 0.0353582 0.0512237 0.0656557 0.0685733 0.0804578 0.0827109 0.0533275 0.0642637 0.0678076