ITEM: TIMESTEP
29200
ITEM: NUMBER OF ATOMS
10500
ITEM: BOX BOUNDS xy xz yz pp pp pp
0	8.9688	2.9896
0	118.725	0
0	252.977	0
ITEM: ATOMS id type element xu yu zu q Q_1 Q_2 Q_3 Q_4 Q_5 Q_6 Q_7 Q_8 Q_9 Q_10 Q_11 Q_12 Q_13 Q_14 Q_15 Q_16 Q_17 Q_18 Q_19 Q_20 Q_21
1 1 Mg -3.2729 6.98573 57.4099 1.2 1 0.0039841 0.0122396 0.0109647 0.0305236 0.0106723 0.0313405 0.015348 0.0557544 0.0180792 0.0803597 0.0179006 0.048244 0.0161475 0.0685555 0.0264188 0.103163 0.0308948 0.108787 0.0365826 0.0914963
2 1 Mg -1.82655 6.90154 50.0912 1.2 1 0.219991 0.0875627 0.0306471 0.0359157 0.0302105 0.0527787 0.0492395 0.0458155 0.0553609 0.0685368 0.0548712 0.0708969 0.0713701 0.0633496 0.0945202 0.0603005 0.0859257 0.0993676 0.071323 0.076226
3 2 Si -0.257935 3.96038 48.0876 2.4 1 0.374718 0.0683634 0.0717744 0.0340393 0.0616578 0.0497419 0.0715898 0.0768026 0.0608133 0.0772042 0.0571158 0.0712326 0.0634155 0.0849936 0.0973154 0.100616 0.109002 0.0910322 0.0726618 0.0709121
4 3 O -0.335812 5.46814 47.6264 -1.2 1 0.427232 0.039759 0.0642984 0.0309068 0.0410317 0.0481595 0.0652669 0.0713836 0.0879749 0.0758177 0.0915932 0.0757667 0.071149 0.0683184 0.0919929 0.124875 0.0939158 0.0799164 0.0761038 0.0794062
5 3 O -2.03793 3.43377 51.8941 -1.2 1 0.112317 0.0628179 0.0250245 0.0212915 0.0205065 0.0497388 0.0629791 0.0484723 0.0491332 0.0559822 0.0670141 0.0498257 0.0493252 0.0760277 0.0900816 0.08231 0.0678584 0.0500885 0.0764507 0.0690327
6 3 O -1.54015 3.53929 48.9521 -1.2 1 0.301203 0.0921183 0.033683 0.0492787 0.0289763 0.0491976 0.0730512 0.0483034 0.0542729 0.0625162 0.0740526 0.0683546 0.0715296 0.0673292 0.0740173 0.111094 0.0833967 0.0800827 0.0767283 0.0896394
7 1 Mg 1.82954 2.54582 47.1376 1.2 1 0.465905 0.0216437 0.0807855 0.0501922 0.0353805 0.0824634 0.0593909 0.0590049 0.0764063 0.0882835 0.0678596 0.0769028 0.082448 0.0847805 0.0703553 0.097418 0.101626 0.10395 0.106028 0.0985002
8 3 O 1.22989 3.66364 48.7877 -1.2 1 0.320485 0.0719109 0.0246201 0.0477309 0.0295123 0.0651529 0.0805258 0.0298672 0.0812537 0.0779448 0.0525379 0.0772971 0.0830086 0.0708616 0.0658999 0.0844636 0.0919479 0.0914413 0.0947127 0.0910348
9 1 Mg 1.00739 2.25611 54.4758 1.2 1 0.0035148 0.0288693 0.0174101 0.0363234 0.0211292 0.0360971 0.0211796 0.0365077 0.0413963 0.0573711 0.0597044 0.0551313 0.0610751 0.0698761 0.0667556 0.0710677 0.071183 0.0875017 0.0718023 0.072418
10 2 Si 1.04614 4.99549 56.3898 2.4 1 0.0214979 0.0215453 0.028972 0.0243121 0.0282329 0.0250884 0.039801 0.0451789 0.0479037 0.0544461 0.0553415 0.0682657 0.0663049 0.0537916 0.0813971 0.0632881 0.0602372 0.0921992 0.0526799 0.0605858
11 3 O 1.03502 3.39095 56.4799 -1.2 1 0.0139093 0.0156273 0.012055 0.0246 0.0234603 0.0224111 0.0227802 0.0621686 0.032488 0.053663 0.0363809 0.0649061 0.0598226 0.0576794 0.0668028 0.0642438 0.0541176 0.0734326 0.0612458 0.0727847
12 3 O 1.10813 6.07342 52.8172 -1.2 1 0.0802042 0.0469768 0.0363444 0.0167384 0.0215071 0.0432813 0.0450888 0.0549625 0.0488874 0.0431624 0.0588824 0.0497497 0.0678748 0.0717494 0.088928 0.0826726 0.055851 0.0703893 0.07105 0.0687437
13 3 O -0.202493 5.65933 55.7461 -1.2 1 0.00505013 0.0189117 0.0176517 0.0253327 0.0208505 0.0183284 0.045912 0.0425908 0.0415857 0.0481677 0.0547144 0.0396647 0.0607971 0.0569128 0.0940251 0.0706248 0.071266 0.0613297 0.0623963 0.0707898
14 3 O 2.27837 5.59315 55.7806 -1.2 1 0.0174348 0.0147592 0.0290585 0.0175497 0.023895 0.0225796 0.044371 0.0489309 0.0357794 0.0460887 0.0549994 0.0393659 0.0511814 0.0709967 0.0824067 0.0760705 0.0797971 0.0659829 0.0689968 0.0650462
15 1 Mg -0.459401 4.67631 52.2426 1.2 1 0.0897332 0.0689746 0.0320015 0.0372548 0.0304987 0.0311361 0.0405814 0.0579779 0.0423108 0.0820998 0.0455636 0.0609021 0.0486016 0.0733309 0.0457235 0.0971921 0.0556624 0.0977423 0.0609881 0.0915209
16 1 Mg 2.79456 3.9971 49.9987 1.2 1 0.227248 0.0913111 0.0296482 0.0402411 0.0419919 0.0595435 0.0568967 0.0550367 0.0819708 0.0622689 0.0600957 0.0561761 0.0628743 0.067978 0.0864158 0.0752189 0.0744333 0.089708 0.086951 0.0731131
17 2 Si 1.16169 6.59457 51.2556 2.4 1 0.139704 0.0887942 0.0347466 0.0314969 0.0437215 0.0488004 0.0467466 0.0441715 0.0597098 0.0639727 0.0662357 0.0760465 0.0711968 0.0660126 0.0854623 0.0900511 0.080803 0.090574 0.0729766 0.065161
18 3 O 1.28989 8.18905 51.2909 -1.2 1 0.134755 0.0955322 0.0179954 0.0377222 0.0296656 0.047467 0.0466515 0.0760043 0.0493549 0.0704429 0.046296 0.0885082 0.0730049 0.0625265 0.0772078 0.0697782 0.0749726 0.070909 0.0691086 0.0727115
19 3 O 1.13687 5.68686 57.9141 -1.2 1 0.00934286 0.0152867 0.0264148 0.0159278 0.0199077 0.0278375 0.0296414 0.0458446 0.0559296 0.044266 0.0422273 0.0480266 0.0504778 0.0697109 0.10192 0.0720754 0.068659 0.0537862 0.0701728 0.0601747
20 3 O -0.184847 6.06029 50.6845 -1.2 1 0.184136 0.0841874 0.0239592 0.0265634 0.0377059 0.0333817 0.0465147 0.0601655 0.0583184 0.0571026 0.0637077 0.0750185 0.0679384 0.0595365 0.0868543 0.0710976 0.0777476 0.0762004 0.0624876 0.078667
21 1 Mg -3.49704 4.67769 52.6661 1.2 1 0.0658472 0.0568033 0.0248893 0.0262095 0.0146728 0.0419761 0.0362271 0.0569469 0.050664 0.0675521 0.0518438 0.0493761 0.0469712 0.0453403 0.0612295 0.0903962 0.0802058 0.0750103 0.0703657 0.0724121
22 3 O 2.48581 5.93312 50.6539 -1.2 1 0.188227 0.0939676 0.0329818 0.0206093 0.0343452 0.0494988 0.0618725 0.0608558 0.0441021 0.0681091 0.049202 0.06366 0.0527527 0.0634235 0.105478 0.0687323 0.0755002 0.065942 0.0777073 0.0772446
23 1 Mg -1.92966 4.60952 55.2002 1.2 1 0.0160108 0.0192533 0.0233085 0.0257253 0.0200839 0.0259909 0.0240145 0.0341786 0.0424425 0.0522048 0.0528327 0.0560794 0.0614669 0.0642625 0.0589985 0.0689265 0.0830972 0.0971118 0.0636115 0.0796971
24 2 Si -2.04047 2.62133 53.3003 2.4 1 0.039237 0.0459668 0.0324555 0.0225161 0.0269965 0.0218419 0.0507312 0.0453942 0.0602164 0.0688147 0.05737 0.067413 0.0728669 0.0501143 0.0688193 0.0574235 0.0629399 0.0848795 0.0761499 0.0667919
25 3 O -2.03098 1.12926 53.0336 -1.2 1 0.0358725 0.0575564 0.0270474 0.0160431 0.02782 0.0410678 0.0302957 0.0637246 0.0679168 0.0500222 0.0552839 0.0725101 0.056619 0.0788972 0.077848 0.0779205 0.04426 0.0743767 0.0515255 0.0804319
26 3 O -0.0467762 2.97103 46.8385 -1.2 1 0.497671 0.0374569 0.0883786 0.0295775 0.0797677 0.0683605 0.0816641 0.071862 0.072227 0.0787699 0.0812416 0.0758462 0.0973376 0.0886466 0.0886917 0.0888792 0.0993521 0.0969054 0.104473 0.110779
27 3 O -3.34114 3.25717 54.08 -1.2 1 0.026518 0.0352258 0.0238606 0.0191046 0.0242222 0.0322105 0.0354208 0.0475026 0.0506822 0.0508195 0.0645431 0.040354 0.0590527 0.061397 0.0760107 0.0622103 0.0654283 0.0661183 0.0687272 0.0666581
28 3 O -0.814931 3.30611 54.0477 -1.2 1 0.0376298 0.0214788 0.0366754 0.0170495 0.0242523 0.0278901 0.0410122 0.0411338 0.0420669 0.0562698 0.0659962 0.0424104 0.0500497 0.0765364 0.0772078 0.070384 0.0790603 0.071868 0.0633424 0.0548005
29 1 Mg -3.36529 11.892 57.6075 1.2 1 0.0060871 0.0101771 0.00798915 0.0296193 0.0167495 0.0350559 0.0154 0.0544803 0.0219971 0.0782412 0.020303 0.0501691 0.0224106 0.0683377 0.0274879 0.101196 0.0369054 0.108028 0.0437538 0.0832008
30 1 Mg -1.75014 11.5838 49.8362 1.2 1 0.230727 0.0804724 0.0268545 0.0430604 0.0292746 0.0566301 0.0500295 0.0523642 0.0458097 0.0607627 0.0671818 0.0615609 0.0721748 0.0710076 0.108687 0.0898885 0.0639443 0.0924694 0.0853098 0.079272
31 2 Si -1.18003 9.02138 47.9309 2.4 1 0.371065 0.0663155 0.0664513 0.0510481 0.0431226 0.0642485 0.0725999 0.0745029 0.0690397 0.0650903 0.0576022 0.0659856 0.068304 0.0806259 0.100268 0.066132 0.102976 0.0917307 0.102633 0.0865916
32 3 O -1.23224 10.5991 47.9811 -1.2 1 0.37948 0.0590768 0.0556643 0.0564767 0.0510049 0.0708354 0.0680868 0.0777396 0.0584356 0.086716 0.0706818 0.0655205 0.0720558 0.0781003 0.0819937 0.0682866 0.0880836 0.0797043 0.0654783 0.0719194
33 3 O -1.79016 8.01447 51.8693 -1.2 1 0.113107 0.0649599 0.029194 0.0321204 0.0300038 0.0490774 0.0584589 0.053615 0.0562157 0.0514924 0.0519407 0.0534371 0.0668478 0.0872588 0.0873522 0.0750533 0.0713263 0.056911 0.0754505 0.0648426
34 3 O -2.30986 8.37215 48.8528 -1.2 1 0.310088 0.0899039 0.0674997 0.0242598 0.0559666 0.0630424 0.0644687 0.0644845 0.0554932 0.0643927 0.0790999 0.0674297 0.057539 0.0644693 0.0799839 0.090627 0.0987427 0.0799561 0.0762707 0.0948825
35 1 Mg 0.154883 7.08234 46.8007 1.2 1 0.497317 0.0358538 0.0748903 0.0380426 0.0650397 0.0753736 0.0599115 0.0696537 0.0713787 0.0816706 0.0879824 0.0758512 0.0790995 0.0797168 0.0706162 0.0927625 0.0919711 0.107291 0.114786 0.10227
36 3 O 0.325447 8.50934 48.3809 -1.2 1 0.347441 0.0801211 0.0601481 0.0437891 0.0359616 0.0544384 0.0360516 0.0567171 0.0619564 0.0630204 0.07347 0.0639154 0.078449 0.092355 0.0912308 0.0680802 0.0925283 0.10226 0.0861197 0.0884415
37 1 Mg 1.1778 6.97812 54.6534 1.2 1 0.0144433 0.0305626 0.0166702 0.0275642 0.015704 0.0259278 0.0257376 0.0363148 0.0484606 0.0621924 0.059888 0.0535417 0.0496313 0.0672133 0.0602024 0.0846688 0.067599 0.0924308 0.0697924 0.0829845
38 2 Si 1.16888 9.80566 56.5054 2.4 1 0.0204864 0.021795 0.0247374 0.0248733 0.0287672 0.0330643 0.0417237 0.0445818 0.0531258 0.0506842 0.051823 0.0661945 0.0651413 0.0585337 0.0833479 0.0710365 0.061275 0.0909631 0.056133 0.0599471
39 3 O 1.26365 8.20431 56.5471 -1.2 1 0.024034 0.00901852 0.0244734 0.0174982 0.0202841 0.0342387 0.0199942 0.0677622 0.0371163 0.0524834 0.0386539 0.0618713 0.0612942 0.0639672 0.0737696 0.0670441 0.0658594 0.067993 0.0594445 0.0729189
40 3 O 1.28624 10.7248 52.7351 -1.2 1 0.0695324 0.0395921 0.0366414 0.0237869 0.027 0.051686 0.0516613 0.0511094 0.045505 0.0485135 0.0518414 0.0451731 0.0575428 0.0759903 0.098942 0.0789578 0.072647 0.0563861 0.0811865 0.0583636
41 3 O -0.197286 10.4847 55.9039 -1.2 1 0.00517543 0.0127092 0.0292521 0.0197535 0.0199129 0.0205045 0.043366 0.0442401 0.0376846 0.0386462 0.0562375 0.0427566 0.0556625 0.0554327 0.0893262 0.0678842 0.0748619 0.0604638 0.064864 0.0799672
42 3 O 2.46188 10.5026 55.7712 -1.2 1 0.0197162 0.00891366 0.0230154 0.0160467 0.024545 0.0206924 0.0504391 0.0391406 0.0364167 0.045841 0.056987 0.035834 0.0540773 0.0526347 0.0872232 0.0764767 0.0617042 0.0705134 0.0669179 0.0643064
43 1 Mg -0.262694 9.34741 52.2523 1.2 1 0.113149 0.0656895 0.0207173 0.0422317 0.0333326 0.0458855 0.0360785 0.0726161 0.0281199 0.0893879 0.0284544 0.0588549 0.0391115 0.075072 0.0375895 0.106746 0.0475233 0.0937444 0.0493673 0.105375
44 1 Mg 1.87648 9.01537 49.4629 1.2 1 0.270363 0.0975684 0.0401345 0.0366689 0.0333229 0.0483395 0.0706093 0.0466845 0.075412 0.0623276 0.0843874 0.0556214 0.0831877 0.0668128 0.0842485 0.0959303 0.0872688 0.0953116 0.0839616 0.0920896
45 2 Si 1.21415 11.3799 51.2378 2.4 1 0.131611 0.0841615 0.0406557 0.0375801 0.0393614 0.0522734 0.0520487 0.0413617 0.0594141 0.0638305 0.0759479 0.0705108 0.0781183 0.0672184 0.0926124 0.0926668 0.077209 0.0836274 0.0773637 0.0606882
46 3 O 1.31634 12.9512 51.3023 -1.2 1 0.126352 0.087179 0.0244147 0.0338303 0.0295552 0.048 0.0431402 0.0726667 0.0571584 0.0679098 0.0453849 0.0839723 0.0713504 0.0642805 0.0734452 0.0699885 0.0799243 0.0739601 0.0737498 0.0685807
47 3 O 1.14995 10.4448 57.9466 -1.2 1 0.00768091 0.0163953 0.0279984 0.0217336 0.0144755 0.0326127 0.0336731 0.0447752 0.0564885 0.0473868 0.0403692 0.0416488 0.0533959 0.0653672 0.103196 0.0720236 0.0656052 0.0481792 0.0722083 0.0596064
48 3 O -0.115718 10.7564 50.681 -1.2 1 0.186114 0.085169 0.0220442 0.0205014 0.0477432 0.0318252 0.0500042 0.0670799 0.0537285 0.0590558 0.0628201 0.0561379 0.0659906 0.0735061 0.0923221 0.0794383 0.0751828 0.0757673 0.0801497 0.0855017
49 1 Mg -3.26386 9.35564 52.3622 1.2 1 0.0826809 0.0531673 0.031083 0.0289628 0.0178601 0.0514825 0.0370996 0.0590871 0.0326651 0.0826217 0.0326326 0.0514788 0.037575 0.0661173 0.0391834 0.110778 0.0466262 0.106925 0.051713 0.093464
50 3 O 2.45216 10.7265 50.4558 -1.2 1 0.19711 0.0927261 0.0200234 0.0135538 0.0425405 0.0526631 0.0545249 0.0476282 0.0595337 0.0717296 0.0629674 0.0762126 0.0568062 0.0657021 0.0954173 0.0826512 0.0776107 0.0749748 0.0607633 0.0879472
51 1 Mg -1.83589 9.58645 55.1625 1.2 1 0.0154806 0.0129322 0.0229164 0.0291345 0.0158881 0.0254421 0.029346 0.0314297 0.0386904 0.0557188 0.0618256 0.0588504 0.0646262 0.0704791 0.0664625 0.0814335 0.0741995 0.0840407 0.077674 0.0801319
52 2 Si -1.73687 7.29612 53.395 2.4 1 0.0495063 0.0458376 0.0262909 0.0281406 0.0293321 0.0320073 0.0389348 0.0537722 0.0555619 0.064887 0.0631874 0.05983 0.0726813 0.0492617 0.0630938 0.0694121 0.0639006 0.0822934 0.0731398 0.0531727
53 3 O -1.84228 5.80577 53.3188 -1.2 1 0.0597676 0.037523 0.0237263 0.0223018 0.0168258 0.0291077 0.0353729 0.0673627 0.0467123 0.0645607 0.0365959 0.0733872 0.0552269 0.0712398 0.0645831 0.0641915 0.0626476 0.0570307 0.0711347 0.0652799
54 3 O -1.19417 8.46968 46.4488 -1.2 1 0.524963 0.0662443 0.0667151 0.05096 0.0665384 0.0565583 0.0785658 0.0541735 0.0750769 0.070222 0.0560563 0.0503357 0.0696217 0.0981843 0.129723 0.112384 0.0968195 0.0955464 0.0826977 0.0818488
55 3 O -2.98795 7.96642 54.0282 -1.2 1 0.0317471 0.0217185 0.0325446 0.0226997 0.022092 0.0280704 0.0479371 0.0416617 0.0468438 0.0570416 0.0486794 0.0437426 0.0602164 0.0632809 0.074665 0.0704766 0.0652632 0.0638837 0.0717808 0.0624239
56 3 O -0.424282 8.02336 54.0103 -1.2 1 0.047009 0.0280265 0.0310444 0.0276151 0.0294129 0.0260231 0.0395522 0.0458657 0.0487615 0.0562787 0.0593473 0.0467588 0.0605962 0.0582371 0.0855343 0.0651366 0.0764636 0.0728512 0.0633943 0.0748823
57 1 Mg -3.25214 16.4828 57.5834 1.2 1 0.0102042 0.0173936 0.00780266 0.0333399 0.0145455 0.0360111 0.0152084 0.0529125 0.0203418 0.081901 0.0159699 0.051237 0.0220264 0.0661292 0.0257334 0.0992881 0.038205 0.106578 0.0373178 0.0926145
58 1 Mg -1.6714 16.3544 49.8412 1.2 1 0.234234 0.0776681 0.0238377 0.0438119 0.0287837 0.0511416 0.0530484 0.0531845 0.0474291 0.0580518 0.0631599 0.0665568 0.0710781 0.0735889 0.105108 0.0850921 0.0704907 0.0938509 0.0853959 0.0859643
59 2 Si -1.18567 13.8526 47.9314 2.4 1 0.371905 0.0694527 0.0727506 0.0637561 0.0305874 0.0683157 0.0481282 0.0801037 0.0644541 0.0669348 0.0527146 0.0731541 0.0589501 0.0768862 0.0991397 0.0761565 0.104634 0.0974243 0.0894305 0.0886652
60 3 O -1.09664 15.4205 47.9915 -1.2 1 0.362204 0.0754848 0.0519716 0.0616864 0.0471085 0.0930982 0.061841 0.0817546 0.0522659 0.0870355 0.053179 0.0712216 0.061625 0.085922 0.0845905 0.0744067 0.0954335 0.0780376 0.0728209 0.0695645
61 3 O -1.73493 12.7491 51.7772 -1.2 1 0.116617 0.0545373 0.0324869 0.0337323 0.0285165 0.053643 0.0641752 0.0511659 0.0620113 0.0531427 0.0574429 0.0515333 0.055995 0.0838073 0.103542 0.0754333 0.0822372 0.0509448 0.0723781 0.0716883
62 3 O -2.36115 13.2717 48.8238 -1.2 1 0.302559 0.096057 0.0599959 0.0270214 0.0584266 0.0529414 0.0605218 0.0703197 0.0601102 0.0663289 0.0719483 0.0635461 0.0627686 0.0570687 0.0824832 0.0886543 0.0895389 0.0794561 0.0813588 0.0879162
63 1 Mg -0.159928 11.7639 46.8533 1.2 1 0.482545 0.0257283 0.0769122 0.0338731 0.0535047 0.0976171 0.0709679 0.0873225 0.0827795 0.0853109 0.0846521 0.0685888 0.0716608 0.0919509 0.0781796 0.0867689 0.0970616 0.0966499 0.0980821 0.105263
64 3 O 0.2623 13.1866 48.413 -1.2 1 0.342963 0.0782966 0.0557057 0.0340255 0.0462363 0.0600319 0.039739 0.0674791 0.0655601 0.070447 0.0636964 0.0585298 0.0644242 0.0892544 0.101025 0.0840717 0.0965262 0.0998799 0.0814075 0.0850781
65 1 Mg 1.31221 11.928 54.4816 1.2 1 0.00870803 0.0206103 0.0163965 0.0320149 0.0121219 0.0241743 0.0266479 0.0400722 0.0405191 0.061731 0.059852 0.0578666 0.0595262 0.0643742 0.0732426 0.0719501 0.0742058 0.0757894 0.0883572 0.0652262
66 2 Si 1.33312 14.5539 56.5357 2.4 1 0.0186395 0.00790473 0.0233876 0.0418733 0.0261942 0.0347733 0.0374037 0.0396554 0.0537147 0.0608666 0.0507795 0.0699318 0.0677272 0.0567312 0.0794695 0.0689439 0.0643956 0.0988172 0.0518549 0.0581559
67 3 O 1.33048 12.9791 56.5198 -1.2 1 0.0297622 0.0147907 0.0232858 0.0220162 0.0217817 0.0265512 0.0268829 0.0668027 0.0364483 0.0540165 0.0396639 0.0653667 0.0580486 0.0683953 0.0781967 0.0648815 0.0571479 0.0713355 0.0661432 0.0730854
68 3 O 1.36565 15.4813 52.729 -1.2 1 0.0715949 0.0374945 0.02968 0.0209758 0.0261121 0.0383651 0.0520757 0.0562562 0.0543575 0.0455138 0.0474078 0.0509627 0.0562934 0.0617255 0.102952 0.0734876 0.072481 0.0586063 0.074027 0.0603209
69 3 O 0.0533937 15.1172 55.7817 -1.2 1 0.00694304 0.0107041 0.0320007 0.0196129 0.0219016 0.0215321 0.0357546 0.0478848 0.0346552 0.0493667 0.0497694 0.0413242 0.0524465 0.0638154 0.0840727 0.067844 0.077452 0.0623298 0.0661686 0.0677087
70 3 O 2.55208 15.3468 55.9187 -1.2 1 0.0251477 0.00790139 0.0350236 0.0180661 0.0268515 0.015569 0.0408676 0.0416288 0.0403846 0.0361096 0.0554819 0.0406978 0.0511862 0.0519659 0.0915469 0.0695112 0.0746306 0.058069 0.0606279 0.0591404
71 1 Mg -0.206989 14.1049 52.2121 1.2 1 0.103632 0.0641274 0.025134 0.040981 0.0336776 0.0448845 0.0377279 0.0717132 0.0245653 0.0850933 0.023673 0.0596578 0.0279887 0.0758525 0.0333516 0.107808 0.0437239 0.102548 0.0389441 0.0981608
72 1 Mg 1.82591 13.8102 49.4556 1.2 1 0.263598 0.103501 0.0308 0.0400975 0.0366922 0.0365788 0.0704531 0.0420129 0.0706755 0.0713355 0.0745372 0.0584975 0.0749318 0.0710766 0.0867747 0.0953714 0.0805793 0.0965106 0.0875733 0.0826276
73 2 Si 1.29285 16.1518 51.2434 2.4 1 0.128229 0.0858951 0.0413814 0.0346995 0.0382527 0.0526417 0.0530738 0.0433976 0.0558525 0.0654062 0.0672646 0.0696207 0.0710663 0.0720813 0.0916343 0.0819472 0.0771679 0.0886954 0.0745054 0.0623948
74 3 O 1.39496 17.7199 51.3047 -1.2 1 0.128098 0.0846748 0.0257464 0.0320854 0.0364069 0.0454616 0.0458267 0.0703015 0.0609985 0.067228 0.0429327 0.0783509 0.0752748 0.0669322 0.0751837 0.0685479 0.0755263 0.0745835 0.068871 0.0723163
75 3 O 1.25911 15.0867 58.0319 -1.2 1 0.0160266 0.0251346 0.0273279 0.0186593 0.025226 0.0331988 0.0334638 0.0482494 0.0497555 0.0500654 0.0396663 0.0509859 0.0552345 0.0696134 0.101712 0.0629127 0.0652051 0.059426 0.0691553 0.0649049
76 3 O -0.0269106 15.5178 50.6688 -1.2 1 0.186213 0.0839402 0.024981 0.0220235 0.0452846 0.0383112 0.0568106 0.0630463 0.0558164 0.0570248 0.0599292 0.0464256 0.0598022 0.075039 0.0946961 0.0815134 0.0728143 0.080524 0.0729406 0.0924649
77 1 Mg -3.18391 14.1057 52.3125 1.2 1 0.0798195 0.0530322 0.0322054 0.031621 0.0182377 0.05285 0.032207 0.0626109 0.0316691 0.0803922 0.0330837 0.0476094 0.0268609 0.0761801 0.0317832 0.107651 0.0488125 0.107944 0.041993 0.0867246
78 3 O 2.52432 15.503 50.4579 -1.2 1 0.186028 0.0992763 0.0210259 0.0142397 0.0417744 0.0587502 0.058321 0.0456375 0.0575998 0.0673792 0.06952 0.0670965 0.0586702 0.0656996 0.104247 0.0786963 0.0761308 0.0773811 0.0635229 0.0825565
79 1 Mg -1.69931 14.2181 55.088 1.2 1 0.0188157 0.0110784 0.0191551 0.027161 0.013543 0.0198454 0.0246988 0.028217 0.0399371 0.0607433 0.0595022 0.0581742 0.0544551 0.0633418 0.0614087 0.0830666 0.0700256 0.0964039 0.066003 0.0911522
80 2 Si -1.70501 12.107 53.2611 2.4 1 0.0589597 0.0364225 0.0155877 0.02508 0.0339765 0.0345517 0.0500565 0.05336 0.0630091 0.0617954 0.0588327 0.069506 0.0769313 0.0537014 0.0727854 0.061232 0.066204 0.085659 0.06252 0.0646931
81 3 O -1.86516 10.5466 53.3795 -1.2 1 0.0553754 0.033897 0.0250747 0.0222482 0.0284356 0.0339617 0.0272665 0.0737471 0.0460152 0.0592656 0.0438377 0.0670951 0.0633223 0.0748251 0.0727445 0.0579907 0.059217 0.0530864 0.0715278 0.0703984
82 3 O -1.21337 13.3381 46.4311 -1.2 1 0.520234 0.0681901 0.0696713 0.0411887 0.0564879 0.0576886 0.0577529 0.0707099 0.0801586 0.0660911 0.0460098 0.0712972 0.0684258 0.0883464 0.121097 0.114856 0.106502 0.099748 0.0604145 0.0920066
83 3 O -3.01512 12.8635 53.9382 -1.2 1 0.0244919 0.0245225 0.0326384 0.0207682 0.0247438 0.0224551 0.055206 0.0471856 0.0434674 0.0469159 0.0534926 0.0415344 0.0519838 0.0631986 0.0884578 0.0698646 0.0743193 0.0590989 0.0620833 0.0677755
84 3 O -0.493174 12.7249 53.9728 -1.2 1 0.0432495 0.017352 0.0299344 0.0193998 0.0300594 0.0238646 0.0370568 0.0491574 0.0417528 0.0547065 0.0611823 0.0444288 0.0573099 0.0696402 0.0835182 0.0699009 0.0758522 0.0659505 0.0699924 0.0716455
85 1 Mg -3.08675 21.3286 57.1873 1.2 1 0.0134988 0.023489 0.0120799 0.0330603 0.0132003 0.0291151 0.0176348 0.0509728 0.0296915 0.0764539 0.0263926 0.0470242 0.0242549 0.065872 0.0356845 0.0970349 0.0469302 0.103492 0.0550614 0.0807318
86 1 Mg -1.5831 21.1217 49.8405 1.2 1 0.226425 0.0850894 0.0233031 0.0425841 0.0296753 0.0525873 0.0543925 0.0536818 0.049709 0.0618498 0.0643645 0.0659191 0.0736818 0.0752515 0.103321 0.082551 0.0721121 0.0943792 0.0849588 0.0845144
87 2 Si -1.09384 18.6291 47.9287 2.4 1 0.376409 0.0629549 0.0651834 0.0685115 0.0282532 0.0683291 0.0454395 0.0782236 0.0648684 0.0693263 0.0539029 0.0738396 0.0605423 0.0755894 0.100462 0.0719912 0.104132 0.0931806 0.0895986 0.0888852
88 3 O -1.02071 20.1985 47.9911 -1.2 1 0.36581 0.0698376 0.0491692 0.0627774 0.0452012 0.0922919 0.0626737 0.082342 0.0571421 0.0880174 0.0547839 0.0741238 0.0619815 0.0814502 0.0809259 0.073485 0.0932506 0.0762563 0.0740196 0.0687257
89 3 O -1.65002 17.5002 51.771 -1.2 1 0.110514 0.0566203 0.0351753 0.0321719 0.0310798 0.0556588 0.0600539 0.0502787 0.0643613 0.0525097 0.0586798 0.0520903 0.0529119 0.0840052 0.10217 0.0772323 0.0795918 0.0423915 0.078293 0.0755888
90 3 O -2.26174 18.0434 48.8281 -1.2 1 0.30179 0.0963786 0.0595454 0.0293399 0.0608219 0.0492994 0.0541046 0.0731366 0.0585732 0.0646797 0.0746967 0.0614405 0.054943 0.0566737 0.0780405 0.086817 0.0850117 0.0795103 0.0821175 0.0881498
91 1 Mg -0.0440435 16.5651 46.8269 1.2 1 0.481206 0.0215672 0.0808958 0.0327231 0.0668244 0.0872097 0.0789525 0.085437 0.0687072 0.0840694 0.0853575 0.0619768 0.063245 0.0775883 0.0761341 0.0938115 0.0937954 0.0960174 0.0992068 0.105526
92 3 O 0.37001 17.9877 48.3925 -1.2 1 0.348137 0.0754387 0.0564886 0.0395873 0.046854 0.0612819 0.041266 0.0643001 0.0639387 0.0735879 0.0616619 0.0561658 0.0671844 0.0869583 0.0929069 0.0766518 0.0935957 0.103151 0.0807846 0.0849354
93 1 Mg 1.4033 16.5799 54.6253 1.2 1 0.0107896 0.0230318 0.0114232 0.0296576 0.011657 0.0170539 0.0193335 0.0345509 0.0446842 0.061471 0.0621834 0.0544811 0.0583372 0.0641386 0.0643107 0.0845194 0.070711 0.0955949 0.0728354 0.0846482
94 2 Si 1.33908 19.2257 56.4515 2.4 1 0.0179119 0.00948076 0.0219226 0.0209584 0.0295296 0.0305926 0.0424181 0.036106 0.0538546 0.0516048 0.0500923 0.0557861 0.0698991 0.0587438 0.0816857 0.0703013 0.0652521 0.085556 0.058749 0.0541231
95 3 O 1.16806 17.7061 56.6214 -1.2 1 0.0320731 0.00918687 0.0252149 0.0282239 0.0236374 0.0276488 0.0266407 0.0650981 0.0431839 0.049467 0.046187 0.0684234 0.059765 0.0621619 0.075914 0.06172 0.0634407 0.0746834 0.056948 0.0720125
96 3 O 1.45147 20.239 52.7294 -1.2 1 0.0685599 0.0433185 0.024657 0.0214223 0.0279382 0.0393288 0.0542605 0.0544971 0.0523319 0.0485401 0.0443491 0.0487411 0.0552465 0.0701006 0.102151 0.0766905 0.0715876 0.0536682 0.0664348 0.0619844
97 3 O 0.160122 19.9777 55.5989 -1.2 1 0.0134321 0.0207128 0.0167771 0.0201011 0.0212489 0.0245953 0.0402363 0.0401639 0.0367499 0.0529582 0.0548669 0.0443382 0.0572529 0.0527621 0.084558 0.0748073 0.0735661 0.0652867 0.0625997 0.064225
98 3 O 2.66769 19.9017 55.766 -1.2 1 0.0239877 0.0132734 0.0280809 0.0154907 0.0205649 0.0196998 0.0490811 0.0456313 0.0401971 0.0434903 0.0542382 0.0354036 0.0580049 0.0628572 0.0765907 0.07856 0.0807157 0.0640756 0.065793 0.0644481
99 1 Mg -0.126194 18.8651 52.2079 1.2 1 0.103257 0.0641722 0.0275529 0.0456712 0.0310269 0.0410617 0.0357117 0.0735837 0.0286361 0.0867034 0.0278139 0.0558197 0.03367 0.073622 0.0358793 0.107216 0.0393658 0.105684 0.0401698 0.10128
100 1 Mg 1.92402 18.5815 49.4545 1.2 1 0.268296 0.100571 0.0311481 0.0403755 0.0310558 0.0338014 0.0687087 0.042427 0.0674754 0.0727776 0.079955 0.059092 0.0712026 0.0663162 0.0842983 0.0925955 0.0798522 0.0977898 0.0846091 0.0850788
101 2 Si 1.38106 20.9117 51.2443 2.4 1 0.126773 0.0883018 0.0407537 0.0399824 0.039564 0.0480751 0.0557419 0.0457197 0.0541654 0.0694693 0.0665102 0.072476 0.0718915 0.0695135 0.090538 0.0874498 0.0747785 0.0828774 0.0709679 0.0659726
102 3 O 1.48527 22.4795 51.3054 -1.2 1 0.146102 0.0693561 0.0301743 0.0378643 0.0302283 0.0440268 0.0405042 0.0676726 0.0521691 0.0634165 0.0446563 0.0766268 0.0679027 0.0617343 0.0724319 0.0680736 0.0817734 0.0730336 0.0655688 0.0738607
103 3 O 1.3197 19.9325 57.879 -1.2 1 0.00753619 0.0185301 0.0236924 0.0119101 0.0164792 0.0331384 0.034565 0.0518653 0.0608537 0.04012 0.0392212 0.0487271 0.0495206 0.0606244 0.105344 0.0650336 0.0681055 0.0506192 0.0721681 0.0609294
104 3 O 0.0615419 20.2804 50.6669 -1.2 1 0.179222 0.0861548 0.0209425 0.0260581 0.0466169 0.0402319 0.0576003 0.0637786 0.0569912 0.0580459 0.0594353 0.0538571 0.0636504 0.0786562 0.0983207 0.0804476 0.0770736 0.081347 0.0740407 0.0862831
105 1 Mg -3.09665 18.8643 52.3122 1.2 1 0.0739596 0.0562654 0.0316649 0.0356043 0.0167506 0.0529165 0.0337465 0.0661965 0.0339213 0.0811581 0.0323733 0.0465616 0.0223861 0.0764893 0.0320746 0.108917 0.0434126 0.104159 0.0435201 0.0892373
106 3 O 2.61548 20.2646 50.4626 -1.2 1 0.195065 0.0965626 0.020892 0.0209299 0.0362511 0.0572723 0.0562841 0.0411697 0.0592604 0.0682621 0.0665722 0.0674589 0.0552847 0.0645829 0.0994337 0.0736343 0.0747062 0.073189 0.0616405 0.0851366
107 1 Mg -1.61979 18.9897 55.1913 1.2 1 0.0259219 0.0130274 0.0213043 0.0229434 0.0174119 0.0239387 0.0311707 0.031965 0.0409365 0.0544703 0.0551008 0.061921 0.0600085 0.0606432 0.0652491 0.0688942 0.0887385 0.0899337 0.0720222 0.0789237
108 2 Si -1.61749 16.8099 53.3152 2.4 1 0.0551358 0.0314392 0.0224354 0.0267615 0.03219 0.0317039 0.0466615 0.0538662 0.053758 0.0625505 0.059807 0.066551 0.0789097 0.0513312 0.0729522 0.0668958 0.0657637 0.0826942 0.0653584 0.0595073
109 3 O -1.64016 15.2397 53.1281 -1.2 1 0.0552989 0.045506 0.0288068 0.0243131 0.0254825 0.0388943 0.0313414 0.0752846 0.0533451 0.0555883 0.0473718 0.0706474 0.0614094 0.0751724 0.0721546 0.0658231 0.0527753 0.0778242 0.0554816 0.0795141
110 3 O -1.12868 18.1227 46.4249 -1.2 1 0.522023 0.0665305 0.0728128 0.0519314 0.0574653 0.0652752 0.0612335 0.0790092 0.0791941 0.0617234 0.044738 0.0679996 0.0677133 0.0875331 0.116334 0.114688 0.107136 0.100851 0.0622426 0.0924195
111 3 O -2.91976 17.4451 54.0178 -1.2 1 0.0343027 0.0203061 0.0322084 0.0215256 0.0229444 0.0268857 0.0447448 0.0457733 0.0415897 0.0632595 0.0482873 0.0407883 0.0493135 0.0663465 0.0719209 0.0753652 0.0684124 0.0599604 0.0644372 0.0667924
112 3 O -0.317555 17.4816 54.0014 -1.2 1 0.0388459 0.0288647 0.0291012 0.0256892 0.0187162 0.0246956 0.0423094 0.0428324 0.042111 0.0569835 0.0539192 0.0419077 0.0597937 0.0654109 0.0837498 0.0694195 0.0760299 0.0675565 0.0679021 0.0731919
113 1 Mg -3.11285 26.0878 57.3155 1.2 1 0.00646542 0.0186623 0.010773 0.0368001 0.00902577 0.0314519 0.00843871 0.059548 0.0124533 0.07818 0.0157126 0.0492359 0.0179589 0.0711279 0.0196237 0.0998756 0.0286081 0.119679 0.0279052 0.0925083
114 1 Mg -1.48778 25.88 49.8402 1.2 1 0.23004 0.0805935 0.0247109 0.0421746 0.0322189 0.0493628 0.054575 0.0553784 0.0503949 0.0612584 0.0620417 0.0646054 0.0718669 0.0714436 0.102871 0.0814293 0.072793 0.0936541 0.0840738 0.0833828
115 2 Si -1.00491 23.3922 47.9274 2.4 1 0.373019 0.0650206 0.0633293 0.0737068 0.0303894 0.0748483 0.0433193 0.0838842 0.0682889 0.0728756 0.0521285 0.07589 0.0592035 0.0750007 0.095511 0.0754792 0.101976 0.0945195 0.0893884 0.0927666
116 3 O -0.927602 24.9615 47.9909 -1.2 1 0.365918 0.0690354 0.0479193 0.0632404 0.0455696 0.0916434 0.0636347 0.0826636 0.0570277 0.088498 0.0540216 0.071647 0.0604572 0.0814996 0.080783 0.0743371 0.0948797 0.0768979 0.0748195 0.0686156
117 3 O -1.55795 22.2588 51.7696 -1.2 1 0.112208 0.0577519 0.0325027 0.0268887 0.032444 0.0535801 0.0594725 0.0490141 0.0638954 0.0536507 0.0577948 0.0498414 0.0538396 0.0816725 0.103033 0.0797086 0.0806667 0.0459976 0.075239 0.0746388
118 3 O -2.17411 22.8111 48.8277 -1.2 1 0.310963 0.0856974 0.0529876 0.035575 0.0562879 0.0474067 0.0514264 0.0721707 0.060915 0.067129 0.0714074 0.0591841 0.0532794 0.0546113 0.0773359 0.0839866 0.0843096 0.0783884 0.0825229 0.0885359
119 1 Mg 0.0423997 21.3296 46.8225 1.2 1 0.481631 0.0227189 0.0808233 0.032424 0.0660484 0.0881658 0.0788133 0.0848027 0.0690944 0.0841687 0.0849598 0.0618581 0.0639064 0.0788158 0.0769991 0.0938972 0.0954194 0.0968316 0.0978913 0.104836
120 3 O 0.458537 22.7495 48.3911 -1.2 1 0.34141 0.0833208 0.0590044 0.0416993 0.0444474 0.0607533 0.0424464 0.0675823 0.0672754 0.0740601 0.061139 0.0572137 0.0670464 0.0870052 0.0929022 0.0752946 0.0927615 0.101438 0.0819995 0.0862093
121 1 Mg 1.44374 21.1994 54.5457 1.2 1 0.00958983 0.030808 0.017081 0.0314516 0.0110144 0.0180303 0.0238743 0.0363001 0.0466862 0.0587016 0.0540363 0.0512675 0.0573182 0.0688689 0.0627408 0.0742964 0.0659901 0.10165 0.0642558 0.0830671
122 2 Si 1.40395 23.9523 56.3245 2.4 1 0.0133769 0.0185727 0.0172653 0.0293354 0.0322521 0.0299571 0.0412607 0.0403009 0.0522288 0.0605213 0.0547268 0.0601558 0.0692931 0.0586663 0.0835347 0.076338 0.0554998 0.0897405 0.0659942 0.0635449
123 3 O 1.39697 22.4214 56.4047 -1.2 1 0.0125137 0.0141172 0.0112517 0.0224029 0.028046 0.0255331 0.022087 0.0729786 0.0384627 0.0558884 0.0390526 0.0660846 0.0567992 0.0652297 0.0707932 0.0663048 0.0551956 0.0723759 0.0691418 0.0672171
124 3 O 1.54441 24.9963 52.7297 -1.2 1 0.069158 0.039667 0.0329786 0.0237672 0.0222362 0.0410461 0.0535616 0.054505 0.0508734 0.0463791 0.0477643 0.052707 0.0564993 0.0685856 0.102258 0.073574 0.0686991 0.062881 0.0737596 0.0618182
125 3 O 0.183288 24.7627 55.6098 -1.2 1 0.0082212 0.0212006 0.0200254 0.0193629 0.0211159 0.0182721 0.042635 0.0433098 0.0381268 0.0508707 0.0515278 0.0471482 0.0553804 0.0545516 0.0909773 0.0731871 0.0671656 0.0622186 0.0625987 0.0693579
126 3 O 2.69441 24.6667 55.7341 -1.2 1 0.0101707 0.0174813 0.0267184 0.0170424 0.0209528 0.0188162 0.0439989 0.048189 0.0378436 0.0463107 0.0513856 0.037507 0.0532919 0.0646404 0.0823746 0.0783759 0.0767553 0.0603402 0.0718813 0.0669774