ITEM: TIMESTEP
71700
ITEM: NUMBER OF ATOMS
10500
ITEM: BOX BOUNDS xy xz yz pp pp pp
0	8.9688	2.9896
0	118.725	0
0	252.977	0
ITEM: ATOMS id type element xu yu zu q Q_1 Q_2 Q_3 Q_4 Q_5 Q_6 Q_7 Q_8 Q_9 Q_10 Q_11 Q_12 Q_13 Q_14 Q_15 Q_16 Q_17 Q_18 Q_19 Q_20 Q_21
1 1 Mg -3.09634 7.12203 57.1313 1.2 1 0.0139957 0.0125002 0.0205362 0.0237931 0.0220991 0.0300572 0.0297075 0.0391822 0.0522557 0.0659187 0.0441565 0.052023 0.0380788 0.0531041 0.0531171 0.0883575 0.0756634 0.0908233 0.0688501 0.0646091
2 1 Mg -1.82655 6.90154 50.0912 1.2 1 0.218914 0.0858492 0.0318113 0.0271399 0.028693 0.0523599 0.0499126 0.0427947 0.0566355 0.0654305 0.053929 0.0780981 0.0671442 0.0631973 0.0948553 0.058779 0.0848073 0.0998328 0.0738995 0.0788184
3 2 Si -0.257935 3.96038 48.0876 2.4 1 0.366749 0.0774149 0.0772758 0.0285072 0.0604024 0.049717 0.0693954 0.0793527 0.0647738 0.0780047 0.0556182 0.0724004 0.0650924 0.087779 0.102187 0.10246 0.107695 0.0875587 0.0693695 0.0735992
4 3 O -0.335812 5.46814 47.6264 -1.2 1 0.427457 0.0392695 0.0634807 0.0320037 0.0408319 0.0473818 0.0648926 0.0712045 0.0877271 0.0758402 0.0923034 0.0759937 0.0714247 0.0681629 0.0898385 0.123242 0.0923656 0.0776342 0.0751419 0.0797812
5 3 O -2.03793 3.43377 51.8941 -1.2 1 0.117837 0.0575586 0.0275415 0.0226876 0.0211062 0.0498736 0.0583573 0.0522348 0.0501693 0.0568324 0.0632311 0.0512147 0.0486861 0.0751931 0.0911395 0.0811955 0.066911 0.0537958 0.0712507 0.0658299
6 3 O -1.54015 3.53929 48.9521 -1.2 1 0.298752 0.0944961 0.0355609 0.0460819 0.0398451 0.0486731 0.069847 0.0554965 0.0550655 0.0592251 0.0802958 0.0677335 0.0712483 0.0707052 0.0726101 0.10782 0.0791427 0.0770161 0.0755668 0.0869542
7 1 Mg 1.82954 2.54582 47.1376 1.2 1 0.463798 0.0275147 0.0790649 0.0510746 0.0387887 0.0832942 0.0626724 0.0597972 0.0761439 0.0901816 0.0693313 0.0764983 0.0843859 0.0888058 0.0700762 0.0950103 0.0996498 0.100218 0.104794 0.102581
8 3 O 1.22989 3.66364 48.7877 -1.2 1 0.325283 0.0673156 0.0209636 0.042106 0.0317998 0.0650538 0.0775077 0.0336772 0.085325 0.0787687 0.0523495 0.0776405 0.0809737 0.0673312 0.0695233 0.085127 0.0892467 0.0883285 0.0929859 0.0905505
9 1 Mg 1.007 2.43021 54.5024 1.2 1 0.0186875 0.022669 0.0188084 0.0316618 0.0290054 0.0355167 0.0220917 0.0276915 0.0410707 0.060587 0.057606 0.0610819 0.0729259 0.0608095 0.0667188 0.0779512 0.0709403 0.0780664 0.0855907 0.0563256
10 2 Si 1.31711 4.88498 56.5775 2.4 1 0.0122851 0.0225064 0.0256076 0.0297793 0.0225326 0.0246141 0.0440137 0.0421112 0.0618782 0.0609837 0.0593873 0.0519241 0.0590774 0.0520381 0.0776106 0.0706549 0.071908 0.0860089 0.0757268 0.0580528
11 3 O 0.895262 3.38458 56.5756 -1.2 1 0.0149135 0.0244603 0.0189525 0.021579 0.0149442 0.0314773 0.0348652 0.0671538 0.042437 0.0489232 0.0450701 0.058064 0.0524172 0.0591924 0.0810682 0.0693197 0.057012 0.076846 0.0561325 0.0798259
12 3 O 1.10813 6.07342 52.8172 -1.2 1 0.0880397 0.044235 0.0223287 0.0171121 0.0228989 0.0399617 0.0441584 0.0480064 0.0495421 0.0470075 0.053346 0.0517972 0.0671774 0.0639063 0.0843137 0.0823201 0.0564045 0.066906 0.0705403 0.0655819
13 3 O -0.0106488 5.70891 55.9256 -1.2 1 0.0196027 0.0128145 0.0402081 0.023098 0.0248251 0.0173039 0.0368789 0.0306886 0.037988 0.0468978 0.0498936 0.0502584 0.0434116 0.060262 0.0833678 0.071527 0.0741563 0.0549697 0.0797835 0.0581743
14 3 O 2.41479 5.6186 55.713 -1.2 1 0.0217938 0.0275774 0.022668 0.0200974 0.0195617 0.0219491 0.0456886 0.0429761 0.0445971 0.0491488 0.0574372 0.0374293 0.055773 0.0563477 0.0810607 0.0681409 0.0735752 0.0768585 0.0680364 0.068102
15 1 Mg -0.459401 4.67631 52.2426 1.2 1 0.0965162 0.0650653 0.03389 0.0408026 0.030417 0.0302977 0.0412648 0.0587635 0.0449209 0.0799876 0.0470036 0.0595409 0.0538835 0.0712219 0.0455828 0.0970165 0.0581058 0.0908944 0.0564566 0.0828677
16 1 Mg 2.79456 3.9971 49.9987 1.2 1 0.229324 0.0919163 0.0383352 0.0350347 0.0405583 0.063792 0.0562962 0.0533546 0.0755186 0.0632114 0.0609313 0.0541497 0.0619576 0.0689015 0.0802742 0.0761527 0.0755893 0.0902117 0.0799917 0.0693997
17 2 Si 1.16169 6.59457 51.2556 2.4 1 0.137989 0.0880017 0.0371094 0.0329103 0.0410482 0.0520407 0.0439807 0.046962 0.0586313 0.0631156 0.0655154 0.0738625 0.0698709 0.0650141 0.0833215 0.0884594 0.0797927 0.0897931 0.0718108 0.0646378
18 3 O 1.28989 8.18905 51.2909 -1.2 1 0.155067 0.0760645 0.0287483 0.0427244 0.0273488 0.0485051 0.0375907 0.0731902 0.0433559 0.0725272 0.0381049 0.0842355 0.0682811 0.0622562 0.075729 0.0681394 0.0760447 0.0645147 0.0668709 0.0712708
19 3 O 1.21132 5.61994 57.8945 -1.2 1 0.00196537 0.0165065 0.0146986 0.0199893 0.0225589 0.0376108 0.0320969 0.0430558 0.0588165 0.0433425 0.0495073 0.0498544 0.0544275 0.0718999 0.0977816 0.0715832 0.0728895 0.0610515 0.0693024 0.0574918
20 3 O -0.184847 6.06029 50.6845 -1.2 1 0.180966 0.0826885 0.0224071 0.0324609 0.0373045 0.0293929 0.0540337 0.0626387 0.0558098 0.0596876 0.0655392 0.0763672 0.0613393 0.0573653 0.0913874 0.0731176 0.0792375 0.0795838 0.0625047 0.0797404
21 1 Mg -3.49704 4.67769 52.6661 1.2 1 0.0647852 0.0545162 0.0246472 0.0256113 0.0170075 0.0408136 0.0299102 0.0622323 0.0537628 0.0670882 0.0485254 0.0531302 0.0554046 0.0524864 0.0604211 0.0847843 0.0838881 0.0737197 0.0756743 0.082744
22 3 O 2.48581 5.93312 50.6539 -1.2 1 0.198145 0.0897422 0.0294812 0.0179926 0.0309504 0.0486077 0.0564034 0.0571526 0.0442353 0.060791 0.0489637 0.0667246 0.0512282 0.0581834 0.100182 0.0621556 0.0775171 0.0671988 0.0803411 0.0763549
23 1 Mg -1.82873 4.49003 55.2666 1.2 1 0.0228671 0.0221445 0.0251937 0.020212 0.0241972 0.0261545 0.0292447 0.0338319 0.0429469 0.0467815 0.0509621 0.0563488 0.0594232 0.0652554 0.0626602 0.0564133 0.0823698 0.0986896 0.0586151 0.0801572
24 2 Si -1.96098 2.54392 53.4599 2.4 1 0.046675 0.0312586 0.0218809 0.0241228 0.024349 0.0183918 0.0433188 0.0472052 0.0610321 0.0687301 0.0598099 0.0636361 0.0726654 0.0592394 0.0611716 0.0624594 0.0610545 0.0883708 0.0788971 0.0799681
25 3 O -2.01394 1.05438 53.0632 -1.2 1 0.0552778 0.0468667 0.0234757 0.0214529 0.0232757 0.0374361 0.0292912 0.0681279 0.0700575 0.0522788 0.0545586 0.0633319 0.0597398 0.0748314 0.0779311 0.074606 0.0487147 0.073934 0.0613728 0.0881113
26 3 O -0.0467762 2.97103 46.8385 -1.2 1 0.497845 0.0373013 0.0871878 0.0295896 0.0803163 0.0671266 0.0801514 0.0713195 0.0726717 0.0800685 0.0825814 0.0755098 0.096287 0.088845 0.0897623 0.0883532 0.0974215 0.0958774 0.105114 0.111211
27 3 O -3.05471 3.37033 54.223 -1.2 1 0.0237994 0.0299916 0.0231661 0.0170172 0.0236285 0.0274297 0.0390418 0.0371869 0.0488397 0.0538215 0.058046 0.049135 0.0548581 0.0577579 0.0744851 0.0678159 0.0559949 0.078276 0.0637633 0.0608641
28 3 O -0.566255 3.2173 54.0022 -1.2 1 0.0273387 0.0404097 0.0333286 0.0183206 0.018268 0.0308946 0.0424256 0.0472724 0.0403428 0.060083 0.0591004 0.0417286 0.0576226 0.0727195 0.0787297 0.070721 0.0805381 0.072939 0.066491 0.0634415
29 1 Mg -3.41794 11.6594 57.5573 1.2 1 0.00971633 0.0146975 0.0157613 0.0284146 0.015073 0.0343287 0.0182715 0.0499208 0.0317062 0.0694895 0.0305502 0.0517904 0.0370935 0.0666805 0.0412161 0.100374 0.04897 0.106118 0.0568721 0.0723098
30 1 Mg -1.75014 11.5838 49.8362 1.2 1 0.230971 0.0793574 0.0276551 0.0407481 0.0285879 0.055048 0.0487557 0.0552133 0.0478519 0.0582356 0.0656946 0.0640509 0.0723557 0.0712636 0.109321 0.0877748 0.0654089 0.0939525 0.086584 0.0793065
31 2 Si -1.18003 9.02138 47.9309 2.4 1 0.374339 0.0637305 0.068242 0.0501418 0.0439234 0.0628218 0.0708165 0.0733436 0.0636442 0.0650353 0.0616276 0.0650202 0.0674167 0.0809934 0.101047 0.0663335 0.100378 0.0917716 0.10543 0.0884958
32 3 O -1.23224 10.5991 47.9811 -1.2 1 0.378376 0.0611422 0.0595239 0.0517455 0.0544843 0.0737056 0.0655861 0.0769786 0.0551922 0.0827255 0.0677354 0.0654962 0.0748056 0.0796348 0.0799002 0.0707373 0.0937223 0.0819341 0.0652656 0.0704417
33 3 O -1.79016 8.01447 51.8693 -1.2 1 0.114078 0.0617651 0.0322157 0.0314803 0.0274218 0.0488769 0.0566343 0.0569055 0.0550038 0.0565335 0.0446102 0.0561128 0.067325 0.0839903 0.090001 0.0742352 0.0733395 0.0564867 0.0713921 0.0686263
34 3 O -2.30986 8.37215 48.8528 -1.2 1 0.315131 0.0830808 0.0635185 0.0242618 0.0518874 0.0617341 0.0623566 0.0638218 0.0581357 0.0679556 0.08197 0.0665905 0.0557904 0.0620516 0.0811025 0.093754 0.0988526 0.0766151 0.0721508 0.0929516
35 1 Mg 0.154883 7.08234 46.8007 1.2 1 0.49292 0.0288174 0.0814968 0.0384709 0.0635922 0.073281 0.0596183 0.0734024 0.0727684 0.0784303 0.0855421 0.0765442 0.0804127 0.079563 0.0703625 0.0942671 0.0929708 0.105303 0.111721 0.101812
36 3 O 0.325447 8.50934 48.3809 -1.2 1 0.343128 0.0878226 0.0664798 0.0471804 0.034407 0.0532649 0.0395817 0.059102 0.0618877 0.062356 0.0771142 0.0684831 0.0771016 0.0923043 0.0935048 0.070716 0.0931694 0.101822 0.0865157 0.0921111
37 1 Mg 1.03815 6.94042 54.5942 1.2 1 0.0245727 0.0264011 0.0122003 0.0291512 0.0170723 0.0275678 0.0236406 0.0352099 0.0439683 0.0611844 0.0543223 0.0447878 0.0510419 0.0627239 0.0641902 0.0768728 0.0716944 0.0831489 0.074146 0.0706723
38 2 Si 1.25523 9.67222 56.3248 2.4 1 0.0208385 0.0207686 0.0219557 0.0160889 0.032996 0.0334494 0.0365026 0.0410573 0.0488427 0.0518184 0.0540415 0.0610461 0.0589465 0.0695702 0.0707041 0.075097 0.0591173 0.0977869 0.0696317 0.0574251
39 3 O 1.20523 8.13057 56.476 -1.2 1 0.0315028 0.0227744 0.0130883 0.0247592 0.0236269 0.0259227 0.0237473 0.0698996 0.0331872 0.0536179 0.0252718 0.074239 0.0663567 0.0648385 0.068981 0.0623728 0.0675943 0.0703797 0.0617852 0.0750726
40 3 O 1.28624 10.7248 52.7351 -1.2 1 0.0828133 0.0452782 0.0266199 0.0216074 0.0262813 0.0434697 0.0508821 0.0505106 0.0448853 0.0461772 0.0487737 0.0435389 0.060927 0.0618851 0.0911813 0.0760839 0.0674631 0.0536175 0.0727286 0.0602441
41 3 O 0.018864 10.4297 55.8308 -1.2 1 0.0184452 0.0118208 0.0288077 0.0177802 0.01948 0.0252789 0.0431076 0.0363293 0.0301339 0.0374547 0.0532658 0.0434893 0.0488523 0.0619025 0.0800085 0.067921 0.074448 0.0670032 0.0665025 0.0637705
42 3 O 2.45145 10.4301 55.7523 -1.2 1 0.011381 0.0130468 0.0251125 0.0177009 0.0245947 0.0189126 0.0499659 0.0415644 0.0335353 0.0441372 0.0548079 0.0423501 0.0549488 0.0583136 0.086835 0.0691952 0.070176 0.0718647 0.0580221 0.0616045
43 1 Mg -0.262694 9.34741 52.2523 1.2 1 0.11639 0.0648414 0.0181427 0.0444944 0.0313981 0.0430986 0.043714 0.0694626 0.0292358 0.0816747 0.0301631 0.0558669 0.0408895 0.0696047 0.0411698 0.106397 0.0490041 0.0861176 0.0504472 0.102797
44 1 Mg 1.87648 9.01537 49.4629 1.2 1 0.277281 0.0867331 0.0370304 0.0338584 0.0375753 0.0446425 0.0671569 0.0496978 0.0776025 0.0642301 0.0861965 0.0560364 0.0862558 0.0695712 0.0864504 0.0941629 0.0861627 0.0992318 0.0876065 0.0887659
45 2 Si 1.21415 11.3799 51.2378 2.4 1 0.141789 0.0785867 0.0393346 0.0395508 0.0407263 0.0501873 0.0557108 0.0408815 0.0563618 0.067818 0.0749013 0.0724658 0.0800037 0.066533 0.0872384 0.088251 0.075372 0.0760967 0.079655 0.0623111
46 3 O 1.31634 12.9512 51.3023 -1.2 1 0.139286 0.0768373 0.027273 0.0342781 0.0356499 0.0435024 0.039373 0.0696695 0.0601341 0.0684025 0.0420541 0.0779982 0.0660515 0.0620686 0.0744927 0.0674856 0.0781721 0.0726794 0.0728838 0.0673467
47 3 O 1.30591 10.1973 57.9389 -1.2 1 0.00694359 0.0206938 0.0251295 0.0197532 0.0231185 0.0326857 0.0272255 0.0395206 0.0586271 0.0490274 0.0433182 0.0443517 0.0584005 0.0615159 0.0998784 0.0703788 0.0660169 0.0531623 0.06567 0.0724226
48 3 O -0.115718 10.7564 50.681 -1.2 1 0.197054 0.0748375 0.0307566 0.0236927 0.0439985 0.037096 0.0557006 0.0623577 0.0502462 0.0583 0.0602202 0.0530224 0.0629339 0.0707596 0.089968 0.0775239 0.0729045 0.0761923 0.0765418 0.0781717
49 1 Mg -3.26386 9.35564 52.3622 1.2 1 0.0867416 0.0506332 0.0237362 0.0323805 0.0191576 0.0490558 0.0411603 0.0542227 0.0257847 0.0856746 0.0323002 0.0508255 0.0361216 0.0687128 0.0418835 0.111715 0.0534391 0.104341 0.0521532 0.0874597
50 3 O 2.45216 10.7265 50.4558 -1.2 1 0.205063 0.0803269 0.0291364 0.0232825 0.0387573 0.0522402 0.0542033 0.0543978 0.0563118 0.0678301 0.0641668 0.0734224 0.0545853 0.0726556 0.0941389 0.0770485 0.0732553 0.0740017 0.061151 0.0868296
51 1 Mg -1.66979 9.73149 55.0398 1.2 1 0.0267985 0.0175177 0.0265991 0.0348758 0.0266673 0.0259385 0.0258676 0.040935 0.0459348 0.0531735 0.0659876 0.0578416 0.0530671 0.0704127 0.0679812 0.0774258 0.0640851 0.0728599 0.0793256 0.0703269
52 2 Si -1.76317 7.37084 53.3768 2.4 1 0.057634 0.0463395 0.0160277 0.0255329 0.0287949 0.0301622 0.0455659 0.053376 0.065895 0.0635935 0.0571644 0.0653233 0.0684997 0.0496425 0.0677697 0.0639051 0.0663955 0.0892024 0.0665713 0.0601507
53 3 O -1.93263 5.83478 53.5037 -1.2 1 0.0507082 0.0377631 0.0233025 0.0167996 0.0186161 0.0312441 0.0314656 0.0627004 0.0447831 0.0676857 0.0382088 0.0635384 0.0608749 0.0752302 0.0576255 0.061735 0.0659259 0.0613675 0.0689352 0.067533
54 3 O -1.19417 8.46968 46.4488 -1.2 1 0.525052 0.0664091 0.0662576 0.0514019 0.0670078 0.0554198 0.0774667 0.0544188 0.076165 0.0713249 0.0572515 0.051214 0.0696798 0.0984429 0.130533 0.113306 0.096756 0.0949948 0.0831432 0.0832118
55 3 O -2.91153 8.05916 54.161 -1.2 1 0.0400428 0.0258409 0.0261086 0.0217338 0.0217162 0.0181049 0.0434544 0.046174 0.0418226 0.055564 0.0516734 0.0461107 0.0550738 0.0623901 0.0842252 0.0664985 0.0596868 0.0770345 0.0677083 0.0715281
56 3 O -0.388604 8.11689 53.9321 -1.2 1 0.0405478 0.041411 0.0229054 0.0290257 0.0276388 0.0219813 0.0449764 0.0473215 0.0454467 0.0528089 0.0593842 0.0470764 0.0552225 0.0508069 0.0888723 0.0638312 0.0725245 0.0764542 0.0684406 0.0663952
57 1 Mg -3.24007 16.3045 57.5044 1.2 1 0.0177487 0.0142258 0.00941862 0.0280016 0.0173921 0.0360873 0.0149413 0.0548015 0.0212418 0.0848043 0.0230061 0.0441035 0.0288744 0.0609342 0.0321107 0.0943923 0.0400923 0.108953 0.0435773 0.0904397
58 1 Mg -1.6714 16.3544 49.8412 1.2 1 0.234221 0.0763074 0.0236633 0.043804 0.0292154 0.051336 0.0559176 0.050927 0.0487885 0.0591557 0.0610793 0.0667919 0.0717984 0.0711207 0.103328 0.0859756 0.0735125 0.0942049 0.083757 0.0836045
59 2 Si -1.18567 13.8526 47.9314 2.4 1 0.374746 0.0665958 0.0751982 0.061387 0.0319958 0.0686822 0.0461317 0.0784554 0.0618401 0.0683278 0.0529111 0.0714087 0.0586545 0.0766126 0.0988041 0.0756992 0.103218 0.0970572 0.0910323 0.089341
60 3 O -1.09664 15.4205 47.9915 -1.2 1 0.369183 0.0673559 0.0488279 0.0625605 0.0403896 0.091193 0.0629671 0.0823549 0.0563697 0.0903896 0.0548994 0.0719137 0.0569013 0.0819274 0.0848489 0.0770497 0.0925768 0.0762187 0.0756745 0.0721292
61 3 O -1.73493 12.7491 51.7772 -1.2 1 0.121562 0.054385 0.0311191 0.0298611 0.027991 0.0565863 0.0616278 0.0507692 0.0643874 0.0569286 0.0537554 0.0504095 0.0576853 0.0797914 0.0998485 0.0713016 0.085705 0.0542121 0.0674917 0.0662782
62 3 O -2.36115 13.2717 48.8238 -1.2 1 0.307688 0.0898759 0.0557782 0.0293549 0.0554008 0.0499677 0.0571007 0.0690039 0.0559351 0.066863 0.0741542 0.0651318 0.0645187 0.0595557 0.0827777 0.085079 0.0876788 0.0817281 0.0814363 0.085847
63 1 Mg -0.159928 11.7639 46.8533 1.2 1 0.486252 0.0237086 0.0722077 0.0346668 0.0479804 0.0917495 0.0647971 0.0864459 0.0860231 0.0893531 0.0870896 0.0677342 0.0707106 0.0940503 0.0796229 0.083533 0.0947109 0.0984834 0.103113 0.1105
64 3 O 0.2623 13.1866 48.413 -1.2 1 0.342966 0.0782213 0.055144 0.0330991 0.0456057 0.0602215 0.0410809 0.0650602 0.0664715 0.0719247 0.0622796 0.0568766 0.0657611 0.0880964 0.0995048 0.0839476 0.0969837 0.10044 0.0795223 0.0845819
65 1 Mg 1.45923 11.6999 54.5687 1.2 1 0.00881987 0.0324331 0.0153328 0.0309978 0.0156527 0.0236873 0.0303373 0.0348648 0.0439745 0.0558898 0.0598305 0.0513692 0.0588738 0.0622886 0.0650772 0.0744276 0.0693116 0.0876895 0.0743621 0.0796159
66 2 Si 1.29759 14.3205 56.5247 2.4 1 0.0144584 0.0184503 0.0218998 0.0210674 0.0221512 0.0337411 0.0323316 0.0381896 0.0499088 0.0650634 0.0516731 0.0667326 0.057077 0.0581916 0.0789637 0.0700413 0.0678977 0.0856453 0.0562377 0.067107
67 3 O 1.3065 12.813 56.3934 -1.2 1 0.0313866 0.0305817 0.019775 0.0162189 0.0349045 0.027161 0.0202549 0.079667 0.0373445 0.0660765 0.0379204 0.0629425 0.0581372 0.0681795 0.073201 0.0668238 0.0574046 0.0668499 0.0682264 0.0581747
68 3 O 1.36565 15.4813 52.729 -1.2 1 0.0735277 0.0394057 0.028209 0.0228007 0.0224446 0.0421048 0.045991 0.0579708 0.0593168 0.0408268 0.0446041 0.0526022 0.0605041 0.0571638 0.101851 0.0687911 0.0720137 0.0634158 0.0745096 0.0572722
69 3 O 0.0315229 14.9025 55.7909 -1.2 1 0.00762566 0.0110554 0.0353314 0.0270441 0.0227456 0.0227109 0.0450147 0.0439721 0.0337845 0.051234 0.0491708 0.0430156 0.0545894 0.0689586 0.0702516 0.0778065 0.0724292 0.0580997 0.0665306 0.0746733
70 3 O 2.56372 15.1253 55.8888 -1.2 1 0.0189626 0.0214025 0.0308719 0.0267681 0.020137 0.0198231 0.04381 0.0410192 0.0409078 0.0393078 0.0509668 0.0508793 0.0485802 0.0551851 0.0838689 0.0679122 0.0875085 0.0530516 0.063436 0.0578978
71 1 Mg -0.206989 14.1049 52.2121 1.2 1 0.103165 0.0633898 0.0291387 0.0424717 0.0324593 0.0489604 0.0397631 0.0726267 0.0264933 0.081359 0.0241831 0.0589052 0.0287954 0.0760918 0.0361719 0.107005 0.0508144 0.0979349 0.0398279 0.0922096
72 1 Mg 1.82591 13.8102 49.4556 1.2 1 0.27078 0.09894 0.0335364 0.0415957 0.0333684 0.0374106 0.0670832 0.0425881 0.0709117 0.0729872 0.0744241 0.059684 0.0716463 0.0671303 0.0819285 0.0922677 0.081032 0.0984495 0.0867376 0.0775789
73 2 Si 1.29285 16.1518 51.2434 2.4 1 0.140329 0.0793611 0.040811 0.0314397 0.0351777 0.0454378 0.0560488 0.047999 0.0524165 0.0715436 0.0673005 0.0677214 0.0745467 0.0702448 0.087019 0.0812665 0.0714481 0.084733 0.0763531 0.0650756
74 3 O 1.39496 17.7199 51.3047 -1.2 1 0.135608 0.0870814 0.0168533 0.0241706 0.0368477 0.0438811 0.0370972 0.0697285 0.0560861 0.0624006 0.0441188 0.0804972 0.0700116 0.0711208 0.0769798 0.0696097 0.0738036 0.0732932 0.0654665 0.0734497
75 3 O 1.3402 15.1198 58.0933 -1.2 1 0.0111938 0.0133098 0.026015 0.0261771 0.0202943 0.0358897 0.0359999 0.0481303 0.0408015 0.0463707 0.0413205 0.0590233 0.0479474 0.0610958 0.107173 0.0601938 0.067795 0.0581879 0.0625655 0.0728901
76 3 O -0.0269106 15.5178 50.6688 -1.2 1 0.18714 0.0808928 0.0267126 0.0189889 0.0483813 0.0408848 0.0584318 0.0578869 0.0561094 0.0599573 0.0638718 0.0478661 0.0599121 0.0759477 0.094036 0.0830404 0.0712809 0.0822085 0.0702938 0.0893177
77 1 Mg -3.18391 14.1057 52.3125 1.2 1 0.0802551 0.0547899 0.0320202 0.0338155 0.0204046 0.0496735 0.0342916 0.0634392 0.0331847 0.0825265 0.0261523 0.0455618 0.0288668 0.0760591 0.0358556 0.106892 0.0524937 0.102852 0.0455513 0.0819284
78 3 O 2.52432 15.503 50.4579 -1.2 1 0.188381 0.0984658 0.0223731 0.0142179 0.0431997 0.0601832 0.0567958 0.0497289 0.0573509 0.0685673 0.0682778 0.0693995 0.061803 0.0681752 0.0974051 0.0695218 0.0768515 0.0738376 0.0612523 0.0846967
79 1 Mg -1.79699 14.2172 55.1168 1.2 1 0.0250042 0.0192566 0.0222269 0.0253167 0.0214448 0.0234279 0.030165 0.0316335 0.0431596 0.0591354 0.0649111 0.0561622 0.0561737 0.0644141 0.0666301 0.0842202 0.0725917 0.0902422 0.0692141 0.0788655
80 2 Si -1.61915 12.1154 53.3124 2.4 1 0.0492149 0.0390996 0.0191966 0.0240638 0.0368368 0.0368201 0.0445404 0.0572959 0.0682112 0.0592809 0.0556625 0.0680972 0.0792971 0.0515716 0.0658067 0.0654524 0.066669 0.0918545 0.0658834 0.0597041
81 3 O -1.7988 10.5596 53.2929 -1.2 1 0.0688843 0.0301917 0.0220262 0.0196989 0.0312475 0.0287978 0.0313937 0.0736279 0.0453202 0.0584631 0.0484181 0.0582866 0.0609567 0.0758687 0.066123 0.0569939 0.0557643 0.0623023 0.0726286 0.0699698
82 3 O -1.21337 13.3381 46.4311 -1.2 1 0.520159 0.0677321 0.0695593 0.0406965 0.0561867 0.0578403 0.0576523 0.0698006 0.0787861 0.0646906 0.0455494 0.0717991 0.0690557 0.0881662 0.119979 0.113609 0.107055 0.101291 0.0595288 0.0905268
83 3 O -2.88391 12.8447 54.0756 -1.2 1 0.0309221 0.0277112 0.0281377 0.0206027 0.0211507 0.0202658 0.049838 0.0450691 0.0396074 0.0541366 0.0523511 0.0469041 0.0495603 0.0542081 0.0890452 0.0703331 0.0603455 0.0707882 0.0633066 0.0614939
84 3 O -0.280987 12.7804 53.7241 -1.2 1 0.0299261 0.0362563 0.0240123 0.0269961 0.0337505 0.0205795 0.0460953 0.0511819 0.0508226 0.0516753 0.0560221 0.0533088 0.0662376 0.0609412 0.0895345 0.061694 0.0790841 0.0708951 0.0758581 0.0632646
85 1 Mg -3.04451 21.1708 57.1699 1.2 1 0.00908615 0.0222949 0.005549 0.02585 0.0124807 0.035735 0.0149862 0.0594016 0.0216156 0.0772733 0.0279975 0.0542553 0.0269749 0.0675702 0.0367838 0.0987071 0.0475548 0.111533 0.0501353 0.0956293
86 1 Mg -1.5831 21.1217 49.8405 1.2 1 0.233322 0.0816721 0.0235255 0.0379571 0.0324785 0.0515554 0.048716 0.0545665 0.0542566 0.0522848 0.0587783 0.0646052 0.0739637 0.0725945 0.0976016 0.0783074 0.0727632 0.0964618 0.0855835 0.0839591
87 2 Si -1.09384 18.6291 47.9287 2.4 1 0.376314 0.0628129 0.0658441 0.0680647 0.0279498 0.0681745 0.0469614 0.0806182 0.0648966 0.0676581 0.0524102 0.0731877 0.0609651 0.0740933 0.0984991 0.0760764 0.107653 0.09587 0.0895915 0.0893141
88 3 O -1.02071 20.1985 47.9911 -1.2 1 0.365536 0.0704775 0.0493986 0.062697 0.0440223 0.0910123 0.0639751 0.0839553 0.0556062 0.0867379 0.0550828 0.0723151 0.058409 0.0808628 0.0811654 0.073155 0.0919445 0.0753681 0.0750311 0.0731307
89 3 O -1.65002 17.5002 51.771 -1.2 1 0.116792 0.0532886 0.0359952 0.0296328 0.0312889 0.0483921 0.0639599 0.0527683 0.0602639 0.0528132 0.062718 0.0466043 0.050863 0.0875478 0.0963949 0.0736978 0.0814039 0.0490799 0.0691188 0.0647219
90 3 O -2.26174 18.0434 48.8281 -1.2 1 0.303868 0.0951333 0.0585851 0.028528 0.0597106 0.0475152 0.0571301 0.0740112 0.0611982 0.066041 0.0729102 0.057078 0.049303 0.0564654 0.0775475 0.0882608 0.0897758 0.0830109 0.0851943 0.0863842
91 1 Mg -0.0440435 16.5651 46.8269 1.2 1 0.48526 0.0214927 0.0750738 0.0316456 0.0626234 0.0829621 0.0755805 0.0845838 0.0725801 0.0877545 0.0868851 0.0623553 0.0644363 0.0803079 0.0767818 0.0898284 0.0903278 0.0967655 0.102338 0.108113
92 3 O 0.37001 17.9877 48.3925 -1.2 1 0.337354 0.0891737 0.0622228 0.0427297 0.0453682 0.0608926 0.0434229 0.0726707 0.0691258 0.0732684 0.0630896 0.059874 0.0653395 0.0876205 0.0955651 0.0767479 0.0940146 0.100266 0.0788666 0.0888033
93 1 Mg 1.15644 16.2709 54.4992 1.2 1 0.0153599 0.0216564 0.0115419 0.030557 0.0161908 0.0246191 0.0266204 0.0377233 0.0490715 0.050701 0.0607337 0.0494729 0.0594919 0.0675173 0.0735928 0.0657611 0.0728327 0.0916845 0.0688645 0.0742592
94 2 Si 1.35158 18.9843 56.5067 2.4 1 0.00893662 0.0178904 0.0216313 0.0230367 0.0244566 0.0276276 0.0433996 0.0315773 0.0394125 0.0684242 0.0510092 0.0558407 0.0653773 0.0522337 0.0887945 0.06205 0.0831399 0.0847952 0.0527258 0.0680956
95 3 O 1.32309 17.4437 56.5919 -1.2 1 0.0116424 0.0196401 0.0264872 0.0285367 0.0178165 0.0318541 0.0228108 0.069792 0.0405461 0.0545778 0.0437485 0.0642174 0.0568968 0.0671394 0.0765389 0.0727792 0.0646504 0.0732717 0.0494336 0.0748345
96 3 O 1.45147 20.239 52.7294 -1.2 1 0.0804047 0.0354568 0.0317088 0.0157171 0.0309858 0.0328038 0.0473864 0.0625566 0.0528258 0.0463959 0.0442358 0.0462849 0.0486144 0.0719245 0.102088 0.074646 0.0645288 0.055309 0.0660818 0.0648216
97 3 O 0.204846 19.6245 55.6228 -1.2 1 0.0100405 0.0151101 0.0231162 0.0186341 0.0169604 0.0255099 0.0356954 0.0359939 0.0394897 0.0553543 0.0476871 0.0391202 0.0521971 0.064362 0.0648793 0.0799748 0.0760323 0.0591276 0.0673947 0.0746729
98 3 O 2.66216 19.6503 55.8013 -1.2 1 0.0269449 0.0149772 0.0278038 0.0228289 0.0262682 0.0225364 0.0440764 0.0419101 0.0398967 0.0529193 0.049783 0.0343238 0.0482949 0.0765838 0.0710392 0.0814366 0.077803 0.0582297 0.0702175 0.066255
99 1 Mg -0.126194 18.8651 52.2079 1.2 1 0.105456 0.0636985 0.027092 0.0433329 0.0309106 0.0436734 0.0385507 0.072154 0.0270384 0.0872043 0.024603 0.0543695 0.0350284 0.072476 0.0356334 0.109649 0.0440571 0.107201 0.0405863 0.0975054
100 1 Mg 1.92402 18.5815 49.4545 1.2 1 0.266665 0.102311 0.0368574 0.0420781 0.0318435 0.0312848 0.067745 0.0480358 0.0703427 0.0783479 0.0817129 0.055994 0.0740246 0.0710658 0.0798269 0.0888325 0.0792765 0.101966 0.0889762 0.0882496
101 2 Si 1.38106 20.9117 51.2443 2.4 1 0.137719 0.0824216 0.0325107 0.0371564 0.0351048 0.0513586 0.0580094 0.0417193 0.0553248 0.0710622 0.0695954 0.0695356 0.0688988 0.0734657 0.0962596 0.0877322 0.0797685 0.0820135 0.077276 0.063738
102 3 O 1.48527 22.4795 51.3054 -1.2 1 0.146147 0.0750451 0.0226386 0.0327937 0.0300176 0.0415141 0.0418458 0.0692978 0.0515056 0.063168 0.0454623 0.0740832 0.060973 0.0665459 0.0787589 0.0665222 0.0773793 0.0754636 0.0654729 0.0752873
103 3 O 1.2886 19.5574 57.9142 -1.2 1 0.014998 0.0153463 0.0229959 0.0220826 0.0213922 0.0379432 0.0225398 0.0495163 0.0561234 0.0481513 0.0461062 0.0435218 0.0536638 0.0780453 0.0938193 0.0667465 0.0699663 0.063185 0.0697009 0.0720102
104 3 O 0.0615419 20.2804 50.6669 -1.2 1 0.175846 0.0943424 0.0259507 0.0317074 0.0468187 0.03608 0.055664 0.0679497 0.0600563 0.0585751 0.0593182 0.0470458 0.0706266 0.0782746 0.0885885 0.0754624 0.0758567 0.0797539 0.075017 0.0859616
105 1 Mg -3.09665 18.8643 52.3122 1.2 1 0.0792769 0.0542718 0.0326929 0.0339195 0.0202797 0.0521945 0.039012 0.0654488 0.0347667 0.0798847 0.0351908 0.0462355 0.0309719 0.0730665 0.0341487 0.108214 0.0493278 0.10564 0.0439858 0.0882535
106 3 O 2.61548 20.2646 50.4626 -1.2 1 0.19039 0.0989745 0.0224746 0.0190384 0.0347456 0.0601483 0.0585274 0.0432535 0.0581625 0.0679102 0.0659131 0.0647683 0.0564794 0.0658967 0.100225 0.0750935 0.0794304 0.0753015 0.0689334 0.0893634
107 1 Mg -1.6775 18.7314 55.1679 1.2 1 0.0297601 0.0139181 0.0216672 0.0280711 0.0162968 0.0249573 0.0241546 0.0328439 0.0418098 0.0579807 0.0485946 0.0544859 0.06694 0.0606325 0.0566216 0.0673545 0.0767118 0.100718 0.0722201 0.0784629
108 2 Si -1.7831 16.8332 53.2139 2.4 1 0.0394174 0.0415778 0.0284286 0.031005 0.0350011 0.0375666 0.0549749 0.0496525 0.0643343 0.06133 0.05753 0.0666343 0.0820349 0.053714 0.071659 0.0605725 0.0696622 0.0840378 0.0619376 0.0471171
109 3 O -1.70986 15.3043 53.1742 -1.2 1 0.0665379 0.0418833 0.0201845 0.0192762 0.0337305 0.0405898 0.0304037 0.0746324 0.0498218 0.0633131 0.0504434 0.0663247 0.0586398 0.0764796 0.0678464 0.0632102 0.0522749 0.0704819 0.0673045 0.0804286
110 3 O -1.12868 18.1227 46.4249 -1.2 1 0.522215 0.0674226 0.07254 0.0524575 0.0582041 0.0648988 0.0612711 0.0804092 0.0810763 0.0632455 0.045052 0.0677064 0.0677027 0.0877639 0.116698 0.115005 0.106549 0.0997603 0.0629898 0.0941232
111 3 O -3.01827 17.4761 53.903 -1.2 1 0.046765 0.0240266 0.0295166 0.0220479 0.0205998 0.0257397 0.0472753 0.0417631 0.0436515 0.0517514 0.0556004 0.0452741 0.0503125 0.050688 0.0832474 0.0592706 0.07512 0.0644796 0.0578881 0.0775287
112 3 O -0.538268 17.2878 54.1478 -1.2 1 0.033345 0.0267148 0.0183472 0.0155392 0.0314007 0.0263172 0.0351269 0.0458616 0.0512716 0.0524834 0.0596511 0.0392109 0.0535285 0.0695957 0.080148 0.0692553 0.0677784 0.072935 0.0634878 0.0737331
113 1 Mg -3.11449 26.1254 57.5605 1.2 1 0.0210183 0.0133086 0.0136838 0.025309 0.0221741 0.0327669 0.0253457 0.0454242 0.0421156 0.0755435 0.0367012 0.0421752 0.0315925 0.0621862 0.0416405 0.0816148 0.0611178 0.100809 0.0632391 0.0749679
114 1 Mg -1.48778 25.88 49.8402 1.2 1 0.227946 0.0854328 0.019564 0.0421191 0.030588 0.0493003 0.0549919 0.0537994 0.053246 0.0580193 0.0617328 0.065759 0.0741866 0.0712365 0.098185 0.0778758 0.0791226 0.0958809 0.0860568 0.0850854
115 2 Si -1.00491 23.3922 47.9274 2.4 1 0.374958 0.0644355 0.065285 0.0743054 0.0304015 0.0720916 0.043267 0.079521 0.0682448 0.0767851 0.0571688 0.0775893 0.0595869 0.0738917 0.0945432 0.074568 0.100341 0.0959066 0.0889836 0.0942843
116 3 O -0.927602 24.9615 47.9909 -1.2 1 0.372194 0.0621767 0.0451234 0.0628155 0.0379854 0.0896879 0.062428 0.0792112 0.0538468 0.0889441 0.0530606 0.0729931 0.0605552 0.0810555 0.0795876 0.0741241 0.0938054 0.0772066 0.0737224 0.0723769
117 3 O -1.55795 22.2588 51.7696 -1.2 1 0.112436 0.0603912 0.0298823 0.0263803 0.0350655 0.0481485 0.0633234 0.0482421 0.0684133 0.0533011 0.0562365 0.046252 0.0518752 0.0859597 0.0992422 0.0725192 0.0793532 0.0504374 0.0736227 0.0703769
118 3 O -2.17411 22.8111 48.8277 -1.2 1 0.320194 0.0774129 0.0505595 0.0361441 0.0572083 0.0475162 0.0541186 0.0696784 0.056774 0.0639701 0.0720695 0.0610275 0.0525429 0.0571906 0.0770659 0.0792833 0.0825315 0.0805417 0.0838968 0.0855891
119 1 Mg 0.0423997 21.3296 46.8225 1.2 1 0.478506 0.0234656 0.0827158 0.0348935 0.0662823 0.0852224 0.0788653 0.0863677 0.0682458 0.0845176 0.0860246 0.0625806 0.0636906 0.0770675 0.0756743 0.094759 0.0965365 0.0962439 0.0946562 0.102924
120 3 O 0.458537 22.7495 48.3911 -1.2 1 0.345743 0.0778551 0.054494 0.0457288 0.0436033 0.05664 0.0448062 0.0656263 0.0660545 0.0752344 0.0599997 0.0542951 0.0637143 0.0854039 0.0908187 0.0739285 0.0954244 0.10052 0.0775181 0.0859531
121 1 Mg 1.51685 21.2775 54.5543 1.2 1 0.0229214 0.021742 0.0192886 0.0270305 0.0173443 0.0161837 0.0251508 0.0343458 0.0462505 0.0577719 0.0607596 0.0540946 0.0599522 0.0643075 0.057131 0.0864499 0.0761924 0.0955332 0.0749894 0.070399
122 2 Si 1.531 23.7042 56.2518 2.4 1 0.0137266 0.0204631 0.0189271 0.0298266 0.0255271 0.022028 0.0404089 0.0388385 0.040324 0.0667226 0.0512916 0.0519534 0.064401 0.0539964 0.0823182 0.0692167 0.0660594 0.07811 0.0698353 0.0678756
123 3 O 1.43763 22.1595 56.388 -1.2 1 0.0151733 0.0131805 0.0189742 0.0323105 0.0258652 0.0227426 0.0231701 0.0751503 0.0342005 0.0577754 0.0352378 0.0636175 0.0512516 0.0645332 0.0685289 0.0639707 0.0593531 0.0738648 0.0620223 0.0765686
124 3 O 1.54441 24.9963 52.7297 -1.2 1 0.0890145 0.0329244 0.0274386 0.0251653 0.0218699 0.0386434 0.0445588 0.0618596 0.0585074 0.0460833 0.0425867 0.0562463 0.0566245 0.0613087 0.103058 0.0664135 0.0663553 0.0617253 0.0623216 0.0667636
125 3 O 0.26296 24.5196 55.4986 -1.2 1 0.0109425 0.0174152 0.0249313 0.0184552 0.0179153 0.0268426 0.0344982 0.0465435 0.0354806 0.0593159 0.0475207 0.0372997 0.0513541 0.0599369 0.0756738 0.0770332 0.070217 0.0666041 0.056882 0.0673915
126 3 O 2.75066 24.4038 55.6078 -1.2 1 0.0264569 0.0123029 0.0194584 0.0188095 0.020822 0.0256688 0.0414951 0.0437646 0.038763 0.0515407 0.0532994 0.0338737 0.0544243 0.07143 0.0677658 0.0768765 0.078595 0.0680234 0.0702234 0.0710918