ITEM: TIMESTEP
45700
ITEM: NUMBER OF ATOMS
10500
ITEM: BOX BOUNDS xy xz yz pp pp pp
0	8.9688	2.9896
0	118.725	0
0	252.977	0
ITEM: ATOMS id type element xu yu zu q Q_1 Q_2 Q_3 Q_4 Q_5 Q_6 Q_7 Q_8 Q_9 Q_10 Q_11 Q_12 Q_13 Q_14 Q_15 Q_16 Q_17 Q_18 Q_19 Q_20 Q_21
1 1 Mg -3.12376 7.16966 57.112 1.2 1 0.0223696 0.00991596 0.0216384 0.0272935 0.0187238 0.0289022 0.0253876 0.0390166 0.0382182 0.071042 0.035174 0.0494144 0.025741 0.058439 0.04929 0.092005 0.0693388 0.0943885 0.0628039 0.0742368
2 1 Mg -1.82655 6.90154 50.0912 1.2 1 0.222528 0.08552 0.0316675 0.0330461 0.0280339 0.0558725 0.0465136 0.0445649 0.0536967 0.0684333 0.0574877 0.0720606 0.0695237 0.0654117 0.094266 0.0577645 0.0865241 0.0996553 0.0735706 0.0825046
3 2 Si -0.257935 3.96038 48.0876 2.4 1 0.372073 0.0721125 0.0743452 0.0381077 0.060633 0.0506488 0.0737991 0.0779287 0.0570141 0.0772195 0.0569739 0.0673799 0.0614477 0.0853214 0.0972431 0.0992949 0.109592 0.0913362 0.0697601 0.0725908
4 3 O -0.335812 5.46814 47.6264 -1.2 1 0.427315 0.0398915 0.0637318 0.0317934 0.040342 0.0462675 0.0656855 0.0719416 0.0873189 0.0743092 0.091187 0.0767932 0.0719699 0.0682604 0.0918688 0.125124 0.0944054 0.0807866 0.0775808 0.0814217
5 3 O -2.03793 3.43377 51.8941 -1.2 1 0.114751 0.0620629 0.0239858 0.0230463 0.0165856 0.0535547 0.0566671 0.0523683 0.0506422 0.0572668 0.0639774 0.0512683 0.0522708 0.0723123 0.0842623 0.0802596 0.066386 0.0523316 0.0767189 0.069654
6 3 O -1.54015 3.53929 48.9521 -1.2 1 0.30688 0.089153 0.0370639 0.0471406 0.0322925 0.047927 0.0710016 0.0515918 0.0582865 0.0627284 0.0722839 0.0695751 0.0680221 0.0682257 0.0694274 0.105475 0.082261 0.0827519 0.0780431 0.0895325
7 1 Mg 1.82954 2.54582 47.1376 1.2 1 0.46268 0.0202477 0.0831835 0.0539122 0.0396026 0.084342 0.0626189 0.0598824 0.0749168 0.0867437 0.0678963 0.0779914 0.0815941 0.0837199 0.0699347 0.0977222 0.10047 0.101086 0.104389 0.0974484
8 3 O 1.22989 3.66364 48.7877 -1.2 1 0.326256 0.0675925 0.0252666 0.0407012 0.0311291 0.0657466 0.0777549 0.0275161 0.0811187 0.0750493 0.0473203 0.0775454 0.0840383 0.0672034 0.0640258 0.0865344 0.0958596 0.0937902 0.0960552 0.0933646
9 1 Mg 1.06689 2.48144 54.5877 1.2 1 0.0105418 0.0303844 0.0166688 0.0346029 0.0265723 0.031573 0.0240886 0.0317469 0.0472009 0.0626055 0.0558998 0.0545601 0.0575211 0.0651626 0.0609856 0.0808114 0.064483 0.0897208 0.0785045 0.0686136
10 2 Si 1.17509 5.04397 56.4047 2.4 1 0.0167467 0.00859554 0.0254726 0.026963 0.0207029 0.0204197 0.0399938 0.0508354 0.0469916 0.0584456 0.0528327 0.0553641 0.0595603 0.0552285 0.0737273 0.0630496 0.0650307 0.100712 0.0552709 0.0580899
11 3 O 1.01742 3.50521 56.4889 -1.2 1 0.015288 0.0151989 0.00957197 0.0240217 0.0201782 0.0247968 0.0206742 0.0597009 0.031189 0.0540807 0.0418801 0.0641392 0.0478099 0.0602 0.0701285 0.0699962 0.0564674 0.0683739 0.0559112 0.0778689
12 3 O 1.10813 6.07342 52.8172 -1.2 1 0.0832073 0.0456925 0.034028 0.0165347 0.0222842 0.0436441 0.0497765 0.051915 0.051485 0.0427365 0.0533832 0.0530805 0.0720874 0.0699847 0.087757 0.083168 0.0547756 0.0745126 0.0739588 0.0640731
13 3 O -0.105567 5.82388 55.7357 -1.2 1 0.0109915 0.0137693 0.0258005 0.0255293 0.026157 0.0178306 0.0405629 0.0377497 0.037836 0.0465347 0.0526145 0.0466645 0.0515467 0.0458982 0.0850349 0.0739506 0.0723803 0.0640024 0.0673725 0.0606485
14 3 O 2.39335 5.64477 55.5722 -1.2 1 0.0237173 0.0233856 0.015372 0.025531 0.0289452 0.0235919 0.0414514 0.0486191 0.041142 0.0469417 0.0555251 0.0348232 0.052654 0.0648688 0.0731328 0.0669622 0.0746507 0.0740009 0.0683076 0.0701111
15 1 Mg -0.459401 4.67631 52.2426 1.2 1 0.0899112 0.0730942 0.0306363 0.0372495 0.0286815 0.0302135 0.041077 0.0602023 0.0464465 0.0798762 0.0457515 0.0603623 0.0510799 0.0748003 0.0437264 0.0952591 0.0586053 0.104043 0.0585533 0.0821451
16 1 Mg 2.79456 3.9971 49.9987 1.2 1 0.224755 0.094193 0.0299771 0.0413629 0.0427103 0.0620624 0.0553627 0.0566092 0.0785944 0.0575912 0.0614077 0.0572759 0.0614086 0.0723707 0.0895423 0.0768759 0.0768581 0.0917386 0.0793383 0.069257
17 2 Si 1.16169 6.59457 51.2556 2.4 1 0.136636 0.0894949 0.0354875 0.0319887 0.0442044 0.0487865 0.0492532 0.0451637 0.0586718 0.0667669 0.0664428 0.0737066 0.0716862 0.0684626 0.082638 0.0853393 0.0815224 0.0893634 0.0744218 0.0659657
18 3 O 1.28989 8.18905 51.2909 -1.2 1 0.137879 0.0937616 0.0184102 0.0356317 0.0409635 0.0427507 0.0436111 0.0767236 0.0501473 0.0657614 0.045119 0.0946286 0.0705494 0.0664516 0.0797227 0.0738299 0.0713192 0.0714517 0.0725259 0.0669602
19 3 O 1.2585 5.81866 57.8138 -1.2 1 0.00332301 0.0215444 0.0271575 0.0107254 0.0165707 0.0292107 0.0348013 0.0480199 0.0573871 0.04499 0.0450899 0.0499252 0.0447173 0.0685295 0.0968062 0.0757062 0.0605129 0.0552876 0.066163 0.0545554
20 3 O -0.184847 6.06029 50.6845 -1.2 1 0.187913 0.0791445 0.0245093 0.0296781 0.0378437 0.0315482 0.0489315 0.0529584 0.0561496 0.0664262 0.0600836 0.0761133 0.0674166 0.0595934 0.081291 0.0689876 0.0832783 0.0758882 0.0625306 0.0793554
21 1 Mg -3.49704 4.67769 52.6661 1.2 1 0.0672732 0.0574669 0.0246264 0.0247599 0.0184154 0.0402582 0.0335312 0.0587263 0.0532994 0.0658727 0.0499764 0.0504402 0.0498487 0.0497841 0.0611659 0.0878065 0.0861562 0.0785447 0.0685243 0.0734062
22 3 O 2.48581 5.93312 50.6539 -1.2 1 0.193345 0.0921658 0.0321567 0.018152 0.0297373 0.0481034 0.0621051 0.0593992 0.0422171 0.0653839 0.0516878 0.0666571 0.0513442 0.0642611 0.103193 0.0630534 0.0776507 0.0645572 0.0786834 0.0777361
23 1 Mg -1.77979 4.72601 55.1711 1.2 1 0.0205012 0.0228926 0.0300926 0.0231169 0.0224652 0.0246029 0.0259102 0.0356621 0.0419617 0.0550774 0.0539647 0.0557012 0.0544702 0.0641538 0.0582139 0.0668416 0.0865319 0.0933743 0.0617521 0.0804564
24 2 Si -1.8849 2.65664 53.1958 2.4 1 0.0478326 0.0362876 0.0265603 0.0224177 0.0251022 0.0260768 0.0486201 0.0462646 0.0643881 0.0683796 0.0544217 0.0671575 0.0731903 0.0574322 0.0692124 0.0536731 0.0753281 0.0844386 0.079604 0.0587948
25 3 O -1.94247 1.11484 53.1091 -1.2 1 0.0502261 0.0471982 0.0310138 0.0217921 0.0244554 0.0364256 0.0279921 0.0646011 0.0575858 0.0572877 0.0477826 0.0664668 0.0669244 0.0700599 0.0781339 0.0701494 0.0577621 0.0763964 0.0627222 0.0770987
26 3 O -0.0467762 2.97103 46.8385 -1.2 1 0.500777 0.038788 0.0856182 0.0304228 0.0778062 0.0667914 0.081993 0.0739276 0.0716142 0.0765214 0.0815036 0.0782237 0.0998967 0.0904484 0.0855237 0.0846189 0.0987661 0.0975714 0.103398 0.108282
27 3 O -3.11616 3.22311 54.0406 -1.2 1 0.0310057 0.0324964 0.0230496 0.0233867 0.0246374 0.0301106 0.0329469 0.0403545 0.0509734 0.0586773 0.0612152 0.0407321 0.0603741 0.0596855 0.0676437 0.0640187 0.0614269 0.0724101 0.0706122 0.0604465
28 3 O -0.66156 3.31535 53.8573 -1.2 1 0.0361721 0.037387 0.0290264 0.0155317 0.0215196 0.028368 0.0409934 0.0463443 0.0502683 0.05327 0.0601644 0.0416571 0.0567327 0.0708943 0.0774146 0.0622933 0.0884508 0.0656265 0.0674438 0.0571416
29 1 Mg -3.08376 11.8534 57.403 1.2 1 0.012987 0.0158764 0.0112479 0.0275333 0.00889329 0.0346434 0.0121475 0.056325 0.0130613 0.0822551 0.0172135 0.0517496 0.0195674 0.0696088 0.0248769 0.0976951 0.0277689 0.115976 0.0353009 0.096812
30 1 Mg -1.75014 11.5838 49.8362 1.2 1 0.22955 0.082877 0.0273806 0.0407773 0.0291161 0.0549728 0.0489977 0.0551673 0.0464361 0.0572645 0.0636208 0.0616555 0.0745346 0.0729576 0.10982 0.0862643 0.0644928 0.0943467 0.0854529 0.0787153
31 2 Si -1.18003 9.02138 47.9309 2.4 1 0.370905 0.0669991 0.0670376 0.0512438 0.0428129 0.0629728 0.0723914 0.0755633 0.070305 0.0661343 0.0582459 0.0653707 0.0678121 0.0807695 0.100152 0.0654154 0.0999718 0.090184 0.103205 0.0883587
32 3 O -1.23224 10.5991 47.9811 -1.2 1 0.382482 0.0549332 0.0543413 0.0521835 0.0534251 0.0721835 0.0651564 0.0750168 0.0535167 0.0828346 0.0663641 0.0650073 0.0754969 0.0761212 0.074422 0.0654563 0.0904854 0.0803412 0.0660663 0.0709571
33 3 O -1.79016 8.01447 51.8693 -1.2 1 0.11439 0.0638117 0.029369 0.0301207 0.0293115 0.0502169 0.0570956 0.0563944 0.0546228 0.052816 0.0514239 0.0538685 0.0626923 0.0835408 0.0892907 0.0774674 0.0688578 0.0481519 0.0714622 0.0648965
34 3 O -2.30986 8.37215 48.8528 -1.2 1 0.309384 0.0900131 0.0693863 0.0242169 0.0562203 0.063768 0.0656627 0.0650395 0.0569875 0.0652704 0.078688 0.0678344 0.0587075 0.0634669 0.0781011 0.0905898 0.0971771 0.0805619 0.0784905 0.0959612
35 1 Mg 0.154883 7.08234 46.8007 1.2 1 0.492686 0.0280643 0.0819739 0.0374051 0.0628157 0.0729953 0.0604948 0.0746086 0.0725399 0.0784969 0.0865105 0.0753251 0.0774899 0.078259 0.0708819 0.0946231 0.0923797 0.104831 0.112423 0.102553
36 3 O 0.325447 8.50934 48.3809 -1.2 1 0.349123 0.0782656 0.0631174 0.0435671 0.0362705 0.0499097 0.0396717 0.0598922 0.0619445 0.0651952 0.073741 0.0645821 0.0804795 0.0939949 0.0899896 0.0682404 0.0903257 0.100598 0.0847355 0.0860094
37 1 Mg 1.1107 7.12803 54.6532 1.2 1 0.0199846 0.0276218 0.0149748 0.0267549 0.0214793 0.0249072 0.0268229 0.0291168 0.044395 0.0573842 0.0571716 0.056032 0.0531675 0.0643777 0.0587662 0.0944588 0.0668089 0.0892756 0.0799182 0.078448
38 2 Si 1.24267 9.80084 56.3989 2.4 1 0.030244 0.0158722 0.0172344 0.0208081 0.0265282 0.0242567 0.0421916 0.0422041 0.0453323 0.0580789 0.0530363 0.0662108 0.0685636 0.0543104 0.0740915 0.0682897 0.0609929 0.0938172 0.0580728 0.0588993
39 3 O 1.19825 8.30153 56.5734 -1.2 1 0.0264737 0.0179329 0.0200868 0.0145629 0.0287819 0.0231436 0.0292325 0.067714 0.0407964 0.0441547 0.0544201 0.0644494 0.0518088 0.0630586 0.075978 0.0612976 0.0585837 0.0731364 0.0540525 0.0847356
40 3 O 1.28624 10.7248 52.7351 -1.2 1 0.086556 0.0415982 0.0264159 0.0219477 0.0263286 0.0481854 0.0488083 0.0514193 0.0450082 0.0474013 0.0461618 0.0469008 0.0619177 0.0646445 0.0974352 0.0735798 0.0673632 0.0584827 0.0722095 0.0572038
41 3 O -0.0804468 10.417 55.8141 -1.2 1 0.00926589 0.0205338 0.0312615 0.0187899 0.02355 0.0202286 0.0436022 0.037057 0.0416661 0.0441347 0.0509009 0.0419582 0.0551536 0.0555158 0.0775225 0.0754709 0.0719617 0.0547255 0.0673337 0.0711953
42 3 O 2.50767 10.373 55.6242 -1.2 1 0.015334 0.0203976 0.0211007 0.0189665 0.0168675 0.0266527 0.0465937 0.0423202 0.035169 0.050489 0.0557972 0.0373543 0.060115 0.066574 0.0837882 0.0709944 0.0690399 0.0758686 0.0645319 0.0723061
43 1 Mg -0.262694 9.34741 52.2523 1.2 1 0.117691 0.0673467 0.0188747 0.0373027 0.0338302 0.0408315 0.0386598 0.0719604 0.0279095 0.0850925 0.0327943 0.0577237 0.0367502 0.0711456 0.0399497 0.0954735 0.0515744 0.0967761 0.0550843 0.102062
44 1 Mg 1.87648 9.01537 49.4629 1.2 1 0.281091 0.0879021 0.0403505 0.0328915 0.0302593 0.0506095 0.0636363 0.0487541 0.0748251 0.0621964 0.0845953 0.0564874 0.0826179 0.0682698 0.0837392 0.0902533 0.0847668 0.0972465 0.0842587 0.0900087
45 2 Si 1.21415 11.3799 51.2378 2.4 1 0.134167 0.0882651 0.0328906 0.0429165 0.0397188 0.0520031 0.0538172 0.0371426 0.0548339 0.0618559 0.0725596 0.0721937 0.0758357 0.0659895 0.0902717 0.0896982 0.0805534 0.0759071 0.0795491 0.0596441
46 3 O 1.31634 12.9512 51.3023 -1.2 1 0.152311 0.0668687 0.0335607 0.0380675 0.0348894 0.0382159 0.0366566 0.0632307 0.0548492 0.067677 0.0430556 0.0771093 0.0656406 0.0619469 0.0676177 0.061955 0.0787751 0.0706705 0.0728683 0.0735056
47 3 O 1.39161 10.4834 57.8297 -1.2 1 0.00940442 0.0204217 0.026261 0.0185439 0.0120323 0.0288567 0.0280327 0.0450014 0.0620077 0.0406194 0.043686 0.0430437 0.0581227 0.0715654 0.0982354 0.0752065 0.0634644 0.0574468 0.0707583 0.0565661
48 3 O -0.115718 10.7564 50.681 -1.2 1 0.201628 0.0788386 0.0239483 0.0244288 0.0413586 0.0271189 0.0519346 0.0598809 0.0522224 0.0540551 0.0545363 0.0501011 0.058081 0.0685842 0.0888342 0.0784525 0.0753179 0.0746438 0.0767887 0.078035
49 1 Mg -3.26386 9.35564 52.3622 1.2 1 0.0868552 0.0571941 0.0202973 0.0251906 0.0245178 0.0506575 0.0383573 0.0558794 0.0301344 0.0857948 0.0331326 0.0523294 0.0390856 0.0629503 0.0395963 0.106134 0.0537116 0.102027 0.0542841 0.0905162
50 3 O 2.45216 10.7265 50.4558 -1.2 1 0.203209 0.088388 0.0207258 0.0158653 0.0368379 0.0544757 0.0555873 0.0516723 0.0540651 0.0641006 0.0619088 0.0703836 0.0500078 0.0676251 0.0985947 0.0813709 0.0753613 0.0753298 0.0613281 0.0866206
51 1 Mg -1.71193 9.4194 55.0339 1.2 1 0.0227 0.0194352 0.0226016 0.0282749 0.0122255 0.0229108 0.0243269 0.0291405 0.0398138 0.0546378 0.0550718 0.0552015 0.063765 0.0609677 0.0573353 0.0819306 0.0712877 0.0942718 0.0550838 0.0909688
52 2 Si -1.73503 7.23729 53.3769 2.4 1 0.0617175 0.0403376 0.0159009 0.0196396 0.0249294 0.0311872 0.0489499 0.0479675 0.0569493 0.0694041 0.0598743 0.0565678 0.0751402 0.0582352 0.0762527 0.0635665 0.0634693 0.0736758 0.069385 0.0686719
53 3 O -1.77356 5.73851 53.2889 -1.2 1 0.0636405 0.0352137 0.0206848 0.0209306 0.017112 0.0307453 0.0364094 0.071057 0.048453 0.0644076 0.0299268 0.0741554 0.0557108 0.073998 0.0618777 0.0641081 0.060208 0.0597323 0.0691721 0.0632612
54 3 O -1.19417 8.46968 46.4488 -1.2 1 0.524887 0.0656926 0.066449 0.050379 0.0662365 0.0568163 0.0789686 0.0553168 0.0765868 0.0719388 0.0573737 0.0504134 0.068827 0.0980527 0.130626 0.113537 0.0965004 0.0942176 0.0822552 0.0825756
55 3 O -2.92465 7.89064 54.1596 -1.2 1 0.0292976 0.0253136 0.0309757 0.0228269 0.0211713 0.032862 0.0389317 0.0436889 0.0432722 0.0639588 0.0487424 0.0427349 0.0558799 0.0621005 0.0658717 0.0681153 0.0682921 0.0751743 0.0658177 0.0690157
56 3 O -0.494454 8.04576 53.945 -1.2 1 0.0543255 0.026498 0.0314764 0.023045 0.0277255 0.0258456 0.0414076 0.0422246 0.0429682 0.0526433 0.0615724 0.048648 0.0567263 0.056578 0.0806464 0.0594181 0.0844662 0.0694215 0.0693462 0.0626415
57 1 Mg -3.18156 16.4509 57.6417 1.2 1 0.0228499 0.0117999 0.00994796 0.0308108 0.0172013 0.0380268 0.0201588 0.0539962 0.0309689 0.0785764 0.0276015 0.0467833 0.0271336 0.0562375 0.0375933 0.0998258 0.0587116 0.104227 0.0517845 0.0803739
58 1 Mg -1.6714 16.3544 49.8412 1.2 1 0.237961 0.0759907 0.0282942 0.0414682 0.0311722 0.0477252 0.0522097 0.0545656 0.0454935 0.061203 0.0642957 0.0621375 0.0707319 0.0703718 0.102586 0.08399 0.0727829 0.0950474 0.0854734 0.0808229
59 2 Si -1.18567 13.8526 47.9314 2.4 1 0.375861 0.0650331 0.0718414 0.0666109 0.0273905 0.0651204 0.0504404 0.082348 0.0583123 0.065562 0.0567951 0.0727209 0.0580828 0.0764656 0.0994996 0.0733249 0.104713 0.0981506 0.0884652 0.0885072
60 3 O -1.09664 15.4205 47.9915 -1.2 1 0.361839 0.0764472 0.0533439 0.0597473 0.0479997 0.0946053 0.0609552 0.0802352 0.052627 0.0880779 0.0524666 0.0724229 0.0615405 0.0842792 0.0847206 0.0747247 0.0948303 0.0773281 0.0742665 0.0676543
61 3 O -1.73493 12.7491 51.7772 -1.2 1 0.119226 0.057387 0.0268798 0.0298072 0.0286461 0.055586 0.0565637 0.0507713 0.0663929 0.0568634 0.0503266 0.0479817 0.0584577 0.0820846 0.0972124 0.0756828 0.0795502 0.050224 0.0675684 0.0671002
62 3 O -2.36115 13.2717 48.8238 -1.2 1 0.311399 0.0858077 0.0540746 0.0318669 0.0531397 0.0484515 0.0566888 0.0699501 0.0611132 0.0682972 0.0719896 0.0629943 0.0578445 0.0581297 0.0843815 0.0846411 0.0868383 0.0786173 0.0830907 0.0893648
63 1 Mg -0.159928 11.7639 46.8533 1.2 1 0.482257 0.0253733 0.0777753 0.0339997 0.053014 0.0958598 0.0693993 0.0893276 0.0839508 0.0838359 0.0839066 0.0691189 0.0722665 0.0920125 0.0776808 0.0864993 0.0965306 0.0960673 0.0993034 0.107963
64 3 O 0.2623 13.1866 48.413 -1.2 1 0.339845 0.0830774 0.0549666 0.0330097 0.045732 0.0639745 0.0428734 0.064918 0.0640186 0.0692375 0.0630226 0.0605686 0.0637325 0.0870343 0.100807 0.0843912 0.0970176 0.10187 0.0819874 0.0867576
65 1 Mg 1.37659 11.9365 54.4821 1.2 1 0.0177412 0.0191663 0.0203704 0.0312205 0.0147686 0.0152566 0.0224431 0.0344866 0.044057 0.063467 0.0606892 0.0597602 0.0612568 0.0659696 0.0668346 0.0757928 0.0781611 0.0819558 0.0844974 0.0630212
66 2 Si 1.31577 14.5648 56.3069 2.4 1 0.0188679 0.011919 0.0262401 0.0141879 0.0302513 0.0300261 0.0347451 0.0435004 0.0500911 0.0507935 0.0514872 0.0652889 0.068605 0.0536339 0.0625198 0.0780117 0.0639172 0.101723 0.0583767 0.0581511
67 3 O 1.40943 12.9691 56.3849 -1.2 1 0.0300798 0.0190229 0.0224575 0.0193289 0.0258478 0.0251588 0.0203057 0.0755939 0.0416862 0.0613424 0.0330701 0.0738436 0.0592621 0.0663427 0.0798617 0.0652809 0.0556782 0.0624312 0.0709603 0.06346
68 3 O 1.36565 15.4813 52.729 -1.2 1 0.0691807 0.0477783 0.0202734 0.0178695 0.025771 0.0465794 0.0530526 0.0493017 0.0521628 0.0503517 0.0483064 0.048827 0.0596667 0.0655816 0.0975584 0.069579 0.0731278 0.0636232 0.072796 0.0578168
69 3 O 0.00692587 15.1952 55.7128 -1.2 1 0.013767 0.0198233 0.0286541 0.0182288 0.0249154 0.0236511 0.0436964 0.0445352 0.0377662 0.0397771 0.0582224 0.034279 0.0535058 0.0643972 0.082965 0.0749641 0.0695135 0.0656044 0.0607095 0.0738006
70 3 O 2.71746 15.2896 55.8397 -1.2 1 0.014064 0.0233752 0.0284108 0.0185881 0.0240664 0.0154135 0.0427854 0.0433075 0.0422519 0.04467 0.0536611 0.0441614 0.0494779 0.0533441 0.0897112 0.0726944 0.0685685 0.0612887 0.0611329 0.0692276
71 1 Mg -0.206989 14.1049 52.2121 1.2 1 0.108301 0.061731 0.0265107 0.0356304 0.0338474 0.0425613 0.0362214 0.0752252 0.0275411 0.0822221 0.0277034 0.058898 0.0313985 0.0749428 0.032976 0.104111 0.0430709 0.100091 0.0436909 0.098093
72 1 Mg 1.82591 13.8102 49.4556 1.2 1 0.262929 0.105191 0.0295031 0.0434694 0.03684 0.0326564 0.0722523 0.0419953 0.0677955 0.0698457 0.0756074 0.0613757 0.0701398 0.0690654 0.0839848 0.0953052 0.0785368 0.100383 0.0900169 0.081378
73 2 Si 1.29285 16.1518 51.2434 2.4 1 0.135531 0.0836131 0.0400332 0.0398616 0.0326202 0.0526746 0.0538378 0.0439505 0.0553065 0.0682378 0.0664073 0.0698897 0.0726939 0.0642896 0.094268 0.086519 0.0763888 0.0880597 0.0718608 0.0659866
74 3 O 1.39496 17.7199 51.3047 -1.2 1 0.133598 0.0869301 0.0223236 0.0322997 0.0295127 0.0482505 0.0429807 0.0687908 0.0528698 0.061798 0.0457899 0.0798269 0.0696156 0.0641967 0.074512 0.0716768 0.0773471 0.0749222 0.0693175 0.072659
75 3 O 1.34793 15.1826 57.9353 -1.2 1 0.0107207 0.0207617 0.0214306 0.0184594 0.0189565 0.0369596 0.0302454 0.0448982 0.0574364 0.0413129 0.0398619 0.048712 0.0528616 0.0666737 0.10907 0.0651621 0.0657528 0.0536295 0.0679837 0.0628801
76 3 O -0.0269106 15.5178 50.6688 -1.2 1 0.183931 0.0827968 0.0245437 0.0199884 0.0468468 0.0407457 0.0543077 0.0600156 0.0578545 0.0618427 0.0579094 0.0500683 0.0602054 0.0741881 0.0932269 0.0802266 0.0772377 0.0808789 0.0701341 0.0883017
77 1 Mg -3.18391 14.1057 52.3125 1.2 1 0.0717652 0.0609987 0.0319789 0.0321769 0.0208398 0.0519341 0.0337196 0.0598799 0.0344677 0.0822879 0.0318767 0.0463369 0.0267196 0.0747769 0.0355117 0.109417 0.0525896 0.0992779 0.0466761 0.0927805
78 3 O 2.52432 15.503 50.4579 -1.2 1 0.193027 0.0970872 0.0228327 0.0163033 0.0435553 0.0543428 0.0554936 0.0528069 0.053761 0.0674717 0.0619381 0.0738606 0.0615953 0.064123 0.0960362 0.075963 0.0790954 0.0710868 0.063788 0.0826442
79 1 Mg -1.7781 14.3253 55.0561 1.2 1 0.0299183 0.0157874 0.0177235 0.0275639 0.0130325 0.0198839 0.0262719 0.0318566 0.0387962 0.0553994 0.0625399 0.0542192 0.0564035 0.0640042 0.0612628 0.080818 0.073511 0.0888207 0.0687261 0.0855527
80 2 Si -1.55481 12.1527 53.2245 2.4 1 0.0518194 0.0390046 0.0249377 0.0274344 0.0325045 0.039059 0.0410129 0.054495 0.0584551 0.054532 0.0576632 0.0613893 0.0753222 0.0544335 0.0647636 0.0626997 0.0722095 0.0889598 0.0659996 0.0578396
81 3 O -1.69395 10.5833 53.1802 -1.2 1 0.0679868 0.0427636 0.0237186 0.0221955 0.0352472 0.0287691 0.0340143 0.0754795 0.0462499 0.0508085 0.0519043 0.0714274 0.0538616 0.0763903 0.0702198 0.0702847 0.0517232 0.0655405 0.064687 0.0745521
82 3 O -1.21337 13.3381 46.4311 -1.2 1 0.520169 0.0676232 0.0692498 0.0405531 0.0563285 0.057541 0.0570396 0.0697102 0.0791101 0.0651165 0.0457489 0.0714618 0.06843 0.0878146 0.119669 0.113073 0.106744 0.101382 0.0593275 0.0902405
83 3 O -2.77425 12.7385 53.9278 -1.2 1 0.0405978 0.0186186 0.0341029 0.0178734 0.0258288 0.0330038 0.0524578 0.0467043 0.0427609 0.0557288 0.0481957 0.0397786 0.0523895 0.0749498 0.0730926 0.075507 0.0726011 0.0689549 0.070613 0.0663275
84 3 O -0.214058 12.8014 53.8223 -1.2 1 0.041985 0.0243582 0.0267913 0.0216914 0.033739 0.0189398 0.042649 0.0519135 0.0484603 0.0560777 0.0624204 0.041252 0.058904 0.0554135 0.0862009 0.0651651 0.0790673 0.0679027 0.0705053 0.0698543
85 1 Mg -3.00391 21.301 57.5772 1.2 1 0.0122873 0.0115292 0.00843725 0.031767 0.0109314 0.0415871 0.0185858 0.0551394 0.0221856 0.0768581 0.0254286 0.0544189 0.0243086 0.0736259 0.030671 0.099523 0.0414872 0.108822 0.045059 0.0871111
86 1 Mg -1.5831 21.1217 49.8405 1.2 1 0.22769 0.0849684 0.0266287 0.0452992 0.0310782 0.0556834 0.0520498 0.0534846 0.0522074 0.0606464 0.0664387 0.0645952 0.0730765 0.0740003 0.105045 0.0858075 0.0722985 0.0911335 0.0837792 0.0851843
87 2 Si -1.09384 18.6291 47.9287 2.4 1 0.373835 0.0687823 0.0734652 0.0671503 0.0306247 0.067645 0.0468133 0.0775941 0.0666573 0.0699744 0.0575222 0.0772349 0.0592757 0.0744621 0.0987527 0.0749276 0.105948 0.0951252 0.0896439 0.0894569
88 3 O -1.02071 20.1985 47.9911 -1.2 1 0.366035 0.069126 0.0478321 0.0639423 0.0447708 0.091062 0.0626266 0.0826161 0.0557456 0.087119 0.0548998 0.073375 0.0606696 0.0816298 0.0829647 0.0763582 0.0939215 0.0757318 0.0739723 0.0702892
89 3 O -1.65002 17.5002 51.771 -1.2 1 0.112495 0.0569273 0.0360172 0.0273148 0.0319195 0.0556417 0.0569554 0.052869 0.0634887 0.0508009 0.0562171 0.0504597 0.0537 0.0833907 0.0972378 0.0753369 0.0804666 0.0455053 0.074468 0.0728106
90 3 O -2.26174 18.0434 48.8281 -1.2 1 0.300853 0.0989507 0.0635383 0.0263063 0.0624474 0.0438813 0.0599296 0.074819 0.0634458 0.0708255 0.0726668 0.0587699 0.0524766 0.0592891 0.0762097 0.087865 0.0873241 0.0797417 0.0863783 0.0881761
91 1 Mg -0.0440435 16.5651 46.8269 1.2 1 0.488315 0.0237361 0.0748714 0.0315172 0.0583816 0.0808383 0.069987 0.0789994 0.0725094 0.0897149 0.0881345 0.0624649 0.0636737 0.0807621 0.0770933 0.0904868 0.0935284 0.0975277 0.0996267 0.107095
92 3 O 0.37001 17.9877 48.3925 -1.2 1 0.341593 0.0804416 0.0571852 0.0409815 0.0462849 0.0595917 0.0415494 0.0681189 0.065725 0.0713816 0.0605344 0.0581571 0.0662284 0.088772 0.095741 0.0769384 0.0935646 0.104451 0.0800526 0.0850486
93 1 Mg 1.23681 16.6392 54.5459 1.2 1 0.0179378 0.0280523 0.0192522 0.0330835 0.0104201 0.021796 0.0202777 0.0396774 0.0425224 0.0571188 0.0661809 0.0502315 0.0571785 0.0674612 0.0672258 0.0788182 0.0708091 0.0885321 0.0850671 0.0739655
94 2 Si 1.41384 19.2206 56.4057 2.4 1 0.0123011 0.0157314 0.0168712 0.027261 0.0255414 0.0302517 0.0440685 0.0388771 0.0542988 0.0531465 0.0505711 0.0636784 0.0689978 0.0567049 0.0781424 0.0721514 0.0639679 0.092441 0.0533783 0.0631459
95 3 O 1.41126 17.7007 56.4865 -1.2 1 0.0318218 0.0164982 0.0166385 0.0207077 0.0213177 0.0266509 0.0249363 0.0652826 0.042475 0.0527275 0.0375701 0.0649223 0.0548528 0.0690666 0.0739338 0.0630973 0.0578568 0.0730806 0.0570468 0.0700909
96 3 O 1.45147 20.239 52.7294 -1.2 1 0.0733011 0.046796 0.0264155 0.0200393 0.0220577 0.0454042 0.0459046 0.0506326 0.0470973 0.0467663 0.0445904 0.0523315 0.0597599 0.0624793 0.0972606 0.0744746 0.0715481 0.0617631 0.0666053 0.0666439
97 3 O 0.1307 19.9359 55.8939 -1.2 1 0.0126028 0.0133363 0.0320756 0.025024 0.0204298 0.0213573 0.0440773 0.0398314 0.0419228 0.04432 0.0501207 0.0459681 0.0501359 0.0692874 0.0915975 0.0699875 0.0808294 0.0620896 0.0684069 0.0699293
98 3 O 2.68968 19.9204 55.7112 -1.2 1 0.0180006 0.0160541 0.0251371 0.0215185 0.0257643 0.025919 0.0481239 0.0435938 0.0341975 0.0484005 0.0565527 0.0357848 0.0579753 0.0619237 0.0767057 0.0732497 0.0724987 0.0621876 0.0653011 0.0634159
99 1 Mg -0.126194 18.8651 52.2079 1.2 1 0.104764 0.0633498 0.0263383 0.0415826 0.0326913 0.0414797 0.0355082 0.0710955 0.0255602 0.0879542 0.0248446 0.0546711 0.034276 0.0745341 0.0362989 0.106884 0.0447732 0.0995928 0.0391783 0.101499
100 1 Mg 1.92402 18.5815 49.4545 1.2 1 0.267005 0.102736 0.0377191 0.0438236 0.0367731 0.0355481 0.0663831 0.0482347 0.0700353 0.0719533 0.0792371 0.0538099 0.0676489 0.066254 0.0848797 0.0938463 0.0816624 0.0985949 0.0816734 0.0822598
101 2 Si 1.38106 20.9117 51.2443 2.4 1 0.13652 0.0829784 0.0344779 0.0382777 0.0399463 0.0490785 0.0587417 0.0428816 0.0517853 0.0664159 0.0706018 0.0688596 0.0704917 0.0700074 0.0932249 0.0850172 0.0750884 0.0850117 0.0738344 0.0674978
102 3 O 1.48527 22.4795 51.3054 -1.2 1 0.145332 0.072496 0.0280362 0.0268854 0.0272489 0.0495289 0.039467 0.0671876 0.0510519 0.0646161 0.0468358 0.0815394 0.0664927 0.066662 0.08065 0.0717003 0.0807974 0.0756892 0.070421 0.0706651
103 3 O 1.59289 19.8744 57.9909 -1.2 1 0.00510352 0.0197682 0.0188003 0.0251181 0.0223847 0.0344268 0.028506 0.0497636 0.0558224 0.0453125 0.0433922 0.0450822 0.0536684 0.0686964 0.0979968 0.0692915 0.0641492 0.058564 0.0646157 0.0630084
104 3 O 0.0615419 20.2804 50.6669 -1.2 1 0.180407 0.0855255 0.0238444 0.0224256 0.048267 0.0424086 0.0613892 0.0639772 0.0533919 0.0571792 0.0606118 0.0481391 0.0641205 0.0759564 0.0892674 0.0782347 0.0750875 0.0786417 0.0692897 0.0851914
105 1 Mg -3.09665 18.8643 52.3122 1.2 1 0.0740345 0.0534077 0.0358886 0.0279292 0.0184577 0.0544286 0.0369359 0.0637862 0.0334976 0.0841369 0.0342819 0.0453817 0.0261291 0.074203 0.0350734 0.106026 0.046237 0.102994 0.0434355 0.0891956
106 3 O 2.61548 20.2646 50.4626 -1.2 1 0.194354 0.100293 0.0205601 0.0182221 0.0406765 0.0553573 0.0550237 0.0456756 0.055073 0.0692419 0.0634005 0.07228 0.0547648 0.059109 0.099146 0.0758361 0.0800122 0.0752858 0.0648933 0.0806451
107 1 Mg -1.5624 19.1801 55.2497 1.2 1 0.0167959 0.015737 0.0210951 0.0249943 0.0143244 0.0209463 0.0284758 0.0293605 0.0338954 0.0548629 0.0606585 0.0695847 0.0601252 0.0585967 0.072297 0.0614109 0.0897765 0.0788055 0.0760468 0.0649541
108 2 Si -1.76152 16.9059 53.2738 2.4 1 0.0486897 0.035578 0.0296921 0.023267 0.036694 0.0383826 0.0543058 0.0527968 0.0553848 0.0635985 0.0590932 0.0643746 0.0805567 0.0506235 0.0711387 0.064669 0.0727336 0.0894226 0.0630668 0.0525814
109 3 O -1.76613 15.2641 53.2296 -1.2 1 0.0594527 0.0396035 0.0250283 0.020687 0.0281914 0.0384183 0.0287825 0.0808939 0.0512778 0.0587916 0.0442761 0.0620221 0.0628423 0.0659107 0.0786276 0.0588833 0.05827 0.0620558 0.0753589 0.0735167
110 3 O -1.12868 18.1227 46.4249 -1.2 1 0.521988 0.0666253 0.0734293 0.052552 0.0575228 0.0654516 0.0617536 0.0794843 0.079774 0.0627659 0.0463767 0.068648 0.0674302 0.08744 0.117411 0.116214 0.107212 0.10001 0.0636639 0.0938234
111 3 O -3.09457 17.6251 53.8717 -1.2 1 0.033706 0.0285106 0.030483 0.0169324 0.0230972 0.0274131 0.0514536 0.049321 0.0448697 0.0490152 0.0517022 0.04267 0.0509465 0.0567953 0.0883229 0.0583505 0.0728559 0.0662604 0.0604473 0.0794995
112 3 O -0.517509 17.5159 54.0248 -1.2 1 0.0368386 0.0230965 0.0286525 0.0205177 0.0288567 0.025034 0.0332443 0.0423631 0.0464149 0.0497625 0.0574965 0.0375005 0.0596548 0.0645232 0.0840694 0.0694994 0.0727566 0.0728545 0.0713766 0.066561
113 1 Mg -3.06746 26.0568 57.2812 1.2 1 0.011738 0.0224696 0.00622752 0.0371237 0.00869835 0.0330397 0.0122 0.0552665 0.0185223 0.0775572 0.0271853 0.0480902 0.0211303 0.0723081 0.032611 0.102834 0.0361021 0.109677 0.0343666 0.0854144
114 1 Mg -1.48778 25.88 49.8402 1.2 1 0.232313 0.0821303 0.0244917 0.0378466 0.0326318 0.04857 0.0537667 0.0511127 0.0508382 0.055428 0.0611308 0.0661118 0.0747121 0.0728437 0.100224 0.0753599 0.0724946 0.0961438 0.0841137 0.0840819
115 2 Si -1.00491 23.3922 47.9274 2.4 1 0.370663 0.0700909 0.0733745 0.0686872 0.0348046 0.0755132 0.0420539 0.0847615 0.0682966 0.0733258 0.0510604 0.0757236 0.0608933 0.0738981 0.0932006 0.0788525 0.104629 0.0964035 0.0895792 0.0938743
116 3 O -0.927602 24.9615 47.9909 -1.2 1 0.370207 0.0624463 0.0423718 0.0643045 0.0432471 0.089441 0.0635574 0.0817498 0.0536739 0.0868443 0.0546431 0.0726161 0.0603068 0.0797437 0.0791728 0.0729497 0.0939285 0.0769726 0.0757385 0.0712565
117 3 O -1.55795 22.2588 51.7696 -1.2 1 0.112067 0.0580829 0.0338918 0.0289038 0.0329206 0.0541438 0.0594166 0.0511754 0.0639615 0.0516925 0.0585634 0.0503073 0.0542376 0.0834953 0.0986663 0.0767763 0.0811468 0.0478717 0.0747153 0.0714674
118 3 O -2.17411 22.8111 48.8277 -1.2 1 0.307178 0.087261 0.0516148 0.0329554 0.0564115 0.0492663 0.0558304 0.0738253 0.0623545 0.0706252 0.0719365 0.0601178 0.0583841 0.0599726 0.0780299 0.0837621 0.0886106 0.0824061 0.0814392 0.0855995
119 1 Mg 0.0423997 21.3296 46.8225 1.2 1 0.481568 0.022251 0.0806971 0.032884 0.0661833 0.0869073 0.0783618 0.0867186 0.0698506 0.0826414 0.0844892 0.0624671 0.0629213 0.0771538 0.0763375 0.0941187 0.095575 0.0973385 0.098204 0.104494
120 3 O 0.458537 22.7495 48.3911 -1.2 1 0.343455 0.0826923 0.0613927 0.0392643 0.0482373 0.0613753 0.04261 0.0667767 0.0647849 0.0723159 0.0639286 0.0591345 0.0664106 0.0888318 0.0942369 0.0765322 0.095711 0.102273 0.0802872 0.0860059
121 1 Mg 1.4904 21.3333 54.6296 1.2 1 0.0172545 0.018918 0.014512 0.0336995 0.0122075 0.0158777 0.0227145 0.0329628 0.047107 0.0605242 0.0598916 0.0587143 0.056206 0.0654909 0.0548833 0.084281 0.0680869 0.0934658 0.0720393 0.0895393
122 2 Si 1.61104 24.0519 56.3189 2.4 1 0.0290347 0.010824 0.023748 0.0243944 0.0251674 0.03409 0.0365858 0.0461102 0.051112 0.0532883 0.0478366 0.0625087 0.0716269 0.055871 0.0767607 0.0701381 0.0628672 0.0957109 0.0610891 0.0388973
123 3 O 1.63145 22.4454 56.4889 -1.2 1 0.022737 0.0170572 0.025694 0.0224585 0.0222229 0.0211242 0.0248401 0.0637162 0.0408231 0.0512302 0.045817 0.0700455 0.0558743 0.0644363 0.077057 0.0629563 0.0629729 0.0707336 0.063124 0.0700763
124 3 O 1.54441 24.9963 52.7297 -1.2 1 0.0819077 0.0415379 0.0264913 0.0245313 0.0199759 0.0459108 0.0475383 0.054697 0.0520198 0.0452327 0.0451543 0.0498157 0.0600917 0.0685002 0.102005 0.0677565 0.0679437 0.0633957 0.0702087 0.0574734
125 3 O 0.241729 24.6396 55.7965 -1.2 1 0.00690301 0.0210668 0.0261237 0.0281949 0.0195071 0.0196479 0.0488417 0.0432693 0.0389978 0.0477255 0.0496801 0.044976 0.0551835 0.0670791 0.084353 0.0711704 0.0767829 0.0553045 0.0672518 0.0658151
126 3 O 2.79344 24.727 55.5847 -1.2 1 0.00919951 0.0211102 0.0244469 0.0154976 0.0238116 0.0195337 0.0458853 0.0469763 0.0367861 0.049285 0.0543414 0.0339503 0.0538927 0.0600366 0.085814 0.0835377 0.0665592 0.0699215 0.0572032 0.0623649