ITEM: TIMESTEP
12300
ITEM: NUMBER OF ATOMS
10500
ITEM: BOX BOUNDS xy xz yz pp pp pp
0	8.9688	2.9896
0	118.725	0
0	252.977	0
ITEM: ATOMS id type element xu yu zu q Q_1 Q_2 Q_3 Q_4 Q_5 Q_6 Q_7 Q_8 Q_9 Q_10 Q_11 Q_12 Q_13 Q_14 Q_15 Q_16 Q_17 Q_18 Q_19 Q_20 Q_21
1 1 Mg -3.37086 6.96665 57.3827 1.2 1 0.00867809 0.0133952 0.00948764 0.0328752 0.00959706 0.0301103 0.0128979 0.0550111 0.0107086 0.0785898 0.0129604 0.0539022 0.0143637 0.0714341 0.0174971 0.106796 0.0201107 0.114139 0.0220162 0.0986326
2 1 Mg -1.82655 6.90154 50.0912 1.2 1 0.223045 0.0845294 0.0301987 0.0328678 0.0266137 0.0532717 0.0482619 0.0440124 0.0542299 0.067621 0.0576537 0.0718634 0.0666171 0.0600821 0.0931514 0.0599099 0.0880147 0.10027 0.074128 0.0810322
3 2 Si -0.257935 3.96038 48.0876 2.4 1 0.37177 0.0732887 0.0746947 0.0360703 0.061338 0.0520894 0.0737749 0.0771337 0.0579147 0.0782402 0.0564531 0.0684955 0.0625087 0.0853758 0.0970253 0.100243 0.109956 0.0901009 0.067922 0.0711874
4 3 O -0.335812 5.46814 47.6264 -1.2 1 0.427006 0.0391881 0.0650629 0.0309893 0.0409694 0.0481571 0.065029 0.0708142 0.0871254 0.0758702 0.0925615 0.075607 0.070503 0.0685687 0.0919883 0.125241 0.0941106 0.0794075 0.0753049 0.0778157
5 3 O -2.03793 3.43377 51.8941 -1.2 1 0.11265 0.0619668 0.0264065 0.0228292 0.0195133 0.0511331 0.0593153 0.0499826 0.0490454 0.0577309 0.0632598 0.0509309 0.0492168 0.0775096 0.0895366 0.0841427 0.0647192 0.0543215 0.0753338 0.0685013
6 3 O -1.54015 3.53929 48.9521 -1.2 1 0.294582 0.0985768 0.038652 0.0491049 0.0366766 0.0477424 0.0712468 0.0523654 0.0520766 0.0610804 0.0795265 0.0676132 0.0700172 0.0680336 0.0732854 0.111938 0.0825409 0.0771324 0.0763316 0.0908437
7 1 Mg 1.82954 2.54582 47.1376 1.2 1 0.466044 0.0216752 0.080165 0.0499896 0.0355146 0.0826093 0.0596573 0.0589028 0.0762109 0.088299 0.0680099 0.0766348 0.0821266 0.0848561 0.0699136 0.0968005 0.101619 0.103874 0.105743 0.0989041
8 3 O 1.22989 3.66364 48.7877 -1.2 1 0.318013 0.0742501 0.02168 0.0474331 0.0316728 0.0647481 0.0800614 0.032367 0.0824059 0.0794279 0.0528541 0.0774248 0.0831408 0.0687703 0.0664705 0.0877993 0.0922626 0.0897273 0.0938217 0.0925118
9 1 Mg 1.05052 2.34467 54.5937 1.2 1 0.0100908 0.0244951 0.0163784 0.0306692 0.0211663 0.0322179 0.0177297 0.030712 0.0434465 0.0630829 0.0575299 0.048343 0.0592245 0.0682282 0.0605912 0.0818107 0.0720972 0.0893571 0.0734645 0.0699693
10 2 Si 1.11959 5.00489 56.4183 2.4 1 0.0150777 0.0155133 0.0224189 0.0297537 0.0226596 0.0274424 0.0396138 0.0496726 0.0520851 0.0550639 0.0518695 0.0614072 0.068525 0.0543537 0.0853927 0.0697403 0.0589495 0.0974932 0.0515892 0.0618208
11 3 O 1.10683 3.45941 56.5086 -1.2 1 0.011519 0.0150207 0.0140621 0.0226975 0.0278406 0.0236379 0.0232875 0.0650321 0.0346022 0.0463328 0.0401895 0.0655626 0.0572256 0.0608525 0.0715633 0.0694018 0.0500866 0.0741636 0.0630969 0.0731298
12 3 O 1.10813 6.07342 52.8172 -1.2 1 0.0886726 0.0440764 0.0268785 0.0187781 0.0227559 0.0449446 0.0405396 0.0523966 0.0494476 0.0448496 0.0538274 0.0494409 0.070009 0.0675551 0.0841282 0.0835648 0.0566877 0.0667938 0.0679651 0.0697025
13 3 O -0.211368 5.67757 55.8245 -1.2 1 0.0124841 0.00880597 0.0248031 0.0288385 0.0249313 0.0187959 0.0421805 0.0406046 0.0423591 0.0459016 0.0545211 0.0416364 0.0565292 0.0566735 0.0854365 0.0686492 0.0750672 0.0595357 0.0676914 0.06453
14 3 O 2.35338 5.727 55.7343 -1.2 1 0.00817485 0.0249834 0.0295764 0.0214667 0.0204626 0.0193219 0.0463761 0.0485447 0.0385964 0.0445008 0.0538915 0.040402 0.0552536 0.058128 0.0903144 0.0738767 0.0715538 0.0693915 0.0652031 0.0665136
15 1 Mg -0.459401 4.67631 52.2426 1.2 1 0.090221 0.0695458 0.0320842 0.0411258 0.0302661 0.0313928 0.0396718 0.0609564 0.0437753 0.0784871 0.0440863 0.0606629 0.0485415 0.0724376 0.0428779 0.10181 0.0539636 0.0915385 0.0600011 0.0862434
16 1 Mg 2.79456 3.9971 49.9987 1.2 1 0.226086 0.0909711 0.0304862 0.0386023 0.0411879 0.0613489 0.0569759 0.0556689 0.0797418 0.0611601 0.0604403 0.0563765 0.0642577 0.0714431 0.0852626 0.0784919 0.0745563 0.089753 0.0831503 0.0732214
17 2 Si 1.16169 6.59457 51.2556 2.4 1 0.135521 0.0885368 0.0376336 0.0341507 0.0409482 0.0528833 0.0438294 0.0429574 0.0616388 0.0639288 0.0630974 0.0755903 0.071013 0.067258 0.0861618 0.0885857 0.0791491 0.0893275 0.0754208 0.0641257
18 3 O 1.28989 8.18905 51.2909 -1.2 1 0.155789 0.0674215 0.0334543 0.03817 0.0368999 0.0457267 0.0382092 0.069661 0.0503143 0.0702128 0.0447492 0.0857763 0.0724462 0.0609454 0.0766593 0.0704694 0.0727765 0.0675509 0.0708336 0.0699971
19 3 O 1.11901 5.64587 57.9281 -1.2 1 0.0134175 0.0163325 0.022362 0.0137471 0.0193331 0.0317206 0.0286582 0.0454679 0.0522358 0.0463572 0.0382953 0.0477392 0.0500535 0.0684515 0.100214 0.0713797 0.06879 0.0580325 0.0729426 0.06497
20 3 O -0.184847 6.06029 50.6845 -1.2 1 0.187561 0.0817457 0.0254321 0.024531 0.0389069 0.0299588 0.0456242 0.0582215 0.0602941 0.0559397 0.0644034 0.0766679 0.0641814 0.0591969 0.0871837 0.0708329 0.0812414 0.0739715 0.0593305 0.0803573
21 1 Mg -3.49704 4.67769 52.6661 1.2 1 0.0749108 0.0494721 0.0212875 0.0273189 0.0144933 0.0428131 0.0347128 0.0527543 0.0569803 0.0688585 0.0463896 0.0483741 0.0472557 0.0444797 0.0582403 0.0858877 0.0862988 0.0765951 0.0733615 0.0707414
22 3 O 2.48581 5.93312 50.6539 -1.2 1 0.19469 0.089165 0.0342833 0.0188203 0.0322123 0.0481516 0.0583713 0.0599967 0.0451298 0.0657689 0.0461284 0.0664505 0.0564589 0.0617091 0.101659 0.0683631 0.0783 0.0662014 0.0776503 0.0762957
23 1 Mg -1.85885 4.75171 55.2538 1.2 1 0.0218632 0.0187584 0.0186623 0.0261015 0.0170501 0.0200367 0.0269187 0.0376153 0.035515 0.05361 0.0573128 0.061891 0.0598647 0.0595749 0.0648631 0.0695622 0.0867756 0.0871023 0.0719079 0.0705142
24 2 Si -1.97367 2.61285 53.328 2.4 1 0.050634 0.0335461 0.0240878 0.0223696 0.0231564 0.0221298 0.0479793 0.0465601 0.0575542 0.0702261 0.0577046 0.066718 0.0761568 0.0500527 0.0691894 0.0561178 0.0694928 0.089617 0.0770034 0.0673108
25 3 O -2.03155 1.0715 53.2051 -1.2 1 0.0553051 0.0368538 0.0277801 0.0286235 0.0242744 0.0365778 0.0233395 0.0620293 0.059263 0.0589807 0.0527113 0.0692885 0.0538023 0.0740978 0.0706987 0.0694513 0.0543806 0.0654327 0.0685509 0.077314
26 3 O -0.0467762 2.97103 46.8385 -1.2 1 0.497783 0.0372613 0.0875632 0.0294544 0.0802308 0.0680812 0.0811145 0.0716044 0.0723696 0.079282 0.0817797 0.0759027 0.0971264 0.0886335 0.0888241 0.088663 0.0989264 0.0969286 0.10485 0.110588
27 3 O -3.20815 3.33139 54.1325 -1.2 1 0.0278914 0.0269224 0.0267302 0.0212386 0.0249278 0.0242726 0.0342681 0.039819 0.0526613 0.0482347 0.064277 0.0438159 0.0603992 0.0556565 0.07726 0.065467 0.0645326 0.0689636 0.0659542 0.0601679
28 3 O -0.657855 3.25819 53.9741 -1.2 1 0.0399674 0.0281204 0.0344775 0.0157875 0.0209951 0.0255008 0.0447203 0.0411782 0.04444 0.0547436 0.0611124 0.0445959 0.0534632 0.0737135 0.0769938 0.0690434 0.0811785 0.0722157 0.0680056 0.0561227
29 1 Mg -3.23281 11.7952 57.3997 1.2 1 0.00636622 0.0125499 0.00548741 0.0291795 0.00584745 0.0326378 0.00762389 0.0555256 0.0151198 0.0873606 0.0113737 0.0498206 0.0103684 0.0714575 0.016424 0.100973 0.0153622 0.112607 0.0223885 0.100036
30 1 Mg -1.75014 11.5838 49.8362 1.2 1 0.230514 0.0807582 0.0274911 0.0410602 0.02994 0.0548167 0.0498467 0.0541951 0.0469025 0.0590075 0.0656584 0.0594527 0.0717588 0.0717901 0.109267 0.0885194 0.065679 0.093731 0.0848072 0.0797996
31 2 Si -1.18003 9.02138 47.9309 2.4 1 0.367331 0.0713618 0.0694959 0.054219 0.0415111 0.0606436 0.0733027 0.07811 0.0702633 0.0665474 0.0587454 0.0665504 0.0680956 0.0805012 0.101992 0.0644059 0.100625 0.0925249 0.102587 0.085443
32 3 O -1.23224 10.5991 47.9811 -1.2 1 0.375375 0.0648695 0.058741 0.0543246 0.0521135 0.0715983 0.0665066 0.075358 0.0537015 0.0858926 0.0693658 0.0632264 0.0725236 0.0799415 0.0834563 0.0694397 0.0902537 0.0809203 0.0650184 0.0722721
33 3 O -1.79016 8.01447 51.8693 -1.2 1 0.116603 0.0612763 0.0290717 0.0265912 0.0325931 0.0464696 0.057891 0.0564905 0.057431 0.0518593 0.05002 0.0507392 0.0669416 0.0824349 0.0907081 0.0756547 0.0708758 0.0516171 0.0729461 0.0671152
34 3 O -2.30986 8.37215 48.8528 -1.2 1 0.311802 0.0876925 0.0670887 0.0247068 0.0541644 0.0614861 0.0669421 0.0662912 0.0573506 0.0653392 0.0791103 0.0673514 0.0572478 0.0651299 0.0795015 0.0911849 0.0977362 0.0804474 0.0766129 0.0944747
35 1 Mg 0.154883 7.08234 46.8007 1.2 1 0.497292 0.0361128 0.0756471 0.0390407 0.0647035 0.0747661 0.0584559 0.0680962 0.071334 0.0830322 0.0891207 0.0761979 0.0790842 0.0798187 0.0702411 0.0926148 0.0934033 0.108393 0.113465 0.100375
36 3 O 0.325447 8.50934 48.3809 -1.2 1 0.347473 0.0802479 0.0604045 0.0443116 0.0341989 0.0538713 0.0373179 0.0576009 0.0624116 0.0639866 0.0729952 0.0628805 0.0777765 0.0912197 0.0898961 0.0683236 0.0924707 0.101695 0.0856586 0.0887065
37 1 Mg 1.19449 7.09413 54.5892 1.2 1 0.012309 0.0368473 0.0153187 0.0327061 0.0196735 0.0239044 0.0244429 0.0344556 0.0421244 0.0594825 0.0582411 0.0538857 0.0527836 0.0681267 0.0609845 0.0852044 0.0696205 0.0836493 0.0786383 0.0834849
38 2 Si 1.20256 9.72846 56.3761 2.4 1 0.0145755 0.0230014 0.021304 0.024241 0.0303009 0.0317849 0.0431422 0.0382535 0.0507254 0.0561184 0.0530599 0.0673759 0.0672024 0.0567019 0.0783564 0.0711586 0.0560067 0.0937346 0.0596098 0.0606283
39 3 O 1.15267 8.1468 56.4574 -1.2 1 0.0277563 0.018528 0.0203986 0.0237197 0.0234316 0.0320209 0.0214258 0.0699574 0.0329003 0.0516336 0.0386713 0.0668545 0.0596427 0.069393 0.0702115 0.0658214 0.0583622 0.0692496 0.0628514 0.07141
40 3 O 1.28624 10.7248 52.7351 -1.2 1 0.0756514 0.0431169 0.0299342 0.0215618 0.0286113 0.0497611 0.0543693 0.0447994 0.045577 0.0431716 0.0528233 0.0432615 0.0575937 0.0703597 0.0981725 0.0780374 0.0692733 0.0569071 0.0756373 0.0596408
41 3 O -0.132736 10.4335 55.8134 -1.2 1 0.0142337 0.00889648 0.025863 0.0182419 0.0207242 0.0256012 0.0418115 0.0421572 0.0389586 0.0439686 0.0536787 0.0420675 0.0537335 0.0564359 0.0850804 0.0713847 0.0685469 0.0577209 0.0667664 0.0747592
42 3 O 2.45535 10.4205 55.6635 -1.2 1 0.0128806 0.0150649 0.0266651 0.0156377 0.0244975 0.018783 0.0500699 0.0454183 0.0356813 0.0453809 0.0556369 0.0362582 0.0524463 0.0632012 0.08186 0.0802825 0.0662323 0.0721085 0.0634753 0.0633405
43 1 Mg -0.262694 9.34741 52.2523 1.2 1 0.115907 0.0614737 0.0207087 0.0378775 0.0348027 0.0424133 0.0353695 0.0736085 0.0264957 0.0863992 0.0295799 0.0569681 0.037972 0.0724182 0.0418761 0.105094 0.0515181 0.0923958 0.0509297 0.10132
44 1 Mg 1.87648 9.01537 49.4629 1.2 1 0.270603 0.0969739 0.0388585 0.0380119 0.0335416 0.0482669 0.0697016 0.046672 0.0761724 0.0640501 0.0839949 0.0535797 0.0839716 0.0668273 0.0848739 0.0953306 0.0887708 0.0956459 0.0832943 0.0898281
45 2 Si 1.21415 11.3799 51.2378 2.4 1 0.130931 0.0853324 0.0410534 0.0357341 0.0392949 0.0520849 0.0532122 0.041606 0.0588425 0.0639994 0.0743348 0.0712352 0.0790613 0.0672006 0.0934389 0.0898191 0.0791093 0.0825223 0.0774531 0.0572875
46 3 O 1.31634 12.9512 51.3023 -1.2 1 0.133737 0.0797719 0.0293349 0.0373225 0.0301108 0.0475117 0.041321 0.070455 0.0538455 0.0682111 0.0458227 0.0798325 0.0704732 0.0610012 0.07227 0.0684406 0.0778856 0.0725938 0.0717473 0.0702917
47 3 O 1.24525 10.3747 57.9108 -1.2 1 0.00936808 0.0164398 0.0268108 0.0174587 0.0159312 0.0325973 0.0281462 0.0472098 0.0558881 0.0476946 0.0388556 0.0422637 0.0536786 0.0677466 0.104077 0.0754314 0.0650209 0.049574 0.0681469 0.0655382
48 3 O -0.115718 10.7564 50.681 -1.2 1 0.190712 0.0807305 0.0252816 0.0178607 0.0455214 0.0354587 0.048087 0.0654383 0.0508918 0.0596313 0.0610041 0.0502451 0.0612639 0.0736751 0.0954378 0.0814562 0.0745049 0.0767347 0.0740248 0.0814028
49 1 Mg -3.26386 9.35564 52.3622 1.2 1 0.0791007 0.0551714 0.0288486 0.0282906 0.0156109 0.0542181 0.0347705 0.0588462 0.0304277 0.0822788 0.032725 0.0491552 0.0371805 0.0649758 0.0364453 0.113177 0.0485366 0.104818 0.0493355 0.09264
50 3 O 2.45216 10.7265 50.4558 -1.2 1 0.199842 0.0902306 0.0180502 0.0112121 0.040711 0.0496808 0.0588172 0.0507584 0.056763 0.0680353 0.0625307 0.0759677 0.0542031 0.0649664 0.0973262 0.0820758 0.0760913 0.0739595 0.059415 0.0883597
51 1 Mg -1.85831 9.52748 55.1617 1.2 1 0.0214328 0.0161126 0.0173262 0.0319601 0.0125575 0.0219446 0.0194402 0.0360227 0.0360994 0.0564873 0.0572798 0.0535597 0.0608249 0.067686 0.0630548 0.0736499 0.0766843 0.0922292 0.0763451 0.0756588
52 2 Si -1.76203 7.40016 53.3658 2.4 1 0.0568157 0.0401466 0.0214482 0.0323687 0.031313 0.03195 0.043659 0.0542756 0.0625267 0.0646036 0.0569732 0.0627071 0.0729329 0.0498613 0.0687522 0.0668616 0.0688774 0.0859633 0.06781 0.0584206
53 3 O -1.88513 5.85392 53.3366 -1.2 1 0.0598667 0.035995 0.0232254 0.014016 0.0200073 0.0318579 0.0341557 0.0673313 0.0461347 0.0659243 0.0381182 0.0763583 0.0543916 0.0767918 0.0594826 0.065774 0.059126 0.0573988 0.0725854 0.0644086
54 3 O -1.19417 8.46968 46.4488 -1.2 1 0.525001 0.0664792 0.0668548 0.0514919 0.0667203 0.0557321 0.0778058 0.0541487 0.0757237 0.0709374 0.0567582 0.0510573 0.0700255 0.0984457 0.130149 0.113158 0.0975114 0.0958832 0.0832831 0.0824719
55 3 O -3.04864 8.12617 54.0079 -1.2 1 0.041575 0.0200057 0.0199676 0.0195277 0.0262579 0.0274737 0.0499188 0.0442043 0.0418507 0.0554614 0.0533355 0.0433219 0.0616786 0.0574061 0.0849864 0.0630895 0.0681325 0.0656688 0.0648511 0.0730242
56 3 O -0.490267 8.07042 53.9676 -1.2 1 0.0562764 0.028713 0.0299585 0.0225558 0.0323684 0.0225214 0.0372836 0.0459426 0.0440011 0.0523477 0.0591865 0.0515189 0.0553787 0.0596607 0.0875568 0.0589941 0.0764348 0.0708219 0.072178 0.0710382
57 1 Mg -3.16659 16.5601 57.4748 1.2 1 0.0111726 0.0146452 0.0070245 0.0289807 0.00782448 0.0328211 0.0062812 0.0594172 0.00931751 0.0857895 0.00968509 0.0533961 0.0126716 0.0716102 0.0142194 0.099458 0.0167061 0.117165 0.0216262 0.105712
58 1 Mg -1.6714 16.3544 49.8412 1.2 1 0.229932 0.0816476 0.0260303 0.0421882 0.0292145 0.0530367 0.0529319 0.0536733 0.047469 0.0615329 0.0639251 0.0630427 0.0725713 0.0762134 0.10718 0.0864248 0.0738051 0.0933459 0.0832354 0.0858116
59 2 Si -1.18567 13.8526 47.9314 2.4 1 0.371787 0.0696308 0.0731571 0.0632603 0.0306616 0.0683372 0.0480559 0.0800176 0.0652123 0.066724 0.0521355 0.0732949 0.0588157 0.0776165 0.0992411 0.0752799 0.104315 0.0968025 0.0880805 0.0904309
60 3 O -1.09664 15.4205 47.9915 -1.2 1 0.361995 0.0759741 0.0525751 0.0612957 0.0474429 0.093643 0.0612103 0.0810825 0.0531047 0.0874158 0.0523065 0.0721536 0.0617092 0.0840882 0.0836932 0.0750587 0.0962674 0.0780653 0.0723293 0.0686972
61 3 O -1.73493 12.7491 51.7772 -1.2 1 0.115198 0.0558962 0.0320029 0.0302757 0.0368952 0.049062 0.0628115 0.0522011 0.064817 0.0503206 0.0595931 0.0485295 0.0561365 0.0864522 0.103619 0.0785124 0.0791189 0.0471699 0.0723145 0.0690809
62 3 O -2.36115 13.2717 48.8238 -1.2 1 0.302309 0.0966579 0.060793 0.0266032 0.0587913 0.0532117 0.0593272 0.0695089 0.0594442 0.066015 0.0719874 0.063753 0.0617252 0.0574418 0.0825126 0.08664 0.0869427 0.0785501 0.081692 0.0897305
63 1 Mg -0.159928 11.7639 46.8533 1.2 1 0.482486 0.0257453 0.0770585 0.0339052 0.0532986 0.0969677 0.0704385 0.0877481 0.0825816 0.0844849 0.084632 0.0692383 0.0717482 0.0913684 0.0771416 0.0861149 0.0970553 0.0973058 0.0988169 0.105481
64 3 O 0.2623 13.1866 48.413 -1.2 1 0.339258 0.0830801 0.0571551 0.0367066 0.0462134 0.0605552 0.0428245 0.0689554 0.0665846 0.0716727 0.0644352 0.059501 0.0648214 0.0898382 0.101444 0.0839279 0.0952812 0.0985511 0.0807314 0.0850078
65 1 Mg 1.19749 11.9701 54.6065 1.2 1 0.0249814 0.0274111 0.0155305 0.031924 0.0138411 0.0208864 0.0170364 0.0306802 0.0449111 0.0581471 0.0688202 0.0530114 0.0548125 0.0630422 0.0650036 0.0887306 0.0698357 0.0793552 0.0870602 0.0728833
66 2 Si 1.37434 14.4678 56.478 2.4 1 0.013553 0.0152663 0.0125091 0.0332766 0.0272341 0.0306176 0.0439614 0.0396544 0.05159 0.0569359 0.0533718 0.0667732 0.0715688 0.0576994 0.0842287 0.0688072 0.0644845 0.0895091 0.055009 0.0607518
67 3 O 1.30948 12.9312 56.5556 -1.2 1 0.0310829 0.0149398 0.016231 0.0187823 0.0220893 0.0209177 0.0264021 0.0718112 0.0391225 0.0516595 0.0413335 0.0666585 0.0549334 0.0659425 0.0809173 0.0653264 0.0550646 0.0752235 0.0558069 0.0738728
68 3 O 1.36565 15.4813 52.729 -1.2 1 0.0661292 0.0405146 0.0300588 0.0210006 0.0289963 0.0377156 0.0522049 0.0549553 0.0482484 0.0502222 0.0435618 0.0511598 0.0551315 0.0667516 0.101862 0.0781628 0.0710931 0.0589826 0.0719203 0.0621177
69 3 O 0.0781342 15.1437 55.7837 -1.2 1 0.0158346 0.00861378 0.0379327 0.0199572 0.0194674 0.0233749 0.046492 0.0428474 0.036764 0.0467993 0.0496401 0.0445533 0.0517407 0.060703 0.0837217 0.0742918 0.0744895 0.0540777 0.0660637 0.0713582
70 3 O 2.66065 15.1965 55.8182 -1.2 1 0.0215059 0.0125731 0.0353103 0.0204573 0.0219117 0.0176157 0.0472443 0.0446385 0.0385683 0.042103 0.0574031 0.0420498 0.0544087 0.0600628 0.0908309 0.0745872 0.0708458 0.0664634 0.0627377 0.0664839
71 1 Mg -0.206989 14.1049 52.2121 1.2 1 0.107158 0.0645601 0.023826 0.0420608 0.0280372 0.0393959 0.0376844 0.06967 0.0265967 0.083986 0.0285784 0.0529101 0.0318059 0.0755631 0.0331209 0.105704 0.0428658 0.104897 0.0427752 0.0973016
72 1 Mg 1.82591 13.8102 49.4556 1.2 1 0.260861 0.1068 0.0340643 0.0423894 0.0386011 0.0384698 0.0682622 0.046402 0.0708584 0.0743785 0.0757035 0.0553535 0.0722939 0.0713226 0.0844552 0.0927962 0.0779043 0.0980742 0.0891755 0.0844152
73 2 Si 1.29285 16.1518 51.2434 2.4 1 0.129236 0.0888268 0.0389074 0.0361771 0.0411104 0.04898 0.0566323 0.0431386 0.0535692 0.0651809 0.0680318 0.0733714 0.0717486 0.0685416 0.0933592 0.0856107 0.0759061 0.0889737 0.0740003 0.0636578
74 3 O 1.39496 17.7199 51.3047 -1.2 1 0.140415 0.0755463 0.0270166 0.0309106 0.0270153 0.0465725 0.0424028 0.0726782 0.05 0.0618739 0.0460497 0.0794037 0.0691578 0.0635636 0.0756479 0.0691613 0.0789201 0.0716193 0.0645224 0.0729889
75 3 O 1.33265 15.1327 58.0087 -1.2 1 0.0189598 0.0212884 0.0206972 0.0186501 0.0212051 0.0340884 0.0333819 0.0455135 0.0459162 0.0480028 0.0375148 0.0513799 0.0522082 0.0646786 0.10232 0.0677324 0.0655568 0.0637862 0.0661709 0.0704094
76 3 O -0.0269106 15.5178 50.6688 -1.2 1 0.184918 0.0858375 0.027746 0.0247232 0.0431924 0.038834 0.0548256 0.0654467 0.0553149 0.0563121 0.0585575 0.0479046 0.0626185 0.0731182 0.0931555 0.0800025 0.0776894 0.0777258 0.0720285 0.0898603
77 1 Mg -3.18391 14.1057 52.3125 1.2 1 0.0704398 0.0544956 0.0374606 0.030852 0.0142862 0.0562699 0.0359398 0.0622584 0.0351998 0.0827915 0.0347272 0.0448652 0.0274367 0.0741554 0.0338369 0.111089 0.0467134 0.106316 0.0440751 0.0892255
78 3 O 2.52432 15.503 50.4579 -1.2 1 0.19425 0.0958396 0.019972 0.0130146 0.0431738 0.0530608 0.0565758 0.0504847 0.054348 0.0680249 0.0634568 0.0730563 0.0562991 0.0610543 0.101309 0.079615 0.0774939 0.0711132 0.062118 0.086258
79 1 Mg -1.63575 14.137 55.1704 1.2 1 0.019795 0.0152434 0.0186985 0.0282289 0.0126884 0.0245425 0.0273506 0.0349298 0.0398499 0.0603902 0.0569556 0.0591647 0.0606571 0.063472 0.0661166 0.0710805 0.0783753 0.0967038 0.0678402 0.0848963
80 2 Si -1.76148 12.1003 53.2763 2.4 1 0.0620097 0.0347962 0.0185515 0.0187891 0.0317768 0.0354001 0.0458997 0.0557008 0.0593768 0.0611785 0.0584505 0.0665488 0.0780053 0.0521502 0.0687765 0.0639545 0.0646085 0.0871048 0.0633021 0.0618831
81 3 O -1.74485 10.5506 53.2356 -1.2 1 0.0648903 0.0387909 0.0220241 0.0217635 0.0285043 0.0343563 0.0261117 0.0773984 0.0460082 0.0582717 0.0478964 0.0725337 0.0613494 0.0759502 0.0691967 0.0666879 0.0522214 0.0626615 0.0653383 0.0719826
82 3 O -1.21337 13.3381 46.4311 -1.2 1 0.520148 0.0679369 0.0700196 0.040938 0.0560137 0.0580948 0.0583445 0.0705391 0.0798341 0.0660837 0.0462336 0.0713637 0.0684356 0.0882107 0.120901 0.114868 0.106839 0.0998681 0.0597565 0.0915643
83 3 O -3.06875 12.8317 53.897 -1.2 1 0.0289602 0.0221795 0.0278538 0.0245035 0.0193772 0.0284972 0.0549742 0.0510641 0.0446346 0.0510315 0.0516796 0.0445587 0.0551616 0.0644051 0.091054 0.0608208 0.0734493 0.0545043 0.0609385 0.0799591
84 3 O -0.491546 12.7574 53.9814 -1.2 1 0.0460014 0.0208023 0.0255763 0.0227818 0.0280164 0.023708 0.0376058 0.0469347 0.040942 0.0555053 0.0587941 0.0440724 0.0560711 0.0654795 0.0844216 0.0657471 0.0766156 0.0685473 0.0669198 0.0668955
85 1 Mg -3.06215 21.3566 57.3934 1.2 1 0.0069712 0.013626 0.00580419 0.0269739 0.0106785 0.0321289 0.0108564 0.0554636 0.0124725 0.0849089 0.0137876 0.0520132 0.0140679 0.0688319 0.0190033 0.100836 0.0252315 0.113028 0.0250661 0.0972303
86 1 Mg -1.5831 21.1217 49.8405 1.2 1 0.230044 0.0822839 0.0229877 0.0424565 0.0293311 0.0496333 0.0557056 0.0521981 0.0516288 0.058579 0.0626868 0.0663073 0.0718383 0.0728034 0.101843 0.0818719 0.073578 0.0945047 0.0835859 0.083908
87 2 Si -1.09384 18.6291 47.9287 2.4 1 0.376319 0.0635368 0.0654719 0.0685277 0.0283341 0.0680276 0.0460009 0.079195 0.0645152 0.0679137 0.054231 0.0743332 0.0603278 0.0749433 0.100202 0.0729237 0.103682 0.0935746 0.0900096 0.0880633
88 3 O -1.02071 20.1985 47.9911 -1.2 1 0.365917 0.0695557 0.0489156 0.0629823 0.0453104 0.0919728 0.0627763 0.081893 0.0562987 0.0882744 0.0546094 0.072628 0.0610025 0.0823231 0.0821708 0.0748751 0.0943978 0.0774063 0.0750249 0.0684139
89 3 O -1.65002 17.5002 51.771 -1.2 1 0.112454 0.0572539 0.0345424 0.0278251 0.0327684 0.0537318 0.05877 0.0497533 0.0653867 0.0526403 0.0561748 0.0479359 0.0550897 0.0833146 0.102993 0.0764456 0.0787036 0.0435694 0.0777647 0.0731634
90 3 O -2.26174 18.0434 48.8281 -1.2 1 0.306271 0.0909457 0.0565177 0.0322557 0.058368 0.0488632 0.0530929 0.073177 0.0618383 0.0657918 0.0728201 0.0598451 0.0531088 0.0556156 0.0790081 0.0861949 0.0852184 0.0786733 0.0825876 0.089299
91 1 Mg -0.0440435 16.5651 46.8269 1.2 1 0.481216 0.0222573 0.0811948 0.0328718 0.0665959 0.0869456 0.078509 0.085423 0.0690586 0.0837266 0.084966 0.0622822 0.0636335 0.0779059 0.0763123 0.0940171 0.0948808 0.0966565 0.0980167 0.104389
92 3 O 0.37001 17.9877 48.3925 -1.2 1 0.343933 0.0819925 0.0600381 0.0406138 0.0446272 0.0601285 0.0446241 0.0653375 0.0640524 0.075389 0.061665 0.0565571 0.0694438 0.0879117 0.0929464 0.0771902 0.0933115 0.100867 0.0783491 0.0840976
93 1 Mg 1.35808 16.559 54.5813 1.2 1 0.0046439 0.027562 0.0110841 0.033985 0.0118621 0.0188552 0.0207508 0.0340751 0.0425402 0.0582376 0.0591444 0.0554322 0.0574991 0.0677708 0.0587866 0.0836805 0.07092 0.0920946 0.0730177 0.0833487
94 2 Si 1.43747 19.2314 56.3798 2.4 1 0.019337 0.0146236 0.0229989 0.03507 0.0306729 0.0259409 0.0403718 0.0357066 0.0476775 0.0519548 0.0550169 0.0630421 0.0724503 0.0630741 0.081009 0.0773755 0.0564613 0.0913064 0.0566704 0.0553268
95 3 O 1.36876 17.6683 56.5402 -1.2 1 0.0331226 0.0111246 0.0183242 0.0227475 0.0193698 0.0268808 0.0193552 0.0665731 0.040215 0.0497152 0.0399142 0.069535 0.0529578 0.062772 0.0765964 0.069937 0.0610984 0.0740943 0.0580133 0.0763084
96 3 O 1.45147 20.239 52.7294 -1.2 1 0.0723344 0.0438759 0.0295676 0.0201799 0.0239053 0.0438218 0.0499817 0.056711 0.0500579 0.0488942 0.0471821 0.0511957 0.0574646 0.0647697 0.101279 0.074037 0.0673032 0.0589443 0.0707423 0.0610564
97 3 O 0.187419 19.9737 55.7033 -1.2 1 0.00907301 0.0137803 0.0257804 0.0198295 0.0175278 0.0176117 0.0434258 0.041474 0.0317599 0.047999 0.0538906 0.0407083 0.0519776 0.0582194 0.0908969 0.0702011 0.0740246 0.0629526 0.0609408 0.0708475
98 3 O 2.72358 19.9411 55.7363 -1.2 1 0.0215701 0.0131168 0.0264588 0.016358 0.0244608 0.0165532 0.048557 0.0428288 0.03879 0.0430861 0.0526939 0.038315 0.0555389 0.062193 0.0830483 0.0771875 0.0737119 0.0629533 0.0660698 0.0700702
99 1 Mg -0.126194 18.8651 52.2079 1.2 1 0.103585 0.066444 0.0248738 0.0475919 0.026857 0.0412831 0.0393749 0.069868 0.0273529 0.0839252 0.0271079 0.0528364 0.0319522 0.0720126 0.0318123 0.1105 0.0442486 0.100443 0.0420272 0.097064
100 1 Mg 1.92402 18.5815 49.4545 1.2 1 0.261015 0.108089 0.0338446 0.0450435 0.032497 0.0338839 0.0716622 0.0449898 0.0732675 0.072876 0.0775759 0.056029 0.0730298 0.0685454 0.0867695 0.0938039 0.0779906 0.0973615 0.0844191 0.0828156
101 2 Si 1.38106 20.9117 51.2443 2.4 1 0.124633 0.0876434 0.0399412 0.0377563 0.0391535 0.0516636 0.0511672 0.0442529 0.0559374 0.0662799 0.0684233 0.0726437 0.0694526 0.0718838 0.0920392 0.0831304 0.0752714 0.0842083 0.0693824 0.061505
102 3 O 1.48527 22.4795 51.3054 -1.2 1 0.14407 0.0691998 0.0343365 0.0328144 0.0316001 0.0446977 0.040801 0.0694334 0.0498867 0.0617759 0.0473299 0.078353 0.0685796 0.0603391 0.0759219 0.0688349 0.0769179 0.0758459 0.071836 0.073274
103 3 O 1.40823 19.9264 57.8372 -1.2 1 0.0152662 0.020202 0.0261751 0.0158291 0.0191086 0.0336557 0.0302569 0.0437229 0.0509337 0.0444653 0.0399678 0.0464532 0.050513 0.0654552 0.105182 0.0704511 0.0669419 0.0476542 0.0752109 0.0667262
104 3 O 0.0615419 20.2804 50.6669 -1.2 1 0.187362 0.0812993 0.0258204 0.019492 0.0458972 0.0409061 0.0532716 0.063807 0.0540928 0.055664 0.0590602 0.0486224 0.0591893 0.0761546 0.0949755 0.0795614 0.0753912 0.0781894 0.0693837 0.0880824
105 1 Mg -3.09665 18.8643 52.3122 1.2 1 0.0682207 0.0561686 0.0370072 0.0327196 0.0147659 0.0555476 0.0379951 0.063487 0.0350375 0.0820219 0.0356029 0.0463059 0.0253242 0.0733441 0.0336012 0.110099 0.0416631 0.103348 0.0475752 0.0900521
106 3 O 2.61548 20.2646 50.4626 -1.2 1 0.198668 0.0917202 0.0221318 0.0188174 0.0390532 0.0545042 0.0579066 0.0459733 0.0564811 0.0670787 0.0628837 0.0685172 0.0548799 0.0606555 0.099803 0.0763133 0.0779708 0.0721213 0.0617108 0.0849931
107 1 Mg -1.51472 19.0429 55.1811 1.2 1 0.0132755 0.0162261 0.0170128 0.0267038 0.0129943 0.0197218 0.02527 0.0355723 0.0352897 0.0592487 0.057604 0.0607464 0.0622086 0.0628489 0.0696049 0.0707062 0.0865222 0.0893218 0.0772108 0.0727538
108 2 Si -1.63904 16.8375 53.2831 2.4 1 0.0536732 0.0439163 0.0126154 0.0196389 0.0337312 0.0347101 0.0483007 0.0532176 0.0602052 0.0638092 0.0625483 0.0693521 0.0794526 0.0524451 0.070285 0.0628472 0.0677691 0.0894818 0.0619788 0.0616686
109 3 O -1.61009 15.3252 53.2564 -1.2 1 0.0631207 0.0314723 0.0244735 0.020324 0.0340211 0.0318929 0.0276022 0.0726044 0.0448866 0.0616836 0.0476443 0.0720572 0.0553778 0.0748744 0.0692517 0.0653867 0.0507758 0.0641189 0.0730834 0.0737164
110 3 O -1.12868 18.1227 46.4249 -1.2 1 0.522062 0.0664969 0.0725414 0.0521851 0.057763 0.0648821 0.060733 0.0790492 0.079453 0.0621198 0.0450621 0.0677092 0.0672273 0.0875558 0.116672 0.115062 0.107347 0.100914 0.0622472 0.0918629
111 3 O -2.93352 17.6062 53.9505 -1.2 1 0.0449613 0.0179478 0.0260278 0.0245172 0.0231241 0.0266006 0.0489033 0.0453461 0.0394139 0.0521659 0.0552507 0.042179 0.0549454 0.0577684 0.0878213 0.0654825 0.069201 0.0607687 0.0611003 0.0729958
112 3 O -0.316911 17.5304 53.922 -1.2 1 0.0392444 0.032903 0.0279359 0.0239026 0.024378 0.0236356 0.0392962 0.0499475 0.0444591 0.0553487 0.0570775 0.0466525 0.0556003 0.0662971 0.0899753 0.0631767 0.0749839 0.0645518 0.0686747 0.0699001
113 1 Mg -2.82535 25.9741 57.2031 1.2 1 0.0206343 0.0156836 0.0115174 0.0280776 0.0163598 0.0329985 0.0162664 0.0507906 0.0256536 0.0830171 0.0248802 0.0461652 0.019068 0.0662579 0.0325361 0.0973353 0.0420571 0.107265 0.0536311 0.0887364
114 1 Mg -1.48778 25.88 49.8402 1.2 1 0.226098 0.0854347 0.025275 0.0428555 0.0306091 0.05175 0.0551571 0.0536877 0.0514219 0.061304 0.0618956 0.0641679 0.0750098 0.0764173 0.103094 0.081479 0.0737144 0.0939029 0.0819263 0.0840126
115 2 Si -1.00491 23.3922 47.9274 2.4 1 0.371984 0.0682516 0.0700963 0.073544 0.0322444 0.0730802 0.0443711 0.0868234 0.0657949 0.071823 0.0536732 0.0755826 0.0588283 0.0745332 0.0958816 0.075147 0.102352 0.0960932 0.0884847 0.0937173
116 3 O -0.927602 24.9615 47.9909 -1.2 1 0.365594 0.0699467 0.0496505 0.0632134 0.0453921 0.0919124 0.0629609 0.0816529 0.0566413 0.0884113 0.0535652 0.071274 0.0603704 0.0821839 0.0811324 0.0733708 0.0939516 0.0764655 0.0750977 0.0685403
117 3 O -1.55795 22.2588 51.7696 -1.2 1 0.115188 0.05653 0.0324981 0.0271357 0.0324859 0.0514365 0.0592623 0.0502574 0.0674353 0.0524967 0.0565698 0.0491745 0.0526353 0.079334 0.101533 0.0776027 0.0791576 0.046987 0.0736232 0.0675858
118 3 O -2.17411 22.8111 48.8277 -1.2 1 0.310893 0.0847642 0.051948 0.0353274 0.0559437 0.0480949 0.0530625 0.0730596 0.0617936 0.0677916 0.0709884 0.0586349 0.0542575 0.0555696 0.0773058 0.0835533 0.0847824 0.0801705 0.0829061 0.0880525
119 1 Mg 0.0423997 21.3296 46.8225 1.2 1 0.481513 0.0223899 0.0811652 0.0325867 0.0658825 0.087501 0.0783166 0.085038 0.0685299 0.0835476 0.0856733 0.062929 0.0630538 0.0776649 0.076912 0.0940229 0.095111 0.0972884 0.0986399 0.104669
120 3 O 0.458537 22.7495 48.3911 -1.2 1 0.345057 0.0780502 0.0563373 0.0406402 0.0465113 0.0618594 0.0408463 0.0665913 0.0663914 0.0719216 0.059598 0.0563295 0.0646347 0.0870758 0.0944788 0.0764442 0.0938907 0.10031 0.0802005 0.0862656
121 1 Mg 1.48152 21.3514 54.5276 1.2 1 0.0125106 0.0273734 0.0143956 0.0314917 0.0168026 0.0205951 0.0254895 0.0363907 0.0463975 0.059193 0.0601474 0.0545146 0.0596958 0.0640355 0.0646355 0.0788644 0.0728925 0.0909552 0.0774686 0.0814208
122 2 Si 1.57976 23.9897 56.3631 2.4 1 0.0217049 0.014667 0.0183855 0.0356318 0.028982 0.0289991 0.0403789 0.0448192 0.0530316 0.0555899 0.0503296 0.0647361 0.0715947 0.0520713 0.0770823 0.0727098 0.0628323 0.0951106 0.055236 0.0553789
123 3 O 1.44873 22.4462 56.4637 -1.2 1 0.0294664 0.011276 0.0158846 0.0304449 0.0227246 0.0263875 0.0237586 0.0642838 0.0385529 0.0527602 0.0431217 0.0625348 0.0518184 0.0640078 0.0700305 0.0640956 0.0629451 0.0689281 0.0652132 0.0787075
124 3 O 1.54441 24.9963 52.7297 -1.2 1 0.0711288 0.0434565 0.0293517 0.0229336 0.0274375 0.0419696 0.0500976 0.0542494 0.0497832 0.0478903 0.0440565 0.0479532 0.056244 0.0691095 0.101149 0.0742926 0.065815 0.0638123 0.0735364 0.0627304
125 3 O 0.313932 24.6577 55.6762 -1.2 1 0.0187994 0.00691321 0.0304942 0.0199807 0.0179107 0.0232018 0.0397202 0.0394789 0.035516 0.0518463 0.0505275 0.0432007 0.0508015 0.0603163 0.0841718 0.0727975 0.0727699 0.0574452 0.0675804 0.0658055
126 3 O 2.8383 24.6265 55.7446 -1.2 1 0.0279586 0.0145571 0.022419 0.0165889 0.0235911 0.0240011 0.0482532 0.0452278 0.0360136 0.0429928 0.0541583 0.0368493 0.0553475 0.0695699 0.0779927 0.0751612 0.0818573 0.061484 0.0684812 0.0715022