ITEM: TIMESTEP
3500
ITEM: NUMBER OF ATOMS
10500
ITEM: BOX BOUNDS xy xz yz pp pp pp
0	8.9688	2.9896
0	118.725	0
0	252.977	0
ITEM: ATOMS id type element xu yu zu q Q_1 Q_2 Q_3 Q_4 Q_5 Q_6 Q_7 Q_8 Q_9 Q_10 Q_11 Q_12 Q_13 Q_14 Q_15 Q_16 Q_17 Q_18 Q_19 Q_20 Q_21
1 1 Mg -3.30019 7.00792 57.5203 1.2 1 0.0117237 0.0120656 0.00851053 0.0259357 0.00798908 0.031925 0.00844409 0.0564805 0.00897448 0.0843145 0.0116099 0.0515078 0.00997133 0.071645 0.0134974 0.101655 0.0163379 0.115742 0.0139073 0.100494
2 1 Mg -1.82655 6.90154 50.0912 1.2 1 0.21992 0.0875732 0.0328287 0.0312526 0.0290407 0.0560174 0.0459301 0.0438844 0.0556103 0.0674689 0.0559029 0.0741941 0.0689608 0.0628515 0.0951085 0.0601526 0.0875618 0.100129 0.0748244 0.0791151
3 2 Si -0.257935 3.96038 48.0876 2.4 1 0.371902 0.0728666 0.0743016 0.0365777 0.0610751 0.0518974 0.0740901 0.0768687 0.0578805 0.0784133 0.0564446 0.0680634 0.0621714 0.0848084 0.0963891 0.0998552 0.109971 0.09043 0.0687731 0.0716728
4 3 O -0.335812 5.46814 47.6264 -1.2 1 0.427094 0.039192 0.0646294 0.0309938 0.0407435 0.047722 0.0652696 0.0711522 0.0872733 0.0758592 0.0925297 0.0758751 0.0705713 0.0684202 0.0920541 0.125459 0.0945307 0.0798026 0.0758368 0.0784447
5 3 O -2.03793 3.43377 51.8941 -1.2 1 0.114047 0.0595194 0.0288121 0.0229358 0.0204282 0.05169 0.0602548 0.0491162 0.0485923 0.0580621 0.0635284 0.0518518 0.0495042 0.0763034 0.0877144 0.0824517 0.0690369 0.0562146 0.0732916 0.069486
6 3 O -1.54015 3.53929 48.9521 -1.2 1 0.295025 0.0976241 0.0370181 0.0491104 0.0364287 0.0476414 0.0719757 0.0528372 0.0516709 0.0616972 0.0794688 0.0681063 0.0704054 0.0669492 0.0735718 0.112862 0.0839663 0.0754096 0.0735538 0.0902356
7 1 Mg 1.82954 2.54582 47.1376 1.2 1 0.466102 0.0217285 0.0800789 0.0501038 0.0354809 0.0827005 0.0596496 0.0586615 0.076425 0.0887797 0.0686899 0.0770401 0.0819448 0.0845337 0.0699118 0.0966264 0.101389 0.104335 0.106153 0.0984187
8 3 O 1.22989 3.66364 48.7877 -1.2 1 0.318346 0.0737056 0.0208987 0.0474832 0.0312193 0.0645605 0.0801603 0.0327422 0.0817607 0.0796301 0.0531895 0.0773988 0.0826621 0.0686673 0.0668528 0.087338 0.0932527 0.0902469 0.0937643 0.0930368
9 1 Mg 1.06505 2.31445 54.5931 1.2 1 0.0138465 0.0218607 0.0198395 0.0326945 0.0218568 0.032664 0.0211494 0.0285648 0.042459 0.0603246 0.0554949 0.0570227 0.0575904 0.0672468 0.0608156 0.0795229 0.068421 0.0938468 0.0738642 0.07585
10 2 Si 1.16667 4.96334 56.5308 2.4 1 0.0133761 0.0121397 0.0220348 0.029447 0.0221588 0.0269375 0.0400525 0.0442284 0.0552018 0.0550789 0.0525368 0.0634084 0.0606338 0.0579897 0.0844831 0.0660414 0.0567582 0.0948191 0.0572442 0.0565038
11 3 O 1.02508 3.41066 56.6266 -1.2 1 0.0268525 0.0179322 0.0111758 0.0236119 0.0171454 0.0235424 0.0233444 0.0619481 0.0371701 0.0469437 0.0382501 0.0674573 0.0524454 0.0588985 0.0759981 0.0713671 0.0572169 0.0737878 0.0584353 0.0823274
12 3 O 1.10813 6.07342 52.8172 -1.2 1 0.0765529 0.0517665 0.0277263 0.0147734 0.0225192 0.0453724 0.0438807 0.0552625 0.0523945 0.0428628 0.0565224 0.0510843 0.0680843 0.069048 0.0871183 0.0874621 0.0590879 0.0663957 0.0668461 0.0676033
13 3 O -0.102528 5.68441 55.8278 -1.2 1 0.0096601 0.00994248 0.0255044 0.0237911 0.0238017 0.0163534 0.0400843 0.0376364 0.0383269 0.0436878 0.0535798 0.0430055 0.0533349 0.0514878 0.0864065 0.0698526 0.0744215 0.0608754 0.0656351 0.0658407
14 3 O 2.45358 5.67037 55.8417 -1.2 1 0.0200139 0.0123216 0.0324768 0.0185971 0.0213206 0.0148446 0.0433076 0.0446503 0.0442531 0.0386067 0.0556984 0.0416083 0.0548376 0.0594712 0.0821173 0.0728518 0.0741377 0.0644238 0.0658278 0.06752
15 1 Mg -0.459401 4.67631 52.2426 1.2 1 0.0917046 0.0666661 0.0344456 0.0410381 0.0297402 0.0302058 0.0410196 0.060467 0.0430808 0.0789738 0.044059 0.05952 0.0500803 0.0728355 0.0433083 0.101117 0.0534303 0.0927033 0.0608183 0.0846603
16 1 Mg 2.79456 3.9971 49.9987 1.2 1 0.222088 0.095015 0.0296384 0.0408313 0.0432336 0.0611162 0.0561054 0.0561523 0.079644 0.0633454 0.0629188 0.0568829 0.0632628 0.0710189 0.0843739 0.0771144 0.0719984 0.0901458 0.0865309 0.0742228
17 2 Si 1.16169 6.59457 51.2556 2.4 1 0.13489 0.0863395 0.040749 0.0376962 0.0413542 0.051453 0.0439193 0.0445145 0.06166 0.0661756 0.0649608 0.0757376 0.0735728 0.0657766 0.0840108 0.0884918 0.0764554 0.0875505 0.0752678 0.0630622
18 3 O 1.28989 8.18905 51.2909 -1.2 1 0.136742 0.0903935 0.0250407 0.0389665 0.0363816 0.0454738 0.0426514 0.0754965 0.0530164 0.0702153 0.0430993 0.0901127 0.0719994 0.0644613 0.0808388 0.0714039 0.0714749 0.0670379 0.0687496 0.0704894
19 3 O 1.15925 5.68243 58.0021 -1.2 1 0.0145904 0.0215203 0.0235151 0.014008 0.0210696 0.0371074 0.030712 0.0437909 0.0478 0.0453921 0.0390463 0.050125 0.0489259 0.0611392 0.106192 0.0656249 0.0684724 0.0573966 0.0736707 0.0653755
20 3 O -0.184847 6.06029 50.6845 -1.2 1 0.185978 0.0829303 0.0216268 0.0300879 0.0360599 0.0297055 0.0512263 0.0584675 0.0549383 0.0596284 0.0651949 0.0782742 0.0655882 0.0587873 0.0882652 0.0693203 0.0822932 0.0783575 0.0622195 0.078978
21 1 Mg -3.49704 4.67769 52.6661 1.2 1 0.0609893 0.0539872 0.0281546 0.0284718 0.0126959 0.0419997 0.0362575 0.0603047 0.0553695 0.0714066 0.0466223 0.0533476 0.0517289 0.0532308 0.0577366 0.0847327 0.0850073 0.0760413 0.0757408 0.0735758
22 3 O 2.48581 5.93312 50.6539 -1.2 1 0.191805 0.0905262 0.0347793 0.0219443 0.0332594 0.0456211 0.0604311 0.0603212 0.0453477 0.0688361 0.0461561 0.0673831 0.056579 0.062597 0.103117 0.0688258 0.0779752 0.0664271 0.0757779 0.0746019
23 1 Mg -1.81943 4.70106 55.1759 1.2 1 0.0259521 0.015288 0.0226632 0.0281366 0.0122924 0.0211612 0.0249701 0.0374178 0.0392478 0.0518334 0.0584655 0.0506779 0.0578401 0.0659585 0.0603199 0.0783508 0.0781199 0.095645 0.0708264 0.0826571
24 2 Si -1.94409 2.65672 53.325 2.4 1 0.0338343 0.0330482 0.0324589 0.0239888 0.025937 0.0267882 0.0480929 0.0452162 0.06423 0.065651 0.0547209 0.0668342 0.0809944 0.0503999 0.0694919 0.0538604 0.0722551 0.0899959 0.0780174 0.0619886
25 3 O -1.96965 1.08244 53.2342 -1.2 1 0.0620987 0.0286381 0.0249426 0.0274147 0.0243656 0.0369839 0.0247343 0.0642654 0.057665 0.0623103 0.0510844 0.0669304 0.0561737 0.0710294 0.0716049 0.0687943 0.0536421 0.0635497 0.0726525 0.0718298
26 3 O -0.0467762 2.97103 46.8385 -1.2 1 0.497813 0.0372465 0.0873769 0.0296198 0.080349 0.0677414 0.0807995 0.0717437 0.0727015 0.0794263 0.0818045 0.076012 0.0973966 0.0888295 0.088555 0.0884511 0.0992885 0.0972705 0.104652 0.110326
27 3 O -3.20606 3.28831 54.1122 -1.2 1 0.0285827 0.0255585 0.0291894 0.0201675 0.0256381 0.0240136 0.0354877 0.043751 0.0495483 0.0508167 0.0648908 0.0456281 0.059411 0.0612099 0.0811357 0.0640368 0.0662708 0.0673015 0.0676687 0.0585567
28 3 O -0.652657 3.33143 53.9813 -1.2 1 0.0404899 0.0222381 0.0406416 0.0147518 0.0210515 0.0270627 0.0426559 0.0485518 0.0435732 0.0510189 0.0629719 0.046847 0.0514848 0.0714889 0.084934 0.0657438 0.0788032 0.0684037 0.0613095 0.0617545
29 1 Mg -3.2159 11.747 57.4549 1.2 1 0.00572305 0.0162111 0.00457521 0.0300794 0.00498233 0.0333393 0.00560523 0.055569 0.00520514 0.0864549 0.00555204 0.0523044 0.0064345 0.0726189 0.00706788 0.101172 0.00853641 0.115137 0.00966793 0.104324
30 1 Mg -1.75014 11.5838 49.8362 1.2 1 0.230366 0.080653 0.0275108 0.0412079 0.0291037 0.0553393 0.0495809 0.054601 0.0463473 0.0589212 0.0661255 0.0610352 0.0720589 0.0726836 0.110026 0.0893769 0.065679 0.0946124 0.085952 0.0800064
31 2 Si -1.18003 9.02138 47.9309 2.4 1 0.371235 0.0661956 0.0658447 0.0519183 0.0420477 0.0622824 0.0719309 0.0748276 0.0700626 0.0655925 0.0580901 0.0663281 0.067468 0.0801845 0.10059 0.0650351 0.100089 0.0914752 0.103602 0.085666
32 3 O -1.23224 10.5991 47.9811 -1.2 1 0.379661 0.0584875 0.0546293 0.056902 0.0505849 0.0697004 0.0674768 0.0776975 0.0589228 0.0871799 0.0708497 0.0643751 0.0718167 0.0791014 0.0821115 0.0682701 0.0883485 0.0802295 0.066688 0.072785
33 3 O -1.79016 8.01447 51.8693 -1.2 1 0.114047 0.060941 0.0335458 0.0297601 0.0312408 0.0473754 0.0580933 0.057056 0.0579825 0.053476 0.0502013 0.0522448 0.0646379 0.0861161 0.0914408 0.0740647 0.0719852 0.0539665 0.0741747 0.0673423
34 3 O -2.30986 8.37215 48.8528 -1.2 1 0.311799 0.0874595 0.0674029 0.0249512 0.0537564 0.0612912 0.0666923 0.066305 0.0570765 0.0661212 0.0797777 0.0664814 0.0572447 0.0650893 0.078874 0.091038 0.0975226 0.0797622 0.0749619 0.0933496
35 1 Mg 0.154883 7.08234 46.8007 1.2 1 0.497284 0.0361704 0.0756095 0.038712 0.064701 0.075056 0.0589449 0.0682028 0.0709789 0.0827083 0.0889676 0.0759688 0.0789454 0.0798668 0.0701266 0.092369 0.0933389 0.108699 0.114034 0.100684
36 3 O 0.325447 8.50934 48.3809 -1.2 1 0.349798 0.0766886 0.0617773 0.0437745 0.0347864 0.0506333 0.0390075 0.0581052 0.0614792 0.0662434 0.0743196 0.0632055 0.0799963 0.0934748 0.0898401 0.0680759 0.0916804 0.101874 0.0845694 0.0858938
37 1 Mg 1.16928 7.07514 54.6518 1.2 1 0.015411 0.0263391 0.0141965 0.0338131 0.0234341 0.022561 0.0190304 0.0288962 0.0436794 0.0599427 0.0590374 0.0583829 0.0489939 0.0654403 0.0602889 0.0897455 0.0665412 0.0854356 0.0804754 0.0843893
38 2 Si 1.16334 9.72387 56.4637 2.4 1 0.016303 0.0176349 0.0197891 0.0194993 0.0323252 0.032954 0.0424753 0.0412456 0.049501 0.0515117 0.0546983 0.0677713 0.0679722 0.0583862 0.0820972 0.0733925 0.0601152 0.095534 0.0579809 0.0564803
39 3 O 1.15378 8.16087 56.5264 -1.2 1 0.0316787 0.0105586 0.018149 0.0261898 0.0300848 0.0282973 0.0209094 0.0658621 0.03838 0.054169 0.0394405 0.0673587 0.0586102 0.0642625 0.0704837 0.0656082 0.0580663 0.0708887 0.0599141 0.0716149
40 3 O 1.28624 10.7248 52.7351 -1.2 1 0.0684334 0.0413055 0.035032 0.0208258 0.0304494 0.0457527 0.0514654 0.0503435 0.0460041 0.0460812 0.0509399 0.0460894 0.055933 0.0720327 0.10001 0.0817503 0.0702141 0.0511615 0.0764835 0.0596867
41 3 O -0.106449 10.4108 55.8266 -1.2 1 0.00242554 0.00957125 0.0277148 0.0202246 0.0166926 0.0216475 0.0403435 0.0419838 0.033513 0.0440597 0.0541549 0.0449642 0.0529601 0.0541277 0.0901395 0.0741032 0.0734299 0.0580666 0.0634234 0.0751398
42 3 O 2.4481 10.4101 55.788 -1.2 1 0.0215478 0.0128594 0.0292596 0.0167228 0.0209506 0.0209284 0.0458499 0.0438467 0.0319958 0.0410297 0.0532272 0.0390573 0.0511453 0.0607253 0.0880822 0.0732064 0.076418 0.0604643 0.0676724 0.0624232
43 1 Mg -0.262694 9.34741 52.2523 1.2 1 0.11599 0.0623927 0.0191711 0.0417152 0.03364 0.0423537 0.0367751 0.0718452 0.0276609 0.0882364 0.0271734 0.0576993 0.03745 0.0720897 0.0402922 0.104391 0.0505107 0.0948292 0.0496958 0.103523
44 1 Mg 1.87648 9.01537 49.4629 1.2 1 0.270661 0.0968183 0.0387871 0.0381246 0.0335978 0.0491422 0.0687704 0.0465793 0.0759956 0.0628195 0.0828419 0.0539602 0.0843085 0.0669237 0.084845 0.0946727 0.0881131 0.0960282 0.0854783 0.0897999
45 2 Si 1.21415 11.3799 51.2378 2.4 1 0.132583 0.086266 0.0415413 0.0384282 0.0411691 0.0501669 0.05498 0.0398883 0.056 0.064792 0.075474 0.0726067 0.0781475 0.0699013 0.0922425 0.0889307 0.077824 0.0819631 0.0785789 0.0581854
46 3 O 1.31634 12.9512 51.3023 -1.2 1 0.127736 0.0897876 0.0217844 0.0309035 0.0321616 0.0421609 0.0473413 0.0743133 0.0541091 0.0676057 0.0481494 0.0807317 0.0712754 0.0679076 0.0739308 0.0703001 0.0771904 0.0724496 0.0710101 0.0691424
47 3 O 1.18668 10.3755 57.9514 -1.2 1 0.0139555 0.0169356 0.0297689 0.0159944 0.0201789 0.0316386 0.0324305 0.0469323 0.0527847 0.0448128 0.0406471 0.0455769 0.0523482 0.0651743 0.105811 0.0685042 0.0678387 0.0484896 0.0735179 0.0636275
48 3 O -0.115718 10.7564 50.681 -1.2 1 0.189372 0.0808205 0.0236815 0.0200078 0.0450606 0.0350438 0.0511984 0.065457 0.0506073 0.0586734 0.0604609 0.05203 0.0649642 0.0753293 0.0915517 0.0796234 0.0737139 0.0749685 0.0797735 0.0808502
49 1 Mg -3.26386 9.35564 52.3622 1.2 1 0.0790474 0.0550988 0.0272411 0.0334569 0.0157942 0.0534823 0.0373413 0.0578223 0.0313642 0.0854936 0.0315722 0.0474499 0.0331092 0.0647949 0.036915 0.112635 0.0450736 0.102656 0.0507101 0.0928615
50 3 O 2.45216 10.7265 50.4558 -1.2 1 0.194053 0.0935441 0.0221833 0.0120881 0.0420288 0.0572044 0.057866 0.0467538 0.0592163 0.071019 0.0660667 0.0727252 0.0552583 0.0672385 0.0991056 0.0836098 0.072574 0.0759505 0.0571129 0.0882662
51 1 Mg -1.82308 9.47044 55.1962 1.2 1 0.0267149 0.0148135 0.0189969 0.0271607 0.0143135 0.0240754 0.0244528 0.0324311 0.0376717 0.0551281 0.0585673 0.0589416 0.0607713 0.0617033 0.0659872 0.0738623 0.0782935 0.0903947 0.0741122 0.0794238
52 2 Si -1.79157 7.38322 53.3609 2.4 1 0.0518479 0.0415526 0.02866 0.0284282 0.0325706 0.0318412 0.0430858 0.0547553 0.0584667 0.0612432 0.0602552 0.0621494 0.0794761 0.0456268 0.0638089 0.0627141 0.0680917 0.0892669 0.0647175 0.0555838
53 3 O -1.84955 5.83628 53.3434 -1.2 1 0.0639287 0.030368 0.0261375 0.0147448 0.0220746 0.0339969 0.03433 0.0671664 0.0475238 0.0671654 0.0370905 0.0751429 0.0535823 0.0751875 0.0601066 0.0668137 0.0590508 0.0548979 0.0700038 0.0660442
54 3 O -1.19417 8.46968 46.4488 -1.2 1 0.524984 0.0664595 0.0669757 0.0514032 0.0666053 0.0560926 0.0782206 0.0542469 0.0755211 0.0708127 0.0566762 0.0508176 0.0697345 0.0982452 0.130201 0.113516 0.0977727 0.0956403 0.0828598 0.0822044
55 3 O -3.10204 8.076 53.9964 -1.2 1 0.0486452 0.0180332 0.0241195 0.0222074 0.0241592 0.0269059 0.0504092 0.0445762 0.042365 0.0534246 0.0566026 0.0457027 0.0574292 0.0582558 0.0843909 0.0651964 0.068008 0.0628412 0.0666377 0.0743024
56 3 O -0.501104 8.09456 54.0277 -1.2 1 0.0552787 0.0263713 0.0275983 0.0219898 0.0330162 0.0241023 0.035883 0.0470756 0.0416172 0.0524894 0.0613478 0.0462881 0.0583699 0.0547454 0.0853401 0.059131 0.0733405 0.0699073 0.067176 0.0736102
57 1 Mg -3.12047 16.4989 57.3754 1.2 1 0.00547008 0.019499 0.00301004 0.0302285 0.00272027 0.0324818 0.00264545 0.055517 0.0060162 0.0847483 0.00487193 0.0518463 0.00493866 0.0718945 0.0086443 0.101117 0.0109139 0.117585 0.0137202 0.102434
58 1 Mg -1.6714 16.3544 49.8412 1.2 1 0.229389 0.0821649 0.025683 0.0430858 0.0293764 0.0533136 0.0533919 0.0541305 0.0477346 0.0620945 0.0622285 0.0632154 0.0743434 0.0768278 0.10675 0.085057 0.0737253 0.0947998 0.0839755 0.0842157
59 2 Si -1.18567 13.8526 47.9314 2.4 1 0.37446 0.0672975 0.0763492 0.060963 0.0322036 0.0687697 0.0467602 0.0795903 0.062483 0.0666333 0.0524075 0.0715187 0.0590194 0.0754408 0.097318 0.0762425 0.104846 0.0970339 0.089667 0.0906056
60 3 O -1.09664 15.4205 47.9915 -1.2 1 0.366171 0.069961 0.0488577 0.0627806 0.0452605 0.0922098 0.0630889 0.082536 0.0566079 0.0891245 0.0546274 0.0720822 0.0602761 0.0823212 0.0820862 0.073878 0.0927733 0.0760075 0.0749206 0.0689573
61 3 O -1.73493 12.7491 51.7772 -1.2 1 0.11733 0.0569966 0.0307777 0.0283767 0.0329383 0.0521831 0.0611784 0.0498367 0.0656426 0.0520813 0.0573957 0.0491371 0.0541648 0.0846124 0.102138 0.0775344 0.0810463 0.0495445 0.0722461 0.0722004
62 3 O -2.36115 13.2717 48.8238 -1.2 1 0.302092 0.0972448 0.0615503 0.026515 0.0590175 0.0526159 0.0594722 0.068863 0.0583713 0.0654983 0.0729596 0.064056 0.0608379 0.057325 0.0832611 0.0873398 0.0880946 0.0785658 0.0817027 0.0898122
63 1 Mg -0.159928 11.7639 46.8533 1.2 1 0.482398 0.0250774 0.0771426 0.0335915 0.0532881 0.0971381 0.0707886 0.0881798 0.0830895 0.0848306 0.0844818 0.0687824 0.0720342 0.0919184 0.0774217 0.0860638 0.0970419 0.098041 0.100206 0.106053
64 3 O 0.2623 13.1866 48.413 -1.2 1 0.343006 0.079762 0.0550291 0.0383062 0.0437524 0.0565046 0.041094 0.0659358 0.0678394 0.0714939 0.0627469 0.0599907 0.0657174 0.0873647 0.0963222 0.0805428 0.0943729 0.0986711 0.082205 0.085469
65 1 Mg 1.31608 11.79 54.5285 1.2 1 0.00667296 0.0233556 0.013347 0.0301823 0.0117477 0.0166228 0.0212959 0.0323642 0.0422599 0.06136 0.0593694 0.0563746 0.0575396 0.0640696 0.063788 0.0782135 0.0731226 0.0904378 0.0735094 0.0776423
66 2 Si 1.35111 14.44 56.4388 2.4 1 0.0192224 0.0183896 0.0182857 0.025431 0.0293797 0.0311319 0.0361611 0.0414739 0.0509246 0.0552839 0.0516133 0.0677429 0.0684119 0.0567973 0.0827612 0.0708834 0.0604802 0.0924303 0.0544513 0.0575937
67 3 O 1.34204 12.8974 56.5409 -1.2 1 0.036725 0.0104665 0.0180492 0.0233685 0.0201389 0.0249798 0.0240362 0.065071 0.0335998 0.0482071 0.0426615 0.067162 0.0526463 0.0623656 0.0735158 0.0685383 0.0564819 0.0738373 0.0585313 0.0794538
68 3 O 1.36565 15.4813 52.729 -1.2 1 0.0640465 0.046437 0.0282733 0.018442 0.0266078 0.0396332 0.0553169 0.0568001 0.0540566 0.0454362 0.0466207 0.046693 0.0556675 0.0681559 0.105401 0.0772462 0.0701431 0.0564595 0.0724398 0.0584288
69 3 O 0.0499219 15.1208 55.7704 -1.2 1 0.0113569 0.0116572 0.0326562 0.0209743 0.0157229 0.0217208 0.0395361 0.0418025 0.0331909 0.0441787 0.054269 0.0421431 0.0512645 0.0590801 0.0864357 0.0738281 0.075267 0.0573042 0.0657339 0.071102
70 3 O 2.60216 15.0993 55.7122 -1.2 1 0.0254558 0.00958032 0.0235171 0.0186675 0.0234751 0.0174372 0.0475211 0.0464908 0.0340986 0.0462342 0.0540363 0.0364426 0.0539548 0.0685072 0.0831323 0.0812067 0.0770302 0.0637351 0.0631788 0.066395
71 1 Mg -0.206989 14.1049 52.2121 1.2 1 0.10642 0.0651722 0.0233641 0.0431077 0.0276729 0.0394576 0.0376654 0.0705487 0.0251545 0.0845954 0.0273623 0.0545707 0.0301609 0.0761289 0.030251 0.104598 0.0447888 0.105972 0.0426288 0.0991669
72 1 Mg 1.82591 13.8102 49.4556 1.2 1 0.260672 0.107385 0.0348311 0.0421383 0.0379949 0.0377212 0.0682126 0.0464217 0.0705418 0.074488 0.0758043 0.0560367 0.0730368 0.0709229 0.0835668 0.0941415 0.0789016 0.0984229 0.0877447 0.0838974
73 2 Si 1.29285 16.1518 51.2434 2.4 1 0.124838 0.0877299 0.0410475 0.0379381 0.0386092 0.0504325 0.0531941 0.0441848 0.0551363 0.0672545 0.0674897 0.0719973 0.0713423 0.0697691 0.0923932 0.0835467 0.0751368 0.0849735 0.0722825 0.0628525
74 3 O 1.39496 17.7199 51.3047 -1.2 1 0.145606 0.0697347 0.0315194 0.0365131 0.0291033 0.0446692 0.0416691 0.0686178 0.051442 0.0636444 0.0449055 0.076812 0.0683634 0.0641088 0.0744192 0.0659497 0.0741963 0.0770291 0.0694771 0.0712638
75 3 O 1.3694 15.1443 57.9138 -1.2 1 0.0172955 0.018763 0.0259515 0.0147875 0.0203409 0.0373645 0.0315376 0.0443094 0.0507641 0.0444004 0.0402182 0.0492622 0.0482214 0.0657332 0.103618 0.0687689 0.0683707 0.0567143 0.0773746 0.0656169
76 3 O -0.0269106 15.5178 50.6688 -1.2 1 0.186412 0.0815849 0.0219218 0.0196377 0.0479569 0.0386423 0.0550161 0.0615532 0.0545264 0.0576233 0.0614453 0.0491536 0.0636924 0.0764532 0.0911772 0.0797503 0.0774573 0.0798807 0.0723004 0.0884716
77 1 Mg -3.18391 14.1057 52.3125 1.2 1 0.0723305 0.0557285 0.0351088 0.0337847 0.0147734 0.0559805 0.0347969 0.0616772 0.0348954 0.0838254 0.0330899 0.0483221 0.0236859 0.0756541 0.0320767 0.110589 0.0435211 0.102471 0.0454889 0.0894299
78 3 O 2.52432 15.503 50.4579 -1.2 1 0.191909 0.094888 0.0204956 0.0139565 0.0440347 0.0515663 0.0575887 0.0491785 0.0569546 0.0678368 0.0646891 0.0701162 0.0582637 0.0645375 0.102173 0.0768372 0.0764273 0.0709066 0.063259 0.084924
79 1 Mg -1.63469 14.1533 55.0899 1.2 1 0.016437 0.0143838 0.01512 0.028178 0.0128163 0.0260358 0.0233534 0.0339404 0.0385477 0.0627971 0.0543343 0.057418 0.0616985 0.0664039 0.063249 0.0799417 0.070348 0.100014 0.0684904 0.0899668
80 2 Si -1.72179 12.0667 53.2414 2.4 1 0.0451839 0.041194 0.0225169 0.0306506 0.0367851 0.0324875 0.0528933 0.0528203 0.0626714 0.0621791 0.0618633 0.0711117 0.0801558 0.0529027 0.0758921 0.0603124 0.0663648 0.0856904 0.0616607 0.0576092
81 3 O -1.75492 10.5357 53.1738 -1.2 1 0.0684838 0.0402483 0.0222603 0.0237493 0.0309498 0.0339487 0.0340014 0.0725136 0.0481636 0.0552853 0.0501886 0.0690988 0.0610684 0.0771646 0.0714507 0.066011 0.0509195 0.0644668 0.0617527 0.07517
82 3 O -1.21337 13.3381 46.4311 -1.2 1 0.520179 0.0680009 0.0698007 0.0407919 0.0561415 0.0580862 0.0581775 0.0703364 0.0795286 0.0656323 0.0457489 0.0711795 0.0682838 0.08794 0.12042 0.11429 0.106772 0.100273 0.059687 0.0912416
83 3 O -3.00332 12.7583 53.9631 -1.2 1 0.0423943 0.0261471 0.0295675 0.0254912 0.019144 0.0280095 0.0459843 0.0437067 0.039593 0.0539407 0.0536213 0.0464967 0.0524648 0.058425 0.0805209 0.0680618 0.0663986 0.0605593 0.063324 0.0719141
84 3 O -0.422046 12.7701 53.8847 -1.2 1 0.0468051 0.0220454 0.0283844 0.0182754 0.0217855 0.019964 0.0419168 0.0504278 0.0445327 0.053386 0.058179 0.0453161 0.0570338 0.0626935 0.0914047 0.0584361 0.083086 0.0646384 0.0693181 0.0682658
85 1 Mg -3.00714 21.2565 57.4314 1.2 1 0.00403356 0.0163779 0.00610543 0.0296202 0.00481451 0.0334326 0.0059725 0.0562821 0.00649808 0.0866954 0.00767546 0.0532224 0.00737726 0.071369 0.0100279 0.100886 0.0143859 0.116583 0.0125042 0.103553
86 1 Mg -1.5831 21.1217 49.8405 1.2 1 0.22622 0.0849433 0.0240366 0.0430152 0.0299064 0.0522541 0.0551646 0.053901 0.0508225 0.0614791 0.0629545 0.0646747 0.0743009 0.075684 0.103805 0.08265 0.0733436 0.0941692 0.0835048 0.0841752
87 2 Si -1.09384 18.6291 47.9287 2.4 1 0.370962 0.0707896 0.0732543 0.0645277 0.0312948 0.0701775 0.0471413 0.0800188 0.0671585 0.0689158 0.0511452 0.0729603 0.0610925 0.0761534 0.0999352 0.0751409 0.105589 0.0933799 0.0887672 0.0898345
88 3 O -1.02071 20.1985 47.9911 -1.2 1 0.365721 0.0699759 0.0492025 0.0630423 0.0451079 0.0917227 0.0633037 0.0825964 0.0567661 0.0886125 0.0547622 0.0723094 0.0607041 0.0817836 0.0808993 0.0734516 0.093673 0.0767815 0.0748936 0.0688039
89 3 O -1.65002 17.5002 51.771 -1.2 1 0.111563 0.0581264 0.0343387 0.0277487 0.0331437 0.053946 0.058669 0.0502408 0.0653771 0.0522272 0.0578597 0.0476629 0.0525577 0.0852579 0.101628 0.0766372 0.0790159 0.0446931 0.0759871 0.0729228
90 3 O -2.26174 18.0434 48.8281 -1.2 1 0.306218 0.0912135 0.0566648 0.0323381 0.0586547 0.0485817 0.0533116 0.0730785 0.0615634 0.0664124 0.0723335 0.0597539 0.0532825 0.0558876 0.0790223 0.0867068 0.0858965 0.0795778 0.0841783 0.089414
91 1 Mg -0.0440435 16.5651 46.8269 1.2 1 0.481173 0.021643 0.081111 0.0325047 0.0665105 0.0870965 0.078908 0.0855645 0.068879 0.0838953 0.085281 0.0622126 0.0631804 0.0775885 0.0765326 0.094064 0.0940007 0.0962534 0.0989774 0.104993
92 3 O 0.37001 17.9877 48.3925 -1.2 1 0.345127 0.0778436 0.0564523 0.0401657 0.0468942 0.0621062 0.0406843 0.0676773 0.0661545 0.0720977 0.0595118 0.056085 0.0647607 0.0870064 0.0944051 0.0756136 0.0937353 0.102474 0.0805321 0.0853485
93 1 Mg 1.34971 16.5683 54.5744 1.2 1 0.0125088 0.0225898 0.0122773 0.0292203 0.0133613 0.0175873 0.0177828 0.0335222 0.0464769 0.0605336 0.0632733 0.0528543 0.0564079 0.0656666 0.0596681 0.0866424 0.0744258 0.0885508 0.0745406 0.0805499
94 2 Si 1.41954 19.2141 56.4002 2.4 1 0.0181311 0.0156866 0.0145619 0.025931 0.0289098 0.0321467 0.0413143 0.0396515 0.051928 0.0535726 0.053276 0.0652075 0.0725723 0.0584372 0.0784158 0.0732452 0.0596263 0.0943719 0.0538478 0.0550299
95 3 O 1.37809 17.6702 56.5047 -1.2 1 0.0364797 0.00726122 0.0199751 0.0227832 0.0235357 0.025396 0.0247828 0.0673652 0.0373115 0.0489808 0.0417941 0.069854 0.0527876 0.065176 0.0730874 0.0669235 0.0570081 0.0756981 0.0575608 0.077771
96 3 O 1.45147 20.239 52.7294 -1.2 1 0.0738319 0.0414601 0.0262929 0.0234198 0.0237751 0.0430385 0.0510661 0.0549886 0.0520984 0.0459461 0.0453653 0.051095 0.0576031 0.0654273 0.10211 0.0735694 0.0684571 0.0606846 0.071426 0.0613239
97 3 O 0.145461 19.8836 55.7441 -1.2 1 0.00967227 0.00978656 0.0309758 0.0164491 0.0126137 0.0186051 0.0403994 0.0375367 0.0325076 0.0443422 0.0529554 0.0402503 0.0528766 0.0571591 0.0885674 0.0698879 0.0778349 0.0588611 0.0676133 0.0702325
98 3 O 2.69314 19.8522 55.7013 -1.2 1 0.0242117 0.0106337 0.0235751 0.0175695 0.0230367 0.0181576 0.0478868 0.0465 0.0346324 0.0448751 0.0551355 0.0366285 0.0545751 0.0690591 0.0851519 0.079841 0.0775378 0.0639609 0.0633384 0.0663326
99 1 Mg -0.126194 18.8651 52.2079 1.2 1 0.103061 0.0664837 0.0253336 0.0468212 0.0279062 0.0399624 0.0390234 0.0709302 0.0283014 0.0846187 0.0257685 0.0541683 0.0304006 0.0733953 0.0313561 0.107162 0.045736 0.104496 0.0428577 0.0990812
100 1 Mg 1.92402 18.5815 49.4545 1.2 1 0.265788 0.104358 0.0344712 0.0415333 0.0318269 0.0330758 0.0676385 0.0459162 0.0664017 0.0772182 0.0819103 0.0556692 0.0718618 0.0672238 0.0816172 0.092009 0.0787326 0.0999037 0.0872777 0.0857708
101 2 Si 1.38106 20.9117 51.2443 2.4 1 0.129079 0.0878775 0.0361532 0.0418155 0.037175 0.0492244 0.0571293 0.0440203 0.0523765 0.0693242 0.0684477 0.0732581 0.0720397 0.0680992 0.0907608 0.0848254 0.0765377 0.0834942 0.0731449 0.0638618
102 3 O 1.48527 22.4795 51.3054 -1.2 1 0.148731 0.0679812 0.0289781 0.0345692 0.0266962 0.0461168 0.039028 0.0681293 0.047063 0.0620667 0.0455202 0.076345 0.0667628 0.0649611 0.0737271 0.0669025 0.0748302 0.0758199 0.0694641 0.072236
103 3 O 1.48368 19.9041 57.8703 -1.2 1 0.0198146 0.0200449 0.0245165 0.014135 0.0203043 0.0369849 0.0320399 0.0433499 0.0483681 0.0440415 0.0399656 0.047108 0.0509862 0.0658903 0.102212 0.0690746 0.0674609 0.0551573 0.0777275 0.0626221
104 3 O 0.0615419 20.2804 50.6669 -1.2 1 0.182062 0.0848055 0.0219476 0.0210196 0.047572 0.0405712 0.0555382 0.0634386 0.0560064 0.0589184 0.0588748 0.0505093 0.0643313 0.077196 0.092336 0.0809971 0.0758561 0.0791081 0.0726891 0.0860502
105 1 Mg -3.09665 18.8643 52.3122 1.2 1 0.0703315 0.0571851 0.0351221 0.0336932 0.014892 0.056661 0.0351658 0.0618933 0.0353669 0.0839102 0.0332615 0.0477267 0.0241487 0.0735878 0.0339611 0.109099 0.0440887 0.103708 0.0459363 0.0900917
106 3 O 2.61548 20.2646 50.4626 -1.2 1 0.200273 0.0933606 0.0221644 0.018344 0.0391394 0.0552548 0.0574416 0.0474634 0.0541637 0.0675547 0.0629817 0.0700691 0.0540559 0.0599766 0.0977541 0.0749111 0.0774167 0.0702236 0.0626372 0.0866998
107 1 Mg -1.57463 18.8973 55.1213 1.2 1 0.0183866 0.0135804 0.0168674 0.027261 0.0122845 0.0259142 0.0246145 0.0349189 0.0387618 0.0603384 0.0578691 0.0598987 0.0609438 0.0657347 0.0640269 0.0760708 0.0770495 0.0990839 0.0667308 0.0847147
108 2 Si -1.64018 16.794 53.2555 2.4 1 0.0556674 0.0370234 0.0225424 0.0234313 0.0343569 0.0345169 0.0453396 0.0555573 0.0569639 0.0627106 0.0604884 0.0650112 0.0799237 0.0515004 0.0698772 0.0600109 0.0653679 0.0880204 0.0629038 0.0602835
109 3 O -1.65685 15.2345 53.1576 -1.2 1 0.0645652 0.0398612 0.0236064 0.02216 0.0312597 0.0339503 0.0324561 0.0749987 0.0473124 0.0574351 0.044816 0.0707422 0.0581316 0.0751024 0.0737793 0.0662071 0.050213 0.0695789 0.0664092 0.0766271
110 3 O -1.12868 18.1227 46.4249 -1.2 1 0.522024 0.0664851 0.0727779 0.0520211 0.0574883 0.0651278 0.0612388 0.0794013 0.0798271 0.0624406 0.0452616 0.0679519 0.0674713 0.0876439 0.116797 0.115116 0.107016 0.100489 0.0626442 0.0929887
111 3 O -2.91123 17.4994 53.9366 -1.2 1 0.0371382 0.0260976 0.0308011 0.0271646 0.0201794 0.0283193 0.0485284 0.0482023 0.0416853 0.0566277 0.0525688 0.0420036 0.0535865 0.0634852 0.0821634 0.0671035 0.0717129 0.0595948 0.0631101 0.0733028
112 3 O -0.375245 17.4602 53.929 -1.2 1 0.0513945 0.0198012 0.0295795 0.0219472 0.0291883 0.0233501 0.0395029 0.0431173 0.0429491 0.0545377 0.0583022 0.0437492 0.0542817 0.0659499 0.085166 0.0646888 0.0805143 0.0637089 0.0717095 0.0683694
113 1 Mg -2.92935 25.9634 57.4096 1.2 1 0.00610991 0.0181649 0.00865968 0.0314022 0.00798926 0.0344938 0.00735935 0.0589523 0.0117323 0.0836641 0.0121359 0.0518695 0.0103112 0.0711631 0.0095181 0.101888 0.0108233 0.116652 0.0123069 0.100854
114 1 Mg -1.48778 25.88 49.8402 1.2 1 0.225942 0.085048 0.0235696 0.0434378 0.029931 0.0528025 0.0547484 0.0540577 0.0503982 0.0617016 0.0629272 0.0647105 0.0745419 0.0759827 0.103675 0.0817119 0.0740549 0.095404 0.0843368 0.0836952
115 2 Si -1.00491 23.3922 47.9274 2.4 1 0.3707 0.0698532 0.0734332 0.0683231 0.0350673 0.075831 0.0412352 0.0838424 0.0687497 0.0737033 0.0504817 0.0738888 0.0600044 0.0754303 0.0945294 0.077358 0.103189 0.0962086 0.0899497 0.0942476
116 3 O -0.927602 24.9615 47.9909 -1.2 1 0.365644 0.0697267 0.0489828 0.0631123 0.0451795 0.091299 0.0634249 0.0826525 0.0567592 0.0884729 0.0546164 0.0723211 0.0610506 0.0820415 0.0813392 0.0739366 0.0945 0.0768221 0.075284 0.0695103
117 3 O -1.55795 22.2588 51.7696 -1.2 1 0.1114 0.058294 0.0337859 0.0275853 0.0330952 0.0541271 0.0581943 0.0499607 0.0651476 0.0528727 0.0562085 0.0480038 0.0526692 0.0837263 0.101469 0.0773104 0.0804319 0.046217 0.0748998 0.0728972
118 3 O -2.17411 22.8111 48.8277 -1.2 1 0.306842 0.088549 0.0530983 0.0332034 0.0564162 0.0485812 0.0559324 0.0729313 0.061224 0.069855 0.0709195 0.0596195 0.0558832 0.0586757 0.0790634 0.0851914 0.0860204 0.0790092 0.0831737 0.0879667
119 1 Mg 0.0423997 21.3296 46.8225 1.2 1 0.481555 0.0221812 0.0807721 0.0326373 0.066106 0.0872852 0.0784909 0.0860861 0.0696522 0.0834142 0.0848579 0.0622652 0.0632253 0.0774484 0.0760909 0.0937575 0.0952472 0.0973008 0.0987613 0.104738
120 3 O 0.458537 22.7495 48.3911 -1.2 1 0.341309 0.0836697 0.0586751 0.0419519 0.0441845 0.0598786 0.0426525 0.0676946 0.0673654 0.0733709 0.0610704 0.0575651 0.0661357 0.087015 0.0936691 0.0757782 0.0940297 0.101423 0.0817866 0.0870406
121 1 Mg 1.47987 21.3107 54.539 1.2 1 0.0148583 0.0245495 0.014441 0.0309595 0.0141286 0.0164408 0.0192566 0.0322404 0.0455599 0.0603217 0.0599389 0.0566246 0.058761 0.0668289 0.063085 0.0826515 0.0720803 0.0905349 0.0753514 0.0795145
122 2 Si 1.50489 23.931 56.3972 2.4 1 0.0188661 0.015159 0.0177963 0.0281209 0.0300948 0.0324242 0.0410704 0.0391409 0.0516479 0.0543995 0.0542112 0.0657459 0.0705823 0.0587291 0.0809742 0.070868 0.059002 0.0929997 0.0548693 0.0581633
123 3 O 1.50265 22.3626 56.4514 -1.2 1 0.029747 0.0118068 0.0172345 0.0294768 0.0220835 0.025873 0.017611 0.068464 0.0373841 0.0564516 0.040934 0.0638312 0.0510461 0.0635297 0.070307 0.064677 0.0541834 0.0702951 0.059651 0.0744438
124 3 O 1.54441 24.9963 52.7297 -1.2 1 0.07299 0.0449401 0.0272111 0.0199732 0.0265287 0.0399163 0.0473208 0.0560563 0.0492282 0.0497654 0.0463368 0.0481469 0.0580147 0.0676275 0.10037 0.0761606 0.0676902 0.0602664 0.0700912 0.0620609
125 3 O 0.219493 24.6583 55.764 -1.2 1 0.0105262 0.0115301 0.0319909 0.0209836 0.0197107 0.0184566 0.0439097 0.0395095 0.0351543 0.042014 0.0530337 0.0405444 0.0545616 0.0564171 0.0917395 0.0682249 0.0769721 0.0574647 0.064964 0.0720452
126 3 O 2.78724 24.5998 55.7205 -1.2 1 0.0260082 0.0134502 0.0259267 0.0161187 0.0230774 0.0189255 0.0472689 0.0472937 0.0353439 0.043433 0.0538055 0.0375072 0.0546925 0.0672676 0.0850812 0.0770391 0.0773727 0.0600013 0.0643731 0.0689628