ITEM: TIMESTEP
36700
ITEM: NUMBER OF ATOMS
10500
ITEM: BOX BOUNDS xy xz yz pp pp pp
0	8.9688	2.9896
0	118.725	0
0	252.977	0
ITEM: ATOMS id type element xu yu zu q Q_1 Q_2 Q_3 Q_4 Q_5 Q_6 Q_7 Q_8 Q_9 Q_10 Q_11 Q_12 Q_13 Q_14 Q_15 Q_16 Q_17 Q_18 Q_19 Q_20 Q_21
1 1 Mg -3.31171 6.9841 57.2157 1.2 1 0.0171431 0.0180728 0.0187711 0.0328242 0.0184437 0.0304125 0.0139599 0.0469324 0.0239612 0.0739887 0.0258864 0.0515068 0.0213869 0.067133 0.033353 0.0923525 0.0527735 0.104814 0.0555304 0.0880003
2 1 Mg -1.82655 6.90154 50.0912 1.2 1 0.220068 0.0866193 0.0297138 0.0384729 0.0276797 0.0527847 0.0493872 0.045201 0.053904 0.0708931 0.0581007 0.0724874 0.0678768 0.0607559 0.0963868 0.0628787 0.0876489 0.100117 0.0724212 0.0773956
3 2 Si -0.257935 3.96038 48.0876 2.4 1 0.374927 0.0685472 0.0714194 0.0345057 0.0613088 0.050598 0.0728182 0.0749543 0.0594356 0.0787619 0.0575076 0.0734789 0.0660201 0.0843894 0.0970098 0.101879 0.108821 0.0898183 0.0725992 0.0738558
4 3 O -0.335812 5.46814 47.6264 -1.2 1 0.427155 0.0383211 0.0643762 0.0310166 0.0414748 0.049546 0.064492 0.0694214 0.0877745 0.0759288 0.0912267 0.075779 0.0730411 0.0714895 0.092151 0.124675 0.0941575 0.0796018 0.0758863 0.0777139
5 3 O -2.03793 3.43377 51.8941 -1.2 1 0.116892 0.059689 0.0280398 0.0201702 0.0204316 0.0497562 0.0606042 0.0488006 0.0491558 0.057378 0.0628229 0.052765 0.0490336 0.075732 0.0897609 0.0800731 0.0641637 0.0575279 0.0760287 0.0667808
6 3 O -1.54015 3.53929 48.9521 -1.2 1 0.300353 0.0901237 0.0313046 0.0477187 0.0347519 0.0471863 0.0691417 0.0505562 0.052033 0.0618687 0.0784125 0.0660428 0.0743705 0.0722082 0.0732827 0.109911 0.0812522 0.0772535 0.0733659 0.0876505
7 1 Mg 1.82954 2.54582 47.1376 1.2 1 0.463521 0.0264082 0.0797858 0.0512564 0.0387901 0.08317 0.0623487 0.0591963 0.0746796 0.0887253 0.0696606 0.0788464 0.0856739 0.0888184 0.0704596 0.0958595 0.102181 0.103186 0.104603 0.101086
8 3 O 1.22989 3.66364 48.7877 -1.2 1 0.326251 0.0681404 0.025957 0.0386102 0.034309 0.0655104 0.0757106 0.0310876 0.0864548 0.0780293 0.049703 0.0776217 0.0840896 0.0701427 0.0669149 0.0875612 0.0936944 0.0899615 0.0945033 0.0896855
9 1 Mg 1.03547 2.33836 54.6789 1.2 1 0.00766048 0.0204846 0.0163487 0.033543 0.0167862 0.0322083 0.0249806 0.0316646 0.0441304 0.0561207 0.061123 0.0547698 0.0516598 0.0694306 0.0589468 0.0915908 0.0718238 0.0874427 0.0678212 0.0789311
10 2 Si 1.05687 4.94934 56.4969 2.4 1 0.0198538 0.0157479 0.0209541 0.0306684 0.0263092 0.0257291 0.0359741 0.0468937 0.0515146 0.0586563 0.0490872 0.0608255 0.0569463 0.0549228 0.0857182 0.0650107 0.0585461 0.0969356 0.0512071 0.0603629
11 3 O 0.994403 3.43171 56.5055 -1.2 1 0.0116662 0.016214 0.0093279 0.0293264 0.0279208 0.0283813 0.0268206 0.0609947 0.0404465 0.0507676 0.034054 0.0671466 0.0617742 0.0583099 0.0678795 0.0778646 0.0552508 0.076619 0.0628624 0.0777981
12 3 O 1.10813 6.07342 52.8172 -1.2 1 0.0889541 0.0410932 0.0327709 0.0218054 0.020454 0.0442322 0.0440779 0.0534473 0.0512605 0.0417793 0.0544238 0.0527005 0.0698656 0.0676175 0.0857984 0.0856634 0.0561257 0.0701004 0.0686751 0.0685631
13 3 O -0.31018 5.69077 55.7962 -1.2 1 0.0124849 0.015109 0.0239207 0.0209445 0.0186871 0.0198214 0.0406214 0.0382609 0.0387602 0.0444714 0.0579029 0.0401141 0.0556419 0.0472116 0.0907127 0.0723479 0.0661294 0.0634644 0.0661724 0.0706433
14 3 O 2.36403 5.65393 55.772 -1.2 1 0.0189431 0.0204914 0.0297933 0.0174749 0.0202136 0.0205831 0.0395297 0.0446731 0.0396928 0.0427715 0.0553858 0.0385504 0.0538438 0.0590139 0.0753742 0.0711628 0.0773311 0.0665098 0.0666039 0.0635454
15 1 Mg -0.459401 4.67631 52.2426 1.2 1 0.0912649 0.0681548 0.0340864 0.0422704 0.028915 0.0309636 0.0403346 0.0589497 0.0414968 0.0790934 0.0476789 0.0561468 0.0490073 0.0706222 0.0444153 0.103478 0.0536486 0.0903403 0.0601207 0.0908537
16 1 Mg 2.79456 3.9971 49.9987 1.2 1 0.232332 0.0842907 0.0309209 0.0436875 0.0435692 0.06156 0.0564579 0.0541764 0.0824307 0.0628703 0.0578548 0.0544956 0.0624543 0.0696583 0.082971 0.0755656 0.0720672 0.0859691 0.0863625 0.0778449
17 2 Si 1.16169 6.59457 51.2556 2.4 1 0.136149 0.0890968 0.0383549 0.0406455 0.0403745 0.0498445 0.0457408 0.0461074 0.0614513 0.0679642 0.0671195 0.0770467 0.0729775 0.0677368 0.0826326 0.0888035 0.0758152 0.0873518 0.0780754 0.0701301
18 3 O 1.28989 8.18905 51.2909 -1.2 1 0.150179 0.076728 0.0295073 0.0449256 0.0297777 0.0509963 0.0420033 0.0687319 0.0512999 0.0682878 0.0471565 0.0862644 0.0718771 0.0628995 0.0766268 0.0711454 0.0729975 0.0707688 0.0698843 0.0722305
19 3 O 1.09816 5.61217 57.9471 -1.2 1 0.0145597 0.0181121 0.0213334 0.0126942 0.0196021 0.0356492 0.0303044 0.0383337 0.0576206 0.0470271 0.0391118 0.0517508 0.0463962 0.0613197 0.104981 0.0688547 0.0689135 0.0576739 0.0725788 0.0653174
20 3 O -0.184847 6.06029 50.6845 -1.2 1 0.187878 0.0814101 0.0270984 0.0247418 0.0389987 0.0299649 0.0464008 0.05828 0.0599266 0.0570441 0.0643729 0.0768593 0.0652378 0.0588787 0.088635 0.0691982 0.0805154 0.0753654 0.0589901 0.0797776
21 1 Mg -3.49704 4.67769 52.6661 1.2 1 0.0705464 0.0496308 0.0293452 0.0316944 0.0150359 0.0451765 0.0348278 0.0578712 0.0536008 0.0659203 0.0495088 0.0516107 0.0499384 0.0499315 0.0563084 0.0875398 0.0819828 0.0748858 0.0753509 0.0657144
22 3 O 2.48581 5.93312 50.6539 -1.2 1 0.197257 0.0897748 0.0334506 0.0139943 0.0381806 0.0443036 0.0551477 0.0564416 0.0493689 0.0661154 0.0483779 0.06213 0.0538439 0.0594521 0.0999493 0.0690666 0.0804164 0.0696328 0.0780135 0.0751622
23 1 Mg -1.88305 4.80193 55.1855 1.2 1 0.0308443 0.0226437 0.0222165 0.0325572 0.0217769 0.0237427 0.0236358 0.0354677 0.0386142 0.0539303 0.06087 0.0551229 0.0574702 0.0599513 0.0618292 0.0750833 0.0835566 0.0910873 0.0738911 0.0714155
24 2 Si -1.9828 2.69439 53.2677 2.4 1 0.0276116 0.0454439 0.0367222 0.0230881 0.0261894 0.0255662 0.0484012 0.0457955 0.0689496 0.0632159 0.0564564 0.0705503 0.0719668 0.0491618 0.0677021 0.051991 0.0719695 0.0961996 0.0733681 0.0557868
25 3 O -2.00346 1.18234 53.2483 -1.2 1 0.0459451 0.0381015 0.0243105 0.0228105 0.028953 0.0377112 0.0223612 0.0649231 0.0522492 0.0611478 0.0487936 0.0666411 0.0608026 0.0707971 0.0776098 0.0739406 0.0581838 0.0704772 0.0673445 0.0703735
26 3 O -0.0467762 2.97103 46.8385 -1.2 1 0.497753 0.0372878 0.0877543 0.0298304 0.0806056 0.0690209 0.0816546 0.0712606 0.0717572 0.0790896 0.0814007 0.0754203 0.0972425 0.0883556 0.0880486 0.0893019 0.10026 0.0970412 0.104249 0.110076
27 3 O -3.26288 3.30749 54.1276 -1.2 1 0.0341773 0.0225903 0.0286979 0.0199545 0.0226979 0.0251871 0.0341228 0.0407704 0.0520805 0.0499901 0.0630464 0.045264 0.0586374 0.0571614 0.075239 0.0641613 0.062592 0.0715739 0.0678501 0.0607764
28 3 O -0.665821 3.44588 53.9898 -1.2 1 0.042977 0.026797 0.0320978 0.0223908 0.0214484 0.0254983 0.0366284 0.0489966 0.0418556 0.0509153 0.0612165 0.0482088 0.0498705 0.0592907 0.0907594 0.0641748 0.0746007 0.073011 0.058034 0.0664036
29 1 Mg -3.03924 11.7751 57.5236 1.2 1 0.00790418 0.0145392 0.0168781 0.0249821 0.0158894 0.0346784 0.0160609 0.0577233 0.0180906 0.0800401 0.0318787 0.0485925 0.0260679 0.0664585 0.0284993 0.0881765 0.053739 0.107885 0.0444509 0.084641
30 1 Mg -1.75014 11.5838 49.8362 1.2 1 0.233137 0.0797757 0.0247148 0.0412132 0.0276806 0.0546542 0.0511856 0.0521047 0.0462379 0.0567382 0.0642235 0.0625628 0.0713058 0.0692825 0.106967 0.0878335 0.0655662 0.0961109 0.0842145 0.0802565
31 2 Si -1.18003 9.02138 47.9309 2.4 1 0.367315 0.0710454 0.0694733 0.0538297 0.0419507 0.0621334 0.0738366 0.0768341 0.069392 0.0671018 0.0597535 0.0666112 0.0684181 0.0802361 0.101973 0.0642464 0.101082 0.0918464 0.101827 0.0853658
32 3 O -1.23224 10.5991 47.9811 -1.2 1 0.371671 0.0692802 0.05921 0.0559393 0.0538854 0.0722114 0.0680464 0.0771399 0.0564286 0.0879896 0.0706248 0.0626955 0.0715551 0.080375 0.0863078 0.072121 0.0892006 0.0807462 0.0667429 0.0746772
33 3 O -1.79016 8.01447 51.8693 -1.2 1 0.11337 0.0649037 0.0308147 0.0333319 0.0300024 0.0478433 0.0583264 0.0564894 0.0551175 0.0514063 0.0521817 0.0531871 0.0685422 0.086672 0.0881932 0.0724855 0.076987 0.0561839 0.0758568 0.0653963
34 3 O -2.30986 8.37215 48.8528 -1.2 1 0.308965 0.0887238 0.0649544 0.0250423 0.0555944 0.0599679 0.0652485 0.0647272 0.0576057 0.068724 0.0786663 0.0667402 0.0609312 0.0656677 0.0811336 0.0950335 0.100214 0.0795567 0.0740577 0.0919227
35 1 Mg 0.154883 7.08234 46.8007 1.2 1 0.497323 0.0365349 0.0756771 0.0383817 0.0654414 0.0773436 0.0605311 0.0672995 0.0708754 0.0830916 0.0887473 0.0764598 0.0799001 0.0801226 0.0701901 0.0926221 0.0936622 0.108223 0.112626 0.100341
36 3 O 0.325447 8.50934 48.3809 -1.2 1 0.349723 0.0767184 0.062246 0.0422144 0.0361544 0.0523329 0.0382529 0.0567458 0.0604643 0.0665739 0.0742619 0.0625092 0.0804498 0.0927728 0.08907 0.0682578 0.0925937 0.101277 0.0845346 0.0893003
37 1 Mg 1.27568 6.9329 54.6503 1.2 1 0.0162271 0.0323552 0.012451 0.0346157 0.0200401 0.02636 0.0280901 0.0319581 0.0457046 0.0622047 0.0554319 0.0516775 0.0531919 0.0693217 0.0577182 0.0866167 0.0712028 0.0911828 0.066388 0.0840241
38 2 Si 1.34688 9.72611 56.4595 2.4 1 0.0268374 0.0153694 0.0256104 0.0207988 0.022903 0.0267399 0.0402003 0.0364753 0.0504165 0.0541642 0.0547524 0.0589382 0.0646403 0.0619372 0.0804859 0.0772037 0.0606607 0.0829147 0.0649484 0.0557975
39 3 O 1.18314 8.18758 56.6042 -1.2 1 0.0337985 0.00843686 0.0246935 0.020343 0.026072 0.0287064 0.0296092 0.0616005 0.0422659 0.0453807 0.0413582 0.0698476 0.0508848 0.0652457 0.0670766 0.0670195 0.0630438 0.0728389 0.0511955 0.0777236
40 3 O 1.28624 10.7248 52.7351 -1.2 1 0.0747822 0.0482289 0.0262019 0.0240304 0.0242746 0.0490009 0.053612 0.0471365 0.0455677 0.0439881 0.0508224 0.0456503 0.0597975 0.0677194 0.0947761 0.077121 0.0628862 0.0558118 0.0737715 0.0629952
41 3 O -0.0413808 10.3515 55.7668 -1.2 1 0.00847429 0.00831417 0.0289749 0.0214158 0.0202943 0.0253848 0.0417602 0.042088 0.0366684 0.0469155 0.0530277 0.0457324 0.0574234 0.0556757 0.0843981 0.0710736 0.0742308 0.0578343 0.064981 0.0690843
42 3 O 2.54814 10.4608 55.777 -1.2 1 0.0165164 0.011774 0.0292932 0.0168837 0.0225175 0.018556 0.0462369 0.0382241 0.0374842 0.0454649 0.0528416 0.041775 0.0541426 0.0520306 0.08504 0.0713138 0.0724432 0.0662941 0.0602517 0.067777
43 1 Mg -0.262694 9.34741 52.2523 1.2 1 0.115297 0.0668791 0.018592 0.0403967 0.0334826 0.0420025 0.0391104 0.0685172 0.0258212 0.0826567 0.0329821 0.0571408 0.0401068 0.0730296 0.044514 0.103249 0.0535837 0.0925438 0.0484891 0.101266
44 1 Mg 1.87648 9.01537 49.4629 1.2 1 0.273796 0.0985117 0.0457737 0.0370059 0.0322966 0.0524335 0.0639768 0.0463426 0.0757107 0.0639457 0.0843177 0.0515086 0.0782836 0.0655808 0.0790058 0.0947971 0.090079 0.0960624 0.0801867 0.090015
45 2 Si 1.21415 11.3799 51.2378 2.4 1 0.129532 0.0871775 0.042176 0.0373299 0.0408982 0.0495498 0.0527886 0.042909 0.0596443 0.063123 0.0738434 0.068047 0.079207 0.0690438 0.0934221 0.0867902 0.0778261 0.0798 0.0735028 0.0618069
46 3 O 1.31634 12.9512 51.3023 -1.2 1 0.130354 0.0829809 0.0277773 0.0293575 0.0351999 0.0451902 0.0427711 0.0753844 0.0557663 0.0634839 0.0471699 0.0846646 0.070453 0.0645241 0.0743464 0.0689715 0.0750842 0.0734644 0.0700887 0.0694684
47 3 O 1.36034 10.5 57.8966 -1.2 1 0.0105464 0.0212318 0.0194496 0.016123 0.0205468 0.04083 0.0376864 0.0435739 0.048172 0.0451965 0.036945 0.0474263 0.0564082 0.06896 0.0984061 0.0658722 0.0704102 0.0568588 0.0667286 0.0617569
48 3 O -0.115718 10.7564 50.681 -1.2 1 0.18846 0.0829198 0.0227371 0.0183482 0.0464552 0.0351798 0.0512361 0.0644824 0.0498015 0.0596134 0.0620896 0.0494839 0.0657097 0.0775016 0.0929768 0.081841 0.0761537 0.0772836 0.0781195 0.0836891
49 1 Mg -3.26386 9.35564 52.3622 1.2 1 0.0754443 0.0593511 0.0283667 0.0298581 0.0187898 0.0546469 0.0362537 0.0532831 0.0351224 0.0865356 0.0333135 0.0461045 0.0372495 0.0626499 0.037538 0.113552 0.048027 0.104397 0.0494495 0.0958992
50 3 O 2.45216 10.7265 50.4558 -1.2 1 0.198285 0.0945776 0.0183725 0.0124043 0.044626 0.0523768 0.0584955 0.048864 0.0570492 0.0686021 0.0602389 0.0801787 0.0580711 0.0622803 0.0955965 0.0798511 0.0760208 0.0758907 0.0602185 0.0854127
51 1 Mg -1.74329 9.54635 55.106 1.2 1 0.0223033 0.0255203 0.0191432 0.0281599 0.0164153 0.0249774 0.0199581 0.0315614 0.0386493 0.0623448 0.0581564 0.0546293 0.0588205 0.063071 0.0607237 0.0780816 0.0768051 0.0881247 0.0773561 0.0754331
52 2 Si -1.83941 7.41902 53.3448 2.4 1 0.0481999 0.0369829 0.0286104 0.0323387 0.0367359 0.0318621 0.0466458 0.0525912 0.0605025 0.0585862 0.0578155 0.0653929 0.0811228 0.0470102 0.0601642 0.0629388 0.0712941 0.0875581 0.0639312 0.0565756
53 3 O -2.08732 5.8938 53.3737 -1.2 1 0.0642997 0.0386463 0.0257054 0.0201621 0.0242828 0.0275626 0.0351845 0.06034 0.0492036 0.0664883 0.047058 0.0661387 0.0596463 0.0701829 0.0601206 0.0575006 0.0604248 0.0620907 0.0755774 0.0626518
54 3 O -1.19417 8.46968 46.4488 -1.2 1 0.524954 0.0667985 0.0677866 0.0516818 0.0666382 0.0572152 0.0790446 0.0534298 0.0737918 0.0693155 0.0563889 0.0525308 0.0718601 0.0988597 0.129107 0.111771 0.0975772 0.0967865 0.0834449 0.0826917
55 3 O -3.05318 8.10299 54.0171 -1.2 1 0.0442525 0.0187987 0.0234784 0.0154435 0.0271821 0.0268393 0.0450633 0.0449518 0.0421533 0.0565136 0.0532811 0.0467183 0.0609266 0.0522757 0.087357 0.0673219 0.0670245 0.0671494 0.0652283 0.0739114
56 3 O -0.509682 8.01335 53.9678 -1.2 1 0.0464642 0.028361 0.0364674 0.0236999 0.0325028 0.025974 0.0335519 0.0461785 0.0427012 0.0488664 0.0595705 0.0504325 0.0613021 0.0647518 0.0845918 0.0598424 0.0797138 0.0704278 0.0742399 0.0719062
57 1 Mg -3.07968 16.4893 57.2908 1.2 1 0.0169948 0.0183885 0.00957884 0.0300339 0.0104141 0.0313964 0.0125637 0.059137 0.0201974 0.0797435 0.0183439 0.0548392 0.0171448 0.0685329 0.030777 0.101267 0.0372366 0.108956 0.0410517 0.0852575
58 1 Mg -1.6714 16.3544 49.8412 1.2 1 0.230005 0.0839172 0.028633 0.0453948 0.0292642 0.0558727 0.0496742 0.0552299 0.0479138 0.0609676 0.0645915 0.0603415 0.0733356 0.0785364 0.108692 0.0867565 0.0720271 0.0896422 0.0816948 0.0842377
59 2 Si -1.18567 13.8526 47.9314 2.4 1 0.376752 0.063149 0.0672604 0.0666298 0.0284819 0.067634 0.0468645 0.0789747 0.0627293 0.0667407 0.0549676 0.074459 0.0602918 0.0748169 0.0966876 0.0747481 0.104648 0.0973979 0.0900643 0.0916028
60 3 O -1.09664 15.4205 47.9915 -1.2 1 0.368761 0.0678674 0.0502225 0.0596496 0.0480343 0.0929099 0.0624718 0.0832899 0.0564157 0.0876355 0.0548814 0.0717294 0.06211 0.0811121 0.0773808 0.0729365 0.0922642 0.0742755 0.0759481 0.0706767
61 3 O -1.73493 12.7491 51.7772 -1.2 1 0.115864 0.059009 0.0303231 0.0300151 0.0318885 0.05309 0.0612019 0.0521924 0.0650235 0.0507891 0.0594673 0.0473684 0.0516312 0.0859008 0.0999992 0.0773764 0.0789784 0.050274 0.0675354 0.0665731
62 3 O -2.36115 13.2717 48.8238 -1.2 1 0.307582 0.0929616 0.0595211 0.0247034 0.0568781 0.0476159 0.0588552 0.0702339 0.061091 0.0665781 0.073947 0.0603211 0.0548562 0.0544148 0.0805408 0.0862335 0.0879417 0.0806654 0.084716 0.0873636
63 1 Mg -0.159928 11.7639 46.8533 1.2 1 0.485625 0.0229116 0.0750118 0.0313339 0.0480006 0.0958924 0.0670732 0.0841471 0.0836015 0.0856683 0.0835654 0.0695078 0.0745235 0.0939106 0.0781492 0.0852575 0.0979205 0.0989616 0.0994093 0.105809
64 3 O 0.2623 13.1866 48.413 -1.2 1 0.33945 0.0820389 0.0566356 0.040402 0.0466989 0.0553238 0.0389182 0.0666571 0.0680422 0.0687499 0.0618193 0.0628144 0.0681284 0.0905386 0.0982645 0.080145 0.0927077 0.0991446 0.0832035 0.0848065
65 1 Mg 1.17225 11.7825 54.5592 1.2 1 0.0140162 0.0252802 0.0141999 0.0319574 0.0152042 0.0194938 0.0186065 0.0279414 0.043963 0.0567611 0.060111 0.0524261 0.0545379 0.0654085 0.0610176 0.0850143 0.0678404 0.0871962 0.0800174 0.0758219
66 2 Si 1.43501 14.5255 56.452 2.4 1 0.0203857 0.0130998 0.0249066 0.0280289 0.0339608 0.0314348 0.0431972 0.038572 0.0535899 0.0531691 0.0498209 0.0612951 0.0637089 0.0585598 0.076095 0.0753767 0.0698486 0.0883054 0.0570334 0.0488316
67 3 O 1.32223 12.9381 56.5139 -1.2 1 0.0300293 0.0160391 0.0182183 0.0212922 0.0263519 0.0285107 0.0230368 0.062564 0.0432228 0.052778 0.0385259 0.0696872 0.0560721 0.0631654 0.0743917 0.0707849 0.0663447 0.0741917 0.0580525 0.0701318
68 3 O 1.36565 15.4813 52.729 -1.2 1 0.0668205 0.0491831 0.030986 0.017023 0.0267812 0.0471007 0.0520345 0.0518762 0.0486806 0.0478401 0.0474916 0.0463206 0.0573883 0.0681553 0.100727 0.0737184 0.0708966 0.060843 0.0710074 0.0605131
69 3 O 0.225981 15.1455 55.6025 -1.2 1 0.0251113 0.013923 0.0231978 0.0147187 0.0242106 0.0245308 0.0421924 0.0439727 0.0369619 0.0520077 0.0483299 0.0436443 0.0554935 0.0619456 0.0835956 0.077195 0.0800478 0.0611373 0.0647526 0.0642634
70 3 O 2.75824 15.2051 55.7365 -1.2 1 0.0194659 0.0134651 0.0241998 0.0220916 0.0243145 0.0235031 0.0462291 0.0429195 0.033062 0.0445417 0.0584206 0.0321147 0.058677 0.0529943 0.0859565 0.0759937 0.0725784 0.0641827 0.061751 0.0727608
71 1 Mg -0.206989 14.1049 52.2121 1.2 1 0.101131 0.0639853 0.0299499 0.0452618 0.0269861 0.0427866 0.0423336 0.0649556 0.0338621 0.0834001 0.0309888 0.0535966 0.0368347 0.078339 0.0366515 0.106969 0.0474158 0.100968 0.0460237 0.0982222
72 1 Mg 1.82591 13.8102 49.4556 1.2 1 0.262415 0.106492 0.0338792 0.0409929 0.0353068 0.036596 0.0698572 0.0426951 0.0701334 0.0718937 0.0736206 0.0549961 0.0733538 0.0702349 0.0879633 0.0950811 0.078833 0.0954332 0.0875195 0.0806565
73 2 Si 1.29285 16.1518 51.2434 2.4 1 0.125758 0.0859871 0.0406907 0.0348811 0.0357208 0.0530732 0.0510395 0.0429983 0.054824 0.0670272 0.0672208 0.0703459 0.0698004 0.065412 0.0949417 0.0829178 0.0792248 0.0827433 0.0687113 0.0628649
74 3 O 1.39496 17.7199 51.3047 -1.2 1 0.123098 0.0933636 0.0240042 0.0359666 0.038345 0.0389905 0.0465983 0.0721912 0.0620422 0.0634103 0.0454838 0.0815206 0.0680075 0.0636317 0.0760019 0.0669745 0.0756205 0.0804663 0.0728364 0.0706327
75 3 O 1.37479 15.2178 57.8667 -1.2 1 0.00563745 0.0117533 0.0314652 0.0188922 0.0197525 0.0344943 0.0336803 0.041739 0.0535186 0.0437829 0.0410502 0.0526891 0.0476441 0.0758079 0.105294 0.0722675 0.0677304 0.042423 0.0747077 0.050919
76 3 O -0.0269106 15.5178 50.6688 -1.2 1 0.180295 0.0930548 0.0249743 0.0289637 0.0419746 0.0401141 0.0545424 0.0659012 0.0594944 0.0575386 0.0563658 0.0471598 0.0640088 0.0716185 0.0878631 0.0799438 0.0741243 0.0757814 0.0723215 0.0887698
77 1 Mg -3.18391 14.1057 52.3125 1.2 1 0.0693948 0.0590381 0.0361109 0.0322678 0.0156746 0.0560247 0.0379123 0.0614737 0.0389926 0.0835668 0.0399875 0.0471523 0.025972 0.074179 0.0309082 0.109727 0.0460768 0.103356 0.0490515 0.0903524
78 3 O 2.52432 15.503 50.4579 -1.2 1 0.194614 0.0936745 0.0205448 0.0139328 0.0421377 0.0524363 0.0592836 0.0479957 0.0541371 0.0670903 0.0649504 0.0693152 0.0542924 0.0628002 0.104718 0.0805091 0.0785361 0.0770342 0.0645512 0.0818189
79 1 Mg -1.43942 14.2079 55.1614 1.2 1 0.0255672 0.0133735 0.018705 0.0279209 0.010573 0.0245513 0.0267944 0.0323953 0.0425563 0.0525519 0.0556001 0.0530681 0.0655096 0.0625808 0.0653348 0.0713028 0.0894283 0.0889878 0.0707958 0.0684858
80 2 Si -1.90768 12.0568 53.1942 2.4 1 0.0497481 0.0390242 0.0257301 0.0243902 0.037246 0.0377645 0.0543775 0.0502842 0.0549537 0.0554576 0.0672023 0.062288 0.0818811 0.0505217 0.0767366 0.0645434 0.0816278 0.0788728 0.0651796 0.0494127
81 3 O -1.8992 10.5577 53.142 -1.2 1 0.0736461 0.0435077 0.0219901 0.0246508 0.0279329 0.0345997 0.0360518 0.0669282 0.0496257 0.0524996 0.0537536 0.0724739 0.0603787 0.0759596 0.0706513 0.069182 0.0528466 0.0601782 0.0677828 0.0733583
82 3 O -1.21337 13.3381 46.4311 -1.2 1 0.52013 0.0683161 0.0707282 0.0411066 0.055896 0.0591082 0.0598538 0.0711166 0.0799276 0.0662507 0.0465369 0.0716004 0.0684479 0.0879829 0.121099 0.115351 0.106461 0.0988628 0.0602055 0.0927734
83 3 O -3.16286 12.7714 53.8669 -1.2 1 0.0304639 0.0354767 0.0182678 0.0242317 0.0218006 0.0264988 0.0508226 0.048747 0.0496146 0.0483454 0.0545324 0.0409666 0.0543571 0.0590736 0.0846565 0.0643429 0.0743772 0.0602649 0.0621082 0.080894
84 3 O -0.656228 12.7345 54.035 -1.2 1 0.0384563 0.0257772 0.0319788 0.0206616 0.0321542 0.0269806 0.0320412 0.0445098 0.0435608 0.05119 0.0651302 0.035237 0.056354 0.0697941 0.0842353 0.0696985 0.0717421 0.076232 0.063721 0.0752255
85 1 Mg -2.96844 21.0338 57.5573 1.2 1 0.0119882 0.0199573 0.0174687 0.0343852 0.00977487 0.036083 0.0196767 0.0554242 0.0269283 0.0754017 0.0278301 0.0439785 0.0271606 0.063394 0.0350875 0.100188 0.0499154 0.10761 0.0422381 0.0796745
86 1 Mg -1.5831 21.1217 49.8405 1.2 1 0.230542 0.0798154 0.0265938 0.0422215 0.0335391 0.0502089 0.0543654 0.0541307 0.0511617 0.0599829 0.0625298 0.0654151 0.0735207 0.0722726 0.0997293 0.0826632 0.0737092 0.0931062 0.0827485 0.0813325
87 2 Si -1.09384 18.6291 47.9287 2.4 1 0.374947 0.0670938 0.0730361 0.0674366 0.0294925 0.0681516 0.0480205 0.0816043 0.0613945 0.0688303 0.054995 0.0724328 0.0602693 0.074626 0.100008 0.073917 0.104836 0.0931358 0.0877579 0.0895469
88 3 O -1.02071 20.1985 47.9911 -1.2 1 0.361264 0.0769319 0.0543593 0.0608872 0.0474247 0.0934115 0.0610684 0.0805863 0.0527407 0.0875175 0.0533699 0.0729369 0.060623 0.0819182 0.0822275 0.0744143 0.0973446 0.0795128 0.0723117 0.0657971
89 3 O -1.65002 17.5002 51.771 -1.2 1 0.111795 0.0580706 0.0325704 0.0285881 0.0326035 0.0546108 0.0591639 0.0496938 0.0656268 0.0502587 0.0568293 0.0511881 0.0535428 0.081118 0.0982971 0.0770577 0.0791872 0.0467381 0.0705911 0.0683349
90 3 O -2.26174 18.0434 48.8281 -1.2 1 0.305818 0.0916096 0.0563568 0.0302408 0.0582788 0.0475288 0.0532929 0.0743003 0.0578364 0.0638626 0.070306 0.0586109 0.0542862 0.0613729 0.0764461 0.0795951 0.0835526 0.084216 0.0851797 0.0869674
91 1 Mg -0.0440435 16.5651 46.8269 1.2 1 0.480889 0.020891 0.0819878 0.0322694 0.0660941 0.0863033 0.0785245 0.0869078 0.0696181 0.0829697 0.0849301 0.0623118 0.0630836 0.0777633 0.0767741 0.0941471 0.0939327 0.0963565 0.0997308 0.106021
92 3 O 0.37001 17.9877 48.3925 -1.2 1 0.350648 0.0729197 0.0564374 0.0363265 0.0483154 0.060993 0.0401778 0.0625412 0.0631101 0.0738616 0.060854 0.0558058 0.0665471 0.0865227 0.0925531 0.0756524 0.0939243 0.10367 0.0793196 0.0836064
93 1 Mg 1.54757 16.6062 54.4705 1.2 1 0.00545649 0.0316341 0.0202374 0.0288057 0.0163439 0.0195726 0.0300276 0.0412078 0.0421402 0.0584891 0.0618031 0.0550624 0.0649937 0.0645759 0.0733201 0.0734853 0.0776011 0.088461 0.0725028 0.0674929
94 2 Si 1.28959 19.336 56.4044 2.4 1 0.0121363 0.0177981 0.0260879 0.0275186 0.0395115 0.0335903 0.0421031 0.0455032 0.0554262 0.0437102 0.0517684 0.0611193 0.0659972 0.0532736 0.0725866 0.0729573 0.0642044 0.0981777 0.0633922 0.0469747
95 3 O 1.28062 17.7718 56.4118 -1.2 1 0.00870245 0.0130425 0.0144435 0.0157778 0.0275368 0.0271896 0.0255159 0.0644488 0.0401363 0.0568546 0.042579 0.0658608 0.070948 0.0659992 0.068543 0.0589228 0.0691854 0.0648246 0.0632582 0.0682614
96 3 O 1.45147 20.239 52.7294 -1.2 1 0.06665 0.0455583 0.0286181 0.0192096 0.0270988 0.0420313 0.05692 0.0515364 0.0502502 0.0467049 0.0475648 0.0519707 0.0570482 0.0677504 0.0973807 0.0735487 0.0708765 0.0638607 0.0748926 0.058634
97 3 O 0.135939 19.9833 55.7116 -1.2 1 0.00671386 0.00932083 0.0277862 0.0187761 0.0173383 0.0209409 0.0447296 0.0451737 0.0306259 0.0502614 0.0537793 0.038755 0.0528786 0.0540112 0.0903666 0.0729121 0.0697259 0.069443 0.0559301 0.0697096
98 3 O 2.67089 19.9762 55.7852 -1.2 1 0.00447201 0.0164357 0.028639 0.0202553 0.0262036 0.0218549 0.0500342 0.0430993 0.034187 0.046491 0.0495377 0.040224 0.0551114 0.0646081 0.0851141 0.0736989 0.0734156 0.0599705 0.0639334 0.0673831
99 1 Mg -0.126194 18.8651 52.2079 1.2 1 0.104214 0.0648124 0.027615 0.0476731 0.0269931 0.040997 0.0400408 0.0690997 0.0267537 0.0835408 0.0269843 0.0559635 0.0323326 0.07589 0.0353333 0.104219 0.0467012 0.10467 0.0411371 0.101009
100 1 Mg 1.92402 18.5815 49.4545 1.2 1 0.261957 0.109433 0.0401254 0.0412187 0.0351741 0.0360592 0.0692856 0.0463422 0.0693139 0.0703723 0.079 0.0569527 0.0670528 0.0633241 0.0859018 0.0964655 0.078063 0.0981656 0.0800019 0.0814021
101 2 Si 1.38106 20.9117 51.2443 2.4 1 0.130032 0.0845598 0.0387314 0.0351441 0.0395528 0.0491595 0.0527991 0.0471455 0.0596926 0.0663849 0.0656261 0.0734227 0.0731259 0.0678929 0.0940242 0.0854334 0.0783035 0.085024 0.0686721 0.0620614
102 3 O 1.48527 22.4795 51.3054 -1.2 1 0.132121 0.0802442 0.0277042 0.028952 0.0372427 0.0425902 0.0411779 0.0693197 0.0599497 0.0692376 0.0433498 0.0796634 0.0681302 0.0690084 0.0788067 0.0692271 0.0751546 0.0700167 0.0675003 0.0674756
103 3 O 1.41097 19.9498 57.8537 -1.2 1 0.013953 0.0209576 0.0238172 0.016917 0.0179845 0.0341097 0.0399731 0.0447341 0.053119 0.0418999 0.0375425 0.0453283 0.0546377 0.065126 0.106998 0.0725846 0.0614391 0.0560689 0.0737473 0.0608903
104 3 O 0.0615419 20.2804 50.6669 -1.2 1 0.184345 0.0808644 0.0258135 0.0205415 0.0486992 0.0403882 0.0541982 0.0612282 0.0575196 0.0615291 0.0567869 0.0517216 0.0626857 0.0718626 0.0893399 0.0851765 0.0737543 0.0787656 0.0743431 0.0859141
105 1 Mg -3.09665 18.8643 52.3122 1.2 1 0.0725069 0.0559319 0.0344374 0.026721 0.017268 0.0562635 0.0358724 0.0630141 0.0371667 0.0834955 0.031925 0.0482467 0.0262887 0.0788242 0.0351739 0.106733 0.0480987 0.100903 0.0499723 0.092184
106 3 O 2.61548 20.2646 50.4626 -1.2 1 0.194188 0.0940176 0.0243772 0.0191022 0.0405675 0.0531488 0.0556316 0.0472475 0.0584271 0.0721474 0.0640602 0.0702241 0.058355 0.0660965 0.0974144 0.0751185 0.0773915 0.0693661 0.0645906 0.0844492
107 1 Mg -1.53796 19.0116 55.0622 1.2 1 0.017852 0.0121 0.0165517 0.0321362 0.0191653 0.0277622 0.0257459 0.0337763 0.0366986 0.0593767 0.0609767 0.0608948 0.0523827 0.0723753 0.0594993 0.0873721 0.0691227 0.0955803 0.069573 0.0791075
108 2 Si -1.53479 16.7306 53.1534 2.4 1 0.0526032 0.0432367 0.0258421 0.0302298 0.0382376 0.0311218 0.0483352 0.0522504 0.0484445 0.0649786 0.0591141 0.0622474 0.0715321 0.054483 0.0739716 0.06027 0.0708991 0.0846195 0.0644509 0.067718
109 3 O -1.57319 15.2399 53.0844 -1.2 1 0.0557775 0.0518235 0.0269956 0.0219133 0.0316884 0.0341939 0.0328215 0.0742748 0.0513227 0.0571173 0.0407811 0.0731388 0.0638778 0.070794 0.0806381 0.0629274 0.0522662 0.0747332 0.0540812 0.0773322
110 3 O -1.12868 18.1227 46.4249 -1.2 1 0.521964 0.065991 0.0725289 0.0515452 0.057114 0.065218 0.0614714 0.079309 0.0795701 0.0622164 0.0447668 0.0673012 0.0671219 0.0878742 0.116754 0.114538 0.106521 0.100367 0.0621809 0.0929201
111 3 O -2.73375 17.4637 53.9113 -1.2 1 0.0318141 0.0158361 0.0360344 0.0266311 0.0317794 0.0286276 0.0513664 0.0494853 0.0449419 0.0559062 0.0495764 0.0395284 0.0556076 0.064891 0.0775492 0.0697979 0.0695826 0.0644887 0.0725679 0.0609046
112 3 O -0.21237 17.4389 53.8087 -1.2 1 0.0406205 0.0338651 0.0226723 0.0295058 0.0283763 0.0176059 0.0479996 0.0442831 0.0561867 0.0574317 0.0525254 0.0418769 0.0595508 0.066843 0.0780721 0.0694968 0.0862 0.0663137 0.0674056 0.0716839
113 1 Mg -2.88074 25.988 57.3805 1.2 1 0.00891278 0.0184636 0.00529378 0.0322183 0.00599647 0.0323966 0.00786138 0.0558356 0.0162462 0.0793092 0.0159973 0.0551624 0.0129344 0.0744343 0.0185084 0.0948394 0.0230213 0.113118 0.0321329 0.0952891
114 1 Mg -1.48778 25.88 49.8402 1.2 1 0.231036 0.0801297 0.0281664 0.0394553 0.0311731 0.050654 0.0529404 0.0532807 0.0512893 0.0583425 0.0640754 0.0664807 0.0705734 0.0723295 0.100805 0.0793074 0.0734957 0.0970233 0.0817474 0.0845475
115 2 Si -1.00491 23.3922 47.9274 2.4 1 0.371255 0.0689871 0.07177 0.0697904 0.0335418 0.0741501 0.0419127 0.0844392 0.069043 0.0729489 0.0508146 0.0754552 0.0604082 0.0749466 0.0944324 0.0769371 0.101828 0.0966338 0.0903652 0.0936586
116 3 O -0.927602 24.9615 47.9909 -1.2 1 0.362453 0.0733283 0.0491531 0.0667552 0.0451005 0.0899897 0.0657625 0.0853644 0.0604534 0.0908518 0.0526534 0.0690987 0.0612969 0.0848841 0.0840636 0.0779365 0.0970432 0.0769118 0.0769951 0.0742052
117 3 O -1.55795 22.2588 51.7696 -1.2 1 0.113722 0.0543501 0.0380981 0.0278785 0.0336554 0.0558104 0.058488 0.0510563 0.0663506 0.0550445 0.0538215 0.0463078 0.0561103 0.0816933 0.103621 0.071654 0.0794157 0.0461136 0.0767082 0.0683303
118 3 O -2.17411 22.8111 48.8277 -1.2 1 0.297382 0.0994552 0.0613958 0.0285817 0.0615585 0.0521096 0.0587766 0.0730715 0.0610808 0.0669952 0.0709336 0.0612282 0.0585231 0.0581061 0.0790666 0.0894315 0.0875522 0.079536 0.0822398 0.0889382
119 1 Mg 0.0423997 21.3296 46.8225 1.2 1 0.479927 0.0185661 0.0878311 0.0273197 0.0584381 0.0843917 0.0732334 0.0848009 0.0749343 0.0848851 0.0827974 0.0627544 0.0672806 0.0808873 0.0769491 0.0931907 0.0963298 0.0998375 0.102206 0.108684
120 3 O 0.458537 22.7495 48.3911 -1.2 1 0.337104 0.0863674 0.0603117 0.0387628 0.0470339 0.0612176 0.0461188 0.0706186 0.0665796 0.072445 0.0619806 0.0571604 0.065015 0.0904873 0.101096 0.079727 0.0938147 0.100405 0.0780256 0.0866358
121 1 Mg 1.59968 21.4275 54.7237 1.2 1 0.0178606 0.0378575 0.00849582 0.0337814 0.0172825 0.0200866 0.0206395 0.0326324 0.0446798 0.0566609 0.0635235 0.0539815 0.0609763 0.0666703 0.0596488 0.0976266 0.0679991 0.0839419 0.0732451 0.080271
122 2 Si 1.57515 23.9397 56.5155 2.4 1 0.00533281 0.0154023 0.0199676 0.0295541 0.0309311 0.0284989 0.044443 0.0427977 0.0565902 0.053519 0.0499202 0.0630619 0.06548 0.059518 0.0760625 0.0733548 0.0639728 0.0871625 0.0627414 0.0612314
123 3 O 1.37544 22.3855 56.6518 -1.2 1 0.0375597 0.00971601 0.0157117 0.016867 0.0161456 0.0305505 0.0302057 0.0622825 0.0431553 0.0457206 0.0460444 0.0640027 0.0538836 0.0616366 0.0760095 0.0676559 0.0659924 0.0782034 0.0492017 0.0737916
124 3 O 1.54441 24.9963 52.7297 -1.2 1 0.0710164 0.045767 0.025785 0.0241682 0.0229877 0.0369814 0.0522905 0.0551667 0.0513555 0.0475427 0.0476644 0.047266 0.061848 0.0627505 0.0959132 0.0731505 0.0709995 0.0569931 0.0697191 0.0584822
125 3 O 0.217767 24.6452 55.8673 -1.2 1 0.00690958 0.012137 0.0372413 0.0219864 0.0244306 0.0242298 0.0479536 0.041252 0.0394639 0.0473559 0.0547889 0.0482111 0.0587103 0.0580202 0.0936376 0.0735007 0.0677267 0.0508204 0.0655416 0.0729881
126 3 O 2.82148 24.6976 55.9542 -1.2 1 0.025117 0.00929106 0.0331482 0.0222648 0.0242048 0.0225153 0.0480334 0.0340728 0.0414914 0.0352721 0.0496368 0.0472082 0.0508481 0.0594286 0.0855409 0.0698882 0.0779192 0.0543187 0.0712998 0.0678406