ITEM: TIMESTEP
8800
ITEM: NUMBER OF ATOMS
10500
ITEM: BOX BOUNDS xy xz yz pp pp pp
0	8.9688	2.9896
0	118.725	0
0	252.977	0
ITEM: ATOMS id type element xu yu zu q Q_1 Q_2 Q_3 Q_4 Q_5 Q_6 Q_7 Q_8 Q_9 Q_10 Q_11 Q_12 Q_13 Q_14 Q_15 Q_16 Q_17 Q_18 Q_19 Q_20 Q_21
1 1 Mg -3.38874 7.06647 57.4324 1.2 1 0.010726 0.0182604 0.00663302 0.0277239 0.00501533 0.0332505 0.00755123 0.052743 0.00886037 0.0840021 0.00949992 0.0502511 0.013199 0.0681131 0.0115353 0.0971981 0.0216795 0.118665 0.0205698 0.100718
2 1 Mg -1.82655 6.90154 50.0912 1.2 1 0.223209 0.0838979 0.0307081 0.0329983 0.0271232 0.0535587 0.0485061 0.0447892 0.0542889 0.0680618 0.0571846 0.0725056 0.0672927 0.0600219 0.0937396 0.0607379 0.0863202 0.100252 0.0742618 0.0803495
3 2 Si -0.257935 3.96038 48.0876 2.4 1 0.371798 0.0730446 0.0747283 0.0361171 0.0612265 0.0523745 0.073798 0.0769415 0.0576496 0.0777321 0.0563158 0.0685735 0.0627951 0.0848151 0.0961965 0.0996218 0.11014 0.0912507 0.0691555 0.0716282
4 3 O -0.335812 5.46814 47.6264 -1.2 1 0.427056 0.0392464 0.0649541 0.0309237 0.041076 0.0485648 0.0650415 0.0706129 0.0873569 0.0756555 0.091753 0.0757528 0.0719486 0.0697561 0.0917836 0.124623 0.0941299 0.0800299 0.075806 0.0782616
5 3 O -2.03793 3.43377 51.8941 -1.2 1 0.113324 0.0612384 0.0268055 0.0219369 0.0206442 0.0516031 0.0604709 0.0501944 0.0480442 0.0575014 0.0633436 0.0526627 0.0497521 0.075547 0.0880873 0.0814578 0.0667287 0.055419 0.0749548 0.070076
6 3 O -1.54015 3.53929 48.9521 -1.2 1 0.299809 0.091288 0.0328725 0.0475813 0.0339294 0.0485307 0.0695086 0.0499842 0.0536232 0.0620117 0.0772664 0.0667825 0.0720582 0.0699717 0.0722174 0.10953 0.0823426 0.0790868 0.077382 0.0883473
7 1 Mg 1.82954 2.54582 47.1376 1.2 1 0.465983 0.0216458 0.0803913 0.0499514 0.0354809 0.082606 0.0597492 0.0591092 0.0755858 0.0874267 0.068162 0.0773674 0.0823527 0.0847953 0.0691613 0.0961056 0.102048 0.104827 0.10592 0.0986948
8 3 O 1.22989 3.66364 48.7877 -1.2 1 0.318176 0.0737692 0.0213731 0.0475091 0.0315759 0.0644957 0.0801301 0.0320184 0.0815814 0.0792509 0.0522508 0.0776805 0.0831978 0.0690056 0.066183 0.0878153 0.0933206 0.090617 0.0949959 0.0921287
9 1 Mg 1.06328 2.33754 54.5915 1.2 1 0.0126883 0.0239028 0.0212245 0.0360039 0.0250299 0.0346295 0.0189288 0.0326008 0.0462025 0.0581239 0.0575724 0.0567996 0.0577483 0.067814 0.0632665 0.0832369 0.0693003 0.0845025 0.0744161 0.073017
10 2 Si 1.02643 4.94646 56.4638 2.4 1 0.0151067 0.0154697 0.0249817 0.0220593 0.0254659 0.0242986 0.0376324 0.0485525 0.0503531 0.0554065 0.0537077 0.0632825 0.065285 0.0552223 0.084756 0.0692936 0.0622193 0.100082 0.0518696 0.0628714
11 3 O 0.987489 3.42344 56.527 -1.2 1 0.0142341 0.0125681 0.00877788 0.0242149 0.0217278 0.0274994 0.0181976 0.0617437 0.0365586 0.0464231 0.03633 0.0668899 0.0567601 0.0583586 0.0735058 0.0736211 0.0562489 0.0729555 0.0631299 0.0748288
12 3 O 1.10813 6.07342 52.8172 -1.2 1 0.0858944 0.046126 0.0287001 0.0186575 0.0218088 0.0460338 0.0411281 0.0552238 0.0504301 0.0417264 0.0553658 0.0525658 0.0696016 0.0668853 0.0852152 0.0844702 0.0580653 0.0682342 0.070598 0.0698461
13 3 O -0.286148 5.66633 55.8704 -1.2 1 0.0190032 0.00825841 0.0260022 0.031859 0.0259575 0.0204776 0.0393356 0.043722 0.0410137 0.0471804 0.0564283 0.0430666 0.0517948 0.0601869 0.0853882 0.0744417 0.074923 0.0588634 0.063685 0.0694258
14 3 O 2.23921 5.7118 55.7812 -1.2 1 0.0132399 0.0198427 0.0285071 0.020739 0.023255 0.0151855 0.0407763 0.0457759 0.0420598 0.0390962 0.0512041 0.0428534 0.0495094 0.0599403 0.0853221 0.0689598 0.0810658 0.0674546 0.0673533 0.0601703
15 1 Mg -0.459401 4.67631 52.2426 1.2 1 0.0906418 0.0672761 0.0328908 0.0385353 0.03112 0.030437 0.0405058 0.0593524 0.0415145 0.0839042 0.0441066 0.0610814 0.0470449 0.0747469 0.0430797 0.0996439 0.0534953 0.0941467 0.0584151 0.0901336
16 1 Mg 2.79456 3.9971 49.9987 1.2 1 0.221876 0.0958789 0.0297992 0.0394467 0.0428867 0.0601529 0.0572914 0.0561315 0.0785868 0.0628158 0.0634728 0.057938 0.064369 0.0717475 0.0840815 0.0771343 0.0743625 0.0896357 0.0849716 0.0735609
17 2 Si 1.16169 6.59457 51.2556 2.4 1 0.140247 0.0876825 0.0352737 0.0329769 0.0441765 0.0481521 0.047653 0.0455032 0.0580816 0.0664035 0.0664369 0.0747278 0.0733531 0.0679705 0.0853048 0.0898549 0.0807336 0.0922306 0.0739266 0.0638774
18 3 O 1.28989 8.18905 51.2909 -1.2 1 0.149676 0.0791378 0.030706 0.042023 0.031867 0.0464122 0.0395946 0.0711649 0.048955 0.0692881 0.0438763 0.0879915 0.0691973 0.0633086 0.0764192 0.0701723 0.0737881 0.0660406 0.0685625 0.072802
19 3 O 1.08162 5.63192 57.9649 -1.2 1 0.0180019 0.0191957 0.0234591 0.0116925 0.0217247 0.0360458 0.0298031 0.0431413 0.0511146 0.045245 0.0370531 0.043448 0.051951 0.066952 0.103787 0.0659321 0.0664427 0.055532 0.0728703 0.0654066
20 3 O -0.184847 6.06029 50.6845 -1.2 1 0.183063 0.0847099 0.0208823 0.0335628 0.0363554 0.0290953 0.051038 0.0573572 0.0561745 0.0614156 0.0650713 0.07892 0.0658304 0.0586728 0.0909884 0.0693078 0.0811197 0.0796428 0.0628341 0.0806235
21 1 Mg -3.49704 4.67769 52.6661 1.2 1 0.0645068 0.0557217 0.0252049 0.0292762 0.0146328 0.0423948 0.032549 0.0596544 0.0540412 0.0669182 0.0519085 0.0491965 0.0533303 0.0501828 0.0593057 0.0877189 0.0834954 0.0771626 0.0705749 0.0721823
22 3 O 2.48581 5.93312 50.6539 -1.2 1 0.189765 0.0942356 0.0337129 0.0169864 0.037739 0.0485491 0.0605663 0.0583918 0.0482536 0.0682886 0.0484814 0.0625652 0.0566446 0.0608816 0.102108 0.0703695 0.0767019 0.0691468 0.076004 0.0768924
23 1 Mg -1.93764 4.76036 55.1944 1.2 1 0.0254167 0.0181528 0.0226672 0.025886 0.0154154 0.0208658 0.0262211 0.0361252 0.0377276 0.0536462 0.0610531 0.0535195 0.0592728 0.0606082 0.0613263 0.0748613 0.0858675 0.0916795 0.0675554 0.0778095
24 2 Si -1.95412 2.64009 53.2845 2.4 1 0.0334561 0.0397301 0.0275001 0.026602 0.0279509 0.0253071 0.0481816 0.0447403 0.0674342 0.0660781 0.0543317 0.0668873 0.0771226 0.0497361 0.0712144 0.055155 0.0759645 0.0884093 0.079654 0.059182
25 3 O -2.03199 1.09227 53.1835 -1.2 1 0.0644764 0.0327306 0.0281469 0.0265648 0.0283104 0.0312533 0.0292955 0.0603508 0.0567898 0.0600293 0.049817 0.0688878 0.0526945 0.0711709 0.0722872 0.0687895 0.0507802 0.0673109 0.0692215 0.0748492
26 3 O -0.0467762 2.97103 46.8385 -1.2 1 0.497725 0.0373442 0.0879227 0.0294802 0.0800854 0.0682369 0.0814022 0.0719093 0.0723257 0.0786328 0.0808444 0.075415 0.097381 0.0887701 0.0883916 0.0886322 0.0993601 0.0967504 0.104245 0.110434
27 3 O -3.25285 3.22861 54.0936 -1.2 1 0.0286331 0.0250915 0.0270324 0.0242742 0.0233775 0.0264077 0.035611 0.0417537 0.0539714 0.0544448 0.063274 0.0424697 0.0592318 0.0649516 0.0758747 0.0644252 0.0654297 0.0650641 0.0674037 0.0595855
28 3 O -0.665576 3.30915 53.9617 -1.2 1 0.034317 0.0257348 0.0392504 0.0154064 0.0226412 0.0264295 0.0438755 0.0509863 0.0449493 0.0496997 0.0612329 0.0447207 0.057095 0.0744895 0.0864289 0.0627532 0.0848703 0.0715252 0.0679826 0.0629609
29 1 Mg -3.4367 11.827 57.5174 1.2 1 0.0153682 0.0133592 0.019271 0.0300641 0.0136451 0.0351288 0.0140334 0.057028 0.0257055 0.0787329 0.0229897 0.0536024 0.025813 0.0708662 0.0282492 0.0941051 0.0447318 0.109519 0.0456943 0.0883587
30 1 Mg -1.75014 11.5838 49.8362 1.2 1 0.230033 0.0815251 0.0264634 0.0407072 0.029147 0.0552105 0.049529 0.0543797 0.0469384 0.0590299 0.0643068 0.06143 0.0729098 0.0731683 0.110092 0.0883522 0.0645382 0.094971 0.0863582 0.0788644
31 2 Si -1.18003 9.02138 47.9309 2.4 1 0.36747 0.0709428 0.0692682 0.0545748 0.0411981 0.0603237 0.0732568 0.077698 0.0697258 0.0662308 0.0591368 0.0667175 0.067891 0.0807132 0.102648 0.0637725 0.0999586 0.0926909 0.1037 0.085836
32 3 O -1.23224 10.5991 47.9811 -1.2 1 0.379689 0.0583752 0.0544056 0.0566696 0.0506263 0.0698814 0.0675538 0.0776863 0.0586206 0.0872928 0.0708377 0.0640652 0.0715987 0.079101 0.082153 0.06822 0.0882889 0.0799021 0.066498 0.0735978
33 3 O -1.79016 8.01447 51.8693 -1.2 1 0.114068 0.0610298 0.0334199 0.0295956 0.0310085 0.0474739 0.0583095 0.056524 0.0566078 0.0522914 0.0502954 0.0528259 0.0650341 0.0860177 0.0899089 0.0752587 0.0724857 0.0541065 0.0735022 0.0683501
34 3 O -2.30986 8.37215 48.8528 -1.2 1 0.310459 0.0890579 0.0664636 0.0248618 0.0543986 0.0631302 0.0644478 0.0641984 0.0567442 0.064706 0.0784208 0.0692095 0.0607326 0.0625466 0.079101 0.0925694 0.0991962 0.0798273 0.0754424 0.0956026
35 1 Mg 0.154883 7.08234 46.8007 1.2 1 0.497368 0.0364504 0.0752964 0.0389087 0.065059 0.0751425 0.0589627 0.0683473 0.0710231 0.0823384 0.0887258 0.0764332 0.0792218 0.0794345 0.0699197 0.0924628 0.0927586 0.107697 0.113354 0.100564
36 3 O 0.325447 8.50934 48.3809 -1.2 1 0.345349 0.0835809 0.0670208 0.0454799 0.0360419 0.0509449 0.0416684 0.0607966 0.0621255 0.0659637 0.0755508 0.0647548 0.0796826 0.0930216 0.0902615 0.0691431 0.0928349 0.101244 0.0844394 0.0889557
37 1 Mg 1.12126 7.09352 54.6165 1.2 1 0.0141901 0.0272053 0.0159409 0.0284302 0.0181745 0.0234945 0.0231638 0.0316009 0.0433102 0.0602275 0.0629866 0.0571735 0.0502589 0.0656836 0.0640622 0.0871154 0.0668591 0.0855461 0.0789982 0.0814266
38 2 Si 1.15373 9.74928 56.4638 2.4 1 0.0188218 0.0212367 0.0198786 0.0195382 0.031684 0.0351111 0.0417915 0.0380501 0.0489102 0.0537426 0.0550904 0.0681352 0.0663399 0.0595258 0.0816927 0.0690124 0.0600645 0.0928316 0.0576505 0.0568594
39 3 O 1.14043 8.18811 56.5281 -1.2 1 0.0300847 0.00499357 0.0215755 0.0222368 0.0234038 0.0315832 0.0244579 0.0636571 0.0358654 0.0498793 0.0431362 0.0686792 0.059433 0.0638875 0.0714397 0.063862 0.0597603 0.0719417 0.0560286 0.0746586
40 3 O 1.28624 10.7248 52.7351 -1.2 1 0.0781713 0.0415673 0.0299074 0.0223364 0.0292225 0.0429391 0.0494499 0.0520147 0.0477898 0.045596 0.0484817 0.0453218 0.0558129 0.0681545 0.100877 0.0793633 0.066895 0.0540796 0.0729316 0.0593788
41 3 O -0.107933 10.4011 55.7612 -1.2 1 0.0102767 0.00833104 0.0239256 0.023287 0.0198877 0.0222122 0.0420713 0.0375677 0.0332066 0.0446666 0.0533466 0.0415975 0.0571083 0.0541862 0.0873799 0.0735382 0.07511 0.0580939 0.0621982 0.073658
42 3 O 2.42602 10.4302 55.8191 -1.2 1 0.0182784 0.00916937 0.0324016 0.0173905 0.0210656 0.018176 0.0430702 0.0418955 0.0348542 0.0381325 0.0526344 0.0399106 0.0528607 0.0606346 0.0822645 0.0726213 0.0801711 0.056542 0.0697553 0.0625527
43 1 Mg -0.262694 9.34741 52.2523 1.2 1 0.115202 0.0647787 0.0184236 0.0410378 0.0324776 0.0439762 0.0371171 0.0716644 0.0268658 0.0879305 0.0266607 0.057472 0.0375809 0.0733467 0.0382446 0.106431 0.0474227 0.0946408 0.0482172 0.103789
44 1 Mg 1.87648 9.01537 49.4629 1.2 1 0.273899 0.0942549 0.0397176 0.0386982 0.0307313 0.0487831 0.0685446 0.0458784 0.0783347 0.0635717 0.0809187 0.0549031 0.0845929 0.0668433 0.0846711 0.0932765 0.0876258 0.0962278 0.0845882 0.0899956
45 2 Si 1.21415 11.3799 51.2378 2.4 1 0.130277 0.0864496 0.0423602 0.0361764 0.0399205 0.0518431 0.0525838 0.0418208 0.0575668 0.0630509 0.0734721 0.0717452 0.0771311 0.0693587 0.0934089 0.0886066 0.0764756 0.0824287 0.0747815 0.0590695
46 3 O 1.31634 12.9512 51.3023 -1.2 1 0.147571 0.0695529 0.0304061 0.0385446 0.0310511 0.0405665 0.0428467 0.0680535 0.0540456 0.0668835 0.0443629 0.0755812 0.0677905 0.0644839 0.0721135 0.0662695 0.0771678 0.0720221 0.0725075 0.0714386
47 3 O 1.1133 10.4392 57.975 -1.2 1 0.00949312 0.0177031 0.0263297 0.0136838 0.0207452 0.0338813 0.0297382 0.0488943 0.0484391 0.0474766 0.0372978 0.0504554 0.0507875 0.0624846 0.104716 0.0602672 0.0711447 0.0573783 0.0662386 0.0647901
48 3 O -0.115718 10.7564 50.681 -1.2 1 0.192598 0.0789862 0.0226603 0.0185387 0.0451638 0.0346892 0.0511954 0.0645652 0.0505858 0.0563151 0.0621174 0.0507342 0.0635898 0.0745453 0.0893371 0.078231 0.0748027 0.0757214 0.0780955 0.0838368
49 1 Mg -3.26386 9.35564 52.3622 1.2 1 0.0784935 0.055549 0.0258089 0.0332653 0.0155414 0.0528424 0.037067 0.0572838 0.0326701 0.0859428 0.0297786 0.0485561 0.031107 0.0662476 0.0357365 0.113282 0.0450315 0.106287 0.0476569 0.0928198
50 3 O 2.45216 10.7265 50.4558 -1.2 1 0.197356 0.0910729 0.0210522 0.012518 0.0378973 0.0586917 0.0594754 0.0467801 0.059922 0.0697621 0.0657626 0.0708782 0.0555457 0.0676236 0.096639 0.0812403 0.0735682 0.0766976 0.0571236 0.0884098
51 1 Mg -1.83135 9.43488 55.1439 1.2 1 0.0278504 0.0126761 0.0174117 0.0296413 0.010764 0.0204533 0.0234045 0.0332442 0.0389964 0.0530954 0.0573033 0.0545228 0.061944 0.0590319 0.0618055 0.0730342 0.0758626 0.0967399 0.0711794 0.0848107
52 2 Si -1.75819 7.37277 53.3738 2.4 1 0.0524928 0.0415525 0.0255317 0.0295206 0.0292924 0.0355079 0.0406008 0.0530314 0.0653295 0.0604308 0.0582292 0.058618 0.0744397 0.0482067 0.0666138 0.0670754 0.0680159 0.0824758 0.0660792 0.0532853
53 3 O -1.93906 5.8499 53.3221 -1.2 1 0.0637487 0.0338591 0.0242831 0.0176999 0.0246621 0.032807 0.0355274 0.0656464 0.0505121 0.0651674 0.0402588 0.0751724 0.0517078 0.0736533 0.0575639 0.0625839 0.0586154 0.0594841 0.0717649 0.0658527
54 3 O -1.19417 8.46968 46.4488 -1.2 1 0.525049 0.066708 0.0667866 0.0516489 0.0669762 0.0558834 0.077947 0.0542983 0.0754635 0.0703742 0.0562288 0.0509012 0.0700312 0.0983128 0.129931 0.112892 0.0972514 0.0958575 0.0837016 0.0828145
55 3 O -3.08462 8.09351 54.0303 -1.2 1 0.0449953 0.0189201 0.0272976 0.0189831 0.0244534 0.0281463 0.0484364 0.0413514 0.0437251 0.0543775 0.0546303 0.0443968 0.0588479 0.0572125 0.0825309 0.0679987 0.0676765 0.0634464 0.0672505 0.069475
56 3 O -0.496764 8.04523 54.0295 -1.2 1 0.0561799 0.0255345 0.028795 0.0208238 0.0339636 0.0242794 0.0344881 0.0444412 0.0433133 0.0541758 0.0614607 0.0481966 0.0590363 0.0556808 0.0832612 0.0592108 0.0755288 0.0705805 0.0651286 0.0788043
57 1 Mg -3.13297 16.5565 57.3441 1.2 1 0.0089724 0.0192324 0.00341953 0.0293333 0.0021716 0.0329751 0.00407576 0.0537972 0.0104274 0.0850202 0.00878902 0.0507703 0.0123959 0.0689729 0.014647 0.101392 0.019997 0.113701 0.0210461 0.098666
58 1 Mg -1.6714 16.3544 49.8412 1.2 1 0.232754 0.0790982 0.0269685 0.0405554 0.0316275 0.0495536 0.0532013 0.0554479 0.046989 0.0608296 0.0607717 0.0643559 0.0722704 0.074871 0.104588 0.0840762 0.0744798 0.0953126 0.0833717 0.0835805
59 2 Si -1.18567 13.8526 47.9314 2.4 1 0.374213 0.067849 0.0772219 0.060517 0.0327484 0.0691593 0.0468066 0.0796042 0.0628078 0.0668383 0.0523589 0.0711523 0.0579205 0.0752792 0.097474 0.0764494 0.104398 0.0967453 0.0893796 0.0914344
60 3 O -1.09664 15.4205 47.9915 -1.2 1 0.370665 0.0629597 0.0421246 0.0631814 0.0439502 0.0910349 0.0626793 0.0809062 0.0534552 0.0868477 0.0545393 0.0736048 0.060455 0.0797035 0.0792643 0.0724735 0.092272 0.0746881 0.074095 0.0722671
61 3 O -1.73493 12.7491 51.7772 -1.2 1 0.11648 0.0583643 0.0296366 0.0271585 0.0342128 0.0523696 0.0603571 0.0502213 0.0667248 0.0506027 0.0584714 0.0493471 0.0530242 0.085015 0.101364 0.0779689 0.0803267 0.0485141 0.073394 0.0726772
62 3 O -2.36115 13.2717 48.8238 -1.2 1 0.311652 0.0857756 0.0526474 0.0310847 0.0528163 0.0492733 0.0564979 0.0697312 0.0613832 0.0697066 0.0719844 0.0624077 0.0599604 0.0572103 0.0827734 0.0843034 0.0859549 0.0789214 0.0821341 0.0878248
63 1 Mg -0.159928 11.7639 46.8533 1.2 1 0.482428 0.0248143 0.0769787 0.0336462 0.0532696 0.0972163 0.0710007 0.0881167 0.0826699 0.0841655 0.08407 0.0688669 0.0720394 0.0919078 0.0776909 0.0860069 0.0965358 0.0974252 0.0997552 0.10599
64 3 O 0.2623 13.1866 48.413 -1.2 1 0.343367 0.0784815 0.0546746 0.0394604 0.0462674 0.0591627 0.0389243 0.0654574 0.0678035 0.0695166 0.0612143 0.0597667 0.0650909 0.0874502 0.0972749 0.0811 0.0940589 0.0979062 0.0828247 0.0870821
65 1 Mg 1.21481 11.8084 54.5564 1.2 1 0.0141451 0.0276089 0.0154442 0.0304193 0.0135778 0.0186993 0.0178248 0.0321918 0.0424861 0.0628158 0.0610286 0.0536034 0.0558151 0.068653 0.0618203 0.0836663 0.0703683 0.0906837 0.0768219 0.0774398
66 2 Si 1.26778 14.4522 56.329 2.4 1 0.016675 0.0158431 0.018316 0.0259418 0.0324894 0.0311462 0.0405319 0.0395959 0.0474636 0.0549292 0.0536929 0.0629819 0.0709274 0.0564143 0.0756763 0.0747183 0.0546743 0.0979507 0.0589596 0.0542402
67 3 O 1.18163 12.9183 56.4241 -1.2 1 0.0113063 0.0132284 0.0109744 0.0247442 0.0290237 0.0272726 0.0241232 0.0646989 0.0374293 0.0557085 0.0421742 0.0675999 0.0560442 0.0640629 0.0649441 0.063999 0.0587398 0.071459 0.0645619 0.0678436
68 3 O 1.36565 15.4813 52.729 -1.2 1 0.0714367 0.0407054 0.0304963 0.0234611 0.0248689 0.0429579 0.0501716 0.0551632 0.0501923 0.0476912 0.047463 0.0489115 0.0557112 0.0674029 0.102704 0.074102 0.0672648 0.0628882 0.0757363 0.0591255
69 3 O -0.0394998 15.1705 55.7768 -1.2 1 0.00625528 0.0128098 0.0301998 0.0195967 0.0155541 0.021036 0.0390758 0.0433963 0.0389243 0.0444423 0.0522757 0.0436932 0.0527063 0.0547535 0.089573 0.0698622 0.0727859 0.059525 0.0622261 0.0716126
70 3 O 2.51566 15.1592 55.5965 -1.2 1 0.0174117 0.0186281 0.0232073 0.0158477 0.0207094 0.0191502 0.0468088 0.0485592 0.0315854 0.050656 0.0505812 0.035872 0.0542275 0.0622948 0.08032 0.0784759 0.0703768 0.0693934 0.0613467 0.0571074
71 1 Mg -0.206989 14.1049 52.2121 1.2 1 0.104218 0.0659365 0.0231748 0.0419412 0.0300324 0.0426436 0.0344914 0.0724601 0.0265984 0.0878246 0.0249122 0.0570837 0.0311391 0.0749904 0.031513 0.104245 0.0442214 0.103859 0.0422467 0.100848
72 1 Mg 1.82591 13.8102 49.4556 1.2 1 0.259317 0.107756 0.0317977 0.0418332 0.0358167 0.0361934 0.0708887 0.0443028 0.071617 0.0742986 0.0760936 0.0576597 0.0767009 0.0745448 0.0854819 0.0953864 0.0789395 0.0947579 0.0885347 0.0849169
73 2 Si 1.29285 16.1518 51.2434 2.4 1 0.127636 0.0880456 0.0358939 0.0388014 0.0365315 0.0505872 0.0551651 0.0441055 0.0538817 0.0674813 0.0689547 0.0725412 0.0703687 0.0665502 0.0917737 0.0850471 0.0759719 0.0845968 0.0718377 0.0632284
74 3 O 1.39496 17.7199 51.3047 -1.2 1 0.141461 0.0730044 0.032495 0.0378568 0.0324441 0.0440904 0.0417437 0.068444 0.0520754 0.0648593 0.0465268 0.0757983 0.0686257 0.0639974 0.0741143 0.0671426 0.076301 0.0772612 0.0706069 0.0718433
75 3 O 1.36263 15.1663 57.852 -1.2 1 0.0188159 0.020374 0.0230999 0.0156752 0.0171156 0.0389623 0.0357035 0.0397946 0.0513393 0.0448481 0.0409724 0.0443839 0.0531393 0.0647874 0.103615 0.067185 0.0662629 0.0537535 0.0754427 0.0618462
76 3 O -0.0269106 15.5178 50.6688 -1.2 1 0.181187 0.0885539 0.0214972 0.0248888 0.0424271 0.0383719 0.0540142 0.0662407 0.0561381 0.0584047 0.0575535 0.0467028 0.0635273 0.0772109 0.093215 0.0810576 0.0768763 0.0800936 0.0713559 0.0878708
77 1 Mg -3.18391 14.1057 52.3125 1.2 1 0.0775364 0.0562789 0.0329817 0.0298484 0.0199757 0.0535234 0.0329929 0.0622028 0.0329801 0.0791076 0.0362563 0.0487846 0.0297163 0.0720405 0.031725 0.108384 0.0481446 0.107651 0.0427021 0.0894558
78 3 O 2.52432 15.503 50.4579 -1.2 1 0.197258 0.0915563 0.0218894 0.0140432 0.040565 0.0504132 0.058643 0.0505318 0.053073 0.0650683 0.0619034 0.070024 0.054891 0.0636509 0.0997761 0.0758841 0.0770028 0.0690466 0.0617665 0.0873011
79 1 Mg -1.76357 14.1358 55.0716 1.2 1 0.0146307 0.0155164 0.0196226 0.0303081 0.0139721 0.0235988 0.0216584 0.0324295 0.0402255 0.0603947 0.0560436 0.0526837 0.0621384 0.0675564 0.0633598 0.0778219 0.0721133 0.100758 0.0644808 0.0878973
80 2 Si -1.7464 12.0184 53.2663 2.4 1 0.0542865 0.0372734 0.0207094 0.0230375 0.0323502 0.0330376 0.04501 0.052284 0.0541355 0.0615902 0.0624082 0.0648783 0.079695 0.0523441 0.0721777 0.0627215 0.0717801 0.0837563 0.063651 0.0580526
81 3 O -1.78801 10.4774 53.2303 -1.2 1 0.0692752 0.0352982 0.0219877 0.0215859 0.0314005 0.0344549 0.0277831 0.0767621 0.0479212 0.058092 0.0474921 0.0686501 0.0594412 0.0753003 0.071427 0.0628128 0.051124 0.057564 0.0721761 0.0722256
82 3 O -1.21337 13.3381 46.4311 -1.2 1 0.520132 0.0679036 0.0700437 0.0406157 0.0558447 0.0584654 0.0588133 0.0704567 0.0794122 0.065511 0.045542 0.0711699 0.0686023 0.088288 0.120585 0.114352 0.106741 0.100197 0.0598553 0.0916144
83 3 O -2.99826 12.7772 53.894 -1.2 1 0.0442924 0.0266058 0.0266447 0.0274096 0.0265214 0.0278071 0.0508314 0.042749 0.0439585 0.0562843 0.0492075 0.045207 0.0560208 0.0606137 0.0791258 0.0641051 0.0700999 0.0577931 0.0648914 0.0714237
84 3 O -0.433419 12.7024 53.8749 -1.2 1 0.0455983 0.0213035 0.0322616 0.0199259 0.0277452 0.0187802 0.0396521 0.0534394 0.0474964 0.0556675 0.0548898 0.0459138 0.0570376 0.0728164 0.087391 0.0631232 0.0831921 0.064553 0.0704922 0.0711019
85 1 Mg -3.0977 21.2653 57.5105 1.2 1 0.0183367 0.0148839 0.0108856 0.0290715 0.0117347 0.0349042 0.0103153 0.0568507 0.0203927 0.0807063 0.0156497 0.0520683 0.020968 0.0685466 0.0212354 0.102441 0.0284371 0.111763 0.0373457 0.0947209
86 1 Mg -1.5831 21.1217 49.8405 1.2 1 0.230112 0.0810382 0.0227573 0.0431501 0.0276777 0.0519292 0.0558647 0.0534408 0.0488779 0.061269 0.0656885 0.0628857 0.0718767 0.0731702 0.101349 0.0813685 0.0748777 0.0958495 0.0839105 0.0818748
87 2 Si -1.09384 18.6291 47.9287 2.4 1 0.371023 0.0707848 0.0731676 0.0644916 0.0313631 0.0703252 0.0468794 0.0798886 0.0666831 0.0686669 0.0516866 0.07354 0.061734 0.0770894 0.100636 0.074995 0.105698 0.0934378 0.0889748 0.089603
88 3 O -1.02071 20.1985 47.9911 -1.2 1 0.365755 0.0699303 0.0493961 0.0632004 0.0456466 0.0919875 0.0629167 0.082353 0.0566657 0.0883786 0.0543476 0.0726689 0.0611803 0.081685 0.0807784 0.073349 0.09433 0.0776164 0.0745274 0.0679798
89 3 O -1.65002 17.5002 51.771 -1.2 1 0.1111 0.0592334 0.0329497 0.0268073 0.0335771 0.0538331 0.0576555 0.0500997 0.0652772 0.0525421 0.0567656 0.0486622 0.052835 0.0839018 0.101261 0.0767429 0.0786838 0.0449725 0.0758446 0.0724933
90 3 O -2.26174 18.0434 48.8281 -1.2 1 0.306273 0.0910452 0.0553921 0.0311717 0.0581299 0.0483475 0.0532526 0.0726999 0.0584635 0.0655578 0.070953 0.0592803 0.0545015 0.0580534 0.0769026 0.082905 0.0846137 0.0827475 0.0860182 0.0895999
91 1 Mg -0.0440435 16.5651 46.8269 1.2 1 0.481132 0.0217574 0.0812822 0.0325203 0.0664651 0.0868349 0.0786019 0.0857272 0.0690464 0.0836291 0.0850794 0.0623597 0.0633921 0.0774067 0.0759518 0.0937275 0.0940537 0.096279 0.0986618 0.104732
92 3 O 0.37001 17.9877 48.3925 -1.2 1 0.344991 0.078262 0.0570561 0.0408466 0.0471926 0.0622945 0.0410614 0.0675988 0.0650044 0.0715757 0.0603696 0.0566971 0.0653803 0.0875784 0.0946912 0.076317 0.0944645 0.103062 0.0807959 0.0850833
93 1 Mg 1.33808 16.6174 54.5524 1.2 1 0.0154031 0.0246487 0.0130157 0.0283329 0.0129219 0.0173481 0.0190967 0.0336555 0.046577 0.0618838 0.0643997 0.0502893 0.0581764 0.0659085 0.0603746 0.0847276 0.0732152 0.0872124 0.0787387 0.0767466
94 2 Si 1.48805 19.2843 56.4145 2.4 1 0.0233106 0.0110993 0.0245192 0.0338771 0.0282187 0.0312369 0.0385506 0.0433355 0.0580342 0.0526064 0.0470374 0.0652287 0.0687551 0.051591 0.0811817 0.0692359 0.06405 0.0930747 0.0548873 0.0551187
95 3 O 1.44027 17.7149 56.436 -1.2 1 0.0256319 0.00482545 0.0290604 0.0218335 0.0233138 0.0293873 0.0240103 0.0653268 0.0388465 0.0520752 0.0399025 0.0662884 0.0561129 0.0656624 0.0720815 0.0683487 0.0581591 0.0687591 0.0627649 0.0692401
96 3 O 1.45147 20.239 52.7294 -1.2 1 0.0703822 0.0487002 0.0246034 0.0175895 0.0270491 0.040407 0.0503204 0.0546683 0.0491248 0.0490089 0.0454808 0.0488875 0.0576591 0.067636 0.101487 0.0738198 0.0687482 0.061139 0.0713095 0.0607302
97 3 O 0.175242 19.9359 55.7222 -1.2 1 0.0110365 0.00850211 0.0296746 0.0184806 0.0203765 0.0210254 0.0405138 0.0386624 0.034508 0.0451567 0.0504378 0.0416966 0.0548459 0.0539497 0.090491 0.066386 0.0777524 0.0627764 0.066281 0.0661568
98 3 O 2.80511 19.9488 55.7514 -1.2 1 0.0196135 0.0152469 0.0233338 0.0215567 0.0223135 0.0181983 0.0461334 0.039995 0.0380749 0.0437821 0.0550722 0.0396536 0.055412 0.0541885 0.0834437 0.0736888 0.0671987 0.067361 0.0623066 0.0718391
99 1 Mg -0.126194 18.8651 52.2079 1.2 1 0.104746 0.0668146 0.0234325 0.0433504 0.0277547 0.0384429 0.0379903 0.0708708 0.0275976 0.0840728 0.0262807 0.0539244 0.032343 0.0757234 0.0312979 0.104871 0.0448908 0.105669 0.0428021 0.0993082
100 1 Mg 1.92402 18.5815 49.4545 1.2 1 0.258971 0.110863 0.036947 0.0436805 0.0354678 0.0357322 0.0694701 0.0465861 0.0695341 0.073588 0.0783796 0.0537913 0.0710272 0.067801 0.085919 0.0954737 0.0783763 0.0989832 0.0836232 0.0858401
101 2 Si 1.38106 20.9117 51.2443 2.4 1 0.129159 0.0873161 0.0380447 0.0381095 0.036767 0.048688 0.0557323 0.0453372 0.0539901 0.070043 0.0695745 0.0719356 0.0729583 0.0681125 0.0934283 0.0876097 0.0798043 0.0857505 0.0729956 0.0626318
102 3 O 1.48527 22.4795 51.3054 -1.2 1 0.144208 0.0748043 0.0257715 0.0322019 0.0334746 0.0391041 0.0409241 0.0712259 0.0487352 0.0597382 0.0490888 0.0782175 0.0659482 0.0676078 0.0771129 0.0687457 0.0758911 0.0740703 0.0666633 0.0691462
103 3 O 1.45236 19.8703 57.9004 -1.2 1 0.0110153 0.019934 0.0235493 0.0144152 0.0166469 0.0386487 0.0324549 0.0460034 0.0531781 0.0475706 0.0391581 0.046499 0.0522098 0.0661824 0.104193 0.0660415 0.064567 0.0587892 0.069598 0.0650959
104 3 O 0.0615419 20.2804 50.6669 -1.2 1 0.184698 0.0837892 0.0246898 0.0190782 0.0487423 0.0402344 0.0561301 0.0610237 0.0555647 0.0585777 0.0614048 0.0504969 0.0631677 0.0749352 0.0928837 0.0821442 0.0763028 0.0796791 0.0737716 0.088183
105 1 Mg -3.09665 18.8643 52.3122 1.2 1 0.0700362 0.0582459 0.0336406 0.0347446 0.0141578 0.0564481 0.0355044 0.0608391 0.0354736 0.0842171 0.0324756 0.0477743 0.0237826 0.0747931 0.0347542 0.109039 0.0460406 0.10479 0.0477573 0.0893966
106 3 O 2.61548 20.2646 50.4626 -1.2 1 0.190984 0.0977864 0.0214734 0.015742 0.0434689 0.0508303 0.0568628 0.0459195 0.0570822 0.0694223 0.0663292 0.0698821 0.0559467 0.0624926 0.101218 0.0769407 0.0760643 0.0695183 0.0633335 0.0850854
107 1 Mg -1.47002 18.9448 55.1267 1.2 1 0.0139227 0.0105445 0.0151646 0.0263688 0.00994773 0.01808 0.025349 0.0354581 0.0386721 0.0592377 0.0584162 0.0604553 0.0603495 0.0656924 0.0627973 0.0739538 0.0788333 0.0965091 0.0731841 0.0775946
108 2 Si -1.64477 16.7996 53.2539 2.4 1 0.0565992 0.0386921 0.0205729 0.0276426 0.0333721 0.0297852 0.0476569 0.0565513 0.0525753 0.0648797 0.0627149 0.0676792 0.0746817 0.0509654 0.0720066 0.0634191 0.0656581 0.0879464 0.0653478 0.0620554
109 3 O -1.59854 15.2598 53.1372 -1.2 1 0.069184 0.0430377 0.0214363 0.0246162 0.0311102 0.0306658 0.0303325 0.0738346 0.0435685 0.0587089 0.0473006 0.069181 0.0562309 0.0721762 0.0752186 0.0633417 0.0531494 0.0739541 0.0630904 0.0802809
110 3 O -1.12868 18.1227 46.4249 -1.2 1 0.522025 0.0664577 0.0727309 0.0519509 0.0574342 0.0651401 0.061247 0.0792595 0.0795895 0.0622066 0.0449258 0.0676803 0.0673162 0.0875108 0.116543 0.114925 0.10716 0.100679 0.0622606 0.0924617
111 3 O -2.91129 17.492 53.8656 -1.2 1 0.0404506 0.0219546 0.0329174 0.0209775 0.0187614 0.0299252 0.0506499 0.0465956 0.0425427 0.0562736 0.0492381 0.0438808 0.0554516 0.0683749 0.0790022 0.067735 0.0744988 0.0581836 0.0699732 0.073321
112 3 O -0.333604 17.492 53.9079 -1.2 1 0.0513573 0.0227462 0.025891 0.0219047 0.0270222 0.0205298 0.0407681 0.0446752 0.0431275 0.0555402 0.0553599 0.0451045 0.0558024 0.062407 0.0871323 0.0641161 0.0797782 0.0699207 0.0684717 0.0684099
113 1 Mg -2.95166 26.0188 57.3119 1.2 1 0.011529 0.0180626 0.00675316 0.0319721 0.00625179 0.0315246 0.00717106 0.0571622 0.0131883 0.079084 0.0129953 0.052072 0.0134006 0.0712859 0.0201311 0.103651 0.0214795 0.113775 0.0275626 0.0968439
114 1 Mg -1.48778 25.88 49.8402 1.2 1 0.226244 0.0845474 0.0233832 0.0438144 0.0292322 0.0528175 0.0553023 0.0539553 0.0501691 0.0616116 0.0632189 0.0649896 0.0742081 0.0756153 0.104024 0.0815794 0.0730697 0.0945835 0.0846046 0.0843202
115 2 Si -1.00491 23.3922 47.9274 2.4 1 0.370783 0.0696773 0.0731716 0.0683122 0.035352 0.0761183 0.0413175 0.0836324 0.0688697 0.0737802 0.0504424 0.0739463 0.0599682 0.0748987 0.094149 0.0777285 0.103397 0.0956174 0.0892429 0.0940671
116 3 O -0.927602 24.9615 47.9909 -1.2 1 0.365764 0.069461 0.0487751 0.0630488 0.045403 0.0916746 0.0637324 0.0828407 0.0568811 0.0883335 0.0543942 0.0716812 0.0610711 0.0824901 0.0809794 0.0733555 0.0945799 0.0773937 0.0750723 0.0686332
117 3 O -1.55795 22.2588 51.7696 -1.2 1 0.111898 0.0577764 0.03375 0.0275793 0.0328282 0.0546929 0.0584754 0.0504331 0.0648313 0.0518096 0.0564294 0.048155 0.0552561 0.082997 0.102159 0.0763052 0.0804582 0.0440051 0.0762556 0.0730723
118 3 O -2.17411 22.8111 48.8277 -1.2 1 0.301973 0.0944285 0.0578412 0.0304481 0.0590132 0.0494749 0.0567465 0.0736579 0.0618093 0.0677122 0.0706986 0.0596642 0.0557241 0.0582504 0.0798469 0.0881067 0.0879647 0.0788893 0.08303 0.0884456
119 1 Mg 0.0423997 21.3296 46.8225 1.2 1 0.481603 0.0223065 0.0806755 0.0328288 0.066292 0.0875673 0.0786053 0.0857868 0.0693713 0.0833282 0.0847436 0.0622193 0.0633368 0.0777174 0.0763621 0.0938023 0.0951675 0.096908 0.0983431 0.104921
120 3 O 0.458537 22.7495 48.3911 -1.2 1 0.348663 0.0730905 0.0540376 0.037596 0.0469004 0.0614589 0.0388607 0.0654926 0.0653634 0.0717667 0.0594825 0.0556129 0.0644421 0.0863238 0.0939672 0.0757415 0.0946514 0.103599 0.0805364 0.0841025
121 1 Mg 1.49508 21.3398 54.5175 1.2 1 0.00842068 0.0224085 0.0107653 0.0334796 0.0135063 0.0187353 0.0211204 0.0327332 0.0419623 0.062228 0.0563361 0.0547916 0.0607058 0.066554 0.0599575 0.0801796 0.0742354 0.0883579 0.0776267 0.0767052
122 2 Si 1.47916 23.9405 56.3972 2.4 1 0.0194618 0.0141043 0.0185004 0.0275882 0.032162 0.0307205 0.0415973 0.0389822 0.048868 0.0555103 0.0537791 0.0624732 0.069241 0.0588724 0.0829586 0.0714291 0.0570753 0.0961544 0.0555157 0.0583944
123 3 O 1.47946 22.3897 56.4893 -1.2 1 0.0422258 0.0149639 0.0138759 0.0209831 0.0167061 0.0238802 0.0216785 0.0632791 0.0383661 0.0499387 0.0416048 0.0649836 0.0515389 0.0653934 0.0784922 0.0664646 0.0535864 0.0745168 0.0579971 0.0767496
124 3 O 1.54441 24.9963 52.7297 -1.2 1 0.0708587 0.0424397 0.0294674 0.0221053 0.023346 0.041206 0.0534176 0.0574943 0.0534353 0.0464087 0.0464358 0.0489306 0.0571559 0.0653804 0.104321 0.0719048 0.0678167 0.0592103 0.0711746 0.0592367
125 3 O 0.192525 24.6595 55.7506 -1.2 1 0.0119276 0.0127985 0.0287877 0.0205381 0.0196797 0.0192021 0.0408352 0.0399736 0.0348255 0.043774 0.0537618 0.0412784 0.0541063 0.0558015 0.0904774 0.0690921 0.0744931 0.0580126 0.0639382 0.0744311
126 3 O 2.75341 24.6735 55.7205 -1.2 1 0.0190697 0.0102202 0.0308442 0.0228001 0.0235114 0.0176722 0.0473334 0.0439404 0.0370995 0.0448796 0.0529505 0.037078 0.0522403 0.0611814 0.0853414 0.0784285 0.073796 0.0617244 0.0650234 0.0672029