ITEM: TIMESTEP
39100
ITEM: NUMBER OF ATOMS
10500
ITEM: BOX BOUNDS xy xz yz pp pp pp
0	8.9688	2.9896
0	118.725	0
0	252.977	0
ITEM: ATOMS id type element xu yu zu q Q_1 Q_2 Q_3 Q_4 Q_5 Q_6 Q_7 Q_8 Q_9 Q_10 Q_11 Q_12 Q_13 Q_14 Q_15 Q_16 Q_17 Q_18 Q_19 Q_20 Q_21
1 1 Mg -3.72941 7.26343 57.6962 1.2 1 0.0103373 0.0235556 0.0194945 0.0214097 0.0232053 0.031102 0.0215005 0.0498476 0.0266319 0.0699728 0.0401755 0.0446181 0.0371231 0.0582846 0.0438088 0.0907767 0.0677988 0.0926288 0.0608785 0.0628989
2 1 Mg -1.82655 6.90154 50.0912 1.2 1 0.215285 0.0922449 0.0310699 0.0356557 0.0315126 0.0566728 0.046431 0.0445495 0.0555745 0.0717082 0.0535681 0.0743862 0.0722844 0.0655731 0.0965812 0.061417 0.0849051 0.0981657 0.0738718 0.0799682
3 2 Si -0.257935 3.96038 48.0876 2.4 1 0.374711 0.0685821 0.0718391 0.0336025 0.0616168 0.0510133 0.0718327 0.0763991 0.0593357 0.0757787 0.0577167 0.0718815 0.0629754 0.0851173 0.0971286 0.101428 0.109621 0.0919359 0.0742664 0.0716141
4 3 O -0.335812 5.46814 47.6264 -1.2 1 0.42692 0.0402379 0.0653022 0.0304876 0.0408763 0.0488057 0.0656248 0.0699308 0.086768 0.0753284 0.0908273 0.0742319 0.0696587 0.0678187 0.0924668 0.126278 0.0964848 0.0812963 0.0748874 0.0787259
5 3 O -2.03793 3.43377 51.8941 -1.2 1 0.107467 0.0632095 0.0265561 0.0245412 0.0265504 0.050691 0.060874 0.0493707 0.0437177 0.0543913 0.0705284 0.056745 0.0495432 0.0774613 0.0881171 0.0856974 0.0731087 0.0613528 0.0732996 0.0644441
6 3 O -1.54015 3.53929 48.9521 -1.2 1 0.305784 0.0865853 0.030858 0.0455377 0.033502 0.0491311 0.0711942 0.0459467 0.0523721 0.0636674 0.0748584 0.067348 0.0702642 0.0662246 0.0750526 0.113875 0.0849711 0.0796944 0.0741329 0.0859483
7 1 Mg 1.82954 2.54582 47.1376 1.2 1 0.466308 0.0219148 0.0793639 0.0502258 0.0353572 0.0827474 0.0604372 0.0589538 0.0766519 0.0891265 0.0678651 0.0759888 0.0826895 0.0862455 0.0714447 0.0973773 0.101038 0.103009 0.106471 0.101081
8 3 O 1.22989 3.66364 48.7877 -1.2 1 0.31852 0.0730523 0.0208962 0.0472815 0.0323716 0.0645739 0.07918 0.0319019 0.0809201 0.0782068 0.0518944 0.0799486 0.0847798 0.0675272 0.0646259 0.0879653 0.0937296 0.0913276 0.0954528 0.0909598
9 1 Mg 0.890952 2.19812 54.4812 1.2 1 0.00633312 0.0263948 0.0158889 0.0321533 0.0243362 0.028983 0.0228237 0.0402065 0.0377486 0.0581274 0.0550805 0.0535861 0.0629986 0.0708209 0.0699929 0.0657679 0.067668 0.0945003 0.0688049 0.0711871
10 2 Si 0.944759 5.02839 56.4212 2.4 1 0.0138795 0.0145957 0.0228466 0.0287623 0.0247423 0.0278262 0.0397754 0.0501269 0.0573584 0.0488212 0.05566 0.0590822 0.0674194 0.0503394 0.0777627 0.0722107 0.0616882 0.100142 0.0607275 0.0567911
11 3 O 0.803881 3.47589 56.5834 -1.2 1 0.0275918 0.028894 0.0147616 0.0281535 0.0197673 0.0254088 0.0231242 0.0630535 0.0445832 0.0570579 0.0395299 0.0691908 0.0556563 0.0590122 0.0710595 0.0712531 0.0626282 0.0685462 0.0604258 0.0737222
12 3 O 1.10813 6.07342 52.8172 -1.2 1 0.0805415 0.0451554 0.0317825 0.0184715 0.0215194 0.0486885 0.0448577 0.0550071 0.0481498 0.0446503 0.0569435 0.0524193 0.0704508 0.0733057 0.083109 0.0812041 0.0582448 0.0701631 0.0664593 0.068076
13 3 O -0.282398 5.73681 55.7903 -1.2 1 0.0202905 0.0195335 0.0214236 0.0224321 0.0234161 0.0201298 0.0395711 0.0449958 0.0400062 0.0497844 0.0525774 0.0437329 0.063416 0.0520334 0.0915999 0.0703041 0.0762526 0.064083 0.0622987 0.0645627
14 3 O 2.3345 5.63092 55.769 -1.2 1 0.0169699 0.0186821 0.0259529 0.0183024 0.0228057 0.0231427 0.0466524 0.0452449 0.0480198 0.0458727 0.0605921 0.039948 0.052308 0.0716641 0.0747276 0.08245 0.0681606 0.0741869 0.0624121 0.0630654
15 1 Mg -0.459401 4.67631 52.2426 1.2 1 0.0865375 0.0659891 0.0374287 0.0392541 0.0289996 0.0297399 0.0440717 0.0567181 0.0396998 0.0825336 0.0424995 0.0611712 0.0508682 0.0760987 0.046234 0.101231 0.051375 0.0947466 0.0569385 0.0897567
16 1 Mg 2.79456 3.9971 49.9987 1.2 1 0.218241 0.099597 0.0313321 0.0413122 0.042797 0.0625587 0.0554538 0.0554373 0.0760697 0.0624167 0.0629376 0.0580902 0.06477 0.0772372 0.0870203 0.0750453 0.0737984 0.091858 0.0862438 0.0685394
17 2 Si 1.16169 6.59457 51.2556 2.4 1 0.137255 0.0888592 0.0377733 0.0301519 0.0481445 0.0466997 0.0491762 0.0437288 0.0625589 0.0682731 0.0657766 0.0724314 0.0754964 0.0677118 0.0869153 0.0878545 0.0785477 0.0862658 0.0706837 0.0639236
18 3 O 1.28989 8.18905 51.2909 -1.2 1 0.132049 0.0981509 0.0246705 0.0390699 0.0340679 0.0462944 0.0456836 0.072035 0.0438572 0.069506 0.0470607 0.0929256 0.068963 0.0691489 0.0780355 0.0722347 0.0717764 0.0638675 0.068376 0.0712427
19 3 O 0.96568 5.80065 57.9144 -1.2 1 0.00683935 0.0105363 0.0276786 0.0197575 0.019321 0.0327358 0.0369331 0.0428098 0.0521475 0.0410226 0.0436342 0.0508237 0.050354 0.0652271 0.103936 0.0647391 0.0688364 0.0467914 0.0675066 0.0620763
20 3 O -0.184847 6.06029 50.6845 -1.2 1 0.181494 0.0862816 0.0189802 0.0325195 0.0369306 0.0316537 0.0497739 0.0602151 0.0565928 0.0583749 0.0642844 0.0833236 0.0671368 0.0583864 0.0910609 0.0680374 0.0816178 0.0788029 0.061773 0.0739275
21 1 Mg -3.49704 4.67769 52.6661 1.2 1 0.0638677 0.0537994 0.0286805 0.0291954 0.010726 0.0440799 0.0340353 0.0546327 0.0551217 0.0681978 0.0524332 0.0503896 0.0501442 0.0500499 0.0614643 0.0959365 0.0815034 0.0718529 0.0798557 0.0645803
22 3 O 2.48581 5.93312 50.6539 -1.2 1 0.191181 0.0916298 0.031555 0.0196189 0.0328951 0.0465239 0.0591391 0.0593972 0.0459678 0.0695036 0.0447265 0.0659006 0.0582239 0.0616406 0.10277 0.0712027 0.0796258 0.0660649 0.0786951 0.0708892
23 1 Mg -1.97737 4.89197 55.2357 1.2 1 0.0310055 0.0170535 0.0223386 0.0299841 0.0195149 0.022949 0.0250673 0.0337901 0.0385915 0.0531178 0.0621096 0.0594918 0.0506889 0.0607722 0.0633109 0.0769563 0.0864335 0.081352 0.0708431 0.0612078
24 2 Si -2.00112 2.51916 53.321 2.4 1 0.0456678 0.0372779 0.0240877 0.0155306 0.0247649 0.0178205 0.0486622 0.0391423 0.0509772 0.0723554 0.0662245 0.0651258 0.0731366 0.0540096 0.0761813 0.0619524 0.0756898 0.0811831 0.0755588 0.0751603
25 3 O -2.01423 1.03777 53.2551 -1.2 1 0.0565684 0.035262 0.0238911 0.026753 0.0219112 0.0350379 0.0269344 0.061192 0.0519756 0.0665992 0.0469663 0.0583367 0.0627753 0.0708581 0.0767708 0.064457 0.058381 0.0666031 0.0735348 0.0684358
26 3 O -0.0467762 2.97103 46.8385 -1.2 1 0.4978 0.0377729 0.0878836 0.0293024 0.0794693 0.067354 0.0814612 0.0726865 0.072811 0.0783417 0.0804889 0.0751562 0.0966009 0.0882307 0.0892539 0.0891282 0.0989054 0.0971025 0.105234 0.111059
27 3 O -3.31683 3.2371 54.0418 -1.2 1 0.0152397 0.0369308 0.0296159 0.0194869 0.0274917 0.0267617 0.04237 0.042126 0.057098 0.0528229 0.0620603 0.0438907 0.0628154 0.069478 0.0786878 0.0682904 0.0684253 0.0634836 0.0709304 0.06338
28 3 O -0.770938 3.18179 54.0032 -1.2 1 0.0362505 0.0292282 0.031124 0.0170622 0.0187955 0.026601 0.0391396 0.0510925 0.0418274 0.0613365 0.0596356 0.044315 0.0527937 0.0750154 0.074711 0.069036 0.0862994 0.0715618 0.064562 0.0603237
29 1 Mg -3.5843 11.97 57.4672 1.2 1 0.00817326 0.0148197 0.0205847 0.0279315 0.0121691 0.0328404 0.0132827 0.0584097 0.0203055 0.0755167 0.0214082 0.0489914 0.0294687 0.0656423 0.0342286 0.101177 0.0481257 0.103179 0.0353657 0.0815195
30 1 Mg -1.75014 11.5838 49.8362 1.2 1 0.236952 0.0756464 0.02611 0.0375713 0.0326477 0.0499875 0.0492575 0.0556672 0.0459988 0.0555013 0.0631087 0.0626197 0.0705373 0.06669 0.107005 0.0894611 0.0648779 0.093255 0.08493 0.0777977
31 2 Si -1.18003 9.02138 47.9309 2.4 1 0.366997 0.0721792 0.0707653 0.0533321 0.0428003 0.0608053 0.0731678 0.078643 0.071859 0.066707 0.0586395 0.0658572 0.0688965 0.0805386 0.101765 0.0636952 0.0986232 0.0921588 0.104107 0.0871691
32 3 O -1.23224 10.5991 47.9811 -1.2 1 0.375012 0.0656049 0.0593607 0.0537764 0.0516367 0.0711109 0.0671499 0.0755763 0.0537457 0.0856811 0.0683733 0.0631604 0.0738501 0.0807518 0.0824366 0.0685022 0.0911045 0.0814237 0.0645893 0.0725759
33 3 O -1.79016 8.01447 51.8693 -1.2 1 0.110326 0.0621754 0.0334173 0.0356642 0.0309826 0.0480124 0.062548 0.0549675 0.056952 0.0516615 0.0555161 0.0552208 0.0647288 0.0845116 0.0932529 0.0761717 0.0745614 0.0498996 0.0710913 0.0684773
34 3 O -2.30986 8.37215 48.8528 -1.2 1 0.309593 0.0912007 0.0680647 0.0247412 0.0546505 0.0627831 0.0660248 0.0659307 0.0587524 0.0637656 0.0778387 0.068621 0.0597844 0.0631736 0.0793015 0.0918428 0.0978288 0.0802821 0.0761743 0.0959584
35 1 Mg 0.154883 7.08234 46.8007 1.2 1 0.492783 0.0285305 0.0819617 0.0381105 0.0631344 0.0732504 0.0597833 0.0728251 0.0717713 0.0794062 0.0873203 0.0758491 0.0779926 0.0784037 0.0709242 0.0957893 0.0946733 0.105516 0.111169 0.101886
36 3 O 0.325447 8.50934 48.3809 -1.2 1 0.34704 0.0806375 0.0608674 0.0429352 0.0354653 0.053385 0.0366647 0.0583959 0.0642948 0.064174 0.0715355 0.0636941 0.0791177 0.0926214 0.0908132 0.0678675 0.0912897 0.10092 0.0852616 0.0870871
37 1 Mg 1.18861 7.09658 54.6474 1.2 1 0.00881276 0.0346724 0.012754 0.0285606 0.0189621 0.0291641 0.0256988 0.0366363 0.0404309 0.0519915 0.0612002 0.051088 0.0562728 0.0698926 0.0699513 0.083504 0.0659303 0.0823875 0.0836014 0.0810635
38 2 Si 0.885337 9.87275 56.452 2.4 1 0.0117059 0.0209613 0.0269884 0.0182844 0.0323229 0.0381448 0.0380599 0.0428043 0.0502688 0.0468277 0.0527851 0.0627147 0.0662699 0.0546424 0.0737659 0.07582 0.0603574 0.0940297 0.0673595 0.0503721
39 3 O 0.86054 8.3456 56.5777 -1.2 1 0.0183872 0.0230726 0.020078 0.0158309 0.0282218 0.0269141 0.0256491 0.0673676 0.0437615 0.0482664 0.0451434 0.0673906 0.0623152 0.0610175 0.0760542 0.0590637 0.0685474 0.0693325 0.0548615 0.0686103
40 3 O 1.28624 10.7248 52.7351 -1.2 1 0.0719796 0.0399913 0.0321546 0.0272337 0.021187 0.0511316 0.0508765 0.0459415 0.047625 0.0463732 0.05403 0.0502802 0.0607026 0.0720192 0.096116 0.072713 0.0755812 0.0538378 0.072769 0.0558104
41 3 O -0.510598 10.4852 55.8916 -1.2 1 0.0127634 0.012849 0.0231826 0.0195298 0.0199254 0.0204792 0.0372932 0.0415507 0.0436102 0.0499051 0.0489359 0.0407402 0.0618782 0.0602728 0.0881023 0.0775795 0.0663767 0.0730728 0.0645631 0.0733989
42 3 O 2.24666 10.5544 55.697 -1.2 1 0.00772039 0.0151028 0.0253208 0.0249298 0.0237309 0.0227488 0.0484524 0.0386288 0.0450797 0.0441897 0.0545867 0.0380029 0.0549036 0.0595242 0.093427 0.0819343 0.0647871 0.0704303 0.0619385 0.0599667
43 1 Mg -0.262694 9.34741 52.2523 1.2 1 0.114847 0.0641157 0.0203432 0.0397478 0.0336804 0.0441801 0.0334124 0.0734212 0.0236984 0.0895472 0.0256766 0.0562653 0.0348437 0.0725692 0.0385629 0.109227 0.0489477 0.0917169 0.0425735 0.105942
44 1 Mg 1.87648 9.01537 49.4629 1.2 1 0.269618 0.0987472 0.0419305 0.037107 0.0332052 0.0482499 0.0717135 0.0475919 0.0750466 0.0620104 0.084642 0.0544933 0.0832091 0.0670892 0.0852956 0.0940484 0.0888912 0.0940431 0.0809703 0.0937609
45 2 Si 1.21415 11.3799 51.2378 2.4 1 0.138669 0.0844754 0.0344428 0.0372053 0.0436333 0.0473118 0.0554633 0.0395933 0.0561879 0.0629251 0.0732953 0.0748212 0.0785508 0.0668544 0.0907477 0.0936121 0.0709421 0.0854306 0.078485 0.054006
46 3 O 1.31634 12.9512 51.3023 -1.2 1 0.121537 0.0882003 0.0317929 0.0399052 0.0364576 0.0450741 0.0425944 0.0729763 0.054454 0.0695049 0.0428024 0.0818708 0.065815 0.0687218 0.0783574 0.0716694 0.0780249 0.0723879 0.0770768 0.0740114
47 3 O 0.945718 10.5368 57.941 -1.2 1 0.00400582 0.0171217 0.0213632 0.0174051 0.0213757 0.0338274 0.0367021 0.0422714 0.0501616 0.0460124 0.0450208 0.0467631 0.053585 0.0648491 0.104419 0.0672419 0.0676674 0.0538857 0.069854 0.059407
48 3 O -0.115718 10.7564 50.681 -1.2 1 0.178638 0.0913772 0.0231398 0.0276169 0.0437873 0.0326295 0.0519605 0.06849 0.0523894 0.0554359 0.0582569 0.0594801 0.0697952 0.0777549 0.0978789 0.0831632 0.0742555 0.0842032 0.0743734 0.0780433
49 1 Mg -3.26386 9.35564 52.3622 1.2 1 0.0841658 0.0528995 0.0284096 0.0305607 0.0169385 0.0543479 0.0362 0.0581714 0.0312416 0.081215 0.0334782 0.0539292 0.0323101 0.0645861 0.0352763 0.112698 0.0454411 0.10516 0.0505163 0.0871267
50 3 O 2.45216 10.7265 50.4558 -1.2 1 0.203912 0.091819 0.0215006 0.018573 0.0319273 0.0628971 0.0571371 0.044323 0.0540882 0.0694789 0.0664681 0.0684042 0.0524731 0.0704564 0.0916002 0.0793334 0.0771337 0.079096 0.0594204 0.0816543
51 1 Mg -2.1189 9.50502 55.2755 1.2 1 0.0177665 0.0155088 0.0217605 0.0269239 0.0128354 0.0241615 0.0245474 0.0334151 0.0361331 0.0526228 0.056924 0.057153 0.062482 0.05911 0.0720727 0.0659078 0.0822776 0.0827629 0.0701105 0.0715791
52 2 Si -1.76857 7.33216 53.4482 2.4 1 0.0468828 0.0418808 0.0248358 0.0296546 0.0304598 0.0314896 0.0407025 0.052141 0.0588785 0.0631614 0.066756 0.0602835 0.0744158 0.0522068 0.0660487 0.0787339 0.0651903 0.0744796 0.0676513 0.0561891
53 3 O -1.82648 5.77695 53.3659 -1.2 1 0.0536643 0.035389 0.0276221 0.0190852 0.016782 0.0332087 0.0311248 0.06818 0.0433802 0.0651804 0.0308836 0.0742859 0.0580933 0.0740728 0.0677929 0.0643002 0.066057 0.0546444 0.0744992 0.0542935
54 3 O -1.19417 8.46968 46.4488 -1.2 1 0.524911 0.0661585 0.0671136 0.0511118 0.0662894 0.0562938 0.0783802 0.054173 0.0756166 0.0711102 0.0569511 0.0508896 0.0697342 0.0983494 0.130236 0.113249 0.0974014 0.0955781 0.0827933 0.0820625
55 3 O -3.04896 8.09032 54.107 -1.2 1 0.0233279 0.027092 0.0243604 0.0197511 0.0273656 0.0274943 0.0469887 0.0406782 0.0440495 0.0553877 0.0552106 0.038459 0.0647168 0.0612151 0.0848502 0.0770862 0.0663377 0.0689757 0.0676479 0.0625348
56 3 O -0.526043 8.06633 54.0189 -1.2 1 0.052477 0.0282641 0.0190063 0.0270825 0.0295582 0.0273451 0.0374934 0.0456578 0.0415916 0.0541924 0.0626605 0.0434956 0.0614901 0.056108 0.0841573 0.0614983 0.0808041 0.067986 0.0718446 0.0738042
57 1 Mg -3.37526 16.6492 57.4225 1.2 1 0.00221364 0.0142558 0.0135629 0.0296148 0.0137556 0.0322323 0.0146402 0.054834 0.0146941 0.0845857 0.0161204 0.0528444 0.0198296 0.0758284 0.0244084 0.102093 0.0338223 0.114937 0.0289103 0.087686
58 1 Mg -1.6714 16.3544 49.8412 1.2 1 0.236005 0.0772518 0.0267193 0.0372478 0.0342516 0.047334 0.0516373 0.0554139 0.0473552 0.0600389 0.0605188 0.0655743 0.0728022 0.0704378 0.103677 0.0844941 0.0711845 0.0939724 0.0836803 0.0843647
59 2 Si -1.18567 13.8526 47.9314 2.4 1 0.374307 0.0680931 0.0770766 0.061039 0.0321332 0.0682663 0.0468872 0.0796613 0.0630962 0.0663141 0.0529627 0.0724338 0.058671 0.076086 0.0982064 0.0759634 0.104448 0.0975363 0.0909073 0.0903726
60 3 O -1.09664 15.4205 47.9915 -1.2 1 0.366023 0.0702308 0.048987 0.0627862 0.0446365 0.0918098 0.0632438 0.0822345 0.0555684 0.0889273 0.0539154 0.0721836 0.0618773 0.0836244 0.0826234 0.0751249 0.0952116 0.0779836 0.0750216 0.0696325
61 3 O -1.73493 12.7491 51.7772 -1.2 1 0.114072 0.0576263 0.0333999 0.0333861 0.0316454 0.0527902 0.0633467 0.0494829 0.0673903 0.0536119 0.0563273 0.053123 0.0493773 0.082479 0.10211 0.0777781 0.0797084 0.0517714 0.0687048 0.0691331
62 3 O -2.36115 13.2717 48.8238 -1.2 1 0.303637 0.0971379 0.0599617 0.0249493 0.0569438 0.0481597 0.0622142 0.0724615 0.0631961 0.0674819 0.0728018 0.0629287 0.0580817 0.0593147 0.0836854 0.0888829 0.0879507 0.0781303 0.0838967 0.0899132
63 1 Mg -0.159928 11.7639 46.8533 1.2 1 0.482258 0.0258603 0.0780695 0.033289 0.0526313 0.0967337 0.0697031 0.0872649 0.0822351 0.0847294 0.0856019 0.0700522 0.0719833 0.0915209 0.077249 0.0859599 0.0964442 0.0967414 0.0989922 0.105969
64 3 O 0.2623 13.1866 48.413 -1.2 1 0.347062 0.0745493 0.0510205 0.0373592 0.0421572 0.0548561 0.0400276 0.0662378 0.0695647 0.0699112 0.0626436 0.0609463 0.0637038 0.0863949 0.0978368 0.083076 0.0915127 0.0943471 0.0843369 0.0892257
65 1 Mg 1.23331 12.0837 54.4519 1.2 1 0.0157119 0.0286004 0.0247188 0.0327427 0.0169548 0.0262551 0.0220018 0.038755 0.0374939 0.060453 0.0625487 0.060161 0.0559025 0.0637471 0.0752272 0.0781119 0.0774019 0.0724821 0.0915496 0.0513186
66 2 Si 0.891695 14.4908 56.3891 2.4 1 0.00613457 0.0178334 0.0269361 0.0275182 0.0402978 0.0246419 0.0388894 0.0419478 0.0455428 0.0574513 0.0616524 0.05972 0.0738682 0.0565669 0.080609 0.0839707 0.0655059 0.0845069 0.0713565 0.0472354
67 3 O 0.885568 12.9593 56.5574 -1.2 1 0.0146033 0.0134168 0.0208805 0.0295892 0.0237209 0.0276235 0.0241012 0.0638875 0.0406757 0.0539439 0.0419459 0.0659117 0.0569236 0.066073 0.0781259 0.066916 0.0719643 0.068281 0.0669289 0.0598992
68 3 O 1.36565 15.4813 52.729 -1.2 1 0.0678332 0.0404535 0.0324683 0.0201635 0.0286503 0.0474276 0.0477214 0.0538984 0.0488763 0.0472878 0.048572 0.0480882 0.0538559 0.0701361 0.103978 0.0738355 0.0738012 0.0597474 0.0698511 0.0638178
69 3 O -0.315449 15.2771 55.8711 -1.2 1 0.0191172 0.0134708 0.018526 0.017103 0.0204434 0.01816 0.0369826 0.0418479 0.0444565 0.0441682 0.0529351 0.0393256 0.0502656 0.0557238 0.0984355 0.0733994 0.0749875 0.0696796 0.0626195 0.0802543
70 3 O 2.25831 15.0417 55.7037 -1.2 1 0.00676427 0.0216063 0.0295801 0.0209441 0.0272927 0.0219728 0.0444801 0.04523 0.0359632 0.0478501 0.0494049 0.041 0.0566226 0.0745176 0.0750472 0.0823367 0.0808158 0.0656841 0.0620912 0.0677971
71 1 Mg -0.206989 14.1049 52.2121 1.2 1 0.099834 0.0646487 0.0295115 0.04651 0.0259813 0.045591 0.03486 0.0713675 0.0234519 0.0855605 0.0248369 0.0574282 0.0249627 0.0789264 0.0302748 0.107174 0.0366566 0.107089 0.0352198 0.102344
72 1 Mg 1.82591 13.8102 49.4556 1.2 1 0.267195 0.10184 0.0318893 0.0374477 0.0341089 0.0357899 0.0662069 0.0450739 0.0660718 0.0769951 0.0814382 0.0595528 0.0741836 0.0722423 0.0814527 0.0873546 0.0766997 0.0993903 0.0890257 0.0851594
73 2 Si 1.29285 16.1518 51.2434 2.4 1 0.130026 0.0898788 0.0366636 0.0292268 0.040452 0.0498259 0.0557546 0.0399571 0.0520681 0.0621561 0.0675559 0.0714135 0.0695702 0.0688428 0.094421 0.0817642 0.0806858 0.0946971 0.072567 0.0585091
74 3 O 1.39496 17.7199 51.3047 -1.2 1 0.130382 0.0852788 0.0245735 0.0370766 0.0374337 0.0398593 0.0441067 0.0741176 0.050807 0.0639046 0.0452981 0.0830296 0.0657527 0.0700479 0.0787599 0.0693638 0.0746955 0.0778385 0.0678053 0.0703034
75 3 O 1.07343 15.0868 57.8968 -1.2 1 0.0162042 0.0174998 0.0224364 0.0255974 0.0172341 0.037365 0.0363557 0.041893 0.0563695 0.0460234 0.0457834 0.0427119 0.0534094 0.074724 0.0937047 0.0676696 0.0693923 0.0574651 0.0745562 0.0583252
76 3 O -0.0269106 15.5178 50.6688 -1.2 1 0.176863 0.0914744 0.0221006 0.0302503 0.0459074 0.039059 0.0570633 0.0613393 0.0603197 0.0589561 0.0621854 0.0507401 0.0631594 0.0752571 0.0921638 0.0823545 0.0737972 0.0878357 0.0690598 0.0824974
77 1 Mg -3.18391 14.1057 52.3125 1.2 1 0.0791145 0.0551474 0.0305381 0.0318739 0.018294 0.0551755 0.0325742 0.0623881 0.0282676 0.0757089 0.0336733 0.0488284 0.0248369 0.0758677 0.0286315 0.113617 0.0391473 0.101545 0.0353121 0.0834319
78 3 O 2.52432 15.503 50.4579 -1.2 1 0.200705 0.0888839 0.0253527 0.015801 0.0344357 0.058348 0.0600983 0.0464937 0.052893 0.0658959 0.0642725 0.06367 0.0567869 0.0630036 0.0965803 0.0789337 0.0728667 0.0666235 0.063474 0.0850868
79 1 Mg -1.93263 14.2515 55.1976 1.2 1 0.0127279 0.0198334 0.0212303 0.0277037 0.0157754 0.0271712 0.0226248 0.0343241 0.0377795 0.0576311 0.0589165 0.0606166 0.0609019 0.0609426 0.0710477 0.0730927 0.0760322 0.0861046 0.0727912 0.0747486
80 2 Si -1.72363 12.0951 53.1412 2.4 1 0.0520945 0.0370171 0.0249336 0.0340031 0.0378259 0.0349988 0.0498005 0.0529734 0.0609397 0.0604586 0.0588365 0.0712712 0.0720692 0.0556742 0.0788071 0.0622093 0.0706824 0.0802731 0.0649206 0.0560236
81 3 O -1.77452 10.5494 53.0671 -1.2 1 0.0702621 0.0463467 0.0254437 0.0217414 0.02858 0.030395 0.0370302 0.0669201 0.0454977 0.0545208 0.0438798 0.0708039 0.0701322 0.0790885 0.0752433 0.0713492 0.0553561 0.0776765 0.048617 0.0766845
82 3 O -1.21337 13.3381 46.4311 -1.2 1 0.520137 0.0677818 0.0698415 0.0407916 0.0561169 0.0581115 0.0580492 0.0701582 0.0795528 0.0661413 0.0468885 0.0712847 0.0673261 0.0874013 0.120718 0.114596 0.10642 0.100031 0.0607882 0.091896
83 3 O -2.96246 12.8435 53.8615 -1.2 1 0.0303439 0.0257871 0.0356117 0.0260641 0.029727 0.0268814 0.0562213 0.0385725 0.0474371 0.0439997 0.0524326 0.0441487 0.0533281 0.0665513 0.0828151 0.0698484 0.0741854 0.0527314 0.0699136 0.067675
84 3 O -0.397882 12.844 53.7532 -1.2 1 0.040555 0.0312564 0.021334 0.0273337 0.028068 0.0167853 0.0433625 0.0547 0.0505328 0.0543259 0.0551607 0.0508149 0.0630094 0.0585117 0.101456 0.0653732 0.0807445 0.0688781 0.0703781 0.0714013
85 1 Mg -3.12279 21.2604 57.4354 1.2 1 0.0105081 0.0159068 0.00718602 0.0336448 0.00756378 0.0352741 0.0127472 0.0549665 0.0123027 0.0800418 0.0164265 0.0516843 0.0143017 0.072007 0.0187049 0.107264 0.0226798 0.106158 0.0277263 0.0948338
86 1 Mg -1.5831 21.1217 49.8405 1.2 1 0.229665 0.0816279 0.0240709 0.0418946 0.0333236 0.0490287 0.0540069 0.0557179 0.049898 0.0605797 0.0625115 0.0653681 0.0732884 0.0727157 0.101504 0.0818473 0.0732098 0.0931158 0.0843542 0.0828766
87 2 Si -1.09384 18.6291 47.9287 2.4 1 0.378682 0.0618578 0.0694063 0.0656942 0.0298788 0.0684717 0.0452494 0.0796235 0.0624652 0.0688463 0.0540618 0.0721767 0.0580824 0.072651 0.0979087 0.0755208 0.104709 0.0928119 0.0883894 0.0894894
88 3 O -1.02071 20.1985 47.9911 -1.2 1 0.365396 0.0707883 0.0503756 0.0627025 0.0454529 0.0916995 0.0636478 0.0827215 0.0559381 0.0881674 0.0555264 0.0731451 0.0614207 0.0822124 0.0808279 0.0738845 0.0950279 0.0774634 0.0742048 0.0690622
89 3 O -1.65002 17.5002 51.771 -1.2 1 0.110658 0.0595066 0.0341679 0.0270028 0.0360773 0.0525475 0.0597528 0.0498748 0.0654328 0.0514717 0.0569214 0.0500051 0.0541209 0.0850318 0.0940795 0.0765948 0.0830755 0.0484984 0.0707792 0.0717139
90 3 O -2.26174 18.0434 48.8281 -1.2 1 0.301862 0.0956457 0.05671 0.0287592 0.0589458 0.0491719 0.0574092 0.0738688 0.0611389 0.0686035 0.0696308 0.0607267 0.0575223 0.0616352 0.0790444 0.08647 0.0872443 0.0816051 0.084147 0.0891645
91 1 Mg -0.0440435 16.5651 46.8269 1.2 1 0.487999 0.0223914 0.0757654 0.0323208 0.0587326 0.0797252 0.0692915 0.0814367 0.0737088 0.0876995 0.08684 0.0627912 0.0633401 0.0801235 0.0776814 0.0913883 0.0931789 0.0977073 0.101964 0.109562
92 3 O 0.37001 17.9877 48.3925 -1.2 1 0.346866 0.077861 0.0579352 0.0373243 0.0464926 0.059242 0.043122 0.0647016 0.0642386 0.0746968 0.0623696 0.0568483 0.0657246 0.0856561 0.0928246 0.0786123 0.0948183 0.100964 0.0816792 0.0881845
93 1 Mg 1.4547 16.6101 54.4245 1.2 1 0.0121802 0.029896 0.0167569 0.0305556 0.0126665 0.0229357 0.0260133 0.0412238 0.0393257 0.055752 0.0513032 0.0565163 0.0641556 0.0613386 0.0736347 0.0725373 0.0810024 0.0827471 0.0773874 0.070653
94 2 Si 1.20991 19.248 56.3526 2.4 1 0.00411998 0.021761 0.0242959 0.029938 0.0375973 0.0342886 0.0360837 0.0417102 0.0522034 0.0532409 0.0591959 0.0556875 0.0725049 0.0576076 0.0821694 0.0730697 0.0630592 0.0918057 0.0604305 0.0505986
95 3 O 1.34688 17.6979 56.417 -1.2 1 0.0207851 0.0176285 0.0203523 0.0196674 0.0269821 0.0279629 0.0293478 0.0671035 0.042277 0.0522735 0.0515378 0.0693652 0.0699345 0.06212 0.0793952 0.065574 0.0579263 0.0710844 0.069334 0.0694346
96 3 O 1.45147 20.239 52.7294 -1.2 1 0.0701845 0.0423671 0.0284816 0.0213539 0.0239859 0.0471543 0.0512706 0.0521091 0.0510624 0.0474623 0.0461444 0.0530095 0.0589443 0.0690047 0.103437 0.0691981 0.072949 0.059987 0.0737761 0.0593352
97 3 O -0.106611 19.9947 55.6705 -1.2 1 0.015361 0.0246426 0.0217062 0.0206437 0.0154692 0.0237328 0.0390479 0.0457347 0.0437572 0.0499309 0.0535345 0.0399402 0.0588534 0.0490175 0.0947169 0.0790961 0.0741474 0.0611654 0.0582926 0.0775005
98 3 O 2.48943 19.8978 55.6289 -1.2 1 0.0152979 0.0194235 0.0291076 0.0166143 0.0221625 0.0235483 0.0460037 0.0489392 0.040934 0.0423415 0.0530785 0.0392223 0.0530085 0.0709205 0.0732678 0.0802948 0.0748494 0.0688435 0.0643142 0.0637581
99 1 Mg -0.126194 18.8651 52.2079 1.2 1 0.0989236 0.0656763 0.0272038 0.0444663 0.0289907 0.0446737 0.0339132 0.0739485 0.0266676 0.0866508 0.0222065 0.0599611 0.0272281 0.0762934 0.0309586 0.10409 0.0415705 0.10769 0.0384108 0.106223
100 1 Mg 1.92402 18.5815 49.4545 1.2 1 0.260476 0.10925 0.0358938 0.0426788 0.031304 0.0333081 0.0718874 0.0437079 0.0710914 0.0728098 0.0793036 0.0573136 0.0747701 0.0712847 0.088685 0.0938154 0.0757283 0.0945677 0.0854622 0.089022
101 2 Si 1.38106 20.9117 51.2443 2.4 1 0.128335 0.0880737 0.0365217 0.0329378 0.0391034 0.0504088 0.0532597 0.0430486 0.0565696 0.0668888 0.0670317 0.0716251 0.0709001 0.0665725 0.0939001 0.084985 0.0801049 0.088562 0.0719598 0.0587992
102 3 O 1.48527 22.4795 51.3054 -1.2 1 0.145537 0.0686587 0.0310303 0.0341749 0.0329858 0.0433008 0.0396613 0.0655963 0.0580542 0.0716133 0.0397464 0.0770304 0.0692029 0.0636174 0.0723061 0.0666364 0.0779378 0.0712693 0.0671147 0.0736878
103 3 O 1.26931 19.9032 57.7135 -1.2 1 0.016338 0.0143644 0.0211654 0.0214474 0.0127645 0.0350165 0.0362044 0.0412863 0.063565 0.0402377 0.0430917 0.0403799 0.0543989 0.0663326 0.100501 0.0773767 0.0721422 0.0524133 0.0769451 0.0575289
104 3 O 0.0615419 20.2804 50.6669 -1.2 1 0.186479 0.0886493 0.0205391 0.027487 0.0439762 0.0318295 0.0579341 0.0625909 0.0570279 0.0581004 0.0592519 0.0474345 0.0630498 0.0729408 0.0874253 0.0819787 0.0769622 0.0803801 0.0760844 0.0885879
105 1 Mg -3.09665 18.8643 52.3122 1.2 1 0.0772236 0.058537 0.0276289 0.0328811 0.0170953 0.0545704 0.0327593 0.0612891 0.0299642 0.0784641 0.0355214 0.0497707 0.0269494 0.0714167 0.0317632 0.114353 0.0417557 0.102489 0.0399265 0.0856259
106 3 O 2.61548 20.2646 50.4626 -1.2 1 0.196177 0.0944873 0.0254768 0.0159676 0.0378179 0.0557881 0.0615407 0.04776 0.0533962 0.0643454 0.0686329 0.0642916 0.0532413 0.0611982 0.100324 0.0797374 0.0734323 0.0661251 0.0623685 0.0834261
107 1 Mg -1.75393 18.9839 55.1049 1.2 1 0.0153099 0.0201921 0.0199718 0.0299668 0.01539 0.0256255 0.0230831 0.0389375 0.0379554 0.0554723 0.0617263 0.059001 0.058248 0.0620356 0.066848 0.0784202 0.0753189 0.0971802 0.0714711 0.0768795
108 2 Si -1.50751 16.8104 53.171 2.4 1 0.0454463 0.0478763 0.0202688 0.0313942 0.0357268 0.0366374 0.0449802 0.0526818 0.0585133 0.0626757 0.0595638 0.0672947 0.0722847 0.0531319 0.0698163 0.0665752 0.0751784 0.0824933 0.0682634 0.0633945
109 3 O -1.67725 15.2295 53.1814 -1.2 1 0.0455579 0.057791 0.0168188 0.0256983 0.030662 0.0402969 0.026694 0.0756368 0.0371562 0.0676997 0.0367103 0.0668899 0.0589211 0.0774965 0.076689 0.064047 0.0617977 0.078211 0.0658989 0.0679331
110 3 O -1.12868 18.1227 46.4249 -1.2 1 0.521998 0.0661009 0.0724123 0.0516793 0.0573392 0.0650176 0.0612389 0.0796971 0.0803542 0.0629603 0.0451244 0.0672529 0.0669145 0.0879744 0.117337 0.115183 0.106441 0.0999731 0.0628733 0.0936357
111 3 O -2.84757 17.4179 53.895 -1.2 1 0.0229463 0.0320421 0.0353485 0.0244159 0.03689 0.0260217 0.0528693 0.0427184 0.052024 0.0536148 0.0508265 0.0407542 0.0569801 0.0777888 0.0724838 0.0783158 0.0698436 0.0641947 0.0695357 0.0736768
112 3 O -0.257143 17.4385 53.8581 -1.2 1 0.029925 0.0330877 0.0257102 0.0301275 0.0297155 0.0220169 0.0476262 0.0531689 0.0514576 0.0612963 0.0510406 0.0427381 0.0631844 0.0713518 0.0844631 0.0762341 0.0828636 0.0706088 0.0598433 0.073357
113 1 Mg -3.04829 26.0886 57.367 1.2 1 0.0145818 0.0137407 0.0092127 0.0326838 0.0105081 0.0330147 0.0122391 0.0574909 0.00810017 0.0833156 0.0147261 0.0528674 0.0240684 0.0737427 0.0238883 0.100445 0.0239117 0.11492 0.0252205 0.0957518
114 1 Mg -1.48778 25.88 49.8402 1.2 1 0.229821 0.0821905 0.0249217 0.0408374 0.0305834 0.0515831 0.0535406 0.0530336 0.0506241 0.0586135 0.0622519 0.0670354 0.0738247 0.0728907 0.10175 0.0811417 0.0715955 0.094626 0.0840368 0.0830456
115 2 Si -1.00491 23.3922 47.9274 2.4 1 0.370865 0.0695613 0.0729313 0.0685581 0.0352764 0.0758955 0.0410138 0.0829323 0.0680293 0.073472 0.0508504 0.073898 0.0603858 0.0761023 0.0950316 0.0772163 0.10298 0.0969387 0.0902831 0.0933842
116 3 O -0.927602 24.9615 47.9909 -1.2 1 0.365749 0.0695271 0.0488978 0.0627821 0.0452754 0.0917252 0.0641347 0.0834507 0.0573213 0.0881422 0.0539248 0.072558 0.062262 0.0825988 0.0808333 0.0739338 0.0959779 0.0772775 0.0741799 0.0692164
117 3 O -1.55795 22.2588 51.7696 -1.2 1 0.11101 0.0587448 0.0337793 0.026873 0.0345915 0.0547824 0.0578311 0.0505066 0.0652565 0.0547915 0.0517014 0.0496794 0.053239 0.0828513 0.101433 0.0727513 0.0826002 0.0472293 0.070605 0.0691748
118 3 O -2.17411 22.8111 48.8277 -1.2 1 0.297094 0.100794 0.0617775 0.0273342 0.0616947 0.0508835 0.0580437 0.0728403 0.0613901 0.0671371 0.0709084 0.0613754 0.0571252 0.05948 0.0808619 0.0897843 0.0880674 0.0794145 0.0829643 0.0889506
119 1 Mg 0.0423997 21.3296 46.8225 1.2 1 0.484583 0.0197119 0.0790183 0.0310265 0.0617055 0.0832462 0.0722325 0.0835952 0.0717 0.0833624 0.0838387 0.062862 0.0649799 0.0788372 0.0759309 0.093908 0.0978647 0.0993823 0.09954 0.106123
120 3 O 0.458537 22.7495 48.3911 -1.2 1 0.344631 0.0791442 0.0566882 0.0394193 0.0445542 0.0599076 0.0429409 0.0670691 0.0663391 0.072568 0.0614731 0.0569384 0.0649756 0.0870052 0.0952433 0.0778373 0.0949031 0.10273 0.0831135 0.0870831
121 1 Mg 1.52674 21.3615 54.4856 1.2 1 0.00892435 0.0270834 0.0162772 0.0284643 0.0139732 0.020895 0.0292134 0.0384401 0.047831 0.0593536 0.0544591 0.0575866 0.0626536 0.0659983 0.0687758 0.0737598 0.0759198 0.0858277 0.0757919 0.0732025
122 2 Si 1.38898 24.0063 56.449 2.4 1 0.0107831 0.0176109 0.0227176 0.0326344 0.0294904 0.0286609 0.0427024 0.0432829 0.0507441 0.0562086 0.0485847 0.0667457 0.067081 0.0565376 0.0783221 0.0709375 0.0654879 0.0915102 0.0527176 0.0582877
123 3 O 1.40239 22.4656 56.4959 -1.2 1 0.0206103 0.0183703 0.0235203 0.0211087 0.0242117 0.0284963 0.0281983 0.067053 0.0382562 0.0479066 0.0440636 0.0685591 0.0574087 0.0644608 0.0778426 0.06761 0.0580272 0.0712962 0.0613116 0.0814478
124 3 O 1.54441 24.9963 52.7297 -1.2 1 0.0697193 0.0417001 0.0302675 0.0218886 0.0252848 0.0446554 0.0489777 0.0556759 0.0496521 0.0469163 0.0417873 0.0503577 0.0591711 0.0660482 0.102622 0.0728266 0.0709637 0.0592162 0.0711356 0.0632439
125 3 O 0.0362726 24.58 55.8252 -1.2 1 0.00998806 0.0159467 0.0305639 0.022714 0.0197074 0.0264706 0.0422785 0.0457636 0.039561 0.0455494 0.0579646 0.0432202 0.053165 0.0593349 0.0834304 0.0756207 0.0735768 0.0567283 0.0690068 0.0775564
126 3 O 2.68962 24.6912 55.721 -1.2 1 0.0136097 0.0218881 0.0304431 0.0169469 0.0227013 0.023387 0.0459076 0.04248 0.0457346 0.0417025 0.0517121 0.0429258 0.053595 0.061768 0.0868279 0.0707686 0.0728877 0.0634838 0.0645592 0.0666817