ITEM: TIMESTEP
15700
ITEM: NUMBER OF ATOMS
10500
ITEM: BOX BOUNDS xy xz yz pp pp pp
0	8.9688	2.9896
0	118.725	0
0	252.977	0
ITEM: ATOMS id type element xu yu zu q Q_1 Q_2 Q_3 Q_4 Q_5 Q_6 Q_7 Q_8 Q_9 Q_10 Q_11 Q_12 Q_13 Q_14 Q_15 Q_16 Q_17 Q_18 Q_19 Q_20 Q_21
1 1 Mg -3.49127 7.04046 57.5461 1.2 1 0.006794 0.0181233 0.00645153 0.0335303 0.00611462 0.0333904 0.00616938 0.0547796 0.00849655 0.0800131 0.0105863 0.0520641 0.0141344 0.0738368 0.0165108 0.102935 0.0194888 0.117102 0.0195513 0.0968866
2 1 Mg -1.82655 6.90154 50.0912 1.2 1 0.217206 0.0888971 0.0335135 0.0344972 0.0323041 0.05654 0.0457259 0.044387 0.0566288 0.0710147 0.0558748 0.072421 0.0705618 0.0662978 0.099987 0.0602415 0.0843736 0.0975647 0.0756768 0.0795042
3 2 Si -0.257935 3.96038 48.0876 2.4 1 0.367 0.0792229 0.0798189 0.0311687 0.062281 0.0549373 0.0738279 0.0780457 0.0601723 0.081065 0.0562444 0.0652057 0.0605578 0.0840051 0.0968098 0.0996749 0.109966 0.0903547 0.0698495 0.0739036
4 3 O -0.335812 5.46814 47.6264 -1.2 1 0.427361 0.0386762 0.0638439 0.0318187 0.0404654 0.0477164 0.0653057 0.0706608 0.0872359 0.0758245 0.0924979 0.0767464 0.0719516 0.0690189 0.0909583 0.124219 0.0940028 0.0806016 0.0772416 0.0793428
5 3 O -2.03793 3.43377 51.8941 -1.2 1 0.111993 0.0594779 0.0306328 0.0228902 0.0225462 0.0539456 0.0580389 0.0478466 0.0496017 0.0595957 0.0605896 0.0534615 0.0507893 0.0781472 0.0884506 0.0816762 0.0624221 0.0574972 0.0764867 0.0680808
6 3 O -1.54015 3.53929 48.9521 -1.2 1 0.296774 0.0978328 0.0376324 0.051285 0.0315007 0.0493405 0.0772162 0.0521458 0.0527587 0.0619666 0.0760156 0.0678766 0.0706379 0.0668003 0.0730702 0.11286 0.0857226 0.0784254 0.0737954 0.0902184
7 1 Mg 1.82954 2.54582 47.1376 1.2 1 0.462134 0.0225329 0.0856121 0.0548026 0.0402003 0.0833959 0.0611995 0.0593954 0.073542 0.0862244 0.0685135 0.0785885 0.0820893 0.084213 0.0705769 0.0966269 0.100379 0.104117 0.105369 0.0968192
8 3 O 1.22989 3.66364 48.7877 -1.2 1 0.318641 0.0728194 0.0206415 0.0483925 0.0313015 0.0644177 0.0802785 0.0332995 0.0814812 0.0791465 0.052325 0.0768282 0.083167 0.0690902 0.0663863 0.0871636 0.0928876 0.0900937 0.0950478 0.0932835
9 1 Mg 1.10169 2.44661 54.6506 1.2 1 0.00491644 0.0249459 0.0186374 0.0368677 0.0259096 0.0325699 0.0205279 0.0327186 0.0470486 0.0575675 0.0557812 0.0520795 0.0605942 0.0672111 0.0659136 0.0906999 0.070105 0.0776465 0.0757541 0.0674047
10 2 Si 0.865205 4.97957 56.5865 2.4 1 0.0148247 0.0187459 0.0263291 0.0326851 0.0310677 0.0282737 0.0397381 0.0424431 0.0478609 0.0552298 0.0596005 0.0621501 0.0689717 0.0553282 0.0861422 0.0645311 0.0641298 0.0929529 0.0638238 0.0532115
11 3 O 0.895765 3.43516 56.628 -1.2 1 0.0146276 0.011975 0.0165898 0.0266149 0.0213069 0.023961 0.0336899 0.0660965 0.0417133 0.0538297 0.0376611 0.065556 0.0587517 0.061492 0.071373 0.0649441 0.0528486 0.0771393 0.0592364 0.077911
12 3 O 1.10813 6.07342 52.8172 -1.2 1 0.0805574 0.0428126 0.0316243 0.0215108 0.0226028 0.0453718 0.0449955 0.0542934 0.0515779 0.042521 0.0578706 0.0504435 0.0713983 0.0667763 0.0845563 0.088916 0.0604999 0.0673113 0.0686424 0.0718478
13 3 O -0.412804 5.7697 55.9593 -1.2 1 0.0157744 0.0185225 0.0208387 0.0232187 0.0267068 0.020931 0.0378126 0.0418046 0.0435811 0.0359457 0.0580078 0.0373705 0.0528462 0.0534821 0.089278 0.0718738 0.0756756 0.0637013 0.0613352 0.0736428
14 3 O 2.16522 5.63044 55.7966 -1.2 1 0.0195341 0.016166 0.0336249 0.0139267 0.0252246 0.0197075 0.0376115 0.0480367 0.0405366 0.046204 0.0561445 0.0388798 0.0495297 0.0689954 0.0810578 0.0724415 0.0794501 0.0672564 0.0676193 0.0645201
15 1 Mg -0.459401 4.67631 52.2426 1.2 1 0.0923995 0.0645371 0.0350541 0.0378817 0.0317782 0.0294014 0.0377372 0.0633671 0.0431664 0.0832334 0.0454697 0.0598213 0.0466606 0.0770891 0.0454953 0.0987338 0.0527559 0.0940829 0.0629269 0.0880936
16 1 Mg 2.79456 3.9971 49.9987 1.2 1 0.222765 0.0938726 0.0289969 0.0402571 0.0433895 0.0611837 0.0563066 0.0554236 0.0787009 0.0640593 0.0640308 0.057273 0.0641767 0.0728362 0.0843951 0.0775525 0.0735809 0.0900784 0.0851154 0.0712848
17 2 Si 1.16169 6.59457 51.2556 2.4 1 0.139894 0.0843594 0.0397372 0.0302851 0.0424418 0.0501388 0.0465258 0.0450162 0.0595446 0.0649312 0.0649579 0.0730592 0.0742796 0.067703 0.0828459 0.0881505 0.0776318 0.090496 0.0748556 0.0632303
18 3 O 1.28989 8.18905 51.2909 -1.2 1 0.132764 0.0944295 0.0197068 0.0353725 0.039543 0.043618 0.0437995 0.0788688 0.051837 0.0718436 0.0456527 0.0908932 0.0694546 0.0685669 0.0801984 0.0722459 0.0709901 0.0666715 0.0723603 0.0711735
19 3 O 1.02095 5.72445 58.0521 -1.2 1 0.00900225 0.0218668 0.0245767 0.0182409 0.0212598 0.0326672 0.0297927 0.0476534 0.0511625 0.0445831 0.0398754 0.0500045 0.0501563 0.0681965 0.102404 0.0695155 0.0684682 0.0633349 0.0663163 0.06021
20 3 O -0.184847 6.06029 50.6845 -1.2 1 0.179087 0.0891397 0.0189779 0.0325286 0.0367177 0.0285662 0.0543643 0.0570858 0.0583757 0.0617823 0.0649457 0.0800474 0.0660132 0.0597333 0.0926878 0.0692352 0.0823496 0.0804082 0.0625496 0.0777775
21 1 Mg -3.49704 4.67769 52.6661 1.2 1 0.0691172 0.0530185 0.025453 0.0256209 0.016366 0.0425819 0.0335623 0.0636343 0.0479327 0.0665579 0.0503309 0.0502327 0.0511411 0.0527399 0.0594891 0.0905709 0.0826312 0.0753032 0.0716886 0.0686162
22 3 O 2.48581 5.93312 50.6539 -1.2 1 0.189864 0.0905674 0.0344312 0.0213102 0.0323798 0.0506653 0.0608562 0.0588623 0.0475677 0.0678061 0.0496929 0.0636154 0.0577729 0.0634666 0.102946 0.068412 0.0764337 0.0672954 0.076503 0.0771063
23 1 Mg -2.05988 4.73734 55.2984 1.2 1 0.0165557 0.0163201 0.0238936 0.0269182 0.0166975 0.0220252 0.0206427 0.0343617 0.0372602 0.0553139 0.0576495 0.0594143 0.0596836 0.0574447 0.0683797 0.0676169 0.0861673 0.0894661 0.0677561 0.0749975
24 2 Si -1.89314 2.66212 53.3235 2.4 1 0.0343599 0.0393898 0.0259071 0.0221848 0.0241905 0.0241521 0.0452174 0.0430004 0.0692438 0.0622652 0.0582044 0.065083 0.0779904 0.0484151 0.0681336 0.0577573 0.0727263 0.0855993 0.0835339 0.0549876
25 3 O -1.90296 1.0791 53.2816 -1.2 1 0.0491153 0.0319291 0.0265667 0.0241411 0.0212626 0.0382884 0.0262245 0.0660881 0.0532903 0.0644748 0.045615 0.0662958 0.0622779 0.0684939 0.0774155 0.0723795 0.0605739 0.0663521 0.0714982 0.06188
26 3 O -0.0467762 2.97103 46.8385 -1.2 1 0.497839 0.0371781 0.0871587 0.0298877 0.0805455 0.0672869 0.0802029 0.0714601 0.0727461 0.0798112 0.0822008 0.0759629 0.0974941 0.0893037 0.088602 0.0881837 0.099195 0.0967397 0.103641 0.109565
27 3 O -3.13282 3.25041 54.1278 -1.2 1 0.0178249 0.0227284 0.0310726 0.0215206 0.0203681 0.027495 0.0340674 0.0421102 0.0465674 0.052481 0.0628347 0.0394128 0.061048 0.0631654 0.0757562 0.0707628 0.0626759 0.0734733 0.0715918 0.0587763
28 3 O -0.662356 3.4303 53.974 -1.2 1 0.0284181 0.0324855 0.029246 0.023592 0.0233603 0.0240024 0.0416972 0.0516021 0.041433 0.0533038 0.059202 0.0451495 0.0542947 0.0582877 0.0955237 0.0629651 0.0787192 0.0711728 0.0563513 0.0643813
29 1 Mg -3.32571 11.8289 57.3278 1.2 1 0.0125723 0.0209381 0.00470751 0.0370954 0.00600413 0.037403 0.00793645 0.0551856 0.0160142 0.0775825 0.0139454 0.0501122 0.0155535 0.0700381 0.0228644 0.107336 0.0303364 0.111293 0.034721 0.0930483
30 1 Mg -1.75014 11.5838 49.8362 1.2 1 0.230081 0.0813677 0.0266048 0.0411651 0.0300524 0.0544226 0.0494733 0.0551432 0.0472194 0.0586497 0.0657243 0.0616783 0.0718521 0.0720214 0.109763 0.0879066 0.0637013 0.0938378 0.0862846 0.0793063
31 2 Si -1.18003 9.02138 47.9309 2.4 1 0.367378 0.0712941 0.069738 0.0545428 0.0415804 0.060389 0.0730496 0.0779781 0.0702196 0.0667313 0.0587149 0.0664689 0.0685613 0.0805581 0.101895 0.0645593 0.100164 0.0922446 0.103226 0.0868316
32 3 O -1.23224 10.5991 47.9811 -1.2 1 0.379486 0.0589035 0.0550329 0.0572267 0.0502998 0.0691778 0.0682012 0.0782646 0.0589292 0.0875067 0.0709121 0.0641342 0.0718926 0.0792024 0.0812773 0.068385 0.0896699 0.0802235 0.0659801 0.0731586
33 3 O -1.79016 8.01447 51.8693 -1.2 1 0.111639 0.0607953 0.0339566 0.0340377 0.0289431 0.0480915 0.0613806 0.0556925 0.0561991 0.0539113 0.0540517 0.0531535 0.0627437 0.0863497 0.0911987 0.0774513 0.0734603 0.0518314 0.0733487 0.0692755
34 3 O -2.30986 8.37215 48.8528 -1.2 1 0.310475 0.0887958 0.0664479 0.0246858 0.0550923 0.0632866 0.0648623 0.0649527 0.0569201 0.0655594 0.079318 0.0686524 0.0606133 0.0641409 0.0780019 0.0906607 0.0982875 0.0796464 0.0751856 0.0946339
35 1 Mg 0.154883 7.08234 46.8007 1.2 1 0.492857 0.0286994 0.0816414 0.0382017 0.06334 0.0732155 0.0599038 0.0731563 0.0720274 0.0792105 0.086982 0.0760437 0.0784797 0.0784891 0.0705398 0.0947059 0.0929394 0.105118 0.111978 0.102036
36 3 O 0.325447 8.50934 48.3809 -1.2 1 0.345272 0.0837749 0.0669756 0.0452013 0.036458 0.0505603 0.0414476 0.0615871 0.0629493 0.0656073 0.0762876 0.065686 0.07891 0.0936352 0.0913912 0.0688822 0.0918951 0.100351 0.0838603 0.0880141
37 1 Mg 1.11043 7.11213 54.6355 1.2 1 0.0110036 0.0311483 0.0133992 0.0329369 0.0195105 0.0249264 0.0218497 0.0321167 0.0412279 0.056991 0.0564536 0.0572626 0.0521019 0.0632053 0.0599367 0.0892446 0.0672584 0.0815063 0.0775245 0.0805028
38 2 Si 1.15599 9.74015 56.4119 2.4 1 0.0245583 0.019833 0.0161778 0.0249484 0.0313215 0.0330895 0.0375677 0.0426784 0.0476771 0.0610643 0.0580343 0.0645868 0.0719078 0.0584346 0.0744894 0.0746669 0.0594222 0.0966098 0.0577509 0.0586341
39 3 O 1.09074 8.2265 56.5223 -1.2 1 0.0253376 0.020055 0.0196136 0.0217501 0.0241761 0.027992 0.0197628 0.0672576 0.0300742 0.0555869 0.0406837 0.0737607 0.061548 0.0654508 0.0740674 0.0663221 0.0614813 0.0719717 0.0605073 0.0711667
40 3 O 1.28624 10.7248 52.7351 -1.2 1 0.0777936 0.0371097 0.0342756 0.0234036 0.0288337 0.0475862 0.047677 0.0500779 0.0462314 0.0477676 0.0488282 0.049029 0.0573516 0.0699221 0.100739 0.0783799 0.0723116 0.0513262 0.0756005 0.0585455
41 3 O -0.205587 10.417 55.8113 -1.2 1 0.00733447 0.013776 0.0256953 0.0225121 0.0140608 0.0227566 0.0415331 0.0467593 0.0384193 0.0459099 0.0545724 0.0413122 0.0523753 0.0589259 0.0911285 0.0754113 0.0719356 0.0623426 0.0618109 0.0740604
42 3 O 2.3785 10.4474 55.715 -1.2 1 0.0107285 0.0158733 0.0266568 0.0189507 0.0234457 0.0211222 0.0476058 0.0415521 0.0383795 0.0459055 0.051281 0.0402558 0.0550539 0.0616915 0.0771961 0.0781423 0.0727202 0.071938 0.0631102 0.0601961
43 1 Mg -0.262694 9.34741 52.2523 1.2 1 0.115047 0.0616157 0.0192915 0.0426481 0.0339498 0.0451706 0.0374127 0.0715139 0.0276988 0.0874944 0.0272517 0.0586027 0.0366183 0.0738295 0.0404085 0.103538 0.0470785 0.0942898 0.0486576 0.102794
44 1 Mg 1.87648 9.01537 49.4629 1.2 1 0.276172 0.0942433 0.0440233 0.037107 0.0248623 0.0534883 0.0649038 0.0447776 0.0786382 0.0621607 0.0809872 0.0559544 0.0820168 0.0670204 0.0822062 0.091465 0.0858338 0.0953768 0.0814542 0.0904347
45 2 Si 1.21415 11.3799 51.2378 2.4 1 0.130549 0.0859705 0.0422008 0.0362796 0.0397959 0.0529111 0.0531698 0.0405188 0.0556914 0.0644707 0.0738959 0.073067 0.0768263 0.0685843 0.091273 0.0885873 0.0774255 0.0826793 0.0779836 0.0571885
46 3 O 1.31634 12.9512 51.3023 -1.2 1 0.127461 0.0892251 0.0229741 0.0342447 0.0318941 0.0421805 0.0468792 0.0741181 0.056276 0.0676295 0.0431874 0.0817112 0.0710205 0.0640999 0.0733469 0.0692037 0.0774684 0.0734979 0.0738625 0.0705916
47 3 O 1.12513 10.4229 57.9442 -1.2 1 0.00851965 0.0219327 0.0253484 0.0153296 0.0123588 0.0322057 0.0391818 0.0460237 0.0496885 0.0468066 0.0421316 0.0439804 0.0537448 0.0672016 0.1043 0.0714031 0.0716113 0.051091 0.0741633 0.0622856
48 3 O -0.115718 10.7564 50.681 -1.2 1 0.192092 0.0813972 0.0229831 0.0232699 0.0405643 0.0313513 0.0505187 0.0676582 0.0514561 0.0547887 0.0600301 0.0504487 0.062557 0.072655 0.09116 0.079945 0.0736683 0.0769231 0.0783484 0.0828408
49 1 Mg -3.26386 9.35564 52.3622 1.2 1 0.0824273 0.053105 0.0267368 0.030314 0.0169631 0.0530275 0.0358187 0.0578124 0.0294557 0.083249 0.0306932 0.0492787 0.0323232 0.0669572 0.0347772 0.111619 0.0460768 0.106602 0.0477311 0.0909069
50 3 O 2.45216 10.7265 50.4558 -1.2 1 0.200304 0.0891987 0.0205413 0.0134943 0.0362685 0.0570564 0.0609592 0.0498982 0.0566719 0.0671989 0.0647568 0.0696768 0.0529503 0.0673704 0.0968867 0.0819809 0.0716155 0.0751212 0.0569043 0.0884466
51 1 Mg -1.79005 9.40806 55.1718 1.2 1 0.0237718 0.0171224 0.0204593 0.0245747 0.0121383 0.0269801 0.0274598 0.0331008 0.0421729 0.0559657 0.0581456 0.0540671 0.0620593 0.0643803 0.0629578 0.0761399 0.0778409 0.0974199 0.0624121 0.0810166
52 2 Si -1.79531 7.31423 53.408 2.4 1 0.0514207 0.0446058 0.027249 0.0302191 0.0313147 0.0254466 0.0435702 0.048845 0.0574236 0.0637432 0.0639185 0.0607953 0.0747874 0.053088 0.0707323 0.073761 0.0672307 0.0796601 0.0661762 0.0583175
53 3 O -1.86486 5.80229 53.3018 -1.2 1 0.0610179 0.0338168 0.0261275 0.017091 0.0133012 0.0334775 0.0310574 0.0622469 0.0444089 0.0676854 0.0374394 0.077568 0.0557829 0.0778341 0.0605294 0.065411 0.0637696 0.0617641 0.0717597 0.0638183
54 3 O -1.19417 8.46968 46.4488 -1.2 1 0.524989 0.0662979 0.0666019 0.051132 0.0666796 0.0561832 0.0783175 0.0548079 0.0760923 0.0712436 0.0569597 0.0508029 0.0694103 0.0981132 0.130311 0.113405 0.0970992 0.0951915 0.0832504 0.0829
55 3 O -3.03375 8.03925 54.0808 -1.2 1 0.0377327 0.0247812 0.0261815 0.0205813 0.0217361 0.0258353 0.0461038 0.0407476 0.0434496 0.0569357 0.0550552 0.0468434 0.0583141 0.0577766 0.0741214 0.069754 0.0660104 0.0659443 0.071521 0.0684196
56 3 O -0.493212 8.05186 53.9953 -1.2 1 0.0409876 0.0342757 0.0293109 0.0325299 0.0272376 0.0283848 0.0392297 0.0533689 0.0405699 0.0518207 0.0637486 0.048655 0.06031 0.0611405 0.0890989 0.0594238 0.0821205 0.0683886 0.0673672 0.0754898
57 1 Mg -3.20244 16.4441 57.5273 1.2 1 0.0116383 0.0175672 0.00570495 0.0354678 0.00627344 0.0419929 0.00993843 0.0579467 0.0153433 0.0835902 0.0155693 0.0511045 0.017118 0.0695221 0.0200174 0.108937 0.0270357 0.111051 0.0297181 0.0969354
58 1 Mg -1.6714 16.3544 49.8412 1.2 1 0.229399 0.0824215 0.0242998 0.0436845 0.0297398 0.0531224 0.0537007 0.054406 0.0483424 0.06115 0.0618815 0.0634704 0.07366 0.0759768 0.105883 0.0849192 0.0732157 0.0937728 0.0848592 0.0837238
59 2 Si -1.18567 13.8526 47.9314 2.4 1 0.375747 0.0652 0.0724981 0.0667193 0.0275034 0.0657763 0.0505468 0.0822892 0.0589166 0.0663572 0.0552451 0.0720301 0.0582644 0.0747401 0.0981875 0.0739892 0.104174 0.097237 0.0880943 0.0894884
60 3 O -1.09664 15.4205 47.9915 -1.2 1 0.366002 0.0704271 0.0493044 0.0622855 0.0453864 0.0925598 0.0635504 0.0827186 0.0579439 0.0898757 0.055175 0.0732857 0.0608289 0.0814175 0.081278 0.0738981 0.093746 0.0765687 0.0740649 0.0680292
61 3 O -1.73493 12.7491 51.7772 -1.2 1 0.117038 0.0571794 0.030652 0.0283897 0.034169 0.0514364 0.061876 0.0501231 0.0670768 0.0528791 0.0564046 0.0494326 0.0536359 0.0844628 0.100316 0.0745558 0.0812167 0.0497778 0.0712982 0.0724515
62 3 O -2.36115 13.2717 48.8238 -1.2 1 0.301896 0.0977683 0.0622157 0.0264048 0.0591182 0.0517946 0.0592499 0.0700037 0.0586507 0.0661332 0.075053 0.0655037 0.0610092 0.0578695 0.0838495 0.0872349 0.0868197 0.0774754 0.0819903 0.0906868
63 1 Mg -0.159928 11.7639 46.8533 1.2 1 0.482301 0.0248531 0.0774232 0.0336793 0.052889 0.0962624 0.07018 0.0891051 0.0834613 0.0839341 0.0840262 0.0688176 0.0718227 0.0917545 0.0774641 0.0864044 0.0972831 0.0977369 0.0998882 0.106541
64 3 O 0.2623 13.1866 48.413 -1.2 1 0.339491 0.0848349 0.0570809 0.0406323 0.0433205 0.0569883 0.0424729 0.0663897 0.0691723 0.071783 0.0629082 0.0602451 0.0653604 0.0881553 0.0975209 0.0810933 0.0934155 0.097317 0.0831401 0.0882037
65 1 Mg 1.27961 11.8116 54.5563 1.2 1 0.00687033 0.0308847 0.020378 0.0304197 0.0163009 0.0204381 0.0263028 0.0356987 0.0460169 0.0606833 0.0562929 0.0554554 0.0576496 0.0679317 0.0651316 0.0823471 0.0736755 0.0882073 0.0759448 0.0784749
66 2 Si 1.19515 14.4658 56.4029 2.4 1 0.0145268 0.0197868 0.0169207 0.0295496 0.0319062 0.0328723 0.0389635 0.0398782 0.0505798 0.0569578 0.0510896 0.0641217 0.0716938 0.0543368 0.0818127 0.0736771 0.0619462 0.0900791 0.0585788 0.0615157
67 3 O 1.23123 12.8897 56.4979 -1.2 1 0.0203916 0.0200603 0.016388 0.0215297 0.0209233 0.0300289 0.0201912 0.074822 0.0352566 0.0548119 0.0423591 0.07014 0.0572249 0.0654492 0.0749581 0.0686549 0.0601473 0.0702551 0.063615 0.0761884
68 3 O 1.36565 15.4813 52.729 -1.2 1 0.0723938 0.0391184 0.0302823 0.0225223 0.0258939 0.0396655 0.0501283 0.0567605 0.0537731 0.046634 0.0447502 0.053572 0.0557949 0.0616257 0.104614 0.0735941 0.0721029 0.0585057 0.0713245 0.0605227
69 3 O -0.0543193 15.1767 55.6977 -1.2 1 0.017919 0.0206093 0.0246527 0.0214896 0.0157964 0.0244337 0.0385548 0.0484043 0.039984 0.0518779 0.0499851 0.0438522 0.0556528 0.0531498 0.0900598 0.0752357 0.0700374 0.0647305 0.0562273 0.0722102
70 3 O 2.47418 15.0375 55.7251 -1.2 1 0.0252165 0.0137522 0.0294836 0.015282 0.0225809 0.0202657 0.0414588 0.0433138 0.0381437 0.0484531 0.0521672 0.0378421 0.0519685 0.0765438 0.0718779 0.0794566 0.0787339 0.0645494 0.0671055 0.0697385
71 1 Mg -0.206989 14.1049 52.2121 1.2 1 0.104868 0.064924 0.0243173 0.0415372 0.0299702 0.043126 0.0344562 0.0735751 0.0249519 0.0877648 0.0245461 0.0577846 0.0294382 0.0755811 0.0298139 0.103358 0.0418967 0.107647 0.0412867 0.103454
72 1 Mg 1.82591 13.8102 49.4556 1.2 1 0.269162 0.09992 0.0319838 0.0381666 0.0310912 0.0337624 0.0681739 0.0436756 0.0713108 0.0763064 0.0789485 0.0595404 0.0758653 0.0725531 0.0839989 0.0891959 0.0746464 0.0969805 0.0928098 0.0860979
73 2 Si 1.29285 16.1518 51.2434 2.4 1 0.12459 0.0885633 0.0409723 0.0380109 0.0395507 0.0510408 0.0512668 0.0458718 0.0556219 0.0667 0.0664163 0.0737606 0.0717909 0.0657965 0.0917822 0.0839264 0.0752741 0.0875319 0.0713431 0.061086
74 3 O 1.39496 17.7199 51.3047 -1.2 1 0.128532 0.0883453 0.0200916 0.0306035 0.0383384 0.0369961 0.0455244 0.073906 0.0538064 0.062 0.0441962 0.0842986 0.071244 0.0667734 0.0766489 0.0696345 0.075703 0.0747918 0.067479 0.0713516
75 3 O 1.2374 15.1129 57.8984 -1.2 1 0.00923802 0.0100115 0.0242444 0.0235943 0.0136895 0.036305 0.0358519 0.0440724 0.0555978 0.0416732 0.048842 0.0451348 0.0532219 0.0711943 0.107904 0.0711812 0.0680388 0.0516011 0.0757672 0.0630205
76 3 O -0.0269106 15.5178 50.6688 -1.2 1 0.186572 0.0795328 0.0266312 0.0201091 0.0460287 0.0412289 0.0531635 0.0628627 0.055199 0.0563131 0.0584329 0.0490104 0.0601651 0.0739338 0.0905631 0.081667 0.0753241 0.0818628 0.0696019 0.0886765
77 1 Mg -3.18391 14.1057 52.3125 1.2 1 0.0806162 0.0550731 0.0313544 0.0327642 0.0197029 0.0538214 0.0315008 0.0627272 0.0317133 0.0791327 0.0329478 0.0503069 0.0245112 0.075092 0.0308538 0.109181 0.0441403 0.104368 0.0417179 0.0880302
78 3 O 2.52432 15.503 50.4579 -1.2 1 0.194765 0.0930821 0.0233097 0.0118548 0.0385929 0.056972 0.0635144 0.0521726 0.054781 0.06431 0.0663169 0.0658938 0.0544971 0.0647088 0.102787 0.0776652 0.0737479 0.0674687 0.0607941 0.0869624
79 1 Mg -1.77112 14.1864 55.043 1.2 1 0.0170008 0.014746 0.0191464 0.0282505 0.0167661 0.023373 0.0243967 0.0312895 0.0416341 0.0621463 0.058639 0.0549151 0.060911 0.0687591 0.0608639 0.0867386 0.0664585 0.0997007 0.0608555 0.090558
80 2 Si -1.65099 12.0692 53.2447 2.4 1 0.0494839 0.0369007 0.0257843 0.0281468 0.0334445 0.0313419 0.044648 0.0575689 0.0574866 0.0572604 0.0600026 0.0670711 0.0779879 0.0517541 0.0744279 0.0631357 0.0678727 0.0873847 0.0620163 0.0593747
81 3 O -1.69567 10.5055 53.1861 -1.2 1 0.0592931 0.0501072 0.023961 0.0253141 0.0297697 0.0386478 0.0311973 0.0742961 0.0483553 0.0604213 0.0503412 0.0680137 0.0618341 0.0760368 0.0758332 0.0638928 0.0531046 0.066136 0.0631245 0.0745261
82 3 O -1.21337 13.3381 46.4311 -1.2 1 0.520091 0.0675428 0.0698564 0.0405889 0.0558597 0.0580249 0.0580776 0.0703395 0.0798118 0.066118 0.0462799 0.071204 0.0680887 0.0880799 0.120696 0.114307 0.106497 0.100055 0.0596292 0.091389
83 3 O -2.93305 12.7241 53.9312 -1.2 1 0.031961 0.0225478 0.0372641 0.021512 0.0294509 0.0260475 0.0499211 0.0446599 0.0459087 0.0526942 0.05038 0.0419455 0.0545339 0.0706513 0.0778664 0.0769993 0.0693688 0.0639327 0.0686595 0.0712714
84 3 O -0.409147 12.7799 53.8667 -1.2 1 0.0432938 0.0246971 0.0354586 0.0233011 0.0209769 0.0192259 0.0459941 0.0522159 0.0451002 0.0565913 0.0569914 0.0456685 0.0603543 0.0608262 0.0946367 0.0632849 0.0827591 0.0649318 0.0644011 0.0729773
85 1 Mg -3.04142 21.2792 57.4045 1.2 1 0.00557326 0.0130516 0.00745671 0.0305697 0.00911753 0.039063 0.0108739 0.0576978 0.00881431 0.0848831 0.0115785 0.0507328 0.0153182 0.0714816 0.0147135 0.10272 0.0182654 0.112568 0.0215978 0.10168
86 1 Mg -1.5831 21.1217 49.8405 1.2 1 0.226941 0.0840819 0.0234606 0.0432767 0.0302679 0.0520415 0.0561668 0.0518238 0.0511057 0.0620942 0.0634485 0.0644237 0.0735265 0.073174 0.103145 0.0846961 0.0727121 0.093979 0.0836538 0.0837074
87 2 Si -1.09384 18.6291 47.9287 2.4 1 0.370893 0.0709036 0.0734023 0.0643962 0.0316488 0.0702071 0.0476273 0.0805774 0.0675884 0.0680991 0.0503303 0.0723712 0.0605619 0.077014 0.10087 0.074577 0.105496 0.0939533 0.0893919 0.0896519
88 3 O -1.02071 20.1985 47.9911 -1.2 1 0.365848 0.0697275 0.0486175 0.0624639 0.0449665 0.092212 0.0632196 0.0822247 0.0565844 0.0883043 0.054491 0.0728921 0.0605886 0.0812315 0.0818008 0.0746174 0.0935472 0.0759708 0.073932 0.0695958
89 3 O -1.65002 17.5002 51.771 -1.2 1 0.111725 0.0575902 0.0340971 0.0278011 0.0339568 0.0550796 0.0578946 0.0502113 0.0643638 0.05372 0.05642 0.0483212 0.0522698 0.0837132 0.102082 0.0740212 0.0800365 0.0446261 0.0757148 0.07243
90 3 O -2.26174 18.0434 48.8281 -1.2 1 0.297044 0.101834 0.0626765 0.0280574 0.0624036 0.0515946 0.0588407 0.0732335 0.0598956 0.066414 0.07197 0.0614358 0.0544159 0.0575463 0.0793487 0.0884346 0.0862683 0.0781454 0.0832499 0.0916037
91 1 Mg -0.0440435 16.5651 46.8269 1.2 1 0.484341 0.0200891 0.079127 0.0302084 0.0618424 0.0836954 0.0731491 0.082449 0.0711179 0.084609 0.0845271 0.0632309 0.0655647 0.0795121 0.076815 0.0939323 0.0961919 0.0981076 0.0992815 0.105733
92 3 O 0.37001 17.9877 48.3925 -1.2 1 0.340639 0.0831639 0.0602719 0.0357207 0.0481156 0.0648588 0.0431737 0.0704203 0.0658181 0.0736049 0.0608123 0.0553416 0.065853 0.0884297 0.0973779 0.0781135 0.094637 0.103583 0.0807398 0.0852027
93 1 Mg 1.25697 16.514 54.603 1.2 1 0.0103801 0.0235496 0.0160958 0.0328241 0.0107862 0.0185172 0.0187465 0.0299826 0.0469533 0.0601337 0.0573593 0.0543961 0.0530688 0.0699495 0.0597392 0.0858623 0.0723237 0.0932612 0.0705934 0.0855088
94 2 Si 1.32938 19.1801 56.4104 2.4 1 0.0112119 0.0176679 0.0155526 0.026492 0.0332717 0.0315796 0.0432703 0.042126 0.049715 0.0570468 0.0514761 0.0680776 0.0709844 0.0555809 0.0813002 0.069696 0.0617263 0.094028 0.0528961 0.0615709
95 3 O 1.32894 17.5994 56.4562 -1.2 1 0.0165535 0.0204134 0.0148593 0.0221949 0.0259768 0.0277603 0.0215397 0.0775689 0.0370275 0.0596091 0.0369299 0.0677814 0.0566033 0.0698752 0.0768297 0.0697575 0.0521162 0.0701819 0.06331 0.0732652
96 3 O 1.45147 20.239 52.7294 -1.2 1 0.0702173 0.0400003 0.0306168 0.0238463 0.0229065 0.0441777 0.0538042 0.0557683 0.0542657 0.044358 0.0459823 0.0511483 0.0597389 0.0640458 0.103208 0.071441 0.0737083 0.0558352 0.0719548 0.061396
97 3 O -0.00303378 19.9256 55.7544 -1.2 1 0.00740604 0.0120788 0.033951 0.0199903 0.0156868 0.0216446 0.0424683 0.0438165 0.0368524 0.0461444 0.0522708 0.0412097 0.0570653 0.0573218 0.0916143 0.0755753 0.0716403 0.0593876 0.0643005 0.0789753
98 3 O 2.67072 19.899 55.8398 -1.2 1 0.0246419 0.0138228 0.0333735 0.0181363 0.0226831 0.0180574 0.0460317 0.044764 0.0431307 0.0422116 0.0539104 0.043057 0.0503526 0.0662195 0.0765553 0.0760576 0.0761392 0.0573064 0.0674289 0.069779
99 1 Mg -0.126194 18.8651 52.2079 1.2 1 0.103857 0.0655712 0.0240697 0.041826 0.0310306 0.0413779 0.0342513 0.0734647 0.0239494 0.0899654 0.026603 0.0530849 0.0293013 0.0740919 0.0307494 0.107924 0.0416329 0.102594 0.0414742 0.105241
100 1 Mg 1.92402 18.5815 49.4545 1.2 1 0.261588 0.109412 0.0357711 0.0448742 0.0334511 0.0357582 0.0697003 0.0451337 0.0675595 0.0756168 0.0794837 0.0531222 0.0713708 0.0678262 0.0824339 0.0920704 0.0782349 0.0983677 0.0853564 0.0874533
101 2 Si 1.38106 20.9117 51.2443 2.4 1 0.124747 0.0874649 0.0395832 0.0371513 0.0376653 0.0519334 0.0517018 0.0446589 0.0559169 0.0663511 0.0665829 0.0736575 0.0718313 0.0658871 0.093057 0.0847042 0.0729766 0.0872305 0.0717434 0.0613044
102 3 O 1.48527 22.4795 51.3054 -1.2 1 0.131381 0.0792462 0.0303658 0.0375677 0.0329859 0.0457989 0.0407207 0.071032 0.0553997 0.0659644 0.0428063 0.0809827 0.069447 0.0637974 0.0763997 0.068609 0.0769101 0.0762042 0.0693308 0.0723811
103 3 O 1.40287 19.8319 57.9265 -1.2 1 0.0168098 0.0195514 0.0230022 0.0161945 0.0194331 0.0351439 0.0301819 0.0429469 0.0570256 0.0476972 0.0412508 0.042383 0.0534907 0.0684567 0.103811 0.0697222 0.06826 0.0569482 0.0779424 0.0657023
104 3 O 0.0615419 20.2804 50.6669 -1.2 1 0.184867 0.0806145 0.0241559 0.0196655 0.0486092 0.0385415 0.0534167 0.0643164 0.0549419 0.0575384 0.0577098 0.050962 0.0639719 0.0745549 0.0870433 0.0771488 0.0750114 0.0798149 0.0709558 0.0849191
105 1 Mg -3.09665 18.8643 52.3122 1.2 1 0.0721329 0.0586043 0.0311015 0.033753 0.0171164 0.0535301 0.0344515 0.0628114 0.0330565 0.080978 0.0318005 0.0457592 0.0241589 0.0728306 0.0320403 0.11179 0.0398057 0.103122 0.0422341 0.0891598
106 3 O 2.61548 20.2646 50.4626 -1.2 1 0.188355 0.101672 0.0226306 0.019469 0.0378301 0.0603017 0.0547842 0.0413569 0.0579452 0.0664929 0.0665557 0.0678715 0.0576317 0.0645223 0.101378 0.0742886 0.0755377 0.0725977 0.0644207 0.084391
107 1 Mg -1.80319 19.0276 55.0299 1.2 1 0.0262325 0.0103792 0.0243119 0.0307451 0.0143721 0.0230924 0.0204268 0.0374625 0.0401631 0.0586885 0.065615 0.0484059 0.0617977 0.0706333 0.067806 0.0820616 0.0673738 0.0899235 0.0715082 0.0838155
108 2 Si -1.62851 16.8788 53.22 2.4 1 0.0428508 0.0422568 0.0235277 0.0299591 0.0329012 0.0382059 0.048519 0.0547616 0.0619274 0.0608525 0.0604968 0.067036 0.0821676 0.0573128 0.070517 0.0586712 0.065433 0.09183 0.0572634 0.0614299
109 3 O -1.65808 15.3196 53.1747 -1.2 1 0.0636518 0.0414202 0.0202943 0.020924 0.0319911 0.0310519 0.0283239 0.0771585 0.0438213 0.0559035 0.0466857 0.070522 0.0607343 0.0704456 0.0777827 0.0633438 0.0558745 0.0731607 0.0683618 0.0766414
110 3 O -1.12868 18.1227 46.4249 -1.2 1 0.522018 0.066382 0.0727558 0.0523086 0.0577519 0.0648639 0.0606467 0.0792507 0.0800392 0.0629612 0.0462192 0.0682986 0.0671695 0.0873991 0.116967 0.115408 0.107123 0.100507 0.0626658 0.0925779
111 3 O -2.92205 17.539 53.9481 -1.2 1 0.0363392 0.027437 0.0210014 0.0235707 0.0268774 0.0239667 0.0506516 0.0414639 0.0448214 0.054374 0.0540164 0.0440666 0.0546798 0.0604745 0.0856152 0.0674994 0.0674988 0.0619275 0.0692209 0.0733081
112 3 O -0.410758 17.5679 53.9583 -1.2 1 0.0421598 0.0261152 0.0305762 0.0211544 0.0240279 0.0236138 0.0406297 0.0490447 0.0419281 0.0524937 0.0581545 0.0453188 0.0566732 0.0629388 0.0899305 0.061311 0.081348 0.0680288 0.066692 0.0705517
113 1 Mg -3.00589 26.0398 57.3449 1.2 1 0.0102272 0.0166043 0.00232417 0.0302963 0.00657886 0.0326895 0.00500125 0.0542787 0.0133561 0.083916 0.0123825 0.0473034 0.0142289 0.0733666 0.0160969 0.101733 0.020468 0.115372 0.0296573 0.0985307
114 1 Mg -1.48778 25.88 49.8402 1.2 1 0.226847 0.0833128 0.0246025 0.0433956 0.0316523 0.0516016 0.0547587 0.0547718 0.0504045 0.0621005 0.0647454 0.0650803 0.0730424 0.0750149 0.104162 0.0826589 0.072915 0.0943509 0.0831321 0.083506
115 2 Si -1.00491 23.3922 47.9274 2.4 1 0.37083 0.0697126 0.0731193 0.0688623 0.0346819 0.0753279 0.0410628 0.0843654 0.0681198 0.0733349 0.0509349 0.0745223 0.0593527 0.0753506 0.0947882 0.0780711 0.104195 0.0968706 0.0890421 0.0932723
116 3 O -0.927602 24.9615 47.9909 -1.2 1 0.36593 0.0689737 0.0479696 0.0638668 0.0449977 0.0907864 0.0634897 0.0829851 0.0556914 0.08695 0.0539656 0.0721664 0.061267 0.0834819 0.0830595 0.0755361 0.0946906 0.0754625 0.0742778 0.0703151
117 3 O -1.55795 22.2588 51.7696 -1.2 1 0.112558 0.0566514 0.0348567 0.0275778 0.0325185 0.0541604 0.056602 0.0506064 0.0637666 0.0548985 0.0534291 0.0483209 0.055998 0.0839104 0.0988992 0.0746128 0.0829581 0.0460856 0.0776838 0.072262
118 3 O -2.17411 22.8111 48.8277 -1.2 1 0.299189 0.0992581 0.0626984 0.0268665 0.0629254 0.0490468 0.0579112 0.0716063 0.0607176 0.0686808 0.0728811 0.0601799 0.0549304 0.0580674 0.077712 0.0883616 0.0888798 0.0789133 0.0830074 0.0904985
119 1 Mg 0.0423997 21.3296 46.8225 1.2 1 0.484827 0.0207133 0.0785312 0.0312003 0.0619207 0.0844391 0.0728638 0.0820414 0.0711291 0.0842556 0.0841339 0.063191 0.0652656 0.0791642 0.0768179 0.0939078 0.0971866 0.0986444 0.0984312 0.105244
120 3 O 0.458537 22.7495 48.3911 -1.2 1 0.345495 0.0768152 0.0552163 0.041132 0.0465989 0.0618779 0.0403326 0.0664129 0.0659888 0.0713704 0.0596417 0.0564636 0.0641135 0.0867745 0.0946326 0.0767373 0.095847 0.103128 0.0809539 0.085583
121 1 Mg 1.36876 21.3522 54.5114 1.2 1 0.00531529 0.0278122 0.0171131 0.0327965 0.0101911 0.0216502 0.0267651 0.0365707 0.0430482 0.0602836 0.064993 0.0566319 0.0615741 0.0651402 0.0713099 0.0772537 0.0743179 0.087863 0.0785619 0.0758089
122 2 Si 1.4492 23.9546 56.4785 2.4 1 0.0154057 0.0138292 0.0147739 0.0201597 0.0268969 0.0344902 0.0438479 0.0418386 0.0498388 0.0572511 0.0549998 0.061302 0.0676381 0.0610179 0.0870831 0.0701683 0.0630958 0.0933511 0.0522386 0.0606556
123 3 O 1.45843 22.4237 56.5706 -1.2 1 0.0239956 0.00867559 0.0229241 0.0246447 0.0230999 0.0267747 0.0245751 0.0693274 0.0352301 0.0483815 0.0424695 0.0707748 0.0504773 0.0642815 0.0772497 0.0698994 0.059431 0.0772565 0.0565671 0.0793793
124 3 O 1.54441 24.9963 52.7297 -1.2 1 0.0712355 0.0425963 0.024642 0.0227049 0.0253088 0.0439483 0.0541941 0.0530342 0.0502484 0.0448586 0.0480169 0.0483615 0.0611166 0.0653834 0.10116 0.0717653 0.0726022 0.0612679 0.0745618 0.0615124
125 3 O 0.159576 24.6569 55.8509 -1.2 1 0.0124066 0.0179593 0.0283127 0.0198193 0.0178188 0.0198694 0.0426183 0.0434259 0.041286 0.0407948 0.0534117 0.0457492 0.0473217 0.0594188 0.0873662 0.0679654 0.0726636 0.0538995 0.0682434 0.076899
126 3 O 2.69878 24.6038 55.7881 -1.2 1 0.0139184 0.0133627 0.0283784 0.0204065 0.0224431 0.0192834 0.0474636 0.0487587 0.036482 0.0471665 0.052623 0.0418546 0.0546269 0.0704212 0.081337 0.0774324 0.0826222 0.0592771 0.0681471 0.0667079