ITEM: TIMESTEP
29900
ITEM: NUMBER OF ATOMS
10500
ITEM: BOX BOUNDS xy xz yz pp pp pp
0	8.9688	2.9896
0	118.725	0
0	252.977	0
ITEM: ATOMS id type element xu yu zu q Q_1 Q_2 Q_3 Q_4 Q_5 Q_6 Q_7 Q_8 Q_9 Q_10 Q_11 Q_12 Q_13 Q_14 Q_15 Q_16 Q_17 Q_18 Q_19 Q_20 Q_21
1 1 Mg -3.39043 7.04617 57.4142 1.2 1 0.00496559 0.0201665 0.003777 0.0297857 0.00573467 0.0297447 0.00714783 0.054026 0.0126195 0.084599 0.0135776 0.0520732 0.0185371 0.0712668 0.016624 0.108828 0.0193699 0.1114 0.0233768 0.101904
2 1 Mg -1.82655 6.90154 50.0912 1.2 1 0.222441 0.0856734 0.0309369 0.0326803 0.0253668 0.0549208 0.0476081 0.0436523 0.0528629 0.0674013 0.0565742 0.0731679 0.0682306 0.0620586 0.0944308 0.0599394 0.0870128 0.0995679 0.0760238 0.0824275
3 2 Si -0.257935 3.96038 48.0876 2.4 1 0.374598 0.0690171 0.0723824 0.0345958 0.0610023 0.0507679 0.0731685 0.0753916 0.0585709 0.0765598 0.0578927 0.0726047 0.0645606 0.0836658 0.0957 0.10136 0.109908 0.0921597 0.0720359 0.0705801
4 3 O -0.335812 5.46814 47.6264 -1.2 1 0.427061 0.0392507 0.0650219 0.0306216 0.041202 0.0498624 0.0652053 0.0694735 0.0869012 0.0754422 0.0913603 0.0757 0.0717574 0.0688247 0.0918906 0.126033 0.0959794 0.0798855 0.0739694 0.0772483
5 3 O -2.03793 3.43377 51.8941 -1.2 1 0.111843 0.0642738 0.0237314 0.0226825 0.02046 0.0498987 0.0596174 0.0498437 0.0471539 0.057585 0.0647564 0.0525823 0.0526894 0.0750649 0.0879205 0.0830205 0.0647236 0.0574357 0.0743415 0.0701655
6 3 O -1.54015 3.53929 48.9521 -1.2 1 0.300806 0.0937142 0.0381772 0.0452172 0.0390855 0.0462245 0.0707729 0.0531334 0.0542211 0.0647511 0.0766494 0.0665678 0.067256 0.0700053 0.0735287 0.111213 0.0831151 0.0785881 0.0749086 0.0881629
7 1 Mg 1.82954 2.54582 47.1376 1.2 1 0.466009 0.0223154 0.080635 0.0501745 0.0354862 0.0828694 0.0600086 0.0584981 0.0751658 0.0878649 0.0689747 0.0772415 0.0821913 0.0854064 0.0692712 0.0955792 0.102193 0.105137 0.106061 0.099181
8 3 O 1.22989 3.66364 48.7877 -1.2 1 0.320265 0.0731703 0.0236375 0.044299 0.033445 0.0646314 0.0783474 0.0332459 0.0844093 0.0800872 0.0527253 0.0790299 0.0836733 0.0697714 0.0683342 0.0878111 0.0912284 0.0907115 0.096854 0.0906221
9 1 Mg 1.0785 2.29496 54.4868 1.2 1 0.0180038 0.0314369 0.0179994 0.0352573 0.0312819 0.0357344 0.0194029 0.034862 0.0385225 0.0592415 0.0517257 0.0561018 0.0640413 0.0721239 0.0661196 0.0741773 0.0719739 0.08569 0.070065 0.0690612
10 2 Si 1.04746 5.08897 56.3285 2.4 1 0.0120975 0.0127257 0.0208235 0.0210318 0.0248553 0.0288255 0.0353267 0.0444209 0.051281 0.048638 0.0506138 0.0633686 0.065718 0.0613363 0.0772023 0.0760382 0.0553607 0.100285 0.0482136 0.0627239
11 3 O 1.05647 3.53515 56.6324 -1.2 1 0.0128022 0.0190691 0.0149111 0.0136591 0.023135 0.0158061 0.0287734 0.0613652 0.0461803 0.0352348 0.048204 0.0659791 0.0540568 0.0591229 0.0680584 0.0743239 0.0625362 0.0757229 0.0590299 0.0797387
12 3 O 1.10813 6.07342 52.8172 -1.2 1 0.0996747 0.0375575 0.0279563 0.0133802 0.0172458 0.0426079 0.0438096 0.0480827 0.0526898 0.0435752 0.0493252 0.0556001 0.0658327 0.068367 0.0845702 0.0807376 0.0568897 0.0702336 0.0678778 0.0680962
13 3 O -0.229443 5.72379 55.6885 -1.2 1 0.0180947 0.00601797 0.0247124 0.0260148 0.0197106 0.0164388 0.03734 0.0384004 0.0348598 0.0437677 0.0578815 0.0358819 0.053118 0.0591947 0.0859603 0.0720475 0.0754617 0.0694665 0.0641696 0.0679301
14 3 O 2.28541 5.76652 55.6273 -1.2 1 0.0168204 0.0194463 0.0288914 0.0217989 0.0198161 0.0181877 0.0427758 0.0474081 0.0378867 0.045975 0.0513613 0.039866 0.0583533 0.0584965 0.0846627 0.0774909 0.0717081 0.0742446 0.0611676 0.0604194
15 1 Mg -0.459401 4.67631 52.2426 1.2 1 0.0904805 0.0728656 0.0287458 0.0394808 0.02665 0.0327582 0.0406394 0.0578437 0.0425905 0.0802675 0.0393791 0.0620523 0.051266 0.0738383 0.0435108 0.100529 0.0523378 0.0918964 0.05505 0.0896057
16 1 Mg 2.79456 3.9971 49.9987 1.2 1 0.221119 0.0973494 0.0290566 0.0391475 0.0413549 0.0621289 0.0545291 0.0552959 0.0772522 0.0622597 0.0624414 0.0575858 0.0648636 0.0717356 0.0842172 0.0770271 0.0732237 0.0893793 0.0859016 0.0731599
17 2 Si 1.16169 6.59457 51.2556 2.4 1 0.137849 0.0881281 0.0371388 0.0317539 0.0441324 0.0484733 0.0451599 0.045647 0.0611019 0.0624977 0.0654925 0.0726181 0.0709145 0.0682826 0.0860599 0.0895004 0.0837631 0.0917835 0.0709563 0.0662545
18 3 O 1.28989 8.18905 51.2909 -1.2 1 0.159107 0.0744722 0.0269522 0.03953 0.0338911 0.0445543 0.0377001 0.0677462 0.0476276 0.0681288 0.044299 0.0891786 0.0693868 0.0611564 0.0715415 0.0695497 0.0724291 0.0676802 0.0670658 0.0685304
19 3 O 1.01352 5.77826 57.8519 -1.2 1 0.0123863 0.0228219 0.0209082 0.0146582 0.0214313 0.0404926 0.0360474 0.0389804 0.0494778 0.0413448 0.0430328 0.0464118 0.0515245 0.0685256 0.10579 0.0662118 0.0694944 0.055282 0.0713122 0.0617693
20 3 O -0.184847 6.06029 50.6845 -1.2 1 0.184423 0.0864408 0.0207443 0.0267787 0.0380507 0.0320599 0.0500892 0.0592664 0.0543469 0.058115 0.0644029 0.0771665 0.0645008 0.0596694 0.0897985 0.07009 0.0840779 0.0768311 0.0628426 0.0813588
21 1 Mg -3.49704 4.67769 52.6661 1.2 1 0.0749088 0.053341 0.0220064 0.0260011 0.014072 0.0452462 0.0306216 0.0534269 0.0558474 0.0662829 0.0490172 0.0475139 0.0523461 0.0464919 0.061001 0.0844722 0.0879521 0.0780641 0.0692737 0.06912
22 3 O 2.48581 5.93312 50.6539 -1.2 1 0.198385 0.0884133 0.0341508 0.0133274 0.0333521 0.0454707 0.0597257 0.0552118 0.0429215 0.0636632 0.0460116 0.0662332 0.0548143 0.0581923 0.0973795 0.0679514 0.0796685 0.0651908 0.0796194 0.0762117
23 1 Mg -1.89409 4.84643 55.2162 1.2 1 0.0221451 0.0211255 0.0235412 0.0314104 0.0147886 0.0218982 0.0210392 0.0397117 0.0353969 0.0532167 0.0621881 0.059393 0.0641559 0.0632707 0.0658346 0.0746091 0.0858164 0.0800144 0.0715241 0.0688918
24 2 Si -1.92328 2.65383 53.3059 2.4 1 0.0336708 0.0422888 0.0238429 0.02508 0.0232803 0.0232523 0.0446097 0.0462803 0.0659812 0.0642191 0.056978 0.0692611 0.074897 0.0494156 0.0715633 0.0597657 0.071849 0.0877978 0.080383 0.0600582
25 3 O -1.92633 1.12665 53.1393 -1.2 1 0.0510274 0.0479623 0.0255408 0.0270009 0.0217188 0.0363912 0.0256857 0.0639646 0.0566515 0.0613828 0.0425037 0.0667777 0.0636502 0.0680001 0.0831316 0.0714278 0.0564662 0.0720154 0.0648955 0.0677394
26 3 O -0.0467762 2.97103 46.8385 -1.2 1 0.497681 0.0371997 0.0879815 0.0293669 0.0801173 0.0681248 0.0811453 0.0717975 0.0724701 0.0791895 0.0814366 0.0750915 0.0967743 0.088661 0.088509 0.0886016 0.0995747 0.0974721 0.105073 0.110661
27 3 O -3.15175 3.29506 53.9715 -1.2 1 0.0351373 0.0276115 0.0309661 0.0185771 0.0274382 0.0247563 0.0371786 0.0405532 0.0531978 0.0514787 0.0602285 0.0466442 0.060977 0.0611983 0.0833669 0.0650076 0.0697751 0.0676397 0.0742026 0.0582453
28 3 O -0.572686 3.30553 53.9574 -1.2 1 0.028265 0.0345733 0.0378505 0.0164747 0.0229894 0.0276621 0.0456964 0.0456933 0.049514 0.0532046 0.0590707 0.0414283 0.0626428 0.0697562 0.084326 0.0682643 0.075776 0.0801733 0.0594939 0.0645455
29 1 Mg -3.17175 11.7417 57.1902 1.2 1 0.0136307 0.0199074 0.0143557 0.0256985 0.0155025 0.0315434 0.0124257 0.0485732 0.0222076 0.0774651 0.0219339 0.0505059 0.0232293 0.0646174 0.0389832 0.0973447 0.0506725 0.101629 0.0472692 0.0817573
30 1 Mg -1.75014 11.5838 49.8362 1.2 1 0.233485 0.078165 0.028389 0.0372613 0.0314015 0.0515838 0.0496353 0.0549244 0.0450097 0.058213 0.0642429 0.0618164 0.0712988 0.0687721 0.107381 0.0892955 0.0673908 0.094828 0.0848751 0.0785783
31 2 Si -1.18003 9.02138 47.9309 2.4 1 0.376327 0.0594854 0.0591032 0.0551649 0.0392726 0.0622593 0.0714418 0.0738003 0.0670004 0.0648267 0.0598211 0.0667466 0.0673517 0.0795342 0.100244 0.0633881 0.0994685 0.0903182 0.103945 0.0860911
32 3 O -1.23224 10.5991 47.9811 -1.2 1 0.379461 0.0590552 0.0553535 0.056635 0.0507011 0.0701311 0.0671974 0.0775321 0.0583147 0.08611 0.0703655 0.0648709 0.0721309 0.0792546 0.0818437 0.067862 0.0880997 0.0804134 0.0660537 0.0734231
33 3 O -1.79016 8.01447 51.8693 -1.2 1 0.115363 0.0637156 0.0315065 0.0274365 0.0293542 0.046554 0.0578106 0.0581189 0.0552114 0.0520868 0.0525654 0.0544438 0.0649954 0.0830013 0.0889543 0.0759368 0.0730906 0.0533133 0.070033 0.0643182
34 3 O -2.30986 8.37215 48.8528 -1.2 1 0.326343 0.069626 0.0543483 0.0306966 0.0445993 0.0613097 0.0686761 0.0656174 0.0569072 0.0652828 0.0767327 0.0662111 0.0550303 0.0652554 0.0794449 0.089341 0.0965697 0.0796524 0.0764431 0.0909794
35 1 Mg 0.154883 7.08234 46.8007 1.2 1 0.497376 0.0368599 0.0755299 0.0384458 0.0650912 0.0766066 0.0604775 0.0673227 0.0698421 0.082743 0.0891271 0.0757521 0.0784877 0.0794327 0.0697684 0.0921157 0.0933484 0.108469 0.11308 0.0999769
36 3 O 0.325447 8.50934 48.3809 -1.2 1 0.35392 0.0714197 0.0585958 0.0429498 0.035468 0.0512594 0.0367606 0.0581104 0.0627878 0.065152 0.074078 0.0645852 0.078739 0.0914998 0.0894118 0.0694857 0.0885003 0.0976635 0.0838382 0.0877443
37 1 Mg 1.14875 7.09315 54.5351 1.2 1 0.0204268 0.031455 0.0150136 0.0266165 0.018583 0.0201493 0.0248869 0.0312415 0.0421828 0.0611708 0.0570569 0.052478 0.0567061 0.0678883 0.0639571 0.0821653 0.0662689 0.0879595 0.0822623 0.079151
38 2 Si 1.13126 9.73036 56.2928 2.4 1 0.0202957 0.0146588 0.021397 0.0265049 0.0321136 0.0338826 0.035541 0.0421614 0.0525647 0.053816 0.0566056 0.0618427 0.0648478 0.0619525 0.0803012 0.0776704 0.0559648 0.0958297 0.0650954 0.0554582
39 3 O 1.19806 8.19341 56.4296 -1.2 1 0.0278862 0.0162545 0.0219972 0.0190237 0.0209397 0.0200184 0.0221011 0.0622182 0.0393563 0.0509429 0.0369234 0.0730263 0.0627342 0.0600757 0.0698217 0.0641044 0.0676261 0.0651148 0.0682641 0.0695133
40 3 O 1.28624 10.7248 52.7351 -1.2 1 0.0804455 0.045512 0.0273213 0.0254306 0.0272569 0.0491293 0.0484242 0.0504961 0.0428788 0.0473105 0.0468593 0.0481181 0.058877 0.068108 0.0996754 0.0754341 0.0640733 0.0577271 0.0742272 0.0596901
41 3 O -0.135962 10.4452 55.6705 -1.2 1 0.011844 0.0142367 0.0246846 0.0203514 0.0166002 0.0228838 0.0435093 0.0411028 0.0324357 0.048572 0.0542061 0.045484 0.0515947 0.0546476 0.0871965 0.0780188 0.0677872 0.0646221 0.0596907 0.0704698
42 3 O 2.3718 10.5038 55.6541 -1.2 1 0.0103501 0.0175236 0.0249282 0.0221032 0.023062 0.0211961 0.0487451 0.0406879 0.0318482 0.0451486 0.0525916 0.0395879 0.0545007 0.0575241 0.082389 0.0757651 0.0719419 0.075559 0.0610066 0.059536
43 1 Mg -0.262694 9.34741 52.2523 1.2 1 0.113854 0.0671751 0.0173156 0.0399115 0.0340421 0.0408049 0.0377553 0.0684739 0.0289863 0.0893305 0.0272703 0.0595369 0.0406359 0.0725824 0.0458023 0.1049 0.0529127 0.0925772 0.0464098 0.102907
44 1 Mg 1.87648 9.01537 49.4629 1.2 1 0.274298 0.0930981 0.0425083 0.0364509 0.0349967 0.0465004 0.0675884 0.0495048 0.0759312 0.0634515 0.0829838 0.054139 0.0845006 0.0640929 0.0842891 0.0971189 0.0900556 0.0935959 0.0813111 0.0886953
45 2 Si 1.21415 11.3799 51.2378 2.4 1 0.13912 0.0829179 0.0404489 0.0376712 0.0387392 0.0500858 0.0541165 0.0396879 0.0560529 0.0678186 0.0759656 0.0696083 0.0764893 0.0669391 0.0942318 0.0915229 0.0774663 0.0817598 0.0810565 0.0582364
46 3 O 1.31634 12.9512 51.3023 -1.2 1 0.13957 0.0784783 0.0296541 0.0339567 0.0332695 0.0445059 0.0435783 0.0684866 0.0537653 0.0653062 0.0485135 0.0769549 0.065317 0.0627468 0.0720197 0.0695361 0.0770071 0.0733656 0.0729397 0.0704027
47 3 O 1.1739 10.4655 57.8589 -1.2 1 0.0149097 0.0253745 0.0242764 0.00893111 0.0134953 0.0297438 0.032082 0.0466973 0.0506684 0.0472539 0.0385277 0.0472766 0.0488937 0.0594233 0.108059 0.0649871 0.0699236 0.0463593 0.0656757 0.0654946
48 3 O -0.115718 10.7564 50.681 -1.2 1 0.197597 0.0755322 0.0272286 0.0184208 0.0473015 0.0311883 0.0442735 0.0660043 0.0501043 0.0556855 0.0614571 0.0501528 0.0606576 0.0730129 0.0909592 0.0819997 0.0735164 0.0738868 0.0754748 0.0819998
49 1 Mg -3.26386 9.35564 52.3622 1.2 1 0.0839332 0.0540256 0.0274681 0.0299312 0.0184269 0.0489876 0.037819 0.0563538 0.0321387 0.0828588 0.0361333 0.0496747 0.036277 0.0611912 0.0343906 0.112388 0.0441686 0.102838 0.0483211 0.0894637
50 3 O 2.45216 10.7265 50.4558 -1.2 1 0.206465 0.0840465 0.022746 0.0146459 0.0407611 0.0498962 0.0545212 0.0479889 0.0548348 0.0673105 0.0646662 0.0734629 0.0511431 0.0608259 0.0964017 0.0821813 0.0732322 0.0746705 0.0608521 0.0848581
51 1 Mg -1.81462 9.59713 55.0345 1.2 1 0.0370625 0.0199509 0.0229896 0.0338162 0.0163601 0.0212673 0.0175164 0.0333599 0.0362957 0.0520076 0.0612694 0.051906 0.0573597 0.0647393 0.0596868 0.0841884 0.068971 0.0851757 0.0746862 0.0862718
52 2 Si -1.85886 7.31378 53.43 2.4 1 0.0520337 0.04742 0.0190944 0.0295226 0.0288908 0.0350641 0.0462267 0.049339 0.0612449 0.0673743 0.0637543 0.058375 0.0704811 0.0559913 0.0669177 0.0677851 0.0680003 0.0848977 0.0660275 0.0631372
53 3 O -1.97806 5.83403 53.3501 -1.2 1 0.0602135 0.0371054 0.02192 0.0215117 0.0227127 0.0303798 0.0364142 0.0642562 0.0478142 0.0636215 0.0393058 0.0723526 0.0559469 0.0718432 0.0596377 0.058523 0.060393 0.0593599 0.0738349 0.0629007
54 3 O -1.19417 8.46968 46.4488 -1.2 1 0.524933 0.0665669 0.067594 0.0513952 0.066467 0.0573234 0.0793856 0.0544166 0.0749475 0.0705375 0.0567208 0.0507294 0.0695807 0.0984081 0.130728 0.113974 0.0972751 0.0951967 0.0841926 0.0837615
55 3 O -3.20444 8.11149 53.9811 -1.2 1 0.0446269 0.02863 0.0212696 0.0191079 0.0207127 0.0303908 0.0462295 0.0438775 0.0499994 0.0492563 0.0557671 0.0391505 0.0539412 0.0548099 0.07891 0.0671447 0.0632974 0.0720847 0.0654406 0.078989
56 3 O -0.602446 8.05516 54.0643 -1.2 1 0.0465913 0.0291758 0.0274446 0.0247562 0.0287127 0.0246513 0.0338158 0.0473127 0.0451985 0.0539608 0.061926 0.0391702 0.0627192 0.0597775 0.0844832 0.066413 0.0737473 0.0734275 0.0714716 0.0681569
57 1 Mg -3.07542 16.4672 57.3901 1.2 1 0.00265977 0.0138511 0.0112059 0.0295925 0.00995986 0.0336391 0.0110038 0.0563481 0.0156909 0.0798223 0.0129662 0.0491533 0.0158334 0.0727078 0.0223361 0.105815 0.0283063 0.110452 0.0297568 0.0939291
58 1 Mg -1.6714 16.3544 49.8412 1.2 1 0.229696 0.081456 0.0257349 0.0437426 0.0286381 0.053595 0.0531121 0.055238 0.0476005 0.0623101 0.0634468 0.0653771 0.0723807 0.0753088 0.107144 0.0847214 0.0734182 0.0939144 0.0852088 0.0850486
59 2 Si -1.18567 13.8526 47.9314 2.4 1 0.374503 0.0674404 0.0761997 0.0611586 0.0320886 0.068327 0.046418 0.0791777 0.0621712 0.0673617 0.0529367 0.0713737 0.059126 0.0765704 0.0991135 0.0764753 0.103379 0.0963444 0.0891704 0.089664
60 3 O -1.09664 15.4205 47.9915 -1.2 1 0.366269 0.0697222 0.0487461 0.0628874 0.0453346 0.092155 0.0633638 0.0827495 0.0572196 0.0893283 0.0556915 0.073037 0.0609054 0.0829331 0.0823642 0.0750213 0.0946611 0.0774903 0.075093 0.0680991
61 3 O -1.73493 12.7491 51.7772 -1.2 1 0.116356 0.0592481 0.0290678 0.0286709 0.0314145 0.0526807 0.0604503 0.0508727 0.0653164 0.0542554 0.0544163 0.0493281 0.0562716 0.0851237 0.100988 0.0754673 0.0813069 0.0516216 0.0700105 0.069442
62 3 O -2.36115 13.2717 48.8238 -1.2 1 0.302036 0.0973096 0.061066 0.025804 0.0591006 0.0522253 0.0587613 0.0698272 0.0592504 0.0653617 0.0731717 0.0642001 0.0607619 0.0581404 0.0834243 0.0871037 0.0882654 0.0792868 0.0805729 0.0892431
63 1 Mg -0.159928 11.7639 46.8533 1.2 1 0.482428 0.0254429 0.0772958 0.0342056 0.0533367 0.0968499 0.0704083 0.0882895 0.0830377 0.0840437 0.0838236 0.0686365 0.0720795 0.092335 0.0780408 0.0861129 0.0964863 0.0965558 0.099012 0.106779
64 3 O 0.2623 13.1866 48.413 -1.2 1 0.347311 0.0747747 0.050407 0.0355246 0.0457507 0.0610784 0.0412768 0.0596695 0.0619743 0.0679132 0.0619233 0.0612834 0.0645746 0.0851103 0.0970452 0.0831598 0.0958822 0.0995589 0.0809586 0.0850203
65 1 Mg 1.28 11.8878 54.432 1.2 1 0.0153184 0.0306897 0.0148404 0.0357431 0.0156614 0.0158136 0.0240361 0.0306342 0.0406692 0.0633179 0.0555724 0.0578319 0.0589108 0.062127 0.0649595 0.0748658 0.0804951 0.0728089 0.0829876 0.0637258
66 2 Si 1.34274 14.5167 56.4055 2.4 1 0.0183932 0.0254738 0.0223789 0.0209724 0.027455 0.0299536 0.0360575 0.0450679 0.0558184 0.0524629 0.0499578 0.0670826 0.0667245 0.0550214 0.0785099 0.0717863 0.0627614 0.0952829 0.0504179 0.0532504
67 3 O 1.30429 12.9604 56.4841 -1.2 1 0.0303119 0.020756 0.0184327 0.0167922 0.01859 0.0267692 0.0234414 0.0737048 0.0394723 0.0487308 0.0422378 0.0729996 0.0549514 0.0656104 0.0791985 0.0720953 0.0607161 0.0697061 0.0576219 0.072458
68 3 O 1.36565 15.4813 52.729 -1.2 1 0.0715583 0.0449441 0.024146 0.0197008 0.0241439 0.0441452 0.0508192 0.0523343 0.0514022 0.0452349 0.0424606 0.0515199 0.0615763 0.0621721 0.101924 0.0740116 0.0716719 0.0611385 0.0723788 0.0626262
69 3 O 0.0606511 15.1636 55.8019 -1.2 1 0.0144778 0.0154235 0.0275997 0.0235162 0.0200755 0.0233871 0.0382033 0.0444193 0.029168 0.0454741 0.0539793 0.0499887 0.0504231 0.0529842 0.0911548 0.0703145 0.0799605 0.0586812 0.0703342 0.0668814
70 3 O 2.59037 15.1484 55.6967 -1.2 1 0.0123766 0.0233379 0.0255771 0.0221996 0.0232615 0.0218043 0.0542265 0.0440537 0.0345828 0.0470262 0.057593 0.039518 0.0546072 0.0690554 0.0810341 0.0743036 0.0710702 0.0682768 0.056211 0.0675738
71 1 Mg -0.206989 14.1049 52.2121 1.2 1 0.105377 0.0669814 0.0230638 0.043281 0.0265955 0.0416838 0.037838 0.0706027 0.0249572 0.0825967 0.0254411 0.0555545 0.0284808 0.074881 0.0326993 0.102145 0.0439833 0.103752 0.0410166 0.0993576
72 1 Mg 1.82591 13.8102 49.4556 1.2 1 0.270678 0.0993251 0.0375905 0.0421308 0.0379056 0.035798 0.0665832 0.046512 0.0674027 0.0722229 0.0761002 0.0571883 0.0686232 0.0650193 0.0842368 0.0949047 0.0797471 0.0957564 0.0869516 0.0802774
73 2 Si 1.29285 16.1518 51.2434 2.4 1 0.128597 0.0897323 0.0374682 0.0364881 0.0421809 0.0500687 0.0529265 0.0445055 0.0528399 0.0662419 0.0669598 0.0726738 0.0705614 0.069554 0.0922386 0.0842718 0.0750418 0.0873684 0.0755623 0.06517
74 3 O 1.39496 17.7199 51.3047 -1.2 1 0.130459 0.0858654 0.0206396 0.0283118 0.0384387 0.0418837 0.041028 0.0725603 0.0523067 0.0600297 0.044227 0.0823417 0.0702023 0.0691075 0.0782857 0.0726165 0.0748145 0.0764529 0.0689531 0.0693443
75 3 O 1.47363 15.2181 57.9804 -1.2 1 0.00611353 0.0144008 0.023033 0.0207383 0.0210883 0.0320069 0.0285363 0.0428873 0.0481038 0.0491466 0.0405683 0.0526344 0.0498715 0.0660039 0.103226 0.0705463 0.0650492 0.0652714 0.0645274 0.06376
76 3 O -0.0269106 15.5178 50.6688 -1.2 1 0.185737 0.0866295 0.0219335 0.0225792 0.04576 0.0380329 0.0594559 0.0606049 0.0565551 0.0574856 0.0596828 0.047898 0.0601727 0.0732882 0.0940803 0.0813141 0.0761517 0.0832562 0.073517 0.0880951
77 1 Mg -3.18391 14.1057 52.3125 1.2 1 0.0804692 0.0563555 0.0302181 0.0314396 0.0202728 0.0529804 0.0318601 0.0617499 0.0317737 0.0804114 0.0334724 0.0501885 0.0261371 0.0742191 0.036461 0.10837 0.0476628 0.103507 0.0436512 0.0888868
78 3 O 2.52432 15.503 50.4579 -1.2 1 0.198089 0.0900572 0.0229542 0.0166044 0.0412904 0.055123 0.0588894 0.0495832 0.0561353 0.0650792 0.0668024 0.0684943 0.0576162 0.0633601 0.100996 0.0761408 0.0753684 0.0701319 0.0623356 0.0825368
79 1 Mg -1.64611 14.253 55.0332 1.2 1 0.0179013 0.0173528 0.0168055 0.0279178 0.0130382 0.0249894 0.0215223 0.0327231 0.0380901 0.0645332 0.0621067 0.0554136 0.0582108 0.0668871 0.0634524 0.085115 0.0716889 0.0910841 0.0723999 0.0856395
80 2 Si -1.65026 12.0948 53.3082 2.4 1 0.0458489 0.0470331 0.0174659 0.0274879 0.0334004 0.0293393 0.0483566 0.0558313 0.0600989 0.0624131 0.0644953 0.0706232 0.0740346 0.0511901 0.0724517 0.0665792 0.0654224 0.091175 0.0670761 0.0614156
81 3 O -1.80675 10.5748 53.2585 -1.2 1 0.0663117 0.0382464 0.0208386 0.0212607 0.0293488 0.0345157 0.027946 0.0752749 0.0479424 0.0571251 0.0466141 0.069999 0.0583849 0.076132 0.0691014 0.0651825 0.0544083 0.0587981 0.0706024 0.0673086
82 3 O -1.21337 13.3381 46.4311 -1.2 1 0.520154 0.0676548 0.0695203 0.0406995 0.0561322 0.0577743 0.0577988 0.0702678 0.0795069 0.0655773 0.0459904 0.0713381 0.0683373 0.0883343 0.120928 0.114499 0.10663 0.100311 0.0601686 0.09159
83 3 O -2.88342 12.8101 53.9843 -1.2 1 0.0354406 0.0296452 0.025931 0.0235142 0.0265985 0.0276255 0.0463604 0.0433522 0.0424805 0.0527411 0.0529728 0.0435854 0.0545523 0.0553154 0.0807157 0.0664621 0.0622957 0.0707879 0.0640446 0.0666515
84 3 O -0.294351 12.7876 53.8289 -1.2 1 0.0424072 0.0265047 0.0296011 0.0235451 0.0259546 0.0180521 0.0415804 0.0532162 0.0500229 0.0514994 0.0595592 0.0457824 0.0649169 0.0580786 0.0922904 0.064082 0.0832182 0.0678748 0.0674951 0.0725061
85 1 Mg -3.18256 21.2125 57.4664 1.2 1 0.012632 0.0186392 0.00636014 0.0373872 0.00819472 0.0349468 0.00853511 0.0547298 0.0162259 0.0795044 0.0161142 0.0498895 0.0175093 0.0741225 0.0228545 0.106672 0.0264582 0.111952 0.0301196 0.0937868
86 1 Mg -1.5831 21.1217 49.8405 1.2 1 0.22978 0.0824761 0.0255315 0.0403118 0.031336 0.0509155 0.0534999 0.0534496 0.0510356 0.0592137 0.0607151 0.0647329 0.0742121 0.073545 0.101661 0.0810285 0.0717052 0.0970302 0.0858171 0.0841683
87 2 Si -1.09384 18.6291 47.9287 2.4 1 0.370972 0.0706092 0.0731966 0.0644419 0.0318568 0.0706612 0.0471095 0.0795256 0.0666015 0.0680368 0.0511252 0.0726312 0.0605594 0.0758557 0.100146 0.075289 0.106186 0.0948632 0.0909423 0.0893828
88 3 O -1.02071 20.1985 47.9911 -1.2 1 0.365863 0.0696442 0.0483937 0.0625288 0.0449841 0.092039 0.0631981 0.082576 0.0562986 0.0882385 0.0546146 0.0722245 0.0602792 0.0816601 0.0813113 0.0737204 0.09319 0.075848 0.0748694 0.0706731
89 3 O -1.65002 17.5002 51.771 -1.2 1 0.112011 0.0572918 0.0349 0.0286158 0.0327627 0.0555389 0.0582844 0.0504218 0.0650547 0.0517914 0.0578276 0.0491599 0.0523366 0.0831069 0.100671 0.0761209 0.0818464 0.0469365 0.0750269 0.075935
90 3 O -2.26174 18.0434 48.8281 -1.2 1 0.297306 0.101329 0.0625916 0.0282214 0.0623072 0.0515606 0.0581638 0.0723168 0.0598822 0.0667447 0.0722586 0.0613408 0.0551005 0.056936 0.0787025 0.0881104 0.0866723 0.0806668 0.0845363 0.0905226
91 1 Mg -0.0440435 16.5651 46.8269 1.2 1 0.485018 0.0209954 0.0760047 0.0314814 0.0620001 0.0818874 0.0742467 0.084127 0.0716765 0.087409 0.0878118 0.0623172 0.0624983 0.0794133 0.0769933 0.0909314 0.0919826 0.0972221 0.101493 0.107912
92 3 O 0.37001 17.9877 48.3925 -1.2 1 0.345343 0.0771939 0.0556858 0.0398445 0.0462514 0.0630046 0.0410956 0.0664926 0.0655849 0.0720253 0.0595111 0.0560136 0.0655427 0.0864841 0.0943394 0.0767327 0.094756 0.104412 0.0832438 0.0858862
93 1 Mg 1.28899 16.4323 54.521 1.2 1 0.00468145 0.0247682 0.0132973 0.0297467 0.00802921 0.0193062 0.0224766 0.0372004 0.045501 0.0593219 0.0579569 0.052406 0.0584536 0.0684776 0.0623183 0.0777091 0.06948 0.0946986 0.0705401 0.0827227
94 2 Si 1.34204 19.177 56.4281 2.4 1 0.0157842 0.0144251 0.0179062 0.0237598 0.0284619 0.0307881 0.0421068 0.042072 0.052625 0.0506793 0.0514728 0.0619912 0.0737362 0.0567505 0.0791414 0.0746559 0.0651011 0.0949415 0.0553544 0.0561801
95 3 O 1.29591 17.5578 56.5131 -1.2 1 0.0285677 0.0160062 0.0210488 0.021634 0.0213816 0.0303094 0.0207551 0.0719061 0.0330325 0.0583107 0.040377 0.0643122 0.0514429 0.0686458 0.0808562 0.0686737 0.0562795 0.0685398 0.0553065 0.0756182
96 3 O 1.45147 20.239 52.7294 -1.2 1 0.0662857 0.0403476 0.0302907 0.0216119 0.0235559 0.0453532 0.0569823 0.0547597 0.0541213 0.0443235 0.0462834 0.0498182 0.0578893 0.06648 0.104558 0.0730336 0.0715439 0.0597804 0.073593 0.0586213
97 3 O -0.0202371 19.8455 55.7762 -1.2 1 0.00972848 0.0156101 0.0237003 0.0268206 0.0236945 0.0213342 0.0384076 0.049036 0.0412803 0.0516249 0.0554175 0.0418183 0.0546468 0.0591832 0.0882539 0.0741398 0.071543 0.0636468 0.0624492 0.0753959
98 3 O 2.59049 19.8979 55.672 -1.2 1 0.00505254 0.0249522 0.0267835 0.0189076 0.0222616 0.0240912 0.0486663 0.0459853 0.0347593 0.0466067 0.0539269 0.0403643 0.0544791 0.0673717 0.0857725 0.0789175 0.0735593 0.0660093 0.0641211 0.0622601
99 1 Mg -0.126194 18.8651 52.2079 1.2 1 0.102278 0.0625895 0.0296393 0.0442991 0.032298 0.0437448 0.0348898 0.0749621 0.0277985 0.0860705 0.0241206 0.054384 0.0267278 0.0746611 0.0317187 0.111401 0.0421326 0.101308 0.040112 0.104612
100 1 Mg 1.92402 18.5815 49.4545 1.2 1 0.265342 0.105844 0.0393807 0.0426768 0.0328848 0.035785 0.0682977 0.0463783 0.0716479 0.0721238 0.0770663 0.0549522 0.0692972 0.0668961 0.0832903 0.092515 0.0793342 0.100325 0.085213 0.084705
101 2 Si 1.38106 20.9117 51.2443 2.4 1 0.126079 0.088412 0.0404591 0.0406364 0.03868 0.0492936 0.0554281 0.0425736 0.0548149 0.0679993 0.0673729 0.0747652 0.0719723 0.0716126 0.0922997 0.0839814 0.076696 0.0834058 0.0729566 0.0648049
102 3 O 1.48527 22.4795 51.3054 -1.2 1 0.13952 0.0734458 0.0300799 0.0324758 0.0387584 0.0426563 0.0403883 0.0673904 0.0564161 0.0618882 0.0454406 0.0775254 0.0697952 0.0712675 0.0742702 0.0691938 0.0744689 0.0771395 0.0671408 0.0710623
103 3 O 1.43525 19.7791 57.8837 -1.2 1 0.0169926 0.0180374 0.0247406 0.0191945 0.0170312 0.0335713 0.0291377 0.0449431 0.0558144 0.0462205 0.0466559 0.041077 0.0510221 0.0729816 0.103828 0.0760711 0.0662122 0.050922 0.0743259 0.0663637
104 3 O 0.0615419 20.2804 50.6669 -1.2 1 0.185318 0.0825945 0.0227987 0.0216312 0.0479598 0.0382349 0.0569173 0.0622715 0.0540339 0.0564367 0.0632677 0.048678 0.0599443 0.0773691 0.095488 0.0785822 0.0747176 0.0810236 0.0705499 0.0846185
105 1 Mg -3.09665 18.8643 52.3122 1.2 1 0.0734952 0.0595033 0.0323549 0.0342368 0.0194911 0.0541221 0.032478 0.062592 0.0331352 0.08002 0.0327839 0.0490224 0.0250842 0.0747152 0.0329537 0.111139 0.0453172 0.103592 0.0422616 0.089852
106 3 O 2.61548 20.2646 50.4626 -1.2 1 0.197726 0.092256 0.0233229 0.0181081 0.0397057 0.0495951 0.0582711 0.0477694 0.0542348 0.0654456 0.0649779 0.0690352 0.0551997 0.0614882 0.0996007 0.0729965 0.0772152 0.0703294 0.0658366 0.0879769
107 1 Mg -1.73968 18.9441 55.0993 1.2 1 0.0236451 0.0140709 0.0189163 0.0266723 0.0157717 0.0275964 0.0219258 0.0309142 0.0399946 0.0588876 0.0566359 0.0580545 0.0618983 0.0632447 0.0647687 0.0793722 0.0782899 0.0924767 0.0661705 0.0874364
108 2 Si -1.60774 16.856 53.2488 2.4 1 0.0531909 0.0437429 0.0181545 0.0253805 0.0360084 0.0311655 0.0481356 0.054732 0.0585736 0.06356 0.0621534 0.0723719 0.0784234 0.0525582 0.0757294 0.0621533 0.064429 0.0875247 0.0595361 0.0589355
109 3 O -1.66032 15.2916 53.0724 -1.2 1 0.0597009 0.0533555 0.0219705 0.0202189 0.0350219 0.0333082 0.0392667 0.0722809 0.052152 0.0544889 0.0524364 0.0686528 0.0577487 0.0737661 0.0768761 0.067522 0.0526887 0.0744374 0.0583486 0.084072
110 3 O -1.12868 18.1227 46.4249 -1.2 1 0.522063 0.0667284 0.0727599 0.052091 0.0577312 0.0651469 0.0608685 0.0789164 0.0792512 0.0617422 0.0448073 0.068157 0.0677315 0.087288 0.116119 0.114664 0.107326 0.101118 0.0624286 0.0921814
111 3 O -2.96516 17.499 53.9908 -1.2 1 0.0297692 0.0207963 0.0301552 0.0228422 0.0170001 0.0277062 0.0530675 0.04028 0.0418489 0.0521204 0.0553046 0.0377103 0.0580413 0.0664948 0.080086 0.0696028 0.0638117 0.066149 0.0630464 0.0777243
112 3 O -0.366554 17.4948 53.876 -1.2 1 0.0523385 0.0295891 0.0299469 0.02212 0.0266581 0.0225783 0.0372317 0.0502189 0.0411294 0.0532185 0.0592048 0.0474286 0.0532556 0.0644711 0.0939655 0.0594727 0.0839902 0.0614658 0.0722573 0.0703847
113 1 Mg -2.98405 26.0169 57.6206 1.2 1 0.00884928 0.0174245 0.0124709 0.0308932 0.0130306 0.0378857 0.0148288 0.0523182 0.0216593 0.0822456 0.0200939 0.0423747 0.019399 0.0588589 0.0337142 0.0973871 0.0426832 0.108537 0.0521982 0.088117
114 1 Mg -1.48778 25.88 49.8402 1.2 1 0.226377 0.0842382 0.0239093 0.0430889 0.0302312 0.0524909 0.0541242 0.0547575 0.0515095 0.0615315 0.0631993 0.0644156 0.0741583 0.0759277 0.103249 0.0819051 0.0732669 0.0948411 0.0819236 0.0838491
115 2 Si -1.00491 23.3922 47.9274 2.4 1 0.367806 0.0725003 0.0708371 0.0697727 0.0335173 0.0767144 0.0430499 0.0839047 0.0708376 0.0742056 0.0502049 0.0752152 0.0597423 0.07692 0.0954998 0.0769828 0.103302 0.0957856 0.0889908 0.0948745
116 3 O -0.927602 24.9615 47.9909 -1.2 1 0.361312 0.0763201 0.053067 0.0610789 0.0471264 0.0925635 0.0614642 0.0816157 0.052848 0.0867378 0.0538233 0.072728 0.0616739 0.0833145 0.083252 0.0755901 0.096613 0.076522 0.0721079 0.0698935
117 3 O -1.55795 22.2588 51.7696 -1.2 1 0.111747 0.0570435 0.0352659 0.0281244 0.0327282 0.0546483 0.0588207 0.0496008 0.06394 0.0518742 0.0569451 0.0485732 0.0510748 0.0840913 0.100449 0.0751356 0.0820783 0.0457571 0.0748957 0.0739379
118 3 O -2.17411 22.8111 48.8277 -1.2 1 0.297195 0.101044 0.0613931 0.0278769 0.0622931 0.0509596 0.0581062 0.07279 0.0590816 0.0666083 0.0714516 0.0613145 0.0570802 0.0580543 0.079245 0.0884161 0.087366 0.0786438 0.0827752 0.0896514
119 1 Mg 0.0423997 21.3296 46.8225 1.2 1 0.481603 0.0220539 0.0807229 0.0326332 0.0662858 0.0883722 0.0791259 0.0847279 0.068674 0.0844452 0.0856296 0.0621995 0.0632247 0.0777508 0.0764988 0.0935849 0.0945498 0.097244 0.0997401 0.105366
120 3 O 0.458537 22.7495 48.3911 -1.2 1 0.341329 0.0832494 0.0584301 0.0417266 0.0443112 0.0598211 0.0424149 0.0679869 0.0674886 0.0737019 0.0613297 0.056862 0.0654148 0.0868003 0.0937726 0.0766483 0.0940252 0.100866 0.0818038 0.0889687
121 1 Mg 1.52688 21.3175 54.5811 1.2 1 0.00959089 0.0268675 0.0139068 0.0338435 0.0154524 0.0179716 0.0203199 0.0334047 0.0454091 0.0573541 0.061327 0.0554806 0.0595286 0.0667542 0.0618706 0.084739 0.0736898 0.0914649 0.0742148 0.081648
122 2 Si 1.39206 23.9114 56.4262 2.4 1 0.00796562 0.0183777 0.0225049 0.0239397 0.0356731 0.0331027 0.0422977 0.0386554 0.0544397 0.0536511 0.0538255 0.0620897 0.0708931 0.056305 0.0806813 0.063621 0.0573996 0.0826344 0.0609213 0.0582267
123 3 O 1.40761 22.3961 56.6192 -1.2 1 0.0291091 0.0140199 0.0140267 0.0203142 0.0195341 0.0318428 0.0309229 0.0640669 0.0457327 0.049425 0.0415666 0.0719154 0.0521524 0.067436 0.0763459 0.0724571 0.0599009 0.0774972 0.0477534 0.0875795
124 3 O 1.54441 24.9963 52.7297 -1.2 1 0.0603224 0.0447743 0.0318611 0.018223 0.0278867 0.0418506 0.0543007 0.05624 0.0502855 0.0482768 0.0487491 0.0471412 0.0579527 0.0711338 0.103077 0.0771377 0.070488 0.0578139 0.0713598 0.0618708
125 3 O 0.125027 24.6357 55.7873 -1.2 1 0.0119476 0.0159484 0.0276562 0.022291 0.0173311 0.0226231 0.0426565 0.0467021 0.0447084 0.0414638 0.0583989 0.0399352 0.0508275 0.0538035 0.0893408 0.0716302 0.0710914 0.0575979 0.0636688 0.0768464
126 3 O 2.66977 24.5117 55.6708 -1.2 1 0.0155673 0.0160518 0.0232767 0.0151519 0.0265112 0.0225686 0.0506456 0.045927 0.0386213 0.047462 0.0589953 0.0329904 0.0561952 0.0810262 0.0732046 0.086157 0.0718588 0.0712095 0.0620821 0.0672045