ITEM: TIMESTEP
40500
ITEM: NUMBER OF ATOMS
10500
ITEM: BOX BOUNDS xy xz yz pp pp pp
0	8.9688	2.9896
0	118.725	0
0	252.977	0
ITEM: ATOMS id type element xu yu zu q Q_1 Q_2 Q_3 Q_4 Q_5 Q_6 Q_7 Q_8 Q_9 Q_10 Q_11 Q_12 Q_13 Q_14 Q_15 Q_16 Q_17 Q_18 Q_19 Q_20 Q_21
1 1 Mg -3.06715 7.10757 57.4464 1.2 1 0.0118762 0.0214851 0.0134331 0.0242753 0.00998455 0.0297006 0.0168982 0.0562184 0.0180731 0.0779792 0.0232881 0.0493724 0.0243483 0.0688744 0.0347142 0.0971097 0.0397623 0.113918 0.0412694 0.0908171
2 1 Mg -1.82655 6.90154 50.0912 1.2 1 0.224152 0.0848555 0.0338591 0.0338617 0.028641 0.0553912 0.0467565 0.0427778 0.0532204 0.0698652 0.0592373 0.0708718 0.0694142 0.0624747 0.0959512 0.0587007 0.0863285 0.100455 0.0743626 0.0790515
3 2 Si -0.257935 3.96038 48.0876 2.4 1 0.374841 0.0685031 0.071516 0.0350837 0.0604627 0.049559 0.0738555 0.0770431 0.0602686 0.0783636 0.0567773 0.0722106 0.0646748 0.0838194 0.0963467 0.101002 0.109618 0.0896792 0.0706273 0.0719795
4 3 O -0.335812 5.46814 47.6264 -1.2 1 0.427177 0.0391795 0.064269 0.0317047 0.0403985 0.0463661 0.0656602 0.0720948 0.087134 0.0756652 0.0931513 0.0768404 0.0709418 0.0683379 0.0924802 0.125515 0.0927103 0.0781002 0.0767388 0.0791899
5 3 O -2.03793 3.43377 51.8941 -1.2 1 0.113556 0.0595539 0.0284425 0.0237701 0.0226477 0.0504154 0.0598627 0.0490701 0.0503275 0.0573026 0.0646109 0.051967 0.0497372 0.0763271 0.0875905 0.081456 0.0653433 0.0576388 0.0665715 0.0696884
6 3 O -1.54015 3.53929 48.9521 -1.2 1 0.30157 0.0913196 0.0330409 0.048722 0.0288199 0.0496515 0.0742601 0.0488504 0.0555292 0.0625568 0.0733665 0.0655853 0.0723584 0.0713713 0.0744495 0.11043 0.0830541 0.0796966 0.0753039 0.0937925
7 1 Mg 1.82954 2.54582 47.1376 1.2 1 0.461911 0.0231891 0.0864919 0.0547281 0.0400319 0.0831732 0.0611489 0.0601247 0.0729862 0.0848757 0.0677182 0.0787521 0.0820264 0.083418 0.0701066 0.0976273 0.101735 0.104765 0.105662 0.0968614
8 3 O 1.22989 3.66364 48.7877 -1.2 1 0.321998 0.0699865 0.0203359 0.0434239 0.030944 0.0643723 0.0783666 0.0322387 0.0820787 0.0785895 0.0493133 0.0752939 0.0815289 0.0682937 0.066572 0.0875605 0.0939151 0.0894275 0.0929738 0.0937736
9 1 Mg 1.18226 2.38125 54.6723 1.2 1 0.016438 0.0160521 0.0162738 0.0275613 0.0282579 0.0259616 0.0288732 0.0282348 0.045185 0.0565253 0.0546564 0.0553468 0.0545383 0.0684057 0.0567746 0.0881977 0.0629272 0.0925262 0.0740612 0.0746555
10 2 Si 1.34594 5.04192 56.3823 2.4 1 0.00890004 0.0129305 0.0271568 0.0189168 0.0271055 0.0306299 0.0327462 0.0491129 0.0521692 0.0483282 0.0519458 0.0594054 0.0699123 0.0539602 0.0802725 0.0692187 0.0638604 0.0987554 0.0613598 0.0519683
11 3 O 1.15888 3.49828 56.3917 -1.2 1 0.0112788 0.0101725 0.0132029 0.0287075 0.0290382 0.0269541 0.023952 0.0636422 0.0424148 0.0540986 0.0392476 0.0656256 0.0608892 0.0620532 0.0678548 0.0712621 0.0566714 0.0727117 0.066385 0.0640353
12 3 O 1.10813 6.07342 52.8172 -1.2 1 0.0895839 0.0436598 0.0231182 0.0171554 0.0204509 0.0463631 0.0389202 0.0537216 0.048735 0.0444872 0.0550974 0.051416 0.0693102 0.0648565 0.0837559 0.0844273 0.0590714 0.0699954 0.0694297 0.0682052
13 3 O -0.0460975 5.67106 55.6937 -1.2 1 0.0202264 0.0163971 0.0238421 0.0230476 0.0226811 0.0164564 0.0373076 0.0381428 0.03618 0.0475167 0.0521312 0.0392085 0.0516993 0.0549416 0.0816036 0.070483 0.0730924 0.0622871 0.0662518 0.0657917
14 3 O 2.55781 5.83367 55.7207 -1.2 1 0.0168288 0.022654 0.0292416 0.020093 0.0226193 0.0188543 0.0428517 0.0470189 0.0431262 0.0407454 0.0529426 0.0400747 0.0533174 0.0533005 0.0822372 0.0676578 0.0683927 0.0746213 0.0553688 0.073858
15 1 Mg -0.459401 4.67631 52.2426 1.2 1 0.089554 0.0693176 0.0330066 0.0414084 0.0306352 0.0298941 0.039835 0.0642178 0.0468614 0.07473 0.0441253 0.0609529 0.0476691 0.073193 0.0436387 0.103428 0.052325 0.0905511 0.0594096 0.0796671
16 1 Mg 2.79456 3.9971 49.9987 1.2 1 0.22448 0.0949801 0.03001 0.0394852 0.0422844 0.0613936 0.0553999 0.053739 0.0776046 0.0613085 0.0616779 0.0555142 0.0624055 0.0711718 0.0876618 0.0798905 0.0720079 0.0895836 0.081481 0.0699839
17 2 Si 1.16169 6.59457 51.2556 2.4 1 0.143777 0.0817875 0.0364196 0.0319231 0.0419173 0.0496141 0.0455812 0.0443476 0.0598938 0.0696131 0.0638032 0.0736969 0.07085 0.0617073 0.0858282 0.0880883 0.0778602 0.0889967 0.0741165 0.06149
18 3 O 1.28989 8.18905 51.2909 -1.2 1 0.167893 0.0676625 0.0253815 0.0351745 0.0297997 0.0430119 0.0381666 0.0690014 0.0433372 0.0681585 0.0436251 0.0857762 0.0679046 0.0612945 0.0785075 0.0694333 0.0732738 0.0659677 0.0724447 0.0680211
19 3 O 1.30973 5.66127 57.8607 -1.2 1 0.013247 0.0278324 0.0189256 0.0202626 0.0196926 0.0360433 0.0305765 0.0419302 0.0523793 0.044748 0.0422957 0.048766 0.0554924 0.0638349 0.104205 0.0747336 0.0602739 0.0546903 0.0752641 0.0615381
20 3 O -0.184847 6.06029 50.6845 -1.2 1 0.185049 0.0853002 0.0234579 0.0302838 0.0360276 0.0331306 0.0502003 0.0554726 0.0582859 0.0624997 0.0632439 0.0761836 0.0666265 0.0614757 0.0887234 0.0726733 0.0813404 0.0759263 0.0624293 0.0816553
21 1 Mg -3.49704 4.67769 52.6661 1.2 1 0.0763018 0.0501113 0.0229948 0.0261284 0.0178793 0.0423736 0.0334326 0.0522558 0.055582 0.0689964 0.04467 0.0522448 0.0476165 0.0456704 0.0574952 0.0867079 0.0871757 0.0776672 0.072033 0.0752288
22 3 O 2.48581 5.93312 50.6539 -1.2 1 0.196541 0.0898501 0.0349832 0.0208588 0.0300963 0.047656 0.0583803 0.0598909 0.0439677 0.0628638 0.0478891 0.065132 0.0600222 0.0589203 0.0985516 0.0629175 0.0755983 0.0646134 0.0785982 0.0756494
23 1 Mg -1.75838 4.67073 55.2443 1.2 1 0.0198249 0.0211857 0.0193268 0.0286727 0.0211117 0.0177784 0.0240915 0.0378308 0.0381844 0.050447 0.0523773 0.0574141 0.0572379 0.0594202 0.0606967 0.0678344 0.0849542 0.0889706 0.0658821 0.0748635
24 2 Si -1.82907 2.69471 53.2175 2.4 1 0.0448537 0.0369649 0.028978 0.0159633 0.0238661 0.0250944 0.0470569 0.0471994 0.0694549 0.0633982 0.0550308 0.0697362 0.0714749 0.0463067 0.0738641 0.0602145 0.0796556 0.0860513 0.0765395 0.0505686
25 3 O -2.0426 1.16448 53.1515 -1.2 1 0.0515892 0.0405199 0.0324755 0.024359 0.0214496 0.0360495 0.0236303 0.0650875 0.0617025 0.0533499 0.0524913 0.0655666 0.0559219 0.0745697 0.0794334 0.0721282 0.0485915 0.0781863 0.0611665 0.0803871
26 3 O -0.0467762 2.97103 46.8385 -1.2 1 0.497801 0.0370228 0.0872292 0.0299545 0.0807473 0.0676205 0.080425 0.0718225 0.0728641 0.0795481 0.0820161 0.0758565 0.0976455 0.0902581 0.0896182 0.0880166 0.0983887 0.0963054 0.103737 0.109952
27 3 O -3.03552 3.35227 54.2173 -1.2 1 0.0281934 0.0211367 0.0237216 0.0175411 0.0237414 0.0309751 0.0332107 0.0376357 0.0451198 0.050154 0.0627302 0.0467027 0.0553426 0.0572889 0.0763534 0.0693259 0.0568647 0.0767314 0.0672716 0.0559272
28 3 O -0.518022 3.31586 53.9181 -1.2 1 0.0475698 0.0320164 0.027512 0.015773 0.0258885 0.0317007 0.0409845 0.042701 0.0435813 0.0541187 0.0564133 0.0448081 0.0553048 0.063957 0.0801761 0.063176 0.0737373 0.077999 0.0635126 0.0576358
29 1 Mg -3.20956 11.6179 57.3568 1.2 1 0.016665 0.0122973 0.0111341 0.0230312 0.0128902 0.0341733 0.0199332 0.0587398 0.0167405 0.0773898 0.0279317 0.0539909 0.0288004 0.0732926 0.0284353 0.0948538 0.0437408 0.113297 0.0412242 0.0841611
30 1 Mg -1.75014 11.5838 49.8362 1.2 1 0.233587 0.0785738 0.0263883 0.0390148 0.0294858 0.0516794 0.0502417 0.0529719 0.0475774 0.0547739 0.0622791 0.0626105 0.071848 0.0701541 0.10779 0.0874304 0.0662748 0.0961237 0.0857937 0.0791352
31 2 Si -1.18003 9.02138 47.9309 2.4 1 0.367418 0.0713473 0.0694575 0.0545431 0.0408509 0.0603244 0.0731046 0.0772294 0.0693722 0.0667692 0.0593389 0.0670185 0.0682376 0.0810851 0.102924 0.0645153 0.0999662 0.092604 0.103979 0.085861
32 3 O -1.23224 10.5991 47.9811 -1.2 1 0.374612 0.0668774 0.0615783 0.0538591 0.0510052 0.0720146 0.0691936 0.0784197 0.0586615 0.087707 0.0702537 0.0631837 0.0730844 0.0814453 0.0850657 0.0726167 0.0905648 0.0788197 0.0655597 0.0739992
33 3 O -1.79016 8.01447 51.8693 -1.2 1 0.119281 0.0613366 0.0312918 0.0259112 0.0287267 0.0435622 0.058376 0.0593243 0.0559195 0.0530752 0.0493458 0.0538188 0.0646145 0.0823997 0.0911661 0.0733429 0.069321 0.0537102 0.0713812 0.0690025
34 3 O -2.30986 8.37215 48.8528 -1.2 1 0.320222 0.0749388 0.0601913 0.0297567 0.0502505 0.0632376 0.0668298 0.0647078 0.0556593 0.0645255 0.077107 0.0675217 0.0576418 0.0628975 0.080361 0.0913536 0.0971666 0.0798178 0.0775924 0.0926976
35 1 Mg 0.154883 7.08234 46.8007 1.2 1 0.497233 0.0357028 0.0755297 0.0386245 0.0643374 0.0741125 0.0584673 0.0690441 0.0712438 0.0821035 0.0887526 0.076253 0.0789274 0.0796391 0.0706907 0.0928085 0.0921076 0.107166 0.114008 0.101521
36 3 O 0.325447 8.50934 48.3809 -1.2 1 0.349646 0.0772751 0.062244 0.0443754 0.0346055 0.0504469 0.0394097 0.0576556 0.0614845 0.0655914 0.0733699 0.0628171 0.0800139 0.0925214 0.0890878 0.0690196 0.0923439 0.101618 0.0849095 0.0851955
37 1 Mg 1.14863 7.13601 54.6254 1.2 1 0.0153316 0.0316056 0.0163297 0.0285125 0.0150104 0.0275252 0.0211146 0.033169 0.0450483 0.0594656 0.0633871 0.0525386 0.0549242 0.0607983 0.0662163 0.0895766 0.0679106 0.0783218 0.0789402 0.078024
38 2 Si 1.23299 9.61715 56.3381 2.4 1 0.00753143 0.0290705 0.0153037 0.0185529 0.0303318 0.0246607 0.0374255 0.0434096 0.0410658 0.0619579 0.059018 0.05715 0.0620211 0.0578957 0.0707999 0.0730301 0.0581085 0.0917151 0.0686789 0.0583161
39 3 O 1.29658 8.14089 56.5494 -1.2 1 0.0301961 0.0173848 0.0168929 0.0189454 0.0248692 0.0194481 0.0220414 0.0690367 0.0401503 0.0443529 0.0452582 0.065186 0.0531613 0.0653533 0.0756453 0.064854 0.0566403 0.0722115 0.0552148 0.0744769
40 3 O 1.28624 10.7248 52.7351 -1.2 1 0.0753955 0.0485868 0.0274944 0.0205863 0.029301 0.0488788 0.0499242 0.0519686 0.0438308 0.0496991 0.0492559 0.0457439 0.0581555 0.069894 0.0961504 0.0797212 0.0607767 0.0586325 0.0721002 0.0630619
41 3 O 0.0114886 10.4433 55.8867 -1.2 1 0.0102486 0.0236567 0.0294932 0.0155397 0.0207211 0.0268559 0.0412658 0.0337405 0.0394695 0.0344904 0.0557653 0.0407812 0.0476829 0.0554717 0.0867841 0.0704513 0.0785849 0.0576246 0.0710849 0.0699161
42 3 O 2.53284 10.3926 55.6815 -1.2 1 0.0118731 0.0201507 0.0211822 0.0211895 0.0226396 0.0188084 0.0518672 0.0449414 0.0336924 0.0453068 0.0562868 0.039378 0.0563971 0.0649323 0.0893052 0.0782736 0.0723192 0.0701132 0.0616875 0.0621989
43 1 Mg -0.262694 9.34741 52.2523 1.2 1 0.115079 0.0637684 0.01783 0.039776 0.0333129 0.042385 0.03529 0.0737085 0.0282375 0.0869399 0.02708 0.0585193 0.0391335 0.0712912 0.0420046 0.105445 0.0498878 0.087781 0.0487161 0.100412
44 1 Mg 1.87648 9.01537 49.4629 1.2 1 0.279149 0.0869761 0.037604 0.0331464 0.033553 0.0453584 0.0653128 0.0511991 0.0747498 0.0654149 0.0871672 0.0567566 0.0837179 0.0658243 0.0839722 0.0942129 0.0875335 0.0961503 0.0865025 0.0839995
45 2 Si 1.21415 11.3799 51.2378 2.4 1 0.139366 0.0818581 0.0403678 0.0393022 0.0398508 0.0495463 0.0562236 0.0403848 0.0551187 0.0633855 0.0744017 0.0704649 0.0746601 0.0678608 0.0943021 0.0881651 0.0789056 0.0777267 0.0786528 0.0646107
46 3 O 1.31634 12.9512 51.3023 -1.2 1 0.143217 0.0751498 0.024183 0.0294623 0.0335025 0.0430028 0.0420667 0.067682 0.052995 0.0713321 0.0447727 0.0761921 0.0683701 0.065054 0.0760706 0.0717104 0.0781991 0.068023 0.0723635 0.0709703
47 3 O 1.37732 10.3772 57.9171 -1.2 1 0.0132419 0.016813 0.0222263 0.0153118 0.0200855 0.0328035 0.0278422 0.0443842 0.0515416 0.0451328 0.0378888 0.0481119 0.0481212 0.0638743 0.106871 0.0621383 0.0689492 0.0534973 0.0673632 0.0702651
48 3 O -0.115718 10.7564 50.681 -1.2 1 0.197324 0.0777227 0.0268001 0.0237909 0.0433119 0.0311587 0.0514268 0.0664305 0.0526036 0.0595719 0.0627742 0.0435872 0.0586997 0.0761856 0.0952967 0.0807164 0.0749015 0.0720621 0.0773432 0.0786276
49 1 Mg -3.26386 9.35564 52.3622 1.2 1 0.0750601 0.0564177 0.0281531 0.0272012 0.0165778 0.0548926 0.0392102 0.0544568 0.0315096 0.0894881 0.0329008 0.0471647 0.0379169 0.0656435 0.0407988 0.109344 0.0531153 0.102563 0.0547237 0.0959842
50 3 O 2.45216 10.7265 50.4558 -1.2 1 0.206271 0.0876392 0.0173923 0.0130216 0.0363155 0.0557917 0.0537532 0.0474985 0.0541006 0.0654558 0.0584438 0.077092 0.0554378 0.0619822 0.0951122 0.0786333 0.075535 0.0762953 0.0627922 0.0881265
51 1 Mg -1.77913 9.49738 55.2406 1.2 1 0.0259581 0.0214051 0.0198809 0.0292015 0.0193515 0.0202486 0.0267106 0.0315972 0.0381549 0.0584371 0.0558796 0.0599262 0.0591443 0.059166 0.0657657 0.0661007 0.0854661 0.0862875 0.0777369 0.0687297
52 2 Si -1.73608 7.30868 53.383 2.4 1 0.0594423 0.0424543 0.0224174 0.0242445 0.0316704 0.0281324 0.0429445 0.0528972 0.058253 0.0670342 0.0642249 0.0577733 0.0713676 0.0522136 0.0674187 0.0704041 0.0646558 0.0857865 0.0652942 0.0611839
53 3 O -1.83747 5.80198 53.2403 -1.2 1 0.0722923 0.034071 0.0201981 0.0192231 0.0168231 0.02967 0.0343807 0.0637831 0.0488257 0.0618483 0.0353394 0.0764111 0.0489776 0.0738596 0.0664546 0.0671479 0.0548085 0.0658816 0.0704527 0.0707279
54 3 O -1.19417 8.46968 46.4488 -1.2 1 0.524999 0.06622 0.0664172 0.0511047 0.0665542 0.0555685 0.0778919 0.0545585 0.0758379 0.0707254 0.0563876 0.0506327 0.0697089 0.0983579 0.130117 0.112869 0.0969614 0.0955085 0.0831501 0.0826826
55 3 O -2.94509 8.11319 54.0555 -1.2 1 0.0406325 0.0214749 0.0238585 0.0215358 0.0258251 0.0275408 0.0449352 0.0477055 0.0376045 0.0552225 0.0564188 0.0404795 0.0601498 0.059348 0.0837198 0.0628546 0.0685425 0.06739 0.0638436 0.0735293
56 3 O -0.408887 8.038 53.9287 -1.2 1 0.0545682 0.0365391 0.0305176 0.0261598 0.028434 0.0227731 0.0359443 0.0494715 0.0452287 0.0536341 0.0597256 0.0532555 0.0575777 0.0561121 0.0848677 0.0544721 0.0748497 0.0666726 0.0765607 0.0720505
57 1 Mg -2.88733 16.5517 57.2264 1.2 1 0.0148326 0.0108267 0.0112181 0.0262342 0.0146491 0.0242989 0.0223812 0.0514941 0.0353709 0.0754907 0.0235119 0.0468936 0.0219987 0.0660178 0.0312086 0.101316 0.0437356 0.102712 0.0474746 0.0756136
58 1 Mg -1.6714 16.3544 49.8412 1.2 1 0.2349 0.0803952 0.0226865 0.0390778 0.0287267 0.0494392 0.0553016 0.0503247 0.0485784 0.0603708 0.0649101 0.0655067 0.0731855 0.0714141 0.101652 0.0850359 0.0778957 0.0966515 0.0860431 0.0811289
59 2 Si -1.18567 13.8526 47.9314 2.4 1 0.380832 0.0576437 0.0658848 0.0693066 0.0259705 0.0651765 0.047946 0.0786708 0.0562385 0.0658841 0.0570485 0.0723934 0.0615233 0.0755924 0.0981428 0.0726098 0.103359 0.0985584 0.0906304 0.0884539
60 3 O -1.09664 15.4205 47.9915 -1.2 1 0.37389 0.0595397 0.0425846 0.0613647 0.0470812 0.0914372 0.0610403 0.0813585 0.0541261 0.0868861 0.0546218 0.0729061 0.063013 0.080714 0.0772935 0.0726235 0.0927445 0.0734815 0.0739107 0.0693464
61 3 O -1.73493 12.7491 51.7772 -1.2 1 0.113721 0.0593038 0.0293096 0.0283223 0.0365866 0.0515039 0.0622065 0.0530818 0.0620723 0.0512338 0.0588143 0.049951 0.0573621 0.0854792 0.100576 0.0796947 0.0822178 0.0521983 0.0694569 0.0693556
62 3 O -2.36115 13.2717 48.8238 -1.2 1 0.316155 0.0800751 0.0505392 0.033534 0.0529563 0.0491323 0.0535905 0.0689913 0.0607002 0.0679182 0.0728415 0.0612872 0.0585429 0.0531739 0.0821959 0.0864084 0.0871735 0.0780052 0.080636 0.086252
63 1 Mg -0.159928 11.7639 46.8533 1.2 1 0.482397 0.0245276 0.0768922 0.0340878 0.0535163 0.0966798 0.0707322 0.0888434 0.0829714 0.0840271 0.0843514 0.0693142 0.0721042 0.0915578 0.0773219 0.0859963 0.0963118 0.0977678 0.101321 0.10737
64 3 O 0.2623 13.1866 48.413 -1.2 1 0.33964 0.0854946 0.0574943 0.0420404 0.0430756 0.0566935 0.0426935 0.0661376 0.067239 0.07013 0.0644414 0.06255 0.0670972 0.0892652 0.0984487 0.0816895 0.095604 0.097664 0.0826226 0.0865762
65 1 Mg 1.3026 11.8109 54.601 1.2 1 0.0249362 0.0236676 0.0227489 0.0295798 0.0148658 0.0192812 0.0250355 0.0347755 0.0427445 0.0574164 0.0593501 0.0543543 0.0566187 0.0669425 0.0600402 0.0904698 0.0677112 0.0937633 0.0771413 0.0788992
66 2 Si 1.5935 14.3969 56.2959 2.4 1 0.0203182 0.0259808 0.0190336 0.0318067 0.0301913 0.0288225 0.0405313 0.0337089 0.0524857 0.0549231 0.0541328 0.064643 0.0631453 0.0535828 0.0760398 0.0745626 0.0667683 0.0873677 0.0674221 0.0592594
67 3 O 1.47116 12.8753 56.3675 -1.2 1 0.0225025 0.0241353 0.0169315 0.0258727 0.0298643 0.0264569 0.0170919 0.0747145 0.0332291 0.0548136 0.036439 0.0676463 0.0557627 0.0602294 0.0733586 0.0639174 0.0595654 0.0745155 0.0618918 0.065741
68 3 O 1.36565 15.4813 52.729 -1.2 1 0.0776852 0.0397156 0.028604 0.0246413 0.0214608 0.0420098 0.0476764 0.0525426 0.0478663 0.0481317 0.0441069 0.0500432 0.0619446 0.067515 0.0971055 0.0766044 0.0708316 0.060911 0.0784065 0.0605202
69 3 O 0.267315 15.0938 55.6734 -1.2 1 0.00577169 0.0156815 0.0245885 0.0153592 0.0185344 0.0189981 0.0378268 0.0373232 0.0334842 0.04567 0.0537552 0.0445145 0.0521721 0.0630328 0.0843625 0.070397 0.0798603 0.0539676 0.0731613 0.0591759
70 3 O 2.90777 15.0844 55.5982 -1.2 1 0.0070634 0.0211916 0.0210867 0.0180514 0.0201504 0.0273521 0.035684 0.0456379 0.0421691 0.0508245 0.0539577 0.0264681 0.0615812 0.0628826 0.0766694 0.0801002 0.073368 0.07161 0.0647387 0.0700616
71 1 Mg -0.206989 14.1049 52.2121 1.2 1 0.104719 0.0646885 0.0248761 0.0459299 0.028996 0.0382518 0.0410666 0.0712348 0.0294646 0.0826339 0.0272464 0.0558217 0.0345244 0.0722308 0.0373023 0.107174 0.0501338 0.0993112 0.0503466 0.0907316
72 1 Mg 1.82591 13.8102 49.4556 1.2 1 0.266845 0.103618 0.0384263 0.0362117 0.0307514 0.033079 0.0642308 0.0491352 0.0733081 0.0779579 0.079607 0.0586817 0.075034 0.0729588 0.0813391 0.0903657 0.0802852 0.10118 0.0910246 0.0821223
73 2 Si 1.29285 16.1518 51.2434 2.4 1 0.12896 0.0907816 0.0340364 0.0404787 0.0353099 0.0514717 0.0531058 0.0435139 0.053913 0.074543 0.07039 0.0630395 0.0751881 0.066626 0.0892644 0.0827144 0.0770988 0.0809694 0.0718983 0.0605365
74 3 O 1.39496 17.7199 51.3047 -1.2 1 0.131079 0.0889989 0.0209762 0.030549 0.0340832 0.04622 0.0400627 0.0660138 0.0586676 0.0675643 0.0461546 0.0814656 0.0671843 0.068067 0.0811584 0.0643973 0.0758515 0.0764061 0.0696034 0.0723061
75 3 O 1.65369 15.1196 57.8554 -1.2 1 0.0142173 0.0162937 0.0165259 0.0287567 0.0148598 0.0398782 0.0319636 0.0442624 0.0520308 0.0414106 0.0464332 0.0396048 0.0562191 0.0683516 0.0911812 0.0747261 0.0619679 0.054318 0.0701204 0.0551384
76 3 O -0.0269106 15.5178 50.6688 -1.2 1 0.179966 0.089671 0.0249358 0.0277599 0.0426089 0.0394088 0.0608079 0.0643454 0.0560833 0.0600806 0.0604901 0.0483216 0.0641086 0.0745908 0.0945179 0.0815491 0.0776665 0.0801415 0.0734159 0.0876822
77 1 Mg -3.18391 14.1057 52.3125 1.2 1 0.0728989 0.0554257 0.0340721 0.0325667 0.0154234 0.051081 0.0399298 0.0587416 0.0332221 0.0838453 0.0322377 0.046684 0.0260672 0.0734913 0.0299751 0.111772 0.052456 0.101723 0.0527064 0.0877664
78 3 O 2.52432 15.503 50.4579 -1.2 1 0.196157 0.0920816 0.0205848 0.0179173 0.0405178 0.052396 0.0535452 0.048398 0.0533737 0.0665706 0.0643569 0.0738905 0.0576706 0.060421 0.10176 0.074062 0.0735013 0.0701826 0.0642565 0.0838717
79 1 Mg -1.42949 14.2351 54.9799 1.2 1 0.0174746 0.0175618 0.0181823 0.0245827 0.0148176 0.0247976 0.0277671 0.0316721 0.0418692 0.0576253 0.0619002 0.0518812 0.0623917 0.0690292 0.0677297 0.0919384 0.0722611 0.0978723 0.0713916 0.0792728
80 2 Si -1.70546 12.034 53.2118 2.4 1 0.0662798 0.0383846 0.0208413 0.0249699 0.0348079 0.0304262 0.0479832 0.0555863 0.0553731 0.0667853 0.0615567 0.0645741 0.0720979 0.0502665 0.0697641 0.0623392 0.0716959 0.0875504 0.0679806 0.065657
81 3 O -1.71773 10.4949 53.1567 -1.2 1 0.0732424 0.0411555 0.0213743 0.0232587 0.0337469 0.0320919 0.0347454 0.0754186 0.0474977 0.0535397 0.0553959 0.0667113 0.0549258 0.0710591 0.0712718 0.064893 0.0502242 0.0617869 0.064553 0.0779882
82 3 O -1.21337 13.3381 46.4311 -1.2 1 0.520148 0.0678048 0.0696987 0.0403636 0.0558873 0.0582301 0.0584263 0.0703564 0.0794593 0.065485 0.0452136 0.0708282 0.0684113 0.0881455 0.120051 0.113569 0.106653 0.100716 0.0597728 0.0913269
83 3 O -2.95511 12.7232 53.9977 -1.2 1 0.0300954 0.0346573 0.0254054 0.0198122 0.0187083 0.0329107 0.0436496 0.0484605 0.0434889 0.0546097 0.0533082 0.0388564 0.0556255 0.0609413 0.0830108 0.0690575 0.0690095 0.0676691 0.0652909 0.0728002
84 3 O -0.315723 12.6616 53.9189 -1.2 1 0.0516216 0.0219495 0.0246306 0.0219546 0.0273091 0.0197838 0.0389624 0.0417093 0.045849 0.0570455 0.0552132 0.0450824 0.0537518 0.0665219 0.0788139 0.0610249 0.0811815 0.0700586 0.0705429 0.0685711
85 1 Mg -2.9941 21.121 57.3703 1.2 1 0.0142346 0.0184076 0.00648035 0.0342509 0.00776948 0.0353777 0.0109947 0.0557345 0.0119264 0.0807552 0.0206054 0.0515988 0.0215196 0.0721879 0.0246653 0.101288 0.0278726 0.118718 0.0286648 0.0949492
86 1 Mg -1.5831 21.1217 49.8405 1.2 1 0.229761 0.0820684 0.0223392 0.0417335 0.0292928 0.0496143 0.0555217 0.0525727 0.0502434 0.0579645 0.0607992 0.06697 0.0740756 0.0736606 0.101466 0.0801199 0.0740866 0.0972812 0.0849203 0.082768
87 2 Si -1.09384 18.6291 47.9287 2.4 1 0.374174 0.0676723 0.0749467 0.0627576 0.0325164 0.0699348 0.0454333 0.0794911 0.065256 0.0693094 0.0516578 0.0717798 0.0606314 0.0744462 0.0990013 0.0765933 0.106252 0.0943862 0.0902966 0.0907861
88 3 O -1.02071 20.1985 47.9911 -1.2 1 0.365795 0.0699313 0.0496368 0.0630715 0.0448707 0.0919223 0.0634443 0.082772 0.0566693 0.0881834 0.054265 0.0718968 0.0606676 0.082554 0.0807818 0.0727059 0.0939889 0.0780681 0.0758589 0.0688023
89 3 O -1.65002 17.5002 51.771 -1.2 1 0.109232 0.0582442 0.0345391 0.0312463 0.0320674 0.0547203 0.0587902 0.0515567 0.0620502 0.0538223 0.0595678 0.0481652 0.0553776 0.0851034 0.0976517 0.0795654 0.0847671 0.0503041 0.0746464 0.06851
90 3 O -2.26174 18.0434 48.8281 -1.2 1 0.311524 0.0836396 0.0523014 0.0369203 0.0556564 0.0486269 0.0537519 0.0730333 0.0600556 0.0664604 0.0704417 0.0571786 0.0531941 0.0590171 0.0784735 0.083189 0.0870089 0.0818777 0.0837038 0.0877686
91 1 Mg -0.0440435 16.5651 46.8269 1.2 1 0.47723 0.0221343 0.085603 0.0315358 0.0650994 0.0834998 0.0791423 0.0905937 0.0696281 0.0812648 0.0859025 0.0651487 0.0654356 0.0799332 0.0793841 0.0967793 0.095676 0.0962695 0.0993384 0.106624
92 3 O 0.37001 17.9877 48.3925 -1.2 1 0.341001 0.0830104 0.0588484 0.0367016 0.0466991 0.0637461 0.044284 0.0693953 0.0653876 0.0737023 0.0618453 0.0563268 0.0635971 0.0869277 0.0986358 0.0790081 0.0963919 0.10383 0.0797613 0.0850768
93 1 Mg 1.33251 16.5431 54.6305 1.2 1 0.0195492 0.0214957 0.0191561 0.0333358 0.0164433 0.0218387 0.0232226 0.0255019 0.0446349 0.0570783 0.0638725 0.0490144 0.0609246 0.0643782 0.0642604 0.0894665 0.0671332 0.0879936 0.0768027 0.0795479
94 2 Si 1.58324 19.0863 56.4145 2.4 1 0.0183294 0.0110006 0.0203958 0.0273313 0.0264966 0.0199155 0.0405534 0.0408367 0.0412679 0.0579768 0.0525655 0.0614797 0.0715392 0.0479403 0.080436 0.0663732 0.0771768 0.088876 0.0545866 0.0591058
95 3 O 1.61095 17.5888 56.4709 -1.2 1 0.0313532 0.0088163 0.0224774 0.0206104 0.0187414 0.021541 0.0202878 0.062409 0.0349801 0.0565978 0.0386494 0.0635226 0.0488421 0.0677036 0.076075 0.0580813 0.0584752 0.0717732 0.0528243 0.0729338
96 3 O 1.45147 20.239 52.7294 -1.2 1 0.0751796 0.0389598 0.0284461 0.0224782 0.0244252 0.0441471 0.0486706 0.0587273 0.0489223 0.0497606 0.0441625 0.0502172 0.0578036 0.0677382 0.0990056 0.0737659 0.0676296 0.0615309 0.0728257 0.0596642
97 3 O 0.295414 19.7387 55.7624 -1.2 1 0.0107362 0.0103253 0.024773 0.0171329 0.0209563 0.0209824 0.0378162 0.0422909 0.0322892 0.0497286 0.0466487 0.040948 0.0521439 0.0675811 0.0809856 0.0657418 0.0795633 0.0541289 0.0752641 0.063732
98 3 O 2.797 19.8303 55.8379 -1.2 1 0.0220075 0.0154084 0.0311736 0.019397 0.02333 0.0180772 0.048566 0.0385406 0.0395968 0.0429592 0.0513057 0.0418394 0.053545 0.0704016 0.0806685 0.0774011 0.0729677 0.0564527 0.0683034 0.0742252
99 1 Mg -0.126194 18.8651 52.2079 1.2 1 0.106815 0.0640831 0.0245135 0.0413027 0.0328845 0.0415417 0.0424082 0.0710037 0.0286753 0.079339 0.0275262 0.0532838 0.0293058 0.0726543 0.0318806 0.107556 0.0452478 0.103177 0.0455078 0.0944949
100 1 Mg 1.92402 18.5815 49.4545 1.2 1 0.26115 0.108682 0.0375398 0.0386202 0.0324762 0.0333106 0.0692279 0.0447025 0.071497 0.0735621 0.0799215 0.0580548 0.0721439 0.0682501 0.087088 0.0971387 0.0802084 0.100927 0.0860794 0.0846028
101 2 Si 1.38106 20.9117 51.2443 2.4 1 0.137152 0.0842324 0.0311534 0.0369885 0.034136 0.0524411 0.0560763 0.0461309 0.0534744 0.0698283 0.0676668 0.0704822 0.0725102 0.0679754 0.0965274 0.0913292 0.0781032 0.0797364 0.0759787 0.0671124
102 3 O 1.48527 22.4795 51.3054 -1.2 1 0.142698 0.0710599 0.0321042 0.0347541 0.0321695 0.0448959 0.0418994 0.0690346 0.051879 0.0681135 0.0436229 0.0737002 0.0674182 0.0653674 0.0761255 0.0619496 0.0762851 0.0735645 0.068244 0.0708303
103 3 O 1.48176 19.7609 57.9037 -1.2 1 0.012392 0.0262714 0.0200907 0.0156831 0.0166393 0.0371268 0.0286256 0.0417869 0.0566815 0.0429978 0.0487558 0.0447481 0.0523122 0.0730571 0.0963963 0.0668895 0.061001 0.0539341 0.0672842 0.0661192
104 3 O 0.0615419 20.2804 50.6669 -1.2 1 0.17782 0.0896044 0.0271037 0.0211368 0.0506322 0.0407365 0.0589744 0.0633857 0.0544593 0.0609433 0.0601067 0.0495145 0.0637041 0.0779161 0.0894518 0.0795029 0.0776381 0.0788882 0.071083 0.0868355
105 1 Mg -3.09665 18.8643 52.3122 1.2 1 0.0767387 0.0568649 0.0298014 0.0286731 0.0198423 0.0511263 0.0378456 0.0581218 0.036897 0.0837061 0.0336377 0.0461937 0.0264022 0.0757482 0.0377975 0.105517 0.0572956 0.104063 0.0458071 0.0869179
106 3 O 2.61548 20.2646 50.4626 -1.2 1 0.196796 0.0959225 0.0243009 0.0178483 0.0412842 0.0538428 0.0547594 0.0483083 0.0541656 0.0693074 0.0625262 0.0702127 0.0563514 0.0620872 0.0994718 0.0749126 0.0770028 0.0729266 0.0651419 0.0892455
107 1 Mg -1.57101 18.836 55.1073 1.2 1 0.0137712 0.0176948 0.020694 0.0237782 0.0148404 0.0255509 0.0245796 0.0322548 0.0416721 0.063898 0.056095 0.0561931 0.0653367 0.067393 0.0651438 0.0777591 0.0739362 0.0973075 0.0627986 0.0823525
108 2 Si -1.65873 16.8249 53.2836 2.4 1 0.0505271 0.0418495 0.020447 0.024678 0.0343953 0.0337964 0.050043 0.055693 0.0570015 0.0663921 0.0570289 0.0649038 0.0817063 0.0532009 0.072114 0.0675032 0.0705637 0.0813645 0.0595737 0.0566419
109 3 O -1.57072 15.2352 53.2211 -1.2 1 0.063411 0.0427183 0.0196632 0.0231196 0.0314444 0.0337961 0.0284956 0.0704626 0.0401101 0.0664624 0.0432462 0.0694329 0.0550869 0.0744411 0.0729158 0.061871 0.0517242 0.0713951 0.069088 0.0767652
110 3 O -1.12868 18.1227 46.4249 -1.2 1 0.522096 0.0664513 0.0720613 0.0518246 0.0578411 0.0646753 0.0603969 0.0792885 0.0800377 0.0625949 0.045143 0.0676374 0.0672277 0.0873971 0.11603 0.114097 0.106957 0.101222 0.0626024 0.0927937
111 3 O -2.80604 17.4626 54.1091 -1.2 1 0.0336508 0.023981 0.0252499 0.0199698 0.0158717 0.0304281 0.0438536 0.0414732 0.0389512 0.0522969 0.0548143 0.0410567 0.0553908 0.0609846 0.077884 0.0728191 0.0674039 0.0668828 0.0650513 0.0659258
112 3 O -0.202467 17.4349 53.7849 -1.2 1 0.0427229 0.0269903 0.0327798 0.0233098 0.0272432 0.0202202 0.0473638 0.0409639 0.0489898 0.0542921 0.0582837 0.0429925 0.0560551 0.0631126 0.0779174 0.0651224 0.0847212 0.0616485 0.072417 0.0715503
113 1 Mg -3.03198 26.0741 57.3693 1.2 1 0.0103693 0.0132495 0.00882445 0.0302026 0.0134585 0.0382025 0.0137722 0.0545753 0.0226223 0.0805605 0.0216562 0.0494383 0.025894 0.072184 0.020008 0.10535 0.0276103 0.108994 0.0328029 0.0975031
114 1 Mg -1.48778 25.88 49.8402 1.2 1 0.22924 0.0827407 0.0218762 0.0424267 0.0289442 0.050327 0.0554794 0.0524692 0.0512873 0.0582025 0.0622971 0.0648054 0.0739241 0.072138 0.100242 0.0809147 0.0754452 0.0949156 0.0846446 0.0844054
115 2 Si -1.00491 23.3922 47.9274 2.4 1 0.37296 0.0654719 0.063954 0.0730751 0.0306083 0.0754311 0.0427649 0.0822849 0.0679148 0.0743646 0.0536664 0.0759309 0.0609221 0.0757616 0.0952305 0.0760302 0.103251 0.0958608 0.0896076 0.0933742
116 3 O -0.927602 24.9615 47.9909 -1.2 1 0.365562 0.0700173 0.0496886 0.0628394 0.0456468 0.0918912 0.0630327 0.0822285 0.056749 0.088556 0.0549924 0.0726945 0.0605857 0.0813678 0.0810733 0.0732383 0.0940492 0.0774246 0.0748996 0.0680209
117 3 O -1.55795 22.2588 51.7696 -1.2 1 0.114489 0.0573926 0.0309334 0.0276423 0.0323414 0.0507397 0.0602682 0.0498018 0.0627099 0.0518414 0.0563107 0.0477072 0.0551307 0.0836456 0.0974411 0.0759276 0.0788508 0.0506798 0.0757295 0.0746001
118 3 O -2.17411 22.8111 48.8277 -1.2 1 0.305898 0.0907774 0.0572208 0.0312575 0.0587672 0.0486454 0.0533938 0.0716956 0.0614889 0.0672057 0.0718055 0.0586526 0.052405 0.0552574 0.0809661 0.0887498 0.0863415 0.0775266 0.0832113 0.0875379
119 1 Mg 0.0423997 21.3296 46.8225 1.2 1 0.485264 0.0209705 0.0762445 0.0314885 0.0615144 0.082815 0.0742265 0.0843771 0.0725691 0.0872634 0.0869291 0.0612388 0.0624442 0.079428 0.076078 0.0906414 0.0937902 0.098115 0.101207 0.107954
120 3 O 0.458537 22.7495 48.3911 -1.2 1 0.340036 0.0851277 0.0610746 0.0340077 0.0463071 0.0616073 0.0442866 0.0698943 0.0651245 0.0751777 0.0642702 0.057807 0.0660574 0.0879629 0.0958761 0.0766985 0.0965989 0.105612 0.0816905 0.0833917
121 1 Mg 1.59271 21.2376 54.5056 1.2 1 0.0108277 0.0206254 0.0136964 0.0301468 0.0158431 0.014598 0.0207223 0.0313427 0.0440846 0.064883 0.0571253 0.0568397 0.059812 0.0682858 0.0609755 0.0767569 0.0743655 0.0984884 0.0660961 0.0722615
122 2 Si 1.59098 23.8528 56.4265 2.4 1 0.0234302 0.00721589 0.0198983 0.0243114 0.0290916 0.0225441 0.0420152 0.035678 0.0435593 0.0625885 0.0557134 0.0574432 0.0643081 0.0586609 0.0874455 0.0635269 0.0667039 0.0825064 0.0548751 0.0652681
123 3 O 1.51093 22.3655 56.4792 -1.2 1 0.0309385 0.0127869 0.0164114 0.0237302 0.0247675 0.0266582 0.0223617 0.0759075 0.036267 0.0545704 0.0393289 0.0694616 0.0544931 0.0653985 0.0778681 0.0690271 0.0536428 0.0733802 0.0568753 0.0742074
124 3 O 1.54441 24.9963 52.7297 -1.2 1 0.0774621 0.0404104 0.0245288 0.025583 0.0224872 0.0463337 0.0495473 0.0569835 0.0484286 0.0483943 0.0443146 0.0515138 0.0613787 0.0639345 0.0997787 0.0693042 0.0682035 0.0607393 0.0689936 0.0638669
125 3 O 0.39396 24.6102 55.589 -1.2 1 0.00684653 0.0211938 0.0209735 0.0149394 0.0184254 0.0233565 0.0400449 0.0407341 0.0336981 0.0496446 0.0518749 0.0396011 0.0556204 0.0597867 0.0849196 0.0694676 0.078934 0.0667559 0.0643636 0.0629238
126 3 O 2.9518 24.5638 55.7841 -1.2 1 0.0321056 0.0242598 0.0250369 0.0167855 0.0250629 0.0226574 0.0429189 0.0451469 0.0471617 0.0400691 0.0576544 0.0331937 0.0557406 0.0605287 0.075333 0.0751012 0.0738206 0.0594423 0.066987 0.0748589