ITEM: TIMESTEP
72300
ITEM: NUMBER OF ATOMS
10500
ITEM: BOX BOUNDS xy xz yz pp pp pp
0	8.9688	2.9896
0	118.725	0
0	252.977	0
ITEM: ATOMS id type element xu yu zu q Q_1 Q_2 Q_3 Q_4 Q_5 Q_6 Q_7 Q_8 Q_9 Q_10 Q_11 Q_12 Q_13 Q_14 Q_15 Q_16 Q_17 Q_18 Q_19 Q_20 Q_21
1 1 Mg -3.29575 7.07405 57.3952 1.2 1 0.00730804 0.0167572 0.0127069 0.0239423 0.0102365 0.0304731 0.0135046 0.0559734 0.0199389 0.0777005 0.0161636 0.0532459 0.0230047 0.0684533 0.0276956 0.0984834 0.0353442 0.108573 0.0294232 0.105079
2 1 Mg -1.82655 6.90154 50.0912 1.2 1 0.220406 0.0858883 0.027584 0.0286299 0.0266385 0.050976 0.0533246 0.0456527 0.0549786 0.0670423 0.0534624 0.0732232 0.0703227 0.0596297 0.0892829 0.0593654 0.0886003 0.0995949 0.0709366 0.0837838
3 2 Si -0.257935 3.96038 48.0876 2.4 1 0.377543 0.0652186 0.0738661 0.0316218 0.0583234 0.0526533 0.0768356 0.075143 0.0555372 0.0797344 0.060466 0.073052 0.0641129 0.0823039 0.0949005 0.0984747 0.10888 0.0928409 0.0746406 0.0758225
4 3 O -0.335812 5.46814 47.6264 -1.2 1 0.427047 0.0399346 0.0652822 0.0302627 0.0410938 0.0493601 0.0654475 0.0711949 0.0877915 0.0755295 0.0922269 0.0761869 0.0696593 0.0669709 0.0912429 0.124103 0.0934015 0.0805948 0.0767065 0.0787862
5 3 O -2.03793 3.43377 51.8941 -1.2 1 0.114133 0.0623294 0.0252985 0.024421 0.0240607 0.0508623 0.061712 0.0510056 0.0489969 0.058412 0.0638826 0.049752 0.0498584 0.0752969 0.0868945 0.0803044 0.0663097 0.0572978 0.071958 0.068876
6 3 O -1.54015 3.53929 48.9521 -1.2 1 0.309481 0.0809671 0.0321205 0.0482539 0.0352326 0.0503859 0.0693294 0.054858 0.0588627 0.057508 0.0747558 0.0663695 0.0702204 0.0698792 0.0698015 0.107872 0.0833164 0.0841216 0.0784753 0.0870778
7 1 Mg 1.82954 2.54582 47.1376 1.2 1 0.466 0.0224128 0.0806446 0.0501492 0.0352025 0.0827156 0.0605411 0.0594499 0.0751983 0.0870762 0.0676553 0.0766642 0.0819769 0.0852734 0.0702514 0.096341 0.101686 0.104504 0.106016 0.099138
8 3 O 1.22989 3.66364 48.7877 -1.2 1 0.322272 0.073181 0.0266916 0.0400758 0.0336233 0.0658585 0.0785343 0.0304042 0.0852678 0.0777239 0.0502961 0.0800994 0.0848378 0.0690649 0.0669478 0.0850429 0.0925353 0.0912163 0.0930971 0.0897846
9 1 Mg 1.0096 2.34168 54.5108 1.2 1 0.00903583 0.0296055 0.0195685 0.0316332 0.0263283 0.0361388 0.0222842 0.0355503 0.0420325 0.0549731 0.0541868 0.0580663 0.0603845 0.061931 0.0638135 0.0881389 0.0698283 0.0772214 0.0802222 0.0635168
10 2 Si 1.19625 4.89958 56.3374 2.4 1 0.00952422 0.0107668 0.0127605 0.0298259 0.0283911 0.0257742 0.0372831 0.0426247 0.0506197 0.0579455 0.0534565 0.0610006 0.0646576 0.0506618 0.0769989 0.0800031 0.0674673 0.0937701 0.062507 0.063832
11 3 O 0.952048 3.4395 56.4309 -1.2 1 0.0234706 0.0154498 0.0134593 0.0312441 0.0260973 0.0277458 0.0291335 0.0691375 0.040476 0.0508495 0.0457199 0.0662378 0.0587614 0.0574559 0.0657705 0.0658545 0.0597713 0.0683355 0.0721289 0.0637895
12 3 O 1.10813 6.07342 52.8172 -1.2 1 0.0804321 0.0499635 0.0222732 0.0231784 0.0248386 0.0492957 0.0421503 0.0534223 0.0550205 0.0428745 0.0532516 0.0481611 0.0641629 0.0733409 0.0870777 0.07718 0.0612747 0.0716626 0.0684095 0.0640799
13 3 O -0.0402636 5.65396 55.7666 -1.2 1 0.0168245 0.0178499 0.0277415 0.0207967 0.0240572 0.0199924 0.0359892 0.0386457 0.0356787 0.0459046 0.0497762 0.0472397 0.0559179 0.0583819 0.0901783 0.0667026 0.0742415 0.067502 0.0765939 0.0594685
14 3 O 2.4009 5.48145 55.5096 -1.2 1 0.0182451 0.0267819 0.0193622 0.024982 0.0258828 0.0295719 0.0421055 0.0530349 0.0512098 0.0458453 0.0615244 0.0400088 0.0581057 0.0714188 0.072158 0.0781554 0.0718072 0.0833871 0.0629474 0.0582231
15 1 Mg -0.459401 4.67631 52.2426 1.2 1 0.0906243 0.070828 0.031367 0.0381339 0.0309822 0.0288115 0.0421322 0.0608344 0.0450175 0.0799067 0.0399433 0.0618878 0.0505152 0.0725407 0.0401487 0.0981352 0.0542698 0.0957016 0.0550376 0.0871699
16 1 Mg 2.79456 3.9971 49.9987 1.2 1 0.231063 0.0894818 0.0301512 0.0437055 0.0442978 0.0618097 0.0553641 0.0546109 0.07629 0.0609004 0.0573338 0.0580384 0.0615485 0.0691626 0.0852969 0.0741876 0.0717696 0.0908213 0.0848612 0.0720935
17 2 Si 1.16169 6.59457 51.2556 2.4 1 0.137949 0.0871732 0.0401358 0.0374229 0.0367398 0.0565302 0.0456471 0.0407564 0.0601379 0.0645101 0.0654931 0.0746036 0.0703879 0.0636407 0.0887503 0.0905621 0.0821133 0.0891341 0.0774853 0.0654606
18 3 O 1.28989 8.18905 51.2909 -1.2 1 0.14771 0.0799263 0.0273603 0.0397263 0.0343906 0.0460047 0.0389491 0.0754847 0.0459508 0.0678341 0.0433532 0.0882695 0.0693849 0.0613868 0.0790519 0.0699151 0.0723044 0.0688825 0.0695712 0.0685231
19 3 O 1.25487 5.45597 58.0219 -1.2 1 0.0143661 0.0203974 0.0143298 0.0243199 0.0198908 0.0374357 0.0269098 0.0444497 0.0493267 0.0489565 0.0390459 0.0506979 0.0604838 0.0692049 0.0947049 0.064075 0.0579926 0.0634786 0.0699501 0.0639955
20 3 O -0.184847 6.06029 50.6845 -1.2 1 0.186855 0.0853822 0.0203398 0.0275968 0.0372909 0.0308251 0.0483827 0.0539179 0.0593916 0.0613357 0.0619179 0.0763386 0.0675688 0.0604053 0.0847574 0.0716974 0.0828891 0.0771204 0.0631341 0.0796076
21 1 Mg -3.49704 4.67769 52.6661 1.2 1 0.0686424 0.0499404 0.0348593 0.032631 0.0190208 0.0431296 0.0347421 0.0571444 0.0558201 0.0659615 0.0501533 0.0500248 0.0520388 0.0452828 0.0624747 0.0878405 0.0862499 0.0774072 0.069475 0.0716348
22 3 O 2.48581 5.93312 50.6539 -1.2 1 0.199471 0.0863104 0.0325473 0.0199173 0.0345465 0.0459674 0.0557819 0.0565975 0.0452938 0.0650223 0.0489463 0.0601889 0.0533889 0.0630555 0.0992669 0.0651655 0.0781089 0.0677837 0.0789723 0.0747894
23 1 Mg -1.82828 4.59587 55.1275 1.2 1 0.0262211 0.0178712 0.0264922 0.0239078 0.0138099 0.0250562 0.0270235 0.0384414 0.0346652 0.0523796 0.0509279 0.0516984 0.0552138 0.0670737 0.0590413 0.0738406 0.0801848 0.0937586 0.0631136 0.0806005
24 2 Si -1.92129 2.55527 53.3628 2.4 1 0.0377533 0.0352401 0.0283235 0.028628 0.0298153 0.0234698 0.045335 0.0467761 0.0632831 0.0683241 0.0545955 0.0662149 0.076943 0.0468415 0.0626008 0.0635757 0.0750272 0.0789039 0.0789682 0.0610118
25 3 O -2.03003 1.08268 53.1863 -1.2 1 0.0521032 0.0392464 0.0344793 0.0250215 0.0285041 0.0356967 0.027537 0.0524361 0.0523338 0.062262 0.0508638 0.0694837 0.0533531 0.0712031 0.0667791 0.0668329 0.0492256 0.0689686 0.0654381 0.068866
26 3 O -0.0467762 2.97103 46.8385 -1.2 1 0.493764 0.0322024 0.091425 0.0271201 0.0817728 0.0669156 0.0797288 0.074788 0.0756452 0.0789783 0.080094 0.0723434 0.0952184 0.0907099 0.0926341 0.0897465 0.0978637 0.0937786 0.100443 0.108546
27 3 O -3.19395 3.18099 54.2141 -1.2 1 0.0251615 0.022811 0.031126 0.0246074 0.0189545 0.0277544 0.0335488 0.0353258 0.0508098 0.057675 0.0573343 0.0407555 0.0537411 0.0596298 0.0762127 0.0607518 0.0588493 0.0738822 0.0697941 0.0549856
28 3 O -0.668268 3.2757 53.7673 -1.2 1 0.0236323 0.0330454 0.0338413 0.0243735 0.0282773 0.0302458 0.0443973 0.0548047 0.0470203 0.052127 0.0516771 0.052907 0.0564514 0.0738398 0.0858019 0.0563715 0.0887965 0.0669677 0.063266 0.0592124
29 1 Mg -3.01714 11.7183 57.3486 1.2 1 0.013376 0.0123755 0.0169309 0.0240756 0.0106877 0.0319582 0.0204177 0.053574 0.0252865 0.0758097 0.0227013 0.0495977 0.0313995 0.0672073 0.0322115 0.106189 0.0514721 0.104509 0.0439356 0.0860095
30 1 Mg -1.75014 11.5838 49.8362 1.2 1 0.224421 0.0896516 0.024985 0.0399392 0.0273439 0.0545688 0.0486275 0.05801 0.0459609 0.058527 0.0690198 0.0622239 0.0734019 0.0741826 0.110157 0.0895089 0.0682613 0.0952418 0.0868441 0.0799338
31 2 Si -1.18003 9.02138 47.9309 2.4 1 0.371116 0.0666714 0.0664132 0.0517372 0.0421599 0.0614883 0.0722228 0.0764714 0.0709201 0.0655609 0.0591521 0.066039 0.066474 0.0803637 0.100319 0.0652797 0.100178 0.0906077 0.101711 0.087041
32 3 O -1.23224 10.5991 47.9811 -1.2 1 0.386598 0.049162 0.0506527 0.0538687 0.052296 0.0709482 0.0641597 0.0750649 0.0575708 0.0842223 0.0682665 0.0669612 0.0751958 0.075228 0.0735518 0.0650292 0.0874179 0.0781392 0.0671237 0.0728337
33 3 O -1.79016 8.01447 51.8693 -1.2 1 0.113308 0.0662887 0.0270207 0.0277405 0.0309326 0.0480042 0.0570867 0.0536356 0.057835 0.0521874 0.0496551 0.047871 0.0683194 0.0874954 0.0886893 0.0768316 0.0672946 0.0470232 0.0742225 0.0696088
34 3 O -2.30986 8.37215 48.8528 -1.2 1 0.320862 0.075293 0.0600185 0.0276866 0.0475297 0.062933 0.0716632 0.0643975 0.0570244 0.065644 0.0769599 0.0648049 0.0545395 0.0664997 0.0797461 0.0896615 0.0959754 0.0784684 0.0782423 0.0951939
35 1 Mg 0.154883 7.08234 46.8007 1.2 1 0.496645 0.0351512 0.0790851 0.0352797 0.0563145 0.0688377 0.054299 0.0681204 0.0734303 0.0845376 0.0912137 0.0790726 0.0793093 0.078191 0.0677967 0.0891175 0.0891949 0.106015 0.113005 0.102626
36 3 O 0.325447 8.50934 48.3809 -1.2 1 0.347082 0.0812744 0.0612281 0.0444523 0.0340292 0.0525334 0.0383776 0.0587491 0.0622471 0.0638318 0.0736013 0.0646773 0.0774058 0.0918051 0.0909768 0.0694084 0.0932419 0.102047 0.0855624 0.088849
37 1 Mg 1.23333 7.30305 54.5051 1.2 1 0.00989581 0.0467677 0.0213503 0.0314235 0.024345 0.0307712 0.0184859 0.0368016 0.0397266 0.0507857 0.0631075 0.0596537 0.0547203 0.0673583 0.0597344 0.0862251 0.0755118 0.0575169 0.089972 0.0717128
38 2 Si 1.19974 9.64954 56.3429 2.4 1 0.0164027 0.0170132 0.0148612 0.0234266 0.033444 0.0279135 0.0436043 0.0346666 0.04111 0.0566163 0.0554137 0.0566688 0.0619467 0.0684253 0.0820889 0.0722926 0.0681364 0.089185 0.0512678 0.0664289
39 3 O 1.17397 8.10427 56.4506 -1.2 1 0.0161456 0.0255312 0.0134059 0.0207762 0.0301008 0.0263242 0.0244144 0.0734068 0.0358707 0.0505303 0.0352825 0.0700483 0.0625587 0.0684475 0.0761913 0.0599504 0.0629148 0.0731953 0.0557706 0.0709797
40 3 O 1.28624 10.7248 52.7351 -1.2 1 0.0790292 0.0459448 0.0273042 0.0218036 0.0284757 0.0520101 0.0472382 0.0507974 0.0422869 0.0489725 0.0456577 0.0476426 0.0557772 0.0666884 0.100992 0.0774197 0.0645546 0.0602478 0.0712259 0.060015
41 3 O -0.0525941 10.3838 55.7791 -1.2 1 0.00987967 0.0196119 0.0334278 0.0210177 0.0182521 0.0179205 0.0467306 0.0342013 0.0403534 0.0451182 0.048953 0.0405998 0.0497348 0.0564704 0.0857998 0.0778572 0.0715128 0.0578509 0.0667899 0.0637366
42 3 O 2.46727 10.3882 55.4973 -1.2 1 0.00394413 0.0159261 0.0226684 0.0189738 0.0220273 0.0251138 0.0391221 0.0466227 0.0424191 0.053347 0.0518376 0.0344784 0.0577848 0.0660901 0.0764265 0.0774819 0.0664076 0.0817518 0.0601493 0.0638131
43 1 Mg -0.262694 9.34741 52.2523 1.2 1 0.112142 0.0696076 0.0199597 0.045902 0.0304646 0.0422246 0.0422788 0.0690308 0.029128 0.0834436 0.0259015 0.0542159 0.0409133 0.0682707 0.0440612 0.103705 0.0539418 0.0950051 0.0554483 0.10037
44 1 Mg 1.87648 9.01537 49.4629 1.2 1 0.279063 0.0923907 0.044204 0.032923 0.0260676 0.0510447 0.0631621 0.0469656 0.0771947 0.0638771 0.0845746 0.0552782 0.0816209 0.0668316 0.0837251 0.0886632 0.0841787 0.099476 0.0878986 0.0917882
45 2 Si 1.21415 11.3799 51.2378 2.4 1 0.138869 0.0868187 0.0338701 0.0297171 0.0339578 0.0577014 0.0519365 0.0397744 0.0556709 0.0606163 0.0708938 0.0735873 0.0768641 0.0693316 0.0927204 0.0866213 0.0808578 0.0822426 0.0773583 0.0612599
46 3 O 1.31634 12.9512 51.3023 -1.2 1 0.151108 0.0688428 0.0289718 0.0359175 0.0361208 0.0403551 0.0387446 0.063136 0.0558526 0.0632559 0.0435837 0.077509 0.06584 0.0628295 0.0654228 0.0622162 0.0742539 0.0711549 0.0704355 0.0740629
47 3 O 1.44691 10.3779 57.8433 -1.2 1 0.00909239 0.0221942 0.0253674 0.0225876 0.0160684 0.0395975 0.0357899 0.0376757 0.0548231 0.0392657 0.0464299 0.0376125 0.0536991 0.0663903 0.0994479 0.0805254 0.0599408 0.0562794 0.0659673 0.0485818
48 3 O -0.115718 10.7564 50.681 -1.2 1 0.193654 0.086306 0.0242162 0.0249669 0.0412563 0.0277938 0.0493998 0.0653572 0.0537586 0.0549374 0.0601832 0.0499142 0.0595765 0.0704519 0.0889505 0.0815157 0.0742857 0.0758822 0.0763021 0.0805661
49 1 Mg -3.26386 9.35564 52.3622 1.2 1 0.0802449 0.0550581 0.0282655 0.0323619 0.0171553 0.0527722 0.0407822 0.0524604 0.0339178 0.0890992 0.0335692 0.0514352 0.0375462 0.0615328 0.040259 0.112125 0.0473845 0.0973447 0.0563174 0.0926038
50 3 O 2.45216 10.7265 50.4558 -1.2 1 0.200783 0.0923534 0.0168442 0.0131728 0.0400545 0.0491906 0.0577153 0.0507326 0.0545911 0.0691395 0.0652246 0.0718423 0.0524671 0.0677241 0.0982403 0.0811529 0.0757391 0.074746 0.0553719 0.0888257
51 1 Mg -1.71352 9.44813 55.1001 1.2 1 0.0157197 0.0145065 0.0224082 0.0312908 0.0141142 0.0200079 0.0267452 0.0357522 0.0372479 0.0581114 0.0608587 0.0511601 0.0648809 0.0709897 0.0674504 0.0762013 0.0692022 0.0951098 0.0695856 0.0829202
52 2 Si -1.85033 7.3683 53.3443 2.4 1 0.045889 0.0471869 0.028965 0.0284137 0.0404448 0.0227468 0.0511393 0.0515516 0.0593247 0.0572492 0.0568943 0.0584468 0.0786829 0.0533824 0.0729713 0.0695212 0.0669987 0.0870538 0.0647331 0.058401
53 3 O -1.90457 5.82044 53.2631 -1.2 1 0.0672418 0.0397894 0.0211802 0.017684 0.0184627 0.0371185 0.0374969 0.0656148 0.0505763 0.0654324 0.0390773 0.0758654 0.056652 0.0715116 0.0663484 0.0628974 0.0603405 0.0618136 0.0688186 0.0697845
54 3 O -1.19417 8.46968 46.4488 -1.2 1 0.525021 0.0664568 0.0665467 0.0512964 0.0669796 0.0562863 0.0782839 0.0550811 0.076505 0.0716808 0.0574953 0.0513507 0.0694428 0.0978483 0.130193 0.113481 0.097092 0.0951103 0.0835482 0.0834173
55 3 O -3.0533 8.01142 54.0789 -1.2 1 0.0399694 0.0278056 0.0268708 0.0191798 0.0208029 0.0269705 0.0411402 0.0410822 0.0469659 0.0600396 0.0540239 0.0397243 0.0584968 0.0627331 0.0787973 0.0672868 0.0690912 0.0689251 0.0696011 0.0801637
56 3 O -0.539638 8.03679 53.9166 -1.2 1 0.0223974 0.0437258 0.0290738 0.0303347 0.0346034 0.0276531 0.042187 0.0504664 0.0425781 0.0489844 0.0584935 0.0502139 0.0657785 0.06284 0.0851633 0.0552866 0.0847678 0.0742205 0.0758598 0.0676402
57 1 Mg -3.08388 16.3001 57.1321 1.2 1 0.0127623 0.0191321 0.0197029 0.0286534 0.0232797 0.0351961 0.0176215 0.0539487 0.034795 0.0719581 0.0416524 0.0401877 0.0371414 0.0601793 0.0373462 0.0823731 0.0532994 0.0947191 0.0591949 0.0749044
58 1 Mg -1.6714 16.3544 49.8412 1.2 1 0.238896 0.0748487 0.0211239 0.038429 0.028688 0.0455053 0.0563614 0.0543672 0.0461331 0.0577779 0.0623019 0.0653133 0.0700645 0.0675296 0.098918 0.0831128 0.0765332 0.0967686 0.0809592 0.0789129
59 2 Si -1.18567 13.8526 47.9314 2.4 1 0.374116 0.0680932 0.0775575 0.059643 0.0343281 0.0706134 0.0463795 0.0769282 0.0629499 0.0673023 0.0517945 0.0704939 0.0593376 0.0775933 0.0996196 0.0749753 0.102995 0.0947271 0.0878803 0.0914073
60 3 O -1.09664 15.4205 47.9915 -1.2 1 0.36594 0.0707356 0.0499838 0.0608728 0.0455186 0.0938296 0.0626024 0.0815543 0.0564862 0.0884785 0.0537538 0.0734984 0.0611617 0.0815438 0.0827677 0.0737864 0.0914227 0.0748856 0.0743874 0.0695415
61 3 O -1.73493 12.7491 51.7772 -1.2 1 0.117697 0.0612059 0.0276164 0.0259668 0.0327999 0.0496269 0.0620981 0.0507506 0.0688537 0.0538967 0.056247 0.0480302 0.0504135 0.0835142 0.100912 0.075219 0.0784568 0.0533631 0.0703055 0.0655534
62 3 O -2.36115 13.2717 48.8238 -1.2 1 0.307963 0.091706 0.0606432 0.0271559 0.0556437 0.0464106 0.0591087 0.0685406 0.0591948 0.0691303 0.073588 0.0638535 0.0601712 0.058738 0.0820512 0.0838654 0.0845083 0.0774061 0.0844444 0.0921522
63 1 Mg -0.159928 11.7639 46.8533 1.2 1 0.485877 0.02314 0.0735338 0.033264 0.0470143 0.091564 0.0642497 0.0864784 0.0851538 0.0877533 0.0867316 0.0683829 0.0708954 0.0932649 0.0778431 0.0832696 0.0957716 0.0979275 0.100632 0.108694
64 3 O 0.2623 13.1866 48.413 -1.2 1 0.35031 0.0700297 0.0506866 0.0353591 0.045149 0.0572634 0.0367573 0.0635893 0.0688565 0.0704349 0.0613118 0.0596834 0.066122 0.0868194 0.0975462 0.0821136 0.0919935 0.0987916 0.0821981 0.0840063
65 1 Mg 1.38112 11.8861 54.5275 1.2 1 0.0126006 0.0262063 0.0175456 0.0306575 0.0111399 0.0188122 0.0236556 0.0325833 0.0445298 0.0542615 0.0686451 0.0560319 0.0639474 0.0593271 0.0673441 0.087098 0.0772244 0.0809436 0.0815255 0.0686237
66 2 Si 1.12265 14.411 56.3854 2.4 1 0.0108479 0.0195791 0.0181891 0.0299645 0.0271137 0.025558 0.0346159 0.0412734 0.0555036 0.0563805 0.0535075 0.0524127 0.0668107 0.0430003 0.0821958 0.072708 0.0765245 0.0866844 0.0707446 0.0604502
67 3 O 1.33728 12.8589 56.34 -1.2 1 0.0201726 0.0283757 0.0192943 0.0204105 0.0229931 0.0268617 0.0226025 0.073135 0.0409555 0.0534653 0.0407969 0.0659383 0.0568256 0.0727627 0.0665312 0.0687336 0.0570422 0.0626722 0.0729489 0.0726705
68 3 O 1.36565 15.4813 52.729 -1.2 1 0.0924291 0.0257699 0.0283584 0.0232199 0.0156792 0.0459883 0.041775 0.0560378 0.049824 0.0487621 0.040886 0.0545712 0.0598215 0.0599249 0.101231 0.0635439 0.0702023 0.0646008 0.0682435 0.0617073
69 3 O -0.199135 15.1725 55.8746 -1.2 1 0.0105365 0.0093517 0.0264095 0.0221308 0.0285022 0.0226188 0.0423857 0.0453628 0.0523558 0.038277 0.0575646 0.0441132 0.0535755 0.0602533 0.0824349 0.0758825 0.0687672 0.0703419 0.0662247 0.0698518
70 3 O 2.4377 15.0984 55.7084 -1.2 1 0.0312683 0.0171094 0.0314767 0.0138081 0.0252123 0.0219869 0.0402912 0.0479197 0.0337863 0.0455256 0.0500145 0.0475723 0.0485927 0.0636319 0.0817094 0.0706592 0.0733467 0.0520609 0.0666247 0.0634985
71 1 Mg -0.206989 14.1049 52.2121 1.2 1 0.0993577 0.0682592 0.025871 0.0450524 0.031031 0.0438296 0.0354412 0.0754318 0.02866 0.0875556 0.0238979 0.057686 0.0301711 0.0735619 0.0334973 0.108206 0.044984 0.103234 0.0413956 0.102051
72 1 Mg 1.82591 13.8102 49.4556 1.2 1 0.272319 0.0997371 0.0386943 0.0376494 0.0324401 0.036441 0.0648203 0.0446521 0.0701795 0.0744725 0.079377 0.0604632 0.0663631 0.0637703 0.082396 0.0880429 0.0762964 0.100684 0.0915015 0.0836003
73 2 Si 1.29285 16.1518 51.2434 2.4 1 0.13906 0.0820607 0.0317488 0.0370847 0.0362094 0.0487354 0.0551692 0.0416005 0.055886 0.0656008 0.0659696 0.0656412 0.0627469 0.0647297 0.0964453 0.0866655 0.079106 0.0884718 0.0727476 0.062724
74 3 O 1.39496 17.7199 51.3047 -1.2 1 0.156935 0.0666417 0.0248605 0.0312721 0.0314828 0.0403842 0.0381812 0.0602213 0.0510771 0.0631267 0.0438303 0.0761166 0.0597679 0.0607649 0.0763455 0.0692661 0.0805233 0.071478 0.0645162 0.0733867
75 3 O 1.22461 15.0143 57.8429 -1.2 1 0.0104751 0.026377 0.0161292 0.0204705 0.0153296 0.0386353 0.030204 0.0436468 0.0610057 0.0425571 0.046087 0.047358 0.0577411 0.0618997 0.0955707 0.0668038 0.067374 0.0529759 0.0723839 0.068641
76 3 O -0.0269106 15.5178 50.6688 -1.2 1 0.180159 0.088676 0.0234495 0.0226746 0.0495603 0.0389778 0.0519673 0.0629592 0.059537 0.0587628 0.058321 0.0521406 0.0613002 0.0759134 0.0938455 0.0811418 0.0762771 0.0814761 0.0719751 0.0877772
77 1 Mg -3.18391 14.1057 52.3125 1.2 1 0.077984 0.0598955 0.0266391 0.0319187 0.0238142 0.0529597 0.0343971 0.0594723 0.0348352 0.0836202 0.0317248 0.0480071 0.0256735 0.0732954 0.034497 0.103541 0.0533234 0.100884 0.0481785 0.0893514
78 3 O 2.52432 15.503 50.4579 -1.2 1 0.193552 0.0952959 0.0219527 0.0144163 0.0391101 0.0582077 0.0595147 0.0470718 0.0577362 0.063179 0.0626538 0.0695895 0.0580292 0.0636803 0.0970506 0.0752764 0.0768896 0.0672204 0.0620892 0.0913006
79 1 Mg -1.86041 14.178 55.0511 1.2 1 0.0204689 0.0166282 0.0228618 0.0300367 0.0173628 0.0230418 0.0229973 0.0364693 0.0400947 0.0594923 0.0623059 0.050757 0.0602912 0.0644082 0.0623462 0.0778849 0.0712809 0.0879946 0.0748476 0.0793084
80 2 Si -1.61872 12.0264 53.2093 2.4 1 0.0488961 0.0417078 0.0226177 0.0264694 0.0342611 0.04105 0.0431711 0.0552176 0.0561119 0.061098 0.0598657 0.0626487 0.0746483 0.0573146 0.0689547 0.0641536 0.072723 0.0877091 0.0681668 0.0591744
81 3 O -1.65023 10.4837 53.2323 -1.2 1 0.0658908 0.0438398 0.0212009 0.0235341 0.0337924 0.0332816 0.0291347 0.0721368 0.0409047 0.0611839 0.0407705 0.0672407 0.0586369 0.0767176 0.0708263 0.0606246 0.054181 0.0600205 0.0717473 0.0696247
82 3 O -1.21337 13.3381 46.4311 -1.2 1 0.520001 0.0674071 0.0704338 0.0401545 0.0551297 0.0591488 0.0596034 0.0693512 0.0773699 0.0637101 0.0446385 0.0710655 0.0686452 0.0882384 0.12019 0.113742 0.106624 0.100449 0.0587729 0.0898804
83 3 O -2.96151 12.7654 53.8132 -1.2 1 0.0340574 0.029665 0.0359245 0.0203983 0.0237793 0.0294214 0.0549554 0.0504605 0.0391248 0.0574231 0.0454199 0.0484465 0.051271 0.0643085 0.0801944 0.0681401 0.0749937 0.0527865 0.0667341 0.0760622
84 3 O -0.29215 12.8441 53.7358 -1.2 1 0.0362396 0.0272916 0.0265445 0.0228297 0.0350106 0.0194521 0.0512506 0.0550937 0.0546486 0.0521086 0.0620296 0.0467097 0.0616301 0.054548 0.0969343 0.0693824 0.0742701 0.0670418 0.0710327 0.0704292
85 1 Mg -2.9325 21.1552 57.2396 1.2 1 0.00681641 0.0112792 0.00867473 0.0258976 0.0121293 0.0357335 0.0189666 0.0513736 0.0239032 0.0822352 0.0195885 0.0528225 0.0229922 0.0688326 0.0301529 0.103984 0.0365753 0.107214 0.0381258 0.0959054
86 1 Mg -1.5831 21.1217 49.8405 1.2 1 0.237916 0.0775464 0.0252904 0.0324994 0.0365853 0.0456728 0.0517742 0.0548004 0.0480405 0.0591599 0.0630015 0.0616116 0.0705255 0.0683813 0.0968633 0.0763229 0.0765915 0.0976272 0.0864155 0.0842443
87 2 Si -1.09384 18.6291 47.9287 2.4 1 0.376066 0.0640106 0.0664242 0.067975 0.0285185 0.0680388 0.0469334 0.0801137 0.0654373 0.0679445 0.0544866 0.0748042 0.0611137 0.0738796 0.0988266 0.0736706 0.104179 0.0933413 0.088981 0.0886195
88 3 O -1.02071 20.1985 47.9911 -1.2 1 0.370376 0.0625228 0.0422131 0.0633746 0.0439956 0.0906115 0.0619351 0.0808794 0.0540954 0.0865478 0.056915 0.0744458 0.0613636 0.0807915 0.080935 0.0746026 0.0925592 0.0763786 0.0754609 0.0715912
89 3 O -1.65002 17.5002 51.771 -1.2 1 0.10846 0.0634652 0.0322631 0.0286222 0.0316983 0.0507646 0.0613809 0.052247 0.0646186 0.0551837 0.0567383 0.045911 0.0564257 0.0841021 0.101326 0.0750094 0.0787846 0.0415035 0.0763048 0.0730683
90 3 O -2.26174 18.0434 48.8281 -1.2 1 0.320277 0.0768005 0.0496164 0.0402274 0.0549654 0.0464425 0.0558025 0.0702091 0.0630682 0.0664474 0.0696806 0.0571204 0.0504105 0.0579967 0.0782105 0.0841583 0.0857446 0.0805294 0.0840916 0.085716
91 1 Mg -0.0440435 16.5651 46.8269 1.2 1 0.488235 0.0232887 0.0751295 0.0311336 0.0585375 0.081623 0.0707519 0.0798423 0.0734933 0.0891581 0.0868292 0.0623356 0.0649242 0.0820049 0.0784462 0.0909458 0.0932246 0.0975034 0.099775 0.106359
92 3 O 0.37001 17.9877 48.3925 -1.2 1 0.345984 0.0796537 0.0620516 0.0363296 0.0496245 0.062846 0.0443518 0.0656437 0.0617459 0.0748273 0.0639107 0.0581906 0.0662571 0.0837934 0.0928921 0.0796723 0.0960732 0.102868 0.0763999 0.0842263
93 1 Mg 1.37697 16.5042 54.4747 1.2 1 0.0185459 0.0285907 0.017037 0.0259703 0.013157 0.0173297 0.0213255 0.0328592 0.0446885 0.0635317 0.0581572 0.0488315 0.0508122 0.0688503 0.0649076 0.0691405 0.0692335 0.0977953 0.0703745 0.0747007
94 2 Si 1.44921 19.3125 56.2364 2.4 1 0.0234819 0.0131784 0.0274441 0.0177963 0.0311426 0.0347226 0.0348749 0.0451243 0.0460108 0.0430745 0.0418035 0.0645442 0.0681447 0.0615887 0.0810803 0.0814162 0.0639675 0.0930281 0.0533482 0.0544408
95 3 O 1.52062 17.7259 56.3678 -1.2 1 0.0263645 0.0206239 0.0185931 0.0260627 0.0346137 0.0171318 0.025337 0.0656941 0.0370064 0.0496506 0.0381421 0.0706519 0.0669012 0.0524658 0.0759445 0.0667788 0.0553166 0.072226 0.0653722 0.0676866
96 3 O 1.45147 20.239 52.7294 -1.2 1 0.0820215 0.0438924 0.0242644 0.020144 0.0195206 0.0466867 0.044186 0.0541926 0.0512254 0.0471205 0.042737 0.0515233 0.0588318 0.0598803 0.106345 0.0650993 0.0665302 0.0628876 0.0684518 0.0655029
97 3 O 0.238892 19.9181 55.5478 -1.2 1 0.0110873 0.0168607 0.0247706 0.0175547 0.0198271 0.0237786 0.0453817 0.0429307 0.0345469 0.0477678 0.049686 0.0444885 0.0558889 0.0545913 0.0836956 0.0739326 0.075793 0.051531 0.0603692 0.0640716
98 3 O 2.81768 19.9804 55.6711 -1.2 1 0.00870498 0.0166657 0.0253346 0.0169928 0.0190765 0.0233226 0.0492321 0.049429 0.0335709 0.0481382 0.0501271 0.0411118 0.0609972 0.0560928 0.0902035 0.071748 0.0771617 0.0738697 0.0658478 0.0681299
99 1 Mg -0.126194 18.8651 52.2079 1.2 1 0.100323 0.0733712 0.0201694 0.0449363 0.0278175 0.0394121 0.037789 0.0700912 0.0302785 0.0814617 0.0290404 0.0551848 0.0337081 0.0710846 0.0364408 0.102105 0.0441412 0.103762 0.0436515 0.0984351
100 1 Mg 1.92402 18.5815 49.4545 1.2 1 0.264881 0.106237 0.0354365 0.0411073 0.0336029 0.0329812 0.0679019 0.0479911 0.0673754 0.0789626 0.0816268 0.053058 0.0717265 0.0652396 0.0824488 0.0930668 0.0796154 0.0962995 0.0843618 0.0888548
101 2 Si 1.38106 20.9117 51.2443 2.4 1 0.151753 0.068872 0.0401334 0.0358593 0.0394757 0.0485368 0.0520884 0.037887 0.0539607 0.0741693 0.0675434 0.06202 0.0630341 0.0636333 0.0960431 0.0898441 0.0792052 0.0825343 0.0703494 0.0652788
102 3 O 1.48527 22.4795 51.3054 -1.2 1 0.141316 0.0778235 0.0271764 0.0317942 0.0373783 0.0426018 0.0409494 0.0633358 0.0601809 0.0628057 0.04641 0.0789719 0.0657464 0.0643674 0.0738203 0.0649871 0.0787078 0.074415 0.0631285 0.0719359
103 3 O 1.47111 19.9512 57.6973 -1.2 1 0.00611825 0.0203667 0.0226452 0.0137674 0.0135444 0.0343766 0.0350108 0.0460679 0.0571871 0.0430596 0.0355153 0.043712 0.0521324 0.0656878 0.101094 0.0717714 0.0660068 0.0523928 0.0810548 0.0552388
104 3 O 0.0615419 20.2804 50.6669 -1.2 1 0.187454 0.0840662 0.0238591 0.0256283 0.0450341 0.0372579 0.0503679 0.068592 0.0533467 0.0552123 0.0603858 0.0457762 0.0624959 0.0754247 0.0913474 0.0829944 0.0778533 0.0787054 0.074521 0.0907911
105 1 Mg -3.09665 18.8643 52.3122 1.2 1 0.0729642 0.062046 0.0284011 0.0320884 0.0167045 0.0535809 0.0379899 0.0587524 0.0368773 0.0829783 0.0369452 0.0474074 0.0262379 0.0724432 0.0356205 0.106494 0.0447828 0.10371 0.0484014 0.0883102
106 3 O 2.61548 20.2646 50.4626 -1.2 1 0.202507 0.0941985 0.0186789 0.0188575 0.0369812 0.0550528 0.0569385 0.0442761 0.0543702 0.0656446 0.0613374 0.0734621 0.0519214 0.0553599 0.0983609 0.0732383 0.0802979 0.0745482 0.0655979 0.0852348
107 1 Mg -1.39426 18.9688 54.8789 1.2 1 0.0149914 0.0200578 0.0268673 0.0252134 0.0162114 0.02489 0.0222336 0.0307965 0.0495887 0.0575889 0.0517894 0.0526223 0.0643204 0.0615875 0.0554856 0.0840684 0.0676829 0.0920505 0.0725548 0.0813967
108 2 Si -1.69691 16.8455 53.2209 2.4 1 0.052202 0.0378791 0.0281539 0.0338413 0.0384716 0.0322627 0.0550117 0.0511968 0.0601285 0.064658 0.0638229 0.06554 0.0716959 0.0501005 0.0647812 0.0683859 0.069102 0.0930982 0.0705491 0.0532963
109 3 O -1.91014 15.4202 53.2135 -1.2 1 0.0585632 0.040291 0.0232394 0.0222391 0.0361025 0.027282 0.0440851 0.0658289 0.0459989 0.0550382 0.0529822 0.0649463 0.0665726 0.0726292 0.0716693 0.0683005 0.0682395 0.0578143 0.0786119 0.0673328
110 3 O -1.12868 18.1227 46.4249 -1.2 1 0.522024 0.0666424 0.0730477 0.052426 0.0578675 0.0653604 0.0612488 0.0792131 0.0794949 0.0623086 0.0460045 0.068411 0.0671894 0.0873391 0.117012 0.115619 0.107501 0.101025 0.0632496 0.0922083
111 3 O -2.95987 17.6046 53.8629 -1.2 1 0.0374963 0.0249574 0.0265543 0.024998 0.0275483 0.0315178 0.0474555 0.047156 0.0515154 0.0508369 0.0484548 0.0429034 0.051609 0.053161 0.0841424 0.0619551 0.0642453 0.0606502 0.0612368 0.0808397
112 3 O -0.383462 17.594 53.8759 -1.2 1 0.0489729 0.0244999 0.0287026 0.0200195 0.0317757 0.0198063 0.041211 0.0460333 0.0420195 0.0492645 0.0614346 0.0454562 0.0552037 0.0604415 0.0877063 0.0610967 0.0768137 0.0693399 0.0756484 0.06251
113 1 Mg -3.10213 26.0864 57.2733 1.2 1 0.0146825 0.0141165 0.0109076 0.0382747 0.0156274 0.0367214 0.012856 0.0522968 0.0280322 0.0795498 0.0260345 0.0504481 0.0308554 0.0550587 0.032781 0.0966723 0.059214 0.0972051 0.048183 0.0818729
114 1 Mg -1.48778 25.88 49.8402 1.2 1 0.232473 0.0809652 0.0265629 0.0374116 0.0358291 0.046399 0.0529128 0.0563887 0.0506258 0.0607036 0.0617839 0.0631068 0.0720956 0.0709918 0.0976229 0.0779697 0.0740247 0.0968278 0.0846535 0.0845194
115 2 Si -1.00491 23.3922 47.9274 2.4 1 0.375237 0.0635559 0.0679409 0.070444 0.0330122 0.0751161 0.0415418 0.0842573 0.066535 0.0718078 0.0530571 0.0752938 0.0573639 0.0727349 0.0922115 0.0754962 0.102625 0.0954289 0.0894456 0.0949085
116 3 O -0.927602 24.9615 47.9909 -1.2 1 0.369982 0.063122 0.0429342 0.0625169 0.0449453 0.0912525 0.0613485 0.0796398 0.0538042 0.0866914 0.0551445 0.0750119 0.0608394 0.0767171 0.0780908 0.0730341 0.0930432 0.0749369 0.0748732 0.0731363
117 3 O -1.55795 22.2588 51.7696 -1.2 1 0.107661 0.065165 0.0271787 0.0265357 0.0343606 0.052618 0.057951 0.0504325 0.069217 0.0500247 0.0608918 0.0499642 0.052848 0.0811743 0.0970225 0.0827606 0.0789078 0.0420787 0.0761299 0.0741941
118 3 O -2.17411 22.8111 48.8277 -1.2 1 0.312395 0.0824471 0.0505234 0.0345915 0.0551832 0.046897 0.0590339 0.0729075 0.0611329 0.0673809 0.0691332 0.0582916 0.0506255 0.0613787 0.0786938 0.0822077 0.0837928 0.0809716 0.0885678 0.0897804
119 1 Mg 0.0423997 21.3296 46.8225 1.2 1 0.485299 0.0215925 0.0761958 0.0310928 0.0613129 0.082725 0.0736182 0.0830819 0.0717419 0.0882875 0.088879 0.062965 0.0617057 0.0784437 0.076773 0.0912006 0.0934647 0.0985187 0.10129 0.107188
120 3 O 0.458537 22.7495 48.3911 -1.2 1 0.359834 0.0592221 0.0445844 0.043241 0.0430079 0.0548057 0.0464186 0.0613477 0.0602307 0.0756978 0.0605982 0.0530178 0.0621664 0.0805897 0.0870111 0.0754407 0.0953617 0.102844 0.0798847 0.0822779
121 1 Mg 1.47647 21.2251 54.4011 1.2 1 0.0136522 0.0253374 0.018359 0.0274129 0.0127742 0.0193052 0.0260353 0.035745 0.0409754 0.065326 0.0577899 0.0525883 0.0630067 0.070583 0.0679135 0.0669919 0.0706197 0.0991082 0.0676018 0.0819597
122 2 Si 1.34928 24.0056 56.1673 2.4 1 0.0254914 0.018038 0.0169771 0.0154099 0.0316007 0.0249093 0.0391209 0.0369537 0.0473514 0.0508177 0.0600064 0.0561033 0.0733874 0.0577882 0.0704086 0.0848707 0.0594549 0.091131 0.0530087 0.050177
123 3 O 1.20805 22.4033 56.3199 -1.2 1 0.0262884 0.0264863 0.0208502 0.0192637 0.0240469 0.0273521 0.0249448 0.0650195 0.0457249 0.0492995 0.0442292 0.0646253 0.0606054 0.0687271 0.0696326 0.0565599 0.0651184 0.0642093 0.0788768 0.0636492
124 3 O 1.54441 24.9963 52.7297 -1.2 1 0.0785424 0.0434623 0.0311217 0.0179115 0.027123 0.0399272 0.0504321 0.0554202 0.0494983 0.0482088 0.0422555 0.0495108 0.0524206 0.0641525 0.10186 0.0668915 0.0682039 0.0636294 0.0711401 0.0595667
125 3 O 0.142825 24.9402 55.6898 -1.2 1 0.0176942 0.0123503 0.0300352 0.0105504 0.0194457 0.0164036 0.0458403 0.0387055 0.0346484 0.042328 0.0578781 0.0379477 0.0503488 0.0517984 0.0978122 0.0628283 0.0710676 0.0741971 0.059053 0.0817073
126 3 O 2.60273 24.7376 55.4899 -1.2 1 0.0157306 0.0203173 0.0206829 0.0216376 0.0270704 0.0231756 0.0392572 0.0402659 0.040907 0.0477286 0.0562414 0.0422286 0.0529218 0.0600748 0.082183 0.0735848 0.0596695 0.0831168 0.0625263 0.0628913