ITEM: TIMESTEP
68500
ITEM: NUMBER OF ATOMS
10500
ITEM: BOX BOUNDS xy xz yz pp pp pp
0	8.9688	2.9896
0	118.725	0
0	252.977	0
ITEM: ATOMS id type element xu yu zu q Q_1 Q_2 Q_3 Q_4 Q_5 Q_6 Q_7 Q_8 Q_9 Q_10 Q_11 Q_12 Q_13 Q_14 Q_15 Q_16 Q_17 Q_18 Q_19 Q_20 Q_21
1 1 Mg -3.3964 7.2035 57.3323 1.2 1 0.0166084 0.0134035 0.0140865 0.029189 0.0159177 0.0298335 0.0231784 0.0629172 0.0249936 0.0776742 0.026653 0.0491105 0.0317378 0.0675329 0.0437564 0.0913057 0.0525006 0.0964667 0.0569846 0.0818034
2 1 Mg -1.82655 6.90154 50.0912 1.2 1 0.212271 0.0938867 0.0335631 0.0363744 0.0292388 0.059285 0.0443942 0.0429666 0.0574545 0.0710674 0.0550985 0.0731159 0.075546 0.068585 0.0984998 0.0638792 0.0874223 0.0964374 0.0726101 0.0785023
3 2 Si -0.257935 3.96038 48.0876 2.4 1 0.374891 0.067738 0.0710166 0.0334023 0.0610893 0.0491102 0.0716322 0.0760489 0.0609978 0.0793358 0.0576076 0.069184 0.0617003 0.0837632 0.0962552 0.0999949 0.109791 0.0915101 0.0717816 0.0692455
4 3 O -0.335812 5.46814 47.6264 -1.2 1 0.427264 0.0398441 0.0640576 0.0310719 0.0407845 0.0480173 0.0649558 0.0702612 0.086977 0.0759214 0.0930018 0.0765294 0.0714571 0.0693436 0.0903389 0.122376 0.0928464 0.0814118 0.0774722 0.0792539
5 3 O -2.03793 3.43377 51.8941 -1.2 1 0.116925 0.0585578 0.027327 0.021617 0.0237664 0.0495249 0.0609076 0.0507248 0.0497049 0.0560278 0.0678762 0.0507759 0.0505697 0.0757918 0.0889532 0.0822584 0.0637997 0.0520065 0.0722279 0.0663561
6 3 O -1.54015 3.53929 48.9521 -1.2 1 0.299129 0.0976851 0.0406156 0.0443778 0.0431706 0.050793 0.0704436 0.0563722 0.058142 0.0595836 0.0749501 0.0696861 0.0669514 0.0687023 0.0695672 0.107582 0.083118 0.0777824 0.0750708 0.085657
7 1 Mg 1.82954 2.54582 47.1376 1.2 1 0.466118 0.0217994 0.0799984 0.0498286 0.0355738 0.0828996 0.0592506 0.0580273 0.0765212 0.0889646 0.068133 0.0767179 0.0834919 0.086286 0.0691587 0.0948771 0.0991745 0.101192 0.104195 0.0995077
8 3 O 1.22989 3.66364 48.7877 -1.2 1 0.324593 0.0681491 0.0228056 0.0412086 0.0323129 0.0647605 0.0785775 0.0316655 0.0814123 0.0755749 0.0466338 0.078525 0.0829841 0.0678754 0.0647183 0.0875662 0.0966807 0.0919898 0.0948881 0.0914127
9 1 Mg 0.954981 2.60186 54.6722 1.2 1 0.0214533 0.0288647 0.0162706 0.0224698 0.0332312 0.0310464 0.0245987 0.0295765 0.0464908 0.0548552 0.060708 0.0556462 0.0620122 0.0699945 0.0643024 0.0883961 0.0737709 0.0801387 0.0835619 0.0607305
10 2 Si 1.11034 4.91062 56.5222 2.4 1 0.00634295 0.0161365 0.014367 0.0332456 0.0307021 0.0220591 0.0426374 0.0457067 0.0504424 0.0582902 0.0519636 0.0585747 0.0592709 0.0605 0.0835088 0.0621329 0.061544 0.0932973 0.0614044 0.0633796
11 3 O 1.10526 3.41426 56.6712 -1.2 1 0.027972 0.0134863 0.0153291 0.0247438 0.01795 0.0259892 0.0328445 0.0587133 0.0447023 0.0385972 0.0507202 0.0638787 0.0589371 0.056489 0.0760521 0.0658554 0.0622549 0.0765856 0.0603673 0.0799924
12 3 O 1.10813 6.07342 52.8172 -1.2 1 0.0805908 0.0470931 0.0298363 0.0161441 0.0260008 0.0453795 0.0392957 0.0577018 0.0478657 0.0461976 0.060528 0.0541508 0.0710876 0.071229 0.0877515 0.086037 0.0612699 0.066013 0.0665611 0.0710664
13 3 O -0.221621 5.47795 55.8484 -1.2 1 0.0112663 0.0147667 0.0278069 0.017243 0.0223518 0.024694 0.0422775 0.0350371 0.0420833 0.0486603 0.0511184 0.0485818 0.0550622 0.0653249 0.0684961 0.0740742 0.0770516 0.0579863 0.073479 0.06703
14 3 O 2.29509 5.72206 55.6987 -1.2 1 0.0133342 0.028196 0.0286673 0.0245884 0.0179644 0.0256845 0.0479659 0.0465372 0.0445069 0.0442721 0.0578708 0.0431017 0.0536926 0.0593334 0.0885436 0.0714338 0.0758448 0.0702092 0.0671409 0.0576759
15 1 Mg -0.459401 4.67631 52.2426 1.2 1 0.0911 0.0668367 0.0334556 0.0375543 0.0326395 0.027306 0.0407218 0.0604094 0.0424714 0.0856955 0.0463601 0.0588256 0.0471511 0.079713 0.0475293 0.0984591 0.052981 0.0930509 0.0630587 0.0854187
16 1 Mg 2.79456 3.9971 49.9987 1.2 1 0.229783 0.088786 0.0322357 0.0431043 0.0466813 0.0623468 0.0571335 0.0533083 0.077977 0.0642943 0.0605733 0.0551564 0.0590262 0.0723621 0.0885684 0.07691 0.0766274 0.0911558 0.0822808 0.0731466
17 2 Si 1.16169 6.59457 51.2556 2.4 1 0.1457 0.086019 0.0292264 0.0311698 0.0432108 0.0463696 0.0516841 0.0473144 0.0586125 0.0651083 0.0619466 0.0735902 0.0725107 0.067985 0.0823024 0.0906563 0.0776652 0.0861008 0.0792067 0.0674516
18 3 O 1.28989 8.18905 51.2909 -1.2 1 0.148737 0.0797035 0.0300145 0.0425036 0.0296615 0.0494511 0.0387288 0.0714503 0.0438099 0.069944 0.0446707 0.0852416 0.0687455 0.0644366 0.0763687 0.066355 0.0737516 0.069322 0.0702744 0.071251
19 3 O 1.14581 5.74057 57.974 -1.2 1 0.0246027 0.0200928 0.0154294 0.0179766 0.0135373 0.0337689 0.0346286 0.0405927 0.0426291 0.0436407 0.0368528 0.0631288 0.0440964 0.061286 0.0899786 0.0778868 0.072001 0.0606784 0.0649282 0.058131
20 3 O -0.184847 6.06029 50.6845 -1.2 1 0.181535 0.0878511 0.0191053 0.0318017 0.0400466 0.0308747 0.0545898 0.0584553 0.0546545 0.0610846 0.0642201 0.077676 0.0678673 0.0603774 0.0884279 0.0651097 0.0789978 0.0774126 0.0611539 0.0777671
21 1 Mg -3.49704 4.67769 52.6661 1.2 1 0.065649 0.0515632 0.0281427 0.027905 0.0133293 0.044184 0.0350849 0.0567694 0.0546256 0.0705253 0.0505729 0.0524048 0.0477367 0.0523093 0.0543204 0.0870443 0.0868955 0.075312 0.0695228 0.0717871
22 3 O 2.48581 5.93312 50.6539 -1.2 1 0.192315 0.0922377 0.0346651 0.0173177 0.0367812 0.0431406 0.0594884 0.0571222 0.047874 0.0639104 0.0473858 0.0617295 0.0609081 0.0605865 0.100505 0.0712543 0.0800259 0.0692566 0.0817681 0.0755785
23 1 Mg -2.01023 4.51548 55.2631 1.2 1 0.0175622 0.0182539 0.0283022 0.0251966 0.0177629 0.0230426 0.0294991 0.0319477 0.0412744 0.0517668 0.0561444 0.0543887 0.0587247 0.0629069 0.0592917 0.0662944 0.0809719 0.0969113 0.0550779 0.0793659
24 2 Si -1.99372 2.55529 53.3062 2.4 1 0.0486153 0.0376443 0.0204527 0.0205344 0.0277903 0.0231256 0.0488363 0.0450738 0.0607678 0.075263 0.0547325 0.0634294 0.0728847 0.0517339 0.0701081 0.061117 0.0724323 0.0803253 0.0730312 0.0647238
25 3 O -1.86182 0.986237 53.1076 -1.2 1 0.053065 0.0361773 0.0310449 0.0266588 0.0194213 0.0443739 0.033958 0.0627875 0.0607511 0.0634289 0.0459109 0.0613034 0.0635964 0.0718352 0.0794947 0.0722814 0.0529409 0.077493 0.0630394 0.0766107
26 3 O -0.0467762 2.97103 46.8385 -1.2 1 0.497624 0.0374965 0.0884787 0.0293643 0.079462 0.0669969 0.0802895 0.0711754 0.0719789 0.079147 0.0821341 0.0757478 0.0966524 0.0885505 0.0888222 0.0882632 0.09794 0.0954186 0.104367 0.111463
27 3 O -3.31733 3.17616 54.088 -1.2 1 0.0309742 0.0331806 0.0212689 0.0168744 0.0209719 0.0294258 0.0322139 0.0454688 0.0504085 0.0560266 0.0609042 0.0398831 0.056456 0.0617508 0.070268 0.0709352 0.0703182 0.0589121 0.071317 0.0643852
28 3 O -0.89126 3.18673 54.1964 -1.2 1 0.0324131 0.0222586 0.0315935 0.0123932 0.0190625 0.0341749 0.0406188 0.0407378 0.0401381 0.0527269 0.0640131 0.0407887 0.0496722 0.0718624 0.0653416 0.0758452 0.0824377 0.0828888 0.0577711 0.0628101
29 1 Mg -3.06184 11.5862 57.2458 1.2 1 0.0126304 0.012251 0.0210061 0.0294235 0.0206407 0.034465 0.0224487 0.0479684 0.0408047 0.0706929 0.0368873 0.0537534 0.0302748 0.0591934 0.0396936 0.0870781 0.0577674 0.0955905 0.0626431 0.078923
30 1 Mg -1.75014 11.5838 49.8362 1.2 1 0.233402 0.0776692 0.0277593 0.0391462 0.0314124 0.0521579 0.0493714 0.0556199 0.0456636 0.0594179 0.0662371 0.0628764 0.0695906 0.069135 0.107652 0.0869969 0.0650724 0.0951757 0.0863018 0.0794722
31 2 Si -1.18003 9.02138 47.9309 2.4 1 0.370916 0.0666089 0.0669434 0.0511369 0.0425966 0.0624127 0.0719455 0.0749519 0.0697682 0.0654816 0.0585033 0.0664744 0.0671083 0.079854 0.100283 0.0657708 0.100831 0.0916056 0.103217 0.0860538
32 3 O -1.23224 10.5991 47.9811 -1.2 1 0.375051 0.0657395 0.0595485 0.0540851 0.0517438 0.071239 0.0671926 0.0763404 0.053437 0.0854483 0.0700683 0.063457 0.0735284 0.0825202 0.0844794 0.0707665 0.0911791 0.0791956 0.0641491 0.0742455
33 3 O -1.79016 8.01447 51.8693 -1.2 1 0.116289 0.0618014 0.0293561 0.0293211 0.0297116 0.046591 0.0600344 0.0542623 0.056729 0.0500329 0.0549551 0.0499515 0.0643381 0.0835825 0.0918792 0.0794976 0.0710382 0.0493467 0.0722232 0.0671816
34 3 O -2.30986 8.37215 48.8528 -1.2 1 0.314908 0.0855923 0.0628384 0.024938 0.0503106 0.0610532 0.0639668 0.0658447 0.055507 0.066222 0.0781815 0.0690978 0.060185 0.0646327 0.076776 0.0869675 0.0970505 0.0842481 0.0773135 0.0946442
35 1 Mg 0.154883 7.08234 46.8007 1.2 1 0.497376 0.036439 0.0749904 0.0380048 0.0648711 0.0757209 0.0605452 0.0691175 0.0704682 0.0818087 0.0886482 0.0760107 0.0784753 0.0791351 0.070182 0.0922695 0.0917505 0.107116 0.113852 0.10171
36 3 O 0.325447 8.50934 48.3809 -1.2 1 0.34809 0.0794136 0.0585942 0.0479948 0.0330581 0.0499886 0.0421419 0.0582454 0.0585094 0.0624546 0.0759355 0.0665615 0.0763926 0.0904994 0.0915047 0.0690405 0.0935114 0.100667 0.0847237 0.0891167
37 1 Mg 1.09312 7.11286 54.6114 1.2 1 0.00885802 0.0322623 0.0234037 0.0313423 0.0154003 0.0289945 0.0237176 0.0404708 0.0415281 0.0582927 0.0658345 0.0525274 0.053518 0.0634708 0.0628136 0.0852131 0.0652601 0.0787866 0.0827009 0.0735825
38 2 Si 0.9324 9.72577 56.4186 2.4 1 0.01918 0.0216955 0.0184166 0.0249018 0.0368634 0.0296003 0.0426904 0.0468289 0.0581055 0.0486596 0.0604544 0.0568465 0.0652514 0.050844 0.0811769 0.0766455 0.0669615 0.0793249 0.0744694 0.0527056
39 3 O 0.933154 8.11269 56.2687 -1.2 1 0.0259319 0.0193334 0.0168919 0.0205232 0.0276255 0.0277386 0.0293929 0.0682783 0.0421991 0.0642276 0.0340857 0.0603032 0.0717258 0.0691771 0.0757404 0.0543493 0.0630169 0.0610806 0.0700263 0.0591117
40 3 O 1.28624 10.7248 52.7351 -1.2 1 0.0730526 0.0463161 0.029626 0.0200082 0.0313386 0.0507309 0.0505511 0.0473726 0.041945 0.0481647 0.0528647 0.0491533 0.0557571 0.0712868 0.0984401 0.0776796 0.0691745 0.0536152 0.0763735 0.068152
41 3 O -0.297488 10.464 55.8277 -1.2 1 0.0072394 0.0131372 0.0284463 0.0167379 0.0224786 0.0251703 0.0485037 0.0414446 0.0450703 0.0476435 0.0587019 0.0364153 0.0599162 0.0560803 0.0962156 0.0748439 0.0639028 0.0767513 0.0623289 0.0724385
42 3 O 2.1659 10.4282 55.7328 -1.2 1 0.0205572 0.0233687 0.027176 0.0151457 0.0299892 0.0246901 0.0421879 0.0442937 0.0339552 0.039169 0.0525456 0.0419683 0.0567202 0.0567183 0.0874643 0.0750177 0.0780864 0.0702157 0.0634029 0.063632
43 1 Mg -0.262694 9.34741 52.2523 1.2 1 0.11564 0.061561 0.0221088 0.0392005 0.0346328 0.04414 0.0395629 0.0707734 0.0274253 0.0870283 0.0301866 0.0612986 0.0359601 0.0767881 0.0456695 0.106978 0.0497063 0.0956548 0.0413974 0.101515
44 1 Mg 1.87648 9.01537 49.4629 1.2 1 0.267854 0.0989064 0.0382233 0.0380822 0.0327353 0.0490968 0.071403 0.0480898 0.0741896 0.0630546 0.0847466 0.0546819 0.0853178 0.0701776 0.0828348 0.0938949 0.089801 0.0927156 0.0816862 0.0922106
45 2 Si 1.21415 11.3799 51.2378 2.4 1 0.136008 0.0875494 0.0385238 0.0317849 0.0431781 0.0481025 0.0552815 0.0400317 0.0560338 0.0639519 0.0737831 0.0713616 0.0782248 0.0688989 0.0902689 0.0883948 0.0785297 0.0855202 0.072615 0.0612122
46 3 O 1.31634 12.9512 51.3023 -1.2 1 0.133387 0.0845207 0.0219783 0.0303054 0.0320103 0.0500747 0.0403297 0.0673132 0.0581195 0.0707021 0.0431183 0.078465 0.0700104 0.0671997 0.0752939 0.0699145 0.08213 0.0748373 0.0683141 0.073135
47 3 O 0.946524 10.2081 57.9173 -1.2 1 0.00857761 0.0160861 0.0149409 0.022616 0.024257 0.0324963 0.036191 0.0445147 0.047126 0.0479465 0.045611 0.0428961 0.061089 0.0698185 0.0877866 0.0752298 0.059596 0.0604058 0.0699869 0.0527875
48 3 O -0.115718 10.7564 50.681 -1.2 1 0.192548 0.0823167 0.0219244 0.0242692 0.0465326 0.0266578 0.0489509 0.0654876 0.0524974 0.0571348 0.0638518 0.0490231 0.0615693 0.0723404 0.0929397 0.0793191 0.0719361 0.0798549 0.0769776 0.0795119
49 1 Mg -3.26386 9.35564 52.3622 1.2 1 0.0838583 0.0540443 0.0244396 0.0314005 0.014801 0.049537 0.0411595 0.055653 0.0315768 0.08582 0.0295322 0.0456078 0.0351244 0.0621962 0.035703 0.112377 0.0435439 0.106561 0.0473469 0.0916371
50 3 O 2.45216 10.7265 50.4558 -1.2 1 0.19967 0.0897744 0.0216826 0.0111679 0.0383519 0.0560053 0.0586319 0.0460375 0.0566815 0.0690893 0.0633588 0.0727973 0.0540427 0.0671338 0.0957839 0.0784479 0.0713136 0.0725972 0.0560106 0.0883382
51 1 Mg -1.87632 9.48906 55.2432 1.2 1 0.0211741 0.0201114 0.0223827 0.0289133 0.022416 0.02821 0.0332053 0.0336137 0.0329309 0.0628797 0.0603135 0.057393 0.0596121 0.0708467 0.0682112 0.0687908 0.0784597 0.0789588 0.0801105 0.0655897
52 2 Si -1.77619 7.27312 53.4496 2.4 1 0.057852 0.0407943 0.0195701 0.0273918 0.032816 0.0336274 0.0422967 0.0512599 0.0547834 0.0638175 0.0643441 0.0628645 0.0757216 0.050898 0.0726621 0.071095 0.0670789 0.0781507 0.0684236 0.065441
53 3 O -1.92955 5.77381 53.2694 -1.2 1 0.0629618 0.0385213 0.0207704 0.0194361 0.0206135 0.0293184 0.0436871 0.0638767 0.05165 0.0618467 0.0414741 0.0754692 0.0458859 0.0781899 0.0645756 0.064887 0.0598784 0.0635461 0.0694051 0.0717928
54 3 O -1.19417 8.46968 46.4488 -1.2 1 0.524945 0.0663009 0.0669266 0.0509585 0.0665565 0.0570446 0.0790728 0.0548588 0.0755781 0.0706405 0.056345 0.050776 0.0702152 0.0986592 0.129865 0.112047 0.0962294 0.0958715 0.0845939 0.0836783
55 3 O -3.04923 8.06128 54.0423 -1.2 1 0.0392508 0.0184881 0.0217019 0.014582 0.0272304 0.0308483 0.049425 0.0380281 0.042191 0.0552056 0.0573465 0.0398256 0.0599201 0.057827 0.0816252 0.0729861 0.0775388 0.0657793 0.0639642 0.0724918
56 3 O -0.563473 7.82836 54.0766 -1.2 1 0.0417803 0.0212358 0.0304853 0.0276214 0.0330381 0.0305995 0.0344751 0.0404171 0.0417707 0.061924 0.0609015 0.0488801 0.0576592 0.0711621 0.0636846 0.0707286 0.0749183 0.076896 0.0696022 0.0643064
57 1 Mg -3.04073 16.3747 57.3107 1.2 1 0.0108843 0.0187133 0.0159313 0.0297524 0.0152998 0.0347494 0.0249843 0.0524364 0.0341578 0.0776967 0.0271416 0.0511828 0.0319957 0.0705811 0.0313361 0.0909491 0.0363603 0.104297 0.0452104 0.0854136
58 1 Mg -1.6714 16.3544 49.8412 1.2 1 0.232538 0.0792203 0.0267957 0.0429866 0.0327647 0.0531665 0.051805 0.0554255 0.0490061 0.0609229 0.0617872 0.0652955 0.0757605 0.0738362 0.102216 0.0816708 0.0741321 0.0981115 0.0860124 0.0828077
59 2 Si -1.18567 13.8526 47.9314 2.4 1 0.372697 0.070772 0.0813199 0.0649425 0.0328257 0.0666482 0.0495998 0.0800485 0.0614872 0.0680049 0.0578085 0.0737762 0.0575331 0.0747532 0.0978143 0.0754713 0.104546 0.0983579 0.0892849 0.0923407
60 3 O -1.09664 15.4205 47.9915 -1.2 1 0.368334 0.0693657 0.0507822 0.0626499 0.039866 0.0902622 0.0624684 0.0812661 0.0528438 0.0885785 0.0518463 0.0712034 0.0583515 0.0823757 0.0830503 0.0752939 0.0928326 0.0772968 0.0778526 0.0743235
61 3 O -1.73493 12.7491 51.7772 -1.2 1 0.116306 0.0577163 0.0313245 0.028761 0.0337431 0.0520792 0.0611329 0.0503328 0.0656813 0.0499515 0.0576366 0.0515276 0.0541233 0.0872864 0.0977112 0.0805558 0.0871443 0.0530671 0.0704148 0.0718832
62 3 O -2.36115 13.2717 48.8238 -1.2 1 0.30348 0.0973577 0.0644947 0.0253298 0.059712 0.0483116 0.0596929 0.0672683 0.0587015 0.0680764 0.0762082 0.0652671 0.0597035 0.0578855 0.0833002 0.0858018 0.0866665 0.0775903 0.0832552 0.0907426
63 1 Mg -0.159928 11.7639 46.8533 1.2 1 0.482263 0.0245249 0.077474 0.0330975 0.0530924 0.0972873 0.0707622 0.0878123 0.0827108 0.0850098 0.0848265 0.0689292 0.0722808 0.0919098 0.0769545 0.0857606 0.0971388 0.0987825 0.101479 0.107044
64 3 O 0.2623 13.1866 48.413 -1.2 1 0.340375 0.0837835 0.0539217 0.0382433 0.0433184 0.0585996 0.0415969 0.0647627 0.0670376 0.0677202 0.0606072 0.0613555 0.0650072 0.086328 0.0974208 0.0815397 0.0948263 0.0982292 0.0824114 0.089252
65 1 Mg 1.27403 11.6741 54.3034 1.2 1 0.0161154 0.0267042 0.0121575 0.0313247 0.0149043 0.01786 0.0298978 0.0415541 0.042304 0.0608306 0.0525872 0.0648331 0.0643253 0.0648246 0.0724514 0.0537015 0.0811615 0.0895713 0.0611773 0.0803295
66 2 Si 1.21219 14.4363 56.4402 2.4 1 0.01296 0.0158398 0.021971 0.0278015 0.0346705 0.0307343 0.0433577 0.0438868 0.0585134 0.0453846 0.0557302 0.0544043 0.0652269 0.0511638 0.0708582 0.0733325 0.0660189 0.0925701 0.0589311 0.061329
67 3 O 1.41292 12.8844 56.5929 -1.2 1 0.0135819 0.0213753 0.0206252 0.0268632 0.0251197 0.0243661 0.0266321 0.0630466 0.0416781 0.0459039 0.0496118 0.0659595 0.0558438 0.0611473 0.0837269 0.0656278 0.0639541 0.0751463 0.0636633 0.0735535
68 3 O 1.36565 15.4813 52.729 -1.2 1 0.0680066 0.0486514 0.0240411 0.0246919 0.0239077 0.042821 0.0597875 0.0513562 0.0515508 0.0444023 0.0523426 0.0517567 0.0570071 0.0720786 0.0964581 0.0688994 0.0682027 0.0647859 0.0700567 0.0624744
69 3 O -0.111538 15.1327 55.9039 -1.2 1 0.00957261 0.0103877 0.0329411 0.0200612 0.023274 0.0266262 0.0413349 0.0438645 0.0383437 0.0389958 0.0583371 0.0476967 0.0479711 0.0570547 0.0880024 0.0700246 0.0733318 0.0575018 0.0688347 0.0677623
70 3 O 2.47055 15.1466 55.7332 -1.2 1 0.0164703 0.0215585 0.0253262 0.0183232 0.0278475 0.0158139 0.0473398 0.0445626 0.0415146 0.0427309 0.0488163 0.0414254 0.0587474 0.0616407 0.0897815 0.0780566 0.0793264 0.0734821 0.057175 0.0593788
71 1 Mg -0.206989 14.1049 52.2121 1.2 1 0.100438 0.067594 0.0255734 0.0417608 0.0341248 0.0410129 0.0382238 0.0742984 0.0233149 0.086089 0.021056 0.0570136 0.0285881 0.0805879 0.033846 0.103892 0.0435661 0.104347 0.0391588 0.107524
72 1 Mg 1.82591 13.8102 49.4556 1.2 1 0.261351 0.106613 0.0318315 0.0431896 0.0381181 0.0336367 0.0703947 0.0471798 0.0710192 0.0727596 0.0733305 0.060402 0.0711869 0.0736165 0.0843273 0.0947878 0.0790013 0.099517 0.0882656 0.0866638
73 2 Si 1.29285 16.1518 51.2434 2.4 1 0.138559 0.0822561 0.0388421 0.0324144 0.035007 0.0450138 0.0598849 0.0437282 0.0502042 0.0697123 0.0673776 0.0727586 0.0758336 0.0753503 0.0899829 0.0793938 0.0784093 0.0855418 0.0766383 0.0649502
74 3 O 1.39496 17.7199 51.3047 -1.2 1 0.14556 0.0737915 0.0259121 0.030508 0.0261831 0.0485104 0.03779 0.0671215 0.0495749 0.0669875 0.0425131 0.074864 0.0682283 0.0691877 0.0755751 0.068962 0.0745268 0.0770259 0.0661222 0.0701991
75 3 O 1.35098 15.0284 57.9239 -1.2 1 0.0107453 0.0151638 0.0174902 0.0175858 0.0165828 0.035362 0.0372988 0.0432964 0.0541377 0.0458093 0.0451596 0.0400519 0.052135 0.0687031 0.0929798 0.0737309 0.0636805 0.0600776 0.0664582 0.0683144
76 3 O -0.0269106 15.5178 50.6688 -1.2 1 0.181592 0.0850263 0.0224023 0.025807 0.0498659 0.0424126 0.0530796 0.0631237 0.0569218 0.0612755 0.0624571 0.0544201 0.0703974 0.0739321 0.0924204 0.0816988 0.0750938 0.08027 0.0711705 0.0832061
77 1 Mg -3.18391 14.1057 52.3125 1.2 1 0.0805858 0.0531238 0.0329411 0.0316366 0.0164382 0.0544079 0.0343938 0.0647131 0.0314874 0.0771337 0.0331255 0.051826 0.0322347 0.073757 0.0345279 0.109919 0.0444165 0.100121 0.0410087 0.0838025
78 3 O 2.52432 15.503 50.4579 -1.2 1 0.191417 0.0939157 0.0247783 0.0143094 0.0423663 0.0545228 0.0620485 0.04982 0.0562432 0.0665306 0.067815 0.0689 0.0590193 0.0666728 0.10033 0.0781137 0.0771177 0.0692526 0.0623977 0.0854193
79 1 Mg -1.81708 14.1962 55.2601 1.2 1 0.0204232 0.0121822 0.0199815 0.0245306 0.0205197 0.0221179 0.0292773 0.0374083 0.0379307 0.0605562 0.0527021 0.0626283 0.0529501 0.0545894 0.0650813 0.0671788 0.0829674 0.0902376 0.0723365 0.0679608
80 2 Si -1.78173 12.0981 53.2724 2.4 1 0.0590951 0.0338961 0.0232882 0.0217133 0.0354209 0.0344112 0.0469163 0.0550828 0.0581292 0.063353 0.0570717 0.0737591 0.080686 0.0500426 0.0704702 0.0662748 0.0716264 0.0850418 0.0612666 0.0647139
81 3 O -1.66027 10.4518 53.1079 -1.2 1 0.0660577 0.0493297 0.0247134 0.0267324 0.0245748 0.0382019 0.0344634 0.0693793 0.0509103 0.0564777 0.0496808 0.0623703 0.0658445 0.0780445 0.0767519 0.0593064 0.0567198 0.0804695 0.0549902 0.0673289
82 3 O -1.21337 13.3381 46.4311 -1.2 1 0.520084 0.0678376 0.0703067 0.0403611 0.0555038 0.0588152 0.0591752 0.0700403 0.0787651 0.0650724 0.0453968 0.0711435 0.0683587 0.0876745 0.119929 0.113922 0.106774 0.100283 0.0594438 0.0913907
83 3 O -3.07577 12.6749 53.8557 -1.2 1 0.0313441 0.039273 0.0268426 0.0235536 0.0315847 0.0290295 0.054917 0.0421817 0.0429285 0.0472747 0.0523555 0.0537635 0.0576357 0.0657251 0.0775519 0.0628251 0.0684123 0.0557151 0.0657355 0.0777628
84 3 O -0.392844 12.7353 53.8337 -1.2 1 0.0376266 0.0336213 0.01762 0.030575 0.0360775 0.0157376 0.0453552 0.0509086 0.046872 0.0552986 0.056974 0.0490854 0.0636116 0.0635652 0.0980168 0.0628655 0.0784451 0.064973 0.0630914 0.0741824
85 1 Mg -2.75404 20.8929 56.8416 1.2 1 0.0198683 0.0193767 0.0240846 0.0282065 0.0254421 0.030292 0.0357102 0.0401819 0.0581234 0.0583701 0.0434417 0.0518998 0.0389494 0.0495183 0.0603343 0.0668895 0.0985468 0.0762142 0.0691151 0.0628187
86 1 Mg -1.5831 21.1217 49.8405 1.2 1 0.22871 0.0839293 0.0247187 0.0385434 0.0317883 0.0502265 0.052499 0.0557826 0.0511633 0.0575654 0.0616614 0.0632543 0.0736561 0.0756947 0.101844 0.0792887 0.0762666 0.0988953 0.0836839 0.0859533
87 2 Si -1.09384 18.6291 47.9287 2.4 1 0.367128 0.0759311 0.0738436 0.06692 0.0307834 0.069319 0.0509028 0.0812234 0.0698496 0.0736986 0.0537394 0.0735916 0.0583386 0.0756166 0.100791 0.0754231 0.104769 0.0930492 0.0888947 0.0916033
88 3 O -1.02071 20.1985 47.9911 -1.2 1 0.366398 0.0682355 0.0439689 0.0653873 0.0437319 0.089392 0.0644157 0.0834398 0.0579483 0.0904653 0.0549887 0.0722472 0.0603318 0.0786101 0.0802996 0.0739046 0.0910663 0.0737885 0.0758709 0.0773177
89 3 O -1.65002 17.5002 51.771 -1.2 1 0.115081 0.0538572 0.039423 0.0285536 0.0385592 0.0461415 0.0640731 0.0581264 0.0685963 0.052772 0.0592519 0.0452724 0.0517943 0.0881417 0.104292 0.0749794 0.0796742 0.0436049 0.0702297 0.0712298
90 3 O -2.26174 18.0434 48.8281 -1.2 1 0.297631 0.100957 0.0607271 0.0302144 0.0621209 0.0514229 0.0576701 0.0742253 0.0600261 0.0678316 0.0719316 0.061658 0.0602393 0.0610357 0.0770169 0.0870626 0.0888032 0.0828541 0.0848854 0.0876132
91 1 Mg -0.0440435 16.5651 46.8269 1.2 1 0.47995 0.0183858 0.0860918 0.0253822 0.0579567 0.0832853 0.0757474 0.086483 0.07516 0.0877504 0.0859485 0.0612263 0.0636251 0.0802306 0.0763509 0.0892145 0.0902343 0.097773 0.104288 0.110985
92 3 O 0.37001 17.9877 48.3925 -1.2 1 0.33682 0.0901362 0.0630701 0.0419243 0.0453232 0.0598181 0.0463726 0.0711944 0.0663138 0.074526 0.0647821 0.0602277 0.064701 0.0867594 0.0937943 0.0760518 0.0944652 0.101537 0.0786447 0.0881993
93 1 Mg 1.18533 16.6535 54.8375 1.2 1 0.0133808 0.0200776 0.0194077 0.0322547 0.0218851 0.0256924 0.029974 0.0386263 0.0546819 0.0516165 0.0704406 0.0578125 0.0545422 0.0557091 0.0615027 0.0914911 0.0706515 0.0955469 0.0680323 0.0862524
94 2 Si 1.38116 18.9884 56.4647 2.4 1 0.0190828 0.0151323 0.0242529 0.0219159 0.0264981 0.0287263 0.0430745 0.0381319 0.0457435 0.0587358 0.0476114 0.0644031 0.068359 0.0618933 0.07826 0.0586031 0.074877 0.0825327 0.0603919 0.0626629
95 3 O 1.47784 17.4754 56.6077 -1.2 1 0.0153752 0.0140936 0.0272664 0.024053 0.0234786 0.0321086 0.0313467 0.0600463 0.0440149 0.0528326 0.0469974 0.0603381 0.0490521 0.0594002 0.0791192 0.0719598 0.0590291 0.0814564 0.0525596 0.0772977
96 3 O 1.45147 20.239 52.7294 -1.2 1 0.0620773 0.0484826 0.0251734 0.0165137 0.0255202 0.0454265 0.0541769 0.0564049 0.051454 0.0517741 0.050101 0.0474998 0.059586 0.0680918 0.105055 0.0740546 0.0735031 0.0583348 0.0710239 0.0644237
97 3 O -0.0690741 19.653 55.8363 -1.2 1 0.0214993 0.0194508 0.0355651 0.012368 0.0229914 0.0282094 0.049764 0.0335174 0.0429774 0.0457514 0.05118 0.0389649 0.0558491 0.074058 0.0729461 0.0795314 0.0760578 0.0679085 0.0676416 0.0758036
98 3 O 2.50429 19.6359 55.5845 -1.2 1 0.0148701 0.0183869 0.0252509 0.0110464 0.0275947 0.0278498 0.0412114 0.042684 0.0397035 0.047048 0.0490433 0.0372961 0.0539034 0.0673939 0.072239 0.0759589 0.074289 0.0717791 0.0618678 0.0747845
99 1 Mg -0.126194 18.8651 52.2079 1.2 1 0.103214 0.0643492 0.0277403 0.0431141 0.0341459 0.0396515 0.0363876 0.0748807 0.0283903 0.0897732 0.0269245 0.0557301 0.0312645 0.07597 0.0358437 0.10344 0.0445266 0.107256 0.0391133 0.101493
100 1 Mg 1.92402 18.5815 49.4545 1.2 1 0.269072 0.101771 0.0358551 0.0406918 0.0291457 0.0346328 0.0677767 0.0472057 0.0694222 0.074283 0.0773635 0.0521502 0.0711638 0.0703905 0.0819418 0.0914017 0.078817 0.0997408 0.0868091 0.0867034
101 2 Si 1.38106 20.9117 51.2443 2.4 1 0.132787 0.0863368 0.0371046 0.0346585 0.0324464 0.0495565 0.0588302 0.042608 0.0520314 0.065397 0.0674254 0.0726878 0.0700052 0.0684909 0.0888939 0.0787887 0.0763579 0.0837674 0.0726706 0.0668495
102 3 O 1.48527 22.4795 51.3054 -1.2 1 0.148391 0.0736491 0.0189656 0.0292843 0.0304825 0.0413705 0.0441358 0.0648828 0.0485351 0.0665349 0.0451654 0.0701109 0.0691242 0.068481 0.0752838 0.0674132 0.0748858 0.0738222 0.0693936 0.0808778
103 3 O 1.48029 19.6608 57.8171 -1.2 1 0.016418 0.0200563 0.0183313 0.0159345 0.016211 0.0325993 0.0317747 0.0472595 0.0577799 0.0406757 0.0530821 0.046215 0.0542029 0.0671383 0.0909973 0.0738502 0.0659908 0.0517104 0.0731009 0.0613497
104 3 O 0.0615419 20.2804 50.6669 -1.2 1 0.179209 0.089521 0.0218529 0.0272409 0.0475262 0.0360497 0.0574956 0.0650806 0.0551903 0.06013 0.061206 0.0461475 0.0671672 0.0762711 0.0903241 0.0766392 0.077314 0.0837395 0.0720687 0.086702
105 1 Mg -3.09665 18.8643 52.3122 1.2 1 0.0726226 0.0541365 0.0369551 0.0323998 0.0187044 0.0539862 0.0392146 0.0580484 0.0368077 0.0870479 0.0361134 0.0429981 0.0271428 0.0740337 0.0326963 0.107809 0.0468855 0.107101 0.0459508 0.0885413
106 3 O 2.61548 20.2646 50.4626 -1.2 1 0.202455 0.0884349 0.0296382 0.0203053 0.0431799 0.0490282 0.058434 0.0474079 0.0516949 0.0650677 0.063626 0.0671493 0.0505931 0.0628676 0.0990193 0.0741555 0.0734739 0.0643279 0.0669681 0.0889014
107 1 Mg -1.59063 18.5449 55.2496 1.2 1 0.0122648 0.0170713 0.0153405 0.026637 0.0250533 0.0199525 0.0293051 0.034718 0.0466882 0.0564177 0.0532445 0.0627307 0.0692941 0.0693478 0.0656458 0.0632829 0.0769543 0.100319 0.0648314 0.0737577
108 2 Si -1.62155 16.776 53.1913 2.4 1 0.0449587 0.0446866 0.0262307 0.0300455 0.0409308 0.034503 0.0448235 0.0549509 0.0613593 0.0650127 0.0591698 0.0726839 0.0830489 0.0558256 0.0864463 0.0621904 0.0696531 0.0798771 0.0534729 0.0602299
109 3 O -1.6697 15.2207 53.0813 -1.2 1 0.0545326 0.0534479 0.0210623 0.0199663 0.0351115 0.0333756 0.0347436 0.0772228 0.0437242 0.0643029 0.0480061 0.0772164 0.0596943 0.0797415 0.0778188 0.0700465 0.0535379 0.0745824 0.0630971 0.0775766
110 3 O -1.12868 18.1227 46.4249 -1.2 1 0.522022 0.0666454 0.0729934 0.0518988 0.0572683 0.0654674 0.0618551 0.0794758 0.0795018 0.0617575 0.0442848 0.0679485 0.0681435 0.0879187 0.116721 0.115201 0.107191 0.100312 0.0620713 0.0929882
111 3 O -2.94057 17.4338 53.7989 -1.2 1 0.0281247 0.0379431 0.0249601 0.0224038 0.0297181 0.0225372 0.0549586 0.0508341 0.0423477 0.0512018 0.0480306 0.0498488 0.0537475 0.0681958 0.082879 0.0598476 0.073078 0.0540244 0.0670977 0.0786508
112 3 O -0.395697 17.4291 53.9803 -1.2 1 0.0411444 0.0219337 0.0297765 0.0246802 0.0259905 0.0292474 0.0342076 0.0494735 0.0425296 0.0574375 0.0558628 0.0414361 0.0575592 0.0622818 0.0870153 0.0636835 0.0765925 0.0615015 0.0735831 0.0732167
113 1 Mg -3.09525 26.166 57.4726 1.2 1 0.0177205 0.0135931 0.0177051 0.0204945 0.0182923 0.0311699 0.0169799 0.051211 0.0396161 0.0758438 0.0327367 0.0422907 0.0433864 0.0649923 0.0390517 0.0886077 0.0583163 0.107777 0.0622507 0.0785102
114 1 Mg -1.48778 25.88 49.8402 1.2 1 0.227919 0.0863854 0.0251022 0.0376281 0.0319654 0.0507429 0.0525243 0.0546214 0.0516319 0.0600944 0.0616861 0.0652399 0.0759714 0.0728991 0.0983555 0.0787644 0.0749689 0.0962536 0.0828533 0.0847593
115 2 Si -1.00491 23.3922 47.9274 2.4 1 0.367279 0.0737898 0.0729803 0.0683774 0.0348482 0.0781432 0.0427299 0.0827778 0.0695881 0.0733917 0.0504555 0.0750083 0.0605428 0.0766769 0.0949187 0.0779932 0.10431 0.0961763 0.0896497 0.0968827
116 3 O -0.927602 24.9615 47.9909 -1.2 1 0.368026 0.0680608 0.0504572 0.0587568 0.0485912 0.0926908 0.0620444 0.0824479 0.0562576 0.0875058 0.053905 0.0721126 0.0626653 0.0808849 0.078132 0.0738434 0.0926293 0.0706725 0.0760666 0.0732714
117 3 O -1.55795 22.2588 51.7696 -1.2 1 0.111873 0.0604596 0.0298202 0.0278087 0.0353647 0.0496256 0.0615713 0.0493897 0.0647349 0.0479959 0.0583235 0.046367 0.0490135 0.088097 0.0991036 0.0774796 0.0778983 0.0455224 0.0756222 0.0745775
118 3 O -2.17411 22.8111 48.8277 -1.2 1 0.301084 0.0975059 0.0591299 0.0283359 0.0594205 0.0498945 0.0585266 0.0712634 0.058002 0.0688013 0.0727414 0.0610878 0.0565078 0.0607254 0.0788377 0.0843638 0.0870165 0.0815694 0.0863615 0.0898728
119 1 Mg 0.0423997 21.3296 46.8225 1.2 1 0.481416 0.0216097 0.0808344 0.0313382 0.0659353 0.0876736 0.0795317 0.0871161 0.0695168 0.0827145 0.0845876 0.0622126 0.063378 0.0774697 0.0757137 0.0931538 0.0948361 0.0980232 0.0998531 0.105001
120 3 O 0.458537 22.7495 48.3911 -1.2 1 0.336059 0.0918164 0.0654977 0.042412 0.0466235 0.0588972 0.0435239 0.0707312 0.0681806 0.0728392 0.0635442 0.0610358 0.0671707 0.0888658 0.0944363 0.0758569 0.0958737 0.101287 0.0821508 0.090612
121 1 Mg 1.43528 21.1301 54.5502 1.2 1 0.0159297 0.0243296 0.0137477 0.0354267 0.012127 0.0223007 0.0200695 0.033805 0.0481368 0.0610416 0.0541402 0.0501738 0.0584532 0.0704036 0.06038 0.0804417 0.0774269 0.09699 0.0644614 0.0812746
122 2 Si 1.48731 23.7406 56.4621 2.4 1 0.0121814 0.0164109 0.0268968 0.0147689 0.02275 0.030633 0.04667 0.0363475 0.0441112 0.0585323 0.0486246 0.0520246 0.0633904 0.0583554 0.0815241 0.0612768 0.0739076 0.0797758 0.0644075 0.0631857
123 3 O 1.55102 22.1627 56.3494 -1.2 1 0.0164298 0.0141505 0.0158151 0.0235245 0.0256617 0.0325603 0.0284007 0.0762694 0.0269868 0.0586558 0.0322659 0.0588017 0.0529979 0.0688857 0.0636186 0.0576122 0.0494465 0.0738729 0.0683434 0.0728667
124 3 O 1.54441 24.9963 52.7297 -1.2 1 0.0733341 0.0385511 0.0304139 0.0219241 0.0199394 0.0473237 0.0410863 0.058243 0.0555029 0.0469929 0.0436736 0.0485496 0.0566044 0.0650499 0.0982019 0.0667355 0.0724465 0.0619112 0.0679873 0.0659213
125 3 O 0.0655876 24.4912 55.7941 -1.2 1 0.0106245 0.00906977 0.0327086 0.0172774 0.0238477 0.0216976 0.0438566 0.0452985 0.0527509 0.0444749 0.0565494 0.0391985 0.0493192 0.0540702 0.0768519 0.0784915 0.0734307 0.0585592 0.0674878 0.0735165
126 3 O 2.63771 24.5371 55.643 -1.2 1 0.00825709 0.0133834 0.0259608 0.0153087 0.0238336 0.0196176 0.0490935 0.0391416 0.0448958 0.0443584 0.0474338 0.0401384 0.0546355 0.0642453 0.0795153 0.0738648 0.0831615 0.071824 0.0606477 0.0569622