ITEM: TIMESTEP
58900
ITEM: NUMBER OF ATOMS
10500
ITEM: BOX BOUNDS xy xz yz pp pp pp
0	8.9688	2.9896
0	118.725	0
0	252.977	0
ITEM: ATOMS id type element xu yu zu q Q_1 Q_2 Q_3 Q_4 Q_5 Q_6 Q_7 Q_8 Q_9 Q_10 Q_11 Q_12 Q_13 Q_14 Q_15 Q_16 Q_17 Q_18 Q_19 Q_20 Q_21
1 1 Mg -3.26406 7.25968 57.392 1.2 1 0.0199161 0.0158717 0.00968448 0.0280564 0.0121711 0.0363139 0.0215872 0.0539966 0.0252998 0.0798802 0.0286576 0.0510116 0.0319857 0.0642844 0.0303665 0.0964101 0.0374465 0.102612 0.0546303 0.0755729
2 1 Mg -1.82655 6.90154 50.0912 1.2 1 0.21755 0.0879569 0.0269435 0.0327047 0.0296776 0.0513337 0.0527099 0.0459928 0.0550507 0.0701411 0.0530624 0.0733657 0.0713521 0.0626182 0.0939862 0.0614784 0.088587 0.0986584 0.0688151 0.0767814
3 2 Si -0.257935 3.96038 48.0876 2.4 1 0.375016 0.0684861 0.0747882 0.0323996 0.0617114 0.0554592 0.0733072 0.0744739 0.053081 0.0764801 0.0564728 0.0657305 0.0596925 0.0815873 0.0924418 0.0986881 0.11103 0.0922139 0.0673584 0.0703429
4 3 O -0.335812 5.46814 47.6264 -1.2 1 0.426956 0.0402919 0.0653526 0.029997 0.0409601 0.0483876 0.0650067 0.0709661 0.0868152 0.0750474 0.0934074 0.0772854 0.069316 0.0661603 0.0917601 0.125364 0.0939856 0.0797796 0.0757233 0.0785729
5 3 O -2.03793 3.43377 51.8941 -1.2 1 0.112495 0.0621718 0.0280527 0.023538 0.0203174 0.0487574 0.0613592 0.0501264 0.0494164 0.055519 0.0658586 0.0519439 0.0520927 0.0792897 0.0842588 0.0804839 0.070086 0.0590408 0.0677449 0.0692473
6 3 O -1.54015 3.53929 48.9521 -1.2 1 0.301526 0.095716 0.0413055 0.0474435 0.0387739 0.0512158 0.0769006 0.0512473 0.0533699 0.0600402 0.0759383 0.0698554 0.0675868 0.0619364 0.0711393 0.109451 0.084688 0.0811416 0.0772643 0.0928515
7 1 Mg 1.82954 2.54582 47.1376 1.2 1 0.466098 0.0228661 0.0803971 0.0500912 0.0354764 0.0827421 0.0598356 0.0587276 0.0756353 0.0879969 0.0685004 0.0769563 0.0824074 0.0852444 0.0686244 0.0952433 0.101253 0.103948 0.105661 0.0990988
8 3 O 1.22989 3.66364 48.7877 -1.2 1 0.324511 0.0689088 0.022555 0.0409669 0.0321612 0.0643777 0.0783421 0.0322828 0.0824453 0.0785266 0.0506126 0.0767024 0.0810911 0.0687135 0.0683503 0.0874244 0.0937408 0.0897206 0.0942643 0.0925277
9 1 Mg 1.14241 2.4371 54.3317 1.2 1 0.010532 0.0315978 0.022379 0.0326593 0.0261122 0.0298305 0.021679 0.0367304 0.0360638 0.0597958 0.0559841 0.0663829 0.0649736 0.0581693 0.0724496 0.0590463 0.0816826 0.0718009 0.0813055 0.0583242
10 2 Si 1.24218 4.993 56.4521 2.4 1 0.0165483 0.0127015 0.020801 0.0304551 0.0267848 0.0193508 0.0392594 0.0464409 0.046561 0.0543146 0.0550945 0.0590996 0.066408 0.0562128 0.083754 0.0699434 0.0684336 0.0971813 0.0593995 0.0565865
11 3 O 1.16524 3.40732 56.5179 -1.2 1 0.0147263 0.0207767 0.0140454 0.0264537 0.0232671 0.0219809 0.0236022 0.0574675 0.0412516 0.0551325 0.0411605 0.0706453 0.0526806 0.0546212 0.0693994 0.0641805 0.0599699 0.0737797 0.055644 0.0743171
12 3 O 1.10813 6.07342 52.8172 -1.2 1 0.0882651 0.0412255 0.0272975 0.0212635 0.0185481 0.0480929 0.048113 0.0490348 0.0490826 0.0410168 0.0591877 0.0520801 0.0673188 0.0715293 0.0858408 0.0778621 0.0556704 0.0734034 0.0713242 0.0694879
13 3 O 0.00705183 5.73386 55.768 -1.2 1 0.0123133 0.0100076 0.0318179 0.0228286 0.021094 0.0193145 0.0423941 0.044116 0.0424588 0.0440893 0.0489532 0.0455472 0.0574487 0.0515053 0.0881111 0.0715689 0.0770289 0.0668887 0.0692952 0.0668069
14 3 O 2.47048 5.60852 55.75 -1.2 1 0.0121749 0.0192716 0.0302314 0.0259229 0.0234439 0.020784 0.0428285 0.0495182 0.0451576 0.0499476 0.0549669 0.0386212 0.0530412 0.0711198 0.0755542 0.0794705 0.0757063 0.0684656 0.0683891 0.0675436
15 1 Mg -0.459401 4.67631 52.2426 1.2 1 0.0886656 0.0708001 0.0332497 0.0400609 0.0309604 0.0297832 0.0422351 0.0615874 0.0457203 0.0786839 0.041065 0.0655601 0.0511958 0.0731539 0.0435206 0.102297 0.0548299 0.090693 0.0621649 0.081283
16 1 Mg 2.79456 3.9971 49.9987 1.2 1 0.221576 0.0959361 0.029932 0.0410101 0.0433157 0.0603393 0.0569155 0.0548956 0.0777361 0.0632447 0.0642738 0.0574556 0.0627623 0.0719598 0.0876075 0.0811301 0.0737921 0.0924413 0.0841164 0.0727789
17 2 Si 1.16169 6.59457 51.2556 2.4 1 0.137748 0.0917565 0.03343 0.0312139 0.0407091 0.0532198 0.0463933 0.0447622 0.0603183 0.0606974 0.0641704 0.0744119 0.0679605 0.0650689 0.0860032 0.0847499 0.0836462 0.090499 0.0686411 0.0607068
18 3 O 1.28989 8.18905 51.2909 -1.2 1 0.144189 0.085674 0.0261911 0.0345071 0.0362698 0.0479142 0.0377863 0.0760471 0.0465773 0.0708229 0.0472841 0.0901438 0.0653911 0.0608993 0.07608 0.070498 0.0707704 0.0672915 0.0685643 0.067503
19 3 O 1.30769 5.79318 57.8126 -1.2 1 0.00641959 0.0211008 0.0191684 0.0192368 0.0143505 0.0333697 0.0415416 0.0492959 0.0549675 0.0412537 0.0448618 0.0421003 0.0494713 0.0647812 0.104175 0.0795064 0.0750769 0.0559876 0.0704475 0.0554698
20 3 O -0.184847 6.06029 50.6845 -1.2 1 0.175935 0.0913336 0.0145328 0.0305252 0.0371386 0.0337507 0.055082 0.0601297 0.0603135 0.064305 0.0638076 0.0724414 0.0683164 0.0648437 0.088331 0.0749296 0.0836593 0.077115 0.0606464 0.079016
21 1 Mg -3.49704 4.67769 52.6661 1.2 1 0.0586412 0.0561559 0.0268337 0.0210644 0.0238249 0.04296 0.0379064 0.0551752 0.0585804 0.0647692 0.0518993 0.0489519 0.048619 0.0488758 0.061907 0.0883275 0.0872916 0.0794737 0.0740777 0.0724085
22 3 O 2.48581 5.93312 50.6539 -1.2 1 0.194196 0.0940385 0.0251098 0.0147869 0.0320766 0.0472139 0.059664 0.0576519 0.040651 0.0601603 0.0515753 0.0665539 0.0540444 0.0600055 0.0995458 0.0671357 0.0781646 0.0681465 0.0790197 0.0750238
23 1 Mg -1.72819 4.52493 55.1559 1.2 1 0.0271399 0.0149882 0.0284903 0.0297382 0.0139977 0.0223862 0.0319372 0.0351356 0.0465639 0.0467434 0.0569815 0.0551136 0.0589461 0.0620911 0.0584338 0.0663595 0.0760336 0.106116 0.0635633 0.07642
24 2 Si -1.83161 2.60931 53.284 2.4 1 0.0367249 0.040347 0.0275671 0.0234193 0.0272279 0.0168974 0.0458592 0.0460167 0.066196 0.0639903 0.0567427 0.0631897 0.0803216 0.0541959 0.0735131 0.0605127 0.0732171 0.0820378 0.0731063 0.0576957
25 3 O -1.98146 1.08305 53.1531 -1.2 1 0.0475049 0.0475101 0.0295682 0.0218791 0.019918 0.0437468 0.0288138 0.0619083 0.0608423 0.0607236 0.0469856 0.0702085 0.0591829 0.0771455 0.0813408 0.071652 0.0519239 0.0752022 0.0644116 0.0714616
26 3 O -0.0467762 2.97103 46.8385 -1.2 1 0.497768 0.037293 0.0875345 0.0295286 0.0801897 0.067229 0.0805953 0.0721437 0.0727117 0.0790607 0.0814617 0.0750139 0.0969482 0.0899298 0.0896744 0.0879395 0.0980363 0.0962684 0.104523 0.110818
27 3 O -3.04416 3.25547 54.1346 -1.2 1 0.0249262 0.022474 0.0261318 0.0265102 0.027553 0.0282079 0.0399275 0.0372981 0.051249 0.0570376 0.0610343 0.0380126 0.0615298 0.0642666 0.0737946 0.0706277 0.0620604 0.069289 0.0634784 0.0536821
28 3 O -0.529928 3.20406 54.0281 -1.2 1 0.0308956 0.0270817 0.0368181 0.0169891 0.0231515 0.0301649 0.0405819 0.0425939 0.0430224 0.06062 0.0609809 0.046705 0.052657 0.080339 0.0703814 0.0716031 0.0767056 0.0709519 0.0619198 0.0632053
29 1 Mg -2.97776 11.7282 57.3408 1.2 1 0.016613 0.00820868 0.014701 0.0273287 0.0106068 0.0370337 0.0179311 0.0531044 0.0300648 0.0807951 0.025979 0.0476865 0.0237571 0.0601343 0.0353902 0.10418 0.0395339 0.0938581 0.044935 0.0869576
30 1 Mg -1.75014 11.5838 49.8362 1.2 1 0.232529 0.0806268 0.0270966 0.0362462 0.0292142 0.0497655 0.0497843 0.0597169 0.0440505 0.0574954 0.0692801 0.0605278 0.0708495 0.067089 0.103488 0.0852188 0.0685991 0.095169 0.08534 0.0779088
31 2 Si -1.18003 9.02138 47.9309 2.4 1 0.372439 0.0653247 0.0640986 0.0585445 0.0404874 0.0610775 0.0722577 0.0769585 0.069201 0.0672061 0.0604337 0.0672032 0.068632 0.0796564 0.100879 0.0623762 0.0977473 0.090382 0.102837 0.0891945
32 3 O -1.23224 10.5991 47.9811 -1.2 1 0.382683 0.0542998 0.0534296 0.0535351 0.0539289 0.0719325 0.0636105 0.0738971 0.053399 0.0824925 0.0661115 0.0648534 0.0759701 0.07649 0.0741208 0.0651483 0.0901255 0.0818678 0.0676854 0.0713837
33 3 O -1.79016 8.01447 51.8693 -1.2 1 0.111525 0.0658608 0.0303259 0.0290572 0.0303833 0.0464635 0.056348 0.0585613 0.0573577 0.053292 0.0500273 0.0544506 0.0636332 0.0818787 0.0907427 0.076865 0.0707877 0.0506898 0.0712927 0.066308
34 3 O -2.30986 8.37215 48.8528 -1.2 1 0.320396 0.0782216 0.0618218 0.0249165 0.0485624 0.0595516 0.0654482 0.0653902 0.0555166 0.0663127 0.0788576 0.0652223 0.0547982 0.0630771 0.0762832 0.085963 0.0914376 0.0826111 0.0819488 0.0948382
35 1 Mg 0.154883 7.08234 46.8007 1.2 1 0.49725 0.0365765 0.0760999 0.0382617 0.0640843 0.0757423 0.0604042 0.0675761 0.0696165 0.0833583 0.0903223 0.075815 0.0779366 0.0797591 0.0697008 0.0910249 0.0929814 0.109649 0.113926 0.0992909
36 3 O 0.325447 8.50934 48.3809 -1.2 1 0.344964 0.0832505 0.0662212 0.0418293 0.0364482 0.0506285 0.042675 0.0641608 0.061611 0.067741 0.0767541 0.0636635 0.0796179 0.0945841 0.090619 0.0704407 0.0916745 0.10032 0.0828978 0.0854477
37 1 Mg 1.10461 7.16915 54.6013 1.2 1 0.0195797 0.0325317 0.0143182 0.0341526 0.0178928 0.0269845 0.0215324 0.0316047 0.0413854 0.0590885 0.0641096 0.0517668 0.0546941 0.0650369 0.0648331 0.0868901 0.0595752 0.0813905 0.0838714 0.0775418
38 2 Si 1.43154 9.91713 56.3791 2.4 1 0.0301071 0.0143439 0.0218302 0.0304432 0.0296105 0.0312398 0.0358184 0.0422748 0.0559371 0.0492958 0.0503918 0.0683475 0.0648036 0.0609737 0.0698676 0.0708255 0.0670626 0.0932244 0.0550356 0.0530782
39 3 O 1.25503 8.38838 56.3833 -1.2 1 0.0251145 0.0160607 0.0172923 0.0222304 0.0311611 0.0225248 0.0222784 0.0691499 0.0385003 0.0515852 0.0389565 0.0606758 0.0707226 0.0589453 0.0693452 0.056421 0.0663656 0.0634143 0.0626161 0.0685943
40 3 O 1.28624 10.7248 52.7351 -1.2 1 0.0584599 0.0538017 0.0291282 0.0273221 0.0239667 0.0488164 0.0544565 0.0485772 0.0453077 0.0540901 0.0488113 0.0486441 0.0597364 0.0723319 0.101204 0.0817199 0.0690439 0.0560219 0.073267 0.0607498
41 3 O 0.258948 10.4978 55.6521 -1.2 1 0.0182397 0.013367 0.0268458 0.0183244 0.0274795 0.020731 0.0445637 0.0415087 0.0389784 0.0453144 0.0533179 0.0410405 0.0521358 0.0602953 0.0907745 0.0800353 0.071859 0.0623255 0.0652443 0.0605582
42 3 O 2.81802 10.5223 55.7217 -1.2 1 0.0197089 0.01743 0.0249317 0.0196472 0.0219651 0.0237616 0.0436254 0.0515017 0.0431622 0.0526588 0.0573742 0.0360674 0.0599241 0.0597661 0.0889543 0.075135 0.0683394 0.0704833 0.0611912 0.0654854
43 1 Mg -0.262694 9.34741 52.2523 1.2 1 0.113109 0.0690895 0.0220271 0.0404158 0.0379314 0.0393179 0.047936 0.0672647 0.0287259 0.0791278 0.0279534 0.0569967 0.0465214 0.0672517 0.0518974 0.0993918 0.0582443 0.0967925 0.0525888 0.0973463
44 1 Mg 1.87648 9.01537 49.4629 1.2 1 0.267121 0.100561 0.0407556 0.0346198 0.0360721 0.0488932 0.067817 0.0485533 0.0797692 0.0632164 0.0795267 0.0512618 0.0849781 0.069348 0.0909178 0.0955045 0.0855159 0.0938325 0.0864701 0.0907316
45 2 Si 1.21415 11.3799 51.2378 2.4 1 0.134014 0.0918445 0.0346349 0.0340923 0.0399884 0.0532061 0.0552296 0.0376108 0.0543286 0.0656391 0.0764604 0.0694778 0.0786422 0.0684067 0.0920982 0.0896304 0.086435 0.0804797 0.0802351 0.0566134
46 3 O 1.31634 12.9512 51.3023 -1.2 1 0.127912 0.0882929 0.0235562 0.0314497 0.0355578 0.044072 0.0412201 0.0681569 0.0594062 0.0664107 0.0473999 0.0796419 0.0730731 0.0598531 0.0741778 0.0676506 0.0787808 0.0702172 0.0724672 0.0722929
47 3 O 1.51989 10.4951 57.8774 -1.2 1 0.0120224 0.0124219 0.0251618 0.0213906 0.0127712 0.0344223 0.0407051 0.0442064 0.0530896 0.0438872 0.0482277 0.0404116 0.0607808 0.0682212 0.0919138 0.0716192 0.0617094 0.0496099 0.0665463 0.0526786
48 3 O -0.115718 10.7564 50.681 -1.2 1 0.189091 0.0862611 0.0224399 0.0303476 0.0384886 0.0305673 0.0538432 0.0699739 0.052387 0.0541519 0.0606653 0.0488459 0.0610828 0.0687181 0.0892003 0.0802085 0.0781959 0.0736845 0.0804994 0.079874
49 1 Mg -3.26386 9.35564 52.3622 1.2 1 0.0797584 0.053534 0.0307531 0.0290222 0.0129868 0.0528363 0.0413898 0.0556974 0.0315609 0.0872345 0.0405034 0.0486725 0.0388574 0.0587131 0.0369646 0.106899 0.0527219 0.100142 0.0596452 0.0920125
50 3 O 2.45216 10.7265 50.4558 -1.2 1 0.19524 0.095637 0.0178098 0.0112942 0.0415538 0.0536937 0.0548367 0.0503219 0.0551239 0.0707814 0.0678557 0.0754892 0.0530632 0.0653019 0.09804 0.0840392 0.0733964 0.0770913 0.0609812 0.0874817
51 1 Mg -1.59027 9.45751 55.0997 1.2 1 0.0200696 0.0160524 0.019673 0.0286922 0.0131942 0.0215073 0.027972 0.0312411 0.0402689 0.0538425 0.0535961 0.0568064 0.0556948 0.0708826 0.0581835 0.0769622 0.073406 0.091327 0.0673627 0.0827072
52 2 Si -1.86991 7.33258 53.3988 2.4 1 0.0550923 0.0425629 0.0233083 0.0246414 0.0360871 0.0296374 0.0492148 0.0502943 0.0605022 0.0625634 0.0656288 0.0549884 0.0733961 0.0504486 0.0677649 0.068634 0.0721625 0.0783048 0.0691403 0.064671
53 3 O -1.90278 5.74594 53.2431 -1.2 1 0.0571837 0.0448704 0.025936 0.0183382 0.0161071 0.0287807 0.0455905 0.0651343 0.0536377 0.0618595 0.0406601 0.0791922 0.0550495 0.0715891 0.0681466 0.0706665 0.0587583 0.0607768 0.068297 0.0643585
54 3 O -1.19417 8.46968 46.4488 -1.2 1 0.524823 0.0659612 0.0674958 0.0506986 0.0660124 0.0576181 0.0797035 0.0554775 0.0768439 0.0728616 0.058622 0.0512493 0.0684501 0.0975058 0.131324 0.115509 0.0974459 0.0937271 0.0834306 0.0841331
55 3 O -3.23605 8.03219 53.946 -1.2 1 0.039383 0.0187601 0.0258237 0.0242697 0.0145131 0.0357112 0.0459667 0.0539047 0.051921 0.051019 0.0509089 0.0415748 0.0569169 0.0641607 0.0826968 0.0661154 0.0636247 0.0679719 0.0645492 0.0739222
56 3 O -0.672553 8.16794 54.0463 -1.2 1 0.0433872 0.0297088 0.0330777 0.0264218 0.0303829 0.0250011 0.0356701 0.0488999 0.0427705 0.0487032 0.0591641 0.0435091 0.059446 0.0586852 0.080474 0.0671699 0.0714765 0.0782542 0.0681146 0.0669773
57 1 Mg -3.00612 16.7112 57.4224 1.2 1 0.012889 0.0200034 0.00657109 0.0344335 0.0107739 0.036468 0.0152855 0.0538384 0.0244497 0.0718875 0.0151639 0.0524227 0.0243503 0.071401 0.0150796 0.101402 0.0363978 0.120199 0.039308 0.0913027
58 1 Mg -1.6714 16.3544 49.8412 1.2 1 0.229463 0.0829057 0.0305373 0.0486985 0.0324346 0.0506972 0.0595749 0.0504464 0.0475126 0.0586857 0.0669312 0.0658798 0.0704087 0.0704596 0.10528 0.0863257 0.0730312 0.0923904 0.0802316 0.082191
59 2 Si -1.18567 13.8526 47.9314 2.4 1 0.374867 0.0666657 0.0746498 0.0615013 0.03208 0.0682095 0.0470396 0.078527 0.0612631 0.0660996 0.053939 0.0719056 0.0590742 0.0777987 0.0999601 0.0760451 0.104041 0.0971561 0.0889542 0.0883387
60 3 O -1.09664 15.4205 47.9915 -1.2 1 0.366442 0.069555 0.0492786 0.0628745 0.0452949 0.0927709 0.0621125 0.0808974 0.0555561 0.0892719 0.0536371 0.0732287 0.0602743 0.0817629 0.0838967 0.0767537 0.0940099 0.0766835 0.077282 0.0673539
61 3 O -1.73493 12.7491 51.7772 -1.2 1 0.120978 0.0540024 0.0274013 0.0321413 0.0315843 0.04804 0.0612445 0.0527782 0.0647597 0.0534544 0.0558391 0.045453 0.063784 0.0814008 0.093933 0.0803898 0.076431 0.0569301 0.0694558 0.0654494
62 3 O -2.36115 13.2717 48.8238 -1.2 1 0.306911 0.0904262 0.0577301 0.0287725 0.0559034 0.0506743 0.0562754 0.0698026 0.0615012 0.0658236 0.0731465 0.0632073 0.0587325 0.0599347 0.0848045 0.0857269 0.088708 0.0777264 0.0810414 0.0897814
63 1 Mg -0.159928 11.7639 46.8533 1.2 1 0.482261 0.025709 0.0777514 0.0346162 0.0530733 0.0947998 0.0686387 0.0903539 0.0842891 0.0828239 0.0834587 0.0694022 0.0725965 0.0919949 0.0769213 0.0862464 0.097362 0.0964394 0.0986659 0.108141
64 3 O 0.2623 13.1866 48.413 -1.2 1 0.337845 0.0860966 0.0611406 0.0380986 0.0469767 0.0587282 0.0475609 0.0628799 0.0640712 0.0750977 0.0648518 0.0597624 0.0686122 0.0898376 0.0993025 0.0836761 0.095712 0.100845 0.0783148 0.0828298
65 1 Mg 1.33851 11.946 54.612 1.2 1 0.015562 0.0253238 0.0203709 0.0296962 0.0138986 0.0211804 0.0276655 0.03578 0.0458295 0.0579621 0.0713952 0.0542683 0.0595224 0.0637062 0.060212 0.0868105 0.0711197 0.0804933 0.0796424 0.0754473
66 2 Si 1.41509 14.586 56.3895 2.4 1 0.0238893 0.016817 0.0230507 0.0331055 0.0280028 0.030143 0.0339661 0.0430303 0.0549955 0.0478484 0.0490264 0.0634089 0.0638791 0.0588781 0.0718305 0.0748039 0.052383 0.097832 0.0538344 0.0663599
67 3 O 1.3677 12.9998 56.5208 -1.2 1 0.014417 0.0276437 0.0101064 0.018695 0.0191666 0.0300577 0.0222369 0.0654179 0.0447926 0.0588846 0.0364768 0.0645063 0.0628383 0.0668253 0.0856848 0.0730547 0.0606987 0.0691132 0.0549193 0.0792238
68 3 O 1.36565 15.4813 52.729 -1.2 1 0.0726247 0.0431746 0.0269764 0.0145533 0.0213371 0.0452621 0.0522388 0.0529453 0.0485508 0.0448533 0.0458629 0.0566439 0.0601718 0.0684087 0.0931667 0.0731426 0.0736331 0.0647971 0.0733376 0.0609332
69 3 O 0.200681 15.3546 55.7773 -1.2 1 0.00763697 0.0112219 0.0317956 0.0187416 0.0204879 0.017643 0.0419311 0.043289 0.032838 0.043356 0.0514102 0.0491597 0.0527098 0.052973 0.0939684 0.0662779 0.0719576 0.0642251 0.0693241 0.0674773
70 3 O 2.69775 15.2724 55.764 -1.2 1 0.0140496 0.0258604 0.026964 0.0223843 0.0207634 0.0223717 0.045283 0.0477801 0.0330028 0.0522326 0.0500426 0.0454572 0.0611004 0.0518097 0.0920747 0.0733156 0.0716834 0.0608203 0.0678615 0.0719077
71 1 Mg -0.206989 14.1049 52.2121 1.2 1 0.108367 0.0614219 0.0283364 0.0424379 0.0297306 0.0404705 0.0435106 0.0718869 0.0332999 0.0763604 0.0327664 0.0519874 0.035223 0.0728958 0.0356453 0.105271 0.0468722 0.0996802 0.0469939 0.0877463
72 1 Mg 1.82591 13.8102 49.4556 1.2 1 0.263549 0.106654 0.0421545 0.0379972 0.0375105 0.03707 0.0661686 0.0513718 0.0743609 0.0698606 0.076457 0.0566314 0.0647808 0.0659975 0.0855005 0.0956968 0.0795701 0.0987347 0.0850015 0.0800655
73 2 Si 1.29285 16.1518 51.2434 2.4 1 0.132669 0.0861937 0.0317125 0.0370978 0.0336159 0.0508973 0.0531492 0.049681 0.0602919 0.0680294 0.0690901 0.0667345 0.068326 0.0691026 0.0917492 0.0883944 0.0746114 0.0789954 0.0706126 0.0717289
74 3 O 1.39496 17.7199 51.3047 -1.2 1 0.133443 0.0828253 0.0286912 0.0355267 0.0364807 0.0461174 0.0418093 0.069382 0.0585908 0.062973 0.0495199 0.08342 0.0669032 0.0659564 0.0766544 0.0683194 0.0788305 0.0774037 0.0700472 0.0635221
75 3 O 1.55311 15.2157 57.989 -1.2 1 0.0109612 0.0186372 0.0238093 0.0199104 0.0194534 0.0280196 0.035789 0.0423697 0.0448895 0.053167 0.0394888 0.0501407 0.0539499 0.0677374 0.0942897 0.0744825 0.0675991 0.0692955 0.0670915 0.061722
76 3 O -0.0269106 15.5178 50.6688 -1.2 1 0.178551 0.0900698 0.0273238 0.022387 0.047316 0.0437881 0.0600738 0.0638519 0.0549965 0.0640721 0.0593237 0.0476891 0.0625013 0.078285 0.0981546 0.0760449 0.0805662 0.0811536 0.0681805 0.0852295
77 1 Mg -3.18391 14.1057 52.3125 1.2 1 0.0765274 0.0554643 0.0336796 0.0306204 0.0196229 0.0524804 0.0374524 0.0606134 0.0376377 0.0841901 0.0374661 0.0465849 0.0300528 0.0770484 0.0427528 0.100148 0.0544611 0.0988158 0.0525549 0.0886598
78 3 O 2.52432 15.503 50.4579 -1.2 1 0.19508 0.0913734 0.0255488 0.0195837 0.0408437 0.056109 0.0557549 0.0514256 0.0554403 0.0658037 0.0613557 0.0727731 0.0611772 0.0657576 0.0996981 0.0770008 0.078457 0.0704001 0.0634098 0.0863252
79 1 Mg -1.53429 14.3753 55.3393 1.2 1 0.0175671 0.0142666 0.0277693 0.0314253 0.0168237 0.0297493 0.0253364 0.0333545 0.0397313 0.0563768 0.0592021 0.0646736 0.0566787 0.0578173 0.0782395 0.0620254 0.0847871 0.0739859 0.0811758 0.0635114
80 2 Si -1.51572 12.1692 53.3004 2.4 1 0.0378488 0.0416702 0.0219807 0.021688 0.0388168 0.03543 0.0472934 0.0558003 0.0593056 0.0544989 0.0537329 0.0619852 0.0788607 0.0474952 0.0666212 0.061924 0.0663684 0.0889679 0.0622878 0.0526684
81 3 O -1.51612 10.6307 53.2217 -1.2 1 0.0523567 0.0447687 0.0164755 0.0211452 0.0386873 0.0317698 0.0283614 0.080155 0.0485736 0.053447 0.0492819 0.0660754 0.0700556 0.0651305 0.0791259 0.0669587 0.0586311 0.0654446 0.0637948 0.0666756
82 3 O -1.21337 13.3381 46.4311 -1.2 1 0.520207 0.0674933 0.0688109 0.040628 0.0564802 0.0570071 0.0564708 0.0697775 0.0794463 0.0654354 0.04548 0.0707653 0.0677974 0.0878318 0.119887 0.113044 0.106193 0.100703 0.058952 0.0901911
83 3 O -2.76958 12.7778 54.0318 -1.2 1 0.0268542 0.0257083 0.0302745 0.0250588 0.0219403 0.0289332 0.0496263 0.0460237 0.0401869 0.0516836 0.0597241 0.038737 0.0556295 0.0693134 0.0767667 0.0720953 0.0696962 0.0714731 0.0707292 0.0642128
84 3 O -0.143183 12.8388 53.859 -1.2 1 0.0201052 0.0353001 0.0203317 0.027386 0.0334865 0.0239065 0.0512313 0.046894 0.060916 0.0543986 0.0602713 0.0383687 0.0628981 0.0559972 0.0902765 0.0688854 0.0725163 0.0617553 0.0618234 0.0732546
85 1 Mg -2.98261 21.4603 57.4635 1.2 1 0.0184304 0.011993 0.00759751 0.0222812 0.0160846 0.0334353 0.0195691 0.0582441 0.0197069 0.0809082 0.0260644 0.0467411 0.0213749 0.0681718 0.0292788 0.0943426 0.0361207 0.113835 0.0410488 0.0864081
86 1 Mg -1.5831 21.1217 49.8405 1.2 1 0.229891 0.0810102 0.0246361 0.0435618 0.0271356 0.0516776 0.0568404 0.0537856 0.0480592 0.0623763 0.0659468 0.0618879 0.0726952 0.0734077 0.102401 0.0821556 0.0747878 0.0943402 0.0801736 0.0819105
87 2 Si -1.09384 18.6291 47.9287 2.4 1 0.373484 0.0697513 0.0747106 0.0666861 0.0311945 0.0677805 0.047597 0.0783703 0.0675212 0.070077 0.0573331 0.0785056 0.0605609 0.073393 0.0975383 0.0765934 0.104415 0.0933621 0.0888973 0.0901495
88 3 O -1.02071 20.1985 47.9911 -1.2 1 0.365554 0.0704007 0.0503365 0.0638275 0.0454459 0.0912459 0.0628755 0.0828443 0.0571392 0.0887558 0.0555329 0.0719539 0.0605079 0.0821581 0.0812807 0.0752896 0.0943751 0.0761604 0.0747016 0.0689653
89 3 O -1.65002 17.5002 51.771 -1.2 1 0.11601 0.0569819 0.0346644 0.0282046 0.031956 0.0517346 0.0606809 0.0508915 0.0639172 0.0491717 0.0626882 0.049111 0.0529054 0.0803855 0.0989299 0.0820207 0.0808938 0.0479208 0.0747103 0.0676052
90 3 O -2.26174 18.0434 48.8281 -1.2 1 0.314488 0.0800573 0.0522601 0.0331203 0.0576703 0.0447823 0.0598824 0.0720808 0.0597019 0.0676282 0.070564 0.0575255 0.0518142 0.058076 0.0737799 0.0820427 0.0853395 0.0839485 0.0864133 0.0844192
91 1 Mg -0.0440435 16.5651 46.8269 1.2 1 0.488222 0.0229157 0.0751687 0.0319126 0.058397 0.0809486 0.0705186 0.0796114 0.0725379 0.0894859 0.0882836 0.0624943 0.0631706 0.0812009 0.0786788 0.0911477 0.0933523 0.0985849 0.10165 0.107982
92 3 O 0.37001 17.9877 48.3925 -1.2 1 0.336625 0.089985 0.0627495 0.0373267 0.0449078 0.0613796 0.0473625 0.0727956 0.0652652 0.0753083 0.0663994 0.0599859 0.0639051 0.0882186 0.0984378 0.0792175 0.0937428 0.0994502 0.0794669 0.0853818
93 1 Mg 1.49075 16.4741 54.575 1.2 1 0.0190681 0.032664 0.0127109 0.0279595 0.0103124 0.0227394 0.0272885 0.0414207 0.0479788 0.0585395 0.0583525 0.0514426 0.0536341 0.0653078 0.0648632 0.0755712 0.065822 0.105515 0.0682689 0.0810114
94 2 Si 1.76227 19.3562 56.4983 2.4 1 0.0203225 0.01758 0.0229246 0.0287175 0.0301591 0.033424 0.0359599 0.0430932 0.0518948 0.0511057 0.0507163 0.0580603 0.0731897 0.0495224 0.0780137 0.0648962 0.0778802 0.0819715 0.0637167 0.0439856
95 3 O 1.6653 17.8494 56.5354 -1.2 1 0.0143099 0.0168267 0.021104 0.0214895 0.0257874 0.031901 0.0287818 0.0639709 0.0464673 0.0549969 0.0449958 0.064603 0.0575824 0.0569936 0.0771602 0.0670549 0.0738855 0.071338 0.0648512 0.0609587
96 3 O 1.45147 20.239 52.7294 -1.2 1 0.0676958 0.0463531 0.0274762 0.0229129 0.0234304 0.0501246 0.0543196 0.0577505 0.0462215 0.0499836 0.0471473 0.0525209 0.0630063 0.0686466 0.102352 0.071596 0.0705417 0.0641995 0.0747197 0.0608459
97 3 O 0.368375 19.9107 55.7269 -1.2 1 0.0155923 0.010162 0.0242937 0.0191 0.025681 0.0252849 0.0373869 0.0388084 0.0323869 0.0427461 0.0477298 0.0470304 0.0524684 0.0650266 0.0791786 0.0680041 0.083967 0.0609322 0.07228 0.0639262
98 3 O 3.02679 20.0335 55.7576 -1.2 1 0.0240844 0.0161736 0.0243248 0.0263675 0.0305319 0.0195843 0.0478414 0.0431792 0.0449887 0.0436373 0.0554053 0.0372658 0.0586179 0.048637 0.0861185 0.0766404 0.0692353 0.0699461 0.0536056 0.0779925
99 1 Mg -0.126194 18.8651 52.2079 1.2 1 0.10252 0.0678067 0.026341 0.0430871 0.0338806 0.0410966 0.0419108 0.0715786 0.0290411 0.0801651 0.0272679 0.057936 0.0349536 0.0714543 0.0390272 0.107051 0.0534298 0.102611 0.0469503 0.0864943
100 1 Mg 1.92402 18.5815 49.4545 1.2 1 0.262118 0.108746 0.0369164 0.0453582 0.0329273 0.0353794 0.0680994 0.0474618 0.0710534 0.0747039 0.0777635 0.0555991 0.0735533 0.0679695 0.0835458 0.0926858 0.0772313 0.095443 0.0837068 0.0807919
101 2 Si 1.38106 20.9117 51.2443 2.4 1 0.132178 0.0863226 0.0345978 0.0415472 0.0343823 0.0516413 0.0578963 0.0428139 0.0530051 0.0690679 0.0707142 0.0700793 0.0730779 0.0675772 0.0912088 0.0844469 0.0836261 0.0848475 0.0736932 0.0626731
102 3 O 1.48527 22.4795 51.3054 -1.2 1 0.135683 0.0799379 0.0249568 0.0361186 0.0299514 0.0494523 0.0458278 0.0681528 0.0567409 0.0643115 0.0480714 0.0776637 0.0668697 0.0627194 0.0770759 0.0681193 0.0805507 0.0742046 0.0636814 0.0732893
103 3 O 1.60003 20.0491 57.8597 -1.2 1 0.0081339 0.0256551 0.0195297 0.0163938 0.0122979 0.0297605 0.0398995 0.0431793 0.0581915 0.0469418 0.0371726 0.0469959 0.0542808 0.0677328 0.10056 0.0673377 0.06871 0.052207 0.0691214 0.0504034
104 3 O 0.0615419 20.2804 50.6669 -1.2 1 0.182583 0.0889022 0.0224404 0.030761 0.0435664 0.0344204 0.0593799 0.0695141 0.055715 0.0568418 0.0612041 0.0466944 0.0622094 0.0725153 0.0930845 0.0816823 0.0770695 0.0731955 0.071866 0.0888048
105 1 Mg -3.09665 18.8643 52.3122 1.2 1 0.0709811 0.0583972 0.0331247 0.0303334 0.0167277 0.0524782 0.0385001 0.0610413 0.0382733 0.084465 0.0377062 0.0465735 0.0287156 0.0781942 0.0347142 0.101223 0.0568556 0.10548 0.0556831 0.089795
106 3 O 2.61548 20.2646 50.4626 -1.2 1 0.196634 0.0954282 0.0216194 0.0174214 0.043068 0.0502907 0.0565157 0.0498818 0.0520602 0.0674691 0.0659894 0.0712798 0.0526629 0.0583929 0.10062 0.0744519 0.0797365 0.0768419 0.0650571 0.0814828
107 1 Mg -1.28411 18.9143 55.044 1.2 1 0.0224788 0.0189553 0.019014 0.0299046 0.0179274 0.0283541 0.018774 0.0339203 0.0441288 0.0589451 0.0512885 0.0547938 0.0571536 0.0658233 0.0589963 0.0804246 0.0732891 0.0959054 0.072993 0.0717102
108 2 Si -1.68207 16.8521 53.2297 2.4 1 0.0394164 0.0435642 0.0262794 0.0307971 0.0423454 0.0340234 0.0476243 0.0522229 0.0617762 0.0660987 0.0672819 0.0726064 0.0763349 0.0514309 0.0760602 0.0623469 0.0713305 0.0813278 0.0671185 0.0560151
109 3 O -1.82411 15.2724 53.1214 -1.2 1 0.0512819 0.0492815 0.0230511 0.0268328 0.0252246 0.0357786 0.0490402 0.0662066 0.0520445 0.055213 0.0470633 0.0708066 0.069182 0.0729177 0.0887082 0.0668263 0.0694639 0.077594 0.075121 0.0616257
110 3 O -1.12868 18.1227 46.4249 -1.2 1 0.521962 0.066279 0.073086 0.0521226 0.0573031 0.065431 0.061851 0.0796403 0.0799229 0.0627389 0.0460372 0.0684985 0.0677969 0.0881977 0.117943 0.116348 0.107165 0.100068 0.0636645 0.0939422
111 3 O -3.0054 17.6234 53.8481 -1.2 1 0.0221454 0.0353719 0.03003 0.0264145 0.0272632 0.022862 0.0531942 0.0555175 0.0512896 0.0503948 0.0583331 0.0443574 0.0598835 0.0593523 0.0942496 0.0620743 0.0761081 0.0563541 0.0626695 0.0833926
112 3 O -0.364423 17.4569 53.9754 -1.2 1 0.0455331 0.0293755 0.0260285 0.0277229 0.0317427 0.0198322 0.0319839 0.0429095 0.042754 0.0583216 0.0603988 0.0425911 0.056894 0.060533 0.0845656 0.0726089 0.071433 0.0658421 0.0703423 0.0646733
113 1 Mg -2.89975 26.1187 57.5816 1.2 1 0.0121099 0.0203911 0.00809028 0.0337305 0.0145624 0.0382109 0.0145264 0.0544645 0.023863 0.0800492 0.0250702 0.0484005 0.0259331 0.0717345 0.0259166 0.0942746 0.0544456 0.108427 0.0560549 0.0843964
114 1 Mg -1.48778 25.88 49.8402 1.2 1 0.228591 0.0842152 0.0223591 0.0417777 0.0302646 0.0502039 0.0542881 0.0542984 0.0523175 0.0582725 0.0612725 0.0651378 0.0751396 0.0740431 0.0990487 0.0764494 0.0766037 0.0975207 0.0842657 0.0835066
115 2 Si -1.00491 23.3922 47.9274 2.4 1 0.370482 0.07007 0.0735546 0.0679449 0.0355859 0.0756278 0.0420648 0.0847187 0.0691901 0.0735042 0.0503974 0.0738633 0.0596876 0.0745718 0.0930523 0.0779666 0.103189 0.0957838 0.0882976 0.0938539
116 3 O -0.927602 24.9615 47.9909 -1.2 1 0.365427 0.0703478 0.050111 0.0621986 0.0463501 0.092124 0.0627988 0.0816793 0.0574353 0.0901658 0.0547337 0.0710664 0.0608871 0.0816781 0.0810549 0.0729827 0.0928241 0.0764535 0.0766265 0.0693028
117 3 O -1.55795 22.2588 51.7696 -1.2 1 0.111012 0.0581123 0.0333626 0.0305627 0.0374736 0.0502393 0.0632588 0.0505516 0.0661994 0.0505365 0.0585853 0.0441636 0.0596119 0.0824997 0.0989994 0.0810845 0.0780689 0.0458322 0.0735061 0.0703424
118 3 O -2.17411 22.8111 48.8277 -1.2 1 0.310915 0.0846588 0.0530533 0.0358511 0.0560376 0.0492822 0.0529055 0.072927 0.0606618 0.066633 0.0709787 0.0585209 0.05493 0.0595944 0.0776523 0.080847 0.0862246 0.0829731 0.0850047 0.0866811
119 1 Mg 0.0423997 21.3296 46.8225 1.2 1 0.481426 0.0218684 0.0810424 0.0329981 0.0660451 0.0860286 0.0778885 0.0879798 0.0712643 0.082817 0.0844978 0.0625903 0.0633465 0.0770999 0.0754585 0.093778 0.096069 0.0983526 0.0993118 0.104867
120 3 O 0.458537 22.7495 48.3911 -1.2 1 0.346572 0.078425 0.0596899 0.030752 0.0475153 0.0628021 0.0443451 0.0652954 0.0624344 0.0775347 0.0634466 0.0538924 0.0658944 0.0857302 0.0935599 0.0775201 0.0956362 0.104362 0.0756432 0.0819312
121 1 Mg 1.60766 21.3257 54.4098 1.2 1 0.00702955 0.03122 0.0213794 0.0386542 0.0152286 0.0225493 0.0248094 0.039739 0.0387863 0.061534 0.0529544 0.0528438 0.0612698 0.0652876 0.0675155 0.0729908 0.0819536 0.0825016 0.0722845 0.0700529
122 2 Si 1.59608 23.9508 56.3538 2.4 1 0.0253015 0.0170686 0.0246863 0.0308299 0.0307925 0.0209274 0.0395439 0.036563 0.040553 0.0542191 0.0578809 0.0677164 0.0787222 0.0561335 0.0747174 0.0741823 0.0667014 0.0905587 0.0601092 0.0510904
123 3 O 1.51729 22.476 56.4769 -1.2 1 0.0256361 0.0189911 0.0181771 0.0296611 0.0262767 0.0236504 0.0303709 0.0737515 0.0379117 0.0555534 0.0459345 0.0659008 0.0518862 0.0653047 0.0758015 0.0544641 0.054637 0.0742843 0.049394 0.0738916
124 3 O 1.54441 24.9963 52.7297 -1.2 1 0.0682606 0.0484542 0.0268721 0.0168597 0.0249874 0.0484349 0.0513577 0.0499151 0.0485859 0.0481422 0.0448148 0.0477755 0.0620826 0.0707626 0.100316 0.0706491 0.0707825 0.0655071 0.0765173 0.0571001
125 3 O 0.312128 24.6372 55.7698 -1.2 1 0.0177898 0.0163687 0.0259076 0.0234721 0.0217762 0.0216212 0.0441841 0.0430796 0.0364489 0.0517074 0.0476933 0.0495294 0.0506331 0.0641166 0.0884603 0.0761639 0.0739734 0.0590223 0.0668528 0.0703388
126 3 O 2.85799 24.5831 55.8047 -1.2 1 0.0202041 0.0170432 0.0286705 0.0182044 0.0321639 0.0252751 0.0501509 0.0492889 0.0437685 0.048893 0.0589745 0.0445991 0.0577939 0.0722897 0.0775415 0.0800814 0.0816539 0.0578921 0.0686137 0.0709958