ITEM: TIMESTEP
38500
ITEM: NUMBER OF ATOMS
10500
ITEM: BOX BOUNDS xy xz yz pp pp pp
0	8.9688	2.9896
0	118.725	0
0	252.977	0
ITEM: ATOMS id type element xu yu zu q Q_1 Q_2 Q_3 Q_4 Q_5 Q_6 Q_7 Q_8 Q_9 Q_10 Q_11 Q_12 Q_13 Q_14 Q_15 Q_16 Q_17 Q_18 Q_19 Q_20 Q_21
1 1 Mg -3.4973 6.96169 57.674 1.2 1 0.0135844 0.0209233 0.0197698 0.0308744 0.0195521 0.0387194 0.0165081 0.051245 0.0324631 0.0773058 0.0244157 0.0547603 0.0296287 0.0661685 0.03691 0.0937934 0.0574995 0.101311 0.0595053 0.0796063
2 1 Mg -1.82655 6.90154 50.0912 1.2 1 0.219606 0.0875198 0.0318622 0.0313585 0.0277865 0.0569515 0.0444866 0.0455054 0.0558299 0.0670359 0.0561015 0.0749382 0.0680516 0.0643483 0.0952989 0.0577385 0.0857169 0.100662 0.0739748 0.078106
3 2 Si -0.257935 3.96038 48.0876 2.4 1 0.36991 0.0750264 0.0773088 0.0277206 0.0629704 0.0536228 0.0718008 0.0770902 0.0628162 0.079952 0.0573991 0.0698726 0.061234 0.0825606 0.0959304 0.101586 0.110206 0.0906977 0.0732833 0.0726681
4 3 O -0.335812 5.46814 47.6264 -1.2 1 0.427176 0.0396941 0.0642334 0.0304664 0.041007 0.048164 0.0650695 0.0707489 0.0876768 0.0765254 0.0925138 0.0755629 0.0701041 0.0671569 0.0908423 0.125085 0.0949411 0.0804396 0.0758718 0.0787308
5 3 O -2.03793 3.43377 51.8941 -1.2 1 0.110884 0.0606138 0.0278112 0.0263128 0.0225521 0.0481225 0.063111 0.0513363 0.0474213 0.0580098 0.0673882 0.0492573 0.0521414 0.0798373 0.0915886 0.0834812 0.0677612 0.0539429 0.0759216 0.0679546
6 3 O -1.54015 3.53929 48.9521 -1.2 1 0.301616 0.09127 0.0322724 0.049222 0.0300049 0.0498019 0.0737718 0.0486886 0.0534653 0.0632613 0.0752669 0.0688141 0.0721002 0.067148 0.0749683 0.112012 0.0834678 0.0791543 0.0760425 0.0892606
7 1 Mg 1.82954 2.54582 47.1376 1.2 1 0.466095 0.0215733 0.0803016 0.0504178 0.0353447 0.0827117 0.0594426 0.0583327 0.077152 0.0898731 0.0688037 0.076498 0.0823684 0.0854024 0.0709869 0.0972689 0.100508 0.102561 0.105313 0.0980098
8 3 O 1.22989 3.66364 48.7877 -1.2 1 0.320966 0.0718052 0.0218453 0.0448633 0.0312971 0.0648045 0.0792887 0.034216 0.0844174 0.0802931 0.0551042 0.0789084 0.0812446 0.0700795 0.0681323 0.0865294 0.0932235 0.0910524 0.0955565 0.089686
9 1 Mg 0.908675 2.36835 54.5544 1.2 1 0.0104257 0.0307873 0.014141 0.0385724 0.0277117 0.0331768 0.0246266 0.0306486 0.0387453 0.056848 0.0567157 0.0565053 0.0642125 0.065261 0.0713555 0.077585 0.069377 0.0827042 0.0801088 0.0687029
10 2 Si 0.957137 5.01368 56.5645 2.4 1 0.0214656 0.0171998 0.0225226 0.0319662 0.0304463 0.0325715 0.0426489 0.0441989 0.0544103 0.0505984 0.0528139 0.0610755 0.0636989 0.0554304 0.0812955 0.0734604 0.064146 0.0866553 0.0634069 0.0584491
11 3 O 0.761858 3.39048 56.5797 -1.2 1 0.0283706 0.0147403 0.0298693 0.0228963 0.0215703 0.0244352 0.025516 0.0660075 0.0375811 0.0498526 0.0464666 0.0592734 0.0563634 0.0619908 0.0752842 0.0703988 0.061705 0.0651053 0.0691751 0.0717801
12 3 O 1.10813 6.07342 52.8172 -1.2 1 0.085137 0.041495 0.0290066 0.0178948 0.0223957 0.0454381 0.0396341 0.055609 0.0490215 0.0442138 0.0568375 0.0508826 0.0743608 0.0694328 0.0846415 0.0842705 0.0597532 0.0693959 0.0703126 0.0707639
13 3 O -0.292697 5.75231 55.9317 -1.2 1 0.0110799 0.00993272 0.0272844 0.0245174 0.0306997 0.0223105 0.0464428 0.0414964 0.0427568 0.0418674 0.0582333 0.0420744 0.0512634 0.0594136 0.0969613 0.0759133 0.0742626 0.0626568 0.0615832 0.0669774
14 3 O 2.20566 5.62677 55.7881 -1.2 1 0.0184824 0.0172009 0.0293861 0.0180271 0.0240962 0.0200745 0.0437685 0.0463258 0.0368742 0.0446127 0.0580553 0.0448721 0.0552998 0.0629152 0.0906597 0.06713 0.0822317 0.0617262 0.0672937 0.0635419
15 1 Mg -0.459401 4.67631 52.2426 1.2 1 0.0916723 0.0657853 0.0348125 0.0380096 0.0296294 0.0312496 0.0429399 0.0564278 0.0420334 0.0843344 0.0462807 0.0603834 0.0478279 0.0745537 0.0461812 0.0967683 0.0568871 0.0962227 0.0585232 0.0920963
16 1 Mg 2.79456 3.9971 49.9987 1.2 1 0.228182 0.0894285 0.0306252 0.0441936 0.046392 0.0598862 0.0572706 0.0528772 0.0806295 0.065751 0.061521 0.0550065 0.0601641 0.0706881 0.0837083 0.0731957 0.0740727 0.0900142 0.0882912 0.0749211
17 2 Si 1.16169 6.59457 51.2556 2.4 1 0.130853 0.0925073 0.037788 0.0351526 0.0400744 0.0535384 0.0492848 0.0456028 0.0626077 0.065523 0.0616567 0.0736306 0.0723846 0.0666998 0.0861902 0.0876716 0.0777878 0.089696 0.0702998 0.0677018
18 3 O 1.28989 8.18905 51.2909 -1.2 1 0.13378 0.0992436 0.0180696 0.0322073 0.0431504 0.0440315 0.0401303 0.0780509 0.0536309 0.0721793 0.0459904 0.0947087 0.0701906 0.0670378 0.0817142 0.0698798 0.0714366 0.0672302 0.0665305 0.0687478
19 3 O 1.04069 5.62898 58.0149 -1.2 1 0.0124716 0.0271306 0.0253938 0.0191378 0.0227874 0.0322574 0.0293003 0.0478456 0.0531342 0.0451018 0.0443428 0.0470746 0.0472718 0.0690842 0.102563 0.0676797 0.068114 0.0585637 0.0668076 0.0594048
20 3 O -0.184847 6.06029 50.6845 -1.2 1 0.178544 0.0896294 0.0189485 0.0322126 0.0376174 0.0294716 0.0547891 0.0593267 0.0573729 0.0609371 0.0655567 0.080757 0.0679451 0.0593845 0.0892136 0.0692019 0.0799808 0.0806593 0.0635942 0.078343
21 1 Mg -3.49704 4.67769 52.6661 1.2 1 0.0669672 0.0521373 0.0251634 0.0280713 0.0161525 0.0443315 0.0335537 0.0554314 0.0547056 0.0662235 0.0500167 0.0500763 0.049786 0.0492528 0.0576788 0.08712 0.0883227 0.0751879 0.0753687 0.0718523
22 3 O 2.48581 5.93312 50.6539 -1.2 1 0.184087 0.0980454 0.0295135 0.0171821 0.0349794 0.051482 0.0645413 0.0642176 0.0463254 0.0668689 0.0500052 0.0675278 0.0565788 0.0637621 0.105661 0.0716109 0.0760421 0.0650617 0.0766932 0.0770295
23 1 Mg -2.0156 4.51625 55.2858 1.2 1 0.0189453 0.0155706 0.0196525 0.0253042 0.0130907 0.020274 0.0274838 0.0345093 0.0473376 0.0499164 0.0562104 0.0550889 0.0580886 0.0653308 0.0657158 0.0596142 0.0804537 0.0924432 0.0634815 0.0780034
24 2 Si -2.04807 2.62772 53.3033 2.4 1 0.0364335 0.0443933 0.0292296 0.019463 0.0297455 0.0251381 0.0551232 0.0469073 0.0649528 0.0627852 0.0583895 0.0668282 0.0737469 0.0518472 0.0731783 0.0575054 0.0694053 0.0852631 0.076484 0.0623446
25 3 O -1.9902 1.08649 53.2084 -1.2 1 0.0512924 0.0385453 0.0298161 0.0255762 0.0196567 0.0404032 0.0283998 0.0640857 0.0632612 0.0619216 0.047655 0.06676 0.0673114 0.0721288 0.0755401 0.0697668 0.051683 0.0662039 0.0710086 0.0690172
26 3 O -0.0467762 2.97103 46.8385 -1.2 1 0.497809 0.0374881 0.0876926 0.0298385 0.0801084 0.0679029 0.081068 0.071617 0.0726646 0.0795049 0.0817057 0.0759187 0.097057 0.0883126 0.0887577 0.088571 0.0983973 0.0965097 0.104911 0.110744
27 3 O -3.23666 3.28009 54.0373 -1.2 1 0.0263145 0.0257864 0.031162 0.0227831 0.0239408 0.0257136 0.0410195 0.0452922 0.0495244 0.0501319 0.0625369 0.0420718 0.0614857 0.0637731 0.0806646 0.0626839 0.0724689 0.069539 0.067926 0.0623257
28 3 O -0.803582 3.30354 54.0253 -1.2 1 0.0260975 0.0279895 0.0415669 0.0136491 0.0218795 0.0265452 0.042728 0.049174 0.0430725 0.0496616 0.0629872 0.0386372 0.0582366 0.0710867 0.0832009 0.0706293 0.0812045 0.0718377 0.064263 0.0593722
29 1 Mg -3.18577 11.7809 57.3971 1.2 1 0.00675287 0.018084 0.00760354 0.0292769 0.0108468 0.031339 0.00802499 0.0539767 0.0135055 0.0829018 0.0142754 0.0593968 0.015514 0.0706267 0.0204806 0.0983078 0.0232703 0.115122 0.023089 0.0993267
30 1 Mg -1.75014 11.5838 49.8362 1.2 1 0.232318 0.0818567 0.023522 0.0403541 0.027589 0.0520499 0.0521755 0.0515301 0.0477453 0.0561945 0.0632422 0.0628519 0.0734038 0.0689656 0.104204 0.0848322 0.0662619 0.0972533 0.0850269 0.0789902
31 2 Si -1.18003 9.02138 47.9309 2.4 1 0.370967 0.0666043 0.0670411 0.0509469 0.0434872 0.0638517 0.0719818 0.0744972 0.0705476 0.0656862 0.0575436 0.0656477 0.0677053 0.0791109 0.0991257 0.0656589 0.10038 0.0908598 0.103164 0.0873457
32 3 O -1.23224 10.5991 47.9811 -1.2 1 0.374959 0.0660759 0.060088 0.0537032 0.0517323 0.0715137 0.066827 0.0759027 0.055074 0.0864351 0.0695507 0.0635973 0.0722265 0.0790104 0.0821631 0.0687089 0.0907308 0.0813591 0.0645821 0.0722391
33 3 O -1.79016 8.01447 51.8693 -1.2 1 0.116843 0.0618427 0.0332979 0.0323744 0.031707 0.0447465 0.0584879 0.0567406 0.0602459 0.0525922 0.0529445 0.0501254 0.0661278 0.0873519 0.0883263 0.0751247 0.0732451 0.0568735 0.0746976 0.0668386
34 3 O -2.30986 8.37215 48.8528 -1.2 1 0.310014 0.0899203 0.0673378 0.0247398 0.0549577 0.0624587 0.0655786 0.0640437 0.0546528 0.0659985 0.0814347 0.0689099 0.0591374 0.0634691 0.079344 0.0901404 0.0970184 0.078985 0.0752843 0.0945336
35 1 Mg 0.154883 7.08234 46.8007 1.2 1 0.497266 0.0360424 0.07537 0.037805 0.0646613 0.075778 0.0602695 0.068791 0.0706327 0.08223 0.0887064 0.0755998 0.0786364 0.0797854 0.0701152 0.0926053 0.0940267 0.109515 0.115005 0.101878
36 3 O 0.325447 8.50934 48.3809 -1.2 1 0.342721 0.0878838 0.0662221 0.0443282 0.0356326 0.0526649 0.0389908 0.0601054 0.0639429 0.0648675 0.0759089 0.0666709 0.0778857 0.0920061 0.0916061 0.0686563 0.092506 0.101109 0.0841439 0.0889976
37 1 Mg 1.19145 6.89595 54.5511 1.2 1 0.0195722 0.0318271 0.0151813 0.0325003 0.015163 0.0286882 0.0243043 0.0347084 0.0444794 0.054109 0.0634452 0.0547225 0.0518732 0.0696871 0.067118 0.0751593 0.0694567 0.0894932 0.0732776 0.080149
38 2 Si 1.14149 9.71523 56.3533 2.4 1 0.0128814 0.0271602 0.0187799 0.0175189 0.0369703 0.03427 0.034457 0.0383013 0.0581538 0.0530926 0.0583287 0.0629533 0.0651907 0.0522336 0.0719593 0.07216 0.0616693 0.0906369 0.0647298 0.051784
39 3 O 1.23474 8.1712 56.6257 -1.2 1 0.0244722 0.0128404 0.023405 0.0197792 0.0193891 0.0249659 0.0228623 0.0629907 0.0442909 0.0465855 0.0490607 0.0693642 0.0551842 0.0611478 0.0742641 0.0651233 0.0622256 0.0702227 0.0587345 0.0814841
40 3 O 1.28624 10.7248 52.7351 -1.2 1 0.0746446 0.0450306 0.0274835 0.0240894 0.0246263 0.0465704 0.0485288 0.0531591 0.0460843 0.0483356 0.0509104 0.0476208 0.0581527 0.0683748 0.0995343 0.0723445 0.065308 0.0515528 0.0709972 0.0599015
41 3 O -0.137981 10.2837 55.7833 -1.2 1 0.0140254 0.00919023 0.0256915 0.0180319 0.0217306 0.0249278 0.0442353 0.0478445 0.0427001 0.0513181 0.0537411 0.0427145 0.0548682 0.0691042 0.0836296 0.0816816 0.0666572 0.0591214 0.062951 0.0727804
42 3 O 2.48364 10.4122 55.7512 -1.2 1 0.0213394 0.00869323 0.0269465 0.0187434 0.030566 0.015672 0.0482483 0.0395635 0.0382832 0.0442449 0.0545841 0.0394997 0.0548968 0.0567346 0.0849981 0.0768723 0.0765316 0.0636978 0.0669091 0.0612209
43 1 Mg -0.262694 9.34741 52.2523 1.2 1 0.113821 0.0680285 0.0173604 0.0424293 0.0370958 0.042559 0.0365588 0.0725663 0.0303271 0.0896841 0.0250879 0.0608495 0.0374186 0.0749 0.039175 0.101475 0.0476953 0.0939795 0.050512 0.105527
44 1 Mg 1.87648 9.01537 49.4629 1.2 1 0.271404 0.0951447 0.0404588 0.0326427 0.0369461 0.0463038 0.0693185 0.0506952 0.0784008 0.0640335 0.0863806 0.0568212 0.0823369 0.0680974 0.0863377 0.0960363 0.0863041 0.0955764 0.0865251 0.0936935
45 2 Si 1.21415 11.3799 51.2378 2.4 1 0.139404 0.0833514 0.0354529 0.0326675 0.0354313 0.0511377 0.0544646 0.0407289 0.0579418 0.0638499 0.0754116 0.0685205 0.0744634 0.0652426 0.0941268 0.0930451 0.0800222 0.0803996 0.0739511 0.0568487
46 3 O 1.31634 12.9512 51.3023 -1.2 1 0.143574 0.0770274 0.0278828 0.0359524 0.0367634 0.0384753 0.0424106 0.0696748 0.0525001 0.0641678 0.0457596 0.0793904 0.0635457 0.0657141 0.0778617 0.0670728 0.0764836 0.0687585 0.0713449 0.0677823
47 3 O 1.29577 10.4426 57.8617 -1.2 1 0.00807555 0.0149918 0.0171419 0.0201388 0.0230893 0.039049 0.0340072 0.0404257 0.0469672 0.0502725 0.0405924 0.048179 0.0526298 0.0619021 0.0964247 0.0667273 0.0720609 0.0525144 0.0780098 0.0527736
48 3 O -0.115718 10.7564 50.681 -1.2 1 0.194515 0.0794034 0.0241129 0.0153532 0.047922 0.0343804 0.0474144 0.065419 0.0525059 0.0556301 0.0621336 0.0519685 0.0653216 0.0752394 0.0888623 0.0804774 0.0747902 0.0770179 0.0815146 0.0831459
49 1 Mg -3.26386 9.35564 52.3622 1.2 1 0.082363 0.0571518 0.0235833 0.033014 0.0183159 0.0523488 0.0399358 0.0595187 0.0318202 0.0827522 0.0347817 0.048997 0.0391305 0.0658381 0.0416768 0.106966 0.0476769 0.105803 0.0462747 0.0928772
50 3 O 2.45216 10.7265 50.4558 -1.2 1 0.189408 0.100946 0.0146426 0.0137563 0.042397 0.0569537 0.0515626 0.0482412 0.0582251 0.0674819 0.0644458 0.0757656 0.0570365 0.0724582 0.0956467 0.0802165 0.0782179 0.0793655 0.0587989 0.0878373
51 1 Mg -1.85386 9.31941 55.1369 1.2 1 0.0257838 0.0149052 0.0210727 0.0296615 0.0132959 0.0262899 0.0274387 0.0403464 0.039838 0.0554389 0.0583835 0.0533777 0.0653897 0.0646185 0.0636073 0.0790762 0.0709027 0.097473 0.0662155 0.0809074
52 2 Si -1.78441 7.36023 53.4276 2.4 1 0.0474432 0.0411361 0.0273769 0.0289172 0.0282911 0.0352398 0.0402111 0.0516782 0.0625709 0.0576806 0.0595933 0.0644802 0.0788844 0.0510892 0.0634096 0.0691465 0.0694584 0.0827941 0.0635172 0.0528142
53 3 O -1.81576 5.7836 53.3626 -1.2 1 0.0552726 0.0343244 0.0273428 0.0171237 0.0161059 0.0349167 0.0282913 0.0642339 0.0442864 0.0679187 0.0362224 0.0705744 0.0589233 0.0731143 0.0605842 0.0666054 0.0654836 0.0566645 0.0688258 0.0552331
54 3 O -1.19417 8.46968 46.4488 -1.2 1 0.524872 0.0661171 0.0673407 0.0508449 0.0660897 0.0570974 0.0790775 0.0539646 0.0749944 0.0707229 0.0565866 0.0503228 0.0694432 0.098229 0.130153 0.113216 0.0974063 0.0956103 0.0829217 0.0820066
55 3 O -3.1437 8.01238 53.9988 -1.2 1 0.0375885 0.0243445 0.0278239 0.0243814 0.0250536 0.0288749 0.0507106 0.0468158 0.0480685 0.0554449 0.0531673 0.0465985 0.0556105 0.063815 0.0826705 0.0713819 0.0694806 0.0567451 0.0588757 0.0755254
56 3 O -0.502665 8.00409 54.0168 -1.2 1 0.0540484 0.0291857 0.0229479 0.0248693 0.0339821 0.0245198 0.0330997 0.0438696 0.0419376 0.0559674 0.0595154 0.0487308 0.0632415 0.0581411 0.0851988 0.0596115 0.0751992 0.0696059 0.0622353 0.0723656
57 1 Mg -2.98592 16.4899 57.2166 1.2 1 0.0150944 0.0107688 0.0145759 0.0204909 0.0112204 0.0321911 0.0134704 0.0565061 0.0189455 0.0787454 0.017265 0.0523995 0.0199111 0.0660545 0.0340354 0.102826 0.0350159 0.106469 0.0355188 0.0834026
58 1 Mg -1.6714 16.3544 49.8412 1.2 1 0.235786 0.0765618 0.0266724 0.0392689 0.0286692 0.0490261 0.0537958 0.0554297 0.0457381 0.0606173 0.0628555 0.0630874 0.0705698 0.0722345 0.102215 0.082834 0.0780356 0.0952586 0.0855346 0.0835244
59 2 Si -1.18567 13.8526 47.9314 2.4 1 0.376767 0.0634625 0.0670273 0.066828 0.0284417 0.0668667 0.0470074 0.0796431 0.0636876 0.0669261 0.0540641 0.0737749 0.0588383 0.0756025 0.0984475 0.0732229 0.102337 0.0956175 0.0893341 0.0896356
60 3 O -1.09664 15.4205 47.9915 -1.2 1 0.373454 0.0607641 0.044134 0.0603919 0.0469564 0.0916015 0.0609092 0.0805823 0.0535498 0.0867982 0.0539415 0.0732724 0.0633578 0.079342 0.0750965 0.0718056 0.0929415 0.0744101 0.0750301 0.0700204
61 3 O -1.73493 12.7491 51.7772 -1.2 1 0.11815 0.0594235 0.0265836 0.0292373 0.0316476 0.0484637 0.0614166 0.0506389 0.0691774 0.0540956 0.0553945 0.0469883 0.0561984 0.0823313 0.0999596 0.0753691 0.0773335 0.0516102 0.0717067 0.0702218
62 3 O -2.36115 13.2717 48.8238 -1.2 1 0.315404 0.0821268 0.0519638 0.0336365 0.0529881 0.0487475 0.0551693 0.0692302 0.0609179 0.0670653 0.0737414 0.0617438 0.0582396 0.0540139 0.0824214 0.0856501 0.0853218 0.0753642 0.0805708 0.0897756
63 1 Mg -0.159928 11.7639 46.8533 1.2 1 0.482261 0.0253455 0.0778905 0.0331775 0.0528886 0.0972292 0.0706036 0.0880704 0.0831141 0.0848002 0.0847209 0.0690041 0.0718623 0.0921222 0.0780562 0.0864518 0.0974307 0.0985517 0.100439 0.10611
64 3 O 0.2623 13.1866 48.413 -1.2 1 0.348515 0.0703973 0.0456989 0.0468267 0.040506 0.0496761 0.046955 0.0649671 0.0685499 0.071803 0.0601286 0.0590854 0.0644751 0.0867314 0.0942409 0.0794418 0.0919709 0.0973474 0.0822531 0.0838635
65 1 Mg 1.43312 11.7964 54.5734 1.2 1 0.00860169 0.0216892 0.0101272 0.0317562 0.0160011 0.0235647 0.029727 0.037403 0.0443118 0.0561061 0.0573278 0.054405 0.0601283 0.0706205 0.0629228 0.0822809 0.069004 0.0834681 0.0728396 0.0771914
66 2 Si 1.45551 14.4964 56.1609 2.4 1 0.0255721 0.0144935 0.0193017 0.0178393 0.0291748 0.0357233 0.0349618 0.0442135 0.0506185 0.0516592 0.0527394 0.0584926 0.0620445 0.058229 0.0647638 0.0790942 0.0535394 0.0992673 0.0631485 0.0515014
67 3 O 1.49673 12.9743 56.2806 -1.2 1 0.0086439 0.0109646 0.0164392 0.0215782 0.0208339 0.0242184 0.0289277 0.070227 0.0411601 0.0516602 0.0465244 0.0652818 0.0652883 0.0638515 0.0668844 0.0660067 0.0650762 0.06404 0.0731461 0.0540018
68 3 O 1.36565 15.4813 52.729 -1.2 1 0.0721013 0.0499152 0.0245469 0.0188214 0.022739 0.0428578 0.0458334 0.058012 0.0514087 0.0485437 0.0451786 0.0492627 0.0564372 0.0641065 0.10311 0.072752 0.0641291 0.0601827 0.0676172 0.0627289
69 3 O 0.206594 15.3464 55.5796 -1.2 1 0.0161395 0.0154608 0.0214327 0.0204896 0.0186899 0.0225976 0.0448992 0.0355658 0.0355119 0.0438105 0.0523604 0.041344 0.0538887 0.0489532 0.0928026 0.075483 0.0703637 0.0732419 0.0632447 0.0628318
70 3 O 2.67423 15.1792 55.5316 -1.2 1 0.0100554 0.0262763 0.022689 0.019414 0.019968 0.0203868 0.0392312 0.0467919 0.0342975 0.0520387 0.0479755 0.0373379 0.0544176 0.0570748 0.0773046 0.0771827 0.064713 0.0776003 0.0546995 0.0654668
71 1 Mg -0.206989 14.1049 52.2121 1.2 1 0.102971 0.0701479 0.0214348 0.0434361 0.0275561 0.038484 0.0397447 0.0697429 0.0287385 0.0843742 0.0284382 0.0550572 0.0338034 0.0741681 0.0364618 0.102874 0.0482738 0.104312 0.0450746 0.0976061
72 1 Mg 1.82591 13.8102 49.4556 1.2 1 0.269817 0.10221 0.0365822 0.0381025 0.0323622 0.0337398 0.065615 0.045738 0.0686304 0.0776107 0.0782317 0.0559544 0.0716909 0.0686293 0.0836712 0.0880344 0.0759041 0.098925 0.0919527 0.0830591
73 2 Si 1.29285 16.1518 51.2434 2.4 1 0.129213 0.089495 0.0341366 0.0395924 0.0330658 0.0498214 0.0552911 0.046045 0.0516759 0.0696631 0.0690283 0.0698184 0.0708749 0.0680661 0.0947799 0.0863985 0.080455 0.085073 0.0721293 0.0625129
74 3 O 1.39496 17.7199 51.3047 -1.2 1 0.147739 0.0715598 0.0319225 0.0395641 0.0348445 0.0380202 0.04143 0.0637027 0.0545279 0.0630002 0.0454134 0.0759316 0.0665924 0.0630526 0.0716951 0.0665963 0.0765185 0.0766743 0.0690866 0.0718521
75 3 O 1.41533 15.0552 57.7024 -1.2 1 0.00805434 0.0221017 0.0232212 0.0179582 0.0121775 0.0334922 0.0359374 0.046308 0.0595972 0.0474827 0.0397898 0.041097 0.0615698 0.0619551 0.102516 0.0760346 0.0656534 0.046767 0.0746933 0.0568986
76 3 O -0.0269106 15.5178 50.6688 -1.2 1 0.184136 0.0891023 0.0227421 0.0224384 0.0465854 0.0388736 0.0565223 0.0592091 0.0586292 0.0571202 0.0604523 0.048762 0.0623826 0.0729632 0.0925737 0.085902 0.0771793 0.0792423 0.0743357 0.0906429
77 1 Mg -3.18391 14.1057 52.3125 1.2 1 0.0717895 0.0599437 0.0314372 0.0368866 0.0172706 0.0511056 0.0389828 0.0575406 0.0355137 0.0839308 0.0378392 0.0484635 0.0240285 0.0723034 0.0309988 0.1078 0.0462981 0.0974715 0.0492443 0.0893999
78 3 O 2.52432 15.503 50.4579 -1.2 1 0.206759 0.0852563 0.0245768 0.0183417 0.0388175 0.0529691 0.0577327 0.0497209 0.0496364 0.0624917 0.062224 0.0706112 0.0516078 0.0601182 0.0960267 0.077203 0.0778123 0.0708864 0.0610446 0.0841968
79 1 Mg -1.57067 14.1836 55.2253 1.2 1 0.0259328 0.0238793 0.0233716 0.0298075 0.0229775 0.0191412 0.0281496 0.0320649 0.0363553 0.0551085 0.0527421 0.058966 0.0572581 0.0524875 0.0632493 0.060321 0.0870498 0.0859637 0.0697999 0.0743282
80 2 Si -1.70275 12.11 53.1644 2.4 1 0.0430561 0.0424653 0.0224404 0.0374217 0.034422 0.0347922 0.0528533 0.0520913 0.0650715 0.0597083 0.0581597 0.0695579 0.0803635 0.0553841 0.0717271 0.0550928 0.0690029 0.0866449 0.0634563 0.0591279
81 3 O -1.77902 10.5735 53.1525 -1.2 1 0.0721694 0.0419489 0.0203442 0.0222265 0.0328078 0.0326098 0.0353257 0.0689233 0.0470317 0.0572623 0.0517634 0.0741065 0.0604746 0.0749655 0.0657502 0.0664253 0.0540383 0.0612119 0.062219 0.0712615
82 3 O -1.21337 13.3381 46.4311 -1.2 1 0.52016 0.067834 0.0697483 0.0408094 0.0560975 0.0579554 0.0581139 0.0704966 0.0798282 0.0660368 0.0461545 0.0710892 0.0679161 0.0880686 0.121026 0.114769 0.106425 0.099779 0.060482 0.0920593
83 3 O -2.97399 12.82 53.8664 -1.2 1 0.0399041 0.0261856 0.0252377 0.0281787 0.0254743 0.0294703 0.0485003 0.0459077 0.042014 0.0485376 0.0523747 0.046464 0.056955 0.0558571 0.0826913 0.0602891 0.0652285 0.0625328 0.0659931 0.0759683
84 3 O -0.394471 12.7635 53.9441 -1.2 1 0.0579002 0.0254445 0.0272557 0.0185547 0.02817 0.0225529 0.0350348 0.0401373 0.0459668 0.0554397 0.0594789 0.0447151 0.0564142 0.0536733 0.0870073 0.061642 0.0699165 0.0702498 0.0740664 0.0716447
85 1 Mg -3.09993 21.3693 57.5383 1.2 1 0.0204508 0.0154705 0.021425 0.0260846 0.0171343 0.0339527 0.0201034 0.0519048 0.03 0.0764667 0.0324433 0.0497057 0.035743 0.0688085 0.0353132 0.0900237 0.0546086 0.105118 0.0535626 0.0839011
86 1 Mg -1.5831 21.1217 49.8405 1.2 1 0.232281 0.0803015 0.0228276 0.040672 0.0329182 0.0463859 0.0550508 0.0537193 0.0503789 0.0578732 0.0602434 0.0673358 0.0729907 0.0723345 0.100044 0.0779355 0.0753972 0.0962297 0.0834864 0.0827696
87 2 Si -1.09384 18.6291 47.9287 2.4 1 0.378933 0.0613898 0.0686418 0.0660741 0.0292325 0.0681104 0.0453588 0.0786234 0.0621734 0.0687826 0.0541966 0.072008 0.0588776 0.0730897 0.0986828 0.0744343 0.10344 0.0932748 0.0909191 0.089713
88 3 O -1.02071 20.1985 47.9911 -1.2 1 0.370211 0.0628761 0.0427727 0.0637131 0.0435008 0.0902603 0.0633819 0.0812173 0.0535335 0.0869354 0.0545354 0.0734672 0.0606802 0.0793058 0.077653 0.0714563 0.0945684 0.0787542 0.0758418 0.0704347
89 3 O -1.65002 17.5002 51.771 -1.2 1 0.109003 0.0632972 0.0307761 0.0276764 0.0314574 0.0549215 0.0563839 0.0519949 0.0663404 0.0532075 0.0551423 0.0493134 0.0535415 0.0832856 0.102965 0.076576 0.0791661 0.0470268 0.0724156 0.0720878
90 3 O -2.26174 18.0434 48.8281 -1.2 1 0.310688 0.0857821 0.0532684 0.0350483 0.0563448 0.0475118 0.0521502 0.0732528 0.0617816 0.0672469 0.0700316 0.0576125 0.0528518 0.0575426 0.0769303 0.0832921 0.0856238 0.0823448 0.0848122 0.0876495
91 1 Mg -0.0440435 16.5651 46.8269 1.2 1 0.484186 0.0191674 0.0794988 0.030478 0.0620293 0.0834471 0.0731419 0.0833861 0.0709809 0.0829895 0.0835265 0.0631896 0.0655978 0.0796076 0.0772781 0.0941573 0.0954983 0.0970835 0.099405 0.106884
92 3 O 0.37001 17.9877 48.3925 -1.2 1 0.34371 0.0829472 0.0602828 0.0398596 0.0447761 0.0598169 0.0451261 0.0644536 0.0636707 0.0752381 0.0627994 0.0583465 0.0671233 0.0852097 0.0923879 0.0776387 0.0938275 0.101249 0.0827101 0.0869268
93 1 Mg 1.34562 16.6302 54.5325 1.2 1 0.0181842 0.0230791 0.0207469 0.0286936 0.0115962 0.022457 0.0217462 0.0369551 0.0487897 0.0589592 0.0599764 0.0527524 0.058166 0.0680375 0.0636647 0.0867369 0.0675321 0.0858593 0.0843067 0.0770648
94 2 Si 1.37301 19.2784 56.2717 2.4 1 0.0191286 0.00961283 0.0266265 0.0219017 0.027638 0.032864 0.0363017 0.0440284 0.0563416 0.0481719 0.0465446 0.0636374 0.0658482 0.0549014 0.0696326 0.0807582 0.0564219 0.0932873 0.0561604 0.05001
95 3 O 1.34971 17.6571 56.3821 -1.2 1 0.0171269 0.0136773 0.0154203 0.0238478 0.0215777 0.0312873 0.0240325 0.0695331 0.0446649 0.0577061 0.0487403 0.0621668 0.0562157 0.0637077 0.0691974 0.0646449 0.0591332 0.066102 0.0663165 0.0722771
96 3 O 1.45147 20.239 52.7294 -1.2 1 0.0772715 0.0438278 0.0240859 0.0199369 0.0274161 0.0414931 0.0457164 0.0564007 0.0499356 0.0493469 0.0440328 0.0467723 0.0599628 0.0652421 0.0999948 0.0692666 0.0665592 0.065169 0.0704278 0.0638623
97 3 O 0.076152 19.9906 55.6242 -1.2 1 0.0136996 0.00661325 0.0284225 0.01312 0.0201817 0.019765 0.0430129 0.0408417 0.0342135 0.0484274 0.0547915 0.0394824 0.05241 0.0495763 0.0887512 0.0758725 0.0702583 0.0695709 0.0502856 0.0738185
98 3 O 2.62231 19.8798 55.6101 -1.2 1 0.0100371 0.0177495 0.0238523 0.0125343 0.0253117 0.0216995 0.0387793 0.0450435 0.0374366 0.04948 0.0539404 0.0391313 0.0538391 0.0633184 0.0897618 0.0771711 0.0729111 0.0699794 0.0653766 0.0633466
99 1 Mg -0.126194 18.8651 52.2079 1.2 1 0.100606 0.0699249 0.0201985 0.0434168 0.0294398 0.0420743 0.0362099 0.0731958 0.0296642 0.0882002 0.0243339 0.055626 0.0278586 0.0741739 0.0342374 0.103686 0.0432043 0.10407 0.0468762 0.101975
100 1 Mg 1.92402 18.5815 49.4545 1.2 1 0.266059 0.101539 0.0332954 0.0403712 0.0333909 0.0292932 0.0698899 0.0490357 0.0696928 0.0755455 0.0825013 0.0594154 0.0746882 0.0690495 0.0875071 0.0967795 0.0791619 0.0981267 0.0870249 0.0847284
101 2 Si 1.38106 20.9117 51.2443 2.4 1 0.13223 0.0863411 0.0331156 0.0304974 0.0338063 0.0499753 0.0516568 0.0482796 0.0554579 0.0684946 0.0652135 0.0714084 0.0698685 0.0681956 0.0946782 0.0882777 0.0826014 0.0838557 0.0718443 0.0646057
102 3 O 1.48527 22.4795 51.3054 -1.2 1 0.140557 0.0823778 0.0153346 0.0279982 0.0317763 0.0404676 0.042816 0.0702157 0.050578 0.0591747 0.0462421 0.0792831 0.0663589 0.0662181 0.0788132 0.0708012 0.0796943 0.0759781 0.0713219 0.0665512
103 3 O 1.41059 19.8237 57.7669 -1.2 1 0.0129762 0.0137746 0.0278469 0.0203753 0.0206459 0.0292241 0.0328419 0.0444238 0.0582228 0.0433602 0.0435904 0.0431825 0.0532516 0.0713261 0.100367 0.0689426 0.0678994 0.0520831 0.0748184 0.054503
104 3 O 0.0615419 20.2804 50.6669 -1.2 1 0.187187 0.0866939 0.0221989 0.0220341 0.0448285 0.037416 0.0572683 0.060118 0.0561201 0.0576585 0.0639694 0.0462096 0.058318 0.0731903 0.0905533 0.080235 0.0745566 0.0773388 0.0716514 0.0880221
105 1 Mg -3.09665 18.8643 52.3122 1.2 1 0.0743735 0.0652986 0.0231005 0.0299164 0.0204358 0.051987 0.0332452 0.0575799 0.034758 0.0812622 0.0334478 0.0487968 0.0293616 0.0731953 0.0365873 0.104407 0.0548717 0.102696 0.0458313 0.0893345
106 3 O 2.61548 20.2646 50.4626 -1.2 1 0.206086 0.0850077 0.0249802 0.0190872 0.038793 0.0513461 0.0538689 0.0447405 0.0521997 0.0627152 0.0653991 0.0651794 0.050254 0.0626651 0.0998996 0.0759779 0.0775652 0.0703742 0.0673693 0.0872518
107 1 Mg -1.65224 18.86 54.9875 1.2 1 0.0180934 0.0178263 0.0191092 0.0297784 0.014341 0.0208329 0.0227769 0.0304216 0.043302 0.0580115 0.0572924 0.0522804 0.0606744 0.0627795 0.0563199 0.0748927 0.0731848 0.101997 0.0668295 0.0918538
108 2 Si -1.52688 16.781 53.1673 2.4 1 0.0511022 0.0415015 0.0249004 0.0312268 0.033928 0.0333975 0.0466314 0.0515411 0.0503831 0.0651027 0.0600293 0.0627613 0.0766558 0.0554167 0.0731967 0.0599242 0.0716558 0.0833398 0.0628478 0.0643034
109 3 O -1.65211 15.2755 53.1508 -1.2 1 0.0687544 0.0433042 0.0210074 0.0209259 0.0297688 0.0307085 0.0322149 0.0710385 0.0428334 0.0575015 0.0400449 0.0686335 0.0599751 0.0762118 0.0719075 0.062961 0.0492895 0.0672226 0.0713371 0.0705762
110 3 O -1.12868 18.1227 46.4249 -1.2 1 0.522079 0.0663615 0.0721111 0.0518106 0.0577522 0.0648307 0.0606904 0.0792537 0.0797472 0.0621648 0.0445843 0.0673642 0.0671959 0.0877887 0.116768 0.114808 0.106893 0.100622 0.0622053 0.0926223
111 3 O -2.7579 17.4568 53.933 -1.2 1 0.0315455 0.0257185 0.0282413 0.0246938 0.0240977 0.0313055 0.0461998 0.0470223 0.0471649 0.0584476 0.0516763 0.0412729 0.0563861 0.0627711 0.0767343 0.0647147 0.0671697 0.0643342 0.0699945 0.0682905
112 3 O -0.206946 17.5119 53.7776 -1.2 1 0.0332874 0.0387034 0.0199436 0.0262235 0.0262002 0.0188928 0.04905 0.0486809 0.055445 0.055079 0.0526258 0.0418861 0.0610867 0.0520342 0.0859767 0.063753 0.075625 0.06351 0.0693573 0.0729337
113 1 Mg -2.85203 25.8882 57.1096 1.2 1 0.0166115 0.0195604 0.0100934 0.022982 0.0163744 0.0339955 0.0176178 0.0456548 0.0328502 0.0695396 0.029606 0.0472369 0.0306356 0.0563407 0.0442326 0.089037 0.0605106 0.100597 0.0642174 0.0762582
114 1 Mg -1.48778 25.88 49.8402 1.2 1 0.232813 0.0786824 0.0235463 0.0402125 0.0322676 0.0470452 0.0536513 0.0547635 0.0504882 0.0579804 0.0603967 0.0671609 0.0719965 0.0717069 0.099403 0.0810881 0.0768586 0.0975194 0.0844861 0.0828355
115 2 Si -1.00491 23.3922 47.9274 2.4 1 0.375528 0.0629537 0.0669052 0.0708132 0.0321649 0.0746982 0.0412746 0.0827597 0.0668895 0.0738309 0.0528706 0.0741814 0.0584251 0.0738903 0.0939991 0.0760391 0.101594 0.0943508 0.0889727 0.0943361
116 3 O -0.927602 24.9615 47.9909 -1.2 1 0.369968 0.0630877 0.0433582 0.0631523 0.0441191 0.0905354 0.0625131 0.0805858 0.0536135 0.0865274 0.0546229 0.0737528 0.0610141 0.0791211 0.0782143 0.0719325 0.0932642 0.0751707 0.0740894 0.0708119
117 3 O -1.55795 22.2588 51.7696 -1.2 1 0.112348 0.0616378 0.0316698 0.023595 0.0350838 0.0505432 0.0585477 0.0515405 0.0669115 0.0516771 0.0572726 0.0489861 0.0547273 0.0825832 0.0998812 0.0731296 0.078441 0.0447046 0.0735097 0.0749275
118 3 O -2.17411 22.8111 48.8277 -1.2 1 0.310156 0.0864332 0.05403 0.0344094 0.0565714 0.0471305 0.0527211 0.0725344 0.0621332 0.0687252 0.0702141 0.0585427 0.0529354 0.0554267 0.0783421 0.0848487 0.0844699 0.0808524 0.0864148 0.0887659
119 1 Mg 0.0423997 21.3296 46.8225 1.2 1 0.488265 0.0228615 0.0758732 0.0320808 0.0579998 0.0802413 0.0692561 0.0817541 0.0738991 0.0873065 0.0864074 0.0621185 0.0636341 0.0806287 0.0767396 0.090398 0.0944162 0.0990471 0.102343 0.109361
120 3 O 0.458537 22.7495 48.3911 -1.2 1 0.347933 0.074715 0.0560453 0.037646 0.0477151 0.0612346 0.0394807 0.0655973 0.0646572 0.0712527 0.0601675 0.0567165 0.0645544 0.0860682 0.0943873 0.077619 0.0955887 0.102995 0.0812273 0.0855244
121 1 Mg 1.65157 21.343 54.5011 1.2 1 0.013737 0.0390709 0.0185716 0.0328717 0.014473 0.0188197 0.0201426 0.037988 0.0440297 0.0585435 0.0562598 0.0490322 0.0631108 0.0638309 0.0628837 0.0798744 0.0719665 0.0890102 0.0743199 0.0729231
122 2 Si 1.48364 23.9542 56.3224 2.4 1 0.0193784 0.0151565 0.0203184 0.0253449 0.0299189 0.0324034 0.038341 0.0440377 0.0499635 0.0513069 0.0532332 0.0572552 0.0648007 0.0611229 0.075238 0.0697029 0.0608772 0.100204 0.0571601 0.0582442
123 3 O 1.39953 22.436 56.3923 -1.2 1 0.0206274 0.0134864 0.009272 0.0265549 0.0194196 0.0274922 0.0197438 0.0679208 0.0389249 0.0577788 0.0450523 0.0659615 0.0608111 0.0659559 0.0664287 0.0641255 0.0651641 0.0669252 0.0608435 0.0708955
124 3 O 1.54441 24.9963 52.7297 -1.2 1 0.068401 0.047213 0.0264409 0.0195736 0.026801 0.043733 0.0513731 0.0547439 0.0497872 0.0471609 0.0421664 0.0482854 0.0584543 0.0650796 0.10329 0.0732204 0.0687905 0.0613309 0.0705806 0.0620022
125 3 O 0.256879 24.6732 55.6745 -1.2 1 0.00967979 0.0153933 0.0258068 0.0165679 0.0207703 0.0223307 0.0434317 0.0398668 0.0366239 0.0449554 0.0535401 0.0429228 0.0533062 0.0559869 0.0839015 0.0734363 0.067755 0.0640267 0.0606022 0.0672422
126 3 O 2.72221 24.6879 55.5827 -1.2 1 0.0106733 0.0176211 0.0266477 0.0200456 0.0241906 0.0249451 0.0502697 0.0463191 0.0363275 0.0504981 0.0514344 0.0326437 0.0562605 0.0620604 0.079078 0.0792984 0.0670076 0.0765175 0.0587828 0.0628786