ITEM: TIMESTEP
56800
ITEM: NUMBER OF ATOMS
10500
ITEM: BOX BOUNDS xy xz yz pp pp pp
0	8.9688	2.9896
0	118.725	0
0	252.977	0
ITEM: ATOMS id type element xu yu zu q Q_1 Q_2 Q_3 Q_4 Q_5 Q_6 Q_7 Q_8 Q_9 Q_10 Q_11 Q_12 Q_13 Q_14 Q_15 Q_16 Q_17 Q_18 Q_19 Q_20 Q_21
1 1 Mg -3.2716 7.01429 57.5254 1.2 1 0.00697759 0.0116561 0.00673418 0.0286699 0.0113652 0.036691 0.00815332 0.064638 0.0144535 0.0845656 0.0138888 0.0496392 0.0202655 0.0672973 0.0222817 0.099083 0.0255772 0.112934 0.0343684 0.09428
2 1 Mg -1.82655 6.90154 50.0912 1.2 1 0.220785 0.0848548 0.0331775 0.0364527 0.0234481 0.0593998 0.0454709 0.0419822 0.0564859 0.0672099 0.0564609 0.07284 0.070048 0.0655331 0.0958266 0.0606576 0.0841286 0.0988677 0.0714524 0.0727513
3 2 Si -0.257935 3.96038 48.0876 2.4 1 0.375528 0.0661441 0.0692046 0.0356724 0.0603835 0.049054 0.0733897 0.075195 0.0584061 0.0767274 0.057298 0.0725274 0.0642278 0.0818973 0.0942263 0.10118 0.110393 0.0914122 0.0733216 0.0715312
4 3 O -0.335812 5.46814 47.6264 -1.2 1 0.427888 0.0388288 0.0621487 0.0321226 0.0407402 0.04786 0.0651977 0.0702437 0.0871518 0.0759047 0.092469 0.0769738 0.0722954 0.0689957 0.0906223 0.124293 0.0954713 0.081952 0.0768266 0.0792013
5 3 O -2.03793 3.43377 51.8941 -1.2 1 0.115264 0.0567438 0.0284254 0.0249228 0.0254823 0.0545306 0.0568855 0.0488814 0.0472027 0.0596381 0.0645318 0.0513756 0.0506986 0.0754258 0.089021 0.0882925 0.0709612 0.0619509 0.0734895 0.06847
6 3 O -1.54015 3.53929 48.9521 -1.2 1 0.300229 0.0957662 0.040064 0.046085 0.0410864 0.0497731 0.0734926 0.0517554 0.0512258 0.0639529 0.0790347 0.0697199 0.0677396 0.0689372 0.070649 0.109743 0.0868786 0.076043 0.0689011 0.0875943
7 1 Mg 1.82954 2.54582 47.1376 1.2 1 0.466296 0.0217265 0.0797926 0.0509373 0.0358513 0.0829186 0.0601144 0.0580829 0.0755017 0.0889731 0.0704214 0.0774433 0.0822125 0.0862117 0.0688891 0.0940183 0.101098 0.104732 0.105995 0.0988851
8 3 O 1.22989 3.66364 48.7877 -1.2 1 0.317682 0.0750007 0.0232364 0.046356 0.0334371 0.0659916 0.0793616 0.0367255 0.0850013 0.0812479 0.0564436 0.0811353 0.0832075 0.069542 0.068443 0.0858331 0.0912111 0.0901373 0.0956718 0.0937896
9 1 Mg 0.974287 2.34396 54.5362 1.2 1 0.0134215 0.0230666 0.0182055 0.0340933 0.0244305 0.0345289 0.0183192 0.0331521 0.0358465 0.0599847 0.0577621 0.0551939 0.0605324 0.064203 0.0688845 0.0751636 0.0663007 0.0891473 0.0770186 0.0668217
10 2 Si 1.26891 5.00568 56.5363 2.4 1 0.012339 0.0203462 0.0166412 0.0252393 0.0250334 0.0295791 0.036902 0.0445392 0.0575411 0.0512294 0.0489503 0.0686236 0.0592885 0.0603905 0.0784563 0.0762851 0.0664678 0.0890788 0.0538316 0.054433
11 3 O 1.33689 3.45581 56.5894 -1.2 1 0.0269818 0.0166193 0.0242502 0.0284298 0.0223199 0.0232582 0.0270661 0.0551571 0.042246 0.0543035 0.0401834 0.0647286 0.0579929 0.0540663 0.0665715 0.0686168 0.0620371 0.0629613 0.0621308 0.0662796
12 3 O 1.10813 6.07342 52.8172 -1.2 1 0.0744682 0.0529169 0.0270405 0.0190366 0.0215756 0.0465902 0.0408891 0.0558 0.0510658 0.0412788 0.0594768 0.0500741 0.0726141 0.0709722 0.0843019 0.0804487 0.0649429 0.0692706 0.0705504 0.0671323
13 3 O -0.0533028 5.50045 55.8486 -1.2 1 0.0168738 0.0116058 0.0330812 0.0192107 0.0252125 0.0202147 0.0353066 0.0395828 0.0351713 0.0501633 0.0491244 0.0431624 0.054124 0.0673757 0.0761713 0.0824362 0.0726349 0.0574232 0.0668527 0.0638043
14 3 O 2.58393 5.71579 55.7997 -1.2 1 0.0150917 0.0167786 0.025713 0.0182415 0.024068 0.0108072 0.0404699 0.0456946 0.0468616 0.0445358 0.0523004 0.0413103 0.0536745 0.0448902 0.0922779 0.070277 0.0734691 0.0666459 0.0578946 0.0716375
15 1 Mg -0.459401 4.67631 52.2426 1.2 1 0.0941898 0.0639554 0.0351513 0.0417632 0.0277425 0.0305448 0.0427674 0.0610984 0.0464343 0.0756197 0.0435874 0.0577397 0.0490998 0.0769086 0.0462954 0.0996573 0.0543225 0.0893159 0.0599232 0.0765511
16 1 Mg 2.79456 3.9971 49.9987 1.2 1 0.219807 0.0958854 0.0297743 0.0389743 0.0420576 0.0651035 0.0526871 0.0541993 0.0787338 0.0656922 0.0622056 0.0562006 0.062707 0.0732908 0.0888705 0.078897 0.0717918 0.089755 0.0869544 0.0732037
17 2 Si 1.16169 6.59457 51.2556 2.4 1 0.143295 0.0826131 0.0375894 0.0333512 0.0386425 0.0494914 0.0494157 0.0468626 0.0555508 0.067652 0.064334 0.0720684 0.0740744 0.0686439 0.0822952 0.0895317 0.0741044 0.0884917 0.0740832 0.0666021
18 3 O 1.28989 8.18905 51.2909 -1.2 1 0.141919 0.0892917 0.0258001 0.038773 0.0337952 0.0468129 0.0366698 0.0762816 0.0532875 0.0651693 0.0481217 0.088163 0.0714899 0.0664763 0.0816322 0.067633 0.0690166 0.072182 0.0670997 0.0716456
19 3 O 1.31699 5.69196 58.0428 -1.2 1 0.015105 0.0263603 0.0248968 0.0217173 0.0161713 0.0351598 0.0347756 0.0439906 0.0434821 0.0486196 0.0378988 0.0500609 0.0548095 0.0651415 0.102381 0.0681883 0.0663872 0.0611893 0.0597147 0.0649496
20 3 O -0.184847 6.06029 50.6845 -1.2 1 0.184966 0.0858504 0.0227136 0.0329158 0.035833 0.0380617 0.0540259 0.0585361 0.0518515 0.063128 0.0687254 0.0749729 0.0629982 0.059068 0.0882315 0.0656658 0.0763699 0.0740692 0.0621493 0.077435
21 1 Mg -3.49704 4.67769 52.6661 1.2 1 0.0661414 0.0503579 0.0267546 0.0266243 0.0146135 0.0400286 0.0361868 0.0567851 0.0537911 0.0708108 0.0441294 0.0523437 0.0509412 0.0558442 0.0586646 0.0859196 0.086374 0.0756047 0.0708028 0.0729999
22 3 O 2.48581 5.93312 50.6539 -1.2 1 0.191066 0.0910359 0.0361559 0.0180932 0.0412766 0.0419458 0.0626448 0.0590306 0.0453762 0.0649231 0.0481992 0.0655903 0.0592576 0.0622625 0.103035 0.0666927 0.0777172 0.0692452 0.0771696 0.0775485
23 1 Mg -1.84428 4.64624 55.1926 1.2 1 0.0209025 0.0154545 0.0231764 0.0262476 0.0168494 0.0225738 0.0263027 0.0346602 0.0387449 0.0551642 0.0573232 0.0533845 0.0577512 0.0688716 0.0613416 0.0809731 0.0763029 0.0929091 0.0664318 0.0857596
24 2 Si -1.91969 2.71969 53.3788 2.4 1 0.0325706 0.0334092 0.0361636 0.0256464 0.0278821 0.0220268 0.0457154 0.0426169 0.0632106 0.0643854 0.0529516 0.0717344 0.0818877 0.0489534 0.0688206 0.0550642 0.074943 0.0828466 0.0761325 0.0640225
25 3 O -1.91634 1.18502 53.175 -1.2 1 0.0439419 0.0424633 0.02945 0.0167955 0.0317848 0.0350374 0.0317625 0.0559132 0.0576783 0.058502 0.0565658 0.0747334 0.0553397 0.0712318 0.0786332 0.0792258 0.0557777 0.0725939 0.0634572 0.0735432
26 3 O -0.0467762 2.97103 46.8385 -1.2 1 0.497888 0.0375573 0.087172 0.0302825 0.0807911 0.0677741 0.0806869 0.0717115 0.0728634 0.0798585 0.081712 0.0747556 0.0964511 0.0886448 0.0886869 0.0882468 0.0986202 0.0966073 0.10492 0.110743
27 3 O -3.12915 3.2417 54.0438 -1.2 1 0.0387177 0.0261534 0.0172026 0.021593 0.0202941 0.0257687 0.0368026 0.0413987 0.0472937 0.0494706 0.0635622 0.048255 0.0621035 0.0591166 0.0783835 0.0656064 0.0694262 0.0630163 0.0659286 0.0596801
28 3 O -0.565394 3.38997 53.9688 -1.2 1 0.0366438 0.0323993 0.0368682 0.0203936 0.0266245 0.0239108 0.0471562 0.050601 0.0418196 0.0463607 0.065044 0.0475601 0.0523867 0.0655912 0.0939644 0.0642363 0.0771619 0.0694013 0.0593312 0.0579041
29 1 Mg -2.92631 11.6915 57.287 1.2 1 0.0196904 0.0152834 0.018692 0.0251284 0.0118879 0.0314272 0.0194322 0.0465741 0.0310385 0.0831291 0.0331842 0.0506803 0.0332391 0.0616174 0.03791 0.0929498 0.0497108 0.100609 0.05426 0.0810128
30 1 Mg -1.75014 11.5838 49.8362 1.2 1 0.233206 0.0795525 0.0245407 0.0390386 0.0289729 0.0527888 0.0509998 0.0514053 0.0462262 0.0565508 0.0628799 0.0624547 0.072537 0.0688566 0.104517 0.0886713 0.0674898 0.0985308 0.0847582 0.0770502
31 2 Si -1.18003 9.02138 47.9309 2.4 1 0.36731 0.0708819 0.0702729 0.0537583 0.0421746 0.0629814 0.0730341 0.0761097 0.0682029 0.0660665 0.0584489 0.066415 0.0672599 0.0792492 0.100571 0.0663912 0.103437 0.0926822 0.102914 0.0892203
32 3 O -1.23224 10.5991 47.9811 -1.2 1 0.384221 0.050964 0.0472094 0.0570682 0.0500412 0.0685707 0.0661911 0.0769128 0.0561783 0.084122 0.0704852 0.0664512 0.0703121 0.0749866 0.0806625 0.0675989 0.0856486 0.0766727 0.0639421 0.07559
33 3 O -1.79016 8.01447 51.8693 -1.2 1 0.118612 0.0577608 0.0328026 0.0282292 0.028775 0.0470827 0.0559257 0.0571917 0.0564812 0.0498807 0.0554215 0.0515306 0.0677041 0.0824872 0.084689 0.0782063 0.0760686 0.051333 0.0707299 0.064532
34 3 O -2.30986 8.37215 48.8528 -1.2 1 0.317255 0.081352 0.0624369 0.0258749 0.0503521 0.0598966 0.0661712 0.0649247 0.0550887 0.06854 0.0807802 0.0658774 0.0564131 0.0633385 0.0782925 0.0923135 0.100652 0.0790829 0.0750446 0.0909498
35 1 Mg 0.154883 7.08234 46.8007 1.2 1 0.497461 0.0369208 0.0746477 0.0372777 0.0650517 0.0769209 0.0622195 0.0692205 0.0697316 0.0812763 0.0884497 0.0766467 0.0796986 0.0797034 0.0693211 0.0912041 0.091999 0.108823 0.115356 0.102072
36 3 O 0.325447 8.50934 48.3809 -1.2 1 0.345877 0.0820498 0.0650629 0.0447553 0.0365052 0.0510851 0.0402588 0.0603538 0.0621919 0.064523 0.0759173 0.0652082 0.0793902 0.092063 0.0893864 0.0683431 0.0938383 0.10124 0.0837099 0.0895766
37 1 Mg 1.06167 6.84435 54.6401 1.2 1 0.0114679 0.0301276 0.0171985 0.034217 0.0213537 0.0234594 0.0290357 0.0307773 0.0497895 0.0515223 0.0532615 0.05685 0.0474206 0.0677063 0.0726492 0.075591 0.0706094 0.0861607 0.0722032 0.0789524
38 2 Si 1.26297 9.57492 56.3387 2.4 1 0.0178829 0.0219018 0.017665 0.0226355 0.0282269 0.0266819 0.0366817 0.0423318 0.0481591 0.0608986 0.0521211 0.0653761 0.0661646 0.0544991 0.0746711 0.0709553 0.0663479 0.0887623 0.0614353 0.0596253
39 3 O 1.17295 8.07644 56.581 -1.2 1 0.0246525 0.0178826 0.0184047 0.020617 0.0265379 0.028943 0.0212234 0.061946 0.038029 0.0548521 0.0431075 0.0660989 0.0499441 0.061653 0.0682572 0.066329 0.0563946 0.0666968 0.0554422 0.0748738
40 3 O 1.28624 10.7248 52.7351 -1.2 1 0.0698187 0.0510806 0.0270698 0.0204214 0.0290029 0.0457644 0.0495454 0.0551602 0.0471706 0.0501373 0.0528508 0.0457617 0.0559593 0.0800525 0.0934999 0.0783001 0.0627318 0.0534221 0.0720102 0.0610663
41 3 O -0.0458984 10.2266 55.8381 -1.2 1 0.0153805 0.0114871 0.0331052 0.016952 0.0188868 0.0257357 0.0426835 0.0365499 0.0408586 0.0525482 0.0452939 0.0388736 0.0515156 0.0731774 0.0721186 0.0816361 0.0736191 0.0637863 0.0665253 0.0739253
42 3 O 2.44541 10.3099 55.6105 -1.2 1 0.0173546 0.0152917 0.0201534 0.0195891 0.0251965 0.0281285 0.0489283 0.0438977 0.0392848 0.0511956 0.0515436 0.0365471 0.0577293 0.0663614 0.0774723 0.0782651 0.0785939 0.0711624 0.0539067 0.0671575
43 1 Mg -0.262694 9.34741 52.2523 1.2 1 0.117313 0.0642033 0.01788 0.0422181 0.0389948 0.0420798 0.0385537 0.0715356 0.0317569 0.0863402 0.0261895 0.0577504 0.0422136 0.0732371 0.0450855 0.101122 0.0526408 0.0922461 0.0480363 0.0962234
44 1 Mg 1.87648 9.01537 49.4629 1.2 1 0.271178 0.0959303 0.0397207 0.0377461 0.0330025 0.0495712 0.0687865 0.0454139 0.0749777 0.0648006 0.0830122 0.053714 0.0881327 0.0721744 0.0816133 0.0935715 0.0882427 0.0960751 0.0874271 0.0893582
45 2 Si 1.21415 11.3799 51.2378 2.4 1 0.135544 0.0852814 0.0388296 0.0407509 0.0376362 0.049085 0.0593155 0.0413747 0.0548196 0.0650799 0.077134 0.0686708 0.0798772 0.0665894 0.092185 0.0906827 0.0804092 0.0806446 0.0771069 0.0624998
46 3 O 1.31634 12.9512 51.3023 -1.2 1 0.13737 0.0815736 0.0255766 0.0281884 0.0357118 0.0465147 0.0413811 0.0696688 0.0517845 0.0664287 0.0491415 0.0781285 0.064907 0.064746 0.0696282 0.064233 0.076485 0.0717432 0.0682154 0.0673943
47 3 O 1.4518 10.248 57.7839 -1.2 1 0.0151951 0.0206038 0.0192935 0.020869 0.0157726 0.0344144 0.0305245 0.0405838 0.0630517 0.0374104 0.0527564 0.0357878 0.0544115 0.0704963 0.0888289 0.0741973 0.0654211 0.0516906 0.0732724 0.0623389
48 3 O -0.115718 10.7564 50.681 -1.2 1 0.188395 0.0836304 0.0270788 0.0204532 0.0463912 0.0359057 0.05052 0.0607706 0.0496267 0.0611761 0.0619771 0.0490075 0.0642687 0.0732526 0.0924961 0.0769267 0.0749623 0.0732441 0.0792964 0.0811931
49 1 Mg -3.26386 9.35564 52.3622 1.2 1 0.0818064 0.056364 0.0244471 0.0270127 0.021245 0.0471621 0.0402388 0.0524831 0.0378088 0.0851687 0.0341638 0.045029 0.0418225 0.0663026 0.0375798 0.107971 0.0507235 0.106602 0.048531 0.0938059
50 3 O 2.45216 10.7265 50.4558 -1.2 1 0.199329 0.0906376 0.0198775 0.01087 0.0418045 0.0477201 0.0593993 0.0503855 0.0557793 0.0664441 0.0583194 0.0761417 0.0545716 0.0650623 0.0988228 0.0807002 0.0783367 0.074801 0.0597028 0.0924843
51 1 Mg -1.86898 9.35216 55.3168 1.2 1 0.014894 0.0173363 0.0192981 0.0281329 0.0195031 0.0241206 0.0239873 0.0328035 0.0369759 0.0545265 0.0504222 0.0563906 0.0617586 0.0673244 0.060448 0.0611211 0.0825876 0.0946541 0.0685397 0.0677477
52 2 Si -1.81818 7.27808 53.3972 2.4 1 0.0536738 0.0431337 0.0216525 0.0248225 0.027469 0.0379057 0.0414414 0.049137 0.0589866 0.0660493 0.0590725 0.0625991 0.078663 0.0486481 0.0674448 0.0648282 0.0681956 0.0768784 0.0643417 0.0606656
53 3 O -2.00552 5.68185 53.3635 -1.2 1 0.0585849 0.033544 0.0254861 0.0212023 0.0179911 0.0281075 0.0391621 0.0583094 0.0519208 0.0680024 0.0436305 0.069643 0.0536434 0.0652386 0.0716291 0.0545699 0.0656124 0.055629 0.0766827 0.0654804
54 3 O -1.19417 8.46968 46.4488 -1.2 1 0.52493 0.0664527 0.0672637 0.0508609 0.0664222 0.0578503 0.0799147 0.0548974 0.0747427 0.0697204 0.0558898 0.0509931 0.0700787 0.0979418 0.12951 0.112609 0.0970843 0.0958379 0.0840987 0.0834226
55 3 O -3.18509 7.9389 54.0029 -1.2 1 0.0372962 0.0220353 0.0234231 0.0241706 0.0171337 0.0333561 0.0474915 0.0436182 0.0487316 0.0534541 0.0526782 0.0462924 0.0512954 0.0644638 0.0771352 0.0668905 0.0721797 0.0648274 0.0642355 0.0741548
56 3 O -0.550414 7.9003 54.1764 -1.2 1 0.0342887 0.0250777 0.0290879 0.0222583 0.0338358 0.0321595 0.036895 0.0422653 0.0438172 0.0533426 0.0592055 0.0483618 0.0624045 0.0621629 0.0718739 0.0692249 0.0731421 0.0748715 0.067646 0.0631562
57 1 Mg -2.8404 16.4131 57.2681 1.2 1 0.021913 0.0165088 0.0162627 0.0267024 0.0141313 0.0305585 0.0182385 0.0537569 0.0343779 0.07274 0.0315252 0.0513036 0.0343481 0.0643899 0.034471 0.101768 0.0426893 0.0978715 0.0445081 0.0769724
58 1 Mg -1.6714 16.3544 49.8412 1.2 1 0.2331 0.0792899 0.0242896 0.041681 0.0302182 0.0501417 0.0554867 0.0512111 0.0471479 0.061208 0.0634941 0.0649183 0.0731646 0.0729491 0.102128 0.0833153 0.0757931 0.094844 0.0839024 0.0830397
59 2 Si -1.18567 13.8526 47.9314 2.4 1 0.376717 0.0627082 0.0668908 0.0660505 0.0290452 0.0680046 0.0464761 0.0783646 0.0630071 0.0677931 0.0542515 0.0730458 0.0597817 0.0754868 0.0977661 0.0732674 0.102813 0.097511 0.091541 0.0907793
60 3 O -1.09664 15.4205 47.9915 -1.2 1 0.370865 0.0624458 0.0416765 0.0636602 0.0441253 0.0909553 0.0625942 0.0813682 0.0545862 0.0878418 0.0552936 0.0731473 0.060995 0.0810151 0.0806278 0.0720517 0.0917997 0.0769836 0.0750484 0.0711128
61 3 O -1.73493 12.7491 51.7772 -1.2 1 0.113632 0.0592932 0.0284997 0.0284987 0.0372248 0.0479745 0.064165 0.0546216 0.0638874 0.04884 0.0644312 0.0459433 0.0582215 0.090027 0.100472 0.0834188 0.0780361 0.0512859 0.0694051 0.0699241
62 3 O -2.36115 13.2717 48.8238 -1.2 1 0.315987 0.081629 0.0512665 0.0334079 0.0525766 0.0489182 0.0543863 0.0688247 0.0597281 0.0671953 0.0732532 0.0617011 0.0595406 0.054508 0.0817909 0.085139 0.0886128 0.0773701 0.0801129 0.088067
63 1 Mg -0.159928 11.7639 46.8533 1.2 1 0.479529 0.0261 0.0782662 0.036022 0.0535075 0.0959171 0.0722931 0.0887553 0.0819674 0.0859286 0.0852839 0.0693716 0.0738648 0.0922796 0.0762826 0.0861348 0.0979444 0.0971674 0.096459 0.104128
64 3 O 0.2623 13.1866 48.413 -1.2 1 0.337654 0.0881512 0.0547956 0.0407526 0.042517 0.0604747 0.0408325 0.0657843 0.0667989 0.0672254 0.0621788 0.0630181 0.0660936 0.0879775 0.0978131 0.0799892 0.0934384 0.0976194 0.083999 0.087358
65 1 Mg 1.24574 11.7166 54.5825 1.2 1 0.0166103 0.0335618 0.0163084 0.0298805 0.0143273 0.0190904 0.0248628 0.032651 0.0471733 0.0590016 0.0629513 0.0534127 0.0580583 0.0696582 0.0693456 0.0781682 0.0669765 0.093883 0.0762819 0.0768335
66 2 Si 1.47786 14.5687 56.2982 2.4 1 0.0084195 0.0252069 0.0255032 0.023064 0.0306063 0.036075 0.0382024 0.0492122 0.0522113 0.0460643 0.0454397 0.0600745 0.0669331 0.0615906 0.0682014 0.078819 0.0564137 0.0854141 0.0633211 0.0563052
67 3 O 1.41749 12.8953 56.4846 -1.2 1 0.00727817 0.0252359 0.0154033 0.0237802 0.0258764 0.0255218 0.0251987 0.0741126 0.0374126 0.053696 0.0395522 0.0656882 0.05054 0.0725036 0.0762194 0.062572 0.0593388 0.074909 0.0601446 0.0665682
68 3 O 1.36565 15.4813 52.729 -1.2 1 0.0780657 0.0448155 0.0186489 0.0182224 0.0246246 0.0419386 0.048036 0.0562383 0.0482554 0.0494928 0.0442744 0.0499674 0.0606955 0.0685291 0.0968629 0.0724763 0.0713346 0.0622036 0.0753241 0.0578353
69 3 O 0.20385 15.2006 55.6191 -1.2 1 0.0123884 0.00729701 0.0286334 0.015666 0.0193465 0.0249829 0.0492199 0.0342939 0.0364483 0.0435949 0.0551919 0.037094 0.0522431 0.0650505 0.0819793 0.0779382 0.0711927 0.0681877 0.0615882 0.065204
70 3 O 2.79516 15.1074 55.6459 -1.2 1 0.0102902 0.0187339 0.0193858 0.0221117 0.017459 0.0218842 0.0475529 0.0461788 0.0384508 0.0513513 0.0556195 0.0359889 0.0605116 0.0629974 0.0792689 0.0789845 0.0684193 0.0675216 0.0584111 0.0732175
71 1 Mg -0.206989 14.1049 52.2121 1.2 1 0.106657 0.0647391 0.0264553 0.0408252 0.0296443 0.040339 0.0384378 0.0727559 0.0282645 0.0823442 0.0310028 0.0528872 0.0367679 0.0754764 0.0338772 0.104329 0.0511577 0.101979 0.0462007 0.0899339
72 1 Mg 1.82591 13.8102 49.4556 1.2 1 0.270635 0.100284 0.0361073 0.0383413 0.0326581 0.0317267 0.0667836 0.0458153 0.0690497 0.0768702 0.0782993 0.0575074 0.0726801 0.0680239 0.0817828 0.0886687 0.0786922 0.0984702 0.0904082 0.0849711
73 2 Si 1.29285 16.1518 51.2434 2.4 1 0.131009 0.0857674 0.0355056 0.0399891 0.0355163 0.0493397 0.0546124 0.0456517 0.0520408 0.0712783 0.067872 0.0682391 0.0722199 0.0645096 0.0930705 0.0853697 0.079902 0.0849259 0.0756425 0.062769
74 3 O 1.39496 17.7199 51.3047 -1.2 1 0.135962 0.0804413 0.0236187 0.030959 0.0332708 0.0430746 0.0447127 0.0714592 0.0505656 0.0667923 0.0458473 0.0806773 0.0700714 0.064828 0.0797518 0.067696 0.0794995 0.0744616 0.0647188 0.0722068
75 3 O 1.43763 15.1641 57.8039 -1.2 1 0.0126352 0.00690984 0.0224147 0.0234079 0.0193103 0.0312255 0.0312243 0.0394239 0.0558678 0.0421443 0.0469583 0.0396401 0.055186 0.0683928 0.097501 0.0770059 0.0709567 0.0533946 0.0748553 0.0541316
76 3 O -0.0269106 15.5178 50.6688 -1.2 1 0.183436 0.0906996 0.0240269 0.0243585 0.0432443 0.0423968 0.0582488 0.0612328 0.0552299 0.0589317 0.0598477 0.051187 0.0649565 0.0699529 0.0919748 0.079611 0.0794854 0.0794429 0.0726133 0.0866098
77 1 Mg -3.18391 14.1057 52.3125 1.2 1 0.0776695 0.0549072 0.0291436 0.0327159 0.017231 0.0536073 0.039563 0.0579139 0.0373266 0.0813853 0.0355645 0.0463271 0.0274517 0.0689872 0.0360593 0.108684 0.0467032 0.102002 0.0519842 0.083809
78 3 O 2.52432 15.503 50.4579 -1.2 1 0.19501 0.0937677 0.0199438 0.0183553 0.0404661 0.0559118 0.0567168 0.0485606 0.0531514 0.0656142 0.0648823 0.0734025 0.0576844 0.0616978 0.1017 0.0774874 0.0785606 0.0712629 0.0635436 0.0867119
79 1 Mg -1.55903 14.0647 55.1682 1.2 1 0.0226461 0.012578 0.0169103 0.0274135 0.0179921 0.0233166 0.0246816 0.0329974 0.0405154 0.0598374 0.0496255 0.0632227 0.0582901 0.0636419 0.0620513 0.0625656 0.0814296 0.101588 0.0621514 0.085183
80 2 Si -1.75836 11.9995 53.2535 2.4 1 0.0600636 0.0394183 0.0167646 0.0300077 0.0337331 0.0354571 0.0504752 0.0552421 0.0576454 0.0648107 0.0660873 0.06271 0.0826729 0.0405028 0.0778092 0.0607617 0.0706891 0.075908 0.0745378 0.060926
81 3 O -1.69278 10.4985 53.3913 -1.2 1 0.0586227 0.0366766 0.0220076 0.0199897 0.0342567 0.0357667 0.0259279 0.0719937 0.0419551 0.0673113 0.0497958 0.0636348 0.0648022 0.073741 0.0688701 0.0534603 0.050136 0.0504798 0.0685242 0.0634857
82 3 O -1.21337 13.3381 46.4311 -1.2 1 0.520101 0.0679283 0.0703029 0.0404311 0.0554923 0.0586868 0.0593603 0.0707191 0.0795863 0.0656571 0.0448051 0.0701967 0.0680718 0.0883094 0.120397 0.113964 0.106548 0.0999658 0.0587987 0.0907187
83 3 O -3.12018 12.6727 53.913 -1.2 1 0.0325747 0.03466 0.0305175 0.0128234 0.0215108 0.0327169 0.0430491 0.0526865 0.0485998 0.051445 0.0537346 0.0345136 0.0597042 0.0635858 0.0746122 0.0632111 0.0736386 0.0705672 0.0664006 0.0713416
84 3 O -0.473259 12.6495 54.0735 -1.2 1 0.0324732 0.0315218 0.0238986 0.0240557 0.0240208 0.0308719 0.0328213 0.0429881 0.04307 0.0541844 0.0628595 0.0397256 0.0581224 0.0678578 0.0835484 0.070516 0.0681689 0.0749825 0.0648446 0.0641265
85 1 Mg -2.80053 21.1265 57.4017 1.2 1 0.0118756 0.00921262 0.0134054 0.0232709 0.00733646 0.0353059 0.0130336 0.0544906 0.0210695 0.0866245 0.024175 0.0548298 0.0259547 0.0735578 0.0289313 0.0970635 0.0324437 0.110171 0.0355904 0.0999703
86 1 Mg -1.5831 21.1217 49.8405 1.2 1 0.228973 0.0834582 0.0233074 0.0399169 0.0311421 0.0492645 0.0548776 0.0553496 0.0507977 0.0576425 0.060387 0.0661156 0.0745558 0.0756066 0.101877 0.0808663 0.0754526 0.097257 0.0842042 0.0802078
87 2 Si -1.09384 18.6291 47.9287 2.4 1 0.371092 0.0707028 0.0730711 0.0647139 0.0307956 0.0694682 0.0474476 0.0812355 0.0675162 0.0684574 0.0514639 0.0729562 0.0602352 0.0758816 0.100183 0.0760123 0.106447 0.0941348 0.0885767 0.0907734
88 3 O -1.02071 20.1985 47.9911 -1.2 1 0.365532 0.0705026 0.0502273 0.0633899 0.0443115 0.0910673 0.0631637 0.082081 0.0538571 0.0867903 0.053496 0.0718775 0.0609336 0.0825739 0.0799224 0.0712325 0.0926332 0.0780199 0.0774108 0.0699598
89 3 O -1.65002 17.5002 51.771 -1.2 1 0.10868 0.0583124 0.0370858 0.0312768 0.0358004 0.0523301 0.0581576 0.0518963 0.0643065 0.0509685 0.060191 0.0467831 0.0530359 0.086583 0.100289 0.0812873 0.0804721 0.0476182 0.0743523 0.0719992
90 3 O -2.26174 18.0434 48.8281 -1.2 1 0.311083 0.0847552 0.0520557 0.0356398 0.0556566 0.049135 0.0539124 0.0725509 0.0608727 0.0665527 0.0703071 0.0569582 0.0529058 0.0583 0.0779688 0.0845359 0.0865021 0.0801344 0.0834522 0.0882266
91 1 Mg -0.0440435 16.5651 46.8269 1.2 1 0.481247 0.0215321 0.0807298 0.0331884 0.0668108 0.0866275 0.0786452 0.0859714 0.0695882 0.0844409 0.0856128 0.0626047 0.0635424 0.0772911 0.0760381 0.0936745 0.0930632 0.0959873 0.100374 0.106269
92 3 O 0.37001 17.9877 48.3925 -1.2 1 0.33928 0.0873172 0.0565449 0.041793 0.0431939 0.0635831 0.0437342 0.0678165 0.065385 0.0702221 0.0606422 0.0609135 0.0632195 0.0848479 0.0952084 0.0764515 0.0938583 0.1018 0.0829717 0.0864679
93 1 Mg 1.3113 16.5977 54.5 1.2 1 0.0115364 0.0219883 0.0188615 0.0246262 0.014971 0.0199529 0.0217415 0.0355115 0.0448623 0.061456 0.0623199 0.0548415 0.0626339 0.0620222 0.0713325 0.0780899 0.0730927 0.0824726 0.089918 0.0673836
94 2 Si 1.44254 19.1613 56.369 2.4 1 0.0237703 0.0135685 0.013807 0.0177844 0.0273674 0.023663 0.0442058 0.0405281 0.0440243 0.054004 0.0538773 0.0603181 0.0743543 0.0586181 0.0758504 0.069784 0.0724096 0.0933216 0.0575312 0.0551253
95 3 O 1.46416 17.528 56.4318 -1.2 1 0.0169496 0.0218716 0.00664655 0.0287834 0.0244728 0.0290424 0.0238021 0.0728207 0.0435361 0.0659958 0.0436638 0.0644615 0.0506514 0.071362 0.0750867 0.0643116 0.0539122 0.0620251 0.0572401 0.0733352
96 3 O 1.45147 20.239 52.7294 -1.2 1 0.0650714 0.0480658 0.0256824 0.0171254 0.0306237 0.0424494 0.0524859 0.0541715 0.0483739 0.0485964 0.0457688 0.0474453 0.0575197 0.0747189 0.099961 0.0818326 0.0643615 0.0662883 0.0711513 0.0604343
97 3 O 0.32588 19.9298 55.7114 -1.2 1 0.00721435 0.00941794 0.028141 0.0167959 0.0188708 0.0225837 0.0458769 0.0355271 0.0359085 0.0407381 0.055392 0.0402823 0.0518825 0.0546921 0.0920625 0.0738898 0.0741265 0.0654095 0.0647626 0.0598156
98 3 O 2.80084 19.7468 55.7493 -1.2 1 0.0310925 0.0132347 0.023884 0.020527 0.0303852 0.0227767 0.0501376 0.0493239 0.0371908 0.0508844 0.052388 0.0413877 0.0578926 0.0721167 0.0711217 0.0809468 0.0798411 0.0563479 0.0646913 0.0754327
99 1 Mg -0.126194 18.8651 52.2079 1.2 1 0.102631 0.065684 0.0262665 0.0468945 0.026883 0.0401108 0.0413167 0.0694997 0.0311291 0.0843906 0.0264187 0.0529007 0.0348807 0.0726936 0.0361398 0.106595 0.0482247 0.104831 0.0435991 0.0956795
100 1 Mg 1.92402 18.5815 49.4545 1.2 1 0.266401 0.101041 0.032611 0.0411067 0.0349629 0.029499 0.0701312 0.0498049 0.0703013 0.0745294 0.0799781 0.0583615 0.0738365 0.0693053 0.0869566 0.0964569 0.0783543 0.0985324 0.0890641 0.0864999
101 2 Si 1.38106 20.9117 51.2443 2.4 1 0.131358 0.0831835 0.038382 0.0375703 0.040585 0.048846 0.0568512 0.0422537 0.0544575 0.0666551 0.0661621 0.0734663 0.0698854 0.0707487 0.0949762 0.0840956 0.0832185 0.0796211 0.0723738 0.064898
102 3 O 1.48527 22.4795 51.3054 -1.2 1 0.141313 0.0766466 0.025145 0.0320928 0.0376626 0.0379934 0.0408625 0.0697402 0.0535275 0.0633188 0.0432791 0.0773394 0.0661909 0.0696133 0.0732612 0.0623549 0.0734595 0.074615 0.0695443 0.0672316
103 3 O 1.42718 19.6798 57.9238 -1.2 1 0.00793713 0.0197876 0.020598 0.019524 0.0174419 0.0362142 0.0264919 0.0415545 0.0559813 0.0446828 0.0444872 0.0478959 0.0536594 0.0674038 0.0965517 0.0717029 0.0689998 0.0547727 0.0718845 0.0621183
104 3 O 0.0615419 20.2804 50.6669 -1.2 1 0.177484 0.0934513 0.0243383 0.0349977 0.0393185 0.0404302 0.0569401 0.0693 0.0576436 0.0591772 0.0564325 0.0471709 0.0615008 0.0723062 0.0898892 0.0844813 0.0759603 0.0739363 0.0715089 0.0838542
105 1 Mg -3.09665 18.8643 52.3122 1.2 1 0.077599 0.0551413 0.0298245 0.0294001 0.0196873 0.0501745 0.0392256 0.0552742 0.0378007 0.0833807 0.0328872 0.043835 0.0281895 0.0720823 0.0338489 0.110392 0.0478929 0.0981236 0.0498581 0.0881612
106 3 O 2.61548 20.2646 50.4626 -1.2 1 0.193706 0.0976849 0.0204397 0.0198692 0.0412762 0.0536008 0.0537124 0.0434473 0.0557748 0.0682228 0.0657732 0.071547 0.0542113 0.0625652 0.104178 0.0752193 0.0747395 0.0730752 0.0667838 0.087108
107 1 Mg -1.53139 18.8192 55.0362 1.2 1 0.0314482 0.00945457 0.0186671 0.0300529 0.0180676 0.026785 0.0200922 0.0354948 0.042632 0.0554747 0.0595244 0.0544704 0.0605539 0.0630612 0.0617606 0.0779771 0.0659843 0.0977622 0.0645016 0.0929115
108 2 Si -1.67792 16.8614 53.253 2.4 1 0.0498092 0.0384417 0.026621 0.0284935 0.0372024 0.0283956 0.0536603 0.0554508 0.0604355 0.0602282 0.056331 0.0713413 0.0805533 0.0503605 0.0746124 0.0610546 0.0670891 0.0851462 0.0594807 0.0617554
109 3 O -1.59739 15.2533 53.1097 -1.2 1 0.0673036 0.0462265 0.0198607 0.0198474 0.0299441 0.0327485 0.0305584 0.0742161 0.0499095 0.0593074 0.0506246 0.0728799 0.0544773 0.0759114 0.0748812 0.066746 0.046873 0.0731468 0.064017 0.0802186
110 3 O -1.12868 18.1227 46.4249 -1.2 1 0.522112 0.0665825 0.0721568 0.0520426 0.0579654 0.0645794 0.0603857 0.0797006 0.0807712 0.0633684 0.0456708 0.0677748 0.0671473 0.0873991 0.116474 0.114666 0.106747 0.100508 0.0628594 0.0935648
111 3 O -2.85893 17.4181 53.9861 -1.2 1 0.0313132 0.0224175 0.0290515 0.0286408 0.0198196 0.0304816 0.0486735 0.044826 0.044314 0.0578416 0.052949 0.0392065 0.0583121 0.0685169 0.0782958 0.068915 0.0684052 0.0666297 0.0628196 0.0719017
112 3 O -0.309524 17.4521 53.8992 -1.2 1 0.0465201 0.0271014 0.031084 0.0174792 0.0297615 0.0242745 0.0387456 0.0432367 0.0500947 0.0584274 0.0606208 0.0449033 0.0610157 0.0686775 0.0826876 0.070393 0.0808465 0.0607194 0.0705046 0.0715676
113 1 Mg -2.69745 25.8684 57.2766 1.2 1 0.0154736 0.0144788 0.0115525 0.0285582 0.0138351 0.0348466 0.0161311 0.0538048 0.0304273 0.0796288 0.0265582 0.0494538 0.0242767 0.0687847 0.0328928 0.0942688 0.0429865 0.10352 0.0505331 0.0837847
114 1 Mg -1.48778 25.88 49.8402 1.2 1 0.22434 0.0882159 0.0224274 0.0420279 0.0308411 0.0548536 0.0558944 0.051443 0.050495 0.0638422 0.0658592 0.0598507 0.07504 0.0736046 0.101557 0.0827764 0.0776064 0.0929081 0.0800188 0.0851408
115 2 Si -1.00491 23.3922 47.9274 2.4 1 0.375366 0.0635169 0.0676557 0.0700113 0.0333907 0.0760629 0.040682 0.0808314 0.066857 0.0748784 0.0544195 0.0745276 0.0609332 0.0752041 0.0941427 0.0750394 0.101236 0.0938959 0.0897644 0.0975114
116 3 O -0.927602 24.9615 47.9909 -1.2 1 0.360866 0.0776521 0.0557881 0.0603352 0.0484572 0.094329 0.0607371 0.0799103 0.0540628 0.0881522 0.053441 0.0730405 0.062609 0.0828557 0.081685 0.0729806 0.09714 0.0814547 0.0753694 0.066323
117 3 O -1.55795 22.2588 51.7696 -1.2 1 0.11038 0.0592003 0.0303593 0.0282555 0.0381284 0.0478309 0.0634136 0.0523726 0.0671715 0.0527457 0.0582817 0.0492748 0.0546902 0.0847834 0.0950152 0.0793468 0.075514 0.0535018 0.0691464 0.0690382
118 3 O -2.17411 22.8111 48.8277 -1.2 1 0.313831 0.0839206 0.053738 0.0339932 0.057074 0.0484309 0.0501042 0.0703549 0.0612157 0.0670691 0.0712759 0.0581265 0.0526703 0.055742 0.0785955 0.0839709 0.0843426 0.0786899 0.0840196 0.0850711
119 1 Mg 0.0423997 21.3296 46.8225 1.2 1 0.481331 0.0214159 0.0813436 0.0321667 0.0659251 0.087095 0.0787327 0.0872221 0.0694216 0.0814269 0.0835088 0.0618554 0.0633744 0.0774926 0.0756579 0.0936154 0.0951654 0.0965014 0.0983334 0.105581
120 3 O 0.458537 22.7495 48.3911 -1.2 1 0.336233 0.0884856 0.0633558 0.0391991 0.0493068 0.0612421 0.0473376 0.0696963 0.0641213 0.0727103 0.0624833 0.0586492 0.0687339 0.0912567 0.0969028 0.0751874 0.0952919 0.104656 0.0811863 0.0827815
121 1 Mg 1.53095 21.3741 54.6218 1.2 1 0.0249756 0.0200201 0.0177692 0.0278512 0.0170641 0.0185559 0.0233401 0.0334781 0.0439335 0.0547871 0.0675763 0.0573332 0.0572575 0.0636578 0.0655267 0.0883496 0.0689899 0.0854902 0.0774577 0.0818253
122 2 Si 1.62786 23.845 56.3918 2.4 1 0.00593413 0.0245768 0.0171825 0.0306966 0.0257155 0.0230296 0.0376454 0.0421967 0.0454871 0.0658155 0.0560419 0.0609557 0.0606098 0.0555561 0.0795644 0.0728984 0.0737166 0.0926513 0.0524295 0.0645091
123 3 O 1.63299 22.2926 56.4292 -1.2 1 0.0156078 0.0270535 0.00752449 0.0265867 0.0184084 0.0249654 0.0198345 0.0681974 0.0365782 0.0620639 0.0343262 0.0649284 0.054593 0.0676346 0.0766271 0.0627723 0.0605858 0.067094 0.059992 0.07601
124 3 O 1.54441 24.9963 52.7297 -1.2 1 0.0638413 0.0452242 0.0337224 0.0215084 0.0237249 0.0485736 0.0499084 0.05736 0.0511186 0.0512548 0.0453341 0.0517062 0.0619524 0.0668187 0.0983966 0.0729448 0.0698648 0.0623629 0.077237 0.0623314
125 3 O 0.520721 24.7017 55.6098 -1.2 1 0.0184679 0.014738 0.0277971 0.0206238 0.0219805 0.0215842 0.0385527 0.036945 0.0377965 0.0403835 0.0533368 0.0369268 0.0498142 0.053859 0.0828808 0.0770666 0.0744446 0.060387 0.064582 0.0562945
126 3 O 3.09135 24.4472 55.8347 -1.2 1 0.0337614 0.0153628 0.019451 0.0201029 0.0269286 0.0193389 0.038193 0.0437012 0.0475139 0.0483924 0.052192 0.0332751 0.0576127 0.0695853 0.06396 0.0803937 0.0744326 0.0719045 0.058431 0.0760272