ITEM: TIMESTEP
41800
ITEM: NUMBER OF ATOMS
10500
ITEM: BOX BOUNDS xy xz yz pp pp pp
0	8.9688	2.9896
0	118.725	0
0	252.977	0
ITEM: ATOMS id type element xu yu zu q Q_1 Q_2 Q_3 Q_4 Q_5 Q_6 Q_7 Q_8 Q_9 Q_10 Q_11 Q_12 Q_13 Q_14 Q_15 Q_16 Q_17 Q_18 Q_19 Q_20 Q_21
1 1 Mg -3.55341 7.04178 57.3934 1.2 1 0.0105568 0.0264164 0.0125579 0.0340113 0.011205 0.0305529 0.011817 0.0565997 0.0203499 0.079416 0.0160649 0.047371 0.0165347 0.0646904 0.0248999 0.102139 0.0326476 0.108509 0.032025 0.0954197
2 1 Mg -1.82655 6.90154 50.0912 1.2 1 0.21872 0.091254 0.0337181 0.0343662 0.030871 0.0567428 0.0439219 0.0439901 0.0565482 0.0691951 0.0531516 0.075206 0.0734461 0.0660155 0.0974349 0.061605 0.087822 0.0983256 0.0740289 0.079497
3 2 Si -0.257935 3.96038 48.0876 2.4 1 0.371611 0.073108 0.0749993 0.0351974 0.0611495 0.0519942 0.0735074 0.0768941 0.0571816 0.077391 0.0566451 0.0676354 0.0610247 0.0850693 0.096207 0.0992036 0.110866 0.0928597 0.0695485 0.0715246
4 3 O -0.335812 5.46814 47.6264 -1.2 1 0.426867 0.0401817 0.0655525 0.0300352 0.0410084 0.049222 0.0650759 0.0698249 0.086865 0.0752098 0.0912884 0.075155 0.0705046 0.0672141 0.090034 0.124162 0.0951272 0.0810002 0.0756974 0.0790785
5 3 O -2.03793 3.43377 51.8941 -1.2 1 0.114489 0.0635324 0.0224922 0.0190097 0.0181652 0.0508674 0.0588304 0.0522437 0.0511556 0.0561351 0.0647546 0.0537832 0.0504041 0.0752794 0.085564 0.0819758 0.061722 0.0525722 0.076854 0.0697171
6 3 O -1.54015 3.53929 48.9521 -1.2 1 0.314017 0.0735225 0.0259513 0.0493673 0.0337428 0.0471078 0.0680523 0.0522518 0.056082 0.0606109 0.0775609 0.0665262 0.066265 0.0663039 0.0721591 0.108092 0.0811208 0.0779761 0.073086 0.086398
7 1 Mg 1.82954 2.54582 47.1376 1.2 1 0.466141 0.0227588 0.0803274 0.0502952 0.0353032 0.082764 0.0602078 0.058822 0.0757074 0.0883701 0.0692035 0.077371 0.0822833 0.0854843 0.070328 0.0961446 0.100681 0.103273 0.106101 0.100079
8 3 O 1.22989 3.66364 48.7877 -1.2 1 0.324154 0.0694985 0.0238965 0.0411903 0.033254 0.0645827 0.0776667 0.0330157 0.0841771 0.0798921 0.0521955 0.0780838 0.0821658 0.0655131 0.0669274 0.0900017 0.0915183 0.0902022 0.0971884 0.0888783
9 1 Mg 1.01005 2.3539 54.712 1.2 1 0.0145348 0.0155418 0.0155644 0.0311295 0.0260938 0.0302221 0.0267801 0.0265729 0.0447952 0.0615694 0.0556623 0.0514436 0.0571559 0.0680746 0.0571177 0.0921274 0.0574725 0.0961823 0.068438 0.0798352
10 2 Si 0.936066 5.05987 56.3607 2.4 1 0.026971 0.0212029 0.0256128 0.0271261 0.0270011 0.0290323 0.0408541 0.0452662 0.0514318 0.0535609 0.0541342 0.0583926 0.0620114 0.0598305 0.0729347 0.0739442 0.0645844 0.100855 0.053777 0.0485971
11 3 O 0.867164 3.47108 56.5587 -1.2 1 0.0260041 0.0258037 0.015393 0.024505 0.0174655 0.0178507 0.0216412 0.0568683 0.0395972 0.0461175 0.039077 0.0654798 0.051258 0.0548864 0.0685348 0.0683375 0.0670394 0.0758591 0.0617949 0.0796452
12 3 O 1.10813 6.07342 52.8172 -1.2 1 0.0835222 0.043814 0.0330723 0.0199537 0.0210423 0.0450384 0.039221 0.0568707 0.0526751 0.0443546 0.0563665 0.0524942 0.0656511 0.0719587 0.0870191 0.0846055 0.054722 0.0696718 0.0695085 0.0656919
13 3 O -0.363856 5.58365 55.6314 -1.2 1 0.0079626 0.0232269 0.0187232 0.0242383 0.024795 0.0183543 0.0337907 0.0423007 0.0427237 0.0569863 0.0531707 0.033045 0.0545614 0.0613832 0.0810828 0.0769959 0.0743994 0.0811583 0.0588018 0.0687525
14 3 O 2.20273 5.78433 55.6247 -1.2 1 0.0178854 0.0211805 0.0200265 0.0188353 0.0293458 0.0194718 0.044948 0.0478042 0.0434056 0.0384213 0.0519581 0.0398085 0.0555823 0.0537377 0.0842623 0.0675713 0.0681212 0.0710375 0.0633249 0.0645298
15 1 Mg -0.459401 4.67631 52.2426 1.2 1 0.0875047 0.068524 0.0337807 0.0348818 0.0340696 0.0277554 0.0421327 0.0575426 0.0433891 0.080659 0.0469386 0.0584774 0.0466818 0.0740772 0.0409769 0.103516 0.0558971 0.0901215 0.0633377 0.0924967
16 1 Mg 2.79456 3.9971 49.9987 1.2 1 0.230813 0.0919155 0.034303 0.0462499 0.0445402 0.0624917 0.0521818 0.056674 0.0753095 0.0608272 0.0570986 0.0565114 0.0583049 0.0722386 0.0811795 0.071407 0.0722457 0.0874594 0.0830774 0.0713829
17 2 Si 1.16169 6.59457 51.2556 2.4 1 0.146334 0.0846112 0.0356734 0.0341262 0.0421869 0.0483685 0.0482161 0.0445559 0.058555 0.0664048 0.0625061 0.0751262 0.0704902 0.0653593 0.0866176 0.0902577 0.0783745 0.0881372 0.0772161 0.069479
18 3 O 1.28989 8.18905 51.2909 -1.2 1 0.149089 0.0852873 0.0182241 0.0320444 0.0314792 0.0463904 0.0381126 0.0701321 0.0478302 0.0698993 0.0426801 0.0907984 0.0674893 0.0666443 0.0785519 0.0754515 0.0777275 0.0666409 0.0702454 0.0705627
19 3 O 0.771737 5.81556 57.7644 -1.2 1 0.0104932 0.0175819 0.0213242 0.0196947 0.0200816 0.0364174 0.0406906 0.0424888 0.052499 0.0408486 0.0474526 0.0512448 0.0580473 0.069551 0.0979536 0.0807126 0.0675893 0.0556877 0.0701055 0.0538605
20 3 O -0.184847 6.06029 50.6845 -1.2 1 0.183916 0.0864552 0.0194939 0.0290505 0.0351759 0.0304343 0.0497066 0.0573971 0.0559561 0.060347 0.0618885 0.0780468 0.0662924 0.0579283 0.087052 0.0674537 0.0788937 0.0752287 0.0643591 0.080504
21 1 Mg -3.49704 4.67769 52.6661 1.2 1 0.0692159 0.0585837 0.0209072 0.0271655 0.0160762 0.0390239 0.0382029 0.0602627 0.0550836 0.0707752 0.0492281 0.0472553 0.0498927 0.0472797 0.0577206 0.0868373 0.0857847 0.0727354 0.0798293 0.0720433
22 3 O 2.48581 5.93312 50.6539 -1.2 1 0.191572 0.0946042 0.0289152 0.0182653 0.0341353 0.04565 0.058918 0.0565862 0.0471155 0.0704815 0.0500188 0.0661852 0.0530119 0.0638153 0.101967 0.0656624 0.081993 0.0685166 0.0778157 0.0734341
23 1 Mg -2.04366 4.73308 55.0292 1.2 1 0.025985 0.0288978 0.0261988 0.024208 0.0174218 0.0244182 0.0278094 0.0321126 0.0412021 0.0536206 0.0528093 0.0500443 0.0631666 0.0684594 0.060979 0.0857774 0.0782199 0.0966022 0.0597862 0.0900302
24 2 Si -1.9437 2.55566 53.2941 2.4 1 0.0442348 0.0382401 0.0249113 0.0228393 0.0249763 0.0248701 0.0499781 0.0427196 0.0619254 0.0725732 0.062125 0.0647483 0.070385 0.0515793 0.0727305 0.0623239 0.0783708 0.0811999 0.0818345 0.0671199
25 3 O -1.9284 1.00965 53.1262 -1.2 1 0.0595785 0.0361169 0.0252643 0.0216632 0.0199031 0.0408425 0.0332883 0.0629074 0.0610727 0.0596262 0.0512917 0.0624189 0.0640407 0.0694509 0.0765437 0.066867 0.0548075 0.0648192 0.068644 0.0774042
26 3 O -0.0467762 2.97103 46.8385 -1.2 1 0.497715 0.0375015 0.0879987 0.0293299 0.0796163 0.0667776 0.0803181 0.0718719 0.0726495 0.07892 0.081463 0.0754734 0.0967355 0.0886906 0.0889547 0.0884912 0.0989037 0.0970387 0.105006 0.110923
27 3 O -3.25677 3.20953 54.1104 -1.2 1 0.0220869 0.0236572 0.0259139 0.0219866 0.0199624 0.0267764 0.0351863 0.0445725 0.0528735 0.0567362 0.0619088 0.0410414 0.0537402 0.0666389 0.0754304 0.0633369 0.0619904 0.0739581 0.0624381 0.063539
28 3 O -0.687212 3.23395 53.9176 -1.2 1 0.0366898 0.0397332 0.0364408 0.0145253 0.0152243 0.0273122 0.0426712 0.0492178 0.0442059 0.0576513 0.0571796 0.0407855 0.0550774 0.0770189 0.073781 0.0658359 0.085043 0.0667894 0.0682705 0.0678385
29 1 Mg -3.47353 11.734 57.4734 1.2 1 0.0128846 0.0205705 0.0093414 0.0267963 0.0109146 0.0342487 0.0122262 0.0547934 0.0168762 0.0772588 0.0164521 0.0537163 0.0218929 0.0730982 0.0247299 0.105796 0.0349771 0.11303 0.0359548 0.0858245
30 1 Mg -1.75014 11.5838 49.8362 1.2 1 0.240055 0.0732687 0.0247939 0.034623 0.0323721 0.0478789 0.0486412 0.0559075 0.046453 0.0517724 0.0628229 0.0650354 0.0693938 0.0639823 0.102856 0.0815948 0.0641804 0.0985216 0.0893136 0.0808214
31 2 Si -1.18003 9.02138 47.9309 2.4 1 0.371261 0.0662471 0.0656833 0.0519522 0.0419286 0.0621794 0.0718944 0.0745211 0.0701216 0.0660939 0.0593879 0.0667393 0.0675683 0.0810263 0.10152 0.0637863 0.0996321 0.0910328 0.104184 0.0861685
32 3 O -1.23224 10.5991 47.9811 -1.2 1 0.375274 0.0651045 0.0588759 0.0548074 0.0519592 0.0710973 0.0666446 0.0757959 0.0541357 0.086016 0.0690691 0.0632573 0.0743234 0.081471 0.0827935 0.0681886 0.0903662 0.0818936 0.0661521 0.0726502
33 3 O -1.79016 8.01447 51.8693 -1.2 1 0.11817 0.0614013 0.0289678 0.0246133 0.0351571 0.0436226 0.0588343 0.0572274 0.0602887 0.0526233 0.0505866 0.0523184 0.0667674 0.0824743 0.0843179 0.0726279 0.0691864 0.0521126 0.0738474 0.0676767
34 3 O -2.30986 8.37215 48.8528 -1.2 1 0.309889 0.0902778 0.0675494 0.0240237 0.0543517 0.0616916 0.0640298 0.0650237 0.0567847 0.0650796 0.0789341 0.0691879 0.0595138 0.0639376 0.0809685 0.0926353 0.0989529 0.0796828 0.0757037 0.0971413
35 1 Mg 0.154883 7.08234 46.8007 1.2 1 0.497267 0.036149 0.0756585 0.0386642 0.0646794 0.0750574 0.0588331 0.0677438 0.0703164 0.082644 0.0893868 0.0759287 0.0780677 0.0790939 0.0701156 0.0926127 0.0930399 0.107832 0.113227 0.100327
36 3 O 0.325447 8.50934 48.3809 -1.2 1 0.351517 0.0750329 0.0570831 0.0432774 0.0347885 0.0535051 0.0363564 0.055551 0.0618585 0.0648547 0.0743074 0.0643149 0.0751751 0.0887499 0.0897618 0.0696099 0.0898789 0.100307 0.086911 0.0891024
37 1 Mg 1.19685 7.25059 54.6528 1.2 1 0.0133442 0.0407409 0.0130577 0.0256327 0.0265173 0.0242565 0.0201946 0.0302686 0.042079 0.0536954 0.0619021 0.0500409 0.0600768 0.060157 0.0579221 0.0959163 0.0636534 0.0761494 0.0819984 0.0759122
38 2 Si 0.922456 9.78605 56.4634 2.4 1 0.0163854 0.0203901 0.0316462 0.0264682 0.0348284 0.0316121 0.0411715 0.0402753 0.0494417 0.0555037 0.0547676 0.0623626 0.0628095 0.0626458 0.0747927 0.0704712 0.0622808 0.0853121 0.0673306 0.059157
39 3 O 0.87647 8.23279 56.5555 -1.2 1 0.0280944 0.0114048 0.0181253 0.0180794 0.0250217 0.0256975 0.0278633 0.0574733 0.0404098 0.0475927 0.0420776 0.0588728 0.0585103 0.0641626 0.0728179 0.0639881 0.0682498 0.0747192 0.0571383 0.0755291
40 3 O 1.28624 10.7248 52.7351 -1.2 1 0.0735283 0.0410523 0.0338481 0.0226177 0.0279925 0.0457879 0.0488175 0.0500834 0.0462732 0.0488443 0.0517685 0.0493468 0.0567487 0.0661778 0.101178 0.0755151 0.0665866 0.0564376 0.0692266 0.062277
41 3 O -0.219405 10.5852 55.8098 -1.2 1 0.00534057 0.0156675 0.0277925 0.0170198 0.0224361 0.0164773 0.0406735 0.038816 0.0369957 0.0382858 0.0555696 0.0464626 0.0536435 0.042001 0.099784 0.0652447 0.0775119 0.0641364 0.0582854 0.0743504
42 3 O 2.24887 10.333 55.7281 -1.2 1 0.0195484 0.0111022 0.0239588 0.0171594 0.0211131 0.016777 0.0400358 0.0380337 0.0405921 0.0410573 0.0569779 0.0339741 0.052323 0.0681633 0.0800893 0.0742631 0.0807886 0.0679733 0.071746 0.0641974
43 1 Mg -0.262694 9.34741 52.2523 1.2 1 0.119946 0.064222 0.0179143 0.0394474 0.0301902 0.0419969 0.0400764 0.066081 0.024769 0.086355 0.0329575 0.0542102 0.0376396 0.0698734 0.0411115 0.105097 0.0507283 0.0974147 0.0459433 0.100916
44 1 Mg 1.87648 9.01537 49.4629 1.2 1 0.273596 0.0952204 0.0401928 0.0382814 0.0309328 0.0483669 0.0691126 0.0462339 0.0756545 0.0630788 0.0834927 0.0546148 0.0823895 0.063361 0.0850755 0.0926755 0.0870792 0.0957722 0.0838314 0.093489
45 2 Si 1.21415 11.3799 51.2378 2.4 1 0.138028 0.0852738 0.0366665 0.0317217 0.0414748 0.0470154 0.0548745 0.0444666 0.0541985 0.0652054 0.0743427 0.0709393 0.0792224 0.0709011 0.0910489 0.0900817 0.0776379 0.0816837 0.0770858 0.057163
46 3 O 1.31634 12.9512 51.3023 -1.2 1 0.144248 0.0761092 0.0243183 0.0302846 0.0321742 0.0433438 0.0414511 0.0663056 0.0571752 0.0685306 0.0440627 0.0782694 0.0660548 0.0660199 0.0748148 0.0674873 0.0776171 0.0735337 0.0694449 0.0714152
47 3 O 0.962568 10.4094 57.9609 -1.2 1 0.0147801 0.0240608 0.0248894 0.0152853 0.0180764 0.0311584 0.0276294 0.0498793 0.0529833 0.0449075 0.0429431 0.0493744 0.0527902 0.066147 0.0998688 0.0645593 0.0626626 0.064159 0.0605963 0.066278
48 3 O -0.115718 10.7564 50.681 -1.2 1 0.190968 0.0816651 0.0250578 0.0197127 0.0451543 0.0354043 0.0519279 0.0615072 0.051566 0.053931 0.0646705 0.0531914 0.0622556 0.0748609 0.0937427 0.0790199 0.0730987 0.0816771 0.0775252 0.0807167
49 1 Mg -3.26386 9.35564 52.3622 1.2 1 0.0852137 0.0562907 0.024755 0.030069 0.0145067 0.056781 0.0332668 0.0571642 0.0327137 0.0828484 0.0303562 0.0496811 0.0347878 0.0657512 0.0353851 0.114713 0.0439395 0.101811 0.0440654 0.088167
50 3 O 2.45216 10.7265 50.4558 -1.2 1 0.210239 0.0809789 0.0280905 0.0171068 0.0333661 0.059498 0.0565056 0.0414975 0.0564542 0.0692438 0.0659089 0.0668284 0.0494118 0.0654634 0.0928227 0.0790055 0.0709832 0.0727355 0.0567093 0.0845049
51 1 Mg -1.79269 9.54005 54.9099 1.2 1 0.029221 0.0208423 0.0240052 0.0294941 0.0122538 0.0237632 0.0302598 0.0298796 0.042708 0.0580995 0.0595819 0.0530649 0.0561462 0.069421 0.0592783 0.0953938 0.0642712 0.0875282 0.0602587 0.0919962
52 2 Si -1.75387 7.36026 53.4251 2.4 1 0.0557543 0.047677 0.0168383 0.0220997 0.0291804 0.0342736 0.0402987 0.0539646 0.0597891 0.0645733 0.0630421 0.0572414 0.0688169 0.0473916 0.0631476 0.0767101 0.0677185 0.0785561 0.0679882 0.0572221
53 3 O -1.8709 5.76164 53.3409 -1.2 1 0.0619436 0.0372696 0.0181477 0.0177461 0.0200605 0.0319331 0.0325993 0.0676073 0.0432505 0.0650984 0.0299126 0.0687838 0.059388 0.0707826 0.0623448 0.0631805 0.0646688 0.0593194 0.0703039 0.0646606
54 3 O -1.19417 8.46968 46.4488 -1.2 1 0.524908 0.0662788 0.0672954 0.051118 0.0662959 0.056571 0.0785049 0.0538046 0.0750539 0.0704743 0.0564777 0.0508781 0.0696098 0.0977945 0.129724 0.113137 0.0978584 0.0960749 0.0828402 0.0815288
55 3 O -3.11039 8.02378 54.0115 -1.2 1 0.0325169 0.0296292 0.0269932 0.0164023 0.0224453 0.0256294 0.0455327 0.0460131 0.0433721 0.0575098 0.0512951 0.0397521 0.0581733 0.0613049 0.0753371 0.0702664 0.0651265 0.071244 0.069607 0.0695986
56 3 O -0.500531 8.13163 54.0039 -1.2 1 0.0581513 0.0368809 0.0149427 0.0214508 0.0244339 0.0211659 0.0326619 0.0432561 0.0454264 0.0527046 0.0576054 0.0417086 0.0618721 0.0494161 0.0853858 0.0616116 0.0719736 0.073601 0.0631414 0.0776054
57 1 Mg -3.3518 16.3137 57.3335 1.2 1 0.0128629 0.0171517 0.0142868 0.0276113 0.0152766 0.0323542 0.0196435 0.0544666 0.024134 0.0780848 0.0267031 0.0498462 0.0191665 0.0670499 0.0339491 0.0987598 0.0359175 0.106323 0.0465965 0.0844732
58 1 Mg -1.6714 16.3544 49.8412 1.2 1 0.231678 0.0823572 0.024597 0.0398098 0.0305146 0.0508113 0.0511027 0.0560571 0.0487419 0.0598788 0.060547 0.0653972 0.0748808 0.0729141 0.103546 0.0849632 0.0753114 0.0956257 0.0851544 0.0862929
59 2 Si -1.18567 13.8526 47.9314 2.4 1 0.379291 0.0604533 0.0698928 0.0638321 0.0293974 0.0671155 0.0467867 0.0790054 0.0613043 0.0669594 0.0545551 0.0714138 0.0579388 0.0750602 0.0978124 0.0734581 0.102817 0.0954798 0.0894634 0.0910688
60 3 O -1.09664 15.4205 47.9915 -1.2 1 0.370403 0.0636891 0.0429136 0.0619647 0.0444455 0.0919562 0.0623942 0.0803997 0.055245 0.0884497 0.0559564 0.0753591 0.0610459 0.0788249 0.0792407 0.0724937 0.0925317 0.0754166 0.0735707 0.070011
61 3 O -1.73493 12.7491 51.7772 -1.2 1 0.118613 0.0584152 0.0310891 0.0264457 0.0355168 0.0477262 0.0623708 0.0518575 0.069859 0.0483153 0.0591688 0.0500038 0.0552729 0.0847013 0.0988038 0.0732693 0.0820248 0.0494741 0.072202 0.0752749
62 3 O -2.36115 13.2717 48.8238 -1.2 1 0.311944 0.0886877 0.056401 0.0299359 0.0549787 0.0442174 0.0554264 0.0709126 0.0635 0.0675276 0.0753769 0.0622603 0.0535406 0.0550561 0.0829606 0.0858857 0.085979 0.0779009 0.0855025 0.0893055
63 1 Mg -0.159928 11.7639 46.8533 1.2 1 0.482266 0.0248666 0.0776482 0.032826 0.0530383 0.0976995 0.0712253 0.0880019 0.0828903 0.0846562 0.0843177 0.0688624 0.0724798 0.0923702 0.0778251 0.0861048 0.096277 0.0968169 0.100302 0.107368
64 3 O 0.2623 13.1866 48.413 -1.2 1 0.35122 0.0674251 0.0476494 0.0408148 0.0443173 0.0552314 0.0410696 0.063125 0.0659765 0.0712268 0.0601884 0.0581416 0.0642422 0.0848365 0.0939252 0.0815643 0.0968346 0.09941 0.081964 0.0853358
65 1 Mg 1.32598 11.8362 54.5008 1.2 1 0.0139533 0.0274479 0.0129448 0.0288656 0.0153153 0.015452 0.0214836 0.0319099 0.0430328 0.0606823 0.0553342 0.0523838 0.0647705 0.0626831 0.0651762 0.0810697 0.074955 0.0844051 0.0777682 0.0688287
66 2 Si 1.05611 14.4136 56.2014 2.4 1 0.0110028 0.0132077 0.0185045 0.0186412 0.0335726 0.0266785 0.0369229 0.0434853 0.0427805 0.0571123 0.058695 0.0544982 0.0672224 0.0588855 0.0673671 0.0774407 0.0643455 0.0897194 0.0690166 0.0583031
67 3 O 1.10143 12.8972 56.5051 -1.2 1 0.0312037 0.0087244 0.0231618 0.0236396 0.02534 0.0313437 0.0213699 0.0647678 0.0408775 0.0469552 0.0425839 0.0635974 0.0574697 0.0683667 0.0687436 0.0667444 0.0617838 0.0756649 0.056841 0.0786947
68 3 O 1.36565 15.4813 52.729 -1.2 1 0.0795268 0.0430373 0.0262061 0.0203433 0.0216135 0.0464448 0.0440273 0.0563126 0.0526403 0.045489 0.044269 0.049184 0.0522722 0.0630756 0.10346 0.07105 0.068525 0.0584481 0.0673407 0.0581853
69 3 O -0.0849809 15.093 55.4669 -1.2 1 0.00787246 0.00676626 0.0183557 0.0203323 0.0203931 0.0262866 0.0392177 0.043858 0.0347275 0.0555719 0.0525633 0.0408267 0.0542682 0.0619318 0.0760673 0.0862462 0.0703321 0.0649903 0.0583309 0.0669929
70 3 O 2.44485 15.0302 55.5718 -1.2 1 0.0156828 0.020307 0.0230059 0.0138991 0.0163426 0.0202207 0.0440344 0.048712 0.0317824 0.050572 0.0526812 0.0343206 0.0564586 0.0700941 0.0683343 0.0834076 0.0734563 0.0711004 0.0725431 0.0608516
71 1 Mg -0.206989 14.1049 52.2121 1.2 1 0.101584 0.0673074 0.0271169 0.0428907 0.0271044 0.0456078 0.0331788 0.0735288 0.0268034 0.086743 0.0270747 0.0561046 0.0292789 0.0749526 0.032094 0.102872 0.0403736 0.107028 0.040212 0.105696
72 1 Mg 1.82591 13.8102 49.4556 1.2 1 0.272473 0.0992887 0.0377935 0.0372891 0.0313946 0.0363689 0.0649677 0.0440517 0.0692271 0.0756433 0.0785749 0.0584144 0.0690693 0.0673851 0.0827341 0.089266 0.0778801 0.0983309 0.0915981 0.0868468
73 2 Si 1.29285 16.1518 51.2434 2.4 1 0.136149 0.0844984 0.0353111 0.038843 0.0418834 0.0447884 0.0564978 0.0419344 0.055828 0.0703752 0.0676545 0.0696583 0.0718984 0.0644546 0.0926404 0.0877807 0.0750914 0.0884423 0.075469 0.0617681
74 3 O 1.39496 17.7199 51.3047 -1.2 1 0.142281 0.0760784 0.0231637 0.0345883 0.0341952 0.0422272 0.0421736 0.0676279 0.0524043 0.0617518 0.0452864 0.076906 0.0658892 0.0661275 0.0763757 0.0690321 0.0783288 0.0783503 0.0712722 0.0715651
75 3 O 1.1506 15.1576 57.7445 -1.2 1 0.0160771 0.017496 0.0146454 0.0195511 0.020022 0.0327971 0.0376217 0.0411518 0.0583261 0.0381659 0.0503658 0.0478654 0.0528515 0.0694194 0.101023 0.0727333 0.0725361 0.0513712 0.0818725 0.0606536
76 3 O -0.0269106 15.5178 50.6688 -1.2 1 0.179916 0.0870505 0.0228052 0.0251864 0.0421113 0.0434643 0.0533151 0.0666552 0.0545124 0.0555628 0.0609754 0.0475516 0.0643807 0.0794558 0.0950034 0.0811825 0.0754713 0.0813622 0.0724706 0.0877857
77 1 Mg -3.18391 14.1057 52.3125 1.2 1 0.0817991 0.0593307 0.0276403 0.0338426 0.0195962 0.0540981 0.0318072 0.0618849 0.0350053 0.0801772 0.037323 0.0505634 0.0272227 0.068323 0.0325531 0.107562 0.0435836 0.100445 0.0445221 0.0917363
78 3 O 2.52432 15.503 50.4579 -1.2 1 0.205431 0.086311 0.0241483 0.0155563 0.0400977 0.0538454 0.0564849 0.0471502 0.0511427 0.064457 0.0662213 0.0686561 0.0543799 0.0604269 0.0952001 0.0756089 0.0748824 0.0673461 0.0630695 0.0831799
79 1 Mg -1.8142 14.1718 55.1376 1.2 1 0.0267937 0.0160099 0.0221642 0.0306763 0.0142284 0.0238126 0.0255303 0.0338174 0.0394226 0.0551918 0.0578404 0.0576363 0.0607995 0.0571665 0.0673286 0.0739931 0.0790303 0.0907671 0.0692367 0.082144
80 2 Si -1.75162 12.0975 53.1783 2.4 1 0.0458696 0.0462606 0.0214442 0.0285683 0.0353046 0.0366507 0.0490725 0.0567564 0.0585453 0.0639367 0.0575047 0.0800274 0.0720685 0.0482902 0.0714377 0.0618515 0.0688676 0.0926832 0.0642166 0.0641873
81 3 O -1.81529 10.5016 53.1286 -1.2 1 0.0738419 0.0405293 0.0250046 0.0237389 0.0267053 0.0383404 0.0284174 0.0773354 0.0501806 0.058434 0.0497316 0.067575 0.0597802 0.0773216 0.072751 0.0669566 0.0503646 0.0637134 0.0626118 0.0810092
82 3 O -1.21337 13.3381 46.4311 -1.2 1 0.520084 0.0678511 0.0703317 0.0405915 0.0557393 0.0587899 0.0590339 0.0700606 0.0786422 0.0647427 0.0457227 0.0719148 0.06915 0.0881804 0.120124 0.113789 0.106743 0.100689 0.0597176 0.0913204
83 3 O -2.91382 12.6797 53.8884 -1.2 1 0.01734 0.0367972 0.0263329 0.0264504 0.0358977 0.0233179 0.0538826 0.0431885 0.0477781 0.052893 0.0517002 0.0451855 0.0551104 0.0728088 0.0715759 0.0748006 0.0657184 0.0631985 0.0735298 0.0769005
84 3 O -0.403848 12.7295 53.8581 -1.2 1 0.0468491 0.0360131 0.0197148 0.0201043 0.0192863 0.0201058 0.0398782 0.0501501 0.0456461 0.0562652 0.05479 0.0425775 0.0627465 0.066074 0.0920556 0.060349 0.0833604 0.0638408 0.0672615 0.0757181
85 1 Mg -3.11422 21.2807 57.4683 1.2 1 0.00926921 0.0177081 0.00616551 0.0308162 0.0118124 0.0320455 0.0123406 0.0553246 0.0183342 0.0753797 0.0219714 0.0545825 0.0189509 0.066921 0.0258513 0.0976647 0.0277422 0.110706 0.0365857 0.0962693
86 1 Mg -1.5831 21.1217 49.8405 1.2 1 0.230337 0.0828133 0.0250152 0.0437833 0.0323743 0.0524751 0.0500559 0.0560941 0.0509528 0.0617024 0.0644474 0.0651452 0.0736859 0.0745224 0.101679 0.082477 0.0738093 0.0939497 0.081188 0.0815704
87 2 Si -1.09384 18.6291 47.9287 2.4 1 0.373599 0.0690494 0.0769046 0.0621892 0.0331882 0.070509 0.0455198 0.0795669 0.064918 0.0691609 0.0528952 0.071779 0.0596384 0.0746728 0.0984136 0.0755917 0.105605 0.0941668 0.0905744 0.0909873
88 3 O -1.02071 20.1985 47.9911 -1.2 1 0.36757 0.0702725 0.0515188 0.0589565 0.0405275 0.0935785 0.0634144 0.0784871 0.053198 0.0888981 0.0528754 0.0735913 0.0611955 0.0809199 0.0812823 0.07582 0.0950417 0.078961 0.0747033 0.0731129
89 3 O -1.65002 17.5002 51.771 -1.2 1 0.109282 0.0614628 0.0328003 0.0270143 0.0347583 0.0528863 0.0592288 0.0503274 0.066765 0.0507284 0.0579319 0.049382 0.0483283 0.0856183 0.0999883 0.0778209 0.0795546 0.0449383 0.0742037 0.0727209
90 3 O -2.26174 18.0434 48.8281 -1.2 1 0.313137 0.0818947 0.048878 0.0379952 0.054809 0.0462925 0.0605435 0.0737546 0.0608077 0.0680676 0.068965 0.0580102 0.0511357 0.0615682 0.0790553 0.0852476 0.0861921 0.0805597 0.087091 0.0868319
91 1 Mg -0.0440435 16.5651 46.8269 1.2 1 0.484246 0.0200732 0.07959 0.0294582 0.0620533 0.085231 0.0741815 0.0817668 0.0702441 0.0840976 0.0839679 0.0631957 0.0659019 0.0797466 0.0772241 0.0937774 0.0954511 0.0978874 0.0996955 0.105793
92 3 O 0.37001 17.9877 48.3925 -1.2 1 0.34097 0.0840257 0.0594774 0.0407036 0.0444937 0.0604308 0.0428772 0.0674642 0.0659629 0.074278 0.0600344 0.0562595 0.0661894 0.0860432 0.0928272 0.0767918 0.0948417 0.102285 0.0831584 0.0894359
93 1 Mg 1.29853 16.5642 54.5929 1.2 1 0.00753347 0.0227934 0.0165025 0.0295799 0.00826305 0.0188685 0.0200021 0.0326412 0.0517769 0.0592733 0.0588596 0.0522194 0.0581578 0.0648547 0.060051 0.0921016 0.0725906 0.0807143 0.068697 0.0853543
94 2 Si 1.23308 19.1648 56.3299 2.4 1 0.0167987 0.0220022 0.0111075 0.0236275 0.0335957 0.0286189 0.0413717 0.0432728 0.0470912 0.0655462 0.0527073 0.055138 0.0722983 0.0499793 0.0740423 0.077653 0.0592195 0.0890547 0.0571122 0.057242
95 3 O 1.23618 17.5587 56.3781 -1.2 1 0.0130358 0.00766185 0.0100023 0.0277119 0.0251144 0.0246395 0.0253347 0.0745337 0.0338678 0.0492375 0.044529 0.0620518 0.0529148 0.0679127 0.0724499 0.0686302 0.0512687 0.0702323 0.0713798 0.0698343
96 3 O 1.45147 20.239 52.7294 -1.2 1 0.0712748 0.0423904 0.0311314 0.0256545 0.0204501 0.0468971 0.0455511 0.0573093 0.0554075 0.0452382 0.047036 0.0481541 0.0569082 0.0653087 0.103393 0.067797 0.0711339 0.06018 0.0705646 0.0653472
97 3 O -0.105643 19.8697 55.963 -1.2 1 0.0103419 0.0223089 0.0274998 0.0186376 0.0215699 0.0181463 0.0331684 0.0440585 0.0491121 0.0389955 0.0469026 0.0519244 0.0505466 0.0635606 0.0875828 0.0726864 0.0733016 0.070474 0.06666 0.0699292
98 3 O 2.37658 19.7687 55.4667 -1.2 1 0.0205148 0.0243603 0.0266301 0.0158952 0.0227905 0.0296217 0.0366389 0.0481617 0.0435556 0.0515617 0.0507899 0.0425773 0.0534572 0.0648256 0.0789994 0.0720147 0.0712747 0.081807 0.0565299 0.0671452
99 1 Mg -0.126194 18.8651 52.2079 1.2 1 0.100604 0.0699206 0.023266 0.0437088 0.0292541 0.0421376 0.0359075 0.0715786 0.0263876 0.0896652 0.0208568 0.054976 0.0280967 0.0768865 0.0290377 0.105041 0.0450818 0.103626 0.037915 0.104502
100 1 Mg 1.92402 18.5815 49.4545 1.2 1 0.269894 0.0994699 0.0391559 0.0388645 0.0336574 0.0304603 0.0671666 0.0500997 0.0707301 0.0781095 0.0833368 0.0561973 0.0719306 0.0696121 0.0835999 0.0923134 0.0777846 0.0991584 0.0884339 0.0868981
101 2 Si 1.38106 20.9117 51.2443 2.4 1 0.131814 0.0853658 0.0398415 0.0411769 0.0389232 0.0478501 0.0554979 0.0408362 0.0546498 0.0711179 0.0690721 0.072099 0.0709832 0.0671929 0.094165 0.0829601 0.0780868 0.0867462 0.0736591 0.0623604
102 3 O 1.48527 22.4795 51.3054 -1.2 1 0.143075 0.0715305 0.0323247 0.0416602 0.0329144 0.0407327 0.0443588 0.0674344 0.0548826 0.0625078 0.0473009 0.0755568 0.0717554 0.0667116 0.0741209 0.0642049 0.071318 0.0788595 0.0677886 0.0729886
103 3 O 1.54354 19.7619 57.95 -1.2 1 0.011007 0.0144089 0.0174625 0.0312371 0.0214734 0.0356505 0.0246942 0.0400161 0.054498 0.0453566 0.0356483 0.0385015 0.063358 0.0652666 0.0958775 0.0723263 0.0604291 0.064028 0.0656277 0.062111
104 3 O 0.0615419 20.2804 50.6669 -1.2 1 0.183709 0.0886707 0.0173209 0.0245895 0.0465759 0.0372959 0.0556142 0.0625583 0.054399 0.0589841 0.0622126 0.0501876 0.0645111 0.0710104 0.0912 0.0737482 0.0727918 0.0829214 0.0725945 0.0836026
105 1 Mg -3.09665 18.8643 52.3122 1.2 1 0.0753732 0.0597914 0.0290756 0.0302517 0.0162633 0.0561776 0.0327166 0.0646855 0.0303496 0.0779177 0.0327153 0.0500154 0.0262189 0.072604 0.0350159 0.109514 0.0474313 0.106411 0.0420469 0.083129
106 3 O 2.61548 20.2646 50.4626 -1.2 1 0.202634 0.0925674 0.0292536 0.0201054 0.038965 0.0528938 0.0589702 0.0474941 0.0529974 0.0665758 0.0606867 0.0691586 0.0524395 0.0602943 0.0949279 0.0747585 0.0762902 0.0633389 0.064219 0.0882649
107 1 Mg -1.75124 18.9226 55.0214 1.2 1 0.0188718 0.0142969 0.0179518 0.0281838 0.0163012 0.018699 0.0225188 0.0321924 0.040093 0.0600372 0.0574809 0.0536742 0.0597379 0.0681302 0.0630899 0.0768163 0.0714793 0.096275 0.069854 0.0888235
108 2 Si -1.70172 16.811 53.1556 2.4 1 0.0432575 0.04515 0.0258273 0.0272239 0.0369261 0.0407824 0.0524427 0.0535961 0.0535553 0.0614523 0.0594006 0.0737232 0.0778754 0.0517867 0.0791825 0.0576327 0.0730998 0.0914278 0.0635882 0.0583317
109 3 O -1.75406 15.2736 53.1056 -1.2 1 0.0706918 0.0412893 0.0238366 0.0197009 0.0341751 0.0361409 0.0333484 0.0711727 0.0453556 0.0578994 0.0429015 0.070096 0.0604323 0.0770835 0.0698775 0.0642144 0.0526825 0.0739605 0.0660154 0.0789232
110 3 O -1.12868 18.1227 46.4249 -1.2 1 0.52202 0.0666928 0.073083 0.0520152 0.0573996 0.0655912 0.0618769 0.0793011 0.0791938 0.0616537 0.0447907 0.068124 0.0677941 0.0875551 0.116515 0.115037 0.107319 0.10086 0.0626867 0.0927571
111 3 O -2.92071 17.4854 53.7576 -1.2 1 0.0468701 0.0254815 0.0378789 0.0214152 0.0178935 0.0305706 0.0523796 0.0414502 0.0425757 0.0493895 0.0495722 0.0503302 0.0520797 0.0623312 0.0776324 0.0619866 0.0691856 0.0541172 0.0799145 0.073694
112 3 O -0.368019 17.4714 53.8273 -1.2 1 0.0440702 0.021816 0.035648 0.0207855 0.0285599 0.0221276 0.0413167 0.0548333 0.0525187 0.054422 0.0541978 0.0435616 0.0582047 0.0706243 0.0932483 0.0618855 0.0896378 0.0658796 0.0770096 0.076436
113 1 Mg -2.88984 26.0903 57.2777 1.2 1 0.0219815 0.0154125 0.0150358 0.0346913 0.0140194 0.0331618 0.0179716 0.0575322 0.0273208 0.0825007 0.0258809 0.0479583 0.0283688 0.0635169 0.0324038 0.0991784 0.0454348 0.106424 0.0493814 0.0859144
114 1 Mg -1.48778 25.88 49.8402 1.2 1 0.229182 0.0831115 0.0206235 0.043009 0.0296931 0.0497696 0.0552035 0.0536759 0.0517051 0.0585192 0.0623596 0.0678632 0.0743308 0.0736613 0.10026 0.0808768 0.0741773 0.0965419 0.0842567 0.0823017
115 2 Si -1.00491 23.3922 47.9274 2.4 1 0.372864 0.0648137 0.0636622 0.0728304 0.0304015 0.0744605 0.0423939 0.0828621 0.0683674 0.0734353 0.0516005 0.0753089 0.0585966 0.074725 0.0947008 0.0756878 0.102983 0.0949699 0.0880871 0.093593
116 3 O -0.927602 24.9615 47.9909 -1.2 1 0.3634 0.0752046 0.0551605 0.059928 0.0417678 0.0920348 0.0608887 0.0795887 0.0504463 0.0872514 0.0515765 0.0713702 0.0592054 0.0833204 0.0835974 0.0740677 0.0936644 0.0781669 0.0748898 0.0742622
117 3 O -1.55795 22.2588 51.7696 -1.2 1 0.109868 0.0596107 0.0341217 0.0283842 0.0343766 0.0532834 0.0580777 0.0510438 0.0669199 0.0509729 0.0588847 0.0469048 0.0491821 0.085837 0.0999356 0.0750305 0.0822096 0.0446822 0.0732558 0.0735186
118 3 O -2.17411 22.8111 48.8277 -1.2 1 0.30165 0.0961243 0.0577005 0.0300753 0.0590097 0.0484407 0.0565023 0.0728577 0.0611049 0.0687494 0.0717812 0.0612296 0.0563452 0.0592407 0.0800519 0.0866013 0.0885472 0.0802872 0.0852207 0.0894334
119 1 Mg 0.0423997 21.3296 46.8225 1.2 1 0.484565 0.0201483 0.0792264 0.0299657 0.0620588 0.0853127 0.0735697 0.0822065 0.0701394 0.0831695 0.0838211 0.0631735 0.0654793 0.0792888 0.0764885 0.0937379 0.0974792 0.0999235 0.100529 0.106313
120 3 O 0.458537 22.7495 48.3911 -1.2 1 0.350374 0.0740766 0.0568785 0.0339598 0.0476412 0.0599319 0.0403596 0.0637484 0.0649768 0.0743389 0.0631804 0.0584725 0.0657227 0.0848492 0.0945743 0.0799888 0.094354 0.101351 0.0761845 0.0875565
121 1 Mg 1.51815 21.3179 54.4995 1.2 1 0.00887993 0.0228334 0.0127744 0.0281412 0.0165348 0.0190667 0.0286195 0.0333946 0.0422102 0.0590305 0.0596599 0.0571749 0.0640719 0.0663892 0.0680523 0.079492 0.0751092 0.0884514 0.0787917 0.0763063
122 2 Si 1.47934 23.9074 56.3463 2.4 1 0.0182846 0.0193724 0.0152478 0.0253782 0.0326964 0.0313112 0.0410956 0.0402156 0.0449203 0.0553953 0.0475714 0.0636186 0.071819 0.0514374 0.0755856 0.0712667 0.0652195 0.0944801 0.0585189 0.0551955
123 3 O 1.37528 22.3063 56.4652 -1.2 1 0.0309911 0.0145399 0.014881 0.0225932 0.0187751 0.0275523 0.019552 0.0595349 0.0358965 0.0591141 0.0432636 0.0657944 0.0517915 0.0623604 0.0806171 0.0652982 0.0558392 0.0693741 0.0612177 0.0794355
124 3 O 1.54441 24.9963 52.7297 -1.2 1 0.0741107 0.0428568 0.0264975 0.0219481 0.0213815 0.045058 0.0496004 0.0526939 0.0530191 0.0469992 0.0447588 0.0513123 0.0563485 0.0679376 0.103464 0.071407 0.0674438 0.0621344 0.0709429 0.0566316
125 3 O 0.136542 24.5216 55.7567 -1.2 1 0.00472491 0.00907849 0.0363883 0.0192635 0.0169645 0.0247612 0.0415609 0.0400763 0.0367903 0.0519751 0.0507602 0.0382721 0.0508652 0.0656787 0.0786002 0.0778934 0.0752279 0.0567216 0.0605213 0.0702165
126 3 O 2.70385 24.7688 55.7231 -1.2 1 0.0136126 0.0107871 0.025611 0.0233825 0.0278762 0.0216756 0.0510052 0.0419717 0.0395668 0.0394261 0.055576 0.0367497 0.0558598 0.05067 0.0893594 0.0675223 0.0778725 0.072624 0.055572 0.0566802