ITEM: TIMESTEP
15200
ITEM: NUMBER OF ATOMS
10500
ITEM: BOX BOUNDS xy xz yz pp pp pp
0	8.9688	2.9896
0	118.725	0
0	252.977	0
ITEM: ATOMS id type element xu yu zu q Q_1 Q_2 Q_3 Q_4 Q_5 Q_6 Q_7 Q_8 Q_9 Q_10 Q_11 Q_12 Q_13 Q_14 Q_15 Q_16 Q_17 Q_18 Q_19 Q_20 Q_21
1 1 Mg -3.34751 6.94386 57.4044 1.2 1 0.0092338 0.0122499 0.00658509 0.0275733 0.0077472 0.0281261 0.012564 0.0553592 0.0110561 0.0804501 0.0179482 0.0512574 0.0151105 0.071044 0.0194342 0.102049 0.0205011 0.111183 0.0271902 0.0967372
2 1 Mg -1.82655 6.90154 50.0912 1.2 1 0.222716 0.0850342 0.0297832 0.0327815 0.0263809 0.0536972 0.0485738 0.0444224 0.0546864 0.0672173 0.0555193 0.0735519 0.0678073 0.0608132 0.0930312 0.0589309 0.0882455 0.101408 0.0754877 0.0812088
3 2 Si -0.257935 3.96038 48.0876 2.4 1 0.371859 0.0728443 0.0744673 0.0359345 0.0610961 0.0520192 0.0739088 0.0765396 0.0559215 0.077223 0.0563708 0.0685205 0.0628969 0.0854441 0.0972463 0.100333 0.109583 0.0900616 0.0686988 0.0730168
4 3 O -0.335812 5.46814 47.6264 -1.2 1 0.42708 0.0394537 0.0649231 0.0306788 0.0407122 0.0492482 0.0655265 0.0698179 0.0868634 0.0752431 0.0912475 0.0751121 0.0697212 0.0673073 0.0919056 0.125758 0.0956232 0.0801913 0.0744085 0.0775983
5 3 O -2.03793 3.43377 51.8941 -1.2 1 0.113553 0.060968 0.0261975 0.0214377 0.0214356 0.0505632 0.0587074 0.0499299 0.0479416 0.0563358 0.0655426 0.0532781 0.0484699 0.0755485 0.0883387 0.0845533 0.0689438 0.0559891 0.072537 0.0672723
6 3 O -1.54015 3.53929 48.9521 -1.2 1 0.299969 0.0910403 0.0326228 0.0470306 0.0352102 0.0482955 0.0680809 0.0512827 0.0543953 0.0611058 0.0780197 0.0662484 0.0707163 0.0695885 0.0740974 0.110149 0.0810901 0.0768436 0.07474 0.0888453
7 1 Mg 1.82954 2.54582 47.1376 1.2 1 0.466161 0.0218659 0.0799194 0.0498942 0.0353334 0.0830715 0.0600924 0.0582764 0.0761892 0.0891929 0.069274 0.0769243 0.0822988 0.0854199 0.0697884 0.0966273 0.102284 0.104463 0.106313 0.100367
8 3 O 1.22989 3.66364 48.7877 -1.2 1 0.318325 0.0736514 0.0212431 0.0468829 0.0322797 0.0644834 0.0788365 0.0336221 0.0830775 0.0790017 0.0527483 0.0780281 0.0830852 0.0675691 0.0665316 0.0878969 0.0919401 0.0896464 0.0948841 0.09256
9 1 Mg 0.920185 2.1716 54.5362 1.2 1 0.00864708 0.0191865 0.0151892 0.0336315 0.0236895 0.0301868 0.0211758 0.034992 0.0423044 0.0631719 0.056144 0.0512875 0.0598401 0.0699974 0.0651635 0.0706307 0.0647452 0.0958634 0.0729104 0.0776482
10 2 Si 1.04847 4.95883 56.3889 2.4 1 0.0174969 0.0192014 0.0266582 0.0265636 0.0263858 0.0253285 0.0398492 0.0477098 0.0490649 0.054408 0.0549565 0.062698 0.0632608 0.0558836 0.0817098 0.0706984 0.059707 0.0969098 0.0533654 0.0612411
11 3 O 0.992535 3.44395 56.5075 -1.2 1 0.020312 0.0170154 0.0101432 0.0278983 0.0237793 0.0241838 0.0191991 0.0581127 0.0354131 0.0509489 0.03803 0.0672717 0.0521063 0.0582058 0.0656314 0.0702724 0.0558302 0.0728333 0.0611494 0.0740586
12 3 O 1.10813 6.07342 52.8172 -1.2 1 0.0782302 0.0512734 0.0260664 0.0172477 0.0235625 0.0459614 0.0425188 0.0541211 0.0528258 0.0410632 0.0552118 0.0506077 0.0653505 0.072229 0.0857622 0.0860133 0.0591119 0.0662983 0.0689353 0.0687201
13 3 O -0.256183 5.66282 55.7938 -1.2 1 0.0117046 0.0103646 0.0229625 0.0264057 0.0222156 0.0135882 0.0437137 0.0391752 0.042977 0.0480204 0.055178 0.0398408 0.0535008 0.0574822 0.0885709 0.0746707 0.0700706 0.0652926 0.0637034 0.068895
14 3 O 2.32307 5.73827 55.7789 -1.2 1 0.0125526 0.0151474 0.031622 0.018783 0.0243466 0.0170724 0.0414738 0.0484892 0.03752 0.039425 0.052325 0.0411857 0.0512671 0.0598441 0.0888866 0.0680769 0.0801334 0.0674215 0.0632232 0.0592721
15 1 Mg -0.459401 4.67631 52.2426 1.2 1 0.09089 0.0686583 0.032668 0.0419029 0.0288623 0.0308859 0.0413182 0.0595547 0.0416545 0.078159 0.0441621 0.0612974 0.0490807 0.0716796 0.0432197 0.103584 0.0542459 0.0885267 0.0595893 0.0876261
16 1 Mg 2.79456 3.9971 49.9987 1.2 1 0.226488 0.0901962 0.0310737 0.0380327 0.040664 0.0628785 0.0553919 0.054925 0.0796515 0.0602964 0.0607548 0.0575859 0.0638452 0.0717863 0.0864791 0.0798508 0.072427 0.0891848 0.0830551 0.0725039
17 2 Si 1.16169 6.59457 51.2556 2.4 1 0.139815 0.0885389 0.0357508 0.0334683 0.0438604 0.0490755 0.0476296 0.0444993 0.058789 0.064327 0.0666762 0.0762504 0.0730291 0.0682062 0.0875962 0.0903728 0.0789588 0.0900238 0.0716047 0.0662308
18 3 O 1.28989 8.18905 51.2909 -1.2 1 0.138455 0.0905424 0.0217033 0.0372148 0.0355042 0.046734 0.0411598 0.0731384 0.051802 0.0689706 0.0430718 0.0908442 0.0711754 0.0630835 0.0797921 0.0736613 0.0747381 0.0678233 0.0697578 0.0691351
19 3 O 1.06797 5.65753 57.9714 -1.2 1 0.0163861 0.0155004 0.0228077 0.0157438 0.0223171 0.0327703 0.0303021 0.0434849 0.0518144 0.0449243 0.0374265 0.0479828 0.0486722 0.0647729 0.103663 0.0640934 0.0681915 0.0513566 0.0694198 0.0659204
20 3 O -0.184847 6.06029 50.6845 -1.2 1 0.18824 0.0824074 0.0217066 0.0268837 0.0385056 0.0318305 0.0469645 0.0586249 0.0585631 0.059555 0.0613473 0.0768983 0.0653154 0.0588532 0.0851828 0.069516 0.0826481 0.0753451 0.0622285 0.0778955
21 1 Mg -3.49704 4.67769 52.6661 1.2 1 0.0639778 0.0570059 0.0224976 0.0250837 0.0140228 0.0399784 0.0368558 0.058004 0.0512488 0.0705949 0.0487941 0.0482246 0.0502284 0.0477494 0.0593267 0.083259 0.088261 0.0774131 0.0738772 0.0737659
22 3 O 2.48581 5.93312 50.6539 -1.2 1 0.188388 0.093577 0.033996 0.0219747 0.0332726 0.0506583 0.0600314 0.0593469 0.0449688 0.0700434 0.0477062 0.0664761 0.0552678 0.0633017 0.10402 0.0676859 0.0770322 0.0670379 0.0762458 0.0760283
23 1 Mg -1.90226 4.76713 55.1902 1.2 1 0.0288649 0.0204247 0.0212601 0.0256694 0.0176192 0.0191904 0.0222474 0.0370601 0.0379388 0.0519956 0.060077 0.0527437 0.0577202 0.0588847 0.0574392 0.0759612 0.0836779 0.0879723 0.0708623 0.0780621
24 2 Si -1.93933 2.62245 53.2866 2.4 1 0.0383684 0.0381208 0.0273115 0.0226963 0.0223188 0.0263868 0.0446738 0.0444176 0.0628346 0.0699817 0.0582919 0.0667374 0.0766591 0.0503118 0.0696072 0.0548707 0.0703917 0.0900229 0.0768414 0.0628946
25 3 O -1.94081 1.07066 53.2277 -1.2 1 0.0611039 0.0321919 0.0248027 0.0257687 0.0220856 0.0348714 0.0293063 0.0627577 0.05816 0.0639361 0.0499568 0.0652305 0.058901 0.0709442 0.0731621 0.0705323 0.0552659 0.0604769 0.0728208 0.069613
26 3 O -0.0467762 2.97103 46.8385 -1.2 1 0.497759 0.0373937 0.0877129 0.0291919 0.0798394 0.0674128 0.0808834 0.0719807 0.0727433 0.0795075 0.0820419 0.0756261 0.0964009 0.0879709 0.0886188 0.0889198 0.099488 0.0977687 0.106057 0.111624
27 3 O -3.201 3.34234 54.0817 -1.2 1 0.0350846 0.0256659 0.0250768 0.0204201 0.024775 0.0236196 0.0363381 0.038999 0.0531794 0.0490838 0.0642672 0.0449112 0.0579695 0.0560614 0.0785451 0.0638118 0.0670041 0.06891 0.0673812 0.0622199
28 3 O -0.650623 3.2582 54.0667 -1.2 1 0.0322528 0.0212068 0.033921 0.0151193 0.0207617 0.0276992 0.0441795 0.0406758 0.0429067 0.0561003 0.0631773 0.0442216 0.0533465 0.0774629 0.0759187 0.06868 0.0747375 0.0731444 0.0634153 0.0622133
29 1 Mg -3.25901 11.6865 57.4238 1.2 1 0.00797843 0.012596 0.00276036 0.0297616 0.00189042 0.0349759 0.00595561 0.0572536 0.00834557 0.0868732 0.0104176 0.0518162 0.0118662 0.074186 0.012645 0.101613 0.0145969 0.115822 0.018704 0.0999904
30 1 Mg -1.75014 11.5838 49.8362 1.2 1 0.229932 0.0816458 0.0273351 0.040433 0.0295824 0.0554273 0.0489009 0.0560103 0.0461012 0.0591266 0.0662275 0.060823 0.0721799 0.0720772 0.109703 0.0887252 0.0653242 0.0946484 0.085841 0.0801379
31 2 Si -1.18003 9.02138 47.9309 2.4 1 0.371103 0.0665496 0.0662556 0.0516009 0.0424504 0.0624434 0.072061 0.0756011 0.0705389 0.0655557 0.0582359 0.0663609 0.0679401 0.0808355 0.10087 0.0648093 0.100432 0.0912285 0.103337 0.0858076
32 3 O -1.23224 10.5991 47.9811 -1.2 1 0.379462 0.0589714 0.0552618 0.0567785 0.0506957 0.0700611 0.0676885 0.0774278 0.0590442 0.0875243 0.0710181 0.0647784 0.0722099 0.0792911 0.0821292 0.0684403 0.088324 0.0796764 0.0661369 0.0724116
33 3 O -1.79016 8.01447 51.8693 -1.2 1 0.113069 0.0624436 0.0329661 0.0301833 0.0311762 0.0471483 0.0594517 0.0564969 0.0572236 0.0536979 0.0508058 0.0530159 0.0654162 0.0859245 0.0886702 0.0738388 0.0747087 0.0546 0.0724835 0.0682633
34 3 O -2.30986 8.37215 48.8528 -1.2 1 0.311559 0.0880936 0.0675199 0.024751 0.0538565 0.0614012 0.0674593 0.0661033 0.0573606 0.0658894 0.0800257 0.0667152 0.0556202 0.0649547 0.0796534 0.0912097 0.0980404 0.0800328 0.0754679 0.0941512
35 1 Mg 0.154883 7.08234 46.8007 1.2 1 0.497339 0.036384 0.0754684 0.0387028 0.0648455 0.0754938 0.0593764 0.06783 0.0706504 0.0829162 0.0891912 0.0760298 0.0788392 0.0797591 0.0701093 0.0919778 0.0925743 0.108275 0.113838 0.100462
36 3 O 0.325447 8.50934 48.3809 -1.2 1 0.349506 0.077169 0.0624729 0.043532 0.0353178 0.0505515 0.0394425 0.0583976 0.0615029 0.0662015 0.0736712 0.0626839 0.0798281 0.0935095 0.0898824 0.0681736 0.0923186 0.101574 0.0850498 0.0872318
37 1 Mg 1.15931 7.1282 54.6184 1.2 1 0.0138814 0.0340509 0.0125512 0.0322667 0.0142289 0.0262302 0.0201893 0.0338465 0.0401785 0.0603765 0.0636865 0.0548932 0.05061 0.0646138 0.0574901 0.0920398 0.0654825 0.0816878 0.0817879 0.0804497
38 2 Si 1.16801 9.76076 56.4621 2.4 1 0.0229554 0.0182676 0.0228664 0.0222855 0.028937 0.0315318 0.0421054 0.0410798 0.0528178 0.0507817 0.0509846 0.0699336 0.0655579 0.0589447 0.0779091 0.0709442 0.0551021 0.0932943 0.0593496 0.0568091
39 3 O 1.19622 8.18747 56.5569 -1.2 1 0.0274564 0.00983922 0.0171137 0.0200237 0.0256642 0.0273199 0.0241016 0.0659442 0.041546 0.0494724 0.0419772 0.0666271 0.0581969 0.0632558 0.0747759 0.0653467 0.0610044 0.0733303 0.0531035 0.0785861
40 3 O 1.28624 10.7248 52.7351 -1.2 1 0.0729778 0.0460287 0.0275882 0.0203288 0.0284226 0.0433411 0.0551738 0.0484529 0.0480931 0.0454385 0.0480266 0.0439493 0.0567568 0.0691814 0.101621 0.0813517 0.0683692 0.0523242 0.07055 0.0583421
41 3 O -0.104509 10.3957 55.8283 -1.2 1 0.00808074 0.00894131 0.0292217 0.0210253 0.0185907 0.0235581 0.0401987 0.043852 0.0347447 0.0465453 0.0538256 0.0457473 0.0536579 0.0543873 0.0864564 0.0742243 0.0741939 0.0538187 0.0641071 0.0714572
42 3 O 2.45466 10.405 55.7284 -1.2 1 0.0117747 0.00665409 0.0242747 0.0172137 0.0231716 0.0215358 0.0450129 0.0391625 0.0384057 0.0477415 0.0530443 0.0421763 0.058376 0.0585278 0.0854014 0.0745155 0.069946 0.0704441 0.0639957 0.0643261
43 1 Mg -0.262694 9.34741 52.2523 1.2 1 0.114923 0.0640613 0.0192701 0.0416219 0.0333994 0.0430063 0.0351075 0.0730615 0.0267988 0.0875939 0.0268396 0.0584047 0.0383658 0.0721834 0.0407197 0.104485 0.0510832 0.0938987 0.047977 0.103907
44 1 Mg 1.87648 9.01537 49.4629 1.2 1 0.270291 0.0975612 0.0395231 0.0379884 0.0340863 0.0490899 0.0690044 0.0467416 0.0761749 0.0625956 0.0827763 0.0529696 0.0845373 0.0668658 0.0855524 0.0949819 0.0874732 0.0951059 0.0844872 0.0913035
45 2 Si 1.21415 11.3799 51.2378 2.4 1 0.132026 0.0872772 0.0412868 0.0387117 0.0427093 0.0497008 0.0546939 0.040017 0.0554815 0.0661846 0.0751774 0.0721311 0.0781468 0.0691801 0.0932607 0.090216 0.0782571 0.0822905 0.0777894 0.056736
46 3 O 1.31634 12.9512 51.3023 -1.2 1 0.139965 0.0789453 0.0241466 0.0322202 0.0299436 0.0442479 0.0426486 0.071198 0.0506465 0.0659818 0.0462476 0.0802539 0.0674048 0.0671727 0.0733199 0.0683474 0.0757432 0.0721813 0.0704184 0.0700473
47 3 O 1.20632 10.4113 57.9169 -1.2 1 0.0119365 0.0179269 0.0275689 0.0150161 0.0193588 0.037739 0.0327512 0.0459976 0.0505845 0.0455542 0.0383892 0.0465233 0.0497494 0.0651214 0.1058 0.0662303 0.0688908 0.0498666 0.0735922 0.0641091
48 3 O -0.115718 10.7564 50.681 -1.2 1 0.19015 0.0815824 0.0261499 0.0187381 0.0453398 0.0360662 0.0491768 0.065044 0.0519729 0.058817 0.0598121 0.0514694 0.0612873 0.0748668 0.0933501 0.0822758 0.0738815 0.0773171 0.0756476 0.0813833
49 1 Mg -3.26386 9.35564 52.3622 1.2 1 0.0812953 0.0559847 0.0263559 0.0312229 0.0154386 0.0554264 0.0333159 0.0594345 0.029879 0.0842327 0.0314716 0.0509132 0.0356259 0.0639684 0.0366483 0.112877 0.0458906 0.103446 0.0520103 0.0891373
50 3 O 2.45216 10.7265 50.4558 -1.2 1 0.202871 0.0879485 0.0202742 0.0154257 0.0376619 0.0515885 0.0604772 0.0507748 0.0567097 0.068682 0.0626758 0.0742031 0.0525706 0.0657745 0.0976659 0.0827142 0.0745559 0.0749181 0.057561 0.085594
51 1 Mg -1.8034 9.56003 55.1334 1.2 1 0.0188855 0.0116668 0.0235883 0.0290568 0.0153874 0.0260814 0.0253202 0.0355444 0.0375762 0.0559418 0.0644246 0.0571969 0.0634354 0.0662431 0.0651138 0.0789064 0.0742206 0.0846556 0.0782661 0.0791987
52 2 Si -1.7987 7.37898 53.4067 2.4 1 0.0519243 0.0389688 0.0244227 0.0280312 0.0356902 0.028101 0.0452565 0.055967 0.0595376 0.0632729 0.0595456 0.0620711 0.0729161 0.0500769 0.0644928 0.0697684 0.0701056 0.0872377 0.0653221 0.0587693
53 3 O -1.93484 5.79112 53.342 -1.2 1 0.0586257 0.0341228 0.0243647 0.0132298 0.020227 0.0331453 0.0358994 0.069495 0.0504841 0.0646107 0.0391315 0.0729242 0.0568067 0.0762552 0.0605315 0.0654025 0.0576238 0.0534594 0.0745348 0.0645532
54 3 O -1.19417 8.46968 46.4488 -1.2 1 0.524929 0.0663031 0.0671298 0.0511422 0.0664905 0.0566099 0.0784796 0.0540837 0.0754523 0.0709828 0.0571827 0.0514299 0.0696649 0.0978785 0.130018 0.113391 0.097644 0.0958076 0.083222 0.0824144
55 3 O -3.06315 8.01885 54.0445 -1.2 1 0.0311068 0.0239256 0.0263395 0.024075 0.0235337 0.0285832 0.0478158 0.0445225 0.0443176 0.05244 0.0529308 0.0431636 0.0587588 0.0630799 0.0794376 0.0685349 0.0661692 0.063778 0.0655959 0.0705381
56 3 O -0.500099 8.12202 53.9312 -1.2 1 0.0542674 0.0283209 0.0286682 0.0277955 0.0322946 0.0207531 0.0409275 0.0496732 0.0393474 0.0513131 0.0607271 0.0482135 0.0599287 0.0545089 0.0907027 0.0546565 0.0774397 0.0688175 0.0724209 0.0696163
57 1 Mg -3.11075 16.4853 57.4258 1.2 1 0.0047879 0.0186589 0.00365621 0.03023 0.0042273 0.0325415 0.00428667 0.0555198 0.00633934 0.0839271 0.0087605 0.0521757 0.00897896 0.071847 0.0136214 0.0985544 0.016052 0.119574 0.0147398 0.105344
58 1 Mg -1.6714 16.3544 49.8412 1.2 1 0.229236 0.0826389 0.025694 0.0430057 0.0292133 0.0533768 0.0539334 0.0535491 0.0476739 0.0618103 0.0621224 0.0639497 0.0746489 0.0758772 0.105729 0.0842374 0.0739449 0.0945752 0.0834808 0.084723
59 2 Si -1.18567 13.8526 47.9314 2.4 1 0.374293 0.0678803 0.0770002 0.0608377 0.0324683 0.0688026 0.0473328 0.0797223 0.0627718 0.066631 0.0527795 0.0717955 0.0589574 0.0755803 0.0978283 0.076336 0.104745 0.0967198 0.0894925 0.0906947
60 3 O -1.09664 15.4205 47.9915 -1.2 1 0.366145 0.0700772 0.049151 0.0626552 0.0452883 0.0925835 0.0633622 0.0823244 0.0568629 0.0891881 0.0543135 0.0719822 0.0603695 0.0826498 0.0821567 0.0739281 0.0931145 0.0760315 0.0748183 0.0681557
61 3 O -1.73493 12.7491 51.7772 -1.2 1 0.116788 0.0577998 0.0310294 0.0288815 0.0335054 0.0527338 0.0613431 0.0504529 0.0654423 0.0528317 0.05656 0.0497333 0.0541674 0.0833334 0.101521 0.078218 0.0808513 0.0500129 0.0723056 0.0694371
62 3 O -2.36115 13.2717 48.8238 -1.2 1 0.311021 0.087474 0.0544984 0.0293635 0.0541707 0.0495299 0.0548796 0.0683182 0.0584542 0.0652094 0.0723588 0.0621751 0.0590221 0.0562007 0.0808356 0.0825507 0.0858651 0.0815704 0.0837577 0.0895223
63 1 Mg -0.159928 11.7639 46.8533 1.2 1 0.486191 0.0238375 0.0723233 0.0337464 0.0475 0.091706 0.0647472 0.0863689 0.0855982 0.0889838 0.087618 0.0689724 0.0706756 0.0929774 0.0786424 0.0833517 0.0944682 0.097823 0.102032 0.109338
64 3 O 0.2623 13.1866 48.413 -1.2 1 0.34665 0.0742052 0.053453 0.0376691 0.0463896 0.0581762 0.0383577 0.0645438 0.0666151 0.0698445 0.061562 0.0595167 0.0649922 0.0873296 0.0969918 0.0814965 0.0958235 0.100451 0.0825263 0.0841321
65 1 Mg 1.25048 11.851 54.4623 1.2 1 0.0117454 0.0261218 0.0163823 0.0315733 0.0175006 0.016085 0.0238203 0.0330791 0.0388459 0.0564688 0.0587679 0.0608765 0.0596275 0.0613821 0.0675784 0.0760434 0.0804334 0.0776804 0.0806097 0.0700419
66 2 Si 1.33016 14.412 56.4271 2.4 1 0.0218734 0.0160427 0.0212611 0.0239224 0.0313714 0.0270692 0.0382836 0.0370006 0.0482179 0.0552826 0.0525659 0.0665722 0.0692024 0.0580681 0.0833158 0.068159 0.0671052 0.0909461 0.0540028 0.0610653
67 3 O 1.26131 12.869 56.4519 -1.2 1 0.0239877 0.00932072 0.017651 0.0261436 0.025556 0.0301698 0.0245744 0.065233 0.0341978 0.0573941 0.0353186 0.0646044 0.0589389 0.063339 0.0694901 0.0657304 0.0568716 0.0734659 0.0597058 0.0744267
68 3 O 1.36565 15.4813 52.729 -1.2 1 0.0638211 0.0493859 0.0277379 0.0160794 0.0315683 0.0405804 0.0494462 0.0603589 0.0521696 0.0474172 0.0442011 0.0498604 0.0540663 0.0673008 0.104306 0.0762952 0.0693734 0.0575366 0.0712647 0.0610403
69 3 O 0.0502634 15.0841 55.749 -1.2 1 0.0146153 0.0112738 0.0273516 0.0235948 0.0185391 0.0205743 0.0394868 0.0424643 0.034023 0.0493757 0.0498236 0.0412237 0.0491542 0.0611971 0.0833498 0.0714703 0.0758257 0.0591989 0.0658265 0.0661784
70 3 O 2.59993 15.1352 55.7475 -1.2 1 0.0326113 0.00838936 0.0272354 0.0175027 0.0222638 0.0171361 0.0469322 0.0432332 0.0358329 0.0433437 0.0507882 0.0391785 0.0524655 0.0658104 0.0825734 0.0765507 0.0760588 0.0602954 0.0641639 0.0696423
71 1 Mg -0.206989 14.1049 52.2121 1.2 1 0.105523 0.0665365 0.022543 0.0441826 0.0270182 0.0398569 0.0371789 0.0708434 0.0249715 0.0842046 0.0268799 0.0555224 0.0285116 0.0766454 0.0278999 0.105442 0.0428488 0.104055 0.0405484 0.0999889
72 1 Mg 1.82591 13.8102 49.4556 1.2 1 0.267798 0.100727 0.0360007 0.0364452 0.0375229 0.0358283 0.0660209 0.0462625 0.0700123 0.0747124 0.0795798 0.0583492 0.0693814 0.0673893 0.0841479 0.0925476 0.0800757 0.101529 0.0895934 0.0834956
73 2 Si 1.29285 16.1518 51.2434 2.4 1 0.124452 0.088453 0.0405665 0.0380115 0.0385185 0.0515733 0.053546 0.0423287 0.0566272 0.0676215 0.0668459 0.0724002 0.0710022 0.0684979 0.0926025 0.0838265 0.0763909 0.0848673 0.0721202 0.0620629
74 3 O 1.39496 17.7199 51.3047 -1.2 1 0.136512 0.079016 0.0281103 0.0373842 0.0298589 0.0446844 0.0419086 0.0707517 0.0514415 0.0613458 0.0463671 0.0812958 0.0683398 0.0633975 0.0786388 0.068862 0.0754176 0.0751954 0.0693559 0.0717526
75 3 O 1.2917 15.0351 57.9417 -1.2 1 0.0157323 0.0196168 0.0254061 0.0158629 0.0183848 0.0351791 0.0308356 0.0440082 0.0512414 0.0435034 0.04416 0.0498389 0.0570733 0.0662403 0.101583 0.0694561 0.0672642 0.0551093 0.0711503 0.0681821
76 3 O -0.0269106 15.5178 50.6688 -1.2 1 0.183393 0.085085 0.0299872 0.0212014 0.0451336 0.0428905 0.0533596 0.0649696 0.0550823 0.0585739 0.059385 0.0493902 0.0641136 0.0748703 0.0926573 0.0829851 0.0744361 0.0784917 0.0693613 0.0899083
77 1 Mg -3.18391 14.1057 52.3125 1.2 1 0.073346 0.0583749 0.0313017 0.034908 0.0169243 0.0536637 0.0350566 0.0625093 0.0323912 0.0826909 0.0314192 0.0478835 0.023322 0.0751103 0.0314072 0.110783 0.0466887 0.104987 0.0441417 0.0891749
78 3 O 2.52432 15.503 50.4579 -1.2 1 0.198866 0.0896987 0.0208572 0.0175404 0.0383974 0.0561116 0.0570613 0.0461011 0.0553958 0.066381 0.0631158 0.0694852 0.0583133 0.0637121 0.0996327 0.0767388 0.0789404 0.0723783 0.0637307 0.085023
79 1 Mg -1.67375 14.2118 55.0983 1.2 1 0.0123941 0.00998547 0.0194829 0.0253723 0.0120548 0.0198656 0.0236445 0.0358331 0.0379744 0.0595313 0.0631093 0.0548242 0.0569473 0.0595074 0.0596232 0.0817114 0.0732301 0.096518 0.0679585 0.0810835
80 2 Si -1.70291 12.1157 53.2017 2.4 1 0.0434267 0.0459587 0.0205202 0.0290694 0.0352863 0.034941 0.0492923 0.054517 0.0626623 0.0612179 0.0589891 0.0748855 0.0773593 0.0529441 0.0735064 0.056943 0.0691968 0.0904358 0.0572758 0.0614534
81 3 O -1.77032 10.5322 53.1919 -1.2 1 0.0691942 0.0392809 0.0259479 0.0232488 0.0321176 0.0314937 0.0309817 0.0767179 0.0473718 0.0559771 0.0484191 0.0718427 0.0591837 0.0782419 0.0728055 0.0665552 0.0484158 0.0640334 0.065569 0.0743479
82 3 O -1.21337 13.3381 46.4311 -1.2 1 0.520135 0.0678395 0.0699457 0.0408151 0.0560187 0.0580922 0.0581926 0.0703285 0.0795661 0.0657674 0.0461695 0.071428 0.0683221 0.0880661 0.120694 0.114414 0.106525 0.100085 0.0601632 0.0916994
83 3 O -2.97975 12.7883 53.9204 -1.2 1 0.0321384 0.0341536 0.0208348 0.0312098 0.0308503 0.0226152 0.0551469 0.0433828 0.0474528 0.0517851 0.0516139 0.0482803 0.0554418 0.0625902 0.0839292 0.0652403 0.0707734 0.062064 0.0650472 0.0721894
84 3 O -0.442967 12.7509 53.8385 -1.2 1 0.0298736 0.0305993 0.0276562 0.0246034 0.0261239 0.0156492 0.0464777 0.0507053 0.0447883 0.0519659 0.0566684 0.0471363 0.0592092 0.0695542 0.0974352 0.0668087 0.0851822 0.0595429 0.0740231 0.068175
85 1 Mg -2.90321 21.2052 57.337 1.2 1 0.00643675 0.018227 0.0148361 0.0312504 0.0122099 0.0347398 0.0113052 0.0556525 0.0185638 0.0838159 0.0167529 0.0496666 0.0201423 0.0668828 0.0243899 0.0973374 0.0370652 0.111955 0.0347737 0.0995289
86 1 Mg -1.5831 21.1217 49.8405 1.2 1 0.229623 0.0818193 0.0257408 0.0410262 0.032321 0.0491451 0.0540187 0.0551335 0.0500462 0.0599544 0.0611052 0.0644268 0.0728682 0.073503 0.102791 0.0827508 0.0739164 0.0943314 0.0837132 0.0837257
87 2 Si -1.09384 18.6291 47.9287 2.4 1 0.373843 0.068486 0.0757707 0.0626649 0.0326769 0.069509 0.0463774 0.0809848 0.0658036 0.0684268 0.05218 0.0721231 0.0596451 0.0740991 0.0986866 0.0759941 0.105856 0.0927934 0.0879538 0.0900213
88 3 O -1.02071 20.1985 47.9911 -1.2 1 0.365662 0.0701744 0.0497653 0.0630262 0.0451977 0.0918109 0.0631789 0.0822084 0.0558566 0.088109 0.0548666 0.072466 0.0603415 0.0816291 0.0805034 0.0730337 0.0935938 0.0769756 0.0747184 0.0679677
89 3 O -1.65002 17.5002 51.771 -1.2 1 0.110949 0.0590031 0.0341262 0.0283179 0.0318176 0.0550211 0.0580392 0.0491627 0.0659189 0.0533478 0.0547945 0.0478964 0.0526876 0.0850194 0.10156 0.0761348 0.0804751 0.0449778 0.0750017 0.0727002
90 3 O -2.26174 18.0434 48.8281 -1.2 1 0.306734 0.0892039 0.053592 0.0332773 0.0563816 0.0481144 0.0562797 0.0736528 0.0616669 0.0694315 0.0696627 0.059714 0.0553968 0.0592185 0.0792909 0.0853336 0.085556 0.0797766 0.0827124 0.088944
91 1 Mg -0.0440435 16.5651 46.8269 1.2 1 0.488139 0.0228148 0.075338 0.0320039 0.0586244 0.0801926 0.0692707 0.0802535 0.0739239 0.0893797 0.0877116 0.0629982 0.0641971 0.0807701 0.0773371 0.0906579 0.0929431 0.0975284 0.101285 0.108844
92 3 O 0.37001 17.9877 48.3925 -1.2 1 0.348338 0.0739248 0.0551494 0.037414 0.0472859 0.0618569 0.0395454 0.0666076 0.0655284 0.0730259 0.0594887 0.0552828 0.0642596 0.0862463 0.0938433 0.0766678 0.0954098 0.103984 0.0798643 0.0832867
93 1 Mg 1.44151 16.6027 54.5323 1.2 1 0.00674777 0.0261372 0.0117594 0.0322213 0.0123487 0.0194906 0.026142 0.0358857 0.0420378 0.0578892 0.059902 0.0587523 0.0598332 0.0654064 0.0653419 0.0799874 0.0811348 0.082988 0.0771834 0.0790212
94 2 Si 1.43893 19.1524 56.3932 2.4 1 0.0188542 0.012461 0.0180535 0.0289433 0.0310865 0.0236361 0.0437227 0.0387804 0.0456183 0.0559539 0.0515615 0.0609834 0.0690413 0.0588458 0.0814741 0.0709963 0.0641083 0.0900623 0.0538639 0.0604528
95 3 O 1.28981 17.6268 56.4022 -1.2 1 0.0152819 0.0121401 0.0113484 0.0275896 0.0235863 0.0249583 0.0193185 0.067744 0.0358374 0.0578435 0.0417649 0.0631494 0.058222 0.0639096 0.0687946 0.0648064 0.0584769 0.0706613 0.0669395 0.0690664
96 3 O 1.45147 20.239 52.7294 -1.2 1 0.0775583 0.0372564 0.0285331 0.0259034 0.022533 0.0472632 0.0484213 0.055411 0.0490813 0.0492739 0.0456134 0.0523561 0.0562501 0.0657977 0.101764 0.0715175 0.0669631 0.0622 0.0717029 0.0617588
97 3 O 0.172365 19.933 55.7757 -1.2 1 0.00753193 0.0106496 0.0313951 0.0220302 0.0191141 0.0209523 0.0432751 0.0382028 0.0381053 0.0427086 0.0507481 0.0421863 0.0529722 0.0588994 0.0924456 0.0648204 0.0776774 0.0582785 0.0700688 0.0711771
98 3 O 2.72407 19.8284 55.7066 -1.2 1 0.0182414 0.016352 0.0217193 0.0187437 0.0218733 0.0218915 0.0488478 0.0432917 0.0395715 0.0481946 0.0504839 0.0358699 0.0560327 0.0719971 0.0743657 0.0799101 0.0760947 0.0637779 0.0639871 0.0691503
99 1 Mg -0.126194 18.8651 52.2079 1.2 1 0.102321 0.0679575 0.0245116 0.0453817 0.0290877 0.0404729 0.0396397 0.0712395 0.0282014 0.0850972 0.0252145 0.0554065 0.0310686 0.0726677 0.0329932 0.109101 0.0449861 0.10385 0.0405072 0.0991035
100 1 Mg 1.92402 18.5815 49.4545 1.2 1 0.265187 0.103327 0.0335258 0.0401809 0.0342571 0.033356 0.0694839 0.043963 0.0696563 0.0736083 0.0815171 0.0577792 0.0699613 0.066799 0.0875932 0.0955544 0.0793603 0.0989118 0.0860704 0.0853851
101 2 Si 1.38106 20.9117 51.2443 2.4 1 0.132886 0.0870761 0.0333879 0.0365316 0.0348327 0.0489641 0.0586392 0.0433575 0.0529185 0.0670393 0.0686045 0.0737818 0.0730201 0.0703894 0.0925271 0.0871897 0.0775432 0.0826399 0.0722702 0.0658157
102 3 O 1.48527 22.4795 51.3054 -1.2 1 0.136518 0.0786172 0.0278706 0.0356605 0.0302659 0.0450752 0.0403662 0.0699888 0.0514811 0.0612694 0.044957 0.0809106 0.0673736 0.0627711 0.0773526 0.070462 0.0766735 0.07586 0.0690715 0.0717646
103 3 O 1.46356 19.8014 57.8522 -1.2 1 0.0143637 0.018891 0.0258238 0.0151417 0.0128958 0.0387672 0.0311535 0.0444233 0.0542155 0.044126 0.0428552 0.041477 0.0521993 0.0693336 0.104083 0.0718873 0.0650539 0.0511277 0.0757254 0.0674312
104 3 O 0.0615419 20.2804 50.6669 -1.2 1 0.184212 0.0829677 0.0230267 0.0203889 0.0466455 0.0395122 0.0516038 0.0657679 0.0538687 0.0570347 0.0585353 0.0498573 0.0623578 0.0773427 0.0928768 0.0823573 0.0764819 0.0789677 0.0729485 0.0877669
105 1 Mg -3.09665 18.8643 52.3122 1.2 1 0.0667882 0.0580716 0.0362886 0.0312767 0.0160794 0.0547908 0.0368585 0.0624093 0.036504 0.0842697 0.0323244 0.0459888 0.0258229 0.0743011 0.034905 0.113695 0.0449814 0.103011 0.0468011 0.0918649
106 3 O 2.61548 20.2646 50.4626 -1.2 1 0.20075 0.0898143 0.0241899 0.0193272 0.0355006 0.0550164 0.0561384 0.0435254 0.0572918 0.067785 0.0616302 0.0676954 0.0557466 0.0633759 0.0973541 0.0730944 0.0758584 0.0699289 0.0626398 0.0860633
107 1 Mg -1.50648 18.9299 55.1491 1.2 1 0.0172705 0.0120852 0.015074 0.0244712 0.00971755 0.0235539 0.0281967 0.0373896 0.0403234 0.0595037 0.0587439 0.0603261 0.0620405 0.0659708 0.0653596 0.0715342 0.0827348 0.100932 0.0652884 0.0757382
108 2 Si -1.62181 16.8551 53.2611 2.4 1 0.0507265 0.0374978 0.0238648 0.0289024 0.0348627 0.0367641 0.048597 0.0562458 0.0593193 0.0622738 0.0567559 0.0666311 0.0839155 0.0537213 0.0722092 0.0638913 0.0661911 0.084472 0.0624189 0.0568777
109 3 O -1.6928 15.2818 53.1552 -1.2 1 0.064252 0.0412656 0.0239075 0.0228612 0.0313212 0.0356024 0.0336258 0.0739312 0.047785 0.0573764 0.0447833 0.0724541 0.0578869 0.0762089 0.0700112 0.0676606 0.0520834 0.0693787 0.0685663 0.0775659
110 3 O -1.12868 18.1227 46.4249 -1.2 1 0.522086 0.0665211 0.0723269 0.0521431 0.0579429 0.0647247 0.0604534 0.079313 0.0800232 0.062564 0.0455038 0.0681992 0.0676008 0.087672 0.116797 0.115081 0.107089 0.100743 0.0628777 0.093114
111 3 O -2.84555 17.5369 53.9757 -1.2 1 0.0390972 0.0219472 0.0270211 0.0238045 0.0266831 0.0256679 0.0493573 0.0437321 0.0443808 0.0565291 0.0515286 0.0406348 0.0536835 0.0621099 0.0838746 0.0656175 0.0693049 0.062903 0.0641279 0.0666682
112 3 O -0.309631 17.4778 53.8477 -1.2 1 0.0484419 0.0291796 0.02849 0.0200369 0.0237042 0.0209632 0.0422507 0.0467873 0.0469554 0.0541263 0.0553011 0.0439794 0.0554846 0.0668124 0.0852959 0.0637164 0.0831535 0.063771 0.0703889 0.0699959
113 1 Mg -2.9269 26.037 57.5029 1.2 1 0.0117933 0.0106426 0.00932556 0.0283883 0.00725154 0.0343479 0.00767212 0.0584289 0.0128657 0.0831905 0.0173888 0.0477741 0.0151966 0.0726671 0.0197372 0.0979952 0.0280981 0.112717 0.0301385 0.0985576
114 1 Mg -1.48778 25.88 49.8402 1.2 1 0.226573 0.0838743 0.0242034 0.0443912 0.02945 0.0529785 0.0549292 0.0533372 0.0505668 0.0622377 0.0650589 0.0643855 0.0726738 0.0754168 0.10413 0.0838265 0.0741847 0.0932262 0.0845393 0.0856008
115 2 Si -1.00491 23.3922 47.9274 2.4 1 0.372935 0.0653305 0.063675 0.0736125 0.0299604 0.0743803 0.0424339 0.0826332 0.0680348 0.0734065 0.0524778 0.0759255 0.0593273 0.0755064 0.0952495 0.0748597 0.101959 0.0955573 0.089259 0.0928105
116 3 O -0.927602 24.9615 47.9909 -1.2 1 0.365717 0.0695585 0.0489253 0.0631345 0.0459469 0.0919676 0.0628908 0.0819336 0.0574485 0.0889655 0.0541865 0.0719886 0.0617343 0.0823 0.0811651 0.0738634 0.0954105 0.0782167 0.074393 0.0678899
117 3 O -1.55795 22.2588 51.7696 -1.2 1 0.114349 0.0576046 0.0309426 0.0273103 0.0327342 0.0511837 0.0598339 0.050115 0.0661764 0.0528644 0.0545006 0.0483216 0.0529201 0.0818831 0.101136 0.0764653 0.0753444 0.0453827 0.075331 0.0713603
118 3 O -2.17411 22.8111 48.8277 -1.2 1 0.310828 0.0850923 0.052878 0.0355973 0.0563785 0.0475163 0.0524739 0.0734223 0.0618951 0.0680637 0.0704969 0.0587739 0.0545832 0.0561802 0.0774255 0.0831967 0.0837934 0.0799837 0.0843284 0.0879293
119 1 Mg 0.0423997 21.3296 46.8225 1.2 1 0.481487 0.0224018 0.0811889 0.0325087 0.0658117 0.0871624 0.0782447 0.0857151 0.0689922 0.0830566 0.0850353 0.0625171 0.0631128 0.077376 0.0759514 0.0938815 0.0958677 0.09736 0.097776 0.103921
120 3 O 0.458537 22.7495 48.3911 -1.2 1 0.336557 0.0894179 0.0625829 0.0372004 0.0452253 0.0618231 0.0461276 0.0705624 0.0655033 0.0745237 0.0635741 0.0571472 0.0665927 0.0894996 0.0977743 0.07799 0.0948348 0.101915 0.0802312 0.0853577
121 1 Mg 1.48163 21.4144 54.5627 1.2 1 0.0147678 0.0240898 0.0149895 0.0310357 0.015963 0.0171215 0.0233136 0.031368 0.0499372 0.0577421 0.0650506 0.0603438 0.0573728 0.0670982 0.0651638 0.0850336 0.0752356 0.089707 0.0806935 0.0794493
122 2 Si 1.56551 23.9677 56.4105 2.4 1 0.0109852 0.0199463 0.0223812 0.030204 0.0280924 0.0284083 0.0448734 0.0439693 0.0499422 0.0535702 0.0531448 0.0659599 0.0693657 0.0580908 0.082385 0.0702829 0.0598003 0.0948967 0.0517776 0.0586585
123 3 O 1.51129 22.4238 56.4237 -1.2 1 0.01902 0.0138649 0.018334 0.0245156 0.0251476 0.0228692 0.0139122 0.0753425 0.0342309 0.0535739 0.0396909 0.062983 0.058142 0.0607251 0.0774248 0.0659713 0.054937 0.0699282 0.0638997 0.072181
124 3 O 1.54441 24.9963 52.7297 -1.2 1 0.0754889 0.0388491 0.0269857 0.0238499 0.023871 0.0462409 0.0502144 0.0537822 0.0494221 0.0482176 0.0435521 0.0540713 0.0589072 0.0626719 0.100376 0.0707931 0.0711513 0.0644394 0.0746676 0.0616947
125 3 O 0.281849 24.7086 55.7029 -1.2 1 0.00459389 0.0124129 0.0318323 0.0201359 0.0171728 0.0170202 0.0468545 0.03771 0.0318977 0.0454444 0.0513814 0.0391704 0.0520426 0.0571925 0.0878031 0.0673943 0.0765708 0.059798 0.0622616 0.0687541
126 3 O 2.8924 24.6824 55.8072 -1.2 1 0.024462 0.0170507 0.0294365 0.0191433 0.0227468 0.0200468 0.0432189 0.0433923 0.0423376 0.0399565 0.0562465 0.0399997 0.0568399 0.0562292 0.079058 0.0731437 0.0683291 0.061102 0.0643353 0.0746875