ITEM: TIMESTEP
64700
ITEM: NUMBER OF ATOMS
10500
ITEM: BOX BOUNDS xy xz yz pp pp pp
0	8.9688	2.9896
0	118.725	0
0	252.977	0
ITEM: ATOMS id type element xu yu zu q Q_1 Q_2 Q_3 Q_4 Q_5 Q_6 Q_7 Q_8 Q_9 Q_10 Q_11 Q_12 Q_13 Q_14 Q_15 Q_16 Q_17 Q_18 Q_19 Q_20 Q_21
1 1 Mg -3.35575 7.22583 57.5945 1.2 1 0.0127669 0.0149315 0.0113584 0.025225 0.0137449 0.0303014 0.0145827 0.0520747 0.0171468 0.0770548 0.0254382 0.053728 0.0276298 0.0659898 0.0302334 0.096935 0.0424201 0.113976 0.0374204 0.0876194
2 1 Mg -1.82655 6.90154 50.0912 1.2 1 0.212957 0.0930815 0.0355741 0.0374299 0.0274099 0.0586279 0.0466269 0.0431606 0.0565402 0.070409 0.0575421 0.0742537 0.072746 0.0670395 0.100138 0.0639452 0.0850605 0.0945157 0.0724952 0.0780957
3 2 Si -0.257935 3.96038 48.0876 2.4 1 0.372004 0.0729406 0.0741314 0.0371456 0.0610043 0.051873 0.0747883 0.0768178 0.0578502 0.0793734 0.0562723 0.0676509 0.0635179 0.0865353 0.0982263 0.100002 0.110098 0.0907233 0.0689924 0.0729506
4 3 O -0.335812 5.46814 47.6264 -1.2 1 0.427264 0.0388363 0.0642702 0.0316154 0.0407322 0.0475944 0.0654211 0.0713294 0.0875521 0.0760199 0.0921615 0.0760259 0.0726115 0.0713767 0.0924096 0.124166 0.0925827 0.0791824 0.0776184 0.0793656
5 3 O -2.03793 3.43377 51.8941 -1.2 1 0.113074 0.0615396 0.0278076 0.0214027 0.0236461 0.0525452 0.056989 0.0479002 0.0499573 0.0579588 0.0619834 0.0511451 0.0523386 0.080483 0.0855778 0.0824433 0.0660666 0.0561438 0.0714678 0.0680284
6 3 O -1.54015 3.53929 48.9521 -1.2 1 0.296618 0.0989785 0.0408003 0.046098 0.0390774 0.0484889 0.0715819 0.0535291 0.0543198 0.0624553 0.075302 0.0675459 0.0686963 0.0702697 0.0719386 0.109637 0.0825233 0.0773011 0.0748835 0.0931359
7 1 Mg 1.82954 2.54582 47.1376 1.2 1 0.462872 0.0198181 0.0820216 0.0541107 0.0408031 0.0843757 0.0631832 0.059908 0.0735315 0.0856252 0.0673155 0.0777049 0.0821151 0.0849293 0.0691548 0.0959804 0.10105 0.102246 0.10361 0.0976239
8 3 O 1.22989 3.66364 48.7877 -1.2 1 0.316999 0.0772955 0.0268894 0.0402595 0.0344482 0.0642328 0.0778751 0.0359721 0.0828024 0.0758281 0.0490303 0.0762141 0.0822622 0.0677546 0.0656755 0.0896148 0.0947463 0.0883196 0.0921754 0.0917526
9 1 Mg 1.18416 2.47097 54.5272 1.2 1 0.0100876 0.028106 0.0164294 0.0375353 0.0259417 0.0403276 0.0222605 0.0365299 0.0404586 0.0570864 0.0567727 0.0577489 0.064652 0.0733898 0.0674388 0.0739789 0.0721529 0.0721788 0.0857696 0.0596149
10 2 Si 1.11331 5.15345 56.5286 2.4 1 0.0185135 0.0107114 0.0229976 0.0287159 0.0248387 0.0317377 0.0377794 0.0415227 0.0525903 0.0494179 0.0454195 0.0658536 0.0705961 0.0572644 0.0770624 0.066872 0.0634817 0.0945403 0.063856 0.0573227
11 3 O 1.00507 3.55439 56.8356 -1.2 1 0.0344484 0.015715 0.0243717 0.0146564 0.0181515 0.0227981 0.027723 0.0606818 0.0476343 0.039231 0.0577704 0.0597685 0.0583511 0.0617911 0.0801805 0.0695956 0.0673413 0.0767138 0.055174 0.0804152
12 3 O 1.10813 6.07342 52.8172 -1.2 1 0.0830031 0.0461154 0.0255766 0.0160711 0.023306 0.0479178 0.0421917 0.0544527 0.0503878 0.0453814 0.0525906 0.0489142 0.0695726 0.0706003 0.0841072 0.0860782 0.061108 0.0664538 0.0652454 0.065839
13 3 O -0.160614 5.66226 55.7875 -1.2 1 0.0134603 0.0163892 0.0174615 0.0263927 0.0250211 0.0189615 0.0433306 0.0394718 0.0422167 0.0543931 0.0510833 0.0452298 0.05823 0.0682915 0.0900305 0.0736843 0.0695954 0.068633 0.0626764 0.0716756
14 3 O 2.44311 5.71588 55.862 -1.2 1 0.0166467 0.00946206 0.0350058 0.0194217 0.0218197 0.0174721 0.0397701 0.0434275 0.0377727 0.038336 0.0566555 0.0385696 0.0519815 0.0608527 0.0892987 0.0740052 0.0757943 0.062753 0.0678157 0.0698345
15 1 Mg -0.459401 4.67631 52.2426 1.2 1 0.0888364 0.0710361 0.0323525 0.0396367 0.0270198 0.0338996 0.0382866 0.0584437 0.0436673 0.0796235 0.0446957 0.0616168 0.0492638 0.0769245 0.0461368 0.0976917 0.0531391 0.0917956 0.062283 0.0814758
16 1 Mg 2.79456 3.9971 49.9987 1.2 1 0.218046 0.0999547 0.0311633 0.0358402 0.0414095 0.0634125 0.054129 0.0523697 0.0768918 0.0640704 0.0633898 0.0554148 0.0640738 0.072387 0.0877643 0.0775744 0.071526 0.0890385 0.0857462 0.0737178
17 2 Si 1.16169 6.59457 51.2556 2.4 1 0.136714 0.0854797 0.0397411 0.0316817 0.041442 0.0543816 0.0466441 0.0404202 0.0616867 0.0589539 0.0609894 0.073609 0.0721835 0.066666 0.0866682 0.0860684 0.0802045 0.0935779 0.0770878 0.059364
18 3 O 1.28989 8.18905 51.2909 -1.2 1 0.142232 0.0851844 0.030154 0.039005 0.0348423 0.0432557 0.042635 0.0798664 0.0495535 0.0647978 0.0486648 0.0901779 0.0704762 0.0650126 0.0812362 0.0679982 0.0736574 0.0665848 0.0670509 0.0699061
19 3 O 1.1627 5.69544 57.991 -1.2 1 0.0192158 0.0230273 0.0237735 0.017841 0.0232794 0.0317254 0.0254164 0.0442046 0.0559453 0.0420054 0.0453926 0.0474941 0.0474581 0.0700617 0.101708 0.0680014 0.0629632 0.0610785 0.0688747 0.0645014
20 3 O -0.184847 6.06029 50.6845 -1.2 1 0.184533 0.083145 0.0223997 0.0285874 0.0377583 0.0322544 0.0496439 0.0579337 0.0579969 0.0563607 0.0678317 0.0786519 0.0622975 0.05791 0.0952972 0.0730349 0.0818247 0.0778289 0.0632027 0.0809612
21 1 Mg -3.49704 4.67769 52.6661 1.2 1 0.0613917 0.0560048 0.0241071 0.0252032 0.0204764 0.0455516 0.0355176 0.0612583 0.0533443 0.0679591 0.0467527 0.0521492 0.0571779 0.0568771 0.0559975 0.0816086 0.0861902 0.0779317 0.0722571 0.0729755
22 3 O 2.48581 5.93312 50.6539 -1.2 1 0.187649 0.0966278 0.0289068 0.0121432 0.0359545 0.0484283 0.0627361 0.0620179 0.04144 0.0645735 0.0503086 0.067944 0.0591052 0.0628861 0.103433 0.0685136 0.0807476 0.066084 0.0736395 0.0764936
23 1 Mg -1.70205 4.66914 55.3424 1.2 1 0.0145625 0.0146652 0.0209153 0.0193072 0.0252882 0.0241218 0.0247464 0.0384725 0.0396569 0.0529018 0.0575505 0.0590863 0.058934 0.0655586 0.0627927 0.0575028 0.0893166 0.0852973 0.0671262 0.0714758
24 2 Si -1.89023 2.69253 53.3562 2.4 1 0.0479904 0.0317272 0.0196008 0.0176598 0.0207125 0.022731 0.0433363 0.0457262 0.0645091 0.0624864 0.0539021 0.0668634 0.0771956 0.046444 0.0687267 0.057256 0.0724547 0.0851918 0.0749031 0.0642375
25 3 O -1.84557 1.14565 53.2572 -1.2 1 0.0513602 0.0362315 0.0258503 0.0207121 0.0217911 0.0396817 0.0261366 0.064225 0.0552103 0.0560093 0.0475012 0.0612075 0.0690779 0.0673653 0.0800914 0.0689469 0.0639222 0.070981 0.0660712 0.0617284
26 3 O -0.0467762 2.97103 46.8385 -1.2 1 0.500777 0.0385371 0.0851696 0.0301785 0.0785095 0.0677112 0.0825419 0.0737447 0.0708763 0.0769908 0.0826203 0.0789105 0.1002 0.0899188 0.0843756 0.0848892 0.100031 0.0987461 0.104191 0.108342
27 3 O -3.17714 3.27941 54.1552 -1.2 1 0.0221893 0.0207655 0.0280101 0.0248665 0.0204061 0.0316426 0.0398711 0.0441576 0.0535359 0.0537487 0.0647068 0.0403385 0.0653842 0.0653803 0.0732718 0.0686113 0.0693484 0.068849 0.0605974 0.060273
28 3 O -0.498922 3.34656 53.9941 -1.2 1 0.036651 0.0304728 0.0302172 0.0142717 0.0270066 0.0308019 0.0455371 0.0441318 0.0432281 0.0534637 0.0585687 0.0437013 0.0622855 0.061058 0.0893972 0.0636891 0.0753927 0.0705285 0.0664608 0.0614434
29 1 Mg -3.31997 11.7809 57.4441 1.2 1 0.0042402 0.0203077 0.00714616 0.0306018 0.00554794 0.0321963 0.00762187 0.0602141 0.0103923 0.0751959 0.0169983 0.0535465 0.0126246 0.07521 0.0177019 0.109437 0.021006 0.117195 0.0210163 0.0912324
30 1 Mg -1.75014 11.5838 49.8362 1.2 1 0.233943 0.0782764 0.0288918 0.0369646 0.0308129 0.0532515 0.0476194 0.0549734 0.0482651 0.0573983 0.0650221 0.0628208 0.0717986 0.0683788 0.107168 0.0872316 0.0659508 0.093903 0.0866579 0.0795312
31 2 Si -1.18003 9.02138 47.9309 2.4 1 0.376474 0.0591983 0.0584516 0.0559913 0.0384509 0.0613187 0.0717653 0.0728379 0.0675172 0.065738 0.0591584 0.0667218 0.066944 0.0786587 0.0999966 0.0633626 0.0989595 0.0898911 0.102232 0.0847239
32 3 O -1.23224 10.5991 47.9811 -1.2 1 0.379656 0.0586131 0.0552687 0.0569767 0.0512549 0.0705844 0.0669204 0.0764354 0.0591003 0.0878294 0.071028 0.0653792 0.0721422 0.078812 0.0826063 0.0690422 0.0901561 0.083236 0.0680634 0.0714223
33 3 O -1.79016 8.01447 51.8693 -1.2 1 0.121684 0.0558429 0.0324871 0.0277732 0.0317573 0.043351 0.0604315 0.0553051 0.0591577 0.052542 0.0476535 0.0496388 0.0686887 0.0778261 0.0893993 0.0777139 0.0686079 0.0546166 0.0691668 0.0662691
34 3 O -2.30986 8.37215 48.8528 -1.2 1 0.321548 0.0755875 0.0581476 0.0282552 0.0464316 0.0589476 0.0646078 0.0669917 0.059044 0.067883 0.077685 0.0652201 0.0560239 0.0672797 0.0797309 0.0879944 0.0963843 0.0793615 0.0750209 0.091212
35 1 Mg 0.154883 7.08234 46.8007 1.2 1 0.49726 0.0357657 0.0755634 0.039061 0.0651231 0.0751995 0.0586377 0.0681615 0.0710645 0.0822736 0.0887414 0.076725 0.0796069 0.0799503 0.0708138 0.0930026 0.0923693 0.10681 0.113179 0.101322
36 3 O 0.325447 8.50934 48.3809 -1.2 1 0.341434 0.0864281 0.0667493 0.0407547 0.0384679 0.0516998 0.0441024 0.060003 0.0603202 0.0666313 0.075254 0.0627897 0.081353 0.0959306 0.0935824 0.0708985 0.0920654 0.0997935 0.0830726 0.0882294
37 1 Mg 1.27604 7.12668 54.5395 1.2 1 0.016565 0.0348791 0.012039 0.0292716 0.0173547 0.0257911 0.0276495 0.0335892 0.0425021 0.0551253 0.0566201 0.053023 0.0616796 0.0588497 0.0742949 0.0754313 0.0715464 0.0824396 0.0843542 0.0714725
38 2 Si 1.29387 9.68377 56.3744 2.4 1 0.0162003 0.0161804 0.0158365 0.0211114 0.025298 0.0331036 0.0361532 0.0414668 0.0460726 0.0623212 0.0559036 0.0541258 0.0661698 0.0573889 0.0724819 0.0737879 0.0629314 0.0933904 0.0628456 0.0666947
39 3 O 1.23776 8.23315 56.4632 -1.2 1 0.0157787 0.0188254 0.0131508 0.0230863 0.0250172 0.026652 0.0192641 0.0679358 0.0277506 0.0517731 0.0396475 0.0671798 0.0657629 0.0641871 0.0762162 0.0590975 0.0613919 0.0696356 0.0698465 0.065752
40 3 O 1.28624 10.7248 52.7351 -1.2 1 0.0736626 0.0447336 0.0335062 0.0187088 0.0299838 0.0440003 0.0494796 0.0526235 0.0453884 0.0489112 0.0472518 0.0462605 0.0545649 0.0695967 0.0984064 0.079565 0.07195 0.0526502 0.0728841 0.0579617
41 3 O 0.0322959 10.5311 55.6745 -1.2 1 0.0108245 0.0155051 0.0257404 0.0189422 0.022864 0.0226096 0.0473116 0.0399844 0.0300032 0.0492044 0.0540333 0.0423399 0.0593393 0.0538877 0.0891005 0.075598 0.0743452 0.0618787 0.0564418 0.0565697
42 3 O 2.5035 10.3813 55.854 -1.2 1 0.0291568 0.0116451 0.0305407 0.0238483 0.0216997 0.0163357 0.0479664 0.0475017 0.0385774 0.0446411 0.0552745 0.036079 0.0490374 0.0715645 0.0796913 0.0836841 0.0778206 0.0634503 0.0653621 0.0619303
43 1 Mg -0.262694 9.34741 52.2523 1.2 1 0.117543 0.060191 0.020385 0.0413325 0.0333756 0.0427551 0.0374549 0.0726164 0.0289896 0.0840892 0.0272391 0.0584301 0.0390861 0.0731166 0.0443989 0.100823 0.0502415 0.0950966 0.0523002 0.0986481
44 1 Mg 1.87648 9.01537 49.4629 1.2 1 0.274209 0.0942899 0.0387435 0.0375533 0.0307901 0.0495278 0.0681891 0.0447797 0.0771441 0.0635308 0.081297 0.054317 0.0844413 0.064851 0.0860982 0.0936612 0.0844141 0.0969737 0.0852095 0.086219
45 2 Si 1.21415 11.3799 51.2378 2.4 1 0.135452 0.0813669 0.0432598 0.0347004 0.0395733 0.0512915 0.0540999 0.0399632 0.0597938 0.0640919 0.0743245 0.0714275 0.0763486 0.0715749 0.093204 0.0892718 0.0752268 0.0831089 0.0730764 0.0604137
46 3 O 1.31634 12.9512 51.3023 -1.2 1 0.142307 0.0776773 0.0259403 0.0340521 0.0350953 0.0441481 0.0386835 0.0685645 0.0562645 0.0629592 0.0455243 0.0802767 0.0652937 0.0618247 0.068225 0.0663879 0.0735166 0.0688093 0.0683222 0.0710929
47 3 O 1.13626 10.4293 58.0434 -1.2 1 0.0114768 0.0203851 0.0273525 0.017048 0.0218843 0.0293424 0.0341279 0.0475685 0.0464341 0.0417417 0.0345405 0.0466605 0.0523292 0.0629541 0.109153 0.0634614 0.0729635 0.0593897 0.0642693 0.0652461
48 3 O -0.115718 10.7564 50.681 -1.2 1 0.194094 0.0748314 0.0252549 0.0219311 0.0448753 0.036464 0.0471499 0.0646729 0.0506109 0.0557614 0.0602653 0.0524244 0.0621474 0.0694914 0.0921368 0.0793311 0.0706762 0.0765168 0.0769607 0.0829501
49 1 Mg -3.26386 9.35564 52.3622 1.2 1 0.0795069 0.0502363 0.0318291 0.0339705 0.0135498 0.0538555 0.0397091 0.0570218 0.032865 0.0871693 0.033569 0.049861 0.0328012 0.0677949 0.0408476 0.108647 0.045222 0.0990714 0.0550157 0.0953296
50 3 O 2.45216 10.7265 50.4558 -1.2 1 0.198141 0.08939 0.0217211 0.0111237 0.038971 0.0569411 0.0574895 0.0456814 0.0590804 0.0702621 0.0643327 0.0724617 0.055956 0.0661689 0.097415 0.0828624 0.0739004 0.0750934 0.0578005 0.0854014
51 1 Mg -1.70455 9.50424 55.2836 1.2 1 0.0225323 0.015452 0.0185886 0.0341681 0.0158172 0.024522 0.0292503 0.0336198 0.0359416 0.0510914 0.0538654 0.0605105 0.0570316 0.0600847 0.0739183 0.0683459 0.0769659 0.0913094 0.0767181 0.0727625
52 2 Si -1.74897 7.36519 53.2875 2.4 1 0.037865 0.0438673 0.0226918 0.024972 0.0351403 0.0362511 0.0503135 0.0495261 0.0676435 0.0584073 0.0597952 0.0631336 0.0779821 0.0484693 0.0750105 0.0575945 0.0651762 0.0858485 0.0646976 0.0605272
53 3 O -1.92506 5.88 53.316 -1.2 1 0.0575448 0.0330842 0.0270377 0.0146478 0.0227388 0.031736 0.0384925 0.0635716 0.049153 0.0621686 0.0463615 0.0748768 0.0550514 0.0772767 0.0645015 0.0613731 0.0622568 0.0618213 0.0660209 0.0630315
54 3 O -1.19417 8.46968 46.4488 -1.2 1 0.525 0.0663623 0.0666429 0.0512368 0.0666567 0.0559237 0.0779654 0.0538692 0.0751959 0.0705426 0.0565145 0.0503381 0.069334 0.0984921 0.130518 0.113002 0.0964007 0.0952038 0.0838538 0.083267
55 3 O -2.98899 8.12499 54.05 -1.2 1 0.0390476 0.0205568 0.0202837 0.0223149 0.029478 0.0255516 0.0508915 0.0429217 0.0391752 0.0538293 0.0536719 0.0428644 0.062472 0.0593794 0.0882395 0.0616374 0.070555 0.0652191 0.0682525 0.0649408
56 3 O -0.334447 8.07137 54.0797 -1.2 1 0.044364 0.0325643 0.0261434 0.0280513 0.0259924 0.0267769 0.0382049 0.0425814 0.0426466 0.0547279 0.0623864 0.0432368 0.0659294 0.0497134 0.0813183 0.0650125 0.0704474 0.0726542 0.0658772 0.0801876
57 1 Mg -3.28526 16.3956 57.4189 1.2 1 0.0145686 0.0109533 0.00919278 0.0255933 0.00747316 0.031044 0.0140279 0.0590218 0.0172379 0.0785267 0.0193809 0.0529633 0.0203519 0.0727989 0.0235183 0.100261 0.0337886 0.115497 0.0348526 0.093309
58 1 Mg -1.6714 16.3544 49.8412 1.2 1 0.229198 0.0833958 0.0225452 0.042109 0.0283927 0.0511618 0.0531857 0.0563558 0.0487564 0.0613447 0.0622138 0.0660285 0.0742028 0.0751992 0.103561 0.0856286 0.075547 0.0949192 0.0822814 0.085558
59 2 Si -1.18567 13.8526 47.9314 2.4 1 0.371344 0.0705338 0.0747733 0.0622118 0.0322344 0.0693384 0.0486564 0.079235 0.0656632 0.0658449 0.0505604 0.072495 0.0588967 0.0768548 0.0988797 0.0752476 0.103446 0.0961454 0.0881337 0.0909641
60 3 O -1.09664 15.4205 47.9915 -1.2 1 0.361723 0.0767392 0.0534667 0.0593087 0.0475131 0.0946207 0.0615824 0.0811461 0.0540297 0.0873143 0.0522249 0.0720654 0.0623707 0.0853583 0.0846495 0.0753427 0.095078 0.0754645 0.0718826 0.0702271
61 3 O -1.73493 12.7491 51.7772 -1.2 1 0.121082 0.0552392 0.0311493 0.029055 0.03621 0.046286 0.0647144 0.049924 0.0691151 0.0511237 0.0570366 0.047465 0.0549589 0.0820344 0.10379 0.0748068 0.0827466 0.0487893 0.0670272 0.0627345
62 3 O -2.36115 13.2717 48.8238 -1.2 1 0.30363 0.0968194 0.0647978 0.0260698 0.0581099 0.0497673 0.0601309 0.0671195 0.0599236 0.0684235 0.0752671 0.0640054 0.0594428 0.056086 0.0821867 0.0886609 0.088601 0.07749 0.0818005 0.0904602
63 1 Mg -0.159928 11.7639 46.8533 1.2 1 0.485455 0.0219927 0.0754196 0.0319672 0.047694 0.0943455 0.0653171 0.0849728 0.0836683 0.0843428 0.0830542 0.0688457 0.0733509 0.0939113 0.079387 0.0872712 0.100002 0.100228 0.0997248 0.106301
64 3 O 0.2623 13.1866 48.413 -1.2 1 0.342852 0.0796829 0.0545726 0.0379286 0.0423304 0.0565118 0.0435066 0.0657225 0.0679362 0.0727585 0.0623692 0.0602012 0.0661646 0.087256 0.0978339 0.0828261 0.0936317 0.0960503 0.0806784 0.087678
65 1 Mg 1.3664 11.7211 54.5423 1.2 1 0.00998668 0.0236263 0.0151819 0.0269587 0.0138866 0.019541 0.0274364 0.032893 0.0484451 0.0594242 0.0563729 0.0561564 0.0565889 0.0659404 0.0623871 0.0785611 0.0684949 0.0974183 0.072743 0.0767209
66 2 Si 1.14011 14.3549 56.4085 2.4 1 0.010451 0.0172651 0.019926 0.0262287 0.0279934 0.0272592 0.0382073 0.0395635 0.0457445 0.0572398 0.0537779 0.0533479 0.0709674 0.052977 0.0855448 0.0731531 0.0703686 0.082638 0.0662448 0.0555661
67 3 O 1.31244 12.8486 56.5141 -1.2 1 0.0336156 0.00375136 0.0250884 0.021947 0.0203801 0.0246294 0.0247856 0.0624402 0.0405466 0.049546 0.0432298 0.0595531 0.0537871 0.0667711 0.0721751 0.0684476 0.056076 0.0722456 0.0654462 0.0787312
68 3 O 1.36565 15.4813 52.729 -1.2 1 0.0769949 0.033608 0.0266224 0.024079 0.0247086 0.0424384 0.0439599 0.0569902 0.0495782 0.0470013 0.0426397 0.0519506 0.0564007 0.0606021 0.101451 0.069321 0.0738089 0.0559582 0.0694856 0.0619485
69 3 O -0.148006 14.9604 55.8466 -1.2 1 0.0181983 0.0194637 0.0301338 0.0186734 0.0202703 0.0233128 0.0378695 0.0429469 0.0370879 0.0499976 0.0529017 0.0428447 0.054838 0.0669888 0.0721002 0.0810193 0.0737733 0.0675839 0.0668128 0.0764752
70 3 O 2.27498 15.118 55.7242 -1.2 1 0.0246669 0.010012 0.0306865 0.0138299 0.0252865 0.0191952 0.0446528 0.0381116 0.0346263 0.0371938 0.0501548 0.0390203 0.0472809 0.0568223 0.0856368 0.0755736 0.0780493 0.0577875 0.0655851 0.0648393
71 1 Mg -0.206989 14.1049 52.2121 1.2 1 0.104985 0.0627743 0.0267644 0.0409399 0.0299088 0.0471694 0.0337333 0.0712016 0.0279198 0.0868265 0.0240177 0.059016 0.0299988 0.0742377 0.0309454 0.104055 0.0405774 0.105613 0.0415729 0.100741
72 1 Mg 1.82591 13.8102 49.4556 1.2 1 0.267364 0.101127 0.0331567 0.0390715 0.0359393 0.035876 0.0672419 0.0472707 0.0683088 0.0783237 0.0809398 0.0583066 0.074985 0.0701319 0.0810624 0.0892349 0.077924 0.0968983 0.0912184 0.0859806
73 2 Si 1.29285 16.1518 51.2434 2.4 1 0.136667 0.085322 0.0327969 0.03481 0.0416068 0.0450085 0.0560857 0.0462991 0.0573736 0.0657062 0.0661474 0.0727617 0.0721129 0.0638687 0.0938829 0.0871048 0.0741026 0.0884702 0.0720672 0.06112
74 3 O 1.39496 17.7199 51.3047 -1.2 1 0.145437 0.074996 0.0252372 0.0300598 0.0333173 0.042979 0.0359353 0.0649616 0.0564017 0.060693 0.0416532 0.0815001 0.0653206 0.0624979 0.0792742 0.0707579 0.0791554 0.0717026 0.0661358 0.0762619
75 3 O 1.20992 15.0568 57.9571 -1.2 1 0.0173766 0.0195284 0.0215974 0.0172257 0.0186869 0.0353588 0.026906 0.049582 0.0539153 0.0426201 0.0426754 0.0489733 0.0509134 0.0640344 0.0996102 0.0701319 0.0719175 0.0564348 0.0645098 0.0704939
76 3 O -0.0269106 15.5178 50.6688 -1.2 1 0.183092 0.0837513 0.0211856 0.0234316 0.0487719 0.0378655 0.0523819 0.0661237 0.0564505 0.0570461 0.0584481 0.0528046 0.0643671 0.0765277 0.0905773 0.0805164 0.0752702 0.0812439 0.0740781 0.0910643
77 1 Mg -3.18391 14.1057 52.3125 1.2 1 0.0768526 0.0559055 0.0333944 0.0347373 0.0185974 0.0539704 0.0346789 0.0636828 0.0339927 0.081699 0.0323423 0.0453453 0.0253734 0.0748788 0.031467 0.104524 0.0478166 0.104771 0.042518 0.0876876
78 3 O 2.52432 15.503 50.4579 -1.2 1 0.198399 0.0902002 0.0228496 0.0155369 0.0363602 0.0593281 0.0629909 0.0497085 0.054861 0.0627767 0.0632069 0.0676534 0.0553028 0.0605831 0.0994135 0.076028 0.0785504 0.0701608 0.0599351 0.0880083
79 1 Mg -1.81775 14.0238 55.1336 1.2 1 0.0198086 0.00852385 0.023218 0.0219953 0.0135919 0.0203074 0.0244654 0.0358239 0.0418522 0.0589144 0.0508747 0.0573566 0.063601 0.0622996 0.0656123 0.0701182 0.0740638 0.102352 0.0644471 0.0853722
80 2 Si -1.60946 12.0779 53.2263 2.4 1 0.0532824 0.0383128 0.0243273 0.0254739 0.0314282 0.0376899 0.0426519 0.0563015 0.0648364 0.0603286 0.0597213 0.0647239 0.0794337 0.0513905 0.0705402 0.0619886 0.0669523 0.0834858 0.0638672 0.0656432
81 3 O -1.85167 10.5418 53.3003 -1.2 1 0.0640715 0.032021 0.0265493 0.021569 0.0319176 0.0310333 0.0331299 0.0736877 0.0456052 0.0579279 0.0507755 0.064784 0.0616034 0.074521 0.0663402 0.0612689 0.0542365 0.0550996 0.0736804 0.0632692
82 3 O -1.21337 13.3381 46.4311 -1.2 1 0.520047 0.0676413 0.0703586 0.0405164 0.0555095 0.0585697 0.0588276 0.0699544 0.0787653 0.0650991 0.0456096 0.0709579 0.0680186 0.0883516 0.121052 0.114598 0.106696 0.100519 0.0608405 0.0912781
83 3 O -3.07336 12.8996 53.8845 -1.2 1 0.0298985 0.0215361 0.033943 0.0177703 0.0258281 0.0279597 0.0546394 0.0504991 0.0406645 0.0498146 0.0511353 0.0421409 0.052699 0.0543521 0.090775 0.0603219 0.0722782 0.0636429 0.063046 0.0751559
84 3 O -0.404445 12.7042 53.954 -1.2 1 0.0550232 0.0205257 0.0262922 0.0180607 0.027112 0.0227042 0.0382035 0.0449539 0.0412384 0.059594 0.0564905 0.043831 0.0604325 0.0618695 0.0880245 0.0639118 0.0738314 0.0595147 0.0688795 0.0696772
85 1 Mg -3.07794 21.4965 57.4712 1.2 1 0.0112643 0.00868096 0.0197282 0.0261839 0.0111211 0.0320363 0.0153886 0.0548244 0.024235 0.0763551 0.0359092 0.0445823 0.0310969 0.0611668 0.0349464 0.091809 0.0557639 0.102654 0.0619974 0.0704078
86 1 Mg -1.5831 21.1217 49.8405 1.2 1 0.234242 0.0791225 0.0250208 0.0430527 0.032025 0.0503444 0.049931 0.0529492 0.0514785 0.0593405 0.0639104 0.0684054 0.0724557 0.0713068 0.101714 0.0813235 0.0711689 0.0935674 0.0843345 0.0837908
87 2 Si -1.09384 18.6291 47.9287 2.4 1 0.37911 0.0609947 0.0681606 0.0663319 0.029465 0.0674101 0.045451 0.0800559 0.0621595 0.0665408 0.0543903 0.073881 0.0600556 0.0732831 0.0990597 0.0736723 0.104807 0.0945772 0.09082 0.0876031
88 3 O -1.02071 20.1985 47.9911 -1.2 1 0.365932 0.069498 0.0485868 0.0621228 0.0452935 0.0922791 0.0628928 0.0826195 0.0565761 0.0875656 0.0552027 0.0732257 0.0620546 0.0834539 0.0828528 0.0747223 0.0932817 0.0757821 0.0746752 0.0704613
89 3 O -1.65002 17.5002 51.771 -1.2 1 0.114429 0.0583074 0.0325474 0.0271393 0.0338743 0.0488308 0.0593536 0.0498934 0.0684051 0.0562302 0.0537275 0.0467735 0.0545653 0.084299 0.100625 0.0722272 0.0801032 0.048196 0.0756632 0.0721526
90 3 O -2.26174 18.0434 48.8281 -1.2 1 0.318889 0.0769434 0.0489218 0.0383838 0.0552603 0.0430506 0.0570168 0.071143 0.0610517 0.0668504 0.0719279 0.0593536 0.0480208 0.0592405 0.078773 0.082752 0.0833453 0.0804101 0.0851315 0.0874741
91 1 Mg -0.0440435 16.5651 46.8269 1.2 1 0.484355 0.0202136 0.0792525 0.0298777 0.06192 0.0846626 0.0732376 0.0809459 0.070895 0.0859643 0.0851061 0.0630638 0.0660962 0.0803284 0.0772781 0.0939895 0.0963398 0.0981494 0.0988899 0.105211
92 3 O 0.37001 17.9877 48.3925 -1.2 1 0.339507 0.0884811 0.0652607 0.042664 0.0461016 0.0615904 0.0471393 0.067326 0.0656724 0.0759384 0.0634745 0.0577523 0.0681792 0.086753 0.0933304 0.0789434 0.0955274 0.102251 0.0802704 0.0888462
93 1 Mg 1.38798 16.4945 54.5525 1.2 1 0.006901 0.0304384 0.0175775 0.0303766 0.0101359 0.0199743 0.0206853 0.0350974 0.0460444 0.0592587 0.057628 0.0530025 0.0559382 0.0670662 0.0613645 0.0763047 0.0691507 0.0922828 0.073402 0.0804878
94 2 Si 1.27543 19.1859 56.3356 2.4 1 0.0055419 0.0105518 0.0149164 0.0301713 0.0308341 0.037689 0.0424726 0.0458981 0.0506108 0.0585427 0.0440224 0.055866 0.0683052 0.0570694 0.082257 0.0756311 0.0595553 0.0906981 0.0567369 0.0627216
95 3 O 1.14769 17.5965 56.3528 -1.2 1 0.0221564 0.0197724 0.0120613 0.0226535 0.0263962 0.0239222 0.0246955 0.0709967 0.0322561 0.0553063 0.0453387 0.0622504 0.0585435 0.0591358 0.0737017 0.0695908 0.0564304 0.0697462 0.0684222 0.0653699
96 3 O 1.45147 20.239 52.7294 -1.2 1 0.0695571 0.048271 0.0243988 0.0197553 0.0260306 0.0440403 0.0461417 0.0587967 0.0492583 0.0490687 0.0442778 0.0491186 0.0529848 0.0650473 0.103862 0.0719347 0.0690759 0.060614 0.0680371 0.0693637
97 3 O 0.0388831 19.944 55.5855 -1.2 1 0.00634754 0.0088594 0.0285518 0.0186055 0.019881 0.0218429 0.0431657 0.0415901 0.0338766 0.0522257 0.0545507 0.041856 0.0555278 0.0535323 0.0875046 0.0717337 0.0744899 0.0652375 0.0543845 0.070304
98 3 O 2.53621 19.8297 55.7878 -1.2 1 0.0169976 0.0189444 0.0298532 0.0141482 0.0230617 0.0161613 0.0444347 0.0381026 0.0397421 0.0442159 0.0485698 0.0419275 0.0508453 0.0692897 0.0735877 0.0718725 0.0844052 0.0542063 0.0744809 0.0626214
99 1 Mg -0.126194 18.8651 52.2079 1.2 1 0.0999778 0.0680337 0.0216836 0.0465721 0.0285198 0.043915 0.0368458 0.0700706 0.0242104 0.0874485 0.027717 0.0563533 0.0301019 0.0715401 0.0312379 0.111465 0.0377688 0.101476 0.0361385 0.102999
100 1 Mg 1.92402 18.5815 49.4545 1.2 1 0.26445 0.107703 0.0366956 0.043991 0.0323531 0.0352826 0.068645 0.045646 0.0693716 0.0755622 0.0790048 0.0545035 0.0701711 0.0656958 0.0813138 0.091234 0.0791997 0.0965773 0.0835906 0.0855484
101 2 Si 1.38106 20.9117 51.2443 2.4 1 0.139648 0.0832856 0.0298964 0.0332077 0.0399074 0.0439756 0.0578843 0.0423282 0.0548706 0.0695122 0.0686516 0.0652704 0.070082 0.0675477 0.0933201 0.0845284 0.0757736 0.0844554 0.0700958 0.066323
102 3 O 1.48527 22.4795 51.3054 -1.2 1 0.150738 0.0711135 0.0236012 0.0298793 0.0259853 0.0447355 0.0393986 0.0649478 0.0503041 0.0634241 0.0453602 0.0784591 0.0661312 0.0642853 0.0746526 0.0704159 0.0769998 0.076868 0.067193 0.0751982
103 3 O 1.14357 19.8074 57.9832 -1.2 1 0.011691 0.0217654 0.0196484 0.0145157 0.022862 0.0342979 0.0244559 0.0488969 0.0515162 0.0461203 0.0370922 0.0446755 0.0565047 0.0686141 0.101648 0.0634635 0.0621646 0.0643591 0.0655033 0.0700782
104 3 O 0.0615419 20.2804 50.6669 -1.2 1 0.186236 0.0858721 0.0213091 0.0204464 0.0464789 0.0411933 0.055295 0.0618633 0.0534821 0.0587768 0.0609352 0.0510324 0.0623131 0.074269 0.0930753 0.0743991 0.0740204 0.0827086 0.0741591 0.0860218
105 1 Mg -3.09665 18.8643 52.3122 1.2 1 0.0699061 0.0613462 0.0282822 0.0349177 0.0179763 0.053414 0.0358522 0.0639153 0.0340947 0.0789499 0.0322771 0.0495768 0.0213869 0.0731379 0.0341788 0.113397 0.0405571 0.103324 0.0407077 0.0872271
106 3 O 2.61548 20.2646 50.4626 -1.2 1 0.199941 0.0928492 0.0272432 0.02182 0.0356007 0.0540831 0.0616265 0.0492525 0.0556255 0.0647153 0.0629792 0.0688273 0.0482815 0.0606869 0.0941288 0.0699307 0.0743049 0.0684636 0.0604565 0.0883479
107 1 Mg -1.6615 19.0784 55.1214 1.2 1 0.0175402 0.0158931 0.0217535 0.026262 0.0131586 0.0191022 0.025861 0.0354782 0.0368304 0.0595237 0.0631124 0.061621 0.0599471 0.0597138 0.067176 0.0695288 0.0879653 0.080858 0.0791324 0.0684993
108 2 Si -1.67403 16.9282 53.2221 2.4 1 0.0448922 0.0379157 0.0295394 0.0282349 0.0318229 0.0424688 0.0461621 0.057428 0.063273 0.0536141 0.0524311 0.068551 0.0802174 0.0528993 0.0659629 0.0617543 0.0730861 0.0946931 0.0625593 0.0518481
109 3 O -1.69728 15.3408 53.2677 -1.2 1 0.0669452 0.0334501 0.0211307 0.0202645 0.0307873 0.0335383 0.024902 0.0743252 0.0424215 0.0659695 0.0431826 0.0669013 0.060188 0.0779521 0.0664233 0.0647726 0.0544056 0.0645495 0.0742707 0.0716312
110 3 O -1.12868 18.1227 46.4249 -1.2 1 0.522116 0.0668068 0.0725168 0.0524555 0.0582583 0.0648706 0.0602339 0.0786925 0.0791723 0.0618992 0.04545 0.0682585 0.0672916 0.0869719 0.116055 0.114704 0.107536 0.101465 0.0625678 0.0915997
111 3 O -2.92225 17.6485 53.8375 -1.2 1 0.0338116 0.0270103 0.026955 0.0227446 0.0212916 0.0234144 0.0599934 0.0439404 0.0402703 0.0500789 0.0502309 0.0452272 0.0556738 0.0583747 0.0924805 0.0621276 0.0694728 0.06414 0.0729614 0.0689309
112 3 O -0.324174 17.5861 53.7657 -1.2 1 0.0412293 0.0315388 0.0256554 0.0297489 0.0222163 0.0163164 0.0457556 0.0486787 0.051786 0.0474035 0.0503503 0.047112 0.0650584 0.0588006 0.0968948 0.0578512 0.0746492 0.0665633 0.073746 0.0728375
113 1 Mg -3.03262 25.9303 57.2791 1.2 1 0.00682321 0.021566 0.00875075 0.0312725 0.00782293 0.0326114 0.00906551 0.0565301 0.011812 0.0817349 0.0174225 0.0480318 0.0166738 0.0728238 0.0236214 0.105021 0.023538 0.117445 0.0226989 0.0962089
114 1 Mg -1.48778 25.88 49.8402 1.2 1 0.228277 0.0850415 0.0238745 0.0385327 0.030873 0.0510515 0.0524251 0.0559579 0.0506542 0.0590835 0.0598318 0.0661243 0.076152 0.075157 0.100346 0.0769788 0.074055 0.0988 0.0872145 0.0852095
115 2 Si -1.00491 23.3922 47.9274 2.4 1 0.372997 0.064655 0.0634953 0.0733153 0.0302167 0.0744501 0.042559 0.0832276 0.0681093 0.0732038 0.0524516 0.0755877 0.0597461 0.07501 0.0951834 0.075633 0.103715 0.0955499 0.088875 0.0931796
116 3 O -0.927602 24.9615 47.9909 -1.2 1 0.365531 0.0699919 0.0488448 0.0620946 0.0455585 0.0919059 0.0624282 0.0821819 0.0572538 0.0884621 0.0551785 0.0728061 0.0609455 0.0816083 0.0815565 0.0731254 0.0930797 0.0773675 0.0759725 0.070582
117 3 O -1.55795 22.2588 51.7696 -1.2 1 0.113209 0.0599368 0.0308712 0.0270185 0.0328149 0.0492601 0.0597415 0.0509792 0.0660553 0.0540848 0.0563815 0.0495368 0.0517307 0.0826517 0.0981311 0.0778011 0.0841161 0.0475212 0.0755711 0.0725457
118 3 O -2.17411 22.8111 48.8277 -1.2 1 0.317559 0.0772717 0.049346 0.0390332 0.0549377 0.0472504 0.0567186 0.0689571 0.0593415 0.0667852 0.0712964 0.05928 0.0507042 0.0562594 0.077067 0.082179 0.0858571 0.0810358 0.0848606 0.0870788
119 1 Mg 0.0423997 21.3296 46.8225 1.2 1 0.488582 0.0243749 0.0750245 0.0314407 0.0582954 0.081832 0.0695596 0.0790176 0.073245 0.0892958 0.0874265 0.0627677 0.0644351 0.0809763 0.0771056 0.0901163 0.0939703 0.0984026 0.100356 0.107811
120 3 O 0.458537 22.7495 48.3911 -1.2 1 0.351154 0.0715576 0.0548797 0.0345457 0.0479624 0.0612863 0.0400399 0.0610821 0.0611862 0.0744601 0.061611 0.0549833 0.0657058 0.0834934 0.0905754 0.0767171 0.0947296 0.104501 0.0797397 0.0844999
121 1 Mg 1.44145 21.2306 54.4501 1.2 1 0.01845 0.0253543 0.0183658 0.0286605 0.0116536 0.0189664 0.0288986 0.0311958 0.0440305 0.0602278 0.0551189 0.0576415 0.0590035 0.0679803 0.065292 0.0719733 0.0700409 0.0999528 0.0687545 0.08187
122 2 Si 1.59819 23.9125 56.3135 2.4 1 0.0188528 0.016849 0.021848 0.0231325 0.0242071 0.0268647 0.0406321 0.0369651 0.0479948 0.0652822 0.054871 0.053995 0.0637382 0.0554087 0.0758748 0.0690825 0.0713361 0.0879828 0.0670327 0.0535793
123 3 O 1.48715 22.4423 56.4525 -1.2 1 0.016661 0.0142697 0.0279793 0.0227926 0.0220145 0.0216041 0.0278029 0.062852 0.04385 0.0439468 0.0495181 0.0647933 0.0522855 0.0560339 0.0731993 0.0686322 0.0569838 0.0766393 0.0613345 0.0730575
124 3 O 1.54441 24.9963 52.7297 -1.2 1 0.0802791 0.0426217 0.0263234 0.0204718 0.019446 0.0468459 0.0416717 0.0566141 0.049489 0.0502328 0.0434756 0.0525875 0.0572215 0.0657 0.101541 0.0661817 0.0657266 0.0675557 0.0696472 0.0636408
125 3 O 0.286605 24.5421 55.6481 -1.2 1 0.0109154 0.0130552 0.0251266 0.0175135 0.0190948 0.0180136 0.0395392 0.0388487 0.0398072 0.0502599 0.0477641 0.0402334 0.049832 0.0644076 0.0765563 0.0718065 0.0854938 0.0498279 0.0677671 0.0679507
126 3 O 2.70404 24.7533 55.6485 -1.2 1 0.0261623 0.0134639 0.0331583 0.0176839 0.0200812 0.0176058 0.0440371 0.0375252 0.0382449 0.0383818 0.0564356 0.0420711 0.0507527 0.0593017 0.0836912 0.0720787 0.0717802 0.0646204 0.0660583 0.0643715