ITEM: TIMESTEP
28500
ITEM: NUMBER OF ATOMS
10500
ITEM: BOX BOUNDS xy xz yz pp pp pp
0	8.9688	2.9896
0	118.725	0
0	252.977	0
ITEM: ATOMS id type element xu yu zu q Q_1 Q_2 Q_3 Q_4 Q_5 Q_6 Q_7 Q_8 Q_9 Q_10 Q_11 Q_12 Q_13 Q_14 Q_15 Q_16 Q_17 Q_18 Q_19 Q_20 Q_21
1 1 Mg -3.31072 7.05833 57.4775 1.2 1 0.00760419 0.0110369 0.00754476 0.0260339 0.00716531 0.034048 0.00815618 0.0585467 0.0106877 0.0843552 0.0107262 0.0533692 0.0096819 0.0705593 0.0151681 0.104208 0.0167998 0.114277 0.021512 0.103582
2 1 Mg -1.82655 6.90154 50.0912 1.2 1 0.22399 0.0826101 0.0308113 0.0337014 0.0265141 0.0542069 0.0474645 0.0451324 0.0544973 0.0675169 0.0573917 0.0717936 0.066689 0.0630485 0.0940445 0.0595955 0.0866673 0.0995881 0.073262 0.0793409
3 2 Si -0.257935 3.96038 48.0876 2.4 1 0.372203 0.0719363 0.0733874 0.0369411 0.0610577 0.0516717 0.0736631 0.0756215 0.0565901 0.0775964 0.0564772 0.0682699 0.0622788 0.0838307 0.0961609 0.100697 0.11055 0.0909736 0.0685411 0.0704074
4 3 O -0.335812 5.46814 47.6264 -1.2 1 0.427399 0.0387193 0.0637323 0.0311607 0.0411147 0.0490593 0.0648581 0.0698431 0.0869655 0.0755584 0.0927912 0.0765324 0.070185 0.0672993 0.0909534 0.125257 0.0950348 0.0800575 0.0754513 0.0765898
5 3 O -2.03793 3.43377 51.8941 -1.2 1 0.114948 0.0587674 0.0271328 0.0211838 0.0208645 0.051681 0.0596682 0.0514498 0.0491541 0.0576272 0.0637996 0.0529262 0.0479497 0.0775875 0.0894843 0.0813575 0.0672331 0.0544699 0.0748555 0.0692773
6 3 O -1.54015 3.53929 48.9521 -1.2 1 0.295363 0.0968557 0.0364281 0.0489001 0.0369185 0.0478204 0.0709312 0.0534786 0.0529608 0.0612031 0.0786782 0.067339 0.0705697 0.069051 0.0725152 0.111922 0.0839527 0.0772804 0.0752008 0.0869959
7 1 Mg 1.82954 2.54582 47.1376 1.2 1 0.466248 0.0214369 0.0794549 0.0502733 0.0358757 0.0827706 0.0596959 0.0582028 0.0760751 0.0885944 0.0678923 0.0765109 0.0833396 0.0863349 0.0691306 0.0953307 0.100835 0.102695 0.104604 0.0993385
8 3 O 1.22989 3.66364 48.7877 -1.2 1 0.320965 0.0725495 0.0230608 0.0442335 0.03358 0.0648556 0.0783616 0.0304682 0.0824536 0.0774535 0.0508267 0.0780362 0.0839307 0.0704455 0.0649983 0.0843906 0.0941103 0.0925075 0.0919077 0.0918044
9 1 Mg 1.00561 2.4746 54.7565 1.2 1 0.0134347 0.0233489 0.0180407 0.0337831 0.0193389 0.0313241 0.0244352 0.0297973 0.0502207 0.0608257 0.0609264 0.0538225 0.0559759 0.0692612 0.0579292 0.099863 0.0678179 0.085717 0.0651743 0.0783706
10 2 Si 1.19299 5.11242 56.5303 2.4 1 0.0239303 0.0145674 0.020824 0.0298708 0.0205949 0.0261528 0.0372463 0.0455117 0.057729 0.055387 0.0447095 0.0661011 0.0651156 0.0590282 0.0803599 0.0711462 0.0616127 0.097617 0.053132 0.0541005
11 3 O 1.08119 3.48593 56.631 -1.2 1 0.0149117 0.0119148 0.0147473 0.0198074 0.0241048 0.0230494 0.0295957 0.0629909 0.0396456 0.0444357 0.0405045 0.0647204 0.0563543 0.0610525 0.0753351 0.0692235 0.056749 0.0814834 0.0540859 0.0836963
12 3 O 1.10813 6.07342 52.8172 -1.2 1 0.0928947 0.0396381 0.0239088 0.0184411 0.02014 0.0434063 0.0426603 0.0500811 0.0540315 0.0438058 0.0559726 0.0497221 0.0702849 0.0656832 0.0845231 0.087471 0.060323 0.0664041 0.0681092 0.0707766
13 3 O -0.0805843 5.65637 55.8715 -1.2 1 0.0182033 0.0116178 0.0291497 0.0288568 0.0258414 0.0203773 0.0398938 0.0406213 0.0398744 0.0472121 0.0546653 0.0414199 0.0517519 0.0631861 0.0835279 0.070641 0.0812544 0.0593707 0.0726997 0.0661568
14 3 O 2.43917 5.68178 55.7576 -1.2 1 0.0246418 0.017653 0.0232998 0.0184806 0.0258257 0.0192117 0.0420791 0.0420819 0.0427741 0.0358794 0.0625045 0.0333847 0.055515 0.0619297 0.085008 0.071295 0.0708071 0.0712561 0.0668062 0.0683349
15 1 Mg -0.459401 4.67631 52.2426 1.2 1 0.0915601 0.0650099 0.0350797 0.0395073 0.0317153 0.0327604 0.0402818 0.0615647 0.0438283 0.0782642 0.0444771 0.0577073 0.0513158 0.0729081 0.0439871 0.102443 0.054286 0.0910442 0.0620768 0.0845967
16 1 Mg 2.79456 3.9971 49.9987 1.2 1 0.218869 0.0977281 0.030596 0.0440839 0.0439468 0.0631833 0.0560464 0.0574225 0.0786405 0.0637803 0.0634103 0.0568923 0.0627704 0.074331 0.0861742 0.0763929 0.0752217 0.0895676 0.0816053 0.0728936
17 2 Si 1.16169 6.59457 51.2556 2.4 1 0.136766 0.0863751 0.0389432 0.0346471 0.040638 0.0516351 0.0456479 0.0455288 0.060267 0.0641991 0.0636696 0.0736511 0.0718374 0.0659227 0.0843533 0.0861595 0.077903 0.0894709 0.0754043 0.0657301
18 3 O 1.28989 8.18905 51.2909 -1.2 1 0.14801 0.0833974 0.0275836 0.0383732 0.0347809 0.0469854 0.0365544 0.0727172 0.0505184 0.0687984 0.0435319 0.0896365 0.0669016 0.0637616 0.0787559 0.0691833 0.0740658 0.0685502 0.0697119 0.0738931
19 3 O 1.28009 5.66476 57.9832 -1.2 1 0.0219456 0.0195594 0.0231476 0.0160074 0.0229171 0.0345174 0.0292181 0.0470861 0.0528596 0.044154 0.0428481 0.0446201 0.0582044 0.0674202 0.0958071 0.0736171 0.0663138 0.0675958 0.0755894 0.0621464
20 3 O -0.184847 6.06029 50.6845 -1.2 1 0.182815 0.0814057 0.0224041 0.0312821 0.0361243 0.0309893 0.0550421 0.0598075 0.0558066 0.062652 0.066219 0.0722483 0.0646019 0.0616274 0.0880025 0.0679438 0.0837169 0.0792684 0.0608735 0.0833818
21 1 Mg -3.49704 4.67769 52.6661 1.2 1 0.0772022 0.0464492 0.0215558 0.0277175 0.015023 0.0430913 0.0348603 0.0549903 0.0531976 0.0707002 0.0450845 0.0478815 0.0442236 0.0472517 0.056472 0.084945 0.0868698 0.078557 0.0746185 0.0720639
22 3 O 2.48581 5.93312 50.6539 -1.2 1 0.196792 0.0879242 0.0357687 0.0159047 0.0365043 0.0448015 0.0605273 0.058591 0.0472045 0.0638671 0.0476826 0.0647988 0.0570026 0.0581075 0.0985715 0.0655032 0.0760223 0.0669013 0.0810801 0.076098
23 1 Mg -1.75539 4.6298 55.166 1.2 1 0.0248754 0.0173118 0.0241476 0.0199803 0.0213865 0.0265827 0.0262434 0.0328674 0.0424615 0.054244 0.0542348 0.0536613 0.0631642 0.0676062 0.0627085 0.0674871 0.0854371 0.0960203 0.0659833 0.0805778
24 2 Si -1.95617 2.5871 53.3133 2.4 1 0.0383914 0.0348695 0.0281171 0.028403 0.0244356 0.025825 0.0492638 0.0462139 0.0615776 0.0730056 0.0537277 0.0634401 0.078461 0.0495761 0.0716255 0.0588198 0.0713597 0.0873521 0.081748 0.0661267
25 3 O -2.00748 1.065 53.2929 -1.2 1 0.0540089 0.0303614 0.0237495 0.0269314 0.0248627 0.0347718 0.0269773 0.0674833 0.0572191 0.0633321 0.0497572 0.066249 0.0568147 0.070524 0.0710408 0.0677681 0.0560343 0.0594523 0.0728034 0.0705074
26 3 O -0.0467762 2.97103 46.8385 -1.2 1 0.492872 0.0324487 0.0970252 0.0270312 0.0782764 0.0712194 0.0829888 0.0697826 0.0723933 0.082682 0.0849781 0.0765533 0.0960035 0.0864014 0.0879714 0.0897365 0.100039 0.0972964 0.10664 0.114499
27 3 O -3.22326 3.3582 54.1257 -1.2 1 0.0309389 0.0280428 0.0281598 0.0172112 0.0222578 0.0259663 0.0366662 0.0412892 0.0508596 0.0490768 0.06537 0.0464289 0.0594557 0.0561525 0.0828291 0.0624666 0.0685113 0.0661303 0.0658103 0.0618276
28 3 O -0.71868 3.18182 54.0794 -1.2 1 0.028655 0.0233888 0.0344395 0.0188487 0.0196512 0.0291262 0.0389653 0.0441816 0.0413807 0.056572 0.0614117 0.0443522 0.0540326 0.0764765 0.0706711 0.0648015 0.0795889 0.074717 0.0698382 0.0589927
29 1 Mg -3.3587 11.6313 57.5185 1.2 1 0.015087 0.015061 0.00840035 0.0271074 0.0117045 0.0353738 0.0159885 0.054798 0.0227136 0.0779383 0.0215683 0.043358 0.0232328 0.0697488 0.0288718 0.0981634 0.0377504 0.109518 0.0491162 0.0874112
30 1 Mg -1.75014 11.5838 49.8362 1.2 1 0.230523 0.0807068 0.0265375 0.0410501 0.0295101 0.0544612 0.0488306 0.0554661 0.046165 0.059181 0.0654906 0.0615524 0.0729077 0.0718036 0.107789 0.0880328 0.0640679 0.0939377 0.0864871 0.0812269
31 2 Si -1.18003 9.02138 47.9309 2.4 1 0.367431 0.0711974 0.0698943 0.0542402 0.0423283 0.0617054 0.0724374 0.07803 0.0703877 0.066373 0.0588936 0.0667722 0.0690297 0.0810432 0.102085 0.06389 0.100984 0.0922492 0.103892 0.0883613
32 3 O -1.23224 10.5991 47.9811 -1.2 1 0.375361 0.06492 0.0584695 0.0551844 0.0519923 0.0709643 0.0663183 0.0755688 0.0542943 0.0855457 0.0698215 0.0639565 0.0730495 0.0799456 0.0824426 0.06894 0.091035 0.081967 0.0642701 0.0723084
33 3 O -1.79016 8.01447 51.8693 -1.2 1 0.115057 0.0598531 0.0328246 0.0299976 0.0304935 0.0471725 0.0576436 0.0559554 0.0564236 0.0498361 0.0526533 0.0549696 0.0644524 0.0852054 0.0874819 0.074421 0.0717008 0.0521599 0.07406 0.0674828
34 3 O -2.30986 8.37215 48.8528 -1.2 1 0.311918 0.0873772 0.0667779 0.0237014 0.0536272 0.0620186 0.0676772 0.0655844 0.0569631 0.0664347 0.0803313 0.0664568 0.0557266 0.0633822 0.0787432 0.0914393 0.0979766 0.0797603 0.0746304 0.0925789
35 1 Mg 0.154883 7.08234 46.8007 1.2 1 0.492999 0.0295199 0.0813605 0.0379647 0.0636086 0.074568 0.0608172 0.0712813 0.0708836 0.0809852 0.0885836 0.0762964 0.0785009 0.078645 0.0702814 0.0944243 0.0933406 0.105751 0.1118 0.101675
36 3 O 0.325447 8.50934 48.3809 -1.2 1 0.343173 0.0870595 0.065972 0.0467639 0.0358808 0.0530445 0.0378405 0.060625 0.0637108 0.0627323 0.0758183 0.066452 0.0774153 0.0922561 0.0913161 0.0686203 0.0926138 0.101399 0.0855725 0.0912886
37 1 Mg 1.1432 7.07044 54.6606 1.2 1 0.0201102 0.0289186 0.0159082 0.0310252 0.0181794 0.0219487 0.0221359 0.0257283 0.0451144 0.0630377 0.0581359 0.0533049 0.0504109 0.0622357 0.0558055 0.0930477 0.0673527 0.0863791 0.0771255 0.07877
38 2 Si 1.16469 9.74369 56.4594 2.4 1 0.0250917 0.0167997 0.0163871 0.0228425 0.0280495 0.0347879 0.0434664 0.0392216 0.0540738 0.0547376 0.056206 0.0641639 0.064598 0.0583799 0.0837946 0.0710852 0.0594986 0.092203 0.0586574 0.0616064
39 3 O 1.11065 8.2074 56.6017 -1.2 1 0.0411509 0.0114265 0.0186237 0.0171052 0.0188932 0.0271529 0.0235804 0.0663473 0.0387991 0.0427045 0.0438864 0.0678621 0.0534623 0.0643103 0.0766977 0.0693536 0.0626827 0.0705117 0.0547354 0.0796567
40 3 O 1.28624 10.7248 52.7351 -1.2 1 0.0830115 0.0436896 0.0221211 0.0237446 0.0307705 0.0482148 0.0506627 0.0495158 0.0413799 0.0486641 0.0483713 0.0455951 0.0568541 0.0668075 0.0948054 0.0752464 0.0688192 0.057499 0.0758342 0.0627765
41 3 O -0.108115 10.477 55.817 -1.2 1 0.00653752 0.00957282 0.0267533 0.0173399 0.0148931 0.0218462 0.0390684 0.043155 0.0326953 0.040161 0.0518002 0.0420146 0.0497727 0.0470087 0.091663 0.0687881 0.0768207 0.0631198 0.0604429 0.0762491
42 3 O 2.37124 10.3745 55.715 -1.2 1 0.0281869 0.0180332 0.0249854 0.0176404 0.0232258 0.0225335 0.0395381 0.038316 0.0370965 0.0411605 0.0527764 0.0352082 0.0513934 0.0643935 0.0834263 0.0730115 0.0769311 0.0711214 0.0676601 0.0630139
43 1 Mg -0.262694 9.34741 52.2523 1.2 1 0.112397 0.0622561 0.0243685 0.0423556 0.031252 0.0457899 0.037544 0.0708696 0.0276008 0.0879137 0.0316427 0.053518 0.0382278 0.0762401 0.0418356 0.108129 0.0540178 0.0940513 0.0502849 0.103469
44 1 Mg 1.87648 9.01537 49.4629 1.2 1 0.267715 0.0990178 0.0406684 0.0358966 0.0360073 0.0484007 0.0689246 0.0481361 0.0797924 0.0638541 0.0822301 0.0540879 0.0840323 0.069102 0.0874157 0.096393 0.088604 0.0949281 0.085345 0.0930813
45 2 Si 1.21415 11.3799 51.2378 2.4 1 0.132727 0.0863321 0.040966 0.0379837 0.0403695 0.0508884 0.0552407 0.0414964 0.0548989 0.0663484 0.0750966 0.0712214 0.0783463 0.0688387 0.0921095 0.0910862 0.0787874 0.0791669 0.0784171 0.0566741
46 3 O 1.31634 12.9512 51.3023 -1.2 1 0.131081 0.0833982 0.027662 0.0352577 0.0348066 0.045164 0.0417303 0.0716697 0.0597352 0.0666274 0.0447552 0.0825797 0.070317 0.0675875 0.0757027 0.0686376 0.0761537 0.0728462 0.0705734 0.0683356
47 3 O 1.28299 10.3764 57.9315 -1.2 1 0.0122352 0.021322 0.0240843 0.0138747 0.0138015 0.0351405 0.026362 0.0473761 0.0576531 0.0435774 0.0394627 0.0444496 0.0527954 0.0608338 0.10213 0.0666012 0.0623087 0.0501025 0.0643034 0.0691182
48 3 O -0.115718 10.7564 50.681 -1.2 1 0.192523 0.0788102 0.0225566 0.0203041 0.0465383 0.0325502 0.0515029 0.0635571 0.0503044 0.054979 0.0667315 0.0515843 0.0613914 0.0736174 0.0888133 0.0788431 0.0744328 0.0784808 0.0766483 0.0780086
49 1 Mg -3.26386 9.35564 52.3622 1.2 1 0.0829932 0.0528404 0.0280571 0.0331026 0.0178811 0.0538321 0.0349179 0.0597632 0.0312809 0.084944 0.0323407 0.0492359 0.0361027 0.0692882 0.0370443 0.110967 0.0448722 0.101975 0.0480937 0.0884939
50 3 O 2.45216 10.7265 50.4558 -1.2 1 0.200641 0.0886526 0.022281 0.0146345 0.0363204 0.0563459 0.0620144 0.0490078 0.0566457 0.0689765 0.0657639 0.0696901 0.0513153 0.0655258 0.0992256 0.0848525 0.0752897 0.0778061 0.0574535 0.0867089
51 1 Mg -1.83395 9.57992 55.0517 1.2 1 0.0286107 0.0122397 0.0215054 0.0274497 0.0145882 0.0189121 0.0276338 0.0324957 0.0432112 0.0525816 0.0637965 0.053857 0.057476 0.065668 0.0645802 0.087321 0.0707031 0.0923155 0.0637152 0.0850892
52 2 Si -1.93927 7.33822 53.4116 2.4 1 0.059685 0.0380937 0.0220891 0.0293354 0.0313022 0.03096 0.0480922 0.0528687 0.0532766 0.0657628 0.0624153 0.0621966 0.0719675 0.0506112 0.0638415 0.0647876 0.0708995 0.0862762 0.0677179 0.0616374
53 3 O -1.96119 5.7792 53.3253 -1.2 1 0.0646155 0.0342145 0.0206912 0.0214159 0.0200918 0.028041 0.037061 0.0625393 0.0568575 0.0626576 0.0381917 0.0692485 0.0523341 0.07517 0.0623549 0.0626577 0.0626273 0.0621409 0.0707843 0.0676802
54 3 O -1.19417 8.46968 46.4488 -1.2 1 0.524912 0.0664932 0.0675732 0.0513046 0.0666412 0.0576521 0.0794224 0.0547629 0.0757664 0.0715357 0.0576846 0.0512987 0.0691585 0.0976332 0.130265 0.113716 0.0970937 0.0951846 0.08424 0.0836449
55 3 O -3.20129 8.0581 54.0073 -1.2 1 0.0510138 0.0214667 0.0247208 0.0181259 0.0191731 0.028062 0.0426576 0.0431909 0.0381602 0.0564809 0.0565655 0.0448804 0.0525385 0.0563234 0.0772987 0.0701096 0.066831 0.0650802 0.0672591 0.0805591
56 3 O -0.672844 8.0199 54.0994 -1.2 1 0.0470306 0.0282593 0.0292207 0.0199892 0.0259973 0.0274928 0.0324412 0.0413852 0.0392739 0.0532368 0.0594736 0.0479965 0.0553934 0.0597626 0.0769285 0.0699112 0.0678999 0.0774077 0.0710773 0.0620301
57 1 Mg -3.35672 16.5134 57.4399 1.2 1 0.0048414 0.0114767 0.0145813 0.0220798 0.0137294 0.033162 0.0140022 0.0533132 0.0216213 0.0772138 0.0231063 0.046367 0.0200388 0.070069 0.0287312 0.100118 0.0415007 0.108834 0.0421437 0.0866674
58 1 Mg -1.6714 16.3544 49.8412 1.2 1 0.233487 0.0771385 0.0268082 0.0413993 0.0315307 0.0494011 0.0531243 0.0555999 0.0478573 0.0605337 0.0615932 0.0660462 0.0711072 0.0741169 0.105843 0.0854624 0.074451 0.0959467 0.0842748 0.0823047
59 2 Si -1.18567 13.8526 47.9314 2.4 1 0.379974 0.0592243 0.0676725 0.0654206 0.0279271 0.0654521 0.0467696 0.0796623 0.060653 0.0660806 0.0547098 0.0722588 0.0571554 0.0752477 0.0991726 0.0730987 0.101845 0.0975694 0.0917723 0.0878621
60 3 O -1.09664 15.4205 47.9915 -1.2 1 0.366482 0.0691608 0.0478643 0.0630856 0.0451027 0.0919719 0.0636098 0.0827304 0.0568764 0.0895438 0.0545441 0.0723606 0.0611772 0.0831007 0.0821116 0.0737497 0.0946023 0.0776438 0.0752603 0.0692671
61 3 O -1.73493 12.7491 51.7772 -1.2 1 0.117852 0.0563675 0.0306756 0.0281243 0.0339084 0.0525267 0.0592499 0.048803 0.0686402 0.0529928 0.0557807 0.0480438 0.0575176 0.0824825 0.102237 0.0749322 0.0827647 0.0515409 0.0704105 0.0678801
62 3 O -2.36115 13.2717 48.8238 -1.2 1 0.30846 0.0915219 0.0602313 0.0259805 0.0581509 0.0485046 0.0555981 0.0675881 0.0583545 0.0645276 0.0767592 0.0641826 0.0578356 0.0543589 0.0808372 0.0859258 0.0875799 0.0794678 0.0837627 0.0914741
63 1 Mg -0.159928 11.7639 46.8533 1.2 1 0.482456 0.0252682 0.0769352 0.0343548 0.0533664 0.0961638 0.0696919 0.088402 0.0833142 0.0846842 0.0846375 0.0691167 0.0719538 0.0916259 0.0774297 0.0864779 0.09657 0.0964759 0.0997925 0.107735
64 3 O 0.2623 13.1866 48.413 -1.2 1 0.344489 0.0786284 0.0507002 0.0382954 0.0439633 0.0616985 0.0426525 0.0606808 0.0639478 0.0689434 0.0620902 0.0614009 0.0653685 0.085969 0.0973919 0.0831763 0.0951783 0.0985909 0.0837544 0.0882132
65 1 Mg 1.29596 11.909 54.6708 1.2 1 0.021145 0.0258863 0.0171215 0.0327832 0.016367 0.0199459 0.0217234 0.0297312 0.0462381 0.061304 0.0645459 0.0555392 0.0513732 0.0658546 0.0575799 0.092115 0.0647576 0.088215 0.07665 0.082021
66 2 Si 1.21999 14.5385 56.4281 2.4 1 0.0129761 0.0230907 0.0228755 0.0299617 0.0306477 0.0338598 0.0380846 0.0437966 0.0559726 0.050193 0.0466518 0.0660333 0.0675361 0.0580439 0.0767057 0.0676212 0.0572048 0.0947566 0.0574959 0.0571108
67 3 O 1.17725 12.9583 56.491 -1.2 1 0.0428864 0.011548 0.0096475 0.0191422 0.0211522 0.0256299 0.0188299 0.0593632 0.0392297 0.0490322 0.0381778 0.066068 0.0526245 0.0647495 0.072636 0.0661826 0.05958 0.0741492 0.0558311 0.0742278
68 3 O 1.36565 15.4813 52.729 -1.2 1 0.0723898 0.0415317 0.0343477 0.0226108 0.0233067 0.0398917 0.048847 0.0560613 0.0535288 0.0479408 0.0478365 0.0520176 0.0573148 0.0644412 0.102423 0.0751409 0.0696752 0.0589534 0.0710174 0.0625897
69 3 O -0.0879097 15.1692 55.6253 -1.2 1 0.00269898 0.0108791 0.0233302 0.0171872 0.0140406 0.0211641 0.0371024 0.042187 0.0341339 0.0501061 0.0568566 0.0369714 0.0556368 0.0491342 0.0895087 0.0732382 0.0673282 0.0627358 0.058186 0.0738462
70 3 O 2.43873 15.1803 55.7198 -1.2 1 0.0191781 0.0166665 0.0272741 0.0183641 0.0185031 0.0179471 0.0425699 0.0459452 0.0354391 0.0408853 0.0532123 0.041466 0.0515068 0.0621036 0.0875759 0.070274 0.0784027 0.0569333 0.0690188 0.0681845
71 1 Mg -0.206989 14.1049 52.2121 1.2 1 0.103244 0.0631216 0.0271906 0.0423401 0.0259046 0.0450697 0.0344438 0.0736258 0.0292164 0.0875731 0.0268933 0.0533198 0.0283243 0.0761927 0.0284996 0.107566 0.0382561 0.105145 0.0414681 0.101634
72 1 Mg 1.82591 13.8102 49.4556 1.2 1 0.269953 0.10089 0.035746 0.0407642 0.0333788 0.0366273 0.0672488 0.0430891 0.0692333 0.0710592 0.0733714 0.0570292 0.070326 0.0679182 0.0850808 0.0908572 0.0771844 0.100753 0.0905209 0.0810642
73 2 Si 1.29285 16.1518 51.2434 2.4 1 0.126946 0.0886112 0.0402831 0.0383065 0.0400769 0.0483786 0.0545057 0.0447446 0.05353 0.0687735 0.0685778 0.0731364 0.0707665 0.0706588 0.0918776 0.0851039 0.0730963 0.0845362 0.0724777 0.0623886
74 3 O 1.39496 17.7199 51.3047 -1.2 1 0.135518 0.077302 0.0279419 0.0317249 0.0370282 0.042848 0.0448496 0.0678261 0.0588134 0.0663576 0.0433399 0.0776276 0.0712878 0.0684206 0.0723802 0.0687016 0.0773295 0.077032 0.0675834 0.0712919
75 3 O 1.23005 15.2106 57.8871 -1.2 1 0.015237 0.0172818 0.0273534 0.0152596 0.016818 0.0295764 0.0304351 0.0499453 0.0507802 0.0455512 0.0380916 0.0517699 0.045162 0.0625186 0.109431 0.0682464 0.0710043 0.0498822 0.0679861 0.0645897
76 3 O -0.0269106 15.5178 50.6688 -1.2 1 0.186734 0.0810615 0.0232873 0.0200608 0.0454126 0.0413223 0.0564779 0.0612963 0.0559848 0.0576316 0.0621794 0.0485928 0.0606403 0.0774371 0.0920402 0.0796026 0.0766471 0.0815773 0.07198 0.0892568
77 1 Mg -3.18391 14.1057 52.3125 1.2 1 0.0741905 0.0569132 0.0301899 0.0338263 0.0176487 0.0517427 0.0337985 0.0631147 0.0328094 0.0813738 0.0299232 0.0454968 0.0242662 0.0772938 0.030661 0.110824 0.0443607 0.104281 0.0398377 0.0875468
78 3 O 2.52432 15.503 50.4579 -1.2 1 0.191679 0.0960006 0.0231007 0.015594 0.0367684 0.0587019 0.0611323 0.0478136 0.0558953 0.0649894 0.0694684 0.0636708 0.0571178 0.070013 0.101594 0.0754628 0.074226 0.0739074 0.060845 0.0836102
79 1 Mg -1.77727 14.1502 55.2082 1.2 1 0.0230545 0.0151654 0.0152002 0.0268039 0.0139029 0.0213382 0.0241271 0.0329239 0.0410204 0.053986 0.0546811 0.060493 0.0594042 0.0569783 0.0616678 0.068274 0.0874374 0.0939982 0.06567 0.07873
80 2 Si -1.62318 12.1426 53.2989 2.4 1 0.0504192 0.0324949 0.0219489 0.0333303 0.032922 0.0354884 0.0467023 0.058037 0.0606276 0.0604506 0.0550376 0.0677765 0.0819721 0.0452551 0.0671414 0.0677491 0.0676713 0.0888373 0.0621845 0.0612212
81 3 O -1.71367 10.5125 53.2555 -1.2 1 0.0652618 0.0378923 0.0200875 0.0254156 0.0314336 0.032811 0.0272714 0.0803433 0.0454199 0.0614249 0.0485342 0.0660147 0.0588761 0.0733303 0.0748405 0.0603104 0.0524279 0.063224 0.0674286 0.0750256
82 3 O -1.21337 13.3381 46.4311 -1.2 1 0.520241 0.0679286 0.0691444 0.0408731 0.0566225 0.0572772 0.0568066 0.0701265 0.0798427 0.0658019 0.0460082 0.0714131 0.0682602 0.0876914 0.119994 0.113657 0.106572 0.100668 0.0598059 0.0912055
83 3 O -2.88435 12.7717 54.0494 -1.2 1 0.0279354 0.0242302 0.0296348 0.0274243 0.0259546 0.0290818 0.0492621 0.0420999 0.0405605 0.0559139 0.0532197 0.0406123 0.0578912 0.0576786 0.0766004 0.068992 0.0612433 0.0701943 0.0664081 0.0625031
84 3 O -0.317274 12.7689 53.8725 -1.2 1 0.0489272 0.0301625 0.0257414 0.0224963 0.0196817 0.0215957 0.0395242 0.0502291 0.0465417 0.056086 0.0557422 0.0443677 0.0614237 0.0567544 0.0876366 0.0609557 0.0780748 0.0659251 0.0636469 0.075493
85 1 Mg -3.07015 21.2885 57.5285 1.2 1 0.00974647 0.0124151 0.0116712 0.0299917 0.0107411 0.0374131 0.00944733 0.0575529 0.0136885 0.08822 0.0158289 0.0488185 0.0164283 0.068153 0.0211136 0.102689 0.0281617 0.111362 0.0277616 0.0958571
86 1 Mg -1.5831 21.1217 49.8405 1.2 1 0.226084 0.0852424 0.0231311 0.0441653 0.0304919 0.0531224 0.0554501 0.0532629 0.0505511 0.0635762 0.0631268 0.0667615 0.0746866 0.0766944 0.102733 0.0809602 0.0718117 0.0961161 0.0829452 0.0827165
87 2 Si -1.09384 18.6291 47.9287 2.4 1 0.378854 0.0610046 0.0689307 0.0654424 0.0297406 0.068425 0.0447524 0.0789072 0.0628095 0.068076 0.0527821 0.0718593 0.059231 0.0729031 0.0987164 0.0743567 0.104272 0.0934014 0.091171 0.0896376
88 3 O -1.02071 20.1985 47.9911 -1.2 1 0.365685 0.0700656 0.0488445 0.0623787 0.0450244 0.0918342 0.0632991 0.0827684 0.0561961 0.0880318 0.054595 0.0720375 0.0612126 0.0831063 0.0814527 0.0726636 0.0929367 0.0762686 0.0753755 0.0711473
89 3 O -1.65002 17.5002 51.771 -1.2 1 0.111964 0.0577702 0.0331004 0.0260699 0.0345267 0.0548823 0.0570559 0.05066 0.0661068 0.0504435 0.0596275 0.050644 0.0498891 0.08334 0.101134 0.0781609 0.0824975 0.0447856 0.0735591 0.0703397
90 3 O -2.26174 18.0434 48.8281 -1.2 1 0.299011 0.101016 0.0622261 0.0268348 0.0617187 0.0470813 0.0600272 0.0750256 0.061323 0.0683038 0.0732292 0.059461 0.0522193 0.0581108 0.0776855 0.0880795 0.08672 0.079961 0.0851277 0.088324
91 1 Mg -0.0440435 16.5651 46.8269 1.2 1 0.484422 0.0198968 0.0786721 0.030173 0.0621128 0.0842249 0.0737591 0.0819022 0.0702768 0.0848816 0.0848813 0.0634354 0.0660356 0.0796785 0.0765429 0.0928471 0.0942157 0.0973884 0.100654 0.10691
92 3 O 0.37001 17.9877 48.3925 -1.2 1 0.34143 0.0830364 0.0580937 0.0407827 0.0441407 0.0609838 0.042617 0.0674326 0.0666931 0.0734424 0.0607859 0.056825 0.066121 0.0865803 0.0941897 0.0765766 0.0928626 0.100614 0.0834033 0.0894505
93 1 Mg 1.27408 16.4652 54.534 1.2 1 0.00757354 0.0229934 0.0196726 0.0295302 0.0115034 0.0181577 0.0227224 0.0383612 0.0504504 0.0632627 0.0562978 0.0541767 0.0565345 0.0683231 0.0647388 0.079102 0.0657307 0.0945348 0.0730248 0.0833484
94 2 Si 1.18775 19.3301 56.4253 2.4 1 0.0125804 0.0190559 0.0259622 0.0258429 0.0388758 0.0336094 0.0398542 0.0445873 0.0551333 0.044314 0.0471644 0.0650565 0.0760164 0.0534562 0.0790816 0.070603 0.0649736 0.0852172 0.0601759 0.0467245
95 3 O 1.24978 17.7034 56.506 -1.2 1 0.0359523 0.0137882 0.0146688 0.022068 0.0282742 0.0215837 0.0274717 0.0636782 0.0416504 0.0557026 0.0451402 0.0674494 0.0515783 0.0672112 0.0705503 0.0666553 0.0589905 0.0709332 0.0571158 0.0766513
96 3 O 1.45147 20.239 52.7294 -1.2 1 0.0656386 0.0423634 0.0337952 0.0218205 0.0238218 0.0471824 0.0525565 0.0509468 0.0500631 0.0470739 0.0486133 0.0505318 0.0583611 0.0707853 0.100695 0.0729361 0.0718877 0.062813 0.0771623 0.0610076
97 3 O -0.0397985 19.8948 55.6928 -1.2 1 0.00970159 0.0108541 0.0272121 0.0156362 0.0132024 0.0265181 0.04336 0.0426862 0.0403959 0.0445247 0.0580728 0.0375507 0.0551857 0.0563979 0.0908543 0.0792942 0.068878 0.060557 0.0594623 0.0805127
98 3 O 2.59723 19.8206 55.7476 -1.2 1 0.0159544 0.0176399 0.0278032 0.0170479 0.0219516 0.0166129 0.0469484 0.0463237 0.0308932 0.0411049 0.0542481 0.0399065 0.0497353 0.0758156 0.0789236 0.0737759 0.084849 0.0593335 0.0654575 0.0672427
99 1 Mg -0.126194 18.8651 52.2079 1.2 1 0.103574 0.0656442 0.0234461 0.043268 0.0289841 0.0420177 0.0344094 0.0737537 0.0270954 0.0869362 0.023406 0.0567164 0.0301397 0.0748047 0.0304938 0.104026 0.0418965 0.105548 0.0388597 0.106765
100 1 Mg 1.92402 18.5815 49.4545 1.2 1 0.261756 0.109161 0.0355719 0.0444843 0.0319775 0.035603 0.0689043 0.0439871 0.0660884 0.0758555 0.0788828 0.0554153 0.0748712 0.068867 0.080673 0.0930861 0.079624 0.0971242 0.0824296 0.0869059
101 2 Si 1.38106 20.9117 51.2443 2.4 1 0.128969 0.0874274 0.037018 0.0364575 0.0416067 0.0455207 0.0546806 0.0447126 0.0530634 0.070398 0.0682502 0.0727872 0.0724183 0.0674141 0.0932045 0.0865529 0.0758729 0.0873471 0.0698658 0.0639405
102 3 O 1.48527 22.4795 51.3054 -1.2 1 0.12478 0.0861238 0.0276512 0.0341618 0.0303678 0.0482339 0.0436559 0.0721091 0.0558807 0.0675441 0.0435674 0.077018 0.0708958 0.0666326 0.0747439 0.0680328 0.0803831 0.0795157 0.0706597 0.0701833
103 3 O 1.26269 20.0022 57.9312 -1.2 1 0.0137125 0.0133759 0.0256118 0.0193223 0.0192765 0.0304987 0.027019 0.0454057 0.0534367 0.0457085 0.0379222 0.0483938 0.0512296 0.067195 0.100013 0.0736579 0.0684545 0.0551273 0.0675226 0.0628363
104 3 O 0.0615419 20.2804 50.6669 -1.2 1 0.18165 0.0856069 0.0227906 0.0205747 0.0466223 0.041251 0.0559955 0.0621629 0.0570182 0.0594122 0.061188 0.0492355 0.0643574 0.0789591 0.0913964 0.0809115 0.0749824 0.0810344 0.0733985 0.0871353
105 1 Mg -3.09665 18.8643 52.3122 1.2 1 0.0729102 0.056834 0.0327314 0.0290761 0.0172342 0.0542616 0.0330463 0.0628964 0.0338715 0.0770221 0.0360112 0.0486462 0.026257 0.0730029 0.0297791 0.109435 0.0500967 0.108319 0.0439844 0.0873022
106 3 O 2.61548 20.2646 50.4626 -1.2 1 0.199371 0.0915147 0.030584 0.0179109 0.0419746 0.054987 0.0564446 0.0479029 0.0519615 0.0668859 0.068034 0.0682766 0.0528534 0.0583342 0.0977738 0.073974 0.0716995 0.0656182 0.0645096 0.0876068
107 1 Mg -1.79482 18.8015 55.094 1.2 1 0.021998 0.0144352 0.0172072 0.0248328 0.0169228 0.0219651 0.0229806 0.0329201 0.0453361 0.0536258 0.0549624 0.055513 0.0565465 0.066352 0.060101 0.069206 0.0792359 0.0984279 0.0709176 0.0838325
108 2 Si -1.66558 16.7629 53.1899 2.4 1 0.0537863 0.0405475 0.024908 0.0263576 0.0339625 0.0346825 0.0476435 0.0538319 0.0551376 0.0697559 0.0576363 0.0681385 0.0783475 0.0490642 0.0760706 0.0582188 0.0685638 0.0850757 0.0644998 0.0640019
109 3 O -1.6912 15.1905 53.1299 -1.2 1 0.0709781 0.039442 0.0189336 0.0242794 0.0271418 0.0289758 0.0334175 0.0788371 0.0467548 0.0614193 0.0457057 0.065267 0.0614507 0.0750414 0.0771333 0.0627626 0.0491796 0.0745507 0.0647584 0.0795586
110 3 O -1.12868 18.1227 46.4249 -1.2 1 0.52202 0.0666617 0.0729329 0.051758 0.0573654 0.065604 0.0616133 0.0788945 0.0787751 0.0612379 0.044396 0.0679683 0.0677077 0.0872097 0.115715 0.114143 0.107304 0.101457 0.0623919 0.0921753
111 3 O -2.89457 17.4464 53.9513 -1.2 1 0.0329434 0.0204869 0.0341722 0.0225215 0.0215249 0.0318964 0.0508711 0.0435165 0.044191 0.0576362 0.0512837 0.0407626 0.0523925 0.0679202 0.0758642 0.0742145 0.0674233 0.0622337 0.0663918 0.0697697
112 3 O -0.278692 17.4555 53.8437 -1.2 1 0.0465453 0.0256862 0.0317287 0.0205157 0.024314 0.0238011 0.0433722 0.0538837 0.0521191 0.055188 0.0557591 0.0426043 0.0564731 0.0651327 0.0884393 0.0657028 0.0809124 0.0660016 0.0688616 0.0722678
113 1 Mg -2.95905 26.0965 57.4955 1.2 1 0.0117824 0.020064 0.00665421 0.033395 0.00709904 0.0374013 0.00969782 0.0582233 0.0129758 0.0841652 0.0147169 0.0570517 0.0162078 0.0752105 0.0194751 0.0944121 0.0323221 0.118816 0.0317868 0.0941375
114 1 Mg -1.48778 25.88 49.8402 1.2 1 0.229397 0.0824448 0.0219079 0.0428245 0.029803 0.0513592 0.055871 0.0521461 0.0502382 0.0592693 0.0608758 0.0681229 0.0734315 0.0737769 0.100752 0.0792384 0.0732685 0.0975699 0.0857531 0.0835383
115 2 Si -1.00491 23.3922 47.9274 2.4 1 0.367832 0.072428 0.0709631 0.069696 0.0334154 0.0768464 0.0427679 0.0837491 0.0703966 0.0745751 0.0495286 0.0746867 0.0614155 0.0774579 0.0958969 0.0768915 0.10297 0.0951737 0.0896952 0.0952105
116 3 O -0.927602 24.9615 47.9909 -1.2 1 0.365671 0.0696274 0.0484813 0.0634043 0.0449015 0.090799 0.0638564 0.083715 0.0565918 0.0876511 0.0548219 0.0730388 0.060501 0.0809456 0.0805983 0.0730382 0.0937813 0.0765893 0.0751789 0.0704205
117 3 O -1.55795 22.2588 51.7696 -1.2 1 0.111651 0.0570484 0.0347404 0.0280624 0.0336587 0.0539165 0.0580575 0.0514495 0.064919 0.0519662 0.0585601 0.0479386 0.0525562 0.0852579 0.0990416 0.0779523 0.0819964 0.0450757 0.0751371 0.0754087
118 3 O -2.17411 22.8111 48.8277 -1.2 1 0.298501 0.100916 0.0645273 0.0265017 0.0634778 0.048148 0.058499 0.0709506 0.0603077 0.0689431 0.0728999 0.0603735 0.053655 0.0567126 0.078233 0.0886722 0.0863349 0.0779344 0.0872015 0.0923381
119 1 Mg 0.0423997 21.3296 46.8225 1.2 1 0.481614 0.0220135 0.0804496 0.0321919 0.0662583 0.0881433 0.0791692 0.0853139 0.0689196 0.0839533 0.085141 0.0620959 0.0635116 0.0777125 0.0761094 0.0935404 0.0947267 0.0972004 0.0995713 0.105231
120 3 O 0.458537 22.7495 48.3911 -1.2 1 0.341423 0.0830662 0.058192 0.0419994 0.0445753 0.0594407 0.0416405 0.0680011 0.0673357 0.0725999 0.0615838 0.0581552 0.0656819 0.0869114 0.0941827 0.0755992 0.0922436 0.100565 0.0835709 0.0893392
121 1 Mg 1.40349 21.2399 54.4723 1.2 1 0.0116728 0.0240256 0.0173379 0.0283771 0.014162 0.0203567 0.0255532 0.0381983 0.0420642 0.0629782 0.0535693 0.0578665 0.0638072 0.0675192 0.069476 0.0739305 0.0669048 0.0948393 0.074056 0.0773702
122 2 Si 1.57526 23.9572 56.4635 2.4 1 0.0131182 0.0124203 0.0167114 0.0278692 0.0296719 0.0312933 0.0467509 0.0446516 0.048898 0.0540696 0.0540429 0.0627365 0.0752569 0.0606471 0.0795217 0.0701497 0.0642265 0.0921884 0.0610653 0.0544725
123 3 O 1.4404 22.3981 56.5734 -1.2 1 0.0380687 0.01149 0.0180043 0.0184837 0.0180909 0.02615 0.0218515 0.0621071 0.0362059 0.0501067 0.0481037 0.0685062 0.0483198 0.0660629 0.0809545 0.0656318 0.0528881 0.0748377 0.0524899 0.0765818
124 3 O 1.54441 24.9963 52.7297 -1.2 1 0.0764494 0.0420571 0.0242271 0.0213336 0.0248993 0.0419655 0.0482552 0.0551264 0.047202 0.0478664 0.0422035 0.0494083 0.0599362 0.0667035 0.100052 0.0722259 0.0682296 0.0650938 0.0727211 0.0600217
125 3 O 0.201183 24.7009 55.851 -1.2 1 0.00794065 0.0181849 0.032414 0.0205458 0.0183301 0.0207844 0.0445478 0.039785 0.0357943 0.0378733 0.0515296 0.0435579 0.0527876 0.0560701 0.0954369 0.0719386 0.0747953 0.0586999 0.0681958 0.0727396
126 3 O 2.73692 24.6613 55.6699 -1.2 1 0.0195497 0.0186185 0.0264439 0.0238165 0.0260912 0.0236548 0.0476308 0.0447074 0.0386204 0.0448758 0.055748 0.03565 0.05957 0.0633801 0.0845395 0.0732491 0.0710403 0.0683651 0.061561 0.0657163