ITEM: TIMESTEP
15900
ITEM: NUMBER OF ATOMS
10500
ITEM: BOX BOUNDS xy xz yz pp pp pp
0	8.9688	2.9896
0	118.725	0
0	252.977	0
ITEM: ATOMS id type element xu yu zu q Q_1 Q_2 Q_3 Q_4 Q_5 Q_6 Q_7 Q_8 Q_9 Q_10 Q_11 Q_12 Q_13 Q_14 Q_15 Q_16 Q_17 Q_18 Q_19 Q_20 Q_21
1 1 Mg -3.36229 6.98927 57.3498 1.2 1 0.0110371 0.00995044 0.0127762 0.0284015 0.0108771 0.0309312 0.0133827 0.0527046 0.0192957 0.0755545 0.0246653 0.0477041 0.0217223 0.0715422 0.028412 0.103421 0.0347614 0.106782 0.044832 0.0881801
2 1 Mg -1.82655 6.90154 50.0912 1.2 1 0.218254 0.086366 0.0322865 0.0279945 0.0296977 0.0529325 0.0498771 0.045438 0.0561472 0.0664486 0.0542572 0.0759711 0.069362 0.0617536 0.0946512 0.0596548 0.0864331 0.0998071 0.0752857 0.0829199
3 2 Si -0.257935 3.96038 48.0876 2.4 1 0.366533 0.0802757 0.0810126 0.0295391 0.062923 0.0557521 0.0736329 0.0776267 0.0596522 0.0805616 0.0555667 0.0659758 0.0609717 0.0843361 0.096666 0.100295 0.110407 0.0903175 0.0691153 0.0743579
4 3 O -0.335812 5.46814 47.6264 -1.2 1 0.426957 0.0395618 0.0653767 0.0303596 0.0408423 0.0492619 0.0651957 0.069868 0.0871738 0.0760314 0.0919582 0.0757406 0.0709101 0.0680858 0.0907833 0.124278 0.0947669 0.08075 0.0756886 0.0786674
5 3 O -2.03793 3.43377 51.8941 -1.2 1 0.109861 0.0625324 0.0284039 0.0230633 0.0239119 0.0524803 0.0580484 0.0459283 0.0480161 0.058075 0.0633211 0.0512935 0.050402 0.0772713 0.0873065 0.0840047 0.0661073 0.0592791 0.0722842 0.0677957
6 3 O -1.54015 3.53929 48.9521 -1.2 1 0.294603 0.0985821 0.0385292 0.0493929 0.037531 0.0476241 0.0712824 0.0530505 0.0519556 0.0607264 0.0797717 0.0672808 0.0682432 0.066916 0.074731 0.112173 0.0827805 0.0767854 0.0754243 0.0906563
7 1 Mg 1.82954 2.54582 47.1376 1.2 1 0.462927 0.0198863 0.0819021 0.0537791 0.0401141 0.0844472 0.0633788 0.0599981 0.0742457 0.0868791 0.0689222 0.0780852 0.0815081 0.0843435 0.0691659 0.0966632 0.101778 0.103122 0.105422 0.0993415
8 3 O 1.22989 3.66364 48.7877 -1.2 1 0.318087 0.0740195 0.0216348 0.0474799 0.0321377 0.0643514 0.0796244 0.0336594 0.0826708 0.0786908 0.0526896 0.0773547 0.0837705 0.0676515 0.066486 0.0885591 0.0918485 0.0898158 0.0943111 0.0907233
9 1 Mg 1.15929 2.24141 54.4684 1.2 1 0.0168837 0.0307077 0.0160402 0.0328911 0.0283033 0.0308914 0.0238008 0.0350636 0.0440907 0.0607954 0.0542547 0.0527408 0.0623771 0.0688608 0.0677863 0.0632685 0.0698301 0.0862268 0.0725908 0.0686298
10 2 Si 0.926504 4.99832 56.5633 2.4 1 0.0134388 0.0108958 0.0229913 0.0243204 0.0292096 0.0293977 0.0419208 0.0447603 0.0511303 0.0527422 0.0566245 0.0592192 0.0674134 0.0566881 0.0905674 0.0691267 0.065077 0.0938206 0.0650294 0.0522312
11 3 O 1.01378 3.47381 56.6489 -1.2 1 0.0279034 0.0164459 0.0138481 0.019152 0.0177287 0.0225113 0.031622 0.06651 0.0418327 0.0444482 0.0430264 0.0671216 0.0547677 0.0607808 0.0756 0.0741762 0.0539424 0.0745634 0.0570173 0.0830554
12 3 O 1.10813 6.07342 52.8172 -1.2 1 0.0771635 0.0480976 0.0266742 0.0181412 0.021343 0.0487325 0.0438263 0.0529223 0.051398 0.0409444 0.0558361 0.0508424 0.0666055 0.0704487 0.0837152 0.0857034 0.0595628 0.0664651 0.0665971 0.0685901
13 3 O -0.385281 5.71326 55.9207 -1.2 1 0.0183015 0.0273753 0.020179 0.02415 0.0237341 0.021844 0.0409045 0.0430413 0.0462881 0.0378219 0.0611706 0.0396967 0.0518864 0.053934 0.0871934 0.0760443 0.0713391 0.0619357 0.0631257 0.0759814
14 3 O 2.09412 5.713 55.7726 -1.2 1 0.0254677 0.0155678 0.0308662 0.016953 0.0231388 0.0218593 0.0383306 0.0428588 0.0386444 0.0400026 0.0524622 0.0406835 0.0482182 0.0611252 0.0899652 0.0698073 0.082406 0.0675003 0.0655031 0.0590664
15 1 Mg -0.459401 4.67631 52.2426 1.2 1 0.0887436 0.0666021 0.0358444 0.0418376 0.0312437 0.030677 0.0395825 0.0617871 0.0443804 0.0818308 0.0425357 0.061548 0.0466228 0.075783 0.0441685 0.10243 0.0525216 0.0862512 0.0628614 0.0904103
16 1 Mg 2.79456 3.9971 49.9987 1.2 1 0.226086 0.0910197 0.0308694 0.0378301 0.0409475 0.0624524 0.0551244 0.0546184 0.0800363 0.0613483 0.0604779 0.057122 0.0639294 0.0723359 0.0854967 0.0785596 0.0733104 0.0892746 0.0830578 0.0716945
17 2 Si 1.16169 6.59457 51.2556 2.4 1 0.137565 0.085158 0.0392893 0.0352887 0.0416087 0.0501152 0.0432983 0.0446452 0.0607373 0.0654301 0.0674903 0.0763994 0.0732241 0.0677046 0.0856254 0.0904833 0.0774602 0.0894189 0.0722572 0.0619123
18 3 O 1.28989 8.18905 51.2909 -1.2 1 0.148818 0.0780767 0.0283052 0.0413171 0.0332889 0.0475422 0.0371215 0.0703106 0.0511278 0.0704985 0.0409832 0.0875181 0.0707174 0.0626208 0.0744057 0.0709404 0.075871 0.0676402 0.0676654 0.069807
19 3 O 1.06746 5.66012 58.0528 -1.2 1 0.0114991 0.0159812 0.0232435 0.0158873 0.0223101 0.0369749 0.0303232 0.0425185 0.0492185 0.0464621 0.0375702 0.0488903 0.0485536 0.0657004 0.103558 0.0651977 0.0674229 0.0647868 0.0629894 0.0642125
20 3 O -0.184847 6.06029 50.6845 -1.2 1 0.182762 0.0852611 0.0204216 0.0333115 0.036911 0.0286539 0.0498724 0.0587916 0.0573012 0.0605126 0.0630353 0.0801597 0.0661104 0.0594654 0.0912153 0.0700339 0.0835706 0.0797678 0.0618773 0.0780524
21 1 Mg -3.49704 4.67769 52.6661 1.2 1 0.0617062 0.0586975 0.0246553 0.0257787 0.0163988 0.0420576 0.0342066 0.061094 0.0532893 0.0678195 0.0484934 0.0493183 0.0546672 0.0507577 0.0600118 0.0841177 0.086593 0.0783531 0.0684812 0.0717223
22 3 O 2.48581 5.93312 50.6539 -1.2 1 0.188658 0.0929838 0.0336561 0.0217565 0.0331016 0.0511301 0.0606983 0.0588602 0.0467599 0.0690074 0.0484997 0.065506 0.056743 0.0631142 0.103015 0.0689287 0.0791156 0.0677243 0.0754504 0.0784711
23 1 Mg -2.02431 4.76638 55.2508 1.2 1 0.0227757 0.0211696 0.0227152 0.0298606 0.0217692 0.0213776 0.0220527 0.0377919 0.037856 0.0556399 0.056501 0.058137 0.0576091 0.056771 0.0625835 0.0723287 0.0830532 0.0871846 0.0697064 0.0757238
24 2 Si -1.84798 2.64084 53.3571 2.4 1 0.0298432 0.0371253 0.0235525 0.022073 0.024435 0.0241095 0.0439769 0.0441866 0.0729734 0.0601937 0.0564654 0.0646497 0.0813287 0.0507307 0.0653554 0.0580173 0.0727199 0.0826654 0.0793224 0.0574624
25 3 O -1.92192 1.08797 53.1644 -1.2 1 0.0475382 0.0448788 0.0305076 0.0249792 0.0189761 0.0395152 0.0249072 0.0668277 0.0615905 0.062493 0.0517596 0.0689207 0.0593274 0.0742679 0.0805101 0.0754271 0.0507226 0.0710418 0.0643803 0.072723
26 3 O -0.0467762 2.97103 46.8385 -1.2 1 0.500676 0.0384848 0.085755 0.0294676 0.0776206 0.0675476 0.0828733 0.0739531 0.0710571 0.0771097 0.0825547 0.0785134 0.0995783 0.0895189 0.0846588 0.085093 0.0998811 0.0988048 0.104734 0.109305
27 3 O -3.16274 3.28703 54.1001 -1.2 1 0.0271143 0.0275986 0.0275124 0.0194821 0.0240208 0.0280323 0.035385 0.043423 0.0477763 0.0520213 0.0634166 0.0460815 0.0582106 0.0596318 0.0791898 0.067652 0.0697401 0.0695749 0.0672904 0.0593001
28 3 O -0.619596 3.32078 54.0038 -1.2 1 0.0345612 0.0233782 0.0356548 0.0131708 0.0206498 0.0260017 0.0486576 0.0450453 0.0440311 0.0527951 0.0622265 0.0438465 0.0576007 0.0711644 0.0818268 0.0672291 0.079885 0.0743686 0.064707 0.0623475
29 1 Mg -3.35799 11.7201 57.4826 1.2 1 0.00619084 0.0183418 0.00234458 0.0354007 0.00338461 0.0346856 0.00336008 0.0564062 0.00699071 0.0809011 0.00738387 0.0523272 0.0117758 0.0716017 0.0128652 0.107912 0.013004 0.113912 0.0149054 0.0935761
30 1 Mg -1.75014 11.5838 49.8362 1.2 1 0.230237 0.080897 0.0269019 0.0411648 0.0301624 0.0554346 0.0499329 0.0548105 0.0460071 0.0599568 0.0665262 0.0616061 0.0717965 0.0715889 0.109076 0.0886048 0.0650528 0.0939107 0.0870559 0.0797171
31 2 Si -1.18003 9.02138 47.9309 2.4 1 0.371258 0.0661624 0.0658001 0.0521006 0.0417612 0.0622075 0.0716221 0.0740764 0.069505 0.0659687 0.0582034 0.0662291 0.0674916 0.0812008 0.101968 0.0641901 0.0992078 0.0910677 0.103979 0.0854723
32 3 O -1.23224 10.5991 47.9811 -1.2 1 0.375413 0.0648935 0.0586839 0.0548197 0.0518464 0.070932 0.0664482 0.076353 0.0542712 0.0852277 0.0700868 0.0643814 0.0733328 0.0813717 0.0843114 0.069815 0.0911304 0.0821291 0.0649191 0.072347
33 3 O -1.79016 8.01447 51.8693 -1.2 1 0.114439 0.0602603 0.0342991 0.0291794 0.031794 0.0473123 0.0601909 0.0567338 0.0582642 0.0537703 0.0497795 0.054233 0.064549 0.0837651 0.0897955 0.0738431 0.0732465 0.0545158 0.0717821 0.0663876
34 3 O -2.30986 8.37215 48.8528 -1.2 1 0.311836 0.0875446 0.0663735 0.0243466 0.0535965 0.0614001 0.0665532 0.065717 0.0579647 0.0669406 0.0804283 0.0677637 0.0578214 0.0650519 0.0794872 0.0922596 0.0987596 0.0788936 0.0728451 0.0933591
35 1 Mg 0.154883 7.08234 46.8007 1.2 1 0.497284 0.0362251 0.0756645 0.0386992 0.0647134 0.0752223 0.0591369 0.0681278 0.0706019 0.0823223 0.0890449 0.0764561 0.0790888 0.0798037 0.0702506 0.0923492 0.0930035 0.108094 0.113226 0.100046
36 3 O 0.325447 8.50934 48.3809 -1.2 1 0.34531 0.0838238 0.0673598 0.0460445 0.0360393 0.0505577 0.0419828 0.0604009 0.0623127 0.0653455 0.0760419 0.0657247 0.0798945 0.0942495 0.0912893 0.0692031 0.0930923 0.101638 0.0847812 0.0891651
37 1 Mg 1.16887 7.15282 54.5825 1.2 1 0.0132679 0.0358856 0.0185822 0.0321115 0.0181692 0.0255579 0.0242027 0.0300041 0.041907 0.0572369 0.0574346 0.0566343 0.0516506 0.0611088 0.0631947 0.086865 0.0685117 0.079538 0.0822118 0.0749185
38 2 Si 1.09894 9.73522 56.4178 2.4 1 0.0228745 0.0123256 0.0275572 0.0253603 0.0346877 0.0269628 0.0436425 0.037711 0.0465868 0.0500622 0.0555969 0.0632235 0.0731249 0.0598341 0.0816367 0.0744177 0.0565332 0.0901887 0.0615119 0.0597069
39 3 O 1.06574 8.20007 56.5557 -1.2 1 0.0346907 0.0126754 0.0160987 0.0190992 0.0267068 0.02548 0.0264326 0.0696682 0.0382876 0.0505385 0.0389151 0.073316 0.0579979 0.0675136 0.0741121 0.0642902 0.0610104 0.0706844 0.0606422 0.0700493
40 3 O 1.28624 10.7248 52.7351 -1.2 1 0.0743824 0.040218 0.0322427 0.0212579 0.0312842 0.0458554 0.0507279 0.0512427 0.0471437 0.0469901 0.0472879 0.0478079 0.057084 0.0667511 0.100265 0.0804176 0.0721142 0.0544455 0.0737708 0.0588499
41 3 O -0.120232 10.448 55.7385 -1.2 1 0.0140078 0.015341 0.0235223 0.0154438 0.0198812 0.0229051 0.0429449 0.0438167 0.028971 0.0489192 0.0553609 0.0452327 0.0575452 0.053168 0.0955169 0.0750524 0.0748869 0.0601714 0.061069 0.0674945
42 3 O 2.39969 10.3771 55.818 -1.2 1 0.0219767 0.0104231 0.0300341 0.0174379 0.0229457 0.0185479 0.0479103 0.0404441 0.0364848 0.0452851 0.0532746 0.0418574 0.0514 0.0698152 0.0805738 0.0828126 0.0753921 0.0602378 0.0688485 0.0641943
43 1 Mg -0.262694 9.34741 52.2523 1.2 1 0.116214 0.062879 0.0195901 0.0423879 0.0330457 0.0425673 0.0364341 0.0728886 0.0268087 0.0876692 0.0286486 0.0586358 0.035861 0.0743041 0.0407522 0.101101 0.0453688 0.0967858 0.0485457 0.104357
44 1 Mg 1.87648 9.01537 49.4629 1.2 1 0.270685 0.0966333 0.0385126 0.0375279 0.0337 0.0495157 0.0681872 0.0462909 0.0760686 0.0631154 0.0834015 0.0545591 0.0850087 0.0662265 0.0852661 0.0954274 0.0883003 0.0932522 0.0824842 0.0902577
45 2 Si 1.21415 11.3799 51.2378 2.4 1 0.133702 0.083974 0.0414639 0.0348632 0.0424332 0.0484339 0.0533214 0.0427837 0.0583158 0.066529 0.0728176 0.0697485 0.078756 0.0669882 0.0911473 0.0885297 0.0760828 0.083696 0.0744273 0.0571942
46 3 O 1.31634 12.9512 51.3023 -1.2 1 0.125091 0.0899194 0.0249729 0.033159 0.0345403 0.0437683 0.0451488 0.071058 0.0590072 0.06542 0.0439152 0.0833033 0.072862 0.065798 0.0750159 0.0714421 0.0786314 0.0734088 0.0715379 0.0695351
47 3 O 1.07404 10.3924 57.9815 -1.2 1 0.00902165 0.0189761 0.0294859 0.0128519 0.0187648 0.0319378 0.0338964 0.0490952 0.0532983 0.0452088 0.0401156 0.0463133 0.0520975 0.0670777 0.106246 0.0696709 0.0703451 0.0505007 0.0693917 0.0630982
48 3 O -0.115718 10.7564 50.681 -1.2 1 0.189972 0.0798765 0.0221439 0.0230227 0.0438676 0.0350106 0.0538477 0.0655916 0.0502941 0.0557588 0.0637979 0.05255 0.0644305 0.0765942 0.0907647 0.0801398 0.0743082 0.0797342 0.0798017 0.0814914
49 1 Mg -3.26386 9.35564 52.3622 1.2 1 0.0795813 0.0534137 0.0275669 0.0332648 0.0157082 0.0533616 0.0363364 0.0578799 0.0311311 0.0841403 0.0294915 0.0482997 0.0304552 0.0676746 0.0335426 0.115323 0.0426919 0.103086 0.0469354 0.08986
50 3 O 2.45216 10.7265 50.4558 -1.2 1 0.194057 0.0938357 0.0206485 0.0112744 0.0403895 0.057927 0.0579464 0.0464281 0.0602152 0.0705934 0.0665752 0.073421 0.0560322 0.0673676 0.0979369 0.0829584 0.0700707 0.0742548 0.0578099 0.0860318
51 1 Mg -1.80702 9.54218 55.2057 1.2 1 0.0239775 0.00935911 0.0203965 0.0268785 0.0139633 0.0207741 0.023796 0.0349008 0.0362928 0.0561871 0.0579231 0.0592848 0.0553969 0.0598722 0.0649017 0.0707075 0.08094 0.0881388 0.0770064 0.0753921
52 2 Si -1.75968 7.3588 53.2893 2.4 1 0.0391453 0.0479232 0.0242091 0.0272959 0.0321968 0.0329515 0.048463 0.0518809 0.0641968 0.0612816 0.0572166 0.0614985 0.0768359 0.0457077 0.0700259 0.0619669 0.0681668 0.0868644 0.0677495 0.0606999
53 3 O -1.94252 5.80263 53.3719 -1.2 1 0.0604784 0.0329641 0.0236531 0.0176005 0.0189444 0.0295976 0.035787 0.0626342 0.0408205 0.0668926 0.0390673 0.0716091 0.0594574 0.0765717 0.0610925 0.0606409 0.0592288 0.0575677 0.0762871 0.0631172
54 3 O -1.19417 8.46968 46.4488 -1.2 1 0.524968 0.0664034 0.0669851 0.0512408 0.0665439 0.0563868 0.0784756 0.0542676 0.0753098 0.0705838 0.0566704 0.0509797 0.0696367 0.0981324 0.130294 0.113597 0.0975227 0.0955016 0.0833082 0.0827459
55 3 O -3.07683 8.04554 54.037 -1.2 1 0.0400404 0.0196842 0.0238197 0.0197568 0.0260749 0.0257015 0.0499184 0.0432174 0.0449239 0.0547259 0.0515078 0.0403766 0.0644518 0.0586625 0.0802511 0.0657525 0.066974 0.0632793 0.0689741 0.0688227
56 3 O -0.484782 8.14002 53.9136 -1.2 1 0.0453136 0.0397064 0.025477 0.0309744 0.033827 0.0221901 0.0442303 0.0483169 0.0406956 0.0490842 0.0605797 0.053158 0.0623433 0.0476782 0.0934069 0.0532227 0.0776921 0.066634 0.0683045 0.0726903
57 1 Mg -3.16406 16.4931 57.3063 1.2 1 0.0145714 0.0140985 0.0093859 0.0301593 0.0127709 0.0346655 0.0095338 0.0538707 0.0218685 0.078819 0.0184906 0.0512702 0.022079 0.0689251 0.0271607 0.102117 0.039084 0.109316 0.0451539 0.0879857
58 1 Mg -1.6714 16.3544 49.8412 1.2 1 0.229402 0.0824117 0.0241259 0.043578 0.0298052 0.0526292 0.0539003 0.0531669 0.0477541 0.0622487 0.0620724 0.0649877 0.07483 0.0763584 0.106338 0.084446 0.0723878 0.0947996 0.0850987 0.0849566
59 2 Si -1.18567 13.8526 47.9314 2.4 1 0.374275 0.0677138 0.0770811 0.0604398 0.0327659 0.0689367 0.0471603 0.0801097 0.0631564 0.0662722 0.0517706 0.0706494 0.0580193 0.0756907 0.0977704 0.0765013 0.104798 0.097337 0.0896291 0.0912374
60 3 O -1.09664 15.4205 47.9915 -1.2 1 0.366107 0.0701219 0.0488588 0.0622535 0.0450416 0.0923084 0.0636202 0.0825981 0.0557841 0.0884274 0.0542719 0.0721536 0.0600686 0.0826839 0.082389 0.0740558 0.0929137 0.0755017 0.0752765 0.0701623
61 3 O -1.73493 12.7491 51.7772 -1.2 1 0.114403 0.0572315 0.0318152 0.0335938 0.0313761 0.0534528 0.0642912 0.0483145 0.0631212 0.0527842 0.0591522 0.0499346 0.0535215 0.0872458 0.103533 0.078346 0.0833112 0.0491336 0.0692251 0.0683518
62 3 O -2.36115 13.2717 48.8238 -1.2 1 0.30191 0.0977595 0.0619512 0.0263481 0.0582062 0.0529609 0.0605504 0.0685053 0.0595006 0.0655616 0.0729672 0.0635968 0.0593232 0.0568381 0.0839976 0.0888022 0.0887435 0.0782317 0.0816737 0.0903471
63 1 Mg -0.159928 11.7639 46.8533 1.2 1 0.48937 0.0246285 0.071176 0.0353157 0.0437306 0.0894117 0.0600774 0.0844746 0.0876447 0.0893299 0.0856034 0.0685074 0.0728985 0.0948051 0.0789107 0.0825904 0.0954087 0.0991501 0.102975 0.110513
64 3 O 0.2623 13.1866 48.413 -1.2 1 0.34357 0.0779141 0.0537009 0.0397963 0.0452941 0.0591239 0.0392535 0.0649101 0.0685231 0.0700218 0.0601965 0.0594204 0.06514 0.0868736 0.0978101 0.0824192 0.0943324 0.0982169 0.0835643 0.0874724
65 1 Mg 1.2511 11.7111 54.5412 1.2 1 0.00635583 0.0273828 0.00956619 0.0332822 0.0113244 0.0203177 0.0224763 0.0371382 0.0456175 0.0573506 0.055463 0.0543017 0.0579154 0.0676498 0.0635244 0.0767505 0.0709683 0.0924833 0.0686506 0.0827561
66 2 Si 1.14784 14.4097 56.4128 2.4 1 0.0172462 0.0194324 0.0242801 0.0278879 0.0338164 0.0253421 0.0378332 0.0399284 0.046679 0.0533459 0.0579457 0.0574665 0.0709144 0.0576002 0.083404 0.0774186 0.0618257 0.0868219 0.0580211 0.0569648
67 3 O 1.19865 12.8617 56.5676 -1.2 1 0.0315207 0.0149849 0.0196226 0.0206589 0.016199 0.02897 0.0194923 0.069808 0.0393119 0.0555384 0.0397038 0.0708694 0.0542159 0.0667343 0.0775946 0.072818 0.0593512 0.0728447 0.0526679 0.0737459
68 3 O 1.36565 15.4813 52.729 -1.2 1 0.0739794 0.0390548 0.0296553 0.0215107 0.0240947 0.0472672 0.0499315 0.0545532 0.0511674 0.0464651 0.0474013 0.0489308 0.0555017 0.0669997 0.102434 0.0733851 0.0727303 0.0596812 0.0729175 0.0601661
69 3 O -0.109395 15.1292 55.7798 -1.2 1 0.00895859 0.0206128 0.0212838 0.0221335 0.0172596 0.0235809 0.0425429 0.0481899 0.0383814 0.0465369 0.0527097 0.0445483 0.0555205 0.0603329 0.0950798 0.0727291 0.0721051 0.059886 0.0621959 0.0764875
70 3 O 2.42644 15.1432 55.7117 -1.2 1 0.0140897 0.0181776 0.0280179 0.0198263 0.0243522 0.0209657 0.0516602 0.0495155 0.0325429 0.0466623 0.0520731 0.0367224 0.051404 0.0667407 0.085386 0.083719 0.0774155 0.0623241 0.0610688 0.0618557
71 1 Mg -0.206989 14.1049 52.2121 1.2 1 0.105058 0.0645784 0.0245712 0.0421933 0.0302142 0.0426391 0.0348689 0.0729294 0.0250481 0.0902416 0.0249053 0.0565594 0.0282655 0.07635 0.0298634 0.104649 0.0391042 0.104483 0.0385349 0.102965
72 1 Mg 1.82591 13.8102 49.4556 1.2 1 0.263191 0.106327 0.0340313 0.0425215 0.035173 0.0368698 0.0686988 0.0449218 0.0669309 0.0754833 0.0769357 0.0561743 0.0746996 0.0711927 0.0816741 0.091434 0.0781612 0.0976 0.0891945 0.0849271
73 2 Si 1.29285 16.1518 51.2434 2.4 1 0.128111 0.0862245 0.0397295 0.0355949 0.038828 0.0482415 0.0532693 0.0437945 0.0564965 0.0683295 0.0679329 0.0722611 0.0732372 0.0662613 0.0931946 0.0868381 0.07307 0.0858555 0.0696339 0.0614813
74 3 O 1.39496 17.7199 51.3047 -1.2 1 0.126799 0.0849931 0.0274847 0.035749 0.0367613 0.043346 0.04311 0.0736088 0.0558275 0.0663706 0.0434451 0.0831396 0.0703042 0.0658064 0.0766429 0.0679067 0.0762453 0.0786351 0.0694041 0.0691188
75 3 O 1.20105 15.1114 57.959 -1.2 1 0.00838013 0.0191639 0.0270646 0.0186169 0.0175509 0.0334083 0.0336755 0.0492094 0.0525423 0.0434829 0.0432308 0.0483856 0.0480516 0.0681607 0.107665 0.0750116 0.0668462 0.0466499 0.0673559 0.0685885
76 3 O -0.0269106 15.5178 50.6688 -1.2 1 0.181938 0.0833878 0.0227534 0.0248908 0.0439484 0.0401468 0.0534135 0.0682299 0.0531674 0.0567733 0.0602845 0.0497594 0.0633353 0.0787043 0.0949452 0.080833 0.0750573 0.080085 0.0695532 0.0860238
77 1 Mg -3.18391 14.1057 52.3125 1.2 1 0.0712424 0.0557912 0.0354551 0.0322712 0.0178411 0.052136 0.0369451 0.0632302 0.0345719 0.0797848 0.0331858 0.0477043 0.0255015 0.0764863 0.0292 0.113874 0.0420733 0.104959 0.0403943 0.0897605
78 3 O 2.52432 15.503 50.4579 -1.2 1 0.195075 0.0923261 0.0231739 0.0117994 0.0390819 0.0561498 0.0609821 0.0497443 0.0539689 0.0651311 0.0663842 0.0664123 0.0555604 0.0653315 0.10164 0.0779966 0.0771035 0.0716613 0.0616301 0.0867529
79 1 Mg -1.87938 14.1397 55.2138 1.2 1 0.0187252 0.0140912 0.0190036 0.0245817 0.0202008 0.0239707 0.0246963 0.034744 0.0386747 0.057341 0.0545915 0.0599541 0.0611314 0.0609667 0.0642584 0.0673571 0.0836046 0.0953519 0.0669221 0.0794035
80 2 Si -1.68926 12.0882 53.2713 2.4 1 0.0482484 0.0417901 0.0226528 0.0269 0.0352274 0.0320145 0.0449211 0.0553638 0.0608652 0.0630808 0.0599179 0.0720309 0.0797892 0.0522672 0.0718875 0.0647337 0.0658612 0.0868162 0.0628062 0.0594792
81 3 O -1.78377 10.535 53.2126 -1.2 1 0.0621945 0.0406068 0.0262848 0.0249926 0.0271797 0.0365104 0.0304874 0.0753052 0.0449427 0.0604589 0.0526373 0.0703266 0.060695 0.0782713 0.0710619 0.0670575 0.0481801 0.0651334 0.0650321 0.0752328
82 3 O -1.21337 13.3381 46.4311 -1.2 1 0.520179 0.0678906 0.0696284 0.0407667 0.0562158 0.057871 0.0578896 0.0704779 0.0798825 0.0659469 0.0460033 0.0712236 0.0682172 0.0880626 0.120665 0.114373 0.106563 0.10013 0.0599603 0.091619
83 3 O -2.94813 12.7261 53.9708 -1.2 1 0.0297637 0.0223533 0.0311547 0.0221712 0.0270489 0.0314437 0.0485703 0.0490924 0.0458789 0.0546648 0.0481172 0.041804 0.05534 0.0667161 0.0802835 0.0748094 0.0653652 0.0630296 0.0653434 0.064471
84 3 O -0.394005 12.7697 53.8606 -1.2 1 0.0393195 0.0262038 0.030279 0.0243287 0.0291656 0.0207994 0.044464 0.0559371 0.0482449 0.0540626 0.0556003 0.0475377 0.0617133 0.0658723 0.0977807 0.0606648 0.0847055 0.061426 0.0664121 0.0718408
85 1 Mg -3.21798 21.3587 57.5493 1.2 1 0.0119311 0.0145002 0.00686404 0.0315374 0.00956601 0.0356213 0.0134273 0.0550418 0.0219945 0.0801214 0.019392 0.0529232 0.0249407 0.0666622 0.0237714 0.0998202 0.0361584 0.109174 0.0432342 0.091275
86 1 Mg -1.5831 21.1217 49.8405 1.2 1 0.23296 0.0797366 0.0262886 0.0377198 0.0347308 0.0471117 0.0525244 0.0564999 0.050214 0.0585541 0.0618717 0.0643284 0.0719425 0.0715228 0.0992967 0.0772396 0.0731643 0.0968071 0.0864349 0.083765
87 2 Si -1.09384 18.6291 47.9287 2.4 1 0.369946 0.0737873 0.0794327 0.0647312 0.0311205 0.0682312 0.0489107 0.0836254 0.0635064 0.0681319 0.0537927 0.0721857 0.060847 0.0750992 0.0996719 0.0743919 0.105724 0.0951395 0.0890942 0.0905606
88 3 O -1.02071 20.1985 47.9911 -1.2 1 0.365615 0.0702274 0.0494018 0.0628134 0.0451002 0.0916627 0.063061 0.0824264 0.0562918 0.0884991 0.0548969 0.0726994 0.0609711 0.0817902 0.0813177 0.0735728 0.0929784 0.0769247 0.0758917 0.0695577
89 3 O -1.65002 17.5002 51.771 -1.2 1 0.108692 0.0586503 0.0340917 0.0323099 0.0308146 0.053596 0.0623974 0.0511575 0.0657118 0.056043 0.0565932 0.0483983 0.0501854 0.0855701 0.10357 0.0779383 0.0804873 0.0452751 0.0752746 0.0719301
90 3 O -2.26174 18.0434 48.8281 -1.2 1 0.297144 0.10166 0.0622574 0.027187 0.0630945 0.051217 0.0571752 0.0733443 0.0598971 0.0669774 0.0721095 0.0616108 0.0558121 0.0580015 0.0785266 0.0877888 0.0865164 0.0782501 0.0839733 0.0923631
91 1 Mg -0.0440435 16.5651 46.8269 1.2 1 0.481183 0.0217201 0.0811151 0.0328324 0.0666096 0.0868657 0.0786543 0.0857105 0.0689981 0.0834994 0.0848741 0.0622228 0.0632584 0.0773228 0.0761531 0.0938899 0.0939212 0.0961079 0.098695 0.10482
92 3 O 0.37001 17.9877 48.3925 -1.2 1 0.336671 0.0891917 0.0621926 0.0367065 0.0453066 0.0626064 0.0466704 0.0715578 0.065688 0.0753096 0.0634109 0.0560495 0.0659176 0.0886969 0.0968353 0.07786 0.0938295 0.100729 0.0806943 0.0869215
93 1 Mg 1.31811 16.5812 54.5351 1.2 1 0.0124686 0.0268455 0.0126381 0.0297153 0.0122893 0.0226915 0.0275932 0.0409633 0.0447143 0.0576771 0.0605764 0.0554989 0.0592752 0.0682889 0.0694888 0.0821672 0.0725209 0.0844489 0.0763955 0.0761093
94 2 Si 1.36491 19.2274 56.4503 2.4 1 0.0174696 0.0154203 0.0165779 0.0237731 0.0270743 0.0352228 0.0398961 0.0404327 0.053875 0.0496129 0.0528176 0.06539 0.0707548 0.05689 0.0817998 0.0690709 0.0627253 0.0958979 0.0549466 0.0543125
95 3 O 1.30948 17.7411 56.4799 -1.2 1 0.0203707 0.0120189 0.0199965 0.0181935 0.026493 0.0253436 0.0238383 0.0661901 0.0365671 0.0494324 0.0428221 0.0670272 0.0612916 0.0672447 0.073601 0.0689167 0.0587658 0.0716986 0.0630093 0.0715814
96 3 O 1.45147 20.239 52.7294 -1.2 1 0.0713683 0.0386966 0.0308025 0.0214849 0.024919 0.0408474 0.0498932 0.0559428 0.0520392 0.0483564 0.0450656 0.0515297 0.0558345 0.0639385 0.102552 0.0731592 0.0717846 0.0614657 0.0715414 0.0612974
97 3 O 0.125177 20.0035 55.7685 -1.2 1 0.005589 0.0181265 0.0258726 0.0205854 0.0217319 0.0189932 0.0452286 0.044508 0.0323751 0.0436935 0.0487667 0.0468227 0.0556447 0.0539182 0.0975367 0.0675428 0.0770752 0.0596165 0.0619755 0.0716011
98 3 O 2.65251 19.9799 55.8325 -1.2 1 0.0261146 0.00984465 0.0311013 0.0210167 0.0249608 0.0175857 0.0474017 0.0448989 0.0433313 0.0389796 0.0528236 0.041101 0.0555936 0.0623835 0.0898637 0.0704438 0.0726714 0.0636977 0.0645871 0.0640185
99 1 Mg -0.126194 18.8651 52.2079 1.2 1 0.104787 0.067512 0.0226891 0.0441728 0.0271708 0.0413263 0.039008 0.0704072 0.0270039 0.0863076 0.0247414 0.0545955 0.0313846 0.0763769 0.0317983 0.103426 0.043079 0.110102 0.0392596 0.100506
100 1 Mg 1.92402 18.5815 49.4545 1.2 1 0.263632 0.107295 0.0335792 0.044897 0.0294495 0.0340115 0.0706375 0.0421354 0.0697461 0.0736032 0.0774331 0.0559238 0.075162 0.0693404 0.0852693 0.0921646 0.0776311 0.0948786 0.084307 0.0860416
101 2 Si 1.38106 20.9117 51.2443 2.4 1 0.123686 0.0889772 0.0404452 0.0376474 0.0407415 0.0500588 0.0521886 0.0452148 0.0550008 0.0655067 0.0671632 0.0741065 0.0707912 0.0701973 0.0937622 0.0853648 0.0767377 0.0838827 0.0681536 0.0645591
102 3 O 1.48527 22.4795 51.3054 -1.2 1 0.128791 0.0818845 0.033272 0.0412039 0.0395701 0.0410443 0.0456077 0.0710977 0.0595161 0.065278 0.0421383 0.0813495 0.0683901 0.0641385 0.080249 0.0711697 0.0749756 0.0775547 0.0689895 0.07092
103 3 O 1.29989 19.9009 57.9654 -1.2 1 0.0200619 0.0168958 0.025697 0.0179957 0.0217688 0.0365667 0.0316236 0.0465214 0.0465649 0.0458108 0.0395962 0.0463655 0.0537408 0.0644572 0.106098 0.0655818 0.066418 0.0607295 0.0724414 0.0680182
104 3 O 0.0615419 20.2804 50.6669 -1.2 1 0.184534 0.0852496 0.0225625 0.0252877 0.0431549 0.0374818 0.0537409 0.0666337 0.0552564 0.0555873 0.0586269 0.0479732 0.0639573 0.0758649 0.0918742 0.080468 0.079296 0.077897 0.0732379 0.0892543
105 1 Mg -3.09665 18.8643 52.3122 1.2 1 0.0701327 0.0568596 0.035185 0.0341226 0.0150927 0.0563437 0.0364594 0.0608414 0.0372481 0.0835921 0.0320899 0.0474317 0.0207027 0.0749199 0.0333274 0.110695 0.0430238 0.104394 0.043841 0.0915142
106 3 O 2.61548 20.2646 50.4626 -1.2 1 0.187432 0.100711 0.023958 0.0155885 0.0425996 0.0563621 0.0597946 0.0459539 0.0586276 0.0684487 0.0684254 0.0676975 0.0556583 0.0637408 0.101562 0.0751572 0.0745525 0.0697658 0.0635867 0.0846735
107 1 Mg -1.55254 18.8707 55.1526 1.2 1 0.0198885 0.0117069 0.0158378 0.0225034 0.0156725 0.0271059 0.0240605 0.0360227 0.0419919 0.0589771 0.057294 0.0555573 0.0568892 0.0690877 0.0632614 0.0747133 0.0777296 0.0996453 0.0641656 0.0808751
108 2 Si -1.60224 16.8257 53.2595 2.4 1 0.0443922 0.0376553 0.0258873 0.0271483 0.0388251 0.0320284 0.0495921 0.0547112 0.0570062 0.0573748 0.056936 0.0681044 0.0846497 0.051075 0.0752277 0.06562 0.0691228 0.0861297 0.0623007 0.0575138
109 3 O -1.64362 15.2567 53.1857 -1.2 1 0.0560987 0.0474996 0.022098 0.0242662 0.0280999 0.0366483 0.0296654 0.0761164 0.0425366 0.0646333 0.0445437 0.073229 0.0606775 0.0785717 0.0775834 0.0641797 0.0532113 0.0711802 0.0655839 0.0779674
110 3 O -1.12868 18.1227 46.4249 -1.2 1 0.522037 0.066487 0.0726219 0.0519033 0.0575597 0.0651039 0.0609876 0.0791421 0.0795981 0.0621458 0.0448007 0.0677164 0.0673208 0.0873483 0.116385 0.114939 0.107463 0.101038 0.0621295 0.0919711
111 3 O -2.94221 17.4531 53.8483 -1.2 1 0.0304411 0.0323299 0.0286029 0.0230753 0.0305282 0.0232137 0.0589552 0.0448022 0.0463187 0.0512897 0.0477939 0.0451955 0.0532963 0.0779067 0.0775418 0.0719416 0.0724536 0.0590496 0.0680558 0.0683375
112 3 O -0.303338 17.5342 53.8717 -1.2 1 0.0326364 0.0342396 0.0274563 0.0257285 0.0339895 0.0165624 0.0434479 0.0552945 0.0468314 0.0534959 0.0573236 0.0480665 0.0628539 0.0578085 0.0951285 0.0622776 0.0828484 0.0666391 0.0658059 0.0733845
113 1 Mg -3.09535 26.0372 57.5134 1.2 1 0.00999179 0.0186082 0.00476743 0.0321891 0.0074522 0.0338696 0.00747361 0.0554282 0.0154616 0.0818664 0.013191 0.049129 0.0165259 0.070483 0.0160595 0.104705 0.0269047 0.111297 0.0320438 0.0921056
114 1 Mg -1.48778 25.88 49.8402 1.2 1 0.226057 0.0852799 0.0224963 0.0438056 0.0296184 0.0524601 0.0542537 0.0552742 0.050782 0.0618193 0.0637751 0.0640606 0.0733975 0.0757347 0.103262 0.0822346 0.0747527 0.0944696 0.0844271 0.0850487
115 2 Si -1.00491 23.3922 47.9274 2.4 1 0.367592 0.0729741 0.0713273 0.0696242 0.0336178 0.0763804 0.0433229 0.0841983 0.0710814 0.0732943 0.0492628 0.0749937 0.0595569 0.0766534 0.0953059 0.0772031 0.103525 0.0953227 0.0880923 0.0952952
116 3 O -0.927602 24.9615 47.9909 -1.2 1 0.370236 0.0624716 0.0417614 0.0636657 0.0446414 0.0906355 0.0625275 0.080352 0.0546395 0.0870348 0.0537733 0.0739373 0.0615801 0.0783684 0.0773807 0.072857 0.095891 0.0772205 0.0731573 0.0710521
117 3 O -1.55795 22.2588 51.7696 -1.2 1 0.111441 0.0573004 0.0350974 0.0284712 0.0344099 0.0538766 0.0589111 0.0495492 0.0671135 0.0509993 0.0568831 0.0491526 0.0527984 0.0826331 0.101936 0.0744474 0.079376 0.0409529 0.0776758 0.0768144
118 3 O -2.17411 22.8111 48.8277 -1.2 1 0.296741 0.10173 0.0627696 0.0274612 0.0625705 0.0518627 0.0582799 0.0735476 0.060015 0.0662967 0.0715971 0.0609241 0.05675 0.0587073 0.0781812 0.0866917 0.0863688 0.0795717 0.0856066 0.0919944
119 1 Mg 0.0423997 21.3296 46.8225 1.2 1 0.481515 0.0223644 0.080996 0.0325014 0.06571 0.0867804 0.0780604 0.0859407 0.0691934 0.0830376 0.0850599 0.0627053 0.0631653 0.0772156 0.075859 0.0936851 0.0953882 0.0973326 0.0984518 0.104446
120 3 O 0.458537 22.7495 48.3911 -1.2 1 0.341043 0.0838853 0.059198 0.0414992 0.0442778 0.0599014 0.0433861 0.0683587 0.0671482 0.07393 0.0617224 0.0579117 0.0658281 0.0871087 0.0936035 0.0758441 0.0936601 0.101445 0.0811083 0.0863985
121 1 Mg 1.33567 21.3514 54.6212 1.2 1 0.00643317 0.0285882 0.0169358 0.0319178 0.0131216 0.0217779 0.019233 0.0327689 0.0446371 0.0597776 0.0580099 0.0521053 0.0527272 0.0700798 0.0613167 0.0917682 0.0715274 0.0913605 0.0729652 0.0832774
122 2 Si 1.42244 24.0169 56.3859 2.4 1 0.0170522 0.0143661 0.0167157 0.0249747 0.0312305 0.0343757 0.0410593 0.0403556 0.054944 0.0512466 0.0512332 0.0625135 0.0706017 0.054772 0.074152 0.0717667 0.0572545 0.0969558 0.0553713 0.0510424
123 3 O 1.38198 22.4755 56.5634 -1.2 1 0.0278898 0.00606252 0.0247835 0.0212838 0.0230548 0.0251978 0.023576 0.0647614 0.0380482 0.0443616 0.0468748 0.0691703 0.0544477 0.060951 0.0784444 0.0683842 0.0602912 0.0746961 0.0551447 0.0790777
124 3 O 1.54441 24.9963 52.7297 -1.2 1 0.071054 0.0388425 0.0298199 0.0198168 0.0265143 0.0455184 0.0504977 0.0524819 0.0481511 0.0486226 0.0468704 0.0509847 0.0587467 0.0664466 0.103019 0.0721054 0.0723167 0.060429 0.0728347 0.0609169
125 3 O 0.0635588 24.7638 55.8022 -1.2 1 0.00402739 0.0158627 0.0306955 0.0203929 0.017936 0.0212461 0.0402489 0.0434168 0.0422395 0.0397594 0.0530931 0.0440271 0.0552357 0.0500556 0.096995 0.0700463 0.072388 0.0664645 0.0598551 0.0771147
126 3 O 2.68288 24.6374 55.6082 -1.2 1 0.00543237 0.00966197 0.0207187 0.0186443 0.0208211 0.0256006 0.0477155 0.0477615 0.0372179 0.049426 0.0574079 0.037544 0.0597449 0.0647412 0.0765421 0.0837924 0.064529 0.072984 0.0639102 0.0600609