ITEM: TIMESTEP
75300
ITEM: NUMBER OF ATOMS
10500
ITEM: BOX BOUNDS xy xz yz pp pp pp
0	8.9688	2.9896
0	118.725	0
0	252.977	0
ITEM: ATOMS id type element xu yu zu q Q_1 Q_2 Q_3 Q_4 Q_5 Q_6 Q_7 Q_8 Q_9 Q_10 Q_11 Q_12 Q_13 Q_14 Q_15 Q_16 Q_17 Q_18 Q_19 Q_20 Q_21
1 1 Mg -3.2706 6.83995 57.1437 1.2 1 0.0131021 0.0138878 0.0178242 0.0211813 0.0210793 0.0301829 0.0295629 0.0441528 0.0386316 0.0709169 0.0475424 0.0410951 0.033961 0.0596003 0.0432507 0.0803657 0.0615372 0.103422 0.065034 0.0729978
2 1 Mg -1.82655 6.90154 50.0912 1.2 1 0.219232 0.0848021 0.0308599 0.0283612 0.0303889 0.052664 0.0492092 0.0451372 0.058046 0.0653787 0.0561838 0.0741532 0.0657859 0.0616785 0.0967016 0.0562735 0.0840302 0.0987671 0.0750794 0.0811553
3 2 Si -0.257935 3.96038 48.0876 2.4 1 0.372555 0.0716431 0.0727129 0.039321 0.0595884 0.0509965 0.0759843 0.0776591 0.0589375 0.0798595 0.0570772 0.0676269 0.0605569 0.0822944 0.0952534 0.100382 0.110097 0.0905436 0.0679141 0.0710912
4 3 O -0.335812 5.46814 47.6264 -1.2 1 0.427635 0.0378066 0.0624971 0.0323511 0.0403104 0.0468057 0.0662799 0.0715756 0.0872975 0.078336 0.0953439 0.0773486 0.0704873 0.0664536 0.0890917 0.124367 0.0937002 0.0784015 0.0768372 0.0796034
5 3 O -2.03793 3.43377 51.8941 -1.2 1 0.112582 0.0603429 0.0322658 0.0236817 0.0220932 0.0478516 0.0635194 0.0500224 0.0484324 0.0583345 0.0627746 0.0544284 0.0513616 0.0793851 0.0873638 0.0830015 0.0670968 0.056997 0.0725264 0.0653192
6 3 O -1.54015 3.53929 48.9521 -1.2 1 0.302562 0.0891448 0.0306076 0.0491654 0.0292513 0.0502238 0.0751093 0.0508793 0.0527451 0.0640631 0.07515 0.0686133 0.0746891 0.0716695 0.0767025 0.112005 0.0854731 0.0783512 0.075247 0.0910784
7 1 Mg 1.82954 2.54582 47.1376 1.2 1 0.463044 0.0205326 0.0818319 0.0547344 0.0408709 0.0841477 0.0625326 0.0592195 0.0755577 0.0885737 0.0680228 0.0764457 0.0812456 0.0841077 0.0694102 0.0961777 0.0988184 0.100416 0.10432 0.0979456
8 3 O 1.22989 3.66364 48.7877 -1.2 1 0.324887 0.0674094 0.0202001 0.0429213 0.032794 0.064766 0.0767999 0.0324254 0.0826172 0.0772637 0.0473979 0.0757785 0.0850309 0.0710371 0.0657641 0.0869075 0.0951496 0.091635 0.0927818 0.0919995
9 1 Mg 1.32348 2.53398 54.6246 1.2 1 0.0158442 0.0337329 0.0205518 0.0324271 0.0263941 0.0389772 0.024763 0.0387946 0.0480314 0.0544285 0.0613125 0.0462422 0.0640554 0.0652426 0.0705845 0.0802779 0.0684177 0.0686474 0.0772417 0.0649032
10 2 Si 1.03771 4.86946 56.4377 2.4 1 0.0171704 0.0194145 0.0223179 0.0252846 0.0245581 0.022516 0.0378137 0.0458011 0.0511769 0.0579811 0.0588314 0.0587743 0.0530525 0.0526267 0.0858959 0.0669083 0.0741694 0.0874088 0.061017 0.0704402
11 3 O 0.837662 3.33805 56.5118 -1.2 1 0.0116345 0.0125425 0.0210113 0.0274088 0.0169439 0.0254193 0.0275016 0.0571038 0.0360007 0.0571853 0.0392962 0.0591336 0.0552697 0.060651 0.0764466 0.0685463 0.0678376 0.0695648 0.0655178 0.0711123
12 3 O 1.10813 6.07342 52.8172 -1.2 1 0.0867126 0.0432572 0.0273648 0.0206934 0.0209946 0.0428747 0.0392924 0.0562252 0.0544169 0.0428602 0.0562154 0.0530666 0.06894 0.0625179 0.0821786 0.0830453 0.0579994 0.0705577 0.0703427 0.067238
13 3 O -0.182063 5.64406 55.722 -1.2 1 0.00928664 0.014665 0.0189694 0.0229826 0.0189626 0.0169458 0.0360418 0.0428676 0.0419561 0.0465738 0.0525027 0.0436351 0.0508488 0.0619051 0.0838298 0.0685289 0.0692816 0.0597416 0.0617068 0.0657008
14 3 O 2.20934 5.60417 55.8328 -1.2 1 0.024101 0.0154597 0.0378832 0.0136934 0.0258183 0.0166853 0.0394085 0.044736 0.0459915 0.0427339 0.0538466 0.037724 0.0503859 0.0661749 0.0703202 0.0729203 0.0812957 0.0575815 0.0733984 0.0714507
15 1 Mg -0.459401 4.67631 52.2426 1.2 1 0.0951434 0.0657063 0.0314717 0.0362779 0.0308914 0.0329049 0.0411216 0.0599962 0.0444816 0.0772051 0.0417144 0.0616395 0.0546095 0.0747358 0.0477924 0.0987465 0.0595575 0.0956184 0.0588874 0.0808987
16 1 Mg 2.79456 3.9971 49.9987 1.2 1 0.23251 0.0809974 0.0317557 0.0457075 0.0434349 0.063224 0.0563186 0.0542704 0.0785389 0.0657641 0.0589814 0.0522875 0.0632885 0.074583 0.0859132 0.0751961 0.0718358 0.0842181 0.0822106 0.0726577
17 2 Si 1.16169 6.59457 51.2556 2.4 1 0.150976 0.0743201 0.0422577 0.0374336 0.0342795 0.0568859 0.0456036 0.0456297 0.057785 0.0665588 0.0615431 0.0697226 0.0680526 0.0673932 0.0800588 0.0885755 0.0806663 0.0874232 0.0748991 0.0611732
18 3 O 1.28989 8.18905 51.2909 -1.2 1 0.160065 0.0721171 0.0254467 0.0380683 0.0298777 0.0429464 0.0413133 0.0745586 0.0436489 0.0701854 0.0424233 0.0847727 0.0676183 0.0641816 0.0720394 0.0636823 0.0707835 0.0618715 0.0682949 0.0713998
19 3 O 1.11534 5.68077 58.0643 -1.2 1 0.021344 0.0316622 0.0203785 0.0171061 0.0198302 0.0251967 0.0322173 0.0432918 0.0489543 0.0449045 0.0396149 0.0529528 0.0434051 0.056116 0.0971616 0.0608677 0.0578067 0.0560774 0.0575153 0.0649082
20 3 O -0.184847 6.06029 50.6845 -1.2 1 0.181633 0.084804 0.0237147 0.0298097 0.0385326 0.0288896 0.0534988 0.0580238 0.0568996 0.0620661 0.0623984 0.0787078 0.0621094 0.059947 0.0879603 0.0711147 0.0847476 0.0812506 0.0630439 0.0776736
21 1 Mg -3.49704 4.67769 52.6661 1.2 1 0.0729534 0.0498788 0.0238565 0.0241814 0.0187763 0.0355045 0.0380537 0.0640442 0.0536067 0.0682606 0.0484762 0.0481775 0.0493088 0.0522624 0.0556389 0.0920982 0.0822721 0.0685298 0.0710271 0.0715726
22 3 O 2.48581 5.93312 50.6539 -1.2 1 0.193153 0.0849167 0.037155 0.0185249 0.0341951 0.0544604 0.0593599 0.0626489 0.0428893 0.0640857 0.0507261 0.0635796 0.0598325 0.0609895 0.0969892 0.0631213 0.0740101 0.0645372 0.0716271 0.0753225
23 1 Mg -1.75883 4.70837 55.2576 1.2 1 0.0214471 0.0195687 0.0226103 0.0278303 0.0103096 0.0238507 0.0266597 0.0328699 0.0450801 0.0557459 0.057982 0.0548797 0.06027 0.0639463 0.0588743 0.0730791 0.0903214 0.0884658 0.0657627 0.0659705
24 2 Si -1.81572 2.73671 53.4575 2.4 1 0.0464239 0.0364578 0.0211635 0.0314852 0.0298055 0.0192179 0.0398934 0.0502288 0.0722962 0.0608075 0.0554968 0.0646164 0.0797465 0.0447717 0.0642632 0.0662308 0.0796248 0.0829711 0.0788979 0.0612462
25 3 O -1.89466 1.18468 53.3553 -1.2 1 0.0525599 0.0283637 0.0243122 0.0270895 0.0235443 0.0271736 0.0295366 0.0635093 0.0444027 0.0600735 0.0478378 0.064848 0.0628527 0.0698489 0.0726252 0.069196 0.0650325 0.0711011 0.0793444 0.0615187
26 3 O -0.0467762 2.97103 46.8385 -1.2 1 0.49375 0.0330047 0.0925191 0.0284218 0.0794916 0.0628269 0.0779895 0.0747007 0.0764542 0.0805804 0.0830705 0.0775293 0.0998441 0.0948659 0.0946749 0.0886186 0.0958533 0.0943563 0.102875 0.110263
27 3 O -2.91105 3.42734 54.2461 -1.2 1 0.0260697 0.0266441 0.0244936 0.0159464 0.0257681 0.0326704 0.0343303 0.0439576 0.041152 0.0490104 0.0565049 0.0558872 0.0517878 0.0575606 0.0796562 0.0803452 0.0555912 0.0815081 0.0604592 0.0573781
28 3 O -0.463303 3.2241 53.9256 -1.2 1 0.0322596 0.0375054 0.0331956 0.0199992 0.0173254 0.035784 0.0354169 0.0448269 0.0489372 0.0549378 0.0486114 0.0452021 0.066369 0.0679604 0.0797454 0.0664615 0.0772836 0.0748037 0.0615718 0.0684861
29 1 Mg -3.38493 11.7549 56.8249 1.2 1 0.0174055 0.0170345 0.0131467 0.024297 0.0210799 0.0354494 0.025563 0.0424661 0.0404141 0.0622079 0.0410733 0.0337359 0.0298047 0.0470961 0.0660156 0.0790296 0.0852263 0.0755099 0.0775522 0.048636
30 1 Mg -1.75014 11.5838 49.8362 1.2 1 0.233042 0.0815365 0.0271523 0.0368484 0.030625 0.0525087 0.0472056 0.0549117 0.0499499 0.0567263 0.0625741 0.0624419 0.072056 0.066329 0.105276 0.0837433 0.0636487 0.0955375 0.085408 0.0800438
31 2 Si -1.18003 9.02138 47.9309 2.4 1 0.367494 0.0713056 0.06645 0.0528934 0.0411829 0.0620716 0.0754238 0.0778561 0.0743747 0.0684697 0.0574534 0.065712 0.0669211 0.0810072 0.102727 0.0636895 0.0998159 0.0907557 0.104092 0.0885412
32 3 O -1.23224 10.5991 47.9811 -1.2 1 0.379678 0.0585025 0.0544169 0.0563535 0.0501631 0.0702774 0.0677256 0.0780388 0.0606358 0.0880874 0.0707791 0.0644262 0.0708945 0.0773125 0.0812795 0.0679113 0.0878812 0.0795305 0.0652986 0.0726085
33 3 O -1.79016 8.01447 51.8693 -1.2 1 0.122935 0.0584547 0.027104 0.0267958 0.0290622 0.0426148 0.0571936 0.0589821 0.0583536 0.0497129 0.0550492 0.0507729 0.065742 0.0834801 0.0844062 0.0712641 0.0711191 0.0575354 0.0721311 0.065405
34 3 O -2.30986 8.37215 48.8528 -1.2 1 0.317199 0.0797077 0.0630886 0.0270475 0.0523586 0.0635981 0.0713795 0.0673035 0.055442 0.0647096 0.0824857 0.0686345 0.0548889 0.0643702 0.0802619 0.0895461 0.0941226 0.0789304 0.0757931 0.0918557
35 1 Mg 0.154883 7.08234 46.8007 1.2 1 0.492861 0.0290922 0.0816911 0.0374933 0.0627498 0.0729837 0.0594747 0.0725519 0.072364 0.0804679 0.0875055 0.0759639 0.0792379 0.0792954 0.0703177 0.0950436 0.0944153 0.10616 0.112352 0.10244
36 3 O 0.325447 8.50934 48.3809 -1.2 1 0.349948 0.0759227 0.0613079 0.0433382 0.0349556 0.0510953 0.0378604 0.0595857 0.0647007 0.0672219 0.0745317 0.0632688 0.080492 0.0927755 0.0894544 0.0678323 0.0892246 0.1006 0.0842025 0.0857229
37 1 Mg 1.00769 6.91943 54.7134 1.2 1 0.0254603 0.0255763 0.0122831 0.0329955 0.0202134 0.0249874 0.0271392 0.0292485 0.0466585 0.06052 0.0603198 0.0570547 0.0552171 0.0636435 0.0661741 0.0760507 0.0724682 0.099731 0.0717982 0.0783682
38 2 Si 1.10317 9.66328 56.4431 2.4 1 0.0211592 0.00970209 0.0271449 0.0182462 0.0222487 0.0300458 0.0422286 0.0311665 0.0489778 0.0612959 0.0518778 0.048662 0.0512083 0.064668 0.0810936 0.0700505 0.0658813 0.0748844 0.0612583 0.0650854
39 3 O 1.25953 8.15438 56.4967 -1.2 1 0.0161926 0.0128435 0.0235497 0.0238255 0.0202146 0.0308967 0.0235612 0.0616339 0.0438929 0.047571 0.0384781 0.0604331 0.0590776 0.0563045 0.0706624 0.0631294 0.0685492 0.0694455 0.0618282 0.0734943
40 3 O 1.28624 10.7248 52.7351 -1.2 1 0.0844531 0.0329948 0.0309522 0.0266648 0.0227713 0.0467708 0.0452814 0.0567427 0.0501342 0.0443997 0.0456942 0.0499114 0.0563338 0.0664459 0.0989238 0.0731806 0.0700847 0.0497835 0.0733894 0.0636651
41 3 O -0.156388 10.4739 55.7371 -1.2 1 0.0151911 0.00383846 0.0263662 0.0213333 0.0169971 0.0171653 0.0418824 0.0385121 0.0449549 0.0439747 0.0568009 0.0393055 0.0543017 0.0547729 0.0871588 0.0742231 0.0758098 0.0581664 0.0639735 0.0682287
42 3 O 2.3182 10.3024 55.6937 -1.2 1 0.0228532 0.0168379 0.0239325 0.0114755 0.0232538 0.0199743 0.0433914 0.0394056 0.0414312 0.0478755 0.0482652 0.0371163 0.0496534 0.0666621 0.0754545 0.0751507 0.0754003 0.06414 0.0721932 0.0646842
43 1 Mg -0.262694 9.34741 52.2523 1.2 1 0.11358 0.0673743 0.0172546 0.035388 0.0359565 0.0449204 0.0366175 0.0702986 0.0261412 0.0892194 0.035502 0.0542117 0.0365439 0.0733676 0.0402301 0.102077 0.0512813 0.0958703 0.0487557 0.104268
44 1 Mg 1.87648 9.01537 49.4629 1.2 1 0.28087 0.0876428 0.0373431 0.0316883 0.0360933 0.0446912 0.0647057 0.0532049 0.0764976 0.0665264 0.086608 0.05042 0.0789787 0.0620756 0.0790445 0.0896395 0.087643 0.0985249 0.0847594 0.0900751
45 2 Si 1.21415 11.3799 51.2378 2.4 1 0.148251 0.0756762 0.035305 0.0364713 0.0326053 0.0548875 0.0530006 0.0439495 0.0595325 0.0673667 0.0730986 0.063443 0.072839 0.0606709 0.0931119 0.0917295 0.0752125 0.0831184 0.0766318 0.0613788
46 3 O 1.31634 12.9512 51.3023 -1.2 1 0.153458 0.0683609 0.0269819 0.0334915 0.0310755 0.0413204 0.0386598 0.0660872 0.0510031 0.0659776 0.0450817 0.0741209 0.0655175 0.0619699 0.0740289 0.0687042 0.0775827 0.0697801 0.0745829 0.0733722
47 3 O 1.01517 10.4612 57.7699 -1.2 1 0.0165125 0.0139509 0.0157818 0.0158208 0.0205382 0.0250259 0.035702 0.0445751 0.0460118 0.0479203 0.0409103 0.0451 0.0525645 0.0633936 0.0997776 0.0759175 0.0650341 0.0461704 0.0700491 0.0567854
48 3 O -0.115718 10.7564 50.681 -1.2 1 0.194717 0.0766089 0.0255958 0.0180098 0.0459903 0.031451 0.045583 0.0681827 0.0498773 0.0542273 0.060071 0.0495207 0.0632107 0.0722618 0.0887847 0.0789422 0.0731114 0.0718769 0.0741867 0.0824156
49 1 Mg -3.26386 9.35564 52.3622 1.2 1 0.0880861 0.0556591 0.0185964 0.0357065 0.0178809 0.047649 0.0403185 0.0557327 0.0336339 0.0836918 0.0376385 0.0511834 0.0312248 0.0626094 0.0331384 0.111094 0.0420592 0.105564 0.0455821 0.0848416
50 3 O 2.45216 10.7265 50.4558 -1.2 1 0.210897 0.080239 0.0268295 0.0178447 0.040566 0.0561906 0.0555249 0.0488813 0.056443 0.0696139 0.0650201 0.0710797 0.0496022 0.0631197 0.0939396 0.0832159 0.0742437 0.0738722 0.0620649 0.0886032
51 1 Mg -1.95511 9.44702 55.1806 1.2 1 0.0263842 0.0254933 0.020707 0.0248962 0.0179494 0.0206764 0.0258898 0.0296606 0.0440975 0.0551397 0.0495972 0.0575289 0.0608055 0.0584237 0.0632423 0.0693767 0.0834483 0.0969075 0.0700001 0.0722993
52 2 Si -1.89793 7.37593 53.3909 2.4 1 0.0558029 0.0388898 0.021246 0.0303223 0.0291482 0.0371048 0.0460143 0.0505792 0.0653949 0.0681814 0.055145 0.0597749 0.0768461 0.0512471 0.0687909 0.0693112 0.0664721 0.0868802 0.0624319 0.053323
53 3 O -1.75922 5.81545 53.3522 -1.2 1 0.0496127 0.0359866 0.0241535 0.0213322 0.0169903 0.0318619 0.0315836 0.0624335 0.0488049 0.0623424 0.036502 0.0675786 0.0632507 0.0787716 0.0631649 0.0609574 0.0685183 0.0612904 0.0778705 0.0600763
54 3 O -1.19417 8.46968 46.4488 -1.2 1 0.524893 0.0663978 0.0677136 0.051546 0.0664753 0.0568413 0.0786581 0.0540328 0.0756703 0.0716416 0.0575912 0.0510132 0.0693964 0.0979292 0.130007 0.113257 0.0974231 0.0953045 0.0823462 0.0815235
55 3 O -3.1402 8.10929 54.0349 -1.2 1 0.0562056 0.0243439 0.0235892 0.0165496 0.0155643 0.0226379 0.0403448 0.0430639 0.0419807 0.0508989 0.0496507 0.0476632 0.0528711 0.0555406 0.0808174 0.0661648 0.0692963 0.0658055 0.06627 0.0758083
56 3 O -0.687981 8.07367 54.0757 -1.2 1 0.0522193 0.0207822 0.0292688 0.0182575 0.0239631 0.0265604 0.0353129 0.0392358 0.0452798 0.0507814 0.0572718 0.0418359 0.06524 0.0622741 0.0765573 0.0710127 0.0780106 0.0719859 0.0694509 0.0624806
57 1 Mg -3.12466 16.6455 57.2188 1.2 1 0.0109714 0.0179621 0.0162076 0.0281119 0.0102014 0.0319257 0.013208 0.0580293 0.021119 0.0724625 0.0225478 0.0541453 0.0258116 0.070347 0.0280889 0.101182 0.0472709 0.111542 0.0393159 0.0878928
58 1 Mg -1.6714 16.3544 49.8412 1.2 1 0.23922 0.0740942 0.0224271 0.0393796 0.0283384 0.0452381 0.0541898 0.054497 0.0462739 0.0570271 0.0606282 0.0665837 0.0715836 0.0693606 0.100347 0.0801679 0.0737065 0.0958631 0.0838868 0.0840292
59 2 Si -1.18567 13.8526 47.9314 2.4 1 0.374257 0.0685415 0.0743689 0.0658408 0.0306372 0.0656472 0.0498509 0.0793646 0.0654078 0.0674923 0.0582149 0.0774894 0.0588508 0.0755698 0.0983377 0.0759872 0.103678 0.0993062 0.0906997 0.0894086
60 3 O -1.09664 15.4205 47.9915 -1.2 1 0.370832 0.0625284 0.0419162 0.0636143 0.0439367 0.0909941 0.0632143 0.0815292 0.0540973 0.0872001 0.0561125 0.0744604 0.0604284 0.0794379 0.0785326 0.074127 0.094642 0.0758621 0.0733372 0.0712259
61 3 O -1.73493 12.7491 51.7772 -1.2 1 0.11652 0.0595532 0.0252642 0.0310428 0.0299457 0.048928 0.0635651 0.0511085 0.0661898 0.0554428 0.0571541 0.0490571 0.0576405 0.0878519 0.10121 0.0778924 0.0821032 0.0530832 0.07307 0.0701302
62 3 O -2.36115 13.2717 48.8238 -1.2 1 0.318538 0.0763242 0.0492841 0.0342574 0.0522264 0.0498393 0.0603939 0.0649497 0.0592666 0.0685087 0.0724363 0.0635149 0.0577806 0.0561601 0.0815042 0.0839196 0.0863892 0.0793853 0.0813485 0.0867386
63 1 Mg -0.159928 11.7639 46.8533 1.2 1 0.482553 0.0258075 0.0769361 0.0340018 0.0534449 0.0974065 0.0708453 0.087939 0.0837881 0.0855682 0.0843252 0.0686442 0.0722388 0.0925145 0.0786471 0.0864181 0.0964033 0.0970615 0.0996205 0.106433
64 3 O 0.2623 13.1866 48.413 -1.2 1 0.344849 0.0775688 0.0506499 0.0448757 0.0405573 0.0550587 0.0452817 0.0654661 0.0651709 0.0715754 0.0648355 0.0618518 0.0639888 0.0872682 0.0972669 0.080394 0.0915459 0.0953131 0.0844523 0.088532
65 1 Mg 1.28966 11.7149 54.5561 1.2 1 0.0116691 0.03147 0.0157505 0.0301348 0.00975173 0.0172154 0.0233869 0.0395035 0.0488667 0.0594391 0.0566782 0.0478374 0.0578523 0.0669306 0.0610878 0.0721604 0.0681132 0.0970646 0.0625451 0.0836069
66 2 Si 1.40962 14.5842 56.207 2.4 1 0.0205922 0.0149872 0.0245721 0.0235059 0.0250361 0.0286419 0.0340597 0.0498796 0.0579305 0.0549581 0.0427681 0.0524521 0.0634364 0.0541362 0.0684648 0.0820931 0.0594883 0.088891 0.0593827 0.0520627
67 3 O 1.16692 12.993 56.1609 -1.2 1 0.0179445 0.0153107 0.0203162 0.0181922 0.0283749 0.0216326 0.0311407 0.0726015 0.0372855 0.0590318 0.0367987 0.0573926 0.0636158 0.0626547 0.0583295 0.0675294 0.0645151 0.0682121 0.0602086 0.0551827
68 3 O 1.36565 15.4813 52.729 -1.2 1 0.0771899 0.0492578 0.0202997 0.0230683 0.0231521 0.0396069 0.0468249 0.0566672 0.049669 0.0480513 0.0466971 0.0502042 0.0570608 0.0630841 0.0988873 0.070032 0.0666576 0.0615729 0.0655779 0.0665389
69 3 O 0.00550104 15.0714 55.8263 -1.2 1 0.00913676 0.0198042 0.0310076 0.0175699 0.0229526 0.015859 0.0400487 0.0420666 0.047719 0.049292 0.0436113 0.0483133 0.0541458 0.0627326 0.0742017 0.0655913 0.0850913 0.0531444 0.0764532 0.0677489
70 3 O 2.54088 15.27 55.4853 -1.2 1 0.0173101 0.016699 0.0234093 0.018207 0.0219658 0.0189411 0.0471077 0.0430243 0.0416148 0.0489694 0.0515448 0.0355184 0.0511128 0.0537129 0.0772179 0.0701076 0.0606887 0.0765073 0.0564313 0.0610923
71 1 Mg -0.206989 14.1049 52.2121 1.2 1 0.110183 0.0673688 0.0182145 0.0412461 0.0295651 0.0410577 0.039469 0.0665223 0.0268964 0.0854134 0.030017 0.0583836 0.0300863 0.0732692 0.0339259 0.102383 0.0466192 0.104649 0.041968 0.100887
72 1 Mg 1.82591 13.8102 49.4556 1.2 1 0.272637 0.0941662 0.0332305 0.0386857 0.0378222 0.0337293 0.0645758 0.0478681 0.0719347 0.0757115 0.0785223 0.0563516 0.0722437 0.0718244 0.082243 0.0892629 0.0776958 0.0974403 0.0934859 0.0850446
73 2 Si 1.29285 16.1518 51.2434 2.4 1 0.139732 0.0825499 0.0337466 0.0372416 0.0344225 0.0491774 0.0581623 0.0435423 0.0546814 0.0707606 0.0675258 0.0661387 0.0705921 0.0686673 0.0916734 0.0851542 0.0774149 0.0833983 0.0754931 0.0662426
74 3 O 1.39496 17.7199 51.3047 -1.2 1 0.16073 0.0654893 0.0238021 0.0328904 0.0264723 0.0427563 0.03805 0.0604937 0.0483056 0.0630079 0.0462976 0.0745661 0.0622539 0.064228 0.0723664 0.0672878 0.0764718 0.0771925 0.0658045 0.0754428
75 3 O 1.50466 15.2114 57.7694 -1.2 1 0.00794679 0.0138118 0.0170088 0.0259787 0.0225169 0.0302499 0.0312202 0.0415769 0.0550773 0.0475375 0.0440862 0.043054 0.0538489 0.0675098 0.0863371 0.080499 0.0600751 0.0570706 0.0734937 0.0574218
76 3 O -0.0269106 15.5178 50.6688 -1.2 1 0.191613 0.0806813 0.0220873 0.0220741 0.0444721 0.0360656 0.0542357 0.0612829 0.0551818 0.0564594 0.0554021 0.0476925 0.0597881 0.0741054 0.0906939 0.0785789 0.0749825 0.0809001 0.071871 0.0871023
77 1 Mg -3.18391 14.1057 52.3125 1.2 1 0.0791025 0.0591595 0.0278521 0.030624 0.0205725 0.055379 0.0366689 0.0627999 0.0329994 0.0813589 0.0372347 0.0536162 0.0240359 0.0773526 0.0401251 0.11073 0.0488137 0.10651 0.039979 0.0879417
78 3 O 2.52432 15.503 50.4579 -1.2 1 0.208208 0.0815836 0.0275948 0.0200671 0.0349764 0.052977 0.055399 0.0458004 0.0527815 0.062532 0.0606198 0.0677478 0.0535607 0.0612723 0.0948689 0.0727824 0.07644 0.0710739 0.0637922 0.0859569
79 1 Mg -1.60417 14.2747 55.0433 1.2 1 0.02026 0.0111478 0.0163954 0.026049 0.0116084 0.0202798 0.0325458 0.0352685 0.0435033 0.0569063 0.0597141 0.0550912 0.0632663 0.0637683 0.0586095 0.0709795 0.0803598 0.0906244 0.0744358 0.0725815
80 2 Si -1.70285 12.2191 53.2994 2.4 1 0.0497175 0.0367068 0.0219917 0.0271371 0.0311299 0.0439253 0.0449292 0.0571026 0.0685151 0.0563962 0.0502008 0.0725594 0.0795218 0.0502017 0.0650628 0.0644834 0.0649647 0.0885005 0.0649088 0.0568376
81 3 O -1.88763 10.6123 53.3047 -1.2 1 0.0668805 0.0401338 0.0151718 0.0228392 0.0297567 0.0327265 0.0282371 0.0748577 0.0438853 0.0644086 0.0492344 0.0665948 0.0565648 0.077316 0.0621159 0.06819 0.0591965 0.0528243 0.068923 0.0716058
82 3 O -1.21337 13.3381 46.4311 -1.2 1 0.52025 0.0681139 0.069408 0.0412237 0.0566948 0.0573223 0.0571423 0.070733 0.0804803 0.0663996 0.0466689 0.071866 0.068667 0.0881857 0.120896 0.114738 0.106653 0.100031 0.0604368 0.0921383
83 3 O -2.96304 12.8239 53.9048 -1.2 1 0.0442647 0.0269309 0.0320741 0.0220339 0.0247564 0.0252236 0.0537385 0.0412021 0.0456719 0.0527175 0.0498979 0.0447247 0.0568209 0.0572713 0.0791268 0.0574925 0.0658432 0.0678792 0.0681414 0.0675768
84 3 O -0.430094 12.7548 53.8934 -1.2 1 0.0504601 0.0331023 0.0257393 0.020352 0.0199389 0.0238787 0.0365741 0.0471581 0.0473684 0.0553183 0.058893 0.0454648 0.0622451 0.063412 0.0894508 0.0682569 0.083892 0.073157 0.0698159 0.0696079
85 1 Mg -3.42584 21.32 57.3551 1.2 1 0.0106705 0.0135676 0.0165745 0.0189777 0.0167722 0.0318527 0.0245448 0.0548226 0.0393912 0.068183 0.0351102 0.05038 0.0286711 0.0569037 0.0469976 0.0966796 0.0583056 0.0974156 0.0612028 0.062936
86 1 Mg -1.5831 21.1217 49.8405 1.2 1 0.235977 0.0771786 0.0183765 0.0396354 0.0313695 0.0446161 0.0557683 0.0546524 0.0508889 0.0567151 0.0611239 0.0651093 0.0713238 0.0682234 0.0979413 0.0778717 0.0757524 0.0973889 0.085387 0.0806538
87 2 Si -1.09384 18.6291 47.9287 2.4 1 0.37875 0.061252 0.0684631 0.0654308 0.0299831 0.067579 0.0454543 0.0806863 0.0649716 0.0688155 0.0535746 0.0725384 0.0589672 0.0733616 0.0989598 0.0727192 0.103758 0.0920768 0.089427 0.0895119
88 3 O -1.02071 20.1985 47.9911 -1.2 1 0.365557 0.0704026 0.0497046 0.0617256 0.0456599 0.0924536 0.0624091 0.0814126 0.0575872 0.0905952 0.0549102 0.0719014 0.0605298 0.0814703 0.0814513 0.0731196 0.0917276 0.0759305 0.0772969 0.0693419
89 3 O -1.65002 17.5002 51.771 -1.2 1 0.121126 0.0569605 0.0272844 0.0259556 0.03239 0.0492993 0.0570812 0.0514284 0.06725 0.0540914 0.0561688 0.0431572 0.0565648 0.0751083 0.0956169 0.0752063 0.078299 0.0427095 0.071738 0.0747089
90 3 O -2.26174 18.0434 48.8281 -1.2 1 0.310672 0.0871917 0.0543892 0.0357133 0.0568491 0.0465656 0.0516653 0.0746314 0.0604845 0.0659491 0.0722186 0.061271 0.0538793 0.0578158 0.0778366 0.0807757 0.0837835 0.0821782 0.0849761 0.0902434
91 1 Mg -0.0440435 16.5651 46.8269 1.2 1 0.484301 0.0194956 0.0792166 0.0305064 0.0619621 0.0838112 0.072798 0.081418 0.0707464 0.0859039 0.0857432 0.0632863 0.0653888 0.0796604 0.0767093 0.0933228 0.0952674 0.0974671 0.0995309 0.106913
92 3 O 0.37001 17.9877 48.3925 -1.2 1 0.357096 0.0621231 0.0453192 0.038261 0.0435596 0.0593405 0.0406701 0.064938 0.065489 0.0732486 0.0587965 0.0529536 0.0620815 0.0830818 0.0913884 0.0763645 0.090954 0.101028 0.077979 0.082205
93 1 Mg 1.47964 16.6251 54.5868 1.2 1 0.0101723 0.0266086 0.0149737 0.0273592 0.0129146 0.0179535 0.024843 0.034715 0.0456756 0.0603353 0.0601213 0.0512575 0.0610792 0.0677108 0.0578268 0.081344 0.0686932 0.0943292 0.0725029 0.0800467
94 2 Si 1.34264 19.2636 56.3062 2.4 1 0.0198272 0.0151969 0.029366 0.0310961 0.0291279 0.030572 0.0430513 0.0390212 0.0529083 0.0611589 0.0477001 0.0578181 0.0626268 0.0562761 0.0732843 0.0719594 0.060583 0.0922077 0.0628217 0.0550369
95 3 O 1.24859 17.6991 56.2951 -1.2 1 0.0124345 0.0100336 0.0123163 0.0221813 0.022054 0.0185961 0.0186897 0.0643579 0.0343202 0.0513181 0.0440435 0.0572637 0.0549539 0.0633308 0.0711614 0.0632772 0.0544188 0.0696007 0.0696223 0.070292
96 3 O 1.45147 20.239 52.7294 -1.2 1 0.0786917 0.0446755 0.0223725 0.018962 0.0256198 0.0452835 0.0400119 0.0571415 0.0508847 0.0496289 0.042182 0.0527347 0.0607973 0.0635422 0.0979894 0.0638997 0.0688563 0.0662652 0.0682883 0.0603616
97 3 O 0.187776 19.8971 55.429 -1.2 1 0.0121453 0.0182706 0.0189463 0.0160979 0.0247177 0.0311161 0.035618 0.0447148 0.0333547 0.0526162 0.0564541 0.0348317 0.0562375 0.0606979 0.0826486 0.0707727 0.0723636 0.0728541 0.0593497 0.0665298
98 3 O 2.66968 19.8388 55.6535 -1.2 1 0.0182751 0.0190276 0.0282921 0.021915 0.0254855 0.0181907 0.0453764 0.0399668 0.050464 0.0488888 0.062888 0.0316891 0.0484875 0.0740906 0.0718296 0.0830583 0.0734597 0.0668415 0.0663549 0.0659065
99 1 Mg -0.126194 18.8651 52.2079 1.2 1 0.106716 0.0696056 0.0280907 0.0401706 0.0298605 0.0410589 0.0394203 0.0685795 0.0278503 0.08108 0.0307149 0.0553902 0.0336873 0.0708652 0.0341564 0.104612 0.0389457 0.101143 0.0447856 0.0979861
100 1 Mg 1.92402 18.5815 49.4545 1.2 1 0.275054 0.0967177 0.039275 0.0404504 0.0328303 0.0315306 0.0635009 0.0478338 0.0708465 0.0746035 0.0803816 0.0582373 0.0650989 0.061029 0.0820974 0.0934699 0.078964 0.0975563 0.0824963 0.0850733
101 2 Si 1.38106 20.9117 51.2443 2.4 1 0.133878 0.0832967 0.0354112 0.036221 0.0440211 0.0452586 0.0523828 0.0455197 0.0576716 0.0662634 0.0622732 0.0683199 0.0707851 0.0633187 0.090719 0.0859594 0.0757383 0.0853424 0.0666674 0.0660599
102 3 O 1.48527 22.4795 51.3054 -1.2 1 0.144627 0.0729998 0.0281618 0.0324496 0.0370151 0.0424761 0.0371292 0.06425 0.0570712 0.0680847 0.0409875 0.0778672 0.0618593 0.0649052 0.0743835 0.0683709 0.0775386 0.075066 0.0658119 0.0743777
103 3 O 1.36688 19.9377 57.9602 -1.2 1 0.0144243 0.0250716 0.0207785 0.0167283 0.019739 0.0288549 0.0260292 0.0505457 0.045805 0.0487065 0.037285 0.0585146 0.0436377 0.0621377 0.099741 0.0606559 0.066538 0.0579473 0.0614345 0.0766924
104 3 O 0.0615419 20.2804 50.6669 -1.2 1 0.190058 0.0814843 0.0215762 0.0202206 0.0449243 0.0405361 0.0562933 0.0563592 0.0529006 0.055781 0.0587984 0.0484189 0.06125 0.0764861 0.0939871 0.0793688 0.0769899 0.0793525 0.0662537 0.0880518
105 1 Mg -3.09665 18.8643 52.3122 1.2 1 0.0773729 0.0642201 0.022766 0.0333698 0.0221584 0.050431 0.0349055 0.0587979 0.0413055 0.0828983 0.0325501 0.0494016 0.0292389 0.0705898 0.0342515 0.104003 0.051356 0.103643 0.0429719 0.0900717
106 3 O 2.61548 20.2646 50.4626 -1.2 1 0.207091 0.0841023 0.0289484 0.0223816 0.0345667 0.0523964 0.056133 0.043891 0.0550732 0.064808 0.0632593 0.0669278 0.0544731 0.060556 0.093743 0.0700774 0.0756068 0.0692276 0.0644539 0.0863001
107 1 Mg -1.65979 18.9787 54.9375 1.2 1 0.0161824 0.0255098 0.0245366 0.0272483 0.0190055 0.0216442 0.0209218 0.0294287 0.0392535 0.0676552 0.054681 0.0528028 0.0605028 0.0650816 0.0525872 0.0878586 0.0698267 0.0950924 0.0664843 0.0906162
108 2 Si -1.63151 16.8459 53.3117 2.4 1 0.0436866 0.0466393 0.0194495 0.0263308 0.0324608 0.0329183 0.0462158 0.0603557 0.0588468 0.0645169 0.0589566 0.0643474 0.0705871 0.059942 0.0745812 0.0713065 0.0655438 0.0839773 0.0675207 0.0570002
109 3 O -1.56622 15.2296 53.0954 -1.2 1 0.0686692 0.0509554 0.0146136 0.0242896 0.0311944 0.0324617 0.0254969 0.0817796 0.0497592 0.0617126 0.0429097 0.0635684 0.0585318 0.0742039 0.0776661 0.0585113 0.0516491 0.0675241 0.0655213 0.0841319
110 3 O -1.12868 18.1227 46.4249 -1.2 1 0.521996 0.0662816 0.0726362 0.0518356 0.0575725 0.0651013 0.0605538 0.0785544 0.0790116 0.0617501 0.0454207 0.068711 0.0681114 0.0872146 0.115428 0.113726 0.107382 0.101937 0.0622707 0.0919275
111 3 O -2.78451 17.55 54.002 -1.2 1 0.0303562 0.0226032 0.0288585 0.0128287 0.022459 0.0250667 0.0496123 0.0444199 0.0412396 0.0551625 0.0462941 0.0410615 0.0570456 0.0610438 0.083968 0.0703795 0.0649684 0.0696433 0.0714864 0.0613141
112 3 O -0.246317 17.4715 53.7969 -1.2 1 0.0409242 0.0364104 0.0282924 0.0251396 0.0187635 0.0186153 0.0440963 0.0480351 0.0516142 0.0573837 0.0568452 0.0403754 0.0569919 0.0656024 0.082461 0.0682578 0.0762764 0.06384 0.065881 0.0726887
113 1 Mg -3.43053 26.0579 58.1462 1.2 1 0.0267341 0.0109489 0.0221999 0.0255159 0.0310529 0.023914 0.0291478 0.0367397 0.0646065 0.0437784 0.0457592 0.044058 0.0503556 0.0464529 0.0673431 0.0803823 0.0910306 0.0666702 0.0698441 0.066094
114 1 Mg -1.48778 25.88 49.8402 1.2 1 0.229357 0.0868345 0.0285301 0.0373303 0.0370519 0.0490954 0.0486742 0.0568096 0.0516128 0.0589043 0.0649446 0.0685279 0.0725598 0.0695042 0.0994884 0.0812499 0.0734635 0.0937465 0.0844413 0.0830917
115 2 Si -1.00491 23.3922 47.9274 2.4 1 0.372585 0.0656573 0.0647637 0.0730169 0.0302288 0.0740564 0.0428687 0.0843379 0.0685226 0.0721616 0.052319 0.0762634 0.0582821 0.0737103 0.093786 0.0768241 0.104918 0.0958447 0.0874847 0.0945658
116 3 O -0.927602 24.9615 47.9909 -1.2 1 0.37021 0.0625882 0.0415467 0.0637096 0.0441482 0.0904638 0.0624592 0.0808091 0.054672 0.0866949 0.0548244 0.0734775 0.0606133 0.0787146 0.0784731 0.0720971 0.0924684 0.0750764 0.0748008 0.0730471
117 3 O -1.55795 22.2588 51.7696 -1.2 1 0.11233 0.0599584 0.0313294 0.0274028 0.0323602 0.0538847 0.0554121 0.0531593 0.0644882 0.0509119 0.0558256 0.0491634 0.0504004 0.0807088 0.0985565 0.0762988 0.0807275 0.0409187 0.0728266 0.0737349
118 3 O -2.17411 22.8111 48.8277 -1.2 1 0.316848 0.0784452 0.0490737 0.0385716 0.0547736 0.0457845 0.0572366 0.0733889 0.0615918 0.0669147 0.0699348 0.0568936 0.0481149 0.0566316 0.0755489 0.0802017 0.0833175 0.0835965 0.0880524 0.0863499
119 1 Mg 0.0423997 21.3296 46.8225 1.2 1 0.485372 0.022197 0.0761058 0.030797 0.0610265 0.0829109 0.0740663 0.0829981 0.0711658 0.0875219 0.0880909 0.0627667 0.0623991 0.0786948 0.0758889 0.0900531 0.0925283 0.0971495 0.0997937 0.106437
120 3 O 0.458537 22.7495 48.3911 -1.2 1 0.349765 0.0705618 0.0505129 0.0427494 0.0443435 0.0587889 0.0426692 0.0667558 0.0631712 0.0712741 0.0607532 0.0572776 0.0632073 0.0842827 0.0923166 0.0745957 0.0935224 0.104079 0.0823718 0.0850782
121 1 Mg 1.13865 21.3648 54.4019 1.2 1 0.0086979 0.0342669 0.0165218 0.0293107 0.0100782 0.0207874 0.0179532 0.0406936 0.0425645 0.0561428 0.0663719 0.0489281 0.0612006 0.0679507 0.0679796 0.0742278 0.083197 0.0780403 0.0843657 0.0587762
122 2 Si 1.42335 23.9592 56.2865 2.4 1 0.0334019 0.0151531 0.0280057 0.0224029 0.0255427 0.0328219 0.0400355 0.0363356 0.0476422 0.0542661 0.0513304 0.0630494 0.0591661 0.0520311 0.0761603 0.0697606 0.0716228 0.0979705 0.0544018 0.062661
123 3 O 1.2231 22.45 56.3109 -1.2 1 0.024234 0.00880291 0.0128109 0.0212302 0.0219311 0.0272899 0.0208151 0.0706067 0.039407 0.0525797 0.0499934 0.0590449 0.0538139 0.0707529 0.0630746 0.068072 0.0540766 0.0597322 0.0669908 0.0656226
124 3 O 1.54441 24.9963 52.7297 -1.2 1 0.0853954 0.041441 0.0311252 0.0210131 0.019606 0.0423521 0.0447663 0.050428 0.0507312 0.0423983 0.0487993 0.0476721 0.0554913 0.0609358 0.0991472 0.0672852 0.0687987 0.0614507 0.0712767 0.0631764
125 3 O 0.192781 24.6063 55.628 -1.2 1 0.0149982 0.00673112 0.0279954 0.012843 0.0147008 0.0248712 0.0360447 0.0362414 0.0370471 0.045411 0.0547126 0.0352561 0.049948 0.06497 0.0797779 0.0732433 0.0664555 0.0622723 0.0594639 0.0715283
126 3 O 2.80101 24.7158 55.6474 -1.2 1 0.0142078 0.0191958 0.0237097 0.0155509 0.0263423 0.0250328 0.0434231 0.0455287 0.0408528 0.047432 0.0542872 0.0374411 0.0570216 0.0568116 0.0820933 0.0674027 0.0749093 0.0623223 0.0679521 0.0687633