ITEM: TIMESTEP
74400
ITEM: NUMBER OF ATOMS
10500
ITEM: BOX BOUNDS xy xz yz pp pp pp
0	8.9688	2.9896
0	118.725	0
0	252.977	0
ITEM: ATOMS id type element xu yu zu q Q_1 Q_2 Q_3 Q_4 Q_5 Q_6 Q_7 Q_8 Q_9 Q_10 Q_11 Q_12 Q_13 Q_14 Q_15 Q_16 Q_17 Q_18 Q_19 Q_20 Q_21
1 1 Mg -3.33572 7.05933 57.523 1.2 1 0.00790952 0.0186393 0.00674242 0.0280726 0.00924866 0.0322593 0.0171945 0.0513876 0.0189932 0.0797709 0.0208172 0.0532419 0.0221191 0.0701438 0.0345247 0.10152 0.0395637 0.11279 0.030889 0.0944751
2 1 Mg -1.82655 6.90154 50.0912 1.2 1 0.216661 0.0913215 0.0322633 0.03161 0.0333843 0.0553047 0.0463176 0.0460338 0.058039 0.069002 0.0544867 0.0721447 0.0705583 0.0645333 0.0962361 0.059894 0.0852918 0.0976672 0.0739696 0.0753394
3 2 Si -0.257935 3.96038 48.0876 2.4 1 0.379438 0.0623117 0.0669376 0.0373421 0.0617678 0.049097 0.0707181 0.0744131 0.0608253 0.0780409 0.0554521 0.070402 0.0625662 0.0836619 0.0945066 0.0984737 0.109061 0.0902238 0.071291 0.0746858
4 3 O -0.335812 5.46814 47.6264 -1.2 1 0.427209 0.0403706 0.0647035 0.0301769 0.0405111 0.04833 0.0668704 0.0725849 0.0883061 0.0770901 0.0920457 0.0749125 0.0709347 0.0691572 0.0919292 0.124756 0.0937955 0.0791585 0.0745294 0.0779192
5 3 O -2.03793 3.43377 51.8941 -1.2 1 0.113688 0.0606122 0.028063 0.0224495 0.023875 0.0481199 0.0601285 0.0527935 0.0497424 0.058516 0.0696357 0.0531184 0.0507546 0.0777987 0.085583 0.0809775 0.068433 0.0553151 0.0689094 0.0687314
6 3 O -1.54015 3.53929 48.9521 -1.2 1 0.308727 0.0818456 0.0321863 0.0473608 0.0332993 0.047065 0.0682975 0.0515533 0.054116 0.0602324 0.0783023 0.0687247 0.0671968 0.0673412 0.0740174 0.1102 0.0837606 0.0785609 0.075582 0.087308
7 1 Mg 1.82954 2.54582 47.1376 1.2 1 0.466056 0.0227442 0.0805366 0.0494864 0.0347812 0.0833534 0.0603291 0.0581627 0.076209 0.089333 0.0692475 0.0766452 0.0820861 0.0857315 0.0702627 0.095618 0.100596 0.104327 0.10728 0.100469
8 3 O 1.22989 3.66364 48.7877 -1.2 1 0.316145 0.078724 0.0269772 0.0436974 0.0317278 0.0647803 0.0811279 0.0354433 0.0843651 0.0818243 0.0570275 0.0823408 0.08423 0.0682427 0.0671097 0.0895265 0.09507 0.0895204 0.0954297 0.0909584
9 1 Mg 0.90141 2.17907 54.6983 1.2 1 0.0187913 0.0151754 0.0175089 0.0287223 0.0242944 0.0336885 0.029504 0.0331761 0.0436688 0.0598607 0.0530042 0.0592196 0.0523401 0.067202 0.0579582 0.0856657 0.0629647 0.0932619 0.0643791 0.0746042
10 2 Si 1.01939 4.93676 56.3193 2.4 1 0.015872 0.012107 0.0182775 0.028095 0.0262216 0.0228977 0.0389472 0.0479317 0.050188 0.0577915 0.0563113 0.0549182 0.0622084 0.0624324 0.0684671 0.0726314 0.0675669 0.0926322 0.0555705 0.0541547
11 3 O 0.848241 3.29765 56.5348 -1.2 1 0.0171838 0.0179724 0.0230276 0.0264496 0.0239978 0.0236531 0.0254908 0.0595089 0.0428578 0.0576537 0.0336438 0.0687675 0.0517424 0.0578499 0.0738992 0.064686 0.0647634 0.0702595 0.0645589 0.0671399
12 3 O 1.10813 6.07342 52.8172 -1.2 1 0.0748049 0.0501194 0.029155 0.0160218 0.0212156 0.0490403 0.0441964 0.0569833 0.0541708 0.0456152 0.0553223 0.0496143 0.0739725 0.0745171 0.0901328 0.0814105 0.0595679 0.0687811 0.0659692 0.0698829
13 3 O -0.294188 5.70371 55.8316 -1.2 1 0.00223043 0.0142727 0.0214237 0.0254137 0.0250745 0.0216692 0.0382821 0.0382914 0.0436648 0.0438299 0.0591834 0.0333685 0.0569394 0.0491291 0.0911133 0.0672455 0.0761943 0.0683848 0.0695566 0.0672149
14 3 O 2.22334 5.57729 55.5087 -1.2 1 0.0134738 0.0173862 0.0193907 0.0192658 0.0278798 0.0304203 0.037158 0.0544927 0.0399362 0.0533397 0.053918 0.0397432 0.0552473 0.0680564 0.077429 0.0735652 0.0690229 0.0758528 0.0627165 0.0579807
15 1 Mg -0.459401 4.67631 52.2426 1.2 1 0.0883849 0.068684 0.0339871 0.0454827 0.0290792 0.0304221 0.0437341 0.0619114 0.042569 0.07964 0.0454336 0.0589158 0.0494965 0.0745845 0.0421504 0.0976159 0.0563409 0.0918517 0.0566167 0.0839035
16 1 Mg 2.79456 3.9971 49.9987 1.2 1 0.22768 0.0932854 0.0304203 0.0418173 0.0415545 0.0623902 0.0529764 0.0528414 0.0773011 0.0616433 0.0582997 0.0589419 0.0671458 0.0754641 0.0841695 0.0775844 0.0746283 0.0950022 0.083032 0.0640792
17 2 Si 1.16169 6.59457 51.2556 2.4 1 0.143896 0.0812801 0.0367045 0.0296722 0.0460413 0.0493773 0.0436105 0.046325 0.0592297 0.0677078 0.0680692 0.0761339 0.0679351 0.0547276 0.0859971 0.0896941 0.0845965 0.0877867 0.0714224 0.0612513
18 3 O 1.28989 8.18905 51.2909 -1.2 1 0.152364 0.084479 0.0138601 0.0235271 0.0376707 0.038017 0.0393057 0.075329 0.0457002 0.0669432 0.0443879 0.0899891 0.063548 0.0637336 0.0778657 0.0709387 0.0773868 0.0646692 0.0672639 0.0672499
19 3 O 1.25035 5.54488 57.8051 -1.2 1 0.0220502 0.0131642 0.0222795 0.0249141 0.0189102 0.0341978 0.0328274 0.0375895 0.0598017 0.0383512 0.0530842 0.0331603 0.0547379 0.0673076 0.0927829 0.0726324 0.06071 0.0505748 0.074648 0.0574966
20 3 O -0.184847 6.06029 50.6845 -1.2 1 0.184701 0.0823271 0.0209569 0.0310751 0.0367495 0.0282129 0.0532173 0.0607875 0.0555546 0.0582079 0.0628026 0.079916 0.0640207 0.0571738 0.08519 0.0660864 0.0797107 0.0839883 0.0663123 0.0781408
21 1 Mg -3.49704 4.67769 52.6661 1.2 1 0.0660095 0.0528753 0.0274684 0.0307281 0.0144475 0.0454819 0.0355179 0.0533594 0.0577647 0.0657502 0.0492261 0.0498226 0.0491335 0.0491164 0.0571307 0.0924071 0.0823534 0.0794768 0.0699969 0.068946
22 3 O 2.48581 5.93312 50.6539 -1.2 1 0.185862 0.0954971 0.0348607 0.0205301 0.0348143 0.0441782 0.0622667 0.0615443 0.0473915 0.0631886 0.0438673 0.0682134 0.060296 0.0669877 0.0991925 0.0646252 0.0770729 0.066336 0.0776091 0.0814371
23 1 Mg -1.75465 4.46434 55.2144 1.2 1 0.0202432 0.0221622 0.0233561 0.0220923 0.0183304 0.0269419 0.0266519 0.0370553 0.0435353 0.0555479 0.0530645 0.0471769 0.061779 0.0652574 0.0727986 0.0546455 0.0801809 0.0848175 0.0650395 0.0749848
24 2 Si -1.9497 2.64028 53.277 2.4 1 0.0341212 0.0422318 0.0248421 0.0238197 0.0235934 0.0226885 0.0447581 0.0517703 0.0699727 0.0644135 0.0580702 0.0702028 0.0757105 0.04586 0.0707365 0.0567939 0.0801677 0.0869167 0.0812042 0.0510643
25 3 O -1.85219 1.02052 53.3801 -1.2 1 0.0517205 0.034062 0.0290646 0.0223142 0.0201821 0.0369279 0.0306654 0.0569044 0.0458054 0.0763047 0.0420599 0.0588202 0.0660657 0.0722688 0.0706284 0.0627005 0.0716225 0.0559964 0.0810678 0.0568575
26 3 O -0.0467762 2.97103 46.8385 -1.2 1 0.494519 0.0340554 0.0891886 0.029727 0.0829475 0.0676542 0.0813175 0.0736701 0.0739185 0.080207 0.0811669 0.0753493 0.0994379 0.0901972 0.0878392 0.0880298 0.0984356 0.0956734 0.105735 0.112688
27 3 O -2.9868 3.12188 54.2026 -1.2 1 0.0179723 0.015546 0.0270237 0.0264285 0.0262164 0.0335688 0.0318703 0.044361 0.0541472 0.062302 0.0717805 0.0425013 0.0536751 0.0594055 0.0738253 0.0744623 0.0638794 0.0692586 0.0712442 0.0617379
28 3 O -0.669186 3.25033 53.8512 -1.2 1 0.0276921 0.0410708 0.0301034 0.0239565 0.0302697 0.0292492 0.0454997 0.0494467 0.0551446 0.0538039 0.052083 0.0488955 0.0561479 0.0748343 0.0783148 0.0673011 0.0870183 0.0775763 0.0575052 0.0603013
29 1 Mg -3.33776 11.5902 57.5267 1.2 1 0.0256422 0.0292645 0.00806628 0.027526 0.0187235 0.0411206 0.0205311 0.0527027 0.0312042 0.0703746 0.025868 0.0469662 0.0366199 0.0705868 0.0373345 0.0950035 0.0586747 0.0985258 0.06073 0.0777344
30 1 Mg -1.75014 11.5838 49.8362 1.2 1 0.233879 0.0790599 0.028553 0.0377413 0.0315891 0.0535853 0.0476535 0.0532729 0.0471479 0.0567102 0.0632601 0.0646715 0.072643 0.0670063 0.106279 0.0872081 0.060633 0.0938328 0.0894791 0.0810071
31 2 Si -1.18003 9.02138 47.9309 2.4 1 0.367388 0.0715375 0.070155 0.0542576 0.0420465 0.060682 0.0724838 0.0784217 0.0702481 0.0649857 0.0577957 0.0670747 0.0692382 0.0808186 0.102502 0.0643773 0.100123 0.0919052 0.104417 0.0869283
32 3 O -1.23224 10.5991 47.9811 -1.2 1 0.377522 0.0638335 0.0627859 0.0500542 0.0539527 0.0750699 0.0667319 0.0783608 0.0617795 0.0868386 0.0683104 0.0641076 0.076322 0.0804789 0.0795875 0.0703746 0.0907152 0.0781588 0.0652826 0.0735361
33 3 O -1.79016 8.01447 51.8693 -1.2 1 0.110251 0.0641919 0.0290203 0.0318097 0.0298939 0.0457998 0.0626277 0.0532779 0.0582928 0.0546684 0.0534139 0.0500946 0.0663788 0.0864469 0.0921857 0.0765803 0.069599 0.0534986 0.0733846 0.0670366
34 3 O -2.30986 8.37215 48.8528 -1.2 1 0.310052 0.0894368 0.0676325 0.0230624 0.0546173 0.0632055 0.0650381 0.0643352 0.0559992 0.0656263 0.0819015 0.0701052 0.0597435 0.0624856 0.079052 0.0913035 0.0970954 0.0784376 0.0754093 0.0971284
35 1 Mg 0.154883 7.08234 46.8007 1.2 1 0.497327 0.0360084 0.0753464 0.0388935 0.0646208 0.0746607 0.0586543 0.0680781 0.0710516 0.0831339 0.0894497 0.0765159 0.0792013 0.0794848 0.0699163 0.0928916 0.0938426 0.108903 0.114066 0.10074
36 3 O 0.325447 8.50934 48.3809 -1.2 1 0.354037 0.0712844 0.0578981 0.0439035 0.0340696 0.0503367 0.0371629 0.0574011 0.0648247 0.0671349 0.0744329 0.0648234 0.0776869 0.0914577 0.0917025 0.0715446 0.088016 0.0953375 0.0837076 0.0893669
37 1 Mg 1.24285 7.00739 54.439 1.2 1 0.0217939 0.0366859 0.0170286 0.0334341 0.018699 0.0259947 0.0273997 0.0391164 0.0376644 0.0597159 0.059719 0.051391 0.0624287 0.0717993 0.0756249 0.0619618 0.0752138 0.0828568 0.0735017 0.0656044
38 2 Si 1.05993 9.71423 56.5594 2.4 1 0.0185777 0.0232639 0.0175368 0.0256444 0.0314717 0.0278678 0.0434759 0.0369254 0.0486095 0.0573271 0.0565713 0.0511681 0.05419 0.0515632 0.0865276 0.0760297 0.0703259 0.0765022 0.0701412 0.0531793
39 3 O 1.25782 8.12286 56.5111 -1.2 1 0.0183849 0.0121491 0.0206477 0.02291 0.029228 0.0255196 0.0256113 0.0705754 0.0429724 0.0519066 0.0425262 0.055329 0.0641721 0.0616385 0.0864323 0.0635922 0.0562189 0.0663628 0.0641841 0.0786494
40 3 O 1.28624 10.7248 52.7351 -1.2 1 0.0806374 0.039688 0.032227 0.021155 0.0320502 0.0442612 0.0454555 0.0539669 0.0480681 0.0467682 0.0477705 0.0480229 0.0550851 0.0637484 0.099893 0.071476 0.0668256 0.0566516 0.0758609 0.0649723
41 3 O -0.170061 10.4558 55.9302 -1.2 1 0.0196011 0.0179252 0.0293791 0.0237321 0.0213884 0.022361 0.0400252 0.0448484 0.037904 0.0402265 0.0497971 0.0384535 0.044919 0.0573839 0.0871068 0.0784835 0.0814689 0.066355 0.0598732 0.0712547
42 3 O 2.37196 10.5421 55.8277 -1.2 1 0.0205402 0.0123849 0.0282241 0.0209488 0.0264878 0.0208811 0.0418865 0.0413483 0.0360579 0.0354805 0.0475355 0.0440483 0.0482366 0.060013 0.0850477 0.0627537 0.0792632 0.0539347 0.0709716 0.0664092
43 1 Mg -0.262694 9.34741 52.2523 1.2 1 0.115234 0.0647985 0.0175578 0.0410177 0.0326862 0.0451681 0.0366362 0.0734346 0.032616 0.0844573 0.0248055 0.0610058 0.0380247 0.0714859 0.0438145 0.108033 0.0516984 0.0947313 0.04663 0.103019
44 1 Mg 1.87648 9.01537 49.4629 1.2 1 0.27058 0.0970775 0.03898 0.0359292 0.0332599 0.0493927 0.0690581 0.0477002 0.0773945 0.0647749 0.084648 0.0559645 0.0847921 0.0661089 0.0850844 0.0943382 0.0874686 0.094551 0.0872213 0.0917462
45 2 Si 1.21415 11.3799 51.2378 2.4 1 0.144921 0.0847827 0.0356764 0.0317738 0.0329365 0.0515786 0.0514685 0.0452736 0.0515926 0.064242 0.0742243 0.0640746 0.0705353 0.0722677 0.0935612 0.0875825 0.0799795 0.0786655 0.077189 0.0623045
46 3 O 1.31634 12.9512 51.3023 -1.2 1 0.152688 0.0741422 0.0234812 0.0301444 0.0352995 0.0393594 0.0366229 0.0601546 0.0576136 0.0660937 0.0408585 0.0821393 0.0642132 0.0626553 0.0713868 0.0660372 0.0795918 0.0677603 0.0699687 0.0730193
47 3 O 1.21962 10.4497 57.9707 -1.2 1 0.0152618 0.0177648 0.0263821 0.0185528 0.0180899 0.0341633 0.0350326 0.0421503 0.0480888 0.0511851 0.0347978 0.0450914 0.0483759 0.058877 0.0994404 0.064032 0.0692572 0.0627595 0.0661347 0.0686841
48 3 O -0.115718 10.7564 50.681 -1.2 1 0.187698 0.0850809 0.0238087 0.0207146 0.0509142 0.0316327 0.0492346 0.0668928 0.0541832 0.0550827 0.0624033 0.0557745 0.0618715 0.0727856 0.0863805 0.0847472 0.0734878 0.0766588 0.0812244 0.0835656
49 1 Mg -3.26386 9.35564 52.3622 1.2 1 0.0853049 0.0530178 0.0274565 0.0322736 0.0190211 0.0514477 0.0380868 0.0603729 0.0283463 0.081832 0.0307819 0.0499581 0.0384731 0.0668093 0.0417765 0.111158 0.0484629 0.0995892 0.0492841 0.089052
50 3 O 2.45216 10.7265 50.4558 -1.2 1 0.202242 0.0870189 0.0206576 0.0180198 0.0332458 0.0624021 0.0566898 0.0510343 0.0567475 0.0625684 0.0627706 0.0725656 0.0533852 0.0631672 0.0927121 0.0793659 0.0757462 0.0759145 0.0604439 0.092311
51 1 Mg -1.99057 9.52835 55.2554 1.2 1 0.0176602 0.0172536 0.0301151 0.0325636 0.0160259 0.0237222 0.0280769 0.0363684 0.0388398 0.0575272 0.0560259 0.0544687 0.0618823 0.0573122 0.0664626 0.0714595 0.0768559 0.0831696 0.0743397 0.0657525
52 2 Si -1.71925 7.34991 53.4259 2.4 1 0.0493442 0.0464672 0.0191955 0.0274335 0.0268127 0.0353452 0.0362842 0.0531137 0.0632604 0.0604884 0.0605207 0.0629917 0.0731209 0.0536513 0.0608038 0.0708946 0.0613773 0.0884486 0.0717049 0.0562705
53 3 O -1.89799 5.79441 53.319 -1.2 1 0.0665215 0.0354044 0.0205602 0.0176945 0.0234825 0.0308412 0.0378326 0.070859 0.0498689 0.0659001 0.0367775 0.0737837 0.0569514 0.0721548 0.0650056 0.0656248 0.0643981 0.0612265 0.065947 0.0618466
54 3 O -1.19417 8.46968 46.4488 -1.2 1 0.525 0.0663329 0.066549 0.0512403 0.0667559 0.0555773 0.0775125 0.0543301 0.0764348 0.0715711 0.0566719 0.0498076 0.0686292 0.0980345 0.130552 0.113195 0.0962867 0.0954461 0.0850119 0.0834558
55 3 O -3.0924 8.18085 53.9648 -1.2 1 0.0362268 0.027411 0.0331073 0.0239681 0.0250426 0.030383 0.0556205 0.0400162 0.0469691 0.0505135 0.0570247 0.0410053 0.0587375 0.0528534 0.0927206 0.0600568 0.0712847 0.0652573 0.0723843 0.0793655
56 3 O -0.460327 8.0339 53.972 -1.2 1 0.0566243 0.0326653 0.0221746 0.0275515 0.0372653 0.0169771 0.0350091 0.0444923 0.0521655 0.0550736 0.0617396 0.047336 0.060961 0.0559805 0.0857627 0.0572172 0.0785491 0.071495 0.066882 0.0733418
57 1 Mg -3.02938 16.4802 56.9164 1.2 1 0.0102845 0.0160884 0.0272121 0.0267285 0.0242845 0.0378359 0.0154985 0.0379107 0.0401645 0.0642923 0.0355318 0.0455266 0.0318796 0.0555196 0.0543634 0.0820038 0.0731029 0.0870289 0.0627414 0.0667224
58 1 Mg -1.6714 16.3544 49.8412 1.2 1 0.235198 0.0811895 0.0241214 0.0353278 0.0311034 0.0488644 0.0512713 0.0513904 0.0481916 0.0556811 0.0591783 0.0686826 0.0732207 0.070638 0.102998 0.0782358 0.0752972 0.0985027 0.0867394 0.0873099
59 2 Si -1.18567 13.8526 47.9314 2.4 1 0.384582 0.0529827 0.0627714 0.0676342 0.0284548 0.0657442 0.0449557 0.0759006 0.0580089 0.0649667 0.0552941 0.0724348 0.0608036 0.0754462 0.0972374 0.0733462 0.103188 0.0986212 0.0902546 0.0862335
60 3 O -1.09664 15.4205 47.9915 -1.2 1 0.369484 0.0662891 0.0472165 0.0583688 0.0490714 0.0933854 0.0605221 0.0803101 0.0492432 0.0842223 0.0513052 0.0736445 0.0639554 0.0820491 0.0786643 0.0751483 0.0972006 0.0750919 0.072881 0.0710898
61 3 O -1.73493 12.7491 51.7772 -1.2 1 0.123601 0.0559446 0.02947 0.02608 0.0334477 0.0493558 0.0584919 0.0528273 0.0657318 0.0546452 0.0528563 0.0472317 0.0592357 0.077968 0.0982946 0.073862 0.0817584 0.0516221 0.0686305 0.0675259
62 3 O -2.36115 13.2717 48.8238 -1.2 1 0.312313 0.0823544 0.051762 0.0336838 0.0542129 0.0532591 0.0600824 0.0681688 0.0612479 0.0646141 0.0720985 0.0636842 0.0568392 0.0565527 0.0870498 0.0905118 0.0890835 0.0767061 0.0779291 0.086315
63 1 Mg -0.159928 11.7639 46.8533 1.2 1 0.475404 0.0280386 0.0841443 0.0372453 0.0517196 0.0921602 0.0706689 0.0922941 0.0820943 0.0842808 0.0871579 0.071791 0.0748058 0.09455 0.0803263 0.0902063 0.0998892 0.0961456 0.0960867 0.106733
64 3 O 0.2623 13.1866 48.413 -1.2 1 0.342958 0.0833962 0.0577983 0.0466861 0.043601 0.0549205 0.0488412 0.0638963 0.0669195 0.0734426 0.0649703 0.0625429 0.0655197 0.0855458 0.0950647 0.0833725 0.0977664 0.0974 0.0819919 0.0886193
65 1 Mg 1.243 11.7746 54.6637 1.2 1 0.0101303 0.0198455 0.0207276 0.0252508 0.00846883 0.0187353 0.0264619 0.0374015 0.0440372 0.0593407 0.0606726 0.0545519 0.0528195 0.0745226 0.060222 0.0843297 0.0662028 0.0983395 0.0702264 0.0780633
66 2 Si 1.24683 14.3881 56.234 2.4 1 0.0171812 0.0187305 0.0174658 0.0271732 0.0257176 0.0258794 0.0342887 0.0396075 0.0387913 0.0594713 0.0544815 0.0444548 0.0536316 0.058514 0.0717119 0.0757972 0.0591706 0.0850327 0.0607627 0.0558779
67 3 O 1.1017 12.8806 56.534 -1.2 1 0.0242357 0.0239832 0.0202894 0.0234192 0.020742 0.0242851 0.0230969 0.0603212 0.0423151 0.0489771 0.0443896 0.0639145 0.0534165 0.0609522 0.0706888 0.065836 0.0713437 0.0685461 0.0642185 0.0676639
68 3 O 1.36565 15.4813 52.729 -1.2 1 0.0741212 0.0453901 0.0210249 0.0225944 0.0234442 0.0444936 0.0453392 0.0575317 0.0526313 0.0501041 0.0458491 0.0528018 0.0580725 0.0652043 0.100907 0.0673055 0.0677277 0.0548004 0.0628111 0.0670063
69 3 O -0.0941563 15.1854 55.6816 -1.2 1 0.013993 0.0195282 0.0264794 0.0234678 0.0182485 0.0212561 0.0407431 0.0380181 0.0458628 0.0396479 0.0598433 0.0334125 0.0459302 0.051023 0.0849543 0.0770531 0.0682181 0.0676021 0.0602864 0.0706551
70 3 O 2.50791 15.0845 55.4658 -1.2 1 0.0024447 0.0240145 0.0249512 0.0172461 0.0138977 0.0280435 0.0422906 0.0474242 0.0404546 0.0579904 0.0479943 0.0395678 0.0539202 0.0651554 0.0700261 0.0835012 0.0710681 0.0783647 0.0567583 0.0638318
71 1 Mg -0.206989 14.1049 52.2121 1.2 1 0.106817 0.0660648 0.0219014 0.0410593 0.0276296 0.0415944 0.0307934 0.077193 0.0265803 0.0892687 0.0295372 0.0543188 0.0294624 0.0758799 0.0357045 0.104944 0.0394456 0.100976 0.0408389 0.103439
72 1 Mg 1.82591 13.8102 49.4556 1.2 1 0.267601 0.101035 0.0317716 0.0388836 0.0351856 0.0334314 0.0662467 0.0472461 0.0669633 0.07654 0.0800903 0.0582289 0.0739065 0.0703953 0.0819302 0.0890985 0.0792893 0.103789 0.0913785 0.0810032
73 2 Si 1.29285 16.1518 51.2434 2.4 1 0.148318 0.0743869 0.0392309 0.03581 0.0370597 0.0447288 0.0564079 0.0433511 0.049382 0.0715874 0.0675828 0.0665859 0.0700574 0.0663144 0.0932803 0.0917754 0.0723007 0.0804168 0.0719752 0.0665697
74 3 O 1.39496 17.7199 51.3047 -1.2 1 0.146104 0.076987 0.0242788 0.0305562 0.0364496 0.0378293 0.0393274 0.0636409 0.0510442 0.0644912 0.0440435 0.0769409 0.0650664 0.0615643 0.068693 0.0669785 0.0834545 0.0724342 0.0676741 0.0726564
75 3 O 1.32842 15.0162 57.7376 -1.2 1 0.014466 0.0220374 0.0163011 0.014217 0.0156255 0.0292073 0.0228385 0.041291 0.0555032 0.0435076 0.0410824 0.0434096 0.050077 0.0631739 0.0964302 0.066613 0.0712095 0.0470805 0.0693874 0.062803
76 3 O -0.0269106 15.5178 50.6688 -1.2 1 0.187832 0.079775 0.0243778 0.0246915 0.0468357 0.040172 0.050087 0.0671721 0.058351 0.0554174 0.0605435 0.0472042 0.0578609 0.0803491 0.0957051 0.0826079 0.0795474 0.0831389 0.0754952 0.0841829
77 1 Mg -3.18391 14.1057 52.3125 1.2 1 0.0787874 0.0590922 0.0252112 0.0318955 0.0210246 0.0489882 0.0342457 0.0623229 0.031258 0.0806986 0.030954 0.0456802 0.028307 0.0736892 0.0370982 0.11043 0.0446047 0.101857 0.0428932 0.0869002
78 3 O 2.52432 15.503 50.4579 -1.2 1 0.20812 0.0796887 0.0262732 0.0219736 0.0348355 0.0561439 0.051156 0.0442642 0.0549844 0.0623237 0.0590704 0.0660282 0.0532819 0.0665914 0.0970664 0.0744205 0.0729672 0.0688894 0.0649941 0.0876966
79 1 Mg -1.79464 14.3516 55.0068 1.2 1 0.0246836 0.0272704 0.0245158 0.0289115 0.0224545 0.0235244 0.0212659 0.0269312 0.0350474 0.0609677 0.0583166 0.0495196 0.0624681 0.063027 0.0620467 0.0877979 0.0740733 0.0853714 0.0750703 0.0770667
80 2 Si -1.62894 12.1287 53.3134 2.4 1 0.0542698 0.0363081 0.0212242 0.0274461 0.0323565 0.0367889 0.0392756 0.058609 0.0627342 0.0693186 0.0542204 0.0693632 0.0729923 0.05331 0.0675262 0.0751366 0.0680851 0.0834911 0.0613135 0.0558577
81 3 O -1.67379 10.4851 53.3985 -1.2 1 0.0592044 0.0391454 0.0218955 0.0272824 0.0290628 0.0316947 0.025415 0.0658353 0.0381295 0.0691676 0.0411693 0.066293 0.0675036 0.0690727 0.060183 0.0559415 0.064091 0.0542895 0.0772129 0.0643265
82 3 O -1.21337 13.3381 46.4311 -1.2 1 0.520241 0.0677535 0.0688873 0.0407672 0.0566613 0.0571239 0.0565788 0.0700411 0.0798759 0.0660467 0.0462983 0.071086 0.0676195 0.0875656 0.12015 0.113722 0.106549 0.100747 0.0598795 0.0910829
83 3 O -2.8239 12.766 54.0699 -1.2 1 0.0362344 0.024365 0.0298637 0.0260208 0.0288128 0.0296634 0.0515751 0.0444181 0.0506194 0.0582119 0.0491706 0.0455411 0.0492078 0.0603995 0.0764922 0.067491 0.0587497 0.0705827 0.0618194 0.0646625
84 3 O -0.214259 12.8412 53.8334 -1.2 1 0.0441265 0.0358983 0.0231579 0.0246616 0.0169204 0.0233571 0.0398435 0.0467972 0.0581834 0.0518328 0.0587046 0.0423585 0.0615557 0.0459212 0.0915198 0.0647782 0.0731418 0.0664925 0.0619627 0.0711743
85 1 Mg -2.93702 21.2278 57.2379 1.2 1 0.00672075 0.0173515 0.0176567 0.0226963 0.0167197 0.0352797 0.0142608 0.048417 0.0180292 0.0768269 0.0159219 0.0468814 0.0171867 0.0626886 0.0266141 0.105822 0.0417132 0.109406 0.0313218 0.0899782
86 1 Mg -1.5831 21.1217 49.8405 1.2 1 0.236545 0.0755091 0.0219915 0.0406515 0.0299709 0.0460315 0.0557671 0.0522924 0.0489412 0.0592757 0.0642861 0.0662801 0.0690762 0.0671979 0.0976512 0.0799738 0.0763516 0.095632 0.08227 0.0814732
87 2 Si -1.09384 18.6291 47.9287 2.4 1 0.3833 0.0556123 0.0638133 0.0682306 0.0304975 0.0690018 0.0435838 0.0756438 0.059524 0.0684157 0.0562482 0.0733687 0.0611824 0.0714574 0.0955715 0.0739236 0.104778 0.0927209 0.0886892 0.0872648
88 3 O -1.02071 20.1985 47.9911 -1.2 1 0.370329 0.0626159 0.0424116 0.0639787 0.0449776 0.0906768 0.0626725 0.0810524 0.0536363 0.0864831 0.0557391 0.074634 0.0615049 0.0796204 0.0791757 0.0745343 0.0947748 0.0761445 0.0739369 0.0699097
89 3 O -1.65002 17.5002 51.771 -1.2 1 0.111576 0.0640595 0.0262427 0.0253153 0.0327442 0.0499975 0.0590263 0.0515094 0.0664219 0.0561207 0.0566529 0.0503677 0.0547938 0.0829634 0.0982411 0.0787872 0.0799349 0.0511485 0.0728883 0.0711941
90 3 O -2.26174 18.0434 48.8281 -1.2 1 0.31692 0.0786073 0.0523143 0.0351706 0.0567075 0.0450303 0.0547401 0.0704054 0.0590716 0.066643 0.0720099 0.0606326 0.0506983 0.0556053 0.076893 0.0821398 0.0841877 0.0808425 0.0852323 0.088539
91 1 Mg -0.0440435 16.5651 46.8269 1.2 1 0.48493 0.0204578 0.0765353 0.0317197 0.061801 0.0821632 0.0742842 0.0837529 0.0714245 0.0871394 0.0873798 0.0618334 0.0624764 0.0803123 0.0783859 0.0915271 0.0919816 0.0970344 0.101724 0.108616
92 3 O 0.37001 17.9877 48.3925 -1.2 1 0.358207 0.0618094 0.0451953 0.047609 0.0431585 0.0566379 0.0418404 0.062602 0.0645436 0.0724848 0.0602469 0.0552726 0.0602726 0.0824316 0.0917919 0.0771755 0.0930941 0.101872 0.0823576 0.0819687
93 1 Mg 1.35876 16.4404 54.5182 1.2 1 0.0112666 0.0320299 0.0245463 0.0342768 0.00924907 0.0170983 0.0200716 0.0366647 0.0471257 0.0600884 0.0503095 0.0466211 0.0528751 0.0695235 0.0628525 0.0734511 0.068829 0.0944443 0.0703276 0.0862226
94 2 Si 1.49614 19.2383 56.1446 2.4 1 0.0351706 0.0133318 0.0264366 0.0263874 0.0326312 0.0314899 0.0388282 0.0488175 0.0563436 0.0594213 0.0520846 0.0572625 0.0659139 0.0599082 0.0755197 0.079042 0.0499895 0.0947265 0.0608578 0.0572334
95 3 O 1.52118 17.5855 56.1274 -1.2 1 0.0166338 0.0201984 0.0170023 0.0177771 0.0295137 0.0211384 0.0253708 0.0740576 0.0373788 0.0538017 0.0393928 0.0615677 0.0673136 0.061658 0.0722368 0.0744102 0.0637538 0.0572996 0.0658449 0.061885
96 3 O 1.45147 20.239 52.7294 -1.2 1 0.0754369 0.0422257 0.0287486 0.0173342 0.0242126 0.0399122 0.0490087 0.0566609 0.0497138 0.0513392 0.0430573 0.0517781 0.0588343 0.0647779 0.100967 0.0739195 0.0696802 0.0614852 0.0685507 0.0703
97 3 O 0.0935908 20.0875 55.5212 -1.2 1 0.013518 0.0177133 0.0182657 0.0202431 0.0296781 0.0205881 0.0410998 0.0385681 0.0425744 0.0452809 0.0560742 0.0351145 0.0471499 0.0492961 0.0842229 0.0756592 0.0722508 0.0671649 0.0652966 0.0755102
98 3 O 2.67509 19.9924 55.4623 -1.2 1 0.012958 0.0233032 0.0163149 0.0132696 0.0170282 0.0240749 0.0384711 0.0465669 0.0328807 0.0511635 0.0476436 0.0401588 0.0524363 0.0555553 0.0827223 0.0827951 0.0612457 0.0855792 0.0613321 0.0638007
99 1 Mg -0.126194 18.8651 52.2079 1.2 1 0.10447 0.0710829 0.0172596 0.0458 0.0294091 0.0389085 0.0364203 0.0721027 0.0277913 0.0837935 0.0308795 0.0538175 0.0325778 0.0750083 0.0299544 0.10435 0.0494108 0.0971393 0.048165 0.102257
100 1 Mg 1.92402 18.5815 49.4545 1.2 1 0.269144 0.101739 0.0387676 0.04415 0.0338933 0.0351309 0.0665219 0.045656 0.0710905 0.0721378 0.0785945 0.053076 0.065758 0.0651502 0.085916 0.0919842 0.0785357 0.0998454 0.0828871 0.0814252
101 2 Si 1.38106 20.9117 51.2443 2.4 1 0.142568 0.0821244 0.0245858 0.0324432 0.0367266 0.0434946 0.0578239 0.0440914 0.052021 0.0720753 0.0702557 0.0650843 0.0687863 0.0665299 0.0958717 0.08817 0.0806698 0.082177 0.0735048 0.0635533
102 3 O 1.48527 22.4795 51.3054 -1.2 1 0.136718 0.0795637 0.02302 0.028011 0.0313299 0.0473019 0.0414798 0.0668363 0.0505431 0.0670148 0.0481695 0.0817349 0.0673724 0.0638193 0.0802684 0.0734621 0.0792377 0.0757073 0.0691778 0.0702625
103 3 O 1.70164 19.6503 57.6054 -1.2 1 0.012187 0.00920018 0.0185819 0.0280102 0.0195324 0.0295272 0.0307379 0.045432 0.0688349 0.0417632 0.0430002 0.0463673 0.0606073 0.0682748 0.0842059 0.0782668 0.0619283 0.0544153 0.0718369 0.0560386
104 3 O 0.0615419 20.2804 50.6669 -1.2 1 0.189614 0.0819413 0.0254386 0.0187967 0.0461032 0.0411656 0.0543606 0.0561353 0.0549103 0.0584956 0.0581112 0.0484389 0.0610093 0.0746968 0.0938335 0.0810936 0.076275 0.0812381 0.0671182 0.0852304
105 1 Mg -3.09665 18.8643 52.3122 1.2 1 0.079104 0.0604322 0.0265045 0.0285719 0.0200685 0.0513641 0.0381033 0.0549509 0.0342464 0.0810711 0.0412643 0.0500927 0.0280663 0.0699516 0.0394139 0.109717 0.0516835 0.0985014 0.0462152 0.0816913
106 3 O 2.61548 20.2646 50.4626 -1.2 1 0.209625 0.082308 0.0270833 0.0211381 0.0359419 0.0507341 0.0523986 0.0432448 0.0527324 0.0615377 0.061267 0.0684341 0.0532405 0.0569299 0.0950477 0.0740485 0.0760021 0.0668904 0.0654902 0.0840427
107 1 Mg -1.53152 19.2607 55.0205 1.2 1 0.0164603 0.0261105 0.0216898 0.0310902 0.0240507 0.029225 0.0280138 0.0377471 0.0378699 0.0504672 0.0673858 0.0617708 0.058397 0.0722282 0.0679348 0.0715578 0.0773751 0.0778734 0.0773714 0.0675905
108 2 Si -1.59928 16.8118 53.2336 2.4 1 0.0498578 0.0506249 0.0168959 0.0221282 0.0316856 0.0321521 0.0457898 0.0579947 0.0577507 0.0669009 0.0607887 0.0698295 0.0719744 0.0496741 0.0723364 0.0657523 0.071762 0.094587 0.0646809 0.0571666
109 3 O -1.69604 15.213 53.2258 -1.2 1 0.0678194 0.0409742 0.0175231 0.0225332 0.0277174 0.031653 0.0332544 0.0745542 0.0458645 0.0668899 0.0437035 0.062719 0.0556948 0.0717081 0.0765613 0.0572843 0.0575084 0.0627763 0.0741924 0.0734363
110 3 O -1.12868 18.1227 46.4249 -1.2 1 0.521939 0.0660722 0.0728854 0.0518194 0.0572534 0.0654215 0.0613454 0.0787547 0.0788295 0.0616431 0.0453399 0.068375 0.0677779 0.087715 0.116681 0.115028 0.107511 0.101277 0.0623584 0.0921023
111 3 O -2.83508 17.5213 53.9271 -1.2 1 0.0362581 0.0305965 0.0253091 0.0201921 0.0242604 0.0336687 0.0448444 0.0434325 0.0458341 0.055715 0.0483285 0.0428433 0.0524269 0.0657909 0.082672 0.0658768 0.061365 0.0657372 0.0679829 0.0765212
112 3 O -0.246256 17.5669 53.7088 -1.2 1 0.0330914 0.0428512 0.0229976 0.0248848 0.024728 0.0172864 0.0465924 0.0499002 0.0563604 0.0453615 0.05454 0.0472896 0.0568117 0.0578157 0.0880936 0.0665368 0.0854116 0.0736539 0.0816065 0.0613497
113 1 Mg -2.87639 26.0462 57.4675 1.2 1 0.0143172 0.0146332 0.008322 0.0248221 0.00818854 0.0355714 0.0156954 0.0624169 0.017174 0.0769858 0.0197749 0.0483065 0.0263131 0.0738508 0.0283124 0.108478 0.033283 0.10973 0.039512 0.0843312
114 1 Mg -1.48778 25.88 49.8402 1.2 1 0.230179 0.0811853 0.0283946 0.0395376 0.0310817 0.0524452 0.0522556 0.0526884 0.0501923 0.0575783 0.0619547 0.0645028 0.0731507 0.0762481 0.10215 0.0781664 0.0694205 0.0947507 0.0832527 0.0835352
115 2 Si -1.00491 23.3922 47.9274 2.4 1 0.368257 0.0715826 0.0692751 0.0712938 0.0317866 0.0750173 0.0436188 0.0848449 0.070314 0.0743084 0.0509485 0.0770653 0.0615865 0.0761167 0.0950317 0.0776651 0.104576 0.0955597 0.0889694 0.0924901
116 3 O -0.927602 24.9615 47.9909 -1.2 1 0.366047 0.0687468 0.0479756 0.0643459 0.0452464 0.0910457 0.0633399 0.0829899 0.0582999 0.0895849 0.0549344 0.0715978 0.060686 0.081619 0.0805714 0.072347 0.0933159 0.076919 0.0754394 0.0682554
117 3 O -1.55795 22.2588 51.7696 -1.2 1 0.117121 0.0566299 0.0292931 0.028007 0.030261 0.0508696 0.0578917 0.054673 0.0619067 0.0538814 0.0551196 0.0485342 0.0554833 0.0818659 0.0995468 0.0742972 0.0791746 0.0478321 0.0729767 0.0704838
118 3 O -2.17411 22.8111 48.8277 -1.2 1 0.306729 0.0888923 0.0550822 0.0341548 0.0585524 0.04934 0.0531132 0.0721719 0.062431 0.0676333 0.0729739 0.0610245 0.0559363 0.0555553 0.0785434 0.0877733 0.0888662 0.0813309 0.0841553 0.0870197
119 1 Mg 0.0423997 21.3296 46.8225 1.2 1 0.485342 0.021572 0.0760178 0.0312939 0.0612978 0.0825 0.0736432 0.0834871 0.0722189 0.0884055 0.0887435 0.0627946 0.0621849 0.0790123 0.0765404 0.0904267 0.0923808 0.0970702 0.100612 0.107743
120 3 O 0.458537 22.7495 48.3911 -1.2 1 0.348964 0.07313 0.052807 0.0326356 0.0465563 0.0623713 0.0393752 0.0681851 0.0651524 0.0735237 0.0648765 0.0557285 0.0601177 0.0864537 0.0985721 0.0798263 0.0929761 0.102562 0.0796349 0.0818978
121 1 Mg 1.5068 21.4465 54.5043 1.2 1 0.0135921 0.0311441 0.0128146 0.0285981 0.0218031 0.0212938 0.0241034 0.0374601 0.0440461 0.060026 0.0621191 0.0552644 0.0615474 0.0593419 0.0625561 0.0764428 0.075256 0.0785979 0.0871448 0.07203
122 2 Si 1.70088 24.0564 56.3758 2.4 1 0.0195646 0.0232355 0.0195909 0.0329172 0.0270603 0.0278545 0.0371636 0.0466212 0.0611411 0.0450599 0.0472381 0.0691269 0.0691578 0.0551649 0.0781127 0.0673752 0.0663391 0.0819162 0.0618587 0.0557925
123 3 O 1.64332 22.4485 56.5493 -1.2 1 0.0224795 0.0184216 0.0280897 0.0180092 0.0185104 0.0220626 0.033476 0.0606555 0.0415058 0.0415165 0.0503225 0.0585964 0.051503 0.0600587 0.0844369 0.0696043 0.0586491 0.0755256 0.0484053 0.0860106
124 3 O 1.54441 24.9963 52.7297 -1.2 1 0.0708691 0.0439601 0.0273924 0.0222954 0.0266103 0.0363092 0.0497965 0.0543686 0.0544373 0.0472844 0.0451396 0.0499273 0.0646348 0.0673857 0.0981769 0.0704976 0.0692898 0.0642734 0.0753669 0.0675776
125 3 O 0.451498 24.6599 55.7783 -1.2 1 0.0167972 0.0162354 0.0294436 0.0141815 0.0192752 0.0273015 0.0433561 0.0320286 0.0348818 0.0412444 0.0489272 0.0474335 0.0544371 0.0683868 0.0899248 0.0632737 0.0831161 0.0536602 0.0774769 0.0649879
126 3 O 2.90598 24.7302 55.7542 -1.2 1 0.00478278 0.027896 0.0295948 0.0175175 0.0214685 0.0147942 0.0419392 0.0398818 0.0376009 0.0401583 0.0503442 0.0487904 0.0548337 0.0560556 0.0894099 0.0756639 0.0685376 0.0681178 0.0603749 0.0731317