ITEM: TIMESTEP
4900
ITEM: NUMBER OF ATOMS
10500
ITEM: BOX BOUNDS xy xz yz pp pp pp
0	8.9688	2.9896
0	118.725	0
0	252.977	0
ITEM: ATOMS id type element xu yu zu q Q_1 Q_2 Q_3 Q_4 Q_5 Q_6 Q_7 Q_8 Q_9 Q_10 Q_11 Q_12 Q_13 Q_14 Q_15 Q_16 Q_17 Q_18 Q_19 Q_20 Q_21
1 1 Mg -3.41852 6.98968 57.4561 1.2 1 0.00780636 0.0141553 0.00721699 0.0272745 0.00670135 0.0321821 0.00566893 0.0538929 0.00934948 0.0853955 0.0114334 0.0521653 0.00860126 0.070708 0.0117976 0.103569 0.0159468 0.113254 0.015934 0.102908
2 1 Mg -1.82655 6.90154 50.0912 1.2 1 0.219653 0.0879167 0.0324559 0.0311498 0.0287382 0.0562417 0.0459089 0.0439477 0.0552226 0.067229 0.0544024 0.0748904 0.0696338 0.0633288 0.0950217 0.0600877 0.0861771 0.10019 0.0748651 0.0801549
3 2 Si -0.257935 3.96038 48.0876 2.4 1 0.371886 0.0726188 0.0743143 0.0359064 0.0612177 0.0522166 0.0735829 0.0766608 0.0572791 0.0773451 0.0564424 0.0685963 0.0623762 0.0841993 0.0957179 0.0995217 0.110153 0.0913031 0.0690428 0.0721268
4 3 O -0.335812 5.46814 47.6264 -1.2 1 0.427131 0.0395242 0.0647974 0.0306078 0.041032 0.0492346 0.0650669 0.0700682 0.0872347 0.0755837 0.0918331 0.075797 0.0707969 0.0679642 0.0911133 0.124751 0.0948732 0.0803252 0.0749506 0.0780631
5 3 O -2.03793 3.43377 51.8941 -1.2 1 0.114319 0.0596044 0.0273558 0.0219542 0.0207812 0.0513574 0.0597843 0.049444 0.0480082 0.0569308 0.0653096 0.0529982 0.0491146 0.0767952 0.0874061 0.0835153 0.0677741 0.0563212 0.0741655 0.0696003
6 3 O -1.54015 3.53929 48.9521 -1.2 1 0.294956 0.0977459 0.0373898 0.0493063 0.0372517 0.0476929 0.0718226 0.0527835 0.0522386 0.0614898 0.0795563 0.0676181 0.0697122 0.0676552 0.0722577 0.11222 0.083938 0.0769736 0.0746377 0.0882523
7 1 Mg 1.82954 2.54582 47.1376 1.2 1 0.466113 0.0220508 0.0800496 0.0500032 0.0354566 0.0827237 0.0599626 0.058794 0.0758186 0.0883837 0.06892 0.0770274 0.0822397 0.0853799 0.0695189 0.0958861 0.101702 0.10453 0.106364 0.0998467
8 3 O 1.22989 3.66364 48.7877 -1.2 1 0.318395 0.0734136 0.020988 0.0474599 0.0314832 0.0644771 0.0798158 0.032775 0.081948 0.0790147 0.0525462 0.0777923 0.0828434 0.0678282 0.0655016 0.0873468 0.0925361 0.0902704 0.0949914 0.0924242
9 1 Mg 1.01705 2.28187 54.5859 1.2 1 0.011769 0.0233485 0.01755 0.0344976 0.0212216 0.034622 0.0176298 0.0316254 0.0397755 0.0606603 0.0576427 0.0534251 0.0595867 0.06821 0.064473 0.0813516 0.0701268 0.092332 0.0702381 0.076152
10 2 Si 1.0239 4.99209 56.4744 2.4 1 0.0127947 0.0174465 0.024523 0.0234931 0.0261234 0.0244995 0.0352674 0.0499033 0.0482696 0.0533899 0.0555196 0.0631846 0.0666047 0.0554907 0.0878604 0.0691993 0.0615662 0.0982164 0.0545739 0.0587963
11 3 O 0.980919 3.42937 56.5797 -1.2 1 0.0258229 0.0126343 0.013843 0.0262777 0.0173919 0.0242541 0.0214343 0.061734 0.0323081 0.0475384 0.0391745 0.0663622 0.0547648 0.0615867 0.0727601 0.0695777 0.0541767 0.074412 0.0576189 0.0805804
12 3 O 1.10813 6.07342 52.8172 -1.2 1 0.0869285 0.0412145 0.0297709 0.0203328 0.0221629 0.0450862 0.0422877 0.0536154 0.052908 0.0411368 0.0571862 0.0519897 0.0687532 0.0680533 0.08637 0.0840567 0.0581344 0.0679189 0.0698553 0.0675751
13 3 O -0.235392 5.67793 55.8002 -1.2 1 0.0140623 0.0121019 0.0234731 0.0256631 0.0215115 0.0164028 0.041998 0.0410778 0.0414887 0.0445496 0.0551631 0.0376113 0.0559572 0.0558228 0.0890237 0.071943 0.0727902 0.0636081 0.061877 0.0700622
14 3 O 2.32483 5.62859 55.8229 -1.2 1 0.0259421 0.00916635 0.0353682 0.0153246 0.0228203 0.0151693 0.0367635 0.0476211 0.0411361 0.0402882 0.0537308 0.0366769 0.0489898 0.0703604 0.083363 0.0737771 0.0814273 0.0637212 0.069686 0.0615705
15 1 Mg -0.459401 4.67631 52.2426 1.2 1 0.091268 0.0661342 0.0332807 0.0383303 0.0301898 0.0308008 0.0394715 0.0612779 0.0431933 0.0824994 0.043341 0.0616718 0.0477717 0.0747192 0.0441072 0.0998906 0.052026 0.0932418 0.0605539 0.0891656
16 1 Mg 2.79456 3.9971 49.9987 1.2 1 0.222145 0.0952509 0.0300535 0.0396345 0.0427983 0.0610076 0.0564786 0.0551184 0.0786851 0.063897 0.0633909 0.0576364 0.0638869 0.071156 0.0843056 0.0779254 0.0733123 0.0915293 0.0871789 0.0731909
17 2 Si 1.16169 6.59457 51.2556 2.4 1 0.138933 0.0859932 0.0385241 0.0308079 0.0428674 0.0497821 0.046128 0.0446969 0.0604527 0.0639083 0.064712 0.0734174 0.0723169 0.0665574 0.0869464 0.0898582 0.0792478 0.0906509 0.0727349 0.06416
18 3 O 1.28989 8.18905 51.2909 -1.2 1 0.139077 0.0896439 0.0211621 0.0364107 0.0354585 0.0463153 0.0402247 0.0741449 0.0519288 0.0685544 0.0429912 0.0909373 0.0734668 0.0647212 0.0786811 0.0728854 0.0740772 0.0667328 0.0690162 0.069739
19 3 O 1.05636 5.69566 57.9659 -1.2 1 0.019052 0.0187056 0.0225007 0.011059 0.0216899 0.0329094 0.0260475 0.042251 0.0466768 0.046999 0.0411168 0.050504 0.0486143 0.0650381 0.10145 0.0669156 0.0668781 0.0560161 0.0727359 0.0674674
20 3 O -0.184847 6.06029 50.6845 -1.2 1 0.185617 0.0836503 0.0206794 0.0287826 0.0365503 0.0301023 0.0505991 0.0582501 0.0561283 0.0590393 0.0655493 0.0766461 0.0650033 0.0593625 0.0884745 0.0694005 0.083724 0.0782324 0.0622417 0.0788495
21 1 Mg -3.49704 4.67769 52.6661 1.2 1 0.0671031 0.053304 0.0241656 0.0282724 0.011612 0.0415123 0.0333083 0.0593143 0.0526609 0.0688124 0.0498433 0.0511279 0.0506463 0.0505931 0.0555904 0.0851726 0.0866585 0.0770134 0.0745857 0.0710557
22 3 O 2.48581 5.93312 50.6539 -1.2 1 0.189928 0.0940623 0.0335706 0.0178686 0.0372958 0.0481529 0.0608764 0.057835 0.0476932 0.0672673 0.0478836 0.0626223 0.0571641 0.0608963 0.10212 0.0696285 0.076248 0.0694035 0.0778686 0.077632
23 1 Mg -1.93437 4.69283 55.1854 1.2 1 0.0239284 0.0168144 0.0227156 0.0284955 0.0114559 0.0186 0.0248478 0.0368531 0.0393476 0.053906 0.0566457 0.0523368 0.0591336 0.0641262 0.0607696 0.0785651 0.0770602 0.0965099 0.0658558 0.0831627
24 2 Si -1.96023 2.608 53.333 2.4 1 0.0425751 0.0357491 0.0301219 0.025046 0.0249669 0.0235444 0.0458215 0.0444186 0.0600132 0.0705976 0.0591006 0.0697048 0.0764314 0.0483767 0.0681652 0.0564943 0.0714887 0.0885938 0.0777469 0.0650848
25 3 O -1.98517 1.04531 53.2032 -1.2 1 0.0526502 0.0369004 0.0272793 0.0294107 0.0155562 0.0399654 0.0251041 0.0672848 0.0620257 0.0603577 0.0513498 0.0653349 0.0578998 0.0742523 0.0762235 0.0699828 0.0517149 0.0675789 0.0686068 0.075136
26 3 O -0.0467762 2.97103 46.8385 -1.2 1 0.497763 0.0374658 0.0877787 0.0292966 0.0798699 0.0677082 0.0811844 0.0719905 0.0724976 0.0790093 0.0812953 0.0753781 0.0969496 0.088506 0.0885336 0.0886174 0.0990789 0.0968858 0.105071 0.111191
27 3 O -3.21101 3.23881 54.1102 -1.2 1 0.0322618 0.0254756 0.0259835 0.021963 0.0238696 0.0275975 0.0329434 0.0408966 0.0513621 0.0548536 0.0627464 0.0442489 0.0573175 0.0616698 0.0771748 0.0657757 0.0662185 0.0668685 0.0680569 0.058847
28 3 O -0.670909 3.26432 54.0046 -1.2 1 0.0334272 0.0254148 0.0391948 0.017279 0.0223607 0.027103 0.0452128 0.04437 0.0421206 0.0519699 0.0626056 0.0463893 0.0545184 0.0748369 0.0775688 0.0664513 0.0810377 0.0702585 0.0644187 0.057778
29 1 Mg -3.21935 11.7523 57.3597 1.2 1 0.00497237 0.0218764 0.00479557 0.0336118 0.00524545 0.0337901 0.00692641 0.0547168 0.00942893 0.0818525 0.00802994 0.0527545 0.00989179 0.0719979 0.01137 0.103624 0.01723 0.113084 0.0219581 0.099604
30 1 Mg -1.75014 11.5838 49.8362 1.2 1 0.230442 0.0807586 0.0274733 0.0404047 0.0296798 0.0548872 0.0494314 0.0548927 0.0460371 0.0587203 0.0652061 0.0611285 0.0719754 0.0724016 0.109477 0.0890892 0.0647311 0.0940997 0.0858068 0.0802667
31 2 Si -1.18003 9.02138 47.9309 2.4 1 0.371257 0.0661965 0.0658982 0.0518687 0.0421163 0.0624738 0.0718544 0.0754198 0.0701907 0.0653332 0.0582911 0.0663819 0.0672241 0.0803894 0.10059 0.0649386 0.100557 0.0912974 0.103508 0.086512
32 3 O -1.23224 10.5991 47.9811 -1.2 1 0.375358 0.064973 0.0587806 0.0549458 0.0520539 0.07106 0.06649 0.0759895 0.0541097 0.0853344 0.0696536 0.0639327 0.0731473 0.0802061 0.0827928 0.0687435 0.0906682 0.082136 0.0653699 0.0722178
33 3 O -1.79016 8.01447 51.8693 -1.2 1 0.114037 0.0612079 0.0326606 0.0291599 0.0314888 0.0473895 0.0579241 0.0564757 0.056736 0.0520157 0.051443 0.0524254 0.0650254 0.0853057 0.0893305 0.075285 0.0725436 0.052324 0.0741101 0.0671322
34 3 O -2.30986 8.37215 48.8528 -1.2 1 0.311813 0.0875574 0.0669089 0.0242791 0.0535043 0.0617584 0.067494 0.065709 0.0573194 0.0662943 0.0794315 0.0665792 0.0563322 0.0640091 0.0784939 0.0916937 0.0984223 0.0794355 0.0751186 0.0942572
35 1 Mg 0.154883 7.08234 46.8007 1.2 1 0.492933 0.0290995 0.0815548 0.0384446 0.0635524 0.0736113 0.059879 0.0721589 0.0715323 0.0799504 0.0877254 0.0763325 0.0785318 0.0785254 0.0704275 0.0947167 0.0935267 0.105474 0.111322 0.101243
36 3 O 0.325447 8.50934 48.3809 -1.2 1 0.34767 0.0797766 0.0599354 0.0448928 0.0342708 0.0532724 0.0364988 0.0577006 0.0621736 0.063077 0.0734163 0.0634171 0.0774018 0.0915846 0.0899541 0.068155 0.0919221 0.101581 0.085751 0.0890787
37 1 Mg 1.13878 7.1186 54.6429 1.2 1 0.0166698 0.0271046 0.0148376 0.0293543 0.0189288 0.0229472 0.0208079 0.0326387 0.0431092 0.0621698 0.0614088 0.0569333 0.0506192 0.0674754 0.0607218 0.0910544 0.067966 0.0818398 0.079638 0.0814312
38 2 Si 1.18093 9.73836 56.4735 2.4 1 0.0203774 0.0192713 0.015791 0.025901 0.0295828 0.0299879 0.044341 0.042263 0.0508316 0.0567596 0.0561129 0.0646467 0.0677891 0.057966 0.0833371 0.0689215 0.0573699 0.0940716 0.0534514 0.0601972
39 3 O 1.13694 8.18934 56.5023 -1.2 1 0.0370292 0.00773831 0.0191245 0.0241636 0.0258627 0.0295838 0.0212571 0.0643401 0.0357118 0.0514813 0.0378384 0.0676606 0.0586802 0.0663292 0.0699151 0.0652958 0.0570667 0.0708257 0.0594679 0.0753343
40 3 O 1.28624 10.7248 52.7351 -1.2 1 0.0772749 0.0467974 0.025508 0.0209328 0.0297384 0.045239 0.0517778 0.0487296 0.0459302 0.044661 0.0490498 0.0434985 0.0572057 0.0676862 0.0988527 0.0792228 0.0656551 0.0545714 0.0730331 0.0598775
41 3 O -0.067927 10.4936 55.8313 -1.2 1 0.00394909 0.0103591 0.0238804 0.0206039 0.0181245 0.0188337 0.0436767 0.0374481 0.033687 0.0398128 0.0535379 0.043929 0.0524773 0.0503693 0.0937958 0.0673103 0.0764485 0.0570785 0.0635724 0.0720368
42 3 O 2.44451 10.3925 55.73 -1.2 1 0.0179136 0.0106608 0.02193 0.0179741 0.0238085 0.0152139 0.044937 0.0433649 0.0365287 0.0437388 0.0533893 0.0367706 0.0533531 0.0622515 0.0843761 0.075887 0.0738871 0.0645501 0.0680502 0.0642886
43 1 Mg -0.262694 9.34741 52.2523 1.2 1 0.115902 0.063472 0.0186326 0.0404235 0.0343523 0.0416339 0.0367771 0.0714715 0.028041 0.0885704 0.0282773 0.0571257 0.0383706 0.0728621 0.0404644 0.10371 0.0515065 0.0959053 0.0497686 0.102066
44 1 Mg 1.87648 9.01537 49.4629 1.2 1 0.270623 0.0968363 0.0392091 0.0374988 0.0337438 0.0486382 0.0690116 0.0465658 0.0760653 0.0632824 0.082726 0.0527756 0.0842527 0.0673483 0.0855993 0.0944448 0.0877078 0.0950702 0.0848123 0.0910928
45 2 Si 1.21415 11.3799 51.2378 2.4 1 0.130781 0.0854196 0.041919 0.0365757 0.0395667 0.0521714 0.0523274 0.0416356 0.0568429 0.0637018 0.0744087 0.070653 0.0771328 0.067934 0.0938251 0.0890686 0.0779109 0.080842 0.0766324 0.0559823
46 3 O 1.31634 12.9512 51.3023 -1.2 1 0.148778 0.0686798 0.029978 0.0343906 0.0296097 0.0450306 0.0394641 0.0677723 0.0508815 0.0654223 0.0452915 0.0779126 0.0666801 0.0622969 0.0717917 0.0666009 0.0748197 0.0704177 0.0730718 0.0713045
47 3 O 1.26941 10.421 57.9532 -1.2 1 0.0127389 0.0163062 0.0227593 0.0112896 0.0201852 0.0352605 0.029558 0.0419517 0.0480019 0.049105 0.0361961 0.0479358 0.0505609 0.0641695 0.101558 0.0647258 0.0652809 0.0580067 0.0714186 0.0672751
48 3 O -0.115718 10.7564 50.681 -1.2 1 0.191733 0.0788229 0.0234756 0.0190038 0.0446755 0.0343424 0.0480208 0.0669764 0.0504222 0.0552069 0.0614046 0.0520312 0.0623986 0.0742921 0.0901939 0.0790245 0.0749362 0.0753432 0.0774309 0.0816953
49 1 Mg -3.26386 9.35564 52.3622 1.2 1 0.0819825 0.0552506 0.0252015 0.0308746 0.0160398 0.0539259 0.0342473 0.0592164 0.0302714 0.082716 0.0328629 0.0492581 0.0360411 0.0634317 0.03643 0.113168 0.0456027 0.103365 0.0485251 0.0892387
50 3 O 2.45216 10.7265 50.4558 -1.2 1 0.199871 0.0900404 0.0185282 0.0112793 0.0403156 0.0495863 0.0587492 0.0504312 0.0558943 0.0675896 0.0626707 0.0755625 0.0519522 0.0642193 0.0988392 0.0836446 0.0744489 0.0751982 0.0585065 0.0861748
51 1 Mg -1.81457 9.51079 55.1718 1.2 1 0.0272464 0.0134855 0.0168253 0.029303 0.0121934 0.0192887 0.0214504 0.0327461 0.0371916 0.052697 0.0580702 0.0554628 0.0605859 0.0611868 0.0621952 0.0731207 0.0772068 0.0919443 0.0765446 0.0782854
52 2 Si -1.81966 7.35601 53.4084 2.4 1 0.0514935 0.0420466 0.0249364 0.0315941 0.0314886 0.0317455 0.0432252 0.0528342 0.058021 0.0644172 0.0619219 0.0600612 0.0750918 0.0472818 0.0625152 0.067017 0.0685079 0.0886739 0.0670103 0.0585018
53 3 O -1.9464 5.8048 53.3356 -1.2 1 0.0583634 0.0342474 0.0250766 0.0167824 0.023217 0.0311465 0.0346369 0.0633806 0.0507037 0.0636672 0.0401256 0.076988 0.0530181 0.0748994 0.0588973 0.0630605 0.0592506 0.0581007 0.0735664 0.0655276
54 3 O -1.19417 8.46968 46.4488 -1.2 1 0.524979 0.0665162 0.0670611 0.0513733 0.0667075 0.0565768 0.0786064 0.0546229 0.075735 0.0710363 0.0570432 0.0511654 0.0695099 0.0979217 0.130308 0.113813 0.0975286 0.0953412 0.0836097 0.083162
55 3 O -3.13585 8.04331 54.0302 -1.2 1 0.0451907 0.0254125 0.0262851 0.0217338 0.0178776 0.0255229 0.0460784 0.0428284 0.0411618 0.0563782 0.0562393 0.0424563 0.0591988 0.0612772 0.0806877 0.0687706 0.0707957 0.0669215 0.0677624 0.0735803
56 3 O -0.556549 8.09565 54.0524 -1.2 1 0.0602155 0.0190729 0.0262812 0.0202517 0.0312416 0.0220756 0.034723 0.0438517 0.0420732 0.0495593 0.059822 0.0469924 0.0580677 0.0551352 0.0841861 0.0643663 0.0733341 0.0721489 0.0681334 0.0691282
57 1 Mg -3.1232 16.5135 57.2978 1.2 1 0.0100982 0.0203824 0.00513878 0.032997 0.00638986 0.034534 0.0065009 0.054843 0.0122277 0.0829322 0.011141 0.0515264 0.00986767 0.0701158 0.0161758 0.102465 0.0244644 0.114188 0.0261951 0.098828
58 1 Mg -1.6714 16.3544 49.8412 1.2 1 0.233028 0.0798353 0.0232583 0.0419614 0.0292572 0.0502659 0.0535498 0.0524531 0.0478145 0.0582048 0.0609681 0.0665487 0.0733606 0.0744546 0.104857 0.0837174 0.0738051 0.0953195 0.0848668 0.0843046
59 2 Si -1.18567 13.8526 47.9314 2.4 1 0.379678 0.059927 0.0688796 0.0645439 0.0288595 0.06671 0.0465332 0.0789586 0.0604118 0.0662324 0.0544862 0.0719685 0.0586617 0.0751844 0.0980708 0.074069 0.10291 0.096758 0.0902578 0.0893895
60 3 O -1.09664 15.4205 47.9915 -1.2 1 0.36615 0.0700751 0.0493148 0.0627582 0.0452587 0.0924059 0.0633133 0.0824609 0.0566934 0.0889932 0.0544965 0.0725086 0.0608489 0.0825556 0.0817104 0.0733465 0.0935289 0.0770804 0.0748613 0.0682926
61 3 O -1.73493 12.7491 51.7772 -1.2 1 0.117297 0.0576121 0.0300402 0.0273773 0.0331523 0.0529077 0.0595119 0.0498941 0.0657998 0.0518591 0.0561515 0.0494914 0.0550318 0.0839686 0.102231 0.0774327 0.0805751 0.0504507 0.0715059 0.0694503
62 3 O -2.36115 13.2717 48.8238 -1.2 1 0.311254 0.0868476 0.0545847 0.0306712 0.0550482 0.0496612 0.0542113 0.069066 0.0614324 0.0655374 0.0740601 0.0626538 0.0573804 0.0540775 0.0834353 0.0872901 0.0874208 0.0771128 0.0813328 0.0894179
63 1 Mg -0.159928 11.7639 46.8533 1.2 1 0.482402 0.0250396 0.0771041 0.0338926 0.0532909 0.0966818 0.0703556 0.0885499 0.0833211 0.0843286 0.0839963 0.0687043 0.072022 0.0917822 0.0773321 0.0861653 0.0968596 0.0972217 0.099521 0.106328
64 3 O 0.2623 13.1866 48.413 -1.2 1 0.346933 0.073656 0.0524856 0.038186 0.0460763 0.0579966 0.0381768 0.0645845 0.0665531 0.0695895 0.0617012 0.0596904 0.065144 0.0874134 0.0967523 0.0810433 0.0951764 0.0993544 0.0821341 0.0839465
65 1 Mg 1.28656 11.8603 54.5165 1.2 1 0.00656587 0.0237776 0.014834 0.0256871 0.0146084 0.0151404 0.0235928 0.0322819 0.0434955 0.0609385 0.0634242 0.0583405 0.0596035 0.0625027 0.0647187 0.0793649 0.0757721 0.0841718 0.0768709 0.071597
66 2 Si 1.34159 14.4587 56.3997 2.4 1 0.0225823 0.0153088 0.0178301 0.0221047 0.0243498 0.0313641 0.038706 0.0392808 0.0521136 0.0559948 0.0529415 0.0640281 0.0677115 0.0595407 0.0793654 0.0703106 0.0589225 0.0922045 0.0532631 0.0578116
67 3 O 1.28499 12.9039 56.5089 -1.2 1 0.0383794 0.0143762 0.0144472 0.0242803 0.019307 0.0250864 0.0228695 0.0662052 0.040062 0.0493822 0.0420008 0.069855 0.0519727 0.0653396 0.0779441 0.0689781 0.0567969 0.0747318 0.057969 0.0764576
68 3 O 1.36565 15.4813 52.729 -1.2 1 0.0741746 0.044787 0.0250702 0.0213789 0.0270066 0.0419955 0.0487926 0.0550662 0.0512684 0.047164 0.0446523 0.0474534 0.056537 0.0659528 0.10122 0.0745457 0.0684765 0.0589606 0.07123 0.0600689
69 3 O 0.0703091 15.1351 55.7017 -1.2 1 0.0114408 0.0117771 0.0297617 0.0191232 0.0132727 0.0203586 0.0405983 0.0436499 0.0345935 0.0489957 0.0529119 0.0404217 0.0521746 0.0593024 0.0876422 0.070384 0.0783277 0.0574575 0.0667924 0.0653315
70 3 O 2.5883 15.1226 55.7039 -1.2 1 0.0245762 0.0169595 0.0242625 0.0165875 0.0228506 0.021313 0.0485867 0.0434371 0.0351159 0.0443863 0.0569796 0.0346325 0.0536185 0.0654345 0.0824183 0.0771547 0.0756833 0.061386 0.0636671 0.0699874
71 1 Mg -0.206989 14.1049 52.2121 1.2 1 0.106166 0.0661903 0.0220408 0.042786 0.0267066 0.0397458 0.0373358 0.0708177 0.026234 0.0844836 0.0278721 0.0557005 0.0308848 0.0758219 0.0310533 0.103844 0.0442493 0.106288 0.0429249 0.0985115
72 1 Mg 1.82591 13.8102 49.4556 1.2 1 0.26648 0.100877 0.0280011 0.0385354 0.0337067 0.0330721 0.0693181 0.0443709 0.0678893 0.0755272 0.0784722 0.0595274 0.0767676 0.0708596 0.0837848 0.092502 0.0781393 0.0979975 0.0914271 0.0834134
73 2 Si 1.29285 16.1518 51.2434 2.4 1 0.127941 0.0875389 0.0366854 0.038753 0.0361443 0.0505512 0.0553509 0.0441779 0.0538513 0.0688562 0.0673365 0.0719312 0.0718009 0.0671392 0.0903876 0.0845872 0.0759774 0.0842467 0.0716795 0.0618855
74 3 O 1.39496 17.7199 51.3047 -1.2 1 0.151803 0.065944 0.0288098 0.0352035 0.0315349 0.041184 0.0423553 0.0644221 0.0568295 0.0670959 0.0444198 0.0746723 0.0674624 0.064175 0.0741681 0.0654973 0.0775426 0.0740026 0.0681485 0.0741591
75 3 O 1.30934 15.1636 57.8749 -1.2 1 0.019293 0.0223101 0.023822 0.0123401 0.0210184 0.035445 0.0297808 0.0462042 0.0523184 0.0435352 0.0398496 0.0505995 0.0490203 0.0627646 0.104766 0.0662449 0.0707646 0.0527042 0.0717195 0.0667016
76 3 O -0.0269106 15.5178 50.6688 -1.2 1 0.181356 0.0843373 0.0232236 0.0217958 0.04439 0.0427699 0.053059 0.0656055 0.0568443 0.058502 0.0587974 0.0501088 0.0625291 0.0779139 0.0944894 0.0829481 0.0765877 0.0790737 0.0726332 0.0892057
77 1 Mg -3.18391 14.1057 52.3125 1.2 1 0.07208 0.0568728 0.0330179 0.0336389 0.015819 0.0555447 0.035101 0.0614177 0.0337204 0.0834785 0.0331234 0.048816 0.0236086 0.0758945 0.032526 0.110142 0.0440959 0.102674 0.0446309 0.0895834
78 3 O 2.52432 15.503 50.4579 -1.2 1 0.199197 0.0892382 0.0208834 0.0171927 0.0378036 0.0560508 0.0574896 0.0462327 0.0558049 0.0656944 0.0627939 0.0694045 0.0579165 0.0639639 0.0994513 0.0771704 0.0766493 0.0705799 0.0621704 0.085334
79 1 Mg -1.656 14.1636 55.1353 1.2 1 0.0167849 0.0218017 0.0188404 0.0268961 0.0163421 0.0258364 0.0277243 0.0324844 0.0401946 0.0600162 0.0547058 0.0607477 0.0652231 0.0632003 0.0635548 0.0757679 0.0798027 0.0988357 0.0669238 0.0845432
80 2 Si -1.66452 12.0654 53.2665 2.4 1 0.0515368 0.0400745 0.021896 0.0295895 0.0310047 0.0328046 0.0444967 0.0554272 0.058847 0.0644404 0.0595573 0.0693068 0.0785307 0.0502317 0.072398 0.0624524 0.0655056 0.0874376 0.0642843 0.0606009
81 3 O -1.73388 10.5204 53.2299 -1.2 1 0.0739717 0.0330113 0.0216707 0.021941 0.0319116 0.0336048 0.025572 0.0759854 0.0456456 0.0583282 0.0486554 0.0697194 0.0582195 0.0747872 0.0714288 0.0635517 0.0500424 0.0600738 0.0688798 0.0704728
82 3 O -1.21337 13.3381 46.4311 -1.2 1 0.520182 0.0678662 0.0695659 0.0407189 0.0562009 0.0578344 0.0578076 0.0703243 0.0797143 0.0658021 0.0457608 0.0709839 0.0680117 0.0879371 0.120508 0.114221 0.106589 0.100214 0.0597024 0.0912354
83 3 O -2.94121 12.7373 53.9366 -1.2 1 0.0339249 0.0292443 0.0253949 0.0272614 0.0240851 0.028351 0.0501474 0.0459147 0.0442088 0.0559701 0.0486709 0.0432346 0.0566251 0.0647009 0.0773487 0.0678364 0.0693648 0.0599276 0.0662092 0.0692998
84 3 O -0.372067 12.7879 53.8896 -1.2 1 0.0498504 0.0241949 0.0296799 0.0188118 0.0258357 0.0184599 0.0423804 0.0483345 0.0453414 0.0542217 0.0568215 0.0453337 0.0578844 0.0594106 0.0913076 0.0605689 0.0806477 0.0633802 0.0667077 0.0688984
85 1 Mg -3.14695 21.2442 57.4705 1.2 1 0.0120163 0.0161367 0.012157 0.0280602 0.0120422 0.0351181 0.0114473 0.0561297 0.0174346 0.0820113 0.0152838 0.0522303 0.0197023 0.0693152 0.0210307 0.10275 0.032563 0.111311 0.0371646 0.0938049
86 1 Mg -1.5831 21.1217 49.8405 1.2 1 0.229751 0.0815495 0.0249032 0.0408669 0.0328163 0.0488954 0.0547598 0.0550058 0.0504463 0.0606347 0.0613531 0.0655278 0.072707 0.0722327 0.101913 0.0819787 0.0742187 0.0941098 0.0847791 0.0833225
87 2 Si -1.09384 18.6291 47.9287 2.4 1 0.379079 0.0609284 0.0682032 0.0660597 0.0295654 0.0682119 0.0448214 0.0787145 0.0627638 0.0685146 0.0536596 0.0721532 0.0597638 0.0735816 0.0991831 0.0740046 0.103874 0.0925061 0.0893868 0.0890074
88 3 O -1.02071 20.1985 47.9911 -1.2 1 0.36575 0.0699732 0.0494292 0.0628142 0.0450294 0.0919361 0.0632553 0.0826815 0.0568202 0.0883852 0.0552662 0.0731396 0.0605397 0.0814396 0.0811022 0.0741637 0.0944279 0.0774448 0.0745562 0.0679615
89 3 O -1.65002 17.5002 51.771 -1.2 1 0.111438 0.0588889 0.0330229 0.0270181 0.032112 0.0542194 0.0583189 0.0504339 0.0652597 0.0543389 0.055369 0.0488202 0.0538237 0.082884 0.102581 0.0762858 0.0804792 0.0453945 0.074293 0.0717991
90 3 O -2.26174 18.0434 48.8281 -1.2 1 0.311062 0.085445 0.0529306 0.0359321 0.0561668 0.0473837 0.0522139 0.0732423 0.0611626 0.0674012 0.0712758 0.0586555 0.0531243 0.0568152 0.0779543 0.0839095 0.0841119 0.0797451 0.0834636 0.0880024
91 1 Mg -0.0440435 16.5651 46.8269 1.2 1 0.481172 0.0216276 0.0811827 0.0327538 0.0665454 0.0870307 0.0787277 0.0854626 0.0689369 0.083904 0.0852235 0.0622379 0.0634648 0.0780468 0.0769252 0.0941252 0.0938056 0.0959747 0.0991318 0.105586
92 3 O 0.37001 17.9877 48.3925 -1.2 1 0.341297 0.0838912 0.0591382 0.0420683 0.0441063 0.0604509 0.0433402 0.0679923 0.0669579 0.0736698 0.0610861 0.0574314 0.0660543 0.0871674 0.0947176 0.0768442 0.0933506 0.10084 0.0811884 0.0869162
93 1 Mg 1.3855 16.5498 54.5324 1.2 1 0.0116605 0.0263326 0.0147159 0.0290357 0.0111505 0.0175399 0.0187845 0.0322526 0.0469462 0.0603572 0.0579 0.0535488 0.0588614 0.0667679 0.0604628 0.0813184 0.0727651 0.0934236 0.0751167 0.0790874
94 2 Si 1.39382 19.2083 56.3656 2.4 1 0.0200881 0.0154339 0.0198041 0.0271323 0.0304382 0.0319688 0.0410494 0.0399102 0.0507719 0.0547633 0.0512322 0.0643279 0.0693928 0.0577824 0.0796186 0.0722007 0.056333 0.0937064 0.0576064 0.0576044
95 3 O 1.3771 17.6966 56.4103 -1.2 1 0.0266543 0.00434548 0.0185936 0.0234016 0.0289347 0.0238048 0.017502 0.0748034 0.0363418 0.0540296 0.0425392 0.0697034 0.0552905 0.0632166 0.0703637 0.067425 0.0536233 0.0681017 0.0638781 0.0677175
96 3 O 1.45147 20.239 52.7294 -1.2 1 0.0798826 0.0390171 0.022861 0.0245166 0.0230269 0.0429471 0.0492976 0.054913 0.0490145 0.0475653 0.0411024 0.0517856 0.0591669 0.0617463 0.101628 0.0702704 0.0705302 0.0597171 0.0706461 0.0616196
97 3 O 0.160634 19.906 55.6737 -1.2 1 0.00554538 0.0125445 0.0245807 0.0214141 0.0179259 0.0237701 0.0477672 0.042494 0.0350073 0.0494847 0.0508625 0.0383196 0.0547235 0.056838 0.0865661 0.0727564 0.0739395 0.0583568 0.0597734 0.0639698
98 3 O 2.67825 19.8686 55.7305 -1.2 1 0.0238291 0.00943326 0.0293837 0.0151129 0.0239417 0.0144659 0.048464 0.0450065 0.0391625 0.04576 0.0546366 0.0369326 0.0525977 0.0709185 0.0807967 0.0788244 0.0756174 0.0626207 0.0664819 0.0667652
99 1 Mg -0.126194 18.8651 52.2079 1.2 1 0.102591 0.0679152 0.0235886 0.0470754 0.0267883 0.0414703 0.0387148 0.0709114 0.0279434 0.0835812 0.0255323 0.0551528 0.0301571 0.0727393 0.0314312 0.108473 0.0424174 0.1042 0.0409174 0.100492
100 1 Mg 1.92402 18.5815 49.4545 1.2 1 0.265843 0.104314 0.0345798 0.041058 0.0318406 0.032971 0.0673237 0.0460769 0.0667381 0.0773978 0.0821123 0.056298 0.0723293 0.0662999 0.0820472 0.0923176 0.079047 0.100608 0.0862441 0.0849393
101 2 Si 1.38106 20.9117 51.2443 2.4 1 0.124029 0.0885604 0.0400552 0.0375612 0.0391603 0.050583 0.0510722 0.0455157 0.0559762 0.0665434 0.0655082 0.0727911 0.07007 0.0688103 0.0920821 0.0842658 0.0753812 0.0840732 0.0708359 0.0632464
102 3 O 1.48527 22.4795 51.3054 -1.2 1 0.143604 0.0727285 0.0290208 0.0369666 0.0324186 0.040682 0.0446098 0.0664539 0.0544762 0.0653601 0.0450165 0.0749607 0.0696887 0.0658303 0.0714652 0.0668529 0.0763015 0.0736933 0.0703105 0.0726868
103 3 O 1.35438 19.8905 57.8664 -1.2 1 0.0127291 0.0211535 0.0235295 0.0145473 0.0181849 0.0304683 0.0301468 0.0457466 0.0541748 0.0438151 0.0399427 0.0470765 0.0508999 0.0634877 0.104719 0.0687011 0.0668379 0.0491675 0.0721752 0.0653313
104 3 O 0.0615419 20.2804 50.6669 -1.2 1 0.186026 0.0802584 0.0257918 0.0196791 0.0464417 0.0420756 0.0527515 0.0638646 0.0549208 0.0555525 0.0587325 0.0482344 0.0604926 0.0731174 0.0903978 0.0817616 0.0737523 0.0788077 0.070429 0.0888008
105 1 Mg -3.09665 18.8643 52.3122 1.2 1 0.069971 0.0580893 0.033732 0.0341542 0.0151397 0.0560572 0.0353648 0.0612668 0.0359142 0.0842215 0.0325357 0.0484234 0.0229867 0.074969 0.0349274 0.109195 0.0442582 0.102919 0.0445281 0.091466
106 3 O 2.61548 20.2646 50.4626 -1.2 1 0.198812 0.0891061 0.0255425 0.0185485 0.04254 0.0524334 0.0556376 0.0447631 0.0576022 0.0685404 0.0642001 0.0676269 0.0553965 0.0619845 0.0993975 0.0748588 0.072855 0.0693107 0.0643663 0.0857619
107 1 Mg -1.58041 18.9531 55.1159 1.2 1 0.015944 0.0113243 0.0169821 0.0269213 0.0126023 0.0184571 0.0251082 0.0352623 0.0383249 0.0569188 0.0590379 0.0593817 0.0591536 0.0621213 0.0604254 0.0765654 0.0764402 0.0980607 0.0708942 0.0820937
108 2 Si -1.61283 16.8103 53.2516 2.4 1 0.0558655 0.0386434 0.0200861 0.0235873 0.0331139 0.0328463 0.0457878 0.0574824 0.0560689 0.066116 0.0574386 0.0663335 0.0779128 0.0505991 0.0733256 0.0629977 0.0648207 0.0875173 0.061669 0.0609055
109 3 O -1.67484 15.2526 53.197 -1.2 1 0.0660316 0.0366072 0.0216066 0.0232407 0.0299617 0.0328929 0.0283175 0.0762705 0.0455767 0.0595586 0.0472592 0.0705991 0.0568286 0.075577 0.0721209 0.0666922 0.0475519 0.0671611 0.0718222 0.0762482
110 3 O -1.12868 18.1227 46.4249 -1.2 1 0.522048 0.0664213 0.0724968 0.0519947 0.0576654 0.0650136 0.0609118 0.0790967 0.0794071 0.0619554 0.0450125 0.0679859 0.0675988 0.0877224 0.116696 0.114948 0.10714 0.100819 0.0624907 0.0926643
111 3 O -2.83965 17.5264 53.9962 -1.2 1 0.0369493 0.018867 0.0300536 0.0205084 0.0195187 0.0269207 0.0472836 0.0429409 0.0404199 0.0550795 0.0534061 0.0406086 0.0526641 0.0606597 0.0811764 0.0691873 0.0662147 0.0674295 0.0676458 0.0649765
112 3 O -0.269028 17.501 53.8434 -1.2 1 0.051911 0.0275297 0.0299045 0.0173259 0.0226618 0.0197324 0.0420626 0.0508537 0.0462478 0.0539123 0.0564246 0.0452539 0.0591241 0.0598382 0.085996 0.0605372 0.0825601 0.0641986 0.0691493 0.0682794
113 1 Mg -2.90297 25.957 57.3559 1.2 1 0.00630709 0.0191242 0.00418474 0.027789 0.00595704 0.0334306 0.00697476 0.054856 0.0102875 0.0831522 0.0128147 0.0515071 0.0136698 0.0718475 0.0148543 0.102298 0.0197441 0.114737 0.0202942 0.10069
114 1 Mg -1.48778 25.88 49.8402 1.2 1 0.226039 0.0853119 0.0239734 0.0428749 0.0298372 0.0523274 0.0546572 0.0538483 0.0505038 0.0616731 0.0623708 0.0649133 0.0746209 0.0748449 0.103231 0.0821055 0.0741429 0.0950104 0.0834749 0.0847777
115 2 Si -1.00491 23.3922 47.9274 2.4 1 0.375787 0.0625524 0.0663277 0.0716972 0.0315402 0.0739263 0.0417535 0.0838344 0.0660639 0.0721867 0.0526237 0.0750702 0.0592601 0.073659 0.0939661 0.0768456 0.102796 0.0958243 0.0895754 0.0933057
116 3 O -0.927602 24.9615 47.9909 -1.2 1 0.36561 0.0698508 0.0493053 0.0633273 0.0449561 0.0913112 0.063793 0.082618 0.0565415 0.0882214 0.0544177 0.0719639 0.0610336 0.0824441 0.080994 0.0743525 0.0955078 0.0774132 0.0749136 0.0687789
117 3 O -1.55795 22.2588 51.7696 -1.2 1 0.111212 0.0587504 0.0331418 0.0267898 0.0336124 0.0538556 0.0578815 0.0497796 0.0646067 0.0528607 0.0566073 0.0492396 0.0536617 0.0827287 0.101602 0.0761977 0.0799487 0.0455823 0.0747844 0.0734179
118 3 O -2.17411 22.8111 48.8277 -1.2 1 0.301712 0.0948922 0.0581863 0.029325 0.0592378 0.049612 0.0563924 0.0724843 0.0625741 0.0687305 0.0710534 0.059695 0.0539309 0.0570011 0.0809197 0.0893958 0.0871141 0.077294 0.0825143 0.0891958
119 1 Mg 0.0423997 21.3296 46.8225 1.2 1 0.481593 0.0222961 0.0807835 0.0328234 0.0660837 0.0874549 0.0785885 0.0858694 0.0696219 0.0834711 0.0847373 0.0621697 0.0632872 0.0778482 0.0767024 0.0938894 0.0951217 0.097104 0.0984733 0.104674
120 3 O 0.458537 22.7495 48.3911 -1.2 1 0.345103 0.0778944 0.0565481 0.0408091 0.0467225 0.0617008 0.0402189 0.0671041 0.0665065 0.0713382 0.0600988 0.0574816 0.0642975 0.0864736 0.0948792 0.0763205 0.0941922 0.10233 0.0820071 0.0860016
121 1 Mg 1.47003 21.2737 54.548 1.2 1 0.00950279 0.0262662 0.0142207 0.0303083 0.0104234 0.0175007 0.0163674 0.0328125 0.0465528 0.0614394 0.0558186 0.0525845 0.056665 0.0678453 0.0569595 0.0820021 0.0706518 0.0950705 0.0728952 0.0824208
122 2 Si 1.46318 23.9125 56.344 2.4 1 0.0206736 0.0180499 0.0166794 0.027411 0.0311404 0.0289996 0.0437469 0.0392697 0.0469386 0.0574778 0.0554453 0.062255 0.0667325 0.0567401 0.0816557 0.0745057 0.0602072 0.0944559 0.0583726 0.0606916
123 3 O 1.40535 22.3646 56.4707 -1.2 1 0.0363205 0.012327 0.0156026 0.0222889 0.020989 0.0235004 0.0195264 0.0693549 0.0375178 0.0505018 0.043451 0.0643066 0.0508134 0.0649748 0.0756945 0.0690673 0.0583029 0.069366 0.0623068 0.0763892
124 3 O 1.54441 24.9963 52.7297 -1.2 1 0.0670072 0.0456356 0.0286511 0.0235729 0.0263239 0.0430604 0.0527114 0.055158 0.0491782 0.0457137 0.0444817 0.04983 0.0570244 0.0671192 0.102337 0.0741139 0.0680238 0.0606145 0.0727379 0.0612974
125 3 O 0.177736 24.6491 55.7218 -1.2 1 0.00406432 0.00923246 0.0335569 0.0179968 0.0147877 0.0206156 0.0392554 0.0451572 0.038565 0.0505568 0.0520369 0.0404553 0.0521648 0.058161 0.0880828 0.0791037 0.070999 0.0596447 0.0612872 0.073017
126 3 O 2.68121 24.655 55.651 -1.2 1 0.0164958 0.0203155 0.0237234 0.0204836 0.0216673 0.0211614 0.0480155 0.0440263 0.0332339 0.0453934 0.05564 0.0367659 0.0506109 0.0599525 0.0859918 0.0753604 0.0746794 0.0679624 0.0619797 0.0652198