ITEM: TIMESTEP
52400
ITEM: NUMBER OF ATOMS
10500
ITEM: BOX BOUNDS xy xz yz pp pp pp
0	8.9688	2.9896
0	118.725	0
0	252.977	0
ITEM: ATOMS id type element xu yu zu q Q_1 Q_2 Q_3 Q_4 Q_5 Q_6 Q_7 Q_8 Q_9 Q_10 Q_11 Q_12 Q_13 Q_14 Q_15 Q_16 Q_17 Q_18 Q_19 Q_20 Q_21
1 1 Mg -3.18344 7.15464 57.3414 1.2 1 0.0127854 0.0163302 0.00826764 0.0318838 0.0137588 0.0308239 0.0184061 0.0485272 0.0217771 0.0804441 0.0229376 0.0480862 0.0216657 0.0628869 0.0306516 0.102451 0.0354298 0.106048 0.051954 0.0891529
2 1 Mg -1.82655 6.90154 50.0912 1.2 1 0.217261 0.0889748 0.0307968 0.0386882 0.0336465 0.0507347 0.0514818 0.046751 0.0548624 0.0743208 0.0587689 0.0689674 0.0700585 0.0614676 0.0968105 0.0640978 0.0879657 0.0960555 0.0723783 0.0773525
3 2 Si -0.257935 3.96038 48.0876 2.4 1 0.368343 0.0752867 0.0750786 0.037783 0.0597379 0.05019 0.0719646 0.0785501 0.0600163 0.0765458 0.0550512 0.068369 0.0645684 0.0913248 0.102612 0.101232 0.108108 0.090237 0.0706404 0.0719908
4 3 O -0.335812 5.46814 47.6264 -1.2 1 0.427071 0.038548 0.0650739 0.0322421 0.0405907 0.0470963 0.0656053 0.0718422 0.0870801 0.0762117 0.0932404 0.0756422 0.0705507 0.0702811 0.0936884 0.12514 0.0930009 0.0799779 0.0768208 0.0784701
5 3 O -2.03793 3.43377 51.8941 -1.2 1 0.110947 0.0611957 0.0265045 0.0229628 0.0237063 0.0517482 0.0614066 0.0489236 0.048534 0.0572016 0.064727 0.0505935 0.0530597 0.0758231 0.0915119 0.0818282 0.0698355 0.0563544 0.0778958 0.0683744
6 3 O -1.54015 3.53929 48.9521 -1.2 1 0.30286 0.0933455 0.0371744 0.0457571 0.0337947 0.0497854 0.072526 0.0496098 0.056634 0.0644738 0.0728879 0.0668473 0.068502 0.0695519 0.0738105 0.109069 0.0802419 0.0790162 0.0753559 0.0921837
7 1 Mg 1.82954 2.54582 47.1376 1.2 1 0.462763 0.0192791 0.082418 0.0539886 0.0401238 0.0843877 0.0630369 0.0598569 0.0751874 0.0872992 0.0669988 0.0770888 0.0821224 0.08476 0.0713551 0.0984932 0.10111 0.101393 0.10363 0.0978566
8 3 O 1.22989 3.66364 48.7877 -1.2 1 0.318043 0.0743144 0.0217353 0.0468392 0.0321654 0.0648992 0.0795819 0.0334267 0.0823451 0.0793222 0.0527388 0.0777639 0.083336 0.0680241 0.0669229 0.0883862 0.0927821 0.0900367 0.0933538 0.0926646
9 1 Mg 0.97464 2.33438 54.4844 1.2 1 0.0163176 0.0211779 0.0215007 0.031498 0.0272899 0.0282539 0.0239256 0.0328734 0.0412993 0.0602562 0.0584687 0.0620787 0.064678 0.0638008 0.0656458 0.0693463 0.0716645 0.0849851 0.0806046 0.0672162
10 2 Si 1.12133 4.94099 56.4356 2.4 1 0.0186933 0.0154172 0.0278556 0.0280025 0.0230059 0.0150511 0.042411 0.0443442 0.0434314 0.0551501 0.0542429 0.065283 0.0639721 0.058007 0.0814746 0.0634831 0.0717795 0.0927206 0.0602773 0.0692837
11 3 O 0.938257 3.38398 56.4666 -1.2 1 0.0187244 0.0138021 0.0236494 0.0203458 0.0244537 0.0290423 0.0213196 0.0648347 0.0321586 0.0569629 0.0331107 0.0609907 0.0514645 0.0613024 0.069489 0.0689353 0.0623424 0.0618566 0.0627372 0.0809257
12 3 O 1.10813 6.07342 52.8172 -1.2 1 0.0847183 0.0448678 0.0287323 0.0189278 0.0207406 0.0487207 0.0471136 0.0548924 0.0479037 0.0431155 0.0525835 0.0590062 0.0676341 0.0647718 0.08566 0.0832287 0.0591708 0.0720094 0.0718624 0.0666119
13 3 O -0.0598124 5.75907 55.7636 -1.2 1 0.012142 0.0125672 0.0227476 0.0211483 0.0243673 0.0214492 0.0413877 0.0437232 0.0340185 0.0479021 0.0548908 0.0409092 0.0518786 0.0543398 0.0903889 0.070278 0.069479 0.0648365 0.0676252 0.0664058
14 3 O 2.51885 5.63258 55.7384 -1.2 1 0.00838258 0.0277338 0.0270746 0.0244559 0.0284484 0.0230775 0.0385421 0.0438039 0.0423878 0.0430926 0.054785 0.0406166 0.0593027 0.070845 0.0704008 0.0756112 0.0682403 0.0793764 0.0676318 0.0704107
15 1 Mg -0.459401 4.67631 52.2426 1.2 1 0.0919594 0.0697548 0.0303163 0.0380707 0.0270259 0.0336198 0.0379086 0.0594738 0.0403927 0.0785062 0.0435619 0.0604554 0.0512498 0.0728144 0.0488076 0.100117 0.0528747 0.0933803 0.0590282 0.0857797
16 1 Mg 2.79456 3.9971 49.9987 1.2 1 0.225047 0.0939801 0.0317527 0.0391359 0.0420667 0.062741 0.0550246 0.0539003 0.0790857 0.0588307 0.0586197 0.056994 0.0611475 0.0710976 0.0869384 0.0753891 0.0725162 0.091646 0.0806029 0.0714743
17 2 Si 1.16169 6.59457 51.2556 2.4 1 0.136209 0.0873457 0.0370372 0.0324623 0.0425596 0.0526133 0.0444276 0.0428206 0.0631572 0.0633993 0.064294 0.0746114 0.0735443 0.0656011 0.084807 0.0867723 0.0806011 0.0886412 0.0776978 0.0656213
18 3 O 1.28989 8.18905 51.2909 -1.2 1 0.141231 0.0875022 0.0214038 0.0358361 0.0356245 0.0466553 0.0399233 0.07275 0.0505258 0.0668264 0.0502662 0.0917829 0.0713882 0.0635562 0.0773469 0.0725728 0.0737568 0.0705627 0.0718507 0.0688057
19 3 O 1.15825 5.51703 57.8967 -1.2 1 0.0146025 0.0161119 0.0187679 0.0185528 0.0206529 0.0314571 0.0279781 0.0416686 0.0604998 0.0469766 0.0501864 0.0428135 0.0554205 0.0735267 0.102487 0.0736372 0.0661797 0.0531883 0.0700813 0.0694257
20 3 O -0.184847 6.06029 50.6845 -1.2 1 0.178106 0.0902665 0.0198943 0.0352782 0.0319131 0.0355893 0.0506552 0.062803 0.0566314 0.0622991 0.0656505 0.0777094 0.0690199 0.0585682 0.0904159 0.070896 0.081425 0.0766804 0.0616964 0.0785813
21 1 Mg -3.49704 4.67769 52.6661 1.2 1 0.0608364 0.0537488 0.0279448 0.0257887 0.0121744 0.0441038 0.0362901 0.0541486 0.0578861 0.0663838 0.048584 0.0475951 0.0521185 0.049753 0.0636271 0.0865913 0.0838325 0.0768641 0.0694614 0.0759872
22 3 O 2.48581 5.93312 50.6539 -1.2 1 0.195133 0.0878876 0.0323097 0.0203668 0.0295061 0.0467859 0.060353 0.0579307 0.0404099 0.0683596 0.0452497 0.0681663 0.0550368 0.060924 0.102227 0.0685018 0.0790932 0.0674544 0.0788195 0.0739167
23 1 Mg -1.72368 4.90535 55.1588 1.2 1 0.0170886 0.0178111 0.0187971 0.0276851 0.0177766 0.0201123 0.0231176 0.0364932 0.0379242 0.0546808 0.0523183 0.0602779 0.0629301 0.0674511 0.0651131 0.0767367 0.0771574 0.0889438 0.074173 0.0753996
24 2 Si -1.97877 2.69087 53.3528 2.4 1 0.032812 0.0362113 0.0281972 0.0249586 0.0241209 0.0222524 0.0469326 0.0466974 0.0593202 0.0646258 0.0533701 0.067025 0.0796552 0.0496337 0.063893 0.0616803 0.0692302 0.0891516 0.0804246 0.0642084
25 3 O -1.93651 1.17385 53.1275 -1.2 1 0.0569449 0.0381988 0.0328166 0.0228026 0.0213002 0.039277 0.0276209 0.067853 0.0616335 0.0541118 0.054715 0.067592 0.0597396 0.0665341 0.081627 0.0768323 0.0541164 0.0788424 0.0595954 0.0794116
26 3 O -0.0467762 2.97103 46.8385 -1.2 1 0.497725 0.0370764 0.0877384 0.0297332 0.0803596 0.0680449 0.0809465 0.0717077 0.0725378 0.0793918 0.0820594 0.07608 0.0970279 0.0884042 0.0885274 0.088713 0.0994497 0.0972763 0.104545 0.110024
27 3 O -3.27936 3.34696 54.0275 -1.2 1 0.036322 0.0282042 0.0279024 0.0205525 0.0297101 0.0263169 0.0418735 0.0435851 0.0568839 0.0501195 0.0633195 0.0445898 0.059772 0.0662902 0.0880141 0.0572105 0.072725 0.0637583 0.0709591 0.0673908
28 3 O -0.742476 3.32956 54.0654 -1.2 1 0.0356548 0.0201397 0.0330235 0.0186381 0.0247744 0.0257795 0.0457658 0.0449639 0.0445743 0.0540168 0.0613614 0.0410819 0.0492877 0.0787843 0.0817486 0.0738971 0.0747318 0.0762173 0.0648348 0.0606494
29 1 Mg -3.11227 12.0195 57.3835 1.2 1 0.0176267 0.0160424 0.0073771 0.0279671 0.0114117 0.0378936 0.0137485 0.0591443 0.0244781 0.0788414 0.0212661 0.0486792 0.0234309 0.0729375 0.0283773 0.0951757 0.0414626 0.113968 0.0420733 0.0890535
30 1 Mg -1.75014 11.5838 49.8362 1.2 1 0.234181 0.0782908 0.0270022 0.0406136 0.0286411 0.0540035 0.0500418 0.0521122 0.0465174 0.0563513 0.0664385 0.0639645 0.0712261 0.0686773 0.108298 0.0859398 0.0617733 0.0946449 0.0844175 0.0805488
31 2 Si -1.18003 9.02138 47.9309 2.4 1 0.371572 0.0659531 0.0645957 0.0533262 0.0406833 0.0600493 0.0722139 0.0776784 0.0711099 0.064526 0.0573135 0.068217 0.0688641 0.0803188 0.100545 0.0654751 0.100489 0.0916115 0.10375 0.0841808
32 3 O -1.23224 10.5991 47.9811 -1.2 1 0.370449 0.0729297 0.0653531 0.0521604 0.0520163 0.0723663 0.0684058 0.0776092 0.0551904 0.0868238 0.068469 0.0619219 0.0752641 0.0842667 0.0854439 0.0730956 0.0952734 0.0816951 0.0626958 0.0732658
33 3 O -1.79016 8.01447 51.8693 -1.2 1 0.114223 0.0613114 0.0324672 0.0297391 0.0323018 0.0464557 0.0588316 0.0543987 0.0565878 0.0547438 0.047725 0.0538752 0.0642844 0.0858147 0.0885247 0.0742413 0.0736273 0.0545818 0.0745243 0.0656465
34 3 O -2.30986 8.37215 48.8528 -1.2 1 0.310597 0.0873481 0.06688 0.0254967 0.0552683 0.0643517 0.0634955 0.0645513 0.0570944 0.0634187 0.0787886 0.0686497 0.0610651 0.0646683 0.0790152 0.0915484 0.0997246 0.0816075 0.0734612 0.0936026
35 1 Mg 0.154883 7.08234 46.8007 1.2 1 0.497339 0.0358253 0.0754689 0.0402079 0.0648295 0.0733496 0.0567672 0.0683095 0.0726011 0.0841766 0.0897215 0.0765796 0.0795433 0.0800892 0.0705435 0.0929635 0.0930707 0.107793 0.113516 0.101072
36 3 O 0.325447 8.50934 48.3809 -1.2 1 0.349629 0.0762865 0.0619153 0.0410144 0.0405571 0.0559522 0.0391417 0.060831 0.0606819 0.0667431 0.075305 0.0623331 0.078636 0.0944419 0.0935316 0.0717619 0.09052 0.100212 0.0859242 0.0867925
37 1 Mg 1.29977 7.08547 54.6866 1.2 1 0.0124125 0.0336264 0.0115387 0.0290738 0.0166866 0.02724 0.0240069 0.0373494 0.0485825 0.0587652 0.0599979 0.0539837 0.053761 0.0654379 0.0603379 0.0819729 0.0695605 0.0925621 0.0724666 0.0850108
38 2 Si 1.33712 9.83582 56.6163 2.4 1 0.012869 0.0124529 0.0214901 0.0304079 0.0276206 0.0279809 0.0420311 0.0446821 0.0518885 0.0591509 0.044636 0.0688185 0.0686959 0.0602961 0.08274 0.0574188 0.0651661 0.102769 0.051651 0.0576759
39 3 O 1.24799 8.18503 56.6392 -1.2 1 0.0278937 0.0147533 0.0124592 0.0159216 0.024902 0.0247855 0.0305689 0.0662953 0.0351646 0.0510348 0.0427584 0.0583413 0.0494507 0.0696015 0.0779081 0.0701975 0.0474791 0.0732034 0.0484945 0.0809254
40 3 O 1.28624 10.7248 52.7351 -1.2 1 0.0733407 0.0468867 0.0276969 0.0188987 0.0256613 0.0509884 0.0485105 0.0485379 0.0418949 0.0491814 0.0467318 0.0480172 0.0623955 0.0767262 0.093588 0.0802137 0.0653975 0.0558008 0.0748795 0.0619754
41 3 O -0.128159 10.4701 55.9696 -1.2 1 0.0133698 0.0150974 0.0265537 0.0228021 0.0295807 0.0205895 0.0461447 0.0447418 0.0450025 0.0439587 0.050799 0.0512322 0.0507482 0.05752 0.0871463 0.078826 0.0629814 0.0622161 0.0660804 0.0780593
42 3 O 2.42164 10.6466 55.8044 -1.2 1 0.0281484 0.0168167 0.0351343 0.0248165 0.027371 0.0259412 0.0516321 0.0359543 0.029146 0.0463688 0.0528196 0.0392286 0.0501993 0.0562993 0.0953509 0.0670168 0.0747245 0.0672614 0.063882 0.0667048
43 1 Mg -0.262694 9.34741 52.2523 1.2 1 0.117887 0.0652867 0.0179321 0.0410868 0.0320648 0.0413782 0.0410883 0.0691983 0.0309355 0.082912 0.029378 0.0581802 0.0394722 0.0723046 0.0448924 0.105133 0.0527012 0.0947208 0.051965 0.0952409
44 1 Mg 1.87648 9.01537 49.4629 1.2 1 0.274356 0.0930096 0.0387415 0.0380588 0.0349172 0.0485386 0.0692898 0.0457401 0.0758488 0.0596547 0.0817005 0.0551127 0.0819528 0.060981 0.0857425 0.0950608 0.088154 0.0991723 0.0856173 0.0850807
45 2 Si 1.21415 11.3799 51.2378 2.4 1 0.133302 0.0860984 0.0405455 0.0376667 0.041099 0.0501124 0.0550635 0.0411359 0.0553203 0.0636331 0.0777458 0.070942 0.0766252 0.0728011 0.091602 0.0924781 0.0780939 0.0770935 0.0764907 0.0604765
46 3 O 1.31634 12.9512 51.3023 -1.2 1 0.130714 0.0857845 0.0246934 0.0362861 0.0309704 0.0480857 0.0424345 0.0727828 0.0554485 0.064528 0.0487056 0.0842159 0.0683302 0.0660573 0.077692 0.0679198 0.080988 0.0735295 0.0766757 0.065247
47 3 O 1.47315 10.4695 58.1644 -1.2 1 0.00929259 0.0291162 0.0230993 0.0184863 0.0245492 0.029552 0.0328863 0.0435131 0.047562 0.0551737 0.0316821 0.0559148 0.0546832 0.0663491 0.0955209 0.0652306 0.0669646 0.073617 0.0604882 0.0667289
48 3 O -0.115718 10.7564 50.681 -1.2 1 0.191928 0.0813436 0.0222544 0.0227715 0.0433093 0.0297617 0.0517787 0.0659633 0.0519173 0.0582382 0.0601129 0.0500102 0.0564203 0.0717346 0.0957484 0.080658 0.0750689 0.075374 0.0802087 0.0802526
49 1 Mg -3.26386 9.35564 52.3622 1.2 1 0.0804284 0.0521029 0.0303755 0.0255628 0.0189762 0.0517556 0.0403107 0.0569307 0.0329129 0.0897053 0.0309434 0.0489056 0.0364308 0.0692715 0.0401633 0.10943 0.0515261 0.101577 0.0554651 0.0936726
50 3 O 2.45216 10.7265 50.4558 -1.2 1 0.19832 0.0901712 0.0216161 0.0134222 0.0380777 0.0585884 0.0555868 0.045739 0.0589994 0.0681971 0.0656583 0.0731128 0.0575978 0.0646455 0.096417 0.0802365 0.0732293 0.0794318 0.0577338 0.0872802
51 1 Mg -1.60366 9.56136 55.192 1.2 1 0.0190127 0.00990195 0.0208772 0.0299178 0.0136573 0.0247954 0.0254616 0.0364323 0.0407897 0.0582902 0.0585705 0.0535584 0.0626705 0.0682176 0.0675006 0.0668326 0.0803665 0.0909517 0.078898 0.0781396
52 2 Si -1.71971 7.47451 53.382 2.4 1 0.0469848 0.0351887 0.0267088 0.0264608 0.0292227 0.0369751 0.043019 0.0534639 0.0653294 0.0545531 0.0555122 0.0592208 0.0854476 0.0520542 0.0621943 0.0616806 0.0646957 0.0890568 0.0682643 0.055796
53 3 O -1.82224 5.91752 53.3114 -1.2 1 0.0581731 0.0349105 0.0272736 0.0163568 0.0187614 0.0290701 0.0369136 0.0689618 0.0519034 0.0606237 0.0415465 0.0722289 0.060574 0.0773213 0.0659951 0.0607891 0.0620647 0.0608377 0.0753774 0.0721313
54 3 O -1.19417 8.46968 46.4488 -1.2 1 0.525158 0.0666073 0.0656915 0.0519434 0.0675573 0.0536905 0.0757624 0.054767 0.0779111 0.0726747 0.0575055 0.0505779 0.068972 0.0981208 0.130556 0.11328 0.0963505 0.0948298 0.0837867 0.0834532
55 3 O -2.96303 8.21782 54.0796 -1.2 1 0.0432734 0.0186794 0.0225865 0.0217057 0.027129 0.0272545 0.0513062 0.0425359 0.0406175 0.0533904 0.0556799 0.0404001 0.0598463 0.0592082 0.0867497 0.0663158 0.0693006 0.0682345 0.0600183 0.0751851
56 3 O -0.406721 8.06651 54.0578 -1.2 1 0.0459057 0.0255225 0.0253499 0.0230678 0.031957 0.0275389 0.0367835 0.045221 0.0417356 0.054127 0.0601688 0.0477656 0.0584538 0.0584522 0.0812229 0.0683925 0.0727223 0.0731608 0.071759 0.0741425
57 1 Mg -3.1146 16.6799 57.2082 1.2 1 0.0134011 0.0185387 0.0152606 0.0298143 0.014174 0.0370855 0.0187059 0.0546247 0.0297458 0.0784268 0.0260365 0.0474764 0.0244501 0.0686782 0.0389182 0.0919202 0.0470443 0.11473 0.0519065 0.0844889
58 1 Mg -1.6714 16.3544 49.8412 1.2 1 0.229501 0.0825361 0.026017 0.0436779 0.0294467 0.0538702 0.0548433 0.0524617 0.0490696 0.0628015 0.0654163 0.0643148 0.0725233 0.0760228 0.10591 0.0835394 0.0731088 0.0923575 0.0829603 0.0867438
59 2 Si -1.18567 13.8526 47.9314 2.4 1 0.379365 0.0604173 0.0694058 0.0635242 0.029913 0.0674871 0.0468234 0.0787563 0.0612612 0.0671296 0.0546303 0.0714725 0.0573042 0.0756446 0.0987724 0.0735618 0.102584 0.0961887 0.089935 0.0895429
60 3 O -1.09664 15.4205 47.9915 -1.2 1 0.366157 0.0701382 0.0496437 0.06229 0.0464725 0.0933248 0.0631729 0.0819281 0.0571241 0.0896254 0.0537266 0.0721496 0.0607449 0.0826667 0.0823123 0.0737408 0.0933296 0.0759391 0.0751215 0.0666921
61 3 O -1.73493 12.7491 51.7772 -1.2 1 0.115377 0.0564623 0.0310087 0.0316506 0.0348105 0.0522104 0.0612313 0.0509624 0.0654272 0.0502719 0.0595053 0.0503117 0.0612356 0.081684 0.0991966 0.080776 0.0815756 0.0518332 0.0698582 0.0664227
62 3 O -2.36115 13.2717 48.8238 -1.2 1 0.306123 0.0934108 0.060498 0.0270346 0.0584396 0.0509416 0.0563617 0.0702833 0.0583162 0.0631532 0.0759287 0.0653502 0.058952 0.056108 0.0832664 0.0847096 0.0850761 0.0807044 0.0838254 0.0895536
63 1 Mg -0.159928 11.7639 46.8533 1.2 1 0.485501 0.0216155 0.0749477 0.0328811 0.0475439 0.0926048 0.0640411 0.0865804 0.0853051 0.0846759 0.0830697 0.0694227 0.0741458 0.0935058 0.0776788 0.0857547 0.0981152 0.0979791 0.0996857 0.108482
64 3 O 0.2623 13.1866 48.413 -1.2 1 0.338208 0.0850438 0.0602566 0.0383455 0.0467484 0.0566665 0.0421164 0.066855 0.0681659 0.0697642 0.0630895 0.0618613 0.0672341 0.0893934 0.0970204 0.0826612 0.0966317 0.100868 0.0800441 0.0841145
65 1 Mg 1.28477 11.8676 54.5121 1.2 1 0.0145174 0.0280832 0.0139348 0.0288149 0.0177175 0.0210153 0.0301499 0.0404587 0.0408645 0.0608114 0.0578062 0.0547924 0.0593802 0.0581527 0.0683395 0.0767186 0.0670912 0.086214 0.076861 0.0733046
66 2 Si 1.41165 14.6498 56.415 2.4 1 0.0171615 0.0249008 0.0197634 0.0310408 0.0312828 0.0371916 0.0422223 0.0462269 0.0559681 0.0532288 0.0515976 0.0603822 0.0704452 0.0562744 0.0795326 0.0727277 0.0620813 0.0986471 0.0522029 0.0499559
67 3 O 1.48787 13.0886 56.6175 -1.2 1 0.0321893 0.0105562 0.0196298 0.0200427 0.0280622 0.0312897 0.0295662 0.0571599 0.0430819 0.0412339 0.0517875 0.070228 0.0505982 0.0616136 0.0809746 0.0733842 0.0601902 0.0773733 0.0565964 0.0720533
68 3 O 1.36565 15.4813 52.729 -1.2 1 0.0741614 0.0444464 0.0238785 0.0179219 0.0255619 0.0487661 0.0518122 0.0515253 0.0453408 0.0500107 0.0416195 0.047316 0.0596222 0.0695668 0.098788 0.0688002 0.0679057 0.0617512 0.0744353 0.0575456
69 3 O 0.15894 15.2614 55.6085 -1.2 1 0.00821979 0.00930423 0.0271591 0.0212802 0.0177519 0.0251926 0.0359009 0.0362116 0.033557 0.0509338 0.0536671 0.040214 0.0555343 0.0574548 0.0797323 0.0752362 0.0687696 0.0645136 0.0651872 0.0667808
70 3 O 2.63546 15.3 55.6882 -1.2 1 0.0165286 0.0207984 0.0234544 0.0241054 0.0212898 0.0220476 0.0451858 0.0446305 0.0312649 0.0493661 0.0580016 0.0411882 0.0581805 0.0573211 0.088565 0.0755882 0.0760415 0.0735185 0.0628481 0.0678838
71 1 Mg -0.206989 14.1049 52.2121 1.2 1 0.102773 0.0627838 0.0289017 0.043936 0.0269145 0.0416917 0.0412524 0.070801 0.0353487 0.0792314 0.031985 0.0529602 0.032446 0.0774197 0.0336278 0.103119 0.0452177 0.103309 0.0489163 0.0907156
72 1 Mg 1.82591 13.8102 49.4556 1.2 1 0.265393 0.103999 0.0322989 0.0413397 0.0326713 0.036961 0.0711113 0.0422882 0.0690959 0.0718025 0.0747517 0.0590238 0.0731688 0.0675789 0.0852564 0.0941174 0.0777571 0.0959166 0.0848249 0.0789425
73 2 Si 1.29285 16.1518 51.2434 2.4 1 0.129888 0.0876623 0.0370961 0.0394469 0.0370741 0.0476147 0.0561047 0.0461971 0.0545001 0.0704167 0.0712444 0.0702675 0.0729017 0.0687365 0.0913658 0.0891442 0.0807009 0.0880948 0.0694405 0.0628336
74 3 O 1.39496 17.7199 51.3047 -1.2 1 0.125623 0.0812517 0.031993 0.033655 0.0376865 0.0414749 0.0438201 0.0776121 0.0580144 0.0671361 0.0444394 0.0833514 0.0682641 0.0610768 0.0767218 0.0663546 0.0823641 0.0731494 0.06326 0.0701729
75 3 O 1.46183 15.3609 57.8746 -1.2 1 0.00678045 0.0262654 0.0209801 0.0136301 0.0159009 0.0312473 0.0378245 0.0485957 0.0517366 0.0545214 0.0425292 0.0494735 0.0430311 0.0673277 0.102817 0.0639004 0.0766445 0.0545594 0.0674126 0.0607003
76 3 O -0.0269106 15.5178 50.6688 -1.2 1 0.183916 0.0838238 0.0286587 0.0232474 0.0435641 0.0447011 0.0543809 0.0637932 0.0542934 0.0583792 0.0600422 0.0513124 0.0630134 0.0768436 0.0989043 0.0826798 0.0776289 0.0784096 0.0673689 0.0924062
77 1 Mg -3.18391 14.1057 52.3125 1.2 1 0.0746507 0.0558618 0.036924 0.0324969 0.0214107 0.0530981 0.0354665 0.058378 0.0385098 0.0812799 0.0396191 0.04939 0.0292328 0.0760454 0.0356937 0.100184 0.0533314 0.105478 0.0520939 0.0886153
78 3 O 2.52432 15.503 50.4579 -1.2 1 0.195074 0.0918404 0.0226391 0.0160682 0.0419028 0.0545985 0.0555401 0.0507722 0.0538418 0.0649165 0.0638246 0.0710776 0.059559 0.064117 0.0996589 0.0759395 0.081672 0.0744103 0.0626714 0.0828609
79 1 Mg -1.61413 14.2128 55.2426 1.2 1 0.0144318 0.0187807 0.0222578 0.0280655 0.0181279 0.0274061 0.026838 0.0342489 0.0415965 0.0568804 0.0528612 0.0656881 0.0583183 0.0623617 0.0650721 0.0645991 0.0876946 0.0901208 0.0706703 0.0801329
80 2 Si -1.61601 12.0461 53.272 2.4 1 0.0413943 0.0460156 0.0182136 0.0310774 0.0368124 0.0312484 0.0492247 0.0551313 0.0607831 0.0666147 0.0626973 0.0704304 0.0757139 0.0500635 0.0783726 0.0598863 0.0684784 0.0853137 0.0667796 0.0680933
81 3 O -1.6184 10.4668 53.2595 -1.2 1 0.0630532 0.042932 0.0172273 0.0277423 0.0297803 0.0270625 0.0327463 0.073975 0.0406852 0.0673202 0.0450447 0.0632347 0.0605065 0.0771546 0.0742079 0.059908 0.0565253 0.0623841 0.0701425 0.0732096
82 3 O -1.21337 13.3381 46.4311 -1.2 1 0.520111 0.0674879 0.0695677 0.0404774 0.0560101 0.0578273 0.0576231 0.0700478 0.0794727 0.0654981 0.045677 0.071392 0.0687823 0.0881063 0.119643 0.112952 0.106628 0.101085 0.0588678 0.0904651
83 3 O -2.78436 12.7225 53.9924 -1.2 1 0.0453787 0.0152897 0.0285006 0.0235464 0.0229851 0.0316913 0.0508027 0.0436583 0.0402339 0.0583857 0.0501872 0.0444123 0.051099 0.067966 0.069565 0.0733174 0.0671183 0.0586357 0.0617087 0.0664662
84 3 O -0.319544 12.7304 53.8099 -1.2 1 0.0358274 0.0313849 0.0251636 0.0273728 0.0259538 0.0175102 0.0442858 0.0567859 0.0532851 0.053124 0.054736 0.0469372 0.0564607 0.0725129 0.0861608 0.0647423 0.0784195 0.0643692 0.0682437 0.0714287
85 1 Mg -3.0863 21.4884 57.5893 1.2 1 0.0206965 0.0192465 0.00779413 0.0308525 0.012332 0.0378605 0.0161486 0.0536525 0.0272389 0.0836413 0.0274944 0.0506512 0.0319314 0.0669541 0.0318796 0.0910169 0.0504669 0.10506 0.0548892 0.0894704
86 1 Mg -1.5831 21.1217 49.8405 1.2 1 0.22701 0.086583 0.0257276 0.045998 0.0316717 0.0550517 0.0523031 0.0539903 0.0520345 0.0616122 0.0639811 0.0627688 0.0743371 0.0777834 0.105112 0.0821535 0.0698872 0.0896792 0.0825228 0.082412
87 2 Si -1.09384 18.6291 47.9287 2.4 1 0.372401 0.0689293 0.0698193 0.0702997 0.0271371 0.0669734 0.0493267 0.0831964 0.0631901 0.0674578 0.0552219 0.0743915 0.060662 0.0753059 0.100422 0.0722669 0.10502 0.0936704 0.0871494 0.0893057
88 3 O -1.02071 20.1985 47.9911 -1.2 1 0.366153 0.0690139 0.0460992 0.0609781 0.0461674 0.0922472 0.0607698 0.0802331 0.0497501 0.0843079 0.0536981 0.0741854 0.0606475 0.0798051 0.0802751 0.0730856 0.0951072 0.0774409 0.0717401 0.0720442
89 3 O -1.65002 17.5002 51.771 -1.2 1 0.114817 0.056684 0.0322001 0.0273864 0.029913 0.0564455 0.0580705 0.0547283 0.0645486 0.0520677 0.0557521 0.0461312 0.056057 0.0816179 0.0999087 0.0798433 0.0773901 0.0409858 0.0737216 0.0665965
90 3 O -2.26174 18.0434 48.8281 -1.2 1 0.298639 0.101493 0.0633583 0.0268237 0.0618835 0.0474547 0.0604972 0.0757617 0.0612548 0.0684004 0.0722833 0.0583432 0.0522818 0.0579741 0.0773739 0.0882299 0.0867308 0.0784917 0.0858088 0.0908268
91 1 Mg -0.0440435 16.5651 46.8269 1.2 1 0.48508 0.0213202 0.0760688 0.0310619 0.0620573 0.08334 0.0749925 0.0829031 0.0714633 0.0881823 0.0877449 0.0623882 0.0633777 0.079753 0.0766153 0.0902836 0.0916186 0.0968966 0.10078 0.106915
92 3 O 0.37001 17.9877 48.3925 -1.2 1 0.340791 0.082748 0.0584463 0.0387317 0.0445235 0.0584219 0.0455007 0.0688478 0.0658444 0.073619 0.0604634 0.0569365 0.0687896 0.0891648 0.0938495 0.0758747 0.0931199 0.102933 0.0788833 0.0857912
93 1 Mg 1.28469 16.5415 54.4028 1.2 1 0.00852563 0.0224677 0.016457 0.0281994 0.0119885 0.0222551 0.0235831 0.0444707 0.0404356 0.0623859 0.0566845 0.0541891 0.0623155 0.0690765 0.0690275 0.0656408 0.0724579 0.0905509 0.0768055 0.0690532
94 2 Si 1.46467 19.331 56.4762 2.4 1 0.0163548 0.0115387 0.0154345 0.0344713 0.0287869 0.0342724 0.0442215 0.0377472 0.0522912 0.0578936 0.0562685 0.065551 0.0715197 0.0644971 0.0781975 0.0704732 0.0575479 0.0936559 0.0514661 0.0530337
95 3 O 1.41408 17.8172 56.5506 -1.2 1 0.0258722 0.015391 0.0163538 0.0223859 0.0331115 0.0260931 0.0277927 0.0706407 0.0485079 0.0525921 0.0476127 0.0677906 0.0523568 0.0676514 0.0798725 0.0604254 0.0563242 0.0733575 0.052902 0.0749644
96 3 O 1.45147 20.239 52.7294 -1.2 1 0.0610672 0.0476665 0.0302018 0.0201441 0.0259406 0.0513144 0.0577704 0.0532669 0.0468876 0.0500076 0.0464147 0.0481087 0.0573072 0.0732561 0.104355 0.0687292 0.0697341 0.064058 0.0752861 0.0597736
97 3 O 0.116919 19.9821 55.7157 -1.2 1 0.0115289 0.0127777 0.0325192 0.0183723 0.0197536 0.0216393 0.0484976 0.0445617 0.0394315 0.0465326 0.0560663 0.042866 0.0542683 0.0620521 0.0906146 0.0766686 0.0736528 0.0653551 0.0585685 0.0775749
98 3 O 2.58682 19.9214 55.6069 -1.2 1 0.0174495 0.022451 0.0190821 0.0179521 0.0344289 0.0251991 0.0403554 0.0440724 0.0442357 0.0480948 0.059899 0.0355813 0.063724 0.0712675 0.0818458 0.0791243 0.0733289 0.0751869 0.0623547 0.0628232
99 1 Mg -0.126194 18.8651 52.2079 1.2 1 0.105472 0.0655844 0.026384 0.0405221 0.028458 0.0407965 0.0403023 0.0692268 0.0289162 0.0812142 0.030441 0.0575317 0.0358037 0.0736409 0.0340343 0.10375 0.0503428 0.108412 0.0455549 0.09661
100 1 Mg 1.92402 18.5815 49.4545 1.2 1 0.26067 0.109044 0.0309174 0.0460823 0.0309089 0.034047 0.0720091 0.0426288 0.0686105 0.0757438 0.0785532 0.0557591 0.0764526 0.0672943 0.0852017 0.0949882 0.0801934 0.0947607 0.0818528 0.0857067
101 2 Si 1.38106 20.9117 51.2443 2.4 1 0.12558 0.0902787 0.0360641 0.03255 0.0409005 0.051126 0.0517188 0.0453591 0.0543611 0.062306 0.0687592 0.0735792 0.0703936 0.0657616 0.0948431 0.0857248 0.0796835 0.0859492 0.0682185 0.0659162
102 3 O 1.48527 22.4795 51.3054 -1.2 1 0.127424 0.0833676 0.0288325 0.0363606 0.0329505 0.0485087 0.0424259 0.0676642 0.0605575 0.0663137 0.0453703 0.0824117 0.0724692 0.0606163 0.0742914 0.0701925 0.0810695 0.0787267 0.0687808 0.0720027
103 3 O 1.46406 20.081 57.8826 -1.2 1 0.0199852 0.0117093 0.0282089 0.0171362 0.0233621 0.0313323 0.0345179 0.0464196 0.0544422 0.0443714 0.0438951 0.0466323 0.0459806 0.0712661 0.105645 0.0666774 0.0757405 0.0591025 0.0674733 0.0525565
104 3 O 0.0615419 20.2804 50.6669 -1.2 1 0.190535 0.0781383 0.0206211 0.0213121 0.0452266 0.0402895 0.0524412 0.0614923 0.052679 0.0547594 0.0569014 0.0500713 0.0618018 0.077448 0.0927449 0.0789348 0.0777757 0.0768266 0.0675062 0.0873104
105 1 Mg -3.09665 18.8643 52.3122 1.2 1 0.0724374 0.057229 0.0332181 0.0260516 0.0159859 0.0559403 0.0350477 0.0640996 0.0385106 0.0791665 0.0361238 0.0498253 0.0266899 0.071118 0.0375576 0.101279 0.0564458 0.104451 0.0486104 0.0922672
106 3 O 2.61548 20.2646 50.4626 -1.2 1 0.195597 0.0957342 0.0239051 0.0169043 0.0421503 0.0502018 0.0595193 0.0501303 0.0536069 0.0643705 0.06573 0.0708396 0.052473 0.0586613 0.102259 0.073551 0.0779236 0.0683502 0.0667007 0.0880053
107 1 Mg -1.43174 18.8016 55.2 1.2 1 0.0201119 0.0143388 0.0190802 0.0253367 0.01897 0.0296596 0.0284805 0.0351748 0.0465752 0.0543456 0.0527585 0.057347 0.0560295 0.0613285 0.0625063 0.0583072 0.0807627 0.0988242 0.0683589 0.0780188
108 2 Si -1.78287 16.8498 53.1699 2.4 1 0.0513868 0.0356699 0.0252672 0.023141 0.0348866 0.0394956 0.0513036 0.0519209 0.0560295 0.0614243 0.0604064 0.0616953 0.0816313 0.0521875 0.0722505 0.0592045 0.0744407 0.07801 0.0674107 0.0604032
109 3 O -1.72228 15.3209 53.2292 -1.2 1 0.0648397 0.03663 0.0219914 0.0222666 0.033304 0.0349158 0.031897 0.0712946 0.0437074 0.0608996 0.0462826 0.067553 0.0616917 0.0689413 0.0737444 0.0681509 0.050472 0.0702954 0.0705478 0.0674029
110 3 O -1.12868 18.1227 46.4249 -1.2 1 0.522052 0.0668552 0.0731189 0.0522657 0.0575775 0.0655267 0.061831 0.0792696 0.079038 0.0614829 0.0447739 0.068231 0.0680047 0.0875596 0.116301 0.114937 0.107545 0.101056 0.0624261 0.0922883
111 3 O -2.98223 17.5567 53.8666 -1.2 1 0.0334217 0.018385 0.0360373 0.0226048 0.0220533 0.0270938 0.0604444 0.0442554 0.0468471 0.0532509 0.0512464 0.0379573 0.0597262 0.0670471 0.0860247 0.0663128 0.0728174 0.0565081 0.0643511 0.0722344
112 3 O -0.398347 17.471 53.8967 -1.2 1 0.0475785 0.0185071 0.0332298 0.0235622 0.0308432 0.0271636 0.0402141 0.0428824 0.0521043 0.0544132 0.0561125 0.038687 0.0575497 0.0711458 0.0858509 0.0665368 0.0769104 0.0667514 0.0752718 0.0696939
113 1 Mg -2.99733 26.1016 57.3456 1.2 1 0.00982509 0.0210126 0.0127618 0.028025 0.0143512 0.033868 0.0131031 0.0526899 0.0124031 0.0804489 0.0167861 0.0463443 0.0218505 0.0716674 0.0256222 0.0937166 0.0296098 0.112879 0.0307907 0.102037
114 1 Mg -1.48778 25.88 49.8402 1.2 1 0.229954 0.0810296 0.0257334 0.0415524 0.0327587 0.0493338 0.0536351 0.0562231 0.0507594 0.0612698 0.0635889 0.0645892 0.0729313 0.0728618 0.101471 0.0811144 0.0738859 0.0952399 0.0846043 0.0846137
115 2 Si -1.00491 23.3922 47.9274 2.4 1 0.366321 0.0768693 0.0754721 0.0733195 0.0338593 0.0725785 0.0463441 0.0852021 0.0685392 0.0739907 0.0574148 0.0789403 0.0583065 0.0760696 0.0964823 0.0757327 0.10288 0.0993595 0.0896176 0.0945037
116 3 O -0.927602 24.9615 47.9909 -1.2 1 0.368154 0.0685313 0.0507912 0.0636565 0.0397624 0.0905609 0.0622073 0.0797717 0.0520625 0.0869958 0.0526038 0.0716464 0.0589857 0.0824395 0.0826303 0.0757216 0.0931566 0.0772746 0.0755125 0.0739728
117 3 O -1.55795 22.2588 51.7696 -1.2 1 0.114653 0.0560229 0.0317715 0.0277945 0.0324887 0.0540234 0.0569086 0.0513358 0.0641959 0.052025 0.0557832 0.0463291 0.0563844 0.0809867 0.0998724 0.0788534 0.0774345 0.0423676 0.0779688 0.0724371
118 3 O -2.17411 22.8111 48.8277 -1.2 1 0.298437 0.101063 0.0645731 0.0261432 0.0634267 0.0490632 0.0583528 0.0715365 0.0611214 0.0682419 0.0721661 0.060472 0.0545281 0.0577313 0.0768783 0.086128 0.086045 0.0797529 0.08721 0.0933687
119 1 Mg 0.0423997 21.3296 46.8225 1.2 1 0.484797 0.0210833 0.0787149 0.03081 0.0619976 0.0849703 0.0733866 0.0821091 0.0707591 0.0835639 0.0834788 0.0630042 0.0654278 0.0790616 0.0766088 0.0940903 0.0976557 0.0988255 0.0980687 0.104542
120 3 O 0.458537 22.7495 48.3911 -1.2 1 0.339434 0.0866324 0.0628446 0.0367467 0.0460568 0.0613403 0.0464084 0.0679302 0.0634868 0.0757313 0.0632197 0.0562063 0.0691354 0.088574 0.0948284 0.0778018 0.0953765 0.102485 0.0798258 0.0852271
121 1 Mg 1.26646 21.3945 54.519 1.2 1 0.0148975 0.0310148 0.023247 0.0303523 0.0165178 0.0227663 0.0218973 0.0420447 0.0367874 0.0565647 0.0632576 0.0479468 0.0614194 0.0684969 0.0622597 0.0847721 0.0734187 0.0844697 0.0828415 0.0648837
122 2 Si 1.46035 24.1328 56.3999 2.4 1 0.0178013 0.0183247 0.02445 0.034906 0.0367656 0.0311491 0.0392551 0.0400957 0.0530067 0.0449937 0.0530833 0.0671434 0.0659026 0.0542108 0.075416 0.0746381 0.0670547 0.0986531 0.0567714 0.0537983
123 3 O 1.38547 22.6077 56.5184 -1.2 1 0.0157166 0.0240198 0.0165449 0.0218431 0.0275042 0.0334407 0.0212841 0.0699371 0.0440056 0.0515833 0.0467853 0.0721326 0.0670602 0.0683597 0.0769109 0.0701877 0.0645397 0.069266 0.0608286 0.0740626
124 3 O 1.54441 24.9963 52.7297 -1.2 1 0.0754524 0.0474592 0.0227878 0.0154752 0.0269609 0.0455559 0.0507549 0.0528237 0.0407239 0.0515547 0.0442773 0.0497606 0.0575032 0.0658632 0.0962486 0.0704547 0.0696795 0.0651091 0.0719724 0.0630241
125 3 O 0.136305 24.7818 55.7742 -1.2 1 0.00592638 0.0178437 0.0324423 0.0129631 0.0203111 0.0209093 0.041997 0.0405928 0.0404433 0.041655 0.0546809 0.0423023 0.0551384 0.0545925 0.093983 0.0765048 0.0643085 0.068619 0.0566997 0.0807354
126 3 O 2.77841 24.8069 55.7805 -1.2 1 0.0162617 0.0217492 0.0229564 0.0298635 0.0280536 0.0227554 0.0521663 0.045702 0.0399549 0.0443353 0.057429 0.0433169 0.0590773 0.0615147 0.0878477 0.0693471 0.0803919 0.0705886 0.0661601 0.060191