ITEM: TIMESTEP
55300
ITEM: NUMBER OF ATOMS
10500
ITEM: BOX BOUNDS xy xz yz pp pp pp
0	8.9688	2.9896
0	118.725	0
0	252.977	0
ITEM: ATOMS id type element xu yu zu q Q_1 Q_2 Q_3 Q_4 Q_5 Q_6 Q_7 Q_8 Q_9 Q_10 Q_11 Q_12 Q_13 Q_14 Q_15 Q_16 Q_17 Q_18 Q_19 Q_20 Q_21
1 1 Mg -3.34964 6.945 57.3647 1.2 1 0.0136521 0.0124131 0.0128561 0.0262214 0.0145268 0.0256 0.0192493 0.0558477 0.0241468 0.0706928 0.0322349 0.0468523 0.0289028 0.0775235 0.035346 0.0966899 0.0391292 0.109077 0.0482722 0.0733422
2 1 Mg -1.82655 6.90154 50.0912 1.2 1 0.211846 0.0954704 0.0341813 0.0371175 0.0282248 0.0566882 0.0476893 0.0458629 0.057609 0.0691519 0.0554085 0.0771038 0.0741501 0.0631993 0.0951325 0.063154 0.0864233 0.0976781 0.0752518 0.0796214
3 2 Si -0.257935 3.96038 48.0876 2.4 1 0.370933 0.0720287 0.0735754 0.0317173 0.0593729 0.0492072 0.0704689 0.0781707 0.0627434 0.0764002 0.0556437 0.0722529 0.0655884 0.0900855 0.10155 0.100223 0.107084 0.0891661 0.0715099 0.0737923
4 3 O -0.335812 5.46814 47.6264 -1.2 1 0.426574 0.0407136 0.0668385 0.0299639 0.0413273 0.0492126 0.0659291 0.0716188 0.0882497 0.0761625 0.0908855 0.0747684 0.0708007 0.0685724 0.092198 0.124913 0.0932683 0.0782526 0.0754033 0.0796362
5 3 O -2.03793 3.43377 51.8941 -1.2 1 0.107806 0.062016 0.0300433 0.0260596 0.0265395 0.0518937 0.0598393 0.0473752 0.0503989 0.0561225 0.0678654 0.0512621 0.0503039 0.0803599 0.0892651 0.0808523 0.0664897 0.0587491 0.0732423 0.0722381
6 3 O -1.54015 3.53929 48.9521 -1.2 1 0.30061 0.0932644 0.0364948 0.0491684 0.0293112 0.0485227 0.0737203 0.0487188 0.0542443 0.0632875 0.0761395 0.0661882 0.0670528 0.0645395 0.0749377 0.113879 0.0836018 0.0775409 0.0735813 0.0897687
7 1 Mg 1.82954 2.54582 47.1376 1.2 1 0.462774 0.0199703 0.0819753 0.0527955 0.0396031 0.0844864 0.0639288 0.0611534 0.0747859 0.0860124 0.0660901 0.0770581 0.0820734 0.0843863 0.0713037 0.0992565 0.10185 0.101989 0.105161 0.0997083
8 3 O 1.22989 3.66364 48.7877 -1.2 1 0.317919 0.0743882 0.0217193 0.0470172 0.0327069 0.0649245 0.079751 0.0326328 0.083806 0.0790564 0.0531576 0.0781066 0.0830393 0.0676453 0.0649778 0.0865331 0.0917111 0.0891345 0.0947318 0.0915174
9 1 Mg 1.12637 2.13802 54.618 1.2 1 0.0053441 0.0231741 0.0183019 0.0310111 0.0276159 0.0315672 0.0308439 0.0365713 0.0468965 0.0541249 0.0555567 0.0543908 0.0636242 0.0641529 0.0705485 0.0798119 0.0707314 0.0890114 0.0661412 0.0699196
10 2 Si 0.896335 4.89477 56.4333 2.4 1 0.0178941 0.0103242 0.0228527 0.0282221 0.0282454 0.0219914 0.0392215 0.0410556 0.0438798 0.0496148 0.0562587 0.0577311 0.0633085 0.0546653 0.0752164 0.077358 0.0690543 0.0963072 0.0629505 0.0644533
11 3 O 1.04891 3.33213 56.7103 -1.2 1 0.023568 0.0120275 0.0222362 0.0218348 0.0177657 0.0236413 0.0264789 0.0669343 0.0387775 0.042228 0.04231 0.062976 0.0595357 0.0542591 0.074158 0.072485 0.053999 0.0778724 0.0526316 0.0835219
12 3 O 1.10813 6.07342 52.8172 -1.2 1 0.0755301 0.0486054 0.0289381 0.0192642 0.0230447 0.0447227 0.0456529 0.0567818 0.0522868 0.0428049 0.0573803 0.054375 0.0649412 0.0694767 0.0806963 0.0865027 0.060742 0.06609 0.0665875 0.0698375
13 3 O -0.239192 5.73733 55.8751 -1.2 1 0.0117061 0.00999027 0.0233168 0.0247088 0.027523 0.0186979 0.0429787 0.0408318 0.037997 0.0417894 0.064669 0.04184 0.053669 0.0518864 0.0893743 0.0683864 0.0727271 0.0674041 0.0609746 0.0620387
14 3 O 2.19484 5.65316 55.7961 -1.2 1 0.014303 0.0207351 0.032708 0.0179758 0.0219076 0.0187868 0.0369144 0.0502892 0.0396378 0.0457934 0.0536884 0.0378529 0.051807 0.0662614 0.0911299 0.0727088 0.0760784 0.0706299 0.0622787 0.0599942
15 1 Mg -0.459401 4.67631 52.2426 1.2 1 0.0836466 0.0660046 0.0411763 0.0441302 0.0314178 0.030989 0.0407763 0.0625142 0.0409665 0.0802452 0.0454091 0.06195 0.0490324 0.0719573 0.0458196 0.0994092 0.0535436 0.0910749 0.0623231 0.0923466
16 1 Mg 2.79456 3.9971 49.9987 1.2 1 0.222 0.0955275 0.0330523 0.0392318 0.0424134 0.0612382 0.0571042 0.0541489 0.0800205 0.0609361 0.0595247 0.0587102 0.0646121 0.0715972 0.0880969 0.0795137 0.0747768 0.0884484 0.0808149 0.0703701
17 2 Si 1.16169 6.59457 51.2556 2.4 1 0.135093 0.0914979 0.0331 0.0373465 0.0425799 0.0522457 0.0424396 0.048522 0.0600013 0.068905 0.0646272 0.0786689 0.0717194 0.0677794 0.0875056 0.0914632 0.0768088 0.0863235 0.075056 0.0629522
18 3 O 1.28989 8.18905 51.2909 -1.2 1 0.148955 0.077807 0.0292997 0.0410265 0.0328333 0.0474801 0.0388591 0.0699286 0.0511199 0.0701384 0.0459135 0.0868116 0.0719691 0.0612284 0.075917 0.0736531 0.0757846 0.0649012 0.07038 0.0736866
19 3 O 0.957511 5.64176 58.1519 -1.2 1 0.019824 0.0213352 0.0203326 0.0163924 0.0196214 0.0321267 0.0290384 0.0505933 0.0445639 0.0443381 0.0353792 0.0538343 0.0524946 0.0599738 0.0984823 0.0646492 0.0619721 0.0633026 0.065543 0.0668867
20 3 O -0.184847 6.06029 50.6845 -1.2 1 0.178184 0.0957233 0.0184717 0.0290555 0.0378571 0.0361763 0.0507005 0.0603951 0.0532904 0.0628817 0.0608234 0.0847492 0.0651643 0.059022 0.0839213 0.070289 0.0858683 0.0842244 0.0643809 0.0792532
21 1 Mg -3.49704 4.67769 52.6661 1.2 1 0.0564442 0.0566401 0.0300715 0.0285443 0.0139678 0.0462546 0.0358532 0.0534588 0.0568461 0.069636 0.0495863 0.0448615 0.0496275 0.05167 0.0607981 0.0894468 0.0828005 0.0776622 0.0709188 0.0705749
22 3 O 2.48581 5.93312 50.6539 -1.2 1 0.181771 0.0990988 0.0293025 0.0205141 0.0386707 0.0490194 0.0630713 0.0632061 0.0447841 0.0676224 0.047827 0.0679688 0.0564958 0.0648509 0.105084 0.0679477 0.0790648 0.0686425 0.0737173 0.0769221
23 1 Mg -1.99555 4.58402 55.3324 1.2 1 0.0184949 0.021201 0.0265585 0.0327572 0.0198975 0.0241405 0.0240328 0.0352823 0.0401371 0.0580008 0.052902 0.0517157 0.0624911 0.060996 0.0693892 0.0565644 0.086549 0.0897044 0.0618919 0.0713573
24 2 Si -1.92363 2.56004 53.1821 2.4 1 0.0349996 0.0395539 0.0243927 0.0246263 0.0233474 0.0275803 0.0443988 0.0457894 0.0684434 0.0716034 0.0545457 0.068786 0.0731204 0.047171 0.0701412 0.05791 0.082177 0.0892357 0.075801 0.0561899
25 3 O -1.96184 1.04289 53.2078 -1.2 1 0.048778 0.0408012 0.0301808 0.021395 0.0224302 0.0387276 0.026372 0.0615433 0.0546673 0.0660777 0.0483525 0.066165 0.0577262 0.0762948 0.0793462 0.0713486 0.0553912 0.070956 0.0674158 0.0700744
26 3 O -0.0467762 2.97103 46.8385 -1.2 1 0.497653 0.0372449 0.0881934 0.0287961 0.0791761 0.0670719 0.0815384 0.0734699 0.073008 0.0776696 0.0800617 0.0755146 0.0979269 0.0898139 0.0890893 0.0886846 0.0999478 0.097981 0.104776 0.110556
27 3 O -3.2023 3.18799 54.0922 -1.2 1 0.0209235 0.0277361 0.0202597 0.0285397 0.0330835 0.0244392 0.0399521 0.0418087 0.0570886 0.0530654 0.0619862 0.0459474 0.0556268 0.0740222 0.0758162 0.0654083 0.0711767 0.0657066 0.0673899 0.068087
28 3 O -0.644668 3.18514 54.0659 -1.2 1 0.0252876 0.0229249 0.0389004 0.0224595 0.0226062 0.0302359 0.0407125 0.0487049 0.0439455 0.0567192 0.0617166 0.0407412 0.0523063 0.0815141 0.0775701 0.0714027 0.0792047 0.0743562 0.0616715 0.062844
29 1 Mg -3.49356 11.849 57.575 1.2 1 0.0123076 0.0123494 0.0172155 0.0320174 0.0131786 0.0373196 0.0191534 0.0550047 0.0258403 0.0798613 0.0222344 0.0468005 0.0367544 0.0616471 0.0327696 0.0965492 0.0420605 0.110654 0.0433372 0.0850924
30 1 Mg -1.75014 11.5838 49.8362 1.2 1 0.232105 0.082406 0.0264969 0.0410228 0.0274635 0.0552071 0.0517533 0.0519654 0.0490176 0.0583628 0.0654382 0.0656884 0.0729447 0.0671915 0.106216 0.0905121 0.0628207 0.0967717 0.0860238 0.0796336
31 2 Si -1.18003 9.02138 47.9309 2.4 1 0.376112 0.0596936 0.0620707 0.0571565 0.0389306 0.0587627 0.0723359 0.0756151 0.0635379 0.0658293 0.0626921 0.0661463 0.0671211 0.0786711 0.100983 0.0617035 0.0988624 0.0927812 0.106477 0.0869414
32 3 O -1.23224 10.5991 47.9811 -1.2 1 0.375892 0.0635406 0.0570177 0.0542604 0.0522756 0.0715359 0.0658078 0.0756796 0.0545278 0.0861433 0.0693126 0.0632661 0.0737678 0.0816725 0.0847677 0.0682002 0.0892245 0.0818124 0.066813 0.0741255
33 3 O -1.79016 8.01447 51.8693 -1.2 1 0.114991 0.0592898 0.0346955 0.0295915 0.0308429 0.0467178 0.0587335 0.0563482 0.0584647 0.0553279 0.047605 0.0504012 0.0650102 0.0843211 0.0908417 0.0694987 0.0744798 0.0543363 0.0700582 0.0666721
34 3 O -2.30986 8.37215 48.8528 -1.2 1 0.311975 0.0869573 0.067644 0.0263581 0.0524132 0.0605217 0.0623714 0.0639652 0.0566155 0.0661536 0.0771435 0.0680366 0.0581923 0.0640337 0.0808109 0.0925368 0.0996761 0.0820042 0.0735121 0.095229
35 1 Mg 0.154883 7.08234 46.8007 1.2 1 0.487753 0.0250047 0.0919738 0.0351014 0.0581502 0.0723631 0.0575796 0.0727444 0.0763365 0.0831997 0.0871037 0.0755635 0.0811032 0.0811593 0.0699486 0.0934965 0.0922247 0.10521 0.112847 0.103701
36 3 O 0.325447 8.50934 48.3809 -1.2 1 0.340911 0.0891491 0.0705849 0.0420809 0.0361849 0.0528118 0.0438055 0.062486 0.062379 0.0672817 0.0760338 0.0641224 0.0815386 0.0938513 0.0926302 0.0706256 0.0941151 0.104078 0.0850992 0.0880814
37 1 Mg 1.27958 7.14653 54.7313 1.2 1 0.0106285 0.0320017 0.016847 0.0346339 0.020146 0.0296146 0.0284653 0.0400405 0.0418963 0.053605 0.0608006 0.0528169 0.054073 0.0606532 0.0623501 0.0938459 0.0674843 0.0760482 0.0710048 0.0767775
38 2 Si 1.03534 9.84295 56.537 2.4 1 0.0160482 0.0188495 0.0282076 0.032457 0.0291627 0.0331115 0.036692 0.0359518 0.0573756 0.0491958 0.0437831 0.0670961 0.0645549 0.0631908 0.0739651 0.0758976 0.0624944 0.0856647 0.0581488 0.0493001
39 3 O 1.05576 8.28709 56.5981 -1.2 1 0.0234204 0.0112071 0.0234936 0.0198937 0.027155 0.0290811 0.0257614 0.0641043 0.0431849 0.0461502 0.0393256 0.0642903 0.0644304 0.0629771 0.070722 0.0642317 0.0682902 0.0665888 0.0539667 0.0745209
40 3 O 1.28624 10.7248 52.7351 -1.2 1 0.0764481 0.0422011 0.0274772 0.0203906 0.0248363 0.0477998 0.0511999 0.0476863 0.0471885 0.0444091 0.0536316 0.046809 0.0605042 0.0684504 0.0962548 0.0780491 0.0675968 0.0603389 0.0746131 0.0619539
41 3 O -0.174215 10.4827 55.713 -1.2 1 0.0161977 0.0162579 0.0282112 0.0220988 0.026305 0.0252762 0.0432696 0.0434252 0.038814 0.0447893 0.0609526 0.0444711 0.0611256 0.0525299 0.0923548 0.0791268 0.0658176 0.0665866 0.0631562 0.0641778
42 3 O 2.28462 10.559 55.9031 -1.2 1 0.0183302 0.0131608 0.0364612 0.0185171 0.0250476 0.021209 0.0398331 0.0436363 0.0308049 0.0405427 0.0481345 0.0438649 0.0461283 0.0559555 0.0986266 0.0692563 0.0868548 0.0542429 0.0644631 0.0609478
43 1 Mg -0.262694 9.34741 52.2523 1.2 1 0.116309 0.0610528 0.0203167 0.0399612 0.0310512 0.0453898 0.0345321 0.0725081 0.0260434 0.0877348 0.0299578 0.0576223 0.0380976 0.0709395 0.0446103 0.110188 0.0470776 0.0918387 0.0469254 0.104123
44 1 Mg 1.87648 9.01537 49.4629 1.2 1 0.270906 0.0958906 0.0372519 0.0389071 0.0339559 0.049822 0.0687792 0.0478188 0.077629 0.0633821 0.0824115 0.0547733 0.082429 0.0647795 0.0855281 0.0954344 0.0879576 0.0975841 0.0858698 0.0932336
45 2 Si 1.21415 11.3799 51.2378 2.4 1 0.133489 0.0853569 0.0416594 0.0379571 0.0418364 0.0482185 0.0556858 0.0422646 0.0568617 0.0635515 0.0755783 0.0703665 0.079496 0.0707691 0.0926072 0.0919826 0.0754539 0.080237 0.0724542 0.0567697
46 3 O 1.31634 12.9512 51.3023 -1.2 1 0.117554 0.098385 0.0234885 0.0337699 0.0325538 0.0462924 0.0467176 0.0751622 0.0558544 0.0664231 0.0469507 0.0861901 0.0724557 0.0682335 0.0759104 0.0714982 0.079571 0.073808 0.0736812 0.0678906
47 3 O 0.942741 10.4173 58.0423 -1.2 1 0.0139537 0.0261378 0.0218052 0.0206013 0.022535 0.0389369 0.0308289 0.0464012 0.0527107 0.0474097 0.0381566 0.0454433 0.0539556 0.0611239 0.1038 0.0619487 0.0551458 0.060526 0.0632533 0.0548751
48 3 O -0.115718 10.7564 50.681 -1.2 1 0.185621 0.0815176 0.0240927 0.0239219 0.0413077 0.0386136 0.0515186 0.0671169 0.0518283 0.0588988 0.0621501 0.0511842 0.0603872 0.0789193 0.0982843 0.0804994 0.0787422 0.0774984 0.0752578 0.0812016
49 1 Mg -3.26386 9.35564 52.3622 1.2 1 0.0780494 0.054519 0.0312713 0.0307955 0.0199471 0.0541685 0.033629 0.0577372 0.0353213 0.0804754 0.030861 0.0498146 0.0324125 0.0710438 0.0381795 0.119582 0.0446529 0.10449 0.0419074 0.0896068
50 3 O 2.45216 10.7265 50.4558 -1.2 1 0.193315 0.095474 0.0188097 0.00743056 0.0441732 0.0553285 0.0604116 0.0517026 0.0595888 0.0690477 0.0689437 0.0743718 0.0576606 0.0636082 0.0958049 0.081227 0.0709005 0.0752364 0.0574588 0.088979
51 1 Mg -2.17103 9.59921 55.1315 1.2 1 0.0228765 0.0112286 0.0200411 0.0269888 0.0202812 0.0311016 0.0255938 0.0372449 0.0457549 0.0514388 0.0672405 0.0395749 0.0604334 0.0694137 0.0738646 0.0878348 0.0712331 0.0793899 0.0708533 0.0708941
52 2 Si -1.72973 7.49411 53.4448 2.4 1 0.0426591 0.0421409 0.0282187 0.0295621 0.0376524 0.0343875 0.0414525 0.0587066 0.0674373 0.0523993 0.0578761 0.0603458 0.0782493 0.0518898 0.0622374 0.0753406 0.0785752 0.0787798 0.071042 0.0477978
53 3 O -1.77476 5.9447 53.3405 -1.2 1 0.0465726 0.0379473 0.026545 0.0196745 0.0159934 0.0269949 0.0332866 0.0637294 0.0442948 0.0606253 0.0334433 0.0748231 0.0621875 0.0772631 0.0612489 0.0639161 0.0681987 0.0628847 0.0724726 0.0623577
54 3 O -1.19417 8.46968 46.4488 -1.2 1 0.525133 0.0669042 0.066491 0.0522966 0.0673918 0.0541195 0.0760366 0.0532104 0.075574 0.0703466 0.056014 0.0509564 0.0702509 0.0980345 0.128959 0.111848 0.0976738 0.0964038 0.0816329 0.0801856
55 3 O -3.00663 8.14275 54.1096 -1.2 1 0.0281436 0.0294247 0.023768 0.0229958 0.028432 0.018845 0.049808 0.0412936 0.0433473 0.0522224 0.0553201 0.0418203 0.0682332 0.0615183 0.0864466 0.0686624 0.0646472 0.0742732 0.0653166 0.0732435
56 3 O -0.358177 8.22118 53.9175 -1.2 1 0.0432405 0.0287726 0.0186699 0.0282764 0.0354982 0.0170323 0.0459235 0.0525202 0.0554529 0.04648 0.0646909 0.0448917 0.0675741 0.0553563 0.0951289 0.0593776 0.0712373 0.0721456 0.0729502 0.0712447
57 1 Mg -3.24578 16.7105 57.467 1.2 1 0.0102108 0.00975293 0.0153145 0.0253058 0.0124036 0.0355199 0.0188424 0.0622003 0.0184926 0.0740857 0.0270637 0.0528368 0.0272054 0.0671402 0.0277757 0.0981754 0.0482694 0.10035 0.045079 0.0942772
58 1 Mg -1.6714 16.3544 49.8412 1.2 1 0.233553 0.0813503 0.0278089 0.0430911 0.0315884 0.0556486 0.0474588 0.0532462 0.0470142 0.0593658 0.0633602 0.0643641 0.0753225 0.0775928 0.106605 0.0843326 0.0702708 0.0919766 0.0858012 0.0853657
59 2 Si -1.18567 13.8526 47.9314 2.4 1 0.376482 0.062669 0.0671199 0.0658192 0.029416 0.068028 0.0477156 0.0802976 0.0633335 0.0667609 0.0537607 0.0729916 0.0575765 0.0745261 0.0959135 0.0742242 0.10584 0.0964044 0.0886188 0.0916117
60 3 O -1.09664 15.4205 47.9915 -1.2 1 0.365884 0.0707365 0.0495336 0.0619727 0.0464875 0.0931863 0.0627451 0.0824294 0.056655 0.0887306 0.0558239 0.072678 0.0596011 0.0806801 0.0811865 0.0717697 0.0905247 0.0770524 0.0763348 0.0711318
61 3 O -1.73493 12.7491 51.7772 -1.2 1 0.115089 0.0566465 0.0305044 0.033214 0.0295057 0.0543653 0.0649374 0.050876 0.0624912 0.0506252 0.0643595 0.05408 0.0521223 0.0867483 0.0985677 0.0807264 0.0803661 0.0494707 0.0694284 0.0716413
62 3 O -2.36115 13.2717 48.8238 -1.2 1 0.309866 0.0914516 0.0606821 0.0248002 0.0576274 0.0447591 0.0591782 0.0688976 0.0592811 0.0680676 0.076622 0.0607567 0.0543396 0.054585 0.0791367 0.0862593 0.0881952 0.0792331 0.0862755 0.0898683
63 1 Mg -0.159928 11.7639 46.8533 1.2 1 0.486418 0.0240132 0.0714429 0.0339611 0.0484765 0.093336 0.0667675 0.08556 0.0849985 0.0896664 0.0874714 0.0685662 0.0712588 0.0934385 0.0791373 0.0829805 0.0930159 0.0970723 0.102368 0.109067
64 3 O 0.2623 13.1866 48.413 -1.2 1 0.343692 0.0775521 0.053801 0.0387911 0.0467102 0.0605897 0.0377557 0.0650316 0.0660094 0.0688531 0.0621588 0.0600486 0.065126 0.0866003 0.0953156 0.0805974 0.0938649 0.099526 0.0838925 0.0867189
65 1 Mg 1.1499 11.7803 54.5393 1.2 1 0.0107311 0.0313072 0.0164924 0.0306022 0.0142802 0.0230917 0.0239878 0.0320403 0.0399346 0.0575485 0.0596177 0.0543128 0.0569259 0.0621156 0.0713864 0.0813312 0.0682735 0.0843221 0.0739302 0.0779869
66 2 Si 1.34497 14.5877 56.4074 2.4 1 0.0285207 0.0124983 0.0200286 0.0236537 0.0339828 0.0369155 0.0390462 0.04299 0.0519773 0.0430887 0.0503921 0.061736 0.0696922 0.0547415 0.0704149 0.071813 0.0689654 0.0949993 0.0631854 0.047651
67 3 O 1.22187 13.0407 56.6147 -1.2 1 0.0277022 0.00956829 0.0222821 0.0174624 0.0248926 0.0295678 0.0277584 0.0595816 0.0430098 0.047382 0.0483209 0.0628939 0.0553529 0.0623462 0.0737945 0.070228 0.0606166 0.074988 0.0584944 0.0737787
68 3 O 1.36565 15.4813 52.729 -1.2 1 0.0785713 0.0393448 0.0267527 0.0201682 0.0227212 0.0483654 0.0471331 0.0550939 0.0536766 0.0454205 0.0483686 0.0474908 0.0586505 0.070802 0.0993731 0.0718814 0.0702691 0.0622894 0.0758534 0.0553132
69 3 O 0.157992 15.2266 55.5351 -1.2 1 0.0127045 0.0236867 0.0163927 0.0209715 0.0205941 0.0289535 0.0360305 0.0453653 0.0381562 0.0470256 0.0503136 0.0411902 0.0492871 0.0601132 0.083385 0.0761854 0.0690645 0.0741698 0.0658885 0.0544331
70 3 O 2.71188 15.0996 55.7427 -1.2 1 0.0150062 0.0187186 0.0192964 0.0281146 0.026982 0.0250551 0.0502222 0.0470101 0.0429021 0.0535435 0.0534454 0.0327036 0.0535735 0.0675465 0.0742593 0.0811221 0.0722362 0.0709697 0.0600137 0.0700667
71 1 Mg -0.206989 14.1049 52.2121 1.2 1 0.09987 0.0676148 0.0282547 0.0424195 0.0266246 0.0446447 0.0396208 0.0703155 0.0271929 0.0800001 0.0324511 0.0554824 0.0306835 0.0764004 0.0336629 0.102554 0.0438954 0.109889 0.0456586 0.10067
72 1 Mg 1.82591 13.8102 49.4556 1.2 1 0.261626 0.110942 0.0407365 0.0394261 0.0309691 0.0373376 0.0668157 0.0438768 0.0703117 0.0755279 0.0760171 0.0558963 0.075444 0.0739783 0.0790922 0.089049 0.0784968 0.0924248 0.0826635 0.0860484
73 2 Si 1.29285 16.1518 51.2434 2.4 1 0.126647 0.0890362 0.0392628 0.0398907 0.0413184 0.0485411 0.0575217 0.0425923 0.0522142 0.0700737 0.0687571 0.0716341 0.0734396 0.0675891 0.0941633 0.0844707 0.0769042 0.0893222 0.0735007 0.0678472
74 3 O 1.39496 17.7199 51.3047 -1.2 1 0.128862 0.0871794 0.0290513 0.0365801 0.0359001 0.0468782 0.0396436 0.0691144 0.0602229 0.0644388 0.0429412 0.082917 0.0710198 0.0664638 0.0741203 0.0706829 0.077187 0.0795022 0.0692668 0.0723775
75 3 O 1.2838 15.2885 57.9093 -1.2 1 0.0101102 0.0214045 0.0187208 0.0145897 0.0193157 0.0368697 0.0362325 0.0355831 0.0494801 0.0416602 0.044494 0.0472614 0.047474 0.0688457 0.100243 0.0667542 0.069945 0.0568046 0.0749248 0.0565641
76 3 O -0.0269106 15.5178 50.6688 -1.2 1 0.179089 0.0915951 0.0287283 0.0213865 0.049431 0.0420446 0.0517566 0.0583803 0.0534659 0.0600591 0.0604485 0.0477361 0.0683382 0.0788313 0.0877494 0.0784404 0.0849464 0.0826639 0.0720982 0.092707
77 1 Mg -3.18391 14.1057 52.3125 1.2 1 0.0755375 0.0543877 0.0342317 0.0319955 0.0153758 0.0567226 0.0358109 0.0622495 0.0369102 0.0827837 0.0391834 0.051572 0.02317 0.0747707 0.0330437 0.109335 0.0448151 0.10636 0.0488373 0.086004
78 3 O 2.52432 15.503 50.4579 -1.2 1 0.193713 0.0958769 0.0194771 0.0195268 0.0391863 0.0565199 0.0584545 0.0444734 0.0556334 0.0656322 0.0675888 0.067998 0.0564293 0.0646004 0.1021 0.0749635 0.0791017 0.0755468 0.0681403 0.0806103
79 1 Mg -1.62687 14.1007 55.1975 1.2 1 0.0274472 0.0172741 0.0208614 0.030989 0.01693 0.0261179 0.0250655 0.0349825 0.0428938 0.0525318 0.0534659 0.0587292 0.0568338 0.0553316 0.0591467 0.066823 0.0808887 0.0951952 0.0686207 0.0762033
80 2 Si -1.86276 12.0073 53.1893 2.4 1 0.0494875 0.0444259 0.0227737 0.0269364 0.0335144 0.0413252 0.0484411 0.0490957 0.0601217 0.067179 0.0627314 0.0654722 0.0753779 0.0473217 0.0754831 0.0637773 0.0792624 0.0805134 0.0690175 0.0597202
81 3 O -1.91792 10.4316 53.2205 -1.2 1 0.053768 0.0462786 0.0244098 0.0276854 0.0342369 0.0369303 0.0308214 0.0778194 0.0484148 0.0616631 0.0454548 0.0614 0.0647326 0.0723073 0.0806059 0.0618027 0.058737 0.0649178 0.0667249 0.0679188
82 3 O -1.21337 13.3381 46.4311 -1.2 1 0.520143 0.0684297 0.0706863 0.0409012 0.0559461 0.0592593 0.0597284 0.070598 0.0791258 0.0652032 0.045725 0.0717569 0.0689526 0.0878258 0.120089 0.114144 0.106625 0.0999567 0.0596681 0.0917619
83 3 O -3.07261 12.688 53.8895 -1.2 1 0.0246175 0.0414538 0.0315775 0.0252307 0.0309879 0.0240523 0.0551435 0.0473452 0.0540036 0.051904 0.051523 0.0446324 0.0515602 0.0732053 0.0762752 0.07149 0.0668288 0.0644096 0.0670982 0.0710985
84 3 O -0.60018 12.6923 53.9278 -1.2 1 0.0386926 0.0290633 0.0308184 0.0245393 0.026209 0.0296199 0.0400552 0.0523962 0.0435519 0.0556433 0.0627087 0.0409816 0.0566681 0.0684597 0.0835285 0.0690534 0.0772954 0.0669099 0.0689455 0.075376
85 1 Mg -2.93628 21.2822 57.3842 1.2 1 0.00870918 0.0156556 0.0143138 0.0287949 0.0134095 0.0353032 0.0168018 0.0544849 0.0260087 0.0772069 0.0245152 0.0476566 0.025558 0.0696479 0.0334114 0.102011 0.0427787 0.103498 0.039339 0.0775741
86 1 Mg -1.5831 21.1217 49.8405 1.2 1 0.229473 0.0829315 0.021618 0.0430145 0.0290017 0.0512774 0.0552902 0.054092 0.0504155 0.0573773 0.0606511 0.0676001 0.0736187 0.0746887 0.10102 0.0815885 0.0715992 0.0946534 0.0846551 0.0855017
87 2 Si -1.09384 18.6291 47.9287 2.4 1 0.37103 0.0705608 0.073215 0.0645887 0.031585 0.0705486 0.0462002 0.0792552 0.0659804 0.0690142 0.0522891 0.0733839 0.0612407 0.0755088 0.0992453 0.0759034 0.107952 0.0946312 0.0886941 0.0898495
88 3 O -1.02071 20.1985 47.9911 -1.2 1 0.365809 0.0696714 0.0482426 0.0632637 0.0447374 0.0912228 0.0638535 0.0836565 0.0558241 0.0869628 0.0542478 0.0725576 0.0619225 0.0827264 0.0802519 0.0717558 0.0933854 0.0773685 0.0748909 0.0707026
89 3 O -1.65002 17.5002 51.771 -1.2 1 0.108739 0.0589156 0.0342871 0.0322034 0.0315329 0.0537159 0.0611789 0.0512103 0.0630643 0.0524888 0.0596175 0.0517125 0.0506697 0.0865636 0.100766 0.0832644 0.0759186 0.0461709 0.0735611 0.0696134
90 3 O -2.26174 18.0434 48.8281 -1.2 1 0.29713 0.101855 0.061828 0.0276511 0.0618443 0.0507152 0.0585197 0.0749702 0.0600169 0.0667866 0.0715691 0.0600745 0.057025 0.0598774 0.0782773 0.0880645 0.0888678 0.0807061 0.0840965 0.0902105
91 1 Mg -0.0440435 16.5651 46.8269 1.2 1 0.481273 0.0221715 0.0807479 0.0322581 0.0667416 0.0875371 0.0790551 0.0847609 0.0680444 0.0840841 0.0854505 0.0620531 0.0630138 0.0770969 0.0757957 0.0939842 0.0941968 0.0953146 0.0970096 0.104079
92 3 O 0.37001 17.9877 48.3925 -1.2 1 0.341456 0.0829571 0.0585724 0.0417246 0.0451455 0.0593882 0.0410271 0.0685804 0.0666248 0.0731738 0.0619881 0.0573742 0.0647544 0.088513 0.0946037 0.0735798 0.0935599 0.104407 0.0836569 0.0866453
93 1 Mg 1.20325 16.6978 54.4129 1.2 1 0.015541 0.0338535 0.0225802 0.0312474 0.0197069 0.0216818 0.0264856 0.0382492 0.038717 0.0608333 0.0555777 0.0557058 0.0600466 0.0691297 0.0667515 0.0714005 0.083448 0.0780556 0.0884105 0.0578305
94 2 Si 1.20492 19.2648 56.4236 2.4 1 0.0168815 0.00889539 0.0230918 0.0317296 0.0361734 0.0326285 0.0390622 0.0459723 0.0446839 0.0547091 0.0553458 0.0551111 0.0698534 0.0535421 0.0813895 0.0730449 0.064585 0.0950413 0.0655202 0.0550977
95 3 O 1.18142 17.7284 56.5399 -1.2 1 0.0264362 0.0192602 0.0200441 0.0259691 0.0264429 0.0299393 0.0280872 0.0756093 0.039505 0.0565527 0.0497421 0.0673787 0.0581013 0.0644255 0.0773204 0.0619905 0.0678045 0.071938 0.0644586 0.0774557
96 3 O 1.45147 20.239 52.7294 -1.2 1 0.0665166 0.0440861 0.0312829 0.0163811 0.0258021 0.0426003 0.0517144 0.0521462 0.049495 0.0464249 0.0474742 0.0496547 0.059535 0.0695464 0.102787 0.0697841 0.0709634 0.062988 0.0685937 0.0619645
97 3 O -0.0443446 19.9736 55.7817 -1.2 1 0.013679 0.0127151 0.0299722 0.0216493 0.0150349 0.0245224 0.0393256 0.0389046 0.0425283 0.0399022 0.0590806 0.0444407 0.0501494 0.0510638 0.095182 0.070974 0.0681092 0.0624932 0.0618841 0.0801471
98 3 O 2.43658 19.8119 55.5899 -1.2 1 0.0216311 0.0174986 0.0277577 0.0190315 0.0234482 0.0233205 0.0383976 0.0465036 0.0384727 0.0444137 0.0546318 0.0313341 0.0532202 0.069254 0.0796509 0.0840996 0.0691854 0.0834525 0.0543801 0.0600336
99 1 Mg -0.126194 18.8651 52.2079 1.2 1 0.100801 0.0696798 0.0256627 0.0404544 0.029529 0.0455206 0.038046 0.0704326 0.0287433 0.087218 0.020022 0.0599211 0.0323103 0.0772028 0.0366699 0.108853 0.0443026 0.105414 0.0391729 0.100151
100 1 Mg 1.92402 18.5815 49.4545 1.2 1 0.265049 0.102823 0.0345537 0.0422595 0.0314045 0.0310494 0.0697304 0.0449305 0.0722195 0.0743839 0.0806368 0.0587379 0.0736668 0.0725258 0.0849415 0.0915318 0.0782014 0.100925 0.0921201 0.0894347
101 2 Si 1.38106 20.9117 51.2443 2.4 1 0.139143 0.0833913 0.0319051 0.0287217 0.0360512 0.0453675 0.0579039 0.0430759 0.0512209 0.065102 0.0691686 0.0713365 0.0716379 0.0688923 0.0891259 0.0793549 0.0778885 0.0851927 0.0739607 0.0659369
102 3 O 1.48527 22.4795 51.3054 -1.2 1 0.13538 0.0846715 0.0172376 0.0306968 0.0289814 0.0447678 0.0417545 0.0734377 0.0470733 0.0644734 0.045843 0.0822002 0.0653349 0.0643572 0.0776029 0.0693293 0.0776448 0.0768245 0.0656599 0.069362
103 3 O 1.34431 19.9401 57.8964 -1.2 1 0.00689768 0.0183315 0.0203038 0.0189723 0.0149062 0.0249265 0.030125 0.0438746 0.0583282 0.0444245 0.0428743 0.0453503 0.0482513 0.0672756 0.102783 0.064356 0.070935 0.0522287 0.0668172 0.0533391
104 3 O 0.0615419 20.2804 50.6669 -1.2 1 0.181152 0.0861864 0.0225836 0.0214795 0.0476097 0.0406691 0.058618 0.0615245 0.0550707 0.0586007 0.0593515 0.0513918 0.0615979 0.0786669 0.0943063 0.07919 0.0762663 0.0846907 0.0710589 0.0798452
105 1 Mg -3.09665 18.8643 52.3122 1.2 1 0.0771729 0.0564774 0.0287789 0.0281947 0.0188016 0.0548435 0.0297806 0.0668035 0.0345208 0.0792736 0.0324289 0.0496045 0.0307331 0.074786 0.0329956 0.10706 0.0448887 0.100897 0.042295 0.0887513
106 3 O 2.61548 20.2646 50.4626 -1.2 1 0.192846 0.0962208 0.0275205 0.0154825 0.042535 0.0539798 0.060559 0.0477629 0.0557629 0.0674486 0.069881 0.0648249 0.0510078 0.061114 0.10415 0.076647 0.0743699 0.0675582 0.0631461 0.0863381
107 1 Mg -1.71157 19.0237 54.9658 1.2 1 0.0215535 0.0133544 0.027041 0.0368294 0.0182335 0.0257139 0.0252621 0.0301304 0.0412257 0.0558774 0.0642218 0.0535174 0.0571536 0.0662996 0.0622123 0.094952 0.0613622 0.0871876 0.0642872 0.0947246
108 2 Si -1.69436 16.7891 53.3222 2.4 1 0.0518135 0.0362848 0.0223333 0.0252723 0.0360835 0.0383998 0.0511996 0.0559911 0.0536836 0.0625384 0.060994 0.0671717 0.0760486 0.05462 0.0743532 0.0591533 0.0683683 0.0805696 0.0596864 0.0624082
109 3 O -1.6428 15.1905 53.1893 -1.2 1 0.0569154 0.0446926 0.024695 0.0202211 0.0310321 0.0461789 0.0212633 0.076008 0.0500913 0.0571798 0.0381186 0.0711554 0.0585567 0.0740232 0.0731708 0.0675197 0.053554 0.0711948 0.0627627 0.0712551
110 3 O -1.12868 18.1227 46.4249 -1.2 1 0.522067 0.0670051 0.0731814 0.052248 0.0574729 0.0653803 0.0618143 0.0796928 0.0799298 0.0623856 0.0447803 0.0678019 0.0676599 0.0876592 0.116904 0.115498 0.106931 0.0998349 0.0628334 0.0936624
111 3 O -3.08457 17.5089 53.8608 -1.2 1 0.0230931 0.0339001 0.0331725 0.0152474 0.0188 0.0290143 0.0564902 0.0475574 0.0433308 0.0525488 0.0568047 0.0383595 0.0527241 0.0688091 0.0821772 0.0686716 0.0796838 0.0681495 0.067098 0.0748857
112 3 O -0.553399 17.3817 54.0867 -1.2 1 0.0293057 0.0236414 0.0322178 0.0232101 0.0318886 0.0279105 0.0372678 0.0497128 0.047113 0.0536294 0.0596997 0.036638 0.0549243 0.065471 0.0756354 0.0740619 0.0716714 0.0770091 0.0650381 0.0707485
113 1 Mg -3.13753 25.9394 57.4847 1.2 1 0.0159072 0.0181901 0.00988311 0.0288934 0.0117187 0.0309544 0.017209 0.0548206 0.0241769 0.0792032 0.0226105 0.050274 0.0202119 0.0755398 0.0292507 0.105713 0.0416657 0.108419 0.0448926 0.084169
114 1 Mg -1.48778 25.88 49.8402 1.2 1 0.225633 0.0859562 0.0218193 0.0427467 0.0282473 0.0528889 0.054419 0.0545546 0.0499995 0.0597753 0.0616784 0.0651468 0.0748873 0.0758891 0.104446 0.0858332 0.0742911 0.0939513 0.0836353 0.0840701
115 2 Si -1.00491 23.3922 47.9274 2.4 1 0.372618 0.0657857 0.0647717 0.0720358 0.0309335 0.0753723 0.0433318 0.0827035 0.0695785 0.0735507 0.051726 0.0747374 0.0596704 0.0764907 0.0957886 0.0743764 0.101515 0.0949416 0.0899541 0.0950458
116 3 O -0.927602 24.9615 47.9909 -1.2 1 0.365268 0.0707708 0.0505284 0.0614519 0.045786 0.0929864 0.0631628 0.0817321 0.057428 0.0887703 0.0555752 0.0734149 0.0611845 0.0803856 0.0795446 0.0704926 0.0926111 0.0776108 0.0745438 0.0691281
117 3 O -1.55795 22.2588 51.7696 -1.2 1 0.10798 0.0584774 0.0368206 0.0325966 0.0371449 0.0513562 0.0635409 0.0494475 0.0648129 0.0517906 0.058859 0.0537319 0.0496558 0.0848673 0.10146 0.0772695 0.0797486 0.0452261 0.069625 0.0723338
118 3 O -2.17411 22.8111 48.8277 -1.2 1 0.305671 0.0922089 0.0553485 0.0310606 0.0574734 0.0477287 0.0553567 0.071733 0.0592639 0.065946 0.0714848 0.0603597 0.0546844 0.057155 0.0780866 0.0833372 0.0834903 0.0811146 0.0853907 0.0899161
119 1 Mg 0.0423997 21.3296 46.8225 1.2 1 0.48143 0.0217969 0.0811384 0.0317482 0.0658745 0.087964 0.079181 0.0860362 0.0694072 0.0835042 0.0846629 0.0614276 0.0631763 0.0779421 0.0761973 0.093876 0.0953331 0.0965891 0.0980631 0.104655
120 3 O 0.458537 22.7495 48.3911 -1.2 1 0.348629 0.0742116 0.0526636 0.034412 0.0484485 0.0654586 0.0412411 0.0619799 0.060357 0.0690156 0.0591416 0.0574985 0.0670756 0.0855491 0.0927351 0.07695 0.094278 0.103505 0.0827446 0.0844626
121 1 Mg 1.58258 21.3562 54.5447 1.2 1 0.00620107 0.0202321 0.0154414 0.0324727 0.0131584 0.0166017 0.0224802 0.0344767 0.044459 0.0592614 0.0574659 0.0560734 0.0662495 0.0592316 0.0649893 0.0833014 0.0749377 0.0886162 0.077161 0.0721104
122 2 Si 1.53556 23.8666 56.4445 2.4 1 0.0202325 0.0107514 0.0217523 0.018725 0.0237556 0.0226885 0.0411949 0.0409113 0.0457602 0.0598838 0.050793 0.063056 0.0700955 0.056674 0.0838903 0.0657308 0.0777031 0.0917859 0.0578912 0.0586939
123 3 O 1.54861 22.3117 56.4516 -1.2 1 0.0166791 0.0135981 0.0267823 0.022704 0.0157147 0.0242368 0.0229876 0.0733625 0.0375462 0.0594774 0.0437572 0.066265 0.0601237 0.0658547 0.0881416 0.0642731 0.0587625 0.0645317 0.0615139 0.0706861
124 3 O 1.54441 24.9963 52.7297 -1.2 1 0.069815 0.0497857 0.0245759 0.0204325 0.0260662 0.0419526 0.052801 0.0582311 0.0534448 0.0469374 0.0461375 0.0514535 0.0602005 0.0673515 0.0997763 0.0713522 0.0658002 0.0582385 0.0695679 0.0629346
125 3 O 0.257061 24.5943 55.7236 -1.2 1 0.0138778 0.0100542 0.0281264 0.0245453 0.0223464 0.0279091 0.0460888 0.0412514 0.0342319 0.0513496 0.0532324 0.044141 0.0549596 0.0536849 0.0810127 0.0727126 0.075164 0.0579891 0.0638218 0.061193
126 3 O 2.77812 24.5773 55.745 -1.2 1 0.0184582 0.0147288 0.0311261 0.0229722 0.0203202 0.0195232 0.0492919 0.0388131 0.040132 0.046391 0.0565046 0.0407113 0.0541101 0.0644999 0.0764021 0.0865152 0.0727043 0.065747 0.0671426 0.0690898