ITEM: TIMESTEP
7500
ITEM: NUMBER OF ATOMS
10500
ITEM: BOX BOUNDS xy xz yz pp pp pp
0	8.9688	2.9896
0	118.725	0
0	252.977	0
ITEM: ATOMS id type element xu yu zu q Q_1 Q_2 Q_3 Q_4 Q_5 Q_6 Q_7 Q_8 Q_9 Q_10 Q_11 Q_12 Q_13 Q_14 Q_15 Q_16 Q_17 Q_18 Q_19 Q_20 Q_21
1 1 Mg -3.41251 7.10042 57.4428 1.2 1 0.0134306 0.01658 0.00837948 0.0304544 0.00831945 0.0339033 0.0101029 0.0553669 0.0118862 0.0801749 0.00986042 0.0534458 0.0145544 0.0708935 0.0137215 0.106208 0.0211497 0.11374 0.0250037 0.0962162
2 1 Mg -1.82655 6.90154 50.0912 1.2 1 0.219496 0.0881019 0.0328153 0.0314023 0.0293282 0.0558802 0.0461372 0.0438553 0.0554669 0.0674889 0.055547 0.0758428 0.0681578 0.0624933 0.0950134 0.0596001 0.0852636 0.0999946 0.0751188 0.0793831
3 2 Si -0.257935 3.96038 48.0876 2.4 1 0.371857 0.0728326 0.074475 0.0358677 0.0610473 0.0523893 0.0738139 0.0767435 0.0572095 0.0777093 0.0565618 0.0683693 0.0621596 0.0845435 0.0962776 0.0997601 0.109456 0.0901713 0.0686833 0.0726243
4 3 O -0.335812 5.46814 47.6264 -1.2 1 0.427102 0.0394365 0.0648115 0.0305082 0.0408639 0.0488645 0.0654375 0.0706257 0.0873281 0.0758261 0.0919311 0.0755599 0.0704193 0.067777 0.0917634 0.125663 0.0950452 0.0793814 0.0743545 0.0775172
5 3 O -2.03793 3.43377 51.8941 -1.2 1 0.114076 0.0601165 0.0270264 0.022051 0.0210585 0.0507746 0.0603283 0.0499514 0.0485903 0.0582131 0.0646467 0.0512086 0.0492005 0.0763337 0.0889008 0.0829442 0.0679782 0.0560978 0.0734961 0.0673504
6 3 O -1.54015 3.53929 48.9521 -1.2 1 0.294857 0.0980367 0.0376257 0.049236 0.0372892 0.0470816 0.0717484 0.0522444 0.0514491 0.0614223 0.0801484 0.0681483 0.0700429 0.0676635 0.0730765 0.11213 0.0831 0.0765663 0.0738058 0.0883561
7 1 Mg 1.82954 2.54582 47.1376 1.2 1 0.466172 0.021905 0.0799698 0.0503192 0.0353848 0.0827649 0.0602336 0.0588051 0.0760163 0.0886582 0.0689303 0.0770607 0.0822439 0.0853782 0.0705419 0.0968538 0.101725 0.104313 0.106338 0.0995639
8 3 O 1.22989 3.66364 48.7877 -1.2 1 0.320716 0.0722815 0.0222365 0.0444326 0.0323167 0.0649791 0.078698 0.0334289 0.0854841 0.080696 0.0540881 0.0790958 0.0831204 0.0694495 0.0681406 0.0866783 0.0914643 0.0898336 0.0954197 0.0903067
9 1 Mg 0.989692 2.24204 54.5347 1.2 1 0.0185438 0.0204875 0.0209275 0.0311793 0.0233936 0.0348218 0.0218277 0.0347085 0.041671 0.0589861 0.0583176 0.0548507 0.0626266 0.0704021 0.0677128 0.0719582 0.0680978 0.0916964 0.0724101 0.0747962
10 2 Si 1.05738 5.00089 56.5083 2.4 1 0.0182621 0.00825818 0.0202932 0.033725 0.0229147 0.0287104 0.039197 0.0431274 0.056784 0.0534823 0.0491609 0.0620623 0.066116 0.0528337 0.0834451 0.0712325 0.0562338 0.0962005 0.059207 0.056448
11 3 O 0.888325 3.44267 56.5763 -1.2 1 0.0299945 0.0153945 0.014013 0.0245964 0.0170359 0.0199846 0.0217133 0.0602074 0.0404769 0.051333 0.0395955 0.0686015 0.0547314 0.0580134 0.0748889 0.0702078 0.0592738 0.0722913 0.0611951 0.0766115
12 3 O 1.10813 6.07342 52.8172 -1.2 1 0.0827896 0.0432559 0.0293036 0.0210702 0.0193354 0.0472647 0.0441027 0.0541173 0.0522136 0.0419258 0.0542579 0.0526207 0.0671674 0.0690589 0.0866423 0.0858387 0.0579358 0.0682732 0.0677346 0.0693221
13 3 O -0.219884 5.76356 55.8447 -1.2 1 0.0130544 0.00505954 0.026234 0.0237801 0.0211563 0.0202438 0.0401854 0.0391893 0.0361211 0.0421297 0.0561703 0.0461249 0.0527703 0.0484649 0.0929452 0.066506 0.0754435 0.0645912 0.0624842 0.0667532
14 3 O 2.32414 5.64935 55.8504 -1.2 1 0.0162881 0.0137242 0.033279 0.0179879 0.0249159 0.0186629 0.0407324 0.044307 0.0427796 0.0429828 0.0547582 0.0398275 0.0523209 0.0661215 0.0788708 0.0768052 0.0754704 0.0639546 0.068377 0.0602496
15 1 Mg -0.459401 4.67631 52.2426 1.2 1 0.0908299 0.0667493 0.0335319 0.0388699 0.0304575 0.0319049 0.0409433 0.0599847 0.0430898 0.0833343 0.0438523 0.0613995 0.0479732 0.0732514 0.0454876 0.097398 0.0523633 0.0948576 0.0580474 0.0896906
16 1 Mg 2.79456 3.9971 49.9987 1.2 1 0.222042 0.0955744 0.0302042 0.0392907 0.0421897 0.0611336 0.0559296 0.0552867 0.0794857 0.0647889 0.0635587 0.0569173 0.0629965 0.0707965 0.0839637 0.0774539 0.072716 0.091419 0.0871974 0.0718634
17 2 Si 1.16169 6.59457 51.2556 2.4 1 0.135766 0.0882363 0.037696 0.0340977 0.0417885 0.0522473 0.0450017 0.0439968 0.0604563 0.0630157 0.0639277 0.0746583 0.071369 0.0662514 0.085588 0.0880271 0.0794892 0.0906456 0.0733961 0.0621246
18 3 O 1.28989 8.18905 51.2909 -1.2 1 0.140969 0.0865304 0.0262857 0.039347 0.0339759 0.0452276 0.0432821 0.0734165 0.0522911 0.0722976 0.0423995 0.0891781 0.0709726 0.0639474 0.0765359 0.0711474 0.0730206 0.0665795 0.068868 0.0726948
19 3 O 1.03438 5.68589 57.9903 -1.2 1 0.011529 0.0166932 0.0217266 0.0132728 0.0181923 0.0324626 0.0318478 0.0441034 0.0495337 0.0460327 0.042104 0.0484306 0.0504407 0.0681707 0.104289 0.0680224 0.0687925 0.0571143 0.0724814 0.0677576
20 3 O -0.184847 6.06029 50.6845 -1.2 1 0.185295 0.0840934 0.0206187 0.0297303 0.0363537 0.030028 0.051049 0.059138 0.0549809 0.0585013 0.0642967 0.0786939 0.06513 0.0584188 0.088078 0.0689754 0.0835162 0.0789707 0.0631085 0.0793388
21 1 Mg -3.49704 4.67769 52.6661 1.2 1 0.0693444 0.0528831 0.0277011 0.0300872 0.0116686 0.0427329 0.0346115 0.0573506 0.0533395 0.0660376 0.0526648 0.0490817 0.0486014 0.0482304 0.057705 0.0891257 0.0848596 0.0749449 0.0756507 0.065142
22 3 O 2.48581 5.93312 50.6539 -1.2 1 0.189989 0.0941716 0.0305528 0.0185228 0.0345831 0.0503695 0.0588278 0.0586033 0.0453676 0.0659448 0.0491595 0.0645958 0.0529161 0.0624248 0.10294 0.0687314 0.0779857 0.0674203 0.0762488 0.0762705
23 1 Mg -1.92959 4.65751 55.2549 1.2 1 0.0170872 0.0153733 0.0255871 0.0268809 0.0159228 0.0225274 0.0238961 0.0346871 0.0418179 0.0542776 0.0536477 0.0534956 0.0620395 0.0627667 0.0638727 0.0682699 0.0826556 0.0944485 0.0627205 0.0769942
24 2 Si -1.95602 2.62953 53.3044 2.4 1 0.0415912 0.0364211 0.0294615 0.0255236 0.0237692 0.0254199 0.0454824 0.0444272 0.0653392 0.0664348 0.0568325 0.0689978 0.079482 0.0489004 0.0684394 0.0550413 0.0722657 0.0862333 0.0790373 0.060209
25 3 O -1.98879 1.10033 53.2058 -1.2 1 0.0519295 0.0350604 0.0281925 0.025229 0.0227968 0.0358351 0.0251699 0.0684376 0.0552533 0.0625595 0.0517205 0.0646104 0.0591807 0.0710602 0.0778304 0.0721794 0.0517287 0.0690847 0.0640538 0.0705073
26 3 O -0.0467762 2.97103 46.8385 -1.2 1 0.497794 0.0374159 0.0876063 0.0295258 0.0800694 0.0676834 0.0810936 0.0721053 0.0726711 0.0789621 0.0812431 0.0754953 0.0969945 0.0885846 0.0887589 0.0887972 0.099406 0.0974475 0.105146 0.110801
27 3 O -3.23885 3.28003 54.0954 -1.2 1 0.0292432 0.026551 0.0277782 0.0233013 0.0253349 0.0248601 0.0382148 0.0413575 0.0515243 0.0520951 0.0646617 0.0436667 0.0615446 0.0616116 0.0785131 0.0643631 0.0670676 0.0671614 0.0664848 0.0579918
28 3 O -0.6579 3.28857 53.9624 -1.2 1 0.0401159 0.0261375 0.0366089 0.0126784 0.0201127 0.0266618 0.0434601 0.0471914 0.0460198 0.0526059 0.061114 0.0472093 0.0543357 0.0712271 0.0823661 0.0638534 0.0800561 0.0704188 0.0613125 0.0640153
29 1 Mg -3.34607 11.7671 57.4075 1.2 1 0.00379348 0.017918 0.00475171 0.0327257 0.00501964 0.0322698 0.00561328 0.0568413 0.00561253 0.0816155 0.00544758 0.0530215 0.00783089 0.0722648 0.00899761 0.108734 0.00971977 0.113766 0.0101401 0.0981057
30 1 Mg -1.75014 11.5838 49.8362 1.2 1 0.230008 0.0816583 0.0264346 0.0412194 0.0290897 0.0555432 0.0488907 0.0554296 0.0461382 0.0586202 0.0650687 0.0612433 0.0725682 0.0724892 0.109433 0.0887985 0.064059 0.0940886 0.0864556 0.0793979
31 2 Si -1.18003 9.02138 47.9309 2.4 1 0.371239 0.0661222 0.065978 0.0518459 0.042254 0.0624727 0.0720385 0.0754766 0.0702731 0.0648821 0.0576766 0.0660275 0.0676294 0.0800533 0.100375 0.0650709 0.100397 0.091672 0.104546 0.086726
32 3 O -1.23224 10.5991 47.9811 -1.2 1 0.37535 0.0649768 0.0586135 0.0545616 0.0518653 0.0711319 0.0666812 0.0759371 0.0541322 0.0855217 0.0692896 0.0633957 0.0730525 0.0806837 0.0829518 0.0685018 0.0908102 0.0820377 0.0645812 0.0723449
33 3 O -1.79016 8.01447 51.8693 -1.2 1 0.114103 0.0609347 0.033302 0.0298185 0.0309536 0.0474078 0.0580235 0.0566809 0.0575523 0.0523262 0.0507454 0.052729 0.0655859 0.0853862 0.0900552 0.0744884 0.0727528 0.0537284 0.0745061 0.069793
34 3 O -2.30986 8.37215 48.8528 -1.2 1 0.311798 0.0877414 0.0668471 0.024419 0.0535753 0.0617735 0.0674904 0.0654531 0.0575826 0.0665284 0.0801865 0.0667964 0.0566894 0.0642376 0.0789955 0.0914621 0.0978503 0.0792135 0.0749971 0.0942977
35 1 Mg 0.154883 7.08234 46.8007 1.2 1 0.497378 0.0365917 0.0753606 0.0386793 0.0648329 0.075403 0.0592801 0.0678641 0.071055 0.0833777 0.0892094 0.0759068 0.0791513 0.0799668 0.0698989 0.0920564 0.0929645 0.10856 0.114019 0.100398
36 3 O 0.325447 8.50934 48.3809 -1.2 1 0.347706 0.0796183 0.0597486 0.0444789 0.0340498 0.0535595 0.0364027 0.0574537 0.0625752 0.0637461 0.0736196 0.0634632 0.0777261 0.0915283 0.0902798 0.0683902 0.0915788 0.101376 0.0859283 0.0891602
37 1 Mg 1.11488 7.04676 54.5926 1.2 1 0.0184175 0.0301878 0.0138402 0.0330827 0.0194648 0.022967 0.021932 0.0313433 0.0430434 0.0595957 0.0580907 0.0550357 0.0492348 0.0660696 0.0615311 0.0824629 0.0661317 0.0885018 0.0783159 0.0808972
38 2 Si 1.10273 9.7577 56.3874 2.4 1 0.0175554 0.0166901 0.0236669 0.0252904 0.0327738 0.0313622 0.0407913 0.0403032 0.0522203 0.0532947 0.0532834 0.0648852 0.0667917 0.0589009 0.0786726 0.0745306 0.0560473 0.0911381 0.0614349 0.0578102
39 3 O 1.08776 8.20358 56.5633 -1.2 1 0.0304811 0.00798845 0.0195592 0.0233645 0.0256811 0.0318001 0.02478 0.0625071 0.0388858 0.0509375 0.0411096 0.0694383 0.0566157 0.0642175 0.0689263 0.0664504 0.0628328 0.0725306 0.0582902 0.077862
40 3 O 1.28624 10.7248 52.7351 -1.2 1 0.0776802 0.0388366 0.031889 0.0224052 0.0298172 0.0452623 0.0495114 0.0491429 0.0489567 0.0450972 0.049275 0.0471089 0.0568162 0.0667875 0.100564 0.0759327 0.0706608 0.0534599 0.0732392 0.059775
41 3 O -0.145062 10.426 55.7459 -1.2 1 0.00881123 0.017775 0.0193515 0.0168969 0.0210682 0.018742 0.0394878 0.0470372 0.0346402 0.0473581 0.0513375 0.0459288 0.055043 0.0563244 0.094907 0.0725954 0.0754462 0.0575498 0.0637603 0.0715152
42 3 O 2.39267 10.4604 55.7661 -1.2 1 0.0150465 0.0168835 0.0294474 0.0168896 0.0208341 0.0190891 0.0439365 0.042025 0.0367483 0.0415236 0.0518382 0.039969 0.0504969 0.0613198 0.0828272 0.0766297 0.0717633 0.0610408 0.065886 0.0632228
43 1 Mg -0.262694 9.34741 52.2523 1.2 1 0.115535 0.0646856 0.0186548 0.0404729 0.0336241 0.0425987 0.0364371 0.0718021 0.0270068 0.08764 0.0274419 0.0573535 0.0369818 0.0737938 0.0399434 0.104211 0.0487511 0.094634 0.0486681 0.106237
44 1 Mg 1.87648 9.01537 49.4629 1.2 1 0.27051 0.0969808 0.0392439 0.0377129 0.03335 0.0484158 0.0691951 0.047216 0.0762365 0.0629871 0.0826158 0.0540011 0.084916 0.0669923 0.0848462 0.0947998 0.0886386 0.0954783 0.0849732 0.0921675
45 2 Si 1.21415 11.3799 51.2378 2.4 1 0.13344 0.0848135 0.0403763 0.0339775 0.0402614 0.0502958 0.0522413 0.0423798 0.0573355 0.0653177 0.0735393 0.0715427 0.078597 0.0668591 0.0931279 0.0900323 0.077323 0.0828839 0.0741324 0.0557527
46 3 O 1.31634 12.9512 51.3023 -1.2 1 0.14173 0.0752843 0.0261849 0.0318553 0.0342889 0.0450753 0.040828 0.0681375 0.0556005 0.0652872 0.0444456 0.0796874 0.067709 0.0660766 0.0714252 0.0685382 0.0767012 0.0724468 0.0712364 0.0720711
47 3 O 1.10757 10.4264 57.9345 -1.2 1 0.00862717 0.0147773 0.0261718 0.0142644 0.0192966 0.0326087 0.0314765 0.0463801 0.0499099 0.0469009 0.0395194 0.0470096 0.052237 0.0648467 0.104652 0.0689968 0.0689579 0.051943 0.0706752 0.0649095
48 3 O -0.115718 10.7564 50.681 -1.2 1 0.191269 0.0791916 0.0237645 0.0188325 0.0440821 0.03476 0.0486294 0.0668446 0.0508948 0.0548213 0.0610547 0.0527616 0.0631098 0.0745682 0.0894515 0.0792313 0.0743435 0.0759521 0.0768527 0.0819687
49 1 Mg -3.26386 9.35564 52.3622 1.2 1 0.0817782 0.05432 0.0261461 0.0307411 0.016088 0.0533776 0.0347779 0.0595834 0.030972 0.0832827 0.0326266 0.0513955 0.0339576 0.0654752 0.0353296 0.112653 0.0444156 0.104359 0.0489321 0.0899057
50 3 O 2.45216 10.7265 50.4558 -1.2 1 0.20034 0.0891343 0.020695 0.0130757 0.0372117 0.0559576 0.0618724 0.0496663 0.057263 0.0682262 0.0648498 0.0701137 0.0523728 0.0667826 0.097952 0.083299 0.073911 0.0760612 0.0562954 0.0877673
51 1 Mg -1.91566 9.48546 55.1161 1.2 1 0.022318 0.0154186 0.0193814 0.0314369 0.0120912 0.0247507 0.0211845 0.0343081 0.0385231 0.0565765 0.0587666 0.0516198 0.0635847 0.0628612 0.0661708 0.0805596 0.0686431 0.0923971 0.0720972 0.0859652
52 2 Si -1.83009 7.35628 53.391 2.4 1 0.0497625 0.0433623 0.0267346 0.0326186 0.0301311 0.0349846 0.0430329 0.0508051 0.0601759 0.065012 0.0636174 0.0613942 0.0752509 0.0475594 0.0655388 0.0658986 0.0679606 0.0890328 0.0664923 0.0583979
53 3 O -1.88418 5.8226 53.3712 -1.2 1 0.0585628 0.0326618 0.0254296 0.0158726 0.0215557 0.0355586 0.0325245 0.0678434 0.0458768 0.0676225 0.0370459 0.0749093 0.0556482 0.074653 0.0592937 0.0658611 0.0583298 0.0536837 0.0722204 0.0639178
54 3 O -1.19417 8.46968 46.4488 -1.2 1 0.525013 0.0666335 0.066991 0.0516463 0.0669256 0.0561402 0.0781143 0.0544728 0.0758922 0.0710912 0.0569346 0.0510724 0.0695673 0.0978552 0.129955 0.113362 0.0975666 0.0955469 0.0830875 0.0823094
55 3 O -3.11015 8.07506 54.0168 -1.2 1 0.0410116 0.019529 0.0212639 0.0207861 0.0262485 0.0273757 0.0499858 0.0453383 0.0434513 0.055642 0.0534702 0.0428401 0.0607822 0.0568468 0.0824524 0.0655192 0.067082 0.0637159 0.0685102 0.0687395
56 3 O -0.580785 8.11907 53.9721 -1.2 1 0.0569852 0.0248562 0.0307034 0.023599 0.0297241 0.0240979 0.035705 0.0507698 0.0396137 0.0495631 0.0603817 0.0483883 0.0584908 0.0583221 0.0922369 0.0579981 0.0780207 0.067183 0.0652674 0.0703167
57 1 Mg -3.22154 16.5245 57.3291 1.2 1 0.00651809 0.0215544 0.0024945 0.0370345 0.0026035 0.0366244 0.00282354 0.0576669 0.0079874 0.0798709 0.00630095 0.0533192 0.00905092 0.0696188 0.012174 0.108083 0.0147232 0.113812 0.0187253 0.0986513
58 1 Mg -1.6714 16.3544 49.8412 1.2 1 0.232884 0.0786486 0.0257776 0.0411709 0.0306011 0.0499401 0.0529361 0.0552601 0.0470828 0.061718 0.0620264 0.0653282 0.0722857 0.0724666 0.103977 0.0848631 0.0743787 0.0952357 0.0845942 0.084045
59 2 Si -1.18567 13.8526 47.9314 2.4 1 0.374327 0.0676524 0.0768968 0.060614 0.0327474 0.0691356 0.0468081 0.0790544 0.0631509 0.066731 0.0521091 0.071035 0.0587252 0.0759057 0.097916 0.0754928 0.104038 0.0966863 0.0898691 0.0912874
60 3 O -1.09664 15.4205 47.9915 -1.2 1 0.366067 0.070265 0.0491702 0.062201 0.0453054 0.0927287 0.0632322 0.0821439 0.056884 0.0891713 0.0545194 0.072655 0.0610791 0.0824002 0.0818068 0.0738381 0.0933407 0.0762633 0.0744889 0.0690839
61 3 O -1.73493 12.7491 51.7772 -1.2 1 0.11663 0.0579022 0.0301813 0.0281092 0.0332455 0.0534445 0.059928 0.0500878 0.0672553 0.0520112 0.0576631 0.0499934 0.0527046 0.0841039 0.102617 0.0760115 0.0816088 0.0476114 0.0718473 0.0721191
62 3 O -2.36115 13.2717 48.8238 -1.2 1 0.306736 0.0916303 0.0569793 0.0287824 0.0551766 0.0496231 0.0579475 0.0693868 0.061374 0.067332 0.0733262 0.0638314 0.058504 0.0556958 0.0847041 0.0880488 0.0869903 0.0762555 0.0812358 0.0893009
63 1 Mg -0.159928 11.7639 46.8533 1.2 1 0.482367 0.0249812 0.0772731 0.0334854 0.0531188 0.0971124 0.0706405 0.0878533 0.0826947 0.084724 0.0846479 0.068869 0.0719661 0.0919649 0.0776481 0.0863501 0.0969917 0.097428 0.0998087 0.106381
64 3 O 0.2623 13.1866 48.413 -1.2 1 0.346633 0.0739636 0.0534226 0.0374415 0.0467518 0.0581427 0.0374112 0.064416 0.0674666 0.0698684 0.0608731 0.0592814 0.0655842 0.0872494 0.0969082 0.0813811 0.0949272 0.0994863 0.0825142 0.085191
65 1 Mg 1.30459 11.836 54.5457 1.2 1 0.00696705 0.0272675 0.0152869 0.0281338 0.0121902 0.019489 0.0269711 0.0337443 0.046247 0.0588044 0.0566327 0.0549027 0.0622999 0.0679418 0.0654858 0.0805934 0.0734166 0.0852568 0.0746887 0.0781281
66 2 Si 1.19871 14.4432 56.3389 2.4 1 0.0177821 0.0157474 0.0148447 0.0291842 0.0271845 0.0312551 0.0365649 0.0439758 0.0490307 0.0591277 0.0529944 0.0626313 0.0675806 0.0538823 0.0744313 0.078402 0.0591468 0.096422 0.0547733 0.0582215
67 3 O 1.12168 12.8968 56.4576 -1.2 1 0.014367 0.0212318 0.0115242 0.0227962 0.0240422 0.0237158 0.0222413 0.0666156 0.0335477 0.0529955 0.0429271 0.0696294 0.0577647 0.0670835 0.0733905 0.0682359 0.0599204 0.0719374 0.0641212 0.0690576
68 3 O 1.36565 15.4813 52.729 -1.2 1 0.0721395 0.0420725 0.0261249 0.0224531 0.0235816 0.0449245 0.0497661 0.0533782 0.0512814 0.0464924 0.0463457 0.0493694 0.0580864 0.0643574 0.10251 0.0726379 0.0722117 0.0565119 0.0714111 0.0623731
69 3 O -0.102294 15.1681 55.7491 -1.2 1 0.0101835 0.00911972 0.0286585 0.0208031 0.0158003 0.0183982 0.0400175 0.0471265 0.0376858 0.0451089 0.0532582 0.0414355 0.0533163 0.0585287 0.09223 0.0703705 0.0752908 0.0605566 0.0622093 0.073414
70 3 O 2.49459 15.1533 55.7229 -1.2 1 0.0173633 0.0180653 0.0307685 0.0167894 0.020061 0.0170962 0.0508231 0.0431085 0.0345503 0.0413864 0.0562013 0.0354347 0.0485414 0.0654738 0.0813577 0.0775444 0.0728236 0.0620323 0.067609 0.0652395
71 1 Mg -0.206989 14.1049 52.2121 1.2 1 0.103626 0.066841 0.0234588 0.0422361 0.0303505 0.0422979 0.034047 0.0725554 0.0248847 0.088615 0.0254758 0.0566067 0.0264152 0.0754481 0.0291232 0.104109 0.0386812 0.104619 0.0387227 0.105144
72 1 Mg 1.82591 13.8102 49.4556 1.2 1 0.267593 0.101423 0.0366349 0.0369131 0.0349209 0.0356016 0.0659639 0.047705 0.073003 0.0770062 0.0796732 0.0579663 0.07181 0.0713798 0.0825958 0.0887365 0.0765055 0.0997787 0.0919482 0.0866914
73 2 Si 1.29285 16.1518 51.2434 2.4 1 0.129385 0.0885988 0.0366245 0.0376421 0.0396739 0.0469682 0.0546998 0.0440589 0.0542239 0.0692255 0.0680916 0.0732844 0.0724978 0.0668877 0.0932937 0.0867781 0.0750889 0.0885076 0.0724792 0.0629903
74 3 O 1.39496 17.7199 51.3047 -1.2 1 0.155231 0.0646475 0.0289311 0.0353275 0.0275195 0.0437805 0.0374447 0.0651378 0.0475546 0.0605039 0.0463422 0.0734871 0.0652841 0.0650805 0.0723047 0.0679726 0.0755865 0.0758124 0.0706904 0.0748233
75 3 O 1.27929 15.1384 57.8329 -1.2 1 0.00585582 0.0203271 0.0248291 0.0154907 0.0160338 0.0341751 0.0317363 0.0466992 0.058534 0.044593 0.0421965 0.0462795 0.0530769 0.0634194 0.104577 0.0716012 0.0687008 0.053129 0.0764871 0.0636974
76 3 O -0.0269106 15.5178 50.6688 -1.2 1 0.18432 0.0830012 0.0242563 0.0200511 0.0454431 0.0404372 0.0527366 0.0654255 0.0554478 0.0559364 0.0591669 0.0490815 0.0626325 0.0766595 0.0921874 0.0800329 0.0755651 0.0800421 0.0718256 0.0891541
77 1 Mg -3.18391 14.1057 52.3125 1.2 1 0.0796702 0.056005 0.0306723 0.0324029 0.0206294 0.0522829 0.0337752 0.0637384 0.0316884 0.0793613 0.0340368 0.050943 0.0236652 0.074859 0.0323647 0.108444 0.0442701 0.105824 0.0397724 0.0885233
78 3 O 2.52432 15.503 50.4579 -1.2 1 0.20714 0.0836782 0.0268832 0.0174907 0.038227 0.052555 0.0550876 0.0487697 0.0512629 0.0666326 0.0617764 0.0695929 0.0536391 0.0618556 0.0947325 0.0751815 0.0748401 0.0683122 0.0620697 0.0863755
79 1 Mg -1.82975 14.1843 55.1405 1.2 1 0.0222001 0.016592 0.0184426 0.0264792 0.0141839 0.0211793 0.0265846 0.0359715 0.0392509 0.0570215 0.0591985 0.0575974 0.0619844 0.0589875 0.0648946 0.0752225 0.0788084 0.0966161 0.0642231 0.0811709
80 2 Si -1.70798 12.0577 53.2329 2.4 1 0.0472732 0.0416363 0.0212812 0.0304819 0.0358448 0.0337851 0.0498394 0.0552833 0.0622166 0.0632155 0.0597703 0.0685074 0.0785087 0.0517099 0.0762389 0.0644999 0.0655387 0.085397 0.0628256 0.0582225
81 3 O -1.76915 10.4857 53.2184 -1.2 1 0.0715418 0.0346428 0.022085 0.0227439 0.0306855 0.0351975 0.0276871 0.076621 0.0475397 0.059026 0.045717 0.0695717 0.060877 0.0743599 0.0714855 0.0630131 0.0522101 0.0580198 0.067569 0.0721577
82 3 O -1.21337 13.3381 46.4311 -1.2 1 0.520103 0.0677509 0.0700625 0.0406527 0.0558588 0.0583626 0.0584805 0.0701247 0.0791768 0.0655 0.0460948 0.0713348 0.0681334 0.0879074 0.120513 0.114211 0.10656 0.100301 0.0600824 0.0913933
83 3 O -2.96942 12.7707 53.972 -1.2 1 0.0373407 0.0258071 0.030983 0.0225648 0.0210333 0.0281725 0.0460973 0.0428405 0.0424409 0.0547504 0.0529948 0.0450631 0.052602 0.0574947 0.0775668 0.0673453 0.0655662 0.0638777 0.0687168 0.0659236
84 3 O -0.407214 12.7668 53.8663 -1.2 1 0.0493082 0.0277186 0.0292625 0.0201736 0.0219144 0.0222357 0.0416981 0.0500131 0.0490112 0.0530727 0.0566363 0.0458996 0.0589865 0.0606471 0.0916938 0.0594179 0.0822266 0.0637752 0.0687013 0.0709689
85 1 Mg -3.14697 21.2825 57.3972 1.2 1 0.0021327 0.0195005 0.00406731 0.0330133 0.00570352 0.0333739 0.00669205 0.0550284 0.0107392 0.08374 0.00895284 0.0482016 0.00992318 0.0701384 0.011453 0.103204 0.0166304 0.116421 0.022858 0.100339
86 1 Mg -1.5831 21.1217 49.8405 1.2 1 0.22623 0.0850312 0.023287 0.0434661 0.0296195 0.0524858 0.0547955 0.0542308 0.0511369 0.0618805 0.0626004 0.0647712 0.074295 0.0759778 0.103634 0.0824216 0.072871 0.0950445 0.083327 0.0839899
87 2 Si -1.09384 18.6291 47.9287 2.4 1 0.379047 0.0609554 0.0681828 0.0663064 0.0292485 0.0676979 0.0454817 0.0798945 0.0628886 0.0679891 0.0540887 0.0727246 0.0592955 0.0730842 0.098643 0.0738251 0.10438 0.0931236 0.0899685 0.0885839
88 3 O -1.02071 20.1985 47.9911 -1.2 1 0.365796 0.0697784 0.0488343 0.0628257 0.0452575 0.0918308 0.0631366 0.0823355 0.0565967 0.0887044 0.054972 0.0723904 0.0607289 0.0820837 0.0817357 0.0739871 0.0935456 0.0765777 0.0748244 0.0690079
89 3 O -1.65002 17.5002 51.771 -1.2 1 0.111129 0.0589832 0.0336971 0.0275286 0.0319503 0.054543 0.0575596 0.0509284 0.066073 0.0531958 0.0561382 0.049069 0.0522018 0.0837517 0.101018 0.0756321 0.0814192 0.0450254 0.0757133 0.0750746
90 3 O -2.26174 18.0434 48.8281 -1.2 1 0.306961 0.0892766 0.0530873 0.0338823 0.0563086 0.047584 0.0552785 0.0732091 0.0618569 0.0701308 0.0707208 0.0604342 0.0551876 0.0584805 0.0792136 0.0858325 0.0859184 0.0794037 0.0832561 0.0888596
91 1 Mg -0.0440435 16.5651 46.8269 1.2 1 0.481167 0.0219665 0.0813216 0.032484 0.0664967 0.0873608 0.0788142 0.0850568 0.0687727 0.0842008 0.0854835 0.0623791 0.0633881 0.0779357 0.076948 0.0941508 0.0938399 0.0959993 0.0988036 0.105084
92 3 O 0.37001 17.9877 48.3925 -1.2 1 0.341206 0.0838259 0.059242 0.0415331 0.0442331 0.0608004 0.0432197 0.0677816 0.0664937 0.0742567 0.0611329 0.0562623 0.0655392 0.0869966 0.0942327 0.0771275 0.0937905 0.101302 0.0821029 0.0885038
93 1 Mg 1.38469 16.5653 54.5538 1.2 1 0.0116898 0.0243978 0.00999781 0.033646 0.0115207 0.0188626 0.0215077 0.0370293 0.0444732 0.0619221 0.0571709 0.0535943 0.0593638 0.068115 0.0587083 0.0836106 0.0686544 0.0932113 0.0750444 0.0825598
94 2 Si 1.34491 19.2099 56.3342 2.4 1 0.0189764 0.0154483 0.0163669 0.0288819 0.032486 0.0299556 0.0410128 0.0420988 0.0495554 0.0545894 0.0527656 0.0623217 0.0716952 0.057812 0.078218 0.075345 0.0559469 0.0938811 0.0570794 0.0560405
95 3 O 1.32079 17.636 56.4468 -1.2 1 0.0211086 0.00723188 0.020295 0.0259151 0.0259723 0.0244578 0.0189998 0.0725974 0.0336188 0.0524436 0.0441632 0.0689686 0.0537221 0.0624869 0.0727309 0.0688291 0.0536218 0.0721582 0.0628806 0.0759737
96 3 O 1.45147 20.239 52.7294 -1.2 1 0.0763036 0.0406122 0.0280934 0.0241455 0.0241008 0.0411359 0.0485384 0.05534 0.0524769 0.0468695 0.0463976 0.0499582 0.057311 0.0637743 0.101992 0.0714186 0.0677929 0.0623334 0.070972 0.0631866
97 3 O 0.0538283 19.8877 55.7013 -1.2 1 0.00902529 0.0106375 0.030425 0.0221149 0.0157062 0.0211286 0.0385787 0.0459532 0.0366614 0.0476605 0.0542477 0.0400439 0.0513757 0.0590141 0.0863889 0.0748654 0.0754747 0.0567564 0.0607117 0.0744083
98 3 O 2.58262 19.9223 55.6781 -1.2 1 0.0153775 0.0170917 0.0258377 0.0152722 0.023637 0.0174775 0.0474113 0.0447279 0.035421 0.0437091 0.0541057 0.0405288 0.0509966 0.0592347 0.0802283 0.072892 0.0732127 0.0650999 0.0642591 0.0651349
99 1 Mg -0.126194 18.8651 52.2079 1.2 1 0.102994 0.0667644 0.0235105 0.0413224 0.0302287 0.0432865 0.035066 0.0720654 0.0262821 0.0879798 0.022783 0.0564546 0.029096 0.0752472 0.0300721 0.106618 0.0414508 0.104047 0.039406 0.103859
100 1 Mg 1.92402 18.5815 49.4545 1.2 1 0.260698 0.10923 0.0308793 0.0455534 0.03147 0.0338881 0.0716599 0.0420782 0.0679604 0.0741828 0.0781719 0.0561845 0.0763702 0.0695149 0.0841973 0.0949629 0.0791916 0.0954563 0.0834968 0.0851838
101 2 Si 1.38106 20.9117 51.2443 2.4 1 0.130199 0.0849285 0.0415861 0.0418566 0.0366877 0.0513895 0.0540964 0.0425797 0.0544694 0.0699804 0.0683406 0.0724344 0.0702786 0.0701451 0.0925944 0.085031 0.0755854 0.0842873 0.0733649 0.0631015
102 3 O 1.48527 22.4795 51.3054 -1.2 1 0.145268 0.0695612 0.0298784 0.0348669 0.0337918 0.041953 0.0415852 0.0679476 0.0537935 0.0642301 0.0444063 0.0765321 0.0686562 0.0647961 0.0741681 0.065299 0.0732124 0.0760762 0.0688509 0.0722924
103 3 O 1.37618 19.8942 57.8498 -1.2 1 0.00978578 0.0215655 0.0251342 0.01443 0.0181943 0.0348218 0.0294306 0.0469029 0.0514388 0.0472 0.0375352 0.0472412 0.0494385 0.0648907 0.10574 0.0700931 0.0677751 0.050315 0.0743962 0.0667006
104 3 O 0.0615419 20.2804 50.6669 -1.2 1 0.184388 0.0826399 0.0243125 0.0202616 0.0454632 0.0411749 0.0532515 0.0647113 0.05491 0.0572412 0.0603371 0.048244 0.0626551 0.0771717 0.0931578 0.0805294 0.0754691 0.0788997 0.0706898 0.0894185
105 1 Mg -3.09665 18.8643 52.3122 1.2 1 0.074583 0.0587229 0.028942 0.0321587 0.0179136 0.0540305 0.0323778 0.0629233 0.0324142 0.08012 0.0320416 0.0488511 0.0235064 0.0732497 0.031772 0.109389 0.044806 0.105301 0.0402551 0.0888954
106 3 O 2.61548 20.2646 50.4626 -1.2 1 0.202141 0.0867278 0.0257256 0.0184291 0.0400066 0.0494096 0.05737 0.0462361 0.0537836 0.0643167 0.0638956 0.0690525 0.0541842 0.0599914 0.0978839 0.0725648 0.0748715 0.068202 0.0646252 0.0859674
107 1 Mg -1.64596 18.9562 55.0095 1.2 1 0.0227742 0.0127841 0.0206767 0.0310015 0.014694 0.0203283 0.0179199 0.0314943 0.0409985 0.0591292 0.0579917 0.0552465 0.0591629 0.0657167 0.0566875 0.0843598 0.0702908 0.0984286 0.0693049 0.0904517
108 2 Si -1.62624 16.8573 53.232 2.4 1 0.0470907 0.0429402 0.0232361 0.0291713 0.0332347 0.0365161 0.045496 0.0580015 0.0609344 0.0613206 0.0570865 0.0689645 0.0783599 0.052388 0.0704464 0.0620115 0.0673068 0.091653 0.061178 0.061708
109 3 O -1.71556 15.2753 53.1668 -1.2 1 0.0688054 0.038087 0.0213197 0.0223829 0.0324296 0.0320202 0.029377 0.0762819 0.0442327 0.060521 0.0468411 0.071679 0.0555938 0.0757513 0.0715186 0.0661637 0.0506549 0.0690942 0.0711779 0.0801738
110 3 O -1.12868 18.1227 46.4249 -1.2 1 0.522052 0.0665647 0.0726463 0.0520906 0.057747 0.0650756 0.0608523 0.0790226 0.0793883 0.0619898 0.0452263 0.0681751 0.0675441 0.0874619 0.116524 0.114912 0.107236 0.101048 0.0628605 0.0926096
111 3 O -2.88729 17.5361 53.9093 -1.2 1 0.0382363 0.02077 0.0293409 0.0194218 0.0238925 0.0255749 0.0509214 0.0430697 0.0441979 0.0532891 0.0497702 0.0424293 0.0554485 0.0622189 0.0819763 0.0657673 0.0676708 0.0607191 0.0703567 0.0684212
112 3 O -0.313645 17.4971 53.8461 -1.2 1 0.0420982 0.0313437 0.0297699 0.024742 0.023585 0.0196538 0.0424793 0.0525465 0.0471778 0.0551771 0.0555303 0.0451871 0.0605529 0.0665018 0.0883952 0.0628352 0.0831818 0.066659 0.0675337 0.0713473
113 1 Mg -2.95183 26.0377 57.3715 1.2 1 0.00628133 0.0172642 0.00677677 0.0326368 0.00656427 0.0359568 0.00951711 0.0570855 0.0123429 0.0854605 0.010164 0.052961 0.0118096 0.0701123 0.0122281 0.103827 0.0200114 0.113567 0.0182774 0.101129
114 1 Mg -1.48778 25.88 49.8402 1.2 1 0.226401 0.0845349 0.0235867 0.0430005 0.0303721 0.0519326 0.0550238 0.0534564 0.051127 0.0614698 0.0620515 0.0653746 0.0741656 0.0754169 0.103632 0.0843811 0.0727123 0.0937168 0.0827651 0.0844539
115 2 Si -1.00491 23.3922 47.9274 2.4 1 0.367735 0.072598 0.0709422 0.0697602 0.033575 0.0764345 0.0432771 0.0841608 0.0705049 0.0734963 0.0498552 0.0752525 0.0591366 0.0766682 0.0957351 0.0773431 0.104115 0.0956018 0.0881543 0.0941837
116 3 O -0.927602 24.9615 47.9909 -1.2 1 0.365719 0.0695646 0.0486887 0.0629243 0.0454082 0.0917161 0.0633456 0.082546 0.0566492 0.0879216 0.0545167 0.072384 0.0604621 0.0816605 0.0819419 0.0739685 0.0929687 0.0746942 0.0745236 0.0698624
117 3 O -1.55795 22.2588 51.7696 -1.2 1 0.111112 0.0585466 0.0332276 0.027097 0.0335097 0.0542839 0.057933 0.0498981 0.0653931 0.0518458 0.0577244 0.0493106 0.0517963 0.0850694 0.100568 0.0753709 0.0805087 0.0437421 0.0757652 0.0724792
118 3 O -2.17411 22.8111 48.8277 -1.2 1 0.297027 0.101373 0.0621228 0.0275232 0.0625023 0.0513672 0.0582456 0.073262 0.0590455 0.0666265 0.0721274 0.0611955 0.056381 0.057853 0.0788018 0.0874867 0.0873621 0.0802774 0.0844535 0.0905985
119 1 Mg 0.0423997 21.3296 46.8225 1.2 1 0.484721 0.020447 0.0787799 0.0304937 0.0617536 0.0846794 0.0731522 0.0819501 0.0705933 0.0842353 0.0845091 0.0632143 0.0651786 0.0792198 0.0767295 0.0937074 0.0968969 0.0989057 0.099597 0.106104
120 3 O 0.458537 22.7495 48.3911 -1.2 1 0.345138 0.0774202 0.0560278 0.0402632 0.046687 0.0620898 0.0405133 0.0667372 0.0662826 0.0715604 0.0591835 0.0557828 0.0646556 0.0868131 0.0942841 0.0763569 0.0948997 0.10269 0.0803608 0.086831
121 1 Mg 1.42858 21.3464 54.5665 1.2 1 0.0129378 0.02987 0.014033 0.0303104 0.0119978 0.0205168 0.0197355 0.0335909 0.0460523 0.0596978 0.0574295 0.054884 0.0563354 0.0699488 0.0590074 0.0879842 0.0712838 0.0894785 0.0755293 0.0836065
122 2 Si 1.45213 23.9425 56.3919 2.4 1 0.0138737 0.0223619 0.0199341 0.0240301 0.0311908 0.0344227 0.0413892 0.0383914 0.0520797 0.0550519 0.0534796 0.0672382 0.0692887 0.0569006 0.0822887 0.067554 0.0582135 0.0913362 0.0572941 0.0587178
123 3 O 1.4392 22.416 56.4894 -1.2 1 0.0331915 0.0126888 0.0196288 0.0205292 0.0215067 0.0263363 0.0224665 0.068799 0.0396745 0.0493056 0.0407243 0.0694713 0.0532198 0.0636389 0.0773072 0.0700074 0.0576231 0.0755419 0.0562498 0.0775762
124 3 O 1.54441 24.9963 52.7297 -1.2 1 0.0781598 0.0382822 0.030168 0.0269724 0.0189679 0.0411616 0.0489452 0.0555336 0.0538163 0.0442374 0.0447058 0.0511841 0.0557056 0.0645107 0.102638 0.0723551 0.0690589 0.0592824 0.0706496 0.0627846
125 3 O 0.162393 24.6147 55.7646 -1.2 1 0.00811579 0.0106932 0.0310468 0.022465 0.0174883 0.022356 0.0383265 0.0417945 0.0350326 0.0447067 0.0553312 0.0441514 0.054312 0.0555638 0.0836429 0.0682847 0.0755852 0.0556172 0.0690266 0.0731522
126 3 O 2.71347 24.6119 55.6945 -1.2 1 0.0213636 0.0141831 0.0255272 0.0163643 0.0248877 0.0169285 0.0467647 0.0475818 0.036889 0.0454079 0.0540943 0.0353983 0.0522357 0.0675164 0.0841053 0.0784231 0.0773731 0.0653548 0.0645271 0.0651549