ITEM: TIMESTEP
61300
ITEM: NUMBER OF ATOMS
10500
ITEM: BOX BOUNDS xy xz yz pp pp pp
0	8.9688	2.9896
0	118.725	0
0	252.977	0
ITEM: ATOMS id type element xu yu zu q Q_1 Q_2 Q_3 Q_4 Q_5 Q_6 Q_7 Q_8 Q_9 Q_10 Q_11 Q_12 Q_13 Q_14 Q_15 Q_16 Q_17 Q_18 Q_19 Q_20 Q_21
1 1 Mg -3.45796 7.03878 57.4684 1.2 1 0.0158295 0.0172294 0.018388 0.024995 0.0183564 0.0356765 0.0161915 0.0531145 0.0163464 0.0809408 0.0221649 0.0500014 0.0279473 0.0651666 0.0229982 0.101961 0.0356552 0.104467 0.0380273 0.0847785
2 1 Mg -1.82655 6.90154 50.0912 1.2 1 0.223563 0.0836764 0.0302121 0.0303285 0.0296772 0.0497114 0.0523875 0.0417651 0.0563136 0.0659074 0.0519588 0.0746618 0.069787 0.0587404 0.0939839 0.0661056 0.0862089 0.0956566 0.0706313 0.0784627
3 2 Si -0.257935 3.96038 48.0876 2.4 1 0.37159 0.0734634 0.0749874 0.0352489 0.061484 0.0530297 0.0734196 0.0771612 0.0583533 0.0778053 0.0565789 0.0686606 0.0618628 0.0836142 0.0952414 0.0984425 0.109484 0.092032 0.0701051 0.0714323
4 3 O -0.335812 5.46814 47.6264 -1.2 1 0.431799 0.0329749 0.0576329 0.0373625 0.0401989 0.0434892 0.0654648 0.0722456 0.0868139 0.0744933 0.0910067 0.0756449 0.0717826 0.0687116 0.0881448 0.120123 0.0920378 0.0807982 0.0747822 0.0770039
5 3 O -2.03793 3.43377 51.8941 -1.2 1 0.112184 0.0638715 0.0228974 0.0182703 0.0232929 0.0503362 0.0600269 0.0516101 0.0488559 0.0560205 0.0656842 0.0553652 0.0512423 0.0743789 0.0861589 0.0830775 0.0648491 0.0565807 0.0753023 0.0673101
6 3 O -1.54015 3.53929 48.9521 -1.2 1 0.313531 0.0742936 0.0278241 0.0485528 0.0329331 0.0468658 0.0693901 0.0520851 0.0545178 0.0588563 0.0768762 0.0670725 0.0656798 0.0686187 0.0704305 0.106237 0.0811109 0.0825855 0.0795165 0.0841875
7 1 Mg 1.82954 2.54582 47.1376 1.2 1 0.456188 0.02708 0.0865539 0.0594344 0.0494038 0.0865897 0.0683134 0.0626701 0.0712777 0.0852132 0.0677814 0.0790337 0.0847831 0.0880489 0.07133 0.0969842 0.0993491 0.0986866 0.103866 0.102881
8 3 O 1.22989 3.66364 48.7877 -1.2 1 0.320071 0.0735718 0.0244833 0.0447605 0.0337053 0.0652026 0.0776622 0.0333185 0.0842818 0.0806254 0.0537308 0.0804701 0.0855219 0.0675028 0.0651332 0.0893313 0.0923484 0.0902842 0.0968968 0.089941
9 1 Mg 1.03771 2.34403 54.613 1.2 1 0.022656 0.0200602 0.020221 0.0293733 0.0273339 0.029495 0.0226531 0.0325682 0.0377376 0.0604841 0.0563889 0.0521762 0.0584201 0.068422 0.0578719 0.0937795 0.0632068 0.0872989 0.0735995 0.0676327
10 2 Si 0.918169 4.98472 56.2728 2.4 1 0.00868235 0.0226954 0.0267911 0.015613 0.0298756 0.0369348 0.0415054 0.0460152 0.0580753 0.0511046 0.0494767 0.0542136 0.0564554 0.0595169 0.080082 0.0796637 0.0609902 0.0963484 0.0576741 0.0602554
11 3 O 0.827987 3.39617 56.4649 -1.2 1 0.0205062 0.0192325 0.0164398 0.0302697 0.0186232 0.022049 0.0214537 0.0672731 0.0377915 0.044539 0.0350241 0.0700665 0.0536332 0.0539826 0.0651933 0.0674192 0.0648052 0.0668064 0.068391 0.0724684
12 3 O 1.10813 6.07342 52.8172 -1.2 1 0.083221 0.0460894 0.0245519 0.0210572 0.0198185 0.0500363 0.0431404 0.0551733 0.0512492 0.0405942 0.056375 0.0544987 0.0684521 0.0687062 0.0855883 0.0777615 0.0588774 0.0678481 0.0690747 0.0712389
13 3 O -0.209627 5.70571 55.5277 -1.2 1 0.011835 0.0167954 0.0234207 0.0245001 0.0239696 0.0291273 0.0417889 0.0481618 0.0443566 0.0475857 0.0502615 0.0416192 0.0587036 0.0560536 0.0795569 0.0788058 0.0645179 0.0842145 0.0584905 0.0670455
14 3 O 2.27032 5.66916 55.6264 -1.2 1 0.0144357 0.0269458 0.0267522 0.0177982 0.0239701 0.0231694 0.0398901 0.0464226 0.0393889 0.053656 0.0543082 0.0372166 0.051299 0.0690678 0.0862466 0.0653534 0.0726207 0.0741107 0.0673564 0.0619516
15 1 Mg -0.459401 4.67631 52.2426 1.2 1 0.0870236 0.0694023 0.0304223 0.0423903 0.0296826 0.0287669 0.0426138 0.058701 0.0375358 0.0824493 0.041983 0.0644217 0.0503406 0.0761376 0.0440252 0.099443 0.0492312 0.0868575 0.0604274 0.0919058
16 1 Mg 2.79456 3.9971 49.9987 1.2 1 0.225826 0.0920639 0.0311843 0.0393721 0.0452405 0.0591743 0.0594296 0.0560347 0.0797329 0.065503 0.0589389 0.0579026 0.0635763 0.0725279 0.082947 0.0736485 0.0746463 0.0898224 0.0861268 0.0751866
17 2 Si 1.16169 6.59457 51.2556 2.4 1 0.139651 0.089254 0.03242 0.0310308 0.0465893 0.0484917 0.0473826 0.0459588 0.05934 0.0643538 0.064537 0.072461 0.0751118 0.0669334 0.0864187 0.0911131 0.0805074 0.0920424 0.0777008 0.0696617
18 3 O 1.28989 8.18905 51.2909 -1.2 1 0.140904 0.0836711 0.0271514 0.0395099 0.0367899 0.0463335 0.0392153 0.0745264 0.0491421 0.0702585 0.0469148 0.0898247 0.0671465 0.0642533 0.0792749 0.0710007 0.0723373 0.0674275 0.0723996 0.0744527
19 3 O 0.938427 5.6755 57.8062 -1.2 1 0.0131261 0.0159139 0.0258176 0.0176354 0.0119818 0.0344746 0.0350301 0.0429843 0.0538711 0.0462302 0.0438502 0.045607 0.0552468 0.0593607 0.10398 0.076104 0.0621201 0.0495821 0.0703317 0.058653
20 3 O -0.184847 6.06029 50.6845 -1.2 1 0.183965 0.0885989 0.0191962 0.0297132 0.0342559 0.0340823 0.0506416 0.060924 0.0488743 0.0600526 0.0668272 0.0773977 0.0628566 0.0567864 0.0851804 0.0707381 0.0791059 0.0783581 0.0644136 0.0774748
21 1 Mg -3.49704 4.67769 52.6661 1.2 1 0.0761463 0.0484998 0.0255971 0.0330027 0.014533 0.0405649 0.0346979 0.0583556 0.0524218 0.0673089 0.0485888 0.0487327 0.0483746 0.0437491 0.0606822 0.0931533 0.0842896 0.0758598 0.073134 0.0627583
22 3 O 2.48581 5.93312 50.6539 -1.2 1 0.193095 0.0951029 0.0293265 0.0157589 0.0355663 0.0467274 0.0596547 0.057171 0.0464591 0.0646831 0.045379 0.0660878 0.0590397 0.0551639 0.0977948 0.0699582 0.0788434 0.0682251 0.0786088 0.0729961
23 1 Mg -1.97497 4.84542 55.0925 1.2 1 0.020028 0.0223254 0.0253883 0.0245588 0.0176962 0.0183586 0.0291121 0.0345845 0.0381635 0.0489043 0.0622301 0.0553921 0.0564283 0.0660493 0.0609847 0.0853061 0.0778208 0.0875855 0.0726666 0.0812011
24 2 Si -1.93534 2.54202 53.4048 2.4 1 0.0329016 0.0400329 0.0218301 0.030005 0.0244384 0.0231926 0.0485187 0.0433623 0.0611637 0.0686172 0.0572373 0.0671347 0.0730822 0.047819 0.0616187 0.0643834 0.0754869 0.0834101 0.0875795 0.0676485
25 3 O -1.91119 0.939614 53.2542 -1.2 1 0.0577333 0.0359553 0.0190754 0.0282394 0.0184667 0.035909 0.0287339 0.0558783 0.0557537 0.0682477 0.0471286 0.0602489 0.0562449 0.0699511 0.0710925 0.0646035 0.0587622 0.0654683 0.0726769 0.0671196
26 3 O -0.0467762 2.97103 46.8385 -1.2 1 0.497727 0.0375248 0.0879439 0.0288662 0.0792963 0.0668408 0.0810791 0.0727391 0.0727705 0.0783068 0.0804772 0.0750331 0.0972145 0.0889436 0.0885436 0.0883869 0.0987333 0.0959657 0.103966 0.110823
27 3 O -3.20278 3.08328 54.1016 -1.2 1 0.0286955 0.0242666 0.0274932 0.0233175 0.0181799 0.0336256 0.0358331 0.0340862 0.052815 0.0609435 0.0576781 0.040167 0.0589032 0.0647625 0.0730145 0.0628452 0.0684395 0.0744801 0.0690133 0.0630705
28 3 O -0.724816 3.21393 54.0555 -1.2 1 0.0378446 0.0201789 0.0380102 0.0132247 0.0156524 0.0314341 0.0379651 0.0432941 0.0452253 0.0571292 0.0549766 0.0431038 0.0520335 0.0710709 0.0687263 0.0686422 0.0795121 0.0792839 0.0645334 0.0608173
29 1 Mg -3.42445 11.8457 57.6774 1.2 1 0.00985915 0.0219338 0.0169254 0.0273249 0.0203251 0.0372665 0.0228107 0.0504655 0.0444627 0.0728931 0.0342624 0.0502574 0.0373523 0.0579104 0.0484038 0.0853331 0.0674231 0.10312 0.0584697 0.0865504
30 1 Mg -1.75014 11.5838 49.8362 1.2 1 0.225796 0.0863234 0.0283557 0.037932 0.0285777 0.0547438 0.0498716 0.0556107 0.0466822 0.0607594 0.0672983 0.0644348 0.0725041 0.0696385 0.108003 0.0883049 0.0667286 0.0959854 0.0863315 0.0818997
31 2 Si -1.18003 9.02138 47.9309 2.4 1 0.376772 0.058342 0.057208 0.0575388 0.0370508 0.059065 0.0727107 0.0745781 0.0677387 0.0655556 0.0611217 0.0677183 0.0670724 0.078623 0.0999728 0.0634615 0.100181 0.0918476 0.103594 0.0857911
32 3 O -1.23224 10.5991 47.9811 -1.2 1 0.379995 0.0575885 0.0535683 0.0575868 0.0511517 0.069914 0.0675432 0.077153 0.0593032 0.0883091 0.0710573 0.0632986 0.0719747 0.0796007 0.0828459 0.0691925 0.0881193 0.0807243 0.0692545 0.073654
33 3 O -1.79016 8.01447 51.8693 -1.2 1 0.110731 0.0629497 0.0327614 0.0332373 0.0300862 0.0484051 0.0588756 0.0558033 0.0534614 0.0530326 0.0510404 0.0542548 0.0635712 0.0883954 0.0920686 0.0775175 0.0762221 0.0508445 0.0717776 0.069428
34 3 O -2.30986 8.37215 48.8528 -1.2 1 0.316549 0.0825858 0.0639261 0.0267341 0.0508987 0.0601194 0.0648622 0.0646545 0.0562733 0.0649824 0.0791987 0.0656911 0.0562445 0.063531 0.077699 0.0901715 0.0994487 0.0826382 0.0770966 0.093098
35 1 Mg 0.154883 7.08234 46.8007 1.2 1 0.49745 0.036841 0.0752442 0.0396382 0.0654369 0.0749053 0.0580921 0.0679681 0.0717714 0.0831218 0.0887753 0.0763117 0.0792114 0.0792461 0.069739 0.0921973 0.0918731 0.106467 0.112207 0.0999124
36 3 O 0.325447 8.50934 48.3809 -1.2 1 0.347363 0.0786105 0.0596622 0.0399721 0.039617 0.0579603 0.0366123 0.0583975 0.0579144 0.0657882 0.0760869 0.0619723 0.0760862 0.0903604 0.0917703 0.0714262 0.0938441 0.103475 0.086059 0.0879439
37 1 Mg 1.05006 7.25222 54.6391 1.2 1 0.0182585 0.0357427 0.0236635 0.0306741 0.019309 0.0311404 0.0232444 0.0352507 0.0436384 0.0514727 0.0691553 0.0516583 0.0509175 0.0689327 0.0625768 0.0979916 0.062171 0.0747282 0.083049 0.0754361
38 2 Si 1.38933 9.61935 56.453 2.4 1 0.0229095 0.0142104 0.0209674 0.0193697 0.0238898 0.027969 0.0384341 0.0391939 0.0486301 0.0534904 0.0592905 0.0591797 0.0621455 0.0548491 0.0830182 0.0857864 0.0742296 0.0813074 0.0607023 0.0594925
39 3 O 1.12755 8.09189 56.5775 -1.2 1 0.0309397 0.0141562 0.0156355 0.0125538 0.0222032 0.0255841 0.0252566 0.0691049 0.039708 0.0502271 0.0392374 0.0633018 0.0559504 0.0736038 0.0778529 0.0651947 0.063277 0.0721214 0.048446 0.0755771
40 3 O 1.28624 10.7248 52.7351 -1.2 1 0.0843037 0.0386158 0.0286715 0.0255741 0.0228235 0.0460677 0.0506385 0.0494498 0.0445954 0.0436473 0.0536627 0.0423766 0.0626809 0.0669176 0.0953787 0.0801593 0.0650495 0.0534902 0.0706852 0.0608291
41 3 O 0.163953 10.3177 55.7063 -1.2 1 0.0235494 0.0122816 0.023413 0.0180068 0.0266372 0.0253476 0.0390045 0.0424676 0.0372372 0.0470617 0.0499638 0.0429945 0.0547873 0.0613003 0.0797708 0.0734728 0.0780158 0.0587066 0.0623597 0.0638662
42 3 O 2.86501 10.5134 55.8299 -1.2 1 0.0209538 0.0189881 0.0178137 0.021759 0.0228404 0.0232493 0.0403829 0.0431798 0.0554777 0.0519008 0.0597346 0.0382452 0.0552751 0.0434997 0.0908747 0.0751976 0.0606055 0.065269 0.0682961 0.0743783
43 1 Mg -0.262694 9.34741 52.2523 1.2 1 0.117691 0.0675616 0.0204655 0.0399138 0.0281886 0.0431139 0.0475848 0.0644995 0.0301417 0.0830462 0.0312497 0.0534355 0.0405035 0.0741195 0.0415746 0.105882 0.057448 0.0906292 0.0524104 0.0945858
44 1 Mg 1.87648 9.01537 49.4629 1.2 1 0.284735 0.0838397 0.0427451 0.0410963 0.0312243 0.0466424 0.066629 0.0450755 0.0769606 0.0626921 0.0809149 0.0538819 0.0801065 0.0588058 0.0829369 0.0922579 0.087431 0.0983278 0.0849435 0.0866082
45 2 Si 1.21415 11.3799 51.2378 2.4 1 0.13697 0.0861225 0.0396736 0.0315126 0.0386265 0.0525307 0.056276 0.0394399 0.0542862 0.0641953 0.0782453 0.0682345 0.0782676 0.069291 0.0926004 0.0859629 0.0764023 0.0811302 0.0772056 0.0615385
46 3 O 1.31634 12.9512 51.3023 -1.2 1 0.120486 0.0968907 0.0228013 0.0314735 0.0379227 0.0436987 0.044029 0.0717278 0.062374 0.0681467 0.0518371 0.083997 0.0682895 0.0656903 0.0768889 0.0626297 0.0738932 0.0776583 0.0708311 0.0717701
47 3 O 1.37117 10.2657 57.8879 -1.2 1 0.00798802 0.0127056 0.0198858 0.0279059 0.0230019 0.0369893 0.0363286 0.0437883 0.0565535 0.0371031 0.0452565 0.0407944 0.0627491 0.0675736 0.0965445 0.0743832 0.0537968 0.0569878 0.0689383 0.0629944
48 3 O -0.115718 10.7564 50.681 -1.2 1 0.188986 0.0794002 0.0247807 0.022539 0.0445164 0.0350577 0.0516649 0.069184 0.0467806 0.0545359 0.0651228 0.0496465 0.0593868 0.0734874 0.0967248 0.0724137 0.0705731 0.0791729 0.0757355 0.0817307
49 1 Mg -3.26386 9.35564 52.3622 1.2 1 0.0832468 0.0523935 0.028675 0.0288392 0.0180009 0.0513796 0.0424767 0.0524305 0.0339799 0.0880133 0.0314162 0.0481192 0.0350097 0.0658259 0.04044 0.111017 0.0512055 0.104331 0.0490781 0.0903917
50 3 O 2.45216 10.7265 50.4558 -1.2 1 0.200179 0.0895454 0.0226572 0.0132715 0.0425248 0.0530183 0.0546107 0.0459534 0.0545085 0.0684473 0.0636874 0.0726322 0.0557646 0.0643878 0.0942962 0.0783596 0.0753246 0.0780374 0.0612361 0.0800984
51 1 Mg -1.58535 9.52336 55.0071 1.2 1 0.0234136 0.0161891 0.0234953 0.0266396 0.0117787 0.0229434 0.0235678 0.0293617 0.0469421 0.0504963 0.0674724 0.0458543 0.0644932 0.0648052 0.0708271 0.0854351 0.0648339 0.0865687 0.0749697 0.0684773
52 2 Si -1.76987 7.43077 53.3876 2.4 1 0.0447782 0.0405256 0.0279317 0.0289149 0.0330712 0.0388139 0.0391146 0.056041 0.068633 0.0582465 0.0573589 0.0547823 0.0790793 0.0531112 0.0705164 0.0649738 0.0701061 0.0821878 0.0668732 0.0569149
53 3 O -1.95321 5.89165 53.3731 -1.2 1 0.0584666 0.0357248 0.0266679 0.0159738 0.0279862 0.0286162 0.0367168 0.0728791 0.0535007 0.0639362 0.0377017 0.064046 0.0609458 0.0725468 0.066173 0.0621175 0.0593859 0.0607584 0.066758 0.0646898
54 3 O -1.19417 8.46968 46.4488 -1.2 1 0.525122 0.0669839 0.0665777 0.0521865 0.0677108 0.0553391 0.0769738 0.0545005 0.0767953 0.0717268 0.0572932 0.051488 0.0696618 0.0976712 0.129657 0.112778 0.0968774 0.0955084 0.0837594 0.0827071
55 3 O -3.06207 8.07673 53.9777 -1.2 1 0.0310374 0.028758 0.0245164 0.0167521 0.0223304 0.026341 0.0486455 0.0454607 0.0445669 0.0510898 0.0513612 0.0439141 0.0583774 0.0616528 0.0881454 0.0695509 0.0741558 0.0663949 0.0733798 0.0651121
56 3 O -0.591354 8.08467 54.2437 -1.2 1 0.0358734 0.023077 0.0177588 0.0218054 0.033801 0.0274942 0.0251665 0.0485271 0.0431145 0.0504387 0.0572507 0.0466122 0.0556528 0.0613833 0.0806013 0.0691665 0.0659957 0.0761016 0.0653963 0.0750924
57 1 Mg -3.16577 16.5808 57.2264 1.2 1 0.0168155 0.0161421 0.0105786 0.0330544 0.0124714 0.0408043 0.0169411 0.0598931 0.0258576 0.0802156 0.0233262 0.0550774 0.0255686 0.0619032 0.033955 0.104292 0.0405605 0.107141 0.0477849 0.094458
58 1 Mg -1.6714 16.3544 49.8412 1.2 1 0.23212 0.0818423 0.0261466 0.04059 0.0301032 0.0510932 0.0499479 0.0561131 0.0490757 0.0593483 0.0586111 0.0655178 0.0764418 0.0762347 0.104405 0.0831342 0.0718294 0.097417 0.0848807 0.0855576
59 2 Si -1.18567 13.8526 47.9314 2.4 1 0.370153 0.0734045 0.0788001 0.0669679 0.0303314 0.0656238 0.051148 0.080409 0.0641949 0.0678058 0.0581948 0.0764297 0.0584156 0.0767536 0.0992952 0.0741405 0.104365 0.0987058 0.089422 0.0910727
60 3 O -1.09664 15.4205 47.9915 -1.2 1 0.365579 0.0715188 0.050737 0.0612448 0.0450078 0.0927482 0.0624231 0.0823486 0.0559387 0.0881946 0.0563148 0.0745553 0.0594062 0.0791204 0.0814509 0.0714328 0.0897983 0.075943 0.075484 0.0719524
61 3 O -1.73493 12.7491 51.7772 -1.2 1 0.116878 0.0572907 0.0279743 0.0342207 0.0286517 0.0493207 0.0662983 0.049472 0.068142 0.0508445 0.0642501 0.0531816 0.0501932 0.0834662 0.0988355 0.0813374 0.0803115 0.049277 0.0705547 0.0729117
62 3 O -2.36115 13.2717 48.8238 -1.2 1 0.308579 0.0902355 0.0604138 0.0282304 0.0564562 0.0469644 0.0580096 0.0688264 0.0594345 0.0691634 0.0766853 0.0630579 0.0578927 0.0569978 0.0833341 0.0864763 0.0875635 0.0765382 0.0842871 0.0903609
63 1 Mg -0.159928 11.7639 46.8533 1.2 1 0.482282 0.0240836 0.0772192 0.0328749 0.0533353 0.0977724 0.0712579 0.0875112 0.0821743 0.0847494 0.0847594 0.0689252 0.0719408 0.0916474 0.0775327 0.0863093 0.0964428 0.0974266 0.100667 0.107077
64 3 O 0.2623 13.1866 48.413 -1.2 1 0.346879 0.0736622 0.0525135 0.0367395 0.0464653 0.0580715 0.0370592 0.0646843 0.0679292 0.0710045 0.0611766 0.0592214 0.0653961 0.0867599 0.0940565 0.0780209 0.0940317 0.0992633 0.0815291 0.0855959
65 1 Mg 1.33712 11.7432 54.5594 1.2 1 0.00930459 0.0241551 0.0152079 0.030775 0.0174992 0.0230914 0.0252794 0.0287537 0.0431236 0.0574476 0.0704196 0.0527161 0.0620021 0.0601719 0.068555 0.0852701 0.0664818 0.0920476 0.0705969 0.0758787
66 2 Si 1.37025 14.3916 56.3626 2.4 1 0.0126794 0.0167715 0.0132104 0.0206783 0.0293362 0.0291984 0.0383554 0.038937 0.0523825 0.055354 0.0546493 0.0623213 0.0630518 0.0590493 0.0693712 0.0762147 0.0653986 0.0889533 0.0601027 0.05911
67 3 O 1.19139 12.9155 56.6162 -1.2 1 0.0162746 0.0171686 0.0243098 0.0257855 0.0253959 0.0278764 0.0301637 0.0655164 0.0450622 0.0423432 0.0479243 0.0664423 0.055602 0.0645485 0.0847145 0.0664715 0.0682706 0.0788822 0.058616 0.077647
68 3 O 1.36565 15.4813 52.729 -1.2 1 0.0742204 0.0360989 0.0329663 0.0233866 0.0211195 0.0450209 0.0483125 0.0581877 0.0568999 0.0470072 0.0475352 0.0496716 0.0518271 0.0693357 0.100899 0.069452 0.0710129 0.0585081 0.0714049 0.058396
69 3 O 0.0756187 15.183 55.7764 -1.2 1 0.0125736 0.0129284 0.0321439 0.0219264 0.0185178 0.0223776 0.0401191 0.0385548 0.0328455 0.0473557 0.0496294 0.0480219 0.0510817 0.0628839 0.0933095 0.066918 0.0739088 0.0615025 0.0690048 0.0707988
70 3 O 2.53182 15.0752 55.7009 -1.2 1 0.0239172 0.0160129 0.0227938 0.0165942 0.0214342 0.018152 0.0483112 0.0446546 0.0381503 0.047386 0.0532827 0.0320386 0.048984 0.0709189 0.0702811 0.0743289 0.0759154 0.0600484 0.0638172 0.0652147
71 1 Mg -0.206989 14.1049 52.2121 1.2 1 0.100567 0.0678388 0.0273506 0.0461704 0.0243366 0.0449614 0.0432584 0.0664635 0.0292911 0.0835969 0.0269018 0.0530943 0.0336134 0.0755729 0.033366 0.107158 0.0453586 0.108175 0.0432457 0.10086
72 1 Mg 1.82591 13.8102 49.4556 1.2 1 0.266321 0.104256 0.0367776 0.0424506 0.0342656 0.0387826 0.0666719 0.0441288 0.0679028 0.0730278 0.0744028 0.0555733 0.0716667 0.0688171 0.0808378 0.0917647 0.0784577 0.0978543 0.087137 0.0805503
73 2 Si 1.29285 16.1518 51.2434 2.4 1 0.125308 0.0915013 0.0388432 0.0398057 0.0400248 0.0484841 0.0562515 0.0467378 0.0506894 0.0646448 0.0700163 0.0734454 0.0690256 0.0673916 0.0947093 0.083782 0.0780241 0.084238 0.0726171 0.0718753
74 3 O 1.39496 17.7199 51.3047 -1.2 1 0.139186 0.0752153 0.0297989 0.0321666 0.0385327 0.0427306 0.0415365 0.0653483 0.058332 0.0694574 0.0406019 0.076962 0.0632325 0.0616364 0.0793807 0.0720397 0.0835028 0.0794751 0.0687984 0.071784
75 3 O 1.43709 15.1297 57.7983 -1.2 1 0.0121749 0.0246267 0.0250203 0.0198511 0.0119487 0.036239 0.0312442 0.0440845 0.0621133 0.0393405 0.0522184 0.0427923 0.0548256 0.0672986 0.101548 0.0703342 0.0616057 0.0477185 0.0768234 0.0605492
76 3 O -0.0269106 15.5178 50.6688 -1.2 1 0.180577 0.0876946 0.0216872 0.023631 0.0461047 0.0415816 0.058953 0.060527 0.055214 0.0555426 0.0574117 0.049044 0.0599737 0.0789587 0.0956664 0.0773824 0.0765906 0.0798462 0.0745943 0.0870653
77 1 Mg -3.18391 14.1057 52.3125 1.2 1 0.0729913 0.0599812 0.0298383 0.0320331 0.0175146 0.0552574 0.037684 0.0601604 0.0415078 0.0848633 0.0333771 0.0498172 0.0244716 0.0765741 0.0361834 0.102433 0.0500737 0.101335 0.0524012 0.095564
78 3 O 2.52432 15.503 50.4579 -1.2 1 0.197328 0.0916283 0.0239729 0.0166192 0.0397135 0.0535087 0.0594547 0.0478015 0.053559 0.0639174 0.0643783 0.0658537 0.0528147 0.0677768 0.0991451 0.0721484 0.0776685 0.0709095 0.0685153 0.0898754
79 1 Mg -1.65839 13.9849 55.1457 1.2 1 0.0148759 0.0179754 0.0132517 0.0253705 0.0125128 0.0287169 0.0266712 0.0373583 0.0493361 0.0588178 0.0516284 0.0580817 0.0645075 0.0612616 0.0655171 0.0611776 0.0824819 0.10485 0.0600989 0.0835088
80 2 Si -1.71698 12.0449 53.2527 2.4 1 0.0542535 0.0407807 0.0205597 0.0274069 0.0297745 0.0415462 0.045189 0.0552225 0.0631488 0.0635609 0.06167 0.0691158 0.0772653 0.0465086 0.067967 0.0665247 0.070918 0.086115 0.0656463 0.062069
81 3 O -1.7754 10.3754 53.1299 -1.2 1 0.059958 0.0524972 0.015544 0.0225256 0.0265468 0.0454192 0.0308387 0.0723179 0.0472061 0.0619149 0.0513555 0.0587745 0.0704078 0.0739774 0.0772105 0.0651729 0.0555688 0.0775382 0.0551299 0.0761462
82 3 O -1.21337 13.3381 46.4311 -1.2 1 0.520102 0.0681324 0.0705051 0.0403184 0.0555467 0.0591799 0.0595081 0.0699785 0.078407 0.0643532 0.044426 0.0711076 0.0688929 0.0879231 0.119658 0.113358 0.106459 0.100474 0.0598261 0.0914953
83 3 O -3.07314 12.6691 53.7876 -1.2 1 0.0300826 0.0285802 0.0370975 0.0185909 0.0294347 0.0268988 0.0571663 0.0542672 0.0427051 0.0592357 0.0480011 0.0474995 0.0525326 0.0723281 0.0740381 0.0670528 0.0768545 0.0559704 0.0657484 0.0712363
84 3 O -0.43593 12.6005 53.9554 -1.2 1 0.0438438 0.028237 0.0331557 0.0280794 0.03448 0.0266629 0.0442605 0.0409784 0.0477976 0.0646545 0.0544515 0.0449278 0.0568887 0.0726379 0.0745991 0.0635672 0.0813112 0.0613576 0.0682233 0.077124
85 1 Mg -3.01929 21.0621 57.7507 1.2 1 0.0189285 0.0190533 0.0215708 0.0235288 0.0202081 0.0357157 0.0232662 0.0446395 0.0434336 0.0668784 0.0377967 0.0398908 0.0324185 0.04691 0.0528576 0.0916108 0.0773581 0.0865651 0.0764697 0.0665032
86 1 Mg -1.5831 21.1217 49.8405 1.2 1 0.227659 0.0860981 0.0290276 0.0396592 0.032403 0.050164 0.0548855 0.0559952 0.0507914 0.0647041 0.0644444 0.0689309 0.0743525 0.0706994 0.0997668 0.0812281 0.0735266 0.0945285 0.087053 0.0864378
87 2 Si -1.09384 18.6291 47.9287 2.4 1 0.372409 0.0712055 0.0796906 0.0667594 0.0328507 0.0676082 0.0474681 0.0785156 0.0614386 0.0709817 0.0610893 0.0765566 0.0586454 0.072802 0.0995151 0.0757882 0.107027 0.098275 0.0931344 0.0897006
88 3 O -1.02071 20.1985 47.9911 -1.2 1 0.365906 0.0694371 0.047941 0.0635489 0.0450772 0.0911878 0.0633054 0.0832494 0.0546287 0.0862277 0.0554187 0.0734844 0.0624339 0.0843907 0.0838128 0.0765949 0.0945682 0.0760224 0.0744797 0.0708246
89 3 O -1.65002 17.5002 51.771 -1.2 1 0.110404 0.059823 0.0310081 0.0270716 0.0335196 0.0551326 0.0605009 0.0511519 0.0640494 0.0515468 0.0545876 0.0489557 0.0557253 0.0858871 0.0988083 0.0758061 0.0796087 0.0452778 0.0780467 0.0757059
90 3 O -2.26174 18.0434 48.8281 -1.2 1 0.300253 0.100633 0.0648177 0.0257895 0.0633804 0.0427599 0.058148 0.0743079 0.0638522 0.0723478 0.0749827 0.0582545 0.0511057 0.0591956 0.0767133 0.0880814 0.0885457 0.0804054 0.0867991 0.088513
91 1 Mg -0.0440435 16.5651 46.8269 1.2 1 0.481255 0.0216948 0.080728 0.0322252 0.0666261 0.0874778 0.0792683 0.0852833 0.0682266 0.0833318 0.0848194 0.0624617 0.0639244 0.0778991 0.0764476 0.0935803 0.0932963 0.0958928 0.0989604 0.104798
92 3 O 0.37001 17.9877 48.3925 -1.2 1 0.343678 0.0819446 0.0606999 0.0407771 0.0460535 0.0598587 0.0437693 0.0631904 0.0624982 0.0734631 0.0622047 0.0571418 0.0696612 0.0874426 0.0940047 0.0777814 0.0955318 0.104358 0.0821334 0.0876826
93 1 Mg 1.20766 16.5252 54.6439 1.2 1 0.00880391 0.0191585 0.0133899 0.0329272 0.0123255 0.0203303 0.0273486 0.0330853 0.0461007 0.0646726 0.0564051 0.0503642 0.055477 0.0711809 0.0633805 0.089679 0.0686376 0.0905052 0.0683468 0.0786411
94 2 Si 1.28755 19.2459 56.4648 2.4 1 0.0287137 0.0131631 0.02346 0.026179 0.0299577 0.0304622 0.0450631 0.039264 0.0524524 0.0545376 0.0497981 0.0559494 0.0603687 0.0643461 0.0841178 0.0808351 0.0563431 0.0896847 0.0534654 0.0576217
95 3 O 1.2379 17.7419 56.441 -1.2 1 0.0230872 0.0117591 0.0224562 0.0195744 0.0266852 0.0281692 0.0279944 0.0681132 0.0379729 0.0515664 0.0394599 0.0682255 0.0564394 0.0660279 0.0642991 0.0680279 0.0617591 0.0690419 0.0586071 0.0763083
96 3 O 1.45147 20.239 52.7294 -1.2 1 0.0694191 0.0453813 0.024745 0.0196908 0.0223395 0.0456801 0.055851 0.0520013 0.0505726 0.0461927 0.0503154 0.0529379 0.0581971 0.0631673 0.104296 0.0702686 0.0762956 0.0633912 0.0732129 0.0681394
97 3 O -0.0546033 19.976 55.7804 -1.2 1 0.0138975 0.0216533 0.0249606 0.0181578 0.0169504 0.0188426 0.0383068 0.0407807 0.0449772 0.0351652 0.0549344 0.0342785 0.0502019 0.0479759 0.0868428 0.0639708 0.0752582 0.0648993 0.0597195 0.0820056
98 3 O 2.50177 19.9014 55.6578 -1.2 1 0.02295 0.0169179 0.0231006 0.0186948 0.030734 0.0260809 0.0402173 0.0423452 0.0402785 0.0391209 0.0487104 0.0370074 0.0577732 0.0671802 0.0843556 0.0687526 0.0865014 0.0738532 0.0665484 0.0594426
99 1 Mg -0.126194 18.8651 52.2079 1.2 1 0.100453 0.0659945 0.0291097 0.0457967 0.0314104 0.0461994 0.0342301 0.0734438 0.0260906 0.0886169 0.0255774 0.0547289 0.0337607 0.0760077 0.0383063 0.111074 0.0459038 0.103876 0.0364402 0.105805
100 1 Mg 1.92402 18.5815 49.4545 1.2 1 0.265675 0.104684 0.0398318 0.0405102 0.0306444 0.0327711 0.0670393 0.0477205 0.0713919 0.0776745 0.0841311 0.057237 0.0714098 0.0710649 0.0834441 0.0925424 0.0791636 0.101005 0.0884478 0.0855355
101 2 Si 1.38106 20.9117 51.2443 2.4 1 0.129024 0.088255 0.0356193 0.0432181 0.0395555 0.0446677 0.0596867 0.046183 0.0522671 0.0708253 0.0696759 0.0713547 0.0741184 0.0713936 0.0890494 0.0826829 0.0720784 0.0817815 0.0742442 0.0684461
102 3 O 1.48527 22.4795 51.3054 -1.2 1 0.147456 0.0770376 0.0205759 0.0268555 0.0329764 0.0381849 0.0417779 0.0668852 0.0502588 0.0662289 0.044611 0.0775063 0.0684847 0.0697803 0.0748717 0.0680027 0.0772306 0.0781135 0.067469 0.070185
103 3 O 1.42749 19.9433 57.9778 -1.2 1 0.00864296 0.0184622 0.0211238 0.0125287 0.0207631 0.0342167 0.0272411 0.0433959 0.058088 0.0453969 0.0332575 0.047042 0.0490291 0.0674678 0.103382 0.0597924 0.0632906 0.0609717 0.0589882 0.0706755
104 3 O 0.0615419 20.2804 50.6669 -1.2 1 0.180706 0.0887051 0.0213592 0.0195028 0.047794 0.0434787 0.0568809 0.0647858 0.0582318 0.0583118 0.0625677 0.0482586 0.0622641 0.078763 0.0888021 0.0797141 0.0780764 0.0811004 0.0714777 0.0849901
105 1 Mg -3.09665 18.8643 52.3122 1.2 1 0.0708574 0.0599985 0.0319975 0.0363087 0.0149369 0.0568243 0.0307393 0.0643765 0.0328479 0.0808165 0.0300099 0.0491645 0.0281066 0.0756079 0.0398549 0.11279 0.0442992 0.104654 0.0391579 0.0866737
106 3 O 2.61548 20.2646 50.4626 -1.2 1 0.198995 0.0899265 0.0297557 0.0220523 0.0324854 0.0592967 0.0599967 0.0473493 0.0541026 0.0649765 0.0646397 0.0686562 0.0546692 0.0611608 0.0944837 0.0698211 0.0765376 0.0707361 0.0652419 0.0891181
107 1 Mg -1.66401 19.3952 54.8949 1.2 1 0.0242353 0.00873385 0.0346937 0.029444 0.0218578 0.0271448 0.0265843 0.0415305 0.0578926 0.041476 0.0807002 0.063114 0.0468326 0.0648848 0.0773043 0.0777617 0.074425 0.0896008 0.0752093 0.0672228
108 2 Si -1.70319 16.7278 53.2108 2.4 1 0.0527028 0.0414154 0.0229175 0.0316154 0.0382508 0.0400384 0.0527189 0.0562044 0.0471932 0.0694444 0.0579066 0.0679305 0.075619 0.0512155 0.0731774 0.0652227 0.07405 0.0909652 0.0668163 0.0606223
109 3 O -1.7011 15.1882 53.2233 -1.2 1 0.0693248 0.0321085 0.0224175 0.0217585 0.0359122 0.0371931 0.0235238 0.0753889 0.044338 0.064097 0.0440332 0.0641765 0.0557497 0.0721767 0.0698592 0.0620732 0.0561931 0.0624884 0.074547 0.0742062
110 3 O -1.12868 18.1227 46.4249 -1.2 1 0.521997 0.0666771 0.0732005 0.0518579 0.0571847 0.0657487 0.0620822 0.0791103 0.0788109 0.0613008 0.0444127 0.0678654 0.0676654 0.0873811 0.116043 0.114476 0.107261 0.101154 0.062554 0.0923545
111 3 O -2.94575 17.5238 53.9215 -1.2 1 0.0346412 0.0216491 0.0319516 0.0240075 0.0199384 0.0266258 0.0507017 0.0487586 0.0413126 0.0559668 0.0487732 0.0421254 0.050848 0.0657115 0.0783917 0.0647591 0.068041 0.0643995 0.0703523 0.0759198
112 3 O -0.363042 17.4156 53.8401 -1.2 1 0.0483748 0.0215219 0.0330027 0.0215623 0.027147 0.0192369 0.0411376 0.0485639 0.0502074 0.0587745 0.048293 0.0444017 0.0512441 0.0733828 0.0811507 0.0672913 0.0782882 0.0699885 0.0754588 0.0715186
113 1 Mg -3.00958 26.0731 57.1919 1.2 1 0.0138915 0.0183846 0.0145928 0.0328624 0.0129279 0.0394189 0.0162574 0.0565794 0.0255127 0.0789235 0.0201843 0.0460419 0.0148514 0.0675045 0.0306081 0.100963 0.0374196 0.109604 0.0446133 0.087646
114 1 Mg -1.48778 25.88 49.8402 1.2 1 0.229018 0.0837451 0.0212044 0.0417191 0.0311191 0.0501854 0.0543306 0.0530047 0.0501307 0.0583979 0.0614929 0.0661355 0.0740349 0.075078 0.10112 0.0780421 0.0737681 0.0997702 0.0849866 0.0828211
115 2 Si -1.00491 23.3922 47.9274 2.4 1 0.369392 0.0705295 0.0665652 0.0762905 0.0289887 0.072506 0.0462411 0.0880636 0.0668829 0.0728626 0.0544184 0.0768406 0.0596401 0.0758386 0.0961882 0.0746266 0.104071 0.0974907 0.0890652 0.094052
116 3 O -0.927602 24.9615 47.9909 -1.2 1 0.361703 0.0750452 0.050457 0.0655064 0.0450446 0.0899085 0.0653382 0.0849135 0.0584563 0.0902692 0.0530855 0.0703217 0.060242 0.0821992 0.0831613 0.0743009 0.0918028 0.0755332 0.0782136 0.0751943
117 3 O -1.55795 22.2588 51.7696 -1.2 1 0.11475 0.0564241 0.0336591 0.0278802 0.0344242 0.0516768 0.0611138 0.0504465 0.0672475 0.0500262 0.0602882 0.0507232 0.0503937 0.0815233 0.0948365 0.0764138 0.0823783 0.0478157 0.0772561 0.0729799
118 3 O -2.17411 22.8111 48.8277 -1.2 1 0.306932 0.0888382 0.0525173 0.0339364 0.0566622 0.0486266 0.0553817 0.0729442 0.0628799 0.0711439 0.0715341 0.0602682 0.0564945 0.0587796 0.0790992 0.0860899 0.0877894 0.0792089 0.0838603 0.0880388
119 1 Mg 0.0423997 21.3296 46.8225 1.2 1 0.476618 0.0223907 0.0899504 0.0267513 0.0623693 0.0885085 0.0797522 0.0875777 0.0731029 0.0852652 0.0839155 0.0614003 0.0651529 0.0787707 0.0753304 0.0917257 0.0928108 0.0979675 0.103087 0.108738
120 3 O 0.458537 22.7495 48.3911 -1.2 1 0.34307 0.0800129 0.0525784 0.0391276 0.0462264 0.0651084 0.040788 0.066407 0.0641172 0.0675902 0.0599665 0.0590164 0.0633427 0.0855373 0.0948485 0.077238 0.0950403 0.102899 0.0842485 0.0884245
121 1 Mg 1.40515 21.3176 54.7705 1.2 1 0.0103975 0.0241385 0.0144202 0.0337778 0.0148097 0.0151906 0.0283334 0.0279747 0.0479809 0.0633681 0.0563586 0.059881 0.0528894 0.0661208 0.0518881 0.100442 0.0655634 0.101719 0.057438 0.095095
122 2 Si 1.5339 23.9293 56.3338 2.4 1 0.0158272 0.0171196 0.0299869 0.0260247 0.0281008 0.0285661 0.041466 0.0394252 0.0464162 0.0590247 0.049344 0.0548417 0.0687611 0.0520774 0.0774755 0.0702624 0.0730925 0.0947143 0.0560002 0.0578104
123 3 O 1.51863 22.362 56.4346 -1.2 1 0.0234308 0.0119456 0.0273563 0.025486 0.0200564 0.0293293 0.0209204 0.066462 0.0435934 0.0586112 0.0409335 0.0629058 0.0529702 0.0607882 0.0727958 0.065043 0.0531564 0.0684583 0.056515 0.076925
124 3 O 1.54441 24.9963 52.7297 -1.2 1 0.0681532 0.0485868 0.0253333 0.0228893 0.0233848 0.0403262 0.0523894 0.0572847 0.0537926 0.0460151 0.0467607 0.0520398 0.0585913 0.067417 0.0982485 0.0695382 0.0636459 0.0623309 0.0693636 0.0612259
125 3 O 0.151517 24.6785 55.7204 -1.2 1 0.0127877 0.0187978 0.0256102 0.0242149 0.0164551 0.0210192 0.0403547 0.0395898 0.0396155 0.0439867 0.0496794 0.0409908 0.0553782 0.0583881 0.0913412 0.0725227 0.0744702 0.0582013 0.0649647 0.0802325
126 3 O 2.62247 24.7477 55.6308 -1.2 1 0.0223462 0.0181597 0.0285783 0.0215413 0.0217941 0.0187133 0.0469484 0.0449419 0.0373273 0.0470065 0.0521253 0.0342777 0.0487485 0.0597473 0.0823345 0.0718663 0.0690128 0.0651992 0.0616566 0.0629509