ITEM: TIMESTEP
51200
ITEM: NUMBER OF ATOMS
10500
ITEM: BOX BOUNDS xy xz yz pp pp pp
0	8.9688	2.9896
0	118.725	0
0	252.977	0
ITEM: ATOMS id type element xu yu zu q Q_1 Q_2 Q_3 Q_4 Q_5 Q_6 Q_7 Q_8 Q_9 Q_10 Q_11 Q_12 Q_13 Q_14 Q_15 Q_16 Q_17 Q_18 Q_19 Q_20 Q_21
1 1 Mg -3.46609 7.16302 57.5448 1.2 1 0.00733467 0.0107604 0.0113685 0.035234 0.00993923 0.0364096 0.0119868 0.0594614 0.0158524 0.0812516 0.0223618 0.0561329 0.0266323 0.0706448 0.0281515 0.100915 0.0349327 0.108085 0.0325485 0.0865278
2 1 Mg -1.82655 6.90154 50.0912 1.2 1 0.223191 0.087122 0.0356732 0.0382213 0.0352931 0.0534808 0.0456834 0.0454345 0.0567684 0.0702391 0.0564435 0.0687652 0.0724419 0.0644436 0.0992934 0.0595315 0.085641 0.0991241 0.0760801 0.0752098
3 2 Si -0.257935 3.96038 48.0876 2.4 1 0.372132 0.072198 0.0734548 0.0372162 0.0607551 0.0504875 0.0749835 0.0783757 0.0565861 0.0784152 0.0565544 0.0678347 0.0631531 0.0874315 0.098469 0.100754 0.109728 0.0891235 0.0685254 0.0746847
4 3 O -0.335812 5.46814 47.6264 -1.2 1 0.427244 0.0398743 0.0638484 0.0310818 0.0399392 0.0458881 0.0665447 0.0731144 0.0878263 0.0749982 0.0908848 0.0757222 0.0714297 0.0685935 0.0931894 0.126025 0.0936939 0.0790238 0.0759804 0.0799866
5 3 O -2.03793 3.43377 51.8941 -1.2 1 0.107857 0.0608808 0.0321222 0.0263815 0.0250661 0.0537267 0.0599793 0.0509162 0.0514372 0.0581103 0.0654177 0.0515067 0.0509929 0.0798806 0.0873204 0.086029 0.065408 0.0585798 0.0712043 0.0698441
6 3 O -1.54015 3.53929 48.9521 -1.2 1 0.296663 0.0978681 0.0371555 0.0502883 0.0319514 0.0496823 0.0752498 0.0515489 0.0531312 0.0633298 0.0790213 0.0701574 0.0701041 0.0653618 0.0760817 0.115059 0.0856565 0.0742766 0.0706829 0.0946357
7 1 Mg 1.82954 2.54582 47.1376 1.2 1 0.458714 0.0247064 0.089045 0.0591625 0.0454864 0.0858824 0.0658342 0.0618058 0.0720634 0.0847026 0.0684829 0.0791084 0.0807478 0.0830584 0.0713743 0.098547 0.100827 0.102644 0.10492 0.0976892
8 3 O 1.22989 3.66364 48.7877 -1.2 1 0.324351 0.0675194 0.0215574 0.0438271 0.0314542 0.065322 0.0778927 0.0304478 0.0828729 0.078178 0.0510107 0.0746813 0.0806759 0.0679519 0.0658913 0.0869998 0.0927284 0.0898634 0.0937383 0.0934705
9 1 Mg 1.00088 2.22164 54.7027 1.2 1 0.00462263 0.0169947 0.0212604 0.0291778 0.0230884 0.0349477 0.0281732 0.0310977 0.048437 0.060928 0.0506962 0.0522644 0.0590462 0.0633646 0.0634972 0.0811993 0.0665161 0.100295 0.0684035 0.0762558
10 2 Si 1.20239 4.94255 56.519 2.4 1 0.0214624 0.0126663 0.0204742 0.0292766 0.0283627 0.019883 0.0430777 0.0440301 0.0434517 0.059722 0.0591549 0.0525598 0.06748 0.0554815 0.0795196 0.0631992 0.0608598 0.0944287 0.0620734 0.0638253
11 3 O 1.12991 3.37073 56.5476 -1.2 1 0.0169722 0.0248422 0.0125579 0.0182033 0.0285064 0.0276589 0.0243947 0.0664733 0.0395813 0.0539086 0.0389416 0.0693661 0.0545294 0.0625694 0.0729155 0.0679507 0.0577502 0.070695 0.0605596 0.0688385
12 3 O 1.10813 6.07342 52.8172 -1.2 1 0.0794141 0.0481134 0.0243694 0.0198193 0.0234678 0.0457086 0.0422843 0.0532745 0.0516409 0.0449792 0.0566829 0.0481184 0.0721563 0.0668651 0.0800223 0.0863942 0.0611329 0.0716673 0.0681028 0.064001
13 3 O -0.0293906 5.64837 55.7501 -1.2 1 0.0121434 0.0109908 0.0273853 0.0261875 0.0254458 0.0208071 0.0437154 0.0468475 0.0400118 0.0561298 0.0514321 0.0432232 0.0533293 0.0586507 0.0844688 0.070956 0.0711247 0.066209 0.0608673 0.0627439
14 3 O 2.42995 5.70219 55.7925 -1.2 1 0.0142278 0.016132 0.0308179 0.0216917 0.0246606 0.0192774 0.0485145 0.0466733 0.0449631 0.0439125 0.0560086 0.0349468 0.054759 0.0603205 0.080004 0.0828809 0.0664467 0.0738043 0.0620568 0.0692696
15 1 Mg -0.459401 4.67631 52.2426 1.2 1 0.0908629 0.0666033 0.0354041 0.0422341 0.0295574 0.0323447 0.0404348 0.0624075 0.0471698 0.0753935 0.0469004 0.0600322 0.0511432 0.071938 0.0462689 0.099873 0.0551884 0.0936496 0.0631742 0.0816244
16 1 Mg 2.79456 3.9971 49.9987 1.2 1 0.225025 0.0937669 0.0320318 0.0423037 0.0419299 0.0608478 0.0575409 0.0593265 0.0790327 0.0609503 0.0635856 0.0550678 0.0626647 0.0705262 0.0828425 0.0793611 0.0701402 0.0882448 0.0876124 0.0738067
17 2 Si 1.16169 6.59457 51.2556 2.4 1 0.13431 0.0869965 0.0407406 0.0369041 0.0418875 0.0515561 0.0459244 0.0449781 0.0614601 0.0654185 0.0655338 0.0765164 0.072133 0.0661585 0.0828035 0.087349 0.0748528 0.0861049 0.072316 0.0624497
18 3 O 1.28989 8.18905 51.2909 -1.2 1 0.139241 0.0897133 0.0206441 0.0342638 0.0378062 0.0440147 0.0419135 0.0760222 0.0523922 0.0683573 0.0459883 0.0891202 0.0724486 0.0627977 0.0787123 0.0727735 0.0781701 0.0698881 0.0724041 0.0678007
19 3 O 1.07062 5.78297 57.9142 -1.2 1 0.00967965 0.0139339 0.0227353 0.0189268 0.0187882 0.0303232 0.0369511 0.0452325 0.0578931 0.0411033 0.052175 0.044256 0.0525539 0.0705194 0.0972627 0.0691634 0.0703505 0.0525636 0.070743 0.0566818
20 3 O -0.184847 6.06029 50.6845 -1.2 1 0.18231 0.0896582 0.021839 0.0333436 0.0315606 0.035712 0.0506138 0.060335 0.0600285 0.0619742 0.0602639 0.0768959 0.0671866 0.0603686 0.0845034 0.0735264 0.0814885 0.0762177 0.0650069 0.0803165
21 1 Mg -3.49704 4.67769 52.6661 1.2 1 0.0658147 0.0524751 0.0268409 0.0272198 0.0199876 0.0419454 0.0420679 0.0604075 0.0503841 0.0689606 0.048836 0.051164 0.0506889 0.0528457 0.0611277 0.0882993 0.0858865 0.0741183 0.0753627 0.0773153
22 3 O 2.48581 5.93312 50.6539 -1.2 1 0.191258 0.0919886 0.0349438 0.0211129 0.0329199 0.0473509 0.0606283 0.0608791 0.0436881 0.0703398 0.0483799 0.0649481 0.0546707 0.067244 0.103992 0.0630164 0.0770227 0.0685448 0.0773011 0.0759797
23 1 Mg -1.50101 4.63913 55.2215 1.2 1 0.0294443 0.0139015 0.0168613 0.0299454 0.0212228 0.0284577 0.0291874 0.038197 0.0421226 0.0485147 0.0586327 0.048295 0.0517071 0.0713197 0.0623994 0.071654 0.0888618 0.0831681 0.0688237 0.063444
24 2 Si -1.87546 2.75759 53.2867 2.4 1 0.0322187 0.0424689 0.0286335 0.0212738 0.0310293 0.028434 0.0488997 0.0507859 0.0714575 0.0575857 0.0481179 0.0727886 0.0764199 0.0470553 0.074279 0.0526128 0.075223 0.087601 0.0775574 0.0533068
25 3 O -1.89229 1.0941 53.2858 -1.2 1 0.0496115 0.0290193 0.0281776 0.0280142 0.0225801 0.037541 0.0306541 0.0668406 0.051814 0.0649982 0.0515548 0.0604129 0.0565463 0.0728758 0.0783791 0.0647452 0.0625133 0.0618446 0.0746445 0.0704347
26 3 O -0.0467762 2.97103 46.8385 -1.2 1 0.497861 0.0371422 0.0869418 0.0296012 0.0804256 0.0668281 0.0802581 0.072447 0.0736194 0.0799629 0.0822032 0.076166 0.0976587 0.0892828 0.0884194 0.0878865 0.0987344 0.0967743 0.10508 0.111372
27 3 O -3.05367 3.27103 54.1862 -1.2 1 0.0204908 0.021699 0.0299331 0.0269379 0.0286876 0.0270428 0.0331536 0.0442663 0.0459068 0.0529434 0.0662734 0.0398473 0.0631395 0.064207 0.0770645 0.0722678 0.0557401 0.0814676 0.0623184 0.0551499
28 3 O -0.573147 3.33026 53.9042 -1.2 1 0.0342691 0.0324252 0.0346782 0.0181732 0.0283436 0.0297068 0.0492654 0.0451805 0.0424188 0.0529644 0.0600104 0.0460503 0.0569672 0.0643675 0.0872556 0.0667994 0.080347 0.0699416 0.0632873 0.0613139
29 1 Mg -3.4007 11.8994 57.4628 1.2 1 0.0148116 0.00795686 0.0153933 0.0246294 0.0127 0.0326174 0.0173091 0.0576249 0.0255624 0.080025 0.027846 0.0476682 0.0230095 0.0753046 0.026284 0.0982907 0.0478379 0.106587 0.0412682 0.0896965
30 1 Mg -1.75014 11.5838 49.8362 1.2 1 0.229684 0.0821335 0.0275088 0.0412009 0.0308581 0.05482 0.0504461 0.0542704 0.0467296 0.0593925 0.0656112 0.0598861 0.072761 0.0714023 0.108868 0.0883617 0.0659894 0.0932779 0.0855206 0.0796009
31 2 Si -1.18003 9.02138 47.9309 2.4 1 0.367176 0.0719018 0.0699995 0.0543508 0.0412894 0.0610161 0.0739487 0.0776246 0.0698682 0.0676128 0.0592782 0.0665709 0.070181 0.082009 0.102483 0.0647555 0.100262 0.0917682 0.103237 0.0861859
32 3 O -1.23224 10.5991 47.9811 -1.2 1 0.371321 0.0701404 0.0605933 0.0569008 0.0528543 0.0702409 0.0687119 0.0776589 0.0560762 0.088702 0.0697291 0.0619583 0.0726833 0.0797166 0.0838562 0.0717022 0.0920992 0.082013 0.0678943 0.074931
33 3 O -1.79016 8.01447 51.8693 -1.2 1 0.113015 0.0619473 0.0326091 0.0310917 0.0310319 0.0457296 0.0619196 0.0516605 0.0586454 0.0528526 0.0506421 0.0542651 0.0629097 0.0840281 0.0895946 0.0708773 0.0705425 0.0523668 0.0683846 0.0698166
34 3 O -2.30986 8.37215 48.8528 -1.2 1 0.309668 0.0895126 0.0697192 0.0249117 0.0569796 0.0621168 0.0637876 0.0649 0.0550357 0.0652878 0.080287 0.0688404 0.0573998 0.0638941 0.0807399 0.0901035 0.0963119 0.0807497 0.0778398 0.0944398
35 1 Mg 0.154883 7.08234 46.8007 1.2 1 0.497011 0.0347262 0.0759542 0.0378141 0.0640858 0.0744645 0.0589762 0.0698182 0.0716596 0.081969 0.0885517 0.0754194 0.0781248 0.0799486 0.071473 0.0934686 0.0933361 0.108059 0.11389 0.100593
36 3 O 0.325447 8.50934 48.3809 -1.2 1 0.349254 0.0782003 0.0634055 0.0437296 0.0360319 0.0508779 0.0400343 0.0580796 0.0611133 0.0661853 0.0741014 0.063835 0.080428 0.0928608 0.0881365 0.0676245 0.0920633 0.102491 0.0853303 0.0844799
37 1 Mg 1.38887 7.05009 54.6867 1.2 1 0.015152 0.0352123 0.0138501 0.0273989 0.0156824 0.0302745 0.0233488 0.0348469 0.0456409 0.0576657 0.0588319 0.0492577 0.0600818 0.0631361 0.0623545 0.0847026 0.0744045 0.0855391 0.0691945 0.0780323
38 2 Si 1.2139 9.73503 56.421 2.4 1 0.0213118 0.0140183 0.0217915 0.0210528 0.0345538 0.0314243 0.0387513 0.0401698 0.0470166 0.0526237 0.0580188 0.063129 0.0712824 0.0605171 0.0815605 0.0744809 0.0595871 0.0966862 0.0618175 0.0565277
39 3 O 1.24409 8.22275 56.6065 -1.2 1 0.0302753 0.018553 0.0235967 0.0199954 0.0275583 0.0268779 0.0249769 0.0648291 0.0440967 0.0529561 0.04423 0.0673691 0.0558581 0.0673396 0.0724163 0.0650176 0.0598867 0.0695868 0.0513503 0.0802855
40 3 O 1.28624 10.7248 52.7351 -1.2 1 0.0664673 0.0461202 0.0300758 0.0215445 0.0288852 0.0463255 0.0561759 0.0492898 0.048501 0.0432133 0.0515688 0.0460211 0.0579728 0.072497 0.102 0.0837106 0.0675742 0.0532926 0.0724049 0.0614655
41 3 O -0.0705504 10.473 55.8951 -1.2 1 0.0109964 0.0166927 0.0289118 0.0206078 0.0161209 0.0212505 0.0437923 0.039049 0.0325902 0.0393147 0.0560889 0.0463622 0.0508763 0.0553788 0.0954043 0.0664186 0.0776174 0.0587831 0.0673149 0.0698124
42 3 O 2.45402 10.463 55.7133 -1.2 1 0.0128849 0.0171949 0.0273969 0.0188437 0.0272739 0.0211016 0.04947 0.0448663 0.0409675 0.0469754 0.0543657 0.034498 0.054431 0.0628193 0.081629 0.0854632 0.0690181 0.0675821 0.0636629 0.0658821
43 1 Mg -0.262694 9.34741 52.2523 1.2 1 0.113582 0.0647517 0.021109 0.0465965 0.0360729 0.0431352 0.0384913 0.0729658 0.0270283 0.0873617 0.0263573 0.0605654 0.0392252 0.0728142 0.0437182 0.106892 0.0528135 0.0922179 0.0521742 0.0990147
44 1 Mg 1.87648 9.01537 49.4629 1.2 1 0.273248 0.0956069 0.0414044 0.0378693 0.0332158 0.0511277 0.0670623 0.0449719 0.0754569 0.0609022 0.0822515 0.0538416 0.0804687 0.0630642 0.0862838 0.0936777 0.0843334 0.0963347 0.0845784 0.0865173
45 2 Si 1.21415 11.3799 51.2378 2.4 1 0.128945 0.0896481 0.0359777 0.040278 0.0372954 0.0547921 0.0577592 0.0416751 0.0564896 0.0644506 0.0748281 0.0695773 0.0760428 0.0703725 0.0939245 0.0915903 0.0753232 0.0794009 0.075113 0.0606003
46 3 O 1.31634 12.9512 51.3023 -1.2 1 0.134177 0.083207 0.0275608 0.0275833 0.0369253 0.0383857 0.0456426 0.0759794 0.0491931 0.063735 0.0461321 0.082989 0.0705745 0.0629927 0.0755636 0.0724837 0.0774063 0.0704953 0.0744581 0.0676825
47 3 O 1.22559 10.4053 57.9834 -1.2 1 0.0205345 0.0154017 0.0211829 0.0243778 0.0182247 0.0367374 0.0367752 0.0400804 0.0552008 0.0462953 0.0419361 0.0481245 0.0514241 0.0682336 0.103474 0.0697277 0.0648644 0.0499195 0.0700644 0.0712128
48 3 O -0.115718 10.7564 50.681 -1.2 1 0.186698 0.0871357 0.0267421 0.0210431 0.0425628 0.0419424 0.0532349 0.0618114 0.0536463 0.0577415 0.0591932 0.0515725 0.0647562 0.0742488 0.0970193 0.080735 0.0748475 0.074332 0.0762322 0.0815748
49 1 Mg -3.26386 9.35564 52.3622 1.2 1 0.0769143 0.0528432 0.0349789 0.0317851 0.0128177 0.058551 0.037983 0.0568364 0.0317674 0.0850378 0.0346826 0.0514188 0.0350007 0.0691352 0.0418248 0.110356 0.0479398 0.100629 0.0539384 0.0898303
50 3 O 2.45216 10.7265 50.4558 -1.2 1 0.201366 0.087801 0.023641 0.0192675 0.0366096 0.0534124 0.0595363 0.0526245 0.054811 0.0680532 0.061523 0.0704677 0.0523283 0.0706098 0.0935521 0.0814883 0.0762615 0.0775406 0.0576366 0.0855617
51 1 Mg -1.76684 9.5875 55.2039 1.2 1 0.0165407 0.0114816 0.0214354 0.0335278 0.0180852 0.0207916 0.0233015 0.0318616 0.0388156 0.0561699 0.0612639 0.0583413 0.0645037 0.0610119 0.0649976 0.0800962 0.0716867 0.0872039 0.0748465 0.0743428
52 2 Si -1.60965 7.31693 53.3744 2.4 1 0.0545561 0.0442859 0.0189506 0.0260705 0.0371464 0.0299546 0.0414502 0.0514364 0.0608105 0.0628487 0.0630005 0.0574107 0.0709441 0.0460652 0.0653401 0.0689247 0.0704442 0.081295 0.0698908 0.0543166
53 3 O -1.8235 5.78537 53.1723 -1.2 1 0.0553048 0.0461864 0.0250314 0.0191824 0.0168908 0.0323707 0.0408 0.0672063 0.0607455 0.0592298 0.0402284 0.078011 0.0497522 0.0806075 0.0709849 0.0686603 0.0539432 0.0720984 0.0604311 0.0791743
54 3 O -1.19417 8.46968 46.4488 -1.2 1 0.524982 0.066076 0.0663327 0.0509704 0.0664347 0.055392 0.0778007 0.0547289 0.0760422 0.0707268 0.0564596 0.0511379 0.0697677 0.0979745 0.130059 0.113482 0.0976472 0.0950945 0.0816298 0.0817181
55 3 O -2.87443 7.92875 54.0596 -1.2 1 0.0154437 0.0306351 0.0263243 0.0282607 0.0232857 0.0303731 0.0457933 0.0463871 0.0409768 0.0513594 0.0541166 0.0440191 0.063142 0.0694716 0.0673579 0.0721837 0.0658982 0.0715845 0.0671559 0.058199
56 3 O -0.425168 8.23127 53.9886 -1.2 1 0.044645 0.0307952 0.0263111 0.0279027 0.0340919 0.0193745 0.0402604 0.0480376 0.0443171 0.0466249 0.0621137 0.0482791 0.0598672 0.0483704 0.09496 0.0579873 0.0710261 0.0770213 0.0628565 0.0716318
57 1 Mg -2.91854 16.8068 57.2308 1.2 1 0.00817665 0.0166022 0.0151127 0.025416 0.0174686 0.0385087 0.0257651 0.0526189 0.0399901 0.0726394 0.0351083 0.051052 0.0355215 0.05667 0.0465184 0.0952114 0.0711512 0.092023 0.0621573 0.068531
58 1 Mg -1.6714 16.3544 49.8412 1.2 1 0.238945 0.0707179 0.0288132 0.0416363 0.0338528 0.0416116 0.0582315 0.0553965 0.0490462 0.0528031 0.0587581 0.0649841 0.0697238 0.0683344 0.102263 0.0846475 0.0749494 0.0928729 0.080559 0.0771169
59 2 Si -1.18567 13.8526 47.9314 2.4 1 0.376791 0.0633685 0.0667784 0.0673498 0.0276005 0.0656372 0.048033 0.0809737 0.0641452 0.0659101 0.0535729 0.0741793 0.0584965 0.0754807 0.0986195 0.0743676 0.102537 0.0954437 0.0889648 0.0901047
60 3 O -1.09664 15.4205 47.9915 -1.2 1 0.373446 0.0605981 0.0438531 0.0608704 0.0460893 0.0911805 0.0612724 0.0804182 0.0523696 0.0864676 0.0533681 0.0722378 0.0614637 0.0778694 0.0741865 0.0720878 0.0926503 0.0731968 0.0758338 0.0717341
61 3 O -1.73493 12.7491 51.7772 -1.2 1 0.116624 0.0582036 0.0309798 0.0273763 0.0346119 0.052093 0.0604449 0.049341 0.0668856 0.0531201 0.0574058 0.0496173 0.0519512 0.0833796 0.102671 0.0781778 0.0792083 0.0474325 0.0714654 0.0703477
62 3 O -2.36115 13.2717 48.8238 -1.2 1 0.310881 0.086878 0.0549286 0.0291706 0.0548642 0.0505744 0.0550559 0.0694057 0.0600198 0.0648176 0.0711179 0.0615077 0.0584368 0.0544561 0.0799045 0.0832645 0.0848617 0.0810058 0.084439 0.0893464
63 1 Mg -0.159928 11.7639 46.8533 1.2 1 0.48625 0.0238074 0.0720822 0.0344405 0.0478204 0.091506 0.0648042 0.0864506 0.0854377 0.0891881 0.0881936 0.0692155 0.0700584 0.0927017 0.0795 0.0838876 0.0937959 0.0977489 0.102993 0.109978
64 3 O 0.2623 13.1866 48.413 -1.2 1 0.339574 0.0819473 0.055694 0.0418874 0.0462653 0.0558939 0.0415227 0.0665643 0.0682753 0.0686028 0.0616255 0.0624683 0.0658415 0.0897523 0.0993353 0.0818511 0.0919422 0.0959482 0.0825427 0.0861345
65 1 Mg 1.29845 11.9195 54.5963 1.2 1 0.0134455 0.0347022 0.0145251 0.0288865 0.0163105 0.0208891 0.0258248 0.0363887 0.0445358 0.0560102 0.0633447 0.0547543 0.0540046 0.0659966 0.0658549 0.0867659 0.0693534 0.083397 0.0797035 0.0771261
66 2 Si 1.36196 14.6012 56.3971 2.4 1 0.0266551 0.0195529 0.0188193 0.0276624 0.032152 0.0303287 0.0388092 0.0477636 0.0527039 0.0514717 0.0501659 0.0681682 0.0679759 0.0539678 0.0753417 0.0668055 0.0634762 0.100735 0.0537846 0.054196
67 3 O 1.31098 13.0338 56.3864 -1.2 1 0.0256694 0.015837 0.0214661 0.0201989 0.031385 0.0254431 0.0176001 0.0663134 0.0427222 0.0581716 0.0437619 0.0607681 0.0660174 0.0653312 0.0694483 0.0695148 0.0605113 0.0677448 0.0670135 0.0635104
68 3 O 1.36565 15.4813 52.729 -1.2 1 0.0705185 0.0448005 0.0301615 0.0218192 0.0267379 0.0445139 0.0543192 0.0535401 0.0509468 0.0469537 0.0483857 0.0465446 0.0598918 0.0693113 0.102262 0.0781803 0.0683984 0.0608468 0.0735497 0.0602333
69 3 O 0.105269 15.1508 55.6963 -1.2 1 0.0118459 0.010131 0.0331219 0.0158666 0.0174859 0.0244814 0.0386967 0.0440408 0.0343312 0.0532254 0.0495434 0.0456418 0.0587983 0.0616441 0.0828412 0.0697975 0.0747455 0.0589274 0.0726971 0.0676645
70 3 O 2.61189 15.2555 55.6532 -1.2 1 0.00777925 0.0165679 0.0234755 0.0193762 0.0224178 0.0197877 0.0446853 0.0464512 0.0338887 0.0540541 0.0492807 0.0428285 0.0553983 0.0584251 0.0848594 0.0726765 0.0719114 0.0708489 0.0615217 0.0613534
71 1 Mg -0.206989 14.1049 52.2121 1.2 1 0.104203 0.0665021 0.025131 0.0466539 0.0274013 0.0391856 0.0401431 0.0703065 0.0309747 0.086317 0.0294297 0.0563562 0.0339701 0.072524 0.0383432 0.105896 0.0499706 0.101936 0.0470666 0.0926852
72 1 Mg 1.82591 13.8102 49.4556 1.2 1 0.266555 0.103874 0.03786 0.0397058 0.0341899 0.0387049 0.0658836 0.0474161 0.0732913 0.0716388 0.0735676 0.0561626 0.069036 0.0668803 0.0859515 0.0908237 0.0761896 0.0972674 0.0869342 0.0787085
73 2 Si 1.29285 16.1518 51.2434 2.4 1 0.137033 0.0853529 0.0320194 0.0380298 0.0368252 0.0493023 0.0566178 0.0421413 0.0515376 0.0683238 0.0680232 0.0673071 0.0677508 0.0635385 0.091745 0.086107 0.0815121 0.0840802 0.0752048 0.0636467
74 3 O 1.39496 17.7199 51.3047 -1.2 1 0.136166 0.0787495 0.0317286 0.0402799 0.0337319 0.0449073 0.0410411 0.067512 0.0576414 0.0663801 0.0417135 0.0788358 0.0655406 0.0619574 0.0747518 0.0670373 0.078351 0.0783579 0.074694 0.0735666
75 3 O 1.35248 15.1763 57.8359 -1.2 1 0.0150447 0.0242686 0.0265946 0.0173535 0.0132697 0.037333 0.0328958 0.0437787 0.0573784 0.0448033 0.0438643 0.0381881 0.0556356 0.0667994 0.100618 0.0723433 0.0728763 0.0527144 0.0752165 0.0650139
76 3 O -0.0269106 15.5178 50.6688 -1.2 1 0.18418 0.0880974 0.0220392 0.028702 0.0428944 0.0366683 0.0545999 0.0664004 0.0601102 0.0586897 0.0567016 0.0448733 0.0603509 0.0724283 0.0910723 0.0843666 0.0744949 0.0786835 0.0715573 0.0863709
77 1 Mg -3.18391 14.1057 52.3125 1.2 1 0.0690283 0.0570557 0.0360456 0.0325756 0.0158756 0.0542987 0.0382167 0.0627499 0.0348258 0.0827408 0.0352553 0.0447208 0.0267945 0.0744245 0.0307177 0.109721 0.0493546 0.103993 0.0499867 0.0909581
78 3 O 2.52432 15.503 50.4579 -1.2 1 0.201347 0.0878671 0.0230437 0.0197706 0.0347506 0.0531008 0.0570339 0.0507033 0.0510214 0.0627226 0.0626823 0.0704819 0.054026 0.0609014 0.0976568 0.0747052 0.0742529 0.0716005 0.0645119 0.0865491
79 1 Mg -1.54236 14.098 55.1859 1.2 1 0.0328456 0.0193812 0.0167144 0.0309164 0.0121616 0.0269251 0.0270463 0.0344764 0.0448149 0.0483845 0.057415 0.0531199 0.0599081 0.0608128 0.0599913 0.0708548 0.0808529 0.103355 0.0591298 0.0781205
80 2 Si -1.7118 12.0474 53.2324 2.4 1 0.0480978 0.0474391 0.0151338 0.0252227 0.0368453 0.0345483 0.0490438 0.0535164 0.0632057 0.0675179 0.0651665 0.0684989 0.0734429 0.0547588 0.0790671 0.0575875 0.068223 0.0814556 0.0638111 0.0645887
81 3 O -1.79556 10.511 53.0653 -1.2 1 0.0549891 0.0597238 0.0208461 0.0238564 0.0305154 0.0375316 0.0412858 0.0732531 0.0536194 0.0506502 0.0563653 0.0737955 0.0651036 0.0767744 0.0811539 0.0750551 0.04578 0.0726348 0.0584219 0.0836574
82 3 O -1.21337 13.3381 46.4311 -1.2 1 0.520149 0.0676884 0.0695869 0.0407465 0.0562328 0.0578711 0.0578334 0.0707064 0.0805165 0.0669058 0.0470439 0.0714116 0.0678821 0.0879731 0.121077 0.114752 0.106193 0.0996126 0.0608169 0.0927036
83 3 O -2.91636 12.8211 53.9612 -1.2 1 0.0284614 0.0346636 0.0194577 0.0329004 0.0329712 0.0271299 0.0544588 0.0429614 0.0482432 0.0545234 0.0514455 0.0446305 0.0583723 0.0622947 0.0820418 0.0675236 0.0714354 0.0599156 0.0622409 0.0714874
84 3 O -0.398784 12.7535 53.9597 -1.2 1 0.0393148 0.0279603 0.0302263 0.0245166 0.0241282 0.0235787 0.0400418 0.0501947 0.0405116 0.0582333 0.0583872 0.0421971 0.0579949 0.0617885 0.0876772 0.0681426 0.076972 0.0656313 0.0725147 0.0656201
85 1 Mg -3.07223 21.2636 57.6585 1.2 1 0.00784968 0.0169153 0.0184558 0.0254671 0.015428 0.0339723 0.0183954 0.0534597 0.0291798 0.0745193 0.0270242 0.0474835 0.0238592 0.0614508 0.0372778 0.0962575 0.0518488 0.103376 0.0574342 0.0758028
86 1 Mg -1.5831 21.1217 49.8405 1.2 1 0.229935 0.0813405 0.022805 0.0429267 0.0287837 0.0503923 0.0554699 0.0560317 0.050581 0.0597046 0.0654459 0.063312 0.0722136 0.0733882 0.102324 0.0795092 0.0754695 0.0949342 0.0836354 0.0815779
87 2 Si -1.09384 18.6291 47.9287 2.4 1 0.37396 0.0683103 0.0750522 0.0634689 0.0313177 0.0683615 0.0456511 0.0795505 0.0643474 0.068816 0.0521968 0.0720324 0.0602314 0.0753477 0.100128 0.0766073 0.104254 0.0937579 0.088744 0.089404
88 3 O -1.02071 20.1985 47.9911 -1.2 1 0.36138 0.0766918 0.0544126 0.0622371 0.0470453 0.0924306 0.0615178 0.0812515 0.0534766 0.0878698 0.0526727 0.0718726 0.0627609 0.0845739 0.0821782 0.0757139 0.0993194 0.0801097 0.0738107 0.0677079
89 3 O -1.65002 17.5002 51.771 -1.2 1 0.111922 0.0592452 0.0339042 0.0270897 0.0330866 0.0538449 0.059269 0.0479048 0.0669626 0.0567446 0.0521276 0.0501383 0.0538625 0.0803082 0.0996052 0.0755792 0.080939 0.0468532 0.0723998 0.0674123
90 3 O -2.26174 18.0434 48.8281 -1.2 1 0.30637 0.0897315 0.0556665 0.0308655 0.058896 0.0490687 0.0521608 0.0737095 0.0591016 0.0648672 0.0711074 0.0595784 0.0546982 0.0601885 0.0771922 0.0817256 0.0831026 0.0828833 0.0845062 0.0875034
91 1 Mg -0.0440435 16.5651 46.8269 1.2 1 0.481068 0.0211489 0.0814885 0.0342437 0.0662606 0.0845658 0.0773513 0.0874316 0.07008 0.0827917 0.0851435 0.0630457 0.0630282 0.07706 0.0766739 0.0945679 0.0935442 0.095268 0.0992928 0.106489
92 3 O 0.37001 17.9877 48.3925 -1.2 1 0.336446 0.09027 0.0627442 0.038381 0.0451384 0.0617616 0.0488381 0.0709533 0.0653955 0.0758798 0.0647261 0.0572003 0.0630959 0.0875816 0.0987687 0.0794409 0.0946628 0.100364 0.0789558 0.084555
93 1 Mg 1.35115 16.7216 54.5558 1.2 1 0.0139537 0.0310653 0.0188809 0.0358311 0.0131444 0.0257066 0.0285256 0.0326423 0.0459276 0.0559851 0.0656673 0.0540223 0.0594193 0.0647277 0.067397 0.0878137 0.0754955 0.0806608 0.0792101 0.0694472
94 2 Si 1.5488 19.3356 56.5047 2.4 1 0.0186983 0.0171986 0.0213103 0.0327521 0.0281925 0.0312861 0.0361093 0.048752 0.0540758 0.0562557 0.046497 0.070523 0.0715769 0.0535913 0.0769406 0.0675748 0.062234 0.0932785 0.051949 0.0543557
95 3 O 1.52464 17.8352 56.4844 -1.2 1 0.0201813 0.0180327 0.0253003 0.0196548 0.0278251 0.0294039 0.0224483 0.0661941 0.0381354 0.0496045 0.0511557 0.0660158 0.0602364 0.0658971 0.0741723 0.065606 0.0636371 0.0656892 0.0622426 0.0735128
96 3 O 1.45147 20.239 52.7294 -1.2 1 0.0679314 0.0416615 0.0296649 0.0274117 0.0245735 0.0490229 0.0551244 0.0479707 0.0449988 0.0512557 0.0461671 0.0525387 0.0655917 0.0658512 0.0998907 0.0748539 0.0736903 0.0644133 0.0782481 0.0658572
97 3 O 0.333377 19.9308 55.7453 -1.2 1 0.0175909 0.00915192 0.0250722 0.0210535 0.0266443 0.0198127 0.0395912 0.0424153 0.0351148 0.0429303 0.051949 0.0413266 0.0545999 0.0548005 0.0858912 0.0653774 0.0843598 0.05827 0.0651986 0.0549738
98 3 O 2.88125 19.9056 55.9253 -1.2 1 0.017826 0.0132938 0.0259049 0.0238291 0.0314827 0.0210421 0.0465789 0.0498411 0.0514795 0.0469782 0.0534644 0.0455803 0.0557829 0.0729735 0.0840797 0.0702672 0.0773466 0.0640387 0.062702 0.0705838
99 1 Mg -0.126194 18.8651 52.2079 1.2 1 0.101534 0.0639599 0.0293079 0.0452215 0.0274452 0.0447486 0.0416743 0.0717633 0.032457 0.0808088 0.0267869 0.0523319 0.0313018 0.0726763 0.0373935 0.10211 0.0443976 0.107325 0.0471662 0.0957183
100 1 Mg 1.92402 18.5815 49.4545 1.2 1 0.258002 0.110877 0.0319536 0.0444562 0.0340981 0.0357747 0.0713005 0.0451603 0.0716715 0.0722799 0.076358 0.0562286 0.0754654 0.0693536 0.0885976 0.095925 0.0777055 0.0989686 0.0850826 0.0824415
101 2 Si 1.38106 20.9117 51.2443 2.4 1 0.132115 0.0819988 0.0437842 0.0316193 0.0379081 0.0548447 0.0500611 0.0454843 0.0555585 0.0644282 0.0624003 0.0721404 0.069315 0.0629766 0.0951193 0.0859158 0.0741233 0.083462 0.0704849 0.0647017
102 3 O 1.48527 22.4795 51.3054 -1.2 1 0.114333 0.0965214 0.0220031 0.0310642 0.033304 0.0472267 0.046328 0.0744143 0.0601232 0.0729689 0.0426758 0.0844143 0.0712324 0.0618497 0.0780551 0.0661385 0.0816342 0.0754314 0.065112 0.0727686
103 3 O 1.39412 19.9211 57.9284 -1.2 1 0.0226328 0.0237036 0.0267252 0.0202252 0.0161081 0.0373572 0.0273046 0.0490166 0.0606709 0.0410821 0.0384767 0.0371442 0.0524736 0.065105 0.103358 0.0531142 0.0619045 0.0521829 0.0589026 0.0609151
104 3 O 0.0615419 20.2804 50.6669 -1.2 1 0.185901 0.0816732 0.0275474 0.0310843 0.0442503 0.0355445 0.05589 0.0701677 0.0557082 0.0563803 0.0603053 0.0466645 0.0568775 0.0752823 0.0951745 0.0827933 0.0781706 0.0772313 0.074595 0.0877973
105 1 Mg -3.09665 18.8643 52.3122 1.2 1 0.0764503 0.0537369 0.0327023 0.025407 0.0205932 0.0525851 0.0365451 0.0584029 0.034121 0.0822269 0.0313873 0.0465448 0.0286025 0.0730096 0.036533 0.105973 0.0536716 0.103831 0.0510499 0.0916831
106 3 O 2.61548 20.2646 50.4626 -1.2 1 0.189553 0.100702 0.02189 0.0188968 0.0421018 0.0528566 0.0560042 0.0523807 0.0555288 0.069582 0.0664594 0.0692862 0.0555946 0.0649747 0.102062 0.0740854 0.0736169 0.0719675 0.0660366 0.0835155
107 1 Mg -1.41625 18.9536 54.9054 1.2 1 0.0298359 0.016084 0.0189226 0.0292269 0.0157881 0.0244637 0.02446 0.0290209 0.0471586 0.055956 0.0570756 0.0557926 0.0508359 0.0690439 0.0599815 0.0950669 0.0616878 0.0917402 0.0628327 0.0964671
108 2 Si -1.48795 16.7932 53.1951 2.4 1 0.0485019 0.0388434 0.0272221 0.0306373 0.0390914 0.0308756 0.0472166 0.0549392 0.051336 0.0658382 0.0562045 0.0624969 0.0724253 0.0555046 0.0733005 0.0587591 0.068776 0.086087 0.0584447 0.0685923
109 3 O -1.52199 15.2487 53.162 -1.2 1 0.0643297 0.0441627 0.0186863 0.0198796 0.0395739 0.0356884 0.0289189 0.0775459 0.0496311 0.0598055 0.0402495 0.0688195 0.0543599 0.0734167 0.0739588 0.0661143 0.0542711 0.0737971 0.0609194 0.0754115
110 3 O -1.12868 18.1227 46.4249 -1.2 1 0.522047 0.0658417 0.0716506 0.0517944 0.0580002 0.0642689 0.0595978 0.0793824 0.0809783 0.0638789 0.0460639 0.0674491 0.0666 0.0875593 0.116892 0.114896 0.106996 0.100776 0.0619551 0.0922738
111 3 O -2.7108 17.4727 54.0244 -1.2 1 0.0317762 0.018791 0.0332448 0.0207185 0.0254648 0.0303354 0.049048 0.0502159 0.0419543 0.0600072 0.0492688 0.0369393 0.0548038 0.0689031 0.070508 0.0773884 0.0682064 0.0723054 0.0619344 0.0658185
112 3 O -0.149565 17.6109 53.7957 -1.2 1 0.0368999 0.0272707 0.027595 0.0287843 0.0262003 0.023608 0.0449143 0.0502301 0.0591088 0.0534658 0.0608851 0.0422307 0.0543032 0.049464 0.0833128 0.0591512 0.0771653 0.0687042 0.0643458 0.069354
113 1 Mg -3.20274 26.2414 57.657 1.2 1 0.0118132 0.0188338 0.0208536 0.0281766 0.0157871 0.0318488 0.0218367 0.0466213 0.0388552 0.0722071 0.0290807 0.0452771 0.0343205 0.0583917 0.0438093 0.0805928 0.0739973 0.0971403 0.0651148 0.0736773
114 1 Mg -1.48778 25.88 49.8402 1.2 1 0.221531 0.0916431 0.024247 0.0410997 0.0314294 0.0514268 0.0555191 0.0558378 0.0515086 0.0638732 0.0678336 0.0667372 0.0739832 0.0749466 0.103564 0.0821247 0.0723345 0.0931317 0.0827006 0.0835688
115 2 Si -1.00491 23.3922 47.9274 2.4 1 0.37046 0.0701438 0.0736614 0.0676777 0.0361358 0.076136 0.0421322 0.0843804 0.0693963 0.0722979 0.0489389 0.0742955 0.0607284 0.0753214 0.0940192 0.077989 0.104848 0.0949417 0.0869664 0.0947385
116 3 O -0.927602 24.9615 47.9909 -1.2 1 0.362015 0.0747841 0.0506589 0.0646468 0.0458228 0.0914891 0.0646776 0.084002 0.0602278 0.0910503 0.0529459 0.0710832 0.0608966 0.0815281 0.0832592 0.0756634 0.0934164 0.0756579 0.0760313 0.0722137
117 3 O -1.55795 22.2588 51.7696 -1.2 1 0.114558 0.0559686 0.0321956 0.029737 0.0310119 0.0543179 0.0585079 0.0507125 0.0665623 0.0560131 0.0552382 0.0477322 0.0569638 0.0809738 0.0952925 0.0750396 0.0803839 0.0442021 0.0785199 0.0731707
118 3 O -2.17411 22.8111 48.8277 -1.2 1 0.296441 0.102295 0.0652382 0.0276923 0.0631783 0.0515117 0.0581807 0.0732832 0.0596261 0.0659939 0.0722958 0.0610783 0.0550039 0.0593948 0.079648 0.0858387 0.0855011 0.0785135 0.0857344 0.0938022
119 1 Mg 0.0423997 21.3296 46.8225 1.2 1 0.488365 0.022955 0.0752479 0.0323595 0.0579311 0.0788261 0.0680378 0.0823589 0.0749738 0.0877591 0.0866391 0.0622613 0.0637134 0.0805062 0.0763173 0.0908183 0.0962205 0.100537 0.102052 0.10876
120 3 O 0.458537 22.7495 48.3911 -1.2 1 0.344711 0.0784752 0.0573587 0.0401855 0.0460678 0.0624662 0.0419051 0.0668596 0.0676735 0.0729282 0.0600152 0.0568992 0.0647221 0.0868058 0.0949323 0.0762242 0.0943534 0.104294 0.0799002 0.0851441
121 1 Mg 1.52452 21.2127 54.6463 1.2 1 0.0125938 0.025763 0.0124785 0.0317767 0.00883817 0.0235919 0.0245067 0.0376489 0.0485506 0.0611532 0.0600228 0.0518765 0.0615545 0.0672464 0.0652658 0.0837325 0.0675975 0.102808 0.0686463 0.0851254
122 2 Si 1.40417 24.1341 56.4721 2.4 1 0.025096 0.0200997 0.0269067 0.0336234 0.0296187 0.0350782 0.039299 0.0369182 0.0565411 0.0504053 0.0484427 0.0660018 0.0597545 0.0515929 0.0698892 0.0675657 0.0618597 0.092513 0.0646406 0.0499528
123 3 O 1.53543 22.5284 56.6387 -1.2 1 0.0331684 0.0169053 0.0180477 0.0230533 0.0225182 0.0278969 0.023598 0.0620689 0.0455616 0.0466736 0.0478031 0.0657347 0.0550281 0.0595876 0.0756968 0.0704491 0.0634925 0.0667673 0.0530617 0.0807472
124 3 O 1.54441 24.9963 52.7297 -1.2 1 0.0727604 0.0426733 0.0287194 0.0183394 0.0202373 0.0452207 0.0542975 0.0528733 0.0503267 0.046493 0.0472682 0.0497175 0.0560979 0.0652026 0.102443 0.0698886 0.0737979 0.0576049 0.0714107 0.0619374
125 3 O 0.101139 24.8427 55.9074 -1.2 1 0.0077396 0.0180667 0.0261991 0.0199217 0.0278303 0.0175561 0.0425267 0.0421782 0.0413482 0.0374007 0.0521352 0.0424126 0.0494858 0.0529486 0.0925378 0.0709582 0.0682886 0.0606889 0.0662433 0.0768443
126 3 O 2.69519 24.7639 55.7114 -1.2 1 0.0188632 0.0112409 0.0235653 0.0228487 0.0276378 0.0186217 0.047957 0.0473039 0.0353302 0.0453211 0.0547312 0.0371471 0.0548859 0.056365 0.0879842 0.0699679 0.0664668 0.0638525 0.0661134 0.0616458