ITEM: TIMESTEP
15800
ITEM: NUMBER OF ATOMS
10500
ITEM: BOX BOUNDS xy xz yz pp pp pp
0	8.9688	2.9896
0	118.725	0
0	252.977	0
ITEM: ATOMS id type element xu yu zu q Q_1 Q_2 Q_3 Q_4 Q_5 Q_6 Q_7 Q_8 Q_9 Q_10 Q_11 Q_12 Q_13 Q_14 Q_15 Q_16 Q_17 Q_18 Q_19 Q_20 Q_21
1 1 Mg -3.45417 7.04724 57.5486 1.2 1 0.0105793 0.0182482 0.00539569 0.032504 0.00617663 0.0342497 0.00865269 0.0567652 0.0119444 0.0824514 0.0140322 0.0518935 0.0142081 0.0671901 0.0153711 0.105374 0.0194351 0.110596 0.0201631 0.0927514
2 1 Mg -1.82655 6.90154 50.0912 1.2 1 0.220242 0.0865193 0.0307507 0.0355907 0.0305241 0.0527027 0.0490251 0.0445456 0.0556208 0.0713711 0.0559963 0.069411 0.0709258 0.0630987 0.0948395 0.0611022 0.0868358 0.0988102 0.0730257 0.0780466
3 2 Si -0.257935 3.96038 48.0876 2.4 1 0.371785 0.0730552 0.0746852 0.0360588 0.0614036 0.0523193 0.073555 0.0771047 0.0576449 0.0775694 0.0563497 0.0678899 0.0621404 0.0851375 0.0966265 0.0994184 0.10952 0.0906228 0.0695999 0.0714872
4 3 O -0.335812 5.46814 47.6264 -1.2 1 0.427048 0.0393699 0.0649021 0.0310334 0.0408851 0.0478154 0.0652392 0.0714781 0.0872438 0.0752414 0.0922705 0.0755029 0.069914 0.0686794 0.0925748 0.125096 0.0941795 0.0806189 0.076314 0.0781866
5 3 O -2.03793 3.43377 51.8941 -1.2 1 0.114949 0.0588256 0.0290417 0.0223562 0.0198077 0.0519715 0.0602609 0.04883 0.0489315 0.0570947 0.065573 0.0523734 0.0472158 0.0758355 0.0877215 0.0806007 0.0691549 0.055831 0.0753495 0.0666572
6 3 O -1.54015 3.53929 48.9521 -1.2 1 0.301529 0.0913437 0.0330375 0.0484989 0.0294465 0.0494424 0.0742692 0.0487703 0.0542092 0.062503 0.0740105 0.0667259 0.0713843 0.0678753 0.0722592 0.110108 0.0828941 0.0810254 0.0767691 0.0889917
7 1 Mg 1.82954 2.54582 47.1376 1.2 1 0.462946 0.0191802 0.0816558 0.054052 0.0400864 0.0840013 0.0632111 0.0604575 0.0751436 0.0873868 0.0678297 0.0773596 0.0822766 0.0853312 0.0714408 0.0984214 0.101018 0.101143 0.104468 0.0990324
8 3 O 1.22989 3.66364 48.7877 -1.2 1 0.320513 0.0733694 0.0238276 0.0442966 0.0329946 0.0655212 0.0790817 0.0314055 0.0824834 0.0766056 0.0498111 0.0788085 0.0848955 0.0689206 0.0643716 0.0849456 0.09486 0.0924649 0.0917981 0.0898832
9 1 Mg 0.974767 2.32472 54.5964 1.2 1 0.00757254 0.0204014 0.0237683 0.0343146 0.0249269 0.0326367 0.022464 0.0305756 0.0425436 0.0586111 0.0588458 0.0564053 0.0627756 0.0653113 0.0665141 0.0809199 0.0699939 0.0863867 0.0733197 0.0734254
10 2 Si 1.12913 4.96876 56.3661 2.4 1 0.0156669 0.0150495 0.015462 0.0267573 0.0241719 0.0265291 0.0372057 0.0497585 0.0503504 0.0528982 0.0587875 0.0652341 0.0655061 0.0539904 0.0761275 0.0788857 0.062603 0.0965077 0.057777 0.0537452
11 3 O 0.957566 3.43674 56.5311 -1.2 1 0.0158893 0.0182603 0.0140557 0.0242429 0.0199763 0.0284489 0.0204407 0.0620014 0.0388733 0.0521252 0.0370638 0.0694526 0.0552262 0.0597901 0.0698541 0.0718281 0.0601826 0.0725996 0.0678571 0.0708517
12 3 O 1.10813 6.07342 52.8172 -1.2 1 0.0841735 0.0440626 0.0305359 0.020171 0.0232829 0.0475924 0.0425668 0.053968 0.05166 0.0425764 0.0554054 0.0498007 0.0678691 0.0693085 0.0868214 0.085722 0.0582723 0.0681107 0.0705048 0.0683024
13 3 O -0.136418 5.72953 55.7783 -1.2 1 0.0117047 0.0144432 0.021543 0.02227 0.0250643 0.0181356 0.0416837 0.0416903 0.0376301 0.0476109 0.0513509 0.0460717 0.0576723 0.0545261 0.0963999 0.0682297 0.07748 0.0686666 0.0652703 0.0622327
14 3 O 2.37559 5.61286 55.8307 -1.2 1 0.0193942 0.0106646 0.0330668 0.0195555 0.0267013 0.020026 0.0461122 0.0452533 0.0412686 0.0422669 0.0608137 0.0358643 0.052895 0.0684649 0.0741245 0.0815517 0.073721 0.0670455 0.0693416 0.061769
15 1 Mg -0.459401 4.67631 52.2426 1.2 1 0.0943221 0.0666791 0.0330372 0.0367424 0.0295938 0.0296842 0.0400386 0.0599677 0.0421534 0.0807584 0.0445728 0.0607088 0.0498652 0.0734563 0.043966 0.0981429 0.0522355 0.0964282 0.059133 0.0865119
16 1 Mg 2.79456 3.9971 49.9987 1.2 1 0.22223 0.0950597 0.0299804 0.0395184 0.0435909 0.0596735 0.0578952 0.0556938 0.0788326 0.0639784 0.0632001 0.0574461 0.0626354 0.070621 0.0841242 0.0768412 0.0738813 0.092694 0.0869787 0.0725009
17 2 Si 1.16169 6.59457 51.2556 2.4 1 0.136286 0.0871427 0.038711 0.032998 0.0418185 0.0520994 0.0465363 0.0423406 0.0600424 0.0640943 0.0654779 0.0752882 0.0733525 0.0664986 0.0857157 0.088777 0.0794411 0.0893985 0.074826 0.0621615
18 3 O 1.28989 8.18905 51.2909 -1.2 1 0.136719 0.0901837 0.0233337 0.0377067 0.0372916 0.0446778 0.043506 0.0751529 0.0540487 0.0702068 0.0451691 0.089372 0.0705296 0.0648982 0.0796265 0.0714935 0.0716109 0.0678528 0.070845 0.0722513
19 3 O 1.07712 5.67086 57.9094 -1.2 1 0.0194286 0.0173998 0.0198787 0.0213971 0.0190219 0.0348013 0.0308518 0.0452983 0.0516217 0.0392763 0.046819 0.0439696 0.0583941 0.0680186 0.0985529 0.0712031 0.0669922 0.0524149 0.0771976 0.0584039
20 3 O -0.184847 6.06029 50.6845 -1.2 1 0.184913 0.082525 0.024998 0.0275302 0.0366495 0.0283051 0.049514 0.0590687 0.0586014 0.0570116 0.0674668 0.0766314 0.0663891 0.059832 0.0898389 0.0699791 0.0837241 0.0772394 0.0597202 0.0785454
21 1 Mg -3.49704 4.67769 52.6661 1.2 1 0.0587218 0.0517301 0.0319095 0.0288572 0.0188208 0.0460907 0.0382468 0.0626571 0.0533559 0.0707977 0.0490269 0.0517001 0.0481463 0.0519154 0.0592328 0.09166 0.0825447 0.0778714 0.0755732 0.0717216
22 3 O 2.48581 5.93312 50.6539 -1.2 1 0.191872 0.0903926 0.0330947 0.020438 0.0332753 0.045877 0.0598402 0.0585154 0.0458801 0.0678463 0.0464371 0.0664512 0.0574517 0.0610529 0.102913 0.0709121 0.0781483 0.066081 0.0774985 0.0733875
23 1 Mg -1.81436 4.69371 55.1935 1.2 1 0.0298531 0.0107271 0.0214187 0.0223693 0.0166586 0.0267639 0.0256388 0.0364025 0.0406644 0.0512558 0.0579616 0.0519631 0.0584381 0.0677968 0.0650815 0.0792898 0.0808612 0.0890901 0.0641326 0.0718364
24 2 Si -1.99803 2.60193 53.3192 2.4 1 0.0430577 0.038377 0.0240231 0.0213335 0.0275798 0.0236028 0.0486914 0.0451609 0.0590711 0.0720429 0.0601588 0.0677089 0.0746776 0.0499914 0.0731452 0.0586637 0.0723139 0.0868038 0.0764711 0.0654153
25 3 O -2.0346 1.06455 53.1942 -1.2 1 0.0554542 0.0409108 0.0282166 0.027222 0.0197415 0.0418161 0.0219798 0.0638787 0.0628634 0.0613174 0.0497931 0.06461 0.0598754 0.0727254 0.0751068 0.0708036 0.0500534 0.0698223 0.0663417 0.0753186
26 3 O -0.0467762 2.97103 46.8385 -1.2 1 0.497753 0.0374685 0.087907 0.029527 0.0799987 0.0680412 0.0811807 0.0717824 0.0725459 0.0788885 0.0811624 0.0757219 0.0969733 0.0882087 0.0886972 0.0887666 0.09891 0.0968099 0.104617 0.110479
27 3 O -3.32681 3.26877 54.0356 -1.2 1 0.0319736 0.0278589 0.0259014 0.0185367 0.0246189 0.0268873 0.0392132 0.0459058 0.0504982 0.0531867 0.062826 0.0454734 0.0562968 0.0632598 0.0782818 0.0598395 0.0710965 0.0619993 0.0718572 0.0610047
28 3 O -0.766074 3.27444 54.1168 -1.2 1 0.0300549 0.0161918 0.0345521 0.0172096 0.0226173 0.023636 0.041857 0.0450019 0.0400253 0.0528631 0.0634499 0.0449231 0.0499482 0.0761902 0.0825118 0.0739119 0.0770911 0.0696003 0.0644456 0.0604643
29 1 Mg -3.34782 11.8093 57.5793 1.2 1 0.00819883 0.0178485 0.00602929 0.0326169 0.00998661 0.0368917 0.00810999 0.0557473 0.0150623 0.0779829 0.0136405 0.0508768 0.0163106 0.0695868 0.018397 0.104242 0.0292854 0.10992 0.0334024 0.0932313
30 1 Mg -1.75014 11.5838 49.8362 1.2 1 0.230454 0.0808576 0.0267348 0.041615 0.0303932 0.0546229 0.0494198 0.054902 0.047544 0.0587873 0.0652563 0.0608992 0.0718452 0.0727538 0.109849 0.0898991 0.0651442 0.0929562 0.0849878 0.0791365
31 2 Si -1.18003 9.02138 47.9309 2.4 1 0.367334 0.0713651 0.0697222 0.0542409 0.0415562 0.060375 0.0731463 0.0780211 0.0701877 0.0667015 0.0592094 0.066279 0.0675303 0.0807524 0.102311 0.0641185 0.100135 0.092476 0.102459 0.0861949
32 3 O -1.23224 10.5991 47.9811 -1.2 1 0.375314 0.0650839 0.0588968 0.0546847 0.0519084 0.071319 0.066591 0.0752381 0.0530359 0.085563 0.069386 0.063758 0.0725536 0.079595 0.0828188 0.069252 0.0909402 0.0816882 0.0650386 0.0723481
33 3 O -1.79016 8.01447 51.8693 -1.2 1 0.111115 0.0618502 0.0319873 0.0334178 0.0292962 0.0474329 0.060692 0.0557706 0.0559756 0.0524234 0.0527687 0.0532472 0.0646049 0.0884306 0.09147 0.0757026 0.0710469 0.0524452 0.0752135 0.0680898
34 3 O -2.30986 8.37215 48.8528 -1.2 1 0.311783 0.0876461 0.0669244 0.0247709 0.0537672 0.0619061 0.0672493 0.0665469 0.057504 0.0654347 0.0785564 0.0656301 0.0572469 0.0661058 0.0784636 0.0900749 0.0969716 0.0801673 0.076521 0.0945032
35 1 Mg 0.154883 7.08234 46.8007 1.2 1 0.497331 0.0363482 0.0754353 0.0387775 0.0647218 0.074898 0.0589547 0.0682707 0.0709656 0.0829138 0.0892683 0.0760316 0.0786698 0.0795837 0.0701782 0.0922537 0.0924701 0.1079 0.113928 0.100963
36 3 O 0.325447 8.50934 48.3809 -1.2 1 0.347651 0.0797144 0.0594798 0.0446093 0.0345108 0.0533953 0.0369147 0.0575825 0.0621588 0.0638763 0.0733591 0.0632186 0.0773617 0.091841 0.0907193 0.0682809 0.0922106 0.10139 0.0853333 0.0880531
37 1 Mg 1.10984 7.17936 54.6073 1.2 1 0.00994638 0.0322675 0.0181504 0.0355752 0.0181123 0.0269858 0.0241793 0.0350504 0.0400875 0.058426 0.0671948 0.0565216 0.0522012 0.069436 0.0654382 0.0909858 0.0709622 0.0712982 0.0830104 0.0768649
38 2 Si 1.09193 9.78864 56.4892 2.4 1 0.0241699 0.0203194 0.0174009 0.0209037 0.0286029 0.0338181 0.041086 0.0422393 0.0525182 0.0514646 0.0546715 0.0691303 0.0659484 0.0550492 0.0774802 0.0747401 0.058629 0.0960328 0.0552139 0.0577191
39 3 O 1.05766 8.22835 56.5383 -1.2 1 0.0309649 0.013588 0.018925 0.0234441 0.0245578 0.0287409 0.0223996 0.0662994 0.0341175 0.0480604 0.0411523 0.065132 0.0613963 0.0695522 0.0694428 0.0625135 0.0612629 0.0712807 0.0590997 0.0754027
40 3 O 1.28624 10.7248 52.7351 -1.2 1 0.0791302 0.0380344 0.0322318 0.0248594 0.0266975 0.046022 0.0505705 0.0489151 0.0480348 0.0430053 0.0518308 0.0472267 0.0586901 0.0664974 0.0972447 0.0762599 0.073833 0.0530719 0.0735176 0.0603421
41 3 O -0.170888 10.5054 55.8851 -1.2 1 0.00604431 0.00959013 0.0264225 0.0212998 0.0170846 0.0179475 0.0411402 0.0403361 0.0360402 0.0380443 0.0561876 0.0428585 0.0530588 0.0499182 0.0967371 0.0678252 0.0738318 0.0633976 0.0587085 0.0766561
42 3 O 2.36869 10.4333 55.8404 -1.2 1 0.0192651 0.0105822 0.0303264 0.0207604 0.0255586 0.0179605 0.0451689 0.0420315 0.0378982 0.0390556 0.0531639 0.0385976 0.049501 0.066752 0.0830191 0.0769819 0.074875 0.0599197 0.0710483 0.0598971
43 1 Mg -0.262694 9.34741 52.2523 1.2 1 0.116208 0.0628731 0.0196319 0.0421021 0.0332334 0.0437243 0.0381011 0.0707533 0.0274848 0.0884059 0.0275312 0.0568497 0.0388398 0.0735828 0.0389115 0.105584 0.0484481 0.0960695 0.0483044 0.104625
44 1 Mg 1.87648 9.01537 49.4629 1.2 1 0.267599 0.0992293 0.0406162 0.0358405 0.0364057 0.0490074 0.0705014 0.0475549 0.0786264 0.0631102 0.0833204 0.0549239 0.0831452 0.0687785 0.0872071 0.0979719 0.0888879 0.0943612 0.0843819 0.0927148
45 2 Si 1.21415 11.3799 51.2378 2.4 1 0.13257 0.0858299 0.0408728 0.0323939 0.0413346 0.0530876 0.0534739 0.0413186 0.0570684 0.0610374 0.0727753 0.0735704 0.0772589 0.0680229 0.0942246 0.0893813 0.0769249 0.0839498 0.0766685 0.057452
46 3 O 1.31634 12.9512 51.3023 -1.2 1 0.120798 0.0901641 0.0278637 0.0372637 0.0365287 0.0448281 0.0435759 0.0753999 0.05904 0.0695757 0.0451262 0.0850358 0.068258 0.0658576 0.0787348 0.0717652 0.0745009 0.0735605 0.072576 0.0689169
47 3 O 1.16874 10.4245 58.0265 -1.2 1 0.00712958 0.0115485 0.0268647 0.0195597 0.0192124 0.0363501 0.0324127 0.046219 0.0490653 0.0476329 0.0369802 0.0502097 0.0552765 0.0645936 0.105201 0.0680136 0.0679399 0.0590128 0.0703145 0.0658051
48 3 O -0.115718 10.7564 50.681 -1.2 1 0.193031 0.0779008 0.022378 0.0194675 0.0450863 0.0344936 0.0499792 0.0652876 0.0505543 0.0564666 0.0615153 0.0511087 0.0643496 0.0733054 0.0890644 0.0782757 0.074557 0.0770429 0.0777257 0.0800814
49 1 Mg -3.26386 9.35564 52.3622 1.2 1 0.0855979 0.0522703 0.0279603 0.0313251 0.0175535 0.0533597 0.0355082 0.0583283 0.0314901 0.0832083 0.0325347 0.0506401 0.035233 0.0647299 0.0369339 0.109414 0.0461187 0.105841 0.0492698 0.0921834
50 3 O 2.45216 10.7265 50.4558 -1.2 1 0.19702 0.0915332 0.0200344 0.010711 0.0393581 0.0554077 0.0602744 0.0502598 0.0571986 0.0684581 0.0647009 0.0729644 0.0534719 0.0660061 0.0988837 0.0838407 0.0735095 0.0750952 0.0577359 0.0889002
51 1 Mg -1.79918 9.45369 55.2391 1.2 1 0.0182265 0.018019 0.0177496 0.0267701 0.012096 0.0255531 0.024932 0.0345586 0.038966 0.0573969 0.0578412 0.0572546 0.0611328 0.0661211 0.0663269 0.0698801 0.0810315 0.0928087 0.0703754 0.0773253
52 2 Si -1.8155 7.36267 53.3473 2.4 1 0.0450244 0.0469841 0.0264131 0.026479 0.0335987 0.0329349 0.044768 0.0537639 0.0611047 0.0620014 0.0599123 0.0631286 0.0763026 0.0486048 0.0699922 0.0647215 0.0657802 0.0871552 0.0655515 0.0599227
53 3 O -1.84433 5.81211 53.339 -1.2 1 0.0614196 0.0306534 0.0255212 0.016426 0.0217984 0.0353104 0.0322176 0.0680631 0.0490662 0.0664908 0.0334389 0.0749715 0.0550834 0.0735421 0.06263 0.0674005 0.0566029 0.0548379 0.0688909 0.0631706
54 3 O -1.19417 8.46968 46.4488 -1.2 1 0.525003 0.0664682 0.066809 0.0513948 0.0667358 0.0561406 0.0783159 0.0547011 0.0758997 0.071072 0.0568503 0.0509248 0.0697874 0.0982967 0.130201 0.113345 0.097406 0.0954085 0.0830496 0.0826705
55 3 O -3.0771 8.0709 54.0321 -1.2 1 0.0343212 0.0197628 0.02288 0.0221232 0.0279373 0.0243239 0.0543154 0.041736 0.0427112 0.0556601 0.0570147 0.0409613 0.0658175 0.0578933 0.0839311 0.0647969 0.0685935 0.0665274 0.0712723 0.0681171
56 3 O -0.544267 8.02277 53.9938 -1.2 1 0.0450937 0.0325596 0.0301245 0.0246686 0.0286243 0.027073 0.0370442 0.0483273 0.0437914 0.0516443 0.0593478 0.0504728 0.0579692 0.0615365 0.0853634 0.0583243 0.0800928 0.0677614 0.0715188 0.0743146
57 1 Mg -3.24752 16.5557 57.4453 1.2 1 0.00476064 0.0197295 0.00374583 0.0351583 0.003627 0.0376304 0.0039272 0.0566647 0.00700449 0.0804784 0.0081644 0.05027 0.00998689 0.0728091 0.0120748 0.107832 0.0163414 0.113087 0.0145268 0.0967425
58 1 Mg -1.6714 16.3544 49.8412 1.2 1 0.22979 0.0815258 0.0245724 0.0435387 0.0292238 0.0520562 0.0541648 0.0538081 0.047628 0.0618342 0.0642383 0.0644663 0.0731737 0.0760572 0.107168 0.085829 0.0738022 0.0937467 0.0835874 0.0840439
59 2 Si -1.18567 13.8526 47.9314 2.4 1 0.374561 0.0673488 0.0761808 0.0610933 0.0319955 0.0685861 0.0463674 0.0789867 0.062839 0.0669302 0.0527568 0.071737 0.0581766 0.0756899 0.0982663 0.0758949 0.103545 0.0968697 0.0897394 0.0909701
60 3 O -1.09664 15.4205 47.9915 -1.2 1 0.366234 0.0697675 0.0486403 0.06304 0.0452674 0.0922497 0.0630105 0.0820725 0.0570864 0.0896693 0.0538574 0.0715876 0.0615303 0.0836815 0.0819962 0.0742735 0.0953774 0.0786539 0.0749368 0.0686354
61 3 O -1.73493 12.7491 51.7772 -1.2 1 0.118101 0.05528 0.0327413 0.0291069 0.0342861 0.0526843 0.060256 0.050605 0.0678867 0.0514002 0.0574075 0.0485521 0.0542588 0.0830482 0.10279 0.0758559 0.0805498 0.0469569 0.0738392 0.0725071
62 3 O -2.36115 13.2717 48.8238 -1.2 1 0.302126 0.0968984 0.0608552 0.0265046 0.0583484 0.0523042 0.0596413 0.070204 0.060084 0.066114 0.0725724 0.0643578 0.0620846 0.0576115 0.0830933 0.0873853 0.0871793 0.078341 0.0810764 0.0894284
63 1 Mg -0.159928 11.7639 46.8533 1.2 1 0.482403 0.025456 0.0773462 0.0340379 0.0531875 0.0967321 0.0702244 0.0879026 0.0824136 0.0840696 0.0845356 0.0691144 0.0715809 0.091489 0.0772941 0.0862428 0.0974363 0.0978019 0.0990791 0.10554
64 3 O 0.2623 13.1866 48.413 -1.2 1 0.33968 0.0846619 0.0568203 0.0417442 0.0428257 0.0561302 0.0424234 0.0665857 0.0685407 0.0707029 0.0627697 0.0611381 0.0659682 0.089183 0.09878 0.0814802 0.093667 0.0964118 0.0824773 0.0872087
65 1 Mg 1.28113 11.9428 54.6573 1.2 1 0.00971714 0.0270783 0.015201 0.0311324 0.0139213 0.0236743 0.0263456 0.0363384 0.0436737 0.0573328 0.0647054 0.0558973 0.056919 0.065143 0.0645409 0.0908623 0.0680424 0.0809452 0.0801954 0.0784759
66 2 Si 1.28165 14.5287 56.4251 2.4 1 0.0181705 0.012431 0.01499 0.0258274 0.0282106 0.0357434 0.039034 0.0407442 0.0565714 0.0512362 0.0522868 0.0651177 0.0718544 0.055463 0.0742901 0.0721508 0.0633302 0.0914433 0.0549023 0.0496876
67 3 O 1.17867 12.9247 56.5924 -1.2 1 0.0354013 0.00728829 0.0190584 0.0220183 0.0196372 0.028553 0.0214962 0.0662157 0.0376369 0.051315 0.044661 0.0696869 0.0546525 0.0645972 0.0741741 0.0653134 0.0638775 0.0734014 0.0558114 0.0781489
68 3 O 1.36565 15.4813 52.729 -1.2 1 0.07583 0.041823 0.0259706 0.0233238 0.0255088 0.042015 0.051186 0.0539676 0.0505477 0.0467078 0.0465259 0.0485723 0.0586296 0.0627204 0.102513 0.0758684 0.0719045 0.0597664 0.071477 0.058113
69 3 O -0.0134121 15.1505 55.7867 -1.2 1 0.00348934 0.0162333 0.023515 0.0218927 0.0194565 0.0187197 0.0394257 0.0471071 0.0303357 0.0452839 0.0528037 0.0456428 0.0531172 0.0582482 0.0919742 0.0683655 0.0796502 0.0579062 0.0655797 0.0700698
70 3 O 2.55203 15.1281 55.7639 -1.2 1 0.0183744 0.0140694 0.0348101 0.0198697 0.0223019 0.0191546 0.0496216 0.0438946 0.0349805 0.042306 0.0573993 0.0357863 0.0524972 0.0676897 0.078506 0.0803598 0.0734833 0.0596088 0.0626466 0.0674089
71 1 Mg -0.206989 14.1049 52.2121 1.2 1 0.10587 0.0630086 0.0259175 0.0420229 0.0304532 0.0426814 0.034457 0.0730671 0.0259139 0.0891028 0.0252591 0.057225 0.0270412 0.075385 0.0324683 0.102914 0.0397162 0.105563 0.0411404 0.0999366
72 1 Mg 1.82591 13.8102 49.4556 1.2 1 0.268017 0.100487 0.0350429 0.0369872 0.0353174 0.0354285 0.0655651 0.0471125 0.0722483 0.0762753 0.0782905 0.0580141 0.0720185 0.071626 0.0849237 0.0892304 0.0771541 0.10075 0.0936122 0.086358
73 2 Si 1.29285 16.1518 51.2434 2.4 1 0.1254 0.0869271 0.0421248 0.0386352 0.038039 0.0518961 0.0532841 0.0434183 0.0543853 0.0687218 0.067385 0.0727663 0.0709801 0.068168 0.0918583 0.0831785 0.0750964 0.0879794 0.0747503 0.0606202
74 3 O 1.39496 17.7199 51.3047 -1.2 1 0.141953 0.0732579 0.0289319 0.0368693 0.0328712 0.0426436 0.0425239 0.0677898 0.0582256 0.0679228 0.0401527 0.0799711 0.0690933 0.0651755 0.0777579 0.0679328 0.0765538 0.075928 0.0675179 0.0716908
75 3 O 1.26846 15.2224 57.8884 -1.2 1 0.00775379 0.0201801 0.0275849 0.0136194 0.0139391 0.0360735 0.0334214 0.0474792 0.0515257 0.044224 0.0402981 0.0494796 0.046897 0.0622337 0.105367 0.0681653 0.0717649 0.0478166 0.0730401 0.0598218
76 3 O -0.0269106 15.5178 50.6688 -1.2 1 0.184114 0.08553 0.0190433 0.0274205 0.0441215 0.0358948 0.0583381 0.065428 0.0545926 0.0567127 0.0620371 0.0492188 0.0644372 0.0765413 0.092198 0.0810557 0.0763494 0.0831192 0.0750095 0.086839
77 1 Mg -3.18391 14.1057 52.3125 1.2 1 0.0747199 0.0551116 0.0334444 0.0350425 0.0166776 0.0522684 0.0344318 0.0643516 0.0313169 0.0808406 0.0316033 0.046729 0.0220222 0.0777159 0.0294153 0.111409 0.0420246 0.104598 0.0399006 0.0877846
78 3 O 2.52432 15.503 50.4579 -1.2 1 0.19174 0.0964269 0.0197676 0.0164345 0.0401771 0.0551142 0.0562095 0.0462777 0.0573202 0.0689766 0.0672026 0.0685972 0.0575614 0.0684867 0.102404 0.0775908 0.076652 0.0748631 0.0636954 0.0814791
79 1 Mg -1.77222 14.177 55.1288 1.2 1 0.0217265 0.0175146 0.0192472 0.0259756 0.0150742 0.026579 0.026769 0.0326892 0.0410446 0.0583809 0.0586091 0.0579235 0.0609897 0.0621361 0.067952 0.0793922 0.0732769 0.0972952 0.0621994 0.0895603
80 2 Si -1.70509 12.0651 53.2852 2.4 1 0.0427833 0.038915 0.0253531 0.0299086 0.0374488 0.0337709 0.0481536 0.056845 0.0603898 0.0608375 0.059836 0.0710949 0.0791034 0.0528243 0.0756997 0.0664545 0.0650813 0.0889039 0.062156 0.058811
81 3 O -1.7226 10.5357 53.2294 -1.2 1 0.0610723 0.0422622 0.0247403 0.0264421 0.0255628 0.0343112 0.0280845 0.0759735 0.0419382 0.0598546 0.0475618 0.0717947 0.0630037 0.0765546 0.0721047 0.0663713 0.0539014 0.0656358 0.0647083 0.0745527
82 3 O -1.21337 13.3381 46.4311 -1.2 1 0.520094 0.0676088 0.069964 0.0406061 0.0557478 0.0581764 0.0584341 0.0703517 0.0796315 0.0660712 0.0462204 0.0709393 0.0678096 0.0881355 0.121058 0.114842 0.1067 0.0999613 0.0600682 0.0915018
83 3 O -3.04159 12.8333 53.915 -1.2 1 0.0257687 0.0249267 0.0268159 0.0301076 0.0255512 0.0211551 0.0594898 0.0433317 0.038784 0.051731 0.0548926 0.0478754 0.0528138 0.06274 0.0883722 0.0674887 0.0684036 0.0536268 0.0624331 0.0749602
84 3 O -0.395685 12.7815 53.9022 -1.2 1 0.0384376 0.0289639 0.0289758 0.0234676 0.0265022 0.019165 0.0409336 0.0550912 0.0440614 0.0564847 0.0570632 0.0495129 0.0616505 0.0612467 0.0935519 0.0612934 0.0802273 0.0626159 0.0651338 0.0736315
85 1 Mg -3.07331 21.1898 57.4288 1.2 1 0.00742097 0.0111771 0.0150108 0.0280649 0.0136419 0.0383518 0.0123423 0.059415 0.0127239 0.0805947 0.0156942 0.0507119 0.0157903 0.071251 0.024569 0.102858 0.0207021 0.10808 0.0190397 0.0933464
86 1 Mg -1.5831 21.1217 49.8405 1.2 1 0.232879 0.0795095 0.025627 0.0366778 0.0345375 0.0469749 0.052579 0.0557617 0.0503291 0.0586482 0.0613961 0.0658281 0.0724371 0.0709507 0.100347 0.0798965 0.0734276 0.0970055 0.0864419 0.0840267
87 2 Si -1.09384 18.6291 47.9287 2.4 1 0.373807 0.0685185 0.0761113 0.0624129 0.0328934 0.0698804 0.0453655 0.079527 0.0655523 0.0694655 0.0514529 0.0707541 0.0603365 0.075353 0.0995284 0.0749465 0.104004 0.0939514 0.0905678 0.0901315
88 3 O -1.02071 20.1985 47.9911 -1.2 1 0.365616 0.0702171 0.0493212 0.0624591 0.0446544 0.0916011 0.0633306 0.082353 0.0561982 0.0885972 0.054608 0.0725313 0.0610147 0.0820959 0.0807367 0.0730259 0.0944438 0.0782167 0.0752754 0.0697117
89 3 O -1.65002 17.5002 51.771 -1.2 1 0.108961 0.058426 0.0353908 0.032659 0.030758 0.0547419 0.0616389 0.0502429 0.0652566 0.0550223 0.0576612 0.049912 0.0509485 0.0852217 0.103049 0.0762467 0.0802974 0.0455077 0.0731019 0.0730736
90 3 O -2.26174 18.0434 48.8281 -1.2 1 0.302208 0.0950438 0.0569112 0.0300691 0.0587426 0.0494249 0.0567046 0.0736511 0.0600929 0.067315 0.0698498 0.0600093 0.0561557 0.0602512 0.0777861 0.0852531 0.0856653 0.0809453 0.0836242 0.0890794
91 1 Mg -0.0440435 16.5651 46.8269 1.2 1 0.481119 0.0216794 0.0812909 0.0328272 0.0665237 0.0864639 0.0786024 0.0865804 0.0695676 0.0831597 0.0847961 0.0624751 0.0634819 0.0775585 0.076257 0.0939503 0.0940811 0.0963923 0.0992556 0.105398
92 3 O 0.37001 17.9877 48.3925 -1.2 1 0.34406 0.0816072 0.0590337 0.0398896 0.0443337 0.0599366 0.0442177 0.0650973 0.065192 0.0751121 0.0612695 0.0564687 0.0674723 0.0860286 0.0926981 0.0776842 0.0932587 0.100744 0.0815207 0.0874861
93 1 Mg 1.38227 16.5592 54.5512 1.2 1 0.00199228 0.0270197 0.0155997 0.0335033 0.0125072 0.021016 0.0278661 0.0363098 0.0479819 0.0584561 0.0592511 0.0562665 0.059978 0.0664618 0.0663167 0.0806471 0.0741893 0.0840989 0.0734161 0.0834115
94 2 Si 1.27228 19.2035 56.3705 2.4 1 0.0133102 0.013307 0.0238359 0.0268694 0.0330354 0.0341818 0.0388146 0.0435172 0.0499286 0.0530797 0.0534032 0.0637601 0.0721901 0.0563686 0.0781142 0.0691609 0.0609668 0.0923207 0.0579788 0.0553507
95 3 O 1.27018 17.6383 56.4134 -1.2 1 0.0180645 0.00891288 0.00940263 0.0246591 0.0263799 0.0261444 0.0163641 0.0691744 0.0319714 0.0601938 0.0369315 0.0689889 0.0587827 0.063272 0.0716553 0.0671675 0.0570166 0.0713306 0.0654045 0.0682965
96 3 O 1.45147 20.239 52.7294 -1.2 1 0.0659707 0.0418416 0.0304525 0.0194149 0.0282775 0.0451145 0.0497718 0.0543403 0.053147 0.0467634 0.0445537 0.0509474 0.0579956 0.0657923 0.104597 0.0736218 0.0727451 0.0598414 0.0714639 0.0609427
97 3 O 0.0067693 19.9261 55.7509 -1.2 1 0.00411867 0.0143312 0.0248562 0.0223318 0.0136644 0.0197395 0.04167 0.0466734 0.0332943 0.0434809 0.0533237 0.0438822 0.0525025 0.0517745 0.0987952 0.0709438 0.0747177 0.0628317 0.0613527 0.0725075
98 3 O 2.56267 19.8331 55.7451 -1.2 1 0.0121015 0.0193146 0.0287399 0.0180982 0.021548 0.0221915 0.0508104 0.0484571 0.0364011 0.0454769 0.0519227 0.0399746 0.048305 0.073972 0.0786115 0.0829394 0.0740131 0.0613561 0.06565 0.0690514
99 1 Mg -0.126194 18.8651 52.2079 1.2 1 0.103562 0.0649902 0.025272 0.0427513 0.0295784 0.0439869 0.0340947 0.0744331 0.0256423 0.0890369 0.0245659 0.0566443 0.0273483 0.0754959 0.0323122 0.104707 0.0394449 0.10696 0.0387264 0.106495
100 1 Mg 1.92402 18.5815 49.4545 1.2 1 0.267723 0.102165 0.0327337 0.0417361 0.0283962 0.0305162 0.0698036 0.0431737 0.0684106 0.0753518 0.080157 0.0593065 0.0761325 0.0698671 0.0842986 0.0898529 0.0775209 0.0996876 0.0892745 0.0874638
101 2 Si 1.38106 20.9117 51.2443 2.4 1 0.126893 0.0871303 0.0397427 0.0364148 0.0404905 0.0479036 0.052348 0.0452801 0.0556546 0.0686337 0.0657201 0.0731389 0.07165 0.0673721 0.0927087 0.0845636 0.0748077 0.0872471 0.0689389 0.0621256
102 3 O 1.48527 22.4795 51.3054 -1.2 1 0.131467 0.084602 0.0228752 0.0350881 0.0331316 0.0433588 0.0457771 0.0709072 0.0572541 0.0681415 0.0415453 0.0802678 0.0707571 0.0656705 0.0795044 0.070462 0.0772224 0.0745107 0.0660529 0.0710582
103 3 O 1.28144 19.8529 57.8905 -1.2 1 0.0104717 0.021609 0.0251659 0.018663 0.0138783 0.0318484 0.0345433 0.0495937 0.0561643 0.0442885 0.0435478 0.0484339 0.0499007 0.0681634 0.108595 0.074277 0.0668498 0.0488065 0.068175 0.0659598
104 3 O 0.0615419 20.2804 50.6669 -1.2 1 0.180517 0.0846334 0.0253341 0.0215576 0.0462527 0.0429695 0.0547197 0.0626996 0.0583545 0.0595604 0.0576041 0.0518079 0.0646638 0.0754857 0.0895572 0.0806074 0.0729948 0.0807055 0.0753586 0.0864046
105 1 Mg -3.09665 18.8643 52.3122 1.2 1 0.075321 0.0565695 0.031988 0.0328034 0.0173277 0.0544056 0.0333129 0.0627267 0.0322746 0.0789824 0.0346058 0.0503728 0.0245434 0.0731676 0.0309245 0.111167 0.0437486 0.103733 0.0418294 0.089096
106 3 O 2.61548 20.2646 50.4626 -1.2 1 0.196905 0.0927675 0.0293714 0.01723 0.0352477 0.0564183 0.0614314 0.0470423 0.0562728 0.067725 0.0664033 0.063719 0.0536734 0.0651282 0.0984288 0.0762226 0.0726608 0.0676003 0.0621289 0.0882994
107 1 Mg -1.82073 18.8364 55.0733 1.2 1 0.0231719 0.0126011 0.023955 0.029447 0.0153059 0.0272678 0.0209074 0.0347401 0.0422061 0.0584142 0.0546891 0.0552384 0.0596374 0.0627755 0.0631407 0.0774752 0.0695125 0.097364 0.0679643 0.083996
108 2 Si -1.57765 16.8489 53.196 2.4 1 0.0484897 0.0392383 0.0246119 0.0279568 0.0353936 0.0352033 0.0458317 0.0578468 0.0586394 0.062668 0.0562184 0.069936 0.0801642 0.0503682 0.0701387 0.0598004 0.066506 0.0911105 0.0596189 0.0628104
109 3 O -1.59621 15.313 53.1583 -1.2 1 0.0649893 0.0404496 0.0312141 0.0220118 0.0304698 0.0397636 0.0275705 0.0755263 0.0499 0.0618903 0.0441418 0.0743914 0.0527111 0.0750535 0.0731823 0.0650528 0.0538898 0.0717804 0.0600902 0.0760099
110 3 O -1.12868 18.1227 46.4249 -1.2 1 0.522073 0.0663974 0.0722462 0.0519343 0.0577387 0.0647698 0.0606475 0.0793264 0.0799607 0.0624757 0.0448484 0.0674187 0.0671337 0.0876474 0.116718 0.114962 0.107119 0.100654 0.0620089 0.09229
111 3 O -2.87209 17.4306 53.9533 -1.2 1 0.0277662 0.0237681 0.033409 0.0219842 0.02023 0.0290363 0.0480865 0.0469543 0.0393926 0.0569487 0.052969 0.0421883 0.0555173 0.0675089 0.0729892 0.0726079 0.0660425 0.0656939 0.0702571 0.0666081
112 3 O -0.261266 17.5366 53.8472 -1.2 1 0.0458018 0.0300299 0.0252165 0.0244952 0.0250148 0.0199355 0.0452677 0.0517336 0.0483171 0.0554203 0.0608664 0.0436165 0.0583716 0.0504694 0.0939063 0.0623181 0.0774106 0.0647165 0.0657034 0.0719996
113 1 Mg -3.07086 25.9695 57.3617 1.2 1 0.0123115 0.018248 0.00974615 0.0303478 0.00827118 0.0323938 0.0104547 0.0572722 0.0105572 0.0849608 0.0133423 0.0496805 0.0165597 0.072022 0.0181621 0.103123 0.0198033 0.11432 0.0259385 0.100737
114 1 Mg -1.48778 25.88 49.8402 1.2 1 0.225827 0.0856968 0.0216961 0.0427917 0.0306479 0.0514291 0.0547762 0.054817 0.049977 0.0609914 0.062116 0.0656549 0.0750281 0.075624 0.103744 0.0827441 0.0731186 0.0943109 0.0856621 0.0847012
115 2 Si -1.00491 23.3922 47.9274 2.4 1 0.3704 0.0704631 0.0743357 0.0675786 0.0360187 0.0766307 0.0410186 0.0830934 0.0690126 0.0738866 0.0493968 0.072884 0.0590286 0.0748325 0.0941421 0.0783182 0.103596 0.0947147 0.0880064 0.0955628
116 3 O -0.927602 24.9615 47.9909 -1.2 1 0.365466 0.0701953 0.0494098 0.0623481 0.0452177 0.0918257 0.0638104 0.0828959 0.056413 0.0875705 0.054423 0.0725425 0.0611268 0.081575 0.0803654 0.0731761 0.0940919 0.0763043 0.0744647 0.0698553
117 3 O -1.55795 22.2588 51.7696 -1.2 1 0.110612 0.0587836 0.0342246 0.0279696 0.0346566 0.053266 0.0588716 0.0502689 0.0665825 0.0542372 0.0555143 0.0488262 0.0515338 0.0840846 0.101152 0.0738421 0.0805831 0.043515 0.0727101 0.0759137
118 3 O -2.17411 22.8111 48.8277 -1.2 1 0.296694 0.102193 0.0629916 0.0269236 0.0624897 0.050981 0.0581588 0.0727575 0.0602686 0.0672607 0.0715108 0.060419 0.05563 0.0578459 0.079378 0.0889734 0.0870856 0.0783861 0.0845116 0.0916822
119 1 Mg 0.0423997 21.3296 46.8225 1.2 1 0.488432 0.0234831 0.0752771 0.0323573 0.0581176 0.0798287 0.068794 0.0815085 0.0737637 0.0871624 0.0864847 0.0627982 0.0639029 0.0804896 0.0766878 0.0902724 0.0945163 0.0990202 0.10142 0.108796
120 3 O 0.458537 22.7495 48.3911 -1.2 1 0.341122 0.0836364 0.0586944 0.0412735 0.0440118 0.0599116 0.0435324 0.0675126 0.0667941 0.0728163 0.0607708 0.0576766 0.0652939 0.0868829 0.095066 0.0769959 0.0936639 0.101058 0.0823383 0.0883212
121 1 Mg 1.41446 21.2633 54.5132 1.2 1 0.00717255 0.0259255 0.0156857 0.0305286 0.0143301 0.0165675 0.0229023 0.0296512 0.0476591 0.0589038 0.0589018 0.0570585 0.0583058 0.0653803 0.0636429 0.0795112 0.0759574 0.0933928 0.0724003 0.0831646
122 2 Si 1.37135 23.8701 56.3831 2.4 1 0.0137991 0.0174771 0.0219262 0.0258267 0.031514 0.0286781 0.0458381 0.0366872 0.0445887 0.0565181 0.0553028 0.0640177 0.0700596 0.0550179 0.0853051 0.0691808 0.065405 0.0897975 0.0585935 0.0578932
123 3 O 1.39548 22.3364 56.4752 -1.2 1 0.0259957 0.0141806 0.0136072 0.0214438 0.0249591 0.0253082 0.0184954 0.0728406 0.0364748 0.0568426 0.0410648 0.0692201 0.052452 0.0639797 0.0806559 0.070921 0.0540057 0.0701266 0.0591835 0.0801831
124 3 O 1.54441 24.9963 52.7297 -1.2 1 0.0674603 0.0426788 0.0278553 0.0224381 0.0232149 0.0427628 0.0517966 0.0538714 0.0525864 0.0469582 0.046782 0.0521597 0.0572176 0.0659913 0.103193 0.0720975 0.072153 0.0588463 0.0700588 0.06333
125 3 O 0.0211711 24.5786 55.7908 -1.2 1 0.00685323 0.014289 0.0255801 0.0231812 0.015754 0.0230263 0.0370288 0.0444827 0.0437538 0.0478513 0.0530061 0.0406081 0.0530063 0.0567087 0.0808542 0.0759699 0.0714281 0.0543879 0.0677868 0.0766594
126 3 O 2.53625 24.5816 55.5839 -1.2 1 0.0163799 0.0239968 0.0267258 0.0154019 0.0236727 0.0258975 0.0387348 0.0459939 0.0410165 0.0465573 0.0512177 0.0395369 0.0587075 0.0672446 0.082137 0.0809106 0.0742361 0.0751165 0.0589975 0.0641713