ITEM: TIMESTEP
60500
ITEM: NUMBER OF ATOMS
10500
ITEM: BOX BOUNDS xy xz yz pp pp pp
0	8.9688	2.9896
0	118.725	0
0	252.977	0
ITEM: ATOMS id type element xu yu zu q Q_1 Q_2 Q_3 Q_4 Q_5 Q_6 Q_7 Q_8 Q_9 Q_10 Q_11 Q_12 Q_13 Q_14 Q_15 Q_16 Q_17 Q_18 Q_19 Q_20 Q_21
1 1 Mg -3.48286 6.96386 57.8478 1.2 1 0.00856452 0.0277542 0.0110005 0.034761 0.0225434 0.0342316 0.0246603 0.043785 0.0391236 0.0723226 0.0346196 0.0523662 0.0288152 0.0595305 0.0431419 0.0908358 0.0642845 0.0993743 0.0686949 0.076476
2 1 Mg -1.82655 6.90154 50.0912 1.2 1 0.216368 0.0889249 0.0348962 0.0370852 0.0256714 0.0609043 0.045407 0.041387 0.0572411 0.0681071 0.0562734 0.0759817 0.0707652 0.0639167 0.0955051 0.0627792 0.0849042 0.0991032 0.0718445 0.0771168
3 2 Si -0.257935 3.96038 48.0876 2.4 1 0.374976 0.0676988 0.0708581 0.0349672 0.0621296 0.0500315 0.0713672 0.0747713 0.0579603 0.0763588 0.0590629 0.0724456 0.064413 0.0848974 0.0972223 0.101036 0.109896 0.0917395 0.0740537 0.0719123
4 3 O -0.335812 5.46814 47.6264 -1.2 1 0.427301 0.0396533 0.0638873 0.0312138 0.0411996 0.0497145 0.0651531 0.0686382 0.0869267 0.0758964 0.0917771 0.0759115 0.0699552 0.0671328 0.0919391 0.125499 0.0960653 0.0817198 0.076044 0.0799626
5 3 O -2.03793 3.43377 51.8941 -1.2 1 0.112727 0.057721 0.0314115 0.0235342 0.0225391 0.0553878 0.0570718 0.0506427 0.047222 0.05575 0.0657522 0.0547275 0.0475704 0.0785122 0.0900074 0.0807609 0.0684446 0.0607147 0.0752788 0.0738951
6 3 O -1.54015 3.53929 48.9521 -1.2 1 0.295178 0.0972616 0.0364579 0.0500187 0.0390438 0.0472099 0.0709362 0.0529888 0.0528507 0.0619812 0.0795625 0.0692269 0.0712112 0.0672978 0.071243 0.113247 0.0852827 0.0763769 0.0720485 0.0855269
7 1 Mg 1.82954 2.54582 47.1376 1.2 1 0.465844 0.0222663 0.0810347 0.0495755 0.0349953 0.0829953 0.0602733 0.0588349 0.075566 0.0882053 0.0683625 0.0765354 0.0825187 0.0859664 0.0708782 0.0974191 0.10235 0.103891 0.105989 0.101018
8 3 O 1.22989 3.66364 48.7877 -1.2 1 0.320759 0.0725487 0.02243 0.0445374 0.0327065 0.065367 0.0786243 0.0319377 0.0845514 0.0803876 0.0543603 0.0799701 0.0825296 0.069103 0.0672277 0.0877599 0.0924446 0.0918099 0.0975435 0.0911156
9 1 Mg 0.833721 2.18041 54.679 1.2 1 0.0116022 0.0219071 0.017398 0.0303292 0.0274534 0.0375524 0.0245771 0.0333828 0.0430159 0.0512932 0.0544605 0.054737 0.0617471 0.063828 0.0720899 0.0866651 0.0715834 0.0873305 0.0624528 0.0800537
10 2 Si 0.975696 4.94476 56.5455 2.4 1 0.0222278 0.0146363 0.0224433 0.0275714 0.0316432 0.0301031 0.0458046 0.0466819 0.0541844 0.0495391 0.0509248 0.06746 0.069831 0.0548745 0.0769366 0.077111 0.0611939 0.0964437 0.0626306 0.063446
11 3 O 0.950021 3.36161 56.7395 -1.2 1 0.0297964 0.015703 0.0203921 0.0181019 0.0152786 0.0309038 0.029507 0.0640416 0.0446959 0.040324 0.0473817 0.070371 0.0529576 0.0610517 0.0738072 0.0795566 0.0653709 0.0748796 0.054013 0.0803545
12 3 O 1.10813 6.07342 52.8172 -1.2 1 0.0793228 0.0390043 0.0332119 0.0198682 0.0281022 0.0433993 0.0434139 0.0581215 0.0528021 0.0442059 0.0593524 0.0472959 0.0749931 0.0684958 0.081205 0.0863623 0.0670569 0.0666744 0.0661559 0.0678158
13 3 O -0.219269 5.65173 55.7893 -1.2 1 0.0140954 0.00636419 0.0285182 0.0198927 0.0232067 0.0178271 0.044114 0.0437007 0.041309 0.0453995 0.0553232 0.0329053 0.0565388 0.0512955 0.089538 0.0724824 0.0707035 0.0739289 0.0569539 0.0630195
14 3 O 2.47921 5.54017 56.2807 -1.2 1 0.0223015 0.0129872 0.0278461 0.0205942 0.0266562 0.0217939 0.0421489 0.0441235 0.0603674 0.0365508 0.0518496 0.054211 0.0472597 0.0668451 0.0734825 0.0716329 0.0824657 0.0702727 0.0773115 0.051392
15 1 Mg -0.459401 4.67631 52.2426 1.2 1 0.09246 0.0611209 0.0401851 0.0435939 0.0309774 0.0278489 0.0445437 0.0595259 0.0423255 0.0806701 0.0449515 0.0604976 0.0479297 0.078162 0.0474169 0.101726 0.0532824 0.0904982 0.0574017 0.0881638
16 1 Mg 2.79456 3.9971 49.9987 1.2 1 0.223834 0.0944704 0.0293813 0.0400852 0.0422059 0.0605158 0.0565653 0.0546809 0.079363 0.0643308 0.0659451 0.057146 0.0623002 0.0696596 0.0863973 0.0749515 0.071693 0.0897185 0.0895483 0.0757357
17 2 Si 1.16169 6.59457 51.2556 2.4 1 0.128221 0.0926544 0.0410648 0.037646 0.0420172 0.0504125 0.0526375 0.0439608 0.0616913 0.0704159 0.0634901 0.0712082 0.0775556 0.0737051 0.085743 0.0879556 0.0725308 0.0895013 0.0757214 0.0692915
18 3 O 1.28989 8.18905 51.2909 -1.2 1 0.136155 0.0900575 0.0245935 0.0361051 0.0425351 0.0431697 0.0483712 0.0707503 0.0460092 0.0655411 0.0481722 0.0915255 0.0718702 0.0678293 0.0899994 0.0702807 0.0622192 0.0695049 0.0744778 0.0719941
19 3 O 0.853739 5.58147 58.1279 -1.2 1 0.00348118 0.0205657 0.0258043 0.0215247 0.0261663 0.0355009 0.0277276 0.0416037 0.0487842 0.0456865 0.0417003 0.0425052 0.0574626 0.0685906 0.0960401 0.0711768 0.0631978 0.0681709 0.0614186 0.0658497
20 3 O -0.184847 6.06029 50.6845 -1.2 1 0.177546 0.0889209 0.0258691 0.0284163 0.0378752 0.0330592 0.0548056 0.0601508 0.0590266 0.0585318 0.0688681 0.0772022 0.0687218 0.0590381 0.0892903 0.0719896 0.0828781 0.074455 0.0607657 0.0770623
21 1 Mg -3.49704 4.67769 52.6661 1.2 1 0.0747542 0.0450502 0.028036 0.0284559 0.0157332 0.041174 0.0360815 0.0591793 0.0515495 0.0670702 0.045162 0.0528517 0.052725 0.0539225 0.055616 0.0858478 0.0850581 0.0751548 0.0779934 0.0689023
22 3 O 2.48581 5.93312 50.6539 -1.2 1 0.18307 0.0986453 0.0296981 0.0177494 0.0393404 0.0510157 0.0621879 0.0612714 0.0499458 0.0681691 0.0544338 0.0634696 0.0603092 0.0628082 0.103359 0.0700317 0.076273 0.067832 0.0788484 0.0756854
23 1 Mg -1.93947 4.78435 55.3028 1.2 1 0.0273629 0.0150672 0.0201396 0.0284918 0.017578 0.0278975 0.0226934 0.0346392 0.0377789 0.0541991 0.0619601 0.0551854 0.0570228 0.0605042 0.0678523 0.0720485 0.0872508 0.0774065 0.073054 0.072429
24 2 Si -2.07622 2.59116 53.2054 2.4 1 0.0356509 0.0470084 0.0315308 0.0241087 0.0358593 0.0291686 0.0559736 0.0419312 0.0655072 0.0656392 0.0529292 0.0735216 0.0707255 0.0549772 0.069314 0.0535593 0.0739943 0.0899241 0.0712785 0.0580813
25 3 O -1.99648 1.01959 53.1221 -1.2 1 0.0492221 0.0419225 0.0224431 0.0216669 0.0267198 0.043025 0.0324197 0.0670713 0.063038 0.058354 0.0469067 0.0664287 0.0496238 0.0732407 0.0785563 0.0785798 0.0516776 0.0675765 0.0572074 0.0734499
26 3 O -0.0467762 2.97103 46.8385 -1.2 1 0.493605 0.0321205 0.0921727 0.0260909 0.0809256 0.0670752 0.0800151 0.0743195 0.0751469 0.0790747 0.080624 0.0730951 0.0951906 0.0894688 0.0915094 0.0897144 0.0977283 0.0939675 0.10296 0.111614
27 3 O -3.26575 3.29796 54.1735 -1.2 1 0.028864 0.0201731 0.0290598 0.0224669 0.0255029 0.0236784 0.0331995 0.0427638 0.0459878 0.0508948 0.0661452 0.0470959 0.0523881 0.0649552 0.0830803 0.0670153 0.066396 0.0734135 0.0705313 0.0626809
28 3 O -0.784555 3.1541 54.0573 -1.2 1 0.0242601 0.020932 0.0382605 0.0222788 0.0275196 0.0307471 0.0433563 0.0447631 0.0366596 0.0555819 0.066318 0.0493504 0.0543574 0.0813725 0.0725541 0.0706086 0.0818501 0.068095 0.0634522 0.063678
29 1 Mg -3.31476 11.8709 57.4798 1.2 1 0.00971586 0.0165612 0.00837516 0.0368009 0.00864938 0.0329241 0.017299 0.0586077 0.0226014 0.0762119 0.0258257 0.0505653 0.0260638 0.0726769 0.0317527 0.0944495 0.0358181 0.108683 0.0464667 0.0892713
30 1 Mg -1.75014 11.5838 49.8362 1.2 1 0.233491 0.078409 0.0269039 0.0390571 0.0289597 0.053645 0.0479102 0.0544014 0.0482127 0.0561416 0.062639 0.062003 0.072197 0.0714292 0.108694 0.0878971 0.0670137 0.0975829 0.0869182 0.0785805
31 2 Si -1.18003 9.02138 47.9309 2.4 1 0.367349 0.0713769 0.0667939 0.0532931 0.0412319 0.0622222 0.0761194 0.077264 0.0734221 0.0702605 0.0602268 0.0657889 0.0659262 0.080125 0.10134 0.0652906 0.100584 0.090064 0.10204 0.0895031
32 3 O -1.23224 10.5991 47.9811 -1.2 1 0.371318 0.07012 0.0600683 0.0562189 0.0531672 0.071439 0.0686257 0.0769808 0.0562131 0.0889368 0.0707424 0.0625882 0.0714352 0.0790312 0.083609 0.0717238 0.0910627 0.0808613 0.0663666 0.0755269
33 3 O -1.79016 8.01447 51.8693 -1.2 1 0.116371 0.0586725 0.0378438 0.0358619 0.0298285 0.0496986 0.0568888 0.0573705 0.0566925 0.0487277 0.0550325 0.0510829 0.0649197 0.0897391 0.0855036 0.0698915 0.0816792 0.051156 0.0702102 0.0708287
34 3 O -2.30986 8.37215 48.8528 -1.2 1 0.307456 0.092603 0.0699059 0.0257761 0.0536311 0.0621949 0.0697623 0.0684648 0.0575573 0.0669486 0.080231 0.0664636 0.0580559 0.0667012 0.0790424 0.0931304 0.101755 0.0813246 0.0746093 0.089047
35 1 Mg 0.154883 7.08234 46.8007 1.2 1 0.4878 0.0256142 0.0915694 0.032753 0.0586465 0.0758419 0.0619694 0.0725193 0.0740401 0.0823234 0.0871578 0.0744945 0.0789902 0.0799033 0.0695453 0.0920342 0.0902995 0.105424 0.114452 0.10555
36 3 O 0.325447 8.50934 48.3809 -1.2 1 0.347665 0.0793018 0.0590678 0.0434569 0.0353225 0.0534435 0.0363303 0.0576115 0.0622869 0.0640173 0.0748348 0.0640394 0.0774864 0.0911754 0.0911238 0.069705 0.092707 0.101615 0.0860443 0.0896492
37 1 Mg 1.24872 7.05854 54.9105 1.2 1 0.0195988 0.0286794 0.013967 0.0355065 0.0167331 0.0272215 0.0266512 0.0366893 0.0472801 0.0541315 0.0648452 0.0629651 0.0538162 0.0574953 0.0548118 0.101856 0.0638438 0.0843444 0.0652416 0.0881932
38 2 Si 1.19717 9.67997 56.4539 2.4 1 0.0167402 0.0142142 0.0160403 0.0229171 0.0331958 0.0345146 0.0411033 0.0398132 0.0569414 0.0480002 0.0555048 0.0644766 0.0692531 0.0534576 0.0768536 0.0749471 0.0648529 0.0958578 0.0582934 0.0573065
39 3 O 1.29308 8.08652 56.642 -1.2 1 0.0159429 0.0205403 0.0371703 0.0206537 0.0260559 0.0329712 0.0267543 0.0554665 0.0407772 0.0524732 0.0472512 0.0664688 0.0557433 0.0593678 0.0718475 0.0684475 0.0616384 0.0683115 0.0551097 0.0707351
40 3 O 1.28624 10.7248 52.7351 -1.2 1 0.0853724 0.0330195 0.0330417 0.021729 0.0268841 0.0494918 0.0451849 0.0527711 0.0484097 0.0491826 0.0540046 0.0506518 0.0611409 0.0726063 0.0926631 0.0767821 0.0696176 0.0540031 0.0773774 0.0621582
41 3 O -0.181091 10.3449 55.791 -1.2 1 0.0068957 0.0125373 0.0239523 0.0201624 0.0205202 0.0247108 0.0419846 0.0438681 0.0403687 0.0528297 0.0476145 0.0436928 0.0614505 0.060677 0.0872528 0.0811573 0.071636 0.0654113 0.053685 0.0719709
42 3 O 2.4433 10.3964 55.8397 -1.2 1 0.0251044 0.0100472 0.0347153 0.0186757 0.0222425 0.020886 0.0426204 0.0394969 0.0379537 0.0382734 0.0503022 0.0372468 0.0580949 0.0594683 0.0779646 0.0772713 0.083158 0.0696219 0.0635492 0.0661413
43 1 Mg -0.262694 9.34741 52.2523 1.2 1 0.117266 0.0608105 0.0223012 0.0403675 0.0385737 0.0414788 0.037506 0.0709504 0.0295629 0.089691 0.0316562 0.0589148 0.0306516 0.0733658 0.042775 0.105595 0.0512219 0.093169 0.0496819 0.101074
44 1 Mg 1.87648 9.01537 49.4629 1.2 1 0.272236 0.097275 0.043307 0.0375643 0.0377616 0.0488958 0.0680663 0.0485094 0.0791035 0.0626126 0.0816201 0.0508362 0.0808754 0.0692486 0.0841866 0.0926261 0.0863357 0.0990908 0.086432 0.0909491
45 2 Si 1.21415 11.3799 51.2378 2.4 1 0.133098 0.0862959 0.0412213 0.0360797 0.0392878 0.0525853 0.0537031 0.0429595 0.0584768 0.0651137 0.0703723 0.0753875 0.0800365 0.0737065 0.0945051 0.0920034 0.071449 0.0798122 0.0751743 0.0614558
46 3 O 1.31634 12.9512 51.3023 -1.2 1 0.138622 0.0765761 0.0321853 0.0360874 0.0421893 0.043402 0.0403844 0.0711721 0.0565589 0.0663766 0.0455966 0.0771173 0.068613 0.0688337 0.071638 0.0679687 0.0716768 0.0742882 0.0714874 0.0729308
47 3 O 1.15408 10.3147 57.8979 -1.2 1 0.0163522 0.0117995 0.0230627 0.0255974 0.0190384 0.0427513 0.0416407 0.0409367 0.0517166 0.0434044 0.0422982 0.0470252 0.0524053 0.0673448 0.105463 0.0731469 0.0663521 0.0536455 0.0763317 0.0621449
48 3 O -0.115718 10.7564 50.681 -1.2 1 0.182827 0.091251 0.0250862 0.0246508 0.0448876 0.0364932 0.0570968 0.0663894 0.0531942 0.0550887 0.0608015 0.0510133 0.0682383 0.0764965 0.0944991 0.0769315 0.0736348 0.0761206 0.0755917 0.0808325
49 1 Mg -3.26386 9.35564 52.3622 1.2 1 0.0809677 0.0527857 0.031332 0.0307189 0.0182177 0.055192 0.0371453 0.054355 0.0335099 0.0895172 0.0379284 0.0457146 0.0329988 0.0722681 0.0378405 0.108687 0.0442061 0.104642 0.0503574 0.0934101
50 3 O 2.45216 10.7265 50.4558 -1.2 1 0.193709 0.0940618 0.0215038 0.0152531 0.0377182 0.0595499 0.0598977 0.0437439 0.0599501 0.0706552 0.0670154 0.0672021 0.0557021 0.0740183 0.100051 0.080801 0.0720318 0.0814954 0.0588467 0.0847574
51 1 Mg -1.7928 9.30967 55.2859 1.2 1 0.0297292 0.0113418 0.0189353 0.0265031 0.01854 0.0293299 0.0269359 0.0363359 0.038324 0.0522767 0.058551 0.0590262 0.063534 0.065733 0.0675426 0.0734375 0.0804217 0.0924553 0.0635323 0.0756175
52 2 Si -1.88638 7.35377 53.4153 2.4 1 0.0298599 0.038818 0.0350955 0.0375407 0.0460819 0.0260045 0.0504955 0.0539488 0.0684846 0.0567395 0.0641111 0.0644095 0.0800267 0.0469777 0.0732413 0.068523 0.0769271 0.0807003 0.0612155 0.0517179
53 3 O -1.94951 5.82827 53.2408 -1.2 1 0.0414724 0.0519901 0.0206435 0.0227175 0.0279081 0.0351768 0.044432 0.0650809 0.0547517 0.0636314 0.0440754 0.0781068 0.0510951 0.0827223 0.0715593 0.0702013 0.0563263 0.0694186 0.0567643 0.074686
54 3 O -1.19417 8.46968 46.4488 -1.2 1 0.524971 0.0665222 0.0670742 0.05117 0.0667665 0.0575118 0.0794806 0.0547969 0.074978 0.0701942 0.0567417 0.0520492 0.0710716 0.098534 0.129263 0.111829 0.0969053 0.0959576 0.0832575 0.0832285
55 3 O -3.03829 7.92384 54.1982 -1.2 1 0.0301942 0.0181688 0.0255438 0.0285502 0.0251456 0.0260123 0.0389239 0.0475094 0.0415573 0.0581583 0.0591659 0.043643 0.0615421 0.0611059 0.0766414 0.0745878 0.0599757 0.0641331 0.0706806 0.0658296
56 3 O -0.539716 7.82406 54.2123 -1.2 1 0.0406001 0.022212 0.0185407 0.0274405 0.0289891 0.0422322 0.0308098 0.043638 0.0357365 0.0519447 0.0638579 0.0536863 0.0549998 0.0710416 0.0669026 0.0734631 0.0701156 0.070546 0.0662485 0.069175
57 1 Mg -3.06477 16.4695 57.161 1.2 1 0.0261949 0.00359231 0.0103777 0.0269587 0.0142944 0.0402349 0.0174052 0.0518381 0.0419373 0.0779194 0.0316237 0.0487798 0.0314583 0.0660383 0.0426223 0.0932478 0.0566706 0.0951997 0.0537378 0.0795227
58 1 Mg -1.6714 16.3544 49.8412 1.2 1 0.232875 0.079739 0.0223533 0.0434987 0.0287541 0.0501497 0.0531919 0.055249 0.0485895 0.059086 0.0606707 0.0641753 0.0726918 0.072531 0.101748 0.0861525 0.0751866 0.0953229 0.0829869 0.0835846
59 2 Si -1.18567 13.8526 47.9314 2.4 1 0.367587 0.0758931 0.0777548 0.0649604 0.0288133 0.0674233 0.0503095 0.0831104 0.06507 0.0675802 0.0531745 0.0737733 0.0602211 0.0765924 0.0983545 0.0746754 0.10427 0.0967672 0.0879964 0.091623
60 3 O -1.09664 15.4205 47.9915 -1.2 1 0.35789 0.0814113 0.0538005 0.0630831 0.0474811 0.0921965 0.0633601 0.0836183 0.0558971 0.0902525 0.0515043 0.0695129 0.0621524 0.0849925 0.0849177 0.075899 0.0942276 0.075452 0.0746078 0.0753581
61 3 O -1.73493 12.7491 51.7772 -1.2 1 0.117107 0.0565634 0.0324367 0.0280959 0.0359718 0.0508592 0.062253 0.0506389 0.0667629 0.0504958 0.0577178 0.0517577 0.0486243 0.0829422 0.101887 0.0786602 0.0817196 0.0499779 0.0733522 0.0734605
62 3 O -2.36115 13.2717 48.8238 -1.2 1 0.303522 0.0977133 0.0624669 0.0255304 0.0581229 0.0468768 0.0616705 0.072276 0.059334 0.0673863 0.0753942 0.0647435 0.0594669 0.057453 0.0825041 0.0864695 0.0862529 0.0768818 0.0836975 0.0888315
63 1 Mg -0.159928 11.7639 46.8533 1.2 1 0.482188 0.0247742 0.0780798 0.0328952 0.0527603 0.0977941 0.071032 0.0868247 0.0818715 0.0857041 0.0860011 0.0688884 0.071372 0.0920503 0.0778611 0.0862669 0.0976347 0.0992983 0.101224 0.106158
64 3 O 0.2623 13.1866 48.413 -1.2 1 0.342655 0.0800323 0.0557013 0.0370441 0.0444968 0.0555908 0.0405348 0.0669291 0.0697372 0.072722 0.0623884 0.0597051 0.0662823 0.0875084 0.0952517 0.0797652 0.0937252 0.0980696 0.0816781 0.0862202
65 1 Mg 1.45258 11.7435 54.6339 1.2 1 0.00740051 0.0207368 0.0131343 0.0352148 0.0165664 0.0249529 0.0251218 0.0384778 0.0472256 0.0608473 0.0606021 0.0490734 0.0616745 0.0684774 0.0701173 0.0854788 0.0708157 0.0867505 0.0649197 0.0793821
66 2 Si 1.106 14.3431 56.4429 2.4 1 0.0185014 0.00391404 0.0216194 0.0295406 0.0363043 0.0344328 0.0354236 0.0389079 0.0467649 0.0521379 0.0601176 0.0551713 0.0664192 0.0578668 0.0795191 0.0695683 0.0742754 0.0889219 0.0670224 0.0559234
67 3 O 1.1421 12.7722 56.5694 -1.2 1 0.0289837 0.0134901 0.017954 0.0260611 0.0271057 0.0295063 0.0186492 0.0626611 0.040789 0.052164 0.0418582 0.0683498 0.0550339 0.0622988 0.0720246 0.0679463 0.0690201 0.0707928 0.0581578 0.0771399
68 3 O 1.36565 15.4813 52.729 -1.2 1 0.0640922 0.0381037 0.033267 0.0248237 0.0273312 0.0445535 0.0582035 0.0560206 0.0537296 0.043635 0.0507717 0.0513266 0.0564532 0.0687639 0.101203 0.0753221 0.069437 0.0611424 0.0734083 0.0605411
69 3 O -0.131139 15.0883 55.8004 -1.2 1 0.0152286 0.0110628 0.0309449 0.0174658 0.0199512 0.0261094 0.0401254 0.0425516 0.0450655 0.0407726 0.0544232 0.0386482 0.0531525 0.0550631 0.0832923 0.0689323 0.0684076 0.059166 0.0663324 0.072916
70 3 O 2.35365 14.9631 55.6672 -1.2 1 0.0259892 0.0133689 0.0254861 0.0217492 0.0236564 0.0214812 0.0399431 0.045963 0.0363081 0.044792 0.0553112 0.0291578 0.0508173 0.0634889 0.0825232 0.0846428 0.0782802 0.077326 0.0576279 0.0604226
71 1 Mg -0.206989 14.1049 52.2121 1.2 1 0.100829 0.0676061 0.0238127 0.0430563 0.0325528 0.0422279 0.0351994 0.0715202 0.0224598 0.0889632 0.0237825 0.054675 0.0311332 0.0760763 0.0315781 0.103998 0.0454561 0.102294 0.0395066 0.101504
72 1 Mg 1.82591 13.8102 49.4556 1.2 1 0.26363 0.102377 0.0252297 0.042661 0.0325169 0.0365359 0.0701055 0.0454609 0.0686877 0.0753648 0.0794754 0.0592638 0.0743453 0.072991 0.082951 0.0904157 0.0775567 0.0960187 0.0900934 0.0872975
73 2 Si 1.29285 16.1518 51.2434 2.4 1 0.128872 0.0898737 0.0315581 0.0408569 0.0378948 0.0476401 0.0556072 0.0448749 0.0537724 0.0698294 0.0714867 0.0725952 0.073944 0.0651309 0.0930169 0.0861858 0.0734233 0.0836131 0.0749607 0.0567681
74 3 O 1.39496 17.7199 51.3047 -1.2 1 0.130688 0.083385 0.0253414 0.039368 0.0324548 0.045031 0.050753 0.0724309 0.056617 0.0698299 0.0447531 0.0788581 0.0693843 0.0596322 0.0821275 0.0678072 0.0722204 0.0791377 0.068824 0.0754635
75 3 O 1.32802 15.1222 57.8745 -1.2 1 0.0091401 0.023756 0.0198665 0.0193311 0.0151798 0.0409279 0.0418211 0.0428835 0.0487184 0.044449 0.0470551 0.0449506 0.0570262 0.070416 0.102487 0.0687785 0.0675341 0.0504777 0.0678667 0.0592875
76 3 O -0.0269106 15.5178 50.6688 -1.2 1 0.175825 0.0931865 0.0212699 0.0288923 0.0416765 0.0403437 0.0585727 0.0618823 0.0562355 0.0597851 0.0586032 0.0506578 0.0686005 0.0767979 0.0967002 0.079749 0.0766208 0.0848588 0.0692739 0.0826005
77 1 Mg -3.18391 14.1057 52.3125 1.2 1 0.0745713 0.0566112 0.0343842 0.0329137 0.0207564 0.0547927 0.0347212 0.05957 0.0348645 0.079729 0.0335017 0.0429512 0.0278143 0.0742271 0.0254037 0.111478 0.0442545 0.0999673 0.041871 0.087719
78 3 O 2.52432 15.503 50.4579 -1.2 1 0.189033 0.0960468 0.0223471 0.0109624 0.0435925 0.0547349 0.0624941 0.0527404 0.0556787 0.0626453 0.0695924 0.0682867 0.0549014 0.0649499 0.101969 0.0764 0.0755159 0.0697601 0.0592636 0.0860572
79 1 Mg -1.80715 14.144 55.1334 1.2 1 0.0287717 0.017352 0.0183849 0.0319952 0.0207945 0.0295516 0.0260272 0.0337613 0.0418133 0.0612356 0.0533432 0.0537689 0.0664047 0.0605445 0.0593304 0.0815961 0.0661895 0.0952835 0.07964 0.0793366
80 2 Si -1.80119 12.0611 53.2657 2.4 1 0.0388767 0.0362457 0.028061 0.0320908 0.0405689 0.0316555 0.0531248 0.0544271 0.0642221 0.0576389 0.0637941 0.0692522 0.0824995 0.0492851 0.0772667 0.0581382 0.0694509 0.0860857 0.058555 0.0536872
81 3 O -1.74652 10.4606 53.0364 -1.2 1 0.0592696 0.0547786 0.0213849 0.0196575 0.0357549 0.0390071 0.0386019 0.0720573 0.0585823 0.0470321 0.0561565 0.0699826 0.0629981 0.0751272 0.0778821 0.0759937 0.0435574 0.0726715 0.0522515 0.0858756
82 3 O -1.21337 13.3381 46.4311 -1.2 1 0.52001 0.0676589 0.0707177 0.0405627 0.0553879 0.0590924 0.059464 0.0700547 0.0788218 0.0654296 0.0465415 0.0720881 0.0689898 0.0880593 0.120568 0.114742 0.107104 0.100157 0.0596584 0.09156
83 3 O -3.10024 12.8034 53.9084 -1.2 1 0.0251881 0.0239891 0.025734 0.0283061 0.0204288 0.0288833 0.0589328 0.0511419 0.0413281 0.0505726 0.0535106 0.0448271 0.0532519 0.0617614 0.0902233 0.0646396 0.0711761 0.054294 0.0562193 0.0846289
84 3 O -0.487516 12.7572 53.9684 -1.2 1 0.0495491 0.018053 0.0336462 0.027951 0.0303729 0.0235547 0.0380759 0.0473182 0.042319 0.0530046 0.060945 0.0460211 0.0579557 0.0609222 0.0889947 0.0612285 0.0772826 0.0601932 0.0765518 0.0705355
85 1 Mg -3.09463 21.0846 57.5068 1.2 1 0.0101618 0.0201243 0.0124225 0.0313863 0.00745192 0.0380123 0.0177133 0.05581 0.0257602 0.077365 0.0221704 0.0528319 0.0208009 0.0691767 0.026164 0.104536 0.04072 0.114918 0.0359136 0.0943935
86 1 Mg -1.5831 21.1217 49.8405 1.2 1 0.230553 0.0806199 0.0228809 0.0441816 0.0277746 0.0508727 0.0543886 0.0524258 0.0516248 0.057495 0.0612391 0.0670537 0.0739454 0.0752407 0.101348 0.0830817 0.0713358 0.0937533 0.0827597 0.0844762
87 2 Si -1.09384 18.6291 47.9287 2.4 1 0.372463 0.068983 0.0697694 0.0699923 0.0264905 0.066824 0.0487101 0.0818244 0.0634632 0.0678187 0.0552484 0.0741874 0.0605125 0.0752147 0.099911 0.0728179 0.107444 0.0962479 0.0891607 0.0896493
88 3 O -1.02071 20.1985 47.9911 -1.2 1 0.365787 0.0698883 0.0492927 0.0629208 0.0464857 0.0929367 0.0625859 0.0814763 0.0568535 0.088354 0.0537518 0.072305 0.0607625 0.0806584 0.0799134 0.0705312 0.092628 0.0794302 0.0763445 0.0689533
89 3 O -1.65002 17.5002 51.771 -1.2 1 0.109147 0.0570794 0.0356699 0.0305012 0.0365839 0.0502032 0.060485 0.0517264 0.0654369 0.0497601 0.0605703 0.0479349 0.0518698 0.0870622 0.103355 0.0758351 0.0790565 0.0454717 0.0750297 0.0721499
90 3 O -2.26174 18.0434 48.8281 -1.2 1 0.30794 0.0899347 0.0550697 0.0326037 0.0578597 0.0451606 0.0551502 0.0736898 0.0639546 0.0680805 0.0722533 0.0578513 0.0504503 0.0587835 0.0786125 0.0856004 0.0869162 0.0806326 0.0858343 0.0885087
91 1 Mg -0.0440435 16.5651 46.8269 1.2 1 0.481117 0.022075 0.0811513 0.0318742 0.0663387 0.0865243 0.0786429 0.086387 0.0693111 0.0834315 0.0853003 0.0630704 0.0637742 0.0770418 0.0752632 0.0932266 0.0933656 0.0958006 0.0985822 0.104609
92 3 O 0.37001 17.9877 48.3925 -1.2 1 0.335625 0.0907143 0.0647051 0.0372139 0.0470394 0.0605766 0.0483716 0.067686 0.061773 0.0759337 0.0634412 0.0554981 0.0685242 0.0897226 0.0956401 0.0776343 0.0931692 0.103655 0.0802952 0.0861463
93 1 Mg 1.217 16.6316 54.6534 1.2 1 0.0202865 0.0200324 0.0218074 0.0325177 0.0177302 0.0257816 0.023878 0.0311476 0.046005 0.0555825 0.0685239 0.0508222 0.0522726 0.0641576 0.0637236 0.0912597 0.0656842 0.0839419 0.0813056 0.0780685
94 2 Si 1.49543 19.2583 56.3489 2.4 1 0.0235833 0.0215422 0.0177797 0.0270181 0.0272968 0.0320807 0.0395166 0.044439 0.0531027 0.0489776 0.0455582 0.066545 0.0691503 0.0527862 0.074227 0.0811578 0.0688499 0.0914831 0.057219 0.0614894
95 3 O 1.40523 17.6229 56.4756 -1.2 1 0.0301171 0.0120818 0.0200245 0.0242992 0.0317862 0.0254092 0.0235667 0.0741972 0.0405917 0.0527803 0.0397821 0.0689793 0.0552617 0.0631329 0.0747304 0.0638593 0.0578947 0.0681904 0.0576845 0.0734618
96 3 O 1.45147 20.239 52.7294 -1.2 1 0.0675189 0.0450276 0.0257588 0.0228846 0.0252891 0.0414025 0.0511251 0.0542265 0.0501299 0.047143 0.0476196 0.0469557 0.054372 0.0680874 0.0994916 0.0739855 0.0707809 0.0588362 0.0757414 0.0629943
97 3 O 0.363327 19.9191 55.6209 -1.2 1 0.00616828 0.00757942 0.0283862 0.0179877 0.0239086 0.0270066 0.0418373 0.041549 0.0392027 0.0492411 0.0506402 0.0410539 0.0575043 0.0516973 0.0941571 0.0711765 0.0724149 0.072121 0.061911 0.0548116
98 3 O 2.82574 19.763 55.9085 -1.2 1 0.0157273 0.0182871 0.0219617 0.0218762 0.0261164 0.0251442 0.0472307 0.0441162 0.0491656 0.0437651 0.0561398 0.040746 0.054785 0.0675102 0.0759338 0.069717 0.0768374 0.0724385 0.0685969 0.0661155
99 1 Mg -0.126194 18.8651 52.2079 1.2 1 0.104212 0.0641527 0.0257011 0.0428885 0.0309708 0.0441437 0.0375579 0.071767 0.0290188 0.0877458 0.026301 0.0521622 0.0329071 0.0740874 0.032574 0.105969 0.0383354 0.105559 0.0415267 0.102232
100 1 Mg 1.92402 18.5815 49.4545 1.2 1 0.256113 0.114851 0.0394696 0.04226 0.030755 0.0344181 0.0717595 0.0455319 0.074067 0.0728065 0.0772887 0.0548955 0.072147 0.0717051 0.086618 0.0952319 0.0751323 0.0938182 0.0831995 0.08926
101 2 Si 1.38106 20.9117 51.2443 2.4 1 0.133659 0.0831349 0.0368301 0.0298083 0.034689 0.0512934 0.0570025 0.0425874 0.0571253 0.0640701 0.0651604 0.0700551 0.0729884 0.0682636 0.0973567 0.0853205 0.0796598 0.0873217 0.0737832 0.063433
102 3 O 1.48527 22.4795 51.3054 -1.2 1 0.139353 0.0776816 0.0238817 0.0326023 0.0333547 0.0450014 0.0393749 0.0636385 0.0620737 0.0679553 0.0462014 0.0796216 0.067612 0.0679736 0.0791623 0.0673005 0.07366 0.0777764 0.0657427 0.0717843
103 3 O 1.31442 19.7982 57.9116 -1.2 1 0.0109594 0.0223014 0.0257041 0.0207585 0.0263808 0.0311518 0.0339798 0.0480185 0.0579205 0.0406379 0.0449503 0.0444055 0.0572684 0.0728174 0.0959965 0.0748313 0.0695758 0.0565749 0.069643 0.0630159
104 3 O 0.0615419 20.2804 50.6669 -1.2 1 0.173652 0.0906688 0.0262873 0.0261321 0.042419 0.045769 0.0594841 0.070322 0.0534317 0.0589901 0.0615315 0.0507604 0.0656234 0.0782722 0.0940187 0.0776293 0.0775537 0.0753638 0.070861 0.0903424
105 1 Mg -3.09665 18.8643 52.3122 1.2 1 0.0710054 0.0554526 0.036001 0.0339811 0.0153254 0.0561937 0.0373446 0.0620231 0.0354538 0.0819775 0.035209 0.0472317 0.0264617 0.0749054 0.0379191 0.111978 0.0433576 0.104966 0.0485331 0.0889128
106 3 O 2.61548 20.2646 50.4626 -1.2 1 0.19118 0.0972679 0.0222711 0.015637 0.044941 0.0500577 0.056365 0.0459185 0.0558337 0.0685236 0.0670198 0.0670658 0.0526497 0.0625519 0.101285 0.0747387 0.0774679 0.072326 0.065588 0.0850074
107 1 Mg -1.53885 18.8283 55.2681 1.2 1 0.0246896 0.0154763 0.0159439 0.0284263 0.0174602 0.0216406 0.0282484 0.0371312 0.0365374 0.0555874 0.0520246 0.067629 0.0594758 0.056608 0.0613747 0.0563812 0.0832418 0.0942903 0.0647042 0.081828
108 2 Si -1.68145 16.806 53.1559 2.4 1 0.0391962 0.0409431 0.0249094 0.033085 0.0439782 0.0344262 0.0539876 0.0572835 0.0601507 0.0625826 0.0580676 0.0688631 0.0757515 0.0534062 0.0793589 0.0667126 0.0724453 0.0856524 0.0615769 0.0601528
109 3 O -1.58305 15.2817 53.0035 -1.2 1 0.0675881 0.0541666 0.0208512 0.0216158 0.038971 0.0345006 0.0381062 0.0756686 0.0520987 0.0582365 0.0522397 0.0691687 0.0562591 0.0692416 0.0812356 0.0654161 0.0568828 0.0767263 0.0516107 0.0853091
110 3 O -1.12868 18.1227 46.4249 -1.2 1 0.522091 0.0669331 0.0728136 0.0521169 0.0576967 0.0651677 0.0611709 0.0793033 0.0796572 0.0621462 0.0447778 0.0677686 0.0674133 0.0871608 0.115932 0.114328 0.106824 0.100559 0.0622303 0.0926289
111 3 O -2.92216 17.4714 53.8644 -1.2 1 0.0309184 0.0281838 0.0337784 0.0266482 0.0271379 0.0244287 0.0548945 0.0438656 0.0467128 0.0473932 0.0527934 0.0459716 0.0609544 0.0726309 0.0850488 0.0681829 0.0787475 0.0610726 0.0702292 0.0750853
112 3 O -0.437801 17.4371 53.9268 -1.2 1 0.039812 0.0229606 0.0235693 0.0250825 0.0301004 0.0322478 0.0386862 0.0446907 0.0444887 0.0538193 0.0562762 0.0435287 0.0567623 0.0640072 0.0872082 0.0677944 0.0809976 0.0677478 0.0689301 0.0758465
113 1 Mg -3.21354 25.9954 57.5624 1.2 1 0.0100858 0.0134937 0.0124327 0.025309 0.0154734 0.0377867 0.0258135 0.0473262 0.041193 0.0782224 0.0272443 0.0424024 0.0373126 0.055205 0.0451435 0.0924343 0.0576364 0.102185 0.0619196 0.0786034
114 1 Mg -1.48778 25.88 49.8402 1.2 1 0.230571 0.0810825 0.0210951 0.0424144 0.0285228 0.0512663 0.0524464 0.052803 0.050614 0.0582341 0.0616917 0.0677559 0.073685 0.0738255 0.100029 0.083387 0.0734234 0.0969311 0.0845832 0.0836368
115 2 Si -1.00491 23.3922 47.9274 2.4 1 0.369566 0.0696517 0.0655884 0.0760471 0.0289652 0.0728487 0.0451046 0.0859357 0.0663012 0.0732048 0.0554158 0.0763363 0.058918 0.0768419 0.0969341 0.0727777 0.1036 0.0976134 0.0895079 0.0929677
116 3 O -0.927602 24.9615 47.9909 -1.2 1 0.365852 0.0693306 0.0482476 0.0622112 0.0460449 0.0926677 0.061859 0.0815438 0.0574424 0.0882241 0.0557588 0.0738346 0.0615008 0.0813361 0.0839234 0.0730767 0.0899737 0.0752667 0.0745956 0.0719612
117 3 O -1.55795 22.2588 51.7696 -1.2 1 0.112902 0.0560682 0.0330556 0.0266253 0.0321633 0.0546419 0.0588179 0.0519567 0.0641946 0.0513135 0.0575419 0.0495667 0.0523894 0.0830669 0.0999931 0.0749408 0.0807043 0.0424538 0.0775139 0.0756625
118 3 O -2.17411 22.8111 48.8277 -1.2 1 0.306651 0.0904279 0.0556794 0.0343877 0.0582154 0.0481734 0.052194 0.0730817 0.0607731 0.0670518 0.0719765 0.0590762 0.0541248 0.0550944 0.0780851 0.087729 0.0891732 0.0782564 0.0840638 0.0888096
119 1 Mg 0.0423997 21.3296 46.8225 1.2 1 0.484724 0.0207632 0.0788246 0.0298553 0.0623108 0.086366 0.0742559 0.0810688 0.0698531 0.0842889 0.0838168 0.0621201 0.0652852 0.0793155 0.0763836 0.0939601 0.0973664 0.0983065 0.0983326 0.105108
120 3 O 0.458537 22.7495 48.3911 -1.2 1 0.337102 0.0878418 0.0608571 0.0376851 0.0445305 0.06182 0.0447798 0.0695541 0.0653838 0.0749726 0.0627194 0.0553856 0.0677765 0.0892799 0.0957877 0.0765244 0.095723 0.104258 0.0792576 0.0871106
121 1 Mg 1.56145 21.4728 54.6674 1.2 1 0.0199142 0.0332666 0.0167553 0.0299148 0.0182586 0.0266076 0.0256443 0.0328532 0.0531494 0.0543715 0.0684066 0.054037 0.0579225 0.0633803 0.0657277 0.088062 0.075451 0.0861067 0.0755123 0.0772209
122 2 Si 1.47249 23.8684 56.3969 2.4 1 0.0202336 0.0118608 0.0157019 0.0260418 0.0330166 0.0251076 0.0396434 0.0379972 0.0423901 0.0540319 0.0533567 0.0598988 0.0621854 0.0612185 0.0807467 0.0749875 0.0668165 0.0931029 0.0545579 0.0598985
123 3 O 1.60941 22.3135 56.6555 -1.2 1 0.0215857 0.0139818 0.0216718 0.0238764 0.0183465 0.0267733 0.0277526 0.0555925 0.041988 0.0546634 0.0444684 0.0615406 0.0526983 0.0606293 0.0769639 0.0628059 0.0718436 0.0790751 0.0543736 0.0803997
124 3 O 1.54441 24.9963 52.7297 -1.2 1 0.0701518 0.0443074 0.0267845 0.0180517 0.0285316 0.0417357 0.0482719 0.05967 0.0543198 0.0466016 0.0485142 0.0481295 0.0561394 0.0641756 0.0988325 0.070991 0.0698066 0.0579754 0.0727069 0.05871
125 3 O 0.263311 24.5509 55.6781 -1.2 1 0.0122836 0.00707925 0.0312657 0.0180572 0.0165002 0.0329344 0.0417875 0.0405553 0.0343799 0.0485404 0.0553494 0.0360986 0.0529611 0.0685986 0.0735547 0.0789974 0.0655859 0.0606364 0.0678475 0.0724673
126 3 O 2.78973 24.614 55.8134 -1.2 1 0.0259734 0.0243609 0.026468 0.0197308 0.0219888 0.0132642 0.0424911 0.0402881 0.0467242 0.0452999 0.0512042 0.0392722 0.0507271 0.0637511 0.0774017 0.0760196 0.0674 0.0631562 0.0646855 0.0676395