ITEM: TIMESTEP
5300
ITEM: NUMBER OF ATOMS
10500
ITEM: BOX BOUNDS xy xz yz pp pp pp
0	8.9688	2.9896
0	118.725	0
0	252.977	0
ITEM: ATOMS id type element xu yu zu q Q_1 Q_2 Q_3 Q_4 Q_5 Q_6 Q_7 Q_8 Q_9 Q_10 Q_11 Q_12 Q_13 Q_14 Q_15 Q_16 Q_17 Q_18 Q_19 Q_20 Q_21
1 1 Mg -3.32064 7.08906 57.453 1.2 1 0.00900798 0.0125323 0.00552774 0.0284659 0.00671019 0.0340215 0.00855834 0.0542576 0.0092956 0.0862894 0.0110672 0.0524801 0.0111336 0.0703252 0.0114743 0.10104 0.0137604 0.115189 0.0182774 0.101953
2 1 Mg -1.82655 6.90154 50.0912 1.2 1 0.216213 0.090607 0.0322189 0.0355658 0.0309173 0.0550507 0.0472172 0.0455785 0.0548702 0.0703863 0.0551766 0.0744871 0.0707175 0.0628329 0.0968159 0.0628163 0.0861251 0.0988188 0.0732784 0.0773545
3 2 Si -0.257935 3.96038 48.0876 2.4 1 0.374666 0.0688056 0.0719121 0.0332507 0.0610937 0.0506549 0.0726767 0.0758873 0.060162 0.0779457 0.0571023 0.0721526 0.0642723 0.083866 0.0959663 0.10073 0.109179 0.090716 0.0715521 0.0715724
4 3 O -0.335812 5.46814 47.6264 -1.2 1 0.427026 0.0393785 0.0650829 0.0302336 0.041139 0.0493817 0.0651094 0.0703264 0.0874276 0.0759062 0.0921271 0.0758007 0.0706078 0.068049 0.09143 0.125002 0.0945586 0.0797144 0.0748966 0.0775898
5 3 O -2.03793 3.43377 51.8941 -1.2 1 0.113614 0.0604792 0.0278891 0.022719 0.0208419 0.0514197 0.0601591 0.0497225 0.0487256 0.0577617 0.0634924 0.0507984 0.0499266 0.0767145 0.0888471 0.0834211 0.067945 0.0548034 0.0735376 0.0689408
6 3 O -1.54015 3.53929 48.9521 -1.2 1 0.294811 0.0980608 0.0376543 0.0491275 0.0370607 0.0479216 0.0719035 0.0525655 0.0520201 0.0612809 0.0790963 0.0674877 0.0704757 0.0672193 0.0729206 0.112261 0.08327 0.0769171 0.0747601 0.0889174
7 1 Mg 1.82954 2.54582 47.1376 1.2 1 0.466118 0.021606 0.0800103 0.0501726 0.0354949 0.0827502 0.0600333 0.058793 0.0758213 0.0882381 0.068627 0.0770615 0.0823243 0.0853506 0.0698753 0.096225 0.101726 0.104472 0.106004 0.0991553
8 3 O 1.22989 3.66364 48.7877 -1.2 1 0.318291 0.073607 0.0211506 0.0471972 0.0314784 0.0644731 0.0800863 0.0328557 0.0823771 0.0790911 0.052542 0.0773949 0.0828522 0.0685615 0.0663173 0.0868304 0.0924137 0.0900465 0.094222 0.0921434
9 1 Mg 1.02517 2.29655 54.4943 1.2 1 0.00415409 0.0306926 0.0173614 0.0363442 0.0235591 0.0367582 0.0230039 0.0356215 0.0381758 0.0561731 0.0560906 0.0585165 0.0640791 0.0675721 0.0714457 0.0745474 0.0707712 0.0868298 0.0727128 0.0753963
10 2 Si 1.06 4.97306 56.4887 2.4 1 0.0190831 0.0164584 0.0243619 0.031552 0.0286711 0.0237827 0.0393596 0.0442903 0.0490742 0.0559035 0.0552843 0.0698941 0.0665389 0.0569149 0.0846214 0.0658815 0.0611304 0.0960373 0.0545088 0.0580365
11 3 O 0.977822 3.43341 56.6126 -1.2 1 0.025139 0.0171612 0.0171292 0.0260672 0.0183069 0.0212762 0.0254399 0.063273 0.0353994 0.0474063 0.0419567 0.0666942 0.0540292 0.0595116 0.0726613 0.0713653 0.0552509 0.0755601 0.0588576 0.0814212
12 3 O 1.10813 6.07342 52.8172 -1.2 1 0.0808061 0.0470587 0.0331104 0.0174608 0.0207397 0.0462262 0.0466401 0.0537406 0.0494199 0.0436679 0.0578566 0.0513112 0.0686699 0.0706291 0.0872879 0.0834985 0.0553685 0.0712212 0.0710551 0.0668463
13 3 O -0.225049 5.66444 55.8437 -1.2 1 0.0106554 0.00724186 0.0289995 0.0272548 0.0236003 0.023012 0.0407975 0.0429474 0.0383873 0.0493189 0.0561484 0.0443219 0.0515283 0.0577839 0.087172 0.0757816 0.0732607 0.0588641 0.0635984 0.0700999
14 3 O 2.34961 5.67354 55.8117 -1.2 1 0.0199574 0.013129 0.0303433 0.0175437 0.023555 0.0184566 0.0392866 0.0471604 0.0384873 0.0387608 0.0541942 0.0381929 0.050869 0.0635829 0.0856931 0.0709984 0.081574 0.0630209 0.0663629 0.0616456
15 1 Mg -0.459401 4.67631 52.2426 1.2 1 0.0903951 0.067075 0.0338112 0.0380608 0.0302209 0.030766 0.0397978 0.0600946 0.0428006 0.0825265 0.0428356 0.061431 0.0473937 0.0736469 0.0416828 0.0987173 0.0515544 0.0930647 0.0586995 0.0901332
16 1 Mg 2.79456 3.9971 49.9987 1.2 1 0.224557 0.0955319 0.0317996 0.0385962 0.0424391 0.0622886 0.0544564 0.0532782 0.0768188 0.06116 0.0624997 0.058097 0.0630917 0.0693901 0.0847029 0.0783577 0.0734526 0.0912473 0.0844215 0.0721035
17 2 Si 1.16169 6.59457 51.2556 2.4 1 0.135631 0.0881262 0.0372812 0.0336843 0.0411323 0.052647 0.0456842 0.0421107 0.0606981 0.0626303 0.0644695 0.0762092 0.0720981 0.0658166 0.0860285 0.0882713 0.0798005 0.0914894 0.0737097 0.0630918
18 3 O 1.28989 8.18905 51.2909 -1.2 1 0.134757 0.0933746 0.0217518 0.036459 0.0364273 0.049723 0.0392778 0.073684 0.0528557 0.071687 0.0466976 0.0917436 0.0680343 0.0611057 0.0770758 0.0704824 0.071831 0.0702706 0.0702452 0.073259
19 3 O 1.07492 5.69261 57.9714 -1.2 1 0.0128521 0.0178214 0.0258978 0.0152129 0.0196759 0.0322323 0.0300767 0.0448648 0.0515581 0.0439127 0.0421565 0.0474926 0.0468575 0.0671439 0.103928 0.0673367 0.069675 0.0492537 0.071392 0.0632483
20 3 O -0.184847 6.06029 50.6845 -1.2 1 0.181703 0.0865959 0.0190331 0.0315355 0.034433 0.0317174 0.0502232 0.0604059 0.0557193 0.0599372 0.0649447 0.0763949 0.0677874 0.0609246 0.089929 0.0712583 0.0825164 0.0791636 0.0623608 0.0783307
21 1 Mg -3.49704 4.67769 52.6661 1.2 1 0.0622653 0.0564564 0.0251284 0.0277375 0.0135992 0.0418418 0.0341077 0.0609084 0.0525339 0.0684662 0.0484591 0.0500872 0.0513122 0.0499824 0.0570168 0.0824718 0.0872163 0.0777497 0.0739584 0.0722779
22 3 O 2.48581 5.93312 50.6539 -1.2 1 0.189879 0.0945111 0.0311483 0.0195223 0.0352706 0.0493071 0.0590123 0.0575909 0.0458502 0.0663429 0.0493804 0.06435 0.0542064 0.0626811 0.103162 0.068411 0.0782837 0.0684557 0.0759943 0.0761421
23 1 Mg -1.93 4.64031 55.1827 1.2 1 0.0189711 0.0174379 0.0261575 0.0272133 0.0167061 0.0248224 0.0255139 0.0349758 0.0389804 0.0550177 0.0524898 0.0543579 0.0602971 0.06597 0.0622605 0.0715524 0.0797045 0.095985 0.0645654 0.087959
24 2 Si -1.96946 2.64303 53.3126 2.4 1 0.0373787 0.0368067 0.0323272 0.0265224 0.026838 0.0270603 0.0494842 0.0445486 0.064671 0.0647287 0.0553429 0.0676585 0.0820769 0.0506402 0.0690601 0.055001 0.0691263 0.0868972 0.0789691 0.0632361
25 3 O -1.99643 1.10927 53.1909 -1.2 1 0.0609072 0.0346939 0.0264325 0.0274302 0.0227958 0.0370789 0.0251054 0.0643201 0.0575497 0.0607872 0.051995 0.0696285 0.0550844 0.0719875 0.0749134 0.0722759 0.0505609 0.0660697 0.0669801 0.0741292
26 3 O -0.0467762 2.97103 46.8385 -1.2 1 0.497763 0.0373604 0.0877356 0.0295265 0.0801582 0.0681474 0.0813439 0.0718777 0.0723759 0.0789646 0.0812716 0.0754732 0.0970869 0.0885701 0.0885347 0.0887455 0.0994054 0.0971821 0.104893 0.110701
27 3 O -3.23672 3.27767 54.0864 -1.2 1 0.0312595 0.026281 0.0282839 0.0187859 0.0251606 0.0260267 0.0361306 0.043935 0.0502432 0.0540027 0.0626864 0.0450631 0.056973 0.0625523 0.0785637 0.0636966 0.0694598 0.0636629 0.0668169 0.0605609
28 3 O -0.661865 3.29695 53.9748 -1.2 1 0.0370949 0.0245612 0.0366672 0.0145259 0.0227262 0.025833 0.0480019 0.0467968 0.0433899 0.0510977 0.0615713 0.0444419 0.0526299 0.0766124 0.0825099 0.0651951 0.0836524 0.0703248 0.0627494 0.0620257
29 1 Mg -3.20281 11.8402 57.4633 1.2 1 0.0102557 0.0201875 0.00462009 0.0337129 0.00466346 0.0333361 0.00662985 0.0554253 0.00824967 0.0841853 0.00869313 0.0498693 0.0106819 0.0723942 0.0122381 0.103951 0.0169548 0.115562 0.0190668 0.0983587
30 1 Mg -1.75014 11.5838 49.8362 1.2 1 0.23045 0.0806811 0.0279837 0.0413328 0.0293649 0.0555188 0.049719 0.0544561 0.0463264 0.0596671 0.06626 0.0619975 0.0721724 0.071969 0.109376 0.0900632 0.0650905 0.0934171 0.085817 0.0805338
31 2 Si -1.18003 9.02138 47.9309 2.4 1 0.371323 0.0660357 0.0658158 0.0519735 0.0420925 0.0626091 0.0715882 0.0744348 0.0696811 0.0657316 0.0585602 0.0663825 0.0674486 0.0807804 0.101294 0.0643429 0.0999086 0.0910366 0.103245 0.0862667
32 3 O -1.23224 10.5991 47.9811 -1.2 1 0.375389 0.0649827 0.0588078 0.0547622 0.0520336 0.0712508 0.0662095 0.0757854 0.0545213 0.0855923 0.0704047 0.0646901 0.0726934 0.0798462 0.0834924 0.0695503 0.0910079 0.0826243 0.0650573 0.071772
33 3 O -1.79016 8.01447 51.8693 -1.2 1 0.113684 0.0615848 0.0325807 0.0294237 0.0310751 0.0472985 0.0583655 0.0569242 0.0572111 0.0532852 0.0497425 0.0518286 0.065712 0.0868737 0.0896029 0.0750865 0.0717989 0.0547482 0.0756707 0.0683127
34 3 O -2.30986 8.37215 48.8528 -1.2 1 0.311756 0.087566 0.0669241 0.024427 0.0537198 0.0617268 0.0670418 0.0655964 0.0574832 0.0666191 0.0799496 0.0665967 0.0567092 0.0647483 0.0788058 0.090857 0.0974934 0.079323 0.0751462 0.0940505
35 1 Mg 0.154883 7.08234 46.8007 1.2 1 0.497347 0.0366134 0.0755333 0.0386409 0.0650677 0.0759921 0.0597022 0.0676988 0.0705535 0.0828412 0.0890611 0.0760211 0.0789265 0.0796819 0.0698196 0.0919641 0.0929245 0.10838 0.113511 0.100153
36 3 O 0.325447 8.50934 48.3809 -1.2 1 0.338483 0.0926968 0.0689619 0.0424336 0.0368757 0.0543842 0.0411729 0.0631315 0.0618056 0.0646486 0.0780509 0.0666302 0.0787655 0.0935705 0.0937587 0.0714996 0.0944787 0.101748 0.084844 0.0903927
37 1 Mg 1.13999 7.11618 54.6001 1.2 1 0.0138075 0.0314718 0.0143188 0.0337564 0.0219432 0.0242229 0.0232208 0.0292069 0.0415749 0.0577091 0.0616361 0.0590436 0.0533057 0.0624692 0.063509 0.0877748 0.0669993 0.0851503 0.0817669 0.0791847
38 2 Si 1.26631 9.75198 56.4821 2.4 1 0.0148062 0.0179348 0.0189776 0.0304626 0.0294603 0.0322991 0.0414823 0.0392508 0.0521571 0.056057 0.0529465 0.0681824 0.066185 0.0592582 0.0849014 0.0705068 0.0574172 0.0911954 0.0547575 0.0620566
39 3 O 1.19064 8.18507 56.5656 -1.2 1 0.0351334 0.00876592 0.0157799 0.0215429 0.0235739 0.0304164 0.0227104 0.0638301 0.0371877 0.0527091 0.0418137 0.068222 0.0544562 0.0655574 0.0736366 0.0649072 0.0609585 0.0725718 0.0568576 0.0770106
40 3 O 1.28624 10.7248 52.7351 -1.2 1 0.0780365 0.0450952 0.0275365 0.0204012 0.0291513 0.0461874 0.0516878 0.0489115 0.0463087 0.0453296 0.0472662 0.0437236 0.0581838 0.0657141 0.0979899 0.0790524 0.0678504 0.0564798 0.0737382 0.0587615
41 3 O 0.0016024 10.4507 55.7941 -1.2 1 0.00904677 0.00808932 0.0332578 0.018312 0.0206036 0.021691 0.0444536 0.038749 0.0344299 0.0441628 0.0528037 0.0426373 0.0552143 0.0541219 0.0878383 0.0712774 0.0751049 0.058293 0.0637828 0.0680416
42 3 O 2.55007 10.4527 55.8195 -1.2 1 0.0182023 0.0175569 0.0348064 0.0155567 0.0241275 0.0175502 0.0469135 0.0450412 0.0395785 0.0462756 0.0547352 0.0440882 0.0534776 0.059899 0.0851691 0.0728851 0.0692632 0.0603324 0.064362 0.0676131
43 1 Mg -0.262694 9.34741 52.2523 1.2 1 0.115971 0.0624927 0.0205551 0.0412378 0.0345799 0.0418191 0.0375679 0.0713839 0.0282502 0.0874873 0.0279487 0.057274 0.0389797 0.0726199 0.0410546 0.102732 0.0506799 0.0958984 0.0512272 0.102578
44 1 Mg 1.87648 9.01537 49.4629 1.2 1 0.270592 0.09694 0.0387104 0.038021 0.0341911 0.048675 0.068546 0.0470526 0.0767306 0.0632051 0.0830325 0.0532079 0.084188 0.0672034 0.0853852 0.0945571 0.0875415 0.0945912 0.0842169 0.0896612
45 2 Si 1.21415 11.3799 51.2378 2.4 1 0.131117 0.0845986 0.041893 0.0370314 0.0404625 0.0518925 0.0517687 0.0419337 0.0574721 0.0643319 0.0751463 0.070659 0.076825 0.0687124 0.0919564 0.088014 0.0782752 0.0816182 0.0755923 0.0583273
46 3 O 1.31634 12.9512 51.3023 -1.2 1 0.125001 0.0895077 0.0234067 0.0334664 0.0299268 0.0470563 0.045295 0.0736619 0.0556738 0.0678171 0.0454146 0.0838482 0.0726053 0.0628726 0.0737383 0.0685437 0.0782083 0.0717163 0.0724918 0.0691742
47 3 O 1.26671 10.4488 57.9723 -1.2 1 0.00951616 0.0161805 0.0261548 0.0120233 0.0187285 0.0349281 0.0330321 0.0436172 0.0521645 0.0458469 0.0382256 0.0476177 0.0503187 0.0658729 0.103555 0.0686233 0.0690101 0.0549876 0.0741223 0.0630375
48 3 O -0.115718 10.7564 50.681 -1.2 1 0.189492 0.0806674 0.0229756 0.0201511 0.0457526 0.0344831 0.0516163 0.0653562 0.0510716 0.059425 0.0604509 0.0526302 0.0665569 0.0744263 0.0897078 0.0800955 0.0744677 0.0759113 0.0806276 0.0826975
49 1 Mg -3.26386 9.35564 52.3622 1.2 1 0.0837787 0.0517706 0.0306862 0.0313781 0.0165744 0.0563978 0.0363758 0.057831 0.0321904 0.0853711 0.0335926 0.052492 0.0357843 0.0662213 0.0378405 0.107396 0.0459872 0.10472 0.052574 0.0912072
50 3 O 2.45216 10.7265 50.4558 -1.2 1 0.197136 0.0920777 0.0195934 0.0123347 0.041956 0.0523804 0.0566539 0.0489491 0.0577576 0.0699169 0.0633445 0.0759431 0.0542876 0.0652667 0.098172 0.0832566 0.0741315 0.0751966 0.059149 0.0876517
51 1 Mg -1.74309 9.50376 55.1745 1.2 1 0.0182056 0.0139747 0.0224693 0.0288632 0.0168779 0.0169062 0.0264562 0.0305529 0.0389702 0.0539116 0.0580475 0.0598535 0.0601342 0.0626249 0.0666668 0.0752908 0.0768086 0.0963187 0.0744768 0.0800825
52 2 Si -1.83969 7.37375 53.3464 2.4 1 0.0487914 0.0398096 0.0289764 0.0308496 0.0347768 0.0319075 0.0477205 0.0526995 0.0594004 0.0601146 0.0583688 0.0616268 0.080213 0.0468798 0.0652616 0.0635015 0.0682043 0.0883981 0.0647816 0.0565784
53 3 O -1.92976 5.84055 53.3524 -1.2 1 0.0590663 0.033897 0.0247688 0.0135453 0.0223487 0.0341032 0.0374877 0.0671867 0.0484654 0.0667815 0.0381682 0.0761478 0.0572043 0.0732795 0.059083 0.0673074 0.0602482 0.0551404 0.0682719 0.0643678
54 3 O -1.19417 8.46968 46.4488 -1.2 1 0.524964 0.0665466 0.0672524 0.0514023 0.0666661 0.0568568 0.0788004 0.0543174 0.0753263 0.0708343 0.0569167 0.0509223 0.0695111 0.0980598 0.130286 0.113627 0.0974307 0.095381 0.0835241 0.0829599
55 3 O -3.15041 8.04907 53.9807 -1.2 1 0.0398131 0.0202081 0.0277562 0.0201533 0.0210085 0.030816 0.0469449 0.0469039 0.0400235 0.0539811 0.0546885 0.0449907 0.0544962 0.0581585 0.0832544 0.0686287 0.068984 0.0612393 0.065699 0.0730921
56 3 O -0.558024 8.07655 53.985 -1.2 1 0.0484853 0.032037 0.029495 0.0285309 0.0292619 0.0299285 0.0378389 0.0503281 0.0396395 0.0490246 0.0611138 0.0470568 0.0591299 0.0602568 0.0871709 0.0571966 0.0799629 0.0665122 0.073925 0.0692561
57 1 Mg -3.15198 16.5496 57.3867 1.2 1 0.00841559 0.0207506 0.00854473 0.0351161 0.00833159 0.0361357 0.00700357 0.0594115 0.00599359 0.0829325 0.00892265 0.0524085 0.0109541 0.0735123 0.0140042 0.105947 0.014271 0.112373 0.0152825 0.0989563
58 1 Mg -1.6714 16.3544 49.8412 1.2 1 0.229677 0.0817909 0.0259283 0.0429079 0.0292316 0.053392 0.0535023 0.0537455 0.047473 0.0616167 0.0622175 0.0641255 0.0738973 0.0773013 0.107668 0.0852758 0.0730798 0.0942359 0.0833872 0.0837208
59 2 Si -1.18567 13.8526 47.9314 2.4 1 0.379717 0.0598433 0.0687568 0.0647674 0.0285746 0.0664985 0.0465104 0.0790043 0.0600814 0.0659612 0.0542441 0.072206 0.0581409 0.0738983 0.0972309 0.0752101 0.103749 0.0974727 0.0905266 0.0890948
60 3 O -1.09664 15.4205 47.9915 -1.2 1 0.366202 0.069922 0.0490594 0.0628781 0.0449417 0.0921244 0.0635456 0.0828358 0.0565147 0.0888604 0.0548792 0.0720992 0.0603282 0.0829414 0.081905 0.0735908 0.0937673 0.0772726 0.0750876 0.0688101
61 3 O -1.73493 12.7491 51.7772 -1.2 1 0.117881 0.056467 0.0307602 0.0287786 0.0325367 0.0533063 0.0603009 0.050303 0.0659087 0.0529379 0.0568911 0.0480708 0.0562604 0.0828208 0.101732 0.0777286 0.0815443 0.0494541 0.0720783 0.0687355
62 3 O -2.36115 13.2717 48.8238 -1.2 1 0.306446 0.09256 0.0586274 0.0274168 0.0573583 0.0513523 0.0564161 0.0686343 0.0581526 0.0634121 0.0742929 0.0627625 0.0589381 0.0556594 0.0819723 0.0866442 0.0881819 0.0798388 0.0816855 0.0889693
63 1 Mg -0.159928 11.7639 46.8533 1.2 1 0.482444 0.0250553 0.0769713 0.0339774 0.0533533 0.0968113 0.0705378 0.0884956 0.0833974 0.0846147 0.0842211 0.0688185 0.0719863 0.0919637 0.0779541 0.0864036 0.0967856 0.0976547 0.100169 0.106449
64 3 O 0.2623 13.1866 48.413 -1.2 1 0.346467 0.0764641 0.0545148 0.0386302 0.04553 0.0582896 0.0405734 0.0618607 0.0657371 0.0713283 0.0624475 0.0597618 0.0661865 0.0869279 0.0966474 0.0821782 0.0942246 0.0979302 0.0823485 0.086455
65 1 Mg 1.32214 11.764 54.5921 1.2 1 0.0124116 0.0229763 0.0137247 0.03084 0.0122661 0.0168269 0.0191657 0.0324889 0.0472048 0.0604306 0.0567082 0.0538705 0.0561179 0.0639484 0.0596751 0.0819125 0.0696594 0.0966287 0.0724851 0.0821501
66 2 Si 1.32596 14.4702 56.4273 2.4 1 0.0182236 0.0190117 0.0179524 0.0258287 0.0291642 0.0320836 0.0385929 0.0398681 0.0515877 0.0550902 0.0547231 0.0682253 0.0706975 0.0598195 0.079355 0.0685557 0.0605871 0.0936792 0.0543804 0.0566439
67 3 O 1.29737 12.9434 56.4799 -1.2 1 0.0207732 0.0216104 0.0192946 0.026098 0.0193831 0.0288038 0.0236192 0.0730928 0.0358627 0.0529465 0.0412416 0.0708605 0.0578633 0.0665743 0.0738656 0.0709848 0.0564503 0.073081 0.0597771 0.0706157
68 3 O 1.36565 15.4813 52.729 -1.2 1 0.0681167 0.0465952 0.0254967 0.0196574 0.0285073 0.039267 0.0526848 0.0540787 0.0510169 0.046817 0.0455619 0.0464928 0.0574493 0.0694186 0.101048 0.0763796 0.0714357 0.0569792 0.0741363 0.0579442
69 3 O 0.0656797 15.1443 55.7066 -1.2 1 0.00722069 0.0114069 0.0290192 0.0196449 0.0188618 0.0209434 0.041348 0.0437943 0.0335103 0.0522492 0.051753 0.0419246 0.0530757 0.0596397 0.0884397 0.0743244 0.0723934 0.0605366 0.0621649 0.0682747
70 3 O 2.60052 15.1703 55.7924 -1.2 1 0.0153083 0.0101473 0.0262408 0.0178997 0.0245874 0.0188625 0.0496586 0.0481544 0.0344263 0.045508 0.0539594 0.0421727 0.0521089 0.0658498 0.0877274 0.0772586 0.0780593 0.0579965 0.0644537 0.0665833
71 1 Mg -0.206989 14.1049 52.2121 1.2 1 0.103889 0.0633196 0.0274473 0.0449369 0.0310723 0.0432456 0.036526 0.0735759 0.027997 0.0853734 0.0249499 0.0578279 0.0292339 0.0747379 0.0324983 0.107514 0.0427603 0.103859 0.0437892 0.0979257
72 1 Mg 1.82591 13.8102 49.4556 1.2 1 0.263072 0.10499 0.0327787 0.040348 0.0363669 0.0364227 0.0705637 0.043262 0.0708065 0.0708304 0.0746349 0.0589935 0.0737566 0.0701304 0.0871964 0.0961745 0.0800308 0.0984396 0.0878393 0.0811849
73 2 Si 1.29285 16.1518 51.2434 2.4 1 0.125444 0.086937 0.0413269 0.0378112 0.0378425 0.0518314 0.0524122 0.0445209 0.0549912 0.0673645 0.0668579 0.0728188 0.070918 0.0694544 0.0921459 0.0839669 0.0751233 0.084511 0.0709949 0.0631561
74 3 O 1.39496 17.7199 51.3047 -1.2 1 0.137226 0.0774099 0.0298644 0.0402868 0.0311554 0.0419505 0.0438148 0.072253 0.0549366 0.0635845 0.042554 0.0786159 0.0692119 0.0648269 0.0766575 0.0680894 0.0779124 0.0747239 0.0710053 0.0697592
75 3 O 1.35397 15.1474 57.9057 -1.2 1 0.00679472 0.0186356 0.0254885 0.0163829 0.0146186 0.0370714 0.0360475 0.0438012 0.0534586 0.0433215 0.044239 0.0436667 0.0494188 0.0709939 0.105826 0.0723738 0.068863 0.0510444 0.074913 0.0642458
76 3 O -0.0269106 15.5178 50.6688 -1.2 1 0.182479 0.0893763 0.0251918 0.0232196 0.0444449 0.0394392 0.0587659 0.0615401 0.05712 0.0598277 0.0581076 0.0490774 0.0630572 0.0741385 0.0934418 0.0807299 0.0754762 0.0795361 0.0744598 0.0894186
77 1 Mg -3.18391 14.1057 52.3125 1.2 1 0.0749025 0.0569957 0.0317053 0.0343882 0.0176323 0.0515764 0.0345144 0.0634292 0.0326104 0.0821594 0.0318736 0.0467971 0.0254262 0.0753491 0.0316751 0.111082 0.0454381 0.103621 0.0459051 0.0903029
78 3 O 2.52432 15.503 50.4579 -1.2 1 0.19227 0.0943228 0.0205824 0.0141917 0.044082 0.05152 0.0568884 0.0500462 0.0558938 0.0677111 0.0650252 0.0699993 0.0575327 0.0650819 0.103286 0.077607 0.0759969 0.0722698 0.0640052 0.0853026
79 1 Mg -1.7568 14.155 55.14 1.2 1 0.0243591 0.0179941 0.0184553 0.029577 0.0150992 0.0275997 0.0223253 0.0325591 0.040763 0.0573648 0.0564996 0.059867 0.0631059 0.0616542 0.0661085 0.0772608 0.0770909 0.0942295 0.0663775 0.0857592
80 2 Si -1.66406 12.0786 53.2456 2.4 1 0.0506666 0.0352809 0.0255181 0.0313339 0.0312555 0.0355483 0.0458364 0.055345 0.0585469 0.0631221 0.059983 0.067699 0.0808698 0.0511559 0.0689762 0.058057 0.0670107 0.0868681 0.0633411 0.0598642
81 3 O -1.78687 10.5377 53.2358 -1.2 1 0.0613665 0.0400578 0.0226956 0.0263558 0.0292533 0.0311398 0.0337011 0.0769208 0.0472022 0.0575948 0.0507152 0.0697729 0.059739 0.0776006 0.0716088 0.0642058 0.0505994 0.0613846 0.0693728 0.0740277
82 3 O -1.21337 13.3381 46.4311 -1.2 1 0.520233 0.0680105 0.0693456 0.0408343 0.0564449 0.0575985 0.0575191 0.0705186 0.0800553 0.0659989 0.0457336 0.0709898 0.0681296 0.0880689 0.120642 0.114342 0.106553 0.100169 0.0601463 0.0916671
83 3 O -2.94709 12.7921 53.9618 -1.2 1 0.0351764 0.0237074 0.0308652 0.026939 0.0229177 0.0260767 0.0513416 0.0440098 0.0434171 0.0522758 0.052977 0.0426355 0.0561781 0.0595339 0.0825394 0.0678932 0.0678879 0.0632664 0.0662705 0.0681564
84 3 O -0.371968 12.7474 53.881 -1.2 1 0.0468154 0.0249918 0.0335403 0.021025 0.0233691 0.0203117 0.0447922 0.0496552 0.0457036 0.0560013 0.056807 0.0466354 0.0584938 0.064883 0.0867029 0.0633313 0.0812128 0.0625655 0.0693032 0.0691495
85 1 Mg -3.00415 21.2737 57.3613 1.2 1 0.00628372 0.019082 0.00456766 0.0329145 0.00526009 0.0332299 0.00768442 0.0544117 0.0114912 0.0828921 0.00817882 0.0507963 0.010947 0.0704717 0.0121557 0.104485 0.0179187 0.115389 0.020294 0.0975525
86 1 Mg -1.5831 21.1217 49.8405 1.2 1 0.230045 0.0820816 0.0225558 0.0424269 0.0299013 0.0498352 0.0557378 0.0516234 0.0510318 0.05814 0.0618829 0.0667759 0.0729804 0.0715741 0.101132 0.0812255 0.0722569 0.0950843 0.0846542 0.0834123
87 2 Si -1.09384 18.6291 47.9287 2.4 1 0.373837 0.068393 0.0758706 0.0623604 0.0330625 0.0703072 0.0454547 0.0796041 0.0653086 0.0689653 0.0515214 0.0713968 0.060516 0.0748386 0.09918 0.0757773 0.105326 0.0932369 0.0894337 0.090058
88 3 O -1.02071 20.1985 47.9911 -1.2 1 0.365761 0.0699483 0.0493887 0.0629221 0.0451313 0.0918718 0.0633949 0.0827424 0.0568165 0.0886263 0.0548615 0.0725585 0.0607406 0.081714 0.0810021 0.0736924 0.0939003 0.0763375 0.0741864 0.0683142
89 3 O -1.65002 17.5002 51.771 -1.2 1 0.112114 0.0577583 0.0337675 0.0271439 0.0327501 0.0553918 0.058196 0.0494449 0.0644324 0.0531354 0.0568896 0.0494038 0.0526206 0.0831479 0.101392 0.0765836 0.0804229 0.0454743 0.0748533 0.0723002
90 3 O -2.26174 18.0434 48.8281 -1.2 1 0.29711 0.101441 0.0627947 0.027395 0.0626892 0.0509437 0.0582474 0.0737656 0.0593903 0.0661538 0.0716311 0.0610334 0.0552722 0.0582813 0.0793702 0.0882303 0.086394 0.0792016 0.0831317 0.0900366
91 1 Mg -0.0440435 16.5651 46.8269 1.2 1 0.484307 0.0193009 0.0791164 0.0306782 0.0621361 0.0838588 0.0732896 0.0823273 0.0710125 0.0849668 0.0845965 0.0625016 0.0651497 0.0795178 0.0769051 0.0940358 0.0960474 0.0982463 0.100356 0.106695
92 3 O 0.37001 17.9877 48.3925 -1.2 1 0.344602 0.079282 0.0570406 0.0390743 0.0451364 0.0599623 0.0421716 0.0679111 0.066804 0.0738685 0.0610689 0.0564045 0.0653584 0.0865888 0.0935888 0.0759406 0.0941172 0.102553 0.0811243 0.0848112
93 1 Mg 1.43583 16.5434 54.5272 1.2 1 0.00649189 0.0260436 0.0114449 0.033262 0.0136595 0.0178154 0.02399 0.0340452 0.0422126 0.0598786 0.0568387 0.0537102 0.0630578 0.0659338 0.0634209 0.0802624 0.0760731 0.0908524 0.0696068 0.0800989
94 2 Si 1.39511 19.2093 56.4044 2.4 1 0.0164418 0.0164627 0.0212132 0.0240966 0.0318253 0.0324423 0.0413868 0.041087 0.0497303 0.0535534 0.0522466 0.0662568 0.0707735 0.0555943 0.0811857 0.0695771 0.057584 0.0944108 0.0586153 0.0558793
95 3 O 1.36883 17.6574 56.4844 -1.2 1 0.0272577 0.013289 0.020372 0.0228125 0.0228799 0.025197 0.0247562 0.0715341 0.038464 0.0545323 0.0407441 0.0703004 0.0555122 0.0693203 0.0734481 0.0668993 0.0542744 0.0726818 0.0587598 0.0755985
96 3 O 1.45147 20.239 52.7294 -1.2 1 0.0742576 0.0435568 0.02549 0.0215833 0.0264084 0.0415388 0.0490632 0.0562116 0.0507668 0.0469099 0.043277 0.0489283 0.0571396 0.066234 0.100692 0.0729212 0.0682568 0.0610021 0.0717296 0.0605116
97 3 O 0.108501 19.8913 55.7702 -1.2 1 0.0105485 0.0121741 0.0332922 0.0201712 0.0151749 0.0185128 0.0415276 0.0432716 0.0368128 0.0455589 0.0534949 0.0400385 0.0519472 0.0610973 0.0888248 0.0709871 0.0753092 0.0578795 0.0655081 0.0698689
98 3 O 2.6662 19.8773 55.7092 -1.2 1 0.0187883 0.0143452 0.028592 0.0168899 0.0230503 0.0198712 0.0469257 0.0462358 0.0328131 0.0473871 0.0534499 0.0376121 0.0543174 0.0659085 0.0864111 0.0797305 0.0747488 0.05983 0.0646791 0.0639077
99 1 Mg -0.126194 18.8651 52.2079 1.2 1 0.102573 0.0645352 0.0263139 0.0448374 0.0322974 0.0425633 0.0358773 0.0737612 0.0281031 0.0867666 0.023517 0.0576512 0.0299681 0.0743514 0.0313653 0.107308 0.0437412 0.102387 0.0422923 0.100159
100 1 Mg 1.92402 18.5815 49.4545 1.2 1 0.264923 0.103835 0.0304032 0.0420462 0.0299398 0.0313406 0.0700877 0.0438774 0.0674261 0.0753944 0.0815519 0.0589273 0.0753625 0.0686165 0.0832203 0.0922133 0.0792097 0.0986455 0.0861554 0.0845511
101 2 Si 1.38106 20.9117 51.2443 2.4 1 0.124858 0.0870993 0.0403027 0.0377943 0.038083 0.0513261 0.051625 0.0451661 0.0551327 0.0674176 0.0667418 0.0723356 0.0711015 0.0681888 0.0913973 0.0849884 0.0766939 0.0838468 0.0714079 0.0617538
102 3 O 1.48527 22.4795 51.3054 -1.2 1 0.142781 0.0685525 0.0339916 0.0378137 0.0304634 0.0457073 0.0391235 0.0683942 0.0538764 0.0699344 0.0426432 0.0763551 0.0685595 0.0631348 0.0725638 0.0636564 0.0764697 0.0736547 0.0695024 0.0721683
103 3 O 1.44254 19.8878 57.889 -1.2 1 0.0122649 0.0227886 0.0254278 0.0141061 0.0181294 0.0361567 0.0328285 0.0449579 0.0532976 0.0456424 0.0422202 0.0444328 0.0507222 0.0683205 0.104451 0.072817 0.0655422 0.0514684 0.0734156 0.0652566
104 3 O 0.0615419 20.2804 50.6669 -1.2 1 0.180224 0.0828059 0.0241219 0.0216317 0.0454846 0.0427164 0.0516006 0.0659433 0.0577395 0.0594824 0.055796 0.0500863 0.0631316 0.0747654 0.0915198 0.0823287 0.0742322 0.0793635 0.0720254 0.0874664
105 1 Mg -3.09665 18.8643 52.3122 1.2 1 0.0729176 0.0585238 0.0312485 0.0349149 0.0171587 0.0535461 0.0336121 0.0629657 0.0334464 0.081686 0.0307325 0.0468057 0.0240708 0.074692 0.0324732 0.110647 0.0453128 0.10324 0.0442543 0.0886993
106 3 O 2.61548 20.2646 50.4626 -1.2 1 0.194509 0.0946553 0.0217996 0.0165873 0.0421578 0.0525054 0.0576974 0.0475561 0.0580515 0.0694269 0.0640527 0.068531 0.0557858 0.0628363 0.100393 0.0756992 0.0749941 0.0687686 0.0631903 0.0866485
107 1 Mg -1.62309 18.9576 55.096 1.2 1 0.0154438 0.0163996 0.0182739 0.0275067 0.0153145 0.0225293 0.0234086 0.0327353 0.0392395 0.0603472 0.0591615 0.0582285 0.0632336 0.0645278 0.0633279 0.0818931 0.0721932 0.0952335 0.0689895 0.0873076
108 2 Si -1.59389 16.7814 53.2809 2.4 1 0.058747 0.0352197 0.0179059 0.0210238 0.0314727 0.0313529 0.0476446 0.0529656 0.0528878 0.0636034 0.0627069 0.0644235 0.0781141 0.0534542 0.0733715 0.0636775 0.067902 0.0849302 0.0605176 0.0613815
109 3 O -1.60999 15.2204 53.1902 -1.2 1 0.0617326 0.0389557 0.0241059 0.0250088 0.031225 0.0323357 0.0278124 0.0778633 0.0465772 0.0631213 0.0447564 0.0686948 0.0571309 0.0739978 0.0744742 0.0617366 0.0499356 0.0686098 0.0661707 0.0777736
110 3 O -1.12868 18.1227 46.4249 -1.2 1 0.52203 0.066326 0.0724919 0.0519173 0.0575764 0.0649261 0.0608103 0.0792399 0.0798436 0.0624783 0.0452162 0.067822 0.067337 0.0875797 0.116634 0.114888 0.107075 0.100713 0.0622647 0.0925474
111 3 O -2.85081 17.4811 53.9993 -1.2 1 0.0268659 0.0242388 0.02606 0.0237496 0.0199661 0.0295667 0.0473034 0.0469327 0.0422503 0.0582408 0.0508496 0.0387884 0.0556121 0.0645247 0.0776302 0.0724963 0.0673519 0.0641513 0.0645118 0.0661282
112 3 O -0.303351 17.5056 53.8661 -1.2 1 0.0402326 0.0323436 0.0256469 0.0211446 0.029197 0.0143383 0.0473654 0.0492646 0.0477005 0.0515186 0.0563358 0.0478 0.0575578 0.0649976 0.0877255 0.0630584 0.0843315 0.0645725 0.0692108 0.0662889
113 1 Mg -2.92613 25.9981 57.4478 1.2 1 0.00525698 0.0228728 0.00315038 0.0363183 0.00194783 0.0364705 0.00316784 0.0552463 0.00558877 0.0817135 0.00706157 0.0516067 0.0086604 0.0697219 0.00933087 0.106075 0.0144488 0.115878 0.0131322 0.100839
114 1 Mg -1.48778 25.88 49.8402 1.2 1 0.226592 0.084185 0.0247071 0.0430693 0.0300068 0.0526057 0.0547488 0.0532242 0.0506144 0.061505 0.0629207 0.0647674 0.0738881 0.0742054 0.103414 0.0830409 0.0726998 0.0938536 0.0830278 0.0840814
115 2 Si -1.00491 23.3922 47.9274 2.4 1 0.375998 0.0620788 0.0657058 0.0720983 0.0313995 0.0738705 0.0415477 0.0835416 0.0661544 0.0732151 0.0530108 0.0747459 0.0593615 0.0742959 0.0940826 0.0760692 0.102593 0.0958074 0.0889704 0.092943
116 3 O -0.927602 24.9615 47.9909 -1.2 1 0.365787 0.0694477 0.0489573 0.0635795 0.0452353 0.0913295 0.0637048 0.0829829 0.0572084 0.088263 0.0549398 0.0730243 0.0607883 0.0813659 0.081175 0.0749638 0.0956166 0.0769629 0.0743325 0.0682604
117 3 O -1.55795 22.2588 51.7696 -1.2 1 0.112264 0.0574656 0.0337397 0.027263 0.0316735 0.0548125 0.0570359 0.0501661 0.0639752 0.0537413 0.0556212 0.0484649 0.0538083 0.0835504 0.101553 0.0761448 0.0810991 0.0473449 0.0741635 0.0715356
118 3 O -2.17411 22.8111 48.8277 -1.2 1 0.311233 0.084167 0.0518509 0.0358822 0.0560271 0.048306 0.0523671 0.0723219 0.0612092 0.0678922 0.0713231 0.0581944 0.0537711 0.0569149 0.0782473 0.084046 0.0847338 0.0794081 0.0831453 0.0870606
119 1 Mg 0.0423997 21.3296 46.8225 1.2 1 0.48162 0.0222892 0.0806542 0.0330829 0.0662222 0.0872905 0.0784234 0.0859996 0.0700417 0.0838108 0.0848289 0.0621463 0.0633323 0.0776493 0.07636 0.093844 0.0951056 0.0970243 0.0986672 0.104932
120 3 O 0.458537 22.7495 48.3911 -1.2 1 0.345324 0.0775568 0.0559566 0.0412836 0.0465645 0.0619881 0.0404268 0.0673008 0.0669044 0.0712325 0.0601087 0.057117 0.064386 0.086673 0.0950436 0.0767265 0.0942363 0.102189 0.0812059 0.0860367
121 1 Mg 1.48873 21.3144 54.5269 1.2 1 0.0078791 0.0333744 0.012948 0.0313468 0.0121488 0.0182327 0.0203701 0.0350092 0.0437401 0.058169 0.0563577 0.0537593 0.0597011 0.0662554 0.0624648 0.0821293 0.0729072 0.0899271 0.0730776 0.0771165
122 2 Si 1.52672 23.9519 56.4012 2.4 1 0.0172226 0.0163199 0.017168 0.0289244 0.0295159 0.0325633 0.041393 0.0392772 0.0512206 0.0558525 0.0523466 0.0640089 0.0707401 0.0588217 0.0811614 0.0710492 0.0586074 0.0937322 0.0559106 0.0590918
123 3 O 1.47427 22.4041 56.4562 -1.2 1 0.0252309 0.00551528 0.0208566 0.0261313 0.0255877 0.0238901 0.0180284 0.073287 0.0339421 0.0522576 0.0441483 0.0687729 0.0541032 0.0620424 0.0729104 0.0679603 0.0514124 0.0707874 0.062468 0.0735028
124 3 O 1.54441 24.9963 52.7297 -1.2 1 0.0687648 0.0438795 0.0289197 0.0232325 0.0266858 0.043228 0.0521995 0.0558765 0.0491656 0.0470311 0.0448285 0.048712 0.0571344 0.0674975 0.102308 0.0753621 0.0684322 0.0603964 0.0742986 0.060208
125 3 O 0.250303 24.6691 55.6755 -1.2 1 0.0132906 0.0150323 0.0229593 0.0185634 0.0202747 0.0204212 0.045444 0.0432204 0.0346655 0.0502697 0.0516214 0.0423747 0.0576574 0.0555377 0.0919384 0.0722313 0.0735468 0.0623183 0.060459 0.0645396
126 3 O 2.81569 24.6254 55.7179 -1.2 1 0.0200443 0.013168 0.0276112 0.0189638 0.0221858 0.0198258 0.0498513 0.0435159 0.0359819 0.0485621 0.0559477 0.0363306 0.0544257 0.0666116 0.0789321 0.0798381 0.0726051 0.0608616 0.0646137 0.0701632