ITEM: TIMESTEP
4100
ITEM: NUMBER OF ATOMS
10500
ITEM: BOX BOUNDS xy xz yz pp pp pp
0	8.9688	2.9896
0	118.725	0
0	252.977	0
ITEM: ATOMS id type xu yu zu q pCrystal pDisloC pDisloB pDisloA
1 1 -3.48602 7.00926 57.2054 1.2 5.163040688185321e-11 0.003746188802188358 4.6417267050482146e-54 0.9962538111461815
2 1 -1.88771 7.12401 49.5564 1.2 0.0 1.7044361836661562e-163 0.0 1.0
3 2 -0.463265 4.11008 47.3331 2.4 2.0275914701353425e-198 0.0 0.0 1.0
4 3 -0.722553 5.5927 47.0049 -1.2 0.0 0.0 0.0 1.0
5 3 -2.13441 3.52333 51.1573 -1.2 2.41005e-319 0.0 0.0 1.0
6 3 -1.77434 3.57686 48.1252 -1.2 0.0 0.0 0.0 1.0
7 1 1.42536 2.41147 46.2276 1.2 0.0 1.2384312232098343e-200 0.0 1.0
8 3 0.971719 3.6745 48.0923 -1.2 0.0 0.0 0.0 1.0
9 1 1.04167 2.42174 53.9454 1.2 5.276763019204606e-117 1.229350767615127e-35 0.0 1.0
10 2 0.859991 5.17973 55.9663 2.4 0.0006944304399602811 6.479945028932332e-57 3.4577292931736364e-88 0.9993055695600397
11 3 0.927942 3.59222 55.8885 -1.2 7.782501848771597e-23 3.03264337819763e-58 7.560779545061767e-100 1.0000000000000018
12 3 1.17382 6.28112 52.2022 -1.2 2.2515272475934646e-213 0.0 0.0 1.0000000000000253
13 3 -0.376021 5.75929 55.32 -1.2 3.311672569401799e-33 3.0434123155317555e-89 1.8788963984799273e-145 1.0000000000000067
14 3 2.16174 5.87047 55.1961 -1.2 6.458030869821086e-34 6.910711231177235e-87 1.5883054490087114e-146 0.9999999999999907
15 1 -0.624761 4.72237 51.4984 1.2 0.0 1.5513951646350002e-106 0.0 1.0
16 1 2.64997 4.17392 49.2608 1.2 0.0 8.060562543763331e-145 0.0 1.0
17 2 1.08752 6.78186 50.5512 2.4 1.7726397337782982e-159 0.0 0.0 1.0
18 3 1.46762 8.34764 50.5851 -1.2 0.0 0.0 0.0 1.0
19 3 1.06171 5.73909 57.4988 -1.2 0.00012375263713488194 1.189114717313065e-13 3.566559704818585e-43 0.9998762473627508
20 3 -0.260471 6.15048 50.0335 -1.2 0.0 0.0 0.0 1.0
21 1 -3.76527 4.69172 51.9473 1.2 5.04e-322 1.320110661603664e-90 0.0 1.0
22 3 2.3958 6.11894 50.029 -1.2 0.0 0.0 0.0 1.0
23 1 -2.13515 4.87972 54.6316 1.2 8.885646833259268e-66 2.6032126618204666e-16 1.0221917653423351e-232 1.000000000000026
24 2 -1.97593 2.77651 52.6333 2.4 5.695498945775868e-88 0.0 0.0 1.0
25 3 -1.9686 1.0998 52.4716 -1.2 4.7592164487995605e-193 0.0 0.0 1.0000000000000104
26 3 -0.245536 3.30999 45.9102 -1.2 0.0 0.0 0.0 1.0
27 3 -3.14205 3.50721 53.4173 -1.2 8.218512152298787e-122 0.0 0.0 0.9999999999999581
28 3 -0.662955 3.30782 53.2544 -1.2 2.769203444824839e-134 0.0 0.0 1.0000000000000482
29 1 -3.26063 11.9581 57.1227 1.2 3.48438847911777e-15 0.00012340441849930544 4.836560491999209e-68 0.9998765955814988
30 1 -1.53871 11.9505 49.5626 1.2 0.0 6.067621843333827e-185 0.0 1.0
31 2 -1.155 9.21067 47.3146 2.4 1.8278353249929032e-148 0.0 0.0 1.0
32 3 -1.07776 10.8423 47.391 -1.2 0.0 0.0 0.0 1.0
33 3 -1.66756 8.24993 51.2953 -1.2 5.267813240740584e-301 0.0 0.0 0.9999999999997877
34 3 -2.31583 8.45518 48.1717 -1.2 0.0 0.0 0.0 1.0
35 1 -0.378444 7.23271 46.0878 1.2 0.0 8.71526713224553e-255 0.0 1.0
36 3 0.272286 8.65394 47.7077 -1.2 0.0 0.0 0.0 1.0
37 1 1.14979 7.2449 54.0948 1.2 1.2054573417575636e-118 3.352226299235125e-35 0.0 1.0
38 2 1.21276 9.78657 56.1385 2.4 0.003401955883142197 4.4830941108124864e-63 4.828243461709866e-96 0.9965980441168563
39 3 1.22969 8.26367 56.0865 -1.2 7.502594047425082e-20 4.67858650976248e-50 2.7150232842101763e-95 1.0000000000000009
40 3 1.52081 10.8829 52.2003 -1.2 1.7813626577465671e-237 0.0 0.0 0.999999999999982
41 3 0.0165538 10.4812 55.3974 -1.2 2.3220129144748858e-43 1.6097801909864084e-107 5.573612708133395e-174 1.0000000000000067
42 3 2.46008 10.4839 55.4852 -1.2 5.389716190888908e-33 6.874890821854429e-84 6.131047865146003e-142 0.9999999999999957
43 1 -0.1827 9.56468 51.588 1.2 0.0 2.6119152612186903e-100 0.0 1.0
44 1 1.77886 9.31312 48.6815 1.2 0.0 2.1293638503360674e-195 0.0 1.0
45 2 1.40714 11.5883 50.7922 2.4 2.743618535427644e-169 0.0 0.0 1.0
46 3 1.54742 13.155 50.9531 -1.2 0.0 0.0 0.0 1.0000000000000362
47 3 1.18138 10.4079 57.62 -1.2 2.931755252437684e-05 1.2453665042168704e-14 2.1019713523314523e-47 0.9999706824474576
48 3 0.0295794 11.0344 50.2703 -1.2 0.0 0.0 0.0 1.0000000000001208
49 1 -3.28191 9.28368 51.8841 1.2 0.0 2.5014038480169145e-116 0.0 1.0
50 3 2.61145 10.9446 49.7199 -1.2 0.0 0.0 0.0 1.0
51 1 -1.93154 9.54315 54.7341 1.2 5.386284369924974e-72 2.1708489590739117e-19 2.1958828720809325e-248 1.0000000000000129
52 2 -1.79154 7.43933 52.8705 2.4 2.2363798123889215e-70 0.0 0.0 1.0
53 3 -1.9213 5.8845 52.6767 -1.2 4.687734186668505e-176 0.0 0.0 1.0000000000000384
54 3 -1.30546 8.8421 45.8087 -1.2 0.0 0.0 0.0 1.0
55 3 -3.06448 8.19156 53.5099 -1.2 1.010919674295083e-131 0.0 0.0 1.0000000000000302
56 3 -0.518319 8.07842 53.442 -1.2 1.0988094619811704e-122 0.0 0.0 1.0000000000000189
57 1 -3.13949 16.5548 57.0866 1.2 1.6435699631309856e-15 0.0005675770366504264 2.1799889879558155e-73 0.9994324229633469
58 1 -1.31095 16.6714 49.5001 1.2 0.0 5.681869703759955e-177 0.0 1.0
59 2 -0.733525 14.2546 47.4677 2.4 3.266993979716865e-175 0.0 0.0 1.0
60 3 -0.876696 15.7769 47.5107 -1.2 0.0 0.0 0.0 1.0
61 3 -1.54679 12.8535 51.4099 -1.2 0.0 0.0 0.0 1.0000000000002092
62 3 -1.88236 13.5303 48.2599 -1.2 0.0 0.0 0.0 1.0
63 1 -0.319119 11.9355 46.0911 1.2 0.0 1.3527307936989092e-295 0.0 1.0
64 3 0.685973 13.5562 47.9952 -1.2 0.0 0.0 0.0 1.0
65 1 1.48812 11.9952 54.1391 1.2 1.5252612174240176e-134 3.731670329056424e-40 0.0 1.0
66 2 1.33023 14.5635 56.0192 2.4 0.002646442431606646 9.55994702982443e-70 7.576858189997423e-104 0.9973535575683893
67 3 1.35956 13.0042 56.1911 -1.2 1.9564834947458969e-19 1.6687199430712015e-47 1.0923634831791734e-96 1.0000000000000016
68 3 1.51242 15.7615 52.1147 -1.2 1.5735055382606167e-261 0.0 0.0 1.0000000000000577
69 3 0.0557197 15.2241 55.5487 -1.2 1.3433322112839883e-34 6.322298977330693e-85 4.31250156588663e-152 0.9999999999999936
70 3 2.54073 15.1589 55.1949 -1.2 7.293102342808668e-40 6.66035721724567e-99 2.5091493555264157e-171 1.0000000000000098
71 1 -0.133985 14.3243 51.4398 1.2 0.0 1.169924169987463e-125 0.0 1.0
72 1 2.27309 14.0568 48.9097 1.2 0.0 1.687493278264921e-210 0.0 1.0
73 2 1.52271 16.3981 50.6557 2.4 1.5752860582406918e-166 0.0 0.0 1.0
74 3 1.61474 17.8625 50.7874 -1.2 0.0 0.0 0.0 0.9999999999999358
75 3 1.37336 15.2296 57.571 -1.2 1.117053064838795e-05 3.13319405115709e-17 5.380685840253382e-51 0.9999888294693501
76 3 0.338811 15.7043 49.9862 -1.2 0.0 0.0 0.0 1.0
77 1 -3.07348 14.3253 52.0135 1.2 0.0 9.081877007692058e-119 0.0 1.0
78 3 2.84933 15.7012 49.9974 -1.2 0.0 0.0 0.0 1.0
79 1 -1.64533 14.2491 54.8357 1.2 3.3200759425453856e-68 3.123790400787374e-16 9.346243591123798e-241 1.0000000000000118
80 2 -1.49792 12.2071 52.8811 2.4 8.591368914447863e-71 0.0 0.0 1.0
81 3 -1.48416 10.7089 52.8447 -1.2 8.837931822211205e-181 0.0 0.0 1.0000000000000984
82 3 -0.698079 13.9043 45.8532 -1.2 0.0 0.0 0.0 1.0
83 3 -2.89065 12.8395 53.4848 -1.2 2.875358603678535e-142 0.0 0.0 0.9999999999999927
84 3 -0.362596 12.9359 53.6116 -1.2 2.3645717043873564e-119 2.3227205532992475e-307 0.0 1.0000000000000453
85 1 -2.95841 21.1389 57.0905 1.2 1.3223964196112943e-10 0.032389872333954274 4.143579933292881e-65 0.9676101275338084
86 1 -1.52044 20.9781 49.4563 1.2 0.0 1.0046436646108048e-194 0.0 1.0
87 2 -0.572013 19.0107 47.0703 2.4 1.0896035548294164e-204 0.0 0.0 1.0
88 3 -0.189826 20.5617 46.9349 -1.2 0.0 0.0 0.0 1.0
89 3 -1.37138 17.6384 51.4169 -1.2 0.0 0.0 0.0 1.0000000000001206
90 3 -1.7959 18.8173 48.0427 -1.2 0.0 0.0 0.0 1.0
91 1 0.3341 16.6441 46.0162 1.2 0.0 1.5466260252917377e-300 0.0 1.0
92 3 0.721143 18.3017 47.7712 -1.2 0.0 0.0 0.0 1.0
93 1 1.66708 16.6593 54.1746 1.2 1.06583249677968e-123 4.978098811420367e-36 0.0 1.0
94 2 1.48227 19.3014 56.1509 2.4 0.9928321275391402 2.3592398722059554e-64 2.0551218772610242e-98 0.007167872460866766
95 3 1.5003 17.7284 56.2423 -1.2 2.440632001139841e-14 3.3158486206079317e-40 1.6345303352539063e-89 0.9999999999999764
96 3 1.72772 20.4495 52.3846 -1.2 3.382227882261408e-243 0.0 0.0 1.0
97 3 0.134521 19.9244 55.494 -1.2 7.886603057810596e-38 1.593233378341908e-96 4.526926671105001e-167 0.9999999999999918
98 3 2.67138 19.9132 55.2944 -1.2 5.30903151937235e-44 2.0064247641936116e-108 1.5690189432890393e-184 0.9999999999999902
99 1 -0.0129207 19.0074 51.8332 1.2 0.0 6.975835718466686e-106 0.0 1.0
100 1 2.21226 18.9177 48.6966 1.2 0.0 2.8609700464898614e-228 0.0 1.0
101 2 1.63456 21.0958 50.8608 2.4 2.55441982554651e-188 0.0 0.0 1.0
102 3 1.72617 22.7133 50.9258 -1.2 0.0 0.0 0.0 1.000000000000095
103 3 1.43238 19.9353 57.6396 -1.2 0.0001659306207117904 1.0689116225063882e-17 3.429748563315745e-50 0.9998340693792822
104 3 0.230832 20.54 50.2569 -1.2 0.0 0.0 0.0 1.0000000000001774
105 1 -2.98324 18.9422 52.028 1.2 0.0 5.068818608055589e-122 0.0 1.0
106 3 2.7898 20.312 50.165 -1.2 0.0 0.0 0.0 1.0000000000000717
107 1 -1.57122 18.8541 54.7587 1.2 2.0998754489074787e-76 6.414267521980392e-20 6.423487626874161e-269 1.0000000000000115
108 2 -1.41417 16.8959 52.8268 2.4 2.2269185910702114e-79 0.0 0.0 1.0
109 3 -1.54652 15.3874 52.6317 -1.2 3.6982733650475282e-208 0.0 0.0 1.0000000000000637
110 3 -0.776776 18.185 45.7181 -1.2 0.0 0.0 0.0 1.0
111 3 -2.72341 17.5041 53.487 -1.2 1.1382608323234063e-134 0.0 0.0 1.0000000000000404
112 3 -0.201297 17.5483 53.6056 -1.2 8.065443662304986e-125 5e-324 0.0 1.0000000000000122
113 1 -2.97398 26.0276 57.3493 1.2 3.3351796048366656e-09 0.10943950750968527 1.8900876677649336e-58 0.8905604891551359
114 1 -1.40464 26.1969 49.7967 1.2 0.0 2.4232420866458824e-216 0.0 1.0
115 2 -0.920228 23.7236 47.9214 2.4 2.9963351744022585e-259 0.0 0.0 1.0
116 3 -1.48194 25.1347 48.0084 -1.2 0.0 0.0 0.0 1.0
117 3 -1.53959 22.4325 51.5061 -1.2 8.9594782e-316 0.0 0.0 0.9999999999999575
118 3 -1.93072 22.7039 48.4498 -1.2 0.0 0.0 0.0 1.0
119 1 0.581416 22.2002 46.3136 1.2 0.0 1.0918302269173601e-279 0.0 1.0
120 3 0.661263 23.4484 47.8967 -1.2 0.0 0.0 0.0 1.0
121 1 1.58714 21.5052 54.1128 1.2 1.7443061406659682e-138 2.723564567095266e-45 0.0 1.0
122 2 1.56123 24.0082 56.31 2.4 0.9997339603359084 5.279649570878209e-54 1.834300891856895e-82 0.0002660396640912653
123 3 1.61443 22.5072 56.3172 -1.2 1.9526523499698358e-15 5.007042677768057e-43 1.2919098271723334e-89 0.9999999999999983
124 3 1.6123 25.1871 52.5048 -1.2 9.392034926379407e-233 0.0 0.0 0.9999999999998869
125 3 0.269064 24.7278 55.6562 -1.2 1.7880509271760078e-47 3.034685472478707e-111 2.6476749853940977e-170 1.0000000000000102
126 3 2.73754 24.8096 55.5539 -1.2 1.988085622365057e-33 4.8351405721186785e-86 8.096118390645723e-143 1.000000000000004
127 1 -0.0336977 23.6429 51.8843 1.2 0.0 6.523411110607039e-118 0.0 1.0
128 1 2.24859 23.776 49.0521 1.2 0.0 1.6279281821778216e-231 0.0 1.0
129 2 1.52271 25.7973 50.9389 2.4 1.528088772777342e-193 0.0 0.0 1.0
130 3 1.6222 27.3728 51.0349 -1.2 0.0 0.0 0.0 0.9999999999999292
131 3 1.4655 24.6648 57.7828 -1.2 0.005557169070125362 4.156403400189725e-15 5.5067494107411636e-46 0.9944428309298635
132 3 0.348985 25.0222 50.365 -1.2 0.0 0.0 0.0 1.000000000000184
133 1 -3.03093 23.7213 52.1736 1.2 0.0 5.569869294222414e-125 0.0 1.0
134 3 2.92699 25.1969 50.2781 -1.2 0.0 0.0 0.0 1.0000000000000004
135 1 -1.54065 23.8854 55.0167 1.2 1.770309692448131e-59 8.749614148915398e-19 1.2320373622275e-203 1.000000000000014
136 2 -1.4648 21.6405 53.0711 2.4 7.913249644677788e-76 0.0 0.0 1.0
137 3 -1.42844 20.0442 52.9317 -1.2 1.0743308672702189e-193 0.0 0.0 1.0
138 3 -1.0515 23.4738 46.0993 -1.2 0.0 0.0 0.0 1.0
139 3 -2.62082 22.3986 53.8039 -1.2 8.100731937612022e-132 0.0 0.0 0.999999999999989
140 3 -0.0855785 22.2932 53.6224 -1.2 7.374265629802553e-136 0.0 0.0 1.0000000000000162
141 1 -2.70375 30.7635 57.3145 1.2 2.2039204499711055e-09 0.43424726174107053 4.368015355264034e-58 0.5657527360550085
142 1 -1.32347 30.2669 49.4941 1.2 0.0 1.0504251807772278e-212 0.0 1.0
143 2 -1.13068 28.0107 47.464 2.4 1.4752492232328442e-266 0.0 0.0 1.0
144 3 -0.515587 29.4674 47.1353 -1.2 0.0 0.0 0.0 1.0
145 3 -1.25339 27.1891 51.5932 -1.2 1.282702096074e-310 0.0 0.0 1.000000000000071
146 3 -2.50189 28.1172 48.2989 -1.2 0.0 0.0 0.0 1.0
147 1 -1.72934 25.3114 46.0333 1.2 0.0 3.184536740537368e-282 0.0 1.0
148 3 -0.0573854 27.4148 48.546 -1.2 0.0 0.0 0.0 1.0
149 1 1.60948 26.0371 54.3045 1.2 1.3121739882422063e-123 4.915560060990299e-41 0.0 1.0
150 2 1.68399 28.7257 56.1731 2.4 0.000867931143355238 7.967340203109527e-79 3.3648538144133933e-112 0.9991320688566507
151 3 1.61131 27.198 56.4329 -1.2 5.711489156244014e-16 1.9445140592311865e-43 1.9420564374961185e-86 0.9999999999999994
152 3 1.6521 29.7819 52.4614 -1.2 5.066344332429232e-260 0.0 0.0 1.0000000000000375
153 3 0.329 29.3013 55.6217 -1.2 6.756510837789737e-35 1.4441056050213391e-84 1.6740749219723076e-141 1.000000000000003
154 3 2.9646 29.4182 55.4312 -1.2 2.7919115018644594e-47 9.295421067731535e-113 3.543090616053125e-182 1.0000000000000118
155 1 0.318305 28.3967 52.2808 1.2 0.0 4.3780478989976405e-116 0.0 1.0
156 1 1.55953 28.3545 49.0335 1.2 0.0 5.007725724794752e-226 0.0 1.0
157 2 1.79811 30.4537 50.8945 2.4 7.872320471820844e-208 0.0 0.0 1.0
158 3 1.74463 31.9741 50.9336 -1.2 0.0 0.0 0.0 1.0
159 3 1.80886 29.3896 57.6156 -1.2 0.00020049241978336693 1.2286150720163774e-17 1.29003069311288e-50 0.9997995075802162
160 3 0.567339 29.9164 50.047 -1.2 0.0 0.0 0.0 1.0
161 1 -2.85354 28.5956 52.0325 1.2 0.0 1.4625761863524962e-130 0.0 1.0
162 3 3.07229 29.8807 50.4132 -1.2 0.0 0.0 0.0 1.0
163 1 -1.33298 28.3956 54.9545 1.2 9.145581799078567e-73 4.148735952543294e-25 1.989916006192498e-237 1.0
164 2 -1.37091 26.4329 52.9509 2.4 3.574490376989785e-80 0.0 0.0 1.0
165 3 -1.47861 24.8135 52.9291 -1.2 2.6756700093727956e-192 0.0 0.0 0.9999999999998912
166 3 -1.28631 27.1292 46.1162 -1.2 0.0 0.0 0.0 1.0
167 3 -2.6165 27.0885 53.6739 -1.2 7.160632486191064e-145 0.0 0.0 1.0000000000000229
168 3 -0.0788356 26.9774 53.8077 -1.2 7.144138685659956e-115 5.252364882589467e-293 0.0 0.9999999999999943
169 1 -2.69852 35.6082 57.2216 1.2 4.891460282299272e-13 0.10671594450505992 1.0678002623934294e-67 0.8932840554944496
170 1 -0.999883 35.6763 49.2626 1.2 0.0 5.0228190356195325e-201 0.0 1.0
171 2 -0.620618 32.8641 47.7731 2.4 6.739368887148812e-244 0.0 0.0 1.0
172 3 -1.36163 34.2984 47.7148 -1.2 0.0 0.0 0.0 1.0
173 3 -1.19092 31.7759 51.6352 -1.2 7.25e-321 0.0 0.0 1.0000000000000118
174 3 -1.65407 31.9745 48.5709 -1.2 0.0 0.0 0.0 1.0
175 1 0.383566 30.9611 46.3948 1.2 0.0 1.0335012247066417e-305 0.0 1.0
176 3 0.85266 32.4344 48.0519 -1.2 0.0 0.0 0.0 1.0
177 1 1.91934 30.9375 54.3751 1.2 2.29625818985711e-119 1.5531564836534053e-36 0.0 1.0
178 2 1.76586 33.5731 56.1669 2.4 3.891345904204804e-05 7.402404243640547e-80 7.119668738213648e-116 0.9999610865409576
179 3 1.73128 31.9829 56.3397 -1.2 8.699040656367244e-18 1.3203789927480973e-45 4.642254881867019e-95 0.9999999999999999
180 3 1.79482 34.5596 52.2338 -1.2 1.0613848132274656e-283 0.0 0.0 0.9999999999999433
181 3 0.56809 34.2762 55.4958 -1.2 1.5492252336115172e-53 2.0959684168931532e-119 3.3455923950410896e-195 0.9999999999999908
182 3 3.08021 34.2522 55.4757 -1.2 4.326089976041392e-46 1.324356058356575e-104 2.2618822602411417e-173 0.999999999999997
183 1 0.224697 33.2166 51.4948 1.2 0.0 3.12388163968713e-137 0.0 1.0
184 1 2.61022 32.9762 48.9999 1.2 0.0 3.162446433960454e-219 0.0 1.0
185 2 1.79432 35.2346 50.8018 2.4 1.665778892240638e-207 0.0 0.0 1.0
186 3 2.08823 36.7994 50.8334 -1.2 0.0 0.0 0.0 0.9999999999999936
187 3 1.77921 34.2168 57.6633 -1.2 1.7114041880425708e-06 2.1727517352250462e-20 1.0748207549313369e-58 0.9999982885958126
188 3 0.647137 34.5484 50.0581 -1.2 0.0 0.0 0.0 1.0
189 1 -2.6525 33.1683 51.9582 1.2 0.0 2.1795475756462332e-131 0.0 1.0
190 3 3.10993 34.6072 50.1347 -1.2 0.0 0.0 0.0 1.0
191 1 -1.23748 33.3863 54.8793 1.2 5.254452556094015e-80 2.8416432164238477e-21 3.8612692513196544e-261 1.0000000000000284
192 2 -1.22912 31.1526 53.1436 2.4 4.2156882588605907e-78 0.0 0.0 1.0
193 3 -1.15931 29.6383 53.1115 -1.2 4.715258071985873e-171 0.0 0.0 1.0000000000000202
194 3 -0.72911 32.5696 46.0668 -1.2 0.0 0.0 0.0 1.0
195 3 -2.50266 31.8478 53.6782 -1.2 1.1558050773409744e-150 0.0 0.0 1.000000000000034
196 3 0.0418104 31.7991 53.7608 -1.2 1.878197124761523e-138 0.0 0.0 1.000000000000054
197 1 -2.72948 40.4332 57.1358 1.2 2.2370481026558046e-14 0.023063148919877822 6.437383804370495e-72 0.9769368510800983
198 1 -0.896957 40.2189 49.4635 1.2 0.0 2.198409228795956e-191 0.0 1.0
199 2 -0.693912 37.2959 46.9711 2.4 4.0532205516067295e-220 0.0 0.0 1.0
200 3 -0.304507 38.7705 46.3605 -1.2 0.0 0.0 0.0 1.0
201 3 -0.960225 36.6012 51.1851 -1.2 0.0 0.0 0.0 0.9999999999997787
202 3 -2.00954 37.3451 47.9179 -1.2 0.0 0.0 0.0 1.0
203 1 -1.43255 34.5403 45.775 1.2 0.0 4.886308606256095e-244 0.0 1.0
204 3 0.504611 36.7984 48.0036 -1.2 0.0 0.0 0.0 1.0
205 1 2.04198 35.5562 54.2014 1.2 2.30899172460044e-151 1.4139053913194164e-46 0.0 1.0
206 2 1.82575 38.3191 56.2164 2.4 0.4691009782159704 6.990970614609866e-71 3.33138784003283e-111 0.5308990217840245
207 3 1.84889 36.7643 56.2474 -1.2 9.359970308664345e-21 1.6682456128960257e-52 2.7977133251806894e-109 0.9999999999999981
208 3 1.85412 39.4448 52.0638 -1.2 7.666103608394114e-276 0.0 0.0 1.0000000000000417
209 3 0.569139 38.9718 55.5409 -1.2 5.65252194272868e-39 5.475119298663753e-88 5.923726266687741e-155 0.9999999999999869
210 3 3.1379 39.0392 55.4174 -1.2 8.763257041120132e-39 7.184551822076135e-90 2.688527934587937e-160 1.0000000000000138
211 1 0.615489 37.8699 51.9436 1.2 0.0 3.168574381163631e-122 0.0 1.0
212 1 2.28188 37.6055 48.6512 1.2 0.0 5.40045346829639e-216 0.0 1.0
213 2 1.92005 39.9308 50.5338 2.4 4.189657881976775e-199 0.0 0.0 1.0
214 3 1.88796 41.6178 50.7557 -1.2 0.0 0.0 0.0 0.9999999999999724
215 3 1.82516 39.0273 57.693 -1.2 6.4026851845686625e-06 5.4869411888214224e-18 6.915806851464267e-56 0.9999935973148179
216 3 0.765279 39.3297 49.6445 -1.2 0.0 0.0 0.0 1.0
217 1 -2.25346 38.1241 51.3984 1.2 0.0 8.649642655564264e-148 0.0 1.0
218 3 3.30852 39.4707 50.0358 -1.2 0.0 0.0 0.0 1.0
219 1 -1.22622 38.0455 54.8731 1.2 1.2334300497908985e-71 8.93368204235395e-14 4.261048085041626e-251 0.9999999999998884
220 2 -1.01155 35.9677 52.7937 2.4 2.0160390225973467e-93 0.0 0.0 1.0
221 3 -1.09053 34.4206 52.6839 -1.2 5.141809246420778e-233 0.0 0.0 1.0000000000000326
222 3 -0.878861 36.3147 45.8026 -1.2 0.0 0.0 0.0 1.0
223 3 -2.20468 36.6063 53.5278 -1.2 1.4751576723849326e-145 0.0 0.0 0.9999999999999679
224 3 0.373282 36.542 53.4609 -1.2 2.1776915971656143e-152 0.0 0.0 0.9999999999999507
225 1 -2.60716 45.1956 56.956 1.2 4.483062272796371e-15 0.0003933575343004612 7.952330929787971e-66 0.9996066424656964
226 1 -0.967702 45.1725 49.3659 1.2 0.0 7.113578979363335e-200 0.0 1.0
227 2 -2.00179 42.5671 47.4853 2.4 2.091260152349948e-210 0.0 0.0 1.0
228 3 -1.2198 43.9296 47.6712 -1.2 0.0 0.0 0.0 1.0
229 3 -0.826825 41.4595 51.2223 -1.2 0.0 0.0 0.0 0.9999999999999164
230 3 -3.53359 42.4083 47.9417 -1.2 0.0 0.0 0.0 1.0
231 1 -0.465972 40.6444 46.2871 1.2 0.0 9.594402888348353e-269 0.0 1.0
232 3 -0.922314 41.5344 48.0588 -1.2 0.0 0.0 0.0 1.0
233 1 2.15132 40.5122 54.0174 1.2 8.375612167940897e-130 2.165025803004116e-40 0.0 1.0
234 2 1.81879 43.114 55.8554 2.4 1.6667418470654804e-09 6.200947295825546e-88 2.635166829263697e-128 0.9999999983332657
235 3 1.86016 41.5689 55.8957 -1.2 4.214238553470598e-26 8.63229619103295e-64 3.629344333577457e-120 0.9999999999999966
236 3 2.1542 44.2059 52.212 -1.2 7.430284442901178e-254 0.0 0.0 0.9999999999999907
237 3 0.448347 43.762 55.3462 -1.2 5.829478213358919e-39 4.75157613965241e-95 1.3661180748618669e-163 0.9999999999999927
238 3 2.96947 43.7326 55.0196 -1.2 2.9289853542565024e-58 1.5294788794223482e-140 2.8754278865481395e-220 0.9999999999999842
239 1 0.75433 42.8342 51.8545 1.2 0.0 9.620921355040593e-125 0.0 1.0
240 1 0.755049 42.6926 48.6951 1.2 0.0 2.4187486011611075e-220 0.0 1.0
241 2 2.17263 44.806 50.7398 2.4 1.895595339459095e-180 0.0 0.0 1.0
242 3 2.28797 46.3325 50.7503 -1.2 0.0 0.0 0.0 0.9999999999997864
243 3 1.98856 43.6473 57.3973 -1.2 3.9361857177473705e-06 3.430830555204519e-16 2.913020080966939e-50 0.9999960638142814
244 3 0.834056 44.2865 49.9834 -1.2 0.0 0.0 0.0 1.0000000000001206
245 1 -2.30215 42.683 51.6792 1.2 0.0 9.370277189717073e-131 0.0 1.0
246 3 3.57073 44.2635 50.218 -1.2 0.0 0.0 0.0 0.9999999999999162
247 1 -1.07315 42.7339 54.5443 1.2 1.9655328298520903e-80 3.5838451534852995e-20 1.5465469987071052e-271 1.0000000000000018
248 2 -0.827346 40.7472 52.7277 2.4 1.4397413478755615e-93 0.0 0.0 1.0
249 3 -0.955582 39.1689 52.5048 -1.2 2.5790150511376956e-233 0.0 0.0 1.000000000000098
250 3 -1.63103 42.3146 45.8921 -1.2 0.0 0.0 0.0 1.0
251 3 -2.0973 41.4092 53.3985 -1.2 4.530309102800854e-152 0.0 0.0 0.9999999999999983
252 3 0.345213 41.3936 53.4684 -1.2 1.698182138161261e-155 0.0 0.0 0.9999999999999639
253 1 -2.34573 49.8511 56.5711 1.2 3.0713753549808033e-18 1.8653209650009385e-05 1.391106077282849e-71 0.9999813467903498
254 1 -0.526338 49.5181 48.709 1.2 0.0 3.16772378253127e-234 0.0 1.0
255 2 -0.120285 47.0772 46.9991 2.4 2.4309709009535266e-230 0.0 0.0 1.0
256 3 -0.302568 48.7332 46.905 -1.2 0.0 0.0 0.0 1.0
257 3 -0.730299 46.12 51.3853 -1.2 5.084969474261234e-302 0.0 0.0 1.0000000000000027
258 3 -1.26015 46.8467 48.1606 -1.2 0.0 0.0 0.0 1.0
259 1 -1.1744 44.4723 45.6785 1.2 0.0 1.7465483725296816e-305 0.0 1.0
260 3 1.35297 46.8061 47.5221 -1.2 0.0 0.0 0.0 1.0
261 1 2.30104 45.3201 54.0551 1.2 5.214052932526801e-137 2.2175487760748362e-44 0.0 1.0
262 2 2.03129 47.8651 55.7523 2.4 3.992730019699616e-06 2.67676076907316e-77 9.978968979991134e-113 0.9999960072699836
263 3 2.08743 46.3068 55.9501 -1.2 4.28437957124326e-22 7.344360472470879e-52 1.714984910540566e-103 1.000000000000001
264 3 2.32271 48.8519 52.0267 -1.2 1.1626300088604201e-262 0.0 0.0 0.9999999999999472
265 3 0.77214 48.5025 55.1324 -1.2 1.9307377864366203e-39 5.364629978167274e-100 1.6571428397652884e-165 0.9999999999999865
266 3 3.30595 48.5699 54.9682 -1.2 2.488027745509818e-43 2.7315502870573765e-110 4.350108541309107e-180 1.0000000000000002
267 1 0.716178 47.6337 51.6798 1.2 0.0 6.39099937760502e-124 0.0 1.0
268 1 2.95496 47.4625 48.4828 1.2 0.0 8.63430584650238e-235 0.0 1.0
269 2 2.30702 49.6316 50.5078 2.4 3.5217874262298506e-184 0.0 0.0 1.0
270 3 2.30197 51.1917 50.7593 -1.2 0.0 0.0 0.0 0.9999999999997862
271 3 2.21501 48.502 57.2123 -1.2 9.719386214426446e-07 4.4321387940230245e-17 1.0009076448162375e-49 0.9999990280613777
272 3 0.897563 49.0206 49.8944 -1.2 0.0 0.0 0.0 1.0000000000001303
273 1 -2.32206 47.4396 51.9606 1.2 0.0 3.1673680013110434e-112 0.0 1.0
274 3 3.47118 49.1216 49.622 -1.2 0.0 0.0 0.0 1.0
275 1 -0.776533 47.5958 54.5 1.2 2.1609876818924086e-90 3.284867673749628e-27 1.0181078709635862e-294 1.0
276 2 -0.694703 45.395 52.8043 2.4 3.2191813237822675e-81 0.0 0.0 1.0
277 3 -0.804313 43.9003 52.5391 -1.2 2.125706613204291e-209 0.0 0.0 1.0000000000000002
278 3 -0.489996 46.2705 45.6531 -1.2 0.0 0.0 0.0 1.0
279 3 -2.02522 46.0948 53.4469 -1.2 1.7275107346074504e-134 0.0 0.0 0.9999999999999802
280 3 0.630837 46.0524 53.5787 -1.2 1.389025435702655e-111 1.3702458140206685e-289 0.0 1.0000000000000027
281 1 -2.23581 54.6337 56.9629 1.2 2.7829569231221587e-15 3.2814556022910034e-05 1.2078476259221355e-65 0.9999671854439738
282 1 -0.606809 54.6778 49.4855 1.2 0.0 6.433450115823377e-165 0.0 1.0
283 2 0.897708 51.9268 46.8589 2.4 1.0850670537438998e-209 0.0 0.0 1.0
284 3 0.837158 53.541 46.6177 -1.2 0.0 0.0 0.0 1.0
285 3 -0.820977 50.9196 51.148 -1.2 1.350458e-316 0.0 0.0 0.9999999999999862
286 3 -0.491745 51.4877 47.6552 -1.2 0.0 0.0 0.0 1.0
287 1 -0.713884 50.1263 45.5505 1.2 0.0 0.0 0.0 1.0
288 3 2.26571 51.4753 47.622 -1.2 0.0 0.0 0.0 1.0
289 1 2.15305 49.9812 53.9201 1.2 8.948707053089762e-133 1.8989580991036038e-39 0.0 1.0
290 2 2.152 52.752 56.0446 2.4 0.8955226723979276 8.662429579371803e-58 7.300225937900328e-93 0.10447732760206696
291 3 2.17761 51.1176 56.0306 -1.2 3.8819135953102526e-21 2.4232389486023336e-51 3.922791158234801e-101 1.0000000000000004
292 3 2.32789 53.7378 52.077 -1.2 1.8295697854337815e-247 0.0 0.0 1.0000000000000682
293 3 0.863472 53.2631 55.5062 -1.2 4.8021923075522624e-32 1.5974915136113118e-78 4.381956652473279e-138 1.0000000000000013
294 3 3.41765 53.325 55.274 -1.2 7.23097534703355e-36 1.9103246701691874e-91 4.448646381420809e-159 0.9999999999999946
295 1 0.777248 52.324 51.2754 1.2 0.0 9.668815400632848e-128 0.0 1.0
296 1 3.78907 52.0067 48.518 1.2 0.0 2.7636598840869386e-219 0.0 1.0
297 2 2.45334 54.3293 50.6246 2.4 2.4996898522374613e-175 0.0 0.0 1.0
298 3 2.6598 55.8942 50.5728 -1.2 0.0 0.0 0.0 1.0
299 3 2.4169 53.3613 57.5741 -1.2 1.957356842696746e-06 1.209389510795873e-16 1.0253277516412338e-51 0.9999980426431605
300 3 1.1265 53.8376 49.909 -1.2 0.0 0.0 0.0 1.0
301 1 -2.15511 52.3432 51.8774 1.2 0.0 2.0406115217388806e-124 0.0 1.0
302 3 3.79038 53.6332 49.9285 -1.2 0.0 0.0 0.0 1.000000000000001
303 1 -0.682185 52.1718 54.5796 1.2 2.1764933585887518e-67 1.379999854392078e-14 1.4468559576577184e-240 0.9999999999999918
304 2 -0.792787 50.2556 52.6236 2.4 3.587304829520955e-83 0.0 0.0 1.0
305 3 -0.753574 48.6782 52.5401 -1.2 4.2782464535706034e-197 0.0 0.0 1.0000000000000269
306 3 0.833449 51.2801 45.3724 -1.2 0.0 0.0 0.0 1.0
307 3 -1.94895 50.9409 53.44 -1.2 1.5480079525896905e-137 0.0 0.0 1.000000000000008
308 3 0.54679 50.8686 53.2771 -1.2 2.9617201589378034e-143 0.0 0.0 0.9999999999999649
309 1 -2.10461 59.4649 57.2404 1.2 2.4587299509401432e-12 0.0027086752194448354 1.8419916445133102e-62 0.9972913247780971
310 1 -0.590457 59.5009 49.4587 1.2 0.0 3.328254958620576e-200 0.0 1.0
311 2 -0.0263558 57.1093 47.5749 2.4 2.35765828756343e-220 0.0 0.0 1.0
312 3 -0.662985 58.4777 47.8166 -1.2 0.0 0.0 0.0 1.0
313 3 -0.409904 55.688 51.2847 -1.2 0.0 0.0 0.0 0.9999999999998145
314 3 -1.09591 56.0194 48.1462 -1.2 0.0 0.0 0.0 1.0
315 1 1.00295 55.2666 46.0376 1.2 0.0 9.449804052233631e-304 0.0 1.0
316 3 1.51608 56.6115 47.6578 -1.2 0.0 0.0 0.0 1.0
317 1 2.40903 54.6921 54.0095 1.2 3.173861934169694e-134 6.660616220069701e-40 0.0 1.0
318 2 2.31343 57.3083 55.9811 2.4 0.007983206688376496 1.4862170125804844e-65 3.765535493378205e-102 0.9920167933116258
319 3 2.34736 55.7946 56.0021 -1.2 9.528275521631668e-21 3.7094703420479685e-50 8.245974788563692e-101 1.0000000000000013
320 3 2.3946 58.5014 52.0722 -1.2 1.923281533466742e-253 0.0 0.0 0.9999999999999052
321 3 0.953171 58.0549 55.5306 -1.2 6.603596857762933e-36 6.2226802511779466e-86 1.0828653362846773e-150 0.9999999999999991
322 3 3.48371 57.9042 55.162 -1.2 1.6983835401229932e-43 1.0452943064236983e-105 1.1687161659876672e-181 0.9999999999999969
323 1 1.06664 57.1092 51.5776 1.2 0.0 1.1523195556217144e-116 0.0 1.0
324 1 3.20964 56.9386 48.8942 1.2 0.0 2.561548156610074e-221 0.0 1.0
325 2 2.42807 59.1675 50.6769 2.4 8.185261845176251e-181 0.0 0.0 1.0
326 3 2.63828 60.711 50.8041 -1.2 0.0 0.0 0.0 1.0000000000002058
327 3 2.47473 57.8418 57.5575 -1.2 0.0001013945238033481 2.0887134452427287e-14 1.8656959012003298e-47 0.9998986054761714
328 3 1.12967 58.4839 50.0191 -1.2 0.0 0.0 0.0 1.0
329 1 -2.04026 57.2491 51.8845 1.2 0.0 8.525192726433454e-133 0.0 1.0
330 3 3.66846 58.5665 49.9071 -1.2 0.0 0.0 0.0 1.0
331 1 -0.686041 56.9856 54.7839 1.2 2.8458148760527227e-62 1.3148450605843319e-11 1.9018861261871238e-222 0.9999999999868462
332 2 -0.534043 55.0541 52.735 2.4 8.653876975839966e-88 0.0 0.0 1.0
333 3 -0.728048 53.5433 52.7357 -1.2 3.389297688571966e-196 0.0 0.0 1.0000000000000877
334 3 -0.140932 57.1174 45.8952 -1.2 0.0 0.0 0.0 1.0
335 3 -1.9212 55.6521 53.3433 -1.2 2.298936601287959e-159 0.0 0.0 0.9999999999999732
336 3 0.67391 55.7233 53.5846 -1.2 6.160256080742172e-129 0.0 0.0 1.0000000000000537
337 1 -2.18428 64.09 57.3407 1.2 8.478614695504167e-10 0.014627931757646352 1.977014611879034e-50 0.9853720673944949
338 1 -0.40288 63.6999 49.48 1.2 0.0 6.892598794437467e-205 0.0 1.0
339 2 0.488858 61.4256 47.198 2.4 1.033384947600259e-209 0.0 0.0 1.0
340 3 0.295982 63.0208 47.0701 -1.2 0.0 0.0 0.0 1.0
341 3 -0.309515 60.4344 51.4208 -1.2 2.33383954e-315 0.0 0.0 0.9999999999999807
342 3 -0.730091 61.1787 48.3321 -1.2 0.0 0.0 0.0 1.0
343 1 -0.660196 59.0747 45.9371 1.2 0.0 2.3561302707731066e-290 0.0 1.0
344 3 1.9024 61.1009 47.6699 -1.2 0.0 0.0 0.0 1.0
345 1 2.64837 59.6104 54.2518 1.2 4.99051210292745e-119 3.74025281581038e-35 0.0 1.0
346 2 2.33753 62.0803 56.1196 2.4 0.013987093005962322 3.518244894997907e-64 1.0570427116098709e-97 0.9860129069940365
347 3 2.37316 60.5688 56.2995 -1.2 1.0525773517551246e-16 6.689799590152335e-39 3.864045023299923e-85 1.0000000000000002
348 3 2.62248 62.9579 52.2889 -1.2 1.4938253035908697e-271 0.0 0.0 0.9999999999999256
349 3 1.05782 62.7287 55.4165 -1.2 2.1757248993771797e-44 1.6351631650727843e-99 4.013733821197182e-164 0.9999999999999867
350 3 3.61009 62.6697 55.3797 -1.2 9.453959844159547e-38 3.3875762675493106e-90 7.94618774162136e-159 1.00000000000001
351 1 1.06812 61.866 51.8866 1.2 0.0 1.3227988144192588e-128 0.0 1.0
352 1 3.33073 61.6788 48.8721 1.2 0.0 1.2650306646586195e-216 0.0 1.0
353 2 2.5813 63.7889 50.8901 2.4 4.30682905035295e-189 0.0 0.0 1.0
354 3 2.45978 65.3909 51.1249 -1.2 0.0 0.0 0.0 1.000000000000131
355 3 2.32296 62.7504 57.6175 -1.2 3.711386189541274e-05 4.662856851122562e-13 2.7309370575417246e-43 0.9999628861376453
356 3 1.23491 63.1027 50.3027 -1.2 0.0 0.0 0.0 1.0
357 1 -1.95024 61.7237 51.8146 1.2 0.0 7.117967305598825e-138 0.0 1.0
358 3 3.82302 63.2624 50.0295 -1.2 0.0 0.0 0.0 1.0
359 1 -0.609852 61.7715 54.6983 1.2 1.0317558305862925e-83 2.505605998688766e-24 8.175669526574067e-274 1.0
360 2 -0.278899 59.7292 52.8419 2.4 1.2076096892811564e-87 0.0 0.0 1.0
361 3 -0.382809 58.228 52.6014 -1.2 1.6824652363659918e-202 0.0 0.0 0.9999999999999457
362 3 0.171084 60.7663 45.8386 -1.2 0.0 0.0 0.0 1.0
363 3 -1.60266 60.3859 53.6148 -1.2 3.1121697431499587e-144 0.0 0.0 0.9999999999999835
364 3 0.948489 60.4582 53.6106 -1.2 3.105042438104557e-124 6.335005046e-315 0.0 0.9999999999999452