ITEM: TIMESTEP
1700
ITEM: NUMBER OF ATOMS
10500
ITEM: BOX BOUNDS xy xz yz pp pp pp
0	8.9688	2.9896
0	118.725	0
0	252.977	0
ITEM: ATOMS id type xu yu zu q pCrystal pDisloC pDisloB pDisloA
1 1 -3.6077 7.08955 57.2062 1.2 2.159223373391236e-16 0.001188016929660336 1.214192787049392e-71 0.9988119830703395
2 1 -1.77363 6.61627 49.5109 1.2 0.0 3.034188485625667e-199 0.0 1.0
3 2 -0.0947794 3.92792 47.9952 2.4 1.5224790651227297e-241 0.0 0.0 1.0
4 3 -0.202105 5.28691 47.2741 -1.2 0.0 0.0 0.0 1.0
5 3 -2.12015 3.48948 51.7927 -1.2 5.4e-323 0.0 0.0 0.9999999999999953
6 3 -1.37547 3.70469 48.9977 -1.2 0.0 0.0 0.0 1.0
7 1 1.88946 2.42036 46.9661 1.2 0.0 1.3494715172685501e-264 0.0 1.0
8 3 1.3885 3.67371 48.6892 -1.2 0.0 0.0 0.0 1.0
9 1 0.995643 2.08296 54.5211 1.2 7.14367869654374e-138 2.7179736576747247e-51 0.0 1.0
10 2 0.889586 4.97641 56.2551 2.4 5.68374215585068e-11 8.016084075172628e-87 4.443287212794824e-120 0.9999999999431566
11 3 0.744563 3.4522 56.4417 -1.2 4.24588109912305e-22 5.877795303269122e-56 8.028196669055365e-99 1.0000000000000024
12 3 1.04829 6.20064 52.5042 -1.2 1.2162177779473669e-229 0.0 0.0 0.9999999999999281
13 3 -0.444348 5.65486 55.632 -1.2 8.793113303004593e-50 1.0958519043031277e-119 2.0293989756202468e-175 1.000000000000012
14 3 2.06013 5.68358 55.5097 -1.2 1.3572073858502595e-48 1.809816671793191e-116 4.421521416196221e-174 1.000000000000001
15 1 -0.448888 4.75241 52.0011 1.2 0.0 1.3071564814642893e-124 0.0 1.0
16 1 2.86464 3.98375 49.9744 1.2 0.0 6.568850664063587e-207 0.0 1.0
17 2 1.2164 6.67062 50.9613 2.4 1.7853507336533196e-179 0.0 0.0 1.0
18 3 1.26592 8.34713 51.041 -1.2 0.0 0.0 0.0 1.0000000000000593
19 3 1.00535 5.72513 57.8081 -1.2 0.00030348828995774237 4.682648762984547e-13 1.35281396076532e-40 0.9996965117095786
20 3 -0.224312 6.13768 50.4705 -1.2 0.0 0.0 0.0 1.0
21 1 -3.47367 4.81577 52.6163 1.2 0.0 1.2417615573401217e-121 0.0 1.0
22 3 2.49183 6.03882 50.2302 -1.2 0.0 0.0 0.0 1.0
23 1 -2.09175 4.69294 55.0041 1.2 1.4800090792101214e-79 3.980672166904859e-29 2.302005081060162e-246 1.0
24 2 -1.9211 2.66787 53.163 2.4 1.5302511449404506e-103 0.0 0.0 1.0
25 3 -2.07288 1.13792 53.0474 -1.2 3.188971441829179e-210 0.0 0.0 0.9999999999999006
26 3 0.0461864 2.75114 46.8174 -1.2 0.0 0.0 0.0 1.0
27 3 -3.16676 3.24967 54.0774 -1.2 2.448207055054732e-146 0.0 0.0 1.000000000000009
28 3 -0.56726 3.30993 53.7334 -1.2 9.716976775574527e-154 0.0 0.0 1.0000000000000488
29 1 -3.62665 11.9731 57.382 1.2 2.4035785134103066e-10 0.019422246235462088 7.526291904260862e-51 0.9805777535241768
30 1 -1.568 11.4541 49.4166 1.2 0.0 1.4768952154789968e-216 0.0 1.0
31 2 -0.936655 8.7894 47.5908 2.4 4.339360883072618e-223 0.0 0.0 1.0
32 3 -1.1082 10.395 47.7012 -1.2 0.0 0.0 0.0 1.0
33 3 -1.77135 8.17418 51.5968 -1.2 0.0 0.0 0.0 1.000000000000131
34 3 -2.116 8.14084 48.355 -1.2 0.0 0.0 0.0 1.0
35 1 0.206969 6.71149 46.1124 1.2 0.0 2.239489990731152e-286 0.0 1.0
36 3 0.499895 8.38266 48.1062 -1.2 0.0 0.0 0.0 1.0
37 1 1.16365 7.21165 54.4937 1.2 1.1868173278438923e-126 1.7184008182204826e-43 0.0 1.0
38 2 0.917553 9.82724 56.3218 2.4 1.0716284843798803e-08 2.011471321406807e-76 8.83291033182693e-106 0.9999999892837083
39 3 0.87781 8.24748 56.3166 -1.2 2.761071215270002e-26 3.330049374444262e-65 1.6137908645941035e-110 1.0000000000000018
40 3 1.44368 10.9437 52.5102 -1.2 1.7835376992286414e-268 0.0 0.0 1.0
41 3 -0.359674 10.5658 55.6459 -1.2 4.0847950127055024e-57 7.588722417151506e-139 2.6739018664827717e-205 0.9999999999999996
42 3 2.16939 10.5724 55.6683 -1.2 8.063239764452957e-43 3.7110575195393217e-107 4.669523665909362e-167 0.9999999999999913
43 1 -0.275284 9.37976 51.9565 1.2 0.0 2.595398731975518e-111 0.0 1.0
44 1 2.19634 8.77748 49.1814 1.2 0.0 9.073767592900934e-218 0.0 1.0
45 2 1.25417 11.4265 50.9987 2.4 9.555977366672927e-194 0.0 0.0 1.0
46 3 1.32082 13.0468 51.0361 -1.2 0.0 0.0 0.0 1.0
47 3 0.90446 10.4153 57.8414 -1.2 1.0026748274765355e-05 2.0331894829760573e-15 8.433047611421656e-43 0.9999899732517198
48 3 -0.0659203 10.7794 50.5478 -1.2 0.0 0.0 0.0 1.0
49 1 -3.21532 9.44328 52.0305 1.2 0.0 1.597701227095494e-147 0.0 1.0
50 3 2.58475 10.684 50.099 -1.2 0.0 0.0 0.0 1.0000000000000344
51 1 -2.12556 9.77124 55.0584 1.2 7.512454854163423e-93 5.48314935198365e-29 6.818155376661668e-295 1.0
52 2 -1.78431 7.48742 53.0555 2.4 1.9152287180299022e-95 0.0 0.0 1.0
53 3 -1.95519 5.9074 52.9807 -1.2 1.2089630032729894e-229 0.0 0.0 1.0000000000000082
54 3 -0.807153 8.26794 46.0572 -1.2 0.0 0.0 0.0 1.0
55 3 -3.11803 8.22619 53.7272 -1.2 1.6165373461872104e-144 0.0 0.0 1.0000000000000193
56 3 -0.520301 8.01218 53.8011 -1.2 1.5161241947539704e-151 0.0 0.0 1.0000000000000069
57 1 -3.29825 16.6614 57.4022 1.2 2.9014737972388447e-13 0.00023486446261638028 6.04517865513454e-60 0.999765135537092
58 1 -1.65113 16.264 49.6511 1.2 0.0 7.53430990470944e-248 0.0 1.0
59 2 -1.01578 13.73 47.506 2.4 1.9692824785432914e-255 0.0 0.0 1.0
60 3 -0.768581 15.3397 47.4681 -1.2 0.0 0.0 0.0 1.0
61 3 -1.67498 12.8518 51.5945 -1.2 0.0 0.0 0.0 1.0
62 3 -2.3466 13.3452 48.4264 -1.2 0.0 0.0 0.0 1.0
63 1 0.208519 11.5587 46.8628 1.2 0.0 0.0 0.0 1.0
64 3 0.369625 13.0359 48.3735 -1.2 0.0 0.0 0.0 1.0
65 1 1.2218 12.0264 54.4812 1.2 4.445778950766069e-146 1.0460454241221452e-47 0.0 1.0
66 2 1.10606 14.5529 56.3499 2.4 1.3963064538390228e-05 1.2680756324980615e-66 4.388568976912815e-92 0.9999860369354587
67 3 1.12009 12.8996 56.3781 -1.2 6.636520243828354e-20 1.7275568049399757e-49 4.1235619171390145e-87 1.0000000000000007
68 3 1.39887 15.5225 52.6389 -1.2 1.6228023126066912e-286 0.0 0.0 1.0
69 3 -0.221188 15.2531 55.7515 -1.2 1.147793221197522e-46 3.1529516223266086e-117 2.119374414330226e-179 1.0000000000000102
70 3 2.32858 15.2333 55.6011 -1.2 2.6625307794498646e-47 1.098812674876804e-115 1.4536499840459385e-177 0.9999999999999868
71 1 -0.14339 14.1127 51.9148 1.2 0.0 3.267151438834741e-141 0.0 1.0
72 1 1.97255 13.8994 49.3301 1.2 0.0 3.308158183882997e-243 0.0 1.0
73 2 1.38527 16.2276 51.179 2.4 4.347938066620498e-206 0.0 0.0 1.0
74 3 1.40872 17.8556 51.3672 -1.2 0.0 0.0 0.0 1.0
75 3 1.37812 15.1118 57.8203 -1.2 8.024094557512864e-07 3.095257096896556e-16 2.6026361188341627e-42 0.9999991975905497
76 3 0.00653385 15.6505 50.5008 -1.2 0.0 0.0 0.0 1.0
77 1 -3.24535 14.1565 52.2575 1.2 0.0 3.8609115675473525e-138 0.0 1.0
78 3 2.5401 15.5845 50.3749 -1.2 0.0 0.0 0.0 1.0
79 1 -1.92251 14.3166 54.9705 1.2 1.4610341674137565e-88 3.7367900167853204e-27 1.3963144022837717e-283 1.0
80 2 -1.64177 12.1068 53.0058 2.4 3.879648175828339e-105 0.0 0.0 1.0
81 3 -1.67932 10.6023 52.9283 -1.2 1.85871706110355e-205 0.0 0.0 1.0
82 3 -0.919838 13.005 46.1501 -1.2 0.0 0.0 0.0 1.0
83 3 -3.00159 12.795 53.731 -1.2 3.2082000178488716e-188 0.0 0.0 1.0
84 3 -0.304477 12.8234 53.6724 -1.2 2.401599643965346e-156 0.0 0.0 1.0
85 1 -2.9531 21.2157 57.5551 1.2 1.0638522505786329e-11 0.011074276063748084 5.409210437448175e-62 0.9889257239256157
86 1 -1.32248 21.1929 49.6136 1.2 0.0 2.801200836992836e-249 0.0 1.0
87 2 -1.08183 18.6488 47.7599 2.4 5.593816078912443e-296 0.0 0.0 1.0
88 3 -1.12006 20.1811 48.024 -1.2 0.0 0.0 0.0 1.0
89 3 -1.69287 17.5977 51.8129 -1.2 0.0 0.0 0.0 1.0
90 3 -2.27928 17.9099 48.5935 -1.2 0.0 0.0 0.0 1.0
91 1 0.446454 16.6678 46.844 1.2 0.0 0.0 0.0 1.0
92 3 0.391145 18.048 48.4702 -1.2 0.0 0.0 0.0 1.0
93 1 1.3549 16.5885 54.4925 1.2 5.1467278649935045e-161 3.630993789411233e-49 0.0 1.0
94 2 1.32604 19.3108 56.4427 2.4 0.6716615450912753 1.1471738268226309e-64 3.871503603117582e-96 0.3283384549087185
95 3 1.2635 17.8199 56.5634 -1.2 1.2603438588474433e-16 3.6539481001051475e-45 7.082037682010779e-91 1.0000000000000016
96 3 1.62339 20.4139 52.7512 -1.2 2.1338599253737128e-280 0.0 0.0 1.0
97 3 0.00671285 19.9847 55.8782 -1.2 3.4427440948139956e-49 6.362797631086993e-117 4.613272628200051e-180 1.0000000000000047
98 3 2.63314 19.9717 55.6626 -1.2 1.7845529040646067e-46 4.8070622139778715e-114 2.4573300829740187e-180 0.9999999999999891
99 1 -0.105083 18.9142 52.0655 1.2 0.0 1.6389937399348686e-128 0.0 1.0
100 1 2.00445 18.6963 49.4433 1.2 0.0 3.71698481770444e-260 0.0 1.0
101 2 1.56512 21.096 51.2131 2.4 4.764776558888752e-228 0.0 0.0 1.0
102 3 1.7301 22.624 51.3066 -1.2 0.0 0.0 0.0 1.0
103 3 1.52769 19.8565 57.9252 -1.2 0.0001057967100241044 6.953330697309304e-15 2.4695157132405102e-49 0.9998942032899759
104 3 0.352537 20.4191 50.5648 -1.2 0.0 0.0 0.0 1.0
105 1 -2.99534 19.0418 52.4362 1.2 0.0 2.929965942593725e-136 0.0 1.0
106 3 2.81277 20.2913 50.5218 -1.2 0.0 0.0 0.0 1.0
107 1 -1.60612 18.9636 55.1992 1.2 1.21837069603695e-77 1.2317946856989395e-18 1.0143850887878525e-256 1.0000000000000007
108 2 -1.58411 16.8675 53.2815 2.4 1.262854699192766e-90 0.0 0.0 1.0
109 3 -1.63604 15.248 53.1152 -1.2 1.2131730000149746e-219 0.0 0.0 1.0
110 3 -0.796929 18.2891 46.2827 -1.2 0.0 0.0 0.0 1.0
111 3 -2.80368 17.6017 53.9912 -1.2 1.6370295825123318e-165 0.0 0.0 1.0
112 3 -0.251803 17.574 53.957 -1.2 1.2807762353584876e-145 0.0 0.0 1.0
113 1 -2.62432 26.0411 57.4639 1.2 1.260714846444287e-12 0.13851036545663792 1.438781158747748e-69 0.8614896345421043
114 1 -1.12361 26.2091 49.9031 1.2 0.0 4.11810762637345e-252 0.0 1.0
115 2 -1.14065 23.5477 47.8737 2.4 2.12111388e-315 0.0 0.0 1.0
116 3 -1.25837 25.1161 47.8854 -1.2 0.0 0.0 0.0 1.0
117 3 -1.28034 22.3236 51.6328 -1.2 0.0 0.0 0.0 1.0
118 3 -2.28262 22.841 48.7262 -1.2 0.0 0.0 0.0 1.0
119 1 0.150931 21.4984 46.7876 1.2 0.0 0.0 0.0 1.0
120 3 0.325098 22.8809 48.4385 -1.2 0.0 0.0 0.0 1.0
121 1 1.73303 21.4099 54.4788 1.2 6.516272443643866e-159 2.3851264028015615e-47 0.0 1.0
122 2 1.7071 23.9377 56.4021 2.4 0.04123678089755875 9.01057385916696e-86 3.682884304533948e-125 0.9587632191024427
123 3 1.65725 22.3649 56.468 -1.2 9.991776899381565e-25 4.761860877628867e-61 3.763454387978795e-120 1.0000000000000062
124 3 1.71114 25.2026 52.6798 -1.2 2.9369194805930776e-306 0.0 0.0 1.0
125 3 0.446763 24.6278 55.6693 -1.2 5.440344812467327e-57 1.0690712079263789e-128 3.5043890938052183e-208 0.9999999999999943
126 3 2.97026 24.7843 55.8033 -1.2 5.375367852319627e-40 1.9555694151805733e-96 1.9806602922195737e-165 0.999999999999994
127 1 0.10858 23.8733 52.2168 1.2 0.0 3.407562457647905e-128 0.0 1.0
128 1 2.03445 23.4927 49.5401 1.2 0.0 3.2710346901949533e-264 0.0 1.0
129 2 1.81483 25.7764 51.2009 2.4 2.0111783563831303e-241 0.0 0.0 1.0
130 3 1.88023 27.374 51.1876 -1.2 0.0 0.0 0.0 1.0
131 3 1.71122 24.5397 57.8923 -1.2 1.8435496138227536e-05 8.647407720810266e-18 2.1322073810827629e-57 0.9999815645038648
132 3 0.476968 25.0426 50.4804 -1.2 0.0 0.0 0.0 1.0
133 1 -2.69492 23.8457 52.1216 1.2 0.0 2.489491096046589e-151 0.0 1.0
134 3 3.04144 25.0359 50.6165 -1.2 0.0 0.0 0.0 1.0
135 1 -1.45676 23.7457 55.1272 1.2 4.5508187665009084e-88 8.61039197669228e-19 1.4032721310568227e-281 1.0
136 2 -1.29508 21.695 53.1548 2.4 5.534576302203463e-100 0.0 0.0 1.0
137 3 -1.4565 20.1646 53.2598 -1.2 4.4462992965060814e-220 0.0 0.0 1.0
138 3 -1.0059 22.9811 46.3493 -1.2 0.0 0.0 0.0 1.0
139 3 -2.55669 22.4634 53.8364 -1.2 1.0277887728154664e-187 0.0 0.0 1.0
140 3 -0.0779194 22.3763 53.8722 -1.2 6.33763617533503e-174 0.0 0.0 1.0
141 1 -2.63908 30.916 57.3152 1.2 1.2250609203895182e-10 0.7922058229194089 3.4481367764466077e-62 0.20779417695808816
142 1 -0.998812 30.7471 49.8618 1.2 0.0 3.736351168107001e-222 0.0 1.0
143 2 -1.13504 28.2728 47.8868 2.4 2.8143495211479316e-295 0.0 0.0 1.0
144 3 -0.934269 29.8146 47.9716 -1.2 0.0 0.0 0.0 1.0
145 3 -1.03105 27.2249 51.7062 -1.2 0.0 0.0 0.0 1.0
146 3 -2.42564 27.76 48.6084 -1.2 0.0 0.0 0.0 1.0
147 1 -0.472026 26.036 46.2964 1.2 0.0 0.0 0.0 1.0
148 3 0.118867 27.4072 48.7081 -1.2 0.0 0.0 0.0 1.0
149 1 1.95341 26.112 54.5116 1.2 5.410674158226796e-150 1.243274480309292e-41 0.0 1.0
150 2 1.92685 28.8505 56.4956 2.4 0.9925668330412475 2.422664105650227e-70 1.5693489727879844e-105 0.007433166958749379
151 3 1.94769 27.2878 56.5632 -1.2 1.5770776459569346e-19 1.1341292757029725e-48 1.616526011818224e-102 1.0000000000000027
152 3 1.87597 29.9789 52.7579 -1.2 1.470617735150133e-283 0.0 0.0 1.0
153 3 0.675752 29.5389 55.8071 -1.2 1.2007471180517523e-45 4.4297505876779235e-104 1.8124606322924228e-175 0.9999999999999969
154 3 3.37145 29.6029 55.8225 -1.2 1.3625295850047439e-42 1.778313113099041e-101 4.109262529158059e-170 1.000000000000001
155 1 0.49635 28.4079 52.3139 1.2 0.0 3.105483706704013e-131 0.0 1.0
156 1 1.90255 28.2523 49.3701 1.2 0.0 3.232164758693397e-266 0.0 1.0
157 2 1.88241 30.6009 51.2906 2.4 6.04445083163269e-226 0.0 0.0 1.0
158 3 1.9665 32.156 51.3545 -1.2 0.0 0.0 0.0 1.0
159 3 1.77387 29.4215 57.9785 -1.2 0.015208748558210982 4.431425090221348e-14 4.61630526512358e-51 0.9847912514417517
160 3 0.75902 29.9164 50.5143 -1.2 0.0 0.0 0.0 1.0
161 1 -2.52459 28.5829 52.1207 1.2 0.0 3.015319561328758e-146 0.0 1.0
162 3 3.24888 29.9608 50.506 -1.2 0.0 0.0 0.0 1.0
163 1 -1.0815 28.5731 55.0733 1.2 8.593494539905234e-95 9.278266341036042e-23 1.5881238696157776e-297 1.0
164 2 -1.14331 26.5054 53.1863 2.4 3.024312777068267e-105 0.0 0.0 1.0
165 3 -1.38878 24.9976 53.2194 -1.2 2.3670838092853692e-228 0.0 0.0 1.0
166 3 -0.817649 27.9223 46.3589 -1.2 0.0 0.0 0.0 1.0
167 3 -2.46596 27.2439 53.7948 -1.2 2.3542164683328117e-197 0.0 0.0 1.0
168 3 0.0729648 27.1301 54.0105 -1.2 4.8187319117494245e-165 0.0 0.0 1.0
169 1 -2.59484 35.5987 57.4359 1.2 2.9647795166264596e-08 0.9791552438066332 9.730100594716826e-61 0.020844726545573625
170 1 -1.28871 35.65 49.9143 1.2 0.0 2.4457304723865237e-195 0.0 1.0
171 2 -0.794913 33.0519 48.0436 2.4 4.801628675429873e-266 0.0 0.0 1.0
172 3 -0.703943 34.5462 48.2095 -1.2 0.0 0.0 0.0 1.0000000000002516
173 3 -1.16791 31.9287 51.7602 -1.2 0.0 0.0 0.0 1.0
174 3 -1.96632 32.3754 48.8238 -1.2 0.0 0.0 0.0 1.0
175 1 -0.0284691 30.9805 46.6955 1.2 0.0 0.0 0.0 1.0
176 3 0.646398 32.205 48.5261 -1.2 0.0 0.0 0.0 1.0
177 1 1.77873 31.1032 54.4874 1.2 8.677212653177097e-172 1.2009617130527502e-57 0.0 1.0
178 2 1.85626 33.6574 56.4034 2.4 0.6606660077707734 7.781572364081513e-75 6.877297532074595e-112 0.33933399222923205
179 3 1.94826 32.1434 56.49 -1.2 2.0832389471357712e-21 2.5187486315015913e-55 8.11975239817609e-107 0.9999999999999976
180 3 1.955 34.698 52.6309 -1.2 8.591818014531791e-265 0.0 0.0 1.0
181 3 0.553678 34.3775 55.8229 -1.2 3.233169213729379e-36 1.20924064038821e-88 1.1574490165769703e-155 0.9999999999999898
182 3 3.15621 34.2775 55.7647 -1.2 3.4070323550039996e-41 2.710318525246066e-101 2.3661704793777086e-168 1.0000000000000004
183 1 0.298263 33.2099 52.3201 1.2 0.0 5.6758182650679805e-112 0.0 1.0
184 1 2.19918 32.9939 49.3129 1.2 0.0 6.913213758141881e-231 0.0 1.0
185 2 1.78529 35.3046 51.1028 2.4 6.97258559142741e-222 0.0 0.0 1.0
186 3 1.66832 36.8795 50.9246 -1.2 0.0 0.0 0.0 1.0
187 3 1.91146 34.245 57.9162 -1.2 0.2077558720037789 9.432060662492274e-14 2.723013347668846e-52 0.792244127996124
188 3 0.410137 34.5093 50.6586 -1.2 0.0 0.0 0.0 1.0
189 1 -2.58901 33.3866 51.9707 1.2 0.0 6.68491737384524e-133 0.0 1.0
190 3 2.97027 34.5752 50.3142 -1.2 0.0 0.0 0.0 1.0
191 1 -1.07322 33.2068 55.1628 1.2 2.703339335194251e-71 4.30646978780555e-17 1.7396045363350782e-235 1.0
192 2 -1.16555 31.2577 53.2762 2.4 8.412621614954244e-102 0.0 0.0 1.0
193 3 -1.1127 29.6634 53.127 -1.2 1.0273832453262623e-222 0.0 0.0 1.0
194 3 -0.646724 32.7973 46.3825 -1.2 0.0 0.0 0.0 1.0
195 3 -2.39886 31.9663 54.0022 -1.2 6.888956736317937e-156 0.0 0.0 1.0
196 3 0.120262 31.9542 53.9135 -1.2 1.8735878055705476e-152 0.0 0.0 1.0
197 1 -2.56237 40.3221 57.2541 1.2 5.089741037112175e-10 0.20468249992641724 1.6854985694158337e-63 0.7953174995646064
198 1 -1.21485 40.2526 49.6186 1.2 0.0 9.577022027594722e-198 0.0 1.0
199 2 -1.35024 37.5415 47.758 2.4 6.632424109911453e-230 0.0 0.0 1.0
200 3 -1.40539 39.1323 47.6598 -1.2 0.0 0.0 0.0 1.000000000000112
201 3 -1.33293 36.4751 51.6521 -1.2 0.0 0.0 0.0 1.0
202 3 -2.38265 37.0069 48.7162 -1.2 0.0 0.0 0.0 1.0000000000003662
203 1 -0.258031 35.3478 46.3594 1.2 0.0 1.0191038252653946e-299 0.0 1.0
204 3 0.208723 37.0479 48.0868 -1.2 0.0 0.0 0.0 0.9999999999999125
205 1 1.88747 35.5967 54.469 1.2 5.3258572260308353e-129 3.46386080341467e-37 0.0 1.0
206 2 1.88223 38.2665 56.3312 2.4 0.997675788511932 1.951252293761307e-74 4.695443250951438e-115 0.002324211488068839
207 3 1.91769 36.7786 56.3697 -1.2 3.252933391722309e-17 1.430086491208203e-48 8.038952430708984e-103 1.0000000000000022
208 3 1.78903 39.4305 52.4645 -1.2 2.167212517185869e-258 0.0 0.0 1.0
209 3 0.565711 38.8257 55.6309 -1.2 1.5762791019593301e-38 6.303103763639587e-94 7.443028338267047e-164 1.0000000000000013
210 3 3.13755 39.0768 55.6277 -1.2 4.267224208495582e-33 5.936369612489048e-84 1.2941074125837388e-151 0.9999999999999943
211 1 0.271674 37.933 52.0961 1.2 0.0 5.103743015161458e-114 0.0 1.0
212 1 1.70951 37.7852 49.0858 1.2 0.0 7.90178626877651e-224 0.0 1.0
213 2 1.65255 39.9275 50.925 2.4 2.1509690669276443e-193 0.0 0.0 1.0
214 3 1.63312 41.5213 50.8078 -1.2 0.0 0.0 0.0 1.0000000000001183
215 3 2.00922 38.9479 57.8399 -1.2 0.009498801171365139 2.3271686669563105e-15 1.7991014956982482e-53 0.9905011988286283
216 3 0.310819 39.2439 50.4178 -1.2 0.0 0.0 0.0 1.0000000000001594
217 1 -2.68839 37.9501 51.9938 1.2 0.0 1.2446895443452253e-124 0.0 1.0
218 3 2.91929 39.2818 50.2731 -1.2 0.0 0.0 0.0 1.0000000000000757
219 1 -1.22949 37.9887 55.1371 1.2 2.683892194864109e-65 1.5240511624248893e-14 1.9442899049712985e-227 0.9999999999999775
220 2 -1.17576 35.8504 53.2738 2.4 2.5561428282330753e-84 0.0 0.0 1.0
221 3 -1.15222 34.3012 53.2199 -1.2 2.8130241043795865e-204 0.0 0.0 1.0
222 3 -1.48327 36.7684 46.2931 -1.2 0.0 0.0 0.0 1.0
223 3 -2.39715 36.6487 53.9746 -1.2 1.685309145793535e-130 1.90476908e-315 0.0 1.0000000000000124
224 3 0.199884 36.5698 53.7317 -1.2 2.3319372328670826e-151 0.0 0.0 1.0
225 1 -2.71066 44.9518 57.0915 1.2 3.473162354680269e-13 0.008623546777359416 3.9942833547569656e-66 0.9913764532222957
226 1 -0.881252 44.859 49.325 1.2 0.0 1.0049951651995586e-201 0.0 1.0
227 2 -1.10272 42.2433 47.4641 2.4 4.1698460922493063e-184 0.0 0.0 1.0
228 3 -0.789912 43.821 47.3845 -1.2 0.0 0.0 0.0 1.0
229 3 -1.18236 41.3807 51.4652 -1.2 0.0 0.0 0.0 1.0
230 3 -2.20861 41.7756 48.4961 -1.2 0.0 0.0 0.0 1.0
231 1 -0.0833994 40.0549 46.5306 1.2 0.0 7.898837833998667e-269 0.0 1.0
232 3 0.365986 41.4789 48.0325 -1.2 0.0 0.0 0.0 0.9999999999998181
233 1 1.85413 40.3543 54.3664 1.2 1.1430095167061891e-132 2.8620503007819033e-37 0.0 1.0
234 2 1.76462 42.9129 56.1957 2.4 0.968379923113647 4.804205445360867e-72 2.1421692534931434e-110 0.031620076886346056
235 3 1.70997 41.342 56.3745 -1.2 3.520016934539778e-17 1.9401784105015e-45 7.926473696183604e-97 0.9999999999999984
236 3 2.02749 43.9261 52.1975 -1.2 9.626127834396828e-283 0.0 0.0 1.0
237 3 0.405258 43.6061 55.5553 -1.2 1.0285618584349683e-39 5.833450680699212e-97 7.01767278206761e-163 0.9999999999999947
238 3 3.04595 43.4558 55.4525 -1.2 9.533368172089295e-41 1.2246817042650534e-102 7.620458764672838e-174 1.0000000000000049
239 1 0.433872 42.622 52.1496 1.2 0.0 5.781881752041116e-112 0.0 1.0
240 1 1.97075 42.3145 49.0702 1.2 0.0 1.5472811973936651e-214 0.0 1.0
241 2 2.07677 44.6393 50.6325 2.4 2.3555295258752783e-171 0.0 0.0 1.0
242 3 2.19683 46.2192 50.8963 -1.2 0.0 0.0 0.0 1.0
243 3 1.74312 43.6602 57.7209 -1.2 2.2622013702145156e-06 2.8596788498861273e-19 1.3017337753021808e-51 0.9999977377986234
244 3 0.905181 44.0587 49.7204 -1.2 0.0 0.0 0.0 0.9999999999998135
245 1 -2.56919 42.7366 51.926 1.2 0.0 1.039715674331102e-122 0.0 1.0
246 3 3.38318 44.0421 50.1416 -1.2 0.0 0.0 0.0 1.0000000000001563
247 1 -1.20142 42.6172 54.9059 1.2 3.654749904061402e-70 2.3397947889055305e-15 1.7072371196135028e-241 1.0000000000000007
248 2 -1.18479 40.556 53.006 2.4 8.664982889913902e-85 0.0 0.0 1.0
249 3 -1.17103 39.0593 52.8789 -1.2 9.150142087759913e-216 0.0 0.0 1.0
250 3 -1.12158 41.5985 46.0257 -1.2 0.0 0.0 0.0 1.0
251 3 -2.501 41.2266 53.5657 -1.2 2.5061466835026018e-173 0.0 0.0 1.000000000000007
252 3 0.0815384 41.1908 53.7305 -1.2 1.5315619451144431e-136 0.0 0.0 1.0000000000000047
253 1 -2.51468 49.7221 57.2893 1.2 2.8130451622072875e-15 0.0002150820566044688 1.1350831381784741e-66 0.9997849179433915
254 1 -0.630572 49.7543 49.4789 1.2 0.0 1.0309053255093288e-239 0.0 1.0
255 2 -0.456846 47.1732 47.356 2.4 5.3898687461500776e-188 0.0 0.0 1.0
256 3 -0.321452 48.7548 47.1932 -1.2 0.0 0.0 0.0 1.0
257 3 -0.864794 45.9041 51.4351 -1.2 0.0 0.0 0.0 1.0
258 3 -1.53257 46.6763 48.3923 -1.2 0.0 0.0 0.0 1.0
259 1 0.0799112 44.7562 45.9767 1.2 0.0 3.278059774540453e-291 0.0 1.0
260 3 1.05525 46.5256 47.7928 -1.2 0.0 0.0 0.0 1.0
261 1 2.1389 45.0948 54.0889 1.2 1.5470592499135833e-146 6.030711527626989e-43 0.0 1.0
262 2 1.80631 47.7228 56.204 2.4 5.655117324015804e-07 4.518967201380016e-82 1.420893821384144e-114 0.999999434488263
263 3 1.80457 46.1302 56.244 -1.2 1.5666462864256546e-24 2.3471925505343882e-61 6.928165384043036e-107 0.999999999999997
264 3 2.0809 48.609 52.356 -1.2 3.101323978801865e-262 0.0 0.0 1.0
265 3 0.409678 48.3373 55.6591 -1.2 2.625153979443075e-42 7.173212906101874e-105 1.2366335251919008e-165 1.0000000000000013
266 3 3.14433 48.3136 55.4155 -1.2 1.8718811661651923e-43 1.3587107000328935e-105 5.624216149247139e-170 1.0000000000000118
267 1 0.69234 47.2715 51.9586 1.2 0.0 1.206320586792152e-117 0.0 1.0
268 1 2.61474 47.2244 48.9343 1.2 0.0 7.597591736622144e-242 0.0 1.0
269 2 2.22218 49.3435 50.934 2.4 5.633286526147744e-181 0.0 0.0 1.0
270 3 2.3548 50.9419 51.1012 -1.2 0.0 0.0 0.0 1.0
271 3 1.98712 48.2692 57.6347 -1.2 3.5683072187523805e-09 4.3918111067837335e-24 8.167334216808463e-53 0.9999999964316955
272 3 1.03903 48.7616 50.0465 -1.2 0.0 0.0 0.0 1.0
273 1 -2.25341 47.2537 51.6819 1.2 0.0 7.522926410040163e-144 0.0 1.0
274 3 3.51696 48.8097 50.1867 -1.2 0.0 0.0 0.0 1.0
275 1 -1.12847 47.4242 54.8963 1.2 6.037522364512606e-80 3.163906832848873e-20 9.908621890020261e-269 0.9999999999999996
276 2 -0.812975 45.2631 52.9693 2.4 6.916402049677964e-76 0.0 0.0 1.0
277 3 -0.93876 43.7864 52.8349 -1.2 1.9426658595744236e-204 0.0 0.0 1.0000000000000187
278 3 -0.52443 46.5651 45.8483 -1.2 0.0 0.0 0.0 1.0
279 3 -2.03871 45.9835 53.6832 -1.2 1.6544591349956656e-132 0.0 0.0 0.9999999999999717
280 3 0.491294 45.9147 53.6496 -1.2 1.5394466632246539e-144 0.0 0.0 1.000000000000055
281 1 -2.27833 54.303 57.1278 1.2 4.310186552564271e-15 0.006152012586504273 4.2592846166186235e-68 0.9938479874134891
282 1 -0.487209 54.4548 49.7096 1.2 0.0 4.024321121830349e-251 0.0 1.0
283 2 -0.0253813 51.9604 47.5317 2.4 7.063631179449938e-253 0.0 0.0 1.0
284 3 0.0424542 53.5899 47.7946 -1.2 0.0 0.0 0.0 1.0
285 3 -0.64597 50.6511 51.444 -1.2 0.0 0.0 0.0 1.0
286 3 -1.20366 51.3802 48.4528 -1.2 0.0 0.0 0.0 1.0
287 1 0.683307 49.8272 45.8551 1.2 0.0 0.0 0.0 1.0
288 3 1.32144 51.3071 48.0337 -1.2 0.0 0.0 0.0 1.0
289 1 2.22996 49.6716 54.1219 1.2 4.462384927957052e-165 2.7276965048677858e-52 0.0 1.0
290 2 1.96846 52.303 56.3331 2.4 1.7687009027452202e-06 6.083432997932158e-79 3.8415210230129946e-108 0.9999982312991033
291 3 1.88423 50.7847 56.2181 -1.2 4.5711760551739026e-29 1.8343720425392587e-68 2.393160873588954e-116 1.0
292 3 2.47654 53.3052 52.6815 -1.2 2.6198460297687103e-273 0.0 0.0 1.0
293 3 0.597709 53.0898 55.7201 -1.2 3.693518843045089e-57 1.3991014822292493e-130 1.2272138623589773e-198 0.9999999999999899
294 3 3.13866 52.9947 55.5946 -1.2 1.2739222915054817e-49 1.189982656894551e-115 9.699961114532836e-183 1.0000000000000104
295 1 0.855626 51.9802 51.9492 1.2 0.0 1.0528946294295892e-133 0.0 1.0
296 1 2.93795 51.9731 49.0341 1.2 0.0 8.934053431885794e-277 0.0 1.0
297 2 2.44564 54.1211 51.1786 2.4 5.604543418039331e-203 0.0 0.0 1.0
298 3 2.50925 55.6684 51.3273 -1.2 0.0 0.0 0.0 1.0
299 3 2.02242 52.9272 57.798 -1.2 2.399896233438597e-08 2.261104740059864e-20 1.0483391564574475e-46 0.9999999760010394
300 3 1.07587 53.5651 50.5109 -1.2 0.0 0.0 0.0 1.0
301 1 -2.17332 51.8952 52.0119 1.2 0.0 9.38259710724597e-155 0.0 1.0
302 3 3.66553 53.5048 50.3859 -1.2 0.0 0.0 0.0 1.0
303 1 -1.02289 52.2182 54.8947 1.2 1.383038883426672e-97 4.6127792264325773e-29 3.4258988537289e-310 1.0
304 2 -0.636181 49.9363 52.9367 2.4 9.892742503383809e-89 0.0 0.0 1.0
305 3 -0.751376 48.4154 52.788 -1.2 4.6709956363391785e-222 0.0 0.0 1.0
306 3 -0.0797159 51.6082 46.0036 -1.2 0.0 0.0 0.0 1.0
307 3 -1.81794 50.6488 53.6139 -1.2 6.776363455462113e-160 0.0 0.0 1.0000000000000036
308 3 0.634175 50.7111 53.4804 -1.2 6.980022847186619e-172 0.0 0.0 1.0
309 1 -2.20006 59.2155 57.3548 1.2 7.20522575731601e-12 0.5345289438838263 1.6592788684416725e-65 0.4654710561089669
310 1 -0.520553 59.377 49.9021 1.2 0.0 1.9272316893997776e-272 0.0 1.0
311 2 0.0890061 56.941 48.0483 2.4 6.413013985558344e-302 0.0 0.0 1.0
312 3 -0.112809 58.3988 48.2098 -1.2 0.0 0.0 0.0 1.0
313 3 -0.582961 55.6076 51.5589 -1.2 0.0 0.0 0.0 1.0
314 3 -1.17307 56.0543 48.3467 -1.2 0.0 0.0 0.0 1.0
315 1 0.884761 55.0049 46.8975 1.2 0.0 0.0 0.0 1.0
316 3 1.35032 56.2357 48.6727 -1.2 0.0 0.0 0.0 1.0
317 1 2.45717 54.5088 54.3311 1.2 6.09204335635147e-166 3.219490234883903e-55 0.0 1.0
318 2 2.13869 56.998 56.3712 2.4 1.0448302101427027e-05 1.3377208029162191e-78 1.5360680223660253e-112 0.9999895516978938
319 3 2.2241 55.4836 56.3423 -1.2 1.010655573926527e-23 4.327748845566347e-59 2.329321126909125e-112 1.000000000000001
320 3 2.44949 58.2912 52.7781 -1.2 3.162417107418032e-284 0.0 0.0 1.0
321 3 0.844184 57.7682 55.8559 -1.2 3.750655981008273e-51 1.8809257741128613e-113 5.9867406216884215e-182 1.0000000000000002
322 3 3.42837 57.7325 55.5467 -1.2 3.1807607725407274e-56 1.8774387849972867e-128 1.380557225894409e-203 1.0000000000000002
323 1 0.913838 56.9356 52.0822 1.2 0.0 1.6054161203898068e-140 0.0 1.0
324 1 3.13625 56.5477 49.4405 1.2 0.0 1.3161616553483239e-284 0.0 1.0
325 2 2.54881 59.0093 51.2194 2.4 6.596169667983806e-232 0.0 0.0 1.0
326 3 2.68756 60.5525 51.2663 -1.2 0.0 0.0 0.0 1.0
327 3 2.26418 57.7627 57.8426 -1.2 0.00037912327962550866 1.10516484894212e-13 8.891003996590801e-48 0.9996208767202622
328 3 1.22688 58.4133 50.566 -1.2 0.0 0.0 0.0 1.0
329 1 -2.06861 57.0349 52.4317 1.2 0.0 5.371036349278931e-158 0.0 1.0
330 3 3.862 58.2663 50.6329 -1.2 0.0 0.0 0.0 1.0
331 1 -0.758813 56.814 55.1699 1.2 2.1092312243146938e-76 1.8368251581428284e-18 7.326181025894986e-247 1.0000000000000042
332 2 -0.574453 54.7537 53.2341 2.4 8.656875793027524e-95 0.0 0.0 1.0
333 3 -0.688554 53.2027 53.0498 -1.2 3.987282038168094e-224 0.0 0.0 1.0
334 3 0.537512 56.8198 46.3791 -1.2 0.0 0.0 0.0 1.0
335 3 -1.78963 55.5319 53.9188 -1.2 2.5191046587736466e-174 0.0 0.0 1.0
336 3 0.730887 55.4474 53.7593 -1.2 8.373466187212838e-160 0.0 0.0 1.0
337 1 -2.14167 64.0308 57.3891 1.2 1.6974817735248811e-09 0.45152748252241365 2.3513330985907e-59 0.5484725157801073
338 1 -0.513612 64.0616 49.9331 1.2 0.0 8.241695302521596e-274 0.0 1.0
339 2 -0.142132 61.3739 47.8729 2.4 2.2919592e-316 0.0 0.0 1.0
340 3 -0.190712 62.9627 47.7987 -1.2 0.0 0.0 0.0 1.0
341 3 -0.374602 60.3368 51.7536 -1.2 0.0 0.0 0.0 1.0
342 3 -1.33908 60.954 49.0047 -1.2 0.0 0.0 0.0 1.0
343 1 0.506576 58.9201 46.3724 1.2 0.0 0.0 0.0 1.0
344 3 1.32954 60.9015 48.4204 -1.2 0.0 0.0 0.0 1.0
345 1 2.63482 59.434 54.3866 1.2 2.6177867381739655e-180 1.281925403561234e-62 0.0 1.0
346 2 2.48491 61.9042 56.5133 2.4 0.9594845022038545 1.4037411199056968e-70 1.6906803049638643e-108 0.04051549779614172
347 3 2.41342 60.3495 56.477 -1.2 3.870657695996284e-19 1.90456594489975e-47 4.280922188182844e-102 0.9999999999999974
348 3 2.54754 63.1484 52.8131 -1.2 4.9300800317792984e-290 0.0 0.0 1.0
349 3 1.19976 62.6153 55.7168 -1.2 2.5250689817443886e-50 2.1703842296344097e-112 1.7186553200563746e-189 1.0000000000000107
350 3 3.75205 62.6371 55.7897 -1.2 3.353301880524192e-45 1.5493184279961202e-102 6.146111364049706e-171 1.0000000000000013
351 1 1.10695 61.717 52.1267 1.2 0.0 4.763353301085241e-150 0.0 1.0
352 1 2.92839 61.6908 49.4919 1.2 0.0 2.9168626943329005e-294 0.0 1.0
353 2 2.4245 63.9114 51.321 2.4 2.5227015229604075e-221 0.0 0.0 1.0
354 3 2.51089 65.453 51.3845 -1.2 0.0 0.0 0.0 1.0
355 3 2.41159 62.5901 57.9144 -1.2 0.028007570594065192 4.94626108517824e-11 1.7987020439957737e-47 0.9719924293564738
356 3 1.20332 63.2605 50.6656 -1.2 0.0 0.0 0.0 1.0
357 1 -1.87218 61.6495 52.2225 1.2 0.0 4.7157290509817194e-167 0.0 1.0
358 3 3.60874 63.2579 50.4917 -1.2 0.0 0.0 0.0 1.0
359 1 -0.561905 61.5799 55.0946 1.2 1.0391674155482059e-103 1.447348675077726e-28 1.0774562183e-312 1.0
360 2 -0.316852 59.6163 53.2861 2.4 1.2783900695292221e-107 0.0 0.0 1.0
361 3 -0.489409 58.0442 53.1122 -1.2 9.067347665026555e-228 0.0 0.0 1.0
362 3 -0.278724 60.6913 46.3477 -1.2 0.0 0.0 0.0 1.0
363 3 -1.6309 60.3459 53.957 -1.2 2.718408737804489e-159 0.0 0.0 1.0
364 3 0.938073 60.3101 53.8839 -1.2 1.4505653034961863e-172 0.0 0.0 1.0
365 1 -1.86886 68.7241 57.5781 1.2 6.898499780496836e-08 0.39354877586300147 6.388588593493586e-54 0.6064511551519988
366 1 -0.242304 68.9105 50.0286 1.2 0.0 7.14722417514251e-247 0.0 1.0
367 2 -0.725479 66.2399 48.0808 2.4 1.945288e-317 0.0 0.0 1.0
368 3 -0.416575 67.8587 48.0024 -1.2 0.0 0.0 0.0 1.0
369 3 -0.599069 65.0638 51.8472 -1.2 0.0 0.0 0.0 1.0
370 3 -2.10111 65.8129 48.5989 -1.2 0.0 0.0 0.0 1.0
371 1 1.00289 64.3629 47.1851 1.2 0.0 0.0 0.0 1.0
372 3 0.553918 65.5691 48.9515 -1.2 0.0 0.0 0.0 1.0
373 1 2.44376 64.0775 54.5373 1.2 6.883632577502349e-164 4.560688085583971e-53 0.0 1.0
374 2 2.63061 66.7883 56.3253 2.4 5.8984069658054754e-08 3.5831605468950817e-91 1.1736446314847945e-135 0.9999999410159166
375 3 2.42725 65.2462 56.3739 -1.2 1.3442105273772141e-29 7.497929495697845e-70 5.562310219907162e-132 1.000000000000003
376 3 2.59565 67.8209 52.8218 -1.2 3.3731472974452815e-289 0.0 0.0 1.0
377 3 1.33757 67.4897 55.5842 -1.2 2.978389535115867e-62 3.754815011558338e-136 1.3321551467959194e-220 1.000000000000011
378 3 3.92225 67.5159 55.7583 -1.2 1.767830148590086e-55 1.348515182762906e-122 6.229334746524233e-196 0.9999999999999987
379 1 0.993425 66.5381 52.3139 1.2 0.0 9.40819427083242e-138 0.0 1.0
380 1 2.37832 66.2999 49.498 1.2 0.0 5.137056245339837e-300 0.0 1.0