ITEM: TIMESTEP
4200
ITEM: NUMBER OF ATOMS
10500
ITEM: BOX BOUNDS xy xz yz pp pp pp
0	8.9688	2.9896
0	118.725	0
0	252.977	0
ITEM: ATOMS id type xu yu zu q pCrystal pDisloC pSF pDisloB pDisloA
1 1 -3.40838 7.08979 57.5827 1.2 1.0 1.445902363164122e-46 1.8237464326345203e-68 2.114849481746328e-62 3.0972099875431523e-19
2 1 -1.82655 6.90154 50.0912 1.2 1.0 0.0 0.0 0.0 0.0
3 2 -0.257935 3.96038 48.0876 2.4 0.0 0.0 0.0 0.0 1.0
4 3 -0.335812 5.46814 47.6264 -1.2 1.0 0.0 0.0 0.0 0.0
5 3 -2.03793 3.43377 51.8941 -1.2 1.0 0.0 0.0 0.0 0.0
6 3 -1.54015 3.53929 48.9521 -1.2 1.0 0.0 0.0 0.0 0.0
7 1 1.82954 2.54582 47.1376 1.2 1.0 0.0 0.0 0.0 0.0
8 3 1.22989 3.66364 48.7877 -1.2 1.0 0.0 0.0 0.0 0.0
9 1 0.963608 2.31757 54.6074 1.2 1.0 0.0 0.0 0.0 6.198733630390851e-117
10 2 1.11312 5.0023 56.4297 2.4 1.3499198602814903e-95 8.780743862555261e-73 3.538916380098223e-115 1.581103941356467e-95 0.9999999999999994
11 3 0.996333 3.43405 56.5732 -1.2 1.0 1.1844355166272355e-116 3.5729566792744837e-160 1.1724016215497086e-136 2.9915387785378606e-42
12 3 1.10813 6.07342 52.8172 -1.2 1.0 0.0 0.0 0.0 0.0
13 3 -0.182539 5.68269 55.7957 -1.2 1.0 1.1132344311950577e-231 4.29576334092e-311 5.933221072793314e-252 6.818224748021338e-79
14 3 2.37252 5.66748 55.8027 -1.2 1.0 7.705935283938734e-193 1.0454092427676607e-261 5.738893702849839e-213 9.866387697095129e-67
15 1 -0.459401 4.67631 52.2426 1.2 1.0 0.0 0.0 0.0 4.848984388711676e-301
16 1 2.79456 3.9971 49.9987 1.2 1.0 0.0 0.0 0.0 0.0
17 2 1.16169 6.59457 51.2556 2.4 0.0 0.0 0.0 0.0 1.0
18 3 1.28989 8.18905 51.2909 -1.2 1.0 0.0 0.0 0.0 0.0
19 3 1.12461 5.66265 57.9449 -1.2 0.9999999999996874 6.097607490621303e-28 3.5733897972893464e-44 3.4699727065888763e-41 3.180852281853957e-13
20 3 -0.184847 6.06029 50.6845 -1.2 1.0 0.0 0.0 0.0 0.0
21 1 -3.49704 4.67769 52.6661 1.2 1.0 0.0 0.0 0.0 8.507814855630668e-265
22 3 2.48581 5.93312 50.6539 -1.2 1.0 0.0 0.0 0.0 0.0
23 1 -1.88259 4.72563 55.2226 1.2 1.0 4.1307493808184047e-277 0.0 2.73900775796616e-293 4.3290614765238224e-85
24 2 -1.96611 2.6323 53.3391 2.4 0.0 0.0 0.0 0.0 1.0
25 3 -1.97719 1.09168 53.2338 -1.2 1.0 0.0 0.0 0.0 5.003429950202234e-282
26 3 -0.0467762 2.97103 46.8385 -1.2 1.0 0.0 0.0 0.0 0.0
27 3 -3.2188 3.2466 54.0952 -1.2 1.0 0.0 0.0 0.0 8.534113069136182e-199
28 3 -0.657165 3.30891 53.9952 -1.2 1.0 0.0 0.0 0.0 2.2507633496935987e-209
29 1 -3.2573 11.78 57.4795 1.2 1.0 7.132750944448525e-54 3.7433776285525e-79 3.5696604280756925e-71 7.896333630287143e-22
30 1 -1.75014 11.5838 49.8362 1.2 1.0 0.0 0.0 0.0 0.0
31 2 -1.18003 9.02138 47.9309 2.4 0.0 0.0 0.0 0.0 1.0
32 3 -1.23224 10.5991 47.9811 -1.2 1.0 0.0 0.0 0.0 0.0
33 3 -1.79016 8.01447 51.8693 -1.2 1.0 0.0 0.0 0.0 0.0
34 3 -2.30986 8.37215 48.8528 -1.2 1.0 0.0 0.0 0.0 0.0
35 1 0.154883 7.08234 46.8007 1.2 1.0 0.0 0.0 0.0 0.0
36 3 0.325447 8.50934 48.3809 -1.2 1.0 0.0 0.0 0.0 0.0
37 1 1.16859 7.09105 54.6543 1.2 1.0 0.0 0.0 0.0 4.7035514706176095e-120
38 2 1.16942 9.73376 56.5117 2.4 6.884200318991447e-102 6.6124688194979055e-77 5.8503649936115634e-126 1.0332103571830057e-103 1.0000000000000002
39 3 1.13428 8.16554 56.613 -1.2 1.0 1.6507224165507576e-95 8.563381626197059e-134 9.071562964368475e-118 1.0386616248988884e-36
40 3 1.28624 10.7248 52.7351 -1.2 1.0 0.0 0.0 0.0 0.0
41 3 -0.0880369 10.3924 55.823 -1.2 1.0 2.8285909109104507e-241 0.0 1.8567443681428735e-264 3.414970180962593e-80
42 3 2.41873 10.413 55.8361 -1.2 1.0 1.3734096235637488e-198 1.2935337238507597e-273 6.551590065644923e-225 4.2165434353986977e-69
43 1 -0.262694 9.34741 52.2523 1.2 1.0 0.0 0.0 0.0 2.4247515420300888e-275
44 1 1.87648 9.01537 49.4629 1.2 1.0 0.0 0.0 0.0 0.0
45 2 1.21415 11.3799 51.2378 2.4 0.0 0.0 0.0 0.0 1.0
46 3 1.31634 12.9512 51.3023 -1.2 1.0 0.0 0.0 0.0 0.0
47 3 1.22865 10.406 58.0095 -1.2 0.9999999999999716 4.587155640138611e-31 5.015851682620715e-49 1.6816904774971147e-45 2.6499807234953765e-14
48 3 -0.115718 10.7564 50.681 -1.2 1.0 0.0 0.0 0.0 0.0
49 1 -3.26386 9.35564 52.3622 1.2 1.0 0.0 0.0 0.0 1.332955122939819e-280
50 3 2.45216 10.7265 50.4558 -1.2 1.0 0.0 0.0 0.0 0.0
51 1 -1.82107 9.42325 55.2188 1.2 1.0 1.940965130975002e-285 0.0 1.7560669337288432e-304 5.953472747038494e-86
52 2 -1.76745 7.3596 53.3536 2.4 0.0 0.0 0.0 0.0 1.0
53 3 -1.87426 5.80404 53.351 -1.2 1.0 0.0 0.0 0.0 2.2424574365586685e-270
54 3 -1.19417 8.46968 46.4488 -1.2 1.0 0.0 0.0 0.0 0.0
55 3 -3.06696 8.05917 54.0366 -1.2 1.0 0.0 0.0 0.0 1.1071786672458773e-194
56 3 -0.469072 8.05957 53.9958 -1.2 1.0 0.0 0.0 0.0 5.301594740729932e-190
57 1 -3.20111 16.549 57.4226 1.2 1.0 8.939224574180105e-51 3.944907785198227e-75 1.1318598858176852e-67 2.7569707283846233e-21
58 1 -1.6714 16.3544 49.8412 1.2 1.0 0.0 0.0 0.0 0.0
59 2 -1.18567 13.8526 47.9314 2.4 0.0 0.0 0.0 0.0 1.0
60 3 -1.09664 15.4205 47.9915 -1.2 1.0 0.0 0.0 0.0 0.0
61 3 -1.73493 12.7491 51.7772 -1.2 1.0 0.0 0.0 0.0 0.0
62 3 -2.36115 13.2717 48.8238 -1.2 1.0 0.0 0.0 0.0 0.0
63 1 -0.159928 11.7639 46.8533 1.2 1.0 0.0 0.0 0.0 0.0
64 3 0.2623 13.1866 48.413 -1.2 1.0 0.0 0.0 0.0 0.0
65 1 1.26662 11.7372 54.5706 1.2 1.0 0.0 0.0 0.0 1.1228023875595557e-133
66 2 1.27999 14.4433 56.4108 2.4 3.926995453847177e-98 3.6375718309154046e-73 1.9081524014568937e-122 2.839532431419668e-100 1.0000000000000002
67 3 1.25528 12.8866 56.5313 -1.2 1.0 2.5776585608607757e-100 9.804742480244067e-143 1.494170934828216e-126 5.027327340192541e-38
68 3 1.36565 15.4813 52.729 -1.2 1.0 0.0 0.0 0.0 0.0
69 3 0.0159988 15.1497 55.7306 -1.2 1.0 2.946360197475483e-250 0.0 1.2115266966327441e-279 1.3785771575037773e-82
70 3 2.58274 15.1174 55.7271 -1.2 1.0 4.074052238779904e-200 8.267049271013088e-279 1.5284892976841615e-229 1.3033435152329744e-69
71 1 -0.206989 14.1049 52.2121 1.2 1.0 0.0 0.0 0.0 2.5686824782375185e-291
72 1 1.82591 13.8102 49.4556 1.2 1.0 0.0 0.0 0.0 0.0
73 2 1.29285 16.1518 51.2434 2.4 0.0 0.0 0.0 0.0 1.0
74 3 1.39496 17.7199 51.3047 -1.2 1.0 0.0 0.0 0.0 0.0
75 3 1.26496 15.1275 57.9037 -1.2 0.9999999999999858 1.2002496224049446e-30 1.9946312673071153e-48 2.4198342545559777e-45 1.418825498046844e-14
76 3 -0.0269106 15.5178 50.6688 -1.2 1.0 0.0 0.0 0.0 0.0
77 1 -3.18391 14.1057 52.3125 1.2 1.0 0.0 0.0 0.0 6.380255314022842e-294
78 3 2.52432 15.503 50.4579 -1.2 1.0 0.0 0.0 0.0 0.0
79 1 -1.70652 14.1843 55.1535 1.2 1.0 1.706258077610218e-285 0.0 8.10612464934e-312 4.14381525003765e-87
80 2 -1.73002 12.0578 53.2655 2.4 0.0 0.0 0.0 0.0 1.0
81 3 -1.77617 10.5013 53.1937 -1.2 1.0 0.0 0.0 0.0 5.764253701895971e-289
82 3 -1.21337 13.3381 46.4311 -1.2 1.0 0.0 0.0 0.0 0.0
83 3 -2.9965 12.7218 53.9701 -1.2 1.0 0.0 0.0 0.0 1.8985792020963092e-218
84 3 -0.428856 12.7379 53.9185 -1.2 1.0 0.0 0.0 0.0 1.3293959588242086e-200
85 1 -3.06288 21.2972 57.4258 1.2 1.0 3.287453925758034e-49 1.386471091938744e-72 1.3717509394918148e-65 6.530317898877023e-21
86 1 -1.5831 21.1217 49.8405 1.2 1.0 0.0 0.0 0.0 0.0
87 2 -1.09384 18.6291 47.9287 2.4 0.0 0.0 0.0 0.0 1.0
88 3 -1.02071 20.1985 47.9911 -1.2 1.0 0.0 0.0 0.0 0.0
89 3 -1.65002 17.5002 51.771 -1.2 1.0 0.0 0.0 0.0 0.0
90 3 -2.26174 18.0434 48.8281 -1.2 1.0 0.0 0.0 0.0 0.0
91 1 -0.0440435 16.5651 46.8269 1.2 1.0 0.0 0.0 0.0 0.0
92 3 0.37001 17.9877 48.3925 -1.2 1.0 0.0 0.0 0.0 0.0
93 1 1.37542 16.5527 54.522 1.2 1.0 0.0 0.0 0.0 6.995538219948109e-134
94 2 1.39663 19.2214 56.4101 2.4 3.27994207782381e-88 1.9189976176287873e-65 8.846816816738342e-111 2.7107984372230407e-91 1.0000000000000004
95 3 1.33375 17.6608 56.5111 -1.2 1.0 1.0812997642114223e-96 1.0120548420753927e-137 7.020553691298792e-123 3.7396454302531994e-38
96 3 1.45147 20.239 52.7294 -1.2 1.0 0.0 0.0 0.0 0.0
97 3 0.0989876 19.9055 55.7184 -1.2 1.0 3.8462634581856605e-246 0.0 6.565395235183115e-275 9.691265522824517e-83
98 3 2.66268 19.8649 55.667 -1.2 1.0 5.826430559837486e-207 1.3608652411203377e-287 5.573241194546664e-237 1.5129901161668315e-74
99 1 -0.126194 18.8651 52.2079 1.2 1.0 0.0 0.0 0.0 6.996268456525988e-288
100 1 1.92402 18.5815 49.4545 1.2 1.0 0.0 0.0 0.0 0.0
101 2 1.38106 20.9117 51.2443 2.4 0.0 0.0 0.0 0.0 1.0
102 3 1.48527 22.4795 51.3054 -1.2 1.0 0.0 0.0 0.0 0.0
103 3 1.40363 19.8921 57.8808 -1.2 0.9999999999999716 4.8483886668811284e-29 7.967205088895374e-46 5.437671957266084e-43 2.9684593639363414e-14
104 3 0.0615419 20.2804 50.6669 -1.2 1.0 0.0 0.0 0.0 0.0
105 1 -3.09665 18.8643 52.3122 1.2 1.0 0.0 0.0 0.0 7.755596595078021e-305
106 3 2.61548 20.2646 50.4626 -1.2 1.0 0.0 0.0 0.0 0.0
107 1 -1.60861 18.9158 55.1116 1.2 1.0 6.485276249098773e-290 0.0 4.227201e-317 1.0953557607028502e-89
108 2 -1.62254 16.816 53.2793 2.4 0.0 0.0 0.0 0.0 1.0
109 3 -1.66575 15.3039 53.2002 -1.2 1.0 0.0 0.0 0.0 4.203007604103973e-277
110 3 -1.12868 18.1227 46.4249 -1.2 1.0 0.0 0.0 0.0 0.0
111 3 -2.89171 17.5424 53.958 -1.2 1.0 0.0 0.0 0.0 1.3430944171846955e-215
112 3 -0.350707 17.5166 53.9334 -1.2 1.0 0.0 0.0 0.0 2.186343757542173e-201
113 1 -2.93179 25.9952 57.3719 1.2 1.0 6.397520506064413e-49 1.473708964483165e-71 1.209706845531052e-64 1.4268922995683286e-20
114 1 -1.48778 25.88 49.8402 1.2 1.0 0.0 0.0 0.0 0.0
115 2 -1.00491 23.3922 47.9274 2.4 0.0 0.0 0.0 0.0 1.0
116 3 -0.927602 24.9615 47.9909 -1.2 1.0 0.0 0.0 0.0 0.0
117 3 -1.55795 22.2588 51.7696 -1.2 1.0 0.0 0.0 0.0 0.0
118 3 -2.17411 22.8111 48.8277 -1.2 1.0 0.0 0.0 0.0 0.0
119 1 0.0423997 21.3296 46.8225 1.2 1.0 0.0 0.0 0.0 0.0
120 3 0.458537 22.7495 48.3911 -1.2 1.0 0.0 0.0 0.0 0.0
121 1 1.44746 21.3373 54.5527 1.2 1.0 0.0 0.0 0.0 8.001062441495831e-137
122 2 1.49108 23.9596 56.4547 2.4 2.0976604142890322e-86 2.1531297657332754e-64 1.2013699222015657e-107 3.517317325056891e-89 1.0000000000000009
123 3 1.49425 22.3921 56.4982 -1.2 1.0 7.774634517481309e-96 9.120999981026627e-136 3.7545937356143336e-121 3.4136574974883354e-38
124 3 1.54441 24.9963 52.7297 -1.2 1.0 0.0 0.0 0.0 0.0
125 3 0.229853 24.6411 55.7782 -1.2 1.0 8.323419525939673e-223 2.185619477738197e-306 2.3598017905911113e-250 1.3043639198362168e-76
126 3 2.75745 24.6954 55.7646 -1.2 1.0 5.798759228738819e-187 2.0137869659016633e-259 1.8006704138235585e-215 9.249294563941433e-67
127 1 -0.0335968 23.6229 52.2067 1.2 1.0 0.0 0.0 0.0 8.355083074784264e-289
128 1 2.01073 23.3445 49.4541 1.2 1.0 0.0 0.0 0.0 0.0
129 2 1.47594 25.6699 51.2449 2.4 0.0 0.0 0.0 0.0 1.0
130 3 1.58172 27.2371 51.3054 -1.2 1.0 0.0 0.0 0.0 0.0
131 3 1.52451 24.6257 57.9371 -1.2 0.9999999999999147 1.2118734771959595e-27 1.1410453833489931e-43 1.3724249792181653e-41 8.846137237788423e-14
132 3 0.157925 25.0378 50.6651 -1.2 1.0 0.0 0.0 0.0 0.0
133 1 -3.00341 23.6231 52.3098 1.2 1.0 0.0 0.0 0.0 4.632464237801667e-303
134 3 2.71149 25.0232 50.4656 -1.2 1.0 0.0 0.0 0.0 0.0
135 1 -1.49798 23.6947 55.1603 1.2 1.0 2.3715162842772002e-285 0.0 1.5611237858533e-310 3.1545550508888333e-88
136 2 -1.54254 21.5787 53.2323 2.4 0.0 0.0 0.0 0.0 1.0
137 3 -1.60561 20.0129 53.1197 -1.2 1.0 0.0 0.0 0.0 2.4048734901828776e-289
138 3 -1.03938 22.8897 46.4223 -1.2 1.0 0.0 0.0 0.0 0.0
139 3 -2.7897 22.2657 53.9558 -1.2 1.0 0.0 0.0 0.0 2.893667854970014e-212
140 3 -0.248642 22.283 53.8605 -1.2 1.0 0.0 0.0 0.0 5.2131177699985804e-204
141 1 -2.77327 30.7894 57.3087 1.2 1.0 5.581363097298825e-50 1.38350272935366e-72 8.374874332763033e-66 6.661314519771894e-21
142 1 -1.38776 30.6357 49.8391 1.2 1.0 0.0 0.0 0.0 0.0
143 2 -0.907929 28.1491 47.9262 2.4 0.0 0.0 0.0 0.0 1.0
144 3 -0.829229 29.7184 47.99 -1.2 1.0 0.0 0.0 0.0 0.0
145 3 -1.45946 27.0152 51.769 -1.2 1.0 0.0 0.0 0.0 0.0
146 3 -2.07744 27.5697 48.8273 -1.2 1.0 0.0 0.0 0.0 0.0
147 1 0.137907 26.087 46.819 1.2 1.0 0.0 0.0 0.0 0.0
148 3 0.55579 27.5065 48.3893 -1.2 1.0 0.0 0.0 0.0 0.0
149 1 1.47658 26.0265 54.5343 1.2 1.0 0.0 0.0 0.0 1.25327653560997e-133
150 2 1.56768 28.7432 56.398 2.4 5.569407248797493e-90 7.296982942155358e-67 1.3078029754767065e-110 1.3507052084791482e-91 0.9999999999999996
151 3 1.53382 27.2 56.5123 -1.2 1.0 1.3734178341361165e-92 2.538331334246514e-131 5.3225285365366675e-118 2.973244394205569e-36
152 3 1.6432 29.7522 52.7291 -1.2 1.0 0.0 0.0 0.0 0.0
153 3 0.311152 29.4902 55.738 -1.2 1.0 1.0854581121301277e-227 1.3778322586245e-311 1.134191813545063e-252 8.772507347305084e-76
154 3 2.85072 29.3888 55.6972 -1.2 1.0 5.1339446970035024e-197 6.830811817535904e-272 2.4439157098825036e-223 1.9152832899008588e-68
155 1 0.0647462 28.3794 52.2059 1.2 1.0 0.0 0.0 0.0 1.789750503099451e-286
156 1 2.10696 28.1021 49.4531 1.2 1.0 0.0 0.0 0.0 0.0
157 2 1.57592 30.4257 51.2442 2.4 0.0 0.0 0.0 0.0 1.0
158 3 1.68288 31.9926 51.3043 -1.2 1.0 0.0 0.0 0.0 0.0
159 3 1.65986 29.4419 57.8725 -1.2 0.999999999999929 2.296549052977411e-28 4.560920576446994e-44 3.421700473113175e-42 7.060559080380563e-14
160 3 0.258524 29.7935 50.6632 -1.2 1.0 0.0 0.0 0.0 0.0
161 1 -2.90462 28.3797 52.308 1.2 1.0 0.0 0.0 0.0 1.4448016648720643e-300
162 3 2.81205 29.7787 50.4664 -1.2 1.0 0.0 0.0 0.0 0.0
163 1 -1.35361 28.4511 55.1017 1.2 1.0 8.888560323482952e-302 0.0 0.0 4.977071491411978e-89
164 2 -1.50054 26.3207 53.2619 2.4 0.0 0.0 0.0 0.0 1.0
165 3 -1.48797 24.7848 53.165 -1.2 1.0 0.0 0.0 0.0 2.877684469360181e-283
166 3 -0.943026 27.648 46.4208 -1.2 1.0 0.0 0.0 0.0 0.0
167 3 -2.75331 26.9921 53.9041 -1.2 1.0 0.0 0.0 0.0 4.515104883922978e-216
168 3 -0.206514 26.9871 53.9835 -1.2 1.0 0.0 0.0 0.0 2.9706068945373754e-199
169 1 -2.76432 35.5425 57.4152 1.2 1.0 2.2341478750758977e-50 1.0297962230629278e-73 1.7911812554005657e-66 1.807367061713289e-20
170 1 -1.28421 35.3899 49.8376 1.2 1.0 0.0 0.0 0.0 0.0
171 2 -0.807101 32.9036 47.9247 2.4 0.0 0.0 0.0 0.0 1.0
172 3 -0.727174 34.4729 47.9885 -1.2 1.0 0.0 0.0 0.0 0.0
173 3 -1.35735 31.7701 51.768 -1.2 1.0 0.0 0.0 0.0 0.0
174 3 -1.97695 32.3253 48.826 -1.2 1.0 0.0 0.0 0.0 0.0
175 1 0.237665 30.8412 46.8168 1.2 1.0 0.0 0.0 0.0 0.0
176 3 0.656562 32.2608 48.3877 -1.2 1.0 0.0 0.0 0.0 0.0
177 1 1.67396 30.832 54.5644 1.2 1.0 0.0 0.0 0.0 1.7929976123930632e-126
178 2 1.78021 33.5206 56.3921 2.4 2.6627220652862556e-105 1.5644808097059233e-79 5.693075656352265e-128 2.3312305329401042e-105 1.0000000000000002
179 3 1.71484 31.9515 56.4425 -1.2 1.0 6.4182810357076e-117 6.65380108730971e-164 4.20933270533791e-142 2.6416706549914424e-43
180 3 1.74574 34.5067 52.7279 -1.2 1.0 0.0 0.0 0.0 0.0
181 3 0.482132 34.2122 55.7409 -1.2 1.0 5.139840822945682e-239 0.0 5.752406717466869e-264 2.922673580752237e-77
182 3 3.02987 34.1882 55.6995 -1.2 1.0 4.589143565115283e-204 1.1179254615289542e-282 5.809561446037404e-232 1.813477341062034e-69
183 1 0.167046 33.1343 52.2045 1.2 1.0 0.0 0.0 0.0 3.6055816235956613e-280
184 1 2.20727 32.8578 49.4516 1.2 1.0 0.0 0.0 0.0 0.0
185 2 1.67943 35.1802 51.2429 2.4 0.0 0.0 0.0 0.0 1.0
186 3 1.78736 36.747 51.303 -1.2 1.0 0.0 0.0 0.0 0.0
187 3 1.77655 34.1625 57.9057 -1.2 0.9999999999996163 2.2314755089905856e-28 5.149139031940065e-44 1.188157210513231e-41 3.821921000994873e-13
188 3 0.362533 34.5479 50.661 -1.2 1.0 0.0 0.0 0.0 0.0
189 1 -2.80215 33.1347 52.3062 1.2 1.0 0.0 0.0 0.0 7.433154182250194e-294
190 3 2.91593 34.533 50.466 -1.2 1.0 0.0 0.0 0.0 0.0
191 1 -1.19636 33.2549 55.1099 1.2 1.0 1.360314915e-314 0.0 0.0 2.8666838213456855e-89
192 2 -1.32793 31.0728 53.238 2.4 0.0 0.0 0.0 0.0 1.0
193 3 -1.34622 29.5065 53.1488 -1.2 1.0 0.0 0.0 0.0 1.7473873021483238e-289
194 3 -0.842495 32.4028 46.4192 -1.2 1.0 0.0 0.0 0.0 0.0
195 3 -2.60593 31.7286 53.9777 -1.2 1.0 0.0 0.0 0.0 7.182450503570671e-214
196 3 -0.0340348 31.7897 53.8695 -1.2 1.0 0.0 0.0 0.0 3.163174891617065e-202
197 1 -2.64803 40.306 57.3827 1.2 1.0 6.061530340156858e-48 2.0169022992710117e-71 2.1252209784525587e-64 7.683534996173898e-20
198 1 -1.17787 40.1435 49.8359 1.2 1.0 0.0 0.0 0.0 0.0
199 2 -0.702692 37.6572 47.9231 2.4 0.0 0.0 0.0 0.0 1.0
200 3 -0.621782 39.2264 47.9868 -1.2 1.0 0.0 0.0 0.0 0.0
201 3 -1.25221 36.5242 51.7666 -1.2 1.0 0.0 0.0 0.0 0.0
202 3 -1.87295 37.0796 48.8243 -1.2 1.0 0.0 0.0 0.0 0.0
203 1 0.341084 35.5943 46.8152 1.2 1.0 0.0 0.0 0.0 0.0
204 3 0.760681 37.0138 48.3864 -1.2 1.0 0.0 0.0 0.0 0.0
205 1 1.74395 35.5548 54.5812 1.2 1.0 0.0 0.0 0.0 9.190903206764524e-121
206 2 1.80797 38.2283 56.3961 2.4 4.5171235453349697e-107 1.6594865154426968e-78 8.414206921248734e-130 8.549171509294221e-106 1.0
207 3 1.76614 36.6629 56.5397 -1.2 1.0 6.394139451992931e-91 1.7431164037430746e-129 7.593739052817862e-116 5.811710154459567e-34
208 3 1.85132 39.2606 52.7264 -1.2 1.0 0.0 0.0 0.0 0.0
209 3 0.537721 38.8978 55.7319 -1.2 1.0 2.096049634492752e-231 4.94535e-319 6.080376754935494e-258 7.771240974561665e-75
210 3 3.08306 38.9123 55.6789 -1.2 1.0 1.5945026488554854e-205 6.55317176589073e-286 5.779550199059026e-234 8.507464582782227e-70
211 1 0.272384 37.8883 52.2029 1.2 1.0 0.0 0.0 0.0 6.018860222087374e-280
212 1 2.31122 37.6122 49.4501 1.2 1.0 0.0 0.0 0.0 0.0
213 2 1.78573 39.934 51.2414 2.4 0.0 0.0 0.0 0.0 1.0
214 3 1.89428 41.5006 51.3014 -1.2 1.0 0.0 0.0 0.0 0.0
215 3 1.84738 38.9285 57.8856 -1.2 0.9999999999996447 4.673442810630135e-27 1.0581561228380217e-42 8.009000761783862e-41 3.561981102119047e-13
216 3 0.469216 39.3015 50.6588 -1.2 1.0 0.0 0.0 0.0 0.0
217 1 -2.69668 37.8889 52.3043 1.2 1.0 0.0 0.0 0.0 1.7767777172536292e-290
218 3 3.0225 39.2866 50.4651 -1.2 1.0 0.0 0.0 0.0 0.0
219 1 -1.16836 37.953 55.1235 1.2 1.0 2.2329273648998826e-287 0.0 1.94373663135424e-310 4.083206788764717e-83
220 2 -1.23064 35.8471 53.2369 2.4 0.0 0.0 0.0 0.0 1.0
221 3 -1.24903 34.2966 53.1747 -1.2 1.0 0.0 0.0 0.0 8.618379933249994e-287
222 3 -0.738054 37.1566 46.4176 -1.2 1.0 0.0 0.0 0.0 0.0
223 3 -2.48181 36.5087 53.9147 -1.2 1.0 0.0 0.0 0.0 3.0902818890123873e-214
224 3 0.0587565 36.5446 53.8781 -1.2 1.0 0.0 0.0 0.0 3.5013983891032523e-203
225 1 -2.5856 45.0231 57.3912 1.2 1.0 2.1962430622163053e-45 9.8415779796745e-69 6.593815100264938e-62 5.321705616664667e-19
226 1 -1.06993 44.8968 49.8343 1.2 1.0 0.0 0.0 0.0 0.0
227 2 -0.596166 42.4103 47.9215 2.4 0.0 0.0 0.0 0.0 1.0
228 3 -0.51472 43.9796 47.9853 -1.2 1.0 0.0 0.0 0.0 0.0
229 3 -1.14475 41.2777 51.7649 -1.2 1.0 0.0 0.0 0.0 0.0
230 3 -1.76671 41.8331 48.8226 -1.2 1.0 0.0 0.0 0.0 0.0
231 1 0.447076 40.3473 46.8135 1.2 1.0 0.0 0.0 0.0 0.0
232 3 0.866985 41.7666 48.385 -1.2 1.0 0.0 0.0 0.0 0.0
233 1 1.90835 40.2778 54.5568 1.2 1.0 0.0 0.0 0.0 3.36571701378939e-118
234 2 1.86648 42.9584 56.3843 2.4 9.717760933932207e-104 5.529348530455609e-75 2.5178358789781125e-125 1.6503884796969246e-102 0.9999999999999994
235 3 1.88111 41.4133 56.489 -1.2 1.0 1.0631286781231447e-93 1.5235022305129192e-134 8.332851381612685e-120 1.5364927641910565e-34
236 3 1.95891 44.014 52.7248 -1.2 1.0 0.0 0.0 0.0 0.0
237 3 0.640831 43.6757 55.6839 -1.2 1.0 9.792226849767326e-266 0.0 5.436763314435002e-293 7.054877228956865e-84
238 3 3.16589 43.6001 55.7431 -1.2 1.0 1.1933286580462664e-186 3.909295481358304e-262 2.0814969813389818e-215 6.671435741818819e-63
239 1 0.379928 42.6418 52.2013 1.2 1.0 0.0 0.0 0.0 9.229402944295138e-279
240 1 2.41752 42.366 49.4484 1.2 1.0 0.0 0.0 0.0 0.0
241 2 1.89374 44.6874 51.2398 2.4 0.0 0.0 0.0 0.0 1.0
242 3 2.00266 46.254 51.2996 -1.2 1.0 0.0 0.0 0.0 0.0
243 3 1.85986 43.6137 57.8875 -1.2 0.9999999999994458 2.3763849540314086e-25 1.123002346551419e-40 3.483400107136651e-39 5.583674867914798e-13
244 3 0.577464 44.0549 50.6567 -1.2 1.0 0.0 0.0 0.0 0.0
245 1 -2.58906 42.6425 52.3022 1.2 1.0 0.0 0.0 0.0 2.1766649768463663e-287
246 3 3.13067 44.0398 50.464 -1.2 1.0 0.0 0.0 0.0 0.0
247 1 -1.10498 42.6395 55.0793 1.2 1.0 1.0390727033243625e-296 0.0 1.146e-321 4.5624854461834735e-84
248 2 -1.07059 40.5704 53.2056 2.4 0.0 0.0 0.0 0.0 1.0
249 3 -1.14467 39.0128 53.1812 -1.2 1.0 0.0 0.0 0.0 4.39080869953908e-273
250 3 -0.631421 41.9099 46.4159 -1.2 1.0 0.0 0.0 0.0 0.0
251 3 -2.35912 41.2264 53.8948 -1.2 1.0 0.0 0.0 0.0 2.969298935696163e-212
252 3 0.216258 41.2224 53.8574 -1.2 1.0 0.0 0.0 0.0 2.532122060703187e-204
253 1 -2.47298 49.7765 57.4578 1.2 1.0 7.687789645937477e-47 1.1336231773145695e-70 3.151329351477025e-63 4.549223097938183e-20
254 1 -0.961069 49.6502 49.8327 1.2 1.0 0.0 0.0 0.0 0.0
255 2 -0.488083 47.1636 47.9198 2.4 0.0 0.0 0.0 0.0 1.0
256 3 -0.40607 48.7329 47.9837 -1.2 1.0 0.0 0.0 0.0 0.0
257 3 -1.0361 46.031 51.7632 -1.2 1.0 0.0 0.0 0.0 0.0
258 3 -1.65866 46.5866 48.821 -1.2 1.0 0.0 0.0 0.0 0.0
259 1 0.554124 45.1001 46.8117 1.2 1.0 0.0 0.0 0.0 0.0
260 3 0.974961 46.5195 48.3832 -1.2 1.0 0.0 0.0 0.0 0.0
261 1 1.93791 45.0121 54.5226 1.2 1.0 0.0 0.0 0.0 9.730926209671708e-123
262 2 1.97609 47.7158 56.3882 2.4 1.9528067618609336e-95 2.348530765210303e-68 2.31024048426095e-115 7.58032220433762e-95 0.9999999999999999
263 3 1.93264 46.1542 56.4788 -1.2 1.0 2.0250995756333685e-93 9.382188386108788e-135 8.261362221772761e-120 2.108089484604655e-35
264 3 2.0677 48.7672 52.7232 -1.2 1.0 0.0 0.0 0.0 0.0
265 3 0.677973 48.4111 55.7059 -1.2 1.0 1.3119538399014488e-254 0.0 6.704722587237304e-281 1.2622005411367969e-81
266 3 3.21425 48.3546 55.6968 -1.2 1.0 6.568748860338182e-194 2.3568867036747114e-271 1.3319986041496935e-221 3.068231257683648e-66
267 1 0.488584 47.395 52.1996 1.2 1.0 0.0 0.0 0.0 1.2222994530922892e-276
268 1 2.52544 47.1195 49.4466 1.2 1.0 0.0 0.0 0.0 0.0
269 2 2.00256 49.4407 51.2382 2.4 0.0 0.0 0.0 0.0 1.0
270 3 2.11156 51.0073 51.2982 -1.2 1.0 0.0 0.0 0.0 0.0
271 3 2.02363 48.3803 57.8481 -1.2 0.999999999999801 2.1152858976183753e-25 6.514117024252305e-41 2.7185730933734387e-39 2.0397711514192057e-13
272 3 0.686344 48.8082 50.655 -1.2 1.0 0.0 0.0 0.0 0.0
273 1 -2.48039 47.3957 52.3005 1.2 1.0 0.0 0.0 0.0 1.0290683006271883e-288
274 3 3.23944 48.7932 50.4623 -1.2 1.0 0.0 0.0 0.0 0.0
275 1 -1.01068 47.4424 55.0738 1.2 1.0 1.1248704537297e-311 0.0 0.0 1.9526231599224845e-87
276 2 -1.02108 45.3004 53.231 2.4 0.0 0.0 0.0 0.0 1.0
277 3 -1.06485 43.7492 53.1664 -1.2 1.0 0.0 0.0 0.0 4.211076679147607e-282
278 3 -0.523731 46.6632 46.4143 -1.2 1.0 0.0 0.0 0.0 0.0
279 3 -2.26558 46.0009 53.9433 -1.2 1.0 0.0 0.0 0.0 1.9890012145528128e-206
280 3 0.269921 46.0068 53.8521 -1.2 1.0 0.0 0.0 0.0 1.188610820730837e-199
281 1 -2.27549 54.5575 57.361 1.2 1.0 8.279647746429408e-49 3.308900327142214e-73 3.1005958028210058e-65 9.125115491416732e-20
282 1 -0.852141 54.4034 49.8315 1.2 1.0 0.0 0.0 0.0 0.0
283 2 -0.378544 51.9171 47.9184 2.4 0.0 0.0 0.0 0.0 1.0
284 3 -0.296378 53.4863 47.9823 -1.2 1.0 0.0 0.0 0.0 0.0
285 3 -0.927178 50.7841 51.7618 -1.2 1.0 0.0 0.0 0.0 0.0
286 3 -1.5492 51.3402 48.8196 -1.2 1.0 0.0 0.0 0.0 0.0
287 1 0.663149 49.8533 46.8103 1.2 1.0 0.0 0.0 0.0 0.0
288 3 1.08434 51.2727 48.3819 -1.2 1.0 0.0 0.0 0.0 0.0
289 1 2.02079 49.782 54.5684 1.2 1.0 0.0 0.0 0.0 2.5006539932908897e-124
290 2 2.14522 52.4719 56.3656 2.4 2.1667291542992882e-113 3.653429770518147e-82 1.610896306240992e-136 3.011544878756833e-111 1.0000000000000002
291 3 2.0924 50.9257 56.4487 -1.2 1.0 1.303455225078282e-111 9.049877777865235e-160 2.1011639962544572e-138 3.967378570600278e-40
292 3 2.17678 53.5203 52.7219 -1.2 1.0 0.0 0.0 0.0 0.0
293 3 0.812911 53.1654 55.7524 -1.2 1.0 5.188880366483842e-229 8.302932e-317 7.008091020261461e-255 4.839599653841753e-74
294 3 3.39357 53.1768 55.6828 -1.2 1.0 2.9468993914534254e-202 1.5688295984075518e-281 1.564815869567309e-228 1.7372759793886513e-67
295 1 0.597515 52.1481 52.1982 1.2 1.0 0.0 0.0 0.0 1.2754721341558824e-275
296 1 2.63482 51.8727 49.4453 1.2 1.0 0.0 0.0 0.0 0.0
297 2 2.11145 54.194 51.237 2.4 0.0 0.0 0.0 0.0 1.0
298 3 2.22036 55.7605 51.2971 -1.2 1.0 0.0 0.0 0.0 0.0
299 3 2.20192 53.1666 57.8646 -1.2 0.999999999999929 1.5003126877393021e-27 6.321066190567493e-44 1.5405259213251e-41 7.610464030106757e-14
300 3 0.795151 53.5615 50.6538 -1.2 1.0 0.0 0.0 0.0 0.0
301 1 -2.37147 52.1489 52.2994 1.2 1.0 0.0 0.0 0.0 6.821506109713696e-290
302 3 3.34826 53.5466 50.4608 -1.2 1.0 0.0 0.0 0.0 0.0
303 1 -0.864237 52.1876 55.1063 1.2 1.0 9.33906445088592e-288 0.0 1.358846712796e-311 5.563755244295667e-82
304 2 -0.956627 50.0957 53.2363 2.4 0.0 0.0 0.0 0.0 1.0
305 3 -1.01387 48.5361 53.1645 -1.2 1.0 0.0 0.0 0.0 1.507693530229352e-278
306 3 -0.414295 51.4167 46.4129 -1.2 1.0 0.0 0.0 0.0 0.0
307 3 -2.22621 50.7862 53.8913 -1.2 1.0 0.0 0.0 0.0 2.651190094367345e-208
308 3 0.315579 50.7666 53.9294 -1.2 1.0 0.0 0.0 0.0 9.741925683604001e-193
309 1 -2.23548 59.283 57.374 1.2 1.0 5.3367675641516656e-49 1.2807756372798523e-72 2.8637992099532193e-65 1.617053567237638e-19
310 1 -0.743708 59.1569 49.8307 1.2 1.0 0.0 0.0 0.0 0.0
311 2 -0.269405 56.6708 47.9174 2.4 0.0 0.0 0.0 0.0 1.0
312 3 -0.187669 58.2401 47.9814 -1.2 1.0 0.0 0.0 0.0 0.0
313 3 -0.818478 55.5373 51.7607 -1.2 1.0 0.0 0.0 0.0 0.0
314 3 -1.44003 56.0936 48.8185 -1.2 1.0 0.0 0.0 0.0 0.0
315 1 0.772639 54.6072 46.8092 1.2 1.0 0.0 0.0 0.0 0.0
316 3 1.19351 56.0266 48.3809 -1.2 1.0 0.0 0.0 0.0 0.0
317 1 2.22145 54.5903 54.5094 1.2 1.0 0.0 0.0 0.0 4.225490991544079e-120
318 2 2.26281 57.2119 56.3747 2.4 1.708912230643119e-111 3.244701570610233e-81 6.841148837092066e-134 3.7135416642688266e-109 1.0
319 3 2.25124 55.6938 56.5212 -1.2 1.0 1.0258738995410448e-92 4.339357003022986e-133 1.3248464588949905e-117 1.8408293643869533e-33
320 3 2.28552 58.2735 52.7209 -1.2 1.0 0.0 0.0 0.0 0.0
321 3 0.972249 57.8951 55.7114 -1.2 1.0 1.7877544721468143e-259 0.0 9.09490215982929e-285 1.0152444191080937e-81
322 3 3.52868 57.9114 55.7435 -1.2 1.0 6.6738669356547786e-189 1.0039332254844302e-263 6.813773144806794e-215 2.187286655209493e-62
323 1 0.706198 56.9012 52.1971 1.2 1.0 0.0 0.0 0.0 2.3631945004562583e-273
324 1 2.74404 56.6261 49.4443 1.2 1.0 0.0 0.0 0.0 0.0
325 2 2.21991 58.9473 51.2362 2.4 0.0 0.0 0.0 0.0 1.0
326 3 2.32845 60.5139 51.2962 -1.2 1.0 0.0 0.0 0.0 0.0
327 3 2.21796 57.9288 57.8869 -1.2 0.9999999999998579 4.054326611484649e-28 3.7715543228580554e-44 3.2924378381714525e-42 1.4921676844548113e-13
328 3 0.903509 58.3149 50.6531 -1.2 1.0 0.0 0.0 0.0 0.0
329 1 -2.26283 56.9019 52.2988 1.2 1.0 0.0 0.0 0.0 8.928171229963011e-287
330 3 3.45667 58.3001 50.4597 -1.2 1.0 0.0 0.0 0.0 0.0
331 1 -0.765202 56.9428 55.0826 1.2 1.0 2.063750595206921e-302 0.0 1e-323 1.1634549314433127e-83
332 2 -0.757555 54.867 53.2182 2.4 0.0 0.0 0.0 0.0 1.0
333 3 -0.829253 53.3202 53.1563 -1.2 1.0 0.0 0.0 0.0 1.3781752137345896e-279
334 3 -0.304995 56.1705 46.4119 -1.2 1.0 0.0 0.0 0.0 0.0
335 3 -2.01452 55.5355 53.9307 -1.2 1.0 0.0 0.0 0.0 2.189760835029274e-210
336 3 0.568731 55.5202 53.8713 -1.2 1.0 0.0 0.0 0.0 1.5003602524956735e-200
337 1 -2.12166 64.0614 57.3593 1.2 1.0 4.686511680420154e-48 1.839702759554352e-71 2.4460744261673753e-64 1.6950965450990128e-19
338 1 -0.636972 63.9105 49.8301 1.2 1.0 0.0 0.0 0.0 0.0
339 2 -0.161217 61.4249 47.9168 2.4 0.0 0.0 0.0 0.0 1.0
340 3 -0.0799602 62.9942 47.9808 -1.2 1.0 0.0 0.0 0.0 0.0
341 3 -0.71051 60.2905 51.7601 -1.2 1.0 0.0 0.0 0.0 0.0
342 3 -1.33142 60.8473 48.8182 -1.2 1.0 0.0 0.0 0.0 0.0
343 1 0.880515 59.3614 46.808 1.2 1.0 0.0 0.0 0.0 0.0
344 3 1.30191 60.7808 48.3796 -1.2 1.0 0.0 0.0 0.0 0.0
345 1 2.30943 59.3212 54.5414 1.2 1.0 0.0 0.0 0.0 2.2746611003633467e-122
346 2 2.34724 61.9729 56.3549 2.4 1.827224569928043e-114 1.7897869405685997e-83 1.3833530782082662e-136 1.2322006690639083e-111 1.0000000000000004
347 3 2.27813 60.4332 56.4974 -1.2 1.0 1.3058136765480127e-90 4.732391748483453e-129 1.425882724543545e-114 1.32855234514228e-32
348 3 2.39322 63.0266 52.7201 -1.2 1.0 0.0 0.0 0.0 0.0
349 3 1.08163 62.6964 55.7237 -1.2 1.0 1.4443734960877264e-240 0.0 3.9824848836594067e-265 2.191661981907814e-76
350 3 3.62822 62.6505 55.7132 -1.2 1.0 1.890734360427307e-189 2.8549943670684157e-264 1.8823285548299317e-215 2.282078574784182e-62
351 1 0.813856 61.6544 52.1964 1.2 1.0 0.0 0.0 0.0 1.0795851936909133e-278
352 1 2.85244 61.3793 49.4433 1.2 1.0 0.0 0.0 0.0 0.0
353 2 2.32661 63.7006 51.2354 2.4 0.0 0.0 0.0 0.0 1.0
354 3 2.43416 65.2673 51.2956 -1.2 1.0 0.0 0.0 0.0 0.0
355 3 2.36792 62.6484 57.8499 -1.2 0.9999999999997442 1.2833689491484161e-26 7.792042219107041e-42 1.4796766718552182e-40 2.5557061899975315e-13
356 3 1.00987 63.0684 50.653 -1.2 1.0 0.0 0.0 0.0 0.0
357 1 -2.15526 61.6549 52.2986 1.2 1.0 0.0 0.0 0.0 7.47203499425932e-290
358 3 3.56306 63.054 50.4581 -1.2 1.0 0.0 0.0 0.0 0.0
359 1 -0.631521 61.7485 55.0959 1.2 1.0 9.992061057599073e-300 0.0 4.877e-320 4.7583492186132175e-82
360 2 -0.67899 59.6127 53.2646 2.4 0.0 0.0 0.0 0.0 1.0
361 3 -0.759321 58.0647 53.1638 -1.2 1.0 0.0 0.0 0.0 4.0981801702559495e-277
362 3 -0.197347 60.9246 46.4112 -1.2 1.0 0.0 0.0 0.0 0.0
363 3 -1.9539 60.278 53.9787 -1.2 1.0 0.0 0.0 0.0 7.379963852235856e-200
364 3 0.594739 60.3015 53.9033 -1.2 1.0 0.0 0.0 0.0 4.098280408652917e-194
365 1 -1.97319 68.7706 57.3652 1.2 1.0 1.142636429280722e-47 9.209574432291437e-71 7.205283305264562e-64 6.255431043341047e-20
366 1 -0.533443 68.6636 49.8296 1.2 1.0 0.0 0.0 0.0 0.0
367 2 -0.0548096 66.1789 47.9162 2.4 0.0 0.0 0.0 0.0 1.0
368 3 0.0255715 67.7482 47.9801 -1.2 1.0 0.0 0.0 0.0 0.0
369 3 -0.605209 65.0437 51.7598 -1.2 1.0 0.0 0.0 0.0 0.0
370 3 -1.22454 65.6011 48.818 -1.2 1.0 0.0 0.0 0.0 0.0
371 1 0.987386 64.1158 46.807 1.2 1.0 0.0 0.0 0.0 0.0
372 3 1.4086 65.5353 48.3785 -1.2 1.0 0.0 0.0 0.0 0.0
373 1 2.38792 64.0914 54.4935 1.2 1.0 0.0 0.0 0.0 4.207517110275866e-121
374 2 2.43009 66.7481 56.3413 2.4 9.894670308759044e-114 1.1173291153563771e-82 1.9405912660863715e-136 2.4729464874255234e-111 1.0000000000000002
375 3 2.37276 65.203 56.449 -1.2 1.0 1.4994522179991397e-102 5.709000663014681e-146 8.687176512853214e-128 3.5446156821831144e-37
376 3 2.49801 67.7798 52.7194 -1.2 1.0 0.0 0.0 0.0 0.0
377 3 1.14164 67.4547 55.6554 -1.2 1.0 2.2132080526156517e-260 0.0 9.792020345060447e-287 3.084256320252753e-82
378 3 3.73527 67.4508 55.6969 -1.2 1.0 3.180762974627246e-194 3.8245407064608576e-271 2.1734636705775385e-221 5.890161143509603e-65
379 1 0.918773 66.4074 52.1957 1.2 1.0 0.0 0.0 0.0 2.6671898519534875e-277
380 1 2.95913 66.1322 49.4427 1.2 1.0 0.0 0.0 0.0 0.0
381 2 2.43017 68.4538 51.2348 2.4 0.0 0.0 0.0 0.0 1.0
382 3 2.53642 70.0208 51.2951 -1.2 1.0 0.0 0.0 0.0 0.0
383 3 2.43199 67.4251 57.8127 -1.2 0.9999999999999574 2.7160511599706396e-28 2.738117392977356e-44 1.2188791155513262e-42 4.226671144449678e-14
384 3 1.11294 67.8218 50.6533 -1.2 1.0 0.0 0.0 0.0 0.0