ITEM: TIMESTEP
4500
ITEM: NUMBER OF ATOMS
10500
ITEM: BOX BOUNDS xy xz yz pp pp pp
0	8.9688	2.9896
0	118.725	0
0	252.977	0
ITEM: ATOMS id type xu yu zu q pCrystal pDisloC pDisloB pDisloA
1 1 -3.27938 7.02654 56.9512 1.2 9.491741441808226e-16 1.5166715730547676e-06 3.8480774526498575e-63 0.999998483328425
2 1 -1.93894 7.18136 49.4318 1.2 0.0 6.103847959371655e-163 0.0 1.0
3 2 -0.502512 4.18858 47.1048 2.4 1.8215145241520387e-211 0.0 0.0 1.0
4 3 -0.673272 5.72443 46.7454 -1.2 0.0 0.0 0.0 1.0
5 3 -2.11831 3.39016 51.1652 -1.2 0.0 0.0 0.0 1.0
6 3 -1.65176 3.60911 48.0835 -1.2 0.0 0.0 0.0 1.0
7 1 1.52038 2.6441 46.4179 1.2 0.0 2.614682202824551e-238 0.0 1.0
8 3 1.02047 3.91799 47.7766 -1.2 0.0 0.0 0.0 1.0
9 1 1.17886 2.45118 53.8824 1.2 3.038751112992697e-103 7.127498023433881e-29 0.0 1.000000000000019
10 2 0.948691 5.00501 55.9331 2.4 0.02211574567560465 9.059963739751527e-57 2.464089492051428e-87 0.9778842543243916
11 3 0.918641 3.46841 55.7974 -1.2 6.383563479132703e-22 5.875354775864918e-54 5.0620213498307265e-93 1.0000000000000036
12 3 0.969463 6.16625 52.1573 -1.2 6.377090614377912e-225 0.0 0.0 1.0
13 3 -0.296071 5.7759 55.415 -1.2 6.670114686060337e-36 8.092240064818204e-89 1.1679791845754184e-142 1.0000000000000024
14 3 2.25744 5.73604 55.1098 -1.2 3.5290067155881845e-40 2.0738709672231324e-98 2.6064583953547923e-158 0.9999999999999897
15 1 -0.652492 4.81615 51.4247 1.2 0.0 1.2457684079670078e-108 0.0 1.0
16 1 2.59542 4.01613 49.057 1.2 0.0 2.526338266103092e-181 0.0 1.0
17 2 1.12158 6.69509 50.5318 2.4 3.0177962517957435e-172 0.0 0.0 1.0
18 3 1.3028 8.31381 50.6012 -1.2 0.0 0.0 0.0 1.0
19 3 1.00771 5.59568 57.3605 -1.2 2.6360860413648778e-05 1.5605665296663145e-15 3.2090908719084416e-43 0.9999736391395881
20 3 -0.284281 6.27998 49.9627 -1.2 0.0 0.0 0.0 1.0
21 1 -3.5973 4.72138 52.1056 1.2 5.296e-320 7.685627251395051e-97 0.0 1.0
22 3 2.46451 6.04144 49.9971 -1.2 0.0 0.0 0.0 1.0
23 1 -2.00174 4.87255 54.6369 1.2 2.195913013249385e-56 1.512966597252482e-14 2.851203738631278e-200 0.9999999999999817
24 2 -1.91852 2.65703 52.6061 2.4 2.9746651795886943e-90 0.0 0.0 1.0
25 3 -1.99761 1.0531 52.4857 -1.2 7.84215282683792e-211 0.0 0.0 1.0
26 3 -0.285481 3.18588 45.8034 -1.2 0.0 0.0 0.0 1.0
27 3 -3.08913 3.3561 53.4351 -1.2 2.0075996302972637e-129 0.0 0.0 0.9999999999999921
28 3 -0.596435 3.23866 53.1069 -1.2 1.940045729372044e-155 0.0 0.0 1.0000000000000016
29 1 -3.25885 11.8672 57.2225 1.2 1.5951174819317427e-13 1.8677239076996547e-05 6.607192349818411e-58 0.9999813227607652
30 1 -1.77451 11.8547 49.3461 1.2 0.0 2.7194158619147963e-178 0.0 1.0
31 2 -1.21485 9.34012 47.2812 2.4 3.620626857965813e-158 0.0 0.0 1.0
32 3 -1.23269 10.9834 47.5373 -1.2 0.0 0.0 0.0 1.0
33 3 -1.65837 8.19413 51.2772 -1.2 0.0 0.0 0.0 1.0
34 3 -2.41592 8.69529 48.1613 -1.2 0.0 0.0 0.0 1.0
35 1 -0.258317 7.3203 45.8383 1.2 0.0 1.8736528288866264e-258 0.0 1.0
36 3 0.177026 8.66706 47.7189 -1.2 0.0 0.0 0.0 1.0
37 1 1.32718 7.33611 54.0997 1.2 2.3061378990473473e-114 3.4716720352152165e-33 0.0 1.0000000000000198
38 2 1.33954 9.81552 55.9129 2.4 3.4301316186901915e-08 4.002906864529773e-76 5.7754742015836796e-111 0.9999999656986779
39 3 1.16526 8.2475 56.1007 -1.2 1.13201295678804e-19 8.589416116834045e-48 2.20750596181189e-88 1.000000000000001
40 3 1.42507 10.817 52.2035 -1.2 3.832109379166589e-246 0.0 0.0 1.0000000000000664
41 3 0.0224251 10.3826 55.2655 -1.2 3.48217275422514e-57 2.9038947161591166e-129 1.463984700323568e-197 0.9999999999999867
42 3 2.54178 10.4364 55.2186 -1.2 7.420055109682613e-45 2.363096613363431e-101 2.495862795719279e-164 1.0000000000000084
43 1 -0.161317 9.61016 51.7441 1.2 0.0 3.9310623919710175e-94 0.0 1.0
44 1 1.83887 9.27696 48.8256 1.2 0.0 5.785674479346161e-181 0.0 1.0
45 2 1.33356 11.6469 50.7405 2.4 4.090940641672081e-171 0.0 0.0 1.0
46 3 1.50446 13.1965 50.7283 -1.2 0.0 0.0 0.0 1.0
47 3 1.32564 10.3999 57.4229 -1.2 1.8927592479777095e-08 4.88543961568932e-20 9.471599507362134e-51 0.9999999810724066
48 3 0.0611003 11.0371 50.1526 -1.2 0.0 0.0 0.0 1.0
49 1 -3.06643 9.55189 51.5365 1.2 0.0 3.0731003715713475e-133 0.0 1.0
50 3 2.69348 10.8083 49.9951 -1.2 0.0 0.0 0.0 1.0
51 1 -1.57318 9.55385 54.6492 1.2 3.695697387376802e-66 4.7641271840533316e-18 1.2074791865496308e-225 1.000000000000024
52 2 -1.6049 7.53477 52.7136 2.4 2.7692623621134796e-71 0.0 0.0 1.0
53 3 -1.86616 5.90361 52.6983 -1.2 3.803912828909049e-192 0.0 0.0 1.0000000000000033
54 3 -1.08386 9.07841 45.7585 -1.2 0.0 0.0 0.0 1.0
55 3 -2.99011 8.19929 53.3242 -1.2 9.555016438271888e-128 0.0 0.0 1.000000000000045
56 3 -0.424898 8.24138 53.5257 -1.2 8.19844423811521e-121 5.815e-321 0.0 0.999999999999958
57 1 -2.89279 16.6649 57.1448 1.2 4.211768134980292e-16 4.21627107881929e-06 4.4069556089774386e-67 0.9999957837289208
58 1 -1.36507 16.9706 49.3689 1.2 0.0 3.248324543174554e-174 0.0 1.0
59 2 -0.855258 14.1361 47.4522 2.4 1.7401280496349007e-179 0.0 0.0 1.0
60 3 -1.03959 15.6662 47.3921 -1.2 0.0 0.0 0.0 1.0
61 3 -1.64579 13.0104 51.274 -1.2 0.0 0.0 0.0 1.0000000000000708
62 3 -2.05495 13.5069 48.2421 -1.2 0.0 0.0 0.0 1.0
63 1 -0.303748 11.7483 46.1122 1.2 0.0 5.758877261250145e-276 0.0 1.0
64 3 0.506931 13.6974 48.0268 -1.2 0.0 0.0 0.0 1.0
65 1 1.53542 11.6532 54.0114 1.2 2.205601568131556e-137 5.247373329892346e-41 0.0 1.0
66 2 1.54764 14.5739 56.0196 2.4 5.751981276253469e-08 2.9079108224899108e-77 1.7413284238058074e-115 0.9999999424801888
67 3 1.27238 12.9791 56.1043 -1.2 5.513169846971098e-25 1.559356426475113e-57 4.0666510818276007e-104 1.0000000000000022
68 3 1.54377 15.6558 52.1844 -1.2 1.5225049348907985e-244 0.0 0.0 0.9999999999999953
69 3 0.310694 15.293 55.3938 -1.2 4.538267616475662e-48 2.5129285506092538e-108 3.6291931397659084e-178 0.9999999999999861
70 3 2.76094 15.3104 55.2912 -1.2 3.289718603520502e-44 4.369469377887083e-97 6.058223342323099e-164 1.0000000000000029
71 1 -0.196411 14.3496 51.2696 1.2 0.0 4.060933152142971e-127 0.0 1.0
72 1 2.13853 14.1769 48.8764 1.2 0.0 1.1902730777370561e-199 0.0 1.0
73 2 1.5489 16.4191 50.721 2.4 8.639418864549688e-172 0.0 0.0 1.0
74 3 1.48988 17.9088 50.763 -1.2 0.0 0.0 0.0 1.0
75 3 1.59003 15.2127 57.5981 -1.2 6.747441737152991e-08 1.0965435900067766e-18 7.571114569469083e-51 0.9999999325255853
76 3 0.319882 15.8115 49.9705 -1.2 0.0 0.0 0.0 1.0
77 1 -3.10232 14.2778 52.067 1.2 0.0 5.230189882477674e-118 0.0 1.0
78 3 2.84291 15.8972 49.9328 -1.2 0.0 0.0 0.0 1.0
79 1 -1.29987 14.2778 54.749 1.2 2.7193650787385337e-78 3.7404962098085805e-23 1.0586315946174183e-259 1.0000000000000064
80 2 -1.49612 12.3056 52.8468 2.4 7.477074068073646e-74 0.0 0.0 1.0
81 3 -1.68287 10.8218 52.6273 -1.2 1.7878916799118914e-202 0.0 0.0 1.000000000000036
82 3 -0.827345 13.6545 45.8195 -1.2 0.0 0.0 0.0 1.0
83 3 -2.75442 12.962 53.5779 -1.2 3.692298733145724e-142 0.0 0.0 0.9999999999999536
84 3 -0.204124 12.7371 53.4627 -1.2 6.581028440118706e-135 0.0 0.0 0.9999999999999882
85 1 -3.02957 21.3186 57.0048 1.2 5.105472157313089e-10 0.03743812436209619 3.607781710440839e-61 0.9625618751273536
86 1 -1.45389 21.1358 49.5302 1.2 0.0 2.8142405443726224e-183 0.0 1.0
87 2 -0.455049 19.072 47.0761 2.4 4.506941728503423e-192 0.0 0.0 1.0
88 3 -0.090735 20.5752 46.8663 -1.2 0.0 0.0 0.0 1.0
89 3 -1.5174 17.7896 51.292 -1.2 0.0 0.0 0.0 0.9999999999999328
90 3 -1.57583 18.915 48.1474 -1.2 0.0 0.0 0.0 1.0
91 1 0.0841129 16.6617 46.258 1.2 0.0 2.386857618887848e-269 0.0 1.0
92 3 0.957804 18.2467 47.6298 -1.2 0.0 0.0 0.0 1.0
93 1 1.3188 16.552 54.0136 1.2 4.128394663176331e-145 4.828882958266986e-46 0.0 1.0
94 2 1.41569 19.2603 56.0521 2.4 0.017426006148682036 3.035307423091592e-63 7.159873917423111e-101 0.9825739938513204
95 3 1.52694 17.7551 56.1155 -1.2 5.152749497987808e-22 9.928823889801182e-52 2.3068123339944204e-103 0.9999999999999988
96 3 1.47195 20.3902 52.3343 -1.2 1.1232797130235975e-227 0.0 0.0 1.000000000000012
97 3 0.22974 20.0831 55.4368 -1.2 1.0624426570542987e-36 7.113247004230157e-86 5.316419051420265e-156 0.9999999999999991
98 3 2.73009 19.9907 55.4847 -1.2 4.298130022385977e-40 2.3521945213923303e-92 6.512814038708455e-162 0.999999999999999
99 1 -0.0793575 19.3323 51.7106 1.2 0.0 1.7469547763838123e-105 0.0 1.0
100 1 2.43724 18.9417 48.7993 1.2 0.0 3.2786382077940916e-202 0.0 1.0
101 2 1.55968 21.0814 50.8232 2.4 7.760505355027979e-189 0.0 0.0 1.0
102 3 1.59313 22.663 50.772 -1.2 0.0 0.0 0.0 1.0000000000000002
103 3 1.47041 19.959 57.6015 -1.2 2.9661728528577417e-05 7.031171688188639e-16 4.718852542882971e-48 0.9999703382714736
104 3 0.196817 20.5601 50.1681 -1.2 0.0 0.0 0.0 1.0
105 1 -3.05511 19.0837 51.8404 1.2 0.0 2.1716304805385024e-125 0.0 1.0
106 3 2.75753 20.3052 50.1871 -1.2 0.0 0.0 0.0 1.0
107 1 -1.46128 19.1453 54.8651 1.2 4.353176825261831e-62 1.2967669259950058e-16 2.08421367212665e-220 0.9999999999999928
108 2 -1.44371 17.0682 52.8681 2.4 3.4219744707161323e-94 0.0 0.0 1.0
109 3 -1.44436 15.5134 52.6759 -1.2 1.4975452364169647e-208 0.0 0.0 1.0000000000000833
110 3 -0.618168 18.391 45.6719 -1.2 0.0 0.0 0.0 1.0
111 3 -2.77084 17.6266 53.4801 -1.2 6.220075774570433e-154 0.0 0.0 0.9999999999999731
112 3 -0.249568 17.7355 53.6119 -1.2 2.701068708127071e-128 4.478958802e-314 0.0 1.000000000000023
113 1 -3.11471 25.9684 57.1814 1.2 6.380220593565108e-08 0.04712231132546906 1.612646183514463e-49 0.9528776248723263
114 1 -1.37081 26.3051 49.4034 1.2 0.0 4.689895817970687e-239 0.0 1.0
115 2 -0.914956 23.5056 47.7106 2.4 4.3693736723437e-255 0.0 0.0 1.0
116 3 -1.6911 24.9212 47.7957 -1.2 0.0 0.0 0.0 1.0
117 3 -1.67814 22.2388 51.5344 -1.2 0.0 0.0 0.0 0.9999999999999118
118 3 -1.8356 22.5966 48.5085 -1.2 0.0 0.0 0.0 1.0
119 1 0.681887 22.1456 46.1726 1.2 0.0 2.97450442760176e-296 0.0 1.0
120 3 0.670598 23.323 47.9632 -1.2 0.0 0.0 0.0 1.0
121 1 1.57961 21.3295 54.3643 1.2 6.307671680431733e-124 1.0420876929871116e-41 0.0 1.0
122 2 1.36122 23.9026 56.0694 2.4 0.19231961556081553 3.0486186316935457e-60 4.530462780302367e-95 0.8076803844391812
123 3 1.2804 22.3882 56.1193 -1.2 1.3454243741273265e-18 2.529403701143998e-45 7.184059772710664e-96 0.9999999999999993
124 3 1.45077 24.8705 52.548 -1.2 3.1576878044026193e-230 0.0 0.0 1.0000000000000424
125 3 0.131826 24.6232 55.4426 -1.2 1.226224644929948e-49 2.164620049555045e-112 4.009674955181304e-173 0.999999999999991
126 3 2.65636 24.7183 55.5158 -1.2 3.2849824660954005e-35 2.947524166183648e-83 3.009449326334612e-137 1.0000000000000058
127 1 -0.137681 23.7479 51.7856 1.2 0.0 9.736183828096342e-131 0.0 1.0
128 1 2.44765 23.7979 48.9657 1.2 0.0 1.1372771267364846e-245 0.0 1.0
129 2 1.43452 25.6489 51.1088 2.4 4.515099935501041e-191 0.0 0.0 1.0
130 3 1.46199 27.2587 51.2769 -1.2 0.0 0.0 0.0 1.0000000000000007
131 3 1.43437 24.6191 57.5797 -1.2 0.010209192420723157 2.059181900996576e-12 1.9472246285241837e-41 0.9897908075772174
132 3 0.170977 25.2149 50.3473 -1.2 0.0 0.0 0.0 1.0
133 1 -3.04375 23.6262 52.0767 1.2 0.0 3.42781906312677e-128 0.0 1.0
134 3 2.82174 25.2035 50.2855 -1.2 0.0 0.0 0.0 1.0
135 1 -1.62112 23.8208 54.8751 1.2 1.163377287337263e-75 2.375333665994132e-28 2.8738231899872108e-239 1.0
136 2 -1.45615 21.7624 53.0856 2.4 1.2593790765648433e-77 0.0 0.0 1.0
137 3 -1.57825 20.1358 52.9515 -1.2 1.9985954034457948e-196 0.0 0.0 1.0000000000000708
138 3 -0.781629 23.5023 45.9637 -1.2 0.0 0.0 0.0 1.0
139 3 -2.73274 22.4369 53.8228 -1.2 1.344179787542942e-115 9.210137236238347e-277 0.0 0.999999999999984
140 3 -0.111031 22.384 53.5329 -1.2 8.801269640853829e-134 0.0 0.0 0.9999999999999513
141 1 -2.95074 30.9672 57.2379 1.2 1.7079151371850216e-06 0.7221699592046694 4.519318318572245e-47 0.27782833288019626
142 1 -1.32656 30.1783 49.2954 1.2 0.0 2.6700916765662546e-227 0.0 1.0
143 2 -1.19048 27.9787 47.3437 2.4 1.4794381205495786e-277 0.0 0.0 1.0
144 3 -0.616445 29.5146 47.1009 -1.2 0.0 0.0 0.0 1.0
145 3 -1.43777 27.0255 51.5853 -1.2 3.017072443112082e-291 0.0 0.0 1.0000000000000773
146 3 -2.4971 28.0598 48.2376 -1.2 0.0 0.0 0.0 1.0
147 1 -1.70141 25.3527 45.7019 1.2 0.0 5e-324 0.0 1.0
148 3 0.023014 27.4556 48.3613 -1.2 0.0 0.0 0.0 1.0
149 1 1.44052 26.0684 54.3528 1.2 1.0442230680691128e-130 3.1316852163594628e-49 0.0 1.0
150 2 1.53978 28.7333 56.085 2.4 4.131376227219828e-06 1.2295916000700476e-74 7.924686449079711e-105 0.9999958686237781
151 3 1.45819 27.1953 56.1269 -1.2 5.664991843728991e-24 2.2870540917232528e-57 1.1507922766309556e-102 0.9999999999999978
152 3 1.37232 30.0154 52.5307 -1.2 8.842467055403375e-232 0.0 0.0 1.0
153 3 0.29954 29.5159 55.4065 -1.2 3.47878732284189e-45 4.510737138627536e-103 6.330194589689299e-160 1.0000000000000064
154 3 2.79585 29.3706 55.3427 -1.2 2.523123284983146e-48 8.365082277059002e-113 1.0550895398476515e-172 0.9999999999999938
155 1 0.199283 28.3749 52.3441 1.2 0.0 8.023880078552058e-116 0.0 1.0
156 1 1.71419 28.2926 49.2763 1.2 0.0 1.3354942893376095e-259 0.0 1.0
157 2 1.66949 30.5577 51.0161 2.4 1.1859484023063364e-219 0.0 0.0 1.0
158 3 2.01206 32.0464 50.9589 -1.2 0.0 0.0 0.0 1.0000000000002094
159 3 1.5433 29.4217 57.5872 -1.2 0.0401326573188781 1.6106733025668747e-11 1.5874333541505097e-41 0.9598673426650196
160 3 0.438198 29.9183 50.1542 -1.2 0.0 0.0 0.0 1.0000000000000002
161 1 -2.83303 28.2981 51.9668 1.2 0.0 9.188568991543693e-149 0.0 1.0
162 3 2.89361 29.7497 50.4364 -1.2 0.0 0.0 0.0 1.000000000000111
163 1 -1.48879 28.5577 54.7377 1.2 1.9312517489838882e-80 1.282982038555215e-29 2.9505109165529335e-248 1.0
164 2 -1.52617 26.3256 53.0039 2.4 2.4539616754433975e-81 0.0 0.0 1.0
165 3 -1.54047 24.7896 52.9666 -1.2 4.837669602067107e-182 0.0 0.0 1.0000000000000544
166 3 -1.45991 27.1396 46.0564 -1.2 0.0 0.0 0.0 1.0
167 3 -2.81204 26.9643 53.6585 -1.2 6.862157280068354e-134 0.0 0.0 1.0000000000000089
168 3 -0.320956 27.0663 53.7672 -1.2 2.2933768195983376e-111 4.135565163429354e-280 0.0 1.000000000000055
169 1 -2.66469 35.5728 57.1647 1.2 3.305643722523611e-10 0.6962381233691788 3.097550412381058e-63 0.3037618763002582
170 1 -1.17083 35.6048 49.2587 1.2 0.0 7.335503731299327e-230 0.0 1.0
171 2 -0.648353 32.977 47.6734 2.4 6.398355910905865e-291 0.0 0.0 1.0
172 3 -1.14895 34.422 47.645 -1.2 0.0 0.0 0.0 1.0
173 3 -1.04807 31.7812 51.6309 -1.2 0.0 0.0 0.0 1.000000000000112
174 3 -1.61625 32.0616 48.4883 -1.2 0.0 0.0 0.0 1.0
175 1 0.530457 31.0763 46.5175 1.2 0.0 0.0 0.0 1.0
176 3 1.0014 32.468 47.8781 -1.2 0.0 0.0 0.0 1.0
177 1 1.71939 31.0995 54.4259 1.2 9.281952562234458e-114 1.0345754999385304e-39 0.0 1.0
178 2 1.85558 33.5614 56.1358 2.4 0.05662256050520977 1.28169065255792e-66 7.909590013332666e-100 0.9433774394947942
179 3 1.7344 31.9627 56.2565 -1.2 3.342971712383379e-18 1.3636817511292379e-47 1.6412393443267842e-96 1.0000000000000004
180 3 1.73672 34.6151 52.136 -1.2 3.304650915410315e-300 0.0 0.0 1.0
181 3 0.525542 34.1764 55.6734 -1.2 4.415257306305943e-36 3.5994065321531276e-86 2.4800190915523944e-151 0.9999999999999866
182 3 3.08585 34.2561 55.4293 -1.2 8.852359276733261e-40 3.979247446833251e-95 5.47507908572499e-164 1.0000000000000009
183 1 0.330287 33.1552 51.6731 1.2 0.0 1.1841730077053695e-141 0.0 1.0
184 1 2.57652 32.8445 49.0882 1.2 0.0 3.360823747514224e-241 0.0 1.0
185 2 1.82121 35.2006 50.662 2.4 2.626845251670405e-225 0.0 0.0 1.0
186 3 2.01924 36.7652 50.6711 -1.2 0.0 0.0 0.0 0.9999999999998367
187 3 1.89161 34.1428 57.6668 -1.2 0.004108443291632568 4.739398816651587e-14 3.401263645036702e-51 0.9958915567083257
188 3 0.580621 34.4914 50.058 -1.2 0.0 0.0 0.0 0.9999999999997788
189 1 -2.5207 33.2528 51.7291 1.2 0.0 4.330926233666964e-145 0.0 1.0
190 3 3.1879 34.5529 50.0763 -1.2 0.0 0.0 0.0 0.999999999999908
191 1 -1.06168 33.1657 54.8986 1.2 2.362438058226486e-70 4.536423975926493e-19 4.871144986609844e-228 0.9999999999999911
192 2 -1.20759 31.0924 53.0272 2.4 1.3434232972690546e-81 0.0 0.0 1.0
193 3 -1.42391 29.5795 52.8747 -1.2 2.23332213718253e-195 0.0 0.0 1.0000000000000002
194 3 -0.654899 32.7061 45.9942 -1.2 0.0 0.0 0.0 1.0
195 3 -2.373 31.9041 53.7152 -1.2 1.0854183466043232e-149 0.0 0.0 1.000000000000002
196 3 0.051292 31.7629 53.7765 -1.2 3.110505382278648e-135 4.4e-323 0.0 1.000000000000026
197 1 -2.63415 40.3169 57.0941 1.2 7.922024788003454e-15 0.0011093917551297365 1.7341186428864346e-71 0.99889060824486
198 1 -1.06308 40.0114 49.596 1.2 0.0 1.4195896284054912e-211 0.0 1.0
199 2 -0.56486 37.365 46.9479 2.4 9.814388977136042e-257 0.0 0.0 1.0
200 3 -0.421248 38.9387 46.6645 -1.2 0.0 0.0 0.0 1.0
201 3 -0.967361 36.5354 51.1893 -1.2 0.0 0.0 0.0 1.0000000000001252
202 3 -1.83868 37.1849 48.0734 -1.2 0.0 0.0 0.0 1.0
203 1 -1.27724 34.5991 45.5066 1.2 0.0 0.0 0.0 1.0
204 3 0.780242 36.9573 47.7815 -1.2 0.0 0.0 0.0 1.0
205 1 1.98642 35.6506 53.9463 1.2 1.4596885103472897e-165 9.213028625956884e-56 0.0 1.0
206 2 1.80298 38.2421 56.1511 2.4 8.787778162849889e-05 2.862560103003967e-77 1.517323853526734e-117 0.9999121222183673
207 3 1.90729 36.7497 56.3157 -1.2 1.3619905802504772e-20 6.209088543649619e-48 1.0719417000926716e-100 1.0000000000000007
208 3 2.05259 39.3887 52.1261 -1.2 2.2030622433330298e-290 0.0 0.0 1.0
209 3 0.504805 38.8683 55.429 -1.2 3.105426568861978e-43 1.0396191380997909e-96 4.738963032320291e-171 0.9999999999999967
210 3 3.14615 38.9663 55.4014 -1.2 1.5754695579238506e-41 1.6090807719589926e-95 1.140944332852248e-168 0.9999999999999895
211 1 0.60855 37.8767 51.7573 1.2 0.0 8.052500087160965e-150 0.0 1.0
212 1 2.1568 37.7886 48.7431 1.2 0.0 1.233031781864857e-242 0.0 1.0
213 2 2.05455 40.1023 50.6688 2.4 4.367535705003657e-210 0.0 0.0 1.0
214 3 2.03295 41.7409 50.7737 -1.2 0.0 0.0 0.0 1.000000000000119
215 3 1.83483 38.9808 57.575 -1.2 1.9632495610204264e-06 2.6247913349328713e-17 8.657415869887131e-58 0.9999980367504422
216 3 0.779416 39.5556 49.8314 -1.2 0.0 0.0 0.0 0.9999999999998237
217 1 -2.38393 37.9596 51.317 1.2 0.0 1.4761359269659564e-168 0.0 1.0
218 3 3.22617 39.3361 49.9951 -1.2 0.0 0.0 0.0 0.9999999999998276
219 1 -1.19086 37.9169 54.7899 1.2 7.142190130929561e-82 4.209366285985172e-19 1.169610488664714e-267 1.0000000000000002
220 2 -0.994021 35.9535 52.7747 2.4 1.7571113637121485e-109 0.0 0.0 1.0
221 3 -1.14477 34.4209 52.6905 -1.2 4.5633530145210463e-241 0.0 0.0 1.0
222 3 -0.824043 36.5107 45.6488 -1.2 0.0 0.0 0.0 1.0
223 3 -2.36289 36.7106 53.385 -1.2 1.2025496124987142e-168 0.0 0.0 1.0
224 3 0.286112 36.578 53.474 -1.2 1.137076235666616e-158 0.0 0.0 1.0
225 1 -2.46596 45.0799 56.878 1.2 1.0961213924987407e-17 9.54221831566392e-06 1.0204275238067092e-75 0.9999904577816877
226 1 -0.729345 45.1001 49.3134 1.2 0.0 4.541617652222179e-220 0.0 1.0
227 2 -2.06698 42.6012 47.5461 2.4 1.4325023607588035e-260 0.0 0.0 1.0
228 3 -1.13383 43.8578 47.6393 -1.2 0.0 0.0 0.0 1.0
229 3 -0.866095 41.3795 51.2677 -1.2 0.0 0.0 0.0 0.9999999999997772
230 3 -3.6709 42.375 47.684 -1.2 0.0 0.0 0.0 1.0
231 1 -0.726415 40.7305 46.1391 1.2 0.0 1.2675320704858067e-305 0.0 1.0
232 3 -1.05389 41.5049 48.142 -1.2 0.0 0.0 0.0 1.0
233 1 2.03297 40.284 54.1785 1.2 7.6594619451235e-129 2.654021343027526e-40 0.0 1.0
234 2 2.00649 43.0173 55.9462 2.4 3.75351605100226e-06 9.927121825964369e-79 1.6148690500266653e-120 0.9999962464839557
235 3 1.8641 41.4464 56.0725 -1.2 5.411615792783328e-25 1.0479225887545865e-54 2.6660580446093627e-111 0.9999999999999998
236 3 2.13599 44.2391 52.1648 -1.2 4.5359846331598196e-272 0.0 0.0 1.0000000000000457
237 3 0.729988 43.7153 55.284 -1.2 2.1039134798539317e-48 3.3670852316015623e-109 2.4082620011153143e-185 0.9999999999999883
238 3 3.22294 43.6666 55.2833 -1.2 2.5204704645109534e-54 7.649565845711486e-124 7.064882846480202e-204 1.000000000000013
239 1 0.725748 42.7207 51.9211 1.2 0.0 2.9517941328207003e-133 0.0 1.0
240 1 0.745255 42.624 48.8577 1.2 0.0 2.121758163546309e-239 0.0 1.0
241 2 2.33781 44.9098 50.5682 2.4 2.256984820866965e-202 0.0 0.0 1.0
242 3 2.44842 46.4007 50.7107 -1.2 0.0 0.0 0.0 0.9999999999999709
243 3 2.0094 43.8629 57.4499 -1.2 1.5345906502677427e-08 2.3023839952146e-19 1.3829612866453043e-59 0.999999984654096
244 3 1.00768 44.2782 49.8873 -1.2 0.0 0.0 0.0 1.0000000000002012
245 1 -2.37423 42.794 51.5912 1.2 0.0 1.1098886275826098e-148 0.0 1.0
246 3 3.61547 44.1571 50.0375 -1.2 0.0 0.0 0.0 0.9999999999997854
247 1 -1.07265 42.7733 54.6084 1.2 3.736888520297392e-78 2.4231362100039958e-20 2.930864595941032e-259 1.0000000000000182
248 2 -0.89229 40.6062 52.7002 2.4 6.878231264017512e-104 0.0 0.0 1.0
249 3 -0.992662 39.0451 52.4748 -1.2 6.760838457646655e-256 0.0 0.0 1.0
250 3 -1.77419 42.4066 45.8566 -1.2 0.0 0.0 0.0 1.0
251 3 -2.27555 41.2174 53.2619 -1.2 1.3685780844883164e-172 0.0 0.0 1.0000000000000118
252 3 0.319907 41.3024 53.4444 -1.2 1.2373322488585936e-161 0.0 0.0 0.9999999999999873
253 1 -2.19323 49.8678 56.7256 1.2 1.510447653923247e-14 0.015173818425733529 1.1547019993284671e-70 0.9848261815742513
254 1 -0.576394 49.7686 48.8879 1.2 0.0 1.7114063681609206e-225 0.0 1.0
255 2 -0.164044 47.1174 46.9213 2.4 4.644285458805606e-274 0.0 0.0 1.0
256 3 -0.613105 48.6538 46.9243 -1.2 0.0 0.0 0.0 1.0
257 3 -0.791099 46.0686 51.1849 -1.2 0.0 0.0 0.0 1.0000000000000506
258 3 -1.16015 46.6072 48.2686 -1.2 0.0 0.0 0.0 1.0
259 1 -1.07803 44.4386 45.7312 1.2 0.0 0.0 0.0 1.0
260 3 1.36399 47.0171 47.4111 -1.2 0.0 0.0 0.0 1.0
261 1 2.22683 45.209 54.1122 1.2 1.9518006939314663e-130 1.5151213396215012e-40 0.0 1.0
262 2 2.17929 47.8821 55.8959 2.4 7.741489987240788e-06 9.409512008136408e-78 5.400319681464208e-117 0.9999922585100142
263 3 2.03773 46.328 55.8559 -1.2 1.765769563705151e-25 3.381076730742719e-55 1.7368431858174333e-111 0.9999999999999998
264 3 2.26607 49.0321 51.9793 -1.2 1.0151497809445832e-286 0.0 0.0 0.9999999999999235
265 3 0.957069 48.5807 55.261 -1.2 5.838350117874688e-34 1.0389805172782398e-79 1.918205495084849e-142 0.9999999999999991
266 3 3.42501 48.5547 55.1388 -1.2 1.8531062344725122e-38 5.770227527607193e-87 2.2717302011361665e-156 0.9999999999999893
267 1 0.735646 47.5902 51.5426 1.2 0.0 3.938585045131979e-136 0.0 1.0
268 1 2.87746 47.495 48.4302 1.2 0.0 2.3997277775478013e-253 0.0 1.0
269 2 2.36267 49.6396 50.4319 2.4 1.754215672652543e-213 0.0 0.0 1.0
270 3 2.27776 51.1847 50.6511 -1.2 0.0 0.0 0.0 1.0000000000000926
271 3 2.28478 48.6114 57.3721 -1.2 2.449219052578449e-06 2.757238491097749e-16 1.1502147373816343e-52 0.9999975507809475
272 3 1.01423 48.9556 49.8045 -1.2 0.0 0.0 0.0 0.9999999999998694
273 1 -2.23362 47.5521 51.7945 1.2 0.0 1.5372731141408108e-141 0.0 1.0
274 3 3.56839 49.0799 49.6474 -1.2 0.0 0.0 0.0 1.0000000000000024
275 1 -0.850973 47.4978 54.5938 1.2 6.606952013952309e-81 1.48475236141275e-23 7.211624001441026e-263 0.9999999999999776
276 2 -0.711289 45.4789 52.6732 2.4 5.583055727512548e-97 0.0 0.0 1.0
277 3 -0.77004 43.9341 52.7916 -1.2 5.072549240788068e-209 0.0 0.0 1.0000000000000917
278 3 -0.53598 46.2498 45.7115 -1.2 0.0 0.0 0.0 1.0
279 3 -2.05478 46.1208 53.3781 -1.2 1.8894128654354096e-158 0.0 0.0 0.9999999999999841
280 3 0.578787 46.2336 53.2837 -1.2 2.872930719444942e-147 0.0 0.0 1.0000000000000346
281 1 -2.09147 54.6968 56.6709 1.2 1.1893357153897456e-14 0.1321045774524309 1.2456791489301847e-70 0.8678954225475587
282 1 -0.600998 54.7806 49.5886 1.2 0.0 1.4311956094591734e-177 0.0 1.0
283 2 1.05196 51.9905 46.7698 2.4 3.834638750676954e-233 0.0 0.0 1.0
284 3 1.14248 53.6092 46.5229 -1.2 0.0 0.0 0.0 1.0
285 3 -0.880221 50.8984 51.2322 -1.2 0.0 0.0 0.0 1.0000000000000027
286 3 -0.531399 51.5103 47.633 -1.2 0.0 0.0 0.0 1.0
287 1 -0.756801 50.2475 45.9508 1.2 0.0 5e-324 0.0 1.0
288 3 2.25369 51.4462 47.6779 -1.2 0.0 0.0 0.0 1.0
289 1 2.23659 50.1378 53.916 1.2 5.34420523935664e-134 1.686076549133062e-36 0.0 1.0
290 2 2.27308 52.6219 55.9589 2.4 0.9999935939606656 5.0655610660547134e-58 2.216534038769188e-95 6.406039330114301e-06
291 3 2.28466 51.082 55.9556 -1.2 1.991454881807797e-23 2.5090328366088346e-54 3.9114737264359e-111 1.000000000000002
292 3 2.43079 53.7919 52.0072 -1.2 6.343974713467561e-278 0.0 0.0 1.0
293 3 1.0339 53.268 55.3227 -1.2 3.5564370400491226e-37 4.6814965173997075e-88 2.3969082567358973e-160 1.0000000000000089
294 3 3.56468 53.3204 55.2245 -1.2 1.7891529032290044e-34 5.860015123433846e-85 1.3223310663372107e-159 1.0000000000000073
295 1 0.664761 52.2115 51.3438 1.2 0.0 3.437386079997508e-129 0.0 1.0
296 1 3.72861 52.1042 48.6172 1.2 0.0 3.7102720011276924e-224 0.0 1.0
297 2 2.3684 54.3071 50.4953 2.4 2.1043169805058626e-194 0.0 0.0 1.0
298 3 2.52342 55.8825 50.5695 -1.2 0.0 0.0 0.0 1.0000000000000995
299 3 2.28366 53.2978 57.4515 -1.2 4.571288271143941e-05 9.625599003645653e-14 4.301329749964584e-53 0.9999542871171895
300 3 1.04655 53.745 49.8777 -1.2 0.0 0.0 0.0 1.000000000000096
301 1 -2.35831 52.2672 51.7859 1.2 0.0 1.2426239655273993e-133 0.0 1.0
302 3 3.69555 53.591 49.8381 -1.2 0.0 0.0 0.0 0.9999999999999525
303 1 -0.760252 52.4896 54.6156 1.2 3.9068924345454546e-61 1.9420421219394702e-08 6.903780322949116e-222 0.999999980579575
304 2 -0.790079 50.3036 52.7461 2.4 4.994592150800252e-87 0.0 0.0 1.0
305 3 -0.773829 48.728 52.6732 -1.2 7.652147467717743e-195 0.0 0.0 1.0
306 3 0.797373 51.1949 45.4479 -1.2 0.0 0.0 0.0 1.0
307 3 -2.04913 51.0566 53.4224 -1.2 7.469925037265465e-142 0.0 0.0 1.0000000000000113
308 3 0.462401 50.8972 53.4467 -1.2 7.408601780032966e-130 1.449988e-317 0.0 0.999999999999985
309 1 -2.04432 59.3244 56.9383 1.2 1.0417423592428886e-11 0.02171377270919127 3.0744296077990494e-61 0.9782862272803944
310 1 -0.550614 59.5798 49.5146 1.2 0.0 6.685313962299056e-209 0.0 1.0
311 2 -0.124445 57.1402 47.5303 2.4 4.442682394597022e-214 0.0 0.0 1.0
312 3 -0.391346 58.6147 47.6441 -1.2 0.0 0.0 0.0 1.0
313 3 -0.49905 55.7019 51.3096 -1.2 0.0 0.0 0.0 1.0000000000000215
314 3 -1.1815 56.2231 48.3399 -1.2 0.0 0.0 0.0 1.0
315 1 1.04053 55.4119 46.0419 1.2 0.0 5.24898021772916e-310 0.0 1.0
316 3 1.3717 56.5293 47.6844 -1.2 0.0 0.0 0.0 1.0
317 1 2.36112 54.673 53.9142 1.2 4.457424588838924e-138 2.077851313955429e-39 0.0 1.0
318 2 2.31588 57.4102 55.9818 2.4 0.9999265120758541 3.5483210595469505e-59 1.1607211694429334e-94 7.348792414332841e-05
319 3 2.2991 55.8947 56.1152 -1.2 6.210470062985342e-16 4.822733813837184e-38 1.6540834747703655e-88 0.9999999999999991
320 3 2.30526 58.4944 52.095 -1.2 3.858459288995837e-248 0.0 0.0 1.0
321 3 0.976034 58.0932 55.3093 -1.2 7.899223611639815e-46 8.998955601521858e-113 6.639094929965702e-191 0.9999999999999977
322 3 3.57682 58.0549 55.2696 -1.2 5.615234126839703e-34 2.448317290865124e-86 2.512909513821084e-161 0.9999999999999998
323 1 0.928919 57.0379 51.5907 1.2 0.0 3.654359032933196e-110 0.0 1.0
324 1 2.88694 57.0456 48.7593 1.2 0.0 3.3124047634657343e-239 0.0 1.0
325 2 2.37506 59.1942 50.6868 2.4 8.944828213237828e-181 0.0 0.0 1.0
326 3 2.51554 60.747 50.7401 -1.2 0.0 0.0 0.0 0.999999999999862
327 3 2.34147 58.1589 57.4362 -1.2 0.000684070125100108 2.747270597739125e-12 3.6864972335177616e-48 0.9993159298721558
328 3 1.17253 58.5365 49.9129 -1.2 0.0 0.0 0.0 1.0
329 1 -2.04789 57.1099 51.7833 1.2 0.0 4.598969376572792e-132 0.0 1.0
330 3 3.75672 58.5402 50.0827 -1.2 0.0 0.0 0.0 0.9999999999999343
331 1 -0.579875 57.0589 54.6206 1.2 1.3835516379916136e-66 3.047837809800151e-11 3.6545720495595575e-232 0.9999999999695155
332 2 -0.548206 55.0252 52.7249 2.4 8.947352931870165e-86 0.0 0.0 1.0
333 3 -0.6805 53.539 52.502 -1.2 1.5014392376657812e-227 0.0 0.0 1.0
334 3 -0.218739 56.8603 45.9215 -1.2 0.0 0.0 0.0 1.0
335 3 -1.86301 55.7228 53.3937 -1.2 6.500321217724719e-157 0.0 0.0 1.0
336 3 0.802251 55.6446 53.4319 -1.2 5.706884268710731e-138 0.0 0.0 1.0
337 1 -2.20319 64.1887 57.096 1.2 5.457117249573136e-10 0.0012140393624369419 2.0345876623238453e-48 0.998785960091854
338 1 -0.422829 63.8303 49.149 1.2 0.0 7.048480875871627e-210 0.0 1.0
339 2 0.493951 61.5048 47.313 2.4 4.178029822161387e-186 0.0 0.0 1.0
340 3 0.386232 63.13 47.1225 -1.2 0.0 0.0 0.0 1.0
341 3 -0.316083 60.4904 51.3049 -1.2 3.730964361135e-312 0.0 0.0 0.9999999999998659
342 3 -0.675276 61.3028 48.3466 -1.2 0.0 0.0 0.0 1.0
343 1 -0.569132 59.1225 45.6809 1.2 0.0 2.374281290206174e-274 0.0 1.0
344 3 1.88582 61.0565 47.8762 -1.2 0.0 0.0 0.0 1.0
345 1 2.5301 59.5733 54.1533 1.2 7.135296003180102e-122 1.843090684371692e-35 0.0 1.0
346 2 2.31678 62.1178 56.1122 2.4 0.5893079701947646 2.0181237845942196e-58 2.2980015229998065e-87 0.41069202980523883
347 3 2.35209 60.6074 55.9518 -1.2 4.1126721785365226e-18 1.023529775314056e-44 1.5810668095126466e-92 0.9999999999999981
348 3 2.68345 63.0821 52.1841 -1.2 3.6731952959502694e-239 0.0 0.0 0.9999999999999774
349 3 1.0714 62.8011 55.4277 -1.2 5.983323447784953e-40 2.9714739872570527e-95 5.044257153244248e-154 1.0000000000000022
350 3 3.59625 62.8102 55.5072 -1.2 5.368455637288583e-31 1.0121868749199877e-77 7.810332085046201e-136 1.0000000000000007
351 1 1.10035 61.7725 51.7628 1.2 0.0 1.2938240060448622e-125 0.0 1.0
352 1 3.48277 61.6541 48.7334 1.2 0.0 1.3619777830210747e-213 0.0 1.0
353 2 2.5234 63.7797 50.7482 2.4 2.2014421844680044e-193 0.0 0.0 1.0
354 3 2.39718 65.3432 51.0911 -1.2 0.0 0.0 0.0 1.0000000000001565
355 3 2.26055 62.7637 57.6252 -1.2 0.000819031176891139 8.025778827846386e-12 3.488813263106735e-40 0.999180968815083
356 3 1.24024 63.269 50.0694 -1.2 0.0 0.0 0.0 1.0
357 1 -1.8603 61.6799 51.7664 1.2 0.0 1.0591951159623633e-130 0.0 1.0
358 3 3.78067 63.1345 49.9778 -1.2 0.0 0.0 0.0 1.0
359 1 -0.67204 62.015 54.9345 1.2 4.942010580137047e-64 1.913364856643493e-17 5.872178594343863e-217 0.9999999999999983
360 2 -0.423579 59.7308 52.7804 2.4 8.811600141017525e-82 0.0 0.0 1.0
361 3 -0.462254 58.1594 52.6043 -1.2 7.074975308676838e-201 0.0 0.0 1.0
362 3 0.294275 60.7743 45.896 -1.2 0.0 0.0 0.0 1.0
363 3 -1.7525 60.4128 53.4111 -1.2 2.0915406480006637e-157 0.0 0.0 1.0000000000000366
364 3 0.902202 60.3908 53.421 -1.2 3.782541073375416e-129 0.0 0.0 1.0000000000000486
365 1 -2.02224 68.9936 57.4116 1.2 3.76745598807473e-10 0.0015273698313235389 1.8189153486056954e-43 0.9984726297919242
366 1 -0.350815 68.7696 49.755 1.2 0.0 5.625508398499079e-218 0.0 1.0
367 2 -1.33313 66.3482 47.5848 2.4 6.271177848961153e-223 0.0 0.0 1.0
368 3 -0.675619 67.7633 47.697 -1.2 0.0 0.0 0.0 1.0
369 3 -0.682169 65.1634 51.3631 -1.2 1.09782804e-316 0.0 0.0 1.0000000000002096