ITEM: TIMESTEP
500
ITEM: NUMBER OF ATOMS
10500
ITEM: BOX BOUNDS xy xz yz pp pp pp
0	8.9688	2.9896
0	118.725	0
0	252.977	0
ITEM: ATOMS id type xu yu zu q pCrystal pDisloC pDisloB pDisloA
1 1 -3.4862 7.07255 57.4867 1.2 2.884199295392259e-08 0.8068578793182325 1.1010957658904518e-57 0.1931420918397744
2 1 -1.81751 6.4329 49.8466 1.2 0.0 4.1283843984280676e-200 0.0 1.0
3 2 -0.130432 4.00886 48.0244 2.4 2.873149778795961e-270 0.0 0.0 1.0
4 3 -0.218827 5.42352 47.3622 -1.2 0.0 0.0 0.0 1.0
5 3 -2.00387 3.36957 51.8164 -1.2 0.0 0.0 0.0 1.0000000000000568
6 3 -1.46512 3.65362 48.9044 -1.2 0.0 0.0 0.0 1.0
7 1 2.03999 2.55865 47.2993 1.2 0.0 4.963435323578981e-261 0.0 1.0
8 3 1.26235 3.75129 48.8163 -1.2 0.0 0.0 0.0 1.0
9 1 0.945765 2.33437 54.5121 1.2 6.893853336473675e-161 4.261757015305729e-57 0.0 1.0
10 2 1.01301 4.98156 56.4961 2.4 0.19550333855838348 2.998731927767073e-67 1.2208163167204567e-102 0.8044966614416134
11 3 0.977964 3.3969 56.5249 -1.2 1.1785964020545897e-23 2.2839771172010093e-60 3.633429658640753e-109 0.9999999999999994
12 3 1.02692 6.09348 52.8158 -1.2 7.93905450433134e-231 0.0 0.0 1.0000000000000948
13 3 -0.273756 5.70605 55.8621 -1.2 3.178557236628831e-37 1.4674273498835778e-89 1.7539054528307475e-148 1.0000000000000118
14 3 2.22795 5.74516 55.7807 -1.2 6.135768929325795e-39 1.0140305296987583e-94 4.070755189706986e-156 0.9999999999999911
15 1 -0.488371 4.76742 52.1694 1.2 0.0 5.806939575666122e-140 0.0 1.0
16 1 2.74618 3.84848 50.1369 1.2 0.0 1.393752217868957e-213 0.0 1.0
17 2 1.19267 6.58744 51.1892 2.4 1.290031129855459e-218 0.0 0.0 1.0
18 3 1.40874 8.18375 51.1504 -1.2 0.0 0.0 0.0 0.9999999999997884
19 3 0.942908 5.59557 57.9927 -1.2 0.31156358066422174 7.574707217114831e-11 8.73931717334371e-46 0.6884364192600312
20 3 -0.0215387 6.0139 50.5086 -1.2 0.0 0.0 0.0 1.0
21 1 -3.54732 4.79732 52.6127 1.2 0.0 2.500336700443372e-124 0.0 1.0
22 3 2.58575 5.82674 50.7254 -1.2 0.0 0.0 0.0 1.0
23 1 -1.99906 4.81318 55.1962 1.2 4.137685115859541e-64 4.675191447265211e-16 1.995754004239989e-219 0.9999999999999993
24 2 -2.03267 2.65665 53.3281 2.4 3.3397227724525536e-120 0.0 0.0 1.0
25 3 -2.12707 1.13203 53.2438 -1.2 1.2876855909242603e-216 0.0 0.0 1.0
26 3 0.0277745 2.79974 46.9678 -1.2 0.0 0.0 0.0 1.0
27 3 -3.28874 3.4651 54.0438 -1.2 2.797290499686866e-155 0.0 0.0 0.9999999999999656
28 3 -0.701088 3.30613 54.0488 -1.2 3.868662744444194e-154 0.0 0.0 1.0000000000000477
29 1 -3.25105 11.7555 57.3947 1.2 3.9175185434792785e-10 0.4448530310279153 7.910750280871995e-62 0.5551469685803349
30 1 -1.76135 11.5348 49.8186 1.2 0.0 1.052765536577256e-211 0.0 1.0
31 2 -1.10817 8.98623 47.9775 2.4 2.254857489735623e-235 0.0 0.0 1.0
32 3 -1.21173 10.6142 48.081 -1.2 0.0 0.0 0.0 1.0
33 3 -1.66282 7.93833 51.8431 -1.2 0.0 0.0 0.0 1.000000000000206
34 3 -2.16567 8.21866 48.8595 -1.2 0.0 0.0 0.0 1.0
35 1 0.198054 7.14157 46.6668 1.2 0.0 4.282396604749009e-267 0.0 1.0
36 3 0.499463 8.58695 48.1824 -1.2 0.0 0.0 0.0 1.0
37 1 1.19742 7.10231 54.6485 1.2 4.149078870223551e-124 5.085433647519065e-38 0.0 1.0
38 2 1.13561 9.79456 56.3461 2.4 0.00015020524726634134 6.661337726882746e-82 1.1906913597334815e-117 0.9998497947527313
39 3 1.0091 8.1908 56.4709 -1.2 1.4219207431260777e-18 1.9125896858970422e-48 7.503838529409237e-94 0.9999999999999969
40 3 1.42337 10.6678 52.5886 -1.2 7.36922096654371e-283 0.0 0.0 1.0
41 3 -0.16857 10.4903 55.7 -1.2 7.236479747594209e-54 1.8681109726879723e-131 1.1623513406590984e-205 1.0000000000000075
42 3 2.41958 10.4296 55.6795 -1.2 9.477978108107796e-47 3.0528950879340437e-114 5.617128993855177e-185 1.0000000000000056
43 1 -0.146438 9.44338 52.2698 1.2 0.0 1.1159834410755982e-117 0.0 1.0
44 1 2.06724 8.91885 49.2792 1.2 0.0 1.392282496723897e-222 0.0 1.0
45 2 1.27532 11.3187 51.0458 2.4 3.346472063367796e-222 0.0 0.0 1.0
46 3 1.31972 12.9737 51.2822 -1.2 0.0 0.0 0.0 1.0
47 3 1.1532 10.4555 57.8048 -1.2 0.0001794026156488089 4.5912704651237116e-15 4.7374827000878336e-49 0.9998205973843423
48 3 -0.147453 10.7588 50.6974 -1.2 0.0 0.0 0.0 0.999999999999975
49 1 -3.17187 9.29398 52.2508 1.2 0.0 2.1990518825472973e-139 0.0 1.0
50 3 2.35434 10.7357 50.1361 -1.2 0.0 0.0 0.0 0.9999999999999618
51 1 -1.82298 9.49028 55.0523 1.2 5.803048311652965e-90 4.659198330024812e-25 5.599246144300127e-290 1.0
52 2 -1.73233 7.355 53.3138 2.4 1.6694936657393473e-106 0.0 0.0 1.0
53 3 -1.88404 5.80034 53.3286 -1.2 1.0595769342556622e-215 0.0 0.0 1.0000000000000648
54 3 -1.34314 8.49748 46.5049 -1.2 0.0 0.0 0.0 1.0
55 3 -3.10479 8.03453 53.8765 -1.2 5.610271164777087e-173 0.0 0.0 1.0000000000000113
56 3 -0.529995 8.11068 54.0461 -1.2 1.029327438268819e-146 0.0 0.0 1.0000000000000193
57 1 -3.25287 16.6336 57.3732 1.2 5.983054364777471e-11 0.9231890451096328 1.5565054002228888e-68 0.07681095483053392
58 1 -1.77969 16.2442 49.6705 1.2 0.0 5.469081462403784e-231 0.0 1.0
59 2 -1.12364 13.8069 47.9207 2.4 1.239322767786763e-241 0.0 0.0 1.0
60 3 -1.08492 15.3447 47.9249 -1.2 0.0 0.0 0.0 1.0
61 3 -1.8378 12.7508 51.728 -1.2 0.0 0.0 0.0 1.0
62 3 -2.35141 13.2369 48.8111 -1.2 0.0 0.0 0.0 1.0
63 1 -0.0938475 11.6501 46.9493 1.2 0.0 1.5068238727829815e-279 0.0 1.0
64 3 0.304199 13.1325 48.4774 -1.2 0.0 0.0 0.0 1.0
65 1 1.23697 11.8082 54.5145 1.2 2.7716156627329602e-167 1.4621381188975e-49 0.0 1.0
66 2 1.24449 14.5284 56.4181 2.4 0.9999925756665448 1.4332302092931455e-68 4.327879722017686e-106 7.424333459221601e-06
67 3 1.21774 12.9801 56.3692 -1.2 3.1828826538677645e-23 2.4327400483067766e-59 1.8406723877124912e-114 0.9999999999999934
68 3 1.48672 15.541 52.6427 -1.2 3.125061309214711e-283 0.0 0.0 1.0
69 3 -0.117047 15.1141 55.8424 -1.2 1.1122889449956398e-41 4.574061055087757e-101 1.8525780640216802e-174 1.0000000000000013
70 3 2.47155 15.2459 55.7171 -1.2 1.712768215010491e-40 1.5323897681850927e-96 3.162500130567419e-169 0.999999999999992
71 1 -0.150758 14.1017 52.2003 1.2 0.0 1.9364274061077766e-113 0.0 1.0
72 1 1.91744 13.7962 49.5002 1.2 0.0 6.793230505917224e-231 0.0 1.0
73 2 1.2731 16.2622 51.2066 2.4 4.08426521487326e-221 0.0 0.0 1.0
74 3 1.41643 17.8134 51.2721 -1.2 0.0 0.0 0.0 1.0
75 3 1.22054 15.1209 57.8588 -1.2 0.005906924446313024 5.2806407411227196e-14 3.8923453625750184e-51 0.994093075553635
76 3 -0.0377797 15.5659 50.6942 -1.2 0.0 0.0 0.0 1.0
77 1 -3.19155 14.0127 52.4051 1.2 0.0 3.272350186921537e-131 0.0 1.0
78 3 2.4629 15.5525 50.2485 -1.2 0.0 0.0 0.0 1.0
79 1 -1.79096 14.2677 55.0313 1.2 4.6978188550542844e-86 2.403011172833307e-19 2.3597313252250975e-286 1.0
80 2 -1.7032 12.0005 53.2856 2.4 5.6117807871545915e-96 0.0 0.0 1.0
81 3 -1.74855 10.4446 53.1865 -1.2 2.701602077787666e-218 0.0 0.0 1.0
82 3 -1.11964 13.251 46.487 -1.2 0.0 0.0 0.0 1.0
83 3 -3.01007 12.7184 53.9832 -1.2 5.827057306287901e-171 0.0 0.0 1.0
84 3 -0.368751 12.7808 53.8469 -1.2 3.9432694864177305e-158 0.0 0.0 1.0
85 1 -2.91491 21.2557 57.4905 1.2 2.566804068471589e-12 0.4684733675456079 1.5009469598431214e-71 0.5315266324518225
86 1 -1.51798 21.1633 49.7046 1.2 0.0 4.97425672279825e-239 0.0 1.0
87 2 -1.06188 18.5502 47.9441 2.4 1.6210484977965088e-290 0.0 0.0 1.0
88 3 -0.779718 20.1105 48.0291 -1.2 0.0 0.0 0.0 1.0
89 3 -1.60295 17.5624 51.768 -1.2 0.0 0.0 0.0 1.0
90 3 -2.41702 18.1252 48.7388 -1.2 0.0 0.0 0.0 1.0
91 1 0.0516403 16.5425 46.8739 1.2 0.0 0.0 0.0 1.0
92 3 0.336143 17.8649 48.5233 -1.2 0.0 0.0 0.0 1.0
93 1 1.27513 16.5949 54.5522 1.2 2.869875389226801e-160 3.128931001159904e-45 0.0 1.0
94 2 1.45958 19.2584 56.4111 2.4 0.9968893234004139 7.124591703596659e-72 1.084014436328043e-107 0.0031106765995895383
95 3 1.29115 17.7534 56.479 -1.2 1.7624859776010522e-18 1.983876123913019e-45 1.3351247127491095e-97 0.9999999999999984
96 3 1.63754 20.3239 52.6864 -1.2 3.913684533144794e-295 0.0 0.0 1.0
97 3 0.195264 20.0557 55.718 -1.2 1.3268595937909805e-60 1.3301042515801193e-134 1.1703593051832009e-217 1.0000000000000107
98 3 2.80317 19.8287 55.7462 -1.2 9.071043761282896e-48 4.7748400259849825e-106 7.732418807316073e-183 1.000000000000001
99 1 -0.0428351 18.8919 52.1548 1.2 0.0 1.8694050477156048e-124 0.0 1.0
100 1 1.80603 18.802 49.4127 1.2 0.0 1.2732771576671139e-263 0.0 1.0
101 2 1.41401 21.0487 51.2047 2.4 7.340764184961512e-232 0.0 0.0 1.0
102 3 1.43601 22.6402 51.435 -1.2 0.0 0.0 0.0 1.0
103 3 1.48923 19.9635 57.8748 -1.2 0.0002575924044365467 9.120213803576342e-16 2.271276114215997e-54 0.9997424075955682
104 3 0.0552808 20.4212 50.7 -1.2 0.0 0.0 0.0 1.0
105 1 -2.99583 19.0304 52.1739 1.2 0.0 6.674286283505317e-146 0.0 1.0
106 3 2.61335 20.4072 50.3507 -1.2 0.0 0.0 0.0 1.0
107 1 -1.49481 18.9706 55.1369 1.2 3.7939659347802134e-87 1.2475690294499231e-20 1.69779994542533e-277 1.0
108 2 -1.69448 16.871 53.2437 2.4 5.1061915028955716e-107 0.0 0.0 1.0
109 3 -1.74667 15.3202 53.2423 -1.2 1.1298387711536487e-215 0.0 0.0 1.0
110 3 -0.86292 18.1548 46.4192 -1.2 0.0 0.0 0.0 1.0
111 3 -2.95757 17.5424 53.9177 -1.2 7.479811699386705e-177 0.0 0.0 1.0
112 3 -0.366269 17.5056 53.8936 -1.2 1.2939418057085414e-159 0.0 0.0 1.0
113 1 -3.00816 26.1672 57.4889 1.2 4.003131557980925e-12 0.3368245845637042 3.7661717521143346e-74 0.6631754154322956
114 1 -1.37539 25.9993 49.8515 1.2 0.0 1.0593447891955438e-255 0.0 1.0
115 2 -0.989122 23.3701 48.0653 2.4 9.291075374136933e-287 0.0 0.0 1.0
116 3 -0.957794 24.9007 47.9044 -1.2 0.0 0.0 0.0 1.0
117 3 -1.62041 22.2715 51.8555 -1.2 0.0 0.0 0.0 1.0
118 3 -2.28125 22.8413 48.9491 -1.2 0.0 0.0 0.0 1.0
119 1 0.245362 21.0934 46.8288 1.2 0.0 0.0 0.0 1.0
120 3 0.365541 22.7777 48.7229 -1.2 0.0 0.0 0.0 1.0
121 1 1.50004 21.3463 54.5481 1.2 1.564932238880771e-172 1.720872989448416e-50 0.0 1.0
122 2 1.52597 24.0395 56.5204 2.4 0.0024428122627212726 6.67754067086482e-86 1.648617788269771e-129 0.9975571877372824
123 3 1.576 22.513 56.6289 -1.2 8.458550712496842e-21 4.384803872356416e-50 7.743874431385016e-106 1.0000000000000013
124 3 1.54774 25.0909 52.6566 -1.2 1.30682011e-315 0.0 0.0 1.0
125 3 0.254336 24.7061 55.7948 -1.2 2.8842016645051247e-68 3.3884013830727316e-147 1.672836088580417e-230 0.9999999999999873
126 3 2.77943 24.6736 55.7496 -1.2 2.749095193292407e-50 7.420688478719487e-107 2.489114137776599e-178 1.0000000000000058
127 1 -0.129928 23.6572 52.153 1.2 0.0 9.40443816913103e-137 0.0 1.0
128 1 1.9019 23.5488 49.5869 1.2 0.0 6.334648601130821e-264 0.0 1.0
129 2 1.51134 25.7557 51.223 2.4 1.6342492113684123e-233 0.0 0.0 1.0
130 3 1.60902 27.3069 51.2458 -1.2 0.0 0.0 0.0 1.0
131 3 1.50308 24.7279 57.9489 -1.2 0.00381036251494694 5.90725042979655e-15 2.1897984362548975e-56 0.9961896374850477
132 3 0.25291 25.0773 50.6115 -1.2 0.0 0.0 0.0 1.0
133 1 -2.99535 23.7411 52.1797 1.2 0.0 3.4311328700935406e-148 0.0 1.0
134 3 2.86349 25.0731 50.4957 -1.2 0.0 0.0 0.0 1.0
135 1 -1.5033 23.6591 55.1958 1.2 4.361027626804236e-84 4.2023311909583623e-17 3.4358388761658234e-274 1.000000000000002
136 2 -1.5088 21.6343 53.3248 2.4 9.540332385286574e-101 0.0 0.0 1.0
137 3 -1.48877 20.0757 53.2377 -1.2 1.4404149105143924e-229 0.0 0.0 1.0
138 3 -0.931502 22.6947 46.6298 -1.2 0.0 0.0 0.0 1.0
139 3 -2.67492 22.3046 54.1734 -1.2 1.123415574484847e-162 0.0 0.0 1.0
140 3 -0.149879 22.3219 53.9004 -1.2 1.7023690708826908e-172 0.0 0.0 1.0
141 1 -2.78749 30.7501 57.3451 1.2 4.527861501821999e-13 0.22219261659922912 3.8001593440436064e-80 0.7778073834003161
142 1 -1.32809 30.7546 49.9045 1.2 0.0 3.541160355436828e-245 0.0 1.0
143 2 -0.964325 28.1602 47.9332 2.4 1.0789906976001628e-294 0.0 0.0 1.0
144 3 -0.685069 29.7111 48.0024 -1.2 0.0 0.0 0.0 1.0
145 3 -1.36902 27.0989 51.661 -1.2 0.0 0.0 0.0 1.0
146 3 -2.13327 27.6224 48.8721 -1.2 0.0 0.0 0.0 1.0
147 1 -0.0983368 26.1246 46.6954 1.2 0.0 0.0 0.0 1.0
148 3 0.494123 27.4886 48.3225 -1.2 0.0 0.0 0.0 1.0
149 1 1.71816 25.9965 54.5143 1.2 1.1245702256431933e-173 7.044938219095089e-57 0.0 1.0
150 2 1.59363 28.7492 56.3293 2.4 4.0101099934245985e-08 5.914929398576463e-98 2.5535966887199203e-141 0.9999999598989014
151 3 1.64754 27.2094 56.3508 -1.2 4.091403889534374e-34 9.130869071935913e-78 4.587394696972751e-145 1.0000000000000062
152 3 1.6579 29.7323 52.7955 -1.2 1.1248929007857647e-297 0.0 0.0 1.0
153 3 0.33277 29.4859 55.6535 -1.2 1.6943518429725157e-72 2.063135626277396e-158 1.705708200169704e-245 1.0000000000000133
154 3 2.88617 29.4163 55.7141 -1.2 2.2686337950139525e-47 3.520664668889071e-105 5.862387922394439e-177 1.000000000000012
155 1 0.104984 28.3103 52.1056 1.2 0.0 1.3322681574172585e-142 0.0 1.0
156 1 1.95539 28.2727 49.3651 1.2 0.0 8.472034732251456e-285 0.0 1.0
157 2 1.71305 30.4371 51.3476 2.4 9.428588131359811e-229 0.0 0.0 1.0
158 3 1.73834 32.0642 51.4224 -1.2 0.0 0.0 0.0 1.0
159 3 1.75404 29.3724 57.8387 -1.2 4.1849995169919926e-05 1.216162751663654e-16 5.5858847665883844e-58 0.999958150004828
160 3 0.407481 29.798 50.6471 -1.2 0.0 0.0 0.0 1.0
161 1 -2.84271 28.3819 52.2998 1.2 0.0 1.1749048774422711e-158 0.0 1.0
162 3 2.94719 29.8832 50.6076 -1.2 0.0 0.0 0.0 1.0
163 1 -1.37386 28.421 55.1358 1.2 1.1502686496203199e-88 3.2698435088058864e-24 4.263675292481171e-279 1.0
164 2 -1.31746 26.3282 53.2017 2.4 2.350092271346188e-106 0.0 0.0 1.0
165 3 -1.47922 24.8194 53.1322 -1.2 6.314986383493778e-243 0.0 0.0 1.0
166 3 -1.15503 27.6831 46.461 -1.2 0.0 0.0 0.0 1.0
167 3 -2.59112 27.0602 53.8426 -1.2 1.3099820138769123e-193 0.0 0.0 1.0
168 3 0.0655511 26.9007 53.759 -1.2 1.4624403694112745e-189 0.0 0.0 1.0
169 1 -2.62507 35.4472 57.3617 1.2 9.22696597800758e-12 0.9426797692889032 1.2684941499641405e-73 0.057320230701869784
170 1 -1.30211 35.4783 49.9496 1.2 0.0 7.589021013520415e-232 0.0 1.0
171 2 -0.781273 32.9913 47.8524 2.4 4.189180488929246e-279 0.0 0.0 1.0
172 3 -0.791647 34.5517 47.9146 -1.2 0.0 0.0 0.0 1.0
173 3 -1.2198 31.7187 51.8609 -1.2 0.0 0.0 0.0 1.0
174 3 -1.99877 32.3312 48.7878 -1.2 0.0 0.0 0.0 1.0
175 1 0.160189 30.7347 46.6478 1.2 0.0 0.0 0.0 1.0
176 3 0.645108 32.433 48.4601 -1.2 0.0 0.0 0.0 1.0
177 1 1.94489 30.9498 54.5886 1.2 2.1980255909157324e-163 5.20220109974594e-55 0.0 1.0
178 2 1.87735 33.5482 56.353 2.4 1.0750727765011846e-10 9.606129408333487e-100 4.911423154525064e-143 0.9999999998924807
179 3 1.7902 31.9659 56.4403 -1.2 9.310523666906987e-28 3.1308683118788673e-68 1.276517536029288e-132 1.000000000000003
180 3 1.74802 34.5307 52.8841 -1.2 3.8463066389323604e-296 0.0 0.0 1.0
181 3 0.567019 34.2524 55.7146 -1.2 3.2218865152401475e-68 2.424670362332879e-143 9.444655722655341e-218 0.9999999999999953
182 3 3.2582 34.171 55.7557 -1.2 4.11982232467876e-52 8.520604913697392e-114 2.82037412234417e-184 1.0000000000000024
183 1 0.18847 33.2346 52.314 1.2 0.0 2.2944696797178745e-135 0.0 1.0
184 1 2.21885 32.9897 49.4743 1.2 0.0 1.3639164986042004e-277 0.0 1.0
185 2 1.63757 35.2008 51.4019 2.4 2.1905832203517137e-209 0.0 0.0 1.0
186 3 1.71487 36.7598 51.4173 -1.2 0.0 0.0 0.0 1.0
187 3 1.88421 34.1203 57.8676 -1.2 0.008937602922006377 1.5860694537658928e-15 4.828076243523142e-57 0.9910623970779923
188 3 0.395963 34.5591 50.7637 -1.2 0.0 0.0 0.0 1.0
189 1 -2.70747 33.0332 52.4668 1.2 0.0 7.635889649529022e-150 0.0 1.0
190 3 2.96552 34.5521 50.5981 -1.2 0.0 0.0 0.0 1.0
191 1 -1.06076 33.1997 55.1951 1.2 4.992592225195479e-84 5.834561026292796e-24 1.193682451631341e-269 1.0
192 2 -1.07719 31.0066 53.3651 2.4 6.110579172313946e-97 0.0 0.0 1.0
193 3 -1.22815 29.4682 53.3105 -1.2 2.342898532749679e-232 0.0 0.0 1.0
194 3 -0.748162 32.4343 46.345 -1.2 0.0 0.0 0.0 1.0
195 3 -2.34625 31.6911 54.0298 -1.2 1.3152177095809277e-174 0.0 0.0 1.0
196 3 0.201274 31.8015 53.9763 -1.2 6.137087444721786e-168 0.0 0.0 1.0
197 1 -2.66544 40.3397 57.4373 1.2 1.2260375576086699e-13 0.9886662771037101 4.230562723879344e-76 0.011333722896167672
198 1 -1.17444 40.0731 49.6869 1.2 0.0 1.5672057558303702e-224 0.0 1.0
199 2 -0.894565 37.5629 47.7753 2.4 3.1642804030468264e-252 0.0 0.0 1.0
200 3 -0.835559 39.2162 47.791 -1.2 0.0 0.0 0.0 1.0
201 3 -1.35647 36.5403 51.7509 -1.2 0.0 0.0 0.0 1.0
202 3 -2.13872 37.0968 48.695 -1.2 0.0 0.0 0.0 1.0
203 1 0.259898 35.654 46.6685 1.2 0.0 0.0 0.0 1.0
204 3 0.560743 36.9642 48.2082 -1.2 0.0 0.0 0.0 1.0
205 1 1.62355 35.7302 54.6223 1.2 1.633939262055719e-151 5.3088232990621836e-52 0.0 1.0
206 2 1.80663 38.29 56.6052 2.4 0.9630526369408907 1.015621285590899e-69 8.128099031248904e-109 0.0369473630591158
207 3 1.86758 36.7421 56.619 -1.2 2.2492683048534496e-20 9.538264948237799e-51 2.956009688226899e-102 1.000000000000001
208 3 1.86075 39.3672 52.5798 -1.2 1.2032654796e-314 0.0 0.0 1.0
209 3 0.57853 38.9593 55.748 -1.2 1.16642189555373e-65 9.224466823655536e-139 3.05743018346935e-212 0.9999999999999887
210 3 3.12037 38.9352 55.8094 -1.2 7.180407795766475e-42 1.6855913792465642e-94 2.0147172057199083e-162 1.0000000000000004
211 1 0.220237 37.9571 52.2771 1.2 0.0 2.8590341526132918e-129 0.0 1.0
212 1 2.08992 37.4522 49.391 1.2 0.0 5.9659418767812796e-251 0.0 1.0
213 2 1.72576 39.9044 51.1315 2.4 5.188238649840153e-224 0.0 0.0 1.0
214 3 1.86032 41.534 51.1146 -1.2 0.0 0.0 0.0 1.0
215 3 1.68111 39.0206 58.0244 -1.2 0.014651979139749916 9.012853897731985e-16 1.5960752429451732e-57 0.9853480208602505
216 3 0.450413 39.2026 50.5791 -1.2 0.0 0.0 0.0 1.0
217 1 -2.78118 38.0159 52.4467 1.2 0.0 1.5011017964402756e-150 0.0 1.0
218 3 2.96713 39.3744 50.2891 -1.2 0.0 0.0 0.0 1.0
219 1 -1.1762 37.8903 55.187 1.2 3.261154933523578e-89 9.73625658163303e-26 3.500617902779111e-275 1.0
220 2 -1.34308 35.832 53.229 2.4 6.298232864370026e-112 0.0 0.0 1.0
221 3 -1.31707 34.3125 53.1795 -1.2 3.741145566681524e-247 0.0 0.0 1.0
222 3 -1.0524 37.0429 46.3186 -1.2 0.0 0.0 0.0 1.0
223 3 -2.53996 36.6031 53.9828 -1.2 8.385564972258762e-175 0.0 0.0 1.0
224 3 -0.0864452 36.5778 53.8669 -1.2 2.5719721831697792e-168 0.0 0.0 1.0
225 1 -2.58771 45.0642 57.4337 1.2 1.0611394647339508e-11 0.9757981224931539 6.144065437332972e-68 0.02420187749623303
226 1 -1.01007 44.8665 49.7507 1.2 0.0 2.9794518230232666e-200 0.0 1.0
227 2 -0.679714 42.3707 47.8555 2.4 1.125445961056861e-246 0.0 0.0 1.0
228 3 -0.579787 43.9056 47.9767 -1.2 0.0 0.0 0.0 1.0
229 3 -1.08795 41.3324 51.6617 -1.2 0.0 0.0 0.0 1.0
230 3 -1.85238 41.8194 48.7218 -1.2 0.0 0.0 0.0 1.0
231 1 0.239453 40.353 46.704 1.2 0.0 7.791219229140158e-290 0.0 1.0
232 3 0.686566 41.676 48.3717 -1.2 0.0 0.0 0.0 1.0
233 1 1.76782 40.3875 54.5441 1.2 6.35032098045775e-179 3.340909713692757e-57 0.0 1.0
234 2 1.9209 42.9687 56.3643 2.4 0.9920504718787967 5.729329781904345e-83 5.2384220240195174e-124 0.00794952812119909
235 3 1.92705 41.4251 56.4332 -1.2 8.585238901047233e-20 1.43296831499373e-51 1.490673239071649e-105 1.0000000000000027
236 3 1.88858 43.922 52.6275 -1.2 3.2463827038078454e-299 0.0 0.0 1.0
237 3 0.672612 43.7332 55.6998 -1.2 3.597693051799657e-55 2.3945730903794804e-125 1.42007646926117e-204 1.000000000000007
238 3 3.22681 43.6637 55.7668 -1.2 3.9885826330459945e-40 1.5492477030173014e-92 2.0018680549201513e-163 1.0000000000000033
239 1 0.424096 42.6138 52.0603 1.2 0.0 1.8617432249734996e-117 0.0 1.0
240 1 2.30884 42.2884 49.3572 1.2 0.0 1.6908905205210837e-209 0.0 1.0
241 2 1.96224 44.706 51.1805 2.4 1.804538600258281e-213 0.0 0.0 1.0
242 3 2.01958 46.2546 51.2002 -1.2 0.0 0.0 0.0 1.0
243 3 1.94132 43.5882 57.9026 -1.2 0.005686980145016623 9.546544472332662e-16 3.4788868759518334e-57 0.9943130198549834
244 3 0.636536 44.0894 50.4893 -1.2 0.0 0.0 0.0 1.0
245 1 -2.53346 42.6419 52.1377 1.2 0.0 8.831360059416191e-133 0.0 1.0
246 3 3.23632 44.0414 50.4244 -1.2 0.0 0.0 0.0 1.0
247 1 -1.06316 42.7004 55.0952 1.2 3.505624617768827e-83 1.5270556855124186e-16 1.707780488059419e-267 1.0
248 2 -1.18583 40.7281 53.1843 2.4 2.322709441745695e-115 0.0 0.0 1.0
249 3 -1.22572 39.1143 53.2323 -1.2 2.6186646746180952e-225 0.0 0.0 1.0
250 3 -0.586161 41.9991 46.2864 -1.2 0.0 0.0 0.0 1.0
251 3 -2.43366 41.436 53.8353 -1.2 2.3048322223347588e-196 0.0 0.0 1.0
252 3 0.152728 41.333 53.7814 -1.2 3.9665327139659585e-172 0.0 0.0 1.0
253 1 -2.53838 49.6661 57.3311 1.2 9.698037336784734e-10 0.6154394741733112 7.257858920339322e-59 0.38456052485688214
254 1 -0.867201 49.7772 49.8613 1.2 0.0 1.3818089440814123e-206 0.0 1.0
255 2 -0.496855 47.1356 47.8486 2.4 1.7656689838057903e-263 0.0 0.0 1.0
256 3 -0.245664 48.668 47.9945 -1.2 0.0 0.0 0.0 1.0
257 3 -0.904744 46.0856 51.5712 -1.2 0.0 0.0 0.0 1.0
258 3 -1.64099 46.5736 48.7158 -1.2 0.0 0.0 0.0 1.0
259 1 0.453486 45.0712 46.6599 1.2 0.0 4.82220875768234e-280 0.0 1.0
260 3 0.943373 46.4245 48.2554 -1.2 0.0 0.0 0.0 1.0
261 1 2.01927 44.989 54.465 1.2 6.355148147055555e-160 7.130895332827333e-43 0.0 1.0
262 2 1.99298 47.6736 56.2552 2.4 0.9128187933207241 4.024136203323257e-83 2.71973241030456e-124 0.08718120667927812
263 3 1.85888 46.1063 56.3665 -1.2 2.2197397379540822e-26 1.8573769668726435e-59 4.181861932995045e-118 1.0000000000000033
264 3 2.164 48.7093 52.6285 -1.2 1.4849919899674364e-282 0.0 0.0 1.0
265 3 0.746115 48.4515 55.557 -1.2 1.3001760550649156e-61 5.248588086483013e-137 8.24906643772026e-223 1.0000000000000067
266 3 3.2431 48.2971 55.5989 -1.2 2.580634227925395e-44 6.632644444907778e-96 5.659127590167818e-170 0.9999999999999905
267 1 0.603782 47.4211 52.2013 1.2 0.0 1.0341287793378067e-101 0.0 1.0
268 1 2.52796 46.8202 49.3234 1.2 0.0 1.6928054754686483e-215 0.0 1.0
269 2 2.18302 49.3909 51.1412 2.4 6.963933798602925e-212 0.0 0.0 1.0
270 3 2.30218 51.0053 51.1606 -1.2 0.0 0.0 0.0 1.0
271 3 1.88368 48.2857 57.7738 -1.2 0.0006214998236960373 4.914214699299016e-13 9.106986463573179e-51 0.9993785001758172
272 3 0.788833 48.8499 50.662 -1.2 0.0 0.0 0.0 1.0
273 1 -2.32194 47.4265 51.9782 1.2 0.0 1.121578198689061e-123 0.0 1.0
274 3 3.35392 48.8197 50.3464 -1.2 0.0 0.0 0.0 1.0
275 1 -0.984552 47.4067 55.0128 1.2 4.3353252648698545e-78 1.666823836343756e-11 6.56800416819349e-256 0.9999999999833046
276 2 -0.95841 45.3723 53.0327 2.4 5.123874733606368e-117 0.0 0.0 1.0
277 3 -1.04112 43.7801 52.9505 -1.2 3.426394373341257e-256 0.0 0.0 1.0
278 3 -0.566099 46.6481 46.3192 -1.2 0.0 0.0 0.0 1.0
279 3 -2.23443 46.0291 53.7322 -1.2 8.081706255502893e-188 0.0 0.0 1.0
280 3 0.33495 45.9662 53.7612 -1.2 7.707549755574435e-179 0.0 0.0 1.0
281 1 -2.39468 54.4467 57.4986 1.2 1.148171367725459e-07 0.9342459088630672 1.2357216503904419e-53 0.06575397631979618
282 1 -0.828546 54.3154 49.8772 1.2 0.0 1.356304018560701e-217 0.0 1.0
283 2 -0.38848 52.0122 47.8165 2.4 1.5738060225230213e-253 0.0 0.0 1.0
284 3 -0.219271 53.5954 47.8149 -1.2 0.0 0.0 0.0 1.0
285 3 -0.88055 50.7581 51.6725 -1.2 0.0 0.0 0.0 1.0
286 3 -1.47104 51.4874 48.7718 -1.2 0.0 0.0 0.0 1.0
287 1 0.692546 49.9564 46.9136 1.2 0.0 2.911509943506025e-285 0.0 1.0
288 3 1.10378 51.4236 48.2373 -1.2 0.0 0.0 0.0 1.0
289 1 2.26729 49.7442 54.4393 1.2 8.338989505463247e-148 3.2009743818878624e-39 0.0 1.0
290 2 2.13185 52.399 56.3946 2.4 0.9999999219885923 2.3826345666863415e-63 2.3400494834611954e-100 7.80114083308456e-08
291 3 2.07413 50.8151 56.4143 -1.2 3.008817201938892e-19 1.0391658533463725e-44 2.105620348898333e-96 1.0000000000000004
292 3 2.23741 53.507 52.57 -1.2 8.480833470965903e-280 0.0 0.0 1.0
293 3 0.910028 53.0152 55.6313 -1.2 2.575645980981814e-58 4.501119728927855e-133 1.6108076687904012e-214 0.9999999999999866
294 3 3.38147 53.153 55.6731 -1.2 5.651226729469351e-41 3.6600752601746216e-88 8.454483221497367e-158 0.9999999999999908
295 1 0.74178 52.1415 52.1554 1.2 0.0 1.2967335449879463e-105 0.0 1.0
296 1 2.57502 51.9598 49.3292 1.2 0.0 2.4084124706646363e-223 0.0 1.0
297 2 2.11106 54.1987 51.0984 2.4 5.297136066013685e-228 0.0 0.0 1.0
298 3 2.29546 55.7305 51.2643 -1.2 0.0 0.0 0.0 1.0
299 3 2.09775 53.0635 57.8391 -1.2 0.6845719886837746 1.656631250135631e-08 1.3720421257114285e-42 0.31542799474991884
300 3 0.820783 53.4849 50.6096 -1.2 0.0 0.0 0.0 1.0
301 1 -2.28486 52.1308 52.1536 1.2 0.0 4.830596505413647e-123 0.0 1.0
302 3 3.32878 53.5773 50.2887 -1.2 0.0 0.0 0.0 1.0
303 1 -0.930975 52.1512 55.0229 1.2 3.4105408941600824e-80 2.016590470030904e-15 1.5885595344406637e-264 0.9999999999999917
304 2 -0.803887 50.1197 53.14 2.4 3.375690125902689e-115 0.0 0.0 1.0
305 3 -0.894993 48.4683 53.0514 -1.2 1.774629087310246e-236 0.0 0.0 1.0
306 3 -0.498407 51.4454 46.3582 -1.2 0.0 0.0 0.0 1.0
307 3 -2.1041 50.7995 53.864 -1.2 9.056264109513079e-173 0.0 0.0 1.0
308 3 0.50984 50.7057 53.7132 -1.2 1.407154315104671e-164 0.0 0.0 1.0
309 1 -2.26413 59.3236 57.3297 1.2 2.486704565325119e-08 0.997584082517255 9.29095297382881e-59 0.0024158926156979993
310 1 -0.656399 59.1094 50.0514 1.2 0.0 4.667250596184071e-230 0.0 1.0
311 2 -0.250479 56.582 48.0535 2.4 1.8258437853917285e-275 0.0 0.0 1.0
312 3 -0.16803 58.2429 48.1909 -1.2 0.0 0.0 0.0 1.0
313 3 -0.733316 55.4479 51.8317 -1.2 0.0 0.0 0.0 1.0
314 3 -1.3618 56.0295 49.0377 -1.2 0.0 0.0 0.0 1.0
315 1 1.04315 54.695 46.8926 1.2 0.0 5.876673021475927e-299 0.0 1.0
316 3 1.28349 55.9689 48.4485 -1.2 0.0 0.0 0.0 1.0
317 1 2.33131 54.3786 54.4582 1.2 3.5235480389213615e-159 1.898592636713977e-47 0.0 1.0
318 2 2.34577 57.129 56.2626 2.4 5.305149346188838e-05 3.015079774950276e-88 8.685090006122769e-130 0.9999469485065411
319 3 2.21959 55.6356 56.4449 -1.2 7.644631407539365e-21 2.4694368058184585e-49 2.697153600828176e-103 1.0000000000000022
320 3 2.36318 58.1307 52.8954 -1.2 7.169113227771343e-275 0.0 0.0 1.0
321 3 1.01847 57.8315 55.6174 -1.2 5.921840141145103e-55 1.5114177628979204e-128 3.831813647125112e-211 0.9999999999999865
322 3 3.60221 57.9357 55.687 -1.2 5.4716647877834946e-42 6.454761783620544e-98 2.231511496382273e-164 0.9999999999999916
323 1 0.849491 56.8271 52.3734 1.2 0.0 2.5205079279902615e-122 0.0 1.0
324 1 2.89605 56.7099 49.4877 1.2 0.0 1.051445575974984e-251 0.0 1.0
325 2 2.21887 58.8735 51.4966 2.4 2.2556757824847879e-206 0.0 0.0 1.0
326 3 2.38669 60.432 51.4383 -1.2 0.0 0.0 0.0 1.0
327 3 2.27197 57.8959 57.7554 -1.2 0.9647083433705909 2.3181280152620518e-08 3.8967415094787686e-45 0.035291633448127295
328 3 0.98946 58.3003 50.8441 -1.2 0.0 0.0 0.0 1.0
329 1 -2.06303 56.8657 52.2655 1.2 0.0 1.0308266753932754e-138 0.0 1.0
330 3 3.49901 58.2478 50.692 -1.2 0.0 0.0 0.0 1.0
331 1 -0.651627 56.9083 55.1552 1.2 2.1598646141121467e-72 1.5105605159611512e-14 2.8532772226030556e-242 0.9999999999999929
332 2 -0.752537 54.7733 53.2587 2.4 7.554437247064875e-109 0.0 0.0 1.0
333 3 -0.852847 53.2517 53.2213 -1.2 3.79295472690293e-214 0.0 0.0 1.0
334 3 -0.268008 56.2311 46.5219 -1.2 0.0 0.0 0.0 1.0
335 3 -1.9846 55.5093 54.0043 -1.2 6.496932469668044e-162 0.0 0.0 1.0
336 3 0.562844 55.4153 54.0005 -1.2 6.900580553717905e-143 0.0 0.0 1.0000000000000009
337 1 -2.02036 64.0305 57.2264 1.2 3.1174731545935196e-11 0.9972719275767483 6.787237161878896e-69 0.0027280723920746117
338 1 -0.564956 64.0246 49.8783 1.2 0.0 6.287020488328429e-243 0.0 1.0
339 2 -0.213023 61.6061 47.9902 2.4 5.4614657851991946e-300 0.0 0.0 1.0
340 3 -0.154407 63.1028 48.0749 -1.2 0.0 0.0 0.0 1.0
341 3 -0.589509 60.1871 51.8067 -1.2 0.0 0.0 0.0 1.0
342 3 -1.22768 60.7776 48.9393 -1.2 0.0 0.0 0.0 1.0
343 1 0.663265 59.4865 46.9869 1.2 0.0 2.17e-322 0.0 1.0
344 3 1.40159 61.0368 48.3021 -1.2 0.0 0.0 0.0 1.0
345 1 2.27707 59.3625 54.6324 1.2 1.0182749869304927e-152 1.1120422764418158e-46 0.0 1.0
346 2 2.31494 61.9844 56.2156 2.4 0.11072298747199064 3.0056596281521714e-86 7.244645601731036e-130 0.8892770125279964
347 3 2.244 60.4588 56.3987 -1.2 5.712158818312562e-23 1.522911125446086e-58 2.982197285773273e-119 1.0000000000000007
348 3 2.53316 62.9958 52.7075 -1.2 0.0 0.0 0.0 1.0
349 3 1.03059 62.6655 55.6226 -1.2 1.915403198350045e-63 9.98551311047536e-149 1.4607318584527823e-236 1.0000000000000036
350 3 3.62234 62.6953 55.5634 -1.2 8.027318669218541e-58 1.3362045569802688e-135 9.09990579985384e-220 1.0000000000000084
351 1 0.913757 61.6723 52.2992 1.2 0.0 1.3136393561024393e-125 0.0 1.0
352 1 2.90444 61.2122 49.5412 1.2 0.0 1.542876108506172e-257 0.0 1.0
353 2 2.40632 63.6464 51.2488 2.4 1.1120907585404131e-239 0.0 0.0 1.0
354 3 2.4946 65.2622 51.2761 -1.2 0.0 0.0 0.0 1.0
355 3 2.43495 62.6596 57.7212 -1.2 0.9002431457941147 6.289931352194284e-10 2.065929138600535e-46 0.09975685357689197
356 3 1.07478 63.0541 50.6645 -1.2 0.0 0.0 0.0 1.0
357 1 -2.07052 61.6273 52.3206 1.2 0.0 4.121310060488517e-143 0.0 1.0
358 3 3.66498 63.0114 50.5022 -1.2 0.0 0.0 0.0 1.0
359 1 -0.609317 61.6511 55.1469 1.2 3.20730067063916e-97 4.06710940704793e-24 6.739973136044446e-307 1.0
360 2 -0.679819 59.542 53.3259 2.4 1.7739454022775607e-106 0.0 0.0 1.0
361 3 -0.587042 58.037 53.2219 -1.2 1.2812534405984488e-223 0.0 0.0 1.0
362 3 -0.399715 60.9708 46.4876 -1.2 0.0 0.0 0.0 1.0
363 3 -1.9607 60.3032 53.9179 -1.2 4.4256185150629856e-173 0.0 0.0 1.0
364 3 0.618699 60.2677 53.9489 -1.2 6.054478300297373e-160 0.0 0.0 1.0
365 1 -1.91317 68.6473 57.4023 1.2 7.606696154308573e-11 0.8134935603184694 2.6437555180389416e-66 0.186506439605462
366 1 -0.567978 68.7149 49.9157 1.2 0.0 1.745863413550018e-223 0.0 1.0
367 2 -0.199378 66.2083 47.9954 2.4 9.132668947146378e-285 0.0 0.0 1.0
368 3 -0.0991879 67.7904 48.0622 -1.2 0.0 0.0 0.0 1.0
369 3 -0.53023 65.0743 51.6592 -1.2 0.0 0.0 0.0 1.0
370 3 -1.46477 65.6649 48.6934 -1.2 0.0 0.0 0.0 1.0
371 1 1.06489 64.2077 47.0755 1.2 0.0 3.0579744e-316 0.0 1.0
372 3 1.12304 65.5874 48.5936 -1.2 0.0 0.0 0.0 1.0
373 1 2.49605 64.2959 54.4598 1.2 1.2322262664786207e-180 1.296037690777539e-53 0.0 1.0
374 2 2.38356 66.8016 56.4427 2.4 0.9934473604690348 1.3061434834809851e-74 1.4987049728496788e-115 0.00655263953096776
375 3 2.45757 65.2148 56.4268 -1.2 7.886768495999785e-26 4.955808495948599e-65 1.4935381886784017e-126 1.0000000000000024
376 3 2.44811 67.7499 52.7406 -1.2 1.874879275520108e-308 0.0 0.0 1.0
377 3 1.16728 67.4713 55.7403 -1.2 1.3953909491692505e-62 2.268136476542655e-142 9.936819674008737e-224 1.0000000000000273
378 3 3.8328 67.3791 55.8764 -1.2 5.406143946746889e-42 2.7281762864311674e-96 7.90101584310297e-164 1.0000000000000038
379 1 0.87259 66.4339 52.0882 1.2 0.0 8.554984595585638e-140 0.0 1.0
380 1 2.78912 66.1061 49.4907 1.2 0.0 4.0948776766830014e-251 0.0 1.0
381 2 2.36594 68.4293 51.2117 2.4 5.0646873985484855e-225 0.0 0.0 1.0
382 3 2.60814 69.9793 51.3349 -1.2 0.0 0.0 0.0 1.0