ITEM: TIMESTEP
4000
ITEM: NUMBER OF ATOMS
10500
ITEM: BOX BOUNDS xy xz yz pp pp pp
0	8.9688	2.9896
0	118.725	0
0	252.977	0
ITEM: ATOMS id type xu yu zu q pCrystal pDisloC pDisloB pDisloA
1 1 -3.495 7.06863 57.1999 1.2 2.9807766152246675e-10 0.09433686083697147 3.426162413635994e-55 0.905663138864954
2 1 -1.86805 7.08033 49.5581 1.2 0.0 3.156075547681442e-165 0.0 1.0
3 2 -0.488578 4.10218 47.3834 2.4 9.42384278836141e-205 0.0 0.0 1.0
4 3 -0.686627 5.62646 47.1137 -1.2 0.0 0.0 0.0 1.0
5 3 -2.18079 3.57273 51.1245 -1.2 4.843e-320 0.0 0.0 1.0
6 3 -1.75486 3.55866 48.1942 -1.2 0.0 0.0 0.0 1.0
7 1 1.46443 2.37902 46.1991 1.2 0.0 3.612084716529245e-201 0.0 1.0
8 3 0.899278 3.61499 48.098 -1.2 0.0 0.0 0.0 1.0
9 1 0.958551 2.39061 53.9597 1.2 2.2780177507333614e-119 3.3774175734862606e-34 0.0 1.0
10 2 0.864608 5.19267 55.9709 2.4 0.9021108656894442 2.4572589571225287e-56 4.104865031847843e-89 0.09788913431055614
11 3 0.841154 3.58723 56.0117 -1.2 2.759862197678894e-19 6.434766774256927e-51 4.5154311749182844e-92 0.9999999999999984
12 3 1.13736 6.29882 52.1466 -1.2 2.535946416717808e-228 0.0 0.0 0.9999999999999866
13 3 -0.399615 5.80365 55.294 -1.2 1.3225658634038196e-32 1.7043657360745505e-87 3.3358244228480154e-149 0.9999999999999879
14 3 2.1847 5.8418 55.1529 -1.2 3.2588614766148904e-34 6.788281279213885e-89 1.7919699760254925e-151 0.9999999999999999
15 1 -0.592976 4.73509 51.5034 1.2 0.0 4.5554689186721276e-110 0.0 1.0
16 1 2.6594 4.1987 49.2776 1.2 0.0 2.40732190406354e-153 0.0 1.0
17 2 1.08601 6.79147 50.5582 2.4 3.152987231473022e-162 0.0 0.0 1.0
18 3 1.39964 8.38405 50.6215 -1.2 0.0 0.0 0.0 1.0
19 3 0.988876 5.80043 57.4862 -1.2 0.00037294942544149797 1.0141444845803208e-13 1.7276201529408423e-44 0.9996270505744569
20 3 -0.215057 6.19342 50.0977 -1.2 0.0 0.0 0.0 1.0
21 1 -3.68121 4.67878 51.9224 1.2 7.455e-321 5.7041911772265425e-86 0.0 1.0
22 3 2.4287 6.11876 49.9963 -1.2 0.0 0.0 0.0 1.0
23 1 -2.14215 4.8358 54.6453 1.2 4.11606466082957e-67 1.1659647900834536e-14 1.843251410535994e-235 0.999999999999981
24 2 -1.97395 2.79158 52.6526 2.4 3.9869114262196786e-91 0.0 0.0 1.0
25 3 -1.95076 1.26227 52.4477 -1.2 3.1454000649490184e-204 0.0 0.0 1.0000000000001035
26 3 -0.211184 3.25432 45.9886 -1.2 0.0 0.0 0.0 1.0
27 3 -3.21502 3.51335 53.5043 -1.2 8.08915170476962e-120 1.057e-320 0.0 1.0000000000000306
28 3 -0.69361 3.41408 53.2568 -1.2 6.144837366989961e-132 0.0 0.0 1.000000000000052
29 1 -3.25041 11.9359 57.1163 1.2 2.1864853720248906e-14 0.001666467852597492 1.9422111335900084e-68 0.998333532147383
30 1 -1.44531 11.9405 49.5109 1.2 0.0 3.2617616761937315e-190 0.0 1.0
31 2 -1.20671 9.24774 47.3299 2.4 4.790765696562076e-146 0.0 0.0 1.0
32 3 -1.01287 10.7938 47.4025 -1.2 0.0 0.0 0.0 1.0
33 3 -1.7194 8.20467 51.378 -1.2 6.867486732241581e-293 0.0 0.0 1.0000000000001497
34 3 -2.27462 8.4282 48.1887 -1.2 0.0 0.0 0.0 1.0
35 1 -0.351411 7.18232 46.1284 1.2 0.0 1.865870105775696e-251 0.0 1.0
36 3 0.279036 8.64518 47.6962 -1.2 0.0 0.0 0.0 1.0
37 1 1.16206 7.20383 54.0817 1.2 7.270605391382474e-118 1.9557880446299307e-30 0.0 1.0
38 2 1.18132 9.85236 56.1634 2.4 0.9797955332797786 2.2743794983220775e-63 8.178316633981318e-98 0.02020446672022438
39 3 1.14341 8.30377 56.1919 -1.2 1.5803819249736304e-16 1.3487910812161695e-43 7.283088591172966e-89 0.9999999999999989
40 3 1.50644 10.8719 52.2131 -1.2 1.1313226508818857e-228 0.0 0.0 1.0000000000000075
41 3 -0.117244 10.5244 55.4382 -1.2 2.818394896044436e-39 2.1152289854960662e-100 1.5012914542642137e-170 0.9999999999999933
42 3 2.4892 10.4931 55.5175 -1.2 2.81941899511898e-32 6.239712940710035e-87 2.6068694588547664e-150 0.9999999999999895
43 1 -0.208342 9.51731 51.6065 1.2 0.0 4.5638208748869804e-101 0.0 1.0
44 1 1.82703 9.30734 48.6875 1.2 0.0 8.474240797479011e-204 0.0 1.0
45 2 1.39966 11.6108 50.7509 2.4 7.005241892877371e-171 0.0 0.0 1.0
46 3 1.52328 13.1472 50.9386 -1.2 0.0 0.0 0.0 0.9999999999998046
47 3 1.1908 10.4453 57.6541 -1.2 8.850416959065871e-05 9.935172263482294e-15 1.7449168999687168e-48 0.9999114958304038
48 3 0.0874405 10.9837 50.2684 -1.2 0.0 0.0 0.0 1.0000000000001612
49 1 -3.34651 9.2898 51.9597 1.2 0.0 6.431851537746358e-110 0.0 1.0
50 3 2.56486 10.9995 49.722 -1.2 0.0 0.0 0.0 1.0
51 1 -1.93132 9.54384 54.7388 1.2 2.5472466624503312e-70 5.560694478262951e-16 8.249895157442761e-246 1.0000000000000049
52 2 -1.84829 7.41999 52.8742 2.4 2.0245789758683998e-73 0.0 0.0 1.0
53 3 -1.91621 5.8881 52.6959 -1.2 5.175401868921101e-179 0.0 0.0 0.9999999999999012
54 3 -1.3725 8.75604 45.852 -1.2 0.0 0.0 0.0 1.0
55 3 -3.04843 8.19322 53.5387 -1.2 4.892324368684797e-133 0.0 0.0 0.9999999999999708
56 3 -0.526344 8.06777 53.4685 -1.2 5.866100112556424e-126 0.0 0.0 1.0000000000000313
57 1 -3.17668 16.5042 57.0872 1.2 6.874278897528478e-14 0.00240797434690216 2.0131281259524716e-67 0.9975920256530317
58 1 -1.33476 16.6117 49.4197 1.2 0.0 1.0457813537819435e-189 0.0 1.0
59 2 -0.643536 14.2505 47.4964 2.4 9.744470391717188e-187 0.0 0.0 1.0
60 3 -0.758232 15.8212 47.574 -1.2 0.0 0.0 0.0 1.0
61 3 -1.51738 12.8705 51.3294 -1.2 0.0 0.0 0.0 1.0000000000001459
62 3 -1.86652 13.5298 48.3259 -1.2 0.0 0.0 0.0 1.0
63 1 -0.320183 11.985 46.0816 1.2 0.0 5.367287572202934e-296 0.0 1.0
64 3 0.681487 13.6014 48.0056 -1.2 0.0 0.0 0.0 1.0
65 1 1.36637 12.0753 54.1959 1.2 9.233945372617851e-125 3.354286840511202e-32 0.0 1.0
66 2 1.28587 14.5934 56.0305 2.4 0.7423711250919011 1.2810046208393141e-65 5.684462290429631e-99 0.2576288749081042
67 3 1.2907 13.0231 56.1568 -1.2 1.3734863944364345e-18 8.651548941732867e-46 2.724197609056584e-97 1.0000000000000027
68 3 1.48421 15.7236 52.2082 -1.2 2.1869942286702632e-249 0.0 0.0 1.0000000000000002
69 3 -0.0151438 15.1644 55.5431 -1.2 5.019887449616541e-33 1.7174187623352972e-81 1.0486803885806755e-148 0.999999999999996
70 3 2.46334 15.1847 55.2223 -1.2 2.5570433478897527e-37 1.4515011486569104e-93 2.7233781150905076e-165 0.9999999999999891
71 1 -0.100095 14.2896 51.5559 1.2 0.0 1.510860335032621e-114 0.0 1.0
72 1 2.27567 14.0183 48.9516 1.2 0.0 1.0711966340436515e-214 0.0 1.0
73 2 1.5415 16.3801 50.6835 2.4 6.075082092800868e-169 0.0 0.0 1.0
74 3 1.69796 17.9022 50.7891 -1.2 0.0 0.0 0.0 1.0000000000000007
75 3 1.33846 15.2583 57.549 -1.2 1.7062363360225223e-05 8.24405882505896e-17 8.521523747737378e-50 0.9999829376366398
76 3 0.315903 15.6968 50.018 -1.2 0.0 0.0 0.0 0.9999999999999704
77 1 -3.08009 14.291 51.983 1.2 0.0 1.0057708002123038e-119 0.0 1.0
78 3 2.80387 15.7284 49.951 -1.2 0.0 0.0 0.0 0.999999999999855
79 1 -1.74176 14.2522 54.8409 1.2 1.2682449907931479e-64 1.5506059137461695e-11 4.490637714785021e-235 0.9999999999844815
80 2 -1.48072 12.1815 52.8903 2.4 1.8670790687098569e-69 0.0 0.0 1.0
81 3 -1.54393 10.6659 52.8442 -1.2 9.14022797588326e-184 0.0 0.0 1.00000000000006
82 3 -0.742739 13.9545 45.8005 -1.2 0.0 0.0 0.0 1.0
83 3 -2.83245 12.8 53.5668 -1.2 1.1016428052666713e-138 0.0 0.0 1.000000000000038
84 3 -0.325176 12.8893 53.6819 -1.2 2.7073694423588627e-114 2.3758343604070838e-291 0.0 1.0000000000000289
85 1 -2.96314 21.1639 57.104 1.2 7.780622720635346e-11 0.007994948384229102 1.0671070445638075e-64 0.9920050515379627
86 1 -1.4774 20.976 49.4109 1.2 0.0 3.933669308364094e-194 0.0 1.0
87 2 -0.632896 18.9481 47.076 2.4 2.0695893735795054e-213 0.0 0.0 1.0
88 3 -0.190111 20.5306 46.9513 -1.2 0.0 0.0 0.0 1.0
89 3 -1.33478 17.5837 51.303 -1.2 0.0 0.0 0.0 1.0000000000002127
90 3 -1.87149 18.8009 48.106 -1.2 0.0 0.0 0.0 1.0
91 1 0.317611 16.6565 46.0098 1.2 0.0 4.420517838779843e-309 0.0 1.0
92 3 0.700029 18.2349 47.7984 -1.2 0.0 0.0 0.0 1.0
93 1 1.63111 16.6786 54.2106 1.2 1.000591232298601e-113 5.554339762226737e-30 0.0 1.0
94 2 1.47915 19.2625 56.1541 2.4 0.9118017723491514 1.0219132650937789e-66 4.996684321859386e-100 0.08819822765084777
95 3 1.47465 17.6961 56.1895 -1.2 9.670286827222851e-16 4.0319981265378804e-43 1.4910494001774226e-90 1.0
96 3 1.7363 20.388 52.3449 -1.2 4.45474665534793e-246 0.0 0.0 1.0
97 3 0.110688 19.9229 55.5243 -1.2 3.7076662964138468e-37 1.0936836283172433e-97 9.428334765030685e-166 0.9999999999999942
98 3 2.67986 19.9577 55.2582 -1.2 1.1403569130241073e-42 8.221420198741761e-107 3.897521319152734e-181 0.9999999999999903
99 1 0.057722 18.9263 51.8757 1.2 0.0 2.7357319379627403e-102 0.0 1.0
100 1 2.19453 18.9171 48.7141 1.2 0.0 5.1323483128399095e-228 0.0 1.0
101 2 1.60656 21.0793 50.8754 2.4 3.544314191857623e-192 0.0 0.0 1.0
102 3 1.66463 22.6712 50.9741 -1.2 0.0 0.0 0.0 1.0000000000001874
103 3 1.44726 19.9024 57.7009 -1.2 0.0004733059319564887 3.326462742779181e-17 1.6658220398665996e-48 0.9995266940680434
104 3 0.23873 20.5555 50.3029 -1.2 0.0 0.0 0.0 1.000000000000101
105 1 -2.98899 18.9375 52.0559 1.2 0.0 3.478701914569339e-121 0.0 1.0
106 3 2.78403 20.3552 50.0998 -1.2 0.0 0.0 0.0 1.0000000000000042
107 1 -1.57748 18.8177 54.7435 1.2 1.888881158886564e-75 2.9662264708189086e-19 5.154307910460773e-263 0.9999999999999881
108 2 -1.36333 16.8631 52.8172 2.4 1.6415955936871217e-77 0.0 0.0 1.0
109 3 -1.61627 15.3328 52.6099 -1.2 2.137080551297673e-212 0.0 0.0 1.000000000000006
110 3 -0.781627 18.217 45.7148 -1.2 0.0 0.0 0.0 1.0
111 3 -2.64248 17.5307 53.5731 -1.2 2.2819119029761457e-133 0.0 0.0 0.9999999999999967
112 3 -0.13227 17.5225 53.6192 -1.2 1.1247846779682504e-121 2.15976835e-315 0.0 1.0000000000000457
113 1 -2.98405 26.0408 57.38 1.2 1.6261676472681203e-09 0.08881159926709681 5.952305726022432e-59 0.9111883991067363
114 1 -1.38524 26.18 49.862 1.2 0.0 1.0894106998904541e-205 0.0 1.0
115 2 -0.947969 23.7077 47.9053 2.4 1.5165725846243777e-276 0.0 0.0 1.0
116 3 -1.40813 25.1365 48.0222 -1.2 0.0 0.0 0.0 1.0
117 3 -1.44082 22.3642 51.5575 -1.2 2.5332382423e-314 0.0 0.0 0.9999999999999742
118 3 -1.89339 22.6913 48.5854 -1.2 0.0 0.0 0.0 1.0
119 1 0.498515 22.2373 46.3479 1.2 0.0 7.474443972915923e-278 0.0 1.0
120 3 0.605871 23.4583 47.9714 -1.2 0.0 0.0 0.0 1.0
121 1 1.57356 21.5181 54.1249 1.2 1.3171758745364638e-137 1.4374098156618848e-43 0.0 1.0
122 2 1.61059 24.0545 56.409 2.4 0.9998761174786837 1.0523252637681974e-54 5.991753473287572e-83 0.00012388252131614603
123 3 1.55338 22.4628 56.3378 -1.2 5.783459317390593e-14 8.895755701459598e-41 2.6162796897599768e-86 0.9999999999999424
124 3 1.58938 25.1979 52.467 -1.2 1.8563340404488907e-242 0.0 0.0 1.0000000000000262
125 3 0.281016 24.6366 55.6702 -1.2 3.9678654408262116e-46 4.4288627534734293e-110 1.0573575775673175e-172 1.0000000000000042
126 3 2.80096 24.7906 55.5978 -1.2 4.5721803375670686e-32 1.3430379400068542e-82 1.533367643215346e-139 0.9999999999999958
127 1 0.0508087 23.6555 51.8859 1.2 0.0 1.823356355888305e-117 0.0 1.0
128 1 2.24292 23.7284 49.1171 1.2 0.0 8.111716207529242e-227 0.0 1.0
129 2 1.56736 25.8253 50.924 2.4 3.292222988765706e-200 0.0 0.0 1.0
130 3 1.61917 27.324 50.9159 -1.2 0.0 0.0 0.0 1.000000000000001
131 3 1.56744 24.737 57.8111 -1.2 0.0013305650473188692 5.871397728743019e-16 9.734191509803281e-46 0.9986694349526835
132 3 0.309438 25.0948 50.3587 -1.2 0.0 0.0 0.0 0.9999999999999559
133 1 -2.98585 23.7754 52.1756 1.2 0.0 2.9669673986520774e-127 0.0 1.0
134 3 2.87485 25.2009 50.3028 -1.2 0.0 0.0 0.0 1.0
135 1 -1.50863 23.8391 55.0005 1.2 2.323571102877251e-58 1.55995634518299e-17 1.7067090759214588e-198 1.0000000000000087
136 2 -1.3844 21.6377 53.0533 2.4 1.273113741928833e-80 0.0 0.0 1.0
137 3 -1.37369 20.0413 52.8579 -1.2 5.564707362207535e-204 0.0 0.0 1.0
138 3 -1.06935 23.5209 46.0869 -1.2 0.0 0.0 0.0 1.0
139 3 -2.68519 22.373 53.7464 -1.2 2.7095478728306315e-142 0.0 0.0 0.9999999999999819
140 3 -0.0852878 22.279 53.6264 -1.2 1.133316880517705e-137 0.0 0.0 1.0000000000000016
141 1 -2.71606 30.734 57.3332 1.2 9.471696452786425e-10 0.13295871215290736 1.0009193854916802e-56 0.8670412868999242
142 1 -1.30267 30.3299 49.5443 1.2 0.0 3.355631216585151e-206 0.0 1.0
143 2 -1.14208 27.9379 47.4721 2.4 2.982566439865365e-269 0.0 0.0 1.0
144 3 -0.533323 29.4705 47.1803 -1.2 0.0 0.0 0.0 1.0
145 3 -1.18142 27.2353 51.5923 -1.2 0.0 0.0 0.0 1.0000000000000715
146 3 -2.55526 28.1641 48.2161 -1.2 0.0 0.0 0.0 1.0
147 1 -1.73901 25.419 46.1155 1.2 0.0 1.2700956158029096e-272 0.0 1.0
148 3 0.00237832 27.3804 48.5638 -1.2 0.0 0.0 0.0 1.0
149 1 1.669 26.0458 54.299 1.2 1.1400385743021827e-124 2.9305827266948383e-41 0.0 1.0
150 2 1.69637 28.7253 56.27 2.4 0.012413744461406435 1.8189807186821963e-68 5.372607569512647e-102 0.9875862555385935
151 3 1.72265 27.1875 56.3554 -1.2 8.545665035605551e-20 2.2974446441789536e-50 1.0428230139793803e-97 1.0
152 3 1.69001 29.8441 52.465 -1.2 3.9593623633284296e-256 0.0 0.0 1.000000000000023
153 3 0.353414 29.333 55.709 -1.2 1.2442615999742564e-34 1.5941459939270807e-79 6.486551445662415e-131 0.9999999999999952
154 3 2.98405 29.3882 55.4862 -1.2 2.604202270966802e-46 7.747242820408418e-108 3.448338382097058e-176 0.9999999999999907
155 1 0.285742 28.4515 52.2348 1.2 0.0 1.0119463728854455e-128 0.0 1.0
156 1 1.59531 28.3696 49 1.2 0.0 1.2349772700745694e-220 0.0 1.0
157 2 1.77033 30.4628 50.8288 2.4 2.0933840660355354e-214 0.0 0.0 1.0
158 3 1.78106 32.0186 50.9262 -1.2 0.0 0.0 0.0 1.0
159 3 1.78879 29.4181 57.7136 -1.2 9.161163887952735e-05 7.641047329975206e-18 1.5021734147341006e-51 0.9999083883611156
160 3 0.62514 29.8314 50.0689 -1.2 0.0 0.0 0.0 1.0
161 1 -2.76652 28.6196 52.0491 1.2 0.0 4.016109937193506e-128 0.0 1.0
162 3 3.14063 29.8722 50.4444 -1.2 0.0 0.0 0.0 1.0
163 1 -1.31517 28.3755 55.0207 1.2 2.142299093160816e-74 6.368457782832543e-26 1.436149285642872e-237 1.0
164 2 -1.34605 26.4555 52.9773 2.4 6.762302685370483e-84 0.0 0.0 1.0
165 3 -1.47516 24.794 52.915 -1.2 4.993375240906174e-195 0.0 0.0 1.000000000000018
166 3 -1.21698 27.1472 46.1421 -1.2 0.0 0.0 0.0 1.0
167 3 -2.57176 27.1887 53.7157 -1.2 3.1605122405239547e-142 0.0 0.0 0.9999999999999669
168 3 -0.0717888 26.9711 53.8059 -1.2 6.225626721201808e-117 7.994399534714116e-289 0.0 0.9999999999999998
169 1 -2.67792 35.6191 57.2439 1.2 1.4793821446578864e-11 0.1434836594674098 4.826772640289167e-64 0.8565163405177981
170 1 -0.952918 35.7366 49.2805 1.2 0.0 1.8980698513105642e-195 0.0 1.0
171 2 -0.693009 32.8362 47.7972 2.4 1.3072855754637325e-241 0.0 0.0 1.0
172 3 -1.33599 34.2444 47.7764 -1.2 0.0 0.0 0.0 1.0
173 3 -1.25127 31.8145 51.6805 -1.2 0.0 0.0 0.0 1.0000000000001006
174 3 -1.69196 31.9366 48.5979 -1.2 0.0 0.0 0.0 1.0
175 1 0.342379 30.9625 46.3686 1.2 0.0 1.866630328193157e-286 0.0 1.0
176 3 0.92121 32.4437 48.0495 -1.2 0.0 0.0 0.0 1.0
177 1 1.86017 30.876 54.2924 1.2 1.579549947601409e-126 2.6238892875533615e-39 0.0 1.0
178 2 1.7394 33.5484 56.1445 2.4 5.169258757504836e-06 2.7891431157954406e-83 1.4830400569465438e-120 0.9999948307412463
179 3 1.74779 32.0141 56.2994 -1.2 7.271981818332142e-19 5.233924603885517e-47 4.8879534579629125e-95 0.9999999999999992
180 3 1.83689 34.5984 52.2653 -1.2 2.7899670965104612e-276 0.0 0.0 0.9999999999999578
181 3 0.500141 34.3114 55.5414 -1.2 6.223941622875272e-57 6.932043175736164e-130 3.165277998012402e-204 0.9999999999999984
182 3 3.12352 34.2472 55.5345 -1.2 3.1288216062138675e-41 4.936835253388313e-96 6.370800127560582e-158 0.9999999999999991
183 1 0.149556 33.2166 51.5233 1.2 0.0 2.4535672644982463e-129 0.0 1.0
184 1 2.56011 32.9615 48.9492 1.2 0.0 4.305657090759563e-214 0.0 1.0
185 2 1.87277 35.2885 50.8258 2.4 6.774592015110808e-206 0.0 0.0 1.0
186 3 2.15939 36.8459 50.8286 -1.2 0.0 0.0 0.0 1.0
187 3 1.77334 34.2934 57.6177 -1.2 8.527286227890794e-07 2.8581813742160818e-21 7.181750789007204e-58 0.9999991472713757
188 3 0.586614 34.5296 50.1432 -1.2 0.0 0.0 0.0 1.0
189 1 -2.76836 33.1255 52.0097 1.2 0.0 3.719115838915503e-123 0.0 1.0
190 3 3.14881 34.5763 50.1103 -1.2 0.0 0.0 0.0 1.0
191 1 -1.28192 33.4064 54.8406 1.2 3.887699923734437e-78 8.654230672367077e-22 1.6063178967967569e-254 1.0000000000000122
192 2 -1.1302 31.1791 53.1056 2.4 5.778646787615058e-87 0.0 0.0 1.0
193 3 -1.06561 29.5751 53.1082 -1.2 1.9237252232769775e-173 0.0 0.0 1.000000000000037
194 3 -0.704243 32.5 46.0374 -1.2 0.0 0.0 0.0 1.0
195 3 -2.58237 31.9323 53.6256 -1.2 7.00106944790703e-167 0.0 0.0 0.9999999999999528
196 3 0.101022 31.826 53.863 -1.2 8.737586676306656e-136 1.576e-321 0.0 0.9999999999999818
197 1 -2.68831 40.5134 57.0938 1.2 6.84318219649316e-14 0.00977631924105708 4.4368706619370716e-71 0.9902236807588729
198 1 -0.953272 40.2239 49.4912 1.2 0.0 8.866982211798133e-193 0.0 1.0
199 2 -0.704157 37.2911 46.9727 2.4 2.344273764314099e-207 0.0 0.0 1.0
200 3 -0.326045 38.7736 46.3923 -1.2 0.0 0.0 0.0 1.0
201 3 -0.956822 36.5869 51.2677 -1.2 0.0 0.0 0.0 1.0000000000001383
202 3 -2.01081 37.4071 47.8855 -1.2 0.0 0.0 0.0 1.0
203 1 -1.45815 34.495 45.8624 1.2 0.0 8.37147186433468e-240 0.0 1.0
204 3 0.505985 36.7818 48.017 -1.2 0.0 0.0 0.0 1.0
205 1 2.00505 35.5463 54.2571 1.2 2.2506352004567236e-139 1.701806235558324e-41 0.0 1.0
206 2 1.81976 38.3595 56.1821 2.4 0.6335856642482891 7.910576646702507e-73 4.640825430998915e-113 0.36641433575170423
207 3 1.79826 36.7769 56.2349 -1.2 3.8113940601508516e-20 5.532268104739243e-55 9.305555729755555e-109 1.0000000000000033
208 3 1.95911 39.4283 52.0965 -1.2 2.3358737945827617e-268 0.0 0.0 1.0000000000000164
209 3 0.487353 38.9547 55.4916 -1.2 4.0480966347019616e-38 2.4304523686010983e-90 3.020292354122837e-154 0.9999999999999962
210 3 3.10706 39.023 55.4194 -1.2 1.1362161472275997e-37 1.0518844226684841e-91 1.6683010318512249e-158 0.9999999999999897
211 1 0.627101 37.8555 52.0012 1.2 0.0 4.263868221632339e-115 0.0 1.0
212 1 2.18684 37.556 48.6508 1.2 0.0 2.604919247070715e-208 0.0 1.0
213 2 1.93587 39.9717 50.5302 2.4 3.396742489711763e-189 0.0 0.0 1.0
214 3 1.91983 41.5614 50.6931 -1.2 0.0 0.0 0.0 1.0000000000000144
215 3 1.73445 39.0191 57.5901 -1.2 8.650732261401133e-07 7.994943457199807e-21 1.7138930506531926e-59 0.9999991349267721
216 3 0.831473 39.3096 49.6488 -1.2 0.0 0.0 0.0 1.0
217 1 -2.34682 38.186 51.4531 1.2 0.0 1.154811836642103e-139 0.0 1.0
218 3 3.33427 39.4743 50.0521 -1.2 0.0 0.0 0.0 1.0
219 1 -1.16411 38.0421 54.9064 1.2 6.86801076424934e-72 1.5011355628892305e-15 1.8669836309294012e-251 0.9999999999999992
220 2 -0.923622 35.9227 52.8042 2.4 4.529700722730843e-90 0.0 0.0 1.0
221 3 -1.02867 34.3956 52.7599 -1.2 9.496333951502237e-220 0.0 0.0 1.0000000000000449
222 3 -0.874088 36.2578 45.8308 -1.2 0.0 0.0 0.0 1.0
223 3 -2.26005 36.5913 53.5443 -1.2 8.60178710937502e-143 0.0 0.0 1.0000000000000207
224 3 0.324786 36.5728 53.4634 -1.2 7.80158233224327e-151 0.0 0.0 0.9999999999999625
225 1 -2.59108 45.243 56.9694 1.2 1.3707497239842742e-15 0.00017502559896019967 8.288812053737708e-68 0.9998249744010357
226 1 -0.985446 45.2303 49.3934 1.2 0.0 6.559728046105925e-191 0.0 1.0
227 2 -1.94479 42.5835 47.4914 2.4 1.4746721621754424e-193 0.0 0.0 1.0
228 3 -1.21527 44.0076 47.6038 -1.2 0.0 0.0 0.0 1.0
229 3 -0.830527 41.3918 51.2364 -1.2 0.0 0.0 0.0 1.0000000000001608
230 3 -3.46308 42.4113 47.875 -1.2 0.0 0.0 0.0 1.0
231 1 -0.428463 40.609 46.2973 1.2 0.0 2.2164090621395387e-267 0.0 1.0
232 3 -0.768746 41.5205 48.0161 -1.2 0.0 0.0 0.0 1.0
233 1 2.13514 40.5312 54.0069 1.2 6.547024400162447e-130 2.095366422882019e-40 0.0 1.0
234 2 1.78583 43.099 55.8555 2.4 9.96254411928885e-08 3.742021491602652e-83 4.884921916614852e-121 0.9999999003745522
235 3 1.79649 41.5268 55.9062 -1.2 3.926822115694969e-25 1.489569115851634e-63 6.700665790243991e-120 0.9999999999999976
236 3 1.99776 44.1736 52.2435 -1.2 6.600077066116608e-240 0.0 0.0 1.000000000000083
237 3 0.444816 43.767 55.2933 -1.2 8.484697114959305e-40 1.6007428559910564e-101 1.8628711119761997e-171 0.9999999999999993
238 3 2.89156 43.7568 55.0282 -1.2 1.146807801947072e-55 7.33533699993788e-139 1.7540397381627683e-216 1.0000000000000056
239 1 0.761495 42.7887 51.8275 1.2 0.0 2.963068963138816e-121 0.0 1.0
240 1 0.701975 42.7575 48.7323 1.2 0.0 1.5328627436080857e-205 0.0 1.0
241 2 2.15165 44.809 50.7622 2.4 3.0331104964208345e-175 0.0 0.0 1.0
242 3 2.22165 46.2969 50.7689 -1.2 0.0 0.0 0.0 0.9999999999998309
243 3 1.95829 43.7373 57.3714 -1.2 5.606234315235844e-07 8.385368691713486e-18 8.742462608289674e-52 0.9999994393765669
244 3 0.808533 44.184 49.9657 -1.2 0.0 0.0 0.0 1.0000000000001428
245 1 -2.32272 42.6729 51.6874 1.2 0.0 1.0127485083642873e-124 0.0 1.0
246 3 3.5008 44.2689 50.1766 -1.2 0.0 0.0 0.0 1.0000000000001552
247 1 -1.09718 42.7516 54.6408 1.2 1.238221167794611e-81 1.8301922019663275e-21 9.580466343751529e-278 1.0000000000000007
248 2 -0.788381 40.7688 52.7236 2.4 1.0843567975134542e-90 0.0 0.0 1.0
249 3 -1.00557 39.1953 52.5536 -1.2 4.088668612878093e-219 0.0 0.0 0.9999999999999135
250 3 -1.5849 42.3304 45.8114 -1.2 0.0 0.0 0.0 1.0
251 3 -2.12291 41.4152 53.3291 -1.2 4.835529372241067e-150 0.0 0.0 0.9999999999999456
252 3 0.426884 41.4173 53.4338 -1.2 7.218325155038656e-158 0.0 0.0 1.0000000000000047
253 1 -2.3139 49.8401 56.6058 1.2 5.705774573621954e-18 1.7448838115636896e-05 1.7022843655272745e-71 0.9999825511618842
254 1 -0.56013 49.4521 48.6975 1.2 0.0 1.3814117578103697e-236 0.0 1.0
255 2 -0.10842 47.0814 46.9764 2.4 2.696934486927398e-214 0.0 0.0 1.0
256 3 -0.242225 48.7343 46.8492 -1.2 0.0 0.0 0.0 1.0
257 3 -0.700042 46.2084 51.42 -1.2 1.126062579362016e-307 0.0 0.0 1.0000000000001885
258 3 -1.1954 46.8139 48.2158 -1.2 0.0 0.0 0.0 1.0
259 1 -1.2026 44.4561 45.7087 1.2 0.0 4.78529528992735e-302 0.0 1.0
260 3 1.33135 46.7517 47.6401 -1.2 0.0 0.0 0.0 1.0
261 1 2.33654 45.289 53.9867 1.2 9.039583804020049e-139 9.100151728364486e-47 0.0 1.0
262 2 2.02399 47.8182 55.7471 2.4 1.366606653227179e-08 5.679331110666511e-83 8.435436409462437e-120 0.9999999863339327
263 3 1.99399 46.2502 55.9446 -1.2 7.883477081170631e-23 1.0123436047995214e-54 1.7552594921223825e-106 0.9999999999999977
264 3 2.34253 48.846 52.0538 -1.2 9.746999944761147e-260 0.0 0.0 1.0000000000000622
265 3 0.778409 48.5166 55.0732 -1.2 1.1293696169206631e-48 1.7097581648731699e-122 1.7113601070820274e-195 1.0000000000000129
266 3 3.23095 48.5662 54.9665 -1.2 3.148634816369719e-42 7.126236823118179e-105 2.5302378666819172e-174 1.0000000000000093
267 1 0.700773 47.5792 51.6303 1.2 0.0 5.945943209564885e-122 0.0 1.0
268 1 2.92299 47.4492 48.5348 1.2 0.0 6.28478869941186e-227 0.0 1.0
269 2 2.30163 49.6369 50.5178 2.4 1.2960273096655256e-184 0.0 0.0 1.0
270 3 2.32735 51.232 50.8247 -1.2 0.0 0.0 0.0 1.0000000000000535
271 3 2.18526 48.5388 57.2293 -1.2 8.571982752673806e-07 1.1551083688901717e-16 1.770180369564706e-48 0.9999991428017246
272 3 0.896574 49.0451 49.9289 -1.2 0.0 0.0 0.0 1.000000000000025
273 1 -2.34068 47.3781 51.9415 1.2 0.0 1.1626840090376547e-112 0.0 1.0
274 3 3.44404 49.0988 49.5458 -1.2 0.0 0.0 0.0 1.0
275 1 -0.837441 47.5988 54.5106 1.2 1.940162581746665e-96 2.4605772220182827e-31 2.607676100721455e-309 1.0
276 2 -0.677504 45.4248 52.8047 2.4 1.164099419113857e-83 0.0 0.0 1.0
277 3 -0.791772 43.921 52.539 -1.2 3.857279628664839e-197 0.0 0.0 0.9999999999999505
278 3 -0.479776 46.2655 45.71 -1.2 0.0 0.0 0.0 1.0
279 3 -1.99919 46.185 53.4865 -1.2 1.055761631593523e-123 1.36090016e-315 0.0 0.9999999999999476
280 3 0.544159 46.076 53.6024 -1.2 3.119143662311287e-123 2.78811723e-316 0.0 1.0000000000000266
281 1 -2.24387 54.5964 57.0792 1.2 4.5806978475601675e-14 0.00027290759934382557 8.481607897055667e-65 0.9997270924006139
282 1 -0.587011 54.631 49.444 1.2 0.0 1.8919133329631705e-165 0.0 1.0
283 2 0.883805 51.9555 46.8815 2.4 2.69861149776636e-206 0.0 0.0 1.0
284 3 0.742597 53.4862 46.7129 -1.2 0.0 0.0 0.0 1.0
285 3 -0.833248 50.9527 51.1495 -1.2 7.1267986e-317 0.0 0.0 0.9999999999997741
286 3 -0.508634 51.4799 47.6497 -1.2 0.0 0.0 0.0 1.0
287 1 -0.707119 50.0862 45.4537 1.2 0.0 0.0 0.0 1.0
288 3 2.25837 51.4987 47.5816 -1.2 0.0 0.0 0.0 1.0
289 1 2.14908 49.9362 53.9107 1.2 3.996404762045562e-128 3.373633290715542e-39 0.0 1.0
290 2 2.1715 52.6954 56.0238 2.4 0.12663268865314375 4.271276528650775e-59 7.02302904279104e-95 0.8733673113468601
291 3 2.11901 51.1272 55.9931 -1.2 7.441126606128099e-23 4.5524498008615917e-54 4.903335852642999e-105 0.999999999999998
292 3 2.32163 53.7116 52.1051 -1.2 2.2075866726283363e-236 0.0 0.0 1.0000000000000517
293 3 0.738407 53.2838 55.5342 -1.2 7.596817990499514e-33 1.8190370327876656e-78 1.3977069167511907e-139 1.0000000000000069
294 3 3.43099 53.2429 55.2394 -1.2 4.480079597735912e-38 4.615866147940515e-96 6.545563871180198e-166 1.0000000000000135
295 1 0.812735 52.3934 51.3019 1.2 0.0 2.0862860885601075e-126 0.0 1.0
296 1 3.83658 51.9761 48.5565 1.2 0.0 4.035923326112533e-214 0.0 1.0
297 2 2.47113 54.3449 50.6196 2.4 4.131937261709876e-176 0.0 0.0 1.0
298 3 2.62757 55.9697 50.651 -1.2 0.0 0.0 0.0 1.0
299 3 2.29523 53.3642 57.5998 -1.2 8.806059912037555e-06 1.1835455523393176e-15 2.1974981444222847e-50 0.9999911939400895
300 3 1.11746 53.8202 49.8947 -1.2 0.0 0.0 0.0 1.0
301 1 -2.13398 52.3206 51.8788 1.2 0.0 1.278476164150971e-125 0.0 1.0
302 3 3.81048 53.6211 49.9384 -1.2 0.0 0.0 0.0 1.000000000000211
303 1 -0.64682 52.1589 54.6213 1.2 8.810385612385097e-67 3.3377344631056865e-15 5.252436193771417e-239 0.9999999999999949
304 2 -0.747488 50.2675 52.5374 2.4 8.238811165098983e-94 0.0 0.0 1.0
305 3 -0.677393 48.6867 52.5502 -1.2 1.3899294152798568e-195 0.0 0.0 0.9999999999999105
306 3 0.751212 51.2654 45.4183 -1.2 0.0 0.0 0.0 1.0
307 3 -1.93808 50.9334 53.4431 -1.2 1.294669581740461e-139 0.0 0.0 1.0000000000000544
308 3 0.51784 50.8494 53.2708 -1.2 3.755400826003273e-143 0.0 0.0 1.00000000000002
309 1 -2.13316 59.444 57.3101 1.2 8.611258611128113e-10 0.09699565758398124 2.7708619363506324e-55 0.9030043415548946
310 1 -0.550634 59.3773 49.4439 1.2 0.0 9.866566661517248e-198 0.0 1.0
311 2 -0.00715209 57.0802 47.5452 2.4 5.21539967252093e-220 0.0 0.0 1.0
312 3 -0.6461 58.4547 47.8613 -1.2 0.0 0.0 0.0 1.0
313 3 -0.418441 55.683 51.3331 -1.2 1.25103335e-316 0.0 0.0 0.9999999999998523
314 3 -1.10153 55.9404 48.1448 -1.2 0.0 0.0 0.0 1.0
315 1 1.00976 55.2866 46.012 1.2 0.0 1.861814792413339e-286 0.0 1.0
316 3 1.51011 56.6855 47.6844 -1.2 0.0 0.0 0.0 1.0
317 1 2.39581 54.7257 54.0538 1.2 1.1404137855522875e-130 5.198646468807038e-39 0.0 1.0
318 2 2.28229 57.2895 56.0083 2.4 0.004023778117198469 4.85411744020797e-68 5.591723846819922e-104 0.9959762218828028
319 3 2.41962 55.7353 55.9497 -1.2 2.381830723821669e-22 3.637627740795262e-55 5.127789371291078e-107 0.9999999999999999
320 3 2.45742 58.5238 52.1054 -1.2 9.150637650135752e-254 0.0 0.0 1.0000000000000375
321 3 0.961306 58.0361 55.5281 -1.2 6.601833301955695e-39 1.260913842843139e-93 2.0338362113757562e-160 1.0000000000000142
322 3 3.49218 57.9192 55.1884 -1.2 1.4872146420484835e-44 1.7066390386559743e-110 1.39707248385249e-184 1.0000000000000104
323 1 1.04362 57.0894 51.5868 1.2 0.0 3.482192722691678e-115 0.0 1.0
324 1 3.27568 56.8785 48.8776 1.2 0.0 1.952297825865611e-216 0.0 1.0
325 2 2.43071 59.1726 50.6543 2.4 2.047966878914418e-183 0.0 0.0 1.0
326 3 2.67669 60.6583 50.8106 -1.2 0.0 0.0 0.0 1.0
327 3 2.42625 57.8728 57.5407 -1.2 0.0014739235222314248 4.291067142867915e-13 1.3647581872339639e-45 0.9985260764773352
328 3 1.08961 58.5074 50.0686 -1.2 0.0 0.0 0.0 1.0
329 1 -1.98326 57.2181 51.898 1.2 0.0 1.71983988971653e-124 0.0 1.0
330 3 3.7112 58.5222 49.9136 -1.2 0.0 0.0 0.0 1.0
331 1 -0.690439 57.0026 54.8173 1.2 1.1727729461461884e-63 1.903553139669606e-12 6.29948601859561e-229 0.9999999999981034
332 2 -0.543598 55.0629 52.798 2.4 2.708477155924805e-87 0.0 0.0 1.0
333 3 -0.723986 53.5327 52.7099 -1.2 4.5364868675177016e-187 0.0 0.0 0.9999999999999895
334 3 -0.0386963 57.0787 45.9282 -1.2 0.0 0.0 0.0 1.0
335 3 -1.96665 55.6176 53.3066 -1.2 1.3361549175496318e-156 0.0 0.0 0.9999999999999727
336 3 0.714208 55.7261 53.5395 -1.2 3.948680348518482e-129 0.0 0.0 1.0000000000000104
337 1 -2.11676 64.0743 57.4154 1.2 8.402620441857784e-10 0.11845636388270633 7.610762168376611e-51 0.8815436352770323
338 1 -0.363377 63.6752 49.5429 1.2 0.0 2.2438672884124268e-197 0.0 1.0
339 2 0.414919 61.4507 47.2002 2.4 2.0812642362423024e-213 0.0 0.0 1.0
340 3 0.39368 63.0313 47.0287 -1.2 0.0 0.0 0.0 1.0
341 3 -0.300354 60.4418 51.4921 -1.2 1.1726761926018e-310 0.0 0.0 0.9999999999999224
342 3 -0.701294 61.2035 48.3185 -1.2 0.0 0.0 0.0 1.0
343 1 -0.710381 59.0388 45.9026 1.2 0.0 7.515263892289348e-265 0.0 1.0
344 3 1.88462 61.0798 47.689 -1.2 0.0 0.0 0.0 1.0
345 1 2.66079 59.5785 54.2341 1.2 9.631720862080648e-120 2.1279543614583272e-34 0.0 1.0
346 2 2.34126 62.0294 56.1159 2.4 0.08766938464214899 2.3597873517296375e-62 6.253883366100862e-98 0.912330615357856
347 3 2.38136 60.5457 56.2994 -1.2 8.987706403323373e-17 2.950250672144503e-40 8.61963306684395e-88 1.0000000000000004
348 3 2.6122 63.0267 52.3587 -1.2 5.02606888726689e-252 0.0 0.0 0.9999999999999497
349 3 1.0507 62.6435 55.4208 -1.2 2.7189928995736944e-44 9.727253345746006e-103 1.4848682458965138e-168 0.9999999999999963
350 3 3.58485 62.7346 55.3237 -1.2 3.2154700595010053e-40 3.1028019407522777e-100 7.06962936889127e-173 1.000000000000007
351 1 1.07444 61.8455 51.9007 1.2 0.0 2.6474168906304895e-121 0.0 1.0
352 1 3.30282 61.6803 48.9097 1.2 0.0 3.8126591425060706e-210 0.0 1.0
353 2 2.57063 63.8413 50.9073 2.4 9.473701371977493e-189 0.0 0.0 1.0
354 3 2.51801 65.4137 51.0755 -1.2 0.0 0.0 0.0 1.0
355 3 2.34163 62.8547 57.6223 -1.2 0.0013120015953762242 4.5396009617502e-11 1.0783694558157709e-42 0.9986879983592348
356 3 1.19721 63.0962 50.3589 -1.2 0.0 0.0 0.0 1.0
357 1 -1.98431 61.7488 51.8781 1.2 0.0 2.7434624638500205e-132 0.0 1.0
358 3 3.78358 63.1928 50.0602 -1.2 0.0 0.0 0.0 1.0
359 1 -0.561971 61.6975 54.672 1.2 3.623373896938007e-85 1.0477375981573463e-23 1.4920169900722798e-285 1.0
360 2 -0.279917 59.74 52.8706 2.4 1.060096459370186e-85 0.0 0.0 1.0
361 3 -0.406378 58.1935 52.7203 -1.2 1.0169327063635955e-200 0.0 0.0 0.9999999999999692
362 3 0.0658308 60.7014 45.8339 -1.2 0.0 0.0 0.0 1.0
363 3 -1.55748 60.3866 53.6068 -1.2 4.499268113957638e-141 0.0 0.0 0.9999999999999764
364 3 0.976984 60.4413 53.6175 -1.2 7.501884954936142e-117 8.235158686679619e-303 0.0 0.999999999999996
365 1 -1.96366 68.8991 57.459 1.2 4.045652334694834e-11 0.0015399660193371005 1.6427511783074964e-52 0.9984600339402002