ITEM: TIMESTEP
4800
ITEM: NUMBER OF ATOMS
10500
ITEM: BOX BOUNDS xy xz yz pp pp pp
0	8.9688	2.9896
0	118.725	0
0	252.977	0
ITEM: ATOMS id type xu yu zu q pCrystal pDisloC pSF pDisloB pDisloA
1 1 -3.32666 7.04101 57.4766 1.2 1.0 1.9110482192133042e-50 4.425127732718237e-75 1.0684820721432473e-67 3.704906658420554e-21
2 1 -1.82655 6.90154 50.0912 1.2 1.0 0.0 0.0 0.0 0.0
3 2 -0.257935 3.96038 48.0876 2.4 0.0 0.0 0.0 0.0 1.0
4 3 -0.335812 5.46814 47.6264 -1.2 1.0 0.0 0.0 0.0 0.0
5 3 -2.03793 3.43377 51.8941 -1.2 1.0 0.0 0.0 0.0 0.0
6 3 -1.54015 3.53929 48.9521 -1.2 1.0 0.0 0.0 0.0 0.0
7 1 1.82954 2.54582 47.1376 1.2 1.0 0.0 0.0 0.0 0.0
8 3 1.22989 3.66364 48.7877 -1.2 1.0 0.0 0.0 0.0 0.0
9 1 1.02442 2.29425 54.5929 1.2 1.0 0.0 0.0 0.0 5.5438900857329046e-117
10 2 1.08706 5.00102 56.4599 2.4 4.801376614478535e-97 3.785498282302727e-72 6.618264933783431e-117 2.2931234095345477e-96 1.0000000000000009
11 3 1.02035 3.45176 56.5535 -1.2 1.0 3.9011133359836995e-125 3.7234231153755006e-172 2.3373064473303326e-145 1.1325572151390989e-44
12 3 1.10813 6.07342 52.8172 -1.2 1.0 0.0 0.0 0.0 0.0
13 3 -0.171771 5.71468 55.8199 -1.2 1.0 3.801648507346286e-223 9.537211194384937e-302 8.558376640164539e-244 6.836248493215294e-75
14 3 2.36803 5.6546 55.7514 -1.2 1.0 1.3443947841292913e-201 5.808765836309071e-275 3.734374297414915e-223 9.042733848273113e-70
15 1 -0.459401 4.67631 52.2426 1.2 1.0 0.0 0.0 0.0 1.4743308600768249e-307
16 1 2.79456 3.9971 49.9987 1.2 1.0 0.0 0.0 0.0 0.0
17 2 1.16169 6.59457 51.2556 2.4 0.0 0.0 0.0 0.0 1.0
18 3 1.28989 8.18905 51.2909 -1.2 1.0 0.0 0.0 0.0 0.0
19 3 1.09807 5.67563 57.9775 -1.2 0.9999999999989626 5.75914748983437e-26 1.870431794201186e-42 1.94858109895e-39 1.0444622249287125e-12
20 3 -0.184847 6.06029 50.6845 -1.2 1.0 0.0 0.0 0.0 0.0
21 1 -3.49704 4.67769 52.6661 1.2 1.0 0.0 0.0 0.0 7.004852520769404e-255
22 3 2.48581 5.93312 50.6539 -1.2 1.0 0.0 0.0 0.0 0.0
23 1 -1.88641 4.7189 55.1914 1.2 1.0 7.478567222209739e-280 0.0 2.035065435279863e-297 2.0864253683195033e-85
24 2 -1.91812 2.62399 53.3284 2.4 0.0 0.0 0.0 0.0 1.0
25 3 -1.92581 1.06248 53.2642 -1.2 1.0 0.0 0.0 0.0 1.4816446043989734e-286
26 3 -0.0467762 2.97103 46.8385 -1.2 1.0 0.0 0.0 0.0 0.0
27 3 -3.2246 3.25774 54.0657 -1.2 1.0 0.0 0.0 0.0 6.768239458483328e-193
28 3 -0.652288 3.30075 54.005 -1.2 1.0 0.0 0.0 0.0 1.0840193600894588e-205
29 1 -3.29291 11.7915 57.4096 1.2 1.0 1.5889122461571541e-50 2.955670891377666e-75 2.3405941865018384e-67 4.9656164690455657e-20
30 1 -1.75014 11.5838 49.8362 1.2 1.0 0.0 0.0 0.0 0.0
31 2 -1.18003 9.02138 47.9309 2.4 0.0 0.0 0.0 0.0 1.0
32 3 -1.23224 10.5991 47.9811 -1.2 1.0 0.0 0.0 0.0 0.0
33 3 -1.79016 8.01447 51.8693 -1.2 1.0 0.0 0.0 0.0 0.0
34 3 -2.30986 8.37215 48.8528 -1.2 1.0 0.0 0.0 0.0 0.0
35 1 0.154883 7.08234 46.8007 1.2 1.0 0.0 0.0 0.0 0.0
36 3 0.325447 8.50934 48.3809 -1.2 1.0 0.0 0.0 0.0 0.0
37 1 1.21419 7.09993 54.5966 1.2 1.0 0.0 0.0 0.0 5.9589963427313335e-120
38 2 1.18278 9.71806 56.4153 2.4 7.468335941316269e-107 1.871464024053636e-78 2.0304167558557614e-129 2.431027559862127e-106 1.0
39 3 1.16453 8.16162 56.5292 -1.2 1.0 1.0257610888591025e-104 4.794698149942446e-148 4.2934413553077976e-129 4.807472705175879e-39
40 3 1.28624 10.7248 52.7351 -1.2 1.0 0.0 0.0 0.0 0.0
41 3 -0.0829776 10.4029 55.7569 -1.2 1.0 2.9080685477105096e-246 0.0 1.428738817406554e-270 6.77663868013905e-80
42 3 2.44942 10.3964 55.7658 -1.2 1.0 1.9691339436502566e-197 8.137035787876137e-274 1.4935838543689439e-223 7.224097149694459e-67
43 1 -0.262694 9.34741 52.2523 1.2 1.0 0.0 0.0 0.0 5.520122665608257e-276
44 1 1.87648 9.01537 49.4629 1.2 1.0 0.0 0.0 0.0 0.0
45 2 1.21415 11.3799 51.2378 2.4 0.0 0.0 0.0 0.0 1.0
46 3 1.31634 12.9512 51.3023 -1.2 1.0 0.0 0.0 0.0 0.0
47 3 1.17531 10.3772 57.914 -1.2 0.9999999999999858 8.079637323456208e-30 4.478491508456509e-47 2.2304276309176675e-44 1.8504031922022936e-14
48 3 -0.115718 10.7564 50.681 -1.2 1.0 0.0 0.0 0.0 0.0
49 1 -3.26386 9.35564 52.3622 1.2 1.0 0.0 0.0 0.0 1.637481061756332e-281
50 3 2.45216 10.7265 50.4558 -1.2 1.0 0.0 0.0 0.0 0.0
51 1 -1.7722 9.46301 55.1334 1.2 1.0 1.1007335592445289e-303 0.0 1e-323 6.425215836374865e-88
52 2 -1.7661 7.32285 53.3876 2.4 0.0 0.0 0.0 0.0 1.0
53 3 -1.83326 5.7857 53.3414 -1.2 1.0 0.0 0.0 0.0 2.6910651919615855e-277
54 3 -1.19417 8.46968 46.4488 -1.2 1.0 0.0 0.0 0.0 0.0
55 3 -3.06194 8.01897 53.9839 -1.2 1.0 0.0 0.0 0.0 2.5330518934716196e-206
56 3 -0.521759 8.05155 53.9928 -1.2 1.0 0.0 0.0 0.0 2.502159272241396e-192
57 1 -3.21019 16.5431 57.4117 1.2 1.0 9.294063637260486e-50 5.010582716091704e-74 1.8504001576885196e-66 3.705560573443389e-20
58 1 -1.6714 16.3544 49.8412 1.2 1.0 0.0 0.0 0.0 0.0
59 2 -1.18567 13.8526 47.9314 2.4 0.0 0.0 0.0 0.0 1.0
60 3 -1.09664 15.4205 47.9915 -1.2 1.0 0.0 0.0 0.0 0.0
61 3 -1.73493 12.7491 51.7772 -1.2 1.0 0.0 0.0 0.0 0.0
62 3 -2.36115 13.2717 48.8238 -1.2 1.0 0.0 0.0 0.0 0.0
63 1 -0.159928 11.7639 46.8533 1.2 1.0 0.0 0.0 0.0 0.0
64 3 0.2623 13.1866 48.413 -1.2 1.0 0.0 0.0 0.0 0.0
65 1 1.23118 11.8378 54.554 1.2 1.0 0.0 0.0 0.0 3.3516426072449526e-126
66 2 1.2592 14.4974 56.3661 2.4 6.253798911238634e-113 4.840300556971361e-83 1.845625556067367e-136 2.345992206912513e-111 1.0000000000000002
67 3 1.21784 12.9305 56.463 -1.2 1.0 4.8506852835912174e-108 1.1349376334275046e-153 6.735020718497319e-134 6.66953448071642e-39
68 3 1.36565 15.4813 52.729 -1.2 1.0 0.0 0.0 0.0 0.0
69 3 -0.00716736 15.2289 55.7014 -1.2 1.0 1.3237864220628689e-257 0.0 3.1883543314386936e-283 2.6041769349253064e-81
70 3 2.55064 15.1433 55.6975 -1.2 1.0 2.3832630966547363e-209 1.8796094083705052e-290 1.9555944888818314e-235 1.8021148424442446e-69
71 1 -0.206989 14.1049 52.2121 1.2 1.0 0.0 0.0 0.0 7.075369287289284e-282
72 1 1.82591 13.8102 49.4556 1.2 1.0 0.0 0.0 0.0 0.0
73 2 1.29285 16.1518 51.2434 2.4 0.0 0.0 0.0 0.0 1.0
74 3 1.39496 17.7199 51.3047 -1.2 1.0 0.0 0.0 0.0 0.0
75 3 1.32633 15.1718 57.8871 -1.2 0.9999999999996589 1.1680889727418197e-27 3.951451392691615e-44 1.7465260230558227e-41 3.4054362979168816e-13
76 3 -0.0269106 15.5178 50.6688 -1.2 1.0 0.0 0.0 0.0 0.0
77 1 -3.18391 14.1057 52.3125 1.2 1.0 0.0 0.0 0.0 1.0108609585447738e-291
78 3 2.52432 15.503 50.4579 -1.2 1.0 0.0 0.0 0.0 0.0
79 1 -1.68576 14.2095 55.1254 1.2 1.0 1.914206964988962e-298 0.0 1.616e-321 4.83421435228683e-84
80 2 -1.71619 12.0638 53.277 2.4 0.0 0.0 0.0 0.0 1.0
81 3 -1.69627 10.5385 53.2159 -1.2 1.0 0.0 0.0 0.0 7.95551725455486e-276
82 3 -1.21337 13.3381 46.4311 -1.2 1.0 0.0 0.0 0.0 0.0
83 3 -2.98986 12.7343 53.9804 -1.2 1.0 0.0 0.0 0.0 1.6065815820534212e-209
84 3 -0.430233 12.7975 53.9117 -1.2 1.0 0.0 0.0 0.0 3.346589530065782e-203
85 1 -3.00353 21.2489 57.2931 1.2 1.0 1.6159651516942126e-47 1.3806571153844289e-71 7.295992623199515e-64 6.182793159249981e-19
86 1 -1.5831 21.1217 49.8405 1.2 1.0 0.0 0.0 0.0 0.0
87 2 -1.09384 18.6291 47.9287 2.4 0.0 0.0 0.0 0.0 1.0
88 3 -1.02071 20.1985 47.9911 -1.2 1.0 0.0 0.0 0.0 0.0
89 3 -1.65002 17.5002 51.771 -1.2 1.0 0.0 0.0 0.0 0.0
90 3 -2.26174 18.0434 48.8281 -1.2 1.0 0.0 0.0 0.0 0.0
91 1 -0.0440435 16.5651 46.8269 1.2 1.0 0.0 0.0 0.0 0.0
92 3 0.37001 17.9877 48.3925 -1.2 1.0 0.0 0.0 0.0 0.0
93 1 1.31932 16.6179 54.5135 1.2 1.0 0.0 0.0 0.0 1.7082370560681918e-123
94 2 1.38768 19.2253 56.3822 2.4 5.507170595474132e-112 3.960725036816584e-82 1.621203339178842e-135 1.550401984764802e-110 0.9999999999999999
95 3 1.313 17.6822 56.4875 -1.2 1.0 1.715528547027299e-97 4.832532411391026e-139 1.3058376584652884e-122 1.0914157711546285e-35
96 3 1.45147 20.239 52.7294 -1.2 1.0 0.0 0.0 0.0 0.0
97 3 0.10354 19.8726 55.7549 -1.2 1.0 3.1331909427148216e-224 3.51408690365504e-310 1.9878282946325813e-250 2.8559011823936004e-72
98 3 2.65282 19.9003 55.682 -1.2 1.0 3.614137944666093e-202 4.559745604727704e-281 2.1216745588550772e-228 1.8751512916343148e-67
99 1 -0.126194 18.8651 52.2079 1.2 1.0 0.0 0.0 0.0 6.8418435216770335e-276
100 1 1.92402 18.5815 49.4545 1.2 1.0 0.0 0.0 0.0 0.0
101 2 1.38106 20.9117 51.2443 2.4 0.0 0.0 0.0 0.0 1.0
102 3 1.48527 22.4795 51.3054 -1.2 1.0 0.0 0.0 0.0 0.0
103 3 1.46298 19.9209 57.8847 -1.2 0.9999999999990337 2.0409545037601867e-26 8.34791791205983e-43 4.689720992014744e-40 9.618062292524462e-13
104 3 0.0615419 20.2804 50.6669 -1.2 1.0 0.0 0.0 0.0 0.0
105 1 -3.09665 18.8643 52.3122 1.2 1.0 0.0 0.0 0.0 8.542392123973139e-293
106 3 2.61548 20.2646 50.4626 -1.2 1.0 0.0 0.0 0.0 0.0
107 1 -1.57262 18.9251 55.0798 1.2 1.0 1.8587152208378e-310 0.0 0.0 8.306861824385238e-86
108 2 -1.64986 16.804 53.2547 2.4 0.0 0.0 0.0 0.0 1.0
109 3 -1.73612 15.2407 53.2097 -1.2 1.0 0.0 0.0 0.0 2.1299249475672227e-280
110 3 -1.12868 18.1227 46.4249 -1.2 1.0 0.0 0.0 0.0 0.0
111 3 -2.90351 17.5055 53.9338 -1.2 1.0 0.0 0.0 0.0 8.258892685273902e-207
112 3 -0.37433 17.4872 53.894 -1.2 1.0 0.0 0.0 0.0 7.146492763384673e-202
113 1 -2.95728 26.016 57.4002 1.2 1.0 3.4484763317294357e-47 2.6472618865982744e-71 2.4106757832868952e-63 7.4238396180098e-19
114 1 -1.48778 25.88 49.8402 1.2 1.0 0.0 0.0 0.0 0.0
115 2 -1.00491 23.3922 47.9274 2.4 0.0 0.0 0.0 0.0 1.0
116 3 -0.927602 24.9615 47.9909 -1.2 1.0 0.0 0.0 0.0 0.0
117 3 -1.55795 22.2588 51.7696 -1.2 1.0 0.0 0.0 0.0 0.0
118 3 -2.17411 22.8111 48.8277 -1.2 1.0 0.0 0.0 0.0 0.0
119 1 0.0423997 21.3296 46.8225 1.2 1.0 0.0 0.0 0.0 0.0
120 3 0.458537 22.7495 48.3911 -1.2 1.0 0.0 0.0 0.0 0.0
121 1 1.4464 21.2613 54.5437 1.2 1.0 0.0 0.0 0.0 5.311984526142569e-119
122 2 1.56599 23.9397 56.3881 2.4 1.863267242136152e-103 2.2212689858356087e-75 3.4765316832812395e-125 8.805113366545062e-102 1.0000000000000007
123 3 1.49867 22.3934 56.4871 -1.2 1.0 1.680831747341964e-89 5.1062162227271294e-129 1.650178569949327e-114 2.59356837473805e-32
124 3 1.54441 24.9963 52.7297 -1.2 1.0 0.0 0.0 0.0 0.0
125 3 0.296805 24.5863 55.6918 -1.2 1.0 2.046804785988418e-255 0.0 4.7795437270755115e-282 8.059275484311737e-80
126 3 2.88042 24.603 55.7499 -1.2 1.0 1.466402422495808e-183 3.640047101424132e-257 5.421828545938133e-211 3.7241455436875494e-61
127 1 -0.0335968 23.6229 52.2067 1.2 1.0 0.0 0.0 0.0 1.329503563259638e-280
128 1 2.01073 23.3445 49.4541 1.2 1.0 0.0 0.0 0.0 0.0
129 2 1.47594 25.6699 51.2449 2.4 0.0 0.0 0.0 0.0 1.0
130 3 1.58172 27.2371 51.3054 -1.2 1.0 0.0 0.0 0.0 0.0
131 3 1.54275 24.6153 57.8567 -1.2 0.9999999999969305 3.6403840711664806e-26 7.604606155755549e-43 1.0732176798800064e-39 3.0660720377505505e-12
132 3 0.157925 25.0378 50.6651 -1.2 1.0 0.0 0.0 0.0 0.0
133 1 -3.00341 23.6231 52.3098 1.2 1.0 0.0 0.0 0.0 1.3525701904484706e-291
134 3 2.71149 25.0232 50.4656 -1.2 1.0 0.0 0.0 0.0 0.0
135 1 -1.41173 23.693 55.0633 1.2 1.0 7.422667518548e-312 0.0 0.0 1.9359046318072965e-84
136 2 -1.54746 21.5869 53.2625 2.4 0.0 0.0 0.0 0.0 1.0
137 3 -1.58428 20.055 53.2201 -1.2 1.0 0.0 0.0 0.0 1.1604105109955791e-269
138 3 -1.03938 22.8897 46.4223 -1.2 1.0 0.0 0.0 0.0 0.0
139 3 -2.81956 22.2772 53.9345 -1.2 1.0 0.0 0.0 0.0 1.9256057579571482e-206
140 3 -0.244639 22.2747 53.8605 -1.2 1.0 0.0 0.0 0.0 6.777855937494023e-200
141 1 -2.79095 30.7372 57.3841 1.2 1.0 2.6145581093931137e-49 2.5987553448104394e-73 3.076025022859477e-65 9.491148524976694e-19
142 1 -1.38776 30.6357 49.8391 1.2 1.0 0.0 0.0 0.0 0.0
143 2 -0.907929 28.1491 47.9262 2.4 0.0 0.0 0.0 0.0 1.0
144 3 -0.829229 29.7184 47.99 -1.2 1.0 0.0 0.0 0.0 0.0
145 3 -1.45946 27.0152 51.769 -1.2 1.0 0.0 0.0 0.0 0.0
146 3 -2.07744 27.5697 48.8273 -1.2 1.0 0.0 0.0 0.0 0.0
147 1 0.137907 26.087 46.819 1.2 1.0 0.0 0.0 0.0 0.0
148 3 0.55579 27.5065 48.3893 -1.2 1.0 0.0 0.0 0.0 0.0
149 1 1.41763 26.025 54.5365 1.2 1.0 0.0 0.0 0.0 1.9837127837752207e-120
150 2 1.64763 28.6959 56.3492 2.4 1.044190996983493e-110 9.528159675802805e-81 1.4326237022094517e-132 3.312562595538191e-108 1.0000000000000002
151 3 1.55293 27.1252 56.4373 -1.2 1.0 1.5403825397943737e-111 7.87130626770571e-159 2.544216939777063e-137 6.934408356206784e-39
152 3 1.6432 29.7522 52.7291 -1.2 1.0 0.0 0.0 0.0 0.0
153 3 0.405623 29.4042 55.6501 -1.2 1.0 1.1030309505675215e-257 0.0 2.253557440048749e-282 9.57014698599634e-80
154 3 2.93318 29.3271 55.6705 -1.2 1.0 5.683534368640223e-193 4.3803341903060046e-269 2.231824321167764e-219 2.2078961311004256e-63
155 1 0.0647462 28.3794 52.2059 1.2 1.0 0.0 0.0 0.0 4.527315196897155e-278
156 1 2.10696 28.1021 49.4531 1.2 1.0 0.0 0.0 0.0 0.0
157 2 1.57592 30.4257 51.2442 2.4 0.0 0.0 0.0 0.0 1.0
158 3 1.68288 31.9926 51.3043 -1.2 1.0 0.0 0.0 0.0 0.0
159 3 1.68633 29.3798 57.8463 -1.2 0.9999999999977405 3.004489106463267e-27 1.538809790192015e-43 7.400189568523363e-41 2.2653449230905155e-12
160 3 0.258524 29.7935 50.6632 -1.2 1.0 0.0 0.0 0.0 0.0
161 1 -2.90462 28.3797 52.308 1.2 1.0 0.0 0.0 0.0 1.506523126250169e-293
162 3 2.81205 29.7787 50.4664 -1.2 1.0 0.0 0.0 0.0 0.0
163 1 -1.34853 28.4487 55.0307 1.2 1.0 1.082439105e-315 0.0 0.0 1.8743109045849367e-86
164 2 -1.53308 26.321 53.24 2.4 0.0 0.0 0.0 0.0 1.0
165 3 -1.50814 24.7473 53.1842 -1.2 1.0 0.0 0.0 0.0 5.5583295950939264e-275
166 3 -0.943026 27.648 46.4208 -1.2 1.0 0.0 0.0 0.0 0.0
167 3 -2.80408 26.9914 53.9023 -1.2 1.0 0.0 0.0 0.0 1.6691067391016494e-204
168 3 -0.244072 26.9692 53.9105 -1.2 1.0 0.0 0.0 0.0 5.532776667528053e-190
169 1 -2.65686 35.5599 57.3062 1.2 1.0 4.700630790550427e-50 1.3101324321306813e-73 1.206061668292026e-65 7.7168531257687855e-19
170 1 -1.28421 35.3899 49.8376 1.2 1.0 0.0 0.0 0.0 0.0
171 2 -0.807101 32.9036 47.9247 2.4 0.0 0.0 0.0 0.0 1.0
172 3 -0.727174 34.4729 47.9885 -1.2 1.0 0.0 0.0 0.0 0.0
173 3 -1.35735 31.7701 51.768 -1.2 1.0 0.0 0.0 0.0 0.0
174 3 -1.97695 32.3253 48.826 -1.2 1.0 0.0 0.0 0.0 0.0
175 1 0.237665 30.8412 46.8168 1.2 1.0 0.0 0.0 0.0 0.0
176 3 0.656562 32.2608 48.3877 -1.2 1.0 0.0 0.0 0.0 0.0
177 1 1.68943 30.8153 54.5133 1.2 1.0 0.0 0.0 0.0 3.922159512300957e-121
178 2 1.75433 33.4754 56.3761 2.4 7.71118175452841e-105 6.054294410980122e-77 8.24242778913797e-126 1.974118659739312e-102 1.0000000000000007
179 3 1.74546 31.9154 56.491 -1.2 1.0 6.503317440285763e-96 3.0822722066907344e-137 7.6409154386696444e-121 8.811703767070465e-34
180 3 1.74574 34.5067 52.7279 -1.2 1.0 0.0 0.0 0.0 0.0
181 3 0.45224 34.1402 55.6958 -1.2 1.0 2.1860675997008088e-262 0.0 2.590356909780695e-286 8.707702288647926e-81
182 3 2.99975 34.1653 55.67 -1.2 1.0 4.203490376492426e-205 2.0989498550724835e-284 1.5581228194031798e-229 3.5492524549340734e-66
183 1 0.167046 33.1343 52.2045 1.2 1.0 0.0 0.0 0.0 6.214471284966581e-277
184 1 2.20727 32.8578 49.4516 1.2 1.0 0.0 0.0 0.0 0.0
185 2 1.67943 35.1802 51.2429 2.4 0.0 0.0 0.0 0.0 1.0
186 3 1.78736 36.747 51.303 -1.2 1.0 0.0 0.0 0.0 0.0
187 3 1.75758 34.2113 57.8535 -1.2 0.9999999999966889 8.056033433477874e-28 9.080112664755054e-44 3.350467962661819e-41 3.308588533870676e-12
188 3 0.362533 34.5479 50.661 -1.2 1.0 0.0 0.0 0.0 0.0
189 1 -2.80215 33.1347 52.3062 1.2 1.0 0.0 0.0 0.0 1.6070505693475262e-292
190 3 2.91593 34.533 50.466 -1.2 1.0 0.0 0.0 0.0 0.0
191 1 -1.25259 33.2473 55.081 1.2 1.0 7.178327e-317 0.0 0.0 1.1209570941608251e-85
192 2 -1.33824 31.1204 53.246 2.4 0.0 0.0 0.0 0.0 1.0
193 3 -1.36495 29.5241 53.1816 -1.2 1.0 0.0 0.0 0.0 4.038657179962387e-273
194 3 -0.842495 32.4028 46.4192 -1.2 1.0 0.0 0.0 0.0 0.0
195 3 -2.59454 31.8164 53.9177 -1.2 1.0 0.0 0.0 0.0 3.722789519491957e-206
196 3 -0.02323 31.734 53.8516 -1.2 1.0 0.0 0.0 0.0 1.8586914128325033e-205
197 1 -2.59985 40.3429 57.364 1.2 1.0 3.5647979754710545e-48 3.477174067807823e-71 7.636212605059056e-64 5.8912349746737344e-18
198 1 -1.17787 40.1435 49.8359 1.2 1.0 0.0 0.0 0.0 0.0
199 2 -0.702692 37.6572 47.9231 2.4 0.0 0.0 0.0 0.0 1.0
200 3 -0.621782 39.2264 47.9868 -1.2 1.0 0.0 0.0 0.0 0.0
201 3 -1.25221 36.5242 51.7666 -1.2 1.0 0.0 0.0 0.0 0.0
202 3 -1.87295 37.0796 48.8243 -1.2 1.0 0.0 0.0 0.0 0.0
203 1 0.341084 35.5943 46.8152 1.2 1.0 0.0 0.0 0.0 0.0
204 3 0.760681 37.0138 48.3864 -1.2 1.0 0.0 0.0 0.0 0.0
205 1 1.77035 35.6436 54.5448 1.2 1.0 0.0 0.0 0.0 1.2971618201384938e-117
206 2 1.84958 38.2256 56.3941 2.4 1.031397375487769e-105 9.591592581223274e-78 7.507306715588793e-126 9.663710982718933e-103 1.0000000000000009
207 3 1.8235 36.6851 56.4815 -1.2 1.0 1.0851736882212472e-101 2.430110123736559e-144 1.4602042702079148e-125 4.396419693423192e-35
208 3 1.85132 39.2606 52.7264 -1.2 1.0 0.0 0.0 0.0 0.0
209 3 0.574819 38.9456 55.7363 -1.2 1.0 1.3338408969957413e-232 8.11883e-319 4.1319993975477006e-255 4.0601391759249516e-72
210 3 3.12726 38.8988 55.7107 -1.2 1.0 2.012972713396125e-195 4.6768678665142944e-271 6.0909661541960924e-220 6.381925243556435e-63
211 1 0.272384 37.8883 52.2029 1.2 1.0 0.0 0.0 0.0 1.3683937609827709e-276
212 1 2.31122 37.6122 49.4501 1.2 1.0 0.0 0.0 0.0 0.0
213 2 1.78573 39.934 51.2414 2.4 0.0 0.0 0.0 0.0 1.0
214 3 1.89428 41.5006 51.3014 -1.2 1.0 0.0 0.0 0.0 0.0
215 3 1.89377 38.9084 57.9114 -1.2 0.9999999999941025 1.4093531145411399e-26 2.884157384817044e-42 6.5328300692687026e-40 5.8976366368836995e-12
216 3 0.469216 39.3015 50.6588 -1.2 1.0 0.0 0.0 0.0 0.0
217 1 -2.69668 37.8889 52.3043 1.2 1.0 0.0 0.0 0.0 1.6295268718036929e-288
218 3 3.0225 39.2866 50.4651 -1.2 1.0 0.0 0.0 0.0 0.0
219 1 -1.16032 38.0128 55.1154 1.2 1.0 3.423915802525029e-308 0.0 0.0 2.7463362404264628e-83
220 2 -1.23183 35.8831 53.2398 2.4 0.0 0.0 0.0 0.0 1.0
221 3 -1.2691 34.3182 53.1545 -1.2 1.0 0.0 0.0 0.0 1.1061322011848284e-274
222 3 -0.738054 37.1566 46.4176 -1.2 1.0 0.0 0.0 0.0 0.0
223 3 -2.48255 36.6152 53.9332 -1.2 1.0 0.0 0.0 0.0 3.880432628128989e-200
224 3 0.073613 36.5478 53.9126 -1.2 1.0 0.0 0.0 0.0 3.2551076126528817e-190
225 1 -2.48966 45.0505 57.4067 1.2 1.0 2.965559374201263e-48 1.115699026334727e-71 2.8106987810396626e-64 2.122804820051115e-19
226 1 -1.06993 44.8968 49.8343 1.2 1.0 0.0 0.0 0.0 0.0
227 2 -0.596166 42.4103 47.9215 2.4 0.0 0.0 0.0 0.0 1.0
228 3 -0.51472 43.9796 47.9853 -1.2 1.0 0.0 0.0 0.0 0.0
229 3 -1.14475 41.2777 51.7649 -1.2 1.0 0.0 0.0 0.0 0.0
230 3 -1.76671 41.8331 48.8226 -1.2 1.0 0.0 0.0 0.0 0.0
231 1 0.447076 40.3473 46.8135 1.2 1.0 0.0 0.0 0.0 0.0
232 3 0.866985 41.7666 48.385 -1.2 1.0 0.0 0.0 0.0 0.0
233 1 1.87535 40.3376 54.5778 1.2 1.0 0.0 0.0 0.0 1.2241473428244593e-115
234 2 1.92829 43.0021 56.4116 2.4 1.717304158464262e-93 1.9138181181116658e-67 2.3452465687690057e-112 5.1355586765208285e-92 1.000000000000001
235 3 1.92637 41.447 56.4503 -1.2 1.0 2.0315438769484667e-110 1.1244968118478683e-156 8.561478116859128e-135 4.5821213015226254e-38
236 3 1.95891 44.014 52.7248 -1.2 1.0 0.0 0.0 0.0 0.0
237 3 0.655892 43.6983 55.7373 -1.2 1.0 9.365887512635358e-236 0.0 1.360594001300183e-261 1.2334080423198143e-74
238 3 3.21429 43.6745 55.7609 -1.2 1.0 8.714634992269232e-190 6.24868205333618e-265 1.9170071358914804e-216 1.8757145140717506e-62
239 1 0.379928 42.6418 52.2013 1.2 1.0 0.0 0.0 0.0 3.555812685545546e-279
240 1 2.41752 42.366 49.4484 1.2 1.0 0.0 0.0 0.0 0.0
241 2 1.89374 44.6874 51.2398 2.4 0.0 0.0 0.0 0.0 1.0
242 3 2.00266 46.254 51.2996 -1.2 1.0 0.0 0.0 0.0 0.0
243 3 1.93745 43.6702 57.9235 -1.2 0.9999999999986358 1.70835187658617e-25 9.895977296806025e-41 3.270011639954876e-39 1.367959854088049e-12
244 3 0.577464 44.0549 50.6567 -1.2 1.0 0.0 0.0 0.0 0.0
245 1 -2.58906 42.6425 52.3022 1.2 1.0 0.0 0.0 0.0 2.814318153360809e-286
246 3 3.13067 44.0398 50.464 -1.2 1.0 0.0 0.0 0.0 0.0
247 1 -1.08769 42.7031 55.1569 1.2 1.0 6.1914129567184416e-282 0.0 6.923286944319146e-301 6.720111246883817e-78
248 2 -1.08928 40.6055 53.2159 2.4 0.0 0.0 0.0 0.0 1.0
249 3 -1.15621 39.0496 53.1611 -1.2 1.0 0.0 0.0 0.0 1.8952317519866974e-274
250 3 -0.631421 41.9099 46.4159 -1.2 1.0 0.0 0.0 0.0 0.0
251 3 -2.34305 41.2983 53.9806 -1.2 1.0 0.0 0.0 0.0 8.146918328051748e-199
252 3 0.24046 41.3119 53.8636 -1.2 1.0 0.0 0.0 0.0 5.530251732754578e-198
253 1 -2.43258 49.7789 57.3395 1.2 1.0 5.678148266437213e-48 2.7721376514754714e-71 2.767420390442418e-64 7.865217131229669e-20
254 1 -0.961069 49.6502 49.8327 1.2 1.0 0.0 0.0 0.0 0.0
255 2 -0.488083 47.1636 47.9198 2.4 0.0 0.0 0.0 0.0 1.0
256 3 -0.40607 48.7329 47.9837 -1.2 1.0 0.0 0.0 0.0 0.0
257 3 -1.0361 46.031 51.7632 -1.2 1.0 0.0 0.0 0.0 0.0
258 3 -1.65866 46.5866 48.821 -1.2 1.0 0.0 0.0 0.0 0.0
259 1 0.554124 45.1001 46.8117 1.2 1.0 0.0 0.0 0.0 0.0
260 3 0.974961 46.5195 48.3832 -1.2 1.0 0.0 0.0 0.0 0.0
261 1 1.90613 45.0417 54.5798 1.2 1.0 0.0 0.0 0.0 1.4580426696762086e-121
262 2 2.04826 47.7366 56.3429 2.4 4.802928350710958e-111 2.9021991982323444e-81 7.450971328731858e-134 1.6437319323646507e-109 0.9999999999999999
263 3 2.06268 46.1936 56.4803 -1.2 1.0 2.4698247341500316e-102 4.107342360737355e-146 8.301716823395829e-129 3.4149693978315057e-37
264 3 2.0677 48.7672 52.7232 -1.2 1.0 0.0 0.0 0.0 0.0
265 3 0.787353 48.417 55.6466 -1.2 1.0 2.9556273323433208e-267 0.0 4.258474630868773e-293 1.1266728845879215e-84
266 3 3.33755 48.4234 55.7197 -1.2 1.0 5.251004172324581e-200 1.22917772330758e-278 1.4760574330567268e-227 1.3121884982492183e-67
267 1 0.488584 47.395 52.1996 1.2 1.0 0.0 0.0 0.0 2.7368137648922006e-274
268 1 2.52544 47.1195 49.4466 1.2 1.0 0.0 0.0 0.0 0.0
269 2 2.00256 49.4407 51.2382 2.4 0.0 0.0 0.0 0.0 1.0
270 3 2.11156 51.0073 51.2982 -1.2 1.0 0.0 0.0 0.0 0.0
271 3 2.00024 48.4127 57.8589 -1.2 0.9999999999999432 4.870029022396528e-28 5.2507751532532e-44 2.649202449744466e-42 5.420873021321704e-14
272 3 0.686344 48.8082 50.655 -1.2 1.0 0.0 0.0 0.0 0.0
273 1 -2.48039 47.3957 52.3005 1.2 1.0 0.0 0.0 0.0 1.1863903774738004e-291
274 3 3.23944 48.7932 50.4623 -1.2 1.0 0.0 0.0 0.0 0.0
275 1 -0.964896 47.4298 55.0524 1.2 1.0 7.95e-322 0.0 0.0 2.3802124542426784e-89
276 2 -1.01341 45.3338 53.2436 2.4 0.0 0.0 0.0 0.0 1.0
277 3 -1.06493 43.7792 53.1789 -1.2 1.0 0.0 0.0 0.0 3.538333241426125e-272
278 3 -0.523731 46.6632 46.4143 -1.2 1.0 0.0 0.0 0.0 0.0
279 3 -2.29435 46.0239 53.8892 -1.2 1.0 0.0 0.0 0.0 5.107129569076225e-204
280 3 0.246109 46.0268 53.9312 -1.2 1.0 0.0 0.0 0.0 1.7704549202202658e-185
281 1 -2.32489 54.5533 57.4324 1.2 1.0 7.485216613060073e-47 1.6691182002218497e-69 4.446553060717026e-63 5.927251802938936e-20
282 1 -0.852141 54.4034 49.8315 1.2 1.0 0.0 0.0 0.0 0.0
283 2 -0.378544 51.9171 47.9184 2.4 0.0 0.0 0.0 0.0 1.0
284 3 -0.296378 53.4863 47.9823 -1.2 1.0 0.0 0.0 0.0 0.0
285 3 -0.927178 50.7841 51.7618 -1.2 1.0 0.0 0.0 0.0 0.0
286 3 -1.5492 51.3402 48.8196 -1.2 1.0 0.0 0.0 0.0 0.0
287 1 0.663149 49.8533 46.8103 1.2 1.0 0.0 0.0 0.0 0.0
288 3 1.08434 51.2727 48.3819 -1.2 1.0 0.0 0.0 0.0 0.0
289 1 1.99821 49.8675 54.5594 1.2 1.0 0.0 0.0 0.0 1.3948407371414227e-123
290 2 2.15574 52.4894 56.4127 2.4 6.752081633772333e-91 1.0399153199420134e-65 2.2704003529159236e-110 3.6896618969685173e-91 0.9999999999999993
291 3 2.06891 50.9385 56.4384 -1.2 1.0 9.946431167444155e-114 6.575844217766842e-161 2.5805718390665354e-139 9.61472585466088e-42
292 3 2.17678 53.5203 52.7219 -1.2 1.0 0.0 0.0 0.0 0.0
293 3 0.815451 53.1556 55.7686 -1.2 1.0 1.8176414748801932e-224 5.672252954199203e-309 1.5523159140197718e-248 1.3446180392352299e-73
294 3 3.41654 53.1514 55.6909 -1.2 1.0 1.4515698747178078e-186 2.3892788907716513e-260 1.0237860909277452e-213 1.0575082461967353e-64
295 1 0.597515 52.1481 52.1982 1.2 1.0 0.0 0.0 0.0 1.3351243699070351e-279
296 1 2.63482 51.8727 49.4453 1.2 1.0 0.0 0.0 0.0 0.0
297 2 2.11145 54.194 51.237 2.4 0.0 0.0 0.0 0.0 1.0
298 3 2.22036 55.7605 51.2971 -1.2 1.0 0.0 0.0 0.0 0.0
299 3 2.19823 53.1901 57.8844 -1.2 0.9999999999993321 6.8549365024253095e-25 1.589630296955941e-39 2.259660855185883e-38 6.750084985599817e-13
300 3 0.795151 53.5615 50.6538 -1.2 1.0 0.0 0.0 0.0 0.0
301 1 -2.37147 52.1489 52.2994 1.2 1.0 0.0 0.0 0.0 6.477966107313106e-289
302 3 3.34826 53.5466 50.4608 -1.2 1.0 0.0 0.0 0.0 0.0
303 1 -0.88344 52.2244 55.1263 1.2 1.0 1.1020065788761356e-278 0.0 4.442447851246915e-301 6.864614692774276e-81
304 2 -0.946641 50.1142 53.2463 2.4 0.0 0.0 0.0 0.0 1.0
305 3 -0.970993 48.528 53.195 -1.2 1.0 0.0 0.0 0.0 1.498850346657487e-279
306 3 -0.414295 51.4167 46.4129 -1.2 1.0 0.0 0.0 0.0 0.0
307 3 -2.23357 50.7874 53.899 -1.2 1.0 0.0 0.0 0.0 2.366625823080946e-210
308 3 0.313094 50.7918 53.9164 -1.2 1.0 0.0 0.0 0.0 1.397950966341181e-190
309 1 -2.20914 59.2563 57.4092 1.2 1.0 4.052627065821471e-46 3.432872343892459e-68 9.167090790995653e-62 1.2255527381430375e-19
310 1 -0.743708 59.1569 49.8307 1.2 1.0 0.0 0.0 0.0 0.0
311 2 -0.269405 56.6708 47.9174 2.4 0.0 0.0 0.0 0.0 1.0
312 3 -0.187669 58.2401 47.9814 -1.2 1.0 0.0 0.0 0.0 0.0
313 3 -0.818478 55.5373 51.7607 -1.2 1.0 0.0 0.0 0.0 0.0
314 3 -1.44003 56.0936 48.8185 -1.2 1.0 0.0 0.0 0.0 0.0
315 1 0.772639 54.6072 46.8092 1.2 1.0 0.0 0.0 0.0 0.0
316 3 1.19351 56.0266 48.3809 -1.2 1.0 0.0 0.0 0.0 0.0
317 1 2.24573 54.644 54.5475 1.2 1.0 0.0 0.0 0.0 4.815353210775169e-120
318 2 2.22418 57.2099 56.3394 2.4 7.268891905635879e-112 1.468157305746945e-82 3.676320201492305e-135 5.915661726294945e-111 0.9999999999999999
319 3 2.204 55.6779 56.4432 -1.2 1.0 2.9135172371816924e-113 3.8678539522762267e-159 9.209011628911499e-137 2.376974968179799e-41
320 3 2.28552 58.2735 52.7209 -1.2 1.0 0.0 0.0 0.0 0.0
321 3 0.941064 57.927 55.6781 -1.2 1.0 3.885955754618575e-256 0.0 1.801777002128475e-281 2.521929544715393e-83
322 3 3.50299 57.914 55.6987 -1.2 1.0 2.015834176324803e-195 1.2532539457006637e-270 1.6326459291157695e-221 1.3039224215419982e-67
323 1 0.706198 56.9012 52.1971 1.2 1.0 0.0 0.0 0.0 1.1881410106880079e-279
324 1 2.74404 56.6261 49.4443 1.2 1.0 0.0 0.0 0.0 0.0
325 2 2.21991 58.9473 51.2362 2.4 0.0 0.0 0.0 0.0 1.0
326 3 2.32845 60.5139 51.2962 -1.2 1.0 0.0 0.0 0.0 0.0
327 3 2.24465 57.9344 57.8314 -1.2 0.9999999999998863 2.1117603248232736e-27 9.720366579047423e-43 3.1070279428670243e-41 1.1057507382961176e-13
328 3 0.903509 58.3149 50.6531 -1.2 1.0 0.0 0.0 0.0 0.0
329 1 -2.26283 56.9019 52.2988 1.2 1.0 0.0 0.0 0.0 6.140408026095138e-291
330 3 3.45667 58.3001 50.4597 -1.2 1.0 0.0 0.0 0.0 0.0
331 1 -0.792958 56.9777 55.0385 1.2 1.0 5.04e-322 0.0 0.0 1.9216092134085599e-90
332 2 -0.782291 54.8468 53.2013 2.4 0.0 0.0 0.0 0.0 1.0
333 3 -0.86321 53.31 53.1636 -1.2 1.0 0.0 0.0 0.0 1.0854684013581098e-281
334 3 -0.304995 56.1705 46.4119 -1.2 1.0 0.0 0.0 0.0 0.0
335 3 -2.04209 55.5571 53.8797 -1.2 1.0 0.0 0.0 0.0 8.332739218322508e-215
336 3 0.503969 55.5098 53.8804 -1.2 1.0 0.0 0.0 0.0 3.6857156592662984e-199
337 1 -2.14889 64.0667 57.5058 1.2 1.0 9.484239367218828e-47 1.1150060097540512e-68 1.7888848493067294e-62 5.461594649780155e-20
338 1 -0.636972 63.9105 49.8301 1.2 1.0 0.0 0.0 0.0 0.0
339 2 -0.161217 61.4249 47.9168 2.4 0.0 0.0 0.0 0.0 1.0
340 3 -0.0799602 62.9942 47.9808 -1.2 1.0 0.0 0.0 0.0 0.0
341 3 -0.71051 60.2905 51.7601 -1.2 1.0 0.0 0.0 0.0 0.0
342 3 -1.33142 60.8473 48.8182 -1.2 1.0 0.0 0.0 0.0 0.0
343 1 0.880515 59.3614 46.808 1.2 1.0 0.0 0.0 0.0 0.0
344 3 1.30191 60.7808 48.3796 -1.2 1.0 0.0 0.0 0.0 0.0
345 1 2.28377 59.3866 54.5122 1.2 1.0 0.0 0.0 0.0 3.1599090478172237e-125
346 2 2.31644 62.002 56.3705 2.4 2.3545080639107026e-106 1.5289713491262673e-78 1.9252009291952718e-128 1.834889282737838e-105 1.0000000000000002
347 3 2.31033 60.4529 56.4423 -1.2 1.0 1.4558338573400477e-112 1.896082350837607e-158 1.0739585419173039e-136 1.5614725515279217e-41
348 3 2.39322 63.0266 52.7201 -1.2 1.0 0.0 0.0 0.0 0.0
349 3 1.03388 62.7083 55.7308 -1.2 1.0 4.643535437602573e-235 1.196e-321 6.504311214804575e-259 8.873186170127069e-78
350 3 3.59645 62.6751 55.6776 -1.2 1.0 5.874903626688886e-204 8.203218301501193e-281 7.253314638504063e-228 1.4280644161728662e-69
351 1 0.813856 61.6544 52.1964 1.2 1.0 0.0 0.0 0.0 4.578046230629403e-280
352 1 2.85244 61.3793 49.4433 1.2 1.0 0.0 0.0 0.0 0.0
353 2 2.32661 63.7006 51.2354 2.4 0.0 0.0 0.0 0.0 1.0
354 3 2.43416 65.2673 51.2956 -1.2 1.0 0.0 0.0 0.0 0.0
355 3 2.36154 62.6423 57.8927 -1.2 0.9999999999998437 3.3989753509485194e-26 7.704738261865136e-41 1.8714986301188764e-39 1.6171146733317715e-13
356 3 1.00987 63.0684 50.653 -1.2 1.0 0.0 0.0 0.0 0.0
357 1 -2.15526 61.6549 52.2986 1.2 1.0 0.0 0.0 0.0 5.79274320375576e-289
358 3 3.56306 63.054 50.4581 -1.2 1.0 0.0 0.0 0.0 0.0
359 1 -0.673725 61.7829 55.1025 1.2 1.0 1.0219286108035887e-297 0.0 1.16811e-318 9.385652660517462e-86
360 2 -0.679616 59.6006 53.246 2.4 0.0 0.0 0.0 0.0 1.0
361 3 -0.768585 58.0309 53.1798 -1.2 1.0 0.0 0.0 0.0 1.2777062150826247e-278
362 3 -0.197347 60.9246 46.4112 -1.2 1.0 0.0 0.0 0.0 0.0
363 3 -1.9623 60.3353 53.8849 -1.2 1.0 0.0 0.0 0.0 4.055632620642336e-213
364 3 0.599258 60.2467 53.8955 -1.2 1.0 0.0 0.0 0.0 9.402498686545616e-196
365 1 -1.98308 68.7806 57.5163 1.2 1.0 9.126163905005794e-48 5.257738632542501e-70 1.1241955814001526e-63 1.4980012478661459e-18
366 1 -0.533443 68.6636 49.8296 1.2 1.0 0.0 0.0 0.0 0.0
367 2 -0.0548096 66.1789 47.9162 2.4 0.0 0.0 0.0 0.0 1.0
368 3 0.0255715 67.7482 47.9801 -1.2 1.0 0.0 0.0 0.0 0.0
369 3 -0.605209 65.0437 51.7598 -1.2 1.0 0.0 0.0 0.0 0.0
370 3 -1.22454 65.6011 48.818 -1.2 1.0 0.0 0.0 0.0 0.0
371 1 0.987386 64.1158 46.807 1.2 1.0 0.0 0.0 0.0 0.0
372 3 1.4086 65.5353 48.3785 -1.2 1.0 0.0 0.0 0.0 0.0
373 1 2.39593 64.0913 54.5018 1.2 1.0 0.0 0.0 0.0 3.3531562079941835e-129
374 2 2.4707 66.7659 56.349 2.4 1.3864824865524905e-112 7.002026706501383e-83 1.202268930413551e-133 3.9859498898590494e-110 1.0
375 3 2.38451 65.19 56.457 -1.2 1.0 2.1137812959226282e-104 1.1949255111580788e-146 2.0612241586305597e-127 2.208830148018273e-39
376 3 2.49801 67.7798 52.7194 -1.2 1.0 0.0 0.0 0.0 0.0
377 3 1.15525 67.4726 55.7955 -1.2 1.0 3.9266504143399954e-232 9.129656e-318 1.1322785010368315e-255 3.531692745581096e-76
378 3 3.76155 67.4288 55.7105 -1.2 1.0 2.6377047667457685e-197 3.603560540564569e-272 3.431484632018795e-221 6.894813119069797e-67
379 1 0.918773 66.4074 52.1957 1.2 1.0 0.0 0.0 0.0 3.1332775720154515e-279
380 1 2.95913 66.1322 49.4427 1.2 1.0 0.0 0.0 0.0 0.0
381 2 2.43017 68.4538 51.2348 2.4 0.0 0.0 0.0 0.0 1.0
382 3 2.53642 70.0208 51.2951 -1.2 1.0 0.0 0.0 0.0 0.0
383 3 2.50763 67.4391 57.8742 -1.2 0.9999999999998721 8.524416346003644e-29 1.7322452042220516e-44 1.859002180848175e-42 1.3453691418272095e-13
384 3 1.11294 67.8218 50.6533 -1.2 1.0 0.0 0.0 0.0 0.0
385 1 -2.0505 66.4078 52.2991 1.2 1.0 0.0 0.0 0.0 1.599102348781175e-302
386 3 3.66629 67.8078 50.4567 -1.2 1.0 0.0 0.0 0.0 0.0