ITEM: TIMESTEP
3800
ITEM: NUMBER OF ATOMS
10500
ITEM: BOX BOUNDS xy xz yz pp pp pp
0	8.9688	2.9896
0	118.725	0
0	252.977	0
ITEM: ATOMS id type xu yu zu q pCrystal pDisloC pSF pDisloB pDisloA
1 1 -3.38224 7.00992 57.4215 1.2 1.0 2.63372662705954e-53 4.372684823940352e-79 5.0192655651722825e-71 7.984348189197188e-22
2 1 -1.82655 6.90154 50.0912 1.2 1.0 0.0 0.0 0.0 0.0
3 2 -0.257935 3.96038 48.0876 2.4 0.0 0.0 0.0 0.0 1.0
4 3 -0.335812 5.46814 47.6264 -1.2 1.0 0.0 0.0 0.0 0.0
5 3 -2.03793 3.43377 51.8941 -1.2 1.0 0.0 0.0 0.0 0.0
6 3 -1.54015 3.53929 48.9521 -1.2 1.0 0.0 0.0 0.0 0.0
7 1 1.82954 2.54582 47.1376 1.2 1.0 0.0 0.0 0.0 0.0
8 3 1.22989 3.66364 48.7877 -1.2 1.0 0.0 0.0 0.0 0.0
9 1 0.986753 2.26479 54.5992 1.2 1.0 0.0 0.0 0.0 5.882054083078706e-120
10 2 1.08699 4.95421 56.406 2.4 1.1360424810371915e-104 2.106472523100402e-77 3.532332775742806e-126 4.181675739646096e-104 0.9999999999999999
11 3 1.0678 3.43879 56.5647 -1.2 1.0 6.989518460638931e-129 1.5656109853261843e-177 2.746679448030532e-150 2.4854055227863917e-46
12 3 1.10813 6.07342 52.8172 -1.2 1.0 0.0 0.0 0.0 0.0
13 3 -0.213396 5.66782 55.7716 -1.2 1.0 4.595709234447093e-229 4.734397868962596e-309 2.8786961616114425e-249 5.570086654770897e-77
14 3 2.33005 5.69592 55.7374 -1.2 1.0 3.495404453850942e-207 4.50066833170221e-282 8.905982234921707e-229 1.101078089553248e-71
15 1 -0.459401 4.67631 52.2426 1.2 1.0 0.0 0.0 0.0 3.3268024466e-314
16 1 2.79456 3.9971 49.9987 1.2 1.0 0.0 0.0 0.0 0.0
17 2 1.16169 6.59457 51.2556 2.4 0.0 0.0 0.0 0.0 1.0
18 3 1.28989 8.18905 51.2909 -1.2 1.0 0.0 0.0 0.0 0.0
19 3 1.10471 5.67125 57.917 -1.2 0.9999999999999005 1.805354971688417e-29 3.7252325853916545e-47 8.752015293743321e-44 9.812535972910776e-14
20 3 -0.184847 6.06029 50.6845 -1.2 1.0 0.0 0.0 0.0 0.0
21 1 -3.49704 4.67769 52.6661 1.2 1.0 0.0 0.0 0.0 1.188831754975614e-257
22 3 2.48581 5.93312 50.6539 -1.2 1.0 0.0 0.0 0.0 0.0
23 1 -1.91873 4.7274 55.2072 1.2 1.0 6.76628380746481e-275 0.0 1.617412301660853e-291 1.762985890255126e-83
24 2 -1.97909 2.66173 53.3082 2.4 0.0 0.0 0.0 0.0 1.0
25 3 -2.00359 1.07745 53.2289 -1.2 1.0 0.0 0.0 0.0 1.1400746939505346e-288
26 3 -0.0467762 2.97103 46.8385 -1.2 1.0 0.0 0.0 0.0 0.0
27 3 -3.22157 3.28463 54.0989 -1.2 1.0 0.0 0.0 0.0 6.542920896761413e-198
28 3 -0.66886 3.2664 53.9909 -1.2 1.0 0.0 0.0 0.0 2.381561690019534e-215
29 1 -3.3093 11.7878 57.451 1.2 1.0 2.3999936090959188e-54 3.689695936231375e-80 5.53807641674829e-72 3.33971562827884e-21
30 1 -1.75014 11.5838 49.8362 1.2 1.0 0.0 0.0 0.0 0.0
31 2 -1.18003 9.02138 47.9309 2.4 0.0 0.0 0.0 0.0 1.0
32 3 -1.23224 10.5991 47.9811 -1.2 1.0 0.0 0.0 0.0 0.0
33 3 -1.79016 8.01447 51.8693 -1.2 1.0 0.0 0.0 0.0 0.0
34 3 -2.30986 8.37215 48.8528 -1.2 1.0 0.0 0.0 0.0 0.0
35 1 0.154883 7.08234 46.8007 1.2 1.0 0.0 0.0 0.0 0.0
36 3 0.325447 8.50934 48.3809 -1.2 1.0 0.0 0.0 0.0 0.0
37 1 1.17543 7.12312 54.6077 1.2 1.0 0.0 0.0 0.0 3.8513553025800326e-120
38 2 1.15414 9.71698 56.4583 2.4 1.7997773485839072e-108 1.4162456332477226e-79 8.032311192972515e-131 1.7327790383627094e-107 1.0000000000000004
39 3 1.10829 8.19407 56.4958 -1.2 1.0 6.484711568312426e-107 1.9887688968802712e-150 6.195411132857702e-131 4.335491249634195e-40
40 3 1.28624 10.7248 52.7351 -1.2 1.0 0.0 0.0 0.0 0.0
41 3 -0.0801862 10.471 55.7704 -1.2 1.0 1.9667622238227794e-252 0.0 4.516969203746828e-276 7.664767087758137e-81
42 3 2.44245 10.3755 55.7662 -1.2 1.0 1.6646866086973255e-209 2.0392423988386606e-289 1.6927230782154305e-235 8.561380639121486e-70
43 1 -0.262694 9.34741 52.2523 1.2 1.0 0.0 0.0 0.0 1.3130031309200914e-272
44 1 1.87648 9.01537 49.4629 1.2 1.0 0.0 0.0 0.0 0.0
45 2 1.21415 11.3799 51.2378 2.4 0.0 0.0 0.0 0.0 1.0
46 3 1.31634 12.9512 51.3023 -1.2 1.0 0.0 0.0 0.0 0.0
47 3 1.16936 10.4208 57.931 -1.2 0.9999999999999574 2.3121013917586675e-31 2.242240442531716e-49 4.170890537144128e-46 4.583139485558718e-14
48 3 -0.115718 10.7564 50.681 -1.2 1.0 0.0 0.0 0.0 0.0
49 1 -3.26386 9.35564 52.3622 1.2 1.0 0.0 0.0 0.0 8.912465024883646e-284
50 3 2.45216 10.7265 50.4558 -1.2 1.0 0.0 0.0 0.0 0.0
51 1 -1.72859 9.47189 55.1432 1.2 1.0 2.935e-321 0.0 0.0 3.4165132480924335e-90
52 2 -1.79867 7.36728 53.3686 2.4 0.0 0.0 0.0 0.0 1.0
53 3 -1.90033 5.80007 53.2927 -1.2 1.0 0.0 0.0 0.0 8.942316251310686e-272
54 3 -1.19417 8.46968 46.4488 -1.2 1.0 0.0 0.0 0.0 0.0
55 3 -3.07813 8.07212 54.0322 -1.2 1.0 0.0 0.0 0.0 2.7066035112409208e-195
56 3 -0.502962 8.05352 53.982 -1.2 1.0 0.0 0.0 0.0 1.920906519649051e-188
57 1 -3.17528 16.5424 57.412 1.2 1.0 5.3149749156244506e-52 3.898430102688421e-77 5.057161349355674e-69 6.589573513984818e-20
58 1 -1.6714 16.3544 49.8412 1.2 1.0 0.0 0.0 0.0 0.0
59 2 -1.18567 13.8526 47.9314 2.4 0.0 0.0 0.0 0.0 1.0
60 3 -1.09664 15.4205 47.9915 -1.2 1.0 0.0 0.0 0.0 0.0
61 3 -1.73493 12.7491 51.7772 -1.2 1.0 0.0 0.0 0.0 0.0
62 3 -2.36115 13.2717 48.8238 -1.2 1.0 0.0 0.0 0.0 0.0
63 1 -0.159928 11.7639 46.8533 1.2 1.0 0.0 0.0 0.0 0.0
64 3 0.2623 13.1866 48.413 -1.2 1.0 0.0 0.0 0.0 0.0
65 1 1.27235 11.8201 54.5266 1.2 1.0 0.0 0.0 0.0 9.493869243420155e-134
66 2 1.25033 14.4671 56.3832 2.4 5.897945653328039e-109 1.5223426489579392e-78 1.3494163918702188e-129 6.950213029822233e-106 1.0
67 3 1.23584 12.9156 56.4797 -1.2 1.0 1.671552486336471e-107 1.511861028260708e-153 9.037962654345912e-135 2.339215708984288e-38
68 3 1.36565 15.4813 52.729 -1.2 1.0 0.0 0.0 0.0 0.0
69 3 -0.00207529 15.1638 55.7396 -1.2 1.0 8.850082817942733e-240 0.0 1.1958656089953204e-266 2.885195515700226e-75
70 3 2.55574 15.1344 55.7326 -1.2 1.0 2.8089543215971246e-203 2.819554938475758e-283 1.133773177436348e-230 6.624891754249911e-66
71 1 -0.206989 14.1049 52.2121 1.2 1.0 0.0 0.0 0.0 5.4416558307382315e-276
72 1 1.82591 13.8102 49.4556 1.2 1.0 0.0 0.0 0.0 0.0
73 2 1.29285 16.1518 51.2434 2.4 0.0 0.0 0.0 0.0 1.0
74 3 1.39496 17.7199 51.3047 -1.2 1.0 0.0 0.0 0.0 0.0
75 3 1.275 15.1428 57.8981 -1.2 0.9999999999998863 3.6669645202451896e-30 1.6082477160604844e-47 9.655029547354744e-45 1.1277526706382905e-13
76 3 -0.0269106 15.5178 50.6688 -1.2 1.0 0.0 0.0 0.0 0.0
77 1 -3.18391 14.1057 52.3125 1.2 1.0 0.0 0.0 0.0 1.9677936720204148e-291
78 3 2.52432 15.503 50.4579 -1.2 1.0 0.0 0.0 0.0 0.0
79 1 -1.66836 14.1729 55.1452 1.2 1.0 1.0636045700067753e-288 0.0 2.57787904491e-312 3.412505628183484e-80
80 2 -1.72373 12.0794 53.2663 2.4 0.0 0.0 0.0 0.0 1.0
81 3 -1.75472 10.5246 53.2038 -1.2 1.0 0.0 0.0 0.0 5.888184370972871e-277
82 3 -1.21337 13.3381 46.4311 -1.2 1.0 0.0 0.0 0.0 0.0
83 3 -2.9751 12.7779 53.9639 -1.2 1.0 0.0 0.0 0.0 5.1266303956331175e-219
84 3 -0.428956 12.7514 53.9002 -1.2 1.0 0.0 0.0 0.0 8.285939607115985e-201
85 1 -3.10528 21.2457 57.4482 1.2 1.0 4.7551817238479866e-52 4.574524432316279e-77 2.793002458071605e-69 6.413974223706342e-21
86 1 -1.5831 21.1217 49.8405 1.2 1.0 0.0 0.0 0.0 0.0
87 2 -1.09384 18.6291 47.9287 2.4 0.0 0.0 0.0 0.0 1.0
88 3 -1.02071 20.1985 47.9911 -1.2 1.0 0.0 0.0 0.0 0.0
89 3 -1.65002 17.5002 51.771 -1.2 1.0 0.0 0.0 0.0 0.0
90 3 -2.26174 18.0434 48.8281 -1.2 1.0 0.0 0.0 0.0 0.0
91 1 -0.0440435 16.5651 46.8269 1.2 1.0 0.0 0.0 0.0 0.0
92 3 0.37001 17.9877 48.3925 -1.2 1.0 0.0 0.0 0.0 0.0
93 1 1.39893 16.5116 54.5513 1.2 1.0 0.0 0.0 0.0 3.2718307636066516e-120
94 2 1.36283 19.2237 56.3785 2.4 7.410350376764148e-117 6.173939901837283e-85 6.550668226960275e-140 8.682217027934798e-114 1.0
95 3 1.32003 17.6563 56.4924 -1.2 1.0 1.059328092755112e-102 1.2109036565204209e-146 9.507929950723551e-129 1.0811228570214312e-36
96 3 1.45147 20.239 52.7294 -1.2 1.0 0.0 0.0 0.0 0.0
97 3 0.0809807 19.8965 55.7084 -1.2 1.0 2.773614304256225e-262 0.0 1.0026344509064993e-290 1.01510304112208e-82
98 3 2.6419 19.889 55.7065 -1.2 1.0 5.491278523724722e-206 2.896922480729275e-287 3.382594955505898e-234 1.011505500947794e-68
99 1 -0.126194 18.8651 52.2079 1.2 1.0 0.0 0.0 0.0 8.765693340431849e-276
100 1 1.92402 18.5815 49.4545 1.2 1.0 0.0 0.0 0.0 0.0
101 2 1.38106 20.9117 51.2443 2.4 0.0 0.0 0.0 0.0 1.0
102 3 1.48527 22.4795 51.3054 -1.2 1.0 0.0 0.0 0.0 0.0
103 3 1.35242 19.8954 57.8849 -1.2 0.9999999999999858 1.1720284285756792e-31 6.485044676526235e-50 1.734951183352683e-46 1.7832216360850326e-14
104 3 0.0615419 20.2804 50.6669 -1.2 1.0 0.0 0.0 0.0 0.0
105 1 -3.09665 18.8643 52.3122 1.2 1.0 0.0 0.0 0.0 5.925992947666552e-287
106 3 2.61548 20.2646 50.4626 -1.2 1.0 0.0 0.0 0.0 0.0
107 1 -1.61041 18.9551 55.0707 1.2 1.0 0.0 0.0 0.0 7.081029959512347e-90
108 2 -1.62516 16.8319 53.2796 2.4 0.0 0.0 0.0 0.0 1.0
109 3 -1.62097 15.2938 53.1689 -1.2 1.0 0.0 0.0 0.0 4.8944093468166274e-279
110 3 -1.12868 18.1227 46.4249 -1.2 1.0 0.0 0.0 0.0 0.0
111 3 -2.87167 17.5238 53.9708 -1.2 1.0 0.0 0.0 0.0 1.8554374794043422e-206
112 3 -0.275798 17.5212 53.9025 -1.2 1.0 0.0 0.0 0.0 1.0263391758326981e-199
113 1 -2.99211 26.0138 57.45 1.2 1.0 8.149777639432448e-50 1.2862251040943438e-73 1.8803120117287874e-66 6.11371602459744e-20
114 1 -1.48778 25.88 49.8402 1.2 1.0 0.0 0.0 0.0 0.0
115 2 -1.00491 23.3922 47.9274 2.4 0.0 0.0 0.0 0.0 1.0
116 3 -0.927602 24.9615 47.9909 -1.2 1.0 0.0 0.0 0.0 0.0
117 3 -1.55795 22.2588 51.7696 -1.2 1.0 0.0 0.0 0.0 0.0
118 3 -2.17411 22.8111 48.8277 -1.2 1.0 0.0 0.0 0.0 0.0
119 1 0.0423997 21.3296 46.8225 1.2 1.0 0.0 0.0 0.0 0.0
120 3 0.458537 22.7495 48.3911 -1.2 1.0 0.0 0.0 0.0 0.0
121 1 1.43259 21.3034 54.5707 1.2 1.0 0.0 0.0 0.0 1.8686728862443372e-125
122 2 1.47697 23.9507 56.3979 2.4 3.262415177581601e-106 3.591154182350844e-77 1.197329080556523e-127 9.290821677485277e-105 1.0000000000000002
123 3 1.41957 22.4073 56.471 -1.2 1.0 8.038161491879267e-104 4.609071134964156e-148 5.507719956194145e-130 8.439307660929819e-38
124 3 1.54441 24.9963 52.7297 -1.2 1.0 0.0 0.0 0.0 0.0
125 3 0.186495 24.6552 55.7274 -1.2 1.0 6.260226427754916e-247 0.0 8.19712490700555e-274 4.7092073705570913e-79
126 3 2.75237 24.642 55.7677 -1.2 1.0 5.227335719939528e-192 9.930246654005454e-268 3.289497666995701e-219 8.124108811415261e-65
127 1 -0.0335968 23.6229 52.2067 1.2 1.0 0.0 0.0 0.0 2.631500014095125e-275
128 1 2.01073 23.3445 49.4541 1.2 1.0 0.0 0.0 0.0 0.0
129 2 1.47594 25.6699 51.2449 2.4 0.0 0.0 0.0 0.0 1.0
130 3 1.58172 27.2371 51.3054 -1.2 1.0 0.0 0.0 0.0 0.0
131 3 1.48326 24.6342 57.8932 -1.2 0.9999999999999432 4.593580454147782e-28 1.1553217871290573e-44 2.2399980523427772e-42 5.975999348555551e-14
132 3 0.157925 25.0378 50.6651 -1.2 1.0 0.0 0.0 0.0 0.0
133 1 -3.00341 23.6231 52.3098 1.2 1.0 0.0 0.0 0.0 1.4981041198585033e-286
134 3 2.71149 25.0232 50.4656 -1.2 1.0 0.0 0.0 0.0 0.0
135 1 -1.51525 23.6996 55.0886 1.2 1.0 1.64561755e-316 0.0 0.0 3.467623957244612e-88
136 2 -1.54536 21.5434 53.2503 2.4 0.0 0.0 0.0 0.0 1.0
137 3 -1.5992 19.9901 53.146 -1.2 1.0 0.0 0.0 0.0 1.3218573389798994e-285
138 3 -1.03938 22.8897 46.4223 -1.2 1.0 0.0 0.0 0.0 0.0
139 3 -2.80037 22.2306 53.9515 -1.2 1.0 0.0 0.0 0.0 8.842340144927264e-212
140 3 -0.236285 22.2379 53.8906 -1.2 1.0 0.0 0.0 0.0 1.5754688866186115e-199
141 1 -2.81107 30.7225 57.3796 1.2 1.0 8.797171883545311e-50 1.0753545273370666e-73 2.0239184639093283e-66 3.5940611392496954e-20
142 1 -1.38776 30.6357 49.8391 1.2 1.0 0.0 0.0 0.0 0.0
143 2 -0.907929 28.1491 47.9262 2.4 0.0 0.0 0.0 0.0 1.0
144 3 -0.829229 29.7184 47.99 -1.2 1.0 0.0 0.0 0.0 0.0
145 3 -1.45946 27.0152 51.769 -1.2 1.0 0.0 0.0 0.0 0.0
146 3 -2.07744 27.5697 48.8273 -1.2 1.0 0.0 0.0 0.0 0.0
147 1 0.137907 26.087 46.819 1.2 1.0 0.0 0.0 0.0 0.0
148 3 0.55579 27.5065 48.3893 -1.2 1.0 0.0 0.0 0.0 0.0
149 1 1.49147 26.1063 54.5349 1.2 1.0 0.0 0.0 0.0 4.1066009973626515e-125
150 2 1.57572 28.7029 56.375 2.4 2.3345507139171386e-110 1.319897041474219e-81 1.052738740933697e-133 1.4480281704319044e-109 1.0
151 3 1.51534 27.1423 56.4918 -1.2 1.0 1.3783614885769426e-95 5.219511119360011e-136 4.276847627506142e-120 3.6615731656344564e-35
152 3 1.6432 29.7522 52.7291 -1.2 1.0 0.0 0.0 0.0 0.0
153 3 0.299453 29.3758 55.7241 -1.2 1.0 1.326964897803687e-250 0.0 2.2566962666891577e-276 1.2615552935601043e-79
154 3 2.84724 29.367 55.7354 -1.2 1.0 5.8564569615500055e-193 7.272945603569692e-269 5.8394464053381566e-220 8.866777040597885e-65
155 1 0.0647462 28.3794 52.2059 1.2 1.0 0.0 0.0 0.0 1.1527644518527074e-274
156 1 2.10696 28.1021 49.4531 1.2 1.0 0.0 0.0 0.0 0.0
157 2 1.57592 30.4257 51.2442 2.4 0.0 0.0 0.0 0.0 1.0
158 3 1.68288 31.9926 51.3043 -1.2 1.0 0.0 0.0 0.0 0.0
159 3 1.59513 29.4084 57.8983 -1.2 0.9999999999998437 1.2442711566990812e-27 1.8241674735699496e-43 1.3227596518338076e-41 1.5325992548825727e-13
160 3 0.258524 29.7935 50.6632 -1.2 1.0 0.0 0.0 0.0 0.0
161 1 -2.90462 28.3797 52.308 1.2 1.0 0.0 0.0 0.0 1.32761092460909e-288
162 3 2.81205 29.7787 50.4664 -1.2 1.0 0.0 0.0 0.0 0.0
163 1 -1.38963 28.4109 55.1479 1.2 1.0 5.259562005656272e-287 0.0 2.0214153360518425e-307 2.8525920368051466e-80
164 2 -1.47791 26.3472 53.2417 2.4 0.0 0.0 0.0 0.0 1.0
165 3 -1.47131 24.7854 53.1952 -1.2 1.0 0.0 0.0 0.0 3.904857115645037e-273
166 3 -0.943026 27.648 46.4208 -1.2 1.0 0.0 0.0 0.0 0.0
167 3 -2.78304 27.0236 53.9232 -1.2 1.0 0.0 0.0 0.0 5.8844648933220744e-207
168 3 -0.192131 27.0314 53.9041 -1.2 1.0 0.0 0.0 0.0 3.721978052823504e-196
169 1 -2.67822 35.4928 57.3565 1.2 1.0 3.29869913153307e-48 2.012467547453572e-71 4.491816524251872e-64 4.845982395784978e-20
170 1 -1.28421 35.3899 49.8376 1.2 1.0 0.0 0.0 0.0 0.0
171 2 -0.807101 32.9036 47.9247 2.4 0.0 0.0 0.0 0.0 1.0
172 3 -0.727174 34.4729 47.9885 -1.2 1.0 0.0 0.0 0.0 0.0
173 3 -1.35735 31.7701 51.768 -1.2 1.0 0.0 0.0 0.0 0.0
174 3 -1.97695 32.3253 48.826 -1.2 1.0 0.0 0.0 0.0 0.0
175 1 0.237665 30.8412 46.8168 1.2 1.0 0.0 0.0 0.0 0.0
176 3 0.656562 32.2608 48.3877 -1.2 1.0 0.0 0.0 0.0 0.0
177 1 1.66297 30.8222 54.5179 1.2 1.0 0.0 0.0 0.0 5.18246135529312e-125
178 2 1.72067 33.4223 56.3414 2.4 9.118752957220863e-111 1.0013979896522294e-82 5.162053942905778e-136 1.1345148218258309e-110 1.0
179 3 1.67822 31.8748 56.4057 -1.2 1.0 2.9827519055684583e-121 1.1636078002548197e-170 2.290762840793821e-146 1.208994979247774e-43
180 3 1.74574 34.5067 52.7279 -1.2 1.0 0.0 0.0 0.0 0.0
181 3 0.442657 34.1598 55.7013 -1.2 1.0 1.1170581612174044e-257 0.0 3.4329076132882286e-283 6.10824593835487e-82
182 3 2.96863 34.0968 55.6566 -1.2 1.0 2.491033963524454e-199 5.536126550137754e-277 7.814720818932742e-226 3.930537904422276e-67
183 1 0.167046 33.1343 52.2045 1.2 1.0 0.0 0.0 0.0 1.8557436218224503e-272
184 1 2.20727 32.8578 49.4516 1.2 1.0 0.0 0.0 0.0 0.0
185 2 1.67943 35.1802 51.2429 2.4 0.0 0.0 0.0 0.0 1.0
186 3 1.78736 36.747 51.303 -1.2 1.0 0.0 0.0 0.0 0.0
187 3 1.77339 34.0554 57.847 -1.2 0.9999999999998721 1.457295365794256e-27 2.9380903604345775e-43 1.766941438513018e-41 1.2169766437356844e-13
188 3 0.362533 34.5479 50.661 -1.2 1.0 0.0 0.0 0.0 0.0
189 1 -2.80215 33.1347 52.3062 1.2 1.0 0.0 0.0 0.0 1.9122772170738741e-286
190 3 2.91593 34.533 50.466 -1.2 1.0 0.0 0.0 0.0 0.0
191 1 -1.27774 33.1979 55.099 1.2 1.0 1.8691989859074147e-301 0.0 1.14e-322 1.5763276220015574e-84
192 2 -1.33138 31.0706 53.278 2.4 0.0 0.0 0.0 0.0 1.0
193 3 -1.3946 29.5118 53.1838 -1.2 1.0 0.0 0.0 0.0 2.855427576884543e-278
194 3 -0.842495 32.4028 46.4192 -1.2 1.0 0.0 0.0 0.0 0.0
195 3 -2.60802 31.7547 53.9509 -1.2 1.0 0.0 0.0 0.0 3.5873027234824235e-206
196 3 -0.0579469 31.7588 53.8856 -1.2 1.0 0.0 0.0 0.0 1.2235514164149222e-195
197 1 -2.6408 40.2697 57.4178 1.2 1.0 1.3668465039964502e-50 5.815872953906221e-75 2.886409812982035e-67 3.02490696454356e-21
198 1 -1.17787 40.1435 49.8359 1.2 1.0 0.0 0.0 0.0 0.0
199 2 -0.702692 37.6572 47.9231 2.4 0.0 0.0 0.0 0.0 1.0
200 3 -0.621782 39.2264 47.9868 -1.2 1.0 0.0 0.0 0.0 0.0
201 3 -1.25221 36.5242 51.7666 -1.2 1.0 0.0 0.0 0.0 0.0
202 3 -1.87295 37.0796 48.8243 -1.2 1.0 0.0 0.0 0.0 0.0
203 1 0.341084 35.5943 46.8152 1.2 1.0 0.0 0.0 0.0 0.0
204 3 0.760681 37.0138 48.3864 -1.2 1.0 0.0 0.0 0.0 0.0
205 1 1.74644 35.5378 54.5497 1.2 1.0 0.0 0.0 0.0 4.404799053164331e-120
206 2 1.8357 38.1939 56.3755 2.4 9.303396751289313e-104 2.5441542402603922e-77 8.759136372780103e-128 2.4273690568815562e-104 1.0000000000000002
207 3 1.82543 36.6499 56.4829 -1.2 1.0 5.443301603832935e-102 2.928881258029635e-145 7.319370140662824e-128 2.5964678804461796e-38
208 3 1.85132 39.2606 52.7264 -1.2 1.0 0.0 0.0 0.0 0.0
209 3 0.600262 38.9015 55.6531 -1.2 1.0 1.1853585275813757e-267 0.0 7.447048689466709e-295 5.944438779807222e-87
210 3 3.15894 38.9018 55.7524 -1.2 1.0 3.419678818458318e-190 1.0665560032796166e-265 5.869987270512374e-218 1.660293425392687e-65
211 1 0.272384 37.8883 52.2029 1.2 1.0 0.0 0.0 0.0 4.9652745510146965e-278
212 1 2.31122 37.6122 49.4501 1.2 1.0 0.0 0.0 0.0 0.0
213 2 1.78573 39.934 51.2414 2.4 0.0 0.0 0.0 0.0 1.0
214 3 1.89428 41.5006 51.3014 -1.2 1.0 0.0 0.0 0.0 0.0
215 3 1.82367 38.8858 57.8508 -1.2 0.9999999999999574 1.8157342981275746e-28 1.365864730589078e-44 1.1095975961102561e-42 4.010194435169948e-14
216 3 0.469216 39.3015 50.6588 -1.2 1.0 0.0 0.0 0.0 0.0
217 1 -2.69668 37.8889 52.3043 1.2 1.0 0.0 0.0 0.0 3.604077121353162e-293
218 3 3.0225 39.2866 50.4651 -1.2 1.0 0.0 0.0 0.0 0.0
219 1 -1.14171 38.0115 55.1267 1.2 1.0 1.3047599203738254e-306 0.0 0.0 3.966603395731548e-88
220 2 -1.20853 35.8254 53.2681 2.4 0.0 0.0 0.0 0.0 1.0
221 3 -1.27917 34.2913 53.1883 -1.2 1.0 0.0 0.0 0.0 1.423821529786577e-272
222 3 -0.738054 37.1566 46.4176 -1.2 1.0 0.0 0.0 0.0 0.0
223 3 -2.45526 36.5142 53.9719 -1.2 1.0 0.0 0.0 0.0 1.646933181115123e-199
224 3 0.0893057 36.5115 53.9194 -1.2 1.0 0.0 0.0 0.0 4.054235184139887e-192
225 1 -2.58029 45.0034 57.3692 1.2 1.0 2.102047504342302e-48 5.56209568031207e-72 1.5932111799964582e-64 1.7390116066971375e-19
226 1 -1.06993 44.8968 49.8343 1.2 1.0 0.0 0.0 0.0 0.0
227 2 -0.596166 42.4103 47.9215 2.4 0.0 0.0 0.0 0.0 1.0
228 3 -0.51472 43.9796 47.9853 -1.2 1.0 0.0 0.0 0.0 0.0
229 3 -1.14475 41.2777 51.7649 -1.2 1.0 0.0 0.0 0.0 0.0
230 3 -1.76671 41.8331 48.8226 -1.2 1.0 0.0 0.0 0.0 0.0
231 1 0.447076 40.3473 46.8135 1.2 1.0 0.0 0.0 0.0 0.0
232 3 0.866985 41.7666 48.385 -1.2 1.0 0.0 0.0 0.0 0.0
233 1 1.90506 40.3429 54.5117 1.2 1.0 0.0 0.0 0.0 5.3083687313074305e-127
234 2 1.85096 42.9843 56.4085 2.4 1.0615486685606638e-94 9.125200919468955e-70 1.613023852152148e-116 1.2598338615093128e-95 1.0000000000000002
235 3 1.88131 41.4194 56.4906 -1.2 1.0 3.30037085984166e-95 3.167454169598331e-136 3.439363856194949e-121 1.2158516587032463e-36
236 3 1.95891 44.014 52.7248 -1.2 1.0 0.0 0.0 0.0 0.0
237 3 0.547937 43.6241 55.8064 -1.2 1.0 5.422588631582126e-225 8.7330106107147e-311 2.4545752402395753e-251 4.6103113693520016e-74
238 3 3.13793 43.6789 55.7208 -1.2 1.0 1.807977104856429e-198 4.428067488606621e-276 1.3221136589574321e-225 5.0244539562900136e-68
239 1 0.379928 42.6418 52.2013 1.2 1.0 0.0 0.0 0.0 7.893027432135309e-286
240 1 2.41752 42.366 49.4484 1.2 1.0 0.0 0.0 0.0 0.0
241 2 1.89374 44.6874 51.2398 2.4 0.0 0.0 0.0 0.0 1.0
242 3 2.00266 46.254 51.2996 -1.2 1.0 0.0 0.0 0.0 0.0
243 3 1.8975 43.6445 57.912 -1.2 0.99999999999919 5.772113964452082e-27 4.860623454148577e-43 1.038641186862457e-40 8.110744711872791e-13
244 3 0.577464 44.0549 50.6567 -1.2 1.0 0.0 0.0 0.0 0.0
245 1 -2.58906 42.6425 52.3022 1.2 1.0 0.0 0.0 0.0 1.237498229178267e-291
246 3 3.13067 44.0398 50.464 -1.2 1.0 0.0 0.0 0.0 0.0
247 1 -1.13874 42.7008 55.089 1.2 1.0 4.515073890702806e-283 0.0 1.6142135138056088e-306 1.5312984656449953e-83
248 2 -1.09877 40.588 53.2452 2.4 0.0 0.0 0.0 0.0 1.0
249 3 -1.18107 39.0312 53.1447 -1.2 1.0 0.0 0.0 0.0 7.919963956224373e-280
250 3 -0.631421 41.9099 46.4159 -1.2 1.0 0.0 0.0 0.0 0.0
251 3 -2.35834 41.2749 53.9645 -1.2 1.0 0.0 0.0 0.0 2.1519123235381724e-203
252 3 0.193601 41.2928 53.8515 -1.2 1.0 0.0 0.0 0.0 1.166117997009538e-202
253 1 -2.45774 49.7728 57.3864 1.2 1.0 5.447297754118304e-49 9.138748929959526e-73 2.8611748071969665e-65 2.53649223884154e-19
254 1 -0.961069 49.6502 49.8327 1.2 1.0 0.0 0.0 0.0 0.0
255 2 -0.488083 47.1636 47.9198 2.4 0.0 0.0 0.0 0.0 1.0
256 3 -0.40607 48.7329 47.9837 -1.2 1.0 0.0 0.0 0.0 0.0
257 3 -1.0361 46.031 51.7632 -1.2 1.0 0.0 0.0 0.0 0.0
258 3 -1.65866 46.5866 48.821 -1.2 1.0 0.0 0.0 0.0 0.0
259 1 0.554124 45.1001 46.8117 1.2 1.0 0.0 0.0 0.0 0.0
260 3 0.974961 46.5195 48.3832 -1.2 1.0 0.0 0.0 0.0 0.0
261 1 1.97256 45.1709 54.5473 1.2 1.0 0.0 0.0 0.0 2.3741405178408478e-123
262 2 1.96095 47.7527 56.3743 2.4 2.168100775960392e-109 4.249850773008458e-81 4.357666681767685e-132 2.4074693402719745e-108 1.0
263 3 1.94706 46.1917 56.4786 -1.2 1.0 5.391912130319836e-100 3.083123902679007e-142 1.0403234397527273e-124 6.497579489493345e-37
264 3 2.0677 48.7672 52.7232 -1.2 1.0 0.0 0.0 0.0 0.0
265 3 0.687003 48.4458 55.7422 -1.2 1.0 1.016758626541257e-233 2e-322 2.0447706505437477e-259 3.816600665247421e-75
266 3 3.23773 48.4292 55.72 -1.2 1.0 2.0634130269853442e-203 2.9279266020950097e-282 3.7681048083011373e-230 4.527942357562866e-68
267 1 0.488584 47.395 52.1996 1.2 1.0 0.0 0.0 0.0 8.373738055113865e-281
268 1 2.52544 47.1195 49.4466 1.2 1.0 0.0 0.0 0.0 0.0
269 2 2.00256 49.4407 51.2382 2.4 0.0 0.0 0.0 0.0 1.0
270 3 2.11156 51.0073 51.2982 -1.2 1.0 0.0 0.0 0.0 0.0
271 3 1.99323 48.3896 57.8739 -1.2 0.9999999999996732 1.2635359405290152e-28 1.9590912447497683e-45 3.52982678904434e-43 3.3318809223816115e-13
272 3 0.686344 48.8082 50.655 -1.2 1.0 0.0 0.0 0.0 0.0
273 1 -2.48039 47.3957 52.3005 1.2 1.0 0.0 0.0 0.0 3.0333436019728996e-289
274 3 3.23944 48.7932 50.4623 -1.2 1.0 0.0 0.0 0.0 0.0
275 1 -1.00847 47.4945 55.1112 1.2 1.0 6.451132604611286e-307 0.0 0.0 4.692935111570876e-86
276 2 -1.03571 45.3518 53.2489 2.4 0.0 0.0 0.0 0.0 1.0
277 3 -1.05994 43.7956 53.1811 -1.2 1.0 0.0 0.0 0.0 5.033423675842343e-280
278 3 -0.523731 46.6632 46.4143 -1.2 1.0 0.0 0.0 0.0 0.0
279 3 -2.29612 46.05 53.9506 -1.2 1.0 0.0 0.0 0.0 3.175501459136456e-196
280 3 0.275016 46.0438 53.8945 -1.2 1.0 0.0 0.0 0.0 7.583115595387996e-195
281 1 -2.36234 54.5228 57.4248 1.2 1.0 5.697368244541498e-48 3.2210387929003537e-71 3.0274090041526567e-64 6.49909463446031e-20
282 1 -0.852141 54.4034 49.8315 1.2 1.0 0.0 0.0 0.0 0.0
283 2 -0.378544 51.9171 47.9184 2.4 0.0 0.0 0.0 0.0 1.0
284 3 -0.296378 53.4863 47.9823 -1.2 1.0 0.0 0.0 0.0 0.0
285 3 -0.927178 50.7841 51.7618 -1.2 1.0 0.0 0.0 0.0 0.0
286 3 -1.5492 51.3402 48.8196 -1.2 1.0 0.0 0.0 0.0 0.0
287 1 0.663149 49.8533 46.8103 1.2 1.0 0.0 0.0 0.0 0.0
288 3 1.08434 51.2727 48.3819 -1.2 1.0 0.0 0.0 0.0 0.0
289 1 2.02253 49.8676 54.5412 1.2 1.0 0.0 0.0 0.0 1.3261711007575062e-128
290 2 2.06495 52.4827 56.4341 2.4 5.351364106988367e-95 3.0308888732160834e-69 2.3806550332235153e-115 6.581136017145886e-95 1.0
291 3 2.06311 50.9296 56.4791 -1.2 1.0 1.8320710445207908e-97 4.4362504492046586e-139 4.1520562972933616e-123 7.733226536574848e-36
292 3 2.17678 53.5203 52.7219 -1.2 1.0 0.0 0.0 0.0 0.0
293 3 0.807387 53.1533 55.7654 -1.2 1.0 1.0682228345426414e-224 2.2572543661594e-310 1.152933565605847e-250 4.138632259822819e-73
294 3 3.35127 53.1628 55.7735 -1.2 1.0 1.5176194159654148e-176 4.15037189050492e-247 6.382120186249568e-204 3.7304826388233346e-60
295 1 0.597515 52.1481 52.1982 1.2 1.0 0.0 0.0 0.0 1.1160141568910125e-280
296 1 2.63482 51.8727 49.4453 1.2 1.0 0.0 0.0 0.0 0.0
297 2 2.11145 54.194 51.237 2.4 0.0 0.0 0.0 0.0 1.0
298 3 2.22036 55.7605 51.2971 -1.2 1.0 0.0 0.0 0.0 0.0
299 3 2.13427 53.1835 57.8956 -1.2 0.9999999999992895 6.515935551092985e-26 4.670755536471382e-41 1.279045666949144e-39 7.104361138050837e-13
300 3 0.795151 53.5615 50.6538 -1.2 1.0 0.0 0.0 0.0 0.0
301 1 -2.37147 52.1489 52.2994 1.2 1.0 0.0 0.0 0.0 4.676589184609526e-290
302 3 3.34826 53.5466 50.4608 -1.2 1.0 0.0 0.0 0.0 0.0
303 1 -0.927263 52.2486 55.1111 1.2 1.0 1.0360628681919843e-279 0.0 1.130967919939328e-301 7.792351074501302e-80
304 2 -0.967215 50.1075 53.2554 2.4 0.0 0.0 0.0 0.0 1.0
305 3 -0.990506 48.5492 53.2144 -1.2 1.0 0.0 0.0 0.0 8.40983217278514e-267
306 3 -0.414295 51.4167 46.4129 -1.2 1.0 0.0 0.0 0.0 0.0
307 3 -2.24136 50.8061 53.9296 -1.2 1.0 0.0 0.0 0.0 4.737163264537301e-202
308 3 0.331435 50.7777 53.926 -1.2 1.0 0.0 0.0 0.0 3.1023631903876816e-192
309 1 -2.23741 59.2749 57.3865 1.2 1.0 6.554477169413561e-48 7.182635307842584e-71 2.8280411370343116e-64 3.878238895888109e-20
310 1 -0.743708 59.1569 49.8307 1.2 1.0 0.0 0.0 0.0 0.0
311 2 -0.269405 56.6708 47.9174 2.4 0.0 0.0 0.0 0.0 1.0
312 3 -0.187669 58.2401 47.9814 -1.2 1.0 0.0 0.0 0.0 0.0
313 3 -0.818478 55.5373 51.7607 -1.2 1.0 0.0 0.0 0.0 0.0
314 3 -1.44003 56.0936 48.8185 -1.2 1.0 0.0 0.0 0.0 0.0
315 1 0.772639 54.6072 46.8092 1.2 1.0 0.0 0.0 0.0 0.0
316 3 1.19351 56.0266 48.3809 -1.2 1.0 0.0 0.0 0.0 0.0
317 1 2.24543 54.593 54.5462 1.2 1.0 0.0 0.0 0.0 1.2796753592953514e-124
318 2 2.16921 57.2615 56.4168 2.4 3.673249255340155e-99 5.625228383764242e-72 2.809438402633167e-119 2.3696510826756055e-98 1.0000000000000009
319 3 2.13843 55.7028 56.474 -1.2 1.0 3.700998611440003e-100 7.844456848907843e-143 1.437176483734973e-125 1.825446493991166e-37
320 3 2.28552 58.2735 52.7209 -1.2 1.0 0.0 0.0 0.0 0.0
321 3 0.856159 57.9004 55.7606 -1.2 1.0 2.2850456085009175e-229 6.155972e-317 1.0365605187212981e-255 2.336669232875513e-75
322 3 3.42794 57.9267 55.6915 -1.2 1.0 1.6578962964743895e-201 1.4160383296578574e-280 4.778841923206972e-230 4.2142911770128006e-70
323 1 0.706198 56.9012 52.1971 1.2 1.0 0.0 0.0 0.0 3.1643944044567783e-282
324 1 2.74404 56.6261 49.4443 1.2 1.0 0.0 0.0 0.0 0.0
325 2 2.21991 58.9473 51.2362 2.4 0.0 0.0 0.0 0.0 1.0
326 3 2.32845 60.5139 51.2962 -1.2 1.0 0.0 0.0 0.0 0.0
327 3 2.24526 57.9312 57.8812 -1.2 0.9999999999997726 1.0545146299344216e-26 5.084033522616697e-42 8.663159884791633e-41 2.241753660442581e-13
328 3 0.903509 58.3149 50.6531 -1.2 1.0 0.0 0.0 0.0 0.0
329 1 -2.26283 56.9019 52.2988 1.2 1.0 0.0 0.0 0.0 3.338103162152449e-291
330 3 3.45667 58.3001 50.4597 -1.2 1.0 0.0 0.0 0.0 0.0
331 1 -0.848977 56.9583 55.1129 1.2 1.0 5.70458643090136e-286 0.0 7.939758838701785e-309 1.818915630867151e-83
332 2 -0.75761 54.8839 53.2281 2.4 0.0 0.0 0.0 0.0 1.0
333 3 -0.837658 53.3378 53.2277 -1.2 1.0 0.0 0.0 0.0 6.038235112223145e-266
334 3 -0.304995 56.1705 46.4119 -1.2 1.0 0.0 0.0 0.0 0.0
335 3 -2.02093 55.5582 53.9748 -1.2 1.0 0.0 0.0 0.0 1.0028909496024179e-205
336 3 0.548912 55.5417 53.8872 -1.2 1.0 0.0 0.0 0.0 2.6331369980954425e-200
337 1 -2.15169 64.0708 57.3992 1.2 1.0 1.069467422343653e-47 4.401501279419289e-71 2.6780511157695292e-64 1.210304403517943e-19
338 1 -0.636972 63.9105 49.8301 1.2 1.0 0.0 0.0 0.0 0.0
339 2 -0.161217 61.4249 47.9168 2.4 0.0 0.0 0.0 0.0 1.0
340 3 -0.0799602 62.9942 47.9808 -1.2 1.0 0.0 0.0 0.0 0.0
341 3 -0.71051 60.2905 51.7601 -1.2 1.0 0.0 0.0 0.0 0.0
342 3 -1.33142 60.8473 48.8182 -1.2 1.0 0.0 0.0 0.0 0.0
343 1 0.880515 59.3614 46.808 1.2 1.0 0.0 0.0 0.0 0.0
344 3 1.30191 60.7808 48.3796 -1.2 1.0 0.0 0.0 0.0 0.0
345 1 2.28876 59.2968 54.5269 1.2 1.0 0.0 0.0 0.0 2.0242630544181288e-129
346 2 2.28286 62.0002 56.3637 2.4 2.191770119284554e-106 5.603619780018448e-78 6.824158459502237e-129 9.39033321246863e-106 1.0
347 3 2.2411 60.4324 56.5036 -1.2 1.0 3.3044548131743353e-96 7.296934758983338e-137 8.631759634617546e-121 1.089682211908429e-36
348 3 2.39322 63.0266 52.7201 -1.2 1.0 0.0 0.0 0.0 0.0
349 3 1.01004 62.645 55.735 -1.2 1.0 5.869457839351704e-245 0.0 1.3722675707401393e-270 7.574104814199909e-80
350 3 3.57389 62.6777 55.7254 -1.2 1.0 1.4878382035319222e-196 1.050829939295262e-273 1.2651485924355004e-223 6.773799836320849e-69
351 1 0.813856 61.6544 52.1964 1.2 1.0 0.0 0.0 0.0 8.425507344534792e-284
352 1 2.85244 61.3793 49.4433 1.2 1.0 0.0 0.0 0.0 0.0
353 2 2.32661 63.7006 51.2354 2.4 0.0 0.0 0.0 0.0 1.0
354 3 2.43416 65.2673 51.2956 -1.2 1.0 0.0 0.0 0.0 0.0
355 3 2.28153 62.7213 57.8574 -1.2 0.9999999999998579 2.2183770056049527e-28 9.544384440073419e-45 1.0494306223946639e-42 1.356158730935364e-13
356 3 1.00987 63.0684 50.653 -1.2 1.0 0.0 0.0 0.0 0.0
357 1 -2.15526 61.6549 52.2986 1.2 1.0 0.0 0.0 0.0 4.747327053485606e-294
358 3 3.56306 63.054 50.4581 -1.2 1.0 0.0 0.0 0.0 0.0
359 1 -0.687076 61.7088 55.0961 1.2 1.0 5.225592922060454e-284 0.0 5.406050587095223e-307 4.851097746715381e-83
360 2 -0.690661 59.6043 53.2346 2.4 0.0 0.0 0.0 0.0 1.0
361 3 -0.754998 58.0389 53.1771 -1.2 1.0 0.0 0.0 0.0 1.4644998647439332e-280
362 3 -0.197347 60.9246 46.4112 -1.2 1.0 0.0 0.0 0.0 0.0
363 3 -1.95631 60.3106 53.9485 -1.2 1.0 0.0 0.0 0.0 7.072088424211972e-212
364 3 0.615543 60.2848 53.8544 -1.2 1.0 0.0 0.0 0.0 5.94136786941801e-206
365 1 -2.05761 68.8381 57.5216 1.2 1.0 4.746945624236149e-48 5.270803258781364e-72 1.711685643625978e-64 6.257376142211354e-19
366 1 -0.533443 68.6636 49.8296 1.2 1.0 0.0 0.0 0.0 0.0
367 2 -0.0548096 66.1789 47.9162 2.4 0.0 0.0 0.0 0.0 1.0
368 3 0.0255715 67.7482 47.9801 -1.2 1.0 0.0 0.0 0.0 0.0
369 3 -0.605209 65.0437 51.7598 -1.2 1.0 0.0 0.0 0.0 0.0
370 3 -1.22454 65.6011 48.818 -1.2 1.0 0.0 0.0 0.0 0.0
371 1 0.987386 64.1158 46.807 1.2 1.0 0.0 0.0 0.0 0.0
372 3 1.4086 65.5353 48.3785 -1.2 1.0 0.0 0.0 0.0 0.0
373 1 2.40505 64.0785 54.5288 1.2 1.0 0.0 0.0 0.0 1.88236633335713e-129
374 2 2.36673 66.7583 56.4137 2.4 3.3993221894324865e-97 1.3538965821050824e-70 4.776526104342562e-118 5.317068028889441e-97 1.0000000000000007
375 3 2.35028 65.204 56.4566 -1.2 1.0 2.5350068724581177e-99 1.0516288176497505e-141 6.211293179612635e-124 1.6304355268645713e-37
376 3 2.49801 67.7798 52.7194 -1.2 1.0 0.0 0.0 0.0 0.0
377 3 1.105 67.4473 55.7977 -1.2 1.0 4.378532048027109e-226 7.9478992581e-313 2.6123844681752866e-252 3.614349295459786e-74
378 3 3.63878 67.4428 55.7416 -1.2 1.0 5.602419942909947e-191 1.5408517567662832e-266 3.621123216529592e-218 2.02057951019516e-65
379 1 0.918773 66.4074 52.1957 1.2 1.0 0.0 0.0 0.0 2.464141095203354e-280
380 1 2.95913 66.1322 49.4427 1.2 1.0 0.0 0.0 0.0 0.0
381 2 2.43017 68.4538 51.2348 2.4 0.0 0.0 0.0 0.0 1.0
382 3 2.53642 70.0208 51.2951 -1.2 1.0 0.0 0.0 0.0 0.0
383 3 2.4415 67.4174 57.9111 -1.2 0.9999999999996874 2.8682876705139383e-27 1.0861721362585478e-43 2.999363094223331e-41 3.0847855055751154e-13
384 3 1.11294 67.8218 50.6533 -1.2 1.0 0.0 0.0 0.0 0.0
385 1 -2.0505 66.4078 52.2991 1.2 1.0 0.0 0.0 0.0 3.527618087052549e-288
386 3 3.66629 67.8078 50.4567 -1.2 1.0 0.0 0.0 0.0 0.0