ITEM: TIMESTEP
2800
ITEM: NUMBER OF ATOMS
10500
ITEM: BOX BOUNDS xy xz yz pp pp pp
0	8.9688	2.9896
0	118.725	0
0	252.977	0
ITEM: ATOMS id type xu yu zu q pCrystal pDisloC pDisloB pDisloA
1 1 -3.4757 7.09725 57.3454 1.2 6.39884751934549e-10 0.6666569721441161 2.1800591483196118e-52 0.3333430272159972
2 1 -1.88509 7.06241 49.7886 1.2 0.0 4.083886453980906e-159 0.0 1.0
3 2 -0.463938 3.93345 47.5738 2.4 3.978176081406627e-205 0.0 0.0 1.0
4 3 -0.438045 5.45433 47.167 -1.2 0.0 0.0 0.0 1.0
5 3 -2.20978 3.32474 51.6124 -1.2 1e-323 0.0 0.0 1.0000000000001135
6 3 -1.70805 3.52151 48.4678 -1.2 0.0 0.0 0.0 1.0
7 1 1.69325 2.42693 46.7754 1.2 0.0 1.0540421730873422e-256 0.0 1.0
8 3 1.0261 3.69684 48.4004 -1.2 0.0 0.0 0.0 1.0
9 1 1.00721 2.47249 54.3002 1.2 1.2612405942916983e-126 2.931182786357851e-42 0.0 1.0
10 2 0.765721 5.06378 56.2263 2.4 0.00011353801197652768 3.770943257140174e-68 5.728122232204154e-99 0.9998864619880246
11 3 0.765302 3.52582 56.181 -1.2 3.5484836406130014e-20 5.699619490556613e-57 7.13921648227603e-103 0.9999999999999969
12 3 1.14393 6.16465 52.3927 -1.2 4.699846191552627e-218 0.0 0.0 1.0000000000000242
13 3 -0.356614 5.75047 55.4007 -1.2 9.277887659735107e-39 4.492051418111636e-103 7.816547591129785e-161 1.000000000000004
14 3 2.15837 5.74396 55.6308 -1.2 1.1377231223874905e-32 2.6342558769302275e-85 6.561901046711189e-142 1.0000000000000062
15 1 -0.42773 4.72298 51.9529 1.2 0.0 2.979651146110341e-115 0.0 1.0
16 1 2.66965 3.92739 49.5 1.2 0.0 2.9780629943643873e-196 0.0 1.0
17 2 1.05236 6.64096 50.8609 2.4 1.4209921693792424e-160 0.0 0.0 1.0
18 3 1.39091 8.24397 50.8819 -1.2 0.0 0.0 0.0 1.0
19 3 0.781723 5.77397 57.6528 -1.2 0.0005889985943397667 2.7028689889212935e-14 1.3140041787109573e-44 0.9994110014056322
20 3 -0.32162 6.06339 50.265 -1.2 0.0 0.0 0.0 1.0
21 1 -3.45965 4.73633 52.1397 1.2 0.0 1.1756600596904138e-119 0.0 1.0
22 3 2.39601 6.01954 50.2256 -1.2 0.0 0.0 0.0 1.0
23 1 -2.07323 4.76163 54.842 1.2 8.547556688206141e-72 1.7606516386706885e-23 1.7688404248368946e-234 1.0000000000000004
24 2 -1.91958 2.62415 53.0698 2.4 6.645338833362563e-88 0.0 0.0 1.0
25 3 -1.87123 1.19292 52.8356 -1.2 9.143066773581795e-197 0.0 0.0 0.9999999999999623
26 3 -0.164595 2.86746 46.3609 -1.2 0.0 0.0 0.0 1.0
27 3 -3.15707 3.37565 53.8977 -1.2 2.3571371842093906e-119 1.66227065239e-312 0.0 0.999999999999953
28 3 -0.587841 3.39432 53.6313 -1.2 2.9161905902145537e-137 0.0 0.0 0.999999999999945
29 1 -3.45097 11.8015 57.3522 1.2 2.616217879237128e-11 0.02589367381272356 2.060279003143867e-55 0.9741063261611115
30 1 -1.80227 11.418 49.1181 1.2 0.0 8.756723750884206e-172 0.0 1.0
31 2 -1.06606 9.13314 47.3568 2.4 3.2386490339236125e-129 0.0 0.0 1.0
32 3 -1.01259 10.6692 47.1424 -1.2 0.0 0.0 0.0 1.0
33 3 -1.8641 8.11114 51.5164 -1.2 3.46192357e-315 0.0 0.0 1.0000000000001446
34 3 -2.14033 8.81864 48.5031 -1.2 0.0 0.0 0.0 1.0
35 1 0.459142 7.04064 46.6544 1.2 0.0 2.123672951968779e-209 0.0 1.0
36 3 0.460536 8.61593 47.902 -1.2 0.0 0.0 0.0 1.0
37 1 1.24512 7.13842 54.474 1.2 9.647957986432462e-118 7.492354507463379e-36 0.0 1.0
38 2 0.940439 9.7401 56.1491 2.4 1.1464453649120126e-06 5.41478624618063e-80 1.2121922958622714e-108 0.9999988535546328
39 3 1.22951 8.20831 56.3184 -1.2 1.233806234863828e-16 1.9802128666528415e-47 6.550238873423123e-87 1.0000000000000007
40 3 1.18926 10.9608 52.229 -1.2 2.4120066523872775e-239 0.0 0.0 1.0000000000000369
41 3 -0.42081 10.3607 55.6209 -1.2 3.878795853439407e-33 2.8388558248462927e-93 1.697226796519385e-149 0.9999999999999898
42 3 2.12974 10.4071 55.2184 -1.2 3.3521078403762395e-46 5.0698153637293075e-126 1.449262130881787e-192 0.9999999999999863
43 1 -0.457666 9.46768 51.5722 1.2 0.0 3.757656164198353e-115 0.0 1.0
44 1 2.00352 9.18524 49.0024 1.2 0.0 7.631721497805973e-186 0.0 1.0
45 2 1.08368 11.613 50.7819 2.4 6.33325695676943e-148 0.0 0.0 1.0
46 3 1.46034 13.1382 50.9055 -1.2 0.0 0.0 0.0 0.9999999999998699
47 3 1.10621 10.5176 57.6015 -1.2 6.6267963782259384e-06 2.6763114895394536e-18 2.4753717553440382e-46 0.9999933732036201
48 3 -0.180744 10.8742 50.215 -1.2 0.0 0.0 0.0 1.0
49 1 -3.51116 9.32016 52.108 1.2 0.0 1.9933497903146305e-110 0.0 1.0
50 3 2.33116 10.9806 49.8413 -1.2 0.0 0.0 0.0 1.0
51 1 -2.04072 9.53408 54.9944 1.2 4.743283056868472e-85 7.771668179848256e-28 2.3498088823362073e-272 1.0
52 2 -1.83067 7.41471 52.9975 2.4 4.030367112876094e-74 0.0 0.0 1.0
53 3 -1.91076 5.90298 52.847 -1.2 1.2872844030235949e-199 0.0 0.0 1.0000000000000249
54 3 -1.17824 8.23988 46.1314 -1.2 0.0 0.0 0.0 1.0
55 3 -3.14154 8.03086 53.7142 -1.2 4.2624929613129785e-141 0.0 0.0 0.999999999999974
56 3 -0.562421 7.97898 53.8158 -1.2 4.1214667816587687e-119 0.0 0.0 1.0000000000000548
57 1 -3.17956 16.6351 57.3077 1.2 6.052036414694326e-14 0.00016479784498875814 2.8507827530270288e-58 0.9998352021549476
58 1 -1.45314 16.4353 49.7722 1.2 0.0 1.472304569539536e-163 0.0 1.0
59 2 -0.668986 14.0393 47.5326 2.4 1.0751356390837847e-151 0.0 0.0 1.0
60 3 -0.586134 15.6557 47.7287 -1.2 0.0 0.0 0.0 1.0
61 3 -1.41261 12.9401 51.5194 -1.2 4.334233465865e-312 0.0 0.0 1.0000000000001228
62 3 -1.7583 13.3456 48.4427 -1.2 0.0 0.0 0.0 1.0
63 1 -0.0187285 11.9649 46.0893 1.2 0.0 2.1462664202081177e-240 0.0 1.0
64 3 0.779459 13.2248 47.9366 -1.2 0.0 0.0 0.0 1.0
65 1 1.40046 11.8384 54.0293 1.2 1.3834419986430423e-145 1.8954483306308147e-42 0.0 1.0
66 2 1.14039 14.4937 56.2401 2.4 3.905645610111251e-05 3.255241045373428e-63 1.0343739764571659e-89 0.9999609435438952
67 3 1.0204 12.932 56.4845 -1.2 3.276962412561412e-14 1.7221557280129417e-41 3.133553408068895e-75 0.9999999999999672
68 3 1.73037 15.6127 52.3788 -1.2 3.680199568879105e-249 0.0 0.0 0.9999999999999992
69 3 -0.164086 15.2273 55.6697 -1.2 1.2527022907189175e-44 1.7300783353715874e-110 1.1655826526741189e-166 1.0000000000000095
70 3 2.46584 15.0875 55.5095 -1.2 1.1774158908439022e-39 1.1962751804763677e-103 3.4188246330162966e-165 0.9999999999999912
71 1 -0.0379066 14.2286 51.9111 1.2 0.0 1.1957864290034558e-102 0.0 1.0
72 1 2.30157 13.8339 48.9344 1.2 0.0 6.659952763011729e-189 0.0 1.0
73 2 1.35726 16.2235 50.8383 2.4 2.564027979682169e-168 0.0 0.0 1.0
74 3 1.40599 17.7928 50.8141 -1.2 0.0 0.0 0.0 1.0000000000000724
75 3 1.15702 15.102 57.7957 -1.2 3.334057356623712e-06 1.3895343538434012e-17 3.487779493999794e-42 0.9999966659426375
76 3 0.0899742 15.4989 50.3864 -1.2 0.0 0.0 0.0 1.0
77 1 -2.90221 14.1955 51.7841 1.2 0.0 8.614407479465516e-131 0.0 1.0
78 3 2.76391 15.6144 50.0065 -1.2 0.0 0.0 0.0 1.0000000000000016
79 1 -1.87508 14.2729 54.9337 1.2 1.406403771800841e-78 2.1518226821370808e-21 2.3904608155898876e-266 0.9999999999999919
80 2 -1.56796 12.1815 53.0524 2.4 9.191133024399657e-71 0.0 0.0 1.0
81 3 -1.79529 10.645 52.8712 -1.2 4.223251314199104e-193 0.0 0.0 1.0000000000000822
82 3 -0.749632 13.7107 45.9546 -1.2 0.0 0.0 0.0 1.0
83 3 -2.94991 12.8496 53.6519 -1.2 1.1988585029933353e-125 0.0 0.0 1.000000000000026
84 3 -0.287499 12.8707 53.8247 -1.2 3.3266234346576823e-121 0.0 0.0 1.0000000000000555
85 1 -2.94372 21.4622 57.3058 1.2 8.516396786658137e-14 4.123979661117966e-05 4.647133841750203e-62 0.9999587602033051
86 1 -1.5516 21.358 49.7351 1.2 0.0 4.183877407607384e-221 0.0 1.0
87 2 -0.807509 18.8568 47.7256 2.4 1.4882308982794085e-212 0.0 0.0 1.0
88 3 -0.965308 20.4372 47.6117 -1.2 0.0 0.0 0.0 1.0000000000004527
89 3 -1.52202 17.6095 51.5374 -1.2 5.829446e-318 0.0 0.0 1.0000000000002023
90 3 -1.76244 18.1896 48.7445 -1.2 0.0 0.0 0.0 0.9999999999997636
91 1 0.145864 16.7905 46.4705 1.2 0.0 6.956746645252545e-274 0.0 1.0
92 3 0.769212 18.4105 47.9332 -1.2 0.0 0.0 0.0 0.9999999999998244
93 1 1.6975 16.5783 54.2551 1.2 8.954482231377327e-133 1.8113070781167854e-42 0.0 1.0
94 2 1.5042 19.3671 56.3528 2.4 0.026930859090233343 1.0354761689670525e-58 2.9039152225781928e-89 0.973069140909769
95 3 1.45871 17.8648 56.3954 -1.2 4.535612068655695e-17 3.487955463617671e-45 2.105708884382081e-87 1.0000000000000004
96 3 1.52496 20.2899 52.513 -1.2 3.5335344026624734e-250 0.0 0.0 0.999999999999967
97 3 0.129793 20.0641 55.564 -1.2 7.036714111612753e-43 6.565672984916451e-113 6.409003402516993e-179 1.000000000000005
98 3 2.73769 20.0103 55.5246 -1.2 1.1105332741171618e-36 5.088794146660133e-94 8.843492660393084e-157 0.9999999999999925
99 1 -0.0579821 19.0159 51.8161 1.2 0.0 3.12500097963697e-122 0.0 1.0
100 1 2.38379 18.5238 49.0331 1.2 0.0 1.3547936334086817e-213 0.0 1.0
101 2 1.54286 21.0296 51.0441 2.4 2.050393849540308e-207 0.0 0.0 1.0
102 3 1.76678 22.4806 51.1789 -1.2 0.0 0.0 0.0 0.999999999999939
103 3 1.47395 20.075 57.714 -1.2 2.895869763591149e-05 7.256320508452058e-15 6.427555525536212e-43 0.9999710413023509
104 3 0.20251 20.4814 50.3396 -1.2 0.0 0.0 0.0 0.9999999999997823
105 1 -2.92886 18.9069 52.0549 1.2 0.0 9.735457438905647e-128 0.0 1.0
106 3 2.83746 20.2923 50.4417 -1.2 0.0 0.0 0.0 1.0000000000000784
107 1 -1.55097 18.9805 54.8583 1.2 7.102653499111704e-78 1.089463614300149e-21 2.8544864738240325e-262 0.9999999999999728
108 2 -1.38487 16.8938 53.1085 2.4 1.5866262354237957e-78 0.0 0.0 1.0
109 3 -1.48008 15.3104 52.9744 -1.2 6.69612890463579e-201 0.0 0.0 0.9999999999998948
110 3 -1.07237 18.1811 46.2482 -1.2 0.0 0.0 0.0 1.000000000000553
111 3 -2.62236 17.5086 53.8811 -1.2 1.879307187237528e-140 0.0 0.0 0.9999999999999916
112 3 0.00700074 17.5349 53.5383 -1.2 1.846241144248684e-148 0.0 0.0 1.0000000000000155
113 1 -2.43749 26.1202 57.1933 1.2 2.1126538292621605e-10 0.0041597116718126905 8.028029233760238e-48 0.9958402881169234
114 1 -1.00435 26.1655 49.9854 1.2 0.0 4.4481211590616715e-245 0.0 1.0
115 2 -1.0447 23.7124 47.8687 2.4 1.0587140935729164e-279 0.0 0.0 1.0
116 3 -1.11945 25.253 48.1967 -1.2 0.0 0.0 0.0 1.0
117 3 -1.21308 22.3004 51.7093 -1.2 0.0 0.0 0.0 1.0000000000001372
118 3 -2.24519 22.9206 48.5221 -1.2 0.0 0.0 0.0 1.0000000000001001
119 1 -0.150677 21.7572 46.4978 1.2 0.0 0.0 0.0 1.0
120 3 0.403767 23.0019 48.1079 -1.2 0.0 0.0 0.0 1.000000000000365
121 1 1.802 21.4022 54.349 1.2 2.4727050724560837e-144 4.0007857777101315e-48 0.0 1.0
122 2 1.75063 24.1313 56.3361 2.4 0.9979820960810415 4.1467315537949465e-53 3.15285313738627e-82 0.0020179039189615715
123 3 1.6504 22.4975 56.3399 -1.2 2.9603430436485247e-19 4.2970749677538264e-51 7.302361270700594e-97 0.9999999999999981
124 3 2.00672 25.2062 52.6933 -1.2 1.5678039492365978e-259 0.0 0.0 1.0
125 3 0.553903 24.8188 55.5338 -1.2 5.709153178202246e-50 7.858814750934726e-121 5.238683288164516e-188 0.9999999999999921
126 3 3.06343 24.7967 55.6534 -1.2 1.4012960678708128e-33 1.4213961319342343e-82 1.43966630606935e-137 1.0000000000000044
127 1 0.323924 23.6492 52.2005 1.2 0.0 9.163331292620564e-121 0.0 1.0
128 1 2.05684 23.7282 49.2532 1.2 0.0 3.101190558204877e-255 0.0 1.0
129 2 1.78841 25.6853 51.2087 2.4 2.663420491819466e-218 0.0 0.0 1.0
130 3 1.79523 27.2808 51.3225 -1.2 0.0 0.0 0.0 1.0
131 3 1.85196 24.6888 57.7996 -1.2 0.0014049786925690879 8.671108983461347e-11 3.536970561923044e-36 0.9985950212207197
132 3 0.531268 24.9629 50.6925 -1.2 0.0 0.0 0.0 1.0
133 1 -2.60023 23.6173 52.4325 1.2 0.0 2.0414536629394222e-118 0.0 1.0
134 3 3.03744 25.1183 50.3574 -1.2 0.0 0.0 0.0 1.0
135 1 -1.2488 23.9102 55.0996 1.2 4.952983192651912e-63 1.744342633473098e-14 3.431810623297314e-215 0.9999999999999732
136 2 -1.22389 21.6204 53.1766 2.4 1.8158987576178215e-76 0.0 0.0 1.0
137 3 -1.50904 20.0423 53.024 -1.2 1.057250308437143e-187 0.0 0.0 1.0000000000000389
138 3 -1.14547 23.7037 46.1449 -1.2 0.0 0.0 0.0 1.0000000000007114
139 3 -2.40883 22.3542 53.8618 -1.2 4.131631984241392e-142 0.0 0.0 0.9999999999999506
140 3 0.115919 22.3713 53.7055 -1.2 4.204646852062637e-130 0.0 0.0 0.9999999999999524
141 1 -2.62111 30.8646 57.4502 1.2 3.010804282698677e-07 0.36768759474606205 2.2344981846809474e-44 0.6323121041735081
142 1 -1.13582 30.5681 49.5657 1.2 0.0 2.4173020447031405e-249 0.0 1.0
143 2 -1.10409 28.2452 47.6767 2.4 0.0 0.0 0.0 1.0
144 3 -0.835749 29.8341 47.4096 -1.2 0.0 0.0 0.0 1.0
145 3 -1.24161 26.9542 51.7732 -1.2 0.0 0.0 0.0 1.0
146 3 -2.55315 27.8804 48.3494 -1.2 0.0 0.0 0.0 1.0
147 1 -1.18151 25.6058 46.1104 1.2 0.0 0.0 0.0 1.0
148 3 -0.0231174 27.8944 48.7492 -1.2 0.0 0.0 0.0 1.0
149 1 1.94689 26.1464 54.5727 1.2 7.183101180908818e-111 1.84374385294098e-31 0.0 1.0
150 2 1.8799 28.8359 56.4152 2.4 0.9997260555508273 1.2453110618593496e-55 8.196944152060484e-86 0.0002739444491760248
151 3 1.90649 27.2583 56.4267 -1.2 8.073139238122781e-19 2.3560927089012757e-44 1.3691214734503857e-85 1.0
152 3 1.85526 29.7266 52.7199 -1.2 2.535748026609271e-247 0.0 0.0 1.0
153 3 0.478383 29.4931 55.6955 -1.2 6.580148966361311e-36 2.2976546670396415e-82 1.4202924296800411e-140 1.0000000000000087
154 3 3.16002 29.5537 55.7487 -1.2 4.498605108818955e-36 1.2858209009569188e-84 3.730940358735382e-143 1.0000000000000047
155 1 0.326992 28.4748 52.1239 1.2 0.0 1.4137389430539456e-135 0.0 1.0
156 1 1.89268 28.2743 49.3713 1.2 0.0 1.6577206695424898e-273 0.0 1.0
157 2 1.96409 30.4388 51.2241 2.4 1.683113785004341e-224 0.0 0.0 1.0
158 3 1.95297 32.0199 51.3497 -1.2 0.0 0.0 0.0 1.0
159 3 1.86565 29.4875 57.8572 -1.2 0.06526578871376826 1.2200566088007822e-08 2.4944777120712217e-36 0.9347341990856697
160 3 0.546967 29.9289 50.5326 -1.2 0.0 0.0 0.0 1.0
161 1 -2.7321 28.302 52.4398 1.2 0.0 2.6113346130244423e-138 0.0 1.0
162 3 3.19326 29.8365 50.5415 -1.2 0.0 0.0 0.0 1.0
163 1 -1.12061 28.6087 54.9201 1.2 9.100089950562233e-78 2.680420744453529e-19 4.5587238107640025e-244 1.0000000000000002
164 2 -1.14879 26.3737 53.2895 2.4 3.0986318628893984e-81 0.0 0.0 1.0
165 3 -1.27627 24.838 53.2256 -1.2 1.986397987248306e-189 0.0 0.0 1.0000000000000004
166 3 -0.968772 27.4798 46.2001 -1.2 0.0 0.0 0.0 1.0
167 3 -2.31718 27.1594 54.0198 -1.2 2.5886195777162183e-121 2.488398873477804e-278 0.0 0.9999999999999992
168 3 0.210724 27.1207 53.7735 -1.2 5.955070601800174e-146 0.0 0.0 1.000000000000003
169 1 -2.78515 35.6821 57.0686 1.2 1.6336971436255483e-11 0.9900165551308711 8.738899152894766e-69 0.009983444852791545
170 1 -1.04099 35.5359 49.5142 1.2 0.0 4.4691675481102017e-237 0.0 1.0
171 2 -0.818801 33.0401 47.8055 2.4 0.0 0.0 0.0 1.0
172 3 -0.978676 34.5263 47.8509 -1.2 0.0 0.0 0.0 1.0
173 3 -1.10203 31.946 51.7587 -1.2 0.0 0.0 0.0 1.0
174 3 -2.03199 32.2876 48.6951 -1.2 0.0 0.0 0.0 1.0
175 1 0.344801 31.0546 46.4951 1.2 0.0 0.0 0.0 1.0
176 3 0.602313 32.3669 48.1118 -1.2 0.0 0.0 0.0 1.0
177 1 1.97048 31.0486 54.3711 1.2 5.288449163619544e-140 8.780027786246573e-41 0.0 1.0
178 2 1.88618 33.5122 56.3113 2.4 0.9999999863970715 7.769266358451476e-67 1.3154673720275173e-107 1.3602929723721348e-08
179 3 1.88241 31.9857 56.3876 -1.2 2.0136135549640856e-17 1.0171982377860705e-44 4.253625013387385e-100 1.0000000000000002
180 3 1.81151 34.5503 52.543 -1.2 4.7604292938102885e-278 0.0 0.0 1.0
181 3 0.628158 34.2001 55.5421 -1.2 5.212344354335398e-40 1.8414808333504693e-96 6.577089957129056e-172 0.9999999999999866
182 3 3.08132 34.3116 55.5631 -1.2 6.761849391760833e-32 2.0444462036734135e-77 3.936930064109239e-147 1.0000000000000069
183 1 0.433781 33.1418 52.0471 1.2 0.0 2.0812329608988085e-126 0.0 1.0
184 1 2.07922 32.9889 49.4156 1.2 0.0 8.103475385323439e-261 0.0 1.0
185 2 1.82315 35.2048 50.9671 2.4 4.887722074225439e-225 0.0 0.0 1.0
186 3 1.9165 36.7678 50.9069 -1.2 0.0 0.0 0.0 1.0
187 3 1.7012 34.1869 57.7652 -1.2 0.399218880484193 1.6003327256882917e-10 1.0700898025267385e-46 0.6007811193557752
188 3 0.714905 34.3964 50.1462 -1.2 0.0 0.0 0.0 1.0
189 1 -2.61593 33.2337 52.2427 1.2 0.0 1.644038886597699e-131 0.0 1.0
190 3 3.27003 34.4354 50.457 -1.2 0.0 0.0 0.0 1.0
191 1 -1.14182 33.2328 54.9933 1.2 1.9713026629160203e-53 0.012378041389681682 7.902067825778046e-195 0.9876219586103141
192 2 -1.07033 31.1905 53.1872 2.4 8.564030858044727e-82 0.0 0.0 1.0
193 3 -1.15402 29.5117 53.0862 -1.2 1.0477115859949446e-192 0.0 0.0 1.0
194 3 -0.829147 32.8165 46.1401 -1.2 0.0 0.0 0.0 1.0
195 3 -2.3105 31.9092 53.953 -1.2 4.046796283155717e-120 4.78804643463199e-280 0.0 1.0000000000000113
196 3 0.284005 31.7624 53.7646 -1.2 1.0994833923919131e-134 1.4910254e-317 0.0 1.0
197 1 -2.71631 40.2744 57.0153 1.2 1.0557759325220847e-10 0.8434959705031608 6.937179948521297e-64 0.15650402939126035
198 1 -0.8752 39.8252 49.2906 1.2 0.0 1.4547262760921225e-205 0.0 1.0
199 2 -1.04508 37.4894 47.4034 2.4 1.141205888538244e-291 0.0 0.0 1.0
200 3 -1.31728 39.1415 47.2207 -1.2 0.0 0.0 0.0 1.0
201 3 -0.960449 36.4796 51.4946 -1.2 0.0 0.0 0.0 1.0
202 3 -2.28607 36.947 48.3498 -1.2 0.0 0.0 0.0 1.0
203 1 -1.21301 34.8315 45.7676 1.2 0.0 0.0 0.0 1.0
204 3 0.382066 37.4289 48.1716 -1.2 0.0 0.0 0.0 1.0
205 1 1.73268 35.5169 54.2812 1.2 1.2173601194393802e-123 4.0110805297672006e-26 0.0 1.0
206 2 1.76318 38.2506 56.1475 2.4 0.9999950168866246 4.4269032592870544e-72 1.0183805230119706e-114 4.983113378339332e-06
207 3 1.71004 36.7778 56.3118 -1.2 5.344822516981051e-15 1.4070500867821186e-40 9.9175481015556e-96 0.9999999999999929
208 3 2.01233 39.4259 52.3951 -1.2 4.640141894369238e-245 0.0 0.0 1.0
209 3 0.611235 39.0995 55.4454 -1.2 1.2354844859477704e-37 1.2905345261953442e-90 1.540302610225387e-164 0.9999999999999943
210 3 3.11695 38.9026 55.4998 -1.2 4.938477365570932e-27 5.28931189978768e-72 5.640329103068541e-141 1.0000000000000109
211 1 0.361664 37.9711 51.6672 1.2 0.0 3.6018032718103717e-118 0.0 1.0
212 1 2.05108 37.7206 49.0588 1.2 0.0 1.3241960340213853e-241 0.0 1.0
213 2 2.0464 40.0313 50.8312 2.4 3.790039205996329e-185 0.0 0.0 1.0
214 3 1.9445 41.5397 50.6478 -1.2 0.0 0.0 0.0 1.0000000000000422
215 3 1.73594 39.0089 57.6277 -1.2 0.003358775670662526 1.081667299231136e-15 4.758756458678388e-53 0.9966412243293383
216 3 0.739012 39.2722 50.1784 -1.2 0.0 0.0 0.0 1.0
217 1 -2.56653 37.9177 51.9739 1.2 0.0 4.28292101096688e-126 0.0 1.0
218 3 3.27247 39.3156 50.1737 -1.2 0.0 0.0 0.0 1.0
219 1 -1.22706 38.1331 54.7684 1.2 4.7693444863801046e-71 3.621256612757606e-08 1.7846666199068365e-250 0.9999999637874348
220 2 -1.02195 35.9289 53.0023 2.4 9.905565929619718e-86 0.0 0.0 1.0
221 3 -0.931752 34.3362 53.0523 -1.2 1.375485729940356e-210 0.0 0.0 1.0
222 3 -0.862189 36.6937 46.0998 -1.2 0.0 0.0 0.0 1.0
223 3 -2.36089 36.626 53.4902 -1.2 1.9264951569371905e-147 0.0 0.0 1.0
224 3 0.327693 36.6131 53.6248 -1.2 8.635898015148789e-125 9.334712280790388e-301 0.0 1.0
225 1 -2.64923 45.0522 57.1187 1.2 1.165303941161071e-08 0.16977637669421866 7.185448293267264e-51 0.8302236116527387
226 1 -0.868285 44.9403 49.2823 1.2 0.0 7.145489354534285e-174 0.0 1.0
227 2 -1.48813 42.4519 47.3188 2.4 2.7135265205529633e-187 0.0 0.0 1.0
228 3 -0.984397 43.9276 47.3974 -1.2 0.0 0.0 0.0 0.9999999999998774
229 3 -0.894706 41.3189 51.272 -1.2 2.305e-320 0.0 0.0 1.0
230 3 -2.98308 42.0152 47.6169 -1.2 0.0 0.0 0.0 0.9999999999996533
231 1 -0.251948 40.3213 46.1209 1.2 0.0 1.4516462552414468e-285 0.0 1.0
232 3 -0.330181 41.6135 48.1271 -1.2 0.0 0.0 0.0 1.0000000000002207
233 1 1.91507 40.4782 54.3322 1.2 3.3142881097085674e-100 4.322095936485181e-23 1e-322 1.0
234 2 1.88452 42.9732 56.012 2.4 0.998015898572618 5.406864015139419e-66 5.383051969213564e-98 0.001984101427381066
235 3 1.90055 41.3654 56.1932 -1.2 4.997347971892389e-16 9.491449222240728e-44 6.876439546136386e-90 0.9999999999999998
236 3 1.98545 44.0529 52.1734 -1.2 2.4448548230811e-253 0.0 0.0 1.0
237 3 0.633667 43.7402 55.3872 -1.2 9.14754731255462e-32 1.6128216602034099e-83 1.2455340923049422e-140 0.9999999999999876
238 3 3.24816 43.6693 55.2919 -1.2 4.3834455808331085e-39 1.933942453094012e-103 1.6164162440248697e-166 1.000000000000014
239 1 0.576265 42.6864 51.7826 1.2 0.0 1.1444956299107948e-109 0.0 1.0
240 1 1.40994 42.4679 48.8715 1.2 0.0 5.786903446870488e-196 0.0 1.0
241 2 2.13236 44.8171 50.637 2.4 1.2346582090615392e-153 0.0 0.0 1.0
242 3 2.33148 46.3777 50.5686 -1.2 0.0 0.0 0.0 1.0000000000000093
243 3 1.83601 43.6086 57.4873 -1.2 5.145458032379952e-05 3.347450554159741e-18 2.669590179818646e-48 0.9999485454196761
244 3 0.783171 44.1738 50.0173 -1.2 0.0 0.0 0.0 0.9999999999998641
245 1 -2.48289 42.7277 51.6208 1.2 0.0 1.4285329788601907e-133 0.0 1.0
246 3 3.43156 44.069 49.9475 -1.2 0.0 0.0 0.0 0.9999999999998302
247 1 -1.00512 42.9555 54.7172 1.2 3.983611740141476e-61 2.1044093897798453e-11 1.3840430775298962e-222 0.999999999978948
248 2 -0.9811 40.7898 52.7846 2.4 8.0417153192259e-85 0.0 0.0 1.0
249 3 -1.01959 39.1544 52.8786 -1.2 4.657875236989732e-177 0.0 0.0 1.0
250 3 -1.04982 42.031 45.6999 -1.2 0.0 0.0 0.0 1.0000000000009088
251 3 -2.26354 41.4418 53.3973 -1.2 8.412378135366948e-139 0.0 0.0 1.0
252 3 0.248369 41.496 53.481 -1.2 4.983940002192362e-138 0.0 0.0 1.0
253 1 -2.51512 49.9177 57.2996 1.2 5.1652784134389994e-11 0.002795924473487331 1.284565865731605e-55 0.997204075474862
254 1 -0.699237 49.5535 48.7893 1.2 0.0 4.482031641405476e-179 0.0 1.0
255 2 -0.222106 46.9507 47.1965 2.4 4.803427424926124e-140 0.0 0.0 1.0
256 3 -0.174543 48.5582 47.0585 -1.2 0.0 0.0 0.0 1.0
257 3 -0.945965 46.1607 51.1669 -1.2 1.7075972410094326e-302 0.0 0.0 0.9999999999999549
258 3 -1.3754 46.5612 48.2207 -1.2 0.0 0.0 0.0 1.0
259 1 -0.651647 44.553 45.5168 1.2 0.0 1.1613291508159923e-221 0.0 1.0
260 3 1.17626 46.4953 47.7319 -1.2 0.0 0.0 0.0 1.0
261 1 2.06426 45.287 54.0571 1.2 1.4980344903522273e-131 5.6899520346158645e-39 0.0 1.0
262 2 1.87706 47.7665 56.0362 2.4 0.0113955114612362 1.3715136533775205e-67 1.2545228079227666e-96 0.9886044885387608
263 3 1.95188 46.26 56.2562 -1.2 9.842703738772571e-17 6.782603151244561e-47 1.5316649497255233e-86 1.0000000000000002
264 3 2.19059 48.8579 51.9659 -1.2 4.4688548552883536e-240 0.0 0.0 0.9999999999998879
265 3 0.550694 48.4597 55.4249 -1.2 6.580243562114785e-41 1.3057114509874106e-109 3.7304730861712476e-173 1.0000000000000095
266 3 3.11613 48.3219 55.0624 -1.2 4.0676457900268563e-47 1.2366662687084992e-122 1.4585850049394096e-187 1.0000000000000049
267 1 0.724734 47.5609 51.4921 1.2 0.0 8.069427591790674e-101 0.0 1.0
268 1 2.81145 47.2993 48.622 1.2 0.0 5.341227377274464e-178 0.0 1.0
269 2 2.15827 49.6225 50.4541 2.4 4.101412341313169e-152 0.0 0.0 1.0
270 3 2.4606 51.1043 50.7368 -1.2 0.0 0.0 0.0 1.000000000000018
271 3 2.09214 48.4686 57.4554 -1.2 2.1845723323143543e-07 5.887708967912514e-22 2.723986864592496e-50 0.9999997815427665
272 3 0.859523 49.0032 49.8874 -1.2 0.0 0.0 0.0 1.0000000000000004
273 1 -2.34147 47.4818 51.6766 1.2 0.0 1.1999226881444581e-108 0.0 1.0
274 3 3.45909 49.0864 49.6108 -1.2 0.0 0.0 0.0 1.0
275 1 -1.02084 47.3518 54.6826 1.2 3.5402475682231786e-79 2.407311611594734e-21 7.06973642985961e-267 1.0000000000000018
276 2 -0.982615 45.4883 52.6902 2.4 4.4113360382079065e-79 0.0 0.0 1.0
277 3 -0.927737 43.9958 52.5602 -1.2 4.475733227601647e-200 0.0 0.0 1.0000000000000009
278 3 -0.300064 46.3767 45.6848 -1.2 0.0 0.0 0.0 1.0
279 3 -2.33956 45.9668 53.1851 -1.2 1.7684074550856107e-163 0.0 0.0 1.0000000000000233
280 3 0.277364 46.1205 53.4645 -1.2 8.789804286378428e-135 0.0 0.0 1.0000000000000009
281 1 -2.29937 54.541 57.205 1.2 1.6268564829112143e-12 0.005004269081379669 4.460721046278294e-60 0.9949957309169939
282 1 -0.659615 54.2968 49.2751 1.2 0.0 3.7253580190795797e-183 0.0 1.0
283 2 0.529348 52.0735 47.4913 2.4 4.169788160770634e-149 0.0 0.0 1.0
284 3 0.444614 53.6707 47.505 -1.2 0.0 0.0 0.0 1.0
285 3 -0.596212 50.8897 51.3757 -1.2 1.750036081085687e-275 0.0 0.0 0.9999999999998956
286 3 -0.751118 51.5012 48.2607 -1.2 0.0 0.0 0.0 0.999999999999716
287 1 -0.070326 49.7057 45.6102 1.2 0.0 9.669087716756771e-267 0.0 1.0
288 3 1.86618 51.5942 48.0949 -1.2 0.0 0.0 0.0 1.0
289 1 2.37012 49.8822 54.074 1.2 3.1638833663248632e-127 3.012182793626103e-39 0.0 1.0
290 2 2.05729 52.4746 56.1175 2.4 0.00026257486345565134 4.3509226388975706e-72 2.84246327552442e-99 0.9997374251365432
291 3 2.07974 50.9918 56.1177 -1.2 3.891639521973558e-18 1.799737659221028e-48 2.413198457572056e-87 0.9999999999999988
292 3 2.53181 53.6406 52.2858 -1.2 7.851722327663358e-233 0.0 0.0 1.0000000000001061
293 3 0.819423 53.2284 55.5177 -1.2 2.7699235241840084e-42 1.579559054795884e-106 2.2004407887133085e-171 1.000000000000014
294 3 3.41912 53.1244 55.4342 -1.2 1.1294094823618359e-38 2.34780191610124e-99 3.3777663972516323e-161 1.0000000000000133
295 1 0.90602 52.1693 51.7426 1.2 0.0 3.0671367699745237e-102 0.0 1.0
296 1 3.46876 51.801 49.0183 1.2 0.0 8.534185186614425e-192 0.0 1.0
297 2 2.4197 54.2518 50.7052 2.4 3.051136872355078e-171 0.0 0.0 1.0
298 3 2.52525 55.8189 50.8218 -1.2 0.0 0.0 0.0 1.000000000000015
299 3 2.12488 53.1103 57.6464 -1.2 2.6791985963632805e-07 6.088042002442927e-20 2.455549325398439e-49 0.9999997320801354
300 3 1.08261 53.5963 50.2081 -1.2 0.0 0.0 0.0 0.9999999999998471
301 1 -2.0069 52.2721 51.8655 1.2 0.0 1.928770767754322e-117 0.0 1.0
302 3 3.71729 53.5361 49.9813 -1.2 0.0 0.0 0.0 1.0000000000000961
303 1 -0.670949 52.1713 54.781 1.2 3.116145545493705e-71 7.667630802345793e-16 5.626004329368115e-246 0.9999999999999805
304 2 -0.539638 50.1015 52.7908 2.4 7.532967340757766e-63 0.0 0.0 1.0
305 3 -0.642297 48.5626 52.6021 -1.2 5.764012826307062e-181 0.0 0.0 0.9999999999999514
306 3 0.243874 51.5576 46.0297 -1.2 0.0 0.0 0.0 1.0
307 3 -1.81103 50.7484 53.4965 -1.2 2.377519217389243e-132 0.0 0.0 1.0000000000000338
308 3 0.714054 50.7827 53.465 -1.2 2.3634459617256046e-131 0.0 0.0 0.9999999999999653
309 1 -2.18216 59.133 57.2946 1.2 1.1489486849412554e-16 0.000632837651888199 6.530285494569266e-69 0.9993671623481127
310 1 -0.305346 59.4853 49.4634 1.2 0.0 3.1211286108389832e-217 0.0 1.0
311 2 0.0871426 56.8454 47.6889 2.4 9.44538481882131e-218 0.0 0.0 1.0
312 3 0.121087 58.3941 47.8579 -1.2 0.0 0.0 0.0 0.9999999999995999
313 3 -0.420714 55.6236 51.4344 -1.2 9.0728e-319 0.0 0.0 1.0000000000000964
314 3 -1.03941 56.1737 48.526 -1.2 0.0 0.0 0.0 1.0000000000003029
315 1 1.33747 54.98 46.5658 1.2 0.0 1.0842264765057089e-265 0.0 1.0
316 3 1.72632 56.38 47.8592 -1.2 0.0 0.0 0.0 0.9999999999995673
317 1 2.61428 54.6909 54.0427 1.2 3.243444949945165e-151 9.504042312553402e-46 0.0 1.0
318 2 2.25445 57.1812 56.2713 2.4 3.21739135607816e-05 1.370657716930635e-72 8.687036973176677e-101 0.9999678260864365
319 3 2.36013 55.6488 56.3301 -1.2 6.533863902192136e-20 4.39554195081998e-48 5.6200461309874e-94 1.0000000000000016
320 3 2.61016 58.2107 52.5276 -1.2 4.821886536738355e-277 0.0 0.0 1.0
321 3 0.972614 57.8776 55.6129 -1.2 4.5117975132786504e-57 1.6771811497863275e-127 2.0389340637837464e-192 1.0000000000000058
322 3 3.52385 57.9132 55.6367 -1.2 7.443040171800931e-39 1.2033837446583824e-86 3.9470341772807167e-147 0.9999999999999956
323 1 0.977095 56.9476 51.8513 1.2 0.0 9.427038141088e-135 0.0 1.0
324 1 3.13946 56.9184 48.9796 1.2 0.0 6.485470051429036e-222 0.0 1.0
325 2 2.47653 59.0545 51.0463 2.4 7.667941043058528e-191 0.0 0.0 1.0
326 3 2.50656 60.5737 51.1211 -1.2 0.0 0.0 0.0 0.9999999999998702
327 3 2.19443 57.862 57.8449 -1.2 8.086639800663209e-08 1.54516297150344e-19 6.773509117696533e-52 0.9999999191336034
328 3 1.12277 58.4325 50.5107 -1.2 0.0 0.0 0.0 1.0000000000000095
329 1 -1.88561 57.0003 51.8317 1.2 0.0 2.305954747227861e-140 0.0 1.0
330 3 3.6366 58.4294 50.1042 -1.2 0.0 0.0 0.0 1.0000000000000433
331 1 -0.695145 56.9479 54.9964 1.2 3.3660751757244644e-86 3.0397056154890974e-25 8.246255264970215e-264 1.0000000000000002
332 2 -0.391719 54.8905 52.9664 2.4 2.730835339706842e-93 0.0 0.0 1.0
333 3 -0.490304 53.3102 52.8371 -1.2 6.214053560722717e-181 0.0 0.0 0.9999999999999313
334 3 -0.124065 56.609 46.1853 -1.2 0.0 0.0 0.0 1.0
335 3 -1.64929 55.5179 53.678 -1.2 1.5862763160130163e-160 0.0 0.0 1.0000000000000433
336 3 0.826905 55.6786 53.6888 -1.2 1.2030005493454226e-135 0.0 0.0 1.0000000000000555
337 1 -1.85008 63.933 57.3923 1.2 1.5950884605640086e-18 0.0007381666855549659 6.652358827555394e-76 0.9992618333144454
338 1 -0.412471 63.6927 49.82 1.2 0.0 1.6448022234805705e-235 0.0 1.0
339 2 0.0969556 61.3133 47.3436 2.4 2.2935286254430284e-224 0.0 0.0 1.0
340 3 0.27727 62.9574 47.0136 -1.2 0.0 0.0 0.0 1.0
341 3 -0.489061 60.3435 51.6055 -1.2 0.0 0.0 0.0 0.9999999999998528
342 3 -1.14043 61.0848 48.3002 -1.2 0.0 0.0 0.0 1.0
343 1 -0.376093 58.7857 45.9945 1.2 0.0 2.871531489247669e-291 0.0 1.0
344 3 1.40614 61.0802 48.2571 -1.2 0.0 0.0 0.0 1.0
345 1 2.58609 59.2614 54.4981 1.2 5.847304201221854e-136 4.149125170754998e-44 0.0 1.0
346 2 2.3523 61.8798 56.4685 2.4 7.301003548128244e-11 7.580812409796351e-88 1.4878280035419616e-116 0.9999999999269846
347 3 2.35852 60.3494 56.5487 -1.2 5.994923069553541e-26 1.8989557524985906e-56 1.0558264395532391e-105 1.0000000000000016
348 3 2.62345 63.0721 52.723 -1.2 2.4138935534197714e-274 0.0 0.0 1.0
349 3 1.12787 62.6935 55.8469 -1.2 4.004361521206905e-57 3.5011043564336046e-118 2.8446314716167945e-177 1.0000000000000016
350 3 3.71732 62.5436 55.8298 -1.2 5.557425686752034e-48 1.6658049306645377e-99 2.701714874601064e-156 1.0000000000000058
351 1 1.12903 61.6106 52.1689 1.2 0.0 3.881869171322151e-141 0.0 1.0
352 1 3.02909 61.4995 49.3104 1.2 0.0 5.5181650224613465e-232 0.0 1.0
353 2 2.65151 63.7325 51.2669 2.4 9.814598534356013e-216 0.0 0.0 1.0
354 3 2.60941 65.2525 51.2268 -1.2 0.0 0.0 0.0 0.9999999999998106
355 3 2.50119 62.671 58.0454 -1.2 7.645860156201017e-11 2.326046711716161e-24 1.5593315753319878e-56 0.9999999999235388
356 3 1.39085 63.1226 50.5846 -1.2 0.0 0.0 0.0 1.0000000000000995
357 1 -2.02677 61.7079 52.2744 1.2 0.0 1.353560094795264e-144 0.0 1.0
358 3 3.90923 63.1135 50.5459 -1.2 0.0 0.0 0.0 0.9999999999997898
359 1 -0.56615 61.6851 55.0061 1.2 3.88380636051062e-96 1.4471411496703058e-32 2.775277195710997e-282 1.0
360 2 -0.481539 59.5601 53.0561 2.4 3.757762348689346e-93 0.0 0.0 1.0
361 3 -0.517607 57.9958 52.8631 -1.2 1.0638790340935527e-218 0.0 0.0 1.0
362 3 -0.0731409 60.5857 45.9354 -1.2 0.0 0.0 0.0 1.0
363 3 -1.77277 60.2971 53.7942 -1.2 1.076586392723045e-149 0.0 0.0 1.0000000000000033
364 3 0.850132 60.2247 53.8044 -1.2 1.296666563602646e-145 0.0 0.0 1.0
365 1 -1.76952 68.723 57.3465 1.2 8.29166539322791e-18 0.005072662103647028 7.782365540551565e-83 0.9949273378963533
366 1 -0.311333 68.6785 50.0995 1.2 0.0 5.332740072644153e-249 0.0 1.0