ITEM: TIMESTEP
200
ITEM: NUMBER OF ATOMS
10500
ITEM: BOX BOUNDS xy xz yz pp pp pp
0	8.9688	2.9896
0	118.725	0
0	252.977	0
ITEM: ATOMS id type xu yu zu q pCrystal pDisloC pSF pDisloB pDisloA
1 1 -3.37611 7.03501 57.4528 1.2 1.0 3.6145332727934777e-53 4.491154918059975e-79 2.697381973191515e-71 1.2468358266765799e-21
2 1 -1.82655 6.90154 50.0912 1.2 1.0 0.0 0.0 0.0 0.0
3 2 -0.257935 3.96038 48.0876 2.4 0.0 0.0 0.0 0.0 1.0
4 3 -0.335812 5.46814 47.6264 -1.2 1.0 0.0 0.0 0.0 0.0
5 3 -2.03793 3.43377 51.8941 -1.2 1.0 0.0 0.0 0.0 0.0
6 3 -1.54015 3.53929 48.9521 -1.2 1.0 0.0 0.0 0.0 0.0
7 1 1.82954 2.54582 47.1376 1.2 1.0 0.0 0.0 0.0 0.0
8 3 1.22989 3.66364 48.7877 -1.2 1.0 0.0 0.0 0.0 0.0
9 1 1.02529 2.30901 54.5751 1.2 1.0 0.0 0.0 0.0 4.417015462955196e-117
10 2 1.05677 4.98076 56.4776 2.4 1.8555554380772653e-100 6.896391322690252e-74 5.335684878732416e-120 5.833885602282393e-99 1.0
11 3 1.01165 3.43438 56.5717 -1.2 1.0 3.095899358115364e-122 1.9745508963141322e-169 4.3930666178572253e-144 1.0765564242730344e-43
12 3 1.10813 6.07342 52.8172 -1.2 1.0 0.0 0.0 0.0 0.0
13 3 -0.224996 5.68302 55.8464 -1.2 1.0 8.680649738738184e-215 7.711147056432872e-291 7.902417948745617e-235 1.629867431405982e-72
14 3 2.32605 5.66098 55.7833 -1.2 1.0 6.43304663905718e-191 3.878881978845113e-262 8.473009809542709e-214 1.7672625916374197e-66
15 1 -0.459401 4.67631 52.2426 1.2 1.0 0.0 0.0 0.0 5.862357903340037e-303
16 1 2.79456 3.9971 49.9987 1.2 1.0 0.0 0.0 0.0 0.0
17 2 1.16169 6.59457 51.2556 2.4 0.0 0.0 0.0 0.0 1.0
18 3 1.28989 8.18905 51.2909 -1.2 1.0 0.0 0.0 0.0 0.0
19 3 1.0948 5.66146 57.9708 -1.2 0.999999999999929 2.0531760699728177e-28 6.886255058105256e-46 5.859213682522322e-43 6.457339585665287e-14
20 3 -0.184847 6.06029 50.6845 -1.2 1.0 0.0 0.0 0.0 0.0
21 1 -3.49704 4.67769 52.6661 1.2 1.0 0.0 0.0 0.0 4.020533790058954e-260
22 3 2.48581 5.93312 50.6539 -1.2 1.0 0.0 0.0 0.0 0.0
23 1 -1.90297 4.69386 55.2076 1.2 1.0 1.0888932323532513e-281 0.0 1.9586402045973295e-299 1.975005477202687e-85
24 2 -1.95582 2.6355 53.312 2.4 0.0 0.0 0.0 0.0 1.0
25 3 -1.98146 1.08716 53.2102 -1.2 1.0 0.0 0.0 0.0 2.0999572240550344e-286
26 3 -0.0467762 2.97103 46.8385 -1.2 1.0 0.0 0.0 0.0 0.0
27 3 -3.2113 3.26874 54.0954 -1.2 1.0 0.0 0.0 0.0 3.372356030664766e-194
28 3 -0.668363 3.29018 54.0015 -1.2 1.0 0.0 0.0 0.0 4.105690015752848e-211
29 1 -3.27052 11.7626 57.452 1.2 1.0 8.733825074931444e-56 1.193466370073485e-82 4.63857011754287e-74 4.142825634545765e-22
30 1 -1.75014 11.5838 49.8362 1.2 1.0 0.0 0.0 0.0 0.0
31 2 -1.18003 9.02138 47.9309 2.4 0.0 0.0 0.0 0.0 1.0
32 3 -1.23224 10.5991 47.9811 -1.2 1.0 0.0 0.0 0.0 0.0
33 3 -1.79016 8.01447 51.8693 -1.2 1.0 0.0 0.0 0.0 0.0
34 3 -2.30986 8.37215 48.8528 -1.2 1.0 0.0 0.0 0.0 0.0
35 1 0.154883 7.08234 46.8007 1.2 1.0 0.0 0.0 0.0 0.0
36 3 0.325447 8.50934 48.3809 -1.2 1.0 0.0 0.0 0.0 0.0
37 1 1.17013 7.1115 54.6249 1.2 1.0 0.0 0.0 0.0 1.2665977682034685e-120
38 2 1.16652 9.73248 56.4586 2.4 9.72465900411785e-112 4.870220364736268e-82 3.227104626255871e-134 1.2892918050842265e-110 1.0
39 3 1.14029 8.18351 56.5503 -1.2 1.0 1.0430437476433069e-106 1.024100110520211e-150 8.503000393891112e-131 2.3374680611446986e-39
40 3 1.28624 10.7248 52.7351 -1.2 1.0 0.0 0.0 0.0 0.0
41 3 -0.107216 10.4317 55.8056 -1.2 1.0 1.2290891714001548e-250 0.0 5.922318303314687e-275 2.7266974847441683e-81
42 3 2.44489 10.4111 55.7827 -1.2 1.0 2.9920995984594345e-202 2.0652038663966312e-280 2.3997120391138437e-229 7.687028177201901e-69
43 1 -0.262694 9.34741 52.2523 1.2 1.0 0.0 0.0 0.0 1.7477251087644179e-276
44 1 1.87648 9.01537 49.4629 1.2 1.0 0.0 0.0 0.0 0.0
45 2 1.21415 11.3799 51.2378 2.4 0.0 0.0 0.0 0.0 1.0
46 3 1.31634 12.9512 51.3023 -1.2 1.0 0.0 0.0 0.0 0.0
47 3 1.18987 10.4125 57.951 -1.2 1.0 2.7127212768991425e-32 2.6452728301533282e-51 3.844317420623214e-48 2.2318469933718667e-15
48 3 -0.115718 10.7564 50.681 -1.2 1.0 0.0 0.0 0.0 0.0
49 1 -3.26386 9.35564 52.3622 1.2 1.0 0.0 0.0 0.0 7.040170828213998e-282
50 3 2.45216 10.7265 50.4558 -1.2 1.0 0.0 0.0 0.0 0.0
51 1 -1.80403 9.47943 55.1771 1.2 1.0 5.779746834035735e-308 0.0 0.0 5.506389454271982e-90
52 2 -1.79452 7.36373 53.38 2.4 0.0 0.0 0.0 0.0 1.0
53 3 -1.88416 5.81943 53.3413 -1.2 1.0 0.0 0.0 0.0 1.5703090448933507e-270
54 3 -1.19417 8.46968 46.4488 -1.2 1.0 0.0 0.0 0.0 0.0
55 3 -3.0831 8.06163 54.0255 -1.2 1.0 0.0 0.0 0.0 4.7261034072273604e-197
56 3 -0.515286 8.07386 54.0088 -1.2 1.0 0.0 0.0 0.0 2.590562707631221e-196
57 1 -3.15998 16.5172 57.4102 1.2 1.0 5.2078931579316525e-55 2.0766622346619392e-81 2.1946867260901365e-73 1.4759920434905073e-22
58 1 -1.6714 16.3544 49.8412 1.2 1.0 0.0 0.0 0.0 0.0
59 2 -1.18567 13.8526 47.9314 2.4 0.0 0.0 0.0 0.0 1.0
60 3 -1.09664 15.4205 47.9915 -1.2 1.0 0.0 0.0 0.0 0.0
61 3 -1.73493 12.7491 51.7772 -1.2 1.0 0.0 0.0 0.0 0.0
62 3 -2.36115 13.2717 48.8238 -1.2 1.0 0.0 0.0 0.0 0.0
63 1 -0.159928 11.7639 46.8533 1.2 1.0 0.0 0.0 0.0 0.0
64 3 0.2623 13.1866 48.413 -1.2 1.0 0.0 0.0 0.0 0.0
65 1 1.28416 11.8121 54.5659 1.2 1.0 0.0 0.0 0.0 2.5796335120309637e-130
66 2 1.28735 14.4668 56.4238 2.4 6.588416988057766e-108 5.169430211128173e-79 6.529865375632422e-131 1.7529151222773577e-107 1.0
67 3 1.24987 12.9125 56.5093 -1.2 1.0 7.87517893135939e-104 3.203227658328929e-148 3.9810509866947043e-131 8.544915304221319e-39
68 3 1.36565 15.4813 52.729 -1.2 1.0 0.0 0.0 0.0 0.0
69 3 0.00246535 15.146 55.7656 -1.2 1.0 2.0800296126037164e-242 0.0 1.7724272347063504e-270 7.552847788278935e-80
70 3 2.55797 15.1413 55.7375 -1.2 1.0 2.0261509324196054e-204 6.990767532298692e-285 7.615874177845536e-234 3.778777433226267e-70
71 1 -0.206989 14.1049 52.2121 1.2 1.0 0.0 0.0 0.0 7.127215030822083e-285
72 1 1.82591 13.8102 49.4556 1.2 1.0 0.0 0.0 0.0 0.0
73 2 1.29285 16.1518 51.2434 2.4 0.0 0.0 0.0 0.0 1.0
74 3 1.39496 17.7199 51.3047 -1.2 1.0 0.0 0.0 0.0 0.0
75 3 1.30919 15.1497 57.9167 -1.2 1.0 5.398399753621026e-32 1.216406761832398e-50 7.114365101648155e-48 1.8863067058955195e-15
76 3 -0.0269106 15.5178 50.6688 -1.2 1.0 0.0 0.0 0.0 0.0
77 1 -3.18391 14.1057 52.3125 1.2 1.0 0.0 0.0 0.0 9.743781836453705e-296
78 3 2.52432 15.503 50.4579 -1.2 1.0 0.0 0.0 0.0 0.0
79 1 -1.70454 14.1879 55.1258 1.2 1.0 5.791285549673612e-292 0.0 4.07217e-318 1.478011246317219e-86
80 2 -1.70285 12.0753 53.2622 2.4 0.0 0.0 0.0 0.0 1.0
81 3 -1.75475 10.5289 53.2083 -1.2 1.0 0.0 0.0 0.0 3.281540172248194e-283
82 3 -1.21337 13.3381 46.4311 -1.2 1.0 0.0 0.0 0.0 0.0
83 3 -2.9754 12.7711 53.9629 -1.2 1.0 0.0 0.0 0.0 1.8230044596983874e-219
84 3 -0.406558 12.7581 53.9012 -1.2 1.0 0.0 0.0 0.0 1.694308650230304e-211
85 1 -3.05507 21.256 57.4056 1.2 1.0 2.6266311863148505e-54 1.6508926033690713e-80 1.3748136266676086e-72 1.1329626731490674e-22
86 1 -1.5831 21.1217 49.8405 1.2 1.0 0.0 0.0 0.0 0.0
87 2 -1.09384 18.6291 47.9287 2.4 0.0 0.0 0.0 0.0 1.0
88 3 -1.02071 20.1985 47.9911 -1.2 1.0 0.0 0.0 0.0 0.0
89 3 -1.65002 17.5002 51.771 -1.2 1.0 0.0 0.0 0.0 0.0
90 3 -2.26174 18.0434 48.8281 -1.2 1.0 0.0 0.0 0.0 0.0
91 1 -0.0440435 16.5651 46.8269 1.2 1.0 0.0 0.0 0.0 0.0
92 3 0.37001 17.9877 48.3925 -1.2 1.0 0.0 0.0 0.0 0.0
93 1 1.37392 16.5532 54.5513 1.2 1.0 0.0 0.0 0.0 7.646932819723854e-129
94 2 1.38397 19.2036 56.4084 2.4 1.1354864205187386e-105 1.8035312762578455e-77 6.151809939526434e-129 6.610248820195405e-106 1.0
95 3 1.34314 17.6565 56.4905 -1.2 1.0 1.2798625254143515e-104 4.354138619176696e-149 4.6709485795951696e-132 6.132443254203665e-40
96 3 1.45147 20.239 52.7294 -1.2 1.0 0.0 0.0 0.0 0.0
97 3 0.107688 19.8975 55.7474 -1.2 1.0 2.613424009286528e-240 0.0 1.3270051019624782e-268 1.4222687851412096e-80
98 3 2.66188 19.8785 55.7337 -1.2 1.0 1.5557324238591948e-201 4.692493947567762e-281 7.141917627406377e-231 2.3798388109517002e-70
99 1 -0.126194 18.8651 52.2079 1.2 1.0 0.0 0.0 0.0 1.3595624587491312e-285
100 1 1.92402 18.5815 49.4545 1.2 1.0 0.0 0.0 0.0 0.0
101 2 1.38106 20.9117 51.2443 2.4 0.0 0.0 0.0 0.0 1.0
102 3 1.48527 22.4795 51.3054 -1.2 1.0 0.0 0.0 0.0 0.0
103 3 1.39955 19.8932 57.8984 -1.2 1.0 1.071769694203033e-32 1.1681783905858182e-51 8.709311930186397e-49 5.851185165718714e-16
104 3 0.0615419 20.2804 50.6669 -1.2 1.0 0.0 0.0 0.0 0.0
105 1 -3.09665 18.8643 52.3122 1.2 1.0 0.0 0.0 0.0 4.890652147355362e-298
106 3 2.61548 20.2646 50.4626 -1.2 1.0 0.0 0.0 0.0 0.0
107 1 -1.60006 18.9339 55.1033 1.2 1.0 5e-324 0.0 0.0 4.894997572277864e-94
108 2 -1.62228 16.8178 53.2495 2.4 0.0 0.0 0.0 0.0 1.0
109 3 -1.66576 15.2634 53.1808 -1.2 1.0 0.0 0.0 0.0 1.5838704924946911e-286
110 3 -1.12868 18.1227 46.4249 -1.2 1.0 0.0 0.0 0.0 0.0
111 3 -2.89286 17.51 53.9437 -1.2 1.0 0.0 0.0 0.0 5.566930787446576e-216
112 3 -0.329355 17.5029 53.8899 -1.2 1.0 0.0 0.0 0.0 1.7141148591144993e-209
113 1 -2.93373 26.0004 57.3913 1.2 1.0 1.181688430787471e-51 4.677764021349979e-77 1.5808872379894557e-69 1.3423365417340832e-21
114 1 -1.48778 25.88 49.8402 1.2 1.0 0.0 0.0 0.0 0.0
115 2 -1.00491 23.3922 47.9274 2.4 0.0 0.0 0.0 0.0 1.0
116 3 -0.927602 24.9615 47.9909 -1.2 1.0 0.0 0.0 0.0 0.0
117 3 -1.55795 22.2588 51.7696 -1.2 1.0 0.0 0.0 0.0 0.0
118 3 -2.17411 22.8111 48.8277 -1.2 1.0 0.0 0.0 0.0 0.0
119 1 0.0423997 21.3296 46.8225 1.2 1.0 0.0 0.0 0.0 0.0
120 3 0.458537 22.7495 48.3911 -1.2 1.0 0.0 0.0 0.0 0.0
121 1 1.45917 21.3038 54.5511 1.2 1.0 0.0 0.0 0.0 2.6942749296342067e-133
122 2 1.50207 23.9553 56.4034 2.4 2.1868407830053324e-101 5.90753004036397e-74 6.9915828568495796e-124 1.0106923611253995e-101 1.0000000000000002
123 3 1.46096 22.4033 56.4863 -1.2 1.0 4.999296360098333e-102 8.142318404756618e-146 2.284346673399939e-129 4.041832623689628e-39
124 3 1.54441 24.9963 52.7297 -1.2 1.0 0.0 0.0 0.0 0.0
125 3 0.219417 24.6423 55.7483 -1.2 1.0 1.5472330748957476e-232 5.884e-321 8.482517404733296e-260 3.443957859970272e-77
126 3 2.77301 24.6308 55.7193 -1.2 1.0 1.3157441988995437e-196 1.5123920651255308e-274 1.7973657362597907e-225 7.853357461597022e-68
127 1 -0.0335968 23.6229 52.2067 1.2 1.0 0.0 0.0 0.0 3.2087890811886685e-283
128 1 2.01073 23.3445 49.4541 1.2 1.0 0.0 0.0 0.0 0.0
129 2 1.47594 25.6699 51.2449 2.4 0.0 0.0 0.0 0.0 1.0
130 3 1.58172 27.2371 51.3054 -1.2 1.0 0.0 0.0 0.0 0.0
131 3 1.52799 24.6392 57.8938 -1.2 1.0 1.7065002130709897e-30 1.772403067920937e-48 4.5245573195188265e-46 3.2610831189590384e-15
132 3 0.157925 25.0378 50.6651 -1.2 1.0 0.0 0.0 0.0 0.0
133 1 -3.00341 23.6231 52.3098 1.2 1.0 0.0 0.0 0.0 3.532212181193356e-295
134 3 2.71149 25.0232 50.4656 -1.2 1.0 0.0 0.0 0.0 0.0
135 1 -1.49122 23.6786 55.1055 1.2 1.0 4.101043604e-314 0.0 0.0 1.365815110125857e-90
136 2 -1.53673 21.5678 53.2482 2.4 0.0 0.0 0.0 0.0 1.0
137 3 -1.58461 20.0168 53.1831 -1.2 1.0 0.0 0.0 0.0 4.469423379931165e-283
138 3 -1.03938 22.8897 46.4223 -1.2 1.0 0.0 0.0 0.0 0.0
139 3 -2.80015 22.269 53.939 -1.2 1.0 0.0 0.0 0.0 4.117836469499956e-216
140 3 -0.241202 22.2432 53.893 -1.2 1.0 0.0 0.0 0.0 1.3834552538964902e-204
141 1 -2.84571 30.7593 57.3986 1.2 1.0 1.690737069119249e-48 1.4734239664761846e-72 2.041502147557643e-65 3.5727098991271734e-20
142 1 -1.38776 30.6357 49.8391 1.2 1.0 0.0 0.0 0.0 0.0
143 2 -0.907929 28.1491 47.9262 2.4 0.0 0.0 0.0 0.0 1.0
144 3 -0.829229 29.7184 47.99 -1.2 1.0 0.0 0.0 0.0 0.0
145 3 -1.45946 27.0152 51.769 -1.2 1.0 0.0 0.0 0.0 0.0
146 3 -2.07744 27.5697 48.8273 -1.2 1.0 0.0 0.0 0.0 0.0
147 1 0.137907 26.087 46.819 1.2 1.0 0.0 0.0 0.0 0.0
148 3 0.55579 27.5065 48.3893 -1.2 1.0 0.0 0.0 0.0 0.0
149 1 1.55327 26.0551 54.5549 1.2 1.0 0.0 0.0 0.0 4.0710330513202994e-128
150 2 1.60644 28.7033 56.3986 2.4 7.952440686802302e-108 3.136612289975092e-79 3.559148719480646e-131 3.108004144469458e-107 1.0
151 3 1.56286 27.1474 56.4801 -1.2 1.0 1.1343884861446902e-96 8.18822111068053e-139 9.054083643909351e-124 1.4995932034160674e-36
152 3 1.6432 29.7522 52.7291 -1.2 1.0 0.0 0.0 0.0 0.0
153 3 0.332445 29.3916 55.732 -1.2 1.0 7.343180669176823e-238 0.0 1.9148516979163425e-264 1.1306729694504101e-76
154 3 2.88264 29.3891 55.7325 -1.2 1.0 2.7633176955622574e-191 2.7648493515056197e-267 4.459285933099892e-219 1.1088548959429792e-64
155 1 0.0647462 28.3794 52.2059 1.2 1.0 0.0 0.0 0.0 4.219645303019913e-281
156 1 2.10696 28.1021 49.4531 1.2 1.0 0.0 0.0 0.0 0.0
157 2 1.57592 30.4257 51.2442 2.4 0.0 0.0 0.0 0.0 1.0
158 3 1.68288 31.9926 51.3043 -1.2 1.0 0.0 0.0 0.0 0.0
159 3 1.62369 29.385 57.8939 -1.2 0.9999999999999716 1.5341954057421705e-28 1.350043630506746e-45 1.117807195534555e-43 2.4868029156381568e-14
160 3 0.258524 29.7935 50.6632 -1.2 1.0 0.0 0.0 0.0 0.0
161 1 -2.90462 28.3797 52.308 1.2 1.0 0.0 0.0 0.0 4.909841073769348e-291
162 3 2.81205 29.7787 50.4664 -1.2 1.0 0.0 0.0 0.0 0.0
163 1 -1.3722 28.4423 55.103 1.2 1.0 2.1772349340567356e-307 0.0 0.0 1.5188145962949947e-86
164 2 -1.44185 26.3281 53.2439 2.4 0.0 0.0 0.0 0.0 1.0
165 3 -1.48478 24.7734 53.1806 -1.2 1.0 0.0 0.0 0.0 2.5841173883842617e-284
166 3 -0.943026 27.648 46.4208 -1.2 1.0 0.0 0.0 0.0 0.0
167 3 -2.70641 27.028 53.9363 -1.2 1.0 0.0 0.0 0.0 7.5944404970883095e-211
168 3 -0.143207 27.0008 53.8909 -1.2 1.0 0.0 0.0 0.0 1.0532138707760802e-201
169 1 -2.74126 35.5059 57.3925 1.2 1.0 7.772489850993363e-48 9.87733208858555e-72 1.5015766650350066e-64 8.060416647130405e-20
170 1 -1.28421 35.3899 49.8376 1.2 1.0 0.0 0.0 0.0 0.0
171 2 -0.807101 32.9036 47.9247 2.4 0.0 0.0 0.0 0.0 1.0
172 3 -0.727174 34.4729 47.9885 -1.2 1.0 0.0 0.0 0.0 0.0
173 3 -1.35735 31.7701 51.768 -1.2 1.0 0.0 0.0 0.0 0.0
174 3 -1.97695 32.3253 48.826 -1.2 1.0 0.0 0.0 0.0 0.0
175 1 0.237665 30.8412 46.8168 1.2 1.0 0.0 0.0 0.0 0.0
176 3 0.656562 32.2608 48.3877 -1.2 1.0 0.0 0.0 0.0 0.0
177 1 1.66266 30.8167 54.5475 1.2 1.0 0.0 0.0 0.0 3.638608954993676e-125
178 2 1.70436 33.457 56.3909 2.4 2.472959467790313e-105 3.4143999588076e-77 4.0060285649498974e-128 1.644898190582927e-104 0.9999999999999999
179 3 1.66176 31.9079 56.4713 -1.2 1.0 7.958915307809661e-105 6.437600565412891e-150 2.0409344660112662e-131 2.3845112287664685e-38
180 3 1.74574 34.5067 52.7279 -1.2 1.0 0.0 0.0 0.0 0.0
181 3 0.426113 34.1487 55.7254 -1.2 1.0 9.561506869393512e-252 0.0 1.207765827482859e-277 8.98748498065797e-79
182 3 2.97957 34.1452 55.7209 -1.2 1.0 2.5188187558489333e-190 2.769548393633407e-266 6.090723326998803e-218 2.0600948983169707e-63
183 1 0.167046 33.1343 52.2045 1.2 1.0 0.0 0.0 0.0 1.6630449079255884e-276
184 1 2.20727 32.8578 49.4516 1.2 1.0 0.0 0.0 0.0 0.0
185 2 1.67943 35.1802 51.2429 2.4 0.0 0.0 0.0 0.0 1.0
186 3 1.78736 36.747 51.303 -1.2 1.0 0.0 0.0 0.0 0.0
187 3 1.71908 34.1371 57.8839 -1.2 0.9999999999999147 8.587702206567785e-28 2.183716865895987e-44 1.1977172048406293e-42 9.071763149969324e-14
188 3 0.362533 34.5479 50.661 -1.2 1.0 0.0 0.0 0.0 0.0
189 1 -2.80215 33.1347 52.3062 1.2 1.0 0.0 0.0 0.0 7.55310505030594e-284
190 3 2.91593 34.533 50.466 -1.2 1.0 0.0 0.0 0.0 0.0
191 1 -1.28318 33.1954 55.092 1.2 1.0 1.0326499115782738e-303 0.0 0.0 1.083066935470168e-84
192 2 -1.34156 31.0836 53.2461 2.4 0.0 0.0 0.0 0.0 1.0
193 3 -1.38143 29.5297 53.1807 -1.2 1.0 0.0 0.0 0.0 1.940500891859337e-279
194 3 -0.842495 32.4028 46.4192 -1.2 1.0 0.0 0.0 0.0 0.0
195 3 -2.60832 31.7733 53.9356 -1.2 1.0 0.0 0.0 0.0 4.354733164131339e-207
196 3 -0.0495101 31.7647 53.8932 -1.2 1.0 0.0 0.0 0.0 7.226419240674213e-196
197 1 -2.63638 40.2648 57.3797 1.2 1.0 1.2941369936944644e-47 2.5822406313859706e-71 3.664552626161491e-64 9.647458486574337e-20
198 1 -1.17787 40.1435 49.8359 1.2 1.0 0.0 0.0 0.0 0.0
199 2 -0.702692 37.6572 47.9231 2.4 0.0 0.0 0.0 0.0 1.0
200 3 -0.621782 39.2264 47.9868 -1.2 1.0 0.0 0.0 0.0 0.0
201 3 -1.25221 36.5242 51.7666 -1.2 1.0 0.0 0.0 0.0 0.0
202 3 -1.87295 37.0796 48.8243 -1.2 1.0 0.0 0.0 0.0 0.0
203 1 0.341084 35.5943 46.8152 1.2 1.0 0.0 0.0 0.0 0.0
204 3 0.760681 37.0138 48.3864 -1.2 1.0 0.0 0.0 0.0 0.0
205 1 1.7633 35.5799 54.5428 1.2 1.0 0.0 0.0 0.0 3.428660241627483e-121
206 2 1.81362 38.2157 56.3872 2.4 1.2140209336298613e-104 9.520886678473522e-77 2.7962619892737322e-127 9.318720372008512e-104 1.0000000000000004
207 3 1.77119 36.6602 56.4729 -1.2 1.0 1.6408188041869188e-103 4.839726160360327e-148 6.4859266190067375e-130 1.1553837540110733e-37
208 3 1.85132 39.2606 52.7264 -1.2 1.0 0.0 0.0 0.0 0.0
209 3 0.526234 38.9011 55.7305 -1.2 1.0 4.486445393224699e-239 0.0 1.8786052246087554e-265 4.34542396250269e-76
210 3 3.08206 38.8951 55.7073 -1.2 1.0 5.172629629090775e-190 7.543390117779922e-266 6.440802727813272e-218 8.898225744002408e-64
211 1 0.272384 37.8883 52.2029 1.2 1.0 0.0 0.0 0.0 3.232773787910796e-276
212 1 2.31122 37.6122 49.4501 1.2 1.0 0.0 0.0 0.0 0.0
213 2 1.78573 39.934 51.2414 2.4 0.0 0.0 0.0 0.0 1.0
214 3 1.89428 41.5006 51.3014 -1.2 1.0 0.0 0.0 0.0 0.0
215 3 1.8331 38.8934 57.8771 -1.2 0.9999999999999005 2.3413440157531574e-27 9.770661663421737e-44 4.1633998149789435e-42 1.0549901686029951e-13
216 3 0.469216 39.3015 50.6588 -1.2 1.0 0.0 0.0 0.0 0.0
217 1 -2.69668 37.8889 52.3043 1.2 1.0 0.0 0.0 0.0 6.824369490878239e-283
218 3 3.0225 39.2866 50.4651 -1.2 1.0 0.0 0.0 0.0 0.0
219 1 -1.18319 37.9448 55.1011 1.2 1.0 2.2455714634401469e-302 0.0 0.0 1.8832552239913826e-84
220 2 -1.233 35.8358 53.2459 2.4 0.0 0.0 0.0 0.0 1.0
221 3 -1.28774 34.2793 53.1768 -1.2 1.0 0.0 0.0 0.0 4.589925646398119e-276
222 3 -0.738054 37.1566 46.4176 -1.2 1.0 0.0 0.0 0.0 0.0
223 3 -2.49741 36.54 53.927 -1.2 1.0 0.0 0.0 0.0 1.718009079640826e-206
224 3 0.052589 36.513 53.8949 -1.2 1.0 0.0 0.0 0.0 8.100945597271264e-196
225 1 -2.54023 45.016 57.3888 1.2 1.0 1.9093381950715066e-47 3.9747038000621814e-71 5.3891228500598566e-64 8.386128047905041e-20
226 1 -1.06993 44.8968 49.8343 1.2 1.0 0.0 0.0 0.0 0.0
227 2 -0.596166 42.4103 47.9215 2.4 0.0 0.0 0.0 0.0 1.0
228 3 -0.51472 43.9796 47.9853 -1.2 1.0 0.0 0.0 0.0 0.0
229 3 -1.14475 41.2777 51.7649 -1.2 1.0 0.0 0.0 0.0 0.0
230 3 -1.76671 41.8331 48.8226 -1.2 1.0 0.0 0.0 0.0 0.0
231 1 0.447076 40.3473 46.8135 1.2 1.0 0.0 0.0 0.0 0.0
232 3 0.866985 41.7666 48.385 -1.2 1.0 0.0 0.0 0.0 0.0
233 1 1.87503 40.3315 54.54 1.2 1.0 0.0 0.0 0.0 3.759302692059703e-120
234 2 1.90231 42.9645 56.3952 2.4 2.7584655527740837e-108 2.3443462090496604e-79 1.5814054911058404e-131 2.982767857659961e-107 1.0000000000000002
235 3 1.86852 41.4079 56.4677 -1.2 1.0 1.8391140873543974e-103 5.206650717521687e-148 6.329855202882506e-130 4.835396839241267e-38
236 3 1.95891 44.014 52.7248 -1.2 1.0 0.0 0.0 0.0 0.0
237 3 0.631359 43.6612 55.7315 -1.2 1.0 2.673714758978298e-240 0.0 9.704093037956697e-267 7.228093597076857e-77
238 3 3.18261 43.6496 55.7251 -1.2 1.0 1.8128223090158754e-190 2.6512008772102615e-266 5.728317267518954e-218 1.0775634399584006e-63
239 1 0.379928 42.6418 52.2013 1.2 1.0 0.0 0.0 0.0 1.3226828217989583e-272
240 1 2.41752 42.366 49.4484 1.2 1.0 0.0 0.0 0.0 0.0
241 2 1.89374 44.6874 51.2398 2.4 0.0 0.0 0.0 0.0 1.0
242 3 2.00266 46.254 51.2996 -1.2 1.0 0.0 0.0 0.0 0.0
243 3 1.9248 43.644 57.8861 -1.2 0.9999999999999005 1.43479216323126e-27 7.175746089266432e-44 3.394448468468377e-42 9.353371417945652e-14
244 3 0.577464 44.0549 50.6567 -1.2 1.0 0.0 0.0 0.0 0.0
245 1 -2.58906 42.6425 52.3022 1.2 1.0 0.0 0.0 0.0 9.472884438634112e-284
246 3 3.13067 44.0398 50.464 -1.2 1.0 0.0 0.0 0.0 0.0
247 1 -1.07943 42.7045 55.0977 1.2 1.0 3.221694799703673e-304 0.0 0.0 2.8080081492189215e-85
248 2 -1.12755 40.5925 53.2433 2.4 0.0 0.0 0.0 0.0 1.0
249 3 -1.17322 39.0398 53.1687 -1.2 1.0 0.0 0.0 0.0 6.6667423052576e-276
250 3 -0.631421 41.9099 46.4159 -1.2 1.0 0.0 0.0 0.0 0.0
251 3 -2.39464 41.2841 53.9283 -1.2 1.0 0.0 0.0 0.0 9.496158558754253e-207
252 3 0.161649 41.2719 53.893 -1.2 1.0 0.0 0.0 0.0 1.611992105901638e-193
253 1 -2.42491 49.757 57.3907 1.2 1.0 4.0657554924918774e-47 6.8221736330954896e-71 1.2180509434194947e-63 8.489310936577462e-20
254 1 -0.961069 49.6502 49.8327 1.2 1.0 0.0 0.0 0.0 0.0
255 2 -0.488083 47.1636 47.9198 2.4 0.0 0.0 0.0 0.0 1.0
256 3 -0.40607 48.7329 47.9837 -1.2 1.0 0.0 0.0 0.0 0.0
257 3 -1.0361 46.031 51.7632 -1.2 1.0 0.0 0.0 0.0 0.0
258 3 -1.65866 46.5866 48.821 -1.2 1.0 0.0 0.0 0.0 0.0
259 1 0.554124 45.1001 46.8117 1.2 1.0 0.0 0.0 0.0 0.0
260 3 0.974961 46.5195 48.3832 -1.2 1.0 0.0 0.0 0.0 0.0
261 1 1.97214 45.0777 54.549 1.2 1.0 0.0 0.0 0.0 5.901595503361095e-122
262 2 2.00977 47.7231 56.3932 2.4 1.6195387566916352e-108 2.5818197189465807e-79 1.7348274011411352e-131 3.556186253630148e-107 1.0000000000000002
263 3 1.97519 46.1669 56.47 -1.2 1.0 3.054456939719955e-103 7.271931664053124e-148 9.066580139708786e-130 7.374141972203037e-38
264 3 2.0677 48.7672 52.7232 -1.2 1.0 0.0 0.0 0.0 0.0
265 3 0.735999 48.4117 55.734 -1.2 1.0 8.0804467032157e-239 0.0 3.5042383875973695e-265 3.066175469755514e-76
266 3 3.28924 48.4025 55.7256 -1.2 1.0 2.937777363853147e-187 2.0995671324827567e-262 3.3540619763073975e-215 2.987678584363447e-63
267 1 0.488584 47.395 52.1996 1.2 1.0 0.0 0.0 0.0 6.50853262338931e-273
268 1 2.52544 47.1195 49.4466 1.2 1.0 0.0 0.0 0.0 0.0
269 2 2.00256 49.4407 51.2382 2.4 0.0 0.0 0.0 0.0 1.0
270 3 2.11156 51.0073 51.2982 -1.2 1.0 0.0 0.0 0.0 0.0
271 3 2.03001 48.3933 57.8873 -1.2 0.9999999999998721 5.3290339739969245e-27 2.4454830393538546e-43 1.536677450262982e-41 1.3322782084853513e-13
272 3 0.686344 48.8082 50.655 -1.2 1.0 0.0 0.0 0.0 0.0
273 1 -2.48039 47.3957 52.3005 1.2 1.0 0.0 0.0 0.0 5.301420854513778e-284
274 3 3.23944 48.7932 50.4623 -1.2 1.0 0.0 0.0 0.0 0.0
275 1 -0.980768 47.4521 55.1035 1.2 1.0 7.408424209894485e-290 0.0 2.78749344205e-313 1.1106287552851262e-82
276 2 -1.01344 45.3488 53.2404 2.4 0.0 0.0 0.0 0.0 1.0
277 3 -1.06252 43.7877 53.1767 -1.2 1.0 0.0 0.0 0.0 5.728387390276034e-277
278 3 -0.523731 46.6632 46.4143 -1.2 1.0 0.0 0.0 0.0 0.0
279 3 -2.28627 46.0452 53.9267 -1.2 1.0 0.0 0.0 0.0 6.56826920768678e-207
280 3 0.271726 46.0247 53.8928 -1.2 1.0 0.0 0.0 0.0 3.3918292317265347e-193
281 1 -2.3156 54.5205 57.3828 1.2 1.0 2.3882053909803538e-47 2.42925217158554e-71 6.396677034257167e-64 1.0577606268184699e-19
282 1 -0.852141 54.4034 49.8315 1.2 1.0 0.0 0.0 0.0 0.0
283 2 -0.378544 51.9171 47.9184 2.4 0.0 0.0 0.0 0.0 1.0
284 3 -0.296378 53.4863 47.9823 -1.2 1.0 0.0 0.0 0.0 0.0
285 3 -0.927178 50.7841 51.7618 -1.2 1.0 0.0 0.0 0.0 0.0
286 3 -1.5492 51.3402 48.8196 -1.2 1.0 0.0 0.0 0.0 0.0
287 1 0.663149 49.8533 46.8103 1.2 1.0 0.0 0.0 0.0 0.0
288 3 1.08434 51.2727 48.3819 -1.2 1.0 0.0 0.0 0.0 0.0
289 1 2.08391 49.8312 54.5411 1.2 1.0 0.0 0.0 0.0 1.1363014689656313e-121
290 2 2.12322 52.461 56.3837 2.4 2.385786832931947e-109 9.028704761352147e-80 2.203727176677967e-132 9.058762457179291e-108 1.0000000000000004
291 3 2.0749 50.9088 56.4747 -1.2 1.0 4.759079305494337e-103 9.302584723214607e-148 1.6212210528719156e-129 1.0054658901633251e-37
292 3 2.17678 53.5203 52.7219 -1.2 1.0 0.0 0.0 0.0 0.0
293 3 0.850295 53.1623 55.7341 -1.2 1.0 6.8289935010287025e-239 0.0 2.3953526939322848e-265 2.059501622557597e-76
294 3 3.39431 53.1446 55.7107 -1.2 1.0 2.1473691684288012e-187 1.0011619342006824e-262 2.72620270383552e-215 2.2073524102170887e-63
295 1 0.597515 52.1481 52.1982 1.2 1.0 0.0 0.0 0.0 1.3691172998310556e-274
296 1 2.63482 51.8727 49.4453 1.2 1.0 0.0 0.0 0.0 0.0
297 2 2.11145 54.194 51.237 2.4 0.0 0.0 0.0 0.0 1.0
298 3 2.22036 55.7605 51.2971 -1.2 1.0 0.0 0.0 0.0 0.0
299 3 2.15203 53.1437 57.8796 -1.2 0.9999999999998295 6.286514024252226e-27 1.981491152997401e-43 1.968624888286588e-41 1.6740598811093392e-13
300 3 0.795151 53.5615 50.6538 -1.2 1.0 0.0 0.0 0.0 0.0
301 1 -2.37147 52.1489 52.2994 1.2 1.0 0.0 0.0 0.0 2.650031727380647e-285
302 3 3.34826 53.5466 50.4608 -1.2 1.0 0.0 0.0 0.0 0.0
303 1 -0.858762 52.2025 55.1044 1.2 1.0 1.0947778176380336e-289 0.0 3.06881255144e-313 1.1751425681241047e-82
304 2 -0.907074 50.0982 53.2412 2.4 0.0 0.0 0.0 0.0 1.0
305 3 -0.953434 48.5439 53.1731 -1.2 1.0 0.0 0.0 0.0 1.419742000090912e-276
306 3 -0.414295 51.4167 46.4129 -1.2 1.0 0.0 0.0 0.0 0.0
307 3 -2.18004 50.7887 53.9286 -1.2 1.0 0.0 0.0 0.0 1.221450121604133e-203
308 3 0.382363 50.7768 53.8936 -1.2 1.0 0.0 0.0 0.0 7.113796774043029e-193
309 1 -2.20516 59.2613 57.3915 1.2 1.0 2.327435304834816e-47 1.7453996721769423e-71 4.4446027026593845e-64 1.0387654963783003e-19
310 1 -0.743708 59.1569 49.8307 1.2 1.0 0.0 0.0 0.0 0.0
311 2 -0.269405 56.6708 47.9174 2.4 0.0 0.0 0.0 0.0 1.0
312 3 -0.187669 58.2401 47.9814 -1.2 1.0 0.0 0.0 0.0 0.0
313 3 -0.818478 55.5373 51.7607 -1.2 1.0 0.0 0.0 0.0 0.0
314 3 -1.44003 56.0936 48.8185 -1.2 1.0 0.0 0.0 0.0 0.0
315 1 0.772639 54.6072 46.8092 1.2 1.0 0.0 0.0 0.0 0.0
316 3 1.19351 56.0266 48.3809 -1.2 1.0 0.0 0.0 0.0 0.0
317 1 2.19202 54.5762 54.5369 1.2 1.0 0.0 0.0 0.0 1.6321189310482107e-122
318 2 2.2373 57.2294 56.3836 2.4 1.0306581120034658e-109 2.7510781620556743e-80 5.679331676887926e-133 2.9363015633157196e-108 1.0000000000000004
319 3 2.19849 55.6756 56.4639 -1.2 1.0 6.126431532653149e-104 3.7126374180109194e-149 1.77248317375961e-130 7.870254884566108e-38
320 3 2.28552 58.2735 52.7209 -1.2 1.0 0.0 0.0 0.0 0.0
321 3 0.957701 57.9212 55.7274 -1.2 1.0 5.627754092569663e-240 0.0 3.027805560839138e-266 1.9096822192659895e-76
322 3 3.51281 57.9098 55.7088 -1.2 1.0 2.2588101228155652e-188 4.5562630568903905e-264 2.4382788352604465e-216 1.2109353405586148e-63
323 1 0.706198 56.9012 52.1971 1.2 1.0 0.0 0.0 0.0 8.85117859607733e-275
324 1 2.74404 56.6261 49.4443 1.2 1.0 0.0 0.0 0.0 0.0
325 2 2.21991 58.9473 51.2362 2.4 0.0 0.0 0.0 0.0 1.0
326 3 2.32845 60.5139 51.2962 -1.2 1.0 0.0 0.0 0.0 0.0
327 3 2.26185 57.8953 57.878 -1.2 0.9999999999998579 3.8641039870205034e-27 6.689190220181481e-44 9.70224019247616e-42 1.4901385289589176e-13
328 3 0.903509 58.3149 50.6531 -1.2 1.0 0.0 0.0 0.0 0.0
329 1 -2.26283 56.9019 52.2988 1.2 1.0 0.0 0.0 0.0 1.316331363147892e-286
330 3 3.45667 58.3001 50.4597 -1.2 1.0 0.0 0.0 0.0 0.0
331 1 -0.749216 56.96 55.0866 1.2 1.0 2.3253942166085466e-304 0.0 0.0 2.945707422131683e-85
332 2 -0.799946 54.8458 53.2369 2.4 0.0 0.0 0.0 0.0 1.0
333 3 -0.845318 53.2928 53.1762 -1.2 1.0 0.0 0.0 0.0 6.794317519078017e-277
334 3 -0.304995 56.1705 46.4119 -1.2 1.0 0.0 0.0 0.0 0.0
335 3 -2.0678 55.5329 53.9252 -1.2 1.0 0.0 0.0 0.0 6.659911738286403e-207
336 3 0.492306 55.5291 53.8894 -1.2 1.0 0.0 0.0 0.0 3.728435448188085e-195
337 1 -2.08994 64.0228 57.3931 1.2 1.0 1.855446638579879e-46 2.4423032988858147e-70 2.765144787776269e-63 1.7073316579977055e-19
338 1 -0.636972 63.9105 49.8301 1.2 1.0 0.0 0.0 0.0 0.0
339 2 -0.161217 61.4249 47.9168 2.4 0.0 0.0 0.0 0.0 1.0
340 3 -0.0799602 62.9942 47.9808 -1.2 1.0 0.0 0.0 0.0 0.0
341 3 -0.71051 60.2905 51.7601 -1.2 1.0 0.0 0.0 0.0 0.0
342 3 -1.33142 60.8473 48.8182 -1.2 1.0 0.0 0.0 0.0 0.0
343 1 0.880515 59.3614 46.808 1.2 1.0 0.0 0.0 0.0 0.0
344 3 1.30191 60.7808 48.3796 -1.2 1.0 0.0 0.0 0.0 0.0
345 1 2.3038 59.3309 54.5325 1.2 1.0 0.0 0.0 0.0 8.350294255100432e-123
346 2 2.36065 61.9766 56.3844 2.4 9.100789470637817e-105 1.2958850223994003e-76 2.4712026026047157e-127 8.578533832323059e-104 1.0
347 3 2.31702 60.4228 56.4753 -1.2 1.0 1.8881490389502102e-91 4.316656304444985e-132 1.2676234520612331e-117 6.241413808833296e-34
348 3 2.39322 63.0266 52.7201 -1.2 1.0 0.0 0.0 0.0 0.0
349 3 1.07998 62.6685 55.7218 -1.2 1.0 3.5192982758229425e-237 0.0 3.645928174530608e-262 2.798151619700828e-75
350 3 3.63242 62.66 55.7172 -1.2 1.0 9.439990887278983e-187 1.1853762338104097e-261 3.2073392706720378e-214 1.3160825261056405e-62
351 1 0.813856 61.6544 52.1964 1.2 1.0 0.0 0.0 0.0 3.510451053763866e-274
352 1 2.85244 61.3793 49.4433 1.2 1.0 0.0 0.0 0.0 0.0
353 2 2.32661 63.7006 51.2354 2.4 0.0 0.0 0.0 0.0 1.0
354 3 2.43416 65.2673 51.2956 -1.2 1.0 0.0 0.0 0.0 0.0
355 3 2.37408 62.6521 57.8798 -1.2 0.9999999999997584 8.335860098455308e-27 1.522747579416168e-43 1.6884721845371886e-41 2.3591146403550105e-13
356 3 1.00987 63.0684 50.653 -1.2 1.0 0.0 0.0 0.0 0.0
357 1 -2.15526 61.6549 52.2986 1.2 1.0 0.0 0.0 0.0 1.345419476970706e-289
358 3 3.56306 63.054 50.4581 -1.2 1.0 0.0 0.0 0.0 0.0
359 1 -0.638156 61.7031 55.1032 1.2 1.0 3.8058187481986594e-286 0.0 5.010458631276556e-308 6.030063702150623e-80
360 2 -0.69317 59.6046 53.2368 2.4 0.0 0.0 0.0 0.0 1.0
361 3 -0.741816 58.0506 53.1687 -1.2 1.0 0.0 0.0 0.0 2.530316328658228e-277
362 3 -0.197347 60.9246 46.4112 -1.2 1.0 0.0 0.0 0.0 0.0
363 3 -1.9604 60.2979 53.9224 -1.2 1.0 0.0 0.0 0.0 7.306036150150743e-204
364 3 0.599373 60.2824 53.8888 -1.2 1.0 0.0 0.0 0.0 3.9055675650121043e-193
365 1 -1.97288 68.7687 57.3787 1.2 1.0 5.080143418415888e-46 1.0981775791022759e-69 7.496744832623936e-63 1.770646183123566e-19
366 1 -0.533443 68.6636 49.8296 1.2 1.0 0.0 0.0 0.0 0.0
367 2 -0.0548096 66.1789 47.9162 2.4 0.0 0.0 0.0 0.0 1.0
368 3 0.0255715 67.7482 47.9801 -1.2 1.0 0.0 0.0 0.0 0.0
369 3 -0.605209 65.0437 51.7598 -1.2 1.0 0.0 0.0 0.0 0.0
370 3 -1.22454 65.6011 48.818 -1.2 1.0 0.0 0.0 0.0 0.0
371 1 0.987386 64.1158 46.807 1.2 1.0 0.0 0.0 0.0 0.0
372 3 1.4086 65.5353 48.3785 -1.2 1.0 0.0 0.0 0.0 0.0
373 1 2.40848 64.0896 54.5401 1.2 1.0 0.0 0.0 0.0 9.798526181967248e-122
374 2 2.47326 66.7234 56.3779 2.4 1.7417013337234968e-104 2.2129744140009832e-76 7.796081996760862e-127 1.6295304971099134e-103 0.9999999999999999
375 3 2.42203 65.1703 56.464 -1.2 1.0 3.1306494135165393e-102 7.240024423033317e-147 7.002067857610528e-129 3.719179533796754e-37
376 3 2.49801 67.7798 52.7194 -1.2 1.0 0.0 0.0 0.0 0.0
377 3 1.19498 67.4221 55.724 -1.2 1.0 7.305322124132547e-235 5e-324 1.053101439847321e-260 1.6679283438273746e-74
378 3 3.74663 67.4041 55.713 -1.2 1.0 1.2121751189629288e-185 3.2247036763352325e-260 1.968113324433406e-213 2.3957187868920063e-62
379 1 0.918773 66.4074 52.1957 1.2 1.0 0.0 0.0 0.0 7.519956106482076e-277
380 1 2.95913 66.1322 49.4427 1.2 1.0 0.0 0.0 0.0 0.0
381 2 2.43017 68.4538 51.2348 2.4 0.0 0.0 0.0 0.0 1.0
382 3 2.53642 70.0208 51.2951 -1.2 1.0 0.0 0.0 0.0 0.0
383 3 2.48918 67.401 57.8765 -1.2 0.9999999999995737 3.7312212488989064e-26 1.60596476863234e-42 8.26142794761519e-41 4.2825390089751464e-13
384 3 1.11294 67.8218 50.6533 -1.2 1.0 0.0 0.0 0.0 0.0
385 1 -2.0505 66.4078 52.2991 1.2 1.0 0.0 0.0 0.0 2.540078053822216e-286
386 3 3.66629 67.8078 50.4567 -1.2 1.0 0.0 0.0 0.0 0.0
387 1 -0.514904 66.4586 55.0952 1.2 1.0 3.681332603773775e-301 0.0 3e-323 1.568827810761284e-83
388 2 -0.587421 64.3578 53.2381 2.4 0.0 0.0 0.0 0.0 1.0