ITEM: TIMESTEP
2300
ITEM: NUMBER OF ATOMS
10500
ITEM: BOX BOUNDS xy xz yz pp pp pp
0	8.9688	2.9896
0	118.725	0
0	252.977	0
ITEM: ATOMS id type xu yu zu q pCrystal pDisloC pDisloB pDisloA
1 1 -3.75371 7.07357 57.2602 1.2 5.2417435491018456e-14 0.0007007762211102531 5.602433652412079e-63 0.9992992237788381
2 1 -1.82233 6.9861 49.7812 1.2 0.0 2.1536218591683763e-143 0.0 1.0
3 2 -0.333884 3.8497 47.7965 2.4 4.019554125241167e-220 0.0 0.0 1.0
4 3 -0.296967 5.34471 47.2939 -1.2 0.0 0.0 0.0 1.0
5 3 -1.97139 3.42363 51.6348 -1.2 6.6e-322 0.0 0.0 1.0
6 3 -1.57887 3.59032 48.6589 -1.2 0.0 0.0 0.0 1.0
7 1 1.80468 2.46721 46.8719 1.2 0.0 5.4543869489945476e-241 0.0 1.0
8 3 1.11377 3.63389 48.5198 -1.2 0.0 0.0 0.0 1.0
9 1 1.12781 2.47034 54.3133 1.2 7.4296362179416e-141 2.773666233086553e-48 0.0 1.0
10 2 0.826068 5.07012 56.2562 2.4 1.3962060511995755e-09 8.688983510504304e-79 6.976828725978472e-112 0.9999999986037977
11 3 0.985416 3.52511 56.2681 -1.2 7.159299829468032e-24 2.744765773917395e-59 3.2653567709625347e-100 0.9999999999999986
12 3 1.08022 6.08042 52.506 -1.2 1.7641837450539694e-212 0.0 0.0 0.9999999999999467
13 3 -0.449188 5.77249 55.7402 -1.2 7.224828904726257e-42 1.7599544866532746e-100 1.062365467332958e-151 1.0000000000000058
14 3 2.03009 5.87933 55.5654 -1.2 5.514117657446784e-42 4.909921380869018e-103 9.794439891840017e-161 1.0000000000000078
15 1 -0.499279 4.74909 51.9158 1.2 0.0 1.7915454370054186e-112 0.0 1.0
16 1 2.69769 4.04388 49.6721 1.2 0.0 3.102793549708795e-167 0.0 1.0
17 2 1.15694 6.60835 50.9686 2.4 8.215004999411307e-160 0.0 0.0 1.0
18 3 1.22205 8.16749 50.926 -1.2 0.0 0.0 0.0 1.0
19 3 0.897056 5.82685 57.8103 -1.2 1.405459931215183e-07 2.3163573384356317e-19 8.023493286330211e-48 0.9999998594540065
20 3 -0.269919 6.03873 50.4145 -1.2 0.0 0.0 0.0 1.0
21 1 -3.60192 4.57981 52.3859 1.2 0.0 3.5419038644689774e-101 0.0 1.0
22 3 2.49245 5.93734 50.4039 -1.2 0.0 0.0 0.0 1.0
23 1 -2.1222 4.96517 55.1089 1.2 7.489824953254467e-65 2.0632436585048058e-20 5.31434225509763e-219 0.9999999999999978
24 2 -1.87875 2.71283 53.0897 2.4 1.0861069603717283e-96 0.0 0.0 1.0
25 3 -1.85095 1.08277 53.0049 -1.2 2.188509411338494e-197 0.0 0.0 0.999999999999893
26 3 -0.0886853 2.79297 46.6232 -1.2 0.0 0.0 0.0 1.0
27 3 -3.20007 3.35152 53.7616 -1.2 9.355498843589491e-151 0.0 0.0 0.9999999999999617
28 3 -0.61791 3.34448 53.7771 -1.2 6.871080814604469e-139 0.0 0.0 0.9999999999999598
29 1 -3.72806 11.8632 57.5215 1.2 1.0949130246266768e-11 0.0010404673803580207 5.4232826171768135e-55 0.9989595326086962
30 1 -1.68103 11.535 49.1439 1.2 0.0 3.7850952919857328e-177 0.0 1.0
31 2 -0.946839 8.93592 47.4947 2.4 5.480198426288563e-152 0.0 0.0 1.0
32 3 -0.953737 10.5299 47.4524 -1.2 0.0 0.0 0.0 1.0
33 3 -2.04556 8.07 51.5194 -1.2 0.0 0.0 0.0 1.0
34 3 -2.14741 8.28391 48.357 -1.2 0.0 0.0 0.0 1.0
35 1 0.353053 6.8569 46.4381 1.2 0.0 2.0400486430748807e-176 0.0 1.0
36 3 0.563104 8.36058 47.9189 -1.2 0.0 0.0 0.0 1.0
37 1 1.00597 7.25926 54.235 1.2 3.5886300671007367e-134 1.2918769200212161e-39 0.0 1.0
38 2 0.824062 9.80484 56.2687 2.4 2.3377515661724453e-09 1.5166275855444318e-77 2.5829843754293094e-111 0.9999999976622433
39 3 0.734866 8.33593 56.2488 -1.2 1.4884603313432355e-26 2.3604314329074681e-63 1.2742463284193348e-106 0.9999999999999978
40 3 1.22744 10.789 52.136 -1.2 3.882949900332953e-275 0.0 0.0 1.0000000000000344
41 3 -0.473802 10.4988 55.6413 -1.2 1.1560053927297436e-43 1.7379899870722206e-107 1.9015104064772933e-165 1.0000000000000022
42 3 2.04117 10.4257 55.4904 -1.2 5.4412568999818345e-52 4.7642499599091554e-129 1.978252947627143e-198 1.0000000000000135
43 1 -0.362598 9.60869 51.9108 1.2 0.0 1.0405699302986984e-90 0.0 1.0
44 1 1.97714 8.99736 49.0946 1.2 0.0 1.6910008003704083e-170 0.0 1.0
45 2 1.22951 11.4925 50.7025 2.4 2.3637438487836856e-163 0.0 0.0 1.0
46 3 1.46979 13.0432 50.931 -1.2 0.0 0.0 0.0 1.0000000000000435
47 3 0.87134 10.5107 57.7137 -1.2 5.515636414533704e-09 2.863786763590647e-21 1.6066155825498814e-50 0.999999994484367
48 3 -0.0878467 10.9829 50.1139 -1.2 0.0 0.0 0.0 1.0
49 1 -3.28048 9.43271 52.2351 1.2 0.0 2.378335718919399e-117 0.0 1.0
50 3 2.51203 10.7791 49.8021 -1.2 0.0 0.0 0.0 1.0
51 1 -1.99826 9.39229 54.8177 1.2 1.2275442461375057e-90 1.249619417026923e-28 1.8353288715663954e-300 1.0
52 2 -1.74819 7.43934 53.0089 2.4 1.0504724080298684e-86 0.0 0.0 1.0
53 3 -1.90122 5.93517 53.1968 -1.2 4.5826519575668807e-184 0.0 0.0 1.000000000000053
54 3 -0.823801 8.30101 45.9464 -1.2 0.0 0.0 0.0 1.0
55 3 -3.09256 8.12989 53.7294 -1.2 5.755751567574746e-147 0.0 0.0 1.0000000000000506
56 3 -0.507291 8.24285 53.5616 -1.2 2.3382516775820377e-136 0.0 0.0 0.9999999999999776
57 1 -3.28025 16.5414 57.3366 1.2 2.7420648922579656e-12 0.002189727353353032 1.3462482686187215e-57 0.9978102726439035
58 1 -1.4699 16.197 49.4445 1.2 0.0 3.8846510717106846e-173 0.0 1.0
59 2 -0.830667 13.8889 47.5486 2.4 9.670176456649008e-153 0.0 0.0 1.0
60 3 -0.559016 15.3859 47.8341 -1.2 0.0 0.0 0.0 1.0
61 3 -1.61962 12.94 51.5691 -1.2 0.0 0.0 0.0 0.9999999999999081
62 3 -2.05321 13.3281 48.2844 -1.2 0.0 0.0 0.0 1.0
63 1 0.224343 11.7669 46.3781 1.2 0.0 8.207328774188063e-225 0.0 1.0
64 3 0.538942 13.1292 48.0708 -1.2 0.0 0.0 0.0 1.0
65 1 1.3593 11.9666 54.3442 1.2 3.0573161079377545e-141 2.526082549648179e-42 0.0 1.0
66 2 1.09739 14.5431 56.398 2.4 0.0033003478385508086 8.779206706029391e-66 1.0079778404807976e-95 0.9966996521614497
67 3 1.06423 13.0741 56.5201 -1.2 4.798276569886323e-19 3.836893016468284e-46 1.2316095875017093e-83 0.9999999999999997
68 3 1.57563 15.5547 52.5064 -1.2 4.2214779214037766e-268 0.0 0.0 0.9999999999999442
69 3 -0.202228 15.1486 55.7317 -1.2 2.057190949472432e-43 4.906697370515844e-110 4.8643842329862895e-178 1.000000000000008
70 3 2.41812 15.2453 55.6831 -1.2 7.32917115610584e-41 4.133371066169709e-102 4.9193086934239367e-169 0.9999999999999944
71 1 0.0262128 14.2085 52.1309 1.2 0.0 3.1505063131379075e-108 0.0 1.0
72 1 2.03974 13.8607 49.0871 1.2 0.0 2.391600091175088e-185 0.0 1.0
73 2 1.43393 16.292 50.9282 2.4 6.104006084922694e-178 0.0 0.0 1.0
74 3 1.61891 17.7576 51.0933 -1.2 0.0 0.0 0.0 1.0
75 3 1.14577 15.235 57.8674 -1.2 2.420299813927226e-06 3.7038300387612837e-16 2.4307576793412527e-44 0.9999975797001796
76 3 0.128456 15.7162 50.5291 -1.2 0.0 0.0 0.0 1.0000000000001281
77 1 -3.0265 14.2706 51.9947 1.2 0.0 2.7917752547392946e-121 0.0 1.0
78 3 2.72766 15.5729 50.1671 -1.2 0.0 0.0 0.0 1.0000000000000797
79 1 -1.73589 14.0726 55.1306 1.2 2.5076897504288942e-73 1.5286507165699266e-18 5.210199808474866e-256 0.9999999999999722
80 2 -1.7241 12.1679 53.0847 2.4 5.915536844652201e-92 0.0 0.0 1.0
81 3 -1.93162 10.6625 52.9198 -1.2 2.153052715901986e-225 0.0 0.0 1.0000000000000062
82 3 -0.853294 13.4521 46.0594 -1.2 0.0 0.0 0.0 1.0
83 3 -2.96068 12.7905 53.8034 -1.2 2.268076688854836e-145 0.0 0.0 0.9999999999999696
84 3 -0.327761 12.683 53.7124 -1.2 3.556717220285102e-142 0.0 0.0 0.9999999999999775
85 1 -3.00245 21.4254 57.2691 1.2 3.2045344085808236e-14 0.0017498021850972318 2.902447770540746e-66 0.998250197814873
86 1 -1.39107 21.4804 49.97 1.2 0.0 2.5486826720278273e-204 0.0 1.0
87 2 -0.899112 18.8009 47.7669 2.4 5.0430176242690456e-205 0.0 0.0 1.0
88 3 -0.861088 20.369 47.677 -1.2 0.0 0.0 0.0 1.0
89 3 -1.53299 17.5827 51.7602 -1.2 0.0 0.0 0.0 1.0
90 3 -1.88992 18.2509 48.8063 -1.2 0.0 0.0 0.0 0.9999999999997299
91 1 0.31082 16.7873 46.6733 1.2 0.0 2.3355143581580657e-223 0.0 1.0
92 3 0.633018 18.2373 48.1279 -1.2 0.0 0.0 0.0 1.0
93 1 1.35951 16.6383 54.5353 1.2 5.625405925886059e-134 4.856962547123009e-36 0.0 1.0
94 2 1.3481 19.2794 56.3119 2.4 0.0034131377072553473 2.965466094985498e-65 1.0921692219621839e-98 0.9965868622927496
95 3 1.35026 17.654 56.4188 -1.2 3.101017276764165e-20 3.743040587792508e-50 2.6720299226914227e-97 0.999999999999999
96 3 1.65682 20.3511 52.4789 -1.2 2.1988258002002346e-282 0.0 0.0 1.0
97 3 0.0713738 20.0176 55.633 -1.2 8.790332654676434e-44 2.8173494633864595e-104 5.1715850224501244e-176 1.0000000000000087
98 3 2.59025 19.9817 55.6939 -1.2 1.7367696466801456e-35 6.533721514568324e-88 3.332712293628984e-150 1.0000000000000056
99 1 -0.0846776 18.8864 51.8838 1.2 0.0 1.1853039393646519e-121 0.0 1.0
100 1 2.14377 18.8777 49.2896 1.2 0.0 8.262582248667367e-208 0.0 1.0
101 2 1.67666 20.9999 51.0374 2.4 1.546645595747684e-195 0.0 0.0 1.0
102 3 1.80388 22.575 51.221 -1.2 0.0 0.0 0.0 1.0
103 3 1.35071 19.8459 57.7719 -1.2 1.5136497742437031e-05 7.360243527228301e-16 2.2469899260184076e-46 0.999984863502253
104 3 0.251516 20.5219 50.4033 -1.2 0.0 0.0 0.0 1.0
105 1 -3.07696 18.7363 52.3455 1.2 0.0 1.7758341154051235e-120 0.0 1.0
106 3 2.91223 20.4306 50.1882 -1.2 0.0 0.0 0.0 1.0
107 1 -1.52658 19.0055 55.0799 1.2 1.172326051535698e-72 2.813449816145411e-16 2.5570055911445795e-248 0.9999999999999993
108 2 -1.47482 16.8801 53.2228 2.4 7.93809979386583e-86 0.0 0.0 1.0
109 3 -1.53651 15.3461 53.1747 -1.2 8.291449094090254e-201 0.0 0.0 0.9999999999999405
110 3 -1.14934 18.0983 46.3109 -1.2 0.0 0.0 0.0 1.0
111 3 -2.78353 17.539 53.8675 -1.2 3.0871237481506154e-153 0.0 0.0 1.0000000000000484
112 3 -0.218054 17.5257 53.8886 -1.2 4.941812919859409e-133 0.0 0.0 0.9999999999999535
113 1 -2.54764 26.2012 57.1315 1.2 2.6146098844437525e-12 0.023481831244057356 1.4384135134646635e-58 0.9765181687533284
114 1 -1.05947 26.122 49.6386 1.2 0.0 1.3042306879514522e-230 0.0 1.0
115 2 -1.08401 23.6216 47.9652 2.4 1.7241977474651301e-276 0.0 0.0 1.0
116 3 -0.867126 25.1026 47.9018 -1.2 0.0 0.0 0.0 1.0
117 3 -1.28253 22.4247 51.8442 -1.2 0.0 0.0 0.0 1.0
118 3 -2.16169 23.1981 48.9188 -1.2 0.0 0.0 0.0 1.0
119 1 -0.154372 21.6407 46.6972 1.2 0.0 2.43810341428e-312 0.0 1.0
120 3 0.352866 22.8991 48.3317 -1.2 0.0 0.0 0.0 1.0
121 1 1.70534 21.3874 54.5945 1.2 9.344653410505674e-127 6.843633215059756e-36 0.0 1.0
122 2 1.77397 24.1706 56.457 2.4 0.4090551645472594 1.817752374778771e-61 1.2616980817852642e-93 0.5909448354527375
123 3 1.56453 22.5851 56.4629 -1.2 4.731248590446782e-19 2.8722775799755143e-44 2.508861220605105e-96 1.0000000000000009
124 3 1.89815 25.0585 52.5542 -1.2 1.4500214002775185e-292 0.0 0.0 1.0
125 3 0.414247 24.861 55.9916 -1.2 5.26138141433118e-32 2.107288600368257e-76 2.9632813962518454e-133 0.9999999999999948
126 3 2.90782 24.8064 55.6101 -1.2 6.272030645825766e-51 4.544568324432204e-120 9.592021390468167e-194 1.0000000000000038
127 1 0.322897 23.6543 52.1021 1.2 0.0 1.8599915774563512e-121 0.0 1.0
128 1 1.74802 23.7886 49.2834 1.2 0.0 6.737459649154577e-252 0.0 1.0
129 2 1.89141 25.8919 51.1465 2.4 4.5632427354196715e-220 0.0 0.0 1.0
130 3 1.80848 27.4207 51.46 -1.2 0.0 0.0 0.0 1.0
131 3 2.0048 24.8956 57.8583 -1.2 0.0004273229218273378 2.356508223489855e-13 1.4141472767922625e-43 0.9995726770779347
132 3 0.584796 25.2116 50.502 -1.2 0.0 0.0 0.0 1.0
133 1 -2.76608 23.6125 52.2447 1.2 0.0 8.160797993374869e-130 0.0 1.0
134 3 3.15256 25.3545 50.3361 -1.2 0.0 0.0 0.0 1.0
135 1 -1.03178 23.6664 55.0821 1.2 1.9600272056471543e-75 5.159621015147894e-16 2.0719026623125834e-247 0.9999999999999899
136 2 -1.27184 21.5773 53.2726 2.4 4.5505267935297827e-82 0.0 0.0 1.0
137 3 -1.33741 20.0057 53.0342 -1.2 3.834382129609941e-202 0.0 0.0 1.000000000000056
138 3 -1.31081 23.257 46.4163 -1.2 0.0 0.0 0.0 1.0
139 3 -2.50514 22.1642 54.0016 -1.2 3.5318440768271603e-155 0.0 0.0 1.0000000000000313
140 3 0.00974198 22.353 54.0046 -1.2 7.643664675028099e-131 1.154e-320 0.0 1.0000000000000424
141 1 -2.64927 30.8492 57.5031 1.2 1.6224919425389508e-07 0.8575075755186482 1.5603809169594243e-48 0.14249226223215403
142 1 -1.25307 30.6953 49.7929 1.2 0.0 2.4420359630398193e-229 0.0 1.0
143 2 -1.12644 28.2475 47.8943 2.4 1.3194751624493194e-301 0.0 0.0 1.0
144 3 -0.772315 29.7914 47.8976 -1.2 0.0 0.0 0.0 1.0
145 3 -1.1284 27.1388 51.7811 -1.2 0.0 0.0 0.0 1.0
146 3 -2.57182 27.9477 48.4981 -1.2 0.0 0.0 0.0 1.0
147 1 -0.684724 25.7263 46.0779 1.2 0.0 0.0 0.0 1.0
148 3 -0.0464288 27.563 48.8046 -1.2 0.0 0.0 0.0 1.0
149 1 1.8217 26.2091 54.4671 1.2 4.1244240456349613e-137 3.723829104305042e-42 0.0 1.0
150 2 2.03532 28.8769 56.3618 2.4 0.9915902581943243 9.401912822392597e-64 1.1660834872990852e-98 0.008409741805681027
151 3 1.98605 27.3104 56.4845 -1.2 7.560007938260574e-19 5.923869014015925e-46 1.3062848239460024e-93 1.0000000000000029
152 3 1.85455 29.8496 52.7711 -1.2 1.7369175522457943e-239 0.0 0.0 1.0
153 3 0.712164 29.4762 55.6844 -1.2 3.908542374760917e-42 1.0689264889633637e-93 7.640197819010153e-156 1.0000000000000053
154 3 3.28665 29.509 55.6829 -1.2 7.753657363375417e-39 1.4860724117236774e-91 4.950967761473852e-155 1.0000000000000036
155 1 0.233519 28.4441 52.2788 1.2 0.0 1.4693942287407445e-117 0.0 1.0
156 1 1.7842 28.4244 49.5065 1.2 0.0 6.43291836826268e-256 0.0 1.0
157 2 1.86391 30.4815 51.3397 2.4 4.534296668314949e-201 0.0 0.0 1.0
158 3 1.92892 32.0288 51.2091 -1.2 0.0 0.0 0.0 1.0
159 3 1.86911 29.5302 57.7963 -1.2 0.03165955893880682 4.279924517979204e-10 4.284140249588412e-39 0.9683404406332058
160 3 0.502162 29.819 50.6179 -1.2 0.0 0.0 0.0 1.0
161 1 -2.54092 28.4591 52.3424 1.2 0.0 1.5495727905187301e-130 0.0 1.0
162 3 3.08741 29.875 50.5299 -1.2 0.0 0.0 0.0 1.0
163 1 -0.986251 28.5462 55.211 1.2 8.846124547254489e-66 1.9066373355360162e-15 5.9238107652570567e-210 0.9999999999999956
164 2 -1.02634 26.3411 53.1805 2.4 7.875599510716128e-89 0.0 0.0 1.0
165 3 -0.968451 24.7962 53.1935 -1.2 9.384312748736011e-209 0.0 0.0 1.0
166 3 -0.895912 27.6296 46.3389 -1.2 0.0 0.0 0.0 1.0
167 3 -2.33197 26.8775 53.8926 -1.2 1.9161772247409951e-140 0.0 0.0 1.0000000000000007
168 3 0.220932 27.0719 53.8794 -1.2 2.2120047087351442e-153 0.0 0.0 1.0000000000000002
169 1 -2.59974 35.6409 57.4188 1.2 3.2488649410247547e-09 0.9982786115229253 1.1049832964326604e-62 0.0017213852282129615
170 1 -1.31471 35.5157 49.7682 1.2 0.0 1.484619671343082e-219 0.0 1.0
171 2 -0.850671 33.0878 47.883 2.4 1.0180837150337e-311 0.0 0.0 1.0
172 3 -0.931718 34.6779 47.9338 -1.2 0.0 0.0 0.0 1.0
173 3 -1.01607 31.7184 51.6554 -1.2 0.0 0.0 0.0 1.0
174 3 -2.05196 32.3283 48.4634 -1.2 0.0 0.0 0.0 1.0
175 1 0.0995644 31.1015 46.855 1.2 0.0 0.0 0.0 1.0
176 3 0.515106 32.4454 48.3611 -1.2 0.0 0.0 0.0 1.0
177 1 2.01389 30.798 54.6831 1.2 2.8247363763763864e-117 7.390798827916559e-32 0.0 1.0
178 2 1.8523 33.5176 56.2485 2.4 0.9999999999957936 8.334729565510874e-62 1.4694567589188288e-100 4.210314845268221e-12
179 3 1.90875 31.9536 56.4638 -1.2 1.2927187385268798e-16 6.659169291898584e-42 5.8936424597126476e-92 1.0
180 3 1.97425 34.4996 52.5956 -1.2 6.182093575234988e-273 0.0 0.0 1.0
181 3 0.579351 34.3125 55.577 -1.2 1.475253185393939e-42 1.536900465800345e-101 6.861667771954269e-178 0.999999999999999
182 3 3.1767 34.2703 55.5906 -1.2 8.316330835753118e-33 5.856249819908473e-78 1.5269298448138955e-148 1.00000000000001
183 1 0.546694 33.2179 52.3099 1.2 0.0 1.7811739345557868e-108 0.0 1.0
184 1 2.23487 32.7655 49.2491 1.2 0.0 1.746027644869404e-257 0.0 1.0
185 2 1.77563 35.1338 51.0646 2.4 2.5295760082720596e-208 0.0 0.0 1.0
186 3 1.92799 36.7078 51.0892 -1.2 0.0 0.0 0.0 1.0
187 3 1.86024 34.2128 57.7616 -1.2 0.5109479855683634 7.021476922009104e-11 2.898480570263884e-48 0.48905201436142287
188 3 0.494837 34.5038 50.5896 -1.2 0.0 0.0 0.0 1.0
189 1 -2.34262 33.1823 51.9288 1.2 0.0 1.6853637184709785e-132 0.0 1.0
190 3 3.0735 34.4998 50.2453 -1.2 0.0 0.0 0.0 1.0
191 1 -1.19363 33.5168 54.918 1.2 6.181712074890724e-67 0.00018445650496957697 3.7094765612051324e-241 0.9998155434950443
192 2 -1.1333 31.1374 53.1805 2.4 1.6403271609794816e-75 0.0 0.0 1.0
193 3 -0.990409 29.6337 53.2202 -1.2 5.28058847369638e-190 0.0 0.0 1.0
194 3 -0.720468 32.898 46.2186 -1.2 0.0 0.0 0.0 1.0
195 3 -2.40439 31.8703 53.6836 -1.2 5.603511536359204e-154 0.0 0.0 1.0
196 3 0.170908 31.8909 53.7801 -1.2 2.5701787088949296e-133 2e-323 0.0 1.0000000000000033
197 1 -2.65959 40.4542 57.2097 1.2 1.7798544872983981e-10 0.8913639946084102 4.664084759055346e-59 0.10863600521360113
198 1 -1.35654 40.214 49.3004 1.2 0.0 4.047439478596146e-191 0.0 1.0
199 2 -1.17325 37.5214 47.5796 2.4 8.445310564192929e-276 0.0 0.0 1.0
200 3 -1.45783 39.133 47.4657 -1.2 0.0 0.0 0.0 1.0
201 3 -1.20064 36.6868 51.5359 -1.2 0.0 0.0 0.0 1.0
202 3 -2.281 37.0319 48.6692 -1.2 0.0 0.0 0.0 1.0
203 1 -0.69729 35.1705 46.0097 1.2 0.0 0.0 0.0 1.0
204 3 0.27947 37.1612 48.0204 -1.2 0.0 0.0 0.0 1.0
205 1 2.00351 35.7893 54.4182 1.2 3.105071445272008e-111 1.991138061196611e-21 0.0 1.0
206 2 1.65989 38.3196 56.1033 2.4 0.999999999975941 1.3727249231676338e-70 1.134315980551117e-113 2.405526737274292e-11
207 3 1.8702 36.777 56.2615 -1.2 1.0894597947387948e-14 2.875198170268643e-38 1.7278716439241549e-94 0.9999999999999858
208 3 1.83066 39.2733 52.4243 -1.2 3.0663566579591283e-242 0.0 0.0 1.0
209 3 0.390581 38.9738 55.5168 -1.2 3.525041920236725e-40 4.725391982366968e-93 5.818128917916595e-166 1.000000000000004
210 3 2.96912 39.0432 55.414 -1.2 6.218805894358321e-35 8.337138146338286e-80 2.2370772850163672e-150 0.9999999999999982
211 1 0.316379 38.0203 52.015 1.2 0.0 2.3072224088023533e-109 0.0 1.0
212 1 2.00606 37.7118 49.239 1.2 0.0 2.148204585082216e-231 0.0 1.0
213 2 1.86207 39.9952 50.9352 2.4 4.5946346800792e-185 0.0 0.0 1.0
214 3 2.02377 41.5576 51.1134 -1.2 0.0 0.0 0.0 1.000000000000148
215 3 1.73278 39.03 57.6465 -1.2 0.040160581759775334 3.340562755664585e-13 7.450115204535931e-53 0.9598394182398915
216 3 0.64657 39.3896 50.1023 -1.2 0.0 0.0 0.0 1.0
217 1 -2.61779 37.958 51.8774 1.2 0.0 3.3699364701624075e-118 0.0 1.0
218 3 3.11426 39.3379 50.2495 -1.2 0.0 0.0 0.0 1.0
219 1 -1.09042 37.9608 54.7703 1.2 7.547684098973737e-70 1.3935637937192533e-07 1.6703343908401067e-239 0.9999998606436282
220 2 -1.08872 35.9825 52.9439 2.4 5.501711424314338e-96 0.0 0.0 1.0
221 3 -1.07895 34.4263 52.882 -1.2 4.81736183215493e-224 0.0 0.0 1.0
222 3 -1.33281 36.9289 46.1689 -1.2 0.0 0.0 0.0 1.0
223 3 -2.33787 36.5217 53.6647 -1.2 1.1027009370507137e-142 0.0 0.0 1.0
224 3 0.252876 36.5889 53.5596 -1.2 2.2272777573400926e-148 0.0 0.0 1.0
225 1 -2.61133 45.0693 57.215 1.2 1.5413228469365884e-09 0.23747913527350134 3.8491682902887013e-51 0.7625208631851764
226 1 -0.887577 44.9429 49.1233 1.2 0.0 5.117960557726307e-189 0.0 1.0
227 2 -1.31244 42.3491 47.3409 2.4 3.87380686044913e-203 0.0 0.0 1.0
228 3 -0.87567 43.795 47.3253 -1.2 0.0 0.0 0.0 1.0
229 3 -0.954165 41.4065 51.2973 -1.2 2.96e-322 0.0 0.0 1.0
230 3 -2.51341 41.8948 48.1755 -1.2 0.0 0.0 0.0 1.0
231 1 -0.293586 40.1331 46.426 1.2 0.0 2.1834e-319 0.0 1.0
232 3 -0.000365019 41.4272 48.0147 -1.2 0.0 0.0 0.0 1.0
233 1 1.90583 40.329 54.1033 1.2 1.55802144400505e-142 8.582831247301838e-42 0.0 1.0
234 2 1.88937 43.1481 56.0003 2.4 0.9995031062596029 2.094481593957603e-61 2.0273488553743783e-94 0.0004968937404041025
235 3 1.89631 41.655 56.0354 -1.2 2.5779712466862377e-24 2.876211276793537e-54 1.8499017082387007e-102 0.9999999999999993
236 3 1.80618 44.1478 52.1718 -1.2 9.568417787752309e-250 0.0 0.0 0.9999999999999039
237 3 0.518975 43.699 55.3482 -1.2 2.642592185340883e-44 1.679290970205797e-99 8.667511880297101e-161 0.9999999999999972
238 3 3.16532 43.892 55.3968 -1.2 2.49321404227461e-39 1.759552165915915e-91 8.976823500992315e-155 0.9999999999999859
239 1 0.571516 42.707 51.9294 1.2 0.0 1.8141032758977885e-115 0.0 1.0
240 1 1.60111 42.21 48.8726 1.2 0.0 3.212294653707983e-215 0.0 1.0
241 2 2.00783 44.7033 50.6006 2.4 2.2234792845904222e-169 0.0 0.0 1.0
242 3 2.17681 46.2729 50.6202 -1.2 0.0 0.0 0.0 1.000000000000001
243 3 1.74126 43.7043 57.4838 -1.2 1.2478275697499436e-06 1.8235533159778885e-17 1.836640346027041e-49 0.9999987521724276
244 3 0.958395 43.9581 49.6987 -1.2 0.0 0.0 0.0 1.0000000000000802
245 1 -2.40325 42.7253 51.6265 1.2 0.0 1.4202269139278587e-124 0.0 1.0
246 3 3.46502 44.1771 50.2296 -1.2 0.0 0.0 0.0 1.00000000000013
247 1 -1.2398 42.7684 54.7296 1.2 1.8692014818991844e-71 1.5062946310230386e-15 2.4218564945134945e-235 0.9999999999999729
248 2 -1.15272 40.6221 52.8329 2.4 6.303273237205016e-85 0.0 0.0 1.0
249 3 -1.22435 39.0815 52.7767 -1.2 6.937700094564295e-195 0.0 0.0 1.0
250 3 -1.10213 41.7384 45.8369 -1.2 0.0 0.0 0.0 1.0
251 3 -2.37162 41.3238 53.5152 -1.2 8.850061434111184e-139 0.0 0.0 1.0000000000000093
252 3 0.16006 41.3049 53.5324 -1.2 1.0001511973498357e-141 0.0 0.0 1.0000000000000144
253 1 -2.6384 49.595 57.1596 1.2 4.482899746838273e-12 0.00533658704903171 1.440670753868886e-57 0.9946634129464873
254 1 -0.716618 49.5052 49.2454 1.2 0.0 1.2325028901194005e-214 0.0 1.0
255 2 -0.36184 47.1292 47.0962 2.4 3.320588874213446e-155 0.0 0.0 1.0
256 3 -0.271655 48.7122 47.1422 -1.2 0.0 0.0 0.0 1.0
257 3 -0.602481 45.8963 51.2485 -1.2 3.557e-321 0.0 0.0 0.9999999999998471
258 3 -1.44806 46.5577 48.076 -1.2 0.0 0.0 0.0 1.0000000000000002
259 1 -0.235351 44.5846 45.7219 1.2 0.0 9.274124359211417e-239 0.0 1.0
260 3 1.08816 46.5281 47.573 -1.2 0.0 0.0 0.0 1.0
261 1 1.90955 44.9762 54.093 1.2 3.1931167717975426e-133 4.655415388179344e-39 0.0 1.0
262 2 1.80297 47.6173 56.052 2.4 6.687804569640864e-05 7.026760337405562e-76 1.0698448462767094e-109 0.9999331219543025
263 3 1.72609 46.0881 56.1793 -1.2 7.782326210078673e-23 5.801019150413623e-52 3.1583382702489174e-98 0.9999999999999986
264 3 2.33881 48.6713 52.1568 -1.2 6.259385202384905e-266 0.0 0.0 1.0000000000000964
265 3 0.534761 48.4122 55.499 -1.2 2.036311487809873e-44 2.64277808028948e-112 4.82000327084616e-177 1.0000000000000058
266 3 3.10737 48.4004 55.4533 -1.2 2.0122551210090127e-38 9.927317844690745e-96 1.0036530042095812e-158 1.0000000000000115
267 1 0.683073 47.4491 51.6014 1.2 0.0 4.2756942373073627e-113 0.0 1.0
268 1 2.71634 47.054 48.6943 1.2 0.0 3.790537146699196e-209 0.0 1.0
269 2 2.35008 49.4423 50.6672 2.4 1.5755800626462003e-163 0.0 0.0 1.0
270 3 2.55576 50.9427 50.8864 -1.2 0.0 0.0 0.0 1.0000000000000746
271 3 1.81768 48.2356 57.548 -1.2 1.132324107440139e-07 5.583863974052614e-22 1.7074382798506108e-51 0.9999998867675901
272 3 0.92766 48.8849 50.1748 -1.2 0.0 0.0 0.0 0.9999999999999215
273 1 -2.22154 47.3716 51.8088 1.2 0.0 4.603911732720828e-121 0.0 1.0
274 3 3.47568 48.7767 49.8028 -1.2 0.0 0.0 0.0 1.0000000000001783
275 1 -1.14986 47.3378 54.7448 1.2 5.76365101486155e-75 3.1254252259439355e-18 9.972670695368949e-253 0.9999999999999871
276 2 -0.866061 45.3875 52.7965 2.4 2.0857645643974346e-81 0.0 0.0 1.0
277 3 -1.0362 43.7288 52.7671 -1.2 8.418322948872909e-201 0.0 0.0 1.0000000000000795
278 3 -0.415377 46.4641 45.6278 -1.2 0.0 0.0 0.0 1.0
279 3 -2.12342 46.0889 53.2822 -1.2 5.868773745762962e-157 0.0 0.0 1.0000000000000357
280 3 0.375704 45.9335 53.6394 -1.2 1.2341085689740068e-116 2.259765824188493e-299 0.0 0.999999999999952
281 1 -2.29922 54.4498 57.0174 1.2 1.074150843785194e-19 1.3357148973875713e-06 9.772646036037232e-75 0.9999986642851038
282 1 -0.41719 54.3826 49.4626 1.2 0.0 3.220071254964096e-216 0.0 1.0
283 2 0.254797 51.998 47.5013 2.4 2.008216829340395e-207 0.0 0.0 1.0
284 3 0.189752 53.5956 47.5637 -1.2 0.0 0.0 0.0 1.0
285 3 -0.601806 50.8106 51.4669 -1.2 1.2665595e-317 0.0 0.0 1.000000000000037
286 3 -0.972226 51.3749 48.4159 -1.2 0.0 0.0 0.0 1.0
287 1 0.316712 49.8183 45.7293 1.2 0.0 1.976e-321 0.0 1.0
288 3 1.60317 51.3177 48.1292 -1.2 0.0 0.0 0.0 1.0
289 1 2.34031 49.8827 54.1874 1.2 3.1285829825221674e-128 2.7193396576906868e-37 0.0 1.0
290 2 2.05895 52.464 56.1533 2.4 1.906137595119371e-05 2.6666909654512894e-71 1.9708836701944208e-101 0.9999809386240474
291 3 2.08534 50.8813 56.2154 -1.2 2.1551356402429783e-21 2.2653864504718832e-54 1.1014243247646728e-96 0.999999999999999
292 3 2.58338 53.4534 52.3696 -1.2 6.21542911940993e-256 0.0 0.0 1.0
293 3 0.717909 52.996 55.5767 -1.2 1.8745774282737083e-45 2.480820748235003e-109 1.2754784142137075e-179 1.000000000000013
294 3 3.36026 53.0632 55.3974 -1.2 4.580833267654133e-43 6.929041215045423e-107 7.436751515670415e-178 0.9999999999999891
295 1 1.01885 52.21 51.8265 1.2 0.0 4.1429891523893765e-117 0.0 1.0
296 1 3.12688 51.8336 49.1586 1.2 0.0 2.1480718278856157e-238 0.0 1.0
297 2 2.41738 54.2866 50.8524 2.4 1.0745898317473248e-192 0.0 0.0 1.0
298 3 2.59265 55.7927 51.0932 -1.2 0.0 0.0 0.0 1.0
299 3 2.1771 53.1584 57.6473 -1.2 4.339578578360316e-09 4.737964120283661e-22 1.344860106685343e-51 0.9999999956604246
300 3 1.17774 53.6421 50.4068 -1.2 0.0 0.0 0.0 1.0
301 1 -2.01477 52.1702 52.0019 1.2 0.0 5.472105346331173e-132 0.0 1.0
302 3 3.64559 53.56 50.0677 -1.2 0.0 0.0 0.0 1.0
303 1 -0.890368 51.9506 54.9606 1.2 1.7381031588905708e-69 6.112215803985424e-15 1.9937879286948318e-243 1.0000000000000167
304 2 -0.72773 50.0945 52.8734 2.4 2.7582377939045856e-79 0.0 0.0 1.0
305 3 -0.821271 48.4695 52.718 -1.2 1.428730546958813e-191 0.0 0.0 0.9999999999999137
306 3 0.264403 51.6817 45.9361 -1.2 0.0 0.0 0.0 1.0
307 3 -1.96679 50.8261 53.622 -1.2 1.5769596859725272e-128 0.0 0.0 0.9999999999999649
308 3 0.600793 50.5859 53.6737 -1.2 7.396736608703817e-140 0.0 0.0 0.9999999999999747
309 1 -2.14539 59.2556 57.4905 1.2 3.830962117360266e-15 0.00015034928373587554 3.7717412498010523e-66 0.999849650716262
310 1 -0.535777 59.5387 49.7507 1.2 0.0 1.0460733032060799e-220 0.0 1.0
311 2 0.0899108 56.9067 48.1384 2.4 5.905541644184269e-263 0.0 0.0 1.0
312 3 -0.316193 58.3723 47.8832 -1.2 0.0 0.0 0.0 1.0
313 3 -0.522787 55.6411 51.4978 -1.2 2.3508775e-317 0.0 0.0 1.0000000000000002
314 3 -1.03601 56.0715 48.7964 -1.2 0.0 0.0 0.0 1.0
315 1 1.22049 54.9956 46.59 1.2 0.0 0.0 0.0 1.0
316 3 1.50004 56.2384 48.4089 -1.2 0.0 0.0 0.0 1.0
317 1 2.48029 54.5008 54.2999 1.2 2.7487111123911685e-155 3.184054526811569e-47 0.0 1.0
318 2 2.1959 57.2224 56.1573 2.4 1.686519456529778e-10 1.0305400098404307e-89 3.073443661902631e-127 0.9999999998313456
319 3 2.0646 55.6076 56.2228 -1.2 1.0407859943876453e-28 9.348249575109653e-69 6.454340163207922e-126 0.9999999999999983
320 3 2.47908 58.2046 52.4967 -1.2 7.473760880801548e-285 0.0 0.0 1.0
321 3 0.910672 57.9147 55.5712 -1.2 7.662059400794915e-58 3.329378545477155e-132 2.031214859345559e-208 0.9999999999999916
322 3 3.49006 57.8107 55.6067 -1.2 2.6459876890455762e-49 1.2763328688318647e-113 5.573864171740394e-186 1.0000000000000138
323 1 1.06696 56.9066 52.0502 1.2 0.0 9.97580225657885e-115 0.0 1.0
324 1 3.1917 56.7731 49.322 1.2 0.0 2.936343048070004e-247 0.0 1.0
325 2 2.47722 59.0669 51.0285 2.4 1.077290080005526e-207 0.0 0.0 1.0
326 3 2.57357 60.633 51.1764 -1.2 0.0 0.0 0.0 1.0
327 3 2.2456 57.7859 57.7908 -1.2 1.887243920974893e-09 3.6175863445247815e-23 1.7914253426698987e-55 0.9999999981127562
328 3 1.2421 58.4494 50.3281 -1.2 0.0 0.0 0.0 1.0
329 1 -1.9729 56.8982 52.0783 1.2 0.0 2.369744060463185e-134 0.0 1.0
330 3 3.79418 58.488 50.3457 -1.2 0.0 0.0 0.0 1.0
331 1 -0.743894 57.0178 54.8627 1.2 1.9550242851596743e-90 3.4030367251751094e-23 2.233800237898567e-288 1.0000000000000284
332 2 -0.461036 54.8369 52.9375 2.4 2.4508190611260565e-82 0.0 0.0 1.0
333 3 -0.536415 53.2664 52.7857 -1.2 1.5825729086442535e-204 0.0 0.0 1.0
334 3 0.24385 56.7111 46.2582 -1.2 0.0 0.0 0.0 1.0
335 3 -1.66414 55.5233 53.7218 -1.2 5.51036854196405e-158 0.0 0.0 1.0000000000000049
336 3 0.929616 55.3868 53.4462 -1.2 1.6093154053902977e-152 0.0 0.0 1.0000000000000435
337 1 -1.93515 63.8922 57.5984 1.2 2.1896693779814743e-14 0.5060085247394057 4.44481131490355e-73 0.4939914752605715
338 1 -0.219516 63.9694 49.9137 1.2 0.0 5.450901184946184e-219 0.0 1.0
339 2 -0.0221551 61.428 47.6231 2.4 5.66867454169147e-277 0.0 0.0 1.0
340 3 -0.256581 63.0888 47.4403 -1.2 0.0 0.0 0.0 1.0
341 3 -0.376174 60.3263 51.7528 -1.2 0.0 0.0 0.0 1.0
342 3 -1.19606 60.9414 48.4317 -1.2 0.0 0.0 0.0 1.0
343 1 0.0216582 58.7429 45.9381 1.2 0.0 0.0 0.0 1.0
344 3 1.29345 61.2272 48.507 -1.2 0.0 0.0 0.0 1.0
345 1 2.42488 59.3681 54.3852 1.2 2.006004222173025e-157 9.010431157866044e-48 0.0 1.0
346 2 2.43537 61.8622 56.3266 2.4 4.472509906364802e-11 1.53510072616799e-93 5.047268659833871e-130 0.9999999999552784
347 3 2.42006 60.2998 56.4377 -1.2 4.587290634820276e-29 1.6654098803228353e-65 4.233414790533411e-118 1.000000000000002
348 3 2.65162 62.994 52.762 -1.2 9.800509495256531e-277 0.0 0.0 1.0
349 3 1.1642 62.5679 55.8819 -1.2 5.884833306058246e-50 2.8837574258890418e-111 3.0837934089765916e-179 1.0000000000000138
350 3 3.71966 62.5415 55.7448 -1.2 3.061587734755756e-50 5.441207036631308e-111 3.2511060552190195e-179 0.9999999999999882
351 1 1.09219 61.7418 52.3149 1.2 0.0 2.2062342569117698e-120 0.0 1.0
352 1 3.02809 61.5349 49.1767 1.2 0.0 4.841276258839988e-244 0.0 1.0
353 2 2.68789 63.615 51.2792 2.4 6.563763843511353e-212 0.0 0.0 1.0
354 3 2.59706 65.1979 51.2862 -1.2 0.0 0.0 0.0 1.0
355 3 2.55911 62.5791 57.9384 -1.2 1.9144234869906663e-07 1.7294960911108134e-22 3.3626227745782216e-58 0.9999998085576517
356 3 1.29309 63.0931 50.6272 -1.2 0.0 0.0 0.0 1.0
357 1 -1.83992 61.5831 52.2279 1.2 0.0 4.796846497919369e-138 0.0 1.0
358 3 3.86744 63.0516 50.3764 -1.2 0.0 0.0 0.0 1.0
359 1 -0.466375 61.5274 55.2795 1.2 9.334538111497749e-88 5.505099575930115e-25 1.6650815009221073e-277 1.0
360 2 -0.419389 59.5437 53.1893 2.4 1.2761127872116258e-88 0.0 0.0 1.0
361 3 -0.411782 58.0866 53.035 -1.2 1.0297181219760297e-217 0.0 0.0 1.0
362 3 0.280251 60.7896 46.1644 -1.2 0.0 0.0 0.0 1.0
363 3 -1.69114 60.2852 53.9298 -1.2 6.788881082874088e-149 0.0 0.0 1.000000000000049
364 3 0.902462 60.267 53.822 -1.2 3.7592570400071196e-147 0.0 0.0 1.00000000000002
365 1 -1.80132 68.9133 57.3731 1.2 2.506221623806545e-15 0.999366299891563 1.6627941247683016e-83 0.0006337001084360458
366 1 -0.48383 68.6819 49.9629 1.2 0.0 4.46016824583919e-235 0.0 1.0
367 2 -0.949632 66.3264 47.9047 2.4 3.74641559223487e-265 0.0 0.0 1.0
368 3 -0.41373 67.8173 48.1131 -1.2 0.0 0.0 0.0 1.0
369 3 -0.419326 65.0166 51.7087 -1.2 0.0 0.0 0.0 1.0
370 3 -2.41488 66.0148 48.2461 -1.2 0.0 0.0 0.0 1.0
371 1 0.753807 64.6383 46.946 1.2 0.0 4.2547851987669046e-305 0.0 1.0
372 3 0.33379 65.4459 48.7505 -1.2 0.0 0.0 0.0 1.0
373 1 2.58475 64.0628 54.6026 1.2 8.833580005431894e-156 3.0821962724390534e-48 0.0 1.0
374 2 2.63453 66.6508 56.5959 2.4 0.0542117995568119 1.9743140999976397e-78 3.434231342021939e-116 0.9457882004431885