ITEM: TIMESTEP
400
ITEM: NUMBER OF ATOMS
10500
ITEM: BOX BOUNDS xy xz yz pp pp pp
0	8.9688	2.9896
0	118.725	0
0	252.977	0
ITEM: ATOMS id type xu yu zu q pCrystal pDisloC pDisloB pDisloA
1 1 -3.42422 7.08632 57.4816 1.2 4.412908119495334e-09 0.3784217310970133 2.136601587654776e-59 0.6215782644900805
2 1 -1.80926 6.49984 49.9024 1.2 0.0 4.9492765916637e-194 0.0 1.0
3 2 -0.157235 3.97411 48.0047 2.4 1.166996302315623e-263 0.0 0.0 1.0
4 3 -0.240284 5.46519 47.4533 -1.2 0.0 0.0 0.0 1.0
5 3 -1.947 3.3613 51.8459 -1.2 0.0 0.0 0.0 0.9999999999998622
6 3 -1.49507 3.62028 48.9222 -1.2 0.0 0.0 0.0 1.0
7 1 2.0156 2.57335 47.2844 1.2 0.0 5.469761416554014e-247 0.0 1.0
8 3 1.26478 3.71742 48.794 -1.2 0.0 0.0 0.0 1.0
9 1 0.982029 2.3492 54.4417 1.2 1.9182280425743982e-159 3.983038331489643e-54 0.0 1.0
10 2 1.03065 4.94767 56.5067 2.4 0.4531590566481416 2.2285688215553093e-67 5.902297707517526e-104 0.5468409433518646
11 3 1.02927 3.40159 56.5156 -1.2 4.944791027516086e-25 2.208173280536082e-62 4.755731657258283e-111 0.9999999999999992
12 3 1.0128 6.18037 52.808 -1.2 4.698206229822167e-230 0.0 0.0 0.9999999999999473
13 3 -0.29292 5.68595 55.8635 -1.2 1.0586335405730669e-39 9.855905511598998e-94 1.8839682859107604e-155 0.9999999999999876
14 3 2.24199 5.68091 55.8832 -1.2 4.763733594871808e-38 9.47045793684935e-89 1.583597307295538e-151 0.9999999999999871
15 1 -0.508381 4.78166 52.1856 1.2 0.0 8.104557968506405e-134 0.0 1.0
16 1 2.74352 3.86297 50.0965 1.2 0.0 5.213567978423497e-202 0.0 1.0
17 2 1.21917 6.57962 51.1758 2.4 2.508954192430939e-213 0.0 0.0 1.0
18 3 1.35565 8.16015 51.1263 -1.2 0.0 0.0 0.0 1.0000000000001001
19 3 1.00146 5.57429 58.0427 -1.2 0.14404562557278974 7.147446059358418e-11 2.2811324983520955e-47 0.8559543743557301
20 3 -0.0754295 6.0423 50.5615 -1.2 0.0 0.0 0.0 1.0
21 1 -3.5313 4.78087 52.6283 1.2 0.0 1.070209675922873e-120 0.0 1.0
22 3 2.52399 5.87827 50.7983 -1.2 0.0 0.0 0.0 1.0
23 1 -1.99889 4.82135 55.1988 1.2 1.3066419275118082e-71 2.4856212791764397e-19 1.9085881268587487e-237 1.00000000000001
24 2 -1.9854 2.63386 53.3507 2.4 1.6643580232955695e-115 0.0 0.0 1.0
25 3 -2.07362 1.13227 53.2192 -1.2 5.173473377226497e-210 0.0 0.0 0.9999999999999721
26 3 -0.0250113 2.79778 46.9642 -1.2 0.0 0.0 0.0 1.0
27 3 -3.29159 3.34704 54.0114 -1.2 7.057653080953979e-151 0.0 0.0 1.0000000000000149
28 3 -0.737972 3.30224 54.0703 -1.2 9.947321816352898e-149 0.0 0.0 1.0000000000000298
29 1 -3.21167 11.7221 57.4223 1.2 8.814016434300954e-11 0.5729466740442402 1.2778383958052396e-64 0.42705332586761924
30 1 -1.79482 11.5423 49.7562 1.2 0.0 4.2404890082054366e-218 0.0 1.0
31 2 -1.10769 9.03125 48.0084 2.4 3.826580762932608e-229 0.0 0.0 1.0
32 3 -1.23138 10.5972 48.08 -1.2 0.0 0.0 0.0 1.0
33 3 -1.66829 8.00959 51.8531 -1.2 0.0 0.0 0.0 1.0000000000000207
34 3 -2.19253 8.23237 48.8997 -1.2 0.0 0.0 0.0 1.0
35 1 0.228838 7.19272 46.7186 1.2 0.0 9.747350814338804e-257 0.0 1.0
36 3 0.452918 8.52872 48.163 -1.2 0.0 0.0 0.0 1.0
37 1 1.16346 7.12385 54.606 1.2 5.892216170761389e-140 6.649577505650251e-44 0.0 1.0
38 2 1.12245 9.76385 56.3556 2.4 0.0004775157423814645 7.435296100574914e-80 1.1698029256773947e-115 0.9995224842576196
39 3 1.08727 8.19562 56.5924 -1.2 1.3280451344996066e-18 9.172366438260426e-45 1.1930054545865489e-93 1.0000000000000007
40 3 1.41167 10.6671 52.664 -1.2 1.2009858638939301e-287 0.0 0.0 1.0
41 3 -0.113281 10.4654 55.6728 -1.2 1.9691284038998276e-56 9.012276309574687e-133 2.8616981732626904e-211 0.9999999999999993
42 3 2.42321 10.3837 55.6301 -1.2 1.4278564016813606e-49 2.766995047911112e-117 1.064388492592364e-191 0.9999999999999929
43 1 -0.173339 9.42898 52.2939 1.2 0.0 1.9007304635990614e-120 0.0 1.0
44 1 1.99673 8.92361 49.3101 1.2 0.0 4.801434012913319e-217 0.0 1.0
45 2 1.27666 11.34 51.0693 2.4 3.7297246678961926e-223 0.0 0.0 1.0
46 3 1.34448 12.9053 51.2806 -1.2 0.0 0.0 0.0 1.0
47 3 1.21982 10.4954 57.8193 -1.2 0.000860901740813341 1.1528209494035898e-13 5.84007428822505e-51 0.999139098259066
48 3 -0.115061 10.7907 50.7436 -1.2 0.0 0.0 0.0 0.9999999999997784
49 1 -3.19054 9.30897 52.3021 1.2 0.0 1.0267022502364444e-144 0.0 1.0
50 3 2.41698 10.6931 50.1374 -1.2 0.0 0.0 0.0 0.9999999999999045
51 1 -1.81461 9.47464 55.0097 1.2 5.5967387517942545e-93 1.6670931377157764e-25 3.9493959358132674e-294 1.0
52 2 -1.748 7.37042 53.3339 2.4 1.3154832531149413e-105 0.0 0.0 1.0
53 3 -1.86541 5.81452 53.3312 -1.2 1.013427773311957e-214 0.0 0.0 1.0000000000000715
54 3 -1.34683 8.53054 46.4911 -1.2 0.0 0.0 0.0 1.0
55 3 -3.10232 8.04195 53.9172 -1.2 2.4724788858466693e-172 0.0 0.0 1.0000000000000013
56 3 -0.532621 8.11235 54.0094 -1.2 1.6688351771902486e-147 0.0 0.0 0.9999999999999448
57 1 -3.23416 16.6566 57.3784 1.2 8.610926383564608e-12 0.9170415034392533 3.481555446389727e-70 0.08295849655213565
58 1 -1.79494 16.2262 49.6274 1.2 0.0 9.136143616244563e-246 0.0 1.0
59 2 -1.15611 13.8347 47.9624 2.4 1.4998351491178403e-235 0.0 0.0 1.0
60 3 -1.07596 15.37 47.9295 -1.2 0.0 0.0 0.0 1.0
61 3 -1.81069 12.7254 51.7028 -1.2 0.0 0.0 0.0 1.0
62 3 -2.30847 13.2443 48.8255 -1.2 0.0 0.0 0.0 1.0
63 1 -0.109111 11.6703 46.9263 1.2 0.0 4.702440209212944e-276 0.0 1.0
64 3 0.311776 13.1528 48.4747 -1.2 0.0 0.0 0.0 1.0
65 1 1.21855 11.8226 54.5384 1.2 3.0027440073812114e-166 1.7432238930274604e-49 0.0 1.0
66 2 1.20349 14.469 56.4229 2.4 0.931302253769741 1.8467651438205453e-77 1.429697881934057e-117 0.06869774623026238
67 3 1.21397 12.966 56.4576 -1.2 3.838589994970753e-20 1.6508626376174317e-48 2.3606680643654538e-102 1.0000000000000024
68 3 1.5334 15.5323 52.6897 -1.2 6.537823738263009e-292 0.0 0.0 1.0
69 3 -0.0954708 15.193 55.7923 -1.2 2.511034984806399e-48 2.2182034543990975e-112 2.640739723760402e-191 1.0000000000000078
70 3 2.4314 15.203 55.7577 -1.2 8.439572564306194e-42 4.385479327830793e-96 1.5444905640808946e-168 0.9999999999999902
71 1 -0.157472 14.1102 52.2275 1.2 0.0 4.039694741017662e-119 0.0 1.0
72 1 1.86979 13.7829 49.4759 1.2 0.0 8.986416708587035e-243 0.0 1.0
73 2 1.36474 16.2012 51.2372 2.4 2.521027674837618e-221 0.0 0.0 1.0
74 3 1.44021 17.7815 51.2911 -1.2 0.0 0.0 0.0 1.0
75 3 1.2611 15.1353 57.9051 -1.2 0.0028260660225945694 7.818001777722949e-14 9.796130334741439e-54 0.9971739339773203
76 3 -0.0654236 15.5714 50.7131 -1.2 0.0 0.0 0.0 1.0
77 1 -3.1832 14.015 52.4054 1.2 0.0 1.8094206469886244e-137 0.0 1.0
78 3 2.4265 15.5606 50.2865 -1.2 0.0 0.0 0.0 1.0
79 1 -1.73633 14.2279 55.0241 1.2 1.0058836843241396e-91 1.2912808766741434e-21 4.526208622713327e-297 1.0
80 2 -1.75547 12.0202 53.3159 2.4 6.493169056064453e-101 0.0 0.0 1.0
81 3 -1.71557 10.4714 53.2107 -1.2 5.060789461930902e-227 0.0 0.0 1.0
82 3 -1.12317 13.2961 46.4943 -1.2 0.0 0.0 0.0 1.0
83 3 -2.94479 12.7073 53.9776 -1.2 5.6602025011304525e-179 0.0 0.0 1.0
84 3 -0.414317 12.7573 53.8512 -1.2 1.5313866142059043e-170 0.0 0.0 1.0
85 1 -2.9359 21.2315 57.4895 1.2 3.5336768437607343e-12 0.5265118966231174 4.6086882767849615e-71 0.47348810337335134
86 1 -1.57587 21.1923 49.6591 1.2 0.0 2.7841438040787415e-239 0.0 1.0
87 2 -1.09434 18.5402 47.9656 2.4 7.504919892001111e-290 0.0 0.0 1.0
88 3 -0.782463 20.1327 48.0557 -1.2 0.0 0.0 0.0 1.0
89 3 -1.63524 17.5318 51.758 -1.2 0.0 0.0 0.0 1.0
90 3 -2.35476 18.1172 48.7026 -1.2 0.0 0.0 0.0 1.0
91 1 0.00731162 16.5308 46.9009 1.2 0.0 0.0 0.0 1.0
92 3 0.360703 17.8363 48.4731 -1.2 0.0 0.0 0.0 1.0
93 1 1.31728 16.5799 54.5651 1.2 4.08492636645712e-176 1.2598235238633638e-52 0.0 1.0
94 2 1.44218 19.2489 56.3764 2.4 0.5161234968142973 3.314418371017968e-76 3.8105377883060926e-112 0.4838765031857047
95 3 1.30665 17.7134 56.5258 -1.2 2.0225628811215932e-17 4.9909202843535636e-43 1.2516176933341044e-95 1.0000000000000004
96 3 1.61614 20.327 52.7025 -1.2 1.596000611843326e-302 0.0 0.0 1.0
97 3 0.15799 19.9998 55.7744 -1.2 3.651019368377436e-56 1.0917383544866995e-123 1.112313582183315e-201 1.000000000000003
98 3 2.75433 19.836 55.7814 -1.2 4.324319023518825e-44 4.143028199834255e-96 4.7717296753144885e-167 0.9999999999999903
99 1 -0.0734749 18.9538 52.1678 1.2 0.0 2.944849621131151e-126 0.0 1.0
100 1 1.82455 18.804 49.4012 1.2 0.0 8.465006101115862e-268 0.0 1.0
101 2 1.38385 21.0476 51.2236 2.4 4.091503228870253e-237 0.0 0.0 1.0
102 3 1.43632 22.5679 51.4658 -1.2 0.0 0.0 0.0 1.0
103 3 1.51452 19.9418 57.9263 -1.2 0.0005072550707954158 1.1464939080412211e-14 1.3865313536637212e-52 0.9994927449291963
104 3 0.0833513 20.4014 50.6503 -1.2 0.0 0.0 0.0 1.0
105 1 -2.964 18.9964 52.1962 1.2 0.0 2.216203457576307e-149 0.0 1.0
106 3 2.67033 20.453 50.3985 -1.2 0.0 0.0 0.0 1.0
107 1 -1.50267 18.9792 55.1969 1.2 1.5959185661535163e-85 1.1989703429033645e-21 2.1543149719193394e-271 1.0
108 2 -1.72885 16.8578 53.2369 2.4 6.13318738025902e-115 0.0 0.0 1.0
109 3 -1.69435 15.2697 53.2128 -1.2 1.8477496370537733e-226 0.0 0.0 1.0
110 3 -0.934508 18.1774 46.4096 -1.2 0.0 0.0 0.0 1.0
111 3 -2.93502 17.5009 53.9203 -1.2 4.0666060326391245e-187 0.0 0.0 1.0
112 3 -0.404252 17.5071 53.9659 -1.2 1.8294179120452358e-157 0.0 0.0 1.0
113 1 -2.99242 26.1189 57.5131 1.2 1.9363710861732277e-12 0.3076026051086076 2.6098194835265343e-75 0.6923973948894543
114 1 -1.37323 25.9849 49.8653 1.2 0.0 7.1509533436741995e-242 0.0 1.0
115 2 -0.996506 23.3276 48.0607 2.4 2.7215613812643764e-288 0.0 0.0 1.0
116 3 -0.952149 24.9218 47.9157 -1.2 0.0 0.0 0.0 1.0
117 3 -1.71012 22.261 51.9002 -1.2 0.0 0.0 0.0 1.0
118 3 -2.27101 22.8966 48.8988 -1.2 0.0 0.0 0.0 1.0
119 1 0.231695 21.0983 46.8186 1.2 0.0 0.0 0.0 1.0
120 3 0.44372 22.8115 48.7205 -1.2 0.0 0.0 0.0 1.0
121 1 1.48997 21.343 54.514 1.2 2.6723314404167802e-179 4.456489550666172e-55 0.0 1.0
122 2 1.52184 24.0169 56.4785 2.4 0.0001893961017531363 4.550081899477512e-87 3.034158453762981e-130 0.9998106038982526
123 3 1.58165 22.4696 56.6276 -1.2 9.60374423403606e-22 1.4522664268853685e-51 2.9544741318471354e-108 1.0000000000000009
124 3 1.57396 25.0742 52.6752 -1.2 5.43560000955247e-310 0.0 0.0 1.0
125 3 0.217158 24.6897 55.8147 -1.2 2.9655298684414567e-68 1.259980476191063e-145 1.15738102641955e-227 1.0000000000000095
126 3 2.75192 24.6472 55.74 -1.2 1.644066100936163e-53 1.1396492783012251e-112 3.2219754516061434e-186 1.00000000000001
127 1 -0.154098 23.6506 52.1836 1.2 0.0 1.4317587018996533e-135 0.0 1.0
128 1 1.93501 23.5217 49.5792 1.2 0.0 4.244610551515406e-252 0.0 1.0
129 2 1.54889 25.7331 51.218 2.4 9.188313947567488e-244 0.0 0.0 1.0
130 3 1.59923 27.2705 51.2638 -1.2 0.0 0.0 0.0 1.0
131 3 1.49794 24.7754 57.9547 -1.2 0.00033726052705630103 9.42134589807528e-16 5.465212495117163e-58 0.99966273947294
132 3 0.231923 24.9678 50.5998 -1.2 0.0 0.0 0.0 1.0
133 1 -3.03701 23.7124 52.1482 1.2 0.0 1.133036786561058e-147 0.0 1.0
134 3 2.76776 25.0872 50.5294 -1.2 0.0 0.0 0.0 1.0
135 1 -1.47223 23.6377 55.1777 1.2 1.754161064258025e-98 5.981551058665091e-26 4.2072828593670455e-304 1.0
136 2 -1.5209 21.6337 53.318 2.4 9.593068368848129e-106 0.0 0.0 1.0
137 3 -1.53079 20.0774 53.1278 -1.2 1.4939003468909299e-245 0.0 0.0 1.0
138 3 -1.01324 22.7671 46.6556 -1.2 0.0 0.0 0.0 1.0
139 3 -2.67835 22.2278 54.1722 -1.2 4.924396839781575e-169 0.0 0.0 1.0
140 3 -0.13641 22.3715 53.9131 -1.2 1.2919595020130714e-169 0.0 0.0 1.0
141 1 -2.79453 30.7809 57.3327 1.2 9.528520785940954e-13 0.5784240316063429 6.736142154402437e-79 0.4215759683927062
142 1 -1.36336 30.7644 49.873 1.2 0.0 2.0491836976272946e-234 0.0 1.0
143 2 -0.949307 28.1363 47.9518 2.4 2.3569733579982455e-293 0.0 0.0 1.0
144 3 -0.702094 29.6875 48.0398 -1.2 0.0 0.0 0.0 1.0
145 3 -1.425 27.1168 51.7152 -1.2 0.0 0.0 0.0 1.0
146 3 -2.13212 27.6849 48.8767 -1.2 0.0 0.0 0.0 1.0
147 1 -0.0314262 26.0995 46.7268 1.2 0.0 0.0 0.0 1.0
148 3 0.51151 27.442 48.2986 -1.2 0.0 0.0 0.0 1.0
149 1 1.67042 25.975 54.4957 1.2 3.50114721659549e-191 8.577882421252887e-64 0.0 1.0
150 2 1.56215 28.7483 56.3045 2.4 1.85628573836469e-07 2.845803096149716e-100 5.5105057987471036e-145 0.999999814371438
151 3 1.56774 27.1988 56.3796 -1.2 7.072893182697293e-32 3.8994601566140066e-72 1.0512357014497603e-138 1.0000000000000022
152 3 1.64971 29.7209 52.7442 -1.2 2.1205665606573124e-303 0.0 0.0 1.0
153 3 0.338128 29.4835 55.808 -1.2 9.462870469516286e-63 4.456399634469755e-137 3.860434276381045e-221 0.9999999999999977
154 3 2.90281 29.4856 55.667 -1.2 8.545534382696339e-52 1.345686008555296e-112 2.0735374128151943e-188 0.999999999999991
155 1 0.150999 28.3626 52.0845 1.2 0.0 3.694427493034861e-136 0.0 1.0
156 1 1.98964 28.2503 49.3611 1.2 0.0 2.1710854489722877e-265 0.0 1.0
157 2 1.60954 30.4292 51.3909 2.4 1.8691905736490465e-224 0.0 0.0 1.0
158 3 1.69963 32.0099 51.4118 -1.2 0.0 0.0 0.0 1.0
159 3 1.69034 29.3469 57.8295 -1.2 8.907279013634922e-05 1.1685651234052617e-15 1.5513412991700715e-58 0.9999109272098614
160 3 0.374945 29.846 50.671 -1.2 0.0 0.0 0.0 1.0
161 1 -2.86501 28.3294 52.3047 1.2 0.0 3.254800180021727e-153 0.0 1.0
162 3 2.96038 29.797 50.5825 -1.2 0.0 0.0 0.0 1.0
163 1 -1.3548 28.44 55.183 1.2 3.0840841817777827e-85 6.802815345630388e-23 2.24043270964569e-267 1.0
164 2 -1.31925 26.3132 53.162 2.4 4.331199588742875e-122 0.0 0.0 1.0
165 3 -1.50777 24.7585 53.0921 -1.2 2.721158188358289e-258 0.0 0.0 1.0
166 3 -1.15842 27.6929 46.4257 -1.2 0.0 0.0 0.0 1.0
167 3 -2.57901 27.077 53.8794 -1.2 8.012063272425084e-197 0.0 0.0 1.0
168 3 -0.0147617 26.9033 53.7443 -1.2 6.830564260763331e-194 0.0 0.0 1.0
169 1 -2.64948 35.4798 57.3882 1.2 1.0904760809459175e-11 0.983044917678316 6.272423159686364e-74 0.016955082310775912
170 1 -1.25967 35.4782 49.9458 1.2 0.0 8.989198760955997e-232 0.0 1.0
171 2 -0.791689 32.9514 47.8598 2.4 9.672679079148086e-275 0.0 0.0 1.0
172 3 -0.772323 34.5316 47.8931 -1.2 0.0 0.0 0.0 1.0
173 3 -1.16805 31.6746 51.8065 -1.2 0.0 0.0 0.0 1.0
174 3 -1.93752 32.3687 48.7496 -1.2 0.0 0.0 0.0 1.0
175 1 0.179095 30.7155 46.6889 1.2 0.0 0.0 0.0 1.0
176 3 0.678976 32.4543 48.4559 -1.2 0.0 0.0 0.0 1.0
177 1 1.88788 30.9373 54.5745 1.2 8.045037984238091e-163 2.2412636334651754e-52 0.0 1.0
178 2 1.84627 33.5601 56.3621 2.4 1.790895830081871e-05 8.369085199190983e-89 1.2321310800360306e-131 0.9999820910416992
179 3 1.75255 31.97 56.4956 -1.2 4.842740287140111e-22 8.935227119810231e-53 8.602138981649756e-114 1.0000000000000029
180 3 1.73093 34.5388 52.8132 -1.2 7.525399318192552e-295 0.0 0.0 1.0
181 3 0.540835 34.2561 55.7239 -1.2 5.450928935079953e-66 4.8559412875513026e-139 1.0611904157667555e-213 1.0000000000000053
182 3 3.21019 34.1725 55.7416 -1.2 3.3561509158593725e-51 3.813840901805456e-111 4.137661428933973e-186 0.9999999999999982
183 1 0.140469 33.1667 52.3025 1.2 0.0 2.088653413346805e-131 0.0 1.0
184 1 2.16327 32.9934 49.485 1.2 0.0 1.9831840576472838e-265 0.0 1.0
185 2 1.68353 35.1493 51.3454 2.4 1.757702618698563e-223 0.0 0.0 1.0
186 3 1.75229 36.7411 51.3977 -1.2 0.0 0.0 0.0 1.0
187 3 1.85369 34.0879 57.8033 -1.2 0.003394593442976002 2.7395293553833228e-15 1.0706485611102667e-58 0.9966054065570242
188 3 0.318923 34.5743 50.7336 -1.2 0.0 0.0 0.0 1.0
189 1 -2.77222 33.0471 52.4059 1.2 0.0 2.0913925122705345e-142 0.0 1.0
190 3 2.90279 34.5619 50.6085 -1.2 0.0 0.0 0.0 1.0
191 1 -1.09755 33.1728 55.1833 1.2 1.7539308232822945e-94 7.594255115002407e-27 9.295099021654264e-296 1.0
192 2 -1.08745 30.99 53.3481 2.4 5.999514603028879e-99 0.0 0.0 1.0
193 3 -1.2309 29.4673 53.2733 -1.2 4.989518395332921e-233 0.0 0.0 1.0
194 3 -0.762993 32.4843 46.3616 -1.2 0.0 0.0 0.0 1.0
195 3 -2.35426 31.7081 54.0638 -1.2 6.846183602890148e-168 0.0 0.0 1.0
196 3 0.111742 31.7717 53.9931 -1.2 1.3246156782086894e-163 0.0 0.0 1.0
197 1 -2.7009 40.3579 57.4239 1.2 4.1983770395015077e-13 0.9816937342451283 1.7341871096070092e-75 0.018306265754452593
198 1 -1.12898 40.0791 49.7419 1.2 0.0 3.4502701858972166e-214 0.0 1.0
199 2 -0.853037 37.5756 47.8228 2.4 4.2041932020514284e-247 0.0 0.0 1.0
200 3 -0.810401 39.1679 47.834 -1.2 0.0 0.0 0.0 1.0
201 3 -1.38706 36.5573 51.8328 -1.2 0.0 0.0 0.0 1.0
202 3 -2.09895 37.0849 48.7302 -1.2 0.0 0.0 0.0 1.0
203 1 0.276357 35.6293 46.7214 1.2 0.0 2.73115e-319 0.0 1.0
204 3 0.620397 36.986 48.2407 -1.2 0.0 0.0 0.0 1.0
205 1 1.62756 35.7384 54.5912 1.2 2.4946123023565382e-172 1.4431736970619794e-56 0.0 1.0
206 2 1.8107 38.2861 56.5751 2.4 0.9993736790944253 1.892359624506877e-67 5.169230177492778e-109 0.0006263209055750706
207 3 1.7991 36.7326 56.6779 -1.2 6.767163331156109e-19 6.52914656717771e-46 7.655920080745377e-98 1.0000000000000002
208 3 1.91952 39.3534 52.63 -1.2 5.996619314598924e-303 0.0 0.0 1.0
209 3 0.589825 38.9463 55.7235 -1.2 2.5615422359615435e-62 7.896035928472703e-133 9.996118007632365e-210 1.0000000000000075
210 3 3.0924 38.8704 55.8259 -1.2 2.4008043399666294e-42 4.1157179253095744e-92 1.2016195838496178e-162 0.9999999999999966
211 1 0.23438 37.9558 52.2495 1.2 0.0 7.240186308001567e-126 0.0 1.0
212 1 2.1407 37.4729 49.416 1.2 0.0 2.451751241803624e-237 0.0 1.0
213 2 1.77366 39.8997 51.155 2.4 6.481247046399153e-224 0.0 0.0 1.0
214 3 1.90613 41.4648 51.1634 -1.2 0.0 0.0 0.0 1.0
215 3 1.72766 39.0645 57.9253 -1.2 0.0008392316235421317 1.385128833293318e-15 1.7880634693288295e-57 0.9991607683764544
216 3 0.40363 39.202 50.6443 -1.2 0.0 0.0 0.0 1.0
217 1 -2.77168 38.0169 52.4119 1.2 0.0 1.2253688206323295e-146 0.0 1.0
218 3 2.92556 39.3558 50.2563 -1.2 0.0 0.0 0.0 1.0
219 1 -1.18228 37.7977 55.0964 1.2 2.776446203124466e-90 1.0768866033771184e-24 1.2998911854167876e-279 1.0
220 2 -1.37606 35.8773 53.2297 2.4 6.509333980290274e-115 0.0 0.0 1.0
221 3 -1.28514 34.3282 53.1685 -1.2 5.216203953270919e-252 0.0 0.0 1.0
222 3 -1.01032 37.0742 46.2991 -1.2 0.0 0.0 0.0 1.0
223 3 -2.50453 36.5673 54.0052 -1.2 2.769164713993204e-172 0.0 0.0 1.0
224 3 0.0281296 36.6324 53.8679 -1.2 1.697365578650546e-168 0.0 0.0 1.0
225 1 -2.56677 45.0502 57.4129 1.2 7.582207094416749e-13 0.9044912719418139 5.059248805223513e-74 0.09550872805742781
226 1 -1.06235 44.91 49.7093 1.2 0.0 6.0335648843643095e-214 0.0 1.0
227 2 -0.655234 42.3815 47.8912 2.4 2.6618072319409e-271 0.0 0.0 1.0
228 3 -0.537128 43.9315 48.0191 -1.2 0.0 0.0 0.0 1.0
229 3 -1.07193 41.2415 51.6647 -1.2 0.0 0.0 0.0 1.0
230 3 -1.85719 41.8138 48.7347 -1.2 0.0 0.0 0.0 1.0
231 1 0.302788 40.3801 46.7076 1.2 0.0 3.0622493995044287e-288 0.0 1.0
232 3 0.679963 41.7016 48.3587 -1.2 0.0 0.0 0.0 1.0
233 1 1.75649 40.3632 54.5862 1.2 1.5580233291703422e-155 1.3891342254857143e-47 0.0 1.0
234 2 1.95754 42.9787 56.4063 2.4 0.7511193487128109 7.207411431106618e-82 3.7087867295953463e-124 0.2488806512871904
235 3 1.95532 41.4489 56.4087 -1.2 6.648963030127154e-26 2.2439054402813962e-61 5.978657285833144e-119 0.9999999999999999
236 3 1.94549 43.9737 52.6553 -1.2 2.2388692161972955e-299 0.0 0.0 1.0
237 3 0.647207 43.6859 55.7544 -1.2 4.892264676431142e-51 1.0142560621993644e-114 1.632830326746718e-192 1.0000000000000038
238 3 3.22287 43.7383 55.7829 -1.2 1.373199854948997e-41 1.1630900190838941e-94 3.028955999253794e-168 0.9999999999999992
239 1 0.45257 42.6487 52.0933 1.2 0.0 4.36296736339761e-118 0.0 1.0
240 1 2.36711 42.2952 49.3588 1.2 0.0 1.4307793833362863e-224 0.0 1.0
241 2 1.93076 44.7076 51.2189 2.4 2.2538185108440735e-228 0.0 0.0 1.0
242 3 2.06009 46.254 51.2143 -1.2 0.0 0.0 0.0 1.0
243 3 1.97031 43.6039 57.8477 -1.2 0.00031335549724872795 2.4752342066722516e-16 6.906412764678485e-59 0.999686644502753
244 3 0.659559 44.1222 50.471 -1.2 0.0 0.0 0.0 1.0
245 1 -2.58891 42.6696 52.2006 1.2 0.0 3.1544932191801e-136 0.0 1.0
246 3 3.18756 44.0324 50.5143 -1.2 0.0 0.0 0.0 1.0
247 1 -1.09752 42.7155 55.1181 1.2 1.936221576683365e-80 1.0044391025046782e-16 6.365701919229255e-259 1.0
248 2 -1.15393 40.725 53.1361 2.4 9.41202161936998e-124 0.0 0.0 1.0
249 3 -1.21198 39.1375 53.2683 -1.2 2.706407078628062e-228 0.0 0.0 1.0
250 3 -0.61096 42.0026 46.3293 -1.2 0.0 0.0 0.0 1.0
251 3 -2.4239 41.4425 53.8032 -1.2 1.446558443597189e-190 0.0 0.0 1.0
252 3 0.160074 41.3078 53.8599 -1.2 6.350431193980159e-169 0.0 0.0 1.0
253 1 -2.47293 49.6847 57.3446 1.2 2.4290849763319047e-10 0.5625916146067856 1.785680138290098e-63 0.4374083851503057
254 1 -0.91624 49.823 49.9 1.2 0.0 1.2790937850288046e-220 0.0 1.0
255 2 -0.495895 47.1384 47.9 2.4 1.045333566228579e-280 0.0 0.0 1.0
256 3 -0.270478 48.7032 48.0396 -1.2 0.0 0.0 0.0 1.0
257 3 -1.03825 46.0776 51.5846 -1.2 0.0 0.0 0.0 1.0
258 3 -1.66649 46.5796 48.7635 -1.2 0.0 0.0 0.0 1.0
259 1 0.51513 45.0406 46.6838 1.2 0.0 2.0195214889602037e-278 0.0 1.0
260 3 0.931859 46.4337 48.2382 -1.2 0.0 0.0 0.0 1.0
261 1 2.03972 44.9574 54.4623 1.2 7.089390654527144e-161 5.324456880907307e-45 0.0 1.0
262 2 1.94185 47.6496 56.2556 2.4 0.9567092787921792 3.2179683567358986e-82 1.307662662561966e-124 0.043290721207819606
263 3 1.91239 46.1763 56.3577 -1.2 3.385568791843915e-26 1.80427440420659e-62 2.6199229913119755e-124 0.9999999999999979
264 3 2.15525 48.7428 52.6655 -1.2 7.417593119545439e-286 0.0 0.0 1.0
265 3 0.791902 48.3978 55.5414 -1.2 1.9063504232499175e-65 1.26279403240008e-145 4.5493761432412304e-235 1.0000000000000058
266 3 3.29438 48.2813 55.6067 -1.2 4.481917476446779e-50 1.2221533411620875e-109 1.731834262444421e-189 0.9999999999999932
267 1 0.57653 47.4009 52.2085 1.2 0.0 1.2833589669587602e-110 0.0 1.0
268 1 2.52196 46.8141 49.3381 1.2 0.0 1.7597174180522606e-225 0.0 1.0
269 2 2.14017 49.4219 51.1715 2.4 1.5064182302173419e-220 0.0 0.0 1.0
270 3 2.33254 50.9881 51.1554 -1.2 0.0 0.0 0.0 1.0
271 3 1.92583 48.2954 57.8386 -1.2 0.0036097314872103273 3.083174096075495e-12 1.6845922063081387e-51 0.9963902685097051
272 3 0.794042 48.8267 50.6591 -1.2 0.0 0.0 0.0 1.0
273 1 -2.36332 47.4287 52.0098 1.2 0.0 3.3993849610893286e-135 0.0 1.0
274 3 3.35476 48.7296 50.413 -1.2 0.0 0.0 0.0 1.0
275 1 -0.951185 47.4862 55.0558 1.2 1.1480917952195194e-75 6.003955067255588e-12 6.661480645241814e-249 0.9999999999939729
276 2 -0.965856 45.3976 53.0574 2.4 3.438517509604572e-117 0.0 0.0 1.0
277 3 -1.06261 43.8029 52.9524 -1.2 2.4311422239227635e-256 0.0 0.0 1.0
278 3 -0.567666 46.6372 46.3595 -1.2 0.0 0.0 0.0 1.0
279 3 -2.21448 45.9289 53.7874 -1.2 2.677023440031381e-185 0.0 0.0 1.0
280 3 0.295614 45.9772 53.8295 -1.2 2.860160299248338e-174 0.0 0.0 1.0
281 1 -2.34498 54.4783 57.4629 1.2 1.007215122094996e-08 0.7852164559175544 3.315945038528071e-58 0.21478353401029282
282 1 -0.831246 54.2786 49.9185 1.2 0.0 2.685660206260425e-209 0.0 1.0
283 2 -0.395597 52.0106 47.8231 2.4 7.250694974588516e-262 0.0 0.0 1.0
284 3 -0.246632 53.5582 47.8975 -1.2 0.0 0.0 0.0 1.0
285 3 -0.913126 50.7581 51.6836 -1.2 0.0 0.0 0.0 1.0
286 3 -1.54573 51.4296 48.7813 -1.2 0.0 0.0 0.0 1.0
287 1 0.697433 49.9357 46.8974 1.2 0.0 1.8553808869501234e-295 0.0 1.0
288 3 1.11331 51.4124 48.2551 -1.2 0.0 0.0 0.0 1.0
289 1 2.26015 49.7325 54.4317 1.2 3.1248071688620384e-158 2.9972271850884367e-44 0.0 1.0
290 2 2.15941 52.4377 56.4048 2.4 0.9999992894676348 1.29971502969693e-66 4.1815154357099305e-104 7.105323692743381e-07
291 3 2.17737 50.8596 56.4779 -1.2 2.2190393701000115e-19 5.83832740632557e-45 5.545653537379918e-99 1.0000000000000002
292 3 2.22629 53.589 52.5456 -1.2 8.01487980171399e-285 0.0 0.0 1.0
293 3 0.883978 53.0171 55.5887 -1.2 1.6891338140356446e-60 4.17185128710351e-139 2.2031678987413195e-225 1.0000000000000142
294 3 3.36745 53.1769 55.7092 -1.2 1.6057475685415368e-43 5.323341456393073e-91 1.6046209589634808e-161 0.9999999999999976
295 1 0.662163 52.1225 52.1706 1.2 0.0 5.520678803127615e-110 0.0 1.0
296 1 2.61817 51.9451 49.3951 1.2 0.0 2.2889890942709466e-226 0.0 1.0
297 2 2.12818 54.1987 51.1301 2.4 7.716281526007931e-233 0.0 0.0 1.0
298 3 2.2554 55.7447 51.2546 -1.2 0.0 0.0 0.0 1.0
299 3 2.1072 53.0664 57.8943 -1.2 0.7842669832704027 9.866696173721556e-09 5.0529854773392246e-45 0.21573300686289887
300 3 0.797174 53.4702 50.6263 -1.2 0.0 0.0 0.0 1.0
301 1 -2.31843 52.1762 52.1962 1.2 0.0 1.2798724307770022e-133 0.0 1.0
302 3 3.32754 53.6249 50.3091 -1.2 0.0 0.0 0.0 1.0
303 1 -0.978794 52.1576 54.9792 1.2 4.7350104109536055e-83 3.2568182605251224e-16 2.0494726370032886e-274 1.0000000000000018
304 2 -0.837408 50.0856 53.1469 2.4 1.3717873641524056e-112 0.0 0.0 1.0
305 3 -0.935586 48.5085 53.1084 -1.2 4.265421296195339e-232 0.0 0.0 1.0
306 3 -0.501979 51.4359 46.3676 -1.2 0.0 0.0 0.0 1.0
307 3 -2.08128 50.8432 53.8393 -1.2 3.5478240343721797e-175 0.0 0.0 1.0
308 3 0.493257 50.7274 53.8143 -1.2 2.4868399240064993e-157 0.0 0.0 1.0
309 1 -2.23819 59.2812 57.3537 1.2 1.6072252190345926e-08 0.9723413605644255 4.5658353903348273e-60 0.027658623363325363
310 1 -0.702602 59.1195 49.9864 1.2 0.0 6.02809118152251e-219 0.0 1.0
311 2 -0.271576 56.5905 48.0453 2.4 1.1822118554690659e-272 0.0 0.0 1.0
312 3 -0.190618 58.2006 48.1851 -1.2 0.0 0.0 0.0 1.0
313 3 -0.720984 55.475 51.8674 -1.2 0.0 0.0 0.0 1.0
314 3 -1.38208 56.0424 48.9745 -1.2 0.0 0.0 0.0 1.0
315 1 1.01186 54.6816 46.8565 1.2 0.0 3.97779164423514e-308 0.0 1.0
316 3 1.29701 56.0188 48.4369 -1.2 0.0 0.0 0.0 1.0
317 1 2.31262 54.3758 54.4413 1.2 4.431927744413982e-164 7.078855890330846e-49 0.0 1.0
318 2 2.32828 57.1272 56.2836 2.4 1.259491001553919e-07 5.1953074855122844e-92 1.8819952141639975e-134 0.9999998740509078
319 3 2.20355 55.5794 56.4298 -1.2 1.2700034724190965e-25 1.8634973038405086e-58 1.3116986281110821e-114 0.9999999999999996
320 3 2.3905 58.1762 52.8657 -1.2 3.3254330327365595e-274 0.0 0.0 1.0
321 3 1.08299 57.8125 55.6312 -1.2 9.258319996767994e-55 1.628850109832649e-124 4.9754691709240184e-204 0.9999999999999923
322 3 3.63404 57.9571 55.7228 -1.2 1.8100057753162647e-42 1.3341815721455897e-97 6.884001931484544e-166 0.9999999999999933
323 1 0.801701 56.7795 52.3201 1.2 0.0 1.053640349571982e-119 0.0 1.0
324 1 2.83228 56.6825 49.435 1.2 0.0 1.1383415206403682e-239 0.0 1.0
325 2 2.25266 58.8674 51.4675 2.4 7.054447717606731e-212 0.0 0.0 1.0
326 3 2.37686 60.4556 51.4196 -1.2 0.0 0.0 0.0 1.0
327 3 2.2858 57.9129 57.7402 -1.2 0.6988292006016441 1.1166969723427269e-08 2.5609781651607562e-45 0.3011707882313807
328 3 0.943629 58.2563 50.8312 -1.2 0.0 0.0 0.0 1.0
329 1 -2.10192 56.909 52.2668 1.2 0.0 3.674591378227502e-136 0.0 1.0
330 3 3.47796 58.2288 50.6669 -1.2 0.0 0.0 0.0 1.0
331 1 -0.719956 56.9165 55.1731 1.2 1.5846953846365174e-73 1.1801861442372883e-15 2.2553414731015405e-244 0.9999999999999873
332 2 -0.740651 54.8224 53.2661 2.4 8.290968054557446e-110 0.0 0.0 1.0
333 3 -0.841152 53.283 53.157 -1.2 1.1749322759509406e-220 0.0 0.0 1.0
334 3 -0.267993 56.2072 46.5143 -1.2 0.0 0.0 0.0 1.0
335 3 -2.02408 55.5391 53.9924 -1.2 2.6228549078811872e-161 0.0 0.0 1.0
336 3 0.55738 55.3527 53.984 -1.2 2.6968124172914186e-146 0.0 0.0 1.0000000000000004
337 1 -2.08244 64.0148 57.2167 1.2 5.178430754051991e-11 0.9835157127420954 3.192798120301878e-68 0.01648428720612373
338 1 -0.576227 64.0016 49.8055 1.2 0.0 1.3538205021538471e-232 0.0 1.0
339 2 -0.213023 61.5519 47.9266 2.4 1.7636058965525295e-293 0.0 0.0 1.0
340 3 -0.179565 63.0868 48.1222 -1.2 0.0 0.0 0.0 1.0
341 3 -0.639673 60.2225 51.8448 -1.2 0.0 0.0 0.0 1.0
342 3 -1.17573 60.8339 48.9182 -1.2 0.0 0.0 0.0 1.0
343 1 0.734078 59.4718 46.9852 1.2 0.0 8.243744314364877e-298 0.0 1.0
344 3 1.41736 60.9574 48.262 -1.2 0.0 0.0 0.0 1.0
345 1 2.28991 59.4237 54.6746 1.2 2.052747770942691e-146 6.494910119458253e-46 0.0 1.0
346 2 2.33316 61.9674 56.2133 2.4 4.424854133553323e-07 1.4895036065482813e-99 1.1846744039142503e-143 0.999999557514583
347 3 2.23627 60.4395 56.3906 -1.2 6.858765095783277e-25 4.1423435932611834e-60 2.358723854364827e-120 1.0000000000000024
348 3 2.56004 63.0223 52.7549 -1.2 7.1933e-319 0.0 0.0 1.0
349 3 1.05529 62.7062 55.6367 -1.2 4.812582258610352e-65 1.9264375256009446e-148 3.5783272502323247e-234 1.0000000000000036
350 3 3.5761 62.6352 55.5689 -1.2 6.971779681062836e-57 2.193089063596917e-127 4.853218496195971e-204 0.999999999999991
351 1 0.896441 61.6836 52.2948 1.2 0.0 3.2785049758087993e-121 0.0 1.0
352 1 2.86198 61.2069 49.536 1.2 0.0 2.1309028413722298e-250 0.0 1.0
353 2 2.3934 63.6735 51.2598 2.4 1.723828882193768e-236 0.0 0.0 1.0
354 3 2.48509 65.2389 51.3063 -1.2 0.0 0.0 0.0 1.0
355 3 2.39845 62.6972 57.7526 -1.2 0.5729624174332772 4.882683413569964e-10 3.5892116080837326e-46 0.42703758207844866
356 3 1.09681 63.0577 50.691 -1.2 0.0 0.0 0.0 1.0
357 1 -2.08934 61.652 52.3239 1.2 0.0 1.1606501442479893e-139 0.0 1.0
358 3 3.66144 63.0622 50.4814 -1.2 0.0 0.0 0.0 1.0
359 1 -0.588281 61.6359 55.1771 1.2 2.919063814809607e-85 1.385438460111246e-20 5.140085623784302e-275 1.0
360 2 -0.674887 59.5737 53.2774 2.4 1.053288192354101e-110 0.0 0.0 1.0
361 3 -0.63345 58.0206 53.1607 -1.2 2.4483764661255173e-224 0.0 0.0 1.0
362 3 -0.374941 61.0692 46.4835 -1.2 0.0 0.0 0.0 1.0
363 3 -1.9899 60.2606 53.8791 -1.2 9.292856372077999e-177 0.0 0.0 1.0
364 3 0.577101 60.3312 53.9827 -1.2 3.4571726808716394e-157 0.0 0.0 1.0
365 1 -1.8842 68.641 57.3901 1.2 1.3373417496729193e-10 0.40374310409200476 1.988608943716163e-66 0.5962568957742646
366 1 -0.612914 68.7808 49.8593 1.2 0.0 3.103286375137269e-225 0.0 1.0
367 2 -0.173804 66.199 47.9587 2.4 7.611558462757193e-286 0.0 0.0 1.0
368 3 -0.085625 67.7984 48.0899 -1.2 0.0 0.0 0.0 1.0
369 3 -0.585633 65.0343 51.6694 -1.2 0.0 0.0 0.0 1.0
370 3 -1.41232 65.693 48.7764 -1.2 0.0 0.0 0.0 1.0
371 1 1.06905 64.1486 47.0385 1.2 0.0 1.3188492570591526e-300 0.0 1.0
372 3 1.19724 65.5379 48.5335 -1.2 0.0 0.0 0.0 1.0
373 1 2.48464 64.2799 54.4716 1.2 7.096412158196535e-179 5.383972003428587e-54 0.0 1.0
374 2 2.40596 66.7889 56.4011 2.4 0.9944483520409454 3.819518600730266e-73 5.5117088838546045e-114 0.005551647959054167
375 3 2.43497 65.2664 56.4265 -1.2 2.0943636587831745e-21 2.963973550929739e-56 1.2652096936979196e-114 0.9999999999999984
376 3 2.44965 67.683 52.7028 -1.2 5.282041058559754e-305 0.0 0.0 1.0
377 3 1.15767 67.4897 55.7296 -1.2 7.470814003443657e-63 1.7662901810129669e-143 2.3690785654101522e-226 1.0000000000000027
378 3 3.82861 67.387 55.9057 -1.2 6.671618553474043e-40 1.046450876996731e-90 2.45789537835615e-154 1.0000000000000053
379 1 0.849035 66.4126 52.0838 1.2 0.0 3.1241255001253477e-133 0.0 1.0
380 1 2.80168 66.1008 49.4837 1.2 0.0 3.608037737967901e-234 0.0 1.0
381 2 2.41869 68.3864 51.1949 2.4 6.132545636452143e-225 0.0 0.0 1.0
382 3 2.58776 69.9502 51.3046 -1.2 0.0 0.0 0.0 1.0