ITEM: TIMESTEP
1300
ITEM: NUMBER OF ATOMS
10500
ITEM: BOX BOUNDS xy xz yz pp pp pp
0	8.9688	2.9896
0	118.725	0
0	252.977	0
ITEM: ATOMS id type xu yu zu q pCrystal pDisloC pSF pDisloB pDisloA
1 1 -3.35482 7.02589 57.4681 1.2 1.0 2.020264111122433e-51 3.233777151573304e-76 9.949918216081625e-69 7.101848325371509e-21
2 1 -1.82655 6.90154 50.0912 1.2 1.0 0.0 0.0 0.0 0.0
3 2 -0.257935 3.96038 48.0876 2.4 0.0 0.0 0.0 0.0 1.0
4 3 -0.335812 5.46814 47.6264 -1.2 1.0 0.0 0.0 0.0 0.0
5 3 -2.03793 3.43377 51.8941 -1.2 1.0 0.0 0.0 0.0 0.0
6 3 -1.54015 3.53929 48.9521 -1.2 1.0 0.0 0.0 0.0 0.0
7 1 1.82954 2.54582 47.1376 1.2 1.0 0.0 0.0 0.0 0.0
8 3 1.22989 3.66364 48.7877 -1.2 1.0 0.0 0.0 0.0 0.0
9 1 1.03668 2.30425 54.5361 1.2 1.0 0.0 0.0 0.0 1.9039023381562481e-118
10 2 1.07185 4.97687 56.4805 2.4 7.094879631526116e-96 2.2014800504741345e-71 3.961355595762972e-116 1.1681539331496511e-95 1.0000000000000002
11 3 1.01703 3.43554 56.5603 -1.2 1.0 1.5516823603062533e-123 6.2953610992037565e-171 2.1752229235511234e-145 1.3719456665686306e-44
12 3 1.10813 6.07342 52.8172 -1.2 1.0 0.0 0.0 0.0 0.0
13 3 -0.202177 5.69045 55.8379 -1.2 1.0 6.933302078446852e-226 7.306473134385766e-305 1.460371976951079e-246 8.51444238142999e-76
14 3 2.33011 5.65528 55.7734 -1.2 1.0 1.5672089821108924e-195 1.2663491477417243e-266 2.2686861402007648e-217 3.4024187363309696e-68
15 1 -0.459401 4.67631 52.2426 1.2 1.0 0.0 0.0 0.0 7.595253018750941e-302
16 1 2.79456 3.9971 49.9987 1.2 1.0 0.0 0.0 0.0 0.0
17 2 1.16169 6.59457 51.2556 2.4 0.0 0.0 0.0 0.0 1.0
18 3 1.28989 8.18905 51.2909 -1.2 1.0 0.0 0.0 0.0 0.0
19 3 1.13038 5.67045 57.977 -1.2 0.9999999999995026 1.2733809841598201e-26 3.237363841978266e-43 2.925380987625408e-40 4.994587048435828e-13
20 3 -0.184847 6.06029 50.6845 -1.2 1.0 0.0 0.0 0.0 0.0
21 1 -3.49704 4.67769 52.6661 1.2 1.0 0.0 0.0 0.0 9.027886685609991e-261
22 3 2.48581 5.93312 50.6539 -1.2 1.0 0.0 0.0 0.0 0.0
23 1 -1.90778 4.68789 55.1998 1.2 1.0 1.0747001325091432e-281 0.0 1.790267023923034e-299 8.43552024229489e-86
24 2 -1.95052 2.62664 53.314 2.4 0.0 0.0 0.0 0.0 1.0
25 3 -1.99066 1.08234 53.1968 -1.2 1.0 0.0 0.0 0.0 1.4433302842925379e-286
26 3 -0.0467762 2.97103 46.8385 -1.2 1.0 0.0 0.0 0.0 0.0
27 3 -3.22023 3.25846 54.1005 -1.2 1.0 0.0 0.0 0.0 3.6538550996581395e-196
28 3 -0.662376 3.27362 53.9903 -1.2 1.0 0.0 0.0 0.0 1.761109553049332e-212
29 1 -3.2478 11.7477 57.4605 1.2 1.0 2.6975110765090128e-55 3.01073130635228e-81 3.95967673866835e-73 6.091323163506861e-22
30 1 -1.75014 11.5838 49.8362 1.2 1.0 0.0 0.0 0.0 0.0
31 2 -1.18003 9.02138 47.9309 2.4 0.0 0.0 0.0 0.0 1.0
32 3 -1.23224 10.5991 47.9811 -1.2 1.0 0.0 0.0 0.0 0.0
33 3 -1.79016 8.01447 51.8693 -1.2 1.0 0.0 0.0 0.0 0.0
34 3 -2.30986 8.37215 48.8528 -1.2 1.0 0.0 0.0 0.0 0.0
35 1 0.154883 7.08234 46.8007 1.2 1.0 0.0 0.0 0.0 0.0
36 3 0.325447 8.50934 48.3809 -1.2 1.0 0.0 0.0 0.0 0.0
37 1 1.15929 7.08512 54.6251 1.2 1.0 0.0 0.0 0.0 3.962934984682461e-119
38 2 1.22035 9.72874 56.4514 2.4 7.975925777380607e-111 1.7641458195361805e-81 1.6728460578829507e-132 2.2801135536148984e-109 1.0
39 3 1.13975 8.16011 56.5234 -1.2 1.0 2.2341617164400187e-104 4.8548263668418834e-147 1.332441452041328e-128 1.1533638058752639e-38
40 3 1.28624 10.7248 52.7351 -1.2 1.0 0.0 0.0 0.0 0.0
41 3 -0.0490682 10.4284 55.7835 -1.2 1.0 1.099801865253851e-247 0.0 1.0350340882771391e-271 7.581075068821623e-81
42 3 2.46445 10.4203 55.7873 -1.2 1.0 1.1920408925977885e-201 1.1273492210024738e-278 1.6629720457361426e-228 4.547465534208576e-69
43 1 -0.262694 9.34741 52.2523 1.2 1.0 0.0 0.0 0.0 2.3377586849775926e-274
44 1 1.87648 9.01537 49.4629 1.2 1.0 0.0 0.0 0.0 0.0
45 2 1.21415 11.3799 51.2378 2.4 0.0 0.0 0.0 0.0 1.0
46 3 1.31634 12.9512 51.3023 -1.2 1.0 0.0 0.0 0.0 0.0
47 3 1.2214 10.3936 57.965 -1.2 1.0 1.76054589959578e-32 4.1556532583317574e-51 4.679346197826039e-48 3.093651767973643e-15
48 3 -0.115718 10.7564 50.681 -1.2 1.0 0.0 0.0 0.0 0.0
49 1 -3.26386 9.35564 52.3622 1.2 1.0 0.0 0.0 0.0 6.646875738785227e-281
50 3 2.45216 10.7265 50.4558 -1.2 1.0 0.0 0.0 0.0 0.0
51 1 -1.77658 9.45513 55.1524 1.2 1.0 2.000450485029218e-306 0.0 0.0 1.785852443629104e-89
52 2 -1.79604 7.36284 53.3545 2.4 0.0 0.0 0.0 0.0 1.0
53 3 -1.88222 5.81317 53.331 -1.2 1.0 0.0 0.0 0.0 7.5265107307038305e-270
54 3 -1.19417 8.46968 46.4488 -1.2 1.0 0.0 0.0 0.0 0.0
55 3 -3.07187 8.05422 54.0058 -1.2 1.0 0.0 0.0 0.0 6.359743482438784e-206
56 3 -0.50689 8.06536 53.9767 -1.2 1.0 0.0 0.0 0.0 7.229522853019346e-196
57 1 -3.12391 16.537 57.3949 1.2 1.0 1.7881694878444914e-54 1.100261629579139e-79 3.2127169514438046e-72 6.510892395124714e-22
58 1 -1.6714 16.3544 49.8412 1.2 1.0 0.0 0.0 0.0 0.0
59 2 -1.18567 13.8526 47.9314 2.4 0.0 0.0 0.0 0.0 1.0
60 3 -1.09664 15.4205 47.9915 -1.2 1.0 0.0 0.0 0.0 0.0
61 3 -1.73493 12.7491 51.7772 -1.2 1.0 0.0 0.0 0.0 0.0
62 3 -2.36115 13.2717 48.8238 -1.2 1.0 0.0 0.0 0.0 0.0
63 1 -0.159928 11.7639 46.8533 1.2 1.0 0.0 0.0 0.0 0.0
64 3 0.2623 13.1866 48.413 -1.2 1.0 0.0 0.0 0.0 0.0
65 1 1.28752 11.8056 54.5629 1.2 1.0 0.0 0.0 0.0 1.4846101780959621e-130
66 2 1.31593 14.474 56.4058 2.4 1.214700759250472e-104 1.751293828061403e-76 7.195253777412688e-126 1.3178521489590166e-103 1.0000000000000002
67 3 1.29173 12.9176 56.5293 -1.2 1.0 8.898827818223591e-102 7.313208040765209e-145 1.1561714116160295e-128 1.4281483248981194e-37
68 3 1.36565 15.4813 52.729 -1.2 1.0 0.0 0.0 0.0 0.0
69 3 0.0303564 15.154 55.7422 -1.2 1.0 1.6902199707444114e-238 0.0 1.4797952627293618e-266 1.9333297404264872e-77
70 3 2.57677 15.1688 55.7134 -1.2 1.0 3.655839064173544e-212 1.7357359964971097e-294 6.569403534145738e-241 1.3254499373862767e-71
71 1 -0.206989 14.1049 52.2121 1.2 1.0 0.0 0.0 0.0 2.2507951578057753e-280
72 1 1.82591 13.8102 49.4556 1.2 1.0 0.0 0.0 0.0 0.0
73 2 1.29285 16.1518 51.2434 2.4 0.0 0.0 0.0 0.0 1.0
74 3 1.39496 17.7199 51.3047 -1.2 1.0 0.0 0.0 0.0 0.0
75 3 1.34956 15.1595 57.9134 -1.2 1.0 3.267388320831533e-32 3.0455329345662224e-50 6.958992257475853e-48 5.055643886304634e-15
76 3 -0.0269106 15.5178 50.6688 -1.2 1.0 0.0 0.0 0.0 0.0
77 1 -3.18391 14.1057 52.3125 1.2 1.0 0.0 0.0 0.0 4.1666148154198205e-290
78 3 2.52432 15.503 50.4579 -1.2 1.0 0.0 0.0 0.0 0.0
79 1 -1.67266 14.1556 55.0972 1.2 1.0 0.0 0.0 0.0 2.1208670539838294e-91
80 2 -1.7173 12.0672 53.2581 2.4 0.0 0.0 0.0 0.0 1.0
81 3 -1.74149 10.5237 53.1886 -1.2 1.0 0.0 0.0 0.0 6.304211707670726e-282
82 3 -1.21337 13.3381 46.4311 -1.2 1.0 0.0 0.0 0.0 0.0
83 3 -2.99189 12.7624 53.9429 -1.2 1.0 0.0 0.0 0.0 1.6206547731213634e-220
84 3 -0.402031 12.7686 53.9286 -1.2 1.0 0.0 0.0 0.0 1.309722548060534e-204
85 1 -3.02973 21.2263 57.3739 1.2 1.0 1.0500349278821405e-52 3.5042683547930435e-77 9.551109170625597e-70 9.900964628962319e-21
86 1 -1.5831 21.1217 49.8405 1.2 1.0 0.0 0.0 0.0 0.0
87 2 -1.09384 18.6291 47.9287 2.4 0.0 0.0 0.0 0.0 1.0
88 3 -1.02071 20.1985 47.9911 -1.2 1.0 0.0 0.0 0.0 0.0
89 3 -1.65002 17.5002 51.771 -1.2 1.0 0.0 0.0 0.0 0.0
90 3 -2.26174 18.0434 48.8281 -1.2 1.0 0.0 0.0 0.0 0.0
91 1 -0.0440435 16.5651 46.8269 1.2 1.0 0.0 0.0 0.0 0.0
92 3 0.37001 17.9877 48.3925 -1.2 1.0 0.0 0.0 0.0 0.0
93 1 1.3767 16.5434 54.5346 1.2 1.0 0.0 0.0 0.0 9.857931802961469e-131
94 2 1.39986 19.1992 56.4171 2.4 2.5283540462057338e-98 1.0912311657945227e-71 5.913364050804711e-119 8.314292765358045e-98 0.9999999999999997
95 3 1.38214 17.6451 56.4864 -1.2 1.0 4.1482058008971406e-102 9.761941410790115e-145 2.2312251000373074e-128 2.907433502706667e-38
96 3 1.45147 20.239 52.7294 -1.2 1.0 0.0 0.0 0.0 0.0
97 3 0.136393 19.9073 55.7265 -1.2 1.0 1.2928095587467011e-259 0.0 2.8443072043901924e-285 3.5302388965353867e-81
98 3 2.68219 19.8931 55.7631 -1.2 1.0 2.302514707331047e-196 2.8778619867634065e-273 3.9194267065590265e-224 8.6503150533795e-66
99 1 -0.126194 18.8651 52.2079 1.2 1.0 0.0 0.0 0.0 1.9104182849525093e-276
100 1 1.92402 18.5815 49.4545 1.2 1.0 0.0 0.0 0.0 0.0
101 2 1.38106 20.9117 51.2443 2.4 0.0 0.0 0.0 0.0 1.0
102 3 1.48527 22.4795 51.3054 -1.2 1.0 0.0 0.0 0.0 0.0
103 3 1.39171 19.884 57.9145 -1.2 0.9999999999999858 2.18611511583294e-31 1.8450073499946412e-48 1.7726219270891897e-46 1.8866714605253852e-14
104 3 0.0615419 20.2804 50.6669 -1.2 1.0 0.0 0.0 0.0 0.0
105 1 -3.09665 18.8643 52.3122 1.2 1.0 0.0 0.0 0.0 1.7072901887105498e-286
106 3 2.61548 20.2646 50.4626 -1.2 1.0 0.0 0.0 0.0 0.0
107 1 -1.59394 18.9369 55.1106 1.2 1.0 3.0980335903e-313 0.0 0.0 1.0429480935311868e-87
108 2 -1.63583 16.8186 53.2527 2.4 0.0 0.0 0.0 0.0 1.0
109 3 -1.66988 15.2727 53.1709 -1.2 1.0 0.0 0.0 0.0 2.6126625198874664e-280
110 3 -1.12868 18.1227 46.4249 -1.2 1.0 0.0 0.0 0.0 0.0
111 3 -2.90538 17.5188 53.9305 -1.2 1.0 0.0 0.0 0.0 1.131654611513861e-209
112 3 -0.329781 17.4896 53.9033 -1.2 1.0 0.0 0.0 0.0 8.138790739852782e-197
113 1 -2.93062 25.975 57.366 1.2 1.0 3.4370646426540694e-49 2.6751970220037753e-72 2.4942507056769727e-65 8.895950793715829e-20
114 1 -1.48778 25.88 49.8402 1.2 1.0 0.0 0.0 0.0 0.0
115 2 -1.00491 23.3922 47.9274 2.4 0.0 0.0 0.0 0.0 1.0
116 3 -0.927602 24.9615 47.9909 -1.2 1.0 0.0 0.0 0.0 0.0
117 3 -1.55795 22.2588 51.7696 -1.2 1.0 0.0 0.0 0.0 0.0
118 3 -2.17411 22.8111 48.8277 -1.2 1.0 0.0 0.0 0.0 0.0
119 1 0.0423997 21.3296 46.8225 1.2 1.0 0.0 0.0 0.0 0.0
120 3 0.458537 22.7495 48.3911 -1.2 1.0 0.0 0.0 0.0 0.0
121 1 1.46594 21.2838 54.5599 1.2 1.0 0.0 0.0 0.0 9.26415496084335e-125
122 2 1.48388 23.9577 56.3802 2.4 2.5025904342069936e-112 8.724586942458337e-83 5.479989681310813e-135 2.1220276573940372e-110 1.0
123 3 1.46826 22.3989 56.4505 -1.2 1.0 9.494008542156116e-122 3.7568937851373296e-171 5.232779985973364e-147 3.631625320402352e-43
124 3 1.54441 24.9963 52.7297 -1.2 1.0 0.0 0.0 0.0 0.0
125 3 0.211877 24.6583 55.7278 -1.2 1.0 2.644518550310802e-259 0.0 7.86689210916238e-284 4.308310732092334e-80
126 3 2.75451 24.6523 55.685 -1.2 1.0 6.520441764199174e-207 2.126165520822877e-286 1.3710788816675566e-232 3.6158080856154873e-68
127 1 -0.0335968 23.6229 52.2067 1.2 1.0 0.0 0.0 0.0 1.3673603729765337e-274
128 1 2.01073 23.3445 49.4541 1.2 1.0 0.0 0.0 0.0 0.0
129 2 1.47594 25.6699 51.2449 2.4 0.0 0.0 0.0 0.0 1.0
130 3 1.58172 27.2371 51.3054 -1.2 1.0 0.0 0.0 0.0 0.0
131 3 1.51966 24.6223 57.8813 -1.2 0.999999999999929 5.359123592096896e-29 7.012379074371777e-45 1.7657119479291532e-43 7.214921046163405e-14
132 3 0.157925 25.0378 50.6651 -1.2 1.0 0.0 0.0 0.0 0.0
133 1 -3.00341 23.6231 52.3098 1.2 1.0 0.0 0.0 0.0 1.0575951815999245e-281
134 3 2.71149 25.0232 50.4656 -1.2 1.0 0.0 0.0 0.0 0.0
135 1 -1.50496 23.6978 55.1037 1.2 1.0 2.7167657461560755e-303 0.0 0.0 2.0618235562101276e-83
136 2 -1.51353 21.5662 53.2645 2.4 0.0 0.0 0.0 0.0 1.0
137 3 -1.57591 19.989 53.189 -1.2 1.0 0.0 0.0 0.0 6.598241277405917e-278
138 3 -1.03938 22.8897 46.4223 -1.2 1.0 0.0 0.0 0.0 0.0
139 3 -2.78567 22.2436 53.9248 -1.2 1.0 0.0 0.0 0.0 8.363070762150218e-208
140 3 -0.23311 22.2471 53.8664 -1.2 1.0 0.0 0.0 0.0 3.1902221551304816e-205
141 1 -2.85406 30.7572 57.4083 1.2 1.0 3.574592345349636e-48 7.533084726491252e-72 1.541959601587645e-64 1.2543461412325452e-19
142 1 -1.38776 30.6357 49.8391 1.2 1.0 0.0 0.0 0.0 0.0
143 2 -0.907929 28.1491 47.9262 2.4 0.0 0.0 0.0 0.0 1.0
144 3 -0.829229 29.7184 47.99 -1.2 1.0 0.0 0.0 0.0 0.0
145 3 -1.45946 27.0152 51.769 -1.2 1.0 0.0 0.0 0.0 0.0
146 3 -2.07744 27.5697 48.8273 -1.2 1.0 0.0 0.0 0.0 0.0
147 1 0.137907 26.087 46.819 1.2 1.0 0.0 0.0 0.0 0.0
148 3 0.55579 27.5065 48.3893 -1.2 1.0 0.0 0.0 0.0 0.0
149 1 1.55286 26.0674 54.5549 1.2 1.0 0.0 0.0 0.0 1.7914008506495022e-119
150 2 1.60402 28.7009 56.388 2.4 5.6746238348451055e-114 2.7539308607538325e-83 6.127448680349039e-136 4.707882422682752e-111 0.9999999999999997
151 3 1.55749 27.1328 56.4606 -1.2 1.0 1.0252083692691657e-114 3.058571387591485e-162 1.569601887351576e-140 2.0437924939869917e-40
152 3 1.6432 29.7522 52.7291 -1.2 1.0 0.0 0.0 0.0 0.0
153 3 0.325883 29.391 55.7483 -1.2 1.0 1.9543774826542704e-221 6.568991363573517e-305 3.786194928380666e-246 1.0157353642263723e-70
154 3 2.87127 29.3952 55.7199 -1.2 1.0 1.727428810379031e-191 4.078934092299931e-267 2.000875663805723e-218 1.0167182634808328e-62
155 1 0.0647462 28.3794 52.2059 1.2 1.0 0.0 0.0 0.0 4.883844825802268e-271
156 1 2.10696 28.1021 49.4531 1.2 1.0 0.0 0.0 0.0 0.0
157 2 1.57592 30.4257 51.2442 2.4 0.0 0.0 0.0 0.0 1.0
158 3 1.68288 31.9926 51.3043 -1.2 1.0 0.0 0.0 0.0 0.0
159 3 1.62025 29.3613 57.8763 -1.2 0.9999999999998579 1.4899491371851928e-27 2.791070580192104e-43 6.554994665267758e-42 1.3746856327200846e-13
160 3 0.258524 29.7935 50.6632 -1.2 1.0 0.0 0.0 0.0 0.0
161 1 -2.90462 28.3797 52.308 1.2 1.0 0.0 0.0 0.0 1.290033448785418e-290
162 3 2.81205 29.7787 50.4664 -1.2 1.0 0.0 0.0 0.0 0.0
163 1 -1.38555 28.4306 55.1126 1.2 1.0 6.829634395497525e-287 0.0 2.359508320654119e-308 1.1377861695334702e-79
164 2 -1.42577 26.3362 53.2467 2.4 0.0 0.0 0.0 0.0 1.0
165 3 -1.48863 24.7762 53.2103 -1.2 1.0 0.0 0.0 0.0 3.5180651495090195e-264
166 3 -0.943026 27.648 46.4208 -1.2 1.0 0.0 0.0 0.0 0.0
167 3 -2.7037 27.0449 53.9418 -1.2 1.0 0.0 0.0 0.0 1.323099982256667e-196
168 3 -0.149474 27.0255 53.8945 -1.2 1.0 0.0 0.0 0.0 2.906272415548699e-192
169 1 -2.73406 35.5496 57.4167 1.2 1.0 2.7639268677021525e-48 1.7062859641265026e-72 4.814890434325432e-65 6.334251432425844e-20
170 1 -1.28421 35.3899 49.8376 1.2 1.0 0.0 0.0 0.0 0.0
171 2 -0.807101 32.9036 47.9247 2.4 0.0 0.0 0.0 0.0 1.0
172 3 -0.727174 34.4729 47.9885 -1.2 1.0 0.0 0.0 0.0 0.0
173 3 -1.35735 31.7701 51.768 -1.2 1.0 0.0 0.0 0.0 0.0
174 3 -1.97695 32.3253 48.826 -1.2 1.0 0.0 0.0 0.0 0.0
175 1 0.237665 30.8412 46.8168 1.2 1.0 0.0 0.0 0.0 0.0
176 3 0.656562 32.2608 48.3877 -1.2 1.0 0.0 0.0 0.0 0.0
177 1 1.64165 30.809 54.5414 1.2 1.0 0.0 0.0 0.0 1.508269923512362e-119
178 2 1.72938 33.4595 56.422 2.4 3.478997083263245e-97 3.8278809609151e-70 9.673281150742945e-117 1.2459693061935763e-95 0.9999999999999993
179 3 1.68003 31.9096 56.5059 -1.2 1.0 4.284333750049528e-91 6.688073551410612e-131 2.658884536008345e-117 1.8360630615215667e-33
180 3 1.74574 34.5067 52.7279 -1.2 1.0 0.0 0.0 0.0 0.0
181 3 0.443344 34.1515 55.7535 -1.2 1.0 1.1487898911130021e-238 0.0 1.5273152447390323e-265 2.126570829189495e-75
182 3 2.99342 34.1586 55.7361 -1.2 1.0 1.3654440743510327e-187 3.3759986531107886e-262 7.791829765458229e-215 1.2527862950105713e-61
183 1 0.167046 33.1343 52.2045 1.2 1.0 0.0 0.0 0.0 3.8234108848418915e-276
184 1 2.20727 32.8578 49.4516 1.2 1.0 0.0 0.0 0.0 0.0
185 2 1.67943 35.1802 51.2429 2.4 0.0 0.0 0.0 0.0 1.0
186 3 1.78736 36.747 51.303 -1.2 1.0 0.0 0.0 0.0 0.0
187 3 1.75737 34.1293 57.9036 -1.2 0.9999999999998153 1.6070059167855564e-26 2.4337678685802206e-42 5.571794674346576e-41 1.8730511632620987e-13
188 3 0.362533 34.5479 50.661 -1.2 1.0 0.0 0.0 0.0 0.0
189 1 -2.80215 33.1347 52.3062 1.2 1.0 0.0 0.0 0.0 4.04115783826084e-288
190 3 2.91593 34.533 50.466 -1.2 1.0 0.0 0.0 0.0 0.0
191 1 -1.26425 33.1932 55.1027 1.2 1.0 5.872404539336858e-300 0.0 4.536e-321 8.223321328171532e-82
192 2 -1.33116 31.0949 53.258 2.4 0.0 0.0 0.0 0.0 1.0
193 3 -1.39221 29.5362 53.2006 -1.2 1.0 0.0 0.0 0.0 4.059282272157159e-275
194 3 -0.842495 32.4028 46.4192 -1.2 1.0 0.0 0.0 0.0 0.0
195 3 -2.61165 31.8024 53.9435 -1.2 1.0 0.0 0.0 0.0 1.391240699245332e-199
196 3 -0.0460422 31.761 53.9149 -1.2 1.0 0.0 0.0 0.0 4.998762470849902e-193
197 1 -2.64927 40.2772 57.3749 1.2 1.0 1.3630272601721259e-49 3.63161343808249e-74 1.5008828950829212e-66 6.880324168902005e-20
198 1 -1.17787 40.1435 49.8359 1.2 1.0 0.0 0.0 0.0 0.0
199 2 -0.702692 37.6572 47.9231 2.4 0.0 0.0 0.0 0.0 1.0
200 3 -0.621782 39.2264 47.9868 -1.2 1.0 0.0 0.0 0.0 0.0
201 3 -1.25221 36.5242 51.7666 -1.2 1.0 0.0 0.0 0.0 0.0
202 3 -1.87295 37.0796 48.8243 -1.2 1.0 0.0 0.0 0.0 0.0
203 1 0.341084 35.5943 46.8152 1.2 1.0 0.0 0.0 0.0 0.0
204 3 0.760681 37.0138 48.3864 -1.2 1.0 0.0 0.0 0.0 0.0
205 1 1.76665 35.5537 54.5551 1.2 1.0 0.0 0.0 0.0 1.412350489670872e-122
206 2 1.82134 38.22 56.3915 2.4 5.0146235675785626e-110 5.054436020724414e-80 4.04848033078405e-132 7.834964091912521e-108 1.0000000000000004
207 3 1.77496 36.6543 56.4768 -1.2 1.0 5.3116924544726564e-99 3.624418568711242e-142 5.106792255566037e-126 6.715028589109145e-36
208 3 1.85132 39.2606 52.7264 -1.2 1.0 0.0 0.0 0.0 0.0
209 3 0.517846 38.8971 55.7254 -1.2 1.0 5.352853649672947e-259 0.0 1.4087937229484718e-285 3.7664637059759497e-81
210 3 3.07807 38.9066 55.7171 -1.2 1.0 1.3018456048018748e-188 1.6761782861854253e-263 8.57245638931865e-216 1.170741118390608e-62
211 1 0.272384 37.8883 52.2029 1.2 1.0 0.0 0.0 0.0 7.754649237011241e-279
212 1 2.31122 37.6122 49.4501 1.2 1.0 0.0 0.0 0.0 0.0
213 2 1.78573 39.934 51.2414 2.4 0.0 0.0 0.0 0.0 1.0
214 3 1.89428 41.5006 51.3014 -1.2 1.0 0.0 0.0 0.0 0.0
215 3 1.81717 38.8927 57.874 -1.2 0.9999999999998295 7.7652045044704395e-28 4.1747406843281076e-44 3.4826043011112344e-42 1.7012063778270374e-13
216 3 0.469216 39.3015 50.6588 -1.2 1.0 0.0 0.0 0.0 0.0
217 1 -2.69668 37.8889 52.3043 1.2 1.0 0.0 0.0 0.0 1.2104972127125385e-287
218 3 3.0225 39.2866 50.4651 -1.2 1.0 0.0 0.0 0.0 0.0
219 1 -1.18496 37.9368 55.1007 1.2 1.0 3.9284376667760774e-303 0.0 0.0 1.0226412705604864e-83
220 2 -1.23826 35.8332 53.2535 2.4 0.0 0.0 0.0 0.0 1.0
221 3 -1.2809 34.2879 53.1659 -1.2 1.0 0.0 0.0 0.0 8.936531490518854e-277
222 3 -0.738054 37.1566 46.4176 -1.2 1.0 0.0 0.0 0.0 0.0
223 3 -2.49242 36.5163 53.9313 -1.2 1.0 0.0 0.0 0.0 4.048982394607921e-208
224 3 0.0447551 36.5378 53.8996 -1.2 1.0 0.0 0.0 0.0 8.322262420101389e-194
225 1 -2.52686 45.032 57.4095 1.2 1.0 1.382799224727831e-50 4.848550389290888e-75 2.0532315311396667e-67 2.1334619569222803e-20
226 1 -1.06993 44.8968 49.8343 1.2 1.0 0.0 0.0 0.0 0.0
227 2 -0.596166 42.4103 47.9215 2.4 0.0 0.0 0.0 0.0 1.0
228 3 -0.51472 43.9796 47.9853 -1.2 1.0 0.0 0.0 0.0 0.0
229 3 -1.14475 41.2777 51.7649 -1.2 1.0 0.0 0.0 0.0 0.0
230 3 -1.76671 41.8331 48.8226 -1.2 1.0 0.0 0.0 0.0 0.0
231 1 0.447076 40.3473 46.8135 1.2 1.0 0.0 0.0 0.0 0.0
232 3 0.866985 41.7666 48.385 -1.2 1.0 0.0 0.0 0.0 0.0
233 1 1.85952 40.3336 54.5468 1.2 1.0 0.0 0.0 0.0 7.83319042867514e-124
234 2 1.90835 42.9775 56.4001 2.4 1.0067254799227646e-102 1.713401043190519e-74 1.95705218123275e-123 2.874301347546023e-101 0.9999999999999999
235 3 1.86947 41.4094 56.466 -1.2 1.0 9.699874113881231e-107 4.948448639726026e-152 9.20227207453865e-133 2.7170003103131054e-38
236 3 1.95891 44.014 52.7248 -1.2 1.0 0.0 0.0 0.0 0.0
237 3 0.634264 43.6594 55.7439 -1.2 1.0 5.032249915519101e-230 1.56426006e-316 2.1324672382152273e-255 1.2473659849322501e-74
238 3 3.17589 43.6583 55.7345 -1.2 1.0 3.47985196107542e-194 2.5564131053971797e-270 2.1146890629226105e-221 5.458424262104292e-66
239 1 0.379928 42.6418 52.2013 1.2 1.0 0.0 0.0 0.0 2.3738674671811083e-280
240 1 2.41752 42.366 49.4484 1.2 1.0 0.0 0.0 0.0 0.0
241 2 1.89374 44.6874 51.2398 2.4 0.0 0.0 0.0 0.0 1.0
242 3 2.00266 46.254 51.2996 -1.2 1.0 0.0 0.0 0.0 0.0
243 3 1.93157 43.6449 57.8965 -1.2 0.999999999999929 2.704034720735304e-29 4.585790239317296e-46 9.278234173044313e-44 7.085286260974486e-14
244 3 0.577464 44.0549 50.6567 -1.2 1.0 0.0 0.0 0.0 0.0
245 1 -2.58906 42.6425 52.3022 1.2 1.0 0.0 0.0 0.0 3.811785097469397e-297
246 3 3.13067 44.0398 50.464 -1.2 1.0 0.0 0.0 0.0 0.0
247 1 -1.08243 42.6951 55.1229 1.2 1.0 5.036819733326006e-292 0.0 2.282755935e-315 2.7656497559719465e-83
248 2 -1.11776 40.6003 53.2454 2.4 0.0 0.0 0.0 0.0 1.0
249 3 -1.17318 39.046 53.1663 -1.2 1.0 0.0 0.0 0.0 2.6827837981373845e-282
250 3 -0.631421 41.9099 46.4159 -1.2 1.0 0.0 0.0 0.0 0.0
251 3 -2.38647 41.2717 53.9508 -1.2 1.0 0.0 0.0 0.0 2.353238060342486e-205
252 3 0.160232 41.2808 53.8887 -1.2 1.0 0.0 0.0 0.0 7.11452109469289e-197
253 1 -2.41583 49.7493 57.4106 1.2 1.0 6.641053534125625e-50 6.366568546861389e-74 2.2771020642656096e-66 6.200633208407172e-20
254 1 -0.961069 49.6502 49.8327 1.2 1.0 0.0 0.0 0.0 0.0
255 2 -0.488083 47.1636 47.9198 2.4 0.0 0.0 0.0 0.0 1.0
256 3 -0.40607 48.7329 47.9837 -1.2 1.0 0.0 0.0 0.0 0.0
257 3 -1.0361 46.031 51.7632 -1.2 1.0 0.0 0.0 0.0 0.0
258 3 -1.65866 46.5866 48.821 -1.2 1.0 0.0 0.0 0.0 0.0
259 1 0.554124 45.1001 46.8117 1.2 1.0 0.0 0.0 0.0 0.0
260 3 0.974961 46.5195 48.3832 -1.2 1.0 0.0 0.0 0.0 0.0
261 1 1.9718 45.0873 54.5312 1.2 1.0 0.0 0.0 0.0 7.533122520539888e-130
262 2 2.01171 47.7381 56.4174 2.4 1.0581049021003472e-96 4.861475119299811e-70 4.095424755112277e-116 1.1869606081427257e-95 0.9999999999999993
263 3 1.98335 46.1772 56.4904 -1.2 1.0 3.256782441342683e-97 9.737906759092245e-139 3.282636033568592e-123 9.691607494746306e-36
264 3 2.0677 48.7672 52.7232 -1.2 1.0 0.0 0.0 0.0 0.0
265 3 0.72148 48.3975 55.7832 -1.2 1.0 1.5132019922090124e-230 2.535539e-317 1.495937678536452e-256 8.921013975985338e-75
266 3 3.27677 48.4171 55.7151 -1.2 1.0 1.1578491120708056e-203 2.4606145329368704e-282 8.171983106668435e-231 7.157531007269099e-69
267 1 0.488584 47.395 52.1996 1.2 1.0 0.0 0.0 0.0 2.0764304282410446e-291
268 1 2.52544 47.1195 49.4466 1.2 1.0 0.0 0.0 0.0 0.0
269 2 2.00256 49.4407 51.2382 2.4 0.0 0.0 0.0 0.0 1.0
270 3 2.11156 51.0073 51.2982 -1.2 1.0 0.0 0.0 0.0 0.0
271 3 2.06673 48.3903 57.9179 -1.2 0.9999999999998721 4.9281978914870755e-28 3.284578978788429e-44 4.020548704994211e-42 1.2178718482914543e-13
272 3 0.686344 48.8082 50.655 -1.2 1.0 0.0 0.0 0.0 0.0
273 1 -2.48039 47.3957 52.3005 1.2 1.0 0.0 0.0 0.0 1.0087178752243791e-296
274 3 3.23944 48.7932 50.4623 -1.2 1.0 0.0 0.0 0.0 0.0
275 1 -0.998285 47.4174 55.0995 1.2 1.0 2.221061094797188e-293 0.0 1.23205482e-315 1.7058261796911101e-84
276 2 -1.02009 45.3333 53.2214 2.4 0.0 0.0 0.0 0.0 1.0
277 3 -1.07235 43.7958 53.1702 -1.2 1.0 0.0 0.0 0.0 2.3281562362231298e-284
278 3 -0.523731 46.6632 46.4143 -1.2 1.0 0.0 0.0 0.0 0.0
279 3 -2.27592 46.0239 53.9424 -1.2 1.0 0.0 0.0 0.0 4.606784059519355e-211
280 3 0.274007 46.0206 53.8783 -1.2 1.0 0.0 0.0 0.0 4.713495138055399e-202
281 1 -2.30178 54.5053 57.3937 1.2 1.0 1.8999628572598347e-47 6.564175616123435e-71 1.2686074486029466e-63 3.516745925874371e-19
282 1 -0.852141 54.4034 49.8315 1.2 1.0 0.0 0.0 0.0 0.0
283 2 -0.378544 51.9171 47.9184 2.4 0.0 0.0 0.0 0.0 1.0
284 3 -0.296378 53.4863 47.9823 -1.2 1.0 0.0 0.0 0.0 0.0
285 3 -0.927178 50.7841 51.7618 -1.2 1.0 0.0 0.0 0.0 0.0
286 3 -1.5492 51.3402 48.8196 -1.2 1.0 0.0 0.0 0.0 0.0
287 1 0.663149 49.8533 46.8103 1.2 1.0 0.0 0.0 0.0 0.0
288 3 1.08434 51.2727 48.3819 -1.2 1.0 0.0 0.0 0.0 0.0
289 1 2.11046 49.8636 54.5181 1.2 1.0 0.0 0.0 0.0 2.707005954896571e-127
290 2 2.14485 52.4681 56.4015 2.4 9.347977620721608e-110 1.9817320106861254e-80 1.5641726209878312e-131 9.003754893184007e-108 1.0000000000000002
291 3 2.1068 50.9067 56.4956 -1.2 1.0 2.3753024646500257e-93 1.6718329555621809e-133 2.3086433013618965e-119 2.574178651064465e-34
292 3 2.17678 53.5203 52.7219 -1.2 1.0 0.0 0.0 0.0 0.0
293 3 0.866807 53.1573 55.7407 -1.2 1.0 1.1032998525906502e-235 0.0 1.819580686094568e-262 5.943378944589906e-75
294 3 3.4129 53.1365 55.716 -1.2 1.0 8.36076280290052e-188 3.361816611754407e-262 1.3343137103002077e-215 1.3794641821340896e-62
295 1 0.597515 52.1481 52.1982 1.2 1.0 0.0 0.0 0.0 1.5647555826304368e-281
296 1 2.63482 51.8727 49.4453 1.2 1.0 0.0 0.0 0.0 0.0
297 2 2.11145 54.194 51.237 2.4 0.0 0.0 0.0 0.0 1.0
298 3 2.22036 55.7605 51.2971 -1.2 1.0 0.0 0.0 0.0 0.0
299 3 2.18929 53.1438 57.8911 -1.2 0.9999999999996305 5.011583043149259e-27 9.861991418956465e-43 5.41799843103996e-41 3.715881116447422e-13
300 3 0.795151 53.5615 50.6538 -1.2 1.0 0.0 0.0 0.0 0.0
301 1 -2.37147 52.1489 52.2994 1.2 1.0 0.0 0.0 0.0 5.513547099721291e-298
302 3 3.34826 53.5466 50.4608 -1.2 1.0 0.0 0.0 0.0 0.0
303 1 -0.85749 52.1804 55.1207 1.2 1.0 1.4087817784157787e-287 0.0 1.4151913476150064e-308 4.98941982116728e-81
304 2 -0.907325 50.0849 53.2312 2.4 0.0 0.0 0.0 0.0 1.0
305 3 -0.966062 48.5313 53.165 -1.2 1.0 0.0 0.0 0.0 8.128221322646232e-284
306 3 -0.414295 51.4167 46.4129 -1.2 1.0 0.0 0.0 0.0 0.0
307 3 -2.15874 50.7977 53.9285 -1.2 1.0 0.0 0.0 0.0 5.3173613609876386e-207
308 3 0.384301 50.754 53.8921 -1.2 1.0 0.0 0.0 0.0 1.859690512191608e-198
309 1 -2.15639 59.2646 57.3641 1.2 1.0 5.700967083683324e-45 9.745132307734665e-68 4.469344897343249e-61 1.1205517341470858e-18
310 1 -0.743708 59.1569 49.8307 1.2 1.0 0.0 0.0 0.0 0.0
311 2 -0.269405 56.6708 47.9174 2.4 0.0 0.0 0.0 0.0 1.0
312 3 -0.187669 58.2401 47.9814 -1.2 1.0 0.0 0.0 0.0 0.0
313 3 -0.818478 55.5373 51.7607 -1.2 1.0 0.0 0.0 0.0 0.0
314 3 -1.44003 56.0936 48.8185 -1.2 1.0 0.0 0.0 0.0 0.0
315 1 0.772639 54.6072 46.8092 1.2 1.0 0.0 0.0 0.0 0.0
316 3 1.19351 56.0266 48.3809 -1.2 1.0 0.0 0.0 0.0 0.0
317 1 2.1659 54.5933 54.5638 1.2 1.0 0.0 0.0 0.0 2.039014897673279e-120
318 2 2.28657 57.2309 56.3822 2.4 3.593343508404864e-101 2.0559220001637157e-74 1.5404111635983812e-122 3.325475415745722e-100 1.0
319 3 2.21085 55.6811 56.457 -1.2 1.0 2.1224154912416612e-111 2.983392909222856e-159 7.277399558992965e-139 2.815218744963731e-39
320 3 2.28552 58.2735 52.7209 -1.2 1.0 0.0 0.0 0.0 0.0
321 3 0.986817 57.93 55.7322 -1.2 1.0 8.312892338332309e-230 1.306097e-317 5.485983939358306e-256 1.7739307363130317e-72
322 3 3.54699 57.9025 55.7023 -1.2 1.0 1.9143799678151081e-181 8.0416142881412905e-255 7.145620636162179e-210 3.1714790988488207e-60
323 1 0.706198 56.9012 52.1971 1.2 1.0 0.0 0.0 0.0 3.0618161387474286e-274
324 1 2.74404 56.6261 49.4443 1.2 1.0 0.0 0.0 0.0 0.0
325 2 2.21991 58.9473 51.2362 2.4 0.0 0.0 0.0 0.0 1.0
326 3 2.32845 60.5139 51.2962 -1.2 1.0 0.0 0.0 0.0 0.0
327 3 2.31444 57.8959 57.8807 -1.2 0.9999999999988489 7.655836008549347e-25 8.704614178309766e-40 8.37982367872731e-39 1.1575950241281623e-12
328 3 0.903509 58.3149 50.6531 -1.2 1.0 0.0 0.0 0.0 0.0
329 1 -2.26283 56.9019 52.2988 1.2 1.0 0.0 0.0 0.0 4.172141973742067e-285
330 3 3.45667 58.3001 50.4597 -1.2 1.0 0.0 0.0 0.0 0.0
331 1 -0.701685 56.9448 55.0859 1.2 1.0 2.5004508490163295e-298 0.0 2.889e-320 4.042439524138546e-82
332 2 -0.801802 54.8408 53.2486 2.4 0.0 0.0 0.0 0.0 1.0
333 3 -0.838024 53.2946 53.1981 -1.2 1.0 0.0 0.0 0.0 1.7482336739347473e-272
334 3 -0.304995 56.1705 46.4119 -1.2 1.0 0.0 0.0 0.0 0.0
335 3 -2.07628 55.5219 53.9192 -1.2 1.0 0.0 0.0 0.0 5.3660692691901335e-207
336 3 0.482991 55.5486 53.8944 -1.2 1.0 0.0 0.0 0.0 4.690445813551239e-189
337 1 -2.06793 64.0441 57.3611 1.2 1.0 7.91189179846239e-46 4.860722366716777e-69 1.4570887955061874e-62 1.4737202591495198e-19
338 1 -0.636972 63.9105 49.8301 1.2 1.0 0.0 0.0 0.0 0.0
339 2 -0.161217 61.4249 47.9168 2.4 0.0 0.0 0.0 0.0 1.0
340 3 -0.0799602 62.9942 47.9808 -1.2 1.0 0.0 0.0 0.0 0.0
341 3 -0.71051 60.2905 51.7601 -1.2 1.0 0.0 0.0 0.0 0.0
342 3 -1.33142 60.8473 48.8182 -1.2 1.0 0.0 0.0 0.0 0.0
343 1 0.880515 59.3614 46.808 1.2 1.0 0.0 0.0 0.0 0.0
344 3 1.30191 60.7808 48.3796 -1.2 1.0 0.0 0.0 0.0 0.0
345 1 2.29122 59.346 54.5125 1.2 1.0 0.0 0.0 0.0 3.583038535020655e-119
346 2 2.38198 61.9683 56.3735 2.4 2.8360308035693622e-102 6.230066730469408e-75 1.467021118037968e-124 6.366434659534676e-102 0.9999999999999992
347 3 2.34361 60.422 56.4597 -1.2 1.0 3.99576268217436e-107 3.2061066582224706e-153 4.35875939266611e-134 1.635390519133142e-38
348 3 2.39322 63.0266 52.7201 -1.2 1.0 0.0 0.0 0.0 0.0
349 3 1.09486 62.6519 55.7047 -1.2 1.0 5.934112444279946e-250 0.0 8.982880661472147e-276 7.075280333046995e-79
350 3 3.64684 62.6788 55.7054 -1.2 1.0 2.2464719307118436e-192 1.2936382447906189e-268 1.1985123973480792e-219 1.9812074557759078e-63
351 1 0.813856 61.6544 52.1964 1.2 1.0 0.0 0.0 0.0 6.757412515698603e-273
352 1 2.85244 61.3793 49.4433 1.2 1.0 0.0 0.0 0.0 0.0
353 2 2.32661 63.7006 51.2354 2.4 0.0 0.0 0.0 0.0 1.0
354 3 2.43416 65.2673 51.2956 -1.2 1.0 0.0 0.0 0.0 0.0
355 3 2.40362 62.65 57.8618 -1.2 0.9999999999995453 3.2212749498607414e-25 2.520994473609078e-40 1.8235168463525356e-39 4.4877340195866126e-13
356 3 1.00987 63.0684 50.653 -1.2 1.0 0.0 0.0 0.0 0.0
357 1 -2.15526 61.6549 52.2986 1.2 1.0 0.0 0.0 0.0 1.7796381027046647e-283
358 3 3.56306 63.054 50.4581 -1.2 1.0 0.0 0.0 0.0 0.0
359 1 -0.611974 61.7184 55.0616 1.2 1.0 1.3134385843722965e-306 0.0 0.0 1.81897520783427e-83
360 2 -0.717266 59.598 53.2204 2.4 0.0 0.0 0.0 0.0 1.0
361 3 -0.735907 58.0489 53.1535 -1.2 1.0 0.0 0.0 0.0 2.5852799734059235e-272
362 3 -0.197347 60.9246 46.4112 -1.2 1.0 0.0 0.0 0.0 0.0
363 3 -1.96794 60.2751 53.923 -1.2 1.0 0.0 0.0 0.0 2.4996804632128385e-200
364 3 0.595564 60.2802 53.8628 -1.2 1.0 0.0 0.0 0.0 1.2192426160071542e-198
365 1 -1.99842 68.8286 57.3896 1.2 1.0 2.1756323748718086e-47 1.1641916129108157e-70 3.891883304158266e-64 9.046198821723447e-20
366 1 -0.533443 68.6636 49.8296 1.2 1.0 0.0 0.0 0.0 0.0
367 2 -0.0548096 66.1789 47.9162 2.4 0.0 0.0 0.0 0.0 1.0
368 3 0.0255715 67.7482 47.9801 -1.2 1.0 0.0 0.0 0.0 0.0
369 3 -0.605209 65.0437 51.7598 -1.2 1.0 0.0 0.0 0.0 0.0
370 3 -1.22454 65.6011 48.818 -1.2 1.0 0.0 0.0 0.0 0.0
371 1 0.987386 64.1158 46.807 1.2 1.0 0.0 0.0 0.0 0.0
372 3 1.4086 65.5353 48.3785 -1.2 1.0 0.0 0.0 0.0 0.0
373 1 2.43179 64.0978 54.5273 1.2 1.0 0.0 0.0 0.0 1.267712388966072e-118
374 2 2.46707 66.7257 56.384 2.4 2.1554151722514065e-102 5.971161533835612e-75 1.1323056509683696e-124 2.612364480250801e-102 1.0
375 3 2.43053 65.1798 56.4565 -1.2 1.0 8.311781920907386e-114 6.83744469799812e-162 1.0872653681683247e-140 1.4227542056436435e-41
376 3 2.49801 67.7798 52.7194 -1.2 1.0 0.0 0.0 0.0 0.0
377 3 1.17448 67.4358 55.7134 -1.2 1.0 5.097127161539458e-255 0.0 3.9349131867576675e-281 1.5515815746802031e-80
378 3 3.73059 67.4234 55.7079 -1.2 1.0 1.1137699381764728e-183 5.021923266339613e-257 1.495006858624712e-211 1.8396832584985564e-62
379 1 0.918773 66.4074 52.1957 1.2 1.0 0.0 0.0 0.0 2.3786789288365376e-277
380 1 2.95913 66.1322 49.4427 1.2 1.0 0.0 0.0 0.0 0.0
381 2 2.43017 68.4538 51.2348 2.4 0.0 0.0 0.0 0.0 1.0
382 3 2.53642 70.0208 51.2951 -1.2 1.0 0.0 0.0 0.0 0.0
383 3 2.48303 67.4233 57.8513 -1.2 0.9999999999998863 1.8593881652151192e-26 3.9123248537668404e-42 2.1338799966488051e-41 1.0945180528797073e-13
384 3 1.11294 67.8218 50.6533 -1.2 1.0 0.0 0.0 0.0 0.0
385 1 -2.0505 66.4078 52.2991 1.2 1.0 0.0 0.0 0.0 9.756666819946147e-283
386 3 3.66629 67.8078 50.4567 -1.2 1.0 0.0 0.0 0.0 0.0