ITEM: TIMESTEP
2600
ITEM: NUMBER OF ATOMS
10500
ITEM: BOX BOUNDS xy xz yz pp pp pp
0	8.9688	2.9896
0	118.725	0
0	252.977	0
ITEM: ATOMS id type xu yu zu q pCrystal pDisloC pDisloB pDisloA
1 1 -3.42622 7.09152 57.4069 1.2 1.3576095274431748e-09 0.27784523081346624 8.363628883103376e-55 0.7221547678289215
2 1 -1.84473 7.12245 49.8758 1.2 0.0 2.6519421584911745e-162 0.0 1.0
3 2 -0.364877 3.92813 47.6797 2.4 6.406302506017756e-211 0.0 0.0 1.0
4 3 -0.440476 5.42424 47.1479 -1.2 0.0 0.0 0.0 1.0
5 3 -2.08405 3.39027 51.6022 -1.2 1.2357e-320 0.0 0.0 1.0000000000000844
6 3 -1.73148 3.54634 48.5096 -1.2 0.0 0.0 0.0 1.0
7 1 1.78659 2.39298 46.8151 1.2 0.0 7.425858926723162e-235 0.0 1.0
8 3 1.04963 3.65914 48.4328 -1.2 0.0 0.0 0.0 1.0
9 1 0.987368 2.52804 54.3558 1.2 4.810994664087574e-130 3.8644855512400654e-42 0.0 1.0
10 2 0.825884 5.14751 56.1881 2.4 0.016632293054039925 3.0910970079751336e-68 4.3906005381789586e-100 0.9833677069459587
11 3 0.783953 3.54019 56.2419 -1.2 1.2780538339654546e-20 7.958104119869494e-58 1.9790215255188073e-106 0.9999999999999973
12 3 1.04525 6.08023 52.4696 -1.2 6.053870109213551e-210 0.0 0.0 0.9999999999999255
13 3 -0.432308 5.92731 55.5387 -1.2 5.223014994904348e-37 4.9425720774350915e-99 1.318157926420517e-155 0.9999999999999973
14 3 2.14605 5.75679 55.6201 -1.2 2.484965241207423e-35 4.916788076136215e-96 2.5609944543707853e-155 0.9999999999999967
15 1 -0.524417 4.66114 52.0451 1.2 0.0 1.849251957806844e-110 0.0 1.0
16 1 2.6026 3.93598 49.5299 1.2 0.0 3.7865756950968353e-181 0.0 1.0
17 2 1.10909 6.53322 50.8915 2.4 1.597687383524397e-156 0.0 0.0 1.0
18 3 1.24721 8.20052 50.7732 -1.2 0.0 0.0 0.0 1.0
19 3 0.788382 5.60783 57.8095 -1.2 0.0036107013327455802 1.455477847848033e-13 7.051572365523578e-46 0.9963892986671129
20 3 -0.232516 6.07137 50.3882 -1.2 0.0 0.0 0.0 1.0
21 1 -3.48156 4.68303 52.222 1.2 0.0 7.281640690703007e-110 0.0 1.0
22 3 2.45205 5.87771 50.3034 -1.2 0.0 0.0 0.0 1.0
23 1 -2.14205 4.86054 54.9257 1.2 6.645096944381837e-71 1.309462561540269e-22 6.376229997556966e-239 1.0
24 2 -1.87294 2.74025 53.112 2.4 9.055457587655513e-80 0.0 0.0 1.0
25 3 -1.86129 1.0989 52.9248 -1.2 4.498459367056201e-195 0.0 0.0 0.9999999999999286
26 3 -0.13199 2.86886 46.5446 -1.2 0.0 0.0 0.0 1.0
27 3 -3.09043 3.35671 53.8871 -1.2 1.5993403597963305e-137 0.0 0.0 0.9999999999999681
28 3 -0.569787 3.43875 53.5398 -1.2 1.195341942659365e-147 0.0 0.0 1.0000000000000044
29 1 -3.52257 11.8328 57.4351 1.2 1.691413731732412e-10 0.02886673347974469 1.7250750152924272e-53 0.9711332663511116
30 1 -1.76203 11.5492 49.0969 1.2 0.0 3.7377741377648677e-159 0.0 1.0
31 2 -0.973446 8.99888 47.3822 2.4 1.3893228224604584e-139 0.0 0.0 1.0
32 3 -0.939792 10.6255 47.2008 -1.2 0.0 0.0 0.0 1.0
33 3 -1.79804 8.11033 51.5602 -1.2 0.0 0.0 0.0 1.0000000000000004
34 3 -2.0969 8.65185 48.4873 -1.2 0.0 0.0 0.0 1.0
35 1 0.470517 7.02 46.6599 1.2 0.0 1.2682750386822078e-205 0.0 1.0
36 3 0.441866 8.48854 47.9565 -1.2 0.0 0.0 0.0 1.0
37 1 1.22613 7.17342 54.4345 1.2 1.4580688612387185e-119 9.218881760815819e-38 0.0 1.0
38 2 0.885315 9.81932 56.1094 2.4 4.4392149099753365e-09 4.24816247288581e-84 1.1286448295696175e-115 0.9999999955607848
39 3 0.94027 8.24826 56.3727 -1.2 1.2596555661208014e-18 5.343878948367573e-49 9.105394428135632e-88 0.9999999999999993
40 3 1.24611 10.8935 52.2892 -1.2 1.17854399845485e-242 0.0 0.0 0.9999999999999529
41 3 -0.492064 10.4334 55.6906 -1.2 2.656656835748247e-35 2.0117352366290802e-91 3.3474021539274103e-146 1.000000000000009
42 3 2.08941 10.3359 55.2773 -1.2 2.7629647792912895e-46 4.262520777299351e-118 3.265230527532053e-183 1.0000000000000027
43 1 -0.492628 9.51151 51.6842 1.2 0.0 1.3241034515740302e-113 0.0 1.0
44 1 1.9848 9.12778 48.9852 1.2 0.0 2.3699254413711992e-183 0.0 1.0
45 2 1.15232 11.5733 50.703 2.4 4.5628254560531854e-151 0.0 0.0 1.0
46 3 1.47181 13.0749 50.8789 -1.2 0.0 0.0 0.0 1.0
47 3 1.00376 10.3894 57.6796 -1.2 4.148207717190036e-07 5.198321128783341e-19 4.909203154254608e-48 0.9999995851792258
48 3 -0.263109 10.9336 50.2563 -1.2 0.0 0.0 0.0 1.0
49 1 -3.47402 9.40443 52.1685 1.2 0.0 5.58724363578102e-115 0.0 1.0
50 3 2.39443 10.924 49.8305 -1.2 0.0 0.0 0.0 1.0
51 1 -1.99973 9.42648 54.8798 1.2 4.3421173230574444e-82 1.1466355589155426e-27 1.988997658864226e-265 1.0
52 2 -1.84246 7.37671 53.036 2.4 1.0811541078637347e-76 0.0 0.0 1.0
53 3 -2.00555 5.80533 52.8889 -1.2 1.5223046104501447e-201 0.0 0.0 0.9999999999999758
54 3 -1.08478 8.234 45.9701 -1.2 0.0 0.0 0.0 1.0
55 3 -3.10748 8.06608 53.6714 -1.2 3.626492778546233e-154 0.0 0.0 0.9999999999999449
56 3 -0.576718 8.10812 53.5934 -1.2 6.434628659478508e-126 0.0 0.0 1.0000000000000024
57 1 -3.18014 16.6403 57.3499 1.2 8.506927733462705e-14 0.00032156867122326154 5.1642132687058376e-58 0.9996784313286927
58 1 -1.45308 16.4116 49.5858 1.2 0.0 1.7146975292595276e-147 0.0 1.0
59 2 -0.698816 13.9717 47.5622 2.4 4.292484864267553e-126 0.0 0.0 1.0
60 3 -0.627743 15.4526 47.7218 -1.2 0.0 0.0 0.0 1.0
61 3 -1.53634 12.9194 51.705 -1.2 5.8094742e-316 0.0 0.0 1.0000000000000102
62 3 -1.95407 13.3796 48.396 -1.2 0.0 0.0 0.0 1.0
63 1 0.0427804 11.9303 46.2104 1.2 0.0 1.484957506645422e-211 0.0 1.0
64 3 0.74626 13.1272 47.8881 -1.2 0.0 0.0 0.0 1.0
65 1 1.42087 11.8704 54.1508 1.2 3.0426812023411913e-143 5.05501722928442e-42 0.0 1.0
66 2 1.1476 14.4951 56.3131 2.4 6.38373909282218e-05 2.0081270826868824e-65 4.512800243640772e-95 0.9999361626090731
67 3 0.976005 12.9829 56.415 -1.2 1.4408869210193636e-18 3.34991289569732e-46 7.712055558952026e-85 1.0000000000000004
68 3 1.62168 15.6152 52.3661 -1.2 1.360604368224153e-268 0.0 0.0 1.0000000000000235
69 3 -0.131165 15.2917 55.656 -1.2 5.063107035097117e-47 4.945195161592386e-113 2.0117276337108048e-175 0.9999999999999984
70 3 2.38505 15.1426 55.6434 -1.2 1.804914346575017e-36 4.2188748047416854e-91 4.156525458780054e-150 1.0000000000000042
71 1 -0.042285 14.282 52.036 1.2 0.0 3.1005867071834564e-92 0.0 1.0
72 1 2.24039 13.8682 49.0214 1.2 0.0 1.9033922988988644e-177 0.0 1.0
73 2 1.48467 16.1979 50.9407 2.4 1.6041848579549594e-170 0.0 0.0 1.0
74 3 1.47786 17.7847 50.8995 -1.2 0.0 0.0 0.0 1.0
75 3 1.14728 15.2915 57.7798 -1.2 8.592334808102616e-07 1.598710869300734e-17 5.855212136359138e-44 0.9999991407665246
76 3 0.134352 15.5377 50.3918 -1.2 0.0 0.0 0.0 1.0
77 1 -2.9827 14.2505 51.7868 1.2 0.0 9.895502730600375e-121 0.0 1.0
78 3 2.57108 15.6092 50 -1.2 0.0 0.0 0.0 1.0
79 1 -1.85368 14.1165 55.0455 1.2 4.2687832686313555e-78 3.201428240155795e-22 1.906199515702904e-263 0.999999999999982
80 2 -1.59309 12.2333 53.0454 2.4 1.295660068644936e-77 0.0 0.0 1.0
81 3 -1.74672 10.6474 52.8223 -1.2 2.691632928043731e-218 0.0 0.0 0.9999999999999947
82 3 -0.715295 13.6605 46.0157 -1.2 0.0 0.0 0.0 1.0
83 3 -2.88469 12.9342 53.6928 -1.2 4.883344765294798e-135 0.0 0.0 0.9999999999999905
84 3 -0.380187 12.7189 53.8935 -1.2 4.8266943768856214e-126 0.0 0.0 0.9999999999999832
85 1 -2.9452 21.4619 57.2372 1.2 1.4869394245643384e-14 8.736252113394446e-05 3.084781220691911e-61 0.9999126374788526
86 1 -1.52524 21.5657 49.9096 1.2 0.0 3.25628344974705e-210 0.0 1.0
87 2 -0.834935 18.7942 47.7954 2.4 2.6919306773412885e-209 0.0 0.0 1.0
88 3 -1.02143 20.3471 47.7239 -1.2 0.0 0.0 0.0 1.0
89 3 -1.51909 17.4474 51.6836 -1.2 1.18197988812914e-310 0.0 0.0 1.0000000000002234
90 3 -1.82717 18.0632 48.8365 -1.2 0.0 0.0 0.0 1.0
91 1 0.2275 16.7425 46.596 1.2 0.0 1.8339101152421887e-212 0.0 1.0
92 3 0.810239 18.2639 47.868 -1.2 0.0 0.0 0.0 1.0
93 1 1.56575 16.5256 54.4454 1.2 7.568145788902676e-135 2.7988990996209e-41 0.0 1.0
94 2 1.4198 19.3457 56.2408 2.4 0.0024302269715251335 9.099104736267002e-68 1.4047666922561191e-101 0.9975697730284802
95 3 1.35923 17.6942 56.2905 -1.2 9.053632675060302e-23 9.833928755972424e-55 2.1072544111454184e-103 0.9999999999999967
96 3 1.53191 20.197 52.5266 -1.2 3.085013425066174e-261 0.0 0.0 1.0000000000000144
97 3 0.189894 20.0488 55.6647 -1.2 5.81567994332111e-35 4.69573660372354e-84 2.3292415882272773e-148 0.9999999999999878
98 3 2.76774 19.9576 55.6453 -1.2 1.2839963410836337e-36 4.981750624293959e-87 1.848119211205291e-147 1.0000000000000024
99 1 -0.0229154 19.0215 51.8238 1.2 0.0 8.462203549240254e-120 0.0 1.0
100 1 2.2699 18.658 49.1189 1.2 0.0 3.058560953053285e-201 0.0 1.0
101 2 1.56487 20.9873 51.0143 2.4 4.5263173231272327e-213 0.0 0.0 1.0
102 3 1.78078 22.635 51.1567 -1.2 0.0 0.0 0.0 0.9999999999999628
103 3 1.44273 20.0826 57.7954 -1.2 3.113022821858349e-05 6.036924890396271e-14 1.1590982814725726e-41 0.9999688697717143
104 3 0.312634 20.4947 50.3224 -1.2 0.0 0.0 0.0 0.9999999999999191
105 1 -3.07126 18.8601 52.1491 1.2 0.0 2.448488396195161e-123 0.0 1.0
106 3 2.851 20.347 50.3268 -1.2 0.0 0.0 0.0 0.9999999999999383
107 1 -1.60731 19.0094 55.0212 1.2 1.1062984426393229e-66 3.1126278878722604e-17 2.3116720370608708e-225 1.0000000000000002
108 2 -1.38261 16.8418 53.1278 2.4 4.70565929297709e-85 0.0 0.0 1.0
109 3 -1.39218 15.3291 52.9765 -1.2 1.0432273769889981e-200 0.0 0.0 0.9999999999999953
110 3 -1.12801 18.1776 46.3916 -1.2 0.0 0.0 0.0 1.0
111 3 -2.66564 17.5423 53.8264 -1.2 1.353956480345762e-156 0.0 0.0 1.0000000000000098
112 3 -0.107444 17.5775 53.7502 -1.2 6.0110872860059295e-130 0.0 0.0 1.0000000000000513
113 1 -2.40857 26.1839 57.1903 1.2 2.5468263540511978e-11 0.005001800749559234 1.2545919564347532e-50 0.9949981992249735
114 1 -0.967005 26.0615 49.8581 1.2 0.0 6.643982464563594e-239 0.0 1.0
115 2 -1.11214 23.6516 47.9056 2.4 3.675045164424631e-292 0.0 0.0 1.0
116 3 -0.837367 25.1691 48.0635 -1.2 0.0 0.0 0.0 1.0
117 3 -1.24618 22.3093 51.7011 -1.2 0.0 0.0 0.0 0.9999999999998621
118 3 -2.26373 22.9613 48.6866 -1.2 0.0 0.0 0.0 0.9999999999999852
119 1 -0.131517 21.833 46.5358 1.2 0.0 1.558709327755e-311 0.0 1.0
120 3 0.326611 23.0116 48.1163 -1.2 0.0 0.0 0.0 0.9999999999998006
121 1 1.73229 21.393 54.4878 1.2 4.994630159572654e-130 2.7177498206923633e-42 0.0 1.0
122 2 1.70749 24.136 56.3915 2.4 0.9742453192098055 7.663468906121563e-53 1.119965821985751e-82 0.025754680790197437
123 3 1.54063 22.6542 56.4375 -1.2 2.233093689952252e-16 1.3950730776369124e-37 1.8961257801411302e-80 1.0
124 3 1.97147 25.0928 52.7138 -1.2 2.8896510249280767e-277 0.0 0.0 1.0
125 3 0.489914 24.9277 55.7312 -1.2 1.5296552929392838e-48 5.1571976070937204e-113 1.7482424160013623e-177 0.9999999999999957
126 3 3.01349 24.7143 55.6574 -1.2 1.5560752122491044e-37 8.915414937030626e-88 2.800896291088383e-148 0.9999999999999876
127 1 0.347723 23.6582 52.1436 1.2 0.0 2.7785508371785006e-125 0.0 1.0
128 1 1.99006 23.8687 49.2727 1.2 0.0 1.5487432089486347e-264 0.0 1.0
129 2 1.86788 25.8044 51.2527 2.4 1.869906249601589e-211 0.0 0.0 1.0
130 3 1.78043 27.3545 51.2724 -1.2 0.0 0.0 0.0 1.0
131 3 1.84282 24.7634 57.9175 -1.2 0.0031068720065529007 1.53727911756236e-10 7.32048422471796e-37 0.9968931278397217
132 3 0.556884 24.9323 50.573 -1.2 0.0 0.0 0.0 1.0
133 1 -2.70779 23.6681 52.3841 1.2 0.0 3.1625035372726744e-130 0.0 1.0
134 3 2.92628 25.2736 50.2975 -1.2 0.0 0.0 0.0 1.0
135 1 -1.0703 23.8131 55.0582 1.2 6.678407342691845e-68 1.6685623359240057e-17 4.29976958718927e-221 0.9999999999999981
136 2 -1.17748 21.5724 53.2603 2.4 2.523758542950578e-83 0.0 0.0 1.0
137 3 -1.41653 20.0968 53.1102 -1.2 9.223594446094739e-197 0.0 0.0 0.9999999999999976
138 3 -1.23646 23.4975 46.2804 -1.2 0.0 0.0 0.0 1.0000000000004259
139 3 -2.48961 22.3278 53.9408 -1.2 3.24874798169309e-140 0.0 0.0 0.9999999999999635
140 3 0.135372 22.2365 53.8118 -1.2 9.126674137961721e-135 0.0 0.0 1.0000000000000253
141 1 -2.57201 30.8664 57.5576 1.2 3.396174235183289e-07 0.29848856707403537 7.156813235500883e-44 0.7015110933085398
142 1 -1.22222 30.6099 49.6191 1.2 0.0 3.3659203260405714e-235 0.0 1.0
143 2 -1.14673 28.2253 47.7378 2.4 0.0 0.0 0.0 1.0
144 3 -0.919285 29.8436 47.5886 -1.2 0.0 0.0 0.0 1.0
145 3 -1.22932 26.8794 51.7254 -1.2 0.0 0.0 0.0 1.0000000000000167
146 3 -2.53766 27.8919 48.3301 -1.2 0.0 0.0 0.0 1.0
147 1 -0.968227 25.6875 46.0933 1.2 0.0 0.0 0.0 1.0
148 3 0.0965368 27.7918 48.8386 -1.2 0.0 0.0 0.0 1.0
149 1 1.9275 26.1851 54.4796 1.2 2.8862265854366226e-125 4.52803976229738e-40 0.0 1.0
150 2 1.85606 28.849 56.3577 2.4 0.8367695120130048 4.450489616600035e-59 5.259554451442342e-89 0.1632304879869982
151 3 1.99212 27.2843 56.3429 -1.2 3.2773874452363066e-23 5.578470449164812e-52 1.1814114305113647e-97 0.9999999999999983
152 3 1.90401 29.7911 52.7561 -1.2 1.9006814177652354e-234 0.0 0.0 1.0
153 3 0.70761 29.5714 55.7279 -1.2 7.364164046227417e-36 1.2953604928193588e-77 3.5172495050996713e-130 0.9999999999999933
154 3 3.20143 29.5312 55.7083 -1.2 1.9087669701099664e-41 1.3620346748271838e-96 5.0765197144620034e-151 1.0000000000000013
155 1 0.368068 28.4387 52.198 1.2 0.0 5.708503657898182e-126 0.0 1.0
156 1 1.85249 28.3957 49.4826 1.2 0.0 2.2709496653243978e-264 0.0 1.0
157 2 1.88391 30.4602 51.3234 2.4 1.3831852161953442e-205 0.0 0.0 1.0
158 3 1.96821 31.9832 51.347 -1.2 0.0 0.0 0.0 1.0
159 3 1.96015 29.4807 57.889 -1.2 0.012164248260531786 1.0377384100229788e-09 2.424750719801339e-36 0.9878357507017368
160 3 0.608397 29.9214 50.6866 -1.2 0.0 0.0 0.0 1.0
161 1 -2.67255 28.398 52.4886 1.2 0.0 2.9420507255546274e-124 0.0 1.0
162 3 3.13835 29.7881 50.5211 -1.2 0.0 0.0 0.0 1.0
163 1 -1.08508 28.5106 55.0929 1.2 1.431294810401066e-76 2.386419539686846e-21 8.514138217100984e-238 1.0
164 2 -1.11789 26.3257 53.2453 2.4 3.6630131350783666e-85 0.0 0.0 1.0
165 3 -1.04195 24.7556 53.2215 -1.2 3.4425682861972495e-185 0.0 0.0 1.0000000000000429
166 3 -1.029 27.5329 46.3816 -1.2 0.0 0.0 0.0 1.0
167 3 -2.32611 27.0667 54.0063 -1.2 1.1107976346222052e-122 5.871045013240333e-291 0.0 0.9999999999999636
168 3 0.149605 27.0816 53.7877 -1.2 5.743574036175394e-153 0.0 0.0 0.999999999999985
169 1 -2.76284 35.6116 57.1601 1.2 3.8732883268241847e-11 0.9883920490764745 3.945802689552556e-70 0.011607950884795366
170 1 -1.19027 35.5899 49.7258 1.2 0.0 9.613805784982954e-227 0.0 1.0
171 2 -0.910607 33.0727 47.8277 2.4 0.0 0.0 0.0 1.0
172 3 -1.03037 34.6496 47.8436 -1.2 0.0 0.0 0.0 1.0
173 3 -1.03287 31.7614 51.6487 -1.2 0.0 0.0 0.0 1.0
174 3 -1.9752 32.3117 48.5377 -1.2 0.0 0.0 0.0 1.0
175 1 0.31546 31.1185 46.6373 1.2 0.0 0.0 0.0 1.0
176 3 0.622164 32.3673 48.2092 -1.2 0.0 0.0 0.0 1.0
177 1 1.9776 30.8622 54.3633 1.2 3.1837175067145575e-133 1.7405741494974157e-37 0.0 1.0
178 2 1.87106 33.5407 56.2451 2.4 0.999999990354226 1.6606875504501265e-66 7.161534470099934e-107 9.64577162814089e-09
179 3 1.86077 31.9799 56.2992 -1.2 8.102495871180225e-21 9.118010056702113e-50 2.367750648690577e-105 1.0
180 3 1.90967 34.646 52.496 -1.2 4.78117286971251e-282 0.0 0.0 1.0
181 3 0.584538 34.1439 55.5891 -1.2 1.6450965999328763e-38 4.1897333594503755e-94 3.7995975224094614e-166 1.0000000000000098
182 3 3.13922 34.2514 55.5458 -1.2 4.940559069775695e-35 1.7046426464450668e-87 1.665072382783978e-159 0.9999999999999872
183 1 0.469985 33.07 52.2225 1.2 0.0 1.2385234097909964e-112 0.0 1.0
184 1 2.12613 32.8992 49.3176 1.2 0.0 8.5105500989342e-256 0.0 1.0
185 2 1.88124 35.1096 51.0122 2.4 1.8849629751595333e-221 0.0 0.0 1.0
186 3 1.85647 36.6545 50.8514 -1.2 0.0 0.0 0.0 1.0
187 3 1.82024 34.2061 57.7522 -1.2 0.2024731419226731 1.0392926299475165e-11 8.154357365642953e-48 0.7975268580669329
188 3 0.650104 34.4387 50.3298 -1.2 0.0 0.0 0.0 1.0
189 1 -2.52965 33.2146 52.0989 1.2 0.0 9.188017371727932e-134 0.0 1.0
190 3 3.12752 34.3692 50.4437 -1.2 0.0 0.0 0.0 1.0
191 1 -1.08643 33.4206 54.9554 1.2 1.911064117868299e-60 0.0017706771228349367 2.953168748286051e-223 0.9982293228771637
192 2 -1.06416 31.1694 53.1627 2.4 1.5698024811633542e-82 0.0 0.0 1.0
193 3 -1.23191 29.6863 53.1912 -1.2 5.77275126335982e-177 0.0 0.0 1.0
194 3 -0.778623 32.8968 46.1709 -1.2 0.0 0.0 0.0 1.0
195 3 -2.23955 31.9998 53.8356 -1.2 2.455416346657058e-130 1.016171521e-314 0.0 1.0000000000000229
196 3 0.24493 31.8042 53.8545 -1.2 1.5962156561521079e-127 6.623426044346e-312 0.0 0.9999999999999843
197 1 -2.76864 40.3392 57.0471 1.2 1.1366003263573162e-09 0.05681964506268745 7.663151750740352e-57 0.9431803538007149
198 1 -1.13438 39.9642 49.1882 1.2 0.0 6.449698449759728e-197 0.0 1.0
199 2 -1.08441 37.5086 47.5318 2.4 2.030337585549435e-288 0.0 0.0 1.0
200 3 -1.37201 39.077 47.3981 -1.2 0.0 0.0 0.0 1.0
201 3 -1.05518 36.5727 51.3664 -1.2 0.0 0.0 0.0 1.0
202 3 -2.17042 36.9222 48.526 -1.2 0.0 0.0 0.0 1.0
203 1 -1.00923 34.9501 45.8347 1.2 0.0 0.0 0.0 1.0
204 3 0.332616 37.4866 48.2229 -1.2 0.0 0.0 0.0 1.0
205 1 1.78847 35.5281 54.3087 1.2 2.393487782539367e-118 7.4464879309018e-24 0.0 1.0
206 2 1.7292 38.3628 56.1654 2.4 0.9999999188899016 2.8396516128419804e-69 2.745750016924615e-110 8.111010306902446e-08
207 3 1.65871 36.729 56.2602 -1.2 5.990678971390902e-16 3.763946822493595e-44 5.281338028860119e-99 1.0
208 3 1.88859 39.3645 52.3434 -1.2 3.8882526874264866e-241 0.0 0.0 1.0
209 3 0.510913 39.0227 55.4007 -1.2 1.2259941654958866e-43 4.810183104924555e-106 3.2980873883910064e-177 1.0000000000000089
210 3 3.06954 38.8944 55.4645 -1.2 3.721796867383516e-32 3.80866866675142e-80 7.874183354270887e-146 1.000000000000008
211 1 0.382153 38.0892 51.7769 1.2 0.0 1.510713644548273e-107 0.0 1.0
212 1 1.96729 37.6881 49.1311 1.2 0.0 9.894496359297524e-226 0.0 1.0
213 2 1.95894 40.0211 50.9204 2.4 5.443164188431242e-189 0.0 0.0 1.0
214 3 1.97109 41.5619 50.6326 -1.2 0.0 0.0 0.0 0.9999999999997764
215 3 1.69851 39.1002 57.6416 -1.2 0.002414751789422158 9.067873946565575e-16 4.771953025417392e-50 0.9975852482105794
216 3 0.684288 39.3309 50.2631 -1.2 0.0 0.0 0.0 1.0
217 1 -2.61105 37.9411 51.8867 1.2 0.0 1.799947325807035e-119 0.0 1.0
218 3 3.29476 39.291 50.3252 -1.2 0.0 0.0 0.0 1.0
219 1 -1.14372 38.0291 54.6773 1.2 1.3349394126802032e-77 8.662663348113775e-12 2.4178732439541893e-267 0.9999999999913449
220 2 -0.977629 35.8894 52.9394 2.4 1.5548836374985276e-84 0.0 0.0 1.0
221 3 -0.996484 34.379 52.9996 -1.2 4.139996812116418e-208 0.0 0.0 1.0
222 3 -1.04383 36.8855 45.9712 -1.2 0.0 0.0 0.0 1.0
223 3 -2.24819 36.6053 53.6416 -1.2 1.8406312244997556e-138 0.0 0.0 1.000000000000003
224 3 0.158744 36.6895 53.6365 -1.2 1.0960271699102423e-124 9.55504295415e-311 0.0 1.0000000000000058
225 1 -2.6734 44.9865 57.2136 1.2 1.3293657513418158e-09 0.005803533125319918 4.19531658381032e-52 0.9941964655453094
226 1 -0.901031 44.9011 49.2768 1.2 0.0 8.0314079979318895e-171 0.0 1.0
227 2 -1.39431 42.3213 47.3598 2.4 3.331133181578952e-194 0.0 0.0 1.0
228 3 -0.99863 43.9243 47.3543 -1.2 0.0 0.0 0.0 0.9999999999997414
229 3 -0.922653 41.3269 51.3152 -1.2 4.37985919295766e-309 0.0 0.0 1.0000000000000249
230 3 -2.80234 41.9583 47.8735 -1.2 0.0 0.0 0.0 1.0000000000001406
231 1 -0.227616 40.2077 46.2167 1.2 0.0 1.2660134252194624e-284 0.0 1.0
232 3 -0.220265 41.4754 48.0571 -1.2 0.0 0.0 0.0 1.0000000000000004
233 1 1.88018 40.4017 54.2825 1.2 8.604361532584437e-123 7.876564978390883e-35 0.0 1.0
234 2 1.92143 43.0954 55.9992 2.4 0.9592478070851083 1.3376840616891571e-61 2.0615641123974697e-92 0.040752192914897734
235 3 1.93882 41.5808 56.0441 -1.2 5.0714111768674315e-22 9.264362689132352e-54 1.0377770460761897e-97 1.0000000000000036
236 3 2.02769 44.1217 52.1121 -1.2 1.0897278396427032e-258 0.0 0.0 0.9999999999999826
237 3 0.639111 43.7458 55.2812 -1.2 1.2436619099786878e-33 1.5160829332597933e-84 6.29996742037963e-139 1.0000000000000018
238 3 3.11045 43.7945 55.4009 -1.2 3.300207665367379e-38 2.5100076546754664e-100 2.0203049641590052e-160 1.000000000000012
239 1 0.509249 42.7282 51.8705 1.2 0.0 2.727935447769432e-102 0.0 1.0
240 1 1.47679 42.3622 48.9112 1.2 0.0 2.6528324450594934e-189 0.0 1.0
241 2 2.1123 44.7737 50.6099 2.4 7.286527572237474e-159 0.0 0.0 1.0
242 3 2.19792 46.376 50.6154 -1.2 0.0 0.0 0.0 1.0
243 3 1.89155 43.6304 57.6056 -1.2 4.169508439192435e-06 8.376881915850814e-20 2.5337884687553885e-48 0.9999958304915662
244 3 0.843241 44.0588 49.9212 -1.2 0.0 0.0 0.0 1.000000000000054
245 1 -2.40965 42.6958 51.6394 1.2 0.0 2.5363830344181713e-119 0.0 1.0
246 3 3.4008 44.1078 50.1231 -1.2 0.0 0.0 0.0 1.0000000000000746
247 1 -1.13333 42.9075 54.7228 1.2 6.68319802414313e-64 4.290830963186672e-15 2.497962996930592e-219 0.9999999999999863
248 2 -0.980303 40.7125 52.8215 2.4 4.490353860272379e-87 0.0 0.0 1.0
249 3 -1.05981 39.1945 52.8438 -1.2 1.152417718907648e-185 0.0 0.0 1.0
250 3 -1.12124 42.0149 45.7265 -1.2 0.0 0.0 0.0 1.0000000000003866
251 3 -2.38632 41.4585 53.2888 -1.2 1.881179559612327e-150 0.0 0.0 1.000000000000043
252 3 0.317269 41.4047 53.5635 -1.2 3.2227511815076696e-137 0.0 0.0 1.0000000000000024
253 1 -2.64015 49.8422 57.1799 1.2 3.9995898478840357e-13 0.0001279520085277436 1.3603947949921235e-61 0.9998720479910718
254 1 -0.729933 49.5223 49.0184 1.2 0.0 1.0169252616254427e-185 0.0 1.0
255 2 -0.178642 46.9921 47.1415 2.4 9.52317644713071e-156 0.0 0.0 1.0
256 3 -0.311657 48.6361 47.1153 -1.2 0.0 0.0 0.0 1.0
257 3 -0.701168 46.1421 51.2478 -1.2 8.442064900790932e-300 0.0 0.0 0.9999999999997835
258 3 -1.42171 46.5791 48.0684 -1.2 0.0 0.0 0.0 1.0
259 1 -0.423477 44.5614 45.5148 1.2 0.0 1.0639752750908137e-222 0.0 1.0
260 3 1.20223 46.4923 47.7429 -1.2 0.0 0.0 0.0 1.0
261 1 1.96025 45.1614 54.0217 1.2 1.8413524821356384e-128 4.1300678703971596e-38 0.0 1.0
262 2 1.84322 47.7272 56.0101 2.4 5.85827274572387e-06 4.39252939928523e-84 2.8329944897826644e-118 0.9999941417272497
263 3 1.88208 46.1174 56.0903 -1.2 2.045465665185646e-21 8.436962431646578e-55 7.898919254103402e-100 0.9999999999999991
264 3 2.31886 48.825 52.016 -1.2 1.3023544679823433e-238 0.0 0.0 0.9999999999999636
265 3 0.49145 48.3399 55.5096 -1.2 2.6431779388942403e-36 6.555860464915568e-97 4.978575514111801e-161 0.9999999999999897
266 3 3.04528 48.2823 55.2077 -1.2 2.82336681908947e-47 1.089907375866175e-121 1.124095904141224e-191 1.0000000000000115
267 1 0.747909 47.5983 51.5305 1.2 0.0 6.1142433528762224e-99 0.0 1.0
268 1 2.72316 47.1419 48.5519 1.2 0.0 2.1975484135145395e-183 0.0 1.0
269 2 2.23345 49.5275 50.5821 2.4 9.736914971866976e-149 0.0 0.0 1.0
270 3 2.52426 51.0962 50.9855 -1.2 0.0 0.0 0.0 1.0000000000001006
271 3 1.90158 48.4536 57.5297 -1.2 8.29953443746409e-08 6.9582106137064235e-22 6.467214473079193e-52 0.9999999170046517
272 3 0.866162 48.921 49.9187 -1.2 0.0 0.0 0.0 0.9999999999998422
273 1 -2.26518 47.3868 51.7262 1.2 0.0 9.68786657471137e-115 0.0 1.0
274 3 3.37988 49.0163 49.5968 -1.2 0.0 0.0 0.0 0.9999999999999755
275 1 -0.952675 47.3751 54.693 1.2 9.928826031876065e-77 3.133600504834296e-20 7.149445257601504e-265 0.9999999999999881
276 2 -0.909577 45.3924 52.6721 2.4 1.2804059275635862e-78 0.0 0.0 1.0
277 3 -0.960074 43.7803 52.587 -1.2 2.955297335282662e-209 0.0 0.0 1.0000000000001066
278 3 -0.400877 46.5446 45.575 -1.2 0.0 0.0 0.0 1.0
279 3 -2.34602 46.0385 53.2609 -1.2 2.164911484836567e-147 0.0 0.0 0.9999999999999921
280 3 0.192107 46.0992 53.5781 -1.2 6.635134690466691e-119 1.5199e-319 0.0 1.0000000000000497
281 1 -2.35442 54.4832 57.0643 1.2 9.089959162081124e-18 6.409171428783115e-05 6.82598927773918e-76 0.9999359082857133
282 1 -0.569131 54.2641 49.3399 1.2 0.0 1.062527141421167e-201 0.0 1.0
283 2 0.390527 52.0673 47.5364 2.4 4.0753982365165626e-179 0.0 0.0 1.0
284 3 0.35338 53.6714 47.5498 -1.2 0.0 0.0 0.0 1.0000000000000044
285 3 -0.492525 50.8206 51.3806 -1.2 1.7195955790086298e-300 0.0 0.0 0.9999999999998891
286 3 -0.894953 51.4105 48.3305 -1.2 0.0 0.0 0.0 1.0000000000001117
287 1 0.102146 49.7933 45.6626 1.2 0.0 6.186e-320 0.0 1.0
288 3 1.75623 51.4309 48.0454 -1.2 0.0 0.0 0.0 1.0000000000003522
289 1 2.3604 49.9021 54.1318 1.2 5.608406574102797e-125 1.1716080634388892e-35 0.0 1.0
290 2 2.15113 52.523 56.1691 2.4 0.06285598477682093 1.4115442947056782e-67 2.0153070004187033e-93 0.9371440152231747
291 3 2.07689 50.8683 56.2041 -1.2 4.490151878057044e-21 3.0122358153221274e-54 8.696369459101799e-94 1.0000000000000016
292 3 2.46131 53.6187 52.2866 -1.2 4.4184213147774947e-228 0.0 0.0 1.0
293 3 0.785356 53.1369 55.5574 -1.2 9.680958672458147e-41 4.665703524984918e-104 1.6690929905367281e-171 0.9999999999999996
294 3 3.38327 53.1581 55.479 -1.2 1.4424007427858034e-37 5.008908387199483e-97 1.4367490356909793e-162 1.000000000000004
295 1 0.989537 52.0649 51.727 1.2 0.0 1.827458004501207e-107 0.0 1.0
296 1 3.36568 51.8045 49.1263 1.2 0.0 8.621251109850177e-203 0.0 1.0
297 2 2.42818 54.2426 50.7552 2.4 7.125444791415606e-178 0.0 0.0 1.0
298 3 2.53818 55.8382 50.8166 -1.2 0.0 0.0 0.0 1.0
299 3 2.17422 53.1138 57.6644 -1.2 8.588044993792098e-08 1.084424981777849e-19 5.912833680575484e-51 0.9999999141195454
300 3 1.11872 53.5519 50.1971 -1.2 0.0 0.0 0.0 0.9999999999999055
301 1 -1.97074 52.2 51.9019 1.2 0.0 1.6136657287821762e-122 0.0 1.0
302 3 3.67587 53.6612 50.0106 -1.2 0.0 0.0 0.0 1.0
303 1 -0.790961 51.9523 54.8179 1.2 2.9962431042085205e-70 1.3588420221204339e-14 1.176478077061483e-249 0.9999999999999825
304 2 -0.613401 50.0633 52.8254 2.4 1.8398799208898772e-61 0.0 0.0 1.0
305 3 -0.71787 48.5319 52.6505 -1.2 5.315300619509406e-185 0.0 0.0 1.0000000000000135
306 3 0.299987 51.5659 45.9683 -1.2 0.0 0.0 0.0 1.0
307 3 -1.86402 50.7696 53.5592 -1.2 5.618922018905575e-130 0.0 0.0 1.0000000000000049
308 3 0.653875 50.784 53.6443 -1.2 3.463577894767986e-113 2.0291327011885018e-307 0.0 1.00000000000005
309 1 -2.21569 59.2732 57.3698 1.2 5.644453494755885e-16 0.00042145981158946957 3.303207050480324e-68 0.9995785401884127
310 1 -0.432618 59.5401 49.555 1.2 0.0 3.396003822307765e-216 0.0 1.0
311 2 0.15019 56.8561 47.918 2.4 2.6548796563286723e-219 0.0 0.0 1.0
312 3 -0.0177353 58.4375 47.9044 -1.2 0.0 0.0 0.0 1.0
313 3 -0.471876 55.6493 51.4803 -1.2 2.3861e-319 0.0 0.0 1.0
314 3 -1.08032 56.1936 48.637 -1.2 0.0 0.0 0.0 1.0
315 1 1.32458 55.0449 46.603 1.2 0.0 1.2853625999625913e-300 0.0 1.0
316 3 1.58775 56.3201 48.096 -1.2 0.0 0.0 0.0 1.0
317 1 2.59568 54.6178 54.14 1.2 3.3698115607106706e-151 7.909045107403121e-46 0.0 1.0
318 2 2.21929 57.15 56.2729 2.4 2.7379454274572833e-05 1.7857198448657917e-73 4.101988732826987e-102 0.9999726205457321
319 3 2.19457 55.625 56.2512 -1.2 9.338142629323438e-21 1.704934589904876e-51 5.8761448015842865e-99 1.0000000000000004
320 3 2.63982 58.3942 52.5112 -1.2 2.1028304329518034e-273 0.0 0.0 1.0
321 3 1.00556 57.8385 55.5538 -1.2 1.4587741169216264e-60 3.334968831188509e-139 5.7018546247745666e-210 0.9999999999999919
322 3 3.54074 57.8828 55.5944 -1.2 1.4212355086420336e-44 4.303563552458919e-104 2.1784990179017117e-171 0.9999999999999923
323 1 1.03678 56.9673 51.8858 1.2 0.0 8.150646865984604e-132 0.0 1.0
324 1 3.15506 56.9215 49.0952 1.2 0.0 7.392603754328e-229 0.0 1.0
325 2 2.48741 58.9768 51.015 2.4 2.1501945511558442e-197 0.0 0.0 1.0
326 3 2.57262 60.5798 51.2938 -1.2 0.0 0.0 0.0 1.0
327 3 2.19085 57.7919 57.7498 -1.2 8.321591677464294e-09 2.170090967098818e-22 1.242519211899838e-52 0.9999999916784098
328 3 1.17569 58.3761 50.4826 -1.2 0.0 0.0 0.0 1.0
329 1 -1.93438 56.9824 51.9019 1.2 0.0 1.1435564046623918e-145 0.0 1.0
330 3 3.68903 58.4684 50.18 -1.2 0.0 0.0 0.0 1.000000000000001
331 1 -0.717248 56.9706 54.8985 1.2 1.9299338403983763e-86 3.4403725563306705e-24 4.493751977207796e-270 1.0
332 2 -0.377105 54.9047 52.9684 2.4 1.4368313277720787e-80 0.0 0.0 1.0
333 3 -0.522403 53.4094 52.7928 -1.2 2.452942727085824e-181 0.0 0.0 1.0
334 3 -0.025841 56.4447 46.2206 -1.2 0.0 0.0 0.0 1.0
335 3 -1.68871 55.5141 53.7204 -1.2 8.826511151204623e-155 0.0 0.0 1.0
336 3 0.884383 55.5384 53.6059 -1.2 1.6039163358577813e-140 0.0 0.0 1.0
337 1 -1.95413 63.8682 57.4845 1.2 2.961976384053957e-17 0.0011030974025395975 3.1824795030869943e-77 0.9988969025974586
338 1 -0.303976 63.7852 49.8845 1.2 0.0 8.183354810999733e-214 0.0 1.0
339 2 0.118895 61.4761 47.3846 2.4 4.779653289082961e-240 0.0 0.0 1.0
340 3 -0.0634232 62.9796 47.2923 -1.2 0.0 0.0 0.0 1.0
341 3 -0.458822 60.2917 51.5774 -1.2 0.0 0.0 0.0 1.0
342 3 -1.31869 60.9581 48.3325 -1.2 0.0 0.0 0.0 1.0000000000002847
343 1 -0.240484 58.7658 45.9375 1.2 0.0 4.556461336324981e-294 0.0 1.0
344 3 1.37836 61.0867 48.3089 -1.2 0.0 0.0 0.0 1.0000000000001317
345 1 2.57083 59.3635 54.4505 1.2 4.920345030341887e-149 8.596869499030041e-48 0.0 1.0
346 2 2.43444 61.8881 56.5428 2.4 1.5037656758434539e-09 5.196513274426091e-81 7.1454983100169655e-112 0.9999999984962358
347 3 2.33986 60.3422 56.5458 -1.2 2.521716536155379e-25 1.4504756764922457e-58 1.1539659911140532e-105 1.0000000000000029
348 3 2.76217 63.0216 52.7582 -1.2 6.943549273231519e-272 0.0 0.0 1.0
349 3 1.17074 62.5706 55.8574 -1.2 8.913763557759224e-58 7.201284915892096e-119 6.333412214924266e-178 1.0000000000000016
350 3 3.66457 62.5296 55.7605 -1.2 9.711763855759312e-52 5.668577232126606e-109 5.916447334287811e-171 1.0000000000000073
351 1 1.08689 61.6716 52.3012 1.2 0.0 1.5277171129576303e-119 0.0 1.0
352 1 3.06055 61.5199 49.2809 1.2 0.0 1.013779608373105e-224 0.0 1.0
353 2 2.64097 63.7113 51.2724 2.4 6.271654367685081e-221 0.0 0.0 1.0
354 3 2.61735 65.2943 51.2281 -1.2 0.0 0.0 0.0 1.0000000000000582
355 3 2.46367 62.3833 57.9672 -1.2 2.0300109238350218e-11 1.4436611654220467e-25 1.4261502970129122e-57 0.999999999979703
356 3 1.30891 63.0693 50.6119 -1.2 0.0 0.0 0.0 0.9999999999998188
357 1 -1.96945 61.5382 52.2551 1.2 0.0 4.164042414594412e-135 0.0 1.0
358 3 3.94646 63.0792 50.5449 -1.2 0.0 0.0 0.0 1.0000000000001197
359 1 -0.546841 61.5564 55.047 1.2 3.644924161033757e-103 2.0529747347428106e-36 9.86285191564247e-307 1.0
360 2 -0.471845 59.5512 53.1322 2.4 1.9591927295280127e-93 0.0 0.0 1.0
361 3 -0.500165 58.0587 53.0139 -1.2 2.2274632197727705e-206 0.0 0.0 1.0
362 3 0.159338 60.6385 46.0131 -1.2 0.0 0.0 0.0 1.0
363 3 -1.72538 60.2165 53.7849 -1.2 6.31821819831805e-146 0.0 0.0 1.0000000000000002
364 3 0.704079 60.3534 53.817 -1.2 2.0732888089196884e-144 0.0 0.0 1.0
365 1 -1.75103 68.8241 57.3663 1.2 7.518549727122945e-17 0.02314173884224122 7.027677262231869e-84 0.9768582611577595
366 1 -0.419228 68.7009 50.0275 1.2 0.0 3.1627105303719696e-234 0.0 1.0
367 2 -0.996354 66.3856 47.8581 2.4 1.101262497629752e-274 0.0 0.0 1.0
368 3 -0.584011 67.8519 48.175 -1.2 0.0 0.0 0.0 1.0
369 3 -0.256175 65.1245 51.849 -1.2 0.0 0.0 0.0 1.0000000000000002