ITEM: TIMESTEP
55200
ITEM: NUMBER OF ATOMS
10500
ITEM: BOX BOUNDS xy xz yz pp pp pp
0.0000000000000000e+00 8.9687999999999999e+00 2.9895999999999998e+00
0.0000000000000000e+00 1.1872499999999999e+02 0.0000000000000000e+00
0.0000000000000000e+00 2.5297749999999999e+02 0.0000000000000000e+00
ITEM: ATOMS id type element xu yu zu q c_pe c_s[1] c_s[2] c_s[3] c_s[4] c_s[5] c_s[6]
1 1 Mg -3.52497 7.14019 57.6261 1.2 -7.44813 -3.03265e+06 -4.22479e+06 3.47632e+06 -1.54385e+06 -2.70571e+06 619245
2 1 Mg -1.82655 6.90154 50.0912 1.2 -7.90599 -349543 1.21603e+06 1.01316e+06 -113151 -186318 1.7632e+06
3 2 Si -0.257935 3.96038 48.0876 2.4 -35.6476 9.35791e+06 8.8528e+06 1.07572e+07 804498 1.97188e+06 2.15463e+06
4 3 O -0.335812 5.46814 47.6264 -1.2 -8.00472 -2.73067e+06 -2.53724e+06 -2.46097e+06 141631 -972906 -844229
5 3 O -2.03793 3.43377 51.8941 -1.2 -8.91878 -3.17879e+06 -798011 -6.27585e+06 -903708 211278 -2.11008e+06
6 3 O -1.54015 3.53929 48.9521 -1.2 -8.50374 -968499 -1.63176e+06 -4.3342e+06 29087.5 -746321 -427356
7 1 Mg 1.82954 2.54582 47.1376 1.2 -7.79468 2.28996e+06 -444812 694152 1.14758e+06 830175 788707
8 3 O 1.22989 3.66364 48.7877 -1.2 -8.22353 -1.32642e+06 -2.40264e+06 -3.6566e+06 -480252 -708042 -1.16202e+06
9 1 Mg 1.00032 2.42292 54.693 1.2 -7.95035 1.51993e+06 -379775 1.99184e+06 -380443 1.24453e+06 981779
10 2 Si 1.1542 4.98876 56.393 2.4 -31.9111 3.95106e+06 4e+06 1.20593e+07 -1.23763e+06 -231465 2.59238e+06
11 3 O 0.967265 3.48947 56.5566 -1.2 -10.4832 -3.32606e+06 -2.87138e+06 -5.38641e+06 1.19503e+06 47393.6 -167958
12 3 O 1.10813 6.07342 52.8172 -1.2 -9.5658 -2.74144e+06 -4.13056e+06 -5.37628e+06 356922 -309832 -2.41117e+06
13 3 O -0.138076 5.69736 55.7213 -1.2 -9.78159 -4.08568e+06 -2.72485e+06 -5.29473e+06 -2.11274e+06 -889037 -829238
14 3 O 2.2977 5.68693 55.7798 -1.2 -9.36298 -5.22966e+06 -4.95243e+06 -5.80009e+06 800980 1.62409e+06 -380482
15 1 Mg -0.459401 4.67631 52.2426 1.2 -7.76783 -919934 -968932 4.90237e+06 -1.12474e+06 1.13591e+06 999245
16 1 Mg 2.79456 3.9971 49.9987 1.2 -8.15727 3.28192e+06 -130974 1.67437e+06 -521351 856899 -747571
17 2 Si 1.16169 6.59457 51.2556 2.4 -32.9133 6.01244e+06 6.64659e+06 1.14957e+07 98014 473869 3.75634e+06
18 3 O 1.28989 8.18905 51.2909 -1.2 -9.79098 -2.39348e+06 -1.58043e+06 -4.04544e+06 199710 -836898 288841
19 3 O 1.15865 5.83136 57.995 -1.2 -8.83287 -2.46987e+06 -2.71501e+06 -4.57827e+06 -1.95246e+06 1.44639e+06 3.05772e+06
20 3 O -0.184847 6.06029 50.6845 -1.2 -9.04687 -2.37611e+06 -3.34116e+06 -4.95023e+06 1.42124e+06 -407127 -1.76248e+06
21 1 Mg -3.49704 4.67769 52.6661 1.2 -7.30115 -542022 -1.70925e+06 2.93002e+06 2.11268e+06 -1.07191e+06 1.07872e+06
22 3 O 2.48581 5.93312 50.6539 -1.2 -9.60341 -2.56586e+06 -1.66499e+06 -2.97425e+06 -1.53284e+06 -524513 -1.14127e+06
23 1 Mg -1.79679 4.84082 55.2107 1.2 -7.58135 333819 1.12399e+06 2.1268e+06 -456544 -1.21752e+06 215900
24 2 Si -1.97435 2.58997 53.3273 2.4 -33.1158 7.70945e+06 1.62531e+06 1.35204e+07 369287 -506933 -1.11493e+06
25 3 O -1.9785 1.08486 53.2703 -1.2 -9.74702 -3.83434e+06 -4.07685e+06 -5.16395e+06 488768 -608023 511681
26 3 O -0.0467762 2.97103 46.8385 -1.2 -7.2071 -2.64919e+06 -2.2101e+06 -2.8176e+06 -989085 -2.00524e+06 -888083
27 3 O -3.2502 3.22058 54.0846 -1.2 -9.33795 -2.01772e+06 -1.70163e+06 -7.03463e+06 -1.0535e+06 112976 617605
28 3 O -0.695275 3.31003 53.9247 -1.2 -9.25098 -2.6979e+06 -2.53295e+06 -5.20513e+06 1.02048e+06 -569781 742490
29 1 Mg -3.2267 11.6563 57.424 1.2 -7.39362 1.08686e+06 -1.26515e+06 4.67594e+06 -519654 -1.56198e+06 -541722
30 1 Mg -1.75014 11.5838 49.8362 1.2 -8.35362 621988 1.53029e+06 2.93193e+06 -331797 147167 1.45135e+06
31 2 Si -1.18003 9.02138 47.9309 2.4 -34.0573 7.86826e+06 7.11672e+06 9.78837e+06 216258 2.61186e+06 1.32674e+06
32 3 O -1.23224 10.5991 47.9811 -1.2 -8.86335 -2.27466e+06 -3.37542e+06 -2.98702e+06 663450 -1.90434e+06 -464378
33 3 O -1.79016 8.01447 51.8693 -1.2 -9.34012 -3.473e+06 -2.74589e+06 -7.31349e+06 428096 -380230 -1.43814e+06
34 3 O -2.30986 8.37215 48.8528 -1.2 -9.18092 -705921 -2.60587e+06 -3.26234e+06 -323920 -593876 -1.36181e+06
35 1 Mg 0.154883 7.08234 46.8007 1.2 -7.33694 1.59121e+06 -96802.5 743543 944268 1.72764e+06 -616527
36 3 O 0.325447 8.50934 48.3809 -1.2 -8.81256 -1.10953e+06 -1.99726e+06 -2.70654e+06 -36882.7 -841315 -121248
37 1 Mg 1.00739 6.92729 54.5848 1.2 -7.84471 1.05013e+06 -331139 934742 518817 269752 922734
38 2 Si 1.10518 9.53552 56.3225 2.4 -32.7357 4.60594e+06 4.29744e+06 1.27621e+07 757.671 -645796 1.40859e+06
39 3 O 1.2155 8.01255 56.518 -1.2 -9.69375 -2.9449e+06 -6.91458e+06 -5.978e+06 1.27716e+06 -128175 94425.1
40 3 O 1.28624 10.7248 52.7351 -1.2 -9.42381 -3.14299e+06 -2.32949e+06 -4.75926e+06 936439 323402 -1.85108e+06
41 3 O -0.0761103 10.2122 55.6967 -1.2 -9.26138 -2.58626e+06 -3.10486e+06 -6.45064e+06 84452.9 -2.2925e+06 -120145
42 3 O 2.47922 10.2639 55.8094 -1.2 -9.51443 -2.65561e+06 -1.70541e+06 -5.33671e+06 1.39764e+06 1.41881e+06 -362503
43 1 Mg -0.262694 9.34741 52.2523 1.2 -7.49338 -445604 -608328 4.83363e+06 -1.72559e+06 1.50336e+06 1.74865e+06
44 1 Mg 1.87648 9.01537 49.4629 1.2 -7.68152 1.64219e+06 510465 372185 279211 -271001 874426
45 2 Si 1.21415 11.3799 51.2378 2.4 -32.8477 7.91431e+06 4.09865e+06 1.15457e+07 299849 616675 2.2203e+06
46 3 O 1.31634 12.9512 51.3023 -1.2 -9.84464 -3.22727e+06 -957963 -4.39541e+06 594215 -299699 189809
47 3 O 1.11331 10.2107 57.8649 -1.2 -8.75881 -2.00927e+06 -1.55583e+06 -4.8766e+06 618705 775840 1.1536e+06
48 3 O -0.115718 10.7564 50.681 -1.2 -9.11524 -2.90584e+06 -2.1337e+06 -4.63467e+06 1.30315e+06 -712481 -1.37518e+06
49 1 Mg -3.26386 9.35564 52.3622 1.2 -7.4176 -942209 -1.17685e+06 3.20645e+06 2.20605e+06 -1.86275e+06 1.85597e+06
50 3 O 2.45216 10.7265 50.4558 -1.2 -9.50873 -2.50905e+06 -1.66045e+06 -2.72016e+06 -905069 429438 -861634
51 1 Mg -1.93183 9.28473 55.0761 1.2 -7.72224 1.55138e+06 415915 678645 986541 761.5 -1.61864e+06
52 2 Si -1.84682 7.36834 53.3346 2.4 -32.3076 7.02903e+06 1.48804e+06 9.42925e+06 211173 -1.13499e+06 713606
53 3 O -1.90524 5.87642 53.3472 -1.2 -9.99918 -2.98029e+06 -5.25135e+06 -4.74133e+06 470847 61311.6 -305495
54 3 O -1.19417 8.46968 46.4488 -1.2 -7.79807 -2.47327e+06 -2.00001e+06 -2.98673e+06 -540137 -1.74302e+06 411916
55 3 O -3.14342 8.07989 53.9318 -1.2 -9.51856 -1.73363e+06 -3.80081e+06 -5.63697e+06 -593137 908570 -579138
56 3 O -0.549275 8.03324 53.9198 -1.2 -9.52235 -2.44691e+06 -4.54096e+06 -5.83264e+06 804344 -1.72802e+06 -1.65248e+06
57 1 Mg -3.31584 16.403 57.4518 1.2 -6.97602 -99954.1 -1.05047e+06 4.54908e+06 -97064.7 -1.24142e+06 -284207
58 1 Mg -1.6714 16.3544 49.8412 1.2 -8.21658 449543 1.69307e+06 2.58874e+06 -166207 143779 963518
59 2 Si -1.18567 13.8526 47.9314 2.4 -34.0434 8.12427e+06 5.51661e+06 1.11351e+07 508064 2.21577e+06 146764
60 3 O -1.09664 15.4205 47.9915 -1.2 -8.90282 -2.18239e+06 -3.56769e+06 -3.51408e+06 420152 -1.91862e+06 -353514
61 3 O -1.73493 12.7491 51.7772 -1.2 -8.89402 -1.91049e+06 -1.16739e+06 -5.62512e+06 160447 923992 -1.58639e+06
62 3 O -2.36115 13.2717 48.8238 -1.2 -8.92135 -903292 -2.66161e+06 -4.33407e+06 -101109 -347049 -1.5224e+06
63 1 Mg -0.159928 11.7639 46.8533 1.2 -6.85528 1.85574e+06 -821645 1.46053e+06 1.12651e+06 1.57026e+06 -491407
64 3 O 0.2623 13.1866 48.413 -1.2 -8.84539 -1.46936e+06 -736770 -3.00538e+06 -203651 -292784 488585
65 1 Mg 1.56366 11.7229 54.5564 1.2 -8.16747 2.871e+06 1.00315e+06 1.65686e+06 -545886 98194.9 1.25868e+06
66 2 Si 0.944429 14.3954 56.5624 2.4 -33.4891 6.20563e+06 4.64805e+06 1.14523e+07 -595412 1.46268e+06 -769806
67 3 O 0.919976 12.8234 56.5235 -1.2 -9.10871 -3.06598e+06 -1.16952e+06 -5.92601e+06 -978321 -418471 167366
68 3 O 1.36565 15.4813 52.729 -1.2 -9.47797 -2.43511e+06 -2.18256e+06 -5.94757e+06 612510 -332255 -1.39134e+06
69 3 O -0.423011 15.0961 56.0668 -1.2 -8.64602 -3.10875e+06 -4.50804e+06 -3.23028e+06 -1.28926e+06 1.60658e+06 -123360
70 3 O 2.02657 15.0741 55.6586 -1.2 -9.27146 -4.77023e+06 -4.94629e+06 -5.82691e+06 1.19313e+06 1.22944e+06 916760
71 1 Mg -0.206989 14.1049 52.2121 1.2 -7.58552 25814.1 -1.84155e+06 5.5457e+06 -1.16076e+06 1.69798e+06 1.01432e+06
72 1 Mg 1.82591 13.8102 49.4556 1.2 -7.72708 2.02255e+06 -10913.5 916035 112913 -56146.9 516111
73 2 Si 1.29285 16.1518 51.2434 2.4 -32.4391 6.80475e+06 4.21592e+06 1.15287e+07 -12620.1 493591 942101
74 3 O 1.39496 17.7199 51.3047 -1.2 -10.131 -2.56851e+06 -1.55189e+06 -4.0335e+06 777391 45476.6 158215
75 3 O 1.27116 14.9802 57.981 -1.2 -9.62506 -3.29724e+06 -2.4934e+06 -7.48361e+06 -1.16822e+06 -52532.6 710158
76 3 O -0.0269106 15.5178 50.6688 -1.2 -9.25047 -2.81431e+06 -2.03231e+06 -4.92544e+06 1.07324e+06 -934603 -519023
77 1 Mg -3.18391 14.1057 52.3125 1.2 -7.66524 -474341 -1.22346e+06 4.57168e+06 1.13891e+06 -1.53706e+06 943260
78 3 O 2.52432 15.503 50.4579 -1.2 -9.56994 -2.41544e+06 -1.80919e+06 -2.89226e+06 -331714 811723 -488478
79 1 Mg -2.10048 14.4221 55.2216 1.2 -8.31531 1.03588e+06 1.26487e+06 822129 65347.1 594554 -77280
80 2 Si -1.55787 12.0581 53.3017 2.4 -33.7049 6.64018e+06 3.14599e+06 1.32369e+07 -719750 1.76794e+06 1.58864e+06
81 3 O -1.84975 10.5653 53.2644 -1.2 -9.61264 -3.13966e+06 -3.73452e+06 -4.82458e+06 437711 -513985 -663880
82 3 O -1.21337 13.3381 46.4311 -1.2 -7.85433 -2.74633e+06 -1.53479e+06 -3.5069e+06 -631833 -1.44749e+06 667091
83 3 O -2.80254 12.8144 54.0055 -1.2 -8.86098 -3.48651e+06 -2.66103e+06 -5.2185e+06 -533120 696138 -416953
84 3 O -0.265726 12.6428 53.8806 -1.2 -8.66671 -3.84288e+06 -1.86847e+06 -4.74197e+06 846356 -282404 -1.22278e+06
85 1 Mg -3.44064 21.2711 57.3985 1.2 -7.78736 -479001 -2.25702e+06 4.31222e+06 -2.23799e+06 -1.03997e+06 -255382
86 1 Mg -1.5831 21.1217 49.8405 1.2 -8.15173 417114 1.47293e+06 2.69697e+06 -250899 150059 1.01122e+06
87 2 Si -1.09384 18.6291 47.9287 2.4 -33.9644 7.971e+06 5.70887e+06 1.10309e+07 495252 2.32331e+06 226876
88 3 O -1.02071 20.1985 47.9911 -1.2 -8.91599 -2.22231e+06 -3.61221e+06 -3.58768e+06 458681 -1.92926e+06 -442729
89 3 O -1.65002 17.5002 51.771 -1.2 -9.51426 -1.27399e+06 -1.47434e+06 -4.17475e+06 -153230 -736674 -1.72255e+06
90 3 O -2.26174 18.0434 48.8281 -1.2 -9.01398 -761986 -2.87352e+06 -4.20874e+06 -23994.3 -368202 -1.5208e+06
91 1 Mg -0.0440435 16.5651 46.8269 1.2 -6.83257 1.75223e+06 -811871 1.5021e+06 1.13388e+06 1.58055e+06 -494836
92 3 O 0.37001 17.9877 48.3925 -1.2 -8.89696 -1.34565e+06 -1.00098e+06 -2.88695e+06 -284940 -330745 465662
93 1 Mg 1.49798 16.4536 54.5294 1.2 -8.09425 599709 -81109.2 -892855 -79339.8 -554106 2.54079e+06
94 2 Si 1.37835 19.0603 56.4298 2.4 -32.7189 8.05055e+06 1.48768e+06 1.08303e+07 942716 -500266 1.70529e+06
95 3 O 1.27688 17.6244 56.5535 -1.2 -10.0026 -3.93194e+06 -6.65373e+06 -3.58028e+06 432788 478486 -776719
96 3 O 1.45147 20.239 52.7294 -1.2 -9.6139 -2.27226e+06 -1.61882e+06 -5.52899e+06 -1.08111e+06 -669226 -1.80579e+06
97 3 O 0.113514 19.8013 55.7539 -1.2 -8.90479 -2.8974e+06 -4.43673e+06 -3.82105e+06 -1.11225e+06 -381522 -319629
98 3 O 2.60174 19.7661 55.7213 -1.2 -9.22345 -4.2149e+06 -2.53512e+06 -2.92884e+06 638416 301768 -761231
99 1 Mg -0.126194 18.8651 52.2079 1.2 -7.51151 -1.14353e+06 -1.77642e+06 5.10802e+06 -992149 1.93425e+06 1.17915e+06
100 1 Mg 1.92402 18.5815 49.4545 1.2 -7.61154 1.81914e+06 25099.2 803425 105961 -145370 547277
101 2 Si 1.38106 20.9117 51.2443 2.4 -32.3161 6.42226e+06 3.68117e+06 1.22273e+07 784592 942604 1.44963e+06
102 3 O 1.48527 22.4795 51.3054 -1.2 -10.0991 -2.27153e+06 -1.24652e+06 -4.75793e+06 703744 -1.13896e+06 -6765.97
103 3 O 1.36219 19.895 57.9262 -1.2 -9.2855 -4.09598e+06 -2.46171e+06 -5.25162e+06 -1.80544e+06 555840 1.68143e+06
104 3 O 0.0615419 20.2804 50.6669 -1.2 -9.29216 -2.66175e+06 -1.80472e+06 -5.40739e+06 988013 -767991 -557299
105 1 Mg -3.09665 18.8643 52.3122 1.2 -7.14835 -546711 -972886 4.66418e+06 1.26306e+06 -1.61483e+06 1.27976e+06
106 3 O 2.61548 20.2646 50.4626 -1.2 -9.68159 -2.31898e+06 -1.67031e+06 -3.07746e+06 -292027 881128 -834184
107 1 Mg -1.65174 18.9312 55.1192 1.2 -8.26593 1.66581e+06 2.13443e+06 993588 -222957 176350 -616608
108 2 Si -1.51606 16.765 53.2634 2.4 -32.5455 6.09279e+06 4.85736e+06 1.29637e+07 573714 -6717.18 412157
109 3 O -1.70983 15.2142 53.2572 -1.2 -9.71262 -2.85832e+06 -3.54297e+06 -3.81312e+06 461745 -147982 -641572
110 3 O -1.12868 18.1227 46.4249 -1.2 -7.87724 -2.66242e+06 -1.61683e+06 -3.46613e+06 -604717 -1.49524e+06 642008
111 3 O -2.77812 17.3051 54.1727 -1.2 -9.25648 -2.44373e+06 -3.55777e+06 -1.70385e+06 -957784 -158513 -1.07856e+06
112 3 O -0.236943 17.4226 53.8401 -1.2 -9.31427 -2.42348e+06 -2.76335e+06 -4.24415e+06 631598 -76552.9 -474543
113 1 Mg -3.01602 25.917 57.3221 1.2 -8.05364 1.03993e+06 -1.00593e+06 4.91169e+06 -406884 -1.08435e+06 392267
114 1 Mg -1.48778 25.88 49.8402 1.2 -8.2613 682832 1.07858e+06 2.99449e+06 -181252 132926 816188
115 2 Si -1.00491 23.3922 47.9274 2.4 -34.0172 8.11596e+06 5.36045e+06 1.13261e+07 493102 2.30678e+06 342315
116 3 O -0.927602 24.9615 47.9909 -1.2 -8.84575 -2.37162e+06 -3.4087e+06 -3.82033e+06 456788 -1.92533e+06 -430226
117 3 O -1.55795 22.2588 51.7696 -1.2 -9.78059 -1.71931e+06 -887581 -6.14653e+06 508553 900314 -1.33257e+06
118 3 O -2.17411 22.8111 48.8277 -1.2 -9.00651 -777630 -2.73442e+06 -4.37513e+06 10776 -296951 -1.65004e+06
119 1 Mg 0.0423997 21.3296 46.8225 1.2 -6.82755 1.76929e+06 -898766 1.57707e+06 1.12833e+06 1.5949e+06 -412208
120 3 O 0.458537 22.7495 48.3911 -1.2 -8.88659 -1.37181e+06 -859102 -3.02986e+06 -297930 -369187 387244
121 1 Mg 1.35627 21.2305 54.5565 1.2 -8.48786 2.59271e+06 1.83609e+06 621624 417034 -625133 1.35736e+06
122 2 Si 1.22351 24.0053 56.2768 2.4 -34.3317 8.75392e+06 5.84949e+06 9.66375e+06 33360.3 -534124 645498
123 3 O 1.21622 22.3907 56.3939 -1.2 -8.92536 -4.93977e+06 -406500 -4.34985e+06 -713252 -714996 -878060
124 3 O 1.54441 24.9963 52.7297 -1.2 -9.19303 -3.37265e+06 -1.4313e+06 -6.03588e+06 1.04336e+06 -666198 -1.00199e+06
125 3 O -0.0532411 24.672 55.7413 -1.2 -8.60709 -4.77908e+06 -4.19142e+06 -5.22389e+06 -827472 -1.85807e+06 -179017
126 3 O 2.57201 24.47 55.5767 -1.2 -8.39187 -2.7255e+06 -3.58045e+06 -5.30074e+06 999111 1.94353e+06 -394406
127 1 Mg -0.0335968 23.6229 52.2067 1.2 -7.30651 14290.3 -1.97181e+06 5.96205e+06 -1.3214e+06 1.52476e+06 1.33219e+06
128 1 Mg 2.01073 23.3445 49.4541 1.2 -7.64816 1.75006e+06 -249901 1.21468e+06 112048 -106256 608899
129 2 Si 1.47594 25.6699 51.2449 2.4 -32.788 7.05029e+06 2.81321e+06 1.32933e+07 85100.1 702617 636940
130 3 O 1.58172 27.2371 51.3054 -1.2 -9.80571 -3.06997e+06 -917123 -5.23191e+06 563405 -330813 673668
131 3 O 1.4066 24.668 57.7076 -1.2 -8.80363 -4.29689e+06 -3.44037e+06 -6.85784e+06 1.28715e+06 -106551 553827
132 3 O 0.157925 25.0378 50.6651 -1.2 -9.22679 -2.82358e+06 -1.31401e+06 -5.69321e+06 1.0788e+06 -1.0143e+06 -621986
133 1 Mg -3.00341 23.6231 52.3098 1.2 -7.57913 -1.32531e+06 -1.73484e+06 5.48815e+06 1.8104e+06 -1.8399e+06 1.29746e+06
134 3 O 2.71149 25.0232 50.4656 -1.2 -9.54853 -2.35199e+06 -1.2444e+06 -3.74798e+06 -279468 911216 -580644
135 1 Mg -1.63532 23.6671 55.0828 1.2 -8.92012 2.30001e+06 1.32574e+06 -560137 70352.5 301204 -1.32064e+06
136 2 Si -1.53404 21.5857 53.2138 2.4 -32.4484 6.8395e+06 5.50134e+06 1.26966e+07 -1.36655e+06 -556628 1.2746e+06
137 3 O -1.54234 19.9062 53.2006 -1.2 -9.83602 -2.76066e+06 1.38715e+06 -4.55005e+06 1.02516e+06 6475.56 -1.18336e+06
138 3 O -1.03938 22.8897 46.4223 -1.2 -7.85648 -2.6892e+06 -1.51822e+06 -3.57061e+06 -605997 -1.50019e+06 577029
139 3 O -2.92304 22.211 53.8815 -1.2 -8.73923 -1.32551e+06 -2.42607e+06 -4.83022e+06 -1.05668e+06 -803276 -793074
140 3 O -0.396029 22.2158 54.05 -1.2 -9.25242 -3.85503e+06 -2.07671e+06 -4.06022e+06 459064 -940071 -297516
141 1 Mg -2.55677 30.6946 57.2206 1.2 -8.43283 401661 -2.51256e+06 4.97245e+06 -1.24206e+06 -1.27453e+06 -1.06159e+06
142 1 Mg -1.38776 30.6357 49.8391 1.2 -8.46002 819495 1.31451e+06 2.93356e+06 -135649 21134.2 447539
143 2 Si -0.907929 28.1491 47.9262 2.4 -34.2625 8.49995e+06 5.0319e+06 1.16706e+07 471758 2.29164e+06 -168810
144 3 O -0.829229 29.7184 47.99 -1.2 -8.72196 -2.56002e+06 -3.39557e+06 -3.87066e+06 462936 -1.90104e+06 -123880
145 3 O -1.45946 27.0152 51.769 -1.2 -8.89836 -3.59514e+06 -2.16411e+06 -1.26908e+07 647682 810893 359797
146 3 O -2.07744 27.5697 48.8273 -1.2 -8.86559 -990509 -2.531e+06 -4.5737e+06 9510.64 -296945 -1.39763e+06
147 1 Mg 0.137907 26.087 46.819 1.2 -6.90221 1.8955e+06 -1.09919e+06 1.77836e+06 1.12386e+06 1.60076e+06 -472506
148 3 O 0.55579 27.5065 48.3893 -1.2 -8.75829 -1.577e+06 -641025 -3.22623e+06 -287712 -366220 646916
149 1 Mg 1.44068 26.1179 54.4802 1.2 -8.55107 1.96858e+06 162217 616769 714467 -1.48771e+06 871024
150 2 Si 1.58622 28.7348 56.4106 2.4 -33.738 1.00766e+07 6.70644e+06 1.39415e+07 2.27564e+06 -666806 451353
151 3 O 1.41571 27.0267 56.2951 -1.2 -8.95559 -3.2195e+06 2.07396e+06 -3.73901e+06 813493 -69212.8 483743
152 3 O 1.6432 29.7522 52.7291 -1.2 -9.18099 -3.02394e+06 -1.54065e+06 -5.94309e+06 387529 -478978 -399509
153 3 O 0.359772 29.374 55.7579 -1.2 -8.85069 -3.06749e+06 -1.87893e+06 -3.4307e+06 -193036 422075 761194
154 3 O 2.96919 29.3832 55.7044 -1.2 -8.58249 -997417 -1.56821e+06 -5.32124e+06 2.44246e+06 -173726 -842329
155 1 Mg 0.0647462 28.3794 52.2059 1.2 -7.65408 338839 -2.73601e+06 5.3054e+06 -1.04015e+06 1.85598e+06 27409.3
156 1 Mg 2.10696 28.1021 49.4531 1.2 -7.81792 2.05858e+06 -447720 1.38779e+06 158720 -90722.2 186226
157 2 Si 1.57592 30.4257 51.2442 2.4 -32.9698 7.74654e+06 3.43132e+06 1.22482e+07 68620.4 1.2767e+06 -599927
158 3 O 1.68288 31.9926 51.3043 -1.2 -9.80356 -3.38666e+06 -1.31843e+06 -4.4107e+06 1.02108e+06 -646299 998530
159 3 O 1.77415 29.423 57.9245 -1.2 -8.5687 -3.6132e+06 739009 -3.25722e+06 -600695 523424 2.00362e+06
160 3 O 0.258524 29.7935 50.6632 -1.2 -9.07963 -3.38667e+06 -1.65142e+06 -5.09792e+06 1.13058e+06 -986543 122716
161 1 Mg -2.90462 28.3797 52.308 1.2 -7.86483 -1.84869e+06 -2.841e+06 4.67456e+06 886407 -2.22579e+06 94058
162 3 O 2.81205 29.7787 50.4664 -1.2 -9.31229 -2.69534e+06 -1.45335e+06 -3.80734e+06 -328482 670300 -26546.2
163 1 Mg -1.38794 28.3023 55.1336 1.2 -8.53755 2.97384e+06 230710 2.72291e+06 -392941 717808 -595663
164 2 Si -1.43233 26.3558 53.1135 2.4 -33.9701 5.97856e+06 2.12289e+06 9.68448e+06 1.27506e+06 1.02591e+06 -1.13647e+06
165 3 O -1.55865 24.7947 53.2286 -1.2 -9.23174 -3.82788e+06 -1.7908e+06 -5.17294e+06 321555 52405.3 -188375
166 3 O -0.943026 27.648 46.4208 -1.2 -7.77195 -2.82223e+06 -1.36768e+06 -3.72988e+06 -603017 -1.502e+06 715766
167 3 O -2.5462 27.0446 53.8277 -1.2 -8.43708 -5.58388e+06 -5.45054e+06 -7.08187e+06 780881 3.0632e+06 212440
168 3 O -0.0621578 26.9446 53.7627 -1.2 -8.59871 -6.47807e+06 -2.29121e+06 -5.87084e+06 1.74938e+06 -1.72577e+06 1.16557e+06
169 1 Mg -2.75746 35.425 57.3485 1.2 -7.10445 -659938 -1.8052e+06 4.61194e+06 -803207 -2.15182e+06 -1.71025e+06
170 1 Mg -1.28421 35.3899 49.8376 1.2 -8.48759 734203 1.54813e+06 2.81603e+06 -154276 435767 482427
171 2 Si -0.807101 32.9036 47.9247 2.4 -34.4002 8.64023e+06 5.47679e+06 1.13056e+07 514617 2.31681e+06 -568892
172 3 O -0.727174 34.4729 47.9885 -1.2 -8.678 -2.57283e+06 -3.65727e+06 -3.68999e+06 452921 -1.93879e+06 -43528.1
173 3 O -1.35735 31.7701 51.768 -1.2 -8.8885 -2.77617e+06 25677.6 -5.69925e+06 -261213 688782 -1.05117e+06
174 3 O -1.97695 32.3253 48.826 -1.2 -8.77256 -1.10436e+06 -2.79427e+06 -4.37984e+06 -22889.5 -354619 -1.0842e+06
175 1 Mg 0.237665 30.8412 46.8168 1.2 -6.9875 2.03682e+06 -1.07989e+06 1.75799e+06 1.12125e+06 1.59205e+06 -710714
176 3 O 0.656562 32.2608 48.3877 -1.2 -8.67524 -1.70972e+06 -863228 -3.01517e+06 -273784 -321204 880807
177 1 Mg 1.72065 30.9588 54.4748 1.2 -8.50561 668555 448692 932498 -475492 -3497.55 -673109
178 2 Si 1.74407 33.4009 56.4034 2.4 -32.4566 6.33813e+06 6.67247e+06 1.21074e+07 -2.05374e+06 -300547 -864484
179 3 O 1.86003 31.7958 56.2727 -1.2 -9.39337 -3.76235e+06 -1.49584e+06 -5.69247e+06 -140372 -74785.7 429740
180 3 O 1.74574 34.5067 52.7279 -1.2 -9.58986 -2.9861e+06 -1.7017e+06 -5.49858e+06 352840 -210334 -737372
181 3 O 0.459883 34.0827 55.6834 -1.2 -9.25754 -2.1152e+06 -2.54266e+06 -4.81036e+06 -1.68621e+06 -245386 602279
182 3 O 2.96362 34.1263 55.75 -1.2 -9.61385 -2.83421e+06 -4.29937e+06 -2.39431e+06 577750 428153 310504
183 1 Mg 0.167046 33.1343 52.2045 1.2 -7.7704 -496945 -947577 4.84578e+06 -1.11234e+06 1.68947e+06 338198
184 1 Mg 2.20727 32.8578 49.4516 1.2 -7.86409 2.2777e+06 -109255 910573 53773.4 -135311 -81675.7
185 2 Si 1.67943 35.1802 51.2429 2.4 -32.8123 8.25792e+06 3.94061e+06 1.08755e+07 133987 -264248 -81856
186 3 O 1.78736 36.747 51.303 -1.2 -9.94292 -3.07111e+06 -1.62306e+06 -3.83665e+06 656866 -140727 492964
187 3 O 1.54015 33.9442 57.9487 -1.2 -9.48886 -1.61307e+06 -2.53439e+06 -3.5275e+06 640317 -646533 2.73434e+06
188 3 O 0.362533 34.5479 50.661 -1.2 -8.89013 -2.94261e+06 -2.0533e+06 -5.6101e+06 1.29158e+06 -477087 -261225
189 1 Mg -2.80215 33.1347 52.3062 1.2 -7.5243 13317.8 -961903 4.28555e+06 1.56443e+06 -1.52012e+06 192390
190 3 O 2.91593 34.533 50.466 -1.2 -9.44265 -3.10476e+06 -1.80229e+06 -2.51252e+06 -344392 912626 -124468
191 1 Mg -1.29979 33.1351 54.944 1.2 -8.1478 2.79723e+06 1.06567e+06 879744 333945 -28954.3 -1.66193e+06
192 2 Si -1.24927 30.9362 53.2507 2.4 -32.6342 8.2686e+06 4.09527e+06 1.37976e+07 -225251 127130 -2.77849e+06
193 3 O -1.52449 29.417 53.1216 -1.2 -9.63162 -4.31166e+06 -2.88341e+06 -6.66111e+06 -390919 845695 1.05114e+06
194 3 O -0.842495 32.4028 46.4192 -1.2 -7.7068 -2.91631e+06 -1.46772e+06 -3.64306e+06 -607750 -1.50332e+06 907827
195 3 O -2.61396 31.7857 53.8819 -1.2 -8.89805 -1.76277e+06 -1.29513e+06 -6.6634e+06 -2.46748e+06 1.65631e+06 1.43999e+06
196 3 O -0.0278288 31.6669 53.8494 -1.2 -9.49632 -3.92095e+06 -2.28018e+06 -5.56887e+06 2.05539e+06 -1.48453e+06 1.4241e+06
197 1 Mg -2.44479 40.2661 57.2159 1.2 -7.57432 -2.05902e+06 -2.46442e+06 4.15213e+06 -896983 -1.52687e+06 -1.18061e+06
198 1 Mg -1.17787 40.1435 49.8359 1.2 -8.43314 771971 1.76078e+06 2.48472e+06 -203958 357878 809226
199 2 Si -0.702692 37.6572 47.9231 2.4 -34.4088 8.61698e+06 5.93252e+06 1.08848e+07 489707 2.36796e+06 -400593
200 3 O -0.621782 39.2264 47.9868 -1.2 -8.67294 -2.59149e+06 -3.83481e+06 -3.50365e+06 463637 -1.94834e+06 -241646
201 3 O -1.25221 36.5242 51.7666 -1.2 -9.11253 -1.72039e+06 -1.64774e+06 -4.50117e+06 763144 -1.23624e+06 -554030
202 3 O -1.87295 37.0796 48.8243 -1.2 -8.7902 -1.13281e+06 -3.06644e+06 -4.05573e+06 31883.8 -433180 -1.18019e+06
203 1 Mg 0.341084 35.5943 46.8152 1.2 -7.01746 2.06513e+06 -884637 1.58425e+06 1.1229e+06 1.58344e+06 -749032
204 3 O 0.760681 37.0138 48.3864 -1.2 -8.67024 -1.65779e+06 -1.11974e+06 -2.81804e+06 -302717 -279810 829165
205 1 Mg 1.56454 35.446 54.4867 1.2 -8.09511 2.02083e+06 1.62207e+06 564333 664766 189486 465538
206 2 Si 1.81848 38.2047 56.3184 2.4 -32.7848 5.5489e+06 7.33866e+06 1.14965e+07 1.45419e+06 -305188 -1.09677e+06
207 3 O 1.73237 36.5501 56.509 -1.2 -9.56746 -2.56513e+06 1.18748e+06 -4.48642e+06 412500 686549 -627736
208 3 O 1.85132 39.2606 52.7264 -1.2 -9.52794 -2.60929e+06 -1.90276e+06 -6.37648e+06 440303 273293 -869880
209 3 O 0.701312 38.8835 55.4868 -1.2 -9.28998 -6.39906e+06 -3.36991e+06 -4.15366e+06 -1.53346e+06 -1.24494e+06 293904
210 3 O 3.12489 38.8637 55.6898 -1.2 -9.06188 -3.11395e+06 -3.56924e+06 -4.77508e+06 1.80961e+06 280841 -809547
211 1 Mg 0.272384 37.8883 52.2029 1.2 -7.74583 -1.14532e+06 -586079 5.01953e+06 -845921 1.92854e+06 721352
212 1 Mg 2.31122 37.6122 49.4501 1.2 -7.82064 2.28072e+06 139438 598235 107613 -233651 151834
213 2 Si 1.78573 39.934 51.2414 2.4 -32.6949 7.46004e+06 4.47153e+06 1.09904e+07 363479 -225688 467259
214 3 O 1.89428 41.5006 51.3014 -1.2 -9.8719 -3.01739e+06 -1.689e+06 -4.0145e+06 569442 -166293 -34522.4
215 3 O 1.88245 38.85 57.8051 -1.2 -9.71319 -2.39687e+06 -3.57494e+06 -5.013e+06 26285.3 1.38388e+06 1.23899e+06
216 3 O 0.469216 39.3015 50.6588 -1.2 -8.99789 -2.79439e+06 -2.27799e+06 -5.42146e+06 1.14565e+06 -631549 -377107
217 1 Mg -2.69668 37.8889 52.3043 1.2 -7.22175 29133.4 -1.73673e+06 4.82381e+06 1.82164e+06 -1.8739e+06 889481
218 3 O 3.0225 39.2866 50.4651 -1.2 -9.50462 -2.95913e+06 -1.94811e+06 -2.48152e+06 -314821 954608 -458664
219 1 Mg -0.967582 38.1996 55.0942 1.2 -8.08279 34815.9 908424 601796 -764275 -1.54694e+06 -1.01183e+06
220 2 Si -1.34509 35.9174 53.3355 2.4 -33.0262 5.40761e+06 4.53304e+06 1.28682e+07 -6857.82 -1.14879e+06 -41491.6
221 3 O -1.13589 34.3408 53.2828 -1.2 -9.55494 -2.65992e+06 -1.74708e+06 -4.9875e+06 -1.19826e+06 51139.8 1.02074e+06
222 3 O -0.738054 37.1566 46.4176 -1.2 -7.68416 -2.94581e+06 -1.64335e+06 -3.47834e+06 -606202 -1.51074e+06 871127
223 3 O -2.53724 36.5618 54.0034 -1.2 -9.29661 -3.61839e+06 -2.15335e+06 -4.22736e+06 601427 945994 -766725
224 3 O -0.0193621 36.5558 53.9204 -1.2 -9.02678 -2.79164e+06 -4.17364e+06 -4.93715e+06 -23937.7 -1.01757e+06 -454388
225 1 Mg -2.43409 45.076 57.39 1.2 -8.19648 622634 -2.77866e+06 3.948e+06 -1.14139e+06 -2.18455e+06 -1.9491e+06
226 1 Mg -1.06993 44.8968 49.8343 1.2 -8.67536 1.15174e+06 1.22609e+06 3.02725e+06 -196720 152465 771634
227 2 Si -0.596166 42.4103 47.9215 2.4 -34.5721 8.92296e+06 5.56773e+06 1.12123e+07 473272 2.33652e+06 170704
228 3 O -0.51472 43.9796 47.9853 -1.2 -8.55467 -2.80399e+06 -3.4921e+06 -3.81895e+06 468380 -1.92197e+06 -356158
229 3 O -1.14475 41.2777 51.7649 -1.2 -9.18916 -2.11179e+06 -2.81623e+06 -6.42737e+06 726208 -1.1851e+06 -1.00192e+06
230 3 O -1.76671 41.8331 48.8226 -1.2 -8.7179 -1.2388e+06 -2.95627e+06 -4.16257e+06 30348.6 -382869 -1.60345e+06
231 1 Mg 0.447076 40.3473 46.8135 1.2 -7.05191 2.123e+06 -836396 1.53326e+06 1.12448e+06 1.5891e+06 -539999
232 3 O 0.866985 41.7666 48.385 -1.2 -8.60536 -1.77727e+06 -1.01924e+06 -2.89306e+06 -297559 -309645 485643
233 1 Mg 1.9697 40.319 54.4183 1.2 -8.24851 1.22816e+06 2.28477e+06 119202 -424558 1.14153e+06 733254
234 2 Si 2.13739 42.9313 56.5623 2.4 -33.7629 7.41141e+06 1.8887e+06 1.23498e+07 583368 -24373 383243
235 3 O 2.18998 41.4399 56.5079 -1.2 -9.29841 -4.68741e+06 -5.18804e+06 -6.12234e+06 2.26813e+06 99867.4 767037
236 3 O 1.95891 44.014 52.7248 -1.2 -8.80319 -3.08494e+06 -1.60869e+06 -5.11109e+06 338355 87616.4 -1.11927e+06
237 3 O 0.842044 43.492 55.8586 -1.2 -8.59308 -4.05407e+06 -3.36639e+06 -3.94455e+06 -252282 -101255 -22444
238 3 O 3.31448 43.7896 55.9004 -1.2 -8.58394 -5.19431e+06 -4.22452e+06 -5.91062e+06 569831 -409097 -119796
239 1 Mg 0.379928 42.6418 52.2013 1.2 -7.9086 -664720 -2.02854e+06 4.88102e+06 -563473 2.27047e+06 649346
240 1 Mg 2.41752 42.366 49.4484 1.2 -7.94378 2.40716e+06 -76273.7 892369 141468 -183460 578166
241 2 Si 1.89374 44.6874 51.2398 2.4 -33.5538 8.44798e+06 2.9441e+06 1.29108e+07 394547 608612 579932
242 3 O 2.00266 46.254 51.2996 -1.2 -9.5451 -3.4172e+06 -1.24774e+06 -4.64871e+06 873985 -121734 764891
243 3 O 2.06947 43.5592 58.0526 -1.2 -8.74171 -4.13474e+06 -1.59126e+06 -7.90248e+06 88437.5 -1.37962e+06 729666
244 3 O 0.577464 44.0549 50.6567 -1.2 -8.75704 -3.60261e+06 -1.64608e+06 -5.73064e+06 1.05807e+06 -762848 -370095
245 1 Mg -2.58906 42.6425 52.3022 1.2 -7.70856 40801.7 -1.97015e+06 4.96057e+06 1.60246e+06 -1.81606e+06 1.1744e+06
246 3 O 3.13067 44.0398 50.464 -1.2 -9.16221 -3.22583e+06 -1.42046e+06 -3.36893e+06 -333764 877183 -710797
247 1 Mg -0.89074 42.6448 55.1417 1.2 -8.50877 3.61926e+06 973704 986363 -218521 -47127.9 -195567
248 2 Si -1.12745 40.6229 53.2208 2.4 -32.8122 6.26856e+06 4.12271e+06 1.11008e+07 -1.90164e+06 -1.26425e+06 981251
249 3 O -1.0929 39.0994 53.2007 -1.2 -9.81286 -3.34367e+06 -3.48579e+06 -4.91835e+06 -723763 -18557.3 1.00933e+06
250 3 O -0.631421 41.9099 46.4159 -1.2 -7.62771 -3.04226e+06 -1.55436e+06 -3.55912e+06 -603612 -1.50779e+06 677654
251 3 O -2.42993 41.4033 54.0236 -1.2 -9.03501 -2.10654e+06 -1.45864e+06 -3.24266e+06 -1.52443e+06 506935 1.03066e+06
252 3 O 0.111951 41.2462 53.8599 -1.2 -8.99905 -3.73297e+06 -4.99478e+06 -4.94511e+06 428877 -1.66143e+06 -326271
253 1 Mg -2.20874 49.7389 57.3008 1.2 -8.71952 546244 -983240 4.85381e+06 -1.30533e+06 -1.15054e+06 -1.17582e+06
254 1 Mg -0.961069 49.6502 49.8327 1.2 -8.61446 1.13026e+06 1.52938e+06 2.65859e+06 -167320 363028 620799
255 2 Si -0.488083 47.1636 47.9198 2.4 -34.7345 9.19507e+06 5.27056e+06 1.14973e+07 502256 2.32423e+06 -339722
256 3 O -0.40607 48.7329 47.9837 -1.2 -8.51579 -2.86063e+06 -3.52803e+06 -3.77926e+06 456539 -1.94401e+06 -139765
257 3 O -1.0361 46.031 51.7632 -1.2 -8.81563 -2.4361e+06 -1.10557e+06 -4.39522e+06 -83938.3 314098 -1.08992e+06
258 3 O -1.65866 46.5866 48.821 -1.2 -8.59118 -1.41261e+06 -2.68972e+06 -4.46093e+06 4527.15 -356646 -1.26425e+06
259 1 Mg 0.554124 45.1001 46.8117 1.2 -7.14033 2.27611e+06 -1.09408e+06 1.78026e+06 1.12298e+06 1.59021e+06 -574696
260 3 O 0.974961 46.5195 48.3832 -1.2 -8.49717 -1.97292e+06 -770832 -3.1144e+06 -286298 -320277 734790
261 1 Mg 2.23214 45.0199 54.7693 1.2 -8.7602 2.78738e+06 -500329 891677 -240689 227184 818654
262 2 Si 2.16253 47.6552 56.415 2.4 -33.9416 1.18893e+07 5.32091e+06 9.9056e+06 1.64735e+06 -21351.9 -2.19641e+06
263 3 O 2.04317 46.081 56.453 -1.2 -9.14527 -5.02069e+06 -1.48342e+06 -4.64204e+06 1.09804e+06 265613 -2.01598e+06
264 3 O 2.0677 48.7672 52.7232 -1.2 -9.12202 -3.35897e+06 -1.79476e+06 -5.71354e+06 -601756 -809829 -1.1935e+06
265 3 O 0.825593 48.475 55.7487 -1.2 -8.55053 -1.83464e+06 -1.29399e+06 -3.48343e+06 -1.32023e+06 301967 -18677.8
266 3 O 3.50201 48.3645 55.7474 -1.2 -8.3606 -1.52293e+06 -1.37586e+06 -4.51656e+06 1.61492e+06 230384 -85873.7
267 1 Mg 0.488584 47.395 52.1996 1.2 -7.92176 -258084 -1.49779e+06 4.76765e+06 -1.06166e+06 2.333e+06 545274
268 1 Mg 2.52544 47.1195 49.4466 1.2 -8.05534 2.5723e+06 -222371 1.05679e+06 79687.9 -158636 125958
269 2 Si 2.00256 49.4407 51.2382 2.4 -33.2848 8.22798e+06 3.79333e+06 1.19177e+07 332547 338842 209408
270 3 O 2.11156 51.0073 51.2982 -1.2 -9.58739 -3.59845e+06 -1.43916e+06 -4.51168e+06 650234 -902479 613194
271 3 O 2.2308 48.2645 57.8174 -1.2 -8.55975 -5.55455e+06 -1.74761e+06 -7.84735e+06 63510.5 879818 625502