ITEM: TIMESTEP
6500
ITEM: NUMBER OF ATOMS
10500
ITEM: BOX BOUNDS xy xz yz pp pp pp
0.0000000000000000e+00 8.9687999999999999e+00 2.9895999999999998e+00
0.0000000000000000e+00 1.1872499999999999e+02 0.0000000000000000e+00
0.0000000000000000e+00 2.5297749999999999e+02 0.0000000000000000e+00
ITEM: ATOMS id type element xu yu zu q c_pe c_s[1] c_s[2] c_s[3] c_s[4] c_s[5] c_s[6]
1 1 Mg -3.32235 6.97941 57.3812 1.2 -7.54326 -443128 -1.26665e+06 4.22991e+06 -768894 -1.90795e+06 -925265
2 1 Mg -1.82655 6.90154 50.0912 1.2 -8.03215 -215496 1.33164e+06 959552 -121338 -193788 1.37493e+06
3 2 Si -0.257935 3.96038 48.0876 2.4 -36.0164 9.95878e+06 9.15396e+06 1.0446e+07 801620 1.97415e+06 1.4918e+06
4 3 O -0.335812 5.46814 47.6264 -1.2 -7.84415 -2.98936e+06 -2.71729e+06 -2.28178e+06 143939 -970591 -492014
5 3 O -2.03793 3.43377 51.8941 -1.2 -8.89192 -3.05989e+06 -1.67884e+06 -6.69702e+06 -1.09762e+06 837772 -1.83962e+06
6 3 O -1.54015 3.53929 48.9521 -1.2 -8.31946 -1.27142e+06 -1.78649e+06 -4.17243e+06 25693.3 -734726 -119392
7 1 Mg 1.82954 2.54582 47.1376 1.2 -8.01489 2.64248e+06 -341585 591270 1.14823e+06 831715 438506
8 3 O 1.22989 3.66364 48.7877 -1.2 -8.03748 -1.62176e+06 -2.54678e+06 -3.51777e+06 -477019 -718623 -846188
9 1 Mg 0.984181 2.32446 54.5804 1.2 -8.31458 2.72777e+06 379758 1.71546e+06 -37410.7 -174071 930631
10 2 Si 1.08602 4.93017 56.504 2.4 -32.374 6.81178e+06 4.39334e+06 1.22886e+07 -216363 132754 783462
11 3 O 1.05696 3.4036 56.4982 -1.2 -9.98433 -3.54424e+06 -1.93284e+06 -4.8657e+06 348593 168846 -426867
12 3 O 1.10813 6.07342 52.8172 -1.2 -9.41745 -2.67863e+06 -3.20783e+06 -4.29288e+06 236311 -170131 -1.51194e+06
13 3 O -0.197619 5.68442 55.9162 -1.2 -9.43941 -1.77976e+06 -2.49459e+06 -4.59907e+06 -764781 -854778 -391528
14 3 O 2.3444 5.6759 55.8099 -1.2 -9.60706 -2.0567e+06 -2.73241e+06 -4.16543e+06 1.31955e+06 616032 -640210
15 1 Mg -0.459401 4.67631 52.2426 1.2 -7.9278 -811672 -1.36934e+06 5.18995e+06 -1.10351e+06 1.24936e+06 803309
16 1 Mg 2.79456 3.9971 49.9987 1.2 -8.32179 3.51434e+06 1434.45 1.57341e+06 -507456 842574 -1.00394e+06
17 2 Si 1.16169 6.59457 51.2556 2.4 -33.114 6.44027e+06 6.50426e+06 1.14555e+07 189360 400947 2.72191e+06
18 3 O 1.28989 8.18905 51.2909 -1.2 -9.79046 -2.47923e+06 -1.70116e+06 -3.5136e+06 236475 -877972 763604
19 3 O 1.1311 5.61438 58.02 -1.2 -9.36151 -2.87441e+06 -1.91019e+06 -5.24293e+06 20976.2 -491730 1.99684e+06
20 3 O -0.184847 6.06029 50.6845 -1.2 -8.9038 -2.62166e+06 -3.29932e+06 -5.02256e+06 1.44352e+06 -364904 -1.33984e+06
21 1 Mg -3.49704 4.67769 52.6661 1.2 -7.48313 -165935 -1.87924e+06 2.87937e+06 2.1214e+06 -1.16282e+06 835819
22 3 O 2.48581 5.93312 50.6539 -1.2 -9.46646 -2.81291e+06 -1.69241e+06 -2.89114e+06 -1.56614e+06 -515831 -781495
23 1 Mg -1.92267 4.72136 55.2329 1.2 -8.0378 1.60539e+06 1.94496e+06 1.33333e+06 340994 -336780 -376129
24 2 Si -1.94978 2.62271 53.2979 2.4 -33.6359 7.41477e+06 3.41463e+06 1.34032e+07 1.04083e+06 20050 -1.13878e+06
25 3 O -1.97713 1.07066 53.2413 -1.2 -9.36229 -3.63897e+06 -2.01143e+06 -4.73522e+06 567387 -16018.6 9805.24
26 3 O -0.0467762 2.97103 46.8385 -1.2 -6.99655 -2.98767e+06 -2.33325e+06 -2.69345e+06 -989522 -2.00567e+06 -540573
27 3 O -3.20416 3.23018 54.0768 -1.2 -9.04039 -3.01953e+06 -2.31873e+06 -5.82744e+06 -531756 481883 832132
28 3 O -0.676611 3.27135 53.9835 -1.2 -8.98207 -3.3619e+06 -2.56652e+06 -4.60405e+06 790337 -357381 939920
29 1 Mg -3.26106 11.7742 57.4395 1.2 -7.51574 -516311 -1.2214e+06 4.31228e+06 -936881 -1.63029e+06 -885328
30 1 Mg -1.75014 11.5838 49.8362 1.2 -8.34101 628583 2.0997e+06 2.33731e+06 -320920 279871 854278
31 2 Si -1.18003 9.02138 47.9309 2.4 -34.2612 8.16805e+06 7.76401e+06 9.16767e+06 228288 2.60909e+06 479447
32 3 O -1.23224 10.5991 47.9811 -1.2 -8.78293 -2.39022e+06 -3.81866e+06 -2.55923e+06 655114 -1.91726e+06 -46730.5
33 3 O -1.79016 8.01447 51.8693 -1.2 -9.41078 -2.35609e+06 -2.64658e+06 -5.53388e+06 430686 195607 -1.74811e+06
34 3 O -2.30986 8.37215 48.8528 -1.2 -9.07918 -848343 -2.84331e+06 -3.05831e+06 -333279 -610571 -910561
35 1 Mg 0.154883 7.08234 46.8007 1.2 -7.47892 1.81979e+06 159416 486236 943213 1.72503e+06 -989525
36 3 O 0.325447 8.50934 48.3809 -1.2 -8.71088 -1.27772e+06 -2.27499e+06 -2.43105e+06 -32848.2 -826092 309790
37 1 Mg 1.08997 7.05153 54.6641 1.2 -8.06696 2.12711e+06 950184 1.67697e+06 533520 -419170 967664
38 2 Si 1.13834 9.69504 56.4666 2.4 -32.8178 7.56967e+06 4.17361e+06 1.14391e+07 207350 424444 55338.2
39 3 O 1.17988 8.17108 56.5654 -1.2 -9.74853 -3.31633e+06 -2.59583e+06 -4.63448e+06 44406.6 -133847 -483067
40 3 O 1.28624 10.7248 52.7351 -1.2 -9.60185 -2.82142e+06 -1.78567e+06 -4.40554e+06 374297 -391807 -841106
41 3 O -0.131072 10.3895 55.7702 -1.2 -9.22909 -1.8766e+06 -2.97322e+06 -4.06653e+06 -1.07436e+06 -692899 -53325.3
42 3 O 2.41341 10.4058 55.7762 -1.2 -9.41962 -2.55125e+06 -2.7984e+06 -4.36065e+06 1.21993e+06 738344 -266222
43 1 Mg -0.262694 9.34741 52.2523 1.2 -7.53363 -432044 -549883 4.9908e+06 -1.62072e+06 1.31739e+06 1.04754e+06
44 1 Mg 1.87648 9.01537 49.4629 1.2 -7.74868 1.8018e+06 748348 81019.3 254831 -253871 381975
45 2 Si 1.21415 11.3799 51.2378 2.4 -32.6739 7.62754e+06 5.02215e+06 1.05911e+07 302341 441784 867776
46 3 O 1.31634 12.9512 51.3023 -1.2 -9.97532 -2.80487e+06 -1.77916e+06 -3.62849e+06 522757 -529657 505259
47 3 O 1.16835 10.4161 57.9229 -1.2 -9.38352 -2.59924e+06 -2.36402e+06 -5.76018e+06 342662 149136 1.1822e+06
48 3 O -0.115718 10.7564 50.681 -1.2 -9.06439 -2.8225e+06 -2.48231e+06 -4.61732e+06 1.22154e+06 -490253 -745381
49 1 Mg -3.26386 9.35564 52.3622 1.2 -7.45009 -710486 -1.22449e+06 3.79335e+06 1.9122e+06 -1.62454e+06 1.02917e+06
50 3 O 2.45216 10.7265 50.4558 -1.2 -9.54786 -2.62184e+06 -1.99749e+06 -2.22672e+06 -782528 467883 -149878
51 1 Mg -1.84525 9.45191 55.1837 1.2 -8.22401 1.92722e+06 1.19899e+06 1.08472e+06 22789.7 -15529.3 -1.02565e+06
52 2 Si -1.81803 7.35681 53.3715 2.4 -32.7605 6.66739e+06 5.00826e+06 1.14306e+07 -370498 -152537 622357
53 3 O -1.85194 5.79123 53.3461 -1.2 -9.78068 -2.71158e+06 -2.41366e+06 -4.54655e+06 437708 -187281 -564064
54 3 O -1.19417 8.46968 46.4488 -1.2 -7.66938 -2.67653e+06 -2.32716e+06 -2.66333e+06 -541178 -1.74259e+06 781649
55 3 O -3.08897 8.06972 54.0102 -1.2 -9.3247 -2.56604e+06 -2.5025e+06 -4.23984e+06 -574872 456529 -106233
56 3 O -0.5703 8.02142 54.0653 -1.2 -9.25758 -2.69679e+06 -3.21599e+06 -4.35381e+06 984567 -757667 -446992
57 1 Mg -3.16084 16.5339 57.4082 1.2 -7.65784 -519779 -964215 4.63129e+06 -940124 -1.7379e+06 -822596
58 1 Mg -1.6714 16.3544 49.8412 1.2 -8.41012 753504 2.01079e+06 2.28189e+06 -190462 193117 788594
59 2 Si -1.18567 13.8526 47.9314 2.4 -34.2437 8.43637e+06 6.62123e+06 1.00394e+07 500131 2.2491e+06 -157869
60 3 O -1.09664 15.4205 47.9915 -1.2 -8.75625 -2.41078e+06 -4.02579e+06 -3.06098e+06 424431 -1.929e+06 -267023
61 3 O -1.73493 12.7491 51.7772 -1.2 -9.32115 -1.81763e+06 -2.16041e+06 -5.16986e+06 522702 155997 -695707
62 3 O -2.36115 13.2717 48.8238 -1.2 -8.87174 -1.02987e+06 -3.27549e+06 -3.67179e+06 -95104.4 -363666 -1.31621e+06
63 1 Mg -0.159928 11.7639 46.8533 1.2 -6.95768 2.01194e+06 -322399 969168 1.12808e+06 1.5706e+06 -781939
64 3 O 0.2623 13.1866 48.413 -1.2 -8.77108 -1.55483e+06 -1.3313e+06 -2.4466e+06 -206326 -290162 713721
65 1 Mg 1.34937 11.7201 54.6012 1.2 -8.01523 2.76696e+06 1.51289e+06 980693 606.146 48328.4 1.07117e+06
66 2 Si 1.2626 14.4649 56.402 2.4 -32.6518 7.409e+06 5.27366e+06 1.19384e+07 607478 -235015 106090
67 3 O 1.21959 12.9184 56.5448 -1.2 -9.91047 -3.0236e+06 -1.89867e+06 -4.15214e+06 149155 -228039 84842
68 3 O 1.36565 15.4813 52.729 -1.2 -9.40023 -2.52443e+06 -1.66513e+06 -4.56184e+06 430449 -422855 -485063
69 3 O 0.00479097 15.1584 55.7611 -1.2 -9.3167 -2.40313e+06 -2.58532e+06 -3.85754e+06 -674422 -631353 -11.1183
70 3 O 2.56861 15.1515 55.7336 -1.2 -9.27257 -1.78474e+06 -2.29183e+06 -3.74172e+06 1.31963e+06 319614 -514696
71 1 Mg -0.206989 14.1049 52.2121 1.2 -7.49689 -358842 -691812 4.87392e+06 -1.25393e+06 1.73316e+06 861673
72 1 Mg 1.82591 13.8102 49.4556 1.2 -7.77171 2.0972e+06 595452 306431 133180 -109967 371193
73 2 Si 1.29285 16.1518 51.2434 2.4 -32.8346 7.55833e+06 4.7342e+06 1.09026e+07 143011 485879 449875
74 3 O 1.39496 17.7199 51.3047 -1.2 -9.82785 -3.08392e+06 -1.85832e+06 -3.90199e+06 675004 -320949 461215
75 3 O 1.27984 15.2087 57.9172 -1.2 -9.4141 -2.71211e+06 -1.7514e+06 -4.07783e+06 436693 -484113 1.4847e+06
76 3 O -0.0269106 15.5178 50.6688 -1.2 -9.06818 -3.0388e+06 -2.34882e+06 -4.7695e+06 1.13197e+06 -786615 -460165
77 1 Mg -3.18391 14.1057 52.3125 1.2 -7.45942 -737269 -957598 4.30918e+06 1.67235e+06 -1.77506e+06 1.0183e+06
78 3 O 2.52432 15.503 50.4579 -1.2 -9.44821 -2.71532e+06 -2.12242e+06 -2.50798e+06 -364037 812822 -401198
79 1 Mg -1.70003 14.2016 55.1133 1.2 -8.27644 2.08006e+06 1.56522e+06 570464 -168114 18433.3 -741246
80 2 Si -1.71527 12.091 53.2689 2.4 -32.8897 5.99856e+06 5.05714e+06 1.20927e+07 -361982 223355 298854
81 3 O -1.78668 10.5264 53.2131 -1.2 -9.68383 -2.72654e+06 -2.02432e+06 -4.51685e+06 -104136 -217989 268191
82 3 O -1.21337 13.3381 46.4311 -1.2 -7.73315 -2.93911e+06 -2.04243e+06 -3.00064e+06 -631393 -1.45216e+06 847256
83 3 O -2.96507 12.8049 53.9691 -1.2 -9.31808 -2.66356e+06 -2.73277e+06 -3.8331e+06 -339725 233525 -53192.7
84 3 O -0.466582 12.739 53.9602 -1.2 -9.25503 -2.49952e+06 -2.50931e+06 -3.54395e+06 242471 -488145 44587
85 1 Mg -3.05441 21.2743 57.3839 1.2 -7.60327 -899101 -1.62958e+06 5.10333e+06 -1.3334e+06 -1.44823e+06 -919342
86 1 Mg -1.5831 21.1217 49.8405 1.2 -8.53553 944338 1.89704e+06 2.3659e+06 -181998 225851 672640
87 2 Si -1.09384 18.6291 47.9287 2.4 -34.4501 8.74284e+06 6.46024e+06 1.02862e+07 493423 2.32289e+06 -61870.9
88 3 O -1.02071 20.1985 47.9911 -1.2 -8.63712 -2.6548e+06 -3.99076e+06 -3.21836e+06 455283 -1.93065e+06 -257257
89 3 O -1.65002 17.5002 51.771 -1.2 -9.16004 -2.3247e+06 -2.27151e+06 -5.11994e+06 339836 -112611 -893560
90 3 O -2.26174 18.0434 48.8281 -1.2 -8.77426 -1.15157e+06 -3.24681e+06 -3.81742e+06 -20838.7 -364887 -1.3524e+06
91 1 Mg -0.0440435 16.5651 46.8269 1.2 -7.01323 2.03856e+06 -399297 1.0926e+06 1.13371e+06 1.58031e+06 -582222
92 3 O 0.37001 17.9877 48.3925 -1.2 -8.66449 -1.71427e+06 -1.37756e+06 -2.50867e+06 -285134 -331529 619820
93 1 Mg 1.37861 16.6667 54.5843 1.2 -8.16048 2.01578e+06 1.61422e+06 1.47515e+06 46488.8 21359.2 685581
94 2 Si 1.32283 19.271 56.396 2.4 -32.7903 7.22676e+06 5.31945e+06 1.19125e+07 -22073.6 -254908 -212697
95 3 O 1.37705 17.7041 56.4916 -1.2 -9.7834 -3.22496e+06 -975566 -4.08853e+06 -6375.97 92959.8 -207629
96 3 O 1.45147 20.239 52.7294 -1.2 -9.28825 -3.14797e+06 -2.15402e+06 -4.85167e+06 364682 -373126 -819279
97 3 O 0.0717227 19.9599 55.7515 -1.2 -9.27581 -2.70202e+06 -2.49077e+06 -4.32312e+06 -822764 -591583 290536
98 3 O 2.60885 19.9615 55.7241 -1.2 -9.28304 -2.1937e+06 -3.29199e+06 -3.88646e+06 1.17063e+06 539144 -228739
99 1 Mg -0.126194 18.8651 52.2079 1.2 -7.7691 -199340 -1.0242e+06 4.54597e+06 -1.30739e+06 1.79643e+06 883976
100 1 Mg 1.92402 18.5815 49.4545 1.2 -7.88615 2.25329e+06 386618 449564 112748 -134400 312820
101 2 Si 1.38106 20.9117 51.2443 2.4 -33.1046 8.12646e+06 4.66367e+06 1.08646e+07 170269 418156 422384
102 3 O 1.48527 22.4795 51.3054 -1.2 -9.71173 -3.25118e+06 -1.8561e+06 -4.04595e+06 732690 -304063 452594
103 3 O 1.33792 19.9719 57.9131 -1.2 -9.35858 -2.64469e+06 -1.54578e+06 -4.80179e+06 313634 -98998.9 1.46977e+06
104 3 O 0.0615419 20.2804 50.6669 -1.2 -8.90802 -3.24605e+06 -2.29019e+06 -4.93041e+06 1.1311e+06 -703163 -389410
105 1 Mg -3.09665 18.8643 52.3122 1.2 -7.6422 -415580 -1.17891e+06 4.06389e+06 1.65835e+06 -1.80405e+06 871604
106 3 O 2.61548 20.2646 50.4626 -1.2 -9.31602 -3.01596e+06 -2.02842e+06 -2.6489e+06 -342451 766994 -378574
107 1 Mg -1.64242 19 55.0697 1.2 -8.26432 2.41225e+06 1.41158e+06 1.27504e+06 38166.2 -80430.5 -1.00798e+06
108 2 Si -1.61246 16.829 53.2596 2.4 -32.7763 7.95918e+06 4.52164e+06 1.22654e+07 121958 -197242 -108003
109 3 O -1.69632 15.3096 53.2201 -1.2 -9.85565 -3.01689e+06 -2.42424e+06 -4.3378e+06 -6954.72 334571 1.03311e+06
110 3 O -1.12868 18.1227 46.4249 -1.2 -7.66681 -2.99838e+06 -1.99216e+06 -3.09109e+06 -604360 -1.4959e+06 742191
111 3 O -2.88686 17.6017 53.9725 -1.2 -9.26397 -1.0983e+06 -2.68998e+06 -4.07608e+06 -1.16102e+06 291500 649700
112 3 O -0.284804 17.545 53.867 -1.2 -9.30169 -1.5627e+06 -2.30632e+06 -3.98486e+06 1.3451e+06 -360823 613981
113 1 Mg -2.97702 26.0625 57.4615 1.2 -7.76344 -461191 -1.67009e+06 4.78138e+06 -1.2738e+06 -1.6199e+06 -1.11404e+06
114 1 Mg -1.48778 25.88 49.8402 1.2 -8.63231 1.07463e+06 1.8013e+06 2.46876e+06 -205908 242498 718598
115 2 Si -1.00491 23.3922 47.9274 2.4 -34.6101 8.99491e+06 6.37669e+06 1.03818e+07 493442 2.33829e+06 -130600
116 3 O -0.927602 24.9615 47.9909 -1.2 -8.55974 -2.78523e+06 -3.97673e+06 -3.30127e+06 461075 -1.93209e+06 -238059
117 3 O -1.55795 22.2588 51.7696 -1.2 -9.06987 -2.84369e+06 -2.25471e+06 -5.8884e+06 269676 -73983.8 -631978
118 3 O -2.17411 22.8111 48.8277 -1.2 -8.68384 -1.30457e+06 -3.27478e+06 -3.81976e+06 1082.32 -362939 -1.34739e+06
119 1 Mg 0.0423997 21.3296 46.8225 1.2 -7.0889 2.18153e+06 -515913 1.20069e+06 1.12671e+06 1.58935e+06 -591640
120 3 O 0.458537 22.7495 48.3911 -1.2 -8.57534 -1.84604e+06 -1.35402e+06 -2.55342e+06 -291768 -329927 652657
121 1 Mg 1.48715 21.3196 54.5173 1.2 -8.37325 2.19111e+06 1.34532e+06 1.02095e+06 -117491 114816 772670
122 2 Si 1.44865 24.0036 56.4293 2.4 -32.5339 7.39362e+06 5.52571e+06 1.18051e+07 174390 330929 699254
123 3 O 1.43372 22.447 56.4143 -1.2 -9.8023 -3.06807e+06 -1.48338e+06 -4.13672e+06 231263 -241421 10342.5
124 3 O 1.54441 24.9963 52.7297 -1.2 -9.17317 -3.15037e+06 -2.271e+06 -4.69508e+06 135240 -182139 -901677
125 3 O 0.164048 24.6887 55.7601 -1.2 -9.33013 -1.51969e+06 -2.61689e+06 -4.50922e+06 -681971 -770867 -400160
126 3 O 2.75748 24.731 55.7239 -1.2 -9.32396 -1.57136e+06 -2.89138e+06 -3.89515e+06 1.61973e+06 161254 -459058
127 1 Mg -0.0335968 23.6229 52.2067 1.2 -7.90464 -432892 -994002 4.66697e+06 -1.25315e+06 1.88684e+06 792949
128 1 Mg 2.01073 23.3445 49.4541 1.2 -7.97239 2.39977e+06 357751 477095 110957 -177848 281812
129 2 Si 1.47594 25.6699 51.2449 2.4 -33.3254 8.46429e+06 4.42735e+06 1.10687e+07 403789 328416 477450
130 3 O 1.58172 27.2371 51.3054 -1.2 -9.61832 -3.47294e+06 -1.70222e+06 -4.05812e+06 687605 -428395 550371
131 3 O 1.46113 24.6874 57.8973 -1.2 -9.552 -2.58724e+06 -1.53066e+06 -5.44492e+06 230536 -68312.2 1.41743e+06
132 3 O 0.157925 25.0378 50.6651 -1.2 -8.79702 -3.33598e+06 -2.26223e+06 -5.1031e+06 1.18079e+06 -713051 -393791
133 1 Mg -3.00341 23.6231 52.3098 1.2 -7.63131 21181 -1.12751e+06 4.0155e+06 1.84317e+06 -1.76857e+06 921866
134 3 O 2.71149 25.0232 50.4656 -1.2 -9.24015 -3.18088e+06 -2.04856e+06 -2.56216e+06 -382565 887126 -503764
135 1 Mg -1.56477 23.804 55.1429 1.2 -8.15724 1.78723e+06 1.57562e+06 1.38352e+06 307797 -186216 -776964
136 2 Si -1.53327 21.6163 53.2441 2.4 -33.1357 7.90367e+06 5.47924e+06 1.16557e+07 461123 86791.8 232644
137 3 O -1.61166 20.0288 53.1921 -1.2 -9.60076 -3.34982e+06 -1.16405e+06 -4.32757e+06 109878 261234 916604
138 3 O -1.03938 22.8897 46.4223 -1.2 -7.6002 -3.09157e+06 -1.93472e+06 -3.16172e+06 -606450 -1.50355e+06 766612
139 3 O -2.80639 22.3176 53.9196 -1.2 -9.22098 -2.19727e+06 -2.47132e+06 -4.55003e+06 -755321 925938 529130
140 3 O -0.205148 22.2746 53.8551 -1.2 -9.054 -1.81741e+06 -2.65071e+06 -4.20129e+06 1.01048e+06 -784505 618900
141 1 Mg -2.78645 30.7692 57.2992 1.2 -7.76672 -812456 -1.18562e+06 4.80073e+06 -1.23253e+06 -1.65931e+06 -666938
142 1 Mg -1.38776 30.6357 49.8391 1.2 -8.60086 1.03362e+06 1.98414e+06 2.27378e+06 -173963 235646 544855
143 2 Si -0.907929 28.1491 47.9262 2.4 -34.6933 9.12178e+06 6.32924e+06 1.04399e+07 490138 2.3209e+06 -374663
144 3 O -0.829229 29.7184 47.99 -1.2 -8.54376 -2.81515e+06 -4.0478e+06 -3.25375e+06 458333 -1.92693e+06 -107991
145 3 O -1.45946 27.0152 51.769 -1.2 -8.86816 -2.70353e+06 -1.90167e+06 -5.00256e+06 488233 246041 -952269
146 3 O -2.07744 27.5697 48.8273 -1.2 -8.62034 -1.37619e+06 -3.22192e+06 -3.9157e+06 14961.2 -365979 -1.25541e+06
147 1 Mg 0.137907 26.087 46.819 1.2 -7.14094 2.2689e+06 -572841 1.2611e+06 1.12444e+06 1.58941e+06 -645022
148 3 O 0.55579 27.5065 48.3893 -1.2 -8.52097 -1.94203e+06 -1.30627e+06 -2.58949e+06 -295711 -320131 758132
149 1 Mg 1.578 26.008 54.5814 1.2 -8.40692 2.59047e+06 1.00249e+06 1.41245e+06 277985 35146.4 1.26812e+06
150 2 Si 1.59148 28.7563 56.4059 2.4 -33.0123 7.33799e+06 4.48118e+06 1.21392e+07 324780 -203729 390724
151 3 O 1.52227 27.176 56.5127 -1.2 -9.46202 -3.26285e+06 -749950 -4.91583e+06 365710 33492.4 -326913
152 3 O 1.6432 29.7522 52.7291 -1.2 -9.24025 -3.23126e+06 -2.17773e+06 -4.76095e+06 76184.4 -485462 -702105
153 3 O 0.329877 29.4328 55.7676 -1.2 -9.36999 -2.35961e+06 -2.33903e+06 -4.66922e+06 -141182 -810402 87537.2
154 3 O 2.90162 29.3673 55.7002 -1.2 -9.25209 -2.25278e+06 -2.92967e+06 -5.1802e+06 1.34506e+06 615780 -309109
155 1 Mg 0.0647462 28.3794 52.2059 1.2 -7.91618 -3084.11 -1.08488e+06 4.73186e+06 -1.17505e+06 1.87263e+06 562334
156 1 Mg 2.10696 28.1021 49.4531 1.2 -8.02537 2.50594e+06 285166 536734 112570 -142585 145412
157 2 Si 1.57592 30.4257 51.2442 2.4 -33.2029 8.30409e+06 4.76008e+06 1.07014e+07 235500 456397 95886.6
158 3 O 1.68288 31.9926 51.3043 -1.2 -9.71774 -3.34384e+06 -1.96965e+06 -3.8071e+06 763483 -398846 568693
159 3 O 1.66996 29.4393 57.8724 -1.2 -9.32153 -3.10512e+06 -2.01799e+06 -5.4241e+06 -264987 -197734 614075
160 3 O 0.258524 29.7935 50.6632 -1.2 -8.82131 -3.37838e+06 -2.35482e+06 -4.94465e+06 1.12963e+06 -702650 -180235
161 1 Mg -2.90462 28.3797 52.308 1.2 -7.81397 -90352 -1.22704e+06 4.30254e+06 1.66937e+06 -1.78505e+06 691986
162 3 O 2.81205 29.7787 50.4664 -1.2 -9.23585 -3.16381e+06 -2.13197e+06 -2.60138e+06 -304373 830756 -246573
163 1 Mg -1.39605 28.4721 55.1771 1.2 -8.28396 1.93387e+06 935621 1.63123e+06 364304 138378 -827008
164 2 Si -1.42184 26.3438 53.2804 2.4 -33.4147 8.36321e+06 4.47737e+06 1.21046e+07 -436566 142127 -230765
165 3 O -1.43285 24.7867 53.2262 -1.2 -9.54158 -3.66312e+06 -2.04289e+06 -4.22956e+06 269915 87502.4 691881
166 3 O -0.943026 27.648 46.4208 -1.2 -7.56433 -3.1456e+06 -1.91545e+06 -3.1931e+06 -604507 -1.505e+06 853178
167 3 O -2.69785 27.0392 53.9309 -1.2 -9.0203 -2.14659e+06 -2.47678e+06 -4.72639e+06 -626025 871884 221458
168 3 O -0.10838 26.9919 53.9053 -1.2 -9.0145 -2.18067e+06 -2.5736e+06 -3.81811e+06 769202 -639672 234867
169 1 Mg -2.69082 35.5799 57.4198 1.2 -7.43198 -738043 -1.48003e+06 4.72217e+06 -1.03532e+06 -1.56621e+06 -924814
170 1 Mg -1.28421 35.3899 49.8376 1.2 -8.59721 966665 2.05466e+06 2.26407e+06 -193238 225912 680858
171 2 Si -0.807101 32.9036 47.9247 2.4 -34.6599 9.05844e+06 6.57003e+06 1.02122e+07 485363 2.32442e+06 -361720
172 3 O -0.727174 34.4729 47.9885 -1.2 -8.56122 -2.78094e+06 -4.13546e+06 -3.18051e+06 464481 -1.92322e+06 -157453
173 3 O -1.35735 31.7701 51.768 -1.2 -8.94244 -2.77469e+06 -2.58955e+06 -6.12637e+06 223774 -229198 -749360
174 3 O -1.97695 32.3253 48.826 -1.2 -8.64804 -1.33303e+06 -3.39115e+06 -3.74058e+06 11140 -371554 -1.261e+06
175 1 Mg 0.237665 30.8412 46.8168 1.2 -7.14359 2.27623e+06 -499070 1.18786e+06 1.12332e+06 1.58993e+06 -719889
176 3 O 0.656562 32.2608 48.3877 -1.2 -8.54009 -1.90423e+06 -1.44754e+06 -2.44616e+06 -290131 -316061 776639
177 1 Mg 1.70991 30.7965 54.5393 1.2 -8.16287 2.17332e+06 1.40967e+06 1.07297e+06 -439188 403623 814951
178 2 Si 1.74846 33.4872 56.331 2.4 -32.9417 6.16499e+06 4.44611e+06 1.23996e+07 77652.7 24150.3 7209.63
179 3 O 1.74046 31.9257 56.4231 -1.2 -9.77531 -3.08685e+06 -1.86779e+06 -5.01147e+06 199017 -120187 62842.5
180 3 O 1.74574 34.5067 52.7279 -1.2 -9.32229 -2.97639e+06 -2.17066e+06 -5.09668e+06 72672.7 -349773 -832865
181 3 O 0.482667 34.1385 55.6985 -1.2 -9.33344 -2.78559e+06 -2.47629e+06 -4.361e+06 -162530 -816772 235333
182 3 O 3.00853 34.1414 55.6114 -1.2 -9.29309 -2.03702e+06 -2.28128e+06 -4.02144e+06 365189 508031 126964
183 1 Mg 0.167046 33.1343 52.2045 1.2 -7.86723 -527949 -1.20748e+06 4.33887e+06 -907237 2.05024e+06 462798
184 1 Mg 2.20727 32.8578 49.4516 1.2 -7.98742 2.47083e+06 446953 360576 119136 -156363 177697
185 2 Si 1.67943 35.1802 51.2429 2.4 -33.1104 8.32853e+06 4.88449e+06 1.04095e+07 362390 449128 344148
186 3 O 1.78736 36.747 51.303 -1.2 -9.74918 -3.43873e+06 -1.91685e+06 -3.67489e+06 733855 -439783 392978
187 3 O 1.78163 34.1689 57.8313 -1.2 -9.39384 -2.06768e+06 -1.87214e+06 -4.79274e+06 351066 -463388 1.16488e+06
188 3 O 0.362533 34.5479 50.661 -1.2 -8.83537 -3.40785e+06 -2.49461e+06 -4.918e+06 1.1264e+06 -589425 -230642
189 1 Mg -2.80215 33.1347 52.3062 1.2 -7.64028 -233917 -1.1347e+06 4.09135e+06 1.58891e+06 -1.90066e+06 647106
190 3 O 2.91593 34.533 50.466 -1.2 -9.26605 -3.17297e+06 -2.26234e+06 -2.46152e+06 -328299 785537 -396926
191 1 Mg -1.23207 33.135 55.1002 1.2 -8.06027 2.39094e+06 1.18249e+06 1.07464e+06 -17942.2 -135665 -866636
192 2 Si -1.34726 31.0882 53.2331 2.4 -33.2311 7.11267e+06 5.05305e+06 1.12485e+07 339436 -172919 -772979
193 3 O -1.38064 29.5212 53.1823 -1.2 -9.50456 -3.45542e+06 -1.7893e+06 -4.27196e+06 224638 537484 533765
194 3 O -0.842495 32.4028 46.4192 -1.2 -7.57113 -3.13272e+06 -2.00319e+06 -3.10737e+06 -604885 -1.50577e+06 885786
195 3 O -2.62823 31.7309 53.9107 -1.2 -9.20495 -3.01219e+06 -3.24647e+06 -4.84812e+06 -713609 1.22782e+06 84524.1
196 3 O -0.0791799 31.7916 53.8674 -1.2 -9.21461 -2.4185e+06 -2.79916e+06 -4.55618e+06 637717 -1.06943e+06 421046
197 1 Mg -2.60796 40.305 57.3923 1.2 -7.60716 -1.20741e+06 -2.10854e+06 4.74409e+06 -1.14117e+06 -1.73466e+06 -510726
198 1 Mg -1.17787 40.1435 49.8359 1.2 -8.5326 897965 2.07151e+06 2.20855e+06 -178596 213920 672157
199 2 Si -0.702692 37.6572 47.9231 2.4 -34.607 8.97277e+06 6.61455e+06 1.01656e+07 487819 2.30645e+06 -316331
200 3 O -0.621782 39.2264 47.9868 -1.2 -8.59828 -2.72671e+06 -4.1719e+06 -3.14908e+06 461358 -1.91952e+06 -173168
201 3 O -1.25221 36.5242 51.7666 -1.2 -8.86622 -2.42369e+06 -2.05781e+06 -5.04576e+06 375793 345744 -1.36639e+06
202 3 O -1.87295 37.0796 48.8243 -1.2 -8.66595 -1.27607e+06 -3.40278e+06 -3.76316e+06 18393.4 -372339 -1.31346e+06
203 1 Mg 0.341084 35.5943 46.8152 1.2 -7.12498 2.24947e+06 -447928 1.13558e+06 1.12248e+06 1.58667e+06 -693854
204 3 O 0.760681 37.0138 48.3864 -1.2 -8.56398 -1.87831e+06 -1.46546e+06 -2.41482e+06 -293668 -308256 732056
205 1 Mg 1.78962 35.5907 54.5151 1.2 -8.16983 1.78901e+06 1.49167e+06 1.05441e+06 -116630 -26691.9 770572
206 2 Si 1.87861 38.2337 56.3928 2.4 -32.5045 7.40189e+06 4.00388e+06 1.19819e+07 267925 282640 625562
207 3 O 1.78085 36.709 56.4769 -1.2 -9.99164 -2.95964e+06 -2.40313e+06 -4.53803e+06 324710 -202517 299367
208 3 O 1.85132 39.2606 52.7264 -1.2 -9.3723 -3.04353e+06 -2.06147e+06 -4.93626e+06 107674 -286202 -969838
209 3 O 0.585012 38.9046 55.6636 -1.2 -9.26891 -1.43782e+06 -2.58944e+06 -3.64196e+06 -711730 -221852 -334515
210 3 O 3.15255 38.8897 55.7006 -1.2 -9.3375 -2.32275e+06 -2.4537e+06 -4.3818e+06 764979 380284 -544812
211 1 Mg 0.272384 37.8883 52.2029 1.2 -7.81745 -77038.7 -969069 4.62756e+06 -989186 1.74388e+06 730352
212 1 Mg 2.31122 37.6122 49.4501 1.2 -7.96193 2.4421e+06 442783 361526 110949 -124235 238771
213 2 Si 1.78573 39.934 51.2414 2.4 -33.0096 8.08085e+06 4.84487e+06 1.05118e+07 299496 518264 462407
214 3 O 1.89428 41.5006 51.3014 -1.2 -9.80745 -3.19383e+06 -2.00914e+06 -3.77649e+06 715674 -531016 366433
215 3 O 1.87041 38.9912 57.857 -1.2 -9.6237 -2.66769e+06 -1.86933e+06 -5.3058e+06 -19662.3 -241513 1.41013e+06
216 3 O 0.469216 39.3015 50.6588 -1.2 -8.91013 -3.29116e+06 -2.4528e+06 -4.76953e+06 1.12078e+06 -703986 -325758
217 1 Mg -2.69668 37.8889 52.3043 1.2 -7.71549 -268590 -1.02345e+06 4.09713e+06 1.43037e+06 -1.67569e+06 810726
218 3 O 3.0225 39.2866 50.4651 -1.2 -9.30528 -3.04226e+06 -2.25781e+06 -2.52526e+06 -281290 791071 -411058
219 1 Mg -1.12643 37.9085 55.083 1.2 -8.22348 2.16906e+06 1.32682e+06 1.20316e+06 -74876.5 51713.8 -689107
220 2 Si -1.22432 35.776 53.2599 2.4 -32.9868 7.62721e+06 5.03104e+06 1.23039e+07 282871 269255 -514017
221 3 O -1.25105 34.2475 53.1233 -1.2 -9.76071 -3.45923e+06 -3.02775e+06 -4.86194e+06 662481 626550 493204
222 3 O -0.738054 37.1566 46.4176 -1.2 -7.59354 -3.09591e+06 -2.04391e+06 -3.07157e+06 -605623 -1.50319e+06 868441
223 3 O -2.47549 36.5025 53.9144 -1.2 -9.25271 -2.41644e+06 -2.75992e+06 -4.78734e+06 -1.17422e+06 1.06721e+06 406168
224 3 O 0.0824901 36.5136 53.9054 -1.2 -9.23328 -1.79056e+06 -2.21795e+06 -3.89874e+06 1.51301e+06 -598902 345265
225 1 Mg -2.5141 45.0345 57.2688 1.2 -7.49161 -1.07595e+06 -1.34847e+06 4.60308e+06 -1.21674e+06 -1.78513e+06 -518860
226 1 Mg -1.06993 44.8968 49.8343 1.2 -8.46083 805543 2.12058e+06 2.14067e+06 -162475 211871 706811
227 2 Si -0.596166 42.4103 47.9215 2.4 -34.5071 8.82644e+06 6.7076e+06 1.00649e+07 487238 2.30753e+06 -226023
228 3 O -0.51472 43.9796 47.9853 -1.2 -8.64916 -2.65084e+06 -4.20832e+06 -3.10119e+06 460784 -1.9206e+06 -230430
229 3 O -1.14475 41.2777 51.7649 -1.2 -9.05329 -2.48295e+06 -2.52382e+06 -5.4181e+06 432908 -37406.5 -1.07568e+06
230 3 O -1.76671 41.8331 48.8226 -1.2 -8.72308 -1.19315e+06 -3.4568e+06 -3.69587e+06 16720.5 -361258 -1.35849e+06
231 1 Mg 0.447076 40.3473 46.8135 1.2 -7.08749 2.191e+06 -404878 1.09071e+06 1.12399e+06 1.58839e+06 -673754
232 3 O 0.866985 41.7666 48.385 -1.2 -8.61542 -1.79163e+06 -1.51379e+06 -2.36698e+06 -291583 -316480 696397
233 1 Mg 1.87089 40.2805 54.5377 1.2 -8.17892 2.51758e+06 1.35442e+06 947529 60128.8 163464 884555
234 2 Si 1.91412 42.9741 56.3226 2.4 -32.4835 7.28104e+06 4.92733e+06 1.11179e+07 183440 -91393.2 138856
235 3 O 1.8978 41.4198 56.4117 -1.2 -9.90604 -3.23137e+06 -1.73701e+06 -4.73477e+06 85547.9 462018 -388372
236 3 O 1.95891 44.014 52.7248 -1.2 -9.39025 -2.85111e+06 -1.92874e+06 -4.69082e+06 519605 -297905 -914185
237 3 O 0.636008 43.6918 55.6838 -1.2 -9.46361 -1.8522e+06 -2.59157e+06 -4.23422e+06 -708386 -593200 -186091
238 3 O 3.20775 43.6944 55.6571 -1.2 -9.33579 -1.46311e+06 -2.63783e+06 -4.95152e+06 1.06825e+06 636007 -505685
239 1 Mg 0.379928 42.6418 52.2013 1.2 -7.68861 -299030 -961161 4.3409e+06 -1.02149e+06 1.98649e+06 745343
240 1 Mg 2.41752 42.366 49.4484 1.2 -7.90408 2.32831e+06 490944 341739 115977 -129144 292060
241 2 Si 1.89374 44.6874 51.2398 2.4 -32.869 7.73166e+06 4.89892e+06 1.05912e+07 164975 478157 511493
242 3 O 2.00266 46.254 51.2996 -1.2 -9.90792 -2.99244e+06 -2.09996e+06 -3.60347e+06 754641 -320598 298388
243 3 O 1.96803 43.6577 57.7781 -1.2 -9.62066 -2.7832e+06 -2.46162e+06 -6.28128e+06 -117741 239327 987981
244 3 O 0.577464 44.0549 50.6567 -1.2 -8.97442 -3.25238e+06 -2.46047e+06 -4.82487e+06 1.09387e+06 -666349 -365688
245 1 Mg -2.58906 42.6425 52.3022 1.2 -7.62891 -733839 -1.21003e+06 3.87444e+06 1.53656e+06 -2.0571e+06 909242
246 3 O 3.13067 44.0398 50.464 -1.2 -9.36315 -2.95961e+06 -2.25379e+06 -2.60612e+06 -262833 753264 -433285
247 1 Mg -1.06977 42.6931 54.9915 1.2 -8.05138 2.2913e+06 1.46258e+06 1.08159e+06 84714.8 -38756.5 -978530
248 2 Si -1.13491 40.5885 53.2463 2.4 -32.9072 7.2261e+06 4.9917e+06 1.20403e+07 -343997 -411850 -443452
249 3 O -1.19572 39.0284 53.1775 -1.2 -9.65813 -3.14936e+06 -1.78474e+06 -4.61043e+06 65778.6 304334 366822
250 3 O -0.631421 41.9099 46.4159 -1.2 -7.63358 -3.03418e+06 -2.09046e+06 -3.02135e+06 -605182 -1.50352e+06 837450
251 3 O -2.4315 41.316 53.9135 -1.2 -9.25066 -1.52973e+06 -2.52278e+06 -4.68763e+06 -824738 425368 329954
252 3 O 0.128476 41.2709 53.888 -1.2 -9.41126 -2.46459e+06 -2.49754e+06 -4.58874e+06 693761 -911742 265025
253 1 Mg -2.38276 49.7848 57.3082 1.2 -7.53997 -1.0594e+06 -1.31563e+06 4.66058e+06 -941443 -1.79617e+06 -698559
254 1 Mg -0.961069 49.6502 49.8327 1.2 -8.4783 822352 1.94724e+06 2.32398e+06 -180182 234998 864191
255 2 Si -0.488083 47.1636 47.9198 2.4 -34.4329 8.70619e+06 6.70207e+06 1.00711e+07 487073 2.31999e+06 -1327.78
256 3 O -0.40607 48.7329 47.9837 -1.2 -8.67213 -2.60845e+06 -4.13554e+06 -3.17633e+06 463673 -1.92546e+06 -338758
257 3 O -1.0361 46.031 51.7632 -1.2 -9.1863 -2.19695e+06 -2.80107e+06 -6.31156e+06 307670 -42958.3 -879531
258 3 O -1.65866 46.5866 48.821 -1.2 -8.77289 -1.12638e+06 -3.48177e+06 -3.65433e+06 10884.9 -365376 -1.47862e+06
259 1 Mg 0.554124 45.1001 46.8117 1.2 -7.04606 2.12475e+06 -373032 1.05957e+06 1.12304e+06 1.58959e+06 -605805
260 3 O 0.974961 46.5195 48.3832 -1.2 -8.65884 -1.71099e+06 -1.53443e+06 -2.35088e+06 -286812 -315035 586988
261 1 Mg 1.97669 45.1156 54.5716 1.2 -8.09278 2.47137e+06 1.13512e+06 944611 96492 -114353 1.04784e+06
262 2 Si 1.99406 47.726 56.3579 2.4 -32.6059 6.44603e+06 4.05273e+06 1.13045e+07 798440 58150.6 422414
263 3 O 1.97451 46.168 56.424 -1.2 -9.89737 -3.32747e+06 -2.49598e+06 -4.96037e+06 267095 -146217 -623229
264 3 O 2.0677 48.7672 52.7232 -1.2 -9.38259 -3.08666e+06 -2.39131e+06 -4.81919e+06 156122 -370277 -1.31353e+06
265 3 O 0.741406 48.3961 55.6998 -1.2 -9.52109 -2.77244e+06 -2.79576e+06 -4.8417e+06 -541658 -979053 -13975.8
266 3 O 3.28352 48.4125 55.682 -1.2 -9.34904 -1.97321e+06 -3.13059e+06 -5.15897e+06 1.19633e+06 861296 -407530
267 1 Mg 0.488584 47.395 52.1996 1.2 -7.69081 -644060 -983703 4.48268e+06 -992354 1.83004e+06 709757
268 1 Mg 2.52544 47.1195 49.4466 1.2 -7.85662 2.2634e+06 514094 311127 114411 -154041 429705
269 2 Si 2.00256 49.4407 51.2382 2.4 -32.9738 7.97758e+06 4.64904e+06 1.07887e+07 311104 427494 1.01817e+06
270 3 O 2.11156 51.0073 51.2982 -1.2 -9.79712 -3.21678e+06 -1.80061e+06 -4.04207e+06 758186 -350539 257388
271 3 O 2.04698 48.3867 57.8124 -1.2 -9.41724 -2.87315e+06 -2.45174e+06 -6.62728e+06 272994 48593.1 712373
272 3 O 0.686344 48.8082 50.655 -1.2 -8.94893 -3.20791e+06 -2.3989e+06 -5.0238e+06 1.108e+06 -612137 -547529
273 1 Mg -2.48039 47.3957 52.3005 1.2 -7.5003 -433123 -1.02006e+06 4.11474e+06 1.62214e+06 -1.66515e+06 919491
274 3 O 3.23944 48.7932 50.4623 -1.2 -9.37996 -2.97247e+06 -2.18032e+06 -2.55196e+06 -290043 809099 -680662
275 1 Mg -0.986473 47.4453 55.0823 1.2 -8.13297 1.81544e+06 1.44927e+06 720636 -105194 -137888 -462209