ITEM: TIMESTEP
21800
ITEM: NUMBER OF ATOMS
10500
ITEM: BOX BOUNDS xy xz yz pp pp pp
0.0000000000000000e+00 8.9687999999999999e+00 2.9895999999999998e+00
0.0000000000000000e+00 1.1872499999999999e+02 0.0000000000000000e+00
0.0000000000000000e+00 2.5297749999999999e+02 0.0000000000000000e+00
ITEM: ATOMS id type element xu yu zu q c_pe c_s[1] c_s[2] c_s[3] c_s[4] c_s[5] c_s[6]
1 1 Mg -3.40846 6.95909 57.4236 1.2 -8.07115 251170 -1.12822e+06 4.40889e+06 -1.76286e+06 -1.56877e+06 -997285
2 1 Mg -1.82655 6.90154 50.0912 1.2 -8.40709 392725 1.31876e+06 969205 -109510 -164508 1.4068e+06
3 2 Si -0.257935 3.96038 48.0876 2.4 -36.6699 1.10048e+07 9.24484e+06 1.03564e+07 810228 1.95581e+06 2.00965e+06
4 3 O -0.335812 5.46814 47.6264 -1.2 -7.52838 -3.49289e+06 -2.73203e+06 -2.26853e+06 141248 -968586 -651425
5 3 O -2.03793 3.43377 51.8941 -1.2 -8.37289 -3.5847e+06 -2.26302e+06 -5.62016e+06 -980628 40968.9 -2.20889e+06
6 3 O -1.54015 3.53929 48.9521 -1.2 -7.96033 -1.82047e+06 -1.85113e+06 -4.13726e+06 15255.4 -728907 -417302
7 1 Mg 1.82954 2.54582 47.1376 1.2 -8.2984 3.10057e+06 -217985 463825 1.14641e+06 836640 732338
8 3 O 1.22989 3.66364 48.7877 -1.2 -7.69087 -2.19952e+06 -2.59969e+06 -3.44408e+06 -470817 -716804 -1.15037e+06
9 1 Mg 0.989743 2.3574 54.632 1.2 -8.5482 3.25934e+06 974794 2.2558e+06 64377.9 5618.34 1.46536e+06
10 2 Si 0.937214 5.03349 56.4952 2.4 -34.2409 9.76141e+06 3.26105e+06 1.29849e+07 -743184 -877333 -324690
11 3 O 0.959845 3.544 56.6775 -1.2 -9.08713 -4.88043e+06 -3.855e+06 -5.41749e+06 -358445 878923 152065
12 3 O 1.10813 6.07342 52.8172 -1.2 -8.81854 -3.75742e+06 -2.64916e+06 -4.86156e+06 264371 -127027 -1.42741e+06
13 3 O -0.280244 5.74048 55.744 -1.2 -8.48214 -3.17172e+06 -1.5443e+06 -4.54606e+06 -566746 -306491 178631
14 3 O 2.27843 5.65709 55.77 -1.2 -8.52706 -3.46329e+06 -3.42149e+06 -3.3007e+06 1.82036e+06 300032 -546860
15 1 Mg -0.459401 4.67631 52.2426 1.2 -8.46524 30147.1 -1.31045e+06 5.22375e+06 -1.29108e+06 1.33669e+06 1.66104e+06
16 1 Mg 2.79456 3.9971 49.9987 1.2 -8.72446 4.17173e+06 74827.2 1.48649e+06 -540583 882739 -684835
17 2 Si 1.16169 6.59457 51.2556 2.4 -33.9677 7.90346e+06 6.38826e+06 1.14951e+07 133448 311814 2.78409e+06
18 3 O 1.28989 8.18905 51.2909 -1.2 -9.41627 -3.0495e+06 -1.87781e+06 -3.41472e+06 196665 -901336 645723
19 3 O 0.99729 5.8613 57.947 -1.2 -8.57312 -4.1244e+06 -2.28029e+06 -4.247e+06 -420844 1.05834e+06 1.37153e+06
20 3 O -0.184847 6.06029 50.6845 -1.2 -8.48004 -3.27634e+06 -3.23693e+06 -5.09499e+06 1.45034e+06 -338697 -1.52749e+06
21 1 Mg -3.49704 4.67769 52.6661 1.2 -7.98465 687909 -1.974e+06 3.38142e+06 1.98983e+06 -1.22889e+06 1.3226e+06
22 3 O 2.48581 5.93312 50.6539 -1.2 -9.0377 -3.55892e+06 -1.57382e+06 -3.07983e+06 -1.55197e+06 -606873 -943273
23 1 Mg -2.00689 4.7604 55.2856 1.2 -8.88789 2.126e+06 716832 599667 659191 -573947 -706339
24 2 Si -1.91016 2.68363 53.3542 2.4 -34.3913 7.40451e+06 3.22183e+06 1.30462e+07 1.21091e+06 -838341 778575
25 3 O -2.00779 1.1419 53.2453 -1.2 -9.10929 -3.66295e+06 -2.58736e+06 -4.09246e+06 -209157 346918 285356
26 3 O -0.0467762 2.97103 46.8385 -1.2 -6.71519 -3.44074e+06 -2.43124e+06 -2.5934e+06 -989969 -2.00191e+06 -808534
27 3 O -3.0642 3.32728 54.2345 -1.2 -8.63346 -3.34994e+06 -3.23421e+06 -4.85118e+06 -229621 805397 -531223
28 3 O -0.607359 3.28942 53.8941 -1.2 -8.53077 -5.78757e+06 -2.91598e+06 -5.35596e+06 524015 -241796 -560228
29 1 Mg -3.26059 11.8586 57.3005 1.2 -8.12525 613469 -916886 4.15415e+06 -1.11188e+06 -1.71331e+06 -682158
30 1 Mg -1.75014 11.5838 49.8362 1.2 -8.70238 1.18357e+06 2.04061e+06 2.41636e+06 -328782 254782 894715
31 2 Si -1.18003 9.02138 47.9309 2.4 -34.8667 9.14433e+06 7.83672e+06 9.08818e+06 225478 2.62071e+06 557862
32 3 O -1.23224 10.5991 47.9811 -1.2 -8.48748 -2.86478e+06 -3.83259e+06 -2.54629e+06 659112 -1.91703e+06 -52469.7
33 3 O -1.79016 8.01447 51.8693 -1.2 -9.02691 -3.1039e+06 -2.92504e+06 -6.61148e+06 423523 -72486.7 -1.01884e+06
34 3 O -2.30986 8.37215 48.8528 -1.2 -8.7553 -1.38431e+06 -2.90111e+06 -2.98179e+06 -328442 -611704 -963435
35 1 Mg 0.154883 7.08234 46.8007 1.2 -7.76848 2.28223e+06 175033 472016 944101 1.72499e+06 -907159
36 3 O 0.325447 8.50934 48.3809 -1.2 -8.39335 -1.77703e+06 -2.31861e+06 -2.3973e+06 -35417.8 -828988 257913
37 1 Mg 1.15132 7.21604 54.5611 1.2 -8.83545 2.75716e+06 1.85845e+06 697565 238150 343165 941211
38 2 Si 1.19021 9.86803 56.459 2.4 -34.198 8.09213e+06 5.27041e+06 1.00745e+07 -742525 -1.06211e+06 723512
39 3 O 1.15092 8.31415 56.4369 -1.2 -9.03547 -4.33876e+06 -2.73961e+06 -4.05345e+06 101038 102891 -222652
40 3 O 1.28624 10.7248 52.7351 -1.2 -9.06642 -3.54175e+06 -1.82385e+06 -4.52972e+06 326136 -499724 -789599
41 3 O -0.0465793 10.538 55.7858 -1.2 -8.52506 -4.31735e+06 -3.71905e+06 -4.72447e+06 -255756 -1.14512e+06 145739
42 3 O 2.44926 10.571 55.7538 -1.2 -8.62984 -4.28851e+06 -4.82865e+06 -3.80794e+06 1.29843e+06 352373 -353066
43 1 Mg -0.262694 9.34741 52.2523 1.2 -7.92115 173562 -130859 4.88216e+06 -1.59529e+06 1.19793e+06 1.1741e+06
44 1 Mg 1.87648 9.01537 49.4629 1.2 -8.08434 2.32358e+06 827110 17647.2 259575 -277916 449993
45 2 Si 1.21415 11.3799 51.2378 2.4 -33.5177 9.0834e+06 4.94824e+06 1.05667e+07 362310 564554 812587
46 3 O 1.31634 12.9512 51.3023 -1.2 -9.57122 -3.58632e+06 -1.77093e+06 -3.60314e+06 617796 -511656 619689
47 3 O 1.16409 10.4523 57.9371 -1.2 -8.70233 -3.68824e+06 -2.25461e+06 -6.00783e+06 -200453 -329072 328642
48 3 O -0.115718 10.7564 50.681 -1.2 -8.69106 -3.4029e+06 -2.48704e+06 -4.52342e+06 1.32547e+06 -558229 -851971
49 1 Mg -3.26386 9.35564 52.3622 1.2 -7.81196 75805.7 -1.00221e+06 3.68036e+06 2.16012e+06 -1.4653e+06 1.58848e+06
50 3 O 2.45216 10.7265 50.4558 -1.2 -9.1783 -3.16147e+06 -2.00935e+06 -2.15082e+06 -878353 525309 -294812
51 1 Mg -1.77001 9.50128 55.1592 1.2 -8.85192 3.61261e+06 1.90572e+06 -32720.6 147110 -87824.3 -369205
52 2 Si -1.85972 7.36659 53.3349 2.4 -34.0581 8.46617e+06 3.52187e+06 1.1045e+07 -816402 -330606 1.20728e+06
53 3 O -1.92558 5.86902 53.3073 -1.2 -9.04106 -4.1715e+06 -4.32364e+06 -5.25967e+06 -26956 -507917 -400918
54 3 O -1.19417 8.46968 46.4488 -1.2 -7.39478 -3.11689e+06 -2.34497e+06 -2.64532e+06 -541080 -1.7439e+06 744334
55 3 O -3.14225 8.14225 53.9824 -1.2 -8.65745 -3.84204e+06 -2.91427e+06 -4.36312e+06 -792076 485255 32410.1
56 3 O -0.630831 8.06104 54.0528 -1.2 -8.58552 -3.92663e+06 -3.99997e+06 -4.1437e+06 895527 -1.14652e+06 97775.6
57 1 Mg -3.096 16.6019 57.6088 1.2 -8.20648 605444 -1.12309e+06 3.55634e+06 -200625 -1.83772e+06 -673736
58 1 Mg -1.6714 16.3544 49.8412 1.2 -8.58657 964238 2.26929e+06 2.09442e+06 -199632 228391 455918
59 2 Si -1.18567 13.8526 47.9314 2.4 -34.7277 9.19268e+06 6.75002e+06 9.93017e+06 503748 2.24468e+06 -545449
60 3 O -1.09664 15.4205 47.9915 -1.2 -8.56362 -2.70536e+06 -4.20076e+06 -2.89972e+06 423768 -1.92756e+06 -5403.76
61 3 O -1.73493 12.7491 51.7772 -1.2 -8.78199 -2.53041e+06 -2.52527e+06 -4.50974e+06 345474 523912 -472726
62 3 O -2.36115 13.2717 48.8238 -1.2 -8.58591 -1.47242e+06 -3.2945e+06 -3.6675e+06 -103016 -372489 -1.14371e+06
63 1 Mg -0.159928 11.7639 46.8533 1.2 -7.21302 2.4213e+06 -304474 951027 1.12671e+06 1.56946e+06 -858075
64 3 O 0.2623 13.1866 48.413 -1.2 -8.49981 -1.99568e+06 -1.35362e+06 -2.4157e+06 -201735 -281033 868776
65 1 Mg 1.33463 11.8299 54.5433 1.2 -8.8255 2.82681e+06 1.5437e+06 224141 34481.3 -254866 1.28038e+06
66 2 Si 1.36053 14.5166 56.3414 2.4 -34.2947 8.23819e+06 5.98505e+06 1.03243e+07 500231 416897 314204
67 3 O 1.29014 12.9687 56.381 -1.2 -9.0986 -3.93824e+06 -3.8317e+06 -4.29914e+06 502171 -457637 -1.20601e+06
68 3 O 1.36565 15.4813 52.729 -1.2 -9.22569 -3.20139e+06 -1.82483e+06 -5.06069e+06 311717 -229793 -773051
69 3 O 0.0775973 15.2597 55.7453 -1.2 -8.54153 -4.07699e+06 -3.95462e+06 -4.57376e+06 -442687 -893145 12985.7
70 3 O 2.57025 15.2506 55.7013 -1.2 -8.51738 -4.67613e+06 -3.86478e+06 -3.45444e+06 520068 1.22248e+06 -51232.6
71 1 Mg -0.206989 14.1049 52.2121 1.2 -7.92923 -45830.4 -790766 4.4577e+06 -1.3409e+06 2.01161e+06 955631
72 1 Mg 1.82591 13.8102 49.4556 1.2 -8.0562 2.58726e+06 626653 241329 121230 -103858 152865
73 2 Si 1.29285 16.1518 51.2434 2.4 -33.1117 8.39468e+06 5.03775e+06 1.01953e+07 259048 329776 -214791
74 3 O 1.39496 17.7199 51.3047 -1.2 -9.85393 -3.09499e+06 -2.25974e+06 -3.17663e+06 706640 -397784 725056
75 3 O 1.32979 15.136 57.8612 -1.2 -8.55349 -3.35821e+06 -2.84101e+06 -4.64354e+06 559271 -431670 1.62341e+06
76 3 O -0.0269106 15.5178 50.6688 -1.2 -8.81005 -3.41187e+06 -2.47628e+06 -4.78253e+06 1.14891e+06 -607318 -147434
77 1 Mg -3.18391 14.1057 52.3125 1.2 -7.80546 -29398.4 -748414 3.95612e+06 1.76728e+06 -1.85389e+06 991331
78 3 O 2.52432 15.503 50.4579 -1.2 -9.23938 -3.14814e+06 -2.28549e+06 -2.20642e+06 -383077 777372 -121795
79 1 Mg -1.65355 14.2909 55.0603 1.2 -8.60207 3.49484e+06 1.85004e+06 269664 -111903 -95483.4 -211216
80 2 Si -1.67045 12.135 53.3106 2.4 -33.9256 8.43741e+06 3.47726e+06 1.16014e+07 -59752.9 425085 -173128
81 3 O -1.73517 10.6322 53.305 -1.2 -9.07544 -3.96385e+06 -4.08756e+06 -4.09658e+06 309120 139750 784288
82 3 O -1.21337 13.3381 46.4311 -1.2 -7.51246 -3.29067e+06 -2.10642e+06 -2.93856e+06 -631568 -1.45142e+06 1.00195e+06
83 3 O -2.94947 12.8304 53.9596 -1.2 -8.80263 -2.91011e+06 -3.88084e+06 -4.32624e+06 -233650 1.18665e+06 90623.2
84 3 O -0.373355 12.8016 53.944 -1.2 -8.84029 -2.93737e+06 -3.61902e+06 -3.45913e+06 264237 -876663 308203
85 1 Mg -3.07915 21.396 57.3611 1.2 -7.59364 -1.3455e+06 -696417 3.34533e+06 -726850 -1.85213e+06 -1.14925e+06
86 1 Mg -1.5831 21.1217 49.8405 1.2 -8.55212 896921 2.43146e+06 1.90617e+06 -207809 239258 683625
87 2 Si -1.09384 18.6291 47.9287 2.4 -34.6138 8.98156e+06 7.33422e+06 9.43569e+06 494962 2.32622e+06 -454778
88 3 O -1.02071 20.1985 47.9911 -1.2 -8.59197 -2.71461e+06 -4.48237e+06 -2.74077e+06 457657 -1.92983e+06 -154086
89 3 O -1.65002 17.5002 51.771 -1.2 -9.17681 -1.77927e+06 -2.39225e+06 -4.2081e+06 398680 421602 -393118
90 3 O -2.26174 18.0434 48.8281 -1.2 -8.68498 -1.287e+06 -3.68139e+06 -3.39683e+06 -19175.5 -383970 -1.0986e+06
91 1 Mg -0.0440435 16.5651 46.8269 1.2 -7.15827 2.26906e+06 -138898 834095 1.13389e+06 1.57624e+06 -822214
92 3 O 0.37001 17.9877 48.3925 -1.2 -8.56885 -1.86679e+06 -1.7878e+06 -2.10247e+06 -287013 -317340 857968
93 1 Mg 1.35519 16.6096 54.4773 1.2 -8.59067 2.09001e+06 1.24879e+06 580144 543544 -47801 996479
94 2 Si 1.49509 19.2446 56.4195 2.4 -33.2047 8.24317e+06 5.50743e+06 9.79452e+06 414535 719681 -766804
95 3 O 1.47084 17.7013 56.5586 -1.2 -9.18547 -4.72781e+06 -3.33889e+06 -3.82709e+06 377518 287722 -829048
96 3 O 1.45147 20.239 52.7294 -1.2 -9.42838 -2.9296e+06 -2.52356e+06 -4.66603e+06 132560 81059 -602215
97 3 O 0.247457 19.8924 55.6643 -1.2 -9.20617 -2.79487e+06 -3.61174e+06 -2.62834e+06 -707507 -7690.93 537191
98 3 O 2.7472 19.9648 55.7269 -1.2 -9.23659 -3.42362e+06 -3.67673e+06 -3.9307e+06 851896 161021 389923
99 1 Mg -0.126194 18.8651 52.2079 1.2 -7.68312 -692366 -395434 4.4508e+06 -1.07816e+06 1.93949e+06 407961
100 1 Mg 1.92402 18.5815 49.4545 1.2 -7.9362 2.37165e+06 874313 -77733 103928 -144092 98635.9
101 2 Si 1.38106 20.9117 51.2443 2.4 -32.9953 8.21209e+06 5.70992e+06 9.53961e+06 351929 220971 301904
102 3 O 1.48527 22.4795 51.3054 -1.2 -9.78306 -3.25411e+06 -2.36384e+06 -3.21588e+06 775115 -178389 354847
103 3 O 1.54943 19.9148 57.8857 -1.2 -9.40789 -3.5152e+06 -2.98198e+06 -5.28504e+06 -421155 664015 818218
104 3 O 0.0615419 20.2804 50.6669 -1.2 -8.88748 -3.24868e+06 -2.82392e+06 -4.63572e+06 1.15669e+06 -534170 -280917
105 1 Mg -3.09665 18.8643 52.3122 1.2 -7.44627 -177426 -404083 3.92672e+06 1.73822e+06 -1.63231e+06 453482
106 3 O 2.61548 20.2646 50.4626 -1.2 -9.34014 -3.0603e+06 -2.61116e+06 -1.91576e+06 -403782 781614 -380052
107 1 Mg -1.51523 19.1434 55.1233 1.2 -8.30789 1.52262e+06 2.57336e+06 779174 13447.9 -249147 -1.14569e+06
108 2 Si -1.61731 16.8463 53.2849 2.4 -33.3543 7.17262e+06 5.19375e+06 1.299e+07 336941 485408 165363
109 3 O -1.62721 15.2729 53.2074 -1.2 -9.46628 -3.60894e+06 -1.68587e+06 -4.63234e+06 56470.4 307060 568534
110 3 O -1.12868 18.1227 46.4249 -1.2 -7.56237 -3.16254e+06 -2.34711e+06 -2.73979e+06 -604482 -1.49606e+06 938764
111 3 O -2.82794 17.5499 53.9769 -1.2 -9.07887 -2.7488e+06 -2.48098e+06 -4.36575e+06 -277202 844152 768289
112 3 O -0.281264 17.4732 53.9758 -1.2 -8.8864 -2.66957e+06 -3.46906e+06 -3.0156e+06 1.31088e+06 -54085.9 838823
113 1 Mg -2.88665 26.082 57.3315 1.2 -7.08678 -1.17265e+06 -31432 4.22005e+06 -842983 -778544 598532
114 1 Mg -1.48778 25.88 49.8402 1.2 -8.48845 881811 2.61571e+06 1.61906e+06 -190055 264472 772558
115 2 Si -1.00491 23.3922 47.9274 2.4 -34.589 8.94414e+06 7.4791e+06 9.2967e+06 499368 2.33119e+06 -132731
116 3 O -0.927602 24.9615 47.9909 -1.2 -8.6009 -2.71672e+06 -4.61249e+06 -2.66541e+06 455896 -1.9349e+06 -310737
117 3 O -1.55795 22.2588 51.7696 -1.2 -8.97815 -2.15348e+06 -3.223e+06 -4.71333e+06 163359 316927 -712146
118 3 O -2.17411 22.8111 48.8277 -1.2 -8.69287 -1.26945e+06 -3.79931e+06 -3.31741e+06 4287.06 -377063 -1.32824e+06
119 1 Mg 0.0423997 21.3296 46.8225 1.2 -7.12625 2.24055e+06 -33826.5 719441 1.12673e+06 1.5853e+06 -657229
120 3 O 0.458537 22.7495 48.3911 -1.2 -8.58231 -1.84235e+06 -1.88441e+06 -2.01485e+06 -295051 -316934 665971
121 1 Mg 1.63066 21.2658 54.4994 1.2 -8.19439 2.00362e+06 2.50573e+06 -395089 -439618 572881 520911
122 2 Si 1.5305 24.0595 56.3705 2.4 -32.4219 7.1129e+06 6.69712e+06 8.32274e+06 930.183 1.07562e+06 -844888
123 3 O 1.55784 22.5033 56.5035 -1.2 -9.89459 -4.08519e+06 -2.8787e+06 -3.87063e+06 451653 -758519 217675
124 3 O 1.54441 24.9963 52.7297 -1.2 -9.28558 -3.11583e+06 -2.45529e+06 -4.39027e+06 -83128.4 -81153.5 -694158
125 3 O 0.232854 24.6852 55.6018 -1.2 -9.14381 -1.21362e+06 -4.08244e+06 -2.35979e+06 -1.17731e+06 -270427 -795917
126 3 O 2.84886 24.6763 55.6821 -1.2 -9.28529 -1.75366e+06 -3.64041e+06 -3.1001e+06 798381 944329 -185516
127 1 Mg -0.0335968 23.6229 52.2067 1.2 -7.9098 -589265 -778343 4.19646e+06 -1.08453e+06 2.02219e+06 917809
128 1 Mg 2.01073 23.3445 49.4541 1.2 -7.9365 2.37929e+06 890104 -92730 97924.9 -163248 282229
129 2 Si 1.47594 25.6699 51.2449 2.4 -32.9331 7.79489e+06 6.10642e+06 9.45333e+06 313074 241103 373015
130 3 O 1.58172 27.2371 51.3054 -1.2 -9.87346 -3.09981e+06 -2.73549e+06 -3.13923e+06 769993 -138850 129601
131 3 O 1.55669 24.7194 57.7818 -1.2 -10.356 -1.91465e+06 -5.00517e+06 -5.93429e+06 765031 444943 -12066.4
132 3 O 0.157925 25.0378 50.6651 -1.2 -8.92183 -3.10286e+06 -2.94718e+06 -4.49607e+06 1.08875e+06 -685837 -301511
133 1 Mg -3.00341 23.6231 52.3098 1.2 -7.60087 153547 -356591 3.71264e+06 1.52087e+06 -1.62891e+06 903255
134 3 O 2.71149 25.0232 50.4656 -1.2 -9.36713 -3.00391e+06 -2.70194e+06 -1.88352e+06 -311230 881447 -441925
135 1 Mg -1.43996 23.7119 55.1041 1.2 -8.37855 1.93806e+06 1.9778e+06 -430541 -262130 -413828 -1.14677e+06
136 2 Si -1.46814 21.5921 53.2678 2.4 -33.1795 6.7989e+06 5.1027e+06 1.04189e+07 654443 1.20489e+06 -176099
137 3 O -1.48157 20.0763 53.1819 -1.2 -9.71761 -3.18542e+06 -4.16789e+06 -4.28125e+06 711348 412150 1.18518e+06
138 3 O -1.03938 22.8897 46.4223 -1.2 -7.58166 -3.11895e+06 -2.44807e+06 -2.65055e+06 -606837 -1.50272e+06 771577
139 3 O -2.69768 22.2142 53.9702 -1.2 -9.24267 -3.97455e+06 -4.31494e+06 -4.17106e+06 -377406 1.62026e+06 214797
140 3 O -0.149804 22.3214 53.9019 -1.2 -8.91661 -1.297e+06 -4.1004e+06 -2.56025e+06 901416 -176935 382600
141 1 Mg -2.636 30.8358 57.4606 1.2 -7.64469 -620389 -1.57876e+06 3.78419e+06 -551089 -1.96109e+06 -263484
142 1 Mg -1.38776 30.6357 49.8391 1.2 -8.612 986146 2.39551e+06 1.92934e+06 -191951 288631 1.361e+06
143 2 Si -0.907929 28.1491 47.9262 2.4 -34.6067 8.97283e+06 7.61511e+06 9.16458e+06 488356 2.34358e+06 552397
144 3 O -0.829229 29.7184 47.99 -1.2 -8.55128 -2.79015e+06 -4.5388e+06 -2.77453e+06 461861 -1.93347e+06 -731759
145 3 O -1.45946 27.0152 51.769 -1.2 -9.19402 -2.76893e+06 -2.86317e+06 -5.90752e+06 199267 -89162.7 -930493
146 3 O -2.07744 27.5697 48.8273 -1.2 -8.71235 -1.25441e+06 -3.97353e+06 -3.13168e+06 6297.82 -374410 -1.66945e+06
147 1 Mg 0.137907 26.087 46.819 1.2 -7.11962 2.23187e+06 42685 648419 1.12515e+06 1.59044e+06 -443572
148 3 O 0.55579 27.5065 48.3893 -1.2 -8.5883 -1.8153e+06 -2.02135e+06 -1.88884e+06 -290604 -319380 368458
149 1 Mg 1.55511 26.2118 54.4626 1.2 -8.10415 1.29109e+06 2.93627e+06 -103922 207451 -175938 1.29692e+06
150 2 Si 1.72473 28.6987 56.4252 2.4 -32.8105 6.19573e+06 5.4617e+06 1.07491e+07 458929 864397 2.0279e+06
151 3 O 1.5747 27.1723 56.4358 -1.2 -9.95701 -2.77041e+06 -4.52491e+06 -3.05973e+06 787019 56491.2 -243433
152 3 O 1.6432 29.7522 52.7291 -1.2 -9.49124 -2.86519e+06 -2.58646e+06 -5.12463e+06 64504.6 -291183 -1.56126e+06
153 3 O 0.389075 29.3596 55.7739 -1.2 -9.07933 -2.16973e+06 -3.59845e+06 -2.6543e+06 -340881 172947 -718634
154 3 O 2.8812 29.2944 55.5892 -1.2 -9.22838 -3.60301e+06 -3.45688e+06 -3.15034e+06 362589 757646 -1.1082e+06
155 1 Mg 0.0647462 28.3794 52.2059 1.2 -7.71503 -864967 -378735 3.62457e+06 -1.31258e+06 1.93537e+06 1.58333e+06
156 1 Mg 2.10696 28.1021 49.4531 1.2 -7.91511 2.34788e+06 1.04487e+06 -241142 116298 -186000 655497
157 2 Si 1.57592 30.4257 51.2442 2.4 -33.0272 8.32051e+06 5.69737e+06 9.45513e+06 365400 182502 1.71042e+06
158 3 O 1.68288 31.9926 51.3043 -1.2 -9.66624 -3.55562e+06 -2.11006e+06 -3.48748e+06 691667 -465312 -447162
159 3 O 1.79833 29.4387 57.9003 -1.2 -9.4253 -2.11822e+06 -2.37613e+06 -3.97583e+06 -274484 -362083 800949
160 3 O 0.258524 29.7935 50.6632 -1.2 -8.86612 -3.21268e+06 -2.9278e+06 -4.57132e+06 1.20068e+06 -547947 -978925
161 1 Mg -2.90462 28.3797 52.308 1.2 -7.38501 -303887 -362657 3.57445e+06 1.7883e+06 -1.71563e+06 1.41032e+06
162 3 O 2.81205 29.7787 50.4664 -1.2 -9.33023 -3.15756e+06 -2.67533e+06 -1.90542e+06 -363469 808130 -1.05748e+06
163 1 Mg -1.31867 28.3644 55.0874 1.2 -7.98706 2.59481e+06 2.00801e+06 131362 116911 107552 -502835
164 2 Si -1.42219 26.3562 53.2249 2.4 -32.7654 6.14404e+06 7.86041e+06 8.98264e+06 813591 445453 -341015
165 3 O -1.42487 24.7385 53.2002 -1.2 -9.44012 -3.68246e+06 -1.18369e+06 -4.1441e+06 947579 274178 384007
166 3 O -0.943026 27.648 46.4208 -1.2 -7.57405 -3.12917e+06 -2.48241e+06 -2.6265e+06 -604632 -1.50761e+06 502025
167 3 O -2.63635 26.9884 53.9079 -1.2 -9.52731 -3.22106e+06 -4.92328e+06 -4.287e+06 -118815 1.99679e+06 -738743
168 3 O -0.0899155 27.085 53.8082 -1.2 -9.4157 -2.02712e+06 -4.37131e+06 -3.96028e+06 1.32804e+06 -1.1408e+06 153375
169 1 Mg -2.84457 35.5996 57.3915 1.2 -7.95099 -128292 -2.40216e+06 4.77126e+06 -1.13919e+06 -1.83313e+06 71051
170 1 Mg -1.28421 35.3899 49.8376 1.2 -8.75748 1.27146e+06 1.96841e+06 2.30974e+06 -169222 312066 1.05305e+06
171 2 Si -0.807101 32.9036 47.9247 2.4 -34.8394 9.32018e+06 6.77656e+06 1.00324e+07 491483 2.32682e+06 940703
172 3 O -0.727174 34.4729 47.9885 -1.2 -8.43941 -2.96786e+06 -4.11832e+06 -3.20139e+06 456385 -1.93313e+06 -712168
173 3 O -1.35735 31.7701 51.768 -1.2 -8.84302 -2.42536e+06 -3.40693e+06 -5.10804e+06 522030 -19152.1 -1.61154e+06
174 3 O -1.97695 32.3253 48.826 -1.2 -8.56626 -1.45574e+06 -3.5355e+06 -3.6038e+06 13551.5 -395129 -1.99732e+06
175 1 Mg 0.237665 30.8412 46.8168 1.2 -7.17846 2.32846e+06 -167590 859963 1.12274e+06 1.58625e+06 -129474
176 3 O 0.656562 32.2608 48.3877 -1.2 -8.46648 -2.01973e+06 -1.61707e+06 -2.27771e+06 -292311 -298545 68887
177 1 Mg 1.7132 30.7796 54.4514 1.2 -8.24768 2.05804e+06 2.47042e+06 333131 -206278 352229 1.03158e+06
178 2 Si 1.84805 33.4624 56.4591 2.4 -33.2742 8.68181e+06 5.73495e+06 1.27477e+07 179813 -325272 1.1598e+06
179 3 O 1.81472 31.8968 56.5134 -1.2 -9.58881 -2.78633e+06 -687356 -4.59472e+06 559112 -39162 -429568
180 3 O 1.74574 34.5067 52.7279 -1.2 -9.00787 -3.80997e+06 -2.29654e+06 -4.92934e+06 168210 -515046 -1.68714e+06
181 3 O 0.534902 34.1519 55.7657 -1.2 -8.90512 -2.85013e+06 -2.57713e+06 -3.6624e+06 -1.85211e+06 444590 -1.2825e+06
182 3 O 3.05567 34.2676 55.7754 -1.2 -8.86041 -3.10098e+06 -2.5815e+06 -3.95361e+06 885992 55180.9 -1.02922e+06
183 1 Mg 0.167046 33.1343 52.2045 1.2 -8.09493 -237725 -1.08777e+06 4.30028e+06 -865396 2.06896e+06 1.17561e+06
184 1 Mg 2.20727 32.8578 49.4516 1.2 -8.09307 2.68809e+06 494314 265869 109441 -150523 940373
185 2 Si 1.67943 35.1802 51.2429 2.4 -33.5993 9.0503e+06 4.64158e+06 1.07553e+07 195679 223123 1.57206e+06
186 3 O 1.78736 36.747 51.303 -1.2 -9.50844 -3.55084e+06 -1.9661e+06 -4.07408e+06 753469 -145653 -69256.1
187 3 O 1.83312 34.2154 57.9521 -1.2 -8.96206 -3.90908e+06 -2.00049e+06 -4.35661e+06 -304685 298725 1.43549e+06
188 3 O 0.362533 34.5479 50.661 -1.2 -8.57375 -3.78805e+06 -2.30645e+06 -5.42724e+06 1.01925e+06 -334693 -856723
189 1 Mg -2.80215 33.1347 52.3062 1.2 -7.89658 259132 -1.52501e+06 3.8293e+06 1.68771e+06 -1.89241e+06 1.68656e+06
190 3 O 2.91593 34.533 50.466 -1.2 -9.08306 -3.61071e+06 -2.04039e+06 -2.60891e+06 -214222 732139 -926731
191 1 Mg -1.16414 33.2339 55.1194 1.2 -8.45147 2.86706e+06 1.39752e+06 741891 -506611 -41586.4 415766
192 2 Si -1.36079 31.0886 53.2511 2.4 -33.1528 7.58693e+06 4.59035e+06 1.15756e+07 -418465 -73020.5 1.42296e+06
193 3 O -1.34999 29.5926 53.1625 -1.2 -9.76259 -3.00176e+06 -4.20685e+06 -4.44786e+06 -12344.8 570121 250220
194 3 O -0.842495 32.4028 46.4192 -1.2 -7.50306 -3.23854e+06 -2.17893e+06 -2.93436e+06 -605294 -1.50652e+06 310635
195 3 O -2.64502 31.8627 53.9159 -1.2 -9.12688 -2.20985e+06 -2.14672e+06 -4.23071e+06 -943443 636530 294231
196 3 O -0.0713643 31.7932 53.9323 -1.2 -9.0439 -1.55935e+06 -2.68328e+06 -3.62781e+06 709989 -645068 -499325
197 1 Mg -2.6343 40.2687 57.4704 1.2 -7.96742 -330491 -924258 4.81496e+06 -1.05222e+06 -1.64627e+06 495814
198 1 Mg -1.17787 40.1435 49.8359 1.2 -8.75444 1.2621e+06 1.7955e+06 2.47761e+06 -194208 289940 1.06035e+06
199 2 Si -0.702692 37.6572 47.9231 2.4 -34.9105 9.45798e+06 6.40889e+06 1.03733e+07 484577 2.35343e+06 606736
200 3 O -0.621782 39.2264 47.9868 -1.2 -8.43384 -2.98393e+06 -3.99396e+06 -3.33077e+06 465097 -1.93763e+06 -581674
201 3 O -1.25221 36.5242 51.7666 -1.2 -8.84766 -3.30034e+06 -3.56714e+06 -6.80996e+06 298004 -756983 -665618
202 3 O -1.87295 37.0796 48.8243 -1.2 -8.51665 -1.57664e+06 -3.33668e+06 -3.75519e+06 16450.5 -381259 -1.8066e+06
203 1 Mg 0.341084 35.5943 46.8152 1.2 -7.24424 2.43358e+06 -477569 1.17223e+06 1.1245e+06 1.58863e+06 -204983
204 3 O 0.760681 37.0138 48.3864 -1.2 -8.40754 -2.08847e+06 -1.39195e+06 -2.52131e+06 -293337 -313758 252175
205 1 Mg 1.72538 35.5433 54.5148 1.2 -8.64068 2.68464e+06 1.22348e+06 982477 -108506 289834 1.04318e+06
206 2 Si 1.84102 38.2042 56.381 2.4 -32.9101 1.03633e+07 4.36758e+06 1.11488e+07 -206017 321654 1.25893e+06
207 3 O 1.74197 36.6581 56.4349 -1.2 -9.60709 -5.26371e+06 -2.84156e+06 -5.19758e+06 382443 697280 -1.19427e+06
208 3 O 1.85132 39.2606 52.7264 -1.2 -8.96504 -3.65344e+06 -2.34312e+06 -4.82943e+06 -89601.9 -449248 -1.6601e+06
209 3 O 0.463793 38.9718 55.8 -1.2 -9.00852 -950876 -1.82808e+06 -4.04857e+06 -1.242e+06 454967 -723877
210 3 O 3.07889 38.9366 55.628 -1.2 -9.1054 -1.93579e+06 -2.7184e+06 -4.36808e+06 1.56252e+06 -87597.9 -729731
211 1 Mg 0.272384 37.8883 52.2029 1.2 -8.16084 -362057 -1.01694e+06 4.29499e+06 -1.19433e+06 1.99776e+06 1.27834e+06
212 1 Mg 2.31122 37.6122 49.4501 1.2 -8.13665 2.71724e+06 359110 450749 122902 -211624 739063
213 2 Si 1.78573 39.934 51.2414 2.4 -33.6077 8.9689e+06 4.3374e+06 1.11141e+07 412365 260112 1.40315e+06
214 3 O 1.89428 41.5006 51.3014 -1.2 -9.55007 -3.53922e+06 -1.81102e+06 -4.09149e+06 703677 -510357 103091
215 3 O 1.94952 38.8208 57.856 -1.2 -9.34517 -3.76386e+06 -2.77048e+06 -5.77325e+06 -93422.1 -122406 644203
216 3 O 0.469216 39.3015 50.6588 -1.2 -8.61293 -3.6034e+06 -2.27159e+06 -5.24789e+06 1.15582e+06 -606820 -813033
217 1 Mg -2.69668 37.8889 52.3043 1.2 -7.76643 305094 -1.24861e+06 4.13697e+06 1.83558e+06 -1.9166e+06 1.21718e+06
218 3 O 3.0225 39.2866 50.4651 -1.2 -9.09112 -3.54083e+06 -1.99175e+06 -2.63293e+06 -324408 851838 -934773
219 1 Mg -1.18354 38.0141 55.0413 1.2 -8.51308 2.29422e+06 1.57945e+06 1.45462e+06 241108 -193082 -11952.8
220 2 Si -1.26504 35.8626 53.1853 2.4 -33.6066 8.93419e+06 4.61967e+06 1.15176e+07 788604 -889064 2.24249e+06
221 3 O -1.22545 34.295 53.0494 -1.2 -9.26323 -3.89113e+06 -2.17782e+06 -4.8226e+06 348000 909600 110496
222 3 O -0.738054 37.1566 46.4176 -1.2 -7.46658 -3.29924e+06 -1.96325e+06 -3.15127e+06 -605820 -1.50889e+06 436033
223 3 O -2.54018 36.4826 53.9349 -1.2 -8.9326 -2.25927e+06 -2.33639e+06 -4.63221e+06 -898238 92867.5 -114464
224 3 O 0.0778805 36.574 53.8181 -1.2 -8.84781 -1.69555e+06 -2.11938e+06 -4.59581e+06 1.29233e+06 -531602 -117690
225 1 Mg -2.31581 44.968 57.3897 1.2 -7.84025 -438360 -1.73447e+06 4.85721e+06 -1.13617e+06 -1.42406e+06 -536652
226 1 Mg -1.06993 44.8968 49.8343 1.2 -8.61614 1.05376e+06 1.82144e+06 2.4361e+06 -166321 363747 1.07237e+06
227 2 Si -0.596166 42.4103 47.9215 2.4 -34.8086 9.29724e+06 6.30419e+06 1.048e+07 491983 2.33767e+06 289121
228 3 O -0.51472 43.9796 47.9853 -1.2 -8.51181 -2.85919e+06 -3.99195e+06 -3.33408e+06 459742 -1.94069e+06 -462245
229 3 O -1.14475 41.2777 51.7649 -1.2 -8.81973 -2.9086e+06 -2.25524e+06 -5.0145e+06 551414 -58901.1 -1.25614e+06
230 3 O -1.76671 41.8331 48.8226 -1.2 -8.55441 -1.49321e+06 -3.23845e+06 -3.88878e+06 17050.6 -379210 -1.63331e+06
231 1 Mg 0.447076 40.3473 46.8135 1.2 -7.23184 2.4152e+06 -586438 1.2794e+06 1.12372e+06 1.5889e+06 -351839
232 3 O 0.866985 41.7666 48.385 -1.2 -8.44867 -2.03397e+06 -1.31092e+06 -2.59776e+06 -292427 -309907 413710
233 1 Mg 1.92953 40.2822 54.5733 1.2 -8.47989 2.01201e+06 680234 1.17461e+06 -319123 519549 2.02851e+06
234 2 Si 2.1695 42.9729 56.4519 2.4 -33.6422 6.978e+06 2.57094e+06 1.13448e+07 -772834 147440 1.10621e+06
235 3 O 2.01461 41.4677 56.5191 -1.2 -9.31301 -4.05188e+06 -3.9776e+06 -5.66293e+06 751365 375670 -1.24939e+06
236 3 O 1.95891 44.014 52.7248 -1.2 -9.24996 -2.82224e+06 -1.9542e+06 -4.44214e+06 701442 -306317 -1.31267e+06
237 3 O 0.812818 43.6467 55.8354 -1.2 -9.12026 -1.99619e+06 -2.97277e+06 -3.84402e+06 -285574 -762288 -379013
238 3 O 3.4029 43.5949 55.7959 -1.2 -9.04564 -3.577e+06 -4.05765e+06 -5.18598e+06 301099 1.44392e+06 -315288
239 1 Mg 0.379928 42.6418 52.2013 1.2 -7.90946 -90850.7 -601321 4.57625e+06 -1.07479e+06 1.89607e+06 1.10438e+06
240 1 Mg 2.41752 42.366 49.4484 1.2 -8.07546 2.61954e+06 290191 525152 103310 -174832 560717
241 2 Si 1.89374 44.6874 51.2398 2.4 -33.2309 8.2603e+06 4.46556e+06 1.10492e+07 95325.5 -29265.2 1.41252e+06
242 3 O 2.00266 46.254 51.2996 -1.2 -9.72095 -3.32664e+06 -1.6619e+06 -4.05707e+06 493140 -313007 -59857.4
243 3 O 2.18629 43.6016 57.9212 -1.2 -8.99941 -3.37712e+06 -2.92132e+06 -6.27985e+06 -369225 -296412 29574.5
244 3 O 0.577464 44.0549 50.6567 -1.2 -8.76466 -3.27878e+06 -2.37455e+06 -5.14167e+06 1.18673e+06 -688857 -889959
245 1 Mg -2.58906 42.6425 52.3022 1.2 -7.75276 -144849 -1.58267e+06 4.30957e+06 1.5706e+06 -1.95326e+06 1.20652e+06
246 3 O 3.13067 44.0398 50.464 -1.2 -9.2455 -3.32359e+06 -2.06514e+06 -2.56044e+06 -267219 905874 -740320
247 1 Mg -0.850728 42.6616 55.1953 1.2 -8.2299 2.34705e+06 1.29006e+06 757964 -113325 -99195 27099.4
248 2 Si -1.16837 40.5994 53.2616 2.4 -33.5305 8.72003e+06 4.52918e+06 1.2218e+07 -387097 -339304 998225
249 3 O -1.15452 39.0199 53.1494 -1.2 -9.39074 -4.03511e+06 -1.57215e+06 -4.83939e+06 420380 419870 22411.3
250 3 O -0.631421 41.9099 46.4159 -1.2 -7.50054 -3.24578e+06 -1.90033e+06 -3.21344e+06 -605418 -1.50751e+06 582984
251 3 O -2.47326 41.2375 53.8962 -1.2 -8.96405 -2.77605e+06 -3.14604e+06 -5.09702e+06 -1.16427e+06 733004 -637774
252 3 O 0.136467 41.2298 53.917 -1.2 -9.09324 -1.89565e+06 -2.26021e+06 -4.07893e+06 630365 -493229 -378485
253 1 Mg -2.27534 49.7515 57.4276 1.2 -7.84596 -419947 -1.64561e+06 4.73385e+06 -169844 -1.97668e+06 -152636
254 1 Mg -0.961069 49.6502 49.8327 1.2 -8.44853 968416 1.84168e+06 2.22959e+06 -168763 192191 940099
255 2 Si -0.488083 47.1636 47.9198 2.4 -34.6105 9.0065e+06 6.27299e+06 1.04835e+07 480567 2.33724e+06 126723
256 3 O -0.40607 48.7329 47.9837 -1.2 -8.61161 -2.73063e+06 -3.99613e+06 -3.29419e+06 463224 -1.93541e+06 -387541
257 3 O -1.0361 46.031 51.7632 -1.2 -8.86671 -2.52268e+06 -1.44047e+06 -5.84114e+06 989493 -583145 -1.7466e+06
258 3 O -1.65866 46.5866 48.821 -1.2 -8.66834 -1.32145e+06 -3.18925e+06 -3.9265e+06 42086.6 -382816 -1.58828e+06
259 1 Mg 0.554124 45.1001 46.8117 1.2 -7.15901 2.29825e+06 -581954 1.27593e+06 1.12381e+06 1.5895e+06 -448350
260 3 O 0.974961 46.5195 48.3832 -1.2 -8.55167 -1.86215e+06 -1.28278e+06 -2.62951e+06 -304096 -309521 485493
261 1 Mg 1.89823 45.0971 54.5977 1.2 -8.28855 2.56882e+06 1.41532e+06 1.25138e+06 264627 28438.5 1.09631e+06
262 2 Si 2.2804 47.6481 56.3638 2.4 -33.8696 8.97592e+06 3.50286e+06 1.15455e+07 -44423.2 -497300 1.27144e+06
263 3 O 2.1621 46.1045 56.395 -1.2 -9.46576 -4.35964e+06 -2.71703e+06 -4.4727e+06 957727 361587 -625711
264 3 O 2.0677 48.7672 52.7232 -1.2 -9.10347 -3.04964e+06 -2.57444e+06 -5.55207e+06 582752 -120363 -1.72119e+06
265 3 O 0.992565 48.2612 55.6352 -1.2 -8.74921 -2.88948e+06 -2.8066e+06 -4.19785e+06 -775809 -743662 98314.2
266 3 O 3.54309 48.3727 55.7914 -1.2 -8.67455 -3.89864e+06 -3.08827e+06 -5.30889e+06 1.14194e+06 1.07114e+06 -319466
267 1 Mg 0.488584 47.395 52.1996 1.2 -7.78905 58767.1 -851962 5.01617e+06 -664014 1.65849e+06 1.01871e+06
268 1 Mg 2.52544 47.1195 49.4466 1.2 -7.95448 2.39547e+06 221998 627795 130337 -174401 546788
269 2 Si 2.00256 49.4407 51.2382 2.4 -33.0683 7.14777e+06 4.38943e+06 1.20168e+07 215435 600779 1.14587e+06
270 3 O 2.11156 51.0073 51.2982 -1.2 -9.72764 -2.92177e+06 -1.66082e+06 -4.57979e+06 703979 -514396 351469
271 3 O 2.19087 48.3584 57.8365 -1.2 -8.89823 -3.35057e+06 -956999 -6.30196e+06 -729123 189811 1.02772e+06
272 3 O 0.686344 48.8082 50.655 -1.2 -9.00586 -3.04447e+06 -2.25903e+06 -4.90273e+06 1.03424e+06 -1.07515e+06 -609795
273 1 Mg -2.48039 47.3957 52.3005 1.2 -7.72551 -414650 -2.04315e+06 4.55271e+06 1.28143e+06 -1.78701e+06 1.47329e+06
274 3 O 3.23944 48.7932 50.4623 -1.2 -9.35433 -2.8181e+06 -1.99171e+06 -2.92852e+06 -210232 991136 -667870