ITEM: TIMESTEP
70300
ITEM: NUMBER OF ATOMS
10500
ITEM: BOX BOUNDS xy xz yz pp pp pp
0.0000000000000000e+00 8.9687999999999999e+00 2.9895999999999998e+00
0.0000000000000000e+00 1.1872499999999999e+02 0.0000000000000000e+00
0.0000000000000000e+00 2.5297749999999999e+02 0.0000000000000000e+00
ITEM: ATOMS id type element xu yu zu q c_pe c_s[1] c_s[2] c_s[3] c_s[4] c_s[5] c_s[6]
1 1 Mg -3.32942 7.05057 57.7519 1.2 -8.05049 178830 -903324 2.9733e+06 -186106 -1.36233e+06 -1.41735e+06
2 1 Mg -1.82655 6.90154 50.0912 1.2 -8.5459 491890 1.60614e+06 805739 -127521 -170177 1.6618e+06
3 2 Si -0.257935 3.96038 48.0876 2.4 -36.4715 1.05892e+07 1.09075e+07 8.79099e+06 794144 1.95342e+06 2.21105e+06
4 3 O -0.335812 5.46814 47.6264 -1.2 -7.52196 -3.48871e+06 -3.38188e+06 -1.63348e+06 146329 -962773 -830037
5 3 O -2.03793 3.43377 51.8941 -1.2 -9.07739 -2.3768e+06 -2.12179e+06 -5.92347e+06 160657 -285190 -1.89157e+06
6 3 O -1.54015 3.53929 48.9521 -1.2 -8.16108 -1.47197e+06 -2.70211e+06 -3.30883e+06 68965.3 -845279 -519488
7 1 Mg 1.82954 2.54582 47.1376 1.2 -8.21687 2.98237e+06 713012 -479597 1.15128e+06 811679 653479
8 3 O 1.22989 3.66364 48.7877 -1.2 -7.8681 -1.90973e+06 -3.4504e+06 -2.59566e+06 -512089 -625710 -1.24304e+06
9 1 Mg 1.00877 2.40497 54.5319 1.2 -8.29647 1.61311e+06 530728 409378 -486525 848297 831185
10 2 Si 1.26061 5.09217 56.4025 2.4 -33.6857 7.87125e+06 7.58568e+06 9.91723e+06 1.44004e+06 -120737 -1.14645e+06
11 3 O 1.02448 3.50473 56.428 -1.2 -9.4747 -4.29165e+06 -1.55627e+06 -5.1668e+06 1.02237e+06 395590 340554
12 3 O 1.10813 6.07342 52.8172 -1.2 -8.81712 -3.8581e+06 -3.72987e+06 -4.68155e+06 693638 520956 -1.67396e+06
13 3 O 0.04437 5.72078 55.6302 -1.2 -8.68081 -2.07229e+06 -4.87464e+06 -4.87747e+06 -990838 -1.55703e+06 1.80964e+06
14 3 O 2.56427 5.88998 56.0726 -1.2 -8.77787 -4.07966e+06 -2.56656e+06 -3.55239e+06 1.2416e+06 1.03846e+06 1.172e+06
15 1 Mg -0.459401 4.67631 52.2426 1.2 -8.12239 -633492 197537 4.8311e+06 -731275 1.06905e+06 379318
16 1 Mg 2.79456 3.9971 49.9987 1.2 -8.41792 3.93748e+06 719838 587257 -500784 908489 -405845
17 2 Si 1.16169 6.59457 51.2556 2.4 -34.127 8.46894e+06 6.86282e+06 1.07467e+07 132379 261224 3.05912e+06
18 3 O 1.28989 8.18905 51.2909 -1.2 -9.14221 -3.88465e+06 -1.75457e+06 -3.25868e+06 132263 -836994 938695
19 3 O 1.00387 5.69537 57.9486 -1.2 -8.68682 -3.02403e+06 -3.00307e+06 -4.48252e+06 -976591 781011 3.22854e+06
20 3 O -0.184847 6.06029 50.6845 -1.2 -8.48561 -3.24268e+06 -3.80138e+06 -4.52826e+06 1.49894e+06 -335743 -1.72317e+06
21 1 Mg -3.49704 4.67769 52.6661 1.2 -7.50805 157878 -2.56005e+06 2.31737e+06 1.67112e+06 -1.26173e+06 437936
22 3 O 2.48581 5.93312 50.6539 -1.2 -9.05393 -3.61346e+06 -1.99985e+06 -2.68578e+06 -1.61099e+06 -695090 -1.12818e+06
23 1 Mg -1.64255 4.64094 55.2125 1.2 -8.33184 1.96514e+06 2.60997e+06 439325 -675839 -787331 -493851
24 2 Si -2.19007 2.51952 53.2231 2.4 -33.1673 7.86584e+06 1.59234e+06 1.31979e+07 2.05083e+06 447669 -2.10257e+06
25 3 O -1.97585 1.07024 53.2011 -1.2 -9.60602 -3.6045e+06 -5.64727e+06 -5.73667e+06 -880617 -141994 -384473
26 3 O -0.0467762 2.97103 46.8385 -1.2 -6.76598 -3.33844e+06 -3.33661e+06 -1.70855e+06 -988223 -2.00025e+06 -774844
27 3 O -3.26191 3.22457 54.1153 -1.2 -9.35552 -6.06873e+06 -2.60468e+06 -3.71142e+06 -653947 629730 2.17751e+06
28 3 O -0.737797 3.17595 54.0629 -1.2 -8.05889 -1.35074e+06 -3.40122e+06 -4.17661e+06 1.28196e+06 400601 1.02701e+06
29 1 Mg -3.08444 11.9216 57.2906 1.2 -8.01768 -913949 -1.43311e+06 4.03812e+06 -1.21675e+06 -2.34281e+06 -1.18768e+06
30 1 Mg -1.75014 11.5838 49.8362 1.2 -8.8526 1.50949e+06 2.89975e+06 1.46877e+06 -299721 233168 576455
31 2 Si -1.18003 9.02138 47.9309 2.4 -35.2037 9.66884e+06 8.67153e+06 8.26913e+06 230777 2.59573e+06 386439
32 3 O -1.23224 10.5991 47.9811 -1.2 -8.28844 -3.18849e+06 -4.40762e+06 -1.96679e+06 652969 -1.91338e+06 91622.3
33 3 O -1.79016 8.01447 51.8693 -1.2 -8.32397 -3.51044e+06 -2.49874e+06 -4.45806e+06 587636 256390 -2.06202e+06
34 3 O -2.30986 8.37215 48.8528 -1.2 -8.58549 -1.61227e+06 -3.17901e+06 -2.75031e+06 -317667 -628400 -872787
35 1 Mg 0.154883 7.08234 46.8007 1.2 -7.86843 2.44371e+06 706137 -60361.9 944417 1.71983e+06 -781570
36 3 O 0.325447 8.50934 48.3809 -1.2 -8.23835 -2.04634e+06 -2.66866e+06 -2.02566e+06 -43671.9 -812207 322772
37 1 Mg 1.12505 7.20604 54.5688 1.2 -8.76448 92802.1 126057 1.28604e+06 1.35044e+06 -18782.8 789456
38 2 Si 1.38222 9.81301 56.4709 2.4 -33.5886 1.02104e+07 7.48931e+06 1.27763e+07 -662215 57399.5 -2.31261e+06
39 3 O 1.21344 8.2672 56.6204 -1.2 -8.9646 -3.61922e+06 -1.25921e+06 -3.46495e+06 1.29263e+06 745398 -1.15578e+06
40 3 O 1.28624 10.7248 52.7351 -1.2 -8.9566 -3.49139e+06 -2.68901e+06 -4.71671e+06 548484 -514222 -676624
41 3 O -0.00293898 10.5305 55.6695 -1.2 -8.34262 -1.5406e+06 -3.01938e+06 -649008 -2.0685e+06 921881 84849.6
42 3 O 2.5686 10.5988 55.758 -1.2 -8.78857 -3.43332e+06 -3.35544e+06 -4.19165e+06 1.54794e+06 -145121 677591
43 1 Mg -0.262694 9.34741 52.2523 1.2 -8.23888 1.05742e+06 -215049 4.52134e+06 -1.07134e+06 1.12832e+06 427141
44 1 Mg 1.87648 9.01537 49.4629 1.2 -8.27575 2.66544e+06 1.09468e+06 -284259 245662 -223664 194887
45 2 Si 1.21415 11.3799 51.2378 2.4 -33.7353 8.94152e+06 6.721e+06 9.28737e+06 139201 701492 -94349.2
46 3 O 1.31634 12.9512 51.3023 -1.2 -9.38496 -3.78616e+06 -2.5593e+06 -3.01718e+06 642286 -304815 997018
47 3 O 1.38765 10.4626 58.0353 -1.2 -8.92176 -3.0237e+06 -1.5376e+06 -2.78244e+06 -2.80904e+06 996645 1.42394e+06
48 3 O -0.115718 10.7564 50.681 -1.2 -8.58495 -3.60824e+06 -3.27174e+06 -3.60492e+06 1.15352e+06 -758325 -230075
49 1 Mg -3.26386 9.35564 52.3622 1.2 -8.28261 330332 -1.09927e+06 3.48548e+06 1.32492e+06 -1.42302e+06 791487
50 3 O 2.45216 10.7265 50.4558 -1.2 -9.01205 -3.33087e+06 -2.70088e+06 -1.59497e+06 -735043 556315 320035
51 1 Mg -1.65073 9.59279 55.3288 1.2 -8.78503 1.69094e+06 1.43e+06 579758 -614578 71632.8 -345360
52 2 Si -1.878 7.26026 53.4216 2.4 -34.127 1.0248e+07 2.60832e+06 1.09254e+07 -64046.5 105273 -930563
53 3 O -1.9906 5.8182 53.2972 -1.2 -9.49716 -3.91871e+06 -7.29367e+06 -4.38808e+06 -60438.1 -338137 -406815
54 3 O -1.19417 8.46968 46.4488 -1.2 -7.24402 -3.3558e+06 -2.84774e+06 -2.14502e+06 -540959 -1.74111e+06 681587
55 3 O -3.11211 8.04778 53.9797 -1.2 -8.53842 -3.67379e+06 -3.56935e+06 -4.69335e+06 -1.17571e+06 1.28372e+06 651428
56 3 O -0.479306 7.92412 54.0424 -1.2 -8.21806 -3.87562e+06 -4.11934e+06 -3.56087e+06 3.70338e+06 -1.28248e+06 1.16645e+06
57 1 Mg -3.27508 16.7401 57.552 1.2 -7.18481 -771671 415406 3.9489e+06 -477555 -1.72595e+06 -733461
58 1 Mg -1.6714 16.3544 49.8412 1.2 -9.14103 1.77217e+06 3.03569e+06 1.40796e+06 -246333 138479 877899
59 2 Si -1.18567 13.8526 47.9314 2.4 -35.3465 1.01935e+07 8.12261e+06 8.54743e+06 492743 2.24944e+06 -239763
60 3 O -1.09664 15.4205 47.9915 -1.2 -8.16623 -3.34248e+06 -4.79633e+06 -2.3038e+06 434123 -1.91601e+06 -294589
61 3 O -1.73493 12.7491 51.7772 -1.2 -8.85903 -2.93819e+06 -1.81699e+06 -3.0979e+06 142081 111409 -1.01037e+06
62 3 O -2.36115 13.2717 48.8238 -1.2 -8.31595 -1.91852e+06 -4.07856e+06 -2.87449e+06 -109055 -365179 -1.18027e+06
63 1 Mg -0.159928 11.7639 46.8533 1.2 -7.44864 2.79983e+06 299329 346152 1.12766e+06 1.57247e+06 -819933
64 3 O 0.2623 13.1866 48.413 -1.2 -8.22489 -2.43078e+06 -2.09244e+06 -1.68443e+06 -196085 -290114 821733
65 1 Mg 1.24735 11.8589 54.4575 1.2 -9.01978 1.77247e+06 1.8331e+06 -142527 776759 -765211 269025
66 2 Si 1.24206 14.515 56.3708 2.4 -33.1439 7.07176e+06 3.33174e+06 1.23998e+07 1.23195e+06 -774820 1.62052e+06
67 3 O 1.21669 13.0742 56.3972 -1.2 -9.08681 -5.11621e+06 -6.23565e+06 -5.09474e+06 -170840 -1.46849e+06 446936
68 3 O 1.36565 15.4813 52.729 -1.2 -8.94728 -3.55732e+06 -3.37711e+06 -3.7689e+06 -717551 -142569 494173
69 3 O 0.0626352 15.1051 55.4615 -1.2 -9.30952 -3.65763e+06 -5.68221e+06 -4.86666e+06 -1.45006e+06 -1.22553e+06 -428748
70 3 O 2.65397 15.195 55.8608 -1.2 -8.94452 468073 -4.0111e+06 -2.16385e+06 1.34518e+06 -511546 81950.2
71 1 Mg -0.206989 14.1049 52.2121 1.2 -8.23659 338992 -164751 3.6983e+06 -1.27573e+06 1.99454e+06 76370.5
72 1 Mg 1.82591 13.8102 49.4556 1.2 -8.35098 3.04292e+06 1.4667e+06 -582788 142695 -122665 164745
73 2 Si 1.29285 16.1518 51.2434 2.4 -34.1557 1.03867e+07 7.39234e+06 7.55794e+06 611195 748649 -92495.9
74 3 O 1.39496 17.7199 51.3047 -1.2 -9.04923 -4.83162e+06 -3.053e+06 -2.38416e+06 761967 -787863 270536
75 3 O 0.982957 15.3716 57.8837 -1.2 -8.97131 -1.85743e+06 -2.38319e+06 -3.09835e+06 475074 1.44082e+06 2.57359e+06
76 3 O -0.0269106 15.5178 50.6688 -1.2 -8.38341 -4.18654e+06 -3.5244e+06 -3.57484e+06 1.23489e+06 -644327 -123416
77 1 Mg -3.18391 14.1057 52.3125 1.2 -7.98386 565311 275939 3.48499e+06 1.77088e+06 -1.68572e+06 -58891.3
78 3 O 2.52432 15.503 50.4579 -1.2 -8.7842 -3.78567e+06 -3.33303e+06 -1.19588e+06 -501912 767181 -335990
79 1 Mg -1.53315 14.2065 55.082 1.2 -8.43496 2.23636e+06 517561 -197632 -1.67751e+06 -1.56798e+06 -2.12335e+06
80 2 Si -1.68229 12.0324 53.2807 2.4 -33.4161 1.0497e+07 8.39273e+06 1.16637e+07 756024 -213933 -1.71104e+06
81 3 O -1.8185 10.4421 53.2941 -1.2 -9.11355 -3.99038e+06 -1.0762e+06 -3.73885e+06 287555 401381 127548
82 3 O -1.21337 13.3381 46.4311 -1.2 -7.22643 -3.75034e+06 -2.68254e+06 -2.36145e+06 -630818 -1.45176e+06 839834
83 3 O -2.9512 12.7962 54.0036 -1.2 -8.66731 -1.27617e+06 -3.10034e+06 -3.71114e+06 -1.26366e+06 562806 1.78715e+06
84 3 O -0.317221 12.7778 53.8821 -1.2 -8.64549 -2.94904e+06 -3.91987e+06 -4.48679e+06 2.35313e+06 -454050 1.92597e+06
85 1 Mg -3.03075 21.3384 57.4599 1.2 -7.57509 -489446 -911681 4.38318e+06 -689012 -867655 -373131
86 1 Mg -1.5831 21.1217 49.8405 1.2 -9.22983 2.07054e+06 2.77841e+06 1.4816e+06 -142022 211957 834868
87 2 Si -1.09384 18.6291 47.9287 2.4 -35.6965 1.07235e+07 7.83926e+06 8.92476e+06 501927 2.2705e+06 115181
88 3 O -1.02071 20.1985 47.9911 -1.2 -8.03444 -3.62204e+06 -4.66238e+06 -2.536e+06 445924 -1.91781e+06 -337459
89 3 O -1.65002 17.5002 51.771 -1.2 -7.87566 -3.82992e+06 -3.23194e+06 -3.06535e+06 247618 1.3974e+06 -1.55534e+06
90 3 O -2.26174 18.0434 48.8281 -1.2 -8.08689 -2.17773e+06 -4.04631e+06 -3.08652e+06 -12337 -366062 -1.44795e+06
91 1 Mg -0.0440435 16.5651 46.8269 1.2 -7.57444 2.94324e+06 246473 441300 1.1327e+06 1.57254e+06 -518440
92 3 O 0.37001 17.9877 48.3925 -1.2 -8.02116 -2.79052e+06 -2.12615e+06 -1.70882e+06 -291874 -315025 517959
93 1 Mg 1.41196 16.6068 54.4835 1.2 -8.20228 865486 3.3524e+06 286927 -250923 816687 -202375
94 2 Si 1.1568 19.2587 56.2949 2.4 -32.4566 7.13017e+06 8.61763e+06 9.90536e+06 493752 1.81898e+06 -363108
95 3 O 1.31809 17.6525 56.3711 -1.2 -10.061 -1.5398e+06 -1.07658e+06 -3.92154e+06 -161807 -459033 1.8171e+06
96 3 O 1.45147 20.239 52.7294 -1.2 -8.27254 -4.99462e+06 -3.35658e+06 -3.47974e+06 -45504.2 -756361 -1.39856e+06
97 3 O -0.0377323 19.9528 55.6234 -1.2 -8.99927 -3.1512e+06 -3.47655e+06 -2.88997e+06 -718989 -184860 -776263
98 3 O 2.49678 19.9555 55.6028 -1.2 -8.69505 -4.22332e+06 -4.27187e+06 -5.98858e+06 3.5128e+06 1.00732e+06 48106
99 1 Mg -0.126194 18.8651 52.2079 1.2 -8.54152 1.64715e+06 113524 2.99154e+06 -1.1332e+06 1.82523e+06 1.5427e+06
100 1 Mg 1.92402 18.5815 49.4545 1.2 -8.60636 3.43665e+06 1.25319e+06 -443779 90406.3 -36915.2 469548
101 2 Si 1.38106 20.9117 51.2443 2.4 -34.7748 1.06967e+07 6.69377e+06 9.01064e+06 -51297.4 642403 1.36193e+06
102 3 O 1.48527 22.4795 51.3054 -1.2 -8.95459 -4.2832e+06 -2.87052e+06 -3.3016e+06 688975 -482542 69865.9
103 3 O 1.39632 20.1168 57.7367 -1.2 -9.43356 -3.12453e+06 -3.35773e+06 -5.95609e+06 2.94074e+06 438627 3.94001e+06
104 3 O 0.0615419 20.2804 50.6669 -1.2 -8.14257 -4.64476e+06 -3.25283e+06 -3.76882e+06 1.05837e+06 -700290 -779100
105 1 Mg -3.09665 18.8643 52.3122 1.2 -8.60519 305722 156139 1.51859e+06 857352 -2.28487e+06 1.19985e+06
106 3 O 2.61548 20.2646 50.4626 -1.2 -8.50363 -4.28694e+06 -2.98528e+06 -1.98729e+06 -205967 592657 -573549
107 1 Mg -1.95268 19.0593 55.1004 1.2 -8.16122 792932 703296 160081 1.86938e+06 773207 -758981
108 2 Si -1.55852 16.8166 53.3639 2.4 -33.4974 8.51554e+06 8.35925e+06 8.07042e+06 437008 941705 -2.35988e+06
109 3 O -1.57629 15.2838 53.2673 -1.2 -9.35511 -4.42128e+06 -3.42153e+06 -3.45172e+06 1.2772e+06 -246522 2.78431e+06
110 3 O -1.12868 18.1227 46.4249 -1.2 -7.11651 -3.87722e+06 -2.58046e+06 -2.50457e+06 -604588 -1.48956e+06 683365
111 3 O -2.88969 17.5036 53.8182 -1.2 -9.03051 -3.16064e+06 -4.58275e+06 -5.729e+06 -1.03601e+06 2.30169e+06 782758
112 3 O -0.301086 17.663 53.9033 -1.2 -9.11417 -2.20258e+06 -3.6465e+06 -2.40861e+06 1.0349e+06 -1.57011e+06 -5979.55
113 1 Mg -2.62479 26.1788 56.8983 1.2 -7.14591 717411 1.49455e+06 3.18994e+06 -906218 -1.40653e+06 -19389.6
114 1 Mg -1.48778 25.88 49.8402 1.2 -8.89125 1.75034e+06 2.91115e+06 1.10982e+06 -167007 175709 1.0236e+06
115 2 Si -1.00491 23.3922 47.9274 2.4 -35.5564 1.05497e+07 7.78995e+06 8.93258e+06 495381 2.33398e+06 -42492.6
116 3 O -0.927602 24.9615 47.9909 -1.2 -8.17797 -3.43525e+06 -4.77391e+06 -2.45288e+06 455005 -1.93907e+06 -333893
117 3 O -1.55795 22.2588 51.7696 -1.2 -8.12407 -4.57156e+06 -4.80999e+06 -6.14132e+06 138481 -1.09925e+06 -933209
118 3 O -2.17411 22.8111 48.8277 -1.2 -8.14438 -2.18114e+06 -4.01248e+06 -3.04308e+06 15469 -344042 -1.45842e+06
119 1 Mg 0.0423997 21.3296 46.8225 1.2 -7.60512 3.01295e+06 83795.4 596678 1.12921e+06 1.58994e+06 -566745
120 3 O 0.458537 22.7495 48.3911 -1.2 -8.05075 -2.68823e+06 -2.06335e+06 -1.82742e+06 -302149 -346108 576453
121 1 Mg 1.40079 21.3274 54.6469 1.2 -8.9618 2.25853e+06 889547 651150 -1.013e+06 -49495.9 2.14989e+06
122 2 Si 1.52594 24.0505 56.3868 2.4 -33.0353 5.7812e+06 7.06352e+06 1.34266e+07 1.96589e+06 1.3019e+06 1.23274e+06
123 3 O 1.4208 22.4818 56.4758 -1.2 -9.0464 -3.44685e+06 -2.93378e+06 -5.23208e+06 1.64591e+06 389745 852728
124 3 O 1.54441 24.9963 52.7297 -1.2 -8.35883 -3.65421e+06 -3.82028e+06 -4.32267e+06 321450 -443245 -1.23623e+06
125 3 O 0.291092 24.5545 55.6248 -1.2 -8.53122 -2.74117e+06 -5.27634e+06 -1.45223e+06 523919 1.12744e+06 -4551.74
126 3 O 2.71635 24.7224 55.4567 -1.2 -9.24224 -4.1484e+06 -3.34737e+06 -2.68885e+06 877319 -1.10307e+06 -1.08782e+06
127 1 Mg -0.0335968 23.6229 52.2067 1.2 -8.54611 834320 -304333 3.47125e+06 -819031 2.23776e+06 1.24773e+06
128 1 Mg 2.01073 23.3445 49.4541 1.2 -8.51771 3.21024e+06 1.1735e+06 -271661 119238 -171182 455180
129 2 Si 1.47594 25.6699 51.2449 2.4 -34.1299 8.55146e+06 7.2919e+06 9.49353e+06 76933.9 580813 1.56575e+06
130 3 O 1.58172 27.2371 51.3054 -1.2 -9.29908 -3.62513e+06 -2.89794e+06 -3.47161e+06 726882 -213822 -279376
131 3 O 1.69137 24.7544 57.9529 -1.2 -9.50414 -1.75745e+06 -4.06639e+06 309707 -627491 -1.21786e+06 1.01871e+06
132 3 O 0.157925 25.0378 50.6651 -1.2 -8.46696 -4.00923e+06 -3.42377e+06 -3.81367e+06 937302 -1.01931e+06 -607914
133 1 Mg -3.00341 23.6231 52.3098 1.2 -8.37385 20100.8 -902546 2.24912e+06 982473 -2.87934e+06 1.30035e+06
134 3 O 2.71149 25.0232 50.4656 -1.2 -8.79801 -3.71311e+06 -3.10562e+06 -1.96024e+06 -184757 892601 -652814
135 1 Mg -1.67021 23.5947 55.008 1.2 -8.30693 4.39792e+06 1.35626e+06 117778 520387 1.00163e+06 -1.22953e+06
136 2 Si -1.61982 21.5998 53.1992 2.4 -34.5644 1.1381e+07 5.55051e+06 7.72655e+06 515681 -452690 916905
137 3 O -1.75592 20.0665 53.0888 -1.2 -8.73143 -5.89097e+06 -4.42131e+06 -3.53416e+06 -988.514 -163782 194323
138 3 O -1.03938 22.8897 46.4223 -1.2 -7.15021 -3.8168e+06 -2.54995e+06 -2.53967e+06 -607082 -1.50298e+06 770432
139 3 O -2.96904 22.2622 53.8897 -1.2 -8.46523 -3.78094e+06 -5.22701e+06 -2.49007e+06 -894195 389745 -213473
140 3 O -0.368233 22.3155 53.8216 -1.2 -8.37367 -3.23223e+06 -3.9969e+06 -5.05464e+06 274288 -2.34175e+06 -281379
141 1 Mg -2.95533 30.6639 57.6463 1.2 -8.16596 11026.7 -359408 4.3026e+06 -1.0592e+06 -1.80702e+06 915004
142 1 Mg -1.38776 30.6357 49.8391 1.2 -8.80857 1.49024e+06 2.27076e+06 1.85001e+06 -197608 88710.3 1.43275e+06
143 2 Si -0.907929 28.1491 47.9262 2.4 -35.1859 9.99342e+06 7.73122e+06 8.95422e+06 478338 2.34489e+06 438384
144 3 O -0.829229 29.7184 47.99 -1.2 -8.32916 -3.19763e+06 -4.56529e+06 -2.70334e+06 468103 -1.92667e+06 -588643
145 3 O -1.45946 27.0152 51.769 -1.2 -8.72134 -4.38537e+06 -2.3981e+06 -7.22013e+06 115135 -508086 -1.5976e+06
146 3 O -2.07744 27.5697 48.8273 -1.2 -8.37598 -1.83296e+06 -4.04107e+06 -3.02039e+06 10435.5 -309416 -1.76925e+06
147 1 Mg 0.137907 26.087 46.819 1.2 -7.46715 2.79451e+06 153538 531816 1.12612e+06 1.60326e+06 -517909
148 3 O 0.55579 27.5065 48.3893 -1.2 -8.25455 -2.34605e+06 -2.10189e+06 -1.81203e+06 -291200 -370928 340816
149 1 Mg 1.64862 26.1996 54.6033 1.2 -8.65665 1.4084e+06 3.32212e+06 -853430 -358826 -372622 2.66744e+06
150 2 Si 1.38107 28.7865 56.5099 2.4 -34.0864 1.03106e+07 4.09149e+06 9.60462e+06 1.72353e+06 769125 69376.3
151 3 O 1.54943 27.2666 56.4989 -1.2 -9.36741 -3.79965e+06 -3.84235e+06 -3.70535e+06 -1.1469e+06 -459807 -159497
152 3 O 1.6432 29.7522 52.7291 -1.2 -8.62694 -3.7802e+06 -3.99641e+06 -5.66459e+06 495200 522372 -2.69924e+06
153 3 O 0.317201 29.4896 55.4845 -1.2 -8.01523 -4.61088e+06 -2.96578e+06 -2.49516e+06 -910153 380871 -429472
154 3 O 2.76781 29.3617 55.8633 -1.2 -8.12301 -4.86642e+06 -4.51677e+06 -2.45111e+06 -372541 -291284 -773392
155 1 Mg 0.0647462 28.3794 52.2059 1.2 -8.21229 468027 -466229 4.37067e+06 -1.14005e+06 1.53055e+06 1.92828e+06
156 1 Mg 2.10696 28.1021 49.4531 1.2 -8.27214 2.76389e+06 1.12118e+06 -162021 138920 -193748 781971
157 2 Si 1.57592 30.4257 51.2442 2.4 -33.8641 8.62996e+06 5.67332e+06 1.05273e+07 364063 691016 2.21874e+06
158 3 O 1.68288 31.9926 51.3043 -1.2 -9.28711 -3.92275e+06 -1.95779e+06 -4.19526e+06 769570 -230360 -78025.2
159 3 O 1.35186 29.4664 57.9035 -1.2 -9.52891 -4.14183e+06 -2.73892e+06 -5.86779e+06 318328 2.37889e+06 -1.34227e+06
160 3 O 0.258524 29.7935 50.6632 -1.2 -8.69031 -3.60366e+06 -2.93753e+06 -3.93876e+06 1.18885e+06 -1.24285e+06 -1.09325e+06
161 1 Mg -2.90462 28.3797 52.308 1.2 -8.04779 521670 5605.15 3.05578e+06 1.65117e+06 -1.52154e+06 2.0136e+06
162 3 O 2.81205 29.7787 50.4664 -1.2 -8.98759 -3.26254e+06 -2.73615e+06 -2.15221e+06 -421656 1.00244e+06 -1.28575e+06
163 1 Mg -1.59318 28.4077 55.0021 1.2 -8.81514 4.35994e+06 1.45564e+06 -105214 -604862 208432 1.66497e+06
164 2 Si -1.435 26.2304 53.1198 2.4 -33.7757 1.10995e+07 8.07222e+06 6.99825e+06 1.2332e+06 664963 2.59992e+06
165 3 O -1.6005 24.6943 53.0648 -1.2 -9.223 -6.39681e+06 -4.39246e+06 -3.7119e+06 645864 331144 -863257
166 3 O -0.943026 27.648 46.4208 -1.2 -7.29415 -3.58921e+06 -2.57344e+06 -2.52406e+06 -603749 -1.50762e+06 656525
167 3 O -2.71704 26.9954 53.8794 -1.2 -8.75526 -4.28234e+06 -5.08571e+06 -1.73585e+06 -2.68692e+06 924638 -515369
168 3 O -0.149271 27.0347 53.7784 -1.2 -8.36528 -2.14152e+06 -3.397e+06 -3.65977e+06 2.06885e+06 -831704 -771022
169 1 Mg -2.9128 35.6105 57.5237 1.2 -8.25222 -71124.1 -2.24145e+06 4.00366e+06 -1.63444e+06 -2.58776e+06 -767427
170 1 Mg -1.28421 35.3899 49.8376 1.2 -8.57209 1.06891e+06 2.1622e+06 2.00913e+06 -149711 234477 457046
171 2 Si -0.807101 32.9036 47.9247 2.4 -34.9414 9.55278e+06 6.9567e+06 9.78074e+06 495125 2.30772e+06 51558.2
172 3 O -0.727174 34.4729 47.9885 -1.2 -8.49426 -2.90881e+06 -4.36716e+06 -2.93301e+06 453852 -1.9271e+06 -157156
173 3 O -1.35735 31.7701 51.768 -1.2 -8.69984 -3.30125e+06 -1.23731e+06 -4.26501e+06 87867.8 714019 -2.07889e+06
174 3 O -1.97695 32.3253 48.826 -1.2 -8.45813 -1.62284e+06 -3.50748e+06 -3.65529e+06 -2732.53 -327590 -1.64657e+06
175 1 Mg 0.237665 30.8412 46.8168 1.2 -7.33241 2.58549e+06 -83256.4 765229 1.12105e+06 1.59833e+06 -443626
176 3 O 0.656562 32.2608 48.3877 -1.2 -8.36585 -2.20154e+06 -1.6321e+06 -2.25076e+06 -282013 -342008 429476
177 1 Mg 1.75551 30.6981 54.4735 1.2 -9.3573 3.04517e+06 1.78022e+06 -972800 786150 628613 1.4607e+06
178 2 Si 1.89358 33.4717 56.3212 2.4 -33.3952 1.16816e+07 7.52016e+06 1.2537e+07 -1.52599e+06 -1.1309e+06 3.17903e+06
179 3 O 1.81984 31.9058 56.3661 -1.2 -9.18005 -4.54812e+06 -845438 -4.57843e+06 1.01726e+06 690725 -3.26263e+06
180 3 O 1.74574 34.5067 52.7279 -1.2 -8.94829 -3.97227e+06 -2.27122e+06 -4.27883e+06 723954 -281045 -1.69306e+06
181 3 O 0.462613 34.215 55.7407 -1.2 -8.7614 -1.39139e+06 -1.56324e+06 -3.65395e+06 -1.95539e+06 -230002 -1.84323e+06
182 3 O 3.13443 34.3071 55.7367 -1.2 -8.67912 -1.82536e+06 -3.96326e+06 -3.00005e+06 1.21482e+06 341250 -1.13885e+06
183 1 Mg 0.167046 33.1343 52.2045 1.2 -8.2496 872637 -1.09542e+06 4.19763e+06 -1.51419e+06 1.81084e+06 1.49525e+06
184 1 Mg 2.20727 32.8578 49.4516 1.2 -8.18891 2.72985e+06 484954 385129 100574 -117393 519167
185 2 Si 1.67943 35.1802 51.2429 2.4 -33.3428 8.29769e+06 4.97521e+06 1.07084e+07 21120.2 311431 652753
186 3 O 1.78736 36.747 51.303 -1.2 -9.84283 -2.72019e+06 -2.4513e+06 -3.93919e+06 768030 226702 437750
187 3 O 1.72974 34.1376 57.9624 -1.2 -8.3398 -4.27554e+06 -2.05682e+06 -3.17145e+06 -769547 -549119 1.39552e+06
188 3 O 0.362533 34.5479 50.661 -1.2 -8.71633 -3.5807e+06 -2.34341e+06 -4.98138e+06 1.057e+06 -691416 -434441
189 1 Mg -2.80215 33.1347 52.3062 1.2 -8.26692 499663 -507997 4.29856e+06 1.77155e+06 -1.37385e+06 1.30117e+06
190 3 O 2.91593 34.533 50.466 -1.2 -9.13605 -3.28902e+06 -2.16716e+06 -2.58939e+06 -231909 801209 -427736
191 1 Mg -1.17648 33.256 55.2749 1.2 -8.76715 1.40963e+06 2.45775e+06 975650 218118 37456.7 491877
192 2 Si -1.19923 31.0597 53.2603 2.4 -34.2678 1.16224e+07 6.07811e+06 1.08314e+07 -1.10517e+06 110204 199414
193 3 O -1.47057 29.5385 53.3854 -1.2 -8.90572 -5.67983e+06 -4.0197e+06 -3.68239e+06 1.19104e+06 -1.27023e+06 -969398
194 3 O -0.842495 32.4028 46.4192 -1.2 -7.429 -3.36677e+06 -2.34717e+06 -2.75851e+06 -605457 -1.50367e+06 753345
195 3 O -2.52637 31.7908 53.9926 -1.2 -8.08798 -796208 -3.91485e+06 -3.29848e+06 -733833 791371 -317512
196 3 O 0.165411 31.6636 53.8025 -1.2 -8.45945 -3.87546e+06 -4.51113e+06 -2.74784e+06 1.70012e+06 -131873 393859
197 1 Mg -2.52123 40.4185 57.6457 1.2 -7.19638 -2.63118e+06 219486 3.39081e+06 -18151 -2.35325e+06 1.16829e+06
198 1 Mg -1.17787 40.1435 49.8359 1.2 -8.30774 586718 2.44112e+06 1.79083e+06 -242093 218273 911425
199 2 Si -0.702692 37.6572 47.9231 2.4 -34.4035 8.68958e+06 7.64403e+06 9.09299e+06 481958 2.36161e+06 -365971
200 3 O -0.621782 39.2264 47.9868 -1.2 -8.74989 -2.49651e+06 -4.67828e+06 -2.62924e+06 472746 -1.93585e+06 -231372
201 3 O -1.25221 36.5242 51.7666 -1.2 -9.50078 -2.88319e+06 -2.92379e+06 -6.47564e+06 190892 -1.23941e+06 264393
202 3 O -1.87295 37.0796 48.8243 -1.2 -8.78398 -1.16919e+06 -3.90339e+06 -3.18039e+06 12853.4 -343697 -1.25578e+06
203 1 Mg 0.341084 35.5943 46.8152 1.2 -7.14125 2.273e+06 -44787.1 734986 1.12415e+06 1.59582e+06 -764823
204 3 O 0.760681 37.0138 48.3864 -1.2 -8.6446 -1.70562e+06 -1.94862e+06 -1.97469e+06 -291502 -342173 790061
205 1 Mg 1.76335 35.5677 54.5313 1.2 -8.74185 3.94386e+06 1.15112e+06 648725 482092 371452 2.37491e+06
206 2 Si 1.77344 38.3297 56.4378 2.4 -33.4974 7.18553e+06 7.29209e+06 7.05236e+06 1.11439e+06 -448665 1.2152e+06
207 3 O 1.72554 36.6414 56.4528 -1.2 -9.02104 -5.07273e+06 -135677 -3.15426e+06 -86619.8 245293 -787458
208 3 O 1.85132 39.2606 52.7264 -1.2 -9.64116 -2.23911e+06 -2.84449e+06 -5.29046e+06 -661959 -417395 -884657
209 3 O 0.617297 38.9675 55.6731 -1.2 -9.34407 -5.65004e+06 -2.7238e+06 -3.2457e+06 543618 -698020 390463
210 3 O 3.08791 38.9256 55.7132 -1.2 -8.42049 -2.15713e+06 -3.44054e+06 -2.93086e+06 935775 51212.2 -1.49803e+06
211 1 Mg 0.272384 37.8883 52.2029 1.2 -7.49187 -1.29368e+06 -724885 3.65094e+06 -1.68828e+06 2.34555e+06 1.38589e+06
212 1 Mg 2.31122 37.6122 49.4501 1.2 -7.80753 2.11124e+06 989132 -102140 125069 -237370 237518
213 2 Si 1.78573 39.934 51.2414 2.4 -32.4976 7.14929e+06 5.86747e+06 9.61829e+06 818651 621319 750255
214 3 O 1.89428 41.5006 51.3014 -1.2 -9.96293 -3.02985e+06 -2.25936e+06 -3.87083e+06 636000 -1.37335e+06 -14005.3
215 3 O 1.87816 38.9432 57.8179 -1.2 -9.5158 -2.63734e+06 -2.24424e+06 -7.94094e+06 711341 1.36685e+06 -769665
216 3 O 0.469216 39.3015 50.6588 -1.2 -9.13618 -2.80317e+06 -2.85136e+06 -4.55474e+06 1.25723e+06 -696494 -480699
217 1 Mg -2.69668 37.8889 52.3043 1.2 -7.09958 -802671 -430360 4.50375e+06 2.09181e+06 -1.98718e+06 857937
218 3 O 3.0225 39.2866 50.4651 -1.2 -9.57401 -2.62135e+06 -2.72511e+06 -1.98002e+06 -420517 935562 -718479
219 1 Mg -1.07644 38.0006 54.8947 1.2 -8.20022 3.79995e+06 1.80006e+06 -807104 198561 -1.10598e+06 -927039
220 2 Si -1.18271 35.9471 53.1968 2.4 -33.1261 7.36262e+06 5.72611e+06 1.12081e+07 401091 -2.01928e+06 1.36827e+06
221 3 O -1.26152 34.2817 53.1945 -1.2 -8.7904 -3.62027e+06 1.14744e+06 -4.10173e+06 -117747 1.07657e+06 -847584
222 3 O -0.738054 37.1566 46.4176 -1.2 -7.63666 -3.03256e+06 -2.54657e+06 -2.56351e+06 -605776 -1.50914e+06 948967
223 3 O -2.40367 36.566 54.0798 -1.2 -8.84609 -919240 -4.07499e+06 -3.68546e+06 488401 -185758 -170407
224 3 O 0.161202 36.5564 53.7247 -1.2 -9.24166 -3.64297e+06 -3.41518e+06 -5.27035e+06 111431 -654388 -292605
225 1 Mg -2.10441 45.0204 57.0902 1.2 -7.03366 -2.25123e+06 -3.04148e+06 3.93872e+06 -2.72058e+06 -1.45169e+06 -12164.9
226 1 Mg -1.06993 44.8968 49.8343 1.2 -8.10556 199301 2.42369e+06 1.87677e+06 -182858 90870 338145
227 2 Si -0.596166 42.4103 47.9215 2.4 -34.0682 8.13386e+06 7.48858e+06 9.27396e+06 475277 2.27949e+06 -264109
228 3 O -0.51472 43.9796 47.9853 -1.2 -8.92783 -2.21162e+06 -4.63718e+06 -2.66326e+06 461953 -1.90015e+06 -67797.1
229 3 O -1.14475 41.2777 51.7649 -1.2 -9.24467 -2.52311e+06 -3.64387e+06 -6.00862e+06 840198 1.30506e+06 -996205
230 3 O -1.76671 41.8331 48.8226 -1.2 -8.93524 -835252 -3.78549e+06 -3.37754e+06 17452 -340762 -1.4629e+06
231 1 Mg 0.447076 40.3473 46.8135 1.2 -6.93959 1.95397e+06 107769 578193 1.12162e+06 1.5916e+06 -686592
232 3 O 0.866985 41.7666 48.385 -1.2 -8.82565 -1.47109e+06 -1.88426e+06 -1.97603e+06 -288318 -324166 649159
233 1 Mg 1.87778 40.3473 54.4193 1.2 -7.94495 1.44443e+06 2.8525e+06 42155.6 -152397 619700 337840
234 2 Si 2.35817 42.9984 56.3221 2.4 -32.9499 4.77869e+06 3.06078e+06 1.08482e+07 -1.48669e+06 -1.38845e+06 1.86381e+06
235 3 O 2.16162 41.5479 56.5682 -1.2 -9.57266 -2.36066e+06 -7.37915e+06 -3.91777e+06 1.7407e+06 508340 -1.48772e+06
236 3 O 1.95891 44.014 52.7248 -1.2 -9.5787 -2.91752e+06 -2.30672e+06 -5.1101e+06 445809 -350576 -1.08495e+06
237 3 O 1.08281 43.6512 55.6946 -1.2 -9.16914 -3.25776e+06 -4.01314e+06 -4.39654e+06 69962.6 -1.14465e+06 63323.5
238 3 O 3.52279 43.6382 55.5039 -1.2 -9.44901 -4.01245e+06 -3.55374e+06 -4.92989e+06 607955 692569 -403910
239 1 Mg 0.379928 42.6418 52.2013 1.2 -7.46689 -273490 -1.35946e+06 3.9448e+06 -1.02536e+06 2.00431e+06 930085
240 1 Mg 2.41752 42.366 49.4484 1.2 -7.68531 1.95295e+06 726999 132724 135781 -69992 373774
241 2 Si 1.89374 44.6874 51.2398 2.4 -32.1531 6.856e+06 5.29208e+06 9.94206e+06 353235 907524 144552
242 3 O 2.00266 46.254 51.2996 -1.2 -10.5019 -1.77734e+06 -2.71526e+06 -3.25675e+06 968623 -507830 371589
243 3 O 2.32338 43.6739 57.8302 -1.2 -9.46208 -1.64174e+06 -4.27515e+06 -4.81463e+06 -658614 -3.19876e+06 -582526
244 3 O 0.577464 44.0549 50.6567 -1.2 -9.24393 -3.11861e+06 -2.38776e+06 -4.82957e+06 1.03537e+06 -413514 -110873
245 1 Mg -2.58906 42.6425 52.3022 1.2 -7.66314 -1.03e+06 -2.09358e+06 2.80048e+06 2.17583e+06 -1.78328e+06 2.47484e+06
246 3 O 3.13067 44.0398 50.464 -1.2 -9.61224 -2.44347e+06 -2.41144e+06 -2.54164e+06 -282745 612361 -336351
247 1 Mg -0.67546 42.7273 55.1897 1.2 -7.8098 1.32513e+06 755195 902712 426398 707704 -1.06993e+06
248 2 Si -1.1698 40.6537 53.2264 2.4 -32.5058 6.47433e+06 5.6473e+06 9.51423e+06 -1.73114e+06 -127805 218547
249 3 O -1.11695 39.1117 53.2001 -1.2 -10.0984 -2.95294e+06 -2.5201e+06 -5.05872e+06 -32755.3 199944 1.26565e+06
250 3 O -0.631421 41.9099 46.4159 -1.2 -7.81337 -2.74775e+06 -2.60754e+06 -2.50205e+06 -603362 -1.50114e+06 902939
251 3 O -2.55683 41.4058 53.7228 -1.2 -9.02503 -1.13765e+06 -4.5991e+06 -7.11238e+06 -1.69091e+06 421892 839427
252 3 O 0.0435045 41.3039 54.0167 -1.2 -9.7527 -1.64482e+06 -5.16303e+06 -2.55967e+06 727860 -762810 93013.2
253 1 Mg -2.32324 49.6986 57.6522 1.2 -6.32279 -1.43193e+06 -1.36035e+06 4.8083e+06 -1.86832e+06 -1.29174e+06 -1.52059e+06
254 1 Mg -0.961069 49.6502 49.8327 1.2 -7.77307 -225174 2.77117e+06 1.40871e+06 -149153 378831 1.12581e+06
255 2 Si -0.488083 47.1636 47.9198 2.4 -33.5604 7.3458e+06 8.3426e+06 8.39203e+06 510575 2.32353e+06 -288745
256 3 O -0.40607 48.7329 47.9837 -1.2 -9.15254 -1.84729e+06 -5.04475e+06 -2.2652e+06 456757 -1.94637e+06 -395929
257 3 O -1.0361 46.031 51.7632 -1.2 -9.91809 -1.2053e+06 -3.85959e+06 -6.03919e+06 54178.6 1.4298e+06 -32808.1
258 3 O -1.65866 46.5866 48.821 -1.2 -9.24116 -377325 -4.21157e+06 -2.92709e+06 4251.68 -322362 -1.22094e+06
259 1 Mg 0.554124 45.1001 46.8117 1.2 -6.75209 1.66095e+06 268128 411217 1.12503e+06 1.59055e+06 -789180
260 3 O 0.974961 46.5195 48.3832 -1.2 -9.09451 -1.02245e+06 -2.26977e+06 -1.60936e+06 -289442 -341197 788175
261 1 Mg 2.11289 45.0254 54.5168 1.2 -7.90947 1.39999e+06 2.0827e+06 343650 -637161 -545685 2.01047e+06
262 2 Si 2.20919 47.8172 56.3796 2.4 -31.7313 3.47362e+06 9.17059e+06 6.56041e+06 -559112 2.13705e+06 -611880
263 3 O 2.23977 46.1856 56.5048 -1.2 -9.96269 -1.67188e+06 -560454 -3.54219e+06 -293576 -813347 -695551
264 3 O 2.0677 48.7672 52.7232 -1.2 -10.3724 -1.4247e+06 -3.07227e+06 -5.84935e+06 178542 -13120.2 -2.1705e+06
265 3 O 0.87724 48.392 55.6909 -1.2 -9.38097 -887298 -5.52684e+06 -3.30539e+06 -566904 -1.26508e+06 -628662
266 3 O 3.40453 48.5048 55.7869 -1.2 -9.8192 -4.40302e+06 -4.90428e+06 -3.07539e+06 -421871 2.68244e+06 1.00604e+06
267 1 Mg 0.488584 47.395 52.1996 1.2 -6.72045 -2.05588e+06 -367643 4.53636e+06 -1.58961e+06 2.01219e+06 1.52292e+06
268 1 Mg 2.52544 47.1195 49.4466 1.2 -7.30987 1.31098e+06 1.29763e+06 -396664 62125.2 -160713 229835
269 2 Si 2.00256 49.4407 51.2382 2.4 -31.1918 4.84978e+06 6.1012e+06 9.52782e+06 97470.4 -158303 1.20861e+06
270 3 O 2.11156 51.0073 51.2982 -1.2 -10.6092 -1.83406e+06 -2.30943e+06 -3.19694e+06 542637 -285815 -150728
271 3 O 2.10308 48.4877 57.8105 -1.2 -10.1734 -3.19992e+06 -4.99716e+06 -7.80048e+06 1.99886e+06 45071.5 2.18083e+06