ITEM: TIMESTEP
45600
ITEM: NUMBER OF ATOMS
10500
ITEM: BOX BOUNDS xy xz yz pp pp pp
0.0000000000000000e+00 8.9687999999999999e+00 2.9895999999999998e+00
0.0000000000000000e+00 1.1872499999999999e+02 0.0000000000000000e+00
0.0000000000000000e+00 2.5297749999999999e+02 0.0000000000000000e+00
ITEM: ATOMS id type element xu yu zu q c_pe c_s[1] c_s[2] c_s[3] c_s[4] c_s[5] c_s[6]
1 1 Mg -3.59672 7.13243 57.5958 1.2 -7.85748 -709084 -2.21922e+06 5.08881e+06 -2.63188e+06 -1.52206e+06 -1.55436e+06
2 1 Mg -1.82655 6.90154 50.0912 1.2 -8.19823 92024.3 31624 2.21084e+06 -107791 -190154 1.78232e+06
3 2 Si -0.257935 3.96038 48.0876 2.4 -35.698 9.43569e+06 7.80836e+06 1.18041e+07 792071 2.0407e+06 2.50937e+06
4 3 O -0.335812 5.46814 47.6264 -1.2 -7.92598 -2.85666e+06 -1.84627e+06 -3.15699e+06 149758 -983882 -954392
5 3 O -2.03793 3.43377 51.8941 -1.2 -9.48278 -2.91302e+06 -1.3517e+06 -8.75522e+06 -881684 679263 -712480
6 3 O -1.54015 3.53929 48.9521 -1.2 -8.52417 -1.02785e+06 -1.18872e+06 -4.67972e+06 34540 -765399 -641047
7 1 Mg 1.82954 2.54582 47.1376 1.2 -7.79364 2.279e+06 -921165 1.17984e+06 1.14806e+06 820941 903343
8 3 O 1.22989 3.66364 48.7877 -1.2 -8.20926 -1.27315e+06 -1.9314e+06 -4.20665e+06 -482393 -709938 -1.35182e+06
9 1 Mg 1.02958 2.36516 54.6923 1.2 -8.59941 2.50294e+06 -69216.1 2.29005e+06 78959.5 927349 1.01806e+06
10 2 Si 1.04632 5.07201 56.4735 2.4 -32.8414 9.70368e+06 2.21264e+06 1.14243e+07 -412271 603349 -40043.3
11 3 O 1.06793 3.54267 56.4556 -1.2 -9.26981 -4.74259e+06 -1.08453e+06 -4.9693e+06 544346 819189 -681174
12 3 O 1.10813 6.07342 52.8172 -1.2 -8.89723 -3.11769e+06 -2.86318e+06 -4.50606e+06 333396 -349491 -1.53283e+06
13 3 O -0.293566 5.76749 55.7797 -1.2 -9.32784 -1.74959e+06 -1.20728e+06 -5.27669e+06 -164507 -212934 -348911
14 3 O 2.32398 5.75925 55.7987 -1.2 -9.04524 -1.50132e+06 -2.69277e+06 -4.74411e+06 -36675.8 644670 1.14485e+06
15 1 Mg -0.459401 4.67631 52.2426 1.2 -7.79861 -704515 -1.62914e+06 6.14456e+06 -1.38217e+06 1.06637e+06 968296
16 1 Mg 2.79456 3.9971 49.9987 1.2 -8.13492 3.24273e+06 -623793 2.16743e+06 -460030 674630 -450114
17 2 Si 1.16169 6.59457 51.2556 2.4 -33.7393 7.17606e+06 4.29274e+06 1.39377e+07 116401 442984 3.5814e+06
18 3 O 1.28989 8.18905 51.2909 -1.2 -9.34186 -3.16294e+06 -430360 -5.10278e+06 285770 -776365 882458
19 3 O 1.06551 5.74901 57.9184 -1.2 -9.35546 -4.8186e+06 -2.33335e+06 -6.65508e+06 -561098 1.06689e+06 470395
20 3 O -0.184847 6.06029 50.6845 -1.2 -8.77781 -2.76902e+06 -2.29712e+06 -5.95451e+06 1.57265e+06 -520103 -1.94823e+06
21 1 Mg -3.49704 4.67769 52.6661 1.2 -7.4884 -204480 -1.79506e+06 3.74415e+06 2.33576e+06 -956370 676191
22 3 O 2.48581 5.93312 50.6539 -1.2 -9.36661 -2.90097e+06 -699917 -3.82013e+06 -1.68538e+06 -352511 -1.36834e+06
23 1 Mg -2.00134 4.59675 55.1181 1.2 -8.54336 2.57846e+06 1.93308e+06 258162 399399 -1.0904e+06 -860785
24 2 Si -1.94256 2.56284 53.1555 2.4 -33.1145 8.57391e+06 49011.8 1.37802e+07 117380 -399989 1.18878e+06
25 3 O -1.97361 1.0447 53.0838 -1.2 -9.72921 -3.71512e+06 -3.83562e+06 -5.49463e+06 657870 -424041 -1.17534e+06
26 3 O -0.0467762 2.97103 46.8385 -1.2 -7.20052 -2.65527e+06 -1.72315e+06 -3.30854e+06 -990417 -2.0155e+06 -1.01094e+06
27 3 O -3.25608 3.18016 54.0902 -1.2 -8.64968 -2.85006e+06 -769903 -5.85699e+06 -1.46977e+06 -736199 1.12144e+06
28 3 O -0.728212 3.17345 54.0045 -1.2 -8.89718 -3.73542e+06 -1.70593e+06 -3.78488e+06 824206 551603 296830
29 1 Mg -3.13332 12.011 57.3612 1.2 -8.06058 -866524 -1.76826e+06 5.04546e+06 -1.56024e+06 -1.71839e+06 -368212
30 1 Mg -1.75014 11.5838 49.8362 1.2 -8.38995 745045 1.27341e+06 3.12592e+06 -276804 436209 588416
31 2 Si -1.18003 9.02138 47.9309 2.4 -34.3304 8.27963e+06 5.65171e+06 1.12787e+07 238291 2.63441e+06 421672
32 3 O -1.23224 10.5991 47.9811 -1.2 -8.76216 -2.41816e+06 -2.88696e+06 -3.49534e+06 649585 -1.93932e+06 134472
33 3 O -1.79016 8.01447 51.8693 -1.2 -8.81325 -3.85613e+06 -320301 -5.32249e+06 325067 -46282 -1.66211e+06
34 3 O -2.30986 8.37215 48.8528 -1.2 -8.98859 -1.01637e+06 -1.68147e+06 -4.20349e+06 -338722 -614560 -911129
35 1 Mg 0.154883 7.08234 46.8007 1.2 -7.43306 1.7425e+06 -820479 1.46991e+06 941655 1.72748e+06 -719687
36 3 O 0.325447 8.50934 48.3809 -1.2 -8.64946 -1.3585e+06 -1.16813e+06 -3.55701e+06 -30351.6 -827381 284722
37 1 Mg 1.00246 7.0422 54.7901 1.2 -8.3719 2.96364e+06 72973.9 1.03577e+06 726078 -133475 1.94736e+06
38 2 Si 1.20485 9.94735 56.4466 2.4 -34.1435 8.26256e+06 3.85294e+06 1.22325e+07 46276.6 152190 511774
39 3 O 1.10345 8.38885 56.5555 -1.2 -9.26871 -4.49165e+06 25642.5 -5.77276e+06 510476 -40504.5 -552729
40 3 O 1.28624 10.7248 52.7351 -1.2 -9.24506 -3.36486e+06 -2.09704e+06 -6.42761e+06 65455.3 -981406 -1.45595e+06
41 3 O -0.0414544 10.6287 55.6661 -1.2 -8.83059 -2.87296e+06 -2.68799e+06 -4.38937e+06 -845911 -427077 249405
42 3 O 2.5166 10.5052 55.8133 -1.2 -8.69129 -3.51233e+06 -3.30858e+06 -5.25195e+06 543864 719507 288631
43 1 Mg -0.262694 9.34741 52.2523 1.2 -7.97547 144265 -1.01071e+06 5.4023e+06 -1.8185e+06 1.64479e+06 1.0582e+06
44 1 Mg 1.87648 9.01537 49.4629 1.2 -7.88418 2.0133e+06 -376659 1.21156e+06 233088 -295284 227335
45 2 Si 1.21415 11.3799 51.2378 2.4 -32.9073 7.9333e+06 3.66954e+06 1.2072e+07 -15183.2 218567 271070
46 3 O 1.31634 12.9512 51.3023 -1.2 -9.95229 -2.89213e+06 -1.08944e+06 -4.51317e+06 531355 -193525 752775
47 3 O 1.12953 10.5848 57.9106 -1.2 -8.82508 -3.36832e+06 -2.31454e+06 -6.4643e+06 527123 -625133 143053
48 3 O -0.115718 10.7564 50.681 -1.2 -8.89982 -2.81343e+06 -1.77422e+06 -5.51449e+06 1.35082e+06 -521797 -622924
49 1 Mg -3.26386 9.35564 52.3622 1.2 -7.81399 105565 -1.80887e+06 4.62134e+06 2.0692e+06 -1.87437e+06 1.1742e+06
50 3 O 2.45216 10.7265 50.4558 -1.2 -9.4674 -2.87108e+06 -1.09723e+06 -2.93286e+06 -791392 612344 208201
51 1 Mg -1.7613 9.73075 55.136 1.2 -8.49346 2.64662e+06 504860 1.56407e+06 116191 -13884.3 -443275
52 2 Si -1.81814 7.38124 53.4566 2.4 -33.7846 1.03544e+07 2.18662e+06 1.2876e+07 19221.5 -920947 -415530
53 3 O -1.85513 5.84441 53.4675 -1.2 -9.4095 -4.03911e+06 -1.25633e+06 -5.90786e+06 700302 -26470.7 491286
54 3 O -1.19417 8.46968 46.4488 -1.2 -7.70233 -2.62412e+06 -1.33908e+06 -3.65147e+06 -542010 -1.74559e+06 679835
55 3 O -3.11808 8.09212 53.986 -1.2 -8.6667 -2.07148e+06 -1.70077e+06 -5.5749e+06 90062.4 557993 -386177
56 3 O -0.470567 8.08736 53.9638 -1.2 -8.78811 -2.89394e+06 -1.85745e+06 -5.26815e+06 810999 -725381 -648957
57 1 Mg -3.03505 16.6698 57.549 1.2 -7.7465 -647617 -2.19363e+06 3.72242e+06 -789664 -1.98036e+06 -773913
58 1 Mg -1.6714 16.3544 49.8412 1.2 -8.2728 568337 1.47032e+06 2.79371e+06 -230326 162130 552062
59 2 Si -1.18567 13.8526 47.9314 2.4 -34.1385 8.24547e+06 5.2195e+06 1.14648e+07 486226 2.28958e+06 -702321
60 3 O -1.09664 15.4205 47.9915 -1.2 -8.84673 -2.26435e+06 -3.41147e+06 -3.66918e+06 431658 -1.93679e+06 1005.01
61 3 O -1.73493 12.7491 51.7772 -1.2 -9.23937 -2.17358e+06 -2.36243e+06 -6.34264e+06 373561 -1.37447e+06 237357
62 3 O -2.36115 13.2717 48.8238 -1.2 -8.90658 -1.02322e+06 -2.55172e+06 -4.33364e+06 -85765.2 -409588 -1.0445e+06
63 1 Mg -0.159928 11.7639 46.8533 1.2 -6.92727 1.95238e+06 -1.163e+06 1.82059e+06 1.12739e+06 1.57174e+06 -969925
64 3 O 0.2623 13.1866 48.413 -1.2 -8.79792 -1.4699e+06 -598254 -3.21307e+06 -209214 -271490 996514
65 1 Mg 1.06437 11.8366 54.3634 1.2 -8.50446 625922 467638 315934 458131 -43851.8 1.11964e+06
66 2 Si 1.42002 14.6483 56.5055 2.4 -33.0913 8.14475e+06 6.90408e+06 1.14307e+07 -208928 751942 1.13749e+06
67 3 O 1.27149 13.0738 56.5745 -1.2 -9.26307 -4.08604e+06 -1.48557e+06 -5.58567e+06 642518 30793.5 588027
68 3 O 1.36565 15.4813 52.729 -1.2 -9.53757 -2.65215e+06 -2.01429e+06 -5.32446e+06 594839 361849 -832992
69 3 O 0.0846185 15.2106 55.7752 -1.2 -8.97727 -596042 -4.16459e+06 -3.79153e+06 -880687 -681391 -389255
70 3 O 2.72503 15.2834 55.8062 -1.2 -9.30245 -2.95506e+06 -4.0168e+06 -3.12403e+06 1.97616e+06 -23943 309841
71 1 Mg -0.206989 14.1049 52.2121 1.2 -7.6704 -1.04069e+06 -1.39185e+06 5.29791e+06 -1.04605e+06 1.84521e+06 655051
72 1 Mg 1.82591 13.8102 49.4556 1.2 -7.72673 2.0749e+06 -79983.9 933557 164521 -187090 102670
73 2 Si 1.29285 16.1518 51.2434 2.4 -32.5796 7.06278e+06 3.76014e+06 1.20247e+07 301879 228337 286058
74 3 O 1.39496 17.7199 51.3047 -1.2 -9.97375 -2.87787e+06 -1.19145e+06 -4.67354e+06 626316 56038.6 687728
75 3 O 1.30996 15.4517 57.9286 -1.2 -9.14326 -3.15061e+06 -3.63949e+06 -5.47843e+06 868930 -783736 1.95784e+06
76 3 O -0.0269106 15.5178 50.6688 -1.2 -9.17962 -2.818e+06 -1.85125e+06 -5.4326e+06 1.01253e+06 -775394 -96224.1
77 1 Mg -3.18391 14.1057 52.3125 1.2 -7.19541 -450349 -1.87538e+06 4.68859e+06 1.92766e+06 -2.0329e+06 624478
78 3 O 2.52432 15.503 50.4579 -1.2 -9.55644 -2.60464e+06 -1.52318e+06 -3.06973e+06 -366227 779508 -233808
79 1 Mg -1.66894 14.3546 55.1449 1.2 -8.23607 1.8299e+06 1.14427e+06 897660 422371 -157028 -418892
80 2 Si -1.85921 12.1227 53.2453 2.4 -33.1865 8.42107e+06 -351291 1.26818e+07 1.90693e+06 -1.29533e+06 568560
81 3 O -1.78931 10.6611 53.2643 -1.2 -9.3407 -4.48229e+06 -5.26697e+06 -5.54106e+06 269841 704541 398636
82 3 O -1.21337 13.3381 46.4311 -1.2 -7.79462 -2.83815e+06 -1.3001e+06 -3.74434e+06 -630278 -1.45785e+06 1.06737e+06
83 3 O -3.13896 12.669 53.975 -1.2 -9.08225 -2.52013e+06 -3.2832e+06 -3.84924e+06 100345 474080 -195423
84 3 O -0.461053 12.8371 53.8742 -1.2 -8.82151 -1.41401e+06 -3.44109e+06 -5.35376e+06 1.22874e+06 -1.61989e+06 814999
85 1 Mg -2.84861 21.458 57.272 1.2 -7.6941 1.12152e+06 -1.27696e+06 4.93063e+06 -937395 -837325 -932316
86 1 Mg -1.5831 21.1217 49.8405 1.2 -8.38902 663746 1.36779e+06 2.93948e+06 -189594 141839 667556
87 2 Si -1.09384 18.6291 47.9287 2.4 -34.1743 8.31826e+06 5.40689e+06 1.13226e+07 485593 2.31362e+06 -440886
88 3 O -1.02071 20.1985 47.9911 -1.2 -8.77951 -2.4328e+06 -3.46588e+06 -3.73605e+06 460813 -1.91891e+06 -113208
89 3 O -1.65002 17.5002 51.771 -1.2 -9.19657 -2.41893e+06 -1.45844e+06 -8.14864e+06 237523 92275.5 -291453
90 3 O -2.26174 18.0434 48.8281 -1.2 -8.91883 -917452 -2.71084e+06 -4.34638e+06 -19446.1 -343804 -1.15637e+06
91 1 Mg -0.0440435 16.5651 46.8269 1.2 -6.90582 1.86601e+06 -982705 1.67649e+06 1.13429e+06 1.58213e+06 -811391
92 3 O 0.37001 17.9877 48.3925 -1.2 -8.8022 -1.49859e+06 -840994 -3.0335e+06 -285003 -344403 826514
93 1 Mg 1.59456 16.5427 54.4962 1.2 -8.1187 2.56937e+06 877721 1.34653e+06 -219250 507482 832716
94 2 Si 1.46237 19.256 56.2276 2.4 -33.3174 8.12215e+06 5.22777e+06 1.25167e+07 -696167 302698 713979
95 3 O 1.33058 17.7158 56.3813 -1.2 -9.39546 -3.20259e+06 -1.9962e+06 -4.50393e+06 84673.9 446193 22739.1
96 3 O 1.45147 20.239 52.7294 -1.2 -9.48307 -2.86788e+06 -1.82526e+06 -7.09468e+06 -549605 -1.05305e+06 -1.21013e+06
97 3 O 0.0763186 20.0098 55.6316 -1.2 -8.80217 -678930 -932383 -3.89604e+06 -1.34001e+06 154315 261405
98 3 O 2.62279 19.8916 55.4759 -1.2 -9.12719 -4.13483e+06 -2.80489e+06 -6.05115e+06 781124 1.5847e+06 1.11822e+06
99 1 Mg -0.126194 18.8651 52.2079 1.2 -7.52889 -425502 -2.0314e+06 5.23931e+06 -1.30395e+06 1.74742e+06 539059
100 1 Mg 1.92402 18.5815 49.4545 1.2 -7.73152 1.97702e+06 -138565 1.00334e+06 125847 -122721 114176
101 2 Si 1.38106 20.9117 51.2443 2.4 -32.6681 7.61382e+06 3.5708e+06 1.1775e+07 314956 996620 54928.4
102 3 O 1.48527 22.4795 51.3054 -1.2 -9.87295 -3.24884e+06 -1.07595e+06 -4.46144e+06 840932 -655973 604306
103 3 O 1.49947 20.0449 57.7632 -1.2 -8.82633 -2.41654e+06 -940677 -2.69291e+06 -93951 15834.6 1.97273e+06
104 3 O 0.0615419 20.2804 50.6669 -1.2 -9.1429 -3.00393e+06 -1.82215e+06 -5.18083e+06 1.1991e+06 -784696 -177122
105 1 Mg -3.09665 18.8643 52.3122 1.2 -7.46838 -752958 -1.33774e+06 5.08394e+06 1.31271e+06 -1.47214e+06 619091
106 3 O 2.61548 20.2646 50.4626 -1.2 -9.49092 -2.58897e+06 -1.58015e+06 -3.20645e+06 -411665 762925 -289614
107 1 Mg -1.635 18.9164 55.1042 1.2 -8.33237 1.79764e+06 894003 851631 123591 587898 -621626
108 2 Si -1.51504 16.7904 53.1931 2.4 -33.1021 5.90301e+06 2.53964e+06 1.2178e+07 154980 946558 -75329.2
109 3 O -1.68979 15.2675 53.1614 -1.2 -9.88781 -2.85775e+06 -3.45542e+06 -4.83921e+06 1.36154e+06 125757 228292
110 3 O -1.12868 18.1227 46.4249 -1.2 -7.78876 -2.80489e+06 -1.44397e+06 -3.6367e+06 -603320 -1.49494e+06 938461
111 3 O -2.68749 17.4945 53.9684 -1.2 -9.16126 -3.64959e+06 -3.64477e+06 -6.00743e+06 -392390 1.76039e+06 120607
112 3 O -0.194146 17.4589 53.7616 -1.2 -9.01087 -3.12132e+06 -1.82915e+06 -5.30571e+06 1.17834e+06 -334840 302287
113 1 Mg -2.80164 26.0469 57.4099 1.2 -7.83875 -726382 -3.01729e+06 5.18708e+06 -1.66248e+06 -1.42194e+06 -576030
114 1 Mg -1.48778 25.88 49.8402 1.2 -8.49397 821202 1.30534e+06 2.99906e+06 -215014 188331 461841
115 2 Si -1.00491 23.3922 47.9274 2.4 -34.3472 8.56388e+06 5.20005e+06 1.15686e+07 496364 2.30067e+06 -514709
116 3 O -0.927602 24.9615 47.9909 -1.2 -8.69912 -2.56116e+06 -3.42175e+06 -3.85532e+06 459670 -1.91709e+06 7363.06
117 3 O -1.55795 22.2588 51.7696 -1.2 -8.99918 -2.09648e+06 -1.07776e+06 -5.21843e+06 -28839.6 -120441 -1.21016e+06
118 3 O -2.17411 22.8111 48.8277 -1.2 -8.80489 -1.05915e+06 -2.6525e+06 -4.49517e+06 -2627.16 -361401 -1.17938e+06
119 1 Mg 0.0423997 21.3296 46.8225 1.2 -6.95475 1.97252e+06 -1.05982e+06 1.73867e+06 1.12491e+06 1.58692e+06 -746904
120 3 O 0.458537 22.7495 48.3911 -1.2 -8.70954 -1.66444e+06 -750290 -3.12376e+06 -289310 -321360 815003
121 1 Mg 1.39164 21.3101 54.3882 1.2 -8.32017 873273 123707 527558 -181182 -557965 323960
122 2 Si 1.60766 24.0864 56.384 2.4 -32.8587 7.33308e+06 3.91814e+06 1.16949e+07 176827 -28781.2 282489
123 3 O 1.48791 22.5886 56.4902 -1.2 -9.61682 -2.82965e+06 -2.95587e+06 -4.91262e+06 -68377.3 319195 512009
124 3 O 1.54441 24.9963 52.7297 -1.2 -9.24151 -2.8929e+06 -1.81087e+06 -5.60264e+06 -443690 -742365 -1.06048e+06
125 3 O 0.262343 24.8101 55.8416 -1.2 -9.07823 -3.24926e+06 -3.94348e+06 -4.2847e+06 -1.06005e+06 108142 1.23899e+06
126 3 O 2.79086 24.8222 55.7035 -1.2 -9.09955 -2.60075e+06 -3.13432e+06 -5.26181e+06 716797 934361 183035
127 1 Mg -0.0335968 23.6229 52.2067 1.2 -7.76343 -177951 -1.97091e+06 4.88219e+06 -709742 1.88846e+06 316853
128 1 Mg 2.01073 23.3445 49.4541 1.2 -7.84896 2.2218e+06 -283827 1.0991e+06 98806 -107386 83491.7
129 2 Si 1.47594 25.6699 51.2449 2.4 -33.0394 8.03962e+06 3.18746e+06 1.22964e+07 569973 833221 -49570.8
130 3 O 1.58172 27.2371 51.3054 -1.2 -9.79207 -3.27631e+06 -1.10907e+06 -4.66909e+06 688575 -1.16823e+06 963839
131 3 O 1.73646 24.8088 57.9494 -1.2 -9.07463 -3.54822e+06 -2.90318e+06 -6.0828e+06 343318 -152995 3.0035e+06
132 3 O 0.157925 25.0378 50.6651 -1.2 -8.93938 -3.27651e+06 -1.67883e+06 -5.54609e+06 1.12347e+06 -692485 -65555.6
133 1 Mg -3.00341 23.6231 52.3098 1.2 -7.65826 -437063 -1.42588e+06 5.03597e+06 1.20786e+06 -1.80687e+06 168240
134 3 O 2.71149 25.0232 50.4656 -1.2 -9.35486 -2.90985e+06 -1.54149e+06 -3.23041e+06 -325161 845472 -207965
135 1 Mg -1.2889 23.8087 55.0986 1.2 -8.09858 2.08859e+06 932298 1.96014e+06 -521204 -220150 -232453
136 2 Si -1.51491 21.4928 53.273 2.4 -32.8616 8.38733e+06 1.8363e+06 1.42054e+07 -118810 -662733 -1.60075e+06
137 3 O -1.61017 20.0335 53.211 -1.2 -9.80322 -3.62451e+06 -4.97337e+06 -5.84099e+06 634051 755606 644915
138 3 O -1.03938 22.8897 46.4223 -1.2 -7.73367 -2.8767e+06 -1.38567e+06 -3.71157e+06 -606371 -1.49889e+06 943520
139 3 O -2.91637 22.1855 53.9609 -1.2 -8.69099 -673851 -2.85401e+06 -3.83128e+06 -1.95202e+06 259408 1.13989e+06
140 3 O -0.27285 22.3088 53.8918 -1.2 -9.4396 -2.45714e+06 -1.5424e+06 -4.99477e+06 1.44616e+06 -1.29392e+06 1.95512e+06
141 1 Mg -2.68967 30.8252 57.1941 1.2 -7.23536 -1.45346e+06 -2.0131e+06 3.92467e+06 -242372 -2.18779e+06 -563020
142 1 Mg -1.38776 30.6357 49.8391 1.2 -8.31037 611025 1.78839e+06 2.4308e+06 -188189 98272.5 432945
143 2 Si -0.907929 28.1491 47.9262 2.4 -34.3383 8.56326e+06 5.46648e+06 1.12937e+07 488320 2.2824e+06 -932682
144 3 O -0.829229 29.7184 47.99 -1.2 -8.74573 -2.50813e+06 -3.70088e+06 -3.58028e+06 457736 -1.90837e+06 117787
145 3 O -1.45946 27.0152 51.769 -1.2 -8.95074 -2.2185e+06 -1.43478e+06 -4.2836e+06 599348 1.05005e+06 -1.29255e+06
146 3 O -2.07744 27.5697 48.8273 -1.2 -8.79084 -1.06371e+06 -2.74653e+06 -4.42477e+06 20766.5 -350474 -957113
147 1 Mg 0.137907 26.087 46.819 1.2 -6.99257 2.03769e+06 -1.07457e+06 1.75631e+06 1.12479e+06 1.58707e+06 -887634
148 3 O 0.55579 27.5065 48.3893 -1.2 -8.69583 -1.69333e+06 -831187 -3.02932e+06 -298958 -322845 1.05218e+06
149 1 Mg 1.44004 26.0901 54.5513 1.2 -8.43755 750273 -581373 1.9502e+06 761977 -859792 1.18463e+06
150 2 Si 1.82878 28.7408 56.363 2.4 -32.7907 4.68362e+06 3.8124e+06 1.29091e+07 303170 -1.5884e+06 808298
151 3 O 1.7323 27.2345 56.5309 -1.2 -9.28199 -3.50649e+06 -4.18203e+06 -5.56261e+06 1.6749e+06 486483 -879603
152 3 O 1.6432 29.7522 52.7291 -1.2 -9.58669 -2.30807e+06 -2.48341e+06 -6.1069e+06 -137892 -717682 -1.18986e+06
153 3 O 0.552531 29.3497 55.6541 -1.2 -9.61104 -2.8773e+06 -3.68643e+06 -5.52418e+06 -740469 -478381 636642
154 3 O 3.04107 29.4628 55.6169 -1.2 -9.61924 -2.01394e+06 -3.28016e+06 -4.81317e+06 572843 13526 284001
155 1 Mg 0.0647462 28.3794 52.2059 1.2 -7.46572 -430190 -2.12857e+06 4.68394e+06 -284099 2.26671e+06 -294303
156 1 Mg 2.10696 28.1021 49.4531 1.2 -7.83403 2.17697e+06 -155906 1.00208e+06 114531 -71132.6 -174950
157 2 Si 1.57592 30.4257 51.2442 2.4 -32.4717 6.77128e+06 4.42184e+06 1.14192e+07 403553 1.15001e+06 14512.4
158 3 O 1.68288 31.9926 51.3043 -1.2 -10.0701 -2.56665e+06 -1.59072e+06 -4.18017e+06 863321 -854609 443042
159 3 O 1.72498 29.4277 57.8452 -1.2 -9.1844 -1.31691e+06 -4.38692e+06 -4.8753e+06 -479333 -735136 953768
160 3 O 0.258524 29.7935 50.6632 -1.2 -9.15809 -3.16697e+06 -2.10579e+06 -5.11927e+06 958264 -688277 228206
161 1 Mg -2.90462 28.3797 52.308 1.2 -7.68424 -1.1446e+06 -1.74454e+06 4.53787e+06 1.25165e+06 -2.08189e+06 319021
162 3 O 2.81205 29.7787 50.4664 -1.2 -9.49888 -2.53286e+06 -1.99024e+06 -3.02347e+06 -231447 799966 -10726.1
163 1 Mg -1.20859 28.5362 55.1482 1.2 -7.76479 1.45599e+06 1.0839e+06 1.16551e+06 -488080 414679 -998375
164 2 Si -1.49131 26.251 53.2903 2.4 -32.911 9.33682e+06 2.44607e+06 1.47721e+07 -797248 -47831.3 -896396
165 3 O -1.46293 24.7257 53.1765 -1.2 -9.87871 -3.54519e+06 -2.72835e+06 -5.48612e+06 179523 438104 326134
166 3 O -0.943026 27.648 46.4208 -1.2 -7.72204 -2.89382e+06 -1.47394e+06 -3.6328e+06 -604215 -1.50034e+06 1.09218e+06
167 3 O -2.86608 26.9834 53.8262 -1.2 -8.86853 -735830 -1.78105e+06 -6.25682e+06 -1.82141e+06 246355 1.16847e+06
168 3 O -0.210502 26.8599 54.0695 -1.2 -9.21758 -2.60915e+06 -2.17096e+06 -5.00796e+06 1.73058e+06 -578985 1.68283e+06
169 1 Mg -2.76446 35.5326 57.3137 1.2 -8.10502 -177134 -1.23474e+06 5.22047e+06 -237843 -1.73809e+06 -590165
170 1 Mg -1.28421 35.3899 49.8376 1.2 -8.39103 797534 1.37347e+06 2.78385e+06 -157084 238494 566393
171 2 Si -0.807101 32.9036 47.9247 2.4 -34.279 8.49019e+06 5.72435e+06 1.10158e+07 500006 2.3031e+06 -451022
172 3 O -0.727174 34.4729 47.9885 -1.2 -8.72256 -2.54604e+06 -3.63032e+06 -3.66328e+06 454426 -1.92929e+06 -106344
173 3 O -1.35735 31.7701 51.768 -1.2 -9.46975 -1.66022e+06 -1.75337e+06 -5.10559e+06 219336 587919 -1.38095e+06
174 3 O -1.97695 32.3253 48.826 -1.2 -8.86942 -959902 -2.98054e+06 -4.17278e+06 3859.27 -325803 -1.24045e+06
175 1 Mg 0.237665 30.8412 46.8168 1.2 -6.96468 1.99883e+06 -854015 1.53358e+06 1.12446e+06 1.59271e+06 -866553
176 3 O 0.656562 32.2608 48.3877 -1.2 -8.75341 -1.58656e+06 -1.05948e+06 -2.81183e+06 -289013 -341995 810903
177 1 Mg 1.54659 30.7269 54.517 1.2 -7.81574 403338 794304 199862 382237 -734409 1.14261e+06
178 2 Si 1.70207 33.3615 56.341 2.4 -33.4928 9.0604e+06 -42705 1.30912e+07 -103057 -145305 -1.59612e+06
179 3 O 1.69528 31.8947 56.6457 -1.2 -9.75341 -3.10557e+06 -5.53136e+06 -6.06393e+06 292109 833571 593342
180 3 O 1.74574 34.5067 52.7279 -1.2 -9.34259 -2.32589e+06 -1.01412e+06 -5.83606e+06 234725 -204135 -619674
181 3 O 0.464657 33.9502 55.5216 -1.2 -8.72309 -3.61205e+06 -758973 -4.99821e+06 -417297 705326 806395
182 3 O 2.97212 34.081 55.6743 -1.2 -8.75031 -3.73959e+06 -1.28363e+06 -4.72361e+06 1.01801e+06 -700124 989679
183 1 Mg 0.167046 33.1343 52.2045 1.2 -7.41628 -552118 -1.92735e+06 5.28861e+06 -699225 2.08028e+06 785604
184 1 Mg 2.20727 32.8578 49.4516 1.2 -7.76077 2.03331e+06 -12348.1 893839 89123.4 -109710 201722
185 2 Si 1.67943 35.1802 51.2429 2.4 -32.8532 7.13358e+06 3.26766e+06 1.27853e+07 212146 471899 324950
186 3 O 1.78736 36.747 51.303 -1.2 -9.77133 -3.02013e+06 -1.01379e+06 -4.93284e+06 753912 -605563 768928
187 3 O 1.66193 34.1498 57.7875 -1.2 -8.9717 -4.89829e+06 -2.18921e+06 -5.30309e+06 377287 465809 1.57776e+06
188 3 O 0.362533 34.5479 50.661 -1.2 -9.06811 -3.03523e+06 -1.71014e+06 -5.65619e+06 1.02504e+06 -768420 -264912
189 1 Mg -2.80215 33.1347 52.3062 1.2 -7.45884 -1.19269e+06 -1.56403e+06 4.94915e+06 1.12354e+06 -2.07179e+06 443534
190 3 O 2.91593 34.533 50.466 -1.2 -9.46944 -2.74353e+06 -1.57885e+06 -3.30277e+06 -196339 895197 -293589
191 1 Mg -1.24652 33.0229 54.9344 1.2 -8.2312 2.52688e+06 19042.5 1.54524e+06 274596 -132441 -874754
192 2 Si -1.29361 30.9583 53.2001 2.4 -31.8711 7.28841e+06 3.57788e+06 1.27444e+07 -566531 -1.1188e+06 -484306
193 3 O -1.34137 29.4246 53.0761 -1.2 -10.2058 -3.5374e+06 -2.8801e+06 -5.38046e+06 206076 1.06852e+06 -462995
194 3 O -0.842495 32.4028 46.4192 -1.2 -7.73294 -2.87864e+06 -1.62057e+06 -3.48486e+06 -606289 -1.50266e+06 973265
195 3 O -2.66556 31.6523 53.9424 -1.2 -9.16093 693386 -2.70161e+06 -3.99145e+06 -1.75931e+06 -656720 697833
196 3 O -0.0979255 31.6097 53.9679 -1.2 -9.91677 -3.80498e+06 -3.55552e+06 -3.98713e+06 1.20463e+06 -742741 -486275
197 1 Mg -2.61727 40.3127 57.4729 1.2 -8.00786 -823204 -1.25719e+06 5.78292e+06 -1.15507e+06 -1.21112e+06 -1.51091e+06
198 1 Mg -1.17787 40.1435 49.8359 1.2 -8.58506 981514 1.46324e+06 2.81727e+06 -160481 340110 144332
199 2 Si -0.702692 37.6572 47.9231 2.4 -34.4822 8.7921e+06 5.41203e+06 1.13485e+07 491150 2.34777e+06 -638464
200 3 O -0.621782 39.2264 47.9868 -1.2 -8.60496 -2.70894e+06 -3.58265e+06 -3.74513e+06 461582 -1.94134e+06 83698.8
201 3 O -1.25221 36.5242 51.7666 -1.2 -9.15903 -2.64485e+06 -570288 -7.47201e+06 474878 -145557 -761520
202 3 O -1.87295 37.0796 48.8243 -1.2 -8.76026 -1.1851e+06 -2.73624e+06 -4.36787e+06 2097.04 -358420 -1.14786e+06
203 1 Mg 0.341084 35.5943 46.8152 1.2 -7.01151 2.0662e+06 -944373 1.63346e+06 1.12273e+06 1.595e+06 -759723
204 3 O 0.760681 37.0138 48.3864 -1.2 -8.6461 -1.71368e+06 -847734 -3.06632e+06 -283521 -328894 879381
205 1 Mg 1.74004 35.5465 54.6546 1.2 -8.45927 3.72752e+06 820459 866800 107317 197094 -267387
206 2 Si 1.96 38.1589 56.3397 2.4 -33.9456 9.14554e+06 423631 1.30937e+07 -321554 945622 661183
207 3 O 1.84289 36.6592 56.3453 -1.2 -9.63954 -5.66526e+06 -3.67628e+06 -5.73657e+06 808692 -564562 1.43049e+06
208 3 O 1.85132 39.2606 52.7264 -1.2 -9.19551 -3.44616e+06 -1.32979e+06 -5.8712e+06 559060 85280.1 203975
209 3 O 0.724849 38.7827 55.6044 -1.2 -8.75166 -3.91966e+06 -2.13095e+06 -4.41183e+06 -143221 -1.28029e+06 642544
210 3 O 3.23233 38.8569 55.7708 -1.2 -8.43064 -4.67423e+06 -3.399e+06 -5.88962e+06 1.23744e+06 986884 959093
211 1 Mg 0.272384 37.8883 52.2029 1.2 -7.9265 -284899 -1.68372e+06 5.74299e+06 -1.00376e+06 1.73494e+06 -91294.5
212 1 Mg 2.31122 37.6122 49.4501 1.2 -7.9035 2.30781e+06 -280650 1.12517e+06 106962 -190660 -49825.5
213 2 Si 1.78573 39.934 51.2414 2.4 -33.1783 8.38844e+06 3.50056e+06 1.18213e+07 130215 -93514.8 -1.3741e+06
214 3 O 1.89428 41.5006 51.3014 -1.2 -9.72194 -3.46855e+06 -1.69334e+06 -3.81781e+06 752342 52925.5 1.31292e+06
215 3 O 1.96647 38.967 57.8519 -1.2 -8.72299 -3.82721e+06 9378.87 -6.1037e+06 -89938.6 1.18929e+06 2.811e+06
216 3 O 0.469216 39.3015 50.6588 -1.2 -8.81893 -3.17599e+06 -1.75451e+06 -5.86426e+06 1.21224e+06 -623363 258709
217 1 Mg -2.69668 37.8889 52.3043 1.2 -7.7104 250415 -2.32661e+06 5.0573e+06 1.8576e+06 -1.61384e+06 131439
218 3 O 3.0225 39.2866 50.4651 -1.2 -9.314 -3.18524e+06 -1.49358e+06 -3.01825e+06 -349021 922655 218260
219 1 Mg -1.1065 37.9268 54.9947 1.2 -8.86284 2.92268e+06 362412 1.43834e+06 382161 -418988 -1.74893e+06
220 2 Si -1.26701 35.76 53.1825 2.4 -33.0908 8.19234e+06 3.36193e+06 1.41987e+07 -774484 -532284 -468388
221 3 O -1.2953 34.2095 53.1021 -1.2 -10.0373 -3.39176e+06 -682921 -6.28845e+06 -448062 43796.7 -209194
222 3 O -0.738054 37.1566 46.4176 -1.2 -7.66626 -2.98279e+06 -1.51981e+06 -3.59243e+06 -606393 -1.50811e+06 966818
223 3 O -2.56221 36.6033 53.8936 -1.2 -8.64845 -2.63821e+06 17826.7 -5.20315e+06 -1.35528e+06 -397943 1.18823e+06
224 3 O -0.0596504 36.4847 53.9183 -1.2 -8.8241 -3.79454e+06 -1.66361e+06 -5.04832e+06 1.07595e+06 -562349 638763
225 1 Mg -2.72642 45.0141 57.6295 1.2 -7.04002 -2.13276e+06 -1.07616e+06 3.89048e+06 -519514 -1.91066e+06 -1.56608e+06
226 1 Mg -1.06993 44.8968 49.8343 1.2 -8.6907 1.04896e+06 1.83818e+06 2.55632e+06 -214190 399071 4965.4
227 2 Si -0.596166 42.4103 47.9215 2.4 -34.6832 9.04196e+06 5.7676e+06 1.10726e+07 484939 2.34655e+06 -931705
228 3 O -0.51472 43.9796 47.9853 -1.2 -8.53237 -2.79774e+06 -3.79751e+06 -3.54992e+06 463084 -1.93699e+06 183471
229 3 O -1.14475 41.2777 51.7649 -1.2 -8.87205 -2.36121e+06 -2.47625e+06 -6.26565e+06 346508 -832350 686322
230 3 O -1.76671 41.8331 48.8226 -1.2 -8.63239 -1.365e+06 -2.98823e+06 -4.13683e+06 1816.61 -424394 -935943
231 1 Mg 0.447076 40.3473 46.8135 1.2 -7.10043 2.20091e+06 -939593 1.63625e+06 1.12126e+06 1.58694e+06 -902553
232 3 O 0.866985 41.7666 48.385 -1.2 -8.53203 -1.88975e+06 -1.03614e+06 -2.87753e+06 -281127 -281836 1.08147e+06
233 1 Mg 1.94179 40.2601 54.528 1.2 -8.30847 3.23384e+06 220381 1.16406e+06 -63403.1 1.20118e+06 -387096
234 2 Si 1.84386 42.903 56.1883 2.4 -32.3748 7.54135e+06 4.51021e+06 1.24821e+07 1.51159e+06 174232 -1.73873e+06
235 3 O 1.92078 41.3513 56.4338 -1.2 -9.85177 -3.3773e+06 -1.87223e+06 -4.48254e+06 -23775.5 328298 163078
236 3 O 1.95891 44.014 52.7248 -1.2 -9.05728 -3.52918e+06 -2.12154e+06 -4.7482e+06 -1.16324e+06 -749945 -366590
237 3 O 0.665437 43.5855 55.5157 -1.2 -9.9016 -3.9655e+06 -1.99986e+06 -5.63482e+06 -998842 -1.38705e+06 1.36933e+06
238 3 O 3.21552 43.6982 55.7072 -1.2 -9.12074 -57880.8 -1.66134e+06 -4.2981e+06 2.00541e+06 -226561 1.31849e+06
239 1 Mg 0.379928 42.6418 52.2013 1.2 -8.06784 -743829 -589095 4.31591e+06 -1.06375e+06 2.05769e+06 -304740
240 1 Mg 2.41752 42.366 49.4484 1.2 -8.01922 2.63858e+06 67820.2 638911 118983 -198633 -208263
241 2 Si 1.89374 44.6874 51.2398 2.4 -33.3968 9.05125e+06 4.3793e+06 1.06952e+07 633173 206518 -742496
242 3 O 2.00266 46.254 51.2996 -1.2 -9.66765 -3.21239e+06 -2.29789e+06 -4.25161e+06 529406 -1.2319e+06 921763
243 3 O 1.8314 43.5889 57.7823 -1.2 -9.41967 -2.25505e+06 -1.6612e+06 -3.39301e+06 -202221 1.87409e+06 2.54727e+06
244 3 O 0.577464 44.0549 50.6567 -1.2 -8.58448 -3.7096e+06 -2.14302e+06 -5.72217e+06 1.12419e+06 -84965 216482
245 1 Mg -2.58906 42.6425 52.3022 1.2 -7.531 355321 -1.14544e+06 4.03162e+06 1.48173e+06 -1.91131e+06 -385837
246 3 O 3.13067 44.0398 50.464 -1.2 -9.1714 -3.72146e+06 -1.86686e+06 -2.67614e+06 -234089 662622 138544
247 1 Mg -1.05486 42.8248 54.9996 1.2 -7.95407 414526 1.2476e+06 2.49919e+06 -380507 -1.56349e+06 -2.03378e+06
248 2 Si -1.12453 40.5842 53.2375 2.4 -33.7416 6.07224e+06 524567 1.30119e+07 639842 -209422 -3.12352e+06
249 3 O -1.08189 39.1025 53.2009 -1.2 -9.27784 -3.87654e+06 -5.27987e+06 -6.13166e+06 187117 647099 1.09375e+06
250 3 O -0.631421 41.9099 46.4159 -1.2 -7.59313 -3.09205e+06 -1.58811e+06 -3.53016e+06 -604941 -1.50886e+06 1.09077e+06
251 3 O -2.29976 41.2073 54.0089 -1.2 -9.19907 -4.11639e+06 -1.97051e+06 -5.33852e+06 454766 1.36898e+06 999131
252 3 O 0.183144 41.2709 53.8413 -1.2 -8.8386 -2.95699e+06 -2.9924e+06 -4.84577e+06 -87598.2 -210278 1.07488e+06
253 1 Mg -2.49603 50.0387 57.3435 1.2 -7.15518 -1.51808e+06 -422895 3.89801e+06 -315528 -1.75862e+06 186089
254 1 Mg -0.961069 49.6502 49.8327 1.2 -8.5658 956748 2.0299e+06 2.2393e+06 -186962 50685.5 780394
255 2 Si -0.488083 47.1636 47.9198 2.4 -34.6235 9.01486e+06 6.44171e+06 1.03272e+07 466053 2.30936e+06 -741474
256 3 O -0.40607 48.7329 47.9837 -1.2 -8.58526 -2.76298e+06 -4.0722e+06 -3.23103e+06 471751 -1.90523e+06 -124136
257 3 O -1.0361 46.031 51.7632 -1.2 -9.05394 -2.15492e+06 -4.48553e+06 -4.55603e+06 1.01476e+06 -302912 322904
258 3 O -1.65866 46.5866 48.821 -1.2 -8.65708 -1.31554e+06 -3.40211e+06 -3.73049e+06 52552.1 -377521 -1.02402e+06
259 1 Mg 0.554124 45.1001 46.8117 1.2 -7.13032 2.25223e+06 -739743 1.43386e+06 1.12548e+06 1.58311e+06 -959981
260 3 O 0.974961 46.5195 48.3832 -1.2 -8.54821 -1.88613e+06 -1.38695e+06 -2.50367e+06 -309033 -306662 1.03828e+06
261 1 Mg 1.84835 45.2238 54.5964 1.2 -7.83432 692821 1.03496e+06 1.32231e+06 -675000 1.58577e+06 368991
262 2 Si 1.78642 47.6552 56.6319 2.4 -31.0793 6.52821e+06 6.13531e+06 1.11709e+07 -600448 -401.016 148570
263 3 O 1.91701 46.1063 56.607 -1.2 -10.7567 -2.4415e+06 -2.51711e+06 -3.47936e+06 -481774 374932 1.94371e+06
264 3 O 2.0677 48.7672 52.7232 -1.2 -9.3662 -2.76508e+06 -2.59751e+06 -4.10713e+06 79138.2 -582428 -807655
265 3 O 0.589092 48.4522 55.8177 -1.2 -9.69132 -3.01544e+06 -567343 -3.14058e+06 -1.51994e+06 242487 -1.5985e+06
266 3 O 3.06889 48.3435 55.9029 -1.2 -9.37472 -2.18043e+06 -2.21196e+06 -4.03784e+06 1.6687e+06 -647801 -745743
267 1 Mg 0.488584 47.395 52.1996 1.2 -7.55255 60287.2 -323656 4.46224e+06 -1.05635e+06 1.50137e+06 559019
268 1 Mg 2.52544 47.1195 49.4466 1.2 -7.96962 2.41302e+06 544854 313363 160972 -139242 24263.7
269 2 Si 2.00256 49.4407 51.2382 2.4 -33.0699 8.10235e+06 5.03e+06 1.0383e+07 401477 1.22793e+06 674775
270 3 O 2.11156 51.0073 51.2982 -1.2 -9.71732 -3.32452e+06 -2.0212e+06 -3.86171e+06 937636 -791762 249066
271 3 O 1.80937 48.5762 57.9959 -1.2 -10.1235 -4.15512e+06 -608680 -6.33108e+06 2.11686e+06 408530 1.88175e+06
272 3 O 0.686344 48.8082 50.655 -1.2 -8.97209 -3.42896e+06 -2.5499e+06 -4.25992e+06 1.16277e+06 -897954 -337697
273 1 Mg -2.48039 47.3957 52.3005 1.2 -7.5507 -890401 -1.38362e+06 3.14777e+06 2.08334e+06 -2.14285e+06 1.42848e+06