ITEM: TIMESTEP
72900
ITEM: NUMBER OF ATOMS
10500
ITEM: BOX BOUNDS xy xz yz pp pp pp
0.0000000000000000e+00 8.9687999999999999e+00 2.9895999999999998e+00
0.0000000000000000e+00 1.1872499999999999e+02 0.0000000000000000e+00
0.0000000000000000e+00 2.5297749999999999e+02 0.0000000000000000e+00
ITEM: ATOMS id type element xu yu zu q c_pe c_s[1] c_s[2] c_s[3] c_s[4] c_s[5] c_s[6]
1 1 Mg -3.57741 6.97444 57.1945 1.2 -7.52878 -2.27755e+06 -3.41922e+06 5.31771e+06 -201295 -1.97869e+06 -1.25091e+06
2 1 Mg -1.82655 6.90154 50.0912 1.2 -7.40455 -1.21717e+06 -329390 2.62345e+06 -92624.1 -189422 1.73428e+06
3 2 Si -0.257935 3.96038 48.0876 2.4 -34.385 7.34146e+06 7.0409e+06 1.2563e+07 807149 1.98068e+06 2.40018e+06
4 3 O -0.335812 5.46814 47.6264 -1.2 -8.59539 -1.78626e+06 -1.4573e+06 -3.53887e+06 143899 -972356 -925288
5 3 O -2.03793 3.43377 51.8941 -1.2 -10.1507 -1.28845e+06 -1.35567e+06 -8.06086e+06 -790627 22689.5 -1.97659e+06
6 3 O -1.54015 3.53929 48.9521 -1.2 -9.18377 110295 -815054 -5.13149e+06 31673.8 -745047 -593412
7 1 Mg 1.82954 2.54582 47.1376 1.2 -7.1833 1.31364e+06 -1.26241e+06 1.50862e+06 1.14759e+06 831088 748805
8 3 O 1.22989 3.66364 48.7877 -1.2 -8.88831 -252164 -1.53434e+06 -4.52931e+06 -483619 -715110 -1.33784e+06
9 1 Mg 0.766113 2.11029 54.5101 1.2 -6.80289 1.4545e+06 37985.9 1.37034e+06 352460 91911.9 -134097
10 2 Si 1.0063 4.77292 56.4008 2.4 -30.6794 4.80458e+06 2.71795e+06 1.56054e+07 322408 -2.51442e+06 639139
11 3 O 1.09369 3.25687 56.6315 -1.2 -11.27 -3.40671e+06 72035.9 -5.95973e+06 832643 1.31713e+06 507978
12 3 O 1.10813 6.07342 52.8172 -1.2 -9.78959 -2.28253e+06 -2.21981e+06 -7.12286e+06 522058 -696303 -2.14603e+06
13 3 O -0.085056 5.58767 55.6864 -1.2 -10.1079 -5.83235e+06 -801363 -7.89257e+06 -1.61131e+06 -1.03497e+06 -341763
14 3 O 2.30795 5.60116 55.6404 -1.2 -9.48937 -973062 -339640 -5.00952e+06 1.60911e+06 -1.36779e+06 -1.22414e+06
15 1 Mg -0.459401 4.67631 52.2426 1.2 -6.97441 -1.80634e+06 -2.41021e+06 6.25567e+06 -1.28475e+06 1.26958e+06 1.44231e+06
16 1 Mg 2.79456 3.9971 49.9987 1.2 -7.43756 2.10553e+06 -1.00992e+06 2.57878e+06 -509838 783088 -357755
17 2 Si 1.16169 6.59457 51.2556 2.4 -31.9913 4.65076e+06 3.16099e+06 1.48548e+07 -13789.2 592198 3.68583e+06
18 3 O 1.28989 8.18905 51.2909 -1.2 -10.2875 -1.55499e+06 -73931.3 -5.40723e+06 211189 -878830 665003
19 3 O 0.890913 5.66459 57.9031 -1.2 -9.50695 -2.94896e+06 145321 -6.12738e+06 594966 -1.00652e+06 2.40358e+06
20 3 O -0.184847 6.06029 50.6845 -1.2 -9.56607 -1.63834e+06 -1.74431e+06 -6.49232e+06 1.49101e+06 -342041 -2.00902e+06
21 1 Mg -3.49704 4.67769 52.6661 1.2 -6.69978 -2.24479e+06 -3.11098e+06 4.9958e+06 2.37868e+06 -1.42894e+06 1.07212e+06
22 3 O 2.48581 5.93312 50.6539 -1.2 -10.1201 -1.75196e+06 -87687.2 -4.68299e+06 -1.58971e+06 -629517 -1.35715e+06
23 1 Mg -1.75054 4.74042 55.1317 1.2 -7.2892 -222523 -141433 1.33532e+06 -81681.9 -1.1346e+06 -1.28838e+06
24 2 Si -2.02224 2.66044 53.2658 2.4 -30.7519 2.29606e+06 2.54914e+06 1.64552e+07 462549 -2.6148e+06 773062
25 3 O -1.93176 0.99976 53.0805 -1.2 -10.6596 -1.75285e+06 1.62985e+06 -7.16978e+06 1.07584e+06 98153.5 421210
26 3 O -0.0467762 2.97103 46.8385 -1.2 -7.8083 -1.6857e+06 -1.36912e+06 -3.65734e+06 -991063 -2.00461e+06 -862069
27 3 O -3.38787 3.16413 54.1024 -1.2 -9.76993 1.4906e+06 -363426 -5.64236e+06 -935181 -2.27121e+06 -19513.8
28 3 O -0.862612 3.34358 54.0062 -1.2 -10.4961 -2.63837e+06 -925555 -7.79676e+06 11205 178208 -154266
29 1 Mg -3.23429 11.8411 57.4016 1.2 -6.92225 -2.58886e+06 -2.75385e+06 4.49e+06 -462640 -2.29452e+06 387082
30 1 Mg -1.75014 11.5838 49.8362 1.2 -7.66431 -367482 772250 3.57232e+06 -339253 110072 1.04484e+06
31 2 Si -1.18003 9.02138 47.9309 2.4 -32.9118 6.03495e+06 4.82692e+06 1.20758e+07 222835 2.61352e+06 813646
32 3 O -1.23224 10.5991 47.9811 -1.2 -9.4541 -1.33988e+06 -2.38931e+06 -3.96314e+06 661813 -1.90875e+06 -176173
33 3 O -1.79016 8.01447 51.8693 -1.2 -9.85855 -1.8721e+06 -1.68581e+06 -6.76576e+06 338522 10230 -1.33985e+06
34 3 O -2.30986 8.37215 48.8528 -1.2 -9.74028 195272 -1.32091e+06 -4.55884e+06 -318032 -601831 -1.09823e+06
35 1 Mg 0.154883 7.08234 46.8007 1.2 -6.76836 681139 -1.20953e+06 1.85535e+06 944245 1.72641e+06 -684473
36 3 O 0.325447 8.50934 48.3809 -1.2 -9.37907 -203150 -776054 -3.93031e+06 -43049.7 -837580 113822
37 1 Mg 0.982569 6.9504 54.6219 1.2 -7.81359 281594 -1.19583e+06 1.70142e+06 457732 -240691 1.13004e+06
38 2 Si 0.922236 9.69655 56.5353 2.4 -31.5433 5.37976e+06 2.45027e+06 1.26465e+07 627236 -1.10142e+06 1.25677e+06
39 3 O 1.03572 8.15366 56.6931 -1.2 -10.0708 -4.91976e+06 -2.49679e+06 -7.01667e+06 -207063 -804767 1.32623e+06
40 3 O 1.28624 10.7248 52.7351 -1.2 -10.0194 -1.7017e+06 -1.15844e+06 -5.47379e+06 438149 -70164.8 -1.10236e+06
41 3 O -0.1453 10.3654 55.7043 -1.2 -10.162 -3.40057e+06 -3.15703e+06 -6.94317e+06 -209052 -2.26741e+06 -335070
42 3 O 2.41126 10.2738 55.9081 -1.2 -9.43366 625626 -2.47169e+06 -4.57789e+06 1.81131e+06 -797442 -327717
43 1 Mg -0.262694 9.34741 52.2523 1.2 -7.02008 -1.25799e+06 -2.10084e+06 6.27033e+06 -1.40701e+06 1.50837e+06 958592
44 1 Mg 1.87648 9.01537 49.4629 1.2 -7.11259 730166 -744911 1.62695e+06 264066 -273380 510475
45 2 Si 1.21415 11.3799 51.2378 2.4 -31.4657 5.11643e+06 2.47138e+06 1.37191e+07 491324 991375 1.0312e+06
46 3 O 1.31634 12.9512 51.3023 -1.2 -10.5589 -1.88153e+06 -371716 -5.00243e+06 781154 -568554 635050
47 3 O 0.851126 10.3981 57.9888 -1.2 -9.86589 -1.44824e+06 -3.10223e+06 -6.71067e+06 849223 797579 771362
48 3 O -0.115718 10.7564 50.681 -1.2 -9.79251 -1.82859e+06 -1.14873e+06 -5.68267e+06 1.1525e+06 -813983 -629514
49 1 Mg -3.26386 9.35564 52.3622 1.2 -6.91034 -1.63435e+06 -2.39488e+06 5.2263e+06 2.08999e+06 -1.79903e+06 1.26563e+06
50 3 O 2.45216 10.7265 50.4558 -1.2 -10.1714 -1.3331e+06 -705663 -3.70362e+06 -834529 583188 -329070
51 1 Mg -1.82327 9.50412 55.1444 1.2 -7.72618 717501 32637.8 1.60685e+06 -373623 -1.60389e+06 -1.62262e+06
52 2 Si -1.89504 7.37437 53.3726 2.4 -31.9613 7.13433e+06 -490566 1.41568e+07 938994 -845183 1.03176e+06
53 3 O -1.94178 5.86422 53.2921 -1.2 -10.2785 -2.86712e+06 -2.67657e+06 -6.86862e+06 483839 521323 -217699
54 3 O -1.19417 8.46968 46.4488 -1.2 -8.36404 -1.56646e+06 -918468 -4.06873e+06 -540754 -1.74295e+06 565546
55 3 O -3.1683 8.03172 53.9844 -1.2 -9.55737 -1.08841e+06 -2.28774e+06 -6.24424e+06 -42226.8 526450 -828965
56 3 O -0.528878 7.9892 54.053 -1.2 -9.57862 -1.64087e+06 -2.4757e+06 -4.95964e+06 1.43714e+06 -409746 -256139
57 1 Mg -3.57557 16.7145 57.4651 1.2 -6.89167 -1.87322e+06 -2.61444e+06 5.91223e+06 524017 -824411 331116
58 1 Mg -1.6714 16.3544 49.8412 1.2 -7.85785 -355009 460757 4.06259e+06 -231667 217690 795697
59 2 Si -1.18567 13.8526 47.9314 2.4 -32.9327 6.31442e+06 3.58158e+06 1.31015e+07 502753 2.22385e+06 119860
60 3 O -1.09664 15.4205 47.9915 -1.2 -9.41793 -1.32084e+06 -2.44403e+06 -4.67002e+06 425097 -1.91286e+06 -313557
61 3 O -1.73493 12.7491 51.7772 -1.2 -9.90713 -722196 -163405 -7.61185e+06 -41048.8 973556 -802975
62 3 O -2.36115 13.2717 48.8238 -1.2 -9.50556 22857.6 -1.80638e+06 -5.18021e+06 -137788 -346589 -1.49357e+06
63 1 Mg -0.159928 11.7639 46.8533 1.2 -6.2793 932077 -1.77457e+06 2.41429e+06 1.12513e+06 1.57452e+06 -658090
64 3 O 0.2623 13.1866 48.413 -1.2 -9.42215 -537479 148257 -3.89775e+06 -178821 -295024 551516
65 1 Mg 1.28026 11.653 54.6837 1.2 -7.53571 2.2375e+06 339488 2.11728e+06 11609.9 -323794 1.56208e+06
66 2 Si 0.908682 14.3761 56.5006 2.4 -31.5582 5.2614e+06 3.37196e+06 1.44177e+07 988840 1.69335e+06 2.04975e+06
67 3 O 1.03543 12.8363 56.5642 -1.2 -10.311 -1.16509e+06 -260236 -6.08908e+06 -1.45073e+06 -1.1177e+06 -544426
68 3 O 1.36565 15.4813 52.729 -1.2 -10.2741 -2.00838e+06 -35043.5 -5.88442e+06 -643126 -746450 -682913
69 3 O -0.277762 15.1882 55.6984 -1.2 -10.3112 -2.86248e+06 -316386 -5.31385e+06 -2.26588e+06 12663.8 -2.06262e+06
70 3 O 2.18841 15.1026 55.7609 -1.2 -9.5477 -1.89984e+06 -1.64496e+06 -7.35342e+06 2.22131e+06 1.42829e+06 -1.13452e+06
71 1 Mg -0.206989 14.1049 52.2121 1.2 -7.02583 -1.56988e+06 -2.69527e+06 5.85537e+06 -1.42363e+06 1.81323e+06 463746
72 1 Mg 1.82591 13.8102 49.4556 1.2 -7.15576 1.15389e+06 -886650 1.74449e+06 120601 -68794.7 480713
73 2 Si 1.29285 16.1518 51.2434 2.4 -31.5809 6.73805e+06 1.81294e+06 1.26123e+07 598481 627327 817900
74 3 O 1.39496 17.7199 51.3047 -1.2 -10.5349 -2.08255e+06 -429177 -4.87187e+06 817062 -666840 -68698.9
75 3 O 1.1178 15.1953 57.8561 -1.2 -9.6996 -2.75846e+06 -159954 -9.07268e+06 1.26411e+06 2.81798e+06 -241264
76 3 O -0.0269106 15.5178 50.6688 -1.2 -9.49517 -2.48847e+06 -730496 -6.86914e+06 1.15904e+06 -47919.4 -454735
77 1 Mg -3.18391 14.1057 52.3125 1.2 -6.86611 -1.08651e+06 -1.37939e+06 5.42844e+06 1.79836e+06 -1.39425e+06 318029
78 3 O 2.52432 15.503 50.4579 -1.2 -10.0136 -2.00602e+06 -661751 -3.7547e+06 -420775 598100 -593395
79 1 Mg -2.05817 14.3344 55.1947 1.2 -7.4546 -212314 -346159 665691 73458.1 -766247 1.08283e+06
80 2 Si -1.53568 12.0466 53.2193 2.4 -32.1938 3.15234e+06 2.64837e+06 1.41494e+07 -1.29253e+06 -172022 301271
81 3 O -1.74008 10.4577 53.2763 -1.2 -10.1646 -2.29869e+06 -902370 -5.42506e+06 698807 -472957 -753900
82 3 O -1.21337 13.3381 46.4311 -1.2 -8.4187 -1.8402e+06 -545885 -4.49744e+06 -631435 -1.44867e+06 768625
83 3 O -2.77993 12.7729 54.0001 -1.2 -9.31605 -2.05112e+06 302252 -5.96468e+06 -247694 -196509 -560006
84 3 O -0.349469 12.5919 53.9101 -1.2 -9.46213 -6.23255e+06 -2.47963e+06 -5.21184e+06 354877 -556733 -591400
85 1 Mg -3.1798 21.3561 57.2664 1.2 -7.04075 -1.57388e+06 -3.28311e+06 7.01151e+06 -860145 -892601 -349331
86 1 Mg -1.5831 21.1217 49.8405 1.2 -7.61697 -485508 251829 3.97308e+06 -173702 314653 438455
87 2 Si -1.09384 18.6291 47.9287 2.4 -32.8997 6.2322e+06 3.33238e+06 1.34417e+07 510525 2.31471e+06 -382751
88 3 O -1.02071 20.1985 47.9911 -1.2 -9.50171 -1.26413e+06 -2.45878e+06 -4.75165e+06 448243 -1.94057e+06 9258.04
89 3 O -1.65002 17.5002 51.771 -1.2 -9.55467 -739861 -2.42049e+06 -6.64441e+06 352733 798601 -1.03328e+06
90 3 O -2.26174 18.0434 48.8281 -1.2 -9.49283 31579.8 -1.67519e+06 -5.41469e+06 -9463.14 -380638 -1.2745e+06
91 1 Mg -0.0440435 16.5651 46.8269 1.2 -6.28981 880130 -1.9632e+06 2.65593e+06 1.13498e+06 1.56975e+06 -664567
92 3 O 0.37001 17.9877 48.3925 -1.2 -9.40013 -550233 199467 -4.06641e+06 -297665 -312769 695146
93 1 Mg 1.10483 16.3863 54.5629 1.2 -7.16657 196753 893309 1.56591e+06 732973 290701 1.02758e+06
94 2 Si 1.34728 19.2385 56.2718 2.4 -31.2385 7.68584e+06 707472 1.60881e+07 -1.09633e+06 -526440 1.68157e+06
95 3 O 1.25684 17.7035 56.2782 -1.2 -10.8498 -3.40918e+06 -1.17299e+06 -6.75649e+06 2.33782e+06 -223065 841049
96 3 O 1.45147 20.239 52.7294 -1.2 -9.72117 -1.96131e+06 195391 -7.28951e+06 104522 -925591 -1.08758e+06
97 3 O -0.000716057 19.9485 55.7714 -1.2 -9.13178 -2.30892e+06 -733533 -7.45248e+06 -1.91585e+06 137728 -1.58759e+06
98 3 O 2.46864 20.1382 55.4687 -1.2 -9.59077 -3.15836e+06 -1.55286e+06 -5.97054e+06 2.07795e+06 -902344 -185239
99 1 Mg -0.126194 18.8651 52.2079 1.2 -7.11502 -1.47326e+06 -3.07375e+06 6.19827e+06 -1.05392e+06 2.11875e+06 1.77517e+06
100 1 Mg 1.92402 18.5815 49.4545 1.2 -7.14988 1.1106e+06 -1.21251e+06 2.01207e+06 71937.5 -117507 337260
101 2 Si 1.38106 20.9117 51.2443 2.4 -31.509 5.2872e+06 931329 1.4912e+07 66196.4 207325 403065
102 3 O 1.48527 22.4795 51.3054 -1.2 -10.7526 -1.51451e+06 -245858 -5.7304e+06 634026 -71355.9 790353
103 3 O 1.29093 20.0551 57.8206 -1.2 -9.96252 -4.69628e+06 603559 -5.85752e+06 369594 -2.76645e+06 2.69884e+06
104 3 O 0.0615419 20.2804 50.6669 -1.2 -9.66987 -1.92175e+06 -538111 -6.91925e+06 1.0817e+06 -649941 -473130
105 1 Mg -3.09665 18.8643 52.3122 1.2 -6.94553 -1.53909e+06 -2.67094e+06 5.54713e+06 1.37413e+06 -2.19375e+06 1.47805e+06
106 3 O 2.61548 20.2646 50.4626 -1.2 -10.1472 -1.78476e+06 -270512 -4.31259e+06 -269696 852011 -341795
107 1 Mg -1.74861 19.0715 54.9594 1.2 -7.74069 1.68482e+06 -2.37692e+06 1.32235e+06 489694 274301 932037
108 2 Si -1.58765 16.9289 53.31 2.4 -31.4768 1.51426e+06 3.5667e+06 1.39907e+07 950462 234983 2.20138e+06
109 3 O -1.48064 15.3408 53.1186 -1.2 -10.1067 -975164 288347 -6.65722e+06 1.29777e+06 182000 1.66408e+06
110 3 O -1.12868 18.1227 46.4249 -1.2 -8.44765 -1.74286e+06 -465560 -4.62129e+06 -605905 -1.49427e+06 940157
111 3 O -2.79529 17.5437 53.937 -1.2 -9.79491 -4.28557e+06 -969764 -7.68089e+06 -435275 1.95907e+06 -1.3147e+06
112 3 O -0.377216 17.7392 53.9796 -1.2 -9.94303 -3.41861e+06 -1.45033e+06 -5.49684e+06 611396 -1.36422e+06 -652891
113 1 Mg -3.22663 26.014 57.4858 1.2 -6.02558 -2.57265e+06 -2.45519e+06 5.5461e+06 -496601 -1.75792e+06 281987
114 1 Mg -1.48778 25.88 49.8402 1.2 -7.21248 -1.15656e+06 878109 3.33606e+06 -188728 191383 643635
115 2 Si -1.00491 23.3922 47.9274 2.4 -32.4201 5.50214e+06 3.9648e+06 1.27762e+07 483220 2.35307e+06 -965380
116 3 O -0.927602 24.9615 47.9909 -1.2 -9.76233 -869769 -2.96121e+06 -4.31449e+06 464170 -1.93246e+06 60132
117 3 O -1.55795 22.2588 51.7696 -1.2 -10.0467 -1.53634e+06 -26855.7 -8.32195e+06 397459 -827741 -448529
118 3 O -2.17411 22.8111 48.8277 -1.2 -9.76366 396236 -1.93287e+06 -5.13435e+06 15525.9 -365658 -933304
119 1 Mg 0.0423997 21.3296 46.8225 1.2 -6.15523 681618 -1.89808e+06 2.58686e+06 1.12829e+06 1.5908e+06 -963260
120 3 O 0.458537 22.7495 48.3911 -1.2 -9.63172 -135669 -34295 -3.89396e+06 -298516 -334398 1.0786e+06
121 1 Mg 1.36635 21.4565 54.6007 1.2 -7.72786 728750 -1.99141e+06 2.21567e+06 751602 -871384 1.88407e+06
122 2 Si 1.32767 24.0022 56.3139 2.4 -31.0425 2.75044e+06 400973 1.40984e+07 -1.82307e+06 775554 1.70738e+06
123 3 O 1.38812 22.4747 56.4639 -1.2 -10.5439 -3.63769e+06 -3.56201e+06 -5.9681e+06 580600 -308685 -650850
124 3 O 1.54441 24.9963 52.7297 -1.2 -10.7563 -339082 -756393 -6.89098e+06 326813 -247126 -473467
125 3 O 0.0600347 24.6539 55.7152 -1.2 -9.83532 -2.32159e+06 -1.76336e+06 -6.84359e+06 -779361 -674025 -300916
126 3 O 2.49863 24.6596 55.6276 -1.2 -10.5679 -4.81565e+06 -1.40492e+06 -5.27435e+06 302777 1.0394e+06 225243
127 1 Mg -0.0335968 23.6229 52.2067 1.2 -6.58721 -2.26518e+06 -2.37847e+06 6.38828e+06 -1.21166e+06 1.55923e+06 770004
128 1 Mg 2.01073 23.3445 49.4541 1.2 -6.8239 531288 -927765 1.7903e+06 137058 -204747 -142644
129 2 Si 1.47594 25.6699 51.2449 2.4 -30.16 3.19793e+06 2.82082e+06 1.28109e+07 301773 501828 -82993
130 3 O 1.58172 27.2371 51.3054 -1.2 -11.2503 -858857 -906364 -4.92032e+06 750645 -616906 41429.2
131 3 O 1.26915 24.6794 57.9223 -1.2 -10.2244 -846293 -358032 -5.14533e+06 -349253 -1.42402e+06 179790
132 3 O 0.157925 25.0378 50.6651 -1.2 -10.3005 -893557 -1.35011e+06 -5.59014e+06 1.26526e+06 -1.06758e+06 -129366
133 1 Mg -3.00341 23.6231 52.3098 1.2 -6.33262 -2.19304e+06 -2.64431e+06 5.66159e+06 1.64821e+06 -1.77689e+06 621655
134 3 O 2.71149 25.0232 50.4656 -1.2 -10.6338 -815164 -1.06079e+06 -3.66741e+06 -429695 935507 -200734
135 1 Mg -1.71255 23.8093 55.0142 1.2 -7.28587 644997 -915374 642090 310664 296306 756135
136 2 Si -1.60161 21.5829 53.2229 2.4 -31.578 5.34475e+06 978252 1.48144e+07 1.5778e+06 -358063 632679
137 3 O -1.58448 19.9961 53.1386 -1.2 -10.2319 -3.37944e+06 -613465 -7.47829e+06 623221 143662 430379
138 3 O -1.03938 22.8897 46.4223 -1.2 -8.61538 -1.46642e+06 -721048 -4.37469e+06 -605696 -1.50586e+06 1.16426e+06
139 3 O -2.79642 22.2238 53.9325 -1.2 -9.97084 -2.67767e+06 -2.7461e+06 -7.01641e+06 -1.36714e+06 1.56355e+06 563844
140 3 O -0.233692 22.3367 53.8031 -1.2 -9.7648 -336124 -816054 -6.59615e+06 1.76565e+06 -577430 -19825.2
141 1 Mg -2.92255 30.918 57.4936 1.2 -6.27177 -2.41485e+06 -4.15042e+06 5.39517e+06 -1.74874e+06 -1.77757e+06 -901769
142 1 Mg -1.38776 30.6357 49.8391 1.2 -7.18073 -1.24879e+06 450457 3.80369e+06 -148465 425342 911301
143 2 Si -0.907929 28.1491 47.9262 2.4 -32.0749 4.9284e+06 4.3127e+06 1.24525e+07 506111 2.34056e+06 -184196
144 3 O -0.829229 29.7184 47.99 -1.2 -9.86525 -684975 -2.89246e+06 -4.43161e+06 452380 -1.94796e+06 -300344
145 3 O -1.45946 27.0152 51.769 -1.2 -10.7108 70701.7 39066.9 -4.6968e+06 456659 835739 -1.83618e+06
146 3 O -2.07744 27.5697 48.8273 -1.2 -9.98778 800438 -2.24827e+06 -4.89373e+06 985.267 -365036 -1.35814e+06
147 1 Mg 0.137907 26.087 46.819 1.2 -5.9563 371503 -1.5414e+06 2.22899e+06 1.12386e+06 1.59244e+06 -840677
148 3 O 0.55579 27.5065 48.3893 -1.2 -9.851 197967 -345945 -3.57128e+06 -289290 -323018 684630
149 1 Mg 1.61596 26.172 54.4241 1.2 -6.59647 -2.17505e+06 1.38104e+06 1.77852e+06 -82165.2 -507608 857608
150 2 Si 1.64062 28.8859 56.4706 2.4 -30.114 1.06678e+06 4.44107e+06 1.2934e+07 1.22546e+06 65226.2 679551
151 3 O 1.47995 27.3131 56.5792 -1.2 -11.3794 -40453.5 -368597 -5.21725e+06 660963 -513851 31593.2
152 3 O 1.6432 29.7522 52.7291 -1.2 -10.7601 -1.00207e+06 -411029 -6.8994e+06 1.18691e+06 183375 -1.23568e+06
153 3 O 0.457585 29.5585 55.6782 -1.2 -10.0665 -848945 -3.09769e+06 -6.99319e+06 -606939 -1.80619e+06 -1.02236e+06
154 3 O 2.94496 29.5222 55.8324 -1.2 -10.5721 -2.63494e+06 -521987 -5.62369e+06 1.06338e+06 721703 -922463
155 1 Mg 0.0647462 28.3794 52.2059 1.2 -6.28007 -2.82536e+06 -1.81568e+06 6.56385e+06 -1.43246e+06 1.64134e+06 1.70428e+06
156 1 Mg 2.10696 28.1021 49.4531 1.2 -6.59996 216571 -753338 1.57962e+06 76806.4 -169424 392456
157 2 Si 1.57592 30.4257 51.2442 2.4 -30.2264 3.71488e+06 1.51037e+06 1.37233e+07 -106059 -449529 946185
158 3 O 1.68288 31.9926 51.3043 -1.2 -11.1882 -1.03746e+06 -298002 -5.44561e+06 502573 367189 37455.4
159 3 O 1.49824 29.6436 57.8859 -1.2 -10.6256 -955628 -1.20228e+06 -7.59342e+06 -106276 -769902 1.11199e+06
160 3 O 0.258524 29.7935 50.6632 -1.2 -10.2508 -697869 -938958 -6.60917e+06 1.27228e+06 -711127 -907341
161 1 Mg -2.90462 28.3797 52.308 1.2 -6.087 -2.36273e+06 -3.04978e+06 4.5625e+06 2.02985e+06 -1.696e+06 2.44933e+06
162 3 O 2.81205 29.7787 50.4664 -1.2 -10.7544 -923687 -658676 -3.7053e+06 -338970 977422 -653471
163 1 Mg -1.56016 28.4104 55.192 1.2 -6.53573 7504.12 296426 1.71591e+06 419219 537253 -1.483e+06
164 2 Si -1.43691 26.3829 53.3275 2.4 -29.1333 2.88085e+06 5.78919e+06 1.39091e+07 -29651.8 1.47497e+06 -870967
165 3 O -1.6393 24.7748 53.3877 -1.2 -11.0423 -2.2972e+06 702746 -6.60694e+06 1.18931e+06 -539961 1.70416e+06
166 3 O -0.943026 27.648 46.4208 -1.2 -8.77046 -1.21393e+06 -946530 -4.16333e+06 -605971 -1.50682e+06 918366
167 3 O -2.73804 27.2327 53.8694 -1.2 -11.2093 513211 -2.52048e+06 -5.71157e+06 -1.8161e+06 477869 509523
168 3 O -0.104956 26.9848 53.9836 -1.2 -10.9223 2.24277e+06 -2.99579e+06 -4.07563e+06 1.33631e+06 -700986 647265
169 1 Mg -2.77459 35.5749 57.4926 1.2 -6.79974 -1.2699e+06 -3.36472e+06 6.0537e+06 -1.09399e+06 -1.0447e+06 -805921
170 1 Mg -1.28421 35.3899 49.8376 1.2 -7.10393 -1.27719e+06 514752 3.65105e+06 -213312 190590 473530
171 2 Si -0.807101 32.9036 47.9247 2.4 -32.0178 4.82042e+06 3.89343e+06 1.28924e+07 474590 2.36416e+06 -171067
172 3 O -0.727174 34.4729 47.9885 -1.2 -9.88292 -676823 -2.80179e+06 -4.50476e+06 467536 -1.93567e+06 -205506
173 3 O -1.35735 31.7701 51.768 -1.2 -10.5122 -360195 -442503 -7.68229e+06 788094 -2.0199e+06 -921875
174 3 O -1.97695 32.3253 48.826 -1.2 -10.0213 821276 -1.94547e+06 -5.15323e+06 36100 -409596 -1.42343e+06
175 1 Mg 0.237665 30.8412 46.8168 1.2 -5.88289 245673 -1.64238e+06 2.34184e+06 1.1237e+06 1.58962e+06 -615389
176 3 O 0.656562 32.2608 48.3877 -1.2 -9.88016 281406 -71165.8 -3.86896e+06 -303634 -300731 637479
177 1 Mg 1.48868 30.8169 54.4377 1.2 -7.00848 -793965 -423900 1.76448e+06 1.08007e+06 -255552 1.65608e+06
178 2 Si 1.52167 33.5514 56.26 2.4 -31.1244 3.48751e+06 3.46482e+06 1.42175e+07 966056 -1.35364e+06 1.02294e+06
179 3 O 1.34799 32.026 56.4008 -1.2 -10.4596 -614597 -2.04306e+06 -5.15707e+06 -434657 467298 -1.23825e+06
180 3 O 1.74574 34.5067 52.7279 -1.2 -10.6392 -817808 729211 -7.44961e+06 -504330 -1.28744e+06 -796047
181 3 O 0.239679 34.3501 55.8625 -1.2 -10.2428 -2.45876e+06 -2.27668e+06 -6.31963e+06 -779626 -1.1909e+06 -122877
182 3 O 2.80142 34.2283 55.535 -1.2 -9.81847 1.05355e+06 -1.06554e+06 -5.74324e+06 1.31608e+06 1.20765e+06 -1.42284e+06
183 1 Mg 0.167046 33.1343 52.2045 1.2 -6.50648 -2.79777e+06 -2.7947e+06 6.05832e+06 -1.2886e+06 1.76863e+06 1.44777e+06
184 1 Mg 2.20727 32.8578 49.4516 1.2 -6.58158 238034 -1.11676e+06 1.90309e+06 148929 -225224 376500
185 2 Si 1.67943 35.1802 51.2429 2.4 -30.0634 3.03129e+06 1.24974e+06 1.44351e+07 533108 810955 -222517
186 3 O 1.78736 36.747 51.303 -1.2 -11.2945 -565218 -563843 -5.58437e+06 845092 -695471 519055
187 3 O 1.7502 34.2488 57.837 -1.2 -9.92635 -854314 504864 -4.85947e+06 -237102 41223.2 876443
188 3 O 0.362533 34.5479 50.661 -1.2 -10.3443 -925809 -589543 -6.70809e+06 1.06446e+06 -716152 -96869.7
189 1 Mg -2.80215 33.1347 52.3062 1.2 -6.10662 -2.30931e+06 -3.37216e+06 6.73793e+06 1.93703e+06 -1.7242e+06 1.77689e+06
190 3 O 2.91593 34.533 50.466 -1.2 -10.7456 -719780 -367942 -4.38282e+06 -295808 858686 -384323
191 1 Mg -1.30594 33.2912 55.209 1.2 -7.11325 -84788.5 148126 1.99948e+06 -465264 -91437.3 -302659
192 2 Si -1.4008 31.2123 53.2755 2.4 -30.6079 1.20751e+06 3.27506e+06 1.44503e+07 -221576 -1.3769e+06 488019
193 3 O -1.31348 29.5834 53.348 -1.2 -10.5107 -1.15416e+06 1.58909e+06 -5.2939e+06 -1.34185e+06 -2807.09 -352775
194 3 O -0.842495 32.4028 46.4192 -1.2 -8.8141 -1.14019e+06 -831827 -4.28117e+06 -604094 -1.51132e+06 802653
195 3 O -2.50116 31.9195 54.0811 -1.2 -10.5133 -970281 -2.38765e+06 -4.46879e+06 843217 1.59626e+06 -350564
196 3 O -0.00745122 31.7873 53.7465 -1.2 -10.1275 -2.0891e+06 -3.67519e+06 -7.66156e+06 1.0734e+06 -1.73009e+06 561488
197 1 Mg -2.64023 40.4203 57.4215 1.2 -7.17531 -4.36198e+06 -4.02774e+06 5.46866e+06 538220 -1.97297e+06 427061
198 1 Mg -1.17787 40.1435 49.8359 1.2 -7.56816 -959494 75373 4.51355e+06 -133142 305986 824907
199 2 Si -0.702692 37.6572 47.9231 2.4 -32.159 5.05752e+06 3.85501e+06 1.29175e+07 476559 2.31817e+06 167608
200 3 O -0.621782 39.2264 47.9868 -1.2 -9.72582 -886373 -2.57006e+06 -4.78946e+06 467764 -1.91239e+06 -409086
201 3 O -1.25221 36.5242 51.7666 -1.2 -10.9944 -101129 -1.78736e+06 -9.44943e+06 176806 549581 525684
202 3 O -1.87295 37.0796 48.8243 -1.2 -9.98323 800015 -2.07618e+06 -5.05236e+06 -7301.61 -339030 -1.50969e+06
203 1 Mg 0.341084 35.5943 46.8152 1.2 -5.88851 266677 -1.68687e+06 2.3763e+06 1.12241e+06 1.59435e+06 -578011
204 3 O 0.760681 37.0138 48.3864 -1.2 -9.84555 189774 -133469 -3.76298e+06 -274784 -333830 557402
205 1 Mg 1.80453 35.8387 54.387 1.2 -7.06724 -2.58708e+06 -402599 2.26233e+06 -1.66573e+06 995272 1.25033e+06
206 2 Si 1.71515 38.3516 56.4767 2.4 -31.2687 5.11362e+06 1.59741e+06 1.15866e+07 841732 430925 878500
207 3 O 1.81492 36.838 56.4126 -1.2 -10.3517 -2.63127e+06 -2.2973e+06 -5.97553e+06 -532289 184869 -621141
208 3 O 1.85132 39.2606 52.7264 -1.2 -10.8516 -1.44337e+06 -69045.3 -7.18625e+06 586681 -371971 -333375
209 3 O 0.347916 38.9805 55.8161 -1.2 -10.2526 -295399 -2.44851e+06 -5.75145e+06 -1.95042e+06 -642768 -1.16867e+06
210 3 O 3.02179 39.0172 55.7608 -1.2 -9.92541 148918 -3.7081e+06 -7.29971e+06 1.2375e+06 884572 -527539
211 1 Mg 0.272384 37.8883 52.2029 1.2 -6.25211 -2.72864e+06 -2.91694e+06 6.50756e+06 -1.98465e+06 1.65737e+06 731418
212 1 Mg 2.31122 37.6122 49.4501 1.2 -6.65142 306140 -979670 1.82069e+06 136601 -147748 409382
213 2 Si 1.78573 39.934 51.2414 2.4 -30.7591 5.95308e+06 684960 1.31415e+07 -92283.3 44001.1 117622
214 3 O 1.89428 41.5006 51.3014 -1.2 -10.8614 -2.12769e+06 5070.92 -4.91233e+06 734095 46471.2 458564
215 3 O 1.80763 39.0076 57.856 -1.2 -9.76254 -2.96613e+06 -2.65198e+06 -1.01506e+07 -170154 725250 1.19295e+06
216 3 O 0.469216 39.3015 50.6588 -1.2 -9.99449 -1.52354e+06 -643889 -6.53845e+06 1.49563e+06 -422581 -684673
217 1 Mg -2.69668 37.8889 52.3043 1.2 -6.11749 -3.03311e+06 -3.20838e+06 5.72571e+06 2.44923e+06 -1.73811e+06 568727
218 3 O 3.0225 39.2866 50.4651 -1.2 -10.4334 -1.46877e+06 -353390 -4.23056e+06 -524323 536415 -566680
219 1 Mg -1.19247 37.9368 55.1414 1.2 -7.12897 284184 -778563 1.4309e+06 -467779 -489053 -677855
220 2 Si -1.23886 35.9479 53.1598 2.4 -29.763 3.15406e+06 2.88578e+06 1.46725e+07 1.0485e+06 41581.1 1.26707e+06
221 3 O -1.26235 34.3368 53.1909 -1.2 -10.7586 -1.02848e+06 2.44283e+06 -6.23466e+06 866791 1.11725e+06 524306
222 3 O -0.738054 37.1566 46.4176 -1.2 -8.77205 -1.20938e+06 -751952 -4.36242e+06 -604651 -1.50504e+06 692760
223 3 O -2.59201 36.5765 53.8634 -1.2 -10.4313 -871518 -2.59698e+06 -7.49737e+06 -2.3989e+06 1.29391e+06 1.53225e+06
224 3 O 0.0591747 36.7531 53.9269 -1.2 -10.6166 1.57802e+06 -510325 -5.63379e+06 1.64521e+06 138875 1.3965e+06
225 1 Mg -2.66929 44.9449 57.2299 1.2 -6.75921 -1.32842e+06 -2.58848e+06 4.994e+06 -597929 -1.1609e+06 -2.12753e+06
226 1 Mg -1.06993 44.8968 49.8343 1.2 -7.48727 -849790 390218 3.96397e+06 -204045 227316 494148
227 2 Si -0.596166 42.4103 47.9215 2.4 -32.4792 5.49228e+06 3.2769e+06 1.35799e+07 493889 2.30553e+06 -537428
228 3 O -0.51472 43.9796 47.9853 -1.2 -9.65335 -1.01436e+06 -2.52697e+06 -4.81421e+06 462486 -1.91806e+06 13457.5
229 3 O -1.14475 41.2777 51.7649 -1.2 -9.4139 13979.7 -694445 -4.57725e+06 196031 -1.57908e+06 -797386
230 3 O -1.76671 41.8331 48.8226 -1.2 -9.7222 456148 -1.66962e+06 -5.54846e+06 35517.8 -451567 -1.17447e+06
231 1 Mg 0.447076 40.3473 46.8135 1.2 -6.01333 465397 -1.99848e+06 2.68889e+06 1.12129e+06 1.57335e+06 -585155
232 3 O 0.866985 41.7666 48.385 -1.2 -9.6361 -163542 261587 -4.14315e+06 -304791 -250294 800788
233 1 Mg 1.986 40.1174 54.4777 1.2 -6.65097 -130039 -788259 2.16752e+06 -211401 493765 470164
234 2 Si 1.93496 42.8471 56.376 2.4 -30.4408 2.83277e+06 1.50399e+06 1.54528e+07 -1.25081e+06 2.25659e+06 -1.22213e+06
235 3 O 1.83475 41.2365 56.464 -1.2 -10.5746 -2.3116e+06 -1.86066e+06 -6.74276e+06 410745 -324476 877169
236 3 O 1.95891 44.014 52.7248 -1.2 -10.556 -974562 323963 -6.68023e+06 -517785 -203685 -448106
237 3 O 0.684356 43.6018 55.6144 -1.2 -10.4182 -515399 90341.1 -4.92283e+06 -642203 187602 -871213
238 3 O 3.14883 43.577 55.7573 -1.2 -10.3584 -2.75898e+06 -1.36563e+06 -8.89463e+06 831127 302110 -204863
239 1 Mg 0.379928 42.6418 52.2013 1.2 -6.8305 -2.31896e+06 -2.42305e+06 5.99615e+06 -703287 2.16262e+06 825393
240 1 Mg 2.41752 42.366 49.4484 1.2 -6.8943 870159 -1.30743e+06 1.97833e+06 95495.6 -142755 98011.5
241 2 Si 1.89374 44.6874 51.2398 2.4 -30.8067 4.82004e+06 1.25156e+06 1.3802e+07 494934 466751 124449
242 3 O 2.00266 46.254 51.2996 -1.2 -10.913 -1.55661e+06 -119693 -5.29374e+06 792402 -523680 460866
243 3 O 2.00933 43.4465 57.837 -1.2 -10.3295 -1.73638e+06 38293.1 -8.76258e+06 597852 1.04733e+06 775222
244 3 O 0.577464 44.0549 50.6567 -1.2 -9.9502 -1.58915e+06 -790649 -6.54949e+06 1.09193e+06 -588681 -110691
245 1 Mg -2.58906 42.6425 52.3022 1.2 -6.39457 -1.61922e+06 -2.65482e+06 5.77411e+06 1.30824e+06 -2.11144e+06 887047
246 3 O 3.13067 44.0398 50.464 -1.2 -10.3744 -1.45699e+06 -546405 -4.13731e+06 -288432 761388 -336255
247 1 Mg -1.07805 42.7442 54.9362 1.2 -6.74682 584564 -2.29644e+06 2.90889e+06 74356.1 -876818 -1.85099e+06
248 2 Si -1.14829 40.6477 53.4809 2.4 -30.2585 27022.1 -269355 1.7314e+07 -493956 -1.46572e+06 -2.18473e+06
249 3 O -1.25725 39.0998 53.2154 -1.2 -10.8095 -778108 -229435 -6.57059e+06 -339107 57838.7 2.74113e+06
250 3 O -0.631421 41.9099 46.4159 -1.2 -8.66824 -1.36522e+06 -481433 -4.64265e+06 -605680 -1.50256e+06 891674
251 3 O -2.36131 41.3775 54.1225 -1.2 -10.7824 -1.33103e+06 -1.19378e+06 -6.68817e+06 -104748 1.48928e+06 -102445
252 3 O 0.0968377 41.3396 53.8453 -1.2 -10.4783 -3.23769e+06 -1.58351e+06 -8.63674e+06 -1.01495e+06 -2.22019e+06 -438013
253 1 Mg -2.75768 49.8208 57.3426 1.2 -6.61893 -2.12095e+06 -2.2434e+06 4.99781e+06 -1.64472e+06 -2.06036e+06 -817803
254 1 Mg -0.961069 49.6502 49.8327 1.2 -7.3775 -954772 295616 3.98939e+06 -121882 214851 -27865.7
255 2 Si -0.488083 47.1636 47.9198 2.4 -32.3865 5.4104e+06 3.37986e+06 1.34105e+07 488030 2.29509e+06 -950315
256 3 O -0.40607 48.7329 47.9837 -1.2 -9.72874 -911866 -2.56525e+06 -4.74959e+06 456202 -1.91716e+06 293289
257 3 O -1.0361 46.031 51.7632 -1.2 -9.99074 -405486 -1.03882e+06 -8.49469e+06 128385 533745 -945012
258 3 O -1.65866 46.5866 48.821 -1.2 -9.77681 516712 -1.73155e+06 -5.44059e+06 19281.6 -374952 -1.07147e+06
259 1 Mg 0.554124 45.1001 46.8117 1.2 -6.03455 504006 -1.98933e+06 2.67599e+06 1.12459e+06 1.58324e+06 -900235
260 3 O 0.974961 46.5195 48.3832 -1.2 -9.67385 -102916 183688 -4.05263e+06 -292184 -301734 998115
261 1 Mg 2.1247 45.0565 54.5651 1.2 -6.95891 508495 109875 2.37209e+06 -568098 389963 682295
262 2 Si 1.8861 47.711 56.4016 2.4 -30.917 6.55009e+06 -97593.2 1.51915e+07 1.3621e+06 17699.1 -40274.8
263 3 O 1.94513 46.1458 56.3873 -1.2 -10.6701 -3.9255e+06 589624 -6.12772e+06 613349 -1.12562e+06 981026
264 3 O 2.0677 48.7672 52.7232 -1.2 -10.3639 -1.92612e+06 -530662 -7.47717e+06 1.12244e+06 233717 -895937
265 3 O 0.612932 48.2428 55.6616 -1.2 -10.1125 -975296 -3.30785e+06 -6.94237e+06 -1.12767e+06 304697 -706335
266 3 O 3.24484 48.3535 55.6213 -1.2 -10.1602 588915 -859215 -4.72591e+06 1.12273e+06 -1.05283e+06 288451
267 1 Mg 0.488584 47.395 52.1996 1.2 -6.76497 -1.81943e+06 -3.31619e+06 6.97609e+06 -1.15273e+06 1.64214e+06 603250
268 1 Mg 2.52544 47.1195 49.4466 1.2 -6.84641 676166 -1.31203e+06 2.10667e+06 115776 -109560 -17537.5
269 2 Si 2.00256 49.4407 51.2382 2.4 -30.7598 4.50059e+06 1.01631e+06 1.43553e+07 -76918.2 154591 -582104
270 3 O 2.11156 51.0073 51.2982 -1.2 -11.0286 -1.05792e+06 -315604 -5.73713e+06 882876 240204 1.09968e+06
271 3 O 1.99862 48.3347 57.8843 -1.2 -10.3869 -2.21951e+06 -559687 -4.55371e+06 -49775.1 1.0112e+06 535357
272 3 O 0.686344 48.8082 50.655 -1.2 -10.031 -1.56417e+06 -515574 -6.67912e+06 1.06321e+06 -666889 137492
273 1 Mg -2.48039 47.3957 52.3005 1.2 -6.62297 -2.20228e+06 -3.38894e+06 5.82179e+06 1.43524e+06 -1.8486e+06 458123
274 3 O 3.23944 48.7932 50.4623 -1.2 -10.3962 -1.36376e+06 -267965 -4.59512e+06 -231619 607828 112835
275 1 Mg -1.03788 47.3846 55.0191 1.2 -7.59507 -201097 -2.05386e+06 2.84822e+06 -328238 -208037 -2.71714e+06
276 2 Si -1.02227 45.3666 53.2409 2.4 -30.9603 954175 976709 1.52052e+07 1.5549e+06 2.00442e+06 153197