ITEM: TIMESTEP
30500
ITEM: NUMBER OF ATOMS
10500
ITEM: BOX BOUNDS xy xz yz pp pp pp
0.0000000000000000e+00 8.9687999999999999e+00 2.9895999999999998e+00
0.0000000000000000e+00 1.1872499999999999e+02 0.0000000000000000e+00
0.0000000000000000e+00 2.5297749999999999e+02 0.0000000000000000e+00
ITEM: ATOMS id type element xu yu zu q c_pe c_s[1] c_s[2] c_s[3] c_s[4] c_s[5] c_s[6]
1 1 Mg -3.26259 7.03388 57.2938 1.2 -7.82868 -2.4267e+06 -2.25163e+06 5.38728e+06 -1.68024e+06 -1.95817e+06 -907692
2 1 Mg -1.82655 6.90154 50.0912 1.2 -8.28181 -28691.7 725396 1.78234e+06 -109366 -137771 1.02134e+06
3 2 Si -0.257935 3.96038 48.0876 2.4 -36.1252 1.01543e+07 8.52629e+06 1.1052e+07 788899 1.95042e+06 1.42657e+06
4 3 O -0.335812 5.46814 47.6264 -1.2 -7.76558 -3.11535e+06 -2.32862e+06 -2.67028e+06 147436 -956203 -364212
5 3 O -2.03793 3.43377 51.8941 -1.2 -8.8569 -2.65741e+06 -952213 -6.45666e+06 -1.245e+06 1.17165e+06 -2.19365e+06
6 3 O -1.54015 3.53929 48.9521 -1.2 -8.26453 -1.34078e+06 -1.51835e+06 -4.46663e+06 18062.6 -704042 -119872
7 1 Mg 1.82954 2.54582 47.1376 1.2 -8.03224 2.66846e+06 -586018 837546 1.14878e+06 837660 383443
8 3 O 1.22989 3.66364 48.7877 -1.2 -7.98534 -1.72822e+06 -2.25449e+06 -3.79194e+06 -467727 -740033 -824929
9 1 Mg 0.830615 2.30608 54.5431 1.2 -7.91085 2.20821e+06 249926 1.84607e+06 483849 -598550 959565
10 2 Si 1.18344 5.1048 56.4138 2.4 -32.9749 7.46881e+06 2.05677e+06 1.16586e+07 -466481 319222 -223688
11 3 O 1.14656 3.5888 56.5915 -1.2 -9.63747 -4.05376e+06 -1.92898e+06 -5.3531e+06 -80828.9 741397 -15485.4
12 3 O 1.10813 6.07342 52.8172 -1.2 -9.13883 -3.75382e+06 -2.07142e+06 -5.07101e+06 259365 -397839 -962794
13 3 O -0.120655 5.78868 55.8117 -1.2 -9.2874 -2.91066e+06 -2.29272e+06 -5.06519e+06 -571530 -979380 920925
14 3 O 2.43573 5.71096 55.6922 -1.2 -9.13765 -2.26554e+06 -3.50069e+06 -6.25222e+06 428993 1.27873e+06 185592
15 1 Mg -0.459401 4.67631 52.2426 1.2 -8.06428 -349568 -1.82875e+06 5.48917e+06 -1.19631e+06 1.20943e+06 928249
16 1 Mg 2.79456 3.9971 49.9987 1.2 -8.41223 3.59527e+06 -300967 1.93811e+06 -481278 883161 -1.00652e+06
17 2 Si 1.16169 6.59457 51.2556 2.4 -33.577 8.00307e+06 4.91676e+06 1.22401e+07 113280 309578 1.91255e+06
18 3 O 1.28989 8.18905 51.2909 -1.2 -9.65577 -3.0129e+06 -1.21335e+06 -3.65799e+06 213554 -939645 1.385e+06
19 3 O 1.29625 5.78404 57.8839 -1.2 -9.32278 -3.55632e+06 -3.05577e+06 -6.67503e+06 -722446 -242712 735423
20 3 O -0.184847 6.06029 50.6845 -1.2 -8.6417 -3.08478e+06 -2.64406e+06 -5.72495e+06 1.56367e+06 -95730.5 -1.24428e+06
21 1 Mg -3.49704 4.67769 52.6661 1.2 -7.71143 12005 -2.47979e+06 3.66625e+06 2.27303e+06 -1.11927e+06 774672
22 3 O 2.48581 5.93312 50.6539 -1.2 -9.24811 -3.28052e+06 -1.08106e+06 -3.40631e+06 -1.65363e+06 -682379 -608641
23 1 Mg -1.77684 4.67208 55.2142 1.2 -8.36146 1.73725e+06 584510 1.87652e+06 433290 -236408 -1.39592e+06
24 2 Si -1.9456 2.63356 53.3388 2.4 -33.2797 5.75754e+06 3.97208e+06 1.44277e+07 876960 -941602 -1.64993e+06
25 3 O -1.98805 1.06458 53.3083 -1.2 -9.477 -3.0983e+06 -644371 -4.89155e+06 401875 680093 438147
26 3 O -0.0467762 2.97103 46.8385 -1.2 -6.97352 -3.02951e+06 -2.06855e+06 -2.95413e+06 -987390 -2.00425e+06 -487506
27 3 O -3.19077 3.30586 54.1002 -1.2 -8.83672 -2.17867e+06 -2.09622e+06 -6.18562e+06 -369390 289052 754704
28 3 O -0.735757 3.33302 54.0305 -1.2 -9.35228 -5.56741e+06 -2.33034e+06 -5.29702e+06 982184 -538155 1.13557e+06
29 1 Mg -3.17338 11.5715 57.4128 1.2 -7.60375 -1.63729e+06 -1.54592e+06 5.00058e+06 -957933 -1.60559e+06 -1.72223e+06
30 1 Mg -1.75014 11.5838 49.8362 1.2 -8.36916 640574 2.22194e+06 2.25058e+06 -310432 292701 595395
31 2 Si -1.18003 9.02138 47.9309 2.4 -34.4214 8.39144e+06 7.33377e+06 9.63125e+06 234745 2.59765e+06 -364087
32 3 O -1.23224 10.5991 47.9811 -1.2 -8.72334 -2.47491e+06 -3.75337e+06 -2.63171e+06 653902 -1.91592e+06 317594
33 3 O -1.79016 8.01447 51.8693 -1.2 -8.88961 -2.238e+06 -2.51627e+06 -4.79289e+06 591382 -181857 -869782
34 3 O -2.30986 8.37215 48.8528 -1.2 -8.96722 -991316 -2.53693e+06 -3.39905e+06 -322153 -642785 -405691
35 1 Mg 0.154883 7.08234 46.8007 1.2 -7.55083 1.93791e+06 -185948 828641 943138 1.71718e+06 -1.23606e+06
36 3 O 0.325447 8.50934 48.3809 -1.2 -8.6186 -1.43894e+06 -1.99124e+06 -2.69922e+06 -41481.7 -801245 751981
37 1 Mg 1.07273 7.11639 54.6247 1.2 -8.22781 2.40085e+06 -162963 1.43642e+06 476509 -18492.6 1.08989e+06
38 2 Si 1.13561 9.71494 56.3971 2.4 -32.595 7.35013e+06 3.31609e+06 1.22877e+07 -465783 472215 -575215
39 3 O 1.27331 8.16513 56.5207 -1.2 -9.58745 -4.21666e+06 -2.66983e+06 -5.98281e+06 -911355 -57201.8 499079
40 3 O 1.28624 10.7248 52.7351 -1.2 -9.8573 -2.57693e+06 -2.28104e+06 -5.86192e+06 692881 -330005 -780885
41 3 O -0.0514487 10.3672 55.6297 -1.2 -9.61157 -2.61457e+06 -2.75484e+06 -3.77156e+06 -788344 -885026 -375192
42 3 O 2.53353 10.2595 55.7279 -1.2 -9.05498 -2.10015e+06 -5.13966e+06 -4.46739e+06 1.75323e+06 537135 -179574
43 1 Mg -0.262694 9.34741 52.2523 1.2 -7.50511 -439802 -491816 5.11636e+06 -1.25349e+06 1.3344e+06 456523
44 1 Mg 1.87648 9.01537 49.4629 1.2 -7.8357 1.99644e+06 540931 233403 238018 -233555 -172217
45 2 Si 1.21415 11.3799 51.2378 2.4 -32.5178 7.59413e+06 5.38407e+06 1.00601e+07 134218 270305 169784
46 3 O 1.31634 12.9512 51.3023 -1.2 -9.9607 -3.2371e+06 -1.56949e+06 -3.68459e+06 482205 -143767 743331
47 3 O 1.18419 10.4286 57.8506 -1.2 -9.58136 -2.93629e+06 -2.40401e+06 -5.65637e+06 899243 791658 1.30024e+06
48 3 O -0.115718 10.7564 50.681 -1.2 -9.09348 -2.73072e+06 -2.71121e+06 -4.39826e+06 1.22346e+06 -530868 -331737
49 1 Mg -3.26386 9.35564 52.3622 1.2 -7.39617 -802797 -1.45697e+06 4.02074e+06 1.71973e+06 -1.76977e+06 547253
50 3 O 2.45216 10.7265 50.4558 -1.2 -9.56165 -2.61529e+06 -2.12609e+06 -2.04415e+06 -785428 463800 314118
51 1 Mg -1.82384 9.51073 55.0653 1.2 -8.20574 754191 -166306 679020 751779 -6434.42 -1.61833e+06
52 2 Si -1.87608 7.36652 53.4622 2.4 -33.4337 6.27824e+06 1.60237e+06 1.36329e+07 -513525 -1.04212e+06 -845722
53 3 O -1.82436 5.85985 53.3206 -1.2 -9.2543 -3.4525e+06 -3.72799e+06 -6.22439e+06 -174278 178986 572017
54 3 O -1.19417 8.46968 46.4488 -1.2 -7.60458 -2.77537e+06 -2.06221e+06 -2.93286e+06 -541818 -1.74069e+06 1.08112e+06
55 3 O -3.16042 8.06176 54.0074 -1.2 -9.14405 -3.26443e+06 -3.02433e+06 -6.19911e+06 -256239 820011 -643288
56 3 O -0.652231 8.03237 54.098 -1.2 -9.10944 -3.85065e+06 -4.10922e+06 -6.16891e+06 258603 -1.2536e+06 -695532
57 1 Mg -3.10517 16.4072 57.3089 1.2 -7.5052 -1.15454e+06 -1.87553e+06 5.50504e+06 -2.0132e+06 -1.43002e+06 -1.99175e+06
58 1 Mg -1.6714 16.3544 49.8412 1.2 -8.57017 849599 2.02143e+06 2.43918e+06 -186445 173320 542600
59 2 Si -1.18567 13.8526 47.9314 2.4 -34.3956 8.64114e+06 6.50567e+06 1.01949e+07 491524 2.23356e+06 -564090
60 3 O -1.09664 15.4205 47.9915 -1.2 -8.66284 -2.53851e+06 -3.95348e+06 -3.14811e+06 426656 -1.91314e+06 -73009.7
61 3 O -1.73493 12.7491 51.7772 -1.2 -9.0064 -2.45306e+06 -1.78195e+06 -6.53641e+06 426596 -568925 -663458
62 3 O -2.36115 13.2717 48.8238 -1.2 -8.80108 -1.11712e+06 -3.25074e+06 -3.70985e+06 -100331 -387982 -1.11034e+06
63 1 Mg -0.159928 11.7639 46.8533 1.2 -7.01483 2.10235e+06 -411708 1.05961e+06 1.12726e+06 1.5668e+06 -1.04644e+06
64 3 O 0.2623 13.1866 48.413 -1.2 -8.70512 -1.66855e+06 -1.29149e+06 -2.46847e+06 -200295 -269204 938039
65 1 Mg 1.41447 11.7411 54.4023 1.2 -7.83972 1.6988e+06 1.70652e+06 613260 -349129 730225 -248549
66 2 Si 1.31294 14.4044 56.3931 2.4 -32.7313 6.68888e+06 4.99183e+06 1.11274e+07 851366 -913743 -1.01869e+06
67 3 O 1.36185 12.8467 56.3622 -1.2 -9.71066 -3.2646e+06 -1.11571e+06 -4.22927e+06 -318880 -10599.5 1.336e+06
68 3 O 1.36565 15.4813 52.729 -1.2 -9.57792 -3.24655e+06 -1.96793e+06 -5.6907e+06 -43424.5 -715196 -586608
69 3 O 0.138422 15.064 55.6309 -1.2 -9.68594 -4.08331e+06 -3.05483e+06 -4.33474e+06 -318141 -1.14341e+06 313448
70 3 O 2.71893 15.0928 55.7801 -1.2 -8.85634 -164150 -3.36493e+06 -4.677e+06 1.28366e+06 415166 35139.7
71 1 Mg -0.206989 14.1049 52.2121 1.2 -7.6011 -190618 -1.03505e+06 4.12953e+06 -1.39485e+06 1.83094e+06 502805
72 1 Mg 1.82591 13.8102 49.4556 1.2 -7.84415 2.2876e+06 544579 284630 154498 -84197.9 143561
73 2 Si 1.29285 16.1518 51.2434 2.4 -32.9228 8.66319e+06 4.73941e+06 9.97293e+06 148659 763116 -159783
74 3 O 1.39496 17.7199 51.3047 -1.2 -9.75686 -3.50781e+06 -1.86113e+06 -3.44997e+06 708089 -541438 596330
75 3 O 1.32333 15.1346 57.8023 -1.2 -9.54639 -2.7558e+06 -969955 -6.73332e+06 509761 737245 811737
76 3 O -0.0269106 15.5178 50.6688 -1.2 -8.94722 -3.38898e+06 -2.38652e+06 -4.63236e+06 1.1807e+06 -521678 -173420
77 1 Mg -3.18391 14.1057 52.3125 1.2 -7.52265 -825248 -1.09678e+06 4.40296e+06 1.50707e+06 -1.74923e+06 399319
78 3 O 2.52432 15.503 50.4579 -1.2 -9.3202 -2.99427e+06 -2.0901e+06 -2.5791e+06 -384758 545646 -125365
79 1 Mg -1.55219 14.1695 54.9665 1.2 -8.06378 2.31725e+06 726401 1.14896e+06 -529697 -615454 -1.90492e+06
80 2 Si -1.68535 12.038 53.2593 2.4 -32.631 4.84278e+06 2.6507e+06 1.25433e+07 -308621 -287218 -1.59765e+06
81 3 O -1.79552 10.5282 53.2236 -1.2 -10.0303 -2.55823e+06 -4.06457e+06 -5.43474e+06 103816 138146 1.0002e+06
82 3 O -1.21337 13.3381 46.4311 -1.2 -7.67196 -3.03266e+06 -1.94475e+06 -3.10142e+06 -630654 -1.45067e+06 1.05875e+06
83 3 O -2.88261 12.7865 53.9716 -1.2 -9.37028 -2.97053e+06 -2.53787e+06 -6.19544e+06 -255760 1.8926e+06 250752
84 3 O -0.405853 12.7833 53.7796 -1.2 -9.37757 -3.85622e+06 -1.74609e+06 -6.25709e+06 383328 -1.54344e+06 631893
85 1 Mg -2.99159 21.239 57.3358 1.2 -7.5906 -481168 -1.10864e+06 4.80825e+06 -372354 -1.83794e+06 -1.53218e+06
86 1 Mg -1.5831 21.1217 49.8405 1.2 -8.73703 1.26746e+06 1.77771e+06 2.48806e+06 -186035 172148 545006
87 2 Si -1.09384 18.6291 47.9287 2.4 -34.6827 9.09656e+06 6.2606e+06 1.05057e+07 497732 2.29922e+06 -419117
88 3 O -1.02071 20.1985 47.9911 -1.2 -8.5151 -2.85118e+06 -3.85042e+06 -3.35363e+06 454197 -1.92147e+06 -67686.8
89 3 O -1.65002 17.5002 51.771 -1.2 -8.74571 -2.30472e+06 -3.20001e+06 -5.71909e+06 210781 -248463 -300697
90 3 O -2.26174 18.0434 48.8281 -1.2 -8.64024 -1.32674e+06 -3.20251e+06 -3.89029e+06 -9275.58 -379268 -1.16929e+06
91 1 Mg -0.0440435 16.5651 46.8269 1.2 -7.09695 2.1752e+06 -511389 1.20225e+06 1.13455e+06 1.572e+06 -765659
92 3 O 0.37001 17.9877 48.3925 -1.2 -8.54635 -1.92568e+06 -1.30255e+06 -2.5552e+06 -294323 -313960 790713
93 1 Mg 1.26454 16.5129 54.4122 1.2 -8.10248 1.69292e+06 1.40116e+06 568970 115386 93836.1 -373572
94 2 Si 1.40218 19.1803 56.3027 2.4 -32.6018 7.03626e+06 4.21852e+06 1.29719e+07 327715 -644127 -155318
95 3 O 1.3698 17.6382 56.308 -1.2 -9.68608 -2.59597e+06 -1.55739e+06 -4.66877e+06 487008 649678 347515
96 3 O 1.45147 20.239 52.7294 -1.2 -8.95547 -3.71505e+06 -2.47468e+06 -4.30181e+06 339717 -338132 -791957
97 3 O 0.146119 19.8741 55.621 -1.2 -9.63475 -1.72015e+06 -2.71462e+06 -5.03909e+06 -637409 -965299 601884
98 3 O 2.78165 19.8699 55.7201 -1.2 -9.18583 -600214 -3.3328e+06 -5.58556e+06 1.52681e+06 759735 376726
99 1 Mg -0.126194 18.8651 52.2079 1.2 -7.90216 199098 -994001 4.35514e+06 -896413 1.73275e+06 580397
100 1 Mg 1.92402 18.5815 49.4545 1.2 -8.03118 2.51811e+06 361377 443072 101497 -93387.7 177679
101 2 Si 1.38106 20.9117 51.2443 2.4 -33.7077 8.98479e+06 4.40254e+06 1.12705e+07 177884 637216 444665
102 3 O 1.48527 22.4795 51.3054 -1.2 -9.37664 -3.83874e+06 -1.59872e+06 -4.35551e+06 726335 -337896 882944
103 3 O 1.40958 19.834 57.8068 -1.2 -9.29074 -1.95937e+06 -1.13686e+06 -4.37215e+06 -257237 1.32665e+06 1.56582e+06
104 3 O 0.0615419 20.2804 50.6669 -1.2 -8.70766 -3.67662e+06 -2.27667e+06 -4.84989e+06 1.05866e+06 -757903 -303316
105 1 Mg -3.09665 18.8643 52.3122 1.2 -7.82428 -476368 -1.00578e+06 4.0461e+06 1.32663e+06 -1.85132e+06 483899
106 3 O 2.61548 20.2646 50.4626 -1.2 -9.09065 -3.3013e+06 -2.00825e+06 -2.77707e+06 -301763 743324 -315298
107 1 Mg -1.54665 18.8617 55.1004 1.2 -8.21223 1.88184e+06 697116 172995 131491 -181989 -1.46692e+06
108 2 Si -1.66021 16.8315 53.2741 2.4 -33.2264 5.79776e+06 2.67436e+06 1.19128e+07 559011 -1.24401e+06 -1.41865e+06
109 3 O -1.75183 15.3446 53.1478 -1.2 -9.68896 -2.94535e+06 -5.02153e+06 -5.23848e+06 142361 981403 1.38253e+06
110 3 O -1.12868 18.1227 46.4249 -1.2 -7.5837 -3.12827e+06 -1.85397e+06 -3.23147e+06 -604718 -1.49268e+06 930554
111 3 O -2.91898 17.5096 53.9535 -1.2 -8.97786 -2.24477e+06 -3.58062e+06 -5.31559e+06 -385598 1.3464e+06 431145
112 3 O -0.394868 17.5274 53.8767 -1.2 -9.36807 -4.1853e+06 -2.68635e+06 -5.32357e+06 666817 -1.8335e+06 571867
113 1 Mg -2.96182 25.9293 57.4626 1.2 -7.28684 -1.40326e+06 -1.83821e+06 4.60889e+06 -247139 -2.00876e+06 -346398
114 1 Mg -1.48778 25.88 49.8402 1.2 -8.65754 1.08869e+06 1.9823e+06 2.31542e+06 -150498 276575 271449
115 2 Si -1.00491 23.3922 47.9274 2.4 -34.7724 9.25759e+06 6.12639e+06 1.06295e+07 496769 2.31862e+06 -864759
116 3 O -0.927602 24.9615 47.9909 -1.2 -8.5305 -2.82845e+06 -3.97213e+06 -3.30914e+06 455670 -1.9286e+06 183050
117 3 O -1.55795 22.2588 51.7696 -1.2 -8.53765 -3.79117e+06 -1.48365e+06 -6.08567e+06 249498 197465 -598182
118 3 O -2.17411 22.8111 48.8277 -1.2 -8.54886 -1.49933e+06 -3.10856e+06 -4.00383e+06 -3232.92 -350140 -1.01441e+06
119 1 Mg 0.0423997 21.3296 46.8225 1.2 -7.17174 2.31825e+06 -686227 1.36696e+06 1.12711e+06 1.5887e+06 -848276
120 3 O 0.458537 22.7495 48.3911 -1.2 -8.46274 -2.04263e+06 -1.19047e+06 -2.69854e+06 -289015 -334035 981600
121 1 Mg 1.48723 21.2125 54.6574 1.2 -8.40036 3.06014e+06 85827 753326 -101181 333534 413299
122 2 Si 1.45744 23.8775 56.4246 2.4 -33.3792 8.26376e+06 4.10656e+06 1.262e+07 543093 -580568 -1.7018e+06
123 3 O 1.53545 22.3281 56.3313 -1.2 -9.68638 -3.33902e+06 -1.48579e+06 -6.18317e+06 248644 749556 323808
124 3 O 1.54441 24.9963 52.7297 -1.2 -9.0429 -3.39161e+06 -2.24432e+06 -4.74517e+06 405844 -382945 -478911
125 3 O 0.27382 24.6684 55.7483 -1.2 -8.90038 -4.25904e+06 -2.22882e+06 -3.99714e+06 -1.1278e+06 25962 533836
126 3 O 2.75827 24.6605 55.7454 -1.2 -8.68534 -3.55931e+06 -2.96245e+06 -3.94933e+06 2.10578e+06 156376 -236400
127 1 Mg -0.0335968 23.6229 52.2067 1.2 -8.09781 560267 -737443 4.44549e+06 -1.32536e+06 1.90544e+06 388399
128 1 Mg 2.01073 23.3445 49.4541 1.2 -8.12039 2.62857e+06 221855 622144 108457 -139518 -120417
129 2 Si 1.47594 25.6699 51.2449 2.4 -33.4032 8.69148e+06 4.89429e+06 1.0504e+07 34222.8 313784 -447554
130 3 O 1.58172 27.2371 51.3054 -1.2 -9.7213 -3.35701e+06 -2.14871e+06 -3.59009e+06 684092 -405604 810140
131 3 O 1.54238 24.4973 57.9025 -1.2 -9.40429 -2.99063e+06 -2.0063e+06 -6.51493e+06 -236098 791009 2.17821e+06
132 3 O 0.157925 25.0378 50.6651 -1.2 -8.71971 -3.49252e+06 -2.4331e+06 -4.73515e+06 1.23774e+06 -775719 -56834.9
133 1 Mg -3.00341 23.6231 52.3098 1.2 -8.02314 17156.1 -1.02463e+06 3.84074e+06 1.44463e+06 -2.05241e+06 182161
134 3 O 2.71149 25.0232 50.4656 -1.2 -9.13372 -3.36659e+06 -2.13363e+06 -2.59953e+06 -340892 792651 74522.9
135 1 Mg -1.56307 23.7419 55.0161 1.2 -8.431 3.2099e+06 534752 783399 311357 192276 -296718
136 2 Si -1.51678 21.5355 53.2466 2.4 -33.9065 8.99398e+06 3.98318e+06 1.14172e+07 531352 15542.1 -1.40396e+06
137 3 O -1.63006 19.9836 53.1621 -1.2 -9.3571 -4.27099e+06 -2.6956e+06 -4.58402e+06 673422 505114 769491
138 3 O -1.03938 22.8897 46.4223 -1.2 -7.54985 -3.17244e+06 -1.79463e+06 -3.3011e+06 -606803 -1.50124e+06 1.09752e+06
139 3 O -2.77022 22.2198 53.8909 -1.2 -8.73157 -3.36176e+06 -2.59054e+06 -5.66721e+06 -327122 1.3688e+06 153514
140 3 O -0.192111 22.2358 53.8107 -1.2 -8.78201 -3.00825e+06 -1.25446e+06 -4.58257e+06 930241 -719533 342413
141 1 Mg -2.83623 30.7708 57.2941 1.2 -7.25931 -1.32154e+06 -905026 3.82993e+06 -1.15086e+06 -1.72198e+06 -450933
142 1 Mg -1.38776 30.6357 49.8391 1.2 -8.36656 617873 2.32836e+06 1.96726e+06 -226364 192297 480659
143 2 Si -0.907929 28.1491 47.9262 2.4 -34.4793 8.75891e+06 6.77805e+06 1.00111e+07 485290 2.33181e+06 -1.02995e+06
144 3 O -0.829229 29.7184 47.99 -1.2 -8.71516 -2.53487e+06 -4.32498e+06 -2.98512e+06 464494 -1.92306e+06 125639
145 3 O -1.45946 27.0152 51.769 -1.2 -8.92341 -2.57049e+06 -2.45578e+06 -4.22139e+06 394585 -330969 -627834
146 3 O -2.07744 27.5697 48.8273 -1.2 -8.70554 -1.24807e+06 -3.47757e+06 -3.65214e+06 16114.5 -393135 -913676
147 1 Mg 0.137907 26.087 46.819 1.2 -7.10953 2.21734e+06 -522660 1.21215e+06 1.12417e+06 1.5875e+06 -1.04547e+06
148 3 O 0.55579 27.5065 48.3893 -1.2 -8.60047 -1.80528e+06 -1.51896e+06 -2.38693e+06 -295641 -305701 1.11481e+06
149 1 Mg 1.54456 26.0576 54.5585 1.2 -8.42084 1.74532e+06 1.60127e+06 1.07985e+06 -238836 423680 32103.3
150 2 Si 1.76543 28.6002 56.4064 2.4 -31.9267 6.46919e+06 6.38362e+06 1.07648e+07 -593052 -59227.2 1.54201e+06
151 3 O 1.63939 27.0116 56.5081 -1.2 -10.1463 -4.29955e+06 -3.16358e+06 -4.41908e+06 576665 821070 -159371
152 3 O 1.6432 29.7522 52.7291 -1.2 -9.59092 -2.42299e+06 -2.42596e+06 -4.50997e+06 -172175 -96654.1 -698037
153 3 O 0.48756 29.2579 55.6222 -1.2 -9.45643 -1.17043e+06 -2.01999e+06 -3.97591e+06 -1.36026e+06 -476636 -1.46904e+06
154 3 O 3.03237 29.2729 55.7722 -1.2 -9.59491 -2.86394e+06 -2.94621e+06 -4.50209e+06 1.36898e+06 385370 -1.22437e+06
155 1 Mg 0.0647462 28.3794 52.2059 1.2 -7.78707 -751046 -549847 4.18142e+06 -887880 2.04677e+06 341806
156 1 Mg 2.10696 28.1021 49.4531 1.2 -7.90427 2.3488e+06 601852 183178 123003 -171716 -129441
157 2 Si 1.57592 30.4257 51.2442 2.4 -32.6026 7.3945e+06 5.60536e+06 9.77096e+06 560315 550720 237719
158 3 O 1.68288 31.9926 51.3043 -1.2 -10.0794 -2.63472e+06 -2.32948e+06 -3.48023e+06 752006 -444514 192785
159 3 O 1.6606 29.4076 57.81 -1.2 -9.91459 -2.9701e+06 -1.2455e+06 -6.00384e+06 -242084 271672 1.07102e+06
160 3 O 0.258524 29.7935 50.6632 -1.2 -9.02322 -3.10911e+06 -2.71828e+06 -4.70541e+06 1.10014e+06 -566366 -17008.1
161 1 Mg -2.90462 28.3797 52.308 1.2 -7.48702 -53632 -900686 3.6481e+06 1.9312e+06 -1.84789e+06 976531
162 3 O 2.81205 29.7787 50.4664 -1.2 -9.45558 -2.83835e+06 -2.52714e+06 -2.13577e+06 -355954 815764 -281224
163 1 Mg -1.24742 28.3838 55.1331 1.2 -7.92315 1.34881e+06 1.4385e+06 671923 -112097 -330641 -943689
164 2 Si -1.52914 26.3489 53.2946 2.4 -33.0346 8.09965e+06 4.88228e+06 1.14113e+07 638184 -250473 -1.00262e+06
165 3 O -1.59753 24.7909 53.2078 -1.2 -9.55649 -4.29686e+06 -1.87768e+06 -4.24978e+06 -353777 259951 1.01079e+06
166 3 O -0.943026 27.648 46.4208 -1.2 -7.65136 -3.0039e+06 -2.05026e+06 -3.06059e+06 -604358 -1.50604e+06 1.21609e+06
167 3 O -2.78126 27.0599 53.9094 -1.2 -9.4177 -2.47121e+06 -3.641e+06 -4.48472e+06 -502781 671939 69958.6
168 3 O -0.184605 26.9701 53.9214 -1.2 -9.23946 -1.30242e+06 -3.61248e+06 -3.92887e+06 1.01716e+06 -750677 341441
169 1 Mg -2.76115 35.4245 57.4843 1.2 -7.8537 -787531 -784732 3.34031e+06 -691064 -1.45469e+06 -579621
170 1 Mg -1.28421 35.3899 49.8376 1.2 -8.17402 327099 2.1324e+06 2.1457e+06 -165045 163321 637271
171 2 Si -0.807101 32.9036 47.9247 2.4 -34.0956 8.17801e+06 7.1213e+06 9.63587e+06 485919 2.2997e+06 -500027
172 3 O -0.727174 34.4729 47.9885 -1.2 -8.88714 -2.274e+06 -4.38835e+06 -2.91656e+06 460708 -1.91392e+06 -126132
173 3 O -1.35735 31.7701 51.768 -1.2 -9.51458 -1.65213e+06 -2.73841e+06 -3.77414e+06 359258 385193 -1.17707e+06
174 3 O -1.97695 32.3253 48.826 -1.2 -8.93037 -855992 -3.68611e+06 -3.48194e+06 19737.7 -343645 -1.23378e+06
175 1 Mg 0.237665 30.8412 46.8168 1.2 -6.94792 1.96587e+06 -238930 924572 1.12442e+06 1.58883e+06 -936612
176 3 O 0.656562 32.2608 48.3877 -1.2 -8.81473 -1.48545e+06 -1.73562e+06 -2.14358e+06 -296203 -328212 838387
177 1 Mg 1.67141 30.7677 54.5577 1.2 -7.83452 1.43143e+06 2.28927e+06 459434 37635.7 -58427.3 751921
178 2 Si 1.74691 33.3887 56.2629 2.4 -32.7179 8.64978e+06 6.13928e+06 1.10347e+07 1.00809e+06 641354 265455
179 3 O 1.77667 31.8341 56.3716 -1.2 -10.1623 -3.18023e+06 -2.70508e+06 -4.87171e+06 841673 -273868 -688197
180 3 O 1.74574 34.5067 52.7279 -1.2 -9.64597 -3.01374e+06 -1.96778e+06 -5.325e+06 -713449 -506505 -1.25662e+06
181 3 O 0.497354 34.0603 55.5354 -1.2 -9.15435 -1.7124e+06 -2.70277e+06 -3.55746e+06 -1.13078e+06 -534995 -971611
182 3 O 3.061 34.2483 55.8158 -1.2 -8.99923 -1.96328e+06 -2.06607e+06 -5.16211e+06 1.29101e+06 992266 -226990
183 1 Mg 0.167046 33.1343 52.2045 1.2 -7.35901 -566520 -1.0556e+06 4.6729e+06 -1.57704e+06 1.89459e+06 1.49146e+06
184 1 Mg 2.20727 32.8578 49.4516 1.2 -7.67123 1.91758e+06 709016 144009 119394 -115085 252961
185 2 Si 1.67943 35.1802 51.2429 2.4 -32.252 7.04873e+06 4.74905e+06 1.0432e+07 324076 911224 443352
186 3 O 1.78736 36.747 51.303 -1.2 -10.2692 -2.37722e+06 -2.20222e+06 -3.60177e+06 887444 -812884 396860
187 3 O 1.69866 34.0178 57.8198 -1.2 -9.34044 -2.90992e+06 -2.08638e+06 -3.62779e+06 -558527 1.4032e+06 2.29192e+06
188 3 O 0.362533 34.5479 50.661 -1.2 -9.28407 -2.81044e+06 -2.39897e+06 -4.61848e+06 1.19557e+06 -701283 -448179
189 1 Mg -2.80215 33.1347 52.3062 1.2 -7.34206 -1.14622e+06 -535965 3.99935e+06 1.78596e+06 -1.81511e+06 1.28174e+06
190 3 O 2.91593 34.533 50.466 -1.2 -9.62959 -2.43799e+06 -2.27982e+06 -2.65916e+06 -327910 703454 -528299
191 1 Mg -1.27078 33.1415 55.0712 1.2 -8.1052 1.78753e+06 1.58998e+06 731567 -233230 -156444 -876924
192 2 Si -1.2643 31.1135 53.2736 2.4 -31.8409 7.01453e+06 7.21353e+06 1.14728e+07 -204750 164665 951681
193 3 O -1.28179 29.5289 53.1717 -1.2 -9.92567 -2.74596e+06 -607245 -4.16973e+06 908073 473869 822201
194 3 O -0.842495 32.4028 46.4192 -1.2 -7.804 -2.76166e+06 -2.27499e+06 -2.83454e+06 -604723 -1.50273e+06 1.04336e+06
195 3 O -2.58061 31.8048 53.9822 -1.2 -9.73886 -78886.4 -2.1544e+06 -3.65165e+06 -1.23262e+06 521.783 46249
196 3 O 0.0186799 31.866 53.9138 -1.2 -9.75902 -1.00205e+06 -3.34068e+06 -3.49022e+06 870530 -301839 -1.0417e+06
197 1 Mg -2.69416 40.2346 57.3961 1.2 -7.24619 -1.68454e+06 -651786 3.84237e+06 -384343 -1.92335e+06 -534327
198 1 Mg -1.17787 40.1435 49.8359 1.2 -8.09346 264581 2.23243e+06 1.96854e+06 -180630 270579 1.11398e+06
199 2 Si -0.702692 37.6572 47.9231 2.4 -33.8513 7.79358e+06 7.23999e+06 9.50742e+06 498055 2.32361e+06 -116381
200 3 O -0.621782 39.2264 47.9868 -1.2 -8.97127 -2.13906e+06 -4.43884e+06 -2.87805e+06 461097 -1.93409e+06 -405275
201 3 O -1.25221 36.5242 51.7666 -1.2 -9.58572 -1.47332e+06 -3.09687e+06 -6.16697e+06 -11753.9 345720 -387044
202 3 O -1.87295 37.0796 48.8243 -1.2 -9.08442 -632298 -3.71104e+06 -3.42899e+06 13610.3 -348355 -1.35288e+06
203 1 Mg 0.341084 35.5943 46.8152 1.2 -6.81354 1.75417e+06 -153796 837740 1.1235e+06 1.59072e+06 -719834
204 3 O 0.760681 37.0138 48.3864 -1.2 -8.95434 -1.24496e+06 -1.7751e+06 -2.11688e+06 -293721 -328205 672540
205 1 Mg 1.71348 35.558 54.4741 1.2 -8.0003 2.38251e+06 795913 910089 -307462 163182 674356
206 2 Si 1.8286 38.1718 56.3663 2.4 -31.6347 7.31894e+06 7.96619e+06 9.9078e+06 -302233 -199312 756806
207 3 O 1.78077 36.6184 56.5528 -1.2 -10.0005 -2.8241e+06 -1.49262e+06 -2.5384e+06 1.01023e+06 -183777 -1.54564e+06
208 3 O 1.85132 39.2606 52.7264 -1.2 -9.92209 -1.7452e+06 -2.82731e+06 -4.52695e+06 128904 -400162 -1.30067e+06
209 3 O 0.561186 38.955 55.7011 -1.2 -9.7754 -1.06269e+06 -2.92194e+06 -4.91684e+06 -1.59779e+06 -747384 -783968
210 3 O 3.12986 38.8864 55.7317 -1.2 -9.83013 -1.47264e+06 -3.6104e+06 -3.313e+06 1.80222e+06 352199 -542014
211 1 Mg 0.272384 37.8883 52.2029 1.2 -7.18566 -1.26068e+06 -832185 4.75333e+06 -977319 1.51782e+06 857343
212 1 Mg 2.31122 37.6122 49.4501 1.2 -7.514 1.66169e+06 776336 90268.4 87686.8 -152972 325464
213 2 Si 1.78573 39.934 51.2414 2.4 -32.0696 6.15926e+06 5.38491e+06 1.03464e+07 309632 387219 1.26757e+06
214 3 O 1.89428 41.5006 51.3014 -1.2 -10.1622 -2.52145e+06 -1.94981e+06 -3.86542e+06 631602 -584669 -27168.4
215 3 O 1.73675 38.9307 57.8757 -1.2 -9.72369 -2.27593e+06 -2.25384e+06 -3.74008e+06 -37505.9 -105570 1.58838e+06
216 3 O 0.469216 39.3015 50.6588 -1.2 -9.4148 -2.28341e+06 -2.80414e+06 -4.45946e+06 1.18241e+06 -899033 -695117
217 1 Mg -2.69668 37.8889 52.3043 1.2 -7.02341 -1.34709e+06 -893577 3.93272e+06 1.61805e+06 -1.65644e+06 900571
218 3 O 3.0225 39.2866 50.4651 -1.2 -9.82581 -2.18969e+06 -2.58725e+06 -2.09865e+06 -309905 1.0052e+06 -719219
219 1 Mg -1.22401 37.9391 55.1621 1.2 -7.90597 507525 2.41049e+06 548829 579575 140827 -835569
220 2 Si -1.27225 35.8869 53.2272 2.4 -32.6894 5.48988e+06 4.56415e+06 1.16396e+07 757020 -204307 366548
221 3 O -1.36128 34.3526 53.1737 -1.2 -9.71498 -2.97746e+06 -2.56834e+06 -5.01554e+06 985698 151160 192634
222 3 O -0.738054 37.1566 46.4176 -1.2 -7.9108 -2.59167e+06 -2.3479e+06 -2.76436e+06 -606872 -1.50448e+06 821110
223 3 O -2.61576 36.4807 53.8798 -1.2 -9.29725 -2.19475e+06 -4.38569e+06 -4.09212e+06 -924091 149254 136475
224 3 O -0.0648782 36.6142 53.9794 -1.2 -9.56153 -1.51881e+06 -3.76148e+06 -3.04771e+06 837792 -687854 705593
225 1 Mg -2.63273 44.9898 57.3898 1.2 -7.56885 -532492 -1.46945e+06 4.0847e+06 -1.10415e+06 -1.48779e+06 -50329.4
226 1 Mg -1.06993 44.8968 49.8343 1.2 -8.1878 363247 1.90288e+06 2.35855e+06 -141960 262681 867774
227 2 Si -0.596166 42.4103 47.9215 2.4 -33.8831 7.82896e+06 6.77445e+06 9.99394e+06 484083 2.3201e+06 348468
228 3 O -0.51472 43.9796 47.9853 -1.2 -8.93438 -2.19024e+06 -4.16509e+06 -3.15502e+06 459660 -1.92689e+06 -465887
229 3 O -1.14475 41.2777 51.7649 -1.2 -9.506 -1.72257e+06 -826948 -4.28583e+06 759412 -363630 -1.85348e+06
230 3 O -1.76671 41.8331 48.8226 -1.2 -9.06175 -669010 -3.47961e+06 -3.67125e+06 17464.8 -366946 -1.69333e+06
231 1 Mg 0.447076 40.3473 46.8135 1.2 -6.76656 1.6734e+06 -205046 894289 1.12271e+06 1.59196e+06 -441157
232 3 O 0.866985 41.7666 48.385 -1.2 -8.94564 -1.24923e+06 -1.57475e+06 -2.33076e+06 -289672 -316523 384540
233 1 Mg 1.75504 40.2039 54.5682 1.2 -7.81318 1.96394e+06 1.84309e+06 9697.22 468347 218642 1.3439e+06
234 2 Si 1.93781 42.9104 56.4223 2.4 -32.8365 6.98352e+06 4.24953e+06 1.12092e+07 -671987 -1.39826e+06 88744.9
235 3 O 1.91896 41.3855 56.4627 -1.2 -10.0551 -3.0249e+06 -4.14939e+06 -4.46037e+06 237280 892044 32763.1
236 3 O 1.95891 44.014 52.7248 -1.2 -9.60281 -2.56244e+06 -1.51554e+06 -5.32387e+06 599114 -348326 -877084
237 3 O 0.722476 43.6339 55.6536 -1.2 -9.15922 -3.73214e+06 -2.20976e+06 -3.37934e+06 -873765 144241 -568632
238 3 O 3.18616 43.6437 55.6729 -1.2 -8.90612 -3.26126e+06 -3.04166e+06 -3.46246e+06 1.3431e+06 -469304 -1.2117e+06
239 1 Mg 0.379928 42.6418 52.2013 1.2 -7.36706 -371972 -383493 4.60651e+06 -1.18758e+06 1.82962e+06 1.196e+06
240 1 Mg 2.41752 42.366 49.4484 1.2 -7.57338 1.79191e+06 444106 393387 123210 -144324 620330
241 2 Si 1.89374 44.6874 51.2398 2.4 -32.3498 7.02563e+06 4.4359e+06 1.08895e+07 29517 307912 771683
242 3 O 2.00266 46.254 51.2996 -1.2 -10.1636 -2.5341e+06 -1.95508e+06 -3.81685e+06 753409 -350445 114367
243 3 O 1.96089 43.5994 57.8681 -1.2 -9.53725 -2.77897e+06 -2.37372e+06 -6.22283e+06 -597242 1.06357e+06 1.17712e+06
244 3 O 0.577464 44.0549 50.6567 -1.2 -9.24926 -2.68927e+06 -2.24601e+06 -4.9418e+06 1.20031e+06 -729137 -732243
245 1 Mg -2.58906 42.6425 52.3022 1.2 -7.38428 -950620 -1.19799e+06 4.44736e+06 1.78242e+06 -1.97371e+06 1.22411e+06
246 3 O 3.13067 44.0398 50.464 -1.2 -9.65009 -2.5376e+06 -2.01658e+06 -2.77114e+06 -295093 777683 -652907
247 1 Mg -0.956665 42.7264 54.9446 1.2 -8.08834 2.83627e+06 1.23571e+06 572060 64241.7 -438975 -762121
248 2 Si -1.18501 40.5339 53.2805 2.4 -31.9524 6.48983e+06 6.12163e+06 1.20375e+07 -1.12548e+06 -1.28669e+06 -354336
249 3 O -1.18117 38.9639 53.2702 -1.2 -10.2141 -2.6212e+06 -2.44343e+06 -3.86823e+06 248238 -178518 283360
250 3 O -0.631421 41.9099 46.4159 -1.2 -7.92748 -2.56386e+06 -2.20776e+06 -2.90522e+06 -604761 -1.50564e+06 594453
251 3 O -2.47355 41.3113 53.9404 -1.2 -9.30909 -462657 -2.34666e+06 -3.79678e+06 -627789 -81278.7 -224326
252 3 O 0.076931 41.2179 53.9156 -1.2 -9.71029 -2.66002e+06 -2.85994e+06 -4.23313e+06 631404 -686717 -323053
253 1 Mg -2.68799 49.9259 57.1675 1.2 -7.27833 -952336 -1.3918e+06 3.44866e+06 -576084 -2.12908e+06 -197122
254 1 Mg -0.961069 49.6502 49.8327 1.2 -8.15695 326389 2.04179e+06 2.2118e+06 -198490 293939 849190
255 2 Si -0.488083 47.1636 47.9198 2.4 -33.9086 7.85699e+06 6.64721e+06 1.01354e+07 487846 2.3414e+06 228506
256 3 O -0.40607 48.7329 47.9837 -1.2 -8.93157 -2.18848e+06 -4.17021e+06 -3.14468e+06 464986 -1.9364e+06 -446603
257 3 O -1.0361 46.031 51.7632 -1.2 -9.45536 -1.80397e+06 -3.48325e+06 -7.26997e+06 227070 -101426 -500617
258 3 O -1.65866 46.5866 48.821 -1.2 -9.04717 -710661 -3.39989e+06 -3.71107e+06 12460.9 -382694 -1.57556e+06
259 1 Mg 0.554124 45.1001 46.8117 1.2 -6.78248 1.69868e+06 -378200 1.06844e+06 1.12297e+06 1.58965e+06 -413484
260 3 O 0.974961 46.5195 48.3832 -1.2 -8.92502 -1.26621e+06 -1.47171e+06 -2.43307e+06 -288150 -308439 470547
261 1 Mg 2.14289 45.0512 54.5184 1.2 -8.14465 2.00459e+06 1.92669e+06 647125 -648492 758390 1.06618e+06
262 2 Si 1.80747 47.7202 56.3794 2.4 -32.4697 7.74416e+06 6.12159e+06 1.08167e+07 -364523 -453185 804635
263 3 O 1.98557 46.1278 56.4454 -1.2 -9.80317 -3.34303e+06 -677612 -3.58307e+06 -394442 -56372.8 -858419
264 3 O 2.0677 48.7672 52.7232 -1.2 -9.71088 -2.80671e+06 -2.13115e+06 -5.17539e+06 -149876 -777776 -1.23007e+06
265 3 O 0.492379 48.3752 55.7941 -1.2 -9.39767 -3.13874e+06 -2.55391e+06 -5.48611e+06 -1.19974e+06 -640380 -1.11574e+06
266 3 O 3.04545 48.5056 55.7048 -1.2 -9.42125 -1.54623e+06 -3.02542e+06 -4.54366e+06 567209 931086 -319989
267 1 Mg 0.488584 47.395 52.1996 1.2 -7.52692 -1.44789e+06 -1.27365e+06 4.83464e+06 -1.11833e+06 1.83721e+06 804721
268 1 Mg 2.52544 47.1195 49.4466 1.2 -7.57848 1.83389e+06 411733 398069 114320 -191085 497550
269 2 Si 2.00256 49.4407 51.2382 2.4 -32.218 6.85924e+06 4.74701e+06 1.05859e+07 419274 355431 646492
270 3 O 2.11156 51.0073 51.2982 -1.2 -10.2219 -2.47291e+06 -2.10006e+06 -3.6179e+06 653959 -504447 112633
271 3 O 1.86734 48.438 57.841 -1.2 -9.4368 -3.73419e+06 -1.50058e+06 -5.4579e+06 280889 827456 819803
272 3 O 0.686344 48.8082 50.655 -1.2 -9.23999 -2.62584e+06 -2.34304e+06 -5.26799e+06 1.09651e+06 -500489 -433977
273 1 Mg -2.48039 47.3957 52.3005 1.2 -7.17869 -685940 -1.86895e+06 3.93293e+06 1.9761e+06 -1.83916e+06 1.53256e+06
274 3 O 3.23944 48.7932 50.4623 -1.2 -9.71845 -2.51938e+06 -2.10328e+06 -2.52844e+06 -277171 843118 -597253