ITEM: TIMESTEP
51900
ITEM: NUMBER OF ATOMS
10500
ITEM: BOX BOUNDS xy xz yz pp pp pp
0.0000000000000000e+00 8.9687999999999999e+00 2.9895999999999998e+00
0.0000000000000000e+00 1.1872499999999999e+02 0.0000000000000000e+00
0.0000000000000000e+00 2.5297749999999999e+02 0.0000000000000000e+00
ITEM: ATOMS id type element xu yu zu q c_pe c_s[1] c_s[2] c_s[3] c_s[4] c_s[5] c_s[6]
1 1 Mg -3.43473 6.79233 57.1758 1.2 -7.52475 872448 -922539 3.4356e+06 -916866 -1.32792e+06 -358794
2 1 Mg -1.82655 6.90154 50.0912 1.2 -8.6656 950313 2.17793e+06 -31559.3 -76136.7 -163137 1.4643e+06
3 2 Si -0.257935 3.96038 48.0876 2.4 -37.1423 1.17959e+07 1.0599e+07 8.96865e+06 801703 2.01721e+06 1.89751e+06
4 3 O -0.335812 5.46814 47.6264 -1.2 -7.27636 -3.9042e+06 -3.41718e+06 -1.57253e+06 143983 -984107 -650142
5 3 O -2.03793 3.43377 51.8941 -1.2 -8.18977 -4.85762e+06 -3.02918e+06 -6.0928e+06 -1.39796e+06 1.5118e+06 -1.49793e+06
6 3 O -1.54015 3.53929 48.9521 -1.2 -7.74637 -2.25338e+06 -2.51997e+06 -3.35961e+06 11777.4 -710667 -338378
7 1 Mg 1.82954 2.54582 47.1376 1.2 -8.53461 3.46095e+06 429109 -165181 1.14629e+06 834431 652769
8 3 O 1.22989 3.66364 48.7877 -1.2 -7.45395 -2.51143e+06 -3.28865e+06 -2.80812e+06 -465088 -746646 -1.05522e+06
9 1 Mg 1.09 2.14939 54.5463 1.2 -9.02565 3.90307e+06 963220 -178822 -75666.2 -89617.1 487803
10 2 Si 1.04853 4.82743 56.4268 2.4 -33.3033 5.61685e+06 7.59943e+06 1.1605e+07 -3.47477e+06 -658471 1.20414e+06
11 3 O 0.848928 3.27935 56.5737 -1.2 -9.33033 -4.66707e+06 -2.03519e+06 -4.3459e+06 -222571 798609 672254
12 3 O 1.10813 6.07342 52.8172 -1.2 -8.40296 -3.99784e+06 -5.21058e+06 -3.9559e+06 -317927 -695083 -1.37625e+06
13 3 O -0.188405 5.64119 55.6855 -1.2 -8.4067 -3.67387e+06 -2.47084e+06 -4.38966e+06 -795369 -341622 -2.04472e+06
14 3 O 2.23514 5.41734 55.7044 -1.2 -9.08979 -5.77622e+06 -4.05131e+06 -2.77053e+06 895323 859652 -1.09532e+06
15 1 Mg -0.459401 4.67631 52.2426 1.2 -8.67333 805584 -705017 4.05872e+06 -1.39167e+06 1.60936e+06 933298
16 1 Mg 2.79456 3.9971 49.9987 1.2 -8.96938 4.46631e+06 756576 908109 -499833 739448 -858845
17 2 Si 1.16169 6.59457 51.2556 2.4 -34.6608 8.3777e+06 8.69459e+06 9.89882e+06 40524.8 598496 2.85738e+06
18 3 O 1.28989 8.18905 51.2909 -1.2 -8.97235 -3.70798e+06 -2.64259e+06 -3.31398e+06 298616 -1.13872e+06 738666
19 3 O 0.898422 5.67823 57.9078 -1.2 -9.10993 -3.90377e+06 -2.9111e+06 -5.00685e+06 977389 -1.32101e+06 2.47326e+06
20 3 O -0.184847 6.06029 50.6845 -1.2 -8.22858 -3.6767e+06 -4.1818e+06 -4.06261e+06 1.45443e+06 -528830 -1.43386e+06
21 1 Mg -3.49704 4.67769 52.6661 1.2 -8.47434 548471 -805794 2.1154e+06 1.88632e+06 -1.54181e+06 678595
22 3 O 2.48581 5.93312 50.6539 -1.2 -8.77091 -3.83521e+06 -2.5489e+06 -2.20147e+06 -1.50897e+06 -410967 -747214
23 1 Mg -1.80325 4.62039 55.1673 1.2 -8.53356 3.35377e+06 2.35997e+06 -734870 424297 -544410 -1.08731e+06
24 2 Si -1.88936 2.62106 53.2603 2.4 -34.8686 1.18985e+07 3.8765e+06 1.0694e+07 1.5208e+06 273067 -1.44207e+06
25 3 O -2.06017 1.09048 53.1904 -1.2 -8.87208 -4.5966e+06 -3.63683e+06 -4.71004e+06 1.34418e+06 -231968 84393.6
26 3 O -0.0467762 2.97103 46.8385 -1.2 -6.47709 -3.82529e+06 -3.07567e+06 -1.94388e+06 -989400 -2.01373e+06 -748084
27 3 O -3.18142 3.17129 54.0406 -1.2 -7.96318 -2.65281e+06 -5.57974e+06 -5.94309e+06 28513.1 375224 304923
28 3 O -0.529871 3.25946 53.9012 -1.2 -8.34482 -3.26364e+06 -2.64984e+06 -3.32292e+06 844093 642809 738517
29 1 Mg -3.38164 11.6225 57.2945 1.2 -8.06493 -579810 -1.85181e+06 2.22474e+06 -920474 -1.91701e+06 -995891
30 1 Mg -1.75014 11.5838 49.8362 1.2 -8.88385 1.5683e+06 3.19979e+06 1.17044e+06 -336124 278895 1.11658e+06
31 2 Si -1.18003 9.02138 47.9309 2.4 -35.4067 1.00184e+07 9.3018e+06 7.61623e+06 224795 2.63364e+06 721746
32 3 O -1.23224 10.5991 47.9811 -1.2 -8.22488 -3.29222e+06 -4.64685e+06 -1.71529e+06 657527 -1.92655e+06 -215756
33 3 O -1.79016 8.01447 51.8693 -1.2 -8.4921 -5.03015e+06 -3.82506e+06 -6.65369e+06 112353 -422780 -2.11447e+06
34 3 O -2.30986 8.37215 48.8528 -1.2 -8.48153 -1.84881e+06 -3.62826e+06 -2.21014e+06 -338842 -610378 -1.02152e+06
35 1 Mg 0.154883 7.08234 46.8007 1.2 -8.03075 2.70028e+06 847090 -197799 942087 1.73013e+06 -850493
36 3 O 0.325447 8.50934 48.3809 -1.2 -8.11991 -2.20195e+06 -3.05124e+06 -1.66566e+06 -28920.7 -834575 202729
37 1 Mg 0.966888 7.11355 54.5888 1.2 -8.86469 2.24011e+06 2.39091e+06 141089 358083 -888991 558660
38 2 Si 1.05837 9.71788 56.446 2.4 -32.5357 8.54484e+06 8.08138e+06 9.77704e+06 689495 -179753 1.59672e+06
39 3 O 1.09266 8.11996 56.4466 -1.2 -9.43701 -4.24491e+06 -244350 -3.47304e+06 -777120 -89844.6 -752803
40 3 O 1.28624 10.7248 52.7351 -1.2 -9.02559 -3.44089e+06 -3.38515e+06 -2.91672e+06 38333.1 -461631 -1.22264e+06
41 3 O -0.243301 10.3784 55.8548 -1.2 -9.20663 -1.85032e+06 -5.41756e+06 -4.81671e+06 -552011 -740980 -1.6314e+06
42 3 O 2.4001 10.4632 55.7975 -1.2 -9.34682 -1.02582e+06 -4.50944e+06 -4.03959e+06 1.21439e+06 -357544 -2.7951e+06
43 1 Mg -0.262694 9.34741 52.2523 1.2 -8.37473 411635 259510 3.38329e+06 -1.49762e+06 1.39903e+06 1.1926e+06
44 1 Mg 1.87648 9.01537 49.4629 1.2 -8.36732 2.77022e+06 1.60418e+06 -748760 264868 -296344 456708
45 2 Si 1.21415 11.3799 51.2378 2.4 -33.7841 9.06199e+06 7.65785e+06 8.33621e+06 502996 544039 1.38914e+06
46 3 O 1.31634 12.9512 51.3023 -1.2 -9.39728 -3.73372e+06 -2.81316e+06 -2.7527e+06 568634 -882213 -29394.4
47 3 O 1.08034 10.4081 57.9491 -1.2 -9.32021 -4.57764e+06 -4.07801e+06 -4.47504e+06 -431646 348771 1.70385e+06
48 3 O -0.115718 10.7564 50.681 -1.2 -8.48976 -3.69284e+06 -3.60878e+06 -3.57141e+06 1.15034e+06 -520388 -760007
49 1 Mg -3.26386 9.35564 52.3622 1.2 -8.07387 471191 -847513 1.559e+06 2.00248e+06 -1.94635e+06 1.60701e+06
50 3 O 2.45216 10.7265 50.4558 -1.2 -8.98163 -3.52493e+06 -3.09166e+06 -1.126e+06 -759696 545043 -284656
51 1 Mg -1.89398 9.55403 55.0522 1.2 -8.41303 2.11367e+06 2.22521e+06 376183 -36282.2 -352084 -191648
52 2 Si -1.91421 7.35611 53.3159 2.4 -34.0036 1.03778e+07 7.76146e+06 7.8298e+06 1.06316e+06 -229440 610263
53 3 O -1.93096 5.76413 53.3371 -1.2 -9.06597 -5.06935e+06 -2.19699e+06 -3.28221e+06 295917 -313210 -511340
54 3 O -1.19417 8.46968 46.4488 -1.2 -7.12848 -3.54578e+06 -3.01888e+06 -1.96725e+06 -541068 -1.74592e+06 643216
55 3 O -3.26909 8.0208 53.8239 -1.2 -8.69117 -3.60817e+06 -3.93711e+06 -4.43604e+06 -1.38507e+06 448272 -184309
56 3 O -0.654117 8.14708 53.9521 -1.2 -8.57662 -2.47492e+06 -4.11993e+06 -5.62238e+06 1.83137e+06 -1.68008e+06 488232
57 1 Mg -3.13429 16.5889 57.2237 1.2 -8.40946 -252132 -1.71138e+06 4.73541e+06 -1.60833e+06 -1.55447e+06 -811896
58 1 Mg -1.6714 16.3544 49.8412 1.2 -9.00074 1.74837e+06 2.76493e+06 1.49711e+06 -187506 315191 1.07942e+06
59 2 Si -1.18567 13.8526 47.9314 2.4 -35.3595 1.02097e+07 8.04027e+06 8.63814e+06 505714 2.25682e+06 563050
60 3 O -1.09664 15.4205 47.9915 -1.2 -8.19561 -3.29883e+06 -4.65082e+06 -2.4292e+06 417396 -1.94313e+06 -603121
61 3 O -1.73493 12.7491 51.7772 -1.2 -8.83931 -2.9492e+06 -4.32327e+06 -4.85822e+06 536644 951018 -1.59792e+06
62 3 O -2.36115 13.2717 48.8238 -1.2 -8.3058 -1.94661e+06 -4.07126e+06 -2.84282e+06 -112923 -367598 -1.73271e+06
63 1 Mg -0.159928 11.7639 46.8533 1.2 -7.49385 2.86911e+06 420531 228116 1.12677e+06 1.57326e+06 -554773
64 3 O 0.2623 13.1866 48.413 -1.2 -8.20997 -2.44554e+06 -2.12582e+06 -1.64453e+06 -195443 -289455 344331
65 1 Mg 1.29469 11.8824 54.5676 1.2 -8.32722 2.65469e+06 2.11052e+06 337872 128138 183807 1.72032e+06
66 2 Si 1.27188 14.49 56.3748 2.4 -33.4992 8.60437e+06 6.40663e+06 9.14539e+06 -55785.2 1.15993e+06 86718.5
67 3 O 1.21129 12.8542 56.5466 -1.2 -9.34666 -5.22056e+06 -615221 -3.74311e+06 -231861 -293500 -170805
68 3 O 1.36565 15.4813 52.729 -1.2 -8.75452 -4.2312e+06 -3.19348e+06 -4.50927e+06 454941 -516444 -1.63629e+06
69 3 O 0.00236415 15.1594 55.652 -1.2 -8.98529 -3.99505e+06 -3.33625e+06 -4.11994e+06 -695569 -178249 -674899
70 3 O 2.51967 15.0531 55.6344 -1.2 -8.55752 -4.60412e+06 -4.42629e+06 -5.68333e+06 1.65369e+06 364366 -428404
71 1 Mg -0.206989 14.1049 52.2121 1.2 -8.18053 -79873.7 -526934 3.62509e+06 -822239 2.10666e+06 1.11868e+06
72 1 Mg 1.82591 13.8102 49.4556 1.2 -8.35824 3.0668e+06 1.36593e+06 -490209 123556 -107443 816187
73 2 Si 1.29285 16.1518 51.2434 2.4 -34.1356 9.62862e+06 6.33226e+06 9.4222e+06 157380 116789 1.61314e+06
74 3 O 1.39496 17.7199 51.3047 -1.2 -9.14686 -4.06877e+06 -2.45193e+06 -3.35624e+06 629054 -381536 -1011.99
75 3 O 1.3664 15.2332 57.7414 -1.2 -8.94867 -4.97e+06 -2.14944e+06 -7.78051e+06 890625 746728 -762049
76 3 O -0.0269106 15.5178 50.6688 -1.2 -8.33294 -4.19188e+06 -3.02598e+06 -4.77152e+06 892873 -277766 -764990
77 1 Mg -3.18391 14.1057 52.3125 1.2 -8.12789 102473 -1.16258e+06 2.84359e+06 1.65341e+06 -2.0002e+06 1.66099e+06
78 3 O 2.52432 15.503 50.4579 -1.2 -8.84812 -3.9148e+06 -2.7921e+06 -1.73113e+06 -186844 743413 -699746
79 1 Mg -1.68588 14.23 55.1541 1.2 -8.69094 1.86784e+06 2.15371e+06 185100 154797 -522784 -403551
80 2 Si -1.73393 12.0937 53.2144 2.4 -33.4618 8.29005e+06 8.72266e+06 1.00338e+07 -792759 640301 2.32627e+06
81 3 O -1.77154 10.4728 53.1817 -1.2 -9.28467 -3.82032e+06 -2.61085e+06 -3.54255e+06 657952 -615968 -211179
82 3 O -1.21337 13.3381 46.4311 -1.2 -7.20685 -3.78177e+06 -2.70863e+06 -2.33234e+06 -631764 -1.45374e+06 580001
83 3 O -3.04162 12.84 53.8559 -1.2 -8.77505 -2.73287e+06 -3.33028e+06 -4.83962e+06 -885769 172811 -223988
84 3 O -0.470048 12.7089 54.0286 -1.2 -8.9032 -1.9797e+06 -3.31371e+06 -2.13461e+06 989899 306600 112952
85 1 Mg -2.98499 21.259 57.3795 1.2 -8.18724 49438.6 -1.56853e+06 3.52031e+06 -602544 -2.08684e+06 -683886
86 1 Mg -1.5831 21.1217 49.8405 1.2 -9.13339 1.9083e+06 2.39611e+06 1.86915e+06 -233185 213906 830399
87 2 Si -1.09384 18.6291 47.9287 2.4 -35.5562 1.05079e+07 7.42163e+06 9.33432e+06 482347 2.3531e+06 508310
88 3 O -1.02071 20.1985 47.9911 -1.2 -8.09952 -3.51552e+06 -4.42767e+06 -2.77263e+06 462667 -1.93645e+06 -438257
89 3 O -1.65002 17.5002 51.771 -1.2 -8.40894 -3.89945e+06 -4.11463e+06 -7.8099e+06 573214 -640452 -497701
90 3 O -2.26174 18.0434 48.8281 -1.2 -8.19953 -2.11801e+06 -3.76722e+06 -3.22431e+06 -18878.1 -380020 -1.74365e+06
91 1 Mg -0.0440435 16.5651 46.8269 1.2 -7.54361 2.881e+06 152864 547822 1.13496e+06 1.58111e+06 -300769
92 3 O 0.37001 17.9877 48.3925 -1.2 -8.09286 -2.59858e+06 -1.89928e+06 -2.00226e+06 -285271 -330544 283174
93 1 Mg 1.33522 16.4929 54.5062 1.2 -9.02578 3.72016e+06 1.7993e+06 -966988 -251830 479718 954264
94 2 Si 1.53358 19.2242 56.2067 2.4 -34.0694 8.1748e+06 3.63436e+06 1.12021e+07 116464 1.25899e+06 -919501
95 3 O 1.52119 17.7199 56.2 -1.2 -8.93358 -5.26693e+06 -3.6072e+06 -6.09535e+06 903758 440882 -486472
96 3 O 1.45147 20.239 52.7294 -1.2 -8.22906 -4.47665e+06 -2.01164e+06 -4.28866e+06 -139764 475914 -743991
97 3 O 0.2702 19.9373 55.3987 -1.2 -8.38267 -1.97433e+06 -3.00438e+06 -3.38798e+06 -57998.2 68011.7 -145651
98 3 O 2.78883 20.016 55.7509 -1.2 -8.62366 -5.5407e+06 -5.19484e+06 -4.90193e+06 18119.3 1.0986e+06 41886.8
99 1 Mg -0.126194 18.8651 52.2079 1.2 -8.69911 460562 -513304 4.09596e+06 -722433 2.02333e+06 742725
100 1 Mg 1.92402 18.5815 49.4545 1.2 -8.49665 3.24553e+06 870860 -47190.3 135893 -186961 696553
101 2 Si 1.38106 20.9117 51.2443 2.4 -34.5563 1.0351e+07 5.58603e+06 1.00728e+07 533622 384865 628853
102 3 O 1.48527 22.4795 51.3054 -1.2 -9.12829 -4.32213e+06 -2.50204e+06 -3.08616e+06 689424 -546672 374901
103 3 O 1.42563 19.8015 57.7114 -1.2 -8.90271 -4.43623e+06 -4.68779e+06 -6.06034e+06 508168 1.6954e+06 1.8194e+06
104 3 O 0.0615419 20.2804 50.6669 -1.2 -8.19116 -4.40542e+06 -2.69924e+06 -4.80664e+06 1.03399e+06 -550748 -435582
105 1 Mg -3.09665 18.8643 52.3122 1.2 -8.38215 1.31992e+06 -760001 3.13142e+06 1.56237e+06 -1.88091e+06 868435
106 3 O 2.61548 20.2646 50.4626 -1.2 -8.65549 -4.14025e+06 -2.46563e+06 -2.1566e+06 -346343 793122 -647045
107 1 Mg -1.60589 19.0337 55.0368 1.2 -8.87441 3.17763e+06 2.52627e+06 -343432 421326 -192742 -265981
108 2 Si -1.67456 16.7663 53.1232 2.4 -34.7114 9.72863e+06 5.76967e+06 9.54379e+06 -317159 -639165 2.03188e+06
109 3 O -1.61099 15.2174 52.9972 -1.2 -9.01765 -4.81152e+06 -4.2881e+06 -4.63197e+06 -543100 545310 -461286
110 3 O -1.12868 18.1227 46.4249 -1.2 -7.15574 -3.81653e+06 -2.48047e+06 -2.60094e+06 -603517 -1.50019e+06 512509
111 3 O -2.94797 17.4792 53.8935 -1.2 -8.20512 -5.15335e+06 -1.30007e+06 -4.13173e+06 -1.21063e+06 278056 847701
112 3 O -0.418273 17.4257 53.8607 -1.2 -7.98384 -4.167e+06 -4.04722e+06 -3.92878e+06 586915 -1.06153e+06 283564
113 1 Mg -2.71112 26.0598 57.2645 1.2 -8.24878 1.76021e+06 -955469 2.84504e+06 -1.78098e+06 -1.68257e+06 -1.31687e+06
114 1 Mg -1.48778 25.88 49.8402 1.2 -8.94072 1.68064e+06 2.58617e+06 1.57641e+06 -189756 196956 698426
115 2 Si -1.00491 23.3922 47.9274 2.4 -35.4969 1.04287e+07 7.44794e+06 9.29854e+06 493366 2.31587e+06 -107803
116 3 O -0.927602 24.9615 47.9909 -1.2 -8.18044 -3.4097e+06 -4.61552e+06 -2.64058e+06 455336 -1.92774e+06 -227314
117 3 O -1.55795 22.2588 51.7696 -1.2 -8.13298 -4.03927e+06 -2.97089e+06 -7.71255e+06 454085 483725 -889841
118 3 O -2.17411 22.8111 48.8277 -1.2 -8.19141 -2.07318e+06 -3.77413e+06 -3.32819e+06 5053.24 -348209 -1.40417e+06
119 1 Mg 0.0423997 21.3296 46.8225 1.2 -7.56644 2.94744e+06 -55550.8 739462 1.12657e+06 1.58942e+06 -502939
120 3 O 0.458537 22.7495 48.3911 -1.2 -8.09741 -2.6271e+06 -1.86146e+06 -2.02318e+06 -293862 -334782 612900
121 1 Mg 1.48045 21.5408 54.6622 1.2 -8.84558 3.68675e+06 1.56863e+06 -460797 659145 861359 1.12835e+06
122 2 Si 1.65072 23.9852 56.4319 2.4 -34.4567 1.02887e+07 5.38935e+06 9.90281e+06 -1.48363e+06 1.00014e+06 344040
123 3 O 1.61444 22.4266 56.499 -1.2 -9.16333 -5.98788e+06 -3.26829e+06 -4.5251e+06 775556 939188 -336325
124 3 O 1.54441 24.9963 52.7297 -1.2 -8.7169 -3.94274e+06 -3.10254e+06 -4.62456e+06 142984 -210409 -1.43001e+06
125 3 O 0.295182 24.593 55.6382 -1.2 -8.01297 -1.93021e+06 -2.29351e+06 -1.80519e+06 -851744 1.15375e+06 -913842
126 3 O 2.83654 24.5427 55.6615 -1.2 -8.52239 -5.84036e+06 -3.71031e+06 -4.0281e+06 410460 1.35311e+06 -103917
127 1 Mg -0.0335968 23.6229 52.2067 1.2 -8.39171 832907 -450042 3.93994e+06 -992995 1.62062e+06 1.08411e+06
128 1 Mg 2.01073 23.3445 49.4541 1.2 -8.46024 3.16829e+06 913311 -64566 110941 -124911 323179
129 2 Si 1.47594 25.6699 51.2449 2.4 -34.0513 9.24755e+06 6.23077e+06 9.68509e+06 275441 496690 956828
130 3 O 1.58172 27.2371 51.3054 -1.2 -9.26126 -3.75857e+06 -2.52642e+06 -3.86975e+06 713598 -300308 224922
131 3 O 1.70765 24.735 57.8683 -1.2 -8.57892 -4.3381e+06 -3.68874e+06 -3.85903e+06 -348606 141522 1.17439e+06
132 3 O 0.157925 25.0378 50.6651 -1.2 -8.43853 -4.03028e+06 -2.94289e+06 -4.31455e+06 1.02614e+06 -754466 -424350
133 1 Mg -3.00341 23.6231 52.3098 1.2 -8.34768 675115 -361806 3.25118e+06 1.46333e+06 -1.49364e+06 1.20453e+06
134 3 O 2.71149 25.0232 50.4656 -1.2 -8.83294 -3.72297e+06 -2.77328e+06 -2.00677e+06 -254792 845669 -498563
135 1 Mg -1.46047 23.5867 55.0029 1.2 -9.26993 3.42603e+06 1.94567e+06 -608036 574510 495556 -501561
136 2 Si -1.49758 21.5491 53.1929 2.4 -35.152 8.15232e+06 6.00753e+06 9.17789e+06 -1.06311e+06 370712 547155
137 3 O -1.5297 19.9768 53.094 -1.2 -8.73696 -5.30799e+06 -3.5293e+06 -4.10947e+06 659530 -281570 -101713
138 3 O -1.03938 22.8897 46.4223 -1.2 -7.17109 -3.78064e+06 -2.44441e+06 -2.64921e+06 -605959 -1.50153e+06 741982
139 3 O -2.71713 22.2724 53.8553 -1.2 -8.1324 -6.1664e+06 -3.8604e+06 -5.78468e+06 -908968 1.11904e+06 -425351
140 3 O -0.304951 22.2406 53.8618 -1.2 -8.20028 -6.7385e+06 -5.81433e+06 -4.32742e+06 1.31756e+06 -1.18895e+06 -470907
141 1 Mg -2.88305 30.8529 57.2375 1.2 -7.68347 9035.33 -314494 2.484e+06 -1.29796e+06 -1.69353e+06 391567
142 1 Mg -1.38776 30.6357 49.8391 1.2 -8.77526 1.36974e+06 2.82053e+06 1.37942e+06 -179735 125709 833665
143 2 Si -0.907929 28.1491 47.9262 2.4 -35.2355 1.00417e+07 7.85402e+06 8.86399e+06 482389 2.32823e+06 -146567
144 3 O -0.829229 29.7184 47.99 -1.2 -8.30932 -3.21521e+06 -4.83214e+06 -2.44459e+06 463867 -1.9227e+06 -286989
145 3 O -1.45946 27.0152 51.769 -1.2 -8.76228 -4.01052e+06 -2.98992e+06 -5.66465e+06 280191 -36016.9 -747881
146 3 O -2.07744 27.5697 48.8273 -1.2 -8.34689 -1.84641e+06 -4.00246e+06 -3.09412e+06 15743.2 -323335 -1.38511e+06
147 1 Mg 0.137907 26.087 46.819 1.2 -7.47857 2.81311e+06 99555.8 585357 1.12627e+06 1.59586e+06 -625671
148 3 O 0.55579 27.5065 48.3893 -1.2 -8.2338 -2.39488e+06 -2.06751e+06 -1.8305e+06 -295965 -353908 658008
149 1 Mg 1.59726 26.0313 54.4901 1.2 -9.04627 2.96922e+06 3.1246e+06 -66368.2 -113000 -257425 945246
150 2 Si 1.6635 28.7633 56.4818 2.4 -34.1661 9.48774e+06 6.31793e+06 9.4898e+06 422454 451331 126195
151 3 O 1.56109 27.2005 56.4819 -1.2 -8.70729 -4.29171e+06 -2.13132e+06 -4.08572e+06 399.484 -576221 291085
152 3 O 1.6432 29.7522 52.7291 -1.2 -8.91225 -2.90573e+06 -2.70506e+06 -3.73274e+06 187687 -190634 -160034
153 3 O 0.330492 29.4441 55.7892 -1.2 -8.56809 -2.36059e+06 -5.15173e+06 -2.44148e+06 -1.22854e+06 1.22961e+06 -667535
154 3 O 2.90632 29.4155 55.7118 -1.2 -8.76598 -3.25895e+06 -2.88549e+06 -3.67158e+06 458328 -105036 -880679
155 1 Mg 0.0647462 28.3794 52.2059 1.2 -8.17972 532750 -835329 3.60837e+06 -1.38401e+06 2.19972e+06 1.03553e+06
156 1 Mg 2.10696 28.1021 49.4531 1.2 -8.29318 2.84086e+06 1.08207e+06 -165068 131862 -166212 304679
157 2 Si 1.57592 30.4257 51.2442 2.4 -33.5559 8.50528e+06 6.78619e+06 9.01731e+06 251225 702153 315412
158 3 O 1.68288 31.9926 51.3043 -1.2 -9.57414 -3.60006e+06 -2.93005e+06 -2.85111e+06 879267 -290491 8111
159 3 O 1.77384 29.3834 57.9084 -1.2 -9.10739 -3.95601e+06 -4.13365e+06 -4.82745e+06 117622 696919 -753571
160 3 O 0.258524 29.7935 50.6632 -1.2 -8.67889 -3.73688e+06 -3.16659e+06 -3.88531e+06 1.16989e+06 -927915 -287038
161 1 Mg -2.90462 28.3797 52.308 1.2 -8.12511 171029 -454318 3.45835e+06 1.813e+06 -2.08876e+06 972181
162 3 O 2.81205 29.7787 50.4664 -1.2 -9.00767 -3.35336e+06 -2.98077e+06 -1.93609e+06 -381312 855820 -472770
163 1 Mg -1.28757 28.485 54.9724 1.2 -8.81481 4.44794e+06 1.47555e+06 -440993 -499910 146815 -401957
164 2 Si -1.41851 26.3408 53.1963 2.4 -33.8646 1.11737e+07 6.68503e+06 9.59039e+06 200018 219457 630720
165 3 O -1.47628 24.7834 53.1765 -1.2 -9.01794 -4.32724e+06 -2.51129e+06 -4.08693e+06 354487 408169 600313
166 3 O -0.943026 27.648 46.4208 -1.2 -7.26832 -3.62614e+06 -2.62919e+06 -2.47252e+06 -604149 -1.50553e+06 788146
167 3 O -2.74308 27.0371 53.9006 -1.2 -8.57135 -2.00261e+06 -3.53293e+06 -2.96093e+06 -849286 433815 -87045.9
168 3 O -0.0645131 27.1066 53.8091 -1.2 -8.58574 -2.05963e+06 -2.69866e+06 -3.90181e+06 1.41539e+06 -176263 260774
169 1 Mg -2.60823 35.6246 57.4592 1.2 -7.76606 -59205.8 -14741.9 3.68433e+06 -1.71243e+06 -1.30163e+06 449929
170 1 Mg -1.28421 35.3899 49.8376 1.2 -8.72101 1.19807e+06 2.7723e+06 1.50812e+06 -188475 297611 1.01922e+06
171 2 Si -0.807101 32.9036 47.9247 2.4 -35.045 9.69411e+06 8.08315e+06 8.67953e+06 494944 2.31678e+06 281009
172 3 O -0.727174 34.4729 47.9885 -1.2 -8.37749 -3.07807e+06 -4.86703e+06 -2.4496e+06 459647 -1.92918e+06 -526563
173 3 O -1.35735 31.7701 51.768 -1.2 -8.77431 -3.03021e+06 -3.42467e+06 -6.5681e+06 -8534.4 758825 -1.51218e+06
174 3 O -1.97695 32.3253 48.826 -1.2 -8.46342 -1.62002e+06 -4.16872e+06 -2.97309e+06 -4814.52 -347925 -1.59233e+06
175 1 Mg 0.237665 30.8412 46.8168 1.2 -7.37533 2.65268e+06 264605 418956 1.12189e+06 1.59438e+06 -520814
176 3 O 0.656562 32.2608 48.3877 -1.2 -8.34933 -2.22011e+06 -2.2295e+06 -1.65566e+06 -281622 -329641 458092
177 1 Mg 1.85825 31.0248 54.5364 1.2 -8.28614 2.01368e+06 3.6993e+06 -762935 -905484 311770 781600
178 2 Si 1.88541 33.563 56.3393 2.4 -33.4993 7.81296e+06 7.75607e+06 8.46024e+06 496471 138038 1.35751e+06
179 3 O 1.70241 31.9675 56.3649 -1.2 -9.58448 -3.64662e+06 -2.6244e+06 -3.20092e+06 1.64076e+06 -723559 -772768
180 3 O 1.74574 34.5067 52.7279 -1.2 -9.23027 -3.52754e+06 -2.60189e+06 -4.81176e+06 -72582.5 -245590 -1.45347e+06
181 3 O 0.608677 34.2295 55.6943 -1.2 -8.50492 -3.34173e+06 -4.27418e+06 -2.91568e+06 -91984.6 -643130 -401254
182 3 O 3.05017 34.2232 55.5849 -1.2 -9.03204 -6.15729e+06 -3.75121e+06 -2.97802e+06 794984 1.00625e+06 -1.12437e+06
183 1 Mg 0.167046 33.1343 52.2045 1.2 -8.05684 46810.2 -620246 3.67273e+06 -1.44682e+06 1.67232e+06 1.74446e+06
184 1 Mg 2.20727 32.8578 49.4516 1.2 -8.15948 2.72398e+06 1.21336e+06 -383485 97777.9 -137754 544100
185 2 Si 1.67943 35.1802 51.2429 2.4 -33.2853 8.64685e+06 6.33867e+06 8.87526e+06 386166 199259 1.07436e+06
186 3 O 1.78736 36.747 51.303 -1.2 -9.652 -3.32475e+06 -2.80851e+06 -3.08527e+06 496325 -870689 -282713
187 3 O 1.89545 34.192 57.8596 -1.2 -9.19734 -2.82697e+06 -3.87987e+06 -3.79404e+06 174532 -1.03089e+06 1.19966e+06
188 3 O 0.362533 34.5479 50.661 -1.2 -8.70607 -3.46273e+06 -3.08578e+06 -4.22315e+06 1.17256e+06 -615962 -725041
189 1 Mg -2.80215 33.1347 52.3062 1.2 -7.89961 111469 -628187 2.97528e+06 1.58994e+06 -1.48864e+06 1.54321e+06
190 3 O 2.91593 34.533 50.466 -1.2 -9.1491 -3.41322e+06 -2.92985e+06 -1.71243e+06 -276388 799575 -708906
191 1 Mg -1.22449 33.206 55.0681 1.2 -8.63685 2.67611e+06 2.31984e+06 -166619 269310 624666 49343.5
192 2 Si -1.26307 31.1085 53.2111 2.4 -33.4638 7.22203e+06 8.36091e+06 8.48343e+06 1.26479e+06 1.29877e+06 952446
193 3 O -1.42323 29.5438 53.2024 -1.2 -9.44449 -3.98667e+06 -2.51669e+06 -3.70642e+06 1.00492e+06 381097 823638
194 3 O -0.842495 32.4028 46.4192 -1.2 -7.3529 -3.48549e+06 -2.74593e+06 -2.36192e+06 -605624 -1.50449e+06 630678
195 3 O -2.47099 31.8526 53.8882 -1.2 -8.95909 -4.85193e+06 -5.77013e+06 -4.5223e+06 -1.411e+06 1.8205e+06 -193477
196 3 O 0.0139397 31.909 53.8484 -1.2 -8.88167 -2.76453e+06 -3.45403e+06 -2.91685e+06 1.5981e+06 -685873 155256
197 1 Mg -2.537 40.4924 57.3368 1.2 -7.95263 -159462 -262837 4.70641e+06 -176100 -1.82767e+06 274649
198 1 Mg -1.17787 40.1435 49.8359 1.2 -8.82826 1.40421e+06 2.4299e+06 1.82216e+06 -177046 126733 1.2345e+06
199 2 Si -0.702692 37.6572 47.9231 2.4 -35.0285 9.67e+06 7.83701e+06 8.92115e+06 475809 2.3076e+06 773587
200 3 O -0.621782 39.2264 47.9868 -1.2 -8.35126 -3.13671e+06 -4.63006e+06 -2.67544e+06 464381 -1.91292e+06 -749962
201 3 O -1.25221 36.5242 51.7666 -1.2 -9.08944 -2.32608e+06 -3.37537e+06 -4.9906e+06 939867 -62396.4 -1.1954e+06
202 3 O -1.87295 37.0796 48.8243 -1.2 -8.48511 -1.58749e+06 -4.10401e+06 -3.03953e+06 32299.2 -359848 -1.87784e+06
203 1 Mg 0.341084 35.5943 46.8152 1.2 -7.32797 2.57348e+06 241491 447395 1.12304e+06 1.58908e+06 -297917
204 3 O 0.760681 37.0138 48.3864 -1.2 -8.37023 -2.18088e+06 -2.14515e+06 -1.74623e+06 -299485 -319686 212358
205 1 Mg 1.84401 35.5313 54.4601 1.2 -8.42414 2.64381e+06 1.94237e+06 -630200 -132383 409220 1.987e+06
206 2 Si 1.90613 38.274 56.3903 2.4 -34.2164 8.30754e+06 4.73869e+06 8.98932e+06 -238011 -172781 2.3023e+06
207 3 O 1.91604 36.7659 56.5399 -1.2 -9.12716 -3.38069e+06 -4.73738e+06 -3.54554e+06 -657815 573867 -2.62086e+06
208 3 O 1.85132 39.2606 52.7264 -1.2 -8.92787 -3.35047e+06 -2.176e+06 -3.64757e+06 573606 -865601 -959151
209 3 O 0.572552 39.0474 55.8125 -1.2 -8.98453 -4.45453e+06 -2.76018e+06 -5.07741e+06 -1.53932e+06 -1.08934e+06 -814589
210 3 O 3.10043 39.0164 55.7171 -1.2 -8.54049 -2.79158e+06 -2.88753e+06 -5.79721e+06 792522 1.94281e+06 -638052
211 1 Mg 0.272384 37.8883 52.2029 1.2 -7.78544 492914 57790.2 3.70568e+06 -1.14386e+06 1.77124e+06 1.14647e+06
212 1 Mg 2.31122 37.6122 49.4501 1.2 -8.15471 2.69917e+06 1.11117e+06 -254281 142952 -123337 883071
213 2 Si 1.78573 39.934 51.2414 2.4 -33.7158 9.08015e+06 5.63164e+06 9.84539e+06 288463 998206 1.55857e+06
214 3 O 1.89428 41.5006 51.3014 -1.2 -9.38564 -3.72305e+06 -2.50645e+06 -3.41425e+06 749216 -834557 -288725
215 3 O 1.91633 38.9691 57.8043 -1.2 -8.24255 -4.71927e+06 -4.25864e+06 -8.9894e+06 966483 -810351 21824.4
216 3 O 0.469216 39.3015 50.6588 -1.2 -8.64141 -3.94374e+06 -2.77454e+06 -4.2919e+06 1.13024e+06 -688725 -995856
217 1 Mg -2.69668 37.8889 52.3043 1.2 -7.90596 -562021 -1.09484e+06 3.16459e+06 1.92578e+06 -2.04058e+06 2.16557e+06
218 3 O 3.0225 39.2866 50.4651 -1.2 -8.9956 -3.41265e+06 -2.63859e+06 -2.36129e+06 -302117 715733 -1.08361e+06
219 1 Mg -0.982317 38.083 54.9922 1.2 -8.35093 2.78407e+06 1.62847e+06 516136 -608722 -195423 -761749
220 2 Si -1.34356 35.8952 53.2375 2.4 -33.3153 6.74894e+06 7.83928e+06 1.07585e+07 -1.56168e+06 -637457 1.55241e+06
221 3 O -1.32261 34.2863 53.1938 -1.2 -9.15593 -3.72494e+06 -2.08404e+06 -3.91359e+06 -769224 255934 118465
222 3 O -0.738054 37.1566 46.4176 -1.2 -7.3769 -3.44537e+06 -2.64913e+06 -2.4643e+06 -604663 -1.50399e+06 418395
223 3 O -2.66302 36.6621 53.86 -1.2 -8.88631 -2.84932e+06 -4.10085e+06 -4.0846e+06 -1.14132e+06 -46538.2 414604
224 3 O -0.154516 36.5434 54.0044 -1.2 -9.07495 -3.06067e+06 -3.34483e+06 -3.49095e+06 858186 -884860 -253522
225 1 Mg -2.382 45.1089 57.4585 1.2 -7.88718 -173999 -1.59191e+06 4.89352e+06 -1.41545e+06 -1.18702e+06 132064
226 1 Mg -1.06993 44.8968 49.8343 1.2 -8.8848 1.41062e+06 2.01881e+06 2.31736e+06 -139363 314995 899902
227 2 Si -0.596166 42.4103 47.9215 2.4 -35.1275 9.82213e+06 7.05768e+06 9.71388e+06 495457 2.30434e+06 726164
228 3 O -0.51472 43.9796 47.9853 -1.2 -8.3322 -3.14509e+06 -4.27107e+06 -3.05215e+06 456239 -1.92452e+06 -540788
229 3 O -1.14475 41.2777 51.7649 -1.2 -8.64958 -3.2699e+06 -4.47498e+06 -7.63055e+06 565974 1.23047e+06 -1.04712e+06
230 3 O -1.76671 41.8331 48.8226 -1.2 -8.39555 -1.71652e+06 -3.6872e+06 -3.46028e+06 -3266.53 -337576 -1.92688e+06
231 1 Mg 0.447076 40.3473 46.8135 1.2 -7.34668 2.60986e+06 -41036 723340 1.12333e+06 1.5911e+06 -180060
232 3 O 0.866985 41.7666 48.385 -1.2 -8.30183 -2.29988e+06 -1.74684e+06 -2.12494e+06 -280282 -329395 153238
233 1 Mg 1.6703 40.3867 54.6906 1.2 -8.25299 2.19346e+06 647002 801547 812644 -989892 1.37483e+06
234 2 Si 1.96551 43.0273 56.4888 2.4 -33.0517 6.66747e+06 7.67493e+06 1.29872e+07 -399899 -1.80224e+06 1.38927e+06
235 3 O 1.87442 41.4502 56.5465 -1.2 -9.7863 -3.82704e+06 -2.95738e+06 -4.40407e+06 -583912 983713 203596
236 3 O 1.95891 44.014 52.7248 -1.2 -8.68832 -3.96666e+06 -2.10769e+06 -4.05846e+06 1.22423e+06 -647104 -1.34091e+06
237 3 O 0.823491 43.9239 55.8559 -1.2 -9.05754 -4.77167e+06 -2.66412e+06 -3.19891e+06 -1.95729e+06 -384122 -1.22913e+06
238 3 O 3.28385 43.5938 55.7741 -1.2 -8.52691 -2.08658e+06 -3.66419e+06 -2.78076e+06 2.26823e+06 -332716 -1.20715e+06
239 1 Mg 0.379928 42.6418 52.2013 1.2 -8.18281 560075 -965623 3.40391e+06 -1.09867e+06 2.14299e+06 1.22826e+06
240 1 Mg 2.41752 42.366 49.4484 1.2 -8.27481 2.90833e+06 652474 194813 100519 -113291 848936
241 2 Si 1.89374 44.6874 51.2398 2.4 -33.9327 9.7456e+06 4.78525e+06 1.04011e+07 -156388 104537 1.30955e+06
242 3 O 2.00266 46.254 51.2996 -1.2 -9.51399 -3.61626e+06 -2.21288e+06 -3.7427e+06 705234 402211 -23511.1
243 3 O 1.9875 43.7385 58.083 -1.2 -8.85759 -1.66055e+06 -1.98511e+06 -3.5621e+06 1.02813e+06 -502193 2.37329e+06
244 3 O 0.577464 44.0549 50.6567 -1.2 -8.3895 -4.16043e+06 -2.38614e+06 -5.26936e+06 1.14785e+06 -343482 -914667
245 1 Mg -2.58906 42.6425 52.3022 1.2 -8.27 37168.8 -1.67637e+06 3.13643e+06 2.15953e+06 -1.95286e+06 2.27249e+06
246 3 O 3.13067 44.0398 50.464 -1.2 -8.9031 -3.85264e+06 -2.15477e+06 -2.50649e+06 -282516 717441 -815178
247 1 Mg -0.784649 42.8471 55.1507 1.2 -8.36426 3.16527e+06 1.49145e+06 53785.5 -84098.8 -205481 874316
248 2 Si -1.13637 40.6929 53.1925 2.4 -33.9296 7.61847e+06 6.05176e+06 8.99652e+06 -321670 -667679 2.30863e+06
249 3 O -1.22112 39.0991 53.1344 -1.2 -9.34694 -3.78247e+06 -1.67567e+06 -3.92874e+06 -223032 862742 693324
250 3 O -0.631421 41.9099 46.4159 -1.2 -7.36445 -3.46635e+06 -2.34354e+06 -2.76681e+06 -606001 -1.50297e+06 430507
251 3 O -2.3246 41.5174 53.8408 -1.2 -8.1839 -2.93779e+06 -4.30389e+06 -5.58858e+06 -276670 1.11743e+06 -176005
252 3 O 0.159876 41.2738 53.9365 -1.2 -9.09864 -5.58936e+06 -2.74419e+06 -2.73194e+06 2.04296e+06 -564041 661204
253 1 Mg -2.37486 50.062 57.602 1.2 -8.07055 -55931.5 -1.00163e+06 4.13017e+06 -102862 -2.15061e+06 -72439.9
254 1 Mg -0.961069 49.6502 49.8327 1.2 -8.50929 955352 2.28057e+06 1.89505e+06 -206446 162884 1.17478e+06
255 2 Si -0.488083 47.1636 47.9198 2.4 -34.8583 9.39559e+06 7.18009e+06 9.58376e+06 482656 2.34792e+06 -17738.3
256 3 O -0.40607 48.7329 47.9837 -1.2 -8.51673 -2.87303e+06 -4.48466e+06 -2.81949e+06 471276 -1.93186e+06 -381970
257 3 O -1.0361 46.031 51.7632 -1.2 -8.82775 -2.75325e+06 -3.08159e+06 -4.32104e+06 274495 -1.188e+06 -1.40454e+06
258 3 O -1.65866 46.5866 48.821 -1.2 -8.52761 -1.54769e+06 -3.64108e+06 -3.47863e+06 37117.3 -384476 -1.46657e+06
259 1 Mg 0.554124 45.1001 46.8117 1.2 -7.30853 2.53993e+06 -227869 919764 1.12444e+06 1.58704e+06 -455478
260 3 O 0.974961 46.5195 48.3832 -1.2 -8.40955 -2.08819e+06 -1.69577e+06 -2.2175e+06 -303789 -308682 571839
261 1 Mg 1.98508 45.2079 54.6034 1.2 -8.72454 2.06624e+06 1.63358e+06 1.68293e+06 -436661 299426 1.8564e+06
262 2 Si 2.2087 47.8139 56.5267 2.4 -33.5099 8.94067e+06 9.75971e+06 9.81095e+06 1.00273e+06 -1.24114e+06 703418
263 3 O 2.03078 46.1521 56.5969 -1.2 -9.11212 -3.50887e+06 -826358 -3.13492e+06 336111 -221649 -1.33482e+06
264 3 O 2.0677 48.7672 52.7232 -1.2 -9.34105 -2.97819e+06 -2.5267e+06 -5.19362e+06 -48888.9 -377956 -2.00561e+06
265 3 O 0.877333 48.4861 55.9996 -1.2 -8.79217 -3.83315e+06 -2.74135e+06 -4.02801e+06 -792643 -1.28165e+06 -469322
266 3 O 3.4056 48.5162 55.6864 -1.2 -8.51328 -2.97479e+06 -3.77408e+06 -2.67017e+06 1.83179e+06 662673 -1.38911e+06
267 1 Mg 0.488584 47.395 52.1996 1.2 -7.95651 -408879 -1.17249e+06 4.17492e+06 -1.119e+06 1.66308e+06 1.83584e+06
268 1 Mg 2.52544 47.1195 49.4466 1.2 -8.07008 2.5947e+06 728420 105849 124052 -214589 454316
269 2 Si 2.00256 49.4407 51.2382 2.4 -32.9377 7.5859e+06 5.12035e+06 1.05709e+07 506916 695529 1.32985e+06
270 3 O 2.11156 51.0073 51.2982 -1.2 -9.81184 -3.36318e+06 -1.76032e+06 -3.61792e+06 753827 -649004 187744
271 3 O 2.2076 48.5474 57.9946 -1.2 -9.02985 -4.15753e+06 -1.01005e+06 -5.39116e+06 -781270 -1.90306e+06 1.33296e+06
272 3 O 0.686344 48.8082 50.655 -1.2 -8.99331 -3.00615e+06 -2.8258e+06 -4.32549e+06 1.15448e+06 -1.07529e+06 -654846