ITEM: TIMESTEP
45000
ITEM: NUMBER OF ATOMS
10500
ITEM: BOX BOUNDS xy xz yz pp pp pp
0.0000000000000000e+00 8.9687999999999999e+00 2.9895999999999998e+00
0.0000000000000000e+00 1.1872499999999999e+02 0.0000000000000000e+00
0.0000000000000000e+00 2.5297749999999999e+02 0.0000000000000000e+00
ITEM: ATOMS id type element xu yu zu q c_pe c_s[1] c_s[2] c_s[3] c_s[4] c_s[5] c_s[6]
1 1 Mg -3.22775 7.17142 57.4005 1.2 -8.1746 -209631 -1.73796e+06 5.6693e+06 -1.07178e+06 -1.82596e+06 221046
2 1 Mg -1.82655 6.90154 50.0912 1.2 -8.65644 900072 874191 1.29544e+06 -86321.8 -325625 1.46076e+06
3 2 Si -0.257935 3.96038 48.0876 2.4 -37.0542 1.16448e+07 8.49045e+06 1.10861e+07 821784 1.96768e+06 1.98828e+06
4 3 O -0.335812 5.46814 47.6264 -1.2 -7.34753 -3.7973e+06 -2.33087e+06 -2.65767e+06 139551 -976436 -610827
5 3 O -2.03793 3.43377 51.8941 -1.2 -7.89902 -4.2986e+06 -1.46192e+06 -5.66378e+06 -621523 500177 -2.58863e+06
6 3 O -1.54015 3.53929 48.9521 -1.2 -7.74391 -2.17923e+06 -1.50133e+06 -4.47547e+06 34539.2 -712460 -407329
7 1 Mg 1.82954 2.54582 47.1376 1.2 -8.45713 3.35446e+06 -609656 855947 1.14936e+06 835638 771083
8 3 O 1.22989 3.66364 48.7877 -1.2 -7.47742 -2.53297e+06 -2.25537e+06 -3.79658e+06 -489004 -734202 -1.16279e+06
9 1 Mg 1.04542 2.42862 54.6065 1.2 -8.57151 2.69373e+06 1.26983e+06 2.1528e+06 -306218 296280 642575
10 2 Si 1.29712 4.8575 56.5926 2.4 -33.727 1.12763e+07 4.6622e+06 1.27432e+07 -312746 690903 1.99149e+06
11 3 O 1.00118 3.31594 56.672 -1.2 -9.62009 -4.38171e+06 -859066 -3.57115e+06 666822 941936 -46399.9
12 3 O 1.10813 6.07342 52.8172 -1.2 -8.13146 -4.30712e+06 -3.09773e+06 -4.34012e+06 1.05165e+06 -124532 -2.06955e+06
13 3 O -0.0293741 5.59842 55.806 -1.2 -8.47394 -2.87091e+06 -1.22328e+06 -2.99574e+06 -1.74049e+06 779438 -694579
14 3 O 2.50206 5.53853 55.8743 -1.2 -8.30716 -4.16716e+06 -1.74215e+06 -6.52959e+06 1.72495e+06 959051 -516769
15 1 Mg -0.459401 4.67631 52.2426 1.2 -8.65016 1.20289e+06 -1.36021e+06 5.02812e+06 -927319 1.18607e+06 1.64958e+06
16 1 Mg 2.79456 3.9971 49.9987 1.2 -8.99223 4.52049e+06 -214043 1.855e+06 -586660 863847 -647638
17 2 Si 1.16169 6.59457 51.2556 2.4 -34.78 8.54259e+06 5.51154e+06 1.30136e+07 -47412.4 802907 3.21438e+06
18 3 O 1.28989 8.18905 51.2909 -1.2 -9.05746 -3.4042e+06 -1.42172e+06 -4.02314e+06 283323 -651812 1.06081e+06
19 3 O 1.36171 5.74339 58.0463 -1.2 -8.70024 -3.51544e+06 1.94951e+06 -4.78993e+06 -197649 244779 572265
20 3 O -0.184847 6.06029 50.6845 -1.2 -8.2479 -3.81713e+06 -2.93137e+06 -5.03799e+06 1.42461e+06 -716726 -1.67763e+06
21 1 Mg -3.49704 4.67769 52.6661 1.2 -8.5447 690918 -1.6462e+06 3.21085e+06 1.61708e+06 -1.03501e+06 1.74037e+06
22 3 O 2.48581 5.93312 50.6539 -1.2 -8.70908 -3.71871e+06 -1.30927e+06 -3.58743e+06 -1.54031e+06 -434135 -1.09488e+06
23 1 Mg -1.74218 4.71151 55.2128 1.2 -8.96463 2.83361e+06 942192 2.11499e+06 117784 -355830 -373450
24 2 Si -1.91574 2.58392 53.3468 2.4 -34.718 9.26305e+06 3.27228e+06 1.31168e+07 -138561 -538466 -480179
25 3 O -1.90812 1.09407 53.1464 -1.2 -8.95826 -4.74811e+06 -4.00877e+06 -4.86349e+06 477440 -284427 637571
26 3 O -0.0467762 2.97103 46.8385 -1.2 -6.55939 -3.6906e+06 -2.03504e+06 -2.98877e+06 -991309 -2.00287e+06 -833972
27 3 O -3.15395 3.25436 54.1407 -1.2 -8.5181 -2.70455e+06 -2.82291e+06 -5.2105e+06 -1.17823e+06 401924 420991
28 3 O -0.628912 3.29531 53.9068 -1.2 -8.53231 -4.88658e+06 -2.44285e+06 -4.83402e+06 881169 -449215 -476563
29 1 Mg -3.14705 11.9734 57.2679 1.2 -7.87662 -281704 -1.33034e+06 4.63225e+06 -1.51587e+06 -1.32211e+06 -661159
30 1 Mg -1.75014 11.5838 49.8362 1.2 -8.76868 1.22383e+06 1.99778e+06 2.53087e+06 -292045 318127 704625
31 2 Si -1.18003 9.02138 47.9309 2.4 -35.1507 9.6111e+06 7.13662e+06 9.77708e+06 228536 2.60805e+06 156682
32 3 O -1.23224 10.5991 47.9811 -1.2 -8.39045 -3.0123e+06 -3.59069e+06 -2.79584e+06 655481 -1.91591e+06 170009
33 3 O -1.79016 8.01447 51.8693 -1.2 -8.75691 -3.81997e+06 -1.58039e+06 -5.67078e+06 173906 63221.6 -1.22441e+06
34 3 O -2.30986 8.37215 48.8528 -1.2 -8.56843 -1.67487e+06 -2.50431e+06 -3.39627e+06 -348755 -579864 -776372
35 1 Mg 0.154883 7.08234 46.8007 1.2 -7.9191 2.5275e+06 -226623 869792 942694 1.73101e+06 -1.02037e+06
36 3 O 0.325447 8.50934 48.3809 -1.2 -8.2279 -2.05332e+06 -1.93521e+06 -2.77263e+06 -22430 -845144 449224
37 1 Mg 1.03397 7.01434 54.8794 1.2 -9.06524 3.18979e+06 -700194 621620 419623 -934691 1.15435e+06
38 2 Si 1.49979 9.71697 56.481 2.4 -34.0622 8.34201e+06 4.31139e+06 1.33101e+07 -353328 -771812 2.47427e+06
39 3 O 1.30621 8.14789 56.4238 -1.2 -9.23586 -3.98919e+06 -1.74831e+06 -5.98021e+06 953575 249566 -1.43288e+06
40 3 O 1.28624 10.7248 52.7351 -1.2 -9.06094 -3.14198e+06 -1.13297e+06 -4.64778e+06 68527.5 -899100 -535475
41 3 O 0.247847 10.4928 55.7804 -1.2 -8.80721 -2.01638e+06 -1.90328e+06 -3.83868e+06 -507630 -745409 -1.12436e+06
42 3 O 2.80055 10.3756 55.8763 -1.2 -8.74729 -3.14715e+06 -2.11575e+06 -5.33498e+06 1.14384e+06 13815 -1.01379e+06
43 1 Mg -0.262694 9.34741 52.2523 1.2 -8.06483 855201 -384111 4.5162e+06 -1.91763e+06 1.72008e+06 849352
44 1 Mg 1.87648 9.01537 49.4629 1.2 -8.26882 2.5953e+06 474593 393701 257422 -259452 175636
45 2 Si 1.21415 11.3799 51.2378 2.4 -33.4974 9.21471e+06 4.86587e+06 1.04654e+07 126248 599722 283883
46 3 O 1.31634 12.9512 51.3023 -1.2 -9.71121 -3.47725e+06 -1.86415e+06 -3.30412e+06 557637 -576956 513494
47 3 O 1.37804 10.3598 57.9565 -1.2 -8.67986 -3.18067e+06 -300115 -5.70436e+06 185756 -1.44988e+06 727254
48 3 O -0.115718 10.7564 50.681 -1.2 -8.57225 -3.65321e+06 -2.41897e+06 -4.66748e+06 1.39434e+06 -428875 -662728
49 1 Mg -3.26386 9.35564 52.3622 1.2 -8.07925 98817.9 -813091 4.65268e+06 1.91218e+06 -1.64824e+06 693037
50 3 O 2.45216 10.7265 50.4558 -1.2 -9.07926 -3.41509e+06 -1.86577e+06 -2.38043e+06 -857672 431600 76052.8
51 1 Mg -1.48602 9.50136 55.2321 1.2 -8.47119 3.21622e+06 1.47798e+06 1.69198e+06 232122 215493 -22975.8
52 2 Si -1.76035 7.36105 53.3753 2.4 -34.8268 1.04897e+07 2.4571e+06 1.09804e+07 108171 -1.21623e+06 387903
53 3 O -2.01671 5.83894 53.4423 -1.2 -8.53147 -5.16247e+06 -3.7363e+06 -4.89129e+06 702981 603579 -1.20466e+06
54 3 O -1.19417 8.46968 46.4488 -1.2 -7.26933 -3.32031e+06 -1.98055e+06 -3.00765e+06 -541420 -1.74213e+06 913183
55 3 O -2.9272 8.07213 54.1373 -1.2 -7.91909 -3.72343e+06 -3.99638e+06 -3.95872e+06 555961 978752 -1.46795e+06
56 3 O -0.437866 7.94056 53.9571 -1.2 -8.5047 -6.94306e+06 -2.00453e+06 -4.17293e+06 1.17116e+06 -520286 -710762
57 1 Mg -2.96013 16.5994 57.2663 1.2 -8.11357 -567013 -2.58969e+06 3.53162e+06 -1.29039e+06 -2.22439e+06 -517065
58 1 Mg -1.6714 16.3544 49.8412 1.2 -8.50789 949261 2.0039e+06 2.25805e+06 -216216 84003.5 569475
59 2 Si -1.18567 13.8526 47.9314 2.4 -34.7491 9.21285e+06 6.41692e+06 1.02785e+07 495851 2.23724e+06 -696722
60 3 O -1.09664 15.4205 47.9915 -1.2 -8.58086 -2.69419e+06 -3.9738e+06 -3.104e+06 423224 -1.91896e+06 13357.7
61 3 O -1.73493 12.7491 51.7772 -1.2 -8.84121 -1.78822e+06 -3.30339e+06 -3.46362e+06 344838 -23529.9 -825984
62 3 O -2.36115 13.2717 48.8238 -1.2 -8.57554 -1.48052e+06 -3.18583e+06 -3.78263e+06 -87250 -402804 -1.09828e+06
63 1 Mg -0.159928 11.7639 46.8533 1.2 -7.27405 2.51749e+06 -522630 1.17079e+06 1.12621e+06 1.56545e+06 -1.04893e+06
64 3 O 0.2623 13.1866 48.413 -1.2 -8.48233 -2.02447e+06 -1.21867e+06 -2.54926e+06 -209876 -261186 958972
65 1 Mg 1.11992 12.0262 54.5432 1.2 -8.24854 -3822.33 1.71406e+06 1.74697e+06 583114 -1.0484e+06 1.43105e+06
66 2 Si 1.25442 14.5624 56.5259 2.4 -34.1464 7.4995e+06 3.98974e+06 9.53611e+06 240751 -37398 1.31467e+06
67 3 O 1.22168 13.0122 56.6186 -1.2 -9.21981 -4.20622e+06 -4.41217e+06 -4.48529e+06 -260578 217930 -968918
68 3 O 1.36565 15.4813 52.729 -1.2 -9.34417 -2.65725e+06 -1.86255e+06 -4.27446e+06 250716 -219816 -850202
69 3 O -0.0232785 15.2187 55.8876 -1.2 -8.69058 -4.15504e+06 -3.21545e+06 -4.69009e+06 -583779 -951561 -155837
70 3 O 2.50628 15.1299 55.7805 -1.2 -9.13636 -3.82927e+06 -3.08696e+06 -4.80288e+06 301740 1.22828e+06 -221242
71 1 Mg -0.206989 14.1049 52.2121 1.2 -7.79693 -387609 -1.16138e+06 4.59635e+06 -770191 1.89556e+06 908214
72 1 Mg 1.82591 13.8102 49.4556 1.2 -8.03476 2.58972e+06 538090 293801 143734 -94584.5 224369
73 2 Si 1.29285 16.1518 51.2434 2.4 -33.0543 7.71369e+06 4.789e+06 1.10769e+07 313601 720810 931495
74 3 O 1.39496 17.7199 51.3047 -1.2 -9.72203 -2.93271e+06 -1.68991e+06 -4.59188e+06 930011 128074 258102
75 3 O 1.30522 15.1957 57.9469 -1.2 -8.41328 -3.85084e+06 -3.5138e+06 -7.35422e+06 -1.23515e+06 -760731 -236618
76 3 O -0.0269106 15.5178 50.6688 -1.2 -8.90777 -3.54619e+06 -2.24561e+06 -5.01716e+06 866189 -565885 -200596
77 1 Mg -3.18391 14.1057 52.3125 1.2 -7.58431 -250197 -966877 3.97632e+06 1.73102e+06 -1.94476e+06 1.33084e+06
78 3 O 2.52432 15.503 50.4579 -1.2 -9.26285 -2.98633e+06 -2.06491e+06 -2.66297e+06 -278757 675094 -438939
79 1 Mg -1.69452 14.282 55.0555 1.2 -8.30302 2.93894e+06 971524 1.71157e+06 -157303 209630 -782783
80 2 Si -1.82179 12.0863 53.3205 2.4 -33.0179 7.32447e+06 2.58583e+06 1.32392e+07 1.74787e+06 -215030 710014
81 3 O -1.81341 10.6179 53.1958 -1.2 -9.38855 -3.78644e+06 -4.19431e+06 -4.87229e+06 -451071 1.12286e+06 702922
82 3 O -1.21337 13.3381 46.4311 -1.2 -7.48167 -3.33808e+06 -1.90404e+06 -3.14222e+06 -630972 -1.45095e+06 1.15076e+06
83 3 O -3.05515 12.7867 53.972 -1.2 -9.40378 -2.43262e+06 -3.26132e+06 -3.94705e+06 -206299 496842 -842345
84 3 O -0.478337 12.8741 54.041 -1.2 -9.14854 -1.73355e+06 -2.22974e+06 -4.07896e+06 2.35305e+06 -553155 365634
85 1 Mg -3.26896 21.3644 57.5828 1.2 -7.85135 -185792 -1.96825e+06 4.99752e+06 -494988 -1.68611e+06 -871937
86 1 Mg -1.5831 21.1217 49.8405 1.2 -8.45898 897502 1.78963e+06 2.39118e+06 -205386 285884 407213
87 2 Si -1.09384 18.6291 47.9287 2.4 -34.5385 8.92515e+06 6.42976e+06 1.02759e+07 505894 2.34261e+06 -573641
88 3 O -1.02071 20.1985 47.9911 -1.2 -8.63804 -2.66556e+06 -3.98478e+06 -3.21272e+06 456605 -1.94671e+06 33208.7
89 3 O -1.65002 17.5002 51.771 -1.2 -9.25713 -2.4507e+06 -2.92673e+06 -7.70788e+06 -197018 37153.9 -499975
90 3 O -2.26174 18.0434 48.8281 -1.2 -8.72856 -1.25038e+06 -3.19713e+06 -3.83531e+06 -32643.8 -321917 -1.15362e+06
91 1 Mg -0.0440435 16.5651 46.8269 1.2 -7.14401 2.25137e+06 -417323 1.10741e+06 1.13711e+06 1.58374e+06 -888514
92 3 O 0.37001 17.9877 48.3925 -1.2 -8.60349 -1.80489e+06 -1.34909e+06 -2.53884e+06 -283477 -363723 826852
93 1 Mg 1.4485 16.5404 54.6558 1.2 -8.11452 3.20597e+06 1.12692e+06 1.56619e+06 -91997 -521285 263906
94 2 Si 1.38695 19.1712 56.4217 2.4 -33.2504 8.77955e+06 6.30753e+06 1.28942e+07 191670 914562 -1.50783e+06
95 3 O 1.32593 17.6078 56.5854 -1.2 -9.62274 -3.71648e+06 -1.99414e+06 -5.16169e+06 -72715 -1.24668e+06 747662
96 3 O 1.45147 20.239 52.7294 -1.2 -9.09952 -3.20563e+06 -1.68677e+06 -5.43727e+06 386588 227119 -547095
97 3 O 0.104396 19.8877 55.7336 -1.2 -8.5705 -2.79376e+06 -2.53508e+06 -4.84142e+06 -1.99767e+06 -940392 -432276
98 3 O 2.61197 19.9643 55.6957 -1.2 -8.85926 -4.12983e+06 -1.2216e+06 -3.4817e+06 2.25674e+06 202974 -782426
99 1 Mg -0.126194 18.8651 52.2079 1.2 -7.91523 -336932 -2.43431e+06 4.85694e+06 -1.5751e+06 1.79944e+06 1.65182e+06
100 1 Mg 1.92402 18.5815 49.4545 1.2 -7.91691 2.23268e+06 284953 620491 82187.3 -177645 141504
101 2 Si 1.38106 20.9117 51.2443 2.4 -33.0367 7.61675e+06 4.1537e+06 1.17487e+07 307085 -8490.04 -470939
102 3 O 1.48527 22.4795 51.3054 -1.2 -9.84663 -3.04661e+06 -1.74418e+06 -3.94431e+06 504124 -342894 992260
103 3 O 1.32306 19.9479 57.9049 -1.2 -9.00394 -3.26977e+06 -2.06534e+06 -6.13397e+06 95631.9 -888658 2.46418e+06
104 3 O 0.0615419 20.2804 50.6669 -1.2 -8.9499 -2.91785e+06 -2.03229e+06 -5.27103e+06 1.18196e+06 -925512 -101754
105 1 Mg -3.09665 18.8643 52.3122 1.2 -7.64972 102389 -1.33748e+06 4.79024e+06 1.45117e+06 -1.41093e+06 600410
106 3 O 2.61548 20.2646 50.4626 -1.2 -9.38787 -2.90881e+06 -1.83185e+06 -2.69827e+06 -368207 988077 -82072.5
107 1 Mg -1.67626 19.0523 55.0824 1.2 -8.76878 2.32869e+06 691523 247149 172582 -163016 -536625
108 2 Si -1.4604 16.8525 53.1607 2.4 -33.1043 7.44057e+06 5.65288e+06 1.13052e+07 1.44546e+06 660755 2.44465e+06
109 3 O -1.61557 15.2719 53.0951 -1.2 -9.68541 -2.65821e+06 -1.57337e+06 -4.83542e+06 1.77177e+06 567643 343620
110 3 O -1.12868 18.1227 46.4249 -1.2 -7.58562 -3.1333e+06 -2.01262e+06 -3.06534e+06 -605740 -1.497e+06 1.05704e+06
111 3 O -2.64861 17.5093 54.053 -1.2 -8.86913 -1.86088e+06 -2.81477e+06 -3.45737e+06 -1.40421e+06 -4115.38 174117
112 3 O -0.126005 17.6316 53.7669 -1.2 -8.79526 -2.39222e+06 -2.60692e+06 -3.74285e+06 1.82999e+06 1.05302e+06 380522
113 1 Mg -3.03195 26.0285 57.5183 1.2 -7.30346 -1.15169e+06 -2.36829e+06 4.72104e+06 -1.76073e+06 -1.02212e+06 -674158
114 1 Mg -1.48778 25.88 49.8402 1.2 -8.43424 764762 2.16529e+06 2.11043e+06 -158496 269783 220012
115 2 Si -1.00491 23.3922 47.9274 2.4 -34.469 8.76469e+06 6.59854e+06 1.01656e+07 484837 2.32397e+06 -890327
116 3 O -0.927602 24.9615 47.9909 -1.2 -8.66752 -2.61073e+06 -4.20035e+06 -3.07067e+06 456639 -1.92893e+06 158317
117 3 O -1.55795 22.2588 51.7696 -1.2 -9.14279 -2.54212e+06 -1.87084e+06 -6.71629e+06 899647 243752 -594788
118 3 O -2.17411 22.8111 48.8277 -1.2 -8.75715 -1.18148e+06 -3.29108e+06 -3.80233e+06 1836.27 -365183 -984766
119 1 Mg 0.0423997 21.3296 46.8225 1.2 -7.08138 2.16749e+06 -436347 1.12311e+06 1.1243e+06 1.5924e+06 -928023
120 3 O 0.458537 22.7495 48.3911 -1.2 -8.6413 -1.74197e+06 -1.40994e+06 -2.49265e+06 -287796 -327850 1.03819e+06
121 1 Mg 1.49861 21.3427 54.5326 1.2 -8.65389 2.78624e+06 1.20399e+06 1.14913e+06 550345 12520.9 797145
122 2 Si 1.39786 23.957 56.4237 2.4 -32.8759 8.56207e+06 5.60185e+06 1.09777e+07 -328421 49437.9 1.36287e+06
123 3 O 1.32621 22.3504 56.516 -1.2 -9.33916 -4.92673e+06 -1.88194e+06 -4.08152e+06 100787 363501 828362
124 3 O 1.54441 24.9963 52.7297 -1.2 -9.44037 -3.11061e+06 -2.15484e+06 -4.99055e+06 582215 -639979 -171276
125 3 O 0.0667177 24.5791 55.693 -1.2 -9.19657 -744185 -2.25581e+06 -2.85648e+06 -895168 469286 174981
126 3 O 2.66174 24.396 55.6247 -1.2 -9.16249 -3.14523e+06 -3.31957e+06 -4.06756e+06 853642 622755 -528624
127 1 Mg -0.0335968 23.6229 52.2067 1.2 -7.62102 -321789 -863151 4.78487e+06 -1.18149e+06 1.87821e+06 -54321.8
128 1 Mg 2.01073 23.3445 49.4541 1.2 -7.87589 2.25805e+06 368830 455187 135691 -137083 -135200
129 2 Si 1.47594 25.6699 51.2449 2.4 -32.8159 7.74832e+06 4.9465e+06 1.04986e+07 33195.2 395266 -595120
130 3 O 1.58172 27.2371 51.3054 -1.2 -9.90989 -3.15372e+06 -2.01012e+06 -3.69586e+06 572409 -498400 945530
131 3 O 1.44108 24.7656 57.826 -1.2 -9.7064 -2.85624e+06 -1.39031e+06 -5.13157e+06 -718792 243834 669368
132 3 O 0.157925 25.0378 50.6651 -1.2 -8.99554 -3.14896e+06 -2.46314e+06 -4.86365e+06 1.09698e+06 -625492 89197.9
133 1 Mg -3.00341 23.6231 52.3098 1.2 -7.59075 -1.27928e+06 -2.20582e+06 3.91451e+06 1.15063e+06 -2.30633e+06 145393
134 3 O 2.71149 25.0232 50.4656 -1.2 -9.39752 -2.97096e+06 -2.17073e+06 -2.70567e+06 -234889 688457 217435
135 1 Mg -1.6358 23.6491 55.026 1.2 -8.35056 1.62501e+06 529205 678502 82454.6 328138 -2.10689e+06
136 2 Si -1.56053 21.6048 53.2356 2.4 -33.2656 6.40929e+06 5.36023e+06 1.1233e+07 -188790 804741 -2.15389e+06
137 3 O -1.60152 19.9477 53.2912 -1.2 -9.15514 -4.31885e+06 -494464 -4.61928e+06 -213363 -161054 697512
138 3 O -1.03938 22.8897 46.4223 -1.2 -7.63456 -3.03665e+06 -2.08469e+06 -3.01077e+06 -605312 -1.50337e+06 1.11753e+06
139 3 O -2.7236 22.3316 53.904 -1.2 -9.15365 -4.86143e+06 -4.3391e+06 -6.35524e+06 201143 1.59125e+06 28046.8
140 3 O -0.233281 22.1369 53.8904 -1.2 -8.83895 -3.21939e+06 -3.25154e+06 -4.46643e+06 927820 -729291 427963
141 1 Mg -2.90425 30.9386 57.5383 1.2 -6.85525 -1.91709e+06 -1.10301e+06 4.1998e+06 -1.40852e+06 -1.82688e+06 -1.15138e+06
142 1 Mg -1.38776 30.6357 49.8391 1.2 -8.41836 625645 2.42746e+06 1.948e+06 -149869 234249 309984
143 2 Si -0.907929 28.1491 47.9262 2.4 -34.4 8.63176e+06 7.08373e+06 9.70666e+06 480678 2.31312e+06 -864884
144 3 O -0.829229 29.7184 47.99 -1.2 -8.69767 -2.55372e+06 -4.45517e+06 -2.8619e+06 459170 -1.91697e+06 80184.3
145 3 O -1.45946 27.0152 51.769 -1.2 -8.97481 -2.6704e+06 -2.75888e+06 -7.75424e+06 713018 -503449 -201663
146 3 O -2.07744 27.5697 48.8273 -1.2 -8.79459 -1.09537e+06 -3.59179e+06 -3.53291e+06 10590.4 -380182 -996988
147 1 Mg 0.137907 26.087 46.819 1.2 -7.04277 2.11151e+06 -268143 956555 1.12407e+06 1.58827e+06 -965363
148 3 O 0.55579 27.5065 48.3893 -1.2 -8.67865 -1.68854e+06 -1.66617e+06 -2.2247e+06 -289938 -311148 1.04668e+06
149 1 Mg 1.42953 26.0341 54.5313 1.2 -7.8542 2.16862e+06 2.1113e+06 1.22927e+06 280052 -238047 235991
150 2 Si 1.7403 28.7125 56.5458 2.4 -31.8178 6.97663e+06 4.70986e+06 1.20189e+07 119697 213064 -211529
151 3 O 1.52913 27.1529 56.4975 -1.2 -10.1159 -2.29669e+06 -1.23697e+06 -4.12612e+06 1.15395e+06 -81666.8 1.08647e+06
152 3 O 1.6432 29.7522 52.7291 -1.2 -9.67796 -2.68314e+06 -2.05181e+06 -4.05317e+06 382596 -579054 -366059
153 3 O 0.32111 29.3616 55.9313 -1.2 -9.65934 203226 -3.21134e+06 -3.57336e+06 -609148 373714 283974
154 3 O 2.93178 29.4447 55.8381 -1.2 -9.86067 -1.70058e+06 -2.59664e+06 -4.61111e+06 1.02766e+06 -402878 585464
155 1 Mg 0.0647462 28.3794 52.2059 1.2 -7.59034 -137227 -435939 4.19529e+06 -1.01871e+06 1.53812e+06 -130315
156 1 Mg 2.10696 28.1021 49.4531 1.2 -7.82854 2.22544e+06 643040 145937 141451 -125100 -123755
157 2 Si 1.57592 30.4257 51.2442 2.4 -32.5857 7.75948e+06 5.44956e+06 9.53019e+06 69319.1 531731 -503631
158 3 O 1.68288 31.9926 51.3043 -1.2 -10.0844 -2.76721e+06 -2.58215e+06 -2.95591e+06 748127 -537495 621639
159 3 O 1.70821 29.3261 58.0522 -1.2 -9.84236 -2.36948e+06 -867271 -4.87474e+06 -34907.3 -1.01048e+06 1.37075e+06
160 3 O 0.258524 29.7935 50.6632 -1.2 -9.04809 -3.14781e+06 -2.76925e+06 -4.40112e+06 1.17537e+06 -577344 32244.6
161 1 Mg -2.90462 28.3797 52.308 1.2 -7.55183 -1.01007e+06 -1.69073e+06 3.61715e+06 1.36358e+06 -1.91857e+06 45736.1
162 3 O 2.81205 29.7787 50.4664 -1.2 -9.43037 -2.93569e+06 -2.47717e+06 -2.39302e+06 -299108 605066 83288.8
163 1 Mg -1.33906 28.4677 55.19 1.2 -7.68461 831570 1.67352e+06 2.3606e+06 162433 285985 -313475
164 2 Si -1.54118 26.2756 53.1784 2.4 -33.0711 5.98954e+06 4.81277e+06 1.10107e+07 203001 -661700 -1.01595e+06
165 3 O -1.59329 24.7348 53.0651 -1.2 -9.77688 -3.68034e+06 -3.80445e+06 -5.30082e+06 -1.14165e+06 194484 715826
166 3 O -0.943026 27.648 46.4208 -1.2 -7.67045 -2.97349e+06 -2.27674e+06 -2.8327e+06 -603926 -1.50469e+06 1.10406e+06
167 3 O -2.74313 27.0405 53.8729 -1.2 -9.26933 -2.90037e+06 -1.99725e+06 -4.23663e+06 -594429 957597 857265
168 3 O -0.252286 26.934 53.842 -1.2 -9.27987 -3.24097e+06 -1.60124e+06 -4.97616e+06 1.20769e+06 -1.50781e+06 988376
169 1 Mg -2.90389 35.7854 57.4946 1.2 -6.92468 -2.49488e+06 -502532 4.68449e+06 -218401 -1.5123e+06 -517665
170 1 Mg -1.28421 35.3899 49.8376 1.2 -8.44082 755193 2.28084e+06 1.99442e+06 -181111 327227 789253
171 2 Si -0.807101 32.9036 47.9247 2.4 -34.3505 8.54801e+06 7.48305e+06 9.31207e+06 498895 2.32939e+06 -389194
172 3 O -0.727174 34.4729 47.9885 -1.2 -8.70244 -2.54902e+06 -4.52973e+06 -2.79769e+06 459007 -1.9357e+06 -227192
173 3 O -1.35735 31.7701 51.768 -1.2 -9.32535 -1.36545e+06 -2.92939e+06 -3.52972e+06 320164 -146092 -584832
174 3 O -1.97695 32.3253 48.826 -1.2 -8.83 -1.03264e+06 -3.88341e+06 -3.27088e+06 16535.4 -390263 -1.19117e+06
175 1 Mg 0.237665 30.8412 46.8168 1.2 -7.01309 2.06754e+06 -72872 761263 1.12414e+06 1.58466e+06 -844707
176 3 O 0.656562 32.2608 48.3877 -1.2 -8.71073 -1.63258e+06 -1.92298e+06 -1.97928e+06 -296418 -302222 825735
177 1 Mg 1.70458 30.8228 54.579 1.2 -7.58783 1.02662e+06 1.46344e+06 1.60823e+06 -543612 343929 576993
178 2 Si 1.6208 33.4644 56.4551 2.4 -31.3678 5.04138e+06 4.8745e+06 1.28034e+07 1.89859e+06 545354 896200
179 3 O 1.60471 31.897 56.5253 -1.2 -10.4713 -2.49269e+06 -1.29208e+06 -3.89243e+06 114123 -328144 -262970
180 3 O 1.74574 34.5067 52.7279 -1.2 -9.45136 -2.71525e+06 -2.77069e+06 -4.23044e+06 129142 -883776 -971543
181 3 O 0.296578 34.1238 55.826 -1.2 -10.2874 -1.32639e+06 -2.0613e+06 -4.15365e+06 -706858 -225730 -508214
182 3 O 2.8781 34.1349 55.6827 -1.2 -9.63732 1.04368e+06 -1.23132e+06 -4.86827e+06 382468 587719 -460336
183 1 Mg 0.167046 33.1343 52.2045 1.2 -7.43478 -836844 207825 4.18073e+06 -986551 1.69616e+06 632246
184 1 Mg 2.20727 32.8578 49.4516 1.2 -7.77832 2.15563e+06 954238 -168340 92440.4 -162658 202501
185 2 Si 1.67943 35.1802 51.2429 2.4 -32.8854 7.81003e+06 5.24544e+06 1.02216e+07 290122 304761 884347
186 3 O 1.78736 36.747 51.303 -1.2 -9.80736 -3.15693e+06 -2.16354e+06 -4.0405e+06 604018 -661715 440052
187 3 O 1.81637 34.2009 57.8997 -1.2 -9.8926 -946820 -992781 -5.1349e+06 676931 1.03908e+06 935863
188 3 O 0.362533 34.5479 50.661 -1.2 -8.99685 -2.94252e+06 -2.8307e+06 -4.63457e+06 1.18948e+06 -653938 -637977
189 1 Mg -2.80215 33.1347 52.3062 1.2 -7.20507 -666969 -507791 3.7523e+06 1.63703e+06 -1.87808e+06 987650
190 3 O 2.91593 34.533 50.466 -1.2 -9.4771 -2.90366e+06 -2.56184e+06 -2.02969e+06 -299840 909144 -588746
191 1 Mg -1.33071 33.0754 55.0438 1.2 -7.61335 1.55129e+06 1.25248e+06 -59557.9 -679011 -481204 -1.93435e+06
192 2 Si -1.41725 31.0609 53.29 2.4 -31.9795 5.12709e+06 4.64621e+06 1.20395e+07 772966 -315570 -725530
193 3 O -1.49779 29.5326 53.1129 -1.2 -9.972 -2.6195e+06 -3.51034e+06 -4.11398e+06 -502463 432241 962747
194 3 O -0.842495 32.4028 46.4192 -1.2 -7.6917 -2.93709e+06 -2.43335e+06 -2.68089e+06 -606264 -1.50584e+06 931712
195 3 O -2.67721 31.7671 53.952 -1.2 -9.91732 -2.44032e+06 -3.50456e+06 -4.28382e+06 -778416 422093 63978.1
196 3 O -0.160341 31.7193 53.9988 -1.2 -9.81327 -1.31201e+06 -2.55292e+06 -4.17468e+06 1.1188e+06 -369353 305161
197 1 Mg -2.38184 40.2466 57.252 1.2 -7.51868 -2.27977e+06 -1.28192e+06 4.76892e+06 -748385 -1.42485e+06 -833810
198 1 Mg -1.17787 40.1435 49.8359 1.2 -8.36494 694636 2.46847e+06 1.75021e+06 -195597 177323 887450
199 2 Si -0.702692 37.6572 47.9231 2.4 -34.3795 8.61741e+06 7.31881e+06 9.45285e+06 479376 2.33021e+06 -140038
200 3 O -0.621782 39.2264 47.9868 -1.2 -8.69936 -2.57461e+06 -4.53761e+06 -2.76944e+06 465356 -1.92518e+06 -331778
201 3 O -1.25221 36.5242 51.7666 -1.2 -9.04325 -2.91493e+06 -2.62303e+06 -4.43056e+06 826703 -470484 -865389
202 3 O -1.87295 37.0796 48.8243 -1.2 -8.80417 -1.0933e+06 -3.72697e+06 -3.39615e+06 31276.4 -378168 -1.37179e+06
203 1 Mg 0.341084 35.5943 46.8152 1.2 -7.01576 2.06906e+06 -75856.1 768952 1.12352e+06 1.58837e+06 -620885
204 3 O 0.760681 37.0138 48.3864 -1.2 -8.68728 -1.65697e+06 -1.80005e+06 -2.10175e+06 -300211 -311636 670445
205 1 Mg 1.54991 35.5583 54.601 1.2 -7.59408 467626 1.70188e+06 1.29073e+06 1.10017e+06 -283598 866498
206 2 Si 1.69971 38.2744 56.4813 2.4 -31.8106 3.93198e+06 4.31752e+06 1.36879e+07 26606.1 416022 -1.12068e+06
207 3 O 1.64343 36.7318 56.5336 -1.2 -10.7626 -2.31408e+06 -2.55182e+06 -5.68629e+06 -1.00406e+06 628787 833376
208 3 O 1.85132 39.2606 52.7264 -1.2 -9.59444 -2.47364e+06 -3.52917e+06 -6.62464e+06 392220 -378444 -2.22849e+06
209 3 O 0.578945 39.1034 55.694 -1.2 -9.76297 -3.583e+06 -2.1975e+06 -3.33418e+06 -361304 298740 -212810
210 3 O 3.04008 38.8122 55.732 -1.2 -9.02211 -1.02978e+06 -3.72889e+06 -5.23052e+06 1.8976e+06 -186336 -389655
211 1 Mg 0.272384 37.8883 52.2029 1.2 -7.57745 -630515 -457951 3.87269e+06 -930883 2.11655e+06 871705
212 1 Mg 2.31122 37.6122 49.4501 1.2 -7.81817 2.18599e+06 772849 58891.2 131359 -166531 286108
213 2 Si 1.78573 39.934 51.2414 2.4 -32.5133 7.05818e+06 5.80078e+06 9.83337e+06 333503 518104 841232
214 3 O 1.89428 41.5006 51.3014 -1.2 -9.95038 -2.91902e+06 -2.21882e+06 -3.71982e+06 764000 -343347 26915
215 3 O 1.93284 38.9425 57.9303 -1.2 -9.72074 -1.10688e+06 -1.32927e+06 -5.14328e+06 650864 1.03843e+06 1.43571e+06
216 3 O 0.469216 39.3015 50.6588 -1.2 -9.12373 -2.97461e+06 -2.8616e+06 -4.48482e+06 1.07657e+06 -705558 -366514
217 1 Mg -2.69668 37.8889 52.3043 1.2 -7.42964 -772231 -1.32028e+06 3.58825e+06 1.97233e+06 -2.19826e+06 1.49872e+06
218 3 O 3.0225 39.2866 50.4651 -1.2 -9.50675 -2.67779e+06 -2.66383e+06 -2.16054e+06 -306358 828658 -547102
219 1 Mg -1.09687 37.992 55.2175 1.2 -7.23469 1.94369e+06 1.0136e+06 1.06362e+06 83083.5 -940965 -157755
220 2 Si -1.3478 35.8752 53.2879 2.4 -32.3866 7.83553e+06 5.36053e+06 1.02408e+07 -459953 -1.7143e+06 -654518
221 3 O -1.26201 34.3066 53.2197 -1.2 -9.92811 -2.882e+06 -1.41922e+06 -3.92273e+06 -568590 402787 1.01555e+06
222 3 O -0.738054 37.1566 46.4176 -1.2 -7.68343 -2.95263e+06 -2.4027e+06 -2.71177e+06 -604977 -1.5065e+06 765789
223 3 O -2.66501 36.5626 53.8335 -1.2 -9.53103 -43476.7 -3.43039e+06 -4.49537e+06 -363913 649167 -588078
224 3 O 0.0179403 36.4556 53.87 -1.2 -9.80335 -2.01543e+06 -3.59365e+06 -3.68976e+06 786240 -1.51302e+06 6066.21
225 1 Mg -2.69682 44.9978 57.4998 1.2 -7.77845 -182546 -1.73694e+06 4.95946e+06 -287421 -1.65139e+06 -201686
226 1 Mg -1.06993 44.8968 49.8343 1.2 -8.66303 1.01804e+06 1.96038e+06 2.40475e+06 -126855 318092 1.02943e+06
227 2 Si -0.596166 42.4103 47.9215 2.4 -34.495 8.81178e+06 7.05705e+06 9.71008e+06 489318 2.31206e+06 435616
228 3 O -0.51472 43.9796 47.9853 -1.2 -8.58827 -2.73146e+06 -4.22128e+06 -3.1107e+06 460866 -1.92545e+06 -524968
229 3 O -1.14475 41.2777 51.7649 -1.2 -9.32545 -2.20005e+06 -3.05736e+06 -5.92288e+06 312313 689499 -1.05561e+06
230 3 O -1.76671 41.8331 48.8226 -1.2 -8.76695 -1.13134e+06 -3.68904e+06 -3.4535e+06 3753.57 -346733 -1.70564e+06
231 1 Mg 0.447076 40.3473 46.8135 1.2 -7.03404 2.10532e+06 -95390.1 781329 1.12348e+06 1.59184e+06 -446529
232 3 O 0.866985 41.7666 48.385 -1.2 -8.65301 -1.72757e+06 -1.75596e+06 -2.12823e+06 -283358 -326909 365441
233 1 Mg 1.97759 40.3134 54.3193 1.2 -8.22058 -399145 980603 -502254 -728264 151879 -223968
234 2 Si 2.02937 42.8564 56.3321 2.4 -32.2008 8.17361e+06 4.7656e+06 1.32743e+07 -1.39175e+06 137311 1.38439e+06
235 3 O 2.02097 41.382 56.3232 -1.2 -10.0108 -2.74903e+06 -4.61564e+06 -4.621e+06 -547824 -505618 -1.31358e+06
236 3 O 1.95891 44.014 52.7248 -1.2 -9.0382 -3.04103e+06 -2.20675e+06 -4.81038e+06 -807750 -1.00481e+06 -1.06875e+06
237 3 O 0.698787 43.7942 55.6423 -1.2 -9.12235 470590 -737840 -4.87128e+06 -2.16617e+06 -360245 -1.1606e+06
238 3 O 3.36182 43.6529 55.8568 -1.2 -9.27971 -1.26169e+06 -2.12967e+06 -4.27436e+06 2.13392e+06 102044 -274165
239 1 Mg 0.379928 42.6418 52.2013 1.2 -7.67182 -143824 -992027 4.65164e+06 -1.22493e+06 1.87543e+06 841809
240 1 Mg 2.41752 42.366 49.4484 1.2 -7.88568 2.2839e+06 653669 193996 109579 -134365 643393
241 2 Si 1.89374 44.6874 51.2398 2.4 -33.3456 8.67457e+06 4.41319e+06 1.08904e+07 116797 583124 695155
242 3 O 2.00266 46.254 51.2996 -1.2 -9.57809 -3.86267e+06 -1.81566e+06 -3.98179e+06 821156 -934137 575914
243 3 O 1.80092 43.5857 57.8762 -1.2 -9.05139 -1.84212e+06 -544198 -3.69883e+06 404847 -653502 1.7034e+06
244 3 O 0.577464 44.0549 50.6567 -1.2 -8.81809 -3.33207e+06 -2.46816e+06 -4.68003e+06 1.30149e+06 -764647 -783455
245 1 Mg -2.58906 42.6425 52.3022 1.2 -7.60651 -1.11394e+06 -1.52436e+06 3.84393e+06 903447 -2.16142e+06 499308
246 3 O 3.13067 44.0398 50.464 -1.2 -9.24289 -3.25016e+06 -2.19602e+06 -2.60037e+06 -310024 827635 -664147
247 1 Mg -1.03948 42.666 55.1175 1.2 -8.03512 1.87477e+06 1.01304e+06 653403 318791 -41294.8 56691.2
248 2 Si -1.08317 40.5564 53.1873 2.4 -32.4368 7.56457e+06 4.34133e+06 1.1616e+07 497018 946269 690351
249 3 O -1.14509 39.0378 53.1309 -1.2 -10.0859 -3.05104e+06 -3.27825e+06 -4.05647e+06 602220 676398 -590446
250 3 O -0.631421 41.9099 46.4159 -1.2 -7.64595 -3.01516e+06 -2.30347e+06 -2.80771e+06 -605245 -1.50414e+06 566642
251 3 O -2.35772 41.2058 53.9064 -1.2 -9.357 -2.62664e+06 -3.46488e+06 -5.15323e+06 -1.68781e+06 1.59494e+06 541614
252 3 O 0.295139 41.275 53.8805 -1.2 -9.18833 -585346 -2.65738e+06 -3.4526e+06 1.92033e+06 -199063 1.2314e+06
253 1 Mg -2.27262 49.7591 57.1854 1.2 -7.28906 -1.56134e+06 -1.65226e+06 4.4054e+06 102871 -1.73755e+06 -960751
254 1 Mg -0.961069 49.6502 49.8327 1.2 -8.47824 767635 2.35851e+06 1.96963e+06 -227833 276514 436665
255 2 Si -0.488083 47.1636 47.9198 2.4 -34.6435 8.97285e+06 6.65904e+06 1.01859e+07 487147 2.31816e+06 -173971
256 3 O -0.40607 48.7329 47.9837 -1.2 -8.60446 -2.69219e+06 -4.31817e+06 -3.02027e+06 462626 -1.92456e+06 -145742
257 3 O -1.0361 46.031 51.7632 -1.2 -8.53333 -2.21763e+06 -1.935e+06 -3.10718e+06 303572 -432016 -2.20814e+06
258 3 O -1.65866 46.5866 48.821 -1.2 -8.62271 -1.34209e+06 -3.35068e+06 -3.81957e+06 13577 -439903 -1.41175e+06
259 1 Mg 0.554124 45.1001 46.8117 1.2 -7.11175 2.22522e+06 -374674 1.06591e+06 1.12018e+06 1.5821e+06 -439209
260 3 O 0.974961 46.5195 48.3832 -1.2 -8.5346 -1.90966e+06 -1.43347e+06 -2.45717e+06 -286598 -264633 622574
261 1 Mg 1.73398 45.2301 54.6344 1.2 -8.18649 1.02064e+06 -109948 2.12706e+06 25032.1 -214109 767853
262 2 Si 2.00531 47.7325 56.5259 2.4 -31.4653 6.60655e+06 6.55944e+06 1.10106e+07 -36191.2 -129268 -641529
263 3 O 1.92475 46.1396 56.5183 -1.2 -10.0118 -2.74414e+06 -309777 -5.24373e+06 -177548 15468.3 -1.16333e+06
264 3 O 2.0677 48.7672 52.7232 -1.2 -9.4775 -2.85128e+06 -2.12442e+06 -4.36853e+06 114240 -345008 -1.51205e+06
265 3 O 0.777474 48.5445 55.8127 -1.2 -9.86054 -1.53724e+06 -3.16753e+06 -4.25829e+06 -1.96642e+06 -459929 -406345
266 3 O 3.37079 48.4347 55.7108 -1.2 -9.71696 227632 -2.60545e+06 -3.77752e+06 2.52695e+06 -840662 -1.09299e+06
267 1 Mg 0.488584 47.395 52.1996 1.2 -8.01602 -822887 -1.08058e+06 3.87119e+06 14061 2.06435e+06 123886
268 1 Mg 2.52544 47.1195 49.4466 1.2 -8.00549 2.62968e+06 383782 315485 112063 -148098 249787
269 2 Si 2.00256 49.4407 51.2382 2.4 -32.8207 7.86603e+06 5.05683e+06 1.01993e+07 602952 308422 502960
270 3 O 2.11156 51.0073 51.2982 -1.2 -10.0985 -2.44136e+06 -2.42634e+06 -3.37146e+06 596198 -621112 401187
271 3 O 2.09067 48.357 57.9271 -1.2 -9.83558 -2.16858e+06 -3.40815e+06 -6.85103e+06 695954 -1.34138e+06 988163
272 3 O 0.686344 48.8082 50.655 -1.2 -8.80583 -3.4654e+06 -2.55969e+06 -5.26118e+06 921411 -229863 -51603.1
273 1 Mg -2.48039 47.3957 52.3005 1.2 -7.67127 401122 -1.50361e+06 3.53354e+06 1.61201e+06 -2.00338e+06 968827