ITEM: TIMESTEP
14100
ITEM: NUMBER OF ATOMS
10500
ITEM: BOX BOUNDS xy xz yz pp pp pp
0.0000000000000000e+00 8.9687999999999999e+00 2.9895999999999998e+00
0.0000000000000000e+00 1.1872499999999999e+02 0.0000000000000000e+00
0.0000000000000000e+00 2.5297749999999999e+02 0.0000000000000000e+00
ITEM: ATOMS id type element xu yu zu q c_pe c_s[1] c_s[2] c_s[3] c_s[4] c_s[5] c_s[6]
1 1 Mg -3.32552 6.99074 57.3996 1.2 -8.40745 971636 -970855 5.03524e+06 -1.38812e+06 -1.50129e+06 -877241
2 1 Mg -1.82655 6.90154 50.0912 1.2 -8.58084 549246 838641 1.56623e+06 -90686 -201363 1.53498e+06
3 2 Si -0.257935 3.96038 48.0876 2.4 -36.7055 1.10672e+07 8.64704e+06 1.09484e+07 790240 1.98765e+06 2.05973e+06
4 3 O -0.335812 5.46814 47.6264 -1.2 -7.48043 -3.57374e+06 -2.36352e+06 -2.63452e+06 148554 -967499 -708886
5 3 O -2.03793 3.43377 51.8941 -1.2 -8.60964 -3.86175e+06 -2.07206e+06 -7.47512e+06 -889556 1.23672e+06 -1.43468e+06
6 3 O -1.54015 3.53929 48.9521 -1.2 -7.96944 -1.85384e+06 -1.59199e+06 -4.34496e+06 32374.7 -738622 -425343
7 1 Mg 1.82954 2.54582 47.1376 1.2 -8.30754 3.10719e+06 -542880 796722 1.14912e+06 829145 723882
8 3 O 1.22989 3.66364 48.7877 -1.2 -7.6817 -2.17512e+06 -2.33196e+06 -3.74967e+06 -480805 -720750 -1.1396e+06
9 1 Mg 0.998399 2.35215 54.631 1.2 -8.75186 3.53622e+06 701014 1.98209e+06 28714.9 -41529.4 1.21897e+06
10 2 Si 1.07471 4.98013 56.4624 2.4 -34.2472 8.60633e+06 3.5292e+06 1.10851e+07 66395.9 243447 537186
11 3 O 1.0282 3.42297 56.552 -1.2 -9.13065 -4.39255e+06 -2.22461e+06 -4.48155e+06 268005 -246677 -765541
12 3 O 1.10813 6.07342 52.8172 -1.2 -8.8141 -3.74109e+06 -2.62457e+06 -4.57162e+06 499449 -463127 -1.36939e+06
13 3 O -0.213819 5.62831 55.8767 -1.2 -8.70658 -4.78718e+06 -3.15742e+06 -4.9106e+06 159442 -1.16756e+06 -410086
14 3 O 2.31986 5.63502 55.7539 -1.2 -8.67209 -3.21294e+06 -2.33063e+06 -4.81087e+06 140641 1.20797e+06 -178049
15 1 Mg -0.459401 4.67631 52.2426 1.2 -8.35274 198688 -1.34853e+06 5.31543e+06 -1.46544e+06 1.27821e+06 1.06283e+06
16 1 Mg 2.79456 3.9971 49.9987 1.2 -8.71491 4.1286e+06 -165464 1.75668e+06 -475365 790580 -666065
17 2 Si 1.16169 6.59457 51.2556 2.4 -34.2457 8.65707e+06 5.61776e+06 1.19227e+07 8466.08 495345 2.94375e+06
18 3 O 1.28989 8.18905 51.2909 -1.2 -9.23019 -3.53764e+06 -1.27554e+06 -3.67144e+06 294038 -725639 664950
19 3 O 1.14174 5.62097 57.9379 -1.2 -8.545 -4.78037e+06 -2.17657e+06 -5.9996e+06 440120 -885213 302135
20 3 O -0.184847 6.06029 50.6845 -1.2 -8.36913 -3.56385e+06 -2.9095e+06 -5.31063e+06 1.55748e+06 -289282 -1.65234e+06
21 1 Mg -3.49704 4.67769 52.6661 1.2 -8.0657 316745 -2.30098e+06 3.04748e+06 2.50296e+06 -1.2483e+06 1.35878e+06
22 3 O 2.48581 5.93312 50.6539 -1.2 -8.92049 -3.68058e+06 -1.27419e+06 -3.37089e+06 -1.66758e+06 -638780 -1.04084e+06
23 1 Mg -1.84803 4.6408 55.2327 1.2 -8.71823 2.77462e+06 1.74498e+06 1.53705e+06 -314658 -547377 -601158
24 2 Si -1.96825 2.66529 53.2707 2.4 -34.5046 9.04628e+06 3.17675e+06 1.23766e+07 932294 444512 -446928
25 3 O -1.98722 1.10702 53.2569 -1.2 -8.81409 -4.26851e+06 -1.70828e+06 -4.26987e+06 242096 -266239 -56332.4
26 3 O -0.0467762 2.97103 46.8385 -1.2 -6.70142 -3.46001e+06 -2.10598e+06 -2.92145e+06 -988489 -2.00866e+06 -817379
27 3 O -3.20082 3.27165 54.0468 -1.2 -8.5847 -3.8891e+06 -3.28846e+06 -6.15714e+06 85468.4 611909 206432
28 3 O -0.659705 3.26568 54.0072 -1.2 -8.53046 -3.6518e+06 -2.83811e+06 -3.89484e+06 528301 185630 263125
29 1 Mg -3.21855 11.7936 57.4983 1.2 -7.99052 606323 -1.6103e+06 5.21762e+06 -1.01157e+06 -1.49575e+06 -446533
30 1 Mg -1.75014 11.5838 49.8362 1.2 -8.69592 1.25946e+06 1.94353e+06 2.43149e+06 -313826 313651 592380
31 2 Si -1.18003 9.02138 47.9309 2.4 -35.0336 9.39044e+06 6.9816e+06 9.96543e+06 238495 2.61141e+06 292592
32 3 O -1.23224 10.5991 47.9811 -1.2 -8.42592 -2.96187e+06 -3.52735e+06 -2.84915e+06 651527 -1.92568e+06 141016
33 3 O -1.79016 8.01447 51.8693 -1.2 -8.65059 -2.92116e+06 -2.64727e+06 -4.63461e+06 204709 -277224 -2.03056e+06
34 3 O -2.30986 8.37215 48.8528 -1.2 -8.64025 -1.53673e+06 -2.40354e+06 -3.51545e+06 -331172 -629556 -847064
35 1 Mg 0.154883 7.08234 46.8007 1.2 -7.82968 2.38303e+06 -237558 881914 942556 1.72184e+06 -905299
36 3 O 0.325447 8.50934 48.3809 -1.2 -8.29991 -1.93888e+06 -1.85355e+06 -2.84997e+06 -37267.6 -812872 357161
37 1 Mg 1.06401 7.09561 54.6425 1.2 -8.7515 3.15841e+06 1.04296e+06 1.51963e+06 471057 -463994 1.16576e+06
38 2 Si 1.13149 9.72238 56.477 2.4 -34.3517 9.00275e+06 4.17276e+06 1.19107e+07 395429 -358101 656339
39 3 O 1.12379 8.18027 56.5294 -1.2 -8.95222 -5.04281e+06 -1.71299e+06 -4.70265e+06 96575.9 173361 -222867
40 3 O 1.28624 10.7248 52.7351 -1.2 -8.94137 -3.72317e+06 -1.67008e+06 -4.83696e+06 258167 -616361 -779604
41 3 O -0.141548 10.4048 55.8217 -1.2 -8.51768 -3.75758e+06 -3.39487e+06 -5.12034e+06 -876313 -1.16438e+06 -613946
42 3 O 2.42823 10.3778 55.7839 -1.2 -8.63413 -2.78681e+06 -2.92314e+06 -3.75381e+06 634448 1.07353e+06 -1.07136e+06
43 1 Mg -0.262694 9.34741 52.2523 1.2 -8.23209 438199 -1.11524e+06 5.24831e+06 -1.35495e+06 1.39785e+06 1.12013e+06
44 1 Mg 1.87648 9.01537 49.4629 1.2 -8.19924 2.55543e+06 332107 465075 231444 -257699 277739
45 2 Si 1.21415 11.3799 51.2378 2.4 -33.5537 8.72141e+06 4.63989e+06 1.13204e+07 255223 386754 291937
46 3 O 1.31634 12.9512 51.3023 -1.2 -9.62717 -3.34802e+06 -1.74926e+06 -3.79465e+06 569488 -346536 907700
47 3 O 1.11326 10.4086 57.9391 -1.2 -8.76226 -3.93108e+06 -1.76756e+06 -6.66889e+06 918675 -347056 376258
48 3 O -0.115718 10.7564 50.681 -1.2 -8.62547 -3.42585e+06 -2.26215e+06 -4.95988e+06 1.1483e+06 -558926 -453079
49 1 Mg -3.26386 9.35564 52.3622 1.2 -8.04159 426561 -1.65049e+06 4.51359e+06 1.67286e+06 -1.62661e+06 1.11603e+06
50 3 O 2.45216 10.7265 50.4558 -1.2 -9.1382 -3.29133e+06 -1.70972e+06 -2.45814e+06 -729264 566788 116219
51 1 Mg -1.79015 9.51992 55.2495 1.2 -8.9267 2.64585e+06 1.12374e+06 1.18503e+06 -351465 -136560 -1.00772e+06
52 2 Si -1.82267 7.387 53.4359 2.4 -34.1665 8.76769e+06 5.0005e+06 1.29552e+07 350183 -772447 1.05044e+06
53 3 O -1.89307 5.83356 53.3428 -1.2 -9.1132 -3.69237e+06 -1.47987e+06 -5.10598e+06 267735 293437 -60249.1
54 3 O -1.19417 8.46968 46.4488 -1.2 -7.3311 -3.21645e+06 -1.9451e+06 -3.04747e+06 -542159 -1.74233e+06 801623
55 3 O -3.07099 8.1075 54.105 -1.2 -8.52443 -3.23938e+06 -2.75142e+06 -3.77284e+06 -468073 641853 -360693
56 3 O -0.543407 8.09357 54.0519 -1.2 -8.55412 -4.05647e+06 -2.6439e+06 -5.03983e+06 1.30572e+06 -822782 -287263
57 1 Mg -3.1815 16.5473 57.4787 1.2 -7.87911 -23405.7 -1.52691e+06 4.5832e+06 -829964 -1.72829e+06 -652961
58 1 Mg -1.6714 16.3544 49.8412 1.2 -8.66372 1.17264e+06 2.03242e+06 2.2511e+06 -204499 246890 674340
59 2 Si -1.18567 13.8526 47.9314 2.4 -34.822 9.35385e+06 6.40135e+06 1.02692e+07 498464 2.26901e+06 -527904
60 3 O -1.09664 15.4205 47.9915 -1.2 -8.4919 -2.82782e+06 -3.96419e+06 -3.12547e+06 424882 -1.938e+06 -112228
61 3 O -1.73493 12.7491 51.7772 -1.2 -9.0311 -2.64181e+06 -2.1411e+06 -5.43644e+06 357961 -128229 -441863
62 3 O -2.36115 13.2717 48.8238 -1.2 -8.56662 -1.54207e+06 -3.16771e+06 -3.74976e+06 -102733 -375048 -1.11317e+06
63 1 Mg -0.159928 11.7639 46.8533 1.2 -7.26754 2.50451e+06 -558691 1.2094e+06 1.12829e+06 1.57259e+06 -956907
64 3 O 0.2623 13.1866 48.413 -1.2 -8.46305 -2.0297e+06 -1.21252e+06 -2.57883e+06 -201076 -288017 921025
65 1 Mg 1.30603 11.83 54.5716 1.2 -8.67669 2.75417e+06 1.22036e+06 1.34585e+06 -292618 284322 792839
66 2 Si 1.30159 14.4468 56.3958 2.4 -33.2022 8.97791e+06 5.1357e+06 1.05915e+07 982203 -752373 350802
67 3 O 1.27467 12.9111 56.4681 -1.2 -9.50938 -3.65289e+06 -2.51355e+06 -3.82205e+06 428468 139388 -935486
68 3 O 1.36565 15.4813 52.729 -1.2 -9.25843 -3.19246e+06 -2.52551e+06 -4.75535e+06 157228 -381738 -1.05247e+06
69 3 O 0.0594101 15.1301 55.7047 -1.2 -9.1819 -2.77379e+06 -2.878e+06 -4.31893e+06 -651751 -858759 18312.2
70 3 O 2.64132 15.204 55.7695 -1.2 -8.93585 -1.36782e+06 -2.2286e+06 -3.41551e+06 1.33125e+06 276922 -86233
71 1 Mg -0.206989 14.1049 52.2121 1.2 -7.8645 -296907 -632353 4.53335e+06 -1.24808e+06 1.79206e+06 521798
72 1 Mg 1.82591 13.8102 49.4556 1.2 -8.07035 2.59771e+06 545070 335470 138259 -141927 154278
73 2 Si 1.29285 16.1518 51.2434 2.4 -33.3421 8.41191e+06 4.92707e+06 1.07101e+07 246951 330805 608953
74 3 O 1.39496 17.7199 51.3047 -1.2 -9.55899 -3.47086e+06 -1.78687e+06 -4.09071e+06 608680 -390365 527640
75 3 O 1.28636 15.1281 57.8781 -1.2 -9.1022 -3.4662e+06 -2.02065e+06 -5.27271e+06 164166 445281 1.35416e+06
76 3 O -0.0269106 15.5178 50.6688 -1.2 -8.77125 -3.42122e+06 -2.46216e+06 -4.88918e+06 1.07643e+06 -659167 -331530
77 1 Mg -3.18391 14.1057 52.3125 1.2 -7.62363 -182063 -850271 4.13281e+06 1.66177e+06 -1.73505e+06 516622
78 3 O 2.52432 15.503 50.4579 -1.2 -9.20169 -3.21789e+06 -2.17196e+06 -2.36968e+06 -325902 811896 -289441
79 1 Mg -1.6237 14.1856 55.1004 1.2 -8.36274 2.30012e+06 2.19722e+06 1.25896e+06 -348342 -468972 -749923
80 2 Si -1.72387 12.0612 53.2364 2.4 -33.632 8.43555e+06 4.81912e+06 1.2095e+07 593251 23782.2 -523184
81 3 O -1.75612 10.4923 53.217 -1.2 -9.04716 -4.12772e+06 -2.0264e+06 -4.5485e+06 428479 293525 269031
82 3 O -1.21337 13.3381 46.4311 -1.2 -7.45444 -3.38505e+06 -1.86869e+06 -3.17435e+06 -631343 -1.45488e+06 1.02001e+06
83 3 O -2.97656 12.6962 53.9692 -1.2 -9.02584 -2.9632e+06 -2.83929e+06 -4.01952e+06 -746136 609492 286991
84 3 O -0.403629 12.7448 53.9069 -1.2 -8.94115 -1.89056e+06 -2.38337e+06 -3.74509e+06 962517 -263758 567693
85 1 Mg -3.0289 21.2641 57.4886 1.2 -7.75801 -340758 -993830 5.48385e+06 -1.34501e+06 -1.26269e+06 -683702
86 1 Mg -1.5831 21.1217 49.8405 1.2 -8.78924 1.31636e+06 1.80946e+06 2.48293e+06 -191251 194695 703564
87 2 Si -1.09384 18.6291 47.9287 2.4 -34.9109 9.4842e+06 6.37284e+06 1.03699e+07 485904 2.3297e+06 -230230
88 3 O -1.02071 20.1985 47.9911 -1.2 -8.41247 -3.01494e+06 -3.92381e+06 -3.28953e+06 459913 -1.92714e+06 -199743
89 3 O -1.65002 17.5002 51.771 -1.2 -8.9006 -3.087e+06 -1.81076e+06 -5.54418e+06 533031 -338590 -600167
90 3 O -2.26174 18.0434 48.8281 -1.2 -8.53846 -1.54319e+06 -3.22703e+06 -3.82442e+06 -14075.5 -365421 -1.27963e+06
91 1 Mg -0.0440435 16.5651 46.8269 1.2 -7.25561 2.42347e+06 -479546 1.17636e+06 1.13422e+06 1.5806e+06 -717022
92 3 O 0.37001 17.9877 48.3925 -1.2 -8.42632 -2.0871e+06 -1.34717e+06 -2.54883e+06 -287958 -333207 710346
93 1 Mg 1.31923 16.4682 54.5433 1.2 -8.38261 2.7413e+06 1.23251e+06 1.06576e+06 198108 137805 452814
94 2 Si 1.42825 19.1332 56.3967 2.4 -33.1435 8.39448e+06 4.08379e+06 1.22234e+07 675043 37041.9 -108808
95 3 O 1.33501 17.6106 56.549 -1.2 -9.70128 -3.93936e+06 -3.45711e+06 -4.57315e+06 507691 405380 451415
96 3 O 1.45147 20.239 52.7294 -1.2 -9.06552 -3.41196e+06 -2.20883e+06 -5.27274e+06 89591.7 -400233 -771807
97 3 O 0.176107 19.7889 55.6194 -1.2 -8.99643 -3.24254e+06 -2.10537e+06 -3.2224e+06 -954648 -234698 -5583.59
98 3 O 2.69227 19.8538 55.7272 -1.2 -8.8304 -2.67834e+06 -1.75478e+06 -4.35358e+06 1.14081e+06 275655 -183012
99 1 Mg -0.126194 18.8651 52.2079 1.2 -7.98089 296258 -713563 4.71433e+06 -1.36668e+06 1.73943e+06 770910
100 1 Mg 1.92402 18.5815 49.4545 1.2 -8.12244 2.61963e+06 374586 473274 127103 -147002 252894
101 2 Si 1.38106 20.9117 51.2443 2.4 -33.5897 8.99769e+06 4.59486e+06 1.08046e+07 250676 612777 396367
102 3 O 1.48527 22.4795 51.3054 -1.2 -9.44889 -3.69417e+06 -1.73826e+06 -4.0544e+06 777625 -452446 423169
103 3 O 1.43529 19.8861 57.8862 -1.2 -9.41523 -2.79113e+06 -1.61407e+06 -4.70208e+06 -256450 660230 1.54171e+06
104 3 O 0.0615419 20.2804 50.6669 -1.2 -8.68064 -3.6325e+06 -2.28177e+06 -4.79604e+06 1.21176e+06 -765895 -401642
105 1 Mg -3.09665 18.8643 52.3122 1.2 -7.87354 49604 -945103 4.34823e+06 1.86989e+06 -1.73069e+06 842316
106 3 O 2.61548 20.2646 50.4626 -1.2 -9.07106 -3.35645e+06 -2.02571e+06 -2.65421e+06 -412757 785996 -421125
107 1 Mg -1.51127 18.877 55.0998 1.2 -8.46161 2.63778e+06 1.36749e+06 1.16781e+06 -399079 -525990 -1.40896e+06
108 2 Si -1.64933 16.7978 53.2405 2.4 -33.3105 8.7039e+06 4.24219e+06 1.16204e+07 -184714 -858629 -514106
109 3 O -1.66937 15.2597 53.1707 -1.2 -9.66573 -3.33725e+06 -2.66248e+06 -4.47941e+06 200915 390131 517922
110 3 O -1.12868 18.1227 46.4249 -1.2 -7.44177 -3.35891e+06 -1.91029e+06 -3.17325e+06 -603569 -1.49705e+06 855362
111 3 O -2.93624 17.5091 53.9304 -1.2 -8.97087 -1.28571e+06 -2.62667e+06 -3.95955e+06 -731637 203152 544161
112 3 O -0.327605 17.4689 53.8484 -1.2 -9.05762 -2.32196e+06 -2.90929e+06 -4.25117e+06 728899 -829004 113727
113 1 Mg -3.04327 26.0164 57.3827 1.2 -8.06423 -102306 -832150 5.07884e+06 -994176 -1.3229e+06 -1.04975e+06
114 1 Mg -1.48778 25.88 49.8402 1.2 -8.81186 1.34107e+06 1.78211e+06 2.51211e+06 -220923 186960 516708
115 2 Si -1.00491 23.3922 47.9274 2.4 -35.0206 9.64789e+06 6.15334e+06 1.06097e+07 492437 2.31931e+06 -365480
116 3 O -0.927602 24.9615 47.9909 -1.2 -8.37524 -3.08214e+06 -3.89594e+06 -3.38041e+06 461489 -1.92183e+06 -83821.1
117 3 O -1.55795 22.2588 51.7696 -1.2 -8.79001 -2.87995e+06 -2.14448e+06 -4.34335e+06 166320 318319 -825333
118 3 O -2.17411 22.8111 48.8277 -1.2 -8.4549 -1.64646e+06 -3.15965e+06 -3.96597e+06 2078.36 -362944 -1.25731e+06
119 1 Mg 0.0423997 21.3296 46.8225 1.2 -7.29641 2.51616e+06 -617128 1.29975e+06 1.12584e+06 1.58787e+06 -685950
120 3 O 0.458537 22.7495 48.3911 -1.2 -8.35884 -2.20897e+06 -1.23696e+06 -2.65779e+06 -292068 -325474 745282
121 1 Mg 1.47019 21.2229 54.5162 1.2 -8.62499 2.6863e+06 1.85784e+06 770070 -103497 138218 449740
122 2 Si 1.41482 23.9204 56.3795 2.4 -33.6208 7.50768e+06 3.95629e+06 1.21895e+07 30162.8 879198 374946
123 3 O 1.45317 22.382 56.4554 -1.2 -9.61496 -3.17303e+06 -2.30675e+06 -4.67039e+06 -182405 302760 -181158
124 3 O 1.54441 24.9963 52.7297 -1.2 -8.94661 -3.59185e+06 -1.77176e+06 -4.82135e+06 -248890 -191555 -570673
125 3 O 0.152406 24.6625 55.7129 -1.2 -8.79189 -2.92589e+06 -1.88609e+06 -5.21013e+06 -952453 -1.0245e+06 -575802
126 3 O 2.6949 24.6433 55.7928 -1.2 -8.80007 -3.52579e+06 -2.34888e+06 -5.94576e+06 745792 1.74245e+06 -580138
127 1 Mg -0.0335968 23.6229 52.2067 1.2 -8.18213 151318 -1.2978e+06 4.9212e+06 -1.28317e+06 1.99091e+06 871708
128 1 Mg 2.01073 23.3445 49.4541 1.2 -8.20206 2.77588e+06 233137 593440 110353 -148519 188409
129 2 Si 1.47594 25.6699 51.2449 2.4 -33.665 9.18e+06 4.31922e+06 1.1008e+07 559835 581616 -9040.03
130 3 O 1.58172 27.2371 51.3054 -1.2 -9.50906 -3.69031e+06 -1.83205e+06 -3.90482e+06 723121 -734840 623948
131 3 O 1.45554 24.6666 57.8103 -1.2 -8.91788 -4.05889e+06 -853765 -7.52925e+06 76628.6 1.15419e+06 1.12894e+06
132 3 O 0.157925 25.0378 50.6651 -1.2 -8.59279 -3.79697e+06 -2.10164e+06 -5.19577e+06 1.15638e+06 -632229 -157458
133 1 Mg -3.00341 23.6231 52.3098 1.2 -7.95903 457432 -1.08976e+06 4.12716e+06 1.88331e+06 -1.88767e+06 970995
134 3 O 2.71149 25.0232 50.4656 -1.2 -9.01585 -3.49504e+06 -1.97645e+06 -2.7323e+06 -379427 809401 -349459
135 1 Mg -1.57599 23.6502 55.2251 1.2 -8.37088 2.90562e+06 1.14785e+06 527368 141174 -323043 -580700
136 2 Si -1.52682 21.6241 53.2953 2.4 -33.5031 9.31171e+06 5.30702e+06 1.17735e+07 769912 303448 -552765
137 3 O -1.61063 20.0707 53.2569 -1.2 -9.32485 -3.76365e+06 -973838 -4.31495e+06 494632 360680 1.05403e+06
138 3 O -1.03938 22.8897 46.4223 -1.2 -7.40819 -3.39859e+06 -1.8251e+06 -3.27229e+06 -606152 -1.50121e+06 889276
139 3 O -2.82881 22.3076 53.9352 -1.2 -9.00769 -1.91504e+06 -3.0207e+06 -4.07797e+06 -348695 787370 271715
140 3 O -0.193361 22.3169 53.9244 -1.2 -8.90889 -1.22895e+06 -2.78958e+06 -3.15473e+06 895495 -443684 414190
141 1 Mg -2.91849 30.7255 57.5027 1.2 -8.11556 -351349 -857892 4.41758e+06 -773716 -1.90384e+06 -620514
142 1 Mg -1.38776 30.6357 49.8391 1.2 -8.78 1.25195e+06 1.80849e+06 2.51547e+06 -158241 227333 562714
143 2 Si -0.907929 28.1491 47.9262 2.4 -34.9805 9.5909e+06 6.27544e+06 1.0484e+07 492124 2.3022e+06 -568392
144 3 O -0.829229 29.7184 47.99 -1.2 -8.40747 -3.03156e+06 -3.97059e+06 -3.33542e+06 457842 -1.91852e+06 -33508.4
145 3 O -1.45946 27.0152 51.769 -1.2 -8.73259 -2.97929e+06 -2.03645e+06 -5.7188e+06 491048 1.06435e+06 -522759
146 3 O -2.07744 27.5697 48.8273 -1.2 -8.46992 -1.59806e+06 -3.23839e+06 -3.91753e+06 12330.6 -345988 -1.15359e+06
147 1 Mg 0.137907 26.087 46.819 1.2 -7.30181 2.53117e+06 -638962 1.32271e+06 1.12495e+06 1.58881e+06 -795032
148 3 O 0.55579 27.5065 48.3893 -1.2 -8.37265 -2.19674e+06 -1.29773e+06 -2.58171e+06 -294528 -328112 866368
149 1 Mg 1.56037 26.1153 54.5364 1.2 -8.61522 2.66008e+06 1.16966e+06 878665 429818 73443.9 362906
150 2 Si 1.54154 28.6941 56.3043 2.4 -33.654 1.01578e+07 2.71732e+06 1.15379e+07 -323321 194846 -6171.15
151 3 O 1.54587 27.1701 56.2972 -1.2 -9.45376 -4.85527e+06 -3.57992e+06 -4.98228e+06 -537417 -106644 -813555
152 3 O 1.6432 29.7522 52.7291 -1.2 -9.10625 -3.63734e+06 -1.88155e+06 -4.78793e+06 529061 -282445 -639513
153 3 O 0.273861 29.4661 55.6962 -1.2 -9.04321 -3.03719e+06 -2.21601e+06 -4.92465e+06 -605120 -729123 331729
154 3 O 2.8764 29.3661 55.7154 -1.2 -8.6381 -2.2355e+06 -3.16619e+06 -4.74938e+06 1.02595e+06 612276 284138
155 1 Mg 0.0647462 28.3794 52.2059 1.2 -7.89833 438801 -821451 4.74138e+06 -1.33276e+06 1.71354e+06 750250
156 1 Mg 2.10696 28.1021 49.4531 1.2 -8.17127 2.71569e+06 316650 529390 106780 -108746 81751
157 2 Si 1.57592 30.4257 51.2442 2.4 -33.5523 9.20608e+06 4.39222e+06 1.07123e+07 127115 428224 114895
158 3 O 1.68288 31.9926 51.3043 -1.2 -9.53936 -3.80357e+06 -1.77735e+06 -3.83505e+06 741901 -514710 585206
159 3 O 1.5852 29.3141 57.8282 -1.2 -8.86249 -4.03826e+06 -1.69561e+06 -5.3766e+06 364864 737707 1.88989e+06
160 3 O 0.258524 29.7935 50.6632 -1.2 -8.67239 -3.65583e+06 -2.2563e+06 -4.8455e+06 1.25206e+06 -732196 -366005
161 1 Mg -2.90462 28.3797 52.308 1.2 -7.95608 -250551 -1.07533e+06 4.05885e+06 1.73187e+06 -1.74213e+06 841384
162 3 O 2.81205 29.7787 50.4664 -1.2 -9.06396 -3.41181e+06 -2.07821e+06 -2.68262e+06 -363174 774838 -296513
163 1 Mg -1.36325 28.4984 55.0429 1.2 -8.65405 2.23691e+06 898143 1.60945e+06 -6775.01 -552418 -1.10062e+06
164 2 Si -1.41727 26.3454 53.2611 2.4 -33.7726 8.10555e+06 4.41998e+06 1.22899e+07 -490162 738085 -271191
165 3 O -1.43575 24.7982 53.1869 -1.2 -9.18538 -3.89006e+06 -1.6952e+06 -4.45964e+06 807515 -224528 764783
166 3 O -0.943026 27.648 46.4208 -1.2 -7.42166 -3.37505e+06 -1.85596e+06 -3.2519e+06 -604683 -1.50246e+06 991906
167 3 O -2.6961 27.0493 53.8569 -1.2 -8.81877 -2.963e+06 -2.77775e+06 -6.21785e+06 -516135 1.31197e+06 -98998.4
168 3 O -0.133457 27.0479 53.9481 -1.2 -9.01637 -2.8336e+06 -2.42701e+06 -3.70421e+06 1.10641e+06 -650959 424154
169 1 Mg -2.59933 35.4326 57.3705 1.2 -7.84895 -654335 -1.29196e+06 4.00567e+06 -899615 -1.77136e+06 -1.24808e+06
170 1 Mg -1.28421 35.3899 49.8376 1.2 -8.58354 1.02913e+06 2.08588e+06 2.14817e+06 -214290 191557 414342
171 2 Si -0.807101 32.9036 47.9247 2.4 -34.8498 9.36017e+06 6.3848e+06 1.03998e+07 491466 2.31849e+06 -782897
172 3 O -0.727174 34.4729 47.9885 -1.2 -8.50317 -2.88372e+06 -4.11456e+06 -3.19173e+06 461982 -1.92436e+06 79311.6
173 3 O -1.35735 31.7701 51.768 -1.2 -8.58957 -2.94333e+06 -2.36648e+06 -5.68825e+06 375705 477004 -792488
174 3 O -1.97695 32.3253 48.826 -1.2 -8.52736 -1.51081e+06 -3.2565e+06 -3.89464e+06 17981.6 -381763 -1.0731e+06
175 1 Mg 0.237665 30.8412 46.8168 1.2 -7.25982 2.46455e+06 -591586 1.27823e+06 1.1231e+06 1.58721e+06 -866013
176 3 O 0.656562 32.2608 48.3877 -1.2 -8.42784 -2.09247e+06 -1.3242e+06 -2.56344e+06 -295854 -306774 950214
177 1 Mg 1.68524 30.8159 54.5272 1.2 -8.42136 3.07589e+06 1.31309e+06 1.30593e+06 -191305 399710 538573
178 2 Si 1.76806 33.4666 56.4403 2.4 -33.1363 6.52814e+06 4.69408e+06 1.06699e+07 426872 930130 -763196
179 3 O 1.75687 31.9301 56.4658 -1.2 -9.4446 -3.93291e+06 -2.86038e+06 -4.19701e+06 664389 -266936 74747.5
180 3 O 1.74574 34.5067 52.7279 -1.2 -9.2332 -3.3627e+06 -2.33804e+06 -4.74301e+06 -48548.5 -45748.7 -1.02643e+06
181 3 O 0.483501 34.084 55.7608 -1.2 -9.24247 -2.42828e+06 -3.67428e+06 -3.03783e+06 8642.61 -799894 34118.8
182 3 O 3.03131 34.2054 55.8083 -1.2 -9.15037 -2.60072e+06 -3.9417e+06 -5.12525e+06 571076 1.02046e+06 -110259
183 1 Mg 0.167046 33.1343 52.2045 1.2 -8.03752 -412128 -1.25316e+06 4.51044e+06 -677171 2.05152e+06 356656
184 1 Mg 2.20727 32.8578 49.4516 1.2 -8.0993 2.66204e+06 320557 474980 104616 -145406 -8537.24
185 2 Si 1.67943 35.1802 51.2429 2.4 -33.142 8.13518e+06 4.95133e+06 1.05819e+07 560503 487562 54465.9
186 3 O 1.78736 36.747 51.303 -1.2 -9.78627 -3.09928e+06 -2.08161e+06 -3.72689e+06 787230 -552757 499407
187 3 O 1.85433 34.086 57.9211 -1.2 -9.34526 -2.83691e+06 -3.41771e+06 -6.40148e+06 -307164 677754 917064
188 3 O 0.362533 34.5479 50.661 -1.2 -8.79702 -3.46411e+06 -2.38214e+06 -5.13545e+06 1.01733e+06 -578036 69516.8
189 1 Mg -2.80215 33.1347 52.3062 1.2 -7.81786 276083 -1.40429e+06 3.59713e+06 1.72662e+06 -1.77248e+06 1.07449e+06
190 3 O 2.91593 34.533 50.466 -1.2 -9.22763 -3.16849e+06 -2.24916e+06 -2.47578e+06 -283753 847552 -215450
191 1 Mg -1.26606 33.1979 55.1754 1.2 -8.27497 2.43729e+06 1.98793e+06 941365 60583.9 -384137 -1.05599e+06
192 2 Si -1.37364 31.1172 53.2861 2.4 -33.8481 7.15492e+06 3.93472e+06 1.19785e+07 595210 574533 -1.21119e+06
193 3 O -1.43865 29.5792 53.2322 -1.2 -9.3242 -3.83821e+06 -2.71899e+06 -4.92529e+06 -458588 148314 1.14108e+06
194 3 O -0.842495 32.4028 46.4192 -1.2 -7.4768 -3.28338e+06 -1.92685e+06 -3.18448e+06 -605473 -1.50466e+06 1.08004e+06
195 3 O -2.60068 31.8553 53.8597 -1.2 -9.04819 -4.00388e+06 -3.00993e+06 -5.78009e+06 181599 1.62504e+06 406785
196 3 O -0.0580453 31.7349 53.9317 -1.2 -8.81962 -2.47932e+06 -3.44469e+06 -3.91835e+06 565250 -967980 714061
197 1 Mg -2.50388 40.2222 57.3351 1.2 -7.80095 129448 -1.54942e+06 4.00926e+06 -1.59328e+06 -1.69422e+06 -851885
198 1 Mg -1.17787 40.1435 49.8359 1.2 -8.55766 1.00628e+06 1.95152e+06 2.26052e+06 -177063 258325 606024
199 2 Si -0.702692 37.6572 47.9231 2.4 -34.6423 9.06211e+06 6.67131e+06 1.0076e+07 492875 2.32207e+06 -558221
200 3 O -0.621782 39.2264 47.9868 -1.2 -8.57577 -2.77283e+06 -4.14396e+06 -3.16693e+06 460974 -1.93175e+06 -73635.2
201 3 O -1.25221 36.5242 51.7666 -1.2 -9.13281 -2.41077e+06 -2.44429e+06 -6.50987e+06 365465 521249 -450103
202 3 O -1.87295 37.0796 48.8243 -1.2 -8.66486 -1.30591e+06 -3.45415e+06 -3.68223e+06 11932 -339830 -1.18778e+06
203 1 Mg 0.341084 35.5943 46.8152 1.2 -7.17172 2.32534e+06 -436484 1.12316e+06 1.12402e+06 1.59166e+06 -895528
204 3 O 0.760681 37.0138 48.3864 -1.2 -8.54859 -1.89305e+06 -1.51833e+06 -2.37128e+06 -291681 -333532 865202
205 1 Mg 1.83797 35.5562 54.5099 1.2 -8.35136 2.59714e+06 1.59906e+06 773824 -54780 221045 822507
206 2 Si 1.94522 38.1909 56.3747 2.4 -33.3111 8.7777e+06 5.78088e+06 1.09216e+07 3767.41 -281521 4683.05
207 3 O 1.80862 36.6545 56.4681 -1.2 -9.50324 -3.92849e+06 -1.89066e+06 -3.82904e+06 923039 757.761 -611360
208 3 O 1.85132 39.2606 52.7264 -1.2 -9.13927 -2.96047e+06 -2.04103e+06 -4.72186e+06 73736.8 -261128 -866638
209 3 O 0.676995 38.9129 55.7153 -1.2 -8.95961 -2.22741e+06 -3.08154e+06 -3.82108e+06 -821392 -587640 -31582
210 3 O 3.26216 38.8847 55.7648 -1.2 -9.09796 -2.30916e+06 -2.35966e+06 -3.99778e+06 1.23173e+06 420496 -380794
211 1 Mg 0.272384 37.8883 52.2029 1.2 -7.72877 -322437 -1.08984e+06 4.61545e+06 -961732 1.89152e+06 618771
212 1 Mg 2.31122 37.6122 49.4501 1.2 -7.96281 2.38038e+06 495884 371067 98053.1 -147831 149083
213 2 Si 1.78573 39.934 51.2414 2.4 -33.2017 7.99469e+06 4.54769e+06 1.1218e+07 289506 372043 261056
214 3 O 1.89428 41.5006 51.3014 -1.2 -9.68327 -3.36928e+06 -1.837e+06 -4.08973e+06 705013 -439258 697228
215 3 O 1.93526 38.8911 57.887 -1.2 -9.15758 -3.18005e+06 -2.28647e+06 -4.77517e+06 478378 -263392 1.12762e+06
216 3 O 0.469216 39.3015 50.6588 -1.2 -8.86594 -3.25781e+06 -2.34628e+06 -5.07873e+06 1.13747e+06 -749239 -294801
217 1 Mg -2.69668 37.8889 52.3043 1.2 -7.65975 -287776 -829416 4.41056e+06 1.46079e+06 -1.57118e+06 610072
218 3 O 3.0225 39.2866 50.4651 -1.2 -9.30142 -3.04951e+06 -2.18098e+06 -2.55233e+06 -292044 940621 -359628
219 1 Mg -1.00355 37.9684 55.102 1.2 -8.47494 2.11925e+06 2.07435e+06 867709 -55461.9 -60681.1 -672486
220 2 Si -1.16697 35.8143 53.192 2.4 -33.4429 7.04141e+06 4.87813e+06 1.15757e+07 -1.00236e+06 114412 466573
221 3 O -1.17341 34.2645 53.1328 -1.2 -9.42546 -3.58174e+06 -3.33136e+06 -4.40446e+06 458343 309306 -66831.5
222 3 O -0.738054 37.1566 46.4176 -1.2 -7.55927 -3.15502e+06 -2.06233e+06 -3.04901e+06 -606170 -1.50479e+06 1.03597e+06
223 3 O -2.46475 36.4848 53.9171 -1.2 -8.87548 -2.48732e+06 -2.17839e+06 -4.16745e+06 -1.05089e+06 424834 379817
224 3 O 0.067017 36.4759 53.9135 -1.2 -9.09319 -3.3384e+06 -3.1076e+06 -3.53658e+06 488352 -470205 31402.8
225 1 Mg -2.42807 45.0004 57.3709 1.2 -7.87916 -302453 -1.37549e+06 4.7767e+06 -1.72072e+06 -1.32428e+06 -407458
226 1 Mg -1.06993 44.8968 49.8343 1.2 -8.53423 819728 1.98883e+06 2.3728e+06 -180243 182190 327496
227 2 Si -0.596166 42.4103 47.9215 2.4 -34.5777 8.92761e+06 6.51189e+06 1.02724e+07 476263 2.31349e+06 -638799
228 3 O -0.51472 43.9796 47.9853 -1.2 -8.62176 -2.68292e+06 -4.1277e+06 -3.19742e+06 465819 -1.91253e+06 62311.2
229 3 O -1.14475 41.2777 51.7649 -1.2 -8.97454 -2.81684e+06 -2.19996e+06 -5.47421e+06 425783 -83317.7 -778685
230 3 O -1.76671 41.8331 48.8226 -1.2 -8.67839 -1.27587e+06 -3.33545e+06 -3.80937e+06 10217.5 -370716 -1.19482e+06
231 1 Mg 0.447076 40.3473 46.8135 1.2 -7.11498 2.23203e+06 -447760 1.13661e+06 1.12219e+06 1.59129e+06 -823680
232 3 O 0.866985 41.7666 48.385 -1.2 -8.57417 -1.84793e+06 -1.40554e+06 -2.48624e+06 -284063 -312986 878469
233 1 Mg 1.86876 40.4177 54.5829 1.2 -8.44322 1.95939e+06 1.08251e+06 1.4281e+06 -45609.6 14543.6 643813
234 2 Si 2.00475 42.9651 56.4214 2.4 -33.0545 7.8875e+06 5.24461e+06 1.09274e+07 557750 -472819 528974
235 3 O 1.93339 41.4123 56.4714 -1.2 -9.55621 -3.75782e+06 -2.25149e+06 -4.09302e+06 222462 -48750.2 -529099
236 3 O 1.95891 44.014 52.7248 -1.2 -9.39486 -3.08298e+06 -1.98374e+06 -4.93481e+06 97614.5 -511192 -775635
237 3 O 0.67916 43.6224 55.7937 -1.2 -9.25561 -2.04116e+06 -2.97279e+06 -3.90611e+06 -965385 -302791 -630183
238 3 O 3.27379 43.6211 55.6806 -1.2 -9.1727 -1.28195e+06 -2.88966e+06 -3.67755e+06 798457 618648 -693106
239 1 Mg 0.379928 42.6418 52.2013 1.2 -7.87502 -197567 -1.15635e+06 4.35148e+06 -1.12171e+06 1.9539e+06 253880
240 1 Mg 2.41752 42.366 49.4484 1.2 -7.96035 2.4399e+06 348391 462459 138815 -141389 65126.4
241 2 Si 1.89374 44.6874 51.2398 2.4 -32.9657 8.36867e+06 4.61095e+06 1.03844e+07 323208 683723 -185219
242 3 O 2.00266 46.254 51.2996 -1.2 -9.91987 -3.06045e+06 -2.06971e+06 -3.64829e+06 860221 -378561 664162
243 3 O 2.05315 43.6578 57.875 -1.2 -9.22761 -3.44905e+06 -2.61551e+06 -5.55526e+06 356391 -387054 726407
244 3 O 0.577464 44.0549 50.6567 -1.2 -8.87165 -3.48355e+06 -2.32785e+06 -4.95426e+06 1.15098e+06 -518116 1159.17
245 1 Mg -2.58906 42.6425 52.3022 1.2 -7.73191 -210208 -1.08377e+06 4.19621e+06 1.82955e+06 -1.82872e+06 601628
246 3 O 3.13067 44.0398 50.464 -1.2 -9.27988 -3.11805e+06 -2.11753e+06 -2.67449e+06 -343162 673819 -188471
247 1 Mg -0.968 42.6691 55.0671 1.2 -8.23828 2.42476e+06 1.39311e+06 1.21569e+06 -387156 91607.5 -899653
248 2 Si -1.14843 40.5597 53.2294 2.4 -33.1769 8.9544e+06 3.77002e+06 1.20423e+07 162308 -161732 -828509
249 3 O -1.1271 39.0377 53.1787 -1.2 -9.69332 -3.57082e+06 -2.9284e+06 -4.46966e+06 48662.3 647147 544086
250 3 O -0.631421 41.9099 46.4159 -1.2 -7.61015 -3.07092e+06 -2.03607e+06 -3.0768e+06 -604097 -1.50477e+06 1.03603e+06
251 3 O -2.44876 41.2421 53.8988 -1.2 -9.10331 -2.08194e+06 -2.74443e+06 -4.49981e+06 -1.11544e+06 520755 319693
252 3 O 0.175804 41.2812 53.8822 -1.2 -9.11207 -1.51737e+06 -2.42468e+06 -4.4007e+06 1.48561e+06 -476793 597785
253 1 Mg -2.38638 49.7343 57.4434 1.2 -7.53002 -891979 -725249 4.12721e+06 -1.2721e+06 -1.5888e+06 -1.22919e+06
254 1 Mg -0.961069 49.6502 49.8327 1.2 -8.33354 579272 2.27911e+06 1.99923e+06 -195468 250323 541792
255 2 Si -0.488083 47.1636 47.9198 2.4 -34.3524 8.56949e+06 6.97182e+06 9.80834e+06 495558 2.3144e+06 -797060
256 3 O -0.40607 48.7329 47.9837 -1.2 -8.74697 -2.48593e+06 -4.38705e+06 -2.93244e+06 463355 -1.92645e+06 -2026.06
257 3 O -1.0361 46.031 51.7632 -1.2 -9.14996 -2.04271e+06 -2.38571e+06 -4.35849e+06 106829 315348 -572902
258 3 O -1.65866 46.5866 48.821 -1.2 -8.79537 -1.07006e+06 -3.56434e+06 -3.60444e+06 15531 -368340 -1.01792e+06
259 1 Mg 0.554124 45.1001 46.8117 1.2 -7.04501 2.1242e+06 -372033 1.05742e+06 1.12336e+06 1.58524e+06 -930901
260 3 O 0.974961 46.5195 48.3832 -1.2 -8.68413 -1.68178e+06 -1.60844e+06 -2.27149e+06 -292535 -308229 998529
261 1 Mg 1.94763 45.0642 54.5112 1.2 -8.12765 1.71003e+06 1.22896e+06 1.42001e+06 365576 -346813 823561
262 2 Si 2.11187 47.702 56.3625 2.4 -32.8123 6.77134e+06 6.45106e+06 1.12934e+07 128988 -443884 -370591
263 3 O 2.05481 46.1086 56.4211 -1.2 -9.51955 -3.06699e+06 -876772 -4.66249e+06 534876 442800 -1.05606e+06
264 3 O 2.0677 48.7672 52.7232 -1.2 -9.64142 -2.41121e+06 -2.12507e+06 -4.58553e+06 -278224 -466561 -803219
265 3 O 0.795335 48.3988 55.7975 -1.2 -9.64866 -1.43489e+06 -2.65974e+06 -4.27773e+06 -659677 -1.23329e+06 160280
266 3 O 3.39176 48.4112 55.7077 -1.2 -9.55073 -1.16648e+06 -3.28021e+06 -4.34998e+06 1.0231e+06 1.05066e+06 107478
267 1 Mg 0.488584 47.395 52.1996 1.2 -7.53475 -882608 -933472 4.33454e+06 -1.07619e+06 2.04552e+06 668974
268 1 Mg 2.52544 47.1195 49.4466 1.2 -7.80377 2.18488e+06 641676 176405 89901.8 -149531 -26619.2
269 2 Si 2.00256 49.4407 51.2382 2.4 -32.5215 7.22573e+06 5.10943e+06 1.0308e+07 460381 439718 74544.3
270 3 O 2.11156 51.0073 51.2982 -1.2 -10.079 -2.69518e+06 -2.25818e+06 -3.46089e+06 739492 -551050 543685
271 3 O 2.15995 48.289 57.8659 -1.2 -9.14138 -2.65796e+06 -2.86083e+06 -4.92336e+06 -685150 -116145 1.00129e+06
272 3 O 0.686344 48.8082 50.655 -1.2 -9.09546 -2.91846e+06 -2.61095e+06 -4.87062e+06 1.16482e+06 -613179 -153954
273 1 Mg -2.48039 47.3957 52.3005 1.2 -7.30181 -567931 -526287 4.27711e+06 1.67169e+06 -1.73697e+06 628953
274 3 O 3.23944 48.7932 50.4623 -1.2 -9.54323 -2.71538e+06 -2.46356e+06 -2.2053e+06 -325071 889922 -307452