ITEM: TIMESTEP
19200
ITEM: NUMBER OF ATOMS
10500
ITEM: BOX BOUNDS xy xz yz pp pp pp
0.0000000000000000e+00 8.9687999999999999e+00 2.9895999999999998e+00
0.0000000000000000e+00 1.1872499999999999e+02 0.0000000000000000e+00
0.0000000000000000e+00 2.5297749999999999e+02 0.0000000000000000e+00
ITEM: ATOMS id type element xu yu zu q c_pe c_s[1] c_s[2] c_s[3] c_s[4] c_s[5] c_s[6]
1 1 Mg -3.45932 6.96339 57.4637 1.2 -7.43667 -438379 -1.91622e+06 4.86424e+06 -1.21263e+06 -1.80045e+06 -512683
2 1 Mg -1.82655 6.90154 50.0912 1.2 -8.13005 -13326.6 1.11687e+06 1.13534e+06 -95467.3 -226612 1.38471e+06
3 2 Si -0.257935 3.96038 48.0876 2.4 -36.0689 1.00214e+07 8.91758e+06 1.07042e+07 802038 1.97956e+06 1.84758e+06
4 3 O -0.335812 5.46814 47.6264 -1.2 -7.81686 -3.03107e+06 -2.5393e+06 -2.45888e+06 143262 -973362 -618296
5 3 O -2.03793 3.43377 51.8941 -1.2 -8.91475 -3.05405e+06 -2.41839e+06 -7.47323e+06 -721504 623800 -1.66937e+06
6 3 O -1.54015 3.53929 48.9521 -1.2 -8.28676 -1.32497e+06 -1.70412e+06 -4.24641e+06 39956.9 -763247 -329426
7 1 Mg 1.82954 2.54582 47.1376 1.2 -8.01373 2.64373e+06 -422893 669494 1.14959e+06 825354 607446
8 3 O 1.22989 3.66364 48.7877 -1.2 -8.00358 -1.6689e+06 -2.45488e+06 -3.61197e+06 -489440 -697023 -1.05396e+06
9 1 Mg 1.09399 2.3003 54.6493 1.2 -8.19773 2.92603e+06 -108881 1.55022e+06 -512810 688503 1.44465e+06
10 2 Si 0.966421 4.96014 56.2924 2.4 -32.7337 7.31782e+06 3.58384e+06 1.30465e+07 176656 236255 134391
11 3 O 1.04635 3.3946 56.5017 -1.2 -9.84312 -4.00772e+06 -860679 -6.18758e+06 264722 -389460 -1.1221e+06
12 3 O 1.10813 6.07342 52.8172 -1.2 -9.06706 -3.40527e+06 -2.92181e+06 -4.47898e+06 269899 -300470 -1.51492e+06
13 3 O -0.305562 5.63626 55.7188 -1.2 -9.20162 -3.00038e+06 -2.24924e+06 -6.68669e+06 -1.04973e+06 -1.67175e+06 -329025
14 3 O 2.26204 5.6723 55.6692 -1.2 -9.46953 -3.13586e+06 -1.92131e+06 -5.47098e+06 1.3115e+06 1.40119e+06 -54436.6
15 1 Mg -0.459401 4.67631 52.2426 1.2 -8.08714 -582531 -1.38378e+06 5.57244e+06 -1.25739e+06 1.12116e+06 988091
16 1 Mg 2.79456 3.9971 49.9987 1.2 -8.37244 3.65219e+06 -83069.3 1.60294e+06 -503741 834198 -689494
17 2 Si 1.16169 6.59457 51.2556 2.4 -33.4881 6.93969e+06 6.07452e+06 1.20347e+07 101739 536663 2.89028e+06
18 3 O 1.28989 8.18905 51.2909 -1.2 -9.61967 -2.67794e+06 -1.60569e+06 -3.80539e+06 360318 -777560 792446
19 3 O 0.987294 5.65634 57.8028 -1.2 -9.23665 -3.61824e+06 -2.41171e+06 -5.25424e+06 501824 -301811 1.27884e+06
20 3 O -0.184847 6.06029 50.6845 -1.2 -8.78703 -2.86065e+06 -3.06234e+06 -5.1813e+06 1.40078e+06 -385742 -1.44836e+06
21 1 Mg -3.49704 4.67769 52.6661 1.2 -7.64985 12697.8 -2.25917e+06 2.9329e+06 2.15435e+06 -1.09561e+06 1.20093e+06
22 3 O 2.48581 5.93312 50.6539 -1.2 -9.31359 -3.03867e+06 -1.37358e+06 -3.34983e+06 -1.5379e+06 -616902 -934354
23 1 Mg -2.03011 4.77058 55.3117 1.2 -8.25168 -312461 1.09116e+06 1.54489e+06 94502.8 -353853 -112177
24 2 Si -1.97566 2.66469 53.2714 2.4 -33.9078 7.15616e+06 3.32842e+06 1.27161e+07 1.23634e+06 1.1773e+06 496446
25 3 O -1.93454 1.09833 53.2183 -1.2 -9.35399 -3.98898e+06 -1.73961e+06 -4.81792e+06 -177896 -262525 -389567
26 3 O -0.0467762 2.97103 46.8385 -1.2 -6.99746 -2.98092e+06 -2.23283e+06 -2.79845e+06 -989820 -2.00565e+06 -700611
27 3 O -3.14892 3.24669 54.0969 -1.2 -9.1703 -5.12093e+06 -2.51554e+06 -5.68142e+06 -203989 735331 243011
28 3 O -0.658286 3.26613 54.0003 -1.2 -8.45951 -2.23399e+06 -2.9604e+06 -4.18506e+06 778331 697867 -16189.2
29 1 Mg -3.4639 11.7716 57.5116 1.2 -7.42058 -946842 -2.57916e+06 4.59209e+06 -1.96301e+06 -1.94493e+06 -1.14025e+06
30 1 Mg -1.75014 11.5838 49.8362 1.2 -8.31473 672317 2.06804e+06 2.29278e+06 -307033 449999 803944
31 2 Si -1.18003 9.02138 47.9309 2.4 -34.2956 8.2195e+06 7.41033e+06 9.52709e+06 242284 2.63915e+06 440321
32 3 O -1.23224 10.5991 47.9811 -1.2 -8.79575 -2.36565e+06 -3.69375e+06 -2.67708e+06 649060 -1.94504e+06 23481.5
33 3 O -1.79016 8.01447 51.8693 -1.2 -9.21684 -3.1479e+06 -3.6038e+06 -6.55038e+06 24655.2 141899 -1.57416e+06
34 3 O -2.30986 8.37215 48.8528 -1.2 -9.03485 -948619 -2.64449e+06 -3.20879e+06 -346838 -613412 -902843
35 1 Mg 0.154883 7.08234 46.8007 1.2 -7.48945 1.83405e+06 -33000.9 681238 943156 1.72644e+06 -936576
36 3 O 0.325447 8.50934 48.3809 -1.2 -8.67515 -1.31364e+06 -2.09e+06 -2.62479e+06 -27607.6 -828248 306186
37 1 Mg 1.09525 7.13927 54.6823 1.2 -8.18968 2.25917e+06 -161692 1.41205e+06 597299 -553201 1.14201e+06
38 2 Si 1.14186 9.70234 56.4136 2.4 -32.3223 7.40778e+06 3.56063e+06 1.26647e+07 544943 -469266 -98931.6
39 3 O 1.04071 8.18228 56.4925 -1.2 -10.0148 -3.07678e+06 -2.42688e+06 -5.58788e+06 513074 -101448 -926842
40 3 O 1.28624 10.7248 52.7351 -1.2 -9.32737 -3.18254e+06 -2.65588e+06 -4.67758e+06 399566 -602871 -1.38403e+06
41 3 O -0.162565 10.4319 55.7756 -1.2 -9.34527 -1.29279e+06 -2.75144e+06 -5.13805e+06 -984306 -489062 -392913
42 3 O 2.40834 10.4545 55.7438 -1.2 -9.48314 -1.41122e+06 -2.00832e+06 -3.52452e+06 839079 -192278 -709500
43 1 Mg -0.262694 9.34741 52.2523 1.2 -7.79824 -904090 -832585 4.50479e+06 -1.35676e+06 1.7606e+06 982638
44 1 Mg 1.87648 9.01537 49.4629 1.2 -7.80568 1.9033e+06 579045 242228 227356 -302065 343570
45 2 Si 1.21415 11.3799 51.2378 2.4 -32.8415 7.51227e+06 5.06835e+06 1.10461e+07 177242 -94121 1.00444e+06
46 3 O 1.31634 12.9512 51.3023 -1.2 -9.96544 -2.93152e+06 -1.6941e+06 -3.97258e+06 430675 -265367 732242
47 3 O 1.09186 10.359 57.925 -1.2 -9.6055 -2.99768e+06 -2.11833e+06 -5.27024e+06 14472.7 -656879 1.03281e+06
48 3 O -0.115718 10.7564 50.681 -1.2 -8.94663 -2.73054e+06 -2.54703e+06 -5.15741e+06 1.14634e+06 -372650 -739486
49 1 Mg -3.26386 9.35564 52.3622 1.2 -7.50002 -449764 -1.65547e+06 3.54853e+06 1.66424e+06 -1.91141e+06 1.01253e+06
50 3 O 2.45216 10.7265 50.4558 -1.2 -9.5608 -2.80665e+06 -1.91087e+06 -2.11201e+06 -697779 624920 -31474.3
51 1 Mg -1.80088 9.46344 55.1395 1.2 -8.02379 1.96505e+06 1.3793e+06 1.36378e+06 -257840 -386282 -596896
52 2 Si -1.80697 7.37656 53.3319 2.4 -33.1326 8.4162e+06 5.11784e+06 1.11349e+07 361348 -78987.5 540803
53 3 O -1.91834 5.81066 53.3002 -1.2 -9.37242 -3.50574e+06 -1.69683e+06 -5.42071e+06 913367 -446076 -265354
54 3 O -1.19417 8.46968 46.4488 -1.2 -7.67474 -2.66802e+06 -2.14733e+06 -2.84122e+06 -542671 -1.74594e+06 782929
55 3 O -3.0892 8.08047 53.9884 -1.2 -9.21598 -1.89357e+06 -2.90363e+06 -4.61681e+06 -688572 372684 23358.1
56 3 O -0.499428 8.07472 53.9937 -1.2 -9.15347 -2.07403e+06 -3.12598e+06 -4.80875e+06 1.70325e+06 -679742 266125
57 1 Mg -3.27214 16.376 57.3596 1.2 -7.28906 -891092 -1.36786e+06 4.34126e+06 -1.73881e+06 -1.76062e+06 -978910
58 1 Mg -1.6714 16.3544 49.8412 1.2 -8.17043 448526 2.27082e+06 1.93893e+06 -218375 248831 893118
59 2 Si -1.18567 13.8526 47.9314 2.4 -34.0435 8.10378e+06 6.69703e+06 9.97572e+06 491266 2.29658e+06 -342307
60 3 O -1.09664 15.4205 47.9915 -1.2 -8.89781 -2.18248e+06 -4.16043e+06 -2.92804e+06 428197 -1.94756e+06 -251121
61 3 O -1.73493 12.7491 51.7772 -1.2 -9.14599 -2.77125e+06 -1.64236e+06 -6.50214e+06 807313 -1.03911e+06 -651220
62 3 O -2.36115 13.2717 48.8238 -1.2 -8.9645 -940083 -3.25995e+06 -3.61706e+06 -89443.4 -399234 -1.22647e+06
63 1 Mg -0.159928 11.7639 46.8533 1.2 -6.90821 1.92084e+06 -400840 1.05946e+06 1.1281e+06 1.57356e+06 -863755
64 3 O 0.2623 13.1866 48.413 -1.2 -8.84811 -1.38416e+06 -1.33337e+06 -2.48393e+06 -207479 -279391 820822
65 1 Mg 1.1986 11.8311 54.5569 1.2 -8.14952 1.69558e+06 613130 1.45931e+06 30830.7 215835 1.00911e+06
66 2 Si 1.09347 14.4227 56.4107 2.4 -31.9518 6.84338e+06 4.66137e+06 1.17945e+07 -861695 374496 -24418.1
67 3 O 1.15705 12.9115 56.4738 -1.2 -10.1212 -3.18296e+06 -3.29652e+06 -4.48088e+06 106431 -142870 -1.06382e+06
68 3 O 1.36565 15.4813 52.729 -1.2 -9.79176 -1.94629e+06 -2.30926e+06 -4.56461e+06 -14953.2 -555174 -1.11085e+06
69 3 O -0.251742 15.1431 55.8245 -1.2 -9.45211 147629 -1.74478e+06 -3.32871e+06 -760135 39077.4 32358.8
70 3 O 2.35461 15.1375 55.6976 -1.2 -9.87557 -1.75433e+06 -3.48787e+06 -3.85213e+06 1.06895e+06 610373 -139983
71 1 Mg -0.206989 14.1049 52.2121 1.2 -7.52188 -946363 -143184 4.71029e+06 -1.02725e+06 1.36464e+06 773172
72 1 Mg 1.82591 13.8102 49.4556 1.2 -7.65912 1.94813e+06 640096 231252 153055 -184465 254741
73 2 Si 1.29285 16.1518 51.2434 2.4 -32.2793 6.38529e+06 5.43656e+06 1.04756e+07 340519 328164 878209
74 3 O 1.39496 17.7199 51.3047 -1.2 -10.0718 -2.56076e+06 -2.00583e+06 -3.93873e+06 612583 -492803 208018
75 3 O 1.23998 15.0753 57.945 -1.2 -9.64622 -1.52248e+06 -2.57105e+06 -4.26795e+06 -508299 557735 1.54348e+06
76 3 O -0.0269106 15.5178 50.6688 -1.2 -9.29761 -2.43285e+06 -2.69962e+06 -4.54973e+06 1.06894e+06 -871638 -422507
77 1 Mg -3.18391 14.1057 52.3125 1.2 -7.17731 -421513 -963087 3.77544e+06 1.61097e+06 -1.61532e+06 950364
78 3 O 2.52432 15.503 50.4579 -1.2 -9.70333 -2.3735e+06 -2.37694e+06 -2.10988e+06 -330786 951485 -425467
79 1 Mg -1.95467 14.1232 55.1127 1.2 -7.83767 1.39285e+06 2.2886e+06 1.1016e+06 559708 70965.7 -551794
80 2 Si -1.79898 11.9806 53.2059 2.4 -32.9238 7.5192e+06 3.4354e+06 1.1485e+07 236639 -617700 -120112
81 3 O -1.72103 10.4578 53.1152 -1.2 -9.72715 -3.92836e+06 -4.58202e+06 -4.87678e+06 -506004 259048 -385642
82 3 O -1.21337 13.3381 46.4311 -1.2 -7.81671 -2.80402e+06 -2.0326e+06 -3.01075e+06 -630608 -1.45893e+06 919655
83 3 O -3.05786 12.6725 53.8936 -1.2 -9.5954 -2.7723e+06 -2.28907e+06 -4.37818e+06 -1.31194e+06 603002 517485
84 3 O -0.469495 12.6336 53.8266 -1.2 -9.05321 -1.62922e+06 -3.17297e+06 -5.11601e+06 1.43086e+06 -1.26999e+06 117345
85 1 Mg -2.99789 21.2018 57.2827 1.2 -7.2449 -854518 -858368 4.75929e+06 -986245 -1.66451e+06 -571060
86 1 Mg -1.5831 21.1217 49.8405 1.2 -8.41011 698503 1.83145e+06 2.48101e+06 -178358 196930 955605
87 2 Si -1.09384 18.6291 47.9287 2.4 -34.1293 8.23545e+06 6.63481e+06 1.01053e+07 481734 2.32856e+06 390001
88 3 O -1.02071 20.1985 47.9911 -1.2 -8.78613 -2.41543e+06 -3.99102e+06 -3.21782e+06 458673 -1.92619e+06 -523227
89 3 O -1.65002 17.5002 51.771 -1.2 -9.53639 -2.2483e+06 -1.62161e+06 -5.75094e+06 489381 -270928 -978847
90 3 O -2.26174 18.0434 48.8281 -1.2 -8.95797 -877564 -3.38692e+06 -3.65762e+06 -18738.4 -359729 -1.59723e+06
91 1 Mg -0.0440435 16.5651 46.8269 1.2 -6.87554 1.81326e+06 -293273 991291 1.13362e+06 1.58351e+06 -518221
92 3 O 0.37001 17.9877 48.3925 -1.2 -8.83489 -1.42971e+06 -1.51174e+06 -2.38757e+06 -283530 -338325 419180
93 1 Mg 1.4022 16.5463 54.5458 1.2 -7.89357 1.60714e+06 1.55953e+06 1.04603e+06 -172676 131445 1.30434e+06
94 2 Si 1.23841 19.2398 56.4945 2.4 -32.3271 4.45893e+06 5.37779e+06 1.25278e+07 42346.4 -9104.65 1.27263e+06
95 3 O 1.30539 17.6688 56.5195 -1.2 -9.71308 -2.85322e+06 -1.05823e+06 -4.20479e+06 -117662 -185413 369571
96 3 O 1.45147 20.239 52.7294 -1.2 -9.45345 -2.76829e+06 -1.90955e+06 -4.50503e+06 388178 -456869 -737573
97 3 O -0.0317506 19.8468 55.8731 -1.2 -9.69738 -2.59032e+06 -3.29455e+06 -3.75519e+06 288822 -42363.9 -210239
98 3 O 2.48907 19.8417 55.6934 -1.2 -9.64824 -1.41526e+06 -3.60716e+06 -4.0361e+06 475202 290172 -291493
99 1 Mg -0.126194 18.8651 52.2079 1.2 -7.48754 -507578 -651596 4.54272e+06 -1.43557e+06 1.86329e+06 966681
100 1 Mg 1.92402 18.5815 49.4545 1.2 -7.70041 1.93771e+06 500200 354293 136931 -144064 595821
101 2 Si 1.38106 20.9117 51.2443 2.4 -32.8208 7.84195e+06 4.49579e+06 1.08532e+07 160279 526136 956789
102 3 O 1.48527 22.4795 51.3054 -1.2 -9.87116 -2.96859e+06 -1.88561e+06 -3.87313e+06 788207 -334325 145423
103 3 O 1.41931 19.9941 57.9659 -1.2 -9.52777 -2.11467e+06 -1.51112e+06 -4.30333e+06 563269 -369571 661069
104 3 O 0.0615419 20.2804 50.6669 -1.2 -9.05587 -3.1202e+06 -2.2279e+06 -4.95778e+06 1.1932e+06 -623433 -736336
105 1 Mg -3.09665 18.8643 52.3122 1.2 -7.38613 -781303 -969657 3.88042e+06 1.91682e+06 -2.02958e+06 1.12744e+06
106 3 O 2.61548 20.2646 50.4626 -1.2 -9.44835 -2.81195e+06 -1.97987e+06 -2.77768e+06 -396747 672627 -729071
107 1 Mg -1.67336 18.8727 55.0404 1.2 -7.80594 2.86624e+06 1.67994e+06 615347 5291.54 -72715.9 -1.4832e+06
108 2 Si -1.65127 16.8137 53.2321 2.4 -32.1588 6.64109e+06 4.75587e+06 1.17262e+07 -313970 -23284.9 -551688
109 3 O -1.68131 15.2597 53.2786 -1.2 -10.1029 -2.14868e+06 -1.6146e+06 -3.93587e+06 453933 -418201 -240230
110 3 O -1.12868 18.1227 46.4249 -1.2 -7.80827 -2.77256e+06 -2.0604e+06 -3.02212e+06 -603028 -1.49743e+06 599149
111 3 O -2.95818 17.5382 53.9044 -1.2 -9.56541 -1.73794e+06 -2.60434e+06 -4.56952e+06 -619754 430075 229690
112 3 O -0.382836 17.5442 53.8778 -1.2 -9.55929 -1.16256e+06 -2.04929e+06 -4.4577e+06 193096 -667504 388297
113 1 Mg -2.91303 25.9584 57.3133 1.2 -7.62618 -724911 -2.11641e+06 4.67812e+06 -1.39052e+06 -1.9075e+06 -651120
114 1 Mg -1.48778 25.88 49.8402 1.2 -8.52544 864292 1.53369e+06 2.78349e+06 -204993 274365 1.00197e+06
115 2 Si -1.00491 23.3922 47.9274 2.4 -34.339 8.548e+06 6.13779e+06 1.06341e+07 498191 2.3346e+06 400631
116 3 O -0.927602 24.9615 47.9909 -1.2 -8.69942 -2.55293e+06 -3.79056e+06 -3.48997e+06 459358 -1.93269e+06 -476002
117 3 O -1.55795 22.2588 51.7696 -1.2 -9.12944 -2.31987e+06 -3.30688e+06 -6.09789e+06 111052 10965.3 -198097
118 3 O -2.17411 22.8111 48.8277 -1.2 -8.81561 -1.08327e+06 -3.19115e+06 -3.90706e+06 -4027.42 -366463 -1.63374e+06
119 1 Mg 0.0423997 21.3296 46.8225 1.2 -6.94792 1.95678e+06 -563357 1.24697e+06 1.12611e+06 1.58766e+06 -362737
120 3 O 0.458537 22.7495 48.3911 -1.2 -8.71138 -1.6334e+06 -1.26115e+06 -2.63687e+06 -289626 -325492 370352
121 1 Mg 1.52491 21.2824 54.6018 1.2 -7.99039 1.9903e+06 1.67039e+06 806637 -264286 -136557 1.29704e+06
122 2 Si 1.47248 24.0083 56.3152 2.4 -32.7744 8.66984e+06 3.88561e+06 1.18714e+07 588862 -256845 946032
123 3 O 1.32798 22.4574 56.3399 -1.2 -9.7507 -3.32617e+06 -1.09429e+06 -4.91215e+06 647697 -585499 -694010
124 3 O 1.54441 24.9963 52.7297 -1.2 -9.22603 -3.48954e+06 -2.07963e+06 -4.84994e+06 -306740 -627287 -1.28865e+06
125 3 O 0.147338 24.6922 55.8165 -1.2 -9.1264 -1.90847e+06 -3.71014e+06 -5.28432e+06 -135542 -602490 -102314
126 3 O 2.77096 24.6844 55.62 -1.2 -9.39451 -1.65862e+06 -2.9224e+06 -4.27189e+06 1.26124e+06 2074.06 -301279
127 1 Mg -0.0335968 23.6229 52.2067 1.2 -7.74605 -904863 -1.05296e+06 4.55349e+06 -1.21037e+06 2.11585e+06 1.09097e+06
128 1 Mg 2.01073 23.3445 49.4541 1.2 -7.84376 2.21271e+06 263212 552912 100967 -173982 602666
129 2 Si 1.47594 25.6699 51.2449 2.4 -33.1758 8.57368e+06 3.8612e+06 1.13511e+07 451211 360307 1.23939e+06
130 3 O 1.58172 27.2371 51.3054 -1.2 -9.72157 -3.53324e+06 -1.41606e+06 -4.35276e+06 762815 -547468 291140
131 3 O 1.55888 24.6114 57.86 -1.2 -9.3175 -3.13341e+06 -1.53839e+06 -4.8992e+06 108280 -1.12287e+06 813115
132 3 O 0.157925 25.0378 50.6651 -1.2 -8.85066 -3.26074e+06 -2.03931e+06 -5.56274e+06 1.19398e+06 -487635 -794474
133 1 Mg -3.00341 23.6231 52.3098 1.2 -7.4455 -212165 -961534 4.07589e+06 1.88941e+06 -1.90299e+06 1.37598e+06
134 3 O 2.71149 25.0232 50.4656 -1.2 -9.34676 -3.08354e+06 -1.82874e+06 -2.73101e+06 -391717 843881 -906720
135 1 Mg -1.56261 23.7041 55.0065 1.2 -8.26366 2.0656e+06 680923 867971 101420 244647 -686344
136 2 Si -1.5172 21.6346 53.2446 2.4 -32.9021 6.62577e+06 2.36001e+06 1.14107e+07 256885 289781 1.12897e+06
137 3 O -1.63349 20.1347 53.1494 -1.2 -9.75854 -3.07903e+06 -3.73066e+06 -4.37229e+06 247080 239168 775513
138 3 O -1.03938 22.8897 46.4223 -1.2 -7.74066 -2.86518e+06 -1.8349e+06 -3.26209e+06 -606895 -1.50285e+06 554194
139 3 O -2.77427 22.3462 53.9498 -1.2 -9.41191 -2.61295e+06 -2.87094e+06 -4.73084e+06 -177145 438588 -1.16658e+06
140 3 O -0.23182 22.2832 53.8864 -1.2 -9.26734 -2.2888e+06 -2.3714e+06 -4.77201e+06 176411 -902500 -624892
141 1 Mg -2.89424 30.8242 57.3896 1.2 -7.44007 -723410 -2.19918e+06 4.84583e+06 -745686 -2.14731e+06 -207403
142 1 Mg -1.38776 30.6357 49.8391 1.2 -8.27741 580833 1.82455e+06 2.36404e+06 -179869 285181 749603
143 2 Si -0.907929 28.1491 47.9262 2.4 -34.3053 8.49442e+06 5.96384e+06 1.08112e+07 497050 2.33561e+06 -154775
144 3 O -0.829229 29.7184 47.99 -1.2 -8.77944 -2.43913e+06 -3.91324e+06 -3.38713e+06 456211 -1.93894e+06 -218526
145 3 O -1.45946 27.0152 51.769 -1.2 -8.68785 -3.17448e+06 -1.83127e+06 -6.7575e+06 402757 -152560 -850964
146 3 O -2.07744 27.5697 48.8273 -1.2 -8.79942 -1.09874e+06 -2.99041e+06 -4.12915e+06 18747.6 -378454 -1.3921e+06
147 1 Mg 0.137907 26.087 46.819 1.2 -6.98312 2.01394e+06 -750861 1.44121e+06 1.12519e+06 1.5874e+06 -486401
148 3 O 0.55579 27.5065 48.3893 -1.2 -8.69787 -1.64956e+06 -1.0939e+06 -2.80508e+06 -300159 -313043 614744
149 1 Mg 1.52846 26.1055 54.528 1.2 -8.21947 2.41774e+06 570536 1.12068e+06 -151844 -145241 1.24e+06
150 2 Si 1.64356 28.7383 56.3825 2.4 -32.4941 6.63552e+06 4.55768e+06 1.23827e+07 -458459 262776 1.75572e+06
151 3 O 1.49778 27.1971 56.3978 -1.2 -9.82813 -3.43278e+06 -1.21369e+06 -4.2631e+06 141511 -35586.3 -757117
152 3 O 1.6432 29.7522 52.7291 -1.2 -9.51301 -2.76773e+06 -2.20261e+06 -5.12291e+06 493133 -46630.5 -1.63002e+06
153 3 O 0.335345 29.4618 55.7266 -1.2 -9.38368 -1.2066e+06 -3.31877e+06 -4.41682e+06 -760203 -759038 -752354
154 3 O 2.91077 29.372 55.7491 -1.2 -9.51853 -3.11582e+06 -3.55246e+06 -4.30473e+06 814131 775127 -452698
155 1 Mg 0.0647462 28.3794 52.2059 1.2 -7.80201 -530222 -1.17252e+06 4.71653e+06 -922897 1.71419e+06 1.12597e+06
156 1 Mg 2.10696 28.1021 49.4531 1.2 -7.83103 2.20826e+06 66639.7 742131 95201.9 -162964 288723
157 2 Si 1.57592 30.4257 51.2442 2.4 -32.5675 6.99074e+06 4.42866e+06 1.13187e+07 211211 116031 833568
158 3 O 1.68288 31.9926 51.3043 -1.2 -10.0934 -2.57109e+06 -1.72915e+06 -4.14078e+06 701614 -74295.1 239647
159 3 O 1.60729 29.3947 57.9261 -1.2 -9.38534 -2.45652e+06 -1.08818e+06 -4.37024e+06 -16873.8 -42874.6 424138
160 3 O 0.258524 29.7935 50.6632 -1.2 -9.104 -2.75784e+06 -2.22303e+06 -5.22289e+06 1.08906e+06 -771941 -439500
161 1 Mg -2.90462 28.3797 52.308 1.2 -7.56485 -102441 -1.27276e+06 4.2176e+06 1.60746e+06 -1.60225e+06 1.1867e+06
162 3 O 2.81205 29.7787 50.4664 -1.2 -9.54613 -2.70388e+06 -1.97028e+06 -2.62688e+06 -281703 951006 -480385
163 1 Mg -1.34457 28.5432 55.1233 1.2 -8.13429 1.26101e+06 1.54606e+06 902132 13749.9 -271307 73214.7
164 2 Si -1.44031 26.3253 53.262 2.4 -33.6704 6.98582e+06 2.0671e+06 1.24292e+07 -466804 -556602 234042
165 3 O -1.37711 24.8173 53.157 -1.2 -9.57365 -3.67006e+06 -4.0685e+06 -5.36331e+06 391987 508550 452436
166 3 O -0.943026 27.648 46.4208 -1.2 -7.74346 -2.8577e+06 -1.75872e+06 -3.35003e+06 -605192 -1.50657e+06 742626
167 3 O -2.77019 26.9695 53.8444 -1.2 -8.97892 -3.04519e+06 -2.28705e+06 -6.01354e+06 -1.00727e+06 1.10038e+06 -182436
168 3 O -0.18865 27.0215 53.8408 -1.2 -9.06427 -3.42199e+06 -3.11346e+06 -5.774e+06 208739 -1.82977e+06 -447039
169 1 Mg -2.65217 35.4251 57.3484 1.2 -7.45494 -474692 -798122 4.97779e+06 -1.09479e+06 -1.3648e+06 -535406
170 1 Mg -1.28421 35.3899 49.8376 1.2 -8.19595 421445 1.85255e+06 2.36546e+06 -202081 215637 890624
171 2 Si -0.807101 32.9036 47.9247 2.4 -34.0771 8.14151e+06 6.35626e+06 1.04082e+07 481967 2.34598e+06 -14200.4
172 3 O -0.727174 34.4729 47.9885 -1.2 -8.86169 -2.31224e+06 -4.02552e+06 -3.28045e+06 465335 -1.93204e+06 -366927
173 3 O -1.35735 31.7701 51.768 -1.2 -9.5233 -1.9314e+06 -2.03701e+06 -6.1824e+06 363201 -400730 -936273
174 3 O -1.97695 32.3253 48.826 -1.2 -8.96523 -856050 -3.2483e+06 -3.85918e+06 15841 -369950 -1.45216e+06
175 1 Mg 0.237665 30.8412 46.8168 1.2 -6.90827 1.89522e+06 -594871 1.28755e+06 1.12412e+06 1.59321e+06 -603154
176 3 O 0.656562 32.2608 48.3877 -1.2 -8.83538 -1.41145e+06 -1.33086e+06 -2.58641e+06 -292726 -323527 605159
177 1 Mg 1.65417 30.7739 54.5195 1.2 -8.13851 2.13246e+06 882127 841483 180151 50497.6 1.39915e+06
178 2 Si 1.68094 33.4035 56.37 2.4 -32.6625 7.40965e+06 3.78224e+06 1.19758e+07 448821 393517 263449
179 3 O 1.71043 31.8796 56.4167 -1.2 -9.81125 -3.5547e+06 -3.36098e+06 -4.69359e+06 252312 17202.5 -998775
180 3 O 1.74574 34.5067 52.7279 -1.2 -9.73183 -2.37783e+06 -1.63588e+06 -5.24456e+06 -338018 -340414 -925753
181 3 O 0.368749 34.1002 55.7231 -1.2 -9.31663 -656820 -1.87901e+06 -3.5689e+06 -771219 -342036 -495796
182 3 O 2.99541 34.092 55.7356 -1.2 -9.4781 -1.73056e+06 -2.5145e+06 -3.88851e+06 1.07098e+06 966605 -661638
183 1 Mg 0.167046 33.1343 52.2045 1.2 -7.50569 -1.31365e+06 -1.50345e+06 5.08771e+06 -1.07408e+06 1.95707e+06 807896
184 1 Mg 2.20727 32.8578 49.4516 1.2 -7.64518 1.90024e+06 278396 550018 128079 -193862 395192
185 2 Si 1.67943 35.1802 51.2429 2.4 -32.2605 6.74877e+06 4.50525e+06 1.09978e+07 472849 534512 646784
186 3 O 1.78736 36.747 51.303 -1.2 -10.1213 -2.74394e+06 -1.78984e+06 -4.08166e+06 810655 -494481 40022.5
187 3 O 1.69051 33.998 57.8858 -1.2 -9.60885 -2.05982e+06 -2.18501e+06 -5.25659e+06 247149 -177543 558920
188 3 O 0.362533 34.5479 50.661 -1.2 -9.2646 -2.63078e+06 -2.22384e+06 -5.18247e+06 1.09672e+06 -704048 -375067
189 1 Mg -2.80215 33.1347 52.3062 1.2 -7.17122 -585438 -1.35961e+06 4.63325e+06 1.69644e+06 -1.71669e+06 1.007e+06
190 3 O 2.91593 34.533 50.466 -1.2 -9.67682 -2.45076e+06 -2.00661e+06 -2.71239e+06 -322735 877562 -629283
191 1 Mg -1.36963 33.1359 55.0912 1.2 -8.06484 1.69088e+06 1.36435e+06 1.27184e+06 269718 199229 -1.06184e+06
192 2 Si -1.32739 31.0875 53.2156 2.4 -32.683 6.68591e+06 4.07173e+06 1.19004e+07 477162 184573 517914
193 3 O -1.33121 29.5303 53.2272 -1.2 -9.73978 -3.12507e+06 -2.50434e+06 -4.48847e+06 334947 251094 -572332
194 3 O -0.842495 32.4028 46.4192 -1.2 -7.81546 -2.74337e+06 -1.92827e+06 -3.18092e+06 -604600 -1.50864e+06 737776
195 3 O -2.54193 31.7332 53.9894 -1.2 -9.51903 -2.53132e+06 -2.81134e+06 -4.09531e+06 -233688 869892 -337236
196 3 O 0.0198293 31.7258 53.8603 -1.2 -9.13117 -1.62443e+06 -3.50405e+06 -4.2509e+06 1.09722e+06 -428681 -22312.6
197 1 Mg -2.74072 40.2038 57.4616 1.2 -7.80061 -943857 -1.81927e+06 5.0915e+06 -1.22073e+06 -1.73027e+06 -929759
198 1 Mg -1.17787 40.1435 49.8359 1.2 -8.31474 627489 1.57286e+06 2.62559e+06 -210874 169916 848273
199 2 Si -0.702692 37.6572 47.9231 2.4 -34.0974 8.18842e+06 6.20472e+06 1.05428e+07 485636 2.32655e+06 307510
200 3 O -0.621782 39.2264 47.9868 -1.2 -8.81075 -2.40276e+06 -3.88113e+06 -3.4248e+06 464901 -1.92552e+06 -466150
201 3 O -1.25221 36.5242 51.7666 -1.2 -9.3864 -2.43333e+06 -1.54889e+06 -7.48794e+06 213399 49030.6 -1.07231e+06
202 3 O -1.87295 37.0796 48.8243 -1.2 -8.96843 -826080 -3.20246e+06 -3.92934e+06 16703.9 -350394 -1.63035e+06
203 1 Mg 0.341084 35.5943 46.8152 1.2 -6.8705 1.84042e+06 -546602 1.23559e+06 1.12304e+06 1.59255e+06 -448542
204 3 O 0.760681 37.0138 48.3864 -1.2 -8.84511 -1.41224e+06 -1.28744e+06 -2.60896e+06 -293204 -328170 423394
205 1 Mg 1.70868 35.7101 54.4322 1.2 -7.77731 913957 1.73281e+06 1.5086e+06 303347 -372855 519225
206 2 Si 1.75111 38.1773 56.4453 2.4 -32.564 7.00679e+06 4.0044e+06 1.26901e+07 956277 166550 -993945
207 3 O 1.74386 36.6309 56.4805 -1.2 -9.89283 -2.38581e+06 -1.50263e+06 -4.04832e+06 100274 85119.9 -971700
208 3 O 1.85132 39.2606 52.7264 -1.2 -9.3922 -2.83172e+06 -1.18872e+06 -5.05652e+06 -256918 -202101 -853193
209 3 O 0.518997 38.8862 55.7114 -1.2 -9.41513 -2.35926e+06 -2.0168e+06 -4.72083e+06 -811431 -729621 -387078
210 3 O 3.0788 38.9032 55.7523 -1.2 -9.17032 -1.15201e+06 -1.41573e+06 -3.96754e+06 1.11178e+06 -46660.7 -327697
211 1 Mg 0.272384 37.8883 52.2029 1.2 -7.55725 -874157 -1.65193e+06 4.99339e+06 -1.06185e+06 1.66404e+06 1.40563e+06
212 1 Mg 2.31122 37.6122 49.4501 1.2 -7.66727 1.91552e+06 194547 663828 111009 -159690 575038
213 2 Si 1.78573 39.934 51.2414 2.4 -32.6983 7.28093e+06 3.7077e+06 1.1946e+07 577323 634109 634641
214 3 O 1.89428 41.5006 51.3014 -1.2 -9.91938 -2.84264e+06 -1.62936e+06 -4.39153e+06 853417 -560098 446396
215 3 O 1.77249 38.8078 57.9206 -1.2 -9.40225 -2.35748e+06 -2.13611e+06 -5.43724e+06 -540928 748628 373079
216 3 O 0.469216 39.3015 50.6588 -1.2 -9.14106 -2.88443e+06 -1.84411e+06 -5.46473e+06 1.11752e+06 -753784 -481762
217 1 Mg -2.69668 37.8889 52.3043 1.2 -7.31966 -506465 -1.15638e+06 4.49703e+06 1.74597e+06 -1.48089e+06 1.44185e+06
218 3 O 3.0225 39.2866 50.4651 -1.2 -9.54546 -2.56891e+06 -1.76694e+06 -2.97099e+06 -340845 919065 -767579
219 1 Mg -1.21378 37.871 55.1211 1.2 -8.11192 2.0786e+06 1.3919e+06 824482 -86602.9 -328686 -832756
220 2 Si -1.20342 35.8361 53.2076 2.4 -32.3819 4.65852e+06 5.78164e+06 1.14798e+07 -444070 -381338 -189298
221 3 O -1.22905 34.2377 53.1804 -1.2 -9.96208 -2.60027e+06 -615730 -4.81294e+06 806108 187456 47902.1
222 3 O -0.738054 37.1566 46.4176 -1.2 -7.8184 -2.73993e+06 -1.90308e+06 -3.20851e+06 -605403 -1.50547e+06 584778
223 3 O -2.4968 36.5242 53.8657 -1.2 -9.55199 -1.89526e+06 -2.34134e+06 -5.03001e+06 -1.00293e+06 956068 154146
224 3 O 0.0333725 36.5536 53.8299 -1.2 -9.63397 -3.2426e+06 -3.79761e+06 -5.135e+06 964433 -1.60102e+06 355575
225 1 Mg -2.54643 45.0011 57.2171 1.2 -7.38217 -655258 -1.18568e+06 4.86805e+06 -1.23782e+06 -1.57192e+06 -1.29953e+06
226 1 Mg -1.06993 44.8968 49.8343 1.2 -8.44264 789108 1.72645e+06 2.5177e+06 -162005 279365 879248
227 2 Si -0.596166 42.4103 47.9215 2.4 -34.2708 8.47168e+06 6.04561e+06 1.07023e+07 493147 2.32161e+06 224888
228 3 O -0.51472 43.9796 47.9853 -1.2 -8.71663 -2.54428e+06 -3.85234e+06 -3.45786e+06 460695 -1.93116e+06 -448640
229 3 O -1.14475 41.2777 51.7649 -1.2 -9.30165 -2.45129e+06 -2.05818e+06 -6.92835e+06 257119 593050 -351987
230 3 O -1.76671 41.8331 48.8226 -1.2 -8.86659 -983302 -3.10181e+06 -4.03388e+06 6075.89 -334504 -1.52832e+06
231 1 Mg 0.447076 40.3473 46.8135 1.2 -6.9237 1.92898e+06 -674488 1.35991e+06 1.12372e+06 1.59388e+06 -391541
232 3 O 0.866985 41.7666 48.385 -1.2 -8.75399 -1.56209e+06 -1.17879e+06 -2.71063e+06 -286473 -336374 486358
233 1 Mg 1.88021 40.3865 54.5937 1.2 -8.23138 2.6202e+06 876398 1.49363e+06 113914 158787 372676
234 2 Si 1.84787 42.9493 56.3593 2.4 -32.2707 6.95023e+06 4.82222e+06 1.39615e+07 -1.19079e+06 1.19999e+06 -318852
235 3 O 1.78158 41.352 56.4302 -1.2 -9.93143 -3.23769e+06 398301 -5.32122e+06 -82766.9 -48075.6 -830515
236 3 O 1.95891 44.014 52.7248 -1.2 -9.45802 -2.71079e+06 -1.92785e+06 -4.98694e+06 223051 -270087 -553541
237 3 O 0.550716 43.7147 55.6431 -1.2 -9.40342 -380874 -1.43983e+06 -4.09008e+06 -1.40082e+06 26188.1 -983964
238 3 O 3.11757 43.5744 55.6901 -1.2 -9.66138 -2.79005e+06 -2.93824e+06 -5.40326e+06 1.60943e+06 675071 -91151.3
239 1 Mg 0.379928 42.6418 52.2013 1.2 -7.61179 -672681 -1.60119e+06 4.9381e+06 -1.33116e+06 1.93539e+06 860806
240 1 Mg 2.41752 42.366 49.4484 1.2 -7.78255 2.08899e+06 146462 729897 97472.4 -151644 397768
241 2 Si 1.89374 44.6874 51.2398 2.4 -32.8625 7.69869e+06 4.43869e+06 1.10763e+07 139774 216115 554062
242 3 O 2.00266 46.254 51.2996 -1.2 -9.79864 -3.26874e+06 -1.71268e+06 -4.09663e+06 737731 -3370.04 193482
243 3 O 1.86506 43.6299 57.8656 -1.2 -9.43211 -2.38859e+06 -1.15425e+06 -3.88987e+06 278880 441514 1.20439e+06
244 3 O 0.577464 44.0549 50.6567 -1.2 -9.00989 -3.0124e+06 -2.15566e+06 -5.25081e+06 1.18363e+06 -698541 -472931
245 1 Mg -2.58906 42.6425 52.3022 1.2 -7.4854 -562783 -1.18631e+06 4.26613e+06 1.80265e+06 -1.77672e+06 738905
246 3 O 3.13067 44.0398 50.464 -1.2 -9.44637 -2.8618e+06 -1.94646e+06 -2.72574e+06 -319965 888744 -525648
247 1 Mg -1.19151 42.7374 55.0636 1.2 -8.08667 1.47535e+06 897641 1.45478e+06 786212 20455.7 -1.24904e+06
248 2 Si -1.04555 40.641 53.2181 2.4 -33.0472 7.24291e+06 3.46403e+06 1.19594e+07 -468791 62121 -286666
249 3 O -1.06567 39.1009 53.238 -1.2 -9.54074 -3.22186e+06 -1.96588e+06 -4.76886e+06 920900 22253.3 440644
250 3 O -0.631421 41.9099 46.4159 -1.2 -7.75553 -2.84217e+06 -1.79518e+06 -3.31379e+06 -605559 -1.50491e+06 567101
251 3 O -2.37461 41.3185 53.8934 -1.2 -9.1448 -1.38403e+06 -2.41496e+06 -5.24892e+06 -621753 415284 263663
252 3 O 0.203652 41.34 53.8839 -1.2 -9.322 -2.55686e+06 -3.59858e+06 -3.93126e+06 352313 -683319 249584
253 1 Mg -2.56047 49.6725 57.3627 1.2 -7.60833 -762404 -1.02446e+06 4.52769e+06 -499039 -1.53522e+06 -815696
254 1 Mg -0.961069 49.6502 49.8327 1.2 -8.54997 908810 1.67508e+06 2.62281e+06 -183214 194654 855866
255 2 Si -0.488083 47.1636 47.9198 2.4 -34.4682 8.75427e+06 5.89742e+06 1.08843e+07 477095 2.32402e+06 263334
256 3 O -0.40607 48.7329 47.9837 -1.2 -8.62925 -2.67548e+06 -3.76479e+06 -3.54953e+06 467376 -1.92011e+06 -436521
257 3 O -1.0361 46.031 51.7632 -1.2 -9.03921 -2.6969e+06 -2.43776e+06 -6.28348e+06 235481 -960523 -1.14667e+06
258 3 O -1.65866 46.5866 48.821 -1.2 -8.75235 -1.16567e+06 -3.07198e+06 -4.05749e+06 17024.9 -380413 -1.60627e+06
259 1 Mg 0.554124 45.1001 46.8117 1.2 -7.0048 2.05517e+06 -743842 1.43386e+06 1.12177e+06 1.59015e+06 -384297
260 3 O 0.974961 46.5195 48.3832 -1.2 -8.64694 -1.72192e+06 -1.12648e+06 -2.76584e+06 -288049 -307197 452778
261 1 Mg 1.93057 45.0857 54.5368 1.2 -8.02688 2.15651e+06 1.23296e+06 933055 -38153.1 -163049 211254
262 2 Si 1.88725 47.6422 56.2599 2.4 -32.6886 5.82165e+06 3.32314e+06 1.21968e+07 890991 629061 64254.2
263 3 O 1.90618 46.0877 56.357 -1.2 -9.97934 -3.01268e+06 -2.83506e+06 -5.34477e+06 -31959.2 -569780 -347713
264 3 O 2.0677 48.7672 52.7232 -1.2 -9.25663 -3.49686e+06 -1.86626e+06 -5.24283e+06 -218039 -488889 -1.16517e+06
265 3 O 0.644273 48.2959 55.6308 -1.2 -9.25238 -2.95541e+06 -2.69745e+06 -5.47212e+06 -217124 -1.35847e+06 -78343.1
266 3 O 3.18007 48.3378 55.6303 -1.2 -9.38275 -3.21124e+06 -2.63367e+06 -5.73248e+06 976253 1.50298e+06 -303125
267 1 Mg 0.488584 47.395 52.1996 1.2 -7.92952 -365750 -1.69779e+06 4.6064e+06 -1.27626e+06 1.78061e+06 1.23478e+06
268 1 Mg 2.52544 47.1195 49.4466 1.2 -7.90188 2.35576e+06 96974.7 709172 136625 -166355 513491
269 2 Si 2.00256 49.4407 51.2382 2.4 -33.0759 8.27186e+06 4.11522e+06 1.11685e+07 356539 629909 713634
270 3 O 2.11156 51.0073 51.2982 -1.2 -9.789 -3.18539e+06 -1.71671e+06 -3.9585e+06 754356 -506872 149367
271 3 O 1.94001 48.2999 57.7519 -1.2 -9.42032 -2.41591e+06 -2.43294e+06 -5.95868e+06 277133 252834 1.30893e+06
272 3 O 0.686344 48.8082 50.655 -1.2 -8.89751 -3.34905e+06 -2.08501e+06 -5.11261e+06 1.12709e+06 -680131 -455323
273 1 Mg -2.48039 47.3957 52.3005 1.2 -7.62425 -261724 -1.47858e+06 4.15591e+06 1.55011e+06 -1.88624e+06 968660
274 3 O 3.23944 48.7932 50.4623 -1.2 -9.282 -3.10904e+06 -1.81777e+06 -3.0184e+06 -301284 713801 -637979