ITEM: TIMESTEP
4300
ITEM: NUMBER OF ATOMS
10500
ITEM: BOX BOUNDS xy xz yz pp pp pp
0.0000000000000000e+00 8.9687999999999999e+00 2.9895999999999998e+00
0.0000000000000000e+00 1.1872499999999999e+02 0.0000000000000000e+00
0.0000000000000000e+00 2.5297749999999999e+02 0.0000000000000000e+00
ITEM: ATOMS id type element xu yu zu q c_pe c_s[1] c_s[2] c_s[3] c_s[4] c_s[5] c_s[6]
1 1 Mg -3.3575 7.06403 57.3712 1.2 -7.88337 -156109 -1.03697e+06 4.65068e+06 -1.18313e+06 -1.71527e+06 -571036
2 1 Mg -1.82655 6.90154 50.0912 1.2 -8.35551 289095 1.32517e+06 984209 -98108.2 -228156 1.3952e+06
3 2 Si -0.257935 3.96038 48.0876 2.4 -36.4804 1.07166e+07 9.23576e+06 1.03502e+07 803924 1.9676e+06 1.62854e+06
4 3 O -0.335812 5.46814 47.6264 -1.2 -7.60467 -3.37741e+06 -2.70603e+06 -2.28709e+06 143423 -968861 -550953
5 3 O -2.03793 3.43377 51.8941 -1.2 -8.6639 -3.16169e+06 -2.33976e+06 -5.76491e+06 -1.03327e+06 865139 -1.99724e+06
6 3 O -1.54015 3.53929 48.9521 -1.2 -8.07672 -1.65507e+06 -1.87206e+06 -4.09007e+06 25778.1 -720122 -182844
7 1 Mg 1.82954 2.54582 47.1376 1.2 -8.21666 2.96615e+06 -296298 545585 1.14859e+06 834863 497601
8 3 O 1.22989 3.66364 48.7877 -1.2 -7.79828 -2.01267e+06 -2.61765e+06 -3.43742e+06 -477931 -729085 -918174
9 1 Mg 1.00503 2.36173 54.5997 1.2 -8.52055 2.36983e+06 1.00107e+06 1.90853e+06 165874 -362471 1.11553e+06
10 2 Si 1.03077 5.01628 56.5089 2.4 -33.3984 7.89226e+06 4.11101e+06 1.1351e+07 -278370 481535 188175
11 3 O 0.9687 3.48698 56.5631 -1.2 -9.51122 -3.52724e+06 -2.45637e+06 -4.4827e+06 -411641 99016.5 -231205
12 3 O 1.10813 6.07342 52.8172 -1.2 -9.02038 -3.35288e+06 -3.20503e+06 -4.49016e+06 383359 -295369 -1.40252e+06
13 3 O -0.232694 5.76054 55.8273 -1.2 -9.01614 -2.8104e+06 -2.28629e+06 -3.56619e+06 -661235 -359682 -255411
14 3 O 2.2863 5.66762 55.791 -1.2 -8.99105 -3.05885e+06 -2.82729e+06 -4.52006e+06 730870 851943 -70850.2
15 1 Mg -0.459401 4.67631 52.2426 1.2 -8.17683 -168499 -1.35108e+06 5.03978e+06 -1.21918e+06 1.3681e+06 977383
16 1 Mg 2.79456 3.9971 49.9987 1.2 -8.59214 3.91071e+06 144131 1.46776e+06 -516004 850894 -909624
17 2 Si 1.16169 6.59457 51.2556 2.4 -33.8189 7.64771e+06 6.49859e+06 1.141e+07 57623 524196 2.78073e+06
18 3 O 1.28989 8.18905 51.2909 -1.2 -9.42156 -3.12337e+06 -1.73815e+06 -3.48578e+06 297872 -706024 809733
19 3 O 1.11011 5.70718 57.9668 -1.2 -9.15379 -2.98044e+06 -1.93057e+06 -5.56624e+06 179279 81081.1 636749
20 3 O -0.184847 6.06029 50.6845 -1.2 -8.59185 -3.21698e+06 -3.31298e+06 -4.93407e+06 1.44513e+06 -357857 -1.42947e+06
21 1 Mg -3.49704 4.67769 52.6661 1.2 -7.81831 72504.7 -1.66609e+06 3.096e+06 2.06375e+06 -1.24992e+06 911011
22 3 O 2.48581 5.93312 50.6539 -1.2 -9.12321 -3.31741e+06 -1.68801e+06 -3.03914e+06 -1.56914e+06 -612780 -863835
23 1 Mg -1.89333 4.68929 55.2134 1.2 -8.43189 2.70391e+06 1.64796e+06 1.08562e+06 -83433.8 -595573 -683758
24 2 Si -1.91961 2.631 53.3118 2.4 -33.7784 8.41038e+06 3.77861e+06 1.3306e+07 946024 129994 -367388
25 3 O -1.97115 1.08331 53.1705 -1.2 -9.31047 -3.96881e+06 -1.86883e+06 -4.64295e+06 727685 -81784.8 554427
26 3 O -0.0467762 2.97103 46.8385 -1.2 -6.7944 -3.31397e+06 -2.36143e+06 -2.66225e+06 -989624 -2.00464e+06 -600027
27 3 O -3.13477 3.26248 54.1442 -1.2 -8.93768 -2.8335e+06 -2.48272e+06 -5.1493e+06 -722405 469360 441352
28 3 O -0.622231 3.28945 53.9804 -1.2 -8.8765 -3.6866e+06 -2.18515e+06 -4.48531e+06 1.22363e+06 -58603.4 687059
29 1 Mg -3.28055 11.8617 57.4451 1.2 -7.7659 -659695 -1.2171e+06 4.6462e+06 -954174 -1.73491e+06 -758333
30 1 Mg -1.75014 11.5838 49.8362 1.2 -8.65448 1.10631e+06 2.12569e+06 2.33915e+06 -320626 258574 860357
31 2 Si -1.18003 9.02138 47.9309 2.4 -34.785 9.0056e+06 7.67222e+06 9.26174e+06 228659 2.60874e+06 457855
32 3 O -1.23224 10.5991 47.9811 -1.2 -8.52634 -2.79944e+06 -3.7741e+06 -2.60172e+06 656518 -1.91496e+06 -9712.91
33 3 O -1.79016 8.01447 51.8693 -1.2 -8.92757 -3.28496e+06 -2.95377e+06 -6.08537e+06 113080 -111194 -1.49831e+06
34 3 O -2.30986 8.37215 48.8528 -1.2 -8.79228 -1.3055e+06 -2.82195e+06 -3.0756e+06 -335940 -609763 -906705
35 1 Mg 0.154883 7.08234 46.8007 1.2 -7.71125 2.19344e+06 104495 539741 943118 1.72501e+06 -964715
36 3 O 0.325447 8.50934 48.3809 -1.2 -8.43722 -1.7178e+06 -2.23644e+06 -2.46311e+06 -31887.1 -826125 309871
37 1 Mg 1.08412 7.07822 54.6458 1.2 -8.47488 2.68722e+06 934895 1.35867e+06 407091 -448594 930479
38 2 Si 1.18158 9.77255 56.4087 2.4 -33.2278 8.38031e+06 4.75646e+06 1.21947e+07 -54803.9 514162 393559
39 3 O 1.13784 8.2338 56.5061 -1.2 -9.53886 -3.52996e+06 -1.8947e+06 -4.4876e+06 145559 -285802 -1.0367e+06
40 3 O 1.28624 10.7248 52.7351 -1.2 -9.194 -3.47266e+06 -2.02582e+06 -4.16524e+06 267965 -434327 -837987
41 3 O -0.128818 10.5089 55.7897 -1.2 -9.07825 -1.47154e+06 -2.37208e+06 -3.82192e+06 -1.08097e+06 -559608 -60205.5
42 3 O 2.44097 10.4871 55.7668 -1.2 -9.23817 -2.53456e+06 -2.69503e+06 -4.29611e+06 979282 788737 -13669.6
43 1 Mg -0.262694 9.34741 52.2523 1.2 -7.96726 74621.3 -592463 4.50332e+06 -1.61167e+06 1.45762e+06 1.00366e+06
44 1 Mg 1.87648 9.01537 49.4629 1.2 -8.05395 2.29533e+06 753629 71687.4 254461 -258799 364922
45 2 Si 1.21415 11.3799 51.2378 2.4 -33.3906 8.88019e+06 5.22421e+06 1.03268e+07 297513 520805 861758
46 3 O 1.31634 12.9512 51.3023 -1.2 -9.62797 -3.58911e+06 -1.7735e+06 -3.5837e+06 593937 -376208 540124
47 3 O 1.17982 10.4326 57.9471 -1.2 -8.99541 -2.97202e+06 -1.81505e+06 -4.15874e+06 161386 -512355 1.14195e+06
48 3 O -0.115718 10.7564 50.681 -1.2 -8.727 -3.40554e+06 -2.59079e+06 -4.5236e+06 1.23499e+06 -477025 -712672
49 1 Mg -3.26386 9.35564 52.3622 1.2 -7.7888 -50889.9 -798472 3.65419e+06 1.85242e+06 -1.62858e+06 902898
50 3 O 2.45216 10.7265 50.4558 -1.2 -9.21198 -3.14946e+06 -2.05788e+06 -2.1762e+06 -813415 443787 -173973
51 1 Mg -1.81856 9.51761 55.1391 1.2 -8.40584 2.43799e+06 1.48443e+06 1.51734e+06 2949.05 -74532.6 -714358
52 2 Si -1.7979 7.35352 53.3611 2.4 -33.6146 8.16276e+06 4.14553e+06 1.13979e+07 529185 -212264 389703
53 3 O -1.89137 5.82184 53.3082 -1.2 -9.41103 -3.47202e+06 -3.19263e+06 -4.97369e+06 709845 -35277.1 -360082
54 3 O -1.19417 8.46968 46.4488 -1.2 -7.44274 -3.03951e+06 -2.25559e+06 -2.73433e+06 -541382 -1.7422e+06 788195
55 3 O -3.04062 8.05327 54.0319 -1.2 -8.95119 -3.03336e+06 -2.67559e+06 -4.32311e+06 -407812 827304 -152562
56 3 O -0.508085 8.09194 53.9714 -1.2 -8.90363 -3.1906e+06 -2.49255e+06 -4.79355e+06 1.43703e+06 -920126 210548
57 1 Mg -3.20691 16.576 57.4333 1.2 -7.62244 -306517 -1.11143e+06 4.70854e+06 -1.18541e+06 -1.56559e+06 -602247
58 1 Mg -1.6714 16.3544 49.8412 1.2 -8.55641 966306 2.23337e+06 2.08307e+06 -189007 226264 659946
59 2 Si -1.18567 13.8526 47.9314 2.4 -34.6608 9.08642e+06 6.59909e+06 1.00806e+07 503753 2.2448e+06 -409851
60 3 O -1.09664 15.4205 47.9915 -1.2 -8.58869 -2.66974e+06 -4.08776e+06 -3.00468e+06 422177 -1.92973e+06 -120533
61 3 O -1.73493 12.7491 51.7772 -1.2 -8.77136 -2.64252e+06 -2.62259e+06 -5.50994e+06 306430 147124 -892857
62 3 O -2.36115 13.2717 48.8238 -1.2 -8.62561 -1.41003e+06 -3.25248e+06 -3.70108e+06 -101896 -375222 -1.21569e+06
63 1 Mg -0.159928 11.7639 46.8533 1.2 -7.17498 2.36036e+06 -384124 1.03066e+06 1.12738e+06 1.56879e+06 -859152
64 3 O 0.2623 13.1866 48.413 -1.2 -8.53733 -1.93417e+06 -1.30509e+06 -2.46126e+06 -202618 -279875 813374
65 1 Mg 1.30275 11.8571 54.5658 1.2 -8.30735 2.61661e+06 1.26851e+06 1.41413e+06 107094 -144532 937596
66 2 Si 1.2406 14.4822 56.4397 2.4 -32.9077 7.53386e+06 4.4908e+06 1.18535e+07 247594 96504.9 231077
67 3 O 1.25794 12.9598 56.5342 -1.2 -9.76065 -3.19923e+06 -3.55861e+06 -3.95039e+06 418590 -283371 -318331
68 3 O 1.36565 15.4813 52.729 -1.2 -9.30475 -3.16731e+06 -1.99319e+06 -4.63442e+06 267086 -461174 -810662
69 3 O -0.0607504 15.1404 55.7935 -1.2 -9.15318 -2.20664e+06 -2.62598e+06 -3.75601e+06 -839160 -533352 -237623
70 3 O 2.50897 15.1875 55.7133 -1.2 -9.2288 -1.89796e+06 -2.28403e+06 -3.41128e+06 890856 387269 -438488
71 1 Mg -0.206989 14.1049 52.2121 1.2 -7.92211 48898.3 -926019 4.49348e+06 -1.24549e+06 1.66059e+06 998759
72 1 Mg 1.82591 13.8102 49.4556 1.2 -8.0178 2.53155e+06 593660 269104 125169 -99968.6 247820
73 2 Si 1.29285 16.1518 51.2434 2.4 -33.0878 8.17188e+06 5.22481e+06 1.0216e+07 162653 366686 343241
74 3 O 1.39496 17.7199 51.3047 -1.2 -9.76992 -3.2495e+06 -2.08397e+06 -3.54801e+06 682793 -324423 385642
75 3 O 1.25817 15.1738 57.9446 -1.2 -9.37083 -2.23955e+06 -1.82108e+06 -4.18498e+06 250056 -396917 869556
76 3 O -0.0269106 15.5178 50.6688 -1.2 -8.86401 -3.32097e+06 -2.52518e+06 -4.68964e+06 1.0724e+06 -676507 -280346
77 1 Mg -3.18391 14.1057 52.3125 1.2 -7.79773 -109276 -939205 4.04397e+06 1.5263e+06 -1.60809e+06 923476
78 3 O 2.52432 15.503 50.4579 -1.2 -9.27011 -3.07426e+06 -2.27252e+06 -2.29023e+06 -315674 771444 -234049
79 1 Mg -1.73863 14.1791 55.226 1.2 -8.31477 1.93898e+06 1.73472e+06 1.31484e+06 -77266.4 -109956 -488428
80 2 Si -1.67696 12.075 53.266 2.4 -33.6455 7.3483e+06 4.73555e+06 1.14727e+07 133051 181347 177401
81 3 O -1.77494 10.5482 53.1961 -1.2 -9.41269 -3.44171e+06 -3.69678e+06 -4.37669e+06 530798 184574 469154
82 3 O -1.21337 13.3381 46.4311 -1.2 -7.54638 -3.23644e+06 -2.00233e+06 -3.0418e+06 -631693 -1.45157e+06 965202
83 3 O -2.92217 12.7789 53.9639 -1.2 -9.01367 -2.61355e+06 -3.40599e+06 -4.07605e+06 -657406 1.12005e+06 189186
84 3 O -0.380297 12.7569 53.8762 -1.2 -9.01333 -2.91122e+06 -2.99616e+06 -3.78266e+06 1.03248e+06 -832954 364832
85 1 Mg -3.07092 21.2904 57.4401 1.2 -7.59877 -559944 -1.13439e+06 4.4741e+06 -1.02256e+06 -1.65568e+06 -362502
86 1 Mg -1.5831 21.1217 49.8405 1.2 -8.56716 965355 2.09818e+06 2.19938e+06 -203059 225162 707044
87 2 Si -1.09384 18.6291 47.9287 2.4 -34.6219 9.00134e+06 6.73918e+06 1.00252e+07 490694 2.32557e+06 -181197
88 3 O -1.02071 20.1985 47.9911 -1.2 -8.58513 -2.73161e+06 -4.13344e+06 -3.07909e+06 457439 -1.92936e+06 -224224
89 3 O -1.65002 17.5002 51.771 -1.2 -9.05024 -2.45293e+06 -2.71509e+06 -5.71176e+06 303493 -10784.3 -947365
90 3 O -2.26174 18.0434 48.8281 -1.2 -8.6767 -1.3083e+06 -3.41384e+06 -3.64437e+06 -21126.9 -379562 -1.31387e+06
91 1 Mg -0.0440435 16.5651 46.8269 1.2 -7.14028 2.2402e+06 -327081 1.02236e+06 1.13396e+06 1.57818e+06 -713279
92 3 O 0.37001 17.9877 48.3925 -1.2 -8.56461 -1.87035e+06 -1.52814e+06 -2.3585e+06 -284824 -322261 683267
93 1 Mg 1.39057 16.5914 54.5081 1.2 -8.24876 2.22376e+06 1.82394e+06 1.08701e+06 -195400 20372.8 925778
94 2 Si 1.32616 19.235 56.4307 2.4 -32.954 7.02123e+06 4.7394e+06 1.08885e+07 757285 -30149.8 503208
95 3 O 1.27113 17.684 56.5278 -1.2 -9.65957 -3.04356e+06 -2.292e+06 -3.75687e+06 175229 -199465 -222224
96 3 O 1.45147 20.239 52.7294 -1.2 -9.25861 -3.09633e+06 -2.09067e+06 -4.40719e+06 131650 -368454 -926901
97 3 O 0.0767684 19.906 55.775 -1.2 -9.29837 -2.63639e+06 -3.09145e+06 -3.79095e+06 -52298.8 -565852 75356.3
98 3 O 2.62481 19.8521 55.7459 -1.2 -9.20377 -2.24238e+06 -2.76502e+06 -3.99465e+06 793695 557411 -211597
99 1 Mg -0.126194 18.8651 52.2079 1.2 -7.86993 -377967 -965637 4.36865e+06 -1.07055e+06 1.89299e+06 750838
100 1 Mg 1.92402 18.5815 49.4545 1.2 -7.96767 2.41519e+06 559105 246415 117815 -139815 317132
101 2 Si 1.38106 20.9117 51.2443 2.4 -33.1421 8.22687e+06 4.94406e+06 1.0541e+07 313600 455624 617279
102 3 O 1.48527 22.4795 51.3054 -1.2 -9.76051 -3.16759e+06 -2.02957e+06 -3.70074e+06 693120 -406023 321750
103 3 O 1.40298 19.9439 57.9085 -1.2 -9.4482 -2.87732e+06 -2.03529e+06 -5.2384e+06 251782 125668 852080
104 3 O 0.0615419 20.2804 50.6669 -1.2 -8.83513 -3.42095e+06 -2.44672e+06 -4.9517e+06 1.07068e+06 -544056 -373743
105 1 Mg -3.09665 18.8643 52.3122 1.2 -7.64903 -212666 -1.06362e+06 3.84517e+06 1.55459e+06 -1.83997e+06 900386
106 3 O 2.61548 20.2646 50.4626 -1.2 -9.26974 -3.15241e+06 -2.19223e+06 -2.4843e+06 -323597 724491 -446097
107 1 Mg -1.6313 18.9083 55.1273 1.2 -8.18689 2.48175e+06 1.74759e+06 1.43113e+06 -48348 -157704 -705442
108 2 Si -1.6367 16.8183 53.2336 2.4 -33.144 7.1486e+06 6.10974e+06 1.12892e+07 731270 269992 -183508
109 3 O -1.68383 15.2542 53.1907 -1.2 -9.45882 -3.20279e+06 -2.19202e+06 -3.99302e+06 159115 279412 313599
110 3 O -1.12868 18.1227 46.4249 -1.2 -7.57467 -3.14401e+06 -2.08812e+06 -2.99647e+06 -604149 -1.49638e+06 849328
111 3 O -2.86513 17.5215 53.9362 -1.2 -9.30858 -2.76563e+06 -3.26955e+06 -4.17736e+06 -599890 1.0552e+06 243974
112 3 O -0.314981 17.5288 53.8857 -1.2 -9.13325 -1.61323e+06 -2.39456e+06 -3.57963e+06 1.10698e+06 -591700 582340
113 1 Mg -2.92617 25.9936 57.4632 1.2 -7.64501 -392490 -1.24807e+06 4.78431e+06 -821374 -1.82029e+06 -513464
114 1 Mg -1.48778 25.88 49.8402 1.2 -8.53291 912790 2.00049e+06 2.27633e+06 -200028 168270 782793
115 2 Si -1.00491 23.3922 47.9274 2.4 -34.5823 8.94917e+06 6.67358e+06 1.00866e+07 488776 2.31815e+06 -107014
116 3 O -0.927602 24.9615 47.9909 -1.2 -8.60543 -2.7173e+06 -4.13684e+06 -3.13358e+06 460735 -1.92029e+06 -271034
117 3 O -1.55795 22.2588 51.7696 -1.2 -9.08212 -2.41098e+06 -2.79863e+06 -5.33218e+06 375646 -16183 -857402
118 3 O -2.17411 22.8111 48.8277 -1.2 -8.6895 -1.27483e+06 -3.42497e+06 -3.68873e+06 5845.7 -359488 -1.39374e+06
119 1 Mg 0.0423997 21.3296 46.8225 1.2 -7.11949 2.23154e+06 -382856 1.06665e+06 1.12689e+06 1.58734e+06 -638524
120 3 O 0.458537 22.7495 48.3911 -1.2 -8.58094 -1.85085e+06 -1.50068e+06 -2.39186e+06 -293771 -328297 635538
121 1 Mg 1.42282 21.3183 54.5879 1.2 -8.23748 2.32736e+06 1.62129e+06 1.09304e+06 99703.9 -206830 954227
122 2 Si 1.53049 23.9559 56.4016 2.4 -32.8722 7.61825e+06 4.80842e+06 1.17964e+07 74141.6 111382 93063.5
123 3 O 1.46396 22.4015 56.4608 -1.2 -9.82602 -3.21901e+06 -2.20169e+06 -4.27735e+06 606547 -70814.3 -459188
124 3 O 1.54441 24.9963 52.7297 -1.2 -9.2653 -3.12465e+06 -2.0019e+06 -4.73336e+06 225446 -131869 -1.11287e+06
125 3 O 0.22206 24.6538 55.7654 -1.2 -9.05925 -1.43017e+06 -2.41425e+06 -4.18646e+06 -604367 -328265 -125349
126 3 O 2.79116 24.6436 55.7295 -1.2 -9.3139 -2.78218e+06 -2.72302e+06 -3.70922e+06 736694 600974 -317621
127 1 Mg -0.0335968 23.6229 52.2067 1.2 -7.7902 -263703 -979121 4.61491e+06 -1.13861e+06 1.85044e+06 948348
128 1 Mg 2.01073 23.3445 49.4541 1.2 -7.94777 2.36341e+06 500751 331047 122101 -142120 357674
129 2 Si 1.47594 25.6699 51.2449 2.4 -33.0608 8.09093e+06 4.70107e+06 1.07529e+07 344789 536565 662132
130 3 O 1.58172 27.2371 51.3054 -1.2 -9.79017 -3.19571e+06 -1.93989e+06 -3.79819e+06 747851 -337911 314715
131 3 O 1.50513 24.6132 57.9079 -1.2 -9.35703 -2.72396e+06 -2.01273e+06 -4.74362e+06 239858 -472617 1.08807e+06
132 3 O 0.157925 25.0378 50.6651 -1.2 -8.91036 -3.34174e+06 -2.34883e+06 -4.89619e+06 1.1105e+06 -686652 -427223
133 1 Mg -3.00341 23.6231 52.3098 1.2 -7.65095 -240457 -820490 4.09419e+06 1.72278e+06 -1.73695e+06 1.03087e+06
134 3 O 2.71149 25.0232 50.4656 -1.2 -9.29811 -3.00927e+06 -2.18064e+06 -2.59237e+06 -351189 773981 -580302
135 1 Mg -1.52513 23.6311 55.1315 1.2 -8.25768 2.37112e+06 1.90561e+06 1.00191e+06 216888 272859 -713065
136 2 Si -1.52771 21.5627 53.2304 2.4 -33.0519 7.83364e+06 5.23329e+06 1.15657e+07 -26715 -116098 576538
137 3 O -1.57126 20.0146 53.1115 -1.2 -9.62443 -3.27988e+06 -2.54578e+06 -4.43169e+06 291027 318703 499907
138 3 O -1.03938 22.8897 46.4223 -1.2 -7.59602 -3.09788e+06 -2.07413e+06 -3.0223e+06 -605859 -1.50144e+06 797671
139 3 O -2.79785 22.2711 53.9567 -1.2 -9.23315 -1.65361e+06 -2.34485e+06 -3.58036e+06 -922532 370450 65060.6
140 3 O -0.231863 22.2355 53.8982 -1.2 -9.22365 -2.16255e+06 -2.71524e+06 -3.6861e+06 1.09329e+06 -601506 134297
141 1 Mg -2.86848 30.7013 57.5037 1.2 -7.63595 -853687 -1.10682e+06 4.89869e+06 -1.38285e+06 -1.61805e+06 -626925
142 1 Mg -1.38776 30.6357 49.8391 1.2 -8.48706 860820 1.98956e+06 2.25851e+06 -188805 169149 753815
143 2 Si -0.907929 28.1491 47.9262 2.4 -34.5266 8.86862e+06 6.60022e+06 1.01552e+07 490528 2.30704e+06 -102750
144 3 O -0.829229 29.7184 47.99 -1.2 -8.63414 -2.67959e+06 -4.13337e+06 -3.15939e+06 459536 -1.91877e+06 -265052
145 3 O -1.45946 27.0152 51.769 -1.2 -9.05812 -2.32882e+06 -2.50659e+06 -5.65566e+06 205860 438731 -899631
146 3 O -2.07744 27.5697 48.8273 -1.2 -8.71481 -1.21161e+06 -3.38444e+06 -3.76315e+06 11664.3 -348214 -1.41095e+06
147 1 Mg 0.137907 26.087 46.819 1.2 -7.09271 2.19632e+06 -414584 1.09817e+06 1.125e+06 1.58973e+06 -602083
148 3 O 0.55579 27.5065 48.3893 -1.2 -8.60867 -1.81479e+06 -1.45983e+06 -2.4205e+06 -294582 -329362 621348
149 1 Mg 1.67142 26.1112 54.5285 1.2 -8.33134 2.10976e+06 1.45436e+06 1.07287e+06 -144515 389717 1.03924e+06
150 2 Si 1.63568 28.7022 56.4371 2.4 -33.0609 7.28288e+06 3.98434e+06 1.11313e+07 -78412.4 -348954 -51814.9
151 3 O 1.60943 27.1647 56.4814 -1.2 -9.63653 -3.48819e+06 -2.69368e+06 -4.30589e+06 -44982.5 328216 -398551
152 3 O 1.6432 29.7522 52.7291 -1.2 -9.30885 -3.00662e+06 -1.93871e+06 -4.72699e+06 -88829 -513336 -1.02176e+06
153 3 O 0.35773 29.3937 55.7762 -1.2 -9.21644 -2.90244e+06 -2.75934e+06 -3.69062e+06 -260389 -469374 -171603
154 3 O 2.89108 29.3392 55.7107 -1.2 -9.05981 -2.53403e+06 -3.28972e+06 -3.46468e+06 309653 563007 -75738.3
155 1 Mg 0.0647462 28.3794 52.2059 1.2 -7.73854 -202920 -1.2761e+06 4.52497e+06 -1.14093e+06 1.90444e+06 879807
156 1 Mg 2.10696 28.1021 49.4531 1.2 -7.91848 2.31397e+06 431929 410710 111634 -123192 347635
157 2 Si 1.57592 30.4257 51.2442 2.4 -32.9777 7.87909e+06 4.63017e+06 1.08762e+07 366920 736941 595275
158 3 O 1.68288 31.9926 51.3043 -1.2 -9.8356 -3.07493e+06 -1.9375e+06 -3.79385e+06 765626 -631371 391242
159 3 O 1.64902 29.3677 57.9101 -1.2 -9.50855 -3.04102e+06 -2.58028e+06 -5.55018e+06 -143623 -123803 892792
160 3 O 0.258524 29.7935 50.6632 -1.2 -8.95838 -3.28193e+06 -2.32523e+06 -4.8715e+06 1.1037e+06 -728178 -388632
161 1 Mg -2.90462 28.3797 52.308 1.2 -7.6645 -488798 -818439 4.33958e+06 1.45604e+06 -1.67616e+06 914554
162 3 O 2.81205 29.7787 50.4664 -1.2 -9.3372 -2.90902e+06 -2.17399e+06 -2.67529e+06 -304223 803384 -531886
163 1 Mg -1.33756 28.4107 55.1146 1.2 -8.32415 2.58633e+06 1.91569e+06 883686 -87949.9 -83274.3 -667591
164 2 Si -1.37425 26.3228 53.236 2.4 -33.2913 7.45141e+06 4.69549e+06 1.18623e+07 134801 563158 41349.3
165 3 O -1.46662 24.7814 53.1674 -1.2 -9.54742 -3.2826e+06 -2.46818e+06 -4.51433e+06 743092 340750 11708.9
166 3 O -0.943026 27.648 46.4208 -1.2 -7.62368 -3.05232e+06 -2.05819e+06 -3.04828e+06 -604646 -1.50288e+06 778305
167 3 O -2.62671 26.9834 53.9567 -1.2 -9.06769 -2.67989e+06 -3.59301e+06 -4.712e+06 -642626 1.19308e+06 -141912
168 3 O -0.0640143 27.0096 53.8804 -1.2 -9.17132 -2.22013e+06 -2.51612e+06 -3.38191e+06 1.02147e+06 -262098 274735
169 1 Mg -2.73017 35.5004 57.3991 1.2 -7.68333 -407241 -666627 4.62741e+06 -1.03485e+06 -1.6612e+06 -623266
170 1 Mg -1.28421 35.3899 49.8376 1.2 -8.47245 850623 2.01864e+06 2.21164e+06 -168012 200776 819605
171 2 Si -0.807101 32.9036 47.9247 2.4 -34.4695 8.78143e+06 6.62551e+06 1.01276e+07 491116 2.30946e+06 -79743.7
172 3 O -0.727174 34.4729 47.9885 -1.2 -8.65527 -2.64627e+06 -4.14875e+06 -3.15541e+06 459824 -1.92264e+06 -299741
173 3 O -1.35735 31.7701 51.768 -1.2 -9.11045 -2.30552e+06 -2.20543e+06 -6.05509e+06 314019 321810 -963185
174 3 O -1.97695 32.3253 48.826 -1.2 -8.74881 -1.15924e+06 -3.40155e+06 -3.74969e+06 12492.8 -343910 -1.41369e+06
175 1 Mg 0.237665 30.8412 46.8168 1.2 -7.06361 2.15295e+06 -420339 1.10425e+06 1.12378e+06 1.59149e+06 -593015
176 3 O 0.656562 32.2608 48.3877 -1.2 -8.63918 -1.76056e+06 -1.47374e+06 -2.41017e+06 -292167 -330979 622170
177 1 Mg 1.62454 30.794 54.579 1.2 -8.3063 2.94995e+06 1.53281e+06 1.01997e+06 100442 -78879.8 976482
178 2 Si 1.65726 33.4444 56.3956 2.4 -32.9951 7.49004e+06 4.51503e+06 1.14939e+07 -70862.9 133618 511370
179 3 O 1.67251 31.9062 56.4798 -1.2 -9.75051 -3.34894e+06 -2.04455e+06 -3.90627e+06 -306039 188122 -959525
180 3 O 1.74574 34.5067 52.7279 -1.2 -9.35503 -2.69376e+06 -2.20455e+06 -4.72644e+06 255570 -482182 -1.00976e+06
181 3 O 0.386477 34.1637 55.7654 -1.2 -9.3553 -2.83404e+06 -2.3486e+06 -4.02979e+06 -708427 -352406 -295595
182 3 O 2.91996 34.1456 55.7008 -1.2 -9.15236 -2.01057e+06 -2.85575e+06 -4.37798e+06 976650 672195 -228052
183 1 Mg 0.167046 33.1343 52.2045 1.2 -7.66199 -204367 -1.11824e+06 4.62032e+06 -968768 1.76337e+06 671150
184 1 Mg 2.20727 32.8578 49.4516 1.2 -7.88377 2.25455e+06 450407 406325 107220 -124266 334628
185 2 Si 1.67943 35.1802 51.2429 2.4 -32.9457 7.68011e+06 4.84635e+06 1.08062e+07 239874 603396 702818
186 3 O 1.78736 36.747 51.303 -1.2 -9.79619 -3.12965e+06 -1.92264e+06 -3.92648e+06 802813 -462934 298468
187 3 O 1.73656 34.1131 57.8922 -1.2 -9.25874 -2.71948e+06 -1.85862e+06 -5.19868e+06 268092 306485 760206
188 3 O 0.362533 34.5479 50.661 -1.2 -8.9859 -3.18329e+06 -2.43211e+06 -4.79348e+06 1.11431e+06 -778484 -431515
189 1 Mg -2.80215 33.1347 52.3062 1.2 -7.63488 -616710 -948112 4.25183e+06 1.48633e+06 -1.74871e+06 729477
190 3 O 2.91593 34.533 50.466 -1.2 -9.37205 -2.87151e+06 -2.24906e+06 -2.57791e+06 -290776 855179 -523578
191 1 Mg -1.31879 33.1851 55.1056 1.2 -8.28307 2.33829e+06 1.9056e+06 1.17533e+06 110117 -87790 -557886
192 2 Si -1.3215 31.0656 53.2262 2.4 -33.2978 6.97378e+06 4.83941e+06 1.18954e+07 -207240 -459636 58659.2
193 3 O -1.38563 29.5073 53.1663 -1.2 -9.62027 -3.27706e+06 -2.2122e+06 -4.39014e+06 302342 550983 -79692.1
194 3 O -0.842495 32.4028 46.4192 -1.2 -7.65042 -3.00892e+06 -2.06228e+06 -3.0458e+06 -605358 -1.50376e+06 763120
195 3 O -2.60624 31.7578 53.9242 -1.2 -8.92685 -2.14172e+06 -2.62357e+06 -4.25258e+06 -741302 380271 141797
196 3 O -0.0883889 31.7305 53.9212 -1.2 -9.22393 -3.6363e+06 -2.49639e+06 -3.75486e+06 683885 -762959 255573
197 1 Mg -2.62756 40.2365 57.3898 1.2 -7.56135 -476142 -990649 4.78843e+06 -1.324e+06 -1.62884e+06 -684949
198 1 Mg -1.17787 40.1435 49.8359 1.2 -8.47594 824595 1.97059e+06 2.29135e+06 -179648 305826 730145
199 2 Si -0.702692 37.6572 47.9231 2.4 -34.4548 8.73962e+06 6.53335e+06 1.0236e+07 493415 2.32905e+06 -33896.4
200 3 O -0.621782 39.2264 47.9868 -1.2 -8.66574 -2.6152e+06 -4.11022e+06 -3.21564e+06 460692 -1.93422e+06 -283118
201 3 O -1.25221 36.5242 51.7666 -1.2 -9.13004 -2.43013e+06 -2.01107e+06 -5.17392e+06 259864 240169 -1.33921e+06
202 3 O -1.87295 37.0796 48.8243 -1.2 -8.75179 -1.16833e+06 -3.36071e+06 -3.77797e+06 5724.66 -362761 -1.46141e+06
203 1 Mg 0.341084 35.5943 46.8152 1.2 -7.04472 2.12136e+06 -436154 1.12332e+06 1.12239e+06 1.59141e+06 -558249
204 3 O 0.760681 37.0138 48.3864 -1.2 -8.64335 -1.73551e+06 -1.43585e+06 -2.46208e+06 -286907 -320313 581047
205 1 Mg 1.73374 35.5646 54.5732 1.2 -8.27374 2.14181e+06 1.51353e+06 1.10775e+06 119022 -193686 849536
206 2 Si 1.84257 38.2154 56.3947 2.4 -32.845 7.26955e+06 4.50885e+06 1.20949e+07 40759.3 -196981 61224.9
207 3 O 1.76565 36.6682 56.4652 -1.2 -9.74088 -3.0415e+06 -2.17365e+06 -4.50542e+06 422337 139699 -647252
208 3 O 1.85132 39.2606 52.7264 -1.2 -9.28436 -3.00567e+06 -2.13425e+06 -4.75978e+06 61222.6 -476041 -1.06383e+06
209 3 O 0.568996 38.9287 55.7574 -1.2 -9.30289 -2.07401e+06 -2.60766e+06 -3.86056e+06 -439924 -414808 23874.3
210 3 O 3.12236 38.8948 55.7214 -1.2 -9.28913 -2.14959e+06 -2.85812e+06 -3.94023e+06 859505 371937 -180777
211 1 Mg 0.272384 37.8883 52.2029 1.2 -7.82632 -429179 -1.04514e+06 4.58721e+06 -1.02835e+06 1.91102e+06 765655
212 1 Mg 2.31122 37.6122 49.4501 1.2 -7.88761 2.30067e+06 382403 444028 99998.1 -162333 369721
213 2 Si 1.78573 39.934 51.2414 2.4 -32.9779 7.90577e+06 4.62592e+06 1.08534e+07 278929 236114 507375
214 3 O 1.89428 41.5006 51.3014 -1.2 -9.86918 -3.04157e+06 -2.02802e+06 -3.78321e+06 659271 -386410 414260
215 3 O 1.87912 38.8453 57.921 -1.2 -9.39615 -2.35642e+06 -1.9287e+06 -4.11773e+06 -38842.6 -100514 621602
216 3 O 0.469216 39.3015 50.6588 -1.2 -8.90396 -3.14101e+06 -2.35984e+06 -5.15039e+06 1.14966e+06 -627188 -429332
217 1 Mg -2.69668 37.8889 52.3043 1.2 -7.63495 -132243 -1.18886e+06 4.22571e+06 1.64007e+06 -1.759e+06 883806
218 3 O 3.0225 39.2866 50.4651 -1.2 -9.37807 -3.0416e+06 -2.13173e+06 -2.5012e+06 -291097 891275 -473306
219 1 Mg -1.15718 37.9245 55.126 1.2 -8.23962 2.38506e+06 1.58289e+06 1.13541e+06 195870 14984.5 -575347
220 2 Si -1.22727 35.8126 53.2416 2.4 -32.8671 8.13799e+06 5.60976e+06 1.19297e+07 215364 -82685.2 -3910.61
221 3 O -1.28222 34.2526 53.181 -1.2 -9.81543 -3.13419e+06 -1.88943e+06 -4.20033e+06 221428 346103 326117
222 3 O -0.738054 37.1566 46.4176 -1.2 -7.66756 -2.97938e+06 -2.03351e+06 -3.08033e+06 -606404 -1.50561e+06 742831
223 3 O -2.50335 36.5392 53.9261 -1.2 -9.16144 -1.46196e+06 -2.36218e+06 -4.13663e+06 -1.0268e+06 483528 267002
224 3 O 0.0818466 36.5054 53.9074 -1.2 -9.25251 -1.94268e+06 -2.37879e+06 -3.54798e+06 1.39567e+06 -407352 553209
225 1 Mg -2.52555 45.0233 57.3024 1.2 -7.46628 -547318 -1.19612e+06 4.40959e+06 -1.65791e+06 -1.68244e+06 -924799
226 1 Mg -1.06993 44.8968 49.8343 1.2 -8.42433 696284 1.99376e+06 2.31224e+06 -179222 189995 912098
227 2 Si -0.596166 42.4103 47.9215 2.4 -34.3717 8.60016e+06 6.64008e+06 1.01406e+07 477539 2.32292e+06 -60133.8
228 3 O -0.51472 43.9796 47.9853 -1.2 -8.71558 -2.53916e+06 -4.15256e+06 -3.16872e+06 466355 -1.91859e+06 -332807
229 3 O -1.14475 41.2777 51.7649 -1.2 -9.19051 -2.20695e+06 -2.17227e+06 -4.72068e+06 558692 -428392 -959715
230 3 O -1.76671 41.8331 48.8226 -1.2 -8.79184 -1.10282e+06 -3.43107e+06 -3.71121e+06 23336 -379013 -1.43347e+06
231 1 Mg 0.447076 40.3473 46.8135 1.2 -7.01991 2.07712e+06 -449327 1.14077e+06 1.12341e+06 1.58896e+06 -584104
232 3 O 0.866985 41.7666 48.385 -1.2 -8.68002 -1.67111e+06 -1.48109e+06 -2.42283e+06 -293174 -309108 627546
233 1 Mg 1.82424 40.3353 54.5592 1.2 -8.28266 2.02851e+06 1.306e+06 1.04165e+06 -89055.8 134790 1.09883e+06
234 2 Si 2.00236 42.9813 56.39 2.4 -32.3924 6.65504e+06 5.86163e+06 1.15361e+07 -82037.6 -390793 950609
235 3 O 1.88611 41.4231 56.4504 -1.2 -9.86469 -3.13072e+06 -1.1501e+06 -4.28922e+06 657671 206587 -884903
236 3 O 1.95891 44.014 52.7248 -1.2 -9.53639 -2.65083e+06 -2.09565e+06 -4.53549e+06 97140.3 -458007 -1.0563e+06
237 3 O 0.711047 43.6853 55.7677 -1.2 -9.51722 -1.47274e+06 -3.19006e+06 -3.66301e+06 -631671 -602692 -685073
238 3 O 3.26729 43.6768 55.7152 -1.2 -9.6175 -1.97582e+06 -2.95896e+06 -4.10425e+06 887736 495449 -568435
239 1 Mg 0.379928 42.6418 52.2013 1.2 -7.63057 -448535 -607030 4.47232e+06 -1.10982e+06 1.78693e+06 697119
240 1 Mg 2.41752 42.366 49.4484 1.2 -7.83219 2.22775e+06 489066 327512 135783 -158728 371184
241 2 Si 1.89374 44.6874 51.2398 2.4 -32.756 7.79876e+06 4.82342e+06 1.03919e+07 274307 633639 947745
242 3 O 2.00266 46.254 51.2996 -1.2 -9.92272 -3.08342e+06 -1.91159e+06 -3.78575e+06 799977 -359223 59209.2
243 3 O 2.00657 43.6777 57.9047 -1.2 -9.505 -2.69483e+06 -2.29827e+06 -4.04119e+06 -290331 -617270 1.11766e+06
244 3 O 0.577464 44.0549 50.6567 -1.2 -9.04103 -3.1169e+06 -2.50477e+06 -4.67955e+06 1.17915e+06 -714378 -562642
245 1 Mg -2.58906 42.6425 52.3022 1.2 -7.45964 -542526 -833106 4.12366e+06 1.77063e+06 -1.82913e+06 958035
246 3 O 3.13067 44.0398 50.464 -1.2 -9.42388 -2.84196e+06 -2.25297e+06 -2.55041e+06 -348207 769925 -691819
247 1 Mg -1.00472 42.7588 55.1103 1.2 -7.97851 1.67571e+06 1.97558e+06 1.15757e+06 -43192.8 82334.4 -498747
248 2 Si -1.18231 40.5797 53.2547 2.4 -32.9176 7.92962e+06 4.99942e+06 1.22868e+07 251297 -462167 86072.4
249 3 O -1.13032 39.0228 53.169 -1.2 -9.65416 -3.35076e+06 -1.84365e+06 -4.39882e+06 -2992.58 544974 248444
250 3 O -0.631421 41.9099 46.4159 -1.2 -7.7022 -2.92299e+06 -2.04877e+06 -3.06523e+06 -604213 -1.50585e+06 757342
251 3 O -2.46216 41.2317 53.9398 -1.2 -9.32577 -2.01057e+06 -2.61284e+06 -3.86687e+06 -923584 322039 131284
252 3 O 0.13818 41.28 53.9108 -1.2 -9.2638 -1.2142e+06 -2.31286e+06 -3.90096e+06 1.09578e+06 -561568 302359
253 1 Mg -2.3997 49.7691 57.3469 1.2 -7.75201 -473140 -1.28819e+06 4.26604e+06 -1.42944e+06 -1.92035e+06 -647335
254 1 Mg -0.961069 49.6502 49.8327 1.2 -8.3307 618424 1.92231e+06 2.31147e+06 -174606 210968 868311
255 2 Si -0.488083 47.1636 47.9198 2.4 -34.264 8.4401e+06 6.53588e+06 1.0232e+07 490666 2.30991e+06 31003.8
256 3 O -0.40607 48.7329 47.9837 -1.2 -8.77614 -2.44865e+06 -4.09596e+06 -3.21356e+06 462098 -1.92348e+06 -342477
257 3 O -1.0361 46.031 51.7632 -1.2 -9.11287 -2.18715e+06 -2.0864e+06 -5.25257e+06 170554 29767.7 -1.36186e+06
258 3 O -1.65866 46.5866 48.821 -1.2 -8.84118 -999809 -3.36641e+06 -3.7975e+06 18489.9 -363124 -1.50768e+06
259 1 Mg 0.554124 45.1001 46.8117 1.2 -6.97237 2.00761e+06 -442842 1.12845e+06 1.12306e+06 1.58772e+06 -542984
260 3 O 0.974961 46.5195 48.3832 -1.2 -8.7342 -1.60128e+06 -1.43004e+06 -2.45032e+06 -292561 -312802 543812
261 1 Mg 1.9729 45.1028 54.5325 1.2 -8.00891 2.08134e+06 1.74059e+06 1.19233e+06 7872.37 -338569 1.21596e+06
262 2 Si 2.06668 47.7499 56.3717 2.4 -32.9519 7.74273e+06 4.57172e+06 1.14954e+07 185237 -158584 803875
263 3 O 1.94439 46.199 56.4593 -1.2 -9.74648 -3.37157e+06 -1.89898e+06 -4.14423e+06 228142 -126241 -667928
264 3 O 2.0677 48.7672 52.7232 -1.2 -9.45698 -2.74687e+06 -1.91407e+06 -4.9166e+06 454019 -47708.3 -1.16356e+06
265 3 O 0.800282 48.4487 55.7093 -1.2 -9.23984 -2.14627e+06 -3.03487e+06 -4.44718e+06 -483920 -778862 -332778
266 3 O 3.36656 48.3869 55.701 -1.2 -9.27699 -2.62357e+06 -2.85978e+06 -4.47158e+06 1.2094e+06 539049 -711653
267 1 Mg 0.488584 47.395 52.1996 1.2 -7.63738 -449620 -1.21412e+06 4.64497e+06 -1.07779e+06 1.82781e+06 1.29318e+06
268 1 Mg 2.52544 47.1195 49.4466 1.2 -7.78216 2.13591e+06 391149 441698 103068 -137810 462929
269 2 Si 2.00256 49.4407 51.2382 2.4 -32.663 7.30864e+06 4.54573e+06 1.10252e+07 243345 375178 874424
270 3 O 2.11156 51.0073 51.2982 -1.2 -9.98913 -2.82114e+06 -1.88907e+06 -3.97669e+06 734712 -241029 168593
271 3 O 2.0815 48.4346 57.8567 -1.2 -9.22806 -3.30638e+06 -2.62082e+06 -4.67036e+06 126117 -515124 689518
272 3 O 0.686344 48.8082 50.655 -1.2 -9.10573 -2.94864e+06 -2.30119e+06 -4.96041e+06 1.12225e+06 -775199 -564032
273 1 Mg -2.48039 47.3957 52.3005 1.2 -7.49788 -532452 -1.0205e+06 4.42079e+06 1.58031e+06 -1.673e+06 1.20185e+06
274 3 O 3.23944 48.7932 50.4623 -1.2 -9.49762 -2.71449e+06 -2.11315e+06 -2.66635e+06 -292321 843542 -663958
275 1 Mg -0.89923 47.5123 55.0973 1.2 -8.276 1.79055e+06 1.29691e+06 1.191e+06 134353 -11455.2 -450504