ITEM: TIMESTEP
68700
ITEM: NUMBER OF ATOMS
10500
ITEM: BOX BOUNDS xy xz yz pp pp pp
0.0000000000000000e+00 8.9687999999999999e+00 2.9895999999999998e+00
0.0000000000000000e+00 1.1872499999999999e+02 0.0000000000000000e+00
0.0000000000000000e+00 2.5297749999999999e+02 0.0000000000000000e+00
ITEM: ATOMS id type element xu yu zu q c_pe c_s[1] c_s[2] c_s[3] c_s[4] c_s[5] c_s[6]
1 1 Mg -3.10162 6.96835 57.1322 1.2 -7.70487 -555239 -3.26121e+06 3.569e+06 -2.39336e+06 -1.41384e+06 991823
2 1 Mg -1.82655 6.90154 50.0912 1.2 -8.1495 -240782 910497 1.6054e+06 -62863.6 -30724.7 844628
3 2 Si -0.257935 3.96038 48.0876 2.4 -36.513 1.07464e+07 7.64734e+06 1.19625e+07 798080 1.92208e+06 1.26962e+06
4 3 O -0.335812 5.46814 47.6264 -1.2 -7.73323 -3.1556e+06 -2.09493e+06 -2.91067e+06 144040 -951686 -125407
5 3 O -2.03793 3.43377 51.8941 -1.2 -7.81268 -4.55976e+06 -1.86419e+06 -7.33458e+06 -1.36144e+06 760075 -2.19523e+06
6 3 O -1.54015 3.53929 48.9521 -1.2 -7.95605 -1.79134e+06 -1.01754e+06 -4.98743e+06 19371.9 -728640 -154335
7 1 Mg 1.82954 2.54582 47.1376 1.2 -8.23815 3.01164e+06 -1.06641e+06 1.30476e+06 1.14734e+06 838688 499682
8 3 O 1.22989 3.66364 48.7877 -1.2 -7.7135 -2.19396e+06 -1.74652e+06 -4.24998e+06 -470125 -714518 -834728
9 1 Mg 0.879192 2.25003 54.6104 1.2 -9.00108 3.32366e+06 -909065 1.62021e+06 -142964 301626 1.63375e+06
10 2 Si 1.17103 4.91327 56.5411 2.4 -33.669 9.04192e+06 3.29002e+06 1.22412e+07 -843844 -1.06489e+06 3.65203e+06
11 3 O 1.14054 3.29295 56.4542 -1.2 -9.04795 -3.47587e+06 -777577 -5.38649e+06 260319 532262 -783643
12 3 O 1.10813 6.07342 52.8172 -1.2 -9.15716 -3.88492e+06 -2.18439e+06 -5.17528e+06 747707 -56473.4 -1.94704e+06
13 3 O 0.00300023 5.66871 55.8688 -1.2 -8.8654 -3.90077e+06 -3.4897e+06 -7.11612e+06 -324202 -974219 -1.31668e+06
14 3 O 2.5864 5.43277 55.8078 -1.2 -8.82404 -3.11292e+06 -2.66711e+06 -4.33341e+06 1.20222e+06 -1.02023e+06 -1.52874e+06
15 1 Mg -0.459401 4.67631 52.2426 1.2 -8.64914 287023 -1.78974e+06 5.39808e+06 -1.13465e+06 1.31248e+06 1.08357e+06
16 1 Mg 2.79456 3.9971 49.9987 1.2 -8.78292 4.2652e+06 -786409 2.35783e+06 -484384 936612 -962911
17 2 Si 1.16169 6.59457 51.2556 2.4 -33.3612 7.70306e+06 5.18426e+06 1.19329e+07 -179505 -88283.1 2.03047e+06
18 3 O 1.28989 8.18905 51.2909 -1.2 -10.1146 -2.20747e+06 -1.61262e+06 -3.06457e+06 185875 -501086 1.03135e+06
19 3 O 1.10747 5.4548 57.9869 -1.2 -8.94901 -4.06602e+06 -2.20752e+06 -7.22341e+06 1.11462e+06 -2.5433e+06 -515760
20 3 O -0.184847 6.06029 50.6845 -1.2 -8.58424 -3.09873e+06 -2.701e+06 -5.84243e+06 1.49127e+06 7092.72 -1.16469e+06
21 1 Mg -3.49704 4.67769 52.6661 1.2 -8.14374 838236 -2.82365e+06 3.77538e+06 2.01283e+06 -1.35741e+06 849006
22 3 O 2.48581 5.93312 50.6539 -1.2 -9.17407 -3.62084e+06 -920336 -3.65586e+06 -1.55209e+06 -890348 -378003
23 1 Mg -1.67438 4.75528 55.2314 1.2 -8.6494 1.12288e+06 -50132.3 2.33197e+06 649766 -472395 998318
24 2 Si -2.01145 2.57013 53.3023 2.4 -35.2306 9.34653e+06 355186 1.40504e+07 2.53004e+06 346359 506322
25 3 O -1.99725 1.07903 53.0785 -1.2 -8.72845 -5.06619e+06 -3.87424e+06 -5.88435e+06 1.5773e+06 101352 -985272
26 3 O -0.0467762 2.97103 46.8385 -1.2 -6.80557 -3.29539e+06 -1.61432e+06 -3.40782e+06 -989303 -1.99705e+06 -520590
27 3 O -3.26357 3.06007 53.9875 -1.2 -8.00535 -5.74105e+06 -2.06846e+06 -8.16605e+06 -395741 1.63502e+06 -1.79e+06
28 3 O -0.719709 3.34648 53.9633 -1.2 -8.33986 -3.97907e+06 -176202 -6.23048e+06 1.2521e+06 -531047 230033
29 1 Mg -3.10086 11.8271 56.9672 1.2 -6.35342 -682866 -1.06034e+06 4.59425e+06 238345 -1.67937e+06 -147405
30 1 Mg -1.75014 11.5838 49.8362 1.2 -7.77002 -176576 2.28215e+06 2.05095e+06 -299777 427770 977990
31 2 Si -1.18003 9.02138 47.9309 2.4 -33.8243 7.41699e+06 7.62843e+06 9.35509e+06 242669 2.63847e+06 -490357
32 3 O -1.23224 10.5991 47.9811 -1.2 -9.13548 -1.81475e+06 -3.88789e+06 -2.49429e+06 648984 -1.94512e+06 250490
33 3 O -1.79016 8.01447 51.8693 -1.2 -9.4727 -924305 -3.78077e+06 -5.13398e+06 527963 -1.05079e+06 -914616
34 3 O -2.30986 8.37215 48.8528 -1.2 -9.24782 -580302 -2.70815e+06 -3.18551e+06 -321885 -679525 -382483
35 1 Mg 0.154883 7.08234 46.8007 1.2 -7.42847 1.73578e+06 -224389 873178 944117 1.71409e+06 -1.49492e+06
36 3 O 0.325447 8.50934 48.3809 -1.2 -8.88597 -977044 -2.15081e+06 -2.57263e+06 -44307.5 -787014 812336
37 1 Mg 1.10292 7.02705 54.627 1.2 -8.0148 2.04871e+06 -467138 1.72839e+06 48401.7 -96644.5 1.84952e+06
38 2 Si 1.20379 9.65046 56.294 2.4 -31.9097 5.9817e+06 6.20688e+06 1.2309e+07 -729110 101829 1.8767e+06
39 3 O 1.16182 8.03465 56.5006 -1.2 -9.76353 -4.28011e+06 293016 -5.23945e+06 -1.19602e+06 518798 -3.12194e+06
40 3 O 1.28624 10.7248 52.7351 -1.2 -10.4682 -1.59557e+06 -1.85316e+06 -5.00118e+06 690514 -540652 -1.71695e+06
41 3 O -0.122265 10.3752 55.82 -1.2 -9.77569 146027 -2.84778e+06 -4.3921e+06 -1.02882e+06 -1.84082e+06 -254893
42 3 O 2.47375 10.2898 55.6508 -1.2 -10.3158 -1.79178e+06 -2.52023e+06 -6.11571e+06 1.16727e+06 2.11666e+06 -1.14303e+06
43 1 Mg -0.262694 9.34741 52.2523 1.2 -6.99272 -1.82424e+06 44047.5 5.0001e+06 -1.12134e+06 1.04375e+06 1.10712e+06
44 1 Mg 1.87648 9.01537 49.4629 1.2 -7.46272 1.44561e+06 752368 -25355.4 229697 -297145 -2846.81
45 2 Si 1.21415 11.3799 51.2378 2.4 -31.3612 5.1575e+06 5.37066e+06 1.06595e+07 62571.8 -112165 1.6933e+06
46 3 O 1.31634 12.9512 51.3023 -1.2 -10.5398 -2.06167e+06 -1.29547e+06 -4.22051e+06 444344 42799 101784
47 3 O 1.3044 10.3861 57.8128 -1.2 -9.20378 -3.94556e+06 -2.10857e+06 -4.64724e+06 -309833 -1.46823e+06 317347
48 3 O -0.115718 10.7564 50.681 -1.2 -9.624 -1.59661e+06 -2.81241e+06 -4.67589e+06 1.07044e+06 -510766 -845948
49 1 Mg -3.26386 9.35564 52.3622 1.2 -6.61918 -1.37917e+06 -1.58825e+06 4.28308e+06 1.56359e+06 -1.46461e+06 1.28768e+06
50 3 O 2.45216 10.7265 50.4558 -1.2 -10.1563 -1.82593e+06 -2.10613e+06 -1.91805e+06 -646274 601112 -115848
51 1 Mg -1.77074 9.32075 55.2439 1.2 -7.63172 5214.79 1.50752e+06 390892 112746 329154 -414125
52 2 Si -1.93678 7.33451 53.3835 2.4 -32.9486 4.32603e+06 880315 1.29494e+07 724170 -534959 1.63176e+06
53 3 O -1.9211 5.83926 53.2023 -1.2 -9.11929 -3.70518e+06 -5.89515e+06 -6.62116e+06 -756272 4176.78 -1.90135e+06
54 3 O -1.19417 8.46968 46.4488 -1.2 -7.82826 -2.41473e+06 -2.13014e+06 -2.86671e+06 -542976 -1.74586e+06 1.29391e+06
55 3 O -3.10615 7.94198 54.141 -1.2 -9.71905 -4.99809e+06 -3.14665e+06 -4.22253e+06 388629 685101 -2.24396e+06
56 3 O -0.674007 7.89799 54.1073 -1.2 -9.19205 -3.28519e+06 -3.02214e+06 -6.32776e+06 793111 -582207 -1.31969e+06
57 1 Mg -2.94357 16.6867 57.0704 1.2 -6.94081 -625074 -2.25512e+06 4.42617e+06 180209 -1.35196e+06 663382
58 1 Mg -1.6714 16.3544 49.8412 1.2 -7.77309 -341170 1.73206e+06 2.64949e+06 -190289 297072 366113
59 2 Si -1.18567 13.8526 47.9314 2.4 -33.2635 6.82144e+06 6.3505e+06 1.03581e+07 485546 2.28776e+06 -377876
60 3 O -1.09664 15.4205 47.9915 -1.2 -9.3138 -1.4894e+06 -3.8671e+06 -3.23299e+06 426292 -1.93975e+06 -4387.82
61 3 O -1.73493 12.7491 51.7772 -1.2 -9.77492 -1.68546e+06 -2.61701e+06 -9.10065e+06 445005 -726589 -1.0803e+06
62 3 O -2.36115 13.2717 48.8238 -1.2 -9.38274 -260401 -3.09721e+06 -3.77119e+06 -107417 -408474 -1.39925e+06
63 1 Mg -0.159928 11.7639 46.8533 1.2 -6.58428 1.40101e+06 -300240 959701 1.12778e+06 1.5729e+06 -1.05339e+06
64 3 O 0.2623 13.1866 48.413 -1.2 -9.25385 -735690 -1.21626e+06 -2.5882e+06 -194327 -271879 740822
65 1 Mg 1.33732 11.7778 54.4738 1.2 -7.29131 1.60014e+06 611390 -921744 -529724 -460008 39987.7
66 2 Si 1.46074 14.4518 56.2419 2.4 -31.2622 7.45612e+06 4.45623e+06 1.46011e+07 1.27944e+06 -1.00197e+06 3.53265e+06
67 3 O 1.31179 12.8935 56.17 -1.2 -10.8231 -3.09156e+06 -145521 -4.1966e+06 100591 506759 -1.08515e+06
68 3 O 1.36565 15.4813 52.729 -1.2 -9.94283 -2.11986e+06 -1.11432e+06 -5.87116e+06 -633260 -1.15028e+06 -945025
69 3 O 0.200704 15.3545 55.6813 -1.2 -9.74041 -412036 -1.27064e+06 -5.06429e+06 -2.54702e+06 1.05052e+06 -1.02379e+06
70 3 O 2.78854 15.1525 55.4972 -1.2 -9.74882 77034.8 -353307 -5.89652e+06 2.63625e+06 -413895 -1.63845e+06
71 1 Mg -0.206989 14.1049 52.2121 1.2 -7.24004 -1.82325e+06 -1.87133e+06 4.38336e+06 -924988 2.08154e+06 622878
72 1 Mg 1.82591 13.8102 49.4556 1.2 -7.23974 1.33457e+06 244347 571429 172284 -169200 456873
73 2 Si 1.29285 16.1518 51.2434 2.4 -31.5187 5.85122e+06 3.62555e+06 1.1715e+07 212403 459912 -1983.22
74 3 O 1.39496 17.7199 51.3047 -1.2 -10.7379 -1.78778e+06 -1.57886e+06 -4.15351e+06 771352 -499097 847589
75 3 O 1.64046 15.162 57.7655 -1.2 -9.6127 -2.46923e+06 1.10291e+06 -4.04382e+06 310833 -1.19018e+06 2.0829e+06
76 3 O -0.0269106 15.5178 50.6688 -1.2 -9.55695 -2.23808e+06 -1.87751e+06 -5.67416e+06 1.02592e+06 -333486 -146590
77 1 Mg -3.18391 14.1057 52.3125 1.2 -6.91388 -1.39891e+06 -2.54069e+06 4.82103e+06 1.32372e+06 -1.9044e+06 884984
78 3 O 2.52432 15.503 50.4579 -1.2 -10.0441 -2.05479e+06 -1.49731e+06 -3.00232e+06 -284608 654494 -153173
79 1 Mg -1.43804 14.3333 54.9023 1.2 -7.5271 789211 -46406.8 2.24656e+06 -322356 518765 892874
80 2 Si -1.78285 12.0258 53.1442 2.4 -31.627 3.58819e+06 3.91777e+06 1.13794e+07 1.21887e+06 568655 814995
81 3 O -1.78037 10.4923 53.175 -1.2 -10.5295 -1.1066e+06 -2.86369e+06 -4.97663e+06 -51352.7 522656 -836153
82 3 O -1.21337 13.3381 46.4311 -1.2 -8.16288 -2.24626e+06 -2.03667e+06 -3.00787e+06 -630238 -1.45845e+06 1.10353e+06
83 3 O -2.90255 12.7445 53.9299 -1.2 -9.87632 -4.03287e+06 -3.3837e+06 -5.37001e+06 -482087 2.1513e+06 -46410.7
84 3 O -0.400913 12.8242 53.8012 -1.2 -9.36735 -829339 -337927 -6.32905e+06 1.54655e+06 -583024 911736
85 1 Mg -3.11891 21.1983 57.3652 1.2 -6.57957 -2.40746e+06 -1.1648e+06 4.06256e+06 -482705 -2.36385e+06 -518885
86 1 Mg -1.5831 21.1217 49.8405 1.2 -7.46664 -803220 2.30927e+06 1.98528e+06 -219139 311221 697163
87 2 Si -1.09384 18.6291 47.9287 2.4 -32.9611 6.32711e+06 6.90593e+06 9.87093e+06 493646 2.35053e+06 -742382
88 3 O -1.02071 20.1985 47.9911 -1.2 -9.45845 -1.32404e+06 -4.3778e+06 -2.84627e+06 460189 -1.94265e+06 -85005.1
89 3 O -1.65002 17.5002 51.771 -1.2 -9.81953 -1.43934e+06 -2.11718e+06 -7.00786e+06 76454.9 -796675 -643596
90 3 O -2.26174 18.0434 48.8281 -1.2 -9.54752 63841.5 -3.31861e+06 -3.70775e+06 -13941.9 -401817 -952762
91 1 Mg -0.0440435 16.5651 46.8269 1.2 -6.43465 1.10336e+06 -343658 1.04525e+06 1.13488e+06 1.57529e+06 -919428
92 3 O 0.37001 17.9877 48.3925 -1.2 -9.39964 -512850 -1.47867e+06 -2.42342e+06 -290580 -311620 1.00134e+06
93 1 Mg 1.33574 16.72 54.5293 1.2 -7.27927 -1.49707e+06 -1.81399e+06 1.67011e+06 -874823 220534 485096
94 2 Si 1.56213 19.2248 56.1805 2.4 -30.0425 3.18914e+06 3.66833e+06 1.4655e+07 1.20393e+06 -2.27799e+06 -148453
95 3 O 1.5422 17.6718 56.2843 -1.2 -10.7121 -2.7599e+06 -2.97068e+06 -6.45619e+06 1.62087e+06 -656871 -1.92059e+06
96 3 O 1.45147 20.239 52.7294 -1.2 -10.8716 -571776 -1.23544e+06 -5.6763e+06 310336 -156479 -642911
97 3 O 0.288778 19.8562 55.651 -1.2 -10.3796 -364255 -3.8356e+06 -7.14293e+06 -1.05966e+06 -522607 825189
98 3 O 2.83664 19.9803 55.5277 -1.2 -11.0138 -324085 -578050 -2.95553e+06 1.13152e+06 -174786 -932225
99 1 Mg -0.126194 18.8651 52.2079 1.2 -6.67616 -2.47198e+06 -1.02408e+06 4.84387e+06 -1.08571e+06 1.58844e+06 897657
100 1 Mg 1.92402 18.5815 49.4545 1.2 -7.01751 910363 491344 296779 108151 -181245 -78647.2
101 2 Si 1.38106 20.9117 51.2443 2.4 -30.4365 4.00295e+06 5.12693e+06 1.02202e+07 357620 90564.4 67500.2
102 3 O 1.48527 22.4795 51.3054 -1.2 -11.0613 -1.36216e+06 -1.9441e+06 -3.6545e+06 423997 -643806 82289.4
103 3 O 1.33502 19.7125 57.9885 -1.2 -9.40716 129783 -2.5512e+06 -256317 119866 -2.88201e+06 371227
104 3 O 0.0615419 20.2804 50.6669 -1.2 -10.0507 -1.18083e+06 -2.60226e+06 -4.74854e+06 1.18379e+06 -702065 -214090
105 1 Mg -3.09665 18.8643 52.3122 1.2 -6.28135 -1.91673e+06 -1.5149e+06 4.24401e+06 1.66389e+06 -1.70791e+06 858114
106 3 O 2.61548 20.2646 50.4626 -1.2 -10.485 -1.27883e+06 -2.30534e+06 -2.15447e+06 -369844 864259 -172650
107 1 Mg -1.49067 19.0047 55.0057 1.2 -6.78427 -1.51177e+06 -406467 2.59794e+06 33479.7 828172 -485854
108 2 Si -1.72463 16.7955 53.2296 2.4 -30.9837 4.14186e+06 3.77495e+06 1.20122e+07 2.12855e+06 -696298 430759
109 3 O -1.6689 15.2209 53.038 -1.2 -10.3973 -2.80831e+06 -2.02079e+06 -6.65938e+06 594386 1.63322e+06 1.12343e+06
110 3 O -1.12868 18.1227 46.4249 -1.2 -8.29576 -1.98635e+06 -2.22164e+06 -2.86478e+06 -604300 -1.49939e+06 1.04997e+06
111 3 O -3.01952 17.3764 53.8393 -1.2 -10.3425 -3.3351e+06 -3.98014e+06 -6.66131e+06 -2.0442e+06 1.92084e+06 874729
112 3 O -0.470937 17.6354 53.8476 -1.2 -10.3243 110200 -1.81071e+06 -6.87812e+06 1.79048e+06 -1.96325e+06 365259
113 1 Mg -3.03766 25.9272 57.4752 1.2 -6.60301 -2.90402e+06 -1.65339e+06 4.09859e+06 -1.04787e+06 -1.51666e+06 -1.20504e+06
114 1 Mg -1.48778 25.88 49.8402 1.2 -7.73353 -502761 2.00131e+06 2.41579e+06 -190156 79080.6 1.10114e+06
115 2 Si -1.00491 23.3922 47.9274 2.4 -32.953 6.31643e+06 7.1427e+06 9.64021e+06 471102 2.29613e+06 384118
116 3 O -0.927602 24.9615 47.9909 -1.2 -9.3451 -1.5216e+06 -4.27329e+06 -3.00511e+06 464747 -1.89805e+06 -645499
117 3 O -1.55795 22.2588 51.7696 -1.2 -10.3944 -274947 -2.22996e+06 -5.64549e+06 1.0803e+06 80625.9 -1.40349e+06
118 3 O -2.17411 22.8111 48.8277 -1.2 -9.61254 223606 -3.64395e+06 -3.48769e+06 15314.7 -377469 -1.58562e+06
119 1 Mg 0.0423997 21.3296 46.8225 1.2 -6.34524 987657 -76348.8 763470 1.12538e+06 1.58569e+06 -603206
120 3 O 0.458537 22.7495 48.3911 -1.2 -9.46491 -442242 -1.74324e+06 -2.14196e+06 -294015 -312437 476771
121 1 Mg 1.40567 21.4571 54.4116 1.2 -6.47893 -1.42998e+06 816403 1.89004e+06 1.01891e+06 -85813.3 510983
122 2 Si 1.30075 23.9152 56.4045 2.4 -29.7265 2.25598e+06 6.19413e+06 1.33277e+07 31340.3 807745 -2.96622e+06
123 3 O 1.43914 22.2762 56.5434 -1.2 -10.9167 -875690 920790 -4.93181e+06 -1.70813e+06 329362 -872324
124 3 O 1.54441 24.9963 52.7297 -1.2 -10.7351 -1.0607e+06 -1.31781e+06 -5.68983e+06 266221 -756182 -879571
125 3 O 0.0373272 24.7137 55.8047 -1.2 -10.9123 -500108 -1.44485e+06 -3.82531e+06 -876966 691137 -823064
126 3 O 2.55908 24.571 55.6855 -1.2 -10.3422 402897 -3.44905e+06 -6.06254e+06 1.43257e+06 789768 -13157.2
127 1 Mg -0.0335968 23.6229 52.2067 1.2 -6.405 -1.99978e+06 -1.27523e+06 4.86282e+06 -1.132e+06 1.59252e+06 810547
128 1 Mg 2.01073 23.3445 49.4541 1.2 -6.9779 845514 617840 179647 160651 -96753.6 578391
129 2 Si 1.47594 25.6699 51.2449 2.4 -30.9116 5.26341e+06 4.32171e+06 1.04898e+07 309314 1.01711e+06 899336
130 3 O 1.58172 27.2371 51.3054 -1.2 -10.6932 -1.92171e+06 -1.54668e+06 -3.73233e+06 897855 -558847 -117270
131 3 O 1.59477 24.5647 57.9291 -1.2 -10.3143 -1.94235e+06 -3.97865e+06 -4.88716e+06 44851.6 2.28807e+06 3.44393e+06
132 3 O 0.157925 25.0378 50.6651 -1.2 -9.91369 -2.04672e+06 -2.20913e+06 -4.83758e+06 1.13765e+06 -465718 -583554
133 1 Mg -3.00341 23.6231 52.3098 1.2 -6.41501 -2.73315e+06 -2.4166e+06 3.32346e+06 1.9699e+06 -1.86101e+06 2.16705e+06
134 3 O 2.71149 25.0232 50.4656 -1.2 -10.2269 -1.47889e+06 -2.09951e+06 -2.83641e+06 -383690 525909 -788368
135 1 Mg -1.657 23.6223 55.198 1.2 -6.71185 -504492 781573 532930 34299.1 -253945 -466309
136 2 Si -1.61955 21.5912 53.252 2.4 -29.7111 2.09848e+06 5.91087e+06 1.30246e+07 -804060 -322099 -239716
137 3 O -1.61278 20.0334 53.2391 -1.2 -11.1199 -1.08545e+06 -1.41794e+06 -6.99287e+06 129190 640473 666752
138 3 O -1.03938 22.8897 46.4223 -1.2 -8.31105 -1.94941e+06 -2.36673e+06 -2.73248e+06 -603881 -1.50006e+06 584710
139 3 O -2.86022 22.5057 53.8506 -1.2 -10.8025 1.00086e+06 -2.76206e+06 -6.87927e+06 -975322 723570 1.34231e+06
140 3 O -0.290956 22.2408 53.9307 -1.2 -10.8832 806425 -2.49364e+06 -4.02185e+06 1.90388e+06 -904315 840737
141 1 Mg -2.78356 30.6556 57.3461 1.2 -7.40876 -1.11543e+06 -4.2823e+06 5.41957e+06 -2.74504e+06 -868165 -1.7814e+06
142 1 Mg -1.38776 30.6357 49.8391 1.2 -8.23784 374790 1.39128e+06 2.95063e+06 -185751 197028 995830
143 2 Si -0.907929 28.1491 47.9262 2.4 -33.5321 7.24012e+06 6.23913e+06 1.05529e+07 499331 2.27475e+06 979128
144 3 O -0.829229 29.7184 47.99 -1.2 -8.99951 -2.07649e+06 -3.75619e+06 -3.5492e+06 454428 -1.90862e+06 -752681
145 3 O -1.45946 27.0152 51.769 -1.2 -9.88579 -4674.84 -3.66662e+06 -5.55427e+06 -77581.3 520239 -1.14274e+06
146 3 O -2.07744 27.5697 48.8273 -1.2 -9.29697 -224705 -3.24686e+06 -3.94844e+06 295.751 -359690 -1.91688e+06
147 1 Mg 0.137907 26.087 46.819 1.2 -6.49286 1.24112e+06 -332953 1.01068e+06 1.12439e+06 1.58275e+06 -131663
148 3 O 0.55579 27.5065 48.3893 -1.2 -9.18647 -920180 -1.33412e+06 -2.51033e+06 -289702 -311693 95894.6
149 1 Mg 1.6438 26.0139 54.4774 1.2 -6.9789 592785 1.0419e+06 409246 -504665 -305945 719169
150 2 Si 1.51505 28.6409 56.3839 2.4 -31.7085 4.29092e+06 3.33052e+06 1.37529e+07 -719198 -126365 1.71905e+06
151 3 O 1.59507 27.1172 56.4861 -1.2 -10.7661 -3.46114e+06 -1.93425e+06 -4.90216e+06 755410 991093 268071
152 3 O 1.6432 29.7522 52.7291 -1.2 -9.87912 -2.32419e+06 -2.04214e+06 -7.16712e+06 145928 -396900 -1.80756e+06
153 3 O 0.214706 29.3351 55.8121 -1.2 -9.53644 -3.32389e+06 -2.49598e+06 -6.10813e+06 -1.55657e+06 480720 -590420
154 3 O 2.59943 29.4302 55.6158 -1.2 -9.79305 -4.96438e+06 -3.98934e+06 -7.02586e+06 1.94168e+06 225358 1.15814e+06
155 1 Mg 0.0647462 28.3794 52.2059 1.2 -7.02834 -1.52575e+06 -2.36486e+06 5.21437e+06 -960299 2.03274e+06 791297
156 1 Mg 2.10696 28.1021 49.4531 1.2 -7.3507 1.46644e+06 164655 616870 92923.4 -71350.7 842010
157 2 Si 1.57592 30.4257 51.2442 2.4 -32.3369 7.17013e+06 3.2098e+06 1.20301e+07 331995 513897 1.3814e+06
158 3 O 1.68288 31.9926 51.3043 -1.2 -9.93178 -2.78938e+06 -1.01478e+06 -4.92636e+06 694411 -549974 330223
159 3 O 1.59958 29.5465 57.9048 -1.2 -8.84682 -2.88622e+06 610806 -5.66833e+06 -401603 204810 3.09676e+06
160 3 O 0.258524 29.7935 50.6632 -1.2 -9.29015 -2.86343e+06 -1.71564e+06 -5.61232e+06 1.0287e+06 -429422 -732349
161 1 Mg -2.90462 28.3797 52.308 1.2 -6.95021 -1.88349e+06 -1.71584e+06 4.65108e+06 1.19604e+06 -1.96304e+06 488542
162 3 O 2.81205 29.7787 50.4664 -1.2 -9.69924 -2.4851e+06 -1.61008e+06 -3.23229e+06 -235250 604431 -853737
163 1 Mg -1.50504 28.4813 54.9823 1.2 -7.41271 -172879 -117636 2.26833e+06 -621835 202451 -1.25569e+06
164 2 Si -1.34081 26.3163 53.2357 2.4 -30.7936 3.21225e+06 1.87182e+06 1.50137e+07 48208.1 439479 800348
165 3 O -1.49034 24.8645 53.0936 -1.2 -10.833 -384972 -4.96912e+06 -5.91207e+06 36741.5 441145 816395
166 3 O -0.943026 27.648 46.4208 -1.2 -8.10864 -2.27115e+06 -1.99615e+06 -3.11344e+06 -605476 -1.49839e+06 243885
167 3 O -2.64621 27.0949 54.0294 -1.2 -9.90508 -324807 -1.25621e+06 -5.28761e+06 -1.24984e+06 -313973 586967
168 3 O -0.134252 27.1267 53.964 -1.2 -10.1764 -880534 -682677 -4.24221e+06 743754 -7557.67 765739
169 1 Mg -2.63443 35.5492 56.935 1.2 -7.49195 -2.38592e+06 -1.22383e+06 5.79827e+06 -171972 -1.86064e+06 -1.13623e+06
170 1 Mg -1.28421 35.3899 49.8376 1.2 -8.52783 1.01389e+06 1.47787e+06 2.68195e+06 -179305 99707.3 575586
171 2 Si -0.807101 32.9036 47.9247 2.4 -34.1958 8.35451e+06 5.52624e+06 1.12152e+07 489462 2.30721e+06 379592
172 3 O -0.727174 34.4729 47.9885 -1.2 -8.70045 -2.59018e+06 -3.59769e+06 -3.68437e+06 461969 -1.91778e+06 -407958
173 3 O -1.35735 31.7701 51.768 -1.2 -9.27523 -2.32599e+06 -1.43857e+06 -5.24208e+06 450163 206761 -868479
174 3 O -1.97695 32.3253 48.826 -1.2 -8.90582 -906351 -2.81307e+06 -4.33445e+06 30461.4 -340631 -1.61244e+06
175 1 Mg 0.237665 30.8412 46.8168 1.2 -6.78439 1.70666e+06 -815417 1.49826e+06 1.12631e+06 1.58717e+06 -136979
176 3 O 0.656562 32.2608 48.3877 -1.2 -8.81046 -1.4893e+06 -899441 -2.97717e+06 -304722 -332923 370338
177 1 Mg 1.68083 30.5294 54.5118 1.2 -7.82193 -153999 -722570 -210730 1.25199e+06 -1.40344e+06 1.76153e+06
178 2 Si 1.42975 33.4647 56.4034 2.4 -33.2796 5.0678e+06 -2.50559e+06 1.56876e+07 1.17804e+06 1.55946e+06 -919913
179 3 O 1.46795 32.0282 56.4765 -1.2 -9.07258 -2.69837e+06 -6.16082e+06 -7.68433e+06 -760913 -146845 2.34284e+06
180 3 O 1.74574 34.5067 52.7279 -1.2 -9.0165 -3.27156e+06 -2.28513e+06 -6.83306e+06 316624 -632665 -103686
181 3 O 0.162227 34.0901 55.7269 -1.2 -9.15905 -4.05071e+06 -740652 -4.86191e+06 1.55903e+06 560458 1.07485e+06
182 3 O 2.63767 34.082 55.4776 -1.2 -8.97693 -2.27789e+06 -2.88248e+06 -7.83152e+06 81449.6 -139430 1.57935e+06
183 1 Mg 0.167046 33.1343 52.2045 1.2 -7.64247 -87063.6 -1.85728e+06 5.87606e+06 -1.26727e+06 2.07506e+06 409300
184 1 Mg 2.20727 32.8578 49.4516 1.2 -7.78042 2.06088e+06 -189958 1.07509e+06 114664 -135086 440767
185 2 Si 1.67943 35.1802 51.2429 2.4 -33.2545 7.92172e+06 3.84134e+06 1.21701e+07 323189 832347 -296069
186 3 O 1.78736 36.747 51.303 -1.2 -9.51391 -3.53924e+06 -1.74061e+06 -4.7557e+06 839088 -388616 956097
187 3 O 1.70354 34.212 57.8032 -1.2 -9.25931 -2.61663e+06 -614879 -7.84073e+06 -814431 -379024 330225
188 3 O 0.362533 34.5479 50.661 -1.2 -8.97746 -3.29319e+06 -1.73508e+06 -5.31893e+06 1.09731e+06 -937217 -109605
189 1 Mg -2.80215 33.1347 52.3062 1.2 -7.62921 -540654 -1.66929e+06 4.97436e+06 1.82427e+06 -2.27396e+06 663094
190 3 O 2.91593 34.533 50.466 -1.2 -9.30891 -2.82194e+06 -1.60512e+06 -3.34965e+06 -321186 856419 -334536
191 1 Mg -1.53283 33.0396 54.9794 1.2 -7.97148 3.94489e+06 -873614 682995 -180433 143865 -3.10678e+06
192 2 Si -1.32954 31.0706 53.2667 2.4 -31.9407 7.37461e+06 1.9488e+06 1.41588e+07 149321 463636 -41614.8
193 3 O -1.39853 29.4799 53.0566 -1.2 -10.2947 -2.59487e+06 -1.18318e+06 -5.88475e+06 200847 -93105.5 1.20572e+06
194 3 O -0.842495 32.4028 46.4192 -1.2 -7.83569 -2.7122e+06 -1.60367e+06 -3.5036e+06 -605517 -1.50291e+06 390990
195 3 O -2.64741 31.7614 53.912 -1.2 -9.46966 -1.93879e+06 -1.24758e+06 -6.35716e+06 -783353 434445 -89750.6
196 3 O -0.0522174 31.6911 53.9169 -1.2 -9.41656 -2.33296e+06 -571711 -6.36962e+06 86733 -423982 134233
197 1 Mg -2.31891 40.1963 56.8872 1.2 -6.99988 -3.23905e+06 -3.55088e+06 3.88381e+06 89253.2 -2.46863e+06 -121824
198 1 Mg -1.17787 40.1435 49.8359 1.2 -8.76247 1.20832e+06 1.72157e+06 2.63199e+06 -131403 365781 416433
199 2 Si -0.702692 37.6572 47.9231 2.4 -34.6671 9.08562e+06 5.57582e+06 1.1191e+07 496826 2.31977e+06 -22680.3
200 3 O -0.621782 39.2264 47.9868 -1.2 -8.50841 -2.85512e+06 -3.6654e+06 -3.65805e+06 455329 -1.9336e+06 -224798
201 3 O -1.25221 36.5242 51.7666 -1.2 -8.86026 -4.15301e+06 -2.88446e+06 -7.24528e+06 100972 -47812.3 452977
202 3 O -1.87295 37.0796 48.8243 -1.2 -8.63567 -1.35e+06 -2.91693e+06 -4.20138e+06 -15418.3 -330286 -1.39152e+06
203 1 Mg 0.341084 35.5943 46.8152 1.2 -7.02818 2.09904e+06 -955824 1.63879e+06 1.12182e+06 1.59528e+06 -398275
204 3 O 0.760681 37.0138 48.3864 -1.2 -8.54888 -1.8956e+06 -961701 -2.90844e+06 -274243 -339124 610198
205 1 Mg 1.88949 35.5147 54.4966 1.2 -8.11627 98320 -231751 564084 569114 -93835.7 473036
206 2 Si 1.7938 38.2753 56.1292 2.4 -32.2457 -199031 1.16546e+06 1.40495e+07 -165121 -139232 46598.9
207 3 O 1.91321 36.807 56.2928 -1.2 -10.1361 -862199 -5.17104e+06 -6.90522e+06 -743084 -159326 224887
208 3 O 1.85132 39.2606 52.7264 -1.2 -8.78661 -3.21154e+06 -1.32158e+06 -5.40684e+06 443894 -677155 -572165
209 3 O 0.64339 39.0704 55.5382 -1.2 -10.1564 -5.62694e+06 -824333 -7.40432e+06 302457 -2.3607e+06 1.17584e+06
210 3 O 3.08376 38.948 55.5492 -1.2 -9.10686 -1.86397e+06 -4.43681e+06 -1.05619e+07 515841 1.29244e+06 25598.2
211 1 Mg 0.272384 37.8883 52.2029 1.2 -7.96692 -205998 -1.48717e+06 3.09224e+06 -1.21069e+06 2.76934e+06 556952
212 1 Mg 2.31122 37.6122 49.4501 1.2 -8.06365 2.56095e+06 -10434.6 862531 97200.4 -146866 198790
213 2 Si 1.78573 39.934 51.2414 2.4 -33.6327 9.10585e+06 4.1408e+06 1.12667e+07 17644 120973 -253500
214 3 O 1.89428 41.5006 51.3014 -1.2 -9.65428 -3.45707e+06 -2.14292e+06 -3.56776e+06 780519 -234050 621785
215 3 O 1.92605 38.9523 57.6024 -1.2 -9.30049 -1.01188e+06 -2.34425e+06 -9.69581e+06 539529 118974 141735
216 3 O 0.469216 39.3015 50.6588 -1.2 -8.51717 -3.96112e+06 -2.03686e+06 -5.80872e+06 1.15331e+06 -213683 -188354
217 1 Mg -2.69668 37.8889 52.3043 1.2 -7.92645 -349385 -1.134e+06 4.07418e+06 1.706e+06 -2.35044e+06 332116
218 3 O 3.0225 39.2866 50.4651 -1.2 -9.07073 -3.71836e+06 -1.75968e+06 -2.89221e+06 -265831 702318 -133096
219 1 Mg -0.867793 37.9765 55.0873 1.2 -6.79789 1.1444e+06 -67025.9 1.77411e+06 -724804 -1.23292e+06 -1.65681e+06
220 2 Si -1.13155 35.8901 53.1964 2.4 -32.9159 8.08106e+06 3.53174e+06 1.03038e+07 -1.54743e+06 -1.1421e+06 -3.15024e+06
221 3 O -1.31434 34.3089 53.2107 -1.2 -9.51003 -4.32008e+06 472760 -5.13328e+06 899984 -78149.6 1.45222e+06
222 3 O -0.738054 37.1566 46.4176 -1.2 -7.63147 -3.03863e+06 -1.52166e+06 -3.58798e+06 -606881 -1.50439e+06 622821
223 3 O -2.53777 36.533 53.8735 -1.2 -8.99697 30285.7 -3.64395e+06 -5.54444e+06 -1.07141e+06 1.41992e+06 822262
224 3 O 0.148105 36.4876 53.7075 -1.2 -9.74351 -4.54663e+06 -2.88732e+06 -5.37075e+06 -181787 -1.8105e+06 1.64693e+06
225 1 Mg -2.35043 44.9455 57.3066 1.2 -6.7862 -2.04792e+06 -4.63571e+06 5.51732e+06 -2.23632e+06 -1.72346e+06 -1.31371e+06
226 1 Mg -1.06993 44.8968 49.8343 1.2 -8.72994 1.0156e+06 1.72397e+06 2.75916e+06 -202017 446437 873877
227 2 Si -0.596166 42.4103 47.9215 2.4 -34.7626 9.1566e+06 6.00092e+06 1.08517e+07 489860 2.36622e+06 -138960
228 3 O -0.51472 43.9796 47.9853 -1.2 -8.50834 -2.81946e+06 -3.81834e+06 -3.54714e+06 466476 -1.9426e+06 -309319
229 3 O -1.14475 41.2777 51.7649 -1.2 -8.77659 -2.75988e+06 -3.69096e+06 -5.5939e+06 349558 -1.47822e+06 -278739
230 3 O -1.76671 41.8331 48.8226 -1.2 -8.57934 -1.46732e+06 -3.18458e+06 -3.91443e+06 2389.35 -431758 -1.33688e+06
231 1 Mg 0.447076 40.3473 46.8135 1.2 -7.15321 2.28463e+06 -893424 1.59095e+06 1.12245e+06 1.58414e+06 -596363
232 3 O 0.866985 41.7666 48.385 -1.2 -8.47604 -1.96806e+06 -1.18755e+06 -2.73169e+06 -282640 -279246 696792
233 1 Mg 1.8653 40.7176 54.6937 1.2 -7.60807 -1.02824e+06 -358125 -70281.1 -1.1838e+06 1.07293e+06 13005.4
234 2 Si 2.22023 43.0323 56.3095 2.4 -31.3226 1.52772e+06 1.87255e+06 1.44352e+07 -2.90654e+06 -721383 -948895
235 3 O 2.04033 41.5461 56.366 -1.2 -10.4577 -1.40373e+06 -4.96484e+06 -9.03655e+06 662772 511300 -131483
236 3 O 1.95891 44.014 52.7248 -1.2 -9.32939 -3.20326e+06 -1.21321e+06 -6.08365e+06 281406 -510323 -1.42094e+06
237 3 O 0.890322 43.7839 55.6734 -1.2 -9.5072 -2.02878e+06 -2.88964e+06 -5.87941e+06 -1.15847e+06 558306 -877777
238 3 O 3.29082 43.673 55.4741 -1.2 -9.71587 -4.97821e+06 -5.28808e+06 -4.50495e+06 594171 1.1855e+06 -59600.2
239 1 Mg 0.379928 42.6418 52.2013 1.2 -7.9782 -1.30968e+06 -589553 3.76513e+06 -658920 2.27593e+06 649344
240 1 Mg 2.41752 42.366 49.4484 1.2 -8.05361 2.69584e+06 285179 418997 109368 -236093 292578
241 2 Si 1.89374 44.6874 51.2398 2.4 -33.2375 9.1974e+06 3.95624e+06 1.0676e+07 341942 -292784 878519
242 3 O 2.00266 46.254 51.2996 -1.2 -9.78827 -3.55198e+06 -1.60047e+06 -3.66919e+06 611326 29202.1 41365.6
243 3 O 2.20703 43.7967 57.8222 -1.2 -9.95977 -1.94548e+06 -2.65082e+06 -6.18473e+06 -475726 -823652 2.24761e+06
244 3 O 0.577464 44.0549 50.6567 -1.2 -8.58064 -3.50901e+06 -2.28367e+06 -5.87043e+06 1.25103e+06 -92495 -653729
245 1 Mg -2.58906 42.6425 52.3022 1.2 -7.40142 432546 -1.1624e+06 4.13796e+06 1.90177e+06 -1.96218e+06 1.19028e+06
246 3 O 3.13067 44.0398 50.464 -1.2 -9.22501 -3.66228e+06 -1.90656e+06 -2.3032e+06 -396129 806011 -715553
247 1 Mg -0.912789 42.8804 55.0464 1.2 -7.32851 1.16775e+06 316952 1.27473e+06 527072 325757 276484
248 2 Si -1.20049 40.5971 53.2349 2.4 -32.9396 8.22498e+06 3.82235e+06 1.20843e+07 -15200.9 -1.84273e+06 1.25255e+06
249 3 O -1.12789 39.0514 52.98 -1.2 -9.55214 -4.39846e+06 -2.1587e+06 -5.3972e+06 -787972 1.05578e+06 1.32473e+06
250 3 O -0.631421 41.9099 46.4159 -1.2 -7.56051 -3.14213e+06 -1.62813e+06 -3.49152e+06 -605804 -1.51052e+06 766579
251 3 O -2.5106 41.2953 53.9578 -1.2 -9.44582 -3.30191e+06 -2.56171e+06 -5.30002e+06 -2.53985e+06 1.16519e+06 91943.2
252 3 O 0.0451345 41.2932 53.8489 -1.2 -9.43551 -2.54691e+06 -2.97851e+06 -6.37201e+06 1.41187e+06 -1.49947e+06 257625
253 1 Mg -2.32201 49.9034 57.6326 1.2 -7.66177 -1.08159e+06 -1.2713e+06 4.24961e+06 -769985 -1.46917e+06 -601279
254 1 Mg -0.961069 49.6502 49.8327 1.2 -8.53713 826610 1.72343e+06 2.6481e+06 -203935 223975 698429
255 2 Si -0.488083 47.1636 47.9198 2.4 -34.6526 8.9724e+06 5.90652e+06 1.09544e+07 475598 2.3223e+06 -99060.2
256 3 O -0.40607 48.7329 47.9837 -1.2 -8.59799 -2.70101e+06 -3.80118e+06 -3.53079e+06 466069 -1.91817e+06 -264602
257 3 O -1.0361 46.031 51.7632 -1.2 -8.75717 -1.86226e+06 -3.19684e+06 -3.013e+06 776029 -1.22781e+06 -1.28673e+06
258 3 O -1.65866 46.5866 48.821 -1.2 -8.62435 -1.34039e+06 -3.07739e+06 -4.08324e+06 37415 -449934 -1.4615e+06
259 1 Mg 0.554124 45.1001 46.8117 1.2 -7.14376 2.26712e+06 -821122 1.52183e+06 1.12238e+06 1.57564e+06 -582386
260 3 O 0.974961 46.5195 48.3832 -1.2 -8.52807 -1.91115e+06 -1.11744e+06 -2.77268e+06 -301054 -255769 613442
261 1 Mg 1.85725 45.174 54.4614 1.2 -8.31322 -603524 3375.34 1.11891e+06 796951 -159769 1.8869e+06
262 2 Si 2.05494 47.8269 56.2686 2.4 -32.875 8.94801e+06 5.44159e+06 1.25488e+07 743556 543174 324334
263 3 O 2.03115 46.2184 56.2577 -1.2 -9.36545 -4.08158e+06 467380 -6.8946e+06 -1.56647e+06 1.28956e+06 -864186
264 3 O 2.0677 48.7672 52.7232 -1.2 -9.4349 -3.39299e+06 -1.56582e+06 -6.56157e+06 -37103.6 -155746 -2.01131e+06
265 3 O 0.819247 48.5719 55.5906 -1.2 -9.40296 -1.56856e+06 -3.11572e+06 -4.21997e+06 -541442 25486.4 -336684
266 3 O 3.48279 48.3693 55.6512 -1.2 -8.61091 -1.01864e+06 -4.80394e+06 -4.79131e+06 1.52216e+06 177950 -784935
267 1 Mg 0.488584 47.395 52.1996 1.2 -7.84228 -983391 -1.40318e+06 4.67637e+06 -757059 2.34285e+06 1.14264e+06
268 1 Mg 2.52544 47.1195 49.4466 1.2 -7.98277 2.61453e+06 91474.7 585683 137340 -165429 450977
269 2 Si 2.00256 49.4407 51.2382 2.4 -32.8995 8.26311e+06 3.66024e+06 1.1414e+07 444459 414771 871683
270 3 O 2.11156 51.0073 51.2982 -1.2 -9.92464 -2.99475e+06 -1.63963e+06 -4.10964e+06 725105 -371226 258882
271 3 O 2.15581 48.4414 57.78 -1.2 -9.47374 -3.07892e+06 -2.70405e+06 -5.61878e+06 569400 776127 2.12234e+06
272 3 O 0.686344 48.8082 50.655 -1.2 -8.83899 -3.54818e+06 -1.99001e+06 -5.64467e+06 1.00162e+06 -268340 -431960