ITEM: TIMESTEP
29200
ITEM: NUMBER OF ATOMS
10500
ITEM: BOX BOUNDS xy xz yz pp pp pp
0.0000000000000000e+00 8.9687999999999999e+00 2.9895999999999998e+00
0.0000000000000000e+00 1.1872499999999999e+02 0.0000000000000000e+00
0.0000000000000000e+00 2.5297749999999999e+02 0.0000000000000000e+00
ITEM: ATOMS id type element xu yu zu q c_pe c_s[1] c_s[2] c_s[3] c_s[4] c_s[5] c_s[6]
1 1 Mg -3.2729 6.98573 57.4099 1.2 -8.344 520074 -861315 4.18021e+06 -68819.1 -2.02817e+06 -83846.1
2 1 Mg -1.82655 6.90154 50.0912 1.2 -8.69201 801740 985798 1.34804e+06 -146088 -281065 1.76654e+06
3 2 Si -0.257935 3.96038 48.0876 2.4 -37.1803 1.18199e+07 8.91735e+06 1.0687e+07 818360 1.93884e+06 2.09502e+06
4 3 O -0.335812 5.46814 47.6264 -1.2 -7.29942 -3.86517e+06 -2.52272e+06 -2.47134e+06 140711 -964692 -724931
5 3 O -2.03793 3.43377 51.8941 -1.2 -8.10456 -3.79346e+06 -3.51474e+06 -5.92861e+06 -861566 186942 -2.22761e+06
6 3 O -1.54015 3.53929 48.9521 -1.2 -7.68743 -2.2296e+06 -1.76174e+06 -4.24148e+06 26092.1 -741922 -437901
7 1 Mg 1.82954 2.54582 47.1376 1.2 -8.55845 3.52462e+06 -482858 721348 1.14708e+06 837910 759579
8 3 O 1.22989 3.66364 48.7877 -1.2 -7.42697 -2.64103e+06 -2.48178e+06 -3.53198e+06 -482373 -706684 -1.19909e+06
9 1 Mg 1.00739 2.25611 54.4758 1.2 -8.88862 2.45961e+06 756853 1.59212e+06 -1.03049e+06 162291 1.19956e+06
10 2 Si 1.04614 4.99549 56.3898 2.4 -34.3975 6.75641e+06 5.63417e+06 1.12833e+07 -180612 1.07752e+06 2.30983e+06
11 3 O 1.03502 3.39095 56.4799 -1.2 -8.62451 -4.17858e+06 -408598 -4.91226e+06 12020.6 330206 -493277
12 3 O 1.10813 6.07342 52.8172 -1.2 -8.56114 -4.22926e+06 -3.68406e+06 -4.792e+06 313127 74168.2 -2.47795e+06
13 3 O -0.202493 5.65933 55.7461 -1.2 -8.63242 -3.95959e+06 -2.76745e+06 -4.54871e+06 126941 -1.06814e+06 -349618
14 3 O 2.27837 5.59315 55.7806 -1.2 -8.70055 -5.99708e+06 -4.28513e+06 -5.85294e+06 -406044 1.96166e+06 -121358
15 1 Mg -0.459401 4.67631 52.2426 1.2 -8.63802 217101 -1.23641e+06 5.25466e+06 -862045 1.27682e+06 1.39451e+06
16 1 Mg 2.79456 3.9971 49.9987 1.2 -8.98246 4.60549e+06 107065 1.43898e+06 -558988 894331 -535562
17 2 Si 1.16169 6.59457 51.2556 2.4 -34.5898 8.94796e+06 5.89773e+06 1.1955e+07 289892 562572 4.01655e+06
18 3 O 1.28989 8.18905 51.2909 -1.2 -9.08285 -3.66086e+06 -1.1853e+06 -4.04585e+06 275355 -806835 496121
19 3 O 1.13687 5.68686 57.9141 -1.2 -8.47639 -3.62793e+06 -2.07776e+06 -4.96557e+06 -387156 809822 797075
20 3 O -0.184847 6.06029 50.6845 -1.2 -8.22571 -3.82252e+06 -3.12071e+06 -5.1322e+06 1.41937e+06 -346174 -1.87417e+06
21 1 Mg -3.49704 4.67769 52.6661 1.2 -8.13176 1.02638e+06 -2.14745e+06 2.68913e+06 2.31812e+06 -1.36412e+06 1.79329e+06
22 3 O 2.48581 5.93312 50.6539 -1.2 -8.75692 -3.90235e+06 -1.54141e+06 -3.12291e+06 -1.59773e+06 -591285 -1.45604e+06
23 1 Mg -1.92966 4.60952 55.2002 1.2 -8.78722 3.42785e+06 1.24376e+06 735492 102679 -417800 -484462
24 2 Si -2.04047 2.62133 53.3003 2.4 -34.6226 9.50497e+06 3.00499e+06 1.33023e+07 902124 -205199 1.4315e+06
25 3 O -2.03098 1.12926 53.0336 -1.2 -8.62096 -4.26821e+06 -4.07407e+06 -5.33771e+06 1143.05 -584773 569250
26 3 O -0.0467762 2.97103 46.8385 -1.2 -6.46505 -3.84055e+06 -2.17709e+06 -2.84609e+06 -991064 -1.9974e+06 -840625
27 3 O -3.34114 3.25717 54.08 -1.2 -8.62369 -4.78265e+06 -1.88617e+06 -5.57623e+06 -1.47931e+06 440400 -169328
28 3 O -0.814931 3.30611 54.0477 -1.2 -8.34735 -3.17048e+06 -2.62948e+06 -5.3024e+06 724999 -1.02116e+06 -173665
29 1 Mg -3.36529 11.892 57.6075 1.2 -8.3436 -303763 -2.16161e+06 4.56476e+06 -890580 -2.18934e+06 -121305
30 1 Mg -1.75014 11.5838 49.8362 1.2 -8.66442 1.22319e+06 2.16547e+06 2.18534e+06 -308647 209894 824167
31 2 Si -1.18003 9.02138 47.9309 2.4 -35.179 9.66955e+06 7.41115e+06 9.48812e+06 234181 2.59761e+06 368628
32 3 O -1.23224 10.5991 47.9811 -1.2 -8.38495 -3.04697e+06 -3.77884e+06 -2.58614e+06 654729 -1.91291e+06 50073.8
33 3 O -1.79016 8.01447 51.8693 -1.2 -8.50734 -3.71342e+06 -1.36026e+06 -5.60879e+06 195601 747159 -2.05051e+06
34 3 O -2.30986 8.37215 48.8528 -1.2 -8.55998 -1.66715e+06 -2.57077e+06 -3.35142e+06 -324521 -583908 -912659
35 1 Mg 0.154883 7.08234 46.8007 1.2 -7.9643 2.60136e+06 -57028.7 698754 945186 1.72588e+06 -899540
36 3 O 0.325447 8.50934 48.3809 -1.2 -8.21767 -2.08097e+06 -2.04209e+06 -2.65496e+06 -40557.9 -841141 311065
37 1 Mg 1.1778 6.97812 54.6534 1.2 -8.93533 3.47352e+06 752234 766531 684740 -106140 2.09399e+06
38 2 Si 1.16888 9.80566 56.5054 2.4 -34.6083 1.25144e+07 5.63332e+06 1.07439e+07 -11616.3 -489574 615152
39 3 O 1.26365 8.20431 56.5471 -1.2 -8.89121 -4.32777e+06 555383 -4.37966e+06 -174116 175371 -806251
40 3 O 1.28624 10.7248 52.7351 -1.2 -9.10223 -3.28677e+06 -1.34451e+06 -4.91828e+06 161639 -796540 -820644
41 3 O -0.197286 10.4847 55.9039 -1.2 -8.23955 -3.20522e+06 -2.44848e+06 -4.54637e+06 -1.98953e+06 -619414 -450139
42 3 O 2.46188 10.5026 55.7712 -1.2 -8.16705 -2.70954e+06 -2.83433e+06 -3.52167e+06 1.40223e+06 465531 -1.01379e+06
43 1 Mg -0.262694 9.34741 52.2523 1.2 -8.0798 934228 -1.05291e+06 5.43775e+06 -1.54509e+06 1.2844e+06 1.30881e+06
44 1 Mg 1.87648 9.01537 49.4629 1.2 -8.25716 2.55856e+06 507519 378397 237119 -236999 327596
45 2 Si 1.21415 11.3799 51.2378 2.4 -33.3262 8.32898e+06 5.08888e+06 1.08305e+07 274200 829273 380902
46 3 O 1.31634 12.9512 51.3023 -1.2 -9.70322 -3.31086e+06 -1.89298e+06 -3.51344e+06 609265 -747297 604252
47 3 O 1.14995 10.4448 57.9466 -1.2 -8.67659 -4.76676e+06 -1.71878e+06 -6.20944e+06 -238105 -333445 65668.2
48 3 O -0.115718 10.7564 50.681 -1.2 -8.76193 -3.31279e+06 -2.45536e+06 -4.28864e+06 1.27499e+06 -864221 -603489
49 1 Mg -3.26386 9.35564 52.3622 1.2 -8.15677 195790 -904792 4.64067e+06 1.57808e+06 -1.35788e+06 1.24729e+06
50 3 O 2.45216 10.7265 50.4558 -1.2 -9.16228 -3.00901e+06 -2.00267e+06 -2.34466e+06 -808306 613796 -10621.6
51 1 Mg -1.83589 9.58645 55.1625 1.2 -9.34946 2.96479e+06 1.03383e+06 665821 -82443.2 123693 566458
52 2 Si -1.73687 7.29612 53.395 2.4 -34.7494 1.01523e+07 2.67424e+06 1.20185e+07 -5102.76 805689 1.77073e+06
53 3 O -1.84228 5.80577 53.3188 -1.2 -8.89885 -4.45895e+06 -5.372e+06 -5.51503e+06 1.6077e+06 -589558 -1.16453e+06
54 3 O -1.19417 8.46968 46.4488 -1.2 -7.22628 -3.38942e+06 -2.15522e+06 -2.8331e+06 -541662 -1.74057e+06 787768
55 3 O -2.98795 7.96642 54.0282 -1.2 -8.19789 -4.33856e+06 -2.84006e+06 -4.99289e+06 -180959 1.14379e+06 -1.64407e+06
56 3 O -0.424282 8.02336 54.0103 -1.2 -8.24796 -3.7746e+06 -2.16836e+06 -3.57464e+06 1.6648e+06 -79120.7 -1.12229e+06
57 1 Mg -3.25214 16.4828 57.5834 1.2 -7.70499 -767111 -1.15186e+06 4.05764e+06 -1.24627e+06 -1.67332e+06 -638050
58 1 Mg -1.6714 16.3544 49.8412 1.2 -8.71687 1.13207e+06 2.18592e+06 2.22251e+06 -202808 202876 675525
59 2 Si -1.18567 13.8526 47.9314 2.4 -34.8913 9.46236e+06 6.76149e+06 9.91172e+06 498160 2.23445e+06 -197565
60 3 O -1.09664 15.4205 47.9915 -1.2 -8.45545 -2.87759e+06 -4.12964e+06 -2.97172e+06 425143 -1.91954e+06 -238485
61 3 O -1.73493 12.7491 51.7772 -1.2 -9.09446 -2.2801e+06 -2.10505e+06 -5.45464e+06 349106 416344 -931276
62 3 O -2.36115 13.2717 48.8238 -1.2 -8.54098 -1.54366e+06 -3.35326e+06 -3.61061e+06 -115750 -359393 -1.30224e+06
63 1 Mg -0.159928 11.7639 46.8533 1.2 -7.31946 2.59555e+06 -317864 960707 1.12586e+06 1.57383e+06 -850638
64 3 O 0.2623 13.1866 48.413 -1.2 -8.44023 -2.09663e+06 -1.40218e+06 -2.36412e+06 -191465 -290520 745179
65 1 Mg 1.31221 11.928 54.4816 1.2 -8.67151 2.64985e+06 1.56902e+06 1.30393e+06 -563611 328402 1.17681e+06
66 2 Si 1.33312 14.5539 56.5357 2.4 -33.3407 7.95458e+06 5.32212e+06 9.46264e+06 218497 33474.5 722266
67 3 O 1.33048 12.9791 56.5198 -1.2 -8.97849 -4.8446e+06 -2.31586e+06 -3.26637e+06 1.4511e+06 -231358 -825737
68 3 O 1.36565 15.4813 52.729 -1.2 -9.1956 -3.02565e+06 -1.87205e+06 -4.40352e+06 146946 -312631 -658648
69 3 O 0.0533937 15.1172 55.7817 -1.2 -9.09552 -2.48332e+06 -3.79506e+06 -2.89e+06 -460640 6317.61 203543
70 3 O 2.55208 15.3468 55.9187 -1.2 -9.14248 -3.44385e+06 -4.11719e+06 -3.74957e+06 358246 -298862 289719
71 1 Mg -0.206989 14.1049 52.2121 1.2 -7.79061 -155251 -1.04282e+06 4.5572e+06 -1.09385e+06 1.95254e+06 571132
72 1 Mg 1.82591 13.8102 49.4556 1.2 -8.09008 2.63009e+06 667610 212549 134498 -82710.7 337095
73 2 Si 1.29285 16.1518 51.2434 2.4 -33.3188 8.73945e+06 4.82467e+06 1.03972e+07 277321 483514 262168
74 3 O 1.39496 17.7199 51.3047 -1.2 -9.71544 -3.25344e+06 -2.19699e+06 -3.29869e+06 685096 -493666 517238
75 3 O 1.25911 15.0867 58.0319 -1.2 -9.3235 -3.18846e+06 -2.90623e+06 -6.20125e+06 -482341 290198 -418127
76 3 O -0.0269106 15.5178 50.6688 -1.2 -8.71519 -3.71186e+06 -2.39141e+06 -4.90164e+06 1.1094e+06 -483770 -319144
77 1 Mg -3.18391 14.1057 52.3125 1.2 -7.75139 -418077 -1.16156e+06 3.73817e+06 1.65292e+06 -1.93744e+06 727011
78 3 O 2.52432 15.503 50.4579 -1.2 -9.13846 -3.32287e+06 -2.22704e+06 -2.37279e+06 -362621 684454 -323422
79 1 Mg -1.69931 14.2181 55.088 1.2 -8.38258 3.35235e+06 1.88495e+06 1.35657e+06 -13322.6 -228962 -653035
80 2 Si -1.70501 12.107 53.2611 2.4 -33.5428 6.9427e+06 5.01713e+06 1.24879e+07 -349823 -577408 -1.01428e+06
81 3 O -1.86516 10.5466 53.3795 -1.2 -9.05209 -4.04598e+06 -1.76624e+06 -4.65008e+06 203320 120901 -341881
82 3 O -1.21337 13.3381 46.4311 -1.2 -7.40362 -3.46691e+06 -2.08613e+06 -2.95715e+06 -631152 -1.45047e+06 893321
83 3 O -3.01512 12.8635 53.9382 -1.2 -8.81512 -2.62898e+06 -3.1052e+06 -4.64804e+06 -895617 417692 1.44839e+06
84 3 O -0.493174 12.7249 53.9728 -1.2 -9.06229 -4.11263e+06 -3.35181e+06 -3.81829e+06 -121125 -1.23478e+06 469874
85 1 Mg -3.08675 21.3286 57.1873 1.2 -7.64728 583454 -1.02819e+06 4.31734e+06 -743494 -1.49389e+06 -1.49029e+06
86 1 Mg -1.5831 21.1217 49.8405 1.2 -8.8185 1.27638e+06 2.08121e+06 2.29726e+06 -176270 242820 1.16135e+06
87 2 Si -1.09384 18.6291 47.9287 2.4 -34.9538 9.52893e+06 6.93025e+06 9.83606e+06 495024 2.30797e+06 141597
88 3 O -1.02071 20.1985 47.9911 -1.2 -8.38422 -3.04506e+06 -4.17384e+06 -3.05796e+06 457173 -1.92217e+06 -498809
89 3 O -1.65002 17.5002 51.771 -1.2 -9.06892 -1.79559e+06 -2.43553e+06 -2.67943e+06 403752 203002 -892349
90 3 O -2.26174 18.0434 48.8281 -1.2 -8.5247 -1.52385e+06 -3.53463e+06 -3.57133e+06 -16243.1 -375596 -1.38889e+06
91 1 Mg -0.0440435 16.5651 46.8269 1.2 -7.29409 2.48985e+06 -270687 962727 1.1339e+06 1.57446e+06 -586790
92 3 O 0.37001 17.9877 48.3925 -1.2 -8.41357 -2.13064e+06 -1.62295e+06 -2.25783e+06 -288429 -319027 571683
93 1 Mg 1.4033 16.5799 54.6253 1.2 -8.23569 1.56863e+06 1.43444e+06 1.01618e+06 -166745 368055 1.30383e+06
94 2 Si 1.33908 19.2257 56.4515 2.4 -32.8219 7.85884e+06 4.61211e+06 1.17163e+07 -362748 819700 -604894
95 3 O 1.16806 17.7061 56.6214 -1.2 -9.8187 -3.11764e+06 -2.72917e+06 -4.00548e+06 102679 -433783 -1.55214e+06
96 3 O 1.45147 20.239 52.7294 -1.2 -9.3598 -2.92516e+06 -1.83364e+06 -5.01847e+06 366742 -201994 -923707
97 3 O 0.160122 19.9777 55.5989 -1.2 -9.03175 -1.91283e+06 -3.18653e+06 -3.22699e+06 -1.01765e+06 -21338 -576553
98 3 O 2.66769 19.9017 55.766 -1.2 -9.32391 -2.90931e+06 -2.38192e+06 -4.5822e+06 2.05538e+06 -99585.1 -411872
99 1 Mg -0.126194 18.8651 52.2079 1.2 -7.68952 2988.22 -283495 4.77071e+06 -1.34035e+06 1.72261e+06 996816
100 1 Mg 1.92402 18.5815 49.4545 1.2 -8.10318 2.62632e+06 722665 86350.3 106926 -114007 413707
101 2 Si 1.38106 20.9117 51.2443 2.4 -33.4275 9.02401e+06 5.00157e+06 1.00667e+07 73105 352066 1.21353e+06
102 3 O 1.48527 22.4795 51.3054 -1.2 -9.45382 -3.88354e+06 -1.77561e+06 -3.60604e+06 625634 -229527 -114083
103 3 O 1.3197 19.9325 57.879 -1.2 -9.24394 -3.34853e+06 -2.34505e+06 -5.26681e+06 999481 -259526 517663
104 3 O 0.0615419 20.2804 50.6669 -1.2 -8.71937 -3.5494e+06 -2.64532e+06 -4.43539e+06 1.25348e+06 -716482 -864157
105 1 Mg -3.09665 18.8643 52.3122 1.2 -7.61585 -400930 -441783 4.07026e+06 1.63262e+06 -1.80167e+06 846160
106 3 O 2.61548 20.2646 50.4626 -1.2 -9.11119 -3.38089e+06 -2.36465e+06 -2.28513e+06 -404410 725870 -744844
107 1 Mg -1.61979 18.9897 55.1913 1.2 -8.14661 1.96548e+06 1.77253e+06 1.29925e+06 454694 -177903 -801543
108 2 Si -1.61749 16.8099 53.3152 2.4 -32.751 8.32612e+06 5.60558e+06 1.29197e+07 112214 144924 709623
109 3 O -1.64016 15.2397 53.1281 -1.2 -9.67206 -3.37398e+06 -1.63782e+06 -4.39828e+06 229098 176401 1.15249e+06
110 3 O -1.12868 18.1227 46.4249 -1.2 -7.40273 -3.41812e+06 -2.13733e+06 -2.95035e+06 -604464 -1.49376e+06 685338
111 3 O -2.91976 17.4451 54.0178 -1.2 -9.34123 -1.50112e+06 -2.7219e+06 -3.64385e+06 -1.44712e+06 -160047 296945
112 3 O -0.317555 17.4816 54.0014 -1.2 -9.34991 -835241 -2.46845e+06 -2.64866e+06 1.00447e+06 15902.1 88031.2
113 1 Mg -3.11285 26.0878 57.3155 1.2 -8.18214 49123.3 -1.57677e+06 3.93662e+06 -1.46364e+06 -1.57249e+06 -39180.5
114 1 Mg -1.48778 25.88 49.8402 1.2 -8.94222 1.45283e+06 1.71637e+06 2.68412e+06 -154263 190956 702790
115 2 Si -1.00491 23.3922 47.9274 2.4 -35.1634 9.84068e+06 6.19979e+06 1.06004e+07 486699 2.2957e+06 323639
116 3 O -0.927602 24.9615 47.9909 -1.2 -8.29622 -3.19239e+06 -3.84915e+06 -3.43854e+06 457009 -1.90973e+06 -354147
117 3 O -1.55795 22.2588 51.7696 -1.2 -8.63129 -2.45581e+06 -2.32463e+06 -3.67494e+06 402744 -537002 -1.78928e+06
118 3 O -2.17411 22.8111 48.8277 -1.2 -8.38157 -1.73041e+06 -3.22114e+06 -3.93656e+06 8359.53 -390051 -1.67497e+06
119 1 Mg 0.0423997 21.3296 46.8225 1.2 -7.343 2.59069e+06 -463827 1.14656e+06 1.12519e+06 1.58196e+06 -387384
120 3 O 0.458537 22.7495 48.3911 -1.2 -8.29635 -2.32264e+06 -1.29669e+06 -2.58388e+06 -293245 -302366 368103
121 1 Mg 1.44374 21.1994 54.5457 1.2 -8.41526 2.618e+06 1.78664e+06 390534 -221453 -152938 1.06978e+06
122 2 Si 1.40395 23.9523 56.3245 2.4 -33.6148 9.85894e+06 4.51859e+06 1.25596e+07 564017 -59210 993048
123 3 O 1.39697 22.4214 56.4047 -1.2 -9.55677 -4.53798e+06 -1.8991e+06 -4.33491e+06 -276481 10205.1 32774.5
124 3 O 1.54441 24.9963 52.7297 -1.2 -8.72688 -4.41468e+06 -1.08523e+06 -5.05418e+06 318871 -350123 -772965
125 3 O 0.183288 24.7627 55.6098 -1.2 -8.74413 -3.09209e+06 -2.47832e+06 -3.74151e+06 -1.18808e+06 318527 -357935
126 3 O 2.69441 24.6667 55.7341 -1.2 -8.64174 -3.40754e+06 -1.87124e+06 -5.52936e+06 754598 373571 -911859
127 1 Mg -0.0335968 23.6229 52.2067 1.2 -8.25645 788296 -1.12808e+06 4.64489e+06 -1.2397e+06 1.9977e+06 1.16928e+06
128 1 Mg 2.01073 23.3445 49.4541 1.2 -8.28415 2.97198e+06 214794 548387 132918 -106966 632892
129 2 Si 1.47594 25.6699 51.2449 2.4 -33.9247 1.00306e+07 3.8799e+06 1.10343e+07 64034.9 619768 460185
130 3 O 1.58172 27.2371 51.3054 -1.2 -9.49419 -3.82705e+06 -1.84432e+06 -3.57033e+06 769998 -427986 361310
131 3 O 1.45696 24.7727 57.8347 -1.2 -8.93661 -4.26486e+06 -1.00708e+06 -4.64743e+06 -640661 1.43649e+06 2.2163e+06
132 3 O 0.157925 25.0378 50.6651 -1.2 -8.45794 -4.20387e+06 -2.02213e+06 -5.07448e+06 1.15793e+06 -544515 -582454
133 1 Mg -3.00341 23.6231 52.3098 1.2 -8.15093 -37388.6 -1.72151e+06 4.20376e+06 1.27217e+06 -2.30657e+06 1.06683e+06
134 3 O 2.71149 25.0232 50.4656 -1.2 -8.82874 -3.87673e+06 -1.74462e+06 -3.21166e+06 -311070 491451 -553097
135 1 Mg -1.48067 23.7783 55.0627 1.2 -8.66805 3.04417e+06 797011 1.69968e+06 -590857 -275443 -809571
136 2 Si -1.56886 21.6059 53.3341 2.4 -33.2608 8.12737e+06 5.45389e+06 1.2948e+07 695092 111945 524154
137 3 O -1.66487 20.0448 53.2435 -1.2 -9.70704 -3.03093e+06 -566980 -4.15389e+06 287075 -73950.8 790191
138 3 O -1.03938 22.8897 46.4223 -1.2 -7.35021 -3.48678e+06 -1.89427e+06 -3.20735e+06 -605746 -1.49901e+06 601479
139 3 O -2.77933 22.3488 54.0407 -1.2 -9.02758 -2.84098e+06 -2.42334e+06 -3.73249e+06 -293846 683608 -123437
140 3 O -0.252137 22.3687 53.902 -1.2 -8.84222 -2.12553e+06 -1.47923e+06 -4.98638e+06 956355 -604040 611753
141 1 Mg -2.897 30.8206 57.4353 1.2 -7.73155 -437012 -2.40351e+06 4.60775e+06 -2.29712e+06 -2.04152e+06 -952828
142 1 Mg -1.38776 30.6357 49.8391 1.2 -8.75103 1.2149e+06 1.88932e+06 2.42721e+06 -205467 227576 847966
143 2 Si -0.907929 28.1491 47.9262 2.4 -35.0678 9.7011e+06 6.25007e+06 1.054e+07 495638 2.31321e+06 -219302
144 3 O -0.829229 29.7184 47.99 -1.2 -8.38672 -3.05862e+06 -3.97451e+06 -3.33577e+06 460367 -1.92229e+06 -232576
145 3 O -1.45946 27.0152 51.769 -1.2 -8.54329 -2.71707e+06 -3.05101e+06 -6.08122e+06 150363 147369 -584368
146 3 O -2.07744 27.5697 48.8273 -1.2 -8.41656 -1.68287e+06 -3.22063e+06 -3.92926e+06 12923.3 -381912 -1.33268e+06
147 1 Mg 0.137907 26.087 46.819 1.2 -7.36217 2.62728e+06 -666574 1.3509e+06 1.12586e+06 1.58312e+06 -588743
148 3 O 0.55579 27.5065 48.3893 -1.2 -8.31865 -2.27686e+06 -1.26683e+06 -2.6156e+06 -296970 -306674 679739
149 1 Mg 1.48555 26.1722 54.5636 1.2 -8.62894 2.84133e+06 1.50504e+06 1.1435e+06 131479 -461966 1.60494e+06
150 2 Si 1.58596 28.8616 56.4503 2.4 -33.3824 1.00041e+07 1.92895e+06 1.27169e+07 -124789 -438522 861821
151 3 O 1.49473 27.352 56.4827 -1.2 -9.26776 -4.96394e+06 -3.39514e+06 -4.78219e+06 1.04612e+06 -220291 80475.4
152 3 O 1.6432 29.7522 52.7291 -1.2 -9.22745 -3.48856e+06 -1.6536e+06 -5.05701e+06 179244 -134342 -1.19276e+06
153 3 O 0.217261 29.4253 55.7249 -1.2 -8.62705 -1.11974e+06 -4.05169e+06 -4.70662e+06 188986 353827 473746
154 3 O 2.83548 29.4863 55.7128 -1.2 -9.15628 -3.05767e+06 -3.52789e+06 -2.77019e+06 10502.7 -269700 170568
155 1 Mg 0.0647462 28.3794 52.2059 1.2 -8.03335 4632.24 -839861 4.91695e+06 -1.04383e+06 1.61386e+06 1.00527e+06
156 1 Mg 2.10696 28.1021 49.4531 1.2 -8.20423 2.83077e+06 312236 471365 102161 -137554 287591
157 2 Si 1.57592 30.4257 51.2442 2.4 -33.3938 8.90756e+06 4.51673e+06 1.06062e+07 450424 388072 799657
158 3 O 1.68288 31.9926 51.3043 -1.2 -9.60057 -3.58702e+06 -1.7413e+06 -3.71211e+06 641830 -700552 35398.7
159 3 O 1.51048 29.524 57.9725 -1.2 -8.90506 -3.78872e+06 -2.1485e+06 -2.65127e+06 -177617 -184293 139258
160 3 O 0.258524 29.7935 50.6632 -1.2 -8.68088 -3.60994e+06 -2.28455e+06 -5.01977e+06 1.13787e+06 -605377 -491942
161 1 Mg -2.90462 28.3797 52.308 1.2 -7.8247 181174 -1.20883e+06 4.14534e+06 1.66292e+06 -1.63506e+06 1.16429e+06
162 3 O 2.81205 29.7787 50.4664 -1.2 -9.10275 -3.42709e+06 -2.11575e+06 -2.56947e+06 -324324 779117 -594212
163 1 Mg -1.44255 28.3593 55.1005 1.2 -8.77964 2.83504e+06 1.5608e+06 623051 -4181.75 -145305 -598438
164 2 Si -1.48384 26.3404 53.2517 2.4 -34.1675 7.27109e+06 3.33214e+06 1.21533e+07 1.19162e+06 533311 734964
165 3 O -1.62532 24.8136 53.0665 -1.2 -8.99527 -4.66136e+06 -3.27878e+06 -5.32265e+06 -65145.2 272295 454376
166 3 O -0.943026 27.648 46.4208 -1.2 -7.37493 -3.44627e+06 -1.84096e+06 -3.26981e+06 -605434 -1.50317e+06 822752
167 3 O -2.65948 27.051 53.9353 -1.2 -8.87294 -5.0467e+06 -3.29615e+06 -5.61661e+06 -218216 1.4734e+06 -863895
168 3 O -0.193877 26.9806 53.9282 -1.2 -8.70501 -4.2665e+06 -3.02596e+06 -4.70077e+06 1.43414e+06 -1.14395e+06 225541
169 1 Mg -2.7924 35.5205 57.2656 1.2 -8.13534 -512385 -1.71345e+06 4.46644e+06 -1.73213e+06 -1.41589e+06 -219090
170 1 Mg -1.28421 35.3899 49.8376 1.2 -8.6348 1.13479e+06 1.65739e+06 2.55644e+06 -192756 168889 546425
171 2 Si -0.807101 32.9036 47.9247 2.4 -34.8761 9.41683e+06 6.07276e+06 1.06975e+07 487542 2.30001e+06 -267439
172 3 O -0.727174 34.4729 47.9885 -1.2 -8.49042 -2.91289e+06 -3.85109e+06 -3.44387e+06 460583 -1.91752e+06 -81875.9
173 3 O -1.35735 31.7701 51.768 -1.2 -8.79851 -2.24803e+06 -2.74626e+06 -5.73212e+06 670331 786548 -1.36164e+06
174 3 O -1.97695 32.3253 48.826 -1.2 -8.51707 -1.51548e+06 -3.13508e+06 -4.02578e+06 23021.2 -362092 -1.42569e+06
175 1 Mg 0.237665 30.8412 46.8168 1.2 -7.27955 2.49671e+06 -624162 1.31024e+06 1.12411e+06 1.58723e+06 -670878
176 3 O 0.656562 32.2608 48.3877 -1.2 -8.41853 -2.11869e+06 -1.21626e+06 -2.65995e+06 -298119 -316440 650098
177 1 Mg 1.68265 30.7776 54.5029 1.2 -8.4449 3.46417e+06 1.32016e+06 -622012 605845 -81773 1.3821e+06
178 2 Si 1.60878 33.4646 56.3441 2.4 -33.725 6.16284e+06 4.20462e+06 1.23042e+07 -158282 -383591 1.16749e+06
179 3 O 1.52926 31.9366 56.4217 -1.2 -9.59982 -4.30253e+06 -3.46291e+06 -5.22549e+06 -857998 266517 -155455
180 3 O 1.74574 34.5067 52.7279 -1.2 -8.82219 -3.76181e+06 -1.92779e+06 -5.43047e+06 697620 -334097 -1.32262e+06
181 3 O 0.368592 34.2193 55.8097 -1.2 -8.83689 -4.69253e+06 -2.94846e+06 -5.22044e+06 -29530.7 -1.15986e+06 -529869
182 3 O 2.84892 34.1564 55.6037 -1.2 -8.66073 -3.49518e+06 -2.95072e+06 -5.52062e+06 1.51613e+06 890067 -1.03038e+06
183 1 Mg 0.167046 33.1343 52.2045 1.2 -7.99666 317633 -1.48787e+06 4.8405e+06 -656672 1.8827e+06 821353
184 1 Mg 2.20727 32.8578 49.4516 1.2 -8.12128 2.66765e+06 125486 699690 113647 -104945 391204
185 2 Si 1.67943 35.1802 51.2429 2.4 -33.4808 8.51109e+06 3.86972e+06 1.18838e+07 278228 512149 553854
186 3 O 1.78736 36.747 51.303 -1.2 -9.66569 -3.38676e+06 -1.55473e+06 -4.46915e+06 628506 -469339 641604
187 3 O 1.77589 34.1412 57.8237 -1.2 -8.82546 -3.31162e+06 -1.67908e+06 -6.4316e+06 -323496 308972 494337
188 3 O 0.362533 34.5479 50.661 -1.2 -8.72996 -3.68007e+06 -1.92751e+06 -5.38637e+06 999599 -693675 -332632
189 1 Mg -2.80215 33.1347 52.3062 1.2 -8.07532 -167484 -1.81839e+06 4.32178e+06 1.30223e+06 -1.87726e+06 1.19297e+06
190 3 O 2.91593 34.533 50.466 -1.2 -9.11942 -3.27272e+06 -1.80276e+06 -3.09616e+06 -227854 788264 -425018
191 1 Mg -1.33025 33.1995 55.1762 1.2 -8.4888 2.96797e+06 1.66106e+06 -399745 110512 -13556.9 562956
192 2 Si -1.35514 31.0728 53.2377 2.4 -33.9754 7.42196e+06 4.86799e+06 1.28021e+07 -819171 521051 268526
193 3 O -1.37705 29.5487 53.1721 -1.2 -9.30801 -3.34022e+06 -3.36367e+06 -5.11039e+06 -22971 -194496 32140.5
194 3 O -0.842495 32.4028 46.4192 -1.2 -7.4624 -3.30779e+06 -1.83635e+06 -3.27339e+06 -604815 -1.50303e+06 903323
195 3 O -2.59054 31.853 53.9083 -1.2 -8.62258 -3.44128e+06 -2.92357e+06 -5.00879e+06 -303231 597561 423039
196 3 O -0.0872523 31.6902 54.0259 -1.2 -8.64113 -3.17221e+06 -3.08545e+06 -2.69526e+06 740924 -371845 715624
197 1 Mg -2.80247 40.3071 57.3375 1.2 -7.97387 -307574 -1.07873e+06 4.63335e+06 -1.46754e+06 -1.60112e+06 -1.11602e+06
198 1 Mg -1.17787 40.1435 49.8359 1.2 -8.3542 641881 1.93264e+06 2.31713e+06 -159615 82160.3 525837
199 2 Si -0.702692 37.6572 47.9231 2.4 -34.538 8.91538e+06 6.30423e+06 1.04229e+07 478197 2.29267e+06 -812082
200 3 O -0.621782 39.2264 47.9868 -1.2 -8.68177 -2.61818e+06 -4.09309e+06 -3.20142e+06 464876 -1.9064e+06 79753.2
201 3 O -1.25221 36.5242 51.7666 -1.2 -8.90904 -3.30153e+06 -1.79021e+06 -7.2325e+06 592390 296388 -737613
202 3 O -1.87295 37.0796 48.8243 -1.2 -8.69089 -1.24601e+06 -3.17074e+06 -3.97457e+06 20941.4 -322920 -1.09743e+06
203 1 Mg 0.341084 35.5943 46.8152 1.2 -7.1639 2.31721e+06 -634974 1.31724e+06 1.12381e+06 1.59279e+06 -866008
204 3 O 0.760681 37.0138 48.3864 -1.2 -8.57944 -1.86125e+06 -1.24781e+06 -2.61939e+06 -293570 -341892 965913
205 1 Mg 1.90902 35.6872 54.5113 1.2 -8.68001 1.27795e+06 509877 1.10407e+06 -794313 676338 1.40165e+06
206 2 Si 1.73567 38.2564 56.2795 2.4 -33.7883 8.07564e+06 4.90228e+06 1.03277e+07 -958790 1.17995e+06 -576893
207 3 O 1.68921 36.68 56.4209 -1.2 -9.10635 -4.16478e+06 -2.36227e+06 -4.53315e+06 -173024 -770997 -1.8296e+06
208 3 O 1.85132 39.2606 52.7264 -1.2 -9.47912 -3.19524e+06 -2.26919e+06 -6.55857e+06 523742 -496184 -1.55674e+06
209 3 O 0.347865 38.8907 55.7188 -1.2 -8.77184 -2.98322e+06 -3.39352e+06 -3.73091e+06 -1.12207e+06 -534797 479305
210 3 O 2.89125 38.9314 55.5726 -1.2 -9.09191 -4.46911e+06 -3.34518e+06 -5.42312e+06 -60274.3 1.66811e+06 655282
211 1 Mg 0.272384 37.8883 52.2029 1.2 -7.61056 142112 -1.4445e+06 5.02053e+06 -1.15058e+06 1.65931e+06 533836
212 1 Mg 2.31122 37.6122 49.4501 1.2 -7.92166 2.2822e+06 224294 676727 136200 -102361 -11826.5
213 2 Si 1.78573 39.934 51.2414 2.4 -32.5352 7.38725e+06 4.51974e+06 1.07853e+07 159582 909434 -74171.4
214 3 O 1.89428 41.5006 51.3014 -1.2 -10.0766 -2.96217e+06 -1.76475e+06 -3.70411e+06 828171 -590867 560301
215 3 O 1.78376 38.8336 57.7901 -1.2 -8.96971 -3.43243e+06 -2.98134e+06 -5.27435e+06 -60192 -440437 429259
216 3 O 0.469216 39.3015 50.6588 -1.2 -9.17044 -3.0643e+06 -2.29615e+06 -4.55033e+06 1.17632e+06 -937338 -94140.7
217 1 Mg -2.69668 37.8889 52.3043 1.2 -7.75889 -1.10729e+06 -1.48807e+06 4.22924e+06 1.30928e+06 -1.84376e+06 731953
218 3 O 3.0225 39.2866 50.4651 -1.2 -9.43286 -2.58623e+06 -2.14804e+06 -2.94472e+06 -340934 727488 -180631
219 1 Mg -1.27358 38.073 55.099 1.2 -8.41893 1.23843e+06 1.73317e+06 1.40528e+06 -462699 -132925 -279071
220 2 Si -1.19797 35.7944 53.1861 2.4 -33.7338 9.0225e+06 4.73259e+06 1.15197e+07 -363031 421407 862498
221 3 O -1.27697 34.2262 53.1028 -1.2 -9.26692 -4.33645e+06 -2.11e+06 -4.51302e+06 -383920 449214 -82955.1
222 3 O -0.738054 37.1566 46.4176 -1.2 -7.59351 -3.10246e+06 -1.9333e+06 -3.17518e+06 -604911 -1.50155e+06 1.10298e+06
223 3 O -2.50838 36.5126 53.8652 -1.2 -8.82651 -3.48635e+06 -3.04399e+06 -5.36345e+06 -2.13171e+06 1.1885e+06 524711
224 3 O 0.102117 36.4373 53.826 -1.2 -8.81003 -2.56607e+06 -1.87947e+06 -4.71075e+06 1.44495e+06 -745649 -216785
225 1 Mg -2.67208 44.9487 57.5007 1.2 -7.67551 -792172 -464920 4.06377e+06 -764764 -1.52627e+06 -710032
226 1 Mg -1.06993 44.8968 49.8343 1.2 -8.27015 637653 1.99394e+06 2.11804e+06 -184098 171513 462351
227 2 Si -0.596166 42.4103 47.9215 2.4 -34.246 8.44118e+06 6.66661e+06 1.00709e+07 499186 2.29758e+06 -709948
228 3 O -0.51472 43.9796 47.9853 -1.2 -8.78427 -2.45642e+06 -4.19824e+06 -3.09799e+06 458543 -1.92353e+06 10130.1
229 3 O -1.14475 41.2777 51.7649 -1.2 -9.16592 -1.85012e+06 -962298 -6.96277e+06 73725.3 931596 -777342
230 3 O -1.76671 41.8331 48.8226 -1.2 -8.8726 -939044 -3.37944e+06 -3.79838e+06 11554.4 -338001 -1.11091e+06
231 1 Mg 0.447076 40.3473 46.8135 1.2 -7.01059 2.07532e+06 -412513 1.0908e+06 1.12313e+06 1.59191e+06 -926106
232 3 O 0.866985 41.7666 48.385 -1.2 -8.75333 -1.58702e+06 -1.46992e+06 -2.40169e+06 -290914 -329120 922579
233 1 Mg 1.93158 40.3703 54.3421 1.2 -8.23231 1.67865e+06 527990 -175189 43990.7 -381890 428588
234 2 Si 1.68467 42.9501 56.3958 2.4 -33.2304 9.18348e+06 3.94491e+06 1.04267e+07 343536 -624688 -193374
235 3 O 1.7072 41.435 56.4735 -1.2 -9.36758 -4.72276e+06 -3.24701e+06 -4.37467e+06 -336129 -330711 -1.24803e+06
236 3 O 1.95891 44.014 52.7248 -1.2 -9.40096 -2.25076e+06 -2.15047e+06 -4.39175e+06 -265714 -1.04643e+06 -688622
237 3 O 0.340117 43.6748 55.9006 -1.2 -9.34749 -3.4449e+06 -3.03151e+06 -5.03448e+06 -1.61898e+06 -1.00889e+06 -92142.5
238 3 O 2.95679 43.6603 55.724 -1.2 -9.22455 -1.28988e+06 -3.73331e+06 -3.71589e+06 1.17858e+06 757819 927087
239 1 Mg 0.379928 42.6418 52.2013 1.2 -7.46016 -376187 -1.22904e+06 4.95733e+06 -655113 1.4116e+06 192155
240 1 Mg 2.41752 42.366 49.4484 1.2 -7.73342 2.01089e+06 418581 455794 83436.7 -106116 50748
241 2 Si 1.89374 44.6874 51.2398 2.4 -32.6531 6.69631e+06 4.69354e+06 1.14658e+07 379941 870106 123299
242 3 O 2.00266 46.254 51.2996 -1.2 -9.92468 -2.61479e+06 -2.01157e+06 -4.39465e+06 804411 -524931 759426
243 3 O 1.74995 43.5262 57.9401 -1.2 -9.03593 -3.22664e+06 -3.06912e+06 -3.76777e+06 99298.1 -42708.4 1.1058e+06
244 3 O 0.577464 44.0549 50.6567 -1.2 -9.1925 -2.81888e+06 -2.3175e+06 -4.84936e+06 1.04803e+06 -942813 -84167.3
245 1 Mg -2.58906 42.6425 52.3022 1.2 -7.43672 -695194 -692302 4.54163e+06 1.1104e+06 -1.29348e+06 493685
246 3 O 3.13067 44.0398 50.464 -1.2 -9.56438 -2.43457e+06 -2.20853e+06 -2.63731e+06 -238164 1.00945e+06 -261149
247 1 Mg -1.23621 42.8886 55.0598 1.2 -8.43165 916666 1.98133e+06 589743 -561295 -307364 -453640
248 2 Si -1.07738 40.4993 53.213 2.4 -33.381 5.60189e+06 2.73812e+06 1.34292e+07 32212.8 745798 -218558
249 3 O -1.29852 39.0161 53.186 -1.2 -9.71736 -3.55337e+06 -6.01004e+06 -5.11958e+06 -51036.9 -29071.9 -326473
250 3 O -0.631421 41.9099 46.4159 -1.2 -7.72178 -2.89739e+06 -2.12101e+06 -2.98759e+06 -606165 -1.50144e+06 1.08062e+06
251 3 O -2.30719 41.2577 53.8963 -1.2 -8.79778 -3.54843e+06 -2.93024e+06 -5.88252e+06 -791425 1.10428e+06 480567
252 3 O 0.182785 41.1366 53.9088 -1.2 -8.94916 -4.55074e+06 -2.04834e+06 -4.26053e+06 1.5924e+06 -507125 1.12272e+06
253 1 Mg -2.4842 49.7993 57.4767 1.2 -7.70066 -564256 -1.13479e+06 3.81287e+06 -1.16536e+06 -1.59713e+06 -1.2986e+06
254 1 Mg -0.961069 49.6502 49.8327 1.2 -8.3268 552137 1.95669e+06 2.33795e+06 -180950 121947 479777
255 2 Si -0.488083 47.1636 47.9198 2.4 -34.1823 8.3479e+06 6.71724e+06 1.00121e+07 475382 2.31281e+06 -579256
256 3 O -0.40607 48.7329 47.9837 -1.2 -8.79671 -2.42456e+06 -4.18525e+06 -3.115e+06 469452 -1.91189e+06 -21084.6
257 3 O -1.0361 46.031 51.7632 -1.2 -9.53927 -2.72175e+06 -2.04563e+06 -5.53314e+06 225882 -118115 -478491
258 3 O -1.65866 46.5866 48.821 -1.2 -8.90943 -921953 -3.44304e+06 -3.68742e+06 8642.29 -320884 -1.189e+06
259 1 Mg 0.554124 45.1001 46.8117 1.2 -6.93651 1.95228e+06 -336613 1.02015e+06 1.12306e+06 1.59711e+06 -848081
260 3 O 0.974961 46.5195 48.3832 -1.2 -8.78883 -1.50592e+06 -1.50941e+06 -2.37735e+06 -282996 -346159 879588
261 1 Mg 1.78746 45.1296 54.669 1.2 -7.97497 1.82646e+06 1.11131e+06 1.33111e+06 495751 -951384 411401
262 2 Si 1.92191 47.6841 56.3718 2.4 -33.191 7.1921e+06 5.07063e+06 9.05018e+06 -570065 -7972.84 -1.84579e+06
263 3 O 1.78506 46.1538 56.5206 -1.2 -9.7395 -3.12362e+06 -3.58195e+06 -4.25166e+06 403613 563961 -90084.6
264 3 O 2.0677 48.7672 52.7232 -1.2 -9.50607 -2.63783e+06 -2.00209e+06 -5.12737e+06 308214 -347101 -598971
265 3 O 0.609313 48.3747 55.7432 -1.2 -9.09998 -2.69205e+06 -2.2893e+06 -3.65182e+06 9287.49 -712141 325735
266 3 O 3.14399 48.3406 55.6499 -1.2 -9.02436 -3.1466e+06 -3.44556e+06 -4.68933e+06 381709 988106 363498
267 1 Mg 0.488584 47.395 52.1996 1.2 -7.52036 -535391 -1.41803e+06 4.31543e+06 -1.48975e+06 2.12026e+06 757720
268 1 Mg 2.52544 47.1195 49.4466 1.2 -7.72827 1.9709e+06 459448 452876 138077 -148272 77296.3
269 2 Si 2.00256 49.4407 51.2382 2.4 -32.5534 7.39339e+06 4.63478e+06 1.06598e+07 303323 748711 -207489
270 3 O 2.11156 51.0073 51.2982 -1.2 -10.0687 -2.77603e+06 -1.98819e+06 -3.54046e+06 832656 -338812 580816
271 3 O 1.99226 48.3905 57.7827 -1.2 -9.53395 -3.13137e+06 -2.69124e+06 -6.94361e+06 -225351 -39283.2 728663
272 3 O 0.686344 48.8082 50.655 -1.2 -9.15645 -3.07404e+06 -2.30443e+06 -4.80707e+06 1.20306e+06 -735776 -68924.8
273 1 Mg -2.48039 47.3957 52.3005 1.2 -7.43968 -991896 -687813 4.17286e+06 2.08241e+06 -2.11446e+06 563751