ITEM: TIMESTEP
74500
ITEM: NUMBER OF ATOMS
10500
ITEM: BOX BOUNDS xy xz yz pp pp pp
0.0000000000000000e+00 8.9687999999999999e+00 2.9895999999999998e+00
0.0000000000000000e+00 1.1872499999999999e+02 0.0000000000000000e+00
0.0000000000000000e+00 2.5297749999999999e+02 0.0000000000000000e+00
ITEM: ATOMS id type element xu yu zu q c_pe c_s[1] c_s[2] c_s[3] c_s[4] c_s[5] c_s[6]
1 1 Mg -3.33962 7.06945 57.4601 1.2 -6.71877 -976152 -1.93916e+06 4.5167e+06 -1.54074e+06 -2.57753e+06 -1.54097e+06
2 1 Mg -1.82655 6.90154 50.0912 1.2 -7.62335 -795587 1.00797e+06 1.21159e+06 -94246 -56069.1 1.50459e+06
3 2 Si -0.257935 3.96038 48.0876 2.4 -34.9716 8.22658e+06 8.80984e+06 1.08479e+07 813873 1.98332e+06 1.79627e+06
4 3 O -0.335812 5.46814 47.6264 -1.2 -8.26679 -2.29243e+06 -2.53229e+06 -2.48622e+06 142976 -978326 -726771
5 3 O -2.03793 3.43377 51.8941 -1.2 -10.0031 -1.29915e+06 -2.58544e+06 -4.94697e+06 -872256 -522186 -881386
6 3 O -1.54015 3.53929 48.9521 -1.2 -8.90075 -327512 -1.562e+06 -4.41943e+06 13101 -792208 -150616
7 1 Mg 1.82954 2.54582 47.1376 1.2 -7.46195 1.76178e+06 -449069 693556 1.14508e+06 826278 633632
8 3 O 1.22989 3.66364 48.7877 -1.2 -8.60761 -702512 -2.33387e+06 -3.74205e+06 -470951 -669171 -936202
9 1 Mg 0.940598 2.24863 54.5734 1.2 -8.1124 391414 822375 493682 104809 611462 1.65562e+06
10 2 Si 1.24297 5.09142 56.4928 2.4 -33.5113 7.39455e+06 5.02679e+06 9.54919e+06 -2.63569e+06 -867655 -41878.2
11 3 O 1.08114 3.51533 56.3857 -1.2 -9.04003 -5.52644e+06 -1.59002e+06 -5.54697e+06 69596.3 1.17993e+06 812932
12 3 O 1.10813 6.07342 52.8172 -1.2 -9.86268 -2.20551e+06 -4.14707e+06 -7.17873e+06 477363 -240812 -1.52422e+06
13 3 O -0.107732 5.71082 55.8447 -1.2 -8.87027 -1.45477e+06 -4.45626e+06 -4.25086e+06 -145119 -1.47729e+06 562568
14 3 O 2.48444 5.61602 55.7567 -1.2 -8.93836 -3.86158e+06 -6.39895e+06 -2.52299e+06 435960 765894 910851
15 1 Mg -0.459401 4.67631 52.2426 1.2 -7.30683 -2.28925e+06 -1.48692e+06 6.10913e+06 -1.47481e+06 1.55686e+06 741662
16 1 Mg 2.79456 3.9971 49.9987 1.2 -7.67254 2.65435e+06 -249758 1.63983e+06 -557476 797121 -1.03747e+06
17 2 Si 1.16169 6.59457 51.2556 2.4 -32.1975 4.94624e+06 6.12494e+06 1.19219e+07 17559.7 -42911.5 2.30545e+06
18 3 O 1.28989 8.18905 51.2909 -1.2 -10.0042 -2.36626e+06 -1.31681e+06 -4.02602e+06 186886 -685032 833127
19 3 O 1.09498 5.61623 57.9602 -1.2 -9.63519 -1.45523e+06 -1.99495e+06 -7.2045e+06 506469 -1.53315e+06 401074
20 3 O -0.184847 6.06029 50.6845 -1.2 -9.39437 -1.52875e+06 -3.15062e+06 -5.346e+06 1.52122e+06 -473183 -1.37216e+06
21 1 Mg -3.49704 4.67769 52.6661 1.2 -6.6266 -1.34793e+06 -3.33316e+06 4.91999e+06 2.76603e+06 -1.44243e+06 341062
22 3 O 2.48581 5.93312 50.6539 -1.2 -10.027 -2.06813e+06 -1.29933e+06 -3.10636e+06 -1.60531e+06 -409546 -703560
23 1 Mg -1.68685 4.60577 55.1622 1.2 -8.34719 2.85101e+06 -41307.4 -667003 564531 -703016 -2.94604e+06
24 2 Si -2.05866 2.75457 53.3405 2.4 -31.6408 7.26282e+06 1.42815e+06 1.46558e+07 2.20704e+06 -1.81076e+06 354125
25 3 O -2.07081 1.24781 53.2609 -1.2 -9.90392 -2.13668e+06 -454413 -6.0892e+06 -1.01624e+06 1.2341e+06 1.73133e+06
26 3 O -0.0467762 2.97103 46.8385 -1.2 -7.51806 -2.14507e+06 -2.23048e+06 -2.80471e+06 -989987 -2.00381e+06 -756972
27 3 O -3.22928 3.35125 54.3591 -1.2 -9.0819 -954970 -3.93318e+06 -3.69912e+06 295195 172923 -1.02387e+06
28 3 O -0.610917 3.41633 54.0041 -1.2 -9.31579 -622118 -2.57101e+06 -5.04255e+06 1.45501e+06 480542 163483
29 1 Mg -3.07677 11.6551 57.1987 1.2 -8.07935 -841924 -3.69684e+06 3.87097e+06 -486818 -1.85856e+06 -1.61531e+06
30 1 Mg -1.75014 11.5838 49.8362 1.2 -8.44099 760771 1.44547e+06 3.01741e+06 -341035 409845 992003
31 2 Si -1.18003 9.02138 47.9309 2.4 -33.9015 7.56485e+06 6.92278e+06 1.00361e+07 226884 2.65701e+06 1.02708e+06
32 3 O -1.23224 10.5991 47.9811 -1.2 -8.84758 -2.27011e+06 -3.26411e+06 -3.12832e+06 658651 -1.93926e+06 -273804
33 3 O -1.79016 8.01447 51.8693 -1.2 -9.34389 -3.29616e+06 -1.50967e+06 -8.89878e+06 418457 -996262 -1.02027e+06
34 3 O -2.30986 8.37215 48.8528 -1.2 -9.31636 -516524 -2.4581e+06 -3.38446e+06 -335817 -650874 -1.13955e+06
35 1 Mg 0.154883 7.08234 46.8007 1.2 -7.17195 1.31745e+06 -108240 764343 942677 1.72366e+06 -677037
36 3 O 0.325447 8.50934 48.3809 -1.2 -8.92522 -894225 -1.89777e+06 -2.84201e+06 -30490.8 -809064 53304.8
37 1 Mg 1.24725 6.99329 54.4231 1.2 -7.76115 1.72967e+06 903880 -1.16231e+06 -166562 578316 -1.84653e+06
38 2 Si 1.39935 9.56639 56.35 2.4 -32.6594 8.56197e+06 4.58626e+06 9.29215e+06 1.92331e+06 -2.88088e+06 -168985
39 3 O 1.26385 8.09607 56.4229 -1.2 -9.72897 -3.93983e+06 -5.48863e+06 -4.20799e+06 442239 1.105e+06 200277
40 3 O 1.28624 10.7248 52.7351 -1.2 -9.48111 -3.44565e+06 -1.9585e+06 -4.75067e+06 195308 -810480 -1.38573e+06
41 3 O 0.121842 10.3163 55.8277 -1.2 -9.21788 -5.12977e+06 -5.11082e+06 -5.98478e+06 -1.84405e+06 -1.41716e+06 1.595e+06
42 3 O 2.72563 10.3639 55.7239 -1.2 -8.53328 -2.01692e+06 -4.94388e+06 -5.90805e+06 2.67233e+06 443069 314690
43 1 Mg -0.262694 9.34741 52.2523 1.2 -7.6258 -1.0507e+06 -166225 4.33589e+06 -1.56082e+06 1.17806e+06 762417
44 1 Mg 1.87648 9.01537 49.4629 1.2 -7.57516 1.57709e+06 327382 449105 254895 -327143 552594
45 2 Si 1.21415 11.3799 51.2378 2.4 -33.0169 8.32939e+06 3.79323e+06 1.16746e+07 386863 163978 1.02984e+06
46 3 O 1.31634 12.9512 51.3023 -1.2 -9.67924 -3.31065e+06 -1.02691e+06 -4.12369e+06 479965 -359728 774588
47 3 O 1.46779 10.352 57.8246 -1.2 -9.18883 -4.09084e+06 -2.56353e+06 -7.64369e+06 -1.64122e+06 -826135 3.52652e+06
48 3 O -0.115718 10.7564 50.681 -1.2 -8.94019 -2.71483e+06 -2.05454e+06 -5.45516e+06 1.30821e+06 -347833 -921880
49 1 Mg -3.26386 9.35564 52.3622 1.2 -7.21769 -301377 -1.67545e+06 3.73639e+06 2.15886e+06 -1.25124e+06 1.46961e+06
50 3 O 2.45216 10.7265 50.4558 -1.2 -9.56449 -2.76383e+06 -1.44062e+06 -2.4104e+06 -838497 626474 -314872
51 1 Mg -1.50859 9.3659 55.0475 1.2 -8.26161 623625 979837 -3.21132e+06 -862305 1.34698e+06 -927778
52 2 Si -1.89078 7.33294 53.3244 2.4 -32.5498 4.74756e+06 2.58715e+06 1.09254e+07 -179726 -900700 -2.17168e+06
53 3 O -1.94312 5.83078 53.3865 -1.2 -10.0894 -2.88097e+06 -3.77695e+06 -5.79759e+06 -100051 546014 1.04632e+06
54 3 O -1.19417 8.46968 46.4488 -1.2 -7.89206 -2.31669e+06 -1.96063e+06 -3.03231e+06 -541014 -1.74898e+06 461389
55 3 O -3.13772 8.10093 53.8997 -1.2 -9.45458 -3.98085e+06 -3.5585e+06 -6.05495e+06 -532211 1.13815e+06 615957
56 3 O -0.611951 8.04464 53.8808 -1.2 -9.20042 -3.0561e+06 -4.0041e+06 -7.61877e+06 1.29168e+06 -1.66337e+06 476669
57 1 Mg -3.26978 16.3612 57.5782 1.2 -8.08839 -1.22724e+06 -1.45211e+06 4.79829e+06 -1.17325e+06 -1.67472e+06 -743099
58 1 Mg -1.6714 16.3544 49.8412 1.2 -8.65939 1.12951e+06 1.42569e+06 2.90245e+06 -234233 147623 307266
59 2 Si -1.18567 13.8526 47.9314 2.4 -34.4477 8.72612e+06 5.1358e+06 1.15643e+07 486443 2.2556e+06 -338705
60 3 O -1.09664 15.4205 47.9915 -1.2 -8.62665 -2.61092e+06 -3.31351e+06 -3.77147e+06 429063 -1.92399e+06 21740.2
61 3 O -1.73493 12.7491 51.7772 -1.2 -8.89518 -1.83191e+06 -2.6668e+06 -4.93305e+06 756185 -218639 -48459.6
62 3 O -2.36115 13.2717 48.8238 -1.2 -8.73611 -1.25158e+06 -2.52006e+06 -4.41376e+06 -86536.1 -403874 -1.27343e+06
63 1 Mg -0.159928 11.7639 46.8533 1.2 -6.92433 1.94903e+06 -946526 1.60286e+06 1.12667e+06 1.56777e+06 -621886
64 3 O 0.2623 13.1866 48.413 -1.2 -8.66486 -1.7104e+06 -589993 -3.19478e+06 -208694 -265514 748197
65 1 Mg 1.06855 11.5091 54.5998 1.2 -8.49291 3.43047e+06 -222199 -389547 135727 77668 1.04283e+06
66 2 Si 1.36616 14.3459 56.3614 2.4 -33.5753 8.34372e+06 3.63416e+06 1.15108e+07 820330 560133 286773
67 3 O 1.29244 12.8147 56.2812 -1.2 -9.13123 -5.37805e+06 -3.34774e+06 -5.70911e+06 507904 149201 1.06291e+06
68 3 O 1.36565 15.4813 52.729 -1.2 -8.83229 -3.7738e+06 -1.82077e+06 -5.28029e+06 -635210 -113992 -570971
69 3 O 0.201832 15.0588 55.5072 -1.2 -8.89511 -2.86118e+06 -4.81654e+06 -4.29265e+06 -659668 -847700 495186
70 3 O 2.73117 15.0486 55.8833 -1.2 -8.75127 -2.68315e+06 -2.99092e+06 -4.35702e+06 837210 150915 149877
71 1 Mg -0.206989 14.1049 52.2121 1.2 -8.05172 -147022 -1.48651e+06 5.24116e+06 -846095 2.213e+06 109948
72 1 Mg 1.82591 13.8102 49.4556 1.2 -7.9692 2.48481e+06 -173462 1.00542e+06 159330 -124165 231152
73 2 Si 1.29285 16.1518 51.2434 2.4 -33.5814 8.84771e+06 3.48716e+06 1.21139e+07 528812 763107 -259777
74 3 O 1.39496 17.7199 51.3047 -1.2 -9.54733 -3.54783e+06 -1.31057e+06 -4.28132e+06 733112 -844297 1.19697e+06
75 3 O 1.22088 14.9833 57.8191 -1.2 -9.46773 -3.17209e+06 -2.22358e+06 -6.47689e+06 -954884 1.48322e+06 1.41449e+06
76 3 O -0.0269106 15.5178 50.6688 -1.2 -8.70719 -3.77899e+06 -1.70208e+06 -5.61333e+06 964436 -536578 129602
77 1 Mg -3.18391 14.1057 52.3125 1.2 -7.81023 -72244.3 -1.64047e+06 4.6842e+06 1.39932e+06 -2.16888e+06 93324.3
78 3 O 2.52432 15.503 50.4579 -1.2 -9.12059 -3.30755e+06 -1.48211e+06 -3.2619e+06 -299472 689055 -53072.5
79 1 Mg -1.56506 14.1395 55.2091 1.2 -8.55967 2.5049e+06 1.1683e+06 1.2215e+06 -218551 -759325 -1.6013e+06
80 2 Si -1.76793 12.1049 53.2898 2.4 -34.1301 7.30295e+06 -530551 1.28139e+07 1.24925e+06 -396756 -1.21506e+06
81 3 O -1.59997 10.6541 53.2815 -1.2 -9.10377 -3.64942e+06 -7.1001e+06 -5.48001e+06 288024 1.38008e+06 -26561.2
82 3 O -1.21337 13.3381 46.4311 -1.2 -7.72048 -2.95487e+06 -1.36411e+06 -3.68218e+06 -629750 -1.45408e+06 829457
83 3 O -2.94029 12.6673 54.0456 -1.2 -8.39924 -5.75255e+06 -3.12221e+06 -4.32903e+06 1.21908e+06 2.04383e+06 323003
84 3 O -0.432859 12.7199 54.0292 -1.2 -8.29521 -4.09431e+06 -3.9387e+06 -3.66203e+06 -805766 -806460 -738681
85 1 Mg -3.02476 21.289 57.1035 1.2 -7.57583 58906.1 -654566 4.6279e+06 -691470 -1.81914e+06 -1.59188e+06
86 1 Mg -1.5831 21.1217 49.8405 1.2 -8.53274 1.0835e+06 1.76783e+06 2.34909e+06 -220797 88708.8 76678.2
87 2 Si -1.09384 18.6291 47.9287 2.4 -34.6196 9.04453e+06 5.531e+06 1.11856e+07 492872 2.29557e+06 -1.13683e+06
88 3 O -1.02071 20.1985 47.9911 -1.2 -8.5931 -2.75553e+06 -3.68957e+06 -3.48915e+06 456150 -1.91981e+06 304161
89 3 O -1.65002 17.5002 51.771 -1.2 -8.6725 -2.7952e+06 -1.82111e+06 -6.38835e+06 230743 1.21028e+06 -377863
90 3 O -2.26174 18.0434 48.8281 -1.2 -8.63772 -1.34778e+06 -2.72333e+06 -4.35491e+06 -10258.3 -340174 -801830
91 1 Mg -0.0440435 16.5651 46.8269 1.2 -7.08747 2.1613e+06 -1.02405e+06 1.7136e+06 1.13551e+06 1.57891e+06 -913541
92 3 O 0.37001 17.9877 48.3925 -1.2 -8.54898 -1.92153e+06 -850203 -3.01001e+06 -293003 -343094 1.14652e+06
93 1 Mg 1.35514 16.4598 54.6467 1.2 -8.6149 3.56943e+06 228150 951057 -454870 337558 716404
94 2 Si 1.40977 19.1253 56.4356 2.4 -32.585 8.42875e+06 5.27533e+06 1.29771e+07 -1.62259e+06 2.63013e+06 -1.17746e+06
95 3 O 1.30036 17.5342 56.7179 -1.2 -9.29881 -3.70794e+06 1.3177e+06 -5.03886e+06 569756 -2.05704e+06 -884811
96 3 O 1.45147 20.239 52.7294 -1.2 -9.00465 -3.70025e+06 -3.34151e+06 -5.81988e+06 -80276 -44158.2 -1.44853e+06
97 3 O 0.0950714 19.7709 55.5751 -1.2 -8.87528 -36223.6 -2.78821e+06 -3.18353e+06 -1.53121e+06 633185 -254366
98 3 O 2.65191 19.7549 55.7083 -1.2 -9.689 -3.99805e+06 -2.53411e+06 -5.00889e+06 2.33551e+06 -102216 667761
99 1 Mg -0.126194 18.8651 52.2079 1.2 -7.90526 439303 -1.38398e+06 5.34231e+06 -851991 1.55204e+06 -54703.9
100 1 Mg 1.92402 18.5815 49.4545 1.2 -8.03093 2.4371e+06 -39914.6 924712 108224 -83433.1 -295036
101 2 Si 1.38106 20.9117 51.2443 2.4 -33.306 7.76053e+06 4.42747e+06 1.18382e+07 494548 908650 -291799
102 3 O 1.48527 22.4795 51.3054 -1.2 -9.64293 -2.97925e+06 -1.78199e+06 -4.69988e+06 660123 -894258 1.32499e+06
103 3 O 1.30695 19.8528 57.8997 -1.2 -9.37269 -2.70204e+06 -2.28759e+06 -5.42556e+06 1.86618e+06 -1.82492e+06 813340
104 3 O 0.0615419 20.2804 50.6669 -1.2 -8.9042 -3.39282e+06 -2.06023e+06 -4.89518e+06 973814 -963932 301314
105 1 Mg -3.09665 18.8643 52.3122 1.2 -7.95652 -354622 -974684 3.98085e+06 1.13468e+06 -1.74615e+06 -206065
106 3 O 2.61548 20.2646 50.4626 -1.2 -9.22161 -2.89835e+06 -1.96657e+06 -2.98004e+06 -258414 850964 181290
107 1 Mg -1.69294 18.9675 55.0084 1.2 -8.63604 1.67885e+06 993796 -268604 647248 67724.8 -1.36351e+06
108 2 Si -1.62756 16.7148 53.2065 2.4 -34.1953 8.99346e+06 2.82863e+06 1.29137e+07 428163 1.21382e+06 -779516
109 3 O -1.67122 15.2076 53.0479 -1.2 -9.31892 -4.49691e+06 -4.0072e+06 -5.40838e+06 792202 339896 242025
110 3 O -1.12868 18.1227 46.4249 -1.2 -7.61574 -3.08311e+06 -1.48431e+06 -3.59525e+06 -603910 -1.49258e+06 1.15542e+06
111 3 O -2.90812 17.3555 53.8451 -1.2 -8.51176 -4.23527e+06 -2.07995e+06 -5.71251e+06 -1.02625e+06 138511 196708
112 3 O -0.380122 17.4167 54.0204 -1.2 -8.43597 -2.8754e+06 -2.39305e+06 -3.10338e+06 1.23334e+06 -111223 606300
113 1 Mg -2.95451 25.9828 57.4733 1.2 -7.15986 -1.33063e+06 -2.29456e+06 3.59502e+06 -490266 -2.73141e+06 -2.00534e+06
114 1 Mg -1.48778 25.88 49.8402 1.2 -8.70283 982900 1.51762e+06 2.95014e+06 -150279 90437.8 533576
115 2 Si -1.00491 23.3922 47.9274 2.4 -34.5874 9.0154e+06 6.13886e+06 1.05612e+07 478843 2.28732e+06 -962488
116 3 O -0.927602 24.9615 47.9909 -1.2 -8.57692 -2.76526e+06 -3.83248e+06 -3.44649e+06 466012 -1.89498e+06 126099
117 3 O -1.55795 22.2588 51.7696 -1.2 -9.3045 -3.57038e+06 -843327 -5.56363e+06 453629 1.18342e+06 431203
118 3 O -2.17411 22.8111 48.8277 -1.2 -8.68588 -1.27562e+06 -3.20537e+06 -3.92015e+06 -7778.75 -281802 -902016
119 1 Mg 0.0423997 21.3296 46.8225 1.2 -7.10118 2.21251e+06 -767893 1.44132e+06 1.12676e+06 1.59719e+06 -1.07086e+06
120 3 O 0.458537 22.7495 48.3911 -1.2 -8.58104 -1.87455e+06 -1.2383e+06 -2.63617e+06 -281758 -375979 1.12439e+06
121 1 Mg 1.46466 21.0583 54.5464 1.2 -8.54868 2.26558e+06 1.35794e+06 -201409 396695 -902085 817966
122 2 Si 1.55895 23.9352 56.1957 2.4 -33.9666 6.80271e+06 1.20977e+06 1.11059e+07 311703 -793820 484282
123 3 O 1.43006 22.4271 56.2877 -1.2 -9.06811 -4.80601e+06 -3.06612e+06 -5.76211e+06 49203.8 -769464 605288
124 3 O 1.54441 24.9963 52.7297 -1.2 -9.33687 -3.12802e+06 -2.04619e+06 -5.70828e+06 260689 -893545 -116389
125 3 O 0.324875 24.5838 55.5496 -1.2 -8.79473 -6.3058e+06 -4.70789e+06 -5.44821e+06 2892.92 -260712 2.61153e+06
126 3 O 2.77863 24.4403 55.5029 -1.2 -8.66554 -6.52739e+06 -4.4108e+06 -5.53094e+06 -1.03606e+06 2.12577e+06 1.83784e+06
127 1 Mg -0.0335968 23.6229 52.2067 1.2 -7.39496 379820 -525052 4.49583e+06 -1.84632e+06 2.11654e+06 -26128.2
128 1 Mg 2.01073 23.3445 49.4541 1.2 -7.97442 2.27555e+06 339045 623023 144532 -92476.3 -189912
129 2 Si 1.47594 25.6699 51.2449 2.4 -33.2853 9.35895e+06 4.00446e+06 1.04625e+07 28595.6 1.12039e+06 -240765
130 3 O 1.58172 27.2371 51.3054 -1.2 -9.65233 -3.88569e+06 -1.3877e+06 -3.58093e+06 886981 -525523 824250
131 3 O 1.5224 24.6967 57.707 -1.2 -8.95357 -3.90749e+06 -3.65089e+06 -4.97124e+06 1.72224e+06 -894039 2.03789e+06
132 3 O 0.157925 25.0378 50.6651 -1.2 -8.86309 -3.64319e+06 -2.21152e+06 -4.4177e+06 1.50922e+06 -810313 -338013
133 1 Mg -3.00341 23.6231 52.3098 1.2 -7.76173 -1.23972e+06 -132155 4.5229e+06 2.27646e+06 -2.01482e+06 278071
134 3 O 2.71149 25.0232 50.4656 -1.2 -9.16511 -3.0365e+06 -2.04723e+06 -2.88173e+06 -592078 650923 -267418
135 1 Mg -1.30603 23.6021 54.9348 1.2 -8.25896 2.73215e+06 -2112.34 -272178 -1.35146e+06 498479 -1.61695e+06
136 2 Si -1.50523 21.5599 53.2149 2.4 -32.7644 9.92337e+06 4.35216e+06 1.09097e+07 -829206 834551 -1.80421e+06
137 3 O -1.64267 19.9156 53.2149 -1.2 -9.37986 -4.23384e+06 -698150 -5.32475e+06 898879 -796815 899166
138 3 O -1.03938 22.8897 46.4223 -1.2 -7.60961 -3.08345e+06 -1.74573e+06 -3.34464e+06 -605037 -1.49755e+06 1.19692e+06
139 3 O -2.8682 22.1564 53.81 -1.2 -8.86477 -1.26576e+06 -3.74662e+06 -5.60342e+06 -52818.9 958484 -1.10506e+06
140 3 O -0.186269 22.1124 53.8772 -1.2 -9.31748 -2.31276e+06 -2.2062e+06 -5.03337e+06 511373 -550680 -45908.7
141 1 Mg -2.85932 30.8007 57.6595 1.2 -7.42901 -1.02991e+06 -2.26632e+06 3.83859e+06 -2.45525e+06 -891932 -1.00714e+06
142 1 Mg -1.38776 30.6357 49.8391 1.2 -8.30783 680689 2.28176e+06 1.84725e+06 -157488 234381 42252.1
143 2 Si -0.907929 28.1491 47.9262 2.4 -34.5209 8.83582e+06 6.24991e+06 1.0527e+07 516358 2.2866e+06 -1.50844e+06
144 3 O -0.829229 29.7184 47.99 -1.2 -8.69422 -2.58399e+06 -4.20534e+06 -3.0975e+06 448522 -1.92852e+06 437881
145 3 O -1.45946 27.0152 51.769 -1.2 -8.27848 -1.66401e+06 -1.01826e+06 -3.54753e+06 -111811 695515 -863223
146 3 O -2.07744 27.5697 48.8273 -1.2 -8.66264 -1.23692e+06 -3.08172e+06 -4.14965e+06 20973.2 -379318 -653369
147 1 Mg 0.137907 26.087 46.819 1.2 -7.0984 2.21229e+06 -705839 1.3825e+06 1.12245e+06 1.58204e+06 -1.0806e+06
148 3 O 0.55579 27.5065 48.3893 -1.2 -8.58325 -1.88585e+06 -1.17985e+06 -2.68564e+06 -304722 -299047 1.28294e+06
149 1 Mg 1.55509 25.8542 54.5414 1.2 -8.11537 3.01724e+06 1.38757e+06 -519279 -159209 -92956.3 647351
150 2 Si 1.79939 28.6908 56.4896 2.4 -32.5686 6.66628e+06 5.74364e+06 1.16429e+07 -708142 -1.3279e+06 1.52752e+06
151 3 O 1.80976 27.1269 56.5335 -1.2 -9.9366 -4.68829e+06 -2.26522e+06 -5.32321e+06 535469 663921 2.28355e+06
152 3 O 1.6432 29.7522 52.7291 -1.2 -9.31414 -2.05113e+06 -2.54764e+06 -4.55669e+06 1.0694e+06 178760 -770750
153 3 O 0.500697 29.3064 55.8354 -1.2 -9.2426 -4.70173e+06 -4.51205e+06 -3.65107e+06 -2.80618e+06 -1.2796e+06 -1.35732e+06
154 3 O 2.99704 29.4945 55.8109 -1.2 -9.11288 -2.98098e+06 -5.21544e+06 -3.26005e+06 1.95793e+06 681748 -588757
155 1 Mg 0.0647462 28.3794 52.2059 1.2 -7.85931 411953 -1.21018e+06 4.87907e+06 -481899 1.66217e+06 363326
156 1 Mg 2.10696 28.1021 49.4531 1.2 -7.94648 2.40863e+06 196449 594052 50266.2 -83913.5 -445349
157 2 Si 1.57592 30.4257 51.2442 2.4 -32.6607 6.4763e+06 5.18489e+06 1.11616e+07 27126.5 206891 -677606
158 3 O 1.68288 31.9926 51.3043 -1.2 -10.0965 -2.26706e+06 -2.2912e+06 -3.87e+06 664393 96581.7 1.06455e+06
159 3 O 1.82211 29.419 58.0457 -1.2 -9.51921 -2.28519e+06 -1.76921e+06 -4.28282e+06 -1.00131e+06 846708 2.45028e+06
160 3 O 0.258524 29.7935 50.6632 -1.2 -9.09283 -2.86586e+06 -2.58446e+06 -4.60364e+06 1.02068e+06 -1.05796e+06 326996
161 1 Mg -2.90462 28.3797 52.308 1.2 -7.81138 -45350.4 -846905 4.74533e+06 855804 -1.44051e+06 186151
162 3 O 2.81205 29.7787 50.4664 -1.2 -9.46848 -2.69608e+06 -2.35786e+06 -2.40645e+06 -201055 1.01178e+06 349020
163 1 Mg -1.11304 28.618 55.2481 1.2 -8.31961 397512 1.12554e+06 43293.8 -843766 -937818 -24441
164 2 Si -1.40162 26.3186 53.4553 2.4 -33.942 5.7118e+06 1.66598e+06 1.30272e+07 1.65289e+06 435195 -2.03794e+06
165 3 O -1.59149 24.8731 53.3123 -1.2 -9.46125 -4.18172e+06 -5.24506e+06 -6.80677e+06 251649 587981 1.10906e+06
166 3 O -0.943026 27.648 46.4208 -1.2 -7.63585 -3.02946e+06 -1.87199e+06 -3.24003e+06 -606900 -1.4992e+06 1.33081e+06
167 3 O -2.58711 26.9959 54.0399 -1.2 -8.29505 -4.73688e+06 -4.93642e+06 -5.58858e+06 780860 1.93853e+06 -718286
168 3 O -0.122496 27.0854 53.9864 -1.2 -8.94907 -4.57336e+06 -1.65094e+06 -3.55293e+06 359481 -185365 915209
169 1 Mg -2.60574 35.4421 56.9862 1.2 -7.76441 -683097 -1.24454e+06 1.83755e+06 -1.46232e+06 -1.50484e+06 -2.90656e+06
170 1 Mg -1.28421 35.3899 49.8376 1.2 -8.29151 427141 2.4383e+06 1.92922e+06 -209388 183461 645739
171 2 Si -0.807101 32.9036 47.9247 2.4 -34.2145 8.36017e+06 7.31874e+06 9.44633e+06 474678 2.3333e+06 -854747
172 3 O -0.727174 34.4729 47.9885 -1.2 -8.77862 -2.43387e+06 -4.52163e+06 -2.79866e+06 470275 -1.91699e+06 -75322.5
173 3 O -1.35735 31.7701 51.768 -1.2 -9.89656 -1.30695e+06 -1.79837e+06 -2.73448e+06 330002 -154590 -795253
174 3 O -1.97695 32.3253 48.826 -1.2 -8.91405 -928151 -3.77029e+06 -3.36508e+06 4465.14 -359273 -942267
175 1 Mg 0.237665 30.8412 46.8168 1.2 -6.99342 2.03586e+06 -265994 954558 1.12417e+06 1.59485e+06 -1.12962e+06
176 3 O 0.656562 32.2608 48.3877 -1.2 -8.77715 -1.51397e+06 -1.80956e+06 -2.109e+06 -283433 -330132 1.1132e+06
177 1 Mg 1.83873 30.7405 54.6795 1.2 -8.326 1.43146e+06 1.10759e+06 1.08689e+06 41216.8 462354 1.16507e+06
178 2 Si 1.58358 33.4609 56.4013 2.4 -31.2787 6.9344e+06 7.51635e+06 1.15199e+07 818763 -837177 1.30108e+06
179 3 O 1.59515 31.8175 56.5231 -1.2 -9.84616 -2.33398e+06 805517 -3.74106e+06 -50358.4 44130.3 -1.63384e+06
180 3 O 1.74574 34.5067 52.7279 -1.2 -10.0839 -2.07227e+06 -2.3954e+06 -4.85444e+06 -11097.5 -435771 -567769
181 3 O 0.397985 34.2478 55.8507 -1.2 -10.2128 -1.43005e+06 -2.49649e+06 -5.57637e+06 258015 -1.74564e+06 -1.27596e+06
182 3 O 3.07792 34.1964 55.6728 -1.2 -9.45634 2.06707e+06 -3.51119e+06 -5.32332e+06 1.84245e+06 -550522 -3.14122e+06
183 1 Mg 0.167046 33.1343 52.2045 1.2 -7.32401 -1.07987e+06 -593568 4.49937e+06 -1.67476e+06 1.96189e+06 89474.5
184 1 Mg 2.20727 32.8578 49.4516 1.2 -7.6764 1.94542e+06 843059 -10981.5 147744 -182383 -121914
185 2 Si 1.67943 35.1802 51.2429 2.4 -32.1119 7.12427e+06 5.81753e+06 9.04454e+06 461367 563436 -19269.9
186 3 O 1.78736 36.747 51.303 -1.2 -10.1397 -2.87102e+06 -2.26813e+06 -3.30921e+06 696969 -583313 -21326.3
187 3 O 1.7544 34.2057 57.8594 -1.2 -9.13142 -4.44854e+06 -1.4572e+06 -2.32558e+06 271483 -1.32887e+06 1.26622e+06
188 3 O 0.362533 34.5479 50.661 -1.2 -9.24876 -2.82261e+06 -2.82719e+06 -4.47709e+06 1.2176e+06 -520249 -50197.5
189 1 Mg -2.80215 33.1347 52.3062 1.2 -7.05734 -839534 -696577 4.51296e+06 2.08572e+06 -1.63831e+06 296560
190 3 O 2.91593 34.533 50.466 -1.2 -9.6412 -2.55367e+06 -2.63976e+06 -2.11926e+06 -405900 682145 -258302
191 1 Mg -1.30915 33.0488 55.2693 1.2 -7.68517 923984 2.00116e+06 361494 267143 -328786 -990831
192 2 Si -1.31015 31.0574 53.2509 2.4 -31.6177 9.23991e+06 6.2503e+06 1.20018e+07 769421 -176343 -499912
193 3 O -1.41159 29.5022 53.283 -1.2 -9.86437 -3.02212e+06 -1.63805e+06 -3.39535e+06 222093 803606 674131
194 3 O -0.842495 32.4028 46.4192 -1.2 -7.72772 -2.88409e+06 -2.31193e+06 -2.79845e+06 -604248 -1.50692e+06 1.15035e+06
195 3 O -2.49108 31.8039 54.1267 -1.2 -9.67013 -253609 -3.63103e+06 -2.49592e+06 -1.03957e+06 -352026 855971
196 3 O 0.174876 31.7261 53.908 -1.2 -9.2761 1.37233e+06 -1.48845e+06 -1.6305e+06 2.01307e+06 1.23563e+06 716488
197 1 Mg -2.41602 40.2862 57.4499 1.2 -7.5148 -1.00478e+06 -862331 4.09614e+06 844356 -1.95167e+06 -238536
198 1 Mg -1.17787 40.1435 49.8359 1.2 -8.48878 896600 2.0581e+06 2.16392e+06 -230281 51010.5 774393
199 2 Si -0.702692 37.6572 47.9231 2.4 -34.376 8.61643e+06 7.01832e+06 9.75013e+06 481913 2.2789e+06 97059
200 3 O -0.621782 39.2264 47.9868 -1.2 -8.64143 -2.67998e+06 -4.23598e+06 -3.05323e+06 465074 -1.90192e+06 -412219
201 3 O -1.25221 36.5242 51.7666 -1.2 -9.35744 -1.55624e+06 -3.89289e+06 -4.66414e+06 427570 176096 -1.20903e+06
202 3 O -1.87295 37.0796 48.8243 -1.2 -8.84145 -968204 -3.67488e+06 -3.50834e+06 27295.2 -356734 -1.50734e+06
203 1 Mg 0.341084 35.5943 46.8152 1.2 -6.97958 2.02012e+06 -125677 809775 1.12209e+06 1.58541e+06 -657252
204 3 O 0.760681 37.0138 48.3864 -1.2 -8.72808 -1.63717e+06 -1.72938e+06 -2.12257e+06 -299235 -312705 556401
205 1 Mg 1.81254 35.6326 54.3737 1.2 -7.31868 458478 2.4732e+06 249284 -564046 69543.8 375200
206 2 Si 2.10993 38.3316 56.2679 2.4 -33.0763 9.34906e+06 4.18988e+06 9.91309e+06 -1.13022e+06 371983 -1.73028e+06
207 3 O 1.88844 36.8257 56.5035 -1.2 -9.51003 -4.79136e+06 -3.13019e+06 -3.9584e+06 658825 80416.6 1.29232e+06
208 3 O 1.85132 39.2606 52.7264 -1.2 -9.39289 -3.41283e+06 -2.15242e+06 -5.41042e+06 -582831 -677898 -1.17416e+06
209 3 O 0.640849 38.9165 55.6165 -1.2 -8.76386 439319 -3.69022e+06 -3.2902e+06 -507421 34768.2 1.47888e+06
210 3 O 3.33824 38.8437 55.6018 -1.2 -9.05046 -4.5379e+06 -5.64398e+06 -4.44076e+06 272596 1.34741e+06 1.63291e+06
211 1 Mg 0.272384 37.8883 52.2029 1.2 -7.47945 -707945 -1.8703e+06 4.3056e+06 -933739 2.12747e+06 1.05967e+06
212 1 Mg 2.31122 37.6122 49.4501 1.2 -7.79081 2.14748e+06 639227 187406 121580 -80007.6 507484
213 2 Si 1.78573 39.934 51.2414 2.4 -32.9259 7.85269e+06 4.60746e+06 1.08868e+07 685926 1.31907e+06 661387
214 3 O 1.89428 41.5006 51.3014 -1.2 -9.68427 -3.20065e+06 -1.84289e+06 -4.037e+06 719575 -1.12764e+06 368742
215 3 O 1.89095 39.0364 57.8041 -1.2 -9.05023 -4.0116e+06 -4.368e+06 -2.48785e+06 1.59907e+06 -2.03345e+06 1.58593e+06
216 3 O 0.469216 39.3015 50.6588 -1.2 -9.01869 -3.49177e+06 -2.20109e+06 -5.00506e+06 941774 -515454 -283034
217 1 Mg -2.69668 37.8889 52.3043 1.2 -7.53089 -1.21242e+06 -1.30838e+06 3.82063e+06 1.58221e+06 -1.92082e+06 1.59633e+06
218 3 O 3.0225 39.2866 50.4651 -1.2 -9.35722 -2.76327e+06 -2.21694e+06 -2.87091e+06 -219902 666894 -645829
219 1 Mg -1.13915 37.8502 54.9368 1.2 -8.2363 1.11592e+06 151693 951306 761227 1.2878e+06 -3.13051e+06
220 2 Si -1.18581 35.8649 53.2602 2.4 -31.531 4.72848e+06 6.16028e+06 1.20463e+07 -989447 -203885 -460992
221 3 O -1.26287 34.3423 53.149 -1.2 -10.2098 -1.5251e+06 -1.97872e+06 -5.3616e+06 144071 430048 1.97765e+06
222 3 O -0.738054 37.1566 46.4176 -1.2 -7.68354 -2.95324e+06 -2.27196e+06 -2.84097e+06 -604831 -1.4998e+06 713892
223 3 O -2.53705 36.696 53.9326 -1.2 -9.63302 227551 -3.84334e+06 -4.92466e+06 -1.88797e+06 16040.6 222554
224 3 O 0.0631653 36.586 53.8953 -1.2 -10.0483 -1.59602e+06 -3.79458e+06 -4.84247e+06 617267 -871809 -327404
225 1 Mg -2.16625 44.9996 57.3264 1.2 -8.08643 1.27363e+06 -1.56335e+06 3.20464e+06 -1.55265e+06 -1.44706e+06 -2.06081e+06
226 1 Mg -1.06993 44.8968 49.8343 1.2 -8.87575 1.43981e+06 1.66713e+06 2.62494e+06 -154386 -94669.5 508170
227 2 Si -0.596166 42.4103 47.9215 2.4 -34.7942 9.35271e+06 6.29249e+06 1.04137e+07 470837 2.23886e+06 240240
228 3 O -0.51472 43.9796 47.9853 -1.2 -8.41536 -3.06076e+06 -3.8744e+06 -3.40097e+06 465223 -1.87467e+06 -324647
229 3 O -1.14475 41.2777 51.7649 -1.2 -9.05134 -2.59969e+06 -3.25279e+06 -8.86591e+06 526819 725470 295375
230 3 O -1.76671 41.8331 48.8226 -1.2 -8.60189 -1.34136e+06 -3.3093e+06 -3.88126e+06 16626.1 -276935 -1.63196e+06
231 1 Mg 0.447076 40.3473 46.8135 1.2 -7.11711 2.25154e+06 -414224 1.087e+06 1.1249e+06 1.59314e+06 -413422
232 3 O 0.866985 41.7666 48.385 -1.2 -8.51006 -2.01223e+06 -1.35715e+06 -2.46867e+06 -288768 -360507 450508
233 1 Mg 1.66072 40.2576 54.4803 1.2 -8.40039 3.18373e+06 648514 -395318 1.37696e+06 -1.12231e+06 908998
234 2 Si 2.19121 42.9279 56.5145 2.4 -32.9268 9.3859e+06 6.13725e+06 1.29317e+07 -194618 -411947 2.61518e+06
235 3 O 2.13986 41.3922 56.383 -1.2 -9.5393 -3.35359e+06 -602189 -3.48606e+06 967792 1.49549e+06 1.25756e+06
236 3 O 1.95891 44.014 52.7248 -1.2 -8.65544 -3.88779e+06 -2.36908e+06 -4.10083e+06 919011 25995.3 -637457
237 3 O 0.942683 43.6923 55.7945 -1.2 -8.91403 -2.71875e+06 -2.94119e+06 -5.26177e+06 -2.2956e+06 1.32818e+06 -524654
238 3 O 3.52612 43.7595 55.8033 -1.2 -9.09647 -2.25515e+06 -2.17154e+06 -5.21725e+06 3.06676e+06 -676715 -1.17664e+06
239 1 Mg 0.379928 42.6418 52.2013 1.2 -7.7845 1.49068e+06 -1.74267e+06 4.64114e+06 -1.2417e+06 1.57571e+06 213644
240 1 Mg 2.41752 42.366 49.4484 1.2 -8.09579 2.51226e+06 284090 671976 150474 -11064.8 490041
241 2 Si 1.89374 44.6874 51.2398 2.4 -33.9758 9.4296e+06 4.15696e+06 1.14235e+07 112349 1.46785e+06 151151
242 3 O 2.00266 46.254 51.2996 -1.2 -9.2857 -3.68704e+06 -1.981e+06 -4.32782e+06 936136 -331633 816218
243 3 O 2.15718 43.6479 58.0248 -1.2 -8.68774 -3.85192e+06 8397.12 -2.45547e+06 1.25989e+06 -1.12286e+06 1.7592e+06
244 3 O 0.577464 44.0549 50.6567 -1.2 -8.66141 -4.38197e+06 -1.88577e+06 -4.62239e+06 1.10533e+06 -857275 -224022
245 1 Mg -2.58906 42.6425 52.3022 1.2 -8.29859 -1.00526e+06 -801239 4.39505e+06 1.56299e+06 -1.69847e+06 -24960.6
246 3 O 3.13067 44.0398 50.464 -1.2 -8.8525 -3.34367e+06 -1.91021e+06 -3.53394e+06 -324775 476024 -425225
247 1 Mg -0.859437 42.8267 55.2374 1.2 -8.47969 1.63759e+06 1.33227e+06 1.93795e+06 444435 1.28825e+06 -352192
248 2 Si -1.08626 40.5668 53.1148 2.4 -33.8386 7.08267e+06 3.68212e+06 1.15819e+07 -1.17288e+06 -1.34196e+06 819989
249 3 O -1.14783 39.0319 53.0382 -1.2 -9.51804 -3.50877e+06 -3.77161e+06 -6.41926e+06 550710 914202 585.639
250 3 O -0.631421 41.9099 46.4159 -1.2 -7.53227 -3.20439e+06 -1.95866e+06 -3.14473e+06 -603440 -1.49532e+06 592840
251 3 O -2.44377 41.2611 53.8859 -1.2 -7.82538 -2.02881e+06 -2.07619e+06 -3.73857e+06 -1.20117e+06 -128684 1.4559e+06
252 3 O 0.0508296 41.2552 53.9268 -1.2 -8.99858 -6.3635e+06 -1.55585e+06 -3.51077e+06 528777 -1.39478e+06 1.30931e+06
253 1 Mg -2.66083 49.627 57.7662 1.2 -7.13747 -994164 -2.21139e+06 3.02669e+06 -2.39781e+06 -1.94717e+06 -429393
254 1 Mg -0.961069 49.6502 49.8327 1.2 -8.81304 1.45196e+06 2.16939e+06 2.00255e+06 -140877 141115 684858
255 2 Si -0.488083 47.1636 47.9198 2.4 -35.0452 9.75529e+06 6.29056e+06 1.04145e+07 506032 2.26878e+06 -417863
256 3 O -0.40607 48.7329 47.9837 -1.2 -8.36214 -3.13645e+06 -4.06985e+06 -3.21332e+06 458229 -1.91371e+06 -134272
257 3 O -1.0361 46.031 51.7632 -1.2 -8.58005 -3.17221e+06 -3.57869e+06 -4.99239e+06 -329274 1.05621e+06 -498083
258 3 O -1.65866 46.5866 48.821 -1.2 -8.4163 -1.64331e+06 -3.25111e+06 -3.94277e+06 2618.93 -281046 -1.17579e+06
259 1 Mg 0.554124 45.1001 46.8117 1.2 -7.2771 2.51531e+06 -670558 1.33671e+06 1.12335e+06 1.59245e+06 -579236
260 3 O 0.974961 46.5195 48.3832 -1.2 -8.33879 -2.28065e+06 -1.27027e+06 -2.55788e+06 -286889 -359394 794364
261 1 Mg 2.23584 44.9568 54.7519 1.2 -8.62576 2.40122e+06 297545 1.9938e+06 185707 -181402 1.2149e+06
262 2 Si 2.15014 47.7393 56.5058 2.4 -33.0543 6.50034e+06 5.58543e+06 1.04355e+07 1.23825e+06 -2.42756e+06 -1.82963e+06
263 3 O 2.12459 46.103 56.5381 -1.2 -9.0988 -3.01127e+06 -892378 -6.94955e+06 324861 228769 467121
264 3 O 2.0677 48.7672 52.7232 -1.2 -8.79327 -2.66871e+06 -2.85339e+06 -4.36352e+06 393697 -368939 -417920
265 3 O 0.994133 48.3835 55.7319 -1.2 -9.13128 -4.93615e+06 -3.56959e+06 -6.75251e+06 -682009 52087.4 218193
266 3 O 3.43693 48.4177 55.7423 -1.2 -8.82582 -2.70406e+06 -2.59413e+06 -2.34884e+06 715995 -1.41236e+06 -795313
267 1 Mg 0.488584 47.395 52.1996 1.2 -7.98642 757700 -1.83676e+06 3.87107e+06 -1.24656e+06 2.59822e+06 620193
268 1 Mg 2.52544 47.1195 49.4466 1.2 -8.25105 2.7661e+06 390092 564897 73440.2 -79518.4 45334.4
269 2 Si 2.00256 49.4407 51.2382 2.4 -33.7821 8.48385e+06 5.43203e+06 1.07564e+07 80801.4 794884 215017
270 3 O 2.11156 51.0073 51.2982 -1.2 -9.38365 -3.85047e+06 -2.10123e+06 -3.85653e+06 810695 -352719 587729
271 3 O 1.96115 48.3201 57.9205 -1.2 -9.69864 -2.98645e+06 -5.0146e+06 -7.85611e+06 -906019 493318 730352