ITEM: TIMESTEP
22400
ITEM: NUMBER OF ATOMS
10500
ITEM: BOX BOUNDS xy xz yz pp pp pp
0.0000000000000000e+00 8.9687999999999999e+00 2.9895999999999998e+00
0.0000000000000000e+00 1.1872499999999999e+02 0.0000000000000000e+00
0.0000000000000000e+00 2.5297749999999999e+02 0.0000000000000000e+00
ITEM: ATOMS id type element xu yu zu q c_pe c_s[1] c_s[2] c_s[3] c_s[4] c_s[5] c_s[6]
1 1 Mg -3.40954 7.05288 57.552 1.2 -7.60555 -449060 -2.9321e+06 5.18714e+06 -1.77074e+06 -1.50206e+06 -564133
2 1 Mg -1.82655 6.90154 50.0912 1.2 -8.10963 -121948 771263 1.55165e+06 -94346.4 -280742 1.41962e+06
3 2 Si -0.257935 3.96038 48.0876 2.4 -35.9922 9.94517e+06 8.22845e+06 1.13469e+07 801656 1.97243e+06 1.88592e+06
4 3 O -0.335812 5.46814 47.6264 -1.2 -7.86364 -2.9683e+06 -2.17509e+06 -2.81299e+06 144236 -968373 -612976
5 3 O -2.03793 3.43377 51.8941 -1.2 -8.74993 -3.37461e+06 -2.04004e+06 -6.28443e+06 -807504 1.14553e+06 -2.24156e+06
6 3 O -1.54015 3.53929 48.9521 -1.2 -8.30943 -1.29044e+06 -1.37919e+06 -4.574e+06 33385.3 -713823 -375006
7 1 Mg 1.82954 2.54582 47.1376 1.2 -7.96678 2.56422e+06 -728411 979267 1.14986e+06 834081 601813
8 3 O 1.22989 3.66364 48.7877 -1.2 -8.03199 -1.63332e+06 -2.11859e+06 -3.93967e+06 -483941 -736478 -1.09608e+06
9 1 Mg 0.898499 2.27888 54.576 1.2 -8.06071 1.31957e+06 208817 2.13439e+06 818297 -764608 1.32087e+06
10 2 Si 1.06731 5.02883 56.5809 2.4 -32.3829 7.43562e+06 3.15929e+06 1.25134e+07 -185512 505373 1.22857e+06
11 3 O 1.05459 3.50801 56.6264 -1.2 -10.1626 -2.85447e+06 -1.96901e+06 -5.22925e+06 476165 -260024 -199877
12 3 O 1.10813 6.07342 52.8172 -1.2 -9.20642 -3.08373e+06 -2.70851e+06 -4.73301e+06 383004 -155460 -1.67861e+06
13 3 O -0.228352 5.75451 55.8433 -1.2 -9.20105 -990684 -1.64897e+06 -5.11362e+06 -1.81069e+06 -49529.6 -1.12293e+06
14 3 O 2.35407 5.77328 55.9928 -1.2 -9.35454 -2.66523e+06 -2.2942e+06 -5.12742e+06 1.32222e+06 873433 -844585
15 1 Mg -0.459401 4.67631 52.2426 1.2 -8.02726 -116960 -1.97562e+06 5.51231e+06 -1.45174e+06 1.42373e+06 1.37708e+06
16 1 Mg 2.79456 3.9971 49.9987 1.2 -8.39249 3.55737e+06 -398253 2.04579e+06 -511493 830382 -674596
17 2 Si 1.16169 6.59457 51.2556 2.4 -33.3558 6.95869e+06 5.41696e+06 1.24258e+07 55882.1 694896 2.91429e+06
18 3 O 1.28989 8.18905 51.2909 -1.2 -9.73495 -2.52033e+06 -1.34087e+06 -3.93536e+06 286395 -831673 649903
19 3 O 0.999586 5.75828 58.0272 -1.2 -9.55128 -3.14322e+06 -1.44546e+06 -7.64531e+06 535823 553183 887787
20 3 O -0.184847 6.06029 50.6845 -1.2 -8.821 -2.93894e+06 -2.71061e+06 -5.36692e+06 1.4754e+06 -393429 -1.5326e+06
21 1 Mg -3.49704 4.67769 52.6661 1.2 -7.77163 -435559 -2.55777e+06 2.87026e+06 2.19554e+06 -1.53974e+06 1.34708e+06
22 3 O 2.48581 5.93312 50.6539 -1.2 -9.3044 -2.94648e+06 -1.11571e+06 -3.76948e+06 -1.59355e+06 -685728 -961041
23 1 Mg -1.95947 4.72688 55.2518 1.2 -8.02228 2.17017e+06 578523 2.37925e+06 -32380.9 -215134 3215.75
24 2 Si -1.91062 2.6463 53.3184 2.4 -33.1704 8.74473e+06 1.6341e+06 1.35345e+07 540829 -22109.2 -121552
25 3 O -1.89879 1.1486 53.2057 -1.2 -9.72945 -3.47619e+06 -2.66204e+06 -5.14173e+06 592345 -343163 478653
26 3 O -0.0467762 2.97103 46.8385 -1.2 -7.04657 -2.91036e+06 -1.90698e+06 -3.11622e+06 -989481 -2.00569e+06 -689262
27 3 O -3.18973 3.31133 54.0878 -1.2 -9.23246 -925352 -1.38661e+06 -5.7789e+06 -814336 391683 1.03585e+06
28 3 O -0.568731 3.31363 53.942 -1.2 -9.13445 -2.84131e+06 -2.35324e+06 -4.93678e+06 1.45429e+06 -364455 176668
29 1 Mg -3.17863 11.8565 57.2884 1.2 -7.12173 -1.47534e+06 -1.46557e+06 5.63583e+06 -995907 -1.5503e+06 -42566
30 1 Mg -1.75014 11.5838 49.8362 1.2 -8.31154 564510 1.50435e+06 2.95e+06 -318311 239633 858903
31 2 Si -1.18003 9.02138 47.9309 2.4 -34.1653 8.02474e+06 6.65958e+06 1.02615e+07 230897 2.60012e+06 497446
32 3 O -1.23224 10.5991 47.9811 -1.2 -8.85939 -2.27031e+06 -3.25524e+06 -3.11881e+06 655618 -1.91124e+06 -19788.6
33 3 O -1.79016 8.01447 51.8693 -1.2 -9.43212 -2.48729e+06 -2.52509e+06 -5.13158e+06 121515 226353 -1.54522e+06
34 3 O -2.30986 8.37215 48.8528 -1.2 -9.08855 -822925 -2.32775e+06 -3.58481e+06 -335390 -595330 -940943
35 1 Mg 0.154883 7.08234 46.8007 1.2 -7.42729 1.74122e+06 -413339 1.05483e+06 943261 1.7262e+06 -954179
36 3 O 0.325447 8.50934 48.3809 -1.2 -8.73815 -1.24429e+06 -1.73147e+06 -2.96408e+06 -32498.6 -833570 279311
37 1 Mg 1.10227 7.11978 54.6399 1.2 -8.22854 1.4861e+06 125793 2.38812e+06 1.02863e+06 -276185 1.4712e+06
38 2 Si 1.17695 9.80445 56.3963 2.4 -32.5057 6.58332e+06 5.28492e+06 1.23845e+07 -747038 -409781 751945
39 3 O 1.06551 8.20201 56.5343 -1.2 -9.5106 -2.89891e+06 126347 -5.2622e+06 -1655.01 240547 -1.179e+06
40 3 O 1.28624 10.7248 52.7351 -1.2 -9.47889 -3.1607e+06 -1.44798e+06 -5.07257e+06 111004 -1.02952e+06 -1.02117e+06
41 3 O -0.15662 10.5132 55.8376 -1.2 -9.61427 -1.82082e+06 -1.97238e+06 -5.31898e+06 -884858 -1.478e+06 -446180
42 3 O 2.45061 10.3618 55.6366 -1.2 -9.3157 -589715 -2.57886e+06 -5.82214e+06 1.10516e+06 1.1119e+06 -451337
43 1 Mg -0.262694 9.34741 52.2523 1.2 -7.52835 -236817 -981247 5.05804e+06 -1.89632e+06 1.44337e+06 1.41277e+06
44 1 Mg 1.87648 9.01537 49.4629 1.2 -7.74485 1.77121e+06 262922 590473 250865 -245812 443626
45 2 Si 1.21415 11.3799 51.2378 2.4 -32.7467 7.88191e+06 3.8447e+06 1.16711e+07 346854 799046 1.03585e+06
46 3 O 1.31634 12.9512 51.3023 -1.2 -9.97724 -2.88809e+06 -1.20028e+06 -4.41711e+06 628270 -771634 605434
47 3 O 1.26046 10.5062 57.8376 -1.2 -9.68171 -1.77022e+06 -1.15493e+06 -6.61265e+06 678222 -1.25995e+06 295645
48 3 O -0.115718 10.7564 50.681 -1.2 -9.05977 -2.91267e+06 -1.89982e+06 -5.07982e+06 1.27831e+06 -487630 -877296
49 1 Mg -3.26386 9.35564 52.3622 1.2 -7.49664 -857631 -1.25735e+06 4.78243e+06 2.18052e+06 -1.59706e+06 1.5024e+06
50 3 O 2.45216 10.7265 50.4558 -1.2 -9.5372 -2.56025e+06 -1.4382e+06 -2.82111e+06 -824931 454116 -294602
51 1 Mg -1.70365 9.38671 55.2518 1.2 -8.03481 1.97193e+06 395358 825328 -225817 -127038 -1.25068e+06
52 2 Si -1.80513 7.40949 53.3928 2.4 -32.6099 7.68392e+06 4.60341e+06 1.24427e+07 187000 -440339 1.27992e+06
53 3 O -1.96617 5.82013 53.3223 -1.2 -9.55183 -3.15974e+06 -578109 -5.04704e+06 831358 -330174 -614037
54 3 O -1.19417 8.46968 46.4488 -1.2 -7.74579 -2.55532e+06 -1.74895e+06 -3.24035e+06 -541636 -1.74084e+06 796466
55 3 O -3.07347 8.07815 54.0565 -1.2 -9.23842 -1.09689e+06 -3.48046e+06 -5.05431e+06 -191969 819168 -1.14681e+06
56 3 O -0.487291 8.07401 54.0271 -1.2 -9.5871 -2.46406e+06 -2.18163e+06 -4.56063e+06 1.8458e+06 -774126 118837
57 1 Mg -3.14631 16.5133 57.1534 1.2 -6.99152 -1.83085e+06 -2.68965e+06 3.5327e+06 -988664 -2.00706e+06 -891340
58 1 Mg -1.6714 16.3544 49.8412 1.2 -8.10027 227800 1.91493e+06 2.41539e+06 -176292 281698 766688
59 2 Si -1.18567 13.8526 47.9314 2.4 -33.8841 7.84745e+06 5.69981e+06 1.09756e+07 508630 2.24763e+06 -475010
60 3 O -1.09664 15.4205 47.9915 -1.2 -9.00539 -1.99921e+06 -3.6797e+06 -3.41089e+06 420978 -1.93566e+06 -125622
61 3 O -1.73493 12.7491 51.7772 -1.2 -9.21576 -2.27752e+06 -2.41599e+06 -5.58663e+06 392589 431772 -586310
62 3 O -2.36115 13.2717 48.8238 -1.2 -9.00818 -802876 -2.77471e+06 -4.16793e+06 -104927 -364394 -1.1615e+06
63 1 Mg -0.159928 11.7639 46.8533 1.2 -6.82572 1.80232e+06 -874911 1.51991e+06 1.12744e+06 1.56974e+06 -887733
64 3 O 0.2623 13.1866 48.413 -1.2 -8.91588 -1.32785e+06 -827500 -2.93572e+06 -201938 -287336 852894
65 1 Mg 1.21088 11.7891 54.5479 1.2 -8.0752 2.07346e+06 799177 1.40754e+06 -39661.9 -653377 1.48596e+06
66 2 Si 1.2938 14.4857 56.4238 2.4 -31.9278 5.93797e+06 2.4028e+06 1.344e+07 -418072 248770 1.82019e+06
67 3 O 1.25937 12.9756 56.3804 -1.2 -10.0023 -2.58098e+06 -2.28259e+06 -4.94915e+06 -406172 -251188 -255113
68 3 O 1.36565 15.4813 52.729 -1.2 -9.84022 -1.82653e+06 -1.74721e+06 -4.87532e+06 449492 -365850 -533350
69 3 O 0.058469 15.2442 55.74 -1.2 -9.80132 -918698 -1.9697e+06 -4.49835e+06 -112732 -43930.8 -820251
70 3 O 2.62056 15.1712 55.7724 -1.2 -9.79423 -1.78587e+06 -3.90968e+06 -5.81771e+06 1.23837e+06 -303630 -1.37562e+06
71 1 Mg -0.206989 14.1049 52.2121 1.2 -7.38816 -942732 -1.45418e+06 4.82028e+06 -1.11377e+06 2.18013e+06 750984
72 1 Mg 1.82591 13.8102 49.4556 1.2 -7.62185 1.87447e+06 136441 750544 113580 -104040 185294
73 2 Si 1.29285 16.1518 51.2434 2.4 -32.0944 6.47223e+06 4.67533e+06 1.08932e+07 40121.2 175203 422446
74 3 O 1.39496 17.7199 51.3047 -1.2 -10.3005 -2.53101e+06 -1.69779e+06 -3.75054e+06 645516 -165814 170979
75 3 O 1.31744 15.1827 57.9066 -1.2 -9.8618 -2.31923e+06 -1.36703e+06 -5.67349e+06 1.02656e+06 -812836 862073
76 3 O -0.0269106 15.5178 50.6688 -1.2 -9.29673 -2.61472e+06 -2.2227e+06 -5.22559e+06 1.08667e+06 -581468 -311301
77 1 Mg -3.18391 14.1057 52.3125 1.2 -7.3121 -1.1726e+06 -1.85785e+06 4.0564e+06 1.65581e+06 -2.22808e+06 937468
78 3 O 2.52432 15.503 50.4579 -1.2 -9.73831 -2.4007e+06 -1.94544e+06 -2.59563e+06 -315537 802966 -192847
79 1 Mg -1.69796 14.2882 55.1266 1.2 -7.62862 1.5859e+06 99947.3 1.52912e+06 354997 144193 -173143
80 2 Si -1.71575 12.14 53.2854 2.4 -32.8405 7.00218e+06 3.77401e+06 1.26759e+07 -85719.9 -358242 152136
81 3 O -1.77222 10.5741 53.2436 -1.2 -9.46998 -3.07469e+06 -549774 -5.00507e+06 -40660 649261 624879
82 3 O -1.21337 13.3381 46.4311 -1.2 -7.91772 -2.64214e+06 -1.544e+06 -3.49891e+06 -632198 -1.4517e+06 1.00421e+06
83 3 O -3.05706 12.8339 53.8884 -1.2 -9.3104 -767266 -2.30967e+06 -5.35327e+06 -381328 703379 -86753.3
84 3 O -0.440704 12.7674 53.9324 -1.2 -9.58534 -2.33307e+06 -2.2313e+06 -4.9467e+06 69564.7 -1.4097e+06 17289.7
85 1 Mg -3.00839 21.3773 57.3298 1.2 -7.21715 -830062 -1.58668e+06 3.92832e+06 -872194 -1.95799e+06 -933649
86 1 Mg -1.5831 21.1217 49.8405 1.2 -8.03659 78561.5 1.56625e+06 2.76996e+06 -185214 231848 758377
87 2 Si -1.09384 18.6291 47.9287 2.4 -33.7004 7.49864e+06 5.85811e+06 1.09333e+07 485808 2.32451e+06 -21961.7
88 3 O -1.02071 20.1985 47.9911 -1.2 -9.0726 -1.93966e+06 -3.67555e+06 -3.54716e+06 455173 -1.92656e+06 -290495
89 3 O -1.65002 17.5002 51.771 -1.2 -9.44268 -1.52601e+06 -2.60592e+06 -6.28514e+06 353744 -663915 -1.46435e+06
90 3 O -2.26174 18.0434 48.8281 -1.2 -9.13965 -561682 -2.98136e+06 -4.07774e+06 -22603.3 -405038 -1.44836e+06
91 1 Mg -0.0440435 16.5651 46.8269 1.2 -6.71866 1.562e+06 -741348 1.43931e+06 1.13273e+06 1.57659e+06 -701223
92 3 O 0.37001 17.9877 48.3925 -1.2 -9.02298 -1.13219e+06 -1.0991e+06 -2.7882e+06 -281735 -305907 590976
93 1 Mg 1.36776 16.6463 54.5508 1.2 -7.40071 877295 1.39621e+06 1.6671e+06 -272031 126359 938671
94 2 Si 1.32763 19.2628 56.4401 2.4 -31.2535 4.30588e+06 5.11704e+06 1.34054e+07 829944 -73879.8 1.02249e+06
95 3 O 1.44072 17.7136 56.4935 -1.2 -10.7369 -2.65081e+06 -1.46809e+06 -5.02512e+06 461172 -284116 -272461
96 3 O 1.45147 20.239 52.7294 -1.2 -9.87687 -2.29802e+06 -1.09403e+06 -4.85008e+06 466684 37048 -1.41826e+06
97 3 O 0.129901 19.9288 55.7399 -1.2 -9.98522 -1.8373e+06 -1.91976e+06 -4.85043e+06 -748017 -893666 -667544
98 3 O 2.62874 20.1021 55.7884 -1.2 -9.88477 -1.10465e+06 -1.92314e+06 -4.53082e+06 1.66518e+06 -71699.6 -793180
99 1 Mg -0.126194 18.8651 52.2079 1.2 -7.41146 -1.21456e+06 -1.31566e+06 4.69867e+06 -997342 1.75206e+06 1.09131e+06
100 1 Mg 1.92402 18.5815 49.4545 1.2 -7.48555 1.69761e+06 95453.7 655616 133074 -136937 483551
101 2 Si 1.38106 20.9117 51.2443 2.4 -32.0136 6.61794e+06 3.69154e+06 1.15857e+07 161929 254920 1.18698e+06
102 3 O 1.48527 22.4795 51.3054 -1.2 -10.3934 -2.08716e+06 -1.46342e+06 -4.31597e+06 749899 -14782.3 57194
103 3 O 1.31199 20.018 57.9575 -1.2 -9.51408 -1.82259e+06 -1.76694e+06 -4.40248e+06 126852 186813 2.10553e+06
104 3 O 0.0615419 20.2804 50.6669 -1.2 -9.34591 -2.64613e+06 -1.89367e+06 -5.49474e+06 1.0108e+06 -445503 -582015
105 1 Mg -3.09665 18.8643 52.3122 1.2 -7.09072 -992052 -1.60663e+06 3.99251e+06 1.36245e+06 -1.8271e+06 1.02886e+06
106 3 O 2.61548 20.2646 50.4626 -1.2 -9.7707 -2.44477e+06 -1.58004e+06 -3.10567e+06 -280802 572197 -622139
107 1 Mg -1.64859 18.9512 55.0738 1.2 -7.34949 1.38479e+06 1.73453e+06 2.24689e+06 -122975 -373231 -33122.9
108 2 Si -1.66004 16.7616 53.219 2.4 -31.7997 5.17077e+06 4.09796e+06 1.26265e+07 919199 44587.4 519675
109 3 O -1.65504 15.2411 53.1075 -1.2 -10.3959 -2.59593e+06 -3.15833e+06 -4.86517e+06 -45589.5 433897 328189
110 3 O -1.12868 18.1227 46.4249 -1.2 -8.01279 -2.43919e+06 -1.67023e+06 -3.41658e+06 -603733 -1.49684e+06 822886
111 3 O -2.86439 17.4819 53.9676 -1.2 -10.0911 -2.31481e+06 -1.44618e+06 -4.48992e+06 -1.26448e+06 801755 500099
112 3 O -0.357991 17.5525 53.86 -1.2 -9.66547 -669399 -1.57486e+06 -4.7584e+06 1.52836e+06 -610763 672600
113 1 Mg -2.89132 26.0553 57.4718 1.2 -7.146 -776040 -1.38243e+06 4.57491e+06 -581323 -1.79975e+06 -471891
114 1 Mg -1.48778 25.88 49.8402 1.2 -7.91832 -86220.6 1.47441e+06 2.80876e+06 -195634 288833 1.01518e+06
115 2 Si -1.00491 23.3922 47.9274 2.4 -33.4952 7.20052e+06 5.87329e+06 1.08926e+07 498106 2.34763e+06 92230.5
116 3 O -0.927602 24.9615 47.9909 -1.2 -9.16017 -1.81733e+06 -3.72777e+06 -3.55996e+06 459941 -1.93808e+06 -431622
117 3 O -1.55795 22.2588 51.7696 -1.2 -9.77114 -1.3965e+06 -2.09105e+06 -6.78298e+06 165077 -253996 -799792
118 3 O -2.17411 22.8111 48.8277 -1.2 -9.25511 -393177 -2.99901e+06 -4.09558e+06 2688.74 -368845 -1.4717e+06
119 1 Mg 0.0423997 21.3296 46.8225 1.2 -6.63129 1.44687e+06 -796354 1.48264e+06 1.12852e+06 1.58588e+06 -589286
120 3 O 0.458537 22.7495 48.3911 -1.2 -9.12664 -957621 -1.08185e+06 -2.83308e+06 -294928 -326543 542578
121 1 Mg 1.54728 21.3261 54.6047 1.2 -7.67589 1.69293e+06 329542 1.88837e+06 302106 102862 1.92171e+06
122 2 Si 1.4403 24.045 56.3522 2.4 -32.3409 5.07837e+06 4.90723e+06 1.27542e+07 445712 -40887.7 911116
123 3 O 1.41442 22.4407 56.5041 -1.2 -9.92293 -2.61004e+06 -1.43934e+06 -4.90591e+06 382853 149454 -481949
124 3 O 1.54441 24.9963 52.7297 -1.2 -10.0395 -1.64014e+06 -779429 -5.76129e+06 44080.7 -174145 -740189
125 3 O 0.19423 24.6902 55.6949 -1.2 -9.57983 -3.19405e+06 -1.92978e+06 -5.67093e+06 -673012 -567854 -96357.4
126 3 O 2.69065 24.6613 55.6623 -1.2 -9.56663 -2.92567e+06 -2.97734e+06 -4.20006e+06 1.10573e+06 915843 -705523
127 1 Mg -0.0335968 23.6229 52.2067 1.2 -7.1644 -1.69443e+06 -1.4556e+06 5.50002e+06 -1.40019e+06 1.81632e+06 1.41508e+06
128 1 Mg 2.01073 23.3445 49.4541 1.2 -7.35023 1.41494e+06 53521 767840 103233 -199209 470917
129 2 Si 1.47594 25.6699 51.2449 2.4 -31.6588 5.92981e+06 3.66757e+06 1.16471e+07 324612 119348 774118
130 3 O 1.58172 27.2371 51.3054 -1.2 -10.4805 -2.1173e+06 -1.4647e+06 -4.14278e+06 745606 -199355 -108231
131 3 O 1.47271 24.7166 57.8839 -1.2 -9.54523 -1.86924e+06 -1.70845e+06 -5.07675e+06 634428 64188.8 662974
132 3 O 0.157925 25.0378 50.6651 -1.2 -9.53722 -2.0462e+06 -1.87166e+06 -5.51584e+06 1.24858e+06 -712057 -685578
133 1 Mg -3.00341 23.6231 52.3098 1.2 -6.79822 -968309 -1.55084e+06 5.18006e+06 1.79839e+06 -1.55578e+06 1.33737e+06
134 3 O 2.71149 25.0232 50.4656 -1.2 -9.98859 -2.04831e+06 -1.64044e+06 -2.85765e+06 -416484 909034 -756959
135 1 Mg -1.50641 23.7838 55.0817 1.2 -7.91812 1.45391e+06 538098 1.40287e+06 -141039 -410385 -252248
136 2 Si -1.49993 21.6122 53.2252 2.4 -31.9351 4.65565e+06 4.58877e+06 1.29584e+07 811713 531258 2.76075e+06
137 3 O -1.61857 20.0028 53.0722 -1.2 -10.0968 -2.14798e+06 -794138 -4.91756e+06 587314 48535.6 -33737.8
138 3 O -1.03938 22.8897 46.4223 -1.2 -8.0951 -2.29714e+06 -1.6863e+06 -3.4119e+06 -607064 -1.5043e+06 725374
139 3 O -2.65168 22.3168 54.0076 -1.2 -9.81914 -2.68558e+06 -1.97004e+06 -4.98555e+06 -443841 1.15324e+06 -719928
140 3 O -0.174872 22.2815 53.8443 -1.2 -9.56845 -1.58292e+06 -1.57604e+06 -4.57272e+06 1.21865e+06 -20263.9 -435790
141 1 Mg -2.79083 30.8099 57.2012 1.2 -7.18788 -737578 -2.40057e+06 4.27544e+06 -1.26359e+06 -1.42163e+06 -639884
142 1 Mg -1.38776 30.6357 49.8391 1.2 -7.91834 -9999.02 1.3579e+06 2.85072e+06 -201709 270745 912452
143 2 Si -0.907929 28.1491 47.9262 2.4 -33.4452 7.11512e+06 5.64207e+06 1.11337e+07 492058 2.34226e+06 337921
144 3 O -0.829229 29.7184 47.99 -1.2 -9.1613 -1.82688e+06 -3.61349e+06 -3.68646e+06 459461 -1.93777e+06 -491265
145 3 O -1.45946 27.0152 51.769 -1.2 -9.79834 -998613 -1.71801e+06 -5.30338e+06 342896 26642.9 -1.22473e+06
146 3 O -2.07744 27.5697 48.8273 -1.2 -9.2883 -324849 -2.88941e+06 -4.23212e+06 18695.1 -384420 -1.63099e+06
147 1 Mg 0.137907 26.087 46.819 1.2 -6.57028 1.35089e+06 -822130 1.51406e+06 1.12471e+06 1.58879e+06 -433797
148 3 O 0.55579 27.5065 48.3893 -1.2 -9.16461 -894268 -989787 -2.92441e+06 -299115 -312332 400785
149 1 Mg 1.6498 26.1879 54.4715 1.2 -7.62607 432144 1.46454e+06 1.21715e+06 -564716 770641 929207
150 2 Si 1.68225 28.7378 56.3359 2.4 -32.1246 6.25876e+06 5.57709e+06 1.24203e+07 -708921 668316 681662
151 3 O 1.74152 27.158 56.4167 -1.2 -10.2166 -2.42258e+06 -1.20128e+06 -4.72396e+06 596002 517229 -206577
152 3 O 1.6432 29.7522 52.7291 -1.2 -9.8008 -2.20677e+06 -759355 -5.70663e+06 215092 316361 -851519
153 3 O 0.422337 29.3964 55.6167 -1.2 -9.21191 -785867 -2.14108e+06 -4.92822e+06 -1.16617e+06 -808973 -1.09648e+06
154 3 O 2.97597 29.4707 55.7154 -1.2 -9.69446 -3.29091e+06 -2.10882e+06 -5.7997e+06 1.64608e+06 977042 -1.20394e+06
155 1 Mg 0.0647462 28.3794 52.2059 1.2 -7.2293 -1.67152e+06 -1.65149e+06 5.63018e+06 -1.1807e+06 1.91329e+06 1.63294e+06
156 1 Mg 2.10696 28.1021 49.4531 1.2 -7.33004 1.41141e+06 -109458 911317 106175 -184865 612094
157 2 Si 1.57592 30.4257 51.2442 2.4 -31.8387 5.94886e+06 3.24729e+06 1.23889e+07 362245 78155.9 771314
158 3 O 1.68288 31.9926 51.3043 -1.2 -10.4063 -2.13562e+06 -1.3934e+06 -4.51808e+06 605073 -288450 154336
159 3 O 1.66955 29.5252 57.778 -1.2 -9.66781 -2.37915e+06 -1.30843e+06 -6.29843e+06 -270036 -93067.2 1.37316e+06
160 3 O 0.258524 29.7935 50.6632 -1.2 -9.50605 -2.14599e+06 -1.62977e+06 -5.81344e+06 1.11406e+06 -712931 -648272
161 1 Mg -2.90462 28.3797 52.308 1.2 -6.88835 -967296 -1.85245e+06 4.6802e+06 1.6716e+06 -1.77588e+06 1.58276e+06
162 3 O 2.81205 29.7787 50.4664 -1.2 -9.94591 -2.10522e+06 -1.4351e+06 -3.18994e+06 -304460 884564 -740622
163 1 Mg -1.42546 28.5022 55.0549 1.2 -7.87732 1.28172e+06 330062 567085 649473 143527 -827764
164 2 Si -1.43054 26.3917 53.2915 2.4 -31.6044 4.66722e+06 4.01773e+06 1.31507e+07 797313 728809 583791
165 3 O -1.41713 24.8497 53.276 -1.2 -10.2519 -2.25968e+06 -1.6418e+06 -5.2388e+06 403904 151270 1.03145e+06
166 3 O -0.943026 27.648 46.4208 -1.2 -8.13155 -2.23596e+06 -1.6266e+06 -3.48312e+06 -604726 -1.50742e+06 582899
167 3 O -2.65629 27.085 53.9639 -1.2 -10.1008 -2.92163e+06 -2.94618e+06 -5.58084e+06 -814238 1.35675e+06 -69602.1
168 3 O -0.105352 27.1478 53.924 -1.2 -9.66739 222540 -3.33867e+06 -3.95887e+06 813988 -249109 -297058
169 1 Mg -2.71938 35.6304 57.3685 1.2 -7.39674 -745505 -1.82596e+06 4.81843e+06 -1.46658e+06 -1.91584e+06 -331774
170 1 Mg -1.28421 35.3899 49.8376 1.2 -8.03704 126566 1.25714e+06 3.00337e+06 -182681 164124 1.03335e+06
171 2 Si -0.807101 32.9036 47.9247 2.4 -33.5083 7.24143e+06 5.47844e+06 1.12753e+07 477778 2.32691e+06 445085
172 3 O -0.727174 34.4729 47.9885 -1.2 -9.10535 -1.92568e+06 -3.51509e+06 -3.78442e+06 465736 -1.92071e+06 -562453
173 3 O -1.35735 31.7701 51.768 -1.2 -9.73441 -1.83115e+06 -2.2714e+06 -8.2565e+06 623106 -398860 -460177
174 3 O -1.97695 32.3253 48.826 -1.2 -9.26421 -363056 -2.83289e+06 -4.27847e+06 20919.6 -351601 -1.67488e+06
175 1 Mg 0.237665 30.8412 46.8168 1.2 -6.5745 1.36258e+06 -926325 1.61695e+06 1.12427e+06 1.59295e+06 -356123
176 3 O 0.656562 32.2608 48.3877 -1.2 -9.13921 -937884 -910940 -2.98827e+06 -294746 -331301 379224
177 1 Mg 1.72986 30.9798 54.5135 1.2 -7.74135 1.1253e+06 1.16431e+06 1.6858e+06 9984.9 31204.7 1.14456e+06
178 2 Si 1.85586 33.5124 56.3949 2.4 -32.5124 7.58681e+06 2.7323e+06 1.13341e+07 512656 169993 761906
179 3 O 1.58852 31.9841 56.429 -1.2 -9.89076 -2.53904e+06 -3.4934e+06 -4.5848e+06 1.54448e+06 -520842 199223
180 3 O 1.74574 34.5067 52.7279 -1.2 -9.86556 -2.34043e+06 -1.56806e+06 -5.85675e+06 133680 -430174 -1.14511e+06
181 3 O 0.501118 34.1138 55.7574 -1.2 -9.04184 -1.46662e+06 -3.13623e+06 -4.17571e+06 109638 -249092 184274
182 3 O 3.0288 34.2185 55.6819 -1.2 -9.61391 -3.80336e+06 -1.70702e+06 -5.06592e+06 238614 673474 -78915.2
183 1 Mg 0.167046 33.1343 52.2045 1.2 -7.10846 -1.37641e+06 -1.81828e+06 5.22488e+06 -1.26494e+06 1.85322e+06 1.02983e+06
184 1 Mg 2.20727 32.8578 49.4516 1.2 -7.37182 1.43507e+06 -149571 1.00649e+06 137990 -158120 604565
185 2 Si 1.67943 35.1802 51.2429 2.4 -32.03 6.51114e+06 3.26157e+06 1.21341e+07 297448 691804 1.01225e+06
186 3 O 1.78736 36.747 51.303 -1.2 -10.2058 -2.63381e+06 -1.16595e+06 -4.69449e+06 796944 -430682 212326
187 3 O 1.81662 34.2091 57.8745 -1.2 -9.62118 -3.18888e+06 -1.94863e+06 -6.70568e+06 -304648 -803141 991185
188 3 O 0.362533 34.5479 50.661 -1.2 -9.4671 -2.45792e+06 -1.68422e+06 -5.50699e+06 1.16116e+06 -736498 -666244
189 1 Mg -2.80215 33.1347 52.3062 1.2 -7.02375 -1.54311e+06 -2.03545e+06 4.66451e+06 1.79853e+06 -1.75546e+06 1.44252e+06
190 3 O 2.91593 34.533 50.466 -1.2 -9.83553 -2.11749e+06 -1.48581e+06 -3.36579e+06 -352354 782018 -817825
191 1 Mg -1.23005 33.1755 55.0352 1.2 -7.94058 1.99824e+06 757920 1.51401e+06 -328203 484990 -342100
192 2 Si -1.32824 31.1371 53.1962 2.4 -32.0576 4.84334e+06 3.1924e+06 1.17664e+07 -1.07942e+06 -82415.3 647318
193 3 O -1.37384 29.5831 53.1897 -1.2 -10.0479 -2.85481e+06 -1.4987e+06 -5.41248e+06 137414 -189649 562514
194 3 O -0.842495 32.4028 46.4192 -1.2 -8.11282 -2.26792e+06 -1.52883e+06 -3.57872e+06 -604085 -1.50655e+06 509468
195 3 O -2.59505 31.8841 53.9169 -1.2 -9.83676 -1.95998e+06 -2.71045e+06 -4.83013e+06 -1.03078e+06 581548 237669
196 3 O -0.0565536 31.7826 53.8316 -1.2 -9.65977 -2.10854e+06 -3.29767e+06 -5.84911e+06 567139 -1.3882e+06 -323479
197 1 Mg -2.42957 40.2391 57.3053 1.2 -7.33903 -1.27732e+06 -1.13781e+06 5.10119e+06 -732383 -1.79311e+06 -235606
198 1 Mg -1.17787 40.1435 49.8359 1.2 -8.1365 255449 1.19087e+06 3.09392e+06 -159419 249762 959266
199 2 Si -0.702692 37.6572 47.9231 2.4 -33.6718 7.49394e+06 5.18181e+06 1.15783e+07 492290 2.31398e+06 403398
200 3 O -0.621782 39.2264 47.9868 -1.2 -9.03134 -2.03375e+06 -3.40814e+06 -3.91544e+06 460343 -1.92509e+06 -505656
201 3 O -1.25221 36.5242 51.7666 -1.2 -9.36171 -2.19897e+06 -1.06515e+06 -7.25786e+06 175301 371412 -790446
202 3 O -1.87295 37.0796 48.8243 -1.2 -9.1561 -504590 -2.67852e+06 -4.47392e+06 9926.3 -349880 -1.65662e+06
203 1 Mg 0.341084 35.5943 46.8152 1.2 -6.62732 1.45447e+06 -1.06469e+06 1.74999e+06 1.12225e+06 1.59093e+06 -307014
204 3 O 0.760681 37.0138 48.3864 -1.2 -9.04903 -1.09821e+06 -754326 -3.12937e+06 -289299 -324563 368929
205 1 Mg 1.78086 35.5495 54.4963 1.2 -7.7357 2.07887e+06 640277 1.73738e+06 266527 -375354 628427
206 2 Si 1.85829 38.2485 56.3441 2.4 -32.0677 5.14368e+06 3.10894e+06 1.20067e+07 -345998 348669 1.05414e+06
207 3 O 1.7496 36.7502 56.5312 -1.2 -10.0872 -2.995e+06 -2.92798e+06 -4.71794e+06 -718970 266517 -878047
208 3 O 1.85132 39.2606 52.7264 -1.2 -9.69064 -1.97814e+06 -1.04964e+06 -4.97442e+06 -99350.3 -831972 -970684
209 3 O 0.569313 39.0628 55.7202 -1.2 -9.99006 -1.50622e+06 -1.59384e+06 -4.87466e+06 -1.28663e+06 -494984 -258305
210 3 O 3.12729 38.8485 55.7096 -1.2 -9.61763 -1.77874e+06 -3.13063e+06 -6.50481e+06 977511 1.78554e+06 217774
211 1 Mg 0.272384 37.8883 52.2029 1.2 -7.32227 -774020 -1.55523e+06 4.90992e+06 -1.1595e+06 1.80407e+06 959429
212 1 Mg 2.31122 37.6122 49.4501 1.2 -7.49007 1.64521e+06 -293702 1.13864e+06 101057 -137173 551393
213 2 Si 1.78573 39.934 51.2414 2.4 -32.2735 6.81508e+06 3.1042e+06 1.23019e+07 193859 597962 952977
214 3 O 1.89428 41.5006 51.3014 -1.2 -10.197 -2.4691e+06 -1.2407e+06 -4.53951e+06 825498 -349380 179386
215 3 O 1.91223 38.9699 57.8208 -1.2 -9.46292 -2.12432e+06 -3.13853e+06 -6.04316e+06 800433 218594 563113
216 3 O 0.469216 39.3015 50.6588 -1.2 -9.30033 -2.62847e+06 -1.65402e+06 -5.61198e+06 1.22598e+06 -710835 -709152
217 1 Mg -2.69668 37.8889 52.3043 1.2 -7.22428 -1.03583e+06 -1.30243e+06 4.88945e+06 1.57765e+06 -1.65889e+06 1.04864e+06
218 3 O 3.0225 39.2866 50.4651 -1.2 -9.72723 -2.37657e+06 -1.42546e+06 -3.29498e+06 -339916 861313 -745361
219 1 Mg -1.1072 38.0434 55.0467 1.2 -7.67643 1.2185e+06 1.14208e+06 1.85786e+06 20841.7 -33973.9 -544979
220 2 Si -1.19901 35.8144 53.2345 2.4 -32.4149 5.4853e+06 1.75643e+06 1.36752e+07 291847 -26176.2 -280274
221 3 O -1.29297 34.3001 53.1701 -1.2 -10.1656 -2.57741e+06 -3.28251e+06 -5.59296e+06 522985 723342 460123
222 3 O -0.738054 37.1566 46.4176 -1.2 -8.05742 -2.35549e+06 -1.38506e+06 -3.72792e+06 -606142 -1.50373e+06 501250
223 3 O -2.45783 36.5146 53.8856 -1.2 -9.42797 -1.60535e+06 -2.35732e+06 -6.30157e+06 -296801 859442 -65260.3
224 3 O 0.0973076 36.536 53.8281 -1.2 -9.75433 -2.11115e+06 -768451 -5.07272e+06 853468 -598211 574680
225 1 Mg -2.39317 45.0523 57.3117 1.2 -7.47416 -303204 -1.32381e+06 3.95927e+06 -1.55608e+06 -1.62005e+06 -1.7443e+06
226 1 Mg -1.06993 44.8968 49.8343 1.2 -8.08659 214341 1.27949e+06 2.97013e+06 -200757 256900 1.00018e+06
227 2 Si -0.596166 42.4103 47.9215 2.4 -33.7221 7.5564e+06 5.16319e+06 1.16209e+07 489484 2.33187e+06 283597
228 3 O -0.51472 43.9796 47.9853 -1.2 -9.02694 -2.04016e+06 -3.42501e+06 -3.89475e+06 463111 -1.9311e+06 -494692
229 3 O -1.14475 41.2777 51.7649 -1.2 -9.46287 -1.53832e+06 -1.69152e+06 -5.14047e+06 165547 -353747 -1.0539e+06
230 3 O -1.76671 41.8331 48.8226 -1.2 -9.12227 -574096 -2.67458e+06 -4.46811e+06 15808.9 -380925 -1.58178e+06
231 1 Mg 0.447076 40.3473 46.8135 1.2 -6.67329 1.52386e+06 -1.15521e+06 1.84453e+06 1.12332e+06 1.58853e+06 -368592
232 3 O 0.866985 41.7666 48.385 -1.2 -9.01174 -1.13918e+06 -734631 -3.16963e+06 -291750 -308241 445621
233 1 Mg 1.66236 40.3619 54.6736 1.2 -7.67584 1.37448e+06 -50064.2 1.91063e+06 -98933.2 -411387 2.09507e+06
234 2 Si 2.116 42.9928 56.4273 2.4 -32.64 6.13054e+06 2.81903e+06 1.32561e+07 -419989 281464 168899
235 3 O 1.98863 41.4867 56.4763 -1.2 -9.89378 -2.42726e+06 -2.84572e+06 -5.88879e+06 510923 573041 -396163
236 3 O 1.95891 44.014 52.7248 -1.2 -9.87511 -1.77511e+06 -1.26111e+06 -5.44302e+06 -158605 -216178 -1.08548e+06
237 3 O 0.84098 43.7184 55.7748 -1.2 -9.45195 -1.76572e+06 -3.35424e+06 -4.1145e+06 -907358 -183626 -294838
238 3 O 3.34982 43.7369 55.7925 -1.2 -9.64726 -2.98523e+06 -2.95864e+06 -4.69135e+06 1.27365e+06 232868 -436226
239 1 Mg 0.379928 42.6418 52.2013 1.2 -7.36244 -1.31794e+06 -1.68186e+06 5.03335e+06 -1.05249e+06 2.14049e+06 1.0799e+06
240 1 Mg 2.41752 42.366 49.4484 1.2 -7.50289 1.70712e+06 -274478 1.08398e+06 107828 -177977 510544
241 2 Si 1.89374 44.6874 51.2398 2.4 -32.0708 6.42911e+06 3.42606e+06 1.20589e+07 476164 405995 1.1548e+06
242 3 O 2.00266 46.254 51.2996 -1.2 -10.2465 -2.29381e+06 -1.28256e+06 -4.6102e+06 722311 -622049 -189557
243 3 O 2.09891 43.6441 57.9709 -1.2 -9.27121 -2.56134e+06 -2.18157e+06 -4.00941e+06 126782 -405946 1.54726e+06
244 3 O 0.577464 44.0549 50.6567 -1.2 -9.33281 -2.5289e+06 -1.70568e+06 -5.76918e+06 1.135e+06 -607474 -637097
245 1 Mg -2.58906 42.6425 52.3022 1.2 -7.03685 -880864 -1.62806e+06 4.95069e+06 1.76071e+06 -2.02432e+06 999382
246 3 O 3.13067 44.0398 50.464 -1.2 -9.78314 -2.37128e+06 -1.50411e+06 -3.18889e+06 -305891 858635 -793611
247 1 Mg -0.961449 42.927 54.9516 1.2 -7.67561 2.12024e+06 202438 1.68914e+06 410938 51913.5 50943.5
248 2 Si -1.16134 40.6237 53.2922 2.4 -32.1212 6.55756e+06 1.57713e+06 1.40901e+07 1.09977e+06 -952266 1.15723e+06
249 3 O -1.15374 39.1148 53.2175 -1.2 -10.2041 -2.58137e+06 -2.60645e+06 -5.20893e+06 459834 912717 659852
250 3 O -0.631421 41.9099 46.4159 -1.2 -8.02873 -2.39977e+06 -1.33388e+06 -3.78015e+06 -605459 -1.50619e+06 557217
251 3 O -2.41143 41.2909 53.99 -1.2 -9.53026 -954168 -1.34048e+06 -4.59428e+06 -261845 288008 -802057
252 3 O 0.150686 41.4038 53.9072 -1.2 -9.7115 -1.71999e+06 -1.3191e+06 -5.28893e+06 1.09641e+06 -564265 92832
253 1 Mg -2.37196 49.7607 57.5091 1.2 -7.47291 -1.17469e+06 -1.95245e+06 5.03243e+06 -722914 -2.16706e+06 -106878
254 1 Mg -0.961069 49.6502 49.8327 1.2 -8.1738 390064 927262 3.28032e+06 -192214 209447 1.03664e+06
255 2 Si -0.488083 47.1636 47.9198 2.4 -33.747 7.6307e+06 4.96913e+06 1.17792e+07 485045 2.32833e+06 496518
256 3 O -0.40607 48.7329 47.9837 -1.2 -8.99208 -2.10925e+06 -3.22296e+06 -4.08174e+06 466712 -1.92884e+06 -557963
257 3 O -1.0361 46.031 51.7632 -1.2 -9.62866 -1.67728e+06 -1.86238e+06 -6.77006e+06 538618 551258 -1.06769e+06
258 3 O -1.65866 46.5866 48.821 -1.2 -9.12496 -580069 -2.61804e+06 -4.50857e+06 24301.3 -351810 -1.74543e+06
259 1 Mg 0.554124 45.1001 46.8117 1.2 -6.6823 1.53928e+06 -1.17405e+06 1.86324e+06 1.1242e+06 1.59078e+06 -343879
260 3 O 0.974961 46.5195 48.3832 -1.2 -9.00832 -1.14377e+06 -683984 -3.21544e+06 -295377 -325896 320792
261 1 Mg 1.91151 45.1068 54.5454 1.2 -7.87565 1.19843e+06 1.22688e+06 2.14331e+06 275041 -415537 1.11525e+06
262 2 Si 2.07324 47.7812 56.373 2.4 -32.9055 6.22182e+06 4.86608e+06 1.34845e+07 46777.9 -19718.5 182383
263 3 O 2.04319 46.1926 56.4655 -1.2 -9.62359 -3.2118e+06 -514428 -4.62852e+06 131176 14858.2 -832183
264 3 O 2.0677 48.7672 52.7232 -1.2 -9.38087 -2.6658e+06 -861836 -5.94232e+06 -524501 -461918 -1.09407e+06
265 3 O 0.853447 48.4951 55.6207 -1.2 -9.17194 -2.73389e+06 -1.73349e+06 -4.71169e+06 -843652 -472982 16882.4
266 3 O 3.32378 48.442 55.7636 -1.2 -9.27974 -4.12758e+06 -2.58366e+06 -4.48834e+06 510370 582574 322640
267 1 Mg 0.488584 47.395 52.1996 1.2 -7.35902 -972718 -1.89758e+06 5.94956e+06 -1.12276e+06 1.82039e+06 1.41892e+06
268 1 Mg 2.52544 47.1195 49.4466 1.2 -7.51832 1.66899e+06 -385556 1.26242e+06 113408 -167626 721433
269 2 Si 2.00256 49.4407 51.2382 2.4 -32.4899 6.89723e+06 2.3791e+06 1.3316e+07 473466 682921 895553
270 3 O 2.11156 51.0073 51.2982 -1.2 -10.0557 -2.70433e+06 -952468 -4.86739e+06 794882 -741342 387186
271 3 O 1.9647 48.4073 57.9337 -1.2 -9.25308 -1.78304e+06 -2.42821e+06 -4.19717e+06 -173347 477174 1.10474e+06
272 3 O 0.686344 48.8082 50.655 -1.2 -9.27216 -2.627e+06 -1.27664e+06 -5.96363e+06 1.18695e+06 -838318 -737606
273 1 Mg -2.48039 47.3957 52.3005 1.2 -7.23013 -887898 -2.13701e+06 4.99654e+06 1.85727e+06 -1.79316e+06 1.82209e+06