ITEM: TIMESTEP
30100
ITEM: NUMBER OF ATOMS
10500
ITEM: BOX BOUNDS xy xz yz pp pp pp
0.0000000000000000e+00 8.9687999999999999e+00 2.9895999999999998e+00
0.0000000000000000e+00 1.1872499999999999e+02 0.0000000000000000e+00
0.0000000000000000e+00 2.5297749999999999e+02 0.0000000000000000e+00
ITEM: ATOMS id type element xu yu zu q c_pe c_s[1] c_s[2] c_s[3] c_s[4] c_s[5] c_s[6]
1 1 Mg -3.36219 7.0869 57.4429 1.2 -7.40856 319125 -2.22463e+06 4.47154e+06 -1.35462e+06 -1.79419e+06 -1.00377e+06
2 1 Mg -1.82655 6.90154 50.0912 1.2 -8.31557 346633 1.14018e+06 1.04045e+06 -62630.8 -130324 1.41581e+06
3 2 Si -0.257935 3.96038 48.0876 2.4 -36.3464 1.05417e+07 9.24645e+06 1.02986e+07 811615 1.9697e+06 1.49339e+06
4 3 O -0.335812 5.46814 47.6264 -1.2 -7.65683 -3.29612e+06 -2.65034e+06 -2.34398e+06 139605 -974602 -498821
5 3 O -2.03793 3.43377 51.8941 -1.2 -8.71771 -2.12152e+06 -1.67135e+06 -5.98306e+06 -1.51448e+06 1.83125e+06 -2.36908e+06
6 3 O -1.54015 3.53929 48.9521 -1.2 -8.15718 -1.53685e+06 -1.9001e+06 -4.06391e+06 9683.74 -665814 -107335
7 1 Mg 1.82954 2.54582 47.1376 1.2 -8.16377 2.87543e+06 -289394 544663 1.14961e+06 842067 344252
8 3 O 1.22989 3.66364 48.7877 -1.2 -7.87386 -1.89233e+06 -2.65329e+06 -3.41169e+06 -464002 -770885 -852681
9 1 Mg 1.09155 2.33595 54.566 1.2 -8.09339 3.10849e+06 1.54715e+06 1.61258e+06 -413615 -325586 443204
10 2 Si 1.15581 5.07393 56.5957 2.4 -32.4859 8.09339e+06 4.73843e+06 1.10556e+07 -426538 -660921 -1.38994e+06
11 3 O 1.04986 3.51116 56.7029 -1.2 -9.72756 -4.08142e+06 -1.7793e+06 -4.88838e+06 1.10078e+06 315260 -341815
12 3 O 1.10813 6.07342 52.8172 -1.2 -8.74956 -3.17075e+06 -3.5734e+06 -3.9449e+06 713578 22719.9 -1.5984e+06
13 3 O -0.131252 5.83752 55.9482 -1.2 -9.015 -1.60974e+06 -2.8997e+06 -4.51999e+06 -881769 -41316.2 140177
14 3 O 2.40847 5.77411 55.8498 -1.2 -9.49643 -3.13253e+06 -2.12832e+06 -3.9549e+06 1.80324e+06 98291.3 -115626
15 1 Mg -0.459401 4.67631 52.2426 1.2 -7.99068 -13480.8 -1.5568e+06 5.32961e+06 -862655 1.07793e+06 1.20519e+06
16 1 Mg 2.79456 3.9971 49.9987 1.2 -8.51789 3.66276e+06 166360 1.57132e+06 -548260 872200 -1.0106e+06
17 2 Si 1.16169 6.59457 51.2556 2.4 -33.9517 7.2436e+06 6.23639e+06 1.22912e+07 -127677 174997 3.07827e+06
18 3 O 1.28989 8.18905 51.2909 -1.2 -9.28976 -3.07919e+06 -1.50696e+06 -4.2858e+06 223767 -733497 983633
19 3 O 1.20661 5.6825 58.065 -1.2 -9.62381 -3.05787e+06 -2.49045e+06 -5.95052e+06 -555852 -642384 713541
20 3 O -0.184847 6.06029 50.6845 -1.2 -8.61704 -3.01921e+06 -3.21446e+06 -5.07987e+06 1.41985e+06 -539162 -1.60899e+06
21 1 Mg -3.49704 4.67769 52.6661 1.2 -7.83037 -58728.1 -1.40009e+06 3.09478e+06 1.2611e+06 -861987 577345
22 3 O 2.48581 5.93312 50.6539 -1.2 -9.18249 -3.2172e+06 -1.6671e+06 -2.98002e+06 -1.46488e+06 -397679 -817141
23 1 Mg -1.81442 4.82005 55.3184 1.2 -8.47948 1.58599e+06 1.93825e+06 758304 403847 96526.6 147519
24 2 Si -1.82942 2.62827 53.3404 2.4 -33.6728 5.39301e+06 5.65046e+06 1.37983e+07 360481 513199 -679181
25 3 O -1.96758 1.04026 53.2258 -1.2 -9.45619 -3.32172e+06 -1.42328e+06 -4.29764e+06 1.60277e+06 122509 349634
26 3 O -0.0467762 2.97103 46.8385 -1.2 -6.84606 -3.23751e+06 -2.36013e+06 -2.65882e+06 -989756 -2.00633e+06 -462547
27 3 O -3.08326 3.22021 54.134 -1.2 -8.59484 -4.28981e+06 -2.66095e+06 -5.11339e+06 -1.14886e+06 172574 952675
28 3 O -0.709822 3.34678 54.0882 -1.2 -8.99095 -6.04135e+06 -2.12266e+06 -3.45272e+06 172249 -417860 1.35248e+06
29 1 Mg -3.19488 11.8009 57.5027 1.2 -7.65561 -603785 -856677 4.10359e+06 -1.00298e+06 -2.17222e+06 -797902
30 1 Mg -1.75014 11.5838 49.8362 1.2 -8.48706 1.02085e+06 2.23156e+06 2.05063e+06 -311287 376698 603624
31 2 Si -1.18003 9.02138 47.9309 2.4 -34.6784 8.848e+06 7.47791e+06 9.44277e+06 236154 2.65292e+06 124266
32 3 O -1.23224 10.5991 47.9811 -1.2 -8.59909 -2.69501e+06 -3.77034e+06 -2.59256e+06 652243 -1.9443e+06 178226
33 3 O -1.79016 8.01447 51.8693 -1.2 -8.99236 -3.86741e+06 -1.93272e+06 -4.51991e+06 449597 -504996 -1.85995e+06
34 3 O -2.30986 8.37215 48.8528 -1.2 -8.83841 -1.286e+06 -2.64931e+06 -3.19938e+06 -336187 -621317 -755932
35 1 Mg 0.154883 7.08234 46.8007 1.2 -7.66568 2.11499e+06 21372.6 628277 943164 1.72797e+06 -1.05667e+06
36 3 O 0.325447 8.50934 48.3809 -1.2 -8.47992 -1.61389e+06 -2.1096e+06 -2.62812e+06 -33171.3 -830707 459800
37 1 Mg 1.1715 7.15396 54.7936 1.2 -8.56191 2.34231e+06 268161 1.7616e+06 -79336.3 -253616 976152
38 2 Si 1.26981 9.7983 56.578 2.4 -33.1692 7.63594e+06 2.9923e+06 1.03451e+07 943956 613274 -1.27624e+06
39 3 O 1.16915 8.26082 56.6555 -1.2 -9.49721 -4.18427e+06 -3.12753e+06 -4.90312e+06 67996.9 -531175 -1.2343e+06
40 3 O 1.28624 10.7248 52.7351 -1.2 -9.18107 -2.97112e+06 -2.51608e+06 -3.99831e+06 642067 -205585 -649680
41 3 O -0.000337934 10.4941 55.8346 -1.2 -9.04422 -1.40763e+06 -2.65783e+06 -3.38825e+06 -221583 102124 17082
42 3 O 2.55349 10.4302 55.9405 -1.2 -9.23908 -3.91344e+06 -3.15444e+06 -4.12486e+06 387153 582332 -262941
43 1 Mg -0.262694 9.34741 52.2523 1.2 -8.07789 -150283 -255957 4.74433e+06 -1.55484e+06 1.63824e+06 728188
44 1 Mg 1.87648 9.01537 49.4629 1.2 -8.01247 2.21046e+06 590499 253647 244173 -331773 154677
45 2 Si 1.21415 11.3799 51.2378 2.4 -33.1805 7.71572e+06 5.66626e+06 1.07243e+07 175212 35694.9 449299
46 3 O 1.31634 12.9512 51.3023 -1.2 -9.74481 -3.04925e+06 -1.98362e+06 -3.87792e+06 511694 11369.8 695583
47 3 O 1.23915 10.3547 58.0351 -1.2 -9.43926 -3.17678e+06 -3.29272e+06 -7.72088e+06 -259027 238983 132904
48 3 O -0.115718 10.7564 50.681 -1.2 -8.80913 -2.97938e+06 -2.64754e+06 -4.82881e+06 1.1445e+06 -581635 -428783
49 1 Mg -3.26386 9.35564 52.3622 1.2 -7.78553 442617 -1.51331e+06 3.24628e+06 2.10852e+06 -1.8738e+06 1.24326e+06
50 3 O 2.45216 10.7265 50.4558 -1.2 -9.35895 -2.99774e+06 -2.02999e+06 -2.05573e+06 -730707 676590 184929
51 1 Mg -1.77399 9.51943 55.1913 1.2 -8.2359 2.9176e+06 1.66063e+06 2.05243e+06 -218432 237504 -916372
52 2 Si -1.87255 7.33483 53.3863 2.4 -33.1487 1.16157e+07 4.68307e+06 1.0794e+07 84138.1 -234070 -100393
53 3 O -1.91868 5.78449 53.3877 -1.2 -9.49862 -3.83575e+06 -2.54542e+06 -4.02686e+06 -227880 -220088 276025
54 3 O -1.19417 8.46968 46.4488 -1.2 -7.49063 -2.96463e+06 -2.18646e+06 -2.80206e+06 -542501 -1.74764e+06 910688
55 3 O -3.22578 8.0966 53.9557 -1.2 -9.13999 -1.62041e+06 -2.00367e+06 -3.58951e+06 -1.42958e+06 -130823 391621
56 3 O -0.516031 8.00764 54.0045 -1.2 -8.73965 -232229 -2.59061e+06 -4.62252e+06 1.50613e+06 -366700 185897
57 1 Mg -3.05389 16.5597 57.1584 1.2 -7.32254 -257334 -396565 4.29173e+06 -1.14909e+06 -1.24881e+06 -1.01577e+06
58 1 Mg -1.6714 16.3544 49.8412 1.2 -8.49723 941162 2.22095e+06 2.03448e+06 -242798 214441 543896
59 2 Si -1.18567 13.8526 47.9314 2.4 -34.517 8.87069e+06 6.69965e+06 9.96715e+06 487309 2.29199e+06 -448257
60 3 O -1.09664 15.4205 47.9915 -1.2 -8.64389 -2.58916e+06 -4.10236e+06 -2.97386e+06 430399 -1.94113e+06 -111460
61 3 O -1.73493 12.7491 51.7772 -1.2 -9.20024 -2.99981e+06 -3.36327e+06 -7.21074e+06 445268 -817535 -173474
62 3 O -2.36115 13.2717 48.8238 -1.2 -8.73162 -1.3155e+06 -3.33058e+06 -3.53439e+06 -104600 -376831 -1.19855e+06
63 1 Mg -0.159928 11.7639 46.8533 1.2 -7.11208 2.25001e+06 -349400 1.00555e+06 1.12735e+06 1.57774e+06 -965623
64 3 O 0.2623 13.1866 48.413 -1.2 -8.61954 -1.75377e+06 -1.3863e+06 -2.41978e+06 -197630 -295032 871112
65 1 Mg 1.27504 11.8638 54.5901 1.2 -8.27283 2.57343e+06 1.85153e+06 1.54933e+06 419212 203488 932829
66 2 Si 1.3268 14.5175 56.3726 2.4 -32.9764 8.0207e+06 4.05187e+06 1.01664e+07 -549830 1.03566e+06 -523317
67 3 O 1.45132 12.9596 56.5253 -1.2 -9.39587 -4.00342e+06 -2.17249e+06 -3.8881e+06 59768.5 54277.6 -1.64029e+06
68 3 O 1.36565 15.4813 52.729 -1.2 -9.23416 -3.23098e+06 -2.7977e+06 -4.7536e+06 -316540 -369103 -954723
69 3 O 0.0107625 15.092 55.5962 -1.2 -9.27419 -1.0231e+06 -2.44882e+06 -3.40408e+06 -1.01106e+06 430959 111035
70 3 O 2.59362 15.1897 55.7344 -1.2 -9.37182 -1.9575e+06 -3.86149e+06 -5.35285e+06 163426 1.14491e+06 461709
71 1 Mg -0.206989 14.1049 52.2121 1.2 -7.90276 -896350 -1.19197e+06 4.10723e+06 -1.27396e+06 2.10196e+06 729021
72 1 Mg 1.82591 13.8102 49.4556 1.2 -7.92104 2.35459e+06 665539 220637 162881 -185124 239291
73 2 Si 1.29285 16.1518 51.2434 2.4 -33.0832 7.82214e+06 5.28153e+06 1.05855e+07 522415 491640 346031
74 3 O 1.39496 17.7199 51.3047 -1.2 -9.76328 -3.00451e+06 -2.14201e+06 -3.95377e+06 595042 -576998 581333
75 3 O 1.33125 15.134 57.8095 -1.2 -9.43235 -2.71708e+06 -3.35186e+06 -5.75041e+06 967441 742658 -868418
76 3 O -0.0269106 15.5178 50.6688 -1.2 -8.87599 -3.32839e+06 -2.47134e+06 -5.05567e+06 984546 -512716 -90871.7
77 1 Mg -3.18391 14.1057 52.3125 1.2 -7.52419 -175713 -1.22785e+06 3.89222e+06 1.80731e+06 -1.89038e+06 723917
78 3 O 2.52432 15.503 50.4579 -1.2 -9.33126 -3.02941e+06 -2.2144e+06 -2.35052e+06 -312468 784489 -248541
79 1 Mg -1.68002 14.0938 55.0624 1.2 -8.27 2.47069e+06 1.17261e+06 1.2583e+06 -254290 -537133 -1.64334e+06
80 2 Si -1.715 12.1015 53.1801 2.4 -33.0022 7.97643e+06 4.88579e+06 1.01589e+07 189070 -419760 417197
81 3 O -1.72069 10.5396 53.2057 -1.2 -9.55933 -3.38149e+06 -1.81207e+06 -3.66696e+06 60189 158218 -11654.2
82 3 O -1.21337 13.3381 46.4311 -1.2 -7.60227 -3.14951e+06 -2.04251e+06 -2.99768e+06 -630284 -1.45829e+06 1.00744e+06
83 3 O -2.93582 12.8028 53.9807 -1.2 -9.36492 -2.13731e+06 -2.38023e+06 -3.88062e+06 -587513 426435 312272
84 3 O -0.359066 12.781 53.7978 -1.2 -9.00061 -1.58786e+06 -3.70958e+06 -4.47691e+06 1.10786e+06 -402191 299436
85 1 Mg -2.88475 21.2378 57.2006 1.2 -7.75751 -475988 -998431 4.54233e+06 -820551 -1.19625e+06 -201979
86 1 Mg -1.5831 21.1217 49.8405 1.2 -8.57452 966422 2.13131e+06 2.17569e+06 -189713 137125 819987
87 2 Si -1.09384 18.6291 47.9287 2.4 -34.5772 8.9665e+06 6.82699e+06 9.90045e+06 479717 2.31052e+06 -92982.2
88 3 O -1.02071 20.1985 47.9911 -1.2 -8.58345 -2.74902e+06 -4.166e+06 -3.0312e+06 460871 -1.91602e+06 -329820
89 3 O -1.65002 17.5002 51.771 -1.2 -9.23132 -2.89431e+06 -3.12663e+06 -5.53514e+06 594993 49705.9 -276986
90 3 O -2.26174 18.0434 48.8281 -1.2 -8.71478 -1.25169e+06 -3.46636e+06 -3.57819e+06 -15436.3 -337858 -1.32532e+06
91 1 Mg -0.0440435 16.5651 46.8269 1.2 -7.10645 2.18626e+06 -304815 999849 1.13415e+06 1.5825e+06 -696491
92 3 O 0.37001 17.9877 48.3925 -1.2 -8.59821 -1.82382e+06 -1.57191e+06 -2.30136e+06 -285988 -348430 679394
93 1 Mg 1.25888 16.5247 54.5427 1.2 -8.14523 1.41827e+06 1.31097e+06 217760 683407 -783800 1.05909e+06
94 2 Si 1.4756 19.2317 56.232 2.4 -32.7393 8.19892e+06 5.31724e+06 1.14115e+07 992755 -546130 -690329
95 3 O 1.32382 17.6663 56.3955 -1.2 -9.87701 -2.97741e+06 -1.68093e+06 -4.92452e+06 794062 564217 -1.41032e+06
96 3 O 1.45147 20.239 52.7294 -1.2 -9.31063 -3.2509e+06 -2.31475e+06 -5.49192e+06 607016 -265978 -1.24045e+06
97 3 O 0.190864 19.9146 55.5691 -1.2 -9.33669 -2.00375e+06 -3.09955e+06 -3.66789e+06 -631467 162050 786379
98 3 O 2.77621 19.9415 55.5814 -1.2 -9.18349 -1.02498e+06 -2.31993e+06 -5.09416e+06 1.2204e+06 404404 -317168
99 1 Mg -0.126194 18.8651 52.2079 1.2 -7.59677 17344.7 -659435 4.04359e+06 -1.46456e+06 2.04342e+06 912755
100 1 Mg 1.92402 18.5815 49.4545 1.2 -7.9381 2.28919e+06 635221 249733 140884 -113060 307364
101 2 Si 1.38106 20.9117 51.2443 2.4 -33.0429 8.17333e+06 5.07981e+06 1.03248e+07 181170 723047 603023
102 3 O 1.48527 22.4795 51.3054 -1.2 -9.74979 -3.25576e+06 -2.04879e+06 -3.68549e+06 648917 -554978 191269
103 3 O 1.56406 19.8187 57.744 -1.2 -9.42656 -2.58527e+06 -3.23628e+06 -4.40149e+06 -685618 804253 668378
104 3 O 0.0615419 20.2804 50.6669 -1.2 -8.92621 -3.44923e+06 -2.47189e+06 -4.54124e+06 1.17079e+06 -689846 -499550
105 1 Mg -3.09665 18.8643 52.3122 1.2 -7.67495 -1.0908e+06 -782608 3.89886e+06 1.73025e+06 -2.11885e+06 799184
106 3 O 2.61548 20.2646 50.4626 -1.2 -9.26819 -2.99039e+06 -2.2821e+06 -2.60889e+06 -379853 631661 -471022
107 1 Mg -1.42873 18.9193 54.9673 1.2 -7.96385 2.05262e+06 1.29785e+06 1.34488e+06 -461026 -71314.5 -1.03095e+06
108 2 Si -1.624 16.8003 53.1961 2.4 -32.6127 8.94975e+06 5.09948e+06 1.07675e+07 -800559 -713686 -110749
109 3 O -1.62759 15.2458 53.0833 -1.2 -9.64681 -3.72152e+06 -2.21268e+06 -5.43755e+06 608333 243662 775814
110 3 O -1.12868 18.1227 46.4249 -1.2 -7.59033 -3.12294e+06 -2.10575e+06 -2.97401e+06 -602727 -1.49513e+06 791845
111 3 O -2.97021 17.4773 53.9039 -1.2 -9.21187 202720 -2.949e+06 -3.7237e+06 -1.01246e+06 -250515 435134
112 3 O -0.298352 17.4819 53.8511 -1.2 -9.59497 -1.86146e+06 -2.92746e+06 -4.38208e+06 1.37814e+06 -809693 243566
113 1 Mg -2.88897 26.0108 57.5441 1.2 -7.75982 155854 -1.52919e+06 4.27065e+06 -1.70916e+06 -1.40518e+06 -1.27626e+06
114 1 Mg -1.48778 25.88 49.8402 1.2 -8.7413 1.15926e+06 1.86331e+06 2.50074e+06 -200371 92754 923603
115 2 Si -1.00491 23.3922 47.9274 2.4 -34.7398 9.20706e+06 6.53842e+06 1.02162e+07 485317 2.28432e+06 292831
116 3 O -0.927602 24.9615 47.9909 -1.2 -8.48272 -2.91288e+06 -3.99558e+06 -3.27701e+06 462044 -1.90025e+06 -477952
117 3 O -1.55795 22.2588 51.7696 -1.2 -9.13392 -2.34564e+06 -2.97389e+06 -4.62353e+06 456243 371602 -854783
118 3 O -2.17411 22.8111 48.8277 -1.2 -8.62124 -1.34852e+06 -3.41869e+06 -3.72939e+06 1040.46 -341484 -1.57791e+06
119 1 Mg 0.0423997 21.3296 46.8225 1.2 -7.14901 2.28587e+06 -403503 1.08025e+06 1.12537e+06 1.58769e+06 -490976
120 3 O 0.458537 22.7495 48.3911 -1.2 -8.52168 -1.97362e+06 -1.46936e+06 -2.39488e+06 -289334 -332939 454337
121 1 Mg 1.47139 21.3715 54.4384 1.2 -8.3053 772882 1.02531e+06 400194 377703 -340385 1.12112e+06
122 2 Si 1.74224 23.9714 56.3477 2.4 -32.8454 6.60596e+06 5.37131e+06 1.22089e+07 268381 -14131.7 167671
123 3 O 1.64205 22.3897 56.4241 -1.2 -9.67769 -3.35594e+06 -1.15527e+06 -5.83117e+06 932573 483712 -908977
124 3 O 1.54441 24.9963 52.7297 -1.2 -9.15726 -3.50038e+06 -1.80874e+06 -5.25367e+06 -94819.8 -105061 -890411
125 3 O 0.48638 24.6472 55.5464 -1.2 -9.37185 -1.26766e+06 -2.44423e+06 -4.13778e+06 -684190 -82606.8 -397153
126 3 O 3.02512 24.691 55.7755 -1.2 -9.24849 -2.9622e+06 -2.44e+06 -5.50662e+06 554977 804084 -675128
127 1 Mg -0.0335968 23.6229 52.2067 1.2 -7.73826 300344 -934285 4.53445e+06 -1.41139e+06 1.92528e+06 1.03014e+06
128 1 Mg 2.01073 23.3445 49.4541 1.2 -8.03312 2.48619e+06 477130 369250 130050 -86830 541245
129 2 Si 1.47594 25.6699 51.2449 2.4 -33.4014 9.06234e+06 4.45492e+06 1.05646e+07 439775 968713 789860
130 3 O 1.58172 27.2371 51.3054 -1.2 -9.57156 -3.58858e+06 -1.90806e+06 -3.78098e+06 769342 -956467 95674.8
131 3 O 1.68098 24.6059 57.8146 -1.2 -9.28446 -3.45718e+06 -2.96774e+06 -5.83373e+06 -678275 2.09967e+06 965380
132 3 O 0.157925 25.0378 50.6651 -1.2 -8.75923 -3.80148e+06 -2.16563e+06 -4.76118e+06 1.18284e+06 -621026 -611353
133 1 Mg -3.00341 23.6231 52.3098 1.2 -7.84668 -646554 -1.02898e+06 4.0234e+06 1.80844e+06 -1.84079e+06 1.14618e+06
134 3 O 2.71149 25.0232 50.4656 -1.2 -9.09818 -3.24919e+06 -2.10395e+06 -2.83135e+06 -380514 611664 -740579
135 1 Mg -1.32618 23.7475 55.146 1.2 -8.0397 1.89982e+06 1.45589e+06 1.13105e+06 64399.2 217828 -775204
136 2 Si -1.51966 21.5925 53.2486 2.4 -32.7902 8.33525e+06 5.36771e+06 1.25582e+07 -327101 -257693 539451
137 3 O -1.66924 20.0368 53.1304 -1.2 -9.7751 -3.54513e+06 -971726 -5.39354e+06 -285863 621056 497764
138 3 O -1.03938 22.8897 46.4223 -1.2 -7.53624 -3.19448e+06 -1.9915e+06 -3.10403e+06 -605491 -1.49713e+06 615749
139 3 O -2.83432 22.3708 53.9475 -1.2 -9.06914 -173957 -3.07522e+06 -4.28075e+06 -1.51531e+06 482841 1.01732e+06
140 3 O -0.182702 22.1881 53.9003 -1.2 -9.382 -2.35931e+06 -2.99705e+06 -4.02788e+06 1.45068e+06 -651885 592280
141 1 Mg -2.78931 30.7502 57.4018 1.2 -7.85027 -979718 -2.49049e+06 5.18175e+06 -2.08611e+06 -1.5405e+06 -547670
142 1 Mg -1.38776 30.6357 49.8391 1.2 -8.80589 1.26388e+06 1.58429e+06 2.77751e+06 -160298 166752 777681
143 2 Si -0.907929 28.1491 47.9262 2.4 -34.9018 9.46248e+06 6.0762e+06 1.06867e+07 495257 2.27205e+06 255120
144 3 O -0.829229 29.7184 47.99 -1.2 -8.42627 -3.00313e+06 -3.79469e+06 -3.5048e+06 456188 -1.90455e+06 -384819
145 3 O -1.45946 27.0152 51.769 -1.2 -8.83881 -2.61822e+06 -2.76715e+06 -4.70442e+06 306571 1.338e+06 -881879
146 3 O -2.07744 27.5697 48.8273 -1.2 -8.50724 -1.50057e+06 -3.19768e+06 -3.99307e+06 8547.79 -335212 -1.59992e+06
147 1 Mg 0.137907 26.087 46.819 1.2 -7.21904 2.40604e+06 -622549 1.29877e+06 1.12468e+06 1.58594e+06 -413901
148 3 O 0.55579 27.5065 48.3893 -1.2 -8.42344 -2.14321e+06 -1.23722e+06 -2.61238e+06 -293152 -328044 430442
149 1 Mg 1.65524 26.0457 54.5271 1.2 -8.2837 2.10486e+06 1.25396e+06 1.06966e+06 -323099 337448 1.47836e+06
150 2 Si 1.60302 28.7258 56.4307 2.4 -33.1697 9.04468e+06 4.88184e+06 1.20949e+07 351616 -219955 -595037
151 3 O 1.55188 27.1995 56.5375 -1.2 -9.67928 -3.62784e+06 -1.33414e+06 -4.92694e+06 -415372 149446 -165583
152 3 O 1.6432 29.7522 52.7291 -1.2 -8.92007 -4.12012e+06 -1.51442e+06 -5.14691e+06 826160 -340046 -1.25108e+06
153 3 O 0.365165 29.4865 55.7498 -1.2 -9.07522 -3.22808e+06 -2.52929e+06 -3.04223e+06 -1.20884e+06 166190 -302826
154 3 O 2.91848 29.4292 55.6984 -1.2 -8.64983 -1.53617e+06 -2.67756e+06 -4.38746e+06 1.71155e+06 136519 -503636
155 1 Mg 0.0647462 28.3794 52.2059 1.2 -7.8404 633115 -1.03618e+06 4.62331e+06 -1.42536e+06 1.96286e+06 1.29773e+06
156 1 Mg 2.10696 28.1021 49.4531 1.2 -8.15149 2.68496e+06 228960 616915 102996 -62902.8 556972
157 2 Si 1.57592 30.4257 51.2442 2.4 -33.6828 9.56928e+06 3.64129e+06 1.13466e+07 59811.3 582902 799047
158 3 O 1.68288 31.9926 51.3043 -1.2 -9.56443 -3.64136e+06 -1.74692e+06 -3.91255e+06 689108 -266767 429811
159 3 O 1.78009 29.4457 57.9276 -1.2 -9.28946 -2.9335e+06 -1.74082e+06 -4.80034e+06 -256963 817955 1.64377e+06
160 3 O 0.258524 29.7935 50.6632 -1.2 -8.61196 -3.98917e+06 -1.88606e+06 -5.23264e+06 1.19427e+06 -556743 -750434
161 1 Mg -2.90462 28.3797 52.308 1.2 -8.0318 -517019 -1.00386e+06 4.02893e+06 1.86241e+06 -1.98845e+06 1.549e+06
162 3 O 2.81205 29.7787 50.4664 -1.2 -8.99168 -3.50352e+06 -1.77985e+06 -3.12583e+06 -338285 603958 -689358
163 1 Mg -1.29993 28.514 55.101 1.2 -8.36177 2.64081e+06 1.3201e+06 1.63522e+06 -178465 -114115 -1.01808e+06
164 2 Si -1.41169 26.3916 53.2876 2.4 -33.2165 7.49341e+06 5.34836e+06 1.23133e+07 -183783 642775 786806
165 3 O -1.53323 24.7966 53.1627 -1.2 -9.39263 -3.31819e+06 -435699 -4.54636e+06 158154 572056 759979
166 3 O -0.943026 27.648 46.4208 -1.2 -7.48086 -3.27991e+06 -1.78597e+06 -3.32156e+06 -605137 -1.49824e+06 621165
167 3 O -2.74217 27.0576 53.8596 -1.2 -9.00388 -2.02162e+06 -3.47235e+06 -5.86508e+06 -474480 859465 -473315
168 3 O -0.174807 27.0393 54.0047 -1.2 -9.43682 -2.41848e+06 -1.91486e+06 -3.20474e+06 613877 -503832 -36526.2
169 1 Mg -2.56531 35.5713 57.5168 1.2 -8.00689 272482 -1.33624e+06 4.84339e+06 -661358 -1.62459e+06 -981398
170 1 Mg -1.28421 35.3899 49.8376 1.2 -8.64577 1.11556e+06 1.75072e+06 2.49653e+06 -163972 155190 823992
171 2 Si -0.807101 32.9036 47.9247 2.4 -34.8383 9.36104e+06 6.0208e+06 1.07445e+07 491176 2.29811e+06 -130947
172 3 O -0.727174 34.4729 47.9885 -1.2 -8.49212 -2.90797e+06 -3.86225e+06 -3.43771e+06 459856 -1.91552e+06 -275771
173 3 O -1.35735 31.7701 51.768 -1.2 -8.65006 -2.86643e+06 -3.14681e+06 -6.53914e+06 367740 107020 -116793
174 3 O -1.97695 32.3253 48.826 -1.2 -8.53141 -1.48777e+06 -3.12215e+06 -4.03945e+06 20976.1 -353330 -1.38564e+06
175 1 Mg 0.237665 30.8412 46.8168 1.2 -7.23495 2.4299e+06 -770114 1.45164e+06 1.12423e+06 1.58659e+06 -549520
176 3 O 0.656562 32.2608 48.3877 -1.2 -8.43582 -2.09658e+06 -1.16044e+06 -2.70684e+06 -298052 -321164 638666
177 1 Mg 1.66673 30.7943 54.5598 1.2 -8.71463 3.27704e+06 319763 1.20814e+06 25322.5 -189362 967085
178 2 Si 1.91617 33.3909 56.3446 2.4 -33.3566 8.54404e+06 5.73335e+06 1.04609e+07 1.60339e+06 -1.37466e+06 1.06798e+06
179 3 O 1.72996 31.8247 56.3757 -1.2 -9.39137 -3.83892e+06 -3.0558e+06 -4.41818e+06 1.0574e+06 -248463 -1.56454e+06
180 3 O 1.74574 34.5067 52.7279 -1.2 -9.18076 -3.64821e+06 -2.08276e+06 -5.3591e+06 124065 -414969 -1.80853e+06
181 3 O 0.685549 34.117 55.7003 -1.2 -9.23683 -2.95125e+06 -3.36891e+06 -5.12057e+06 -445249 -1.42995e+06 286375
182 3 O 3.28605 34.102 55.7259 -1.2 -8.62814 -1.26706e+06 -2.6912e+06 -4.3365e+06 2.18888e+06 984395 -436047
183 1 Mg 0.167046 33.1343 52.2045 1.2 -7.79293 130318 -954777 4.29816e+06 -1.24789e+06 1.95468e+06 1.03942e+06
184 1 Mg 2.20727 32.8578 49.4516 1.2 -8.10045 2.62297e+06 211233 625099 112867 -112404 337557
185 2 Si 1.67943 35.1802 51.2429 2.4 -33.3083 8.49287e+06 4.10196e+06 1.13427e+07 247497 830752 1.00805e+06
186 3 O 1.78736 36.747 51.303 -1.2 -9.64826 -3.36611e+06 -1.64012e+06 -4.09157e+06 846184 -650682 376005
187 3 O 1.90891 34.0079 57.8046 -1.2 -8.95754 -3.32683e+06 -2.15949e+06 -7.94285e+06 177582 -178446 1.6401e+06
188 3 O 0.362533 34.5479 50.661 -1.2 -8.81119 -3.5748e+06 -2.1618e+06 -4.94676e+06 1.10978e+06 -746092 -571917
189 1 Mg -2.80215 33.1347 52.3062 1.2 -7.78968 -718970 -932889 4.35258e+06 1.51442e+06 -1.80997e+06 1.08721e+06
190 3 O 2.91593 34.533 50.466 -1.2 -9.16214 -3.16742e+06 -1.97698e+06 -2.97787e+06 -279637 737744 -641697
191 1 Mg -1.12638 33.1744 55.0147 1.2 -8.30958 1.91071e+06 1.38266e+06 852078 492361 503550 -1.1023e+06
192 2 Si -1.31614 31.1426 53.2539 2.4 -34.0612 6.36252e+06 2.19519e+06 1.18574e+07 622560 50753.9 84413.1
193 3 O -1.42976 29.5947 53.1255 -1.2 -9.06361 -3.94831e+06 -2.41279e+06 -5.17638e+06 -83658.8 783847 171697
194 3 O -0.842495 32.4028 46.4192 -1.2 -7.49616 -3.25417e+06 -1.72238e+06 -3.38662e+06 -605685 -1.502e+06 776890
195 3 O -2.48696 31.7768 53.9652 -1.2 -8.79339 -4.0506e+06 -4.32313e+06 -6.07149e+06 551892 2.05286e+06 -946082
196 3 O 0.0096311 31.7164 53.8349 -1.2 -9.0152 -4.88003e+06 -2.37103e+06 -5.32105e+06 492637 -1.17163e+06 -243343
197 1 Mg -2.61924 40.267 57.4109 1.2 -7.62509 -91124.8 -696314 4.27607e+06 -1.32182e+06 -1.6693e+06 -733139
198 1 Mg -1.17787 40.1435 49.8359 1.2 -8.70767 1.06027e+06 1.41106e+06 2.98613e+06 -172106 349131 680542
199 2 Si -0.702692 37.6572 47.9231 2.4 -34.725 9.16252e+06 5.85648e+06 1.09223e+07 494295 2.31895e+06 -73220
200 3 O -0.621782 39.2264 47.9868 -1.2 -8.5383 -2.80279e+06 -3.69258e+06 -3.65273e+06 460893 -1.92798e+06 -204741
201 3 O -1.25221 36.5242 51.7666 -1.2 -8.96431 -2.61426e+06 -1.90669e+06 -6.76204e+06 228698 573431 -296964
202 3 O -1.87295 37.0796 48.8243 -1.2 -8.59882 -1.40074e+06 -3.07343e+06 -4.07733e+06 -5091.52 -357770 -1.47988e+06
203 1 Mg 0.341084 35.5943 46.8152 1.2 -7.17679 2.3355e+06 -754920 1.43957e+06 1.12239e+06 1.59068e+06 -607450
204 3 O 0.760681 37.0138 48.3864 -1.2 -8.49812 -1.97716e+06 -1.12882e+06 -2.76153e+06 -280192 -320377 580880
205 1 Mg 1.71006 35.4473 54.5397 1.2 -8.55398 3.26586e+06 164488 917526 161439 147692 1.27537e+06
206 2 Si 1.8951 38.1785 56.399 2.4 -33.4749 7.78134e+06 5.37093e+06 1.27011e+07 -372292 -689671 1.11391e+06
207 3 O 1.91187 36.5751 56.4643 -1.2 -9.1873 -4.09891e+06 -222507 -4.93584e+06 36356.8 1.00868e+06 -830893
208 3 O 1.85132 39.2606 52.7264 -1.2 -9.11235 -3.55917e+06 -1.6924e+06 -4.57499e+06 230944 -181088 -938214
209 3 O 0.658016 38.8583 55.7163 -1.2 -9.15007 -3.23416e+06 -3.31349e+06 -4.9031e+06 -1.22566e+06 -959812 392676
210 3 O 3.22155 38.8054 55.7685 -1.2 -9.23667 -2.68868e+06 -2.32323e+06 -3.8724e+06 1.21531e+06 505476 -495188
211 1 Mg 0.272384 37.8883 52.2029 1.2 -7.9186 95203.5 -665531 4.94598e+06 -1.32454e+06 1.64454e+06 758163
212 1 Mg 2.31122 37.6122 49.4501 1.2 -8.0496 2.57085e+06 84746 730512 97587.5 -144858 395584
213 2 Si 1.78573 39.934 51.2414 2.4 -33.4964 9.35445e+06 3.50591e+06 1.13377e+07 270741 28402.9 674239
214 3 O 1.89428 41.5006 51.3014 -1.2 -9.64005 -3.55567e+06 -1.4429e+06 -4.3259e+06 580002 -693569 476667
215 3 O 1.87658 38.8274 57.926 -1.2 -8.82248 -2.63975e+06 -2.2433e+06 -3.95792e+06 17132.8 122147 1.24882e+06
216 3 O 0.469216 39.3015 50.6588 -1.2 -8.64123 -3.56059e+06 -1.89024e+06 -5.57989e+06 1.2936e+06 -466507 -668698
217 1 Mg -2.69668 37.8889 52.3043 1.2 -7.8017 123295 -1.15415e+06 4.62924e+06 1.8563e+06 -1.56828e+06 496640
218 3 O 3.0225 39.2866 50.4651 -1.2 -9.14772 -3.52645e+06 -1.69148e+06 -2.8526e+06 -355423 777266 -554737
219 1 Mg -1.04372 37.9534 55.2053 1.2 -8.48405 1.53769e+06 1.12428e+06 1.3255e+06 296700 -129890 -529326
220 2 Si -1.24124 35.8187 53.2046 2.4 -33.9901 7.12997e+06 2.54042e+06 1.24509e+07 309703 -570219 361444
221 3 O -1.34093 34.2768 53.1406 -1.2 -9.38692 -3.66583e+06 -3.34817e+06 -5.47593e+06 -108723 1.03129e+06 -714013
222 3 O -0.738054 37.1566 46.4176 -1.2 -7.55664 -3.15606e+06 -1.6887e+06 -3.42626e+06 -606574 -1.50424e+06 821292
223 3 O -2.49296 36.4678 53.9023 -1.2 -8.48406 -3.18257e+06 -2.66924e+06 -5.13301e+06 77531.7 829396 -335497
224 3 O 0.0195996 36.387 53.9349 -1.2 -8.9007 -4.66869e+06 -1.90245e+06 -3.91272e+06 536187 -680406 -88188.4
225 1 Mg -2.47929 44.952 57.4284 1.2 -8.06701 927483 -454815 4.44e+06 -223446 -1.5228e+06 -64672.6
226 1 Mg -1.06993 44.8968 49.8343 1.2 -8.27198 477868 2.01871e+06 2.25814e+06 -147189 283952 565416
227 2 Si -0.596166 42.4103 47.9215 2.4 -34.4325 8.67367e+06 6.00517e+06 1.07992e+07 489280 2.32302e+06 -817070
228 3 O -0.51472 43.9796 47.9853 -1.2 -8.75976 -2.45966e+06 -4.00244e+06 -3.32877e+06 459487 -1.92946e+06 63100.7
229 3 O -1.14475 41.2777 51.7649 -1.2 -8.67023 -2.29433e+06 -2.35139e+06 -4.36289e+06 924196 -855493 -826315
230 3 O -1.76671 41.8331 48.8226 -1.2 -8.70932 -1.21957e+06 -3.01704e+06 -4.14226e+06 32841.3 -404685 -1.07249e+06
231 1 Mg 0.447076 40.3473 46.8135 1.2 -7.09385 2.19484e+06 -839704 1.5319e+06 1.12347e+06 1.58273e+06 -801803
232 3 O 0.866985 41.7666 48.385 -1.2 -8.61124 -1.78492e+06 -1.08469e+06 -2.81728e+06 -301169 -289111 957021
233 1 Mg 1.89997 40.2287 54.6211 1.2 -8.23764 2.47585e+06 819423 1.53867e+06 -534403 590160 1.21161e+06
234 2 Si 1.89365 42.9138 56.3293 2.4 -33.6185 6.09951e+06 6.72259e+06 1.1617e+07 1.11899e+06 -1.37323e+06 2.05596e+06
235 3 O 1.82429 41.3 56.495 -1.2 -9.59932 -2.84137e+06 -1.00367e+06 -4.17327e+06 -36792.9 -221572 -800377
236 3 O 1.95891 44.014 52.7248 -1.2 -9.70602 -2.26228e+06 -1.75589e+06 -5.60211e+06 513713 -629620 -872439
237 3 O 0.696815 43.5946 55.7303 -1.2 -9.09477 -4.64584e+06 -2.39803e+06 -5.72822e+06 -362607 -2.28041e+06 -768423
238 3 O 3.20235 43.585 55.6848 -1.2 -8.90847 -3.61382e+06 -2.82106e+06 -4.68206e+06 1.93856e+06 1.19574e+06 -1.31625e+06
239 1 Mg 0.379928 42.6418 52.2013 1.2 -7.72733 -253616 -869359 4.95363e+06 -884208 1.79599e+06 664929
240 1 Mg 2.41752 42.366 49.4484 1.2 -7.89231 2.3606e+06 91707.8 688967 112782 -153238 -13877
241 2 Si 1.89374 44.6874 51.2398 2.4 -32.3096 6.97092e+06 4.85043e+06 1.04376e+07 35245.7 328664 92657.6
242 3 O 2.00266 46.254 51.2996 -1.2 -10.2519 -2.53464e+06 -1.9535e+06 -3.4916e+06 794275 -127271 75820.2
243 3 O 1.9132 43.6216 57.825 -1.2 -8.53645 -2.73412e+06 -2.26693e+06 -5.3201e+06 210044 -552673 938717
244 3 O 0.577464 44.0549 50.6567 -1.2 -9.13468 -2.80318e+06 -2.43001e+06 -4.85588e+06 1.15397e+06 -738508 -165892
245 1 Mg -2.58906 42.6425 52.3022 1.2 -7.62727 -370765 -2.0897e+06 4.17107e+06 1.72819e+06 -2.12368e+06 1.40751e+06
246 3 O 3.13067 44.0398 50.464 -1.2 -9.54703 -2.72835e+06 -2.10922e+06 -2.57136e+06 -286649 855243 -155579
247 1 Mg -1.10397 42.7788 55.1302 1.2 -8.19234 1.63887e+06 606244 1.22967e+06 53857.1 361544 -194319
248 2 Si -1.23815 40.6384 53.3353 2.4 -33.4359 7.14811e+06 3.86884e+06 1.21042e+07 -1.91315e+06 -1.46061e+06 120754
249 3 O -1.15805 39.0957 53.1896 -1.2 -9.25684 -3.19918e+06 -1.86789e+06 -4.64348e+06 -1.57855e+06 110074 848367
250 3 O -0.631421 41.9099 46.4159 -1.2 -7.67644 -2.96071e+06 -1.73421e+06 -3.38353e+06 -605327 -1.50568e+06 1.07793e+06
251 3 O -2.62208 41.3597 53.8957 -1.2 -9.14738 -1.79979e+06 -2.26526e+06 -4.11615e+06 -1.36136e+06 -236418 -580833
252 3 O -0.0330735 41.2109 53.9739 -1.2 -8.93634 -3.27534e+06 -4.07912e+06 -5.67342e+06 -716623 -2.41952e+06 -1.32225e+06
253 1 Mg -2.27988 49.7215 57.2914 1.2 -7.71591 -513212 -474712 4.19407e+06 -1.59074e+06 -947749 -783173
254 1 Mg -0.961069 49.6502 49.8327 1.2 -8.15748 325838 1.74533e+06 2.50484e+06 -194117 346785 685892
255 2 Si -0.488083 47.1636 47.9198 2.4 -33.9878 7.96867e+06 6.43852e+06 1.03583e+07 491860 2.34605e+06 -418623
256 3 O -0.40607 48.7329 47.9837 -1.2 -8.93228 -2.18048e+06 -4.01227e+06 -3.31429e+06 463307 -1.94269e+06 -126921
257 3 O -1.0361 46.031 51.7632 -1.2 -9.58323 -1.11677e+06 -2.16774e+06 -5.30061e+06 164202 -526299 -1.70608e+06
258 3 O -1.65866 46.5866 48.821 -1.2 -8.99771 -784035 -3.33127e+06 -3.79773e+06 13539.5 -400557 -1.30626e+06
259 1 Mg 0.554124 45.1001 46.8117 1.2 -6.89757 1.88085e+06 -541312 1.23387e+06 1.12328e+06 1.58748e+06 -881671
260 3 O 0.974961 46.5195 48.3832 -1.2 -8.86957 -1.35286e+06 -1.4027e+06 -2.51052e+06 -289455 -296333 776002
261 1 Mg 1.96995 45.1202 54.4342 1.2 -7.86086 1.36767e+06 1.39018e+06 1.33888e+06 -44613.5 161613 643079
262 2 Si 2.12511 47.6269 56.3083 2.4 -33.4721 8.1494e+06 5.55254e+06 1.11198e+07 -74782.6 -443343 -1.30145e+06
263 3 O 1.98256 46.1072 56.5496 -1.2 -9.35945 -3.46789e+06 -3.25772e+06 -4.24176e+06 793150 342843 -137329
264 3 O 2.0677 48.7672 52.7232 -1.2 -9.56819 -2.65572e+06 -1.3267e+06 -5.77963e+06 197364 -438111 -903305
265 3 O 0.777047 48.283 55.747 -1.2 -8.74001 -4.76367e+06 -3.32465e+06 -4.46886e+06 -1.95292e+06 -865251 840090
266 3 O 3.22692 48.4131 55.5346 -1.2 -9.04963 -3.8815e+06 -2.36559e+06 -4.12133e+06 1.13873e+06 1.04314e+06 14183.5
267 1 Mg 0.488584 47.395 52.1996 1.2 -7.53216 -1.366e+06 -1.39893e+06 5.03427e+06 -781217 1.7461e+06 1.02992e+06
268 1 Mg 2.52544 47.1195 49.4466 1.2 -7.59851 1.898e+06 321459 454653 102333 -195219 327665
269 2 Si 2.00256 49.4407 51.2382 2.4 -32.3366 6.87225e+06 3.87465e+06 1.16077e+07 385310 58980.8 416218
270 3 O 2.11156 51.0073 51.2982 -1.2 -10.1668 -2.69733e+06 -1.51903e+06 -4.06867e+06 568031 -602085 588976
271 3 O 2.19472 48.4113 57.8369 -1.2 -9.01179 -2.43796e+06 -2.75153e+06 -4.38929e+06 -64739.7 -639544 2.42602e+06
272 3 O 0.686344 48.8082 50.655 -1.2 -9.22955 -2.48815e+06 -2.13952e+06 -5.44364e+06 1.10767e+06 -659708 -412040
273 1 Mg -2.48039 47.3957 52.3005 1.2 -7.1252 -634691 -1.94115e+06 5.00799e+06 1.33015e+06 -1.60363e+06 1.06381e+06