ITEM: TIMESTEP
63700
ITEM: NUMBER OF ATOMS
10500
ITEM: BOX BOUNDS xy xz yz pp pp pp
0.0000000000000000e+00 8.9687999999999999e+00 2.9895999999999998e+00
0.0000000000000000e+00 1.1872499999999999e+02 0.0000000000000000e+00
0.0000000000000000e+00 2.5297749999999999e+02 0.0000000000000000e+00
ITEM: ATOMS id type element xu yu zu q c_pe c_s[1] c_s[2] c_s[3] c_s[4] c_s[5] c_s[6]
1 1 Mg -3.28189 7.12465 57.409 1.2 -7.82013 -2.3335e+06 -3.16849e+06 3.24755e+06 1.12912e+06 -2.75337e+06 1.77713e+06
2 1 Mg -1.82655 6.90154 50.0912 1.2 -8.36131 197915 1.35927e+06 1.04749e+06 -191284 -438343 1.64317e+06
3 2 Si -0.257935 3.96038 48.0876 2.4 -36.1288 1.0147e+07 9.38795e+06 1.02042e+07 812692 1.91168e+06 2.39534e+06
4 3 O -0.335812 5.46814 47.6264 -1.2 -7.73284 -3.1813e+06 -2.70705e+06 -2.27711e+06 139968 -955240 -915489
5 3 O -2.03793 3.43377 51.8941 -1.2 -8.44895 -3.03628e+06 -2.18995e+06 -5.22009e+06 -667482 838952 -2.99974e+06
6 3 O -1.54015 3.53929 48.9521 -1.2 -8.24568 -1.30354e+06 -2.00235e+06 -4.04681e+06 44473.2 -726030 -538005
7 1 Mg 1.82954 2.54582 47.1376 1.2 -7.96425 2.57541e+06 -143328 378992 1.15144e+06 837051 912085
8 3 O 1.22989 3.66364 48.7877 -1.2 -7.98335 -1.77774e+06 -2.72529e+06 -3.26916e+06 -496471 -715311 -1.30526e+06
9 1 Mg 0.816735 2.41815 54.4652 1.2 -7.84797 256456 2.29998e+06 838984 412386 -471985 -57936.9
10 2 Si 1.02836 4.97219 56.3773 2.4 -32.2717 6.66002e+06 4.75578e+06 1.08017e+07 1.5406e+06 308821 1.19465e+06
11 3 O 0.886082 3.4856 56.3294 -1.2 -10.4352 -2.22009e+06 -5.32167e+06 -4.8142e+06 454860 -489324 597160
12 3 O 1.10813 6.07342 52.8172 -1.2 -8.97788 -3.11162e+06 -2.64503e+06 -4.08214e+06 -114915 -224088 -1.47819e+06
13 3 O -0.275916 5.73311 55.8921 -1.2 -9.22438 -4.2508e+06 -3.83857e+06 -5.26351e+06 -1.47551e+06 -1.19344e+06 -1.73929e+06
14 3 O 2.29147 5.82058 55.7039 -1.2 -8.96661 -1.80252e+06 -2.43214e+06 -6.36191e+06 2.51012e+06 1.17925e+06 -1.61785e+06
15 1 Mg -0.459401 4.67631 52.2426 1.2 -8.21422 -278306 -1.21945e+06 4.61353e+06 -675607 1.2578e+06 1.25017e+06
16 1 Mg 2.79456 3.9971 49.9987 1.2 -8.46698 3.73983e+06 296409 1.28747e+06 -562224 967743 -533351
17 2 Si 1.16169 6.59457 51.2556 2.4 -33.792 7.79932e+06 6.56511e+06 1.11407e+07 611757 1.05671e+06 3.31038e+06
18 3 O 1.28989 8.18905 51.2909 -1.2 -9.41059 -2.9832e+06 -2.0014e+06 -3.45605e+06 403464 -1.16168e+06 303254
19 3 O 1.22623 5.73588 57.8343 -1.2 -9.43405 -3.04449e+06 -3.07714e+06 -7.71208e+06 10945.3 912122 2.97451e+06
20 3 O -0.184847 6.06029 50.6845 -1.2 -8.62442 -3.44361e+06 -3.25225e+06 -4.8065e+06 1.37064e+06 -243944 -1.55353e+06
21 1 Mg -3.49704 4.67769 52.6661 1.2 -7.68389 363592 -2.39863e+06 1.51655e+06 2.34897e+06 -1.52066e+06 2.52991e+06
22 3 O 2.48581 5.93312 50.6539 -1.2 -9.11472 -3.19912e+06 -1.82472e+06 -2.91265e+06 -1.62034e+06 -681780 -1.37489e+06
23 1 Mg -1.90495 4.99807 55.1132 1.2 -8.01263 785162 193478 649357 -794490 -688801 835751
24 2 Si -2.06112 2.63416 53.4005 2.4 -32.6874 5.23477e+06 6.87408e+06 1.21152e+07 1.19049e+06 285561 -689272
25 3 O -1.86371 1.07223 53.1945 -1.2 -9.88135 -2.86791e+06 -1.53109e+06 -4.21171e+06 64523.5 -214085 2.10436e+06
26 3 O -0.0467762 2.97103 46.8385 -1.2 -7.02687 -2.94034e+06 -2.48574e+06 -2.5395e+06 -989500 -1.99468e+06 -1.01505e+06
27 3 O -3.28819 3.33977 53.988 -1.2 -9.51678 -4.52898e+06 -2.63067e+06 -7.2032e+06 -923942 1.15582e+06 1.36967e+06
28 3 O -0.816682 3.42543 54.0633 -1.2 -9.15406 -3.20705e+06 -3.30933e+06 -5.64255e+06 1.94807e+06 -1.5458e+06 870805
29 1 Mg -3.19517 11.7942 57.4415 1.2 -8.15658 -1.06388e+06 -2.14246e+06 3.6799e+06 55220.7 -1.69304e+06 812442
30 1 Mg -1.75014 11.5838 49.8362 1.2 -8.69387 1.22635e+06 1.80692e+06 2.60381e+06 -306366 232433 1.09138e+06
31 2 Si -1.18003 9.02138 47.9309 2.4 -34.6949 8.89934e+06 7.46684e+06 9.42947e+06 243755 2.56874e+06 1.09952e+06
32 3 O -1.23224 10.5991 47.9811 -1.2 -8.55332 -2.77355e+06 -3.59188e+06 -2.76552e+06 648869 -1.90674e+06 -276511
33 3 O -1.79016 8.01447 51.8693 -1.2 -9.07813 -2.99228e+06 -3.71868e+06 -3.83655e+06 109827 1.59484e+06 -1.92739e+06
34 3 O -2.30986 8.37215 48.8528 -1.2 -8.81789 -1.21838e+06 -2.79053e+06 -3.15514e+06 -335400 -545543 -1.22261e+06
35 1 Mg 0.154883 7.08234 46.8007 1.2 -7.60981 2.04123e+06 47084.5 586801 945860 1.72621e+06 -619753
36 3 O 0.325447 8.50934 48.3809 -1.2 -8.48315 -1.6838e+06 -2.16826e+06 -2.48996e+06 -35406.5 -855413 -31897.3
37 1 Mg 1.21769 7.34686 54.7147 1.2 -8.1392 473715 140845 1.69727e+06 163272 -1.04396e+06 822089
38 2 Si 1.34211 9.64544 56.5227 2.4 -33.4972 9.54216e+06 1.82095e+06 8.803e+06 1.17842e+06 563567 -2.66838e+06
39 3 O 1.30355 8.09851 56.6494 -1.2 -9.24022 -5.1296e+06 -7.34617e+06 -6.84668e+06 2.71991e+06 -645113 -1.90325e+06
40 3 O 1.28624 10.7248 52.7351 -1.2 -8.7396 -3.002e+06 -1.91079e+06 -4.61712e+06 243603 -469462 -1.16157e+06
41 3 O -0.0316104 10.2829 55.7904 -1.2 -8.66241 -1.48593e+06 -598111 -6.09504e+06 -1.93316e+06 230026 -679974
42 3 O 2.51661 10.5596 55.8065 -1.2 -9.06214 -2.92059e+06 -1.01113e+06 -6.14825e+06 890385 34786.9 -1.14129e+06
43 1 Mg -0.262694 9.34741 52.2523 1.2 -7.74292 347352 -1.29643e+06 4.29841e+06 -1.7777e+06 2.22164e+06 2.12746e+06
44 1 Mg 1.87648 9.01537 49.4629 1.2 -8.05773 2.21202e+06 717432 197956 215787 -195874 735134
45 2 Si 1.21415 11.3799 51.2378 2.4 -33.7218 8.84305e+06 4.5226e+06 1.16132e+07 257847 702971 1.61137e+06
46 3 O 1.31634 12.9512 51.3023 -1.2 -9.51283 -3.39024e+06 -1.59581e+06 -4.2353e+06 575951 -551634 464635
47 3 O 1.24324 10.1975 57.843 -1.2 -8.48426 -5.34492e+06 -5.20141e+06 -1.24475e+07 134725 -996380 -1.16819e+06
48 3 O -0.115718 10.7564 50.681 -1.2 -8.63718 -3.71631e+06 -2.21323e+06 -4.88924e+06 1.24894e+06 -504571 -1.20973e+06
49 1 Mg -3.26386 9.35564 52.3622 1.2 -7.95534 -676626 -551002 3.22399e+06 1.61892e+06 -2.10625e+06 1.73432e+06
50 3 O 2.45216 10.7265 50.4558 -1.2 -9.12564 -3.18853e+06 -1.86808e+06 -2.5276e+06 -784346 495417 -557970
51 1 Mg -1.81433 9.6507 55.0753 1.2 -8.17839 2.55742e+06 -549289 1.99852e+06 -335214 838651 -551635
52 2 Si -1.59297 7.46304 53.4195 2.4 -32.3255 8.8597e+06 6.01118e+06 1.19349e+07 -1.63004e+06 396062 2.62325e+06
53 3 O -1.76907 5.84499 53.329 -1.2 -9.45635 -3.19387e+06 -1.02341e+06 -5.58754e+06 1.98749e+06 -250771 1.07125e+06
54 3 O -1.19417 8.46968 46.4488 -1.2 -7.52366 -2.9136e+06 -2.15652e+06 -2.8295e+06 -542543 -1.73617e+06 473971
55 3 O -3.03415 8.22258 54.0132 -1.2 -9.10121 980742 -2.26875e+06 -5.33405e+06 -1.72271e+06 -108059 197074
56 3 O -0.376781 8.15608 54.017 -1.2 -9.71198 -3.53114e+06 -3.82083e+06 -4.86874e+06 928389 -632420 -1.73677e+06
57 1 Mg -3.16875 16.6281 57.5244 1.2 -7.7393 859024 -492648 4.57826e+06 -1.03465e+06 -1.12235e+06 -348126
58 1 Mg -1.6714 16.3544 49.8412 1.2 -8.39043 965154 2.21011e+06 1.83513e+06 -154732 246453 779691
59 2 Si -1.18567 13.8526 47.9314 2.4 -34.5621 8.98457e+06 6.35309e+06 1.02696e+07 515895 2.26013e+06 -277434
60 3 O -1.09664 15.4205 47.9915 -1.2 -8.65674 -2.59635e+06 -4.0514e+06 -3.00907e+06 415557 -1.95079e+06 -203398
61 3 O -1.73493 12.7491 51.7772 -1.2 -8.79594 -2.87637e+06 -2.35606e+06 -3.91921e+06 438339 730168 -1.22708e+06
62 3 O -2.36115 13.2717 48.8238 -1.2 -8.65738 -1.38791e+06 -3.06491e+06 -3.86384e+06 -91348.6 -339728 -1.26706e+06
63 1 Mg -0.159928 11.7639 46.8533 1.2 -7.13003 2.29254e+06 -549579 1.19191e+06 1.12917e+06 1.57351e+06 -671192
64 3 O 0.2623 13.1866 48.413 -1.2 -8.56941 -1.87631e+06 -1.13601e+06 -2.63914e+06 -212200 -309014 728273
65 1 Mg 1.27719 12.0213 54.8093 1.2 -8.18512 1.50019e+06 845715 1.57242e+06 595348 355749 1.12666e+06
66 2 Si 1.29239 14.5419 56.4596 2.4 -33.0786 6.17629e+06 1.28163e+06 1.34566e+07 -118321 -1.31915e+06 861797
67 3 O 1.36294 13.0552 56.6341 -1.2 -9.75595 -4.08405e+06 -3.31191e+06 -5.80145e+06 227145 1.44619e+06 -979127
68 3 O 1.36565 15.4813 52.729 -1.2 -9.07932 -2.28517e+06 -2.48725e+06 -4.60563e+06 1.03464e+06 -245858 -1.06331e+06
69 3 O 0.156842 15.2545 55.74 -1.2 -9.6264 -3.60158e+06 -1.17759e+06 -5.4955e+06 433807 -1.16011e+06 -147681
70 3 O 2.65647 15.1807 55.8337 -1.2 -9.01479 -1.66339e+06 -2.68133e+06 -5.06732e+06 1.00314e+06 787438 71168.7
71 1 Mg -0.206989 14.1049 52.2121 1.2 -7.78783 260638 -917700 4.63398e+06 -1.0838e+06 1.96036e+06 1.24943e+06
72 1 Mg 1.82591 13.8102 49.4556 1.2 -7.98822 2.37857e+06 461646 506602 103565 -123136 289219
73 2 Si 1.29285 16.1518 51.2434 2.4 -33.0039 6.5856e+06 5.33792e+06 1.15542e+07 -133268 246528 723337
74 3 O 1.39496 17.7199 51.3047 -1.2 -9.79554 -2.64281e+06 -2.13166e+06 -4.17693e+06 607869 16285.7 436097
75 3 O 1.34043 15.2855 57.98 -1.2 -8.68181 -3.03881e+06 -1.89892e+06 -4.73585e+06 536304 991570 674781
76 3 O -0.0269106 15.5178 50.6688 -1.2 -9.02105 -2.92421e+06 -2.56737e+06 -4.62971e+06 1.01575e+06 -1.16339e+06 -469710
77 1 Mg -3.18391 14.1057 52.3125 1.2 -7.80126 -564796 -1.20358e+06 4.19429e+06 1.29869e+06 -2.01477e+06 1.18751e+06
78 3 O 2.52432 15.503 50.4579 -1.2 -9.389 -2.71484e+06 -2.25926e+06 -2.4237e+06 -235634 1.07355e+06 -255279
79 1 Mg -1.65139 14.3927 55.0863 1.2 -8.01651 2.44525e+06 714709 1.24094e+06 520648 -287583 147805
80 2 Si -1.7065 12.0649 53.2993 2.4 -33.0079 1.08321e+07 2.63316e+06 1.24668e+07 191071 -239659 1.77086e+06
81 3 O -1.75321 10.5679 53.1415 -1.2 -9.68989 -4.67601e+06 -3.22576e+06 -4.85682e+06 154389 505695 966563
82 3 O -1.21337 13.3381 46.4311 -1.2 -7.59708 -3.16154e+06 -1.88133e+06 -3.15679e+06 -633115 -1.45287e+06 831359
83 3 O -2.98934 12.7889 53.9455 -1.2 -9.00285 -754264 -2.66234e+06 -5.16237e+06 -1.498e+06 246227 -233388
84 3 O -0.306793 12.8078 53.9481 -1.2 -9.24998 -735580 -1.10495e+06 -2.50171e+06 2.19968e+06 586743 -92286.5
85 1 Mg -3.08262 21.387 57.352 1.2 -7.55469 -136656 -1.24487e+06 4.59462e+06 -364406 -1.59628e+06 -838712
86 1 Mg -1.5831 21.1217 49.8405 1.2 -8.58368 1.0701e+06 1.88672e+06 2.3268e+06 -216420 275490 727976
87 2 Si -1.09384 18.6291 47.9287 2.4 -34.5399 8.91393e+06 6.65088e+06 1.0068e+07 483544 2.37413e+06 210708
88 3 O -1.02071 20.1985 47.9911 -1.2 -8.5879 -2.73865e+06 -4.05104e+06 -3.15431e+06 462153 -1.94762e+06 -406936
89 3 O -1.65002 17.5002 51.771 -1.2 -9.57484 -2.84388e+06 -1.62217e+06 -5.47585e+06 457140 -1.63668e+06 -831300
90 3 O -2.26174 18.0434 48.8281 -1.2 -8.75211 -1.26688e+06 -3.37191e+06 -3.61693e+06 -33804.5 -354084 -1.50723e+06
91 1 Mg -0.0440435 16.5651 46.8269 1.2 -7.0897 2.15523e+06 -351769 1.05094e+06 1.13367e+06 1.59194e+06 -563905
92 3 O 0.37001 17.9877 48.3925 -1.2 -8.61777 -1.74251e+06 -1.50672e+06 -2.42838e+06 -274679 -355258 508711
93 1 Mg 1.33453 16.67 54.7071 1.2 -8.18899 1.44281e+06 1.05688e+06 1.82366e+06 -149111 362102 1.26905e+06
94 2 Si 1.39036 19.4545 56.3056 2.4 -32.6329 7.17775e+06 2.96776e+06 1.21207e+07 -692293 -1.35337e+06 -1.72735e+06
95 3 O 1.34611 17.8475 56.5524 -1.2 -9.58483 -2.86218e+06 -160158 -5.06998e+06 -72280 1.53927e+06 -1.28365e+06
96 3 O 1.45147 20.239 52.7294 -1.2 -9.06475 -2.97902e+06 -1.60623e+06 -4.62564e+06 614790 -178927 -427603
97 3 O 0.126591 20.1102 55.6797 -1.2 -9.30056 -1.94959e+06 -949284 -7.34553e+06 451748 -939061 1.096e+06
98 3 O 2.71551 20.009 55.5922 -1.2 -9.40393 -2.12884e+06 -3.60893e+06 -4.58717e+06 929238 400332 -204898
99 1 Mg -0.126194 18.8651 52.2079 1.2 -7.85109 -485047 -676258 4.56495e+06 -1.54079e+06 1.83344e+06 1.04658e+06
100 1 Mg 1.92402 18.5815 49.4545 1.2 -7.91059 2.2466e+06 504070 376847 136874 -225267 477747
101 2 Si 1.38106 20.9117 51.2443 2.4 -33.3081 8.09649e+06 4.62679e+06 1.12573e+07 260833 96194.7 415343
102 3 O 1.48527 22.4795 51.3054 -1.2 -9.61622 -3.24207e+06 -2.00481e+06 -4.27757e+06 574868 19830.6 461286
103 3 O 1.34512 20.0931 57.7423 -1.2 -9.24421 -4.36274e+06 -2.93517e+06 -6.34324e+06 500571 -551106 235958
104 3 O 0.0615419 20.2804 50.6669 -1.2 -8.81384 -3.25602e+06 -2.20987e+06 -5.24612e+06 1.15271e+06 -675281 -474079
105 1 Mg -3.09665 18.8643 52.3122 1.2 -7.52949 48757.9 -1.16424e+06 4.65315e+06 2.11579e+06 -1.74424e+06 941614
106 3 O 2.61548 20.2646 50.4626 -1.2 -9.28515 -3.15713e+06 -1.94047e+06 -2.58028e+06 -388832 871422 -510706
107 1 Mg -1.67715 18.9185 55.1765 1.2 -8.07572 1.69981e+06 1.09957e+06 1.41337e+06 1.21172e+06 348298 -1.21372e+06
108 2 Si -1.6249 16.8082 53.1894 2.4 -32.0762 8.92582e+06 5.56834e+06 1.10202e+07 -343013 -1.87458e+06 703198
109 3 O -1.74744 15.216 53.2631 -1.2 -9.92842 -4.15472e+06 -555540 -4.14679e+06 -712581 417005 4783.79
110 3 O -1.12868 18.1227 46.4249 -1.2 -7.60699 -3.09879e+06 -2.05495e+06 -3.02424e+06 -603756 -1.50252e+06 653810
111 3 O -2.96797 17.6138 54.0885 -1.2 -9.1281 836996 -2.08039e+06 -1.61438e+06 -1.66324e+06 -1.07383e+06 761959
112 3 O -0.308499 17.4091 53.7689 -1.2 -9.3653 -2.25373e+06 -3.38165e+06 -4.61418e+06 1.39233e+06 -809509 621911
113 1 Mg -2.87216 26.1927 57.5596 1.2 -6.90993 -786726 -782998 3.93016e+06 -814974 -2.10018e+06 -693081
114 1 Mg -1.48778 25.88 49.8402 1.2 -8.69449 1.20821e+06 2.17485e+06 2.0669e+06 -250202 4047.46 1.0551e+06
115 2 Si -1.00491 23.3922 47.9274 2.4 -34.734 9.21962e+06 6.62677e+06 1.01064e+07 469273 2.32266e+06 237178
116 3 O -0.927602 24.9615 47.9909 -1.2 -8.48576 -2.92931e+06 -4.13224e+06 -3.11258e+06 471205 -1.90696e+06 -519757
117 3 O -1.55795 22.2588 51.7696 -1.2 -9.15604 -3.04838e+06 -3.22287e+06 -5.12822e+06 512945 -188505 -642829
118 3 O -2.17411 22.8111 48.8277 -1.2 -8.62939 -1.39532e+06 -3.41057e+06 -3.67139e+06 18456.5 -345608 -1.48464e+06
119 1 Mg 0.0423997 21.3296 46.8225 1.2 -7.14601 2.27052e+06 -450727 1.13806e+06 1.12588e+06 1.59246e+06 -430610
120 3 O 0.458537 22.7495 48.3911 -1.2 -8.51824 -1.94005e+06 -1.46784e+06 -2.43039e+06 -297844 -342301 524437
121 1 Mg 1.61631 21.5026 54.6037 1.2 -8.19313 1.5942e+06 769878 -419950 -499213 1.20593e+06 1.01837e+06
122 2 Si 1.63521 24.2158 56.3118 2.4 -32.6247 4.5428e+06 4.94724e+06 1.03782e+07 -1.25195e+06 126918 256781
123 3 O 1.74535 22.5476 56.291 -1.2 -9.62914 -4.58235e+06 -580813 -6.82757e+06 435190 312335 102261
124 3 O 1.54441 24.9963 52.7297 -1.2 -9.29614 -2.93451e+06 -3.42988e+06 -5.93786e+06 -1.36751e+06 -906897 -982359
125 3 O 0.323622 24.7484 55.5928 -1.2 -9.2272 -4.10969e+06 -3.77437e+06 -4.84816e+06 -1.10822e+06 1.24813e+06 581264
126 3 O 2.73779 24.8477 55.5882 -1.2 -9.24554 -5.69678e+06 -5.70276e+06 -4.54423e+06 -1.1905e+06 1.58224e+06 1.03021e+06
127 1 Mg -0.0335968 23.6229 52.2067 1.2 -7.84048 -315460 -1.71868e+06 3.83708e+06 -1.61265e+06 2.24195e+06 913497
128 1 Mg 2.01073 23.3445 49.4541 1.2 -8.03011 2.44705e+06 545513 336172 163528 -161293 401094
129 2 Si 1.47594 25.6699 51.2449 2.4 -33.2912 8.40342e+06 5.77516e+06 9.78442e+06 917664 1.73439e+06 929936
130 3 O 1.58172 27.2371 51.3054 -1.2 -9.4196 -3.80306e+06 -2.005e+06 -4.20296e+06 880880 -1.74326e+06 -145686
131 3 O 1.51847 24.6579 57.8362 -1.2 -9.63014 -1.81728e+06 -2.47086e+06 -5.43957e+06 707314 326955 548987
132 3 O 0.157925 25.0378 50.6651 -1.2 -8.85776 -3.6713e+06 -2.59684e+06 -4.26982e+06 1.12316e+06 -764797 -297035
133 1 Mg -3.00341 23.6231 52.3098 1.2 -7.69255 -601813 -1.121e+06 3.50806e+06 1.96301e+06 -2.17202e+06 1.26008e+06
134 3 O 2.71149 25.0232 50.4656 -1.2 -9.15564 -2.98621e+06 -2.49638e+06 -2.52367e+06 -399925 752978 -755073
135 1 Mg -1.56816 23.7821 55.0011 1.2 -8.03975 2.61914e+06 489322 952299 -477653 445797 -1.35696e+06
136 2 Si -1.51292 21.6768 53.2479 2.4 -32.6398 9.65222e+06 6.43254e+06 1.14848e+07 208549 380204 157337
137 3 O -1.53797 20.0741 53.2039 -1.2 -9.48173 -3.43023e+06 1.69989e+06 -4.7983e+06 -49844.2 428853 1.22851e+06
138 3 O -1.03938 22.8897 46.4223 -1.2 -7.53679 -3.19597e+06 -2.00253e+06 -3.09014e+06 -603827 -1.50256e+06 561418
139 3 O -2.78379 22.4382 53.9491 -1.2 -9.39902 -2.18345e+06 -3.79068e+06 -5.96349e+06 -1.44426e+06 1.47314e+06 1.00197e+06
140 3 O -0.0818325 22.4104 53.8048 -1.2 -8.97798 478921 -3.18362e+06 -4.39544e+06 1.62297e+06 82868.6 631260
141 1 Mg -2.76781 30.7974 56.9636 1.2 -7.74137 -793094 -541922 4.54101e+06 -1.06484e+06 -1.13766e+06 -216518
142 1 Mg -1.38776 30.6357 49.8391 1.2 -8.89799 1.43801e+06 1.68938e+06 2.64841e+06 -129267 187311 885828
143 2 Si -0.907929 28.1491 47.9262 2.4 -34.9843 9.62737e+06 6.17255e+06 1.05587e+07 496729 2.25538e+06 631294
144 3 O -0.829229 29.7184 47.99 -1.2 -8.37109 -3.09936e+06 -3.81424e+06 -3.47252e+06 451265 -1.90356e+06 -540314
145 3 O -1.45946 27.0152 51.769 -1.2 -8.72576 -3.71525e+06 -2.57984e+06 -6.38946e+06 317682 1.55789e+06 -1.57244e+06
146 3 O -2.07744 27.5697 48.8273 -1.2 -8.46794 -1.56128e+06 -3.27626e+06 -3.89898e+06 -5083.47 -290382 -1.81446e+06
147 1 Mg 0.137907 26.087 46.819 1.2 -7.23356 2.43271e+06 -532638 1.20542e+06 1.1239e+06 1.59257e+06 -284538
148 3 O 0.55579 27.5065 48.3893 -1.2 -8.38997 -2.20978e+06 -1.32621e+06 -2.49979e+06 -284449 -354648 236840
149 1 Mg 1.25763 25.9388 54.42 1.2 -7.97617 1.59363e+06 936589 -1.85202e+06 592849 -883166 1.45571e+06
150 2 Si 1.56428 28.736 56.1504 2.4 -32.4618 7.67671e+06 585734 1.30768e+07 -94759.3 764131 3.15719e+06
151 3 O 1.50906 27.2585 56.39 -1.2 -9.83006 -4.13167e+06 -4.16271e+06 -5.33693e+06 -37802.4 1.09316e+06 -884504
152 3 O 1.6432 29.7522 52.7291 -1.2 -8.66527 -4.31037e+06 -2.23072e+06 -4.64576e+06 183620 -866898 -981580
153 3 O 0.215579 29.3539 55.5003 -1.2 -9.26894 -2.60589e+06 -3.02966e+06 -7.50432e+06 -1.19634e+06 -694627 -639142
154 3 O 2.80158 29.4365 55.4933 -1.2 -9.57624 -2.7352e+06 -3.08001e+06 -8.20498e+06 1.08051e+06 963958 -922434
155 1 Mg 0.0647462 28.3794 52.2059 1.2 -8.01556 1.29102e+06 -1.39195e+06 4.3594e+06 -1.43578e+06 1.87395e+06 1.43309e+06
156 1 Mg 2.10696 28.1021 49.4531 1.2 -8.22627 2.73878e+06 289349 625657 96229.6 -20594.1 731490
157 2 Si 1.57592 30.4257 51.2442 2.4 -33.969 9.82943e+06 4.3563e+06 1.08623e+07 56375.2 843915 1.10886e+06
158 3 O 1.68288 31.9926 51.3043 -1.2 -9.42111 -3.65946e+06 -1.96375e+06 -4.10943e+06 802272 -914648 -44083.3
159 3 O 1.59884 29.5583 57.6016 -1.2 -9.30309 -4.4069e+06 -2.78115e+06 -5.60708e+06 711938 514925 228141
160 3 O 0.258524 29.7935 50.6632 -1.2 -8.48224 -4.26854e+06 -1.97613e+06 -5.0331e+06 1.20599e+06 -511098 -865495
161 1 Mg -2.90462 28.3797 52.308 1.2 -8.33799 -581321 -1.75356e+06 2.36933e+06 1.74414e+06 -2.28859e+06 1.95917e+06
162 3 O 2.81205 29.7787 50.4664 -1.2 -8.85809 -3.70532e+06 -1.93483e+06 -3.0871e+06 -287461 576592 -719330
163 1 Mg -1.51288 28.5546 54.9529 1.2 -8.31517 833576 -508890 1.26988e+06 387263 779911 -862089
164 2 Si -1.40019 26.3567 53.2298 2.4 -32.8018 6.70284e+06 6.41229e+06 1.03565e+07 -1.20984e+06 -543619 -76203.2
165 3 O -1.49526 24.7452 53.1717 -1.2 -9.73488 -4.10068e+06 -1.00677e+06 -4.61977e+06 1.04159e+06 392241 1.24243e+06
166 3 O -0.943026 27.648 46.4208 -1.2 -7.45279 -3.32945e+06 -1.8368e+06 -3.2648e+06 -604826 -1.49664e+06 456681
167 3 O -2.87321 27.1293 53.7201 -1.2 -8.20235 -149176 -3.26413e+06 -6.97004e+06 -1.61849e+06 362990 1.52959e+06
168 3 O -0.317444 27.1022 53.9405 -1.2 -9.57625 -5.14032e+06 -3.36211e+06 -5.67512e+06 5798.51 -2.55166e+06 -435831
169 1 Mg -2.58964 35.7403 57.3207 1.2 -7.67347 -1.09557e+06 -3.17679e+06 4.5172e+06 -810479 -1.53149e+06 -481766
170 1 Mg -1.28421 35.3899 49.8376 1.2 -8.5699 1.08339e+06 1.7885e+06 2.37056e+06 -203641 173928 819952
171 2 Si -0.807101 32.9036 47.9247 2.4 -34.896 9.46007e+06 6.09747e+06 1.06618e+07 495847 2.32106e+06 88419
172 3 O -0.727174 34.4729 47.9885 -1.2 -8.49923 -2.90416e+06 -3.94451e+06 -3.3469e+06 459905 -1.92789e+06 -341451
173 3 O -1.35735 31.7701 51.768 -1.2 -8.69775 -3.12975e+06 -3.71353e+06 -5.09613e+06 204382 293484 -761505
174 3 O -1.97695 32.3253 48.826 -1.2 -8.48786 -1.58727e+06 -3.15797e+06 -3.96949e+06 18745.5 -357834 -1.53045e+06
175 1 Mg 0.237665 30.8412 46.8168 1.2 -7.27743 2.49769e+06 -744993 1.42672e+06 1.1243e+06 1.58849e+06 -413705
176 3 O 0.656562 32.2608 48.3877 -1.2 -8.39149 -2.15188e+06 -1.19488e+06 -2.68588e+06 -298129 -324501 502470
177 1 Mg 1.57227 30.9069 54.6239 1.2 -8.03659 1.64831e+06 1.38858e+06 522493 174487 108467 2.9116e+06
178 2 Si 1.82005 33.6866 56.3988 2.4 -34.2238 6.29521e+06 3.66666e+06 9.66457e+06 -295017 659422 182811
179 3 O 1.85541 32.1279 56.333 -1.2 -9.38553 -3.51413e+06 -2.01453e+06 -7.37021e+06 974880 -430979 217126
180 3 O 1.74574 34.5067 52.7279 -1.2 -8.9594 -3.10093e+06 -2.21555e+06 -5.12052e+06 20868.8 -246499 -1.87819e+06
181 3 O 0.538355 34.2845 55.7377 -1.2 -8.8805 -3.40161e+06 -3.4693e+06 -4.71015e+06 -169311 -1.44761e+06 -296665
182 3 O 3.10713 34.3537 55.7604 -1.2 -8.62674 -3.55602e+06 -4.32917e+06 -6.79584e+06 125131 2.06275e+06 376694
183 1 Mg 0.167046 33.1343 52.2045 1.2 -7.99671 -242699 -1.30937e+06 4.51778e+06 -741527 2.27441e+06 1.29115e+06
184 1 Mg 2.20727 32.8578 49.4516 1.2 -8.14535 2.67622e+06 239713 616386 101415 -156333 508869
185 2 Si 1.67943 35.1802 51.2429 2.4 -33.2786 7.83876e+06 4.3345e+06 1.17441e+07 475904 643346 1.33903e+06
186 3 O 1.78736 36.747 51.303 -1.2 -9.81133 -2.62846e+06 -1.9518e+06 -4.4378e+06 873916 -373745 28281.9
187 3 O 1.90211 34.2501 57.7938 -1.2 -8.52995 -3.73453e+06 -3.79738e+06 -1.06497e+07 888148 444575 415579
188 3 O 0.362533 34.5479 50.661 -1.2 -8.75402 -3.61646e+06 -2.06755e+06 -5.46157e+06 1.01262e+06 -602466 -576229
189 1 Mg -2.80215 33.1347 52.3062 1.2 -7.82295 76239.2 -1.44523e+06 3.70977e+06 1.99944e+06 -2.18728e+06 2.15789e+06
190 3 O 2.91593 34.533 50.466 -1.2 -9.18445 -3.19417e+06 -1.95833e+06 -2.85024e+06 -284786 878114 -832541
191 1 Mg -1.19538 33.3819 55.1142 1.2 -8.16372 2.76837e+06 496085 1.64311e+06 -156847 -273104 189127
192 2 Si -1.43404 31.1593 53.2579 2.4 -33.552 9.01924e+06 4.13272e+06 1.1176e+07 226791 -281469 2.322e+06
193 3 O -1.47301 29.5929 53.0803 -1.2 -9.07263 -4.87066e+06 -2.07247e+06 -5.4791e+06 -333225 -24474.3 1.20881e+06
194 3 O -0.842495 32.4028 46.4192 -1.2 -7.46393 -3.30695e+06 -1.77197e+06 -3.33542e+06 -606368 -1.50434e+06 660963
195 3 O -2.77751 31.8221 53.8265 -1.2 -8.94953 -2.51963e+06 -2.9976e+06 -5.62552e+06 -849350 578756 -1.30265e+06
196 3 O -0.170356 31.8093 53.9943 -1.2 -9.27495 -2.68456e+06 -2.37126e+06 -3.84525e+06 614642 -836418 -795449
197 1 Mg -2.60743 40.3945 57.5454 1.2 -7.72726 1.15285e+06 -1.77573e+06 4.52357e+06 -1.2561e+06 -1.41123e+06 -206500
198 1 Mg -1.17787 40.1435 49.8359 1.2 -8.3862 865558 1.78587e+06 2.28163e+06 -189554 274334 1.28738e+06
199 2 Si -0.702692 37.6572 47.9231 2.4 -34.5465 8.95277e+06 6.5172e+06 1.01844e+07 498242 2.35456e+06 285493
200 3 O -0.621782 39.2264 47.9868 -1.2 -8.62864 -2.71022e+06 -4.0882e+06 -3.20781e+06 462551 -1.94927e+06 -607470
201 3 O -1.25221 36.5242 51.7666 -1.2 -9.48402 -2.49397e+06 -2.30338e+06 -5.15653e+06 149197 406955 -623167
202 3 O -1.87295 37.0796 48.8243 -1.2 -8.73118 -1.24643e+06 -3.34362e+06 -3.75347e+06 15011.5 -313564 -1.56508e+06
203 1 Mg 0.341084 35.5943 46.8152 1.2 -7.16667 2.31696e+06 -570357 1.25733e+06 1.12543e+06 1.59741e+06 -498038
204 3 O 0.760681 37.0138 48.3864 -1.2 -8.59431 -1.79813e+06 -1.41469e+06 -2.50005e+06 -295994 -359664 466489
205 1 Mg 1.81319 35.6737 54.5725 1.2 -8.635 393284 808781 1.36152e+06 -230456 -136581 1.91442e+06
206 2 Si 2.03645 38.2584 56.4891 2.4 -33.2 8.15431e+06 7.49454e+06 9.32943e+06 1.95464e+06 -2.41017e+06 -387029
207 3 O 1.8829 36.6493 56.542 -1.2 -9.37633 -3.5291e+06 -2.52049e+06 -4.73547e+06 2.87503e+06 414928 662621
208 3 O 1.85132 39.2606 52.7264 -1.2 -9.32141 -2.15276e+06 -2.11762e+06 -5.77495e+06 621569 514576 -1.21465e+06
209 3 O 0.871755 38.8726 55.6418 -1.2 -8.46337 -3.72069e+06 -2.50185e+06 -5.98804e+06 -403190 -1.16904e+06 -806751
210 3 O 3.36207 39.0001 55.7819 -1.2 -8.5599 -3.83567e+06 -592178 -2.42624e+06 1.06776e+06 -664830 -1.12366e+06
211 1 Mg 0.272384 37.8883 52.2029 1.2 -7.55427 -865699 -1.30107e+06 5.18465e+06 -1.30521e+06 2.14937e+06 1.69956e+06
212 1 Mg 2.31122 37.6122 49.4501 1.2 -7.87193 2.15234e+06 419113 528960 85838.9 -214095 553315
213 2 Si 1.78573 39.934 51.2414 2.4 -32.7773 6.74592e+06 4.49699e+06 1.17939e+07 265792 -25757.2 1.38813e+06
214 3 O 1.89428 41.5006 51.3014 -1.2 -9.81824 -2.99921e+06 -1.60979e+06 -4.45029e+06 619633 6729.75 -63268
215 3 O 1.86696 39.0831 57.7999 -1.2 -9.4403 -4.1943e+06 -2.6921e+06 -8.81578e+06 -748812 240799 1.42098e+06
216 3 O 0.469216 39.3015 50.6588 -1.2 -9.09815 -2.66283e+06 -2.28581e+06 -5.15207e+06 1.20097e+06 -1.07574e+06 -889433
217 1 Mg -2.69668 37.8889 52.3043 1.2 -7.32601 -412220 -845397 4.97786e+06 1.81403e+06 -1.68881e+06 1.40862e+06
218 3 O 3.0225 39.2866 50.4651 -1.2 -9.51457 -2.63796e+06 -2.11685e+06 -2.52478e+06 -361378 1.17274e+06 -952372
219 1 Mg -0.93886 37.9035 55.1067 1.2 -8.36119 3.62953e+06 2.06271e+06 191323 -190167 -53873.4 -378825
220 2 Si -1.15351 35.8534 53.2043 2.4 -32.6724 1.04253e+07 3.6238e+06 1.1756e+07 -18650 28779.9 2.53861e+06
221 3 O -1.17673 34.2986 53.1015 -1.2 -9.60956 -4.32614e+06 -1.63894e+06 -4.93184e+06 1.02751e+06 648099 -278930
222 3 O -0.738054 37.1566 46.4176 -1.2 -7.5684 -3.1456e+06 -1.96497e+06 -3.14204e+06 -606877 -1.50796e+06 605479
223 3 O -2.51117 36.4505 53.9649 -1.2 -9.00586 -828128 -3.17101e+06 -3.63386e+06 -1.58865e+06 240259 -20335.1
224 3 O 0.189315 36.5373 53.8966 -1.2 -9.26687 -1.33568e+06 -3.65581e+06 -3.1529e+06 1.5456e+06 -8234.66 -263856
225 1 Mg -2.52628 45.2121 57.1453 1.2 -8.16534 1.97736e+06 -1.79152e+06 4.09471e+06 -2.01057e+06 -1.50183e+06 -343232
226 1 Mg -1.06993 44.8968 49.8343 1.2 -8.71837 1.22462e+06 1.41667e+06 2.81901e+06 -212441 148861 1.37214e+06
227 2 Si -0.596166 42.4103 47.9215 2.4 -34.6666 9.12086e+06 6.08287e+06 1.06475e+07 471917 2.33978e+06 883333
228 3 O -0.51472 43.9796 47.9853 -1.2 -8.47758 -2.93931e+06 -3.74424e+06 -3.56642e+06 473477 -1.92192e+06 -802778
229 3 O -1.14475 41.2777 51.7649 -1.2 -9.26895 -2.61019e+06 -403885 -6.89384e+06 624522 -195174 -1.55774e+06
230 3 O -1.76671 41.8331 48.8226 -1.2 -8.70326 -1.27959e+06 -3.15183e+06 -3.96704e+06 18289.3 -345480 -1.90832e+06
231 1 Mg 0.447076 40.3473 46.8135 1.2 -7.12483 2.24535e+06 -550927 1.24216e+06 1.12219e+06 1.59994e+06 -206307
232 3 O 0.866985 41.7666 48.385 -1.2 -8.57326 -1.82784e+06 -1.24788e+06 -2.67683e+06 -288356 -337955 158542
233 1 Mg 1.94429 40.379 54.4962 1.2 -8.56275 2.42532e+06 2.39941e+06 865702 358873 517539 852983
234 2 Si 1.88917 43.052 56.3917 2.4 -34.3119 7.46722e+06 4.4602e+06 9.46908e+06 -986276 -518418 2.18619e+06
235 3 O 1.95376 41.5472 56.5012 -1.2 -9.22398 -3.53685e+06 -4.703e+06 -3.8576e+06 290424 1.32502e+06 990588
236 3 O 1.95891 44.014 52.7248 -1.2 -9.24267 -2.83802e+06 -1.6668e+06 -5.77941e+06 -501548 -411267 -1.09332e+06
237 3 O 0.663752 43.6566 55.6759 -1.2 -8.07285 -6.23759e+06 -3.22402e+06 -5.17887e+06 -43674.6 -1.18595e+06 -595733
238 3 O 3.07929 43.7709 55.7849 -1.2 -8.53795 -8.20553e+06 -3.218e+06 -6.34991e+06 -452292 1.00941e+06 -505924
239 1 Mg 0.379928 42.6418 52.2013 1.2 -7.79632 -219132 -1.49326e+06 5.53088e+06 -1.27994e+06 1.47544e+06 1.26978e+06
240 1 Mg 2.41752 42.366 49.4484 1.2 -7.94555 2.33416e+06 145301 744727 140038 -187544 812166
241 2 Si 1.89374 44.6874 51.2398 2.4 -33.3638 8.51154e+06 3.7304e+06 1.16864e+07 546050 827330 1.23332e+06
242 3 O 2.00266 46.254 51.2996 -1.2 -9.38591 -4.01551e+06 -1.08729e+06 -4.51788e+06 760417 -769692 55777
243 3 O 1.81483 43.9359 57.8663 -1.2 -8.46378 -4.63268e+06 -1.57654e+06 -5.50972e+06 375817 731727 930033
244 3 O 0.577464 44.0549 50.6567 -1.2 -8.86992 -3.27807e+06 -1.98602e+06 -4.97642e+06 1.27356e+06 -1.01613e+06 -832742
245 1 Mg -2.58906 42.6425 52.3022 1.2 -7.62812 -49087.8 -1.40738e+06 5.04092e+06 1.67607e+06 -1.22389e+06 1.40749e+06
246 3 O 3.13067 44.0398 50.464 -1.2 -9.21786 -3.00671e+06 -1.82418e+06 -2.94553e+06 -432586 981313 -1.07297e+06
247 1 Mg -1.07704 42.6277 55.1805 1.2 -8.82252 3.27342e+06 1.70353e+06 -56686.3 -42979.7 -186729 59911.4
248 2 Si -1.07855 40.5743 53.2168 2.4 -33.2315 7.68713e+06 4.51991e+06 1.16782e+07 -236612 -53289.2 64911.5
249 3 O -1.0775 39.0467 53.3243 -1.2 -9.74859 -3.81572e+06 -1.74045e+06 -4.19299e+06 -61792.5 643121 -469653
250 3 O -0.631421 41.9099 46.4159 -1.2 -7.54286 -3.185e+06 -1.83403e+06 -3.27488e+06 -603432 -1.5079e+06 315574
251 3 O -2.25927 41.3744 53.9659 -1.2 -9.00497 -3.01764e+06 -3.10798e+06 -3.6947e+06 -935399 1.1002e+06 699547
252 3 O 0.271381 41.2535 53.8097 -1.2 -8.73755 -2.91658e+06 -4.1444e+06 -3.33228e+06 1.62143e+06 -428041 -146480
253 1 Mg -2.45887 49.8921 57.1696 1.2 -8.29542 -449455 -2.29831e+06 3.7806e+06 -743332 -1.82934e+06 -455111
254 1 Mg -0.961069 49.6502 49.8327 1.2 -9.01147 1.60591e+06 1.41528e+06 2.91963e+06 -187776 68332.1 658424
255 2 Si -0.488083 47.1636 47.9198 2.4 -35.1478 9.86588e+06 5.24409e+06 1.15132e+07 475953 2.26655e+06 589641
256 3 O -0.40607 48.7329 47.9837 -1.2 -8.25384 -3.28924e+06 -3.45294e+06 -3.8576e+06 466910 -1.89311e+06 -476630
257 3 O -1.0361 46.031 51.7632 -1.2 -8.54318 -2.94362e+06 -246681 -5.7924e+06 309296 506858 -1.8961e+06
258 3 O -1.65866 46.5866 48.821 -1.2 -8.3953 -1.67633e+06 -2.71105e+06 -4.5003e+06 16706.8 -343262 -1.79691e+06
259 1 Mg 0.554124 45.1001 46.8117 1.2 -7.27322 2.49398e+06 -923919 1.60514e+06 1.12025e+06 1.59081e+06 -101197
260 3 O 0.974961 46.5195 48.3832 -1.2 -8.31743 -2.29841e+06 -792532 -3.06539e+06 -286676 -318599 242361
261 1 Mg 1.94538 45.0187 54.4805 1.2 -8.8706 2.98733e+06 1.72408e+06 264220 -208343 -1.2522e+06 868594
262 2 Si 1.77087 47.909 56.3471 2.4 -33.9944 1.19751e+07 64550.1 1.2231e+07 165317 890857 3.2166e+06
263 3 O 1.83842 46.4216 56.3122 -1.2 -8.68333 -5.54898e+06 -3.38786e+06 -4.97684e+06 -781954 203203 -770412
264 3 O 2.0677 48.7672 52.7232 -1.2 -8.69326 -3.87098e+06 -994339 -4.46605e+06 -311387 -789758 -111406
265 3 O 0.431293 48.591 55.6527 -1.2 -8.67885 -1.00181e+06 -2.9997e+06 -4.73503e+06 -388547 524922 -607240
266 3 O 3.1466 48.5216 55.7123 -1.2 -8.80272 -2.98481e+06 -3.37435e+06 -7.27263e+06 -258992 1.38131e+06 -762527
267 1 Mg 0.488584 47.395 52.1996 1.2 -8.27796 1.33667e+06 -2.13932e+06 5.50115e+06 -1.1943e+06 1.63749e+06 647242
268 1 Mg 2.52544 47.1195 49.4466 1.2 -8.29476 2.93854e+06 -310292 1.16215e+06 129369 -61742.3 604640
269 2 Si 2.00256 49.4407 51.2382 2.4 -34.0633 9.89948e+06 3.55046e+06 1.16172e+07 426307 1.2125e+06 -48555.3
270 3 O 2.11156 51.0073 51.2982 -1.2 -9.32355 -3.79801e+06 -1.81602e+06 -3.96537e+06 756503 -979496 425398