ITEM: TIMESTEP
22500
ITEM: NUMBER OF ATOMS
10500
ITEM: BOX BOUNDS xy xz yz pp pp pp
0.0000000000000000e+00 8.9687999999999999e+00 2.9895999999999998e+00
0.0000000000000000e+00 1.1872499999999999e+02 0.0000000000000000e+00
0.0000000000000000e+00 2.5297749999999999e+02 0.0000000000000000e+00
ITEM: ATOMS id type element xu yu zu q c_pe c_s[1] c_s[2] c_s[3] c_s[4] c_s[5] c_s[6]
1 1 Mg -3.29637 7.04664 57.2959 1.2 -7.79398 -398505 -1.07689e+06 3.72994e+06 -1.44909e+06 -1.50847e+06 651536
2 1 Mg -1.82655 6.90154 50.0912 1.2 -7.9973 -329681 1.50944e+06 839797 -143396 -254532 1.44522e+06
3 2 Si -0.257935 3.96038 48.0876 2.4 -36.0716 1.00311e+07 9.409e+06 1.02076e+07 801692 1.95415e+06 1.63661e+06
4 3 O -0.335812 5.46814 47.6264 -1.2 -7.8464 -2.98447e+06 -2.85273e+06 -2.14618e+06 143444 -964574 -535123
5 3 O -2.03793 3.43377 51.8941 -1.2 -8.62797 -3.74505e+06 -1.69329e+06 -6.25206e+06 -1.21137e+06 -17347.5 -2.35384e+06
6 3 O -1.54015 3.53929 48.9521 -1.2 -8.27161 -1.3186e+06 -1.91701e+06 -4.06592e+06 28201.8 -750300 -235904
7 1 Mg 1.82954 2.54582 47.1376 1.2 -8.0489 2.70182e+06 -184871 429721 1.14859e+06 831162 494765
8 3 O 1.22989 3.66364 48.7877 -1.2 -8.00134 -1.70062e+06 -2.67278e+06 -3.36465e+06 -479957 -701610 -954425
9 1 Mg 0.941645 2.33545 54.5608 1.2 -8.33537 1.98157e+06 915839 1.83091e+06 -399247 -51614.3 1.21987e+06
10 2 Si 1.06334 5.04902 56.3046 2.4 -32.6385 7.62193e+06 5.09845e+06 9.96326e+06 14157.5 978173 3.06805e+06
11 3 O 0.976139 3.50634 56.4678 -1.2 -9.79331 -3.85081e+06 -1.88677e+06 -3.69768e+06 1.49145e+06 -360784 -1.45125e+06
12 3 O 1.10813 6.07342 52.8172 -1.2 -9.5279 -2.83841e+06 -3.01691e+06 -4.60977e+06 -140603 -267749 -1.67371e+06
13 3 O -0.335198 5.63057 55.7979 -1.2 -9.09877 -1.42442e+06 -3.22357e+06 -6.54179e+06 -559189 -1.18373e+06 -1.76871e+06
14 3 O 2.28308 5.75447 55.6433 -1.2 -9.66177 -2.84002e+06 -3.23735e+06 -5.64096e+06 890295 1.67077e+06 -614775
15 1 Mg -0.459401 4.67631 52.2426 1.2 -8.1197 -884182 -1.4431e+06 4.96269e+06 -1.22788e+06 1.24704e+06 1.40294e+06
16 1 Mg 2.79456 3.9971 49.9987 1.2 -8.37123 3.65161e+06 134380 1.38298e+06 -513979 886526 -847427
17 2 Si 1.16169 6.59457 51.2556 2.4 -32.9583 6.50953e+06 6.84027e+06 1.08146e+07 350532 537312 2.87766e+06
18 3 O 1.28989 8.18905 51.2909 -1.2 -9.93848 -2.3174e+06 -2.00024e+06 -3.17296e+06 320628 -866345 417163
19 3 O 1.10303 5.79811 57.7957 -1.2 -9.11468 -4.09454e+06 -3.69449e+06 -5.04777e+06 671476 -708008 674423
20 3 O -0.184847 6.06029 50.6845 -1.2 -8.92737 -2.63881e+06 -3.44088e+06 -4.80241e+06 1.44101e+06 -302370 -1.37098e+06
21 1 Mg -3.49704 4.67769 52.6661 1.2 -7.42777 230628 -1.60139e+06 2.5777e+06 2.377e+06 -1.26963e+06 1.4109e+06
22 3 O 2.48581 5.93312 50.6539 -1.2 -9.46745 -2.81161e+06 -1.80643e+06 -2.75233e+06 -1.61484e+06 -613039 -988775
23 1 Mg -2.03127 4.63926 55.1041 1.2 -8.14607 1.61754e+06 917738 300284 401773 -540741 -140263
24 2 Si -1.97256 2.61619 53.3288 2.4 -33.3099 7.76816e+06 3.55835e+06 1.26671e+07 2.33482e+06 -231541 -777667
25 3 O -1.93727 1.07101 53.1994 -1.2 -9.55654 -4.04305e+06 -1.8375e+06 -4.63957e+06 552232 210120 339985
26 3 O -0.0467762 2.97103 46.8385 -1.2 -6.96761 -3.03238e+06 -2.47749e+06 -2.54982e+06 -988815 -2.00232e+06 -585417
27 3 O -3.21393 3.1934 54.0735 -1.2 -9.33468 -3.28037e+06 -2.75584e+06 -6.79873e+06 -1.19023e+06 897815 220938
28 3 O -0.668934 3.38446 53.8889 -1.2 -8.98716 -2.49753e+06 -2.69541e+06 -6.228e+06 1.26858e+06 -789038 -40951.1
29 1 Mg -3.24016 11.744 57.3641 1.2 -7.52581 -344405 89969.8 4.46321e+06 -941907 -1.54138e+06 -981905
30 1 Mg -1.75014 11.5838 49.8362 1.2 -8.27383 466431 2.02591e+06 2.46566e+06 -317511 282520 1.15169e+06
31 2 Si -1.18003 9.02138 47.9309 2.4 -34.1305 7.95771e+06 8.06816e+06 8.86421e+06 232255 2.60349e+06 766710
32 3 O -1.23224 10.5991 47.9811 -1.2 -8.86248 -2.25778e+06 -3.89426e+06 -2.48813e+06 655078 -1.91459e+06 -228198
33 3 O -1.79016 8.01447 51.8693 -1.2 -9.60908 -2.15711e+06 -2.916e+06 -5.15666e+06 108827 281159 -1.71666e+06
34 3 O -2.30986 8.37215 48.8528 -1.2 -9.14491 -729953 -3.0432e+06 -2.87203e+06 -334746 -601063 -1.0528e+06
35 1 Mg 0.154883 7.08234 46.8007 1.2 -7.44871 1.77337e+06 303364 340268 944025 1.72385e+06 -942811
36 3 O 0.325447 8.50934 48.3809 -1.2 -8.77465 -1.18367e+06 -2.44957e+06 -2.24731e+06 -32882.2 -828159 164689
37 1 Mg 1.19081 7.17441 54.5564 1.2 -7.74508 1.04176e+06 296063 1.13212e+06 373657 -67768.7 1.66271e+06
38 2 Si 1.17645 9.73699 56.3781 2.4 -32.4884 6.7607e+06 4.67075e+06 1.14745e+07 -235593 379774 -476329
39 3 O 1.11196 8.17215 56.4857 -1.2 -9.6387 -2.95226e+06 -2.8267e+06 -5.66706e+06 -329240 249619 -1.37461e+06
40 3 O 1.28624 10.7248 52.7351 -1.2 -9.73073 -2.71946e+06 -1.44256e+06 -4.36489e+06 266377 -601044 -1.04078e+06
41 3 O -0.143863 10.5041 55.82 -1.2 -9.72638 -1.61815e+06 -3.2165e+06 -5.25479e+06 -1.01841e+06 -1.03051e+06 -1.17279e+06
42 3 O 2.47552 10.3887 55.7153 -1.2 -9.49805 -449910 -2.59569e+06 -5.73301e+06 662991 1.40491e+06 -444383
43 1 Mg -0.262694 9.34741 52.2523 1.2 -7.33504 -790385 -539390 4.481e+06 -1.84864e+06 1.42852e+06 1.85629e+06
44 1 Mg 1.87648 9.01537 49.4629 1.2 -7.66322 1.66016e+06 944451 -111014 242963 -247981 607136
45 2 Si 1.21415 11.3799 51.2378 2.4 -32.5052 7.66669e+06 4.79175e+06 1.05328e+07 282778 453108 1.49983e+06
46 3 O 1.31634 12.9512 51.3023 -1.2 -10.0572 -2.87702e+06 -1.63167e+06 -3.754e+06 620392 -364933 231768
47 3 O 1.30521 10.2801 57.8568 -1.2 -9.14399 -3.01597e+06 -3.15291e+06 -6.40227e+06 374629 130201 -3180.68
48 3 O -0.115718 10.7564 50.681 -1.2 -9.14102 -2.70387e+06 -2.45737e+06 -4.65876e+06 1.31725e+06 -422347 -1.17412e+06
49 1 Mg -3.26386 9.35564 52.3622 1.2 -7.2304 -995903 -600249 4.04746e+06 2.11912e+06 -1.43139e+06 1.70558e+06
50 3 O 2.45216 10.7265 50.4558 -1.2 -9.64238 -2.47488e+06 -2.00212e+06 -2.13566e+06 -854961 460557 -563735
51 1 Mg -1.69877 9.46685 55.2008 1.2 -7.85393 981999 1.09397e+06 1.08373e+06 -312282 -506692 -965153
52 2 Si -1.74826 7.40648 53.386 2.4 -32.2406 5.79824e+06 6.16035e+06 1.16601e+07 -726430 -550267 1.2062e+06
53 3 O -1.85321 5.83103 53.3569 -1.2 -9.65776 -2.7332e+06 -1.47149e+06 -5.72429e+06 1.8615e+06 -309190 -397150
54 3 O -1.19417 8.46968 46.4488 -1.2 -7.71812 -2.598e+06 -2.46096e+06 -2.52998e+06 -541516 -1.74139e+06 715186
55 3 O -3.06441 8.10525 54.0337 -1.2 -9.52672 -641494 -3.6845e+06 -4.58253e+06 -850628 724984 -600175
56 3 O -0.502247 8.14122 54.0003 -1.2 -9.92088 -2.23483e+06 -3.10053e+06 -4.39123e+06 1.03148e+06 -885553 -486463
57 1 Mg -3.24683 16.5802 57.4642 1.2 -7.70537 -1.13158e+06 -662944 3.73779e+06 -1.07379e+06 -1.724e+06 -315196
58 1 Mg -1.6714 16.3544 49.8412 1.2 -8.20308 455777 1.99736e+06 2.26413e+06 -246155 153846 883707
59 2 Si -1.18567 13.8526 47.9314 2.4 -34.0008 8.03607e+06 6.60763e+06 1.0065e+07 501540 2.25151e+06 -5681.57
60 3 O -1.09664 15.4205 47.9915 -1.2 -8.91434 -2.16084e+06 -4.03719e+06 -3.04109e+06 427034 -1.92858e+06 -308012
61 3 O -1.73493 12.7491 51.7772 -1.2 -9.22763 -1.87529e+06 -2.63367e+06 -5.26518e+06 273009 42349.8 -779712
62 3 O -2.36115 13.2717 48.8238 -1.2 -8.98039 -848706 -3.23774e+06 -3.70948e+06 -92161.8 -377691 -1.42912e+06
63 1 Mg -0.159928 11.7639 46.8533 1.2 -6.86876 1.86889e+06 -273648 921006 1.12783e+06 1.56805e+06 -680623
64 3 O 0.2623 13.1866 48.413 -1.2 -8.88072 -1.37991e+06 -1.30563e+06 -2.46459e+06 -209533 -279554 595153
65 1 Mg 1.36469 11.8727 54.5454 1.2 -7.84783 2.02192e+06 1.01363e+06 1.26554e+06 -643596 337047 1.39661e+06
66 2 Si 1.31506 14.4742 56.3491 2.4 -32.8912 7.98131e+06 4.46164e+06 1.12125e+07 969227 622801 631492
67 3 O 1.25023 12.9463 56.3873 -1.2 -9.83089 -3.87161e+06 -2.20853e+06 -4.4779e+06 -116231 -159051 -1.61404e+06
68 3 O 1.36565 15.4813 52.729 -1.2 -9.62349 -2.26677e+06 -2.25646e+06 -4.63249e+06 -141442 -151590 -1.17478e+06
69 3 O 0.0309094 15.2019 55.7599 -1.2 -9.56755 -1.91453e+06 -3.91148e+06 -4.14305e+06 -1.25189e+06 -757479 -290417
70 3 O 2.62753 15.2376 55.8026 -1.2 -9.22066 -1.53722e+06 -3.00146e+06 -5.30153e+06 1.57476e+06 748345 -162852
71 1 Mg -0.206989 14.1049 52.2121 1.2 -7.46687 -1.03389e+06 -1.28728e+06 4.48951e+06 -1.14028e+06 2.0038e+06 1.32441e+06
72 1 Mg 1.82591 13.8102 49.4556 1.2 -7.65021 1.92976e+06 546322 329223 124557 -120500 496770
73 2 Si 1.29285 16.1518 51.2434 2.4 -32.447 6.80451e+06 4.70563e+06 1.11132e+07 565280 584257 1.03382e+06
74 3 O 1.39496 17.7199 51.3047 -1.2 -10.0521 -2.62929e+06 -1.73091e+06 -4.28297e+06 626500 -728376 335620
75 3 O 1.42801 15.0454 57.8996 -1.2 -9.00042 -3.04676e+06 -2.79335e+06 -4.99593e+06 -577273 972757 1.40373e+06
76 3 O -0.0269106 15.5178 50.6688 -1.2 -9.23674 -2.77483e+06 -2.28069e+06 -4.95664e+06 1.04614e+06 -726592 -497808
77 1 Mg -3.18391 14.1057 52.3125 1.2 -7.2338 -795720 -985121 4.08669e+06 1.60674e+06 -1.79549e+06 1.27211e+06
78 3 O 2.52432 15.503 50.4579 -1.2 -9.63238 -2.4065e+06 -2.14399e+06 -2.45786e+06 -352278 851659 -628619
79 1 Mg -1.65389 14.3161 55.0396 1.2 -8.0569 1.70153e+06 912303 1.01714e+06 -182035 -606127 -256723
80 2 Si -1.67715 12.1399 53.3004 2.4 -32.7218 5.73576e+06 2.8995e+06 1.28926e+07 339798 88854.4 866059
81 3 O -1.72146 10.6283 53.2523 -1.2 -9.73202 -2.48715e+06 -3.09218e+06 -4.81711e+06 354664 483168 590040
82 3 O -1.21337 13.3381 46.4311 -1.2 -7.84239 -2.76267e+06 -2.08106e+06 -2.96259e+06 -631506 -1.45204e+06 794974
83 3 O -2.95682 12.8322 53.9633 -1.2 -9.54115 -2.0276e+06 -2.57832e+06 -5.28903e+06 -513904 693733 -337530
84 3 O -0.388139 12.8656 53.8875 -1.2 -9.45584 -1.60503e+06 -2.61644e+06 -5.09379e+06 362026 -703180 -190435
85 1 Mg -3.0855 21.2041 57.4948 1.2 -7.69356 -864913 -704086 4.09121e+06 -490931 -1.74079e+06 -662179
86 1 Mg -1.5831 21.1217 49.8405 1.2 -8.15515 454185 1.99067e+06 2.15067e+06 -155637 187903 881108
87 2 Si -1.09384 18.6291 47.9287 2.4 -33.9777 8.02924e+06 6.62022e+06 1.0083e+07 495825 2.30455e+06 6241.62
88 3 O -1.02071 20.1985 47.9911 -1.2 -8.90535 -2.25018e+06 -4.10503e+06 -3.0795e+06 451163 -1.9295e+06 -341214
89 3 O -1.65002 17.5002 51.771 -1.2 -9.40581 -2.33383e+06 -2.10693e+06 -5.67939e+06 613874 1.11137e+06 -1.12538e+06
90 3 O -2.26174 18.0434 48.8281 -1.2 -9.01366 -761112 -3.27583e+06 -3.78888e+06 -12848.7 -322669 -1.39912e+06
91 1 Mg -0.0440435 16.5651 46.8269 1.2 -6.84255 1.76862e+06 -336868 1.02668e+06 1.13522e+06 1.58263e+06 -567621
92 3 O 0.37001 17.9877 48.3925 -1.2 -8.89556 -1.35883e+06 -1.42908e+06 -2.43889e+06 -290937 -355965 582206
93 1 Mg 1.4015 16.5924 54.5648 1.2 -8.02266 1.24925e+06 635622 1.63357e+06 133252 -44493.3 933384
94 2 Si 1.39781 19.2107 56.2877 2.4 -32.451 5.19629e+06 5.28489e+06 1.19681e+07 788793 -529369 2.36589e+06
95 3 O 1.3201 17.6599 56.3935 -1.2 -9.78662 -3.02324e+06 -2.50099e+06 -4.23029e+06 1.10001e+06 -504531 -1.14839e+06
96 3 O 1.45147 20.239 52.7294 -1.2 -9.66116 -2.28491e+06 -2.57338e+06 -4.79487e+06 426779 -522908 -1.15302e+06
97 3 O 0.169166 19.8546 55.6244 -1.2 -9.73112 -2.58675e+06 -3.66639e+06 -4.81084e+06 -396458 -1.37929e+06 100665
98 3 O 2.66213 19.9617 55.7366 -1.2 -9.71454 -2.49991e+06 -2.60512e+06 -4.95604e+06 866733 883095 -26115.4
99 1 Mg -0.126194 18.8651 52.2079 1.2 -7.2648 -303031 -1.20168e+06 4.81367e+06 -1.31708e+06 1.83249e+06 926372
100 1 Mg 1.92402 18.5815 49.4545 1.2 -7.62537 1.75334e+06 424727 494920 107050 -93227.8 369168
101 2 Si 1.38106 20.9117 51.2443 2.4 -32.3324 6.28906e+06 4.96665e+06 1.11521e+07 29515.5 718958 1.02457e+06
102 3 O 1.48527 22.4795 51.3054 -1.2 -10.0777 -2.40847e+06 -1.75796e+06 -4.35712e+06 694244 -592247 165565
103 3 O 1.32634 19.8876 57.8895 -1.2 -8.95983 -1.46878e+06 -2.1693e+06 -3.37269e+06 -607754 101010 1.22141e+06
104 3 O 0.0615419 20.2804 50.6669 -1.2 -9.33765 -2.61938e+06 -2.38661e+06 -4.58236e+06 1.11027e+06 -966238 -601842
105 1 Mg -3.09665 18.8643 52.3122 1.2 -7.44236 -1.75685e+06 -1.53614e+06 3.65635e+06 1.27764e+06 -2.09449e+06 982403
106 3 O 2.61548 20.2646 50.4626 -1.2 -9.66677 -2.26754e+06 -2.17888e+06 -2.74301e+06 -272854 842885 -450398
107 1 Mg -1.62518 19.018 55.0834 1.2 -7.75286 1.5439e+06 1.2361e+06 1.69659e+06 -157906 82414 -530532
108 2 Si -1.58471 16.8188 53.2397 2.4 -32.1562 7.97922e+06 4.14372e+06 1.20902e+07 -531504 814464 655168
109 3 O -1.61779 15.2782 53.194 -1.2 -10.1643 -2.92811e+06 -2.55738e+06 -4.81334e+06 674885 112932 840936
110 3 O -1.12868 18.1227 46.4249 -1.2 -7.85978 -2.69382e+06 -2.09382e+06 -2.98442e+06 -604299 -1.49387e+06 724096
111 3 O -2.91441 17.5488 53.8526 -1.2 -9.45327 -670194 -2.54448e+06 -5.68668e+06 -1.49627e+06 796430 803565
112 3 O -0.252301 17.5065 53.915 -1.2 -9.53907 -575478 -2.1994e+06 -3.96644e+06 1.34331e+06 -516389 71000.7
113 1 Mg -2.86186 26.0144 57.2749 1.2 -7.89626 -580689 -1.39145e+06 4.40801e+06 -420259 -1.80659e+06 -551295
114 1 Mg -1.48778 25.88 49.8402 1.2 -8.3493 617939 1.7043e+06 2.56307e+06 -183539 245717 1.03225e+06
115 2 Si -1.00491 23.3922 47.9274 2.4 -34.0621 8.14797e+06 6.48165e+06 1.02446e+07 491810 2.34145e+06 263819
116 3 O -0.927602 24.9615 47.9909 -1.2 -8.81439 -2.38339e+06 -3.97074e+06 -3.30635e+06 462688 -1.93322e+06 -467499
117 3 O -1.55795 22.2588 51.7696 -1.2 -9.619 -2.29171e+06 -1.29637e+06 -6.12259e+06 383424 274592 -1.24821e+06
118 3 O -2.17411 22.8111 48.8277 -1.2 -8.99467 -826352 -3.30892e+06 -3.77087e+06 -4587.5 -336131 -1.56192e+06
119 1 Mg 0.0423997 21.3296 46.8225 1.2 -6.84825 1.79931e+06 -390415 1.07184e+06 1.12634e+06 1.596e+06 -482688
120 3 O 0.458537 22.7495 48.3911 -1.2 -8.86653 -1.3761e+06 -1.41439e+06 -2.50215e+06 -286668 -351415 460787
121 1 Mg 1.35861 21.2192 54.5934 1.2 -7.78152 1.66469e+06 1.04149e+06 1.26359e+06 326227 -169535 1.48998e+06
122 2 Si 1.42795 23.9446 56.4515 2.4 -33.042 5.80387e+06 5.41774e+06 1.24462e+07 731518 359190 -1.30254e+06
123 3 O 1.30611 22.4069 56.6367 -1.2 -9.70839 -2.49768e+06 -2.79405e+06 -5.3002e+06 148834 120597 215122
124 3 O 1.54441 24.9963 52.7297 -1.2 -9.50227 -2.34502e+06 -1.72755e+06 -5.38808e+06 255329 -644378 -765938
125 3 O 0.151081 24.5865 55.8031 -1.2 -9.27017 -3.94384e+06 -3.14948e+06 -3.81174e+06 -855009 -1.34127e+06 310158
126 3 O 2.66597 24.681 55.716 -1.2 -9.04634 -1.66085e+06 -2.09824e+06 -5.13658e+06 1.39736e+06 1.00804e+06 -495119
127 1 Mg -0.0335968 23.6229 52.2067 1.2 -7.44658 -619539 -1.03447e+06 5.15221e+06 -1.24086e+06 1.71672e+06 909711
128 1 Mg 2.01073 23.3445 49.4541 1.2 -7.65178 1.82349e+06 344847 551972 116393 -178041 494096
129 2 Si 1.47594 25.6699 51.2449 2.4 -32.6342 7.33229e+06 4.10861e+06 1.13615e+07 252822 484161 524516
130 3 O 1.58172 27.2371 51.3054 -1.2 -9.90743 -3.17112e+06 -1.5031e+06 -3.87013e+06 705751 -518304 336127
131 3 O 1.54267 24.6515 57.9209 -1.2 -9.03664 -2.43739e+06 -3.94449e+06 -6.35927e+06 202231 -193707 2.23487e+06
132 3 O 0.157925 25.0378 50.6651 -1.2 -9.16193 -2.72285e+06 -2.18294e+06 -5.01639e+06 1.28507e+06 -883659 -635852
133 1 Mg -3.00341 23.6231 52.3098 1.2 -7.33716 -798817 -1.64342e+06 4.59192e+06 1.897e+06 -1.78344e+06 1.32566e+06
134 3 O 2.71149 25.0232 50.4656 -1.2 -9.57459 -2.56015e+06 -1.95708e+06 -2.68973e+06 -430887 971262 -650865
135 1 Mg -1.45521 23.7001 55.1031 1.2 -8.09417 2.35099e+06 975060 802160 -392676 -694002 -831281
136 2 Si -1.60061 21.565 53.2145 2.4 -32.0574 7.53557e+06 5.62182e+06 1.15594e+07 762878 -258775 995518
137 3 O -1.71831 19.9796 53.2016 -1.2 -10.1656 -3.20008e+06 -1.40779e+06 -4.45162e+06 -254783 25233.8 160835
138 3 O -1.03938 22.8897 46.4223 -1.2 -7.83224 -2.72406e+06 -2.03651e+06 -3.05651e+06 -606449 -1.504e+06 617446
139 3 O -2.84757 22.3258 53.8823 -1.2 -9.377 -967551 -2.70618e+06 -4.29358e+06 -689039 234601 105322
140 3 O -0.259174 22.2331 53.9162 -1.2 -9.53256 -1.06946e+06 -1.85064e+06 -3.1171e+06 1.63581e+06 -110352 416550
141 1 Mg -2.8015 30.7949 57.3851 1.2 -8.05702 291695 -939030 3.88101e+06 -819533 -1.89599e+06 -1.3393e+06
142 1 Mg -1.38776 30.6357 49.8391 1.2 -8.46901 712786 1.68715e+06 2.68251e+06 -171615 293311 379527
143 2 Si -0.907929 28.1491 47.9262 2.4 -34.3197 8.48632e+06 5.94488e+06 1.08615e+07 489375 2.31144e+06 -40768.9
144 3 O -0.829229 29.7184 47.99 -1.2 -8.71289 -2.52126e+06 -3.81771e+06 -3.50844e+06 456339 -1.92245e+06 -147254
145 3 O -1.45946 27.0152 51.769 -1.2 -9.06875 -1.70712e+06 -1.50719e+06 -4.79154e+06 496804 51251.4 -1.44525e+06
146 3 O -2.07744 27.5697 48.8273 -1.2 -8.81893 -1.03779e+06 -3.01351e+06 -4.15206e+06 3024.21 -392697 -1.48291e+06
147 1 Mg 0.137907 26.087 46.819 1.2 -6.92812 1.92769e+06 -603238 1.29171e+06 1.12164e+06 1.58839e+06 -446007
148 3 O 0.55579 27.5065 48.3893 -1.2 -8.72387 -1.62268e+06 -1.12696e+06 -2.76829e+06 -286238 -299929 550214
149 1 Mg 1.47086 26.0688 54.5343 1.2 -8.27028 1.60388e+06 1.24657e+06 1.60315e+06 407906 -511089 727015
150 2 Si 1.64874 28.7001 56.4455 2.4 -33.4102 9.37289e+06 5.77827e+06 1.24312e+07 760375 -437394 -1.52498e+06
151 3 O 1.52222 27.1133 56.5464 -1.2 -9.41463 -2.76881e+06 -794574 -4.2782e+06 1.20804e+06 -336753 -398476
152 3 O 1.6432 29.7522 52.7291 -1.2 -9.32029 -3.24393e+06 -510181 -5.00257e+06 441227 -406676 -256861
153 3 O 0.340424 29.4005 55.7613 -1.2 -8.97056 -1.96957e+06 -975193 -4.24962e+06 -799935 -279664 27248.4
154 3 O 2.93962 29.4332 55.7427 -1.2 -8.89845 -1.44415e+06 -627360 -3.83203e+06 1.14873e+06 -32117.2 -543129
155 1 Mg 0.0647462 28.3794 52.2059 1.2 -7.82335 -136973 -1.32664e+06 5.00778e+06 -990792 1.74396e+06 692862
156 1 Mg 2.10696 28.1021 49.4531 1.2 -7.83413 2.26985e+06 -11038.1 762287 114691 -120273 338817
157 2 Si 1.57592 30.4257 51.2442 2.4 -32.8979 8.32504e+06 3.76037e+06 1.11584e+07 162074 226700 -363932
158 3 O 1.68288 31.9926 51.3043 -1.2 -9.97052 -3.05657e+06 -1.88323e+06 -3.69622e+06 633393 -355474 617543
159 3 O 1.63156 29.4014 57.892 -1.2 -8.89831 -4.076e+06 -1.73931e+06 -5.02681e+06 -12920.3 -670812 1.3144e+06
160 3 O 0.258524 29.7935 50.6632 -1.2 -8.89054 -3.29037e+06 -1.88588e+06 -5.54835e+06 1.11234e+06 -433681 -160276
161 1 Mg -2.90462 28.3797 52.308 1.2 -7.70975 -228223 -1.78386e+06 4.79379e+06 1.52749e+06 -1.75008e+06 723769
162 3 O 2.81205 29.7787 50.4664 -1.2 -9.36135 -3.13767e+06 -1.64936e+06 -3.00234e+06 -266457 675936 -150248
163 1 Mg -1.28707 28.3185 55.1924 1.2 -8.40948 2.5109e+06 880153 827349 -396018 18005.1 -906817
164 2 Si -1.46859 26.3083 53.298 2.4 -33.0552 6.35052e+06 3.46067e+06 1.24927e+07 -40563.4 -499403 -1.39667e+06
165 3 O -1.46307 24.7876 53.3088 -1.2 -9.78105 -3.56501e+06 -3.41057e+06 -4.27743e+06 -213147 311259 275809
166 3 O -0.943026 27.648 46.4208 -1.2 -7.75231 -2.84084e+06 -1.8289e+06 -3.28377e+06 -604327 -1.50431e+06 697583
167 3 O -2.70221 27.0038 53.9746 -1.2 -9.12584 -2.6621e+06 -3.15898e+06 -4.02733e+06 -432253 862558 381859
168 3 O -0.191819 26.9468 53.9669 -1.2 -9.25175 -3.75982e+06 -3.31522e+06 -4.10977e+06 779183 -1.04012e+06 320598
169 1 Mg -2.71476 35.5133 57.2684 1.2 -7.96829 -947869 -1.17029e+06 3.58829e+06 -1.93064e+06 -1.9917e+06 -1.18505e+06
170 1 Mg -1.28421 35.3899 49.8376 1.2 -8.31419 569930 1.95884e+06 2.30592e+06 -161930 258944 421458
171 2 Si -0.807101 32.9036 47.9247 2.4 -34.2793 8.43461e+06 6.38534e+06 1.04109e+07 488694 2.32317e+06 -564582
172 3 O -0.727174 34.4729 47.9885 -1.2 -8.76801 -2.45069e+06 -4.1031e+06 -3.21062e+06 458405 -1.92801e+06 -45800.4
173 3 O -1.35735 31.7701 51.768 -1.2 -9.16976 -2.09364e+06 -2.75054e+06 -6.01893e+06 616426 -449272 -607784
174 3 O -1.97695 32.3253 48.826 -1.2 -8.8392 -1.01843e+06 -3.25385e+06 -3.88785e+06 24178.4 -389562 -1.1426e+06
175 1 Mg 0.237665 30.8412 46.8168 1.2 -6.97226 1.99975e+06 -633426 1.32419e+06 1.12473e+06 1.5841e+06 -725030
176 3 O 0.656562 32.2608 48.3877 -1.2 -8.72784 -1.60371e+06 -1.31241e+06 -2.5831e+06 -299275 -302009 880413
177 1 Mg 1.63642 30.9886 54.5353 1.2 -8.0513 2.23018e+06 1.69811e+06 1.55169e+06 14869.2 273855 354263
178 2 Si 1.74314 33.5125 56.3766 2.4 -32.931 9.03813e+06 3.90744e+06 1.01649e+07 -461214 -151575 -733457
179 3 O 1.73669 32.0002 56.4896 -1.2 -9.69844 -4.29843e+06 -3.42676e+06 -3.65527e+06 59300.7 984659 103284
180 3 O 1.74574 34.5067 52.7279 -1.2 -9.57114 -3.13567e+06 -1.86049e+06 -5.34032e+06 624724 -283213 -1.07659e+06
181 3 O 0.452919 34.223 55.7233 -1.2 -9.22043 -2.17008e+06 -2.75662e+06 -3.30577e+06 -586822 446580 664623
182 3 O 3.00958 34.1569 55.7075 -1.2 -9.16199 -2.87264e+06 -3.92951e+06 -4.40777e+06 348460 389599 54890.2
183 1 Mg 0.167046 33.1343 52.2045 1.2 -7.55205 -669135 -799649 4.52925e+06 -1.1466e+06 1.75024e+06 776793
184 1 Mg 2.20727 32.8578 49.4516 1.2 -7.77609 2.15751e+06 311079 471296 119847 -148559 83433.4
185 2 Si 1.67943 35.1802 51.2429 2.4 -32.5337 7.39797e+06 4.47888e+06 1.08323e+07 125148 304915 93091.4
186 3 O 1.78736 36.747 51.303 -1.2 -10.0825 -2.60934e+06 -1.99385e+06 -3.84751e+06 700607 -303957 501677
187 3 O 1.82357 34.2171 57.905 -1.2 -9.1659 -3.62574e+06 -3.11159e+06 -3.90961e+06 -562981 346813 1.39466e+06
188 3 O 0.362533 34.5479 50.661 -1.2 -9.10462 -2.9577e+06 -2.26264e+06 -5.09711e+06 1.09689e+06 -574600 -220788
189 1 Mg -2.80215 33.1347 52.3062 1.2 -7.39238 -913819 -1.68385e+06 4.07788e+06 1.68059e+06 -1.8871e+06 1.02021e+06
190 3 O 2.91593 34.533 50.466 -1.2 -9.52024 -2.80057e+06 -2.00275e+06 -2.77527e+06 -252736 699180 -212891
191 1 Mg -1.24059 33.2529 55.0078 1.2 -8.29901 1.96461e+06 1.75016e+06 1.41745e+06 151668 2754.62 -1.30248e+06
192 2 Si -1.39675 31.1353 53.2543 2.4 -32.8484 5.56909e+06 6.28084e+06 1.28358e+07 139570 -583476 -210788
193 3 O -1.38972 29.4991 53.1218 -1.2 -9.35151 -2.75369e+06 1.11563e+06 -5.1881e+06 -439127 594945 859963
194 3 O -0.842495 32.4028 46.4192 -1.2 -7.74317 -2.85455e+06 -1.9367e+06 -3.17652e+06 -605356 -1.50581e+06 930136
195 3 O -2.61002 31.868 53.9321 -1.2 -9.50105 -2.63442e+06 -2.93092e+06 -5.14008e+06 -704836 747032 512946
196 3 O -0.102093 31.81 53.8824 -1.2 -9.47986 -2.34705e+06 -2.426e+06 -4.88165e+06 1.16835e+06 -608513 356334
197 1 Mg -2.69272 40.3651 57.3983 1.2 -7.59983 -342967 -244712 4.40874e+06 -1.76836e+06 -1.62133e+06 -647689
198 1 Mg -1.17787 40.1435 49.8359 1.2 -8.3456 684927 1.97632e+06 2.21833e+06 -186765 229237 640437
199 2 Si -0.702692 37.6572 47.9231 2.4 -34.207 8.35413e+06 6.73744e+06 1.00207e+07 487965 2.34474e+06 -342819
200 3 O -0.621782 39.2264 47.9868 -1.2 -8.76923 -2.46345e+06 -4.2044e+06 -3.10288e+06 464415 -1.93568e+06 -195562
201 3 O -1.25221 36.5242 51.7666 -1.2 -9.46625 -1.96902e+06 -3.18445e+06 -6.82686e+06 381154 -335510 153116
202 3 O -1.87295 37.0796 48.8243 -1.2 -8.91114 -937607 -3.45917e+06 -3.64387e+06 21247.6 -364142 -1.25434e+06
203 1 Mg 0.341084 35.5943 46.8152 1.2 -6.94069 1.95081e+06 -410173 1.10122e+06 1.12456e+06 1.59029e+06 -745013
204 3 O 0.760681 37.0138 48.3864 -1.2 -8.78185 -1.49857e+06 -1.52474e+06 -2.38195e+06 -296881 -323546 780893
205 1 Mg 1.76273 35.6026 54.4514 1.2 -8.1138 2.01615e+06 1.4531e+06 342514 122573 171638 629023
206 2 Si 1.8075 38.2133 56.4146 2.4 -33.1842 8.59103e+06 2.49088e+06 1.09606e+07 -66608 34977.2 -607707
207 3 O 1.74433 36.7474 56.4945 -1.2 -9.57925 -4.91835e+06 -5.53144e+06 -4.84995e+06 -698622 358736 648552
208 3 O 1.85132 39.2606 52.7264 -1.2 -9.395 -2.72776e+06 -2.41714e+06 -5.28428e+06 376998 -176842 -771575
209 3 O 0.594714 38.9294 55.6313 -1.2 -9.28493 -3.67237e+06 -3.23997e+06 -2.88099e+06 -809729 -134861 194946
210 3 O 3.09472 38.9053 55.7211 -1.2 -8.75866 -2.59767e+06 -4.06188e+06 -3.7852e+06 1.20361e+06 -320561 922615
211 1 Mg 0.272384 37.8883 52.2029 1.2 -7.50876 -1.24369e+06 -1.16646e+06 4.64241e+06 -800212 2.05454e+06 316589
212 1 Mg 2.31122 37.6122 49.4501 1.2 -7.71344 2.00026e+06 494314 353503 113619 -194208 206069
213 2 Si 1.78573 39.934 51.2414 2.4 -32.7507 7.21103e+06 4.60533e+06 1.12458e+07 275508 354813 227327
214 3 O 1.89428 41.5006 51.3014 -1.2 -9.8759 -3.02382e+06 -1.89078e+06 -4.09234e+06 803198 54763.9 809911
215 3 O 1.84413 38.9193 57.9047 -1.2 -9.33815 -2.8468e+06 -2.56243e+06 -4.45098e+06 170343 855773 898837
216 3 O 0.469216 39.3015 50.6588 -1.2 -9.10647 -2.86771e+06 -2.3931e+06 -5.12679e+06 1.09479e+06 -753630 -210967
217 1 Mg -2.69668 37.8889 52.3043 1.2 -7.25522 -668615 -1.29491e+06 4.57287e+06 1.76939e+06 -1.73759e+06 780956
218 3 O 3.0225 39.2866 50.4651 -1.2 -9.54007 -2.65737e+06 -2.14596e+06 -2.53543e+06 -327391 951091 -425440
219 1 Mg -1.10585 38.0068 55.0521 1.2 -8.34985 2.49577e+06 1.98643e+06 667290 -219346 -869123 -1.12689e+06
220 2 Si -1.26675 35.87 53.1923 2.4 -32.8296 6.31844e+06 3.82268e+06 1.21001e+07 -3667.35 -410127 771389
221 3 O -1.33415 34.3239 53.1085 -1.2 -9.76696 -3.05497e+06 -2.8185e+06 -5.31386e+06 -418121 396456 629786
222 3 O -0.738054 37.1566 46.4176 -1.2 -7.76169 -2.82923e+06 -2.1136e+06 -2.99873e+06 -606047 -1.50755e+06 868582
223 3 O -2.51289 36.5768 53.952 -1.2 -9.27513 -1.64689e+06 -2.69507e+06 -4.18642e+06 -386266 142354 150653
224 3 O 0.0578678 36.4581 53.8812 -1.2 -9.21715 -2.25678e+06 -3.22834e+06 -4.13753e+06 923790 -438830 655360
225 1 Mg -2.44618 45.0807 57.4178 1.2 -7.31905 -368308 -131604 4.66209e+06 -579813 -1.12071e+06 -603431
226 1 Mg -1.06993 44.8968 49.8343 1.2 -8.46522 726745 2.20215e+06 2.13889e+06 -212217 202439 817324
227 2 Si -0.596166 42.4103 47.9215 2.4 -34.326 8.53359e+06 6.7786e+06 9.99611e+06 479695 2.32975e+06 -196948
228 3 O -0.51472 43.9796 47.9853 -1.2 -8.69917 -2.56186e+06 -4.25159e+06 -3.07023e+06 469877 -1.92031e+06 -274964
229 3 O -1.14475 41.2777 51.7649 -1.2 -9.11575 -2.64396e+06 -1.87458e+06 -6.27798e+06 83100.2 -264353 -438033
230 3 O -1.76671 41.8331 48.8226 -1.2 -8.83795 -1.03494e+06 -3.46546e+06 -3.66399e+06 7490.88 -364796 -1.31061e+06
231 1 Mg 0.447076 40.3473 46.8135 1.2 -6.9618 1.98513e+06 -359927 1.05024e+06 1.12279e+06 1.59277e+06 -623783
232 3 O 0.866985 41.7666 48.385 -1.2 -8.7233 -1.59961e+06 -1.53261e+06 -2.36605e+06 -284397 -319874 714830
233 1 Mg 1.87163 40.2343 54.5705 1.2 -8.39386 2.59368e+06 1.25493e+06 393977 -97905.5 162491 525829
234 2 Si 1.89954 42.9617 56.2751 2.4 -33.1109 7.15115e+06 5.51321e+06 1.08654e+07 982060 -53430.5 -352806
235 3 O 1.7964 41.4233 56.3596 -1.2 -9.66925 -3.02403e+06 -3.10157e+06 -4.1373e+06 590326 -119726 -890120
236 3 O 1.95891 44.014 52.7248 -1.2 -9.63726 -2.38681e+06 -2.24162e+06 -5.09582e+06 -163287 -102197 -534281
237 3 O 0.656827 43.6551 55.6197 -1.2 -9.23381 -2.31176e+06 -3.09249e+06 -3.45207e+06 -54340.4 -831743 424517
238 3 O 3.20652 43.6628 55.6322 -1.2 -9.21209 -1.80152e+06 -2.42531e+06 -2.99184e+06 1.10225e+06 560751 230158
239 1 Mg 0.379928 42.6418 52.2013 1.2 -7.70388 -919817 -1.18866e+06 4.09214e+06 -1.09415e+06 2.1579e+06 352536
240 1 Mg 2.41752 42.366 49.4484 1.2 -7.80056 2.17261e+06 529088 292029 124579 -177572 159920
241 2 Si 1.89374 44.6874 51.2398 2.4 -32.7185 7.85332e+06 5.43037e+06 9.67499e+06 502409 441012 236187
242 3 O 2.00266 46.254 51.2996 -1.2 -9.857 -3.41555e+06 -2.09138e+06 -3.38969e+06 711847 -406781 145991
243 3 O 1.94474 43.5958 57.7958 -1.2 -9.35519 -1.91291e+06 -2.09314e+06 -4.26181e+06 308183 170747 1.59206e+06
244 3 O 0.577464 44.0549 50.6567 -1.2 -9.02739 -3.07043e+06 -2.70756e+06 -4.62777e+06 1.19457e+06 -661134 -171801
245 1 Mg -2.58906 42.6425 52.3022 1.2 -7.35339 -266401 -442531 4.06838e+06 1.57727e+06 -1.72765e+06 162705
246 3 O 3.13067 44.0398 50.464 -1.2 -9.44447 -2.85852e+06 -2.48666e+06 -2.18767e+06 -393438 818013 -440793
247 1 Mg -1.05448 42.6441 54.9292 1.2 -8.0715 2.64512e+06 1.31556e+06 390749 63448.2 -481030 -1.01461e+06
248 2 Si -1.04763 40.5467 53.2182 2.4 -33.0475 7.12686e+06 2.80925e+06 1.13926e+07 733340 62321.6 -1.81923e+06
249 3 O -1.07023 39.0219 53.1752 -1.2 -9.84227 -3.72053e+06 -3.8048e+06 -5.12914e+06 902454 897657 353639
250 3 O -0.631421 41.9099 46.4159 -1.2 -7.72448 -2.88885e+06 -2.13102e+06 -2.98069e+06 -604311 -1.50621e+06 769347
251 3 O -2.24132 41.1739 53.9764 -1.2 -9.18814 -3.05776e+06 -3.05821e+06 -5.08917e+06 -204899 1.36067e+06 270250
252 3 O 0.276936 41.2706 53.7717 -1.2 -9.08239 -3.29459e+06 -3.26215e+06 -4.94083e+06 1.16479e+06 -740647 680151
253 1 Mg -2.1875 49.7663 57.3686 1.2 -7.26877 -1.02682e+06 -789743 4.66361e+06 -898188 -1.59184e+06 -671729
254 1 Mg -0.961069 49.6502 49.8327 1.2 -8.4619 848978 2.18205e+06 2.03468e+06 -171960 139799 764556
255 2 Si -0.488083 47.1636 47.9198 2.4 -34.4523 8.73527e+06 6.72157e+06 1.00538e+07 486311 2.28455e+06 9038.61
256 3 O -0.40607 48.7329 47.9837 -1.2 -8.65592 -2.64722e+06 -4.21416e+06 -3.08643e+06 460524 -1.91149e+06 -335185
257 3 O -1.0361 46.031 51.7632 -1.2 -8.85421 -2.24796e+06 -2.26514e+06 -5.1455e+06 377940 343261 -1.86738e+06
258 3 O -1.65866 46.5866 48.821 -1.2 -8.74952 -1.11601e+06 -3.47231e+06 -3.71728e+06 25515.8 -365427 -1.47627e+06
259 1 Mg 0.554124 45.1001 46.8117 1.2 -7.01707 2.07985e+06 -357053 1.04199e+06 1.12209e+06 1.58543e+06 -534855
260 3 O 0.974961 46.5195 48.3832 -1.2 -8.65402 -1.74725e+06 -1.53194e+06 -2.32646e+06 -295454 -305234 572817
261 1 Mg 2.04682 45.1147 54.4519 1.2 -8.03975 1.80442e+06 1.99141e+06 706181 55920.8 128351 89249.5
262 2 Si 2.16791 47.7374 56.35 2.4 -32.2092 5.77933e+06 6.01973e+06 1.09104e+07 253456 -598374 -626801
263 3 O 2.01669 46.1685 56.4101 -1.2 -9.87037 -2.27533e+06 -1.77939e+06 -3.50927e+06 530627 488992 -678352
264 3 O 2.0677 48.7672 52.7232 -1.2 -9.21882 -3.00581e+06 -2.23667e+06 -4.52744e+06 142286 -422296 -1.26598e+06
265 3 O 0.90028 48.4897 55.7082 -1.2 -9.59274 -1.89269e+06 -3.55106e+06 -3.68956e+06 -222546 -387728 152500
266 3 O 3.41575 48.4055 55.6408 -1.2 -9.42491 -2.0128e+06 -4.051e+06 -3.85953e+06 1.08916e+06 596177 186945
267 1 Mg 0.488584 47.395 52.1996 1.2 -7.76172 75591.4 -1.2992e+06 3.91068e+06 -803225 1.91102e+06 1.00204e+06
268 1 Mg 2.52544 47.1195 49.4466 1.2 -7.88968 2.32503e+06 503707 313449 111234 -87907.8 416993
269 2 Si 2.00256 49.4407 51.2382 2.4 -32.9594 7.58338e+06 5.03741e+06 1.07366e+07 275066 809617 744252
270 3 O 2.11156 51.0073 51.2982 -1.2 -9.86819 -2.7741e+06 -2.24925e+06 -3.65785e+06 793312 -506372 199536
271 3 O 2.16424 48.3322 57.8535 -1.2 -9.87762 -1.85994e+06 -3.43653e+06 -4.86519e+06 271184 -527060 1.14e+06
272 3 O 0.686344 48.8082 50.655 -1.2 -8.98021 -3.35771e+06 -2.47772e+06 -4.65879e+06 1.01064e+06 -756159 -371959
273 1 Mg -2.48039 47.3957 52.3005 1.2 -7.79886 -639241 -927671 3.93776e+06 1.12539e+06 -1.72499e+06 1.01766e+06
274 3 O 3.23944 48.7932 50.4623 -1.2 -9.32884 -2.89092e+06 -2.32943e+06 -2.6513e+06 -208550 761660 -528468