ITEM: TIMESTEP
61800
ITEM: NUMBER OF ATOMS
10500
ITEM: BOX BOUNDS xy xz yz pp pp pp
0.0000000000000000e+00 8.9687999999999999e+00 2.9895999999999998e+00
0.0000000000000000e+00 1.1872499999999999e+02 0.0000000000000000e+00
0.0000000000000000e+00 2.5297749999999999e+02 0.0000000000000000e+00
ITEM: ATOMS id type element xu yu zu q c_pe c_s[1] c_s[2] c_s[3] c_s[4] c_s[5] c_s[6]
1 1 Mg -3.66544 7.11916 57.4424 1.2 -8.35802 -963964 -2.40792e+06 4.52036e+06 -819919 -2.56762e+06 206736
2 1 Mg -1.82655 6.90154 50.0912 1.2 -8.96083 1.26553e+06 890948 1.4079e+06 -145966 -111058 1.07061e+06
3 2 Si -0.257935 3.96038 48.0876 2.4 -37.1994 1.18121e+07 8.81734e+06 1.08254e+07 799146 1.96627e+06 2.19063e+06
4 3 O -0.335812 5.46814 47.6264 -1.2 -7.17952 -4.04152e+06 -2.4208e+06 -2.58927e+06 143668 -968582 -658825
5 3 O -2.03793 3.43377 51.8941 -1.2 -7.93081 -4.78971e+06 -1.28165e+06 -8.48049e+06 -742108 140922 -1.52948e+06
6 3 O -1.54015 3.53929 48.9521 -1.2 -7.7289 -2.20193e+06 -1.64766e+06 -4.31653e+06 25028.4 -772068 -536613
7 1 Mg 1.82954 2.54582 47.1376 1.2 -8.47427 3.38225e+06 -290938 536903 1.14699e+06 826865 847519
8 3 O 1.22989 3.66364 48.7877 -1.2 -7.44382 -2.57917e+06 -2.39532e+06 -3.65624e+06 -475638 -685243 -1.23786e+06
9 1 Mg 1.03875 2.26 54.4404 1.2 -9.20935 4.14224e+06 1.30414e+06 125129 -286489 299677 36594.3
10 2 Si 1.04082 4.94344 56.49 2.4 -35.1265 1.17396e+07 5651.54 1.08986e+07 1.1995e+06 1.57425e+06 -939974
11 3 O 1.18879 3.50399 56.4873 -1.2 -8.51097 -5.66527e+06 -5.6182e+06 -4.55407e+06 474842 -299401 -338984
12 3 O 1.10813 6.07342 52.8172 -1.2 -8.13036 -5.13262e+06 -3.17904e+06 -5.46475e+06 260268 -99771.4 -1.29822e+06
13 3 O -0.286868 5.57103 55.8391 -1.2 -7.60446 -5.84067e+06 -3.94591e+06 -4.09545e+06 -1.36433e+06 5049.74 757954
14 3 O 2.21345 5.74423 55.68 -1.2 -7.8241 -5.6425e+06 -2.69085e+06 -3.59572e+06 -57673.3 121503 80115.2
15 1 Mg -0.459401 4.67631 52.2426 1.2 -9.11088 602986 -1.25126e+06 5.54102e+06 -1.15725e+06 1.10936e+06 823080
16 1 Mg 2.79456 3.9971 49.9987 1.2 -9.00167 4.71474e+06 -289701 1.75274e+06 -503046 873947 -646738
17 2 Si 1.16169 6.59457 51.2556 2.4 -35.2143 9.98602e+06 5.72428e+06 1.20932e+07 285351 84256.9 2.15201e+06
18 3 O 1.28989 8.18905 51.2909 -1.2 -8.69233 -4.21517e+06 -1.47151e+06 -4.052e+06 159852 -839986 1.22169e+06
19 3 O 1.08377 5.6195 57.9384 -1.2 -8.84943 -5.57347e+06 -1.8201e+06 -6.8733e+06 75427 -965607 244228
20 3 O -0.184847 6.06029 50.6845 -1.2 -7.9136 -4.04369e+06 -2.83662e+06 -5.65673e+06 1.45028e+06 -247632 -1.22189e+06
21 1 Mg -3.49704 4.67769 52.6661 1.2 -8.50739 2.26705e+06 -2.39352e+06 3.03087e+06 2.19141e+06 -1.06839e+06 931851
22 3 O 2.48581 5.93312 50.6539 -1.2 -8.55716 -4.42629e+06 -1.18226e+06 -3.1226e+06 -1.58224e+06 -495564 -714340
23 1 Mg -1.93185 4.66918 55.0998 1.2 -9.61041 4.1582e+06 1.6232e+06 397745 -612612 -714028 -918418
24 2 Si -1.94896 2.54913 53.237 2.4 -35.2777 8.98566e+06 187030 1.29375e+07 727050 -122000 -1.16226e+06
25 3 O -1.92073 1.10661 53.1401 -1.2 -9.10126 -4.54302e+06 -6.53555e+06 -5.12382e+06 -775350 142596 -322146
26 3 O -0.0467762 2.97103 46.8385 -1.2 -6.514 -3.75564e+06 -2.32414e+06 -2.70633e+06 -988477 -2.00422e+06 -929352
27 3 O -3.10755 3.30528 54.0817 -1.2 -8.04382 -6.43254e+06 -1.79237e+06 -6.19623e+06 -269307 1.71456e+06 1.2209e+06
28 3 O -0.644463 3.2185 53.8717 -1.2 -7.49162 -5.71479e+06 -3.29327e+06 -5.70441e+06 1.06794e+06 -564700 741249
29 1 Mg -3.53371 11.9622 57.6266 1.2 -8.0922 -267686 -1.88151e+06 2.74306e+06 -1.79208e+06 -2.22079e+06 -1.41977e+06
30 1 Mg -1.75014 11.5838 49.8362 1.2 -9.26137 2.02079e+06 2.27108e+06 2.24741e+06 -338935 194180 348744
31 2 Si -1.18003 9.02138 47.9309 2.4 -35.8536 1.07162e+07 7.29264e+06 9.64294e+06 216489 2.61679e+06 -68954.5
32 3 O -1.23224 10.5991 47.9811 -1.2 -7.97009 -3.68912e+06 -3.71186e+06 -2.66602e+06 663408 -1.90782e+06 305039
33 3 O -1.79016 8.01447 51.8693 -1.2 -8.31085 -4.77263e+06 -3.52979e+06 -6.21343e+06 598318 511078 -659784
34 3 O -2.30986 8.37215 48.8528 -1.2 -8.23529 -2.2151e+06 -2.57648e+06 -3.30046e+06 -322438 -616581 -600153
35 1 Mg 0.154883 7.08234 46.8007 1.2 -8.16587 2.91661e+06 -149525 798930 944151 1.72317e+06 -988169
36 3 O 0.325447 8.50934 48.3809 -1.2 -7.89359 -2.5782e+06 -2.00275e+06 -2.70507e+06 -37236 -825371 589874
37 1 Mg 1.11865 7.04554 54.5608 1.2 -9.50753 3.48431e+06 660394 7411.12 1.09408e+06 -573834 380163
38 2 Si 1.07785 9.66992 56.3096 2.4 -34.316 1.15778e+07 2.85286e+06 1.26025e+07 964628 854617 2.41444e+06
39 3 O 1.06443 8.12986 56.516 -1.2 -8.83883 -7.16047e+06 -2.25587e+06 -5.15871e+06 1.23339e+06 -1.18609e+06 -207240
40 3 O 1.28624 10.7248 52.7351 -1.2 -8.56952 -4.26509e+06 -1.82922e+06 -4.32089e+06 -114998 -879226 327270
41 3 O -0.299484 10.3362 55.8095 -1.2 -8.39211 -4.43566e+06 -4.47973e+06 -5.60655e+06 -2.43187e+06 -386653 -1.46528e+06
42 3 O 2.33185 10.2268 55.639 -1.2 -8.35105 -3.88326e+06 -3.45112e+06 -5.07709e+06 -632.048 761394 -1.01885e+06
43 1 Mg -0.262694 9.34741 52.2523 1.2 -8.68882 934714 -1.07138e+06 4.67089e+06 -1.69665e+06 1.78026e+06 248712
44 1 Mg 1.87648 9.01537 49.4629 1.2 -8.64572 3.23524e+06 544043 290440 277698 -276170 -46966.1
45 2 Si 1.21415 11.3799 51.2378 2.4 -34.5155 1.08055e+07 5.49173e+06 9.90205e+06 475720 882649 -859809
46 3 O 1.31634 12.9512 51.3023 -1.2 -9.12908 -4.43403e+06 -2.2106e+06 -2.86519e+06 748644 -528248 1.11025e+06
47 3 O 1.14356 10.5079 57.9375 -1.2 -8.36457 -5.51305e+06 -376899 -2.99111e+06 789152 -559155 2.18558e+06
48 3 O -0.115718 10.7564 50.681 -1.2 -8.12095 -4.48803e+06 -2.56288e+06 -4.48037e+06 1.26723e+06 -432272 90960.9
49 1 Mg -3.26386 9.35564 52.3622 1.2 -8.51864 988804 -1.7095e+06 3.27204e+06 2.38861e+06 -1.94651e+06 1.19719e+06
50 3 O 2.45216 10.7265 50.4558 -1.2 -8.59689 -4.0673e+06 -2.07411e+06 -2.14755e+06 -894302 445001 415805
51 1 Mg -1.83715 9.51803 55.1629 1.2 -9.20831 1.326e+06 187241 1.26473e+06 -1.47878e+06 -836719 -1.62347e+06
52 2 Si -1.84421 7.4693 53.3671 2.4 -35.0853 1.155e+07 4.87328e+06 1.06483e+07 192977 631011 -456789
53 3 O -1.7834 5.88755 53.3865 -1.2 -8.25129 -5.1343e+06 -1.06383e+06 -5.22225e+06 425479 -111037 651336
54 3 O -1.19417 8.46968 46.4488 -1.2 -6.9646 -3.80468e+06 -2.04801e+06 -2.94274e+06 -540029 -1.7438e+06 892558
55 3 O -3.11805 8.14695 53.9154 -1.2 -8.22073 -4.84092e+06 -4.40964e+06 -6.06994e+06 232976 1.68437e+06 -45545.5
56 3 O -0.446262 8.10948 54.0342 -1.2 -7.87544 -2.15694e+06 -4.5964e+06 -3.98154e+06 1.94597e+06 -122082 66886.5
57 1 Mg -3.40179 16.2276 57.2565 1.2 -7.99776 -1.26652e+06 -1.22308e+06 3.2496e+06 -1.50877e+06 -1.5644e+06 -1.38122e+06
58 1 Mg -1.6714 16.3544 49.8412 1.2 -9.3851 2.09917e+06 2.36681e+06 2.1561e+06 -200847 227742 625291
59 2 Si -1.18567 13.8526 47.9314 2.4 -35.8917 1.10251e+07 6.77084e+06 9.94384e+06 504161 2.2182e+06 -747639
60 3 O -1.09664 15.4205 47.9915 -1.2 -7.92755 -3.70355e+06 -4.10856e+06 -3.00312e+06 424581 -1.91353e+06 -8140.88
61 3 O -1.73493 12.7491 51.7772 -1.2 -8.3269 -2.74458e+06 -2.97959e+06 -3.2949e+06 -57916.3 393634 -694477
62 3 O -2.36115 13.2717 48.8238 -1.2 -8.00431 -2.36266e+06 -3.44502e+06 -3.55339e+06 -115209 -381147 -948298
63 1 Mg -0.159928 11.7639 46.8533 1.2 -7.72066 3.23769e+06 -426405 1.06991e+06 1.12542e+06 1.56539e+06 -1.06955e+06
64 3 O 0.2623 13.1866 48.413 -1.2 -7.93377 -2.92568e+06 -1.43671e+06 -2.30335e+06 -193959 -267767 1.05664e+06
65 1 Mg 1.34862 11.8793 54.5807 1.2 -8.63582 2.86203e+06 841017 768297 -729768 130037 75757.7
66 2 Si 1.01672 14.3242 56.3129 2.4 -33.2047 9.92583e+06 3.90584e+06 1.22549e+07 430773 -167576 -606116
67 3 O 1.04815 12.7867 56.4175 -1.2 -9.48262 -5.48887e+06 -2.42973e+06 -4.4168e+06 170417 -789566 -26108
68 3 O 1.36565 15.4813 52.729 -1.2 -8.70633 -3.89998e+06 -2.0618e+06 -4.55339e+06 198442 -426688 -165127
69 3 O -0.27868 15.0147 55.6779 -1.2 -8.92907 -5.50436e+06 -2.87273e+06 -4.89017e+06 -2.93515e+06 -377885 -456056
70 3 O 2.25904 15.1805 55.6314 -1.2 -8.94914 -1.81637e+06 -3.27607e+06 -5.56102e+06 2.187e+06 -651182 -514732
71 1 Mg -0.206989 14.1049 52.2121 1.2 -8.4086 560246 -1.0359e+06 3.92384e+06 -1.00371e+06 2.11412e+06 356782
72 1 Mg 1.82591 13.8102 49.4556 1.2 -8.65081 3.59701e+06 851127 -39331.5 117151 -62619.4 -3674.73
73 2 Si 1.29285 16.1518 51.2434 2.4 -34.6498 1.133e+07 5.50265e+06 9.33173e+06 246094 321794 163956
74 3 O 1.39496 17.7199 51.3047 -1.2 -8.89873 -5.20177e+06 -1.89893e+06 -3.25326e+06 642293 -353107 512651
75 3 O 1.10569 15.0126 57.8309 -1.2 -9.11795 -3.87866e+06 -979003 -4.44611e+06 -819141 765040 1.17296e+06
76 3 O -0.0269106 15.5178 50.6688 -1.2 -8.04838 -4.82907e+06 -2.8006e+06 -4.67286e+06 1.09847e+06 -287770 -154167
77 1 Mg -3.18391 14.1057 52.3125 1.2 -8.22384 607856 -166994 3.67114e+06 1.26677e+06 -1.91541e+06 -61258.8
78 3 O 2.52432 15.503 50.4579 -1.2 -8.5078 -4.44742e+06 -2.55531e+06 -1.99492e+06 -360822 579135 -164202
79 1 Mg -1.80933 14.2401 55.1752 1.2 -8.43213 -706926 490678 1.40743e+06 -1.26094e+06 -1.84878e+06 -1.70206e+06
80 2 Si -1.58991 12.093 53.3189 2.4 -34.1433 7.95181e+06 7.1218e+06 1.29583e+07 -210434 -298536 -1.11415e+06
81 3 O -1.68535 10.4709 53.2133 -1.2 -8.68555 -4.60682e+06 -659408 -4.96015e+06 1.133e+06 380706 1.51215e+06
82 3 O -1.21337 13.3381 46.4311 -1.2 -6.98287 -4.13553e+06 -1.96712e+06 -3.08017e+06 -631452 -1.44804e+06 1.11838e+06
83 3 O -2.91325 12.7185 54.0474 -1.2 -8.62609 -2.56481e+06 -2.40955e+06 -4.79684e+06 -970196 -411834 956858
84 3 O -0.396627 12.831 53.9318 -1.2 -8.90256 -4.38317e+06 -3.40759e+06 -4.60693e+06 74814.9 -564231 780763
85 1 Mg -3.20067 21.2793 57.5628 1.2 -8.08541 -1.51771e+06 -1.58524e+06 4.38239e+06 -1.45543e+06 -2.33829e+06 -1.37658e+06
86 1 Mg -1.5831 21.1217 49.8405 1.2 -9.35932 1.93551e+06 2.19313e+06 2.40258e+06 -180720 210704 271170
87 2 Si -1.09384 18.6291 47.9287 2.4 -36.0251 1.11763e+07 6.53888e+06 1.02996e+07 487028 2.2757e+06 -717227
88 3 O -1.02071 20.1985 47.9911 -1.2 -7.90099 -3.7858e+06 -4.08631e+06 -3.16929e+06 456268 -1.89905e+06 146297
89 3 O -1.65002 17.5002 51.771 -1.2 -7.64517 -3.76465e+06 -3.37518e+06 -4.97278e+06 459264 -158456 -1.65486e+06
90 3 O -2.26174 18.0434 48.8281 -1.2 -7.91236 -2.45089e+06 -3.33591e+06 -3.79986e+06 -25262.4 -418931 -1.10409e+06
91 1 Mg -0.0440435 16.5651 46.8269 1.2 -7.77232 3.25551e+06 -424042 1.11665e+06 1.13229e+06 1.56616e+06 -870638
92 3 O 0.37001 17.9877 48.3925 -1.2 -7.84366 -3.06469e+06 -1.42267e+06 -2.4196e+06 -280046 -280653 903394
93 1 Mg 1.37584 16.6488 54.5483 1.2 -8.57754 1.84372e+06 838361 934502 176350 191109 32428.4
94 2 Si 1.51004 19.2043 56.4027 2.4 -33.7722 7.56339e+06 5.04176e+06 1.26915e+07 -121131 884161 -959434
95 3 O 1.43654 17.6793 56.4321 -1.2 -9.34705 -3.78296e+06 -2.84614e+06 -5.09357e+06 1.08121e+06 -693111 -79454.1
96 3 O 1.45147 20.239 52.7294 -1.2 -8.76427 -5.04923e+06 -1.75312e+06 -5.54597e+06 10869.6 -210121 -1.2675e+06
97 3 O 0.278533 19.9444 55.6773 -1.2 -8.58714 -1.91367e+06 -2.02735e+06 -2.82762e+06 -201997 -1.0757e+06 -597943
98 3 O 2.81169 19.9404 55.9054 -1.2 -8.58555 -4.17916e+06 -2.08959e+06 -5.52506e+06 782365 146211 -4864.69
99 1 Mg -0.126194 18.8651 52.2079 1.2 -8.83441 1.52102e+06 -1.10374e+06 4.12755e+06 -1.13324e+06 1.61773e+06 661065
100 1 Mg 1.92402 18.5815 49.4545 1.2 -8.75023 3.79593e+06 446258 233313 127459 -53829 41439.1
101 2 Si 1.38106 20.9117 51.2443 2.4 -34.4156 1.18304e+07 4.89818e+06 8.99669e+06 244976 609046 -394036
102 3 O 1.48527 22.4795 51.3054 -1.2 -9.25641 -4.55177e+06 -2.1942e+06 -2.78904e+06 786082 -609042 469926
103 3 O 1.44108 19.8578 57.9817 -1.2 -8.80332 -4.1177e+06 -2.32032e+06 -5.42816e+06 -72251 -139500 2.49459e+06
104 3 O 0.0615419 20.2804 50.6669 -1.2 -8.02459 -4.91063e+06 -2.49927e+06 -4.67097e+06 1.1696e+06 -200826 -1012.34
105 1 Mg -3.09665 18.8643 52.3122 1.2 -8.71629 1.13809e+06 -1.31631e+06 3.43244e+06 1.32987e+06 -1.69922e+06 625386
106 3 O 2.61548 20.2646 50.4626 -1.2 -8.45067 -4.58514e+06 -2.22201e+06 -2.43539e+06 -365651 358673 -8508.87
107 1 Mg -1.64919 18.7823 55.2545 1.2 -8.44659 2.64054e+06 696354 -1.18212e+06 575213 559185 604205
108 2 Si -1.60231 16.7354 53.2816 2.4 -34.2641 9.34651e+06 5.46903e+06 1.14998e+07 -557295 -273107 -713493
109 3 O -1.63738 15.2594 53.0451 -1.2 -9.21532 -4.02632e+06 -5.00161e+06 -5.26899e+06 382536 14003.2 1.64671e+06
110 3 O -1.12868 18.1227 46.4249 -1.2 -6.94853 -4.13788e+06 -1.9596e+06 -3.13338e+06 -603716 -1.49051e+06 1.08252e+06
111 3 O -2.86255 17.5698 53.9383 -1.2 -8.61231 -3.03975e+06 -1.4312e+06 -5.20977e+06 -2.31062e+06 1.23025e+06 1.20071e+06
112 3 O -0.325984 17.5113 53.843 -1.2 -8.61765 -3.84053e+06 -2.20986e+06 -4.44367e+06 1.74404e+06 -1.47183e+06 386254
113 1 Mg -2.85168 26.0264 57.0711 1.2 -8.12313 1.18892e+06 -1.03121e+06 4.60723e+06 -789772 -1.32398e+06 -577222
114 1 Mg -1.48778 25.88 49.8402 1.2 -9.07261 1.81455e+06 2.27827e+06 1.96262e+06 -219583 257188 449974
115 2 Si -1.00491 23.3922 47.9274 2.4 -35.7615 1.07859e+07 6.99822e+06 9.81392e+06 512184 2.30416e+06 -956480
116 3 O -0.927602 24.9615 47.9909 -1.2 -8.05539 -3.58556e+06 -4.35769e+06 -2.92605e+06 452924 -1.92838e+06 103057
117 3 O -1.55795 22.2588 51.7696 -1.2 -8.18499 -2.47372e+06 -2.7136e+06 -3.29983e+06 250761 113812 -913911
118 3 O -2.17411 22.8111 48.8277 -1.2 -8.05702 -2.23057e+06 -3.60634e+06 -3.57508e+06 17000.3 -407710 -917867
119 1 Mg 0.0423997 21.3296 46.8225 1.2 -7.72789 3.20906e+06 -399616 1.08063e+06 1.12853e+06 1.57184e+06 -1.02998e+06
120 3 O 0.458537 22.7495 48.3911 -1.2 -7.9663 -2.8597e+06 -1.64447e+06 -2.22933e+06 -307147 -285119 1.05823e+06
121 1 Mg 1.34843 21.3443 54.3466 1.2 -8.56508 1.42581e+06 661585 225565 929942 -175100 516778
122 2 Si 1.29431 23.8884 56.5085 2.4 -33.6081 1.06987e+07 4.43895e+06 1.20323e+07 198438 809721 176799
123 3 O 1.23436 22.4087 56.6622 -1.2 -9.16689 -4.51998e+06 -3.83252e+06 -5.72362e+06 -1.01708e+06 265844 -1.45817e+06
124 3 O 1.54441 24.9963 52.7297 -1.2 -8.73135 -4.05298e+06 -2.45804e+06 -4.64636e+06 1.01418e+06 -40285.3 -932402
125 3 O 0.0526682 24.7728 55.9216 -1.2 -8.75208 -3.63859e+06 -2.78409e+06 -3.3003e+06 -2.02124e+06 -317300 -340511
126 3 O 2.63234 24.6251 55.6784 -1.2 -8.58957 -1.39518e+06 -1.49701e+06 -5.74942e+06 3.25834e+06 -232043 -1.09027e+06
127 1 Mg -0.0335968 23.6229 52.2067 1.2 -8.2853 466301 -444033 4.35992e+06 -618303 1.64774e+06 845782
128 1 Mg 2.01073 23.3445 49.4541 1.2 -8.54476 3.4144e+06 736507 -250.1 68015.4 -114394 -24593.8
129 2 Si 1.47594 25.6699 51.2449 2.4 -34.2231 9.80788e+06 5.13959e+06 1.05064e+07 368843 72888.6 400018
130 3 O 1.58172 27.2371 51.3054 -1.2 -9.17062 -4.10317e+06 -2.22381e+06 -4.06428e+06 480801 -233116 728439
131 3 O 1.66453 24.6465 57.9144 -1.2 -8.56822 -3.0142e+06 -2.80849e+06 -6.27373e+06 1.09096e+06 127327 450107
132 3 O 0.157925 25.0378 50.6651 -1.2 -8.30996 -4.1115e+06 -2.63833e+06 -4.91221e+06 1.02872e+06 -625534 -277903
133 1 Mg -3.00341 23.6231 52.3098 1.2 -8.07623 748273 -622863 4.24172e+06 1.37148e+06 -1.60346e+06 856356
134 3 O 2.71149 25.0232 50.4656 -1.2 -8.77631 -3.95751e+06 -2.47466e+06 -2.11414e+06 -262311 874260 -305085
135 1 Mg -1.51696 23.7921 55.206 1.2 -8.68752 2.25539e+06 756228 -906908 257982 -410468 375543
136 2 Si -1.56326 21.5713 53.3515 2.4 -34.3176 6.64795e+06 6.73556e+06 1.37409e+07 -25070.1 -418162 588421
137 3 O -1.62696 19.9786 53.0925 -1.2 -8.51417 -3.95099e+06 -1.66165e+06 -4.63151e+06 10497.2 275226 893386
138 3 O -1.03938 22.8897 46.4223 -1.2 -7.02971 -3.99747e+06 -2.13155e+06 -2.97306e+06 -608196 -1.49847e+06 1.19917e+06
139 3 O -2.82506 22.2585 53.9717 -1.2 -8.73573 -2.89019e+06 -2.3462e+06 -4.79987e+06 -272512 535325 -354991
140 3 O -0.307217 22.2164 53.9789 -1.2 -8.90569 -5.01757e+06 -2.64816e+06 -4.46617e+06 1.5374e+06 -1.24091e+06 876765
141 1 Mg -2.71219 31.051 57.2195 1.2 -7.49041 -1.6926e+06 -834599 3.9807e+06 -1.66784e+06 -1.74649e+06 -809759
142 1 Mg -1.38776 30.6357 49.8391 1.2 -8.97437 1.64298e+06 2.34525e+06 1.90428e+06 -130620 212280 433033
143 2 Si -0.907929 28.1491 47.9262 2.4 -35.5183 1.0466e+07 7.13396e+06 9.61366e+06 483788 2.31542e+06 -713356
144 3 O -0.829229 29.7184 47.99 -1.2 -8.15618 -3.4448e+06 -4.42151e+06 -2.86888e+06 456916 -1.92272e+06 9598.95
145 3 O -1.45946 27.0152 51.769 -1.2 -8.46177 -4.31305e+06 -2.84014e+06 -6.34583e+06 1.04538e+06 474108 -165032
146 3 O -2.07744 27.5697 48.8273 -1.2 -8.2051 -2.05025e+06 -3.66894e+06 -3.44847e+06 20702.1 -339531 -1.11271e+06
147 1 Mg 0.137907 26.087 46.819 1.2 -7.60598 3.01487e+06 -225697 913026 1.12719e+06 1.59021e+06 -952097
148 3 O 0.55579 27.5065 48.3893 -1.2 -8.09808 -2.61972e+06 -1.73091e+06 -2.15766e+06 -298423 -337544 942529
149 1 Mg 1.57661 26.0326 54.5785 1.2 -8.51289 2.37995e+06 1.33493e+06 1.68792e+06 312336 -796726 648212
150 2 Si 1.59942 28.7469 56.4183 2.4 -33.0294 6.78303e+06 3.62942e+06 1.26042e+07 2.22997e+06 741873 -41076.6
151 3 O 1.43167 27.2463 56.5921 -1.2 -9.29751 -4.50926e+06 -2.11945e+06 -4.71483e+06 -898277 -1.20191e+06 1.04115e+06
152 3 O 1.6432 29.7522 52.7291 -1.2 -8.83725 -3.70648e+06 -2.14218e+06 -4.50736e+06 659659 -580632 -461621
153 3 O 0.43573 29.4584 55.6972 -1.2 -9.28272 -4.94348e+06 -3.891e+06 -3.00649e+06 608048 348001 846340
154 3 O 2.86429 29.3393 55.6296 -1.2 -8.75936 -3.09628e+06 -1.59278e+06 -5.41776e+06 1.00093e+06 37438.4 -351912
155 1 Mg 0.0647462 28.3794 52.2059 1.2 -8.08082 899120 -269466 3.56908e+06 -1.57964e+06 2.20413e+06 752697
156 1 Mg 2.10696 28.1021 49.4531 1.2 -8.43454 3.11319e+06 730212 142066 135045 -131424 47632.3
157 2 Si 1.57592 30.4257 51.2442 2.4 -33.9451 9.3977e+06 5.4508e+06 1.00968e+07 -107081 543997 2776.07
158 3 O 1.68288 31.9926 51.3043 -1.2 -9.39186 -3.67451e+06 -2.48322e+06 -3.3598e+06 789448 -223023 545062
159 3 O 1.83996 29.6118 57.8906 -1.2 -9.16537 -2.35303e+06 -2.07224e+06 -3.8994e+06 1.66743e+06 400932 1.71109e+06
160 3 O 0.258524 29.7935 50.6632 -1.2 -8.4641 -4.08773e+06 -2.68789e+06 -4.38205e+06 1.1882e+06 -759854 -272673
161 1 Mg -2.90462 28.3797 52.308 1.2 -8.23442 -329468 -1.15131e+06 3.39382e+06 1.74184e+06 -2.23654e+06 1.0235e+06
162 3 O 2.81205 29.7787 50.4664 -1.2 -8.82098 -3.78021e+06 -2.44377e+06 -2.49091e+06 -298043 706054 -150261
163 1 Mg -1.23411 28.3803 54.9165 1.2 -8.15811 3.76101e+06 458957 672719 -392872 -171568 -1.41936e+06
164 2 Si -1.41227 26.3646 53.23 2.4 -33.7677 9.18101e+06 3.6579e+06 1.02653e+07 -1.06067e+06 372883 -1.21266e+06
165 3 O -1.39976 24.8088 53.1943 -1.2 -9.12606 -4.23388e+06 -2.12505e+06 -4.01045e+06 -327647 246729 900230
166 3 O -0.943026 27.648 46.4208 -1.2 -7.13908 -3.82902e+06 -2.26079e+06 -2.84467e+06 -604221 -1.50466e+06 1.10259e+06
167 3 O -2.62772 27.12 53.8606 -1.2 -9.00969 -2.56847e+06 -3.59619e+06 -5.88813e+06 285755 1.43252e+06 -157146
168 3 O -0.0108633 26.9356 53.7741 -1.2 -8.89884 -2.70557e+06 -2.95237e+06 -5.41619e+06 593964 -527754 170440
169 1 Mg -2.63365 35.6682 57.4018 1.2 -8.35135 -372978 -709027 3.81378e+06 -1.85725e+06 -1.31382e+06 -1.36825e+06
170 1 Mg -1.28421 35.3899 49.8376 1.2 -9.02527 1.57218e+06 2.12505e+06 2.27695e+06 -181262 275106 559878
171 2 Si -0.807101 32.9036 47.9247 2.4 -35.3795 1.02059e+07 7.17786e+06 9.60993e+06 485609 2.3339e+06 -448689
172 3 O -0.727174 34.4729 47.9885 -1.2 -8.20657 -3.33669e+06 -4.35757e+06 -2.96972e+06 465721 -1.92559e+06 -82965.3
173 3 O -1.35735 31.7701 51.768 -1.2 -8.75804 -3.11666e+06 -3.7136e+06 -6.17521e+06 31685.9 -173351 -167438
174 3 O -1.97695 32.3253 48.826 -1.2 -8.28556 -1.92679e+06 -3.7596e+06 -3.35641e+06 2569.09 -373158 -1.24561e+06
175 1 Mg 0.237665 30.8412 46.8168 1.2 -7.51607 2.87392e+06 -168276 856129 1.12279e+06 1.59126e+06 -855459
176 3 O 0.656562 32.2608 48.3877 -1.2 -8.17517 -2.48131e+06 -1.79053e+06 -2.11069e+06 -284600 -318147 813332
177 1 Mg 1.80237 30.7531 54.6284 1.2 -8.42565 2.78229e+06 1.30563e+06 30436.4 -836120 334215 1.01857e+06
178 2 Si 1.72948 33.4829 56.3232 2.4 -33.4117 9.06366e+06 2.91371e+06 1.1463e+07 2.0252e+06 488001 1.09941e+06
179 3 O 1.69192 31.9732 56.3305 -1.2 -9.80161 -4.19242e+06 -4.80165e+06 -5.71004e+06 -101002 -22646.6 -556307
180 3 O 1.74574 34.5067 52.7279 -1.2 -8.8344 -3.99872e+06 -2.27843e+06 -4.21584e+06 1408.94 -258902 -1.07783e+06
181 3 O 0.4616 34.2278 55.7337 -1.2 -9.21628 -2.26237e+06 -3.05868e+06 -4.50979e+06 -618864 -1.09483e+06 385852
182 3 O 3.12002 34.2033 55.8032 -1.2 -8.74211 -709259 -2.1373e+06 -5.29858e+06 1.21345e+06 1.2354e+06 -6342.04
183 1 Mg 0.167046 33.1343 52.2045 1.2 -8.21319 -43797.9 -480942 4.03476e+06 -1.33259e+06 2.05296e+06 609168
184 1 Mg 2.20727 32.8578 49.4516 1.2 -8.35398 3.06238e+06 796920 6314.95 123793 -181591 211967
185 2 Si 1.67943 35.1802 51.2429 2.4 -34.0624 1.02001e+07 4.67707e+06 1.02872e+07 301892 322169 310487
186 3 O 1.78736 36.747 51.303 -1.2 -9.36089 -4.14512e+06 -2.03972e+06 -3.46879e+06 720010 -419735 867497
187 3 O 1.8182 34.0724 57.8338 -1.2 -8.56669 -3.85386e+06 -1.54887e+06 -6.15405e+06 -927912 1.3594e+06 1.67549e+06
188 3 O 0.362533 34.5479 50.661 -1.2 -8.36836 -4.13256e+06 -2.58478e+06 -4.86926e+06 1.23798e+06 -467514 -405099
189 1 Mg -2.80215 33.1347 52.3062 1.2 -7.88086 309634 -887688 3.55165e+06 1.9046e+06 -1.98824e+06 830028
190 3 O 2.91593 34.533 50.466 -1.2 -8.83724 -3.98661e+06 -2.31332e+06 -2.35717e+06 -383843 697782 -473767
191 1 Mg -1.18466 33.2654 55.0612 1.2 -8.38788 2.10068e+06 1.34764e+06 1.20951e+06 -549568 -414570 -631772
192 2 Si -1.38589 31.1622 53.2233 2.4 -33.7084 7.67174e+06 4.8761e+06 1.01673e+07 2.03947e+06 723227 118224
193 3 O -1.50136 29.5712 53.1423 -1.2 -9.21199 -4.35698e+06 -1.34834e+06 -4.58001e+06 -493733 1.15277e+06 684864
194 3 O -0.842495 32.4028 46.4192 -1.2 -7.21886 -3.69684e+06 -2.2916e+06 -2.81905e+06 -605246 -1.50667e+06 1.01014e+06
195 3 O -2.57151 31.8044 53.9411 -1.2 -9.0928 -5.01634e+06 -3.86544e+06 -4.26721e+06 -109515 1.3681e+06 -406423
196 3 O -0.0681845 31.8743 53.8925 -1.2 -8.71464 -2.40977e+06 -1.86525e+06 -4.20908e+06 1.19317e+06 -140698 535580
197 1 Mg -2.47964 40.388 57.1678 1.2 -7.56184 -2.25066e+06 -1.28155e+06 3.60687e+06 75407.5 -2.4065e+06 -435974
198 1 Mg -1.17787 40.1435 49.8359 1.2 -8.75353 1.24661e+06 2.70292e+06 1.5913e+06 -223871 116344 586515
199 2 Si -0.702692 37.6572 47.9231 2.4 -35.1902 9.88496e+06 7.27972e+06 9.52414e+06 483293 2.3086e+06 -795189
200 3 O -0.621782 39.2264 47.9868 -1.2 -8.35226 -3.12108e+06 -4.61255e+06 -2.69965e+06 466188 -1.912e+06 20071.2
201 3 O -1.25221 36.5242 51.7666 -1.2 -8.33886 -2.91226e+06 -3.00035e+06 -4.00341e+06 279623 168149 -595721
202 3 O -1.87295 37.0796 48.8243 -1.2 -8.34283 -1.7884e+06 -3.69767e+06 -3.46643e+06 28288.4 -398044 -1.03958e+06
203 1 Mg 0.341084 35.5943 46.8152 1.2 -7.44311 2.75634e+06 -211589 902070 1.12204e+06 1.5826e+06 -860837
204 3 O 0.760681 37.0138 48.3864 -1.2 -8.24787 -2.38261e+06 -1.74551e+06 -2.13008e+06 -299382 -291150 980032
205 1 Mg 1.76566 35.5939 54.5947 1.2 -8.61123 2.54897e+06 118643 1.84629e+06 225504 594352 1.34716e+06
206 2 Si 1.98573 38.3405 56.1866 2.4 -33.7888 5.38697e+06 3.49611e+06 8.91815e+06 693877 -1.29412e+06 335779
207 3 O 1.94458 36.7814 56.3853 -1.2 -8.65645 -4.4676e+06 -2.65804e+06 -4.67081e+06 -281296 612267 -1.88175e+06
208 3 O 1.85132 39.2606 52.7264 -1.2 -9.21324 -3.59589e+06 -4.40597e+06 -4.68978e+06 565426 -87233.8 -1.55668e+06
209 3 O 0.798819 39.0657 55.7551 -1.2 -9.66991 -5.52224e+06 -3.94251e+06 -5.68816e+06 1.90373e+06 -2.20365e+06 1.53021e+06
210 3 O 3.3671 38.7596 55.5781 -1.2 -8.73368 -4.28514e+06 -5.87303e+06 -6.69745e+06 874984 2.10133e+06 878653
211 1 Mg 0.272384 37.8883 52.2029 1.2 -8.05017 -516356 -1.17844e+06 3.53904e+06 -174994 2.35291e+06 -484362
212 1 Mg 2.31122 37.6122 49.4501 1.2 -8.26851 2.97291e+06 813494 -48084.6 118051 -135950 -61601.9
213 2 Si 1.78573 39.934 51.2414 2.4 -33.413 8.692e+06 6.45165e+06 9.08044e+06 486029 619415 549711
214 3 O 1.89428 41.5006 51.3014 -1.2 -9.53633 -3.82829e+06 -2.55346e+06 -3.83557e+06 745078 46767.1 494369
215 3 O 2.19786 38.9026 57.7013 -1.2 -8.56737 -3.81905e+06 -3.4753e+06 -6.54297e+06 -457378 -793591 -996153
216 3 O 0.469216 39.3015 50.6588 -1.2 -8.6604 -3.85986e+06 -3.18805e+06 -4.46149e+06 972903 -497854 60062.2
217 1 Mg -2.69668 37.8889 52.3043 1.2 -7.84955 289948 -438677 4.01378e+06 1.62359e+06 -1.65445e+06 357136
218 3 O 3.0225 39.2866 50.4651 -1.2 -9.07708 -3.36308e+06 -2.95874e+06 -1.81273e+06 -316434 763333 -336386
219 1 Mg -0.954799 38.119 55.2028 1.2 -8.03461 -1.00377e+06 1.07894e+06 1.51223e+06 946008 586695 -248531
220 2 Si -1.28014 35.8197 53.3069 2.4 -34.0445 8.93649e+06 2.8932e+06 1.30643e+07 715559 83286.9 143853
221 3 O -1.28864 34.3131 53.1054 -1.2 -9.28205 -4.25728e+06 -4.23257e+06 -5.22574e+06 477098 785235 1.17757e+06
222 3 O -0.738054 37.1566 46.4176 -1.2 -7.31122 -3.54526e+06 -2.32432e+06 -2.79298e+06 -605167 -1.50337e+06 1.07672e+06
223 3 O -2.52362 36.4684 53.9158 -1.2 -8.70527 -3.5189e+06 -3.23131e+06 -6.47861e+06 -451623 1.48011e+06 -1.08595e+06
224 3 O 0.0947304 36.4911 53.939 -1.2 -8.82219 -1.859e+06 -1.2304e+06 -3.92275e+06 1.60203e+06 -282716 950923
225 1 Mg -2.45447 44.8863 57.3049 1.2 -7.2551 -1.54006e+06 -2.08887e+06 3.47744e+06 -1.71594e+06 -2.15505e+06 -583940
226 1 Mg -1.06993 44.8968 49.8343 1.2 -8.70646 1.05357e+06 2.46686e+06 1.93301e+06 -155630 228891 1.16757e+06
227 2 Si -0.596166 42.4103 47.9215 2.4 -34.869 9.41316e+06 7.6494e+06 9.11552e+06 489696 2.29193e+06 -195413
228 3 O -0.51472 43.9796 47.9853 -1.2 -8.48351 -2.90465e+06 -4.59203e+06 -2.73335e+06 463578 -1.9113e+06 -342848
229 3 O -1.14475 41.2777 51.7649 -1.2 -8.72963 -3.47295e+06 -2.22272e+06 -4.65324e+06 232991 484816 -839675
230 3 O -1.76671 41.8331 48.8226 -1.2 -8.52928 -1.47937e+06 -4.00273e+06 -3.17218e+06 6807.19 -333927 -1.35782e+06
231 1 Mg 0.447076 40.3473 46.8135 1.2 -7.30128 2.53694e+06 321.881 682065 1.12461e+06 1.58835e+06 -813842
232 3 O 0.866985 41.7666 48.385 -1.2 -8.42502 -2.11449e+06 -2.02394e+06 -1.83291e+06 -286561 -328184 702615
233 1 Mg 1.99309 40.3599 54.3955 1.2 -7.88506 -163829 1.13196e+06 -233473 86697.4 14755.5 652765
234 2 Si 2.22321 42.9646 56.3413 2.4 -31.8596 7.18868e+06 3.65526e+06 1.03282e+07 -1.88177e+06 -1.34109e+06 36357.6
235 3 O 2.2105 41.4771 56.3385 -1.2 -10.1991 -4.85806e+06 -5.75338e+06 -5.67744e+06 789734 -152297 295397
236 3 O 1.95891 44.014 52.7248 -1.2 -9.3906 -2.90972e+06 -2.86832e+06 -5.03455e+06 286696 -219470 -1.48806e+06
237 3 O 0.930553 43.6954 55.5626 -1.2 -9.19787 -2.53396e+06 -5.41267e+06 -4.34427e+06 -1.95017e+06 703313 352706
238 3 O 3.46159 43.6893 55.5664 -1.2 -9.438 -2.51625e+06 -4.47155e+06 -3.23209e+06 1.43879e+06 -467762 -879760
239 1 Mg 0.379928 42.6418 52.2013 1.2 -7.67249 299530 -251563 2.84754e+06 -1.3629e+06 2.0346e+06 1.31019e+06
240 1 Mg 2.41752 42.366 49.4484 1.2 -8.09079 2.60804e+06 1.08265e+06 -230659 104036 -105907 331648
241 2 Si 1.89374 44.6874 51.2398 2.4 -33.2418 8.86787e+06 5.81778e+06 9.10016e+06 195771 525367 1.41443e+06
242 3 O 2.00266 46.254 51.2996 -1.2 -9.65238 -3.7911e+06 -2.09607e+06 -3.1705e+06 685850 -805896 -159964
243 3 O 2.06342 43.611 57.7815 -1.2 -9.83233 -2.34322e+06 -5.63919e+06 -5.52469e+06 117935 -1.36914e+06 1.57942e+06
244 3 O 0.577464 44.0549 50.6567 -1.2 -8.7938 -3.50586e+06 -3.10635e+06 -3.93771e+06 1.33985e+06 -732980 -908803
245 1 Mg -2.58906 42.6425 52.3022 1.2 -7.76299 -621444 426420 3.69278e+06 1.29011e+06 -1.60289e+06 574387
246 3 O 3.13067 44.0398 50.464 -1.2 -9.17783 -3.24936e+06 -2.90929e+06 -1.87632e+06 -386413 755086 -813399
247 1 Mg -0.774542 42.8666 54.9228 1.2 -7.83123 1.40056e+06 1.68682e+06 -181740 457680 -256351 -136273
248 2 Si -0.93565 40.4801 53.2178 2.4 -32.6952 8.87192e+06 3.54429e+06 1.12405e+07 -1.30217e+06 -738644 -495979
249 3 O -1.01744 39.0082 53.0818 -1.2 -9.76636 -3.94047e+06 -6.43534e+06 -4.76757e+06 974384 1.69276e+06 390876
250 3 O -0.631421 41.9099 46.4159 -1.2 -7.45361 -3.323e+06 -2.47711e+06 -2.63388e+06 -605237 -1.50104e+06 921593
251 3 O -2.2994 41.1995 53.9375 -1.2 -8.91799 508429 -2.71541e+06 -5.3888e+06 -1.73261e+06 920441 226292
252 3 O 0.40581 41.2058 53.6604 -1.2 -9.53226 -3.68697e+06 -3.09121e+06 -5.33256e+06 1.8138e+06 -1.00282e+06 250833
253 1 Mg -2.37504 49.6082 57.3384 1.2 -7.58201 -511059 -948258 4.66179e+06 -802276 -990922 47964
254 1 Mg -0.961069 49.6502 49.8327 1.2 -8.40636 666079 2.41901e+06 1.89807e+06 -156543 208508 548584
255 2 Si -0.488083 47.1636 47.9198 2.4 -34.608 8.93644e+06 7.10847e+06 9.71627e+06 490528 2.28223e+06 -187279
256 3 O -0.40607 48.7329 47.9837 -1.2 -8.67509 -2.58988e+06 -4.44888e+06 -2.87371e+06 456216 -1.91178e+06 -114305
257 3 O -1.0361 46.031 51.7632 -1.2 -8.56236 -1.88242e+06 -3.58896e+06 -3.30179e+06 567146 412410 -2.22643e+06
258 3 O -1.65866 46.5866 48.821 -1.2 -8.61725 -1.31197e+06 -3.63777e+06 -3.56689e+06 15792.2 -406186 -1.51726e+06
259 1 Mg 0.554124 45.1001 46.8117 1.2 -7.16866 2.32319e+06 -93473.2 778006 1.12041e+06 1.58141e+06 -627304
260 3 O 0.974961 46.5195 48.3832 -1.2 -8.53381 -1.94169e+06 -1.71163e+06 -2.14472e+06 -288590 -277530 578762
261 1 Mg 1.97865 44.9082 54.5436 1.2 -8.12327 1.78427e+06 580014 -941598 -640774 166411 2.01587e+06
262 2 Si 1.81222 47.5545 56.4498 2.4 -32.2577 7.92824e+06 5.29427e+06 1.1394e+07 366043 432622 1.87086e+06
263 3 O 1.95428 45.975 56.5731 -1.2 -9.87216 -3.91534e+06 -3.25369e+06 -4.8903e+06 -2.59309e+06 166747 -555939
264 3 O 2.0677 48.7672 52.7232 -1.2 -9.29374 -3.84677e+06 -3.28879e+06 -5.09006e+06 1.46748e+06 -49239.3 -2.42762e+06
265 3 O 0.565328 48.32 55.873 -1.2 -9.64644 -3.0835e+06 -2.80216e+06 -4.61891e+06 -1.26753e+06 -702415 -1.67222e+06
266 3 O 3.15648 48.2146 55.7972 -1.2 -9.11763 -643175 -3.04602e+06 -6.12284e+06 1.0113e+06 1.36424e+06 -1.47995e+06
267 1 Mg 0.488584 47.395 52.1996 1.2 -7.9147 -417542 -1.35674e+06 3.92306e+06 -218662 2.0939e+06 771947
268 1 Mg 2.52544 47.1195 49.4466 1.2 -8.0002 2.5877e+06 611761 120761 108055 -81034.6 457038
269 2 Si 2.00256 49.4407 51.2382 2.4 -32.8303 7.88435e+06 5.21357e+06 1.01105e+07 28297.2 169160 988715
270 3 O 2.11156 51.0073 51.2982 -1.2 -10.0919 -2.64035e+06 -2.42836e+06 -3.57242e+06 770489 372107 421491
271 3 O 2.05342 48.283 57.9153 -1.2 -9.44215 -3.06072e+06 -1.27358e+06 -6.60828e+06 827136 1.8186e+06 52676.5
272 3 O 0.686344 48.8082 50.655 -1.2 -8.89084 -3.48362e+06 -2.64154e+06 -4.97304e+06 872407 -385976 -308483