ITEM: TIMESTEP
1400
ITEM: NUMBER OF ATOMS
10500
ITEM: BOX BOUNDS xy xz yz pp pp pp
0.0000000000000000e+00 8.9687999999999999e+00 2.9895999999999998e+00
0.0000000000000000e+00 1.1872499999999999e+02 0.0000000000000000e+00
0.0000000000000000e+00 2.5297749999999999e+02 0.0000000000000000e+00
ITEM: ATOMS id type element xu yu zu q c_pe c_s[1] c_s[2] c_s[3] c_s[4] c_s[5] c_s[6]
1 1 Mg -3.34321 7.02561 57.4783 1.2 -7.70825 -472138 -1.46627e+06 4.87052e+06 -1.25797e+06 -1.68198e+06 -722672
2 1 Mg -1.82655 6.90154 50.0912 1.2 -8.1634 -35525.8 988871 1.33573e+06 -111178 -217768 1.42362e+06
3 2 Si -0.257935 3.96038 48.0876 2.4 -36.0968 1.00881e+07 8.63664e+06 1.09632e+07 800293 1.96923e+06 1.77753e+06
4 3 O -0.335812 5.46814 47.6264 -1.2 -7.79627 -3.06703e+06 -2.40481e+06 -2.5922e+06 144176 -968140 -601160
5 3 O -2.03793 3.43377 51.8941 -1.2 -8.84748 -3.14907e+06 -1.86029e+06 -6.67304e+06 -992986 757864 -1.96721e+06
6 3 O -1.54015 3.53929 48.9521 -1.2 -8.27203 -1.34177e+06 -1.56464e+06 -4.39807e+06 28110.6 -736684 -274731
7 1 Mg 1.82954 2.54582 47.1376 1.2 -8.026 2.66099e+06 -570023 819005 1.14859e+06 831981 575633
8 3 O 1.22989 3.66364 48.7877 -1.2 -7.99205 -1.69923e+06 -2.31175e+06 -3.7463e+06 -479172 -716634 -1.00074e+06
9 1 Mg 1.02753 2.33556 54.5734 1.2 -8.36441 2.49084e+06 739225 2.22063e+06 -238802 90943.8 973905
10 2 Si 1.08794 4.97806 56.5021 2.4 -33.028 7.61479e+06 4.38463e+06 1.21738e+07 46274.7 165687 452195
11 3 O 1.01482 3.42899 56.5869 -1.2 -9.59139 -3.41652e+06 -1.49658e+06 -4.81443e+06 365198 -22137.2 -618488
12 3 O 1.10813 6.07342 52.8172 -1.2 -9.23181 -3.05822e+06 -2.95918e+06 -4.66188e+06 314333 -162782 -1.47502e+06
13 3 O -0.197671 5.68956 55.8428 -1.2 -9.24463 -2.03402e+06 -2.05818e+06 -4.35359e+06 -787738 -547021 -491043
14 3 O 2.35338 5.65398 55.8149 -1.2 -9.27086 -2.48677e+06 -2.58226e+06 -4.0854e+06 949666 728859 -373019
15 1 Mg -0.459401 4.67631 52.2426 1.2 -8.05144 -567323 -1.59258e+06 5.41932e+06 -1.21114e+06 1.31893e+06 963173
16 1 Mg 2.79456 3.9971 49.9987 1.2 -8.39246 3.63058e+06 -198176 1.77092e+06 -504456 845887 -812301
17 2 Si 1.16169 6.59457 51.2556 2.4 -33.42 7.07535e+06 5.88074e+06 1.19529e+07 135436 459624 2.87957e+06
18 3 O 1.28989 8.18905 51.2909 -1.2 -9.63449 -2.75715e+06 -1.41821e+06 -3.83127e+06 291894 -758930 681283
19 3 O 1.12219 5.65242 57.9903 -1.2 -9.27206 -2.81149e+06 -1.85625e+06 -5.27869e+06 97638.5 40641.5 806691
20 3 O -0.184847 6.06029 50.6845 -1.2 -8.77026 -2.90151e+06 -2.97379e+06 -5.31878e+06 1.44972e+06 -313875 -1.45768e+06
21 1 Mg -3.49704 4.67769 52.6661 1.2 -7.6237 -17573.9 -2.3124e+06 3.11371e+06 2.27833e+06 -1.25166e+06 1.11802e+06
22 3 O 2.48581 5.93312 50.6539 -1.2 -9.31893 -3.04852e+06 -1.34716e+06 -3.30098e+06 -1.58767e+06 -610518 -927768
23 1 Mg -1.88466 4.70896 55.2077 1.2 -8.31583 2.14279e+06 1.38543e+06 1.38406e+06 -20375.5 -531207 -505559
24 2 Si -1.96069 2.6367 53.3 2.4 -33.5249 7.83279e+06 3.19601e+06 1.37175e+07 1.06499e+06 118550 -290525
25 3 O -1.99431 1.08515 53.2049 -1.2 -9.4683 -3.57545e+06 -1.57267e+06 -4.74268e+06 276022 -151083 323060
26 3 O -0.0467762 2.97103 46.8385 -1.2 -6.98367 -3.00839e+06 -2.08786e+06 -2.93836e+06 -989175 -2.00497e+06 -673763
27 3 O -3.20283 3.27466 54.0902 -1.2 -9.0944 -2.93404e+06 -2.14188e+06 -5.96939e+06 -719140 323950 660117
28 3 O -0.669129 3.29407 53.9848 -1.2 -8.94618 -2.71934e+06 -1.97313e+06 -4.74132e+06 906060 -80035.7 558124
29 1 Mg -3.23082 11.7868 57.4299 1.2 -7.75555 -193252 -1.25033e+06 4.71573e+06 -1.06587e+06 -1.68565e+06 -577006
30 1 Mg -1.75014 11.5838 49.8362 1.2 -8.41455 739834 1.79607e+06 2.64868e+06 -328241 276381 817178
31 2 Si -1.18003 9.02138 47.9309 2.4 -34.3751 8.34808e+06 7.07954e+06 9.855e+06 230690 2.61217e+06 478709
32 3 O -1.23224 10.5991 47.9811 -1.2 -8.73859 -2.45986e+06 -3.4863e+06 -2.89065e+06 656044 -1.91817e+06 -6632.63
33 3 O -1.79016 8.01447 51.8693 -1.2 -9.21402 -2.81075e+06 -2.75726e+06 -5.75343e+06 177405 -6821.27 -1.6368e+06
34 3 O -2.30986 8.37215 48.8528 -1.2 -8.99775 -977776 -2.50858e+06 -3.39061e+06 -334568 -611081 -925618
35 1 Mg 0.154883 7.08234 46.8007 1.2 -7.51809 1.88323e+06 -181872 826799 943373 1.72434e+06 -937178
36 3 O 0.325447 8.50934 48.3809 -1.2 -8.64142 -1.38871e+06 -1.93181e+06 -2.77141e+06 -33127.7 -825391 290968
37 1 Mg 1.13726 7.08686 54.6328 1.2 -8.24888 2.30661e+06 1.00479e+06 1.73583e+06 448055 -18010.8 933616
38 2 Si 1.18715 9.72412 56.4544 2.4 -33.1313 8.14318e+06 3.83893e+06 1.21466e+07 -45874.9 -118952 669192
39 3 O 1.18252 8.19433 56.5381 -1.2 -9.65173 -3.48731e+06 -2.25748e+06 -4.65673e+06 232893 107886 -742150
40 3 O 1.28624 10.7248 52.7351 -1.2 -9.42184 -3.15944e+06 -1.6767e+06 -4.77709e+06 219125 -524999 -940244
41 3 O -0.110887 10.4174 55.8403 -1.2 -9.15666 -2.32437e+06 -2.39715e+06 -4.23961e+06 -713796 -611776 -472923
42 3 O 2.45814 10.4313 55.7651 -1.2 -9.16965 -1.9914e+06 -2.65209e+06 -4.29872e+06 984809 709797 -584798
43 1 Mg -0.262694 9.34741 52.2523 1.2 -7.74974 -327071 -994614 4.97072e+06 -1.69205e+06 1.48979e+06 1.22076e+06
44 1 Mg 1.87648 9.01537 49.4629 1.2 -7.84075 1.95339e+06 425497 399832 249027 -263848 390995
45 2 Si 1.21415 11.3799 51.2378 2.4 -32.8966 8.03846e+06 4.45078e+06 1.11405e+07 355578 484997 795763
46 3 O 1.31634 12.9512 51.3023 -1.2 -9.89868 -3.03339e+06 -1.50869e+06 -3.9441e+06 567181 -459882 595739
47 3 O 1.24566 10.3944 57.9638 -1.2 -9.22366 -2.91994e+06 -1.78294e+06 -4.87896e+06 23711.1 -55021.1 964904
48 3 O -0.115718 10.7564 50.681 -1.2 -8.95111 -2.99412e+06 -2.18338e+06 -4.98263e+06 1.23265e+06 -463996 -709008
49 1 Mg -3.26386 9.35564 52.3622 1.2 -7.57728 -344894 -1.2921e+06 4.19709e+06 2.01165e+06 -1.61063e+06 1.21647e+06
50 3 O 2.45216 10.7265 50.4558 -1.2 -9.45489 -2.7698e+06 -1.68761e+06 -2.49059e+06 -808502 488219 -168264
51 1 Mg -1.78022 9.47972 55.1639 1.2 -8.35095 2.3322e+06 993177 1.47026e+06 25098.2 -191472 -814680
52 2 Si -1.79059 7.3797 53.3761 2.4 -33.0102 7.78562e+06 4.52353e+06 1.20145e+07 -58860.4 -402031 952060
53 3 O -1.8671 5.8253 53.317 -1.2 -9.5942 -3.02186e+06 -1.95977e+06 -5.10659e+06 732013 -70244.9 -113136
54 3 O -1.19417 8.46968 46.4488 -1.2 -7.63824 -2.72602e+06 -1.98024e+06 -3.01024e+06 -541503 -1.74256e+06 774034
55 3 O -3.07426 8.08349 54.0325 -1.2 -9.18429 -1.81851e+06 -2.3874e+06 -4.65176e+06 -624210 553934 -366863
56 3 O -0.505229 8.09301 54.0001 -1.2 -9.22403 -2.34962e+06 -2.65404e+06 -4.58817e+06 1.30969e+06 -724963 -307997
57 1 Mg -3.17035 16.4904 57.4326 1.2 -7.58656 -755424 -1.47597e+06 4.75568e+06 -1.37314e+06 -1.63523e+06 -688108
58 1 Mg -1.6714 16.3544 49.8412 1.2 -8.35411 634198 1.8245e+06 2.50105e+06 -200444 193419 656312
59 2 Si -1.18567 13.8526 47.9314 2.4 -34.229 8.40157e+06 6.06005e+06 1.06129e+07 499215 2.246e+06 -383679
60 3 O -1.09664 15.4205 47.9915 -1.2 -8.79975 -2.33522e+06 -3.78938e+06 -3.29951e+06 424617 -1.92635e+06 -129013
61 3 O -1.73493 12.7491 51.7772 -1.2 -9.16968 -2.19766e+06 -2.26025e+06 -5.56049e+06 422724 198165 -597839
62 3 O -2.36115 13.2717 48.8238 -1.2 -8.85334 -1.05217e+06 -2.98776e+06 -3.96009e+06 -99053.9 -368992 -1.22417e+06
63 1 Mg -0.159928 11.7639 46.8533 1.2 -6.96875 2.0292e+06 -644772 1.29203e+06 1.12759e+06 1.56984e+06 -859520
64 3 O 0.2623 13.1866 48.413 -1.2 -8.75901 -1.57643e+06 -1.03771e+06 -2.7322e+06 -203680 -285091 810510
65 1 Mg 1.29555 11.8 54.5486 1.2 -8.1712 2.4314e+06 1.145e+06 1.73965e+06 10177.9 -99960.3 1.00631e+06
66 2 Si 1.30939 14.4713 56.4087 2.4 -32.8216 7.01672e+06 4.57167e+06 1.16942e+07 217936 -88896.9 238273
67 3 O 1.2695 12.9224 56.5409 -1.2 -9.675 -3.34451e+06 -1.96517e+06 -4.21582e+06 332759 -79658 -782883
68 3 O 1.36565 15.4813 52.729 -1.2 -9.48834 -2.77754e+06 -1.8e+06 -4.98944e+06 184185 -370662 -891507
69 3 O 0.0430034 15.1548 55.7489 -1.2 -9.36288 -2.2627e+06 -2.71092e+06 -4.1875e+06 -666950 -639813 62894.9
70 3 O 2.57843 15.1479 55.73 -1.2 -9.39248 -2.34446e+06 -2.60158e+06 -4.14706e+06 888237 535030 -198186
71 1 Mg -0.206989 14.1049 52.2121 1.2 -7.57288 -489179 -1.08626e+06 4.76397e+06 -1.30219e+06 1.88229e+06 916563
72 1 Mg 1.82591 13.8102 49.4556 1.2 -7.78606 2.14272e+06 323998 556265 133966 -105001 271398
73 2 Si 1.29285 16.1518 51.2434 2.4 -32.7087 7.55724e+06 4.30414e+06 1.1158e+07 252209 493730 452473
74 3 O 1.39496 17.7199 51.3047 -1.2 -9.97181 -2.85988e+06 -1.68255e+06 -4.02463e+06 692646 -462322 526919
75 3 O 1.3173 15.1552 57.9056 -1.2 -9.37976 -2.60763e+06 -2.28281e+06 -4.97998e+06 -11447.4 -161091 710099
76 3 O -0.0269106 15.5178 50.6688 -1.2 -9.07748 -3.05128e+06 -2.1222e+06 -5.07373e+06 1.09795e+06 -659084 -348180
77 1 Mg -3.18391 14.1057 52.3125 1.2 -7.46979 -720752 -1.09618e+06 4.33677e+06 1.67841e+06 -1.82107e+06 897660
78 3 O 2.52432 15.503 50.4579 -1.2 -9.47509 -2.7154e+06 -1.91257e+06 -2.69612e+06 -350010 755243 -331505
79 1 Mg -1.67151 14.2055 55.1035 1.2 -8.09821 2.19738e+06 1.42979e+06 1.62129e+06 -33534.4 -28616.8 -898849
80 2 Si -1.68997 12.1027 53.2694 2.4 -33.0306 6.52617e+06 4.12229e+06 1.24674e+07 -16465.7 -9263.15 27981.4
81 3 O -1.73962 10.5393 53.22 -1.2 -9.51494 -3.1156e+06 -1.86073e+06 -4.70569e+06 391717 296764 369000
82 3 O -1.21337 13.3381 46.4311 -1.2 -7.75002 -2.91088e+06 -1.74905e+06 -3.29449e+06 -631249 -1.45183e+06 960710
83 3 O -2.95445 12.7705 53.9539 -1.2 -9.32634 -1.98473e+06 -2.76474e+06 -4.66349e+06 -321426 786539 4483.09
84 3 O -0.396822 12.7505 53.9034 -1.2 -9.38882 -2.27062e+06 -2.43068e+06 -4.23615e+06 427018 -680139 15870.7
85 1 Mg -3.06824 21.2329 57.4281 1.2 -7.49229 -546951 -1.23863e+06 4.78128e+06 -1.25659e+06 -1.66139e+06 -880061
86 1 Mg -1.5831 21.1217 49.8405 1.2 -8.33209 597185 1.80989e+06 2.47369e+06 -195385 219742 743661
87 2 Si -1.09384 18.6291 47.9287 2.4 -34.1964 8.33439e+06 6.20943e+06 1.05394e+07 494044 2.31965e+06 -287536
88 3 O -1.02071 20.1985 47.9911 -1.2 -8.7979 -2.39616e+06 -3.89074e+06 -3.32015e+06 457068 -1.92871e+06 -194172
89 3 O -1.65002 17.5002 51.771 -1.2 -9.25083 -2.14981e+06 -2.19769e+06 -5.55896e+06 344825 123418 -722044
90 3 O -2.26174 18.0434 48.8281 -1.2 -8.89267 -956845 -3.11398e+06 -3.95302e+06 -18960.1 -364040 -1.23525e+06
91 1 Mg -0.0440435 16.5651 46.8269 1.2 -6.93741 1.91743e+06 -600027 1.29303e+06 1.1342e+06 1.5787e+06 -728701
92 3 O 0.37001 17.9877 48.3925 -1.2 -8.77909 -1.53418e+06 -1.2363e+06 -2.6451e+06 -286989 -330736 740014
93 1 Mg 1.38623 16.5495 54.5515 1.2 -8.10242 1.97502e+06 1.13614e+06 1.45704e+06 -83485.1 15210.5 922935
94 2 Si 1.38564 19.1975 56.3903 2.4 -32.522 6.97207e+06 4.72594e+06 1.2004e+07 -80314.9 189277 278949
95 3 O 1.3467 17.6513 56.4798 -1.2 -9.88796 -3.09809e+06 -1.98907e+06 -4.36857e+06 227781 -89768.4 -540600
96 3 O 1.45147 20.239 52.7294 -1.2 -9.56061 -2.48141e+06 -1.86068e+06 -4.95438e+06 157203 -375313 -931249
97 3 O 0.0893789 19.8914 55.7493 -1.2 -9.42887 -1.22821e+06 -2.29436e+06 -3.99036e+06 -610650 -369596 -69107.1
98 3 O 2.65282 19.8912 55.732 -1.2 -9.54948 -2.075e+06 -2.58093e+06 -4.16429e+06 873574 596549 -155931
99 1 Mg -0.126194 18.8651 52.2079 1.2 -7.52206 -635963 -1.13967e+06 4.84625e+06 -1.15805e+06 1.87394e+06 761943
100 1 Mg 1.92402 18.5815 49.4545 1.2 -7.74379 2.0247e+06 275061 561663 108487 -130168 223789
101 2 Si 1.38106 20.9117 51.2443 2.4 -32.6138 7.32686e+06 4.36819e+06 1.11523e+07 273574 488486 539768
102 3 O 1.48527 22.4795 51.3054 -1.2 -9.99098 -2.8707e+06 -1.63982e+06 -4.03814e+06 685166 -489963 396101
103 3 O 1.39693 19.8772 57.9101 -1.2 -9.46314 -2.54601e+06 -1.90726e+06 -4.62967e+06 60152.4 -60769.5 1.27083e+06
104 3 O 0.0615419 20.2804 50.6669 -1.2 -9.12087 -2.91834e+06 -2.21128e+06 -5.03658e+06 1.14171e+06 -704481 -400642
105 1 Mg -3.09665 18.8643 52.3122 1.2 -7.40082 -788856 -1.19578e+06 4.22851e+06 1.56218e+06 -1.87196e+06 813273
106 3 O 2.61548 20.2646 50.4626 -1.2 -9.52749 -2.66882e+06 -1.97873e+06 -2.70574e+06 -357543 799119 -411120
107 1 Mg -1.6415 18.9226 55.1024 1.2 -7.979 1.99346e+06 1.45338e+06 1.45508e+06 163630 73959.5 -809342
108 2 Si -1.61334 16.825 53.2548 2.4 -32.6979 6.93644e+06 4.15019e+06 1.23617e+07 41603.9 13220.1 -107203
109 3 O -1.67279 15.2695 53.177 -1.2 -9.83828 -3.0169e+06 -1.74624e+06 -4.65136e+06 168379 329430 505132
110 3 O -1.12868 18.1227 46.4249 -1.2 -7.7741 -2.82596e+06 -1.83681e+06 -3.24676e+06 -604374 -1.49536e+06 876057
111 3 O -2.90039 17.512 53.9345 -1.2 -9.44915 -1.61086e+06 -2.55436e+06 -4.66796e+06 -804814 618945 243737
112 3 O -0.322269 17.4822 53.8952 -1.2 -9.45022 -1.80979e+06 -2.44819e+06 -4.26615e+06 751641 -773426 192910
113 1 Mg -2.95004 25.9914 57.4314 1.2 -7.52157 -591021 -1.32967e+06 4.93496e+06 -1.07567e+06 -1.67354e+06 -768679
114 1 Mg -1.48778 25.88 49.8402 1.2 -8.3443 616227 1.72623e+06 2.54263e+06 -182536 212363 741820
115 2 Si -1.00491 23.3922 47.9274 2.4 -34.1938 8.32456e+06 6.16435e+06 1.05975e+07 492470 2.31727e+06 -163272
116 3 O -0.927602 24.9615 47.9909 -1.2 -8.78853 -2.42085e+06 -3.88754e+06 -3.38863e+06 457790 -1.92416e+06 -243927
117 3 O -1.55795 22.2588 51.7696 -1.2 -9.27704 -2.01824e+06 -1.6708e+06 -5.1481e+06 415659 81292.6 -1.1258e+06
118 3 O -2.17411 22.8111 48.8277 -1.2 -8.8937 -943673 -3.14661e+06 -3.97694e+06 4262.31 -362836 -1.35286e+06
119 1 Mg 0.0423997 21.3296 46.8225 1.2 -6.92302 1.91753e+06 -618701 1.30171e+06 1.12616e+06 1.58787e+06 -656249
120 3 O 0.458537 22.7495 48.3911 -1.2 -8.78321 -1.52851e+06 -1.23791e+06 -2.657e+06 -292633 -325452 665377
121 1 Mg 1.44614 21.3235 54.5524 1.2 -8.04978 1.80632e+06 1.25494e+06 1.55697e+06 103809 -77466.2 925941
122 2 Si 1.50153 23.9608 56.4232 2.4 -32.618 6.83747e+06 4.29075e+06 1.21451e+07 83459.3 -29987.7 195015
123 3 O 1.44512 22.4144 56.4893 -1.2 -9.83341 -2.94749e+06 -1.76688e+06 -4.45096e+06 307089 88688.9 -350148
124 3 O 1.54441 24.9963 52.7297 -1.2 -9.54222 -2.66766e+06 -1.79398e+06 -5.05874e+06 180274 -394119 -932423
125 3 O 0.21258 24.6408 55.7355 -1.2 -9.43812 -1.65625e+06 -2.47383e+06 -4.01043e+06 -683788 -414386 -106927
126 3 O 2.76408 24.6379 55.7362 -1.2 -9.45551 -2.12525e+06 -2.67409e+06 -4.24277e+06 809284 616389 -176083
127 1 Mg -0.0335968 23.6229 52.2067 1.2 -7.53842 -482976 -1.11171e+06 4.97178e+06 -1.13324e+06 1.75104e+06 785003
128 1 Mg 2.01073 23.3445 49.4541 1.2 -7.73998 2.03458e+06 214279 613157 114581 -135459 300050
129 2 Si 1.47594 25.6699 51.2449 2.4 -32.6524 7.43446e+06 4.16996e+06 1.127e+07 256889 522809 566082
130 3 O 1.58172 27.2371 51.3054 -1.2 -9.96336 -2.89054e+06 -1.6209e+06 -4.1156e+06 743152 -452908 381514
131 3 O 1.50854 24.6311 57.9134 -1.2 -9.49444 -2.25412e+06 -1.90853e+06 -4.87165e+06 -46309.6 8957.37 814748
132 3 O 0.157925 25.0378 50.6651 -1.2 -9.11391 -2.94379e+06 -2.12128e+06 -5.09814e+06 1.14209e+06 -721428 -431953
133 1 Mg -3.00341 23.6231 52.3098 1.2 -7.44101 -682135 -1.24786e+06 4.45912e+06 1.62946e+06 -1.75249e+06 892802
134 3 O 2.71149 25.0232 50.4656 -1.2 -9.51078 -2.68985e+06 -1.91552e+06 -2.8281e+06 -331401 807735 -482417
135 1 Mg -1.49046 23.6875 55.109 1.2 -8.07392 2.09559e+06 1.36409e+06 1.46954e+06 -48779.4 -66600.2 -907297
136 2 Si -1.54236 21.5505 53.2628 2.4 -32.5363 7.10285e+06 4.43304e+06 1.28851e+07 -93867.2 -75974.7 -88106.2
137 3 O -1.59046 20.0014 53.1808 -1.2 -10.0084 -2.90025e+06 -1.75875e+06 -4.63497e+06 147403 169579 351422
138 3 O -1.03938 22.8897 46.4223 -1.2 -7.78161 -2.80041e+06 -1.84006e+06 -3.25715e+06 -606186 -1.50137e+06 810270
139 3 O -2.82391 22.2712 53.938 -1.2 -9.41215 -1.39706e+06 -2.12762e+06 -4.49158e+06 -961834 475422 250504
140 3 O -0.248257 22.2354 53.9138 -1.2 -9.46132 -1.68477e+06 -2.12317e+06 -4.18526e+06 1.04806e+06 -647611 317581
141 1 Mg -2.83702 30.7418 57.3772 1.2 -7.56768 -654250 -1.31626e+06 4.80113e+06 -1.1274e+06 -1.63442e+06 -779211
142 1 Mg -1.38776 30.6357 49.8391 1.2 -8.36082 643178 1.71285e+06 2.54827e+06 -180145 238376 694107
143 2 Si -0.907929 28.1491 47.9262 2.4 -34.215 8.35931e+06 6.09378e+06 1.06714e+07 492266 2.32385e+06 -159241
144 3 O -0.829229 29.7184 47.99 -1.2 -8.7756 -2.44389e+06 -3.87684e+06 -3.42696e+06 459077 -1.9279e+06 -234527
145 3 O -1.45946 27.0152 51.769 -1.2 -9.24962 -2.12074e+06 -1.91398e+06 -5.80513e+06 317179 57260 -883858
146 3 O -2.07744 27.5697 48.8273 -1.2 -8.88103 -962438 -3.12153e+06 -4.01209e+06 11164.3 -362287 -1.36821e+06
147 1 Mg 0.137907 26.087 46.819 1.2 -6.92487 1.92465e+06 -656376 1.34268e+06 1.12505e+06 1.58965e+06 -615804
148 3 O 0.55579 27.5065 48.3893 -1.2 -8.77052 -1.54179e+06 -1.20416e+06 -2.69289e+06 -294255 -323486 654820
149 1 Mg 1.55279 26.023 54.5544 1.2 -8.07888 2.32676e+06 1.31609e+06 1.33957e+06 5449.16 9937.69 824445
150 2 Si 1.6043 28.6807 56.3962 2.4 -32.7825 7.21454e+06 3.8888e+06 1.23281e+07 -14099.5 312756 57732.3
151 3 O 1.54118 27.1404 56.4778 -1.2 -9.873 -3.03644e+06 -2.0051e+06 -4.68788e+06 311657 33802.6 -239118
152 3 O 1.6432 29.7522 52.7291 -1.2 -9.47115 -2.70276e+06 -1.69809e+06 -5.06121e+06 231899 -314444 -809965
153 3 O 0.313388 29.3728 55.7461 -1.2 -9.27317 -2.05706e+06 -2.21628e+06 -4.06122e+06 -750528 -440101 -14782.9
154 3 O 2.85834 29.3836 55.7281 -1.2 -9.35203 -2.53094e+06 -2.317e+06 -4.8603e+06 909586 788211 -195558
155 1 Mg 0.0647462 28.3794 52.2059 1.2 -7.61021 -580510 -1.28752e+06 5.01807e+06 -1.11123e+06 1.82055e+06 762708
156 1 Mg 2.10696 28.1021 49.4531 1.2 -7.75484 2.06556e+06 159030 669487 108610 -150412 291100
157 2 Si 1.57592 30.4257 51.2442 2.4 -32.7058 7.4775e+06 4.10902e+06 1.13623e+07 258884 398733 353149
158 3 O 1.68288 31.9926 51.3043 -1.2 -9.9607 -2.91225e+06 -1.71286e+06 -4.03958e+06 735827 -348739 471868
159 3 O 1.65001 29.373 57.8936 -1.2 -9.42756 -2.58547e+06 -1.64176e+06 -5.22929e+06 43429.6 -14307.7 1.26976e+06
160 3 O 0.258524 29.7935 50.6632 -1.2 -9.07859 -2.94506e+06 -2.09658e+06 -5.21427e+06 1.15029e+06 -721326 -362167
161 1 Mg -2.90462 28.3797 52.308 1.2 -7.45698 -534175 -1.35833e+06 4.52878e+06 1.66664e+06 -1.75776e+06 860472
162 3 O 2.81205 29.7787 50.4664 -1.2 -9.4973 -2.7519e+06 -1.88225e+06 -2.82235e+06 -327118 852351 -436923
163 1 Mg -1.39088 28.4255 55.1042 1.2 -8.16419 2.18984e+06 1.13553e+06 1.43545e+06 30185.5 -94733.1 -830565
164 2 Si -1.43831 26.3333 53.2509 2.4 -32.8026 6.74245e+06 4.02905e+06 1.2354e+07 119822 -126568 -111881
165 3 O -1.49536 24.7883 53.1977 -1.2 -9.85255 -2.88668e+06 -2.03529e+06 -4.58873e+06 202363 286122 375042
166 3 O -0.943026 27.648 46.4208 -1.2 -7.77865 -2.8028e+06 -1.81533e+06 -3.29279e+06 -604931 -1.50497e+06 790356
167 3 O -2.70894 27.0281 53.9373 -1.2 -9.31924 -1.89657e+06 -2.49248e+06 -4.45249e+06 -574032 598828 68248.5
168 3 O -0.156365 27.007 53.9042 -1.2 -9.35884 -2.1644e+06 -2.47825e+06 -4.17264e+06 706339 -743784 156127
169 1 Mg -2.73522 35.5046 57.3698 1.2 -7.54771 -606155 -1.37688e+06 4.83251e+06 -1.09624e+06 -1.68691e+06 -819587
170 1 Mg -1.28421 35.3899 49.8376 1.2 -8.37288 648037 1.73579e+06 2.53906e+06 -189422 235196 736154
171 2 Si -0.807101 32.9036 47.9247 2.4 -34.2285 8.37365e+06 6.11516e+06 1.06597e+07 487746 2.32657e+06 -167567
172 3 O -0.727174 34.4729 47.9885 -1.2 -8.77015 -2.45115e+06 -3.89025e+06 -3.42441e+06 462943 -1.92661e+06 -246451
173 3 O -1.35735 31.7701 51.768 -1.2 -9.24713 -2.14503e+06 -1.85522e+06 -5.50851e+06 346924 -108308 -863945
174 3 O -1.97695 32.3253 48.826 -1.2 -8.87231 -974835 -3.14961e+06 -3.99032e+06 14396.4 -369379 -1.36048e+06
175 1 Mg 0.237665 30.8412 46.8168 1.2 -6.9302 1.9342e+06 -673964 1.36285e+06 1.12345e+06 1.59009e+06 -618592
176 3 O 0.656562 32.2608 48.3877 -1.2 -8.76147 -1.54906e+06 -1.21847e+06 -2.68137e+06 -292629 -317570 671096
177 1 Mg 1.65489 30.8125 54.5635 1.2 -8.11635 2.15423e+06 1.17903e+06 1.49551e+06 70146 -7634.59 702368
178 2 Si 1.71194 33.4635 56.3622 2.4 -32.5692 6.96051e+06 4.94998e+06 1.20628e+07 154359 37626 40955
179 3 O 1.65488 31.8993 56.4454 -1.2 -9.90241 -2.95567e+06 -1.33763e+06 -4.39249e+06 348271 -52606 -620000
180 3 O 1.74574 34.5067 52.7279 -1.2 -9.50549 -2.64775e+06 -1.70792e+06 -4.97883e+06 84163.2 -324044 -849977
181 3 O 0.433311 34.1639 55.7192 -1.2 -9.42608 -1.62854e+06 -2.28288e+06 -4.35827e+06 -660049 -631287 -66845.3
182 3 O 2.99864 34.1499 55.7058 -1.2 -9.46687 -1.8468e+06 -2.35998e+06 -4.31447e+06 1.02002e+06 586031 -265389
183 1 Mg 0.167046 33.1343 52.2045 1.2 -7.60604 -725500 -1.13897e+06 4.80411e+06 -1.09044e+06 1.90062e+06 718063
184 1 Mg 2.20727 32.8578 49.4516 1.2 -7.76043 2.09638e+06 195309 621831 113973 -159214 283801
185 2 Si 1.67943 35.1802 51.2429 2.4 -32.7107 7.55451e+06 4.21742e+06 1.11909e+07 339134 426005 508101
186 3 O 1.78736 36.747 51.303 -1.2 -9.93671 -2.98815e+06 -1.69034e+06 -4.09003e+06 723489 -412490 348129
187 3 O 1.7213 34.1251 57.8681 -1.2 -9.45418 -2.36007e+06 -1.88186e+06 -4.88915e+06 235888 -237417 1.10446e+06
188 3 O 0.362533 34.5479 50.661 -1.2 -9.06339 -2.99061e+06 -2.15319e+06 -5.21074e+06 1.14531e+06 -663418 -383441
189 1 Mg -2.80215 33.1347 52.3062 1.2 -7.39902 -509587 -1.17281e+06 4.41146e+06 1.67411e+06 -1.78762e+06 833715
190 3 O 2.91593 34.533 50.466 -1.2 -9.49016 -2.78764e+06 -1.94128e+06 -2.76886e+06 -324496 833945 -502820
191 1 Mg -1.28889 33.1794 55.0793 1.2 -8.03193 2.0192e+06 1.36951e+06 1.40585e+06 85913.5 -34036.9 -990466
192 2 Si -1.33415 31.086 53.2582 2.4 -32.7384 6.72005e+06 4.30682e+06 1.2476e+07 98113 -135777 -584921
193 3 O -1.37086 29.5235 53.2008 -1.2 -9.79445 -3.05145e+06 -1.49275e+06 -4.63939e+06 236026 285877 471188
194 3 O -0.842495 32.4028 46.4192 -1.2 -7.77545 -2.80596e+06 -1.80974e+06 -3.30108e+06 -605061 -1.50596e+06 793684
195 3 O -2.59277 31.773 53.9496 -1.2 -9.44945 -1.97325e+06 -2.39248e+06 -4.49078e+06 -559728 690639 137350
196 3 O -0.0395305 31.7555 53.886 -1.2 -9.40932 -2.09502e+06 -2.52282e+06 -4.42818e+06 777285 -749871 264765
197 1 Mg -2.61298 40.2444 57.3903 1.2 -7.44002 -719603 -1.11731e+06 4.83981e+06 -1.13692e+06 -1.65538e+06 -663535
198 1 Mg -1.17787 40.1435 49.8359 1.2 -8.35259 630407 1.72011e+06 2.53962e+06 -180890 202007 710330
199 2 Si -0.702692 37.6572 47.9231 2.4 -34.2236 8.37106e+06 6.07037e+06 1.06973e+07 485166 2.31587e+06 -161289
200 3 O -0.621782 39.2264 47.9868 -1.2 -8.78137 -2.4388e+06 -3.87704e+06 -3.43851e+06 462805 -1.92182e+06 -235332
201 3 O -1.25221 36.5242 51.7666 -1.2 -9.19225 -2.24868e+06 -2.0848e+06 -5.71091e+06 403008 5259.37 -983264
202 3 O -1.87295 37.0796 48.8243 -1.2 -8.86784 -970609 -3.13249e+06 -4.01577e+06 18939.8 -363637 -1.39262e+06
203 1 Mg 0.341084 35.5943 46.8152 1.2 -6.92975 1.9359e+06 -683664 1.37208e+06 1.1228e+06 1.58917e+06 -611434
204 3 O 0.760681 37.0138 48.3864 -1.2 -8.7603 -1.55515e+06 -1.19774e+06 -2.69181e+06 -293742 -317170 654891
205 1 Mg 1.748 35.6061 54.5476 1.2 -8.07858 1.997e+06 1.22857e+06 1.54781e+06 83343.4 -55767.2 792080
206 2 Si 1.80456 38.2197 56.4213 2.4 -32.4702 6.92544e+06 4.63687e+06 1.21158e+07 170122 108368 -175314
207 3 O 1.763 36.6452 56.4686 -1.2 -9.85948 -3.01705e+06 -1.07224e+06 -4.58783e+06 224251 -7808.03 -203661
208 3 O 1.85132 39.2606 52.7264 -1.2 -9.4684 -2.78786e+06 -1.84521e+06 -4.94293e+06 158852 -327435 -918040
209 3 O 0.525108 38.9027 55.737 -1.2 -9.47813 -1.58015e+06 -2.35347e+06 -4.01613e+06 -579764 -206549 -190515
210 3 O 3.08224 38.8868 55.7248 -1.2 -9.48279 -1.95343e+06 -2.51763e+06 -4.33679e+06 970436 464104 -319708
211 1 Mg 0.272384 37.8883 52.2029 1.2 -7.62705 -482898 -1.28948e+06 4.84376e+06 -1.13605e+06 1.83599e+06 836077
212 1 Mg 2.31122 37.6122 49.4501 1.2 -7.76692 2.10492e+06 163626 665476 117803 -142993 318743
213 2 Si 1.78573 39.934 51.2414 2.4 -32.7037 7.50193e+06 4.18716e+06 1.12584e+07 310154 550394 539229
214 3 O 1.89428 41.5006 51.3014 -1.2 -9.96935 -2.87671e+06 -1.70524e+06 -4.1162e+06 753435 -477300 343082
215 3 O 1.83893 38.8736 57.8989 -1.2 -9.64445 -2.383e+06 -1.98918e+06 -5.27762e+06 125239 76615 874438
216 3 O 0.469216 39.3015 50.6588 -1.2 -9.08374 -3.02745e+06 -2.10452e+06 -5.13994e+06 1.13178e+06 -711639 -381982
217 1 Mg -2.69668 37.8889 52.3043 1.2 -7.49919 -614814 -1.3235e+06 4.34673e+06 1.6481e+06 -1.81471e+06 930537
218 3 O 3.0225 39.2866 50.4651 -1.2 -9.4776 -2.75077e+06 -1.91286e+06 -2.89564e+06 -304082 800243 -497931
219 1 Mg -1.20035 37.9515 55.0946 1.2 -8.08301 2.0676e+06 1.2028e+06 1.47968e+06 112930 33971.1 -956502
220 2 Si -1.22885 35.8423 53.2511 2.4 -32.7281 6.97022e+06 4.37607e+06 1.24993e+07 14929.5 -113297 -109402
221 3 O -1.25449 34.2908 53.1752 -1.2 -9.88673 -2.91319e+06 -1.67371e+06 -4.8174e+06 345025 372093 531178
222 3 O -0.738054 37.1566 46.4176 -1.2 -7.78003 -2.79877e+06 -1.79767e+06 -3.31637e+06 -605464 -1.50434e+06 794703
223 3 O -2.50197 36.5469 53.9281 -1.2 -9.38768 -1.71186e+06 -2.39187e+06 -4.71028e+06 -779243 700253 255573
224 3 O 0.0657808 36.5422 53.8831 -1.2 -9.39636 -1.90148e+06 -2.39399e+06 -4.41837e+06 982006 -804222 286291
225 1 Mg -2.51196 45.0061 57.3765 1.2 -7.54327 -560850 -1.42181e+06 4.73183e+06 -1.04775e+06 -1.70937e+06 -807161
226 1 Mg -1.06993 44.8968 49.8343 1.2 -8.29086 546409 1.74833e+06 2.49549e+06 -176804 217354 706039
227 2 Si -0.596166 42.4103 47.9215 2.4 -34.1587 8.27645e+06 6.1033e+06 1.06603e+07 488334 2.31421e+06 -191376
228 3 O -0.51472 43.9796 47.9853 -1.2 -8.81997 -2.37968e+06 -3.90124e+06 -3.40933e+06 462199 -1.92353e+06 -230372
229 3 O -1.14475 41.2777 51.7649 -1.2 -9.26457 -2.17035e+06 -2.25336e+06 -5.94024e+06 348790 146038 -900684
230 3 O -1.76671 41.8331 48.8226 -1.2 -8.90038 -917722 -3.14191e+06 -4.00581e+06 14695 -355758 -1.37689e+06
231 1 Mg 0.447076 40.3473 46.8135 1.2 -6.91171 1.90924e+06 -685785 1.37177e+06 1.12388e+06 1.59008e+06 -629822
232 3 O 0.866985 41.7666 48.385 -1.2 -8.79037 -1.50721e+06 -1.20677e+06 -2.68069e+06 -290767 -321589 671446
233 1 Mg 1.85869 40.3162 54.5583 1.2 -8.05378 2.1947e+06 1.44786e+06 1.34617e+06 87227.4 -104855 921955
234 2 Si 1.93583 42.9542 56.4045 2.4 -32.6865 6.77838e+06 3.96941e+06 1.22046e+07 104734 124175 123103
235 3 O 1.87981 41.4138 56.4784 -1.2 -9.95 -2.86506e+06 -2.03092e+06 -4.60958e+06 298389 -12200.8 -548078
236 3 O 1.95891 44.014 52.7248 -1.2 -9.53998 -2.72798e+06 -1.86224e+06 -5.15931e+06 190999 -296884 -1.06467e+06
237 3 O 0.670598 43.6585 55.7273 -1.2 -9.35444 -1.81792e+06 -2.32678e+06 -4.27638e+06 -512308 -588590 -185205
238 3 O 3.21488 43.6418 55.7373 -1.2 -9.41734 -2.42802e+06 -2.41776e+06 -4.4958e+06 955220 669205 -463567
239 1 Mg 0.379928 42.6418 52.2013 1.2 -7.5611 -584746 -1.33634e+06 4.93617e+06 -1.13595e+06 1.8328e+06 852564
240 1 Mg 2.41752 42.366 49.4484 1.2 -7.72884 2.03432e+06 175060 669919 111445 -141353 302789
241 2 Si 1.89374 44.6874 51.2398 2.4 -32.5588 7.23521e+06 4.18591e+06 1.12942e+07 288308 490616 517264
242 3 O 2.00266 46.254 51.2996 -1.2 -10.0431 -2.76277e+06 -1.70723e+06 -4.10934e+06 744810 -455079 375336
243 3 O 1.9382 43.6217 57.8909 -1.2 -9.41716 -2.57637e+06 -1.99664e+06 -5.28142e+06 220088 -196647 933875
244 3 O 0.577464 44.0549 50.6567 -1.2 -9.14471 -2.89901e+06 -2.10476e+06 -5.17635e+06 1.12584e+06 -717791 -372834
245 1 Mg -2.58906 42.6425 52.3022 1.2 -7.46157 -724291 -1.39029e+06 4.39829e+06 1.6813e+06 -1.783e+06 970189
246 3 O 3.13067 44.0398 50.464 -1.2 -9.54415 -2.6473e+06 -1.92591e+06 -2.87164e+06 -290943 828300 -472428
247 1 Mg -1.08822 42.6887 55.122 1.2 -8.06964 2.02577e+06 1.39239e+06 1.41392e+06 212591 147798 -700386
248 2 Si -1.11714 40.601 53.2357 2.4 -32.7721 6.89285e+06 4.53251e+06 1.20896e+07 -68838.8 -78346.5 245398
249 3 O -1.18815 39.0466 53.1685 -1.2 -9.8004 -3.03813e+06 -1.89297e+06 -4.61114e+06 287043 259522 452504
250 3 O -0.631421 41.9099 46.4159 -1.2 -7.80462 -2.76127e+06 -1.81143e+06 -3.29978e+06 -605231 -1.50415e+06 811427
251 3 O -2.39798 41.307 53.9251 -1.2 -9.3376 -1.50956e+06 -2.47096e+06 -4.31932e+06 -736644 517143 34247
252 3 O 0.166298 41.2604 53.8957 -1.2 -9.41807 -2.13787e+06 -2.52168e+06 -4.06883e+06 819402 -724584 90519.4
253 1 Mg -2.41496 49.7535 57.3928 1.2 -7.5198 -748487 -1.32936e+06 4.69449e+06 -1.08127e+06 -1.54924e+06 -621136
254 1 Mg -0.961069 49.6502 49.8327 1.2 -8.28257 494016 1.73194e+06 2.54984e+06 -177417 219887 771423
255 2 Si -0.488083 47.1636 47.9198 2.4 -34.0897 8.1628e+06 6.15487e+06 1.06112e+07 484582 2.31521e+06 -123635
256 3 O -0.40607 48.7329 47.9837 -1.2 -8.84683 -2.33046e+06 -3.90473e+06 -3.40975e+06 464487 -1.92192e+06 -277054
257 3 O -1.0361 46.031 51.7632 -1.2 -9.34508 -2.11251e+06 -2.07368e+06 -6.29848e+06 376212 55002.6 -806200
258 3 O -1.65866 46.5866 48.821 -1.2 -8.94335 -851192 -3.17481e+06 -3.9697e+06 13266.1 -359054 -1.4091e+06
259 1 Mg 0.554124 45.1001 46.8117 1.2 -6.87879 1.85687e+06 -655972 1.34239e+06 1.12275e+06 1.59049e+06 -621090
260 3 O 0.974961 46.5195 48.3832 -1.2 -8.82959 -1.44031e+06 -1.23655e+06 -2.65026e+06 -287510 -318325 648570
261 1 Mg 1.97313 45.0598 54.5275 1.2 -8.08746 2.23828e+06 1.34988e+06 1.34369e+06 39131.2 -41861.4 858871
262 2 Si 2.06479 47.6996 56.4062 2.4 -32.6084 6.98066e+06 4.3544e+06 1.19835e+07 76535.4 89975 396618
263 3 O 1.9913 46.1637 56.4737 -1.2 -9.88369 -3.09292e+06 -2.18896e+06 -4.36904e+06 345351 -86859.4 -273792
264 3 O 2.0677 48.7672 52.7232 -1.2 -9.62239 -2.57484e+06 -1.8666e+06 -5.20161e+06 134191 -264460 -1.0186e+06
265 3 O 0.798139 48.3982 55.7101 -1.2 -9.40044 -1.62774e+06 -2.44844e+06 -3.58186e+06 -647341 -306639 -130763
266 3 O 3.34336 48.3812 55.7555 -1.2 -9.43409 -2.42391e+06 -2.63428e+06 -4.19136e+06 992382 462265 -430304
267 1 Mg 0.488584 47.395 52.1996 1.2 -7.48648 -718051 -1.22526e+06 4.90547e+06 -1.13729e+06 1.8429e+06 730063
268 1 Mg 2.52544 47.1195 49.4466 1.2 -7.68371 1.97129e+06 205915 634253 118067 -145204 331741
269 2 Si 2.00256 49.4407 51.2382 2.4 -32.4919 7.28058e+06 4.19404e+06 1.11276e+07 306686 495235 584671
270 3 O 2.11156 51.0073 51.2982 -1.2 -10.0587 -2.79552e+06 -1.6963e+06 -4.06347e+06 748871 -506474 284291
271 3 O 2.07368 48.3982 57.9083 -1.2 -9.52308 -2.51111e+06 -1.78376e+06 -4.76907e+06 56799.8 92835.6 1.1259e+06
272 3 O 0.686344 48.8082 50.655 -1.2 -9.16949 -2.86759e+06 -2.1333e+06 -5.1308e+06 1.1626e+06 -687608 -429702
273 1 Mg -2.48039 47.3957 52.3005 1.2 -7.36676 -830966 -1.34711e+06 4.41332e+06 1.68209e+06 -1.79859e+06 826282
274 3 O 3.23944 48.7932 50.4623 -1.2 -9.57203 -2.62716e+06 -1.9438e+06 -2.83654e+06 -315500 802374 -531815
275 1 Mg -0.938838 47.4554 55.067 1.2 -8.06057 2.14013e+06 1.37918e+06 1.30856e+06 88279.5 9986.98 -683421