ITEM: TIMESTEP
63100
ITEM: NUMBER OF ATOMS
10500
ITEM: BOX BOUNDS xy xz yz pp pp pp
0.0000000000000000e+00 8.9687999999999999e+00 2.9895999999999998e+00
0.0000000000000000e+00 1.1872499999999999e+02 0.0000000000000000e+00
0.0000000000000000e+00 2.5297749999999999e+02 0.0000000000000000e+00
ITEM: ATOMS id type element xu yu zu q c_pe c_s[1] c_s[2] c_s[3] c_s[4] c_s[5] c_s[6]
1 1 Mg -3.417 7.26813 57.4106 1.2 -7.67761 -1.21279e+06 -561468 4.1364e+06 -1.6782e+06 -1.54102e+06 -578671
2 1 Mg -1.82655 6.90154 50.0912 1.2 -7.93022 -173386 1.09657e+06 996167 -67167.7 -402085 1.41024e+06
3 2 Si -0.257935 3.96038 48.0876 2.4 -35.8023 9.65885e+06 8.36582e+06 1.11919e+07 808646 1.99988e+06 1.61809e+06
4 3 O -0.335812 5.46814 47.6264 -1.2 -7.93265 -2.86841e+06 -2.3315e+06 -2.6441e+06 140062 -982975 -574233
5 3 O -2.03793 3.43377 51.8941 -1.2 -8.94914 -3.11306e+06 -2.16949e+06 -7.47107e+06 -621919 813444 -1.09354e+06
6 3 O -1.54015 3.53929 48.9521 -1.2 -8.4248 -1.14321e+06 -1.37687e+06 -4.53389e+06 43941.9 -709714 -153679
7 1 Mg 1.82954 2.54582 47.1376 1.2 -7.87379 2.41021e+06 -722815 978748 1.14959e+06 832132 578365
8 3 O 1.22989 3.66364 48.7877 -1.2 -8.13527 -1.43793e+06 -2.15463e+06 -3.93271e+06 -493570 -747062 -892855
9 1 Mg 0.997312 2.2869 54.6094 1.2 -8.92606 3.05261e+06 417258 1.80125e+06 141885 -562948 818228
10 2 Si 0.975177 5.1087 56.5789 2.4 -32.8257 8.39855e+06 6.19343e+06 8.96955e+06 606893 469918 1.62723e+06
11 3 O 0.947172 3.45266 56.6542 -1.2 -9.30748 -3.28969e+06 231509 -2.75519e+06 -608858 -91223 -307547
12 3 O 1.10813 6.07342 52.8172 -1.2 -9.3517 -2.76656e+06 -4.03008e+06 -4.51266e+06 547787 -493561 -1.98212e+06
13 3 O -0.332927 5.71798 55.9531 -1.2 -9.24419 -2.68726e+06 -3.54717e+06 -2.64269e+06 -185478 309378 1.00299e+06
14 3 O 2.21949 5.6141 55.8098 -1.2 -9.33424 -3.09639e+06 -3.11876e+06 -3.91142e+06 -389467 423266 817436
15 1 Mg -0.459401 4.67631 52.2426 1.2 -7.67775 -304834 -1.74851e+06 5.1623e+06 -1.27615e+06 1.27926e+06 577169
16 1 Mg 2.79456 3.9971 49.9987 1.2 -8.26233 3.30207e+06 -331021 2.0267e+06 -510893 794558 -976136
17 2 Si 1.16169 6.59457 51.2556 2.4 -33.1033 5.77151e+06 6.46955e+06 1.21881e+07 -47684.4 1.07796e+06 3.15697e+06
18 3 O 1.28989 8.18905 51.2909 -1.2 -9.67659 -2.25207e+06 -1.45872e+06 -4.28556e+06 463524 -740558 538442
19 3 O 1.08318 5.74578 58.0607 -1.2 -9.46805 -3.22486e+06 185558 -3.85346e+06 83553.7 -78433.4 -612815
20 3 O -0.184847 6.06029 50.6845 -1.2 -9.05233 -2.72039e+06 -3.0696e+06 -4.90273e+06 1.2922e+06 -587563 -1.30858e+06
21 1 Mg -3.49704 4.67769 52.6661 1.2 -7.61824 -1.39885e+06 -1.64228e+06 3.15217e+06 1.79877e+06 -1.30206e+06 435868
22 3 O 2.48581 5.93312 50.6539 -1.2 -9.44202 -2.50762e+06 -1.46992e+06 -3.79797e+06 -1.44585e+06 -688045 -768765
23 1 Mg -1.9935 4.4947 55.335 1.2 -8.23216 2.41427e+06 2.56831e+06 -231494 -366704 231631 -36270.4
24 2 Si -1.89345 2.6469 53.2663 2.4 -34.1038 7.15081e+06 2.44826e+06 1.21182e+07 -534955 -268441 -2.41361e+06
25 3 O -1.91176 1.05419 53.2254 -1.2 -8.93938 -5.02433e+06 -857308 -5.35385e+06 180818 -366615 -713214
26 3 O -0.0467762 2.97103 46.8385 -1.2 -7.1324 -2.77335e+06 -1.94859e+06 -3.07404e+06 -991240 -2.00999e+06 -669293
27 3 O -3.15799 3.16404 54.1102 -1.2 -8.85445 -3.54674e+06 -3.13592e+06 -4.73014e+06 -408250 153684 394522
28 3 O -0.648092 3.13666 53.9327 -1.2 -8.65749 -6.32126e+06 -4.40294e+06 -5.46673e+06 -316957 -1.2869e+06 640821
29 1 Mg -3.20004 11.6385 57.0299 1.2 -8.08556 1.50812e+06 -1.82974e+06 2.72334e+06 -1.81253e+06 -2.30445e+06 -1.43216e+06
30 1 Mg -1.75014 11.5838 49.8362 1.2 -8.49265 818247 1.22355e+06 3.26531e+06 -318412 376926 896807
31 2 Si -1.18003 9.02138 47.9309 2.4 -34.2334 8.16546e+06 6.66632e+06 1.02231e+07 234577 2.62795e+06 772899
32 3 O -1.23224 10.5991 47.9811 -1.2 -8.76181 -2.42341e+06 -3.12548e+06 -3.25302e+06 656745 -1.92743e+06 -90621.1
33 3 O -1.79016 8.01447 51.8693 -1.2 -9.65017 -3.0672e+06 -2.5296e+06 -7.222e+06 -317930 187794 -1.08726e+06
34 3 O -2.30986 8.37215 48.8528 -1.2 -9.0985 -857117 -2.38586e+06 -3.46961e+06 -362677 -558322 -1.1055e+06
35 1 Mg 0.154883 7.08234 46.8007 1.2 -7.4114 1.71425e+06 -280833 923827 942789 1.73614e+06 -880249
36 3 O 0.325447 8.50934 48.3809 -1.2 -8.72537 -1.2424e+06 -1.7829e+06 -2.93228e+06 -15670.1 -862501 133524
37 1 Mg 1.14304 6.9487 54.6546 1.2 -8.18839 3.01953e+06 1.27708e+06 -287725 266500 -491742 940000
38 2 Si 0.863308 9.78216 56.2844 2.4 -32.8338 7.70884e+06 6.83965e+06 1.32874e+07 334715 -61145.7 1.47531e+06
39 3 O 0.975941 8.27429 56.4557 -1.2 -10.0082 -3.67376e+06 -1.06132e+06 -4.64178e+06 -691921 196797 -543732
40 3 O 1.28624 10.7248 52.7351 -1.2 -9.05196 -3.69144e+06 -819919 -5.48136e+06 421150 -606218 -835103
41 3 O -0.333538 10.5502 55.7208 -1.2 -8.74449 -2.742e+06 -3.61087e+06 -4.60534e+06 -1.03519e+06 -1.21548e+06 -108095
42 3 O 2.27827 10.5682 55.6115 -1.2 -8.8624 -728595 -2.41957e+06 -5.4007e+06 2.1485e+06 -497038 -2.73604e+06
43 1 Mg -0.262694 9.34741 52.2523 1.2 -7.82002 -93243.1 -946198 5.3154e+06 -2.12895e+06 1.40086e+06 1.50514e+06
44 1 Mg 1.87648 9.01537 49.4629 1.2 -7.78511 1.7829e+06 235791 670448 244632 -297750 567997
45 2 Si 1.21415 11.3799 51.2378 2.4 -33.1818 8.765e+06 3.35702e+06 1.19637e+07 228580 85651.8 597418
46 3 O 1.31634 12.9512 51.3023 -1.2 -9.78271 -3.48641e+06 -1.0174e+06 -4.19573e+06 320040 -620097 589523
47 3 O 1.03422 10.5849 57.9312 -1.2 -8.41444 -2.2327e+06 -3.10033e+06 -1.84454e+06 342888 -196028 2.3628e+06
48 3 O -0.115718 10.7564 50.681 -1.2 -8.84822 -2.98049e+06 -1.70815e+06 -5.4467e+06 1.43858e+06 -491053 -1.00278e+06
49 1 Mg -3.26386 9.35564 52.3622 1.2 -7.66705 -130609 -1.10735e+06 4.48009e+06 2.10998e+06 -1.57923e+06 987993
50 3 O 2.45216 10.7265 50.4558 -1.2 -9.40316 -2.95408e+06 -1.21102e+06 -2.85305e+06 -889753 528795 -234387
51 1 Mg -1.97343 9.4651 55.1707 1.2 -8.51339 2.2679e+06 1.36662e+06 95336 432912 -402164 -714461
52 2 Si -1.74022 7.31301 53.2563 2.4 -32.7653 9.3493e+06 4.95463e+06 1.07491e+07 1.17883e+06 -245250 1.47027e+06
53 3 O -1.98651 5.78542 53.2435 -1.2 -9.70814 -2.88347e+06 -2.70047e+06 -5.10281e+06 927220 -109646 -1.22508e+06
54 3 O -1.19417 8.46968 46.4488 -1.2 -7.7197 -2.60246e+06 -1.8146e+06 -3.16905e+06 -542218 -1.74395e+06 693798
55 3 O -3.05667 8.01598 54.0606 -1.2 -8.76147 -803739 -2.8649e+06 -3.70009e+06 -862355 -999630 -480239
56 3 O -0.428852 8.06321 53.957 -1.2 -8.98903 -1.97352e+06 -1.43261e+06 -3.14023e+06 1.81519e+06 349982 446158
57 1 Mg -3.51502 16.7056 57.5253 1.2 -8.83837 63845.3 -1.12057e+06 3.70538e+06 -885121 -1.13337e+06 -719615
58 1 Mg -1.6714 16.3544 49.8412 1.2 -8.25426 619009 1.53214e+06 2.64607e+06 -238391 -34135 195642
59 2 Si -1.18567 13.8526 47.9314 2.4 -34.2212 8.4018e+06 5.24588e+06 1.14136e+07 484377 2.23134e+06 -943698
60 3 O -1.09664 15.4205 47.9915 -1.2 -8.82652 -2.32564e+06 -3.48678e+06 -3.56729e+06 430096 -1.91078e+06 257929
61 3 O -1.73493 12.7491 51.7772 -1.2 -8.7977 -2.26163e+06 -1.89652e+06 -5.61115e+06 982816 -192471 -769284
62 3 O -2.36115 13.2717 48.8238 -1.2 -8.82873 -1.08291e+06 -2.49335e+06 -4.46049e+06 -67167.7 -387130 -1.00423e+06
63 1 Mg -0.159928 11.7639 46.8533 1.2 -6.94545 1.98993e+06 -998587 1.64777e+06 1.12618e+06 1.56843e+06 -914086
64 3 O 0.2623 13.1866 48.413 -1.2 -8.74648 -1.60071e+06 -570842 -3.19531e+06 -219894 -272219 1.03056e+06
65 1 Mg 1.26476 12.074 54.4377 1.2 -8.5937 351626 716611 1.66375e+06 -262056 -105955 1.65539e+06
66 2 Si 0.840614 14.571 56.3638 2.4 -34.7114 7.00245e+06 6.9142e+06 1.12976e+07 1.16921e+06 750926 -115975
67 3 O 0.966283 12.9851 56.542 -1.2 -8.38531 -4.1087e+06 -2.0031e+06 -5.03257e+06 -1.80942e+06 -1.06754e+06 23226.1
68 3 O 1.36565 15.4813 52.729 -1.2 -9.23732 -3.21427e+06 -1.37193e+06 -6.33282e+06 108096 -474617 -833525
69 3 O -0.329941 15.2085 55.6592 -1.2 -8.55484 -6.38708e+06 -4.38959e+06 -5.67682e+06 -794848 -2.26141e+06 1.0479e+06
70 3 O 2.15677 15.125 55.6529 -1.2 -8.32746 -3.57625e+06 -3.28615e+06 -4.96673e+06 996136 623159 308515
71 1 Mg -0.206989 14.1049 52.2121 1.2 -7.70852 75073.8 -1.59538e+06 5.69627e+06 -830283 1.39087e+06 889421
72 1 Mg 1.82591 13.8102 49.4556 1.2 -7.81931 2.18752e+06 -170511 1.06008e+06 164536 -78450.4 30815.6
73 2 Si 1.29285 16.1518 51.2434 2.4 -32.6794 6.9931e+06 3.4869e+06 1.25071e+07 567984 1.28769e+06 -427175
74 3 O 1.39496 17.7199 51.3047 -1.2 -9.98892 -2.738e+06 -1.22484e+06 -4.63517e+06 837119 -1.09847e+06 1.22658e+06
75 3 O 0.888944 15.3051 57.8525 -1.2 -8.35131 -3.63667e+06 -2.87844e+06 -4.3323e+06 1142.28 454060 1.83904e+06
76 3 O -0.0269106 15.5178 50.6688 -1.2 -9.22478 -3.0511e+06 -1.60788e+06 -5.08053e+06 920345 -1.01092e+06 265505
77 1 Mg -3.18391 14.1057 52.3125 1.2 -7.72826 -707364 -2.33118e+06 4.14927e+06 1.45762e+06 -1.87342e+06 1.75626e+06
78 3 O 2.52432 15.503 50.4579 -1.2 -9.45995 -2.36293e+06 -1.54411e+06 -3.41e+06 -304198 786137 13099.3
79 1 Mg -1.95801 14.2005 55.1617 1.2 -8.71708 2.93577e+06 584238 90003.6 -1.08982e+06 -824476 -822474
80 2 Si -1.81842 12.1231 53.313 2.4 -33.9751 7.39899e+06 2.99818e+06 1.25059e+07 -225507 770917 129021
81 3 O -1.81482 10.6038 53.2746 -1.2 -9.0534 -4.42572e+06 -2.71351e+06 -5.20942e+06 -854875 -568896 427450
82 3 O -1.21337 13.3381 46.4311 -1.2 -7.77078 -2.87856e+06 -1.42189e+06 -3.62079e+06 -629573 -1.45082e+06 1.14121e+06
83 3 O -3.07971 12.8691 53.8867 -1.2 -9.14941 -5.07068e+06 -4.80517e+06 -5.56828e+06 -1.15343e+06 1.54287e+06 347516
84 3 O -0.507208 12.7037 53.973 -1.2 -8.49628 -2.56754e+06 -4.58849e+06 -5.85499e+06 933673 -1.71164e+06 376442
85 1 Mg -3.2202 21.4581 57.3904 1.2 -7.84593 -728279 -1.85576e+06 2.82521e+06 -1.05446e+06 -927283 -1.02012e+06
86 1 Mg -1.5831 21.1217 49.8405 1.2 -8.28518 475035 1.88433e+06 2.45279e+06 -208467 82837.9 29334.8
87 2 Si -1.09384 18.6291 47.9287 2.4 -34.1195 8.26611e+06 5.94023e+06 1.07536e+07 492630 2.27354e+06 -1.15093e+06
88 3 O -1.02071 20.1985 47.9911 -1.2 -8.82562 -2.36817e+06 -3.85278e+06 -3.33569e+06 458926 -1.90397e+06 272486
89 3 O -1.65002 17.5002 51.771 -1.2 -9.31022 -2.68977e+06 -882385 -9.36849e+06 208069 1.99971e+06 385049
90 3 O -2.26174 18.0434 48.8281 -1.2 -8.93979 -849516 -2.90985e+06 -4.1814e+06 -43057.4 -286392 -773531
91 1 Mg -0.0440435 16.5651 46.8269 1.2 -6.90863 1.88455e+06 -795613 1.47527e+06 1.1343e+06 1.58692e+06 -1.07984e+06
92 3 O 0.37001 17.9877 48.3925 -1.2 -8.82628 -1.499e+06 -1.04903e+06 -2.78814e+06 -271838 -373665 1.18945e+06
93 1 Mg 1.393 16.5295 54.5048 1.2 -8.7151 2.95865e+06 -563425 963677 245848 -739545 846974
94 2 Si 0.996748 19.2297 56.1785 2.4 -34.2897 5.90584e+06 7.05244e+06 1.00948e+07 1.08243e+06 612891 -1.38188e+06
95 3 O 1.1246 17.6724 56.417 -1.2 -8.55378 -4.17047e+06 -2.55702e+06 -4.77273e+06 -114600 -1.22416e+06 -234617
96 3 O 1.45147 20.239 52.7294 -1.2 -9.67876 -2.80602e+06 -1.95693e+06 -7.15939e+06 59219.1 -662761 -484676
97 3 O -0.232279 19.8486 55.6058 -1.2 -8.95428 -5.25071e+06 -2.85812e+06 -4.57089e+06 240330 -2.56492e+06 1.13276e+06
98 3 O 2.27133 19.9174 55.5027 -1.2 -8.87632 -3.27874e+06 -3.35397e+06 -5.81452e+06 874111 1.81432e+06 1.24717e+06
99 1 Mg -0.126194 18.8651 52.2079 1.2 -7.37827 -188166 -1.95152e+06 5.52603e+06 -1.47041e+06 1.54546e+06 -180951
100 1 Mg 1.92402 18.5815 49.4545 1.2 -7.70405 1.86444e+06 70121.7 863922 105809 -47115.1 -364974
101 2 Si 1.38106 20.9117 51.2443 2.4 -32.3215 7.34513e+06 4.52459e+06 1.05456e+07 414521 887454 -1.38082e+06
102 3 O 1.48527 22.4795 51.3054 -1.2 -10.0895 -2.85924e+06 -1.78352e+06 -3.79369e+06 816505 -533659 928458
103 3 O 1.17879 19.9563 57.6531 -1.2 -8.61825 -2.72812e+06 -4.43198e+06 -5.6904e+06 1.01956e+06 533397 1.90411e+06
104 3 O 0.0615419 20.2804 50.6669 -1.2 -9.22085 -3.07126e+06 -1.89208e+06 -5.19749e+06 1.1525e+06 -502288 525587
105 1 Mg -3.09665 18.8643 52.3122 1.2 -7.5518 -932014 -1.15249e+06 3.95255e+06 1.93102e+06 -1.60758e+06 171083
106 3 O 2.61548 20.2646 50.4626 -1.2 -9.56622 -2.42319e+06 -1.94511e+06 -2.87813e+06 -413617 643632 354705
107 1 Mg -1.98868 19.0681 55.0626 1.2 -8.30097 1.23511e+06 2.12391e+06 953232 368942 -134283 -1.78246e+06
108 2 Si -1.51381 16.7906 53.1483 2.4 -33.5528 6.6622e+06 4.23486e+06 1.22757e+07 -959152 1.01024e+06 -1.2245e+06
109 3 O -1.73396 15.2072 53.2266 -1.2 -9.21235 -3.81782e+06 -1.70273e+06 -5.19772e+06 573836 -1.22787e+06 -141991
110 3 O -1.12868 18.1227 46.4249 -1.2 -7.7998 -2.79254e+06 -1.72387e+06 -3.35154e+06 -604000 -1.48931e+06 1.22875e+06
111 3 O -2.84695 17.565 53.7859 -1.2 -8.59583 -2.69046e+06 -1.67709e+06 -6.93507e+06 -686072 799581 1.44287e+06
112 3 O -0.339197 17.3718 53.934 -1.2 -8.79686 -4.96706e+06 -3.08721e+06 -4.31078e+06 564848 -1.11755e+06 1.18817e+06
113 1 Mg -3.22385 26.1537 57.3025 1.2 -7.07827 -1.26322e+06 -2.04542e+06 4.74678e+06 -1.08166e+06 -1.61972e+06 -1.36732e+06
114 1 Mg -1.48778 25.88 49.8402 1.2 -8.48419 640562 2.03559e+06 2.4501e+06 -192154 136403 140826
115 2 Si -1.00491 23.3922 47.9274 2.4 -34.2577 8.41116e+06 6.34146e+06 1.04398e+07 488068 2.26218e+06 -892111
116 3 O -0.927602 24.9615 47.9909 -1.2 -8.72648 -2.5038e+06 -4.00202e+06 -3.27671e+06 459326 -1.89269e+06 141394
117 3 O -1.55795 22.2588 51.7696 -1.2 -9.28294 -1.74215e+06 -4.63929e+06 -7.53339e+06 196602 512477 702727
118 3 O -2.17411 22.8111 48.8277 -1.2 -8.87469 -910420 -3.27269e+06 -3.89033e+06 -16923.8 -338482 -936453
119 1 Mg 0.0423997 21.3296 46.8225 1.2 -6.91914 1.92223e+06 -593073 1.26512e+06 1.12376e+06 1.58619e+06 -1.02291e+06
120 3 O 0.458537 22.7495 48.3911 -1.2 -8.77477 -1.58705e+06 -1.32516e+06 -2.50729e+06 -278717 -328182 1.0751e+06
121 1 Mg 1.45651 21.3302 54.3213 1.2 -7.98868 829642 1.05092e+06 -647739 555016 -528122 -373123
122 2 Si 1.36142 24.1755 56.4463 2.4 -31.964 5.94779e+06 4.44404e+06 1.34982e+07 -1.18653e+06 1.21918e+06 -1.45055e+06
123 3 O 1.20125 22.6484 56.5922 -1.2 -9.41145 -2.88359e+06 -1.37999e+06 -5.26248e+06 -49025 -545304 989925
124 3 O 1.54441 24.9963 52.7297 -1.2 -9.52436 -3.43857e+06 -2.44819e+06 -5.91302e+06 -923410 -1.00106e+06 -389475
125 3 O -0.0509948 24.7761 55.6737 -1.2 -9.45201 166329 -3.95269e+06 -735149 -366511 1.61039e+06 584586
126 3 O 2.56556 24.6948 55.7027 -1.2 -9.69001 -1.89407e+06 -3.97559e+06 -3.29646e+06 -587712 64886 1.60637e+06
127 1 Mg -0.0335968 23.6229 52.2067 1.2 -7.52 -583430 -2.37274e+06 4.30527e+06 -1.29127e+06 2.25376e+06 19558.7
128 1 Mg 2.01073 23.3445 49.4541 1.2 -7.77292 2.11441e+06 317591 486512 124159 -47183.7 -167725
129 2 Si 1.47594 25.6699 51.2449 2.4 -32.6843 8.57799e+06 4.71738e+06 9.72558e+06 443748 1.05849e+06 -1.07044e+06
130 3 O 1.58172 27.2371 51.3054 -1.2 -9.96616 -3.43271e+06 -2.05147e+06 -3.45472e+06 794870 -1.18849e+06 793104
131 3 O 1.41545 24.8935 58.0256 -1.2 -9.55473 -1.73173e+06 -2.27235e+06 -1.33456e+06 247325 98888.7 1.03676e+06
132 3 O 0.157925 25.0378 50.6651 -1.2 -8.98149 -3.59212e+06 -2.19186e+06 -4.99704e+06 1.11386e+06 -215233 374327
133 1 Mg -3.00341 23.6231 52.3098 1.2 -7.5725 -1.68186e+06 -1.54621e+06 4.25224e+06 1.16592e+06 -2.22616e+06 -481447
134 3 O 2.71149 25.0232 50.4656 -1.2 -9.36051 -2.9983e+06 -2.10941e+06 -2.91642e+06 -308338 383091 209585
135 1 Mg -1.48156 23.6341 55.1298 1.2 -7.91374 2.16699e+06 1.13505e+06 903266 -744082 -670780 -1.94631e+06
136 2 Si -1.41922 21.631 53.1822 2.4 -32.7032 5.82657e+06 3.53649e+06 1.13303e+07 -589971 150351 -1.42544e+06
137 3 O -1.50707 20.131 53.1531 -1.2 -9.6276 -2.8767e+06 -3.83567e+06 -6.20216e+06 689874 -329306 1.96937e+06
138 3 O -1.03938 22.8897 46.4223 -1.2 -7.76218 -2.83059e+06 -1.90002e+06 -3.19535e+06 -605823 -1.49441e+06 1.12917e+06
139 3 O -2.73424 22.2941 53.9612 -1.2 -9.12616 -522532 -3.09538e+06 -4.0317e+06 -573292 971216 1.32619e+06
140 3 O -0.161305 22.353 53.8586 -1.2 -9.61048 -3.13962e+06 -3.22821e+06 -3.80358e+06 438344 -1.15984e+06 1.63789e+06
141 1 Mg -2.97345 30.9597 57.593 1.2 -7.72961 -1.42853e+06 -1.70484e+06 3.52002e+06 -1.15808e+06 -1.63161e+06 -1.11207e+06
142 1 Mg -1.38776 30.6357 49.8391 1.2 -8.50956 758179 2.06461e+06 2.32209e+06 -124394 183996 597084
143 2 Si -0.907929 28.1491 47.9262 2.4 -34.3913 8.62256e+06 6.61466e+06 1.01703e+07 496411 2.25992e+06 -747189
144 3 O -0.829229 29.7184 47.99 -1.2 -8.67161 -2.6019e+06 -4.13233e+06 -3.17868e+06 454574 -1.90102e+06 -36883
145 3 O -1.45946 27.0152 51.769 -1.2 -8.89224 -2.33837e+06 -2.81546e+06 -5.70417e+06 249068 1.02113e+06 -555137
146 3 O -2.07744 27.5697 48.8273 -1.2 -8.78548 -1.03289e+06 -3.43892e+06 -3.76393e+06 18605.7 -358421 -1.00604e+06
147 1 Mg 0.137907 26.087 46.819 1.2 -6.98698 2.03423e+06 -519082 1.19539e+06 1.12528e+06 1.57943e+06 -933615
148 3 O 0.55579 27.5065 48.3893 -1.2 -8.69216 -1.72159e+06 -1.46519e+06 -2.37075e+06 -299416 -308270 999697
149 1 Mg 1.49534 26.2022 54.298 1.2 -7.72095 -558840 1.77815e+06 -276075 -1.05447e+06 -105616 4688.49
150 2 Si 1.67758 28.8826 56.3448 2.4 -32.8564 6.8936e+06 6.98701e+06 8.42456e+06 1.20615e+06 314201 -401888
151 3 O 1.46222 27.3327 56.3795 -1.2 -10.1108 -3.21566e+06 -1.65876e+06 -3.19636e+06 1.21234e+06 -1.03373e+06 684609
152 3 O 1.6432 29.7522 52.7291 -1.2 -9.55039 -3.10285e+06 -1.84935e+06 -5.6855e+06 -41908.7 -982742 -1.16361e+06
153 3 O 0.411525 29.5748 55.5955 -1.2 -9.27478 -2.13045e+06 -3.49859e+06 -3.42358e+06 -1.27972e+06 -960166 143479
154 3 O 2.96407 29.5243 55.7731 -1.2 -8.90869 -3.31718e+06 -3.60776e+06 -5.29093e+06 1.26663e+06 920805 1.36223e+06
155 1 Mg 0.0647462 28.3794 52.2059 1.2 -7.40222 184502 -841906 4.66003e+06 -893913 1.39147e+06 438302
156 1 Mg 2.10696 28.1021 49.4531 1.2 -7.84152 2.2275e+06 522789 285418 102599 -33596.8 -33154
157 2 Si 1.57592 30.4257 51.2442 2.4 -32.7679 8.12621e+06 4.75523e+06 1.01642e+07 -91081.5 971322 105308
158 3 O 1.68288 31.9926 51.3043 -1.2 -9.85305 -3.25862e+06 -1.80153e+06 -3.62679e+06 730181 -579280 377122
159 3 O 1.60323 29.6146 57.7728 -1.2 -9.41193 -3.64745e+06 -3.56101e+06 -6.36673e+06 -318168 1.25401e+06 1.82537e+06
160 3 O 0.258524 29.7935 50.6632 -1.2 -9.04357 -3.27422e+06 -2.52644e+06 -4.31637e+06 1.22724e+06 -718131 -335428
161 1 Mg -2.90462 28.3797 52.308 1.2 -7.59791 -1.52447e+06 -1.11208e+06 3.5215e+06 1.04526e+06 -1.91323e+06 641841
162 3 O 2.81205 29.7787 50.4664 -1.2 -9.3584 -2.87362e+06 -2.28263e+06 -2.75251e+06 -294458 584155 -182320
163 1 Mg -1.37266 28.4939 55.1902 1.2 -7.94499 1.32169e+06 2.01437e+06 739663 -459972 270706 -576492
164 2 Si -1.50492 26.2722 53.2497 2.4 -32.6732 4.50056e+06 6.54449e+06 1.25562e+07 969121 566335 -833135
165 3 O -1.53064 24.7122 52.9802 -1.2 -9.6841 -3.64305e+06 -2.75131e+06 -5.68721e+06 558477 487772 1.69494e+06
166 3 O -0.943026 27.648 46.4208 -1.2 -7.70435 -2.9184e+06 -1.984e+06 -3.12617e+06 -605301 -1.49692e+06 1.05496e+06
167 3 O -2.83449 26.8956 53.7501 -1.2 -9.33488 -4.71025e+06 -4.13491e+06 -6.22665e+06 -2.38624e+06 1.80273e+06 779141
168 3 O -0.292958 27.0864 53.972 -1.2 -9.5991 -1.35483e+06 -1.57281e+06 -4.83905e+06 1.08637e+06 -1.52501e+06 1.85665e+06
169 1 Mg -2.81309 35.745 57.0738 1.2 -6.939 -881775 -1.21036e+06 4.80871e+06 -1.58461e+06 -1.96165e+06 -656960
170 1 Mg -1.28421 35.3899 49.8376 1.2 -8.54965 856539 1.92575e+06 2.43449e+06 -141430 155209 156552
171 2 Si -0.807101 32.9036 47.9247 2.4 -34.5162 8.80703e+06 6.35395e+06 1.04496e+07 485629 2.28215e+06 -545667
172 3 O -0.727174 34.4729 47.9885 -1.2 -8.62555 -2.6761e+06 -4.02588e+06 -3.29014e+06 457871 -1.9041e+06 39350.6
173 3 O -1.35735 31.7701 51.768 -1.2 -8.95889 -1.67637e+06 -2.61388e+06 -4.22461e+06 195338 -1.50786e+06 -1.07541e+06
174 3 O -1.97695 32.3253 48.826 -1.2 -8.71095 -1.17565e+06 -3.2988e+06 -3.8943e+06 16777.6 -385454 -1.22957e+06
175 1 Mg 0.237665 30.8412 46.8168 1.2 -7.03633 2.11168e+06 -503723 1.18516e+06 1.12307e+06 1.58296e+06 -795339
176 3 O 0.656562 32.2608 48.3877 -1.2 -8.62069 -1.80987e+06 -1.349e+06 -2.51365e+06 -292901 -297498 825605
177 1 Mg 1.44091 30.8592 54.4158 1.2 -8.21044 475153 754755 89315.1 -118927 195801 792671
178 2 Si 1.68294 33.6214 56.4239 2.4 -33.3777 6.97875e+06 3.41105e+06 1.18238e+07 -1.50028e+06 -794671 1.08986e+06
179 3 O 1.65299 32.0836 56.6471 -1.2 -8.90678 -3.41574e+06 -3.93641e+06 -5.48821e+06 493024 1.26791e+06 754383
180 3 O 1.74574 34.5067 52.7279 -1.2 -9.16735 -4.1506e+06 -1.58032e+06 -5.53202e+06 492787 -295892 -419194
181 3 O 0.473852 34.1482 55.5689 -1.2 -9.11085 -2.29378e+06 -2.98073e+06 -4.34961e+06 122922 -499439 619540
182 3 O 3.01746 34.12 55.7125 -1.2 -9.11229 -3.3188e+06 -3.39498e+06 -4.70667e+06 203615 162859 1.07498e+06
183 1 Mg 0.167046 33.1343 52.2045 1.2 -7.84003 415790 -1.22227e+06 4.80272e+06 -1.07451e+06 1.73924e+06 663477
184 1 Mg 2.20727 32.8578 49.4516 1.2 -7.93409 2.42327e+06 271756 498275 129806 -87014.4 157775
185 2 Si 1.67943 35.1802 51.2429 2.4 -33.0763 8.64801e+06 4.21852e+06 1.07313e+07 -15974.6 663451 -611305
186 3 O 1.78736 36.747 51.303 -1.2 -9.9251 -2.95052e+06 -2.33462e+06 -3.3543e+06 839607 -178708 889577
187 3 O 1.59301 34.3712 57.839 -1.2 -9.41995 -1.6471e+06 -2.54892e+06 -4.86641e+06 972803 231066 -1.85031e+06
188 3 O 0.362533 34.5479 50.661 -1.2 -8.86697 -3.64554e+06 -2.09895e+06 -4.97362e+06 1.08821e+06 -512208 -3702.92
189 1 Mg -2.80215 33.1347 52.3062 1.2 -7.77851 -698186 -1.65519e+06 4.69478e+06 1.53316e+06 -2.2741e+06 381188
190 3 O 2.91593 34.533 50.466 -1.2 -9.20526 -3.24108e+06 -1.85768e+06 -3.21429e+06 -255430 423910 -33936
191 1 Mg -1.25193 33.0903 55.1643 1.2 -8.3286 3.29912e+06 -338950 319612 612739 -95542.3 -1.82891e+06
192 2 Si -1.43937 31.0562 53.2923 2.4 -32.4604 7.47705e+06 3.15337e+06 1.32659e+07 -58575 -2.99433e+06 -852981
193 3 O -1.58083 29.5783 53.1585 -1.2 -9.86314 -3.2216e+06 -4.17228e+06 -4.88071e+06 -48124.6 460774 606697
194 3 O -0.842495 32.4028 46.4192 -1.2 -7.65981 -2.98767e+06 -1.94345e+06 -3.17013e+06 -605272 -1.5005e+06 978141
195 3 O -2.85977 31.7696 54.0703 -1.2 -8.60487 954787 -3.85484e+06 -3.1104e+06 -1.65235e+06 -769328 293418
196 3 O -0.237777 31.8203 53.8922 -1.2 -9.63236 -3.44617e+06 -3.04231e+06 -5.91677e+06 505718 -2.26726e+06 407212
197 1 Mg -2.64229 40.1526 57.0856 1.2 -7.63284 -310879 -2.14383e+06 3.27703e+06 -535274 -1.83997e+06 -1.75312e+06
198 1 Mg -1.17787 40.1435 49.8359 1.2 -8.54834 946714 1.9062e+06 2.34678e+06 -134308 294838 903075
199 2 Si -0.702692 37.6572 47.9231 2.4 -34.4661 8.76458e+06 6.76325e+06 9.9983e+06 499642 2.32514e+06 -519477
200 3 O -0.621782 39.2264 47.9868 -1.2 -8.64205 -2.65626e+06 -4.15457e+06 -3.16773e+06 458359 -1.93399e+06 -196352
201 3 O -1.25221 36.5242 51.7666 -1.2 -9.20003 -2.10077e+06 -3.59082e+06 -6.03011e+06 -111424 -324352 858831
202 3 O -1.87295 37.0796 48.8243 -1.2 -8.75553 -1.15403e+06 -3.55394e+06 -3.58658e+06 14287.5 -358191 -1.10324e+06
203 1 Mg 0.341084 35.5943 46.8152 1.2 -7.05383 2.13928e+06 -487266 1.17119e+06 1.1252e+06 1.58641e+06 -856699
204 3 O 0.760681 37.0138 48.3864 -1.2 -8.64103 -1.74656e+06 -1.55931e+06 -2.329e+06 -295276 -321328 902464
205 1 Mg 1.81008 35.5289 54.5099 1.2 -8.12634 2.17017e+06 1.17253e+06 -258192 -681451 -162922 605981
206 2 Si 1.59741 38.3311 56.0862 2.4 -31.6671 6.14428e+06 6.9453e+06 1.29313e+07 -184184 1.64953e+06 209956
207 3 O 1.61115 36.7413 56.2446 -1.2 -10.1985 -2.34775e+06 51956 -5.7444e+06 -768038 -636366 -932262
208 3 O 1.85132 39.2606 52.7264 -1.2 -9.40894 -3.20752e+06 -2.70548e+06 -4.71898e+06 -73890.9 -585717 -1.28799e+06
209 3 O 0.317299 39.0937 55.545 -1.2 -9.57391 181624 -2.28264e+06 -4.04196e+06 -1.2878e+06 -669666 -25920.5
210 3 O 2.96248 38.9772 55.62 -1.2 -9.8229 -2.29893e+06 -4.65762e+06 -7.78133e+06 2.11589e+06 1.71795e+06 -529234
211 1 Mg 0.272384 37.8883 52.2029 1.2 -7.49784 -749507 -43180.2 4.59161e+06 -1.35715e+06 1.50778e+06 739003
212 1 Mg 2.31122 37.6122 49.4501 1.2 -7.86568 2.25021e+06 686505 154579 93716.2 -166951 104498
213 2 Si 1.78573 39.934 51.2414 2.4 -33.1227 8.27149e+06 4.94747e+06 1.04682e+07 25567.2 292151 1.08599e+06
214 3 O 1.89428 41.5006 51.3014 -1.2 -9.53005 -3.91773e+06 -1.58069e+06 -4.75189e+06 850681 -189423 213649
215 3 O 1.77246 38.9772 57.7763 -1.2 -9.03154 -2.35399e+06 -2.68052e+06 -3.13423e+06 270740 1.07176e+06 3.28204e+06
216 3 O 0.469216 39.3015 50.6588 -1.2 -8.96258 -2.99322e+06 -2.67169e+06 -4.48891e+06 1.26269e+06 -860365 -716211
217 1 Mg -2.69668 37.8889 52.3043 1.2 -7.2563 -705061 -92987.7 3.65644e+06 1.64678e+06 -1.6272e+06 667153
218 3 O 3.0225 39.2866 50.4651 -1.2 -9.36583 -2.99306e+06 -2.33094e+06 -2.34942e+06 -342632 873332 -646928
219 1 Mg -1.42786 38.0056 55.0638 1.2 -7.81803 47139.2 1.25748e+06 149883 595679 318005 -628279
220 2 Si -1.22622 35.8595 53.2115 2.4 -33.3216 5.42941e+06 3.58475e+06 1.11578e+07 1.29253e+06 1.07281e+06 -162397
221 3 O -1.41908 34.3444 53.0408 -1.2 -9.12387 -3.78064e+06 -3.50117e+06 -5.84642e+06 633263 545815 806483
222 3 O -0.738054 37.1566 46.4176 -1.2 -7.65953 -2.99198e+06 -2.03387e+06 -3.07987e+06 -607448 -1.50425e+06 983967
223 3 O -2.45348 36.443 53.9953 -1.2 -9.46256 -3.43163e+06 -4.51922e+06 -3.86463e+06 -279942 956936 -751503
224 3 O 0.0738942 36.513 53.8595 -1.2 -9.18844 -1.95853e+06 -2.5728e+06 -4.63734e+06 925026 -881044 682040
225 1 Mg -2.61378 45.205 57.5371 1.2 -8.1487 -2.00175e+06 -2.41696e+06 3.53377e+06 -1.07849e+06 -1.98986e+06 -1.26874e+06
226 1 Mg -1.06993 44.8968 49.8343 1.2 -8.38599 766734 1.98928e+06 2.19495e+06 -192408 394544 172221
227 2 Si -0.596166 42.4103 47.9215 2.4 -34.498 8.78327e+06 6.23882e+06 1.05634e+07 495201 2.35813e+06 -569263
228 3 O -0.51472 43.9796 47.9853 -1.2 -8.67611 -2.5944e+06 -4.05045e+06 -3.26724e+06 458619 -1.95186e+06 87234.2
229 3 O -1.14475 41.2777 51.7649 -1.2 -8.67495 -4.05928e+06 -2.1003e+06 -5.35207e+06 -25016.3 -985330 -1.44566e+06
230 3 O -1.76671 41.8331 48.8226 -1.2 -8.70467 -1.26707e+06 -3.15633e+06 -3.9419e+06 10205.6 -406970 -1.26188e+06
231 1 Mg 0.447076 40.3473 46.8135 1.2 -7.05305 2.12812e+06 -520439 1.21392e+06 1.12295e+06 1.58925e+06 -722058
232 3 O 0.866985 41.7666 48.385 -1.2 -8.60413 -1.77028e+06 -1.26144e+06 -2.65065e+06 -289116 -296219 783420
233 1 Mg 1.88737 40.4908 54.4063 1.2 -8.1171 -780055 156264 942565 -1.48447e+06 823400 1.22489e+06
234 2 Si 2.11616 43.0173 56.3825 2.4 -33.378 6.55565e+06 7.34842e+06 1.11077e+07 871565 378106 -707185
235 3 O 2.0268 41.4343 56.3327 -1.2 -9.57856 -3.13463e+06 -1.1378e+06 -5.13134e+06 1.54459e+06 -316310 1.52093e+06
236 3 O 1.95891 44.014 52.7248 -1.2 -9.25153 -3.5261e+06 -2.48494e+06 -6.66279e+06 242456 246032 -1.50134e+06
237 3 O 0.958403 43.7248 55.5477 -1.2 -8.66053 -3.82784e+06 -3.02922e+06 -4.20038e+06 -902663 -521910 212428
238 3 O 3.34228 43.7896 55.8138 -1.2 -8.79717 -6.19481e+06 -2.17342e+06 -4.391e+06 947.209 -1.16723e+06 -256415
239 1 Mg 0.379928 42.6418 52.2013 1.2 -8.21396 -607300 -1.61128e+06 3.82993e+06 -1.23356e+06 2.21177e+06 1.55767e+06
240 1 Mg 2.41752 42.366 49.4484 1.2 -7.94755 2.46115e+06 133637 638560 100490 -215963 131122
241 2 Si 1.89374 44.6874 51.2398 2.4 -32.81 7.61184e+06 4.71683e+06 1.08465e+07 289548 -236063 -192655
242 3 O 2.00266 46.254 51.2996 -1.2 -10.0358 -2.55746e+06 -2.11852e+06 -3.96727e+06 462368 -244452 535804
243 3 O 1.90043 43.786 57.892 -1.2 -9.09851 -3.9516e+06 -1.16586e+06 -5.34638e+06 -386523 -213256 3.06369e+06
244 3 O 0.577464 44.0549 50.6567 -1.2 -8.87647 -3.02471e+06 -2.2336e+06 -5.55215e+06 1.03443e+06 -480339 5661.55
245 1 Mg -2.58906 42.6425 52.3022 1.2 -7.72354 428306 -2.26534e+06 3.40577e+06 1.86388e+06 -2.16298e+06 1.44476e+06
246 3 O 3.13067 44.0398 50.464 -1.2 -9.40524 -3.18539e+06 -1.90517e+06 -2.63634e+06 -184548 835384 -1561.38
247 1 Mg -0.936228 42.9427 55.123 1.2 -8.03618 2.49735e+06 1.36687e+06 1.52113e+06 -558569 -438474 -435078
248 2 Si -1.19661 40.6536 53.2889 2.4 -32.8922 9.3964e+06 5.35641e+06 1.1732e+07 1.16956e+06 119237 -1.1715e+06
249 3 O -1.28542 39.0841 53.2872 -1.2 -9.76549 -3.68283e+06 -582979 -4.93568e+06 854779 -575447 1.23526e+06
250 3 O -0.631421 41.9099 46.4159 -1.2 -7.66469 -2.98163e+06 -1.93588e+06 -3.17776e+06 -606129 -1.50958e+06 972686
251 3 O -2.56644 41.2981 53.8094 -1.2 -9.23871 -3.81231e+06 -4.07099e+06 -6.1766e+06 -1.75822e+06 2.00979e+06 836887
252 3 O 0.205338 41.4219 53.7352 -1.2 -8.92006 -91159.9 -3.00168e+06 -7.04353e+06 1.22562e+06 -1.93319e+06 1.16743e+06
253 1 Mg -2.55601 49.9656 57.4794 1.2 -7.76588 -2.04291e+06 -2.11092e+06 2.9236e+06 -2.61126e+06 -1.48988e+06 -327840
254 1 Mg -0.961069 49.6502 49.8327 1.2 -8.41209 609376 1.96807e+06 2.39773e+06 -215805 68206.3 506078
255 2 Si -0.488083 47.1636 47.9198 2.4 -34.273 8.47217e+06 6.87342e+06 9.87583e+06 453091 2.33779e+06 -584290
256 3 O -0.40607 48.7329 47.9837 -1.2 -8.74644 -2.49806e+06 -4.25647e+06 -3.05921e+06 481455 -1.9063e+06 -94746.2
257 3 O -1.0361 46.031 51.7632 -1.2 -9.3879 -2.73938e+06 -3.1065e+06 -1.02348e+07 876604 -608889 1.21666e+06
258 3 O -1.65866 46.5866 48.821 -1.2 -8.87461 -1.01611e+06 -3.5592e+06 -3.52433e+06 35197.5 -359521 -1.17194e+06
259 1 Mg 0.554124 45.1001 46.8117 1.2 -6.9974 2.03667e+06 -415078 1.11167e+06 1.12473e+06 1.59302e+06 -893365
260 3 O 0.974961 46.5195 48.3832 -1.2 -8.73714 -1.55492e+06 -1.59272e+06 -2.32777e+06 -295426 -327371 931607
261 1 Mg 1.94313 45.0378 54.3797 1.2 -8.48583 2.30911e+06 1.51664e+06 -282209 82090.8 803577 892345
262 2 Si 2.05809 47.9775 56.4685 2.4 -34.19 5.56242e+06 3.99602e+06 8.57724e+06 -604739 373373 646906
263 3 O 2.05521 46.4672 56.5439 -1.2 -8.75758 -4.30845e+06 -5.06853e+06 -3.55858e+06 1.3002e+06 -98650 286809
264 3 O 2.0677 48.7672 52.7232 -1.2 -9.42758 -2.80792e+06 -993356 -4.84177e+06 -911736 -1.14595e+06 246745
265 3 O 0.677961 48.4505 55.8965 -1.2 -8.69268 -3.56687e+06 -3.8935e+06 -3.37775e+06 893067 -949752 351013
266 3 O 3.21307 48.5858 55.7321 -1.2 -8.86949 -4.77637e+06 -3.65223e+06 -4.89014e+06 -1.66137e+06 1.68804e+06 896669
267 1 Mg 0.488584 47.395 52.1996 1.2 -7.42487 -589663 -583028 5.05592e+06 -1.50704e+06 1.64807e+06 360048
268 1 Mg 2.52544 47.1195 49.4466 1.2 -7.74761 2.03301e+06 585776 294680 187844 -192046 126436
269 2 Si 2.00256 49.4407 51.2382 2.4 -32.6576 8.05437e+06 4.38113e+06 1.03722e+07 649124 1.40721e+06 -788569
270 3 O 2.11156 51.0073 51.2982 -1.2 -10.0013 -3.14649e+06 -2.27629e+06 -3.3518e+06 832363 -1.41585e+06 776275
271 3 O 2.01303 48.6296 57.9597 -1.2 -8.95524 -4.73701e+06 -4.59468e+06 -6.68684e+06 -908513 419660 746194