ITEM: TIMESTEP
44600
ITEM: NUMBER OF ATOMS
10500
ITEM: BOX BOUNDS xy xz yz pp pp pp
0.0000000000000000e+00 8.9687999999999999e+00 2.9895999999999998e+00
0.0000000000000000e+00 1.1872499999999999e+02 0.0000000000000000e+00
0.0000000000000000e+00 2.5297749999999999e+02 0.0000000000000000e+00
ITEM: ATOMS id type element xu yu zu q c_pe c_s[1] c_s[2] c_s[3] c_s[4] c_s[5] c_s[6]
1 1 Mg -3.72032 6.95269 57.3941 1.2 -8.29387 -342967 -2.71238e+06 3.41247e+06 -221309 -2.37084e+06 -1.2838e+06
2 1 Mg -1.82655 6.90154 50.0912 1.2 -8.27428 104434 980616 1.37788e+06 -157370 -138900 1.46311e+06
3 2 Si -0.257935 3.96038 48.0876 2.4 -36.186 1.0183e+07 9.10338e+06 1.05446e+07 798686 1.99903e+06 1.41986e+06
4 3 O -0.335812 5.46814 47.6264 -1.2 -7.74299 -3.13999e+06 -2.57097e+06 -2.43834e+06 148819 -973116 -486937
5 3 O -2.03793 3.43377 51.8941 -1.2 -9.27996 -3.0418e+06 -3.29502e+06 -8.45973e+06 -910465 520281 -583042
6 3 O -1.54015 3.53929 48.9521 -1.2 -8.2563 -1.39284e+06 -1.84572e+06 -4.0837e+06 24214.9 -789571 -54010
7 1 Mg 1.82954 2.54582 47.1376 1.2 -8.0975 2.77796e+06 -399837 646459 1.14621e+06 823722 321503
8 3 O 1.22989 3.66364 48.7877 -1.2 -7.96141 -1.71767e+06 -2.56994e+06 -3.51579e+06 -477600 -678261 -799436
9 1 Mg 1.05059 2.38315 54.586 1.2 -8.4709 1.8413e+06 42290.8 1.04815e+06 554973 -71409 1.63724e+06
10 2 Si 0.823038 5.03528 56.4205 2.4 -33.601 7.39284e+06 3.34961e+06 1.11698e+07 98636.2 -532747 211724
11 3 O 0.798122 3.51481 56.4382 -1.2 -9.11646 -3.55559e+06 -3.12682e+06 -5.3186e+06 135510 -307059 -787219
12 3 O 1.10813 6.07342 52.8172 -1.2 -9.14617 -3.47511e+06 -3.82371e+06 -5.46119e+06 -404261 -490590 -1.7357e+06
13 3 O -0.398738 5.80028 55.7898 -1.2 -8.9689 -2.457e+06 -2.94448e+06 -6.40752e+06 179609 -1.76098e+06 -548888
14 3 O 2.16392 5.64336 55.8051 -1.2 -9.05869 -3.25865e+06 -4.69843e+06 -4.5926e+06 328662 598954 -94223.6
15 1 Mg -0.459401 4.67631 52.2426 1.2 -8.03965 -1.42566e+06 -1.41893e+06 5.55439e+06 -1.60009e+06 1.4359e+06 729002
16 1 Mg 2.79456 3.9971 49.9987 1.2 -8.34113 3.68285e+06 128235 1.3079e+06 -489577 752590 -962795
17 2 Si 1.16169 6.59457 51.2556 2.4 -33.6062 7.49359e+06 6.06219e+06 1.16665e+07 336706 260326 2.76299e+06
18 3 O 1.28989 8.18905 51.2909 -1.2 -9.44209 -3.16515e+06 -1.35585e+06 -3.82595e+06 155697 -763519 855255
19 3 O 0.808561 5.6144 57.9286 -1.2 -8.6768 -4.66965e+06 -3.0599e+06 -6.20283e+06 -768309 493480 802925
20 3 O -0.184847 6.06029 50.6845 -1.2 -8.68472 -2.85448e+06 -3.14888e+06 -5.3355e+06 1.5568e+06 -263679 -1.44891e+06
21 1 Mg -3.49704 4.67769 52.6661 1.2 -7.33609 161342 -2.47816e+06 2.96666e+06 2.8012e+06 -1.14786e+06 1.03903e+06
22 3 O 2.48581 5.93312 50.6539 -1.2 -9.31974 -3.17909e+06 -1.4821e+06 -2.8772e+06 -1.70026e+06 -484922 -986065
23 1 Mg -2.10571 4.60886 55.2952 1.2 -8.34138 1.93681e+06 1.27326e+06 -937778 -342361 -1.1028e+06 -1.04479e+06
24 2 Si -1.95602 2.74285 53.2331 2.4 -33.2803 7.41045e+06 5.34987e+06 1.17598e+07 1.50409e+06 1.38537e+06 1.01566e+06
25 3 O -2.02202 1.09659 53.1719 -1.2 -9.02363 -2.67578e+06 1.01434e+06 -5.00722e+06 680627 -1.37635e+06 622137
26 3 O -0.0467762 2.97103 46.8385 -1.2 -6.91398 -3.11262e+06 -2.26569e+06 -2.76747e+06 -990491 -2.00684e+06 -437957
27 3 O -3.07518 3.3894 54.139 -1.2 -9.32017 -4.29365e+06 -3.14125e+06 -6.39363e+06 -688728 90429.7 -108297
28 3 O -0.536426 3.29998 53.9544 -1.2 -8.50885 -1.77286e+06 -3.00438e+06 -4.23844e+06 1.74637e+06 737366 696194
29 1 Mg -3.30206 11.6336 57.4641 1.2 -7.75309 -1.7417e+06 -1.03666e+06 3.43269e+06 450133 -2.34103e+06 891195
30 1 Mg -1.75014 11.5838 49.8362 1.2 -8.45779 853504 1.97898e+06 2.41791e+06 -356614 63228.2 533667
31 2 Si -1.18003 9.02138 47.9309 2.4 -34.5009 8.56486e+06 7.15864e+06 9.76018e+06 214581 2.59081e+06 9852.68
32 3 O -1.23224 10.5991 47.9811 -1.2 -8.70121 -2.5422e+06 -3.58392e+06 -2.77362e+06 663932 -1.89486e+06 296403
33 3 O -1.79016 8.01447 51.8693 -1.2 -8.86656 -2.98219e+06 -2.12905e+06 -3.96935e+06 398110 -869858 -1.8507e+06
34 3 O -2.30986 8.37215 48.8528 -1.2 -8.90563 -1.10966e+06 -2.51019e+06 -3.40983e+06 -307833 -612739 -748978
35 1 Mg 0.154883 7.08234 46.8007 1.2 -7.5744 1.97169e+06 -86663.7 733403 943766 1.72273e+06 -1.09189e+06
36 3 O 0.325447 8.50934 48.3809 -1.2 -8.56603 -1.52178e+06 -1.95167e+06 -2.74144e+06 -47377.5 -824930 490825
37 1 Mg 1.12504 7.00048 54.5508 1.2 -8.41459 1.53434e+06 207656 386424 116871 519431 324110
38 2 Si 1.0375 9.64869 56.3309 2.4 -33.5059 8.49687e+06 4.74677e+06 1.15033e+07 -276473 -584727 -292771
39 3 O 0.978612 8.10744 56.5462 -1.2 -9.30925 -5.72808e+06 -3.19657e+06 -5.68065e+06 -284031 -365169 -95247.4
40 3 O 1.28624 10.7248 52.7351 -1.2 -8.94889 -3.1398e+06 -1.99845e+06 -4.63858e+06 -1.30019e+06 -2.01264e+06 -569789
41 3 O -0.219779 10.4513 55.8093 -1.2 -9.26392 -4.03235e+06 -2.4727e+06 -4.34943e+06 -408098 -569423 -721579
42 3 O 2.30479 10.2661 55.6276 -1.2 -8.71743 -2.70267e+06 -3.65031e+06 -5.58942e+06 1.21687e+06 842433 404508
43 1 Mg -0.262694 9.34741 52.2523 1.2 -7.9224 660570 -1.14181e+06 4.64373e+06 -1.37272e+06 1.48293e+06 743464
44 1 Mg 1.87648 9.01537 49.4629 1.2 -7.94944 2.09779e+06 440401 414696 276188 -230058 191476
45 2 Si 1.21415 11.3799 51.2378 2.4 -33.1751 8.05154e+06 4.83162e+06 1.11762e+07 661871 1.84387e+06 128556
46 3 O 1.31634 12.9512 51.3023 -1.2 -9.84862 -2.96963e+06 -1.81545e+06 -3.77658e+06 680325 -1.40673e+06 1.08678e+06
47 3 O 1.13681 10.2955 57.8864 -1.2 -9.09715 -3.46831e+06 -3.51537e+06 -2.49625e+06 292904 -435048 1.21655e+06
48 3 O -0.115718 10.7564 50.681 -1.2 -8.93239 -3.38738e+06 -2.33672e+06 -4.21525e+06 1.20714e+06 -768651 -277167
49 1 Mg -3.26386 9.35564 52.3622 1.2 -7.90797 -519330 -798109 4.23478e+06 1.43127e+06 -2.01496e+06 870992
50 3 O 2.45216 10.7265 50.4558 -1.2 -9.29645 -2.67205e+06 -1.89128e+06 -2.73108e+06 -813415 473026 60287
51 1 Mg -1.91926 9.50287 55.2294 1.2 -8.45917 1.54037e+06 1.1168e+06 1.45648e+06 294310 146708 -1.2871e+06
52 2 Si -1.81159 7.33782 53.4463 2.4 -33.3023 9.57358e+06 4.42643e+06 1.29624e+07 -707974 -1.13749e+06 -930555
53 3 O -1.78287 5.81356 53.36 -1.2 -9.41443 -4.48883e+06 -2.87561e+06 -5.94667e+06 1.46519e+06 -1.13011e+06 970960
54 3 O -1.19417 8.46968 46.4488 -1.2 -7.59074 -2.80299e+06 -2.05868e+06 -2.93137e+06 -539416 -1.74082e+06 983568
55 3 O -3.21545 7.93315 54.0793 -1.2 -8.82934 -1.37933e+06 -3.53925e+06 -4.05615e+06 -874668 -346980 -12295.2
56 3 O -0.540438 8.14361 53.9781 -1.2 -9.02843 -1.66996e+06 -2.67196e+06 -5.05466e+06 1.20621e+06 -1.06241e+06 372745
57 1 Mg -3.25217 16.4741 57.6246 1.2 -7.00819 -1.93528e+06 -68735.3 4.06264e+06 -699143 -1.81268e+06 -441564
58 1 Mg -1.6714 16.3544 49.8412 1.2 -8.17064 358559 2.37452e+06 1.92918e+06 -135628 -14990.3 778175
59 2 Si -1.18567 13.8526 47.9314 2.4 -34.1059 8.26406e+06 6.63637e+06 9.97595e+06 498717 2.17461e+06 -1.02081e+06
60 3 O -1.09664 15.4205 47.9915 -1.2 -8.9138 -2.18355e+06 -4.1624e+06 -2.89721e+06 421306 -1.89425e+06 84483.5
61 3 O -1.73493 12.7491 51.7772 -1.2 -9.18037 -1.94663e+06 -1.99983e+06 -3.52004e+06 89889.9 1.50154e+06 -1.15077e+06
62 3 O -2.36115 13.2717 48.8238 -1.2 -8.88173 -945058 -3.25802e+06 -3.75601e+06 -98307.6 -297122 -876331
63 1 Mg -0.159928 11.7639 46.8533 1.2 -6.96694 2.04197e+06 -488717 1.1203e+06 1.12761e+06 1.57301e+06 -1.17607e+06
64 3 O 0.2623 13.1866 48.413 -1.2 -8.79913 -1.57417e+06 -1.28338e+06 -2.42941e+06 -203102 -319602 1.15595e+06
65 1 Mg 1.02468 11.8997 54.6955 1.2 -8.14953 2.4121e+06 747764 1.25223e+06 229145 -1.8322e+06 821941
66 2 Si 1.27114 14.4248 56.3036 2.4 -32.1102 4.06054e+06 7.40607e+06 1.10822e+07 -68817.9 -923197 1.2291e+06
67 3 O 1.22065 12.8339 56.6045 -1.2 -9.72159 -3.56965e+06 -944951 -3.79402e+06 58151.2 446478 -1.40757e+06
68 3 O 1.36565 15.4813 52.729 -1.2 -9.79072 -2.16735e+06 -3.29584e+06 -4.81076e+06 712713 -625781 -1.05798e+06
69 3 O 0.06022 15.0992 55.6589 -1.2 -9.94345 -4.92095e+06 -4.35304e+06 -3.83521e+06 -1.62178e+06 -1.08526e+06 -1.00539e+06
70 3 O 2.53947 14.9614 55.6461 -1.2 -9.63191 -2.62559e+06 -4.33624e+06 -3.95715e+06 703364 1.09691e+06 -650972
71 1 Mg -0.206989 14.1049 52.2121 1.2 -7.21404 530458 -1.36067e+06 4.42671e+06 -1.04155e+06 1.57757e+06 486593
72 1 Mg 1.82591 13.8102 49.4556 1.2 -7.73853 1.9513e+06 690737 305347 134045 24106.7 -88786.6
73 2 Si 1.29285 16.1518 51.2434 2.4 -32.2199 6.54408e+06 5.93488e+06 9.75397e+06 -129381 1.30135e+06 760621
74 3 O 1.39496 17.7199 51.3047 -1.2 -10.1542 -2.74612e+06 -1.82733e+06 -3.72364e+06 967893 -381878 144780
75 3 O 1.26754 15.1674 57.907 -1.2 -9.4689 -1.34738e+06 -2.66832e+06 -3.23739e+06 58944.1 206390 878999
76 3 O -0.0269106 15.5178 50.6688 -1.2 -9.40034 -2.95227e+06 -2.83491e+06 -3.67747e+06 1.09152e+06 -1.02903e+06 -235583
77 1 Mg -3.18391 14.1057 52.3125 1.2 -7.66194 -2.17242e+06 -354503 3.95356e+06 1.24183e+06 -2.01294e+06 150290
78 3 O 2.52432 15.503 50.4579 -1.2 -9.589 -2.11223e+06 -2.66582e+06 -2.43275e+06 -346844 658097 -173765
79 1 Mg -1.61401 14.2857 55.2151 1.2 -7.8748 -308045 1.57598e+06 471973 -433525 72422.1 -589330
80 2 Si -1.71613 12.0371 53.2946 2.4 -32.9042 9.14869e+06 5.65796e+06 1.24976e+07 656422 -517882 56866.8
81 3 O -1.86862 10.5162 53.2387 -1.2 -9.47563 -4.25015e+06 -2.74289e+06 -4.28525e+06 2.31057e+06 551779 233752
82 3 O -1.21337 13.3381 46.4311 -1.2 -7.79151 -2.85138e+06 -1.98201e+06 -3.05511e+06 -630847 -1.44299e+06 1.2755e+06
83 3 O -3.12813 12.6594 53.8891 -1.2 -8.44146 737389 -5.23133e+06 -3.81429e+06 -1.61668e+06 -762448 -551585
84 3 O -0.516771 12.8872 54.0824 -1.2 -9.61752 -2.76436e+06 -1.88961e+06 -2.65358e+06 2.08409e+06 -108527 1.37062e+06
85 1 Mg -3.04371 21.1714 57.3498 1.2 -7.50763 -880676 -1.80391e+06 4.58807e+06 -1.03662e+06 -1.72568e+06 542287
86 1 Mg -1.5831 21.1217 49.8405 1.2 -7.98159 97014.9 2.07065e+06 2.15685e+06 -202637 301988 523192
87 2 Si -1.09384 18.6291 47.9287 2.4 -33.8192 7.72556e+06 6.71747e+06 1.00363e+07 516162 2.30488e+06 -507775
88 3 O -1.02071 20.1985 47.9911 -1.2 -9.0354 -2.01169e+06 -4.15848e+06 -3.05075e+06 447582 -1.9371e+06 -27309.7
89 3 O -1.65002 17.5002 51.771 -1.2 -9.32571 -1.65871e+06 -1.66898e+06 -4.41443e+06 -438869 269272 -2.35172e+06
90 3 O -2.26174 18.0434 48.8281 -1.2 -9.07035 -636950 -3.35233e+06 -3.75093e+06 -50267.6 -356751 -1.20753e+06
91 1 Mg -0.0440435 16.5651 46.8269 1.2 -6.81022 1.72563e+06 -275139 956125 1.13234e+06 1.58025e+06 -926345
92 3 O 0.37001 17.9877 48.3925 -1.2 -8.9593 -1.27016e+06 -1.49975e+06 -2.35498e+06 -271779 -330465 786051
93 1 Mg 1.42527 16.464 54.5063 1.2 -7.76396 1.04093e+06 2.47685e+06 -329800 -141586 75856.8 1.04412e+06
94 2 Si 1.39894 19.1287 56.3922 2.4 -32.8802 5.66365e+06 4.51827e+06 9.96433e+06 -559808 -762339 2.22849e+06
95 3 O 1.35612 17.5969 56.4368 -1.2 -10.1164 -2.3686e+06 -4.7441e+06 -3.18207e+06 187946 310939 -283802
96 3 O 1.45147 20.239 52.7294 -1.2 -9.85142 -2.90302e+06 -2.82148e+06 -7.02147e+06 486566 -216993 -2.46469e+06
97 3 O 0.177112 19.839 55.8259 -1.2 -9.09577 -4.78688e+06 -2.4732e+06 -4.22252e+06 626251 -1.10415e+06 -366861
98 3 O 2.61824 19.8387 55.6617 -1.2 -9.15209 -4.04681e+06 -3.25321e+06 -3.83108e+06 1.01232e+06 916353 -1.01332e+06
99 1 Mg -0.126194 18.8651 52.2079 1.2 -7.51599 -998247 -1.67376e+06 4.43952e+06 -1.01228e+06 1.88201e+06 1.25427e+06
100 1 Mg 1.92402 18.5815 49.4545 1.2 -7.54379 1.73248e+06 447110 361390 63205.9 -100711 213509
101 2 Si 1.38106 20.9117 51.2443 2.4 -31.8816 6.26847e+06 4.794e+06 1.0661e+07 277339 -39517.7 675759
102 3 O 1.48527 22.4795 51.3054 -1.2 -10.4074 -2.08425e+06 -1.80413e+06 -4.1248e+06 565614 -214437 311427
103 3 O 1.51483 19.8075 57.9036 -1.2 -9.4112 -2.65174e+06 -1.86214e+06 -6.0328e+06 -424137 -516992 1.07709e+06
104 3 O 0.0615419 20.2804 50.6669 -1.2 -9.36698 -2.37206e+06 -2.27244e+06 -5.34767e+06 973493 -480108 -270704
105 1 Mg -3.09665 18.8643 52.3122 1.2 -7.32213 -586595 -1.0226e+06 4.43222e+06 1.47959e+06 -1.47641e+06 925520
106 3 O 2.61548 20.2646 50.4626 -1.2 -9.84981 -2.2748e+06 -2.09725e+06 -2.41098e+06 -229614 795399 -258821
107 1 Mg -1.64453 18.7891 55.0989 1.2 -7.98789 2.36224e+06 1.09134e+06 615965 651963 -215029 -711915
108 2 Si -1.50151 16.7135 53.2577 2.4 -31.6075 6.97847e+06 7.23166e+06 1.09427e+07 288725 -352991 34402.7
109 3 O -1.81499 15.2041 53.2015 -1.2 -10.1936 -2.86357e+06 -3.68607e+06 -3.77814e+06 614206 136668 479501
110 3 O -1.12868 18.1227 46.4249 -1.2 -7.93129 -2.57524e+06 -2.14736e+06 -2.93474e+06 -606820 -1.49218e+06 1.06528e+06
111 3 O -2.82867 17.5359 54.0216 -1.2 -9.25607 451234 -3.51379e+06 -3.80882e+06 -2.12724e+06 412881 -483835
112 3 O -0.254709 17.4603 53.8307 -1.2 -9.90725 -3.54901e+06 -2.57252e+06 -3.59069e+06 2.22034e+06 -1.00551e+06 66651.5
113 1 Mg -3.11948 26.1072 57.5632 1.2 -7.55133 -294889 -779615 3.14381e+06 -1.39313e+06 -1.30678e+06 -1.3852e+06
114 1 Mg -1.48778 25.88 49.8402 1.2 -7.9264 -1495.58 2.01257e+06 2.20765e+06 -190336 243397 753677
115 2 Si -1.00491 23.3922 47.9274 2.4 -33.5642 7.33325e+06 6.85027e+06 9.89534e+06 486112 2.34332e+06 -355907
116 3 O -0.927602 24.9615 47.9909 -1.2 -9.12178 -1.89469e+06 -4.22354e+06 -3.04006e+06 461848 -1.93511e+06 -182892
117 3 O -1.55795 22.2588 51.7696 -1.2 -9.75668 -1.94858e+06 -2.88774e+06 -8.67266e+06 713749 -49710.4 -190500
118 3 O -2.17411 22.8111 48.8277 -1.2 -9.24214 -429847 -3.4548e+06 -3.60656e+06 9929.27 -354762 -1.2795e+06
119 1 Mg 0.0423997 21.3296 46.8225 1.2 -6.68373 1.52986e+06 -274315 961650 1.12809e+06 1.59046e+06 -825610
120 3 O 0.458537 22.7495 48.3911 -1.2 -9.1021 -991107 -1.56744e+06 -2.34434e+06 -296140 -338285 769403
121 1 Mg 1.52477 21.1701 54.3523 1.2 -7.81126 2.05638e+06 1.08202e+06 -1.87304e+06 -195904 142644 -414774
122 2 Si 1.52508 23.8363 56.4123 2.4 -32.9148 6.29199e+06 3.35191e+06 1.25131e+07 -116780 -133912 1.58063e+06
123 3 O 1.41772 22.3415 56.5909 -1.2 -9.8976 -3.71048e+06 -5.55655e+06 -5.52392e+06 -814889 -339456 -1.52131e+06
124 3 O 1.54441 24.9963 52.7297 -1.2 -9.87014 -1.53015e+06 -1.68185e+06 -5.26832e+06 -92942.5 -789770 -532671
125 3 O 0.256362 24.641 55.8574 -1.2 -9.21071 -3.20706e+06 -1.70203e+06 -5.35325e+06 -445543 346604 -318712
126 3 O 2.67609 24.5573 55.5922 -1.2 -9.4166 -3.82796e+06 -1.72294e+06 -4.35739e+06 963114 25978.5 -1.01101e+06
127 1 Mg -0.0335968 23.6229 52.2067 1.2 -7.08597 -1.4702e+06 -1.18425e+06 4.83448e+06 -1.05471e+06 2.01246e+06 528106
128 1 Mg 2.01073 23.3445 49.4541 1.2 -7.36995 1.40998e+06 482372 378738 130973 -177877 256477
129 2 Si 1.47594 25.6699 51.2449 2.4 -31.7817 5.68853e+06 4.58339e+06 1.12109e+07 282037 534246 280281
130 3 O 1.58172 27.2371 51.3054 -1.2 -10.4116 -2.26941e+06 -1.76207e+06 -3.82956e+06 594510 -760669 500006
131 3 O 1.58123 24.5696 57.9157 -1.2 -8.88568 -4.13253e+06 -1.39732e+06 -4.03714e+06 -265451 -1.26284e+06 1.24313e+06
132 3 O 0.157925 25.0378 50.6651 -1.2 -9.55207 -2.16967e+06 -2.36812e+06 -4.88553e+06 1.1434e+06 -833613 -345606
133 1 Mg -3.00341 23.6231 52.3098 1.2 -6.95024 -1.94622e+06 -1.96617e+06 4.26022e+06 1.14597e+06 -2.23016e+06 600643
134 3 O 2.71149 25.0232 50.4656 -1.2 -9.94402 -2.01166e+06 -2.12636e+06 -2.69347e+06 -305274 882529 -349247
135 1 Mg -1.55232 23.7559 54.9965 1.2 -7.66943 2.18557e+06 1.41035e+06 972417 127852 544001 123761
136 2 Si -1.54674 21.5949 53.1553 2.4 -32.3216 4.49214e+06 5.26363e+06 1.09582e+07 73622.8 562848 793467
137 3 O -1.50582 19.9718 53.1407 -1.2 -9.72292 -2.45607e+06 -1.15991e+06 -4.61236e+06 -206222 621316 -926200
138 3 O -1.03938 22.8897 46.4223 -1.2 -8.03956 -2.3891e+06 -2.2186e+06 -2.87522e+06 -605867 -1.50496e+06 948344
139 3 O -2.74908 22.2325 53.8907 -1.2 -9.70034 -3.19388e+06 -3.37216e+06 -5.0902e+06 -2082.66 1.21745e+06 -95447
140 3 O -0.204809 22.1997 53.8345 -1.2 -9.38706 -1.24672e+06 -2.23736e+06 -4.11366e+06 510651 -364509 5603.42
141 1 Mg -2.97376 30.9135 57.3206 1.2 -7.44911 -1.04295e+06 -1.10194e+06 4.31746e+06 -1.14595e+06 -1.72478e+06 -1.25866e+06
142 1 Mg -1.38776 30.6357 49.8391 1.2 -7.95501 -8471.31 2.09989e+06 2.1604e+06 -194275 54936.1 718794
143 2 Si -0.907929 28.1491 47.9262 2.4 -33.5439 7.29555e+06 6.73798e+06 1.00155e+07 474024 2.29676e+06 -229069
144 3 O -0.829229 29.7184 47.99 -1.2 -9.10909 -1.92484e+06 -4.21979e+06 -3.06978e+06 464561 -1.90373e+06 -226463
145 3 O -1.45946 27.0152 51.769 -1.2 -9.54894 -1.35598e+06 -1.57454e+06 -6.92156e+06 559875 148856 -1.4966e+06
146 3 O -2.07744 27.5697 48.8273 -1.2 -9.24453 -365925 -3.39011e+06 -3.75351e+06 21795 -358645 -1.35752e+06
147 1 Mg 0.137907 26.087 46.819 1.2 -6.62604 1.44592e+06 -284689 970946 1.12367e+06 1.59162e+06 -674719
148 3 O 0.55579 27.5065 48.3893 -1.2 -9.122 -990660 -1.50059e+06 -2.38488e+06 -295570 -324271 701500
149 1 Mg 1.64535 26.1142 54.6098 1.2 -7.64123 843500 1.15468e+06 1.0682e+06 -453875 635658 338816
150 2 Si 1.60489 28.7436 56.2183 2.4 -32.0618 5.36726e+06 3.5535e+06 1.22949e+07 -1.80963e+06 36759.6 57960
151 3 O 1.53725 27.2636 56.3673 -1.2 -10.3417 -2.26237e+06 -4.59741e+06 -3.67426e+06 -290133 119587 -1.53266e+06
152 3 O 1.6432 29.7522 52.7291 -1.2 -10.0116 -1.70084e+06 -1.06689e+06 -5.10736e+06 -359852 -1.02737e+06 -509626
153 3 O 0.193591 29.5239 55.6979 -1.2 -9.58213 -355574 -1.95751e+06 -3.4357e+06 -1.68197e+06 -1.25017e+06 -234141
154 3 O 2.77518 29.4572 55.5911 -1.2 -9.72932 -2.13228e+06 -2.52335e+06 -4.89699e+06 -218611 1.89917e+06 793999
155 1 Mg 0.0647462 28.3794 52.2059 1.2 -7.09794 -686812 -1.36264e+06 4.89593e+06 -745731 1.33395e+06 379119
156 1 Mg 2.10696 28.1021 49.4531 1.2 -7.37321 1.44016e+06 404768 438405 147647 -97175.3 251236
157 2 Si 1.57592 30.4257 51.2442 2.4 -31.6955 5.89451e+06 4.83016e+06 1.05758e+07 429221 1.31735e+06 66494.9
158 3 O 1.68288 31.9926 51.3043 -1.2 -10.3846 -2.36752e+06 -1.95748e+06 -3.65611e+06 890025 -950557 232671
159 3 O 1.55297 29.3678 57.8503 -1.2 -8.9384 -836176 -1.64227e+06 -2.12784e+06 -48102.6 -936209 526820
160 3 O 0.258524 29.7935 50.6632 -1.2 -9.60369 -2.42708e+06 -2.35742e+06 -4.47089e+06 1.07758e+06 -842373 -101447
161 1 Mg -2.90462 28.3797 52.308 1.2 -7.17563 -1.63623e+06 -1.46704e+06 4.35942e+06 1.3407e+06 -1.58405e+06 906128
162 3 O 2.81205 29.7787 50.4664 -1.2 -9.88673 -1.85803e+06 -2.23473e+06 -2.78554e+06 -313837 747095 -361512
163 1 Mg -1.32622 28.4071 55.1308 1.2 -7.71682 -168249 1.61742e+06 1.38543e+06 -453333 24424.6 -976198
164 2 Si -1.53125 26.2562 53.2146 2.4 -31.9661 4.36277e+06 4.64077e+06 1.18607e+07 430114 28592.3 -289790
165 3 O -1.56284 24.6966 53.1419 -1.2 -10.5593 -2.88078e+06 -2.92762e+06 -5.04671e+06 -171122 532949 -71795
166 3 O -0.943026 27.648 46.4208 -1.2 -8.06869 -2.33958e+06 -2.19414e+06 -2.91233e+06 -602839 -1.50285e+06 823423
167 3 O -2.76927 26.9644 53.8573 -1.2 -9.57121 -4.75825e+06 -3.62898e+06 -5.0904e+06 -1.94867e+06 1.10915e+06 561650
168 3 O -0.343206 26.9969 53.9699 -1.2 -9.60127 -2.71714e+06 -1.81712e+06 -3.92583e+06 1.74853e+06 -1.05187e+06 899352
169 1 Mg -2.72581 35.5011 57.5206 1.2 -7.14662 -819559 -830794 4.23825e+06 901166 -1.81534e+06 -1.22893e+06
170 1 Mg -1.28421 35.3899 49.8376 1.2 -8.11289 185026 1.79413e+06 2.52696e+06 -138023 218341 448964
171 2 Si -0.807101 32.9036 47.9247 2.4 -33.6567 7.47705e+06 6.59146e+06 1.01633e+07 495916 2.27705e+06 -24363.2
172 3 O -0.727174 34.4729 47.9885 -1.2 -9.03333 -2.03158e+06 -4.09071e+06 -3.22235e+06 455157 -1.91113e+06 -234162
173 3 O -1.35735 31.7701 51.768 -1.2 -9.7372 -1.30901e+06 -1.68057e+06 -5.69728e+06 29972.3 1.16018e+06 -1.62143e+06
174 3 O -1.97695 32.3253 48.826 -1.2 -9.18205 -424943 -3.3868e+06 -3.80558e+06 -854.286 -328038 -1.46609e+06
175 1 Mg 0.237665 30.8412 46.8168 1.2 -6.64177 1.48401e+06 -321977 998952 1.12309e+06 1.59077e+06 -581971
176 3 O 0.656562 32.2608 48.3877 -1.2 -9.07298 -1.0947e+06 -1.47113e+06 -2.3854e+06 -284252 -332842 578679
177 1 Mg 1.61949 31.0406 54.4864 1.2 -7.59263 828126 989470 1.16178e+06 -310711 -740362 186764
178 2 Si 1.54042 33.468 56.1945 2.4 -32.1921 5.64528e+06 2.79493e+06 1.20223e+07 365240 2.1495e+06 -1.16119e+06
179 3 O 1.57663 31.9679 56.3814 -1.2 -9.86715 -3.38607e+06 -4.99656e+06 -4.77458e+06 -827610 -396557 -127656
180 3 O 1.74574 34.5067 52.7279 -1.2 -9.6227 -3.22663e+06 -1.24129e+06 -5.37387e+06 3198.25 -1.07423e+06 -780278
181 3 O 0.186278 34.1707 55.6578 -1.2 -9.62161 -1.42424e+06 -3.26705e+06 -3.73497e+06 -692517 -478559 268536
182 3 O 2.72778 34.1038 55.5615 -1.2 -9.40502 -3.39847e+06 -4.59069e+06 -6.28516e+06 -381878 2.25906e+06 1.53878e+06
183 1 Mg 0.167046 33.1343 52.2045 1.2 -7.24189 -408696 -1.5482e+06 5.04958e+06 -1.38312e+06 1.32679e+06 1.14471e+06
184 1 Mg 2.20727 32.8578 49.4516 1.2 -7.45704 1.5737e+06 344660 509866 98354.2 -63549.2 382214
185 2 Si 1.67943 35.1802 51.2429 2.4 -32.1964 7.10637e+06 3.8761e+06 1.11541e+07 83852.6 738677 -134182
186 3 O 1.78736 36.747 51.303 -1.2 -10.3079 -2.21652e+06 -2.06761e+06 -3.72654e+06 804302 -607035 732193
187 3 O 1.69794 34.106 57.8477 -1.2 -9.11627 -927916 -2.43234e+06 -2.8763e+06 874196 1.21968e+06 1.51666e+06
188 3 O 0.362533 34.5479 50.661 -1.2 -9.33614 -2.71181e+06 -1.9515e+06 -5.06294e+06 1.19739e+06 -611732 -367455
189 1 Mg -2.80215 33.1347 52.3062 1.2 -7.3586 -1.44708e+06 -1.18383e+06 4.07326e+06 1.63102e+06 -1.57973e+06 1.14486e+06
190 3 O 2.91593 34.533 50.466 -1.2 -9.71571 -2.36008e+06 -1.83375e+06 -3.03106e+06 -283684 657534 -310249
191 1 Mg -1.48029 33.1919 55.089 1.2 -8.09983 801245 1.24536e+06 1.22595e+06 -75584.9 5483.08 -1.76895e+06
192 2 Si -1.29797 31.0642 53.2344 2.4 -31.508 5.16393e+06 8.02787e+06 1.28965e+07 925080 536367 -203224
193 3 O -1.43376 29.4651 53.2028 -1.2 -10.2173 -1.89047e+06 -547456 -4.89959e+06 1.21136e+06 303317 459140
194 3 O -0.842495 32.4028 46.4192 -1.2 -8.03737 -2.38904e+06 -2.13319e+06 -2.97514e+06 -605731 -1.49959e+06 739699
195 3 O -2.62779 31.8152 53.8647 -1.2 -9.55234 -939041 -3.78798e+06 -5.36924e+06 -2.0213e+06 515790 1.04002e+06
196 3 O -0.0972328 31.922 53.9624 -1.2 -9.86796 -1.38223e+06 -2.0527e+06 -3.78546e+06 2.03276e+06 -669058 1.60206e+06
197 1 Mg -2.51726 40.3302 57.519 1.2 -6.52349 -1.07152e+06 -1.29367e+06 3.41329e+06 -1.85634e+06 -1.49725e+06 -465558
198 1 Mg -1.17787 40.1435 49.8359 1.2 -8.08287 261156 2.25363e+06 1.94759e+06 -194380 213151 907815
199 2 Si -0.702692 37.6572 47.9231 2.4 -33.7317 7.58814e+06 6.86615e+06 9.89675e+06 492224 2.32719e+06 -215229
200 3 O -0.621782 39.2264 47.9868 -1.2 -9.00833 -2.08143e+06 -4.30949e+06 -2.99623e+06 463024 -1.9307e+06 -332775
201 3 O -1.25221 36.5242 51.7666 -1.2 -9.6808 -1.22256e+06 -3.33526e+06 -5.07415e+06 206721 -106706 215899
202 3 O -1.87295 37.0796 48.8243 -1.2 -9.1425 -542285 -3.51088e+06 -3.62146e+06 21648.1 -366227 -1.24519e+06
203 1 Mg 0.341084 35.5943 46.8152 1.2 -6.69233 1.55849e+06 -379300 1.06477e+06 1.12358e+06 1.58805e+06 -613741
204 3 O 0.760681 37.0138 48.3864 -1.2 -9.02081 -1.13317e+06 -1.55677e+06 -2.33617e+06 -298039 -318451 746756
205 1 Mg 1.61587 35.5912 54.5265 1.2 -7.98709 1.95103e+06 722897 823969 288913 -220556 1.41851e+06
206 2 Si 1.85492 38.2508 56.4901 2.4 -31.8608 6.78735e+06 6.8813e+06 8.6064e+06 -889743 -237908 152025
207 3 O 1.8417 36.6707 56.4961 -1.2 -9.94395 -2.85241e+06 -388684 -3.02598e+06 -20357.2 1.59078e+06 692824
208 3 O 1.85132 39.2606 52.7264 -1.2 -9.81149 -1.77659e+06 -3.02964e+06 -5.02635e+06 766089 790448 -1.0432e+06
209 3 O 0.68792 39.0066 55.5846 -1.2 -9.57944 162076 -3.51334e+06 -3.56944e+06 -900652 -91127.3 233558
210 3 O 3.24878 38.8026 55.9509 -1.2 -9.70597 -1.93132e+06 -4.23526e+06 -2.7265e+06 1.27743e+06 230768 155814
211 1 Mg 0.272384 37.8883 52.2029 1.2 -7.12715 -1.64833e+06 -747793 4.531e+06 -765345 2.19824e+06 412491
212 1 Mg 2.31122 37.6122 49.4501 1.2 -7.4724 1.61935e+06 612533 230672 103602 -170981 180021
213 2 Si 1.78573 39.934 51.2414 2.4 -32.0848 6.03181e+06 5.43928e+06 1.05157e+07 346380 159363 761277
214 3 O 1.89428 41.5006 51.3014 -1.2 -10.1569 -2.48769e+06 -2.14111e+06 -3.70741e+06 663378 -279832 152943
215 3 O 1.76069 39.0149 57.856 -1.2 -10.2301 -3.25798e+06 -2.24618e+06 -6.97704e+06 1.13194e+06 1.8337e+06 476713
216 3 O 0.469216 39.3015 50.6588 -1.2 -9.40914 -2.4567e+06 -2.70357e+06 -4.76131e+06 1.06118e+06 -756735 -352680
217 1 Mg -2.69668 37.8889 52.3043 1.2 -6.89903 -1.4814e+06 -1.13485e+06 3.94395e+06 1.72225e+06 -2.20345e+06 360849
218 3 O 3.0225 39.2866 50.4651 -1.2 -9.80776 -2.26188e+06 -2.50877e+06 -2.29823e+06 -288142 877130 -517592
219 1 Mg -1.03656 38.0437 55.0806 1.2 -7.65525 1.59039e+06 1.81375e+06 811490 569445 -759320 -1.35083e+06
220 2 Si -1.32041 35.9238 53.257 2.4 -32.4879 5.8376e+06 4.25221e+06 1.2256e+07 735276 -525875 -314438
221 3 O -1.37499 34.3574 53.1831 -1.2 -9.51022 -3.25204e+06 -1.78356e+06 -5.35165e+06 485152 34901.9 967444
222 3 O -0.738054 37.1566 46.4176 -1.2 -7.99747 -2.45094e+06 -2.16171e+06 -2.95143e+06 -606592 -1.50494e+06 763650
223 3 O -2.61156 36.5295 53.9436 -1.2 -9.43448 -1.51995e+06 -3.28801e+06 -4.58347e+06 113439 697674 -365872
224 3 O -0.0310558 36.5497 53.9834 -1.2 -9.72611 -1.78676e+06 -3.21187e+06 -3.77926e+06 212705 -410636 713987
225 1 Mg -2.50886 44.9132 57.1788 1.2 -7.18113 -2.66336e+06 -2.26762e+06 5.4309e+06 -1.9212e+06 -1.7916e+06 348016
226 1 Mg -1.06993 44.8968 49.8343 1.2 -8.24118 498939 1.68976e+06 2.52031e+06 -146031 334336 726612
227 2 Si -0.596166 42.4103 47.9215 2.4 -33.884 7.83544e+06 6.54214e+06 1.02226e+07 491519 2.32018e+06 297813
228 3 O -0.51472 43.9796 47.9853 -1.2 -8.92429 -2.20778e+06 -4.01873e+06 -3.29877e+06 455258 -1.93495e+06 -388687
229 3 O -1.14475 41.2777 51.7649 -1.2 -9.50307 -1.72363e+06 -2.83438e+06 -5.37489e+06 524893 345281 -1.23649e+06
230 3 O -1.76671 41.8331 48.8226 -1.2 -9.05769 -674759 -3.40601e+06 -3.72931e+06 5919.92 -355153 -1.67528e+06
231 1 Mg 0.447076 40.3473 46.8135 1.2 -6.73299 1.62141e+06 -328146 1.01563e+06 1.12342e+06 1.59253e+06 -455537
232 3 O 0.866985 41.7666 48.385 -1.2 -8.94829 -1.24678e+06 -1.48875e+06 -2.40402e+06 -284907 -324231 405529
233 1 Mg 2.07268 40.255 54.5458 1.2 -7.70681 867243 2.14912e+06 348883 -411907 988430 441108
234 2 Si 1.93769 42.9093 56.417 2.4 -31.2093 4.09117e+06 1.2159e+06 1.34227e+07 399809 -322793 3.21432e+06
235 3 O 1.92993 41.425 56.4812 -1.2 -10.4334 -2.9834e+06 -6.51074e+06 -5.11904e+06 -915026 383641 1.13459e+06
236 3 O 1.95891 44.014 52.7248 -1.2 -9.16649 -3.0622e+06 -3.33652e+06 -4.69482e+06 -1.02719e+06 -1.60505e+06 -2.04164e+06
237 3 O 0.652382 43.5342 55.7549 -1.2 -9.94366 -1.80639e+06 -2.8576e+06 -4.08696e+06 174086 125693 -56530.7
238 3 O 3.18688 43.487 55.6155 -1.2 -9.80544 -1.89917e+06 -3.62743e+06 -4.66674e+06 334054 393656 -925496
239 1 Mg 0.379928 42.6418 52.2013 1.2 -7.49811 -432570 -625716 4.534e+06 -1.32089e+06 1.76601e+06 902484
240 1 Mg 2.41752 42.366 49.4484 1.2 -7.59939 1.83176e+06 383597 457039 110316 -142972 612121
241 2 Si 1.89374 44.6874 51.2398 2.4 -32.7389 7.15035e+06 4.06191e+06 1.18267e+07 237706 661051 1.24486e+06
242 3 O 2.00266 46.254 51.2996 -1.2 -9.97122 -2.30261e+06 -1.82595e+06 -5.14974e+06 751682 -1.16295e+06 587211
243 3 O 2.02005 43.7094 57.914 -1.2 -9.88724 -1.12388e+06 -1.94315e+06 -3.84339e+06 -460683 -115552 197825
244 3 O 0.577464 44.0549 50.6567 -1.2 -9.11458 -2.85518e+06 -2.12257e+06 -5.17103e+06 1.13443e+06 -665691 -758694
245 1 Mg -2.58906 42.6425 52.3022 1.2 -7.46916 -990002 -1.28558e+06 3.99184e+06 1.20197e+06 -1.93035e+06 1.01775e+06
246 3 O 3.13067 44.0398 50.464 -1.2 -9.57173 -2.73094e+06 -1.88599e+06 -2.90965e+06 -177336 855908 -639756
247 1 Mg -1.17111 42.4881 55.0956 1.2 -7.71535 1.48511e+06 973122 -541069 22763.7 441185 -1.03408e+06
248 2 Si -1.06987 40.5232 53.1968 2.4 -31.8798 6.83708e+06 4.25757e+06 1.06096e+07 -852054 1.44298e+06 -272641
249 3 O -1.16486 39.0185 53.1027 -1.2 -10.5453 -2.95689e+06 -4.34152e+06 -4.44339e+06 3580.14 -397298 475752
250 3 O -0.631421 41.9099 46.4159 -1.2 -7.94801 -2.53192e+06 -2.0887e+06 -3.02177e+06 -605482 -1.50542e+06 610177
251 3 O -2.32133 41.2634 53.9543 -1.2 -9.77274 -2.54095e+06 -3.82575e+06 -4.00685e+06 -1.1045e+06 731074 -340989
252 3 O 0.24635 41.1429 53.8919 -1.2 -9.3145 -516182 -3.95593e+06 -3.2588e+06 1.49227e+06 -295614 589333
253 1 Mg -2.45732 49.8728 57.1538 1.2 -6.74359 -2.63092e+06 -3.24677e+06 5.86064e+06 -1.69713e+06 -1.59694e+06 -567158
254 1 Mg -0.961069 49.6502 49.8327 1.2 -8.04251 337885 2.08476e+06 1.95786e+06 -225265 173319 1.00274e+06
255 2 Si -0.488083 47.1636 47.9198 2.4 -33.8476 7.81811e+06 6.68068e+06 1.00401e+07 482439 2.36182e+06 -152619
256 3 O -0.40607 48.7329 47.9837 -1.2 -8.97692 -2.15576e+06 -4.25683e+06 -3.03019e+06 471706 -1.94197e+06 -353569
257 3 O -1.0361 46.031 51.7632 -1.2 -9.63472 -1.77166e+06 -1.45337e+06 -3.54603e+06 608781 -566315 -850455
258 3 O -1.65866 46.5866 48.821 -1.2 -9.07001 -718421 -3.36175e+06 -3.72207e+06 40222.9 -359780 -1.33322e+06
259 1 Mg 0.554124 45.1001 46.8117 1.2 -6.77536 1.68557e+06 -471356 1.16332e+06 1.12548e+06 1.59358e+06 -524412
260 3 O 0.974961 46.5195 48.3832 -1.2 -8.93949 -1.22664e+06 -1.43641e+06 -2.4967e+06 -305150 -332718 682903
261 1 Mg 1.69165 44.9309 54.6762 1.2 -7.84608 1.94164e+06 1.1556e+06 837022 69287.9 -285448 2.63961e+06
262 2 Si 1.97978 47.7886 56.4921 2.4 -31.7552 4.41447e+06 4.58112e+06 1.68304e+07 -2.17377e+06 257578 2.20189e+06
263 3 O 1.9963 46.2044 56.5304 -1.2 -10.0384 -3.16311e+06 2.00844e+06 -6.90547e+06 -393413 -144501 149130
264 3 O 2.0677 48.7672 52.7232 -1.2 -9.69414 -1.30641e+06 -3.05246e+06 -5.53318e+06 -629070 -881213 -1.05334e+06
265 3 O 0.617267 48.5078 55.7996 -1.2 -9.88158 -142978 -1.27253e+06 -5.70683e+06 -1.47836e+06 266762 -2.24323e+06
266 3 O 3.1586 48.3657 55.5873 -1.2 -9.84556 -1.50286e+06 -3.87001e+06 -4.21324e+06 1.54449e+06 -134904 136517
267 1 Mg 0.488584 47.395 52.1996 1.2 -7.23655 -1.1008e+06 -664598 5.19231e+06 -791133 1.77327e+06 803586
268 1 Mg 2.52544 47.1195 49.4466 1.2 -7.5456 1.65673e+06 470214 462871 121406 -233104 255607
269 2 Si 2.00256 49.4407 51.2382 2.4 -32.1058 5.48346e+06 5.1533e+06 1.1354e+07 663774 874727 863290
270 3 O 2.11156 51.0073 51.2982 -1.2 -10.1261 -2.4217e+06 -1.88681e+06 -4.52726e+06 765661 -967704 338300
271 3 O 2.04901 48.5281 57.9615 -1.2 -9.43993 -864586 -1.28773e+06 -3.47665e+06 581405 -732279 -285586
272 3 O 0.686344 48.8082 50.655 -1.2 -9.46676 -2.19958e+06 -2.57279e+06 -4.61856e+06 1.1526e+06 -1.16406e+06 -412518