ITEM: TIMESTEP
74300
ITEM: NUMBER OF ATOMS
10500
ITEM: BOX BOUNDS xy xz yz pp pp pp
0.0000000000000000e+00 8.9687999999999999e+00 2.9895999999999998e+00
0.0000000000000000e+00 1.1872499999999999e+02 0.0000000000000000e+00
0.0000000000000000e+00 2.5297749999999999e+02 0.0000000000000000e+00
ITEM: ATOMS id type element xu yu zu q c_pe c_s[1] c_s[2] c_s[3] c_s[4] c_s[5] c_s[6]
1 1 Mg -3.41841 6.99959 57.5622 1.2 -7.75551 -1.08847e+06 -3.3869e+06 4.80667e+06 -2.40563e+06 -1.40024e+06 -893364
2 1 Mg -1.82655 6.90154 50.0912 1.2 -7.88898 -429032 290738 1.99095e+06 -163304 -227992 1.97118e+06
3 2 Si -0.257935 3.96038 48.0876 2.4 -35.3679 8.88763e+06 7.66391e+06 1.19691e+07 789371 1.97957e+06 3.15086e+06
4 3 O -0.335812 5.46814 47.6264 -1.2 -8.12294 -2.53812e+06 -1.81911e+06 -3.18074e+06 144934 -970904 -1.16619e+06
5 3 O -2.03793 3.43377 51.8941 -1.2 -9.14794 -3.26982e+06 257171 -6.62874e+06 -1.26395e+06 -148831 -3.90458e+06
6 3 O -1.54015 3.53929 48.9521 -1.2 -8.65763 -734242 -1.06665e+06 -4.88006e+06 33303.8 -773114 -1.06939e+06
7 1 Mg 1.82954 2.54582 47.1376 1.2 -7.62629 2.01782e+06 -862465 1.11423e+06 1.14942e+06 823272 1.22362e+06
8 3 O 1.22989 3.66364 48.7877 -1.2 -8.36959 -1.07854e+06 -1.82906e+06 -4.23777e+06 -480818 -688510 -1.74197e+06
9 1 Mg 0.869593 2.34787 54.4453 1.2 -8.22745 -731295 -711586 981964 1.08787e+06 -764292 1.16941e+06
10 2 Si 1.03029 4.8914 56.515 2.4 -32.1787 1.02083e+07 6.4963e+06 1.2772e+07 -1.30075e+06 107855 2.98125e+06
11 3 O 1.00626 3.24819 56.3267 -1.2 -9.71844 -3.45698e+06 615426 -4.6538e+06 461301 560421 790141
12 3 O 1.10813 6.07342 52.8172 -1.2 -9.31224 -3.2086e+06 -3.38897e+06 -6.81263e+06 -833229 -488546 -3.08305e+06
13 3 O -0.314122 5.55199 55.8069 -1.2 -8.8431 -1.87054e+06 -2.25508e+06 -4.27685e+06 -1.78394e+06 140098 -1.66807e+06
14 3 O 2.31671 5.62071 55.7461 -1.2 -9.19611 -1.76697e+06 -2.94522e+06 -2.59005e+06 2.23807e+06 -1.12586e+06 -879297
15 1 Mg -0.459401 4.67631 52.2426 1.2 -8.04241 -1.2787e+06 -2.67768e+06 5.87507e+06 -868536 1.44704e+06 1.371e+06
16 1 Mg 2.79456 3.9971 49.9987 1.2 -8.0293 3.15112e+06 -885574 2.35657e+06 -469873 856022 -3170.43
17 2 Si 1.16169 6.59457 51.2556 2.4 -32.9794 6.19014e+06 4.49536e+06 1.35606e+07 495605 556220 4.11184e+06
18 3 O 1.28989 8.18905 51.2909 -1.2 -9.79898 -2.44895e+06 -469057 -4.87551e+06 262928 -1.18502e+06 350429
19 3 O 1.00338 5.69497 57.9528 -1.2 -9.67564 -4.00042e+06 1.36221e+06 -5.00825e+06 481765 -514838 802706
20 3 O -0.184847 6.06029 50.6845 -1.2 -9.02824 -2.42581e+06 -2.29897e+06 -6.10502e+06 1.37262e+06 -314603 -1.87334e+06
21 1 Mg -3.49704 4.67769 52.6661 1.2 -7.37488 84248.8 -2.95249e+06 3.95671e+06 2.06958e+06 -1.28967e+06 1.20868e+06
22 3 O 2.48581 5.93312 50.6539 -1.2 -9.60256 -2.63545e+06 -676290 -3.92863e+06 -1.53803e+06 -542164 -1.51432e+06
23 1 Mg -1.91273 4.78398 55.141 1.2 -8.38037 337249 210193 1.19385e+06 -143600 -1.04441e+06 690771
24 2 Si -2.00691 2.52106 53.2808 2.4 -32.1665 8.75178e+06 4.23077e+06 1.4938e+07 2.18607e+06 -810536 81497.6
25 3 O -2.09866 0.961152 53.2639 -1.2 -10.3223 -3.66791e+06 -1.78203e+06 -6.3969e+06 1.86865e+06 -427837 -1.65153e+06
26 3 O -0.0467762 2.97103 46.8385 -1.2 -7.36845 -2.3861e+06 -1.75776e+06 -3.27356e+06 -987249 -2.00811e+06 -1.30867e+06
27 3 O -3.25694 3.18302 54.1063 -1.2 -9.16352 -1.39631e+06 -1.42313e+06 -6.01186e+06 -1.52787e+06 501459 -5131.52
28 3 O -0.59432 3.30157 53.8673 -1.2 -8.84779 -3.72959e+06 -3.22555e+06 -6.75381e+06 4.97857e+06 -536309 669982
29 1 Mg -3.24447 11.7172 57.2982 1.2 -8.00641 -1.01195e+06 -3.58188e+06 4.62094e+06 -1.64307e+06 -1.70607e+06 -1.21826e+06
30 1 Mg -1.75014 11.5838 49.8362 1.2 -8.10876 212772 1.14613e+06 3.33115e+06 -325809 194444 913084
31 2 Si -1.18003 9.02138 47.9309 2.4 -33.8055 7.4443e+06 5.62254e+06 1.13033e+07 222279 2.59023e+06 1.08733e+06
32 3 O -1.23224 10.5991 47.9811 -1.2 -9.03175 -1.99308e+06 -2.79693e+06 -3.5803e+06 657514 -1.90286e+06 -193857
33 3 O -1.79016 8.01447 51.8693 -1.2 -9.36075 -2.37037e+06 -1.94967e+06 -6.38304e+06 263829 472579 -2.39137e+06
34 3 O -2.30986 8.37215 48.8528 -1.2 -9.26668 -533622 -1.72201e+06 -4.1881e+06 -331895 -596073 -1.31643e+06
35 1 Mg 0.154883 7.08234 46.8007 1.2 -7.21182 1.3929e+06 -799318 1.44383e+06 943625 1.72545e+06 -498214
36 3 O 0.325447 8.50934 48.3809 -1.2 -8.92151 -953623 -1.1765e+06 -3.51262e+06 -32315.8 -831749 -56293.7
37 1 Mg 1.22611 6.88611 54.5663 1.2 -8.40743 1.92178e+06 -335784 423501 -352314 250043 1.55009e+06
38 2 Si 1.34858 9.77622 56.2711 2.4 -33.1919 8.06933e+06 3.31013e+06 1.21007e+07 504850 -446986 3.53437e+06
39 3 O 1.16694 8.26187 56.3981 -1.2 -9.34364 -3.47153e+06 -1.27189e+06 -4.62539e+06 1.27878e+06 -820454 -1.96618e+06
40 3 O 1.28624 10.7248 52.7351 -1.2 -9.60711 -2.65347e+06 -167047 -5.42152e+06 -584163 -964908 -1.22945e+06
41 3 O 0.0124292 10.431 55.6295 -1.2 -9.05499 -968925 -2.2489e+06 -6.81596e+06 -435162 -2.14034e+06 -997060
42 3 O 2.68599 10.4916 55.8136 -1.2 -9.05518 -1.84083e+06 -2.64432e+06 -7.51373e+06 426991 1.48851e+06 -1.02111e+06
43 1 Mg -0.262694 9.34741 52.2523 1.2 -7.55144 -225271 -2.20607e+06 5.95185e+06 -1.43235e+06 1.39639e+06 1.20541e+06
44 1 Mg 1.87648 9.01537 49.4629 1.2 -7.58888 1.52841e+06 -410844 1.25809e+06 265144 -220120 691803
45 2 Si 1.21415 11.3799 51.2378 2.4 -32.2439 7.04841e+06 2.85523e+06 1.2617e+07 456407 1.10726e+06 766251
46 3 O 1.31634 12.9512 51.3023 -1.2 -10.3545 -2.25722e+06 -1.01522e+06 -4.10648e+06 708377 -805030 475719
47 3 O 1.15179 10.5143 57.7321 -1.2 -8.75823 -3.95968e+06 -470601 -7.85455e+06 -602203 -645117 -60779.6
48 3 O -0.115718 10.7564 50.681 -1.2 -9.24918 -2.71953e+06 -1.36346e+06 -5.57226e+06 1.19291e+06 -469194 -681725
49 1 Mg -3.26386 9.35564 52.3622 1.2 -7.58572 -742755 -1.92893e+06 4.9518e+06 1.8426e+06 -1.59231e+06 1.37233e+06
50 3 O 2.45216 10.7265 50.4558 -1.2 -9.70527 -2.23914e+06 -929274 -3.38639e+06 -796857 439345 -261124
51 1 Mg -1.67521 9.22893 55.1941 1.2 -8.26348 1.88386e+06 591741 233435 178363 704442 -910831
52 2 Si -1.80383 7.28618 53.3421 2.4 -32.9551 8.19698e+06 1.40319e+06 1.32777e+07 -1.31498e+06 -113348 932530
53 3 O -1.8262 5.77227 53.2837 -1.2 -9.71339 -3.7699e+06 -4.15924e+06 -6.78286e+06 1.04437e+06 -282286 -1.49246e+06
54 3 O -1.19417 8.46968 46.4488 -1.2 -7.93585 -2.25025e+06 -1.34915e+06 -3.64015e+06 -540292 -1.74063e+06 431509
55 3 O -3.22101 7.89914 53.9495 -1.2 -8.86764 -2.93984e+06 -1.88493e+06 -5.47334e+06 -2.13105e+06 67615.3 -327804
56 3 O -0.650626 7.97015 54.1271 -1.2 -9.00115 -3.27817e+06 -3.48011e+06 -6.03694e+06 800771 -1.01953e+06 -1.01739e+06
57 1 Mg -2.74338 16.3965 57.3362 1.2 -7.82013 565773 -1.96346e+06 3.93202e+06 -1.41578e+06 -1.75796e+06 -504362
58 1 Mg -1.6714 16.3544 49.8412 1.2 -7.98832 70835.5 1.08038e+06 3.2262e+06 -183462 204174 787404
59 2 Si -1.18567 13.8526 47.9314 2.4 -33.5763 7.35588e+06 4.88535e+06 1.17871e+07 508855 2.22675e+06 -78825.6
60 3 O -1.09664 15.4205 47.9915 -1.2 -9.13397 -1.80143e+06 -3.18618e+06 -3.9025e+06 417984 -1.9252e+06 -276729
61 3 O -1.73493 12.7491 51.7772 -1.2 -9.68721 -696936 -938103 -4.72686e+06 139443 44637.8 -1.27011e+06
62 3 O -2.36115 13.2717 48.8238 -1.2 -9.18215 -497132 -2.39619e+06 -4.59061e+06 -104892 -360807 -1.36462e+06
63 1 Mg -0.159928 11.7639 46.8533 1.2 -6.66519 1.54845e+06 -1.25134e+06 1.89297e+06 1.1274e+06 1.56804e+06 -689872
64 3 O 0.2623 13.1866 48.413 -1.2 -9.08739 -1.07167e+06 -443496 -3.31218e+06 -201999 -284804 660304
65 1 Mg 1.06236 11.908 54.5949 1.2 -7.95276 1.67824e+06 -590560 1.15283e+06 681476 -1.0198e+06 2.17067e+06
66 2 Si 1.47789 14.6071 56.3551 2.4 -33.0427 5.7205e+06 4.854e+06 8.80971e+06 -629668 -658126 1.17759e+06
67 3 O 1.30338 13.0225 56.3146 -1.2 -9.28783 -3.49898e+06 -1.21708e+06 -5.01596e+06 1.36476e+06 705214 -1.14561e+06
68 3 O 1.36565 15.4813 52.729 -1.2 -9.81512 -2.29714e+06 -678329 -5.50815e+06 142494 -376657 -1.2642e+06
69 3 O 0.224677 15.305 55.7954 -1.2 -9.20375 -2.66626e+06 -2.76536e+06 -5.15404e+06 1.80738e+06 -1.22597e+06 536291
70 3 O 2.76146 15.209 55.7352 -1.2 -9.52472 -3.71721e+06 -3.89352e+06 -5.73464e+06 221709 1.72216e+06 268353
71 1 Mg -0.206989 14.1049 52.2121 1.2 -7.03438 -957944 -1.66416e+06 5.41955e+06 -1.09761e+06 1.76905e+06 1.35137e+06
72 1 Mg 1.82591 13.8102 49.4556 1.2 -7.4349 1.57887e+06 -259585 1.1398e+06 113630 -68259.6 450637
73 2 Si 1.29285 16.1518 51.2434 2.4 -32.0067 6.44188e+06 2.53186e+06 1.29325e+07 199859 508942 988832
74 3 O 1.39496 17.7199 51.3047 -1.2 -10.3321 -2.2083e+06 -959887 -4.92666e+06 728674 -544923 514260
75 3 O 1.56239 15.129 57.8388 -1.2 -9.26636 -4.25452e+06 -4.05198e+06 -8.12415e+06 1.10644e+06 -412263 672734
76 3 O -0.0269106 15.5178 50.6688 -1.2 -9.43396 -2.52255e+06 -1.3568e+06 -5.915e+06 1.06763e+06 -590156 -672160
77 1 Mg -3.18391 14.1057 52.3125 1.2 -6.99231 -1.5716e+06 -1.14313e+06 5.2975e+06 1.51968e+06 -1.83134e+06 837663
78 3 O 2.52432 15.503 50.4579 -1.2 -9.83747 -2.14435e+06 -1.19187e+06 -3.48304e+06 -303631 720381 -578292
79 1 Mg -1.67079 14.1938 55.0607 1.2 -7.75989 1.49106e+06 509654 1.57159e+06 1.22627e+06 827060 -924131
80 2 Si -1.67856 12.0638 53.3016 2.4 -32.2442 4.09277e+06 4.29776e+06 1.50698e+07 -1.01527e+06 -2.39607e+06 -342270
81 3 O -1.73523 10.414 53.2133 -1.2 -9.47911 -2.73752e+06 1.52261e+06 -6.23524e+06 1.10917e+06 133047 -1.09451e+06
82 3 O -1.21337 13.3381 46.4311 -1.2 -8.05907 -2.41589e+06 -1.1836e+06 -3.86054e+06 -632207 -1.4491e+06 810214
83 3 O -3.0119 12.6537 54.0597 -1.2 -8.97579 -997098 -1.84281e+06 -5.25028e+06 -867407 90344.2 264441
84 3 O -0.569531 12.7699 53.9912 -1.2 -10.0336 -6.45489e+06 -2.51406e+06 -5.49386e+06 -199130 -2.09322e+06 -153482
85 1 Mg -2.70897 21.3987 57.2946 1.2 -7.15914 -1.1034e+06 -2.57958e+06 4.92746e+06 -2.64508e+06 -1.57695e+06 -1.18764e+06
86 1 Mg -1.5831 21.1217 49.8405 1.2 -8.03413 225543 903182 3.26425e+06 -145683 424219 1.08867e+06
87 2 Si -1.09384 18.6291 47.9287 2.4 -33.5309 7.28546e+06 4.98992e+06 1.17397e+07 513014 2.3619e+06 -27737.3
88 3 O -1.02071 20.1985 47.9911 -1.2 -9.11064 -1.89434e+06 -3.20231e+06 -4.01735e+06 450180 -1.96394e+06 -352011
89 3 O -1.65002 17.5002 51.771 -1.2 -9.58525 -1.91789e+06 -797035 -7.77218e+06 359802 -195483 36352.7
90 3 O -2.26174 18.0434 48.8281 -1.2 -9.24924 -429265 -2.48108e+06 -4.55108e+06 -20750.2 -357969 -1.33459e+06
91 1 Mg -0.0440435 16.5651 46.8269 1.2 -6.61664 1.40163e+06 -1.1724e+06 1.86728e+06 1.13614e+06 1.58092e+06 -600344
92 3 O 0.37001 17.9877 48.3925 -1.2 -9.11826 -964177 -629867 -3.28442e+06 -290011 -341493 607137
93 1 Mg 1.39228 16.6453 54.5777 1.2 -7.78728 1.86024e+06 163697 2.09049e+06 201760 279260 1.66699e+06
94 2 Si 1.70713 19.3635 56.6712 2.4 -33.0482 3.26852e+06 3.66026e+06 7.75514e+06 -1.93707e+06 541772 185496
95 3 O 1.56216 17.8197 56.7668 -1.2 -8.91071 -4.61133e+06 -2.08421e+06 -4.96227e+06 -770134 591257 1.71642e+06
96 3 O 1.45147 20.239 52.7294 -1.2 -9.82503 -1.69042e+06 -2.1658e+06 -5.33659e+06 1.30478e+06 -89931.5 -1.37877e+06
97 3 O 0.462588 19.9618 55.9434 -1.2 -9.22458 -4.93978e+06 -3.77178e+06 -4.94493e+06 873268 -536174 1.578e+06
98 3 O 2.87361 19.7571 55.9284 -1.2 -9.19519 -7.42112e+06 -4.68118e+06 -5.03318e+06 -1.1729e+06 2.63983e+06 1.47203e+06
99 1 Mg -0.126194 18.8651 52.2079 1.2 -7.04424 -1.35403e+06 -915009 5.34282e+06 -1.10976e+06 1.52175e+06 973678
100 1 Mg 1.92402 18.5815 49.4545 1.2 -7.38341 1.40952e+06 -338787 1.21145e+06 68586.3 -190550 337103
101 2 Si 1.38106 20.9117 51.2443 2.4 -32.2088 6.09671e+06 2.85289e+06 1.32151e+07 -193402 -420948 1.45506e+06
102 3 O 1.48527 22.4795 51.3054 -1.2 -10.0295 -2.68543e+06 -428264 -5.4264e+06 582947 354265 341912
103 3 O 1.61666 20.1161 58.0817 -1.2 -9.55253 -5.5147e+06 -5.8764e+06 -8.82014e+06 1.92488e+06 -2.1941e+06 1.30884e+06
104 3 O 0.0615419 20.2804 50.6669 -1.2 -9.41819 -1.95612e+06 -1.68108e+06 -5.87695e+06 1.26297e+06 -957926 -995850
105 1 Mg -3.09665 18.8643 52.3122 1.2 -6.87112 -1.24754e+06 -1.72616e+06 5.63187e+06 1.63053e+06 -1.35589e+06 799348
106 3 O 2.61548 20.2646 50.4626 -1.2 -9.91842 -2.16686e+06 -1.26787e+06 -3.08143e+06 -370730 1.13069e+06 -661554
107 1 Mg -1.14804 18.9445 55.1561 1.2 -7.92282 2.3768e+06 1.24865e+06 1.4556e+06 -87087.3 -109227 -1.06034e+06
108 2 Si -1.63702 16.8064 53.2231 2.4 -32.5182 5.30974e+06 -391068 1.35902e+07 -1.016e+06 -1.19945e+06 412507
109 3 O -1.68177 15.3076 53.1348 -1.2 -10.163 -2.42009e+06 -3.40596e+06 -5.99523e+06 78339.4 602486 -25651.3
110 3 O -1.12868 18.1227 46.4249 -1.2 -8.08803 -2.32489e+06 -1.2612e+06 -3.82158e+06 -606478 -1.49986e+06 761501
111 3 O -2.93955 17.494 53.9079 -1.2 -9.25715 -1.45055e+06 -1.84836e+06 -5.48503e+06 -892036 258982 -591386
112 3 O -0.385588 17.4749 53.8545 -1.2 -9.75676 -3.17676e+06 -1.38354e+06 -5.98453e+06 600714 -924323 193565
113 1 Mg -2.9952 26.1659 57.3091 1.2 -6.97857 -2.24151e+06 -2.82433e+06 5.99371e+06 -2.0318e+06 -2.01775e+06 -927969
114 1 Mg -1.48778 25.88 49.8402 1.2 -7.93271 -71311.7 1.11434e+06 3.17805e+06 -234951 337620 -46281.1
115 2 Si -1.00491 23.3922 47.9274 2.4 -33.6095 7.34321e+06 4.44907e+06 1.2358e+07 481227 2.38616e+06 -540520
116 3 O -0.927602 24.9615 47.9909 -1.2 -9.12493 -1.85734e+06 -3.19385e+06 -4.11035e+06 464774 -1.94752e+06 180611
117 3 O -1.55795 22.2588 51.7696 -1.2 -9.35417 -1.99948e+06 -756870 -5.37784e+06 580030 -2.15257e+06 -1.20158e+06
118 3 O -2.17411 22.8111 48.8277 -1.2 -9.16559 -580952 -2.14579e+06 -4.91399e+06 -620.14 -428718 -1.28975e+06
119 1 Mg 0.0423997 21.3296 46.8225 1.2 -6.62503 1.4244e+06 -1.32569e+06 2.02434e+06 1.12412e+06 1.5914e+06 -615181
120 3 O 0.458537 22.7495 48.3911 -1.2 -9.05415 -1.03069e+06 -316361 -3.6454e+06 -286183 -299547 747084
121 1 Mg 1.48274 21.0608 54.63 1.2 -7.89336 1.98858e+06 1.17108e+06 778896 -784337 787187 798896
122 2 Si 1.47424 24.0382 56.4299 2.4 -32.3532 6.36339e+06 1.8889e+06 1.63925e+07 264833 775499 1.19066e+06
123 3 O 1.66729 22.5407 56.6582 -1.2 -9.88782 -2.01829e+06 -1.85321e+06 -6.46723e+06 -1.12327e+06 238561 -382727
124 3 O 1.54441 24.9963 52.7297 -1.2 -9.51271 -2.57871e+06 190899 -6.40904e+06 1044.59 -163605 -232821
125 3 O 0.191979 24.6871 55.6898 -1.2 -9.49182 -1.51202e+06 -1.60979e+06 -4.61182e+06 -1.21922e+06 636624 -112680
126 3 O 2.74129 24.7548 55.6288 -1.2 -9.22959 -865821 -1.99434e+06 -4.65776e+06 699260 -123808 -759155
127 1 Mg -0.0335968 23.6229 52.2067 1.2 -7.93584 -1.42686e+06 -2.26965e+06 5.82787e+06 -933318 2.24264e+06 452236
128 1 Mg 2.01073 23.3445 49.4541 1.2 -7.48727 1.72189e+06 -897762 1.63215e+06 140159 -260656 111388
129 2 Si 1.47594 25.6699 51.2449 2.4 -31.8379 6.17307e+06 2.44045e+06 1.28999e+07 527083 -35920.7 -1.49412e+06
130 3 O 1.58172 27.2371 51.3054 -1.2 -10.7771 -1.41384e+06 -1.72813e+06 -3.76322e+06 589786 -296505 941483
131 3 O 1.60836 24.7402 57.9479 -1.2 -9.55244 -917645 -1.56247e+06 -3.00651e+06 -185775 677860 -1.3219e+06
132 3 O 0.157925 25.0378 50.6651 -1.2 -9.3161 -2.32027e+06 -1.15064e+06 -6.5401e+06 1.09372e+06 -528429 442478
133 1 Mg -3.00341 23.6231 52.3098 1.2 -7.31029 470703 -3.02992e+06 5.85092e+06 1.83278e+06 -1.96733e+06 783765
134 3 O 2.71149 25.0232 50.4656 -1.2 -9.85153 -2.44187e+06 -832853 -3.55538e+06 -343587 884677 216867
135 1 Mg -1.52074 23.7209 55.1907 1.2 -8.14262 2.52801e+06 12232.8 1.99549e+06 -146467 -384056 -683374
136 2 Si -1.58315 21.5652 53.2796 2.4 -32.4697 8.62771e+06 -1.7558e+06 1.34595e+07 345852 -1.89895e+06 -336629
137 3 O -1.51426 20.1536 53.3773 -1.2 -10.0077 -2.94046e+06 -7.34978e+06 -3.86221e+06 -1.85368e+06 1.08608e+06 828730
138 3 O -1.03938 22.8897 46.4223 -1.2 -8.08242 -2.31411e+06 -1.1446e+06 -3.95763e+06 -605308 -1.51064e+06 917259
139 3 O -2.87336 22.2792 54.1481 -1.2 -9.23551 -476345 -1.06366e+06 -1.32299e+06 96477.6 -564405 145593
140 3 O -0.196989 22.178 53.8055 -1.2 -8.65602 -1.07818e+06 -3.68028e+06 -4.76643e+06 -229633 -656526 -197721
141 1 Mg -2.67278 30.8951 57.4195 1.2 -7.30054 58347.4 -1.89592e+06 5.8349e+06 -1.22201e+06 -1.95246e+06 -1.86598e+06
142 1 Mg -1.38776 30.6357 49.8391 1.2 -7.79078 -284057 1.35683e+06 2.92207e+06 -206623 106863 855938
143 2 Si -0.907929 28.1491 47.9262 2.4 -33.3046 6.89753e+06 5.71519e+06 1.10525e+07 475228 2.3276e+06 -710793
144 3 O -0.829229 29.7184 47.99 -1.2 -9.23828 -1.71084e+06 -3.68811e+06 -3.60773e+06 466955 -1.91609e+06 -174076
145 3 O -1.45946 27.0152 51.769 -1.2 -10.3398 14356.2 -1.59905e+06 -4.45903e+06 620453 132205 -93490.4
146 3 O -2.07744 27.5697 48.8273 -1.2 -9.3799 -174336 -2.93555e+06 -4.19865e+06 33430.3 -374761 -963054
147 1 Mg 0.137907 26.087 46.819 1.2 -6.56492 1.33933e+06 -1.10185e+06 1.79679e+06 1.12589e+06 1.58746e+06 -967221
148 3 O 0.55579 27.5065 48.3893 -1.2 -9.2357 -785267 -978207 -2.93716e+06 -305316 -317464 1.05882e+06
149 1 Mg 1.61183 26.2645 54.5271 1.2 -7.73588 -205627 1.38729e+06 1.02661e+06 -103155 262706 1.82855e+06
150 2 Si 1.60729 28.8557 56.5007 2.4 -31.1714 3.99814e+06 6.91846e+06 1.53571e+07 343404 363870 -842535
151 3 O 1.52991 27.2645 56.5197 -1.2 -10.3866 -1.64606e+06 8793.65 -5.84321e+06 617934 -587461 -804573
152 3 O 1.6432 29.7522 52.7291 -1.2 -10.3599 -1.04778e+06 -955303 -6.80132e+06 253947 -89110.7 -1.32183e+06
153 3 O 0.269832 29.6161 55.7436 -1.2 -9.69787 705623 -2.18598e+06 -2.51221e+06 -1.80835e+06 1.55323e+06 -295903
154 3 O 2.81301 29.4991 55.6564 -1.2 -10.0321 -900476 -2.21096e+06 -1.89452e+06 1.22066e+06 -116877 -193707
155 1 Mg 0.0647462 28.3794 52.2059 1.2 -6.47561 -2.41762e+06 -1.24761e+06 5.51131e+06 -1.017e+06 1.99882e+06 715520
156 1 Mg 2.10696 28.1021 49.4531 1.2 -7.17925 1.1449e+06 69123.8 756190 141639 -165343 9217.28
157 2 Si 1.57592 30.4257 51.2442 2.4 -31.245 5.16034e+06 3.09116e+06 1.23749e+07 405681 678555 714396
158 3 O 1.68288 31.9926 51.3043 -1.2 -10.498 -2.2182e+06 -767286 -4.95151e+06 843029 -237095 353580
159 3 O 1.66566 29.3747 58.072 -1.2 -9.55029 -49979.8 -2.11752e+06 -3.19072e+06 206980 -743624 236337
160 3 O 0.258524 29.7935 50.6632 -1.2 -9.81762 -1.97415e+06 -1.78118e+06 -5.45913e+06 1.13024e+06 -735068 -393192
161 1 Mg -2.90462 28.3797 52.308 1.2 -6.28015 -2.23306e+06 -1.09964e+06 5.15441e+06 1.74859e+06 -1.78615e+06 1.09077e+06
162 3 O 2.81205 29.7787 50.4664 -1.2 -10.1505 -1.58241e+06 -1.63767e+06 -3.22059e+06 -399842 783849 -659073
163 1 Mg -1.3253 28.4825 55.1014 1.2 -7.29467 1.51809e+06 1.97075e+06 -747846 -410088 77331.4 -225953
164 2 Si -1.46566 26.3938 53.2788 2.4 -31.3394 3.02949e+06 5.13376e+06 1.33796e+07 489123 1.44785e+06 -48946.5
165 3 O -1.39225 24.672 53.1821 -1.2 -9.38642 -3.84232e+06 2.79704e+06 -5.90291e+06 517212 72172.2 -355071
166 3 O -0.943026 27.648 46.4208 -1.2 -8.15628 -2.19637e+06 -1.54025e+06 -3.57009e+06 -602903 -1.5063e+06 1.04016e+06
167 3 O -2.6141 26.9467 54.0265 -1.2 -10.2484 -4.863e+06 -3.54553e+06 -5.18475e+06 7074.62 1.42337e+06 -129851
168 3 O -0.147257 26.9616 54.0478 -1.2 -9.85686 -1.17776e+06 -3.28454e+06 -3.93398e+06 1.02348e+06 340499 -143846
169 1 Mg -2.58439 35.5952 57.4629 1.2 -7.56426 -2.55788e+06 -1.96056e+06 4.27379e+06 -2.21184e+06 -1.24496e+06 -661940
170 1 Mg -1.28421 35.3899 49.8376 1.2 -8.09428 107871 1.24949e+06 3.11525e+06 -174931 175741 493138
171 2 Si -0.807101 32.9036 47.9247 2.4 -33.5109 7.22679e+06 5.2713e+06 1.15007e+07 490880 2.29377e+06 -94788.5
172 3 O -0.727174 34.4729 47.9885 -1.2 -9.06469 -1.97413e+06 -3.43564e+06 -3.88677e+06 461310 -1.91038e+06 -223497
173 3 O -1.35735 31.7701 51.768 -1.2 -9.70321 -1.02024e+06 -1.34792e+06 -7.32362e+06 22361.1 548310 -848400
174 3 O -1.97695 32.3253 48.826 -1.2 -9.28404 -272439 -2.67206e+06 -4.51104e+06 1289.38 -345965 -1.41204e+06
175 1 Mg 0.237665 30.8412 46.8168 1.2 -6.54837 1.32896e+06 -918642 1.60105e+06 1.12272e+06 1.59e+06 -614864
176 3 O 0.656562 32.2608 48.3877 -1.2 -9.16699 -929900 -789084 -3.07827e+06 -285083 -324237 613632
177 1 Mg 1.79293 30.9282 54.3992 1.2 -7.77493 40246 52582.3 1.90495e+06 -51117 -280146 233078
178 2 Si 1.87819 33.529 56.453 2.4 -33.1031 6.69546e+06 2.46098e+06 1.2882e+07 1.22026e+06 -967419 -1.47337e+06
179 3 O 1.76704 31.9766 56.61 -1.2 -9.11691 -3.0611e+06 -892489 -6.42782e+06 1.04432e+06 -26303 252166
180 3 O 1.74574 34.5067 52.7279 -1.2 -10.023 -1.82088e+06 -336536 -5.76204e+06 -55345.8 16539.4 453271
181 3 O 0.60459 34.0011 55.6449 -1.2 -9.40688 -2.25926e+06 -3.00857e+06 -5.17537e+06 -39910.3 -913999 1.12693e+06
182 3 O 3.18492 34.1037 55.8482 -1.2 -9.44197 -2.87598e+06 -1.87001e+06 -5.00444e+06 113089 1.22561e+06 77624.5
183 1 Mg 0.167046 33.1343 52.2045 1.2 -7.22001 -1.11845e+06 -3.1748e+06 5.87617e+06 -1.14387e+06 1.84598e+06 403331
184 1 Mg 2.20727 32.8578 49.4516 1.2 -7.35269 1.44253e+06 -412316 1.22979e+06 103653 -104277 251495
185 2 Si 1.67943 35.1802 51.2429 2.4 -31.9044 6.58916e+06 3.06424e+06 1.19505e+07 362936 615306 -759274
186 3 O 1.78736 36.747 51.303 -1.2 -10.2649 -2.57285e+06 -1.23588e+06 -4.2133e+06 950170 -359627 592879
187 3 O 1.67213 34.2291 57.9472 -1.2 -9.41981 -1.84462e+06 -4.18817e+06 -2.77209e+06 -250427 -770802 1.48414e+06
188 3 O 0.362533 34.5479 50.661 -1.2 -9.43284 -2.54694e+06 -1.43023e+06 -5.78912e+06 1.1603e+06 -596017 128440
189 1 Mg -2.80215 33.1347 52.3062 1.2 -7.13096 -1.04095e+06 -2.18413e+06 5.94526e+06 1.49223e+06 -1.23836e+06 221396
190 3 O 2.91593 34.533 50.466 -1.2 -9.82643 -2.19345e+06 -1.31748e+06 -3.41863e+06 -355979 741434 -139393
191 1 Mg -1.03056 33.036 55.2184 1.2 -8.12842 1.63434e+06 -778883 2.68059e+06 -801013 -326678 -1.41446e+06
192 2 Si -1.19093 31.0439 53.2127 2.4 -31.6468 5.23241e+06 322453 1.44845e+07 -776942 500566 -232147
193 3 O -1.33718 29.5852 53.1592 -1.2 -10.8338 -1.54375e+06 -3.91614e+06 -6.03702e+06 658974 296754 101729
194 3 O -0.842495 32.4028 46.4192 -1.2 -8.10346 -2.28109e+06 -1.50114e+06 -3.60899e+06 -605147 -1.50155e+06 744321
195 3 O -2.46695 31.8011 53.9885 -1.2 -9.41422 -1.11206e+06 -1.99385e+06 -5.15997e+06 -1.79869e+06 1.0749e+06 862614
196 3 O 0.0989117 31.7748 53.8306 -1.2 -9.72418 -2.58533e+06 -2.61013e+06 -5.47312e+06 1.68387e+06 -915574 991514
197 1 Mg -2.84315 40.3189 57.4725 1.2 -7.65516 -1.81007e+06 -1.37747e+06 5.04474e+06 -884633 -1.31767e+06 -137313
198 1 Mg -1.17787 40.1435 49.8359 1.2 -8.3792 523818 1.19832e+06 3.21239e+06 -158456 414206 437604
199 2 Si -0.702692 37.6572 47.9231 2.4 -33.9218 7.83528e+06 5.13094e+06 1.16893e+07 505394 2.32066e+06 -245065
200 3 O -0.621782 39.2264 47.9868 -1.2 -8.86376 -2.2644e+06 -3.37664e+06 -3.9808e+06 455705 -1.9356e+06 -141122
201 3 O -1.25221 36.5242 51.7666 -1.2 -9.47643 -774840 -1.90682e+06 -5.15569e+06 -17152.6 1.2466e+06 -1.23859e+06
202 3 O -1.87295 37.0796 48.8243 -1.2 -9.04815 -657489 -2.66538e+06 -4.51338e+06 -4867.82 -390848 -1.27462e+06
203 1 Mg 0.341084 35.5943 46.8152 1.2 -6.69929 1.56875e+06 -1.09714e+06 1.78346e+06 1.12162e+06 1.58418e+06 -587735
204 3 O 0.760681 37.0138 48.3864 -1.2 -8.94631 -1.26304e+06 -734715 -3.15037e+06 -282706 -294877 713042
205 1 Mg 1.76578 35.6 54.543 1.2 -7.30343 1.3124e+06 1.27484e+06 2.10691e+06 675434 -187310 14226.5
206 2 Si 1.79054 38.2027 56.3854 2.4 -32.1055 7.72497e+06 4.71138e+06 1.36036e+07 390427 488996 -2.47037e+06
207 3 O 1.77673 36.6177 56.6176 -1.2 -10.1607 -2.32255e+06 -326295 -4.74935e+06 140505 -17433.2 -298075
208 3 O 1.85132 39.2606 52.7264 -1.2 -9.52834 -2.8897e+06 -1.18127e+06 -5.95966e+06 -62092.4 -409814 -432152
209 3 O 0.490457 38.9173 55.7159 -1.2 -9.77223 -821363 -1.10883e+06 -5.25797e+06 -2.04761e+06 -1.13159e+06 -835953
210 3 O 3.15349 38.9196 55.7277 -1.2 -9.32169 1.27194e+06 -632976 -4.90041e+06 1.84953e+06 -205251 81160.9
211 1 Mg 0.272384 37.8883 52.2029 1.2 -7.52493 -1.66861e+06 -2.50768e+06 5.12416e+06 -594859 2.47429e+06 85110.9
212 1 Mg 2.31122 37.6122 49.4501 1.2 -7.59974 1.9255e+06 -345315 1.08548e+06 71630.5 -150880 157212
213 2 Si 1.78573 39.934 51.2414 2.4 -32.6608 7.99104e+06 2.83996e+06 1.2085e+07 183489 -161379 -424004
214 3 O 1.89428 41.5006 51.3014 -1.2 -9.99479 -3.2159e+06 -1.23535e+06 -4.32888e+06 781260 -29278.6 906177
215 3 O 1.8011 38.8973 57.8357 -1.2 -9.37568 -2.01416e+06 -2.30022e+06 -6.50515e+06 -1.29617e+06 488739 1.87395e+06
216 3 O 0.469216 39.3015 50.6588 -1.2 -8.99114 -2.90836e+06 -1.62258e+06 -6.29129e+06 1.17939e+06 -308404 -104019
217 1 Mg -2.69668 37.8889 52.3043 1.2 -7.20555 -455367 -2.07968e+06 5.01677e+06 1.36515e+06 -1.77674e+06 275421
218 3 O 3.0225 39.2866 50.4651 -1.2 -9.57043 -2.9708e+06 -1.32179e+06 -3.07191e+06 -310240 830737 -158056
219 1 Mg -1.11583 38.0095 54.9808 1.2 -7.83382 1.26823e+06 -725837 2.05666e+06 -265334 -1.15688e+06 -1.66062e+06
220 2 Si -1.16357 35.8385 53.2914 2.4 -31.5254 4.39467e+06 5.45573e+06 1.49649e+07 1.35059e+06 1.16935e+06 -1.69958e+06
221 3 O -1.21128 34.2776 53.1923 -1.2 -10.1161 -1.62099e+06 25140.3 -5.94785e+06 680779 834129 2.04273e+06
222 3 O -0.738054 37.1566 46.4176 -1.2 -7.94936 -2.52174e+06 -1.36387e+06 -3.75603e+06 -607562 -1.50406e+06 772133
223 3 O -2.30708 36.6143 53.9664 -1.2 -9.87283 -1.65283e+06 -1.87684e+06 -6.78912e+06 -303541 924380 615871
224 3 O 0.218203 36.6624 53.9992 -1.2 -9.66052 -670518 -1.80885e+06 -3.14781e+06 2.07125e+06 716158 1.46354e+06
225 1 Mg -2.70051 45.3126 57.5864 1.2 -7.1432 641258 -1.49627e+06 4.10604e+06 -788988 -1.72571e+06 -2.42994e+06
226 1 Mg -1.06993 44.8968 49.8343 1.2 -8.37342 586561 1.46586e+06 2.86827e+06 -165084 446033 498727
227 2 Si -0.596166 42.4103 47.9215 2.4 -34.1609 8.19088e+06 5.29995e+06 1.15525e+07 495942 2.36301e+06 -595346
228 3 O -0.51472 43.9796 47.9853 -1.2 -8.78947 -2.38296e+06 -3.54794e+06 -3.81189e+06 459186 -1.95011e+06 -58260.9
229 3 O -1.14475 41.2777 51.7649 -1.2 -9.04228 -1.96101e+06 -1.14429e+06 -3.94992e+06 407597 -1.05525e+06 -855996
230 3 O -1.76671 41.8331 48.8226 -1.2 -8.89976 -938134 -2.72052e+06 -4.41712e+06 20034.8 -451117 -1.08775e+06
231 1 Mg 0.447076 40.3473 46.8135 1.2 -6.84794 1.79335e+06 -1.16058e+06 1.86035e+06 1.12381e+06 1.57977e+06 -711107
232 3 O 0.866985 41.7666 48.385 -1.2 -8.79476 -1.46139e+06 -780089 -3.14816e+06 -295297 -264361 903197
233 1 Mg 1.75915 40.4417 54.4878 1.2 -7.79266 -899050 -125151 2.67994e+06 190970 45188.1 313937
234 2 Si 1.71017 42.96 56.3972 2.4 -32.1906 6.75462e+06 2.03435e+06 1.32979e+07 -1.57591e+06 1.65027e+06 -512913
235 3 O 1.72074 41.3951 56.4925 -1.2 -10.018 -2.67952e+06 -1.89254e+06 -5.19978e+06 68873.2 -319631 -465820
236 3 O 1.95891 44.014 52.7248 -1.2 -9.74055 -2.31308e+06 -1.49692e+06 -5.02403e+06 897279 235996 -721442
237 3 O 0.380017 43.7147 55.776 -1.2 -9.45623 739795 -1.37753e+06 -7.02691e+06 -844379 75579.9 188270
238 3 O 2.96079 43.5395 55.689 -1.2 -9.99312 -6.14156e+06 -4.82967e+06 -5.54043e+06 2.39859e+06 1.54901e+06 1.28195e+06
239 1 Mg 0.379928 42.6418 52.2013 1.2 -7.7241 -1.54119e+06 -1.00567e+06 5.31105e+06 -829731 1.72286e+06 389033
240 1 Mg 2.41752 42.366 49.4484 1.2 -7.72408 2.18608e+06 -204620 889448 95579.9 -227601 -15837.7
241 2 Si 1.89374 44.6874 51.2398 2.4 -32.6122 7.47819e+06 3.57486e+06 1.17168e+07 17864.1 -667598 229693
242 3 O 2.00266 46.254 51.2996 -1.2 -9.95848 -2.91035e+06 -1.38252e+06 -4.47708e+06 643029 808988 581820
243 3 O 1.72433 43.5916 57.8913 -1.2 -8.99959 -4.59878e+06 -1.10856e+06 -5.43609e+06 1.62789e+06 278995 1.57135e+06
244 3 O 0.577464 44.0549 50.6567 -1.2 -9.00978 -2.71838e+06 -2.04195e+06 -5.86102e+06 1.1316e+06 -477918 -222641
245 1 Mg -2.58906 42.6425 52.3022 1.2 -7.04641 230575 -1.6223e+06 4.36191e+06 1.671e+06 -1.75413e+06 416336
246 3 O 3.13067 44.0398 50.464 -1.2 -9.56657 -3.05704e+06 -1.58821e+06 -2.72548e+06 -287525 873882 -232674
247 1 Mg -1.45214 42.8099 55.2186 1.2 -7.38811 -2.00095e+06 86282.7 2.40914e+06 2.28651e+06 871084 -1.47742e+06
248 2 Si -1.19433 40.555 53.3402 2.4 -31.9122 7.06313e+06 3.79664e+06 1.49155e+07 1.4114e+06 -605073 -1.16752e+06
249 3 O -1.04226 38.9794 53.1146 -1.2 -9.95155 -3.45289e+06 -1.09419e+06 -6.73996e+06 -82586.8 647622 1.93265e+06
250 3 O -0.631421 41.9099 46.4159 -1.2 -7.83535 -2.70072e+06 -1.36768e+06 -3.75507e+06 -606174 -1.51022e+06 910611
251 3 O -2.46615 41.1739 53.9509 -1.2 -10.1616 -2.53201e+06 -832001 -5.96463e+06 -1.21192e+06 1.37475e+06 754869
252 3 O 0.193596 41.2835 53.866 -1.2 -9.44394 -56832.9 -2.2087e+06 -6.00813e+06 2.54099e+06 -1.20711e+06 750027
253 1 Mg -2.15568 49.721 57.3353 1.2 -7.83595 -872393 -264126 3.46458e+06 -380364 -1.72397e+06 -390869
254 1 Mg -0.961069 49.6502 49.8327 1.2 -8.49303 656954 1.36358e+06 3.09288e+06 -224375 255991 592442
255 2 Si -0.488083 47.1636 47.9198 2.4 -34.2628 8.36679e+06 5.43139e+06 1.14079e+07 468777 2.36148e+06 -383174
256 3 O -0.40607 48.7329 47.9837 -1.2 -8.73357 -2.47615e+06 -3.5199e+06 -3.83433e+06 475194 -1.9255e+06 -137721
257 3 O -1.0361 46.031 51.7632 -1.2 -9.37879 -1.40782e+06 -2.00665e+06 -3.60107e+06 349461 -1.75523e+06 -517268
258 3 O -1.65866 46.5866 48.821 -1.2 -8.85895 -1.0199e+06 -2.85478e+06 -4.27119e+06 25192.9 -440962 -1.26089e+06
259 1 Mg 0.554124 45.1001 46.8117 1.2 -6.91203 1.89331e+06 -1.04674e+06 1.74995e+06 1.12343e+06 1.58305e+06 -735853
260 3 O 0.974961 46.5195 48.3832 -1.2 -8.74619 -1.52899e+06 -890904 -3.04539e+06 -292408 -274133 797236
261 1 Mg 1.99759 44.9229 54.6514 1.2 -7.53638 2.40445e+06 -1.21747e+06 1.70487e+06 540274 348172 1.45022e+06
262 2 Si 2.06447 47.7347 56.281 2.4 -32.8144 8.42567e+06 2.34157e+06 1.06173e+07 1.67498e+06 1.26598e+06 -1.1524e+06
263 3 O 1.81319 46.2129 56.4761 -1.2 -9.93508 -3.66601e+06 -2.32437e+06 -4.82546e+06 332567 -835400 713657
264 3 O 2.0677 48.7672 52.7232 -1.2 -9.53626 -2.43815e+06 -465836 -5.15817e+06 -497583 127905 -160511
265 3 O 0.806427 48.3483 55.6099 -1.2 -9.33416 -2.1609e+06 -4.07315e+06 -4.24403e+06 166890 -554482 806774
266 3 O 3.42753 48.3666 55.7484 -1.2 -9.16718 -2.11967e+06 -2.70839e+06 -6.93776e+06 2.00492e+06 1.6013e+06 231971
267 1 Mg 0.488584 47.395 52.1996 1.2 -7.81134 -1.34973e+06 -1.44264e+06 5.07042e+06 -1.24573e+06 2.18827e+06 527182
268 1 Mg 2.52544 47.1195 49.4466 1.2 -7.77305 2.24664e+06 -132668 838993 153045 -249931 196551
269 2 Si 2.00256 49.4407 51.2382 2.4 -32.777 8.27335e+06 3.20744e+06 1.15162e+07 615794 290800 -154399
270 3 O 2.11156 51.0073 51.2982 -1.2 -9.96076 -3.17309e+06 -1.41483e+06 -3.78843e+06 731189 -422216 467529
271 3 O 2.25079 48.3813 57.7696 -1.2 -9.25231 -3.9342e+06 -4.32935e+06 -6.05292e+06 1.26503e+06 1.18027e+06 2.13923e+06