ITEM: TIMESTEP
35000
ITEM: NUMBER OF ATOMS
10500
ITEM: BOX BOUNDS xy xz yz pp pp pp
0.0000000000000000e+00 8.9687999999999999e+00 2.9895999999999998e+00
0.0000000000000000e+00 1.1872499999999999e+02 0.0000000000000000e+00
0.0000000000000000e+00 2.5297749999999999e+02 0.0000000000000000e+00
ITEM: ATOMS id type element xu yu zu q c_pe c_s[1] c_s[2] c_s[3] c_s[4] c_s[5] c_s[6]
1 1 Mg -3.28361 7.12933 57.4898 1.2 -7.09802 -912697 -2.68392e+06 4.60461e+06 -1.71759e+06 -1.85633e+06 -699299
2 1 Mg -1.82655 6.90154 50.0912 1.2 -7.73759 -620726 484279 1.74088e+06 -69751.5 -127069 1.33892e+06
3 2 Si -0.257935 3.96038 48.0876 2.4 -35.4221 9.02981e+06 7.9605e+06 1.16159e+07 805209 1.99752e+06 1.45561e+06
4 3 O -0.335812 5.46814 47.6264 -1.2 -8.15484 -2.49136e+06 -2.07061e+06 -2.92855e+06 143702 -978210 -455394
5 3 O -2.03793 3.43377 51.8941 -1.2 -9.37218 -2.35656e+06 -1.51827e+06 -7.62411e+06 -1.31918e+06 1.29295e+06 -1.45336e+06
6 3 O -1.54015 3.53929 48.9521 -1.2 -8.61507 -831966 -1.23171e+06 -4.69532e+06 10848.2 -706608 -104045
7 1 Mg 1.82954 2.54582 47.1376 1.2 -7.73089 2.18027e+06 -954361 1.21121e+06 1.14734e+06 835203 365838
8 3 O 1.22989 3.66364 48.7877 -1.2 -8.3267 -1.13594e+06 -1.98274e+06 -4.10687e+06 -465104 -745524 -841848
9 1 Mg 1.00585 2.36751 54.5656 1.2 -8.19949 2.68972e+06 755817 1.85835e+06 -296090 -258982 498443
10 2 Si 1.24807 4.94423 56.3737 2.4 -31.6166 6.69264e+06 4.48375e+06 1.31692e+07 -1.08231e+06 -185996 2.39947e+06
11 3 O 1.06252 3.36197 56.5067 -1.2 -10.3712 -3.32435e+06 276498 -4.01429e+06 539951 859538 -944550
12 3 O 1.10813 6.07342 52.8172 -1.2 -9.33769 -3.03058e+06 -2.46459e+06 -4.91078e+06 144778 -513597 -1.59681e+06
13 3 O -0.0784975 5.75245 55.8577 -1.2 -9.6227 -1.69645e+06 -623040 -5.90425e+06 -1.41762e+06 -6075.19 -989649
14 3 O 2.4461 5.57467 55.7371 -1.2 -9.53617 -3.76928e+06 -2.4423e+06 -5.25376e+06 587079 1.3679e+06 -52782.4
15 1 Mg -0.459401 4.67631 52.2426 1.2 -7.57203 -1.10805e+06 -2.04326e+06 5.68878e+06 -1.33754e+06 1.24511e+06 1.54404e+06
16 1 Mg 2.79456 3.9971 49.9987 1.2 -8.02795 2.96688e+06 -495399 2.14416e+06 -518853 773795 -967835
17 2 Si 1.16169 6.59457 51.2556 2.4 -32.7375 5.67226e+06 4.78948e+06 1.3374e+07 -42237.8 333139 2.7738e+06
18 3 O 1.28989 8.18905 51.2909 -1.2 -10.0513 -1.99006e+06 -1.08614e+06 -4.32476e+06 378001 -648358 1.00474e+06
19 3 O 1.29333 5.74486 58.0346 -1.2 -9.37614 -2.74778e+06 647400 -2.91763e+06 491983 16101.4 1.43276e+06
20 3 O -0.184847 6.06029 50.6845 -1.2 -9.15174 -2.14517e+06 -2.49576e+06 -5.88137e+06 1.50047e+06 -410002 -1.55551e+06
21 1 Mg -3.49704 4.67769 52.6661 1.2 -7.31091 -804921 -2.085e+06 3.77528e+06 2.30992e+06 -859392 1.42354e+06
22 3 O 2.48581 5.93312 50.6539 -1.2 -9.74519 -2.34729e+06 -891322 -3.61079e+06 -1.58651e+06 -400280 -902013
23 1 Mg -1.69382 4.70958 55.2351 1.2 -8.15914 735819 1.13032e+06 1.27824e+06 225087 -193465 -687276
24 2 Si -1.89542 2.71127 53.2973 2.4 -33.0662 5.78191e+06 3.97333e+06 1.36192e+07 874241 -709945 -150898
25 3 O -1.9611 1.11132 53.2769 -1.2 -9.39188 -3.12038e+06 689481 -5.28228e+06 895478 487223 -111074
26 3 O -0.0467762 2.97103 46.8385 -1.2 -7.28732 -2.52561e+06 -1.71661e+06 -3.30693e+06 -990024 -2.00952e+06 -469161
27 3 O -3.18847 3.28786 54.0917 -1.2 -8.93473 -1.84309e+06 -3.62908e+06 -5.90558e+06 -784931 -84088.3 258587
28 3 O -0.703224 3.39803 54.0168 -1.2 -9.55346 -4.33591e+06 -2.90165e+06 -4.63453e+06 525635 -61250.7 417919
29 1 Mg -3.11225 11.8463 57.2801 1.2 -7.32274 -851001 -2.10747e+06 4.47973e+06 -868573 -1.65882e+06 -1.42369e+06
30 1 Mg -1.75014 11.5838 49.8362 1.2 -7.89032 -171.147 1.54437e+06 2.79297e+06 -379884 323862 883649
31 2 Si -1.18003 9.02138 47.9309 2.4 -33.5324 7.00016e+06 6.52942e+06 1.04024e+07 232737 2.65908e+06 183168
32 3 O -1.23224 10.5991 47.9811 -1.2 -9.18103 -1.75765e+06 -3.25257e+06 -3.12172e+06 660960 -1.93936e+06 81107
33 3 O -1.79016 8.01447 51.8693 -1.2 -9.61068 -2.43477e+06 -2.05867e+06 -7.06313e+06 -63610.3 -793580 -989016
34 3 O -2.30986 8.37215 48.8528 -1.2 -9.43179 -335232 -2.17736e+06 -3.67022e+06 -336839 -632811 -752624
35 1 Mg 0.154883 7.08234 46.8007 1.2 -7.14556 1.27954e+06 -486337 1.13808e+06 942553 1.72658e+06 -1.09404e+06
36 3 O 0.325447 8.50934 48.3809 -1.2 -9.05876 -683254 -1.63513e+06 -3.10567e+06 -33386.4 -822925 446949
37 1 Mg 1.08286 7.19232 54.6648 1.2 -8.01547 1.53549e+06 -150450 1.78553e+06 70291.9 -112479 1.20861e+06
38 2 Si 1.30259 9.7694 56.498 2.4 -31.7263 6.44537e+06 2.61845e+06 1.25453e+07 -19631.4 29293.1 1.37308e+06
39 3 O 1.23961 8.27131 56.4495 -1.2 -10.3597 -2.97679e+06 -2.80834e+06 -5.14506e+06 123322 -47715 -895383
40 3 O 1.28624 10.7248 52.7351 -1.2 -9.86928 -1.98965e+06 -1.92292e+06 -5.07946e+06 -424598 -358292 -1.44618e+06
41 3 O 0.0416069 10.5257 55.9298 -1.2 -9.52763 -1.66102e+06 -2.77603e+06 -4.44375e+06 -98813 -500747 -332280
42 3 O 2.56501 10.5187 55.7554 -1.2 -9.83887 -1.76424e+06 -2.412e+06 -4.3796e+06 933361 -14339.4 -220682
43 1 Mg -0.262694 9.34741 52.2523 1.2 -7.3674 -1.98049e+06 -1.17002e+06 5.06291e+06 -1.18198e+06 1.60935e+06 945103
44 1 Mg 1.87648 9.01537 49.4629 1.2 -7.38259 1.22596e+06 144927 672895 239370 -346948 216383
45 2 Si 1.21415 11.3799 51.2378 2.4 -31.8814 5.79529e+06 4.0168e+06 1.21834e+07 708344 284847 1.0221e+06
46 3 O 1.31634 12.9512 51.3023 -1.2 -10.3851 -2.10426e+06 -1.09159e+06 -4.56915e+06 499616 -511666 654827
47 3 O 1.39151 10.4482 58.0411 -1.2 -9.73315 -2.58003e+06 -634173 -4.55087e+06 430721 -1.81643e+06 1.78979e+06
48 3 O -0.115718 10.7564 50.681 -1.2 -9.45672 -1.90548e+06 -2.04348e+06 -5.44652e+06 1.19255e+06 -599946 -596464
49 1 Mg -3.26386 9.35564 52.3622 1.2 -6.81296 -591779 -1.2922e+06 4.44445e+06 1.96911e+06 -1.5251e+06 1.04966e+06
50 3 O 2.45216 10.7265 50.4558 -1.2 -10.0169 -1.90673e+06 -1.52309e+06 -2.47098e+06 -831840 757644 -228873
51 1 Mg -1.70561 9.52212 55.1739 1.2 -7.66238 1.55372e+06 1.36899e+06 1.74491e+06 376467 -76523.2 28937.4
52 2 Si -1.84443 7.38269 53.3589 2.4 -32.8191 6.43831e+06 1.51985e+06 1.16894e+07 752435 -894590 43251.8
53 3 O -1.8137 5.87082 53.3888 -1.2 -9.52359 -3.68328e+06 -3.94584e+06 -5.3301e+06 637338 651902 -159677
54 3 O -1.19417 8.46968 46.4488 -1.2 -8.02446 -2.108e+06 -1.70943e+06 -3.28065e+06 -541898 -1.74818e+06 919558
55 3 O -3.15388 7.94555 54.0076 -1.2 -9.45573 -2.94294e+06 -2.94278e+06 -4.46785e+06 -17897.4 729739 -729439
56 3 O -0.572096 8.087 53.9779 -1.2 -9.37648 -2.32046e+06 -4.24054e+06 -5.42047e+06 843832 -1.49427e+06 43775.8
57 1 Mg -3.08405 16.3702 57.4989 1.2 -7.3545 -846193 -2.7623e+06 4.483e+06 -2.01435e+06 -1.83887e+06 -1.18133e+06
58 1 Mg -1.6714 16.3544 49.8412 1.2 -7.89543 -124790 1.38514e+06 2.95811e+06 -202007 118825 744613
59 2 Si -1.18567 13.8526 47.9314 2.4 -33.3378 6.99006e+06 5.49188e+06 1.11631e+07 485805 2.24212e+06 -365907
60 3 O -1.09664 15.4205 47.9915 -1.2 -9.236 -1.6432e+06 -3.4693e+06 -3.61925e+06 428389 -1.91611e+06 -158889
61 3 O -1.73493 12.7491 51.7772 -1.2 -9.87434 -1.30902e+06 -628100 -4.37318e+06 569139 297923 -1.18996e+06
62 3 O -2.36115 13.2717 48.8238 -1.2 -9.3218 -310164 -2.68711e+06 -4.26652e+06 -95055.6 -356402 -1.25158e+06
63 1 Mg -0.159928 11.7639 46.8533 1.2 -6.54807 1.35152e+06 -879815 1.53075e+06 1.12675e+06 1.57458e+06 -915921
64 3 O 0.2623 13.1866 48.413 -1.2 -9.21665 -839610 -758845 -3.02275e+06 -202202 -295119 814263
65 1 Mg 1.34046 11.7878 54.5907 1.2 -7.78255 848579 139976 1.71136e+06 -209466 -81878 1.35473e+06
66 2 Si 1.39893 14.4319 56.4537 2.4 -31.9831 6.06211e+06 2.2477e+06 1.08304e+07 -499374 149545 491286
67 3 O 1.33472 12.9706 56.6446 -1.2 -10.1007 -3.98238e+06 -5.94592e+06 -5.07614e+06 -356433 -594678 -763192
68 3 O 1.36565 15.4813 52.729 -1.2 -10.1464 -1.87965e+06 -1.5799e+06 -5.95871e+06 17364.8 -446760 -1.2625e+06
69 3 O 0.0961643 15.2073 55.7857 -1.2 -9.58378 -1.91516e+06 -3.31273e+06 -3.89091e+06 -1.84929e+06 -283501 -486986
70 3 O 2.63389 15.0856 55.7846 -1.2 -9.74337 -2.47969e+06 -2.65372e+06 -4.53431e+06 396374 1.09399e+06 19228.9
71 1 Mg -0.206989 14.1049 52.2121 1.2 -6.97311 -1.02598e+06 -1.43476e+06 5.30217e+06 -1.54092e+06 1.7317e+06 898861
72 1 Mg 1.82591 13.8102 49.4556 1.2 -7.30667 1.34433e+06 69.3183 909311 159858 -95677.3 285721
73 2 Si 1.29285 16.1518 51.2434 2.4 -31.652 6.06915e+06 3.47374e+06 1.17429e+07 297697 784988 629791
74 3 O 1.39496 17.7199 51.3047 -1.2 -10.4226 -2.18958e+06 -1.07198e+06 -4.57097e+06 762122 -673555 419272
75 3 O 1.41705 15.1225 57.9647 -1.2 -9.56504 -2.70858e+06 -2.52876e+06 -5.46178e+06 181760 115816 266825
76 3 O -0.0269106 15.5178 50.6688 -1.2 -9.62136 -2.27176e+06 -1.73191e+06 -5.16735e+06 1.16115e+06 -767001 -413943
77 1 Mg -3.18391 14.1057 52.3125 1.2 -6.9778 -1.63314e+06 -1.14076e+06 5.07645e+06 1.84404e+06 -1.62644e+06 784987
78 3 O 2.52432 15.503 50.4579 -1.2 -9.95164 -1.82881e+06 -1.56401e+06 -3.14062e+06 -404346 712240 -421444
79 1 Mg -1.48774 14.2905 55.1763 1.2 -7.66655 109751 1.21201e+06 1.6553e+06 -1.22991e+06 -26825.5 -491952
80 2 Si -1.66616 12.0558 53.2874 2.4 -31.6392 7.14005e+06 4.13813e+06 1.39526e+07 -835125 91389.9 195607
81 3 O -1.57571 10.4756 53.2937 -1.2 -10.2084 -2.55989e+06 -1.40579e+06 -4.62809e+06 1.1748e+06 471694 -292134
82 3 O -1.21337 13.3381 46.4311 -1.2 -8.16342 -2.25056e+06 -1.50043e+06 -3.54239e+06 -629537 -1.45232e+06 980496
83 3 O -3.02033 12.6465 53.9653 -1.2 -9.67755 -547465 -2.47467e+06 -4.59469e+06 -1.53873e+06 -303878 607373
84 3 O -0.352259 12.7604 53.9349 -1.2 -9.87457 311874 -1.71201e+06 -3.84579e+06 985984 258936 257733
85 1 Mg -3.01841 21.2002 57.447 1.2 -7.14081 -1.22808e+06 -2.83685e+06 4.34129e+06 -1.34533e+06 -1.79268e+06 -1.57486e+06
86 1 Mg -1.5831 21.1217 49.8405 1.2 -7.90613 -5872.89 1.39471e+06 2.81126e+06 -177937 268584 627687
87 2 Si -1.09384 18.6291 47.9287 2.4 -33.388 7.05236e+06 5.43224e+06 1.1303e+07 506464 2.31149e+06 -304527
88 3 O -1.02071 20.1985 47.9911 -1.2 -9.18889 -1.77715e+06 -3.50691e+06 -3.69476e+06 450776 -1.93639e+06 -158472
89 3 O -1.65002 17.5002 51.771 -1.2 -9.69727 -1.32994e+06 -1.17409e+06 -5.89529e+06 242093 353514 -914363
90 3 O -2.26174 18.0434 48.8281 -1.2 -9.31146 -271441 -2.68469e+06 -4.4007e+06 -21229.2 -349656 -1.21996e+06
91 1 Mg -0.0440435 16.5651 46.8269 1.2 -6.5316 1.27157e+06 -915864 1.60451e+06 1.13407e+06 1.57882e+06 -710564
92 3 O 0.37001 17.9877 48.3925 -1.2 -9.19631 -878432 -834784 -3.0366e+06 -288355 -336553 729742
93 1 Mg 1.43299 16.4621 54.4619 1.2 -7.80407 1.65157e+06 600853 1.49328e+06 -329236 -156000 809523
94 2 Si 1.44282 19.2561 56.2752 2.4 -32.1808 6.47373e+06 5.49793e+06 1.23907e+07 87010.5 -35724.4 -529332
95 3 O 1.36245 17.7017 56.3742 -1.2 -9.50867 -3.08374e+06 -131250 -4.75394e+06 30733.6 289387 -1.66316e+06
96 3 O 1.45147 20.239 52.7294 -1.2 -9.89386 -2.09614e+06 -1.82633e+06 -5.45518e+06 264163 -106893 -886911
97 3 O 0.132993 19.9399 55.5693 -1.2 -9.75273 358130 -3.44721e+06 -4.2578e+06 -996426 -734128 259645
98 3 O 2.80543 19.9549 55.883 -1.2 -9.87703 -1.3548e+06 -3.68994e+06 -5.36617e+06 686182 1.70593e+06 -140760
99 1 Mg -0.126194 18.8651 52.2079 1.2 -7.07571 -1.12132e+06 -1.77892e+06 5.59176e+06 -1.21343e+06 1.81796e+06 844554
100 1 Mg 1.92402 18.5815 49.4545 1.2 -7.32455 1.33038e+06 -187965 1.04742e+06 80790.8 -110570 197642
101 2 Si 1.38106 20.9117 51.2443 2.4 -31.823 5.79018e+06 3.58669e+06 1.22434e+07 179477 329668 289252
102 3 O 1.48527 22.4795 51.3054 -1.2 -10.3477 -2.17534e+06 -1.2201e+06 -4.77738e+06 622507 -556171 525663
103 3 O 1.37253 19.8173 57.8623 -1.2 -9.45475 -2.36185e+06 -3.22448e+06 -4.04771e+06 -574934 1.31499e+06 1.27299e+06
104 3 O 0.0615419 20.2804 50.6669 -1.2 -9.54211 -2.15607e+06 -1.72111e+06 -5.56203e+06 1.12291e+06 -760007 -336532
105 1 Mg -3.09665 18.8643 52.3122 1.2 -7.06388 -1.53769e+06 -1.9202e+06 4.78171e+06 1.50598e+06 -1.81101e+06 681719
106 3 O 2.61548 20.2646 50.4626 -1.2 -9.95869 -1.97715e+06 -1.51865e+06 -3.16786e+06 -294831 865372 -230020
107 1 Mg -1.52758 19.0498 55.1654 1.2 -7.70569 64461.7 1.30458e+06 1.52385e+06 -206873 -167399 -1.30942e+06
108 2 Si -1.57795 16.8648 53.286 2.4 -31.8612 4.56633e+06 3.84581e+06 1.36618e+07 -661384 -441315 73477.8
109 3 O -1.71931 15.2761 53.2584 -1.2 -10.3057 -1.60435e+06 132361 -4.59222e+06 404091 367191 292659
110 3 O -1.12868 18.1227 46.4249 -1.2 -8.16139 -2.20705e+06 -1.50765e+06 -3.57469e+06 -605464 -1.49386e+06 868430
111 3 O -2.93245 17.5774 53.9292 -1.2 -9.52034 -531964 -1.3263e+06 -5.28013e+06 -951468 471654 726346
112 3 O -0.363823 17.5087 53.9077 -1.2 -9.82118 -2.93602e+06 -1.87687e+06 -5.62169e+06 -193729 -1.82475e+06 189304
113 1 Mg -2.83823 25.9377 57.4745 1.2 -7.45904 -309531 -2.09313e+06 5.11693e+06 -406994 -1.44721e+06 -1.13692e+06
114 1 Mg -1.48778 25.88 49.8402 1.2 -8.04216 105140 1.32341e+06 2.97103e+06 -181649 248768 739801
115 2 Si -1.00491 23.3922 47.9274 2.4 -33.4928 7.20804e+06 5.41127e+06 1.13442e+07 487193 2.33698e+06 -225927
116 3 O -0.927602 24.9615 47.9909 -1.2 -9.11526 -1.89339e+06 -3.49676e+06 -3.78208e+06 461868 -1.92981e+06 -208226
117 3 O -1.55795 22.2588 51.7696 -1.2 -9.75954 -1.7213e+06 -1.83861e+06 -6.39461e+06 566469 -141393 -703339
118 3 O -2.17411 22.8111 48.8277 -1.2 -9.26766 -377570 -2.75416e+06 -4.32705e+06 2147.92 -361329 -1.31146e+06
119 1 Mg 0.0423997 21.3296 46.8225 1.2 -6.5595 1.3326e+06 -969264 1.6548e+06 1.1263e+06 1.5916e+06 -670670
120 3 O 0.458537 22.7495 48.3911 -1.2 -9.14587 -928019 -857787 -3.05186e+06 -289746 -332808 710299
121 1 Mg 1.39891 21.3716 54.4933 1.2 -7.69098 369915 117731 1.36864e+06 445116 1044.29 775996
122 2 Si 1.51453 23.8668 56.3975 2.4 -32.2528 6.4246e+06 4.82949e+06 1.23857e+07 219989 -594108 -437941
123 3 O 1.42533 22.3286 56.455 -1.2 -10.271 -3.08783e+06 -2.69056e+06 -4.58223e+06 317484 -9765.06 -565243
124 3 O 1.54441 24.9963 52.7297 -1.2 -9.85121 -1.89579e+06 -1.60843e+06 -5.86266e+06 155141 -627825 -778574
125 3 O 0.220368 24.5977 55.7789 -1.2 -9.55693 -1.47429e+06 -2.24886e+06 -4.10553e+06 -1.25783e+06 -908303 -402713
126 3 O 2.81504 24.6068 55.7328 -1.2 -9.37635 -660914 -1.88445e+06 -4.16178e+06 1.76408e+06 479981 -360232
127 1 Mg -0.0335968 23.6229 52.2067 1.2 -7.19639 -1.23565e+06 -1.64093e+06 5.3217e+06 -974403 1.85722e+06 407061
128 1 Mg 2.01073 23.3445 49.4541 1.2 -7.37688 1.43546e+06 -193033 1.03898e+06 127053 -167147 225020
129 2 Si 1.47594 25.6699 51.2449 2.4 -32.0058 6.40874e+06 3.38188e+06 1.20642e+07 200519 445086 179690
130 3 O 1.58172 27.2371 51.3054 -1.2 -10.2515 -2.70172e+06 -1.10163e+06 -4.45956e+06 692673 -449472 582277
131 3 O 1.53833 24.5026 57.8978 -1.2 -9.55882 -1.57965e+06 -1.22236e+06 -5.74341e+06 169245 -411413 1.50627e+06
132 3 O 0.157925 25.0378 50.6651 -1.2 -9.44347 -2.33246e+06 -1.80991e+06 -5.46246e+06 1.20006e+06 -774832 -320452
133 1 Mg -3.00341 23.6231 52.3098 1.2 -7.07922 -1.40893e+06 -2.36924e+06 4.85176e+06 1.59784e+06 -1.94204e+06 781114
134 3 O 2.71149 25.0232 50.4656 -1.2 -9.85778 -2.16547e+06 -1.52828e+06 -3.15825e+06 -371530 874440 -340223
135 1 Mg -1.41723 23.6426 55.1245 1.2 -7.72826 1.35098e+06 954322 1.47056e+06 -316948 -240195 -661072
136 2 Si -1.60351 21.5565 53.211 2.4 -31.7554 7.09341e+06 2.77781e+06 1.29496e+07 -236240 -186106 -326503
137 3 O -1.61662 20.0425 53.1827 -1.2 -10.3135 -2.72983e+06 -2.70971e+06 -5.0942e+06 -363314 -203929 760328
138 3 O -1.03938 22.8897 46.4223 -1.2 -8.12461 -2.25196e+06 -1.49123e+06 -3.60428e+06 -605880 -1.50408e+06 821493
139 3 O -2.9243 22.2838 53.886 -1.2 -9.70776 -394339 -2.58763e+06 -4.84384e+06 -1.19842e+06 63850.2 647579
140 3 O -0.252492 22.2258 53.908 -1.2 -9.65519 -379899 -3.01005e+06 -4.47582e+06 1.80334e+06 -715713 1.23173e+06
141 1 Mg -2.89603 30.6381 57.2213 1.2 -7.23018 -682483 -1.49095e+06 3.76385e+06 -1.01967e+06 -1.94552e+06 -441552
142 1 Mg -1.38776 30.6357 49.8391 1.2 -8.02313 51562.6 1.4211e+06 2.89592e+06 -154704 235359 331829
143 2 Si -0.907929 28.1491 47.9262 2.4 -33.6209 7.38097e+06 5.30093e+06 1.1491e+07 487810 2.30908e+06 -430206
144 3 O -0.829229 29.7184 47.99 -1.2 -9.08016 -1.94566e+06 -3.55453e+06 -3.75626e+06 456237 -1.92043e+06 -42429.6
145 3 O -1.45946 27.0152 51.769 -1.2 -9.33627 -1.72161e+06 -479541 -5.13518e+06 437089 -539761 -1.45197e+06
146 3 O -2.07744 27.5697 48.8273 -1.2 -9.17168 -473695 -2.67633e+06 -4.47965e+06 13325.7 -386766 -1.2487e+06
147 1 Mg 0.137907 26.087 46.819 1.2 -6.61454 1.42582e+06 -1.03482e+06 1.72279e+06 1.1232e+06 1.58718e+06 -664144
148 3 O 0.55579 27.5065 48.3893 -1.2 -9.06972 -1.0703e+06 -776913 -3.11099e+06 -293140 -304139 776300
149 1 Mg 1.58249 26.1118 54.4928 1.2 -7.8216 36330.7 -138457 2.14457e+06 -1.16027e+06 698748 222461
150 2 Si 1.54856 28.6341 56.2353 2.4 -31.8354 9.47305e+06 6.33457e+06 1.15291e+07 -1.01111e+06 47833.2 -1.46681e+06
151 3 O 1.50838 27.0426 56.4214 -1.2 -9.86119 -3.03772e+06 219670 -3.86521e+06 627646 276432 -1.53035e+06
152 3 O 1.6432 29.7522 52.7291 -1.2 -9.79463 -2.80045e+06 -582315 -5.72018e+06 482180 -294550 -719484
153 3 O 0.13656 29.3412 55.6369 -1.2 -9.01334 567616 -2.76252e+06 -4.49096e+06 -2.13136e+06 -188524 478841
154 3 O 2.78237 29.4184 55.5564 -1.2 -10.042 -2.04569e+06 -1.27426e+06 -4.85058e+06 1.44122e+06 192950 -259888
155 1 Mg 0.0647462 28.3794 52.2059 1.2 -7.32814 -833776 -1.35372e+06 5.31741e+06 -1.03938e+06 1.68381e+06 712080
156 1 Mg 2.10696 28.1021 49.4531 1.2 -7.46145 1.64819e+06 -304353 1.08116e+06 120228 -121877 133078
157 2 Si 1.57592 30.4257 51.2442 2.4 -31.957 6.62186e+06 3.0809e+06 1.20625e+07 111410 364591 -324773
158 3 O 1.68288 31.9926 51.3043 -1.2 -10.4747 -2.13477e+06 -1.56389e+06 -3.99945e+06 786304 -376314 817506
159 3 O 1.50865 29.3089 57.7443 -1.2 -9.85091 -2.3027e+06 -2.65801e+06 -3.98191e+06 245049 -965548 1.59198e+06
160 3 O 0.258524 29.7935 50.6632 -1.2 -9.40494 -2.50816e+06 -1.63328e+06 -5.56289e+06 1.12429e+06 -627824 -127503
161 1 Mg -2.90462 28.3797 52.308 1.2 -7.20319 -1.15026e+06 -1.75297e+06 4.57766e+06 1.38482e+06 -1.94128e+06 651874
162 3 O 2.81205 29.7787 50.4664 -1.2 -9.79205 -2.33596e+06 -1.39978e+06 -3.39767e+06 -278096 668931 -119611
163 1 Mg -1.42459 28.4596 54.9131 1.2 -7.91658 488533 444982 1.52583e+06 -358638 -190929 -1.78429e+06
164 2 Si -1.4671 26.2463 53.2995 2.4 -31.7531 6.1572e+06 3.25638e+06 1.46685e+07 183145 -487084 -1.5525e+06
165 3 O -1.49386 24.7011 53.2046 -1.2 -10.3963 -2.68661e+06 -1.33497e+06 -5.08831e+06 -4277.41 542431 432738
166 3 O -0.943026 27.648 46.4208 -1.2 -8.07673 -2.32213e+06 -1.45821e+06 -3.65264e+06 -604295 -1.50383e+06 868100
167 3 O -2.79393 26.9629 53.9269 -1.2 -9.8039 -1.61837e+06 -1.85527e+06 -5.58567e+06 -2.13848e+06 460640 936432
168 3 O -0.202604 26.9973 53.8716 -1.2 -9.81155 -854189 -1.41788e+06 -6.59581e+06 1.16298e+06 -1.07212e+06 154124
169 1 Mg -2.86795 35.5639 57.3251 1.2 -7.44193 -987230 -2.66093e+06 4.72428e+06 -1.33e+06 -2.04149e+06 -876072
170 1 Mg -1.28421 35.3899 49.8376 1.2 -8.05039 139644 1.65006e+06 2.62188e+06 -217980 252337 873931
171 2 Si -0.807101 32.9036 47.9247 2.4 -33.6037 7.35862e+06 5.88037e+06 1.09093e+07 492151 2.33532e+06 -285567
172 3 O -0.727174 34.4729 47.9885 -1.2 -9.05659 -1.98727e+06 -3.77074e+06 -3.54351e+06 463682 -1.93144e+06 -325542
173 3 O -1.35735 31.7701 51.768 -1.2 -9.73059 -1.14481e+06 -2.49652e+06 -6.9836e+06 207718 -26327.3 142794
174 3 O -1.97695 32.3253 48.826 -1.2 -9.22077 -420116 -3.03926e+06 -4.08798e+06 11396.1 -384076 -1.19805e+06
175 1 Mg 0.237665 30.8412 46.8168 1.2 -6.63444 1.4603e+06 -911670 1.60065e+06 1.12443e+06 1.58727e+06 -734157
176 3 O 0.656562 32.2608 48.3877 -1.2 -9.09231 -1.01425e+06 -1.08637e+06 -2.81348e+06 -292746 -309109 804827
177 1 Mg 1.70873 30.8438 54.5698 1.2 -7.5778 2.40191e+06 -730101 1.59607e+06 -152199 -389026 1.11613e+06
178 2 Si 1.63476 33.4093 56.2895 2.4 -31.3739 7.04243e+06 6.29487e+06 1.13998e+07 1.67953e+06 303498 1.18478e+06
179 3 O 1.5723 31.8375 56.4883 -1.2 -10.3837 -3.25985e+06 -80390.5 -3.44488e+06 519983 -1.13464e+06 -763708
180 3 O 1.74574 34.5067 52.7279 -1.2 -10.2522 -1.84719e+06 -1.97352e+06 -5.91919e+06 -266811 -291127 -1.21273e+06
181 3 O 0.375142 34.0638 55.6773 -1.2 -9.92452 -726717 -2.27298e+06 -5.66906e+06 -844038 -1.501e+06 -701640
182 3 O 2.98225 34.1296 55.6594 -1.2 -9.96164 -1.12406e+06 -2.38764e+06 -4.26624e+06 2.65932e+06 438172 -908195
183 1 Mg 0.167046 33.1343 52.2045 1.2 -7.02048 -2.37439e+06 -1.44003e+06 5.1945e+06 -821342 1.8907e+06 171515
184 1 Mg 2.20727 32.8578 49.4516 1.2 -7.38165 1.51815e+06 132655 656251 105288 -177498 143047
185 2 Si 1.67943 35.1802 51.2429 2.4 -31.8457 6.26641e+06 4.19027e+06 1.11632e+07 551865 325791 888411
186 3 O 1.78736 36.747 51.303 -1.2 -10.142 -2.75317e+06 -1.2354e+06 -4.74033e+06 738319 -375995 123753
187 3 O 1.6131 34.2848 57.7916 -1.2 -9.39288 -2.76437e+06 -468683 -4.18566e+06 155682 -218108 1.65461e+06
188 3 O 0.362533 34.5479 50.661 -1.2 -9.44748 -2.32561e+06 -2.10405e+06 -5.57102e+06 1.06372e+06 -457979 -313624
189 1 Mg -2.80215 33.1347 52.3062 1.2 -6.65396 -1.24554e+06 -1.45486e+06 4.24684e+06 1.83587e+06 -1.66185e+06 736084
190 3 O 2.91593 34.533 50.466 -1.2 -9.91528 -2.17934e+06 -1.91758e+06 -2.67953e+06 -311024 841070 -585515
191 1 Mg -1.48984 33.1364 55.0403 1.2 -7.52669 -372896 894056 1.24472e+06 335020 280179 -1.48663e+06
192 2 Si -1.36145 31.1212 53.2285 2.4 -32.1888 3.41236e+06 2.32561e+06 1.35154e+07 448711 702754 -714025
193 3 O -1.47263 29.5576 53.1414 -1.2 -9.96441 -2.8047e+06 -1.49473e+06 -6.85647e+06 -144644 -173329 416508
194 3 O -0.842495 32.4028 46.4192 -1.2 -8.05745 -2.35252e+06 -1.6296e+06 -3.48202e+06 -605729 -1.50659e+06 826098
195 3 O -2.58817 31.8149 53.9224 -1.2 -10.0967 -3.31313e+06 -3.00667e+06 -5.62322e+06 -492672 162962 -191716
196 3 O -0.111354 31.6859 53.9355 -1.2 -9.56366 -1.63713e+06 -3.19795e+06 -5.65362e+06 198465 -788196 228682
197 1 Mg -2.54568 40.3138 57.2162 1.2 -7.00346 -761837 -1.59203e+06 4.25507e+06 -1.1032e+06 -2.20558e+06 -554796
198 1 Mg -1.17787 40.1435 49.8359 1.2 -8.38114 577110 1.21801e+06 3.14699e+06 -167695 233910 822897
199 2 Si -0.702692 37.6572 47.9231 2.4 -33.9046 7.84998e+06 5.36739e+06 1.14113e+07 481204 2.31316e+06 300374
200 3 O -0.621782 39.2264 47.9868 -1.2 -8.87593 -2.27425e+06 -3.40823e+06 -3.9138e+06 463966 -1.91796e+06 -415849
201 3 O -1.25221 36.5242 51.7666 -1.2 -9.36829 -2.48168e+06 -2.0856e+06 -7.44177e+06 416836 64975.2 -1.08288e+06
202 3 O -1.87295 37.0796 48.8243 -1.2 -9.05764 -665219 -2.83072e+06 -4.30466e+06 14148.7 -360779 -1.64013e+06
203 1 Mg 0.341084 35.5943 46.8152 1.2 -6.70002 1.56636e+06 -897048 1.58693e+06 1.12284e+06 1.58885e+06 -451302
204 3 O 0.760681 37.0138 48.3864 -1.2 -8.95153 -1.24833e+06 -901608 -2.97843e+06 -289909 -317540 422857
205 1 Mg 1.77327 35.4879 54.4479 1.2 -7.49015 1.26655e+06 630841 1.1109e+06 166683 490500 -26456.5
206 2 Si 1.88356 38.1788 56.243 2.4 -32.088 5.87077e+06 3.10276e+06 1.40999e+07 -963680 -528765 471614
207 3 O 1.79406 36.6306 56.3028 -1.2 -9.93709 -3.44987e+06 -1.77244e+06 -5.4828e+06 1.11183e+06 391982 907809
208 3 O 1.85132 39.2606 52.7264 -1.2 -9.51824 -2.83511e+06 -1.47836e+06 -5.11654e+06 351184 -253666 -402524
209 3 O 0.549257 38.9086 55.7041 -1.2 -9.67405 -38883.9 -1.51343e+06 -4.73408e+06 -616305 170578 201041
210 3 O 3.11545 38.8546 55.6467 -1.2 -9.97922 -2.6003e+06 -2.23126e+06 -5.47582e+06 546956 784085 264002
211 1 Mg 0.272384 37.8883 52.2029 1.2 -7.53698 -633756 -2.1657e+06 4.63633e+06 -1.30102e+06 2.05417e+06 937755
212 1 Mg 2.31122 37.6122 49.4501 1.2 -7.61387 1.87157e+06 -213336 1.03257e+06 125590 -137334 535103
213 2 Si 1.78573 39.934 51.2414 2.4 -32.7612 8.01306e+06 3.34465e+06 1.17294e+07 177705 398967 518758
214 3 O 1.89428 41.5006 51.3014 -1.2 -9.88581 -3.35502e+06 -1.1448e+06 -4.5005e+06 691622 -396175 272657
215 3 O 1.89539 38.77 57.9087 -1.2 -9.43286 -1.21114e+06 -1.31592e+06 -3.07076e+06 -374729 -213354 2.02611e+06
216 3 O 0.469216 39.3015 50.6588 -1.2 -9.07204 -3.08014e+06 -1.68975e+06 -5.57691e+06 1.20887e+06 -584701 -508717
217 1 Mg -2.69668 37.8889 52.3043 1.2 -7.4385 -973479 -2.11897e+06 4.47756e+06 1.57776e+06 -2.02811e+06 626599
218 3 O 3.0225 39.2866 50.4651 -1.2 -9.48712 -2.8357e+06 -1.44484e+06 -3.35312e+06 -336605 679354 -547014
219 1 Mg -1.12755 37.9432 54.9894 1.2 -7.7744 1.71922e+06 -182882 2.45404e+06 438270 178363 -1.45565e+06
220 2 Si -1.19714 35.8315 53.2095 2.4 -31.6996 5.73151e+06 3.73292e+06 1.32704e+07 -463900 -268466 -389936
221 3 O -1.15633 34.2898 53.1249 -1.2 -10.5397 -1.3986e+06 -1.6663e+06 -5.9965e+06 936489 262568 1.0517e+06
222 3 O -0.738054 37.1566 46.4176 -1.2 -7.9603 -2.50875e+06 -1.479e+06 -3.63478e+06 -605027 -1.50434e+06 594153
223 3 O -2.49883 36.5585 53.8654 -1.2 -9.60978 -701215 -1.0623e+06 -6.96462e+06 -1.11237e+06 1.0596e+06 995745
224 3 O 0.0957568 36.6499 53.7991 -1.2 -9.75806 -1.21819e+06 -927958 -6.13059e+06 1.04614e+06 -998442 721002
225 1 Mg -2.5304 45.069 57.2984 1.2 -7.83902 -766786 -2.11696e+06 4.75462e+06 -1.05397e+06 -1.81651e+06 -1.56278e+06
226 1 Mg -1.06993 44.8968 49.8343 1.2 -8.27129 483378 1.43096e+06 2.84501e+06 -173683 167588 610340
227 2 Si -0.596166 42.4103 47.9215 2.4 -34.0902 8.1412e+06 5.07605e+06 1.17139e+07 486277 2.30117e+06 -244243
228 3 O -0.51472 43.9796 47.9853 -1.2 -8.855 -2.31842e+06 -3.44899e+06 -3.86312e+06 462649 -1.9145e+06 -154620
229 3 O -1.14475 41.2777 51.7649 -1.2 -8.81611 -2.61241e+06 -2.17789e+06 -6.39064e+06 412832 224680 -1.44243e+06
230 3 O -1.76671 41.8331 48.8226 -1.2 -8.90744 -881736 -2.60532e+06 -4.55669e+06 24107.6 -381146 -1.36165e+06
231 1 Mg 0.447076 40.3473 46.8135 1.2 -6.82236 1.76558e+06 -1.17897e+06 1.86546e+06 1.12331e+06 1.58456e+06 -511941
232 3 O 0.866985 41.7666 48.385 -1.2 -8.81772 -1.47287e+06 -668034 -3.20246e+06 -295870 -300862 670410
233 1 Mg 1.84412 40.4044 54.5557 1.2 -7.61611 1.23073e+06 626032 2.51886e+06 137736 -570277 554166
234 2 Si 1.97259 42.9514 56.2511 2.4 -32.8376 6.70527e+06 2.37806e+06 1.38135e+07 601272 614286 -391882
235 3 O 1.95708 41.4011 56.4637 -1.2 -10.086 -2.48625e+06 -1.52741e+06 -5.07383e+06 92866.5 -45003.4 -935234
236 3 O 1.95891 44.014 52.7248 -1.2 -9.54447 -2.7228e+06 -1.14184e+06 -6.06795e+06 -542747 -616837 -994412
237 3 O 0.660217 43.5866 55.4754 -1.2 -9.33909 -1.06045e+06 -918730 -5.25742e+06 -1.54667e+06 -483158 -817859
238 3 O 3.25514 43.5968 55.7262 -1.2 -9.23422 -3.41548e+06 -1.8791e+06 -7.65665e+06 170909 1.69122e+06 657448
239 1 Mg 0.379928 42.6418 52.2013 1.2 -7.71518 -506092 -2.15751e+06 5.23331e+06 -811754 1.90349e+06 832833
240 1 Mg 2.41752 42.366 49.4484 1.2 -7.73725 2.09612e+06 -357572 1.15571e+06 116819 -120608 251926
241 2 Si 1.89374 44.6874 51.2398 2.4 -32.4691 7.16862e+06 3.49622e+06 1.19101e+07 320381 902039 193732
242 3 O 2.00266 46.254 51.2996 -1.2 -10.1133 -2.76031e+06 -1.30814e+06 -4.29729e+06 890306 -452782 408850
243 3 O 1.89129 43.6668 57.7161 -1.2 -9.04972 -2.68923e+06 -1.9103e+06 -5.38539e+06 -351976 636611 1.15566e+06
244 3 O 0.577464 44.0549 50.6567 -1.2 -9.16449 -2.98766e+06 -1.75044e+06 -5.42656e+06 1.06954e+06 -697938 -125353
245 1 Mg -2.58906 42.6425 52.3022 1.2 -7.58781 -613467 -2.24281e+06 4.32967e+06 1.46409e+06 -1.85582e+06 1.50961e+06
246 3 O 3.13067 44.0398 50.464 -1.2 -9.53585 -2.60525e+06 -1.5291e+06 -3.32181e+06 -271505 780161 -346739
247 1 Mg -1.05416 42.67 55.053 1.2 -8.0311 1.09654e+06 -420727 2.28392e+06 -675946 17499.7 -942849
248 2 Si -1.15939 40.5843 53.2742 2.4 -32.5039 6.36573e+06 3.23654e+06 1.27659e+07 780086 659929 -112790
249 3 O -1.22975 39.0605 53.1151 -1.2 -9.99579 -3.11435e+06 -2.84828e+06 -5.59936e+06 105870 403772 1.30142e+06
250 3 O -0.631421 41.9099 46.4159 -1.2 -7.8774 -2.64112e+06 -1.30967e+06 -3.80394e+06 -605008 -1.50265e+06 767711
251 3 O -2.3789 41.3544 53.859 -1.2 -9.68063 -2.50706e+06 -2.81359e+06 -6.38255e+06 -826501 1.52781e+06 -252450
252 3 O 0.185885 41.2924 53.8605 -1.2 -9.43231 -1.16232e+06 -2.44984e+06 -5.70314e+06 1.75289e+06 -1.12563e+06 -142961
253 1 Mg -2.54547 49.7068 57.3454 1.2 -7.02305 -2.10184e+06 -1.45004e+06 4.75135e+06 -976883 -2.17788e+06 -755942
254 1 Mg -0.961069 49.6502 49.8327 1.2 -8.24017 443650 1.42944e+06 2.84113e+06 -150085 271432 661417
255 2 Si -0.488083 47.1636 47.9198 2.4 -34.0061 8.01579e+06 5.35202e+06 1.14279e+07 491599 2.30417e+06 -250515
256 3 O -0.40607 48.7329 47.9837 -1.2 -8.89044 -2.25509e+06 -3.51679e+06 -3.79816e+06 458115 -1.92459e+06 -202828
257 3 O -1.0361 46.031 51.7632 -1.2 -9.40345 -1.68356e+06 -1.76383e+06 -5.99752e+06 -41321.1 -549792 -1.37503e+06
258 3 O -1.65866 46.5866 48.821 -1.2 -8.97547 -778899 -2.78236e+06 -4.37946e+06 5579.33 -364616 -1.34394e+06
259 1 Mg 0.554124 45.1001 46.8117 1.2 -6.82568 1.77403e+06 -1.09701e+06 1.78118e+06 1.12298e+06 1.58806e+06 -670523
260 3 O 0.974961 46.5195 48.3832 -1.2 -8.86909 -1.38836e+06 -839166 -3.03304e+06 -284318 -311125 710625
261 1 Mg 1.82755 45.1361 54.4853 1.2 -7.9677 1.55493e+06 255707 1.62728e+06 185000 -471841 1.09048e+06
262 2 Si 1.87235 47.7102 56.3437 2.4 -32.5243 7.90374e+06 520131 1.16732e+07 -612727 -351295 -232780
263 3 O 1.80785 46.2127 56.4291 -1.2 -9.74 -3.71301e+06 -3.09168e+06 -4.97654e+06 157923 -42257 554790
264 3 O 2.0677 48.7672 52.7232 -1.2 -9.75262 -2.72343e+06 -1.6731e+06 -5.49444e+06 168771 -449992 -784365
265 3 O 0.632966 48.4456 55.6662 -1.2 -9.47544 -1.88518e+06 -2.14265e+06 -5.71888e+06 -298039 -344506 312361
266 3 O 3.19804 48.299 55.6779 -1.2 -9.53979 -2.81042e+06 -2.63279e+06 -4.72721e+06 1.05145e+06 176808 135978
267 1 Mg 0.488584 47.395 52.1996 1.2 -7.52529 -635977 -2.07637e+06 5.21552e+06 -1.16799e+06 1.6294e+06 796429
268 1 Mg 2.52544 47.1195 49.4466 1.2 -7.6508 1.94845e+06 -182318 993226 106676 -121905 262220
269 2 Si 2.00256 49.4407 51.2382 2.4 -32.4154 7.20913e+06 3.8151e+06 1.14848e+07 129652 365012 608193
270 3 O 2.11156 51.0073 51.2982 -1.2 -10.0187 -2.89191e+06 -1.21838e+06 -4.70986e+06 696897 -448516 141308
271 3 O 1.85563 48.4181 57.8056 -1.2 -9.73548 -3.40796e+06 -1.18077e+06 -7.55968e+06 269324 -72746.2 505023
272 3 O 0.686344 48.8082 50.655 -1.2 -9.19215 -2.82255e+06 -1.83897e+06 -5.4558e+06 1.08083e+06 -597458 -343744
273 1 Mg -2.48039 47.3957 52.3005 1.2 -7.32476 -1.13352e+06 -1.88572e+06 4.84833e+06 1.30047e+06 -1.91624e+06 163633
274 3 O 3.23944 48.7932 50.4623 -1.2 -9.59951 -2.67608e+06 -1.57787e+06 -3.26429e+06 -202839 684936 -341834