ITEM: TIMESTEP
21000
ITEM: NUMBER OF ATOMS
10500
ITEM: BOX BOUNDS xy xz yz pp pp pp
0.0000000000000000e+00 8.9687999999999999e+00 2.9895999999999998e+00
0.0000000000000000e+00 1.1872499999999999e+02 0.0000000000000000e+00
0.0000000000000000e+00 2.5297749999999999e+02 0.0000000000000000e+00
ITEM: ATOMS id type element xu yu zu q c_pe c_s[1] c_s[2] c_s[3] c_s[4] c_s[5] c_s[6]
1 1 Mg -3.58039 7.08046 57.5512 1.2 -7.7039 -319614 -1.76961e+06 4.28603e+06 -841737 -1.74055e+06 -1.17339e+06
2 1 Mg -1.82655 6.90154 50.0912 1.2 -8.09947 -9876.93 1.22477e+06 962557 -121612 -214065 1.61283e+06
3 2 Si -0.257935 3.96038 48.0876 2.4 -36.004 9.94373e+06 9.17697e+06 1.04169e+07 809765 1.9828e+06 1.69763e+06
4 3 O -0.335812 5.46814 47.6264 -1.2 -7.81374 -3.04144e+06 -2.67644e+06 -2.32279e+06 142163 -977551 -629413
5 3 O -2.03793 3.43377 51.8941 -1.2 -8.94143 -2.60549e+06 -493107 -5.57107e+06 -810445 968808 -2.13703e+06
6 3 O -1.54015 3.53929 48.9521 -1.2 -8.34072 -1.24151e+06 -1.78604e+06 -4.18421e+06 29079.5 -731763 -195222
7 1 Mg 1.82954 2.54582 47.1376 1.2 -7.9942 2.60763e+06 -290342 541731 1.14955e+06 830357 519281
8 3 O 1.22989 3.66364 48.7877 -1.2 -8.05475 -1.58842e+06 -2.56722e+06 -3.51336e+06 -481360 -720819 -943786
9 1 Mg 1.01368 2.34319 54.627 1.2 -8.12991 2.57998e+06 1.06517e+06 1.81997e+06 -123122 -514329 629438
10 2 Si 0.963105 4.92657 56.5279 2.4 -32.8756 6.86136e+06 2.82082e+06 1.22921e+07 -264920 622036 -131145
11 3 O 0.837506 3.41214 56.77 -1.2 -9.91458 -3.41401e+06 -3.29292e+06 -4.95292e+06 -93491.8 -898985 -483482
12 3 O 1.10813 6.07342 52.8172 -1.2 -9.2951 -2.55536e+06 -3.57709e+06 -4.80986e+06 316487 -239582 -1.47982e+06
13 3 O -0.309525 5.63095 55.8597 -1.2 -8.94921 -4.00304e+06 -2.36801e+06 -5.97015e+06 -1.2432e+06 -1.1535e+06 -42879.4
14 3 O 2.11563 5.65409 55.7983 -1.2 -9.37077 -5.48221e+06 -2.06363e+06 -4.55046e+06 1.4009e+06 557192 439485
15 1 Mg -0.459401 4.67631 52.2426 1.2 -7.7873 -610369 -1.05295e+06 5.64723e+06 -943233 992263 908058
16 1 Mg 2.79456 3.9971 49.9987 1.2 -8.29821 3.46375e+06 -15883 1.59897e+06 -551922 838174 -964883
17 2 Si 1.16169 6.59457 51.2556 2.4 -33.3245 6.37582e+06 6.50224e+06 1.18598e+07 159877 455677 3.05585e+06
18 3 O 1.28989 8.18905 51.2909 -1.2 -9.51164 -2.8806e+06 -1.43213e+06 -4.03228e+06 164376 -975434 763157
19 3 O 0.899351 5.66781 58.0172 -1.2 -9.04672 -3.38549e+06 -2.27662e+06 -5.63324e+06 645015 -734314 1.3347e+06
20 3 O -0.184847 6.06029 50.6845 -1.2 -8.90247 -2.57155e+06 -3.32621e+06 -4.84729e+06 1.45994e+06 -604438 -1.53648e+06
21 1 Mg -3.49704 4.67769 52.6661 1.2 -7.49144 -226933 -2.0353e+06 2.92038e+06 1.97254e+06 -1.02735e+06 1.12548e+06
22 3 O 2.48581 5.93312 50.6539 -1.2 -9.44785 -2.71168e+06 -1.75076e+06 -2.86054e+06 -1.5589e+06 -336649 -920282
23 1 Mg -1.97363 4.73442 55.255 1.2 -8.29367 1.53517e+06 1.57505e+06 1.32679e+06 -347408 -798592 -526591
24 2 Si -1.97217 2.58388 53.3453 2.4 -33.392 7.42744e+06 2.616e+06 1.40216e+07 475353 467964 -1.3749e+06
25 3 O -2.02642 1.08493 53.2819 -1.2 -9.58716 -3.6397e+06 -3.16852e+06 -4.52853e+06 -36061.3 -438925 477509
26 3 O -0.0467762 2.97103 46.8385 -1.2 -7.00871 -2.96766e+06 -2.36806e+06 -2.66085e+06 -989678 -2.00673e+06 -627263
27 3 O -3.21432 3.30606 54.1046 -1.2 -9.23002 -2.80765e+06 -2.24348e+06 -4.96996e+06 -711033 -398374 692935
28 3 O -0.704315 3.22766 54.0445 -1.2 -8.94088 -2.66391e+06 -2.77558e+06 -4.12304e+06 812659 160327 712233
29 1 Mg -3.56148 11.6603 57.4734 1.2 -7.75688 -481829 -1.82911e+06 4.7281e+06 -1.60273e+06 -1.99396e+06 -1.26612e+06
30 1 Mg -1.75014 11.5838 49.8362 1.2 -8.61751 1.03493e+06 1.87967e+06 2.59436e+06 -297456 197467 792825
31 2 Si -1.18003 9.02138 47.9309 2.4 -34.5255 8.61027e+06 7.26751e+06 9.64537e+06 218557 2.59775e+06 645185
32 3 O -1.23224 10.5991 47.9811 -1.2 -8.61898 -2.65725e+06 -3.52917e+06 -2.84201e+06 657800 -1.90429e+06 -36046.3
33 3 O -1.79016 8.01447 51.8693 -1.2 -9.14393 -3.21957e+06 -2.09775e+06 -5.98795e+06 487141 297897 -1.94179e+06
34 3 O -2.30986 8.37215 48.8528 -1.2 -8.9393 -1.07519e+06 -2.61876e+06 -3.27851e+06 -332296 -592730 -1.04102e+06
35 1 Mg 0.154883 7.08234 46.8007 1.2 -7.54346 1.92355e+06 21440 623815 942854 1.72905e+06 -857665
36 3 O 0.325447 8.50934 48.3809 -1.2 -8.57956 -1.49336e+06 -2.04651e+06 -2.65341e+06 -30538.8 -837869 206201
37 1 Mg 1.18742 6.97788 54.6589 1.2 -8.27183 2.46591e+06 601030 1.06566e+06 367439 -189527 526863
38 2 Si 1.04002 9.66251 56.4513 2.4 -32.6063 9.45029e+06 2.6589e+06 1.27543e+07 12195.6 -747936 207103
39 3 O 0.989151 8.16643 56.6052 -1.2 -9.83631 -3.99597e+06 -3.49559e+06 -5.12809e+06 706858 -778092 250985
40 3 O 1.28624 10.7248 52.7351 -1.2 -9.17881 -3.80801e+06 -2.30058e+06 -4.75708e+06 245256 -1.11038e+06 -761923
41 3 O -0.305467 10.3375 55.8912 -1.2 -9.04223 -1.92978e+06 -2.54998e+06 -5.50507e+06 -1.05808e+06 -620170 -563286
42 3 O 2.30342 10.3894 55.6916 -1.2 -9.2764 -1.3976e+06 -2.18987e+06 -3.2989e+06 1.23696e+06 -398986 -256559
43 1 Mg -0.262694 9.34741 52.2523 1.2 -7.87486 478816 -966206 4.99566e+06 -1.73274e+06 1.25714e+06 611668
44 1 Mg 1.87648 9.01537 49.4629 1.2 -7.94116 2.07376e+06 492553 374267 277970 -233534 442015
45 2 Si 1.21415 11.3799 51.2378 2.4 -33.3547 8.92688e+06 4.8214e+06 1.06259e+07 169411 942042 560744
46 3 O 1.31634 12.9512 51.3023 -1.2 -9.60338 -3.6816e+06 -1.5411e+06 -3.81691e+06 707881 -483780 714239
47 3 O 0.967085 10.3887 57.9988 -1.2 -9.23809 -3.45628e+06 -2.0954e+06 -4.43704e+06 -297962 -1.37043e+06 1.81178e+06
48 3 O -0.115718 10.7564 50.681 -1.2 -8.80423 -3.41007e+06 -2.32966e+06 -4.49954e+06 1.25153e+06 -561752 -603138
49 1 Mg -3.26386 9.35564 52.3622 1.2 -7.93085 -484797 -1.55184e+06 3.57073e+06 1.94618e+06 -1.76042e+06 1.09808e+06
50 3 O 2.45216 10.7265 50.4558 -1.2 -9.2333 -2.9807e+06 -1.79592e+06 -2.58289e+06 -817526 391308 -56442.1
51 1 Mg -1.94608 9.39032 55.1786 1.2 -8.5477 2.01913e+06 777034 1.473e+06 -387999 781.211 -1.30531e+06
52 2 Si -1.83387 7.34675 53.3636 2.4 -33.1441 8.70188e+06 3.39667e+06 1.10018e+07 -247910 455922 -634647
53 3 O -1.91243 5.85327 53.4644 -1.2 -9.71848 -3.32599e+06 -4.25773e+06 -4.27552e+06 386598 -712273 96103.5
54 3 O -1.19417 8.46968 46.4488 -1.2 -7.58319 -2.81719e+06 -2.11793e+06 -2.87005e+06 -540182 -1.74173e+06 692700
55 3 O -3.14859 8.08293 53.9485 -1.2 -9.01904 -2.64484e+06 -3.65718e+06 -4.49276e+06 -784721 279381 243530
56 3 O -0.555418 8.06323 54.0435 -1.2 -8.86902 -1.49793e+06 -2.73231e+06 -3.91969e+06 1.11183e+06 -526509 152399
57 1 Mg -3.26289 16.421 57.441 1.2 -7.8762 55126.2 -1.06896e+06 4.83408e+06 -718458 -1.48947e+06 -841409
58 1 Mg -1.6714 16.3544 49.8412 1.2 -8.55002 843828 1.95774e+06 2.47769e+06 -214660 165311 342040
59 2 Si -1.18567 13.8526 47.9314 2.4 -34.554 8.89857e+06 6.04823e+06 1.06495e+07 500413 2.22696e+06 -630682
60 3 O -1.09664 15.4205 47.9915 -1.2 -8.64835 -2.56425e+06 -3.82518e+06 -3.27361e+06 425107 -1.91418e+06 97170.3
61 3 O -1.73493 12.7491 51.7772 -1.2 -8.76508 -2.75292e+06 -2.41951e+06 -5.11732e+06 -18139.1 143762 -908961
62 3 O -2.36115 13.2717 48.8238 -1.2 -8.65893 -1.33303e+06 -2.98498e+06 -3.99065e+06 -112774 -378647 -1.13002e+06
63 1 Mg -0.159928 11.7639 46.8533 1.2 -7.08692 2.22322e+06 -621195 1.26375e+06 1.12595e+06 1.56781e+06 -871197
64 3 O 0.2623 13.1866 48.413 -1.2 -8.58597 -1.87169e+06 -1.0239e+06 -2.72484e+06 -195017 -273771 897007
65 1 Mg 1.22456 11.738 54.5242 1.2 -8.22974 2.60635e+06 1.23531e+06 1.05272e+06 20475.5 -421699 742981
66 2 Si 1.00799 14.4278 56.4472 2.4 -32.9652 7.92252e+06 5.75817e+06 1.18074e+07 480727 -572051 -479954
67 3 O 1.11338 12.8759 56.6157 -1.2 -9.65793 -3.77671e+06 -1.0569e+06 -4.30566e+06 475226 -223452 372988
68 3 O 1.36565 15.4813 52.729 -1.2 -9.2831 -3.48676e+06 -1.76763e+06 -5.14645e+06 159274 -417875 -888813
69 3 O -0.271979 15.0303 55.8354 -1.2 -9.08187 -3.01609e+06 -2.40944e+06 -5.01134e+06 -782372 -747172 248903
70 3 O 2.34014 15.1355 55.6519 -1.2 -9.13697 -1.22433e+06 -2.82843e+06 -2.80816e+06 1.77993e+06 -133354 -229170
71 1 Mg -0.206989 14.1049 52.2121 1.2 -8.01053 -133419 -1.48961e+06 4.49213e+06 -1.18066e+06 1.91621e+06 708491
72 1 Mg 1.82591 13.8102 49.4556 1.2 -8.0013 2.53477e+06 311065 522928 131099 -78401.9 124509
73 2 Si 1.29285 16.1518 51.2434 2.4 -33.0685 8.63617e+06 4.51242e+06 1.04421e+07 353961 513170 -71888
74 3 O 1.39496 17.7199 51.3047 -1.2 -9.88977 -3.13196e+06 -1.83897e+06 -3.49752e+06 738816 -367231 656843
75 3 O 1.07259 15.2144 57.8979 -1.2 -9.17335 -3.31238e+06 -2.40458e+06 -4.6129e+06 634828 -852992 1.47192e+06
76 3 O -0.0269106 15.5178 50.6688 -1.2 -8.80805 -3.63909e+06 -2.15725e+06 -5.19387e+06 1.03106e+06 -354870 33166.4
77 1 Mg -3.18391 14.1057 52.3125 1.2 -7.80987 26750.5 -830771 3.96738e+06 1.74201e+06 -1.83449e+06 654973
78 3 O 2.52432 15.503 50.4579 -1.2 -9.23327 -3.18166e+06 -1.97371e+06 -2.62466e+06 -349503 583804 -92522
79 1 Mg -1.97938 14.1528 55.2438 1.2 -8.28449 1.20873e+06 1.40998e+06 952828 592299 73296.1 -982854
80 2 Si -1.67942 12.0933 53.2842 2.4 -33.5324 6.98262e+06 6.04659e+06 1.16435e+07 1.12299e+06 -345595 -1.03533e+06
81 3 O -1.8336 10.4919 53.2311 -1.2 -9.14986 -3.6065e+06 -1.37722e+06 -4.34294e+06 972338 291665 488637
82 3 O -1.21337 13.3381 46.4311 -1.2 -7.6278 -3.10458e+06 -1.76523e+06 -3.27981e+06 -631467 -1.4491e+06 1.04709e+06
83 3 O -2.96851 12.7256 53.9514 -1.2 -9.03044 -2.13911e+06 -3.32614e+06 -4.41285e+06 -346984 791400 34002
84 3 O -0.396829 12.7508 53.8721 -1.2 -9.20271 -3.13655e+06 -2.4221e+06 -4.0204e+06 705617 -882852 97628.8
85 1 Mg -3.06762 21.3164 57.1705 1.2 -7.43319 -442652 -1.40003e+06 3.92454e+06 -711012 -1.63945e+06 -1.20759e+06
86 1 Mg -1.5831 21.1217 49.8405 1.2 -8.27338 573884 2.33406e+06 1.87777e+06 -196287 181454 440895
87 2 Si -1.09384 18.6291 47.9287 2.4 -34.3492 8.57378e+06 6.66663e+06 1.00879e+07 501237 2.30655e+06 -917296
88 3 O -1.02071 20.1985 47.9911 -1.2 -8.76185 -2.46189e+06 -4.24174e+06 -2.96055e+06 453727 -1.92738e+06 94581.8
89 3 O -1.65002 17.5002 51.771 -1.2 -9.0327 -1.65518e+06 -3.11813e+06 -5.42753e+06 195979 123925 -703453
90 3 O -2.26174 18.0434 48.8281 -1.2 -8.79204 -1.09144e+06 -3.29852e+06 -3.79568e+06 -13358.7 -368042 -907285
91 1 Mg -0.0440435 16.5651 46.8269 1.2 -7.04656 2.0946e+06 -496352 1.18706e+06 1.13525e+06 1.57359e+06 -972792
92 3 O 0.37001 17.9877 48.3925 -1.2 -8.68459 -1.70055e+06 -1.41848e+06 -2.44669e+06 -293293 -323023 1.0491e+06
93 1 Mg 1.40596 16.5225 54.5032 1.2 -8.30054 2.43251e+06 1.05195e+06 631887 153460 -91616.8 964552
94 2 Si 1.33955 19.2 56.4237 2.4 -33.0059 6.90973e+06 7.78456e+06 1.13209e+07 -553043 1.00857e+06 -1.16729e+06
95 3 O 1.24703 17.6497 56.5726 -1.2 -9.51845 -2.85816e+06 -1.32083e+06 -4.33104e+06 366393 -107712 -294194
96 3 O 1.45147 20.239 52.7294 -1.2 -9.51125 -2.31978e+06 -1.7625e+06 -4.83065e+06 247697 -260743 -558629
97 3 O -0.00550384 19.9244 55.7505 -1.2 -9.07674 -1.75179e+06 -2.91555e+06 -2.81275e+06 -2.16088e+06 -829051 -286391
98 3 O 2.53478 19.9863 55.6845 -1.2 -9.29827 -2.56127e+06 -3.23128e+06 -4.95334e+06 1.8999e+06 1.03192e+06 -297082
99 1 Mg -0.126194 18.8651 52.2079 1.2 -7.65622 -607373 -1.56062e+06 4.69468e+06 -716183 1.882e+06 426970
100 1 Mg 1.92402 18.5815 49.4545 1.2 -7.82246 2.16917e+06 487693 329826 91989 -106828 -95206
101 2 Si 1.38106 20.9117 51.2443 2.4 -32.4783 6.76407e+06 5.34562e+06 1.04986e+07 265566 498741 -214033
102 3 O 1.48527 22.4795 51.3054 -1.2 -10.1003 -2.62082e+06 -2.22194e+06 -3.39782e+06 772052 -198366 563225
103 3 O 1.41226 19.9144 57.8728 -1.2 -9.21684 -1.72055e+06 -2.88361e+06 -5.018e+06 -8139.66 -428006 1.15682e+06
104 3 O 0.0615419 20.2804 50.6669 -1.2 -9.16378 -2.88231e+06 -2.56975e+06 -4.71675e+06 985376 -766174 126145
105 1 Mg -3.09665 18.8643 52.3122 1.2 -7.53776 -463791 -880068 4.42428e+06 1.14984e+06 -1.55434e+06 392175
106 3 O 2.61548 20.2646 50.4626 -1.2 -9.54336 -2.56973e+06 -2.36415e+06 -2.35252e+06 -283933 846087 -22340.8
107 1 Mg -1.63637 19.0237 55.1947 1.2 -8.26562 1.57963e+06 2.14501e+06 555911 -106644 -397989 -850463
108 2 Si -1.54326 16.7986 53.2387 2.4 -33.6076 6.33284e+06 5.54248e+06 1.27552e+07 -459521 -161916 553258
109 3 O -1.62461 15.2548 53.0828 -1.2 -9.32409 -3.07639e+06 -2.63386e+06 -5.2218e+06 825639 140715 330485
110 3 O -1.12868 18.1227 46.4249 -1.2 -7.69262 -2.95538e+06 -2.02935e+06 -3.05504e+06 -605035 -1.49333e+06 1.13618e+06
111 3 O -2.79265 17.4768 54.0386 -1.2 -8.85363 -2.3743e+06 -2.08375e+06 -3.41695e+06 -1.02925e+06 240887 784994
112 3 O -0.290086 17.4495 53.913 -1.2 -9.03672 -3.98926e+06 -2.75888e+06 -3.24338e+06 861604 -433984 246623
113 1 Mg -3.03006 25.9646 57.3512 1.2 -7.64657 -884042 -1.50212e+06 3.25804e+06 -1.33555e+06 -1.93268e+06 -1.34728e+06
114 1 Mg -1.48778 25.88 49.8402 1.2 -8.38496 652978 2.09595e+06 2.20226e+06 -182519 268721 706312
115 2 Si -1.00491 23.3922 47.9274 2.4 -34.2276 8.38132e+06 6.99137e+06 9.76769e+06 493387 2.32304e+06 -288986
116 3 O -0.927602 24.9615 47.9909 -1.2 -8.75515 -2.46772e+06 -4.2562e+06 -3.02651e+06 457384 -1.92816e+06 -229239
117 3 O -1.55795 22.2588 51.7696 -1.2 -9.54085 -1.64597e+06 -2.0776e+06 -6.03715e+06 182801 -69823.5 -990614
118 3 O -2.17411 22.8111 48.8277 -1.2 -8.90147 -939808 -3.60047e+06 -3.51407e+06 -11319.4 -354171 -1.27104e+06
119 1 Mg 0.0423997 21.3296 46.8225 1.2 -6.95923 1.97647e+06 -248006 930080 1.12646e+06 1.59085e+06 -845096
120 3 O 0.458537 22.7495 48.3911 -1.2 -8.77829 -1.53175e+06 -1.68256e+06 -2.21658e+06 -283317 -333214 764525
121 1 Mg 1.48284 21.4037 54.5423 1.2 -8.22956 1.85228e+06 1.74282e+06 341273 59319.3 -710193 551017
122 2 Si 1.43942 23.9517 56.3983 2.4 -32.5288 7.3878e+06 6.62937e+06 1.0763e+07 1.2071e+06 478789 -636533
123 3 O 1.37293 22.3853 56.431 -1.2 -9.72007 -2.68497e+06 -2.9294e+06 -3.80954e+06 966163 -564829 -158352
124 3 O 1.54441 24.9963 52.7297 -1.2 -9.57946 -3.11625e+06 -2.08033e+06 -4.76584e+06 192442 -53894.5 -937156
125 3 O 0.177377 24.6089 55.6294 -1.2 -9.2215 -790345 -3.91283e+06 -2.98957e+06 -990925 -743881 146027
126 3 O 2.76738 24.6466 55.7693 -1.2 -9.47749 -2.44865e+06 -2.98145e+06 -4.1634e+06 1.64837e+06 589277 -319067
127 1 Mg -0.0335968 23.6229 52.2067 1.2 -7.56372 -647868 -854121 4.80159e+06 -1.35525e+06 1.4794e+06 765105
128 1 Mg 2.01073 23.3445 49.4541 1.2 -7.72628 2.01709e+06 662431 160122 114377 -144614 234631
129 2 Si 1.47594 25.6699 51.2449 2.4 -32.6756 7.7205e+06 4.94135e+06 1.02444e+07 231935 206438 424022
130 3 O 1.58172 27.2371 51.3054 -1.2 -9.90887 -3.04093e+06 -2.00237e+06 -3.6254e+06 592014 -408496 307106
131 3 O 1.43633 24.6573 57.8613 -1.2 -9.44516 -2.33761e+06 -2.8379e+06 -3.65544e+06 -693792 216466 1.40621e+06
132 3 O 0.157925 25.0378 50.6651 -1.2 -9.08306 -2.90775e+06 -2.49139e+06 -4.79446e+06 1.15599e+06 -634040 -409610
133 1 Mg -3.00341 23.6231 52.3098 1.2 -7.36186 -564361 -767901 4.05018e+06 1.47008e+06 -1.37148e+06 407813
134 3 O 2.71149 25.0232 50.4656 -1.2 -9.50385 -2.813e+06 -2.26826e+06 -2.41454e+06 -311879 742849 -393997
135 1 Mg -1.56011 23.6816 55.1871 1.2 -8.26437 1.09579e+06 1.99016e+06 593285 -47123.5 -44286.4 -874846
136 2 Si -1.46429 21.5317 53.1917 2.4 -32.621 6.24244e+06 7.83456e+06 1.11479e+07 378668 462108 5020.18
137 3 O -1.53842 19.9233 53.1647 -1.2 -9.78421 -2.99609e+06 -1.36949e+06 -4.22817e+06 669120 111911 124997
138 3 O -1.03938 22.8897 46.4223 -1.2 -7.74681 -2.85727e+06 -2.21797e+06 -2.87812e+06 -606421 -1.50203e+06 914403
139 3 O -2.66816 22.2292 54.0177 -1.2 -9.28475 -2.80448e+06 -2.94133e+06 -2.68082e+06 -1.63251e+06 577378 1.05461e+06
140 3 O -0.194661 22.2614 53.8696 -1.2 -9.13849 -2.9384e+06 -3.11264e+06 -3.40211e+06 1.60279e+06 -448842 823386
141 1 Mg -3.10085 30.7327 57.6982 1.2 -7.93898 -689283 -742556 3.95435e+06 -645407 -1.69414e+06 -567386
142 1 Mg -1.38776 30.6357 49.8391 1.2 -8.50866 823433 1.86631e+06 2.45013e+06 -148452 236235 610854
143 2 Si -0.907929 28.1491 47.9262 2.4 -34.3652 8.5899e+06 6.64373e+06 1.0131e+07 485612 2.31826e+06 -142001
144 3 O -0.829229 29.7184 47.99 -1.2 -8.68517 -2.58266e+06 -4.10396e+06 -3.20848e+06 459048 -1.92173e+06 -201522
145 3 O -1.45946 27.0152 51.769 -1.2 -9.19674 -2.06707e+06 -2.53582e+06 -5.78466e+06 609823 -271052 -672248
146 3 O -2.07744 27.5697 48.8273 -1.2 -8.80889 -1.07432e+06 -3.4275e+06 -3.71097e+06 18424.1 -372344 -1.40461e+06
147 1 Mg 0.137907 26.087 46.819 1.2 -6.97515 2.0033e+06 -327374 1.01564e+06 1.12474e+06 1.58801e+06 -624565
148 3 O 0.55579 27.5065 48.3893 -1.2 -8.7015 -1.6519e+06 -1.50351e+06 -2.39639e+06 -296508 -315923 640264
149 1 Mg 1.57456 26.0154 54.4965 1.2 -8.12885 2.70019e+06 2.04571e+06 303557 6558.67 161159 652437
150 2 Si 1.51817 28.6526 56.4459 2.4 -33.5329 7.8327e+06 4.28109e+06 1.04212e+07 966873 -165068 -501939
151 3 O 1.4351 27.1422 56.5112 -1.2 -9.47401 -3.06734e+06 -4.56586e+06 -4.29433e+06 430002 -367806 -7739.91
152 3 O 1.6432 29.7522 52.7291 -1.2 -9.24556 -3.28772e+06 -1.79662e+06 -4.56947e+06 554751 -855553 -726074
153 3 O 0.182867 29.3232 55.8826 -1.2 -9.04828 -3.49411e+06 -3.57051e+06 -3.53178e+06 -691027 -872342 -66088.6
154 3 O 2.74312 29.3544 55.753 -1.2 -8.82718 -2.53751e+06 -3.14149e+06 -3.81769e+06 214677 717446 -254111
155 1 Mg 0.0647462 28.3794 52.2059 1.2 -7.69852 23657.4 -659053 4.76637e+06 -1.24189e+06 1.53129e+06 652212
156 1 Mg 2.10696 28.1021 49.4531 1.2 -7.84153 2.21904e+06 434194 379850 128237 -137099 341129
157 2 Si 1.57592 30.4257 51.2442 2.4 -33.0556 8.29706e+06 4.34924e+06 1.08433e+07 -28823.3 532887 234757
158 3 O 1.68288 31.9926 51.3043 -1.2 -9.82463 -3.17993e+06 -1.90615e+06 -3.75272e+06 725481 -188343 616055
159 3 O 1.52199 29.2448 57.9806 -1.2 -9.15712 -3.14186e+06 -2.89183e+06 -4.87604e+06 -546863 -685002 1.14259e+06
160 3 O 0.258524 29.7935 50.6632 -1.2 -8.93531 -3.24374e+06 -2.31227e+06 -4.80056e+06 1.21596e+06 -742723 -461751
161 1 Mg -2.90462 28.3797 52.308 1.2 -7.67189 -598811 -1.34847e+06 4.27571e+06 1.632e+06 -1.77376e+06 1.00509e+06
162 3 O 2.81205 29.7787 50.4664 -1.2 -9.32751 -3.01784e+06 -2.00408e+06 -2.79406e+06 -334340 736529 -388330
163 1 Mg -1.44711 28.3954 55.2194 1.2 -8.4411 2.20458e+06 1.75465e+06 597516 -857830 -157554 -455475
164 2 Si -1.48719 26.343 53.2372 2.4 -33.1651 6.41651e+06 5.84294e+06 1.11167e+07 -160131 117679 876.246
165 3 O -1.54212 24.795 53.1794 -1.2 -9.60991 -2.81489e+06 -2.88904e+06 -4.19181e+06 -88169.2 -225848 711999
166 3 O -0.943026 27.648 46.4208 -1.2 -7.71576 -2.90209e+06 -2.10434e+06 -3.00553e+06 -604313 -1.50488e+06 797229
167 3 O -2.72665 27.0524 53.9475 -1.2 -9.22068 -2.86475e+06 -3.53294e+06 -3.36249e+06 -392136 703005 134299
168 3 O -0.194667 26.9954 53.9118 -1.2 -9.03927 -2.08467e+06 -2.88832e+06 -3.48469e+06 751875 -853126 332238
169 1 Mg -2.80617 35.5718 57.4922 1.2 -7.7335 -606028 -1.39839e+06 3.96117e+06 -443156 -2.04602e+06 -365520
170 1 Mg -1.28421 35.3899 49.8376 1.2 -8.3682 689651 2.25272e+06 1.97022e+06 -206934 201382 611971
171 2 Si -0.807101 32.9036 47.9247 2.4 -34.3707 8.59964e+06 6.7421e+06 1.00343e+07 488313 2.32542e+06 -516581
172 3 O -0.727174 34.4729 47.9885 -1.2 -8.7213 -2.5367e+06 -4.30505e+06 -3.00416e+06 464456 -1.92646e+06 -86204.2
173 3 O -1.35735 31.7701 51.768 -1.2 -9.03539 -2.12598e+06 -2.5092e+06 -4.29367e+06 279865 -848776 -998715
174 3 O -1.97695 32.3253 48.826 -1.2 -8.78434 -1.11065e+06 -3.4152e+06 -3.73288e+06 23014.8 -381213 -1.16365e+06
175 1 Mg 0.237665 30.8412 46.8168 1.2 -7.00799 2.05934e+06 -420364 1.1088e+06 1.12379e+06 1.58759e+06 -696624
176 3 O 0.656562 32.2608 48.3877 -1.2 -8.67815 -1.68452e+06 -1.48427e+06 -2.4164e+06 -298751 -310026 840762
177 1 Mg 1.55926 30.8046 54.5792 1.2 -8.35037 2.34898e+06 1.59612e+06 1.64499e+06 -150954 -125494 788476
178 2 Si 1.70811 33.4232 56.4876 2.4 -33.0544 8.30855e+06 7.29646e+06 1.06197e+07 83154.5 236763 1.16122e+06
179 3 O 1.55814 31.8364 56.5947 -1.2 -9.45608 -3.54769e+06 -683430 -2.96422e+06 1.71506e+06 -337625 -820444
180 3 O 1.74574 34.5067 52.7279 -1.2 -9.4921 -2.66221e+06 -2.72226e+06 -4.74994e+06 -456550 -304348 -911932
181 3 O 0.44936 34.0294 55.6926 -1.2 -9.08724 -1.00636e+06 -3.28462e+06 -3.79073e+06 -286716 -1.05405e+06 -327829
182 3 O 3.00209 34.1532 55.8725 -1.2 -9.41372 -2.11383e+06 -2.2379e+06 -3.26508e+06 1.37431e+06 8026.47 -984457
183 1 Mg 0.167046 33.1343 52.2045 1.2 -7.73613 -528537 -969873 4.71872e+06 -983502 1.79574e+06 616227
184 1 Mg 2.20727 32.8578 49.4516 1.2 -7.83921 2.23017e+06 493331 316212 113531 -161917 73176.6
185 2 Si 1.67943 35.1802 51.2429 2.4 -32.6937 7.26491e+06 5.23615e+06 1.04219e+07 554059 686456 214601
186 3 O 1.78736 36.747 51.303 -1.2 -9.94353 -2.92472e+06 -2.15161e+06 -3.77649e+06 712372 -1.07965e+06 609009
187 3 O 1.52841 34.1291 57.9582 -1.2 -9.1575 -2.86661e+06 -2.73502e+06 -4.84338e+06 368125 -943849 1.06407e+06
188 3 O 0.362533 34.5479 50.661 -1.2 -9.09041 -2.92611e+06 -2.65193e+06 -4.53283e+06 1.1058e+06 -850480 -117429
189 1 Mg -2.80215 33.1347 52.3062 1.2 -7.47642 -617275 -1.35711e+06 4.17037e+06 1.38228e+06 -1.95039e+06 485774
190 3 O 2.91593 34.533 50.466 -1.2 -9.47131 -2.73677e+06 -2.45514e+06 -2.38333e+06 -284696 895929 -284677
191 1 Mg -1.31082 33.1134 55.2038 1.2 -8.23096 2.48442e+06 1.84769e+06 1.15632e+06 305381 -397254 -1.15357e+06
192 2 Si -1.37876 31.1123 53.2962 2.4 -33.1016 7.75373e+06 5.58758e+06 1.21139e+07 993126 -1.38598e+06 -434954
193 3 O -1.48574 29.5532 53.2111 -1.2 -9.44945 -3.2707e+06 -1.5595e+06 -3.95561e+06 33858.7 619690 780727
194 3 O -0.842495 32.4028 46.4192 -1.2 -7.70536 -2.91765e+06 -2.11274e+06 -2.99903e+06 -605202 -1.50556e+06 903661
195 3 O -2.63399 31.7987 54.0468 -1.2 -9.19112 -1.00772e+06 -3.24234e+06 -2.88865e+06 -952999 239247 517737
196 3 O -0.0444847 31.7575 53.8686 -1.2 -9.23711 -2.41988e+06 -2.96316e+06 -4.17705e+06 973873 -1.07687e+06 -181321
197 1 Mg -2.69433 40.2613 57.4471 1.2 -7.50504 -1.10427e+06 -680771 4.00216e+06 -944136 -1.84092e+06 -1.17923e+06
198 1 Mg -1.17787 40.1435 49.8359 1.2 -8.36828 693085 2.32639e+06 1.89358e+06 -173173 137007 911692
199 2 Si -0.702692 37.6572 47.9231 2.4 -34.2937 8.50494e+06 7.10494e+06 9.64073e+06 483852 2.29751e+06 -199144
200 3 O -0.621782 39.2264 47.9868 -1.2 -8.73567 -2.52459e+06 -4.41057e+06 -2.8945e+06 461728 -1.9144e+06 -314984
201 3 O -1.25221 36.5242 51.7666 -1.2 -9.22658 -2.21686e+06 -1.82573e+06 -4.8546e+06 544059 1.16191e+06 -1.37442e+06
202 3 O -1.87295 37.0796 48.8243 -1.2 -8.84694 -993949 -3.64911e+06 -3.51343e+06 20551.5 -343375 -1.32623e+06
203 1 Mg 0.341084 35.5943 46.8152 1.2 -6.98079 2.02096e+06 -244960 930141 1.12292e+06 1.59138e+06 -694673
204 3 O 0.760681 37.0138 48.3864 -1.2 -8.73416 -1.61054e+06 -1.71167e+06 -2.16881e+06 -293752 -328499 720974
205 1 Mg 1.74052 35.4293 54.5756 1.2 -8.01369 2.67134e+06 1.74958e+06 1.11898e+06 -34387.8 -162987 609369
206 2 Si 1.79896 38.1363 56.4713 2.4 -32.24 7.38403e+06 5.71508e+06 1.10041e+07 726051 301622 -38781.4
207 3 O 1.70875 36.5777 56.634 -1.2 -9.85028 -3.36058e+06 -2.32868e+06 -4.14929e+06 764116 -587540 283991
208 3 O 1.85132 39.2606 52.7264 -1.2 -9.63806 -2.0285e+06 -2.8733e+06 -4.20494e+06 198789 -316362 -997670
209 3 O 0.547534 38.8111 55.7124 -1.2 -9.57116 -1.36949e+06 -2.70208e+06 -2.20911e+06 -944957 184038 111855
210 3 O 3.07006 38.8012 55.7959 -1.2 -9.65137 -2.26717e+06 -2.38868e+06 -3.14233e+06 886059 -182173 110595
211 1 Mg 0.272384 37.8883 52.2029 1.2 -7.38687 -476721 -834909 4.34227e+06 -707634 1.8504e+06 291890
212 1 Mg 2.31122 37.6122 49.4501 1.2 -7.77648 2.07821e+06 722370 149384 118198 -104220 242515
213 2 Si 1.78573 39.934 51.2414 2.4 -32.6564 7.11276e+06 5.58881e+06 1.01457e+07 298837 822612 977580
214 3 O 1.89428 41.5006 51.3014 -1.2 -9.86798 -3.0187e+06 -2.03754e+06 -3.82334e+06 850202 -522297 202413
215 3 O 1.79255 38.8612 57.9792 -1.2 -9.61037 -2.00881e+06 -2.42954e+06 -3.7537e+06 -19049.5 74496.6 1.66939e+06
216 3 O 0.469216 39.3015 50.6588 -1.2 -9.14676 -3.03553e+06 -2.79487e+06 -4.34102e+06 1.07084e+06 -829172 -380845
217 1 Mg -2.69668 37.8889 52.3043 1.2 -7.48501 -1.02387e+06 -922211 3.29737e+06 1.53326e+06 -1.93866e+06 851390
218 3 O 3.0225 39.2866 50.4651 -1.2 -9.48671 -2.59159e+06 -2.65298e+06 -2.28273e+06 -282408 854783 -552621
219 1 Mg -1.21446 37.8669 55.0173 1.2 -7.96775 2.08603e+06 1.55812e+06 1.12663e+06 -156993 346621 -1.119e+06
220 2 Si -1.29805 35.7707 53.2463 2.4 -32.5798 6.80136e+06 5.84791e+06 1.18534e+07 -383521 976562 -1.47199e+06
221 3 O -1.33611 34.1967 53.1971 -1.2 -9.80145 -3.31654e+06 -1.98819e+06 -4.02044e+06 186061 -344392 447.24
222 3 O -0.738054 37.1566 46.4176 -1.2 -7.7259 -2.88808e+06 -2.26536e+06 -2.84652e+06 -605103 -1.50239e+06 804579
223 3 O -2.6073 36.4965 53.7871 -1.2 -9.38436 -2.57994e+06 -3.14283e+06 -4.9055e+06 -792810 294160 267884
224 3 O -0.0807576 36.4062 54.0616 -1.2 -9.39221 -1.22852e+06 -3.14887e+06 -3.02321e+06 781767 -381099 506674
225 1 Mg -2.70005 44.9709 57.4949 1.2 -7.58072 -1.38082e+06 -1.2041e+06 3.7209e+06 -1.7243e+06 -2.24884e+06 -791812
226 1 Mg -1.06993 44.8968 49.8343 1.2 -8.45259 825224 2.21548e+06 2.0094e+06 -130485 387375 976023
227 2 Si -0.596166 42.4103 47.9215 2.4 -34.377 8.62658e+06 6.93363e+06 9.82982e+06 503714 2.31849e+06 223787
228 3 O -0.51472 43.9796 47.9853 -1.2 -8.67663 -2.59951e+06 -4.28156e+06 -3.03802e+06 453254 -1.94136e+06 -463057
229 3 O -1.14475 41.2777 51.7649 -1.2 -9.15015 -2.33831e+06 -1.99437e+06 -5.45154e+06 208789 561594 -1.94267e+06
230 3 O -1.76671 41.8331 48.8226 -1.2 -8.80666 -1.06679e+06 -3.56875e+06 -3.58186e+06 -1268.1 -347630 -1.56664e+06
231 1 Mg 0.447076 40.3473 46.8135 1.2 -6.98846 2.03537e+06 -218717 901592 1.12336e+06 1.59206e+06 -486755
232 3 O 0.866985 41.7666 48.385 -1.2 -8.69769 -1.65733e+06 -1.65163e+06 -2.23495e+06 -283169 -326688 468429
233 1 Mg 1.82191 40.1752 54.6252 1.2 -7.92795 2.54031e+06 2.40796e+06 902679 352888 -169127 786905
234 2 Si 1.80303 42.9892 56.4839 2.4 -32.3591 7.93657e+06 5.04099e+06 9.28445e+06 164182 -22402.9 371001
235 3 O 1.87441 41.4051 56.5264 -1.2 -9.84899 -3.27e+06 -726585 -3.79486e+06 -2066.65 22726.4 168355
236 3 O 1.95891 44.014 52.7248 -1.2 -9.44679 -2.7668e+06 -2.73506e+06 -4.01335e+06 763462 -393451 -1.07461e+06
237 3 O 0.509992 43.5996 55.7364 -1.2 -9.59058 -2.2001e+06 -3.8022e+06 -4.12743e+06 -1.00206e+06 -658412 -514279
238 3 O 3.12468 43.6441 55.831 -1.2 -9.33005 -837945 -3.72049e+06 -3.57113e+06 565016 313299 -574337
239 1 Mg 0.379928 42.6418 52.2013 1.2 -7.72962 -220844 -962627 4.39834e+06 -1.11205e+06 1.78845e+06 784416
240 1 Mg 2.41752 42.366 49.4484 1.2 -7.8363 2.20703e+06 584179 260724 80799.1 -137835 464008
241 2 Si 1.89374 44.6874 51.2398 2.4 -32.8912 7.56819e+06 5.36195e+06 1.0305e+07 -65737.1 -67960.4 993579
242 3 O 2.00266 46.254 51.2996 -1.2 -9.82484 -3.09254e+06 -2.08501e+06 -3.59294e+06 579063 -225477 53871.5
243 3 O 1.75359 43.6439 57.8888 -1.2 -9.6973 -3.60277e+06 -3.41555e+06 -7.09445e+06 200037 672748 125663
244 3 O 0.577464 44.0549 50.6567 -1.2 -8.96415 -2.95039e+06 -2.71702e+06 -4.77593e+06 1.14041e+06 -723290 -662066
245 1 Mg -2.58906 42.6425 52.3022 1.2 -7.6493 -688258 -1.39181e+06 3.89999e+06 1.219e+06 -1.89843e+06 458972
246 3 O 3.13067 44.0398 50.464 -1.2 -9.43408 -3.00291e+06 -2.40809e+06 -2.26155e+06 -195988 908412 -464190
247 1 Mg -1.09014 42.7044 55.0886 1.2 -8.24669 1.64628e+06 1.54692e+06 1.21826e+06 -423237 -896085 -764009
248 2 Si -1.07454 40.5468 53.234 2.4 -32.4999 7.37121e+06 7.00788e+06 1.16322e+07 -30249.9 43933.3 247046
249 3 O -1.16208 38.96 53.1735 -1.2 -10.1968 -2.4569e+06 -1.46872e+06 -4.10523e+06 456040 111776 195364
250 3 O -0.631421 41.9099 46.4159 -1.2 -7.70096 -2.92802e+06 -2.22097e+06 -2.88957e+06 -606771 -1.50442e+06 619664
251 3 O -2.3423 41.3004 53.9264 -1.2 -9.05594 -1.49966e+06 -1.57478e+06 -4.17231e+06 -1.20319e+06 488214 374260
252 3 O 0.196453 41.2889 53.8891 -1.2 -9.34196 -2.62813e+06 -1.64276e+06 -3.20511e+06 1.36308e+06 -243350 297945
253 1 Mg -2.51888 49.6876 57.3057 1.2 -7.55544 48550.5 -1.25667e+06 4.48678e+06 -1.75767e+06 -1.33134e+06 -650307
254 1 Mg -0.961069 49.6502 49.8327 1.2 -8.53922 996596 1.93537e+06 2.26002e+06 -183937 294665 952258
255 2 Si -0.488083 47.1636 47.9198 2.4 -34.5116 8.8123e+06 6.63598e+06 1.01569e+07 480228 2.35544e+06 381904
256 3 O -0.40607 48.7329 47.9837 -1.2 -8.61086 -2.70435e+06 -4.09884e+06 -3.21516e+06 464008 -1.94132e+06 -492529
257 3 O -1.0361 46.031 51.7632 -1.2 -9.07464 -2.19777e+06 -2.34142e+06 -5.74596e+06 792152 -968037 -1.51094e+06
258 3 O -1.65866 46.5866 48.821 -1.2 -8.73969 -1.2219e+06 -3.43926e+06 -3.65666e+06 22489.9 -409296 -1.70016e+06
259 1 Mg 0.554124 45.1001 46.8117 1.2 -7.04027 2.10589e+06 -341264 1.0374e+06 1.12256e+06 1.58992e+06 -373383
260 3 O 0.974961 46.5195 48.3832 -1.2 -8.62341 -1.73139e+06 -1.51598e+06 -2.40875e+06 -291349 -296341 382001
261 1 Mg 1.82483 44.9307 54.6231 1.2 -7.96297 2.93837e+06 1.82786e+06 543581 63988.7 293918 1.1942e+06
262 2 Si 1.97282 47.6468 56.3424 2.4 -32.9452 6.80894e+06 5.26418e+06 1.16371e+07 -1.11139e+06 348367 136252
263 3 O 1.86103 46.09 56.4991 -1.2 -9.8834 -3.44115e+06 -2.08026e+06 -4.58448e+06 601991 184333 -294621
264 3 O 2.0677 48.7672 52.7232 -1.2 -9.1678 -3.35721e+06 -2.50005e+06 -5.18439e+06 133035 -581318 -1.46459e+06
265 3 O 0.667197 48.3745 55.6601 -1.2 -8.95962 -1.33305e+06 -1.92163e+06 -4.14355e+06 -897085 -491661 -1.05013e+06
266 3 O 3.18684 48.2733 55.601 -1.2 -9.26756 -4.03631e+06 -3.19567e+06 -4.57665e+06 1.06803e+06 1.19605e+06 -693946
267 1 Mg 0.488584 47.395 52.1996 1.2 -7.93727 -546835 -549524 4.65632e+06 -681373 1.70019e+06 739310
268 1 Mg 2.52544 47.1195 49.4466 1.2 -7.90802 2.38651e+06 448755 335851 134259 -208311 637062
269 2 Si 2.00256 49.4407 51.2382 2.4 -33.1937 8.04668e+06 4.72566e+06 1.10061e+07 272076 277744 1.26702e+06
270 3 O 2.11156 51.0073 51.2982 -1.2 -9.66407 -3.29756e+06 -1.80984e+06 -4.2539e+06 690896 -238847 134569
271 3 O 1.98763 48.3807 57.7859 -1.2 -9.29131 -2.77448e+06 -3.07521e+06 -5.35403e+06 221849 -570449 1.1411e+06
272 3 O 0.686344 48.8082 50.655 -1.2 -8.84965 -3.21406e+06 -2.43988e+06 -5.13058e+06 1.02763e+06 -648541 -630924
273 1 Mg -2.48039 47.3957 52.3005 1.2 -7.60694 124199 -1.64609e+06 4.01023e+06 1.58113e+06 -1.86869e+06 1.27367e+06
274 3 O 3.23944 48.7932 50.4623 -1.2 -9.31403 -3.15607e+06 -2.09499e+06 -2.57408e+06 -224230 881710 -748081