ITEM: TIMESTEP
41200
ITEM: NUMBER OF ATOMS
10500
ITEM: BOX BOUNDS xy xz yz pp pp pp
0.0000000000000000e+00 8.9687999999999999e+00 2.9895999999999998e+00
0.0000000000000000e+00 1.1872499999999999e+02 0.0000000000000000e+00
0.0000000000000000e+00 2.5297749999999999e+02 0.0000000000000000e+00
ITEM: ATOMS id type element xu yu zu q c_pe c_s[1] c_s[2] c_s[3] c_s[4] c_s[5] c_s[6]
1 1 Mg -3.4774 7.06955 57.5368 1.2 -7.71034 348431 -1.74494e+06 4.54588e+06 -1.54583e+06 -1.33949e+06 -1.05827e+06
2 1 Mg -1.82655 6.90154 50.0912 1.2 -8.63239 748177 881275 1.41978e+06 -107771 -298738 1.39704e+06
3 2 Si -0.257935 3.96038 48.0876 2.4 -36.5747 1.08189e+07 8.66957e+06 1.09653e+07 796596 1.97901e+06 2.28734e+06
4 3 O -0.335812 5.46814 47.6264 -1.2 -7.50994 -3.52582e+06 -2.34233e+06 -2.65027e+06 144823 -971113 -786062
5 3 O -2.03793 3.43377 51.8941 -1.2 -8.67823 -3.5956e+06 -3.08351e+06 -7.77737e+06 -416067 225367 -1.46554e+06
6 3 O -1.54015 3.53929 48.9521 -1.2 -8.04525 -1.70638e+06 -1.61388e+06 -4.33784e+06 54018 -792581 -527928
7 1 Mg 1.82954 2.54582 47.1376 1.2 -8.19132 2.92895e+06 -474295 720148 1.15008e+06 821019 875979
8 3 O 1.22989 3.66364 48.7877 -1.2 -7.7573 -2.0613e+06 -2.3582e+06 -3.70528e+06 -500833 -676363 -1.25556e+06
9 1 Mg 0.982996 2.28744 54.5496 1.2 -8.6622 3.38606e+06 1.39378e+06 1.11355e+06 -584054 96881.3 378061
10 2 Si 1.11251 5.01743 56.3277 2.4 -33.7506 8.67111e+06 3.06744e+06 1.25666e+07 689415 405967 -897464
11 3 O 0.923211 3.49288 56.5515 -1.2 -9.2779 -3.67013e+06 -1.92854e+06 -5.96259e+06 405990 -247453 -407707
12 3 O 1.10813 6.07342 52.8172 -1.2 -8.35067 -4.88637e+06 -3.64394e+06 -4.81053e+06 667432 101369 -1.48879e+06
13 3 O -0.147962 5.67584 55.6673 -1.2 -8.62578 -2.99904e+06 -3.83508e+06 -4.96632e+06 -518411 -812194 914757
14 3 O 2.37503 5.70179 55.6863 -1.2 -8.79499 -4.51134e+06 -2.7175e+06 -5.50562e+06 1.26786e+06 468084 599182
15 1 Mg -0.459401 4.67631 52.2426 1.2 -8.52759 216250 -1.23473e+06 5.43754e+06 -1.10049e+06 1.22592e+06 598640
16 1 Mg 2.79456 3.9971 49.9987 1.2 -8.65484 4.15828e+06 -160864 1.63214e+06 -489242 829388 -478066
17 2 Si 1.16169 6.59457 51.2556 2.4 -34.6371 8.95376e+06 5.74206e+06 1.22593e+07 96203 653444 2.79778e+06
18 3 O 1.28989 8.18905 51.2909 -1.2 -9.01376 -3.82157e+06 -1.42314e+06 -3.95749e+06 295673 -868330 1.07145e+06
19 3 O 1.14305 5.66707 57.8702 -1.2 -9.05105 -3.69771e+06 -2.47889e+06 -4.40464e+06 -530309 358223 1.248e+06
20 3 O -0.184847 6.06029 50.6845 -1.2 -8.31889 -3.71318e+06 -2.92437e+06 -5.19056e+06 1.41084e+06 -417854 -1.47103e+06
21 1 Mg -3.49704 4.67769 52.6661 1.2 -8.08813 -52205 -3.4436e+06 2.41119e+06 2.04982e+06 -1.62121e+06 992615
22 3 O 2.48581 5.93312 50.6539 -1.2 -8.79487 -3.81725e+06 -1.20491e+06 -3.76842e+06 -1.5612e+06 -764154 -965487
23 1 Mg -1.89241 4.63907 55.2249 1.2 -8.75312 2.53849e+06 1.18249e+06 111816 -258117 -265025 -601866
24 2 Si -2.11164 2.67298 53.2475 2.4 -34.204 9.06408e+06 2.97075e+06 1.18133e+07 2.0393e+06 89946.8 -952877
25 3 O -2.04758 1.15364 53.284 -1.2 -8.96475 -4.59127e+06 -2.65107e+06 -4.79727e+06 -714093 680606 689823
26 3 O -0.0467762 2.97103 46.8385 -1.2 -6.8031 -3.28931e+06 -2.16155e+06 -2.87272e+06 -989107 -2.00578e+06 -969733
27 3 O -3.2822 3.31096 54.0746 -1.2 -8.81744 -4.73261e+06 -4.54621e+06 -5.00557e+06 -162436 128872 1.50104e+06
28 3 O -0.729315 3.30395 54.0249 -1.2 -8.16523 -1.81013e+06 -2.74997e+06 -3.79868e+06 698297 197471 631293
29 1 Mg -3.2621 11.6125 57.1485 1.2 -7.55594 233718 -727525 4.29544e+06 -926803 -1.74691e+06 -971613
30 1 Mg -1.75014 11.5838 49.8362 1.2 -8.69489 1.33972e+06 2.34006e+06 1.95756e+06 -300122 212972 826337
31 2 Si -1.18003 9.02138 47.9309 2.4 -35.0632 9.48063e+06 7.12404e+06 9.78172e+06 235994 2.60422e+06 266870
32 3 O -1.23224 10.5991 47.9811 -1.2 -8.41182 -3.00721e+06 -3.66968e+06 -2.67556e+06 652232 -1.91927e+06 84307
33 3 O -1.79016 8.01447 51.8693 -1.2 -8.30757 -4.6617e+06 -2.82547e+06 -6.48835e+06 47698.2 524642 -1.64595e+06
34 3 O -2.30986 8.37215 48.8528 -1.2 -8.60977 -1.59815e+06 -2.46126e+06 -3.42088e+06 -330454 -589620 -782229
35 1 Mg 0.154883 7.08234 46.8007 1.2 -7.81627 2.3629e+06 -246098 889074 944211 1.72707e+06 -848603
36 3 O 0.325447 8.50934 48.3809 -1.2 -8.27759 -1.97825e+06 -1.91004e+06 -2.77529e+06 -37967.9 -839755 400692
37 1 Mg 1.2563 7.07325 54.6531 1.2 -8.9034 3.29271e+06 -662996 -378616 97209.8 269038 606395
38 2 Si 1.13809 9.58394 56.3237 2.4 -33.4558 7.79312e+06 2.64319e+06 1.31636e+07 -682077 -229909 130345
39 3 O 1.09623 8.1002 56.3886 -1.2 -9.61906 -4.68441e+06 -5.48222e+06 -6.02468e+06 -110670 222963 -1.58186e+06
40 3 O 1.28624 10.7248 52.7351 -1.2 -8.89158 -3.36086e+06 -2.67457e+06 -4.97474e+06 256195 -729813 -1.13501e+06
41 3 O -0.0906499 10.4819 55.8109 -1.2 -8.62957 -3.15546e+06 -2.20109e+06 -4.65684e+06 -748738 -193575 -146912
42 3 O 2.33057 10.3361 55.5158 -1.2 -8.90584 -6.09135e+06 -3.44206e+06 -5.23137e+06 2.49733e+06 851803 -58608.3
43 1 Mg -0.262694 9.34741 52.2523 1.2 -8.2613 455904 -940796 4.4063e+06 -1.08201e+06 1.67638e+06 592822
44 1 Mg 1.87648 9.01537 49.4629 1.2 -8.25406 2.56726e+06 499580 376265 236486 -248092 150321
45 2 Si 1.21415 11.3799 51.2378 2.4 -33.5744 8.28017e+06 5.95825e+06 1.05179e+07 216359 717418 731417
46 3 O 1.31634 12.9512 51.3023 -1.2 -9.52924 -3.54186e+06 -1.94977e+06 -3.5512e+06 797241 -196051 500006
47 3 O 1.31319 10.2332 57.8452 -1.2 -8.92171 -2.89722e+06 -1.34579e+06 -4.46211e+06 -1.3061e+06 -522010 930737
48 3 O -0.115718 10.7564 50.681 -1.2 -8.67513 -3.51785e+06 -2.78261e+06 -4.36338e+06 1.05138e+06 -695654 -341964
49 1 Mg -3.26386 9.35564 52.3622 1.2 -8.19868 295085 -909012 3.13517e+06 1.45566e+06 -1.8299e+06 1.07949e+06
50 3 O 2.45216 10.7265 50.4558 -1.2 -9.10864 -3.14904e+06 -2.2326e+06 -2.11554e+06 -716966 611440 71897.4
51 1 Mg -2.02009 9.47474 55.1509 1.2 -8.3384 1.39234e+06 1.09435e+06 1.11161e+06 1.26203e+06 1.21324e+06 -932426
52 2 Si -1.78545 7.31691 53.3576 2.4 -34.6579 1.05206e+07 4.76053e+06 1.08132e+07 470106 731225 -840846
53 3 O -2.00291 5.76232 53.2521 -1.2 -8.74085 -5.36871e+06 -3.04946e+06 -5.51203e+06 732775 -325315 -178157
54 3 O -1.19417 8.46968 46.4488 -1.2 -7.33664 -3.21282e+06 -1.96139e+06 -3.02385e+06 -541793 -1.74153e+06 752676
55 3 O -3.07815 8.02296 53.9207 -1.2 -8.52032 -4.39877e+06 -4.40041e+06 -6.12077e+06 -637267 1.31782e+06 75813.1
56 3 O -0.482644 7.95794 53.9579 -1.2 -8.35931 -3.30197e+06 -2.94143e+06 -4.81979e+06 1.76327e+06 -1.09941e+06 372074
57 1 Mg -3.20609 16.3962 57.3531 1.2 -8.18269 -619612 -1.42556e+06 4.46679e+06 -777268 -1.48207e+06 13707
58 1 Mg -1.6714 16.3544 49.8412 1.2 -8.71495 1.2472e+06 2.02938e+06 2.26587e+06 -237468 243747 576701
59 2 Si -1.18567 13.8526 47.9314 2.4 -34.8918 9.46123e+06 6.36931e+06 1.03071e+07 502604 2.26597e+06 -185555
60 3 O -1.09664 15.4205 47.9915 -1.2 -8.46483 -2.866e+06 -3.91968e+06 -3.1709e+06 424113 -1.93737e+06 -177625
61 3 O -1.73493 12.7491 51.7772 -1.2 -8.86217 -2.81883e+06 -2.47076e+06 -6.02988e+06 -268844 -46254 -1.17266e+06
62 3 O -2.36115 13.2717 48.8238 -1.2 -8.51715 -1.61404e+06 -3.20091e+06 -3.71444e+06 -128399 -369646 -1.36731e+06
63 1 Mg -0.159928 11.7639 46.8533 1.2 -7.27899 2.5274e+06 -496412 1.14254e+06 1.12649e+06 1.57642e+06 -843004
64 3 O 0.2623 13.1866 48.413 -1.2 -8.42481 -2.09725e+06 -1.2507e+06 -2.52554e+06 -185576 -292369 699598
65 1 Mg 1.28792 11.853 54.5553 1.2 -8.66719 2.2314e+06 1.39437e+06 520810 32468.8 -973898 1.15816e+06
66 2 Si 1.13132 14.4569 56.446 2.4 -33.204 7.19537e+06 5.37312e+06 1.08319e+07 772353 1.5194e+06 -162480
67 3 O 1.21526 12.8835 56.5633 -1.2 -9.56963 -3.82674e+06 -2.29011e+06 -4.62778e+06 -1.18191e+06 -933266 -525145
68 3 O 1.36565 15.4813 52.729 -1.2 -8.87589 -3.93864e+06 -2.2759e+06 -5.04922e+06 -747241 -245012 -1.5972e+06
69 3 O 0.0237768 15.1879 55.6861 -1.2 -8.71994 -5.02332e+06 -2.96039e+06 -3.03141e+06 -230594 -326511 -63323.8
70 3 O 2.44169 15.105 55.7047 -1.2 -8.85192 -4.69427e+06 -2.88794e+06 -4.04572e+06 1.45424e+06 -273876 -108843
71 1 Mg -0.206989 14.1049 52.2121 1.2 -8.26234 -674210 -1.4968e+06 4.3257e+06 -715451 2.14175e+06 634530
72 1 Mg 1.82591 13.8102 49.4556 1.2 -8.14483 2.74053e+06 528011 329737 125862 -142214 402302
73 2 Si 1.29285 16.1518 51.2434 2.4 -33.5925 8.80737e+06 4.66322e+06 1.09954e+07 603126 318189 662747
74 3 O 1.39496 17.7199 51.3047 -1.2 -9.59588 -3.22467e+06 -2.01371e+06 -3.91048e+06 756875 -478029 580576
75 3 O 1.30715 15.1104 57.9179 -1.2 -9.33735 -2.95827e+06 -3.89662e+06 -5.43017e+06 402543 548443 1.00515e+06
76 3 O -0.0269106 15.5178 50.6688 -1.2 -8.58274 -3.76028e+06 -2.23474e+06 -5.48056e+06 920333 -363102 -182248
77 1 Mg -3.18391 14.1057 52.3125 1.2 -7.80378 854500 -348077 3.51309e+06 1.40671e+06 -1.67696e+06 624000
78 3 O 2.52432 15.503 50.4579 -1.2 -9.08671 -3.4943e+06 -2.04642e+06 -2.41467e+06 -284516 782692 -425927
79 1 Mg -1.94304 14.1318 54.9895 1.2 -8.48097 2.94222e+06 1.60079e+06 19283.4 326474 -207491 -340258
80 2 Si -1.62118 11.9599 53.1696 2.4 -33.7341 8.96686e+06 5.01834e+06 1.13825e+07 895698 569802 198815
81 3 O -1.72366 10.4448 53.1612 -1.2 -9.3628 -4.49374e+06 -5.16119e+06 -4.12033e+06 1.03388e+06 373625 -1.00311e+06
82 3 O -1.21337 13.3381 46.4311 -1.2 -7.44372 -3.40329e+06 -1.8739e+06 -3.16679e+06 -631778 -1.45404e+06 900798
83 3 O -2.87842 12.6197 53.9927 -1.2 -8.7789 -3.63739e+06 -3.12193e+06 -3.47976e+06 -1.76406e+06 -82911.8 -47085.9
84 3 O -0.347363 12.7205 53.8612 -1.2 -8.58651 -3.0256e+06 -3.23479e+06 -3.84574e+06 1.8796e+06 -92108.2 1.13114e+06
85 1 Mg -3.12293 21.3838 57.6141 1.2 -7.63071 -2.4229e+06 -2.07896e+06 4.1752e+06 -1.89565e+06 -1.66806e+06 -741508
86 1 Mg -1.5831 21.1217 49.8405 1.2 -8.65483 1.12073e+06 2.10939e+06 2.16445e+06 -232099 202381 853020
87 2 Si -1.09384 18.6291 47.9287 2.4 -34.8229 9.34625e+06 6.64034e+06 1.00999e+07 489120 2.33779e+06 -145857
88 3 O -1.02071 20.1985 47.9911 -1.2 -8.48685 -2.89737e+06 -4.11829e+06 -3.09437e+06 461325 -1.93196e+06 -314601
89 3 O -1.65002 17.5002 51.771 -1.2 -9.10134 -2.76299e+06 -2.54362e+06 -5.20685e+06 241734 11661.9 -342493
90 3 O -2.26174 18.0434 48.8281 -1.2 -8.57163 -1.49796e+06 -3.35539e+06 -3.68912e+06 -18431.4 -359009 -1.28353e+06
91 1 Mg -0.0440435 16.5651 46.8269 1.2 -7.24878 2.41217e+06 -463584 1.16072e+06 1.13522e+06 1.58017e+06 -678980
92 3 O 0.37001 17.9877 48.3925 -1.2 -8.45576 -2.03601e+06 -1.45924e+06 -2.4404e+06 -287566 -338462 693666
93 1 Mg 1.38048 16.4953 54.5749 1.2 -8.75786 2.19944e+06 1.31205e+06 690775 -76244 152469 1.5764e+06
94 2 Si 1.37004 19.2215 56.6178 2.4 -33.4354 7.93413e+06 4.92144e+06 1.14335e+07 1.53502e+06 757022 -133393
95 3 O 1.33838 17.6475 56.7254 -1.2 -9.13546 -4.2359e+06 -1.37665e+06 -5.14695e+06 406660 -662001 700427
96 3 O 1.45147 20.239 52.7294 -1.2 -9.20689 -3.29791e+06 -2.48924e+06 -4.78638e+06 -787733 -455930 -1.13035e+06
97 3 O 0.129066 19.7714 55.9041 -1.2 -9.09277 -4.02532e+06 -3.10037e+06 -2.90518e+06 784152 -414375 1.02573e+06
98 3 O 2.65798 19.8017 55.7953 -1.2 -8.84711 -2.11646e+06 -2.58094e+06 -2.60462e+06 391714 -577510 -80853.2
99 1 Mg -0.126194 18.8651 52.2079 1.2 -7.91422 -335527 -845157 4.81668e+06 -1.40072e+06 1.83599e+06 822098
100 1 Mg 1.92402 18.5815 49.4545 1.2 -8.06848 2.5272e+06 556394 296794 116239 -165863 268889
101 2 Si 1.38106 20.9117 51.2443 2.4 -33.2609 8.41846e+06 5.11955e+06 1.03122e+07 659933 624504 594826
102 3 O 1.48527 22.4795 51.3054 -1.2 -9.66505 -3.21127e+06 -2.28873e+06 -3.4687e+06 775248 -928432 220927
103 3 O 1.51656 19.9595 58.0797 -1.2 -9.4805 -2.86712e+06 -1.91948e+06 -4.68009e+06 -63362.2 581315 420360
104 3 O 0.0615419 20.2804 50.6669 -1.2 -8.77759 -3.42323e+06 -2.46272e+06 -4.87235e+06 1.168e+06 -641536 -389658
105 1 Mg -3.09665 18.8643 52.3122 1.2 -7.63875 200334 -369075 4.24757e+06 1.9652e+06 -1.66016e+06 705778
106 3 O 2.61548 20.2646 50.4626 -1.2 -9.20967 -3.17793e+06 -2.32061e+06 -2.3146e+06 -413378 847970 -575610
107 1 Mg -1.61933 18.8311 55.2847 1.2 -8.42831 3.04847e+06 2.10199e+06 1.13925e+06 47682.7 -307562 -881708
108 2 Si -1.5849 16.8199 53.2142 2.4 -33.5198 9.2302e+06 5.76064e+06 1.11976e+07 -690163 250483 964013
109 3 O -1.55002 15.2033 53.0828 -1.2 -9.15416 -4.05403e+06 -1.29722e+06 -4.94954e+06 1.26177e+06 -16134.4 -275067
110 3 O -1.12868 18.1227 46.4249 -1.2 -7.47337 -3.30862e+06 -1.98563e+06 -3.09738e+06 -603903 -1.49764e+06 806106
111 3 O -2.94799 17.3473 53.9382 -1.2 -8.89984 -2.22272e+06 -2.54468e+06 -2.99246e+06 -1.26726e+06 64460.5 -257567
112 3 O -0.331366 17.4755 53.9219 -1.2 -8.91679 -1.94947e+06 -3.60014e+06 -2.92055e+06 697741 -612178 186907
113 1 Mg -2.89882 26.1038 57.4475 1.2 -7.75778 -835265 -1.02527e+06 5.50738e+06 -1.27712e+06 -686017 -217333
114 1 Mg -1.48778 25.88 49.8402 1.2 -8.74853 1.31176e+06 1.74725e+06 2.47421e+06 -193604 237895 1.15758e+06
115 2 Si -1.00491 23.3922 47.9274 2.4 -34.8366 9.36872e+06 6.49246e+06 1.02546e+07 498281 2.31895e+06 365301
116 3 O -0.927602 24.9615 47.9909 -1.2 -8.45549 -2.96117e+06 -3.94132e+06 -3.32949e+06 456415 -1.93003e+06 -540456
117 3 O -1.55795 22.2588 51.7696 -1.2 -9.10496 -2.21699e+06 -2.53485e+06 -3.79231e+06 305054 1.21653e+06 -624084
118 3 O -2.17411 22.8111 48.8277 -1.2 -8.56459 -1.47494e+06 -3.40996e+06 -3.71687e+06 4146.12 -346810 -1.60607e+06
119 1 Mg 0.0423997 21.3296 46.8225 1.2 -7.22386 2.39991e+06 -453108 1.13573e+06 1.12629e+06 1.58925e+06 -502298
120 3 O 0.458537 22.7495 48.3911 -1.2 -8.45961 -2.04849e+06 -1.47159e+06 -2.42675e+06 -294175 -335365 415469
121 1 Mg 1.57095 21.1873 54.5337 1.2 -8.39789 2.10251e+06 2.26235e+06 -66359.5 -623833 799316 723338
122 2 Si 1.59909 23.9479 56.3872 2.4 -33.0227 5.51259e+06 5.95593e+06 9.7425e+06 -1.29183e+06 1.1051e+06 1.05047e+06
123 3 O 1.64139 22.4313 56.4956 -1.2 -9.78054 -2.98523e+06 -4.33788e+06 -3.88441e+06 366997 -609524 359691
124 3 O 1.54441 24.9963 52.7297 -1.2 -8.81713 -3.37663e+06 -2.13438e+06 -4.6915e+06 -118554 -894167 -1.4037e+06
125 3 O 0.241767 24.701 55.7085 -1.2 -9.00302 -2.86507e+06 -2.33424e+06 -3.50085e+06 -1.42852e+06 -729418 -1.09526e+06
126 3 O 2.73665 24.6032 55.6096 -1.2 -8.80167 -3.43646e+06 -4.03162e+06 -4.90105e+06 -289800 1.67669e+06 772056
127 1 Mg -0.0335968 23.6229 52.2067 1.2 -7.8225 -17169.7 -582840 4.41838e+06 -1.03563e+06 1.99842e+06 1.16516e+06
128 1 Mg 2.01073 23.3445 49.4541 1.2 -8.08629 2.55509e+06 516487 344688 96762.9 -135220 626492
129 2 Si 1.47594 25.6699 51.2449 2.4 -33.7106 8.81509e+06 4.43197e+06 1.13292e+07 305975 593230 1.62025e+06
130 3 O 1.58172 27.2371 51.3054 -1.2 -9.41961 -3.60215e+06 -1.74159e+06 -4.17238e+06 703225 -371538 -7968.51
131 3 O 1.58565 24.708 57.7973 -1.2 -9.59826 -1.69994e+06 -2.45491e+06 -6.46675e+06 351113 -702360 913650
132 3 O 0.157925 25.0378 50.6651 -1.2 -8.64523 -3.67e+06 -2.2756e+06 -5.16802e+06 1.13434e+06 -670148 -944332
133 1 Mg -3.00341 23.6231 52.3098 1.2 -7.77985 -63156.6 -142604 4.02011e+06 1.74412e+06 -1.88567e+06 1.45597e+06
134 3 O 2.71149 25.0232 50.4656 -1.2 -9.10043 -3.33811e+06 -2.10225e+06 -2.59889e+06 -330516 920932 -995210
135 1 Mg -1.44555 23.6393 55.2197 1.2 -8.06881 2.6832e+06 2.54552e+06 368036 -120517 -268502 -1.24731e+06
136 2 Si -1.53719 21.5882 53.2729 2.4 -33.3304 7.67065e+06 4.96886e+06 1.12043e+07 -343922 1.10299e+06 -459919
137 3 O -1.50385 20.0389 53.2199 -1.2 -9.33106 -3.54792e+06 -1.95488e+06 -4.08925e+06 1.16427e+06 -136220 244104
138 3 O -1.03938 22.8897 46.4223 -1.2 -7.48392 -3.27901e+06 -1.94603e+06 -3.15015e+06 -606474 -1.50145e+06 621093
139 3 O -2.87445 22.1516 53.8678 -1.2 -8.9859 -3.6509e+06 -4.16847e+06 -4.36091e+06 -325705 1.03456e+06 -313116
140 3 O -0.307551 22.2265 54.1141 -1.2 -9.1532 -1.16653e+06 -3.77401e+06 -393567 -197330 3520.07 203429
141 1 Mg -2.71257 30.7957 57.4417 1.2 -7.97267 -856527 -2.19302e+06 5.33451e+06 -872785 -1.73691e+06 -31450.2
142 1 Mg -1.38776 30.6357 49.8391 1.2 -8.57624 1.22804e+06 1.59057e+06 2.43166e+06 -200028 125060 708614
143 2 Si -0.907929 28.1491 47.9262 2.4 -34.8259 9.37617e+06 5.86799e+06 1.08588e+07 487665 2.32586e+06 135517
144 3 O -0.829229 29.7184 47.99 -1.2 -8.51374 -2.90239e+06 -3.76607e+06 -3.49708e+06 457678 -1.93e+06 -289581
145 3 O -1.45946 27.0152 51.769 -1.2 -8.74558 -3.10244e+06 -2.1025e+06 -5.28923e+06 414879 -324633 -1.24614e+06
146 3 O -2.07744 27.5697 48.8273 -1.2 -8.53145 -1.53787e+06 -3.01878e+06 -4.10144e+06 26071.2 -345293 -1.61716e+06
147 1 Mg 0.137907 26.087 46.819 1.2 -7.22709 2.40839e+06 -691688 1.37858e+06 1.12584e+06 1.59271e+06 -418746
148 3 O 0.55579 27.5065 48.3893 -1.2 -8.4346 -2.07579e+06 -1.11048e+06 -2.79151e+06 -303291 -337723 438730
149 1 Mg 1.32137 26.0402 54.6542 1.2 -8.77437 2.46254e+06 1.18336e+06 664480 571314 -852354 2.22697e+06
150 2 Si 1.57866 28.6955 56.5543 2.4 -34.0215 6.99786e+06 3.42159e+06 1.17697e+07 348828 -20098 1.79975e+06
151 3 O 1.43307 27.1639 56.5635 -1.2 -9.13854 -3.11694e+06 -3.9229e+06 -4.39461e+06 403961 134610 495963
152 3 O 1.6432 29.7522 52.7291 -1.2 -8.73241 -3.99356e+06 -2.64762e+06 -4.47736e+06 438810 -301513 -1.87007e+06
153 3 O 0.307021 29.3409 55.9261 -1.2 -8.65793 -4.95615e+06 -3.91802e+06 -4.89152e+06 339176 -1.11293e+06 -401492
154 3 O 2.81693 29.2661 55.8164 -1.2 -8.60492 -4.05117e+06 -3.8953e+06 -3.87288e+06 515204 905815 -420316
155 1 Mg 0.0647462 28.3794 52.2059 1.2 -8.16389 727589 -1.12519e+06 4.61762e+06 -1.29301e+06 1.68841e+06 1.61406e+06
156 1 Mg 2.10696 28.1021 49.4531 1.2 -8.12893 2.60835e+06 73072.6 811783 121683 -151110 567110
157 2 Si 1.57592 30.4257 51.2442 2.4 -33.5811 7.97597e+06 4.17426e+06 1.2234e+07 315825 678600 1.30874e+06
158 3 O 1.68288 31.9926 51.3043 -1.2 -9.56922 -2.82303e+06 -1.80671e+06 -4.87331e+06 666398 -321568 297863
159 3 O 1.56214 29.437 58.0313 -1.2 -8.86514 -3.32073e+06 -1.28507e+06 -6.14195e+06 754683 -1.1976e+06 1.03403e+06
160 3 O 0.258524 29.7935 50.6632 -1.2 -8.77644 -3.52265e+06 -1.90041e+06 -5.18711e+06 967236 -988743 -584120
161 1 Mg -2.90462 28.3797 52.308 1.2 -8.0781 181110 -835535 4.54776e+06 1.75118e+06 -1.71083e+06 1.35232e+06
162 3 O 2.81205 29.7787 50.4664 -1.2 -9.11982 -3.12538e+06 -1.75659e+06 -3.21383e+06 -213882 895651 -698175
163 1 Mg -1.32975 28.3846 55.1922 1.2 -8.6877 3.48067e+06 1.43613e+06 1.61243e+06 183245 -268797 -598742
164 2 Si -1.4449 26.3292 53.2474 2.4 -34.0306 9.89097e+06 4.37951e+06 1.06012e+07 447867 -1.29387e+06 816228
165 3 O -1.3919 24.8029 53.184 -1.2 -9.29243 -4.40001e+06 -2.88639e+06 -4.26372e+06 994580 614125 123847
166 3 O -0.943026 27.648 46.4208 -1.2 -7.50216 -3.25018e+06 -1.73239e+06 -3.37141e+06 -604431 -1.50555e+06 677002
167 3 O -2.70537 26.9414 53.9911 -1.2 -8.42281 -2.02592e+06 -3.64353e+06 -3.21951e+06 -551040 906674 -558208
168 3 O -0.130566 27.0597 53.8699 -1.2 -8.81314 -3.9542e+06 -3.09476e+06 -3.46475e+06 1.38151e+06 -1.12917e+06 -92919.6
169 1 Mg -2.65309 35.4656 57.3332 1.2 -7.50537 -667974 -1.95425e+06 5.36168e+06 -1.1648e+06 -1.39872e+06 -112079
170 1 Mg -1.28421 35.3899 49.8376 1.2 -8.38151 943375 1.73754e+06 2.25959e+06 -148570 176408 700099
171 2 Si -0.807101 32.9036 47.9247 2.4 -34.539 8.98608e+06 6.00495e+06 1.06556e+07 485982 2.3342e+06 -194198
172 3 O -0.727174 34.4729 47.9885 -1.2 -8.66341 -2.67904e+06 -3.87123e+06 -3.37994e+06 461063 -1.93789e+06 -200942
173 3 O -1.35735 31.7701 51.768 -1.2 -9.27819 -3.51184e+06 -3.06569e+06 -8.95321e+06 447677 106546 433542
174 3 O -1.97695 32.3253 48.826 -1.2 -8.70008 -1.30633e+06 -3.07206e+06 -3.99597e+06 15345.9 -270167 -1.41254e+06
175 1 Mg 0.237665 30.8412 46.8168 1.2 -7.14476 2.28404e+06 -743477 1.42631e+06 1.12619e+06 1.60489e+06 -622475
176 3 O 0.656562 32.2608 48.3877 -1.2 -8.57827 -1.83409e+06 -1.15679e+06 -2.74402e+06 -294280 -391273 654158
177 1 Mg 1.78235 30.6839 54.613 1.2 -8.96505 3.66585e+06 1.49924e+06 532419 -251740 401106 942174
178 2 Si 1.83361 33.2941 56.4611 2.4 -33.5279 9.52435e+06 3.29319e+06 1.22473e+07 347228 -240039 -867103
179 3 O 1.83001 31.7725 56.416 -1.2 -9.32519 -4.43751e+06 -4.11013e+06 -5.43184e+06 970081 408863 -586876
180 3 O 1.74574 34.5067 52.7279 -1.2 -8.81492 -3.40215e+06 -2.40633e+06 -5.20909e+06 700980 -590617 -1.02083e+06
181 3 O 0.480812 33.9913 55.828 -1.2 -8.51504 -2.05238e+06 -2.44886e+06 -2.6333e+06 -817699 943083 -450563
182 3 O 3.05483 34.1013 55.5997 -1.2 -8.5373 -2.67567e+06 -2.00839e+06 -2.5778e+06 1.33279e+06 -507023 -1.41099e+06
183 1 Mg 0.167046 33.1343 52.2045 1.2 -7.73397 245506 -1.53829e+06 4.88191e+06 -1.58649e+06 2.21011e+06 1.05822e+06
184 1 Mg 2.20727 32.8578 49.4516 1.2 -7.95441 2.20076e+06 136733 888923 126219 -167926 344318
185 2 Si 1.67943 35.1802 51.2429 2.4 -33.1204 7.01081e+06 4.45841e+06 1.22098e+07 5187.79 674669 429351
186 3 O 1.78736 36.747 51.303 -1.2 -9.80709 -2.86233e+06 -1.84883e+06 -4.42309e+06 605535 -527532 557487
187 3 O 1.85281 33.8684 57.9076 -1.2 -9.50201 -3.41894e+06 -2.17518e+06 -6.80895e+06 -307723 -1.9372e+06 -190054
188 3 O 0.362533 34.5479 50.661 -1.2 -9.0234 -3.10226e+06 -2.05031e+06 -5.03801e+06 1.10431e+06 -1.14646e+06 -422568
189 1 Mg -2.80215 33.1347 52.3062 1.2 -7.86892 -1.49265e+06 -1.82467e+06 4.50238e+06 1.2621e+06 -2.52696e+06 733117
190 3 O 2.91593 34.533 50.466 -1.2 -9.33754 -2.739e+06 -1.86026e+06 -3.30917e+06 -229249 952600 -333207
191 1 Mg -1.27445 33.1641 55.0603 1.2 -8.70776 3.50161e+06 1.96676e+06 110539 318374 874299 -604936
192 2 Si -1.2909 31.1717 53.1301 2.4 -33.8056 9.82663e+06 4.82274e+06 8.75434e+06 376289 -24536.5 1.66561e+06
193 3 O -1.45301 29.5468 53.2171 -1.2 -8.79996 -4.10681e+06 -390909 -3.18841e+06 932492 434643 -1.07299e+06
194 3 O -0.842495 32.4028 46.4192 -1.2 -7.60557 -3.09232e+06 -1.77467e+06 -3.32102e+06 -605036 -1.50695e+06 839812
195 3 O -2.5804 31.7387 53.9475 -1.2 -8.40369 -2.34284e+06 -4.76715e+06 -3.51136e+06 150689 269349 -851148
196 3 O 0.0537466 31.7214 53.8168 -1.2 -8.67495 -2.75094e+06 -2.244e+06 -2.89469e+06 50150.8 260399 -854908
197 1 Mg -2.7919 40.1881 57.4924 1.2 -7.63187 -1.64885e+06 -1.79241e+06 4.40953e+06 -917499 -1.90228e+06 432721
198 1 Mg -1.17787 40.1435 49.8359 1.2 -8.31465 654902 1.73747e+06 2.43446e+06 -176472 90691 774596
199 2 Si -0.702692 37.6572 47.9231 2.4 -34.2939 8.55016e+06 6.146e+06 1.05553e+07 469988 2.31856e+06 -228128
200 3 O -0.621782 39.2264 47.9868 -1.2 -8.77603 -2.47636e+06 -3.92802e+06 -3.35677e+06 468134 -1.91547e+06 -194893
201 3 O -1.25221 36.5242 51.7666 -1.2 -9.26095 -3.15201e+06 -2.39073e+06 -8.32106e+06 563334 -178912 -600976
202 3 O -1.87295 37.0796 48.8243 -1.2 -8.83626 -1.06426e+06 -3.15078e+06 -3.93886e+06 8822.01 -312639 -1.41074e+06
203 1 Mg 0.341084 35.5943 46.8152 1.2 -7.02123 2.08653e+06 -650859 1.33524e+06 1.12071e+06 1.60461e+06 -679023
204 3 O 0.760681 37.0138 48.3864 -1.2 -8.71331 -1.61981e+06 -1.23202e+06 -2.66188e+06 -282472 -359924 690447
205 1 Mg 1.75782 35.6759 54.5633 1.2 -8.70088 2.27049e+06 1.69783e+06 -13115.8 -302346 -147097 235903
206 2 Si 1.82585 38.0906 56.3879 2.4 -32.4883 7.73059e+06 4.8473e+06 1.00595e+07 416835 364722 1.35579e+06
207 3 O 1.79926 36.5417 56.4082 -1.2 -9.94925 -3.82582e+06 -2.29267e+06 -3.75915e+06 335436 87886.1 -2.35098e+06
208 3 O 1.85132 39.2606 52.7264 -1.2 -9.30343 -3.29124e+06 -3.11539e+06 -5.3547e+06 -4748.83 -639829 -1.86818e+06
209 3 O 0.538404 38.8355 55.6694 -1.2 -9.17322 -1.48717e+06 -2.39753e+06 -3.47595e+06 -1.15234e+06 -339482 -789583
210 3 O 3.06843 38.8007 55.7194 -1.2 -9.31399 -3.44942e+06 -3.23783e+06 -4.28798e+06 807283 807331 -1.13658e+06
211 1 Mg 0.272384 37.8883 52.2029 1.2 -7.62757 -70232.6 -1.24481e+06 4.76502e+06 -1.06795e+06 1.54376e+06 462365
212 1 Mg 2.31122 37.6122 49.4501 1.2 -7.80573 2.0578e+06 214854 725025 155330 -140829 304837
213 2 Si 1.78573 39.934 51.2414 2.4 -32.7623 7.22497e+06 4.37574e+06 1.14781e+07 269778 1.06776e+06 931542
214 3 O 1.89428 41.5006 51.3014 -1.2 -9.96621 -2.81563e+06 -1.61621e+06 -4.3777e+06 823087 -643739 485446
215 3 O 1.73206 38.7201 57.8537 -1.2 -9.80668 -2.2146e+06 -1.7322e+06 -6.16791e+06 -368980 -845906 -42800.1
216 3 O 0.469216 39.3015 50.6588 -1.2 -9.16062 -3.03227e+06 -2.2116e+06 -4.69427e+06 1.10263e+06 -990686 -388043
217 1 Mg -2.69668 37.8889 52.3043 1.2 -7.69833 -1.23192e+06 -1.62796e+06 3.85752e+06 1.45819e+06 -1.85152e+06 819712
218 3 O 3.0225 39.2866 50.4651 -1.2 -9.45421 -2.53507e+06 -2.02641e+06 -3.04434e+06 -301445 834243 -535724
219 1 Mg -1.26568 37.8251 55.1089 1.2 -8.37085 1.8803e+06 2.30328e+06 440212 -42647.2 583963 -135216
220 2 Si -1.28374 35.7959 53.1219 2.4 -33.3065 9.32975e+06 5.16753e+06 1.00013e+07 701738 -245870 129501
221 3 O -1.44895 34.2213 53.1329 -1.2 -9.45692 -5.42038e+06 -1.1889e+06 -4.80906e+06 -727117 456893 -644347
222 3 O -0.738054 37.1566 46.4176 -1.2 -7.7188 -2.90656e+06 -1.85859e+06 -3.24501e+06 -604094 -1.50542e+06 864241
223 3 O -2.57564 36.5471 53.875 -1.2 -8.81568 -2.21752e+06 -4.51264e+06 -3.63716e+06 -2.06752e+06 145975 924594
224 3 O 0.034275 36.3918 53.8384 -1.2 -8.91428 -2.61874e+06 -2.52021e+06 -4.03221e+06 1.89382e+06 -612711 263127
225 1 Mg -2.64413 44.9195 57.5439 1.2 -7.7158 -1.23571e+06 -805680 3.68184e+06 6920.35 -1.15882e+06 268417
226 1 Mg -1.06993 44.8968 49.8343 1.2 -8.08619 303570 2.01543e+06 2.13723e+06 -175123 78514.6 828504
227 2 Si -0.596166 42.4103 47.9215 2.4 -34.0361 8.12547e+06 6.36321e+06 1.03542e+07 486098 2.29085e+06 -351041
228 3 O -0.51472 43.9796 47.9853 -1.2 -8.91584 -2.25284e+06 -4.111e+06 -3.17585e+06 463560 -1.91125e+06 -206748
229 3 O -1.14475 41.2777 51.7649 -1.2 -9.22123 -2.57566e+06 -972349 -5.64088e+06 47566.5 622350 -1.48729e+06
230 3 O -1.76671 41.8331 48.8226 -1.2 -8.9579 -812953 -3.20801e+06 -3.95492e+06 14842.4 -316612 -1.29607e+06
231 1 Mg 0.447076 40.3473 46.8135 1.2 -6.911 1.91534e+06 -588210 1.26699e+06 1.12265e+06 1.59578e+06 -700925
232 3 O 0.866985 41.7666 48.385 -1.2 -8.84353 -1.4421e+06 -1.28992e+06 -2.57902e+06 -290020 -345488 750272
233 1 Mg 1.86678 40.1231 54.5542 1.2 -8.24813 2.47721e+06 959660 605282 14508 -275350 1.33408e+06
234 2 Si 1.83639 42.8448 56.3674 2.4 -32.9664 6.1152e+06 6.69256e+06 1.09307e+07 372830 -148511 954896
235 3 O 1.87171 41.2957 56.5672 -1.2 -9.81067 -3.16272e+06 -2.44949e+06 -4.89409e+06 456662 -391847 -1.64077e+06
236 3 O 1.95891 44.014 52.7248 -1.2 -9.74478 -1.94408e+06 -2.43557e+06 -5.8275e+06 -64215.6 -436533 -1.65689e+06
237 3 O 0.618736 43.5657 55.6721 -1.2 -9.39538 -2.16096e+06 -1.45165e+06 -5.27528e+06 -777840 -1.53716e+06 -1.41459e+06
238 3 O 3.1808 43.5149 55.707 -1.2 -9.11399 -1.27441e+06 -2.07517e+06 -3.64278e+06 1.36939e+06 299413 -1.1046e+06
239 1 Mg 0.379928 42.6418 52.2013 1.2 -7.34478 -399532 -1.52944e+06 5.00542e+06 -940097 1.84741e+06 776090
240 1 Mg 2.41752 42.366 49.4484 1.2 -7.64967 1.83123e+06 278809 642436 113287 -103702 199066
241 2 Si 1.89374 44.6874 51.2398 2.4 -32.0595 5.92694e+06 4.73786e+06 1.12476e+07 376519 1.09401e+06 717490
242 3 O 2.00266 46.254 51.2996 -1.2 -10.2687 -2.3232e+06 -1.80006e+06 -4.20585e+06 874610 -811265 312656
243 3 O 1.75321 43.5359 57.8234 -1.2 -9.2383 -2.25761e+06 -3.29917e+06 -6.06993e+06 72930.9 21089.1 1.30348e+06
244 3 O 0.577464 44.0549 50.6567 -1.2 -9.44149 -2.58338e+06 -2.36243e+06 -4.53595e+06 1.09253e+06 -1.0632e+06 -288866
245 1 Mg -2.58906 42.6425 52.3022 1.2 -7.38592 -1.40183e+06 -813186 4.24152e+06 1.26548e+06 -1.99789e+06 834165
246 3 O 3.13067 44.0398 50.464 -1.2 -9.71697 -2.0762e+06 -2.25574e+06 -2.81146e+06 -289252 907414 -486450
247 1 Mg -1.20928 42.5268 55.0074 1.2 -7.89507 2.39791e+06 1.45418e+06 160120 284493 46569 -320904
248 2 Si -1.09566 40.5142 53.2358 2.4 -32.7642 7.69708e+06 5.3043e+06 1.14551e+07 959930 432978 -1.19739e+06
249 3 O -1.26333 38.9145 53.1966 -1.2 -9.54954 -3.86354e+06 -2.09738e+06 -4.28264e+06 907094 199663 -821834
250 3 O -0.631421 41.9099 46.4159 -1.2 -7.82723 -2.73085e+06 -1.95658e+06 -3.14912e+06 -604827 -1.5011e+06 881538
251 3 O -2.40975 41.1091 53.8679 -1.2 -9.16854 -2.0147e+06 -3.92588e+06 -5.14007e+06 -581758 557338 -582030
252 3 O 0.179186 41.1779 53.8796 -1.2 -9.46316 -2.26847e+06 -2.26858e+06 -3.86752e+06 862349 -529875 -62473.6
253 1 Mg -2.4781 49.8661 57.1898 1.2 -7.62724 -715864 -875839 4.9813e+06 -715295 -1.61864e+06 -670093
254 1 Mg -0.961069 49.6502 49.8327 1.2 -8.1801 271289 1.68417e+06 2.66089e+06 -124220 330869 973279
255 2 Si -0.488083 47.1636 47.9198 2.4 -33.886 7.84539e+06 6.46954e+06 1.02876e+07 495826 2.29816e+06 202095
256 3 O -0.40607 48.7329 47.9837 -1.2 -8.93463 -2.17835e+06 -3.98092e+06 -3.34335e+06 456057 -1.92458e+06 -463556
257 3 O -1.0361 46.031 51.7632 -1.2 -9.73083 -1.88019e+06 -923892 -5.1598e+06 217184 599410 -1.35375e+06
258 3 O -1.65866 46.5866 48.821 -1.2 -9.07437 -621945 -3.34724e+06 -3.82095e+06 -12419 -329875 -1.57061e+06
259 1 Mg 0.554124 45.1001 46.8117 1.2 -6.80704 1.74965e+06 -442990 1.12159e+06 1.1212e+06 1.59496e+06 -586674
260 3 O 0.974961 46.5195 48.3832 -1.2 -8.95143 -1.26402e+06 -1.42058e+06 -2.4492e+06 -272408 -333285 499884
261 1 Mg 1.92724 45.0611 54.4741 1.2 -8.06808 510756 1.35146e+06 1.4911e+06 256479 -329716 978243
262 2 Si 2.14389 47.7084 56.3077 2.4 -32.5847 6.79258e+06 7.17419e+06 1.07437e+07 910154 -282082 -213144
263 3 O 1.98321 46.0935 56.4144 -1.2 -9.2972 -2.18753e+06 -130806 -4.10062e+06 1.55359e+06 7969.6 -1.4579e+06
264 3 O 2.0677 48.7672 52.7232 -1.2 -9.97911 -2.33524e+06 -1.96342e+06 -6.41895e+06 885268 -82874.4 -1.61402e+06
265 3 O 0.885186 48.3177 55.5795 -1.2 -9.54496 -1.20375e+06 -3.93434e+06 -4.10587e+06 -339531 -551079 286350
266 3 O 3.42812 48.4339 55.6282 -1.2 -9.66546 -2.07845e+06 -3.41014e+06 -3.72418e+06 1.67898e+06 -44152.9 -74232.7
267 1 Mg 0.488584 47.395 52.1996 1.2 -7.10506 -899805 -904236 4.78767e+06 -1.43532e+06 1.95701e+06 1.02292e+06
268 1 Mg 2.52544 47.1195 49.4466 1.2 -7.53653 1.71527e+06 341307 519508 95916.9 -108384 495262
269 2 Si 2.00256 49.4407 51.2382 2.4 -32.1091 7.0198e+06 4.12137e+06 1.08487e+07 -129464 -41303.9 1.25281e+06
270 3 O 2.11156 51.0073 51.2982 -1.2 -10.2006 -2.58538e+06 -1.43389e+06 -4.13249e+06 658666 51310.9 -202497
271 3 O 2.0735 48.3336 57.7761 -1.2 -9.36447 -3.34509e+06 -3.66714e+06 -4.24121e+06 554572 -1.07765e+06 309104
272 3 O 0.686344 48.8082 50.655 -1.2 -9.28404 -2.64842e+06 -2.11575e+06 -5.29163e+06 1.2287e+06 -473241 -865169
273 1 Mg -2.48039 47.3957 52.3005 1.2 -7.15234 -1.4907e+06 -1.03476e+06 4.24588e+06 1.85278e+06 -1.94887e+06 767895