ITEM: TIMESTEP
42800
ITEM: NUMBER OF ATOMS
10500
ITEM: BOX BOUNDS xy xz yz pp pp pp
0.0000000000000000e+00 8.9687999999999999e+00 2.9895999999999998e+00
0.0000000000000000e+00 1.1872499999999999e+02 0.0000000000000000e+00
0.0000000000000000e+00 2.5297749999999999e+02 0.0000000000000000e+00
ITEM: ATOMS id type element xu yu zu q c_pe c_s[1] c_s[2] c_s[3] c_s[4] c_s[5] c_s[6]
1 1 Mg -3.38265 7.05676 57.4714 1.2 -7.08521 -672432 -912239 3.4117e+06 -1.50891e+06 -1.51826e+06 -1.21966e+06
2 1 Mg -1.82655 6.90154 50.0912 1.2 -8.07551 -201373 2.1314e+06 215368 -110138 -128856 1.57445e+06
3 2 Si -0.257935 3.96038 48.0876 2.4 -35.9059 9.75238e+06 1.0477e+07 9.15244e+06 803635 1.96318e+06 1.54114e+06
4 3 O -0.335812 5.46814 47.6264 -1.2 -7.85042 -2.97213e+06 -3.35634e+06 -1.64905e+06 145081 -967248 -648762
5 3 O -2.03793 3.43377 51.8941 -1.2 -9.05727 -2.6889e+06 -2.55845e+06 -6.02392e+06 -323245 723114 -1.84402e+06
6 3 O -1.54015 3.53929 48.9521 -1.2 -8.39672 -1.123e+06 -2.47387e+06 -3.50598e+06 38195.7 -764416 -59477.3
7 1 Mg 1.82954 2.54582 47.1376 1.2 -7.93391 2.51987e+06 248370 -5771.97 1.14902e+06 827047 448261
8 3 O 1.22989 3.66364 48.7877 -1.2 -8.11362 -1.51168e+06 -3.22532e+06 -2.82334e+06 -487777 -693187 -817364
9 1 Mg 0.968077 2.41889 54.5048 1.2 -8.25265 777254 1.42631e+06 1.34936e+06 397143 -51194.7 550883
10 2 Si 1.17934 4.95669 56.4908 2.4 -32.2469 7.71061e+06 6.02178e+06 1.07908e+07 1.45974e+06 -148381 -252362
11 3 O 1.05554 3.39114 56.4622 -1.2 -9.75229 -2.74373e+06 -1.37205e+06 -3.50581e+06 614018 18396.1 -848348
12 3 O 1.10813 6.07342 52.8172 -1.2 -9.56651 -2.45769e+06 -4.20588e+06 -4.11191e+06 667030 -101317 -1.02388e+06
13 3 O -0.0470674 5.67816 55.7895 -1.2 -9.67296 -1.48785e+06 -4.19289e+06 -4.47191e+06 -839351 -654602 -434421
14 3 O 2.56761 5.68391 55.8679 -1.2 -9.41889 -583336 -2.02239e+06 -3.72022e+06 1.70328e+06 -159068 -597697
15 1 Mg -0.459401 4.67631 52.2426 1.2 -7.74361 -949646 -406249 4.65737e+06 -944958 1.14431e+06 474000
16 1 Mg 2.79456 3.9971 49.9987 1.2 -8.22001 3.41936e+06 691014 817520 -523046 856422 -1.04326e+06
17 2 Si 1.16169 6.59457 51.2556 2.4 -33.0275 6.48777e+06 8.26928e+06 9.53136e+06 22154.8 204483 2.49873e+06
18 3 O 1.28989 8.18905 51.2909 -1.2 -9.71173 -2.86929e+06 -2.48904e+06 -2.58549e+06 114293 -759311 516548
19 3 O 1.18009 5.58735 57.9722 -1.2 -9.71186 -2.95078e+06 -2.15379e+06 -4.33949e+06 652515 -228712 1.07484e+06
20 3 O -0.184847 6.06029 50.6845 -1.2 -8.93248 -2.49332e+06 -4.16946e+06 -4.17632e+06 1.50556e+06 -361242 -1.39122e+06
21 1 Mg -3.49704 4.67769 52.6661 1.2 -7.35393 -523865 -2.91264e+06 1.69956e+06 2.21277e+06 -1.26423e+06 1.38876e+06
22 3 O 2.48581 5.93312 50.6539 -1.2 -9.52309 -2.78628e+06 -2.4749e+06 -2.02336e+06 -1.59379e+06 -502997 -679978
23 1 Mg -1.77946 4.72859 55.2055 1.2 -8.08133 1.25833e+06 1.55304e+06 897060 -117384 -195909 -587389
24 2 Si -2.03658 2.60393 53.2874 2.4 -32.9577 7.43718e+06 4.26405e+06 1.25401e+07 -327721 -237209 -568055
25 3 O -1.92576 1.10036 53.1755 -1.2 -9.68452 -3.71977e+06 -4.10925e+06 -4.49816e+06 -357413 -423633 640051
26 3 O -0.0467762 2.97103 46.8385 -1.2 -7.06476 -2.87309e+06 -2.92223e+06 -2.10899e+06 -989497 -2.00245e+06 -585171
27 3 O -3.29512 3.39203 54.0431 -1.2 -9.23135 -2.61668e+06 -2.64381e+06 -5.7479e+06 -1.51073e+06 164747 2.44693e+06
28 3 O -0.757681 3.23085 54.0473 -1.2 -9.04656 -2.58414e+06 -3.79e+06 -4.15127e+06 1.53713e+06 -885915 752842
29 1 Mg -3.25597 11.5526 57.4416 1.2 -7.79319 -1.58564e+06 -2.02179e+06 4.65164e+06 -1.19231e+06 -1.57496e+06 -241635
30 1 Mg -1.75014 11.5838 49.8362 1.2 -8.64012 1.07928e+06 2.60455e+06 1.869e+06 -324172 153368 1.21653e+06
31 2 Si -1.18003 9.02138 47.9309 2.4 -34.5306 8.5837e+06 8.7639e+06 8.18506e+06 217006 2.5918e+06 1.159e+06
32 3 O -1.23224 10.5991 47.9811 -1.2 -8.588 -2.70251e+06 -4.23023e+06 -2.13826e+06 659018 -1.90011e+06 -407836
33 3 O -1.79016 8.01447 51.8693 -1.2 -9.14915 -2.58768e+06 -3.62672e+06 -4.01212e+06 599659 -521644 -2.37916e+06
34 3 O -2.30986 8.37215 48.8528 -1.2 -8.96034 -1.01717e+06 -3.43976e+06 -2.47381e+06 -320954 -630945 -1.22991e+06
35 1 Mg 0.154883 7.08234 46.8007 1.2 -7.52908 1.89994e+06 702058 -56226.7 943018 1.72139e+06 -713065
36 3 O 0.325447 8.50934 48.3809 -1.2 -8.59484 -1.47412e+06 -2.82731e+06 -1.86056e+06 -38650.6 -811522 -5619.94
37 1 Mg 1.13817 7.15852 54.5384 1.2 -7.67502 378056 1.08083e+06 475498 188361 210433 224988
38 2 Si 1.09732 9.64791 56.3164 2.4 -31.9981 4.95121e+06 6.24108e+06 1.1027e+07 1.97518e+06 -637735 335817
39 3 O 1.079 8.1146 56.5549 -1.2 -10.4646 -2.93895e+06 -3.64734e+06 -3.54653e+06 -210814 -241252 -720134
40 3 O 1.28624 10.7248 52.7351 -1.2 -9.24277 -3.60003e+06 -2.56789e+06 -4.52739e+06 292636 -798332 -1.32782e+06
41 3 O -0.0861072 10.3603 55.6356 -1.2 -9.45917 -5.23743e+06 -4.44257e+06 -4.33616e+06 -1.18271e+06 -496870 -735336
42 3 O 2.35545 10.3844 55.6254 -1.2 -9.07434 -2.72427e+06 -3.26101e+06 -4.69175e+06 1.54387e+06 796453 -1.52623e+06
43 1 Mg -0.262694 9.34741 52.2523 1.2 -7.74883 -7165.14 -17112.9 3.80091e+06 -1.34465e+06 1.37833e+06 1.17411e+06
44 1 Mg 1.87648 9.01537 49.4629 1.2 -7.90405 2.08251e+06 1.3392e+06 -539869 279671 -224327 738155
45 2 Si 1.21415 11.3799 51.2378 2.4 -33.3444 8.81481e+06 6.05205e+06 9.54181e+06 354284 1.05607e+06 1.60845e+06
46 3 O 1.31634 12.9512 51.3023 -1.2 -9.54439 -3.75858e+06 -2.11677e+06 -3.30498e+06 678207 -663948 347646
47 3 O 1.2092 10.391 57.8353 -1.2 -9.48712 -2.52697e+06 -3.01153e+06 -4.92372e+06 -454813 1.01361e+06 1.64911e+06
48 3 O -0.115718 10.7564 50.681 -1.2 -8.82505 -3.48203e+06 -3.05435e+06 -3.83318e+06 1.13068e+06 -478628 -979502
49 1 Mg -3.26386 9.35564 52.3622 1.2 -7.66936 -814198 -676654 2.7754e+06 1.55821e+06 -1.87443e+06 1.60414e+06
50 3 O 2.45216 10.7265 50.4558 -1.2 -9.24245 -2.97641e+06 -2.53098e+06 -1.89788e+06 -764293 325146 -542663
51 1 Mg -1.83473 9.36907 55.1388 1.2 -7.83111 1.60325e+06 1.12762e+06 -70039.7 -746901 -90024.8 -1.00888e+06
52 2 Si -1.86856 7.32432 53.4033 2.4 -32.1033 6.87748e+06 6.73388e+06 1.01868e+07 147007 -503057 -1.02278e+06
53 3 O -1.87784 5.79777 53.3664 -1.2 -10.0371 -2.74905e+06 -3.93851e+06 -4.50269e+06 -286654 310470 536123
54 3 O -1.19417 8.46968 46.4488 -1.2 -7.57461 -2.82597e+06 -2.78737e+06 -2.20433e+06 -539982 -1.74102e+06 448968
55 3 O -3.1488 8.07647 54.0006 -1.2 -9.84102 -1.84164e+06 -4.57702e+06 -4.02102e+06 -1.01977e+06 239167 466236
56 3 O -0.547726 8.06322 53.9966 -1.2 -9.52898 -765929 -4.29763e+06 -4.67793e+06 1.9426e+06 -1.01471e+06 -125019
57 1 Mg -3.10779 16.1261 57.335 1.2 -7.47705 -626489 -816691 3.46212e+06 -856925 -1.59643e+06 -633504
58 1 Mg -1.6714 16.3544 49.8412 1.2 -8.77387 1.26513e+06 2.40248e+06 1.97452e+06 -187032 239567 893932
59 2 Si -1.18567 13.8526 47.9314 2.4 -34.807 9.318e+06 7.12524e+06 9.55891e+06 508347 2.22075e+06 464805
60 3 O -1.09664 15.4205 47.9915 -1.2 -8.46362 -2.86388e+06 -4.27174e+06 -2.81755e+06 419223 -1.92221e+06 -501244
61 3 O -1.73493 12.7491 51.7772 -1.2 -8.63706 -3.18564e+06 -3.16191e+06 -5.851e+06 248461 830671 -1.21465e+06
62 3 O -2.36115 13.2717 48.8238 -1.2 -8.5607 -1.48594e+06 -3.57226e+06 -3.39285e+06 -116619 -356920 -1.6501e+06
63 1 Mg -0.159928 11.7639 46.8533 1.2 -7.15864 2.34024e+06 -15672.6 656135 1.12754e+06 1.56786e+06 -424697
64 3 O 0.2623 13.1866 48.413 -1.2 -8.48764 -2.03672e+06 -1.6137e+06 -2.11835e+06 -194693 -285897 374661
65 1 Mg 1.11211 11.7179 54.5744 1.2 -8.27819 1.91875e+06 -495556 404628 663282 -870502 1.19941e+06
66 2 Si 1.20524 14.3095 56.1078 2.4 -32.9257 5.87787e+06 6.66217e+06 1.04564e+07 -1.47067e+06 1.34869e+06 -309932
67 3 O 1.21252 12.7342 56.3502 -1.2 -9.33527 -3.60643e+06 -3.52672e+06 -4.96872e+06 -103194 -249514 -3.14375e+06
68 3 O 1.36565 15.4813 52.729 -1.2 -9.11583 -3.8782e+06 -2.62679e+06 -4.45647e+06 37646.8 -516543 -1.73428e+06
69 3 O -0.0855587 15.0401 55.5861 -1.2 -9.23912 -2.16656e+06 -3.31231e+06 -4.1973e+06 -784006 -1.16144e+06 -82577.1
70 3 O 2.43707 15.1105 55.6245 -1.2 -9.39989 -3.59556e+06 -4.0982e+06 -7.7656e+06 733310 2.71201e+06 606028
71 1 Mg -0.206989 14.1049 52.2121 1.2 -7.98075 226031 -506270 3.66431e+06 -1.28588e+06 1.87845e+06 1.20767e+06
72 1 Mg 1.82591 13.8102 49.4556 1.2 -8.11903 2.69384e+06 889984 -25065.4 115493 -57420.7 648484
73 2 Si 1.29285 16.1518 51.2434 2.4 -33.5809 9.18419e+06 5.44416e+06 9.8439e+06 204523 391175 1.28049e+06
74 3 O 1.39496 17.7199 51.3047 -1.2 -9.52723 -3.53541e+06 -2.18723e+06 -3.53813e+06 683621 -544483 197295
75 3 O 1.36216 14.8332 57.6625 -1.2 -8.89738 -2.66005e+06 -3.98574e+06 -7.04972e+06 712712 1.0749e+06 1.29314e+06
76 3 O -0.0269106 15.5178 50.6688 -1.2 -8.60902 -3.88015e+06 -2.63627e+06 -4.7169e+06 1.0308e+06 -363780 -679480
77 1 Mg -3.18391 14.1057 52.3125 1.2 -7.95733 -251519 -440878 2.82092e+06 1.599e+06 -1.90823e+06 1.07129e+06
78 3 O 2.52432 15.503 50.4579 -1.2 -9.0545 -3.50632e+06 -2.47286e+06 -2.12863e+06 -269480 624301 -595604
79 1 Mg -1.81884 14.1576 54.9941 1.2 -8.02042 1.29704e+06 1.81118e+06 681427 330694 -89968.7 -1.27788e+06
80 2 Si -1.64995 12.0518 53.2411 2.4 -33.4001 7.28896e+06 5.46292e+06 1.12303e+07 -173946 -481526 -1950.34
81 3 O -1.81836 10.4934 53.1442 -1.2 -9.47383 -3.73106e+06 -2.80682e+06 -4.30565e+06 638255 296880 -96343.6
82 3 O -1.21337 13.3381 46.4311 -1.2 -7.51077 -3.29354e+06 -2.28104e+06 -2.76125e+06 -632131 -1.44829e+06 525890
83 3 O -2.91542 12.8432 53.886 -1.2 -8.8758 -1.85777e+06 -3.26185e+06 -6.2529e+06 -1.0198e+06 621854 591356
84 3 O -0.379514 12.6895 53.8483 -1.2 -9.32562 -4.88688e+06 -3.17955e+06 -5.16056e+06 1.53919e+06 -1.31166e+06 248392
85 1 Mg -3.07996 21.1715 57.3954 1.2 -7.81321 43762.3 -756350 6.02772e+06 -829428 -923462 -425925
86 1 Mg -1.5831 21.1217 49.8405 1.2 -8.81692 1.24186e+06 2.37596e+06 2.0544e+06 -221765 111900 907103
87 2 Si -1.09384 18.6291 47.9287 2.4 -34.9823 9.57165e+06 7.11524e+06 9.65762e+06 480420 2.30948e+06 376151
88 3 O -1.02071 20.1985 47.9911 -1.2 -8.38804 -3.04332e+06 -4.34353e+06 -2.86527e+06 464203 -1.90927e+06 -483744
89 3 O -1.65002 17.5002 51.771 -1.2 -8.78614 -2.99649e+06 -3.9511e+06 -5.72086e+06 310342 295897 -425080
90 3 O -2.26174 18.0434 48.8281 -1.2 -8.48715 -1.59934e+06 -3.61222e+06 -3.44458e+06 -17212.2 -377332 -1.58125e+06
91 1 Mg -0.0440435 16.5651 46.8269 1.2 -7.26809 2.44692e+06 -156509 849824 1.13432e+06 1.57544e+06 -354846
92 3 O 0.37001 17.9877 48.3925 -1.2 -8.38622 -2.16641e+06 -1.70036e+06 -2.16692e+06 -285736 -321405 413553
93 1 Mg 1.36781 16.4756 54.5598 1.2 -8.47107 2.30277e+06 241339 682514 -150239 -323766 1.64786e+06
94 2 Si 1.21455 19.1369 56.3422 2.4 -33.6585 6.76505e+06 5.86976e+06 1.28248e+07 1.57365e+06 736035 45728.7
95 3 O 1.17622 17.5718 56.3275 -1.2 -9.27801 -3.69941e+06 -1.19049e+06 -5.16912e+06 238751 -670558 -1.05065e+06
96 3 O 1.45147 20.239 52.7294 -1.2 -9.10291 -3.41933e+06 -1.71408e+06 -5.16719e+06 273041 -78099.3 -710627
97 3 O -0.0659758 19.786 55.6865 -1.2 -8.84846 -2.57698e+06 -2.1202e+06 -4.66492e+06 -316379 -187127 -801633
98 3 O 2.49638 19.9351 55.6282 -1.2 -8.87356 -1.47322e+06 -696604 -3.85774e+06 751568 514737 -1.24603e+06
99 1 Mg -0.126194 18.8651 52.2079 1.2 -8.03565 -140339 -1.02076e+06 4.58588e+06 -1.09449e+06 2.15596e+06 786640
100 1 Mg 1.92402 18.5815 49.4545 1.2 -8.17234 2.7454e+06 754613 49942.5 140230 -126317 544309
101 2 Si 1.38106 20.9117 51.2443 2.4 -33.4883 9.3364e+06 5.37282e+06 9.61215e+06 408657 605410 537394
102 3 O 1.48527 22.4795 51.3054 -1.2 -9.59772 -3.9322e+06 -2.32732e+06 -3.07685e+06 733001 -351310 192908
103 3 O 1.31867 19.7989 57.8015 -1.2 -9.03603 -3.2812e+06 -1.39519e+06 -6.24237e+06 41744.4 89771 751941
104 3 O 0.0615419 20.2804 50.6669 -1.2 -8.62783 -4.03354e+06 -2.61176e+06 -4.73011e+06 1.10224e+06 -377376 -406718
105 1 Mg -3.09665 18.8643 52.3122 1.2 -7.83436 85994.1 -845290 3.58414e+06 1.89785e+06 -2.17334e+06 1.20109e+06
106 3 O 2.61548 20.2646 50.4626 -1.2 -9.01625 -3.52344e+06 -2.4241e+06 -2.36075e+06 -424200 527074 -644954
107 1 Mg -1.6882 18.6472 55.1412 1.2 -8.04306 3.45283e+06 1.57583e+06 -682464 -506357 -194748 -987231
108 2 Si -1.67553 16.8322 53.2163 2.4 -33.4333 7.31661e+06 4.08167e+06 1.02306e+07 723700 841124 556075
109 3 O -1.66553 15.2786 53.0669 -1.2 -9.32577 -3.80006e+06 -3.31118e+06 -4.98283e+06 -30788.3 131784 114362
110 3 O -1.12868 18.1227 46.4249 -1.2 -7.4252 -3.38224e+06 -2.25634e+06 -2.82786e+06 -603362 -1.49432e+06 516609
111 3 O -2.93499 17.4285 53.8622 -1.2 -9.27154 -4.53962e+06 -3.26904e+06 -5.17907e+06 -134304 1.49166e+06 -625014
112 3 O -0.375379 17.504 53.9487 -1.2 -8.82384 -1.51716e+06 -3.20364e+06 -4.60446e+06 752069 -974785 -364936
113 1 Mg -2.9752 25.9935 57.3509 1.2 -7.34477 -522526 -298428 4.42828e+06 -24273.9 -1.4069e+06 -229689
114 1 Mg -1.48778 25.88 49.8402 1.2 -8.75694 1.29084e+06 2.51955e+06 1.74458e+06 -158788 231125 1.19278e+06
115 2 Si -1.00491 23.3922 47.9274 2.4 -35.0272 9.64752e+06 7.27564e+06 9.50071e+06 505439 2.28241e+06 478157
116 3 O -0.927602 24.9615 47.9909 -1.2 -8.37027 -3.08909e+06 -4.48097e+06 -2.78594e+06 450310 -1.91909e+06 -643243
117 3 O -1.55795 22.2588 51.7696 -1.2 -8.41285 -2.97806e+06 -3.69943e+06 -6.47022e+06 257567 118582 -1.12222e+06
118 3 O -2.17411 22.8111 48.8277 -1.2 -8.46132 -1.58038e+06 -3.73185e+06 -3.42503e+06 194.216 -355004 -1.61325e+06
119 1 Mg 0.0423997 21.3296 46.8225 1.2 -7.31441 2.55094e+06 -169748 846425 1.12633e+06 1.58168e+06 -338074
120 3 O 0.458537 22.7495 48.3911 -1.2 -8.36674 -2.23027e+06 -1.79332e+06 -2.05003e+06 -293571 -318674 373247
121 1 Mg 1.67971 21.4633 54.4389 1.2 -8.22323 607535 1.13153e+06 987033 -492837 1.09588e+06 361534
122 2 Si 1.32217 23.8627 56.2523 2.4 -32.7294 8.80447e+06 4.96837e+06 1.05094e+07 -467697 643094 -327625
123 3 O 1.45922 22.3559 56.3456 -1.2 -9.84688 -2.5323e+06 -4.7195e+06 -3.6299e+06 -347882 272731 -1.1741e+06
124 3 O 1.54441 24.9963 52.7297 -1.2 -9.18107 -3.6561e+06 -3.24971e+06 -4.87378e+06 306619 -681954 -2.09641e+06
125 3 O 0.006345 24.5387 55.6069 -1.2 -9.25436 -2.02892e+06 -3.18136e+06 -3.00796e+06 -1.59617e+06 -448679 -747725
126 3 O 2.67421 24.5631 55.6914 -1.2 -8.9832 -95153.6 -3.83319e+06 -4.16862e+06 1.16884e+06 1.28657e+06 122806
127 1 Mg -0.0335968 23.6229 52.2067 1.2 -7.87315 232722 -873839 3.52502e+06 -956796 1.75573e+06 1.28757e+06
128 1 Mg 2.01073 23.3445 49.4541 1.2 -8.16957 2.75189e+06 860107 -59296.9 86773.7 -69888.9 576915
129 2 Si 1.47594 25.6699 51.2449 2.4 -33.4546 8.69763e+06 5.84272e+06 9.70996e+06 89668.5 555116 1.72281e+06
130 3 O 1.58172 27.2371 51.3054 -1.2 -9.51306 -3.68323e+06 -2.2634e+06 -3.66235e+06 686716 -417005 -122334
131 3 O 1.38323 24.5263 57.8109 -1.2 -9.48274 -1.97925e+06 -1.7527e+06 -3.64131e+06 915039 728581 2.1646e+06
132 3 O 0.157925 25.0378 50.6651 -1.2 -8.70757 -3.67242e+06 -2.93872e+06 -4.32327e+06 1.04288e+06 -636911 -855448
133 1 Mg -3.00341 23.6231 52.3098 1.2 -7.90438 -609578 -556267 3.32626e+06 878811 -1.69691e+06 1.09204e+06
134 3 O 2.71149 25.0232 50.4656 -1.2 -9.09877 -3.36072e+06 -2.71584e+06 -2.12734e+06 -211834 725327 -799143
135 1 Mg -1.53658 23.6408 54.9748 1.2 -8.1739 568491 872697 759778 -833812 -1.11988e+06 -1.0708e+06
136 2 Si -1.38562 21.5201 53.223 2.4 -33.4593 5.77731e+06 4.24055e+06 1.11116e+07 -2.2956e+06 -358139 -756195
137 3 O -1.55806 20.0389 53.0373 -1.2 -9.37998 -3.48661e+06 -3.98575e+06 -5.75295e+06 602699 11689.1 706044
138 3 O -1.03938 22.8897 46.4223 -1.2 -7.38659 -3.43152e+06 -2.30655e+06 -2.78981e+06 -607229 -1.49659e+06 458771
139 3 O -2.70236 22.3497 53.9391 -1.2 -8.91577 -2.82091e+06 -3.60434e+06 -5.79073e+06 -2.57828e+06 1.69681e+06 423275
140 3 O -0.206247 22.2353 53.7683 -1.2 -9.29873 -5.62371e+06 -3.89802e+06 -5.32042e+06 373586 -2.11877e+06 -434129
141 1 Mg -2.52788 30.5805 57.1958 1.2 -7.74177 124750 -1.93671e+06 3.05455e+06 -2.55285e+06 -1.80684e+06 -1.44268e+06
142 1 Mg -1.38776 30.6357 49.8391 1.2 -8.85691 1.41233e+06 2.20988e+06 2.07495e+06 -185546 139549 1.55711e+06
143 2 Si -0.907929 28.1491 47.9262 2.4 -35.1143 9.79926e+06 7.14808e+06 9.61908e+06 482555 2.31566e+06 1.04207e+06
144 3 O -0.829229 29.7184 47.99 -1.2 -8.30051 -3.20996e+06 -4.34098e+06 -2.95812e+06 462500 -1.91504e+06 -921014
145 3 O -1.45946 27.0152 51.769 -1.2 -8.77364 -3.1378e+06 -3.31641e+06 -5.32038e+06 338241 -234844 -1.66706e+06
146 3 O -2.07744 27.5697 48.8273 -1.2 -8.44089 -1.66527e+06 -3.72401e+06 -3.39976e+06 14321.9 -365077 -1.96972e+06
147 1 Mg 0.137907 26.087 46.819 1.2 -7.34575 2.59994e+06 -144330 829642 1.1257e+06 1.58898e+06 -136295
148 3 O 0.55579 27.5065 48.3893 -1.2 -8.33033 -2.24951e+06 -1.77654e+06 -2.1097e+06 -294265 -322090 86444.5
149 1 Mg 1.42768 26.0368 54.4645 1.2 -8.38661 1.10366e+06 1.08966e+06 599174 440644 -787448 1.04004e+06
150 2 Si 1.79606 28.6932 56.3713 2.4 -32.9374 5.64231e+06 7.21261e+06 8.8034e+06 819851 -698698 2.51059e+06
151 3 O 1.5656 27.0858 56.4483 -1.2 -9.4954 -2.45369e+06 -2.19533e+06 -2.31969e+06 2.23643e+06 -122812 -961776
152 3 O 1.6432 29.7522 52.7291 -1.2 -9.15991 -3.00662e+06 -3.014e+06 -4.06145e+06 186748 -273339 -2.00639e+06
153 3 O 0.519611 29.3335 55.8171 -1.2 -8.84389 -3.2172e+06 -5.16224e+06 -4.50496e+06 -65048.3 -1.3449e+06 -165080
154 3 O 3.05259 29.3177 55.7544 -1.2 -9.48674 -4.44204e+06 -4.47949e+06 -5.01853e+06 496589 1.26142e+06 -1.14112e+06
155 1 Mg 0.0647462 28.3794 52.2059 1.2 -8.03827 2529.3 -951652 3.88511e+06 -743782 1.945e+06 911164
156 1 Mg 2.10696 28.1021 49.4531 1.2 -8.20288 2.78791e+06 774917 50633.7 133826 -138643 911707
157 2 Si 1.57592 30.4257 51.2442 2.4 -33.6081 8.906e+06 5.4248e+06 1.00431e+07 278397 778562 2.38058e+06
158 3 O 1.68288 31.9926 51.3043 -1.2 -9.43201 -3.75092e+06 -1.93187e+06 -3.7224e+06 833599 -288164 -492172
159 3 O 1.78781 29.2842 57.9042 -1.2 -9.24426 -3.56157e+06 -3.42434e+06 -4.53054e+06 747161 -1.7449e+06 590063
160 3 O 0.258524 29.7935 50.6632 -1.2 -8.65238 -3.82793e+06 -2.84206e+06 -4.32034e+06 1.08489e+06 -760427 -1.04488e+06
161 1 Mg -2.90462 28.3797 52.308 1.2 -7.91599 -126471 -755410 3.60238e+06 1.50181e+06 -1.80985e+06 1.24675e+06
162 3 O 2.81205 29.7787 50.4664 -1.2 -9.00889 -3.42804e+06 -2.57228e+06 -2.28114e+06 -333445 773419 -1.25965e+06
163 1 Mg -1.27857 28.2433 55.23 1.2 -8.12616 2.41701e+06 2.07332e+06 46423.1 129313 879337 317997
164 2 Si -1.49342 26.2645 53.1999 2.4 -33.2457 9.45644e+06 4.97848e+06 1.05333e+07 681324 -476318 468543
165 3 O -1.53435 24.7624 53.1009 -1.2 -9.58303 -3.9038e+06 -5.25232e+06 -5.10345e+06 -249518 296617 -21792.1
166 3 O -0.943026 27.648 46.4208 -1.2 -7.34188 -3.5025e+06 -2.27217e+06 -2.83486e+06 -604294 -1.50422e+06 229848
167 3 O -2.78902 26.9485 53.9007 -1.2 -8.99905 -1.32988e+06 -3.52167e+06 -3.29808e+06 -1.32405e+06 573907 102576
168 3 O -0.108843 26.956 53.8564 -1.2 -8.98221 -2.15152e+06 -3.22325e+06 -3.95042e+06 2.26709e+06 -1.1399e+06 688064
169 1 Mg -2.8515 35.4341 57.5311 1.2 -8.46763 331127 -2.4529e+06 4.45071e+06 -1.74026e+06 -1.35142e+06 -1.02384e+06
170 1 Mg -1.28421 35.3899 49.8376 1.2 -9.02119 1.89482e+06 1.86093e+06 2.19244e+06 -221283 116270 1.96221e+06
171 2 Si -0.807101 32.9036 47.9247 2.4 -35.3283 1.01852e+07 6.67027e+06 1.00526e+07 497722 2.32085e+06 1.434e+06
172 3 O -0.727174 34.4729 47.9885 -1.2 -8.15506 -3.47596e+06 -4.04602e+06 -3.23789e+06 464756 -1.92915e+06 -1.15551e+06
173 3 O -1.35735 31.7701 51.768 -1.2 -8.66561 -2.48831e+06 -366027 -3.88764e+06 -65257.4 221876 -2.76679e+06
174 3 O -1.97695 32.3253 48.826 -1.2 -8.33719 -1.82351e+06 -3.47675e+06 -3.69157e+06 28674.7 -340273 -2.1261e+06
175 1 Mg 0.237665 30.8412 46.8168 1.2 -7.42462 2.7318e+06 -327961 1.01142e+06 1.12525e+06 1.59075e+06 94355.6
176 3 O 0.656562 32.2608 48.3877 -1.2 -8.22922 -2.41618e+06 -1.54704e+06 -2.34898e+06 -305462 -335382 -126206
177 1 Mg 1.67644 30.7099 54.5992 1.2 -8.4738 3.04534e+06 1.70239e+06 703605 662554 -444524 1.92041e+06
178 2 Si 1.54766 33.2915 56.54 2.4 -34.3091 1.02061e+07 5.13494e+06 1.14726e+07 -1.12212e+06 -224062 951706
179 3 O 1.67072 31.7405 56.5321 -1.2 -9.12937 -4.06367e+06 -2.96156e+06 -4.21295e+06 -2.65985e+06 436983 -162858
180 3 O 1.74574 34.5067 52.7279 -1.2 -8.78454 -2.98672e+06 -3.25135e+06 -4.92141e+06 -708394 -646560 -1.94491e+06
181 3 O 0.278984 34.0936 55.9362 -1.2 -8.57882 -5.99076e+06 -1.8281e+06 -3.25819e+06 -2.20535e+06 -785665 -1.25237e+06
182 3 O 2.78278 33.944 55.725 -1.2 -8.00534 -3.21511e+06 -4.01349e+06 -4.63957e+06 1.87736e+06 -16472.5 -260725
183 1 Mg 0.167046 33.1343 52.2045 1.2 -8.13109 431854 -1.31575e+06 4.97648e+06 -602742 1.54056e+06 1.52797e+06
184 1 Mg 2.20727 32.8578 49.4516 1.2 -8.3082 2.89381e+06 554850 339426 82996.3 -152876 1.10266e+06
185 2 Si 1.67943 35.1802 51.2429 2.4 -34.2145 8.83552e+06 4.93815e+06 1.15726e+07 654594 955189 2.88175e+06
186 3 O 1.78736 36.747 51.303 -1.2 -8.82196 -4.67467e+06 -1.2196e+06 -4.9548e+06 814195 -836311 -328171
187 3 O 1.73942 33.9495 58.0351 -1.2 -8.55286 -3.2857e+06 -1.10778e+06 -4.34501e+06 152443 166097 729905
188 3 O 0.362533 34.5479 50.661 -1.2 -8.56698 -3.71341e+06 -2.58103e+06 -4.49471e+06 1.08757e+06 -1.27112e+06 -1.27533e+06
189 1 Mg -2.80215 33.1347 52.3062 1.2 -7.9183 530428 -381014 5.14775e+06 1.04916e+06 -1.15434e+06 1.46892e+06
190 3 O 2.91593 34.533 50.466 -1.2 -8.89911 -3.36169e+06 -2.45394e+06 -2.40721e+06 -327848 1.2119e+06 -1.60166e+06
191 1 Mg -1.20697 33.1115 55.2387 1.2 -9.10813 2.77123e+06 1.03749e+06 123819 -590699 -1.21108e+06 324854
192 2 Si -1.24684 30.9643 53.2945 2.4 -33.5349 8.97082e+06 7.34142e+06 1.22995e+07 360035 -247894 1.94831e+06
193 3 O -1.37431 29.4088 53.1598 -1.2 -9.56834 -3.36193e+06 -2.50119e+06 -4.05886e+06 1.10488e+06 938903 -1.15602e+06
194 3 O -0.842495 32.4028 46.4192 -1.2 -7.24456 -3.66168e+06 -2.0444e+06 -3.06303e+06 -605831 -1.5041e+06 26264.8
195 3 O -2.48493 31.6724 54.0516 -1.2 -8.41564 -2.09068e+06 -2.72928e+06 -3.69556e+06 -985885 657395 -1.30426e+06
196 3 O 0.0430295 31.7275 53.8921 -1.2 -8.82566 -3.82487e+06 -1.76951e+06 -2.67323e+06 2.1476e+06 172824 -338613
197 1 Mg -2.93943 40.2615 57.5139 1.2 -8.27664 786779 -1.61464e+06 5.14747e+06 -1.08628e+06 -983881 329102
198 1 Mg -1.17787 40.1435 49.8359 1.2 -9.36813 2.29875e+06 1.57663e+06 2.65026e+06 -137421 173064 1.12198e+06
199 2 Si -0.702692 37.6572 47.9231 2.4 -35.8275 1.09791e+07 5.41015e+06 1.13202e+07 483290 2.2888e+06 1.41948e+06
200 3 O -0.621782 39.2264 47.9868 -1.2 -7.91344 -3.84072e+06 -3.49216e+06 -3.804e+06 458140 -1.91454e+06 -838829
201 3 O -1.25221 36.5242 51.7666 -1.2 -8.07978 -4.68037e+06 -431612 -6.27942e+06 208641 693613 -3.00033e+06
202 3 O -1.87295 37.0796 48.8243 -1.2 -8.04138 -2.28235e+06 -2.81557e+06 -4.34377e+06 -498.528 -315582 -2.28422e+06
203 1 Mg 0.341084 35.5943 46.8152 1.2 -7.58392 2.9908e+06 -742113 1.42373e+06 1.12082e+06 1.59922e+06 263119
204 3 O 0.760681 37.0138 48.3864 -1.2 -7.96882 -2.84284e+06 -929362 -2.93821e+06 -279099 -346634 -213840
205 1 Mg 1.79239 35.2899 54.6278 1.2 -9.09738 3.92191e+06 1.58748e+06 1.1079e+06 -10558.9 -400304 711554
206 2 Si 1.65703 38.0296 56.3417 2.4 -35.138 1.16278e+07 3.24779e+06 1.18444e+07 318249 -866892 710988
207 3 O 1.69878 36.5129 56.4939 -1.2 -8.70833 -5.07482e+06 -3.14275e+06 -3.99441e+06 335488 -211244 -961093
208 3 O 1.85132 39.2606 52.7264 -1.2 -8.15657 -5.22334e+06 -2.76527e+06 -5.59988e+06 984558 -481001 -1.51474e+06
209 3 O 0.238957 38.6476 55.8897 -1.2 -8.02667 -3.77844e+06 -1.9102e+06 -4.86422e+06 -1.22088e+06 -714172 -466344
210 3 O 2.85883 38.7401 55.5844 -1.2 -8.06034 -2.92271e+06 -1.49739e+06 -3.99227e+06 183477 632244 -1.16388e+06
211 1 Mg 0.272384 37.8883 52.2029 1.2 -8.88684 2.06074e+06 -2.26263e+06 4.80662e+06 -1.12367e+06 1.87158e+06 1.05675e+06
212 1 Mg 2.31122 37.6122 49.4501 1.2 -8.68702 3.51787e+06 -222999 1.11569e+06 121353 -82548.8 1.04618e+06
213 2 Si 1.78573 39.934 51.2414 2.4 -34.9887 1.10733e+07 4.27998e+06 1.13399e+07 1934.42 542923 1.22076e+06
214 3 O 1.89428 41.5006 51.3014 -1.2 -8.76085 -5.07834e+06 -1.53732e+06 -4.41141e+06 758102 -303568 95717.7
215 3 O 1.76427 38.7223 57.856 -1.2 -8.65359 -3.49918e+06 -851409 -5.08742e+06 -959722 -540268 219218
216 3 O 0.469216 39.3015 50.6588 -1.2 -8.0264 -4.8509e+06 -1.92831e+06 -5.27772e+06 1.03212e+06 -741281 -690236
217 1 Mg -2.69668 37.8889 52.3043 1.2 -9.01748 777292 -1.92391e+06 4.25771e+06 1.22268e+06 -2.14277e+06 849717
218 3 O 3.0225 39.2866 50.4651 -1.2 -8.38632 -4.41942e+06 -1.72106e+06 -3.31705e+06 -204458 697435 -711900
219 1 Mg -1.27762 37.6375 55.1183 1.2 -9.26112 4.14768e+06 636055 1.3569e+06 -400927 181138 -1.21998e+06
220 2 Si -1.15421 35.7436 53.2256 2.4 -34.3494 1.1901e+07 4.77654e+06 1.06865e+07 -875685 218738 -1.51492e+06
221 3 O -1.14326 34.2392 53.4172 -1.2 -9.17767 -4.24406e+06 -3.31371e+06 -2.83064e+06 575069 247415 -451749
222 3 O -0.738054 37.1566 46.4176 -1.2 -7.0735 -3.93674e+06 -1.54365e+06 -3.56406e+06 -604948 -1.5017e+06 6342.54
223 3 O -2.56619 36.4635 53.8351 -1.2 -7.79922 -2.39871e+06 -2.45381e+06 -4.3322e+06 -1.36952e+06 379608 27715
224 3 O 0.0487415 36.561 53.8614 -1.2 -8.23947 -4.28048e+06 -2.21116e+06 -4.00613e+06 868843 -1.01236e+06 -97251.2
225 1 Mg -2.6508 45.0018 57.3493 1.2 -8.4678 793344 -1.66442e+06 4.79869e+06 -1.29151e+06 -1.82984e+06 -100603
226 1 Mg -1.06993 44.8968 49.8343 1.2 -9.48248 2.12499e+06 1.28245e+06 3.29895e+06 -179533 330181 963965
227 2 Si -0.596166 42.4103 47.9215 2.4 -36.0281 1.122e+07 5.1679e+06 1.16487e+07 482315 2.30806e+06 694443
228 3 O -0.51472 43.9796 47.9853 -1.2 -7.87686 -3.83982e+06 -3.36439e+06 -3.9924e+06 466014 -1.91157e+06 -525087
229 3 O -1.14475 41.2777 51.7649 -1.2 -7.90037 -5.04213e+06 -2.32915e+06 -8.00186e+06 380610 71900.1 -1.17871e+06
230 3 O -1.76671 41.8331 48.8226 -1.2 -7.90404 -2.50053e+06 -2.7826e+06 -4.36273e+06 -17968.4 -376458 -1.87982e+06
231 1 Mg 0.447076 40.3473 46.8135 1.2 -7.7336 3.22767e+06 -1.13109e+06 1.81549e+06 1.12121e+06 1.59017e+06 -86803.7
232 3 O 0.866985 41.7666 48.385 -1.2 -7.83145 -3.04545e+06 -797624 -3.07731e+06 -267530 -305890 197002
233 1 Mg 1.88373 40.2979 54.4528 1.2 -9.25454 3.32223e+06 1.17957e+06 655116 -240297 -119835 889195
234 2 Si 1.83286 42.8941 56.3133 2.4 -34.7515 1.00365e+07 4.20043e+06 1.14301e+07 -289840 294056 2.59404e+06
235 3 O 1.76183 41.325 56.3245 -1.2 -8.83865 -4.49146e+06 -1.70487e+06 -3.6576e+06 1.2557e+06 -433724 -2.16977e+06
236 3 O 1.95891 44.014 52.7248 -1.2 -8.51814 -5.53048e+06 -2.33625e+06 -6.72579e+06 -23444 -598207 -2.41028e+06
237 3 O 0.471175 43.5123 55.6965 -1.2 -8.19163 -2.26966e+06 -2.74814e+06 -4.13798e+06 -208896 -1.05508e+06 -960669
238 3 O 3.06532 43.5853 55.6288 -1.2 -8.72442 -3.89828e+06 -2.33641e+06 -4.16171e+06 686844 1.07886e+06 -1.49709e+06
239 1 Mg 0.379928 42.6418 52.2013 1.2 -8.91684 1.30469e+06 -1.05379e+06 4.56713e+06 -1.55764e+06 1.64994e+06 990543
240 1 Mg 2.41752 42.366 49.4484 1.2 -8.78521 3.81652e+06 -180459 937964 128255 -131061 723719
241 2 Si 1.89374 44.6874 51.2398 2.4 -34.8827 1.26049e+07 3.40097e+06 1.04667e+07 316827 228083 1.40129e+06
242 3 O 2.00266 46.254 51.2996 -1.2 -8.96892 -5.06345e+06 -1.19459e+06 -4.16417e+06 600250 -784187 -53314.2
243 3 O 1.81058 43.4151 57.8233 -1.2 -8.37148 -3.38285e+06 -1.64857e+06 -5.57967e+06 -229388 -617414 -916770
244 3 O 0.577464 44.0549 50.6567 -1.2 -7.8368 -5.01853e+06 -1.80505e+06 -5.66334e+06 1.3066e+06 -108926 -895280
245 1 Mg -2.58906 42.6425 52.3022 1.2 -8.72627 1.48142e+06 -1.77227e+06 3.6951e+06 1.97765e+06 -1.71642e+06 1.22183e+06
246 3 O 3.13067 44.0398 50.464 -1.2 -8.35486 -4.90488e+06 -1.55259e+06 -3.00481e+06 -376292 493580 -841478
247 1 Mg -1.22961 42.5909 55.1342 1.2 -8.9381 2.8349e+06 1.08246e+06 2.19208e+06 264770 123427 -225880
248 2 Si -1.113 40.5385 53.1615 2.4 -35.1577 1.07679e+07 5.82645e+06 1.08936e+07 363257 -102263 398213
249 3 O -1.25657 38.9679 53.0802 -1.2 -8.39377 -5.55272e+06 -1.85285e+06 -4.90195e+06 -64977.9 100468 -275929
250 3 O -0.631421 41.9099 46.4159 -1.2 -6.98694 -4.0666e+06 -1.29691e+06 -3.81737e+06 -605020 -1.50357e+06 386463
251 3 O -2.36809 41.3415 53.8417 -1.2 -8.22641 -3.61044e+06 -2.11074e+06 -5.5549e+06 -1.24271e+06 1.28771e+06 76887.8
252 3 O 0.217528 41.166 53.7652 -1.2 -8.12629 -4.39865e+06 -1.97403e+06 -5.21404e+06 1.63758e+06 -1.39389e+06 -533878
253 1 Mg -2.65586 49.8056 57.4546 1.2 -8.30821 -589564 -1.73284e+06 5.08142e+06 -1.25559e+06 -760283 1.10112e+06
254 1 Mg -0.961069 49.6502 49.8327 1.2 -8.97332 1.46245e+06 1.72634e+06 2.6951e+06 -154958 158200 826321
255 2 Si -0.488083 47.1636 47.9198 2.4 -35.7045 1.06783e+07 5.38288e+06 1.14557e+07 482682 2.27823e+06 -269015
256 3 O -0.40607 48.7329 47.9837 -1.2 -8.14301 -3.43645e+06 -3.67129e+06 -3.66416e+06 462950 -1.90044e+06 -176991
257 3 O -1.0361 46.031 51.7632 -1.2 -7.67189 -3.38247e+06 -2.72241e+06 -4.78642e+06 875564 -625379 -1.27067e+06
258 3 O -1.65866 46.5866 48.821 -1.2 -8.02646 -2.24984e+06 -2.77722e+06 -4.43486e+06 41558.3 -422390 -1.38644e+06
259 1 Mg 0.554124 45.1001 46.8117 1.2 -7.69765 3.16668e+06 -1.20702e+06 1.89563e+06 1.12242e+06 1.57298e+06 -502927
260 3 O 0.974961 46.5195 48.3832 -1.2 -7.9561 -2.86854e+06 -792523 -3.06318e+06 -304546 -263259 663735
261 1 Mg 1.85624 44.8931 54.3907 1.2 -8.81842 3.79021e+06 271038 153102 61899.3 -237592 833438
262 2 Si 1.80904 47.5548 56.289 2.4 -34.865 1.03363e+07 5.64189e+06 1.22944e+07 1.07148e+06 668700 2.64255e+06
263 3 O 1.77623 45.9771 56.5231 -1.2 -8.7948 -4.85879e+06 -511444 -4.92787e+06 -277880 -671097 -2.09439e+06
264 3 O 2.0677 48.7672 52.7232 -1.2 -9.05089 -3.66892e+06 -1.42559e+06 -6.20493e+06 703239 -451443 -1.61551e+06
265 3 O 0.505609 48.2642 55.708 -1.2 -8.52591 -5.43124e+06 -2.24444e+06 -4.61748e+06 -2.76502e+06 -1.19734e+06 -1.56038e+06
266 3 O 3.07674 48.2564 55.6822 -1.2 -8.17447 -3.52345e+06 -2.13677e+06 -5.77792e+06 1.68897e+06 1.17029e+06 -1.712e+06
267 1 Mg 0.488584 47.395 52.1996 1.2 -8.40167 1.10145e+06 -1.25236e+06 5.08411e+06 -708290 1.75914e+06 1.04808e+06
268 1 Mg 2.52544 47.1195 49.4466 1.2 -8.57951 3.52454e+06 -145187 868839 123571 -85264.4 341679
269 2 Si 2.00256 49.4407 51.2382 2.4 -33.6757 9.76092e+06 4.04262e+06 1.06758e+07 85532.3 639398 855888
270 3 O 2.11156 51.0073 51.2982 -1.2 -9.6293 -3.75314e+06 -1.64286e+06 -3.63167e+06 841609 -218210 -154964