ITEM: TIMESTEP
56100
ITEM: NUMBER OF ATOMS
10500
ITEM: BOX BOUNDS xy xz yz pp pp pp
0.0000000000000000e+00 8.9687999999999999e+00 2.9895999999999998e+00
0.0000000000000000e+00 1.1872499999999999e+02 0.0000000000000000e+00
0.0000000000000000e+00 2.5297749999999999e+02 0.0000000000000000e+00
ITEM: ATOMS id type element xu yu zu q c_pe c_s[1] c_s[2] c_s[3] c_s[4] c_s[5] c_s[6]
1 1 Mg -3.38512 6.71229 57.3666 1.2 -8.4278 -3.17709e+06 -2.64567e+06 3.73571e+06 -1.50502e+06 -2.99101e+06 754134
2 1 Mg -1.82655 6.90154 50.0912 1.2 -8.12742 -13208.7 836172 1.42428e+06 -113654 -267147 890000
3 2 Si -0.257935 3.96038 48.0876 2.4 -36.2923 1.03815e+07 8.07492e+06 1.15462e+07 789572 1.97782e+06 1.47171e+06
4 3 O -0.335812 5.46814 47.6264 -1.2 -7.7544 -3.13348e+06 -2.18698e+06 -2.80305e+06 142687 -970743 -313994
5 3 O -2.03793 3.43377 51.8941 -1.2 -8.45008 -4.29513e+06 -930116 -8.29633e+06 -693578 558161 -1.62303e+06
6 3 O -1.54015 3.53929 48.9521 -1.2 -8.15419 -1.54573e+06 -1.23906e+06 -4.68759e+06 46278.7 -763177 -235341
7 1 Mg 1.82954 2.54582 47.1376 1.2 -8.14249 2.84686e+06 -789838 1.03962e+06 1.1509e+06 823385 457706
8 3 O 1.22989 3.66364 48.7877 -1.2 -7.87504 -1.87046e+06 -2.00285e+06 -4.05576e+06 -490957 -699214 -904890
9 1 Mg 0.945446 2.38782 54.4943 1.2 -8.89413 1.88689e+06 1.12577e+06 872429 653979 -961613 1.18402e+06
10 2 Si 1.01321 4.98268 56.3785 2.4 -34.3056 6.59946e+06 3.13977e+06 1.28917e+07 1.85813e+06 684391 2.44763e+06
11 3 O 0.911553 3.4439 56.4627 -1.2 -8.81656 -5.91777e+06 -3.72087e+06 -5.10412e+06 678621 -1.1948e+06 90039
12 3 O 1.10813 6.07342 52.8172 -1.2 -8.8633 -3.82599e+06 -2.92581e+06 -5.61953e+06 565942 -45741.9 -1.51796e+06
13 3 O -0.201403 5.50562 55.612 -1.2 -8.62855 -5.2108e+06 -3.96036e+06 -3.52346e+06 203387 -110840 229850
14 3 O 2.29562 5.49969 55.648 -1.2 -8.60364 -4.75415e+06 -4.10497e+06 -4.45074e+06 -99675.1 -93145 -1.50698e+06
15 1 Mg -0.459401 4.67631 52.2426 1.2 -8.37259 -240947 -1.72711e+06 5.34933e+06 -927449 1.5604e+06 668146
16 1 Mg 2.79456 3.9971 49.9987 1.2 -8.53855 3.91217e+06 -611671 2.14218e+06 -454446 852862 -797113
17 2 Si 1.16169 6.59457 51.2556 2.4 -33.5619 7.17573e+06 5.44893e+06 1.26136e+07 111384 493019 2.31053e+06
18 3 O 1.28989 8.18905 51.2909 -1.2 -9.75077 -2.45251e+06 -1.46742e+06 -4.15405e+06 367323 -444411 1.00242e+06
19 3 O 1.14746 5.58085 57.9205 -1.2 -8.40617 -3.14798e+06 -4.49705e+06 -3.28225e+06 -450303 62681.4 -554802
20 3 O -0.184847 6.06029 50.6845 -1.2 -8.67911 -3.17761e+06 -2.59353e+06 -5.83939e+06 1.30206e+06 -163243 -1.05218e+06
21 1 Mg -3.49704 4.67769 52.6661 1.2 -7.94091 530089 -2.27705e+06 3.14816e+06 2.0648e+06 -1.57548e+06 1.08803e+06
22 3 O 2.48581 5.93312 50.6539 -1.2 -9.19687 -3.29104e+06 -922347 -3.8768e+06 -1.50895e+06 -801573 -630592
23 1 Mg -1.97423 4.64726 54.94 1.2 -8.75808 2.51893e+06 933768 288298 -311489 -199702 -724635
24 2 Si -1.97572 2.51716 53.218 2.4 -34.544 9.08742e+06 2.45363e+06 1.3425e+07 605856 174416 -1.7727e+06
25 3 O -2.00966 0.970249 53.1748 -1.2 -8.93794 -5.17835e+06 -3.67319e+06 -5.54491e+06 162966 -553291 -752117
26 3 O -0.0467762 2.97103 46.8385 -1.2 -6.87813 -3.17174e+06 -1.87013e+06 -3.15945e+06 -988329 -2.00775e+06 -522391
27 3 O -3.14809 3.21943 54.0351 -1.2 -8.58309 -4.85614e+06 -2.36973e+06 -6.83269e+06 -342829 321814 63974.6
28 3 O -0.647735 3.08732 53.8683 -1.2 -8.0669 -6.55453e+06 -3.59868e+06 -6.76702e+06 1.53233e+06 -697336 139597
29 1 Mg -3.34909 11.6573 57.3451 1.2 -7.25757 -881688 538483 3.58087e+06 -700285 -1.58543e+06 -386861
30 1 Mg -1.75014 11.5838 49.8362 1.2 -8.06874 299523 2.16679e+06 2.16939e+06 -301768 329937 845459
31 2 Si -1.18003 9.02138 47.9309 2.4 -34.1328 7.98776e+06 7.2835e+06 9.62503e+06 237014 2.634e+06 -142515
32 3 O -1.23224 10.5991 47.9811 -1.2 -8.91636 -2.18869e+06 -3.69605e+06 -2.65818e+06 652665 -1.9344e+06 161925
33 3 O -1.79016 8.01447 51.8693 -1.2 -9.34589 -3.41779e+06 -4.79932e+06 -8.96756e+06 -58109.5 -524712 -214243
34 3 O -2.30986 8.37215 48.8528 -1.2 -9.12112 -815773 -2.54658e+06 -3.28988e+06 -339190 -586544 -563248
35 1 Mg 0.154883 7.08234 46.8007 1.2 -7.49815 1.84947e+06 -246033 892762 944739 1.72795e+06 -1.27318e+06
36 3 O 0.325447 8.50934 48.3809 -1.2 -8.75016 -1.19666e+06 -1.99081e+06 -2.71369e+06 -32404.2 -845664 634412
37 1 Mg 1.15973 7.22961 54.54 1.2 -8.3191 813778 623953 995490 661910 88768 1.01768e+06
38 2 Si 1.09745 9.54029 56.3936 2.4 -33.6538 6.82437e+06 3.17628e+06 1.04994e+07 -940531 36673.9 -907640
39 3 O 1.19867 7.96736 56.5404 -1.2 -8.96954 -3.74195e+06 -2.84056e+06 -5.64121e+06 490753 146186 -1.81505e+06
40 3 O 1.28624 10.7248 52.7351 -1.2 -9.86179 -2.79193e+06 -2.61986e+06 -5.27972e+06 284168 -436500 -1.56614e+06
41 3 O -0.178133 10.1514 55.7898 -1.2 -9.16194 -3.76745e+06 -2.08749e+06 -7.66774e+06 143660 -1.50078e+06 -77661.5
42 3 O 2.36337 10.2233 55.8487 -1.2 -9.24498 -4.50395e+06 -4.70758e+06 -5.70968e+06 318348 1.83905e+06 228393
43 1 Mg -0.262694 9.34741 52.2523 1.2 -7.48248 -1.18929e+06 -1.72215e+06 4.55238e+06 -1.84476e+06 1.5055e+06 1.49411e+06
44 1 Mg 1.87648 9.01537 49.4629 1.2 -7.67137 1.63903e+06 541660 328972 241023 -299991 51263.4
45 2 Si 1.21415 11.3799 51.2378 2.4 -32.0601 6.29622e+06 5.3048e+06 1.07214e+07 195403 251244 722455
46 3 O 1.31634 12.9512 51.3023 -1.2 -10.2984 -2.40967e+06 -1.69607e+06 -3.53262e+06 552107 -249698 452557
47 3 O 1.01053 10.1278 57.8727 -1.2 -8.705 -4.95099e+06 -3.3798e+06 -7.11997e+06 797764 742177 -297701
48 3 O -0.115718 10.7564 50.681 -1.2 -9.32865 -2.25768e+06 -2.57507e+06 -4.76361e+06 1.16057e+06 -573012 -508074
49 1 Mg -3.26386 9.35564 52.3622 1.2 -7.22297 -1.22757e+06 -1.59468e+06 4.12088e+06 1.71743e+06 -1.56168e+06 777059
50 3 O 2.45216 10.7265 50.4558 -1.2 -9.81676 -2.20308e+06 -1.97989e+06 -2.23504e+06 -737912 566033 84595.6
51 1 Mg -1.95503 9.33089 55.3037 1.2 -8.21305 695424 919558 1.21275e+06 699302 -181227 -629479
52 2 Si -1.71916 7.40745 53.2577 2.4 -33.0729 8.53305e+06 4.22437e+06 9.72434e+06 251480 -794591 2.3757e+06
53 3 O -1.84427 5.85831 53.1753 -1.2 -9.293 -3.88153e+06 -2.20076e+06 -6.48576e+06 1.00351e+06 297.469 -248844
54 3 O -1.19417 8.46968 46.4488 -1.2 -7.70292 -2.62598e+06 -2.02455e+06 -2.96003e+06 -542346 -1.74509e+06 1.08296e+06
55 3 O -3.03296 8.04148 54.0525 -1.2 -9.19563 -633096 -3.27254e+06 -5.15821e+06 -1.30982e+06 472190 -714930
56 3 O -0.37819 8.09944 53.8365 -1.2 -9.15486 -2.70701e+06 -4.44107e+06 -5.43664e+06 2.56399e+06 -985295 -846864
57 1 Mg -2.77078 16.3588 57.222 1.2 -7.84125 392206 -2.21172e+06 3.88388e+06 -2.06631e+06 -2.17648e+06 -1.56242e+06
58 1 Mg -1.6714 16.3544 49.8412 1.2 -8.23392 462752 1.55984e+06 2.74745e+06 -171896 439970 877919
59 2 Si -1.18567 13.8526 47.9314 2.4 -33.8852 7.82954e+06 6.15334e+06 1.05412e+07 506253 2.28324e+06 -54132.6
60 3 O -1.09664 15.4205 47.9915 -1.2 -8.94018 -2.08809e+06 -3.66863e+06 -3.44065e+06 418192 -1.95583e+06 -304928
61 3 O -1.73493 12.7491 51.7772 -1.2 -9.59952 -1.28544e+06 -2.23132e+06 -6.64795e+06 459904 -661455 -610343
62 3 O -2.36115 13.2717 48.8238 -1.2 -9.07514 -736441 -3.08491e+06 -3.817e+06 -118401 -393900 -1.43782e+06
63 1 Mg -0.159928 11.7639 46.8533 1.2 -6.82112 1.78663e+06 -477075 1.13033e+06 1.12601e+06 1.57473e+06 -925241
64 3 O 0.2623 13.1866 48.413 -1.2 -8.9569 -1.22564e+06 -1.17078e+06 -2.62987e+06 -190859 -277783 649210
65 1 Mg 1.30547 11.7288 54.4562 1.2 -7.8252 1.67177e+06 1.39775e+06 -245657 -128355 722661 428352
66 2 Si 1.56282 14.3974 56.4365 2.4 -31.5629 7.66756e+06 7.20016e+06 1.20096e+07 -489620 304152 2.8748e+06
67 3 O 1.27231 12.8245 56.3259 -1.2 -10.3367 -3.17508e+06 -341445 -3.21114e+06 1.99133e+06 228482 -302579
68 3 O 1.36565 15.4813 52.729 -1.2 -9.55006 -3.13403e+06 -1.81133e+06 -4.49998e+06 1.37035e+06 -41579.4 -1.76439e+06
69 3 O 0.165285 15.1135 55.9706 -1.2 -9.47428 -855442 -4.12845e+06 -5.25634e+06 -86252.1 -144067 -1.60796e+06
70 3 O 2.78732 15.1691 55.7344 -1.2 -9.71202 -741903 -3.3703e+06 -5.04014e+06 2.02862e+06 178080 -1.4776e+06
71 1 Mg -0.206989 14.1049 52.2121 1.2 -7.37735 -988922 -211749 4.45871e+06 -1.0554e+06 1.50221e+06 932623
72 1 Mg 1.82591 13.8102 49.4556 1.2 -7.55949 1.82945e+06 361634 468766 123265 -149553 532307
73 2 Si 1.29285 16.1518 51.2434 2.4 -32.5876 7.26465e+06 3.59359e+06 1.19946e+07 -84457.3 -518182 1.30775e+06
74 3 O 1.39496 17.7199 51.3047 -1.2 -9.96525 -2.87863e+06 -1.17666e+06 -4.61587e+06 312841 -165920 467697
75 3 O 1.65558 15.0715 57.9997 -1.2 -9.12715 -3.55766e+06 -1.82897e+06 -4.14534e+06 1.1849e+06 -1.94133e+06 2.05057e+06
76 3 O -0.0269106 15.5178 50.6688 -1.2 -9.14125 -2.54589e+06 -2.02238e+06 -5.62531e+06 1.06615e+06 -556891 -876839
77 1 Mg -3.18391 14.1057 52.3125 1.2 -7.11456 -976962 -1.46035e+06 4.476e+06 1.14826e+06 -1.55223e+06 509181
78 3 O 2.52432 15.503 50.4579 -1.2 -9.6736 -2.73602e+06 -1.62425e+06 -2.70326e+06 -219404 823546 -480490
79 1 Mg -1.47942 14.0785 55.0659 1.2 -7.86693 1.61126e+06 2.61856e+06 -380444 533378 192082 426426
80 2 Si -1.72511 11.9534 53.1655 2.4 -32.6561 4.73674e+06 2.76108e+06 1.22817e+07 -277417 -1.03849e+06 -327557
81 3 O -1.78903 10.4732 53.1465 -1.2 -9.81487 -3.08561e+06 -6.46501e+06 -5.12107e+06 201309 -2633.79 -997371
82 3 O -1.21337 13.3381 46.4311 -1.2 -7.88963 -2.68605e+06 -1.82963e+06 -3.21438e+06 -631950 -1.45717e+06 931357
83 3 O -2.9322 12.592 54.036 -1.2 -9.1322 -2.94059e+06 -2.72966e+06 -3.88315e+06 -693610 338617 -121773
84 3 O -0.451861 12.6077 53.8721 -1.2 -9.44752 -3.6277e+06 -2.10186e+06 -4.36672e+06 648191 -445200 233951
85 1 Mg -3.11871 21.0664 57.0044 1.2 -7.81401 -2.04841e+06 -2.1525e+06 3.25365e+06 173195 -1.60488e+06 -577142
86 1 Mg -1.5831 21.1217 49.8405 1.2 -8.21775 419856 1.41137e+06 2.86608e+06 -194838 203454 373671
87 2 Si -1.09384 18.6291 47.9287 2.4 -33.9909 7.97192e+06 5.52161e+06 1.12608e+07 473082 2.35365e+06 -360276
88 3 O -1.02071 20.1985 47.9911 -1.2 -8.91342 -2.20313e+06 -3.54916e+06 -3.66929e+06 461027 -1.93198e+06 -5626.41
89 3 O -1.65002 17.5002 51.771 -1.2 -9.22774 -2.34623e+06 -2.03573e+06 -6.5762e+06 1.22344e+06 -791502 -748909
90 3 O -2.26174 18.0434 48.8281 -1.2 -8.99079 -846552 -2.72468e+06 -4.2898e+06 -948.959 -419780 -1.32255e+06
91 1 Mg -0.0440435 16.5651 46.8269 1.2 -6.81763 1.71131e+06 -770804 1.47796e+06 1.13409e+06 1.5773e+06 -665266
92 3 O 0.37001 17.9877 48.3925 -1.2 -8.87435 -1.33865e+06 -886151 -3.03644e+06 -292480 -305101 711095
93 1 Mg 1.34231 16.5193 54.6198 1.2 -8.05749 2.31863e+06 163263 2.09401e+06 356369 213038 1.26556e+06
94 2 Si 1.2624 19.0215 56.4749 2.4 -33.5875 6.64304e+06 1.06755e+06 1.10748e+07 1.02832e+06 69797.1 237001
95 3 O 1.41611 17.5491 56.5292 -1.2 -9.27382 -4.5417e+06 -5.3044e+06 -5.74079e+06 -1.34509e+06 -627812 -92220.3
96 3 O 1.45147 20.239 52.7294 -1.2 -9.52354 -2.75488e+06 -1.71957e+06 -5.63808e+06 -20764.9 -879694 -1.14855e+06
97 3 O 0.140127 19.7944 55.8279 -1.2 -9.13523 -5.92005e+06 -3.04384e+06 -5.22131e+06 -601728 -1.6168e+06 188175
98 3 O 2.61124 19.6616 55.6977 -1.2 -8.73965 -3.37844e+06 -4.29198e+06 -7.55548e+06 1.42938e+06 1.02504e+06 -1.95127e+06
99 1 Mg -0.126194 18.8651 52.2079 1.2 -7.65938 -677102 -1.02281e+06 5.09979e+06 -1.00017e+06 1.78804e+06 262776
100 1 Mg 1.92402 18.5815 49.4545 1.2 -7.66468 1.96079e+06 -195531 970278 164096 -183702 265137
101 2 Si 1.38106 20.9117 51.2443 2.4 -32.4863 7.12253e+06 3.45634e+06 1.20711e+07 242662 689488 206306
102 3 O 1.48527 22.4795 51.3054 -1.2 -10.1746 -2.32055e+06 -1.43878e+06 -4.49226e+06 849391 -270039 695903
103 3 O 1.45048 19.793 57.832 -1.2 -8.81214 -4.27409e+06 -3.4857e+06 -8.58041e+06 236604 -1.02071e+06 51299.4
104 3 O 0.0615419 20.2804 50.6669 -1.2 -9.1609 -2.88972e+06 -1.74178e+06 -5.51177e+06 1.04949e+06 -619157 -122706
105 1 Mg -3.09665 18.8643 52.3122 1.2 -7.44568 -506372 -2.57813e+06 4.53965e+06 1.83158e+06 -1.99528e+06 1.19829e+06
106 3 O 2.61548 20.2646 50.4626 -1.2 -9.57682 -2.62978e+06 -1.38742e+06 -3.27274e+06 -328075 725912 -233530
107 1 Mg -1.69239 18.9065 55.1211 1.2 -8.0491 1.87662e+06 197013 1.19054e+06 242188 536101 -538959
108 2 Si -1.79724 16.8051 53.2143 2.4 -32.8424 7.57994e+06 3.45077e+06 1.24248e+07 333858 -54745.3 116774
109 3 O -1.72961 15.2226 53.1433 -1.2 -9.84164 -2.73919e+06 -1.53696e+06 -4.69228e+06 -1.94215e+06 591967 -628599
110 3 O -1.12868 18.1227 46.4249 -1.2 -7.88881 -2.63794e+06 -1.60787e+06 -3.47951e+06 -602547 -1.50128e+06 914892
111 3 O -2.95181 17.5502 53.8946 -1.2 -9.56449 -3.46064e+06 -2.89132e+06 -5.53965e+06 176543 1.18603e+06 -503568
112 3 O -0.345478 17.2605 53.875 -1.2 -8.74654 -435578 -2.30964e+06 -5.15732e+06 1.15369e+06 -82200.3 -389225
113 1 Mg -2.92229 25.9613 57.1781 1.2 -7.78078 -512069 -1.02724e+06 4.02518e+06 -617775 -1.57506e+06 -899174
114 1 Mg -1.48778 25.88 49.8402 1.2 -8.07385 209852 1.51644e+06 2.72039e+06 -198942 258407 569123
115 2 Si -1.00491 23.3922 47.9274 2.4 -33.8228 7.73798e+06 5.84024e+06 1.09134e+07 497048 2.3431e+06 -733003
116 3 O -0.927602 24.9615 47.9909 -1.2 -8.99844 -2.08459e+06 -3.755e+06 -3.52321e+06 460098 -1.93692e+06 9865.02
117 3 O -1.55795 22.2588 51.7696 -1.2 -9.67903 -1.84302e+06 -1.80616e+06 -5.00909e+06 -75564.5 -395111 -667222
118 3 O -2.17411 22.8111 48.8277 -1.2 -9.08157 -671699 -2.9514e+06 -4.14381e+06 1637.96 -358161 -1.03806e+06
119 1 Mg 0.0423997 21.3296 46.8225 1.2 -6.7841 1.69205e+06 -848164 1.53405e+06 1.12778e+06 1.58861e+06 -892227
120 3 O 0.458537 22.7495 48.3911 -1.2 -8.95821 -1.23093e+06 -1.03965e+06 -2.87207e+06 -293925 -333861 957372
121 1 Mg 1.45226 21.152 54.5744 1.2 -8.09478 1.51007e+06 990634 931647 -358996 -254535 93950.7
122 2 Si 1.31865 23.7196 56.3113 2.4 -33.2609 6.92726e+06 4.30967e+06 1.23988e+07 -163070 747519 261318
123 3 O 1.45701 22.21 56.3285 -1.2 -9.86594 -4.1784e+06 -5.09183e+06 -6.2457e+06 -195057 -877109 -702863
124 3 O 1.54441 24.9963 52.7297 -1.2 -9.81522 -2.09864e+06 -1.78114e+06 -6.43541e+06 -187583 -466552 -1.3631e+06
125 3 O 0.0886853 24.5505 55.8363 -1.2 -8.9374 -4.34766e+06 -2.61454e+06 -5.40612e+06 -1.5642e+06 -1.19165e+06 417646
126 3 O 2.55592 24.5363 55.6651 -1.2 -9.22166 -3.13518e+06 -2.80438e+06 -4.25983e+06 1.8093e+06 671434 496708
127 1 Mg -0.0335968 23.6229 52.2067 1.2 -7.29683 -1.61393e+06 -1.63626e+06 5.23889e+06 -1.31211e+06 2.11756e+06 869037
128 1 Mg 2.01073 23.3445 49.4541 1.2 -7.52781 1.6754e+06 43031.9 803045 102996 -191243 5665.67
129 2 Si 1.47594 25.6699 51.2449 2.4 -32.0323 6.2741e+06 3.55221e+06 1.20436e+07 389073 342152 159444
130 3 O 1.58172 27.2371 51.3054 -1.2 -10.2867 -2.34188e+06 -1.31311e+06 -4.31358e+06 724670 -395619 667702
131 3 O 1.33059 24.3029 57.9039 -1.2 -8.59296 -3.06403e+06 -2.54631e+06 -6.25018e+06 369821 -1.16654e+06 3.61674e+06
132 3 O 0.157925 25.0378 50.6651 -1.2 -9.38922 -2.32525e+06 -1.92922e+06 -5.43213e+06 1.17497e+06 -792107 -220128
133 1 Mg -3.00341 23.6231 52.3098 1.2 -6.90954 -1.02867e+06 -1.18349e+06 4.73737e+06 1.827e+06 -2.07965e+06 714781
134 3 O 2.71149 25.0232 50.4656 -1.2 -9.81764 -2.25083e+06 -1.70164e+06 -2.90606e+06 -375752 939699 -334102
135 1 Mg -1.65446 23.7388 54.9622 1.2 -7.89081 2.49676e+06 382760 106194 322218 -160063 -684278
136 2 Si -1.50915 21.6311 53.2659 2.4 -31.9173 6.76616e+06 5.20357e+06 1.30699e+07 1.31644e+06 -248015 540908
137 3 O -1.57969 19.941 53.1631 -1.2 -9.69707 -2.80044e+06 1.72589e+06 -4.49691e+06 624900 856521 197987
138 3 O -1.03938 22.8897 46.4223 -1.2 -7.94168 -2.54461e+06 -1.68452e+06 -3.41204e+06 -606701 -1.50392e+06 1.07887e+06
139 3 O -2.83298 22.1287 53.9932 -1.2 -9.66943 -1.20504e+06 -2.15594e+06 -4.91734e+06 -569348 60435.7 -1.12412e+06
140 3 O -0.219764 22.299 53.8717 -1.2 -9.71823 -1.03373e+06 -1.80885e+06 -4.98997e+06 876135 -434731 -77592.8
141 1 Mg -2.71228 30.6546 57.0941 1.2 -8.15436 -620395 -3.82069e+06 3.27115e+06 -1.30843e+06 -2.05325e+06 -2.342e+06
142 1 Mg -1.38776 30.6357 49.8391 1.2 -8.10331 311685 1.41088e+06 2.77803e+06 -150045 323058 66412.8
143 2 Si -0.907929 28.1491 47.9262 2.4 -33.7817 7.65347e+06 5.73437e+06 1.10424e+07 494804 2.33183e+06 -701692
144 3 O -0.829229 29.7184 47.99 -1.2 -8.99078 -2.09706e+06 -3.68578e+06 -3.61534e+06 450572 -1.93978e+06 117286
145 3 O -1.45946 27.0152 51.769 -1.2 -9.7127 -1.32051e+06 -1.03651e+06 -5.07564e+06 411151 -242913 -619858
146 3 O -2.07744 27.5697 48.8273 -1.2 -9.11407 -595244 -2.90189e+06 -4.23136e+06 8486.69 -376720 -1.13701e+06
147 1 Mg 0.137907 26.087 46.819 1.2 -6.72765 1.60485e+06 -766108 1.45621e+06 1.12409e+06 1.5904e+06 -878760
148 3 O 0.55579 27.5065 48.3893 -1.2 -8.99565 -1.17195e+06 -1.02186e+06 -2.88704e+06 -292170 -315444 903523
149 1 Mg 1.53732 25.972 54.4934 1.2 -8.1035 528796 578244 1.66497e+06 -61420.2 -447578 261123
150 2 Si 1.7078 28.5832 56.3634 2.4 -33.9317 1.00535e+07 5.24729e+06 1.14717e+07 261030 672462 -1.08552e+06
151 3 O 1.473 27.0676 56.5433 -1.2 -9.23962 -3.5187e+06 -2.79822e+06 -3.68994e+06 1.29522e+06 -1.44235e+06 -63375.3
152 3 O 1.6432 29.7522 52.7291 -1.2 -9.7041 -3.06388e+06 -1.10394e+06 -6.00454e+06 872711 106481 -646312
153 3 O 0.380508 29.2303 55.7001 -1.2 -8.50977 -2.57798e+06 -3.24013e+06 -3.71906e+06 -1.64635e+06 -1.08964e+06 735562
154 3 O 3.01913 29.2556 55.7515 -1.2 -8.81111 -3.54518e+06 -3.49986e+06 -6.09234e+06 2.60016e+06 452488 -413160
155 1 Mg 0.0647462 28.3794 52.2059 1.2 -7.31507 -987622 -1.24761e+06 5.56343e+06 -1.43733e+06 1.73317e+06 719323
156 1 Mg 2.10696 28.1021 49.4531 1.2 -7.51156 1.70507e+06 -114074 912995 109002 -155093 50852.9
157 2 Si 1.57592 30.4257 51.2442 2.4 -32.2618 6.80842e+06 3.37889e+06 1.20963e+07 -19273.6 -122823 -492806
158 3 O 1.68288 31.9926 51.3043 -1.2 -10.1239 -2.40276e+06 -1.55759e+06 -4.75147e+06 670371 125414 926735
159 3 O 1.71729 29.3828 57.8509 -1.2 -8.36874 -4.43099e+06 -2.13095e+06 -5.04382e+06 937333 -1.86132e+06 2.71333e+06
160 3 O 0.258524 29.7935 50.6632 -1.2 -9.27759 -2.54993e+06 -1.58525e+06 -5.9223e+06 1.03952e+06 -527347 -26941.1
161 1 Mg -2.90462 28.3797 52.308 1.2 -7.14119 -896608 -1.67951e+06 5.24776e+06 1.92048e+06 -1.67221e+06 485556
162 3 O 2.81205 29.7787 50.4664 -1.2 -9.73348 -2.52849e+06 -1.34936e+06 -3.31598e+06 -200090 723418 55246.1
163 1 Mg -1.2095 28.3665 55.14 1.2 -8.39433 932472 800702 936994 -631984 -405826 -2.09586e+06
164 2 Si -1.4378 26.3426 53.2731 2.4 -32.0747 4.91904e+06 3.6805e+06 1.34737e+07 -534740 -478780 -833752
165 3 O -1.45101 24.7002 53.242 -1.2 -10.1373 -3.21318e+06 -1.10057e+06 -6.52638e+06 342418 -522082 -773697
166 3 O -0.943026 27.648 46.4208 -1.2 -7.97544 -2.48658e+06 -1.70864e+06 -3.40055e+06 -605037 -1.50665e+06 1.06777e+06
167 3 O -2.72493 26.8799 53.9888 -1.2 -9.52209 -2.24507e+06 -2.67074e+06 -4.35056e+06 -498218 79245.6 -234500
168 3 O -0.174129 26.9179 53.9192 -1.2 -9.66565 -2.78763e+06 -2.9873e+06 -5.49272e+06 39602.7 -947133 -57261.4
169 1 Mg -2.78964 35.4888 57.3457 1.2 -7.46996 -359913 -1.79211e+06 3.38901e+06 -942531 -1.07251e+06 -1.9166e+06
170 1 Mg -1.28421 35.3899 49.8376 1.2 -8.19982 477826 1.61474e+06 2.55669e+06 -218616 229000 140241
171 2 Si -0.807101 32.9036 47.9247 2.4 -33.8315 7.76497e+06 5.86916e+06 1.08804e+07 480730 2.37978e+06 -1.01303e+06
172 3 O -0.727174 34.4729 47.9885 -1.2 -8.95465 -2.17067e+06 -3.78162e+06 -3.50883e+06 470606 -1.94488e+06 237838
173 3 O -1.35735 31.7701 51.768 -1.2 -9.51761 -2.67224e+06 -4.15181e+06 -1.12243e+07 315165 -589811 1.52199e+06
174 3 O -1.97695 32.3253 48.826 -1.2 -9.09789 -693165 -2.99739e+06 -4.03506e+06 20465.7 -362857 -936753
175 1 Mg 0.237665 30.8412 46.8168 1.2 -6.73112 1.60855e+06 -781781 1.47735e+06 1.12619e+06 1.59482e+06 -972599
176 3 O 0.656562 32.2608 48.3877 -1.2 -8.96474 -1.17624e+06 -1.07795e+06 -2.85318e+06 -297456 -336500 1.09143e+06
177 1 Mg 1.73126 30.8054 54.4292 1.2 -8.15925 2.609e+06 600378 948304 -306572 11457.5 -1.65399e+06
178 2 Si 1.75838 33.2657 56.2436 2.4 -33.1959 9.24166e+06 7.58772e+06 9.92517e+06 -522614 98474.9 -3.8155e+06
179 3 O 1.81948 31.684 56.307 -1.2 -9.39305 -4.4191e+06 -2.11818e+06 -4.28593e+06 975130 -640375 994355
180 3 O 1.74574 34.5067 52.7279 -1.2 -9.29159 -2.8202e+06 -2.2008e+06 -5.24411e+06 -177194 -449177 65156.5
181 3 O 0.334003 33.9929 55.7296 -1.2 -8.45177 -1.68197e+06 -1.90409e+06 -4.83772e+06 -2.65873e+06 -844468 835883
182 3 O 2.85729 34.2202 55.58 -1.2 -9.22101 -4.36023e+06 -1.90832e+06 -5.48596e+06 953775 1.23041e+06 1.79546e+06
183 1 Mg 0.167046 33.1343 52.2045 1.2 -7.60999 -2.18616e+06 -2.34533e+06 4.75298e+06 -806632 2.44215e+06 -337147
184 1 Mg 2.20727 32.8578 49.4516 1.2 -7.56197 1.73191e+06 20712.5 845392 134054 -258249 -164824
185 2 Si 1.67943 35.1802 51.2429 2.4 -32.6268 6.89148e+06 4.10628e+06 1.18906e+07 468315 395337 -1.03971e+06
186 3 O 1.78736 36.747 51.303 -1.2 -9.97219 -2.97516e+06 -1.64622e+06 -4.20272e+06 739026 -72127 1.35475e+06
187 3 O 1.71061 33.9222 57.7033 -1.2 -9.32988 -3.86239e+06 -1.69663e+06 -6.4692e+06 -992234 -1.6264e+06 3.48389e+06
188 3 O 0.362533 34.5479 50.661 -1.2 -9.18886 -2.6883e+06 -2.03405e+06 -5.64617e+06 1.0623e+06 -719599 468816
189 1 Mg -2.80215 33.1347 52.3062 1.2 -7.17078 -581502 -2.33704e+06 4.13669e+06 1.98469e+06 -1.93333e+06 564147
190 3 O 2.91593 34.533 50.466 -1.2 -9.65128 -2.51337e+06 -1.72985e+06 -2.93033e+06 -355574 985591 87916.4
191 1 Mg -1.36817 33.2419 55.1181 1.2 -8.22544 1.3379e+06 1.37897e+06 810603 -646904 193669 -1.91513e+06
192 2 Si -1.37011 31.226 53.1257 2.4 -32.6576 5.94753e+06 4.94376e+06 9.39171e+06 1.00786e+06 707349 23044.3
193 3 O -1.41857 29.592 53.1251 -1.2 -9.57719 -2.08444e+06 1.62434e+06 -5.6205e+06 -490505 284892 1.05107e+06
194 3 O -0.842495 32.4028 46.4192 -1.2 -7.96737 -2.50186e+06 -1.73449e+06 -3.37089e+06 -604950 -1.51238e+06 1.17615e+06
195 3 O -2.56676 31.903 53.8961 -1.2 -9.61976 -3.45724e+06 -3.20179e+06 -4.96935e+06 -13211.1 1.2346e+06 1.52859e+06
196 3 O 0.0313202 31.8019 53.7859 -1.2 -8.86163 -806074 -3.68782e+06 -4.84899e+06 1.13008e+06 -235197 1.34116e+06
197 1 Mg -2.59027 40.3738 57.4551 1.2 -7.15056 -1.60571e+06 -129718 3.21731e+06 854376 -2.20441e+06 -107004
198 1 Mg -1.17787 40.1435 49.8359 1.2 -8.16158 260077 1.9487e+06 2.36819e+06 -181963 149248 13830.1
199 2 Si -0.702692 37.6572 47.9231 2.4 -33.8598 7.79641e+06 6.13855e+06 1.062e+07 474344 2.31408e+06 -1.40358e+06
200 3 O -0.621782 39.2264 47.9868 -1.2 -8.98101 -2.11805e+06 -4.02481e+06 -3.29693e+06 466630 -1.91229e+06 420344
201 3 O -1.25221 36.5242 51.7666 -1.2 -9.15847 -2.52705e+06 -993133 -6.91959e+06 142871 -168028 -196140
202 3 O -1.87295 37.0796 48.8243 -1.2 -9.03433 -710261 -3.1037e+06 -4.03953e+06 11889.6 -354597 -756386
203 1 Mg 0.341084 35.5943 46.8152 1.2 -6.74783 1.64199e+06 -716593 1.40754e+06 1.12109e+06 1.5944e+06 -1.1081e+06
204 3 O 0.760681 37.0138 48.3864 -1.2 -8.9312 -1.27767e+06 -1.18223e+06 -2.71047e+06 -286078 -324657 1.28313e+06
205 1 Mg 1.75866 35.5867 54.6035 1.2 -8.2756 2.67274e+06 426268 1.00626e+06 588350 -857308 -525255
206 2 Si 1.65882 38.1324 56.3082 2.4 -32.0397 6.86675e+06 6.2234e+06 9.6078e+06 -463233 1.20285e+06 539298
207 3 O 1.45587 36.6036 56.4535 -1.2 -10.0701 -3.13049e+06 -3.04663e+06 -2.55629e+06 -400001 -545852 -450853
208 3 O 1.85132 39.2606 52.7264 -1.2 -9.68679 -2.67773e+06 -1.97113e+06 -4.30559e+06 -251511 -907083 -137467
209 3 O 0.239891 38.9626 55.8653 -1.2 -9.50647 -387507 -2.01571e+06 -2.89924e+06 -1.49248e+06 -829938 406887
210 3 O 2.84616 38.6988 55.6197 -1.2 -9.66736 -3.66128e+06 -3.3462e+06 -5.6306e+06 446925 2.04097e+06 562560
211 1 Mg 0.272384 37.8883 52.2029 1.2 -7.61432 -288637 -1.17672e+06 4.41369e+06 -1.30612e+06 1.35405e+06 -70251.1
212 1 Mg 2.31122 37.6122 49.4501 1.2 -7.61132 1.84931e+06 190784 643535 138370 -138103 -419596
213 2 Si 1.78573 39.934 51.2414 2.4 -32.2792 7.16988e+06 4.81461e+06 1.02356e+07 353020 908208 -1.03591e+06
214 3 O 1.89428 41.5006 51.3014 -1.2 -10.2589 -2.47635e+06 -2.19747e+06 -3.43331e+06 873691 -531766 937035
215 3 O 1.79249 38.8362 57.8803 -1.2 -9.46931 -1.69415e+06 -1.26921e+06 -2.97256e+06 -129431 -857294 1.29973e+06
216 3 O 0.469216 39.3015 50.6588 -1.2 -9.28053 -2.77658e+06 -2.3786e+06 -4.60475e+06 1.20636e+06 -763112 414931
217 1 Mg -2.69668 37.8889 52.3043 1.2 -7.44764 -450958 -330772 4.32345e+06 1.53398e+06 -1.24133e+06 -161009
218 3 O 3.0225 39.2866 50.4651 -1.2 -9.63957 -2.41444e+06 -2.15521e+06 -2.67083e+06 -369717 749775 222860
219 1 Mg -1.32058 37.8886 55.2207 1.2 -8.11086 191855 2.13053e+06 447370 -350412 91357 -1.25869e+06
220 2 Si -1.16202 35.7451 53.1964 2.4 -33.1614 6.9485e+06 4.96448e+06 1.13841e+07 646992 406770 -2.59243e+06
221 3 O -1.16572 34.1919 53.1213 -1.2 -9.75138 -4.38099e+06 -3.68865e+06 -5.23588e+06 1.80001e+06 750017 1.06649e+06
222 3 O -0.738054 37.1566 46.4176 -1.2 -7.96785 -2.49953e+06 -1.83875e+06 -3.2738e+06 -604080 -1.50484e+06 1.33136e+06
223 3 O -2.36575 36.3628 53.9501 -1.2 -9.02897 -3.20527e+06 -3.45922e+06 -4.58411e+06 -1.18183e+06 1.21758e+06 1.49204e+06
224 3 O 0.1416 36.5355 53.7807 -1.2 -9.06234 -3.17836e+06 -1.78334e+06 -4.4901e+06 2.12453e+06 -32338.2 1.61388e+06
225 1 Mg -2.62099 44.9927 57.521 1.2 -7.11543 -1.14697e+06 -278202 3.0305e+06 -751937 -2.47979e+06 -1.57775e+06
226 1 Mg -1.06993 44.8968 49.8343 1.2 -7.88868 57325.6 2.32618e+06 1.76829e+06 -221827 109761 279797
227 2 Si -0.596166 42.4103 47.9215 2.4 -33.6191 7.43212e+06 6.87384e+06 9.86971e+06 494676 2.30723e+06 -1.45536e+06
228 3 O -0.51472 43.9796 47.9853 -1.2 -9.12718 -1.91478e+06 -4.38356e+06 -2.89296e+06 464459 -1.92348e+06 328878
229 3 O -1.14475 41.2777 51.7649 -1.2 -9.4671 -1.31041e+06 -2.39785e+06 -4.23828e+06 -26612.2 651617 -495574
230 3 O -1.76671 41.8331 48.8226 -1.2 -9.15889 -489580 -3.50085e+06 -3.66521e+06 27702.6 -348817 -679386
231 1 Mg 0.447076 40.3473 46.8135 1.2 -6.68976 1.55668e+06 -455586 1.13851e+06 1.12432e+06 1.58842e+06 -1.24098e+06
232 3 O 0.866985 41.7666 48.385 -1.2 -9.04746 -1.10755e+06 -1.55276e+06 -2.3237e+06 -301898 -323863 1.32744e+06
233 1 Mg 1.75186 40.3152 54.5594 1.2 -7.62495 1.574e+06 1.34559e+06 1.06789e+06 542876 -872252 636889
234 2 Si 1.89247 42.9825 56.269 2.4 -32.0935 6.71995e+06 6.05863e+06 1.1712e+07 -126667 -1.53424e+06 -601904
235 3 O 1.95443 41.3771 56.4691 -1.2 -10.1484 -2.05225e+06 -459099 -3.26927e+06 565247 64779.7 -870735
236 3 O 1.95891 44.014 52.7248 -1.2 -9.65465 -2.29815e+06 -2.47786e+06 -4.58898e+06 40886.1 -54692 -611429
237 3 O 0.624701 43.6249 55.7166 -1.2 -9.44503 -3.75306e+06 -3.31913e+06 -6.30752e+06 -1.16244e+06 -1.40146e+06 1.07558e+06
238 3 O 3.16935 43.7316 55.6424 -1.2 -9.78161 -1.15503e+06 -1.15856e+06 -2.72304e+06 359805 -296298 639721
239 1 Mg 0.379928 42.6418 52.2013 1.2 -7.19965 -1.50997e+06 -1.38697e+06 4.18351e+06 -479476 2.19287e+06 425391
240 1 Mg 2.41752 42.366 49.4484 1.2 -7.44619 1.55363e+06 616399 255916 88732.1 -134651 -333892
241 2 Si 1.89374 44.6874 51.2398 2.4 -31.9359 5.55246e+06 5.26096e+06 1.09841e+07 566478 669144 -399017
242 3 O 2.00266 46.254 51.2996 -1.2 -10.3077 -2.48898e+06 -2.10413e+06 -3.96359e+06 764863 -540539 1.13662e+06
243 3 O 1.76266 43.6329 57.8694 -1.2 -9.37709 -1.7828e+06 -760615 -3.36364e+06 412581 -1.67849e+06 1.41956e+06
244 3 O 0.577464 44.0549 50.6567 -1.2 -9.55503 -2.28697e+06 -2.6105e+06 -4.80448e+06 954056 -903008 311039
245 1 Mg -2.58906 42.6425 52.3022 1.2 -7.06099 -1.20659e+06 -355707 4.14968e+06 1.40529e+06 -1.71644e+06 573178
246 3 O 3.13067 44.0398 50.464 -1.2 -9.90947 -1.84792e+06 -2.54881e+06 -2.38046e+06 -259302 1.00789e+06 -43897.8
247 1 Mg -0.955131 42.7323 55.0817 1.2 -7.8164 530991 1.26741e+06 963480 -486638 -766748 -1.18632e+06
248 2 Si -1.101 40.6228 53.3022 2.4 -32.327 4.80597e+06 5.60968e+06 1.1079e+07 1.24487e+06 215966 -1.32033e+06
249 3 O -1.21227 39.0672 53.264 -1.2 -9.67304 -2.2765e+06 -2.38252e+06 -3.73415e+06 1.52298e+06 275454 1.03109e+06
250 3 O -0.631421 41.9099 46.4159 -1.2 -8.05068 -2.36901e+06 -2.14644e+06 -2.96292e+06 -605608 -1.50253e+06 1.394e+06
251 3 O -2.33583 41.2582 53.9557 -1.2 -9.5551 -1.55787e+06 -4.11547e+06 -4.0706e+06 381873 1.23514e+06 -536474
252 3 O 0.208103 41.3145 53.9437 -1.2 -9.90263 -2.27483e+06 -3.64238e+06 -3.34346e+06 1.23331e+06 -231019 716647
253 1 Mg -2.66128 49.8772 57.3233 1.2 -6.88774 -1.13847e+06 -858259 1.84266e+06 -739713 -2.92383e+06 -1.03781e+06
254 1 Mg -0.961069 49.6502 49.8327 1.2 -7.84306 -240153 2.55678e+06 1.76255e+06 -179620 -2456.3 155724
255 2 Si -0.488083 47.1636 47.9198 2.4 -33.4048 7.10047e+06 7.22659e+06 9.50653e+06 468302 2.27044e+06 -1.06766e+06
256 3 O -0.40607 48.7329 47.9837 -1.2 -9.21897 -1.75309e+06 -4.55092e+06 -2.73681e+06 467160 -1.8897e+06 213321
257 3 O -1.0361 46.031 51.7632 -1.2 -9.3781 -2.71789e+06 -2.55539e+06 -9.71014e+06 334519 882573 169125
258 3 O -1.65866 46.5866 48.821 -1.2 -9.28668 -272687 -3.66204e+06 -3.49362e+06 -49.3068 -311213 -966831
259 1 Mg 0.554124 45.1001 46.8117 1.2 -6.57857 1.38296e+06 -156687 836031 1.1217e+06 1.59749e+06 -1.11326e+06
260 3 O 0.974961 46.5195 48.3832 -1.2 -9.17281 -919762 -1.73859e+06 -2.10606e+06 -275332 -344684 1.13027e+06
261 1 Mg 2.11178 45.2454 54.5606 1.2 -7.55549 1.9846e+06 775448 1.30201e+06 -541798 295924 401358
262 2 Si 1.85 47.7927 56.3632 2.4 -31.3599 7.59838e+06 4.11142e+06 1.04743e+07 -1.20478e+06 1.0081e+06 243642
263 3 O 1.75239 46.29 56.5489 -1.2 -10.3762 -3.31326e+06 -3.6111e+06 -3.07745e+06 -436782 -1.27624e+06 -1.08695e+06
264 3 O 2.0677 48.7672 52.7232 -1.2 -10.1181 -1.47691e+06 -2.16723e+06 -3.55377e+06 216007 64859.8 -424993
265 3 O 0.417305 48.4912 55.8124 -1.2 -9.56789 896986 -3.8745e+06 -4.03414e+06 -2.56444e+06 141211 491002
266 3 O 3.11369 48.4486 55.7189 -1.2 -10.6754 -2.11162e+06 -2.50328e+06 -4.51367e+06 1.0908e+06 731497 825393
267 1 Mg 0.488584 47.395 52.1996 1.2 -7.13575 -954463 -1.5095e+06 4.03076e+06 -1.00779e+06 1.65342e+06 -235355
268 1 Mg 2.52544 47.1195 49.4466 1.2 -7.34248 1.37916e+06 700915 187385 150562 -67160.7 -206313
269 2 Si 2.00256 49.4407 51.2382 2.4 -31.5167 5.65516e+06 5.86488e+06 9.52602e+06 384601 1.04827e+06 -502619
270 3 O 2.11156 51.0073 51.2982 -1.2 -10.6112 -1.82096e+06 -2.56203e+06 -3.3353e+06 1.01393e+06 -319918 624268
271 3 O 1.81773 48.5103 57.8821 -1.2 -9.30293 -2.45134e+06 -3.09725e+06 -2.83889e+06 715385 -867820 132438
272 3 O 0.686344 48.8082 50.655 -1.2 -9.64713 -2.60872e+06 -2.67712e+06 -4.26533e+06 1.00242e+06 -612904 461921