ITEM: TIMESTEP
56800
ITEM: NUMBER OF ATOMS
10500
ITEM: BOX BOUNDS xy xz yz pp pp pp
0.0000000000000000e+00 8.9687999999999999e+00 2.9895999999999998e+00
0.0000000000000000e+00 1.1872499999999999e+02 0.0000000000000000e+00
0.0000000000000000e+00 2.5297749999999999e+02 0.0000000000000000e+00
ITEM: ATOMS id type element xu yu zu q c_pe c_s[1] c_s[2] c_s[3] c_s[4] c_s[5] c_s[6]
1 1 Mg -3.2716 7.01429 57.5254 1.2 -7.65159 -2.64175e+06 -3.13485e+06 5.05959e+06 -2.5282e+06 -1.90821e+06 77547.2
2 1 Mg -1.82655 6.90154 50.0912 1.2 -7.86514 -380095 879228 1.30286e+06 -85355 -341904 1.48048e+06
3 2 Si -0.257935 3.96038 48.0876 2.4 -36.0897 1.01258e+07 8.03204e+06 1.15189e+07 826678 1.952e+06 1.42455e+06
4 3 O -0.335812 5.46814 47.6264 -1.2 -7.91129 -2.89948e+06 -2.24536e+06 -2.73542e+06 137379 -972966 -351295
5 3 O -2.03793 3.43377 51.8941 -1.2 -8.23624 -3.461e+06 -2.92386e+06 -6.88413e+06 -928812 1.66474e+06 -2.20535e+06
6 3 O -1.54015 3.53929 48.9521 -1.2 -8.20636 -1.42427e+06 -1.18919e+06 -4.79108e+06 26262.4 -685009 -138622
7 1 Mg 1.82954 2.54582 47.1376 1.2 -8.07495 2.74292e+06 -891235 1.13677e+06 1.14906e+06 843072 501939
8 3 O 1.22989 3.66364 48.7877 -1.2 -7.95191 -1.79041e+06 -1.95536e+06 -4.06943e+06 -483436 -754196 -899451
9 1 Mg 0.974287 2.34396 54.5362 1.2 -8.59369 1.90075e+06 -87645.9 3.21385e+06 293585 -398396 1.50849e+06
10 2 Si 1.26891 5.00568 56.5363 2.4 -32.4782 7.43446e+06 4.57302e+06 1.24821e+07 819071 19345 2.82143e+06
11 3 O 1.33689 3.45581 56.5894 -1.2 -9.45332 -3.98489e+06 -1.31908e+06 -5.56239e+06 700981 -422767 -1.15154e+06
12 3 O 1.10813 6.07342 52.8172 -1.2 -9.37406 -2.7328e+06 -3.86106e+06 -5.79216e+06 -135646 -504199 -2.92207e+06
13 3 O -0.0533028 5.50045 55.8486 -1.2 -9.40787 -999833 -3.99552e+06 -3.50794e+06 -445461 -627586 -864379
14 3 O 2.58393 5.71579 55.7997 -1.2 -9.35147 -403581 -3.00562e+06 -4.8138e+06 1.09044e+06 773263 -859284
15 1 Mg -0.459401 4.67631 52.2426 1.2 -7.91471 -172352 -2.33577e+06 5.46585e+06 -1.08929e+06 1.46506e+06 1.50073e+06
16 1 Mg 2.79456 3.9971 49.9987 1.2 -8.48298 3.63642e+06 -508762 2.22563e+06 -595493 881703 -937127
17 2 Si 1.16169 6.59457 51.2556 2.4 -32.9303 5.69318e+06 5.72957e+06 1.27015e+07 109727 1.06013e+06 3.50882e+06
18 3 O 1.28989 8.18905 51.2909 -1.2 -10.0048 -1.82022e+06 -1.15675e+06 -4.38353e+06 412223 -1.12677e+06 624368
19 3 O 1.31699 5.69196 58.0428 -1.2 -9.56508 -1.78638e+06 -2.3624e+06 -4.51049e+06 -599754 -849081 769620
20 3 O -0.184847 6.06029 50.6845 -1.2 -9.04449 -2.60484e+06 -2.91413e+06 -4.99595e+06 1.39811e+06 -636278 -1.52977e+06
21 1 Mg -3.49704 4.67769 52.6661 1.2 -7.71252 -1.48852e+06 -2.71771e+06 3.02649e+06 1.52505e+06 -1.68708e+06 1.57832e+06
22 3 O 2.48581 5.93312 50.6539 -1.2 -9.4713 -2.4899e+06 -1.35531e+06 -3.65255e+06 -1.48839e+06 -510054 -944527
23 1 Mg -1.84428 4.64624 55.1926 1.2 -8.16887 2.01377e+06 -517973 1.43884e+06 270775 353096 -439044
24 2 Si -1.91969 2.71969 53.3788 2.4 -34.0726 6.81872e+06 1.19341e+06 1.33941e+07 2.37316e+06 1.25768e+06 521808
25 3 O -1.91634 1.18502 53.175 -1.2 -8.84895 -4.14725e+06 -1.78492e+06 -5.18089e+06 1.32514e+06 570038 717928
26 3 O -0.0467762 2.97103 46.8385 -1.2 -6.9632 -3.04887e+06 -1.78889e+06 -3.22874e+06 -991854 -2.00048e+06 -541278
27 3 O -3.12915 3.2417 54.0438 -1.2 -8.8895 -4.82578e+06 -4.15256e+06 -9.02838e+06 405277 2.82307e+06 -491000
28 3 O -0.565394 3.38997 53.9688 -1.2 -8.94888 -3.00836e+06 -2.39298e+06 -6.24306e+06 1.37426e+06 -712753 -649671
29 1 Mg -2.92631 11.6915 57.287 1.2 -7.45841 -617550 -1.99616e+06 4.62411e+06 331235 -1.248e+06 933833
30 1 Mg -1.75014 11.5838 49.8362 1.2 -7.85979 46358.2 1.75714e+06 2.4793e+06 -318389 313220 1.05302e+06
31 2 Si -1.18003 9.02138 47.9309 2.4 -33.6961 7.31763e+06 7.12568e+06 9.74922e+06 246595 2.62881e+06 126325
32 3 O -1.23224 10.5991 47.9811 -1.2 -9.13825 -1.84825e+06 -3.53566e+06 -2.8227e+06 652172 -1.93655e+06 71348.9
33 3 O -1.79016 8.01447 51.8693 -1.2 -9.88277 -1.90079e+06 -394302 -3.88197e+06 -9723.35 793119 -2.57469e+06
34 3 O -2.30986 8.37215 48.8528 -1.2 -9.3376 -462863 -2.45862e+06 -3.42782e+06 -339647 -571181 -766431
35 1 Mg 0.154883 7.08234 46.8007 1.2 -7.31238 1.55654e+06 -225064 867125 944623 1.73241e+06 -1.2068e+06
36 3 O 0.325447 8.50934 48.3809 -1.2 -8.96678 -859514 -1.92889e+06 -2.79385e+06 -34108.9 -856970 450895
37 1 Mg 1.06167 6.84435 54.6401 1.2 -8.09716 1.79024e+06 169104 685525 727307 -577843 1.85977e+06
38 2 Si 1.26297 9.57492 56.3387 2.4 -33.2654 4.59448e+06 1.52226e+06 1.28705e+07 788297 1.21673e+06 2.10689e+06
39 3 O 1.17295 8.07644 56.581 -1.2 -9.4763 -2.5509e+06 -4.37587e+06 -6.30913e+06 945112 -1.76353e+06 -2.08113e+06
40 3 O 1.28624 10.7248 52.7351 -1.2 -9.84718 -1.53892e+06 -2.10857e+06 -5.77638e+06 -204886 -851727 -1.49476e+06
41 3 O -0.0458984 10.2266 55.8381 -1.2 -9.20439 -3.6232e+06 -2.55896e+06 -6.80531e+06 661822 -2.09867e+06 -144784
42 3 O 2.44541 10.3099 55.6105 -1.2 -9.36471 -3.55433e+06 -2.1588e+06 -7.91139e+06 817428 2.65921e+06 -556774
43 1 Mg -0.262694 9.34741 52.2523 1.2 -7.08829 -1.02277e+06 -1.18018e+06 6.00249e+06 -1.37371e+06 1.28553e+06 1.42854e+06
44 1 Mg 1.87648 9.01537 49.4629 1.2 -7.4418 1.20888e+06 405038 523559 210803 -292182 279057
45 2 Si 1.21415 11.3799 51.2378 2.4 -31.8151 5.1821e+06 4.33857e+06 1.23315e+07 417385 545381 1.15322e+06
46 3 O 1.31634 12.9512 51.3023 -1.2 -10.3311 -2.10145e+06 -1.08312e+06 -4.56755e+06 608082 -813211 651572
47 3 O 1.4518 10.248 57.7839 -1.2 -8.83033 -2.60321e+06 -3.00852e+06 -7.96437e+06 750983 -799733 -218096
48 3 O -0.115718 10.7564 50.681 -1.2 -9.56682 -1.75823e+06 -2.21235e+06 -4.90715e+06 1.24045e+06 -929445 -823832
49 1 Mg -3.26386 9.35564 52.3622 1.2 -7.02936 -1.109e+06 -1.25608e+06 5.09379e+06 1.76546e+06 -1.46507e+06 1.3233e+06
50 3 O 2.45216 10.7265 50.4558 -1.2 -10.0431 -1.67612e+06 -1.76784e+06 -2.40565e+06 -781541 884025 -225583
51 1 Mg -1.86898 9.35216 55.3168 1.2 -7.887 1.1433e+06 725318 1.18117e+06 676223 601465 -272176
52 2 Si -1.81818 7.27808 53.3972 2.4 -32.0648 9.06628e+06 5.1224e+06 1.33277e+07 779574 -55111.5 1.29725e+06
53 3 O -2.00552 5.68185 53.3635 -1.2 -9.68075 -4.06996e+06 -1.61079e+06 -6.23555e+06 1.10407e+06 12873.2 -2.03355e+06
54 3 O -1.19417 8.46968 46.4488 -1.2 -7.90466 -2.30628e+06 -2.00493e+06 -2.98029e+06 -543223 -1.74372e+06 1.02342e+06
55 3 O -3.18509 7.9389 54.0029 -1.2 -9.17411 -317154 -2.99124e+06 -4.07558e+06 -943718 -352130 -733311
56 3 O -0.550414 7.9003 54.1764 -1.2 -9.50326 -1.16727e+06 -2.23206e+06 -3.182e+06 1.32452e+06 184418 -574671
57 1 Mg -2.8404 16.4131 57.2681 1.2 -6.8951 -1.22325e+06 -2.83205e+06 5.24549e+06 -1.359e+06 -2.06336e+06 -1.42323e+06
58 1 Mg -1.6714 16.3544 49.8412 1.2 -7.88952 -165696 1.54446e+06 2.84071e+06 -196620 336321 118598
59 2 Si -1.18567 13.8526 47.9314 2.4 -33.3791 7.02758e+06 5.72788e+06 1.09572e+07 496843 2.26756e+06 -548171
60 3 O -1.09664 15.4205 47.9915 -1.2 -9.24548 -1.60064e+06 -3.61872e+06 -3.49011e+06 422312 -1.93836e+06 130297
61 3 O -1.73493 12.7491 51.7772 -1.2 -9.90639 -1.168e+06 -656207 -4.26438e+06 481726 470784 -1.37111e+06
62 3 O -2.36115 13.2717 48.8238 -1.2 -9.29351 -378540 -2.75254e+06 -4.17304e+06 -124115 -378568 -1.26456e+06
63 1 Mg -0.159928 11.7639 46.8533 1.2 -6.58959 1.41848e+06 -619764 1.27025e+06 1.12455e+06 1.57871e+06 -965997
64 3 O 0.2623 13.1866 48.413 -1.2 -9.18767 -866992 -876213 -2.92279e+06 -184090 -286938 821801
65 1 Mg 1.24574 11.7166 54.5825 1.2 -7.95933 871821 595582 1.2678e+06 306486 72290.9 1.21974e+06
66 2 Si 1.47786 14.5687 56.2982 2.4 -31.9056 4.67751e+06 5.47103e+06 1.30674e+07 -480860 -863755 -565792
67 3 O 1.41749 12.8953 56.4846 -1.2 -9.835 -2.86321e+06 1.62701e+06 -5.91536e+06 -441591 1.39233e+06 -605986
68 3 O 1.36565 15.4813 52.729 -1.2 -9.79614 -2.86448e+06 -942710 -5.78305e+06 483247 -140220 -687123
69 3 O 0.20385 15.2006 55.6191 -1.2 -9.58019 -1.10695e+06 -2.50946e+06 -5.61087e+06 -223741 -1.1535e+06 624600
70 3 O 2.79516 15.1074 55.6459 -1.2 -9.94499 -1.78454e+06 -2.84532e+06 -5.30608e+06 716155 1.13926e+06 484062
71 1 Mg -0.206989 14.1049 52.2121 1.2 -7.29704 -1.23077e+06 -1.44619e+06 5.30634e+06 -1.1977e+06 1.93002e+06 556137
72 1 Mg 1.82591 13.8102 49.4556 1.2 -7.34849 1.46524e+06 -35745.2 892314 140010 -129281 230496
73 2 Si 1.29285 16.1518 51.2434 2.4 -31.7976 6.46947e+06 3.33497e+06 1.17727e+07 148972 -58231.7 -656479
74 3 O 1.39496 17.7199 51.3047 -1.2 -10.6266 -1.75612e+06 -1.79137e+06 -3.8113e+06 563849 -138930 1.02801e+06
75 3 O 1.43763 15.1641 57.8039 -1.2 -9.82198 -1.76964e+06 -3.06794e+06 -5.97864e+06 -3440.95 -494607 1.50833e+06
76 3 O -0.0269106 15.5178 50.6688 -1.2 -9.39734 -2.39166e+06 -1.60293e+06 -6.05021e+06 1.07811e+06 -290520 10405.7
77 1 Mg -3.18391 14.1057 52.3125 1.2 -7.15203 -792474 -1.79306e+06 4.92152e+06 1.99816e+06 -1.8168e+06 572446
78 3 O 2.52432 15.503 50.4579 -1.2 -9.92559 -2.25732e+06 -1.37082e+06 -2.98623e+06 -315544 706727 114412
79 1 Mg -1.55903 14.0647 55.1682 1.2 -7.67122 1.28599e+06 754409 1.46831e+06 623150 442386 -1.48483e+06
80 2 Si -1.75836 11.9995 53.2535 2.4 -31.7924 7.33857e+06 2.83109e+06 1.32946e+07 -607416 283841 -1.44324e+06
81 3 O -1.69278 10.4985 53.3913 -1.2 -10.0573 -3.16553e+06 -2.31462e+06 -4.38693e+06 -157011 -31809.4 -981268
82 3 O -1.21337 13.3381 46.4311 -1.2 -8.14402 -2.28004e+06 -1.73225e+06 -3.31164e+06 -630934 -1.45544e+06 1.1065e+06
83 3 O -3.12018 12.6727 53.913 -1.2 -9.44841 -538770 -2.4222e+06 -4.1225e+06 -1.27012e+06 -161602 510971
84 3 O -0.473259 12.6495 54.0735 -1.2 -9.64243 -224053 -2.92117e+06 -2.7511e+06 334339 386698 312985
85 1 Mg -2.80053 21.1265 57.4017 1.2 -6.09769 -2.49935e+06 -137519 5.30294e+06 -391915 -1.57397e+06 -141973
86 1 Mg -1.5831 21.1217 49.8405 1.2 -7.61078 -417855 2.09388e+06 2.05029e+06 -245704 65762.2 504413
87 2 Si -1.09384 18.6291 47.9287 2.4 -33.1019 6.587e+06 6.5086e+06 1.02342e+07 482547 2.34383e+06 -1.04551e+06
88 3 O -1.02071 20.1985 47.9911 -1.2 -9.39134 -1.46926e+06 -4.15317e+06 -3.03031e+06 465506 -1.9293e+06 105537
89 3 O -1.65002 17.5002 51.771 -1.2 -9.93497 -908730 -2.7989e+06 -5.49239e+06 540688 -550757 343897
90 3 O -2.26174 18.0434 48.8281 -1.2 -9.45132 -93497.5 -3.18847e+06 -3.84329e+06 10310.3 -385951 -802222
91 1 Mg -0.0440435 16.5651 46.8269 1.2 -6.47662 1.17144e+06 -588362 1.2891e+06 1.13571e+06 1.576e+06 -1.04025e+06
92 3 O 0.37001 17.9877 48.3925 -1.2 -9.31536 -651049 -1.30976e+06 -2.59284e+06 -304777 -323261 1.15425e+06
93 1 Mg 1.3113 16.5977 54.5 1.2 -7.68357 342101 -139120 622711 741960 82691 1.05206e+06
94 2 Si 1.44254 19.1613 56.369 2.4 -31.0705 3.52401e+06 5.13132e+06 1.14897e+07 225589 -910978 -1.23797e+06
95 3 O 1.46416 17.528 56.4318 -1.2 -10.2194 -2.33669e+06 -885469 -5.24389e+06 -1.392e+06 394180 -201998
96 3 O 1.45147 20.239 52.7294 -1.2 -10.0459 -1.44521e+06 -2.32825e+06 -5.06551e+06 -974791 -606818 -857633
97 3 O 0.32588 19.9298 55.7114 -1.2 -10.2369 -2.9417e+06 -2.32889e+06 -4.35808e+06 287714 -912492 946011
98 3 O 2.80084 19.7468 55.7493 -1.2 -9.99442 -1.32491e+06 -3.33937e+06 -3.47489e+06 1.40331e+06 115258 1.24903e+06
99 1 Mg -0.126194 18.8651 52.2079 1.2 -6.78798 -2.41371e+06 -1.19919e+06 4.58284e+06 -649322 2.19899e+06 202126
100 1 Mg 1.92402 18.5815 49.4545 1.2 -7.14187 1.0536e+06 420885 421851 131822 -181031 -156846
101 2 Si 1.38106 20.9117 51.2443 2.4 -31.2696 4.45454e+06 4.74183e+06 1.15648e+07 659654 1.14751e+06 21226.5
102 3 O 1.48527 22.4795 51.3054 -1.2 -10.6474 -1.70749e+06 -1.93857e+06 -4.25298e+06 915321 -535080 952640
103 3 O 1.42718 19.6798 57.9238 -1.2 -10.5256 -1.33125e+06 -1.54333e+06 -5.74466e+06 919936 223658 1.02187e+06
104 3 O 0.0615419 20.2804 50.6669 -1.2 -9.8828 -1.79912e+06 -2.40354e+06 -4.81704e+06 991562 -922345 130548
105 1 Mg -3.09665 18.8643 52.3122 1.2 -6.47338 -1.82317e+06 -729637 4.53087e+06 1.59144e+06 -1.83652e+06 794998
106 3 O 2.61548 20.2646 50.4626 -1.2 -10.2213 -1.31724e+06 -2.20584e+06 -2.633e+06 -375542 948704 -289405
107 1 Mg -1.53139 18.8192 55.0362 1.2 -7.25639 1.16878e+06 1.26637e+06 743352 83806.3 -18956.1 -1.6973e+06
108 2 Si -1.67792 16.8614 53.253 2.4 -31.7349 3.9363e+06 3.94611e+06 1.24372e+07 707616 237425 -1.43661e+06
109 3 O -1.59739 15.2533 53.1097 -1.2 -9.74764 -2.5433e+06 145866 -6.28916e+06 -262153 796750 693874
110 3 O -1.12868 18.1227 46.4249 -1.2 -8.2652 -2.03876e+06 -1.98193e+06 -3.10158e+06 -603355 -1.49854e+06 1.19729e+06
111 3 O -2.85893 17.4181 53.9861 -1.2 -10.193 -2.86591e+06 -3.82689e+06 -5.60051e+06 367325 1.79595e+06 -138613
112 3 O -0.309524 17.4521 53.8992 -1.2 -9.88359 -1.04462e+06 -3.94707e+06 -4.96004e+06 1.34703e+06 -690715 874569
113 1 Mg -2.69745 25.8684 57.2766 1.2 -6.72996 -3.78204e+06 -1.36574e+06 4.0099e+06 -740290 -1.81337e+06 -139883
114 1 Mg -1.48778 25.88 49.8402 1.2 -7.61403 -655969 2.16957e+06 2.20829e+06 -144700 215708 500119
115 2 Si -1.00491 23.3922 47.9274 2.4 -32.9339 6.32339e+06 6.86132e+06 9.8844e+06 490279 2.28859e+06 -400695
116 3 O -0.927602 24.9615 47.9909 -1.2 -9.43753 -1.37401e+06 -4.2913e+06 -2.98921e+06 453256 -1.9108e+06 -168972
117 3 O -1.55795 22.2588 51.7696 -1.2 -10.0591 -1.64321e+06 -1.66336e+06 -5.99942e+06 -286218 1.09838e+06 -161721
118 3 O -2.17411 22.8111 48.8277 -1.2 -9.54906 127296 -3.46567e+06 -3.67225e+06 -24966.2 -315822 -1.2121e+06
119 1 Mg 0.0423997 21.3296 46.8225 1.2 -6.35629 1.01523e+06 -303245 980525 1.12498e+06 1.59455e+06 -871262
120 3 O 0.458537 22.7495 48.3911 -1.2 -9.42673 -519705 -1.56405e+06 -2.30176e+06 -273253 -351172 824260
121 1 Mg 1.53095 21.3741 54.6218 1.2 -7.26046 -68244.8 321247 836785 -83590.7 151002 -123720
122 2 Si 1.62786 23.845 56.3918 2.4 -29.5027 3.64676e+06 5.94929e+06 1.21954e+07 -165742 193440 1.6399e+06
123 3 O 1.63299 22.2926 56.4292 -1.2 -11.462 -1.59936e+06 -1.40678e+06 -3.6831e+06 -1.47059e+06 568575 -1.57612e+06
124 3 O 1.54441 24.9963 52.7297 -1.2 -10.5372 -1.32515e+06 -1.74811e+06 -5.09274e+06 638765 220990 -1.07e+06
125 3 O 0.520721 24.7017 55.6098 -1.2 -11.0589 120257 -335490 -3.33018e+06 -538879 64407.4 -1.16827e+06
126 3 O 3.09135 24.4472 55.8347 -1.2 -10.304 1.86378e+06 -2.03596e+06 -5.12862e+06 1.54322e+06 -498204 -1.32114e+06
127 1 Mg -0.0335968 23.6229 52.2067 1.2 -6.66587 -1.40532e+06 -1.03757e+06 3.63794e+06 -1.70065e+06 2.05126e+06 899962
128 1 Mg 2.01073 23.3445 49.4541 1.2 -7.06411 920274 532378 328209 119753 -85726.6 95035.9
129 2 Si 1.47594 25.6699 51.2449 2.4 -30.8759 5.06748e+06 4.99039e+06 9.97836e+06 -37414.4 286065 294715
130 3 O 1.58172 27.2371 51.3054 -1.2 -10.9812 -1.06233e+06 -2.42427e+06 -3.53112e+06 770140 36790.1 36790.3
131 3 O 1.72668 24.6707 57.8726 -1.2 -10.5151 -1.89325e+06 -1.90768e+06 -5.06508e+06 497317 1.20179e+06 1.85873e+06
132 3 O 0.157925 25.0378 50.6651 -1.2 -9.84078 -1.99966e+06 -2.36922e+06 -4.82894e+06 1.18542e+06 -420647 -332989
133 1 Mg -3.00341 23.6231 52.3098 1.2 -6.67655 -2.30683e+06 -72814.6 3.94101e+06 1.746e+06 -1.74903e+06 152905
134 3 O 2.71149 25.0232 50.4656 -1.2 -10.2228 -1.67195e+06 -2.20824e+06 -2.64977e+06 -328230 481108 -251085
135 1 Mg -1.12553 23.6788 55.0368 1.2 -6.5403 -795938 1.71696e+06 1.51371e+06 -97246.5 -691135 -832673
136 2 Si -1.41866 21.5093 53.1948 2.4 -30.9075 5.91205e+06 3.83609e+06 1.14174e+07 432655 301309 -2.04062e+06
137 3 O -1.47913 19.9544 53.1971 -1.2 -10.724 -2.74504e+06 -2.10876e+06 -4.86141e+06 2.50924e+06 899551 -140898
138 3 O -1.03938 22.8897 46.4223 -1.2 -8.35273 -1.88866e+06 -2.20314e+06 -2.8898e+06 -605701 -1.49817e+06 946159
139 3 O -2.7678 22.0059 53.8547 -1.2 -9.84024 -182165 -3.83183e+06 -5.92817e+06 -864191 931266 124747
140 3 O -0.117085 22.3208 53.8133 -1.2 -10.7394 -300724 -1.586e+06 -3.85208e+06 1.42064e+06 168497 1.25629e+06
141 1 Mg -2.7365 30.7469 57.5174 1.2 -6.54136 -2.83826e+06 -1.61562e+06 4.96688e+06 -1.96449e+06 -1.70928e+06 -1.02404e+06
142 1 Mg -1.38776 30.6357 49.8391 1.2 -7.65379 -349061 1.89673e+06 2.22868e+06 -208466 206485 1.40323e+06
143 2 Si -0.907929 28.1491 47.9262 2.4 -32.8849 6.23977e+06 7.12618e+06 9.62762e+06 498552 2.34227e+06 407782
144 3 O -0.829229 29.7184 47.99 -1.2 -9.40834 -1.44713e+06 -4.24269e+06 -3.04009e+06 459424 -1.93885e+06 -733086
145 3 O -1.45946 27.0152 51.769 -1.2 -10.5553 87623.8 -4.35699e+06 -3.73642e+06 45621.2 -21066.3 -144099
146 3 O -2.07744 27.5697 48.8273 -1.2 -9.61453 195753 -3.72766e+06 -3.38701e+06 24048.3 -366169 -1.55061e+06
147 1 Mg 0.137907 26.087 46.819 1.2 -6.31444 947467 -194074 879561 1.12669e+06 1.5866e+06 -577799
148 3 O 0.55579 27.5065 48.3893 -1.2 -9.46908 -412538 -1.76285e+06 -2.14235e+06 -306138 -324774 459795
149 1 Mg 1.70953 26.1303 54.4689 1.2 -6.67592 -1.69273e+06 1.67681e+06 1.40399e+06 -524743 820722 1.35054e+06
150 2 Si 1.75636 28.6998 56.5974 2.4 -30.7481 1.80143e+06 2.0357e+06 1.21482e+07 -828597 213676 657770
151 3 O 1.9166 27.2043 56.6536 -1.2 -10.8213 -1.6984e+06 -5.27384e+06 -6.37847e+06 -528434 31150.7 925465
152 3 O 1.6432 29.7522 52.7291 -1.2 -10.3174 -1.31651e+06 -3.24752e+06 -4.9658e+06 -1.34403e+06 -816372 -1.65799e+06
153 3 O 0.458918 29.3562 55.9857 -1.2 -10.4237 -1.74761e+06 -3.30886e+06 -5.01258e+06 -1.12698e+06 -152491 -703817
154 3 O 2.94021 29.3254 55.7638 -1.2 -10.2876 -1.53479e+06 -4.71149e+06 -4.3116e+06 703164 1.2254e+06 -248834
155 1 Mg 0.0647462 28.3794 52.2059 1.2 -6.48126 -2.87213e+06 -938650 4.62355e+06 -1.47797e+06 2.18477e+06 1.50547e+06
156 1 Mg 2.10696 28.1021 49.4531 1.2 -6.97417 794690 794995 53614.3 100571 -199640 658823
157 2 Si 1.57592 30.4257 51.2442 2.4 -31.2996 4.70201e+06 4.66093e+06 1.14034e+07 704018 837700 2.18928e+06
158 3 O 1.68288 31.9926 51.3043 -1.2 -10.3731 -2.03029e+06 -1.55938e+06 -5.10994e+06 922958 -1.29994e+06 -102369
159 3 O 1.82991 29.3421 58.0685 -1.2 -10.1269 -1.40115e+06 -3.77775e+06 -8.60218e+06 534076 -579526 1.68046e+06
160 3 O 0.258524 29.7935 50.6632 -1.2 -9.88147 -1.62844e+06 -2.38829e+06 -4.99865e+06 1.08942e+06 -769787 -1.01545e+06
161 1 Mg -2.90462 28.3797 52.308 1.2 -6.11882 -2.37955e+06 -910280 4.46198e+06 1.93509e+06 -1.8934e+06 1.67457e+06
162 3 O 2.81205 29.7787 50.4664 -1.2 -10.2865 -1.41807e+06 -2.24616e+06 -2.56284e+06 -298424 964721 -1.2736e+06
163 1 Mg -1.34619 28.4439 55.2123 1.2 -6.7676 684138 802528 1.31188e+06 252915 193874 -1.26059e+06
164 2 Si -1.43239 26.4633 53.2724 2.4 -29.5754 3.36976e+06 6.07519e+06 1.23753e+07 1.66066e+06 778843 2.51681e+06
165 3 O -1.56086 24.8583 53.0841 -1.2 -10.7701 -1.03748e+06 726615 -4.9613e+06 276949 725908 1.18788e+06
166 3 O -0.943026 27.648 46.4208 -1.2 -8.36887 -1.85781e+06 -2.27672e+06 -2.83024e+06 -606052 -1.50616e+06 593193
167 3 O -2.63791 27.0859 54.0536 -1.2 -11.1455 359626 -3.58114e+06 -4.20991e+06 -254663 1.02944e+06 -1.37905e+06
168 3 O 0.0304789 27.1102 53.9093 -1.2 -10.6489 3.64264e+06 -2.19453e+06 -3.1426e+06 1.62018e+06 865219 896.315
169 1 Mg -2.85398 35.442 57.3481 1.2 -7.5492 -883495 -1.498e+06 4.25112e+06 -1.06748e+06 -1.76776e+06 -1.51538e+06
170 1 Mg -1.28421 35.3899 49.8376 1.2 -7.91822 -33587.6 1.29332e+06 2.94084e+06 -131078 507172 1.00982e+06
171 2 Si -0.807101 32.9036 47.9247 2.4 -33.2317 6.79269e+06 5.92252e+06 1.08375e+07 503499 2.35213e+06 970619
172 3 O -0.727174 34.4729 47.9885 -1.2 -9.21803 -1.72258e+06 -3.65039e+06 -3.66907e+06 451290 -1.95861e+06 -690938
173 3 O -1.35735 31.7701 51.768 -1.2 -9.9157 -2.1985e+06 -2.68616e+06 -7.27729e+06 184083 845932 -888375
174 3 O -1.97695 32.3253 48.826 -1.2 -9.41568 -144294 -3.04711e+06 -4.03408e+06 -10100.8 -343695 -2.02168e+06
175 1 Mg 0.237665 30.8412 46.8168 1.2 -6.38676 1.06269e+06 -449863 1.13959e+06 1.12373e+06 1.59734e+06 -122766
176 3 O 0.656562 32.2608 48.3877 -1.2 -9.29308 -678212 -1.18498e+06 -2.72401e+06 -279751 -339561 41781.6
177 1 Mg 1.69844 30.6165 54.5832 1.2 -7.0724 560626 659505 1.77744e+06 -463271 -4751.68 48555.7
178 2 Si 1.79505 33.2449 56.1458 2.4 -30.6476 4.26382e+06 3.58134e+06 1.51952e+07 1.41939e+06 -713174 127365
179 3 O 1.79008 31.7552 56.4739 -1.2 -10.8828 -828888 -2.38886e+06 -4.9752e+06 619806 80727.2 -1.2596e+06
180 3 O 1.74574 34.5067 52.7279 -1.2 -9.78906 -2.62708e+06 -1.40628e+06 -5.11317e+06 982307 -797885 -1.61973e+06
181 3 O 0.520351 34.0192 55.6502 -1.2 -10.3026 -3.38506e+06 -1.84632e+06 -7.37615e+06 -1.47111e+06 -932227 -347661
182 3 O 3.00387 34.1026 55.5205 -1.2 -10.0094 -1.1854e+06 -939963 -5.19648e+06 376953 449092 -144363
183 1 Mg 0.167046 33.1343 52.2045 1.2 -7.23555 -1.47741e+06 -1.31222e+06 4.93514e+06 -1.3634e+06 1.76226e+06 1.31865e+06
184 1 Mg 2.20727 32.8578 49.4516 1.2 -7.25743 1.25035e+06 -39294.7 900129 84782.8 -179117 892668
185 2 Si 1.67943 35.1802 51.2429 2.4 -31.9287 6.23975e+06 3.22831e+06 1.22596e+07 -188918 -421583 1.44156e+06
186 3 O 1.78736 36.747 51.303 -1.2 -10.4164 -2.01794e+06 -1.27488e+06 -4.43198e+06 447297 144729 8696.6
187 3 O 1.77333 34.1251 57.7953 -1.2 -9.20353 -2.58826e+06 -1.43525e+06 -2.47601e+06 -506676 -647807 3.16676e+06
188 3 O 0.362533 34.5479 50.661 -1.2 -9.38505 -2.15969e+06 -1.70323e+06 -6.20916e+06 1.1564e+06 -380813 -1.05479e+06
189 1 Mg -2.80215 33.1347 52.3062 1.2 -7.06506 -1.16945e+06 -2.25186e+06 3.90596e+06 2.11708e+06 -1.84609e+06 1.94741e+06
190 3 O 2.91593 34.533 50.466 -1.2 -9.97689 -2.33051e+06 -1.36325e+06 -3.05384e+06 -210354 890820 -748865
191 1 Mg -1.23132 33.2555 55.2217 1.2 -7.21588 -1.94469e+06 1.53172e+06 2.29463e+06 -694302 -160440 -715382
192 2 Si -1.38216 31.1154 53.1807 2.4 -31.2094 5.94486e+06 3.90781e+06 1.05332e+07 -26515.3 379520 1.1013e+06
193 3 O -1.34652 29.5637 53.1799 -1.2 -10.8757 -1.53978e+06 -1.413e+06 -4.0138e+06 620792 595456 412224
194 3 O -0.842495 32.4028 46.4192 -1.2 -8.2603 -2.03222e+06 -1.87029e+06 -3.23606e+06 -606525 -1.50948e+06 303292
195 3 O -2.83881 31.7095 53.7043 -1.2 -9.75684 -369200 -3.25609e+06 -5.36674e+06 -1.60073e+06 -377566 15457
196 3 O -0.177022 31.8316 53.9796 -1.2 -10.0903 1.06963e+06 -2.23218e+06 -3.4972e+06 487838 -374141 -30679.4
197 1 Mg -2.62607 40.2719 57.3744 1.2 -8.54057 -615686 -2.41048e+06 5.11317e+06 -1.0215e+06 -1.61244e+06 -665022
198 1 Mg -1.17787 40.1435 49.8359 1.2 -7.99716 154558 1.04273e+06 3.11982e+06 -219138 182978 803213
199 2 Si -0.702692 37.6572 47.9231 2.4 -33.4651 7.14632e+06 5.45879e+06 1.13173e+07 465784 2.3832e+06 381823
200 3 O -0.621782 39.2264 47.9868 -1.2 -9.11768 -1.90672e+06 -3.50635e+06 -3.8044e+06 472457 -1.93919e+06 -441381
201 3 O -1.25221 36.5242 51.7666 -1.2 -9.69499 -1.39509e+06 -1.83259e+06 -8.88493e+06 1.00253e+06 -1.93203e+06 -153660
202 3 O -1.87295 37.0796 48.8243 -1.2 -9.29367 -378036 -2.78011e+06 -4.27519e+06 42890.2 -414856 -1.70287e+06
203 1 Mg 0.341084 35.5943 46.8152 1.2 -6.5246 1.27101e+06 -863488 1.56777e+06 1.12337e+06 1.59122e+06 -243328
204 3 O 0.760681 37.0138 48.3864 -1.2 -9.15616 -853960 -883876 -3.07369e+06 -304616 -302617 370066
205 1 Mg 1.40878 35.4522 54.6261 1.2 -7.48238 2.10811e+06 -711686 834949 314474 25838.1 2.57582e+06
206 2 Si 1.7098 38.2576 56.3204 2.4 -32.3914 7.95737e+06 3.78085e+06 1.27389e+07 594704 -205618 839282
207 3 O 1.72381 36.787 56.4558 -1.2 -10.3524 -4.24668e+06 -2.22852e+06 -4.40075e+06 -180024 361701 -202099
208 3 O 1.85132 39.2606 52.7264 -1.2 -9.69201 -2.47578e+06 -890003 -6.46505e+06 -413293 -652009 -1.66105e+06
209 3 O 0.500143 39.0508 55.6266 -1.2 -9.25525 -3.19842e+06 -2.508e+06 -4.67905e+06 -1.51201e+06 -723775 157984
210 3 O 3.02179 39.0292 55.6602 -1.2 -8.90992 -2.30049e+06 -3.99427e+06 -4.4026e+06 2.14606e+06 482342 -942229
211 1 Mg 0.272384 37.8883 52.2029 1.2 -7.30885 -1.48019e+06 -990861 5.76334e+06 -1.01112e+06 1.33986e+06 1.07687e+06
212 1 Mg 2.31122 37.6122 49.4501 1.2 -7.34367 1.44969e+06 -240898 1.0454e+06 166768 -260102 644037
213 2 Si 1.78573 39.934 51.2414 2.4 -32.0863 6.21611e+06 2.42166e+06 1.33093e+07 565440 773597 809474
214 3 O 1.89428 41.5006 51.3014 -1.2 -10.1973 -2.29804e+06 -829294 -5.1105e+06 848449 -609994 694413
215 3 O 1.67587 39.0632 57.908 -1.2 -8.70944 -2.8414e+06 -1.04693e+06 -3.57173e+06 328093 249768 2.29508e+06
216 3 O 0.469216 39.3015 50.6588 -1.2 -9.4761 -2.26139e+06 -1.42732e+06 -5.81158e+06 1.11545e+06 -842013 -540775
217 1 Mg -2.69668 37.8889 52.3043 1.2 -6.82105 -782348 -2.1216e+06 5.50925e+06 1.96131e+06 -1.50715e+06 1.54174e+06
218 3 O 3.0225 39.2866 50.4651 -1.2 -9.87246 -2.09057e+06 -1.15521e+06 -3.56925e+06 -347230 925669 -830261
219 1 Mg -1.3081 38.095 55.1056 1.2 -8.22366 733727 2.6164e+06 1.62298e+06 169624 112858 -603809
220 2 Si -1.41002 35.8619 53.1711 2.4 -32.725 4.38327e+06 2.85224e+06 1.23502e+07 1.10145e+06 -1.7658e+06 2.44267e+06
221 3 O -1.24769 34.2861 53.0954 -1.2 -9.7867 -2.44792e+06 -2.24551e+06 -5.74791e+06 -1.03339e+06 768960 -1.01783e+06
222 3 O -0.738054 37.1566 46.4176 -1.2 -8.1435 -2.21516e+06 -1.59862e+06 -3.51677e+06 -604077 -1.51375e+06 483413
223 3 O -2.45357 36.5518 54.0255 -1.2 -9.30408 -4.84484e+06 -1.71163e+06 -4.04937e+06 527287 1.12105e+06 -406446
224 3 O -0.0459169 36.4379 53.8272 -1.2 -8.90726 -4.05773e+06 -2.38885e+06 -5.75658e+06 1.04535e+06 -314124 -953872
225 1 Mg -2.57419 45.1243 57.3034 1.2 -7.7397 -826160 -1.03722e+06 4.28784e+06 -204546 -1.64357e+06 -874789
226 1 Mg -1.06993 44.8968 49.8343 1.2 -8.13428 386828 1.48508e+06 2.67018e+06 -204402 224926 316156
227 2 Si -0.596166 42.4103 47.9215 2.4 -33.7125 7.58956e+06 5.33058e+06 1.14052e+07 487282 2.3265e+06 -222967
228 3 O -0.51472 43.9796 47.9853 -1.2 -8.98557 -2.12789e+06 -3.5867e+06 -3.70624e+06 463992 -1.93227e+06 -123513
229 3 O -1.14475 41.2777 51.7649 -1.2 -9.61317 -1.793e+06 -1.71072e+06 -8.13376e+06 183995 337769 121314
230 3 O -1.76671 41.8331 48.8226 -1.2 -9.15546 -535384 -2.63937e+06 -4.47565e+06 12053.4 -334008 -1.32175e+06
231 1 Mg 0.447076 40.3473 46.8135 1.2 -6.63114 1.45668e+06 -989518 1.67853e+06 1.12415e+06 1.59552e+06 -450804
232 3 O 0.866985 41.7666 48.385 -1.2 -9.03894 -1.09748e+06 -765373 -3.13088e+06 -289780 -340132 679296
233 1 Mg 1.7755 40.2426 54.5229 1.2 -8.65835 3.07218e+06 -1.14982e+06 983398 217719 -14806.8 1.56136e+06
234 2 Si 1.82985 42.9373 56.2352 2.4 -34.2738 6.8168e+06 3.76955e+06 1.07299e+07 550037 904178 250114
235 3 O 1.89698 41.384 56.3634 -1.2 -8.63766 -5.40784e+06 -3.23058e+06 -5.5518e+06 610995 -51937.2 -1.23734e+06
236 3 O 1.95891 44.014 52.7248 -1.2 -9.605 -2.64017e+06 -1.9766e+06 -5.73215e+06 -435697 -278186 -323767
237 3 O 0.582228 43.5547 55.651 -1.2 -8.93247 -4.07741e+06 -2.85855e+06 -7.46142e+06 18470.5 -3.2831e+06 583402
238 3 O 3.13451 43.7154 55.7721 -1.2 -8.91725 -3.39214e+06 -2.97569e+06 -6.21955e+06 1.38498e+06 2.30122e+06 820760
239 1 Mg 0.379928 42.6418 52.2013 1.2 -7.41699 -1.0641e+06 -2.40093e+06 6.03983e+06 -1.15781e+06 1.85926e+06 95825.9
240 1 Mg 2.41752 42.366 49.4484 1.2 -7.50142 1.62212e+06 -354071 1.24734e+06 107272 -159200 106651
241 2 Si 1.89374 44.6874 51.2398 2.4 -32.3281 6.51687e+06 3.65656e+06 1.2225e+07 543921 531137 -803815
242 3 O 2.00266 46.254 51.2996 -1.2 -10.0505 -2.74909e+06 -1.57517e+06 -4.60092e+06 659348 -1.01704e+06 1.15266e+06
243 3 O 1.77554 43.5714 57.706 -1.2 -8.35252 -4.41648e+06 -2.4572e+06 -8.68054e+06 91930.4 1.27688e+06 825161
244 3 O 0.577464 44.0549 50.6567 -1.2 -9.32086 -2.53302e+06 -1.65495e+06 -5.66376e+06 1.08697e+06 -791370 230965
245 1 Mg -2.58906 42.6425 52.3022 1.2 -7.26366 -1.07638e+06 -2.207e+06 5.08134e+06 1.62758e+06 -1.8954e+06 -145374
246 3 O 3.13067 44.0398 50.464 -1.2 -9.72877 -2.32171e+06 -1.56185e+06 -3.2751e+06 -258366 934452 43554.8
247 1 Mg -1.22573 42.6563 55.0523 1.2 -8.44602 2.57775e+06 458134 995693 675226 -544324 -1.45938e+06
248 2 Si -1.09973 40.6308 53.1907 2.4 -33.083 7.16544e+06 -347787 1.38068e+07 337946 -399256 152484
249 3 O -1.16054 39.134 53.2437 -1.2 -9.72967 -3.21206e+06 -3.50448e+06 -5.70696e+06 819094 303505 -37780.4
250 3 O -0.631421 41.9099 46.4159 -1.2 -8.03132 -2.4017e+06 -1.52437e+06 -3.58292e+06 -604675 -1.50601e+06 690630
251 3 O -2.41983 41.2737 53.9234 -1.2 -8.76294 -2.11447e+06 -2.11986e+06 -6.05336e+06 -723473 166357 858595
252 3 O 0.148113 41.304 53.9303 -1.2 -8.93077 -3.04979e+06 -3.06917e+06 -5.15294e+06 392885 -650076 838816
253 1 Mg -2.56634 49.7474 57.4119 1.2 -7.44208 -1.8864e+06 -1.07681e+06 5.1857e+06 -849431 -1.44915e+06 -1.49025e+06
254 1 Mg -0.961069 49.6502 49.8327 1.2 -8.40805 632303 1.67026e+06 2.67375e+06 -132555 226075 465587
255 2 Si -0.488083 47.1636 47.9198 2.4 -34.0198 8.06342e+06 5.78238e+06 1.09716e+07 476152 2.29723e+06 -355428
256 3 O -0.40607 48.7329 47.9837 -1.2 -8.81782 -2.37371e+06 -3.75122e+06 -3.56618e+06 462989 -1.91243e+06 -151093
257 3 O -1.0361 46.031 51.7632 -1.2 -9.39048 -2.74317e+06 -2.03755e+06 -7.4914e+06 667586 1.25577e+06 63593
258 3 O -1.65866 46.5866 48.821 -1.2 -8.99704 -762711 -2.98497e+06 -4.15059e+06 8960.62 -337930 -1.21778e+06
259 1 Mg 0.554124 45.1001 46.8117 1.2 -6.75956 1.66694e+06 -894360 1.57963e+06 1.1216e+06 1.59462e+06 -634296
260 3 O 0.974961 46.5195 48.3832 -1.2 -8.88958 -1.35126e+06 -1.04117e+06 -2.83356e+06 -281113 -330551 823503
261 1 Mg 2.00095 45.0686 54.4971 1.2 -7.98419 1.40975e+06 102011 1.41568e+06 -37020.9 538509 -680046
262 2 Si 1.86658 47.7129 56.2441 2.4 -31.0731 5.6662e+06 6.21713e+06 1.25348e+07 1.90458e+06 -730074 -1.14544e+06
263 3 O 1.96764 46.0925 56.319 -1.2 -10.1441 -2.56019e+06 -414525 -5.39389e+06 456923 -154555 -1525.56
264 3 O 2.0677 48.7672 52.7232 -1.2 -9.56246 -2.72345e+06 -2.01052e+06 -5.45156e+06 432754 -1.01908e+06 -515287
265 3 O 0.673906 48.4443 55.6252 -1.2 -10.351 -3.70035e+06 -2.88302e+06 -5.07178e+06 -740884 -425300 641422
266 3 O 3.19119 48.4992 55.5405 -1.2 -9.57388 745344 -1.66768e+06 -4.45622e+06 1.59932e+06 -647331 278612
267 1 Mg 0.488584 47.395 52.1996 1.2 -7.3423 -229416 -915071 4.68382e+06 -1.24951e+06 1.7314e+06 -273251
268 1 Mg 2.52544 47.1195 49.4466 1.2 -7.66849 1.91537e+06 52019.7 822498 139399 -101864 34364.4
269 2 Si 2.00256 49.4407 51.2382 2.4 -32.7069 7.78717e+06 4.23592e+06 1.09353e+07 7097.23 705923 -179269
270 3 O 2.11156 51.0073 51.2982 -1.2 -9.88842 -3.02464e+06 -1.7228e+06 -4.16819e+06 709887 -720449 597350
271 3 O 1.96453 48.3747 57.7803 -1.2 -10.0272 -2.19869e+06 -1.63681e+06 -3.44937e+06 40064.9 92022.3 2.10283e+06
272 3 O 0.686344 48.8082 50.655 -1.2 -9.09361 -3.11575e+06 -2.13501e+06 -4.87729e+06 1.23617e+06 -676778 -175744