ITEM: TIMESTEP
29700
ITEM: NUMBER OF ATOMS
10500
ITEM: BOX BOUNDS xy xz yz pp pp pp
0.0000000000000000e+00 8.9687999999999999e+00 2.9895999999999998e+00
0.0000000000000000e+00 1.1872499999999999e+02 0.0000000000000000e+00
0.0000000000000000e+00 2.5297749999999999e+02 0.0000000000000000e+00
ITEM: ATOMS id type element xu yu zu q c_pe c_s[1] c_s[2] c_s[3] c_s[4] c_s[5] c_s[6]
1 1 Mg -3.51127 7.09634 57.5418 1.2 -7.88646 -526694 -1.70582e+06 3.83019e+06 -1.73509e+06 -1.99e+06 -612602
2 1 Mg -1.82655 6.90154 50.0912 1.2 -8.25909 96831.8 1.12117e+06 1.22735e+06 -95904.9 -71059.3 1.33046e+06
3 2 Si -0.257935 3.96038 48.0876 2.4 -36.4833 1.07135e+07 8.35973e+06 1.12342e+07 807907 1.94041e+06 1.57397e+06
4 3 O -0.335812 5.46814 47.6264 -1.2 -7.65305 -3.28908e+06 -2.37348e+06 -2.63029e+06 141225 -963104 -479112
5 3 O -2.03793 3.43377 51.8941 -1.2 -8.24207 -3.60816e+06 -1.94755e+06 -5.75599e+06 -1.26215e+06 1.32901e+06 -2.23248e+06
6 3 O -1.54015 3.53929 48.9521 -1.2 -8.02946 -1.69414e+06 -1.40245e+06 -4.60109e+06 9669.77 -709351 -143110
7 1 Mg 1.82954 2.54582 47.1376 1.2 -8.21238 2.96449e+06 -776804 1.0209e+06 1.14773e+06 839560 574581
8 3 O 1.22989 3.66364 48.7877 -1.2 -7.7707 -2.08812e+06 -2.14981e+06 -3.87503e+06 -464745 -728533 -885854
9 1 Mg 1.17291 2.51982 54.5865 1.2 -8.52857 1.31981e+06 301719 3.36427e+06 -734341 554125 1.1549e+06
10 2 Si 1.03528 5.12813 56.5601 2.4 -33.0839 6.04133e+06 4.00293e+06 1.13856e+07 -657496 1.55483e+06 1.65983e+06
11 3 O 0.947666 3.56069 56.577 -1.2 -9.27465 -3.73875e+06 -3.09522e+06 -4.15445e+06 755017 -1.53403e+06 -62714.6
12 3 O 1.10813 6.07342 52.8172 -1.2 -9.03016 -3.11582e+06 -2.88517e+06 -4.10748e+06 566921 343555 -1.68264e+06
13 3 O -0.225431 5.77736 55.9526 -1.2 -9.3185 -2.36903e+06 -3.65307e+06 -4.81492e+06 628086 -940905 236674
14 3 O 2.30447 5.77252 55.9569 -1.2 -9.42795 -3.93907e+06 -3.74378e+06 -5.55565e+06 910761 184454 333143
15 1 Mg -0.459401 4.67631 52.2426 1.2 -8.29176 -520148 -1.52323e+06 5.02157e+06 -1.04182e+06 1.68505e+06 1.26433e+06
16 1 Mg 2.79456 3.9971 49.9987 1.2 -8.6679 4.04476e+06 -279964 1.88173e+06 -538426 912923 -1.05485e+06
17 2 Si 1.16169 6.59457 51.2556 2.4 -33.6277 7.37475e+06 5.96979e+06 1.19043e+07 35579.4 -111322 2.86322e+06
18 3 O 1.28989 8.18905 51.2909 -1.2 -9.6907 -2.65481e+06 -1.67e+06 -3.54101e+06 198866 -660079 724426
19 3 O 1.10716 5.74449 58.1101 -1.2 -8.96876 -3.75538e+06 -2.651e+06 -5.05273e+06 388349 563915 529773
20 3 O -0.184847 6.06029 50.6845 -1.2 -8.58304 -3.03923e+06 -3.09118e+06 -5.49214e+06 1.44951e+06 -222970 -1.47343e+06
21 1 Mg -3.49704 4.67769 52.6661 1.2 -7.72505 344334 -2.57711e+06 2.31992e+06 1.86021e+06 -1.59463e+06 1.40261e+06
22 3 O 2.48581 5.93312 50.6539 -1.2 -9.19039 -3.47763e+06 -1.46116e+06 -3.06606e+06 -1.53161e+06 -597204 -777722
23 1 Mg -1.95841 4.88553 55.2882 1.2 -7.91919 2.01177e+06 894565 2.71971e+06 668372 -949716 62377.5
24 2 Si -1.87451 2.71028 53.4039 2.4 -33.939 7.41088e+06 3.55965e+06 1.39283e+07 752974 774210 -1.06314e+06
25 3 O -1.98731 1.11332 53.2861 -1.2 -9.0527 -4.06874e+06 514527 -4.81078e+06 520988 -251000 1.20334e+06
26 3 O -0.0467762 2.97103 46.8385 -1.2 -6.80927 -3.2916e+06 -1.90248e+06 -3.1204e+06 -989518 -1.99999e+06 -653810
27 3 O -3.13192 3.35936 54.0799 -1.2 -9.19293 -4.08968e+06 -2.22952e+06 -7.77391e+06 -926142 1.71485e+06 1.07178e+06
28 3 O -0.595069 3.34098 53.9564 -1.2 -8.97313 -3.69754e+06 -2.14362e+06 -5.32352e+06 446723 -1.00727e+06 309394
29 1 Mg -3.27859 11.8179 57.5912 1.2 -7.91558 -523208 -2.53044e+06 4.13766e+06 -2.31953e+06 -1.15866e+06 -655569
30 1 Mg -1.75014 11.5838 49.8362 1.2 -8.38808 693405 1.89577e+06 2.5409e+06 -353328 295872 1.18553e+06
31 2 Si -1.18003 9.02138 47.9309 2.4 -34.4652 8.47658e+06 7.48164e+06 9.46684e+06 228660 2.63747e+06 500163
32 3 O -1.23224 10.5991 47.9811 -1.2 -8.70921 -2.50304e+06 -3.68683e+06 -2.70608e+06 659558 -1.92609e+06 -164713
33 3 O -1.79016 8.01447 51.8693 -1.2 -9.25364 -2.37721e+06 -2.24484e+06 -4.8551e+06 531415 -164701 -1.40871e+06
34 3 O -2.30986 8.37215 48.8528 -1.2 -8.96081 -1.05927e+06 -2.71892e+06 -3.17232e+06 -325846 -644892 -883623
35 1 Mg 0.154883 7.08234 46.8007 1.2 -7.61709 2.0375e+06 -122427 771732 944018 1.72082e+06 -1.01623e+06
36 3 O 0.325447 8.50934 48.3809 -1.2 -8.59303 -1.44552e+06 -2.13275e+06 -2.60099e+06 -38296.6 -810852 319756
37 1 Mg 1.2143 7.20606 54.7444 1.2 -7.9832 1.69977e+06 527223 2.4258e+06 -73858.6 447951 1.81975e+06
38 2 Si 1.08226 9.81539 56.6062 2.4 -33.4545 7.06393e+06 6.29955e+06 1.02352e+07 1.38485e+06 449576 -829867
39 3 O 1.05511 8.25303 56.7215 -1.2 -9.55452 -3.98653e+06 -1.94441e+06 -4.50833e+06 786832 -1.01922e+06 43912.7
40 3 O 1.28624 10.7248 52.7351 -1.2 -9.6582 -2.43478e+06 -1.53922e+06 -5.04891e+06 141514 -179255 -1.32964e+06
41 3 O -0.18057 10.4079 55.9535 -1.2 -8.81756 -3.92429e+06 -3.23782e+06 -3.48871e+06 -596091 -828332 343133
42 3 O 2.293 10.5542 55.8189 -1.2 -9.0457 -3.39728e+06 -1.78202e+06 -3.33973e+06 1.13046e+06 575012 -296922
43 1 Mg -0.262694 9.34741 52.2523 1.2 -7.54548 -927204 57052.5 5.34382e+06 -1.49387e+06 1.20945e+06 1.35623e+06
44 1 Mg 1.87648 9.01537 49.4629 1.2 -7.83091 1.96802e+06 694294 98559.7 252013 -311810 423319
45 2 Si 1.21415 11.3799 51.2378 2.4 -32.6696 7.65693e+06 4.69835e+06 1.08363e+07 536555 299794 1.51292e+06
46 3 O 1.31634 12.9512 51.3023 -1.2 -9.93116 -2.88895e+06 -1.5641e+06 -3.93277e+06 589281 -446106 93185.6
47 3 O 1.2372 10.5529 58.0504 -1.2 -9.18406 -2.52478e+06 -3.89975e+06 -5.99283e+06 -630032 37868.3 1.95592e+06
48 3 O -0.115718 10.7564 50.681 -1.2 -9.03967 -2.67784e+06 -2.44599e+06 -4.73779e+06 1.31074e+06 -575972 -1.05678e+06
49 1 Mg -3.26386 9.35564 52.3622 1.2 -7.18893 -98343.9 -871973 3.8688e+06 2.05598e+06 -1.45147e+06 1.67496e+06
50 3 O 2.45216 10.7265 50.4558 -1.2 -9.54869 -2.65274e+06 -1.95138e+06 -2.07644e+06 -885122 608804 -556302
51 1 Mg -1.90983 9.48464 55.1322 1.2 -8.18423 3.01757e+06 1.46551e+06 1.51833e+06 -244798 -198459 -667906
52 2 Si -1.87225 7.31143 53.3901 2.4 -32.8448 7.51644e+06 1.53414e+06 1.23557e+07 -112702 814424 1.67784e+06
53 3 O -1.85729 5.81795 53.2597 -1.2 -9.64141 -3.66743e+06 -5.23707e+06 -4.97454e+06 -387962 -685825 -807507
54 3 O -1.19417 8.46968 46.4488 -1.2 -7.56116 -2.84707e+06 -2.09607e+06 -2.89824e+06 -541556 -1.74564e+06 785497
55 3 O -3.11001 8.03727 54.0067 -1.2 -9.7962 -4.18343e+06 -1.54477e+06 -4.40979e+06 -556615 459305 -859746
56 3 O -0.582616 7.93997 54.108 -1.2 -8.94173 -922170 -3.26811e+06 -4.63133e+06 1.14682e+06 -472267 -801074
57 1 Mg -3.34267 16.5557 57.4296 1.2 -7.77771 295661 -1.10999e+06 4.92522e+06 -1.38006e+06 -1.52753e+06 -371388
58 1 Mg -1.6714 16.3544 49.8412 1.2 -8.47172 904490 1.62973e+06 2.60208e+06 -199386 273314 1.07539e+06
59 2 Si -1.18567 13.8526 47.9314 2.4 -34.362 8.6301e+06 6.12985e+06 1.0525e+07 509240 2.26702e+06 223661
60 3 O -1.09664 15.4205 47.9915 -1.2 -8.69091 -2.51607e+06 -3.73018e+06 -3.36257e+06 423378 -1.94446e+06 -474403
61 3 O -1.73493 12.7491 51.7772 -1.2 -9.32142 -1.73407e+06 -1.36179e+06 -3.94153e+06 476625 581315 -1.12232e+06
62 3 O -2.36115 13.2717 48.8238 -1.2 -8.81631 -1.12961e+06 -3.03847e+06 -3.91519e+06 -91483.5 -365695 -1.51347e+06
63 1 Mg -0.159928 11.7639 46.8533 1.2 -7.02644 2.11891e+06 -520556 1.17053e+06 1.12845e+06 1.57081e+06 -659726
64 3 O 0.2623 13.1866 48.413 -1.2 -8.71242 -1.63954e+06 -1.1121e+06 -2.6842e+06 -211179 -290013 504672
65 1 Mg 1.35198 11.8169 54.5064 1.2 -8.17616 1.34298e+06 1.54033e+06 1.34009e+06 323661 -16492.1 908028
66 2 Si 1.06289 14.5189 56.5498 2.4 -33.2035 6.56289e+06 5.78217e+06 1.15095e+07 -1.68275e+06 100524 949723
67 3 O 1.11583 13.0033 56.7725 -1.2 -9.31798 -2.79554e+06 -3.25131e+06 -3.86878e+06 -554711 143457 566004
68 3 O 1.36565 15.4813 52.729 -1.2 -9.17091 -2.58176e+06 -1.2103e+06 -4.9331e+06 -1326.13 -536541 -555979
69 3 O -0.23327 15.2466 55.9215 -1.2 -8.82335 -2.31954e+06 -1.14178e+06 -5.35885e+06 -713670 -536938 -592080
70 3 O 2.30435 15.059 55.8227 -1.2 -9.14752 -3.32537e+06 -2.75218e+06 -3.61566e+06 -6933.29 1.34346e+06 -173009
71 1 Mg -0.206989 14.1049 52.2121 1.2 -7.59524 -541537 -1.12043e+06 5.44383e+06 -1.35348e+06 1.80462e+06 1.71507e+06
72 1 Mg 1.82591 13.8102 49.4556 1.2 -7.82276 2.16961e+06 337573 572235 105731 -139254 613744
73 2 Si 1.29285 16.1518 51.2434 2.4 -33.0458 7.6526e+06 3.86201e+06 1.1983e+07 243886 261009 753105
74 3 O 1.39496 17.7199 51.3047 -1.2 -9.71214 -3.30181e+06 -1.48197e+06 -4.20123e+06 653196 -408531 449696
75 3 O 1.07878 15.4207 58.0251 -1.2 -9.05435 -3.5379e+06 -1.24198e+06 -5.09351e+06 504767 -763464 875122
76 3 O -0.0269106 15.5178 50.6688 -1.2 -8.99337 -2.89366e+06 -2.00758e+06 -5.24035e+06 1.18757e+06 -932752 -754944
77 1 Mg -3.18391 14.1057 52.3125 1.2 -7.4436 -348094 -1.16251e+06 4.85979e+06 1.6358e+06 -1.67619e+06 1.62961e+06
78 3 O 2.52432 15.503 50.4579 -1.2 -9.42271 -2.78442e+06 -1.79774e+06 -2.6617e+06 -384532 1.04176e+06 -672595
79 1 Mg -1.83557 14.0971 55.3333 1.2 -8.26501 2.91554e+06 1.82386e+06 1.04293e+06 153765 -191880 -1.32889e+06
80 2 Si -1.64218 12.1658 53.3431 2.4 -32.6878 6.29868e+06 5.09854e+06 1.19797e+07 -530705 766172 178758
81 3 O -1.65346 10.5918 53.3782 -1.2 -9.70403 -2.56057e+06 -773771 -4.29941e+06 489457 -301800 83937.4
82 3 O -1.21337 13.3381 46.4311 -1.2 -7.66962 -3.04101e+06 -1.79807e+06 -3.24652e+06 -631965 -1.454e+06 703898
83 3 O -2.92613 12.8213 53.9881 -1.2 -9.47859 -2.13026e+06 -3.62242e+06 -3.80911e+06 -135654 1.09349e+06 -149488
84 3 O -0.333839 12.7739 53.9647 -1.2 -9.3627 -1.67108e+06 -4.14022e+06 -2.37643e+06 262029 -467207 -128927
85 1 Mg -3.19754 21.3233 57.3973 1.2 -8.12103 -631508 -1.94224e+06 3.77653e+06 -1.32999e+06 -1.54147e+06 -422474
86 1 Mg -1.5831 21.1217 49.8405 1.2 -8.71823 1.15235e+06 1.43581e+06 2.91197e+06 -215730 182413 910312
87 2 Si -1.09384 18.6291 47.9287 2.4 -34.6368 9.0314e+06 5.65841e+06 1.10983e+07 480889 2.32915e+06 274680
88 3 O -1.02071 20.1985 47.9911 -1.2 -8.53008 -2.81945e+06 -3.54114e+06 -3.67638e+06 463233 -1.92298e+06 -398254
89 3 O -1.65002 17.5002 51.771 -1.2 -9.00886 -2.55303e+06 -876772 -5.78703e+06 442732 12012.1 -1.10724e+06
90 3 O -2.26174 18.0434 48.8281 -1.2 -8.67861 -1.31653e+06 -2.85849e+06 -4.20182e+06 -18148 -380609 -1.53961e+06
91 1 Mg -0.0440435 16.5651 46.8269 1.2 -7.08358 2.14676e+06 -737348 1.43524e+06 1.13258e+06 1.58197e+06 -409806
92 3 O 0.37001 17.9877 48.3925 -1.2 -8.57148 -1.85247e+06 -993956 -2.9084e+06 -283375 -324318 446793
93 1 Mg 1.2897 16.7256 54.6074 1.2 -8.36443 2.23721e+06 1.56639e+06 1.51216e+06 104558 -442259 839276
94 2 Si 1.16048 19.2951 56.3738 2.4 -34.0571 6.63585e+06 2.9797e+06 1.03733e+07 926172 814044 124101
95 3 O 1.22368 17.7765 56.4464 -1.2 -9.29276 -3.65908e+06 -4.22384e+06 -4.80085e+06 -813704 -363543 -377747
96 3 O 1.45147 20.239 52.7294 -1.2 -9.14555 -3.03347e+06 -1.44928e+06 -5.14774e+06 -20106.6 -335593 -725969
97 3 O -0.0659662 19.9669 55.7863 -1.2 -8.8273 -5.38377e+06 -3.62597e+06 -5.27331e+06 36080.9 -1.22296e+06 23204.3
98 3 O 2.41538 19.9722 55.7035 -1.2 -8.79099 -4.58331e+06 -3.00352e+06 -6.14031e+06 859365 937072 328450
99 1 Mg -0.126194 18.8651 52.2079 1.2 -7.93971 -110089 -1.22824e+06 5.22851e+06 -1.09455e+06 1.64568e+06 727833
100 1 Mg 1.92402 18.5815 49.4545 1.2 -7.99414 2.44529e+06 -1291.94 818056 133275 -147525 477247
101 2 Si 1.38106 20.9117 51.2443 2.4 -33.4523 8.9132e+06 3.77941e+06 1.15039e+07 414965 582093 739101
102 3 O 1.48527 22.4795 51.3054 -1.2 -9.5059 -3.82877e+06 -1.21037e+06 -4.40121e+06 693642 -610750 267166
103 3 O 1.29735 19.9465 57.8446 -1.2 -8.81673 -4.02981e+06 -3.24409e+06 -7.32495e+06 -293847 691739 1.02273e+06
104 3 O 0.0615419 20.2804 50.6669 -1.2 -8.7494 -3.56368e+06 -1.92635e+06 -5.25502e+06 1.18069e+06 -672757 -520592
105 1 Mg -3.09665 18.8643 52.3122 1.2 -7.69991 86090.4 -1.34033e+06 4.19972e+06 1.61357e+06 -1.78507e+06 874274
106 3 O 2.61548 20.2646 50.4626 -1.2 -9.15131 -3.27739e+06 -1.68039e+06 -3.00042e+06 -417607 743633 -630852
107 1 Mg -1.83508 19.0408 55.1922 1.2 -8.35999 2.36839e+06 1.1101e+06 1.91188e+06 70237.4 -250134 -73388.8
108 2 Si -1.66598 16.8233 53.2738 2.4 -33.5576 7.40977e+06 4.07967e+06 1.23339e+07 916773 754072 -1.16711e+06
109 3 O -1.60863 15.2858 53.353 -1.2 -9.35501 -3.5818e+06 -1.52814e+06 -3.54558e+06 135818 -243255 82165.4
110 3 O -1.12868 18.1227 46.4249 -1.2 -7.59205 -3.1171e+06 -1.60555e+06 -3.47956e+06 -602969 -1.4973e+06 595089
111 3 O -2.90077 17.4943 53.9089 -1.2 -9.21575 -4.17072e+06 -2.44928e+06 -4.43908e+06 -90066.4 921282 -14245.6
112 3 O -0.345294 17.56 53.9234 -1.2 -8.76139 -2.05048e+06 -2.75051e+06 -3.93228e+06 1.09435e+06 -653037 607195
113 1 Mg -3.23437 26.1627 57.3914 1.2 -7.87787 -1.43326e+06 -2.1697e+06 4.53596e+06 -131327 -2.12562e+06 90384.3
114 1 Mg -1.48778 25.88 49.8402 1.2 -8.65088 1.08796e+06 1.58806e+06 2.70074e+06 -196774 128534 531832
115 2 Si -1.00491 23.3922 47.9274 2.4 -34.7919 9.27722e+06 5.39256e+06 1.13755e+07 491341 2.2916e+06 -230939
116 3 O -0.927602 24.9615 47.9909 -1.2 -8.50535 -2.87758e+06 -3.58437e+06 -3.68666e+06 458443 -1.91e+06 -122011
117 3 O -1.55795 22.2588 51.7696 -1.2 -8.57373 -2.8845e+06 -1.84842e+06 -5.19937e+06 361441 318224 -1.55683e+06
118 3 O -2.17411 22.8111 48.8277 -1.2 -8.55029 -1.45997e+06 -2.73647e+06 -4.41646e+06 7640.37 -360878 -1.34815e+06
119 1 Mg 0.0423997 21.3296 46.8225 1.2 -7.17422 2.32263e+06 -990290 1.67067e+06 1.12568e+06 1.58474e+06 -527748
120 3 O 0.458537 22.7495 48.3911 -1.2 -8.46713 -2.05668e+06 -826406 -3.04272e+06 -294809 -320079 655089
121 1 Mg 1.47596 21.3999 54.5427 1.2 -8.47809 1.68616e+06 884970 1.92171e+06 115445 -207405 1.16502e+06
122 2 Si 1.16366 23.9975 56.42 2.4 -33.7703 8.87934e+06 2.90064e+06 1.20921e+07 1.14239e+06 27928.6 180980
123 3 O 1.26416 22.4633 56.5291 -1.2 -9.1856 -3.86932e+06 -3.04126e+06 -4.73139e+06 -319338 -313207 109084
124 3 O 1.54441 24.9963 52.7297 -1.2 -9.08414 -3.1312e+06 -1.56649e+06 -5.87737e+06 -214814 -871286 -679267
125 3 O -0.134291 24.6406 55.8295 -1.2 -8.94958 -3.77102e+06 -1.97921e+06 -4.86057e+06 -405106 -162083 -296359
126 3 O 2.44834 24.6039 55.6162 -1.2 -8.61953 -1.83547e+06 -2.56264e+06 -5.25584e+06 645872 104138 -728953
127 1 Mg -0.0335968 23.6229 52.2067 1.2 -8.08034 392423 -2.10704e+06 5.18681e+06 -942530 1.907e+06 726535
128 1 Mg 2.01073 23.3445 49.4541 1.2 -8.10712 2.63331e+06 -195905 1.01404e+06 113418 -94262.4 240622
129 2 Si 1.47594 25.6699 51.2449 2.4 -33.2771 8.45899e+06 3.94819e+06 1.14792e+07 421636 927245 3622.33
130 3 O 1.58172 27.2371 51.3054 -1.2 -9.72852 -3.26365e+06 -1.63355e+06 -4.12687e+06 833731 -733344 448421
131 3 O 1.32076 24.7433 57.836 -1.2 -9.19332 -4.48438e+06 -1.26995e+06 -6.5103e+06 -301315 176523 100343
132 3 O 0.157925 25.0378 50.6651 -1.2 -8.7714 -3.67269e+06 -1.84161e+06 -5.26023e+06 1.08197e+06 -686949 -72741.2
133 1 Mg -3.00341 23.6231 52.3098 1.2 -8.05236 47934.4 -1.84328e+06 4.24032e+06 1.44244e+06 -2.01935e+06 1.1509e+06
134 3 O 2.71149 25.0232 50.4656 -1.2 -9.13613 -3.19528e+06 -1.71385e+06 -3.1416e+06 -321952 752575 -277377
135 1 Mg -1.79338 23.6835 55.0574 1.2 -8.60573 2.97013e+06 23960.2 1.36565e+06 -284628 -154968 -971750
136 2 Si -1.49572 21.557 53.2937 2.4 -33.3356 8.70395e+06 3.48703e+06 1.31781e+07 -905797 473377 -159864
137 3 O -1.59271 20.0548 53.1923 -1.2 -9.63176 -3.67301e+06 -2.90302e+06 -4.57416e+06 436072 -697239 1.04614e+06
138 3 O -1.03938 22.8897 46.4223 -1.2 -7.53115 -3.20069e+06 -1.46739e+06 -3.63022e+06 -605815 -1.49813e+06 780339
139 3 O -2.84397 22.3694 53.9088 -1.2 -8.91379 -1.99134e+06 -2.24193e+06 -5.81808e+06 -1.66644e+06 442621 58129.1
140 3 O -0.238662 22.2728 53.9032 -1.2 -8.98067 -2.74836e+06 -2.34458e+06 -5.01563e+06 1.21752e+06 -1.14695e+06 270596
141 1 Mg -3.09273 30.8943 57.5687 1.2 -7.52694 -687131 -1.66993e+06 5.09548e+06 -1.64256e+06 -1.42565e+06 -179194
142 1 Mg -1.38776 30.6357 49.8391 1.2 -8.63165 1.00971e+06 1.54259e+06 2.78554e+06 -188201 168194 753813
143 2 Si -0.907929 28.1491 47.9262 2.4 -34.6862 9.12462e+06 5.75824e+06 1.09959e+07 492864 2.29951e+06 -311059
144 3 O -0.829229 29.7184 47.99 -1.2 -8.5499 -2.80712e+06 -3.69385e+06 -3.60845e+06 461552 -1.91316e+06 -196793
145 3 O -1.45946 27.0152 51.769 -1.2 -9.09092 -2.39093e+06 -1.56938e+06 -4.93884e+06 119459 503408 -1.09935e+06
146 3 O -2.07744 27.5697 48.8273 -1.2 -8.62615 -1.34334e+06 -3.00295e+06 -4.16019e+06 7472.72 -339535 -1.26919e+06
147 1 Mg 0.137907 26.087 46.819 1.2 -7.16651 2.31787e+06 -925968 1.60619e+06 1.1255e+06 1.58892e+06 -716165
148 3 O 0.55579 27.5065 48.3893 -1.2 -8.52437 -1.95966e+06 -1.04729e+06 -2.82669e+06 -292541 -332340 751383
149 1 Mg 1.56967 26.1423 54.4854 1.2 -8.42319 766446 1.2414e+06 873970 -558439 208840 895740
150 2 Si 1.46676 28.7431 56.3912 2.4 -33.1559 8.67811e+06 3.68411e+06 1.23574e+07 -29260.2 -706684 904572
151 3 O 1.459 27.1894 56.3783 -1.2 -9.7984 -4.46807e+06 -2.48013e+06 -5.14249e+06 839029 -329422 69013.9
152 3 O 1.6432 29.7522 52.7291 -1.2 -9.23375 -3.21586e+06 -1.4765e+06 -5.40643e+06 -85803.7 -584427 -749984
153 3 O 0.177164 29.4598 55.734 -1.2 -9.09324 -2.7473e+06 -1.88059e+06 -5.26595e+06 -1.48959e+06 -701074 -687780
154 3 O 2.74903 29.4286 55.7301 -1.2 -8.88509 -2.34884e+06 -2.9646e+06 -3.76144e+06 1.13793e+06 -86268.4 39611.1
155 1 Mg 0.0647462 28.3794 52.2059 1.2 -7.75134 -61328 -1.6099e+06 5.1077e+06 -1.1514e+06 1.8287e+06 853064
156 1 Mg 2.10696 28.1021 49.4531 1.2 -8.00563 2.44151e+06 79941.9 774191 103542 -112496 224027
157 2 Si 1.57592 30.4257 51.2442 2.4 -33.2166 8.63406e+06 3.73699e+06 1.14153e+07 341365 714680 285667
158 3 O 1.68288 31.9926 51.3043 -1.2 -9.70079 -3.60899e+06 -1.55529e+06 -4.01355e+06 787929 -487037 509018
159 3 O 1.3975 29.364 57.9029 -1.2 -9.34154 -2.58246e+06 -564961 -5.17073e+06 287546 -31533.6 1.06655e+06
160 3 O 0.258524 29.7935 50.6632 -1.2 -8.84327 -3.4533e+06 -1.95189e+06 -5.1996e+06 1.21935e+06 -725430 -392173
161 1 Mg -2.90462 28.3797 52.308 1.2 -7.69703 -364191 -955427 4.66353e+06 1.70622e+06 -1.75308e+06 882398
162 3 O 2.81205 29.7787 50.4664 -1.2 -9.22944 -3.07285e+06 -1.81564e+06 -2.95175e+06 -399484 813435 -520998
163 1 Mg -1.45123 28.4886 55.0649 1.2 -8.38546 2.55025e+06 775313 1.55187e+06 -239244 -565053 -603272
164 2 Si -1.38839 26.3155 53.2605 2.4 -32.8927 7.93288e+06 5.47809e+06 1.33124e+07 -511653 -27539.1 47925.6
165 3 O -1.47222 24.7304 53.1645 -1.2 -9.45022 -3.71087e+06 -586760 -5.35335e+06 728165 41940.4 615853
166 3 O -0.943026 27.648 46.4208 -1.2 -7.55879 -3.15611e+06 -1.57896e+06 -3.52827e+06 -604972 -1.50146e+06 881478
167 3 O -2.76584 27.0054 53.9222 -1.2 -9.02132 -1.27738e+06 -2.04502e+06 -4.77197e+06 -1.89822e+06 493200 262327
168 3 O -0.16176 27.0417 53.9364 -1.2 -9.43044 -2.57166e+06 -2.04701e+06 -4.06082e+06 979906 -907847 413473
169 1 Mg -2.83073 35.5319 57.3071 1.2 -7.30195 537453 -1.24995e+06 5.1794e+06 -1.01984e+06 -1.74773e+06 -1.21009e+06
170 1 Mg -1.28421 35.3899 49.8376 1.2 -8.56402 880069 1.55772e+06 2.79314e+06 -144347 223916 651182
171 2 Si -0.807101 32.9036 47.9247 2.4 -34.6236 8.99312e+06 5.65171e+06 1.11373e+07 491621 2.29126e+06 -329814
172 3 O -0.727174 34.4729 47.9885 -1.2 -8.59912 -2.71628e+06 -3.66422e+06 -3.65814e+06 457452 -1.91378e+06 -138444
173 3 O -1.35735 31.7701 51.768 -1.2 -8.69874 -2.804e+06 -1.715e+06 -5.82246e+06 210090 -56602.1 -876280
174 3 O -1.97695 32.3253 48.826 -1.2 -8.64186 -1.29537e+06 -2.93809e+06 -4.24758e+06 10204.3 -365510 -1.30954e+06
175 1 Mg 0.237665 30.8412 46.8168 1.2 -7.12881 2.25823e+06 -904783 1.58785e+06 1.12226e+06 1.58675e+06 -694177
176 3 O 0.656562 32.2608 48.3877 -1.2 -8.55 -1.91862e+06 -992310 -2.874e+06 -290058 -310159 727218
177 1 Mg 1.6519 30.873 54.5145 1.2 -8.31831 1.7457e+06 437371 1.65854e+06 109326 -36237.2 818257
178 2 Si 1.54133 33.4768 56.3284 2.4 -32.6817 7.13854e+06 4.1076e+06 1.28829e+07 -693429 -666501 43080.4
179 3 O 1.46653 31.9097 56.3797 -1.2 -9.79716 -2.91553e+06 -1.35552e+06 -4.09088e+06 -128395 264854 -1.44969e+06
180 3 O 1.74574 34.5067 52.7279 -1.2 -9.30964 -3.25058e+06 -1.1766e+06 -5.41171e+06 -213786 -867751 -1.22498e+06
181 3 O 0.332515 34.2889 55.6599 -1.2 -9.44936 -2.20377e+06 -1.2504e+06 -5.10853e+06 107778 -385208 -8489.02
182 3 O 2.84947 34.1361 55.6632 -1.2 -9.20827 -2.00884e+06 -2.19313e+06 -5.28544e+06 1.21235e+06 311759 944687
183 1 Mg 0.167046 33.1343 52.2045 1.2 -7.78232 46551.7 -1.29079e+06 4.43817e+06 -1.16792e+06 1.88848e+06 1.06665e+06
184 1 Mg 2.20727 32.8578 49.4516 1.2 -7.99096 2.48853e+06 -11111.2 806507 106961 -95028.7 240810
185 2 Si 1.67943 35.1802 51.2429 2.4 -33.051 8.43557e+06 3.66537e+06 1.13914e+07 131790 681742 541280
186 3 O 1.78736 36.747 51.303 -1.2 -9.86016 -3.12244e+06 -1.54212e+06 -3.96991e+06 880939 -479453 313055
187 3 O 1.60076 34.1291 57.8141 -1.2 -9.21532 -2.90273e+06 -547494 -5.92931e+06 756925 519313 852237
188 3 O 0.362533 34.5479 50.661 -1.2 -8.85961 -3.46742e+06 -1.95e+06 -5.21194e+06 1.15976e+06 -587156 -441764
189 1 Mg -2.80215 33.1347 52.3062 1.2 -7.7212 -630824 -940144 4.20743e+06 1.37019e+06 -2.00223e+06 824897
190 3 O 2.91593 34.533 50.466 -1.2 -9.25263 -3.16754e+06 -1.72649e+06 -3.11343e+06 -286691 670153 -451091
191 1 Mg -1.39432 33.181 55.017 1.2 -7.88643 2.11007e+06 1.30328e+06 1.83451e+06 514987 -115827 -954203
192 2 Si -1.27847 31.0874 53.2944 2.4 -33.2637 5.76897e+06 2.47356e+06 1.24487e+07 -768766 -853531 -2.0223e+06
193 3 O -1.34071 29.5357 53.2374 -1.2 -9.51063 -3.77777e+06 -2.12509e+06 -5.21369e+06 867305 202665 659162
194 3 O -0.842495 32.4028 46.4192 -1.2 -7.59905 -3.08691e+06 -1.5646e+06 -3.54746e+06 -605369 -1.50158e+06 901244
195 3 O -2.59104 31.7123 53.9286 -1.2 -9.14671 -2.28154e+06 -3.01686e+06 -5.97e+06 -536619 1.40745e+06 56040.5
196 3 O -0.0638406 31.7711 53.8244 -1.2 -9.47063 -5.15642e+06 -3.02175e+06 -5.96374e+06 -379239 -2.47458e+06 194322
197 1 Mg -2.68497 40.4282 57.2372 1.2 -7.65089 -1.25121e+06 -2.62425e+06 5.13362e+06 -721253 -1.75783e+06 -408466
198 1 Mg -1.17787 40.1435 49.8359 1.2 -8.42539 675398 1.40947e+06 2.92456e+06 -186249 324886 622366
199 2 Si -0.702692 37.6572 47.9231 2.4 -34.4225 8.65429e+06 5.6368e+06 1.11666e+07 495778 2.32764e+06 -434180
200 3 O -0.621782 39.2264 47.9868 -1.2 -8.71929 -2.51489e+06 -3.63956e+06 -3.69909e+06 460603 -1.93237e+06 -64261.7
201 3 O -1.25221 36.5242 51.7666 -1.2 -9.10974 -1.77658e+06 -2.44386e+06 -5.27143e+06 -24354.5 -204327 -951753
202 3 O -1.87295 37.0796 48.8243 -1.2 -8.74791 -1.16034e+06 -2.93508e+06 -4.2163e+06 8234.44 -392559 -1.28961e+06
203 1 Mg 0.341084 35.5943 46.8152 1.2 -7.06044 2.14581e+06 -912597 1.6005e+06 1.12292e+06 1.5849e+06 -765303
204 3 O 0.760681 37.0138 48.3864 -1.2 -8.64282 -1.7388e+06 -988085 -2.90725e+06 -289577 -298833 761912
205 1 Mg 1.70064 35.5909 54.5536 1.2 -8.27355 2.39052e+06 702817 1.18795e+06 -701350 -230755 1.39661e+06
206 2 Si 1.73513 38.286 56.4482 2.4 -32.483 7.85138e+06 4.27848e+06 1.26337e+07 1.14742e+06 -471746 61283.2
207 3 O 1.64727 36.7685 56.4832 -1.2 -9.91434 -3.20836e+06 -1.56327e+06 -5.31527e+06 431246 523429 -498131
208 3 O 1.85132 39.2606 52.7264 -1.2 -9.37001 -2.78611e+06 -1.26625e+06 -5.48201e+06 -75018.5 -545528 -1.05665e+06
209 3 O 0.39992 39.0258 55.79 -1.2 -9.14516 -1.11577e+06 -3.01831e+06 -3.88129e+06 -1.60734e+06 -15036.3 -673073
210 3 O 2.98979 39.0424 55.661 -1.2 -9.40944 -1.37105e+06 -2.01025e+06 -3.74157e+06 1.56056e+06 -422260 -1.19306e+06
211 1 Mg 0.272384 37.8883 52.2029 1.2 -7.8026 -796122 -1.48751e+06 5.29268e+06 -828500 1.8622e+06 688274
212 1 Mg 2.31122 37.6122 49.4501 1.2 -7.87032 2.33054e+06 -46783.5 815569 96524.3 -167211 258530
213 2 Si 1.78573 39.934 51.2414 2.4 -32.8438 8.00388e+06 3.41696e+06 1.17635e+07 363104 208708 570533
214 3 O 1.89428 41.5006 51.3014 -1.2 -9.9765 -3.04214e+06 -1.29033e+06 -4.44367e+06 652272 -544502 377515
215 3 O 1.79101 38.9764 57.901 -1.2 -9.66563 -2.91898e+06 -2.26839e+06 -5.8768e+06 -1.50438e+06 -406863 940214
216 3 O 0.469216 39.3015 50.6588 -1.2 -8.92225 -3.12894e+06 -1.86653e+06 -5.7379e+06 1.15038e+06 -482494 -419221
217 1 Mg -2.69668 37.8889 52.3043 1.2 -7.43965 -122867 -1.59348e+06 4.67011e+06 1.54225e+06 -1.92838e+06 792605
218 3 O 3.0225 39.2866 50.4651 -1.2 -9.42075 -3.07693e+06 -1.59836e+06 -2.99251e+06 -297559 810887 -478576
219 1 Mg -1.24885 38.126 55.1699 1.2 -8.1544 1.3072e+06 1.28015e+06 908736 -387949 19621 282034
220 2 Si -1.28484 35.8561 53.262 2.4 -33.3075 6.79905e+06 4.02556e+06 1.39683e+07 1.50003e+06 178087 1.16975e+06
221 3 O -1.33967 34.288 53.1315 -1.2 -9.61661 -3.3175e+06 -1.39758e+06 -5.4557e+06 667037 380817 -214910
222 3 O -0.738054 37.1566 46.4176 -1.2 -7.68435 -2.94803e+06 -1.57812e+06 -3.53986e+06 -606855 -1.50516e+06 982008
223 3 O -2.56174 36.4308 53.9673 -1.2 -9.0838 -3.87917e+06 -2.50216e+06 -4.07576e+06 -782455 173398 -460576
224 3 O -0.039985 36.5907 53.9821 -1.2 -8.96979 -1.86826e+06 -1.78819e+06 -4.53133e+06 768630 -521965 1.02441e+06
225 1 Mg -2.64992 45.14 57.484 1.2 -7.80176 -1.01606e+06 -1.54221e+06 5.22331e+06 -1.2365e+06 -1.47665e+06 -1.24673e+06
226 1 Mg -1.06993 44.8968 49.8343 1.2 -8.04881 250456 1.75692e+06 2.38701e+06 -186237 246172 516115
227 2 Si -0.596166 42.4103 47.9215 2.4 -34.0639 8.10856e+06 5.82561e+06 1.09532e+07 490050 2.33458e+06 -819394
228 3 O -0.51472 43.9796 47.9853 -1.2 -8.92336 -2.21699e+06 -3.86667e+06 -3.44499e+06 461517 -1.93593e+06 50789.5
229 3 O -1.14475 41.2777 51.7649 -1.2 -9.06543 -2.15734e+06 -1.50185e+06 -5.68966e+06 687263 -777079 -1.37942e+06
230 3 O -1.76671 41.8331 48.8226 -1.2 -8.93265 -880356 -2.91282e+06 -4.22455e+06 32771.4 -388587 -1.08563e+06
231 1 Mg 0.447076 40.3473 46.8135 1.2 -6.93544 1.94037e+06 -880101 1.573e+06 1.12498e+06 1.58566e+06 -884620
232 3 O 0.866985 41.7666 48.385 -1.2 -8.81465 -1.45116e+06 -1.00865e+06 -2.89825e+06 -302626 -302802 958416
233 1 Mg 1.73734 40.4374 54.512 1.2 -8.24459 1.06986e+06 668649 1.49083e+06 700916 -515400 1.24468e+06
234 2 Si 1.83437 43.0505 56.3851 2.4 -32.5031 7.22091e+06 5.43623e+06 1.05995e+07 832301 -1.06611e+06 1.51502e+06
235 3 O 1.80909 41.478 56.4358 -1.2 -9.93905 -4.1074e+06 -1.38849e+06 -4.64851e+06 522694 -454386 -807705
236 3 O 1.95891 44.014 52.7248 -1.2 -9.82028 -1.7241e+06 -1.44117e+06 -5.39211e+06 476972 -400098 -1.16466e+06
237 3 O 0.596014 43.7858 55.8586 -1.2 -9.3712 -3.76555e+06 -3.36359e+06 -6.51762e+06 -764220 -2.34688e+06 -267616
238 3 O 3.1959 43.7224 55.6909 -1.2 -9.16214 -876895 -3.13759e+06 -3.82975e+06 1.77975e+06 535300 -1.12725e+06
239 1 Mg 0.379928 42.6418 52.2013 1.2 -7.49976 -831772 -1.43182e+06 5.10218e+06 -665305 1.65094e+06 813033
240 1 Mg 2.41752 42.366 49.4484 1.2 -7.65822 1.94999e+06 -47513.6 863200 106080 -169712 25024.1
241 2 Si 1.89374 44.6874 51.2398 2.4 -31.9679 5.73559e+06 4.05091e+06 1.19281e+07 296171 329992 181512
242 3 O 2.00266 46.254 51.2996 -1.2 -10.3711 -1.98653e+06 -1.5763e+06 -4.28693e+06 706836 -313202 424847
243 3 O 1.88123 43.8059 57.8187 -1.2 -9.32267 -4.54557e+06 -1.27538e+06 -7.78578e+06 401982 -1.39618e+06 1.70971e+06
244 3 O 0.577464 44.0549 50.6567 -1.2 -9.38398 -2.35001e+06 -2.04505e+06 -5.27678e+06 1.0557e+06 -896781 -98626.5
245 1 Mg -2.58906 42.6425 52.3022 1.2 -7.31904 -635853 -2.04205e+06 4.84231e+06 1.53397e+06 -1.70133e+06 1.16204e+06
246 3 O 3.13067 44.0398 50.464 -1.2 -9.78726 -2.24413e+06 -1.83375e+06 -2.85124e+06 -250651 1.0111e+06 -212078
247 1 Mg -1.07898 42.8948 55.0393 1.2 -8.12721 1.41837e+06 1.05883e+06 268081 12055.8 -70074.9 709696
248 2 Si -1.19123 40.5617 53.2713 2.4 -32.7958 7.38976e+06 3.88217e+06 1.38231e+07 -1.00856e+06 -1.30613e+06 1.12618e+06
249 3 O -1.14411 39.02 53.119 -1.2 -9.83183 -3.0414e+06 -2.10012e+06 -5.12711e+06 100921 -32705.7 646755
250 3 O -0.631421 41.9099 46.4159 -1.2 -7.82208 -2.73049e+06 -1.68454e+06 -3.42983e+06 -605318 -1.5069e+06 1.10498e+06
251 3 O -2.52542 41.3348 53.916 -1.2 -9.16632 -940295 -1.35702e+06 -4.70955e+06 -2.02884e+06 -67417.3 291186
252 3 O 0.0716742 41.2436 53.8851 -1.2 -9.30539 -2.94623e+06 -2.58572e+06 -6.20097e+06 1.60946e+06 -1.47758e+06 319071
253 1 Mg -2.45302 49.8193 57.3435 1.2 -7.76321 139722 -1.43763e+06 4.75805e+06 -1.19397e+06 -1.59271e+06 -1.28039e+06
254 1 Mg -0.961069 49.6502 49.8327 1.2 -8.18494 333515 1.41199e+06 2.88357e+06 -169157 254555 565441
255 2 Si -0.488083 47.1636 47.9198 2.4 -33.836 7.7581e+06 6.01062e+06 1.07546e+07 478877 2.32649e+06 -345314
256 3 O -0.40607 48.7329 47.9837 -1.2 -8.95528 -2.15358e+06 -3.74351e+06 -3.56751e+06 464708 -1.9261e+06 -137730
257 3 O -1.0361 46.031 51.7632 -1.2 -10.0084 -1.13715e+06 -1.84865e+06 -6.00198e+06 444246 -65231.4 -1.0136e+06
258 3 O -1.65866 46.5866 48.821 -1.2 -9.10876 -607889 -3.11289e+06 -4.00967e+06 7275.96 -356862 -1.32934e+06
259 1 Mg 0.554124 45.1001 46.8117 1.2 -6.78671 1.70592e+06 -667335 1.35712e+06 1.12279e+06 1.5941e+06 -846330
260 3 O 0.974961 46.5195 48.3832 -1.2 -8.97487 -1.19354e+06 -1.19443e+06 -2.70598e+06 -282173 -324581 767815
261 1 Mg 2.08408 45.1257 54.5286 1.2 -8.08518 1.44108e+06 549395 1.1364e+06 -707723 782017 1.43423e+06
262 2 Si 1.85466 47.8024 56.3305 2.4 -33.4199 8.70192e+06 2.73694e+06 1.22335e+07 -1.18357e+06 -101020 227585
263 3 O 1.94738 46.2961 56.3322 -1.2 -9.37318 -4.66351e+06 -3.6955e+06 -4.63316e+06 -668544 81427.5 -1.00912e+06
264 3 O 2.0677 48.7672 52.7232 -1.2 -9.7472 -2.60026e+06 -1.74546e+06 -6.21742e+06 -92043.7 -655210 -1.00789e+06
265 3 O 0.530352 48.5218 55.6613 -1.2 -9.19756 -1.51051e+06 -2.48096e+06 -4.455e+06 -1.37256e+06 -14527.1 357880
266 3 O 3.13496 48.4956 55.748 -1.2 -9.14276 -2.10045e+06 -4.76338e+06 -3.48826e+06 360265 552187 1.20415e+06
267 1 Mg 0.488584 47.395 52.1996 1.2 -7.21064 -1.42491e+06 -1.85989e+06 5.49354e+06 -1.21178e+06 2.04042e+06 325310
268 1 Mg 2.52544 47.1195 49.4466 1.2 -7.5069 1.68552e+06 75083.8 768084 133776 -163340 277905
269 2 Si 2.00256 49.4407 51.2382 2.4 -32.2855 7.08344e+06 3.35313e+06 1.19014e+07 249459 522281 179334
270 3 O 2.11156 51.0073 51.2982 -1.2 -10.0799 -2.89224e+06 -1.16468e+06 -4.62658e+06 731494 -521572 695484
271 3 O 1.73552 48.3561 57.8857 -1.2 -8.73999 -3.04682e+06 -1.63528e+06 -3.86678e+06 717391 327281 993828
272 3 O 0.686344 48.8082 50.655 -1.2 -9.27899 -2.72611e+06 -1.79414e+06 -5.63355e+06 1.1345e+06 -531383 -276303