ITEM: TIMESTEP
19700
ITEM: NUMBER OF ATOMS
10500
ITEM: BOX BOUNDS xy xz yz pp pp pp
0.0000000000000000e+00 8.9687999999999999e+00 2.9895999999999998e+00
0.0000000000000000e+00 1.1872499999999999e+02 0.0000000000000000e+00
0.0000000000000000e+00 2.5297749999999999e+02 0.0000000000000000e+00
ITEM: ATOMS id type element xu yu zu q c_pe c_s[1] c_s[2] c_s[3] c_s[4] c_s[5] c_s[6]
1 1 Mg -3.44471 6.97225 57.4276 1.2 -8.07394 456199 -1.54422e+06 4.03687e+06 -1.75004e+06 -1.88148e+06 -1.22999e+06
2 1 Mg -1.82655 6.90154 50.0912 1.2 -8.13727 3207.7 1.30824e+06 932481 -101730 -355639 1.31257e+06
3 2 Si -0.257935 3.96038 48.0876 2.4 -36.2375 1.03552e+07 9.06066e+06 1.04971e+07 813825 1.96548e+06 1.55154e+06
4 3 O -0.335812 5.46814 47.6264 -1.2 -7.73326 -3.18325e+06 -2.69257e+06 -2.29024e+06 141121 -971830 -516708
5 3 O -2.03793 3.43377 51.8941 -1.2 -8.74748 -2.92138e+06 -2.23178e+06 -6.06016e+06 -785001 1.15508e+06 -2.15553e+06
6 3 O -1.54015 3.53929 48.9521 -1.2 -8.19502 -1.46173e+06 -1.73849e+06 -4.22813e+06 28916.7 -704073 -132105
7 1 Mg 1.82954 2.54582 47.1376 1.2 -8.11083 2.79574e+06 -396378 646585 1.14842e+06 839740 523060
8 3 O 1.22989 3.66364 48.7877 -1.2 -7.91954 -1.82326e+06 -2.49844e+06 -3.55084e+06 -482848 -744787 -884936
9 1 Mg 0.888121 2.33992 54.5258 1.2 -8.46875 2.07511e+06 717706 1.72359e+06 132182 -548369 871923
10 2 Si 1.07337 4.92948 56.4729 2.4 -33.379 7.9569e+06 5.98058e+06 1.08607e+07 18899.3 -528909 391413
11 3 O 1.06518 3.36653 56.6008 -1.2 -9.36624 -3.79854e+06 -1.91052e+06 -4.78301e+06 659197 15498.7 48569.7
12 3 O 1.10813 6.07342 52.8172 -1.2 -9.20878 -2.97987e+06 -3.06237e+06 -4.99871e+06 371658 -382808 -1.60542e+06
13 3 O -0.211214 5.57762 55.8467 -1.2 -8.8749 -3.52869e+06 -2.95044e+06 -5.43856e+06 -1.10288e+06 -1.31048e+06 -313805
14 3 O 2.31618 5.66552 55.7397 -1.2 -9.09843 -3.00635e+06 -2.40673e+06 -4.03572e+06 1.03406e+06 676443 -591266
15 1 Mg -0.459401 4.67631 52.2426 1.2 -7.90298 -77838.5 -1.60919e+06 5.42351e+06 -989576 1.12131e+06 1.03673e+06
16 1 Mg 2.79456 3.9971 49.9987 1.2 -8.46426 3.64282e+06 11149 1.66601e+06 -544710 845909 -943015
17 2 Si 1.16169 6.59457 51.2556 2.4 -33.3649 6.65591e+06 6.2937e+06 1.1858e+07 128345 932857 2.59464e+06
18 3 O 1.28989 8.18905 51.2909 -1.2 -9.65391 -2.55547e+06 -1.70459e+06 -3.62481e+06 402792 -949442 931617
19 3 O 1.03979 5.67327 57.9256 -1.2 -9.00819 -3.57094e+06 -2.51619e+06 -5.45367e+06 -147712 -980982 924531
20 3 O -0.184847 6.06029 50.6845 -1.2 -8.84638 -2.95728e+06 -3.16656e+06 -4.82826e+06 1.39627e+06 -503573 -1.28509e+06
21 1 Mg -3.49704 4.67769 52.6661 1.2 -7.76634 -558880 -2.45877e+06 2.87415e+06 2.23128e+06 -1.28753e+06 1.54846e+06
22 3 O 2.48581 5.93312 50.6539 -1.2 -9.30203 -2.81326e+06 -1.62957e+06 -3.27847e+06 -1.54947e+06 -569623 -799875
23 1 Mg -1.9193 4.6798 55.2336 1.2 -8.5158 1.98317e+06 1.6259e+06 587407 -145249 76933.6 -575715
24 2 Si -2.01645 2.62892 53.3156 2.4 -33.6521 7.62615e+06 4.29622e+06 1.4148e+07 936282 -515588 93936
25 3 O -2.05838 1.0502 53.1027 -1.2 -9.29748 -3.81798e+06 -478094 -5.58919e+06 -393270 169762 433229
26 3 O -0.0467762 2.97103 46.8385 -1.2 -6.9018 -3.14587e+06 -2.28168e+06 -2.73786e+06 -990671 -2.0039e+06 -616795
27 3 O -3.28845 3.30541 54.0546 -1.2 -8.86996 -2.52623e+06 -2.84022e+06 -5.98029e+06 -955741 -51603.8 1.11379e+06
28 3 O -0.774358 3.21763 54.0712 -1.2 -9.02136 -4.22123e+06 -2.58611e+06 -4.78476e+06 1.31564e+06 -707235 635951
29 1 Mg -3.30306 11.7588 57.476 1.2 -7.6699 -424837 -1.00003e+06 4.10897e+06 -1.53439e+06 -2.06092e+06 -649687
30 1 Mg -1.75014 11.5838 49.8362 1.2 -8.59531 968214 2.12609e+06 2.3816e+06 -322838 295020 900562
31 2 Si -1.18003 9.02138 47.9309 2.4 -34.551 8.64719e+06 7.75542e+06 9.16191e+06 233752 2.60015e+06 571254
32 3 O -1.23224 10.5991 47.9811 -1.2 -8.61046 -2.66194e+06 -3.78761e+06 -2.59345e+06 655587 -1.91422e+06 -98688.4
33 3 O -1.79016 8.01447 51.8693 -1.2 -9.40679 -2.58844e+06 -2.64128e+06 -5.69795e+06 -81995.7 778829 -1.28118e+06
34 3 O -2.30986 8.37215 48.8528 -1.2 -8.93926 -1.06572e+06 -2.86455e+06 -3.04306e+06 -350721 -578899 -915820
35 1 Mg 0.154883 7.08234 46.8007 1.2 -7.59576 2.01239e+06 140943 499319 942827 1.72964e+06 -948559
36 3 O 0.325447 8.50934 48.3809 -1.2 -8.57167 -1.51182e+06 -2.28028e+06 -2.41368e+06 -23136.3 -842556 280212
37 1 Mg 1.18388 7.0457 54.6327 1.2 -8.48271 2.47932e+06 1.00333e+06 1.28832e+06 251155 -546293 1.22399e+06
38 2 Si 1.17718 9.76306 56.502 2.4 -33.772 8.63003e+06 4.86965e+06 1.06611e+07 157384 -512641 -435039
39 3 O 1.0971 8.20504 56.5754 -1.2 -9.02318 -3.82149e+06 -1.45294e+06 -5.05142e+06 473509 -484328 -215524
40 3 O 1.28624 10.7248 52.7351 -1.2 -9.38231 -2.85605e+06 -1.79823e+06 -4.29553e+06 454154 -287314 -286564
41 3 O -0.0763317 10.4831 55.8675 -1.2 -8.90682 -2.06373e+06 -3.13702e+06 -4.36072e+06 -188252 -865221 249749
42 3 O 2.48876 10.3705 55.7768 -1.2 -9.15423 -2.64075e+06 -2.6879e+06 -3.10594e+06 889053 13233.5 -177547
43 1 Mg -0.262694 9.34741 52.2523 1.2 -7.6572 -316776 -888899 4.95441e+06 -1.68294e+06 1.65172e+06 695195
44 1 Mg 1.87648 9.01537 49.4629 1.2 -7.90552 2.02174e+06 783797 76775.5 241686 -246659 351536
45 2 Si 1.21415 11.3799 51.2378 2.4 -33.1661 8.59306e+06 5.17089e+06 1.02872e+07 275267 319989 555649
46 3 O 1.31634 12.9512 51.3023 -1.2 -9.68465 -3.55823e+06 -1.85634e+06 -3.41644e+06 491932 -315803 596694
47 3 O 1.17757 10.3988 57.9668 -1.2 -8.9857 -3.36528e+06 -2.78244e+06 -5.86419e+06 2311.08 -1.21504e+06 257529
48 3 O -0.115718 10.7564 50.681 -1.2 -8.8142 -3.25344e+06 -2.54141e+06 -4.70995e+06 1.28827e+06 -384233 -687915
49 1 Mg -3.26386 9.35564 52.3622 1.2 -7.5716 -467113 -819965 4.029e+06 1.90834e+06 -1.70519e+06 481935
50 3 O 2.45216 10.7265 50.4558 -1.2 -9.33294 -3.0099e+06 -2.07457e+06 -2.10661e+06 -840447 457937 -110250
51 1 Mg -1.84471 9.40083 55.1406 1.2 -8.42939 3.02572e+06 1.07603e+06 1.07394e+06 443904 373857 -1.22703e+06
52 2 Si -1.74399 7.34952 53.3454 2.4 -33.078 8.23804e+06 4.22781e+06 1.19192e+07 352604 230238 165108
53 3 O -1.91147 5.80073 53.3466 -1.2 -9.47284 -3.33105e+06 -2.33788e+06 -5.11495e+06 971491 7892.8 -739264
54 3 O -1.19417 8.46968 46.4488 -1.2 -7.54308 -2.88139e+06 -2.29872e+06 -2.6891e+06 -541853 -1.74067e+06 731546
55 3 O -3.04399 8.02888 54.0285 -1.2 -8.94328 -2.253e+06 -3.18277e+06 -4.60591e+06 -511483 244376 -338428
56 3 O -0.499745 8.04038 54.0684 -1.2 -9.15993 -2.85548e+06 -2.05094e+06 -3.74515e+06 863809 -335286 41854.8
57 1 Mg -3.22293 16.5239 57.4422 1.2 -7.91358 -18745.9 -1.44505e+06 3.71336e+06 -395804 -2.11495e+06 -889930
58 1 Mg -1.6714 16.3544 49.8412 1.2 -8.65058 1.1075e+06 1.96359e+06 2.36698e+06 -180330 130482 667060
59 2 Si -1.18567 13.8526 47.9314 2.4 -34.6487 9.05969e+06 6.44133e+06 1.02457e+07 495728 2.22693e+06 -191970
60 3 O -1.09664 15.4205 47.9915 -1.2 -8.56287 -2.71571e+06 -3.93453e+06 -3.15222e+06 421927 -1.91575e+06 -197063
61 3 O -1.73493 12.7491 51.7772 -1.2 -8.81753 -2.26853e+06 -2.48919e+06 -3.96042e+06 537171 131871 -942661
62 3 O -2.36115 13.2717 48.8238 -1.2 -8.63784 -1.37075e+06 -3.22098e+06 -3.75656e+06 -91919.1 -383854 -1.3254e+06
63 1 Mg -0.159928 11.7639 46.8533 1.2 -7.12165 2.27525e+06 -400751 1.04698e+06 1.12655e+06 1.56641e+06 -752126
64 3 O 0.2623 13.1866 48.413 -1.2 -8.55825 -1.91117e+06 -1.25718e+06 -2.50087e+06 -206512 -270703 712801
65 1 Mg 1.34021 11.8514 54.5914 1.2 -8.06373 2.15469e+06 1.58641e+06 1.5758e+06 103510 109898 271338
66 2 Si 1.21224 14.434 56.3854 2.4 -32.8795 7.38241e+06 4.61144e+06 1.15528e+07 -184524 -436014 782486
67 3 O 1.22781 12.9277 56.531 -1.2 -9.8761 -3.25324e+06 -4.13311e+06 -4.15295e+06 -562574 60293.6 -548275
68 3 O 1.36565 15.4813 52.729 -1.2 -9.2181 -3.65911e+06 -2.07396e+06 -4.11566e+06 -95021.6 -652657 -1.10561e+06
69 3 O -0.0469809 15.1744 55.7333 -1.2 -9.34802 -2.03895e+06 -2.43592e+06 -4.5902e+06 -1.02595e+06 -1.12636e+06 -326957
70 3 O 2.51954 15.1236 55.7713 -1.2 -9.27628 -2.23693e+06 -3.32538e+06 -4.3884e+06 1.21855e+06 1.11686e+06 -23142
71 1 Mg -0.206989 14.1049 52.2121 1.2 -7.83388 262398 -505363 4.20929e+06 -1.37997e+06 1.69199e+06 979454
72 1 Mg 1.82591 13.8102 49.4556 1.2 -8.02099 2.55094e+06 561346 287239 146216 -73202.7 379715
73 2 Si 1.29285 16.1518 51.2434 2.4 -33.3871 8.78258e+06 4.6744e+06 1.0655e+07 183324 836492 892654
74 3 O 1.39496 17.7199 51.3047 -1.2 -9.58428 -3.35001e+06 -1.7912e+06 -4.043e+06 859051 -485349 434884
75 3 O 1.20345 15.1528 57.9089 -1.2 -8.78319 -2.55744e+06 -2.29187e+06 -3.53055e+06 -310863 429453 1.64065e+06
76 3 O -0.0269106 15.5178 50.6688 -1.2 -8.7956 -3.66449e+06 -2.3132e+06 -4.66905e+06 1.04994e+06 -635885 -474860
77 1 Mg -3.18391 14.1057 52.3125 1.2 -7.78875 -356327 -453938 3.70269e+06 1.57776e+06 -1.71416e+06 1.02651e+06
78 3 O 2.52432 15.503 50.4579 -1.2 -9.14276 -3.18588e+06 -2.08439e+06 -2.68434e+06 -307810 607169 -470117
79 1 Mg -1.73862 14.2061 55.0936 1.2 -8.15914 1.82199e+06 1.93241e+06 1.0229e+06 -180156 -170972 -1.14883e+06
80 2 Si -1.68794 12.0525 53.3114 2.4 -32.937 7.3826e+06 4.44388e+06 1.26661e+07 136065 438665 -818672
81 3 O -1.72776 10.5403 53.1793 -1.2 -9.76228 -2.83872e+06 -2.88141e+06 -4.68214e+06 171584 262476 1.16454e+06
82 3 O -1.21337 13.3381 46.4311 -1.2 -7.5714 -3.19514e+06 -1.93801e+06 -3.10739e+06 -630943 -1.44978e+06 859456
83 3 O -2.91732 12.7973 53.9878 -1.2 -9.46811 -1.94871e+06 -2.78146e+06 -4.62314e+06 -759318 642540 387075
84 3 O -0.352199 12.7841 53.901 -1.2 -9.28814 -1.10024e+06 -2.02006e+06 -3.73563e+06 1.25688e+06 -142110 552372
85 1 Mg -3.10983 21.2418 57.4712 1.2 -7.66352 7832.63 -854325 4.19368e+06 -562235 -1.53775e+06 40478.8
86 1 Mg -1.5831 21.1217 49.8405 1.2 -8.67991 1.12114e+06 1.86155e+06 2.45477e+06 -204264 312221 539441
87 2 Si -1.09384 18.6291 47.9287 2.4 -34.7265 9.18573e+06 6.36693e+06 1.03797e+07 502819 2.33357e+06 -327180
88 3 O -1.02071 20.1985 47.9911 -1.2 -8.52838 -2.81874e+06 -3.95379e+06 -3.26531e+06 457451 -1.93893e+06 -90080.6
89 3 O -1.65002 17.5002 51.771 -1.2 -8.87845 -3.02898e+06 -3.0253e+06 -7.13776e+06 -91033.1 30701.3 -8170.56
90 3 O -2.26174 18.0434 48.8281 -1.2 -8.60922 -1.42439e+06 -3.21354e+06 -3.83371e+06 -31659.1 -354463 -1.23441e+06
91 1 Mg -0.0440435 16.5651 46.8269 1.2 -7.16317 2.28128e+06 -489625 1.18047e+06 1.13543e+06 1.57918e+06 -688919
92 3 O 0.37001 17.9877 48.3925 -1.2 -8.50479 -1.96799e+06 -1.32747e+06 -2.55659e+06 -282129 -338790 726259
93 1 Mg 1.35129 16.4332 54.6141 1.2 -8.29551 3.50018e+06 933055 1.23705e+06 -104151 -218901 1.02995e+06
94 2 Si 1.34365 19.1078 56.3588 2.4 -33.8212 9.13899e+06 2.5852e+06 1.22443e+07 124802 -547944 -271384
95 3 O 1.25033 17.5875 56.4759 -1.2 -9.47443 -4.14531e+06 -4.81632e+06 -5.10618e+06 291220 53948.1 154322
96 3 O 1.45147 20.239 52.7294 -1.2 -9.05954 -3.304e+06 -2.03066e+06 -5.35112e+06 2829.11 -257073 -498924
97 3 O 0.110686 19.7996 55.61 -1.2 -8.61551 -3.45435e+06 -1.9569e+06 -5.74779e+06 -790198 -613024 -219106
98 3 O 2.61958 19.8216 55.6803 -1.2 -8.80552 -3.64091e+06 -1.76208e+06 -3.33536e+06 1.59592e+06 -381962 -503003
99 1 Mg -0.126194 18.8651 52.2079 1.2 -8.03165 -181233 -1.19886e+06 4.8368e+06 -1.42387e+06 1.98217e+06 956957
100 1 Mg 1.92402 18.5815 49.4545 1.2 -8.05609 2.51484e+06 354045 492913 89210.7 -159217 197588
101 2 Si 1.38106 20.9117 51.2443 2.4 -33.4279 8.78272e+06 4.55482e+06 1.08335e+07 329764 158497 -16734.7
102 3 O 1.48527 22.4795 51.3054 -1.2 -9.62331 -3.53592e+06 -1.86419e+06 -3.92764e+06 570749 -567781 663556
103 3 O 1.219 19.7845 57.8113 -1.2 -9.06289 -3.34375e+06 -2.24213e+06 -6.02366e+06 235320 -29439.8 489643
104 3 O 0.0615419 20.2804 50.6669 -1.2 -8.69494 -3.43047e+06 -2.23134e+06 -5.17429e+06 1.23336e+06 -612263 -299459
105 1 Mg -3.09665 18.8643 52.3122 1.2 -7.77659 134470 -1.1591e+06 4.25493e+06 1.83645e+06 -1.94308e+06 697363
106 3 O 2.61548 20.2646 50.4626 -1.2 -9.18139 -3.3613e+06 -1.99836e+06 -2.49119e+06 -400249 850933 -253717
107 1 Mg -1.63195 18.9575 55.0104 1.2 -8.66234 2.82967e+06 305908 1.15474e+06 163535 -381381 -853448
108 2 Si -1.60402 16.8806 53.2174 2.4 -33.7499 7.44949e+06 3.73015e+06 1.06965e+07 710575 -234937 919798
109 3 O -1.74447 15.3306 53.1531 -1.2 -9.31226 -3.22299e+06 -2.86694e+06 -4.37197e+06 714973 398652 335247
110 3 O -1.12868 18.1227 46.4249 -1.2 -7.54704 -3.1902e+06 -1.92344e+06 -3.1593e+06 -605515 -1.49622e+06 890487
111 3 O -2.89315 17.5134 53.928 -1.2 -8.74366 -2.6486e+06 -3.31744e+06 -4.46105e+06 -33095.6 392029 -941771
112 3 O -0.363699 17.5618 53.8645 -1.2 -8.90121 -3.79754e+06 -2.97951e+06 -4.69223e+06 -143793 -1.1063e+06 -451817
113 1 Mg -2.96447 26.0184 57.2736 1.2 -7.53008 -658529 -1.01066e+06 4.26605e+06 -859077 -1.52577e+06 -1.29716e+06
114 1 Mg -1.48778 25.88 49.8402 1.2 -8.49202 810545 2.17259e+06 2.14156e+06 -221844 76348.6 393444
115 2 Si -1.00491 23.3922 47.9274 2.4 -34.6268 9.00423e+06 6.55733e+06 1.02192e+07 476516 2.30951e+06 -718583
116 3 O -0.927602 24.9615 47.9909 -1.2 -8.62152 -2.69066e+06 -4.19656e+06 -3.07412e+06 464905 -1.90677e+06 62263
117 3 O -1.55795 22.2588 51.7696 -1.2 -8.8506 -2.82238e+06 -2.45703e+06 -4.23818e+06 693913 76150.3 -856109
118 3 O -2.17411 22.8111 48.8277 -1.2 -8.63681 -1.35088e+06 -3.32201e+06 -3.79994e+06 18082 -381330 -1.08884e+06
119 1 Mg 0.0423997 21.3296 46.8225 1.2 -7.15028 2.27801e+06 -518621 1.20524e+06 1.12536e+06 1.58565e+06 -822982
120 3 O 0.458537 22.7495 48.3911 -1.2 -8.53887 -1.91922e+06 -1.39329e+06 -2.4981e+06 -297787 -313050 937640
121 1 Mg 1.40207 21.3075 54.5153 1.2 -8.46237 1.72967e+06 1.76195e+06 1.32398e+06 157976 178712 499136
122 2 Si 1.56446 23.9619 56.2674 2.4 -32.963 5.66476e+06 4.27557e+06 1.19193e+07 124192 589942 927288
123 3 O 1.53343 22.4235 56.4373 -1.2 -9.59774 -2.87727e+06 -2.27254e+06 -4.39447e+06 777582 -61760.7 -1.11066e+06
124 3 O 1.54441 24.9963 52.7297 -1.2 -9.36039 -2.93746e+06 -2.26633e+06 -4.82409e+06 -656518 -551778 -836011
125 3 O 0.280909 24.5759 55.6022 -1.2 -9.34844 -2.36543e+06 -3.53019e+06 -4.23561e+06 -629419 -794769 -480744
126 3 O 2.80819 24.6738 55.7119 -1.2 -9.50086 -3.3906e+06 -3.62036e+06 -6.10834e+06 66954 1.54905e+06 162616
127 1 Mg -0.0335968 23.6229 52.2067 1.2 -7.85687 -178780 -971986 4.50431e+06 -1.07753e+06 2.02503e+06 417475
128 1 Mg 2.01073 23.3445 49.4541 1.2 -7.99565 2.46667e+06 428653 377865 147803 -130071 18446
129 2 Si 1.47594 25.6699 51.2449 2.4 -32.9038 7.95989e+06 5.04703e+06 1.02915e+07 603363 1.16223e+06 14468.5
130 3 O 1.58172 27.2371 51.3054 -1.2 -9.96201 -2.81395e+06 -2.20999e+06 -3.6178e+06 875101 -858627 526412
131 3 O 1.56614 24.6371 57.8113 -1.2 -9.18118 -2.97315e+06 -2.12956e+06 -4.30398e+06 37048.8 331844 729299
132 3 O 0.157925 25.0378 50.6651 -1.2 -8.93592 -3.50573e+06 -2.42389e+06 -4.64503e+06 1.08603e+06 -612284 40999.1
133 1 Mg -3.00341 23.6231 52.3098 1.2 -7.72284 -293015 -1.1911e+06 3.43248e+06 1.88223e+06 -2.08175e+06 1.19129e+06
134 3 O 2.71149 25.0232 50.4656 -1.2 -9.28372 -2.9513e+06 -2.29471e+06 -2.6032e+06 -363493 680733 -263980
135 1 Mg -1.46845 23.758 55.1059 1.2 -7.9503 1.62967e+06 1.11973e+06 1.45792e+06 -429594 -18733.8 -916842
136 2 Si -1.61741 21.6143 53.3007 2.4 -32.9932 8.56093e+06 5.49832e+06 1.20798e+07 99946.5 342504 -736956
137 3 O -1.5589 20.0249 53.2078 -1.2 -9.44048 -4.01558e+06 -399462 -4.93917e+06 59992.8 -141430 1.65189e+06
138 3 O -1.03938 22.8897 46.4223 -1.2 -7.58545 -3.11261e+06 -2.00671e+06 -3.09181e+06 -604557 -1.50105e+06 1.03625e+06
139 3 O -2.89878 22.3105 53.8572 -1.2 -9.46002 -2.38825e+06 -2.54163e+06 -5.17966e+06 -712243 1.06643e+06 494522
140 3 O -0.253787 22.2844 53.9447 -1.2 -9.11917 -380142 -3.21263e+06 -3.975e+06 1.26597e+06 -686979 142866
141 1 Mg -2.81282 30.7712 57.4553 1.2 -7.60898 -124457 -406292 3.75322e+06 -813625 -1.69082e+06 -968727
142 1 Mg -1.38776 30.6357 49.8391 1.2 -8.34123 552371 2.21139e+06 2.11375e+06 -140868 251590 747710
143 2 Si -0.907929 28.1491 47.9262 2.4 -34.3371 8.56992e+06 7.11864e+06 9.63163e+06 500504 2.28667e+06 -503273
144 3 O -0.829229 29.7184 47.99 -1.2 -8.75061 -2.48332e+06 -4.40365e+06 -2.89818e+06 454008 -1.91757e+06 -157258
145 3 O -1.45946 27.0152 51.769 -1.2 -9.35274 -1.97415e+06 -2.78267e+06 -4.25497e+06 85704.9 818544 -702845
146 3 O -2.07744 27.5697 48.8273 -1.2 -8.81084 -1.03275e+06 -3.65924e+06 -3.51337e+06 3070.26 -323353 -1.15489e+06
147 1 Mg 0.137907 26.087 46.819 1.2 -7.05022 2.13378e+06 -290419 968418 1.12561e+06 1.58841e+06 -878459
148 3 O 0.55579 27.5065 48.3893 -1.2 -8.70048 -1.68943e+06 -1.70805e+06 -2.15116e+06 -291304 -338903 864694
149 1 Mg 1.52305 26.0652 54.5458 1.2 -8.09062 1.52892e+06 1.24843e+06 692153 135072 -510060 1.23961e+06
150 2 Si 1.65571 28.7258 56.3131 2.4 -32.8578 6.27919e+06 7.20695e+06 9.59678e+06 -67365.8 -1486.94 505902
151 3 O 1.5947 27.135 56.3797 -1.2 -9.89853 -3.7133e+06 -1.63816e+06 -4.35292e+06 617331 24937.3 -596179
152 3 O 1.6432 29.7522 52.7291 -1.2 -9.69904 -2.70255e+06 -2.32175e+06 -5.30531e+06 515040 -293789 -1.14222e+06
153 3 O 0.398025 29.4716 55.6687 -1.2 -9.3343 -2.21964e+06 -3.45939e+06 -4.55631e+06 -1.03203e+06 -1.07542e+06 -491189
154 3 O 2.93574 29.3956 55.7267 -1.2 -9.34481 -2.99476e+06 -3.37578e+06 -4.01045e+06 957544 1.48574e+06 -418907
155 1 Mg 0.0647462 28.3794 52.2059 1.2 -7.30714 -344430 -873352 4.36518e+06 -1.4479e+06 1.99781e+06 1.05692e+06
156 1 Mg 2.10696 28.1021 49.4531 1.2 -7.7923 2.08593e+06 736065 132920 90456.1 -85621.9 130177
157 2 Si 1.57592 30.4257 51.2442 2.4 -32.4793 7.5271e+06 5.09754e+06 9.99352e+06 -10658 351672 558952
158 3 O 1.68288 31.9926 51.3043 -1.2 -10.0767 -2.95491e+06 -2.04121e+06 -3.60655e+06 651626 -460944 238393
159 3 O 1.62181 29.3589 57.7953 -1.2 -9.32881 -2.58454e+06 -2.86042e+06 -6.37574e+06 500102 330469 1.48451e+06
160 3 O 0.258524 29.7935 50.6632 -1.2 -9.14315 -2.93575e+06 -2.61987e+06 -4.52526e+06 1.25331e+06 -683005 -578893
161 1 Mg -2.90462 28.3797 52.308 1.2 -7.42566 -1.47625e+06 -563000 3.98796e+06 1.57633e+06 -2.07645e+06 550456
162 3 O 2.81205 29.7787 50.4664 -1.2 -9.52307 -2.70504e+06 -2.44915e+06 -2.3923e+06 -329456 712013 -403344
163 1 Mg -1.31888 28.5596 55.0158 1.2 -7.85031 1.91431e+06 1.5548e+06 902344 201777 115921 -799228
164 2 Si -1.3602 26.3534 53.2632 2.4 -32.2939 7.71081e+06 5.50867e+06 1.23546e+07 -471195 -114091 842055
165 3 O -1.47014 24.7671 53.1392 -1.2 -9.74437 -3.28507e+06 -730169 -4.55912e+06 1.43248e+06 297356 759386
166 3 O -0.943026 27.648 46.4208 -1.2 -7.68968 -2.94683e+06 -2.25444e+06 -2.85174e+06 -605529 -1.49994e+06 994894
167 3 O -2.76682 26.9849 53.9301 -1.2 -9.12626 265275 -2.65515e+06 -4.44408e+06 -1.31071e+06 56339.6 -41129.4
168 3 O -0.149407 27.0901 53.9394 -1.2 -9.93987 -2.2016e+06 -1.81936e+06 -3.96265e+06 626609 -714121 86665.1
169 1 Mg -2.65326 35.5577 57.3687 1.2 -7.54265 -635016 -1.11648e+06 3.93923e+06 -1.29103e+06 -1.63667e+06 -431329
170 1 Mg -1.28421 35.3899 49.8376 1.2 -8.25477 526734 2.3187e+06 1.88669e+06 -199578 144677 862620
171 2 Si -0.807101 32.9036 47.9247 2.4 -34.1909 8.31491e+06 7.17145e+06 9.60217e+06 486472 2.31847e+06 -158126
172 3 O -0.727174 34.4729 47.9885 -1.2 -8.80109 -2.41445e+06 -4.44074e+06 -2.86001e+06 464164 -1.92077e+06 -317871
173 3 O -1.35735 31.7701 51.768 -1.2 -9.14581 -2.16704e+06 -2.54062e+06 -5.98301e+06 448979 -511527 -987113
174 3 O -1.97695 32.3253 48.826 -1.2 -8.90675 -909369 -3.65547e+06 -3.48802e+06 26859 -379105 -1.36772e+06
175 1 Mg 0.237665 30.8412 46.8168 1.2 -6.95765 1.98063e+06 -158896 845378 1.1235e+06 1.58753e+06 -682734
176 3 O 0.656562 32.2608 48.3877 -1.2 -8.78515 -1.51789e+06 -1.72943e+06 -2.16059e+06 -300159 -309762 671007
177 1 Mg 1.67646 30.8603 54.4212 1.2 -7.92681 1.13039e+06 1.06465e+06 1.1322e+06 -304407 412610 637553
178 2 Si 1.76764 33.41 56.4566 2.4 -32.7997 7.84069e+06 6.95513e+06 1.02844e+07 744784 117106 417166
179 3 O 1.71629 31.8523 56.5378 -1.2 -9.63362 -3.41942e+06 -2.81153e+06 -3.49686e+06 378744 -96088.4 -38302.4
180 3 O 1.74574 34.5067 52.7279 -1.2 -9.70939 -2.1291e+06 -2.41143e+06 -4.78382e+06 -436168 -909155 -1.07045e+06
181 3 O 0.464331 34.0902 55.7626 -1.2 -9.49965 -2.45818e+06 -2.71218e+06 -2.62542e+06 -1.73214e+06 35505 -706044
182 3 O 2.9995 34.1454 55.7454 -1.2 -9.18606 -2.02291e+06 -3.17852e+06 -4.40622e+06 1.47002e+06 669306 -86448.2
183 1 Mg 0.167046 33.1343 52.2045 1.2 -7.45535 -893567 -1.01064e+06 4.40891e+06 -742767 1.78584e+06 586382
184 1 Mg 2.20727 32.8578 49.4516 1.2 -7.69924 2.00009e+06 687616 128595 119116 -144808 328442
185 2 Si 1.67943 35.1802 51.2429 2.4 -32.3894 6.68735e+06 5.34409e+06 1.04046e+07 439333 976436 783493
186 3 O 1.78736 36.747 51.303 -1.2 -10.0393 -2.64428e+06 -2.11673e+06 -3.78424e+06 852655 -533136 193133
187 3 O 1.82146 34.149 57.9199 -1.2 -9.34457 -2.37576e+06 -2.90058e+06 -4.16544e+06 169443 509047 884852
188 3 O 0.362533 34.5479 50.661 -1.2 -9.24377 -2.82061e+06 -2.67075e+06 -4.5354e+06 1.04791e+06 -782631 -327768
189 1 Mg -2.80215 33.1347 52.3062 1.2 -7.2928 -865683 -1.22113e+06 3.96745e+06 1.60351e+06 -1.76069e+06 1.38021e+06
190 3 O 2.91593 34.533 50.466 -1.2 -9.60832 -2.42647e+06 -2.48001e+06 -2.36162e+06 -291163 879418 -602633
191 1 Mg -1.25341 33.2538 55.061 1.2 -8.13352 1.90495e+06 1.40046e+06 1.04199e+06 -489213 -46096.2 -667894
192 2 Si -1.40968 31.0944 53.2617 2.4 -32.5713 5.41617e+06 4.00042e+06 1.20743e+07 206685 -449226 417586
193 3 O -1.48476 29.5571 53.1624 -1.2 -10.101 -2.98182e+06 -2.92569e+06 -4.73526e+06 -554127 243883 603456
194 3 O -0.842495 32.4028 46.4192 -1.2 -7.75733 -2.83486e+06 -2.33466e+06 -2.77583e+06 -605166 -1.50478e+06 806438
195 3 O -2.67514 31.8266 53.8885 -1.2 -9.56378 -2.78521e+06 -3.14321e+06 -5.03029e+06 -961946 947036 43741.5
196 3 O -0.124224 31.7397 53.8689 -1.2 -9.40799 -2.27501e+06 -2.86686e+06 -5.48462e+06 924788 -1.60076e+06 182121
197 1 Mg -2.65878 40.2396 57.4106 1.2 -7.39114 -189269 -1.33661e+06 4.03783e+06 -1.60491e+06 -1.65454e+06 -1.00811e+06
198 1 Mg -1.17787 40.1435 49.8359 1.2 -8.40121 700086 2.14803e+06 2.12509e+06 -165267 168545 931817
199 2 Si -0.702692 37.6572 47.9231 2.4 -34.2416 8.41838e+06 6.98937e+06 9.76073e+06 484019 2.29935e+06 313429
200 3 O -0.621782 39.2264 47.9868 -1.2 -8.73828 -2.51256e+06 -4.27904e+06 -3.02807e+06 462337 -1.9145e+06 -493057
201 3 O -1.25221 36.5242 51.7666 -1.2 -9.47399 -1.93372e+06 -2.8477e+06 -5.48772e+06 49704.7 20873.4 -1.34552e+06
202 3 O -1.87295 37.0796 48.8243 -1.2 -8.89166 -923015 -3.61266e+06 -3.54161e+06 7802.34 -334689 -1.62849e+06
203 1 Mg 0.341084 35.5943 46.8152 1.2 -6.93497 1.9489e+06 -156994 840788 1.12284e+06 1.59249e+06 -476710
204 3 O 0.760681 37.0138 48.3864 -1.2 -8.77611 -1.54331e+06 -1.68403e+06 -2.18948e+06 -286732 -334343 435198
205 1 Mg 1.65565 35.482 54.5691 1.2 -7.96359 2.05367e+06 1.94798e+06 992011 -7645.69 -412941 676724
206 2 Si 1.87079 38.1504 56.413 2.4 -32.6177 6.69378e+06 5.27431e+06 1.1286e+07 268885 -436119 226895
207 3 O 1.76248 36.6188 56.5241 -1.2 -9.82742 -2.61787e+06 -3.59327e+06 -4.39092e+06 1.17192e+06 481150 -663108
208 3 O 1.85132 39.2606 52.7264 -1.2 -9.48916 -2.80862e+06 -2.30712e+06 -4.41853e+06 -133682 -440720 -1.019e+06
209 3 O 0.562638 38.846 55.7425 -1.2 -9.38306 -899723 -3.60743e+06 -3.5792e+06 -1.3244e+06 -591262 -535857
210 3 O 3.14667 38.8819 55.8369 -1.2 -9.57102 -2.10145e+06 -2.42847e+06 -4.00519e+06 934512 1.01907e+06 -129949
211 1 Mg 0.272384 37.8883 52.2029 1.2 -7.54788 -478743 -1.64609e+06 4.35508e+06 -1.17771e+06 1.98183e+06 903930
212 1 Mg 2.31122 37.6122 49.4501 1.2 -7.74721 2.04042e+06 605143 257662 121091 -114689 543036
213 2 Si 1.78573 39.934 51.2414 2.4 -32.7436 7.58517e+06 4.971e+06 1.04767e+07 236962 754548 825874
214 3 O 1.89428 41.5006 51.3014 -1.2 -9.8963 -3.12805e+06 -2.02534e+06 -3.71593e+06 807592 -508122 220714
215 3 O 1.83633 38.7797 57.9349 -1.2 -9.34857 -1.95388e+06 -3.06064e+06 -4.23134e+06 -235312 393444 822972
216 3 O 0.469216 39.3015 50.6588 -1.2 -9.08327 -3.1655e+06 -2.48544e+06 -4.70458e+06 1.08941e+06 -685898 -487208
217 1 Mg -2.69668 37.8889 52.3043 1.2 -7.47264 -1.20232e+06 -953567 4.0766e+06 1.40832e+06 -2.02284e+06 489888
218 3 O 3.0225 39.2866 50.4651 -1.2 -9.44104 -2.76894e+06 -2.30534e+06 -2.67904e+06 -267470 707001 -622391
219 1 Mg -1.12731 37.8929 55.1282 1.2 -7.98088 1.94164e+06 1.13176e+06 1.09108e+06 -41524.5 146003 -819546
220 2 Si -1.18749 35.8319 53.2122 2.4 -32.1566 7.18755e+06 5.92356e+06 1.13709e+07 582999 -893392 289530
221 3 O -1.23094 34.2665 53.1898 -1.2 -10.1296 -2.62985e+06 -2.0956e+06 -4.34466e+06 1.27636e+06 861870 319790
222 3 O -0.738054 37.1566 46.4176 -1.2 -7.75148 -2.8472e+06 -2.27627e+06 -2.83459e+06 -605342 -1.50234e+06 596122
223 3 O -2.5224 36.4439 53.975 -1.2 -9.20214 192125 -2.75789e+06 -2.95488e+06 -1.14422e+06 -154250 564125
224 3 O 0.0574968 36.6225 53.8817 -1.2 -9.70642 -2.02471e+06 -2.06199e+06 -3.72387e+06 1.00883e+06 -607877 306532
225 1 Mg -2.68305 44.8819 57.5113 1.2 -7.83186 -502135 -1.98738e+06 4.13345e+06 -1.45809e+06 -1.45827e+06 -890506
226 1 Mg -1.06993 44.8968 49.8343 1.2 -8.51886 802481 1.93527e+06 2.42193e+06 -157837 210636 906629
227 2 Si -0.596166 42.4103 47.9215 2.4 -34.4049 8.65165e+06 6.66379e+06 1.01196e+07 485008 2.29547e+06 402849
228 3 O -0.51472 43.9796 47.9853 -1.2 -8.66163 -2.61879e+06 -4.11255e+06 -3.21039e+06 461294 -1.91146e+06 -500539
229 3 O -1.14475 41.2777 51.7649 -1.2 -9.12676 -2.38574e+06 -2.61223e+06 -6.07597e+06 157747 81164.3 -1.22573e+06
230 3 O -1.76671 41.8331 48.8226 -1.2 -8.78923 -1.07246e+06 -3.46175e+06 -3.70499e+06 4105.79 -362236 -1.68352e+06
231 1 Mg 0.447076 40.3473 46.8135 1.2 -6.98927 2.03639e+06 -323437 1.00657e+06 1.12258e+06 1.58893e+06 -357978
232 3 O 0.866985 41.7666 48.385 -1.2 -8.68552 -1.6884e+06 -1.51618e+06 -2.35548e+06 -282639 -313544 379656
233 1 Mg 1.80051 40.3298 54.5667 1.2 -7.92798 2.13799e+06 1.29382e+06 1.62941e+06 8295.92 -555121 597598
234 2 Si 1.79591 42.849 56.3948 2.4 -32.8663 7.05103e+06 5.71377e+06 1.06379e+07 1.10525e+06 636207 -553582
235 3 O 1.74004 41.306 56.518 -1.2 -9.84879 -2.99633e+06 -3.00587e+06 -4.02072e+06 210610 -186306 -1.26276e+06
236 3 O 1.95891 44.014 52.7248 -1.2 -9.5364 -3.37454e+06 -2.08404e+06 -5.37103e+06 278070 -323026 -1.61439e+06
237 3 O 0.526731 43.5815 55.7703 -1.2 -9.21433 -2.25847e+06 -2.78176e+06 -3.6097e+06 -1.16265e+06 -658514 -475488
238 3 O 3.04371 43.6197 55.7305 -1.2 -9.32483 -2.9394e+06 -1.8614e+06 -4.45538e+06 1.35274e+06 1.0716e+06 -741069
239 1 Mg 0.379928 42.6418 52.2013 1.2 -7.69065 -235665 -960163 4.60828e+06 -1.29774e+06 1.58983e+06 989203
240 1 Mg 2.41752 42.366 49.4484 1.2 -7.85355 2.27177e+06 467032 341166 122493 -110060 583563
241 2 Si 1.89374 44.6874 51.2398 2.4 -32.9095 8.43426e+06 4.55159e+06 1.03051e+07 149384 434076 1.1203e+06
242 3 O 2.00266 46.254 51.2996 -1.2 -9.81646 -3.31257e+06 -1.82387e+06 -3.89945e+06 768954 -306139 66611.5
243 3 O 1.90758 43.4944 57.8807 -1.2 -9.19415 -2.88624e+06 -2.85702e+06 -5.42959e+06 -933730 236827 821796
244 3 O 0.577464 44.0549 50.6567 -1.2 -8.94522 -3.32979e+06 -2.32043e+06 -4.86299e+06 1.1386e+06 -537866 -670226
245 1 Mg -2.58906 42.6425 52.3022 1.2 -7.57865 -668640 -976095 3.72547e+06 1.65536e+06 -1.78436e+06 858028
246 3 O 3.13067 44.0398 50.464 -1.2 -9.32801 -3.07297e+06 -2.11494e+06 -2.73311e+06 -286102 589889 -716832
247 1 Mg -1.22766 42.681 55.1045 1.2 -8.02808 1.73728e+06 2.01253e+06 1.73053e+06 36364.4 174060 -530333
248 2 Si -1.12806 40.5528 53.2101 2.4 -32.7293 6.60918e+06 5.7183e+06 1.16586e+07 839733 83304.2 383259
249 3 O -1.23249 38.9842 53.0922 -1.2 -9.84876 -3.13524e+06 -2.42111e+06 -4.45084e+06 841545 293771 198366
250 3 O -0.631421 41.9099 46.4159 -1.2 -7.69597 -2.93355e+06 -2.11056e+06 -3.00183e+06 -605024 -1.50204e+06 532149
251 3 O -2.40839 41.223 53.9014 -1.2 -9.39885 -1.93437e+06 -2.47151e+06 -4.21535e+06 -1.01415e+06 206701 39778.7
252 3 O 0.13839 41.2719 53.875 -1.2 -9.43534 -1.96271e+06 -1.77439e+06 -4.38481e+06 1.30785e+06 -791972 207285
253 1 Mg -2.58444 49.6957 57.3502 1.2 -7.39089 71774.9 -670143 4.26574e+06 -802784 -1.51978e+06 -820132
254 1 Mg -0.961069 49.6502 49.8327 1.2 -8.49901 825800 1.92287e+06 2.37524e+06 -192551 154750 915853
255 2 Si -0.488083 47.1636 47.9198 2.4 -34.4765 8.76834e+06 6.47483e+06 1.0306e+07 485044 2.30748e+06 246321
256 3 O -0.40607 48.7329 47.9837 -1.2 -8.64946 -2.64716e+06 -4.06295e+06 -3.24837e+06 466060 -1.91436e+06 -433658
257 3 O -1.0361 46.031 51.7632 -1.2 -8.97736 -2.62806e+06 -2.95229e+06 -6.66436e+06 157425 -319620 -933573
258 3 O -1.65866 46.5866 48.821 -1.2 -8.73929 -1.1606e+06 -3.34932e+06 -3.80678e+06 19992.3 -372639 -1.6004e+06
259 1 Mg 0.554124 45.1001 46.8117 1.2 -7.0401 2.11671e+06 -466799 1.15183e+06 1.12347e+06 1.58514e+06 -382371
260 3 O 0.974961 46.5195 48.3832 -1.2 -8.6356 -1.75957e+06 -1.39433e+06 -2.47949e+06 -293100 -306334 445449
261 1 Mg 2.05097 44.9822 54.4549 1.2 -8.12332 2.39715e+06 891394 1.10781e+06 -289501 307936 460694
262 2 Si 1.88092 47.6325 56.3064 2.4 -32.7707 7.14452e+06 5.03724e+06 1.2888e+07 -265125 124311 1.07405e+06
263 3 O 1.86462 46.0838 56.4651 -1.2 -9.51723 -3.6697e+06 -1.73303e+06 -4.12694e+06 579875 -141688 -1.79225e+06
264 3 O 2.0677 48.7672 52.7232 -1.2 -9.37087 -2.81454e+06 -2.0703e+06 -4.62746e+06 131623 -304587 -970144
265 3 O 0.540277 48.3131 55.7244 -1.2 -9.37433 -1.12286e+06 -2.89332e+06 -4.87985e+06 -1.61389e+06 -808939 -824608
266 3 O 3.1238 48.3728 55.6471 -1.2 -9.78252 -2.47969e+06 -2.63976e+06 -4.71033e+06 1.36527e+06 953987 -494522
267 1 Mg 0.488584 47.395 52.1996 1.2 -7.80434 -573422 -1.52931e+06 4.68594e+06 -1.05278e+06 1.9016e+06 873995
268 1 Mg 2.52544 47.1195 49.4466 1.2 -7.89655 2.33994e+06 367683 445581 118053 -142118 531313
269 2 Si 2.00256 49.4407 51.2382 2.4 -32.9503 7.96231e+06 4.67452e+06 1.07089e+07 381532 643009 949165
270 3 O 2.11156 51.0073 51.2982 -1.2 -9.84013 -3.10198e+06 -1.92026e+06 -3.93105e+06 837919 -222328 25353.7
271 3 O 1.89764 48.2899 57.8496 -1.2 -9.08998 -2.25104e+06 -2.23378e+06 -3.79892e+06 -84491.7 -223661 364491
272 3 O 0.686344 48.8082 50.655 -1.2 -8.94809 -3.34292e+06 -2.31099e+06 -4.93791e+06 1.09819e+06 -650646 -473449
273 1 Mg -2.48039 47.3957 52.3005 1.2 -7.58075 -292941 -1.22214e+06 3.98191e+06 1.7399e+06 -1.83508e+06 1.17336e+06
274 3 O 3.23944 48.7932 50.4623 -1.2 -9.33064 -2.97774e+06 -2.12426e+06 -2.68546e+06 -327329 752624 -748260