ITEM: TIMESTEP
57600
ITEM: NUMBER OF ATOMS
10500
ITEM: BOX BOUNDS xy xz yz pp pp pp
0.0000000000000000e+00 8.9687999999999999e+00 2.9895999999999998e+00
0.0000000000000000e+00 1.1872499999999999e+02 0.0000000000000000e+00
0.0000000000000000e+00 2.5297749999999999e+02 0.0000000000000000e+00
ITEM: ATOMS id type element xu yu zu q c_pe c_s[1] c_s[2] c_s[3] c_s[4] c_s[5] c_s[6]
1 1 Mg -3.42588 7.14144 57.5378 1.2 -8.12054 -679478 -3.57176e+06 4.15111e+06 -1.00631e+06 -2.62446e+06 -414826
2 1 Mg -1.82655 6.90154 50.0912 1.2 -8.51971 553506 1.12021e+06 1.17803e+06 -153834 -258995 1.41655e+06
3 2 Si -0.257935 3.96038 48.0876 2.4 -36.7595 1.11371e+07 8.88168e+06 1.07314e+07 801836 1.99879e+06 2.0389e+06
4 3 O -0.335812 5.46814 47.6264 -1.2 -7.49449 -3.55032e+06 -2.49793e+06 -2.49944e+06 146884 -975451 -607136
5 3 O -2.03793 3.43377 51.8941 -1.2 -8.23795 -5.42812e+06 -2.12549e+06 -7.76008e+06 -1.30017e+06 729719 -1.78319e+06
6 3 O -1.54015 3.53929 48.9521 -1.2 -7.91497 -1.94612e+06 -1.68662e+06 -4.23481e+06 24055 -755550 -487743
7 1 Mg 1.82954 2.54582 47.1376 1.2 -8.33211 3.14879e+06 -336368 588049 1.14727e+06 828117 728593
8 3 O 1.22989 3.66364 48.7877 -1.2 -7.63318 -2.24494e+06 -2.43013e+06 -3.65007e+06 -477460 -706502 -1.19855e+06
9 1 Mg 1.05982 2.29577 54.6199 1.2 -8.50958 2.02141e+06 304019 2.17999e+06 -778531 109768 1.23293e+06
10 2 Si 1.14769 5.20258 56.3752 2.4 -33.2507 8.14559e+06 3.02709e+06 1.39189e+07 -715084 -325748 -338327
11 3 O 0.984817 3.66946 56.534 -1.2 -9.32801 -2.77238e+06 -535003 -6.40193e+06 561148 314208 -739334
12 3 O 1.10813 6.07342 52.8172 -1.2 -8.58206 -3.5298e+06 -2.06137e+06 -3.86734e+06 -144589 58466 -884670
13 3 O -0.17705 6.05322 55.7697 -1.2 -8.94607 -516842 229607 -6.1465e+06 -394555 -354060 -1.06557e+06
14 3 O 2.43652 5.83066 55.8416 -1.2 -9.06461 -4.46394e+06 -2.87405e+06 -6.45034e+06 -21806.9 1.72194e+06 782918
15 1 Mg -0.459401 4.67631 52.2426 1.2 -8.73673 181084 -1.96083e+06 4.9286e+06 -1.59135e+06 1.45358e+06 1.81917e+06
16 1 Mg 2.79456 3.9971 49.9987 1.2 -8.79798 4.32307e+06 -126266 1.65703e+06 -506076 760489 -623455
17 2 Si 1.16169 6.59457 51.2556 2.4 -34.2841 8.27995e+06 6.20814e+06 1.17548e+07 340819 488890 2.46372e+06
18 3 O 1.28989 8.18905 51.2909 -1.2 -9.28313 -3.36761e+06 -1.87939e+06 -3.22507e+06 273342 -659307 639620
19 3 O 1.18935 5.81673 57.9427 -1.2 -8.63205 -4.27217e+06 -3.4477e+06 -4.88495e+06 -1.6033e+06 654385 1.17949e+06
20 3 O -0.184847 6.06029 50.6845 -1.2 -8.36347 -3.51208e+06 -3.03806e+06 -5.19128e+06 1.50752e+06 -432628 -1.35906e+06
21 1 Mg -3.49704 4.67769 52.6661 1.2 -8.16501 1.33638e+06 -2.08798e+06 2.4281e+06 2.7434e+06 -1.20284e+06 1.85615e+06
22 3 O 2.48581 5.93312 50.6539 -1.2 -8.91376 -3.64159e+06 -1.43314e+06 -3.08053e+06 -1.68564e+06 -461134 -1.00533e+06
23 1 Mg -1.9193 4.7978 55.3339 1.2 -8.23521 1.7798e+06 628198 1.91233e+06 687363 -52827.9 -75676
24 2 Si -1.93084 2.6866 53.2799 2.4 -34.1523 1.05907e+07 3.3139e+06 1.08629e+07 2.03886e+06 315727 1.03957e+06
25 3 O -1.94367 1.10321 53.166 -1.2 -9.31735 -4.97588e+06 -1.04957e+06 -5.13372e+06 308080 103724 555251
26 3 O -0.0467762 2.97103 46.8385 -1.2 -6.6843 -3.48575e+06 -2.2917e+06 -2.73551e+06 -990045 -2.00829e+06 -786753
27 3 O -3.21698 3.23811 53.9936 -1.2 -8.84372 -3.20832e+06 -2.87816e+06 -6.99048e+06 -996280 1.16122e+06 1.1332e+06
28 3 O -0.567101 3.40575 53.8392 -1.2 -8.46415 -2.44882e+06 -2.12163e+06 -5.51842e+06 1.74756e+06 65977.9 369115
29 1 Mg -3.42606 12.041 57.5678 1.2 -7.54733 -1.13738e+06 43272.4 4.55464e+06 -1.86818e+06 -1.3654e+06 -695408
30 1 Mg -1.75014 11.5838 49.8362 1.2 -8.59139 1.03371e+06 1.90645e+06 2.53546e+06 -302243 157246 299903
31 2 Si -1.18003 9.02138 47.9309 2.4 -34.8368 9.10113e+06 7.23755e+06 9.68436e+06 220355 2.58092e+06 165477
32 3 O -1.23224 10.5991 47.9811 -1.2 -8.57129 -2.73807e+06 -3.59731e+06 -2.76523e+06 653991 -1.8986e+06 284698
33 3 O -1.79016 8.01447 51.8693 -1.2 -8.91456 -3.1032e+06 -3.31475e+06 -5.55952e+06 67615.3 -17442.6 -1.95442e+06
34 3 O -2.30986 8.37215 48.8528 -1.2 -8.71019 -1.41394e+06 -2.61506e+06 -3.30777e+06 -330142 -591553 -867697
35 1 Mg 0.154883 7.08234 46.8007 1.2 -7.76606 2.28216e+06 -92146.4 735427 942790 1.7263e+06 -1.04541e+06
36 3 O 0.325447 8.50934 48.3809 -1.2 -8.38069 -1.82676e+06 -2.01946e+06 -2.66179e+06 -33249.4 -832615 401885
37 1 Mg 1.14641 7.47133 54.7525 1.2 -8.16664 3.47117e+06 -54070.6 1.14962e+06 366005 -163111 793753
38 2 Si 1.29308 9.84831 56.4525 2.4 -32.7645 7.25398e+06 894007 1.37109e+07 -1.55537e+06 810667 714020
39 3 O 1.23705 8.36471 56.5749 -1.2 -9.81269 -5.53242e+06 -4.44182e+06 -5.68761e+06 194178 -198978 -478724
40 3 O 1.28624 10.7248 52.7351 -1.2 -8.70367 -4.86149e+06 -1.57313e+06 -4.23279e+06 -959009 -1.15924e+06 -1.25673e+06
41 3 O -0.0936069 10.5105 55.7753 -1.2 -9.20687 -1.4154e+06 -2.26434e+06 -4.61667e+06 -2.01973e+06 -801528 -1.0243e+06
42 3 O 2.44671 10.5807 55.8647 -1.2 -9.24174 -4.14084e+06 -3.50035e+06 -5.68592e+06 -283579 1.4808e+06 1.17947e+06
43 1 Mg -0.262694 9.34741 52.2523 1.2 -8.10453 734014 -1.4243e+06 3.7929e+06 -2.02013e+06 1.48356e+06 2.06577e+06
44 1 Mg 1.87648 9.01537 49.4629 1.2 -8.14031 2.41396e+06 532020 313763 274378 -208125 364156
45 2 Si 1.21415 11.3799 51.2378 2.4 -33.5281 9.10513e+06 4.34823e+06 1.12403e+07 360691 1.26891e+06 288444
46 3 O 1.31634 12.9512 51.3023 -1.2 -9.86226 -2.66569e+06 -2.24655e+06 -3.69431e+06 792431 -921346 1.0503e+06
47 3 O 1.09819 10.6134 58.0319 -1.2 -8.83433 -2.86279e+06 -868101 -3.24004e+06 167206 270741 868043
48 3 O -0.115718 10.7564 50.681 -1.2 -8.67252 -3.79584e+06 -2.04122e+06 -4.753e+06 1.1779e+06 -404262 -509612
49 1 Mg -3.26386 9.35564 52.3622 1.2 -8.11286 -295814 -836058 3.70635e+06 1.67932e+06 -1.55882e+06 1.34705e+06
50 3 O 2.45216 10.7265 50.4558 -1.2 -9.09368 -3.21988e+06 -1.60958e+06 -2.96575e+06 -745720 217352 -3743.78
51 1 Mg -1.78739 9.5915 55.2409 1.2 -8.55662 1.59624e+06 853962 1.3698e+06 -247081 -415534 -834030
52 2 Si -1.71458 7.46326 53.3882 2.4 -33.8628 7.77642e+06 7.46936e+06 1.20655e+07 8254.36 -321599 1.10501e+06
53 3 O -1.81853 5.8416 53.4177 -1.2 -8.84428 -3.95173e+06 363563 -4.7741e+06 2.11446e+06 -87859.8 -1.04982e+06
54 3 O -1.19417 8.46968 46.4488 -1.2 -7.43458 -3.05415e+06 -2.07546e+06 -2.91297e+06 -540191 -1.73954e+06 964949
55 3 O -2.9463 8.16338 54.118 -1.2 -8.79387 -2.38899e+06 -3.36933e+06 -4.70654e+06 -1.07353e+06 131828 715359
56 3 O -0.464818 8.31386 53.9409 -1.2 -8.91952 -3.87305e+06 -3.49797e+06 -5.06818e+06 1.49205e+06 -290529 776125
57 1 Mg -2.86224 16.636 56.8381 1.2 -7.39609 -1.96783e+06 -1.21083e+06 3.30275e+06 -2.46851e+06 -2.57551e+06 -1.23199e+06
58 1 Mg -1.6714 16.3544 49.8412 1.2 -8.18391 386846 2.3149e+06 1.98247e+06 -171136 279455 907785
59 2 Si -1.18567 13.8526 47.9314 2.4 -34.1719 8.34803e+06 6.97267e+06 9.66163e+06 514059 2.2572e+06 -967027
60 3 O -1.09664 15.4205 47.9915 -1.2 -8.90186 -2.17785e+06 -4.27275e+06 -2.81126e+06 423607 -1.94051e+06 -163.068
61 3 O -1.73493 12.7491 51.7772 -1.2 -9.36827 -2.38776e+06 -3.96423e+06 -5.40919e+06 -172719 307764 1.099e+06
62 3 O -2.36115 13.2717 48.8238 -1.2 -8.85678 -1.06715e+06 -3.46394e+06 -3.45837e+06 -106743 -328078 -860605
63 1 Mg -0.159928 11.7639 46.8533 1.2 -7.05266 2.17062e+06 -414754 1.05504e+06 1.1299e+06 1.5724e+06 -1.21282e+06
64 3 O 0.2623 13.1866 48.413 -1.2 -8.74916 -1.59312e+06 -1.4626e+06 -2.30561e+06 -203991 -315088 1.14769e+06
65 1 Mg 1.1843 11.9601 54.6462 1.2 -8.43706 1.40089e+06 1.00199e+06 1.24066e+06 -352170 -183761 2.08677e+06
66 2 Si 1.09722 14.7422 56.4575 2.4 -31.8863 6.61346e+06 6.35124e+06 1.04571e+07 -808208 3.34741e+06 1.24315e+06
67 3 O 1.12178 13.2215 56.3974 -1.2 -9.59476 -2.99474e+06 -1.79391e+06 -4.63826e+06 -774167 167731 -891893
68 3 O 1.36565 15.4813 52.729 -1.2 -9.67415 -1.9481e+06 -2.43446e+06 -4.47218e+06 1.11908e+06 -293439 -1.02823e+06
69 3 O -0.379025 15.3968 55.8653 -1.2 -9.64261 2.02885e+06 -2.84909e+06 -1.35842e+06 -634733 1.39094e+06 -64715.5
70 3 O 2.31197 15.3737 55.6438 -1.2 -9.80216 -804523 -7.27403e+06 -7.05981e+06 -512374 -546294 -324506
71 1 Mg -0.206989 14.1049 52.2121 1.2 -7.22167 -963844 -76468.9 4.35697e+06 -1.55342e+06 1.92487e+06 1.21278e+06
72 1 Mg 1.82591 13.8102 49.4556 1.2 -7.74165 1.98459e+06 929270 38009 103197 -131059 -11377.1
73 2 Si 1.29285 16.1518 51.2434 2.4 -32.3286 6.69683e+06 5.47832e+06 1.02194e+07 -111918 -21572.2 926001
74 3 O 1.39496 17.7199 51.3047 -1.2 -10.1542 -2.74569e+06 -1.95936e+06 -3.50397e+06 529811 183144 205831
75 3 O 1.39059 15.3672 57.9297 -1.2 -9.73358 -1.24842e+06 -4.01515e+06 -3.42855e+06 -448096 -108336 726292
76 3 O -0.0269106 15.5178 50.6688 -1.2 -9.26416 -2.57059e+06 -2.82794e+06 -4.4428e+06 1.23355e+06 -832215 -679220
77 1 Mg -3.18391 14.1057 52.3125 1.2 -7.10416 -1.34693e+06 25513.1 3.59632e+06 2.08885e+06 -2.20774e+06 984443
78 3 O 2.52432 15.503 50.4579 -1.2 -9.67165 -2.4396e+06 -2.54713e+06 -1.9817e+06 -416815 891648 -428412
79 1 Mg -1.86657 14.1805 55.1634 1.2 -7.59312 2.33715e+06 2.18666e+06 -702518 300629 -339212 -264553
80 2 Si -1.72979 12.1878 53.2378 2.4 -33.0924 7.46295e+06 4.3872e+06 1.00492e+07 1.36737e+06 -922502 1.33905e+06
81 3 O -1.8871 10.5959 53.1225 -1.2 -8.6049 -4.83834e+06 -2.21097e+06 -4.60387e+06 1.44018e+06 598932 912625
82 3 O -1.21337 13.3381 46.4311 -1.2 -7.74473 -2.92376e+06 -2.09425e+06 -2.94471e+06 -633064 -1.45187e+06 1.30663e+06
83 3 O -3.14666 12.6584 53.9081 -1.2 -8.9767 -1.27744e+06 -4.50047e+06 -4.36932e+06 -225086 328392 -1.00591e+06
84 3 O -0.525492 12.8093 53.9707 -1.2 -9.74517 -2.65323e+06 -2.90554e+06 -3.6569e+06 -175772 -1.53463e+06 -249406
85 1 Mg -3.30016 21.4125 57.4023 1.2 -7.23111 -936830 -2.50473e+06 4.53556e+06 -1.12328e+06 -1.80503e+06 -490971
86 1 Mg -1.5831 21.1217 49.8405 1.2 -7.9453 -1030.89 2.10123e+06 2.17157e+06 -212097 100789 282410
87 2 Si -1.09384 18.6291 47.9287 2.4 -33.7713 7.62665e+06 6.79144e+06 9.98508e+06 477117 2.31384e+06 -545886
88 3 O -1.02071 20.1985 47.9911 -1.2 -9.09223 -1.92632e+06 -4.20444e+06 -2.99593e+06 458249 -1.91504e+06 73445.6
89 3 O -1.65002 17.5002 51.771 -1.2 -9.36048 -1.44357e+06 -2.69656e+06 -4.66666e+06 507303 -798017 -1.34313e+06
90 3 O -2.26174 18.0434 48.8281 -1.2 -9.0801 -650052 -3.38574e+06 -3.68534e+06 -14737.2 -401235 -1.27779e+06
91 1 Mg -0.0440435 16.5651 46.8269 1.2 -6.80606 1.70292e+06 -193128 890170 1.1313e+06 1.57893e+06 -919650
92 3 O 0.37001 17.9877 48.3925 -1.2 -8.96742 -1.22701e+06 -1.53398e+06 -2.34946e+06 -284440 -308287 787391
93 1 Mg 1.377 16.6532 54.5615 1.2 -7.65046 528764 394123 -507438 670156 -818969 2.53567e+06
94 2 Si 1.39231 19.3722 56.3325 2.4 -32.441 6.98964e+06 2.99265e+06 1.18237e+07 66631 -469284 856165
95 3 O 1.45664 17.8696 56.4734 -1.2 -9.70662 -2.81749e+06 -3.78408e+06 -5.35862e+06 802917 -1.11055e+06 -669666
96 3 O 1.45147 20.239 52.7294 -1.2 -9.7161 -3.21635e+06 -1.68048e+06 -5.2244e+06 42581.4 10452 -1.44169e+06
97 3 O 0.193444 19.9678 55.5394 -1.2 -9.59516 -1.47963e+06 -3.23128e+06 -4.92212e+06 -188887 -1.02381e+06 -28769.1
98 3 O 2.77095 20.031 55.7349 -1.2 -9.46029 -1.87905e+06 -3.7425e+06 -3.42964e+06 1.05036e+06 19041.4 -31419.1
99 1 Mg -0.126194 18.8651 52.2079 1.2 -7.55063 -744471 -1.00733e+06 4.58104e+06 -1.24438e+06 1.74161e+06 1.09491e+06
100 1 Mg 1.92402 18.5815 49.4545 1.2 -7.53892 1.76868e+06 461214 303889 152572 -123636 299981
101 2 Si 1.38106 20.9117 51.2443 2.4 -31.9295 6.45758e+06 4.65757e+06 1.07068e+07 407933 792579 330623
102 3 O 1.48527 22.4795 51.3054 -1.2 -10.5337 -1.74937e+06 -2.22021e+06 -3.86994e+06 812527 -435665 421779
103 3 O 1.21054 20.0828 57.8255 -1.2 -9.4977 -3.06681e+06 -3.66453e+06 -4.08393e+06 -209430 -1.1067e+06 -66985.6
104 3 O 0.0615419 20.2804 50.6669 -1.2 -9.40602 -2.73505e+06 -2.15237e+06 -4.97798e+06 930530 -498597 -103240
105 1 Mg -3.09665 18.8643 52.3122 1.2 -7.29205 -833977 -1.20765e+06 4.06135e+06 1.44073e+06 -1.68494e+06 1.17612e+06
106 3 O 2.61548 20.2646 50.4626 -1.2 -9.75757 -2.27766e+06 -1.95809e+06 -2.91258e+06 -259927 499677 -300178
107 1 Mg -1.64347 19.0148 55.1033 1.2 -8.03002 963443 1.07882e+06 744549 -69575.4 34525.3 -187685
108 2 Si -1.63116 16.7916 53.2628 2.4 -32.4837 6.14419e+06 3.37016e+06 1.1995e+07 638461 452529 418326
109 3 O -1.70916 15.3143 53.2192 -1.2 -10.2155 -2.7549e+06 -4.82031e+06 -4.15165e+06 -85139.7 -207631 -149844
110 3 O -1.12868 18.1227 46.4249 -1.2 -7.96174 -2.52296e+06 -2.21663e+06 -2.86862e+06 -602769 -1.49579e+06 1.10649e+06
111 3 O -2.74462 17.5499 54.086 -1.2 -9.67853 -2.68876e+06 -3.79066e+06 -3.33174e+06 -798107 1.17137e+06 -183424
112 3 O -0.218367 17.4566 53.8291 -1.2 -9.13481 -1.59392e+06 -3.23082e+06 -4.43503e+06 1.61673e+06 45571.2 -61660.2
113 1 Mg -3.00926 25.9282 57.3015 1.2 -6.91977 -2.38192e+06 -786325 2.93864e+06 -272030 -2.72344e+06 870875
114 1 Mg -1.48778 25.88 49.8402 1.2 -7.60864 -504976 2.32529e+06 1.88935e+06 -215066 146549 654662
115 2 Si -1.00491 23.3922 47.9274 2.4 -33.2208 6.80885e+06 7.32214e+06 9.39814e+06 495836 2.31887e+06 -647975
116 3 O -0.927602 24.9615 47.9909 -1.2 -9.35372 -1.53501e+06 -4.53201e+06 -2.7166e+06 461620 -1.92363e+06 -71822.1
117 3 O -1.55795 22.2588 51.7696 -1.2 -9.95021 -1.78875e+06 -4.4883e+06 -8.87304e+06 91236.3 481.733 438370
118 3 O -2.17411 22.8111 48.8277 -1.2 -9.39048 -162636 -3.68528e+06 -3.39885e+06 -2532.72 -311327 -1.11002e+06
119 1 Mg 0.0423997 21.3296 46.8225 1.2 -6.58407 1.37938e+06 -149632 827692 1.1293e+06 1.59041e+06 -968498
120 3 O 0.458537 22.7495 48.3911 -1.2 -9.25211 -781009 -1.76637e+06 -2.1091e+06 -292715 -359717 918099
121 1 Mg 1.44779 21.3569 54.4574 1.2 -7.78354 1.40894e+06 1.2639e+06 78428.6 481640 -222864 1.74695e+06
122 2 Si 1.28959 24.0636 56.3509 2.4 -31.4815 5.43697e+06 5.27753e+06 9.92403e+06 -720268 -947355 41653.2
123 3 O 1.28529 22.5106 56.3584 -1.2 -10.2969 -2.96169e+06 -2.35363e+06 -4.85998e+06 -390909 744116 -1.02169e+06
124 3 O 1.54441 24.9963 52.7297 -1.2 -10.2038 -1.57988e+06 -1.79197e+06 -4.90431e+06 -614364 -605151 -907290
125 3 O 0.093786 24.8695 55.6517 -1.2 -9.80306 -590712 -2.11573e+06 -3.92989e+06 -235914 -877371 119806
126 3 O 2.67635 24.7219 55.6973 -1.2 -9.8485 -124461 -3.19198e+06 -3.63198e+06 848462 246221 -607474
127 1 Mg -0.0335968 23.6229 52.2067 1.2 -6.80839 -2.40256e+06 -1.86743e+06 4.10033e+06 -1.16086e+06 2.38701e+06 1.01496e+06
128 1 Mg 2.01073 23.3445 49.4541 1.2 -7.19512 1.081e+06 761316 148402 106333 -147180 118155
129 2 Si 1.47594 25.6699 51.2449 2.4 -31.0843 4.7716e+06 5.10378e+06 1.05114e+07 552798 813429 210415
130 3 O 1.58172 27.2371 51.3054 -1.2 -10.8674 -1.53087e+06 -2.2375e+06 -3.38476e+06 833127 -709667 442766
131 3 O 1.30948 24.677 57.7847 -1.2 -10.0773 -2.27588e+06 -4.31894e+06 -6.43258e+06 -797687 101485 446571
132 3 O 0.157925 25.0378 50.6651 -1.2 -9.83921 -1.85753e+06 -2.48105e+06 -4.84396e+06 1.08858e+06 -688284 -149184
133 1 Mg -3.00341 23.6231 52.3098 1.2 -6.71349 -2.10878e+06 -813435 3.97827e+06 1.87808e+06 -1.91428e+06 1.13704e+06
134 3 O 2.71149 25.0232 50.4656 -1.2 -10.2207 -1.43602e+06 -2.42461e+06 -2.37208e+06 -365929 875515 -438726
135 1 Mg -1.60167 23.6223 54.9628 1.2 -7.52901 1.38241e+06 1.80415e+06 -1.53677e+06 136991 -647749 -492594
136 2 Si -1.44863 21.68 53.146 2.4 -31.6992 4.0274e+06 6.04417e+06 9.1133e+06 101560 -623699 1.49871e+06
137 3 O -1.6388 20.017 53.0736 -1.2 -9.59612 -2.87476e+06 225413 -4.99197e+06 551610 127238 3906.04
138 3 O -1.03938 22.8897 46.4223 -1.2 -8.18494 -2.15935e+06 -2.42556e+06 -2.66446e+06 -606751 -1.50057e+06 1.10446e+06
139 3 O -2.76697 22.3306 53.9274 -1.2 -9.69745 -36993.4 -3.94194e+06 -4.9563e+06 -1.00555e+06 18991.8 -244023
140 3 O -0.192299 22.2291 53.8037 -1.2 -10.0114 -3.67009e+06 -4.52204e+06 -5.03045e+06 895041 -1.60232e+06 258702
141 1 Mg -3.02733 30.8687 57.6685 1.2 -6.64427 -4.33432e+06 -1.79297e+06 3.42342e+06 -1.81785e+06 -2.3667e+06 -939074
142 1 Mg -1.38776 30.6357 49.8391 1.2 -7.58814 -623959 2.31945e+06 1.97013e+06 -180297 169341 1.08134e+06
143 2 Si -0.907929 28.1491 47.9262 2.4 -32.9071 6.285e+06 7.5626e+06 9.18134e+06 489015 2.30163e+06 -73224.5
144 3 O -0.829229 29.7184 47.99 -1.2 -9.44474 -1.37889e+06 -4.57506e+06 -2.72173e+06 460549 -1.91582e+06 -405668
145 3 O -1.45946 27.0152 51.769 -1.2 -10.0577 -948482 -1.96756e+06 -7.81621e+06 82606.3 119615 -890928
146 3 O -2.07744 27.5697 48.8273 -1.2 -9.58331 179027 -3.82784e+06 -3.3161e+06 4916.88 -333083 -1.38826e+06
147 1 Mg 0.137907 26.087 46.819 1.2 -6.38251 1.06016e+06 67654.6 614199 1.12383e+06 1.59338e+06 -750538
148 3 O 0.55579 27.5065 48.3893 -1.2 -9.44358 -480693 -1.9261e+06 -1.95046e+06 -289291 -338479 655967
149 1 Mg 1.60738 26.18 54.5182 1.2 -7.18405 945016 974137 780373 -740268 117962 1.4381e+06
150 2 Si 1.56216 28.8786 56.3737 2.4 -31.3008 6.15656e+06 5.4781e+06 1.00696e+07 108412 -792354 -551452
151 3 O 1.43346 27.3426 56.5892 -1.2 -10.2313 -2.02806e+06 -2.19732e+06 -4.30512e+06 -21086.2 -572330 -1.56112e+06
152 3 O 1.6432 29.7522 52.7291 -1.2 -10.5763 -972951 -1.91338e+06 -4.45545e+06 -284627 -694093 -1.09138e+06
153 3 O 0.229097 29.4938 55.7379 -1.2 -10.2071 -522773 -4.27257e+06 -3.54852e+06 -804067 -1.1383e+06 1.09515e+06
154 3 O 2.85613 29.4586 55.6692 -1.2 -10.139 -85844.6 -3.78196e+06 -2.56721e+06 429062 64303.6 769662
155 1 Mg 0.0647462 28.3794 52.2059 1.2 -6.53926 -1.90842e+06 -1.10204e+06 4.34172e+06 -1.03174e+06 1.47656e+06 943251
156 1 Mg 2.10696 28.1021 49.4531 1.2 -7.00113 823672 868882 -5816.27 110469 -105852 349357
157 2 Si 1.57592 30.4257 51.2442 2.4 -30.8991 4.7207e+06 5.20016e+06 1.00964e+07 389534 817765 1.05444e+06
158 3 O 1.68288 31.9926 51.3043 -1.2 -10.7691 -1.76508e+06 -1.90555e+06 -3.55524e+06 803668 -908289 -799.281
159 3 O 1.54956 29.5442 57.9197 -1.2 -9.84276 -1.46461e+06 -5.2609e+06 -2.02073e+06 -339067 272368 1.5813e+06
160 3 O 0.258524 29.7935 50.6632 -1.2 -9.97642 -1.63563e+06 -2.71806e+06 -4.35941e+06 1.1753e+06 -779168 -613307
161 1 Mg -2.90462 28.3797 52.308 1.2 -6.5133 -2.4532e+06 -396791 4.11474e+06 1.34866e+06 -1.41691e+06 713823
162 3 O 2.81205 29.7787 50.4664 -1.2 -10.3256 -1.30007e+06 -2.59169e+06 -2.25617e+06 -340145 819904 -718888
163 1 Mg -1.32449 28.4798 55.0734 1.2 -7.42341 -175542 1.95846e+06 857344 -564809 -408415 -308514
164 2 Si -1.37207 26.3117 53.1943 2.4 -31.4383 1.84419e+06 6.02774e+06 1.09939e+07 -1.1791e+06 -335339 -397248
165 3 O -1.38727 24.6761 53.1502 -1.2 -10.432 -2.43727e+06 -1.15077e+06 -5.37642e+06 892820 356768 -539772
166 3 O -0.943026 27.648 46.4208 -1.2 -8.33858 -1.90877e+06 -2.57328e+06 -2.53141e+06 -604358 -1.50247e+06 825857
167 3 O -2.69973 26.8993 53.8852 -1.2 -9.83262 -2.84964e+06 -3.26444e+06 -4.37405e+06 -1.81977e+06 797805 372723
168 3 O -0.269274 27.071 53.862 -1.2 -10.1667 -3.87576e+06 -3.90374e+06 -5.3501e+06 -29470.8 -1.94834e+06 602232
169 1 Mg -2.61322 35.4409 57.1908 1.2 -7.27666 -1.58134e+06 -1.13437e+06 4.25154e+06 -653586 -1.47653e+06 362697
170 1 Mg -1.28421 35.3899 49.8376 1.2 -7.64372 -564671 2.16203e+06 2.1631e+06 -139148 373638 712029
171 2 Si -0.807101 32.9036 47.9247 2.4 -32.9371 6.28339e+06 7.12685e+06 9.66964e+06 500546 2.30337e+06 297771
172 3 O -0.727174 34.4729 47.9885 -1.2 -9.41605 -1.39846e+06 -4.38275e+06 -2.94806e+06 451350 -1.93044e+06 -419485
173 3 O -1.35735 31.7701 51.768 -1.2 -9.93604 -360633 -1.89816e+06 -5.41951e+06 358006 445451 -1.61909e+06
174 3 O -1.97695 32.3253 48.826 -1.2 -9.55221 150312 -3.59504e+06 -3.58043e+06 -2032.95 -371980 -1.64807e+06
175 1 Mg 0.237665 30.8412 46.8168 1.2 -6.32231 965284 4599.21 679238 1.12183e+06 1.58841e+06 -447661
176 3 O 0.656562 32.2608 48.3877 -1.2 -9.43275 -495012 -1.71788e+06 -2.16217e+06 -283363 -308540 401351
177 1 Mg 1.69621 30.8142 54.5552 1.2 -7.14719 1.42561e+06 1.42761e+06 -123830 -510855 213635 1.25821e+06
178 2 Si 1.57268 33.4445 56.5165 2.4 -31.5538 5.44781e+06 3.74281e+06 9.93796e+06 -448947 -392765 799631
179 3 O 1.51777 31.945 56.5094 -1.2 -10.5183 -4.0737e+06 -5.42966e+06 -3.59367e+06 -263051 242712 1.16535e+06
180 3 O 1.74574 34.5067 52.7279 -1.2 -10.3521 -1.57907e+06 -1.46534e+06 -5.69757e+06 557501 -826956 -1.09782e+06
181 3 O 0.317823 34.1092 55.871 -1.2 -9.70803 -3.16894e+06 -2.93368e+06 -2.64339e+06 603921 267286 -764200
182 3 O 2.79484 34.1841 55.6238 -1.2 -9.37611 -1.2893e+06 -5.11312e+06 -2.70966e+06 2.12095e+06 -689438 -933021
183 1 Mg 0.167046 33.1343 52.2045 1.2 -6.83288 -1.41313e+06 -878686 4.76566e+06 -1.03238e+06 1.632e+06 986308
184 1 Mg 2.20727 32.8578 49.4516 1.2 -7.06019 1.01105e+06 524246 257122 89849.6 -102312 545339
185 2 Si 1.67943 35.1802 51.2429 2.4 -31.0557 5.24552e+06 4.73751e+06 1.03099e+07 -13244.8 59786.1 523800
186 3 O 1.78736 36.747 51.303 -1.2 -10.8356 -1.39621e+06 -2.23784e+06 -3.48638e+06 573865 -367049 48655.1
187 3 O 1.76636 34.2048 57.9227 -1.2 -10.3094 -2.00518e+06 -2.22056e+06 -6.08489e+06 -41610.2 -748450 440976
188 3 O 0.362533 34.5479 50.661 -1.2 -9.74661 -1.8589e+06 -2.33541e+06 -5.1919e+06 1.12958e+06 -367546 -584901
189 1 Mg -2.80215 33.1347 52.3062 1.2 -6.8215 -1.84383e+06 -1.48158e+06 4.11169e+06 1.48824e+06 -1.94171e+06 992278
190 3 O 2.91593 34.533 50.466 -1.2 -10.2332 -1.81378e+06 -2.11296e+06 -2.52789e+06 -202634 686347 -401755
191 1 Mg -1.42167 33.1987 54.9746 1.2 -7.66269 1.45207e+06 1.85324e+06 245920 554556 111415 -511496
192 2 Si -1.35152 31.0187 53.2529 2.4 -31.2537 2.73327e+06 3.4721e+06 1.25868e+07 -1.09515e+06 -833338 -354710
193 3 O -1.4099 29.529 53.2075 -1.2 -10.8238 -1.16857e+06 -5.59417e+06 -5.10468e+06 387657 243729 -205750
194 3 O -0.842495 32.4028 46.4192 -1.2 -8.36446 -1.86042e+06 -2.44329e+06 -2.66925e+06 -606194 -1.50332e+06 606103
195 3 O -2.68222 31.802 53.9009 -1.2 -9.64942 -2.03794e+06 -2.68676e+06 -4.93997e+06 -915528 -64506.1 240933
196 3 O -0.245054 31.7526 54.0092 -1.2 -9.9903 -3.23436e+06 -3.03552e+06 -3.87619e+06 -164921 -1.44193e+06 86933.2
197 1 Mg -2.81695 40.2606 57.4939 1.2 -6.61484 -1.96577e+06 -232433 2.14267e+06 406960 -2.83222e+06 -83426.6
198 1 Mg -1.17787 40.1435 49.8359 1.2 -7.64954 -400187 2.13931e+06 2.02571e+06 -169430 266535 996434
199 2 Si -0.702692 37.6572 47.9231 2.4 -32.9446 6.31069e+06 7.19794e+06 9.58134e+06 484081 2.35221e+06 353842
200 3 O -0.621782 39.2264 47.9868 -1.2 -9.40397 -1.44294e+06 -4.4026e+06 -2.91065e+06 461729 -1.94057e+06 -549354
201 3 O -1.25221 36.5242 51.7666 -1.2 -10.2013 -263452 -3.99584e+06 -6.77467e+06 680538 -1.05195e+06 -327181
202 3 O -1.87295 37.0796 48.8243 -1.2 -9.56585 103216 -3.67927e+06 -3.41685e+06 33205.2 -394955 -1.62515e+06
203 1 Mg 0.341084 35.5943 46.8152 1.2 -6.32963 967891 -92946 787913 1.12471e+06 1.58659e+06 -410180
204 3 O 0.760681 37.0138 48.3864 -1.2 -9.42474 -457197 -1.75488e+06 -2.16668e+06 -303016 -305860 429938
205 1 Mg 1.71069 35.5623 54.451 1.2 -7.54444 1.09425e+06 1.46549e+06 -1.15729e+06 -372864 389371 -75442.5
206 2 Si 1.89514 38.1771 56.257 2.4 -31.0055 3.26026e+06 2.87193e+06 1.27791e+07 -336457 -1.06281e+06 2.11369e+06
207 3 O 1.88165 36.6666 56.3209 -1.2 -10.3564 -3.31612e+06 -3.85866e+06 -5.41288e+06 578327 705033 -1.84458e+06
208 3 O 1.85132 39.2606 52.7264 -1.2 -10.0328 -1.09581e+06 -2.11889e+06 -4.35887e+06 147531 -254358 -906138
209 3 O 0.760042 38.9658 55.5423 -1.2 -10.6113 -3.23592e+06 -3.54943e+06 -6.42242e+06 -1.30267e+06 -1.17718e+06 291184
210 3 O 3.14357 39.0403 55.8785 -1.2 -10.3242 -2.55984e+06 -3.52484e+06 -5.67025e+06 99952.3 -838089 -468086
211 1 Mg 0.272384 37.8883 52.2029 1.2 -6.81545 -2.02198e+06 -553966 4.55653e+06 -815978 1.76821e+06 707014
212 1 Mg 2.31122 37.6122 49.4501 1.2 -7.04331 962087 675562 137490 130027 -203712 616057
213 2 Si 1.78573 39.934 51.2414 2.4 -31.3303 4.68548e+06 4.98555e+06 1.10638e+07 202258 423401 1.16869e+06
214 3 O 1.89428 41.5006 51.3014 -1.2 -10.6395 -1.4563e+06 -2.15969e+06 -3.91952e+06 756006 -335716 -32719.7
215 3 O 1.60525 38.7762 57.8605 -1.2 -9.54565 -1.50016e+06 -2.3076e+06 -3.90361e+06 85225 308194 219409
216 3 O 0.469216 39.3015 50.6588 -1.2 -9.79304 -1.78066e+06 -2.53551e+06 -4.84957e+06 1.05938e+06 -762675 -687754
217 1 Mg -2.69668 37.8889 52.3043 1.2 -6.55128 -2.00874e+06 -1.86912e+06 4.07702e+06 1.63258e+06 -2.00445e+06 1.09915e+06
218 3 O 3.0225 39.2866 50.4651 -1.2 -10.2121 -1.66129e+06 -2.22218e+06 -2.56152e+06 -235391 879019 -766146
219 1 Mg -0.987806 38.1764 55.0962 1.2 -7.11769 -136025 2.14269e+06 860437 -574405 -1.10746e+06 -335684
220 2 Si -1.37685 35.9055 53.1932 2.4 -31.2772 3.65631e+06 5.22827e+06 1.23178e+07 75661.4 -1.36531e+06 2.77971e+06
221 3 O -1.31133 34.3287 53.0869 -1.2 -10.4867 -1.15739e+06 -1.60297e+06 -5.16205e+06 -1.02177e+06 260770 318717
222 3 O -0.738054 37.1566 46.4176 -1.2 -8.35718 -1.87225e+06 -2.41102e+06 -2.70443e+06 -605931 -1.5091e+06 545627
223 3 O -2.63355 36.6254 53.9698 -1.2 -9.91764 -1.4817e+06 -1.8398e+06 -3.52555e+06 -1.44195e+06 -152600 1.16866e+06
224 3 O -0.108948 36.5751 53.943 -1.2 -9.83955 -1.37714e+06 -2.09137e+06 -4.46847e+06 568117 -214013 383840
225 1 Mg -2.47266 45.0456 57.4241 1.2 -7.06745 -2.23943e+06 -2.57202e+06 4.13545e+06 -852449 -2.12374e+06 -727909
226 1 Mg -1.06993 44.8968 49.8343 1.2 -7.71198 -341440 1.96977e+06 2.22844e+06 -174534 295613 1.0006e+06
227 2 Si -0.596166 42.4103 47.9215 2.4 -33.0386 6.49231e+06 6.97762e+06 9.77484e+06 485502 2.35305e+06 574408
228 3 O -0.51472 43.9796 47.9853 -1.2 -9.34508 -1.53763e+06 -4.29334e+06 -3.02334e+06 464232 -1.94158e+06 -610522
229 3 O -1.14475 41.2777 51.7649 -1.2 -10.1852 -1.03131e+06 -2.71907e+06 -5.83223e+06 243509 -543971 -1.29977e+06
230 3 O -1.76671 41.8331 48.8226 -1.2 -9.51507 11877.9 -3.54709e+06 -3.54826e+06 13474.3 -359174 -1.763e+06
231 1 Mg 0.447076 40.3473 46.8135 1.2 -6.35684 1.01358e+06 -138394 830978 1.12472e+06 1.59472e+06 -281592
232 3 O 0.866985 41.7666 48.385 -1.2 -9.3782 -530399 -1.64703e+06 -2.2791e+06 -289518 -330613 296369
233 1 Mg 1.91305 40.3813 54.7895 1.2 -6.94242 162226 269912 333928 -1.08923e+06 1.06258e+06 1.55137e+06
234 2 Si 2.07232 43.039 56.4181 2.4 -31.1169 5.05611e+06 2.45155e+06 1.19962e+07 -214502 681906 -302150
235 3 O 1.81333 41.5652 56.5085 -1.2 -11.0064 -2.10033e+06 -4.79163e+06 -5.91758e+06 805389 331701 -1.37369e+06
236 3 O 1.95891 44.014 52.7248 -1.2 -9.98121 -1.54699e+06 -1.69953e+06 -5.03797e+06 -553747 -526810 -1.63739e+06
237 3 O 0.77175 43.7708 55.6836 -1.2 -9.64564 331337 -3.24744e+06 -3.66418e+06 -828771 -577939 179570
238 3 O 3.3237 43.7955 55.8771 -1.2 -10.0582 -2.44069e+06 -3.54102e+06 -5.33103e+06 1.20305e+06 996948 -416303
239 1 Mg 0.379928 42.6418 52.2013 1.2 -6.99219 -1.79207e+06 -963482 4.97606e+06 -1.27788e+06 1.71702e+06 1.44821e+06
240 1 Mg 2.41752 42.366 49.4484 1.2 -7.11072 1.02169e+06 523690 342823 120321 -209456 691704
241 2 Si 1.89374 44.6874 51.2398 2.4 -31.3788 4.96156e+06 4.22313e+06 1.15905e+07 347822 438390 913503
242 3 O 2.00266 46.254 51.2996 -1.2 -10.672 -1.51586e+06 -1.93648e+06 -3.91618e+06 738240 -615690 321225
243 3 O 1.95364 43.6139 57.9544 -1.2 -10.0039 -1.56124e+06 -3.44823e+06 -5.03356e+06 -663456 -639964 1.04946e+06
244 3 O 0.577464 44.0549 50.6567 -1.2 -9.73393 -1.76602e+06 -2.26038e+06 -5.08385e+06 1.18134e+06 -807891 -713109
245 1 Mg -2.58906 42.6425 52.3022 1.2 -6.70504 -1.45421e+06 -1.38363e+06 4.28188e+06 1.83285e+06 -1.75962e+06 1.51663e+06
246 3 O 3.13067 44.0398 50.464 -1.2 -10.1702 -1.72959e+06 -2.02709e+06 -2.66925e+06 -303027 962251 -788106
247 1 Mg -0.991492 42.7411 55.1934 1.2 -7.3512 654829 1.80878e+06 1.62611e+06 66234 -30730.3 89264.3
248 2 Si -1.17181 40.6132 53.2031 2.4 -30.8891 5.54024e+06 6.33694e+06 1.03466e+07 614338 -486876 2.55633e+06
249 3 O -1.21548 39.0269 53.1265 -1.2 -10.7674 -2.57176e+06 -2.07048e+06 -3.79541e+06 704313 214206 1.07409e+06
250 3 O -0.631421 41.9099 46.4159 -1.2 -8.31724 -1.94137e+06 -2.33553e+06 -2.77481e+06 -605078 -1.50926e+06 428795
251 3 O -2.45594 41.288 53.9667 -1.2 -10.2094 -525736 -2.34296e+06 -2.25342e+06 -1.61434e+06 -469615 118603
252 3 O 0.0937893 41.3586 53.9122 -1.2 -10.0199 -151863 -2.51851e+06 -2.90901e+06 1.48186e+06 -348834 -190181
253 1 Mg -2.48205 49.8481 57.1569 1.2 -7.06304 -1.68558e+06 -1.46065e+06 4.04174e+06 -1.74208e+06 -1.28504e+06 -307009
254 1 Mg -0.961069 49.6502 49.8327 1.2 -7.87762 -189715 2.03974e+06 2.27624e+06 -160720 306974 1.17529e+06
255 2 Si -0.488083 47.1636 47.9198 2.4 -33.2154 6.74213e+06 6.92959e+06 9.85621e+06 481804 2.33428e+06 679731
256 3 O -0.40607 48.7329 47.9837 -1.2 -9.23171 -1.69912e+06 -4.27155e+06 -3.0596e+06 463464 -1.931e+06 -716797
257 3 O -1.0361 46.031 51.7632 -1.2 -10.2684 -169817 -2.66913e+06 -3.81336e+06 359293 -52464.6 -1.31124e+06
258 3 O -1.65866 46.5866 48.821 -1.2 -9.4354 -85559.3 -3.51953e+06 -3.61139e+06 10540 -382519 -1.75518e+06
259 1 Mg 0.554124 45.1001 46.8117 1.2 -6.42294 1.12029e+06 -211341 903969 1.12147e+06 1.59191e+06 -211233
260 3 O 0.974961 46.5195 48.3832 -1.2 -9.3022 -663178 -1.60963e+06 -2.30383e+06 -283772 -308496 291219
261 1 Mg 1.9404 45.1149 54.6213 1.2 -7.74534 366079 -956190 1.0489e+06 -879607 603845 1.82682e+06
262 2 Si 2.18238 47.6832 56.4457 2.4 -30.8389 7.48167e+06 5.43274e+06 1.24804e+07 -384673 -517635 2.12629e+06
263 3 O 2.15055 46.1087 56.5698 -1.2 -10.3188 -4.11051e+06 -1.11591e+06 -5.08603e+06 1.45828e+06 -314876 -1.2302e+06
264 3 O 2.0677 48.7672 52.7232 -1.2 -10.3562 -1.23682e+06 -2.03873e+06 -4.82436e+06 468829 -628592 -920147
265 3 O 0.729237 48.2997 55.878 -1.2 -10.0944 -1.6186e+06 -3.6538e+06 -4.68101e+06 -3.15241e+06 -98906.5 -2.25018e+06
266 3 O 3.35732 48.4171 55.6567 -1.2 -10.2701 502935 -2.75734e+06 -4.58885e+06 881992 -354921 -1.14461e+06
267 1 Mg 0.488584 47.395 52.1996 1.2 -6.83691 -2.08449e+06 -1.17139e+06 4.77317e+06 -910447 1.9599e+06 396919
268 1 Mg 2.52544 47.1195 49.4466 1.2 -7.17751 1.19073e+06 525266 283823 126539 -173522 637847
269 2 Si 2.00256 49.4407 51.2382 2.4 -31.4683 5.7378e+06 4.8295e+06 1.03799e+07 79637.8 184972 1.21235e+06
270 3 O 2.11156 51.0073 51.2982 -1.2 -10.461 -2.25316e+06 -1.85152e+06 -3.82093e+06 708609 -41348.6 -160457
271 3 O 2.24726 48.5396 57.9134 -1.2 -9.93063 -3.00026e+06 -1.74439e+06 -3.53372e+06 -741620 -513842 1.79003e+06
272 3 O 0.686344 48.8082 50.655 -1.2 -9.62697 -2.02527e+06 -2.54759e+06 -4.92845e+06 1.14583e+06 -592205 -730329