ITEM: TIMESTEP
28500
ITEM: NUMBER OF ATOMS
10500
ITEM: BOX BOUNDS xy xz yz pp pp pp
0.0000000000000000e+00 8.9687999999999999e+00 2.9895999999999998e+00
0.0000000000000000e+00 1.1872499999999999e+02 0.0000000000000000e+00
0.0000000000000000e+00 2.5297749999999999e+02 0.0000000000000000e+00
ITEM: ATOMS id type element xu yu zu q c_pe c_s[1] c_s[2] c_s[3] c_s[4] c_s[5] c_s[6]
1 1 Mg -3.31072 7.05833 57.4775 1.2 -7.91655 -546326 -2.33687e+06 4.43353e+06 -1.96756e+06 -2.30852e+06 -1.89807e+06
2 1 Mg -1.82655 6.90154 50.0912 1.2 -8.53421 522478 958614 1.39915e+06 -53869.5 -120453 1.28444e+06
3 2 Si -0.257935 3.96038 48.0876 2.4 -36.6492 1.09884e+07 8.47298e+06 1.11105e+07 787994 1.98292e+06 1.59285e+06
4 3 O -0.335812 5.46814 47.6264 -1.2 -7.50415 -3.53516e+06 -2.31642e+06 -2.68315e+06 146735 -967741 -505201
5 3 O -2.03793 3.43377 51.8941 -1.2 -8.62398 -3.18015e+06 -1.06658e+06 -5.72449e+06 -680039 1.31797e+06 -2.33316e+06
6 3 O -1.54015 3.53929 48.9521 -1.2 -7.99709 -1.80764e+06 -1.47226e+06 -4.47642e+06 35741.2 -720596 -176906
7 1 Mg 1.82954 2.54582 47.1376 1.2 -8.28187 3.06462e+06 -652362 907653 1.15105e+06 829248 504036
8 3 O 1.22989 3.66364 48.7877 -1.2 -7.7118 -2.1304e+06 -2.23136e+06 -3.85266e+06 -481274 -733461 -881356
9 1 Mg 1.00561 2.4746 54.7565 1.2 -8.84953 2.57427e+06 495902 2.19635e+06 478898 -173167 818560
10 2 Si 1.19299 5.11242 56.5303 2.4 -33.5392 7.30371e+06 3.8547e+06 1.05324e+07 578519 -1.04302e+06 -2.01608e+06
11 3 O 1.08119 3.48593 56.631 -1.2 -8.87596 -4.66952e+06 -528443 -5.81093e+06 1.0484e+06 -354812 96825.9
12 3 O 1.10813 6.07342 52.8172 -1.2 -8.84962 -3.70312e+06 -2.97003e+06 -4.51095e+06 763572 -562905 -1.03208e+06
13 3 O -0.0805843 5.65637 55.8715 -1.2 -9.15991 -4.08011e+06 -3.66375e+06 -4.69771e+06 1.12663e+06 -892718 1.27958e+06
14 3 O 2.43917 5.68178 55.7576 -1.2 -8.85909 -2.90005e+06 -3.11458e+06 -4.56398e+06 -52995 583097 477365
15 1 Mg -0.459401 4.67631 52.2426 1.2 -8.21557 492576 -1.29558e+06 5.17646e+06 -1.22968e+06 1.21386e+06 618068
16 1 Mg 2.79456 3.9971 49.9987 1.2 -8.69808 4.05615e+06 -322066 1.95805e+06 -471695 824779 -976989
17 2 Si 1.16169 6.59457 51.2556 2.4 -34.1631 8.32377e+06 5.88701e+06 1.1875e+07 -218839 320967 2.34976e+06
18 3 O 1.28989 8.18905 51.2909 -1.2 -9.23042 -3.45305e+06 -1.45612e+06 -3.71611e+06 204588 -786889 921015
19 3 O 1.28009 5.66476 57.9832 -1.2 -9.17762 -3.73278e+06 -4.29991e+06 -6.95261e+06 -363829 -519340 451260
20 3 O -0.184847 6.06029 50.6845 -1.2 -8.41142 -3.42362e+06 -3.0058e+06 -5.24261e+06 1.5272e+06 -335264 -1.40145e+06
21 1 Mg -3.49704 4.67769 52.6661 1.2 -8.14028 -233955 -2.83005e+06 3.18697e+06 1.91387e+06 -1.34347e+06 630837
22 3 O 2.48581 5.93312 50.6539 -1.2 -8.9691 -3.63856e+06 -1.34079e+06 -3.36875e+06 -1.5603e+06 -623848 -544485
23 1 Mg -1.75539 4.6298 55.166 1.2 -8.64945 3.16272e+06 1.07545e+06 1.57134e+06 83155.6 -162939 -1.57285e+06
24 2 Si -1.95617 2.5871 53.3133 2.4 -33.9772 9.97337e+06 2.49577e+06 1.41227e+07 -751291 -332481 -1.88563e+06
25 3 O -2.00748 1.065 53.2929 -1.2 -9.27966 -4.82331e+06 -1.79708e+06 -4.61865e+06 -73628.3 -461800 420895
26 3 O -0.0467762 2.97103 46.8385 -1.2 -6.72631 -3.42087e+06 -2.00275e+06 -3.02494e+06 -987854 -2.00929e+06 -603551
27 3 O -3.22326 3.3582 54.1257 -1.2 -8.41947 -2.60998e+06 -2.56092e+06 -5.40556e+06 -1.50073e+06 -256913 1.57798e+06
28 3 O -0.71868 3.18182 54.0794 -1.2 -8.7506 -4.86322e+06 -2.80493e+06 -4.09121e+06 1.24032e+06 47605.1 950111
29 1 Mg -3.3587 11.6313 57.5185 1.2 -7.53023 -1.23174e+06 -1.45721e+06 4.65262e+06 -2.91353e+06 -1.51087e+06 -717875
30 1 Mg -1.75014 11.5838 49.8362 1.2 -8.80069 1.36196e+06 1.81933e+06 2.61829e+06 -336912 253918 583723
31 2 Si -1.18003 9.02138 47.9309 2.4 -35.0369 9.39113e+06 6.91449e+06 1.00367e+07 227753 2.62071e+06 134078
32 3 O -1.23224 10.5991 47.9811 -1.2 -8.40613 -2.99008e+06 -3.42673e+06 -2.95583e+06 658195 -1.91877e+06 198562
33 3 O -1.79016 8.01447 51.8693 -1.2 -8.72036 -3.01152e+06 -2.17336e+06 -4.75155e+06 440493 -629303 -1.70671e+06
34 3 O -2.30986 8.37215 48.8528 -1.2 -8.64611 -1.54549e+06 -2.44124e+06 -3.46058e+06 -327696 -644123 -755869
35 1 Mg 0.154883 7.08234 46.8007 1.2 -7.81232 2.35299e+06 -285837 932391 942394 1.7219e+06 -1.05031e+06
36 3 O 0.325447 8.50934 48.3809 -1.2 -8.301 -1.92638e+06 -1.8537e+06 -2.86253e+06 -37056 -808893 457702
37 1 Mg 1.1432 7.07044 54.6606 1.2 -8.50797 3.28105e+06 1.15684e+06 784329 -394690 423833 939677
38 2 Si 1.16469 9.74369 56.4594 2.4 -33.8794 8.69349e+06 2.56082e+06 1.14488e+07 -814005 526749 -1.62317e+06
39 3 O 1.11065 8.2074 56.6017 -1.2 -9.2497 -4.98934e+06 -1.67133e+06 -5.6983e+06 -575974 -303283 -47965.5
40 3 O 1.28624 10.7248 52.7351 -1.2 -8.77623 -3.58197e+06 -1.52591e+06 -4.53334e+06 393039 -469175 -427948
41 3 O -0.108115 10.477 55.817 -1.2 -8.64795 -3.71739e+06 -2.72606e+06 -3.94682e+06 -1.02457e+06 242283 153427
42 3 O 2.37124 10.3745 55.715 -1.2 -8.78179 -4.84751e+06 -3.20775e+06 -4.74195e+06 563943 860306 508506
43 1 Mg -0.262694 9.34741 52.2523 1.2 -8.23964 421495 -456813 5.0421e+06 -1.20858e+06 1.37306e+06 624558
44 1 Mg 1.87648 9.01537 49.4629 1.2 -8.20951 2.57759e+06 383306 408157 256269 -281268 213978
45 2 Si 1.21415 11.3799 51.2378 2.4 -33.8196 9.29584e+06 4.56343e+06 1.12298e+07 377649 530573 241273
46 3 O 1.31634 12.9512 51.3023 -1.2 -9.48634 -3.6029e+06 -1.76109e+06 -3.75474e+06 625850 -250714 873352
47 3 O 1.28299 10.3764 57.9315 -1.2 -9.23741 -4.28463e+06 -4.19259e+06 -7.19972e+06 -421329 203611 843429
48 3 O -0.115718 10.7564 50.681 -1.2 -8.53082 -3.66945e+06 -2.24509e+06 -4.88956e+06 1.19958e+06 -538804 -429471
49 1 Mg -3.26386 9.35564 52.3622 1.2 -7.98676 716412 -1.34422e+06 3.88597e+06 1.93251e+06 -1.78125e+06 1.14441e+06
50 3 O 2.45216 10.7265 50.4558 -1.2 -9.03621 -3.43043e+06 -1.69656e+06 -2.45185e+06 -819393 530764 22414.9
51 1 Mg -1.83395 9.57992 55.0517 1.2 -8.86879 3.34499e+06 626682 868361 -15599.8 150796 -1.15498e+06
52 2 Si -1.93927 7.33822 53.4116 2.4 -33.9198 8.74277e+06 4.52546e+06 1.28552e+07 868692 -625248 -124110
53 3 O -1.96119 5.7792 53.3253 -1.2 -9.21107 -3.94308e+06 -2.55013e+06 -5.45817e+06 -1.12314e+06 448430 -173390
54 3 O -1.19417 8.46968 46.4488 -1.2 -7.34337 -3.19625e+06 -1.8737e+06 -3.11965e+06 -541393 -1.74371e+06 913438
55 3 O -3.20129 8.0581 54.0073 -1.2 -8.84546 -4.33362e+06 -2.99026e+06 -4.39228e+06 -511656 -98159.8 -138012
56 3 O -0.672844 8.0199 54.0994 -1.2 -8.50027 -2.39021e+06 -2.34321e+06 -5.03164e+06 921464 -272609 80414.8
57 1 Mg -3.35672 16.5134 57.4399 1.2 -7.79782 -451071 -1.47535e+06 4.92909e+06 -1.67475e+06 -1.36266e+06 -1.16742e+06
58 1 Mg -1.6714 16.3544 49.8412 1.2 -8.60449 1.14208e+06 1.98284e+06 2.23847e+06 -175331 274722 534070
59 2 Si -1.18567 13.8526 47.9314 2.4 -34.8261 9.36302e+06 6.08438e+06 1.05843e+07 509548 2.25537e+06 -862960
60 3 O -1.09664 15.4205 47.9915 -1.2 -8.52567 -2.77826e+06 -3.83779e+06 -3.24325e+06 418207 -1.94223e+06 94042.2
61 3 O -1.73493 12.7491 51.7772 -1.2 -8.81146 -2.65745e+06 -2.76671e+06 -4.2151e+06 254835 68595.2 -853713
62 3 O -2.36115 13.2717 48.8238 -1.2 -8.52592 -1.58224e+06 -3.01102e+06 -3.93153e+06 -101317 -366274 -971761
63 1 Mg -0.159928 11.7639 46.8533 1.2 -7.26736 2.50716e+06 -707267 1.35496e+06 1.12823e+06 1.57007e+06 -1.07209e+06
64 3 O 0.2623 13.1866 48.413 -1.2 -8.43994 -2.08373e+06 -1.05255e+06 -2.71954e+06 -204817 -288350 1.04753e+06
65 1 Mg 1.29596 11.909 54.6708 1.2 -8.6374 2.61045e+06 1.17242e+06 1.08235e+06 306021 -364551 989755
66 2 Si 1.21999 14.5385 56.4281 2.4 -32.5931 6.21771e+06 5.18577e+06 1.1898e+07 -130668 1.20204e+06 -235853
67 3 O 1.17725 12.9583 56.491 -1.2 -9.57236 -3.30347e+06 -760458 -4.62533e+06 -573944 -366558 -884489
68 3 O 1.36565 15.4813 52.729 -1.2 -9.07696 -3.36376e+06 -2.7618e+06 -5.15637e+06 350460 -369135 -1.40921e+06
69 3 O -0.0879097 15.1692 55.6253 -1.2 -9.27276 -1.59439e+06 -3.25864e+06 -3.18616e+06 -663268 372116 -565934
70 3 O 2.43873 15.1803 55.7198 -1.2 -9.28343 -2.9661e+06 -3.99746e+06 -4.40443e+06 -1890.38 704853 53855.1
71 1 Mg -0.206989 14.1049 52.2121 1.2 -7.98465 -134336 -1.1546e+06 4.38049e+06 -1.28016e+06 2.05195e+06 1.02665e+06
72 1 Mg 1.82591 13.8102 49.4556 1.2 -8.11726 2.66928e+06 404496 480199 114198 -118179 37821.6
73 2 Si 1.29285 16.1518 51.2434 2.4 -33.3618 8.09162e+06 4.83946e+06 1.11708e+07 65042 215590 623369
74 3 O 1.39496 17.7199 51.3047 -1.2 -9.61853 -3.32361e+06 -1.56518e+06 -4.32976e+06 649892 -143101 631490
75 3 O 1.23005 15.2106 57.8871 -1.2 -9.55537 -3.09485e+06 -3.34818e+06 -4.83337e+06 -18167.7 1.24742e+06 701607
76 3 O -0.0269106 15.5178 50.6688 -1.2 -8.76884 -3.39773e+06 -2.39326e+06 -4.99739e+06 991505 -727392 -237329
77 1 Mg -3.18391 14.1057 52.3125 1.2 -7.80987 -266700 -960885 4.02894e+06 1.34084e+06 -1.93903e+06 668232
78 3 O 2.52432 15.503 50.4579 -1.2 -9.19934 -3.21479e+06 -2.08218e+06 -2.49628e+06 -239820 853787 -124386
79 1 Mg -1.77727 14.1502 55.2082 1.2 -8.25848 2.3112e+06 1.76898e+06 21494.3 -178144 -491471 -992826
80 2 Si -1.62318 12.1426 53.2989 2.4 -33.5877 8.28401e+06 6.35351e+06 1.14203e+07 -10349.3 141129 -318818
81 3 O -1.71367 10.5125 53.2555 -1.2 -9.10058 -3.95822e+06 -332021 -4.76557e+06 981079 209087 1.06642e+06
82 3 O -1.21337 13.3381 46.4311 -1.2 -7.47305 -3.3552e+06 -1.71119e+06 -3.33155e+06 -632200 -1.45279e+06 1.1913e+06
83 3 O -2.88435 12.7717 54.0494 -1.2 -9.02814 -2.10311e+06 -3.37598e+06 -3.66961e+06 -815749 406584 191262
84 3 O -0.317274 12.7689 53.8725 -1.2 -9.00769 -3.53291e+06 -3.88213e+06 -4.00127e+06 997068 -773249 134126
85 1 Mg -3.07015 21.2885 57.5285 1.2 -7.74468 -534159 -1.03278e+06 4.31101e+06 -890722 -1.80296e+06 -109731
86 1 Mg -1.5831 21.1217 49.8405 1.2 -8.53865 920089 1.95779e+06 2.33329e+06 -195781 291954 394850
87 2 Si -1.09384 18.6291 47.9287 2.4 -34.6685 9.08075e+06 6.24295e+06 1.05162e+07 487241 2.35173e+06 -750152
88 3 O -1.02071 20.1985 47.9911 -1.2 -8.58197 -2.73185e+06 -3.94423e+06 -3.27595e+06 459087 -1.94041e+06 86150
89 3 O -1.65002 17.5002 51.771 -1.2 -9.01002 -2.98798e+06 -2.05263e+06 -6.23477e+06 360527 -472676 -1.0365e+06
90 3 O -2.26174 18.0434 48.8281 -1.2 -8.64512 -1.39662e+06 -3.11165e+06 -3.90599e+06 -26539.2 -382771 -1.06892e+06
91 1 Mg -0.0440435 16.5651 46.8269 1.2 -7.18419 2.30639e+06 -580597 1.28005e+06 1.13397e+06 1.58251e+06 -957662
92 3 O 0.37001 17.9877 48.3925 -1.2 -8.52722 -1.90566e+06 -1.25462e+06 -2.65529e+06 -280116 -328012 944490
93 1 Mg 1.27408 16.4652 54.534 1.2 -8.61027 2.34029e+06 1.38043e+06 -94205.5 480557 -210187 1.72878e+06
94 2 Si 1.18775 19.3301 56.4253 2.4 -33.2674 9.7442e+06 5.53297e+06 1.05529e+07 274243 -219359 1.10938e+06
95 3 O 1.24978 17.7034 56.506 -1.2 -9.16983 -4.22388e+06 1.01965e+06 -4.69028e+06 -352153 366466 465637
96 3 O 1.45147 20.239 52.7294 -1.2 -9.32817 -3.3398e+06 -2.30327e+06 -5.35037e+06 -69274.5 -596276 -891496
97 3 O -0.0397985 19.8948 55.6928 -1.2 -9.14411 -2.59288e+06 -2.20152e+06 -3.9433e+06 685632 -120040 -2175.1
98 3 O 2.59723 19.8206 55.7476 -1.2 -8.79955 -1.17025e+06 -3.48896e+06 -3.07096e+06 464241 -110247 98952.9
99 1 Mg -0.126194 18.8651 52.2079 1.2 -8.06111 -254799 -1.2741e+06 5.04393e+06 -1.23758e+06 1.71671e+06 341602
100 1 Mg 1.92402 18.5815 49.4545 1.2 -8.00053 2.46089e+06 240402 571879 128773 -181406 9712.18
101 2 Si 1.38106 20.9117 51.2443 2.4 -33.0106 8.11612e+06 4.73512e+06 1.06343e+07 246912 298384 -255706
102 3 O 1.48527 22.4795 51.3054 -1.2 -9.84866 -3.13597e+06 -1.91474e+06 -3.68999e+06 630466 -362474 635828
103 3 O 1.26269 20.0022 57.9312 -1.2 -9.50386 -3.36212e+06 -2.15134e+06 -3.89923e+06 108594 877638 961468
104 3 O 0.0615419 20.2804 50.6669 -1.2 -8.85653 -3.19237e+06 -2.33143e+06 -5.04763e+06 1.12524e+06 -636821 11962.9
105 1 Mg -3.09665 18.8643 52.3122 1.2 -7.72582 76177.6 -1.74956e+06 4.35591e+06 1.62409e+06 -1.85126e+06 364601
106 3 O 2.61548 20.2646 50.4626 -1.2 -9.30956 -3.14259e+06 -1.97983e+06 -2.57881e+06 -336821 796476 2095.64
107 1 Mg -1.79482 18.8015 55.094 1.2 -8.7116 2.92372e+06 1.00488e+06 1.23855e+06 477430 -440044 -940547
108 2 Si -1.66558 16.7629 53.1899 2.4 -33.3769 9.51074e+06 5.5174e+06 1.14698e+07 1.01885e+06 -91990.1 61613.9
109 3 O -1.6912 15.1905 53.1299 -1.2 -9.46595 -4.20781e+06 -1.78066e+06 -4.66546e+06 124676 -96182.5 -152565
110 3 O -1.12868 18.1227 46.4249 -1.2 -7.54986 -3.18477e+06 -1.85578e+06 -3.22783e+06 -603971 -1.49996e+06 1.12101e+06
111 3 O -2.89457 17.4464 53.9513 -1.2 -8.97956 -2.56186e+06 -2.59957e+06 -4.20034e+06 -1.06145e+06 524436 -38936.9
112 3 O -0.278692 17.4555 53.8437 -1.2 -8.58754 -1.72633e+06 -2.60816e+06 -3.99296e+06 2.06446e+06 -392938 594636
113 1 Mg -2.95905 26.0965 57.4955 1.2 -7.76592 -1.44484e+06 -2.91326e+06 5.19472e+06 -1.28319e+06 -1.90252e+06 -4823.92
114 1 Mg -1.48778 25.88 49.8402 1.2 -8.55356 900130 1.79371e+06 2.52964e+06 -165279 211493 592657
115 2 Si -1.00491 23.3922 47.9274 2.4 -34.5499 8.878e+06 6.40521e+06 1.03739e+07 485305 2.32592e+06 -640493
116 3 O -0.927602 24.9615 47.9909 -1.2 -8.61944 -2.68242e+06 -3.97767e+06 -3.30499e+06 460186 -1.92296e+06 -14104.6
117 3 O -1.55795 22.2588 51.7696 -1.2 -9.16093 -2.19454e+06 -2.00115e+06 -5.00663e+06 443981 -566075 -910407
118 3 O -2.17411 22.8111 48.8277 -1.2 -8.71071 -1.24719e+06 -3.30032e+06 -3.81091e+06 9928.92 -382044 -1.12201e+06
119 1 Mg 0.0423997 21.3296 46.8225 1.2 -7.11407 2.21829e+06 -543136 1.23152e+06 1.12582e+06 1.58669e+06 -931310
120 3 O 0.458537 22.7495 48.3911 -1.2 -8.59763 -1.81402e+06 -1.37538e+06 -2.53015e+06 -294275 -315058 916471
121 1 Mg 1.40349 21.2399 54.4723 1.2 -8.09837 2.34916e+06 1.59562e+06 208922 -136882 498773 709307
122 2 Si 1.57526 23.9572 56.4635 2.4 -32.6637 7.94009e+06 5.95279e+06 1.12567e+07 -328437 -648726 135980
123 3 O 1.4404 22.3981 56.5734 -1.2 -9.907 -2.5949e+06 -1.33692e+06 -4.03431e+06 847347 415205 6196.99
124 3 O 1.54441 24.9963 52.7297 -1.2 -9.30889 -3.19925e+06 -1.94145e+06 -5.16957e+06 493417 -637635 -1.07263e+06
125 3 O 0.201183 24.7009 55.851 -1.2 -9.05708 -1.82323e+06 -1.08556e+06 -3.91875e+06 -1.25271e+06 -163979 -374467
126 3 O 2.73692 24.6613 55.6699 -1.2 -9.13129 -2.69556e+06 -2.51759e+06 -3.85419e+06 426953 563840 -6793.44
127 1 Mg -0.0335968 23.6229 52.2067 1.2 -7.7068 -355417 -892302 4.58621e+06 -975487 1.73586e+06 493609
128 1 Mg 2.01073 23.3445 49.4541 1.2 -7.91861 2.34926e+06 380645 418470 131650 -149661 108541
129 2 Si 1.47594 25.6699 51.2449 2.4 -33.1017 8.31785e+06 4.10396e+06 1.11986e+07 65622.4 531465 339448
130 3 O 1.58172 27.2371 51.3054 -1.2 -9.74423 -3.5016e+06 -1.48566e+06 -4.01964e+06 791263 -35906.7 811087
131 3 O 1.53315 24.6965 57.9129 -1.2 -9.39932 -3.36856e+06 -1.69774e+06 -5.75425e+06 -525345 -1.04542e+06 1.1121e+06
132 3 O 0.157925 25.0378 50.6651 -1.2 -8.91267 -3.29561e+06 -2.31039e+06 -4.9573e+06 1.13977e+06 -709774 -315210
133 1 Mg -3.00341 23.6231 52.3098 1.2 -7.52322 -533184 -1.05068e+06 4.41918e+06 1.57161e+06 -1.81407e+06 771250
134 3 O 2.71149 25.0232 50.4656 -1.2 -9.30843 -3.0383e+06 -1.97517e+06 -2.77374e+06 -347969 757902 -357216
135 1 Mg -1.46075 23.5633 55.1813 1.2 -8.07478 2.44098e+06 2.1877e+06 566772 -124954 180315 -303459
136 2 Si -1.59518 21.554 53.2528 2.4 -32.928 6.72761e+06 6.58701e+06 1.19739e+07 396160 -408718 -1.31686e+06
137 3 O -1.60271 19.9372 53.1766 -1.2 -9.40057 -3.50499e+06 -300514 -4.98091e+06 487060 -53411.7 194814
138 3 O -1.03938 22.8897 46.4223 -1.2 -7.61061 -3.07214e+06 -1.92688e+06 -3.17223e+06 -605437 -1.50303e+06 1.07813e+06
139 3 O -2.85211 22.1634 53.9594 -1.2 -9.39421 -2.29226e+06 -3.28041e+06 -3.52684e+06 -525149 569110 275792
140 3 O -0.286027 22.2376 53.8944 -1.2 -9.38228 -1.70813e+06 -2.55937e+06 -3.79365e+06 930955 -708946 899386
141 1 Mg -2.95758 30.8977 57.3292 1.2 -7.68747 -1.84287e+06 -2.35337e+06 5.01575e+06 -1.31603e+06 -1.24121e+06 -455597
142 1 Mg -1.38776 30.6357 49.8391 1.2 -8.45272 665357 1.98804e+06 2.40399e+06 -201374 263336 261399
143 2 Si -0.907929 28.1491 47.9262 2.4 -34.4756 8.73135e+06 6.26439e+06 1.05476e+07 490173 2.31762e+06 -889284
144 3 O -0.829229 29.7184 47.99 -1.2 -8.68651 -2.56274e+06 -4.04033e+06 -3.2837e+06 460434 -1.92122e+06 190359
145 3 O -1.45946 27.0152 51.769 -1.2 -8.76676 -2.50822e+06 -1.73855e+06 -5.64294e+06 74060.1 -621279 -794312
146 3 O -2.07744 27.5697 48.8273 -1.2 -8.71925 -1.19911e+06 -3.1672e+06 -3.98473e+06 1616.24 -395480 -1.03628e+06
147 1 Mg 0.137907 26.087 46.819 1.2 -7.06817 2.15254e+06 -581347 1.26938e+06 1.12362e+06 1.58551e+06 -907347
148 3 O 0.55579 27.5065 48.3893 -1.2 -8.6216 -1.7846e+06 -1.25508e+06 -2.63243e+06 -287621 -298980 987036
149 1 Mg 1.48799 25.9842 54.5648 1.2 -8.32311 2.86993e+06 475929 1.57704e+06 268421 -341894 970808
150 2 Si 1.62349 28.7299 56.3295 2.4 -32.7793 6.46473e+06 4.30284e+06 1.32727e+07 32461.8 421553 1.98066e+06
151 3 O 1.59228 27.1861 56.5309 -1.2 -9.63052 -3.74993e+06 -1.93351e+06 -4.45288e+06 587772 -170687 -187899
152 3 O 1.6432 29.7522 52.7291 -1.2 -9.55351 -2.95415e+06 -1.92342e+06 -5.86182e+06 -113249 -133014 -850043
153 3 O 0.333344 29.2549 55.5503 -1.2 -9.44807 -1.10638e+06 -1.84125e+06 -4.23929e+06 -518128 -355336 -93707.2
154 3 O 2.90622 29.3474 55.6982 -1.2 -9.38983 -2.1254e+06 -3.06909e+06 -4.50708e+06 665065 653070 -190772
155 1 Mg 0.0647462 28.3794 52.2059 1.2 -7.90032 -538001 -1.36302e+06 4.72922e+06 -938259 1.9777e+06 267421
156 1 Mg 2.10696 28.1021 49.4531 1.2 -7.90744 2.39844e+06 200141 540700 112372 -145276 -95367.3
157 2 Si 1.57592 30.4257 51.2442 2.4 -32.7135 8.06944e+06 4.58851e+06 1.03246e+07 401877 304474 -405632
158 3 O 1.68288 31.9926 51.3043 -1.2 -10.0284 -3.01519e+06 -1.92979e+06 -3.58142e+06 646179 -489960 658614
159 3 O 1.57422 29.5344 57.8326 -1.2 -9.20927 -2.02207e+06 -1.43041e+06 -4.63885e+06 24186.6 1.05965e+06 1.54905e+06
160 3 O 0.258524 29.7935 50.6632 -1.2 -8.93304 -3.23519e+06 -2.33976e+06 -5.12818e+06 1.12632e+06 -429455 126445
161 1 Mg -2.90462 28.3797 52.308 1.2 -7.54054 -78720.8 -1.20781e+06 4.41876e+06 1.31325e+06 -1.78989e+06 55343.7
162 3 O 2.81205 29.7787 50.4664 -1.2 -9.39308 -3.093e+06 -2.08641e+06 -2.56741e+06 -313920 675954 4443.66
163 1 Mg -1.42528 28.2588 55.0839 1.2 -8.12824 2.21072e+06 549756 738842 72812.7 -481736 -1.22107e+06
164 2 Si -1.40061 26.2585 53.2631 2.4 -33.4586 6.75115e+06 2.11898e+06 1.28377e+07 946971 -792997 -1.87517e+06
165 3 O -1.50583 24.7523 53.1661 -1.2 -9.60632 -3.26184e+06 -3.88582e+06 -4.83987e+06 780722 927242 -263687
166 3 O -0.943026 27.648 46.4208 -1.2 -7.66267 -2.98354e+06 -1.91238e+06 -3.1999e+06 -604713 -1.50432e+06 1.13983e+06
167 3 O -2.58842 26.9196 54.0287 -1.2 -8.98033 -3.00184e+06 -3.12569e+06 -5.50341e+06 -436655 990080 -3496.75
168 3 O -0.0951557 26.9456 53.7967 -1.2 -9.07802 -4.40063e+06 -2.57367e+06 -5.72713e+06 824778 -880698 -68116.8
169 1 Mg -2.72507 35.5332 57.5928 1.2 -7.20932 -1.39832e+06 -415819 3.83495e+06 -335563 -1.98217e+06 -1.55136e+06
170 1 Mg -1.28421 35.3899 49.8376 1.2 -8.20663 449844 2.24884e+06 1.95824e+06 -150398 205510 390549
171 2 Si -0.807101 32.9036 47.9247 2.4 -34.191 8.30843e+06 6.8086e+06 9.97121e+06 491670 2.30821e+06 -1.0312e+06
172 3 O -0.727174 34.4729 47.9885 -1.2 -8.83898 -2.34894e+06 -4.32692e+06 -2.97957e+06 457728 -1.92426e+06 136668
173 3 O -1.35735 31.7701 51.768 -1.2 -9.17911 -1.62004e+06 -2.2562e+06 -4.01424e+06 555709 203063 -933825
174 3 O -1.97695 32.3253 48.826 -1.2 -8.87449 -943453 -3.45843e+06 -3.70951e+06 32540.5 -377801 -928540
175 1 Mg 0.237665 30.8412 46.8168 1.2 -6.97713 2.0097e+06 -445672 1.13429e+06 1.12497e+06 1.5834e+06 -1.04674e+06
176 3 O 0.656562 32.2608 48.3877 -1.2 -8.76361 -1.56086e+06 -1.52568e+06 -2.35938e+06 -305121 -306156 1.10209e+06
177 1 Mg 1.64569 30.8229 54.4306 1.2 -7.91124 463102 925012 430800 392739 507205 217851
178 2 Si 1.66257 33.4539 56.2933 2.4 -31.8424 6.06094e+06 4.83445e+06 1.26938e+07 -134632 786100 -777261
179 3 O 1.59024 31.8693 56.3804 -1.2 -10.0238 -2.8295e+06 -673482 -5.88718e+06 310231 -672965 287924
180 3 O 1.74574 34.5067 52.7279 -1.2 -9.56819 -2.20709e+06 -1.65508e+06 -4.31095e+06 258630 -737256 -418634
181 3 O 0.347032 34.2508 55.8237 -1.2 -9.98821 -2.25751e+06 -2.03277e+06 -6.062e+06 -395551 81023.6 -872079
182 3 O 2.88632 34.1877 55.6617 -1.2 -9.60287 -1.8231e+06 -2.74895e+06 -6.30157e+06 1.06716e+06 1.04893e+06 840913
183 1 Mg 0.167046 33.1343 52.2045 1.2 -7.43153 -390076 -776921 4.63167e+06 -833870 1.67e+06 382786
184 1 Mg 2.20727 32.8578 49.4516 1.2 -7.72461 2.04631e+06 522104 287947 108135 -121085 -98057
185 2 Si 1.67943 35.1802 51.2429 2.4 -32.3959 6.67072e+06 5.01525e+06 1.07663e+07 89358.1 636077 -177528
186 3 O 1.78736 36.747 51.303 -1.2 -10.15 -2.60752e+06 -2.18633e+06 -3.64835e+06 829409 -308471 752739
187 3 O 1.82368 34.0229 57.8639 -1.2 -9.52276 -2.21235e+06 -1.58248e+06 -5.23852e+06 491400 756826 1.79974e+06
188 3 O 0.362533 34.5479 50.661 -1.2 -9.24698 -2.75826e+06 -2.57194e+06 -4.58701e+06 1.07926e+06 -849811 -47050.9
189 1 Mg -2.80215 33.1347 52.3062 1.2 -7.39924 -1.00139e+06 -1.06305e+06 4.26107e+06 1.24255e+06 -1.7941e+06 588742
190 3 O 2.91593 34.533 50.466 -1.2 -9.60897 -2.4911e+06 -2.33097e+06 -2.55273e+06 -243592 843459 -83020.4
191 1 Mg -1.32134 33.3313 55.1717 1.2 -7.71888 504074 1.48707e+06 1.74086e+06 103362 -354628 -321068
192 2 Si -1.37185 31.0248 53.2823 2.4 -32.4246 7.09091e+06 4.92786e+06 1.36218e+07 61127.9 -66611 -507671
193 3 O -1.37924 29.5102 53.0982 -1.2 -9.86397 -3.00917e+06 -2.47021e+06 -5.67192e+06 526422 350477 774286
194 3 O -0.842495 32.4028 46.4192 -1.2 -7.76872 -2.81484e+06 -2.12274e+06 -2.98978e+06 -605327 -1.50387e+06 1.21208e+06
195 3 O -2.63867 31.7473 53.9417 -1.2 -9.54296 -1.48656e+06 -2.10466e+06 -5.10775e+06 -1.33366e+06 558569 645464
196 3 O -0.0178706 31.7525 53.9551 -1.2 -9.52151 -815657 -1.33397e+06 -3.16872e+06 1.97207e+06 -335876 1.05806e+06
197 1 Mg -2.4749 40.1752 57.3672 1.2 -7.07757 -2.00184e+06 -1.12114e+06 4.02376e+06 -1.20596e+06 -1.60689e+06 -509047
198 1 Mg -1.17787 40.1435 49.8359 1.2 -8.20051 265856 2.21256e+06 2.17067e+06 -200908 246769 499795
199 2 Si -0.702692 37.6572 47.9231 2.4 -33.9865 7.97122e+06 7.08142e+06 9.70682e+06 482322 2.3252e+06 -585533
200 3 O -0.621782 39.2264 47.9868 -1.2 -8.91085 -2.21049e+06 -4.38351e+06 -2.95159e+06 465376 -1.92039e+06 -63946.8
201 3 O -1.25221 36.5242 51.7666 -1.2 -9.47345 -2.02231e+06 -2.68677e+06 -6.57942e+06 -5718.51 197974 -528315
202 3 O -1.87295 37.0796 48.8243 -1.2 -9.00821 -756521 -3.64643e+06 -3.48635e+06 -2234.17 -373274 -1.17008e+06
203 1 Mg 0.341084 35.5943 46.8152 1.2 -6.86039 1.82499e+06 -221488 909694 1.12224e+06 1.59135e+06 -933014
204 3 O 0.760681 37.0138 48.3864 -1.2 -8.88446 -1.34744e+06 -1.70401e+06 -2.1919e+06 -279451 -313979 899236
205 1 Mg 1.81932 35.7294 54.6778 1.2 -7.55251 1.90743e+06 564255 1.43296e+06 -434353 529627 428028
206 2 Si 1.89046 38.2417 56.3791 2.4 -31.4041 5.81925e+06 4.42527e+06 1.05544e+07 725352 -140093 -467178
207 3 O 1.81094 36.718 56.5102 -1.2 -10.5225 -3.0354e+06 -2.8813e+06 -3.86907e+06 20184.3 6967.39 -917309
208 3 O 1.85132 39.2606 52.7264 -1.2 -9.95253 -2.53822e+06 -2.32067e+06 -5.18195e+06 -385328 -611467 -1.16447e+06
209 3 O 0.658024 38.9646 55.6824 -1.2 -10.251 -2.03817e+06 -3.54037e+06 -3.34034e+06 -1.39709e+06 133593 112929
210 3 O 3.19143 38.8869 55.6377 -1.2 -9.72481 -444969 -3.68259e+06 -4.10198e+06 1.84198e+06 338116 71926.2
211 1 Mg 0.272384 37.8883 52.2029 1.2 -7.46181 -1.29285e+06 -1.00975e+06 3.99605e+06 -1.22605e+06 1.84314e+06 320124
212 1 Mg 2.31122 37.6122 49.4501 1.2 -7.60401 1.88191e+06 666160 125293 126925 -161238 82970
213 2 Si 1.78573 39.934 51.2414 2.4 -32.1438 7.22376e+06 5.10019e+06 9.72121e+06 471488 549661 289587
214 3 O 1.89428 41.5006 51.3014 -1.2 -10.294 -2.35592e+06 -2.23601e+06 -3.44716e+06 775519 -518936 280830
215 3 O 2.04738 38.8822 57.8733 -1.2 -9.95875 -832279 -3.76766e+06 -3.82312e+06 -39340.1 437273 431854
216 3 O 0.469216 39.3015 50.6588 -1.2 -9.21222 -2.83815e+06 -2.56279e+06 -4.93278e+06 1.15717e+06 -326894 -152784
217 1 Mg -2.69668 37.8889 52.3043 1.2 -7.14134 -759840 -800728 3.8805e+06 1.95214e+06 -1.57214e+06 614836
218 3 O 3.0225 39.2866 50.4651 -1.2 -9.68072 -2.59706e+06 -2.35621e+06 -2.27568e+06 -341480 675704 -353698
219 1 Mg -1.09055 37.9926 55.0448 1.2 -7.71905 663514 1.44012e+06 1.74589e+06 45055.8 -89825.7 -1.15719e+06
220 2 Si -1.25615 35.8303 53.201 2.4 -32.2295 5.81916e+06 4.55479e+06 1.08836e+07 1.7311e+06 361748 -479857
221 3 O -1.34186 34.2914 53.1756 -1.2 -10.1133 -2.98239e+06 -2.65419e+06 -4.0584e+06 501889 702532 428384
222 3 O -0.738054 37.1566 46.4176 -1.2 -7.86395 -2.66302e+06 -2.28671e+06 -2.82825e+06 -605540 -1.50547e+06 1.04767e+06
223 3 O -2.45486 36.5167 53.9029 -1.2 -9.65698 -2.5683e+06 -3.70306e+06 -5.12501e+06 -678735 1.02842e+06 42482.1
224 3 O 0.077233 36.6158 53.8776 -1.2 -9.56939 -630999 -1.6384e+06 -3.72549e+06 1.61504e+06 322298 1.11863e+06
225 1 Mg -2.40594 44.9596 57.4579 1.2 -7.69314 -869366 -1.54146e+06 4.36235e+06 -1.81941e+06 -1.41396e+06 -1.78758e+06
226 1 Mg -1.06993 44.8968 49.8343 1.2 -8.12302 332814 2.1535e+06 2.03636e+06 -180065 172012 944620
227 2 Si -0.596166 42.4103 47.9215 2.4 -33.8743 7.81512e+06 7.19786e+06 9.57168e+06 490623 2.31362e+06 -260338
228 3 O -0.51472 43.9796 47.9853 -1.2 -8.9509 -2.17812e+06 -4.39426e+06 -2.90624e+06 461793 -1.92404e+06 -303367
229 3 O -1.14475 41.2777 51.7649 -1.2 -9.59754 -1.17161e+06 -3.48826e+06 -4.01007e+06 349045 -22123 -815841
230 3 O -1.76671 41.8331 48.8226 -1.2 -9.06959 -638676 -3.71278e+06 -3.44338e+06 32401.8 -366120 -1.2942e+06
231 1 Mg 0.447076 40.3473 46.8135 1.2 -6.79777 1.72459e+06 -165057 853229 1.12493e+06 1.58457e+06 -765372
232 3 O 0.866985 41.7666 48.385 -1.2 -8.9472 -1.25831e+06 -1.76248e+06 -2.12167e+06 -303651 -312594 741653
233 1 Mg 1.75206 40.1705 54.5018 1.2 -7.50926 1.26734e+06 1.2312e+06 -210588 -108609 64905.6 1.23835e+06
234 2 Si 2.16765 42.8615 56.3849 2.4 -31.8708 7.92846e+06 4.36014e+06 1.15122e+07 1.41089e+06 -276531 306173
235 3 O 2.01182 41.3612 56.5458 -1.2 -10.1803 -2.14806e+06 -4.00972e+06 -4.76781e+06 1.58514e+06 182231 -610110
236 3 O 1.95891 44.014 52.7248 -1.2 -9.79289 -1.95259e+06 -2.87352e+06 -4.88247e+06 431865 183367 -1.47862e+06
237 3 O 0.859002 43.5045 55.7255 -1.2 -9.75245 -449094 -3.32075e+06 -3.95317e+06 -931503 -372991 273797
238 3 O 3.48892 43.6923 55.7738 -1.2 -9.62071 -347917 -2.604e+06 -4.20035e+06 1.54683e+06 144655 -297331
239 1 Mg 0.379928 42.6418 52.2013 1.2 -7.14934 -1.39987e+06 -1.14013e+06 4.46096e+06 -862285 2.15235e+06 951493
240 1 Mg 2.41752 42.366 49.4484 1.2 -7.53092 1.72191e+06 756790 83267.1 104198 -146103 309572
241 2 Si 1.89374 44.6874 51.2398 2.4 -32.1909 6.22243e+06 4.98201e+06 1.09463e+07 309056 494308 1.15699e+06
242 3 O 2.00266 46.254 51.2996 -1.2 -10.108 -2.56525e+06 -1.81553e+06 -4.13631e+06 780060 -280658 328955
243 3 O 2.20402 43.5315 57.9137 -1.2 -9.54887 -2.78257e+06 -2.11276e+06 -4.15578e+06 -1.07051e+06 235315 1.40054e+06
244 3 O 0.577464 44.0549 50.6567 -1.2 -9.39062 -2.54319e+06 -2.63833e+06 -4.67868e+06 1.06484e+06 -846551 -531686
245 1 Mg -2.58906 42.6425 52.3022 1.2 -6.9986 -1.44197e+06 -811241 4.15327e+06 1.62237e+06 -1.94884e+06 947902
246 3 O 3.13067 44.0398 50.464 -1.2 -9.75735 -2.23728e+06 -2.45102e+06 -2.41001e+06 -285741 890048 -708619
247 1 Mg -0.888551 42.7465 55.1061 1.2 -7.64189 413524 980452 1.43659e+06 40379.7 146879 -1.00105e+06
248 2 Si -1.13244 40.6515 53.2846 2.4 -31.6797 5.44969e+06 6.08516e+06 1.22037e+07 285448 -862441 1.13003e+06
249 3 O -1.10213 39.0648 53.1174 -1.2 -10.0578 -2.08082e+06 -1.5119e+06 -4.90339e+06 783227 961975 1.38891e+06
250 3 O -0.631421 41.9099 46.4159 -1.2 -7.91268 -2.58634e+06 -2.33087e+06 -2.78184e+06 -605372 -1.50388e+06 876504
251 3 O -2.43783 41.2712 53.9747 -1.2 -9.80381 213541 -2.45003e+06 -3.36119e+06 -794430 126132 130836
252 3 O 0.142644 41.3573 53.9477 -1.2 -10.0531 -1.07124e+06 -3.03592e+06 -3.83491e+06 644666 -693984 -452822
253 1 Mg -2.29894 49.6855 57.3187 1.2 -7.52144 -591146 -1.80126e+06 4.86543e+06 -1.72332e+06 -1.55252e+06 -997779
254 1 Mg -0.961069 49.6502 49.8327 1.2 -8.24851 563767 1.95294e+06 2.20418e+06 -177660 299158 801948
255 2 Si -0.488083 47.1636 47.9198 2.4 -33.9629 7.97696e+06 6.74364e+06 1.00052e+07 496023 2.33122e+06 59455.4
256 3 O -0.40607 48.7329 47.9837 -1.2 -8.87628 -2.29203e+06 -4.15783e+06 -3.14588e+06 460367 -1.94048e+06 -334051
257 3 O -1.0361 46.031 51.7632 -1.2 -9.42504 -1.99934e+06 -1.69403e+06 -5.6028e+06 207278 114878 -1.27738e+06
258 3 O -1.65866 46.5866 48.821 -1.2 -9.02856 -730427 -3.44025e+06 -3.68792e+06 7043.04 -346863 -1.51646e+06
259 1 Mg 0.554124 45.1001 46.8117 1.2 -6.78958 1.71438e+06 -230677 916670 1.12345e+06 1.5935e+06 -542029
260 3 O 0.974961 46.5195 48.3832 -1.2 -8.91039 -1.30301e+06 -1.54597e+06 -2.34635e+06 -286277 -329550 527845
261 1 Mg 2.12761 44.9718 54.5701 1.2 -7.92902 2.07303e+06 1.21704e+06 961872 137769 810849 697631
262 2 Si 2.09766 47.6371 56.3999 2.4 -32.8517 6.9798e+06 4.04842e+06 1.04592e+07 42101.5 -1.14719e+06 -142871
263 3 O 2.05935 46.0996 56.4255 -1.2 -9.90233 -3.94986e+06 -2.3979e+06 -4.12908e+06 449598 387737 181230
264 3 O 2.0677 48.7672 52.7232 -1.2 -9.49179 -2.53815e+06 -2.485e+06 -5.03544e+06 46746.3 -750509 -1.17295e+06
265 3 O 0.793192 48.2993 55.797 -1.2 -9.48877 -3.89128e+06 -2.73046e+06 -4.72252e+06 -641276 -852374 441228
266 3 O 3.29987 48.3804 55.6424 -1.2 -9.04685 -1.66217e+06 -3.10773e+06 -4.38105e+06 925050 1.01762e+06 145901
267 1 Mg 0.488584 47.395 52.1996 1.2 -7.46763 -949438 -1.15619e+06 4.26504e+06 -885525 2.10495e+06 530464
268 1 Mg 2.52544 47.1195 49.4466 1.2 -7.61366 1.8331e+06 436304 429391 92227.8 -166305 409728
269 2 Si 2.00256 49.4407 51.2382 2.4 -32.593 6.84902e+06 4.59631e+06 1.13368e+07 341253 389851 641583
270 3 O 2.11156 51.0073 51.2982 -1.2 -9.92626 -2.85919e+06 -1.75556e+06 -4.18262e+06 705842 -656378 589971
271 3 O 2.18326 48.3437 57.8279 -1.2 -9.45516 -2.75347e+06 -2.62654e+06 -7.01794e+06 27562.4 -116618 911732
272 3 O 0.686344 48.8082 50.655 -1.2 -9.17843 -2.64981e+06 -2.37936e+06 -5.13919e+06 1.09532e+06 -782049 -422232
273 1 Mg -2.48039 47.3957 52.3005 1.2 -7.32883 -748343 -1.01397e+06 4.73354e+06 1.35727e+06 -1.69082e+06 612858