ITEM: TIMESTEP
59700
ITEM: NUMBER OF ATOMS
10500
ITEM: BOX BOUNDS xy xz yz pp pp pp
0.0000000000000000e+00 8.9687999999999999e+00 2.9895999999999998e+00
0.0000000000000000e+00 1.1872499999999999e+02 0.0000000000000000e+00
0.0000000000000000e+00 2.5297749999999999e+02 0.0000000000000000e+00
ITEM: ATOMS id type element xu yu zu q c_pe c_s[1] c_s[2] c_s[3] c_s[4] c_s[5] c_s[6]
1 1 Mg -3.20151 6.95728 57.0979 1.2 -8.05643 -1.41599e+06 -2.77536e+06 3.18289e+06 -2.01948e+06 -1.97005e+06 -1.41402e+06
2 1 Mg -1.82655 6.90154 50.0912 1.2 -8.1951 -62717.4 551918 1.85038e+06 -101101 -228308 1.16667e+06
3 2 Si -0.257935 3.96038 48.0876 2.4 -36.0284 9.97462e+06 8.08531e+06 1.15189e+07 779456 1.98819e+06 1.97535e+06
4 3 O -0.335812 5.46814 47.6264 -1.2 -7.8278 -3.01737e+06 -2.07748e+06 -2.91776e+06 148523 -965647 -611232
5 3 O -2.03793 3.43377 51.8941 -1.2 -8.89765 -3.59325e+06 -1.62637e+06 -9.41454e+06 -918584 882814 -1.46075e+06
6 3 O -1.54015 3.53929 48.9521 -1.2 -8.32543 -1.29101e+06 -1.30999e+06 -4.60184e+06 41415.5 -753722 -481192
7 1 Mg 1.82954 2.54582 47.1376 1.2 -7.9978 2.60874e+06 -777457 1.03357e+06 1.14871e+06 825961 597918
8 3 O 1.22989 3.66364 48.7877 -1.2 -8.03036 -1.61021e+06 -2.05187e+06 -4.02371e+06 -484899 -711898 -1.14347e+06
9 1 Mg 1.07511 2.27825 54.3545 1.2 -8.52011 1.53548e+06 42865.7 -720633 -515188 662687 32449.6
10 2 Si 1.23877 4.92731 56.4707 2.4 -32.3962 7.70952e+06 1.3037e+06 1.21298e+07 15019.7 -1.28091e+06 94279.4
11 3 O 1.22764 3.47962 56.3353 -1.2 -9.75287 -3.92624e+06 -4.54255e+06 -5.52749e+06 651337 786617 557131
12 3 O 1.10813 6.07342 52.8172 -1.2 -8.98366 -3.72427e+06 -1.9948e+06 -5.06466e+06 -96547.3 -723563 -1.23407e+06
13 3 O 0.10083 5.77775 55.7975 -1.2 -9.39606 -4.03662e+06 -1.59937e+06 -4.27224e+06 870823 -725899 -1.0076e+06
14 3 O 2.67534 5.67484 55.7027 -1.2 -8.34364 -363800 -2.9675e+06 -6.15789e+06 633438 -752665 -2.12661e+06
15 1 Mg -0.459401 4.67631 52.2426 1.2 -8.19395 -41675.5 -1.99735e+06 5.39928e+06 -1.20588e+06 1.16814e+06 668450
16 1 Mg 2.79456 3.9971 49.9987 1.2 -8.35139 3.56479e+06 -598523 2.175e+06 -425608 814453 -509144
17 2 Si 1.16169 6.59457 51.2556 2.4 -33.5445 7.59741e+06 4.76746e+06 1.27416e+07 128005 722451 2.25465e+06
18 3 O 1.28989 8.18905 51.2909 -1.2 -9.70513 -2.61601e+06 -1.35e+06 -3.87656e+06 342228 -1.03943e+06 1.02063e+06
19 3 O 1.39721 5.67927 57.8815 -1.2 -9.63192 -4.27027e+06 -2.11237e+06 -8.03362e+06 -240116 -701206 2.58308e+06
20 3 O -0.184847 6.06029 50.6845 -1.2 -8.69994 -3.10961e+06 -2.4098e+06 -5.81262e+06 1.48603e+06 -184961 -1.33019e+06
21 1 Mg -3.49704 4.67769 52.6661 1.2 -7.95977 67760.8 -2.84398e+06 3.92171e+06 2.14545e+06 -946475 821129
22 3 O 2.48581 5.93312 50.6539 -1.2 -9.2424 -3.17324e+06 -758730 -3.954e+06 -1.60567e+06 -738987 -787587
23 1 Mg -1.59156 4.66937 55.2013 1.2 -8.3849 2.20792e+06 2.20367e+06 1.24083e+06 203382 -758911 -223135
24 2 Si -1.99887 2.55341 53.1703 2.4 -33.8613 8.24726e+06 1.83726e+06 1.34494e+07 991254 -263145 -62443
25 3 O -2.02712 1.04522 53.199 -1.2 -9.42381 -4.07108e+06 -4.20509e+06 -5.45692e+06 -156209 153781 -1.28107e+06
26 3 O -0.0467762 2.97103 46.8385 -1.2 -7.01369 -2.95819e+06 -1.86064e+06 -3.16629e+06 -987450 -2.01052e+06 -699940
27 3 O -3.24294 3.17011 54.0073 -1.2 -8.34013 -4.32826e+06 -3.14325e+06 -7.18233e+06 -1.16156e+06 876336 904868
28 3 O -0.66678 3.21007 53.939 -1.2 -8.62473 -3.5989e+06 -1.42682e+06 -4.1274e+06 1.42386e+06 388161 1.60134e+06
29 1 Mg -3.19946 11.7952 57.6414 1.2 -7.47178 -2.19427e+06 -1.10925e+06 3.17361e+06 226784 -2.95596e+06 900556
30 1 Mg -1.75014 11.5838 49.8362 1.2 -8.33605 629058 1.71365e+06 2.71506e+06 -309931 332485 902898
31 2 Si -1.18003 9.02138 47.9309 2.4 -34.2457 8.14201e+06 6.77348e+06 1.01586e+07 239810 2.6165e+06 267401
32 3 O -1.23224 10.5991 47.9811 -1.2 -8.81681 -2.33387e+06 -3.38587e+06 -2.99326e+06 653946 -1.92632e+06 19259.1
33 3 O -1.79016 8.01447 51.8693 -1.2 -9.28513 -2.26326e+06 -1.97517e+06 -4.96882e+06 160488 -297056 -1.0486e+06
34 3 O -2.30986 8.37215 48.8528 -1.2 -9.05005 -891101 -2.32872e+06 -3.58036e+06 -330901 -613278 -731648
35 1 Mg 0.154883 7.08234 46.8007 1.2 -7.47056 1.80811e+06 -452505 1.09642e+06 943495 1.72306e+06 -996725
36 3 O 0.325447 8.50934 48.3809 -1.2 -8.69772 -1.29921e+06 -1.7543e+06 -2.95315e+06 -37258.1 -824338 426391
37 1 Mg 1.12024 7.2065 54.6241 1.2 -8.26864 1.7097e+06 218746 1.1024e+06 -902401 -86815.3 1.26935e+06
38 2 Si 1.12842 9.78036 56.4139 2.4 -33.1534 7.92276e+06 3.17614e+06 1.15815e+07 765129 389535 1.6209e+06
39 3 O 1.201 8.25329 56.7173 -1.2 -9.4319 -5.28697e+06 -2.68878e+06 -4.58365e+06 -1.29114e+06 -44948.1 -475106
40 3 O 1.28624 10.7248 52.7351 -1.2 -9.45944 -2.8501e+06 -1.46517e+06 -5.00193e+06 145506 -630233 -534619
41 3 O -0.077379 10.3326 55.6724 -1.2 -9.39108 -4.85805e+06 -2.978e+06 -4.18646e+06 -1.01771e+06 -1.52905e+06 -443465
42 3 O 2.47229 10.3295 55.7895 -1.2 -8.94763 -1.74184e+06 -2.93814e+06 -4.32313e+06 682387 62201.8 -709143
43 1 Mg -0.262694 9.34741 52.2523 1.2 -7.46266 -564370 -437588 5.30302e+06 -1.45139e+06 1.35626e+06 1.21393e+06
44 1 Mg 1.87648 9.01537 49.4629 1.2 -7.76883 1.82593e+06 347119 489213 225549 -272515 219251
45 2 Si 1.21415 11.3799 51.2378 2.4 -32.7787 7.78472e+06 4.29715e+06 1.14007e+07 170571 297051 731138
46 3 O 1.31634 12.9512 51.3023 -1.2 -9.90766 -3.33017e+06 -1.43324e+06 -4.21547e+06 570422 -142263 751392
47 3 O 1.09621 10.5402 57.9769 -1.2 -9.13019 -3.17987e+06 -4.40142e+06 -3.72479e+06 830080 -364197 -203017
48 3 O -0.115718 10.7564 50.681 -1.2 -9.05427 -2.67245e+06 -2.22779e+06 -4.94111e+06 1.3306e+06 -609413 -861391
49 1 Mg -3.26386 9.35564 52.3622 1.2 -7.30571 -649579 -888851 4.50665e+06 1.99376e+06 -1.66934e+06 1.17318e+06
50 3 O 2.45216 10.7265 50.4558 -1.2 -9.57134 -2.59245e+06 -1.67735e+06 -2.41256e+06 -848063 614316 -177587
51 1 Mg -1.72413 9.58979 55.0358 1.2 -8.40199 1.18359e+06 -386380 390941 -461422 -1.01706e+06 -891878
52 2 Si -1.84319 7.38707 53.4222 2.4 -33.207 6.17385e+06 3.98112e+06 1.35841e+07 -549495 -2.02053e+06 822932
53 3 O -1.87963 5.79098 53.2892 -1.2 -9.12761 -3.57611e+06 -763402 -6.01749e+06 281415 1.18964e+06 -358306
54 3 O -1.19417 8.46968 46.4488 -1.2 -7.69986 -2.62696e+06 -1.76517e+06 -3.2263e+06 -542314 -1.74256e+06 839096
55 3 O -3.23008 8.0167 54.0222 -1.2 -9.02374 -2.21421e+06 -3.18268e+06 -4.5446e+06 -1.2191e+06 -778050 -856511
56 3 O -0.701257 8.08089 54.0814 -1.2 -9.28327 -4.15783e+06 -4.14587e+06 -6.7528e+06 -306879 -1.11359e+06 -1.59318e+06
57 1 Mg -3.00659 16.509 57.2622 1.2 -7.20118 -3.22317e+06 -1.82036e+06 5.18023e+06 -2.56535e+06 -1.19745e+06 -291569
58 1 Mg -1.6714 16.3544 49.8412 1.2 -8.22709 367054 1.96568e+06 2.42669e+06 -153198 278855 756106
59 2 Si -1.18567 13.8526 47.9314 2.4 -34.0442 8.07675e+06 5.88601e+06 1.0817e+07 495037 2.25038e+06 -325889
60 3 O -1.09664 15.4205 47.9915 -1.2 -8.91082 -2.13876e+06 -3.75288e+06 -3.35033e+06 421349 -1.92903e+06 -201216
61 3 O -1.73493 12.7491 51.7772 -1.2 -8.91714 -3.13783e+06 -2.51814e+06 -6.54281e+06 256060 -457134 -431249
62 3 O -2.36115 13.2717 48.8238 -1.2 -8.93588 -921989 -2.90057e+06 -4.03353e+06 -102826 -395797 -1.24499e+06
63 1 Mg -0.159928 11.7639 46.8533 1.2 -6.88395 1.88976e+06 -778164 1.42898e+06 1.12608e+06 1.56947e+06 -856401
64 3 O 0.2623 13.1866 48.413 -1.2 -8.84406 -1.43039e+06 -944327 -2.82738e+06 -198672 -268561 799001
65 1 Mg 1.40129 11.9604 54.5301 1.2 -7.56737 -893766 804982 2.61515e+06 -1.34757e+06 1.46623e+06 1.09981e+06
66 2 Si 1.46615 14.4581 56.3826 2.4 -31.8404 8.02459e+06 638592 1.18089e+07 34982.7 982980 2.04424e+06
67 3 O 1.44903 12.9589 56.6156 -1.2 -9.76852 -3.22265e+06 -3.4407e+06 -4.64249e+06 742224 927667 -1.58355e+06
68 3 O 1.36565 15.4813 52.729 -1.2 -9.88127 -2.75896e+06 -1.80682e+06 -4.31714e+06 523604 -310084 -1.01309e+06
69 3 O 0.0397284 15.0533 55.7153 -1.2 -9.88935 340884 -2.07163e+06 -4.75472e+06 -1.82064e+06 246272 352344
70 3 O 2.68025 15.1145 55.7076 -1.2 -10.1774 -1.62708e+06 -2.13674e+06 -7.66124e+06 240827 1.33043e+06 363241
71 1 Mg -0.206989 14.1049 52.2121 1.2 -7.49025 -761840 -1.24894e+06 3.53985e+06 -1.53033e+06 1.95865e+06 1.47197e+06
72 1 Mg 1.82591 13.8102 49.4556 1.2 -7.70104 2.06413e+06 262114 563726 149541 -109689 264183
73 2 Si 1.29285 16.1518 51.2434 2.4 -32.2825 7.10779e+06 4.77456e+06 1.04409e+07 -134907 156264 873884
74 3 O 1.39496 17.7199 51.3047 -1.2 -10.2438 -2.30152e+06 -1.88824e+06 -3.60985e+06 572797 -140695 -67196.9
75 3 O 1.52194 15.2146 57.8194 -1.2 -9.30818 -4.18047e+06 -2.69353e+06 -5.08672e+06 -1.25725e+06 787120 -1.05704e+06
76 3 O -0.0269106 15.5178 50.6688 -1.2 -9.19951 -2.81088e+06 -2.36974e+06 -4.78142e+06 1.10976e+06 -593288 -515977
77 1 Mg -3.18391 14.1057 52.3125 1.2 -7.27187 -1.63061e+06 -1.8252e+06 3.39802e+06 1.14783e+06 -2.30623e+06 606889
78 3 O 2.52432 15.503 50.4579 -1.2 -9.58791 -2.71887e+06 -1.95194e+06 -2.71534e+06 -275733 549003 -267153
79 1 Mg -1.56507 14.1798 55.0157 1.2 -7.60133 140465 -529661 2.40402e+06 -627259 -183708 -712240
80 2 Si -1.72807 12.1315 53.2868 2.4 -32.5757 5.09075e+06 1.20226e+06 1.1763e+07 1.57224e+06 417164 -1.41242e+06
81 3 O -1.73368 10.6282 53.3134 -1.2 -9.66682 -3.76147e+06 -4.34655e+06 -6.09901e+06 1.5413e+06 465187 1.25065e+06
82 3 O -1.21337 13.3381 46.4311 -1.2 -7.84624 -2.75363e+06 -1.62073e+06 -3.42476e+06 -630924 -1.45308e+06 933387
83 3 O -2.99677 12.6715 53.8755 -1.2 -9.73231 -4.95395e+06 -5.01071e+06 -6.87186e+06 -150978 2.63129e+06 -336325
84 3 O -0.372835 12.8974 53.7563 -1.2 -9.64384 -256556 -2.95791e+06 -6.86903e+06 602105 -998802 -284602
85 1 Mg -3.04043 21.3112 57.4535 1.2 -6.85278 -2.53056e+06 -2.66696e+06 5.86539e+06 -585442 -1.48644e+06 -1.55556e+06
86 1 Mg -1.5831 21.1217 49.8405 1.2 -8.16702 352734 1.63085e+06 2.64168e+06 -161256 254210 1.0054e+06
87 2 Si -1.09384 18.6291 47.9287 2.4 -33.9141 7.85874e+06 6.06589e+06 1.0707e+07 491206 2.3363e+06 218172
88 3 O -1.02071 20.1985 47.9911 -1.2 -8.94464 -2.15491e+06 -3.74632e+06 -3.46428e+06 455363 -1.93623e+06 -475995
89 3 O -1.65002 17.5002 51.771 -1.2 -9.62627 -1.18032e+06 -2.80811e+06 -4.22623e+06 431005 -1.23314e+06 -1.19049e+06
90 3 O -2.26174 18.0434 48.8281 -1.2 -9.04231 -733750 -3.1139e+06 -3.93115e+06 -8191.47 -398728 -1.52095e+06
91 1 Mg -0.0440435 16.5651 46.8269 1.2 -6.81411 1.71494e+06 -673700 1.37167e+06 1.13496e+06 1.57464e+06 -608053
92 3 O 0.37001 17.9877 48.3925 -1.2 -8.92059 -1.28969e+06 -1.21015e+06 -2.68718e+06 -293124 -313209 493132
93 1 Mg 1.39942 16.4192 54.6352 1.2 -7.05476 1.19943e+06 1.2625e+06 1.30707e+06 -373049 612852 1.59846e+06
94 2 Si 1.51148 19.2173 56.2428 2.4 -32.0474 2.278e+06 -846527 1.50008e+07 534154 1.33706e+06 311691
95 3 O 1.39766 17.756 56.4914 -1.2 -10.4014 -1.61077e+06 -5.73498e+06 -6.72037e+06 668249 -656971 410483
96 3 O 1.45147 20.239 52.7294 -1.2 -9.47494 -2.74927e+06 -780762 -6.29433e+06 -436150 -838263 -889671
97 3 O 0.201149 19.7448 55.3885 -1.2 -9.50708 -1.00388e+06 -933859 -5.32827e+06 -571589 -379741 -101461
98 3 O 2.6781 19.8941 55.5499 -1.2 -9.52285 -3.77646e+06 -4.09501e+06 -7.24764e+06 -624718 1.11804e+06 1.03199e+06
99 1 Mg -0.126194 18.8651 52.2079 1.2 -7.37818 -996776 -875327 5.39117e+06 -1.1788e+06 2.01226e+06 1.35076e+06
100 1 Mg 1.92402 18.5815 49.4545 1.2 -7.58185 1.80554e+06 238418 558354 126666 -166295 625660
101 2 Si 1.38106 20.9117 51.2443 2.4 -32.319 6.83284e+06 3.78598e+06 1.17922e+07 66907.2 651624 1.01741e+06
102 3 O 1.48527 22.4795 51.3054 -1.2 -10.2037 -2.45751e+06 -1.56729e+06 -3.98013e+06 776881 -282116 -41795.3
103 3 O 1.33804 19.8783 57.6731 -1.2 -9.91081 424214 -2.19423e+06 -6.79153e+06 150214 506464 -1.70572e+06
104 3 O 0.0615419 20.2804 50.6669 -1.2 -9.26215 -2.72326e+06 -1.97235e+06 -5.28246e+06 1.11125e+06 -634905 -790521
105 1 Mg -3.09665 18.8643 52.3122 1.2 -7.09379 -1.16284e+06 -1.74968e+06 4.4278e+06 1.52404e+06 -2.39804e+06 1.75519e+06
106 3 O 2.61548 20.2646 50.4626 -1.2 -9.6678 -2.53315e+06 -1.59373e+06 -3.17092e+06 -304396 682359 -753254
107 1 Mg -1.72796 18.8524 55.0148 1.2 -7.40698 1.41539e+06 -528819 382455 -501438 124269 -1.9787e+06
108 2 Si -1.725 16.8453 53.2755 2.4 -31.4062 4.79798e+06 5.01281e+06 1.28583e+07 645539 -807609 1.10824e+06
109 3 O -1.85054 15.2413 53.1003 -1.2 -10.1338 -3.00203e+06 -623620 -5.44107e+06 -300906 212941 202203
110 3 O -1.12868 18.1227 46.4249 -1.2 -7.90721 -2.60937e+06 -1.73239e+06 -3.35376e+06 -604491 -1.49771e+06 700057
111 3 O -2.94271 17.5472 54.0651 -1.2 -10.2123 -2.00972e+06 -3.13222e+06 -3.36284e+06 -482514 -514972 -648747
112 3 O -0.436731 17.4664 53.9214 -1.2 -9.74091 -678064 -2.50682e+06 -4.99731e+06 -166622 -657638 -1.29157e+06
113 1 Mg -2.57391 26.0319 57.3538 1.2 -7.24318 -1.97043e+06 -2.66938e+06 5.23025e+06 -738516 -1.82722e+06 187010
114 1 Mg -1.48778 25.88 49.8402 1.2 -8.20326 398962 1.45702e+06 2.80882e+06 -232713 144254 960373
115 2 Si -1.00491 23.3922 47.9274 2.4 -33.9064 7.85497e+06 5.66727e+06 1.11055e+07 483437 2.33768e+06 444699
116 3 O -0.927602 24.9615 47.9909 -1.2 -8.92769 -2.19883e+06 -3.60093e+06 -3.66594e+06 465935 -1.92371e+06 -519806
117 3 O -1.55795 22.2588 51.7696 -1.2 -9.42934 -1.67031e+06 -3.3717e+06 -7.76087e+06 -167083 -1.42676e+06 -937114
118 3 O -2.17411 22.8111 48.8277 -1.2 -9.05043 -720996 -2.91998e+06 -4.15524e+06 4289.01 -379979 -1.70161e+06
119 1 Mg 0.0423997 21.3296 46.8225 1.2 -6.77936 1.68293e+06 -801794 1.48923e+06 1.12675e+06 1.58815e+06 -396166
120 3 O 0.458537 22.7495 48.3911 -1.2 -8.92986 -1.27334e+06 -1.01098e+06 -2.89272e+06 -292083 -320897 346202
121 1 Mg 1.3268 21.4486 54.5361 1.2 -7.82176 785922 1.52565e+06 278649 -71000.4 978764 1.36052e+06
122 2 Si 1.63697 24.0204 56.2892 2.4 -32.6577 6.77498e+06 2.05442e+06 1.08224e+07 -602920 621603 -487112
123 3 O 1.47182 22.5297 56.2846 -1.2 -10.0809 -2.70469e+06 -3.70749e+06 -6.74327e+06 1.19462e+06 1.14769e+06 -398248
124 3 O 1.54441 24.9963 52.7297 -1.2 -9.47247 -2.83718e+06 -899408 -5.51782e+06 -635926 -516065 -1.27698e+06
125 3 O 0.295598 24.7353 55.7173 -1.2 -9.30737 -1.03388e+06 -1.73311e+06 -3.34438e+06 284773 -776007 -301570
126 3 O 2.94532 24.6083 55.6161 -1.2 -8.8506 -2.46551e+06 -4.98171e+06 -6.53541e+06 1.71543e+06 1.7565e+06 -126626
127 1 Mg -0.0335968 23.6229 52.2067 1.2 -7.58391 -1.34264e+06 -2.30282e+06 4.84763e+06 -679148 1.90425e+06 1.28527e+06
128 1 Mg 2.01073 23.3445 49.4541 1.2 -7.58811 1.81378e+06 -47604.7 853266 134046 -177879 673480
129 2 Si 1.47594 25.6699 51.2449 2.4 -32.436 7.02738e+06 3.24964e+06 1.23032e+07 632140 828883 813362
130 3 O 1.58172 27.2371 51.3054 -1.2 -10.1261 -2.80865e+06 -1.34195e+06 -4.34438e+06 815393 -678871 417822
131 3 O 1.80286 24.5961 57.7456 -1.2 -9.99808 -2.16891e+06 -2.67912e+06 -8.06814e+06 37493.3 482013 595437
132 3 O 0.157925 25.0378 50.6651 -1.2 -9.23143 -2.82533e+06 -1.6993e+06 -5.66542e+06 1.01507e+06 -635384 -443870
133 1 Mg -3.00341 23.6231 52.3098 1.2 -7.18392 -674170 -1.6917e+06 5.14918e+06 1.65708e+06 -1.70701e+06 1.29713e+06
134 3 O 2.71149 25.0232 50.4656 -1.2 -9.63931 -2.46225e+06 -1.50529e+06 -3.24806e+06 -339073 808296 -827698
135 1 Mg -1.47773 23.6157 55.1099 1.2 -8.0405 1.04844e+06 -221625 -432576 1.74024e+06 216841 419572
136 2 Si -1.60215 21.587 53.182 2.4 -32.5671 6.07714e+06 3.87239e+06 1.14037e+07 1.05042e+06 -2.46885e+06 1.66361e+06
137 3 O -1.68033 20.0579 53.0862 -1.2 -9.89625 -3.75662e+06 -2.09651e+06 -5.9989e+06 701970 714801 -211665
138 3 O -1.03938 22.8897 46.4223 -1.2 -7.92471 -2.57029e+06 -1.61131e+06 -3.48495e+06 -605543 -1.50401e+06 547509
139 3 O -2.88348 22.1737 54.0379 -1.2 -8.99013 -1.57624e+06 -4.34011e+06 -4.2518e+06 -1.53474e+06 368013 -601746
140 3 O -0.378499 22.3607 53.8422 -1.2 -9.58835 -3.50331e+06 -3.38309e+06 -5.20487e+06 1.13353e+06 -1.32953e+06 -254007
141 1 Mg -2.46101 30.8539 57.1655 1.2 -7.29701 -1.12891e+06 -3.38814e+06 5.68677e+06 -2.45717e+06 -1.22893e+06 -823615
142 1 Mg -1.38776 30.6357 49.8391 1.2 -8.32953 391940 1.37611e+06 3.0946e+06 -156918 197174 1.14303e+06
143 2 Si -0.907929 28.1491 47.9262 2.4 -33.9743 7.95821e+06 5.48724e+06 1.12947e+07 484832 2.28487e+06 467803
144 3 O -0.829229 29.7184 47.99 -1.2 -8.87765 -2.26168e+06 -3.51046e+06 -3.80732e+06 459657 -1.90375e+06 -581318
145 3 O -1.45946 27.0152 51.769 -1.2 -9.3085 -2.22279e+06 -1.43887e+06 -7.08232e+06 94665 627584 -955797
146 3 O -2.07744 27.5697 48.8273 -1.2 -9.00363 -723591 -2.85512e+06 -4.31064e+06 -2660.1 -347743 -1.66881e+06
147 1 Mg 0.137907 26.087 46.819 1.2 -6.78901 1.71001e+06 -949587 1.63284e+06 1.12374e+06 1.58894e+06 -347614
148 3 O 0.55579 27.5065 48.3893 -1.2 -8.90039 -1.36175e+06 -918761 -2.94277e+06 -283247 -323635 371251
149 1 Mg 1.61638 26.2311 54.5482 1.2 -8.04248 1.23706e+06 95747.9 1.71108e+06 -609388 122983 1.29034e+06
150 2 Si 2.05984 28.6625 56.4335 2.4 -32.0846 8.77258e+06 4.60505e+06 1.08372e+07 674641 -484264 -468239
151 3 O 1.94069 27.0614 56.4115 -1.2 -9.7324 -3.30045e+06 -1.06272e+06 -5.12897e+06 1.82615e+06 466445 -1.37807e+06
152 3 O 1.6432 29.7522 52.7291 -1.2 -9.99443 -2.51942e+06 -1.34681e+06 -6.62055e+06 -434999 -742488 -1.85159e+06
153 3 O 0.690474 29.2998 55.7061 -1.2 -9.49682 -483326 -2.10345e+06 -2.67118e+06 -1.20093e+06 1.60913e+06 173713
154 3 O 3.27732 29.3867 55.6777 -1.2 -9.4932 -2.18482e+06 -2.98832e+06 -5.02397e+06 1.10032e+06 -93508.6 615412
155 1 Mg 0.0647462 28.3794 52.2059 1.2 -7.27229 -694818 -1.71134e+06 4.70747e+06 -1.3261e+06 1.76087e+06 833928
156 1 Mg 2.10696 28.1021 49.4531 1.2 -7.63044 1.88907e+06 -91814.8 898930 123102 -78751.6 555163
157 2 Si 1.57592 30.4257 51.2442 2.4 -32.3289 7.88378e+06 3.37e+06 1.10595e+07 193530 830299 1.40013e+06
158 3 O 1.68288 31.9926 51.3043 -1.2 -10.055 -3.13185e+06 -928220 -4.04567e+06 864383 -532234 -120058
159 3 O 2.07805 29.2434 57.8779 -1.2 -9.936 -3.32933e+06 -1.79709e+06 -5.87412e+06 -354418 144432 508546
160 3 O 0.258524 29.7935 50.6632 -1.2 -9.17936 -3.08623e+06 -1.8293e+06 -5.39111e+06 1.21213e+06 -348687 -788011
161 1 Mg -2.90462 28.3797 52.308 1.2 -7.29133 -1.28506e+06 -957903 4.62577e+06 1.69288e+06 -1.52419e+06 828474
162 3 O 2.81205 29.7787 50.4664 -1.2 -9.57625 -2.66446e+06 -1.63661e+06 -3.17877e+06 -356048 542734 -844450
163 1 Mg -1.16187 28.3354 55.0496 1.2 -7.85727 899187 904248 1.28743e+06 572190 1.43156e+06 -697487
164 2 Si -1.37355 26.2743 53.2089 2.4 -32.6212 6.3778e+06 3.70288e+06 1.32169e+07 -461087 -55189.6 -554659
165 3 O -1.42064 24.7032 53.1265 -1.2 -9.69266 -3.51352e+06 -1.99331e+06 -5.88774e+06 1.8899e+06 806144 -186826
166 3 O -0.943026 27.648 46.4208 -1.2 -7.90898 -2.5925e+06 -1.4892e+06 -3.61916e+06 -603876 -1.50081e+06 511781
167 3 O -2.7035 26.9061 53.8637 -1.2 -9.22547 -2.459e+06 -2.46285e+06 -6.82843e+06 -1.80713e+06 1.29507e+06 427356
168 3 O -0.162431 27.0345 53.8668 -1.2 -9.81906 -2.78568e+06 -1.94281e+06 -5.70747e+06 1.0352e+06 -914524 -90722.2
169 1 Mg -2.47875 35.3915 57.114 1.2 -6.80609 -1.50817e+06 -2.42185e+06 5.07225e+06 -882668 -1.58229e+06 -808884
170 1 Mg -1.28421 35.3899 49.8376 1.2 -8.32587 532502 1.32219e+06 2.99607e+06 -177378 292285 764969
171 2 Si -0.807101 32.9036 47.9247 2.4 -34.0797 8.0846e+06 5.01887e+06 1.18082e+07 500653 2.29698e+06 288845
172 3 O -0.727174 34.4729 47.9885 -1.2 -8.85483 -2.29691e+06 -3.35039e+06 -3.97914e+06 456046 -1.92262e+06 -359811
173 3 O -1.35735 31.7701 51.768 -1.2 -8.93088 -900754 -3.12481e+06 -6.37224e+06 -11639.7 -525122 -1.87734e+06
174 3 O -1.97695 32.3253 48.826 -1.2 -8.91783 -841937 -2.59738e+06 -4.59564e+06 11744.7 -404485 -1.66217e+06
175 1 Mg 0.237665 30.8412 46.8168 1.2 -6.82152 1.76443e+06 -1.11835e+06 1.8029e+06 1.12268e+06 1.57957e+06 -330820
176 3 O 0.656562 32.2608 48.3877 -1.2 -8.8312 -1.4664e+06 -677361 -3.18925e+06 -293646 -283875 368898
177 1 Mg 1.55189 30.569 54.4766 1.2 -7.71424 2.785e+06 567354 -360186 -143306 -319468 995782
178 2 Si 1.94882 33.4463 56.444 2.4 -31.6665 5.4854e+06 -59155.1 1.5096e+07 1.33728e+06 -427008 866293
179 3 O 1.91633 31.9295 56.5888 -1.2 -9.60198 -4.03341e+06 -1.57126e+06 -7.3772e+06 1.45086e+06 630523 -1.68103e+06
180 3 O 1.74574 34.5067 52.7279 -1.2 -9.44194 -3.14372e+06 -1.62106e+06 -5.09544e+06 991433 -78339.7 -1.13005e+06
181 3 O 0.636652 34.0225 55.8253 -1.2 -9.74 -1.93472e+06 -4.57856e+06 -5.07144e+06 -265311 726867 54002.2
182 3 O 3.14612 34.1641 55.6582 -1.2 -10.2317 -2.09053e+06 -3.49746e+06 -4.80468e+06 444886 -326975 -2.1171e+06
183 1 Mg 0.167046 33.1343 52.2045 1.2 -7.8008 -535117 -2.49007e+06 5.47258e+06 -437571 1.69218e+06 512074
184 1 Mg 2.20727 32.8578 49.4516 1.2 -7.72491 2.13663e+06 -429671 1.15038e+06 87754.3 -101819 570738
185 2 Si 1.67943 35.1802 51.2429 2.4 -32.7017 7.63087e+06 3.24389e+06 1.20893e+07 175397 141163 804800
186 3 O 1.78736 36.747 51.303 -1.2 -10.0264 -2.85705e+06 -1.2481e+06 -4.42112e+06 500438 -318744 275907
187 3 O 1.95307 33.9172 58.0487 -1.2 -9.81706 -2.58904e+06 -3.90501e+06 -3.00343e+06 -520783 -2.13748e+06 -1.55581e+06
188 3 O 0.362533 34.5479 50.661 -1.2 -9.03593 -3.02159e+06 -1.70133e+06 -5.78153e+06 995316 -574418 -455015
189 1 Mg -2.80215 33.1347 52.3062 1.2 -7.5707 -752793 -2.57351e+06 5.1589e+06 788135 -1.89187e+06 245022
190 3 O 2.91593 34.533 50.466 -1.2 -9.49567 -2.89772e+06 -1.40289e+06 -3.29983e+06 -172235 741218 -447693
191 1 Mg -1.17954 33.2487 55.2036 1.2 -8.14086 538880 90175.3 2.29392e+06 524711 1.42719e+06 -329168
192 2 Si -1.36011 31.0489 53.2582 2.4 -33.2208 4.67271e+06 1.51751e+06 1.54783e+07 837196 -1.41704e+06 980631
193 3 O -1.38962 29.5889 53.0877 -1.2 -9.97944 -1.54625e+06 -5.12474e+06 -6.75503e+06 748182 1.5353e+06 -281022
194 3 O -0.842495 32.4028 46.4192 -1.2 -7.88595 -2.62262e+06 -1.3073e+06 -3.80873e+06 -606304 -1.502e+06 575788
195 3 O -2.63905 31.671 54.0647 -1.2 -8.55069 -3.02657e+06 -2.08778e+06 -3.98462e+06 -902291 -93900.7 682498
196 3 O -0.228061 31.8996 53.9754 -1.2 -8.87045 -4.63198e+06 -1.95215e+06 -6.22646e+06 883143 -903768 -38043.8
197 1 Mg -2.34336 40.1907 57.5573 1.2 -6.85319 -1.98747e+06 -1.49682e+06 5.20654e+06 -213372 -1.1713e+06 930167
198 1 Mg -1.17787 40.1435 49.8359 1.2 -8.14856 201679 1.54545e+06 2.81917e+06 -206028 107689 685467
199 2 Si -0.702692 37.6572 47.9231 2.4 -33.9235 7.87148e+06 5.24092e+06 1.15455e+07 472086 2.30348e+06 -105821
200 3 O -0.621782 39.2264 47.9868 -1.2 -8.96788 -2.13353e+06 -3.54094e+06 -3.78213e+06 469185 -1.9033e+06 -273424
201 3 O -1.25221 36.5242 51.7666 -1.2 -9.20696 -2.14727e+06 -849417 -5.96065e+06 1.0711e+06 -429157 -1.45129e+06
202 3 O -1.87295 37.0796 48.8243 -1.2 -8.99048 -761188 -2.70696e+06 -4.45778e+06 26565.8 -377567 -1.44072e+06
203 1 Mg 0.341084 35.5943 46.8152 1.2 -6.80168 1.7296e+06 -1.18459e+06 1.87412e+06 1.124e+06 1.58495e+06 -537432
204 3 O 0.760681 37.0138 48.3864 -1.2 -8.8897 -1.35273e+06 -751502 -3.13472e+06 -295825 -306159 629121
205 1 Mg 1.53704 35.4554 54.6258 1.2 -7.50922 416670 726403 1.27591e+06 1.26838e+06 -1.61585e+06 2.34675e+06
206 2 Si 2.06025 38.1277 56.3739 2.4 -32.48 6.84433e+06 1.79065e+06 1.42397e+07 1.073e+06 120984 1.79645e+06
207 3 O 1.9382 36.5567 56.579 -1.2 -10.256 -5.50656e+06 200848 -5.62866e+06 -135094 763567 -368168
208 3 O 1.85132 39.2606 52.7264 -1.2 -9.67555 -2.00818e+06 -56247.2 -6.39155e+06 286165 423009 48743.3
209 3 O 0.953222 38.6734 55.4086 -1.2 -9.53252 -929419 -138941 -5.42529e+06 -79422.7 563838 -642089
210 3 O 3.5123 38.6502 56.0016 -1.2 -9.28725 -2.69673e+06 -377217 -7.25966e+06 1.1655e+06 234573 -1.84431e+06
211 1 Mg 0.272384 37.8883 52.2029 1.2 -7.40289 -287326 -1.30259e+06 5.17365e+06 -1.05837e+06 2.02581e+06 930955
212 1 Mg 2.31122 37.6122 49.4501 1.2 -7.63113 1.91522e+06 -256874 1.05761e+06 148596 -126812 351388
213 2 Si 1.78573 39.934 51.2414 2.4 -32.0852 6.92013e+06 3.63923e+06 1.13803e+07 441090 782962 -26787.9
214 3 O 1.89428 41.5006 51.3014 -1.2 -10.3698 -2.4505e+06 -1.88254e+06 -3.84108e+06 712287 -677972 33366.7
215 3 O 1.98748 38.9478 57.8017 -1.2 -9.95617 -3.52096e+06 342951 -5.92855e+06 1.23995e+06 2.14387e+06 -337484
216 3 O 0.469216 39.3015 50.6588 -1.2 -9.29207 -2.93699e+06 -1.68361e+06 -5.42266e+06 1.16301e+06 -582611 -263849
217 1 Mg -2.69668 37.8889 52.3043 1.2 -7.42376 -792610 -1.91823e+06 5.15015e+06 1.71553e+06 -1.85868e+06 1.08264e+06
218 3 O 3.0225 39.2866 50.4651 -1.2 -9.64479 -2.4456e+06 -1.58335e+06 -3.34367e+06 -362878 627667 -461205
219 1 Mg -0.891514 37.8811 55.042 1.2 -7.75571 1.41182e+06 -261477 2.38806e+06 -74982.9 -205339 -506686
220 2 Si -1.28494 35.7695 53.2509 2.4 -32.3249 5.20578e+06 5.56822e+06 1.27441e+07 -1.04523e+06 -1.59712e+06 594227
221 3 O -1.32034 34.1286 53.0942 -1.2 -9.48436 -3.60072e+06 -1.74756e+06 -5.45626e+06 -91003.2 224506 710644
222 3 O -0.738054 37.1566 46.4176 -1.2 -7.93917 -2.54094e+06 -1.34447e+06 -3.77243e+06 -604430 -1.50318e+06 752927
223 3 O -2.42876 36.597 53.9617 -1.2 -9.46711 -1.64256e+06 -741058 -5.08729e+06 -336277 694382 -402534
224 3 O 0.0382293 36.2707 53.832 -1.2 -9.60711 -5.45452e+06 -2.3428e+06 -6.51158e+06 1.56372e+06 -1.46441e+06 -1.13196e+06
225 1 Mg -2.25953 45.0708 57.3615 1.2 -6.71554 -2.12915e+06 -3.33998e+06 6.15866e+06 -1.39862e+06 -1.26913e+06 -942451
226 1 Mg -1.06993 44.8968 49.8343 1.2 -8.21714 117997 1.06712e+06 3.48103e+06 -208225 56364.3 1.33346e+06
227 2 Si -0.596166 42.4103 47.9215 2.4 -33.6994 7.52377e+06 5.47042e+06 1.13101e+07 477626 2.25894e+06 368862
228 3 O -0.51472 43.9796 47.9853 -1.2 -9.04887 -1.99451e+06 -3.41082e+06 -3.92312e+06 471512 -1.87954e+06 -572387
229 3 O -1.14475 41.2777 51.7649 -1.2 -9.55406 -1.44712e+06 -3.50164e+06 -6.72419e+06 496278 860906 -1.09633e+06
230 3 O -1.76671 41.8331 48.8226 -1.2 -9.12568 -490345 -2.97996e+06 -4.23429e+06 10432.6 -337135 -1.65016e+06
231 1 Mg 0.447076 40.3473 46.8135 1.2 -6.6991 1.57592e+06 -1.03836e+06 1.71703e+06 1.1232e+06 1.5851e+06 -540408
232 3 O 0.866985 41.7666 48.385 -1.2 -9.02397 -1.17831e+06 -961963 -2.87936e+06 -285878 -319030 433041
233 1 Mg 1.87869 40.6283 54.4935 1.2 -7.0315 -1.2089e+06 1.62972e+06 1.84239e+06 1.3256e+06 -556714 584956
234 2 Si 2.131 42.937 56.5367 2.4 -30.8502 3.62551e+06 2.43739e+06 1.35204e+07 -619814 -488081 2.42676e+06
235 3 O 2.09087 41.4532 56.4325 -1.2 -11.1079 -923005 -3.47371e+06 -3.11911e+06 -106022 424038 -920742
236 3 O 1.95891 44.014 52.7248 -1.2 -9.90006 -2.20019e+06 -1.22653e+06 -5.14538e+06 -618963 -929124 -1.38644e+06
237 3 O 0.838397 43.7421 55.907 -1.2 -10.1287 -166022 -1.66192e+06 -5.45636e+06 -1.96572e+06 -627384 -1.9815e+06
238 3 O 3.41061 43.6985 55.9455 -1.2 -10.1025 -262499 -2.58079e+06 -6.32122e+06 1.87234e+06 809969 -1.75397e+06
239 1 Mg 0.379928 42.6418 52.2013 1.2 -6.99101 -1.04437e+06 -2.06922e+06 4.24695e+06 -1.19601e+06 2.08558e+06 1.28934e+06
240 1 Mg 2.41752 42.366 49.4484 1.2 -7.49142 1.66705e+06 17572.7 814761 128042 -55707.1 685145
241 2 Si 1.89374 44.6874 51.2398 2.4 -32.217 7.92509e+06 2.71015e+06 1.1504e+07 584173 1.37464e+06 1.70406e+06
242 3 O 2.00266 46.254 51.2996 -1.2 -10.2536 -2.96437e+06 -980265 -4.21982e+06 860965 -1.08462e+06 -197162
243 3 O 2.06358 43.6678 58.0156 -1.2 -9.83461 -1.85665e+06 464570 -8.25942e+06 430208 -340138 1.15715e+06
244 3 O 0.577464 44.0549 50.6567 -1.2 -9.30361 -3.04922e+06 -1.6463e+06 -5.26148e+06 1.35345e+06 -515184 -1.06377e+06
245 1 Mg -2.58906 42.6425 52.3022 1.2 -7.13015 -1.94163e+06 -1.64478e+06 3.63388e+06 1.88963e+06 -1.80873e+06 2.22602e+06
246 3 O 3.13067 44.0398 50.464 -1.2 -9.65793 -2.32407e+06 -1.61057e+06 -3.29481e+06 -506057 601122 -1.28986e+06
247 1 Mg -0.916265 42.7274 55.1064 1.2 -6.86895 1.15361e+06 -480891 3.0687e+06 -64800.9 699530 54305.6
248 2 Si -1.04768 40.6832 53.2438 2.4 -31.2196 3.48673e+06 5.69744e+06 1.22713e+07 -1.47783e+06 3821.34 1.05475e+06
249 3 O -1.19005 39.1047 53.1336 -1.2 -10.1561 -1.80109e+06 985878 -5.30569e+06 -393109 319228 1.3709e+06
250 3 O -0.631421 41.9099 46.4159 -1.2 -8.03918 -2.38292e+06 -1.42185e+06 -3.6919e+06 -604041 -1.49705e+06 663168
251 3 O -2.33125 41.5552 53.8799 -1.2 -9.99397 261412 -2.39932e+06 -6.62207e+06 -1.75766e+06 1.25616e+06 727200
252 3 O 0.20578 41.3388 53.8787 -1.2 -10.6452 -3.04823e+06 -2.87725e+06 -4.70002e+06 1.94678e+06 -1.65995e+06 245146
253 1 Mg -2.10576 49.6836 57.3465 1.2 -6.97869 -799131 -1.79248e+06 6.22895e+06 -118401 -1.72973e+06 406324
254 1 Mg -0.961069 49.6502 49.8327 1.2 -7.73404 -219767 1.23021e+06 2.87825e+06 -120909 215320 1.07669e+06
255 2 Si -0.488083 47.1636 47.9198 2.4 -33.4372 7.11887e+06 4.96993e+06 1.17929e+07 516254 2.24442e+06 -12425.3
256 3 O -0.40607 48.7329 47.9837 -1.2 -9.25942 -1.69108e+06 -3.39012e+06 -3.91101e+06 447046 -1.91686e+06 -337408
257 3 O -1.0361 46.031 51.7632 -1.2 -8.85122 -945733 -414451 -2.83103e+06 198058 1.44198e+06 -2.16919e+06
258 3 O -1.65866 46.5866 48.821 -1.2 -9.19679 -330227 -2.5221e+06 -4.76046e+06 35231.4 -349283 -1.50241e+06
259 1 Mg 0.554124 45.1001 46.8117 1.2 -6.603 1.42906e+06 -1.21957e+06 1.89199e+06 1.12314e+06 1.57712e+06 -468113
260 3 O 0.974961 46.5195 48.3832 -1.2 -9.11918 -1.05124e+06 -595787 -3.22872e+06 -308136 -300861 501458
261 1 Mg 1.98622 45.1451 54.5788 1.2 -7.36889 -1.55464e+06 -297977 2.82317e+06 -29301.2 -522233 841372
262 2 Si 1.99916 47.5975 56.4684 2.4 -31.1235 6.65507e+06 2.28753e+06 1.50865e+07 197960 -1.6082e+06 1.7326e+06
263 3 O 2.07563 46.0429 56.3966 -1.2 -10.5472 -2.05831e+06 -3.50312e+06 -5.95319e+06 -914691 893258 -1.3164e+06
264 3 O 2.0677 48.7672 52.7232 -1.2 -9.88578 -1.54957e+06 -889149 -5.53057e+06 347644 -1.15748e+06 -1.88267e+06
265 3 O 0.80416 48.393 55.8841 -1.2 -10.0964 -3.01758e+06 -1.31927e+06 -5.61396e+06 -560422 -320656 -216720
266 3 O 3.38917 48.3189 55.7169 -1.2 -9.57251 2.07232e+06 837701 -4.91509e+06 1.21253e+06 -254363 -1.07609e+06
267 1 Mg 0.488584 47.395 52.1996 1.2 -6.86381 -104760 -1.67945e+06 5.04695e+06 -638520 1.80742e+06 2.07251e+06
268 1 Mg 2.52544 47.1195 49.4466 1.2 -7.39069 1.49459e+06 -410091 1.25635e+06 44581.5 -10404.1 513399
269 2 Si 2.00256 49.4407 51.2382 2.4 -31.5262 4.80374e+06 2.96377e+06 1.32383e+07 -14857.5 862501 1.69971e+06
270 3 O 2.11156 51.0073 51.2982 -1.2 -10.5926 -1.43547e+06 -1.15768e+06 -5.17016e+06 704449 -981384 -90895.4
271 3 O 2.16719 48.1888 58.0275 -1.2 -9.86903 -1.88095e+06 -76503.8 -4.74064e+06 1.34719e+06 -620972 1.64024e+06