ITEM: TIMESTEP
54800
ITEM: NUMBER OF ATOMS
10500
ITEM: BOX BOUNDS xy xz yz pp pp pp
0.0000000000000000e+00 8.9687999999999999e+00 2.9895999999999998e+00
0.0000000000000000e+00 1.1872499999999999e+02 0.0000000000000000e+00
0.0000000000000000e+00 2.5297749999999999e+02 0.0000000000000000e+00
ITEM: ATOMS id type element xu yu zu q c_pe c_s[1] c_s[2] c_s[3] c_s[4] c_s[5] c_s[6]
1 1 Mg -2.9839 6.93989 57.2962 1.2 -7.81876 360986 -1.67112e+06 4.23047e+06 -1.54189e+06 -1.43385e+06 -702162
2 1 Mg -1.82655 6.90154 50.0912 1.2 -8.39371 526101 1.45692e+06 669825 -100995 29245.6 1.05435e+06
3 2 Si -0.257935 3.96038 48.0876 2.4 -36.9564 1.14211e+07 9.02118e+06 1.06231e+07 828768 1.97683e+06 604101
4 3 O -0.335812 5.46814 47.6264 -1.2 -7.44358 -3.61189e+06 -2.73925e+06 -2.27869e+06 139163 -981848 -53351
5 3 O -2.03793 3.43377 51.8941 -1.2 -8.34523 -3.9492e+06 -3.60833e+06 -5.53067e+06 -561076 1.32547e+06 -1.31511e+06
6 3 O -1.54015 3.53929 48.9521 -1.2 -7.78731 -2.10383e+06 -1.74279e+06 -4.23086e+06 13165.7 -767506 391935
7 1 Mg 1.82954 2.54582 47.1376 1.2 -8.46807 3.37975e+06 -566406 804975 1.14478e+06 830923 123265
8 3 O 1.22989 3.66364 48.7877 -1.2 -7.52431 -2.44805e+06 -2.48353e+06 -3.57206e+06 -472219 -688864 -400932
9 1 Mg 0.979084 2.1918 54.6258 1.2 -9.10689 3.79891e+06 1.60444e+06 1.00238e+06 426507 -175380 482128
10 2 Si 1.34362 4.80485 56.5057 2.4 -33.737 8.85766e+06 5.74906e+06 1.09084e+07 217291 -809364 -164271
11 3 O 1.04749 3.15936 56.5479 -1.2 -8.9563 -4.14572e+06 -503455 -4.88277e+06 2.0057e+06 -384984 -383883
12 3 O 1.10813 6.07342 52.8172 -1.2 -8.62395 -3.11263e+06 -4.10999e+06 -3.88362e+06 742036 -98530.5 -1.69139e+06
13 3 O 0.0206056 5.51647 56.016 -1.2 -8.57643 -3.41638e+06 -3.10052e+06 -5.35519e+06 27641.7 136223 462009
14 3 O 2.49873 5.55825 55.7364 -1.2 -8.96299 -4.51972e+06 -3.76742e+06 -4.18789e+06 1.51755e+06 608665 -484253
15 1 Mg -0.459401 4.67631 52.2426 1.2 -8.44392 -302137 -643453 4.77411e+06 -948723 1.68335e+06 838335
16 1 Mg 2.79456 3.9971 49.9987 1.2 -8.86292 4.48635e+06 99978.6 1.37214e+06 -582876 795801 -1.47449e+06
17 2 Si 1.16169 6.59457 51.2556 2.4 -34.1126 7.19958e+06 6.90661e+06 1.19003e+07 -37531.4 -296281 2.4604e+06
18 3 O 1.28989 8.18905 51.2909 -1.2 -9.3858 -2.79201e+06 -1.78813e+06 -3.75319e+06 54936.6 -539075 1.20159e+06
19 3 O 1.4423 5.33595 57.9927 -1.2 -8.76136 -4.57996e+06 -2.7363e+06 -7.91005e+06 623472 -2.69795e+06 1.7622e+06
20 3 O -0.184847 6.06029 50.6845 -1.2 -8.40236 -3.07305e+06 -3.54161e+06 -5.18459e+06 1.43073e+06 -467151 -1.20365e+06
21 1 Mg -3.49704 4.67769 52.6661 1.2 -8.0083 707898 -2.78118e+06 2.25991e+06 2.29174e+06 -1.49577e+06 1.5838e+06
22 3 O 2.48581 5.93312 50.6539 -1.2 -9.07619 -3.67312e+06 -1.82032e+06 -2.47085e+06 -1.48625e+06 -229012 -396018
23 1 Mg -1.73374 4.62948 55.2388 1.2 -8.70082 2.6926e+06 1.68974e+06 -52376.8 146413 600530 -529544
24 2 Si -1.99876 2.69821 53.3101 2.4 -34.7019 1.04696e+07 6.04555e+06 1.24988e+07 -407462 533386 285528
25 3 O -1.90301 1.0865 53.0509 -1.2 -7.96376 -5.06104e+06 -816994 -5.3617e+06 83619.8 -677207 2.07005e+06
26 3 O -0.0467762 2.97103 46.8385 -1.2 -6.56287 -3.6774e+06 -2.13958e+06 -2.89069e+06 -992758 -2.00046e+06 -204033
27 3 O -3.23507 3.37016 54.0574 -1.2 -8.6088 -3.5571e+06 -2.48238e+06 -5.8388e+06 -421934 -200265 642672
28 3 O -0.664253 3.21147 54.1025 -1.2 -8.35853 -2.58612e+06 -3.28649e+06 -3.1932e+06 880074 477767 -31653.4
29 1 Mg -3.05677 11.8046 57.1426 1.2 -7.98222 -350959 -377219 2.84953e+06 -998548 -1.33451e+06 -290088
30 1 Mg -1.75014 11.5838 49.8362 1.2 -8.53776 1.00307e+06 2.48655e+06 1.88862e+06 -389655 156821 618666
31 2 Si -1.18003 9.02138 47.9309 2.4 -34.8363 9.0978e+06 8.18712e+06 8.73576e+06 207562 2.65511e+06 -391693
32 3 O -1.23224 10.5991 47.9811 -1.2 -8.53728 -2.79806e+06 -4.11168e+06 -2.2534e+06 668650 -1.91917e+06 336053
33 3 O -1.79016 8.01447 51.8693 -1.2 -9.24821 -2.902e+06 -1.99233e+06 -4.07871e+06 801123 -769701 -1.57247e+06
34 3 O -2.30986 8.37215 48.8528 -1.2 -8.77368 -1.40763e+06 -3.01994e+06 -2.81629e+06 -317272 -639770 -488548
35 1 Mg 0.154883 7.08234 46.8007 1.2 -7.81264 2.34242e+06 242615 414997 943869 1.72636e+06 -1.42543e+06
36 3 O 0.325447 8.50934 48.3809 -1.2 -8.39966 -1.73144e+06 -2.46613e+06 -2.28731e+06 -39416.8 -824881 760250
37 1 Mg 1.15256 6.9871 54.8026 1.2 -8.90412 3.32648e+06 914855 -188450 71415.6 114158 322858
38 2 Si 1.44711 9.62384 56.3181 2.4 -34.3334 8.62099e+06 3.55416e+06 9.50211e+06 258448 416961 1.17093e+06
39 3 O 1.38819 8.13745 56.3679 -1.2 -9.11077 -5.24839e+06 -4.47491e+06 -6.10115e+06 79958.3 54830.8 -2.50265e+06
40 3 O 1.28624 10.7248 52.7351 -1.2 -9.41012 -2.58843e+06 -2.87533e+06 -5.05342e+06 -598201 -372168 -600791
41 3 O 0.227132 10.4076 55.6998 -1.2 -8.7231 -4.19775e+06 -3.7059e+06 -4.01791e+06 -239278 -1.72547e+06 74653
42 3 O 2.69207 10.4014 55.6786 -1.2 -8.63805 -5.81265e+06 -3.98987e+06 -6.4683e+06 1.62975e+06 901619 -672855
43 1 Mg -0.262694 9.34741 52.2523 1.2 -7.93256 -358125 -262834 4.93666e+06 -1.3601e+06 1.55456e+06 85788.6
44 1 Mg 1.87648 9.01537 49.4629 1.2 -8.03571 2.25389e+06 981488 -145513 298327 -344071 -47143
45 2 Si 1.21415 11.3799 51.2378 2.4 -33.0253 7.8796e+06 6.21569e+06 9.74247e+06 842095 968506 234934
46 3 O 1.31634 12.9512 51.3023 -1.2 -9.71865 -3.31208e+06 -2.00737e+06 -3.7258e+06 709858 -924020 647817
47 3 O 1.49614 10.2679 57.798 -1.2 -8.76326 -3.82394e+06 -2.40459e+06 -6.83124e+06 -634921 -816767 623564
48 3 O -0.115718 10.7564 50.681 -1.2 -8.89427 -3.1387e+06 -2.9353e+06 -4.15315e+06 1.19971e+06 -616412 -127824
49 1 Mg -3.26386 9.35564 52.3622 1.2 -7.60744 378686 -1.00769e+06 4.04739e+06 2.2168e+06 -1.63367e+06 693939
50 3 O 2.45216 10.7265 50.4558 -1.2 -9.3418 -2.80242e+06 -2.46618e+06 -1.77792e+06 -883342 598512 77607.2
51 1 Mg -1.66265 9.55772 55.1463 1.2 -8.64463 2.03658e+06 1.28792e+06 110037 472194 399840 -322899
52 2 Si -1.93638 7.2893 53.3487 2.4 -33.4478 1.20814e+07 4.46609e+06 1.17069e+07 -10352.8 -419689 1.06429e+06
53 3 O -1.80849 5.76705 53.3366 -1.2 -9.38199 -4.42412e+06 -3.05014e+06 -4.22179e+06 -1.1038e+06 602580 -764416
54 3 O -1.19417 8.46968 46.4488 -1.2 -7.37617 -3.14705e+06 -2.47444e+06 -2.51573e+06 -539350 -1.74924e+06 1.20538e+06
55 3 O -3.20271 8.03115 54.0463 -1.2 -8.73464 -3.27083e+06 -1.69528e+06 -3.40181e+06 -1.30294e+06 -384060 -159936
56 3 O -0.557191 7.97404 54.1212 -1.2 -8.16066 -595269 -2.38222e+06 -2.94366e+06 1.46283e+06 912634 -617658
57 1 Mg -3.1783 16.5467 57.3462 1.2 -7.98109 -12048.8 -1.30048e+06 3.4251e+06 -1.4941e+06 -1.43986e+06 -1.65487e+06
58 1 Mg -1.6714 16.3544 49.8412 1.2 -8.57773 992105 2.36639e+06 1.95557e+06 -145394 308939 474828
59 2 Si -1.18567 13.8526 47.9314 2.4 -34.6468 9.09822e+06 7.23205e+06 9.41265e+06 512638 2.22862e+06 -711093
60 3 O -1.09664 15.4205 47.9915 -1.2 -8.5703 -2.70216e+06 -4.35253e+06 -2.74084e+06 415262 -1.93325e+06 1783.88
61 3 O -1.73493 12.7491 51.7772 -1.2 -9.02243 -2.89179e+06 -1.77541e+06 -4.98045e+06 281335 1.64336e+06 -965972
62 3 O -2.36115 13.2717 48.8238 -1.2 -8.66164 -1.3419e+06 -3.57393e+06 -3.39572e+06 -113675 -326283 -1.04317e+06
63 1 Mg -0.159928 11.7639 46.8533 1.2 -7.18683 2.3836e+06 -42513.9 684717 1.12688e+06 1.5742e+06 -1.12375e+06
64 3 O 0.2623 13.1866 48.413 -1.2 -8.56597 -1.9059e+06 -1.64513e+06 -2.10721e+06 -196517 -307823 985022
65 1 Mg 1.35074 11.801 54.4505 1.2 -8.3983 1.38296e+06 2.75728e+06 209900 -91894.5 -464377 512882
66 2 Si 1.58564 14.5166 56.3656 2.4 -33.863 4.71174e+06 1.19213e+06 1.11259e+07 -726212 703663 1.4837e+06
67 3 O 1.45408 13.0491 56.3977 -1.2 -9.00279 -3.61166e+06 -6.85489e+06 -4.662e+06 951132 -437324 -1.0666e+06
68 3 O 1.36565 15.4813 52.729 -1.2 -9.3544 -3.13453e+06 -2.24837e+06 -4.52462e+06 1.06177e+06 145006 -324927
69 3 O 0.287391 15.1806 55.8032 -1.2 -8.87461 -3.36763e+06 -4.41579e+06 -5.04816e+06 917430 -1.18806e+06 1.06625e+06
70 3 O 2.72264 15.2331 55.7195 -1.2 -9.33715 -6.5795e+06 -3.75975e+06 -5.6659e+06 -1.08761e+06 1.71209e+06 454373
71 1 Mg -0.206989 14.1049 52.2121 1.2 -7.64949 264982 -736670 4.22916e+06 -1.62617e+06 1.89334e+06 1.16596e+06
72 1 Mg 1.82591 13.8102 49.4556 1.2 -7.97997 2.3983e+06 881561 54297.4 100262 -62445.9 72806.1
73 2 Si 1.29285 16.1518 51.2434 2.4 -33.0782 8.19843e+06 5.50843e+06 9.87591e+06 -136552 -137178 -202896
74 3 O 1.39496 17.7199 51.3047 -1.2 -9.75922 -3.15867e+06 -2.38818e+06 -3.30513e+06 533662 -330931 581665
75 3 O 1.61459 15.0391 57.9381 -1.2 -8.22971 -4.46501e+06 -5.05886e+06 -7.57902e+06 -236177 -546650 986672
76 3 O -0.0269106 15.5178 50.6688 -1.2 -8.87346 -3.20289e+06 -2.64198e+06 -4.50238e+06 1.22938e+06 -729288 -331300
77 1 Mg -3.18391 14.1057 52.3125 1.2 -7.82548 -574951 -813440 3.5494e+06 1.73342e+06 -1.74924e+06 710564
78 3 O 2.52432 15.503 50.4579 -1.2 -9.28846 -3.09998e+06 -2.45995e+06 -2.06758e+06 -335628 780327 34095.9
79 1 Mg -1.46848 14.1626 55.1014 1.2 -8.1196 3.37626e+06 1.25873e+06 443974 151766 553544 -1.13999e+06
80 2 Si -1.59497 12.064 53.2669 2.4 -32.5994 7.88036e+06 6.0922e+06 1.0869e+07 -830770 1.17644e+06 -618786
81 3 O -1.64954 10.5211 53.2687 -1.2 -9.79612 -3.2162e+06 -2.20695e+06 -4.22901e+06 1.29383e+06 560114 954620
82 3 O -1.21337 13.3381 46.4311 -1.2 -7.52382 -3.27688e+06 -2.32866e+06 -2.71184e+06 -631970 -1.44961e+06 1.15294e+06
83 3 O -2.98359 12.7973 53.8387 -1.2 -8.9152 -795833 -2.87738e+06 -5.60251e+06 -1.44326e+06 1.21376e+06 915992
84 3 O -0.356697 12.8708 53.9132 -1.2 -9.58699 -2.0413e+06 -2.04407e+06 -4.16237e+06 941417 -630250 591749
85 1 Mg -2.86173 21.1753 57.3966 1.2 -7.59102 49.1184 -1.41304e+06 4.27049e+06 -186483 -1.35759e+06 -1.28702e+06
86 1 Mg -1.5831 21.1217 49.8405 1.2 -8.73399 1.30092e+06 2.08512e+06 2.13965e+06 -191898 343052 624857
87 2 Si -1.09384 18.6291 47.9287 2.4 -34.7797 9.25286e+06 7.18808e+06 9.57603e+06 497747 2.36021e+06 -402361
88 3 O -1.02071 20.1985 47.9911 -1.2 -8.46831 -2.9164e+06 -4.2891e+06 -2.92834e+06 455251 -1.95158e+06 -124279
89 3 O -1.65002 17.5002 51.771 -1.2 -9.11006 -2.25067e+06 -3.08825e+06 -4.93715e+06 712329 109802 -125269
90 3 O -2.26174 18.0434 48.8281 -1.2 -8.62166 -1.43326e+06 -3.65331e+06 -3.373e+06 -14193.2 -399607 -1.16342e+06
91 1 Mg -0.0440435 16.5651 46.8269 1.2 -7.19164 2.31906e+06 -66445.3 765083 1.13391e+06 1.57893e+06 -830224
92 3 O 0.37001 17.9877 48.3925 -1.2 -8.49954 -1.94785e+06 -1.77047e+06 -2.14839e+06 -289814 -316725 809339
93 1 Mg 1.59686 16.5221 54.5176 1.2 -8.02797 1.92837e+06 1.63986e+06 579424 -410900 1.0792e+06 1.00763e+06
94 2 Si 1.3669 19.2832 56.2793 2.4 -33.6162 6.9804e+06 5.576e+06 1.00497e+07 -939213 -252634 -2.54483e+06
95 3 O 1.56127 17.7827 56.4294 -1.2 -9.2686 -3.63411e+06 -4.37657e+06 -5.34371e+06 -384405 97581.8 -1.78041e+06
96 3 O 1.45147 20.239 52.7294 -1.2 -8.99592 -3.33878e+06 -2.72673e+06 -4.27209e+06 71426.7 -964762 -734679
97 3 O 0.0731229 20.1136 55.8409 -1.2 -9.16081 -2.82947e+06 -1.19097e+06 -4.0046e+06 -928527 -1.64731e+06 875477
98 3 O 2.61572 20.0767 55.6719 -1.2 -8.81929 -2.3838e+06 -4.83217e+06 -5.52317e+06 1.4804e+06 2.40712e+06 1.33444e+06
99 1 Mg -0.126194 18.8651 52.2079 1.2 -7.87344 -486201 149905 4.40554e+06 -1.1576e+06 1.75179e+06 404999
100 1 Mg 1.92402 18.5815 49.4545 1.2 -8.03131 2.51454e+06 807372 -32.7488 107250 -196359 197910
101 2 Si 1.38106 20.9117 51.2443 2.4 -33.6505 8.8072e+06 5.16644e+06 1.06027e+07 214194 251595 522026
102 3 O 1.48527 22.4795 51.3054 -1.2 -9.35851 -3.83504e+06 -1.93641e+06 -4.40136e+06 642385 -318079 639834
103 3 O 1.49006 19.7747 57.7992 -1.2 -8.66295 -2.6154e+06 -5.21113e+06 -7.20578e+06 -189975 857509 1.74501e+06
104 3 O 0.0615419 20.2804 50.6669 -1.2 -8.66237 -3.39451e+06 -2.65689e+06 -4.89298e+06 1.15868e+06 -647477 -468026
105 1 Mg -3.09665 18.8643 52.3122 1.2 -7.56389 76185.4 -1.47483e+06 3.06039e+06 1.90835e+06 -1.8995e+06 1.63199e+06
106 3 O 2.61548 20.2646 50.4626 -1.2 -9.17015 -3.38176e+06 -2.29324e+06 -2.15355e+06 -342180 935917 -394061
107 1 Mg -1.70998 19.0346 55.1603 1.2 -8.12409 1.90549e+06 1.46674e+06 495982 497596 -34146.6 -894948
108 2 Si -1.73495 16.8886 53.2661 2.4 -32.9816 6.90969e+06 4.29899e+06 1.10478e+07 626034 1.1654e+06 -293956
109 3 O -1.77168 15.368 53.2407 -1.2 -9.52726 -3.36453e+06 -3.13606e+06 -4.02861e+06 -1.39755e+06 344762 1.0789e+06
110 3 O -1.12868 18.1227 46.4249 -1.2 -7.49699 -3.26819e+06 -2.32056e+06 -2.76513e+06 -605154 -1.50044e+06 954084
111 3 O -2.91726 17.6812 53.8836 -1.2 -9.59694 -4.91185e+06 -4.36479e+06 -5.68446e+06 -577042 1.51384e+06 993814
112 3 O -0.346166 17.4628 53.9929 -1.2 -8.87163 442168 -2.5982e+06 -1.80497e+06 854261 207110 778122
113 1 Mg -2.88577 26.0694 57.4365 1.2 -7.48052 -471343 -874683 4.20558e+06 -2.1142e+06 -2.1124e+06 -575619
114 1 Mg -1.48778 25.88 49.8402 1.2 -8.68794 1.19773e+06 2.32034e+06 1.91503e+06 -204711 224136 430522
115 2 Si -1.00491 23.3922 47.9274 2.4 -34.9103 9.47746e+06 6.91723e+06 9.84004e+06 483795 2.36017e+06 -687406
116 3 O -0.927602 24.9615 47.9909 -1.2 -8.44148 -2.9798e+06 -4.35282e+06 -2.91648e+06 465501 -1.93665e+06 62830.2
117 3 O -1.55795 22.2588 51.7696 -1.2 -8.65332 -4.15936e+06 -2.40088e+06 -5.63437e+06 505955 -901002 -713267
118 3 O -2.17411 22.8111 48.8277 -1.2 -8.51665 -1.60515e+06 -3.47387e+06 -3.58006e+06 14942.8 -375273 -1.10137e+06
119 1 Mg 0.0423997 21.3296 46.8225 1.2 -7.25037 2.43247e+06 -242269 934866 1.1271e+06 1.59057e+06 -783580
120 3 O 0.458537 22.7495 48.3911 -1.2 -8.4077 -2.09119e+06 -1.58179e+06 -2.34326e+06 -298140 -327798 904320
121 1 Mg 1.25284 21.4179 54.5342 1.2 -8.49181 1.35502e+06 764086 1.42225e+06 772951 -973817 509530
122 2 Si 1.79804 23.9269 56.3841 2.4 -33.2485 5.88388e+06 2.91611e+06 1.12667e+07 -291507 -307763 1.4417e+06
123 3 O 1.56669 22.4144 56.6118 -1.2 -9.20754 -3.29408e+06 -5.31454e+06 -3.54627e+06 1.24433e+06 322146 -370270
124 3 O 1.54441 24.9963 52.7297 -1.2 -8.99264 -3.10401e+06 -2.44364e+06 -4.25394e+06 426216 -16748.5 -8009.51
125 3 O 0.501874 24.4936 55.6722 -1.2 -9.07956 -3.91364e+06 -3.56008e+06 -4.6735e+06 1686.55 -355212 325219
126 3 O 2.96331 24.5115 55.6946 -1.2 -9.08499 -6.11603e+06 -3.45798e+06 -5.17197e+06 -855319 917457 597628
127 1 Mg -0.0335968 23.6229 52.2067 1.2 -8.22064 -20328 -1.11617e+06 3.65916e+06 -1.08473e+06 2.12413e+06 855723
128 1 Mg 2.01073 23.3445 49.4541 1.2 -8.14601 2.67079e+06 555529 287846 130983 -211933 -15837.2
129 2 Si 1.47594 25.6699 51.2449 2.4 -33.425 8.39717e+06 5.52091e+06 1.02008e+07 269015 306837 -479083
130 3 O 1.58172 27.2371 51.3054 -1.2 -9.683 -3.47712e+06 -2.35369e+06 -3.182e+06 687064 -44642.6 758422
131 3 O 1.72969 24.6202 57.9236 -1.2 -9.3183 -2.19914e+06 -2.05275e+06 -3.94145e+06 -470978 -773811 -855207
132 3 O 0.157925 25.0378 50.6651 -1.2 -8.72648 -3.42088e+06 -2.74317e+06 -4.58324e+06 1.16503e+06 -874103 68230.5
133 1 Mg -3.00341 23.6231 52.3098 1.2 -7.92329 431785 -1.43254e+06 3.83799e+06 2.00752e+06 -1.92116e+06 1.02483e+06
134 3 O 2.71149 25.0232 50.4656 -1.2 -9.14518 -3.27306e+06 -2.43187e+06 -2.17199e+06 -403469 959512 -81773.8
135 1 Mg -1.20325 23.7264 55.0888 1.2 -8.34828 2.06837e+06 420107 1.44893e+06 -439242 -504212 -1.36493e+06
136 2 Si -1.62163 21.6265 53.2562 2.4 -33.3752 1.0285e+07 5.7032e+06 1.01932e+07 275095 -1.47425e+06 -710595
137 3 O -1.51896 20.0541 53.2219 -1.2 -9.50135 -3.78477e+06 -1.18573e+06 -3.63035e+06 -258280 763116 1.39044e+06
138 3 O -1.03938 22.8897 46.4223 -1.2 -7.452 -3.32877e+06 -2.22434e+06 -2.87165e+06 -605389 -1.50697e+06 1.00278e+06
139 3 O -2.93915 22.2952 53.8537 -1.2 -8.84882 -1.15172e+06 -4.03986e+06 -4.65324e+06 -1.10642e+06 469976 520275
140 3 O -0.216163 22.3421 53.7723 -1.2 -8.91769 -2.61587e+06 -4.43128e+06 -6.08746e+06 2.09225e+06 -2.07482e+06 990032
141 1 Mg -2.72867 30.507 57.56 1.2 -8.09495 -775451 -2.33169e+06 4.27667e+06 -1.7736e+06 -1.59181e+06 -2.00808e+06
142 1 Mg -1.38776 30.6357 49.8391 1.2 -8.64398 1.01179e+06 2.48712e+06 1.87363e+06 -210273 73008.5 503142
143 2 Si -0.907929 28.1491 47.9262 2.4 -34.8508 9.36661e+06 7.29682e+06 9.48157e+06 473878 2.30032e+06 -660152
144 3 O -0.829229 29.7184 47.99 -1.2 -8.46775 -2.93855e+06 -4.52436e+06 -2.76746e+06 465767 -1.90285e+06 -33108.8
145 3 O -1.45946 27.0152 51.769 -1.2 -8.78614 -2.69063e+06 -2.13139e+06 -6.00459e+06 254111 -518711 -826396
146 3 O -2.07744 27.5697 48.8273 -1.2 -8.55746 -1.4591e+06 -3.73367e+06 -3.41267e+06 13075.7 -368001 -1.09836e+06
147 1 Mg 0.137907 26.087 46.819 1.2 -7.25165 2.44644e+06 -156340 844412 1.12297e+06 1.59029e+06 -880839
148 3 O 0.55579 27.5065 48.3893 -1.2 -8.45007 -2.0661e+06 -1.79562e+06 -2.08215e+06 -291142 -317196 945228
149 1 Mg 1.6844 26.0863 54.6428 1.2 -7.99983 2.88792e+06 1.82944e+06 235994 -206554 565359 665687
150 2 Si 1.71446 28.7676 56.2036 2.4 -33.2933 6.6825e+06 6.69628e+06 1.04234e+07 1.59138e+06 -121704 -1.63124e+06
151 3 O 1.63322 27.1203 56.3501 -1.2 -9.68406 -3.54798e+06 -1.14393e+06 -5.37175e+06 44978.1 532731 -2.34212e+06
152 3 O 1.6432 29.7522 52.7291 -1.2 -9.32216 -3.26416e+06 -1.27344e+06 -5.14564e+06 -482748 22101.1 -749696
153 3 O 0.486726 29.3925 55.5146 -1.2 -9.20773 -1.80208e+06 -3.27625e+06 -4.85581e+06 -161539 -1.63881e+06 489433
154 3 O 3.12053 29.3429 55.6626 -1.2 -8.93435 -3.21799e+06 -4.6561e+06 -4.23834e+06 1.75582e+06 1.58622e+06 -153381
155 1 Mg 0.0647462 28.3794 52.2059 1.2 -7.82585 -282589 -1.07506e+06 4.06314e+06 -961252 2.03952e+06 690672
156 1 Mg 2.10696 28.1021 49.4531 1.2 -8.06408 2.59283e+06 809049 -11040.6 145044 -119126 27008.7
157 2 Si 1.57592 30.4257 51.2442 2.4 -33.0432 8.47625e+06 5.27698e+06 9.78286e+06 544136 965789 -260774
158 3 O 1.68288 31.9926 51.3043 -1.2 -9.81711 -3.42785e+06 -2.41841e+06 -2.83007e+06 839797 -763424 569360
159 3 O 1.68149 29.2087 57.7056 -1.2 -8.82337 -3.09716e+06 -5.90962e+06 -5.78378e+06 -60628.5 -184344 768288
160 3 O 0.258524 29.7935 50.6632 -1.2 -8.85538 -3.72136e+06 -2.70144e+06 -4.50118e+06 1.07042e+06 -502380 50835.6
161 1 Mg -2.90462 28.3797 52.308 1.2 -7.633 -346139 -301370 3.72815e+06 1.26221e+06 -1.73012e+06 652153
162 3 O 2.81205 29.7787 50.4664 -1.2 -9.1881 -3.17236e+06 -2.58009e+06 -2.42825e+06 -339190 561930 -275822
163 1 Mg -1.40703 28.3579 55.0494 1.2 -8.05738 486797 1.07372e+06 512873 874269 507845 -1.5851e+06
164 2 Si -1.36022 26.3135 53.2554 2.4 -33.4781 3.46753e+06 5.37902e+06 1.01537e+07 -34652.6 -232817 -1.8049e+06
165 3 O -1.42466 24.724 53.256 -1.2 -9.29014 -4.34285e+06 -2.57056e+06 -4.0516e+06 861611 1.11202e+06 334563
166 3 O -0.943026 27.648 46.4208 -1.2 -7.46136 -3.31021e+06 -2.36128e+06 -2.74634e+06 -602800 -1.50298e+06 1.02011e+06
167 3 O -2.5184 26.967 54.0045 -1.2 -9.19509 -5.31998e+06 -4.41592e+06 -5.12714e+06 110073 1.55393e+06 -369707
168 3 O -0.132752 26.9985 53.7938 -1.2 -9.04058 -6.2525e+06 -3.51174e+06 -4.86835e+06 -121555 -1.29145e+06 -578264
169 1 Mg -2.7663 35.3793 57.2311 1.2 -7.61587 -1.40151e+06 -2.59253e+06 3.90331e+06 -487990 -2.63247e+06 -1.09496e+06
170 1 Mg -1.28421 35.3899 49.8376 1.2 -8.85763 1.32179e+06 2.13006e+06 2.24749e+06 -137946 313248 759605
171 2 Si -0.807101 32.9036 47.9247 2.4 -34.9118 9.46762e+06 7.29742e+06 9.47826e+06 502317 2.27849e+06 -223521
172 3 O -0.727174 34.4729 47.9885 -1.2 -8.38936 -3.04928e+06 -4.37277e+06 -2.95195e+06 456006 -1.91723e+06 -225651
173 3 O -1.35735 31.7701 51.768 -1.2 -8.82257 -1.91202e+06 -3.51397e+06 -6.6622e+06 129880 910813 -224928
174 3 O -1.97695 32.3253 48.826 -1.2 -8.54371 -1.43774e+06 -3.80183e+06 -3.3884e+06 474.285 -341182 -1.32011e+06
175 1 Mg 0.237665 30.8412 46.8168 1.2 -7.24728 2.45263e+06 -62401.9 740937 1.12349e+06 1.58639e+06 -749095
176 3 O 0.656562 32.2608 48.3877 -1.2 -8.44103 -2.10782e+06 -1.85721e+06 -1.99095e+06 -286607 -321961 709252
177 1 Mg 1.74995 31.0397 54.4588 1.2 -8.11879 1.23523e+06 264745 438109 -98026.5 1.2219e+06 309009
178 2 Si 1.62239 33.3255 56.3623 2.4 -32.9849 7.93119e+06 7.64672e+06 1.04367e+07 -1.15158e+06 -1.22275e+06 -3.95721e+06
179 3 O 1.7325 31.6849 56.4642 -1.2 -9.17629 -3.73646e+06 661774 -4.81006e+06 -482875 383658 -1.29767e+06
180 3 O 1.74574 34.5067 52.7279 -1.2 -9.00308 -4.13655e+06 -2.10264e+06 -4.53726e+06 766209 -863462 -840819
181 3 O 0.346269 34.0894 55.8537 -1.2 -9.10542 -3.98501e+06 -1.78841e+06 -6.31267e+06 -1.08426e+06 -1.85639e+06 616541
182 3 O 2.88469 34.1114 55.5946 -1.2 -8.86632 -1.54284e+06 -2.95653e+06 -4.25431e+06 2.44729e+06 843281 -4315.77
183 1 Mg 0.167046 33.1343 52.2045 1.2 -7.706 475777 -420093 4.19253e+06 -945561 1.29761e+06 629355
184 1 Mg 2.20727 32.8578 49.4516 1.2 -8.09541 2.63128e+06 829361 -9746.96 80337.2 -61339.1 271007
185 2 Si 1.67943 35.1802 51.2429 2.4 -33.7431 9.66267e+06 4.67799e+06 1.03075e+07 -87555.9 216240 436507
186 3 O 1.78736 36.747 51.303 -1.2 -9.37653 -4.30453e+06 -1.88142e+06 -3.5867e+06 492261 -558103 820147
187 3 O 1.66473 33.9287 57.8071 -1.2 -9.03141 -3.0584e+06 -3.51879e+06 -6.63664e+06 285956 -1.50607e+06 2.18333e+06
188 3 O 0.362533 34.5479 50.661 -1.2 -8.63542 -3.6332e+06 -2.64957e+06 -4.48998e+06 1.2591e+06 -719802 -677190
189 1 Mg -2.80215 33.1347 52.3062 1.2 -7.85442 -948801 -685528 3.90417e+06 759328 -1.55381e+06 181814
190 3 O 2.91593 34.533 50.466 -1.2 -9.05548 -3.51413e+06 -2.43176e+06 -2.32164e+06 -276501 762364 -381963
191 1 Mg -1.29373 33.0074 55.0183 1.2 -8.4699 1.85445e+06 1.419e+06 -327273 658233 38659.7 -1.61064e+06
192 2 Si -1.25725 30.9817 53.1779 2.4 -33.4866 6.24519e+06 506319 1.26786e+07 -1.17679e+06 -33649.1 -1.08537e+06
193 3 O -1.40068 29.5748 53.0295 -1.2 -9.50722 -4.05642e+06 -8.87574e+06 -6.17666e+06 510198 698380 -334385
194 3 O -0.842495 32.4028 46.4192 -1.2 -7.44378 -3.33718e+06 -2.3769e+06 -2.73305e+06 -606164 -1.49966e+06 867941
195 3 O -2.54221 31.7066 53.9295 -1.2 -8.55239 -3.97551e+06 -4.32776e+06 -6.33413e+06 -2.01375e+06 851650 944376
196 3 O -0.0909496 31.7378 53.9374 -1.2 -9.27944 -4.88724e+06 -2.93795e+06 -3.82763e+06 1.65723e+06 -506503 1.21422e+06
197 1 Mg -2.83289 40.2415 57.1277 1.2 -8.03186 -332210 -1.4312e+06 4.00344e+06 -352837 -2.12105e+06 -2.14355e+06
198 1 Mg -1.17787 40.1435 49.8359 1.2 -8.70903 1.14784e+06 2.53502e+06 1.79082e+06 -200366 1367.5 352098
199 2 Si -0.702692 37.6572 47.9231 2.4 -35.0427 9.64755e+06 6.97884e+06 9.82639e+06 467394 2.27719e+06 -693663
200 3 O -0.621782 39.2264 47.9868 -1.2 -8.39453 -3.06095e+06 -4.46297e+06 -2.84126e+06 467128 -1.89015e+06 75653.4
201 3 O -1.25221 36.5242 51.7666 -1.2 -8.14396 -3.24823e+06 -1.95436e+06 -5.19034e+06 972157 -710744 -948887
202 3 O -1.87295 37.0796 48.8243 -1.2 -8.42145 -1.63937e+06 -3.52978e+06 -3.65524e+06 37131.6 -405417 -1.14949e+06
203 1 Mg 0.341084 35.5943 46.8152 1.2 -7.30587 2.54006e+06 -236612 923465 1.12129e+06 1.58219e+06 -713230
204 3 O 0.760681 37.0138 48.3864 -1.2 -8.33781 -2.25422e+06 -1.59192e+06 -2.26988e+06 -299834 -283957 902310
205 1 Mg 1.72573 35.5332 54.5968 1.2 -8.45532 3.08728e+06 365602 575277 -513929 103826 -593831
206 2 Si 1.79704 37.9781 56.3934 2.4 -32.4777 8.49196e+06 6.23614e+06 1.1953e+07 1.18826e+06 -817032 -2.03906e+06
207 3 O 1.80079 36.4028 56.4484 -1.2 -9.89957 -5.27114e+06 -3.02533e+06 -5.32984e+06 1.35558e+06 -322738 112855
208 3 O 1.85132 39.2606 52.7264 -1.2 -9.26541 -3.77151e+06 -2.81667e+06 -6.01507e+06 82062.2 -442845 -1.56928e+06
209 3 O 0.569177 38.6422 55.5755 -1.2 -9.10993 -3.37026e+06 -1.97828e+06 -3.3908e+06 -1.91224e+06 -239956 -645265
210 3 O 3.05642 38.8971 55.6434 -1.2 -8.92827 -2.1012e+06 -1.71012e+06 -3.52961e+06 1.05988e+06 -896010 -1.06653e+06
211 1 Mg 0.272384 37.8883 52.2029 1.2 -8.07782 645937 -389441 3.98826e+06 -616742 1.77436e+06 -43566
212 1 Mg 2.31122 37.6122 49.4501 1.2 -8.21689 2.90041e+06 583120 174082 162423 -79511 -4347.39
213 2 Si 1.78573 39.934 51.2414 2.4 -33.2169 8.80577e+06 5.78465e+06 9.21616e+06 415185 1.26292e+06 74607
214 3 O 1.89428 41.5006 51.3014 -1.2 -9.71209 -3.39792e+06 -2.31938e+06 -3.18366e+06 807828 -736035 395213
215 3 O 1.67571 38.7512 57.779 -1.2 -9.4009 -3.92573e+06 -1.94983e+06 -6.23674e+06 -245693 -682537 2.24977e+06
216 3 O 0.469216 39.3015 50.6588 -1.2 -8.76915 -4.01168e+06 -2.80746e+06 -4.15917e+06 953932 -553438 174567
217 1 Mg -2.69668 37.8889 52.3043 1.2 -8.06965 -333392 -1.1164e+06 3.12282e+06 1.26952e+06 -2.16385e+06 737793
218 3 O 3.0225 39.2866 50.4651 -1.2 -9.03242 -3.31403e+06 -2.64523e+06 -2.57339e+06 -239358 440884 -127508
219 1 Mg -1.1784 38.0168 55.0473 1.2 -8.18976 1.13828e+06 2.44592e+06 835279 -981895 -269870 -1.13151e+06
220 2 Si -1.40492 35.7695 53.3024 2.4 -34.2075 7.12851e+06 3.61502e+06 1.16924e+07 1.28745e+06 -364503 -2.79868e+06
221 3 O -1.42192 34.2431 53.207 -1.2 -9.27493 -4.40381e+06 -4.47474e+06 -4.44261e+06 -1.29254e+06 333452 511876
222 3 O -0.738054 37.1566 46.4176 -1.2 -7.40291 -3.39844e+06 -2.25877e+06 -2.85849e+06 -603925 -1.50047e+06 971082
223 3 O -2.60784 36.4971 53.8405 -1.2 -8.93646 -5.54318e+06 -4.15755e+06 -5.22507e+06 112468 1.2731e+06 421686
224 3 O -0.0817542 36.3703 53.8873 -1.2 -8.56499 -3.11033e+06 -2.65422e+06 -5.56064e+06 62508.6 -1.45102e+06 -63846.7
225 1 Mg -2.70116 45.0511 57.4161 1.2 -7.30375 -1.43915e+06 -788506 4.19828e+06 -1.59194e+06 -1.89075e+06 -362213
226 1 Mg -1.06993 44.8968 49.8343 1.2 -8.7541 1.28112e+06 2.43332e+06 1.81186e+06 -169691 -13324.7 536015
227 2 Si -0.596166 42.4103 47.9215 2.4 -34.9096 9.52158e+06 7.44722e+06 9.27419e+06 488153 2.25424e+06 -515247
228 3 O -0.51472 43.9796 47.9853 -1.2 -8.42384 -3.04027e+06 -4.5485e+06 -2.73728e+06 463818 -1.89015e+06 -88700.7
229 3 O -1.14475 41.2777 51.7649 -1.2 -8.80455 -2.42828e+06 -3.45964e+06 -8.55097e+06 110079 601960 -42661.1
230 3 O -1.76671 41.8331 48.8226 -1.2 -8.52771 -1.45452e+06 -3.86027e+06 -3.3399e+06 15933 -296850 -1.20307e+06
231 1 Mg 0.447076 40.3473 46.8135 1.2 -7.28182 2.51575e+06 -79444 751935 1.12602e+06 1.58832e+06 -849225
232 3 O 0.866985 41.7666 48.385 -1.2 -8.42484 -2.14656e+06 -1.89312e+06 -1.93611e+06 -293188 -347011 849541
233 1 Mg 1.84629 40.2426 54.3835 1.2 -8.39095 3.30791e+06 2.20129e+06 -1.70077e+06 575761 -464667 253588
234 2 Si 1.87612 43.0352 56.4196 2.4 -33.3793 1.06785e+07 5.06742e+06 1.00726e+07 830459 -1.5603e+06 -2.86975e+06
235 3 O 1.74849 41.439 56.5081 -1.2 -9.17979 -6.2979e+06 -28797.8 -4.82523e+06 887774 682177 1.39347e+06
236 3 O 1.95891 44.014 52.7248 -1.2 -8.83873 -3.08025e+06 -3.13892e+06 -4.76158e+06 792753 -241536 -529656
237 3 O 0.663293 43.6325 55.6452 -1.2 -9.03133 -4.49398e+06 -3.39804e+06 -1.92402e+06 -571626 -354127 926138
238 3 O 3.28031 43.6047 55.7113 -1.2 -8.28828 -739868 -4.06378e+06 -2.30192e+06 1.69714e+06 -1.11272e+06 814886
239 1 Mg 0.379928 42.6418 52.2013 1.2 -7.77556 867244 -1.59588e+06 4.35176e+06 -776515 1.62963e+06 206990
240 1 Mg 2.41752 42.366 49.4484 1.2 -8.10919 2.5683e+06 890043 29737 108723 -40767.1 144869
241 2 Si 1.89374 44.6874 51.2398 2.4 -33.5895 8.49908e+06 5.71982e+06 1.01796e+07 177765 1.22199e+06 -173377
242 3 O 2.00266 46.254 51.2996 -1.2 -9.39407 -3.73552e+06 -2.5251e+06 -4.02023e+06 899564 1143.1 822842
243 3 O 1.86066 43.6899 57.8793 -1.2 -9.89577 -4.29929e+06 -3.43275e+06 -5.33442e+06 438566 -368412 1.06757e+06
244 3 O 0.577464 44.0549 50.6567 -1.2 -8.79753 -3.88031e+06 -2.7336e+06 -3.98826e+06 1.10098e+06 -997791 -9267.82
245 1 Mg -2.58906 42.6425 52.3022 1.2 -8.07057 -640681 -252514 4.69879e+06 1.22214e+06 -1.33079e+06 230000
246 3 O 3.13067 44.0398 50.464 -1.2 -9.05036 -3.06125e+06 -2.68182e+06 -2.4288e+06 -338520 774009 -273123
247 1 Mg -0.93718 42.6913 55.0041 1.2 -9.20307 2.51896e+06 1.28209e+06 -176732 -544617 -437368 -1.13272e+06
248 2 Si -1.03329 40.5354 53.1335 2.4 -34.0644 5.43664e+06 3.97591e+06 1.08347e+07 -968256 -1.18069e+06 1.42723e+06
249 3 O -1.25182 39.0358 53.0173 -1.2 -9.38546 -3.37041e+06 -6.2093e+06 -4.85544e+06 457645 520730 -687624
250 3 O -0.631421 41.9099 46.4159 -1.2 -7.43588 -3.35648e+06 -2.43525e+06 -2.67088e+06 -605164 -1.49601e+06 976348
251 3 O -2.26489 41.2567 53.9486 -1.2 -7.83521 -3.67843e+06 -3.47526e+06 -5.02172e+06 -665789 270022 26901.8
252 3 O 0.127662 41.1865 53.8602 -1.2 -8.85622 -8.44238e+06 -2.62808e+06 -4.25963e+06 669306 -1.13654e+06 46248.2
253 1 Mg -2.49282 49.9574 57.3992 1.2 -7.31058 -1.78606e+06 -797832 4.31264e+06 -613149 -2.05405e+06 31888
254 1 Mg -0.961069 49.6502 49.8327 1.2 -8.63034 1.15428e+06 2.78548e+06 1.40929e+06 -140350 211146 385812
255 2 Si -0.488083 47.1636 47.9198 2.4 -34.9185 9.51719e+06 7.50312e+06 9.23868e+06 499783 2.27141e+06 -562460
256 3 O -0.40607 48.7329 47.9837 -1.2 -8.4555 -2.9739e+06 -4.69393e+06 -2.59326e+06 453261 -1.91716e+06 -31041.8
257 3 O -1.0361 46.031 51.7632 -1.2 -8.85077 -2.73398e+06 -2.66169e+06 -2.02653e+06 -213127 1.15993e+06 -1.1663e+06
258 3 O -1.65866 46.5866 48.821 -1.2 -8.49037 -1.52155e+06 -3.84064e+06 -3.35806e+06 -2593.38 -316004 -1.16117e+06
259 1 Mg 0.554124 45.1001 46.8117 1.2 -7.26862 2.49582e+06 -32729.4 704813 1.12194e+06 1.5918e+06 -765289
260 3 O 0.974961 46.5195 48.3832 -1.2 -8.40418 -2.16674e+06 -1.88722e+06 -1.94794e+06 -281138 -337327 857409
261 1 Mg 2.09557 45.2344 54.5042 1.2 -8.63148 -1.14047e+06 1.99995e+06 -1.08437e+06 93936.6 -425148 414642
262 2 Si 2.10068 47.7336 56.3883 2.4 -32.2959 7.24768e+06 5.60382e+06 9.90743e+06 1.08682e+06 -203581 1.64393e+06
263 3 O 2.15278 46.2167 56.2991 -1.2 -9.81186 -4.25478e+06 -3.72877e+06 -4.29402e+06 1.10456e+06 546182 -261938
264 3 O 2.0677 48.7672 52.7232 -1.2 -9.0884 -3.19269e+06 -3.15964e+06 -3.59217e+06 -521416 -832440 -933194
265 3 O 0.7322 48.3727 55.6519 -1.2 -9.5006 -1.27234e+06 -3.61871e+06 -3.23223e+06 -927899 303161 -438379
266 3 O 3.35388 48.4897 55.7569 -1.2 -9.37774 -1.2867e+06 -4.50863e+06 -3.20268e+06 536560 381525 -646768
267 1 Mg 0.488584 47.395 52.1996 1.2 -7.94913 694553 -981664 3.15398e+06 -1.50968e+06 2.34221e+06 935640
268 1 Mg 2.52544 47.1195 49.4466 1.2 -8.15477 2.68657e+06 925156 -42626.4 91626.6 -75873.6 41398.2
269 2 Si 2.00256 49.4407 51.2382 2.4 -33.3057 8.07628e+06 6.46711e+06 9.41623e+06 219791 892323 293397
270 3 O 2.11156 51.0073 51.2982 -1.2 -9.7146 -2.89525e+06 -2.83544e+06 -3.47373e+06 697274 -1.0589e+06 327580
271 3 O 1.94286 48.4375 57.8248 -1.2 -9.8269 -2.32107e+06 -2.46563e+06 -4.53113e+06 -303923 685358 266852
272 3 O 0.686344 48.8082 50.655 -1.2 -8.73838 -3.81942e+06 -3.00367e+06 -4.23673e+06 1.02317e+06 -576141 -103303