ITEM: TIMESTEP
65700
ITEM: NUMBER OF ATOMS
10500
ITEM: BOX BOUNDS xy xz yz pp pp pp
0.0000000000000000e+00 8.9687999999999999e+00 2.9895999999999998e+00
0.0000000000000000e+00 1.1872499999999999e+02 0.0000000000000000e+00
0.0000000000000000e+00 2.5297749999999999e+02 0.0000000000000000e+00
ITEM: ATOMS id type element xu yu zu q c_pe c_s[1] c_s[2] c_s[3] c_s[4] c_s[5] c_s[6]
1 1 Mg -3.33085 7.002 57.7112 1.2 -7.91395 958763 -117233 2.43686e+06 -1.04262e+06 -1.59312e+06 -1.80822e+06
2 1 Mg -1.82655 6.90154 50.0912 1.2 -8.6653 853810 2.8801e+06 -645254 -164772 -330214 1.83008e+06
3 2 Si -0.257935 3.96038 48.0876 2.4 -37.1521 1.17236e+07 1.19648e+07 7.68965e+06 802977 1.99627e+06 1.63351e+06
4 3 O -0.335812 5.46814 47.6264 -1.2 -7.21752 -3.99005e+06 -4.08836e+06 -913601 145331 -978976 -766496
5 3 O -2.03793 3.43377 51.8941 -1.2 -8.70202 -3.32482e+06 -3.33802e+06 -5.16184e+06 -481181 68667.4 -1.42538e+06
6 3 O -1.54015 3.53929 48.9521 -1.2 -7.78918 -2.12868e+06 -3.23489e+06 -2.71513e+06 52542 -808734 -81892.4
7 1 Mg 1.82954 2.54582 47.1376 1.2 -8.56425 3.52763e+06 924227 -679481 1.14883e+06 816935 462849
8 3 O 1.22989 3.66364 48.7877 -1.2 -7.49508 -2.46395e+06 -3.99976e+06 -2.09125e+06 -500641 -665446 -841804
9 1 Mg 0.803937 2.27409 54.7551 1.2 -8.74617 4.03026e+06 -893465 -1.06601e+06 -262569 102469 1.13295e+06
10 2 Si 1.28902 4.88822 56.2628 2.4 -33.0795 9.4528e+06 1.04817e+07 8.32906e+06 754631 -981032 888785
11 3 O 1.16813 3.3552 56.4432 -1.2 -9.51326 -5.61897e+06 -4.17047e+06 -3.86586e+06 2.87244e+06 -551559 -136411
12 3 O 1.10813 6.07342 52.8172 -1.2 -8.66917 -2.93787e+06 -4.75257e+06 -3.37738e+06 310951 980790 -1.31525e+06
13 3 O 0.0761506 5.52451 55.5431 -1.2 -8.6912 -3.42938e+06 -4.5592e+06 -3.75353e+06 -1.1484e+06 -1.25099e+06 836908
14 3 O 2.56912 5.82472 55.7657 -1.2 -8.80226 -3.04033e+06 -3.43091e+06 -1.09742e+06 1.55008e+06 16901.6 396280
15 1 Mg -0.459401 4.67631 52.2426 1.2 -8.33246 -576000 82871.8 3.29904e+06 -255561 1.61499e+06 315741
16 1 Mg 2.79456 3.9971 49.9987 1.2 -8.79295 4.44057e+06 1.50392e+06 -101122 -507881 790518 -964921
17 2 Si 1.16169 6.59457 51.2556 2.4 -34.3207 7.84788e+06 9.7508e+06 8.72575e+06 443059 518623 3.03224e+06
18 3 O 1.28989 8.18905 51.2909 -1.2 -9.03843 -3.72858e+06 -3.09821e+06 -1.88285e+06 379592 -761491 457702
19 3 O 1.08871 5.74206 57.8867 -1.2 -8.58563 -3.14957e+06 -1.91271e+06 -1.57315e+06 85804.8 300016 2.87871e+06
20 3 O -0.184847 6.06029 50.6845 -1.2 -8.37351 -3.54785e+06 -4.93961e+06 -3.40968e+06 1.36883e+06 -519604 -1.30943e+06
21 1 Mg -3.49704 4.67769 52.6661 1.2 -7.83148 962031 -462817 1.23164e+06 2.34255e+06 -1.09359e+06 698869
22 3 O 2.48581 5.93312 50.6539 -1.2 -8.91195 -3.6039e+06 -3.32609e+06 -1.24023e+06 -1.61848e+06 -372225 -1.05497e+06
23 1 Mg -1.68467 4.62129 55.1964 1.2 -8.65222 1.06892e+06 3.90759e+06 -1.60693e+06 -99468.1 -837712 -862136
24 2 Si -2.13193 2.58425 53.241 2.4 -34.6467 9.39496e+06 6.96599e+06 1.00359e+07 63945.9 -2.16018e+06 -1.79655e+06
25 3 O -1.96404 1.00346 53.2066 -1.2 -8.61362 -4.93587e+06 -3.98648e+06 -3.7755e+06 -821787 450813 -511401
26 3 O -0.0467762 2.97103 46.8385 -1.2 -6.43474 -3.87596e+06 -3.60381e+06 -1.4347e+06 -990308 -2.00687e+06 -622153
27 3 O -3.41433 3.21291 54.0709 -1.2 -8.30305 -4.40215e+06 -3.12625e+06 -2.51803e+06 -781989 -1.71785e+06 2.25821e+06
28 3 O -0.964201 3.08665 54.1203 -1.2 -8.19418 -5.72634e+06 -7.05422e+06 -3.41828e+06 137886 -210543 -80742.9
29 1 Mg -3.1849 11.9437 57.4743 1.2 -8.88456 2.42497e+06 -442932 4.05807e+06 -284205 -1.57637e+06 22782.8
30 1 Mg -1.75014 11.5838 49.8362 1.2 -9.43058 2.41758e+06 3.07047e+06 1.33243e+06 -321847 366019 1.44088e+06
31 2 Si -1.18003 9.02138 47.9309 2.4 -35.9239 1.08322e+07 9.96987e+06 6.9626e+06 239855 2.60388e+06 1.61005e+06
32 3 O -1.23224 10.5991 47.9811 -1.2 -7.8426 -3.89315e+06 -4.74795e+06 -1.62491e+06 649137 -1.92743e+06 -618864
33 3 O -1.79016 8.01447 51.8693 -1.2 -8.61398 -2.91813e+06 -3.47588e+06 -3.75423e+06 -76327.6 1.02116e+06 -2.94037e+06
34 3 O -2.30986 8.37215 48.8528 -1.2 -8.28427 -2.1077e+06 -4.05675e+06 -1.8574e+06 -352526 -592710 -1.44154e+06
35 1 Mg 0.154883 7.08234 46.8007 1.2 -8.18731 2.95517e+06 1.37911e+06 -733897 942447 1.72802e+06 -535261
36 3 O 0.325447 8.50934 48.3809 -1.2 -7.91175 -2.56546e+06 -3.46731e+06 -1.22672e+06 -23132.4 -831766 -236849
37 1 Mg 1.45887 7.16232 54.7367 1.2 -8.8403 3.59234e+06 1.42066e+06 -1.01279e+06 434178 1.1617e+06 980966
38 2 Si 1.3854 9.6954 56.4305 2.4 -34.3314 1.31925e+07 7.88318e+06 6.86341e+06 421464 -2.46583e+06 73714
39 3 O 1.24414 8.23801 56.4901 -1.2 -9.27646 -4.76038e+06 -7.0561e+06 -2.8833e+06 1.8575e+06 730680 -648886
40 3 O 1.28624 10.7248 52.7351 -1.2 -8.47486 -4.9291e+06 -3.51779e+06 -3.83096e+06 278129 -709846 -2.00144e+06
41 3 O 0.0364977 10.431 55.8112 -1.2 -7.81993 -4.15583e+06 -5.0454e+06 -4.12237e+06 -2.1017e+06 -1.66112e+06 -292632
42 3 O 2.6389 10.6749 55.5973 -1.2 -7.40613 -3.06884e+06 -2.9801e+06 -1.52483e+06 2.78114e+06 -256114 -229959
43 1 Mg -0.262694 9.34741 52.2523 1.2 -8.49835 823607 230666 3.10879e+06 -1.26103e+06 1.4817e+06 1.12331e+06
44 1 Mg 1.87648 9.01537 49.4629 1.2 -8.60122 3.17832e+06 1.93842e+06 -1.12013e+06 224844 -232649 898724
45 2 Si 1.21415 11.3799 51.2378 2.4 -35.0386 1.12824e+07 7.13162e+06 8.69253e+06 287019 185457 2.18517e+06
46 3 O 1.31634 12.9512 51.3023 -1.2 -8.53869 -5.30593e+06 -2.28558e+06 -3.13145e+06 443470 -324245 276328
47 3 O 1.31117 10.4994 57.8254 -1.2 -8.08017 -5.54272e+06 -2.97806e+06 -5.05355e+06 -962389 -1.67466e+06 2.24464e+06
48 3 O -0.115718 10.7564 50.681 -1.2 -7.95795 -4.47614e+06 -3.62915e+06 -3.95179e+06 1.09437e+06 -309150 -1.24104e+06
49 1 Mg -3.26386 9.35564 52.3622 1.2 -8.39536 1.0848e+06 587669 2.99141e+06 1.31511e+06 -935114 1.01832e+06
50 3 O 2.45216 10.7265 50.4558 -1.2 -8.54709 -4.31537e+06 -3.1156e+06 -971878 -682528 556967 -643117
51 1 Mg -1.48306 9.3975 55.1655 1.2 -9.28954 2.6252e+06 3.25474e+06 -1.66129e+06 -741088 -232516 -466043
52 2 Si -1.61969 7.2313 53.3451 2.4 -34.1182 1.02032e+07 8.46979e+06 9.0205e+06 -1.64772e+06 473082 7605.36
53 3 O -1.72455 5.71981 53.326 -1.2 -9.3801 -4.47629e+06 -5.43523e+06 -4.12143e+06 1.05981e+06 -375183 -1.36915e+06
54 3 O -1.19417 8.46968 46.4488 -1.2 -6.8919 -3.92316e+06 -3.40618e+06 -1.58267e+06 -541727 -1.74196e+06 248858
55 3 O -2.85696 8.03576 54.1179 -1.2 -8.06755 -3.88599e+06 -4.00097e+06 -3.35164e+06 -2.18346e+06 516026 1.58276e+06
56 3 O -0.393198 8.02338 54.0596 -1.2 -8.36007 -4.64574e+06 -4.80166e+06 -807416 2.27918e+06 772412 -14784
57 1 Mg -3.03207 16.4715 57.3601 1.2 -8.62753 1.45113e+06 -786199 4.59603e+06 -1.85384e+06 -2.14176e+06 -649068
58 1 Mg -1.6714 16.3544 49.8412 1.2 -9.72218 2.79677e+06 2.85528e+06 1.51147e+06 -181127 234098 485240
59 2 Si -1.18567 13.8526 47.9314 2.4 -36.497 1.2014e+07 7.80064e+06 8.89569e+06 489672 2.25151e+06 484367
60 3 O -1.09664 15.4205 47.9915 -1.2 -7.59492 -4.25445e+06 -4.64682e+06 -2.4435e+06 423893 -1.9268e+06 -347806
61 3 O -1.73493 12.7491 51.7772 -1.2 -7.59368 -4.81526e+06 -3.22875e+06 -6.5528e+06 706092 136086 -1.00233e+06
62 3 O -2.36115 13.2717 48.8238 -1.2 -7.70413 -2.90577e+06 -3.87218e+06 -3.04523e+06 -101980 -387935 -1.74219e+06
63 1 Mg -0.159928 11.7639 46.8533 1.2 -7.92316 3.55377e+06 440723 211129 1.127e+06 1.57032e+06 -262841
64 3 O 0.2623 13.1866 48.413 -1.2 -7.63909 -3.35664e+06 -1.9523e+06 -1.82029e+06 -198421 -275754 311153
65 1 Mg 1.2831 11.6184 54.5471 1.2 -9.64507 5.26514e+06 1.19004e+06 -850297 356833 -349623 1.18346e+06
66 2 Si 1.46881 14.5411 56.4224 2.4 -34.736 1.23585e+07 7.77917e+06 9.79987e+06 -212206 -89051.6 892351
67 3 O 1.25943 12.9256 56.5904 -1.2 -8.01417 -7.33487e+06 -2.49036e+06 -3.37083e+06 859266 562952 -408143
68 3 O 1.36565 15.4813 52.729 -1.2 -7.71011 -5.9556e+06 -3.17927e+06 -3.7278e+06 678470 -509691 -1.03825e+06
69 3 O 0.0402115 15.1758 55.8002 -1.2 -7.686 -3.00496e+06 -5.70725e+06 -3.13151e+06 -1.75495e+06 1.25919e+06 361180
70 3 O 2.62047 15.1494 55.5897 -1.2 -8.2946 -4.15345e+06 -3.56398e+06 -1.78605e+06 493238 -173685 -248679
71 1 Mg -0.206989 14.1049 52.2121 1.2 -9.24322 2.30778e+06 94404.6 3.20596e+06 -1.07521e+06 1.91332e+06 458158
72 1 Mg 1.82591 13.8102 49.4556 1.2 -9.02866 4.17591e+06 1.13048e+06 -290144 160560 -105076 647513
73 2 Si 1.29285 16.1518 51.2434 2.4 -35.73 1.24718e+07 6.28104e+06 9.18317e+06 61373.9 373365 122506
74 3 O 1.39496 17.7199 51.3047 -1.2 -8.59471 -5.02592e+06 -3.07799e+06 -2.71806e+06 584049 -421604 935992
75 3 O 1.44077 15.1453 57.9501 -1.2 -8.46071 -4.31759e+06 -4.21733e+06 -3.05818e+06 329030 -1.6651e+06 -2236.13
76 3 O -0.0269106 15.5178 50.6688 -1.2 -7.59196 -5.51979e+06 -3.05684e+06 -4.27454e+06 1.02728e+06 -472622 -289142
77 1 Mg -3.18391 14.1057 52.3125 1.2 -9.16558 1.63558e+06 -636923 3.20318e+06 1.16333e+06 -1.99084e+06 362613
78 3 O 2.52432 15.503 50.4579 -1.2 -8.03136 -5.16657e+06 -2.73274e+06 -1.97278e+06 -260289 575547 -165634
79 1 Mg -1.46252 14.1114 54.9832 1.2 -9.70765 4.44339e+06 2.38545e+06 471346 -231522 232636 -800749
80 2 Si -1.75375 11.9732 53.1846 2.4 -36.0492 1.10043e+07 3.71197e+06 9.98784e+06 1.02468e+06 -381564 -565845
81 3 O -1.66593 10.4987 53.1297 -1.2 -8.51746 -4.57851e+06 -7.61223e+06 -4.21045e+06 78547.5 1.52436e+06 -708021
82 3 O -1.21337 13.3381 46.4311 -1.2 -6.72109 -4.55731e+06 -2.68235e+06 -2.36131e+06 -630445 -1.45368e+06 452342
83 3 O -2.89442 12.6909 53.8995 -1.2 -7.29794 -6.48005e+06 -4.64073e+06 -4.95064e+06 -23933.7 1.97826e+06 1.50194e+06
84 3 O -0.400289 12.7518 53.8609 -1.2 -7.44415 -4.96746e+06 -1.86348e+06 -3.31593e+06 1.17331e+06 -162094 538239
85 1 Mg -3.27629 21.0918 57.4622 1.2 -8.2394 489300 -342944 2.66097e+06 -2.29782e+06 -1.43751e+06 -1.01029e+06
86 1 Mg -1.5831 21.1217 49.8405 1.2 -9.67923 2.67241e+06 3.26575e+06 1.10357e+06 -231142 77732.5 1.20224e+06
87 2 Si -1.09384 18.6291 47.9287 2.4 -36.6928 1.23232e+07 8.44557e+06 8.31506e+06 479227 2.31276e+06 4076.76
88 3 O -1.02071 20.1985 47.9911 -1.2 -7.52512 -4.43448e+06 -5.05795e+06 -2.15123e+06 465614 -1.91013e+06 -479582
89 3 O -1.65002 17.5002 51.771 -1.2 -7.79971 -4.51734e+06 -4.60031e+06 -4.05363e+06 519149 -261919 -16061.5
90 3 O -2.26174 18.0434 48.8281 -1.2 -7.61517 -3.00231e+06 -4.29935e+06 -2.75645e+06 -11498.9 -374856 -1.27106e+06
91 1 Mg -0.0440435 16.5651 46.8269 1.2 -8.10418 3.78515e+06 299105 395604 1.13462e+06 1.57617e+06 -493979
92 3 O 0.37001 17.9877 48.3925 -1.2 -7.51891 -3.55322e+06 -2.34746e+06 -1.52596e+06 -289212 -324482 678660
93 1 Mg 1.32469 16.5445 54.6193 1.2 -9.55699 4.07463e+06 1.09016e+06 -572701 531711 -369170 1.33405e+06
94 2 Si 1.21036 19.156 56.2998 2.4 -34.3193 9.74016e+06 9.02948e+06 8.40861e+06 -508984 -38354.6 86248.2
95 3 O 1.33098 17.5408 56.4471 -1.2 -8.70325 -5.61743e+06 -1.08217e+06 -4.6844e+06 -1.61322e+06 386978 -1.66798e+06
96 3 O 1.45147 20.239 52.7294 -1.2 -8.5283 -4.04244e+06 -3.73822e+06 -3.65738e+06 -413774 -241410 -1.24048e+06
97 3 O 0.00511308 19.8472 55.6113 -1.2 -8.57755 -4.02637e+06 -5.12734e+06 -2.45287e+06 -1.44843e+06 -750608 -79878.9
98 3 O 2.54653 19.844 55.6963 -1.2 -8.56575 -3.06142e+06 -4.51905e+06 -2.3063e+06 1.42718e+06 304186 -513318
99 1 Mg -0.126194 18.8651 52.2079 1.2 -8.70757 1.00804e+06 628649 2.83869e+06 -845146 2.2433e+06 203774
100 1 Mg 1.92402 18.5815 49.4545 1.2 -9.03741 4.11215e+06 1.60552e+06 -782647 141105 -130992 229514
101 2 Si 1.38106 20.9117 51.2443 2.4 -35.1107 1.16296e+07 7.70247e+06 7.52606e+06 628618 995945 1.33491e+06
102 3 O 1.48527 22.4795 51.3054 -1.2 -8.62614 -5.30516e+06 -3.04153e+06 -2.42196e+06 923527 -941456 -290916
103 3 O 1.24091 19.8476 57.7855 -1.2 -8.60272 -4.20026e+06 -4.90575e+06 -5.54144e+06 -68499.2 1.7984e+06 1.52173e+06
104 3 O 0.0615419 20.2804 50.6669 -1.2 -7.85809 -5.19321e+06 -3.83719e+06 -3.2642e+06 1.11872e+06 -629223 -485662
105 1 Mg -3.09665 18.8643 52.3122 1.2 -8.55683 1.01003e+06 588411 2.25645e+06 1.63419e+06 -2.21624e+06 548720
106 3 O 2.61548 20.2646 50.4626 -1.2 -8.20335 -4.69074e+06 -3.64846e+06 -1.17218e+06 -436144 688443 -786596
107 1 Mg -1.67104 18.9553 54.878 1.2 -8.81357 3.68449e+06 2.26099e+06 -625547 -224333 -552389 -279381
108 2 Si -1.68153 16.7775 53.2239 2.4 -35.6134 1.28795e+07 4.30379e+06 1.02176e+07 245304 -569350 -437075
109 3 O -1.74594 15.2737 53.0374 -1.2 -8.13292 -6.39531e+06 -5.27445e+06 -4.3352e+06 -925249 835211 406994
110 3 O -1.12868 18.1227 46.4249 -1.2 -6.59411 -4.7148e+06 -2.78146e+06 -2.30245e+06 -603100 -1.49476e+06 637084
111 3 O -2.95831 17.5027 53.9263 -1.2 -8.16542 -3.1078e+06 -3.90791e+06 -3.56705e+06 -778848 146808 33919.9
112 3 O -0.328138 17.3293 53.8813 -1.2 -7.97617 -3.76075e+06 -3.8868e+06 -3.89519e+06 1.14592e+06 -438526 143836
113 1 Mg -3.19183 26.0196 57.5369 1.2 -9.70252 2.98234e+06 -1.38734e+06 3.36852e+06 -645795 -1.59709e+06 -521687
114 1 Mg -1.48778 25.88 49.8402 1.2 -10.0077 3.16948e+06 2.07724e+06 2.30519e+06 -157669 318327 1.23173e+06
115 2 Si -1.00491 23.3922 47.9274 2.4 -36.9391 1.27061e+07 7.87021e+06 8.90788e+06 510573 2.28586e+06 896606
116 3 O -0.927602 24.9615 47.9909 -1.2 -7.35119 -4.70317e+06 -4.47334e+06 -2.82391e+06 449769 -1.92134e+06 -713326
117 3 O -1.55795 22.2588 51.7696 -1.2 -7.68039 -4.29168e+06 -2.41682e+06 -3.98279e+06 -27265.5 2.12668e+06 -1.92442e+06
118 3 O -2.17411 22.8111 48.8277 -1.2 -7.49997 -3.12222e+06 -4.19826e+06 -2.98425e+06 -14922 -350912 -1.92396e+06
119 1 Mg 0.0423997 21.3296 46.8225 1.2 -8.18286 3.94362e+06 342251 333161 1.12556e+06 1.58406e+06 -285594
120 3 O 0.458537 22.7495 48.3911 -1.2 -7.42104 -3.74606e+06 -2.24026e+06 -1.62129e+06 -284265 -321307 110680
121 1 Mg 1.61443 21.2639 54.5308 1.2 -8.94376 3.14834e+06 2.12107e+06 -450034 -505502 -175606 1.68766e+06
122 2 Si 1.47179 23.9417 56.2424 2.4 -35.6341 1.33549e+07 7.32889e+06 7.81767e+06 -518921 -4649.44 1.56698e+06
123 3 O 1.33091 22.4053 56.375 -1.2 -8.53944 -4.99547e+06 -2.65884e+06 -2.47639e+06 519937 -746745 -1.54591e+06
124 3 O 1.54441 24.9963 52.7297 -1.2 -7.91335 -5.95794e+06 -1.97313e+06 -3.46585e+06 732250 90890.4 -1.86716e+06
125 3 O 0.126693 24.7342 55.7774 -1.2 -7.28868 -2.95421e+06 -2.33987e+06 -5.42395e+06 -526941 -2.10471e+06 -230894
126 3 O 2.7768 24.5676 55.7207 -1.2 -7.90869 -6.44868e+06 -4.28453e+06 -3.97237e+06 496052 1.6038e+06 -282041
127 1 Mg -0.0335968 23.6229 52.2067 1.2 -8.95296 2.0117e+06 445141 3.92612e+06 -1.43851e+06 1.51919e+06 2.07238e+06
128 1 Mg 2.01073 23.3445 49.4541 1.2 -9.17886 4.36599e+06 1.23474e+06 -433584 69935.6 -77287.8 955534
129 2 Si 1.47594 25.6699 51.2449 2.4 -36.1922 1.37504e+07 4.78538e+06 1.00145e+07 27001.7 -143947 2.22386e+06
130 3 O 1.58172 27.2371 51.3054 -1.2 -8.09259 -6.05324e+06 -1.74347e+06 -3.98568e+06 616015 89949.5 36383.9
131 3 O 1.44101 24.6874 57.7891 -1.2 -7.24755 -8.11452e+06 -2.36727e+06 -4.66266e+06 -1.50959e+06 70685.9 2.39487e+06
132 3 O 0.157925 25.0378 50.6651 -1.2 -7.3998 -5.59604e+06 -2.64325e+06 -4.74668e+06 1.23831e+06 -464129 -1.46339e+06
133 1 Mg -3.00341 23.6231 52.3098 1.2 -8.93192 1.91155e+06 658845 2.63228e+06 1.81155e+06 -1.42015e+06 1.93855e+06
134 3 O 2.71149 25.0232 50.4656 -1.2 -7.88399 -5.48278e+06 -2.49954e+06 -2.01916e+06 -344807 708867 -1.25817e+06
135 1 Mg -1.59068 23.5637 55.0891 1.2 -9.38482 3.44033e+06 3.10904e+06 405467 711633 370663 -686991
136 2 Si -1.43548 21.5174 53.2949 2.4 -34.5109 9.44525e+06 7.18432e+06 1.0217e+07 -259748 2.17417e+06 556509
137 3 O -1.54677 19.935 53.1374 -1.2 -9.15748 -4.61946e+06 -3.25687e+06 -4.48577e+06 991936 -110918 478399
138 3 O -1.03938 22.8897 46.4223 -1.2 -6.49683 -4.85696e+06 -2.62848e+06 -2.47072e+06 -607609 -1.49672e+06 407123
139 3 O -2.75434 22.2139 53.7997 -1.2 -8.33767 -5.00451e+06 -3.25999e+06 -6.14946e+06 -1.32991e+06 1.51214e+06 -630161
140 3 O -0.253407 22.2486 53.9987 -1.2 -8.46646 -3.73885e+06 -3.14114e+06 -3.14542e+06 832143 -1.24542e+06 128100
141 1 Mg -2.73972 30.7174 57.2568 1.2 -9.53213 3.35508e+06 492762 3.97856e+06 -177352 -1.18997e+06 -198521
142 1 Mg -1.38776 30.6357 49.8391 1.2 -9.93558 2.98097e+06 2.20089e+06 2.24475e+06 -184567 240422 262405
143 2 Si -0.907929 28.1491 47.9262 2.4 -37.1554 1.30292e+07 6.79953e+06 1.00075e+07 482798 2.33024e+06 -248588
144 3 O -0.829229 29.7184 47.99 -1.2 -7.33531 -4.72686e+06 -4.29758e+06 -3.03099e+06 465555 -1.91896e+06 49721.1
145 3 O -1.45946 27.0152 51.769 -1.2 -7.15795 -5.41822e+06 -3.47518e+06 -6.28225e+06 492570 -1.20525e+06 -419811
146 3 O -2.07744 27.5697 48.8273 -1.2 -7.32611 -3.45193e+06 -3.45084e+06 -3.67718e+06 19511.2 -397777 -1.44228e+06
147 1 Mg 0.137907 26.087 46.819 1.2 -8.30342 4.12957e+06 -199387 889467 1.12517e+06 1.58356e+06 -378079
148 3 O 0.55579 27.5065 48.3893 -1.2 -7.25613 -3.95927e+06 -1.53118e+06 -2.36934e+06 -297660 -300120 582014
149 1 Mg 1.71686 25.9877 54.5929 1.2 -9.86934 6.68558e+06 -75794.9 402538 -57601.2 1.06859e+06 1.24878e+06
150 2 Si 1.5438 28.5094 56.2648 2.4 -37.6902 1.60169e+07 436512 1.22016e+07 -886376 114846 1.43299e+06
151 3 O 1.59849 27.0783 56.3041 -1.2 -7.35863 -1.00238e+07 -8.00687e+06 -4.76176e+06 -311048 414300 200018
152 3 O 1.6432 29.7522 52.7291 -1.2 -7.661 -5.64516e+06 -1.67812e+06 -5.52819e+06 505834 -679353 -122867
153 3 O 0.148033 29.2198 55.8937 -1.2 -6.87478 -7.55616e+06 -3.47327e+06 -3.66276e+06 -1.85834e+06 -36017.6 -322368
154 3 O 2.65406 29.3022 55.4787 -1.2 -6.80412 -5.75247e+06 -4.63681e+06 -5.30632e+06 1.70005e+06 1.0738e+06 -701774
155 1 Mg 0.0647462 28.3794 52.2059 1.2 -9.60433 2.34631e+06 -1.28971e+06 4.09977e+06 -1.41168e+06 2.10786e+06 1.00283e+06
156 1 Mg 2.10696 28.1021 49.4531 1.2 -9.36279 4.70767e+06 425320 338408 133058 -174489 276396
157 2 Si 1.57592 30.4257 51.2442 2.4 -35.8864 1.33269e+07 4.89925e+06 9.78034e+06 227157 379097 -903911
158 3 O 1.68288 31.9926 51.3043 -1.2 -8.62529 -5.42284e+06 -2.40955e+06 -2.59106e+06 697859 -397266 952516
159 3 O 1.80844 29.31 57.8546 -1.2 -6.69135 -5.52696e+06 -962565 -3.0629e+06 -523921 783769 1.72936e+06
160 3 O 0.258524 29.7935 50.6632 -1.2 -7.39754 -5.70155e+06 -2.52989e+06 -4.69323e+06 1.29654e+06 -582915 -18436.7
161 1 Mg -2.90462 28.3797 52.308 1.2 -9.37024 2.41266e+06 -1.74629e+06 4.41482e+06 1.71341e+06 -2.15584e+06 949546
162 3 O 2.81205 29.7787 50.4664 -1.2 -7.83623 -5.53508e+06 -2.2191e+06 -2.44857e+06 -434807 678517 -79870.4
163 1 Mg -1.42609 28.5517 55.1178 1.2 -10.3884 3.90198e+06 585600 342467 -233673 -724503 -1.09258e+06
164 2 Si -1.43995 26.46 53.2779 2.4 -37.2623 1.19374e+07 3.28877e+06 1.2041e+07 -500777 -401711 1.53248e+06
165 3 O -1.45351 24.9344 53.2177 -1.2 -7.72674 -4.83729e+06 -2.72081e+06 -4.7066e+06 -367403 -97879.7 148615
166 3 O -0.943026 27.648 46.4208 -1.2 -6.41966 -4.97466e+06 -2.21288e+06 -2.90018e+06 -604459 -1.50579e+06 777444
167 3 O -2.67741 27.142 54.0088 -1.2 -7.04198 -7.06975e+06 -3.66972e+06 -5.76493e+06 556495 1.49979e+06 -992766
168 3 O -0.115964 27.1208 53.7796 -1.2 -6.88736 -6.12531e+06 -3.27163e+06 -5.73802e+06 -130211 -1.10628e+06 -422728
169 1 Mg -2.82846 35.3785 57.5107 1.2 -9.06428 585177 -1.98855e+06 2.84786e+06 -1.74707e+06 -1.43427e+06 -796214
170 1 Mg -1.28421 35.3899 49.8376 1.2 -9.61406 2.54268e+06 2.84446e+06 1.51787e+06 -176614 247046 568126
171 2 Si -0.807101 32.9036 47.9247 2.4 -36.8192 1.24869e+07 7.71506e+06 9.09558e+06 494282 2.30233e+06 -1.20173e+06
172 3 O -0.727174 34.4729 47.9885 -1.2 -7.53077 -4.42057e+06 -4.8201e+06 -2.51609e+06 461937 -1.91823e+06 182369
173 3 O -1.35735 31.7701 51.768 -1.2 -7.56362 -3.24282e+06 -2.20902e+06 -2.9044e+06 463815 497858 -898608
174 3 O -1.97695 32.3253 48.826 -1.2 -7.51102 -3.10471e+06 -3.91892e+06 -3.28557e+06 25225.2 -401814 -776515
175 1 Mg 0.237665 30.8412 46.8168 1.2 -8.25651 4.05987e+06 -145853 834101 1.1231e+06 1.5807e+06 -995855
176 3 O 0.656562 32.2608 48.3877 -1.2 -7.42198 -3.71837e+06 -1.95267e+06 -1.93323e+06 -300143 -286863 1.20695e+06
177 1 Mg 1.68327 30.8713 54.489 1.2 -9.87946 3.70371e+06 2.02208e+06 611554 138838 -297552 847440
178 2 Si 1.66372 33.5603 56.3349 2.4 -35.3161 9.92809e+06 1.1226e+07 6.51634e+06 474121 882174 -1.32761e+06
179 3 O 1.81433 31.9419 56.4641 -1.2 -7.88271 -5.85223e+06 -149749 -3.04081e+06 -171892 -268628 -1.09081e+06
180 3 O 1.74574 34.5067 52.7279 -1.2 -8.48732 -4.86175e+06 -3.67259e+06 -6.29925e+06 66822.6 -582554 -1.88397e+06
181 3 O 0.342531 34.1978 55.7108 -1.2 -8.13566 -5.32199e+06 -5.88062e+06 -3.01099e+06 -1.92602e+06 -1.74878e+06 -729257
182 3 O 2.90319 34.3114 55.653 -1.2 -7.92623 -4.22601e+06 -5.45835e+06 -4.17014e+06 873674 2.55616e+06 -461227
183 1 Mg 0.167046 33.1343 52.2045 1.2 -8.78749 1.55377e+06 63760.9 4.47898e+06 -819417 1.3642e+06 178654
184 1 Mg 2.20727 32.8578 49.4516 1.2 -9.08281 4.2814e+06 1.08023e+06 -331433 95586.5 -114697 -285895
185 2 Si 1.67943 35.1802 51.2429 2.4 -34.9516 1.16969e+07 6.46079e+06 8.37541e+06 236528 410907 -29415
186 3 O 1.78736 36.747 51.303 -1.2 -8.72923 -5.35848e+06 -2.41915e+06 -2.79383e+06 717155 -415951 521721
187 3 O 1.7643 34.156 57.7771 -1.2 -8.11574 -5.93259e+06 -7.8233e+06 -7.03009e+06 -601560 1.09819e+06 1.90324e+06
188 3 O 0.362533 34.5479 50.661 -1.2 -7.89378 -4.78723e+06 -3.4212e+06 -3.75121e+06 1.21671e+06 -754648 -95235
189 1 Mg -2.80215 33.1347 52.3062 1.2 -8.67739 1.55685e+06 -286303 3.85194e+06 1.31037e+06 -1.28934e+06 456012
190 3 O 2.91593 34.533 50.466 -1.2 -8.29236 -4.68546e+06 -3.16293e+06 -1.4785e+06 -348971 840950 -123865
191 1 Mg -1.32479 33.433 55.2374 1.2 -9.49513 1.89609e+06 3.41464e+06 -1.1502e+06 -989072 -395228 -1.05011e+06
192 2 Si -1.36543 31.0542 53.36 2.4 -36.1165 1.08136e+07 5.94832e+06 1.28563e+07 1.33708e+06 1.34602e+06 236843
193 3 O -1.43664 29.5261 53.1668 -1.2 -7.99536 -6.49859e+06 -3.22752e+06 -4.63891e+06 164510 822810 1.23021e+06
194 3 O -0.842495 32.4028 46.4192 -1.2 -6.51632 -4.81774e+06 -2.47611e+06 -2.64145e+06 -605367 -1.50279e+06 1.23829e+06
195 3 O -2.49651 31.8336 54.0078 -1.2 -7.78966 -7.00892e+06 -3.19756e+06 -3.99691e+06 -448010 1.44221e+06 259318
196 3 O -0.0172832 31.7051 54.0531 -1.2 -7.3961 -4.6436e+06 -2.56254e+06 -2.9122e+06 2.16403e+06 349390 118975
197 1 Mg -2.60683 40.3745 57.0459 1.2 -8.13497 1.95644e+06 459172 3.99735e+06 -1.2317e+06 -1.04655e+06 -1.50734e+06
198 1 Mg -1.17787 40.1435 49.8359 1.2 -9.5848 2.47941e+06 2.68432e+06 1.71329e+06 -216708 87407.4 47807.6
199 2 Si -0.702692 37.6572 47.9231 2.4 -36.5975 1.21247e+07 7.7454e+06 9.07379e+06 475790 2.28035e+06 -1.00123e+06
200 3 O -0.621782 39.2264 47.9868 -1.2 -7.63092 -4.26653e+06 -4.73084e+06 -2.59265e+06 466161 -1.89576e+06 318855
201 3 O -1.25221 36.5242 51.7666 -1.2 -7.66915 -3.77553e+06 -2.56307e+06 -4.25227e+06 288907 354185 -1.151e+06
202 3 O -1.87295 37.0796 48.8243 -1.2 -7.63538 -2.89073e+06 -3.99802e+06 -3.20331e+06 19770.3 -401403 -1.06769e+06
203 1 Mg 0.341084 35.5943 46.8152 1.2 -8.11452 3.8354e+06 163539 523546 1.12138e+06 1.58201e+06 -1.03225e+06
204 3 O 0.760681 37.0138 48.3864 -1.2 -7.5534 -3.51396e+06 -2.05252e+06 -1.80966e+06 -291682 -283869 1.01896e+06
205 1 Mg 1.76063 35.4942 54.3151 1.2 -9.27105 3.48197e+06 1.1631e+06 -2.04149e+06 -175055 8109.62 -383230
206 2 Si 2.01924 38.1114 56.4906 2.4 -35.7723 1.11978e+07 5.76376e+06 1.12183e+07 -1.51049e+06 -1.10253e+06 -890643
207 3 O 1.83517 36.65 56.7553 -1.2 -7.67928 -5.77163e+06 -6.07846e+06 -4.75205e+06 2.25537e+06 -395093 311910
208 3 O 1.85132 39.2606 52.7264 -1.2 -8.08386 -5.44176e+06 -3.18343e+06 -5.20142e+06 -257897 -310481 -1.14306e+06
209 3 O 0.657741 38.731 55.7559 -1.2 -7.46209 -2.08563e+06 -3.66359e+06 -3.32684e+06 -1.14195e+06 -67301 309849
210 3 O 3.19303 38.7634 55.6072 -1.2 -8.42879 -4.72064e+06 -2.02105e+06 -2.02636e+06 858801 -272012 414050
211 1 Mg 0.272384 37.8883 52.2029 1.2 -9.02366 1.55819e+06 -869995 3.86773e+06 -474918 2.09456e+06 -146292
212 1 Mg 2.31122 37.6122 49.4501 1.2 -9.00683 4.1883e+06 977424 -243868 135034 -85995.5 -11953.1
213 2 Si 1.78573 39.934 51.2414 2.4 -35.2074 1.20202e+07 5.83903e+06 9.16477e+06 600671 1.01416e+06 -475425
214 3 O 1.89428 41.5006 51.3014 -1.2 -8.83225 -4.79445e+06 -2.65437e+06 -3.03139e+06 819396 -817673 990735
215 3 O 1.91066 38.9376 57.898 -1.2 -7.999 -3.57474e+06 -3.17757e+06 -4.90604e+06 304346 -2.02411e+06 -282121
216 3 O 0.469216 39.3015 50.6588 -1.2 -7.7714 -5.5054e+06 -2.90203e+06 -4.42484e+06 981749 -342217 331461
217 1 Mg -2.69668 37.8889 52.3043 1.2 -8.90527 1.56661e+06 -385332 3.59213e+06 1.20549e+06 -1.88791e+06 243846
218 3 O 3.0225 39.2866 50.4651 -1.2 -8.16012 -4.8797e+06 -2.78061e+06 -2.20871e+06 -263190 522188 -26510.8
219 1 Mg -1.04065 37.8488 55.1857 1.2 -9.37565 4.27693e+06 1.77703e+06 127268 206429 620918 -1.85984e+06
220 2 Si -1.2714 35.7653 53.2875 2.4 -35.5133 9.12724e+06 4.181e+06 1.0602e+07 1.58741e+06 928251 -2.3516e+06
221 3 O -1.27846 34.2865 53.2864 -1.2 -8.46695 -5.25401e+06 -7.79603e+06 -3.74589e+06 267238 186319 282873
222 3 O -0.738054 37.1566 46.4176 -1.2 -6.63805 -4.62247e+06 -2.6291e+06 -2.49022e+06 -604473 -1.50039e+06 1.25148e+06
223 3 O -2.46109 36.4036 53.9085 -1.2 -7.78835 -7.0392e+06 -5.69997e+06 -5.07659e+06 671845 2.42116e+06 407760
224 3 O 0.0751261 36.499 53.9411 -1.2 -7.8149 -3.85514e+06 -3.20149e+06 -3.12929e+06 775384 -797191 975220
225 1 Mg -2.41333 45.2601 57.4418 1.2 -7.49651 504628 946534 1.27174e+06 -1.40464e+06 -1.86216e+06 -1.22999e+06
226 1 Mg -1.06993 44.8968 49.8343 1.2 -9.12161 1.82536e+06 3.2968e+06 1.00866e+06 -206928 62559.5 -23857.1
227 2 Si -0.596166 42.4103 47.9215 2.4 -36.1666 1.1495e+07 8.3303e+06 8.43334e+06 488183 2.2586e+06 -1.66016e+06
228 3 O -0.51472 43.9796 47.9853 -1.2 -7.90378 -3.85628e+06 -5.20108e+06 -2.09502e+06 463492 -1.89466e+06 502221
229 3 O -1.14475 41.2777 51.7649 -1.2 -7.90671 -3.88701e+06 -4.05147e+06 -4.18794e+06 146262 1.58113e+06 -49800.1
230 3 O -1.76671 41.8331 48.8226 -1.2 -7.83424 -2.55906e+06 -4.20349e+06 -3.00245e+06 17388.6 -332234 -648435
231 1 Mg 0.447076 40.3473 46.8135 1.2 -7.97832 3.62725e+06 240868 436068 1.12537e+06 1.58319e+06 -1.25694e+06
232 3 O 0.866985 41.7666 48.385 -1.2 -7.74615 -3.22863e+06 -2.24062e+06 -1.59161e+06 -294138 -323384 1.38946e+06
233 1 Mg 1.83392 40.2802 54.4498 1.2 -9.51936 1.48977e+06 3.20718e+06 -678065 1.24427e+06 -1.72667e+06 464636
234 2 Si 1.74082 43.1293 56.3892 2.4 -35.0586 1.02546e+07 6.04774e+06 9.26753e+06 206153 323145 -376258
235 3 O 1.73625 41.5915 56.3278 -1.2 -8.01186 -5.09561e+06 -3.22333e+06 -4.15938e+06 -3.16805e+06 857716 1.52003e+06
236 3 O 1.95891 44.014 52.7248 -1.2 -8.71498 -3.96719e+06 -2.27926e+06 -4.50915e+06 -172389 -592896 188652
237 3 O 0.436338 43.8328 55.683 -1.2 -8.3586 -3.24278e+06 -5.46483e+06 -1.04311e+06 13235.5 1.39198e+06 533528
238 3 O 3.02229 43.4519 55.5929 -1.2 -7.47216 -4.07196e+06 -5.61962e+06 -3.14291e+06 -1.20081e+06 72118.7 1.13484e+06
239 1 Mg 0.379928 42.6418 52.2013 1.2 -8.46776 1.50918e+06 -584013 3.64887e+06 -1.01606e+06 2.24197e+06 151601
240 1 Mg 2.41752 42.366 49.4484 1.2 -8.76896 3.69201e+06 1.28443e+06 -429484 108594 -52919.2 -453694
241 2 Si 1.89374 44.6874 51.2398 2.4 -34.0334 1.00535e+07 7.20356e+06 7.85021e+06 567902 1.09852e+06 -1.33525e+06
242 3 O 2.00266 46.254 51.2996 -1.2 -9.42414 -4.1899e+06 -3.43394e+06 -2.18973e+06 765591 -1.27145e+06 692614
243 3 O 1.98043 43.7517 57.8686 -1.2 -9.17759 -2.76301e+06 -3.61815e+06 -4.00605e+06 760110 2.1802e+06 -62736.8
244 3 O 0.577464 44.0549 50.6567 -1.2 -8.2948 -4.64372e+06 -3.33288e+06 -3.75216e+06 1.0763e+06 -562208 565905
245 1 Mg -2.58906 42.6425 52.3022 1.2 -8.64982 476564 196080 3.53959e+06 1.38583e+06 -2.16941e+06 137685
246 3 O 3.13067 44.0398 50.464 -1.2 -8.61332 -3.9757e+06 -3.37531e+06 -1.73441e+06 -287874 630418 324599
247 1 Mg -1.06406 42.6352 55.0381 1.2 -9.10083 5.18098e+06 1.79356e+06 1393.13 -514151 -237311 -990930
248 2 Si -1.06345 40.5135 53.2233 2.4 -35.2125 1.19121e+07 4.57755e+06 9.6708e+06 24582.9 1.12024e+06 -1.077e+06
249 3 O -1.15358 39.0272 53.0066 -1.2 -8.31335 -5.65961e+06 -5.94563e+06 -4.7444e+06 1.15694e+06 935080 660764
250 3 O -0.631421 41.9099 46.4159 -1.2 -6.80696 -4.35901e+06 -2.86319e+06 -2.24727e+06 -605105 -1.49683e+06 1.49414e+06
251 3 O -2.35246 41.1471 53.8721 -1.2 -7.91972 -3.8271e+06 -4.7794e+06 -4.18253e+06 254166 1.89591e+06 -958696
252 3 O 0.252448 41.1426 53.9701 -1.2 -8.23234 -5.21285e+06 -2.83694e+06 -2.507e+06 1.65971e+06 -1.35953e+06 341302
253 1 Mg -2.28203 49.6604 57.6077 1.2 -8.00149 821317 -2.71734e+06 2.66496e+06 -3.00514e+06 -1.74007e+06 -2.13265e+06
254 1 Mg -0.961069 49.6502 49.8327 1.2 -9.03334 1.6121e+06 3.07742e+06 1.28041e+06 -101603 194366 563026
255 2 Si -0.488083 47.1636 47.9198 2.4 -35.6685 1.07153e+07 9.18015e+06 7.56219e+06 493567 2.25723e+06 -1.05491e+06
256 3 O -0.40607 48.7329 47.9837 -1.2 -8.07974 -3.56159e+06 -5.38246e+06 -1.93493e+06 456826 -1.90218e+06 77065.6
257 3 O -1.0361 46.031 51.7632 -1.2 -8.39192 -3.72272e+06 -3.98289e+06 -8.35127e+06 592107 1.80725e+06 -129172
258 3 O -1.65866 46.5866 48.821 -1.2 -8.15784 -2.046e+06 -4.73874e+06 -2.46173e+06 6536.13 -311865 -919261
259 1 Mg 0.554124 45.1001 46.8117 1.2 -7.74956 3.26521e+06 702840 -29561.9 1.12332e+06 1.58877e+06 -1.26182e+06
260 3 O 0.974961 46.5195 48.3832 -1.2 -8.03928 -2.75833e+06 -2.76503e+06 -1.06804e+06 -284436 -333468 1.15896e+06
261 1 Mg 1.97388 45.3689 54.3247 1.2 -8.50609 1.81947e+06 3.32194e+06 -1.13774e+06 -216007 -574606 -138064
262 2 Si 2.12216 47.7915 56.2807 2.4 -33.2648 1.06507e+07 9.8934e+06 7.42073e+06 -466003 -1.20258e+06 1.20057e+06
263 3 O 2.02613 46.2063 56.2298 -1.2 -9.53714 -3.97042e+06 -1.84474e+06 -1.30203e+06 -250627 801677 -863366
264 3 O 2.0677 48.7672 52.7232 -1.2 -9.11022 -4.14291e+06 -2.90422e+06 -3.62298e+06 1.31558e+06 -351995 -1.05474e+06
265 3 O 0.795557 48.6047 55.829 -1.2 -8.35668 -1.42598e+06 -5.2571e+06 -4.29546e+06 -1.31118e+06 -1.90667e+06 -600866
266 3 O 3.49226 48.3294 55.6133 -1.2 -8.76761 -2.95473e+06 -4.75061e+06 -2.81876e+06 1.24706e+06 1.64853e+06 -720400
267 1 Mg 0.488584 47.395 52.1996 1.2 -7.82798 1.06665e+06 225290 3.49062e+06 -1.13754e+06 969319 846952
268 1 Mg 2.52544 47.1195 49.4466 1.2 -8.4349 3.12897e+06 1.79185e+06 -904567 98682.9 -26596.9 -79057.4
269 2 Si 2.00256 49.4407 51.2382 2.4 -33.8275 9.87787e+06 6.78288e+06 8.03701e+06 -303901 405939 230353