ITEM: TIMESTEP
47700
ITEM: NUMBER OF ATOMS
10500
ITEM: BOX BOUNDS xy xz yz pp pp pp
0.0000000000000000e+00 8.9687999999999999e+00 2.9895999999999998e+00
0.0000000000000000e+00 1.1872499999999999e+02 0.0000000000000000e+00
0.0000000000000000e+00 2.5297749999999999e+02 0.0000000000000000e+00
ITEM: ATOMS id type element xu yu zu q c_pe c_s[1] c_s[2] c_s[3] c_s[4] c_s[5] c_s[6]
1 1 Mg -3.49698 7.08871 57.3531 1.2 -7.83663 -957923 -1.5647e+06 4.78544e+06 -1.34377e+06 -2.08283e+06 -1.39685e+06
2 1 Mg -1.82655 6.90154 50.0912 1.2 -8.65341 551227 823467 1.69482e+06 -92175 -139267 1.17381e+06
3 2 Si -0.257935 3.96038 48.0876 2.4 -36.6409 1.09551e+07 8.24605e+06 1.13588e+07 799300 1.95428e+06 1.00566e+06
4 3 O -0.335812 5.46814 47.6264 -1.2 -7.52169 -3.50201e+06 -2.16883e+06 -2.83385e+06 148396 -957992 -261762
5 3 O -2.03793 3.43377 51.8941 -1.2 -8.5491 -3.6204e+06 -2.75984e+06 -8.02284e+06 -1.02993e+06 605180 -807633
6 3 O -1.54015 3.53929 48.9521 -1.2 -7.98011 -1.79121e+06 -1.462e+06 -4.50919e+06 24133.9 -735757 192952
7 1 Mg 1.82954 2.54582 47.1376 1.2 -8.25098 3.02793e+06 -896123 1.13862e+06 1.148e+06 835130 223824
8 3 O 1.22989 3.66364 48.7877 -1.2 -7.70527 -2.17585e+06 -2.16449e+06 -3.871e+06 -476347 -715236 -560921
9 1 Mg 1.02494 2.37954 54.5405 1.2 -8.70933 2.77662e+06 46335.1 1.68661e+06 -251271 -721587 797603
10 2 Si 0.840556 5.07398 56.4614 2.4 -33.0572 7.37203e+06 3.07444e+06 1.25721e+07 492890 1.59259e+06 880628
11 3 O 0.621425 3.54468 56.3182 -1.2 -8.93767 -4.66049e+06 -1.00339e+06 -5.0185e+06 -308460 -761633 867095
12 3 O 1.10813 6.07342 52.8172 -1.2 -8.81514 -3.62549e+06 -2.75396e+06 -3.99514e+06 630093 -256201 -384219
13 3 O -0.502728 5.73111 55.8081 -1.2 -9.04801 -1.42672e+06 -4.11918e+06 -4.50228e+06 32046.5 -7472.02 54151.4
14 3 O 2.08521 5.62897 55.7824 -1.2 -9.41194 -3.57248e+06 -2.74677e+06 -5.5615e+06 -758098 928386 814097
15 1 Mg -0.459401 4.67631 52.2426 1.2 -8.36446 -166449 -1.37855e+06 5.42183e+06 -1.36107e+06 1.25285e+06 281462
16 1 Mg 2.79456 3.9971 49.9987 1.2 -8.70923 4.14168e+06 -139142 1.70934e+06 -497589 849024 -1.30889e+06
17 2 Si 1.16169 6.59457 51.2556 2.4 -34.3637 9.16115e+06 5.71226e+06 1.15161e+07 -33113.2 187987 2.04505e+06
18 3 O 1.28989 8.18905 51.2909 -1.2 -9.15397 -3.92445e+06 -1.31667e+06 -3.408e+06 225813 -505779 1.10166e+06
19 3 O 0.963903 5.75466 57.9853 -1.2 -9.20963 -3.59352e+06 -1.72045e+06 -5.63771e+06 -165772 476036 2.23912e+06
20 3 O -0.184847 6.06029 50.6845 -1.2 -8.30495 -3.59914e+06 -3.02417e+06 -5.28954e+06 1.59952e+06 -204914 -1.24723e+06
21 1 Mg -3.49704 4.67769 52.6661 1.2 -7.88386 500465 -2.13085e+06 3.07617e+06 2.19457e+06 -1.29736e+06 119666
22 3 O 2.48581 5.93312 50.6539 -1.2 -8.89308 -3.85994e+06 -1.3474e+06 -3.16858e+06 -1.69805e+06 -688068 -594552
23 1 Mg -1.98616 4.58099 55.2633 1.2 -8.46232 2.48093e+06 804610 1.07232e+06 -994200 -866284 -1.64899e+06
24 2 Si -1.9353 2.67479 53.2655 2.4 -34.0941 6.79818e+06 4.33962e+06 1.28259e+07 890967 741739 -934313
25 3 O -1.96706 1.00365 53.0405 -1.2 -8.85149 -4.38239e+06 95468.4 -5.5753e+06 1.04797e+06 -532186 904440
26 3 O -0.0467762 2.97103 46.8385 -1.2 -6.7624 -3.3633e+06 -1.76929e+06 -3.25484e+06 -989955 -2.00105e+06 -337164
27 3 O -3.14966 3.21686 54.0817 -1.2 -8.88406 -5.74019e+06 -1.91708e+06 -6.28485e+06 -1.04854e+06 992771 1.37792e+06
28 3 O -0.717143 3.29016 53.9698 -1.2 -8.42067 -5.46923e+06 -2.29551e+06 -7.30392e+06 592275 -1.87171e+06 1.30138e+06
29 1 Mg -3.41666 11.687 57.5014 1.2 -7.54421 66469.4 -812549 4.26589e+06 -1.16797e+06 -1.01415e+06 -1.16804e+06
30 1 Mg -1.75014 11.5838 49.8362 1.2 -8.61428 1.09856e+06 1.91473e+06 2.48756e+06 -336030 253075 201379
31 2 Si -1.18003 9.02138 47.9309 2.4 -34.9074 9.16597e+06 6.72166e+06 1.02469e+07 234044 2.59965e+06 -592036
32 3 O -1.23224 10.5991 47.9811 -1.2 -8.53088 -2.79023e+06 -3.45037e+06 -2.93215e+06 654588 -1.91507e+06 589785
33 3 O -1.79016 8.01447 51.8693 -1.2 -8.28524 -3.028e+06 -2.09342e+06 -3.17124e+06 290352 -989153 -1.95121e+06
34 3 O -2.30986 8.37215 48.8528 -1.2 -8.65493 -1.48669e+06 -2.30389e+06 -3.6489e+06 -320280 -655442 -414401
35 1 Mg 0.154883 7.08234 46.8007 1.2 -7.7616 2.27469e+06 -455398 1.09901e+06 942941 1.71621e+06 -1.33025e+06
36 3 O 0.325447 8.50934 48.3809 -1.2 -8.34013 -1.88445e+06 -1.72566e+06 -2.97044e+06 -43769.1 -793682 792072
37 1 Mg 1.08702 7.10479 54.7321 1.2 -8.20057 2.34848e+06 566620 1.02121e+06 513909 -185028 442961
38 2 Si 0.976242 9.64671 56.448 2.4 -33.439 9.14544e+06 -136940 1.12885e+07 -414995 -711347 -2.34903e+06
39 3 O 0.967489 8.2044 56.4746 -1.2 -9.64264 -4.09782e+06 -6.92948e+06 -7.24325e+06 117476 31936.8 110703
40 3 O 1.28624 10.7248 52.7351 -1.2 -8.93129 -4.16293e+06 -2.58442e+06 -5.50414e+06 156182 -1.02149e+06 -1.29804e+06
41 3 O -0.394443 10.4014 55.9407 -1.2 -8.4966 -2.7632e+06 -3.61798e+06 -6.31918e+06 -1.68439e+06 -1.15693e+06 -157197
42 3 O 2.21735 10.3199 55.6205 -1.2 -8.81845 -2.86038e+06 -3.90653e+06 -3.95668e+06 1.71549e+06 978478 -351250
43 1 Mg -0.262694 9.34741 52.2523 1.2 -8.3088 747117 -544063 4.7691e+06 -1.40775e+06 1.16905e+06 924909
44 1 Mg 1.87648 9.01537 49.4629 1.2 -8.18461 2.57508e+06 291197 462135 239612 -239874 -129433
45 2 Si 1.21415 11.3799 51.2378 2.4 -33.4889 8.84337e+06 4.73519e+06 1.10287e+07 371658 683940 72896.5
46 3 O 1.31634 12.9512 51.3023 -1.2 -9.72294 -3.13323e+06 -1.75783e+06 -4.11117e+06 509438 -567237 1.2245e+06
47 3 O 1.00279 10.275 57.8918 -1.2 -9.36103 -3.48357e+06 -3.56504e+06 -6.84923e+06 538830 -1.60103e+06 1.69647e+06
48 3 O -0.115718 10.7564 50.681 -1.2 -8.67357 -3.42632e+06 -2.3422e+06 -4.64835e+06 1.16324e+06 -594083 -217834
49 1 Mg -3.26386 9.35564 52.3622 1.2 -8.09156 689067 -977600 4.16065e+06 1.61244e+06 -1.51444e+06 1.05866e+06
50 3 O 2.45216 10.7265 50.4558 -1.2 -9.1545 -3.19918e+06 -1.774e+06 -2.44774e+06 -744169 495473 346269
51 1 Mg -2.01768 9.5027 55.278 1.2 -8.63393 1.14078e+06 111887 2.11339e+06 126873 138478 -1.8727e+06
52 2 Si -1.81962 7.33957 53.5281 2.4 -33.6593 8.77678e+06 6.02462e+06 1.26072e+07 -68817 -726101 -961368
53 3 O -1.89252 5.80225 53.3395 -1.2 -9.25955 -3.38473e+06 -2.18896e+06 -5.3654e+06 487598 -731968 1.23142e+06
54 3 O -1.19417 8.46968 46.4488 -1.2 -7.42311 -3.06561e+06 -1.74881e+06 -3.24762e+06 -541690 -1.74084e+06 1.2339e+06
55 3 O -3.0662 8.09799 54.1651 -1.2 -9.02569 -2.60297e+06 -3.34512e+06 -3.42385e+06 -795788 634880 -486537
56 3 O -0.512409 8.09894 53.9859 -1.2 -8.74746 -2.78524e+06 -2.63277e+06 -5.27973e+06 1.72387e+06 -1.24206e+06 -120011
57 1 Mg -3.18535 16.493 57.2094 1.2 -6.90896 -819389 -680128 4.14822e+06 -1.14841e+06 -1.41107e+06 -807296
58 1 Mg -1.6714 16.3544 49.8412 1.2 -8.20612 506403 2.53019e+06 1.68864e+06 -213505 7977.99 436778
59 2 Si -1.18567 13.8526 47.9314 2.4 -34.3283 8.60274e+06 6.68948e+06 9.94113e+06 490012 2.23407e+06 -1.43755e+06
60 3 O -1.09664 15.4205 47.9915 -1.2 -8.8141 -2.34467e+06 -4.2622e+06 -2.79214e+06 428292 -1.9141e+06 235255
61 3 O -1.73493 12.7491 51.7772 -1.2 -9.15424 -2.87486e+06 -2.26297e+06 -4.49347e+06 482372 183353 112321
62 3 O -2.36115 13.2717 48.8238 -1.2 -8.77747 -1.17754e+06 -3.28036e+06 -3.66363e+06 -84960.2 -338952 -635764
63 1 Mg -0.159928 11.7639 46.8533 1.2 -7.10249 2.24596e+06 -603254 1.24802e+06 1.1299e+06 1.57174e+06 -1.41542e+06
64 3 O 0.2623 13.1866 48.413 -1.2 -8.67697 -1.71567e+06 -1.29401e+06 -2.4682e+06 -212049 -305640 1.39716e+06
65 1 Mg 1.20558 11.686 54.5012 1.2 -8.70089 1.89351e+06 911825 353356 425772 -967563 1.07825e+06
66 2 Si 1.14084 14.3741 56.4866 2.4 -33.3261 7.04016e+06 6.61603e+06 8.06142e+06 115269 -211969 1.0107e+06
67 3 O 1.00549 12.7625 56.4962 -1.2 -9.22096 -3.37922e+06 -1.9775e+06 -3.07975e+06 228963 -702962 -781606
68 3 O 1.36565 15.4813 52.729 -1.2 -9.74057 -2.37906e+06 -3.40963e+06 -4.81301e+06 250992 -331305 -955041
69 3 O -0.21554 14.9679 55.9827 -1.2 -9.08099 -3.5782e+06 -4.39158e+06 -4.01642e+06 -1.04499e+06 -1.50883e+06 560560
70 3 O 2.39925 15.0273 55.7515 -1.2 -9.42308 -1.6452e+06 -2.81583e+06 -5.03913e+06 1.54892e+06 1.50629e+06 -677061
71 1 Mg -0.206989 14.1049 52.2121 1.2 -7.4225 -313844 -707249 4.3132e+06 -1.4962e+06 1.98125e+06 438857
72 1 Mg 1.82591 13.8102 49.4556 1.2 -7.82978 2.13685e+06 730180 226678 155318 -91314 -302227
73 2 Si 1.29285 16.1518 51.2434 2.4 -32.3075 6.53345e+06 6.12391e+06 9.7496e+06 420593 1.03843e+06 69476.5
74 3 O 1.39496 17.7199 51.3047 -1.2 -10.1144 -2.52694e+06 -2.37222e+06 -3.64258e+06 871307 -802625 523187
75 3 O 1.28409 15.0156 57.8695 -1.2 -9.2818 -3.32511e+06 -1.33451e+06 -8.74918e+06 314170 -1.44768e+06 -694474
76 3 O -0.0269106 15.5178 50.6688 -1.2 -9.30501 -2.94015e+06 -2.7695e+06 -4.1208e+06 1.02055e+06 -868883 161799
77 1 Mg -3.18391 14.1057 52.3125 1.2 -7.46563 -1.17587e+06 -447151 3.88869e+06 1.9985e+06 -2.04654e+06 503667
78 3 O 2.52432 15.503 50.4579 -1.2 -9.56068 -2.28926e+06 -2.66988e+06 -2.26861e+06 -361724 729515 -8088.2
79 1 Mg -1.72201 14.041 55.2286 1.2 -7.93792 2.00017e+06 1.5313e+06 380167 -603224 -338174 -1.34538e+06
80 2 Si -1.71783 12.1248 53.2767 2.4 -33.2377 9.23377e+06 4.8863e+06 1.08991e+07 172296 -258873 -1.12783e+06
81 3 O -1.8126 10.5428 53.2833 -1.2 -8.88733 -4.26592e+06 -1.48958e+06 -3.99844e+06 809042 141769 572010
82 3 O -1.21337 13.3381 46.4311 -1.2 -7.67492 -3.03564e+06 -1.92786e+06 -3.11129e+06 -630470 -1.45039e+06 1.45306e+06
83 3 O -3.05275 12.7358 53.923 -1.2 -9.1086 -723914 -4.02662e+06 -3.74477e+06 82730.3 659162 -263896
84 3 O -0.360451 12.6934 53.8792 -1.2 -9.30798 -2.04931e+06 -2.62598e+06 -4.44414e+06 449314 -1.14487e+06 119918
85 1 Mg -3.0842 21.2067 57.3635 1.2 -7.25173 -1.9675e+06 -3.00752e+06 4.72521e+06 -1.58533e+06 -1.50096e+06 -204725
86 1 Mg -1.5831 21.1217 49.8405 1.2 -8.41541 574088 1.94274e+06 2.49546e+06 -183303 323489 1.04016e+06
87 2 Si -1.09384 18.6291 47.9287 2.4 -34.127 8.24375e+06 7.05222e+06 9.6756e+06 504504 2.30757e+06 -111137
88 3 O -1.02071 20.1985 47.9911 -1.2 -8.80775 -2.36304e+06 -4.1559e+06 -3.0731e+06 455775 -1.92745e+06 -364714
89 3 O -1.65002 17.5002 51.771 -1.2 -9.48736 -2.42851e+06 -2.81829e+06 -7.20021e+06 112961 1.16912e+06 53066.6
90 3 O -2.26174 18.0434 48.8281 -1.2 -8.95551 -846640 -3.65579e+06 -3.41588e+06 -53975.4 -314139 -1.30049e+06
91 1 Mg -0.0440435 16.5651 46.8269 1.2 -6.92762 1.91073e+06 -191434 875426 1.13321e+06 1.58562e+06 -934112
92 3 O 0.37001 17.9877 48.3925 -1.2 -8.83149 -1.46734e+06 -1.74543e+06 -2.11578e+06 -266757 -359404 697557
93 1 Mg 1.50818 16.4541 54.4632 1.2 -7.77054 1.29107e+06 2.28454e+06 -108202 -594430 -484349 94263.1
94 2 Si 1.34708 19.1766 56.3234 2.4 -31.4822 5.42207e+06 8.58466e+06 1.08736e+07 1.21628e+06 -743142 1.83301e+06
95 3 O 1.26782 17.5434 56.3685 -1.2 -10.3045 -1.81307e+06 -247423 -2.81696e+06 864525 -559860 105212
96 3 O 1.45147 20.239 52.7294 -1.2 -9.68032 -2.9662e+06 -2.55575e+06 -5.35806e+06 143112 -623618 -1.392e+06
97 3 O 0.0469822 19.8323 55.705 -1.2 -9.66631 -1.5908e+06 -3.41709e+06 -4.10806e+06 -1.08035e+06 -493548 -522928
98 3 O 2.59213 19.873 55.6085 -1.2 -9.75396 -1.76628e+06 -3.29492e+06 -3.34852e+06 1.11752e+06 337935 -1.11259e+06
99 1 Mg -0.126194 18.8651 52.2079 1.2 -7.3247 -851943 -516309 4.13681e+06 -1.59653e+06 1.86345e+06 909093
100 1 Mg 1.92402 18.5815 49.4545 1.2 -7.68413 1.88356e+06 804992 77462.5 81530.2 -105672 333322
101 2 Si 1.38106 20.9117 51.2443 2.4 -32.6836 8.31341e+06 4.76541e+06 9.88267e+06 187399 139157 1.05844e+06
102 3 O 1.48527 22.4795 51.3054 -1.2 -9.92009 -3.39296e+06 -1.69466e+06 -3.57388e+06 630123 -358872 135683
103 3 O 1.40388 19.913 57.8415 -1.2 -9.93242 -1.11692e+06 -1.35387e+06 -3.48573e+06 -773681 -649840 1.28504e+06
104 3 O 0.0615419 20.2804 50.6669 -1.2 -9.03926 -2.92539e+06 -2.49394e+06 -4.92658e+06 1.35664e+06 -445430 -862597
105 1 Mg -3.09665 18.8643 52.3122 1.2 -7.30927 -938677 -343310 3.30653e+06 1.94634e+06 -1.66991e+06 1.05843e+06
106 3 O 2.61548 20.2646 50.4626 -1.2 -9.5362 -2.7922e+06 -2.32345e+06 -2.09545e+06 -472351 779452 -703887
107 1 Mg -1.6311 18.8601 54.9829 1.2 -7.8018 1.75102e+06 1.93585e+06 -170208 -237402 259259 -737923
108 2 Si -1.49967 16.7996 53.167 2.4 -32.1783 5.55542e+06 4.4403e+06 8.69837e+06 -1.20314e+06 351540 -603959
109 3 O -1.70902 15.2902 53.1687 -1.2 -10.018 -2.47565e+06 -3.34119e+06 -3.6069e+06 105517 -135888 351108
110 3 O -1.12868 18.1227 46.4249 -1.2 -7.79 -2.8043e+06 -2.18645e+06 -2.89313e+06 -605352 -1.49306e+06 930036
111 3 O -2.87746 17.577 53.8394 -1.2 -9.34477 -710738 -3.28485e+06 -4.82591e+06 -948725 618013 93694.3
112 3 O -0.295897 17.4014 53.8603 -1.2 -9.77371 -3.43869e+06 -3.39303e+06 -3.9768e+06 -264347 -1.58401e+06 -367356
113 1 Mg -2.94312 25.9256 57.1817 1.2 -7.29642 -2.1897e+06 -1.01602e+06 4.38001e+06 -913977 -1.40902e+06 -811141
114 1 Mg -1.48778 25.88 49.8402 1.2 -8.20695 432765 2.14075e+06 2.09628e+06 -170334 236136 738720
115 2 Si -1.00491 23.3922 47.9274 2.4 -34.1513 8.2128e+06 6.49251e+06 1.03137e+07 494950 2.3126e+06 -114017
116 3 O -0.927602 24.9615 47.9909 -1.2 -8.85718 -2.30332e+06 -4.14092e+06 -3.13941e+06 452458 -1.92661e+06 -256268
117 3 O -1.55795 22.2588 51.7696 -1.2 -8.77827 -2.02708e+06 -2.24162e+06 -4.41992e+06 592202 -267140 -1.28176e+06
118 3 O -2.17411 22.8111 48.8277 -1.2 -8.88078 -939717 -3.28028e+06 -3.86595e+06 20010.7 -412370 -1.4072e+06
119 1 Mg 0.0423997 21.3296 46.8225 1.2 -6.90758 1.88956e+06 -432012 1.11822e+06 1.12453e+06 1.57987e+06 -580429
120 3 O 0.458537 22.7495 48.3911 -1.2 -8.78553 -1.52739e+06 -1.37716e+06 -2.51302e+06 -302338 -288819 603323
121 1 Mg 1.40764 21.2009 54.4524 1.2 -7.9979 1.65398e+06 1.18011e+06 197256 -234931 197500 1.15172e+06
122 2 Si 1.42801 23.9049 56.446 2.4 -31.7246 6.96842e+06 4.10301e+06 1.2474e+07 371750 -518953 1.92042e+06
123 3 O 1.30502 22.3663 56.3938 -1.2 -9.95478 -2.93622e+06 -1.31941e+06 -4.42688e+06 278185 -550094 -228520
124 3 O 1.54441 24.9963 52.7297 -1.2 -9.60265 -2.49626e+06 -2.15656e+06 -4.30164e+06 -161493 -973672 -1.19485e+06
125 3 O 0.16103 24.6529 55.8463 -1.2 -10.0837 -1.96692e+06 -2.43228e+06 -3.74003e+06 -299664 -366922 -1.27415e+06
126 3 O 2.76044 24.6392 55.7054 -1.2 -9.59212 518110 -3.6304e+06 -5.05939e+06 1.82425e+06 -343130 -1.49827e+06
127 1 Mg -0.0335968 23.6229 52.2067 1.2 -7.67664 -342326 -763111 4.31328e+06 -909861 1.82529e+06 920662
128 1 Mg 2.01073 23.3445 49.4541 1.2 -7.74357 2.12429e+06 354361 390154 112221 -124339 369399
129 2 Si 1.47594 25.6699 51.2449 2.4 -32.3979 6.86531e+06 5.09604e+06 1.0524e+07 191692 660155 983458
130 3 O 1.58172 27.2371 51.3054 -1.2 -10.2127 -2.22994e+06 -2.23359e+06 -3.84798e+06 754787 -521604 -16676.7
131 3 O 1.59454 24.5772 57.913 -1.2 -9.95079 -2.97884e+06 -807449 -5.61634e+06 -6392.86 -488356 477643
132 3 O 0.157925 25.0378 50.6651 -1.2 -9.17191 -2.87593e+06 -2.49999e+06 -4.74709e+06 1.03304e+06 -661144 -486814
133 1 Mg -3.00341 23.6231 52.3098 1.2 -7.48055 -723604 -1.23546e+06 3.97958e+06 1.24708e+06 -2.0692e+06 1.12258e+06
134 3 O 2.71149 25.0232 50.4656 -1.2 -9.57476 -2.65285e+06 -2.19238e+06 -2.62099e+06 -216348 736129 -493231
135 1 Mg -1.4576 23.8609 55.1342 1.2 -7.75446 435119 1.17627e+06 1.31791e+06 -336564 -654279 -147004
136 2 Si -1.60665 21.6076 53.3577 2.4 -32.9934 3.96009e+06 3.94531e+06 1.21475e+07 1.51767e+06 755769 -202890
137 3 O -1.47051 20.0676 53.2427 -1.2 -9.79878 -3.02333e+06 -2.74291e+06 -4.9053e+06 -202159 142459 629258
138 3 O -1.03938 22.8897 46.4223 -1.2 -7.81157 -2.74664e+06 -2.00569e+06 -3.09673e+06 -606417 -1.50116e+06 776142
139 3 O -2.80772 22.1993 53.9195 -1.2 -9.3261 -5.34896e+06 -3.50865e+06 -6.28627e+06 920532 2.39625e+06 -1.0168e+06
140 3 O -0.267226 22.3486 53.9116 -1.2 -9.20552 -1.5697e+06 -1.82559e+06 -5.06422e+06 409188 -1.34764e+06 -395466
141 1 Mg -2.78023 30.9369 57.3962 1.2 -6.9276 -2.56763e+06 -369558 2.76929e+06 -936141 -2.47269e+06 -837993
142 1 Mg -1.38776 30.6357 49.8391 1.2 -8.05655 287111 2.01282e+06 2.11827e+06 -162289 308416 1.29244e+06
143 2 Si -0.907929 28.1491 47.9262 2.4 -33.8899 7.86204e+06 6.8568e+06 9.88466e+06 496388 2.35059e+06 368368
144 3 O -0.829229 29.7184 47.99 -1.2 -8.95766 -2.16597e+06 -4.22169e+06 -3.06704e+06 456423 -1.94714e+06 -665700
145 3 O -1.45946 27.0152 51.769 -1.2 -9.68719 -1.98393e+06 -2.73463e+06 -5.9524e+06 248417 -99978.5 -821866
146 3 O -2.07744 27.5697 48.8273 -1.2 -9.068 -703853 -3.54539e+06 -3.54119e+06 16335.8 -351918 -1.60158e+06
147 1 Mg 0.137907 26.087 46.819 1.2 -6.83396 1.77655e+06 -375576 1.06436e+06 1.12795e+06 1.59133e+06 -535232
148 3 O 0.55579 27.5065 48.3893 -1.2 -8.9313 -1.26252e+06 -1.60849e+06 -2.30863e+06 -299560 -337597 441662
149 1 Mg 1.46138 26.0903 54.5902 1.2 -7.68878 1.47446e+06 2.17807e+06 993349 -59333.9 -38961.5 1.58098e+06
150 2 Si 1.63982 28.8286 56.3738 2.4 -32.1387 3.25069e+06 6.22185e+06 1.09946e+07 -677478 370142 414281
151 3 O 1.68993 27.1959 56.4378 -1.2 -9.98892 -2.90167e+06 -1.04943e+06 -5.41385e+06 12124.2 346211 -1.61414e+06
152 3 O 1.6432 29.7522 52.7291 -1.2 -9.74901 -1.68614e+06 -2.04135e+06 -4.8442e+06 228035 -238745 -1.34126e+06
153 3 O 0.451567 29.4778 55.5607 -1.2 -9.98335 -1.85495e+06 -2.90566e+06 -3.50065e+06 -362411 -717662 -648646
154 3 O 2.9376 29.42 55.7749 -1.2 -9.68385 -2.41551e+06 -5.28835e+06 -3.82922e+06 208775 500308 13360.4
155 1 Mg 0.0647462 28.3794 52.2059 1.2 -7.22051 -1.1554e+06 -508885 4.63842e+06 -1.21414e+06 1.89715e+06 1.54318e+06
156 1 Mg 2.10696 28.1021 49.4531 1.2 -7.53472 1.66473e+06 617092 260168 105485 -194921 632140
157 2 Si 1.57592 30.4257 51.2442 2.4 -32.064 5.82232e+06 4.961e+06 1.11422e+07 64510.8 195372 1.8215e+06
158 3 O 1.68288 31.9926 51.3043 -1.2 -10.2652 -2.06655e+06 -1.97416e+06 -4.16695e+06 627696 -139955 -484303
159 3 O 1.53168 29.2578 57.87 -1.2 -9.58703 -1.35008e+06 -4.6593e+06 -5.70127e+06 -113494 1.41784e+06 -261533
160 3 O 0.258524 29.7935 50.6632 -1.2 -9.39791 -2.29656e+06 -2.48856e+06 -4.86391e+06 1.15622e+06 -859152 -1.06154e+06
161 1 Mg -2.90462 28.3797 52.308 1.2 -7.01384 -1.26882e+06 -1.11689e+06 4.04297e+06 1.79622e+06 -2.03958e+06 1.55183e+06
162 3 O 2.81205 29.7787 50.4664 -1.2 -9.81884 -2.27141e+06 -2.1988e+06 -2.51702e+06 -283348 952580 -976180
163 1 Mg -1.33636 28.5264 55.0356 1.2 -7.56661 1.93982e+06 1.60655e+06 -22650.3 316317 -798693 -220981
164 2 Si -1.51558 26.3559 53.2114 2.4 -31.9293 6.00321e+06 5.25208e+06 1.08455e+07 1.22477e+06 -310379 2.30751e+06
165 3 O -1.5581 24.7769 53.1266 -1.2 -10.0075 -2.81652e+06 -1.82219e+06 -4.11517e+06 666637 759958 133883
166 3 O -0.943026 27.648 46.4208 -1.2 -7.8905 -2.62603e+06 -2.12107e+06 -2.98431e+06 -605619 -1.50816e+06 601476
167 3 O -2.77789 27.0014 53.899 -1.2 -9.66023 -1.41449e+06 -3.12698e+06 -5.11248e+06 -405674 445108 -711783
168 3 O -0.20175 27.0804 53.9079 -1.2 -9.83467 -970587 -1.60976e+06 -3.67928e+06 875068 -342523 -415400
169 1 Mg -2.87901 35.4792 57.4317 1.2 -8.32101 1.10203e+06 -783158 4.65362e+06 -621586 -1.33472e+06 187734
170 1 Mg -1.28421 35.3899 49.8376 1.2 -8.28388 688102 1.44517e+06 2.64934e+06 -190953 65223.8 1.79217e+06
171 2 Si -0.807101 32.9036 47.9247 2.4 -33.9679 8.00923e+06 6.30575e+06 1.04163e+07 471547 2.3512e+06 1.29976e+06
172 3 O -0.727174 34.4729 47.9885 -1.2 -8.83088 -2.39314e+06 -3.77257e+06 -3.49725e+06 469936 -1.92782e+06 -1.09957e+06
173 3 O -1.35735 31.7701 51.768 -1.2 -9.8162 -1.84277e+06 -2.65221e+06 -6.24371e+06 271756 -1.05893e+06 -1.37996e+06
174 3 O -1.97695 32.3253 48.826 -1.2 -9.07142 -713780 -3.32026e+06 -3.75118e+06 33978 -349494 -2.11534e+06
175 1 Mg 0.237665 30.8412 46.8168 1.2 -6.79944 1.7205e+06 -426871 1.11992e+06 1.12447e+06 1.59776e+06 -125210
176 3 O 0.656562 32.2608 48.3877 -1.2 -8.92784 -1.25433e+06 -1.39571e+06 -2.52762e+06 -301957 -342874 -29170.1
177 1 Mg 1.70631 30.8737 54.6105 1.2 -7.77017 817674 1.47654e+06 276243 -631190 1.34964e+06 2.04095e+06
178 2 Si 1.55301 33.4261 56.3766 2.4 -33.0358 7.96454e+06 4.96798e+06 1.11819e+07 -755435 -146047 1.73558e+06
179 3 O 1.74814 31.8633 56.4445 -1.2 -10.0175 -3.2545e+06 -2.99421e+06 -5.17459e+06 -898947 714337 -1.66107e+06
180 3 O 1.74574 34.5067 52.7279 -1.2 -9.55738 -2.53048e+06 -2.4243e+06 -6.04578e+06 -149560 -543315 -2.4418e+06
181 3 O 0.361917 34.278 55.8076 -1.2 -9.06688 -4.58759e+06 -2.21372e+06 -5.70409e+06 -894962 -885698 -1.69934e+06
182 3 O 2.84801 34.0697 55.6995 -1.2 -8.7143 -3.53925e+06 -4.56331e+06 -4.81904e+06 1.45939e+06 922167 -89344.9
183 1 Mg 0.167046 33.1343 52.2045 1.2 -7.30438 -1.32391e+06 -1.66802e+06 4.87106e+06 -1.12028e+06 1.86939e+06 1.85572e+06
184 1 Mg 2.20727 32.8578 49.4516 1.2 -7.56359 1.6927e+06 328099 577941 153674 -208591 1.13999e+06
185 2 Si 1.67943 35.1802 51.2429 2.4 -32.5842 6.56175e+06 3.76664e+06 1.24735e+07 388259 1.00778e+06 2.65461e+06
186 3 O 1.78736 36.747 51.303 -1.2 -9.70289 -3.17117e+06 -894599 -5.03403e+06 963401 -308623 -405532
187 3 O 1.66211 34.0755 57.888 -1.2 -8.66525 -4.38382e+06 -2.35101e+06 -5.19774e+06 999851 526574 1.11937e+06
188 3 O 0.362533 34.5479 50.661 -1.2 -9.33452 -2.70745e+06 -2.02497e+06 -5.0931e+06 1.03973e+06 -1.03174e+06 -1.21133e+06
189 1 Mg -2.80215 33.1347 52.3062 1.2 -7.01599 -1.22777e+06 -1.40695e+06 4.57464e+06 1.90553e+06 -1.9324e+06 2.20504e+06
190 3 O 2.91593 34.533 50.466 -1.2 -9.62076 -2.26714e+06 -1.78835e+06 -3.22131e+06 -339300 918610 -1.58278e+06
191 1 Mg -1.43705 33.1023 55 1.2 -8.1273 2.23207e+06 1.03196e+06 -892220 41407.1 -515909 313952
192 2 Si -1.40921 31.1204 53.205 2.4 -31.5757 7.23856e+06 4.01936e+06 1.09821e+07 972742 -604882 2.59091e+06
193 3 O -1.44634 29.5976 53.1924 -1.2 -10.3943 -2.79282e+06 -2.50503e+06 -4.4398e+06 260651 362476 29460.2
194 3 O -0.842495 32.4028 46.4192 -1.2 -7.86841 -2.66331e+06 -1.91913e+06 -3.18481e+06 -603668 -1.50956e+06 184587
195 3 O -2.68602 31.807 53.9787 -1.2 -9.78544 -1.69402e+06 -4.22814e+06 -4.3503e+06 -1.21149e+06 5282.06 -1.58231e+06
196 3 O -0.0807564 31.9086 53.8535 -1.2 -9.54381 57639 -2.61295e+06 -4.06257e+06 1.76872e+06 -6511.69 -336790
197 1 Mg -2.81896 40.3413 56.9876 1.2 -8.38073 984461 -2.95161e+06 4.92264e+06 -1.77551e+06 -1.68837e+06 -1.4e+06
198 1 Mg -1.17787 40.1435 49.8359 1.2 -8.89598 1.36222e+06 496360 3.90631e+06 -179629 272314 854791
199 2 Si -0.702692 37.6572 47.9231 2.4 -34.5738 8.94347e+06 4.52002e+06 1.22367e+07 487587 2.31377e+06 1.38755e+06
200 3 O -0.621782 39.2264 47.9868 -1.2 -8.50266 -2.86747e+06 -2.85639e+06 -4.47407e+06 463834 -1.91991e+06 -703377
201 3 O -1.25221 36.5242 51.7666 -1.2 -9.09783 -2.72076e+06 -1.16713e+06 -8.24324e+06 -263641 -310339 -949106
202 3 O -1.87295 37.0796 48.8243 -1.2 -8.71219 -1.22434e+06 -2.41587e+06 -4.72162e+06 -21655.2 -328174 -2.31419e+06
203 1 Mg 0.341084 35.5943 46.8152 1.2 -6.95397 1.97965e+06 -1.0037e+06 1.68708e+06 1.1204e+06 1.59884e+06 180117
204 3 O 0.760681 37.0138 48.3864 -1.2 -8.62223 -1.78088e+06 -531617 -3.34754e+06 -268095 -341648 -230184
205 1 Mg 1.80322 35.4397 54.5116 1.2 -8.54278 3.09434e+06 177361 758816 -369653 -314943 1.19643e+06
206 2 Si 1.8874 38.129 56.2183 2.4 -35.0959 1.04724e+07 -1.02441e+06 1.46666e+07 -489254 -638109 254433
207 3 O 1.66101 36.6687 56.4102 -1.2 -8.8463 -4.72886e+06 -5.33989e+06 -5.75587e+06 242973 181066 -1.68855e+06
208 3 O 1.85132 39.2606 52.7264 -1.2 -8.54113 -4.25968e+06 256533 -6.32522e+06 -324729 -672745 -611869
209 3 O 0.625746 38.8657 55.5675 -1.2 -8.04032 -4.27055e+06 -907819 -7.9742e+06 -588034 -1.05941e+06 133417
210 3 O 3.10087 38.9205 55.5593 -1.2 -8.32054 -5.67532e+06 -525649 -6.79325e+06 791153 -514051 538017
211 1 Mg 0.272384 37.8883 52.2029 1.2 -8.25079 267712 -2.69862e+06 5.66756e+06 -1.2145e+06 1.99387e+06 1.09017e+06
212 1 Mg 2.31122 37.6122 49.4501 1.2 -8.01606 2.48627e+06 -722818 1.5693e+06 108486 -140672 1.12495e+06
213 2 Si 1.78573 39.934 51.2414 2.4 -34.0665 1.02284e+07 1.45651e+06 1.34589e+07 318194 449568 460723
214 3 O 1.89428 41.5006 51.3014 -1.2 -9.3354 -4.16324e+06 -710624 -4.83081e+06 745062 -287776 583457
215 3 O 1.73408 38.8123 57.6914 -1.2 -7.72736 -4.34039e+06 -1.36653e+06 -6.58828e+06 203488 -1.87146e+06 -613026
216 3 O 0.469216 39.3015 50.6588 -1.2 -8.43628 -4.07458e+06 -792117 -6.71961e+06 1.22047e+06 -378425 -706317
217 1 Mg -2.69668 37.8889 52.3043 1.2 -8.03178 660504 -1.54246e+06 5.60863e+06 1.61976e+06 -1.62711e+06 904820
218 3 O 3.0225 39.2866 50.4651 -1.2 -8.94596 -3.76544e+06 -615350 -4.00784e+06 -365107 722267 -846766
219 1 Mg -1.20066 37.8138 55.0164 1.2 -8.95132 3.65044e+06 256746 1.75029e+06 339422 66728.7 -453970
220 2 Si -1.09847 35.7406 53.1301 2.4 -33.3685 7.66354e+06 -1.35134e+06 1.32765e+07 -649542 -860635 815204
221 3 O -1.29228 34.3093 53.1723 -1.2 -9.82564 -3.49938e+06 -7.33872e+06 -5.48133e+06 1.37421e+06 464156 -1.33353e+06
222 3 O -0.738054 37.1566 46.4176 -1.2 -7.67996 -2.96255e+06 -1.21225e+06 -3.89769e+06 -605567 -1.50382e+06 107398
223 3 O -2.44017 36.3938 54.0128 -1.2 -8.25788 -1.68766e+06 -2.26081e+06 -3.92976e+06 -674674 -306621 -461973
224 3 O 0.0969902 36.4617 53.7952 -1.2 -8.81795 -5.30514e+06 -2.14137e+06 -5.54762e+06 -204788 -1.04518e+06 -49066.3
225 1 Mg -2.49024 45.1367 57.2535 1.2 -8.14583 1.26142e+06 -1.84046e+06 3.7527e+06 -1.08904e+06 -1.63003e+06 -399138
226 1 Mg -1.06993 44.8968 49.8343 1.2 -8.55933 1.04113e+06 1.18915e+06 3.00097e+06 -196879 154851 21709
227 2 Si -0.596166 42.4103 47.9215 2.4 -34.7749 9.22613e+06 4.16466e+06 1.26389e+07 485057 2.30065e+06 -615317
228 3 O -0.51472 43.9796 47.9853 -1.2 -8.56577 -2.78832e+06 -3.11164e+06 -4.18778e+06 459749 -1.91665e+06 196962
229 3 O -1.14475 41.2777 51.7649 -1.2 -8.26828 -3.20461e+06 -2.55149e+06 -6.00904e+06 306787 -1.08277e+06 -950803
230 3 O -1.76671 41.8331 48.8226 -1.2 -8.50276 -1.52547e+06 -2.09031e+06 -5.07753e+06 27464.8 -394022 -1.21794e+06
231 1 Mg 0.447076 40.3473 46.8135 1.2 -7.14429 2.27947e+06 -1.64718e+06 2.33556e+06 1.12261e+06 1.58251e+06 -415617
232 3 O 0.866985 41.7666 48.385 -1.2 -8.43746 -2.0813e+06 -157940 -3.71175e+06 -298470 -291926 794644
233 1 Mg 1.6332 40.4736 54.6135 1.2 -8.76904 2.23524e+06 -16756.7 1.42082e+06 742380 -1.52619e+06 976012
234 2 Si 1.71221 43.0036 56.4003 2.4 -34.5477 1.12256e+07 1.92786e+06 1.16633e+07 -357447 -766004 171222
235 3 O 1.52062 41.478 56.3566 -1.2 -9.21883 -4.68378e+06 -2.27722e+06 -5.90998e+06 -476138 216413 -548742
236 3 O 1.95891 44.014 52.7248 -1.2 -8.97434 -3.71044e+06 -1.57788e+06 -6.06513e+06 301478 -382688 -1.29236e+06
237 3 O 0.438331 43.8589 55.8745 -1.2 -8.1684 -2.83323e+06 -2.12262e+06 -6.75246e+06 -514477 -2811.22 -19178.4
238 3 O 3.0136 43.5582 55.6447 -1.2 -8.63356 -3.74613e+06 -2.20746e+06 -5.89982e+06 2.05717e+06 501677 -915329
239 1 Mg 0.379928 42.6418 52.2013 1.2 -8.26314 209336 -2.55906e+06 4.89497e+06 -920578 2.13259e+06 877783
240 1 Mg 2.41752 42.366 49.4484 1.2 -8.15784 2.79741e+06 -833001 1.60426e+06 121425 -121927 48905.6
241 2 Si 1.89374 44.6874 51.2398 2.4 -33.316 8.16885e+06 3.04315e+06 1.27885e+07 412859 686490 -143880
242 3 O 2.00266 46.254 51.2996 -1.2 -9.7972 -2.74919e+06 -1.38714e+06 -5.02954e+06 713261 -568262 789482
243 3 O 1.82448 43.6806 57.8258 -1.2 -8.26434 -5.82792e+06 -1.59106e+06 -7.26898e+06 979306 -1.04956e+06 1.14306e+06
244 3 O 0.577464 44.0549 50.6567 -1.2 -8.72821 -3.77633e+06 -1.31949e+06 -6.01203e+06 879337 -561424 236904
245 1 Mg -2.58906 42.6425 52.3022 1.2 -8.03684 -166421 -2.32318e+06 4.84844e+06 1.25162e+06 -2.39861e+06 494011
246 3 O 3.13067 44.0398 50.464 -1.2 -9.11333 -3.36118e+06 -1.1451e+06 -3.85768e+06 -134864 642832 25101.4
247 1 Mg -1.28897 42.8349 55.0007 1.2 -8.54948 2.26751e+06 -94362.2 3.24397e+06 1.02263e+06 760723 -640734
248 2 Si -1.12427 40.649 53.2982 2.4 -34.261 8.6029e+06 2.74511e+06 1.46838e+07 -399795 -1.90959e+06 -299979
249 3 O -1.09865 39.0675 53.1235 -1.2 -8.85119 -4.33905e+06 982847 -6.35137e+06 598275 694414 1.06617e+06
250 3 O -0.631421 41.9099 46.4159 -1.2 -7.58739 -3.1044e+06 -900912 -4.21359e+06 -604856 -1.50285e+06 867842
251 3 O -2.43394 41.2863 54.0162 -1.2 -8.60482 -1.69699e+06 -2.16309e+06 -4.86327e+06 -981816 -181706 -375066
252 3 O 0.122587 41.3758 53.8162 -1.2 -8.87166 -5.26254e+06 -2.00949e+06 -8.01574e+06 919642 -2.47633e+06 312735
253 1 Mg -2.5984 49.7506 57.3855 1.2 -7.91332 -193315 -2.21742e+06 3.26503e+06 -664641 -2.49039e+06 -438612
254 1 Mg -0.961069 49.6502 49.8327 1.2 -8.31217 567767 1.35236e+06 2.90891e+06 -186814 109096 191999
255 2 Si -0.488083 47.1636 47.9198 2.4 -34.3008 8.54851e+06 5.2384e+06 1.14813e+07 477467 2.30781e+06 -1.11235e+06
256 3 O -0.40607 48.7329 47.9837 -1.2 -8.80231 -2.42299e+06 -3.52586e+06 -3.76094e+06 469041 -1.91225e+06 256378
257 3 O -1.0361 46.031 51.7632 -1.2 -9.38711 -3.01158e+06 -3.04035e+06 -8.32002e+06 455804 539639 440476
258 3 O -1.65866 46.5866 48.821 -1.2 -8.80091 -1.09517e+06 -2.71944e+06 -4.39315e+06 13907.8 -307069 -936925
259 1 Mg 0.554124 45.1001 46.8117 1.2 -7.0405 2.1199e+06 -1.30792e+06 1.9904e+06 1.12596e+06 1.59388e+06 -1.04736e+06
260 3 O 0.974961 46.5195 48.3832 -1.2 -8.68761 -1.67221e+06 -745946 -3.1269e+06 -288648 -353985 1.14257e+06
261 1 Mg 1.8923 45.0624 54.5229 1.2 -8.55931 1.44403e+06 148893 2.09731e+06 703232 -1.35435e+06 814752
262 2 Si 1.90538 47.7364 56.4071 2.4 -33.1807 8.427e+06 5.51942e+06 1.31214e+07 -484325 -678473 209348
263 3 O 1.94518 46.1394 56.454 -1.2 -9.3921 -4.5743e+06 -989687 -4.56115e+06 -565718 -142967 438479
264 3 O 2.0677 48.7672 52.7232 -1.2 -9.28769 -2.84774e+06 -1.21942e+06 -5.82496e+06 534124 -91393.9 -305131
265 3 O 0.578924 48.4311 55.8597 -1.2 -8.74124 -2.28834e+06 -2.10283e+06 -5.24516e+06 -1.00153e+06 471116 599905
266 3 O 3.09787 48.4416 55.6494 -1.2 -9.40064 -3.25894e+06 -1.25736e+06 -3.69882e+06 518135 -631368 -773220
267 1 Mg 0.488584 47.395 52.1996 1.2 -7.51773 -429570 -1.95843e+06 5.36962e+06 -1.45546e+06 2.1817e+06 440016
268 1 Mg 2.52544 47.1195 49.4466 1.2 -7.82605 2.10373e+06 -213798 1.15124e+06 136502 -141616 -127253
269 2 Si 2.00256 49.4407 51.2382 2.4 -32.6949 7.48211e+06 3.24948e+06 1.22514e+07 365462 690515 -732112
270 3 O 2.11156 51.0073 51.2982 -1.2 -10.0757 -2.94998e+06 -1.48156e+06 -4.34464e+06 780821 -692469 1.11033e+06
271 3 O 1.82742 48.4442 57.9711 -1.2 -8.85276 -4.23453e+06 -990946 -3.61982e+06 -147256 -2.34082e+06 1.95197e+06
272 3 O 0.686344 48.8082 50.655 -1.2 -9.1157 -3.14237e+06 -1.55755e+06 -5.53835e+06 1.17572e+06 -774205 133842