ITEM: TIMESTEP
46300
ITEM: NUMBER OF ATOMS
10500
ITEM: BOX BOUNDS xy xz yz pp pp pp
0.0000000000000000e+00 8.9687999999999999e+00 2.9895999999999998e+00
0.0000000000000000e+00 1.1872499999999999e+02 0.0000000000000000e+00
0.0000000000000000e+00 2.5297749999999999e+02 0.0000000000000000e+00
ITEM: ATOMS id type element xu yu zu q c_pe c_s[1] c_s[2] c_s[3] c_s[4] c_s[5] c_s[6]
1 1 Mg -3.08965 7.08651 57.3678 1.2 -8.50851 434058 -1.39823e+06 4.82226e+06 -850849 -1.00921e+06 -891016
2 1 Mg -1.82655 6.90154 50.0912 1.2 -8.78609 944125 1.46295e+06 868562 -94805.5 -246106 1.12894e+06
3 2 Si -0.257935 3.96038 48.0876 2.4 -36.9839 1.14904e+07 9.66481e+06 9.95307e+06 797164 1.9756e+06 1.98556e+06
4 3 O -0.335812 5.46814 47.6264 -1.2 -7.30683 -3.85054e+06 -2.89717e+06 -2.10386e+06 145473 -968576 -625355
5 3 O -2.03793 3.43377 51.8941 -1.2 -8.27721 -4.04232e+06 -1.41684e+06 -8.06898e+06 -542249 410956 -2.02094e+06
6 3 O -1.54015 3.53929 48.9521 -1.2 -7.84172 -2.03462e+06 -2.06502e+06 -3.89566e+06 46632.6 -760965 -412262
7 1 Mg 1.82954 2.54582 47.1376 1.2 -8.41212 3.28179e+06 32431.2 214358 1.14947e+06 825094 730859
8 3 O 1.22989 3.66364 48.7877 -1.2 -7.55311 -2.39506e+06 -2.81803e+06 -3.25052e+06 -493472 -699547 -1.12218e+06
9 1 Mg 1.04968 2.22164 54.446 1.2 -9.0671 4.1758e+06 1.3425e+06 -655613 -410909 428074 -359921
10 2 Si 1.25902 4.97602 56.3133 2.4 -34.6082 9.32217e+06 4.37103e+06 1.26561e+07 375538 491526 -724434
11 3 O 1.01025 3.49819 56.4918 -1.2 -9.19852 -3.9647e+06 -3.10819e+06 -4.23913e+06 -256280 -11233.8 -975018
12 3 O 1.10813 6.07342 52.8172 -1.2 -8.30817 -4.15504e+06 -2.46126e+06 -4.67057e+06 481959 -59426.5 -503611
13 3 O 0.0418296 5.83334 55.6789 -1.2 -8.17723 -4.51435e+06 -1.26722e+06 -3.74859e+06 -493160 -622913 445301
14 3 O 2.49221 5.73583 55.6859 -1.2 -8.00973 -5.24765e+06 -621662 -6.21046e+06 1.04102e+06 1.54811e+06 -71825
15 1 Mg -0.459401 4.67631 52.2426 1.2 -8.76864 913461 -1.16612e+06 5.19545e+06 -1.03068e+06 927097 605550
16 1 Mg 2.79456 3.9971 49.9987 1.2 -8.86169 4.41853e+06 144983 1.38935e+06 -498467 853882 -685080
17 2 Si 1.16169 6.59457 51.2556 2.4 -34.7686 9.21628e+06 6.70061e+06 1.11076e+07 39285.2 541602 1.64132e+06
18 3 O 1.28989 8.18905 51.2909 -1.2 -8.97187 -3.87058e+06 -2.26428e+06 -2.85768e+06 364713 -719190 1.22893e+06
19 3 O 1.36465 5.65356 57.8828 -1.2 -8.33222 -4.08447e+06 -844237 -5.10655e+06 -119060 -31088 1.97731e+06
20 3 O -0.184847 6.06029 50.6845 -1.2 -8.16726 -3.86429e+06 -3.3852e+06 -4.70069e+06 1.49029e+06 -451922 -1.12453e+06
21 1 Mg -3.49704 4.67769 52.6661 1.2 -8.54214 1.31262e+06 -2.26426e+06 2.96321e+06 1.93658e+06 -799192 791347
22 3 O 2.48581 5.93312 50.6539 -1.2 -8.69227 -3.96574e+06 -1.70194e+06 -2.93391e+06 -1.61279e+06 -557118 -582477
23 1 Mg -1.65611 4.61315 55.2897 1.2 -9.11769 3.39232e+06 2.77517e+06 1.14097e+06 -185608 -218803 -810566
24 2 Si -1.98792 2.58045 53.2432 2.4 -35.1038 8.65231e+06 5.16745e+06 1.19375e+07 219758 324156 -1.49387e+06
25 3 O -1.92035 1.04221 53.2543 -1.2 -8.92061 -4.64814e+06 -3.33261e+06 -4.50955e+06 -331428 -174935 -420688
26 3 O -0.0467762 2.97103 46.8385 -1.2 -6.58482 -3.64241e+06 -2.67346e+06 -2.35846e+06 -989449 -2.00561e+06 -824802
27 3 O -3.15724 3.26298 54.0826 -1.2 -8.10912 -5.6985e+06 -3.21863e+06 -4.28432e+06 -765589 726540 2.01866e+06
28 3 O -0.709332 3.26106 53.9568 -1.2 -7.77719 -5.37184e+06 -3.91209e+06 -3.8787e+06 1.25924e+06 -314284 1.85716e+06
29 1 Mg -3.18931 11.7617 57.5391 1.2 -7.36673 -908251 -2.13216e+06 3.61481e+06 -2.5155e+06 -1.41668e+06 -1.30579e+06
30 1 Mg -1.75014 11.5838 49.8362 1.2 -9.07009 1.90079e+06 2.6872e+06 1.64535e+06 -309153 369623 749176
31 2 Si -1.18003 9.02138 47.9309 2.4 -35.5281 1.01994e+07 8.35043e+06 8.57932e+06 244841 2.62591e+06 173154
32 3 O -1.23224 10.5991 47.9811 -1.2 -8.14078 -3.42339e+06 -4.19892e+06 -2.1736e+06 650352 -1.93682e+06 117918
33 3 O -1.79016 8.01447 51.8693 -1.2 -8.52294 -3.58251e+06 -2.57388e+06 -3.46186e+06 -7224.24 387516 -1.76429e+06
34 3 O -2.30986 8.37215 48.8528 -1.2 -8.40113 -1.93847e+06 -3.12845e+06 -2.77642e+06 -335797 -616164 -666051
35 1 Mg 0.154883 7.08234 46.8007 1.2 -8.03014 2.7033e+06 347065 298232 943405 1.72456e+06 -955226
36 3 O 0.325447 8.50934 48.3809 -1.2 -8.05821 -2.31657e+06 -2.55772e+06 -2.15755e+06 -35796 -824142 474216
37 1 Mg 1.28722 7.31564 54.608 1.2 -9.28318 2.25105e+06 1.73101e+06 718659 -719567 486504 492980
38 2 Si 1.43627 9.8219 56.6207 2.4 -33.0592 7.51741e+06 4.20901e+06 1.21364e+07 1.09747e+06 -199366 -807410
39 3 O 1.32453 8.30276 56.5291 -1.2 -9.06965 -4.46243e+06 -3.56233e+06 -4.33766e+06 1.469e+06 -459411 718000
40 3 O 1.28624 10.7248 52.7351 -1.2 -8.46313 -3.76355e+06 -3.50742e+06 -3.02085e+06 249425 -510156 -240831
41 3 O 0.132779 10.4189 55.9792 -1.2 -8.93629 -2.66263e+06 -5.65949e+06 -3.7856e+06 -180113 349620 -688739
42 3 O 2.67599 10.5747 55.8164 -1.2 -9.08892 -3.30773e+06 -4.14732e+06 -2.67087e+06 1.66058e+06 -226990 -487018
43 1 Mg -0.262694 9.34741 52.2523 1.2 -8.47895 615327 59040.4 4.09698e+06 -1.27701e+06 1.57017e+06 509025
44 1 Mg 1.87648 9.01537 49.4629 1.2 -8.46291 2.94719e+06 1.16708e+06 -339558 214859 -284944 92538.8
45 2 Si 1.21415 11.3799 51.2378 2.4 -34.5042 9.90719e+06 6.79567e+06 9.54383e+06 172214 162854 591026
46 3 O 1.31634 12.9512 51.3023 -1.2 -9.00836 -4.50132e+06 -2.43169e+06 -3.49848e+06 509992 -20196.7 848119
47 3 O 1.49459 10.478 58.1257 -1.2 -9.47313 -3.39352e+06 -2.77087e+06 -3.67564e+06 -1.19429e+06 22193.2 1.36747e+06
48 3 O -0.115718 10.7564 50.681 -1.2 -8.25128 -3.87352e+06 -3.35226e+06 -4.01902e+06 1.20702e+06 -682620 -558574
49 1 Mg -3.26386 9.35564 52.3622 1.2 -8.22457 1.00508e+06 -294897 2.96242e+06 1.52443e+06 -1.59206e+06 658401
50 3 O 2.45216 10.7265 50.4558 -1.2 -8.80577 -3.8506e+06 -2.70595e+06 -1.37406e+06 -755735 717568 79202.3
51 1 Mg -1.7479 9.68943 55.2193 1.2 -8.61616 2.46341e+06 1.39743e+06 727391 382011 1.00338e+06 -1.18886e+06
52 2 Si -1.78591 7.38438 53.4431 2.4 -34.4779 1.08067e+07 8.79994e+06 1.08033e+07 1.39117e+06 550431 -1.21519e+06
53 3 O -1.93001 5.77685 53.4231 -1.2 -8.42026 -4.80669e+06 -392786 -4.48396e+06 784976 722463 293336
54 3 O -1.19417 8.46968 46.4488 -1.2 -7.10871 -3.5748e+06 -2.54618e+06 -2.44481e+06 -542752 -1.74374e+06 815303
55 3 O -3.04407 8.12144 54.0409 -1.2 -8.54667 -5.08765e+06 -4.62257e+06 -3.80433e+06 -1.51549e+06 1.42564e+06 1.2757e+06
56 3 O -0.477816 8.18894 54.0633 -1.2 -8.20517 -2.23832e+06 -3.28872e+06 -2.93825e+06 2.13565e+06 -677967 1.58528e+06
57 1 Mg -3.19422 16.6287 57.3941 1.2 -8.15149 85979.5 -575942 3.47179e+06 -1.95491e+06 -1.45694e+06 -796042
58 1 Mg -1.6714 16.3544 49.8412 1.2 -8.96205 1.61551e+06 2.90807e+06 1.40008e+06 -221729 201791 813218
59 2 Si -1.18567 13.8526 47.9314 2.4 -35.4541 1.03683e+07 7.62081e+06 9.04742e+06 489298 2.27865e+06 -578215
60 3 O -1.09664 15.4205 47.9915 -1.2 -8.19211 -3.30888e+06 -4.64712e+06 -2.44735e+06 431463 -1.93443e+06 -102089
61 3 O -1.73493 12.7491 51.7772 -1.2 -8.2192 -4.4863e+06 -2.336e+06 -4.52441e+06 413121 -430351 -1.25277e+06
62 3 O -2.36115 13.2717 48.8238 -1.2 -8.21644 -2.11755e+06 -3.77441e+06 -3.12972e+06 -96375.2 -384117 -1.10358e+06
63 1 Mg -0.159928 11.7639 46.8533 1.2 -7.54807 2.95059e+06 25510 628512 1.12749e+06 1.57465e+06 -927017
64 3 O 0.2623 13.1866 48.413 -1.2 -8.12635 -2.55736e+06 -1.81557e+06 -1.98757e+06 -202445 -285556 931703
65 1 Mg 1.26199 11.9611 54.6945 1.2 -8.52862 2.37485e+06 2.28986e+06 540394 65560.1 59922.4 124146
66 2 Si 1.34843 14.4561 56.4388 2.4 -33.1365 9.57677e+06 4.61142e+06 8.9098e+06 583150 -651918 1.27248e+06
67 3 O 1.3088 12.9331 56.513 -1.2 -9.90493 -4.09956e+06 -4.26705e+06 -3.32788e+06 546944 448633 -685153
68 3 O 1.36565 15.4813 52.729 -1.2 -8.96843 -3.54595e+06 -3.22843e+06 -3.08032e+06 -455437 -814045 -994448
69 3 O 0.0125718 15.0906 55.8727 -1.2 -8.85281 -3.46112e+06 -3.89097e+06 -4.80672e+06 -786456 -1.41106e+06 -401593
70 3 O 2.65159 15.1257 55.7818 -1.2 -8.89676 -3.0294e+06 -2.97915e+06 -4.79476e+06 1.02958e+06 1.61011e+06 -642431
71 1 Mg -0.206989 14.1049 52.2121 1.2 -8.4992 771096 -137559 3.1362e+06 -1.33632e+06 1.51314e+06 1.12027e+06
72 1 Mg 1.82591 13.8102 49.4556 1.2 -8.44498 3.1979e+06 1.18764e+06 -306536 155595 -159871 101146
73 2 Si 1.29285 16.1518 51.2434 2.4 -33.8723 9.33734e+06 6.88228e+06 8.5926e+06 414136 670965 533817
74 3 O 1.39496 17.7199 51.3047 -1.2 -9.37808 -3.90313e+06 -2.69773e+06 -2.66976e+06 628760 -786723 243598
75 3 O 1.38927 15.3335 57.8342 -1.2 -8.82008 -6.0788e+06 -1.97759e+06 -5.36613e+06 120732 -266629 1.42212e+06
76 3 O -0.0269106 15.5178 50.6688 -1.2 -8.48328 -3.85229e+06 -3.42641e+06 -3.63748e+06 1.15953e+06 -864323 -256508
77 1 Mg -3.18391 14.1057 52.3125 1.2 -8.22963 843591 -202571 3.03901e+06 1.63042e+06 -1.50051e+06 963837
78 3 O 2.52432 15.503 50.4579 -1.2 -8.87278 -3.65107e+06 -3.09414e+06 -1.45706e+06 -391746 879756 -284410
79 1 Mg -1.67113 14.203 55.3197 1.2 -8.51671 467403 1.78384e+06 106291 264022 324412 339635
80 2 Si -1.74312 12.0386 53.2681 2.4 -34.1092 1.09661e+07 6.1956e+06 8.14402e+06 1.2085e+06 -559236 -567039
81 3 O -1.72012 10.5249 53.2642 -1.2 -9.13598 -4.96531e+06 -5.76409e+06 -2.48477e+06 1.04096e+06 845323 1.74218e+06
82 3 O -1.21337 13.3381 46.4311 -1.2 -7.17346 -3.83534e+06 -2.43718e+06 -2.60607e+06 -630413 -1.4564e+06 1.00846e+06
83 3 O -2.97651 12.7204 53.9121 -1.2 -8.73321 -3.11296e+06 -5.00517e+06 -3.72262e+06 -1.2126e+06 1.26437e+06 292791
84 3 O -0.305251 12.8217 53.7725 -1.2 -8.42816 -1.51575e+06 -3.38498e+06 -3.05834e+06 2.64523e+06 -631886 255541
85 1 Mg -2.99931 21.1424 57.314 1.2 -7.94825 497873 337896 3.84117e+06 -1.86809e+06 -1.12074e+06 -493610
86 1 Mg -1.5831 21.1217 49.8405 1.2 -9.01704 1.67723e+06 2.48311e+06 1.82e+06 -159817 206322 810445
87 2 Si -1.09384 18.6291 47.9287 2.4 -35.4374 1.03126e+07 7.7249e+06 9.03312e+06 490059 2.29697e+06 -2052.79
88 3 O -1.02071 20.1985 47.9911 -1.2 -8.1666 -3.40474e+06 -4.58028e+06 -2.63403e+06 452178 -1.91925e+06 -326757
89 3 O -1.65002 17.5002 51.771 -1.2 -8.63534 -2.47613e+06 -2.09627e+06 -3.50819e+06 516192 383344 -1.65438e+06
90 3 O -2.26174 18.0434 48.8281 -1.2 -8.25841 -1.94775e+06 -3.9523e+06 -3.15099e+06 -17301.6 -370539 -1.41618e+06
91 1 Mg -0.0440435 16.5651 46.8269 1.2 -7.52786 2.86284e+06 164722 528862 1.13252e+06 1.57841e+06 -687646
92 3 O 0.37001 17.9877 48.3925 -1.2 -8.1573 -2.54428e+06 -2.05944e+06 -1.81627e+06 -285116 -321661 599958
93 1 Mg 1.30864 16.5028 54.592 1.2 -8.41623 3.92606e+06 2.32183e+06 -33509 53931.8 -302799 1.26179e+06
94 2 Si 1.37725 19.3248 56.3322 2.4 -33.9122 8.18025e+06 5.19008e+06 9.20602e+06 -1.01304e+06 -294059 427754
95 3 O 1.30603 17.8053 56.4357 -1.2 -9.07795 -4.93837e+06 -4.09099e+06 -3.92914e+06 -663941 748607 189343
96 3 O 1.45147 20.239 52.7294 -1.2 -8.77077 -4.44783e+06 -2.89765e+06 -4.77795e+06 1.16878e+06 -372352 -1.62936e+06
97 3 O 0.0860785 20.0104 55.6929 -1.2 -8.73874 -3.12278e+06 -5.68354e+06 -1.95995e+06 -198760 -159875 321043
98 3 O 2.63079 19.8481 55.5948 -1.2 -8.76148 -3.44217e+06 -5.21571e+06 -3.24317e+06 -330232 1.182e+06 89749.1
99 1 Mg -0.126194 18.8651 52.2079 1.2 -8.12373 1.10226e+06 162009 3.83161e+06 -1.09256e+06 1.55665e+06 1.02312e+06
100 1 Mg 1.92402 18.5815 49.4545 1.2 -8.38986 3.07961e+06 1.10108e+06 -284808 118580 -78465.2 449305
101 2 Si 1.38106 20.9117 51.2443 2.4 -34.0674 9.89738e+06 5.73643e+06 9.57633e+06 -62260.4 425188 1.09501e+06
102 3 O 1.48527 22.4795 51.3054 -1.2 -9.28351 -3.86667e+06 -2.47662e+06 -3.42999e+06 658612 -145896 189677
103 3 O 1.4984 19.9258 57.8715 -1.2 -8.97864 -3.35866e+06 -4.37964e+06 -2.25695e+06 -48512.7 -72849.4 -68954.5
104 3 O 0.0615419 20.2804 50.6669 -1.2 -8.42123 -4.14831e+06 -2.90312e+06 -4.19567e+06 1.11374e+06 -653780 -741209
105 1 Mg -3.09665 18.8643 52.3122 1.2 -8.2292 46143.4 -216017 3.60655e+06 1.49834e+06 -1.79837e+06 997968
106 3 O 2.61548 20.2646 50.4626 -1.2 -8.80217 -3.81822e+06 -2.64316e+06 -2.13082e+06 -303384 632886 -574772
107 1 Mg -1.47528 18.9714 55.0372 1.2 -8.72621 2.43376e+06 2.33832e+06 439681 -241004 210563 -1.20516e+06
108 2 Si -1.68266 16.7649 53.2897 2.4 -34.0131 7.65603e+06 7.16445e+06 1.10007e+07 107582 -323776 -261417
109 3 O -1.71729 15.2243 53.2929 -1.2 -9.08284 -3.96534e+06 -4.07267e+06 -2.61129e+06 628991 410893 -608674
110 3 O -1.12868 18.1227 46.4249 -1.2 -7.18397 -3.77037e+06 -2.54428e+06 -2.54132e+06 -603566 -1.49357e+06 788411
111 3 O -2.93833 17.4626 53.9406 -1.2 -8.46115 -4.19518e+06 -4.27764e+06 -3.5244e+06 -207114 -44169.2 -536240
112 3 O -0.457915 17.4982 54.0203 -1.2 -8.8668 -3.90442e+06 -2.3754e+06 -2.6003e+06 557884 -371909 46695.3
113 1 Mg -2.94321 25.9419 57.4003 1.2 -8.7704 33853.4 -991927 4.35582e+06 -1.4342e+06 -1.66149e+06 -1.80148e+06
114 1 Mg -1.48778 25.88 49.8402 1.2 -9.02464 1.77428e+06 2.31016e+06 1.88777e+06 -228647 133508 1.0458e+06
115 2 Si -1.00491 23.3922 47.9274 2.4 -35.4564 1.03677e+07 7.46621e+06 9.27567e+06 491795 2.33365e+06 90471.6
116 3 O -0.927602 24.9615 47.9909 -1.2 -8.14925 -3.46175e+06 -4.48224e+06 -2.77635e+06 464467 -1.92585e+06 -401437
117 3 O -1.55795 22.2588 51.7696 -1.2 -8.66454 -3.43631e+06 -3.29778e+06 -4.81701e+06 344920 -431964 -658705
118 3 O -2.17411 22.8111 48.8277 -1.2 -8.25197 -1.99368e+06 -3.8558e+06 -3.24072e+06 12168 -353773 -1.47151e+06
119 1 Mg 0.0423997 21.3296 46.8225 1.2 -7.53237 2.89457e+06 21378.6 660850 1.12811e+06 1.58792e+06 -549139
120 3 O 0.458537 22.7495 48.3911 -1.2 -8.14305 -2.54438e+06 -1.91448e+06 -1.98595e+06 -299680 -335652 537942
121 1 Mg 1.44409 21.2474 54.4816 1.2 -8.97128 2.66923e+06 1.82118e+06 -844482 226396 -497597 1.75905e+06
122 2 Si 1.46091 23.9277 56.2952 2.4 -35.2666 8.22218e+06 3.47532e+06 1.03932e+07 469658 -230848 1.76211e+06
123 3 O 1.48978 22.4249 56.2817 -1.2 -8.69526 -4.92375e+06 -4.4412e+06 -3.62156e+06 -629586 759044 -1.16325e+06
124 3 O 1.54441 24.9963 52.7297 -1.2 -8.68433 -3.55699e+06 -2.98263e+06 -4.70842e+06 33477.9 -489040 -1.31957e+06
125 3 O 0.210924 24.6612 55.8044 -1.2 -8.27188 -6.23639e+06 -2.9444e+06 -3.92925e+06 581339 -1.45143e+06 727735
126 3 O 2.66869 24.6351 55.6491 -1.2 -8.07028 -5.91253e+06 -5.02202e+06 -4.86358e+06 -401776 2.08093e+06 218799
127 1 Mg -0.0335968 23.6229 52.2067 1.2 -8.22559 78061.3 -674492 3.95065e+06 -1.0175e+06 2.206e+06 948945
128 1 Mg 2.01073 23.3445 49.4541 1.2 -8.39559 3.04777e+06 952967 -88457.7 115607 -177627 467723
129 2 Si 1.47594 25.6699 51.2449 2.4 -34.1486 9.3626e+06 5.5993e+06 1.03237e+07 520727 769994 1.14749e+06
130 3 O 1.58172 27.2371 51.3054 -1.2 -9.12063 -4.13009e+06 -2.11438e+06 -3.80841e+06 743943 -401874 200650
131 3 O 1.56352 24.641 57.8444 -1.2 -7.91834 -4.28769e+06 -1.02908e+06 -4.91684e+06 -1.54482e+06 5116.86 1.59544e+06
132 3 O 0.157925 25.0378 50.6651 -1.2 -8.44599 -4.04219e+06 -2.82873e+06 -4.44869e+06 1.11045e+06 -852570 -566952
133 1 Mg -3.00341 23.6231 52.3098 1.2 -8.01382 441936 -420061 3.89047e+06 1.80786e+06 -1.90142e+06 1.44473e+06
134 3 O 2.71149 25.0232 50.4656 -1.2 -8.83336 -3.64205e+06 -2.65215e+06 -2.10395e+06 -393764 950051 -850427
135 1 Mg -1.57158 23.6256 55.1009 1.2 -8.81454 4.14372e+06 1.94632e+06 216078 -183771 100670 -1.06927e+06
136 2 Si -1.52978 21.6378 53.2529 2.4 -34.032 9.40524e+06 6.37108e+06 1.00495e+07 317992 -479907 978235
137 3 O -1.66994 20.0443 53.1704 -1.2 -8.9626 -4.20971e+06 -1.53443e+06 -4.09616e+06 -531790 465908 406260
138 3 O -1.03938 22.8897 46.4223 -1.2 -7.17703 -3.77105e+06 -2.44385e+06 -2.65102e+06 -606507 -1.50248e+06 709631
139 3 O -2.7684 22.3641 53.9916 -1.2 -8.70776 -2.58235e+06 -4.12185e+06 -3.71269e+06 -449488 1.03177e+06 -769192
140 3 O -0.169004 22.1655 53.8226 -1.2 -8.56556 -3.82237e+06 -4.09241e+06 -4.70156e+06 977794 -1.34137e+06 42021.1
141 1 Mg -2.9712 30.7492 57.3035 1.2 -7.86807 -73551.7 -1.15924e+06 3.92875e+06 -2.19423e+06 -1.78177e+06 -114882
142 1 Mg -1.38776 30.6357 49.8391 1.2 -9.02948 1.81094e+06 2.20142e+06 1.96606e+06 -182197 115370 535357
143 2 Si -0.907929 28.1491 47.9262 2.4 -35.5257 1.04993e+07 6.93586e+06 9.78926e+06 487889 2.29641e+06 -78530.4
144 3 O -0.829229 29.7184 47.99 -1.2 -8.13053 -3.50464e+06 -4.29751e+06 -2.977e+06 458753 -1.91548e+06 -163859
145 3 O -1.45946 27.0152 51.769 -1.2 -8.47105 -3.41472e+06 -1.67192e+06 -4.29876e+06 271206 551202 -1.45071e+06
146 3 O -2.07744 27.5697 48.8273 -1.2 -8.18958 -2.05122e+06 -3.54708e+06 -3.60816e+06 13919.2 -321865 -1.48814e+06
147 1 Mg 0.137907 26.087 46.819 1.2 -7.5468 2.92558e+06 -146395 828218 1.12463e+06 1.59392e+06 -517865
148 3 O 0.55579 27.5065 48.3893 -1.2 -8.10075 -2.63631e+06 -1.64373e+06 -2.23135e+06 -295145 -346154 554572
149 1 Mg 1.53604 26.042 54.5513 1.2 -9.18023 3.21548e+06 1.79557e+06 355556 653693 -475014 945247
150 2 Si 1.65767 28.7162 56.4185 2.4 -34.4587 1.09981e+07 3.67444e+06 1.04325e+07 -1.89432e+06 858218 -1.56013e+06
151 3 O 1.66783 27.2635 56.4825 -1.2 -8.7102 -4.4655e+06 -5.76829e+06 -4.25823e+06 224188 -693935 -19476.7
152 3 O 1.6432 29.7522 52.7291 -1.2 -8.32466 -4.13047e+06 -1.9102e+06 -4.65352e+06 -151358 -593850 -719627
153 3 O 0.261195 29.4865 55.6981 -1.2 -7.86863 -2.23897e+06 -2.77709e+06 -1.8101e+06 -1.55979e+06 1.19471e+06 -213187
154 3 O 2.84411 29.4821 55.6241 -1.2 -8.17008 -4.02047e+06 -3.76318e+06 -3.82831e+06 1.14815e+06 151177 195265
155 1 Mg 0.0647462 28.3794 52.2059 1.2 -8.42776 1.44691e+06 -1.03694e+06 4.2785e+06 -1.20101e+06 2.03496e+06 1.04038e+06
156 1 Mg 2.10696 28.1021 49.4531 1.2 -8.48148 3.16302e+06 572018 323411 115005 -103036 386186
157 2 Si 1.57592 30.4257 51.2442 2.4 -34.3153 9.60165e+06 5.11557e+06 1.08142e+07 341872 959971 76160.7
158 3 O 1.68288 31.9926 51.3043 -1.2 -9.22197 -3.87986e+06 -2.34761e+06 -3.56825e+06 750295 -819943 608828
159 3 O 1.73397 29.4115 57.8529 -1.2 -9.0095 -3.19336e+06 -4.30822e+06 -4.90721e+06 487153 141593 480932
160 3 O 0.258524 29.7935 50.6632 -1.2 -8.37088 -4.31939e+06 -2.40321e+06 -4.58373e+06 1.08213e+06 -881473 -231849
161 1 Mg -2.90462 28.3797 52.308 1.2 -8.51187 469030 -283696 4.06987e+06 1.24061e+06 -1.96061e+06 695633
162 3 O 2.81205 29.7787 50.4664 -1.2 -8.70329 -3.80112e+06 -2.32195e+06 -2.71763e+06 -269375 811248 -349195
163 1 Mg -1.40134 28.5302 54.9733 1.2 -9.26959 4.44087e+06 2.46857e+06 -75106.6 303849 213206 -1.05802e+06
164 2 Si -1.32765 26.2741 53.2541 2.4 -34.3681 1.1108e+07 4.99691e+06 1.19788e+07 -468888 -290223 -266743
165 3 O -1.3764 24.7405 53.222 -1.2 -9.24257 -4.8444e+06 -2.76623e+06 -3.98007e+06 804953 867424 -311983
166 3 O -0.943026 27.648 46.4208 -1.2 -7.16457 -3.79152e+06 -2.26902e+06 -2.8342e+06 -604103 -1.50185e+06 760539
167 3 O -2.62525 26.9678 53.9956 -1.2 -8.04676 -1.96922e+06 -2.74296e+06 -3.82239e+06 -963162 170925 693167
168 3 O -0.0218494 26.9937 53.8611 -1.2 -8.49812 -4.4575e+06 -2.65144e+06 -3.12639e+06 1.19184e+06 37961.1 309232
169 1 Mg -2.72974 35.3819 57.2755 1.2 -8.37754 809364 -879498 3.53174e+06 -959646 -1.64187e+06 -671353
170 1 Mg -1.28421 35.3899 49.8376 1.2 -8.92249 1.54889e+06 2.35282e+06 1.90508e+06 -141843 153504 369314
171 2 Si -0.807101 32.9036 47.9247 2.4 -35.4147 1.03138e+07 7.08221e+06 9.65371e+06 485353 2.294e+06 -545323
172 3 O -0.727174 34.4729 47.9885 -1.2 -8.21162 -3.36159e+06 -4.43243e+06 -2.86237e+06 458413 -1.91241e+06 16185.3
173 3 O -1.35735 31.7701 51.768 -1.2 -8.68484 -3.25743e+06 -3.76875e+06 -6.42349e+06 279427 574662 -490115
174 3 O -1.97695 32.3253 48.826 -1.2 -8.24501 -1.96405e+06 -3.63008e+06 -3.51319e+06 3126.29 -318884 -1.2245e+06
175 1 Mg 0.237665 30.8412 46.8168 1.2 -7.53192 2.90739e+06 -223998 903758 1.12317e+06 1.59579e+06 -740372
176 3 O 0.656562 32.2608 48.3877 -1.2 -8.14644 -2.55889e+06 -1.69158e+06 -2.17843e+06 -284368 -346878 836208
177 1 Mg 1.65092 30.9709 54.5999 1.2 -9.34375 3.57905e+06 1.7105e+06 -645218 -14328 -509002 669053
178 2 Si 1.54374 33.4516 56.3479 2.4 -34.1692 9.89712e+06 6.17999e+06 1.04941e+07 752228 -394355 778041
179 3 O 1.60661 31.8873 56.4295 -1.2 -9.01805 -4.78142e+06 -3.33853e+06 -4.9134e+06 -124794 309726 -1.87889e+06
180 3 O 1.74574 34.5067 52.7279 -1.2 -8.73337 -4.50342e+06 -2.92654e+06 -4.78209e+06 506302 -810219 -1.11394e+06
181 3 O 0.221399 34.1802 55.8448 -1.2 -8.48788 -3.94025e+06 -4.49915e+06 -5.61858e+06 -1.91935e+06 -532423 -1.08397e+06
182 3 O 2.83398 34.091 55.6001 -1.2 -8.4681 -2.67665e+06 -4.32345e+06 -4.74142e+06 1.59081e+06 1.53421e+06 -1.23341e+06
183 1 Mg 0.167046 33.1343 52.2045 1.2 -8.27717 964604 -1.1901e+06 4.35517e+06 -1.25032e+06 1.61903e+06 418111
184 1 Mg 2.20727 32.8578 49.4516 1.2 -8.4061 3.05995e+06 682835 206836 126772 -95290 106534
185 2 Si 1.67943 35.1802 51.2429 2.4 -33.8982 9.56191e+06 5.551e+06 9.79626e+06 63083.8 792795 -81582.6
186 3 O 1.78736 36.747 51.303 -1.2 -9.45757 -3.69832e+06 -2.57571e+06 -3.31413e+06 919998 -328405 608507
187 3 O 1.7116 34.1388 57.8022 -1.2 -8.49306 -4.69692e+06 -3.5773e+06 -5.1257e+06 -125825 23729.9 1.1369e+06
188 3 O 0.362533 34.5479 50.661 -1.2 -8.48525 -4.1537e+06 -2.65684e+06 -4.44876e+06 1.08781e+06 -673622 -57789.6
189 1 Mg -2.80215 33.1347 52.3062 1.2 -8.40543 -103788 -1.07083e+06 3.72706e+06 1.67453e+06 -1.82335e+06 681331
190 3 O 2.91593 34.533 50.466 -1.2 -8.83572 -3.68424e+06 -2.47552e+06 -2.48928e+06 -273150 676637 -129759
191 1 Mg -1.43578 33.1781 55.2668 1.2 -9.01101 1.94591e+06 1.46155e+06 -2.31309e+06 138171 530392 1.1475e+06
192 2 Si -1.33519 31.1204 53.1772 2.4 -34.6626 1.08043e+07 6.63197e+06 1.00799e+07 239918 374996 919496
193 3 O -1.45917 29.5449 53.1599 -1.2 -8.85473 -5.13542e+06 -1.43921e+06 -4.57109e+06 304412 357298 192372
194 3 O -0.842495 32.4028 46.4192 -1.2 -7.20338 -3.72805e+06 -2.29343e+06 -2.81098e+06 -604952 -1.5022e+06 973962
195 3 O -2.67871 31.812 53.9084 -1.2 -7.99739 -3.10398e+06 -5.07002e+06 -2.85961e+06 -1.77595e+06 86111 624328
196 3 O -0.0946756 31.7837 53.9763 -1.2 -8.28703 -3.4775e+06 -3.64399e+06 -2.27267e+06 1.92204e+06 -274756 1.27145e+06
197 1 Mg -2.67133 40.2879 57.3813 1.2 -8.25772 707712 -425899 3.11371e+06 -990775 -1.71785e+06 -1.10124e+06
198 1 Mg -1.17787 40.1435 49.8359 1.2 -8.76557 1.43823e+06 2.34531e+06 1.764e+06 -198151 331574 735580
199 2 Si -0.702692 37.6572 47.9231 2.4 -35.1803 9.92391e+06 7.50699e+06 9.23993e+06 506215 2.34746e+06 -621110
200 3 O -0.621782 39.2264 47.9868 -1.2 -8.32339 -3.18076e+06 -4.59043e+06 -2.71925e+06 457882 -1.95139e+06 -77427.5
201 3 O -1.25221 36.5242 51.7666 -1.2 -8.7442 -3.31578e+06 -2.34375e+06 -5.48829e+06 -53644.5 83200.3 -431898
202 3 O -1.87295 37.0796 48.8243 -1.2 -8.38609 -1.77135e+06 -3.86035e+06 -3.2583e+06 7980.98 -354195 -1.11392e+06
203 1 Mg 0.341084 35.5943 46.8152 1.2 -7.45021 2.77321e+06 -76701.5 761694 1.12357e+06 1.59191e+06 -872811
204 3 O 0.760681 37.0138 48.3864 -1.2 -8.268 -2.3296e+06 -1.91499e+06 -1.9882e+06 -292782 -328940 897100
205 1 Mg 1.72569 35.5826 54.4506 1.2 -8.71689 2.4872e+06 1.6327e+06 -241499 22731.8 -388577 931960
206 2 Si 1.75432 38.0856 56.3805 2.4 -34.041 8.7963e+06 6.78285e+06 9.84486e+06 498366 -60666.8 -940591
207 3 O 1.81866 36.5667 56.4653 -1.2 -9.12553 -4.63935e+06 -4.37584e+06 -3.8908e+06 -57262.8 188147 48233.5
208 3 O 1.85132 39.2606 52.7264 -1.2 -8.94633 -2.79013e+06 -2.7502e+06 -4.4269e+06 -187934 -360336 -1.12437e+06
209 3 O 0.552597 38.8564 55.7175 -1.2 -8.56983 -5.37618e+06 -4.91165e+06 -3.92253e+06 -1.41839e+06 -40680.5 75666.9
210 3 O 2.97662 38.8449 55.6184 -1.2 -8.54469 -5.17614e+06 -4.18982e+06 -2.26281e+06 2.12681e+06 -6363.26 -322238
211 1 Mg 0.272384 37.8883 52.2029 1.2 -8.0592 -406868 -150291 3.99974e+06 -844369 1.97271e+06 832025
212 1 Mg 2.31122 37.6122 49.4501 1.2 -8.23088 2.81638e+06 965558 -105376 70543.8 -198460 98976.9
213 2 Si 1.78573 39.934 51.2414 2.4 -33.6786 8.30081e+06 5.61444e+06 1.05763e+07 520698 181787 933355
214 3 O 1.89428 41.5006 51.3014 -1.2 -9.38748 -3.51594e+06 -2.09187e+06 -4.07744e+06 678802 -752717 416898
215 3 O 1.82687 38.7872 57.8957 -1.2 -8.63993 -3.61526e+06 -3.89599e+06 -4.04443e+06 997464 -527775 2.13389e+06
216 3 O 0.469216 39.3015 50.6588 -1.2 -8.62237 -3.41105e+06 -2.90101e+06 -4.71339e+06 1.11741e+06 -814940 -461251
217 1 Mg -2.69668 37.8889 52.3043 1.2 -7.68944 372548 -2165.94 3.54097e+06 1.38211e+06 -1.8175e+06 728871
218 3 O 3.0225 39.2866 50.4651 -1.2 -9.11255 -3.42708e+06 -2.71015e+06 -1.86015e+06 -268040 1.12709e+06 -545166
219 1 Mg -1.30594 38.1076 54.9565 1.2 -8.48045 2.88353e+06 2.32133e+06 -426932 627796 321576 -314404
220 2 Si -1.20304 35.8148 53.2243 2.4 -34.105 8.04803e+06 6.96848e+06 1.07898e+07 1.11891e+06 -74048 -269710
221 3 O -1.32648 34.2047 53.1216 -1.2 -8.74173 -4.70092e+06 -1.9653e+06 -4.01353e+06 462344 453040 364536
222 3 O -0.738054 37.1566 46.4176 -1.2 -7.28965 -3.58738e+06 -2.46143e+06 -2.64973e+06 -607880 -1.50684e+06 1.03909e+06
223 3 O -2.46414 36.4503 53.9165 -1.2 -8.74889 -3.63253e+06 -3.46029e+06 -4.22947e+06 -497244 950527 -368672
224 3 O 0.0977686 36.4511 53.8365 -1.2 -8.85216 -4.14416e+06 -3.33395e+06 -4.12195e+06 1.00624e+06 -893033 96288.2
225 1 Mg -2.32561 45.0493 57.1373 1.2 -8.26676 1.62951e+06 -308229 3.10936e+06 -707230 -1.97171e+06 -1.66506e+06
226 1 Mg -1.06993 44.8968 49.8343 1.2 -8.67505 1.40185e+06 2.32678e+06 1.67508e+06 -163457 392076 160661
227 2 Si -0.596166 42.4103 47.9215 2.4 -35.0597 9.74368e+06 7.31635e+06 9.42303e+06 495201 2.37158e+06 -663617
228 3 O -0.51472 43.9796 47.9853 -1.2 -8.37684 -3.10362e+06 -4.5488e+06 -2.74789e+06 455445 -1.96437e+06 103774
229 3 O -1.14475 41.2777 51.7649 -1.2 -8.82899 -3.41117e+06 -1.80073e+06 -6.03694e+06 818787 410708 -933288
230 3 O -1.76671 41.8331 48.8226 -1.2 -8.45299 -1.71084e+06 -3.67149e+06 -3.40097e+06 17806.5 -358960 -1.20153e+06
231 1 Mg 0.447076 40.3473 46.8135 1.2 -7.37032 2.63465e+06 -5029.26 700360 1.12454e+06 1.59736e+06 -816246
232 3 O 0.866985 41.7666 48.385 -1.2 -8.33099 -2.19436e+06 -1.80747e+06 -2.13093e+06 -293345 -333479 856118
233 1 Mg 1.69357 40.2024 54.661 1.2 -9.07205 3.36023e+06 1.4804e+06 -330603 102741 -498175 692721
234 2 Si 1.91346 42.7889 56.3893 2.4 -35.0291 1.03318e+07 5.25902e+06 1.16884e+07 614031 426843 1.71033e+06
235 3 O 1.75707 41.2249 56.4114 -1.2 -8.70977 -5.97728e+06 -3.75528e+06 -5.26694e+06 609183 148591 -15015.4
236 3 O 1.95891 44.014 52.7248 -1.2 -8.7694 -3.76221e+06 -3.45212e+06 -4.90588e+06 729747 -403881 -963858
237 3 O 0.603002 43.5042 55.8282 -1.2 -7.99848 -4.88134e+06 -3.2985e+06 -4.69316e+06 -739040 -89268 -275984
238 3 O 3.08121 43.4346 55.6424 -1.2 -8.31747 -6.12748e+06 -3.61611e+06 -5.43956e+06 1.0649e+06 1.52493e+06 -553080
239 1 Mg 0.379928 42.6418 52.2013 1.2 -8.23448 133992 -490258 4.73459e+06 -1.0372e+06 1.75232e+06 484776
240 1 Mg 2.41752 42.366 49.4484 1.2 -8.19535 2.74105e+06 666754 218844 98456.2 -220911 79279
241 2 Si 1.89374 44.6874 51.2398 2.4 -33.6678 8.03223e+06 5.58391e+06 1.09056e+07 64434.8 -218280 -202287
242 3 O 2.00266 46.254 51.2996 -1.2 -9.48173 -3.04266e+06 -2.48222e+06 -4.14571e+06 628673 251878 1.01275e+06
243 3 O 2.05609 43.6838 57.8446 -1.2 -7.90876 -5.28515e+06 -445427 -5.22637e+06 447923 87223.4 2.09068e+06
244 3 O 0.577464 44.0549 50.6567 -1.2 -8.62277 -3.32105e+06 -2.63359e+06 -5.12074e+06 1.0385e+06 -798542 -20625
245 1 Mg -2.58906 42.6425 52.3022 1.2 -8.0321 740833 -1.68518e+06 3.66261e+06 2.00532e+06 -1.81175e+06 1.12376e+06
246 3 O 3.13067 44.0398 50.464 -1.2 -9.13684 -3.42393e+06 -2.36939e+06 -2.16465e+06 -188088 1.12854e+06 32662.3
247 1 Mg -1.09923 42.6963 55.0207 1.2 -9.29344 3.51591e+06 1.53562e+06 -364691 -31460.7 119606 -1.44215e+06
248 2 Si -1.20051 40.5856 53.2125 2.4 -33.9277 1.001e+07 4.19698e+06 1.07559e+07 -968903 23525.1 784318
249 3 O -1.0773 39.0501 53.2252 -1.2 -9.60103 -3.88821e+06 -3.58649e+06 -4.7936e+06 -393056 -55319.6 479635
250 3 O -0.631421 41.9099 46.4159 -1.2 -7.35306 -3.48805e+06 -2.48205e+06 -2.62623e+06 -605805 -1.5119e+06 1.03128e+06
251 3 O -2.46995 41.3691 53.8228 -1.2 -8.31708 -4.06433e+06 -2.24962e+06 -4.77015e+06 -694983 133423 -33033.5
252 3 O 0.0591905 41.2439 53.9901 -1.2 -8.21252 -3.36443e+06 -3.84748e+06 -3.9139e+06 951580 -439564 -105972
253 1 Mg -2.4906 49.7645 57.3186 1.2 -7.24354 693843 38016.8 3.18444e+06 -1.51076e+06 -1.75884e+06 -1.2304e+06
254 1 Mg -0.961069 49.6502 49.8327 1.2 -8.71797 1.30581e+06 2.73128e+06 1.4344e+06 -218311 155707 224943
255 2 Si -0.488083 47.1636 47.9198 2.4 -34.9681 9.6156e+06 7.81475e+06 8.90538e+06 461287 2.38787e+06 -876368
256 3 O -0.40607 48.7329 47.9837 -1.2 -8.39369 -3.07871e+06 -4.82263e+06 -2.46858e+06 477932 -1.93852e+06 90186.5
257 3 O -1.0361 46.031 51.7632 -1.2 -9.26196 -3.54985e+06 -3.08906e+06 -7.40209e+06 475851 -952153 1.26816e+06
258 3 O -1.65866 46.5866 48.821 -1.2 -8.52785 -1.63442e+06 -3.95517e+06 -3.06674e+06 23795.5 -351177 -999130
259 1 Mg 0.554124 45.1001 46.8117 1.2 -7.32319 2.55563e+06 86705 612940 1.12401e+06 1.60281e+06 -931767
260 3 O 0.974961 46.5195 48.3832 -1.2 -8.38635 -2.07964e+06 -2.03179e+06 -1.92329e+06 -290208 -347057 1.06389e+06
261 1 Mg 1.99649 44.8993 54.5351 1.2 -9.09164 3.50827e+06 2.65186e+06 -788201 -306170 406538 -231735
262 2 Si 2.15748 47.7046 56.217 2.4 -34.1359 1.028e+07 4.91626e+06 1.02483e+07 -793065 -1.13264e+06 -1.26781e+06
263 3 O 2.18101 46.2052 56.2119 -1.2 -9.0449 -4.84644e+06 -3.57452e+06 -4.82611e+06 765553 1.2391e+06 569822
264 3 O 2.0677 48.7672 52.7232 -1.2 -8.86296 -3.39567e+06 -2.75697e+06 -4.48385e+06 -316248 396407 244815
265 3 O 0.934609 48.4617 55.5098 -1.2 -8.18179 -2.87196e+06 -4.23951e+06 -4.90148e+06 -670063 -879339 733941
266 3 O 3.51246 48.4419 55.7113 -1.2 -8.8193 -4.13142e+06 -3.25967e+06 -2.49356e+06 521849 -43661.5 764318
267 1 Mg 0.488584 47.395 52.1996 1.2 -8.15707 -437478 -430371 4.31163e+06 -1.56703e+06 2.099e+06 137157
268 1 Mg 2.52544 47.1195 49.4466 1.2 -8.12182 2.59449e+06 1.01849e+06 -100100 171113 -283774 -141918
269 2 Si 2.00256 49.4407 51.2382 2.4 -33.5016 8.37016e+06 6.35958e+06 9.50588e+06 604355 579323 -1.27521e+06
270 3 O 2.11156 51.0073 51.2982 -1.2 -9.54763 -3.53743e+06 -3.07784e+06 -2.8329e+06 860372 -470625 1.07127e+06
271 3 O 1.90606 48.3557 57.7424 -1.2 -9.06078 -3.27819e+06 -2.09707e+06 -4.2413e+06 169978 -873875 2.19767e+06
272 3 O 0.686344 48.8082 50.655 -1.2 -8.74435 -3.46596e+06 -3.01768e+06 -4.22911e+06 1.19349e+06 -905598 417088