ITEM: TIMESTEP
60700
ITEM: NUMBER OF ATOMS
10500
ITEM: BOX BOUNDS xy xz yz pp pp pp
0.0000000000000000e+00 8.9687999999999999e+00 2.9895999999999998e+00
0.0000000000000000e+00 1.1872499999999999e+02 0.0000000000000000e+00
0.0000000000000000e+00 2.5297749999999999e+02 0.0000000000000000e+00
ITEM: ATOMS id type element xu yu zu q c_pe c_s[1] c_s[2] c_s[3] c_s[4] c_s[5] c_s[6]
1 1 Mg -3.32417 6.98243 57.4025 1.2 -7.76435 -759409 -1.43409e+06 2.36675e+06 -1.59162e+06 -1.89254e+06 -2.38791e+06
2 1 Mg -1.82655 6.90154 50.0912 1.2 -8.66146 755090 2.42117e+06 -97840.4 -123005 -330209 1.46402e+06
3 2 Si -0.257935 3.96038 48.0876 2.4 -37.172 1.18369e+07 1.12884e+07 8.28468e+06 800968 1.97799e+06 1.54279e+06
4 3 O -0.335812 5.46814 47.6264 -1.2 -7.26411 -3.93218e+06 -3.79e+06 -1.19753e+06 144943 -969558 -536824
5 3 O -2.03793 3.43377 51.8941 -1.2 -7.93042 -4.81476e+06 -1.14831e+06 -5.39392e+06 -806194 858586 -1.42012e+06
6 3 O -1.54015 3.53929 48.9521 -1.2 -7.7246 -2.23246e+06 -2.85271e+06 -3.09726e+06 37108.2 -717848 -140741
7 1 Mg 1.82954 2.54582 47.1376 1.2 -8.56146 3.51574e+06 720175 -468011 1.14983e+06 832848 499563
8 3 O 1.22989 3.66364 48.7877 -1.2 -7.44609 -2.56664e+06 -3.62277e+06 -2.44149e+06 -486328 -735074 -865367
9 1 Mg 0.808816 2.2921 54.6413 1.2 -8.46994 1.98558e+06 1.48099e+06 1.05437e+06 601923 -1.06795e+06 424365
10 2 Si 1.12036 4.99278 56.3602 2.4 -32.1061 6.49132e+06 5.54185e+06 1.1441e+07 392882 1.03975e+06 418536
11 3 O 1.0646 3.46682 56.6957 -1.2 -9.8175 -3.40551e+06 -1.84748e+06 -5.09551e+06 549479 859550 -966742
12 3 O 1.10813 6.07342 52.8172 -1.2 -8.82505 -3.44653e+06 -4.12187e+06 -3.19314e+06 -17254.3 396709 -1.44838e+06
13 3 O -0.0792625 5.63592 55.4872 -1.2 -9.63367 -1.29234e+06 -3.49367e+06 -4.26341e+06 -1.23894e+06 -416703 152931
14 3 O 2.4792 5.63971 55.882 -1.2 -9.46426 -3.83713e+06 -5.19515e+06 -6.74052e+06 2.18095e+06 1.55875e+06 -217410
15 1 Mg -0.459401 4.67631 52.2426 1.2 -8.41333 701476 609973 3.83678e+06 -1.01977e+06 1.13034e+06 868069
16 1 Mg 2.79456 3.9971 49.9987 1.2 -8.95816 4.46641e+06 1.12635e+06 515016 -517430 834503 -1.05839e+06
17 2 Si 1.16169 6.59457 51.2556 2.4 -34.3537 8.51683e+06 8.81911e+06 9.03803e+06 227239 749732 2.97715e+06
18 3 O 1.28989 8.18905 51.2909 -1.2 -9.18664 -3.41304e+06 -2.85718e+06 -2.3796e+06 280446 -1.04471e+06 704553
19 3 O 1.10751 5.73056 57.8611 -1.2 -9.23797 -3.06851e+06 -4.15547e+06 -3.32966e+06 230988 2.3897e+06 -158851
20 3 O -0.184847 6.06029 50.6845 -1.2 -8.33559 -3.70933e+06 -4.47551e+06 -3.4376e+06 1.52511e+06 -510065 -1.47572e+06
21 1 Mg -3.49704 4.67769 52.6661 1.2 -8.13804 662879 311759 1.10376e+06 2.04362e+06 -1.08508e+06 654525
22 3 O 2.48581 5.93312 50.6539 -1.2 -8.80631 -3.65383e+06 -2.97358e+06 -1.81235e+06 -1.66251e+06 -560172 -964334
23 1 Mg -1.90559 4.90663 55.0961 1.2 -8.11998 -212762 1.88095e+06 -335283 603590 -393566 198954
24 2 Si -1.96656 2.48046 53.2984 2.4 -34.6726 1.02727e+07 1.74735e+06 1.11767e+07 515328 -1.12018e+06 -2.25752e+06
25 3 O -2.00109 1.02978 53.1381 -1.2 -9.16054 -5.96343e+06 -7.19704e+06 -4.29731e+06 753362 99772.8 -26267.3
26 3 O -0.0467762 2.97103 46.8385 -1.2 -6.44941 -3.86678e+06 -3.38232e+06 -1.6408e+06 -989605 -2.00688e+06 -599124
27 3 O -3.23877 3.17283 54.0124 -1.2 -8.3596 -2.57819e+06 -2.28852e+06 -5.31388e+06 -1.39045e+06 -199753 1.20195e+06
28 3 O -0.689456 3.14777 53.8974 -1.2 -8.59334 -6.33892e+06 -3.07465e+06 -4.76005e+06 1.46361e+06 -898441 327565
29 1 Mg -3.19571 11.6792 57.2735 1.2 -8.34499 -2.04588e+06 -995230 2.84642e+06 -1.0151e+06 -3.14725e+06 -1.2176e+06
30 1 Mg -1.75014 11.5838 49.8362 1.2 -9.0544 1.682e+06 3.13233e+06 1.39222e+06 -352332 91146.3 1.24406e+06
31 2 Si -1.18003 9.02138 47.9309 2.4 -35.4739 1.01379e+07 9.96546e+06 6.93885e+06 222172 2.57427e+06 735350
32 3 O -1.23224 10.5991 47.9811 -1.2 -8.15186 -3.41133e+06 -4.86935e+06 -1.49749e+06 663053 -1.88883e+06 -249239
33 3 O -1.79016 8.01447 51.8693 -1.2 -8.80405 -3.18865e+06 -4.0096e+06 -3.83169e+06 -9225.09 339133 -1.46469e+06
34 3 O -2.30986 8.37215 48.8528 -1.2 -8.46793 -1.7956e+06 -4.00314e+06 -1.93058e+06 -329646 -576047 -982452
35 1 Mg 0.154883 7.08234 46.8007 1.2 -8.05877 2.75627e+06 1.21015e+06 -571999 943319 1.72774e+06 -906064
36 3 O 0.325447 8.50934 48.3809 -1.2 -8.10784 -2.27395e+06 -3.39416e+06 -1.28143e+06 -34532.4 -842360 212004
37 1 Mg 1.38957 7.05544 54.7095 1.2 -8.24996 1.80468e+06 130968 -1.1191e+06 -508699 1.64941e+06 1.47139e+06
38 2 Si 1.12986 9.69782 56.3014 2.4 -33.3867 1.08617e+07 5.34118e+06 9.98498e+06 1.23242e+06 -426459 224498
39 3 O 1.21156 8.12299 56.2942 -1.2 -9.29689 -5.28772e+06 -1.51125e+06 -7.09554e+06 298587 623069 -1.18821e+06
40 3 O 1.28624 10.7248 52.7351 -1.2 -9.10626 -3.91719e+06 -3.76256e+06 -4.22784e+06 -355044 -764053 -1.47178e+06
41 3 O -0.09813 10.4057 55.7047 -1.2 -9.03358 -4.04691e+06 -5.58144e+06 -5.11648e+06 -423471 -1.57733e+06 -393728
42 3 O 2.57319 10.4357 55.6963 -1.2 -8.49146 -1.85716e+06 -6.28009e+06 -5.13537e+06 3.17088e+06 -4850.42 -741736
43 1 Mg -0.262694 9.34741 52.2523 1.2 -7.94233 589181 93874.9 3.76885e+06 -1.80884e+06 1.45642e+06 1.18261e+06
44 1 Mg 1.87648 9.01537 49.4629 1.2 -8.36655 2.73451e+06 1.95794e+06 -1.07151e+06 261617 -208762 484686
45 2 Si 1.21415 11.3799 51.2378 2.4 -33.9876 1.0146e+07 7.21063e+06 8.0242e+06 608936 1.27635e+06 1.43607e+06
46 3 O 1.31634 12.9512 51.3023 -1.2 -9.18216 -4.4651e+06 -2.47671e+06 -2.63578e+06 659595 -1.1353e+06 394973
47 3 O 1.14472 10.2596 57.8136 -1.2 -8.8949 -4.78778e+06 -3.29643e+06 -3.83573e+06 -400363 -527813 1.61541e+06
48 3 O -0.115718 10.7564 50.681 -1.2 -8.49304 -4.04312e+06 -3.64124e+06 -2.97726e+06 1.32853e+06 -600879 -946148
49 1 Mg -3.26386 9.35564 52.3622 1.2 -8.02043 -343142 411922 2.76025e+06 2.08824e+06 -1.63821e+06 1.29445e+06
50 3 O 2.45216 10.7265 50.4558 -1.2 -8.86789 -3.44001e+06 -3.29586e+06 -1.13181e+06 -916041 399781 -545669
51 1 Mg -1.81213 9.59188 55.0965 1.2 -8.87471 671867 406077 -410609 573296 136016 -838045
52 2 Si -1.75529 7.45016 53.4248 2.4 -33.7059 8.27743e+06 4.56581e+06 9.53302e+06 -1.54819e+06 -307135 1.90253e+06
53 3 O -1.9817 5.96086 53.4458 -1.2 -9.29939 -4.09992e+06 -5.28758e+06 -4.76457e+06 1.05511e+06 -765040 514323
54 3 O -1.19417 8.46968 46.4488 -1.2 -7.0826 -3.61976e+06 -3.35905e+06 -1.62855e+06 -540496 -1.73766e+06 663546
55 3 O -3.16219 8.13581 54.0316 -1.2 -8.43619 -3.1267e+06 -5.49183e+06 -6.07491e+06 -1.34032e+06 516123 -1.91222e+06
56 3 O -0.60862 8.18185 54.0614 -1.2 -8.77098 -5.00726e+06 -6.13183e+06 -4.27507e+06 671051 -1.54051e+06 -1.49374e+06
57 1 Mg -3.21849 16.3391 57.3755 1.2 -7.90153 274974 -768936 5.01853e+06 -257121 -1.46588e+06 -1.01677e+06
58 1 Mg -1.6714 16.3544 49.8412 1.2 -9.12391 1.9074e+06 3.13725e+06 1.14923e+06 -161059 124547 738753
59 2 Si -1.18567 13.8526 47.9314 2.4 -35.6022 1.06185e+07 8.42098e+06 8.2347e+06 512695 2.17823e+06 45210.3
60 3 O -1.09664 15.4205 47.9915 -1.2 -8.07864 -3.50411e+06 -4.97581e+06 -2.09768e+06 415257 -1.90807e+06 -303231
61 3 O -1.73493 12.7491 51.7772 -1.2 -8.13662 -3.05685e+06 -2.77407e+06 -3.24726e+06 199775 2.00618e+06 -1.49403e+06
62 3 O -2.36115 13.2717 48.8238 -1.2 -8.15237 -2.09129e+06 -4.16681e+06 -2.86457e+06 -100793 -335795 -1.43818e+06
63 1 Mg -0.159928 11.7639 46.8533 1.2 -7.58623 3.03314e+06 625797 6798.94 1.12637e+06 1.56646e+06 -608784
64 3 O 0.2623 13.1866 48.413 -1.2 -8.08744 -2.71628e+06 -2.22751e+06 -1.47885e+06 -204462 -289305 566640
65 1 Mg 1.34844 11.6297 54.4887 1.2 -8.55865 3.42236e+06 1.53484e+06 -702531 -151743 -303861 890790
66 2 Si 1.19177 14.3433 56.3223 2.4 -33.7425 8.99048e+06 5.12599e+06 1.15336e+07 670864 -340111 711872
67 3 O 1.38379 12.8394 56.4475 -1.2 -9.08887 -4.98756e+06 -3.59727e+06 -4.40602e+06 416887 -869176 89484.4
68 3 O 1.36565 15.4813 52.729 -1.2 -8.60138 -4.7005e+06 -3.89083e+06 -4.37777e+06 -394243 -1.51345e+06 -1.43712e+06
69 3 O -0.0719232 14.9785 55.7641 -1.2 -8.79481 -5.6049e+06 -4.99217e+06 -4.40303e+06 -1.28483e+06 -967421 -221423
70 3 O 2.50217 15.0528 55.6063 -1.2 -8.60729 -1.31494e+06 -4.31469e+06 -2.926e+06 770266 441630 416114
71 1 Mg -0.206989 14.1049 52.2121 1.2 -8.19085 1.68458e+06 -288154 3.58301e+06 -1.13669e+06 1.70014e+06 813242
72 1 Mg 1.82591 13.8102 49.4556 1.2 -8.51364 3.2789e+06 1.48848e+06 -577702 102787 23511.6 437328
73 2 Si 1.29285 16.1518 51.2434 2.4 -34.3532 1.01201e+07 6.92027e+06 8.6605e+06 110873 1.1743e+06 608482
74 3 O 1.39496 17.7199 51.3047 -1.2 -9.07214 -4.28327e+06 -3.00929e+06 -2.88902e+06 793511 -972306 733294
75 3 O 1.19891 15.0499 57.9338 -1.2 -8.65485 -3.62719e+06 -2.19998e+06 -2.6183e+06 1.78524e+06 -1.08739e+06 1.46205e+06
76 3 O -0.0269106 15.5178 50.6688 -1.2 -8.35059 -4.41312e+06 -3.36965e+06 -3.45527e+06 1.03778e+06 -776282 -421846
77 1 Mg -3.18391 14.1057 52.3125 1.2 -8.54584 -311101 256086 2.98829e+06 1.06157e+06 -1.95603e+06 774485
78 3 O 2.52432 15.503 50.4579 -1.2 -8.67246 -3.78167e+06 -3.25387e+06 -1.64016e+06 -237934 714326 -301944
79 1 Mg -1.73735 14.1078 55.0741 1.2 -8.86314 2.8099e+06 1.71791e+06 -153250 -412619 299861 -1.32659e+06
80 2 Si -1.62757 12.0361 53.3414 2.4 -34.143 8.66496e+06 4.68675e+06 1.073e+07 -363635 1.31753e+06 -1.51613e+06
81 3 O -1.78849 10.5354 53.2747 -1.2 -9.16242 -4.36265e+06 -5.99178e+06 -4.80735e+06 1.44488e+06 239662 935863
82 3 O -1.21337 13.3381 46.4311 -1.2 -7.09932 -3.95529e+06 -2.94208e+06 -2.09949e+06 -632164 -1.44305e+06 717090
83 3 O -2.97403 12.7102 53.8649 -1.2 -8.2596 -2.76545e+06 -5.46875e+06 -5.5517e+06 -394420 1.42067e+06 59844.7
84 3 O -0.411188 12.7225 54.0293 -1.2 -8.82767 -3.75764e+06 -3.18011e+06 -3.49025e+06 159742 -647196 151415
85 1 Mg -2.80139 21.1552 57.3587 1.2 -7.19118 -668290 -1.39784e+06 4.39543e+06 -1.36152e+06 -1.16371e+06 -86129.1
86 1 Mg -1.5831 21.1217 49.8405 1.2 -9.25376 1.93042e+06 3.03318e+06 1.39611e+06 -159385 260820 749070
87 2 Si -1.09384 18.6291 47.9287 2.4 -35.7572 1.08301e+07 8.55587e+06 8.19803e+06 494487 2.30363e+06 68660.7
88 3 O -1.02071 20.1985 47.9911 -1.2 -8.00127 -3.65564e+06 -5.06472e+06 -2.16238e+06 455360 -1.9201e+06 -322203
89 3 O -1.65002 17.5002 51.771 -1.2 -8.38107 -3.98606e+06 -3.06236e+06 -4.86337e+06 156158 566466 -362056
90 3 O -2.26174 18.0434 48.8281 -1.2 -8.09269 -2.22556e+06 -4.34214e+06 -2.73053e+06 -35249.2 -351639 -1.40503e+06
91 1 Mg -0.0440435 16.5651 46.8269 1.2 -7.6549 3.07364e+06 549651 136672 1.1339e+06 1.57993e+06 -524070
92 3 O 0.37001 17.9877 48.3925 -1.2 -7.99601 -2.8023e+06 -2.43233e+06 -1.43282e+06 -275721 -335954 571477
93 1 Mg 1.22633 16.3993 54.5168 1.2 -8.85852 3.66319e+06 1.39909e+06 -745064 19927.5 -585472 68921.1
94 2 Si 1.45204 19.0316 56.2595 2.4 -33.0551 9.15201e+06 6.9097e+06 1.02789e+07 -8853.03 -2.20357e+06 387757
95 3 O 1.27352 17.4248 56.3424 -1.2 -9.60524 -4.18322e+06 -1.13503e+06 -4.1328e+06 457938 916068 -489032
96 3 O 1.45147 20.239 52.7294 -1.2 -8.51616 -4.32924e+06 -3.33895e+06 -3.84543e+06 818241 -563938 -1.09582e+06
97 3 O 0.234739 19.8262 55.613 -1.2 -9.02092 -5.85555e+06 -3.90094e+06 -4.6656e+06 -2.35269e+06 -534764 376277
98 3 O 2.72951 19.7206 55.4944 -1.2 -8.6908 -2.44214e+06 -4.48143e+06 -3.06489e+06 2.04872e+06 -680696 598802
99 1 Mg -0.126194 18.8651 52.2079 1.2 -8.36268 1.2742e+06 802493 2.86773e+06 -1.16643e+06 1.86782e+06 424525
100 1 Mg 1.92402 18.5815 49.4545 1.2 -8.58074 3.36139e+06 1.52071e+06 -678458 112356 -99241.6 339163
101 2 Si 1.38106 20.9117 51.2443 2.4 -34.5333 1.08865e+07 6.73235e+06 8.31284e+06 -42510.5 343758 608054
102 3 O 1.48527 22.4795 51.3054 -1.2 -9.20153 -4.1934e+06 -3.17812e+06 -2.18399e+06 655621 -253347 539900
103 3 O 1.47877 19.6787 57.7562 -1.2 -9.7437 -1.67234e+06 -1.36193e+06 -4.40172e+06 251729 -590857 1.55289e+06
104 3 O 0.0615419 20.2804 50.6669 -1.2 -8.14327 -4.58119e+06 -3.50043e+06 -3.71299e+06 1.25824e+06 -523651 -640771
105 1 Mg -3.09665 18.8643 52.3122 1.2 -8.39479 307167 416114 2.94942e+06 1.6868e+06 -2.02794e+06 426422
106 3 O 2.61548 20.2646 50.4626 -1.2 -8.58251 -4.29675e+06 -3.20238e+06 -1.46092e+06 -399319 630608 -445111
107 1 Mg -1.31159 19.0276 55.0461 1.2 -8.35396 -109213 1.05429e+06 211552 -591428 -964763 -1.55411e+06
108 2 Si -1.70972 16.7871 53.2222 2.4 -34.5851 8.94812e+06 6.65319e+06 9.38914e+06 1.21753e+06 -470915 -1.05116e+06
109 3 O -1.75921 15.2047 53.1776 -1.2 -8.84191 -4.897e+06 -3.41565e+06 -4.17557e+06 388320 460088 -401051
110 3 O -1.12868 18.1227 46.4249 -1.2 -7.04442 -3.99504e+06 -2.96366e+06 -2.11939e+06 -604873 -1.49327e+06 679204
111 3 O -3.01118 17.3399 53.806 -1.2 -8.05265 -4.02462e+06 -5.98773e+06 -4.58415e+06 -394029 769784 -565972
112 3 O -0.424922 17.4673 53.929 -1.2 -8.87571 -3.64127e+06 -2.10021e+06 -3.23889e+06 715770 -774648 571980
113 1 Mg -2.803 26.0257 57.6359 1.2 -6.81996 -1.73663e+06 -2.44938e+06 3.02744e+06 -266743 -2.20052e+06 827158
114 1 Mg -1.48778 25.88 49.8402 1.2 -8.98331 1.73855e+06 3.64319e+06 527100 -182763 275805 1.52227e+06
115 2 Si -1.00491 23.3922 47.9274 2.4 -35.6773 1.06825e+07 9.06358e+06 7.71692e+06 505515 2.33019e+06 84714
116 3 O -0.927602 24.9615 47.9909 -1.2 -8.06984 -3.57294e+06 -5.44834e+06 -1.82608e+06 454056 -1.94116e+06 -617519
117 3 O -1.55795 22.2588 51.7696 -1.2 -8.26005 -2.61244e+06 -3.90615e+06 -839800 474029 -561904 -1.20823e+06
118 3 O -2.17411 22.8111 48.8277 -1.2 -8.12425 -2.17269e+06 -4.60069e+06 -2.52903e+06 19327.9 -396091 -1.33467e+06
119 1 Mg 0.0423997 21.3296 46.8225 1.2 -7.6741 3.11945e+06 575618 108869 1.12667e+06 1.5813e+06 -525935
120 3 O 0.458537 22.7495 48.3911 -1.2 -8.01979 -2.74649e+06 -2.65016e+06 -1.25095e+06 -305342 -304461 614614
121 1 Mg 1.47936 21.1579 54.6651 1.2 -8.8124 1.95292e+06 1.43403e+06 -235893 -555461 227016 1.71119e+06
122 2 Si 1.803 23.918 56.3252 2.4 -32.284 8.56574e+06 8.16652e+06 9.04614e+06 1.60477e+06 -691652 606634
123 3 O 1.70259 22.3306 56.4593 -1.2 -9.60348 -3.69415e+06 -1.31346e+06 -5.21608e+06 1.49042e+06 611689 -1.69659e+06
124 3 O 1.54441 24.9963 52.7297 -1.2 -9.13917 -3.28281e+06 -4.27743e+06 -3.22878e+06 291134 -402744 -1.48463e+06
125 3 O 0.313203 24.408 55.6751 -1.2 -9.21163 316935 -4.59973e+06 -2.19602e+06 -569038 -491021 -171375
126 3 O 3.01344 24.6759 55.5478 -1.2 -9.23226 -1.19044e+06 -4.31745e+06 -2.80992e+06 1.24053e+06 1.06517e+06 -1.67926e+06
127 1 Mg -0.0335968 23.6229 52.2067 1.2 -8.1435 277594 1.04221e+06 3.26931e+06 -812711 1.79811e+06 838982
128 1 Mg 2.01073 23.3445 49.4541 1.2 -8.47745 3.25185e+06 1.83513e+06 -1.04402e+06 88720.6 -159502 329145
129 2 Si 1.47594 25.6699 51.2449 2.4 -33.8129 8.83627e+06 8.48744e+06 7.41157e+06 349800 447048 1.95232e+06
130 3 O 1.58172 27.2371 51.3054 -1.2 -9.18705 -4.33199e+06 -3.15955e+06 -2.49442e+06 673456 -946360 -550018
131 3 O 1.7817 24.5071 57.7758 -1.2 -10.1186 -1.56477e+06 -5.51453e+06 -4.8501e+06 -1.53211e+06 -116169 760582
132 3 O 0.157925 25.0378 50.6651 -1.2 -8.53461 -3.64458e+06 -4.33177e+06 -3.00605e+06 1.0773e+06 -932017 -864562
133 1 Mg -3.00341 23.6231 52.3098 1.2 -7.92631 123891 267122 2.8066e+06 1.11844e+06 -1.9508e+06 988891
134 3 O 2.71149 25.0232 50.4656 -1.2 -8.93693 -3.61672e+06 -4.00866e+06 -712210 -244860 1.01354e+06 -850334
135 1 Mg -1.41462 23.5884 55.2112 1.2 -8.33798 658633 1.99789e+06 -1.47404e+06 93452.9 609609 -970755
136 2 Si -1.59029 21.5527 53.3714 2.4 -33.9117 1.07296e+07 6.31049e+06 9.77526e+06 859610 -835136 237683
137 3 O -1.63537 20.039 53.1357 -1.2 -9.09824 -4.94737e+06 -3.74402e+06 -4.004e+06 -567500 1.03181e+06 1.00825e+06
138 3 O -1.03938 22.8897 46.4223 -1.2 -7.05093 -3.96789e+06 -3.10705e+06 -1.99324e+06 -607597 -1.50239e+06 629056
139 3 O -2.85394 22.2075 54.0777 -1.2 -8.85055 -2.44461e+06 -4.86915e+06 -2.3414e+06 -1.12566e+06 462475 -293628
140 3 O -0.230982 22.1449 53.9693 -1.2 -8.68181 -1.70473e+06 -4.55372e+06 -2.82623e+06 751406 -646246 -1.1857e+06
141 1 Mg -2.43058 30.5832 57.5168 1.2 -7.56302 -2.87109e+06 -3.64019e+06 3.93878e+06 -987921 -2.31323e+06 1.60259e+06
142 1 Mg -1.38776 30.6357 49.8391 1.2 -9.3454 2.05261e+06 2.6159e+06 1.81978e+06 -131594 594909 1.46106e+06
143 2 Si -0.907929 28.1491 47.9262 2.4 -35.7892 1.08288e+07 8.42721e+06 8.39121e+06 502174 2.3486e+06 1.39548e+06
144 3 O -0.829229 29.7184 47.99 -1.2 -7.94792 -3.71722e+06 -4.82121e+06 -2.53366e+06 450551 -1.95391e+06 -965512
145 3 O -1.45946 27.0152 51.769 -1.2 -8.30217 -3.62781e+06 -2.29431e+06 -5.99554e+06 964464 1.15302e+06 -2.36824e+06
146 3 O -2.07744 27.5697 48.8273 -1.2 -8.10239 -2.22864e+06 -4.42853e+06 -2.68319e+06 -18759.1 -395155 -2.24381e+06
147 1 Mg 0.137907 26.087 46.819 1.2 -7.65439 3.08716e+06 672342 20362.9 1.12342e+06 1.5915e+06 -109420
148 3 O 0.55579 27.5065 48.3893 -1.2 -7.99601 -2.75963e+06 -2.5237e+06 -1.39637e+06 -274187 -304786 -144351
149 1 Mg 1.35948 25.8813 54.5704 1.2 -8.00467 3.0383e+06 2.50016e+06 -1.0166e+06 1.07564e+06 -518269 1.45922e+06
150 2 Si 1.91715 28.5452 56.5494 2.4 -32.4922 8.1416e+06 6.98028e+06 9.82311e+06 1.70014e+06 -1.94237e+06 203815
151 3 O 1.69403 26.9712 56.6478 -1.2 -10.2742 -1.97189e+06 -1.86125e+06 -3.06063e+06 1.85837e+06 1.14621e+06 -868165
152 3 O 1.6432 29.7522 52.7291 -1.2 -8.45486 -4.37708e+06 -2.66092e+06 -3.36978e+06 1.13119e+06 -347353 -1.78902e+06
153 3 O 0.749855 29.3707 55.7197 -1.2 -8.99219 -2.54526e+06 -730660 -4.44314e+06 -1.63111e+06 -337853 -801734
154 3 O 3.30786 29.3151 55.9946 -1.2 -8.5975 -2.19886e+06 -2.68403e+06 -3.30077e+06 2.61167e+06 -933557 -1.98798e+06
155 1 Mg 0.0647462 28.3794 52.2059 1.2 -8.56567 1.10895e+06 1.10291e+06 2.84811e+06 -802857 1.54136e+06 1.52907e+06
156 1 Mg 2.10696 28.1021 49.4531 1.2 -8.5719 3.46104e+06 1.37858e+06 -635160 87632.6 -159612 1.1886e+06
157 2 Si 1.57592 30.4257 51.2442 2.4 -34.7642 1.13676e+07 5.93728e+06 8.9566e+06 -250839 -832999 2.32667e+06
158 3 O 1.68288 31.9926 51.3043 -1.2 -8.98627 -4.75041e+06 -2.45668e+06 -3.08406e+06 357544 193059 -408665
159 3 O 1.73607 29.242 57.9228 -1.2 -9.65579 -2.7421e+06 -1.87157e+06 -9.08059e+06 -276920 618963 -75396.7
160 3 O 0.258524 29.7935 50.6632 -1.2 -7.91849 -4.42194e+06 -3.20493e+06 -4.86895e+06 1.25605e+06 -176794 -1.58961e+06
161 1 Mg -2.90462 28.3797 52.308 1.2 -8.46548 1.4168e+06 -1.10618e+06 2.26076e+06 1.63066e+06 -1.54248e+06 1.99464e+06
162 3 O 2.81205 29.7787 50.4664 -1.2 -8.5934 -4.7608e+06 -2.80083e+06 -1.38689e+06 -257414 832404 -1.1294e+06
163 1 Mg -1.05693 28.2301 55.2044 1.2 -8.3675 2.3858e+06 2.93897e+06 564527 350263 199150 527043
164 2 Si -1.54779 26.1765 53.176 2.4 -34.1937 7.52746e+06 8.01437e+06 8.7464e+06 -879207 -914246 -489005
165 3 O -1.54279 24.6798 53.2 -1.2 -9.38133 -4.41991e+06 -6.42574e+06 -3.91472e+06 -625252 501047 -1.30733e+06
166 3 O -0.943026 27.648 46.4208 -1.2 -7.03481 -3.98961e+06 -2.95431e+06 -2.15843e+06 -605721 -1.50917e+06 194356
167 3 O -2.71067 27.1118 53.7749 -1.2 -8.16127 -4.27115e+06 -3.29952e+06 -4.18267e+06 -458209 746885 904037
168 3 O -0.283561 26.773 53.9714 -1.2 -8.77308 -5.11003e+06 -4.56105e+06 -1.71597e+06 1.59478e+06 -310409 161441
169 1 Mg -2.39 35.4554 57.1439 1.2 -7.90631 -80079.6 -1.25038e+06 5.29536e+06 -1.14695e+06 -1.50052e+06 142858
170 1 Mg -1.28421 35.3899 49.8376 1.2 -9.11417 1.66265e+06 2.61025e+06 1.84124e+06 -250222 102628 1.21681e+06
171 2 Si -0.807101 32.9036 47.9247 2.4 -35.8191 1.08315e+07 7.71237e+06 9.15427e+06 454147 2.35034e+06 769935
172 3 O -0.727174 34.4729 47.9885 -1.2 -8.02987 -3.61014e+06 -4.71604e+06 -2.62428e+06 476907 -1.90789e+06 -648977
173 3 O -1.35735 31.7701 51.768 -1.2 -7.94602 -3.38809e+06 -3.87714e+06 -3.70046e+06 1.15563e+06 -2.49712e+06 -1.71486e+06
174 3 O -1.97695 32.3253 48.826 -1.2 -8.02665 -2.34718e+06 -3.95981e+06 -3.15728e+06 48638.3 -479858 -1.94808e+06
175 1 Mg 0.237665 30.8412 46.8168 1.2 -7.71079 3.16676e+06 173802 533275 1.12279e+06 1.57836e+06 -58719.1
176 3 O 0.656562 32.2608 48.3877 -1.2 -7.9292 -2.84493e+06 -2.00847e+06 -1.92588e+06 -306077 -251941 149492
177 1 Mg 1.51038 30.8431 54.6517 1.2 -8.90742 2.80482e+06 1.59399e+06 270799 -127810 1.38621e+06 2.04137e+06
178 2 Si 2.0873 33.2798 56.4789 2.4 -33.8776 6.74334e+06 1.47623e+06 1.33167e+07 -1.37722e+06 131190 5.14509e+06
179 3 O 1.97014 31.8141 56.4555 -1.2 -9.10259 -5.13499e+06 -7.93559e+06 -5.45357e+06 1.18965e+06 816393 -863333
180 3 O 1.74574 34.5067 52.7279 -1.2 -8.95857 -4.27274e+06 -2.96696e+06 -5.43021e+06 -415733 -568422 -2.61205e+06
181 3 O 0.65916 33.7901 55.8763 -1.2 -8.5796 -4.18046e+06 -3.8672e+06 -4.16319e+06 -135580 -649302 -2.79e+06
182 3 O 3.19633 33.9795 55.6244 -1.2 -8.7669 -3.49674e+06 -5.0444e+06 -4.40652e+06 196880 1.12711e+06 -2.5165e+06
183 1 Mg 0.167046 33.1343 52.2045 1.2 -8.7489 592170 62161.4 3.55346e+06 -964964 1.75935e+06 1.22628e+06
184 1 Mg 2.20727 32.8578 49.4516 1.2 -8.59968 3.60333e+06 967785 -312213 194952 -212711 895362
185 2 Si 1.67943 35.1802 51.2429 2.4 -33.953 1.04172e+07 5.83115e+06 8.6756e+06 793458 1.09803e+06 1.93761e+06
186 3 O 1.78736 36.747 51.303 -1.2 -9.48061 -3.75285e+06 -2.49592e+06 -2.79425e+06 882545 -921117 -593882
187 3 O 2.04383 34.0687 57.9116 -1.2 -8.72301 -3.2177e+06 -1.41095e+06 -5.32394e+06 607704 -2.71328e+06 -1.23118e+06
188 3 O 0.362533 34.5479 50.661 -1.2 -8.28683 -4.50083e+06 -3.02768e+06 -4.21241e+06 1.10452e+06 -364935 -797927
189 1 Mg -2.80215 33.1347 52.3062 1.2 -8.21038 1.46554e+06 -1.16156e+06 3.71343e+06 2.13651e+06 -1.88053e+06 2.22753e+06
190 3 O 2.91593 34.533 50.466 -1.2 -8.68639 -4.11806e+06 -2.72655e+06 -2.03133e+06 -397771 544203 -1.23575e+06
191 1 Mg -1.05018 33.1525 55.2168 1.2 -8.60023 1.69859e+06 1.04086e+06 29831.2 -115347 -27009 661277
192 2 Si -1.59629 31.0972 53.2899 2.4 -34.4042 1.10995e+07 6.20052e+06 1.04896e+07 1.23445e+06 -2.16645e+06 2.48656e+06
193 3 O -1.305 29.5951 53.1199 -1.2 -8.66477 -3.53804e+06 -3.89759e+06 -3.35687e+06 -2.23223e+06 1.1022e+06 130089
194 3 O -0.842495 32.4028 46.4192 -1.2 -7.02341 -3.99883e+06 -2.61013e+06 -2.51199e+06 -602177 -1.51063e+06 345353
195 3 O -2.75374 31.7952 53.9893 -1.2 -8.71548 -4.39552e+06 -3.55496e+06 -3.82987e+06 -131365 807602 -2.05017e+06
196 3 O -0.119186 31.841 53.8621 -1.2 -7.96184 -1.09336e+06 -3.37691e+06 -4.47051e+06 1.2479e+06 -1.07654e+06 -2.12514e+06
197 1 Mg -2.55308 40.1519 57.4005 1.2 -8.26175 393628 -2.39776e+06 4.54848e+06 -1.0475e+06 -1.48832e+06 523205
198 1 Mg -1.17787 40.1435 49.8359 1.2 -8.86201 1.54372e+06 2.50997e+06 1.6477e+06 -162600 219062 1.48289e+06
199 2 Si -0.702692 37.6572 47.9231 2.4 -35.4659 1.03729e+07 7.8641e+06 8.89172e+06 507745 2.28621e+06 728676
200 3 O -0.621782 39.2264 47.9868 -1.2 -8.18706 -3.40452e+06 -4.74456e+06 -2.55947e+06 455039 -1.9251e+06 -769446
201 3 O -1.25221 36.5242 51.7666 -1.2 -8.59527 -1.87314e+06 -3.8885e+06 -3.88872e+06 123030 1.93889e+06 -1.87757e+06
202 3 O -1.87295 37.0796 48.8243 -1.2 -8.23914 -1.92764e+06 -4.03001e+06 -3.17434e+06 26757.3 -340099 -1.83207e+06
203 1 Mg 0.341084 35.5943 46.8152 1.2 -7.61462 3.03866e+06 159499 523507 1.1256e+06 1.58162e+06 -244871
204 3 O 0.760681 37.0138 48.3864 -1.2 -8.13083 -2.60007e+06 -2.09509e+06 -1.76126e+06 -305621 -320659 196304
205 1 Mg 1.67349 35.3621 54.4474 1.2 -8.46744 1.79699e+06 2.32455e+06 -1.01289e+06 1.24719e+06 -928793 1.81885e+06
206 2 Si 2.15997 38.0771 56.3351 2.4 -34.4529 1.10424e+07 4.17067e+06 1.12225e+07 -760930 447203 1.49951e+06
207 3 O 1.978 36.5538 56.3504 -1.2 -9.28714 -4.54917e+06 -2.06751e+06 -5.69575e+06 58156.2 250304 -1.7125e+06
208 3 O 1.85132 39.2606 52.7264 -1.2 -8.87403 -2.92284e+06 -2.27935e+06 -5.55345e+06 620061 375108 -1.8633e+06
209 3 O 0.923046 38.9881 55.5743 -1.2 -8.1342 -2.16818e+06 -1.85591e+06 -3.79545e+06 -1.61908e+06 26456.8 -1.22717e+06
210 3 O 3.51201 38.7371 55.8835 -1.2 -8.07609 -5.27005e+06 -3.00007e+06 -6.94564e+06 1.37418e+06 582414 -891243
211 1 Mg 0.272384 37.8883 52.2029 1.2 -7.8359 -4003.38 -1.5661e+06 4.26066e+06 -274002 2.36249e+06 1.71424e+06
212 1 Mg 2.31122 37.6122 49.4501 1.2 -8.34945 3.00994e+06 1.05801e+06 -201978 59199.7 -85825.1 868007
213 2 Si 1.78573 39.934 51.2414 2.4 -33.7016 8.41814e+06 5.47891e+06 1.06432e+07 92675.4 285489 1.96128e+06
214 3 O 1.89428 41.5006 51.3014 -1.2 -9.37271 -3.86359e+06 -2.09745e+06 -3.70594e+06 722457 88538.4 -86581
215 3 O 2.09159 38.688 57.8021 -1.2 -8.54771 -6.09946e+06 -1.4068e+06 -7.10627e+06 -391646 1.53574e+06 194853
216 3 O 0.469216 39.3015 50.6588 -1.2 -8.62472 -3.69039e+06 -2.91377e+06 -4.48476e+06 1.03342e+06 -920615 -1.04832e+06
217 1 Mg -2.69668 37.8889 52.3043 1.2 -7.9916 -112841 -573947 4.46058e+06 1.13111e+06 -1.59107e+06 1.66513e+06
218 3 O 3.0225 39.2866 50.4651 -1.2 -9.01092 -3.39259e+06 -2.7856e+06 -2.00185e+06 -244839 1.02555e+06 -1.1393e+06
219 1 Mg -0.847226 37.8497 55.1735 1.2 -8.92483 2.42836e+06 1.17493e+06 129512 469031 376491 624163
220 2 Si -1.16866 35.8394 53.2808 2.4 -34.0299 7.28966e+06 5.38613e+06 1.17317e+07 372204 1.04974e+06 3.13001e+06
221 3 O -1.25514 34.3212 53.1081 -1.2 -8.82453 -3.65101e+06 -4.50457e+06 -4.61305e+06 1.61706e+06 1.32626e+06 -753414
222 3 O -0.738054 37.1566 46.4176 -1.2 -7.13162 -3.83757e+06 -2.65978e+06 -2.45465e+06 -607030 -1.49973e+06 408715
223 3 O -2.38474 36.5009 53.9481 -1.2 -8.35424 -3.74659e+06 -3.99585e+06 -4.97136e+06 -181604 1.61793e+06 -2.03236e+06
224 3 O 0.12463 36.3951 54.1359 -1.2 -8.90952 -5.00353e+06 -3.21964e+06 -2.05065e+06 1.67304e+06 421495 -1.93206e+06
225 1 Mg -2.57363 44.9121 57.409 1.2 -7.95038 -463707 -2.3197e+06 3.59093e+06 -516447 -2.52665e+06 -475938
226 1 Mg -1.06993 44.8968 49.8343 1.2 -8.96383 1.72256e+06 2.49344e+06 1.65009e+06 -230800 12317 1.45507e+06
227 2 Si -0.596166 42.4103 47.9215 2.4 -35.4154 1.03151e+07 7.45601e+06 9.28219e+06 474656 2.31536e+06 929077
228 3 O -0.51472 43.9796 47.9853 -1.2 -8.1583 -3.46709e+06 -4.53042e+06 -2.75134e+06 471601 -1.91144e+06 -805569
229 3 O -1.14475 41.2777 51.7649 -1.2 -8.69201 -2.82932e+06 -1.15752e+06 -4.69759e+06 129964 -482400 -2.66423e+06
230 3 O -1.76671 41.8331 48.8226 -1.2 -8.29328 -1.90012e+06 -3.79562e+06 -3.34874e+06 23440.6 -353210 -1.96784e+06
231 1 Mg 0.447076 40.3473 46.8135 1.2 -7.52911 2.89877e+06 114027 571631 1.12395e+06 1.59416e+06 -110454
232 3 O 0.866985 41.7666 48.385 -1.2 -8.17732 -2.48522e+06 -1.8935e+06 -1.99862e+06 -293577 -328442 96442.8
233 1 Mg 1.94396 40.3884 54.5366 1.2 -8.93988 1.90991e+06 281993 290976 -136776 383740 506904
234 2 Si 2.23555 42.7863 56.3576 2.4 -32.8758 6.93949e+06 4.2204e+06 1.39366e+07 474011 -160313 1.39383e+06
235 3 O 2.10834 41.2244 56.463 -1.2 -9.50354 -5.0918e+06 -2.98245e+06 -5.17002e+06 311104 77458.6 -1.54862e+06
236 3 O 1.95891 44.014 52.7248 -1.2 -8.65064 -3.49623e+06 -3.81696e+06 -5.32601e+06 -107239 731290 -1.71617e+06
237 3 O 1.10778 43.5586 55.513 -1.2 -9.20679 -2.76623e+06 -1.8766e+06 -5.43263e+06 -1.43819e+06 -561458 -632047
238 3 O 3.55282 43.5196 55.942 -1.2 -8.9855 -4.59085e+06 -2.73115e+06 -5.8844e+06 1.47578e+06 -470625 -1.12345e+06
239 1 Mg 0.379928 42.6418 52.2013 1.2 -8.31831 372887 -1.62714e+06 4.42531e+06 -420071 1.84889e+06 694680
240 1 Mg 2.41752 42.366 49.4484 1.2 -8.3451 2.99893e+06 814391 52424.9 136374 -153309 854880
241 2 Si 1.89374 44.6874 51.2398 2.4 -33.9946 8.77082e+06 6.06064e+06 1.02435e+07 716556 1.04527e+06 1.67783e+06
242 3 O 2.00266 46.254 51.2996 -1.2 -9.11942 -4.29202e+06 -2.1825e+06 -3.88911e+06 810338 -758643 -157003
243 3 O 1.98308 43.4715 57.9146 -1.2 -8.84259 -3.18594e+06 -764308 -3.63519e+06 -429801 803587 582249
244 3 O 0.577464 44.0549 50.6567 -1.2 -8.59669 -3.95499e+06 -2.96444e+06 -4.06628e+06 967771 -1.09186e+06 -564612
245 1 Mg -2.58906 42.6425 52.3022 1.2 -8.06595 669354 -580125 4.13066e+06 949868 -1.29027e+06 774824
246 3 O 3.13067 44.0398 50.464 -1.2 -8.87495 -3.41826e+06 -2.82059e+06 -2.21191e+06 -295588 937304 -1.07684e+06
247 1 Mg -0.791214 42.5722 55.3588 1.2 -8.32695 1.53157e+06 947613 -1.28109e+06 88768.1 -371259 1.63771e+06
248 2 Si -1.05446 40.4515 53.2158 2.4 -33.8264 1.00434e+07 6.7812e+06 1.28082e+07 594078 -97728.9 39994.8
249 3 O -1.07359 38.9072 53.1836 -1.2 -9.5116 -4.14438e+06 -2.2658e+06 -4.83963e+06 -105596 1.11565e+06 -1.56389e+06
250 3 O -0.631421 41.9099 46.4159 -1.2 -7.17264 -3.77711e+06 -2.52931e+06 -2.57881e+06 -604004 -1.50434e+06 281967
251 3 O -2.28113 41.1264 54.0611 -1.2 -8.55594 -2.96972e+06 -2.40829e+06 -2.65937e+06 -1.91406e+06 340428 1.05604e+06
252 3 O 0.295838 41.2578 53.8226 -1.2 -8.32589 -2.98653e+06 -3.13777e+06 -3.45142e+06 2.85204e+06 110514 1.16799e+06
253 1 Mg -2.39599 49.5991 57.3785 1.2 -8.21085 -1.15499e+06 -1.80511e+06 5.10098e+06 -1.63851e+06 -2.04254e+06 -720563
254 1 Mg -0.961069 49.6502 49.8327 1.2 -9.09044 1.83578e+06 2.12411e+06 2.11632e+06 -132057 218571 992198
255 2 Si -0.488083 47.1636 47.9198 2.4 -35.595 1.06045e+07 6.81782e+06 9.91993e+06 494094 2.26465e+06 905532
256 3 O -0.40607 48.7329 47.9837 -1.2 -8.07576 -3.57622e+06 -4.19634e+06 -3.10206e+06 453422 -1.91265e+06 -642923
257 3 O -1.0361 46.031 51.7632 -1.2 -8.40304 -3.61895e+06 -2.18987e+06 -4.61381e+06 173639 1.74171e+06 -2.79861e+06
258 3 O -1.65866 46.5866 48.821 -1.2 -8.16678 -2.04269e+06 -3.51824e+06 -3.67198e+06 -9085.65 -306408 -2.0231e+06
259 1 Mg 0.554124 45.1001 46.8117 1.2 -7.56312 2.96415e+06 -128531 804061 1.12134e+06 1.59533e+06 -68006
260 3 O 0.974961 46.5195 48.3832 -1.2 -8.08248 -2.68153e+06 -1.61463e+06 -2.22019e+06 -274311 -342647 60550.8
261 1 Mg 2.08727 45.0916 54.516 1.2 -8.53619 404687 1.21431e+06 -60771.5 630883 288608 710924
262 2 Si 2.30154 47.5432 56.2948 2.4 -32.8978 1.01731e+07 1.94134e+06 1.38805e+07 -809085 -1.06808e+06 -293236
263 3 O 2.23338 46.0697 56.4617 -1.2 -10.0624 -4.34085e+06 -4.68512e+06 -5.42405e+06 1.48884e+06 -171333 -273207
264 3 O 2.0677 48.7672 52.7232 -1.2 -8.46006 -4.75497e+06 -1.97289e+06 -4.85237e+06 186210 -463700 -1.68833e+06
265 3 O 0.951248 48.2592 55.5437 -1.2 -8.8387 -1.81978e+06 -538108 -3.7724e+06 -717012 648863 -325515
266 3 O 3.5672 48.3152 55.6291 -1.2 -8.60504 -1.58364e+06 -1.81859e+06 -4.46884e+06 987573 -271785 -853674
267 1 Mg 0.488584 47.395 52.1996 1.2 -8.41451 1.54053e+06 -1.34747e+06 3.86538e+06 -1.02764e+06 2.03599e+06 1.42041e+06
268 1 Mg 2.52544 47.1195 49.4466 1.2 -8.50981 3.2503e+06 489769 397430 97705.5 -41407.3 874530
269 2 Si 2.00256 49.4407 51.2382 2.4 -34.3005 1.00314e+07 4.79505e+06 1.06996e+07 145461 738021 1.19188e+06