ITEM: TIMESTEP
57300
ITEM: NUMBER OF ATOMS
10500
ITEM: BOX BOUNDS xy xz yz pp pp pp
0.0000000000000000e+00 8.9687999999999999e+00 2.9895999999999998e+00
0.0000000000000000e+00 1.1872499999999999e+02 0.0000000000000000e+00
0.0000000000000000e+00 2.5297749999999999e+02 0.0000000000000000e+00
ITEM: ATOMS id type element xu yu zu q c_pe c_s[1] c_s[2] c_s[3] c_s[4] c_s[5] c_s[6]
1 1 Mg -3.25952 7.02111 57.3884 1.2 -6.75694 -491251 -2.11166e+06 5.0323e+06 -2.79214e+06 -2.10133e+06 -426670
2 1 Mg -1.82655 6.90154 50.0912 1.2 -7.83137 -345300 946702 1.14406e+06 -173625 -288495 1.82992e+06
3 2 Si -0.257935 3.96038 48.0876 2.4 -35.7015 9.44524e+06 8.49813e+06 1.11109e+07 807233 2.03287e+06 1.75439e+06
4 3 O -0.335812 5.46814 47.6264 -1.2 -8.00443 -2.73697e+06 -2.34963e+06 -2.64609e+06 145050 -990966 -666500
5 3 O -2.03793 3.43377 51.8941 -1.2 -9.04681 -4.21588e+06 158812 -6.86816e+06 -1.18525e+06 775707 -1.79769e+06
6 3 O -1.54015 3.53929 48.9521 -1.2 -8.48852 -1.06571e+06 -1.4548e+06 -4.43833e+06 29603.9 -754671 -260420
7 1 Mg 1.82954 2.54582 47.1376 1.2 -7.8737 2.40817e+06 -664036 921831 1.14838e+06 822735 506466
8 3 O 1.22989 3.66364 48.7877 -1.2 -8.19243 -1.31423e+06 -2.2387e+06 -3.88347e+06 -482075 -713218 -995309
9 1 Mg 0.962073 2.2155 54.5462 1.2 -8.11597 875070 296449 1.12436e+06 418906 -890080 1.19485e+06
10 2 Si 1.13769 5.06718 56.6133 2.4 -31.0554 5.39465e+06 3.30149e+06 1.48516e+07 -711301 -738782 1.49796e+06
11 3 O 0.986897 3.4764 56.7085 -1.2 -10.1098 -2.59646e+06 23908.4 -6.49687e+06 513520 320439 -50348.4
12 3 O 1.10813 6.07342 52.8172 -1.2 -9.3406 -1.97008e+06 -3.63786e+06 -4.79345e+06 -253497 -574343 -1.6912e+06
13 3 O -0.243104 5.73965 56.0176 -1.2 -9.69617 364845 -2.06629e+06 -5.29077e+06 12420.6 1.07901e+06 -880715
14 3 O 2.26375 5.51902 55.5861 -1.2 -10.1153 -1.38221e+06 -2.06996e+06 -2.10359e+06 -514012 -368249 305031
15 1 Mg -0.459401 4.67631 52.2426 1.2 -7.74931 -1.22792e+06 -1.80418e+06 5.23276e+06 -958785 1.60488e+06 1.08715e+06
16 1 Mg 2.79456 3.9971 49.9987 1.2 -8.14337 3.2587e+06 -344943 1.88648e+06 -532451 705088 -875661
17 2 Si 1.16169 6.59457 51.2556 2.4 -32.8827 5.09373e+06 6.12091e+06 1.28121e+07 473776 711987 3.49415e+06
18 3 O 1.28989 8.18905 51.2909 -1.2 -9.82172 -2.16982e+06 -1.22326e+06 -4.35692e+06 276822 -933988 538076
19 3 O 1.24052 5.72622 58.1103 -1.2 -10.0958 -2.54688e+06 -4.46176e+06 -4.90211e+06 -143278 -2.02881e+06 1.88972e+06
20 3 O -0.184847 6.06029 50.6845 -1.2 -9.12625 -2.22996e+06 -3.0569e+06 -5.23958e+06 1.45086e+06 -707844 -1.56154e+06
21 1 Mg -3.49704 4.67769 52.6661 1.2 -7.30672 -355507 -1.47618e+06 3.48223e+06 2.19627e+06 -1.31737e+06 1.54369e+06
22 3 O 2.48581 5.93312 50.6539 -1.2 -9.68272 -2.23782e+06 -1.54834e+06 -2.98666e+06 -1.62886e+06 -102932 -1.20801e+06
23 1 Mg -1.8817 4.56693 55.1803 1.2 -7.56455 2.39373e+06 1.20555e+06 1.30158e+06 141737 276955 -152418
24 2 Si -1.9158 2.58024 53.2877 2.4 -32.8103 8.63643e+06 2.36725e+06 1.2115e+07 -30464.9 -51147.8 -2.1975e+06
25 3 O -1.87976 1.00978 53.2882 -1.2 -9.63091 -4.17163e+06 -2.37038e+06 -5.28731e+06 569205 -335956 113626
26 3 O -0.0467762 2.97103 46.8385 -1.2 -7.13988 -2.7537e+06 -1.99648e+06 -3.03427e+06 -990668 -2.01365e+06 -612536
27 3 O -3.2807 3.13408 53.978 -1.2 -9.30529 -1.45749e+06 -2.51456e+06 -5.62803e+06 -537016 244075 -44145.4
28 3 O -0.634368 3.21715 53.8717 -1.2 -9.35055 -3.45518e+06 -3.52264e+06 -5.54052e+06 558414 -961219 484151
29 1 Mg -3.46384 11.9883 57.4398 1.2 -7.06841 -2.85503e+06 -1.60702e+06 5.67441e+06 -372739 -1.85175e+06 -250094
30 1 Mg -1.75014 11.5838 49.8362 1.2 -8.2407 412562 1.43204e+06 3.07484e+06 -350622 43154.6 1.04893e+06
31 2 Si -1.18003 9.02138 47.9309 2.4 -33.9627 7.73152e+06 6.61753e+06 1.02738e+07 207709 2.58104e+06 948087
32 3 O -1.23224 10.5991 47.9811 -1.2 -8.9392 -2.15811e+06 -3.17486e+06 -3.17639e+06 663774 -1.88583e+06 -205326
33 3 O -1.79016 8.01447 51.8693 -1.2 -9.55533 -2.69917e+06 -1.08799e+06 -5.45867e+06 210631 1.11168e+06 -2.15428e+06
34 3 O -2.30986 8.37215 48.8528 -1.2 -9.2164 -626336 -2.31501e+06 -3.58858e+06 -334905 -561526 -1.22646e+06
35 1 Mg 0.154883 7.08234 46.8007 1.2 -7.32022 1.56625e+06 -298255 943146 942090 1.73371e+06 -806946
36 3 O 0.325447 8.50934 48.3809 -1.2 -8.8564 -1.0608e+06 -1.73194e+06 -2.95414e+06 -27503.5 -855809 53014.2
37 1 Mg 0.940959 6.97355 54.7795 1.2 -7.64195 804855 -538500 1.56612e+06 386374 -1.89525e+06 3.07724e+06
38 2 Si 1.12263 9.83599 56.4415 2.4 -32.2005 4.82786e+06 3.33537e+06 1.61173e+07 1.25409e+06 928784 769331
39 3 O 1.01558 8.23758 56.7291 -1.2 -9.88304 -2.28366e+06 2.48238e+06 -6.40884e+06 -665681 -891628 -1.48421e+06
40 3 O 1.28624 10.7248 52.7351 -1.2 -9.47091 -2.45547e+06 -1.17515e+06 -5.15737e+06 -108709 -210690 -1.09486e+06
41 3 O -0.140327 10.4635 55.748 -1.2 -9.76362 -1.40279e+06 -1.89769e+06 -4.30011e+06 -874695 195773 486800
42 3 O 2.34589 10.4842 55.7551 -1.2 -9.88729 -2.17454e+06 -1.23452e+06 -5.27188e+06 654138 -56550.7 90519.1
43 1 Mg -0.262694 9.34741 52.2523 1.2 -7.41308 -261118 -1.6066e+06 5.1461e+06 -1.66781e+06 1.99677e+06 1.17097e+06
44 1 Mg 1.87648 9.01537 49.4629 1.2 -7.64079 1.55224e+06 198077 709119 292920 -219418 679613
45 2 Si 1.21415 11.3799 51.2378 2.4 -32.5532 7.52458e+06 3.71797e+06 1.1886e+07 578264 1.25239e+06 1.35175e+06
46 3 O 1.31634 12.9512 51.3023 -1.2 -10.109 -2.77773e+06 -1.09125e+06 -4.26363e+06 708846 -805875 293952
47 3 O 1.16481 10.5431 58.0204 -1.2 -9.34339 -1.79663e+06 -333534 -3.24678e+06 -385444 508810 -448417
48 3 O -0.115718 10.7564 50.681 -1.2 -9.17304 -3.22462e+06 -1.73297e+06 -5.1671e+06 1.21455e+06 -369260 -854921
49 1 Mg -3.26386 9.35564 52.3622 1.2 -7.44661 -1.0554e+06 -645159 4.04024e+06 1.80897e+06 -2.07307e+06 944034
50 3 O 2.45216 10.7265 50.4558 -1.2 -9.55201 -2.39531e+06 -1.42336e+06 -3.22592e+06 -873376 233261 -539850
51 1 Mg -1.87121 9.55002 55.0575 1.2 -7.52026 2.35318e+06 253832 2.78682e+06 -542877 193563 -448661
52 2 Si -1.72469 7.30011 53.373 2.4 -32.1839 8.25544e+06 1.56308e+06 1.24298e+07 410157 282723 320525
53 3 O -1.67455 5.80789 53.4815 -1.2 -10.0748 -3.63354e+06 -3.35579e+06 -4.65108e+06 1.62925e+06 572423 -1.2753e+06
54 3 O -1.19417 8.46968 46.4488 -1.2 -7.83228 -2.42141e+06 -1.79795e+06 -3.18606e+06 -538734 -1.73994e+06 619577
55 3 O -3.00174 7.97674 53.9924 -1.2 -9.38757 -1.70042e+06 -1.49265e+06 -4.76534e+06 -49558.7 301747 -541738
56 3 O -0.413137 8.10697 54.0383 -1.2 -9.46721 -1.45998e+06 -1.70834e+06 -4.21297e+06 1.28111e+06 144389 -518808
57 1 Mg -2.85881 16.5419 57.0153 1.2 -7.16616 -1.34792e+06 -2.86645e+06 5.25509e+06 -2.83379e+06 -1.12492e+06 -781762
58 1 Mg -1.6714 16.3544 49.8412 1.2 -8.05357 203349 1.49387e+06 2.77003e+06 -170071 129217 810021
59 2 Si -1.18567 13.8526 47.9314 2.4 -33.7734 7.71034e+06 5.3704e+06 1.12629e+07 515768 2.19358e+06 -173298
60 3 O -1.09664 15.4205 47.9915 -1.2 -9.04603 -1.95902e+06 -3.46057e+06 -3.61437e+06 417572 -1.91304e+06 -233498
61 3 O -1.73493 12.7491 51.7772 -1.2 -9.10472 -1.60467e+06 -2.95014e+06 -7.05876e+06 54738.5 1.34926e+06 -656752
62 3 O -2.36115 13.2717 48.8238 -1.2 -9.06749 -646561 -2.61366e+06 -4.39419e+06 -108580 -312350 -1.35029e+06
63 1 Mg -0.159928 11.7639 46.8533 1.2 -6.76559 1.71956e+06 -950647 1.58209e+06 1.12748e+06 1.56949e+06 -727414
64 3 O 0.2623 13.1866 48.413 -1.2 -8.98398 -1.27141e+06 -671186 -3.04082e+06 -201446 -308990 667935
65 1 Mg 1.36557 12.031 54.6041 1.2 -7.82236 463149 539956 1.14157e+06 527030 -148092 965376
66 2 Si 1.17321 14.5031 56.4443 2.4 -31.7652 5.46266e+06 1.73246e+06 1.43737e+07 627196 -596827 1.08629e+06
67 3 O 1.23696 12.9686 56.3898 -1.2 -10.5377 -3.47912e+06 -3.19108e+06 -6.49727e+06 294694 -1.13183e+06 -934305
68 3 O 1.36565 15.4813 52.729 -1.2 -9.76483 -2.0644e+06 -1.23721e+06 -6.22064e+06 372615 -1.05132e+06 -1.32867e+06
69 3 O -0.0137429 15.2291 55.9138 -1.2 -9.75471 -5.17474e+06 -2.0614e+06 -4.7762e+06 -49673.7 -581656 -461082
70 3 O 2.42363 15.2699 55.5589 -1.2 -9.16987 -1.75465e+06 -3.29239e+06 -5.87478e+06 2.88321e+06 -104812 -344614
71 1 Mg -0.206989 14.1049 52.2121 1.2 -7.22288 -49503.8 -2.17592e+06 5.28993e+06 -1.2916e+06 1.45223e+06 1.42065e+06
72 1 Mg 1.82591 13.8102 49.4556 1.2 -7.5613 1.7149e+06 -55475.4 1.00279e+06 96137.5 -9515.1 392946
73 2 Si 1.29285 16.1518 51.2434 2.4 -32.064 6.24122e+06 3.58778e+06 1.21155e+07 107518 875212 748780
74 3 O 1.39496 17.7199 51.3047 -1.2 -10.2751 -2.20854e+06 -1.27756e+06 -4.60253e+06 760264 -552657 314515
75 3 O 1.43381 15.0897 58.0092 -1.2 -9.50716 -2.46496e+06 -1.81481e+06 -4.83986e+06 1.23822e+06 -153185 1.88946e+06
76 3 O -0.0269106 15.5178 50.6688 -1.2 -9.43398 -2.56885e+06 -1.68426e+06 -5.12058e+06 1.094e+06 -908901 -504717
77 1 Mg -3.18391 14.1057 52.3125 1.2 -7.49805 -1.39794e+06 -1.15728e+06 5.15485e+06 1.29473e+06 -1.30145e+06 1.2964e+06
78 3 O 2.52432 15.503 50.4579 -1.2 -9.75566 -2.02786e+06 -1.59731e+06 -3.10648e+06 -313080 835238 -415861
79 1 Mg -1.80064 14.2912 55.1554 1.2 -7.88398 1.40512e+06 -201047 2.69899e+06 586273 262223 588530
80 2 Si -1.54584 12.0351 53.2181 2.4 -32.6253 6.58646e+06 -392434 1.2065e+07 -1.95678e+06 237096 2.22971e+06
81 3 O -1.77767 10.6253 53.0591 -1.2 -9.9363 -3.16749e+06 -7.04816e+06 -5.69721e+06 633264 57599.8 -103964
82 3 O -1.21337 13.3381 46.4311 -1.2 -7.9619 -2.57611e+06 -1.44188e+06 -3.59672e+06 -632610 -1.4442e+06 866670
83 3 O -2.88134 12.8117 53.9573 -1.2 -8.92896 -853495 -2.94826e+06 -5.36694e+06 -1.85645e+06 1.04838e+06 -416546
84 3 O -0.335685 12.7198 53.9077 -1.2 -9.69817 -4.49559e+06 -2.18299e+06 -3.81719e+06 1.58027e+06 -1.16263e+06 -44500.7
85 1 Mg -3.09742 21.2396 57.3929 1.2 -7.51833 -1.26073e+06 -2.74882e+06 4.8823e+06 -721019 -1.75144e+06 -1.28204e+06
86 1 Mg -1.5831 21.1217 49.8405 1.2 -8.08566 183279 1.31238e+06 3.00314e+06 -181471 262847 800814
87 2 Si -1.09384 18.6291 47.9287 2.4 -33.6902 7.52254e+06 5.40687e+06 1.13451e+07 498331 2.31516e+06 -31754.6
88 3 O -1.02071 20.1985 47.9911 -1.2 -9.05504 -1.9777e+06 -3.43979e+06 -3.76841e+06 453859 -1.9308e+06 -264388
89 3 O -1.65002 17.5002 51.771 -1.2 -9.74817 -1.68442e+06 -1.85976e+06 -5.12004e+06 255671 -399090 -1.49117e+06
90 3 O -2.26174 18.0434 48.8281 -1.2 -9.15338 -535142 -2.72486e+06 -4.34314e+06 -34195.8 -352835 -1.39595e+06
91 1 Mg -0.0440435 16.5651 46.8269 1.2 -6.6975 1.53811e+06 -923978 1.6119e+06 1.13324e+06 1.58116e+06 -634207
92 3 O 0.37001 17.9877 48.3925 -1.2 -9.03781 -1.12591e+06 -851874 -3.01936e+06 -278057 -337757 593962
93 1 Mg 1.26372 16.5188 54.5163 1.2 -7.97403 456437 149407 1.36503e+06 303504 -1.40607e+06 1.41308e+06
94 2 Si 1.38176 19.2577 56.522 2.4 -32.1065 5.43884e+06 7.06063e+06 1.3848e+07 212889 -67414.5 -883649
95 3 O 1.35057 17.6359 56.6359 -1.2 -9.62181 -2.05351e+06 1.30223e+06 -5.99833e+06 308377 -1.01795e+06 -1.06759e+06
96 3 O 1.45147 20.239 52.7294 -1.2 -9.7958 -1.88249e+06 -1.72103e+06 -6.29411e+06 76550.7 -514258 -1.22325e+06
97 3 O 0.158044 19.9043 55.6886 -1.2 -9.46172 -1.82515e+06 -2.14857e+06 -3.54112e+06 -529809 1.14177e+06 -315312
98 3 O 2.63961 19.9746 55.7476 -1.2 -9.69243 -2.03593e+06 -2.27748e+06 -3.57282e+06 1.04372e+06 -1.08608e+06 -1.23211e+06
99 1 Mg -0.126194 18.8651 52.2079 1.2 -7.17778 -1.63171e+06 -2.2875e+06 4.96604e+06 -934458 2.63975e+06 765640
100 1 Mg 1.92402 18.5815 49.4545 1.2 -7.4823 1.60271e+06 -163210 1.00478e+06 103282 -124463 391974
101 2 Si 1.38106 20.9117 51.2443 2.4 -32.1203 6.55623e+06 3.22931e+06 1.23304e+07 228338 459844 866875
102 3 O 1.48527 22.4795 51.3054 -1.2 -10.2514 -2.52692e+06 -920084 -4.68527e+06 716638 -548875 392620
103 3 O 1.33166 19.9947 57.9539 -1.2 -9.76267 -3.3486e+06 -3.11089e+06 -6.07654e+06 377717 -762489 2.27473e+06
104 3 O 0.0615419 20.2804 50.6669 -1.2 -9.31427 -2.70545e+06 -1.69537e+06 -5.87883e+06 1.06422e+06 -447020 -482580
105 1 Mg -3.09665 18.8643 52.3122 1.2 -7.07966 -1.86235e+06 -2.19144e+06 4.67439e+06 1.38057e+06 -2.64066e+06 669438
106 3 O 2.61548 20.2646 50.4626 -1.2 -9.77204 -2.39687e+06 -1.44126e+06 -3.30231e+06 -296153 716947 -477500
107 1 Mg -1.65192 19.0352 55.0396 1.2 -7.38031 2.64743e+06 281121 1.37826e+06 278593 645616 -232609
108 2 Si -1.58453 16.8942 53.2777 2.4 -31.3139 5.47864e+06 5.40789e+06 1.30085e+07 -631643 -1.67876e+06 -259658
109 3 O -1.68655 15.1928 53.3265 -1.2 -9.78 -2.64095e+06 1.38815e+06 -4.32174e+06 -412855 685954 -81902
110 3 O -1.12868 18.1227 46.4249 -1.2 -8.01753 -2.43668e+06 -1.48861e+06 -3.59338e+06 -605153 -1.49451e+06 798261
111 3 O -2.97633 17.599 53.9946 -1.2 -9.62547 1.46937e+06 -1.79813e+06 -3.62282e+06 -1.13026e+06 -237618 709300
112 3 O -0.352611 17.4766 53.8617 -1.2 -10.1265 -3.50327e+06 -2.27127e+06 -6.31696e+06 -236511 -2.04635e+06 -275659
113 1 Mg -2.82145 26.0456 57.3728 1.2 -7.31312 -1.34744e+06 -790178 3.47017e+06 -122546 -2.26406e+06 -775494
114 1 Mg -1.48778 25.88 49.8402 1.2 -7.97133 -7932.48 1.43222e+06 2.86231e+06 -194955 324378 566265
115 2 Si -1.00491 23.3922 47.9274 2.4 -33.6047 7.3572e+06 5.30838e+06 1.14775e+07 497606 2.33507e+06 -339772
116 3 O -0.927602 24.9615 47.9909 -1.2 -9.11467 -1.88314e+06 -3.52912e+06 -3.76212e+06 457467 -1.93649e+06 -105829
117 3 O -1.55795 22.2588 51.7696 -1.2 -9.31687 -1.87947e+06 -1.05262e+06 -7.00216e+06 469651 -378454 -1.25092e+06
118 3 O -2.17411 22.8111 48.8277 -1.2 -9.18068 -496279 -2.64189e+06 -4.46175e+06 -1129.54 -384419 -1.30089e+06
119 1 Mg 0.0423997 21.3296 46.8225 1.2 -6.65799 1.48991e+06 -1.02768e+06 1.71366e+06 1.12616e+06 1.5859e+06 -659866
120 3 O 0.458537 22.7495 48.3911 -1.2 -9.06705 -1.06026e+06 -766090 -3.1376e+06 -290300 -313805 715024
121 1 Mg 1.34663 21.2459 54.5345 1.2 -7.98687 1.24985e+06 593777 2.02626e+06 255911 -309489 993783
122 2 Si 1.54372 24.0352 56.4194 2.4 -32.756 7.5275e+06 3.18333e+06 1.22816e+07 -794231 125374 -766535
123 3 O 1.49831 22.4517 56.5363 -1.2 -9.58939 -3.69217e+06 -408971 -4.98043e+06 278052 548336 -653021
124 3 O 1.54441 24.9963 52.7297 -1.2 -9.90858 -1.91209e+06 -451462 -5.4473e+06 569094 -11011.2 -416926
125 3 O 0.298542 24.7856 55.7898 -1.2 -9.21811 -2.0327e+06 -1.55471e+06 -4.83956e+06 -167518 -781403 1.02264e+06
126 3 O 2.85198 24.6152 55.826 -1.2 -9.3953 -3.37181e+06 -1.88942e+06 -4.2719e+06 522221 355261 721794
127 1 Mg -0.0335968 23.6229 52.2067 1.2 -7.33742 -1.08652e+06 -1.539e+06 5.51307e+06 -857982 1.70239e+06 696709
128 1 Mg 2.01073 23.3445 49.4541 1.2 -7.44082 1.59612e+06 -319521 1.10637e+06 102648 -161229 198239
129 2 Si 1.47594 25.6699 51.2449 2.4 -31.8262 6.2014e+06 3.37538e+06 1.19477e+07 261809 -9982.57 -181787
130 3 O 1.58172 27.2371 51.3054 -1.2 -10.4483 -2.27423e+06 -1.46678e+06 -4.04713e+06 506323 -430742 465868
131 3 O 1.54266 24.6659 57.9572 -1.2 -9.32422 -3.93269e+06 -2.10053e+06 -6.14953e+06 683762 94677.3 1.81656e+06
132 3 O 0.157925 25.0378 50.6651 -1.2 -9.42548 -2.23996e+06 -1.69976e+06 -5.79618e+06 1.15079e+06 -628098 -217531
133 1 Mg -3.00341 23.6231 52.3098 1.2 -7.12593 -771533 -2.15859e+06 5.18414e+06 1.49772e+06 -1.7322e+06 584574
134 3 O 2.71149 25.0232 50.4656 -1.2 -9.89865 -2.24574e+06 -1.46174e+06 -3.07627e+06 -314742 872020 -185180
135 1 Mg -1.44501 23.5493 54.9977 1.2 -8.05809 2.41207e+06 359085 1.08402e+06 602863 -81657.7 -500147
136 2 Si -1.58132 21.4668 53.221 2.4 -32.0239 5.92847e+06 1.54821e+06 1.38228e+07 -509180 -858434 455366
137 3 O -1.57578 19.9396 53.014 -1.2 -10.4923 -3.36747e+06 -2.91966e+06 -6.1634e+06 -211215 371923 -299479
138 3 O -1.03938 22.8897 46.4223 -1.2 -8.06356 -2.34598e+06 -1.46563e+06 -3.63329e+06 -606771 -1.50351e+06 876574
139 3 O -2.84887 22.1984 53.9063 -1.2 -9.46471 -1.88497e+06 -391760 -6.09903e+06 -1.60485e+06 440062 43634.4
140 3 O -0.352591 22.1638 53.8823 -1.2 -9.6719 -3.33299e+06 -1.19013e+06 -6.61736e+06 1.53884e+06 -1.26102e+06 306123
141 1 Mg -2.74945 30.8838 57.7563 1.2 -6.86441 -1.76543e+06 -1.55713e+06 3.50459e+06 -735490 -2.10722e+06 -662658
142 1 Mg -1.38776 30.6357 49.8391 1.2 -7.84583 -124551 1.508e+06 2.70392e+06 -180333 165287 397986
143 2 Si -0.907929 28.1491 47.9262 2.4 -33.4344 7.09283e+06 5.58642e+06 1.11954e+07 480774 2.31682e+06 -426578
144 3 O -0.829229 29.7184 47.99 -1.2 -9.20702 -1.75908e+06 -3.67307e+06 -3.61874e+06 457840 -1.92074e+06 -72523.3
145 3 O -1.45946 27.0152 51.769 -1.2 -9.72792 -1.01055e+06 -1.92918e+06 -5.81553e+06 894685 -558363 -951060
146 3 O -2.07744 27.5697 48.8273 -1.2 -9.27228 -330317 -2.84324e+06 -4.29214e+06 25799.9 -386308 -1.27195e+06
147 1 Mg 0.137907 26.087 46.819 1.2 -6.5884 1.38052e+06 -940479 1.63184e+06 1.12489e+06 1.58689e+06 -749722
148 3 O 0.55579 27.5065 48.3893 -1.2 -9.15488 -923029 -933013 -2.96503e+06 -300269 -307276 788316
149 1 Mg 1.56798 26.2673 54.5047 1.2 -7.46568 637894 835390 1.62581e+06 156855 270636 109282
150 2 Si 1.6512 28.6955 56.38 2.4 -31.1129 7.87451e+06 2.36501e+06 1.18336e+07 1.29378e+06 -594608 1.06784e+06
151 3 O 1.51408 27.1819 56.601 -1.2 -10.3511 -4.80469e+06 -3.86351e+06 -4.57173e+06 -1.57173e+06 95039.1 600503
152 3 O 1.6432 29.7522 52.7291 -1.2 -9.80074 -2.49329e+06 -1.57092e+06 -4.89605e+06 387580 -756015 -861126
153 3 O 0.293724 29.3407 55.7734 -1.2 -10.1609 -1.58601e+06 -4.26506e+06 -6.74993e+06 -1.22925e+06 329582 -1.27104e+06
154 3 O 2.86554 29.2883 55.5293 -1.2 -9.74578 -1.20879e+06 -3.6848e+06 -5.14427e+06 1.69698e+06 -676736 -688211
155 1 Mg 0.0647462 28.3794 52.2059 1.2 -7.13732 -1.11134e+06 -1.30214e+06 4.94488e+06 -925487 1.62695e+06 507197
156 1 Mg 2.10696 28.1021 49.4531 1.2 -7.34267 1.4409e+06 -128568 922433 138712 -129914 232548
157 2 Si 1.57592 30.4257 51.2442 2.4 -31.7776 5.81844e+06 3.53698e+06 1.21438e+07 274649 753046 376154
158 3 O 1.68288 31.9926 51.3043 -1.2 -10.5439 -1.59802e+06 -1.63633e+06 -4.5277e+06 837887 -509058 536986
159 3 O 1.66889 29.4999 57.8835 -1.2 -9.88597 -1.9204e+06 -3.35665e+06 -2.05456e+06 1.43845e+06 -299390 984320
160 3 O 0.258524 29.7935 50.6632 -1.2 -9.54053 -2.41852e+06 -1.69032e+06 -5.55428e+06 981211 -603527 -196184
161 1 Mg -2.90462 28.3797 52.308 1.2 -7.10632 -1.53096e+06 -2.03605e+06 4.68019e+06 1.55087e+06 -1.73049e+06 1.07994e+06
162 3 O 2.81205 29.7787 50.4664 -1.2 -9.92244 -2.01938e+06 -1.50879e+06 -3.38809e+06 -217849 702698 -324420
163 1 Mg -1.3773 28.5833 55.0561 1.2 -7.84869 -842893 816975 2.21018e+06 -368077 188834 -1.44923e+06
164 2 Si -1.49285 26.3266 53.2478 2.4 -31.8642 4.63948e+06 4.60333e+06 1.3914e+07 -1.16291e+06 -110274 -646280
165 3 O -1.46252 24.7657 53.1927 -1.2 -10.2424 -1.98581e+06 -613357 -5.48801e+06 -829363 -5804.57 332938
166 3 O -0.943026 27.648 46.4208 -1.2 -8.13749 -2.2257e+06 -1.59035e+06 -3.51946e+06 -603706 -1.50528e+06 925455
167 3 O -2.76967 27.1348 53.9582 -1.2 -9.77634 -1.12635e+06 -2.74509e+06 -4.17744e+06 -1.47065e+06 -181726 539550
168 3 O -0.214764 26.9641 53.9241 -1.2 -9.67888 -1.11212e+06 -2.80737e+06 -5.21472e+06 1.28903e+06 -538091 871385
169 1 Mg -2.55591 35.2589 57.5575 1.2 -6.55907 -2.34832e+06 -1.47569e+06 5.08448e+06 -1.35298e+06 -1.60895e+06 -411663
170 1 Mg -1.28421 35.3899 49.8376 1.2 -7.70197 -415596 1.80242e+06 2.46346e+06 -239873 167439 949215
171 2 Si -0.807101 32.9036 47.9247 2.4 -33.1992 6.75876e+06 6.10478e+06 1.0637e+07 485197 2.33094e+06 -254025
172 3 O -0.727174 34.4729 47.9885 -1.2 -9.30727 -1.6045e+06 -3.92836e+06 -3.37003e+06 469958 -1.92356e+06 -330404
173 3 O -1.35735 31.7701 51.768 -1.2 -10.0344 -1.47311e+06 -3.23945e+06 -7.85141e+06 121525 675842 179019
174 3 O -1.97695 32.3253 48.826 -1.2 -9.41916 -120144 -3.11445e+06 -3.9912e+06 7765.79 -331560 -1.26787e+06
175 1 Mg 0.237665 30.8412 46.8168 1.2 -6.50058 1.24914e+06 -774987 1.46064e+06 1.12553e+06 1.59375e+06 -741745
176 3 O 0.656562 32.2608 48.3877 -1.2 -9.2811 -714288 -1.17402e+06 -2.72127e+06 -290310 -345673 763717
177 1 Mg 1.71045 30.7515 54.6737 1.2 -7.24284 1.73655e+06 1.34084e+06 1.30346e+06 -140378 606091 1.73084e+06
178 2 Si 1.65939 33.4854 56.5875 2.4 -31.2721 4.30027e+06 3.50963e+06 1.22639e+07 -660046 -98592.8 -382923
179 3 O 1.83993 31.9585 56.6879 -1.2 -10.4459 -1.65524e+06 -3.1174e+06 -4.91007e+06 155481 1.42209e+06 1.74339e+06
180 3 O 1.74574 34.5067 52.7279 -1.2 -10.3952 -952064 -1.72875e+06 -5.79077e+06 -116997 71835.6 -1.07476e+06
181 3 O 0.346929 33.9938 55.8424 -1.2 -9.74831 -1.41788e+06 -3.39508e+06 -3.07952e+06 -1.06484e+06 1.06613e+06 -102225
182 3 O 2.91045 34.1049 55.7618 -1.2 -10.0464 -473913 -4.14123e+06 -2.00441e+06 548497 -417707 -661342
183 1 Mg 0.167046 33.1343 52.2045 1.2 -6.83083 -2.45581e+06 -1.96565e+06 5.09785e+06 -1.01438e+06 2.419e+06 561096
184 1 Mg 2.20727 32.8578 49.4516 1.2 -7.17718 1.0945e+06 177162 708391 116746 -177443 203354
185 2 Si 1.67943 35.1802 51.2429 2.4 -31.0617 4.83711e+06 4.35854e+06 1.11032e+07 702587 476345 598167
186 3 O 1.78736 36.747 51.303 -1.2 -10.7495 -1.71818e+06 -1.61238e+06 -3.84986e+06 658443 -810820 -103986
187 3 O 1.73234 34.2076 58.0274 -1.2 -10.6028 -1.73945e+06 -2.70762e+06 -4.66828e+06 297319 123362 -108885
188 3 O 0.362533 34.5479 50.661 -1.2 -9.79255 -1.90491e+06 -2.08807e+06 -5.40377e+06 1.12977e+06 -608985 -262186
189 1 Mg -2.80215 33.1347 52.3062 1.2 -6.61928 -1.80165e+06 -1.55554e+06 4.51411e+06 1.95001e+06 -2.03106e+06 802630
190 3 O 2.91593 34.533 50.466 -1.2 -10.1993 -1.59142e+06 -2.03634e+06 -2.74228e+06 -387092 863539 -590268
191 1 Mg -1.30586 33.2286 55.1042 1.2 -7.3593 1.33361e+06 1.35079e+06 734507 166015 -324077 -448512
192 2 Si -1.32677 31.1494 53.1737 2.4 -31.6501 5.30903e+06 4.36978e+06 1.07072e+07 1.0224e+06 356600 1.55557e+06
193 3 O -1.4029 29.5406 53.1033 -1.2 -10.0391 -2.50556e+06 -1.46388e+06 -5.39985e+06 91292.6 1.07553e+06 958652
194 3 O -0.842495 32.4028 46.4192 -1.2 -8.21987 -2.09816e+06 -1.7893e+06 -3.31623e+06 -605012 -1.50591e+06 846710
195 3 O -2.57745 31.7718 53.8901 -1.2 -9.90574 -1.27592e+06 -2.76792e+06 -4.88159e+06 118180 757444 -686452
196 3 O -0.0102846 31.7411 53.9313 -1.2 -9.92442 -247586 -2.29892e+06 -2.29577e+06 384131 597982 -821660
197 1 Mg -2.99648 40.1377 57.6427 1.2 -6.72179 -195536 -1.02643e+06 5.3407e+06 -1.43369e+06 -1.39964e+06 -480443
198 1 Mg -1.17787 40.1435 49.8359 1.2 -7.94681 -97499.1 1.20884e+06 3.12149e+06 -157653 97986.2 1.13453e+06
199 2 Si -0.702692 37.6572 47.9231 2.4 -33.2475 6.82684e+06 5.86459e+06 1.08822e+07 480639 2.27301e+06 560918
200 3 O -0.621782 39.2264 47.9868 -1.2 -9.21561 -1.74955e+06 -3.62135e+06 -3.69495e+06 462829 -1.89851e+06 -633702
201 3 O -1.25221 36.5242 51.7666 -1.2 -9.99284 -404469 -1.54431e+06 -6.32122e+06 642926 1.51094e+06 -1.49839e+06
202 3 O -1.87295 37.0796 48.8243 -1.2 -9.41348 -55392 -3.07123e+06 -4.12461e+06 19097.2 -330722 -1.76477e+06
203 1 Mg 0.341084 35.5943 46.8152 1.2 -6.45481 1.18115e+06 -664286 1.34659e+06 1.12147e+06 1.59059e+06 -436780
204 3 O 0.760681 37.0138 48.3864 -1.2 -9.29222 -736128 -1.14597e+06 -2.71548e+06 -291609 -329743 318720
205 1 Mg 1.94103 35.6143 54.4345 1.2 -7.33163 -321894 1.78536e+06 897864 -353076 892403 918485
206 2 Si 1.58563 38.1583 56.3299 2.4 -32.355 4.655e+06 2.2121e+06 1.06569e+07 -411236 -1.37446e+06 557378
207 3 O 1.7785 36.6206 56.4021 -1.2 -10.0073 -3.23544e+06 -3.89989e+06 -5.23604e+06 -1.36337e+06 423033 -1.07846e+06
208 3 O 1.85132 39.2606 52.7264 -1.2 -9.91621 -1.99073e+06 -769134 -5.87741e+06 228425 -353637 -1.12088e+06
209 3 O 0.494279 38.8054 55.5331 -1.2 -9.57271 -4.53217e+06 -3.9664e+06 -6.39296e+06 -83607.9 -2.5097e+06 -68228.8
210 3 O 2.9632 38.8279 55.7773 -1.2 -9.33709 -1.72327e+06 -2.46301e+06 -3.93124e+06 447559 432373 1.06249e+06
211 1 Mg 0.272384 37.8883 52.2029 1.2 -6.73323 -943809 -1.81027e+06 5.73045e+06 -1.01205e+06 1.56965e+06 1.14741e+06
212 1 Mg 2.31122 37.6122 49.4501 1.2 -7.20766 1.17027e+06 26948.8 839715 122790 -63669.9 746290
213 2 Si 1.78573 39.934 51.2414 2.4 -31.79 6.25466e+06 2.72571e+06 1.24525e+07 203511 1.00873e+06 1.06588e+06
214 3 O 1.89428 41.5006 51.3014 -1.2 -10.3877 -2.27366e+06 -1.16079e+06 -4.321e+06 880532 -599028 286540
215 3 O 1.48391 38.6935 57.7982 -1.2 -9.74095 -1.99938e+06 -1.65744e+06 -7.65959e+06 653274 1.9132e+06 90937.5
216 3 O 0.469216 39.3015 50.6588 -1.2 -9.62846 -2.38439e+06 -1.59104e+06 -5.23924e+06 1.21991e+06 -841432 -864194
217 1 Mg -2.69668 37.8889 52.3043 1.2 -6.98345 -2.10969e+06 -1.45596e+06 4.95799e+06 1.31977e+06 -1.5476e+06 1.35831e+06
218 3 O 3.0225 39.2866 50.4651 -1.2 -9.93099 -1.82888e+06 -1.5117e+06 -3.48115e+06 -361043 732863 -953249
219 1 Mg -1.20627 37.8103 55.1157 1.2 -7.65947 1.36471e+06 1.03135e+06 1.18343e+06 -637675 -793282 -1.01302e+06
220 2 Si -1.16821 35.7703 53.2195 2.4 -31.1014 3.05188e+06 3.54172e+06 1.3091e+07 -1.08146e+06 1.29279e+06 1.05413e+06
221 3 O -1.18494 34.2433 53.1146 -1.2 -10.8285 -1.87027e+06 -3.03018e+06 -5.23964e+06 506402 50708.9 -266738
222 3 O -0.738054 37.1566 46.4176 -1.2 -8.21842 -2.09872e+06 -1.74732e+06 -3.36521e+06 -604577 -1.49944e+06 516625
223 3 O -2.42538 36.525 53.8799 -1.2 -9.97308 -2.95744e+06 -2.33844e+06 -6.22949e+06 -1.55523e+06 1.51149e+06 290013
224 3 O 0.0351539 36.428 54.0401 -1.2 -9.92904 -1.5805e+06 -2.87934e+06 -3.00385e+06 979693 -539254 -286045
225 1 Mg -2.73564 44.8798 57.4553 1.2 -7.39909 -529478 -886992 4.76991e+06 -917106 -774619 -341976
226 1 Mg -1.06993 44.8968 49.8343 1.2 -8.03898 168310 1.18912e+06 3.01972e+06 -170422 235232 1.1923e+06
227 2 Si -0.596166 42.4103 47.9215 2.4 -33.4962 7.21947e+06 5.30534e+06 1.1452e+07 504215 2.29898e+06 406946
228 3 O -0.51472 43.9796 47.9853 -1.2 -9.1054 -1.92565e+06 -3.44305e+06 -3.87303e+06 458712 -1.92532e+06 -547092
229 3 O -1.14475 41.2777 51.7649 -1.2 -9.5335 -762857 -537261 -4.29303e+06 44965.7 594343 -1.41801e+06
230 3 O -1.76671 41.8331 48.8226 -1.2 -9.2502 -323936 -2.7203e+06 -4.48227e+06 13631.7 -350067 -1.62169e+06
231 1 Mg 0.447076 40.3473 46.8135 1.2 -6.53842 1.31872e+06 -964628 1.64306e+06 1.12359e+06 1.58756e+06 -279482
232 3 O 0.866985 41.7666 48.385 -1.2 -9.14596 -960922 -799703 -3.07662e+06 -293434 -319584 366164
233 1 Mg 1.79531 40.2575 54.627 1.2 -7.85556 1.46681e+06 -61131.7 1.22072e+06 167866 -512819 884776
234 2 Si 1.6531 42.7951 56.4087 2.4 -32.0813 4.16585e+06 3.42285e+06 1.27754e+07 66957.3 383632 1.41106e+06
235 3 O 1.45382 41.2411 56.4129 -1.2 -10.2488 -3.02693e+06 -1.88044e+06 -5.98263e+06 -812659 215806 -885838
236 3 O 1.95891 44.014 52.7248 -1.2 -9.85043 -1.42228e+06 -1.75324e+06 -5.26262e+06 738735 10566.1 -1.32386e+06
237 3 O 0.507388 43.6687 55.7687 -1.2 -9.61535 -3.87477e+06 -1.50234e+06 -4.59589e+06 -328578 -888274 -249290
238 3 O 2.89864 43.4557 55.8459 -1.2 -9.47415 -4.70623e+06 -1.39014e+06 -7.02184e+06 1.19884e+06 1.66449e+06 -692146
239 1 Mg 0.379928 42.6418 52.2013 1.2 -7.0654 -1.04459e+06 -1.5502e+06 5.49422e+06 -775226 1.7661e+06 989135
240 1 Mg 2.41752 42.366 49.4484 1.2 -7.37811 1.4638e+06 -232634 1.0837e+06 71600.4 -118161 535658
241 2 Si 1.89374 44.6874 51.2398 2.4 -32.0872 6.0508e+06 3.18366e+06 1.2681e+07 184108 281248 1.49914e+06
242 3 O 2.00266 46.254 51.2996 -1.2 -10.1315 -2.62251e+06 -798069 -5.05251e+06 673365 -155482 150493
243 3 O 1.8373 43.4945 57.9465 -1.2 -9.46012 -2.60699e+06 -1.05692e+06 -7.49477e+06 196166 1.54868e+06 3.47949e+06
244 3 O 0.577464 44.0549 50.6567 -1.2 -9.47206 -2.26489e+06 -1.79206e+06 -5.44354e+06 1.15872e+06 -975301 -832117
245 1 Mg -2.58906 42.6425 52.3022 1.2 -7.00373 -1.27391e+06 -1.1577e+06 5.15902e+06 1.25494e+06 -1.6431e+06 779063
246 3 O 3.13067 44.0398 50.464 -1.2 -9.86478 -2.07654e+06 -1.60286e+06 -3.13915e+06 -304082 1.01008e+06 -858886
247 1 Mg -1.14491 42.6103 55.1325 1.2 -7.61256 1.3878e+06 759721 1.82664e+06 -98340.7 -781963 -581404
248 2 Si -1.06511 40.5382 53.3288 2.4 -32.0368 5.73411e+06 1.98207e+06 1.39788e+07 -288884 -133969 -1.0117e+06
249 3 O -1.23253 39.0419 53.2336 -1.2 -10.1756 -2.53397e+06 -2.89408e+06 -5.37663e+06 189441 -190572 83532.1
250 3 O -0.631421 41.9099 46.4159 -1.2 -8.13071 -2.23911e+06 -1.47383e+06 -3.63898e+06 -606752 -1.50109e+06 488998
251 3 O -2.3427 41.2563 54.02 -1.2 -9.51776 -581314 -2.44221e+06 -4.28765e+06 -413301 246182 -602445
252 3 O 0.176078 41.1929 53.9752 -1.2 -9.78247 -3.61151e+06 -2.62301e+06 -5.05436e+06 919658 -1.36383e+06 449037
253 1 Mg -2.41739 49.8269 57.3447 1.2 -7.42562 -1.81459e+06 -2.87341e+06 4.7912e+06 -218331 -1.75815e+06 -532458
254 1 Mg -0.961069 49.6502 49.8327 1.2 -8.06725 233741 1.138e+06 3.06358e+06 -174628 203825 648383
255 2 Si -0.488083 47.1636 47.9198 2.4 -33.6742 7.4978e+06 4.85382e+06 1.19115e+07 484081 2.31459e+06 127867
256 3 O -0.40607 48.7329 47.9837 -1.2 -9.04562 -2.01986e+06 -3.28634e+06 -4.01595e+06 462333 -1.92433e+06 -273504
257 3 O -1.0361 46.031 51.7632 -1.2 -9.38642 -1.7626e+06 -270827 -5.10921e+06 484660 -33475.8 -2.17102e+06
258 3 O -1.65866 46.5866 48.821 -1.2 -9.14244 -528841 -2.45826e+06 -4.6989e+06 16795.2 -367453 -1.59362e+06
259 1 Mg 0.554124 45.1001 46.8117 1.2 -6.62553 1.45083e+06 -1.15822e+06 1.84489e+06 1.12231e+06 1.5911e+06 -354868
260 3 O 0.974961 46.5195 48.3832 -1.2 -9.04064 -1.10181e+06 -566575 -3.32427e+06 -288878 -313993 461078
261 1 Mg 1.9825 44.9737 54.659 1.2 -7.76838 1.52123e+06 1.09406e+06 2.47595e+06 380946 -107380 730459
262 2 Si 1.79396 47.6586 56.3892 2.4 -33.2214 7.41706e+06 2.20006e+06 1.32424e+07 -259788 356917 -836720
263 3 O 1.77996 46.1121 56.5834 -1.2 -9.80197 -4.19465e+06 -2.29747e+06 -6.20562e+06 -1.552e+06 956712 -594006
264 3 O 2.0677 48.7672 52.7232 -1.2 -9.6807 -2.44904e+06 -1.59443e+06 -6.9879e+06 547430 -412453 -1.05914e+06
265 3 O 0.478049 48.3693 55.8429 -1.2 -9.2768 -3.44998e+06 -677596 -4.60565e+06 -747358 101340 299524
266 3 O 3.00034 48.2496 55.556 -1.2 -9.00218 -2.01753e+06 -1.59815e+06 -6.83718e+06 1.50782e+06 573064 -977443
267 1 Mg 0.488584 47.395 52.1996 1.2 -7.48459 -610004 -2.10333e+06 5.6428e+06 -1.11065e+06 1.94653e+06 885313
268 1 Mg 2.52544 47.1195 49.4466 1.2 -7.50541 1.69522e+06 -565364 1.39582e+06 121054 -143743 450040
269 2 Si 2.00256 49.4407 51.2382 2.4 -32.167 6.49379e+06 3.08087e+06 1.25639e+07 238364 316073 456336
270 3 O 2.11156 51.0073 51.2982 -1.2 -10.1684 -2.70666e+06 -911015 -5.24102e+06 695500 -444535 416390
271 3 O 2.04842 48.3724 57.8207 -1.2 -9.21551 -3.0328e+06 -1.38051e+06 -6.36184e+06 -443245 150877 536812
272 3 O 0.686344 48.8082 50.655 -1.2 -9.36417 -2.52981e+06 -1.44086e+06 -5.80491e+06 1.05167e+06 -794076 -287165