ITEM: TIMESTEP
50800
ITEM: NUMBER OF ATOMS
10500
ITEM: BOX BOUNDS xy xz yz pp pp pp
0.0000000000000000e+00 8.9687999999999999e+00 2.9895999999999998e+00
0.0000000000000000e+00 1.1872499999999999e+02 0.0000000000000000e+00
0.0000000000000000e+00 2.5297749999999999e+02 0.0000000000000000e+00
ITEM: ATOMS id type element xu yu zu q c_pe c_s[1] c_s[2] c_s[3] c_s[4] c_s[5] c_s[6]
1 1 Mg -3.37433 7.11983 57.4816 1.2 -8.09584 -435001 -2.15922e+06 2.6243e+06 -2.33464e+06 -1.90266e+06 -2.46457e+06
2 1 Mg -1.82655 6.90154 50.0912 1.2 -8.26994 137983 1.29206e+06 1.0361e+06 -41749.3 -388519 947824
3 2 Si -0.257935 3.96038 48.0876 2.4 -36.4016 1.06498e+07 8.50294e+06 1.10237e+07 811584 1.94932e+06 606990
4 3 O -0.335812 5.46814 47.6264 -1.2 -7.69814 -3.24785e+06 -2.45319e+06 -2.51766e+06 141481 -964942 -29419.5
5 3 O -2.03793 3.43377 51.8941 -1.2 -8.46472 -2.65468e+06 -3.00996e+06 -4.56185e+06 -845531 1.32084e+06 -1.78956e+06
6 3 O -1.54015 3.53929 48.9521 -1.2 -8.06627 -1.65886e+06 -1.48579e+06 -4.49302e+06 35438.6 -659325 381930
7 1 Mg 1.82954 2.54582 47.1376 1.2 -8.17419 2.89853e+06 -765155 1.01404e+06 1.15104e+06 843916 130227
8 3 O 1.22989 3.66364 48.7877 -1.2 -7.8043 -2.02562e+06 -2.23444e+06 -3.7998e+06 -487555 -776139 -383297
9 1 Mg 1.04789 2.37348 54.6668 1.2 -8.61521 2.5899e+06 1.06797e+06 2.5132e+06 64819.1 -201944 543674
10 2 Si 1.2437 5.11985 56.6152 2.4 -33.3265 8.09491e+06 6.92917e+06 1.11493e+07 -440084 179240 -55868.9
11 3 O 1.07598 3.56437 56.6559 -1.2 -9.15253 -3.48426e+06 -532453 -4.77168e+06 1.11067e+06 -53593 1.22659e+06
12 3 O 1.10813 6.07342 52.8172 -1.2 -8.98335 -3.39954e+06 -4.40718e+06 -4.33745e+06 1.35367e+06 95864.1 -1.60398e+06
13 3 O -0.104813 5.73252 56.0341 -1.2 -9.13692 -1.70328e+06 -4.05726e+06 -4.56813e+06 -576713 -1.13032e+06 -283331
14 3 O 2.50158 5.85617 55.9483 -1.2 -9.21867 -1.67051e+06 -3.50655e+06 -5.3509e+06 1.19552e+06 237615 423689
15 1 Mg -0.459401 4.67631 52.2426 1.2 -7.96491 332423 -1.93083e+06 4.68648e+06 -1.12479e+06 1.63522e+06 431741
16 1 Mg 2.79456 3.9971 49.9987 1.2 -8.65333 3.83885e+06 -83200.2 1.86659e+06 -544923 887477 -1.52506e+06
17 2 Si 1.16169 6.59457 51.2556 2.4 -33.7211 7.43884e+06 6.53136e+06 1.14944e+07 -281949 795006 2.08547e+06
18 3 O 1.28989 8.18905 51.2909 -1.2 -9.52241 -3.07234e+06 -1.6888e+06 -3.69442e+06 465353 -243543 1.30531e+06
19 3 O 1.14903 5.90284 58.1081 -1.2 -8.73953 -4.22098e+06 -2.22654e+06 -4.35181e+06 -381256 -1.95869e+06 1.7602e+06
20 3 O -0.184847 6.06029 50.6845 -1.2 -8.70215 -3.34172e+06 -3.29173e+06 -4.66079e+06 1.39218e+06 -491091 -963078
21 1 Mg -3.49704 4.67769 52.6661 1.2 -7.9549 -1.08482e+06 -1.60552e+06 3.10167e+06 1.60111e+06 -1.46713e+06 -5208.65
22 3 O 2.48581 5.93312 50.6539 -1.2 -9.09588 -3.11178e+06 -1.71699e+06 -3.45246e+06 -1.53593e+06 -787587 -337892
23 1 Mg -1.73656 4.76504 55.2528 1.2 -8.18399 2.7817e+06 1.28909e+06 2.01184e+06 -75326.4 -373452 -939586
24 2 Si -1.82092 2.69752 53.3811 2.4 -33.9026 8.04224e+06 3.60197e+06 1.40911e+07 -1.51417e+06 -675324 -1.67891e+06
25 3 O -1.84305 1.12658 53.2166 -1.2 -8.77643 -4.81612e+06 -597051 -5.29761e+06 1.19018e+06 -239862 1.8728e+06
26 3 O -0.0467762 2.97103 46.8385 -1.2 -6.85134 -3.23072e+06 -1.9263e+06 -3.08964e+06 -990638 -2.00211e+06 -208136
27 3 O -3.14383 3.3124 54.2192 -1.2 -8.7581 -1.03111e+06 -1.50672e+06 -4.45538e+06 -1.07652e+06 -234761 1.334e+06
28 3 O -0.629124 3.34158 54.0336 -1.2 -9.21957 -5.42726e+06 -2.65906e+06 -4.85755e+06 19056 -836787 519991
29 1 Mg -3.19381 11.8043 57.3894 1.2 -7.3489 -414735 -932136 4.07683e+06 -1.52106e+06 -1.63767e+06 -1.33679e+06
30 1 Mg -1.75014 11.5838 49.8362 1.2 -8.22585 498713 2.31204e+06 2.07817e+06 -346952 212139 333408
31 2 Si -1.18003 9.02138 47.9309 2.4 -34.3387 8.29747e+06 7.59472e+06 9.33364e+06 237745 2.59795e+06 -654235
32 3 O -1.23224 10.5991 47.9811 -1.2 -8.82852 -2.3247e+06 -3.86071e+06 -2.50091e+06 654605 -1.91321e+06 546400
33 3 O -1.79016 8.01447 51.8693 -1.2 -8.93692 -3.39179e+06 -2.84699e+06 -5.22765e+06 -652669 58424.6 -1.30226e+06
34 3 O -2.30986 8.37215 48.8528 -1.2 -8.97457 -992231 -2.74747e+06 -3.16604e+06 -349839 -597931 -369013
35 1 Mg 0.154883 7.08234 46.8007 1.2 -7.55546 1.95081e+06 -54557.7 691811 942628 1.72691e+06 -1.49548e+06
36 3 O 0.325447 8.50934 48.3809 -1.2 -8.63598 -1.41362e+06 -2.16131e+06 -2.51729e+06 -27509.6 -829903 848191
37 1 Mg 1.42831 7.10823 54.6017 1.2 -8.22297 351738 253793 1.86659e+06 -1.55101e+06 918997 957239
38 2 Si 1.19025 9.78647 56.4899 2.4 -32.9697 4.85745e+06 5.16215e+06 1.1352e+07 1.57667e+06 721152 -550715
39 3 O 1.15807 8.28631 56.5477 -1.2 -9.18006 -3.49792e+06 -5.08584e+06 -4.57113e+06 1.10178e+06 -968956 1.30483e+06
40 3 O 1.28624 10.7248 52.7351 -1.2 -9.54053 -3.13292e+06 -2.86093e+06 -5.11383e+06 -85869.4 -242305 -1.65131e+06
41 3 O -0.104985 10.3447 55.816 -1.2 -9.21982 -2.69841e+06 -5.54029e+06 -3.26306e+06 -197274 -65732.5 1.03206e+06
42 3 O 2.38713 10.4648 55.6944 -1.2 -9.47081 -3.17191e+06 -4.58526e+06 -3.27058e+06 520234 687225 1.31021e+06
43 1 Mg -0.262694 9.34741 52.2523 1.2 -7.82774 -605550 -1.02427e+06 4.1278e+06 -1.60999e+06 1.79004e+06 867057
44 1 Mg 1.87648 9.01537 49.4629 1.2 -7.83925 1.95625e+06 732177 88962.6 237593 -251048 -166721
45 2 Si 1.21415 11.3799 51.2378 2.4 -32.5378 7.21609e+06 5.54959e+06 1.03348e+07 520792 560090 453885
46 3 O 1.31634 12.9512 51.3023 -1.2 -10.1561 -2.43165e+06 -1.89441e+06 -3.7264e+06 594097 -394657 836272
47 3 O 1.34112 10.5193 57.994 -1.2 -9.20277 -1.30395e+06 -3.2177e+06 -3.10586e+06 -239933 558819 796146
48 3 O -0.115718 10.7564 50.681 -1.2 -9.09138 -2.88925e+06 -2.65034e+06 -4.61416e+06 1.06381e+06 -418439 -139487
49 1 Mg -3.26386 9.35564 52.3622 1.2 -7.45892 -138827 -94941.4 3.27613e+06 1.54524e+06 -1.56573e+06 568876
50 3 O 2.45216 10.7265 50.4558 -1.2 -9.56358 -2.55819e+06 -2.17692e+06 -2.114e+06 -735657 426606 238530
51 1 Mg -1.88226 9.42992 55.191 1.2 -7.85053 2.52218e+06 1.76524e+06 662841 63868.8 320971 -1.38186e+06
52 2 Si -1.66051 7.29331 53.3677 2.4 -33.0493 8.05389e+06 4.42082e+06 1.09452e+07 2.65856e+06 1.0474e+06 -1.05698e+06
53 3 O -1.96394 5.73772 53.2599 -1.2 -9.35531 -3.52418e+06 -4.22274e+06 -5.06065e+06 1.57047e+06 668148 -698818
54 3 O -1.19417 8.46968 46.4488 -1.2 -7.64657 -2.71448e+06 -2.18852e+06 -2.79889e+06 -542615 -1.73968e+06 1.33254e+06
55 3 O -2.89302 7.83333 54.0806 -1.2 -9.23519 -4.54658e+06 -4.90331e+06 -6.15138e+06 -467091 2.53567e+06 89793.6
56 3 O -0.30396 8.00602 53.8393 -1.2 -9.02583 -1.66823e+06 -2.1669e+06 -5.11227e+06 2.07405e+06 -555600 -411003
57 1 Mg -3.09116 16.5607 57.3779 1.2 -7.58247 -514221 -783332 3.7772e+06 -1.68054e+06 -758733 -500682
58 1 Mg -1.6714 16.3544 49.8412 1.2 -7.97497 31708.2 2.4539e+06 1.86723e+06 -148285 243479 283929
59 2 Si -1.18567 13.8526 47.9314 2.4 -33.7995 7.73526e+06 7.13642e+06 9.51479e+06 503656 2.24334e+06 -1.18868e+06
60 3 O -1.09664 15.4205 47.9915 -1.2 -9.05652 -1.92495e+06 -4.39936e+06 -2.68899e+06 420199 -1.93051e+06 210416
61 3 O -1.73493 12.7491 51.7772 -1.2 -9.52942 -1.97806e+06 -2.87838e+06 -6.45557e+06 385297 -223571 195551
62 3 O -2.36115 13.2717 48.8238 -1.2 -9.07745 -697489 -3.48972e+06 -3.44937e+06 -109633 -337526 -828274
63 1 Mg -0.159928 11.7639 46.8533 1.2 -6.84749 1.83844e+06 -210478 854234 1.12859e+06 1.57305e+06 -1.36104e+06
64 3 O 0.2623 13.1866 48.413 -1.2 -8.96639 -1.24822e+06 -1.54728e+06 -2.21505e+06 -198202 -306253 1.22792e+06
65 1 Mg 1.34012 11.7012 54.4858 1.2 -8.35627 1.57424e+06 1.52913e+06 -666596 77642.4 -207683 1.31185e+06
66 2 Si 1.32485 14.4924 56.4727 2.4 -33.1598 5.65306e+06 8.54209e+06 9.99728e+06 437766 -65209.7 395264
67 3 O 1.19882 12.8962 56.3509 -1.2 -9.43552 -2.59698e+06 -2.05951e+06 -3.89942e+06 1.22587e+06 221727 758865
68 3 O 1.36565 15.4813 52.729 -1.2 -9.91231 -2.13323e+06 -1.77103e+06 -5.45767e+06 674143 -211923 -632874
69 3 O 0.12472 15.1448 55.707 -1.2 -8.79889 -2.63028e+06 -4.29148e+06 -2.3342e+06 94232.7 -503450 -489438
70 3 O 2.59853 15.1874 55.7736 -1.2 -9.27751 -3.57578e+06 -3.46239e+06 -1.47769e+06 674329 151380 -753142
71 1 Mg -0.206989 14.1049 52.2121 1.2 -7.20166 -774482 -844448 4.66753e+06 -1.53616e+06 1.9299e+06 740203
72 1 Mg 1.82591 13.8102 49.4556 1.2 -7.52778 1.68777e+06 808441 112935 129117 -98105.4 -114130
73 2 Si 1.29285 16.1518 51.2434 2.4 -31.756 6.08779e+06 5.34457e+06 1.00373e+07 -150117 212615 -560406
74 3 O 1.39496 17.7199 51.3047 -1.2 -10.5316 -2.03771e+06 -2.35769e+06 -3.15994e+06 719450 111398 732145
75 3 O 1.21598 15.1431 57.9387 -1.2 -9.53167 -2.98788e+06 -4.59802e+06 -4.58998e+06 1.91535e+06 -1.33697e+06 1.67383e+06
76 3 O -0.0269106 15.5178 50.6688 -1.2 -9.46762 -2.39249e+06 -2.60709e+06 -4.59203e+06 1.14086e+06 -682952 -11039.6
77 1 Mg -3.18391 14.1057 52.3125 1.2 -7.20077 -1.34291e+06 -600942 4.2801e+06 1.57804e+06 -1.88e+06 347264
78 3 O 2.52432 15.503 50.4579 -1.2 -9.84679 -2.15729e+06 -2.35176e+06 -2.28787e+06 -337895 709820 168796
79 1 Mg -1.73558 14.1879 55.1046 1.2 -7.9589 3.07787e+06 2.31959e+06 131403 605968 648844 -360724
80 2 Si -1.60673 12.0544 53.1863 2.4 -32.8292 5.72055e+06 4.26232e+06 1.03391e+07 -1.32169e+06 -1.04743e+06 449607
81 3 O -1.73489 10.4985 53.1285 -1.2 -9.65959 -2.98595e+06 -3.20397e+06 -4.1792e+06 851356 104501 -783434
82 3 O -1.21337 13.3381 46.4311 -1.2 -7.90982 -2.65779e+06 -2.26248e+06 -2.7777e+06 -631815 -1.45137e+06 1.38986e+06
83 3 O -2.92702 12.6859 54.0175 -1.2 -9.01003 -1.72871e+06 -2.80746e+06 -2.73547e+06 -682960 850980 356386
84 3 O -0.39292 12.6413 53.8291 -1.2 -9.34052 -5.26367e+06 -3.3559e+06 -4.49329e+06 -532164 -2.148e+06 -838458
85 1 Mg -3.18334 21.2541 57.3325 1.2 -7.16281 -1.15136e+06 -533366 2.41456e+06 -1.67101e+06 -1.57666e+06 -2.07019e+06
86 1 Mg -1.5831 21.1217 49.8405 1.2 -8.08452 1776.29 2.44333e+06 2.03817e+06 -221449 301450 730674
87 2 Si -1.09384 18.6291 47.9287 2.4 -33.6544 7.42208e+06 7.62136e+06 9.17096e+06 487896 2.34267e+06 -445058
88 3 O -1.02071 20.1985 47.9911 -1.2 -9.04153 -1.97131e+06 -4.56177e+06 -2.6866e+06 463493 -1.9293e+06 -226534
89 3 O -1.65002 17.5002 51.771 -1.2 -9.89961 -980470 -3.09458e+06 -5.63652e+06 85239.4 -1.09075e+06 53020.1
90 3 O -2.26174 18.0434 48.8281 -1.2 -9.2191 -450521 -3.83992e+06 -3.21522e+06 -32817 -402481 -1.09508e+06
91 1 Mg -0.0440435 16.5651 46.8269 1.2 -6.70877 1.54676e+06 55213.8 642151 1.13251e+06 1.57813e+06 -973665
92 3 O 0.37001 17.9877 48.3925 -1.2 -9.07692 -1.03592e+06 -1.94837e+06 -1.95718e+06 -276407 -310048 888654
93 1 Mg 1.39355 16.6293 54.4166 1.2 -7.88852 742463 1.79699e+06 626746 188369 217371 224313
94 2 Si 1.33872 19.2953 56.4411 2.4 -32.64 7.26171e+06 7.49074e+06 7.70028e+06 -873652 44767 -1.13964e+06
95 3 O 1.41222 17.7077 56.5669 -1.2 -9.34529 -3.20325e+06 -2.54917e+06 -2.30884e+06 -178089 308935 -1.10774e+06
96 3 O 1.45147 20.239 52.7294 -1.2 -10.2498 -2.17843e+06 -1.6873e+06 -5.07594e+06 89268.4 -380725 -536922
97 3 O -0.0509303 19.8503 55.8445 -1.2 -9.36199 -466055 -3.49293e+06 -3.84574e+06 -517344 -692315 615230
98 3 O 2.61618 19.8366 55.7345 -1.2 -9.63124 -1.24159e+06 -4.74433e+06 -2.17885e+06 -94101.1 856110 376601
99 1 Mg -0.126194 18.8651 52.2079 1.2 -7.13262 -1.85091e+06 -498041 4.49244e+06 -1.53109e+06 1.60172e+06 706642
100 1 Mg 1.92402 18.5815 49.4545 1.2 -7.37967 1.52377e+06 968959 -216061 124316 -177976 106566
101 2 Si 1.38106 20.9117 51.2443 2.4 -31.7054 6.96929e+06 5.35496e+06 9.03414e+06 399571 178364 -153917
102 3 O 1.48527 22.4795 51.3054 -1.2 -10.4308 -2.5935e+06 -2.42061e+06 -2.66082e+06 520224 -554172 293660
103 3 O 1.268 19.9013 57.9131 -1.2 -9.74587 -3.02655e+06 -4.18203e+06 -3.37237e+06 112459 -1.16597e+06 -292823
104 3 O 0.0615419 20.2804 50.6669 -1.2 -9.42704 -2.30741e+06 -2.80498e+06 -4.59965e+06 1.29214e+06 -395971 -307340
105 1 Mg -3.09665 18.8643 52.3122 1.2 -6.66991 -1.11485e+06 -820479 4.34948e+06 1.86705e+06 -1.51219e+06 592761
106 3 O 2.61548 20.2646 50.4626 -1.2 -9.90168 -2.3159e+06 -2.50157e+06 -1.92216e+06 -463556 653574 -327867
107 1 Mg -1.65163 18.6746 55.1781 1.2 -7.87328 1.70824e+06 2.16247e+06 250435 -415690 -622951 -2.09711e+06
108 2 Si -1.62613 16.8367 53.2224 2.4 -31.7925 4.38362e+06 4.97673e+06 1.10253e+07 1.20548e+06 -348798 -401215
109 3 O -1.73672 15.2913 53.1592 -1.2 -10.1335 -2.39561e+06 -2.25342e+06 -4.3639e+06 -1000.77 443439 43832.6
110 3 O -1.12868 18.1227 46.4249 -1.2 -7.99294 -2.47089e+06 -2.50788e+06 -2.58054e+06 -604178 -1.49819e+06 992483
111 3 O -2.7919 17.4771 54.0851 -1.2 -9.89685 -2.50583e+06 -4.91709e+06 -3.14067e+06 -849663 1.0915e+06 -278565
112 3 O -0.298871 17.5185 53.8199 -1.2 -9.76038 -1.53004e+06 -3.48576e+06 -4.1472e+06 1.27971e+06 -877328 692824
113 1 Mg -3.14055 25.9319 57.5265 1.2 -7.59143 -669665 554114 3.89347e+06 -160357 -1.36923e+06 -808944
114 1 Mg -1.48778 25.88 49.8402 1.2 -8.3206 534779 2.10236e+06 2.21355e+06 -139843 231460 1.25582e+06
115 2 Si -1.00491 23.3922 47.9274 2.4 -33.8903 7.79572e+06 7.33015e+06 9.4742e+06 494042 2.29673e+06 328764
116 3 O -0.927602 24.9615 47.9909 -1.2 -8.88155 -2.25893e+06 -4.33126e+06 -2.95522e+06 452704 -1.91822e+06 -600524
117 3 O -1.55795 22.2588 51.7696 -1.2 -9.45365 -638579 -3.13276e+06 -3.53143e+06 888119 -161794 -841564
118 3 O -2.17411 22.8111 48.8277 -1.2 -9.08292 -598565 -3.81025e+06 -3.35598e+06 24153.6 -400699 -1.52839e+06
119 1 Mg 0.0423997 21.3296 46.8225 1.2 -6.73443 1.61173e+06 2473.83 684191 1.12596e+06 1.57744e+06 -547370
120 3 O 0.458537 22.7495 48.3911 -1.2 -8.97068 -1.24316e+06 -1.87427e+06 -2.00641e+06 -304804 -291400 477069
121 1 Mg 1.35675 21.3558 54.3821 1.2 -7.40494 162980 1.49894e+06 -268178 968753 -206838 -69054.2
122 2 Si 1.22453 23.8833 56.1939 2.4 -32.1084 7.76085e+06 7.65099e+06 8.43011e+06 968032 -1.06257e+06 618961
123 3 O 1.40564 22.3043 56.2475 -1.2 -9.95917 -3.17396e+06 -2.43688e+06 -3.13373e+06 -601077 151313 -1.66443e+06
124 3 O 1.54441 24.9963 52.7297 -1.2 -9.81674 -2.6222e+06 -2.66855e+06 -4.3511e+06 418637 -1.1146e+06 -1.40892e+06
125 3 O -0.00756184 24.6019 55.6092 -1.2 -9.96289 -3.26469e+06 -3.62629e+06 -4.31039e+06 -1.27914e+06 -2.05824e+06 549706
126 3 O 2.609 24.6402 55.7229 -1.2 -9.32897 674184 -3.81014e+06 -3.45045e+06 1.15216e+06 1.54987e+06 453165
127 1 Mg -0.0335968 23.6229 52.2067 1.2 -7.07124 -809416 1965.97 4.03092e+06 -950150 1.45349e+06 892429
128 1 Mg 2.01073 23.3445 49.4541 1.2 -7.5405 1.78671e+06 887369 -131292 112883 -90265.5 569936
129 2 Si 1.47594 25.6699 51.2449 2.4 -32.5717 7.551e+06 5.07709e+06 1.01563e+07 -56817.8 722538 1.90507e+06
130 3 O 1.58172 27.2371 51.3054 -1.2 -9.79249 -3.37873e+06 -1.59354e+06 -4.22062e+06 809468 -354404 -59056.7
131 3 O 1.18503 24.4143 57.7629 -1.2 -9.36119 -1.91682e+06 -2.8669e+06 -4.28207e+06 138346 691033 1.84242e+06
132 3 O 0.157925 25.0378 50.6651 -1.2 -9.23231 -2.81375e+06 -2.79429e+06 -4.30716e+06 1.13473e+06 -695052 -1.05783e+06
133 1 Mg -3.00341 23.6231 52.3098 1.2 -7.10296 -1.80384e+06 -809904 3.59904e+06 1.32404e+06 -1.83221e+06 1.31013e+06
134 3 O 2.71149 25.0232 50.4656 -1.2 -9.60886 -2.53842e+06 -2.45931e+06 -2.35931e+06 -272599 710575 -940783
135 1 Mg -1.59314 23.5789 55.1094 1.2 -7.72592 88451.3 1.45795e+06 -87910.9 -1.13248e+06 -723168 -1.59999e+06
136 2 Si -1.59743 21.5934 53.3361 2.4 -31.6956 3.13348e+06 5.56274e+06 1.22175e+07 -561200 -636467 -1.5415e+06
137 3 O -1.57661 20.0702 53.1962 -1.2 -10.1319 -1.32426e+06 -2.56663e+06 -5.09299e+06 -182811 109553 1.71161e+06
138 3 O -1.03938 22.8897 46.4223 -1.2 -7.92617 -2.5624e+06 -2.38453e+06 -2.719e+06 -606014 -1.49945e+06 607063
139 3 O -2.82594 22.3767 53.9664 -1.2 -10.0598 -1.20305e+06 -3.86373e+06 -4.80539e+06 -680013 1.25872e+06 398325
140 3 O -0.29909 22.2223 53.9588 -1.2 -10.0127 -2.87743e+06 -4.35136e+06 -4.50088e+06 1.40954e+06 -1.70279e+06 207044
141 1 Mg -2.93234 30.672 57.5573 1.2 -8.00254 197709 -768651 2.90693e+06 -318816 -1.8826e+06 -74734.7
142 1 Mg -1.38776 30.6357 49.8391 1.2 -8.42538 748969 1.74578e+06 2.51364e+06 -227940 201334 762635
143 2 Si -0.907929 28.1491 47.9262 2.4 -34.2319 8.36819e+06 6.34989e+06 1.04338e+07 490786 2.33371e+06 335915
144 3 O -0.829229 29.7184 47.99 -1.2 -8.75243 -2.47951e+06 -3.97222e+06 -3.3322e+06 462824 -1.92745e+06 -362934
145 3 O -1.45946 27.0152 51.769 -1.2 -8.83422 -2.99877e+06 -1.71826e+06 -6.27142e+06 97851.7 -455161 -1.6483e+06
146 3 O -2.07744 27.5697 48.8273 -1.2 -8.86173 -997636 -3.25209e+06 -3.87064e+06 13289.2 -387606 -1.68816e+06
147 1 Mg 0.137907 26.087 46.819 1.2 -6.86593 1.82877e+06 -349313 1.03707e+06 1.12604e+06 1.58636e+06 -303096
148 3 O 0.55579 27.5065 48.3893 -1.2 -8.76436 -1.54468e+06 -1.35013e+06 -2.54947e+06 -296287 -308823 339324
149 1 Mg 1.28886 25.9114 54.5588 1.2 -7.65576 2.38233e+06 601944 1.01121e+06 28961.5 -413887 1.05785e+06
150 2 Si 1.31578 28.6001 56.466 2.4 -33.5558 8.55701e+06 6.7237e+06 1.04987e+07 -233680 248889 1.26466e+06
151 3 O 1.3228 27.0373 56.6624 -1.2 -9.61671 -3.96221e+06 -2.07364e+06 -3.1137e+06 658602 259806 159839
152 3 O 1.6432 29.7522 52.7291 -1.2 -9.25035 -3.35732e+06 -2.83193e+06 -5.37452e+06 -668461 -786162 -1.73225e+06
153 3 O -0.0410049 29.2034 55.9978 -1.2 -8.72526 -2.72172e+06 -3.33536e+06 -3.71172e+06 -1.06115e+06 -508438 180732
154 3 O 2.54695 29.2071 55.6666 -1.2 -9.14121 -2.54803e+06 -3.77715e+06 -4.10497e+06 1.8536e+06 875636 -659305
155 1 Mg 0.0647462 28.3794 52.2059 1.2 -8.00227 -485377 -1.38753e+06 4.56212e+06 -906137 1.73843e+06 964717
156 1 Mg 2.10696 28.1021 49.4531 1.2 -7.80849 2.18852e+06 232270 560264 111000 -173714 575046
157 2 Si 1.57592 30.4257 51.2442 2.4 -32.9615 7.93124e+06 4.25242e+06 1.11963e+07 636170 669663 931329
158 3 O 1.68288 31.9926 51.3043 -1.2 -9.89627 -2.84337e+06 -1.74781e+06 -4.20492e+06 824327 -633067 460257
159 3 O 1.51499 29.4228 57.9615 -1.2 -8.63261 -2.92569e+06 -2.70022e+06 -3.57247e+06 149979 -377868 2.30955e+06
160 3 O 0.258524 29.7935 50.6632 -1.2 -8.94654 -3.16301e+06 -2.16056e+06 -5.28076e+06 1.10415e+06 -613486 -429529
161 1 Mg -2.90462 28.3797 52.308 1.2 -7.60341 294656 -1.25827e+06 3.82609e+06 1.79409e+06 -1.79085e+06 1.32391e+06
162 3 O 2.81205 29.7787 50.4664 -1.2 -9.39645 -2.91122e+06 -1.97549e+06 -2.70133e+06 -349521 871944 -721847
163 1 Mg -1.72384 28.3614 55.1045 1.2 -8.39255 1.72195e+06 643589 1.20322e+06 977251 276650 -1.20373e+06
164 2 Si -1.50946 26.294 53.258 2.4 -32.8479 6.92211e+06 3.99275e+06 1.14835e+07 1.90091e+06 -712779 -142007
165 3 O -1.57445 24.7921 53.174 -1.2 -10.0692 -2.38608e+06 -4.26757e+06 -4.88867e+06 -114408 331427 511972
166 3 O -0.943026 27.648 46.4208 -1.2 -7.80572 -2.75716e+06 -2.01879e+06 -3.09103e+06 -605081 -1.50584e+06 542706
167 3 O -2.73304 27.0599 53.8748 -1.2 -9.19636 -2.734e+06 -2.90703e+06 -5.986e+06 -327022 951183 -469256
168 3 O -0.167099 27.0514 53.8205 -1.2 -9.08611 -2.01975e+06 -2.06787e+06 -4.9504e+06 1.56983e+06 -1.03131e+06 189338
169 1 Mg -2.84368 35.5623 57.298 1.2 -8.38733 1.57014e+06 -824958 3.2375e+06 -1.54315e+06 -1.16338e+06 -1.43618e+06
170 1 Mg -1.28421 35.3899 49.8376 1.2 -8.33186 718976 1.96912e+06 2.15844e+06 -178428 210076 1.10983e+06
171 2 Si -0.807101 32.9036 47.9247 2.4 -34.2314 8.42393e+06 6.5472e+06 1.01804e+07 494622 2.3237e+06 -112000
172 3 O -0.727174 34.4729 47.9885 -1.2 -8.76331 -2.48844e+06 -4.13187e+06 -3.16304e+06 462568 -1.93259e+06 -366559
173 3 O -1.35735 31.7701 51.768 -1.2 -9.20273 -2.16481e+06 -1.76257e+06 -4.71918e+06 202144 1.03431e+06 -778507
174 3 O -1.97695 32.3253 48.826 -1.2 -8.86736 -986930 -3.32527e+06 -3.81922e+06 27165.5 -334586 -1.3341e+06
175 1 Mg 0.237665 30.8412 46.8168 1.2 -6.93711 1.94748e+06 -526908 1.21365e+06 1.12555e+06 1.59157e+06 -528201
176 3 O 0.656562 32.2608 48.3877 -1.2 -8.75473 -1.56647e+06 -1.40248e+06 -2.49686e+06 -303184 -339821 659046
177 1 Mg 1.61791 30.6034 54.5552 1.2 -8.29264 2.11925e+06 1.06769e+06 980302 -118609 -675773 1.26802e+06
178 2 Si 1.75933 33.2872 56.4632 2.4 -34.1768 8.04344e+06 7.53758e+06 8.85507e+06 -1.13104e+06 2.2449e+06 1.04038e+06
179 3 O 1.61352 31.7738 56.6058 -1.2 -9.31209 -2.44054e+06 -4.50671e+06 -2.97234e+06 667314 -1.00686e+06 -355264
180 3 O 1.74574 34.5067 52.7279 -1.2 -9.60717 -1.9586e+06 -2.93664e+06 -5.74886e+06 184008 -261131 -1.48924e+06
181 3 O 0.426847 34.1465 55.882 -1.2 -8.07753 -2.72428e+06 -2.36276e+06 -3.25196e+06 -1.75283e+06 -1.16659e+06 -1.28598e+06
182 3 O 2.8671 34.0705 55.8004 -1.2 -8.91477 -6.87085e+06 -1.98418e+06 -5.65156e+06 774168 2.51054e+06 -167948
183 1 Mg 0.167046 33.1343 52.2045 1.2 -7.41688 -598340 -1.13144e+06 5.38078e+06 -1.0316e+06 1.78255e+06 833057
184 1 Mg 2.20727 32.8578 49.4516 1.2 -7.75529 2.00124e+06 435756 467211 92882.8 -152168 257906
185 2 Si 1.67943 35.1802 51.2429 2.4 -32.6283 6.76619e+06 4.9146e+06 1.11256e+07 232774 487838 1.10709e+06
186 3 O 1.78736 36.747 51.303 -1.2 -9.77482 -3.35422e+06 -1.431e+06 -4.42528e+06 630062 -418632 342606
187 3 O 1.76954 34.1015 57.9091 -1.2 -8.21605 -4.22225e+06 -1.98817e+06 -6.3275e+06 245479 -1.26857e+06 2.01834e+06
188 3 O 0.362533 34.5479 50.661 -1.2 -9.22561 -2.59104e+06 -2.60717e+06 -4.49951e+06 1.18727e+06 -1.1763e+06 -616332
189 1 Mg -2.80215 33.1347 52.3062 1.2 -7.34232 -860637 -671929 4.24549e+06 1.40065e+06 -1.82781e+06 796910
190 3 O 2.91593 34.533 50.466 -1.2 -9.57238 -2.42884e+06 -2.39176e+06 -2.41976e+06 -331450 1.09868e+06 -644029
191 1 Mg -1.39004 33.1807 55.0931 1.2 -8.11374 3.32376e+06 1.62863e+06 930451 192417 529643 55181.9
192 2 Si -1.31361 31.0608 53.268 2.4 -33.0145 7.79295e+06 2.70272e+06 1.19441e+07 1.18195e+06 1.68285e+06 131274
193 3 O -1.27636 29.5624 53.197 -1.2 -9.4424 -3.48766e+06 -5.04792e+06 -4.50321e+06 2.04881e+06 268508 -109290
194 3 O -0.842495 32.4028 46.4192 -1.2 -7.76806 -2.82232e+06 -1.99692e+06 -3.11038e+06 -605390 -1.50519e+06 719117
195 3 O -2.61619 31.5927 53.8811 -1.2 -9.18668 -3.40435e+06 -3.17458e+06 -4.14775e+06 44544.2 1.14469e+06 -857634
196 3 O 0.0263332 31.7855 54.0029 -1.2 -9.08687 71843.9 -2.04064e+06 -2.19185e+06 882027 105517 -306072
197 1 Mg -2.71491 40.3552 57.5876 1.2 -7.84298 329191 -1.19067e+06 3.06582e+06 -276565 -2.07483e+06 -196364
198 1 Mg -1.17787 40.1435 49.8359 1.2 -8.57521 887927 1.69427e+06 2.66556e+06 -171686 124960 544410
199 2 Si -0.702692 37.6572 47.9231 2.4 -34.4062 8.66933e+06 6.09128e+06 1.06708e+07 470886 2.29434e+06 41267.6
200 3 O -0.621782 39.2264 47.9868 -1.2 -8.65547 -2.6377e+06 -3.85605e+06 -3.46272e+06 466971 -1.90234e+06 -205050
201 3 O -1.25221 36.5242 51.7666 -1.2 -8.89743 -3.21004e+06 -358932 -7.06931e+06 565656 -413357 -1.90078e+06
202 3 O -1.87295 37.0796 48.8243 -1.2 -8.77863 -1.10194e+06 -3.13163e+06 -4.03132e+06 9592.96 -352559 -1.56679e+06
203 1 Mg 0.341084 35.5943 46.8152 1.2 -6.96551 1.99583e+06 -523006 1.20881e+06 1.12014e+06 1.59504e+06 -476205
204 3 O 0.760681 37.0138 48.3864 -1.2 -8.68218 -1.69081e+06 -1.22824e+06 -2.65297e+06 -282494 -323258 516148
205 1 Mg 1.70338 35.4462 54.4793 1.2 -8.46829 2.25291e+06 1.97166e+06 1.42241e+06 323972 -915133 -227380
206 2 Si 1.61906 38.269 56.5023 2.4 -34.5969 7.25944e+06 7.7762e+06 8.76401e+06 1.06726e+06 -1.09462e+06 659648
207 3 O 1.58791 36.6581 56.5456 -1.2 -8.37759 -4.46526e+06 -2.34513e+06 -3.64979e+06 -342735 -324913 405858
208 3 O 1.85132 39.2606 52.7264 -1.2 -9.27939 -3.56537e+06 -2.10725e+06 -5.26409e+06 -19227.6 -668933 -858001
209 3 O 0.448659 38.8484 55.6878 -1.2 -8.7734 -3.87961e+06 -4.65656e+06 -4.3395e+06 57795.3 -1.80399e+06 70463.8
210 3 O 2.98776 38.7701 55.8795 -1.2 -8.64908 -2.99298e+06 -3.13309e+06 -2.89102e+06 16208.6 863371 71255.1
211 1 Mg 0.272384 37.8883 52.2029 1.2 -7.85729 378483 -1.58096e+06 4.77212e+06 -1.15868e+06 1.72396e+06 330698
212 1 Mg 2.31122 37.6122 49.4501 1.2 -7.89311 2.3029e+06 88959 745344 149278 -101141 393719
213 2 Si 1.78573 39.934 51.2414 2.4 -33.1507 8.70464e+06 4.03931e+06 1.09175e+07 220995 964936 57161.3
214 3 O 1.89428 41.5006 51.3014 -1.2 -9.76254 -3.43069e+06 -1.70213e+06 -3.80286e+06 757296 -605955 737305
215 3 O 1.49056 38.9744 57.8973 -1.2 -8.47033 -3.90146e+06 -4.8611e+06 -6.63583e+06 1.05897e+06 284185 583455
216 3 O 0.469216 39.3015 50.6588 -1.2 -8.892 -3.54708e+06 -2.08e+06 -4.88213e+06 1.16956e+06 -696701 -200947
217 1 Mg -2.69668 37.8889 52.3043 1.2 -7.89489 -660557 -1.67981e+06 4.30548e+06 1.3998e+06 -1.96422e+06 368154
218 3 O 3.0225 39.2866 50.4651 -1.2 -9.22552 -3.06515e+06 -1.87255e+06 -3.1417e+06 -324420 620467 -308856
219 1 Mg -1.20495 37.8163 55.0805 1.2 -8.48073 3.43922e+06 1.2222e+06 1.06755e+06 -662947 -75778.9 -1.30962e+06
220 2 Si -1.23246 35.779 53.241 2.4 -32.8682 6.53405e+06 5.35325e+06 1.16248e+07 -594194 -415171 -2.20283e+06
221 3 O -1.33293 34.1682 53.356 -1.2 -10.0194 -3.1906e+06 -738119 -3.60218e+06 758392 -340788 -339389
222 3 O -0.738054 37.1566 46.4176 -1.2 -7.71841 -2.89924e+06 -1.88422e+06 -3.22838e+06 -603964 -1.50254e+06 690890
223 3 O -2.49376 36.5096 53.8897 -1.2 -8.9757 -3.01863e+06 -2.14215e+06 -4.68678e+06 -567793 1.28562e+06 510593
224 3 O 0.0212564 36.458 53.7854 -1.2 -9.07998 -4.79608e+06 -1.89186e+06 -6.30393e+06 666300 -2.24179e+06 611423
225 1 Mg -2.54102 44.8706 57.1393 1.2 -7.89252 -113565 -714873 4.58167e+06 -306784 -2.10748e+06 -573751
226 1 Mg -1.06993 44.8968 49.8343 1.2 -8.47671 658957 1.88901e+06 2.53044e+06 -182371 12922 444639
227 2 Si -0.596166 42.4103 47.9215 2.4 -34.4234 8.69183e+06 6.28451e+06 1.04865e+07 477478 2.26167e+06 -659482
228 3 O -0.51472 43.9796 47.9853 -1.2 -8.70163 -2.56591e+06 -4.06012e+06 -3.26362e+06 469233 -1.88351e+06 53154.9
229 3 O -1.14475 41.2777 51.7649 -1.2 -8.8023 -2.35854e+06 -1.60927e+06 -5.415e+06 159879 -7938.92 -732759
230 3 O -1.76671 41.8331 48.8226 -1.2 -8.73194 -1.12538e+06 -3.22158e+06 -3.9984e+06 20649.3 -350061 -1.1319e+06
231 1 Mg 0.447076 40.3473 46.8135 1.2 -7.01883 2.08824e+06 -656371 1.33495e+06 1.12288e+06 1.5852e+06 -713183
232 3 O 0.866985 41.7666 48.385 -1.2 -8.64585 -1.78101e+06 -1.25258e+06 -2.59941e+06 -291942 -313689 899060
233 1 Mg 1.79373 40.1372 54.5421 1.2 -8.2885 2.71684e+06 1.1885e+06 1.06107e+06 2333.44 -430271 143884
234 2 Si 1.8199 42.7581 56.3532 2.4 -32.5769 9.22837e+06 5.13873e+06 1.29565e+07 18535.4 314673 1.99843e+06
235 3 O 1.64106 41.2587 56.4776 -1.2 -9.59996 -3.43278e+06 -4.0369e+06 -4.0467e+06 -254455 343983 -176816
236 3 O 1.95891 44.014 52.7248 -1.2 -9.46748 -2.76756e+06 -1.4274e+06 -4.59547e+06 -1.03873e+06 -1.25353e+06 -557542
237 3 O 0.564764 43.6433 55.6468 -1.2 -9.37197 -1.37812e+06 -999105 -2.91519e+06 -1.67913e+06 305475 -1.19088e+06
238 3 O 3.10753 43.4784 55.7373 -1.2 -9.40255 -2.22527e+06 -2.4497e+06 -5.62007e+06 2.10896e+06 401997 -852173
239 1 Mg 0.379928 42.6418 52.2013 1.2 -7.63691 374248 -1.1931e+06 4.72361e+06 -1.1192e+06 1.58103e+06 329362
240 1 Mg 2.41752 42.366 49.4484 1.2 -7.89986 2.31699e+06 286264 548820 132506 -62008.6 19213.2
241 2 Si 1.89374 44.6874 51.2398 2.4 -32.8046 8.29549e+06 4.20886e+06 1.0514e+07 485990 1.68895e+06 -168099
242 3 O 2.00266 46.254 51.2996 -1.2 -10.0209 -3.03062e+06 -1.84537e+06 -3.44868e+06 1.01868e+06 -1.05552e+06 771294
243 3 O 1.82364 43.5502 57.9276 -1.2 -8.59808 -3.03369e+06 -1.68775e+06 -1.13784e+06 -30325.3 -387403 1.00199e+06
244 3 O 0.577464 44.0549 50.6567 -1.2 -9.03792 -3.48523e+06 -2.26469e+06 -4.35199e+06 1.26021e+06 -787882 -64412.6
245 1 Mg -2.58906 42.6425 52.3022 1.2 -7.71971 -777871 -277187 4.29199e+06 1.54219e+06 -1.73904e+06 569702
246 3 O 3.13067 44.0398 50.464 -1.2 -9.31128 -2.75952e+06 -2.16443e+06 -2.91033e+06 -423679 642326 -334092
247 1 Mg -1.17758 42.6269 55.0337 1.2 -8.35074 1.70837e+06 976036 1.18677e+06 7826.04 279110 -1.02389e+06
248 2 Si -1.11813 40.5485 53.2791 2.4 -33.4684 6.12106e+06 3.68689e+06 1.24484e+07 295919 -404983 -1.30685e+06
249 3 O -1.27258 39.0061 53.1462 -1.2 -9.40514 -3.72537e+06 -3.22875e+06 -4.66854e+06 336024 208072 261113
250 3 O -0.631421 41.9099 46.4159 -1.2 -7.70228 -2.92359e+06 -1.89536e+06 -3.21845e+06 -604146 -1.4975e+06 968071
251 3 O -2.39643 41.1895 53.9469 -1.2 -8.9346 -2.74694e+06 -3.52833e+06 -4.49979e+06 -139400 452351 -721728
252 3 O 0.0928184 41.2402 53.8857 -1.2 -9.21994 -4.61726e+06 -2.17997e+06 -5.39056e+06 255441 -1.53658e+06 213316
253 1 Mg -2.31551 49.65 57.2899 1.2 -7.1565 -1.57557e+06 -1.76462e+06 4.873e+06 -1.56282e+06 -1.2095e+06 -904965
254 1 Mg -0.961069 49.6502 49.8327 1.2 -8.19504 227915 2.44275e+06 1.96098e+06 -155972 173975 278085
255 2 Si -0.488083 47.1636 47.9198 2.4 -34.174 8.28015e+06 6.96981e+06 9.81272e+06 500853 2.24964e+06 -939306
256 3 O -0.40607 48.7329 47.9837 -1.2 -8.84782 -2.3181e+06 -4.50043e+06 -2.83184e+06 458716 -1.89817e+06 92476.6
257 3 O -1.0361 46.031 51.7632 -1.2 -9.09112 -1.14101e+06 -1.51824e+06 -2.89268e+06 -314317 1.08778e+06 -1.12385e+06
258 3 O -1.65866 46.5866 48.821 -1.2 -8.86697 -874698 -3.5097e+06 -3.75501e+06 5616.01 -346714 -928834
259 1 Mg 0.554124 45.1001 46.8117 1.2 -6.95905 1.99952e+06 -422799 1.09514e+06 1.12184e+06 1.5823e+06 -918557
260 3 O 0.974961 46.5195 48.3832 -1.2 -8.77334 -1.59651e+06 -1.55447e+06 -2.27882e+06 -286010 -306889 1.06535e+06
261 1 Mg 1.80993 44.9765 54.652 1.2 -7.82527 2.12117e+06 1.23366e+06 1.5119e+06 -148386 -1.25559e+06 1.13352e+06
262 2 Si 2.14027 47.6189 56.3615 2.4 -32.7142 6.77501e+06 3.68087e+06 1.15418e+07 -891758 119597 -700314
263 3 O 2.02907 46.0947 56.5268 -1.2 -9.75641 -4.12195e+06 -2.65619e+06 -5.63129e+06 472451 -179996 -94757.4
264 3 O 2.0677 48.7672 52.7232 -1.2 -9.96456 -2.47662e+06 -1.54645e+06 -6.02384e+06 626233 -247005 -1.12524e+06
265 3 O 0.833218 48.4215 55.7751 -1.2 -9.25946 -3.09939e+06 -4.11187e+06 -4.45548e+06 -2.22446e+06 -78186.6 144741
266 3 O 3.32163 48.2718 55.6625 -1.2 -9.25844 -5.04108e+06 -4.85588e+06 -5.27849e+06 960974 1.9068e+06 468539
267 1 Mg 0.488584 47.395 52.1996 1.2 -7.27509 -232582 -1.35788e+06 4.71894e+06 -1.16087e+06 1.70148e+06 809977
268 1 Mg 2.52544 47.1195 49.4466 1.2 -7.71537 2.04497e+06 571849 243594 77220.6 -34751.6 -172223
269 2 Si 2.00256 49.4407 51.2382 2.4 -31.9633 6.96291e+06 4.84313e+06 9.8755e+06 168349 640355 -710459
270 3 O 2.11156 51.0073 51.2982 -1.2 -10.476 -2.14197e+06 -2.56405e+06 -2.5907e+06 771272 -408256 847306
271 3 O 2.26206 48.3014 57.8745 -1.2 -9.33935 -2.45495e+06 -2.76542e+06 -6.07063e+06 255470 115139 916485