ITEM: TIMESTEP
17300
ITEM: NUMBER OF ATOMS
10500
ITEM: BOX BOUNDS xy xz yz pp pp pp
0.0000000000000000e+00 8.9687999999999999e+00 2.9895999999999998e+00
0.0000000000000000e+00 1.1872499999999999e+02 0.0000000000000000e+00
0.0000000000000000e+00 2.5297749999999999e+02 0.0000000000000000e+00
ITEM: ATOMS id type element xu yu zu q c_pe c_s[1] c_s[2] c_s[3] c_s[4] c_s[5] c_s[6]
1 1 Mg -3.28847 6.91885 57.641 1.2 -7.92248 -164722 -1.00895e+06 3.91634e+06 -936162 -1.67713e+06 -262176
2 1 Mg -1.82655 6.90154 50.0912 1.2 -7.97152 -241028 1.06668e+06 1.14806e+06 -120046 -223250 1.77257e+06
3 2 Si -0.257935 3.96038 48.0876 2.4 -35.6506 9.37117e+06 9.21631e+06 1.03847e+07 796447 2.0203e+06 2.15301e+06
4 3 O -0.335812 5.46814 47.6264 -1.2 -7.96157 -2.8032e+06 -2.62599e+06 -2.37291e+06 147094 -982294 -855286
5 3 O -2.03793 3.43377 51.8941 -1.2 -9.49882 -2.42589e+06 -1.77557e+06 -7.6017e+06 -1.0572e+06 986372 -1.93381e+06
6 3 O -1.54015 3.53929 48.9521 -1.2 -8.55544 -952450 -1.8418e+06 -4.05921e+06 28822.2 -749770 -455767
7 1 Mg 1.82954 2.54582 47.1376 1.2 -7.82561 2.32975e+06 -237770 496900 1.14826e+06 825102 668093
8 3 O 1.22989 3.66364 48.7877 -1.2 -8.24735 -1.23519e+06 -2.60879e+06 -3.50977e+06 -478781 -715840 -1.17525e+06
9 1 Mg 1.06327 2.44204 54.5891 1.2 -8.29154 1.73726e+06 1.3106e+06 1.91796e+06 -463886 87722 856438
10 2 Si 1.03889 4.99289 56.5878 2.4 -33.4449 8.83067e+06 7.23754e+06 9.29722e+06 222470 944197 -1.19719e+06
11 3 O 1.01846 3.40203 56.6896 -1.2 -9.37549 -3.32415e+06 -2.323e+06 -3.16418e+06 730726 -177400 368735
12 3 O 1.10813 6.07342 52.8172 -1.2 -9.3189 -2.49017e+06 -3.0646e+06 -4.76925e+06 541202 291064 -1.31618e+06
13 3 O -0.310168 5.61661 55.9301 -1.2 -8.60463 -1.69385e+06 -3.22131e+06 -3.43974e+06 -1.21396e+06 -141968 351361
14 3 O 2.28434 5.63056 55.8584 -1.2 -9.01908 -3.45456e+06 -2.68879e+06 -2.71888e+06 981688 1.05745e+06 -406027
15 1 Mg -0.459401 4.67631 52.2426 1.2 -7.71158 -1.10846e+06 -1.87195e+06 6.03945e+06 -1.2231e+06 1.15467e+06 1.16133e+06
16 1 Mg 2.79456 3.9971 49.9987 1.2 -8.06391 3.10942e+06 -13993.4 1.57825e+06 -488783 745951 -611839
17 2 Si 1.16169 6.59457 51.2556 2.4 -33.0463 6.02441e+06 6.10797e+06 1.21459e+07 176093 319048 2.97235e+06
18 3 O 1.28989 8.18905 51.2909 -1.2 -9.67265 -2.7362e+06 -1.38768e+06 -3.7779e+06 241017 -825785 603832
19 3 O 1.0983 5.67288 58.0452 -1.2 -9.35103 -2.81844e+06 -3.02354e+06 -5.12803e+06 -126713 213454 1.08398e+06
20 3 O -0.184847 6.06029 50.6845 -1.2 -9.04167 -2.35034e+06 -3.09573e+06 -5.14889e+06 1.4872e+06 -573156 -1.61249e+06
21 1 Mg -3.49704 4.67769 52.6661 1.2 -7.36901 -363224 -2.40844e+06 3.25374e+06 2.11672e+06 -960406 1.11613e+06
22 3 O 2.48581 5.93312 50.6539 -1.2 -9.58929 -2.52119e+06 -1.50514e+06 -3.11157e+06 -1.61372e+06 -383305 -1.07228e+06
23 1 Mg -1.96453 4.54267 55.2923 1.2 -8.64821 2.572e+06 2.01791e+06 621509 4367.35 -532721 -964349
24 2 Si -1.93028 2.63384 53.2349 2.4 -32.8312 7.50485e+06 4.60336e+06 1.27955e+07 1.21691e+06 856677 426111
25 3 O -1.99042 1.07265 53.2367 -1.2 -9.7602 -3.19154e+06 -1.19667e+06 -4.54157e+06 615960 -488704 -371745
26 3 O -0.0467762 2.97103 46.8385 -1.2 -7.17127 -2.70541e+06 -2.41147e+06 -2.61816e+06 -989365 -2.01343e+06 -791613
27 3 O -3.15098 3.28799 54.1149 -1.2 -9.23489 -3.20128e+06 -3.45011e+06 -4.10643e+06 -1.30993e+06 2037.68 858357
28 3 O -0.621642 3.30652 54.015 -1.2 -8.89784 -2.223e+06 -3.20711e+06 -2.85693e+06 1.53433e+06 877849 808072
29 1 Mg -3.2902 11.7877 57.5672 1.2 -7.78581 124066 -1.27516e+06 4.46826e+06 -1.46245e+06 -1.77304e+06 -662371
30 1 Mg -1.75014 11.5838 49.8362 1.2 -8.51684 927550 1.72215e+06 2.69749e+06 -329466 269806 846810
31 2 Si -1.18003 9.02138 47.9309 2.4 -34.3182 8.26489e+06 7.01871e+06 9.90745e+06 228056 2.61028e+06 979211
32 3 O -1.23224 10.5991 47.9811 -1.2 -8.70974 -2.50939e+06 -3.40395e+06 -2.97188e+06 655304 -1.91779e+06 -173275
33 3 O -1.79016 8.01447 51.8693 -1.2 -9.2301 -2.6161e+06 -1.65379e+06 -5.79438e+06 347574 660674 -2.24692e+06
34 3 O -2.30986 8.37215 48.8528 -1.2 -9.0513 -895926 -2.47563e+06 -3.42705e+06 -339494 -606446 -1.20103e+06
35 1 Mg 0.154883 7.08234 46.8007 1.2 -7.42312 1.72936e+06 -54146.2 700820 941737 1.72825e+06 -657271
36 3 O 0.325447 8.50934 48.3809 -1.2 -8.68955 -1.31063e+06 -1.92171e+06 -2.78701e+06 -28711.2 -828780 28532.9
37 1 Mg 1.29067 7.16244 54.5969 1.2 -8.42736 2.21408e+06 1.62527e+06 1.4499e+06 -101547 481592 523193
38 2 Si 1.27903 9.69646 56.5479 2.4 -34.1541 7.88922e+06 5.02183e+06 9.63872e+06 608530 -450621 -1.15551e+06
39 3 O 1.1775 8.13153 56.6645 -1.2 -8.94353 -3.18932e+06 -2.56171e+06 -3.37552e+06 743997 -427987 -471761
40 3 O 1.28624 10.7248 52.7351 -1.2 -9.11657 -3.43255e+06 -1.69363e+06 -4.66762e+06 283502 -281882 -747996
41 3 O 0.0503188 10.3289 55.7965 -1.2 -8.6285 -3.60974e+06 -3.08259e+06 -4.59937e+06 -200041 -1.38851e+06 166949
42 3 O 2.53592 10.3532 55.8159 -1.2 -8.71052 -3.99844e+06 -2.10164e+06 -3.17878e+06 588605 381658 10065.7
43 1 Mg -0.262694 9.34741 52.2523 1.2 -7.87517 -18588.5 -988426 5.18889e+06 -1.40649e+06 1.37896e+06 906323
44 1 Mg 1.87648 9.01537 49.4629 1.2 -7.83057 1.93107e+06 345179 485737 251678 -252374 593820
45 2 Si 1.21415 11.3799 51.2378 2.4 -33.2561 8.41765e+06 4.36639e+06 1.14113e+07 382271 470897 702072
46 3 O 1.31634 12.9512 51.3023 -1.2 -9.67721 -3.3116e+06 -1.53792e+06 -3.99468e+06 595449 -458540 730555
47 3 O 1.21196 10.3513 57.9504 -1.2 -9.07571 -2.6978e+06 -2.79485e+06 -7.67359e+06 -193124 -590007 -769962
48 3 O -0.115718 10.7564 50.681 -1.2 -8.835 -3.1825e+06 -2.08773e+06 -5.12111e+06 1.18078e+06 -482944 -671655
49 1 Mg -3.26386 9.35564 52.3622 1.2 -7.79105 81751.2 -1.40437e+06 4.12849e+06 1.75589e+06 -1.3563e+06 1.14213e+06
50 3 O 2.45216 10.7265 50.4558 -1.2 -9.34986 -2.91644e+06 -1.61729e+06 -2.56918e+06 -778581 525494 -180488
51 1 Mg -1.7124 9.35935 55.2168 1.2 -8.69063 3.48913e+06 1.41853e+06 1.12085e+06 -209249 -105037 -1.32455e+06
52 2 Si -1.78003 7.29451 53.3649 2.4 -33.2208 7.84004e+06 4.94717e+06 1.17141e+07 -578201 892229 -1.01382e+06
53 3 O -1.88672 5.78046 53.4091 -1.2 -9.58858 -3.24475e+06 -3.46807e+06 -4.73625e+06 419447 -797159 -347550
54 3 O -1.19417 8.46968 46.4488 -1.2 -7.68714 -2.64944e+06 -2.02739e+06 -2.96201e+06 -540905 -1.74292e+06 506884
55 3 O -3.03093 8.08864 53.9956 -1.2 -9.01931 -3.52766e+06 -3.16176e+06 -4.41128e+06 -853180 996850 304656
56 3 O -0.498053 7.98828 54.0707 -1.2 -8.80099 -2.31705e+06 -3.52439e+06 -3.07871e+06 1.26929e+06 -277239 249630
57 1 Mg -3.10352 16.5223 57.4974 1.2 -7.49385 -111203 -643466 4.45088e+06 -1.06907e+06 -1.79553e+06 -860394
58 1 Mg -1.6714 16.3544 49.8412 1.2 -8.49004 875978 1.83509e+06 2.46403e+06 -198205 194018 566097
59 2 Si -1.18567 13.8526 47.9314 2.4 -34.4166 8.70618e+06 5.89585e+06 1.07726e+07 500820 2.24964e+06 -318280
60 3 O -1.09664 15.4205 47.9915 -1.2 -8.69575 -2.50369e+06 -3.74132e+06 -3.34754e+06 423107 -1.92893e+06 -111754
61 3 O -1.73493 12.7491 51.7772 -1.2 -8.99594 -2.47847e+06 -2.20772e+06 -5.02796e+06 374782 454722 -704759
62 3 O -2.36115 13.2717 48.8238 -1.2 -8.74317 -1.23318e+06 -2.90251e+06 -4.04562e+06 -102298 -366047 -1.24836e+06
63 1 Mg -0.159928 11.7639 46.8533 1.2 -7.00946 2.09474e+06 -720548 1.36753e+06 1.12762e+06 1.57097e+06 -715067
64 3 O 0.2623 13.1866 48.413 -1.2 -8.66095 -1.73144e+06 -950103 -2.82428e+06 -201952 -288358 769036
65 1 Mg 1.32 11.7836 54.6041 1.2 -8.63028 2.91016e+06 2.01766e+06 1.43346e+06 -1298.09 -61889.5 735651
66 2 Si 1.25637 14.5157 56.4639 2.4 -32.9863 8.50437e+06 5.19463e+06 1.16762e+07 35087.2 18437.3 398490
67 3 O 1.19601 12.9676 56.5273 -1.2 -9.3684 -3.11211e+06 -856318 -4.20176e+06 -1542.49 56181.2 -1.01866e+06
68 3 O 1.36565 15.4813 52.729 -1.2 -9.23573 -3.1485e+06 -2.10962e+06 -4.20912e+06 168654 -194097 -914553
69 3 O -0.0073878 15.2463 55.7954 -1.2 -9.17675 -1.25164e+06 -3.04952e+06 -3.22475e+06 -242628 83040.4 147216
70 3 O 2.56561 15.1571 55.7936 -1.2 -9.37234 -2.28115e+06 -3.26465e+06 -3.13422e+06 810551 62483.9 278439
71 1 Mg -0.206989 14.1049 52.2121 1.2 -7.86855 -192665 -1.00197e+06 4.64509e+06 -1.30757e+06 1.89518e+06 726786
72 1 Mg 1.82591 13.8102 49.4556 1.2 -7.92283 2.35702e+06 264726 619922 131178 -111767 248170
73 2 Si 1.29285 16.1518 51.2434 2.4 -33.1063 8.06168e+06 4.48653e+06 1.10868e+07 283047 442730 422475
74 3 O 1.39496 17.7199 51.3047 -1.2 -9.8123 -2.96398e+06 -1.82742e+06 -3.94821e+06 793632 -309746 598346
75 3 O 1.29344 15.1491 58.0185 -1.2 -9.27069 -2.91934e+06 -1.75333e+06 -3.40563e+06 16156.5 208496 855751
76 3 O -0.0269106 15.5178 50.6688 -1.2 -8.89398 -3.31817e+06 -2.1461e+06 -5.10791e+06 1.05905e+06 -659241 -236606
77 1 Mg -3.18391 14.1057 52.3125 1.2 -7.72414 -58685.7 -761392 4.00346e+06 1.7709e+06 -1.72001e+06 742646
78 3 O 2.52432 15.503 50.4579 -1.2 -9.30732 -2.98347e+06 -1.93621e+06 -2.62623e+06 -341825 790066 -285526
79 1 Mg -1.7474 14.207 55.1074 1.2 -8.36046 2.69906e+06 2.0766e+06 1.31336e+06 343201 89725 -771578
80 2 Si -1.67073 12.0786 53.2651 2.4 -33.5292 8.59284e+06 5.01321e+06 1.16861e+07 68295.6 435653 -442484
81 3 O -1.70172 10.525 53.2232 -1.2 -9.23564 -3.51273e+06 -1.98191e+06 -4.21575e+06 64054 356609 506751
82 3 O -1.21337 13.3381 46.4311 -1.2 -7.68993 -3.00787e+06 -1.67306e+06 -3.37012e+06 -631445 -1.4522e+06 869169
83 3 O -2.94626 12.7662 53.9554 -1.2 -9.0626 -2.26778e+06 -2.44065e+06 -3.97208e+06 -616885 536568 305806
84 3 O -0.358526 12.7405 53.9348 -1.2 -8.95119 -1.89715e+06 -2.63541e+06 -3.22978e+06 945244 -256392 296576
85 1 Mg -3.03803 21.2588 57.5364 1.2 -7.70866 -976796 -1.31366e+06 4.26051e+06 -1.5624e+06 -1.69605e+06 -597216
86 1 Mg -1.5831 21.1217 49.8405 1.2 -8.40662 771497 1.96626e+06 2.26393e+06 -208603 333892 768585
87 2 Si -1.09384 18.6291 47.9287 2.4 -34.385 8.6367e+06 6.30351e+06 1.04454e+07 503895 2.34813e+06 -342475
88 3 O -1.02071 20.1985 47.9911 -1.2 -8.7079 -2.53659e+06 -3.96967e+06 -3.24322e+06 455532 -1.94939e+06 -195798
89 3 O -1.65002 17.5002 51.771 -1.2 -9.17948 -2.38842e+06 -2.20652e+06 -5.51193e+06 146924 -59768.7 -616602
90 3 O -2.26174 18.0434 48.8281 -1.2 -8.79014 -1.14768e+06 -3.16157e+06 -3.88064e+06 -26723.4 -366314 -1.1701e+06
91 1 Mg -0.0440435 16.5651 46.8269 1.2 -7.02423 2.05434e+06 -625930 1.32117e+06 1.13466e+06 1.58031e+06 -731329
92 3 O 0.37001 17.9877 48.3925 -1.2 -8.67553 -1.68175e+06 -1.28077e+06 -2.61884e+06 -284971 -334204 779110
93 1 Mg 1.3855 16.4593 54.6383 1.2 -8.34136 3.34877e+06 1.35953e+06 708106 45642 -148220 1.50112e+06
94 2 Si 1.48161 19.2335 56.3626 2.4 -33.0972 7.50645e+06 4.99168e+06 1.06462e+07 241695 225221 1.94289e+06
95 3 O 1.3486 17.7068 56.4258 -1.2 -9.67875 -3.55083e+06 -2.60903e+06 -3.35506e+06 250084 -4911.25 -655411
96 3 O 1.45147 20.239 52.7294 -1.2 -9.42419 -2.64158e+06 -2.20234e+06 -5.00429e+06 -136307 -341742 -1.01045e+06
97 3 O 0.209437 19.9193 55.6746 -1.2 -9.09988 -2.133e+06 -3.12031e+06 -3.43822e+06 -300942 -588052 -140526
98 3 O 2.73561 19.8885 55.6977 -1.2 -9.16431 -3.43761e+06 -3.98563e+06 -3.51941e+06 573848 619053 -289537
99 1 Mg -0.126194 18.8651 52.2079 1.2 -7.72711 -988239 -1.13612e+06 4.60049e+06 -1.09611e+06 2.15544e+06 775481
100 1 Mg 1.92402 18.5815 49.4545 1.2 -7.84857 2.19314e+06 361295 474151 85605.6 -178879 159249
101 2 Si 1.38106 20.9117 51.2443 2.4 -32.8178 7.40949e+06 4.79395e+06 1.09821e+07 344646 85471.5 569609
102 3 O 1.48527 22.4795 51.3054 -1.2 -9.89027 -2.9798e+06 -1.80299e+06 -3.89065e+06 594073 -319020 376786
103 3 O 1.47231 19.9444 57.8765 -1.2 -9.36635 -2.60457e+06 -2.0031e+06 -4.05133e+06 -441525 76615.7 998785
104 3 O 0.0615419 20.2804 50.6669 -1.2 -8.97585 -2.90883e+06 -2.39382e+06 -5.28004e+06 1.12127e+06 -616363 -366998
105 1 Mg -3.09665 18.8643 52.3122 1.2 -7.4185 -162453 -908451 4.33157e+06 1.64602e+06 -1.79236e+06 702411
106 3 O 2.61548 20.2646 50.4626 -1.2 -9.48203 -2.87963e+06 -2.12161e+06 -2.34029e+06 -339155 957301 -380278
107 1 Mg -1.57956 18.9139 55.1007 1.2 -8.26217 2.56e+06 1.97192e+06 778983 305393 25248.3 -725095
108 2 Si -1.56503 16.8567 53.2531 2.4 -33.2102 7.06183e+06 5.43116e+06 1.15196e+07 -328143 -176941 49345.6
109 3 O -1.62472 15.24 53.1972 -1.2 -9.441 -3.37237e+06 -642521 -4.16338e+06 358184 31297.1 226544
110 3 O -1.12868 18.1227 46.4249 -1.2 -7.69125 -2.95904e+06 -1.84181e+06 -3.24145e+06 -605422 -1.49838e+06 878385
111 3 O -2.83843 17.5025 53.9862 -1.2 -9.12199 -2.29587e+06 -2.33225e+06 -3.77173e+06 -250244 488937 -333020
112 3 O -0.307219 17.485 53.8749 -1.2 -9.10902 -3.48695e+06 -3.39453e+06 -4.45616e+06 39012.2 -962316 -45730.4
113 1 Mg -3.01768 26.0062 57.4295 1.2 -7.80935 -906693 -1.12426e+06 4.10131e+06 -1.62589e+06 -1.87903e+06 -110756
114 1 Mg -1.48778 25.88 49.8402 1.2 -8.5048 806676 1.66703e+06 2.6697e+06 -188125 187395 832217
115 2 Si -1.00491 23.3922 47.9274 2.4 -34.3931 8.63133e+06 6.24168e+06 1.0533e+07 477096 2.33018e+06 -8857.93
116 3 O -0.927602 24.9615 47.9909 -1.2 -8.68134 -2.58482e+06 -3.8771e+06 -3.40612e+06 463044 -1.91978e+06 -308931
117 3 O -1.55795 22.2588 51.7696 -1.2 -9.2037 -2.28242e+06 -1.99067e+06 -5.69745e+06 614740 -786158 -1.03695e+06
118 3 O -2.17411 22.8111 48.8277 -1.2 -8.79695 -1.12203e+06 -3.22434e+06 -3.87065e+06 8272.36 -379532 -1.45791e+06
119 1 Mg 0.0423997 21.3296 46.8225 1.2 -7.00951 2.04899e+06 -570127 1.26028e+06 1.12548e+06 1.58942e+06 -625074
120 3 O 0.458537 22.7495 48.3911 -1.2 -8.68342 -1.66874e+06 -1.30809e+06 -2.60348e+06 -291212 -319427 597763
121 1 Mg 1.43803 21.2419 54.5679 1.2 -8.22413 2.59123e+06 1.05665e+06 906291 95032.4 664900 1.24045e+06
122 2 Si 1.48506 23.9286 56.2981 2.4 -32.7959 8.73422e+06 4.20934e+06 1.13711e+07 -636831 393480 648090
123 3 O 1.50714 22.4109 56.5118 -1.2 -9.6165 -3.44252e+06 -3.03348e+06 -4.32247e+06 -457672 639566 -1.24647e+06
124 3 O 1.54441 24.9963 52.7297 -1.2 -9.3865 -3.24854e+06 -2.01718e+06 -5.20179e+06 -346947 -443710 -1.31343e+06
125 3 O 0.251225 24.6649 55.5978 -1.2 -9.42203 -1.90649e+06 -1.77717e+06 -3.54443e+06 -261857 -321741 -191869
126 3 O 2.81269 24.5988 55.7136 -1.2 -9.11483 -1.89295e+06 -3.13595e+06 -4.536e+06 748361 393975 74207.2
127 1 Mg -0.0335968 23.6229 52.2067 1.2 -7.71074 -360693 -853112 4.67064e+06 -1.18908e+06 1.7072e+06 834616
128 1 Mg 2.01073 23.3445 49.4541 1.2 -7.8475 2.22942e+06 285390 519820 148570 -158172 412851
129 2 Si 1.47594 25.6699 51.2449 2.4 -32.9819 8.27433e+06 4.0403e+06 1.10987e+07 351714 698228 885207
130 3 O 1.58172 27.2371 51.3054 -1.2 -9.81198 -3.255e+06 -1.48783e+06 -4.14506e+06 831317 -697622 358632
131 3 O 1.49469 24.62 57.8412 -1.2 -9.2479 -3.20811e+06 -2.5061e+06 -3.97273e+06 397181 700560 858246
132 3 O 0.157925 25.0378 50.6651 -1.2 -8.96059 -3.24913e+06 -2.15799e+06 -4.96704e+06 1.18034e+06 -666608 -561297
133 1 Mg -3.00341 23.6231 52.3098 1.2 -7.5105 -529525 -1.14087e+06 4.28085e+06 1.63818e+06 -1.81942e+06 755994
134 3 O 2.71149 25.0232 50.4656 -1.2 -9.34471 -2.98489e+06 -1.90727e+06 -2.88491e+06 -370626 705592 -659097
135 1 Mg -1.46056 23.5913 55.0118 1.2 -8.29318 2.17878e+06 1.56556e+06 794730 289708 -532632 -825209
136 2 Si -1.57529 21.5319 53.2273 2.4 -32.8198 7.67392e+06 4.01661e+06 1.23249e+07 -277240 -960437 -259532
137 3 O -1.48511 20.0057 53.1672 -1.2 -9.84098 -3.30728e+06 -2.83948e+06 -4.81462e+06 166737 474192 105725
138 3 O -1.03938 22.8897 46.4223 -1.2 -7.69458 -2.93847e+06 -1.8642e+06 -3.23389e+06 -604662 -1.50399e+06 762020
139 3 O -2.85568 22.2053 53.9651 -1.2 -9.2467 -1.80142e+06 -2.3296e+06 -4.13571e+06 -1.25353e+06 -89493.7 361939
140 3 O -0.302786 22.2888 53.8758 -1.2 -9.2288 -1.89724e+06 -3.03017e+06 -4.45977e+06 1.09222e+06 -408865 108235
141 1 Mg -2.80396 30.7987 57.1827 1.2 -7.89964 -912057 -2.72626e+06 3.72514e+06 -1.36428e+06 -1.90368e+06 -1.15408e+06
142 1 Mg -1.38776 30.6357 49.8391 1.2 -8.41813 678637 1.76901e+06 2.54455e+06 -178506 265826 761236
143 2 Si -0.907929 28.1491 47.9262 2.4 -34.3879 8.62369e+06 6.10966e+06 1.06671e+07 497702 2.31593e+06 -219393
144 3 O -0.829229 29.7184 47.99 -1.2 -8.70742 -2.54404e+06 -3.9219e+06 -3.39465e+06 458320 -1.92622e+06 -213835
145 3 O -1.45946 27.0152 51.769 -1.2 -8.97034 -2.2617e+06 -1.39427e+06 -4.97575e+06 109430 464453 -1.03434e+06
146 3 O -2.07744 27.5697 48.8273 -1.2 -8.77526 -1.11342e+06 -3.10644e+06 -4.05129e+06 10755.3 -370167 -1.33046e+06
147 1 Mg 0.137907 26.087 46.819 1.2 -7.01637 2.0722e+06 -673217 1.35855e+06 1.12487e+06 1.58653e+06 -598563
148 3 O 0.55579 27.5065 48.3893 -1.2 -8.67314 -1.7076e+06 -1.18804e+06 -2.70307e+06 -295134 -314586 672983
149 1 Mg 1.62715 25.9709 54.5405 1.2 -8.16355 2.59583e+06 798962 751343 -800334 512539 1.3956e+06
150 2 Si 1.65995 28.6926 56.3813 2.4 -33.4478 7.0506e+06 2.28163e+06 1.31887e+07 -155994 634535 1.36626e+06
151 3 O 1.61832 27.2248 56.5116 -1.2 -9.64578 -3.93849e+06 -4.53443e+06 -5.03435e+06 943271 -494461 -585984
152 3 O 1.6432 29.7522 52.7291 -1.2 -9.57502 -2.6658e+06 -1.62756e+06 -5.65308e+06 83416 -191202 -829310
153 3 O 0.353446 29.3405 55.6587 -1.2 -8.93955 -2.05207e+06 -2.14642e+06 -4.36194e+06 -870071 -1.10511e+06 -1.02548e+06
154 3 O 2.87964 29.4677 55.7285 -1.2 -9.19351 -3.32501e+06 -2.5006e+06 -5.68135e+06 562688 850597 -1.12407e+06
155 1 Mg 0.0647462 28.3794 52.2059 1.2 -7.70433 -362644 -1.09962e+06 5.38014e+06 -1.11171e+06 1.66761e+06 866592
156 1 Mg 2.10696 28.1021 49.4531 1.2 -7.85082 2.23748e+06 159472 650324 93234.2 -138145 239122
157 2 Si 1.57592 30.4257 51.2442 2.4 -32.69 7.81177e+06 4.32144e+06 1.07687e+07 257222 281724 378151
158 3 O 1.68288 31.9926 51.3043 -1.2 -9.95522 -3.1865e+06 -1.63333e+06 -3.93036e+06 729090 -344160 255918
159 3 O 1.6063 29.4222 57.873 -1.2 -8.66192 -3.02645e+06 -2.24059e+06 -4.7838e+06 -458982 119433 832218
160 3 O 0.258524 29.7935 50.6632 -1.2 -9.03173 -2.94567e+06 -2.20256e+06 -5.07036e+06 1.2285e+06 -710371 -419334
161 1 Mg -2.90462 28.3797 52.308 1.2 -7.53153 -154242 -1.12767e+06 4.46632e+06 1.73588e+06 -1.6668e+06 978753
162 3 O 2.81205 29.7787 50.4664 -1.2 -9.45825 -2.84741e+06 -1.99067e+06 -2.60973e+06 -371485 861776 -450561
163 1 Mg -1.35622 28.4309 55.113 1.2 -8.26627 2.35071e+06 1.27753e+06 1.1208e+06 -122977 -364564 -790732
164 2 Si -1.45698 26.3039 53.2911 2.4 -33.2277 7.34716e+06 3.40784e+06 1.32624e+07 471386 547527 -151701
165 3 O -1.54341 24.7817 53.1731 -1.2 -9.67795 -3.29954e+06 -2.98784e+06 -5.27001e+06 787881 153175 227807
166 3 O -0.943026 27.648 46.4208 -1.2 -7.69758 -2.93087e+06 -1.81406e+06 -3.2964e+06 -605280 -1.50368e+06 802856
167 3 O -2.77892 26.9595 53.8806 -1.2 -9.11718 -3.11817e+06 -2.63446e+06 -5.14432e+06 -759316 615923 -280567
168 3 O -0.221342 27.0323 53.9776 -1.2 -9.09159 -1.76432e+06 -2.65956e+06 -4.06379e+06 460028 -746755 107458
169 1 Mg -2.90315 35.5356 57.4405 1.2 -7.614 -314896 -1.57366e+06 3.80331e+06 -1.80821e+06 -1.83788e+06 -1.65839e+06
170 1 Mg -1.28421 35.3899 49.8376 1.2 -8.34937 598908 1.90218e+06 2.38274e+06 -180455 263549 793947
171 2 Si -0.807101 32.9036 47.9247 2.4 -34.3043 8.47841e+06 6.25832e+06 1.05331e+07 490200 2.32343e+06 -187135
172 3 O -0.727174 34.4729 47.9885 -1.2 -8.74357 -2.48768e+06 -3.99477e+06 -3.32621e+06 461001 -1.92792e+06 -265979
173 3 O -1.35735 31.7701 51.768 -1.2 -9.07274 -2.20563e+06 -1.77012e+06 -5.84546e+06 384382 -309660 -1.34469e+06
174 3 O -1.97695 32.3253 48.826 -1.2 -8.83414 -1.02373e+06 -3.19813e+06 -3.95435e+06 18362.2 -387263 -1.35036e+06
175 1 Mg 0.237665 30.8412 46.8168 1.2 -6.98848 2.02683e+06 -624872 1.31448e+06 1.12329e+06 1.58695e+06 -635731
176 3 O 0.656562 32.2608 48.3877 -1.2 -8.72181 -1.61542e+06 -1.27557e+06 -2.62204e+06 -295347 -303420 678471
177 1 Mg 1.6434 30.8298 54.4404 1.2 -8.08419 1.99663e+06 1.55325e+06 1.20804e+06 104467 56220.8 257336
178 2 Si 1.64288 33.4359 56.3475 2.4 -32.8659 7.78813e+06 5.02049e+06 1.20547e+07 -132885 386581 19196
179 3 O 1.67992 31.8846 56.4607 -1.2 -9.59086 -3.32355e+06 -2.93149e+06 -4.46639e+06 552191 -92337.7 -289886
180 3 O 1.74574 34.5067 52.7279 -1.2 -9.69234 -2.56934e+06 -1.68103e+06 -5.0435e+06 194186 -427694 -784550
181 3 O 0.310757 34.1381 55.7789 -1.2 -9.29248 -1.24752e+06 -3.18848e+06 -4.73259e+06 -1.22851e+06 -329500 -500731
182 3 O 2.90308 34.1099 55.6631 -1.2 -9.40831 -3.28803e+06 -3.45869e+06 -4.50906e+06 1.38937e+06 1.15177e+06 -413555
183 1 Mg 0.167046 33.1343 52.2045 1.2 -7.67264 -658017 -1.39397e+06 4.91909e+06 -1.09272e+06 1.63082e+06 959793
184 1 Mg 2.20727 32.8578 49.4516 1.2 -7.78235 2.16562e+06 227741 555841 108764 -149309 281978
185 2 Si 1.67943 35.1802 51.2429 2.4 -32.5205 7.37717e+06 4.58485e+06 1.06632e+07 276867 332775 499487
186 3 O 1.78736 36.747 51.303 -1.2 -10.0192 -2.91664e+06 -1.74703e+06 -3.76431e+06 670496 -452117 80939
187 3 O 1.71898 34.0637 57.8988 -1.2 -9.07889 -2.86504e+06 -2.01998e+06 -3.53101e+06 15680.5 437081 843505
188 3 O 0.362533 34.5479 50.661 -1.2 -9.10814 -2.86314e+06 -2.29604e+06 -5.01661e+06 1.13745e+06 -671297 -370935
189 1 Mg -2.80215 33.1347 52.3062 1.2 -7.44542 -486692 -1.70928e+06 4.19223e+06 1.56824e+06 -1.72643e+06 1.04205e+06
190 3 O 2.91593 34.533 50.466 -1.2 -9.52708 -2.76569e+06 -2.04875e+06 -2.63338e+06 -292130 812904 -437782
191 1 Mg -1.45457 33.2708 55.1431 1.2 -8.18106 540824 909031 1.52496e+06 711568 520842 -824474
192 2 Si -1.34539 31.118 53.2862 2.4 -32.9072 5.76306e+06 5.32793e+06 1.24741e+07 98940.8 -72433.2 -279012
193 3 O -1.35371 29.56 53.2723 -1.2 -9.7229 -2.88496e+06 -1.24494e+06 -4.51574e+06 521941 -32078.5 679923
194 3 O -0.842495 32.4028 46.4192 -1.2 -7.72537 -2.884e+06 -1.8764e+06 -3.23679e+06 -605289 -1.50566e+06 799524
195 3 O -2.61136 31.8415 53.9228 -1.2 -9.40747 -2.69222e+06 -2.83447e+06 -4.97829e+06 -777705 1.03559e+06 291904
196 3 O -0.0687929 31.851 53.8636 -1.2 -9.25489 -2.01771e+06 -2.87164e+06 -4.80157e+06 865075 -1.25807e+06 182726
197 1 Mg -2.75112 40.1624 57.4802 1.2 -7.81372 -664212 -1.05616e+06 4.93634e+06 -1.18954e+06 -1.71063e+06 -861184
198 1 Mg -1.17787 40.1435 49.8359 1.2 -8.42196 757539 1.66859e+06 2.57738e+06 -177228 222787 747766
199 2 Si -0.702692 37.6572 47.9231 2.4 -34.3136 8.50505e+06 6.15757e+06 1.06202e+07 484895 2.31797e+06 84033.9
200 3 O -0.621782 39.2264 47.9868 -1.2 -8.71433 -2.54341e+06 -3.86706e+06 -3.45e+06 461370 -1.92437e+06 -350458
201 3 O -1.25221 36.5242 51.7666 -1.2 -9.2905 -1.71029e+06 -2.23418e+06 -6.26119e+06 518689 -113288 -1.31305e+06
202 3 O -1.87295 37.0796 48.8243 -1.2 -8.84396 -1.00977e+06 -3.19458e+06 -3.95197e+06 19804.5 -376573 -1.5336e+06
203 1 Mg 0.341084 35.5943 46.8152 1.2 -6.97074 2.00012e+06 -593470 1.28333e+06 1.123e+06 1.58799e+06 -551988
204 3 O 0.760681 37.0138 48.3864 -1.2 -8.72915 -1.60149e+06 -1.2683e+06 -2.62602e+06 -293924 -309120 533422
205 1 Mg 1.73151 35.5584 54.4991 1.2 -8.02568 2.6636e+06 1.57558e+06 681490 150103 -11499.2 518394
206 2 Si 1.70487 38.1606 56.3719 2.4 -32.912 7.35641e+06 5.38824e+06 1.07589e+07 153904 -699231 477305
207 3 O 1.61715 36.5816 56.3757 -1.2 -9.7667 -3.82824e+06 -1.46509e+06 -4.22716e+06 135209 -213941 135136
208 3 O 1.85132 39.2606 52.7264 -1.2 -9.41244 -3.22026e+06 -1.85082e+06 -5.04706e+06 -96847.4 -788121 -1.17024e+06
209 3 O 0.437373 38.8864 55.7607 -1.2 -9.20014 -3.58475e+06 -2.76338e+06 -5.22755e+06 -561433 -1.23337e+06 -447693
210 3 O 2.96079 38.8479 55.734 -1.2 -9.15419 -3.20397e+06 -3.56316e+06 -4.32721e+06 810914 1.02561e+06 -445909
211 1 Mg 0.272384 37.8883 52.2029 1.2 -7.68214 -358242 -1.31953e+06 5.05273e+06 -1.06393e+06 1.50437e+06 816231
212 1 Mg 2.31122 37.6122 49.4501 1.2 -7.7897 2.16398e+06 182708 623691 121284 -139475 484265
213 2 Si 1.78573 39.934 51.2414 2.4 -32.8612 7.79789e+06 3.97459e+06 1.14301e+07 298010 628136 731261
214 3 O 1.89428 41.5006 51.3014 -1.2 -9.847 -2.99729e+06 -1.58939e+06 -4.29596e+06 758156 -542565 342847
215 3 O 1.68201 38.8369 57.866 -1.2 -9.31431 -3.58787e+06 -1.9126e+06 -6.03741e+06 23714.8 -336895 1.69751e+06
216 3 O 0.469216 39.3015 50.6588 -1.2 -9.01218 -3.13269e+06 -1.99657e+06 -5.29434e+06 1.07865e+06 -626558 -462774
217 1 Mg -2.69668 37.8889 52.3043 1.2 -7.56247 -504344 -1.72682e+06 4.51787e+06 1.66377e+06 -1.58054e+06 1.1393e+06
218 3 O 3.0225 39.2866 50.4651 -1.2 -9.42294 -2.8664e+06 -1.79142e+06 -3.00627e+06 -251008 773345 -569899
219 1 Mg -1.21835 37.9572 55.1604 1.2 -8.40445 1.62871e+06 1.85931e+06 1.21221e+06 -406457 -335806 -742167
220 2 Si -1.27133 35.8359 53.2282 2.4 -32.8173 5.73755e+06 5.63619e+06 1.25304e+07 -56458.1 -151964 766140
221 3 O -1.30323 34.2918 53.1837 -1.2 -9.8388 -2.63174e+06 -2.70504e+06 -4.6691e+06 137513 86406.5 617080
222 3 O -0.738054 37.1566 46.4176 -1.2 -7.72694 -2.88269e+06 -1.85714e+06 -3.25808e+06 -605494 -1.50493e+06 701158
223 3 O -2.49018 36.6185 53.9471 -1.2 -9.16034 -2.77505e+06 -2.19178e+06 -4.18319e+06 -748674 507915 439076
224 3 O -0.00790624 36.5542 53.9345 -1.2 -9.11237 -2.72202e+06 -2.21253e+06 -4.0614e+06 1.07531e+06 -898614 497247
225 1 Mg -2.5626 44.9224 57.5194 1.2 -8.03227 298962 -1.35907e+06 4.49894e+06 -1.53316e+06 -1.66286e+06 -783827
226 1 Mg -1.06993 44.8968 49.8343 1.2 -8.47421 817011 1.64303e+06 2.62958e+06 -177984 177931 590874
227 2 Si -0.596166 42.4103 47.9215 2.4 -34.3997 8.65906e+06 5.9383e+06 1.08296e+07 480952 2.3133e+06 -18213.9
228 3 O -0.51472 43.9796 47.9853 -1.2 -8.67502 -2.61081e+06 -3.79283e+06 -3.51574e+06 463323 -1.91762e+06 -270589
229 3 O -1.14475 41.2777 51.7649 -1.2 -9.19697 -2.43843e+06 -2.6744e+06 -7.19276e+06 271459 -228230 -362012
230 3 O -1.76671 41.8331 48.8226 -1.2 -8.78892 -1.10231e+06 -3.07025e+06 -4.06531e+06 13709.3 -356960 -1.47817e+06
231 1 Mg 0.447076 40.3473 46.8135 1.2 -6.99813 2.04644e+06 -709999 1.39725e+06 1.12411e+06 1.59033e+06 -520958
232 3 O 0.866985 41.7666 48.385 -1.2 -8.67938 -1.68154e+06 -1.13433e+06 -2.75366e+06 -288829 -321869 582890
233 1 Mg 1.83744 40.2214 54.5464 1.2 -8.34951 3.17304e+06 1.14531e+06 764244 42900.7 264241 899803
234 2 Si 1.86465 42.9472 56.3491 2.4 -33.2961 8.7703e+06 5.78923e+06 1.14311e+07 -1.21168e+06 -51878.4 1.06151e+06
235 3 O 1.81681 41.4083 56.3868 -1.2 -9.58965 -3.98305e+06 -1.7131e+06 -4.03231e+06 55087.9 231244 -482653
236 3 O 1.95891 44.014 52.7248 -1.2 -9.3983 -3.16427e+06 -1.73929e+06 -5.394e+06 269495 -463574 -998238
237 3 O 0.518836 43.6663 55.7904 -1.2 -8.99505 -2.04546e+06 -2.42831e+06 -3.35775e+06 -853067 -355754 -890357
238 3 O 3.11014 43.6511 55.6483 -1.2 -9.07651 -1.76526e+06 -3.17525e+06 -3.2061e+06 763557 495630 -648174
239 1 Mg 0.379928 42.6418 52.2013 1.2 -7.74199 -283039 -1.4594e+06 4.85055e+06 -1.2999e+06 1.85298e+06 682604
240 1 Mg 2.41752 42.366 49.4484 1.2 -7.85796 2.24638e+06 75283.9 765299 131146 -141352 370603
241 2 Si 1.89374 44.6874 51.2398 2.4 -32.907 8.00011e+06 4.05713e+06 1.12292e+07 297482 607788 375383
242 3 O 2.00266 46.254 51.2996 -1.2 -9.83766 -3.00018e+06 -1.72956e+06 -4.24963e+06 810577 -427199 307251
243 3 O 1.92491 43.6265 57.8968 -1.2 -9.02539 -3.35946e+06 -2.361e+06 -4.14422e+06 481185 -144700 1.95476e+06
244 3 O 0.577464 44.0549 50.6567 -1.2 -8.95341 -3.35402e+06 -1.91838e+06 -5.35088e+06 1.09543e+06 -552966 -283134
245 1 Mg -2.58906 42.6425 52.3022 1.2 -7.61178 -578056 -1.45405e+06 4.55e+06 1.91496e+06 -1.94733e+06 721489
246 3 O 3.13067 44.0398 50.464 -1.2 -9.34311 -2.99483e+06 -1.75146e+06 -3.13543e+06 -288740 664842 -442339
247 1 Mg -1.07471 42.7659 55.0255 1.2 -8.3661 2.30199e+06 1.84865e+06 1.26344e+06 56955.8 -502241 -674563
248 2 Si -1.1553 40.6148 53.1937 2.4 -33.2999 7.1871e+06 3.87062e+06 1.19424e+07 331012 -736342 714529
249 3 O -1.18453 39.0619 53.1472 -1.2 -9.47566 -2.96213e+06 -2.68026e+06 -4.64812e+06 387559 472193 473475
250 3 O -0.631421 41.9099 46.4159 -1.2 -7.69843 -2.93113e+06 -1.7536e+06 -3.35727e+06 -604658 -1.50444e+06 717194
251 3 O -2.45281 41.2534 53.9175 -1.2 -8.87851 -2.21301e+06 -2.26873e+06 -4.45733e+06 -394136 266241 -255148
252 3 O 0.0891703 41.332 53.8916 -1.2 -9.12834 -2.85356e+06 -1.68319e+06 -4.41222e+06 286556 -794666 83661
253 1 Mg -2.39261 49.7757 57.3808 1.2 -7.77436 287624 -1.48477e+06 4.25468e+06 -1.69962e+06 -1.70597e+06 -979459
254 1 Mg -0.961069 49.6502 49.8327 1.2 -8.56238 912193 1.50004e+06 2.81156e+06 -164604 263486 681775
255 2 Si -0.488083 47.1636 47.9198 2.4 -34.4547 8.75274e+06 5.90625e+06 1.0855e+07 490360 2.32114e+06 -97944.5
256 3 O -0.40607 48.7329 47.9837 -1.2 -8.64484 -2.64948e+06 -3.73243e+06 -3.58669e+06 463783 -1.92667e+06 -244464
257 3 O -1.0361 46.031 51.7632 -1.2 -9.22924 -2.49827e+06 -3.0167e+06 -7.33012e+06 233003 482040 -99133.6
258 3 O -1.65866 46.5866 48.821 -1.2 -8.75842 -1.15348e+06 -3.08803e+06 -4.04644e+06 8501.77 -346805 -1.41743e+06
259 1 Mg 0.554124 45.1001 46.8117 1.2 -7.02541 2.09308e+06 -762354 1.4475e+06 1.12359e+06 1.59031e+06 -583698
260 3 O 0.974961 46.5195 48.3832 -1.2 -8.64913 -1.72825e+06 -1.13338e+06 -2.75211e+06 -286695 -326282 628374
261 1 Mg 2.00484 45.0625 54.4808 1.2 -8.26743 2.70313e+06 1.05889e+06 1.45762e+06 -66000.5 -134904 734754
262 2 Si 2.03284 47.7133 56.3939 2.4 -33.0862 9.5981e+06 6.26263e+06 1.25212e+07 -139573 -323896 -405295
263 3 O 1.94442 46.1538 56.5928 -1.2 -9.25873 -3.44024e+06 -329714 -3.57726e+06 296729 -158406 -1.1404e+06
264 3 O 2.0677 48.7672 52.7232 -1.2 -9.206 -3.00521e+06 -1.42461e+06 -4.72805e+06 335844 -227285 -408335
265 3 O 0.712166 48.4462 55.7435 -1.2 -9.15717 -572528 -1.70989e+06 -4.39358e+06 -1.16832e+06 -102353 -571473
266 3 O 3.34696 48.4034 55.696 -1.2 -9.27651 -1.35944e+06 -2.09259e+06 -4.14059e+06 1.60149e+06 9757.77 -505890
267 1 Mg 0.488584 47.395 52.1996 1.2 -7.7583 -471978 -1.50612e+06 5.02771e+06 -1.33849e+06 1.93618e+06 799648
268 1 Mg 2.52544 47.1195 49.4466 1.2 -7.89069 2.28657e+06 107584 749073 105929 -159399 348385
269 2 Si 2.00256 49.4407 51.2382 2.4 -33.1768 8.39556e+06 3.76913e+06 1.15231e+07 179154 253950 278832
270 3 O 2.11156 51.0073 51.2982 -1.2 -9.7339 -3.37335e+06 -1.55065e+06 -4.1562e+06 784055 -69627.3 469995
271 3 O 2.04192 48.4194 57.9048 -1.2 -8.9486 -2.91015e+06 -1.96682e+06 -2.99438e+06 412380 -639880 615283
272 3 O 0.686344 48.8082 50.655 -1.2 -8.84998 -3.32777e+06 -1.92566e+06 -5.47981e+06 1.22521e+06 -627538 -422179
273 1 Mg -2.48039 47.3957 52.3005 1.2 -7.60467 -323204 -1.51776e+06 4.49582e+06 1.94281e+06 -1.74365e+06 968844
274 3 O 3.23944 48.7932 50.4623 -1.2 -9.29733 -3.13668e+06 -1.71398e+06 -2.95781e+06 -363112 826513 -498389