ITEM: TIMESTEP
44100
ITEM: NUMBER OF ATOMS
10500
ITEM: BOX BOUNDS xy xz yz pp pp pp
0.0000000000000000e+00 8.9687999999999999e+00 2.9895999999999998e+00
0.0000000000000000e+00 1.1872499999999999e+02 0.0000000000000000e+00
0.0000000000000000e+00 2.5297749999999999e+02 0.0000000000000000e+00
ITEM: ATOMS id type element xu yu zu q c_pe c_s[1] c_s[2] c_s[3] c_s[4] c_s[5] c_s[6]
1 1 Mg -3.27441 6.91839 57.3489 1.2 -7.76758 317862 -764967 4.13404e+06 -1.40627e+06 -1.61319e+06 -838421
2 1 Mg -1.82655 6.90154 50.0912 1.2 -8.28997 319897 940516 1.2248e+06 -119671 -228163 1.52028e+06
3 2 Si -0.257935 3.96038 48.0876 2.4 -36.5701 1.08542e+07 8.21895e+06 1.13735e+07 817665 2.00127e+06 1.2412e+06
4 3 O -0.335812 5.46814 47.6264 -1.2 -7.59277 -3.39402e+06 -2.24321e+06 -2.75147e+06 142994 -983859 -404467
5 3 O -2.03793 3.43377 51.8941 -1.2 -8.54694 -4.47224e+06 -2.43338e+06 -7.76364e+06 -1.41285e+06 143449 -1.44815e+06
6 3 O -1.54015 3.53929 48.9521 -1.2 -8.02258 -1.77427e+06 -1.35919e+06 -4.56029e+06 6088.55 -735238 47000.8
7 1 Mg 1.82954 2.54582 47.1376 1.2 -8.28948 3.07724e+06 -895201 1.15014e+06 1.14467e+06 835655 307364
8 3 O 1.22989 3.66364 48.7877 -1.2 -7.74074 -2.07449e+06 -2.11687e+06 -3.95955e+06 -465691 -722429 -723283
9 1 Mg 1.13073 2.30736 54.4024 1.2 -8.71048 1.07164e+06 263999 1.1848e+06 -1.94105e+06 449374 51869.1
10 2 Si 1.06311 4.91388 56.4548 2.4 -33.7361 8.44337e+06 970525 1.15323e+07 -337436 283614 -251960
11 3 O 1.09764 3.43662 56.4967 -1.2 -9.17777 -5.74023e+06 -6.49126e+06 -6.13652e+06 -1.03723e+06 1.11575e+06 1.08465e+06
12 3 O 1.10813 6.07342 52.8172 -1.2 -8.8893 -2.85735e+06 -3.65029e+06 -4.97246e+06 411434 141100 -1.13245e+06
13 3 O -0.155583 5.6164 55.8057 -1.2 -8.51853 -4.024e+06 -3.57291e+06 -4.92446e+06 208154 -823164 -416623
14 3 O 2.37102 5.54634 55.7112 -1.2 -8.76017 -3.77956e+06 -3.3116e+06 -3.81567e+06 151012 599584 -288834
15 1 Mg -0.459401 4.67631 52.2426 1.2 -8.29646 -511458 -2.36956e+06 5.47426e+06 -1.1463e+06 1.61368e+06 1.33566e+06
16 1 Mg 2.79456 3.9971 49.9987 1.2 -8.62257 3.99838e+06 -301582 1.87649e+06 -562269 753675 -1.13694e+06
17 2 Si 1.16169 6.59457 51.2556 2.4 -33.7912 6.90957e+06 6.12272e+06 1.24775e+07 144756 325792 2.68147e+06
18 3 O 1.28989 8.18905 51.2909 -1.2 -9.42125 -3.06034e+06 -1.30345e+06 -3.99015e+06 305084 -474496 729263
19 3 O 1.16943 5.6026 57.9328 -1.2 -9.35403 -4.05993e+06 -3.41178e+06 -5.55247e+06 1.69823e+06 -663377 1.56205e+06
20 3 O -0.184847 6.06029 50.6845 -1.2 -8.65693 -2.93982e+06 -3.03601e+06 -5.22212e+06 1.46399e+06 -661980 -1.30863e+06
21 1 Mg -3.49704 4.67769 52.6661 1.2 -7.81609 324734 -2.90373e+06 3.06188e+06 2.42079e+06 -1.42261e+06 1.66408e+06
22 3 O 2.48581 5.93312 50.6539 -1.2 -9.20297 -3.11505e+06 -1.40342e+06 -3.10933e+06 -1.62216e+06 -262155 -835319
23 1 Mg -1.86746 4.66404 55.1235 1.2 -8.69944 3.20836e+06 166998 27267.3 354730 -280362 -1.14246e+06
24 2 Si -1.94752 2.71661 53.2934 2.4 -33.7775 9.41306e+06 3.77798e+06 1.25307e+07 1.67932e+06 -405938 274282
25 3 O -2.08192 1.14107 53.1665 -1.2 -8.97059 -3.61728e+06 -238411 -5.15936e+06 50429.8 254847 1.19533e+06
26 3 O -0.0467762 2.97103 46.8385 -1.2 -6.73416 -3.41127e+06 -1.78076e+06 -3.24121e+06 -990872 -2.00809e+06 -414876
27 3 O -3.32471 3.31321 54.0455 -1.2 -8.59961 -3.20948e+06 -4.64091e+06 -6.84022e+06 -1.81109e+06 615928 690964
28 3 O -0.695166 3.44342 53.8912 -1.2 -8.71221 -3.10256e+06 -3.29839e+06 -6.48338e+06 1.03631e+06 -1.31528e+06 457371
29 1 Mg -3.28143 11.7308 57.3556 1.2 -7.98828 -460351 -1.98619e+06 4.45715e+06 -2.33779e+06 -1.42807e+06 -308142
30 1 Mg -1.75014 11.5838 49.8362 1.2 -8.53376 1.11744e+06 1.669e+06 2.59026e+06 -340063 121059 932052
31 2 Si -1.18003 9.02138 47.9309 2.4 -34.7237 8.93907e+06 6.6564e+06 1.02467e+07 224422 2.61548e+06 333149
32 3 O -1.23224 10.5991 47.9811 -1.2 -8.57087 -2.76016e+06 -3.26139e+06 -3.07874e+06 657258 -1.9148e+06 44546.5
33 3 O -1.79016 8.01447 51.8693 -1.2 -8.91932 -3.29679e+06 -2.30124e+06 -5.8305e+06 -130905 -187169 -2.75159e+06
34 3 O -2.30986 8.37215 48.8528 -1.2 -8.82232 -1.27665e+06 -2.30675e+06 -3.57033e+06 -330657 -598705 -893481
35 1 Mg 0.154883 7.08234 46.8007 1.2 -7.7046 2.17944e+06 -370325 1.0179e+06 942792 1.72992e+06 -1.07516e+06
36 3 O 0.325447 8.50934 48.3809 -1.2 -8.46437 -1.66587e+06 -1.74292e+06 -2.9614e+06 -35968.7 -838702 355339
37 1 Mg 1.29493 7.05552 54.6636 1.2 -8.51213 2.97544e+06 1.41125e+06 1.21311e+06 -267024 54197.8 930352
38 2 Si 1.19044 9.69034 56.4919 2.4 -33.5864 1.20529e+07 6.05047e+06 8.75818e+06 -386464 712897 -17188.8
39 3 O 1.18148 8.14952 56.6369 -1.2 -9.47729 -4.56876e+06 -1.11838e+06 -3.70837e+06 -312058 -527442 -401730
40 3 O 1.28624 10.7248 52.7351 -1.2 -9.0512 -2.92663e+06 -2.87284e+06 -4.70653e+06 342722 75168.7 -1.77497e+06
41 3 O -0.226826 10.4093 55.9248 -1.2 -8.18589 -942297 -2.74042e+06 -3.48502e+06 -2.05885e+06 179993 -688656
42 3 O 2.46809 10.3534 55.7419 -1.2 -8.81606 -2.77618e+06 -2.82584e+06 -4.2289e+06 1.29376e+06 724815 -346111
43 1 Mg -0.262694 9.34741 52.2523 1.2 -8.03227 -538637 -2.10315e+06 4.70133e+06 -960883 1.91979e+06 940012
44 1 Mg 1.87648 9.01537 49.4629 1.2 -8.02274 2.20986e+06 249484 611731 259243 -270162 368656
45 2 Si 1.21415 11.3799 51.2378 2.4 -33.3408 7.5761e+06 4.58176e+06 1.22278e+07 494330 818893 1.5334e+06
46 3 O 1.31634 12.9512 51.3023 -1.2 -9.52337 -3.28993e+06 -966537 -5.11298e+06 794774 -129978 536676
47 3 O 1.30076 10.4973 57.8641 -1.2 -9.11762 -4.75687e+06 -1.86595e+06 -6.72302e+06 -390443 -135469 809160
48 3 O -0.115718 10.7564 50.681 -1.2 -8.87587 -3.28736e+06 -2.16939e+06 -4.93617e+06 934115 -771413 -454727
49 1 Mg -3.26386 9.35564 52.3622 1.2 -7.7616 -48560.6 -1.12336e+06 3.84773e+06 1.33434e+06 -1.70986e+06 996288
50 3 O 2.45216 10.7265 50.4558 -1.2 -9.27677 -2.81798e+06 -1.66507e+06 -2.74477e+06 -711113 598693 -271963
51 1 Mg -1.8938 9.27376 54.9587 1.2 -8.67665 2.68208e+06 97052.3 299961 -577378 -5384.63 -1.75939e+06
52 2 Si -1.71542 7.301 53.3673 2.4 -33.34 9.17664e+06 3.84391e+06 1.17172e+07 395121 742387 -1.02722e+06
53 3 O -1.8222 5.77719 53.4355 -1.2 -9.29376 -5.10438e+06 -3.87473e+06 -5.49363e+06 1.93443e+06 2618.51 -50061.7
54 3 O -1.19417 8.46968 46.4488 -1.2 -7.46135 -3.01403e+06 -1.76426e+06 -3.22097e+06 -540665 -1.74358e+06 885654
55 3 O -2.98034 7.97555 54.0769 -1.2 -9.04 -4.23267e+06 -4.68597e+06 -5.15415e+06 -1.74878e+06 2109.39 -737686
56 3 O -0.423662 8.10015 53.9408 -1.2 -8.70347 -2.0276e+06 -3.30715e+06 -4.92057e+06 2.01579e+06 -98500.6 54722.4
57 1 Mg -3.0877 16.3096 57.4321 1.2 -8.25125 -173616 -1.85973e+06 4.74663e+06 -1.01916e+06 -1.95528e+06 158937
58 1 Mg -1.6714 16.3544 49.8412 1.2 -8.59361 929233 1.38015e+06 3.02696e+06 -205466 366063 443565
59 2 Si -1.18567 13.8526 47.9314 2.4 -34.6086 9.03042e+06 5.22789e+06 1.14239e+07 511416 2.26319e+06 -492596
60 3 O -1.09664 15.4205 47.9915 -1.2 -8.60126 -2.63633e+06 -3.34456e+06 -3.76701e+06 423874 -1.94158e+06 36323.1
61 3 O -1.73493 12.7491 51.7772 -1.2 -9.02446 -2.86758e+06 -581174 -6.71144e+06 -219882 1.06284e+06 -1.50158e+06
62 3 O -2.36115 13.2717 48.8238 -1.2 -8.65889 -1.38545e+06 -2.55625e+06 -4.37134e+06 -139688 -329356 -1.24537e+06
63 1 Mg -0.159928 11.7639 46.8533 1.2 -7.14053 2.30925e+06 -930698 1.57311e+06 1.12723e+06 1.57952e+06 -918364
64 3 O 0.2623 13.1866 48.413 -1.2 -8.56779 -1.87681e+06 -647389 -3.12615e+06 -180471 -317211 800087
65 1 Mg 1.39045 11.7485 54.6231 1.2 -8.84421 3.35826e+06 746560 634692 443469 -660139 966718
66 2 Si 1.33786 14.4999 56.3003 2.4 -34.2625 9.31123e+06 6.25881e+06 1.03882e+07 628454 -525987 443234
67 3 O 1.16534 12.885 56.3163 -1.2 -8.85032 -3.59033e+06 -775996 -4.17845e+06 167982 -528740 -486976
68 3 O 1.36565 15.4813 52.729 -1.2 -9.14258 -2.81031e+06 -86339.7 -5.788e+06 48046.6 -144920 -55688.7
69 3 O 0.0759104 15.1678 55.5955 -1.2 -8.48924 -3.26706e+06 -2.90853e+06 -5.01364e+06 249281 -647941 -842686
70 3 O 2.6821 15.0902 55.682 -1.2 -8.324 -3.07197e+06 -2.9117e+06 -4.10194e+06 1.23461e+06 38860.7 -794128
71 1 Mg -0.206989 14.1049 52.2121 1.2 -8.11639 12545.4 -2.16154e+06 5.22318e+06 -1.41446e+06 2.1862e+06 865161
72 1 Mg 1.82591 13.8102 49.4556 1.2 -8.01102 2.46666e+06 -189670 1.1058e+06 103494 -135808 197807
73 2 Si 1.29285 16.1518 51.2434 2.4 -33.0971 8.46355e+06 3.36674e+06 1.17253e+07 296161 -127887 -742653
74 3 O 1.39496 17.7199 51.3047 -1.2 -9.88459 -3.29493e+06 -1.39316e+06 -3.66192e+06 479050 -490209 576032
75 3 O 1.34739 15.1405 57.7395 -1.2 -8.98066 -4.41542e+06 -2.21808e+06 -7.02672e+06 -830563 1.26514e+06 8297.75
76 3 O -0.0269106 15.5178 50.6688 -1.2 -8.74392 -3.29312e+06 -1.61346e+06 -5.93852e+06 1.24678e+06 -512263 -68930.6
77 1 Mg -3.18391 14.1057 52.3125 1.2 -7.89337 596840 -1.57353e+06 5.28023e+06 1.4222e+06 -1.55939e+06 353080
78 3 O 2.52432 15.503 50.4579 -1.2 -9.27565 -3.27261e+06 -1.40792e+06 -2.86967e+06 -407729 878054 50294.6
79 1 Mg -1.56103 14.0784 55.0182 1.2 -8.89613 3.77023e+06 1.12728e+06 818120 -110463 -728410 -456236
80 2 Si -1.52276 11.968 53.1737 2.4 -33.3466 1.02188e+07 5.46628e+06 1.29539e+07 -26433 779941 38691.1
81 3 O -1.70299 10.3598 53.1609 -1.2 -9.44534 -4.26646e+06 -1.71421e+06 -5.56175e+06 2.12512e+06 282734 -1.09644e+06
82 3 O -1.21337 13.3381 46.4311 -1.2 -7.57743 -3.19165e+06 -1.39878e+06 -3.64058e+06 -632458 -1.45316e+06 1.05694e+06
83 3 O -2.74325 12.6855 53.9903 -1.2 -8.48258 -1.97472e+06 -1.817e+06 -5.11216e+06 -1.11484e+06 552943 190678
84 3 O -0.16572 12.676 53.8072 -1.2 -8.61194 -3.18136e+06 -1.76163e+06 -4.12171e+06 2.12559e+06 449116 417756
85 1 Mg -3.04891 21.1749 57.583 1.2 -8.09926 -253984 -2.51348e+06 5.22333e+06 -2.00953e+06 -1.66283e+06 -1.60289e+06
86 1 Mg -1.5831 21.1217 49.8405 1.2 -8.54714 927502 1.30799e+06 2.98313e+06 -184771 226336 180654
87 2 Si -1.09384 18.6291 47.9287 2.4 -34.566 8.88764e+06 5.3897e+06 1.1396e+07 487692 2.32442e+06 -933533
88 3 O -1.02071 20.1985 47.9911 -1.2 -8.62014 -2.67073e+06 -3.48926e+06 -3.73911e+06 456444 -1.92816e+06 212837
89 3 O -1.65002 17.5002 51.771 -1.2 -9.0277 -1.30311e+06 -849991 -4.1992e+06 988807 -183918 -1.42543e+06
90 3 O -2.26174 18.0434 48.8281 -1.2 -8.69131 -1.2725e+06 -2.68824e+06 -4.40493e+06 864.568 -416827 -953103
91 1 Mg -0.0440435 16.5651 46.8269 1.2 -7.1143 2.19305e+06 -1.00533e+06 1.7061e+06 1.13241e+06 1.57342e+06 -963513
92 3 O 0.37001 17.9877 48.3925 -1.2 -8.5842 -1.83686e+06 -823178 -3.08084e+06 -296006 -295521 1.03595e+06
93 1 Mg 1.26959 16.874 54.4537 1.2 -8.44259 652741 1.44231e+06 908908 815834 -33371.9 1.04161e+06
94 2 Si 1.53655 19.218 56.4373 2.4 -34.6293 9.32127e+06 3.63401e+06 1.10008e+07 -329284 136198 -1.13888e+06
95 3 O 1.43607 17.6664 56.3818 -1.2 -8.73435 -5.37578e+06 -1.6986e+06 -4.571e+06 -118807 347909 -491694
96 3 O 1.45147 20.239 52.7294 -1.2 -9.14165 -3.35292e+06 -470329 -5.49865e+06 172417 -550188 -234879
97 3 O 0.298571 19.9369 55.6956 -1.2 -8.61132 -4.18793e+06 -2.60272e+06 -3.27606e+06 -903762 -623730 403275
98 3 O 2.79788 19.883 55.8709 -1.2 -8.23255 -5.12763e+06 -2.96673e+06 -5.85477e+06 -59205.5 1.87086e+06 732306
99 1 Mg -0.126194 18.8651 52.2079 1.2 -7.75596 44922.2 -1.20289e+06 5.73025e+06 -831672 1.26352e+06 753581
100 1 Mg 1.92402 18.5815 49.4545 1.2 -7.93833 2.40939e+06 -175102 936531 122149 -126463 -21431.6
101 2 Si 1.38106 20.9117 51.2443 2.4 -33.1797 8.3245e+06 2.88951e+06 1.25023e+07 169475 571885 -667814
102 3 O 1.48527 22.4795 51.3054 -1.2 -9.75993 -3.1384e+06 -1.39455e+06 -4.37369e+06 744868 -321596 1.24005e+06
103 3 O 1.5813 19.8106 57.9307 -1.2 -8.56312 -5.28003e+06 -2.21817e+06 -7.39954e+06 -934273 1.48814e+06 1.58022e+06
104 3 O 0.0615419 20.2804 50.6669 -1.2 -8.88368 -3.24731e+06 -1.60663e+06 -5.49568e+06 1.14164e+06 -770745 -49376.4
105 1 Mg -3.09665 18.8643 52.3122 1.2 -7.66705 -139034 -2.04684e+06 5.26786e+06 1.50345e+06 -1.36632e+06 1.18182e+06
106 3 O 2.61548 20.2646 50.4626 -1.2 -9.2924 -3.03627e+06 -1.32813e+06 -3.28298e+06 -343188 809677 -18728.9
107 1 Mg -1.43591 18.8886 55.0752 1.2 -9.03155 3.1158e+06 353408 785121 151934 147452 -1.93455e+06
108 2 Si -1.74303 16.788 53.3278 2.4 -33.0606 6.97045e+06 5.99707e+06 1.51599e+07 -54113.2 -274325 -235592
109 3 O -1.58178 15.2198 53.2063 -1.2 -9.43985 -3.54704e+06 204691 -5.81261e+06 -879973 341841 573644
110 3 O -1.12868 18.1227 46.4249 -1.2 -7.60923 -3.08483e+06 -1.44983e+06 -3.64077e+06 -603527 -1.49698e+06 1.17437e+06
111 3 O -2.90345 17.6042 53.9775 -1.2 -9.13247 -4.58242e+06 -2.04013e+06 -6.01768e+06 -1.41763e+06 472877 724255
112 3 O -0.434088 17.5625 54.0521 -1.2 -8.73778 -4.32151e+06 -3.61151e+06 -4.94802e+06 3.07344e+06 -49130.1 566974
113 1 Mg -2.89484 25.9875 57.7369 1.2 -7.28586 -217976 -972211 4.88937e+06 -933116 -1.78898e+06 -70803.9
114 1 Mg -1.48778 25.88 49.8402 1.2 -8.43903 771097 1.75712e+06 2.5179e+06 -189614 216069 -5655.23
115 2 Si -1.00491 23.3922 47.9274 2.4 -34.4687 8.75549e+06 5.69415e+06 1.10784e+07 491921 2.32557e+06 -1.30064e+06
116 3 O -0.927602 24.9615 47.9909 -1.2 -8.68219 -2.58835e+06 -3.76884e+06 -3.50495e+06 457608 -1.92693e+06 357292
117 3 O -1.55795 22.2588 51.7696 -1.2 -9.1203 -2.4001e+06 -1.80189e+06 -5.20843e+06 198922 -340571 165833
118 3 O -2.17411 22.8111 48.8277 -1.2 -8.73194 -1.2105e+06 -2.87215e+06 -4.2439e+06 3411.8 -370733 -750231
119 1 Mg 0.0423997 21.3296 46.8225 1.2 -7.07038 2.15164e+06 -953164 1.63816e+06 1.12699e+06 1.58664e+06 -1.10403e+06
120 3 O 0.458537 22.7495 48.3911 -1.2 -8.62699 -1.77193e+06 -953212 -2.94764e+06 -292922 -322116 1.23886e+06
121 1 Mg 1.395 21.2991 54.6269 1.2 -8.61376 3.23659e+06 232716 1.97321e+06 -210104 124312 534179
122 2 Si 1.5879 23.9645 56.435 2.4 -33.043 8.55956e+06 5.32108e+06 1.08807e+07 1.21541e+06 -1.9453e+06 84402.1
123 3 O 1.45056 22.3804 56.5369 -1.2 -9.3094 -3.92901e+06 -972005 -3.55893e+06 1.2374e+06 106343 -740088
124 3 O 1.54441 24.9963 52.7297 -1.2 -9.3454 -2.90973e+06 -1.50898e+06 -4.32585e+06 331145 40928.2 19723.1
125 3 O 0.375301 24.6162 55.8015 -1.2 -9.28989 -3.20146e+06 -3.35294e+06 -5.3801e+06 290336 -930314 1.04681e+06
126 3 O 2.95071 24.6665 55.8867 -1.2 -9.15635 -1.42516e+06 -2.14662e+06 -2.14663e+06 1.14205e+06 -505637 311844
127 1 Mg -0.0335968 23.6229 52.2067 1.2 -7.73828 -571658 -1.28907e+06 4.58595e+06 -1.25171e+06 2.20461e+06 119349
128 1 Mg 2.01073 23.3445 49.4541 1.2 -7.9023 2.31062e+06 -14600.8 826666 117980 -157260 -345705
129 2 Si 1.47594 25.6699 51.2449 2.4 -32.8979 7.79491e+06 4.18073e+06 1.13135e+07 328525 389203 -949058
130 3 O 1.58172 27.2371 51.3054 -1.2 -9.94343 -2.82418e+06 -2.01489e+06 -3.78239e+06 741162 -420941 1.0226e+06
131 3 O 1.49676 24.5753 58.0281 -1.2 -9.12595 -3.37804e+06 -1.96213e+06 -3.64854e+06 472799 -96516.7 1.37601e+06
132 3 O 0.157925 25.0378 50.6651 -1.2 -8.9375 -3.30316e+06 -2.01106e+06 -5.46263e+06 1.08066e+06 -526848 338591
133 1 Mg -3.00341 23.6231 52.3098 1.2 -7.49095 -474254 -1.24321e+06 4.47243e+06 1.82764e+06 -2.07739e+06 -27649.4
134 3 O 2.71149 25.0232 50.4656 -1.2 -9.36578 -3.01968e+06 -1.79732e+06 -2.98167e+06 -310388 714447 220385
135 1 Mg -1.35779 23.6648 55.0262 1.2 -8.1731 2.72403e+06 1.35634e+06 1.87288e+06 123937 -273992 -1.89225e+06
136 2 Si -1.55017 21.6454 53.2885 2.4 -33.2755 7.04711e+06 3.13384e+06 1.3441e+07 923983 -874736 -2.57188e+06
137 3 O -1.6011 20.0623 53.2955 -1.2 -9.13792 -3.55347e+06 -592870 -5.01914e+06 376326 662807 1.3647e+06
138 3 O -1.03938 22.8897 46.4223 -1.2 -7.65856 -2.99636e+06 -1.58436e+06 -3.51374e+06 -606296 -1.50232e+06 1.31036e+06
139 3 O -2.81096 22.2557 53.9927 -1.2 -9.1377 -1.8023e+06 -2.47469e+06 -4.72485e+06 258436 150976 563706
140 3 O -0.241604 22.3264 53.882 -1.2 -9.35373 -2.72498e+06 -2.19847e+06 -5.10636e+06 417736 -546590 975748
141 1 Mg -2.67175 30.6494 57.2512 1.2 -7.21778 -708094 -1.8199e+06 5.24862e+06 -499568 -1.78759e+06 -867858
142 1 Mg -1.38776 30.6357 49.8391 1.2 -8.37161 664798 1.77535e+06 2.48251e+06 -194418 345047 209297
143 2 Si -0.907929 28.1491 47.9262 2.4 -34.2985 8.48649e+06 6.2294e+06 1.05428e+07 498301 2.34095e+06 -1.14044e+06
144 3 O -0.829229 29.7184 47.99 -1.2 -8.75639 -2.4665e+06 -3.95687e+06 -3.35542e+06 457488 -1.94083e+06 221228
145 3 O -1.45946 27.0152 51.769 -1.2 -9.26623 -2.14888e+06 -3.31514e+06 -6.88664e+06 425132 -391768 602393
146 3 O -2.07744 27.5697 48.8273 -1.2 -8.83465 -1.05319e+06 -3.22241e+06 -3.89048e+06 2225.77 -362714 -848923
147 1 Mg 0.137907 26.087 46.819 1.2 -6.99994 2.04286e+06 -718557 1.40698e+06 1.12565e+06 1.58989e+06 -1.16026e+06
148 3 O 0.55579 27.5065 48.3893 -1.2 -8.71765 -1.61454e+06 -1.28139e+06 -2.62447e+06 -290522 -325352 1.17455e+06
149 1 Mg 1.63348 26.0883 54.6864 1.2 -7.72745 3.10433e+06 336067 2.18285e+06 105581 558721 -468191
150 2 Si 1.679 28.5332 56.4341 2.4 -31.1992 6.93785e+06 4.94593e+06 1.31846e+07 -1.19751e+06 -201243 -537808
151 3 O 1.57399 27.0192 56.6259 -1.2 -10.4697 -2.94429e+06 -2.97647e+06 -4.50687e+06 -223001 1.271e+06 -1.01951e+06
152 3 O 1.6432 29.7522 52.7291 -1.2 -9.39582 -2.82943e+06 -1.5933e+06 -4.0992e+06 415844 -468824 -539520
153 3 O 0.278122 29.3492 55.8677 -1.2 -9.77662 286153 188792 -4.10985e+06 -1.91726e+06 -127726 -105160
154 3 O 2.89006 29.3139 55.739 -1.2 -9.93116 -136289 -1.74342e+06 -5.71444e+06 1.58664e+06 723050 -1.05939e+06
155 1 Mg 0.0647462 28.3794 52.2059 1.2 -7.5989 -842992 -707380 4.28181e+06 -1.19973e+06 1.77823e+06 415543
156 1 Mg 2.10696 28.1021 49.4531 1.2 -7.79167 2.13416e+06 304346 514355 96374.6 -174661 -190590
157 2 Si 1.57592 30.4257 51.2442 2.4 -32.8066 7.61445e+06 4.16586e+06 1.13103e+07 295886 43094 -260763
158 3 O 1.68288 31.9926 51.3043 -1.2 -9.96675 -2.71322e+06 -1.83289e+06 -4.07463e+06 557253 -337571 879228
159 3 O 1.7649 29.2671 57.9766 -1.2 -9.38923 -2.00471e+06 -2.0513e+06 -5.88627e+06 -53180.4 -71622.2 2.63367e+06
160 3 O 0.258524 29.7935 50.6632 -1.2 -8.972 -2.97441e+06 -2.12773e+06 -5.55212e+06 1.14614e+06 -501810 -60161.1
161 1 Mg -2.90462 28.3797 52.308 1.2 -7.40529 -379577 -1.04342e+06 4.3906e+06 1.84262e+06 -1.50651e+06 488110
162 3 O 2.81205 29.7787 50.4664 -1.2 -9.49374 -2.91982e+06 -1.92626e+06 -2.592e+06 -299631 899153 -42287.6
163 1 Mg -1.26999 28.3643 55.1781 1.2 -7.77835 363889 1.97786e+06 1.16571e+06 -136364 -341480 -1.5726e+06
164 2 Si -1.40019 26.3528 53.1969 2.4 -32.8502 5.16916e+06 3.52013e+06 1.14641e+07 -1.67505e+06 -1.50227e+06 -841300
165 3 O -1.48229 24.8112 53.0803 -1.2 -9.749 -3.01996e+06 -2.33619e+06 -5.20777e+06 -224200 297205 1.10337e+06
166 3 O -0.943026 27.648 46.4208 -1.2 -7.7316 -2.87768e+06 -1.81633e+06 -3.29182e+06 -605560 -1.50696e+06 1.29374e+06
167 3 O -2.70146 27.1038 53.9811 -1.2 -9.28661 -469948 -2.20353e+06 -3.56239e+06 -819567 -507002 1.08655e+06
168 3 O -0.191192 26.9225 53.8652 -1.2 -9.536 -4.22218e+06 -3.78112e+06 -4.36723e+06 277552 -997820 473510
169 1 Mg -2.50459 35.642 57.4997 1.2 -7.05474 -2.12671e+06 -1.57726e+06 4.75343e+06 -1.22446e+06 -1.11549e+06 -2.03813e+06
170 1 Mg -1.28421 35.3899 49.8376 1.2 -8.30312 517952 2.07615e+06 2.20755e+06 -202599 96755.5 536307
171 2 Si -0.807101 32.9036 47.9247 2.4 -34.1638 8.28035e+06 6.4883e+06 1.02756e+07 470320 2.32935e+06 -1.02102e+06
172 3 O -0.727174 34.4729 47.9885 -1.2 -8.81831 -2.38501e+06 -4.12711e+06 -3.18329e+06 471178 -1.91356e+06 99649.4
173 3 O -1.35735 31.7701 51.768 -1.2 -9.38199 -1.86989e+06 -3.03717e+06 -5.47559e+06 795189 -573187 -454670
174 3 O -1.97695 32.3253 48.826 -1.2 -8.90342 -942570 -3.32605e+06 -3.80008e+06 33372.1 -370113 -917931
175 1 Mg 0.237665 30.8412 46.8168 1.2 -6.93151 1.93166e+06 -578722 1.27229e+06 1.12409e+06 1.59037e+06 -1.06884e+06
176 3 O 0.656562 32.2608 48.3877 -1.2 -8.78456 -1.50182e+06 -1.38152e+06 -2.53193e+06 -301018 -320441 1.12883e+06
177 1 Mg 1.58769 30.8179 54.704 1.2 -7.85445 2.33072e+06 1.15442e+06 2.52429e+06 160972 -122826 588353
178 2 Si 1.96309 33.5254 56.497 2.4 -32.1498 2.68152e+06 4.99383e+06 1.38286e+07 -928459 1.38273e+06 -1.42067e+06
179 3 O 1.84564 31.8978 56.6172 -1.2 -10.0488 -1.18003e+06 1.33096e+06 -5.41545e+06 749026 213713 -321041
180 3 O 1.74574 34.5067 52.7279 -1.2 -9.69254 -1.66938e+06 -2.08992e+06 -4.5768e+06 -47295.4 -178452 21939
181 3 O 0.622544 34.2193 55.8296 -1.2 -9.60721 -742818 -1.86134e+06 -3.37403e+06 -1.34422e+06 -362641 59806.6
182 3 O 3.11304 34.201 55.848 -1.2 -9.86356 -4.39702e+06 -2.3843e+06 -6.38847e+06 5098.88 2.14048e+06 557588
183 1 Mg 0.167046 33.1343 52.2045 1.2 -7.51461 -793115 -1.48856e+06 4.86556e+06 -940959 1.92189e+06 -69720
184 1 Mg 2.20727 32.8578 49.4516 1.2 -7.71784 2.00347e+06 396787 444637 151963 -169051 -159128
185 2 Si 1.67943 35.1802 51.2429 2.4 -32.4209 6.95788e+06 5.17576e+06 1.02968e+07 461751 934027 -395624
186 3 O 1.78736 36.747 51.303 -1.2 -10.0238 -2.93637e+06 -2.02923e+06 -3.53067e+06 879686 -606904 472057
187 3 O 1.96596 34.132 58.0001 -1.2 -9.49193 -2.19699e+06 -1.66923e+06 -6.7959e+06 96973.1 -193005 1.74545e+06
188 3 O 0.362533 34.5479 50.661 -1.2 -9.23326 -2.8828e+06 -2.58078e+06 -4.42368e+06 1.16509e+06 -911177 177445
189 1 Mg -2.80215 33.1347 52.3062 1.2 -7.38359 -862062 -1.69206e+06 4.51356e+06 1.76239e+06 -1.84111e+06 378082
190 3 O 2.91593 34.533 50.466 -1.2 -9.55717 -2.47733e+06 -2.36294e+06 -2.51948e+06 -405077 850030 -143138
191 1 Mg -1.1204 33.2498 55.3821 1.2 -7.59066 1.09921e+06 578252 964716 -213087 391055 163756
192 2 Si -1.39435 31.1563 53.2448 2.4 -32.7711 7.58838e+06 6.49648e+06 1.14507e+07 -506773 -796437 462397
193 3 O -1.28248 29.5591 53.1727 -1.2 -9.6274 -2.62513e+06 -741185 -4.31825e+06 -1.07413e+06 663814 1.01589e+06
194 3 O -0.842495 32.4028 46.4192 -1.2 -7.79488 -2.77538e+06 -1.94514e+06 -3.16568e+06 -603366 -1.507e+06 1.21096e+06
195 3 O -2.67179 31.8371 53.9832 -1.2 -9.3724 -1.14847e+06 -2.00576e+06 -2.40978e+06 -1.28889e+06 -136069 823925
196 3 O -0.0660715 31.7793 53.9398 -1.2 -9.25226 -1.05551e+06 -3.09605e+06 -2.87626e+06 1.11542e+06 -219506 508823
197 1 Mg -2.48751 40.3203 57.4001 1.2 -7.07465 -2.11147e+06 -1.24088e+06 5.71889e+06 -244979 -1.23981e+06 -125641
198 1 Mg -1.17787 40.1435 49.8359 1.2 -8.38202 677674 1.70411e+06 2.54953e+06 -171749 241312 503710
199 2 Si -0.702692 37.6572 47.9231 2.4 -34.1342 8.2375e+06 6.38644e+06 1.03698e+07 499894 2.29593e+06 -626822
200 3 O -0.621782 39.2264 47.9868 -1.2 -8.82269 -2.37237e+06 -3.97805e+06 -3.34446e+06 458452 -1.92237e+06 23671
201 3 O -1.25221 36.5242 51.7666 -1.2 -9.19919 -1.57655e+06 -547417 -3.95918e+06 -20241.4 1.25619e+06 -1.93176e+06
202 3 O -1.87295 37.0796 48.8243 -1.2 -8.90287 -879926 -3.33261e+06 -3.87089e+06 9270.13 -345131 -1.16177e+06
203 1 Mg 0.341084 35.5943 46.8152 1.2 -6.88226 1.86651e+06 -496866 1.17862e+06 1.122e+06 1.58939e+06 -917854
204 3 O 0.760681 37.0138 48.3864 -1.2 -8.80644 -1.50701e+06 -1.3946e+06 -2.48094e+06 -290419 -322498 870629
205 1 Mg 1.90818 35.6568 54.5571 1.2 -7.72841 653826 2.08971e+06 1.69504e+06 -6438.76 118173 12057.7
206 2 Si 1.74022 38.1733 56.5299 2.4 -31.6681 5.17756e+06 3.22246e+06 1.3423e+07 1.5249e+06 -35256.5 -1.97119e+06
207 3 O 1.78769 36.6726 56.5608 -1.2 -10.4375 -2.40098e+06 -4.49271e+06 -4.85801e+06 -1.20262e+06 123854 12837.6
208 3 O 1.85132 39.2606 52.7264 -1.2 -9.14883 -2.68091e+06 -2.24858e+06 -4.81683e+06 -723796 -1.01096e+06 -704896
209 3 O 0.54105 38.9341 55.8261 -1.2 -9.84857 -4.56016e+06 -2.1688e+06 -3.83141e+06 -1.71875e+06 -183012 -98263.4
210 3 O 3.04316 38.967 55.738 -1.2 -9.06075 237565 -1.38074e+06 -3.41576e+06 2.14471e+06 -319922 -570861
211 1 Mg 0.272384 37.8883 52.2029 1.2 -7.58866 -122758 -1.14122e+06 4.68878e+06 -885201 1.72792e+06 723049
212 1 Mg 2.31122 37.6122 49.4501 1.2 -7.73767 2.03937e+06 364807 480911 77772 -105680 131204
213 2 Si 1.78573 39.934 51.2414 2.4 -32.996 7.80834e+06 4.07526e+06 1.1553e+07 379605 724831 192755
214 3 O 1.89428 41.5006 51.3014 -1.2 -9.81968 -3.21085e+06 -1.66513e+06 -4.62273e+06 870647 -923466 1.06839e+06
215 3 O 1.86246 38.7948 58.0247 -1.2 -10.0029 -996991 -1.92019e+06 -6.54744e+06 29219.9 -316484 1.58061e+06
216 3 O 0.469216 39.3015 50.6588 -1.2 -9.02447 -3.02988e+06 -2.19784e+06 -5.03648e+06 1.21314e+06 -815811 -325269
217 1 Mg -2.69668 37.8889 52.3043 1.2 -7.55848 -430922 -567992 4.59697e+06 1.16122e+06 -1.44968e+06 730975
218 3 O 3.0225 39.2866 50.4651 -1.2 -9.45319 -2.74603e+06 -2.06196e+06 -2.68784e+06 -319935 970582 -379738
219 1 Mg -1.02001 38.0107 55.2374 1.2 -7.77459 881611 579592 1.58196e+06 -735366 -983730 -1.19819e+06
220 2 Si -1.12662 35.7654 53.3192 2.4 -31.8587 6.4875e+06 8.84199e+06 1.23329e+07 101125 941633 -1.06409e+06
221 3 O -1.27244 34.1424 53.2386 -1.2 -10.0227 -2.60731e+06 -667636 -3.31094e+06 1.2289e+06 550733 1.29195e+06
222 3 O -0.738054 37.1566 46.4176 -1.2 -7.83326 -2.71469e+06 -1.9478e+06 -3.16674e+06 -606523 -1.50107e+06 1.07674e+06
223 3 O -2.40117 36.5248 53.9403 -1.2 -9.46133 -1.49585e+06 -2.27576e+06 -4.78306e+06 -1.63316e+06 1.07408e+06 819204
224 3 O 0.12186 36.5579 53.9569 -1.2 -9.76904 -1.83024e+06 -1.42668e+06 -2.5839e+06 1.91686e+06 -138256 1.4646e+06
225 1 Mg -2.44465 45.0554 57.2775 1.2 -6.85986 -1.29745e+06 -2.00422e+06 3.77815e+06 -891860 -1.82208e+06 -657453
226 1 Mg -1.06993 44.8968 49.8343 1.2 -8.10819 144239 2.28284e+06 2.0624e+06 -189968 153869 707541
227 2 Si -0.596166 42.4103 47.9215 2.4 -33.9486 7.93084e+06 6.57898e+06 1.0193e+07 483214 2.31705e+06 -1.05104e+06
228 3 O -0.51472 43.9796 47.9853 -1.2 -8.97625 -2.12167e+06 -4.27017e+06 -3.05132e+06 468760 -1.9148e+06 113653
229 3 O -1.14475 41.2777 51.7649 -1.2 -8.93745 -2.938e+06 -1.20613e+06 -4.25698e+06 225332 -25328.6 -997735
230 3 O -1.76671 41.8331 48.8226 -1.2 -8.9675 -810805 -3.31934e+06 -3.83363e+06 18604 -368542 -895256
231 1 Mg 0.447076 40.3473 46.8135 1.2 -6.83833 1.7911e+06 -568022 1.25457e+06 1.12333e+06 1.58954e+06 -965706
232 3 O 0.866985 41.7666 48.385 -1.2 -8.86628 -1.38405e+06 -1.37351e+06 -2.51733e+06 -291688 -314217 1.11681e+06
233 1 Mg 1.76943 40.4183 54.6323 1.2 -8.24122 846899 1.15482e+06 1.83376e+06 -824596 138443 224791
234 2 Si 2.02134 42.9504 56.3907 2.4 -31.5486 6.49345e+06 5.40999e+06 1.04235e+07 -172931 981110 829019
235 3 O 1.98142 41.3725 56.4653 -1.2 -10.2965 -2.46848e+06 -1.40087e+06 -4.27363e+06 1.34248e+06 -104569 -1.19967e+06
236 3 O 1.95891 44.014 52.7248 -1.2 -10.0706 -1.28199e+06 -3.67897e+06 -5.66701e+06 394355 705883 -1.33812e+06
237 3 O 0.73322 43.5723 55.6212 -1.2 -9.50615 351455 -2.97404e+06 -4.80232e+06 -1.79177e+06 -802177 -1.0256e+06
238 3 O 3.35538 43.6257 55.7447 -1.2 -10.0149 -3.11075e+06 -4.04583e+06 -5.22932e+06 2.52634e+06 1.21675e+06 -926534
239 1 Mg 0.379928 42.6418 52.2013 1.2 -7.484 -1.20568e+06 -1.19302e+06 4.54651e+06 -680635 2.11974e+06 148743
240 1 Mg 2.41752 42.366 49.4484 1.2 -7.6442 1.90688e+06 448484 388922 114386 -157527 -248478
241 2 Si 1.89374 44.6874 51.2398 2.4 -31.9091 6.27753e+06 5.78665e+06 9.59769e+06 352743 247385 416668
242 3 O 2.00266 46.254 51.2996 -1.2 -10.3042 -2.66524e+06 -1.86057e+06 -3.6897e+06 892960 158110 223820
243 3 O 1.99322 43.7911 57.7168 -1.2 -10.1244 -2.72046e+06 -1.91358e+06 -7.86677e+06 -18922.6 857898 203762
244 3 O 0.577464 44.0549 50.6567 -1.2 -9.40759 -2.49089e+06 -2.92819e+06 -4.26299e+06 1.20426e+06 -856114 10391.7
245 1 Mg -2.58906 42.6425 52.3022 1.2 -7.19623 -476599 -922490 3.17541e+06 1.8972e+06 -1.91879e+06 547839
246 3 O 3.13067 44.0398 50.464 -1.2 -9.76163 -2.27019e+06 -2.7055e+06 -1.96061e+06 -449928 877316 -288399
247 1 Mg -1.06413 42.832 54.9963 1.2 -7.57975 -119181 -339814 -36782.3 592491 560731 -181477
248 2 Si -1.18828 40.5705 53.3244 2.4 -32.5374 9.68377e+06 2.92314e+06 1.2052e+07 766689 -383069 -1.30057e+06
249 3 O -1.11377 39.0771 53.2786 -1.2 -9.82815 -3.60154e+06 -3.57288e+06 -3.47685e+06 101062 599323 1.33512e+06
250 3 O -0.631421 41.9099 46.4159 -1.2 -7.91156 -2.58861e+06 -1.99568e+06 -3.1174e+06 -604782 -1.50422e+06 1.19013e+06
251 3 O -2.61849 41.2461 53.774 -1.2 -9.32129 -968165 -2.41579e+06 -5.62447e+06 -1.92858e+06 442125 467923
252 3 O 0.0783761 41.3681 53.9246 -1.2 -9.43446 -348874 -3.73025e+06 -5.109e+06 1.11063e+06 -1.29049e+06 -185478
253 1 Mg -2.28667 49.5085 57.2656 1.2 -6.56357 -2.25345e+06 -2.60825e+06 3.16256e+06 -2.41397e+06 -1.74428e+06 -684956
254 1 Mg -0.961069 49.6502 49.8327 1.2 -7.90091 -88350.9 2.20888e+06 2.04267e+06 -197592 284090 585943
255 2 Si -0.488083 47.1636 47.9198 2.4 -33.6027 7.34931e+06 6.87707e+06 9.92189e+06 500835 2.30513e+06 -612681
256 3 O -0.40607 48.7329 47.9837 -1.2 -9.1425 -1.84701e+06 -4.32072e+06 -3.00359e+06 457802 -1.92799e+06 -42078.2
257 3 O -1.0361 46.031 51.7632 -1.2 -9.28116 -640169 -1.066e+06 -4.06466e+06 -309043 768071 -2.07787e+06
258 3 O -1.65866 46.5866 48.821 -1.2 -9.1654 -450618 -3.51449e+06 -3.68685e+06 6386.65 -387550 -1.19249e+06
259 1 Mg 0.554124 45.1001 46.8117 1.2 -6.6936 1.56191e+06 -322159 1.00684e+06 1.12136e+06 1.5851e+06 -934472
260 3 O 0.974961 46.5195 48.3832 -1.2 -9.05966 -1.08932e+06 -1.59203e+06 -2.27876e+06 -286550 -293380 856342
261 1 Mg 2.38861 44.9313 54.4052 1.2 -7.3437 336971 1.33043e+06 -57946 -516253 626235 756812
262 2 Si 2.2775 47.7087 56.2529 2.4 -31.2425 4.88902e+06 4.01573e+06 1.20206e+07 -671595 -1.41628e+06 885534
263 3 O 2.19002 46.2029 56.3034 -1.2 -10.3258 -2.60718e+06 -3.36118e+06 -5.34895e+06 801551 -357067 269766
264 3 O 2.0677 48.7672 52.7232 -1.2 -9.98719 -2.15009e+06 -2.45399e+06 -5.57978e+06 -191520 213948 -1.29556e+06
265 3 O 1.00493 48.4283 55.5635 -1.2 -9.87073 -1.01753e+06 -3.92511e+06 -6.78393e+06 -1.33423e+06 -459531 -875019
266 3 O 3.57827 48.4189 55.641 -1.2 -10.0584 -1.97055e+06 -4.24737e+06 -4.94069e+06 1.93181e+06 334372 -1.29103e+06
267 1 Mg 0.488584 47.395 52.1996 1.2 -7.36956 -1.30148e+06 -1.50795e+06 4.38097e+06 -847561 2.08587e+06 855560
268 1 Mg 2.52544 47.1195 49.4466 1.2 -7.427 1.63838e+06 525473 235079 77039.4 -132815 159740
269 2 Si 2.00256 49.4407 51.2382 2.4 -31.684 5.92587e+06 5.15546e+06 1.02611e+07 480707 157678 454813
270 3 O 2.11156 51.0073 51.2982 -1.2 -10.5161 -1.99325e+06 -2.20829e+06 -3.82623e+06 684091 -540572 200560
271 3 O 2.17895 48.4373 57.748 -1.2 -10.0956 -2.15153e+06 -3.77001e+06 -4.31499e+06 -569236 -263158 1.17569e+06
272 3 O 0.686344 48.8082 50.655 -1.2 -9.48502 -2.20055e+06 -2.55016e+06 -4.94614e+06 1.06432e+06 -615849 -214581
273 1 Mg -2.48039 47.3957 52.3005 1.2 -7.04554 -440811 -730514 4.38975e+06 994442 -1.25914e+06 658825