ITEM: TIMESTEP
33900
ITEM: NUMBER OF ATOMS
10500
ITEM: BOX BOUNDS xy xz yz pp pp pp
0.0000000000000000e+00 8.9687999999999999e+00 2.9895999999999998e+00
0.0000000000000000e+00 1.1872499999999999e+02 0.0000000000000000e+00
0.0000000000000000e+00 2.5297749999999999e+02 0.0000000000000000e+00
ITEM: ATOMS id type element xu yu zu q c_pe c_s[1] c_s[2] c_s[3] c_s[4] c_s[5] c_s[6]
1 1 Mg -3.26274 6.97862 57.2405 1.2 -7.79044 -844120 -1.21029e+06 4.56731e+06 -1.64328e+06 -1.03609e+06 196044
2 1 Mg -1.82655 6.90154 50.0912 1.2 -8.46853 528324 1.72653e+06 524908 -135547 -324564 1.12432e+06
3 2 Si -0.257935 3.96038 48.0876 2.4 -36.8986 1.1407e+07 9.43443e+06 1.01321e+07 811011 1.96037e+06 1.48436e+06
4 3 O -0.335812 5.46814 47.6264 -1.2 -7.41225 -3.69351e+06 -2.9133e+06 -2.06954e+06 140643 -969577 -440189
5 3 O -2.03793 3.43377 51.8941 -1.2 -8.03102 -4.1234e+06 -2.82769e+06 -6.91494e+06 -1.38711e+06 1.21309e+06 -1.47806e+06
6 3 O -1.54015 3.53929 48.9521 -1.2 -7.84464 -2.0224e+06 -1.90753e+06 -4.04714e+06 24894.9 -695067 -116737
7 1 Mg 1.82954 2.54582 47.1376 1.2 -8.40986 3.27732e+06 -180444 428143 1.14972e+06 838617 550351
8 3 O 1.22989 3.66364 48.7877 -1.2 -7.57261 -2.38351e+06 -2.66407e+06 -3.37267e+06 -478533 -747911 -851842
9 1 Mg 1.07398 2.28779 54.5539 1.2 -8.96741 3.3406e+06 615566 1.20696e+06 -199267 -351819 901438
10 2 Si 1.01429 4.95703 56.4166 2.4 -33.5282 9.24467e+06 3.24996e+06 1.13866e+07 -316272 713811 1.67827e+06
11 3 O 1.02763 3.45813 56.4851 -1.2 -9.4077 -4.15484e+06 -4.96878e+06 -4.42146e+06 -695710 -606625 -91590.7
12 3 O 1.10813 6.07342 52.8172 -1.2 -8.8851 -4.02178e+06 -4.32097e+06 -5.66131e+06 -184548 -188499 -2.21402e+06
13 3 O -0.307682 5.70247 55.9124 -1.2 -8.86022 -2.86463e+06 -2.88955e+06 -4.6444e+06 -1.90343e+06 -572676 -7564.25
14 3 O 2.29878 5.61425 55.6514 -1.2 -8.88288 -2.37915e+06 -3.03709e+06 -5.24626e+06 1.73319e+06 924451 -411656
15 1 Mg -0.459401 4.67631 52.2426 1.2 -8.55128 279637 -1.85195e+06 4.86803e+06 -1.24376e+06 1.35302e+06 1.06798e+06
16 1 Mg 2.79456 3.9971 49.9987 1.2 -8.86319 4.28289e+06 147614 1.52867e+06 -529681 868790 -1.09182e+06
17 2 Si 1.16169 6.59457 51.2556 2.4 -33.9936 7.89842e+06 7.40915e+06 1.05631e+07 379758 661172 2.28824e+06
18 3 O 1.28989 8.18905 51.2909 -1.2 -9.34303 -3.06331e+06 -2.25363e+06 -3.29059e+06 417148 -1.10334e+06 731557
19 3 O 1.29394 5.66143 57.8741 -1.2 -9.09305 -2.74496e+06 -826303 -6.02858e+06 -19677 248308 27882.3
20 3 O -0.184847 6.06029 50.6845 -1.2 -8.46058 -3.49715e+06 -3.48507e+06 -4.68023e+06 1.36187e+06 -341012 -998031
21 1 Mg -3.49704 4.67769 52.6661 1.2 -8.18678 914471 -1.23604e+06 2.81164e+06 2.1486e+06 -1.08837e+06 755176
22 3 O 2.48581 5.93312 50.6539 -1.2 -8.95841 -3.48565e+06 -2.0125e+06 -2.72068e+06 -1.54524e+06 -612729 -622848
23 1 Mg -1.90114 4.79479 55.1915 1.2 -8.71186 1.74607e+06 1.04827e+06 1.35547e+06 201849 -668029 -406663
24 2 Si -1.84122 2.63019 53.2938 2.4 -34.9875 9.67391e+06 1.4325e+06 1.28066e+07 257719 674212 -330357
25 3 O -1.85504 1.16135 53.1267 -1.2 -8.77729 -4.75988e+06 -5.75574e+06 -5.1762e+06 2.0656e+06 -349463 396489
26 3 O -0.0467762 2.97103 46.8385 -1.2 -6.60318 -3.62296e+06 -2.4901e+06 -2.52952e+06 -990778 -2.00321e+06 -625171
27 3 O -3.16925 3.18178 54.0547 -1.2 -8.23248 -3.75346e+06 -2.65358e+06 -6.67259e+06 -821574 1.15792e+06 -296007
28 3 O -0.633104 3.40698 53.9502 -1.2 -8.36598 -4.16548e+06 -2.88478e+06 -4.88789e+06 617956 -717565 1.04573e+06
29 1 Mg -3.3377 11.6855 57.2312 1.2 -7.89825 -260708 -2.72518e+06 4.11464e+06 -1.0626e+06 -1.28347e+06 -540807
30 1 Mg -1.75014 11.5838 49.8362 1.2 -8.89728 1.54608e+06 2.35314e+06 2.06676e+06 -309124 416483 804124
31 2 Si -1.18003 9.02138 47.9309 2.4 -35.1765 9.64876e+06 8.30192e+06 8.6172e+06 243449 2.61705e+06 547111
32 3 O -1.23224 10.5991 47.9811 -1.2 -8.29776 -3.16371e+06 -4.0226e+06 -2.34991e+06 649137 -1.93351e+06 -85337.9
33 3 O -1.79016 8.01447 51.8693 -1.2 -9.17159 -3.50305e+06 -4.29325e+06 -6.11246e+06 -673.722 1.48903e+06 -724800
34 3 O -2.30986 8.37215 48.8528 -1.2 -8.62509 -1.58531e+06 -3.18805e+06 -2.68836e+06 -352203 -578810 -906712
35 1 Mg 0.154883 7.08234 46.8007 1.2 -7.90243 2.50168e+06 383692 258510 943613 1.72887e+06 -1.00583e+06
36 3 O 0.325447 8.50934 48.3809 -1.2 -8.25591 -2.00534e+06 -2.58534e+06 -2.11133e+06 -23904.3 -843935 289261
37 1 Mg 1.32364 7.08383 54.4425 1.2 -8.49216 590322 543454 -377651 -901931 232064 527617
38 2 Si 1.24993 9.67054 56.3088 2.4 -33.3186 7.84538e+06 2.1761e+06 1.38206e+07 -1.80284e+06 894772 992593
39 3 O 1.16622 8.19015 56.4334 -1.2 -9.47975 -3.47566e+06 -4.28671e+06 -5.37899e+06 -488953 -1.13075e+06 -1.06303e+06
40 3 O 1.28624 10.7248 52.7351 -1.2 -8.80081 -3.79714e+06 -1.81875e+06 -4.54114e+06 551356 -636156 -570473
41 3 O -0.125573 10.4776 55.8193 -1.2 -8.88525 -1.4308e+06 -1.4523e+06 -5.52538e+06 -742421 -110909 -850418
42 3 O 2.41674 10.3702 55.55 -1.2 -9.20535 -3.41508e+06 -2.64581e+06 -5.84948e+06 543369 417473 121860
43 1 Mg -0.262694 9.34741 52.2523 1.2 -8.00644 -183035 -609190 4.43837e+06 -1.73705e+06 1.90773e+06 1.11357e+06
44 1 Mg 1.87648 9.01537 49.4629 1.2 -8.2266 2.53511e+06 1.09285e+06 -229234 222824 -268183 404891
45 2 Si 1.21415 11.3799 51.2378 2.4 -33.9239 9.4284e+06 5.51314e+06 1.03806e+07 173570 -44350.5 591260
46 3 O 1.31634 12.9512 51.3023 -1.2 -9.34131 -3.84278e+06 -2.18823e+06 -3.40873e+06 422667 -181204 605454
47 3 O 1.34783 10.3819 57.8409 -1.2 -8.76718 -4.6145e+06 -2.2809e+06 -4.47404e+06 -189850 -763165 1.5183e+06
48 3 O -0.115718 10.7564 50.681 -1.2 -8.41309 -3.72439e+06 -2.65542e+06 -4.98916e+06 1.2061e+06 -235046 -763850
49 1 Mg -3.26386 9.35564 52.3622 1.2 -7.9128 70134.7 -897611 3.37849e+06 2.01482e+06 -1.84034e+06 1.24557e+06
50 3 O 2.45216 10.7265 50.4558 -1.2 -9.02747 -3.63838e+06 -2.18133e+06 -1.84891e+06 -744210 549446 -73914
51 1 Mg -1.77272 9.49228 55.2482 1.2 -8.20614 1.97221e+06 973319 884490 108608 -10696.9 -339044
52 2 Si -1.73006 7.41423 53.3108 2.4 -33.3221 9.22794e+06 6.32424e+06 9.64617e+06 -91344.3 1.53201e+06 922159
53 3 O -1.83081 5.82768 53.3229 -1.2 -9.03179 -4.0795e+06 -2.61465e+06 -4.98462e+06 1.78681e+06 -493918 119954
54 3 O -1.19417 8.46968 46.4488 -1.2 -7.24096 -3.36524e+06 -2.53825e+06 -2.44842e+06 -542835 -1.7427e+06 770758
55 3 O -3.104 8.01746 53.9088 -1.2 -8.92968 -3.20956e+06 -4.59934e+06 -5.30898e+06 -964506 1.48934e+06 -158485
56 3 O -0.432517 8.05328 54.0883 -1.2 -8.98023 -668699 -3.34652e+06 -2.61547e+06 955287 -141462 414764
57 1 Mg -3.05195 16.6186 57.4142 1.2 -7.73791 -167481 -2.71617e+06 4.69655e+06 -1.25076e+06 -1.46262e+06 -777991
58 1 Mg -1.6714 16.3544 49.8412 1.2 -9.00759 1.70196e+06 2.19585e+06 2.12126e+06 -174037 247641 404446
59 2 Si -1.18567 13.8526 47.9314 2.4 -35.2986 1.00964e+07 6.82709e+06 9.86654e+06 488955 2.26729e+06 -242072
60 3 O -1.09664 15.4205 47.9915 -1.2 -8.2281 -3.24369e+06 -4.11306e+06 -2.97409e+06 423702 -1.93463e+06 -115811
61 3 O -1.73493 12.7491 51.7772 -1.2 -8.68193 -3.27991e+06 -3.92552e+06 -5.2382e+06 806157 -488374 -290792
62 3 O -2.36115 13.2717 48.8238 -1.2 -8.32146 -1.93665e+06 -3.42106e+06 -3.47916e+06 -94851.9 -396358 -1.33765e+06
63 1 Mg -0.159928 11.7639 46.8533 1.2 -7.43063 2.76212e+06 -180609 834947 1.12698e+06 1.57055e+06 -775665
64 3 O 0.2623 13.1866 48.413 -1.2 -8.2323 -2.39225e+06 -1.46857e+06 -2.32e+06 -203195 -274763 730054
65 1 Mg 1.25177 11.9857 54.6111 1.2 -8.35545 1.46741e+06 1.41037e+06 1.35329e+06 -76717.9 -190126 856776
66 2 Si 1.51283 14.506 56.397 2.4 -33.8881 8.15706e+06 3.76314e+06 1.11011e+07 -958583 813708 -3.18357e+06
67 3 O 1.34312 12.9675 56.5297 -1.2 -9.59633 -4.32693e+06 -2.45802e+06 -5.12903e+06 785812 -501088 267277
68 3 O 1.36565 15.4813 52.729 -1.2 -8.59169 -4.34817e+06 -1.31363e+06 -4.80985e+06 153594 -284707 -586142
69 3 O 0.216564 15.2756 55.7242 -1.2 -8.10362 -2.55342e+06 -1.58099e+06 -3.67184e+06 -828910 -299445 666399
70 3 O 2.67843 15.16 55.5986 -1.2 -8.71364 -6.70644e+06 -2.22667e+06 -5.54317e+06 1.6421e+06 1.32786e+06 622693
71 1 Mg -0.206989 14.1049 52.2121 1.2 -8.28144 398170 -268312 4.24987e+06 -1.4255e+06 1.99156e+06 1.04803e+06
72 1 Mg 1.82591 13.8102 49.4556 1.2 -8.35673 3.09317e+06 724765 121823 166684 -141429 377876
73 2 Si 1.29285 16.1518 51.2434 2.4 -34.1884 9.86915e+06 4.82532e+06 1.07324e+07 98404.1 350505 25110.5
74 3 O 1.39496 17.7199 51.3047 -1.2 -9.23457 -3.91613e+06 -2.21317e+06 -3.62504e+06 636550 -529671 801423
75 3 O 1.61248 15.1991 57.796 -1.2 -8.97648 -2.69166e+06 -3.43297e+06 -8.01531e+06 -343292 -1.15071e+06 1.85217e+06
76 3 O -0.0269106 15.5178 50.6688 -1.2 -8.36192 -4.23028e+06 -2.36586e+06 -4.92234e+06 1.02092e+06 -506147 -274291
77 1 Mg -3.18391 14.1057 52.3125 1.2 -8.04512 13697.7 -1.4077e+06 3.27959e+06 1.4629e+06 -2.36388e+06 1.00051e+06
78 3 O 2.52432 15.503 50.4579 -1.2 -8.77357 -4.00923e+06 -2.05749e+06 -2.68699e+06 -247172 563212 -163159
79 1 Mg -1.80046 14.0966 55.0358 1.2 -8.23423 2.378e+06 1.0078e+06 870780 847625 896510 -2.24221e+06
80 2 Si -1.77374 12.0985 53.2307 2.4 -33.4933 8.69134e+06 5.10195e+06 1.074e+07 717276 238671 -365242
81 3 O -1.67896 10.5265 53.1155 -1.2 -9.18021 -4.08144e+06 -1.11802e+06 -4.7146e+06 -377034 530832 651067
82 3 O -1.21337 13.3381 46.4311 -1.2 -7.26135 -3.69174e+06 -2.13919e+06 -2.90464e+06 -630530 -1.4555e+06 891545
83 3 O -2.98542 12.7521 53.9445 -1.2 -9.42231 -3.76113e+06 -3.80419e+06 -4.5444e+06 -757748 675055 286386
84 3 O -0.396516 12.7748 53.884 -1.2 -8.90106 -931125 -2.91265e+06 -3.99956e+06 1.04562e+06 -422449 352434
85 1 Mg -2.99966 21.3354 57.3768 1.2 -7.51349 -2.2363e+06 -1.74446e+06 4.70537e+06 -2.42317e+06 -1.65674e+06 -81118.4
86 1 Mg -1.5831 21.1217 49.8405 1.2 -9.05375 1.60797e+06 2.2107e+06 2.23101e+06 -242227 147667 180152
87 2 Si -1.09384 18.6291 47.9287 2.4 -35.4148 1.02634e+07 6.83457e+06 9.93977e+06 476967 2.3263e+06 -585657
88 3 O -1.02071 20.1985 47.9911 -1.2 -8.19209 -3.3518e+06 -4.22376e+06 -2.99279e+06 466206 -1.91473e+06 97955.9
89 3 O -1.65002 17.5002 51.771 -1.2 -8.52257 -3.55574e+06 -4.49243e+06 -8.03615e+06 255301 -391638 627150
90 3 O -2.26174 18.0434 48.8281 -1.2 -8.25622 -1.9954e+06 -3.46713e+06 -3.55947e+06 -24651.8 -380133 -1.13508e+06
91 1 Mg -0.0440435 16.5651 46.8269 1.2 -7.48858 2.79651e+06 -288808 985828 1.13413e+06 1.57845e+06 -777600
92 3 O 0.37001 17.9877 48.3925 -1.2 -8.15604 -2.51854e+06 -1.55873e+06 -2.32496e+06 -280216 -324502 870719
93 1 Mg 1.41215 16.6457 54.6268 1.2 -8.95196 3.55483e+06 547109 1.20611e+06 -357216 95238.2 313879
94 2 Si 1.47632 19.2623 56.3454 2.4 -32.6283 8.05844e+06 5.8017e+06 1.14581e+07 -191230 1.14341e+06 135775
95 3 O 1.44296 17.6469 56.4688 -1.2 -9.45823 -3.58885e+06 -670857 -4.25826e+06 -317392 -392837 -420789
96 3 O 1.45147 20.239 52.7294 -1.2 -8.62159 -4.23558e+06 -1.73605e+06 -3.9716e+06 -285179 -605889 -85709
97 3 O 0.102818 19.9567 55.7563 -1.2 -9.14296 -351355 -1.42315e+06 -3.2351e+06 -1.00656e+06 490789 -218903
98 3 O 2.68227 19.8768 55.5856 -1.2 -9.35559 -3.85606e+06 -2.89397e+06 -5.45689e+06 945230 736533 -335433
99 1 Mg -0.126194 18.8651 52.2079 1.2 -8.43231 223590 -876349 4.13433e+06 -1.06125e+06 2.00732e+06 -77127.2
100 1 Mg 1.92402 18.5815 49.4545 1.2 -8.422 3.14694e+06 611435 191745 149392 -151399 69957.3
101 2 Si 1.38106 20.9117 51.2443 2.4 -34.1764 1.05033e+07 4.97399e+06 9.91962e+06 613147 820060 -580134
102 3 O 1.48527 22.4795 51.3054 -1.2 -9.41226 -4.01429e+06 -2.39286e+06 -3.11314e+06 773935 -715031 963638
103 3 O 1.57823 19.9937 57.8168 -1.2 -9.84455 -2.13625e+06 -2.05844e+06 -4.95452e+06 -729184 -904061 1.11525e+06
104 3 O 0.0615419 20.2804 50.6669 -1.2 -8.26686 -4.57141e+06 -2.39528e+06 -5.09119e+06 1.11438e+06 -203395 158992
105 1 Mg -3.09665 18.8643 52.3122 1.2 -8.18672 771476 -1.11413e+06 3.20623e+06 2.09236e+06 -2.00357e+06 764134
106 3 O 2.61548 20.2646 50.4626 -1.2 -8.73093 -4.04418e+06 -2.2209e+06 -2.47356e+06 -430401 554698 -121119
107 1 Mg -1.69791 19.001 55.1023 1.2 -8.40549 1.23247e+06 1.49973e+06 1.76397e+06 559433 1.19239e+06 -1.2052e+06
108 2 Si -1.7053 16.8666 53.1604 2.4 -34.4451 9.01379e+06 4.7186e+06 1.03483e+07 418964 79785.8 590171
109 3 O -1.79102 15.2874 53.0293 -1.2 -8.92497 -4.95973e+06 -1.27263e+06 -5.20452e+06 -382644 202459 448911
110 3 O -1.12868 18.1227 46.4249 -1.2 -7.22477 -3.70373e+06 -2.14253e+06 -2.94126e+06 -603007 -1.49672e+06 993295
111 3 O -2.98467 17.5855 53.8813 -1.2 -8.6396 -4.45586e+06 -3.35039e+06 -3.96054e+06 -916720 308215 1.10942e+06
112 3 O -0.475268 17.515 53.91 -1.2 -8.39517 -2.89384e+06 -2.35437e+06 -4.34902e+06 874418 -1.2133e+06 1.38042e+06
113 1 Mg -3.16659 26.1698 57.5774 1.2 -7.27192 -2.57771e+06 -1.96287e+06 4.11493e+06 -1.69639e+06 -2.10506e+06 -475722
114 1 Mg -1.48778 25.88 49.8402 1.2 -8.73807 1.17229e+06 2.89327e+06 1.4517e+06 -146173 257598 695424
115 2 Si -1.00491 23.3922 47.9274 2.4 -35.2033 9.92841e+06 7.59634e+06 9.17982e+06 502954 2.28584e+06 -921429
116 3 O -0.927602 24.9615 47.9909 -1.2 -8.33178 -3.14112e+06 -4.75708e+06 -2.52666e+06 452817 -1.91742e+06 -24403.9
117 3 O -1.55795 22.2588 51.7696 -1.2 -8.38897 -3.05274e+06 -3.88587e+06 -5.54676e+06 340425 893951 -291643
118 3 O -2.17411 22.8111 48.8277 -1.2 -8.34861 -1.76852e+06 -3.84208e+06 -3.31848e+06 2846.88 -352240 -863385
119 1 Mg 0.0423997 21.3296 46.8225 1.2 -7.46251 2.78625e+06 -186481 865174 1.12652e+06 1.5814e+06 -970979
120 3 O 0.458537 22.7495 48.3911 -1.2 -8.25123 -2.41155e+06 -1.88895e+06 -1.96733e+06 -294518 -320605 1.10365e+06
121 1 Mg 1.40861 21.4709 54.6731 1.2 -8.13151 2.86604e+06 1.30648e+06 1.72339e+06 545139 -733834 1.43423e+06
122 2 Si 1.39732 24.1632 56.4218 2.4 -31.6918 5.57384e+06 7.00472e+06 1.14572e+07 -372916 91260.3 1.00433e+06
123 3 O 1.49449 22.5295 56.5677 -1.2 -9.87892 -2.82576e+06 1.38349e+06 -4.09223e+06 -643406 -346870 -337745
124 3 O 1.54441 24.9963 52.7297 -1.2 -9.527 -3.30106e+06 -3.15103e+06 -4.59322e+06 674029 -553379 -1.3081e+06
125 3 O 0.0607897 24.734 55.8623 -1.2 -10.0247 -1.32978e+06 -2.90241e+06 -4.09905e+06 -543092 -1.08732e+06 -766736
126 3 O 2.70295 24.7004 55.728 -1.2 -9.70555 -669700 -3.99279e+06 -3.6584e+06 212872 595701 -568825
127 1 Mg -0.0335968 23.6229 52.2067 1.2 -7.83584 366728 -497955 3.81152e+06 -1.29394e+06 1.56406e+06 740084
128 1 Mg 2.01073 23.3445 49.4541 1.2 -8.25207 2.8713e+06 1.0348e+06 -222508 90074.1 -75689.5 -196326
129 2 Si 1.47594 25.6699 51.2449 2.4 -33.1045 8.60746e+06 6.64636e+06 8.37051e+06 -39070.6 318451 295875
130 3 O 1.58172 27.2371 51.3054 -1.2 -9.72314 -3.61735e+06 -2.6792e+06 -2.79984e+06 668042 -269881 59127.5
131 3 O 1.4176 24.9221 57.9684 -1.2 -9.64945 -3.45035e+06 -2.87253e+06 -3.61338e+06 148028 -37431.9 1.8166e+06
132 3 O 0.157925 25.0378 50.6651 -1.2 -8.76965 -3.48235e+06 -3.31655e+06 -3.84314e+06 1.19092e+06 -678801 -276462
133 1 Mg -3.00341 23.6231 52.3098 1.2 -7.90004 -557742 -386820 3.31111e+06 1.44254e+06 -1.65147e+06 509258
134 3 O 2.71149 25.0232 50.4656 -1.2 -9.14914 -3.30572e+06 -3.07728e+06 -1.65403e+06 -309857 725301 -126084
135 1 Mg -1.59203 23.7646 55.2006 1.2 -8.02936 749484 1.83794e+06 1.27354e+06 182858 -48102.1 -38033.2
136 2 Si -1.46258 21.6044 53.2626 2.4 -34.0159 6.89447e+06 5.99816e+06 1.10752e+07 -880093 251609 615114
137 3 O -1.50701 20.0398 53.0382 -1.2 -8.93635 -4.21653e+06 -2.4594e+06 -4.72063e+06 1.20653e+06 586603 1.77743e+06
138 3 O -1.03938 22.8897 46.4223 -1.2 -7.283 -3.59689e+06 -2.40674e+06 -2.6915e+06 -606881 -1.49716e+06 1.11419e+06
139 3 O -2.75605 22.2826 53.8922 -1.2 -8.82381 -2.31906e+06 -3.02399e+06 -5.0735e+06 -1.23948e+06 907417 59718.7
140 3 O -0.237972 22.3146 53.8995 -1.2 -9.28136 -4.08776e+06 -2.71675e+06 -3.77534e+06 1.17496e+06 -995460 306412
141 1 Mg -2.9811 30.7339 57.551 1.2 -7.79045 243063 -1.72867e+06 5.30478e+06 -1.42655e+06 -1.32161e+06 -1.25702e+06
142 1 Mg -1.38776 30.6357 49.8391 1.2 -8.87079 1.38119e+06 2.30062e+06 2.05769e+06 -195326 189953 818054
143 2 Si -0.907929 28.1491 47.9262 2.4 -35.1056 9.74076e+06 7.61802e+06 9.19517e+06 483948 2.30637e+06 98694.7
144 3 O -0.829229 29.7184 47.99 -1.2 -8.31774 -3.1623e+06 -4.504e+06 -2.80162e+06 459967 -1.91378e+06 -379069
145 3 O -1.45946 27.0152 51.769 -1.2 -8.9021 -2.43911e+06 -3.55278e+06 -4.38255e+06 453350 -623793 -1.34927e+06
146 3 O -2.07744 27.5697 48.8273 -1.2 -8.44858 -1.62611e+06 -4.00779e+06 -3.14172e+06 11292.9 -401629 -1.54147e+06
147 1 Mg 0.137907 26.087 46.819 1.2 -7.37138 2.63978e+06 118122 568452 1.12387e+06 1.58396e+06 -710244
148 3 O 0.55579 27.5065 48.3893 -1.2 -8.33831 -2.24332e+06 -2.05046e+06 -1.82768e+06 -292169 -294092 543124
149 1 Mg 1.54095 26.0995 54.382 1.2 -7.63965 474904 1.42475e+06 271131 -403155 390382 909899
150 2 Si 1.47158 28.7631 56.3133 2.4 -32.1686 7.01989e+06 3.57469e+06 1.2702e+07 -554303 611910 429750
151 3 O 1.56916 27.2559 56.5148 -1.2 -10.0356 -2.69505e+06 -3.25093e+06 -4.34929e+06 410746 204637 696408
152 3 O 1.6432 29.7522 52.7291 -1.2 -9.04741 -4.19552e+06 -2.29332e+06 -5.15025e+06 310766 -141370 -1.6953e+06
153 3 O 0.150705 29.3984 55.6617 -1.2 -9.23981 -583064 -1.68507e+06 -3.69933e+06 -48463.3 749864 469267
154 3 O 2.71299 29.3886 55.6113 -1.2 -9.53212 -2.88787e+06 -3.76437e+06 -3.66448e+06 54354.9 56830 185265
155 1 Mg 0.0647462 28.3794 52.2059 1.2 -7.96237 -317739 -483800 4.06765e+06 -917762 1.88281e+06 1.13585e+06
156 1 Mg 2.10696 28.1021 49.4531 1.2 -8.17835 2.83483e+06 995602 -254910 131515 -124789 572520
157 2 Si 1.57592 30.4257 51.2442 2.4 -33.704 9.5714e+06 4.88536e+06 1.02002e+07 376567 453747 1.18645e+06
158 3 O 1.68288 31.9926 51.3043 -1.2 -9.41957 -3.99351e+06 -1.98094e+06 -3.81581e+06 695961 -606099 414022
159 3 O 1.49083 29.5488 57.9078 -1.2 -9.31367 -3.21498e+06 -1.27592e+06 -2.648e+06 124756 810063 1.75017e+06
160 3 O 0.258524 29.7935 50.6632 -1.2 -8.56326 -4.03011e+06 -2.60721e+06 -4.82381e+06 998272 -356184 -626215
161 1 Mg -2.90462 28.3797 52.308 1.2 -7.71149 -367715 -1.04565e+06 3.20989e+06 1.37207e+06 -2.10531e+06 1.24543e+06
162 3 O 2.81205 29.7787 50.4664 -1.2 -8.97347 -3.71717e+06 -2.41601e+06 -2.47492e+06 -239112 516740 -760993
163 1 Mg -1.61888 28.3034 55.1425 1.2 -7.82127 1.73364e+06 1.68425e+06 1.02756e+06 526879 28089.5 -1.18965e+06
164 2 Si -1.48549 26.321 53.2616 2.4 -32.5468 5.81822e+06 6.74174e+06 1.08778e+07 733362 -363903 -699739
165 3 O -1.55657 24.7568 53.1975 -1.2 -9.67802 -2.94497e+06 -3.22644e+06 -3.63104e+06 -397943 262061 438658
166 3 O -0.943026 27.648 46.4208 -1.2 -7.33837 -3.50297e+06 -2.52384e+06 -2.58761e+06 -604361 -1.50329e+06 778217
167 3 O -2.74541 27.0259 53.9416 -1.2 -9.81916 -1.94754e+06 -3.94328e+06 -4.37422e+06 -801103 1.00676e+06 201870
168 3 O -0.157511 26.9459 53.8534 -1.2 -9.53021 -1.42696e+06 -3.43094e+06 -4.55753e+06 855796 -1.25688e+06 73065.4
169 1 Mg -2.76841 35.7238 57.3748 1.2 -7.9896 2470.31 -1.73164e+06 4.42501e+06 -1.49331e+06 -1.85313e+06 -1.40199e+06
170 1 Mg -1.28421 35.3899 49.8376 1.2 -8.87191 1.3609e+06 2.25472e+06 2.11537e+06 -155335 252377 617645
171 2 Si -0.807101 32.9036 47.9247 2.4 -35.1636 9.85811e+06 7.13615e+06 9.65425e+06 490301 2.29948e+06 -65976.4
172 3 O -0.727174 34.4729 47.9885 -1.2 -8.30755 -3.18118e+06 -4.39763e+06 -2.92063e+06 458270 -1.91647e+06 -233259
173 3 O -1.35735 31.7701 51.768 -1.2 -8.48851 -3.62329e+06 -3.43893e+06 -7.31945e+06 477535 648103 -257520
174 3 O -1.97695 32.3253 48.826 -1.2 -8.38845 -1.71725e+06 -3.65782e+06 -3.49236e+06 8916.35 -361580 -1.45807e+06
175 1 Mg 0.237665 30.8412 46.8168 1.2 -7.37911 2.65732e+06 -107537 792618 1.12474e+06 1.58517e+06 -538635
176 3 O 0.656562 32.2608 48.3877 -1.2 -8.29044 -2.32537e+06 -1.72521e+06 -2.13925e+06 -290154 -314738 587773
177 1 Mg 1.749 30.8039 54.4943 1.2 -8.46409 2.76065e+06 150757 808533 109003 448272 1.55572e+06
178 2 Si 1.73677 33.5614 56.3085 2.4 -33.2153 9.33366e+06 5.80509e+06 1.11726e+07 -96169.2 -48898.7 662171
179 3 O 1.76281 31.9828 56.3847 -1.2 -9.47834 -3.98041e+06 853221 -3.99489e+06 456901 583381 -18142.8
180 3 O 1.74574 34.5067 52.7279 -1.2 -9.20452 -3.88478e+06 -2.35173e+06 -5.20689e+06 572088 -440124 -1.24243e+06
181 3 O 0.376204 34.1697 55.6792 -1.2 -9.0988 -2.47607e+06 -3.58548e+06 -4.21131e+06 -1.0181e+06 -406640 -136524
182 3 O 2.96406 34.2553 55.6134 -1.2 -9.07035 -2.35744e+06 -3.16662e+06 -4.06848e+06 488566 309029 260765
183 1 Mg 0.167046 33.1343 52.2045 1.2 -8.04008 373738 -570329 4.1671e+06 -1.28043e+06 1.77357e+06 492597
184 1 Mg 2.20727 32.8578 49.4516 1.2 -8.25602 2.90943e+06 664306 136485 114388 -107162 332740
185 2 Si 1.67943 35.1802 51.2429 2.4 -33.6163 9.60688e+06 5.2174e+06 9.62198e+06 97557.5 348923 528357
186 3 O 1.78736 36.747 51.303 -1.2 -9.5007 -3.80247e+06 -2.1725e+06 -3.43261e+06 735618 -336355 325859
187 3 O 1.68113 34.3083 57.8244 -1.2 -8.90144 -4.35307e+06 -1.75125e+06 -4.42226e+06 191478 -375311 2.75575e+06
188 3 O 0.362533 34.5479 50.661 -1.2 -8.54503 -3.96299e+06 -2.60897e+06 -4.75041e+06 1.15623e+06 -398308 -424689
189 1 Mg -2.80215 33.1347 52.3062 1.2 -8.0342 -62086.6 -1.11378e+06 3.56799e+06 1.75959e+06 -1.76616e+06 842112
190 3 O 2.91593 34.533 50.466 -1.2 -8.97305 -3.69649e+06 -2.40107e+06 -2.36069e+06 -292098 602687 -394860
191 1 Mg -1.23033 33.2358 55.0725 1.2 -8.35697 1.61037e+06 2.05021e+06 2.10786e+06 -593632 -418088 -899669
192 2 Si -1.33204 31.0504 53.1831 2.4 -34.0623 8.00752e+06 3.36299e+06 1.19924e+07 -676865 580764 506382
193 3 O -1.42757 29.5249 53.0009 -1.2 -9.28333 -3.77743e+06 -3.62065e+06 -5.56124e+06 90424.5 -131005 -237160
194 3 O -0.842495 32.4028 46.4192 -1.2 -7.33057 -3.51678e+06 -2.33581e+06 -2.7747e+06 -605416 -1.50268e+06 754545
195 3 O -2.61048 31.7816 53.8198 -1.2 -8.77765 -3.25683e+06 -1.99639e+06 -6.69489e+06 -756131 1.54832e+06 177058
196 3 O -0.0385582 31.6677 53.8556 -1.2 -8.83465 -2.92583e+06 -1.93066e+06 -5.05469e+06 679861 -607132 500939
197 1 Mg -2.62387 40.2847 57.342 1.2 -7.58044 -346663 132521 4.37836e+06 -614658 -1.28028e+06 -675156
198 1 Mg -1.17787 40.1435 49.8359 1.2 -8.78783 1.30626e+06 2.44421e+06 1.83473e+06 -200576 215098 669177
199 2 Si -0.702692 37.6572 47.9231 2.4 -35.0958 9.75443e+06 7.28335e+06 9.49853e+06 489557 2.32667e+06 -298704
200 3 O -0.621782 39.2264 47.9868 -1.2 -8.35229 -3.12049e+06 -4.53005e+06 -2.79107e+06 465333 -1.92593e+06 -189886
201 3 O -1.25221 36.5242 51.7666 -1.2 -8.55776 -3.05377e+06 -3.36981e+06 -6.70318e+06 400458 -282182 -380020
202 3 O -1.87295 37.0796 48.8243 -1.2 -8.4231 -1.68686e+06 -3.73016e+06 -3.40535e+06 22708.3 -380322 -1.29879e+06
203 1 Mg 0.341084 35.5943 46.8152 1.2 -7.3685 2.63883e+06 -148615 837091 1.12378e+06 1.58515e+06 -644858
204 3 O 0.760681 37.0138 48.3864 -1.2 -8.31598 -2.26162e+06 -1.78208e+06 -2.10777e+06 -298105 -307013 724981
205 1 Mg 1.73191 35.4656 54.4632 1.2 -8.41195 3.39654e+06 831073 -108815 135896 -126468 625579
206 2 Si 1.61613 38.1361 56.3511 2.4 -32.8617 7.49922e+06 4.89092e+06 1.18063e+07 1.44721e+06 556274 730161
207 3 O 1.69161 36.6289 56.3684 -1.2 -9.4804 -5.28341e+06 -4.24314e+06 -4.38429e+06 75609.9 309345 1.99018e+06
208 3 O 1.85132 39.2606 52.7264 -1.2 -8.96458 -3.43374e+06 -2.46734e+06 -4.44245e+06 483263 -77061.1 -694323
209 3 O 0.321471 38.8184 55.8308 -1.2 -9.10383 -2.31021e+06 -4.07531e+06 -3.72124e+06 -862851 -105003 365361
210 3 O 2.9096 38.8097 55.6405 -1.2 -9.21769 -1.7992e+06 -3.26307e+06 -3.12804e+06 1.03989e+06 760127 -707246
211 1 Mg 0.272384 37.8883 52.2029 1.2 -8.14131 -88847.4 -713443 4.44338e+06 -865309 1.82698e+06 554402
212 1 Mg 2.31122 37.6122 49.4501 1.2 -8.20748 2.8343e+06 773958 31735 107405 -167979 227660
213 2 Si 1.78573 39.934 51.2414 2.4 -33.5497 8.8463e+06 5.54422e+06 9.91002e+06 408694 336083 87669.3
214 3 O 1.89428 41.5006 51.3014 -1.2 -9.57865 -3.60015e+06 -2.51594e+06 -3.08086e+06 719753 -336163 518634
215 3 O 1.79156 38.945 57.9395 -1.2 -9.38501 -1.54646e+06 -1.53896e+06 -1.91029e+06 554847 -272104 2.43647e+06
216 3 O 0.469216 39.3015 50.6588 -1.2 -8.64431 -3.64266e+06 -2.80825e+06 -4.56649e+06 1.14729e+06 -724785 -211937
217 1 Mg -2.69668 37.8889 52.3043 1.2 -7.8671 430819 -980364 3.5309e+06 1.64627e+06 -1.85032e+06 941588
218 3 O 3.0225 39.2866 50.4651 -1.2 -9.06493 -3.45203e+06 -2.6092e+06 -2.07135e+06 -352794 877818 -412968
219 1 Mg -1.41574 37.9171 55.032 1.2 -8.55892 2.21682e+06 1.27812e+06 -87996.2 -86595.5 178374 -2.00004e+06
220 2 Si -1.25863 35.8554 53.2281 2.4 -34.0317 6.79076e+06 3.85838e+06 1.17239e+07 521040 -126310 123326
221 3 O -1.29945 34.3316 53.0846 -1.2 -9.32312 -3.21626e+06 -3.62034e+06 -5.09029e+06 -624563 497369 541883
222 3 O -0.738054 37.1566 46.4176 -1.2 -7.35432 -3.47877e+06 -2.36371e+06 -2.7517e+06 -606193 -1.50501e+06 836013
223 3 O -2.47284 36.6142 53.9071 -1.2 -8.82335 -4.5523e+06 -3.29668e+06 -5.4185e+06 -333715 1.01791e+06 233956
224 3 O 0.0134447 36.5098 53.8645 -1.2 -8.58089 -3.9763e+06 -2.99927e+06 -5.32295e+06 530475 -1.19944e+06 266654
225 1 Mg -2.56567 45.1036 57.2941 1.2 -7.55378 -140457 -615574 4.37013e+06 -460019 -1.37796e+06 69924.8
226 1 Mg -1.06993 44.8968 49.8343 1.2 -8.8449 1.27199e+06 2.49065e+06 1.90702e+06 -174212 235057 937015
227 2 Si -0.596166 42.4103 47.9215 2.4 -35.0333 9.65323e+06 7.48335e+06 9.30382e+06 485280 2.30654e+06 -103431
228 3 O -0.51472 43.9796 47.9853 -1.2 -8.36675 -3.08397e+06 -4.56232e+06 -2.77621e+06 465621 -1.91428e+06 -327603
229 3 O -1.14475 41.2777 51.7649 -1.2 -8.79554 -2.35399e+06 -2.7345e+06 -4.44368e+06 407132 426246 -999653
230 3 O -1.76671 41.8331 48.8226 -1.2 -8.45689 -1.61061e+06 -3.87646e+06 -3.29822e+06 10346.3 -368180 -1.3829e+06
231 1 Mg 0.447076 40.3473 46.8135 1.2 -7.33095 2.57958e+06 -54133.1 741495 1.12295e+06 1.58822e+06 -636764
232 3 O 0.866985 41.7666 48.385 -1.2 -8.3542 -2.21175e+06 -1.91701e+06 -1.96893e+06 -286461 -310224 660032
233 1 Mg 1.9473 40.4174 54.5442 1.2 -8.39168 1.37927e+06 2.12852e+06 475050 272112 97196.4 1.0442e+06
234 2 Si 1.81636 43.0152 56.3432 2.4 -33.6837 5.20851e+06 5.04526e+06 1.16145e+07 -667276 390808 558231
235 3 O 1.76783 41.4402 56.431 -1.2 -9.57044 -2.83401e+06 -1.58455e+06 -4.08138e+06 -977634 -159124 -174377
236 3 O 1.95891 44.014 52.7248 -1.2 -9.13882 -3.04767e+06 -2.14234e+06 -5.04091e+06 442568 -309703 -650632
237 3 O 0.669104 43.8007 55.7362 -1.2 -8.89146 -6.81603e+06 -2.67718e+06 -4.09438e+06 689412 -66067.2 480015
238 3 O 3.0009 43.5827 55.6036 -1.2 -8.60678 -6.52408e+06 -3.55886e+06 -5.26709e+06 1.07299e+06 858521 334718
239 1 Mg 0.379928 42.6418 52.2013 1.2 -7.95426 74589.5 -443210 3.99415e+06 -960979 1.91941e+06 574943
240 1 Mg 2.41752 42.366 49.4484 1.2 -8.17299 2.78532e+06 939225 -135047 112758 -129636 302952
241 2 Si 1.89374 44.6874 51.2398 2.4 -33.5222 9.31302e+06 5.71213e+06 9.18908e+06 253329 374564 436702
242 3 O 2.00266 46.254 51.2996 -1.2 -9.51884 -4.07901e+06 -2.39473e+06 -2.85778e+06 736095 -399659 203754
243 3 O 2.03258 43.6567 57.9375 -1.2 -8.96648 -2.21663e+06 -1.27719e+06 -4.3381e+06 -146969 969888 1.32695e+06
244 3 O 0.577464 44.0549 50.6567 -1.2 -8.63787 -3.68806e+06 -3.00622e+06 -4.20662e+06 1.24975e+06 -698159 -482871
245 1 Mg -2.58906 42.6425 52.3022 1.2 -7.86402 62011.3 -404811 3.96733e+06 1.39511e+06 -1.66017e+06 649963
246 3 O 3.13067 44.0398 50.464 -1.2 -9.05376 -3.48912e+06 -2.783e+06 -1.87149e+06 -385647 809251 -568067
247 1 Mg -1.06997 42.7293 55.1153 1.2 -8.32464 3.29747e+06 1.36089e+06 1.0503e+06 186011 -287235 -37935.4
248 2 Si -1.06452 40.5598 53.2567 2.4 -33.7011 7.76005e+06 5.01475e+06 1.08542e+07 -627609 559269 -669811
249 3 O -1.11931 39.0457 53.1931 -1.2 -9.33281 -4.02353e+06 -4.81456e+06 -4.15548e+06 321729 -70587.9 507796
250 3 O -0.631421 41.9099 46.4159 -1.2 -7.38866 -3.42467e+06 -2.4316e+06 -2.6834e+06 -604725 -1.50336e+06 782547
251 3 O -2.29544 41.2654 53.982 -1.2 -8.94062 -2.97295e+06 -4.06189e+06 -3.7523e+06 -593786 1.22871e+06 -278338
252 3 O 0.251506 41.1735 53.9121 -1.2 -8.93671 -3.58054e+06 -4.21399e+06 -2.74846e+06 1.07707e+06 -519024 249870
253 1 Mg -2.32176 49.8413 57.3366 1.2 -7.30232 -1.07375e+06 -2.15849e+06 4.08015e+06 -1.67603e+06 -1.51182e+06 -31801.3
254 1 Mg -0.961069 49.6502 49.8327 1.2 -8.71787 1.10417e+06 2.48797e+06 1.88942e+06 -207470 159616 674774
255 2 Si -0.488083 47.1636 47.9198 2.4 -34.9818 9.53518e+06 7.30483e+06 9.51908e+06 485015 2.28725e+06 -97022.7
256 3 O -0.40607 48.7329 47.9837 -1.2 -8.44181 -2.9624e+06 -4.52966e+06 -2.79621e+06 463699 -1.9053e+06 -217587
257 3 O -1.0361 46.031 51.7632 -1.2 -8.48858 -2.41731e+06 -2.22047e+06 -2.89727e+06 393857 -182650 -2.12328e+06
258 3 O -1.65866 46.5866 48.821 -1.2 -8.44454 -1.59071e+06 -3.77451e+06 -3.43763e+06 17668 -405324 -1.46296e+06
259 1 Mg 0.554124 45.1001 46.8117 1.2 -7.30377 2.5379e+06 -79638.9 765879 1.12109e+06 1.58086e+06 -563305
260 3 O 0.974961 46.5195 48.3832 -1.2 -8.36209 -2.21413e+06 -1.81571e+06 -2.04712e+06 -289864 -277952 594562
261 1 Mg 2.0178 45.1652 54.4731 1.2 -8.49755 1.09884e+06 2.24069e+06 498487 -197735 -127065 551687
262 2 Si 2.21361 47.8408 56.3486 2.4 -32.3015 5.01787e+06 7.50954e+06 1.0819e+07 616173 -1.40945e+06 1.21395e+06
263 3 O 2.06336 46.2607 56.4077 -1.2 -9.75302 -2.59916e+06 -1.45071e+06 -3.65348e+06 1.11383e+06 -300358 -356913
264 3 O 2.0677 48.7672 52.7232 -1.2 -9.02832 -4.16546e+06 -3.24478e+06 -4.92589e+06 675392 400246 -2.00366e+06
265 3 O 0.989849 48.4983 55.6714 -1.2 -9.3343 -2.17189e+06 -5.65595e+06 -4.79152e+06 -549733 -1.30105e+06 -195302
266 3 O 3.561 48.4855 55.6748 -1.2 -9.50175 -3.0124e+06 -4.23651e+06 -3.51253e+06 2.24982e+06 355287 -1.54697e+06
267 1 Mg 0.488584 47.395 52.1996 1.2 -8.14833 24947.5 -736961 3.67216e+06 -588022 2.02004e+06 776156
268 1 Mg 2.52544 47.1195 49.4466 1.2 -8.18405 2.88239e+06 807016 -76281.5 112843 -100885 402567
269 2 Si 2.00256 49.4407 51.2382 2.4 -33.4227 9.14483e+06 5.5551e+06 9.48113e+06 469957 392567 902827
270 3 O 2.11156 51.0073 51.2982 -1.2 -9.74142 -3.40198e+06 -2.52111e+06 -3.33286e+06 773202 -322154 278028
271 3 O 2.19356 48.5293 57.8382 -1.2 -9.84054 -1.36063e+06 -2.6351e+06 -4.40464e+06 -283266 -1.09255e+06 911980
272 3 O 0.686344 48.8082 50.655 -1.2 -8.63196 -3.9131e+06 -2.79035e+06 -4.71248e+06 1.01538e+06 -376717 -358454
273 1 Mg -2.48039 47.3957 52.3005 1.2 -8.00856 484653 -447303 3.56381e+06 1.53769e+06 -1.58675e+06 1.0522e+06
274 3 O 3.23944 48.7932 50.4623 -1.2 -9.06267 -3.50109e+06 -2.65521e+06 -2.09207e+06 -281867 635115 -619846