ITEM: TIMESTEP
43000
ITEM: NUMBER OF ATOMS
10500
ITEM: BOX BOUNDS xy xz yz pp pp pp
0.0000000000000000e+00 8.9687999999999999e+00 2.9895999999999998e+00
0.0000000000000000e+00 1.1872499999999999e+02 0.0000000000000000e+00
0.0000000000000000e+00 2.5297749999999999e+02 0.0000000000000000e+00
ITEM: ATOMS id type element xu yu zu q c_pe c_s[1] c_s[2] c_s[3] c_s[4] c_s[5] c_s[6]
1 1 Mg -3.17883 7.18841 57.2568 1.2 -7.58823 -1.49535e+06 -271080 4.55037e+06 -598679 -1.93102e+06 -1.02403e+06
2 1 Mg -1.82655 6.90154 50.0912 1.2 -8.28371 159550 1.24034e+06 1.0672e+06 -80924.3 -214360 1.32941e+06
3 2 Si -0.257935 3.96038 48.0876 2.4 -36.646 1.09921e+07 8.49512e+06 1.10792e+07 804312 1.98634e+06 1.40741e+06
4 3 O -0.335812 5.46814 47.6264 -1.2 -7.59323 -3.39632e+06 -2.50078e+06 -2.49814e+06 145371 -972414 -387347
5 3 O -2.03793 3.43377 51.8941 -1.2 -8.34009 -4.20815e+06 -716769 -5.24166e+06 -1.21151e+06 1.04215e+06 -1.81784e+06
6 3 O -1.54015 3.53929 48.9521 -1.2 -7.94816 -1.88071e+06 -1.41602e+06 -4.54252e+06 19327.3 -714302 -87257.6
7 1 Mg 1.82954 2.54582 47.1376 1.2 -8.32235 3.13074e+06 -713591 967637 1.14752e+06 835562 519317
8 3 O 1.22989 3.66364 48.7877 -1.2 -7.67856 -2.18814e+06 -2.18839e+06 -3.89235e+06 -472677 -737759 -817813
9 1 Mg 0.916076 2.13105 54.6223 1.2 -9.02863 3.25016e+06 3496.54 2.18857e+06 -437053 21977.2 970154
10 2 Si 1.08172 5.09876 56.4697 2.4 -32.4845 8.1038e+06 3.93758e+06 1.21393e+07 951459 1.49646e+06 674057
11 3 O 0.835779 3.52213 56.618 -1.2 -9.27505 -3.26587e+06 1.07567e+06 -7.09992e+06 1.28134e+06 -298285 -823650
12 3 O 1.10813 6.07342 52.8172 -1.2 -9.05929 -2.72316e+06 -3.04085e+06 -3.87184e+06 514818 -238943 -1.08138e+06
13 3 O -0.296154 5.7943 55.8211 -1.2 -9.49902 50170 -2.4498e+06 -4.82199e+06 -382749 -674017 -753290
14 3 O 2.35738 5.7537 55.778 -1.2 -9.57527 -1.65103e+06 -2.91188e+06 -7.13322e+06 1.33028e+06 1.23488e+06 -175832
15 1 Mg -0.459401 4.67631 52.2426 1.2 -8.29947 299323 -1.35471e+06 5.53284e+06 -1.27174e+06 1.31504e+06 822949
16 1 Mg 2.79456 3.9971 49.9987 1.2 -8.74084 4.1289e+06 -309302 1.93863e+06 -527059 791434 -1.14254e+06
17 2 Si 1.16169 6.59457 51.2556 2.4 -33.6592 7.25149e+06 6.49325e+06 1.14757e+07 -21993.7 465094 2.41064e+06
18 3 O 1.28989 8.18905 51.2909 -1.2 -9.66402 -2.71726e+06 -1.87506e+06 -3.19661e+06 331667 -638603 786654
19 3 O 1.15689 5.70488 57.9029 -1.2 -9.41568 -3.88416e+06 -2.7947e+06 -6.43573e+06 -642871 121971 -711942
20 3 O -0.184847 6.06029 50.6845 -1.2 -8.62349 -3.0957e+06 -3.28699e+06 -4.8387e+06 1.55899e+06 -528785 -1.31226e+06
21 1 Mg -3.49704 4.67769 52.6661 1.2 -8.01267 322834 -1.67334e+06 3.00692e+06 2.34667e+06 -1.40311e+06 794151
22 3 O 2.48581 5.93312 50.6539 -1.2 -9.14419 -3.22521e+06 -1.65088e+06 -2.97465e+06 -1.65706e+06 -443560 -677792
23 1 Mg -1.95731 4.77428 55.3009 1.2 -8.23728 1.4183e+06 672698 868823 310927 -445788 -55528.9
24 2 Si -1.97199 2.64171 53.3656 2.4 -34.6263 1.12747e+07 1.57756e+06 1.3788e+07 1.81321e+06 -543683 -1.20745e+06
25 3 O -2.05292 1.10042 53.3065 -1.2 -8.74018 -5.03172e+06 -1.5315e+06 -4.85177e+06 955087 317936 88990.6
26 3 O -0.0467762 2.97103 46.8385 -1.2 -6.70763 -3.45463e+06 -1.97646e+06 -3.04759e+06 -989956 -2.00732e+06 -588392
27 3 O -3.33686 3.15482 54.0395 -1.2 -8.28365 -2.33819e+06 -2.52167e+06 -6.12552e+06 -60042.9 -477486 282888
28 3 O -0.680147 3.27306 54.0048 -1.2 -8.6436 -3.3849e+06 -1.31028e+06 -4.61228e+06 377392 -526696 117303
29 1 Mg -3.23916 11.8791 57.4671 1.2 -7.56646 -1.0728e+06 -837744 3.84322e+06 -1.46028e+06 -1.692e+06 -861918
30 1 Mg -1.75014 11.5838 49.8362 1.2 -8.36644 668993 2.15136e+06 2.2814e+06 -292482 422993 1.09397e+06
31 2 Si -1.18003 9.02138 47.9309 2.4 -34.5058 8.54636e+06 7.82776e+06 9.11603e+06 241632 2.62806e+06 318977
32 3 O -1.23224 10.5991 47.9811 -1.2 -8.71099 -2.49387e+06 -3.88979e+06 -2.50481e+06 650502 -1.93615e+06 -55737.3
33 3 O -1.79016 8.01447 51.8693 -1.2 -9.28551 -2.15126e+06 -1.60611e+06 -3.16388e+06 101811 -480904 -2.1135e+06
34 3 O -2.30986 8.37215 48.8528 -1.2 -8.92908 -1.09286e+06 -2.87219e+06 -3.04475e+06 -341270 -626138 -784921
35 1 Mg 0.154883 7.08234 46.8007 1.2 -7.66048 2.11032e+06 39369.9 606642 942047 1.7248e+06 -1.10569e+06
36 3 O 0.325447 8.50934 48.3809 -1.2 -8.56755 -1.49798e+06 -2.30039e+06 -2.4248e+06 -30351.1 -817550 403370
37 1 Mg 1.17657 7.15098 54.7376 1.2 -7.94381 2.31189e+06 733039 816277 151398 209447 1.93708e+06
38 2 Si 1.22379 9.81207 56.4744 2.4 -32.9771 7.35024e+06 4.33466e+06 1.07664e+07 263909 175535 1.13783e+06
39 3 O 1.30632 8.27161 56.5392 -1.2 -9.93956 -4.51207e+06 -2.74164e+06 -5.77353e+06 341523 626859 -451498
40 3 O 1.28624 10.7248 52.7351 -1.2 -9.6215 -2.49943e+06 -1.87e+06 -4.13484e+06 610309 -379966 -1.17551e+06
41 3 O 0.0391464 10.5772 55.8004 -1.2 -9.47476 -3.77325e+06 -3.70298e+06 -3.84997e+06 -1.54214e+06 -1.14619e+06 170943
42 3 O 2.54159 10.5141 55.9543 -1.2 -9.01773 -3.22938e+06 -4.15177e+06 -5.28445e+06 1.32421e+06 1.37704e+06 -428906
43 1 Mg -0.262694 9.34741 52.2523 1.2 -7.56508 -617116 92660.5 4.6654e+06 -1.57782e+06 1.38089e+06 1.41281e+06
44 1 Mg 1.87648 9.01537 49.4629 1.2 -7.85654 2.00022e+06 857981 -56456.5 224822 -287824 321752
45 2 Si 1.21415 11.3799 51.2378 2.4 -32.6988 7.61176e+06 5.13522e+06 1.0526e+07 58814.2 -49038.8 1.44419e+06
46 3 O 1.31634 12.9512 51.3023 -1.2 -9.99438 -2.92528e+06 -1.69354e+06 -3.63552e+06 457173 -123887 280673
47 3 O 1.29087 10.4599 58.0056 -1.2 -9.06365 -2.65651e+06 -2.40332e+06 -6.08166e+06 -28177.8 1.46191e+06 1.39051e+06
48 3 O -0.115718 10.7564 50.681 -1.2 -9.01172 -2.60569e+06 -2.74804e+06 -4.54202e+06 1.32863e+06 -572697 -1.13685e+06
49 1 Mg -3.26386 9.35564 52.3622 1.2 -7.30559 -377405 -634975 4.13217e+06 1.80623e+06 -1.49672e+06 1.22564e+06
50 3 O 2.45216 10.7265 50.4558 -1.2 -9.56187 -2.7444e+06 -2.11124e+06 -1.87093e+06 -802782 619956 -326180
51 1 Mg -1.69885 9.72374 55.1273 1.2 -8.2119 1.91977e+06 681919 768215 98432.8 -544851 377042
52 2 Si -1.79179 7.36669 53.4706 2.4 -32.829 7.5902e+06 6.02182e+06 1.29771e+07 -182819 -819138 1.18306e+06
53 3 O -1.93331 5.79919 53.4562 -1.2 -9.5297 -3.74913e+06 -606522 -4.89068e+06 1.03086e+06 -180300 -549349
54 3 O -1.19417 8.46968 46.4488 -1.2 -7.53283 -2.89386e+06 -2.2784e+06 -2.71513e+06 -542587 -1.7442e+06 883367
55 3 O -3.07862 8.09868 54.1583 -1.2 -9.20074 -1.51393e+06 -2.4833e+06 -3.64322e+06 -865456 -363574 -285474
56 3 O -0.531466 8.1053 54.0354 -1.2 -9.36196 -2.38362e+06 -2.33266e+06 -4.66905e+06 987452 130610 -542005
57 1 Mg -2.9684 16.6642 57.4155 1.2 -7.84086 -1.25364e+06 -2.24201e+06 3.8832e+06 -1.42498e+06 -1.88622e+06 -51488.1
58 1 Mg -1.6714 16.3544 49.8412 1.2 -8.28544 566639 2.02232e+06 2.25638e+06 -230844 241538 906354
59 2 Si -1.18567 13.8526 47.9314 2.4 -34.229 8.37559e+06 6.68363e+06 1.00147e+07 493479 2.28401e+06 -64319.6
60 3 O -1.09664 15.4205 47.9915 -1.2 -8.80418 -2.32176e+06 -4.07817e+06 -3.01974e+06 428541 -1.94019e+06 -313909
61 3 O -1.73493 12.7491 51.7772 -1.2 -9.22733 -1.82312e+06 -2.49678e+06 -5.01341e+06 609840 -1.05876e+06 -1.18536e+06
62 3 O -2.36115 13.2717 48.8238 -1.2 -8.8785 -1.05052e+06 -3.28018e+06 -3.63425e+06 -90097.6 -416495 -1.4136e+06
63 1 Mg -0.159928 11.7639 46.8533 1.2 -7.0075 2.08145e+06 -280847 937922 1.12727e+06 1.56933e+06 -786037
64 3 O 0.2623 13.1866 48.413 -1.2 -8.76476 -1.53048e+06 -1.35634e+06 -2.45449e+06 -207459 -263002 644836
65 1 Mg 1.22019 11.8271 54.5931 1.2 -8.08121 1.95444e+06 1.32157e+06 1.62299e+06 5963.32 432018 1.62092e+06
66 2 Si 1.32463 14.5881 56.4554 2.4 -33.1551 7.13459e+06 6.98833e+06 9.46886e+06 72316.6 769949 2.20297e+06
67 3 O 1.29659 13.0185 56.5409 -1.2 -9.50433 -2.86483e+06 -3.29364e+06 -3.83656e+06 174826 9974.93 -1.15666e+06
68 3 O 1.36565 15.4813 52.729 -1.2 -9.6408 -2.79357e+06 -2.62475e+06 -5.21805e+06 -166313 -655828 -1.77529e+06
69 3 O 0.0390264 15.2434 55.8258 -1.2 -9.18596 -2.04385e+06 -3.07876e+06 -2.65307e+06 -261847 -820483 -672997
70 3 O 2.59802 15.2318 55.7744 -1.2 -9.28627 -2.57749e+06 -3.68347e+06 -4.7068e+06 681606 1.38102e+06 -166408
71 1 Mg -0.206989 14.1049 52.2121 1.2 -7.63314 -1.0668e+06 -780511 4.71528e+06 -1.09082e+06 1.65935e+06 1.02571e+06
72 1 Mg 1.82591 13.8102 49.4556 1.2 -7.73823 2.12067e+06 575985 249058 148657 -168899 495519
73 2 Si 1.29285 16.1518 51.2434 2.4 -32.5366 7.16837e+06 4.6194e+06 1.09535e+07 398510 417431 1.20864e+06
74 3 O 1.39496 17.7199 51.3047 -1.2 -10.0216 -2.74667e+06 -1.61814e+06 -4.1998e+06 564024 -493256 391497
75 3 O 1.42683 15.1574 57.9877 -1.2 -8.96052 -2.58699e+06 -4.1783e+06 -4.37362e+06 499674 -779545 1.33294e+06
76 3 O -0.0269106 15.5178 50.6688 -1.2 -9.14961 -2.73815e+06 -2.42238e+06 -4.92444e+06 1.04392e+06 -707507 -569503
77 1 Mg -3.18391 14.1057 52.3125 1.2 -7.25149 -474012 -1.54511e+06 4.29986e+06 1.7694e+06 -1.69795e+06 1.38368e+06
78 3 O 2.52432 15.503 50.4579 -1.2 -9.5821 -2.60503e+06 -2.09929e+06 -2.36859e+06 -328889 862669 -610252
79 1 Mg -1.72554 14.2045 55.2047 1.2 -8.17235 2.06048e+06 1.62452e+06 190997 200640 -15015.5 394647
80 2 Si -1.7942 12.1293 53.2955 2.4 -32.7787 6.24927e+06 3.34987e+06 1.16122e+07 731084 -818578 1.31601e+06
81 3 O -1.77739 10.6082 53.3098 -1.2 -9.8684 -2.97864e+06 -3.98091e+06 -4.29612e+06 -456040 282616 564021
82 3 O -1.21337 13.3381 46.4311 -1.2 -7.71497 -2.96392e+06 -2.09041e+06 -2.95696e+06 -630837 -1.45705e+06 844284
83 3 O -3.00317 12.8225 54.0209 -1.2 -9.53512 -2.62052e+06 -3.03803e+06 -3.67247e+06 -319993 924386 -223567
84 3 O -0.445854 12.7521 53.8962 -1.2 -9.09116 -1.71294e+06 -3.85575e+06 -4.83334e+06 920031 -969875 148452
85 1 Mg -3.03013 21.2554 57.0831 1.2 -7.9081 -633538 -1.80246e+06 4.49437e+06 -2.2991e+06 -1.36968e+06 -443731
86 1 Mg -1.5831 21.1217 49.8405 1.2 -8.40464 646433 1.89021e+06 2.45035e+06 -188982 40383.4 1.14362e+06
87 2 Si -1.09384 18.6291 47.9287 2.4 -34.24 8.42006e+06 6.68572e+06 1.00454e+07 474801 2.30805e+06 193073
88 3 O -1.02071 20.1985 47.9911 -1.2 -8.74299 -2.49385e+06 -4.07718e+06 -3.13148e+06 464615 -1.90601e+06 -487253
89 3 O -1.65002 17.5002 51.771 -1.2 -9.34325 -2.35963e+06 -970062 -5.93338e+06 580535 -877232 -1.08957e+06
90 3 O -2.26174 18.0434 48.8281 -1.2 -8.90313 -941427 -3.33836e+06 -3.73879e+06 -4940.06 -353080 -1.46884e+06
91 1 Mg -0.0440435 16.5651 46.8269 1.2 -6.96449 1.95768e+06 -309707 1.00578e+06 1.13467e+06 1.58019e+06 -531871
92 3 O 0.37001 17.9877 48.3925 -1.2 -8.77676 -1.53998e+06 -1.46977e+06 -2.41691e+06 -291424 -337580 526399
93 1 Mg 1.33084 16.3742 54.5233 1.2 -7.95249 2.59301e+06 837983 593897 265405 -107052 1.23893e+06
94 2 Si 1.40118 19.1518 56.6079 2.4 -32.6773 5.8276e+06 6.22165e+06 1.37902e+07 -407122 -840137 426505
95 3 O 1.32999 17.6176 56.8845 -1.2 -9.3029 -3.29494e+06 -2.61695e+06 -5.57289e+06 39526.8 1.17907e+06 -1.15024e+06
96 3 O 1.45147 20.239 52.7294 -1.2 -9.78451 -2.10096e+06 -2.77918e+06 -6.70744e+06 -13339.8 -698562 -1.61237e+06
97 3 O 0.200915 19.9259 55.7942 -1.2 -9.48067 -2.48407e+06 -1.52628e+06 -2.04978e+06 -768869 510617 -1.36145e+06
98 3 O 2.64185 19.6705 55.7459 -1.2 -9.25289 -2.99912e+06 -2.85817e+06 -3.69877e+06 1.57517e+06 -462618 -743089
99 1 Mg -0.126194 18.8651 52.2079 1.2 -7.3245 -302082 -1.16997e+06 4.76824e+06 -1.2827e+06 1.62789e+06 813876
100 1 Mg 1.92402 18.5815 49.4545 1.2 -7.72441 1.96021e+06 478849 389725 148066 -112567 434511
101 2 Si 1.38106 20.9117 51.2443 2.4 -32.5283 7.42766e+06 4.76142e+06 1.0485e+07 245681 1.06925e+06 1.13808e+06
102 3 O 1.48527 22.4795 51.3054 -1.2 -9.83234 -3.26442e+06 -1.47163e+06 -4.25696e+06 1.00389e+06 -223253 58268.6
103 3 O 1.46047 19.984 58.0576 -1.2 -8.99202 -2.91884e+06 -4.43455e+06 -2.92481e+06 -1.37758e+06 547765 1.22292e+06
104 3 O 0.0615419 20.2804 50.6669 -1.2 -9.23202 -2.98293e+06 -2.43395e+06 -4.26427e+06 1.2288e+06 -937027 -595919
105 1 Mg -3.09665 18.8643 52.3122 1.2 -7.35396 -1.10083e+06 -760040 4.97742e+06 1.94655e+06 -1.57206e+06 813213
106 3 O 2.61548 20.2646 50.4626 -1.2 -9.50377 -2.44733e+06 -2.21622e+06 -2.62484e+06 -491718 725611 -778594
107 1 Mg -1.43132 18.8321 55.1488 1.2 -7.99432 2.47422e+06 1.36358e+06 912961 -54207.2 -355086 -759602
108 2 Si -1.63388 16.8002 53.2515 2.4 -32.5837 5.8583e+06 5.26959e+06 1.18449e+07 -1.39869e+06 -2.00662e+06 -307745
109 3 O -1.64187 15.1874 53.2246 -1.2 -9.74464 -2.91473e+06 -1.29272e+06 -4.09952e+06 374429 392299 -230962
110 3 O -1.12868 18.1227 46.4249 -1.2 -7.72623 -2.90392e+06 -2.10081e+06 -2.98272e+06 -602290 -1.4947e+06 645572
111 3 O -2.98341 17.4308 53.9594 -1.2 -9.07369 -452735 -3.20324e+06 -3.59244e+06 -1.12135e+06 -420877 -527327
112 3 O -0.406246 17.4518 53.8212 -1.2 -9.60243 -3.97578e+06 -3.02125e+06 -5.31148e+06 -123878 -1.81238e+06 -311714
113 1 Mg -3.07216 25.9948 57.4563 1.2 -7.85217 -84114.8 -579899 3.84005e+06 -1.6623e+06 -1.9192e+06 -1.80864e+06
114 1 Mg -1.48778 25.88 49.8402 1.2 -8.51322 956662 1.78903e+06 2.41803e+06 -166553 325938 745748
115 2 Si -1.00491 23.3922 47.9274 2.4 -34.4795 8.77694e+06 6.17713e+06 1.0591e+07 517445 2.30308e+06 294699
116 3 O -0.927602 24.9615 47.9909 -1.2 -8.62076 -2.68626e+06 -3.88826e+06 -3.38485e+06 446692 -1.93717e+06 -392930
117 3 O -1.55795 22.2588 51.7696 -1.2 -8.98408 -2.00451e+06 -1.28025e+06 -3.97563e+06 -570226 848358 -1.72096e+06
118 3 O -2.17411 22.8111 48.8277 -1.2 -8.75241 -1.131e+06 -3.13264e+06 -4.03448e+06 -13358.1 -354075 -1.5769e+06
119 1 Mg 0.0423997 21.3296 46.8225 1.2 -7.01887 2.07896e+06 -482078 1.15718e+06 1.12516e+06 1.58607e+06 -373689
120 3 O 0.458537 22.7495 48.3911 -1.2 -8.65664 -1.75629e+06 -1.24928e+06 -2.61944e+06 -287717 -324238 390568
121 1 Mg 1.71612 21.0892 54.413 1.2 -7.98499 1.03475e+06 2.15289e+06 -285632 -1.30113e+06 -499607 154167
122 2 Si 1.39388 24.0685 56.3861 2.4 -33.1428 7.85306e+06 5.33903e+06 1.19941e+07 757710 349077 -1.71028e+06
123 3 O 1.45928 22.5107 56.4456 -1.2 -9.09493 -3.20186e+06 156378 -5.80888e+06 -556114 -1.03408e+06 -1.08666e+06
124 3 O 1.54441 24.9963 52.7297 -1.2 -9.21903 -2.91404e+06 -1.83697e+06 -4.68557e+06 -280677 -524704 -908328
125 3 O 0.0410322 24.7061 55.7424 -1.2 -9.38305 -1.24105e+06 -3.74924e+06 -5.21833e+06 -748287 -635172 -76161.5
126 3 O 2.71576 24.8154 55.7582 -1.2 -9.2664 83622.5 -2.92434e+06 -3.77649e+06 513124 306845 581365
127 1 Mg -0.0335968 23.6229 52.2067 1.2 -7.82576 -345583 -2.01864e+06 4.38345e+06 -1.19068e+06 2.33203e+06 1.36249e+06
128 1 Mg 2.01073 23.3445 49.4541 1.2 -7.89743 2.30464e+06 154313 656124 58218.6 -115218 497281
129 2 Si 1.47594 25.6699 51.2449 2.4 -33.1131 7.83322e+06 4.2554e+06 1.15666e+07 265830 240526 649663
130 3 O 1.58172 27.2371 51.3054 -1.2 -9.72633 -3.12744e+06 -1.71095e+06 -4.32035e+06 669353 -656361 379102
131 3 O 1.37977 24.6189 57.8789 -1.2 -8.93669 -3.9267e+06 -4.85252e+06 -5.14022e+06 367322 636441 1.15061e+06
132 3 O 0.157925 25.0378 50.6651 -1.2 -8.86074 -3.23644e+06 -2.06601e+06 -5.49078e+06 1.04379e+06 -586544 -458852
133 1 Mg -3.00341 23.6231 52.3098 1.2 -7.6054 -262823 -959622 4.34768e+06 1.10793e+06 -2.02684e+06 614739
134 3 O 2.71149 25.0232 50.4656 -1.2 -9.33673 -3.12084e+06 -1.86202e+06 -2.8226e+06 -195992 853228 -442027
135 1 Mg -1.48708 23.7414 55.0361 1.2 -7.97473 2.19874e+06 865017 1.97272e+06 -673316 -939684 -1.61758e+06
136 2 Si -1.34728 21.5792 53.3405 2.4 -32.3048 6.87444e+06 4.82323e+06 1.30862e+07 1.56006e+06 1.21378e+06 -1.3049e+06
137 3 O -1.61597 20.007 53.3437 -1.2 -9.8566 -2.44799e+06 -1.01179e+06 -3.74895e+06 2.16234e+06 556596 193534
138 3 O -1.03938 22.8897 46.4223 -1.2 -7.65255 -3.00704e+06 -1.917e+06 -3.18013e+06 -608482 -1.49834e+06 562885
139 3 O -2.67535 22.1641 54.0079 -1.2 -9.3276 -2.04776e+06 -3.07462e+06 -5.22184e+06 9993.59 1.52794e+06 -603847
140 3 O -0.0846288 22.3688 53.8268 -1.2 -9.5221 -1.96154e+06 -885514 -5.11603e+06 500093 -993259 745268
141 1 Mg -2.91557 30.8167 57.2924 1.2 -7.49021 11905.1 -557093 4.51805e+06 -1.41756e+06 -1.76409e+06 -1.04449e+06
142 1 Mg -1.38776 30.6357 49.8391 1.2 -8.59243 1.07729e+06 1.7035e+06 2.50163e+06 -147149 377282 663488
143 2 Si -0.907929 28.1491 47.9262 2.4 -34.6251 9.00702e+06 6.09761e+06 1.06783e+07 492807 2.36117e+06 86479.5
144 3 O -0.829229 29.7184 47.99 -1.2 -8.55475 -2.78956e+06 -3.86171e+06 -3.44263e+06 454890 -1.95077e+06 -314092
145 3 O -1.45946 27.0152 51.769 -1.2 -9.11746 -2.70745e+06 -2.93412e+06 -7.57018e+06 595712 -577487 -508246
146 3 O -2.07744 27.5697 48.8273 -1.2 -8.68789 -1.32144e+06 -3.12356e+06 -3.94342e+06 7378.96 -380249 -1.50939e+06
147 1 Mg 0.137907 26.087 46.819 1.2 -7.10189 2.20174e+06 -631081 1.32396e+06 1.12599e+06 1.59176e+06 -458531
148 3 O 0.55579 27.5065 48.3893 -1.2 -8.56885 -1.82972e+06 -1.2209e+06 -2.70176e+06 -291400 -321297 532405
149 1 Mg 1.43293 26.1285 54.6102 1.2 -8.25947 2.83874e+06 148595 1.32677e+06 -7787.36 157208 905044
150 2 Si 1.29039 28.6963 56.2919 2.4 -32.9544 1.06248e+07 4.81345e+06 1.16839e+07 -556584 1.94636e+06 -348289
151 3 O 1.34138 27.1341 56.4315 -1.2 -9.47348 -4.43618e+06 -1.07886e+06 -5.05447e+06 -821334 -987262 -1.38976e+06
152 3 O 1.6432 29.7522 52.7291 -1.2 -9.11492 -3.64241e+06 -2.80868e+06 -4.93402e+06 1.56938e+06 -216245 -1.2132e+06
153 3 O -0.0799756 29.4091 55.7281 -1.2 -9.0833 -299329 -2.27296e+06 -4.23188e+06 -1.96842e+06 -175270 286790
154 3 O 2.62249 29.312 55.6337 -1.2 -9.23596 -2.11505e+06 -2.93622e+06 -5.9703e+06 1.65948e+06 1.16675e+06 853837
155 1 Mg 0.0647462 28.3794 52.2059 1.2 -7.94675 -505485 -1.08999e+06 5.01052e+06 -981891 1.521e+06 568338
156 1 Mg 2.10696 28.1021 49.4531 1.2 -7.96762 2.42312e+06 149155 664784 116535 -201477 405507
157 2 Si 1.57592 30.4257 51.2442 2.4 -33.3393 8.25383e+06 4.2885e+06 1.15009e+07 -201164 -386847 757320
158 3 O 1.68288 31.9926 51.3043 -1.2 -9.58787 -3.46937e+06 -1.60632e+06 -4.75583e+06 600718 846971 536609
159 3 O 1.45141 29.4036 57.7972 -1.2 -9.01136 -2.8182e+06 -3.39933e+06 -3.7755e+06 1.72291e+06 460114 1.6155e+06
160 3 O 0.258524 29.7935 50.6632 -1.2 -8.76273 -3.25504e+06 -2.16881e+06 -5.59831e+06 1.04154e+06 -574281 -482505
161 1 Mg -2.90462 28.3797 52.308 1.2 -7.66918 67786.6 -2.20568e+06 3.9509e+06 1.93985e+06 -1.77275e+06 1.03119e+06
162 3 O 2.81205 29.7787 50.4664 -1.2 -9.26928 -3.33708e+06 -1.76157e+06 -2.77097e+06 -238309 851396 -390386
163 1 Mg -1.72088 28.3285 55.1572 1.2 -8.56189 1.15808e+06 696506 -364478 644041 -257933 -613803
164 2 Si -1.53221 26.3336 53.1696 2.4 -33.1563 7.97717e+06 4.38533e+06 1.12704e+07 -366895 -847000 918345
165 3 O -1.49191 24.7654 53.0976 -1.2 -9.72399 -3.46749e+06 -1.69141e+06 -5.17719e+06 -349352 -24150.9 -5609.31
166 3 O -0.943026 27.648 46.4208 -1.2 -7.58613 -3.1106e+06 -1.83566e+06 -3.2716e+06 -605343 -1.51025e+06 652462
167 3 O -2.86885 27.0707 53.8634 -1.2 -9.07682 -2.00453e+06 -2.31689e+06 -4.57333e+06 -1.69068e+06 -519247 674565
168 3 O -0.300538 26.973 53.9192 -1.2 -8.92835 -2.23814e+06 -3.23629e+06 -5.10069e+06 1.07035e+06 -968162 490684
169 1 Mg -2.81726 35.4832 57.2922 1.2 -7.9508 -329670 -674918 4.72933e+06 -809364 -734545 -769996
170 1 Mg -1.28421 35.3899 49.8376 1.2 -8.60707 918914 1.86027e+06 2.51746e+06 -195840 263157 717298
171 2 Si -0.807101 32.9036 47.9247 2.4 -34.6982 9.10061e+06 6.16461e+06 1.06365e+07 470752 2.37004e+06 -126263
172 3 O -0.727174 34.4729 47.9885 -1.2 -8.53229 -2.81272e+06 -3.95406e+06 -3.38159e+06 471113 -1.93189e+06 -265624
173 3 O -1.35735 31.7701 51.768 -1.2 -9.0839 -3.12776e+06 -2.33616e+06 -5.92047e+06 362669 -1.62552e+06 -463765
174 3 O -1.97695 32.3253 48.826 -1.2 -8.64432 -1.39386e+06 -3.1529e+06 -3.92709e+06 13504.2 -404819 -1.39081e+06
175 1 Mg 0.237665 30.8412 46.8168 1.2 -7.15295 2.28001e+06 -666769 1.36675e+06 1.12335e+06 1.59188e+06 -546855
176 3 O 0.656562 32.2608 48.3877 -1.2 -8.52311 -1.88634e+06 -1.22273e+06 -2.71566e+06 -288691 -306609 659298
177 1 Mg 1.68712 30.7573 54.5381 1.2 -8.12189 2.76752e+06 751598 763755 -255450 201398 1.24804e+06
178 2 Si 1.46751 33.4361 56.4693 2.4 -33.16 6.30694e+06 3.21574e+06 1.03369e+07 2.00821e+06 268572 209180
179 3 O 1.39961 31.9666 56.541 -1.2 -9.65384 -2.54192e+06 -4.95811e+06 -4.92849e+06 59974.4 -337629 488110
180 3 O 1.74574 34.5067 52.7279 -1.2 -9.50263 -2.68147e+06 -1.52621e+06 -5.45856e+06 -477495 -314449 -1.02154e+06
181 3 O 0.328238 34.1765 55.7104 -1.2 -9.07255 -3.1663e+06 -3.11978e+06 -3.79217e+06 -253322 -1.36154e+06 -189783
182 3 O 2.83421 34.19 55.7813 -1.2 -8.9322 -3.37067e+06 -3.38201e+06 -5.30348e+06 2.45991e+06 1.1732e+06 -1.46577e+06
183 1 Mg 0.167046 33.1343 52.2045 1.2 -8.0592 -700202 -1.36013e+06 4.61196e+06 -1.45838e+06 1.87831e+06 834974
184 1 Mg 2.20727 32.8578 49.4516 1.2 -7.99294 2.52055e+06 184025 582057 157873 -248276 263397
185 2 Si 1.67943 35.1802 51.2429 2.4 -32.9237 8.26882e+06 4.40544e+06 1.05686e+07 417727 376865 246446
186 3 O 1.78736 36.747 51.303 -1.2 -9.90598 -3.05393e+06 -1.87733e+06 -3.43038e+06 800236 -322634 141776
187 3 O 1.601 34.2045 57.8275 -1.2 -9.29337 -3.28061e+06 -1.91805e+06 -7.64256e+06 -450985 359766 -530722
188 3 O 0.362533 34.5479 50.661 -1.2 -8.83939 -3.30093e+06 -2.30745e+06 -5.07822e+06 1.22203e+06 -565186 -228410
189 1 Mg -2.80215 33.1347 52.3062 1.2 -7.45963 404505 -1.48791e+06 4.36249e+06 1.72592e+06 -1.74632e+06 615908
190 3 O 2.91593 34.533 50.466 -1.2 -9.27959 -3.29051e+06 -1.93342e+06 -2.69665e+06 -397594 720046 -452190
191 1 Mg -1.52757 33.3108 55.2311 1.2 -8.04965 1.24108e+06 1.22148e+06 514975 631973 242019 172569
192 2 Si -1.33346 31.0687 53.1971 2.4 -33.4048 8.29954e+06 4.95121e+06 1.26026e+07 1.30787e+06 -218427 149079
193 3 O -1.35921 29.5128 53.1144 -1.2 -9.32762 -3.2482e+06 -1.89652e+06 -5.79998e+06 189389 125831 469948
194 3 O -0.842495 32.4028 46.4192 -1.2 -7.54589 -3.171e+06 -1.83526e+06 -3.27755e+06 -603829 -1.51195e+06 736966
195 3 O -2.45892 31.7169 54.0971 -1.2 -9.40024 -2.20636e+06 -2.04418e+06 -2.82321e+06 -313944 28133.2 147343
196 3 O 0.165765 31.7546 53.6824 -1.2 -8.40852 -587278 -2.55279e+06 -5.36844e+06 1.86463e+06 509862 -33877.6
197 1 Mg -2.60668 40.3018 57.2326 1.2 -8.11064 -526519 -16040.6 4.9451e+06 -411580 -1.57905e+06 -1.01973e+06
198 1 Mg -1.17787 40.1435 49.8359 1.2 -8.68142 1.1027e+06 1.53229e+06 2.79089e+06 -209674 220659 809490
199 2 Si -0.702692 37.6572 47.9231 2.4 -34.7523 9.17774e+06 6.17763e+06 1.06306e+07 487051 2.31679e+06 97440.6
200 3 O -0.621782 39.2264 47.9868 -1.2 -8.48785 -2.89382e+06 -3.8389e+06 -3.48846e+06 462802 -1.92114e+06 -371659
201 3 O -1.25221 36.5242 51.7666 -1.2 -9.19389 -1.2142e+06 -2.53571e+06 -3.25638e+06 107594 29751.2 -1.08994e+06
202 3 O -1.87295 37.0796 48.8243 -1.2 -8.62336 -1.34672e+06 -3.23861e+06 -3.93256e+06 20247.1 -398935 -1.50256e+06
203 1 Mg 0.341084 35.5943 46.8152 1.2 -7.17689 2.32775e+06 -617612 1.31009e+06 1.12195e+06 1.58348e+06 -547489
204 3 O 0.760681 37.0138 48.3864 -1.2 -8.51343 -1.95078e+06 -1.28691e+06 -2.60586e+06 -295283 -292106 544609
205 1 Mg 1.74324 35.5088 54.5116 1.2 -8.36866 1.49595e+06 1.56463e+06 971597 283264 -83868.8 1.35612e+06
206 2 Si 1.75917 38.2745 56.2092 2.4 -33.5644 8.54449e+06 1.86413e+06 1.20109e+07 -224418 1.12898e+06 1.01083e+06
207 3 O 1.79765 36.7618 56.2917 -1.2 -9.13624 -4.02621e+06 -3.54244e+06 -4.87718e+06 26523.9 -595393 -1.65638e+06
208 3 O 1.85132 39.2606 52.7264 -1.2 -9.22682 -3.39498e+06 -1.12869e+06 -5.33714e+06 -124543 -74842.3 -895856
209 3 O 0.496203 38.9413 55.522 -1.2 -9.1821 -1.7895e+06 -2.21299e+06 -4.7918e+06 86486.5 -1.20565e+06 -173383
210 3 O 3.14456 38.9502 55.6978 -1.2 -9.00842 -636555 -2.48429e+06 -5.54326e+06 135389 928234 365052
211 1 Mg 0.272384 37.8883 52.2029 1.2 -7.7676 -780942 -1.35272e+06 5.18732e+06 -906249 2.13118e+06 954748
212 1 Mg 2.31122 37.6122 49.4501 1.2 -7.9946 2.54148e+06 243436 512824 110657 -153004 502577
213 2 Si 1.78573 39.934 51.2414 2.4 -33.3146 8.79395e+06 3.56169e+06 1.16251e+07 468191 402509 907152
214 3 O 1.89428 41.5006 51.3014 -1.2 -9.60035 -3.61429e+06 -1.39383e+06 -4.56038e+06 711630 -269327 267271
215 3 O 1.73283 38.9273 57.7048 -1.2 -8.99589 -2.78866e+06 -1.78522e+06 -5.47712e+06 882252 -312601 -284807
216 3 O 0.469216 39.3015 50.6588 -1.2 -8.73951 -3.62343e+06 -1.90888e+06 -5.69186e+06 1.08163e+06 -396989 -567515
217 1 Mg -2.69668 37.8889 52.3043 1.2 -7.41063 -98766.3 -1.03655e+06 4.67803e+06 1.68091e+06 -1.93011e+06 1.0938e+06
218 3 O 3.0225 39.2866 50.4651 -1.2 -9.19973 -3.34137e+06 -1.73183e+06 -2.98382e+06 -306658 708871 -787169
219 1 Mg -1.16435 37.8713 54.9959 1.2 -8.28333 2.34515e+06 123150 1.00647e+06 8801.72 -673413 -1.97564e+06
220 2 Si -1.24852 35.836 53.3116 2.4 -32.4508 6.50051e+06 3.74464e+06 1.38859e+07 984637 649623 632972
221 3 O -1.31098 34.3026 53.1526 -1.2 -9.77124 -2.74535e+06 -2.15411e+06 -4.75691e+06 1.14671e+06 57946.7 188861
222 3 O -0.738054 37.1566 46.4176 -1.2 -7.51504 -3.21826e+06 -1.84231e+06 -3.27692e+06 -605405 -1.50445e+06 691626
223 3 O -2.44478 36.4754 54.055 -1.2 -9.42775 -3.61584e+06 -2.20574e+06 -5.04299e+06 -286699 1.29805e+06 -1.08884e+06
224 3 O 0.0429513 36.5981 54.0274 -1.2 -9.19712 -1.96273e+06 -2.56561e+06 -4.11669e+06 1.23961e+06 -80590.3 -7833.42
225 1 Mg -2.56014 45.089 57.5049 1.2 -8.34545 -1.50377e+06 -2.67375e+06 5.32522e+06 -3.19869e+06 -1.10577e+06 -1.51089e+06
226 1 Mg -1.06993 44.8968 49.8343 1.2 -8.67862 1.26955e+06 1.58976e+06 2.54687e+06 -154197 243887 621074
227 2 Si -0.596166 42.4103 47.9215 2.4 -34.8678 9.42698e+06 5.88024e+06 1.08686e+07 493557 2.3182e+06 -119993
228 3 O -0.51472 43.9796 47.9853 -1.2 -8.42694 -3.0218e+06 -3.78492e+06 -3.51468e+06 458639 -1.93225e+06 -256419
229 3 O -1.14475 41.2777 51.7649 -1.2 -8.73556 -3.2557e+06 -2.31878e+06 -7.34246e+06 419733 -185772 -488137
230 3 O -1.76671 41.8331 48.8226 -1.2 -8.55929 -1.46723e+06 -2.99323e+06 -4.14665e+06 27294.7 -347019 -1.40037e+06
231 1 Mg 0.447076 40.3473 46.8135 1.2 -7.22693 2.41301e+06 -743272 1.43061e+06 1.12613e+06 1.58768e+06 -521860
232 3 O 0.866985 41.7666 48.385 -1.2 -8.4484 -2.05369e+06 -1.0818e+06 -2.80351e+06 -300800 -325972 622125
233 1 Mg 1.85828 40.4647 54.5173 1.2 -8.19749 2.12678e+06 1.14851e+06 1.8042e+06 444955 194157 1.38485e+06
234 2 Si 1.85756 43.1658 56.4884 2.4 -33.4886 1.1772e+07 2.20224e+06 1.06804e+07 361418 238890 -1.10458e+06
235 3 O 1.84138 41.5925 56.4422 -1.2 -9.44726 -3.84909e+06 388766 -3.91246e+06 -166774 -85227.7 972837
236 3 O 1.95891 44.014 52.7248 -1.2 -9.12496 -3.5086e+06 -1.59515e+06 -5.29588e+06 44695 -924090 -1.00071e+06
237 3 O 0.552776 43.7398 55.7277 -1.2 -8.98114 -4.167e+06 -3.58407e+06 -3.93645e+06 -396606 246375 1.33786e+06
238 3 O 3.19213 43.7601 55.8113 -1.2 -8.28638 -1.82405e+06 -3.02687e+06 -5.4154e+06 546559 -4487.24 992321
239 1 Mg 0.379928 42.6418 52.2013 1.2 -7.84807 299125 -1.72073e+06 4.70773e+06 -1.38251e+06 1.60677e+06 1.38398e+06
240 1 Mg 2.41752 42.366 49.4484 1.2 -8.08156 2.57289e+06 7979.34 863738 102495 -140753 305480
241 2 Si 1.89374 44.6874 51.2398 2.4 -33.3957 8.16286e+06 3.74619e+06 1.21204e+07 178754 703264 208445
242 3 O 2.00266 46.254 51.2996 -1.2 -9.52244 -3.27051e+06 -1.5813e+06 -4.51133e+06 687538 -810794 691121
243 3 O 1.91608 43.8431 57.9164 -1.2 -9.14413 -5.58256e+06 -1.56388e+06 -6.07365e+06 477727 1.34673e+06 1.18266e+06
244 3 O 0.577464 44.0549 50.6567 -1.2 -8.80623 -3.34238e+06 -1.91131e+06 -5.1471e+06 1.15917e+06 -952684 -374370
245 1 Mg -2.58906 42.6425 52.3022 1.2 -7.85647 -484458 -1.60672e+06 4.99705e+06 1.51824e+06 -1.58643e+06 1.07068e+06
246 3 O 3.13067 44.0398 50.464 -1.2 -9.17952 -3.13885e+06 -1.70003e+06 -3.15457e+06 -239424 936479 -328243
247 1 Mg -0.995594 42.7308 55.0233 1.2 -8.71668 2.66367e+06 240836 2.73511e+06 -567599 -941514 -969968
248 2 Si -1.07306 40.5956 53.217 2.4 -33.4685 7.80888e+06 2.39556e+06 1.267e+07 -697521 -614196 427439
249 3 O -1.1097 39.0927 53.0734 -1.2 -9.54132 -3.50481e+06 -3.00967e+06 -6.68458e+06 911035 321126 944558
250 3 O -0.631421 41.9099 46.4159 -1.2 -7.46009 -3.31403e+06 -1.72783e+06 -3.38232e+06 -605729 -1.50458e+06 725988
251 3 O -2.35389 41.3 53.9266 -1.2 -8.95066 -1.38121e+06 -2.28984e+06 -5.2737e+06 -1.03498e+06 1.05531e+06 -23398.7
252 3 O 0.223329 41.3465 53.7699 -1.2 -9.20621 -3.59803e+06 -2.25341e+06 -5.7255e+06 1.16815e+06 -1.34548e+06 122051
253 1 Mg -2.23494 49.8232 57.2774 1.2 -8.22873 730948 -1.66128e+06 4.92791e+06 19255.7 -1.9534e+06 -1.15956e+06
254 1 Mg -0.961069 49.6502 49.8327 1.2 -9.01643 1.70411e+06 1.44923e+06 2.81233e+06 -160987 241652 517444
255 2 Si -0.488083 47.1636 47.9198 2.4 -35.1325 9.84342e+06 5.69113e+06 1.10665e+07 478995 2.32642e+06 -67299
256 3 O -0.40607 48.7329 47.9837 -1.2 -8.2535 -3.28392e+06 -3.58689e+06 -3.71407e+06 463678 -1.9269e+06 -223657
257 3 O -1.0361 46.031 51.7632 -1.2 -9.06955 -2.74137e+06 -2.45765e+06 -7.27703e+06 579923 -6637.56 214956
258 3 O -1.65866 46.5866 48.821 -1.2 -8.44002 -1.68673e+06 -2.98757e+06 -4.11878e+06 8767.56 -353579 -1.43047e+06
259 1 Mg 0.554124 45.1001 46.8117 1.2 -7.30489 2.53786e+06 -803189 1.49127e+06 1.12237e+06 1.59546e+06 -558720
260 3 O 0.974961 46.5195 48.3832 -1.2 -8.32956 -2.22671e+06 -1.05031e+06 -2.84763e+06 -282649 -328133 632544
261 1 Mg 1.7738 44.9031 54.5885 1.2 -8.61973 4.07449e+06 -368020 401654 271368 5533.11 1.07776e+06
262 2 Si 1.96382 47.7356 56.3256 2.4 -33.7134 8.56845e+06 4.19657e+06 1.36102e+07 120271 95564.6 770945
263 3 O 1.91057 46.1922 56.3356 -1.2 -9.25552 -4.40296e+06 -1.58731e+06 -4.55343e+06 925064 571726 851936
264 3 O 2.0677 48.7672 52.7232 -1.2 -8.71601 -4.25572e+06 -2.5738e+06 -5.2615e+06 1.54409e+06 104243 -534527
265 3 O 0.693721 48.4457 55.7572 -1.2 -8.69515 -2.65029e+06 -1.09189e+06 -4.89146e+06 271791 156952 732102
266 3 O 3.24014 48.4311 55.6944 -1.2 -8.94885 -3.09785e+06 -2.15619e+06 -4.50556e+06 690214 105317 -98744.5
267 1 Mg 0.488584 47.395 52.1996 1.2 -8.05223 226905 -1.23384e+06 5.10177e+06 -1.103e+06 1.93904e+06 60046.9
268 1 Mg 2.52544 47.1195 49.4466 1.2 -8.23911 2.8397e+06 1969.3 861517 135773 -160116 296543
269 2 Si 2.00256 49.4407 51.2382 2.4 -34.203 9.91971e+06 3.94227e+06 1.15914e+07 -32862.5 26421.2 134063
270 3 O 2.11156 51.0073 51.2982 -1.2 -9.04689 -4.52172e+06 -1.4508e+06 -4.74144e+06 566970 315760 751141
271 3 O 1.99304 48.4433 57.971 -1.2 -8.34321 -3.79108e+06 304603 -2.90056e+06 -411555 182035 2.59066e+06
272 3 O 0.686344 48.8082 50.655 -1.2 -8.40425 -4.16314e+06 -1.90729e+06 -5.64487e+06 1.0702e+06 -533041 -246205