ITEM: TIMESTEP
65400
ITEM: NUMBER OF ATOMS
10500
ITEM: BOX BOUNDS xy xz yz pp pp pp
0.0000000000000000e+00 8.9687999999999999e+00 2.9895999999999998e+00
0.0000000000000000e+00 1.1872499999999999e+02 0.0000000000000000e+00
0.0000000000000000e+00 2.5297749999999999e+02 0.0000000000000000e+00
ITEM: ATOMS id type element xu yu zu q c_pe c_s[1] c_s[2] c_s[3] c_s[4] c_s[5] c_s[6]
1 1 Mg -3.25484 7.04527 57.2536 1.2 -7.33206 -958132 -38980 4.50034e+06 -1.15619e+06 -1.36696e+06 -537671
2 1 Mg -1.82655 6.90154 50.0912 1.2 -8.19002 -120657 1.02151e+06 1.42437e+06 -126688 -284697 1.58874e+06
3 2 Si -0.257935 3.96038 48.0876 2.4 -35.8109 9.62322e+06 8.97882e+06 1.06278e+07 788817 1.97873e+06 2.16903e+06
4 3 O -0.335812 5.46814 47.6264 -1.2 -7.88201 -2.93285e+06 -2.51676e+06 -2.47879e+06 148923 -964080 -824288
5 3 O -2.03793 3.43377 51.8941 -1.2 -9.095 -3.12931e+06 -2.22979e+06 -7.2995e+06 -1.19463e+06 15161.8 -1.16156e+06
6 3 O -1.54015 3.53929 48.9521 -1.2 -8.44647 -1.07793e+06 -1.75286e+06 -4.18804e+06 37898 -749287 -454746
7 1 Mg 1.82954 2.54582 47.1376 1.2 -7.84782 2.37379e+06 -352082 602819 1.15085e+06 826795 749958
8 3 O 1.22989 3.66364 48.7877 -1.2 -8.15384 -1.42752e+06 -2.4955e+06 -3.57183e+06 -486136 -708890 -1.17145e+06
9 1 Mg 1.22937 2.31966 54.5597 1.2 -7.90925 131291 -43836.3 1.91676e+06 -2.47004e+06 1.68454e+06 1.01141e+06
10 2 Si 0.922328 5.04529 56.3982 2.4 -32.7839 7.67214e+06 3.33524e+06 9.9818e+06 69802.5 283141 39515.5
11 3 O 0.685037 3.53248 56.5801 -1.2 -9.54289 -2.98778e+06 -2.48341e+06 -4.87675e+06 -69569.9 -479615 14248.6
12 3 O 1.10813 6.07342 52.8172 -1.2 -9.34434 -3.20688e+06 -2.95688e+06 -4.21961e+06 -825399 -1.10508e+06 -1.10414e+06
13 3 O -0.424658 5.70602 55.8258 -1.2 -9.39537 -1.36687e+06 -4.17252e+06 -5.21832e+06 -207135 -1.94629e+06 -45430.4
14 3 O 2.26926 5.48457 55.6789 -1.2 -9.48076 -1.46499e+06 -2.65872e+06 -5.41229e+06 991473 1.6422e+06 881236
15 1 Mg -0.459401 4.67631 52.2426 1.2 -7.96422 -725035 -1.70606e+06 5.18864e+06 -1.6213e+06 1.14992e+06 914231
16 1 Mg 2.79456 3.9971 49.9987 1.2 -8.2234 3.37926e+06 -17949.3 1.56971e+06 -477056 826790 -671937
17 2 Si 1.16169 6.59457 51.2556 2.4 -33.3629 7.41984e+06 6.01256e+06 1.13559e+07 341705 969123 2.81078e+06
18 3 O 1.28989 8.18905 51.2909 -1.2 -9.61716 -2.89024e+06 -1.62731e+06 -3.48579e+06 335471 -1.24765e+06 650331
19 3 O 1.05741 5.76456 57.7903 -1.2 -9.43666 -2.94277e+06 -3.95843e+06 -7.17902e+06 510433 -1.17787e+06 707759
20 3 O -0.184847 6.06029 50.6845 -1.2 -8.824 -2.91507e+06 -3.10864e+06 -4.9387e+06 1.57531e+06 -299756 -1.53521e+06
21 1 Mg -3.49704 4.67769 52.6661 1.2 -7.43754 -227140 -1.49729e+06 3.41286e+06 2.16207e+06 -1.03391e+06 594173
22 3 O 2.48581 5.93312 50.6539 -1.2 -9.34259 -2.93691e+06 -1.47061e+06 -3.28467e+06 -1.697e+06 -697061 -1.10791e+06
23 1 Mg -1.97768 4.61747 55.3071 1.2 -8.13568 421198 755323 347328 25924.9 -737880 -963834
24 2 Si -1.90958 2.63382 53.2558 2.4 -33.2655 6.51822e+06 1.65025e+06 1.28907e+07 2.62014e+06 381614 -814457
25 3 O -1.89692 1.11385 53.177 -1.2 -9.79795 -3.88501e+06 -2.77034e+06 -5.60527e+06 1.02921e+06 655182 -559348
26 3 O -0.0467762 2.97103 46.8385 -1.2 -7.14537 -2.74641e+06 -2.28769e+06 -2.74064e+06 -988095 -2.00732e+06 -866271
27 3 O -3.13939 3.04812 54.1227 -1.2 -9.14548 -5.57437e+06 -4.2365e+06 -6.11317e+06 -1.2953e+06 1.28881e+06 147600
28 3 O -0.598807 3.39518 53.8814 -1.2 -8.86226 -1.45396e+06 -1.65702e+06 -5.24834e+06 840766 9373.15 773975
29 1 Mg -3.26442 11.7192 57.4573 1.2 -7.54309 -431234 -2.72184e+06 3.95773e+06 -426503 -2.1731e+06 -99679.1
30 1 Mg -1.75014 11.5838 49.8362 1.2 -8.49548 926087 1.83113e+06 2.55097e+06 -301689 277233 1.04554e+06
31 2 Si -1.18003 9.02138 47.9309 2.4 -34.4154 8.41943e+06 7.22303e+06 9.70317e+06 241830 2.58855e+06 858976
32 3 O -1.23224 10.5991 47.9811 -1.2 -8.68071 -2.5614e+06 -3.55306e+06 -2.82271e+06 649853 -1.91627e+06 -231324
33 3 O -1.79016 8.01447 51.8693 -1.2 -9.0546 -2.04167e+06 -2.12241e+06 -3.48801e+06 78886.5 147364 -1.85219e+06
34 3 O -2.30986 8.37215 48.8528 -1.2 -8.97713 -973868 -2.59098e+06 -3.36051e+06 -326597 -604235 -1.05127e+06
35 1 Mg 0.154883 7.08234 46.8007 1.2 -7.48021 1.82742e+06 -113008 753033 943543 1.72256e+06 -700062
36 3 O 0.325447 8.50934 48.3809 -1.2 -8.6309 -1.42926e+06 -2.01101e+06 -2.67847e+06 -40325 -824144 115152
37 1 Mg 0.99891 7.06939 54.6491 1.2 -7.82763 2.36135e+06 811742 1.26677e+06 94884.2 -910346 1.29303e+06
38 2 Si 1.24509 9.77838 56.3661 2.4 -31.8281 9.69404e+06 3.65579e+06 1.2948e+07 -1.02755e+06 -418667 1.5208e+06
39 3 O 0.9943 8.20573 56.4385 -1.2 -9.8022 -3.40029e+06 911646 -4.24941e+06 549293 -424735 -237681
40 3 O 1.28624 10.7248 52.7351 -1.2 -9.13339 -3.1858e+06 -1.62697e+06 -3.8788e+06 664767 -790002 -1.15427e+06
41 3 O -0.169632 10.5328 55.9846 -1.2 -9.38118 -756419 -4.11277e+06 -5.37452e+06 -1.53187e+06 -489246 -855563
42 3 O 2.4993 10.4033 55.7446 -1.2 -9.77194 -1.31492e+06 -2.34775e+06 -5.36408e+06 426236 449103 70695.7
43 1 Mg -0.262694 9.34741 52.2523 1.2 -7.5937 276373 -292802 4.63667e+06 -1.32254e+06 1.20893e+06 1.49782e+06
44 1 Mg 1.87648 9.01537 49.4629 1.2 -7.87454 1.98597e+06 556824 288885 219555 -217890 530823
45 2 Si 1.21415 11.3799 51.2378 2.4 -33.1842 8.14693e+06 4.47593e+06 1.14334e+07 121793 520864 1.29241e+06
46 3 O 1.31634 12.9512 51.3023 -1.2 -9.74476 -3.049e+06 -1.71208e+06 -3.88448e+06 538397 -376736 506217
47 3 O 1.35814 10.4106 58.0733 -1.2 -9.08917 -4.73918e+06 -993196 -1.48106e+06 27739.4 230250 1.11467e+06
48 3 O -0.115718 10.7564 50.681 -1.2 -8.89938 -3.07296e+06 -2.32171e+06 -4.66813e+06 1.25396e+06 -667933 -1.10263e+06
49 1 Mg -3.26386 9.35564 52.3622 1.2 -7.66601 -544187 -506900 4.19147e+06 1.82143e+06 -1.56665e+06 1.44056e+06
50 3 O 2.45216 10.7265 50.4558 -1.2 -9.37408 -2.809e+06 -1.83091e+06 -2.42445e+06 -777645 569201 -384816
51 1 Mg -1.59933 9.61309 55.1407 1.2 -8.35001 119761 -28003 745654 -303446 -262830 -1.54099e+06
52 2 Si -1.85499 7.36721 53.4859 2.4 -32.9225 6.5142e+06 4.55523e+06 1.30371e+07 -772478 -1.17991e+06 533443
53 3 O -1.95999 5.8437 53.3676 -1.2 -9.53933 -3.02648e+06 -2.41267e+06 -5.43118e+06 1.70041e+06 -101795 327263
54 3 O -1.19417 8.46968 46.4488 -1.2 -7.64085 -2.72204e+06 -2.0285e+06 -2.96318e+06 -542210 -1.7393e+06 528290
55 3 O -3.25419 8.02393 54.0256 -1.2 -8.90976 -958910 -3.22808e+06 -3.81006e+06 -1.12842e+06 -732635 -1.35074e+06
56 3 O -0.723493 8.16869 54.1322 -1.2 -9.55262 -3.96747e+06 -2.76913e+06 -6.40658e+06 864796 -1.00175e+06 -675863
57 1 Mg -2.98668 16.3459 57.3416 1.2 -7.69863 -293160 -3.76753e+06 5.18986e+06 -2.13183e+06 -1.93695e+06 -1.37673e+06
58 1 Mg -1.6714 16.3544 49.8412 1.2 -8.6439 1.18513e+06 1.65061e+06 2.57828e+06 -203481 175577 1.00069e+06
59 2 Si -1.18567 13.8526 47.9314 2.4 -34.5247 8.90824e+06 6.05514e+06 1.05824e+07 499377 2.26262e+06 183046
60 3 O -1.09664 15.4205 47.9915 -1.2 -8.58866 -2.68988e+06 -3.70749e+06 -3.37256e+06 427784 -1.93411e+06 -444589
61 3 O -1.73493 12.7491 51.7772 -1.2 -9.20454 -2.18789e+06 -1.74556e+06 -4.62896e+06 448499 -210853 -350241
62 3 O -2.36115 13.2717 48.8238 -1.2 -8.72216 -1.29001e+06 -3.02885e+06 -3.9072e+06 -92314.4 -355144 -1.46379e+06
63 1 Mg -0.159928 11.7639 46.8533 1.2 -7.05025 2.16066e+06 -628887 1.27519e+06 1.12894e+06 1.57375e+06 -585786
64 3 O 0.2623 13.1866 48.413 -1.2 -8.62636 -1.77707e+06 -1.07028e+06 -2.72342e+06 -208273 -300556 552632
65 1 Mg 1.39388 11.9846 54.7462 1.2 -7.76179 1.9699e+06 217046 1.30512e+06 -1.26053e+06 821459 1.69458e+06
66 2 Si 1.4862 14.3806 56.6727 2.4 -32.2776 7.01484e+06 -1.17179e+06 1.56521e+07 -431302 402411 -1.69197e+06
67 3 O 1.44946 12.9547 56.7491 -1.2 -10.1272 -5.51676e+06 -6.56862e+06 -6.25153e+06 681261 -470597 1.62546e+06
68 3 O 1.36565 15.4813 52.729 -1.2 -9.06399 -3.30525e+06 -2.00963e+06 -5.4058e+06 122636 -243828 -1.27752e+06
69 3 O 0.259287 15.1063 55.7458 -1.2 -8.77669 -2.68588e+06 -2.654e+06 -2.14863e+06 -1.56571e+06 965967 -72724.3
70 3 O 2.72581 15.0411 55.8482 -1.2 -9.13135 -4.11337e+06 -2.46879e+06 -5.38941e+06 1.23508e+06 65723.2 -666509
71 1 Mg -0.206989 14.1049 52.2121 1.2 -7.66206 -97040.6 -518758 5.16545e+06 -1.40062e+06 1.55308e+06 1.36402e+06
72 1 Mg 1.82591 13.8102 49.4556 1.2 -7.9428 2.33476e+06 394973 542203 134119 -136084 525179
73 2 Si 1.29285 16.1518 51.2434 2.4 -33.4773 8.35818e+06 3.90464e+06 1.19511e+07 264452 530910 951636
74 3 O 1.39496 17.7199 51.3047 -1.2 -9.4088 -3.7231e+06 -1.32254e+06 -4.47689e+06 636063 -594819 797135
75 3 O 1.57584 15.2105 58.1069 -1.2 -9.16523 -2.67444e+06 -2.35508e+06 -5.43952e+06 -138934 731497 1.29011e+06
76 3 O -0.0269106 15.5178 50.6688 -1.2 -8.87041 -3.24262e+06 -2.0753e+06 -4.87055e+06 1.16792e+06 -1.02702e+06 -728228
77 1 Mg -3.18391 14.1057 52.3125 1.2 -7.59294 -390850 -755762 4.76116e+06 1.84284e+06 -1.44887e+06 1.35634e+06
78 3 O 2.52432 15.503 50.4579 -1.2 -9.22779 -2.97615e+06 -1.86826e+06 -2.75629e+06 -389865 937957 -669490
79 1 Mg -1.49117 14.178 55.3007 1.2 -8.348 1.98484e+06 1.66363e+06 1.0186e+06 -42189.3 283267 -1.29697e+06
80 2 Si -1.72224 12.1195 53.2871 2.4 -33.3877 7.43667e+06 2.78034e+06 1.19427e+07 318074 -259358 702736
81 3 O -1.79837 10.6116 53.2977 -1.2 -9.37184 -3.77425e+06 -4.32125e+06 -4.69549e+06 165156 651473 305532
82 3 O -1.21337 13.3381 46.4311 -1.2 -7.62915 -3.1083e+06 -1.71592e+06 -3.3257e+06 -631499 -1.45353e+06 656711
83 3 O -3.00327 12.7369 54.0213 -1.2 -9.07334 -2.8214e+06 -5.08658e+06 -2.82226e+06 -611418 233346 -604280
84 3 O -0.411617 12.7222 53.9318 -1.2 -9.17761 -1.98845e+06 -3.19312e+06 -3.26254e+06 -308129 25649.2 -678657
85 1 Mg -2.90181 21.2941 57.3135 1.2 -7.15503 -1.63797e+06 -1.53375e+06 4.13604e+06 -784409 -2.28289e+06 -901066
86 1 Mg -1.5831 21.1217 49.8405 1.2 -8.77886 1.30383e+06 1.91275e+06 2.40055e+06 -125672 303422 266435
87 2 Si -1.09384 18.6291 47.9287 2.4 -34.8729 9.40693e+06 5.70252e+06 1.10604e+07 492110 2.30316e+06 -39116.2
88 3 O -1.02071 20.1985 47.9911 -1.2 -8.43913 -2.95977e+06 -3.72711e+06 -3.48068e+06 447284 -1.92859e+06 -147920
89 3 O -1.65002 17.5002 51.771 -1.2 -8.68468 -3.25768e+06 -2.14607e+06 -6.25004e+06 463551 55530.5 -569447
90 3 O -2.26174 18.0434 48.8281 -1.2 -8.52196 -1.53893e+06 -2.84058e+06 -4.22913e+06 -33534.7 -362129 -1.39252e+06
91 1 Mg -0.0440435 16.5651 46.8269 1.2 -7.16755 2.28696e+06 -773585 1.46577e+06 1.13157e+06 1.58227e+06 -440410
92 3 O 0.37001 17.9877 48.3925 -1.2 -8.43872 -2.08634e+06 -982219 -2.88617e+06 -274907 -330216 583880
93 1 Mg 1.51472 16.325 54.596 1.2 -8.93661 3.20289e+06 1.119e+06 1.13314e+06 -616295 188326 821479
94 2 Si 1.35868 19.2554 56.4214 2.4 -33.2051 7.45839e+06 6.17892e+06 1.119e+07 673165 129250 345336
95 3 O 1.4127 17.599 56.4254 -1.2 -8.9133 -3.59646e+06 2.41363e+06 -5.57184e+06 -913645 -258879 -581625
96 3 O 1.45147 20.239 52.7294 -1.2 -8.892 -4.80107e+06 -3.11813e+06 -4.55171e+06 775106 -544913 -1.07081e+06
97 3 O 0.0834876 19.9346 55.7409 -1.2 -9.4658 -1.48831e+06 -2.80935e+06 -6.00109e+06 -1.34866e+06 -1.01152e+06 346431
98 3 O 2.71249 19.8755 55.8297 -1.2 -9.39528 -1.32033e+06 -3.18722e+06 -5.19754e+06 1.10988e+06 726516 -95574.9
99 1 Mg -0.126194 18.8651 52.2079 1.2 -8.1609 614914 -1.11218e+06 4.50664e+06 -1.41959e+06 2.05558e+06 -62422.6
100 1 Mg 1.92402 18.5815 49.4545 1.2 -8.17807 2.74518e+06 -15396.6 830966 123504 -90150.8 229938
101 2 Si 1.38106 20.9117 51.2443 2.4 -33.7301 9.45631e+06 4.68598e+06 1.06449e+07 -244538 242824 1145.45
102 3 O 1.48527 22.4795 51.3054 -1.2 -9.59018 -3.49479e+06 -2.25161e+06 -3.81412e+06 620529 -102823 844866
103 3 O 1.23497 19.8656 57.8401 -1.2 -9.21743 -3.8684e+06 -2.5651e+06 -7.96505e+06 278204 -1.06706e+06 707146
104 3 O 0.0615419 20.2804 50.6669 -1.2 -8.52635 -4.00397e+06 -2.20235e+06 -5.27222e+06 1.02514e+06 -370474 -165032
105 1 Mg -3.09665 18.8643 52.3122 1.2 -8.14644 -799888 -2.13319e+06 3.69401e+06 1.12729e+06 -2.56191e+06 -238777
106 3 O 2.61548 20.2646 50.4626 -1.2 -8.96586 -3.76567e+06 -1.81063e+06 -3.08851e+06 -177162 453625 116708
107 1 Mg -1.61062 18.9681 55.1831 1.2 -8.18772 2.26675e+06 813938 1.93354e+06 -358889 333809 -1.09694e+06
108 2 Si -1.62567 16.8662 53.2541 2.4 -34.1975 8.77514e+06 2.92901e+06 1.13793e+07 -393834 106264 -2.05695e+06
109 3 O -1.74696 15.3125 53.3629 -1.2 -9.09084 -4.01902e+06 -1.47415e+06 -3.32363e+06 80369 275225 142012
110 3 O -1.12868 18.1227 46.4249 -1.2 -7.5131 -3.24392e+06 -1.60988e+06 -3.47252e+06 -604046 -1.49452e+06 666137
111 3 O -2.9569 17.5041 53.9107 -1.2 -8.54722 -3.91318e+06 -2.60961e+06 -4.63153e+06 280983 593103 718574
112 3 O -0.379758 17.4721 53.8958 -1.2 -8.56222 -4.30619e+06 -1.63579e+06 -4.90124e+06 -341254 -1.78093e+06 693711
113 1 Mg -2.85446 25.8536 57.753 1.2 -6.77024 -1.01773e+06 -2.66736e+06 5.56903e+06 -712091 -1.40622e+06 -88222.7
114 1 Mg -1.48778 25.88 49.8402 1.2 -8.81562 1.13431e+06 1.95283e+06 2.54078e+06 -232131 180691 1.44312e+06
115 2 Si -1.00491 23.3922 47.9274 2.4 -34.8557 9.36538e+06 6.54553e+06 1.02356e+07 476812 2.35061e+06 34291.9
116 3 O -0.927602 24.9615 47.9909 -1.2 -8.4445 -2.94829e+06 -4.04568e+06 -3.26092e+06 474618 -1.91669e+06 -555098
117 3 O -1.55795 22.2588 51.7696 -1.2 -8.69902 -4.12856e+06 -3.28058e+06 -8.23223e+06 452793 -1.69494e+06 902115
118 3 O -2.17411 22.8111 48.8277 -1.2 -8.55559 -1.52986e+06 -3.45948e+06 -3.60323e+06 4667.16 -384074 -1.32406e+06
119 1 Mg 0.0423997 21.3296 46.8225 1.2 -7.23264 2.40865e+06 -710781 1.39886e+06 1.12754e+06 1.58661e+06 -621419
120 3 O 0.458537 22.7495 48.3911 -1.2 -8.43804 -2.05041e+06 -1.44539e+06 -2.47192e+06 -291023 -320182 681256
121 1 Mg 1.33852 21.1897 54.5293 1.2 -8.07356 2.07145e+06 997663 1.02817e+06 40896.4 202701 708997
122 2 Si 1.57814 23.847 56.3272 2.4 -32.7969 6.43967e+06 3.98932e+06 9.07024e+06 -1.91685e+06 314207 463199
123 3 O 1.52184 22.3255 56.3892 -1.2 -10.0516 -2.33973e+06 -5.13588e+06 -4.42957e+06 636259 574110 -268246
124 3 O 1.54441 24.9963 52.7297 -1.2 -9.49667 -2.74685e+06 -2.17843e+06 -5.11075e+06 -946216 -672678 -1.23409e+06
125 3 O 0.173254 24.5396 55.7212 -1.2 -8.68494 -1.95988e+06 -2.12751e+06 -4.57283e+06 -1.43244e+06 -653130 458052
126 3 O 2.72034 24.5333 55.6556 -1.2 -9.29423 -4.95593e+06 -3.21738e+06 -4.68979e+06 -435814 2.26173e+06 203669
127 1 Mg -0.0335968 23.6229 52.2067 1.2 -7.77014 -680082 216904 3.9963e+06 -1.30218e+06 1.75567e+06 840296
128 1 Mg 2.01073 23.3445 49.4541 1.2 -8.07692 2.5944e+06 673026 134608 149611 -212650 308203
129 2 Si 1.47594 25.6699 51.2449 2.4 -33.3109 9.4848e+06 4.87766e+06 9.49229e+06 704720 809057 1.3454e+06
130 3 O 1.58172 27.2371 51.3054 -1.2 -9.54612 -4.24814e+06 -1.79395e+06 -3.12031e+06 850894 -1.1023e+06 -180914
131 3 O 1.52699 24.5296 57.7814 -1.2 -9.68633 -2.309e+06 -2.08038e+06 -9.02303e+06 1.21103e+06 -510575 1.42981e+06
132 3 O 0.157925 25.0378 50.6651 -1.2 -8.75304 -3.46199e+06 -2.77598e+06 -4.25886e+06 1.43965e+06 -713574 -900877
133 1 Mg -3.00341 23.6231 52.3098 1.2 -7.37009 -173008 -305028 3.83555e+06 2.08778e+06 -1.76546e+06 985005
134 3 O 2.71149 25.0232 50.4656 -1.2 -9.15719 -3.30231e+06 -2.50423e+06 -2.05808e+06 -607836 806676 -1.114e+06
135 1 Mg -1.42145 23.575 54.9909 1.2 -7.90177 1.92571e+06 823359 347099 -181445 -219405 275862
136 2 Si -1.63442 21.5722 53.1692 2.4 -33.4484 6.27902e+06 4.17137e+06 8.82619e+06 750138 -1.42567e+06 35075.1
137 3 O -1.70404 19.9728 52.9754 -1.2 -8.99432 -5.04046e+06 -3.37486e+06 -5.44833e+06 -878118 206365 1.01769e+06
138 3 O -1.03938 22.8897 46.4223 -1.2 -7.48489 -3.27312e+06 -1.81557e+06 -3.2832e+06 -605444 -1.50504e+06 700503
139 3 O -2.86591 22.1454 53.8805 -1.2 -9.35765 -3.12188e+06 -3.48892e+06 -4.63516e+06 9834.27 1.59578e+06 -1.12804e+06
140 3 O -0.3064 22.1001 53.7019 -1.2 -9.1336 -4.41671e+06 -3.4441e+06 -7.49029e+06 579438 -2.70262e+06 -407649
141 1 Mg -2.40914 30.7012 57.17 1.2 -7.11865 -461811 -2.90498e+06 4.14545e+06 -2.15091e+06 -2.28463e+06 -654292
142 1 Mg -1.38776 30.6357 49.8391 1.2 -8.69844 1.30004e+06 1.75637e+06 2.39933e+06 -191323 302214 1.22847e+06
143 2 Si -0.907929 28.1491 47.9262 2.4 -34.9269 9.45553e+06 5.93117e+06 1.08784e+07 514501 2.28164e+06 525474
144 3 O -0.829229 29.7184 47.99 -1.2 -8.44508 -2.97288e+06 -3.75677e+06 -3.54177e+06 445979 -1.93125e+06 -580812
145 3 O -1.45946 27.0152 51.769 -1.2 -8.11835 -1.90059e+06 -1.03878e+06 -2.65634e+06 239209 1.48778e+06 -2.26337e+06
146 3 O -2.07744 27.5697 48.8273 -1.2 -8.46607 -1.54092e+06 -3.10358e+06 -4.13074e+06 23528 -402139 -1.73544e+06
147 1 Mg 0.137907 26.087 46.819 1.2 -7.24039 2.43239e+06 -697806 1.38186e+06 1.12283e+06 1.57799e+06 -324674
148 3 O 0.55579 27.5065 48.3893 -1.2 -8.39658 -2.18384e+06 -1.17992e+06 -2.6815e+06 -305864 -280802 264354
149 1 Mg 1.66623 25.9754 54.5015 1.2 -8.04716 1.40926e+06 746445 1.42279e+06 -688897 20847.7 1.07241e+06
150 2 Si 1.97568 28.6805 56.2885 2.4 -32.3039 6.2552e+06 5.92072e+06 1.20764e+07 -342974 -1.00746e+06 1.22936e+06
151 3 O 1.57395 27.1844 56.3981 -1.2 -9.65685 -1.85159e+06 -1.20405e+06 -3.32947e+06 1.14099e+06 32969 -1.61039e+06
152 3 O 1.6432 29.7522 52.7291 -1.2 -8.87535 -3.37286e+06 -1.76078e+06 -4.39552e+06 719393 265705 -1.87506e+06
153 3 O 0.614775 29.5193 55.7127 -1.2 -9.06673 -166776 -2.28928e+06 -5.07253e+06 -491352 -1.14239e+06 -86671.4
154 3 O 3.20343 29.3854 55.5948 -1.2 -9.7846 -2.55162e+06 -960877 -5.64763e+06 608391 1.09005e+06 -1.83672e+06
155 1 Mg 0.0647462 28.3794 52.2059 1.2 -7.97372 470373 -621827 4.11215e+06 -218409 1.80977e+06 1.71989e+06
156 1 Mg 2.10696 28.1021 49.4531 1.2 -8.17177 2.82242e+06 186931 553009 47970.5 -60390.9 747721
157 2 Si 1.57592 30.4257 51.2442 2.4 -33.6752 8.53858e+06 4.38025e+06 1.16467e+07 330462 43136.7 2.30648e+06
158 3 O 1.68288 31.9926 51.3043 -1.2 -9.41243 -3.68306e+06 -1.50245e+06 -4.8609e+06 486536 -872081 -341609
159 3 O 2.0329 29.4111 57.7524 -1.2 -9.57858 -2.03444e+06 -1.14908e+06 -6.63002e+06 -1.12192e+06 -1.62875e+06 618908
160 3 O 0.258524 29.7935 50.6632 -1.2 -8.62454 -3.62442e+06 -2.1836e+06 -5.43428e+06 912180 -611843 -1.07973e+06
161 1 Mg -2.90462 28.3797 52.308 1.2 -8.03565 286455 -678234 3.87097e+06 887641 -1.64602e+06 1.57402e+06
162 3 O 2.81205 29.7787 50.4664 -1.2 -9.09835 -3.45475e+06 -2.06978e+06 -2.65053e+06 -97268 915204 -996796
163 1 Mg -0.938272 28.4828 55.1516 1.2 -7.86815 593513 282813 489094 302835 461525 -2.24652e+06
164 2 Si -1.44669 26.2811 53.4948 2.4 -33.1682 3.9426e+06 4.0272e+06 1.33184e+07 -1.05801e+06 687862 -1.61034e+06
165 3 O -1.43712 24.7377 53.3668 -1.2 -9.83982 -3.08125e+06 -2.2452e+06 -5.21264e+06 998584 -83245.9 521425
166 3 O -0.943026 27.648 46.4208 -1.2 -7.47636 -3.28101e+06 -1.67536e+06 -3.43937e+06 -606029 -1.49974e+06 507884
167 3 O -2.76883 26.9187 53.8525 -1.2 -8.93049 -6.25875e+06 -3.69953e+06 -6.43522e+06 -872043 1.55151e+06 -564753
168 3 O -0.329067 27.026 54.1483 -1.2 -9.35985 -4.86269e+06 -4.1371e+06 -5.4578e+06 56538.7 -1.8623e+06 -708150
169 1 Mg -2.92792 35.7666 57.7897 1.2 -8.05406 1.2151e+06 -2.27253e+06 3.69959e+06 -1.75526e+06 -1.8177e+06 -517887
170 1 Mg -1.28421 35.3899 49.8376 1.2 -8.52627 1.05093e+06 1.42801e+06 2.69623e+06 -261998 -12408 977621
171 2 Si -0.807101 32.9036 47.9247 2.4 -34.7416 9.24759e+06 5.49936e+06 1.1225e+07 466792 2.32187e+06 450605
172 3 O -0.727174 34.4729 47.9885 -1.2 -8.56332 -2.82531e+06 -3.55795e+06 -3.70424e+06 471880 -1.91056e+06 -466021
173 3 O -1.35735 31.7701 51.768 -1.2 -8.66659 -4.0647e+06 -2.71506e+06 -9.33335e+06 1.11672e+06 324219 -1.20528e+06
174 3 O -1.97695 32.3253 48.826 -1.2 -8.57945 -1.47276e+06 -2.86773e+06 -4.21915e+06 29301.7 -336929 -1.83343e+06
175 1 Mg 0.237665 30.8412 46.8168 1.2 -7.2059 2.37646e+06 -899042 1.58737e+06 1.12688e+06 1.59448e+06 -334749
176 3 O 0.656562 32.2608 48.3877 -1.2 -8.47316 -2.00497e+06 -942796 -2.9504e+06 -298997 -344022 291454
177 1 Mg 1.84319 30.9623 54.6969 1.2 -8.20744 2.96282e+06 272277 1.73188e+06 -84927.5 666258 1.99673e+06
178 2 Si 1.96949 33.6305 56.3708 2.4 -32.8269 9.75993e+06 4.71996e+06 1.2136e+07 582538 -184568 2.53737e+06
179 3 O 2.08706 32.0255 56.4836 -1.2 -9.79189 -2.46886e+06 1.23072e+06 -4.99545e+06 -490785 -396443 -1.18377e+06
180 3 O 1.74574 34.5067 52.7279 -1.2 -8.98864 -3.81665e+06 -2.30197e+06 -5.87449e+06 -642779 415577 -1.94604e+06
181 3 O 0.763016 34.2137 55.48 -1.2 -9.14288 -1.26697e+06 -1.45673e+06 -5.98631e+06 -420586 -134656 -1.28326e+06
182 3 O 3.34606 34.3134 55.9207 -1.2 -8.91922 -1.71219e+06 -330812 -5.02649e+06 -56333.4 -1.03026e+06 -1.45577e+06
183 1 Mg 0.167046 33.1343 52.2045 1.2 -8.08323 191365 -1.67372e+06 4.89382e+06 -882801 1.79636e+06 1.2585e+06
184 1 Mg 2.20727 32.8578 49.4516 1.2 -8.08243 2.52726e+06 -124522 1.03007e+06 160978 -147547 764942
185 2 Si 1.67943 35.1802 51.2429 2.4 -33.2516 7.99294e+06 3.89097e+06 1.20211e+07 986452 1.20496e+06 1.5782e+06
186 3 O 1.78736 36.747 51.303 -1.2 -9.67782 -3.16224e+06 -1.34805e+06 -5.07092e+06 932355 -1.461e+06 -140399
187 3 O 1.61993 34.3645 57.8195 -1.2 -9.21812 -5.39853e+06 -1.10392e+06 -4.55249e+06 86796.7 -162561 817814
188 3 O 0.362533 34.5479 50.661 -1.2 -8.87084 -3.61201e+06 -1.58869e+06 -5.51534e+06 949401 -734960 -495439
189 1 Mg -2.80215 33.1347 52.3062 1.2 -8.03631 300111 -2.8838e+06 2.69716e+06 2.06393e+06 -1.55891e+06 3.00586e+06
190 3 O 2.91593 34.533 50.466 -1.2 -9.1816 -2.92848e+06 -1.69721e+06 -3.37192e+06 -304636 817216 -996513
191 1 Mg -1.02467 33.2593 55.1101 1.2 -8.38666 1.68314e+06 1.31153e+06 2.95726e+06 -929837 -377716 748860
192 2 Si -1.40225 31.054 53.1281 2.4 -33.9334 8.96304e+06 3.9827e+06 9.94515e+06 -1.44415e+06 517999 2.58438e+06
193 3 O -1.34765 29.5391 53.1024 -1.2 -9.3024 -4.14845e+06 -4.08657e+06 -5.85379e+06 -1.41717e+06 1.19798e+06 -1.12292e+06
194 3 O -0.842495 32.4028 46.4192 -1.2 -7.53965 -3.18979e+06 -1.52804e+06 -3.57484e+06 -603321 -1.50605e+06 567258
195 3 O -2.72424 31.9322 53.7311 -1.2 -8.63153 -3.95072e+06 -1.82612e+06 -6.4749e+06 -1.97535e+06 530386 911324
196 3 O -0.166047 31.668 53.899 -1.2 -8.49053 -2.3397e+06 -3.36867e+06 -4.6352e+06 1.15362e+06 -1.29056e+06 -550309
197 1 Mg -2.74985 40.352 57.7206 1.2 -7.86827 1.21932e+06 -2.53312e+06 3.90854e+06 -1.60526e+06 -1.94156e+06 -703754
198 1 Mg -1.17787 40.1435 49.8359 1.2 -8.36215 684274 1.29744e+06 2.93355e+06 -120402 208242 618132
199 2 Si -0.702692 37.6572 47.9231 2.4 -34.4487 8.80993e+06 5.36562e+06 1.13253e+07 496725 2.27445e+06 163616
200 3 O -0.621782 39.2264 47.9868 -1.2 -8.71071 -2.57349e+06 -3.52998e+06 -3.75471e+06 453688 -1.91606e+06 -304091
201 3 O -1.25221 36.5242 51.7666 -1.2 -8.96701 -4.01109e+06 -2.40677e+06 -1.07801e+07 310198 2.89355e+06 -106433
202 3 O -1.87295 37.0796 48.8243 -1.2 -8.73643 -1.16151e+06 -2.76216e+06 -4.38344e+06 -7943.78 -256695 -1.6425e+06
203 1 Mg 0.341084 35.5943 46.8152 1.2 -7.09487 2.21541e+06 -990857 1.66434e+06 1.12307e+06 1.59968e+06 -464398
204 3 O 0.760681 37.0138 48.3864 -1.2 -8.63222 -1.7991e+06 -847879 -2.98987e+06 -279670 -379393 441190
205 1 Mg 1.94913 35.5405 54.4807 1.2 -8.29162 3.01298e+06 184285 1.11046e+06 -699757 386375 2.42492e+06
206 2 Si 1.92133 38.3013 56.327 2.4 -33.3115 8.98062e+06 890513 1.50371e+07 2.20819e+06 -106783 535020
207 3 O 1.79333 36.8259 56.5765 -1.2 -9.22267 -3.97011e+06 -3.85781e+06 -5.33693e+06 940338 -70949.3 -1.17608e+06
208 3 O 1.85132 39.2606 52.7264 -1.2 -9.10268 -3.48834e+06 -626688 -6.60995e+06 907302 346442 -1.0166e+06
209 3 O 0.656612 38.859 55.4349 -1.2 -8.87248 -1.71185e+06 -2.57037e+06 -4.2586e+06 -675233 949143 -274608
210 3 O 3.20603 38.9671 55.6822 -1.2 -8.97335 -1.91587e+06 -848746 -3.1355e+06 -347838 -1.30558e+06 -348423
211 1 Mg 0.272384 37.8883 52.2029 1.2 -7.60372 242522 -2.34668e+06 5.67464e+06 -1.52076e+06 2.15597e+06 1.51682e+06
212 1 Mg 2.31122 37.6122 49.4501 1.2 -7.90993 2.18547e+06 -257016 1.2382e+06 90988.5 -60755.9 543743
213 2 Si 1.78573 39.934 51.2414 2.4 -32.7759 7.6282e+06 3.04674e+06 1.24478e+07 -114611 289123 247368
214 3 O 1.89428 41.5006 51.3014 -1.2 -10.123 -2.67072e+06 -1.52526e+06 -4.2541e+06 770349 -47690.3 310790
215 3 O 1.75111 38.9087 57.9197 -1.2 -9.04817 -2.07327e+06 -2.26297e+06 -1.17952e+06 -584162 1.60902e+06 -1.4869e+06
216 3 O 0.469216 39.3015 50.6588 -1.2 -9.00622 -3.31329e+06 -1.3256e+06 -5.93491e+06 1.16969e+06 -608564 -549526
217 1 Mg -2.69668 37.8889 52.3043 1.2 -7.9159 -957069 -2.267e+06 3.90596e+06 1.85707e+06 -2.08369e+06 2.02184e+06
218 3 O 3.0225 39.2866 50.4651 -1.2 -9.3765 -2.86554e+06 -1.31709e+06 -3.6658e+06 -280302 683541 -430684
219 1 Mg -1.07851 38.014 54.9629 1.2 -8.26502 2.39762e+06 487791 2.15087e+06 -851992 64391.3 -480957
220 2 Si -1.12105 35.8738 53.1185 2.4 -33.4494 7.81425e+06 3.45066e+06 1.02098e+07 -880777 1.98051e+06 2.02853e+06
221 3 O -1.194 34.2717 53.1474 -1.2 -9.1536 -3.92146e+06 -1.56687e+06 -4.70459e+06 709670 4313.15 -1.18743e+06
222 3 O -0.738054 37.1566 46.4176 -1.2 -7.65434 -3.01063e+06 -1.49705e+06 -3.60461e+06 -606265 -1.49885e+06 693050
223 3 O -2.52153 36.5088 53.6543 -1.2 -8.55228 -3.86908e+06 -2.72829e+06 -8.61447e+06 -540297 1.76334e+06 53991.1
224 3 O 0.0249301 36.539 53.9749 -1.2 -9.04457 -2.59411e+06 -3.16181e+06 -3.30492e+06 -230299 -977047 -880088
225 1 Mg -2.61078 44.886 57.5155 1.2 -7.98337 -136481 -1.97825e+06 3.72948e+06 -957455 -1.88255e+06 -1.04483e+06
226 1 Mg -1.06993 44.8968 49.8343 1.2 -8.21158 519870 1.57801e+06 2.56716e+06 -178294 299374 796943
227 2 Si -0.596166 42.4103 47.9215 2.4 -34.1661 8.2933e+06 5.75699e+06 1.10024e+07 495170 2.34152e+06 -53655.3
228 3 O -0.51472 43.9796 47.9853 -1.2 -8.81845 -2.38588e+06 -3.74571e+06 -3.55717e+06 458925 -1.9424e+06 -371119
229 3 O -1.14475 41.2777 51.7649 -1.2 -9.37875 -2.06759e+06 -3.49118e+06 -9.13728e+06 291599 -726679 255422
230 3 O -1.76671 41.8331 48.8226 -1.2 -8.92418 -909875 -2.93834e+06 -4.16487e+06 5967.71 -362675 -1.41058e+06
231 1 Mg 0.447076 40.3473 46.8135 1.2 -6.9692 2.00241e+06 -927605 1.61258e+06 1.12298e+06 1.59339e+06 -589675
232 3 O 0.866985 41.7666 48.385 -1.2 -8.79041 -1.48688e+06 -1.01045e+06 -2.8886e+06 -286860 -323727 630717
233 1 Mg 1.93238 40.5886 54.4011 1.2 -8.19858 157152 1.27887e+06 859384 -304861 1.05453e+06 1.4314e+06
234 2 Si 2.05083 42.955 56.4261 2.4 -33.1861 9.38723e+06 2.24663e+06 1.10938e+07 -1.21411e+06 -654246 1.12813e+06
235 3 O 1.82924 41.4439 56.413 -1.2 -9.65869 -5.37502e+06 -3.54392e+06 -3.85945e+06 2.51809e+06 673690 164272
236 3 O 1.95891 44.014 52.7248 -1.2 -9.71865 -2.8126e+06 -1.85825e+06 -6.06698e+06 1.16482e+06 693862 -1.39021e+06
237 3 O 0.734885 43.5022 55.688 -1.2 -8.61624 -906419 -2.75101e+06 -5.97063e+06 211672 -1.44688e+06 605447
238 3 O 3.3368 43.6314 55.8732 -1.2 -9.3753 -4.42454e+06 -3.44129e+06 -3.89352e+06 1.0867e+06 381646 -991329
239 1 Mg 0.379928 42.6418 52.2013 1.2 -7.46294 -1.29204e+06 -1.73844e+06 5.56367e+06 -1.19443e+06 1.57715e+06 1.23008e+06
240 1 Mg 2.41752 42.366 49.4484 1.2 -7.67534 1.95821e+06 -9395.16 845220 103244 -187536 353728
241 2 Si 1.89374 44.6874 51.2398 2.4 -32.3271 6.58809e+06 3.92821e+06 1.18612e+07 118624 -379915 716243
242 3 O 2.00266 46.254 51.2996 -1.2 -10.024 -2.6155e+06 -1.61003e+06 -4.65102e+06 536690 227379 175353
243 3 O 1.76414 43.7281 57.8953 -1.2 -8.89148 -4.55552e+06 -1.39529e+06 -5.6989e+06 -1.40653e+06 -416782 1.58106e+06
244 3 O 0.577464 44.0549 50.6567 -1.2 -9.24926 -2.49312e+06 -1.89832e+06 -5.61141e+06 1.03335e+06 -758963 -464916
245 1 Mg -2.58906 42.6425 52.3022 1.2 -7.1732 -842919 -2.31355e+06 4.93675e+06 1.64396e+06 -1.37115e+06 890238
246 3 O 3.13067 44.0398 50.464 -1.2 -9.6746 -2.57361e+06 -1.66453e+06 -2.99371e+06 -220220 860577 -485222
247 1 Mg -1.02076 42.6415 55.2259 1.2 -8.30242 1.25436e+06 1.1668e+06 2.90106e+06 715034 -296177 -690720
248 2 Si -1.10418 40.6396 53.1504 2.4 -33.1287 6.04247e+06 2.83322e+06 1.12421e+07 40419.2 -771453 1.88461e+06
249 3 O -1.21444 39.1032 53.0697 -1.2 -9.46835 -4.02919e+06 -2.02453e+06 -6.64358e+06 -486279 55736.9 190249
250 3 O -0.631421 41.9099 46.4159 -1.2 -7.76385 -2.82829e+06 -1.6241e+06 -3.48427e+06 -606413 -1.50706e+06 744144
251 3 O -2.33521 41.3479 53.9916 -1.2 -9.23535 -2.64132e+06 -3.09911e+06 -4.32726e+06 -1.6672e+06 1.16908e+06 532229
252 3 O 0.197034 41.2422 53.8017 -1.2 -9.16297 -3.82617e+06 -4.49886e+06 -4.97787e+06 1.11371e+06 -1.60184e+06 -572396
253 1 Mg -2.50301 49.7794 57.2703 1.2 -7.48318 -464299 -1.26306e+06 4.03358e+06 -1.07185e+06 -983502 -1.82653e+06
254 1 Mg -0.961069 49.6502 49.8327 1.2 -8.55202 1.0955e+06 1.06293e+06 3.05132e+06 -179462 207533 954490
255 2 Si -0.488083 47.1636 47.9198 2.4 -34.2659 8.4853e+06 5.52733e+06 1.11982e+07 477388 2.35219e+06 475182
256 3 O -0.40607 48.7329 47.9837 -1.2 -8.69156 -2.60465e+06 -3.4257e+06 -3.86095e+06 467236 -1.93777e+06 -544901
257 3 O -1.0361 46.031 51.7632 -1.2 -9.45664 -2.78024e+06 -1.58461e+06 -9.11062e+06 695746 -146854 -45418.6
258 3 O -1.65866 46.5866 48.821 -1.2 -8.8962 -987335 -2.92936e+06 -4.14788e+06 27126.4 -345856 -1.71881e+06
259 1 Mg 0.554124 45.1001 46.8117 1.2 -6.92266 1.92119e+06 -851339 1.5437e+06 1.12447e+06 1.59628e+06 -417296
260 3 O 0.974961 46.5195 48.3832 -1.2 -8.76695 -1.50528e+06 -995936 -2.92282e+06 -295631 -338617 356623
261 1 Mg 2.28914 45.0585 54.3883 1.2 -7.79961 1.58268e+06 957949 1.26743e+06 -803210 1.61462e+06 67532.5
262 2 Si 1.89244 47.5488 56.4339 2.4 -33.7133 8.77118e+06 2.91312e+06 1.23405e+07 8155.6 475779 -2.84312e+06
263 3 O 2.22341 46.0838 56.4401 -1.2 -9.53096 -3.77177e+06 -4.79804e+06 -4.60597e+06 761667 64006 699328
264 3 O 2.0677 48.7672 52.7232 -1.2 -8.86067 -3.03977e+06 -1.91816e+06 -5.34255e+06 -674313 -666779 -727968
265 3 O 0.699785 48.2433 55.5885 -1.2 -8.55145 -4.68634e+06 -1.41843e+06 -4.17343e+06 -2.83731e+06 259245 354563
266 3 O 3.1008 48.5764 55.8239 -1.2 -8.5652 -4.07353e+06 -1.51288e+06 -5.51425e+06 1.40596e+06 -140116 604784
267 1 Mg 0.488584 47.395 52.1996 1.2 -7.59251 -657817 -1.11957e+06 5.37891e+06 -1.33505e+06 1.96249e+06 835061
268 1 Mg 2.52544 47.1195 49.4466 1.2 -7.77248 2.04773e+06 -60004.3 966336 137722 -213684 689883
269 2 Si 2.00256 49.4407 51.2382 2.4 -33.5147 8.07938e+06 3.11794e+06 1.31129e+07 402053 805528 1.02131e+06
270 3 O 2.11156 51.0073 51.2982 -1.2 -9.36491 -3.59269e+06 -1.20641e+06 -5.61476e+06 769059 -953835 631460
271 3 O 1.81016 48.2061 57.8529 -1.2 -8.78905 -3.34602e+06 -1.37244e+06 -7.19184e+06 -141781 2.29136e+06 1.41753e+06