ITEM: TIMESTEP
28900
ITEM: NUMBER OF ATOMS
10500
ITEM: BOX BOUNDS xy xz yz pp pp pp
0.0000000000000000e+00 8.9687999999999999e+00 2.9895999999999998e+00
0.0000000000000000e+00 1.1872499999999999e+02 0.0000000000000000e+00
0.0000000000000000e+00 2.5297749999999999e+02 0.0000000000000000e+00
ITEM: ATOMS id type element xu yu zu q c_pe c_s[1] c_s[2] c_s[3] c_s[4] c_s[5] c_s[6]
1 1 Mg -3.44997 7.02016 57.3319 1.2 -7.08722 -1.36166e+06 -2.41847e+06 4.82328e+06 -1.13887e+06 -1.99924e+06 -288350
2 1 Mg -1.82655 6.90154 50.0912 1.2 -7.64495 -702895 905592 1.25433e+06 -81466.2 -128218 1.61691e+06
3 2 Si -0.257935 3.96038 48.0876 2.4 -35.1634 8.60482e+06 8.56422e+06 1.10235e+07 802398 1.99382e+06 2.04571e+06
4 3 O -0.335812 5.46814 47.6264 -1.2 -8.22555 -2.37904e+06 -2.33208e+06 -2.66447e+06 142347 -979141 -789880
5 3 O -2.03793 3.43377 51.8941 -1.2 -9.4058 -1.96934e+06 -1.89053e+06 -6.88909e+06 -1.12596e+06 1.73446e+06 -2.52827e+06
6 3 O -1.54015 3.53929 48.9521 -1.2 -8.77667 -568928 -1.52277e+06 -4.39576e+06 26472.2 -723844 -415126
7 1 Mg 1.82954 2.54582 47.1376 1.2 -7.57536 1.93279e+06 -584001 839182 1.1494e+06 830504 631990
8 3 O 1.22989 3.66364 48.7877 -1.2 -8.48216 -886885 -2.28322e+06 -3.79625e+06 -476273 -730871 -1.13286e+06
9 1 Mg 1.02978 2.35531 54.586 1.2 -7.54463 -94673.4 992378 2.25614e+06 453275 -503824 1.19859e+06
10 2 Si 0.962958 4.94878 56.4678 2.4 -32.7316 6.06925e+06 3.04714e+06 1.29293e+07 -232632 -837653 -467177
11 3 O 0.774192 3.41837 56.618 -1.2 -9.94414 -1.35098e+06 -2.95023e+06 -5.1444e+06 486252 -473399 36284.9
12 3 O 1.10813 6.07342 52.8172 -1.2 -9.51464 -2.18234e+06 -2.60184e+06 -5.66957e+06 748748 -348906 -1.46924e+06
13 3 O -0.304793 5.66416 55.8567 -1.2 -9.06476 -2.65771e+06 -2.48575e+06 -6.43868e+06 -119543 -986487 533933
14 3 O 2.18666 5.50794 55.5862 -1.2 -9.36425 -2.91734e+06 -1.09443e+06 -3.51258e+06 1.63996e+06 -6125.67 -201852
15 1 Mg -0.459401 4.67631 52.2426 1.2 -7.44304 -1.14923e+06 -1.86419e+06 5.73316e+06 -1.07572e+06 1.3614e+06 1.40742e+06
16 1 Mg 2.79456 3.9971 49.9987 1.2 -7.87408 2.75054e+06 -315295 1.94012e+06 -502187 814026 -630249
17 2 Si 1.16169 6.59457 51.2556 2.4 -32.4643 4.86943e+06 5.61278e+06 1.29117e+07 -57364.3 224079 3.08988e+06
18 3 O 1.28989 8.18905 51.2909 -1.2 -10.0464 -1.8653e+06 -1.3139e+06 -4.28946e+06 113786 -908699 526149
19 3 O 0.997707 5.6678 57.9015 -1.2 -9.38384 -1.79748e+06 -1.69142e+06 -5.84211e+06 114702 -2.04958e+06 -405629
20 3 O -0.184847 6.06029 50.6845 -1.2 -9.29463 -1.91977e+06 -2.81056e+06 -5.50278e+06 1.40115e+06 -509623 -1.66223e+06
21 1 Mg -3.49704 4.67769 52.6661 1.2 -7.20998 -1.43715e+06 -2.71493e+06 3.76611e+06 1.44329e+06 -1.48316e+06 1.23648e+06
22 3 O 2.48581 5.93312 50.6539 -1.2 -9.84945 -2.19239e+06 -1.16737e+06 -3.5419e+06 -1.44926e+06 -468369 -885303
23 1 Mg -1.90053 4.44071 55.091 1.2 -7.83957 2.21668e+06 144217 409871 -99278.8 -541806 -1.07582e+06
24 2 Si -1.92376 2.55539 53.2609 2.4 -31.8177 5.97984e+06 2.13981e+06 1.25693e+07 1.22764e+06 1.61923e+06 -725054
25 3 O -1.98269 1.04351 53.1333 -1.2 -10.3404 -3.31764e+06 -4.35133e+06 -5.07521e+06 1.09806e+06 -324125 56924.9
26 3 O -0.0467762 2.97103 46.8385 -1.2 -7.42379 -2.30359e+06 -2.06843e+06 -2.95631e+06 -989425 -2.0096e+06 -753214
27 3 O -3.08302 3.16544 54.067 -1.2 -9.77251 -3.21786e+06 -3.96772e+06 -7.22988e+06 -512792 1.11827e+06 -805162
28 3 O -0.576676 3.21088 54.0224 -1.2 -9.59289 -2.35046e+06 -2.50528e+06 -4.19683e+06 2.30372e+06 583925 415878
29 1 Mg -3.37194 11.7974 57.4897 1.2 -8.05243 375634 -1.5018e+06 4.9347e+06 -1.19419e+06 -1.86088e+06 -890831
30 1 Mg -1.75014 11.5838 49.8362 1.2 -8.18916 358534 1.29056e+06 3.17792e+06 -333363 209811 1.03882e+06
31 2 Si -1.18003 9.02138 47.9309 2.4 -33.6982 7.27404e+06 6.5767e+06 1.03476e+07 215102 2.62329e+06 1.09608e+06
32 3 O -1.23224 10.5991 47.9811 -1.2 -9.02133 -2.01009e+06 -3.11338e+06 -3.25797e+06 661355 -1.9121e+06 -285493
33 3 O -1.79016 8.01447 51.8693 -1.2 -9.86628 -2.20152e+06 -2.20882e+06 -6.40745e+06 678794 -487022 -1.8128e+06
34 3 O -2.30986 8.37215 48.8528 -1.2 -9.38147 -397524 -2.30504e+06 -3.55496e+06 -333417 -613086 -1.26069e+06
35 1 Mg 0.154883 7.08234 46.8007 1.2 -7.14316 1.27825e+06 -307442 956641 942630 1.72842e+06 -691968
36 3 O 0.325447 8.50934 48.3809 -1.2 -9.0035 -792191 -1.71796e+06 -3.00046e+06 -29697 -831722 -5245.08
37 1 Mg 1.17947 7.13672 54.6484 1.2 -7.97705 1.11413e+06 571828 591390 -347095 155269 441889
38 2 Si 1.23728 9.68841 56.3521 2.4 -32.248 7.49467e+06 6.00206e+06 1.18181e+07 722640 -989464 858117
39 3 O 1.14377 8.10525 56.4162 -1.2 -10.2741 -2.83666e+06 -1.30252e+06 -5.34925e+06 804819 -168760 -380920
40 3 O 1.28624 10.7248 52.7351 -1.2 -9.63961 -2.79515e+06 -1.15175e+06 -5.277e+06 251387 -493719 -1.24665e+06
41 3 O -0.0495049 10.3772 55.7046 -1.2 -9.22918 -1.54405e+06 -1.59961e+06 -5.13446e+06 -747035 -712813 -678732
42 3 O 2.49976 10.4562 55.7749 -1.2 -9.37432 -2.67916e+06 -1.90744e+06 -4.10148e+06 1.00611e+06 90494.9 -713090
43 1 Mg -0.262694 9.34741 52.2523 1.2 -7.3437 -896280 -929249 5.25797e+06 -1.57489e+06 1.43661e+06 1.11711e+06
44 1 Mg 1.87648 9.01537 49.4629 1.2 -7.48463 1.36406e+06 164038 681059 288559 -283243 726320
45 2 Si 1.21415 11.3799 51.2378 2.4 -32.4658 7.43284e+06 3.37915e+06 1.21408e+07 387394 730958 1.3256e+06
46 3 O 1.31634 12.9512 51.3023 -1.2 -10.0271 -2.90404e+06 -761740 -4.68526e+06 706627 -368272 471870
47 3 O 1.06365 10.3884 57.9032 -1.2 -9.24391 -3.3771e+06 -1.16602e+06 -5.52021e+06 -1.05469e+06 -770953 2.66971e+06
48 3 O -0.115718 10.7564 50.681 -1.2 -9.21392 -2.731e+06 -1.67813e+06 -5.4583e+06 1.20285e+06 -374261 -920532
49 1 Mg -3.26386 9.35564 52.3622 1.2 -7.22736 -906014 -1.93464e+06 3.74035e+06 2.30646e+06 -1.75137e+06 1.89707e+06
50 3 O 2.45216 10.7265 50.4558 -1.2 -9.69488 -2.33806e+06 -1.20578e+06 -3.0561e+06 -838981 406705 -495948
51 1 Mg -1.82526 9.39879 55.0919 1.2 -7.86084 1.84247e+06 1.4886e+06 1.46115e+06 -243775 128623 -698464
52 2 Si -1.89526 7.32947 53.3168 2.4 -31.8582 7.16659e+06 4.96475e+06 1.15981e+07 -837036 -397378 -190114
53 3 O -1.95694 5.73516 53.3172 -1.2 -9.99831 -3.35764e+06 -162761 -5.84601e+06 -1.13654e+06 -455142 -1.29365e+06
54 3 O -1.19417 8.46968 46.4488 -1.2 -7.97365 -2.19051e+06 -1.78462e+06 -3.20372e+06 -540188 -1.7449e+06 500177
55 3 O -3.23769 8.13542 53.956 -1.2 -9.76394 -1.37025e+06 -2.25379e+06 -4.0924e+06 -1.9208e+06 -216377 658220
56 3 O -0.661524 7.92894 54.055 -1.2 -9.50118 -1.26707e+06 -3.61418e+06 -5.18061e+06 916159 -1.09721e+06 -127389
57 1 Mg -3.33598 16.6215 57.4909 1.2 -7.7227 -494881 -668636 5.21053e+06 -1.44736e+06 -1.5041e+06 -833393
58 1 Mg -1.6714 16.3544 49.8412 1.2 -8.20817 299650 1.39287e+06 3.04045e+06 -178069 256991 438724
59 2 Si -1.18567 13.8526 47.9314 2.4 -33.8336 7.75083e+06 5.07091e+06 1.16203e+07 504667 2.23595e+06 -215948
60 3 O -1.09664 15.4205 47.9915 -1.2 -8.9803 -2.02822e+06 -3.3256e+06 -3.77617e+06 421552 -1.92436e+06 -95697
61 3 O -1.73493 12.7491 51.7772 -1.2 -9.2539 -2.00652e+06 -2.07267e+06 -6.91702e+06 99506.7 342556 -683380
62 3 O -2.36115 13.2717 48.8238 -1.2 -9.0468 -723105 -2.44915e+06 -4.5107e+06 -114478 -367290 -1.33072e+06
63 1 Mg -0.159928 11.7639 46.8533 1.2 -6.71746 1.62912e+06 -1.0349e+06 1.67965e+06 1.1265e+06 1.56891e+06 -641188
64 3 O 0.2623 13.1866 48.413 -1.2 -8.96487 -1.25765e+06 -520696 -3.23206e+06 -194990 -282301 684846
65 1 Mg 1.28395 11.8578 54.5235 1.2 -8.30423 2.26787e+06 561332 2.32109e+06 206686 -272325 1.34233e+06
66 2 Si 1.1548 14.5385 56.4726 2.4 -33.5266 4.99461e+06 4.32592e+06 1.22558e+07 1.67475e+06 1.02379e+06 567281
67 3 O 1.27915 12.9319 56.4733 -1.2 -8.98982 -4.07539e+06 -189533 -4.48836e+06 327382 -205648 -99741.6
68 3 O 1.36565 15.4813 52.729 -1.2 -9.7025 -2.96978e+06 -1.34433e+06 -6.05013e+06 61255.6 -520704 -775342
69 3 O -0.0887706 15.0741 55.8363 -1.2 -9.35751 -5.07485e+06 -3.80414e+06 -3.91926e+06 108001 -802430 88030.5
70 3 O 2.3766 15.2333 55.7891 -1.2 -9.0687 -3.74892e+06 -3.75257e+06 -5.80168e+06 -100246 1.44715e+06 549539
71 1 Mg -0.206989 14.1049 52.2121 1.2 -7.58657 -720549 -2.44804e+06 5.44507e+06 -1.47634e+06 1.91277e+06 829115
72 1 Mg 1.82591 13.8102 49.4556 1.2 -7.61421 1.89842e+06 -273179 1.12339e+06 123022 -89523.4 288283
73 2 Si 1.29285 16.1518 51.2434 2.4 -32.3151 7.53082e+06 3.35573e+06 1.15234e+07 80071.5 258439 -211029
74 3 O 1.39496 17.7199 51.3047 -1.2 -10.2428 -2.69408e+06 -1.35338e+06 -3.97042e+06 713111 -67723.2 667515
75 3 O 1.33936 15.1481 57.9818 -1.2 -8.85106 -3.3919e+06 -1.78741e+06 -6.01225e+06 28538.6 846978 387320
76 3 O -0.0269106 15.5178 50.6688 -1.2 -9.17212 -2.91708e+06 -1.59832e+06 -5.82095e+06 1.1229e+06 -369836 -121638
77 1 Mg -3.18391 14.1057 52.3125 1.2 -7.41843 -664490 -1.8211e+06 4.9278e+06 1.6638e+06 -1.76971e+06 459165
78 3 O 2.52432 15.503 50.4579 -1.2 -9.62204 -2.64053e+06 -1.3354e+06 -3.19788e+06 -351309 606552 -73071.7
79 1 Mg -1.9336 14.3044 55.2417 1.2 -8.13654 2.0493e+06 1.09292e+06 2.02626e+06 278694 115572 -584251
80 2 Si -1.61686 12.1159 53.2453 2.4 -33.0266 6.45846e+06 3.60194e+06 1.4116e+07 365446 165650 1.31421e+06
81 3 O -1.71626 10.5361 53.1708 -1.2 -9.77448 -2.65317e+06 -406347 -5.83486e+06 827196 5037.97 -119060
82 3 O -1.21337 13.3381 46.4311 -1.2 -7.9706 -2.55598e+06 -1.3332e+06 -3.71089e+06 -631742 -1.45035e+06 820787
83 3 O -2.89389 12.7848 53.9738 -1.2 -9.13164 -1.87573e+06 -862760 -5.61612e+06 -685688 826877 479068
84 3 O -0.337112 12.8247 53.8575 -1.2 -9.1842 -2.86722e+06 -1.42221e+06 -5.25041e+06 935374 -723256 37421.7
85 1 Mg -3.10142 21.1045 57.4726 1.2 -8.00505 -1.78846e+06 -2.10676e+06 3.80069e+06 -721601 -2.14961e+06 -931477
86 1 Mg -1.5831 21.1217 49.8405 1.2 -8.13731 262245 1.58034e+06 2.72245e+06 -197026 235472 678556
87 2 Si -1.09384 18.6291 47.9287 2.4 -33.8387 7.73152e+06 5.63158e+06 1.11465e+07 494750 2.33057e+06 -473362
88 3 O -1.02071 20.1985 47.9911 -1.2 -8.97046 -2.11012e+06 -3.65181e+06 -3.57093e+06 457811 -1.93201e+06 -140919
89 3 O -1.65002 17.5002 51.771 -1.2 -9.31293 -1.46637e+06 -2.26509e+06 -6.36569e+06 160024 -916913 -152035
90 3 O -2.26174 18.0434 48.8281 -1.2 -9.07834 -657495 -2.80112e+06 -4.26751e+06 -11474.1 -400599 -1.09266e+06
91 1 Mg -0.0440435 16.5651 46.8269 1.2 -6.75393 1.61997e+06 -977576 1.67411e+06 1.1345e+06 1.57314e+06 -752947
92 3 O 0.37001 17.9877 48.3925 -1.2 -8.96071 -1.23471e+06 -915432 -2.97394e+06 -292415 -307247 856173
93 1 Mg 1.33502 16.5504 54.4288 1.2 -7.89054 1.22025e+06 639708 1.09135e+06 -112403 433132 308460
94 2 Si 1.15153 19.2144 56.2365 2.4 -32.1859 7.6083e+06 5.62044e+06 1.23921e+07 1.02643e+06 1.85738e+06 -1.06137e+06
95 3 O 1.18687 17.6746 56.4228 -1.2 -9.85334 -3.8788e+06 -1.5784e+06 -4.72194e+06 151675 594196 -1.30253e+06
96 3 O 1.45147 20.239 52.7294 -1.2 -9.83241 -2.21124e+06 -754152 -5.22527e+06 97562.9 -353305 -602849
97 3 O -0.168552 19.9066 55.6725 -1.2 -9.51771 -1.41792e+06 -3.1692e+06 -3.35414e+06 -904795 -132585 446366
98 3 O 2.44913 19.944 55.6543 -1.2 -9.49661 -1.25012e+06 -3.22908e+06 -5.34362e+06 1.10034e+06 1.11641e+06 -112068
99 1 Mg -0.126194 18.8651 52.2079 1.2 -7.38224 -1.17384e+06 -1.32825e+06 5.31743e+06 -1.01936e+06 1.45627e+06 804855
100 1 Mg 1.92402 18.5815 49.4545 1.2 -7.54111 1.76131e+06 -11997.8 786378 107848 -152433 92978.6
101 2 Si 1.38106 20.9117 51.2443 2.4 -32.1363 6.72288e+06 3.72328e+06 1.16027e+07 283577 367017 145296
102 3 O 1.48527 22.4795 51.3054 -1.2 -10.2214 -2.6146e+06 -1.46557e+06 -3.96048e+06 735165 -370742 506013
103 3 O 1.39028 19.8449 57.8854 -1.2 -8.9768 -2.60836e+06 -3.78824e+06 -3.09461e+06 -843770 1.91678e+06 2.85553e+06
104 3 O 0.0615419 20.2804 50.6669 -1.2 -9.35433 -2.44474e+06 -1.9982e+06 -5.19122e+06 1.14651e+06 -763715 -269407
105 1 Mg -3.09665 18.8643 52.3122 1.2 -7.00552 -816301 -1.26168e+06 4.66254e+06 1.31689e+06 -1.55215e+06 600032
106 3 O 2.61548 20.2646 50.4626 -1.2 -9.75362 -2.35368e+06 -1.69132e+06 -2.90709e+06 -368180 801681 -324580
107 1 Mg -1.80691 18.9714 55.1131 1.2 -7.99388 179338 2.06469e+06 1.30061e+06 -95853.3 -635037 -998308
108 2 Si -1.62513 16.7883 53.2432 2.4 -32.7501 4.60056e+06 1.88705e+06 1.34028e+07 1.13139e+06 -313833 -213308
109 3 O -1.66205 15.296 53.0909 -1.2 -9.73837 -2.70137e+06 -4.574e+06 -5.46938e+06 749404 429435 688572
110 3 O -1.12868 18.1227 46.4249 -1.2 -7.94897 -2.54181e+06 -1.52458e+06 -3.56284e+06 -604643 -1.49657e+06 900629
111 3 O -2.83954 17.3765 54.0306 -1.2 -9.55149 -2.88989e+06 -2.60772e+06 -4.85526e+06 -900905 1.21367e+06 294300
112 3 O -0.329829 17.5145 53.832 -1.2 -9.39556 -2.32125e+06 -2.07428e+06 -5.60818e+06 1.03885e+06 -789375 212638
113 1 Mg -3.03948 25.8734 57.3916 1.2 -7.27714 -134627 -1.81879e+06 4.08788e+06 -1.84342e+06 -1.49676e+06 -1.48995e+06
114 1 Mg -1.48778 25.88 49.8402 1.2 -8.27794 504044 1.4767e+06 2.79845e+06 -207023 223758 856270
115 2 Si -1.00491 23.3922 47.9274 2.4 -33.9422 7.90979e+06 5.70894e+06 1.10642e+07 494037 2.3271e+06 -71955.7
116 3 O -0.927602 24.9615 47.9909 -1.2 -8.87972 -2.2708e+06 -3.62773e+06 -3.65158e+06 459532 -1.92801e+06 -332656
117 3 O -1.55795 22.2588 51.7696 -1.2 -9.40866 -1.50953e+06 -984100 -6.16514e+06 281026 174967 -944556
118 3 O -2.17411 22.8111 48.8277 -1.2 -9.04147 -710795 -2.9355e+06 -4.18684e+06 4454.79 -378058 -1.34758e+06
119 1 Mg 0.0423997 21.3296 46.8225 1.2 -6.77326 1.67512e+06 -858243 1.5437e+06 1.12657e+06 1.58634e+06 -641592
120 3 O 0.458537 22.7495 48.3911 -1.2 -8.92581 -1.29337e+06 -1.02281e+06 -2.88041e+06 -293670 -316657 649943
121 1 Mg 1.48668 21.4079 54.5571 1.2 -7.86866 2.4091e+06 -73413.6 1.44098e+06 -230061 302429 570366
122 2 Si 1.56427 23.8529 56.3944 2.4 -32.1557 7.93455e+06 5.72566e+06 1.12551e+07 -1.13111e+06 935666 -2.49469e+06
123 3 O 1.44925 22.2945 56.4745 -1.2 -9.73074 -4.35744e+06 -1.67397e+06 -4.12621e+06 1.84672e+06 -696034 -178064
124 3 O 1.54441 24.9963 52.7297 -1.2 -9.66125 -2.39083e+06 -1.29695e+06 -5.07447e+06 -255867 -120615 -615764
125 3 O 0.19793 24.5276 55.6979 -1.2 -9.06772 -28562.3 -2.93539e+06 -3.70452e+06 -1.26268e+06 120494 -454039
126 3 O 2.73294 24.6454 55.7331 -1.2 -9.85836 -3.78217e+06 -2.83853e+06 -3.5948e+06 743423 300195 264720
127 1 Mg -0.0335968 23.6229 52.2067 1.2 -7.42525 -1.1748e+06 -1.25916e+06 5.30828e+06 -893746 1.73493e+06 625135
128 1 Mg 2.01073 23.3445 49.4541 1.2 -7.59292 1.82541e+06 16654.4 783650 106281 -155308 301819
129 2 Si 1.47594 25.6699 51.2449 2.4 -32.4962 7.18894e+06 3.82089e+06 1.16091e+07 428406 370540 615137
130 3 O 1.58172 27.2371 51.3054 -1.2 -9.95909 -2.93586e+06 -1.34032e+06 -4.31184e+06 789983 -293386 186063
131 3 O 1.45906 24.5383 57.9136 -1.2 -9.71456 -3.58821e+06 -3.63815e+06 -3.9406e+06 561617 -753317 2.73831e+06
132 3 O 0.157925 25.0378 50.6651 -1.2 -9.19992 -2.73085e+06 -1.91153e+06 -5.47361e+06 1.12634e+06 -660738 -404608
133 1 Mg -3.00341 23.6231 52.3098 1.2 -7.14869 -545471 -1.20089e+06 4.34637e+06 1.54544e+06 -1.56957e+06 799864
134 3 O 2.71149 25.0232 50.4656 -1.2 -9.62815 -2.54903e+06 -1.72955e+06 -2.88175e+06 -357481 866174 -588637
135 1 Mg -1.54497 23.7115 54.978 1.2 -8.11921 1.58742e+06 1.65921e+06 953285 105286 -51520.6 -1.81843e+06
136 2 Si -1.53196 21.5507 53.2687 2.4 -32.5748 4.48175e+06 3.46504e+06 1.41071e+07 214114 566100 -1.26486e+06
137 3 O -1.62542 20.0094 53.236 -1.2 -10.041 -2.32055e+06 -1.93681e+06 -5.49334e+06 748589 -624877 287202
138 3 O -1.03938 22.8897 46.4223 -1.2 -7.90621 -2.59936e+06 -1.59351e+06 -3.50541e+06 -606260 -1.5024e+06 748824
139 3 O -2.73111 22.3189 53.936 -1.2 -9.56451 -3.68781e+06 -2.12832e+06 -6.05714e+06 -562762 509021 689062
140 3 O -0.273389 22.2501 53.9223 -1.2 -9.29396 -2.59705e+06 -2.95551e+06 -4.95402e+06 567667 -471012 663873
141 1 Mg -2.869 30.6014 57.1761 1.2 -7.68316 -1.11043e+06 -2.14009e+06 4.16669e+06 -1.36779e+06 -2.3279e+06 -940162
142 1 Mg -1.38776 30.6357 49.8391 1.2 -8.37272 735716 1.35415e+06 2.83383e+06 -206939 192230 702690
143 2 Si -0.907929 28.1491 47.9262 2.4 -34.1778 8.30623e+06 5.32722e+06 1.14323e+07 490304 2.32048e+06 -1331.97
144 3 O -0.829229 29.7184 47.99 -1.2 -8.7707 -2.46396e+06 -3.4767e+06 -3.81223e+06 460551 -1.92672e+06 -271213
145 3 O -1.45946 27.0152 51.769 -1.2 -9.15526 -2.06276e+06 -2.43421e+06 -6.57558e+06 129328 -81476.3 -1.2084e+06
146 3 O -2.07744 27.5697 48.8273 -1.2 -8.90178 -926368 -2.74733e+06 -4.3819e+06 16647.4 -360830 -1.46753e+06
147 1 Mg 0.137907 26.087 46.819 1.2 -6.85906 1.81849e+06 -966939 1.65402e+06 1.12536e+06 1.58928e+06 -508660
148 3 O 0.55579 27.5065 48.3893 -1.2 -8.79854 -1.49853e+06 -839277 -3.05069e+06 -298054 -324394 556866
149 1 Mg 1.68231 26.0885 54.5549 1.2 -8.02593 1.8369e+06 1.4962e+06 1.09532e+06 -612687 260287 516226
150 2 Si 1.51923 28.6066 56.4118 2.4 -32.9726 6.89324e+06 2.9846e+06 1.30202e+07 223104 1.17129e+06 874795
151 3 O 1.4054 27.0759 56.4955 -1.2 -9.72837 -3.56727e+06 -2.68583e+06 -3.8685e+06 141547 -244990 395012
152 3 O 1.6432 29.7522 52.7291 -1.2 -9.21009 -2.90726e+06 -1.85438e+06 -5.54395e+06 43430 -79165.7 -1.04386e+06
153 3 O 0.224586 29.2608 55.709 -1.2 -8.84244 -1.63459e+06 -3.32081e+06 -4.2928e+06 -303115 314073 -446576
154 3 O 2.74875 29.1656 55.6695 -1.2 -9.36981 -4.22403e+06 -2.49003e+06 -5.17027e+06 235358 447788 -822274
155 1 Mg 0.0647462 28.3794 52.2059 1.2 -7.7944 -596126 -2.38315e+06 5.3427e+06 -934239 1.95715e+06 1.03049e+06
156 1 Mg 2.10696 28.1021 49.4531 1.2 -7.75728 2.0671e+06 -236474 1.06839e+06 109642 -147379 386266
157 2 Si 1.57592 30.4257 51.2442 2.4 -32.8601 7.26594e+06 3.45371e+06 1.24916e+07 452263 520443 464213
158 3 O 1.68288 31.9926 51.3043 -1.2 -9.89017 -2.82818e+06 -1.27662e+06 -4.62479e+06 605211 -670305 501650
159 3 O 1.59258 29.346 57.9177 -1.2 -9.26693 -2.91657e+06 -1.73727e+06 -3.84118e+06 -643405 167975 899237
160 3 O 0.258524 29.7935 50.6632 -1.2 -9.06158 -3.01148e+06 -1.7152e+06 -5.52604e+06 1.04368e+06 -853599 -268719
161 1 Mg -2.90462 28.3797 52.308 1.2 -7.575 -585131 -1.96915e+06 4.62708e+06 1.09538e+06 -1.98006e+06 724271
162 3 O 2.81205 29.7787 50.4664 -1.2 -9.44798 -2.76271e+06 -1.53365e+06 -3.30645e+06 -259238 882447 -430928
163 1 Mg -1.48194 28.2605 55.0895 1.2 -8.40674 2.56435e+06 307859 772473 210622 77644.3 -1.71653e+06
164 2 Si -1.3803 26.3477 53.2407 2.4 -32.8196 6.25314e+06 3.42754e+06 1.20706e+07 485174 749096 -380767
165 3 O -1.39454 24.8313 53.2117 -1.2 -9.94137 -2.71854e+06 -3.48491e+06 -5.41197e+06 1.05388e+06 39994.6 1.02136e+06
166 3 O -0.943026 27.648 46.4208 -1.2 -7.81609 -2.74347e+06 -1.46014e+06 -3.64663e+06 -604545 -1.50465e+06 692407
167 3 O -2.66762 26.9608 53.9638 -1.2 -9.26582 -3.83224e+06 -4.14056e+06 -4.79366e+06 -1.10596e+06 887496 -150234
168 3 O -0.143814 27.148 53.8808 -1.2 -9.00736 -2.07055e+06 -3.66139e+06 -4.9821e+06 905373 -951336 80630.4
169 1 Mg -2.83482 35.3849 57.3926 1.2 -8.24071 766596 -2.10457e+06 5.4709e+06 -1.15105e+06 -1.63075e+06 -1.48369e+06
170 1 Mg -1.28421 35.3899 49.8376 1.2 -8.5073 838556 1.09774e+06 3.19122e+06 -177142 95231 831570
171 2 Si -0.807101 32.9036 47.9247 2.4 -34.3248 8.56826e+06 5.25669e+06 1.14763e+07 477022 2.29783e+06 -129324
172 3 O -0.727174 34.4729 47.9885 -1.2 -8.68887 -2.59967e+06 -3.40888e+06 -3.89624e+06 466990 -1.90533e+06 -254288
173 3 O -1.35735 31.7701 51.768 -1.2 -9.34629 -2.1381e+06 -646608 -5.05764e+06 656447 409617 -1.42919e+06
174 3 O -1.97695 32.3253 48.826 -1.2 -8.82867 -1.03203e+06 -2.7331e+06 -4.42657e+06 20086 -328275 -1.39043e+06
175 1 Mg 0.237665 30.8412 46.8168 1.2 -6.9446 1.96207e+06 -1.0752e+06 1.7593e+06 1.12394e+06 1.59395e+06 -574785
176 3 O 0.656562 32.2608 48.3877 -1.2 -8.72225 -1.63144e+06 -799234 -3.08706e+06 -293214 -341502 659159
177 1 Mg 1.64766 30.788 54.5966 1.2 -8.35953 1.76902e+06 1.68504e+06 970136 495747 -369177 1.09618e+06
178 2 Si 1.6863 33.3487 56.4981 2.4 -33.8447 8.08312e+06 3.23167e+06 1.21584e+07 -475623 -678061 -464998
179 3 O 1.65564 31.7826 56.4801 -1.2 -9.5448 -3.74269e+06 -1.66199e+06 -5.46489e+06 331118 -275060 549294
180 3 O 1.74574 34.5067 52.7279 -1.2 -9.40954 -2.82512e+06 -1.87164e+06 -7.00199e+06 123777 -643066 -1.54504e+06
181 3 O 0.40876 34.0268 55.7389 -1.2 -8.6422 -4.30652e+06 -1.57935e+06 -4.50264e+06 -721913 -174962 -301448
182 3 O 2.86596 34.0719 55.7951 -1.2 -8.5776 -5.2111e+06 -3.03357e+06 -4.3813e+06 570542 607111 -67518.2
183 1 Mg 0.167046 33.1343 52.2045 1.2 -7.45241 111080 -1.57939e+06 5.55514e+06 -1.17943e+06 1.67611e+06 611770
184 1 Mg 2.20727 32.8578 49.4516 1.2 -7.8189 2.11082e+06 -223713 1.11924e+06 137087 -107272 292716
185 2 Si 1.67943 35.1802 51.2429 2.4 -32.9396 8.05728e+06 2.93409e+06 1.22885e+07 290881 1.08994e+06 602945
186 3 O 1.78736 36.747 51.303 -1.2 -9.70887 -3.466e+06 -752252 -4.79373e+06 815005 -817027 609857
187 3 O 1.56078 34.0144 57.9236 -1.2 -8.80473 -3.81432e+06 -655142 -7.47043e+06 49085.4 84385.6 359918
188 3 O 0.362533 34.5479 50.661 -1.2 -9.06009 -3.20192e+06 -1.65819e+06 -5.13475e+06 1.25569e+06 -955912 -487468
189 1 Mg -2.80215 33.1347 52.3062 1.2 -7.6426 -1.0596e+06 -1.56336e+06 5.15596e+06 1.59354e+06 -1.80324e+06 816039
190 3 O 2.91593 34.533 50.466 -1.2 -9.36081 -2.69767e+06 -1.52005e+06 -3.45449e+06 -400933 817474 -573309
191 1 Mg -1.27578 33.0553 55.0221 1.2 -8.53756 3.57997e+06 538584 441116 -444343 -7656.49 -417089
192 2 Si -1.34115 31.002 53.2354 2.4 -32.6541 8.84609e+06 5.13152e+06 1.30566e+07 -1.10238e+06 176408 -453274
193 3 O -1.42886 29.4251 53.1542 -1.2 -9.62068 -4.31452e+06 -1.39798e+06 -5.24745e+06 694892 -366632 18450.2
194 3 O -0.842495 32.4028 46.4192 -1.2 -7.73959 -2.86797e+06 -1.39236e+06 -3.71485e+06 -603870 -1.50279e+06 757611
195 3 O -2.65627 31.7535 53.9349 -1.2 -9.09559 -1.45855e+06 -1.92154e+06 -4.2965e+06 -1.53865e+06 -275832 -286148
196 3 O -0.0497477 31.6169 53.9546 -1.2 -9.27227 -2.15055e+06 -2.53699e+06 -3.84994e+06 1.42979e+06 -36082.3 -120873
197 1 Mg -2.65299 40.1996 57.4573 1.2 -7.86974 -138045 -1.44575e+06 4.35841e+06 -1.00656e+06 -1.49767e+06 -1.16007e+06
198 1 Mg -1.17787 40.1435 49.8359 1.2 -8.51191 966373 1.43692e+06 2.73812e+06 -180584 142270 266982
199 2 Si -0.702692 37.6572 47.9231 2.4 -34.508 8.85224e+06 5.03628e+06 1.17042e+07 496270 2.28348e+06 -594371
200 3 O -0.621782 39.2264 47.9868 -1.2 -8.61977 -2.71544e+06 -3.46777e+06 -3.83456e+06 459438 -1.91543e+06 49204.2
201 3 O -1.25221 36.5242 51.7666 -1.2 -8.80851 -2.29522e+06 467918 -5.22759e+06 245902 816874 -1.38286e+06
202 3 O -1.87295 37.0796 48.8243 -1.2 -8.70851 -1.18464e+06 -2.53046e+06 -4.67518e+06 18824.8 -338681 -1.15346e+06
203 1 Mg 0.341084 35.5943 46.8152 1.2 -7.0234 2.09602e+06 -1.17215e+06 1.85046e+06 1.12185e+06 1.58962e+06 -651444
204 3 O 0.760681 37.0138 48.3864 -1.2 -8.62052 -1.81353e+06 -628391 -3.23751e+06 -295731 -325771 835851
205 1 Mg 1.7001 35.4101 54.4471 1.2 -8.66913 2.73666e+06 1.13709e+06 685101 269489 -348025 -59385.5
206 2 Si 1.87421 38.2262 56.3482 2.4 -34.2254 7.30239e+06 3.27644e+06 1.22952e+07 -190617 -228931 -408534
207 3 O 1.82724 36.6835 56.4258 -1.2 -8.80361 -4.27952e+06 -962448 -5.24308e+06 846125 321143 -644195
208 3 O 1.85132 39.2606 52.7264 -1.2 -9.11439 -2.84767e+06 -1.21075e+06 -5.46851e+06 -482067 -676099 91239.1
209 3 O 0.603448 38.91 55.6529 -1.2 -8.87298 -3.52324e+06 -2.05348e+06 -5.38825e+06 -753102 -873319 286000
210 3 O 3.10824 38.949 55.7346 -1.2 -8.90441 -4.81912e+06 -3.01462e+06 -5.85492e+06 670439 1.49782e+06 -29508.6
211 1 Mg 0.272384 37.8883 52.2029 1.2 -7.80059 539087 -2.05306e+06 5.84179e+06 -820897 1.73609e+06 165357
212 1 Mg 2.31122 37.6122 49.4501 1.2 -7.94354 2.34422e+06 -438438 1.31001e+06 88330.7 -83597.5 -11305.5
213 2 Si 1.78573 39.934 51.2414 2.4 -33.1175 7.78095e+06 3.53904e+06 1.22798e+07 434464 1.02844e+06 -870085
214 3 O 1.89428 41.5006 51.3014 -1.2 -9.72745 -3.29846e+06 -1.53793e+06 -4.45054e+06 832295 -1.06533e+06 1.10901e+06
215 3 O 1.81958 38.8444 57.813 -1.2 -8.88388 -3.75204e+06 -1.96409e+06 -7.05324e+06 -41259.1 408214 137982
216 3 O 0.469216 39.3015 50.6588 -1.2 -8.94637 -3.30093e+06 -1.64386e+06 -5.36006e+06 1.11007e+06 -929567 227656
217 1 Mg -2.69668 37.8889 52.3043 1.2 -7.92504 -302008 -1.61439e+06 5.32618e+06 1.25798e+06 -1.75815e+06 156389
218 3 O 3.0225 39.2866 50.4651 -1.2 -9.2914 -2.84819e+06 -1.58163e+06 -3.3831e+06 -267585 927870 67915.7
219 1 Mg -1.19348 38.183 55.098 1.2 -8.55173 2.04305e+06 773567 848752 149100 579527 -726596
220 2 Si -1.20448 35.7867 53.3276 2.4 -33.6307 7.17269e+06 3.29715e+06 1.50409e+07 -185782 -302674 -1.26243e+06
221 3 O -1.35991 34.2162 53.3011 -1.2 -9.68601 -3.22191e+06 -860185 -4.93404e+06 212376 16823.7 -46925.7
222 3 O -0.738054 37.1566 46.4176 -1.2 -7.66436 -2.98716e+06 -1.32034e+06 -3.79215e+06 -606334 -1.49961e+06 899512
223 3 O -2.51764 36.506 53.919 -1.2 -8.41015 -2.40457e+06 -1.05699e+06 -5.83007e+06 -624945 500388 575030
224 3 O 0.0266132 36.422 53.9629 -1.2 -8.88676 -5.13568e+06 -957748 -5.12698e+06 271475 -1.01465e+06 327490
225 1 Mg -2.38587 44.899 57.3 1.2 -7.51074 -686062 -1.03663e+06 4.79158e+06 -1.27757e+06 -1.34198e+06 -1.29288e+06
226 1 Mg -1.06993 44.8968 49.8343 1.2 -8.71749 1.01173e+06 1.50303e+06 2.9579e+06 -195430 109013 511912
227 2 Si -0.596166 42.4103 47.9215 2.4 -34.6132 9.00522e+06 5.52056e+06 1.12424e+07 475777 2.28668e+06 -601271
228 3 O -0.51472 43.9796 47.9853 -1.2 -8.54715 -2.80345e+06 -3.59331e+06 -3.7308e+06 469970 -1.89531e+06 -40173.6
229 3 O -1.14475 41.2777 51.7649 -1.2 -9.07 -2.9253e+06 -1.78489e+06 -7.38102e+06 195604 1.50552e+06 -287106
230 3 O -1.76671 41.8331 48.8226 -1.2 -8.67612 -1.25705e+06 -2.9044e+06 -4.26148e+06 -515.324 -336307 -1.10602e+06
231 1 Mg 0.447076 40.3473 46.8135 1.2 -7.07945 2.18342e+06 -1.06196e+06 1.74252e+06 1.12251e+06 1.59342e+06 -823527
232 3 O 0.866985 41.7666 48.385 -1.2 -8.57531 -1.87076e+06 -929446 -2.93932e+06 -277383 -330006 938639
233 1 Mg 1.77302 40.4254 54.5886 1.2 -8.28147 2.22189e+06 686973 1.2812e+06 260956 -417307 -83100.8
234 2 Si 2.14754 42.9578 56.295 2.4 -32.6354 7.29993e+06 2.48541e+06 1.19053e+07 -713132 -871048 -1.13705e+06
235 3 O 1.9385 41.4353 56.4126 -1.2 -9.62466 -3.022e+06 -3.12904e+06 -4.90274e+06 958630 -227225 -1.55084e+06
236 3 O 1.95891 44.014 52.7248 -1.2 -9.47504 -3.37298e+06 -2.08075e+06 -5.35645e+06 -52125 -275374 -558800
237 3 O 0.871307 43.6869 55.6877 -1.2 -9.62537 -2.55572e+06 -2.95074e+06 -5.09207e+06 -1.00818e+06 -1.28391e+06 434619
238 3 O 3.44304 43.6112 55.6746 -1.2 -9.52502 -1.8328e+06 -2.95337e+06 -5.82277e+06 1.2842e+06 818790 678092
239 1 Mg 0.379928 42.6418 52.2013 1.2 -7.74755 -108591 -1.81388e+06 4.73964e+06 -1.13808e+06 1.69538e+06 -209184
240 1 Mg 2.41752 42.366 49.4484 1.2 -7.97953 2.42733e+06 -19585.2 874016 134608 -93644 -47283.5
241 2 Si 1.89374 44.6874 51.2398 2.4 -33.245 9.33224e+06 3.95776e+06 1.05337e+07 443061 888134 -151950
242 3 O 2.00266 46.254 51.2996 -1.2 -9.612 -3.98163e+06 -1.38554e+06 -4.02089e+06 902150 -536348 630750
243 3 O 2.14386 43.5207 57.8233 -1.2 -9.36217 -2.83563e+06 -2.09531e+06 -5.07784e+06 287287 -730057 -96560.3
244 3 O 0.577464 44.0549 50.6567 -1.2 -8.79272 -3.71926e+06 -1.98251e+06 -5.11011e+06 1.24007e+06 -501709 12120.5
245 1 Mg -2.58906 42.6425 52.3022 1.2 -7.75611 -449443 -1.48645e+06 4.18589e+06 2.17811e+06 -1.42641e+06 432747
246 3 O 3.13067 44.0398 50.464 -1.2 -9.16885 -3.18147e+06 -1.87732e+06 -2.91609e+06 -443388 635710 -257896
247 1 Mg -0.779919 42.7604 55.1843 1.2 -8.0769 47513.2 166357 2.48706e+06 -150592 -131844 -1.40453e+06
248 2 Si -1.16958 40.6077 53.2039 2.4 -33.1642 7.23375e+06 4.24091e+06 1.19773e+07 918018 581644 -898774
249 3 O -1.19644 39.0406 53.2395 -1.2 -9.62266 -3.71003e+06 -1.17931e+06 -4.8263e+06 694655 230821 1.29111e+06
250 3 O -0.631421 41.9099 46.4159 -1.2 -7.61474 -3.06633e+06 -1.45215e+06 -3.65835e+06 -604086 -1.50101e+06 972103
251 3 O -2.45429 41.2686 53.7623 -1.2 -8.84213 -3.14417e+06 -3.61285e+06 -6.68119e+06 -1.05549e+06 967094 619219
252 3 O 0.10457 41.3574 53.9959 -1.2 -9.30818 -2.24766e+06 -2.30349e+06 -3.30919e+06 2.11447e+06 -312086 1.72746e+06
253 1 Mg -2.32473 49.707 57.3051 1.2 -7.48802 -1.69924e+06 -2.3818e+06 4.40911e+06 -1.93266e+06 -1.69906e+06 -1.73794e+06
254 1 Mg -0.961069 49.6502 49.8327 1.2 -8.59886 984432 1.88571e+06 2.41522e+06 -153258 249394 555277
255 2 Si -0.488083 47.1636 47.9198 2.4 -34.698 9.10947e+06 5.64801e+06 1.11467e+07 503704 2.27102e+06 -718877
256 3 O -0.40607 48.7329 47.9837 -1.2 -8.55285 -2.7935e+06 -3.75393e+06 -3.56514e+06 455492 -1.91553e+06 -11221.9
257 3 O -1.0361 46.031 51.7632 -1.2 -8.36675 -2.68866e+06 -1.64496e+06 -5.31922e+06 35165.4 1.22625e+06 -1.26374e+06
258 3 O -1.65866 46.5866 48.821 -1.2 -8.58876 -1.3383e+06 -2.92162e+06 -4.3044e+06 15035.9 -368596 -1.0486e+06
259 1 Mg 0.554124 45.1001 46.8117 1.2 -7.13097 2.26893e+06 -1.00948e+06 1.6879e+06 1.12174e+06 1.58056e+06 -816411
260 3 O 0.974961 46.5195 48.3832 -1.2 -8.51184 -1.99623e+06 -958181 -2.87922e+06 -292970 -295839 940157
261 1 Mg 2.02756 44.9685 54.4797 1.2 -7.92363 2.11762e+06 577376 989278 -32017 -151007 317843
262 2 Si 2.14689 47.6818 56.3054 2.4 -32.5343 6.70888e+06 3.27224e+06 1.31325e+07 575702 161025 -468357
263 3 O 2.15326 46.1003 56.3532 -1.2 -9.87089 -3.99778e+06 -273339 -5.0703e+06 -107880 -63424.7 -354092
264 3 O 2.0677 48.7672 52.7232 -1.2 -9.39082 -3.00399e+06 -1.9354e+06 -4.85535e+06 -244969 -370534 -612889
265 3 O 0.917329 48.3381 55.6937 -1.2 -9.53639 -2.52096e+06 -2.36249e+06 -5.84462e+06 267798 -1.41639e+06 278748
266 3 O 3.50856 48.3992 55.7871 -1.2 -9.39764 -2.30149e+06 -2.92152e+06 -5.82565e+06 1.69902e+06 544158 -22918.4
267 1 Mg 0.488584 47.395 52.1996 1.2 -7.88375 236285 -1.75797e+06 4.59746e+06 -981205 1.95e+06 743633
268 1 Mg 2.52544 47.1195 49.4466 1.2 -8.04502 2.6025e+06 14969.9 773698 71691.1 -67235.8 -46806.4
269 2 Si 2.00256 49.4407 51.2382 2.4 -33.0772 8.26421e+06 4.6957e+06 1.05979e+07 232213 532454 28319.6
270 3 O 2.11156 51.0073 51.2982 -1.2 -9.7373 -3.42363e+06 -1.87785e+06 -3.88343e+06 767702 -732681 305898
271 3 O 2.10032 48.3184 57.8423 -1.2 -9.39261 -3.58903e+06 -1.80569e+06 -5.87822e+06 610812 -430023 1.968e+06
272 3 O 0.686344 48.8082 50.655 -1.2 -8.84308 -3.40329e+06 -2.2857e+06 -4.92996e+06 1.11992e+06 -675581 -98493
273 1 Mg -2.48039 47.3957 52.3005 1.2 -7.87645 -386178 -1.21423e+06 4.09045e+06 1.05103e+06 -1.82327e+06 353649