ITEM: TIMESTEP
7600
ITEM: NUMBER OF ATOMS
10500
ITEM: BOX BOUNDS xy xz yz pp pp pp
0.0000000000000000e+00 8.9687999999999999e+00 2.9895999999999998e+00
0.0000000000000000e+00 1.1872499999999999e+02 0.0000000000000000e+00
0.0000000000000000e+00 2.5297749999999999e+02 0.0000000000000000e+00
ITEM: ATOMS id type element xu yu zu q c_pe c_s[1] c_s[2] c_s[3] c_s[4] c_s[5] c_s[6]
1 1 Mg -3.45928 7.02172 57.4729 1.2 -7.8432 -546258 -1.68598e+06 4.75404e+06 -1.0323e+06 -1.90745e+06 -793931
2 1 Mg -1.82655 6.90154 50.0912 1.2 -8.08365 -148419 888407 1.41792e+06 -123032 -321674 1.55996e+06
3 2 Si -0.257935 3.96038 48.0876 2.4 -36.0148 9.97504e+06 8.42276e+06 1.11584e+07 806039 1.97551e+06 1.68008e+06
4 3 O -0.335812 5.46814 47.6264 -1.2 -7.83901 -3.00795e+06 -2.31276e+06 -2.67577e+06 144227 -970971 -595232
5 3 O -2.03793 3.43377 51.8941 -1.2 -8.9542 -2.92073e+06 -1.82046e+06 -6.61408e+06 -993103 662556 -1.76067e+06
6 3 O -1.54015 3.53929 48.9521 -1.2 -8.31682 -1.27821e+06 -1.44544e+06 -4.50984e+06 29812.1 -722639 -199463
7 1 Mg 1.82954 2.54582 47.1376 1.2 -8.00225 2.6217e+06 -702322 952531 1.14909e+06 833940 529129
8 3 O 1.22989 3.66364 48.7877 -1.2 -8.0354 -1.62581e+06 -2.19913e+06 -3.86389e+06 -482681 -729357 -945421
9 1 Mg 1.00264 2.3233 54.5641 1.2 -8.36178 2.69394e+06 535767 1.82242e+06 -104692 -9726.13 1.21504e+06
10 2 Si 0.957044 5.01739 56.4299 2.4 -32.8975 7.83461e+06 4.75678e+06 1.19918e+07 472307 257891 670096
11 3 O 0.951913 3.45837 56.4914 -1.2 -9.63658 -3.47102e+06 -977018 -4.9467e+06 487641 -165555 -992023
12 3 O 1.10813 6.07342 52.8172 -1.2 -9.38627 -2.52817e+06 -2.7753e+06 -4.80776e+06 286295 -190113 -1.42618e+06
13 3 O -0.330689 5.70454 55.7925 -1.2 -9.35069 -2.10729e+06 -2.3721e+06 -4.49111e+06 -848433 -820161 -737727
14 3 O 2.27192 5.73973 55.8122 -1.2 -9.22771 -1.55423e+06 -2.96329e+06 -4.48643e+06 1.079e+06 853141 -453568
15 1 Mg -0.459401 4.67631 52.2426 1.2 -7.86967 -627020 -1.90163e+06 5.67575e+06 -1.26212e+06 1.3053e+06 1.05888e+06
16 1 Mg 2.79456 3.9971 49.9987 1.2 -8.33199 3.4899e+06 -271751 1.8866e+06 -528122 826997 -889793
17 2 Si 1.16169 6.59457 51.2556 2.4 -33.1998 6.59156e+06 5.76455e+06 1.21812e+07 196067 741082 2.98095e+06
18 3 O 1.28989 8.18905 51.2909 -1.2 -9.68658 -2.68534e+06 -1.20196e+06 -3.98606e+06 319696 -780725 520796
19 3 O 1.00819 5.62241 57.9448 -1.2 -9.29268 -2.67803e+06 -1.98582e+06 -5.25295e+06 -195181 878713 701039
20 3 O -0.184847 6.06029 50.6845 -1.2 -8.91209 -2.79006e+06 -2.90575e+06 -5.17614e+06 1.46617e+06 -450817 -1.46959e+06
21 1 Mg -3.49704 4.67769 52.6661 1.2 -7.50741 -405205 -2.06241e+06 3.32428e+06 2.24944e+06 -1.2501e+06 1.10745e+06
22 3 O 2.48581 5.93312 50.6539 -1.2 -9.40277 -2.74642e+06 -1.33453e+06 -3.44369e+06 -1.62837e+06 -576531 -1.02043e+06
23 1 Mg -1.99125 4.74983 55.1954 1.2 -8.31114 1.62254e+06 1.3607e+06 878385 -209523 -798696 -301534
24 2 Si -1.93159 2.66036 53.3092 2.4 -33.5319 7.55919e+06 3.15465e+06 1.42315e+07 1.03192e+06 -151965 30264.7
25 3 O -1.98847 1.10694 53.1942 -1.2 -9.28936 -3.56876e+06 -1.34271e+06 -5.26119e+06 768151 -257175 678676
26 3 O -0.0467762 2.97103 46.8385 -1.2 -7.00881 -2.97023e+06 -1.96331e+06 -3.0608e+06 -990004 -2.0055e+06 -628641
27 3 O -3.17985 3.29072 54.132 -1.2 -9.07264 -2.42441e+06 -1.95255e+06 -5.82079e+06 -769837 149599 513574
28 3 O -0.651149 3.32742 53.9699 -1.2 -8.99244 -3.16875e+06 -1.99205e+06 -5.06417e+06 777940 -211225 202627
29 1 Mg -3.4027 11.7362 57.4637 1.2 -7.53281 -747843 -2.02323e+06 4.66218e+06 -1.70536e+06 -1.90896e+06 -543686
30 1 Mg -1.75014 11.5838 49.8362 1.2 -8.3818 712391 1.63142e+06 2.78922e+06 -312419 207008 742418
31 2 Si -1.18003 9.02138 47.9309 2.4 -34.313 8.27003e+06 6.73735e+06 1.01759e+07 230955 2.58788e+06 538247
32 3 O -1.23224 10.5991 47.9811 -1.2 -8.76364 -2.43119e+06 -3.31367e+06 -3.05156e+06 654213 -1.90729e+06 2090.76
33 3 O -1.79016 8.01447 51.8693 -1.2 -9.26864 -2.48209e+06 -2.45472e+06 -5.57675e+06 46491.7 314006 -2.14387e+06
34 3 O -2.30986 8.37215 48.8528 -1.2 -9.03305 -899497 -2.33098e+06 -3.59131e+06 -335756 -583987 -985720
35 1 Mg 0.154883 7.08234 46.8007 1.2 -7.48501 1.83477e+06 -296345 936720 943215 1.72733e+06 -915801
36 3 O 0.325447 8.50934 48.3809 -1.2 -8.67864 -1.34889e+06 -1.76188e+06 -2.92178e+06 -32618.2 -838152 244571
37 1 Mg 1.14237 7.15541 54.6117 1.2 -8.20035 1.88229e+06 739514 1.79461e+06 631346 -308950 1.20374e+06
38 2 Si 1.06595 9.75166 56.524 2.4 -33.1287 8.29433e+06 3.80609e+06 1.27916e+07 14136.6 -450426 208470
39 3 O 1.10023 8.18713 56.5863 -1.2 -9.46591 -4.00778e+06 -733081 -4.74052e+06 625835 -41153.1 -112054
40 3 O 1.28624 10.7248 52.7351 -1.2 -9.28749 -3.16492e+06 -1.22949e+06 -4.7935e+06 105605 -635650 -617728
41 3 O -0.204675 10.3819 55.8608 -1.2 -9.12273 -2.72479e+06 -2.80828e+06 -4.33097e+06 -551040 -365329 -271223
42 3 O 2.36818 10.4308 55.8254 -1.2 -9.12735 -2.00533e+06 -2.54497e+06 -4.37723e+06 1.04809e+06 156637 -643729
43 1 Mg -0.262694 9.34741 52.2523 1.2 -7.71767 63788.4 -1.82059e+06 5.27642e+06 -1.62262e+06 1.51819e+06 1.30686e+06
44 1 Mg 1.87648 9.01537 49.4629 1.2 -7.81444 1.87457e+06 211419 650897 247389 -221803 440499
45 2 Si 1.21415 11.3799 51.2378 2.4 -32.886 7.83653e+06 3.99084e+06 1.17771e+07 291563 792824 473959
46 3 O 1.31634 12.9512 51.3023 -1.2 -9.94601 -2.8989e+06 -1.44547e+06 -3.95241e+06 637050 -598312 771335
47 3 O 1.12053 10.4496 58.0172 -1.2 -9.41288 -3.21878e+06 -1.62364e+06 -5.36391e+06 -352852 272329 1.02243e+06
48 3 O -0.115718 10.7564 50.681 -1.2 -9.00688 -3.06549e+06 -1.92002e+06 -5.02562e+06 1.19752e+06 -579478 -593129
49 1 Mg -3.26386 9.35564 52.3622 1.2 -7.71714 -716309 -1.63038e+06 4.54671e+06 1.54407e+06 -1.68306e+06 970740
50 3 O 2.45216 10.7265 50.4558 -1.2 -9.44378 -2.66062e+06 -1.47117e+06 -2.92473e+06 -773535 443222 -66027.7
51 1 Mg -1.88611 9.47342 55.1815 1.2 -8.51822 2.48516e+06 438636 1.88552e+06 -22725.5 -259596 -1.22269e+06
52 2 Si -1.72192 7.35798 53.3808 2.4 -32.8065 8.03832e+06 4.25325e+06 1.30391e+07 -237612 -263035 966560
53 3 O -1.89478 5.84288 53.3542 -1.2 -9.79652 -2.83618e+06 -2.58738e+06 -5.60467e+06 1.25736e+06 -383714 -58306.9
54 3 O -1.19417 8.46968 46.4488 -1.2 -7.66487 -2.68618e+06 -1.84585e+06 -3.14187e+06 -541369 -1.73952e+06 750629
55 3 O -3.00937 8.12808 54.092 -1.2 -8.96971 -1.0647e+06 -2.55731e+06 -4.67972e+06 -1.20055e+06 285631 111766
56 3 O -0.439094 8.12626 53.9876 -1.2 -9.22067 -2.85439e+06 -2.19967e+06 -4.55463e+06 1.83117e+06 -606665 -32461.9
57 1 Mg -3.34347 16.5387 57.482 1.2 -7.44547 -690253 -1.36005e+06 4.52865e+06 -994279 -1.66891e+06 -408353
58 1 Mg -1.6714 16.3544 49.8412 1.2 -8.34561 648807 1.72416e+06 2.57013e+06 -176697 228746 727280
59 2 Si -1.18567 13.8526 47.9314 2.4 -34.196 8.36295e+06 5.82923e+06 1.08284e+07 506494 2.24016e+06 -383796
60 3 O -1.09664 15.4205 47.9915 -1.2 -8.80505 -2.33026e+06 -3.67701e+06 -3.41191e+06 420979 -1.9302e+06 -167464
61 3 O -1.73493 12.7491 51.7772 -1.2 -9.23098 -1.94719e+06 -1.69725e+06 -5.6664e+06 247688 414244 -554886
62 3 O -2.36115 13.2717 48.8238 -1.2 -8.87608 -1.01039e+06 -2.86937e+06 -4.08849e+06 -106033 -354304 -1.18854e+06
63 1 Mg -0.159928 11.7639 46.8533 1.2 -6.95061 2.00514e+06 -787279 1.42954e+06 1.12768e+06 1.5715e+06 -859608
64 3 O 0.2623 13.1866 48.413 -1.2 -8.78088 -1.54998e+06 -916645 -2.84896e+06 -200543 -294282 829509
65 1 Mg 1.28899 11.868 54.6232 1.2 -8.16836 2.5144e+06 1.0235e+06 1.72304e+06 -299424 -257021 871465
66 2 Si 1.13061 14.4476 56.4546 2.4 -32.4284 7.30415e+06 4.0082e+06 1.19908e+07 -77005.4 777847 -148653
67 3 O 1.09061 12.8987 56.5135 -1.2 -9.88794 -3.14081e+06 -1.86207e+06 -4.5918e+06 60969.5 -488234 -806243
68 3 O 1.36565 15.4813 52.729 -1.2 -9.5199 -2.47745e+06 -1.54584e+06 -4.74564e+06 410012 -341528 -709826
69 3 O -0.154122 15.1746 55.7505 -1.2 -9.28948 -977769 -1.94092e+06 -4.12071e+06 -877423 21220.2 -278814
70 3 O 2.38621 15.134 55.773 -1.2 -9.63159 -2.94216e+06 -2.20281e+06 -4.02045e+06 1.07729e+06 146078 -113750
71 1 Mg -0.206989 14.1049 52.2121 1.2 -7.46884 -367825 -962804 5.22316e+06 -1.24818e+06 1.57899e+06 815572
72 1 Mg 1.82591 13.8102 49.4556 1.2 -7.76093 2.07846e+06 236719 666953 119692 -92913.3 226651
73 2 Si 1.29285 16.1518 51.2434 2.4 -32.6981 7.34677e+06 4.20106e+06 1.14276e+07 75151.4 343597 554338
74 3 O 1.39496 17.7199 51.3047 -1.2 -9.9216 -2.87963e+06 -1.55396e+06 -4.2268e+06 649781 -316102 457596
75 3 O 1.10425 15.0964 57.9435 -1.2 -9.68372 -2.49901e+06 -1.87968e+06 -5.27106e+06 177092 -68767.8 837527
76 3 O -0.0269106 15.5178 50.6688 -1.2 -9.11559 -2.92004e+06 -2.09029e+06 -5.03496e+06 1.12255e+06 -774809 -446054
77 1 Mg -3.18391 14.1057 52.3125 1.2 -7.42135 -803634 -981557 4.2472e+06 1.47052e+06 -1.73284e+06 647021
78 3 O 2.52432 15.503 50.4579 -1.2 -9.50027 -2.67728e+06 -1.85454e+06 -2.77133e+06 -327489 795805 -309548
79 1 Mg -1.89644 14.1753 55.1224 1.2 -8.09227 1.90818e+06 1.58681e+06 1.50028e+06 186117 11460.5 -728339
80 2 Si -1.6846 12.0478 53.2541 2.4 -33.1086 6.63043e+06 3.57038e+06 1.29011e+07 291034 322716 -183483
81 3 O -1.81436 10.512 53.1897 -1.2 -9.47231 -3.5671e+06 -2.99974e+06 -4.8878e+06 371064 105996 299126
82 3 O -1.21337 13.3381 46.4311 -1.2 -7.76117 -2.89506e+06 -1.61983e+06 -3.4222e+06 -632061 -1.45073e+06 947298
83 3 O -2.95879 12.7353 53.9585 -1.2 -9.2788 -2.5811e+06 -2.64206e+06 -4.41353e+06 -829925 229108 76978.7
84 3 O -0.445937 12.7172 53.9481 -1.2 -9.29118 -2.79492e+06 -1.97515e+06 -4.00264e+06 556229 -671934 131412
85 1 Mg -3.17264 21.2405 57.317 1.2 -7.51065 -705717 -1.29521e+06 4.6497e+06 -1.06749e+06 -1.76529e+06 -884586
86 1 Mg -1.5831 21.1217 49.8405 1.2 -8.41081 723799 1.58376e+06 2.70218e+06 -175659 247163 767772
87 2 Si -1.09384 18.6291 47.9287 2.4 -34.259 8.43144e+06 5.84009e+06 1.09118e+07 492190 2.33189e+06 -152896
88 3 O -1.02071 20.1985 47.9911 -1.2 -8.75141 -2.46728e+06 -3.67736e+06 -3.53457e+06 456636 -1.9339e+06 -241279
89 3 O -1.65002 17.5002 51.771 -1.2 -9.26787 -2.18153e+06 -1.92721e+06 -5.25243e+06 381331 -268205 -913394
90 3 O -2.26174 18.0434 48.8281 -1.2 -8.86588 -1.01589e+06 -2.94676e+06 -4.10492e+06 -18812.5 -373894 -1.31181e+06
91 1 Mg -0.0440435 16.5651 46.8269 1.2 -6.9456 1.92882e+06 -745252 1.43997e+06 1.13385e+06 1.57998e+06 -672257
92 3 O 0.37001 17.9877 48.3925 -1.2 -8.7521 -1.56545e+06 -1.06989e+06 -2.82458e+06 -286048 -328369 670425
93 1 Mg 1.35826 16.5636 54.6161 1.2 -8.0164 2.1083e+06 1.09895e+06 1.6961e+06 53241.6 -10958.8 779329
94 2 Si 1.24625 19.1929 56.3936 2.4 -32.443 6.53218e+06 3.78854e+06 1.32134e+07 10529.8 719273 9685.73
95 3 O 1.22444 17.662 56.4991 -1.2 -10.078 -2.76982e+06 -1.88553e+06 -4.77107e+06 269953 -640033 -808150
96 3 O 1.45147 20.239 52.7294 -1.2 -9.4152 -2.87058e+06 -1.92656e+06 -5.3172e+06 379685 -365339 -967618
97 3 O -0.0451165 19.8958 55.7472 -1.2 -9.38915 -1.448e+06 -2.04057e+06 -4.47172e+06 -885621 -270616 -232412
98 3 O 2.48978 19.9439 55.6945 -1.2 -9.56091 -2.34006e+06 -2.46081e+06 -5.36703e+06 1.44966e+06 381231 -300606
99 1 Mg -0.126194 18.8651 52.2079 1.2 -7.65163 -533799 -1.14004e+06 5.07773e+06 -1.21145e+06 1.82631e+06 774692
100 1 Mg 1.92402 18.5815 49.4545 1.2 -7.78443 2.09702e+06 94523.8 735244 116651 -152805 299459
101 2 Si 1.38106 20.9117 51.2443 2.4 -32.835 7.72208e+06 3.97409e+06 1.15383e+07 119457 330358 601264
102 3 O 1.48527 22.4795 51.3054 -1.2 -9.88064 -3.13306e+06 -1.4072e+06 -4.25861e+06 735511 -222417 451104
103 3 O 1.31303 19.8884 57.8904 -1.2 -9.4379 -2.08611e+06 -1.48012e+06 -5.11618e+06 -64252.9 55548.6 1.03548e+06
104 3 O 0.0615419 20.2804 50.6669 -1.2 -9.03531 -3.00594e+06 -2.05218e+06 -5.22358e+06 1.15624e+06 -715976 -472661
105 1 Mg -3.09665 18.8643 52.3122 1.2 -7.45849 -563653 -1.60031e+06 4.15986e+06 1.61332e+06 -1.99722e+06 910341
106 3 O 2.61548 20.2646 50.4626 -1.2 -9.44678 -2.84728e+06 -1.73455e+06 -2.93371e+06 -360801 776559 -437880
107 1 Mg -1.76396 18.9604 55.1009 1.2 -7.93091 2.02685e+06 1.01317e+06 1.75247e+06 61987.7 -214240 -966307
108 2 Si -1.65476 16.8226 53.2614 2.4 -32.5329 7.73374e+06 3.96137e+06 1.26125e+07 362014 261033 -152229
109 3 O -1.73755 15.2957 53.2114 -1.2 -9.95724 -2.75361e+06 -1.96357e+06 -4.51024e+06 52345.2 -372343 737648
110 3 O -1.12868 18.1227 46.4249 -1.2 -7.75389 -2.85816e+06 -1.65931e+06 -3.42451e+06 -604395 -1.49702e+06 816886
111 3 O -2.9198 17.5754 53.9576 -1.2 -9.58866 -1.45234e+06 -2.0925e+06 -4.12641e+06 -834447 149236 293477
112 3 O -0.319366 17.5255 53.8929 -1.2 -9.28187 -515541 -2.0803e+06 -4.14687e+06 1.13775e+06 -351080 454065
113 1 Mg -3.13297 25.9954 57.4704 1.2 -7.71439 -196153 -1.45559e+06 4.35876e+06 -1.40176e+06 -1.56914e+06 -922706
114 1 Mg -1.48778 25.88 49.8402 1.2 -8.41248 714885 1.62512e+06 2.65586e+06 -220608 230528 801986
115 2 Si -1.00491 23.3922 47.9274 2.4 -34.3084 8.49216e+06 5.73738e+06 1.10411e+07 491983 2.33625e+06 -166362
116 3 O -0.927602 24.9615 47.9909 -1.2 -8.73158 -2.50498e+06 -3.68849e+06 -3.59149e+06 461782 -1.92999e+06 -250323
117 3 O -1.55795 22.2588 51.7696 -1.2 -9.05435 -2.4448e+06 -1.74451e+06 -6.06612e+06 182215 -282515 -928292
118 3 O -2.17411 22.8111 48.8277 -1.2 -8.83 -1.06149e+06 -2.93065e+06 -4.16998e+06 1099.19 -383332 -1.34191e+06
119 1 Mg 0.0423997 21.3296 46.8225 1.2 -6.96546 1.98218e+06 -840822 1.52717e+06 1.12588e+06 1.58746e+06 -627113
120 3 O 0.458537 22.7495 48.3911 -1.2 -8.72094 -1.61324e+06 -1.02008e+06 -2.8843e+06 -291099 -316051 665370
121 1 Mg 1.49199 21.3012 54.534 1.2 -8.12278 1.74714e+06 488627 1.31203e+06 -36828.1 -6242.56 1.03557e+06
122 2 Si 1.40271 23.9245 56.2891 2.4 -32.8156 6.76114e+06 3.19867e+06 1.28358e+07 -2407.39 335553 641309
123 3 O 1.34915 22.4057 56.4314 -1.2 -9.8787 -2.9648e+06 -3.03428e+06 -4.89646e+06 465269 -548225 -769488
124 3 O 1.54441 24.9963 52.7297 -1.2 -9.53691 -2.57746e+06 -1.68365e+06 -5.53935e+06 -148728 -299398 -979454
125 3 O 0.131484 24.6328 55.6862 -1.2 -9.24053 -2.73221e+06 -2.51964e+06 -5.31841e+06 -678514 -691511 -323075
126 3 O 2.64256 24.6289 55.6366 -1.2 -9.45352 -3.43385e+06 -2.38298e+06 -4.59941e+06 866784 483967 -111652
127 1 Mg -0.0335968 23.6229 52.2067 1.2 -7.75591 -960303 -1.51912e+06 4.99604e+06 -848950 1.93227e+06 573014
128 1 Mg 2.01073 23.3445 49.4541 1.2 -7.80797 2.17813e+06 17443.9 775810 112645 -174097 269661
129 2 Si 1.47594 25.6699 51.2449 2.4 -32.7464 7.57132e+06 4.0993e+06 1.13733e+07 497353 378699 616173
130 3 O 1.58172 27.2371 51.3054 -1.2 -9.87717 -3.13385e+06 -1.41918e+06 -4.27244e+06 703468 -409535 235118
131 3 O 1.41569 24.6232 57.8534 -1.2 -9.18434 -3.02537e+06 -1.78487e+06 -4.07595e+06 139381 -110686 1.65064e+06
132 3 O 0.157925 25.0378 50.6651 -1.2 -9.02188 -3.01245e+06 -2.05133e+06 -5.42679e+06 1.09367e+06 -613967 -298901
133 1 Mg -3.00341 23.6231 52.3098 1.2 -7.40174 -97588.2 -1.41663e+06 4.46293e+06 1.57787e+06 -1.71986e+06 818138
134 3 O 2.71149 25.0232 50.4656 -1.2 -9.46807 -2.83863e+06 -1.8281e+06 -2.77442e+06 -348527 859519 -519383
135 1 Mg -1.58839 23.749 55.0921 1.2 -8.05027 1.37261e+06 962139 1.97997e+06 -58561.8 -282428 -275951
136 2 Si -1.54239 21.5461 53.2491 2.4 -32.9805 7.20293e+06 2.90843e+06 1.27985e+07 526739 312221 -36949.7
137 3 O -1.62741 20.0308 53.1693 -1.2 -9.84432 -3.3498e+06 -3.27155e+06 -4.77953e+06 237347 -53356.3 408930
138 3 O -1.03938 22.8897 46.4223 -1.2 -7.73877 -2.86739e+06 -1.61313e+06 -3.48495e+06 -606202 -1.5035e+06 799677
139 3 O -2.79122 22.2536 53.9378 -1.2 -9.41765 -2.5633e+06 -2.10715e+06 -4.99596e+06 -736983 895944 -140698
140 3 O -0.22034 22.2325 53.8562 -1.2 -9.12617 -1.54166e+06 -2.19304e+06 -4.93872e+06 1.15166e+06 -735403 277027
141 1 Mg -2.90874 30.7369 57.3058 1.2 -7.63892 -388470 -1.09793e+06 4.79164e+06 -570388 -1.60751e+06 -481521
142 1 Mg -1.38776 30.6357 49.8391 1.2 -8.46973 733574 1.36369e+06 2.9849e+06 -177769 175556 655702
143 2 Si -0.907929 28.1491 47.9262 2.4 -34.3352 8.54202e+06 5.53355e+06 1.12419e+07 482906 2.30428e+06 -115397
144 3 O -0.829229 29.7184 47.99 -1.2 -8.72149 -2.52564e+06 -3.55377e+06 -3.75266e+06 461217 -1.91213e+06 -199135
145 3 O -1.45946 27.0152 51.769 -1.2 -9.13196 -2.2648e+06 -1.72532e+06 -5.73246e+06 395578 129709 -1.3553e+06
146 3 O -2.07744 27.5697 48.8273 -1.2 -8.80603 -1.06204e+06 -2.87701e+06 -4.273e+06 13186.1 -362670 -1.44403e+06
147 1 Mg 0.137907 26.087 46.819 1.2 -6.97154 1.99853e+06 -893567 1.58078e+06 1.12458e+06 1.58817e+06 -610457
148 3 O 0.55579 27.5065 48.3893 -1.2 -8.70636 -1.65587e+06 -951056 -2.93081e+06 -293236 -319046 612428
149 1 Mg 1.58977 26.0612 54.5181 1.2 -8.07018 1.82056e+06 470544 1.5825e+06 -9976.76 55141.2 739327
150 2 Si 1.43147 28.6579 56.2579 2.4 -33.0731 7.25675e+06 4.41376e+06 1.30115e+07 472904 46829.4 -359.662
151 3 O 1.39493 27.1266 56.4498 -1.2 -9.78481 -3.56288e+06 -2.33797e+06 -4.73353e+06 -40596.9 -247341 -966949
152 3 O 1.6432 29.7522 52.7291 -1.2 -9.31388 -3.17262e+06 -1.16425e+06 -5.50902e+06 -62343.1 -659099 -892058
153 3 O 0.152791 29.3852 55.7388 -1.2 -9.19569 -2.47287e+06 -2.09038e+06 -5.15276e+06 -797849 -1.12803e+06 127896
154 3 O 2.72585 29.3761 55.6308 -1.2 -9.27808 -1.86749e+06 -1.73946e+06 -5.52224e+06 1.55489e+06 1.10874e+06 -292041
155 1 Mg 0.0647462 28.3794 52.2059 1.2 -7.73813 -152048 -1.7564e+06 5.11489e+06 -1.19207e+06 1.79787e+06 884151
156 1 Mg 2.10696 28.1021 49.4531 1.2 -7.84161 2.22131e+06 -114277 926958 127592 -117763 375159
157 2 Si 1.57592 30.4257 51.2442 2.4 -32.929 8.24458e+06 3.33343e+06 1.17504e+07 268087 706109 354465
158 3 O 1.68288 31.9926 51.3043 -1.2 -9.90634 -3.18595e+06 -1.3541e+06 -4.24588e+06 795921 -520731 455306
159 3 O 1.51675 29.3511 57.8211 -1.2 -9.00061 -2.50643e+06 -1.45786e+06 -5.0152e+06 5869.22 -110841 1.60538e+06
160 3 O 0.258524 29.7935 50.6632 -1.2 -8.96638 -3.31416e+06 -1.73523e+06 -5.38599e+06 1.17385e+06 -637359 -393130
161 1 Mg -2.90462 28.3797 52.308 1.2 -7.65624 -535620 -1.50618e+06 4.52749e+06 1.46877e+06 -1.86945e+06 867574
162 3 O 2.81205 29.7787 50.4664 -1.2 -9.34675 -2.96158e+06 -1.54275e+06 -3.29997e+06 -345753 682408 -487419
163 1 Mg -1.54159 28.4519 55.0744 1.2 -8.1538 1.733e+06 903839 1.96122e+06 70241.4 17731.7 -1.10585e+06
164 2 Si -1.39464 26.3017 53.2477 2.4 -32.6277 7.31401e+06 4.15268e+06 1.34441e+07 -358669 269387 120797
165 3 O -1.39723 24.7619 53.1706 -1.2 -9.96154 -2.87422e+06 -2.04533e+06 -5.28852e+06 766895 56016.2 447789
166 3 O -0.943026 27.648 46.4208 -1.2 -7.73827 -2.86613e+06 -1.54535e+06 -3.56356e+06 -603784 -1.50315e+06 804619
167 3 O -2.69552 27.0174 53.9375 -1.2 -9.387 -1.45959e+06 -1.7298e+06 -5.04681e+06 -1.39004e+06 345910 571808
168 3 O -0.115857 27.0608 53.8806 -1.2 -9.31663 -1.33766e+06 -1.76321e+06 -4.78198e+06 1.24095e+06 -545293 522067
169 1 Mg -2.85018 35.5547 57.3995 1.2 -7.62948 -25416.2 -1.08387e+06 4.65006e+06 -921223 -1.42705e+06 -564258
170 1 Mg -1.28421 35.3899 49.8376 1.2 -8.29498 499372 1.51063e+06 2.78513e+06 -169696 218508 578366
171 2 Si -0.807101 32.9036 47.9247 2.4 -34.2155 8.35042e+06 5.5741e+06 1.12027e+07 493561 2.30291e+06 -522956
172 3 O -0.727174 34.4729 47.9885 -1.2 -8.81757 -2.3748e+06 -3.67402e+06 -3.64303e+06 460036 -1.91902e+06 -45865.8
173 3 O -1.35735 31.7701 51.768 -1.2 -9.03294 -2.19586e+06 -1.61678e+06 -5.48249e+06 170606 322473 -973031
174 3 O -1.97695 32.3253 48.826 -1.2 -8.84852 -979091 -2.85084e+06 -4.3224e+06 16130.6 -365045 -1.20362e+06
175 1 Mg 0.237665 30.8412 46.8168 1.2 -6.95081 1.9723e+06 -976114 1.65993e+06 1.12372e+06 1.58631e+06 -728500
176 3 O 0.656562 32.2608 48.3877 -1.2 -8.74885 -1.59224e+06 -915077 -2.9621e+06 -295102 -313528 818886
177 1 Mg 1.66265 30.9387 54.5066 1.2 -8.22206 1.10305e+06 508455 1.45659e+06 -374079 -98311.4 751707
178 2 Si 1.61919 33.4005 56.3871 2.4 -33.0044 7.24716e+06 3.78748e+06 1.21856e+07 -32199.5 520700 792155
179 3 O 1.59967 31.8696 56.3863 -1.2 -9.76253 -3.40973e+06 -3.13326e+06 -4.61239e+06 171029 -453726 -361970
180 3 O 1.74574 34.5067 52.7279 -1.2 -9.60093 -2.69416e+06 -1.42384e+06 -5.7104e+06 265416 -299595 -1.03306e+06
181 3 O 0.34244 34.1102 55.7459 -1.2 -9.1248 -2.66287e+06 -2.53937e+06 -4.68176e+06 -829754 -591722 -595128
182 3 O 2.87732 34.1073 55.7236 -1.2 -9.26623 -3.099e+06 -2.00179e+06 -4.61994e+06 1.09014e+06 830789 -493481
183 1 Mg 0.167046 33.1343 52.2045 1.2 -7.57847 -382463 -1.49147e+06 5.37061e+06 -1.11557e+06 1.66014e+06 906581
184 1 Mg 2.20727 32.8578 49.4516 1.2 -7.77055 2.1152e+06 -95885.2 910662 101524 -118913 132518
185 2 Si 1.67943 35.1802 51.2429 2.4 -32.5023 7.36265e+06 3.64304e+06 1.16103e+07 234532 480827 264883
186 3 O 1.78736 36.747 51.303 -1.2 -10.1024 -2.75108e+06 -1.4425e+06 -4.26449e+06 738234 -519647 468904
187 3 O 1.65608 34.1051 57.8822 -1.2 -9.32032 -3.02905e+06 -948383 -5.86842e+06 505149 -3124.51 1.40132e+06
188 3 O 0.362533 34.5479 50.661 -1.2 -9.1513 -2.88071e+06 -1.89689e+06 -5.24401e+06 1.18309e+06 -753510 -318769
189 1 Mg -2.80215 33.1347 52.3062 1.2 -7.48029 -698666 -1.48555e+06 4.63181e+06 1.50185e+06 -1.75563e+06 893093
190 3 O 2.91593 34.533 50.466 -1.2 -9.53455 -2.66705e+06 -1.70377e+06 -3.0761e+06 -320612 791232 -344313
191 1 Mg -1.36559 33.252 55.1294 1.2 -8.18222 1.70542e+06 861270 1.40835e+06 21065.5 -152161 -308773
192 2 Si -1.33438 31.0796 53.2824 2.4 -32.9922 7.01511e+06 3.73808e+06 1.35914e+07 754614 498856 210790
193 3 O -1.42999 29.5315 53.1545 -1.2 -9.65491 -3.3618e+06 -1.74047e+06 -5.30785e+06 805620 188717 593557
194 3 O -0.842495 32.4028 46.4192 -1.2 -7.78324 -2.79274e+06 -1.54576e+06 -3.56581e+06 -605610 -1.50262e+06 960515
195 3 O -2.619 31.7417 53.9128 -1.2 -9.28753 -2.80185e+06 -2.88405e+06 -5.65313e+06 -1.09712e+06 1.24873e+06 -232374
196 3 O -0.0434039 31.8002 53.9096 -1.2 -9.33446 -1.95356e+06 -1.69513e+06 -4.91276e+06 1.26889e+06 -978860 177938
197 1 Mg -2.69321 40.2538 57.376 1.2 -7.21363 -854106 -1.16966e+06 4.94276e+06 -873347 -1.72098e+06 -577842
198 1 Mg -1.17787 40.1435 49.8359 1.2 -8.12383 285839 1.67667e+06 2.56312e+06 -182974 220687 522028
199 2 Si -0.702692 37.6572 47.9231 2.4 -33.9717 7.96447e+06 5.85436e+06 1.09162e+07 490582 2.31648e+06 -591579
200 3 O -0.621782 39.2264 47.9868 -1.2 -8.94082 -2.18331e+06 -3.82672e+06 -3.48753e+06 461233 -1.92567e+06 -39282.7
201 3 O -1.25221 36.5242 51.7666 -1.2 -9.33702 -1.84632e+06 -1.6153e+06 -5.38745e+06 396826 227539 -906503
202 3 O -1.87295 37.0796 48.8243 -1.2 -8.99033 -770378 -2.98587e+06 -4.16812e+06 18393.6 -368612 -1.17229e+06
203 1 Mg 0.341084 35.5943 46.8152 1.2 -6.85824 1.82318e+06 -849827 1.53639e+06 1.12301e+06 1.58803e+06 -825949
204 3 O 0.760681 37.0138 48.3864 -1.2 -8.87701 -1.37055e+06 -1.05732e+06 -2.83121e+06 -294628 -313619 867264
205 1 Mg 1.73687 35.5724 54.4908 1.2 -8.06092 1.49037e+06 1.08038e+06 1.76654e+06 174630 -229054 712429
206 2 Si 1.69998 38.2388 56.3442 2.4 -32.8062 6.04494e+06 3.81918e+06 1.22617e+07 -397923 531546 -12663
207 3 O 1.69141 36.6894 56.466 -1.2 -9.63282 -3.13584e+06 -1.89106e+06 -4.60652e+06 -20434.4 -355170 -1.09795e+06
208 3 O 1.85132 39.2606 52.7264 -1.2 -9.69983 -2.24606e+06 -1.40776e+06 -5.3642e+06 105634 -303808 -644190
209 3 O 0.429206 38.9462 55.6847 -1.2 -9.39449 -1.41164e+06 -2.02017e+06 -4.35485e+06 -420912 -401393 211859
210 3 O 2.96107 38.8925 55.7078 -1.2 -9.67052 -2.95991e+06 -2.79403e+06 -4.48294e+06 449306 992132 193816
211 1 Mg 0.272384 37.8883 52.2029 1.2 -7.39785 -1.00741e+06 -1.44662e+06 5.2671e+06 -925504 1.95966e+06 595253
212 1 Mg 2.31122 37.6122 49.4501 1.2 -7.61805 1.87181e+06 20349.9 803459 106054 -145304 113415
213 2 Si 1.78573 39.934 51.2414 2.4 -32.191 6.59359e+06 3.93885e+06 1.16081e+07 329272 465695 87492.7
214 3 O 1.89428 41.5006 51.3014 -1.2 -10.2654 -2.43586e+06 -1.66517e+06 -4.16041e+06 769790 -411959 535436
215 3 O 1.69706 38.8321 57.8663 -1.2 -9.46284 -1.83978e+06 -1.98026e+06 -5.08606e+06 482551 -119616 -145655
216 3 O 0.469216 39.3015 50.6588 -1.2 -9.29871 -2.64588e+06 -1.97331e+06 -5.39443e+06 1.10281e+06 -682170 -160377
217 1 Mg -2.69668 37.8889 52.3043 1.2 -7.24714 -870647 -1.65691e+06 4.36497e+06 1.61271e+06 -1.9916e+06 932930
218 3 O 3.0225 39.2866 50.4651 -1.2 -9.7071 -2.40575e+06 -1.80156e+06 -2.96678e+06 -291392 845297 -298624
219 1 Mg -1.31565 38.0138 55.0173 1.2 -7.90063 2.13635e+06 922522 1.50542e+06 135295 97601.5 -1.09066e+06
220 2 Si -1.25339 35.8428 53.2758 2.4 -32.4818 6.38656e+06 3.2599e+06 1.36402e+07 94182.5 353795 -293558
221 3 O -1.33679 34.2968 53.2158 -1.2 -9.88563 -2.97486e+06 -1.60439e+06 -4.82974e+06 134964 -147665 459839
222 3 O -0.738054 37.1566 46.4176 -1.2 -7.87945 -2.63913e+06 -1.68914e+06 -3.42538e+06 -606120 -1.50405e+06 1.00785e+06
223 3 O -2.52558 36.5809 53.9083 -1.2 -9.62616 -1.80644e+06 -1.87377e+06 -5.38931e+06 -428475 639704 21302.6
224 3 O 0.0463717 36.4729 53.9334 -1.2 -9.46176 -1.61358e+06 -2.17188e+06 -5.02883e+06 789527 -816422 145490
225 1 Mg -2.6451 45.0069 57.3586 1.2 -7.10391 -1.51774e+06 -1.72613e+06 4.92411e+06 -1.42536e+06 -1.93575e+06 -909502
226 1 Mg -1.06993 44.8968 49.8343 1.2 -8.07324 185214 1.76589e+06 2.48974e+06 -186117 219475 779686
227 2 Si -0.596166 42.4103 47.9215 2.4 -33.7755 7.66163e+06 6.14824e+06 1.06164e+07 486433 2.32155e+06 -363876
228 3 O -0.51472 43.9796 47.9853 -1.2 -9.01067 -2.07244e+06 -3.91575e+06 -3.39572e+06 464335 -1.92487e+06 -213070
229 3 O -1.14475 41.2777 51.7649 -1.2 -9.52454 -1.89358e+06 -2.22007e+06 -7.01826e+06 293328 -17101.1 -612756
230 3 O -1.76671 41.8331 48.8226 -1.2 -9.11478 -583802 -3.15658e+06 -3.97746e+06 13558.8 -357863 -1.26263e+06
231 1 Mg 0.447076 40.3473 46.8135 1.2 -6.75827 1.66201e+06 -698828 1.38619e+06 1.12403e+06 1.59085e+06 -787565
232 3 O 0.866985 41.7666 48.385 -1.2 -8.99011 -1.18038e+06 -1.22367e+06 -2.66791e+06 -289769 -322001 787821
233 1 Mg 1.86016 40.4195 54.5326 1.2 -7.79297 1.33915e+06 1.22498e+06 1.68049e+06 162673 -48771.3 758559
234 2 Si 1.81363 43.0171 56.4379 2.4 -31.717 5.33115e+06 3.96172e+06 1.24281e+07 240831 -243582 42011.1
235 3 O 1.83052 41.4434 56.4703 -1.2 -10.1928 -2.7337e+06 -917850 -4.66873e+06 1395.17 -89559.1 -169672
236 3 O 1.95891 44.014 52.7248 -1.2 -9.91736 -2.14603e+06 -1.97073e+06 -5.32054e+06 52854.2 -395746 -1.00826e+06
237 3 O 0.563525 43.642 55.7355 -1.2 -9.86734 -2.06343e+06 -2.90257e+06 -4.85902e+06 -237286 -614860 -112801
238 3 O 3.11304 43.6617 55.7191 -1.2 -9.78507 -1.0393e+06 -2.77516e+06 -3.98685e+06 644763 10549.3 -125247
239 1 Mg 0.379928 42.6418 52.2013 1.2 -7.26041 -1.29811e+06 -1.53436e+06 4.91269e+06 -1.06245e+06 1.78348e+06 659845
240 1 Mg 2.41752 42.366 49.4484 1.2 -7.49525 1.6634e+06 199559 642284 114209 -153743 198250
241 2 Si 1.89374 44.6874 51.2398 2.4 -32.0159 6.40332e+06 4.27592e+06 1.11636e+07 351608 500402 527549
242 3 O 2.00266 46.254 51.2996 -1.2 -10.2534 -2.51327e+06 -1.60735e+06 -4.05473e+06 741931 -474005 287201
243 3 O 1.82117 43.6975 57.9059 -1.2 -9.89742 -2.28944e+06 -2.11874e+06 -5.28112e+06 224250 -83003.2 935175
244 3 O 0.577464 44.0549 50.6567 -1.2 -9.40744 -2.44842e+06 -2.179e+06 -5.1288e+06 1.1331e+06 -721838 -319550
245 1 Mg -2.58906 42.6425 52.3022 1.2 -7.07832 -1.18597e+06 -1.40691e+06 4.45398e+06 1.6333e+06 -1.69511e+06 758599
246 3 O 3.13067 44.0398 50.464 -1.2 -9.80821 -2.22894e+06 -1.98427e+06 -2.77172e+06 -310425 855268 -470000
247 1 Mg -1.12509 42.6437 55.0827 1.2 -7.76801 1.65369e+06 1.21794e+06 1.05361e+06 -151006 -356751 -806949
248 2 Si -1.10839 40.5943 53.2112 2.4 -32.2201 5.54347e+06 3.69314e+06 1.22533e+07 -173815 116973 -144770
249 3 O -1.14762 39.0428 53.1513 -1.2 -10.1416 -2.74486e+06 -1.8931e+06 -5.33121e+06 335483 -51525.7 508881
250 3 O -0.631421 41.9099 46.4159 -1.2 -7.96408 -2.5058e+06 -1.82095e+06 -3.28992e+06 -605087 -1.50512e+06 917165
251 3 O -2.38223 41.2788 53.9091 -1.2 -9.698 -1.87486e+06 -2.28269e+06 -5.0472e+06 -960620 825505 171456
252 3 O 0.156934 41.2934 53.8616 -1.2 -9.66394 -2.15956e+06 -2.96212e+06 -4.92932e+06 1.03804e+06 -1.04173e+06 554105
253 1 Mg -2.42017 49.753 57.3634 1.2 -7.24777 -925204 -1.58611e+06 4.69841e+06 -766361 -1.84963e+06 -731016
254 1 Mg -0.961069 49.6502 49.8327 1.2 -8.11366 237403 1.6293e+06 2.64062e+06 -173368 187853 734898
255 2 Si -0.488083 47.1636 47.9198 2.4 -33.7597 7.6293e+06 5.9798e+06 1.07914e+07 483420 2.30632e+06 -74073.6
256 3 O -0.40607 48.7329 47.9837 -1.2 -9.00598 -2.07755e+06 -3.79845e+06 -3.51179e+06 463470 -1.91778e+06 -276368
257 3 O -1.0361 46.031 51.7632 -1.2 -9.49669 -1.58188e+06 -1.93258e+06 -6.02872e+06 365224 154959 -1.18905e+06
258 3 O -1.65866 46.5866 48.821 -1.2 -9.11691 -560921 -3.08491e+06 -4.07104e+06 15361.3 -363713 -1.46097e+06
259 1 Mg 0.554124 45.1001 46.8117 1.2 -6.71187 1.58936e+06 -672970 1.35942e+06 1.12226e+06 1.58956e+06 -624884
260 3 O 0.974961 46.5195 48.3832 -1.2 -9.00365 -1.16769e+06 -1.16025e+06 -2.71916e+06 -288298 -313323 609139
261 1 Mg 1.95095 45.0156 54.5198 1.2 -7.66721 1.67864e+06 1.1135e+06 906642 93563.9 -83983.2 624812
262 2 Si 1.96906 47.7069 56.3067 2.4 -31.9517 5.08073e+06 4.48274e+06 1.27763e+07 309608 286103 172730
263 3 O 1.89968 46.1401 56.4381 -1.2 -10.3292 -2.27213e+06 -1.36347e+06 -4.8954e+06 381729 -58477.2 -286448
264 3 O 2.0677 48.7672 52.7232 -1.2 -9.70058 -2.50693e+06 -1.4199e+06 -5.14277e+06 96481.4 -355895 -983162
265 3 O 0.710207 48.3953 55.6428 -1.2 -9.75299 -1.6738e+06 -1.8005e+06 -4.44648e+06 -371471 -792685 -137019
266 3 O 3.24663 48.3943 55.7167 -1.2 -9.67334 -2.02909e+06 -1.93544e+06 -5.57011e+06 661239 1.20087e+06 11254.6
267 1 Mg 0.488584 47.395 52.1996 1.2 -7.36416 -907369 -1.56731e+06 5.03309e+06 -944788 1.78525e+06 740875
268 1 Mg 2.52544 47.1195 49.4466 1.2 -7.51237 1.71006e+06 84388.1 742614 119958 -127612 387897
269 2 Si 2.00256 49.4407 51.2382 2.4 -32.1945 6.73313e+06 3.86123e+06 1.15422e+07 277224 615562 521427
270 3 O 2.11156 51.0073 51.2982 -1.2 -10.2291 -2.51841e+06 -1.6014e+06 -4.12322e+06 814965 -363345 348095
271 3 O 2.00167 48.3895 57.8376 -1.2 -9.68645 -1.70437e+06 -1.45858e+06 -4.76081e+06 -45958.5 469012 1.42777e+06
272 3 O 0.686344 48.8082 50.655 -1.2 -9.33543 -2.67861e+06 -1.96934e+06 -5.28531e+06 1.08644e+06 -677321 -354839
273 1 Mg -2.48039 47.3957 52.3005 1.2 -7.26049 -1.04611e+06 -1.39057e+06 4.5095e+06 1.51375e+06 -1.72603e+06 884344
274 3 O 3.23944 48.7932 50.4623 -1.2 -9.72076 -2.34985e+06 -1.78251e+06 -3.0557e+06 -277680 772480 -517328