ITEM: TIMESTEP
24900
ITEM: NUMBER OF ATOMS
10500
ITEM: BOX BOUNDS xy xz yz pp pp pp
0.0000000000000000e+00 8.9687999999999999e+00 2.9895999999999998e+00
0.0000000000000000e+00 1.1872499999999999e+02 0.0000000000000000e+00
0.0000000000000000e+00 2.5297749999999999e+02 0.0000000000000000e+00
ITEM: ATOMS id type element xu yu zu q c_pe c_s[1] c_s[2] c_s[3] c_s[4] c_s[5] c_s[6]
1 1 Mg -3.30567 6.93576 57.4201 1.2 -7.63506 -890531 -1.9059e+06 5.17627e+06 -345144 -1.96819e+06 -129055
2 1 Mg -1.82655 6.90154 50.0912 1.2 -8.04262 -167081 900083 1.3593e+06 -89032.8 -208249 1.36986e+06
3 2 Si -0.257935 3.96038 48.0876 2.4 -35.97 9.86628e+06 8.75176e+06 1.08665e+07 802180 1.99618e+06 1.42881e+06
4 3 O -0.335812 5.46814 47.6264 -1.2 -7.88265 -2.92559e+06 -2.45564e+06 -2.54428e+06 145273 -976153 -443640
5 3 O -2.03793 3.43377 51.8941 -1.2 -9.07928 -3.47395e+06 -1.84409e+06 -6.79415e+06 -564185 553076 -1.58032e+06
6 3 O -1.54015 3.53929 48.9521 -1.2 -8.34012 -1.25818e+06 -1.62893e+06 -4.30099e+06 35704.5 -766940 -116231
7 1 Mg 1.82954 2.54582 47.1376 1.2 -7.99765 2.61426e+06 -553634 803949 1.14777e+06 825947 358621
8 3 O 1.22989 3.66364 48.7877 -1.2 -8.05445 -1.57151e+06 -2.37743e+06 -3.70203e+06 -486274 -698506 -846497
9 1 Mg 1.10034 2.21066 54.5442 1.2 -8.46526 1.5629e+06 -564675 1.645e+06 -355310 735878 1.08685e+06
10 2 Si 1.11268 4.87201 56.2853 2.4 -32.2572 7.9523e+06 6.28413e+06 1.32116e+07 2.18921e+06 -622714 -160385
11 3 O 0.986513 3.28083 56.46 -1.2 -9.55807 -2.92181e+06 -684085 -5.69646e+06 1.26376e+06 -388348 -1.64288e+06
12 3 O 1.10813 6.07342 52.8172 -1.2 -9.27104 -2.85109e+06 -3.03402e+06 -4.98273e+06 361630 -606274 -1.45341e+06
13 3 O -0.140086 5.57768 55.6853 -1.2 -9.70876 -2.55503e+06 -2.00703e+06 -4.77461e+06 -923711 -859090 -47880.4
14 3 O 2.46403 5.69102 55.657 -1.2 -9.05216 -165221 -1.83633e+06 -4.84142e+06 2.22108e+06 594104 -614063
15 1 Mg -0.459401 4.67631 52.2426 1.2 -7.83917 -683541 -1.10547e+06 5.36457e+06 -1.35251e+06 1.35357e+06 866381
16 1 Mg 2.79456 3.9971 49.9987 1.2 -8.2898 3.51772e+06 -136480 1.65849e+06 -507662 771105 -868881
17 2 Si 1.16169 6.59457 51.2556 2.4 -33.2511 6.55035e+06 5.78838e+06 1.23193e+07 17083.7 595260 2.85582e+06
18 3 O 1.28989 8.18905 51.2909 -1.2 -9.71422 -2.57179e+06 -1.29875e+06 -4.17083e+06 322798 -731456 872589
19 3 O 1.20069 5.52113 57.8408 -1.2 -9.40936 -2.52828e+06 -2.59436e+06 -4.44069e+06 88741.9 -200676 1.88558e+06
20 3 O -0.184847 6.06029 50.6845 -1.2 -8.89744 -2.64999e+06 -2.9999e+06 -5.20027e+06 1.50325e+06 -456084 -1.50606e+06
21 1 Mg -3.49704 4.67769 52.6661 1.2 -7.49921 -576658 -2.58258e+06 2.98318e+06 2.50784e+06 -1.36302e+06 1.57684e+06
22 3 O 2.48581 5.93312 50.6539 -1.2 -9.44075 -2.78795e+06 -1.29796e+06 -3.33392e+06 -1.61773e+06 -498105 -911341
23 1 Mg -1.83196 4.68988 55.0404 1.2 -8.09834 1.3979e+06 674835 841257 -571303 -603692 -647089
24 2 Si -2.01242 2.6148 53.2625 2.4 -32.908 9.16784e+06 1.81131e+06 1.30268e+07 347918 123110 180125
25 3 O -2.04373 1.06989 53.1398 -1.2 -9.72593 -4.06469e+06 -2.1572e+06 -5.44109e+06 -319204 -752132 389629
26 3 O -0.0467762 2.97103 46.8385 -1.2 -7.0207 -2.94489e+06 -2.11126e+06 -2.91814e+06 -989890 -2.0078e+06 -460119
27 3 O -3.28156 3.28886 54.0506 -1.2 -9.37309 -2.23147e+06 -2.22326e+06 -6.44659e+06 -1.48337e+06 -64097.2 1.204e+06
28 3 O -0.677077 3.2001 53.959 -1.2 -8.98786 -1.36711e+06 -2.1963e+06 -5.46355e+06 1.1994e+06 -241161 263122
29 1 Mg -3.20757 11.8253 57.4598 1.2 -7.38111 -716200 -1.31161e+06 4.5477e+06 -435634 -1.49887e+06 70282.2
30 1 Mg -1.75014 11.5838 49.8362 1.2 -8.21769 419469 1.93749e+06 2.51164e+06 -314084 376117 747510
31 2 Si -1.18003 9.02138 47.9309 2.4 -34.0985 7.90475e+06 7.20616e+06 9.72855e+06 234027 2.63265e+06 101212
32 3 O -1.23224 10.5991 47.9811 -1.2 -8.90122 -2.19372e+06 -3.59431e+06 -2.78771e+06 654941 -1.93196e+06 168530
33 3 O -1.79016 8.01447 51.8693 -1.2 -9.25788 -3.27553e+06 -2.11393e+06 -6.04904e+06 101773 -796740 -1.66112e+06
34 3 O -2.30986 8.37215 48.8528 -1.2 -9.13252 -785748 -2.52078e+06 -3.35156e+06 -339855 -614815 -736596
35 1 Mg 0.154883 7.08234 46.8007 1.2 -7.41357 1.71241e+06 -127274 775536 942667 1.72632e+06 -1.11598e+06
36 3 O 0.325447 8.50934 48.3809 -1.2 -8.77247 -1.16267e+06 -1.97224e+06 -2.74503e+06 -29936.6 -827104 474336
37 1 Mg 1.05513 7.09636 54.639 1.2 -8.18994 2.20496e+06 -157967 1.46646e+06 435831 -44892.1 689643
38 2 Si 1.33547 9.64599 56.3776 2.4 -32.8259 7.48037e+06 4.23412e+06 1.31687e+07 -869393 -827484 1.2222e+06
39 3 O 1.29552 8.09468 56.4186 -1.2 -9.75171 -3.65086e+06 -1.11194e+06 -5.46013e+06 950540 921427 -1.3279e+06
40 3 O 1.28624 10.7248 52.7351 -1.2 -9.68688 -2.30517e+06 -1.63237e+06 -4.61806e+06 467002 -303284 -222776
41 3 O 0.0799098 10.4257 55.6874 -1.2 -9.39312 -1.3403e+06 -1.47672e+06 -5.67346e+06 -1.19618e+06 -870965 -646170
42 3 O 2.64217 10.3467 55.8461 -1.2 -9.38226 -2.52027e+06 -1.97177e+06 -4.98667e+06 1.05811e+06 433387 -1.05758e+06
43 1 Mg -0.262694 9.34741 52.2523 1.2 -7.60997 -690912 -930968 4.5896e+06 -1.7138e+06 1.68578e+06 1.22733e+06
44 1 Mg 1.87648 9.01537 49.4629 1.2 -7.69436 1.71623e+06 449223 379238 241191 -298464 170267
45 2 Si 1.21415 11.3799 51.2378 2.4 -32.435 7.23734e+06 4.92861e+06 1.07217e+07 241175 157363 387584
46 3 O 1.31634 12.9512 51.3023 -1.2 -10.148 -2.81542e+06 -1.60314e+06 -3.72173e+06 456523 -522675 534665
47 3 O 1.17303 10.3413 57.8891 -1.2 -9.26211 -2.53188e+06 -1.33446e+06 -5.09855e+06 478445 -359219 1.39428e+06
48 3 O -0.115718 10.7564 50.681 -1.2 -9.13571 -2.50676e+06 -2.43513e+06 -4.83651e+06 1.3231e+06 -523341 -612544
49 1 Mg -3.26386 9.35564 52.3622 1.2 -7.36864 -657760 -1.72634e+06 4.15465e+06 2.00176e+06 -1.8677e+06 960754
50 3 O 2.45216 10.7265 50.4558 -1.2 -9.67917 -2.51742e+06 -1.83666e+06 -2.21713e+06 -826702 584918 78161.9
51 1 Mg -1.63702 9.44035 55.1027 1.2 -8.02841 2.18583e+06 -233736 812227 390021 -155195 -929023
52 2 Si -1.82307 7.4071 53.3959 2.4 -32.6104 7.91408e+06 3.73376e+06 1.24006e+07 -206957 -2.01947e+06 -31309
53 3 O -1.91266 5.82404 53.3828 -1.2 -9.71143 -3.53933e+06 -664291 -6.63434e+06 524870 634999 419245
54 3 O -1.19417 8.46968 46.4488 -1.2 -7.76008 -2.53106e+06 -2.05369e+06 -2.93637e+06 -541806 -1.74512e+06 964206
55 3 O -3.15206 8.11611 54.017 -1.2 -9.13172 -410017 -2.81938e+06 -5.54716e+06 -1.04268e+06 391635 102987
56 3 O -0.539457 8.12526 53.9082 -1.2 -9.55954 -3.25104e+06 -2.90629e+06 -6.83382e+06 1.06706e+06 -1.4721e+06 -629525
57 1 Mg -3.03805 16.4756 57.4555 1.2 -7.35743 -568212 -1.57263e+06 5.26398e+06 -1.24537e+06 -1.11446e+06 -1.05299e+06
58 1 Mg -1.6714 16.3544 49.8412 1.2 -8.0712 237604 1.9825e+06 2.27908e+06 -210179 216451 678304
59 2 Si -1.18567 13.8526 47.9314 2.4 -33.8187 7.72929e+06 6.33658e+06 1.03506e+07 498228 2.2661e+06 -668366
60 3 O -1.09664 15.4205 47.9915 -1.2 -9.02136 -1.97891e+06 -3.94194e+06 -3.15139e+06 424723 -1.93633e+06 -28972.7
61 3 O -1.73493 12.7491 51.7772 -1.2 -9.182 -1.98168e+06 -1.89368e+06 -5.68705e+06 784323 -97648.6 -1.33558e+06
62 3 O -2.36115 13.2717 48.8238 -1.2 -9.06525 -731417 -3.09762e+06 -3.83224e+06 -89755.7 -400128 -1.09346e+06
63 1 Mg -0.159928 11.7639 46.8533 1.2 -6.80136 1.75479e+06 -519176 1.17265e+06 1.12695e+06 1.56913e+06 -1.03053e+06
64 3 O 0.2623 13.1866 48.413 -1.2 -8.96057 -1.23399e+06 -1.16695e+06 -2.62369e+06 -208293 -268713 950955
65 1 Mg 1.1743 11.8911 54.5708 1.2 -7.55847 795108 1.61078e+06 2.0563e+06 304922 -359608 592192
66 2 Si 1.38689 14.4308 56.4179 2.4 -32.1813 7.61629e+06 3.30911e+06 1.23549e+07 1.1174e+06 251083 -1.08096e+06
67 3 O 1.26466 12.9151 56.5059 -1.2 -10.3572 -2.34915e+06 -3.79043e+06 -4.36463e+06 506067 -180206 -74449.7
68 3 O 1.36565 15.4813 52.729 -1.2 -9.86519 -1.93294e+06 -1.92487e+06 -5.44266e+06 82897.7 -352508 -932134
69 3 O 0.098029 15.0874 55.6954 -1.2 -9.35785 -1.32854e+06 -1.40574e+06 -3.63247e+06 -690812 30901.3 279595
70 3 O 2.65712 15.2066 55.7223 -1.2 -9.29503 -1.44071e+06 -1.23386e+06 -4.55598e+06 1.47679e+06 504370 -138442
71 1 Mg -0.206989 14.1049 52.2121 1.2 -7.38531 -1.12906e+06 -973237 4.84334e+06 -855597 1.67428e+06 954789
72 1 Mg 1.82591 13.8102 49.4556 1.2 -7.55283 1.80046e+06 433630 415193 134853 -132358 165916
73 2 Si 1.29285 16.1518 51.2434 2.4 -32.0758 6.23386e+06 4.7585e+06 1.09857e+07 335453 454339 495342
74 3 O 1.39496 17.7199 51.3047 -1.2 -10.1967 -2.4179e+06 -1.63605e+06 -4.1963e+06 771183 -377778 361197
75 3 O 1.48127 15.1199 57.8935 -1.2 -9.56629 -2.33274e+06 -985292 -5.10274e+06 -609959 1.15381e+06 1.21629e+06
76 3 O -0.0269106 15.5178 50.6688 -1.2 -9.37876 -2.41368e+06 -2.33849e+06 -4.91956e+06 1.04431e+06 -765764 -232018
77 1 Mg -3.18391 14.1057 52.3125 1.2 -7.16162 -776307 -1.84373e+06 3.67858e+06 1.68824e+06 -1.71496e+06 1.76737e+06
78 3 O 2.52432 15.503 50.4579 -1.2 -9.78889 -2.20673e+06 -2.08917e+06 -2.39251e+06 -332826 905765 -294239
79 1 Mg -1.6983 13.9961 55.0113 1.2 -7.79313 1.70075e+06 219326 1.07046e+06 -270455 -6940.24 -1.64463e+06
80 2 Si -1.79004 12.0615 53.2955 2.4 -32.0451 5.09702e+06 3.94123e+06 1.15738e+07 5024.44 -233484 -1.16558e+06
81 3 O -1.77303 10.5414 53.241 -1.2 -10.0151 -3.0118e+06 -3.10735e+06 -4.83305e+06 -616634 242757 980122
82 3 O -1.21337 13.3381 46.4311 -1.2 -7.93084 -2.61923e+06 -1.89247e+06 -3.15323e+06 -631053 -1.45475e+06 1.11671e+06
83 3 O -2.99337 12.8939 53.8748 -1.2 -9.96966 -2.97284e+06 -3.18088e+06 -5.48708e+06 -769754 853341 24548.9
84 3 O -0.497864 12.731 53.9209 -1.2 -9.67998 -2.37884e+06 -4.60521e+06 -5.24774e+06 1.48691e+06 -1.67269e+06 -203468
85 1 Mg -2.94057 21.261 57.4879 1.2 -7.29134 -573814 -1.27913e+06 4.51368e+06 -1.78637e+06 -1.46113e+06 -1.0926e+06
86 1 Mg -1.5831 21.1217 49.8405 1.2 -8.10065 188441 1.72802e+06 2.5932e+06 -211745 308741 372013
87 2 Si -1.09384 18.6291 47.9287 2.4 -33.7564 7.61965e+06 6.27912e+06 1.04789e+07 494957 2.33919e+06 -452832
88 3 O -1.02071 20.1985 47.9911 -1.2 -9.02266 -2.02353e+06 -3.90935e+06 -3.31561e+06 457550 -1.93855e+06 -11911
89 3 O -1.65002 17.5002 51.771 -1.2 -9.65655 -1.73402e+06 -1.3411e+06 -4.87403e+06 247344 587340 -1.28821e+06
90 3 O -2.26174 18.0434 48.8281 -1.2 -9.12206 -609197 -3.12945e+06 -3.9238e+06 -28910.7 -371923 -1.21444e+06
91 1 Mg -0.0440435 16.5651 46.8269 1.2 -6.7293 1.58019e+06 -465839 1.16264e+06 1.13415e+06 1.58066e+06 -826191
92 3 O 0.37001 17.9877 48.3925 -1.2 -9.0023 -1.16067e+06 -1.28211e+06 -2.61825e+06 -280857 -329358 782387
93 1 Mg 1.34566 16.5217 54.5022 1.2 -7.99808 1.476e+06 1.47349e+06 884734 278291 -24600.1 307442
94 2 Si 1.66878 19.1806 56.2599 2.4 -32.3322 5.27769e+06 4.49838e+06 1.1836e+07 904963 -128692 652479
95 3 O 1.50611 17.6573 56.3591 -1.2 -9.97724 -2.34582e+06 -3.3324e+06 -4.42672e+06 2.10997e+06 300051 -215522
96 3 O 1.45147 20.239 52.7294 -1.2 -9.63526 -2.46632e+06 -1.094e+06 -5.15523e+06 -39944.6 -15121.2 -432879
97 3 O 0.400485 19.843 55.648 -1.2 -9.32568 -2.21346e+06 -4.15864e+06 -4.99837e+06 -293972 -1.30221e+06 372981
98 3 O 2.89112 19.9743 55.6773 -1.2 -9.64295 -3.1732e+06 -1.52845e+06 -4.33225e+06 486765 1.03063e+06 113348
99 1 Mg -0.126194 18.8651 52.2079 1.2 -7.4977 -1.0306e+06 -1.28763e+06 4.94224e+06 -1.38857e+06 2.03344e+06 994016
100 1 Mg 1.92402 18.5815 49.4545 1.2 -7.51943 1.68201e+06 206605 612834 104159 -163222 188285
101 2 Si 1.38106 20.9117 51.2443 2.4 -32.1724 6.81358e+06 3.91073e+06 1.13889e+07 387353 129120 -330691
102 3 O 1.48527 22.4795 51.3054 -1.2 -10.3698 -2.14279e+06 -1.84329e+06 -3.72869e+06 581610 -517658 685875
103 3 O 1.63832 19.861 57.8383 -1.2 -9.61918 -1.5827e+06 -1.7684e+06 -4.24077e+06 -953830 -79324.3 1.49602e+06
104 3 O 0.0615419 20.2804 50.6669 -1.2 -9.25772 -2.55304e+06 -1.92334e+06 -5.56137e+06 1.19442e+06 -515959 -178611
105 1 Mg -3.09665 18.8643 52.3122 1.2 -7.23181 -503929 -1.35888e+06 4.36149e+06 1.85625e+06 -1.77621e+06 880538
106 3 O 2.61548 20.2646 50.4626 -1.2 -9.75295 -2.47938e+06 -1.72652e+06 -2.73942e+06 -378685 813206 -164311
107 1 Mg -1.4441 18.9293 55.0543 1.2 -7.82918 2.0659e+06 1.20569e+06 1.21254e+06 239344 278595 -1.35112e+06
108 2 Si -1.60912 16.8087 53.2597 2.4 -31.7229 6.89797e+06 6.14541e+06 1.27224e+07 596475 216348 -1.02026e+06
109 3 O -1.59266 15.2282 53.2553 -1.2 -10.0818 -2.55655e+06 -560103 -5.0453e+06 468831 352532 437226
110 3 O -1.12868 18.1227 46.4249 -1.2 -7.98199 -2.49211e+06 -1.94647e+06 -3.13844e+06 -604414 -1.49785e+06 988100
111 3 O -2.8588 17.5348 53.9216 -1.2 -9.70785 -1.09814e+06 -2.26025e+06 -4.92457e+06 -1.0194e+06 967674 1.08257e+06
112 3 O -0.237455 17.5963 53.917 -1.2 -9.58023 -36479.8 -2.47236e+06 -3.41166e+06 1.54898e+06 -185462 725223
113 1 Mg -2.87194 25.9582 57.2736 1.2 -7.40525 -1.19705e+06 -1.58432e+06 4.02886e+06 -1.50666e+06 -1.91254e+06 -1.15508e+06
114 1 Mg -1.48778 25.88 49.8402 1.2 -8.01587 71131.4 1.94989e+06 2.33862e+06 -186866 180680 636630
115 2 Si -1.00491 23.3922 47.9274 2.4 -33.6606 7.46242e+06 6.57004e+06 1.02e+07 485017 2.32205e+06 -636206
116 3 O -0.927602 24.9615 47.9909 -1.2 -9.06792 -1.97282e+06 -4.13045e+06 -3.14522e+06 460942 -1.92124e+06 -62163.4
117 3 O -1.55795 22.2588 51.7696 -1.2 -9.73946 -923203 -3.13594e+06 -4.90212e+06 720223 268162 -362544
118 3 O -2.17411 22.8111 48.8277 -1.2 -9.17352 -504503 -3.3171e+06 -3.79525e+06 16429.4 -374834 -1.07357e+06
119 1 Mg 0.0423997 21.3296 46.8225 1.2 -6.69508 1.54786e+06 -495166 1.18268e+06 1.12637e+06 1.58597e+06 -862239
120 3 O 0.458537 22.7495 48.3911 -1.2 -9.05055 -1.09147e+06 -1.40244e+06 -2.50104e+06 -298807 -319247 938301
121 1 Mg 1.44404 21.3716 54.5831 1.2 -7.91328 1.53136e+06 1.23321e+06 1.15956e+06 111277 137891 1.50915e+06
122 2 Si 1.52942 23.981 56.4758 2.4 -32.6568 6.98571e+06 4.77688e+06 1.05754e+07 -210675 211032 -1.1053e+06
123 3 O 1.39019 22.432 56.5299 -1.2 -9.89293 -2.7703e+06 -2.18247e+06 -4.53547e+06 44115.3 -403143 -386892
124 3 O 1.54441 24.9963 52.7297 -1.2 -9.97728 -1.85791e+06 -2.08446e+06 -5.55246e+06 349578 -301261 -823701
125 3 O 0.261657 24.7549 55.8617 -1.2 -9.17938 -1.46246e+06 -2.49184e+06 -4.37255e+06 -387808 -438608 289696
126 3 O 2.80244 24.6152 55.6971 -1.2 -9.61828 -2.40222e+06 -2.50991e+06 -4.23777e+06 1.24959e+06 385926 -611171
127 1 Mg -0.0335968 23.6229 52.2067 1.2 -7.04806 -1.49056e+06 -1.22568e+06 5.09286e+06 -988031 1.9696e+06 413364
128 1 Mg 2.01073 23.3445 49.4541 1.2 -7.43255 1.55074e+06 407773 411245 130871 -146456 42693.6
129 2 Si 1.47594 25.6699 51.2449 2.4 -31.8529 6.1935e+06 4.53445e+06 1.08752e+07 250490 550684 170640
130 3 O 1.58172 27.2371 51.3054 -1.2 -10.327 -2.49098e+06 -1.68102e+06 -3.923e+06 754642 -389841 537617
131 3 O 1.58866 24.653 57.8948 -1.2 -9.48388 -3.01244e+06 -3.10989e+06 -6.29964e+06 314596 -1.47224e+06 916035
132 3 O 0.157925 25.0378 50.6651 -1.2 -9.49556 -2.38412e+06 -2.36619e+06 -4.85682e+06 1.12732e+06 -741488 -194794
133 1 Mg -3.00341 23.6231 52.3098 1.2 -6.954 -1.69339e+06 -1.70935e+06 4.33201e+06 1.6482e+06 -2.06117e+06 825536
134 3 O 2.71149 25.0232 50.4656 -1.2 -9.86427 -2.10535e+06 -2.14058e+06 -2.65724e+06 -352165 785936 -303675
135 1 Mg -1.53858 23.6495 55.1298 1.2 -7.8229 1.87597e+06 1.20377e+06 1.108e+06 393475 704725 -1.01795e+06
136 2 Si -1.59722 21.6508 53.2682 2.4 -32.0841 5.56975e+06 4.89561e+06 1.26475e+07 239299 541204 219743
137 3 O -1.52782 20.0707 53.186 -1.2 -9.81615 -2.82509e+06 -499950 -5.10243e+06 -13785.3 534053 749316
138 3 O -1.03938 22.8897 46.4223 -1.2 -8.01699 -2.42182e+06 -2.03759e+06 -3.06092e+06 -605389 -1.50245e+06 1.01243e+06
139 3 O -2.82263 22.3193 53.9481 -1.2 -9.86441 -2.59721e+06 -3.8216e+06 -4.52706e+06 -334176 767812 297211
140 3 O -0.279824 22.2774 54.0475 -1.2 -9.55802 -433597 -2.90409e+06 -2.86768e+06 1.06676e+06 -133847 211798
141 1 Mg -2.92739 30.7232 57.5295 1.2 -7.35815 -1.20138e+06 -1.89135e+06 4.34138e+06 -1.8194e+06 -1.66537e+06 -1.37652e+06
142 1 Mg -1.38776 30.6357 49.8391 1.2 -8.02129 190810 1.94443e+06 2.22458e+06 -176246 251005 493665
143 2 Si -0.907929 28.1491 47.9262 2.4 -33.6674 7.48646e+06 6.59632e+06 1.01638e+07 499262 2.31801e+06 -453075
144 3 O -0.829229 29.7184 47.99 -1.2 -9.04447 -2.02203e+06 -4.15939e+06 -3.13573e+06 454795 -1.93266e+06 -92180.7
145 3 O -1.45946 27.0152 51.769 -1.2 -9.51567 -1.44992e+06 -1.11932e+06 -5.29329e+06 229496 297197 -1.31793e+06
146 3 O -2.07744 27.5697 48.8273 -1.2 -9.175 -478391 -3.32174e+06 -3.82902e+06 12790.3 -362694 -1.21003e+06
147 1 Mg 0.137907 26.087 46.819 1.2 -6.67093 1.51921e+06 -390268 1.0752e+06 1.12514e+06 1.58877e+06 -763381
148 3 O 0.55579 27.5065 48.3893 -1.2 -9.05748 -1.08966e+06 -1.43347e+06 -2.4578e+06 -296708 -320919 799400
149 1 Mg 1.63099 26.0781 54.4654 1.2 -7.70397 859572 1.33987e+06 956286 -157914 3775.55 -90353.7
150 2 Si 1.66547 28.7197 56.4563 2.4 -32.0427 6.75226e+06 3.93401e+06 1.08533e+07 -34292 -138923 -326419
151 3 O 1.69911 27.2075 56.5773 -1.2 -10.0465 -2.9889e+06 -4.06578e+06 -4.09543e+06 -87626.4 -270611 -98516.3
152 3 O 1.6432 29.7522 52.7291 -1.2 -9.79363 -2.34891e+06 -2.12503e+06 -4.57318e+06 -219604 -708473 -913968
153 3 O 0.348289 29.3703 55.7925 -1.2 -9.84612 -1.229e+06 -2.66035e+06 -4.03801e+06 -1.16782e+06 -802040 -18311.1
154 3 O 2.96481 29.4107 55.881 -1.2 -9.59754 -1.55722e+06 -3.41483e+06 -4.53063e+06 504131 607659 621025
155 1 Mg 0.0647462 28.3794 52.2059 1.2 -7.2642 -933786 -1.12847e+06 4.91383e+06 -986674 1.54348e+06 525390
156 1 Mg 2.10696 28.1021 49.4531 1.2 -7.44563 1.57159e+06 347639 479014 93244.1 -133405 129175
157 2 Si 1.57592 30.4257 51.2442 2.4 -32.0693 6.18744e+06 4.46602e+06 1.12936e+07 248078 546732 131592
158 3 O 1.68288 31.9926 51.3043 -1.2 -10.2378 -2.33293e+06 -1.86317e+06 -4.21229e+06 719522 -445595 810677
159 3 O 1.58589 29.3646 57.991 -1.2 -9.62164 -2.79208e+06 -2.78562e+06 -4.41626e+06 15040.4 -124939 1.13054e+06
160 3 O 0.258524 29.7935 50.6632 -1.2 -9.43185 -2.31808e+06 -2.28662e+06 -5.00177e+06 1.08425e+06 -815414 -189529
161 1 Mg -2.90462 28.3797 52.308 1.2 -7.14488 -1.00163e+06 -990821 4.51671e+06 1.35525e+06 -1.39213e+06 636143
162 3 O 2.81205 29.7787 50.4664 -1.2 -9.84251 -2.13653e+06 -2.07591e+06 -2.65817e+06 -248827 933867 -233216
163 1 Mg -1.3431 28.526 55.1668 1.2 -7.8491 560016 1.93396e+06 1.95564e+06 -370992 -191337 -964159
164 2 Si -1.39988 26.2577 53.2613 2.4 -31.9249 5.51119e+06 5.4365e+06 1.32391e+07 44281 414176 -795215
165 3 O -1.49733 24.7021 53.1596 -1.2 -10.4171 -2.46335e+06 -2.03976e+06 -4.92861e+06 222473 332403 413202
166 3 O -0.943026 27.648 46.4208 -1.2 -8.0206 -2.41565e+06 -2.10444e+06 -3.00346e+06 -605440 -1.50413e+06 909523
167 3 O -2.66918 26.9852 53.9408 -1.2 -9.68114 -1.49298e+06 -2.0322e+06 -4.53688e+06 -1.51536e+06 902542 912573
168 3 O -0.101947 26.969 53.8861 -1.2 -9.69829 -1.16632e+06 -1.74628e+06 -3.86347e+06 1.64369e+06 -357795 1.07561e+06
169 1 Mg -2.82157 35.5501 57.3909 1.2 -6.8294 -1.52594e+06 -2.00662e+06 4.79118e+06 -1.69547e+06 -1.74003e+06 -1.56994e+06
170 1 Mg -1.28421 35.3899 49.8376 1.2 -8.12413 353398 2.18296e+06 1.98883e+06 -186251 136051 643689
171 2 Si -0.807101 32.9036 47.9247 2.4 -33.7738 7.67973e+06 6.81824e+06 9.92248e+06 479061 2.33162e+06 -324974
172 3 O -0.727174 34.4729 47.9885 -1.2 -8.96381 -2.16367e+06 -4.28365e+06 -3.0053e+06 465736 -1.92439e+06 -224818
173 3 O -1.35735 31.7701 51.768 -1.2 -9.59711 -2.25943e+06 -2.11065e+06 -7.234e+06 304246 -414848 -179750
174 3 O -1.97695 32.3253 48.826 -1.2 -9.14029 -570838 -3.45711e+06 -3.64936e+06 21253.3 -347811 -1.23308e+06
175 1 Mg 0.237665 30.8412 46.8168 1.2 -6.70258 1.56941e+06 -340667 1.02962e+06 1.12449e+06 1.59475e+06 -695396
176 3 O 0.656562 32.2608 48.3877 -1.2 -9.01121 -1.14047e+06 -1.54283e+06 -2.36176e+06 -295504 -336402 792280
177 1 Mg 1.51369 30.805 54.5594 1.2 -7.80403 1.77773e+06 1.13335e+06 1.58992e+06 331608 -406965 501220
178 2 Si 1.70975 33.4199 56.4674 2.4 -31.8673 4.92361e+06 4.30646e+06 1.20421e+07 -378723 -83572.7 77222.2
179 3 O 1.57414 31.8539 56.4717 -1.2 -9.98139 -2.96598e+06 -1.64949e+06 -4.32628e+06 441176 459084 581042
180 3 O 1.74574 34.5067 52.7279 -1.2 -9.79471 -2.0131e+06 -2.94837e+06 -4.86284e+06 8905.59 -560580 -825551
181 3 O 0.415756 34.1247 55.8455 -1.2 -9.76383 -1.0189e+06 -2.52535e+06 -4.01894e+06 182152 277754 -151234
182 3 O 2.94 33.9737 55.6869 -1.2 -9.86081 -3.10296e+06 -3.51501e+06 -3.85645e+06 605948 1.00365e+06 413718
183 1 Mg 0.167046 33.1343 52.2045 1.2 -7.26821 -1.15566e+06 -1.29371e+06 4.56e+06 -1.04875e+06 1.84256e+06 190112
184 1 Mg 2.20727 32.8578 49.4516 1.2 -7.4937 1.60933e+06 511666 366295 135345 -166409 112753
185 2 Si 1.67943 35.1802 51.2429 2.4 -32.1872 6.20473e+06 5.22997e+06 1.07188e+07 343921 860622 220049
186 3 O 1.78736 36.747 51.303 -1.2 -10.0855 -2.57451e+06 -2.01911e+06 -4.06562e+06 843315 -416227 618150
187 3 O 1.80848 34.117 57.9416 -1.2 -9.94807 -2.43735e+06 -1.54383e+06 -5.29051e+06 410507 -400033 981283
188 3 O 0.362533 34.5479 50.661 -1.2 -9.40606 -2.56506e+06 -2.57505e+06 -4.6027e+06 1.06589e+06 -867995 -59012
189 1 Mg -2.80215 33.1347 52.3062 1.2 -7.08922 -1.35902e+06 -1.03374e+06 4.14101e+06 1.70375e+06 -1.95144e+06 360432
190 3 O 2.91593 34.533 50.466 -1.2 -9.74804 -2.1845e+06 -2.35572e+06 -2.56948e+06 -303654 864538 -307982
191 1 Mg -1.41472 33.1495 55.0902 1.2 -7.64227 1.09045e+06 1.46411e+06 579000 965782 795663 -1.33195e+06
192 2 Si -1.38335 31.1015 53.2026 2.4 -32.3293 5.63456e+06 4.02938e+06 1.09548e+07 875343 -604788 -1.1001e+06
193 3 O -1.37516 29.5318 53.2416 -1.2 -10.0127 -2.46675e+06 -2.13639e+06 -3.87888e+06 496880 636075 233382
194 3 O -0.842495 32.4028 46.4192 -1.2 -7.97207 -2.49515e+06 -2.17166e+06 -2.93451e+06 -604363 -1.50694e+06 813601
195 3 O -2.66168 31.6901 53.8848 -1.2 -9.49764 -2.12978e+06 -3.42564e+06 -4.86843e+06 163494 551252 101201
196 3 O -0.0867073 31.7867 53.8414 -1.2 -9.60951 -2.09313e+06 -2.78285e+06 -4.87204e+06 500015 -1.26952e+06 586795
197 1 Mg -2.70087 40.138 57.374 1.2 -6.93292 -1.44997e+06 -1.38692e+06 4.85013e+06 -1.43638e+06 -1.62641e+06 -1.30608e+06
198 1 Mg -1.17787 40.1435 49.8359 1.2 -8.4756 676746 1.99486e+06 2.41595e+06 -171083 236194 893398
199 2 Si -0.702692 37.6572 47.9231 2.4 -34.0947 8.16954e+06 6.7581e+06 1.00047e+07 484007 2.30994e+06 178931
200 3 O -0.621782 39.2264 47.9868 -1.2 -8.76622 -2.44661e+06 -4.14549e+06 -3.18672e+06 464999 -1.9155e+06 -443596
201 3 O -1.25221 36.5242 51.7666 -1.2 -9.52933 -2.22415e+06 -2.33794e+06 -5.64768e+06 72834.9 224710 -706326
202 3 O -1.87295 37.0796 48.8243 -1.2 -8.97601 -797156 -3.5188e+06 -3.6268e+06 -4979.04 -339489 -1.49539e+06
203 1 Mg 0.341084 35.5943 46.8152 1.2 -6.80063 1.73279e+06 -305211 989847 1.12139e+06 1.5945e+06 -511615
204 3 O 0.760681 37.0138 48.3864 -1.2 -8.8635 -1.39537e+06 -1.5747e+06 -2.30684e+06 -277917 -332883 541013
205 1 Mg 1.67083 35.4822 54.5469 1.2 -7.71831 1.04571e+06 1.90548e+06 640513 476089 -769887 509952
206 2 Si 1.78825 38.2075 56.4293 2.4 -31.8551 6.18635e+06 1.58719e+06 1.16967e+07 -525599 -793745 -1.15891e+06
207 3 O 1.79897 36.7023 56.426 -1.2 -10.232 -2.81708e+06 -3.37444e+06 -5.25931e+06 229089 545188 532086
208 3 O 1.85132 39.2606 52.7264 -1.2 -9.6801 -2.60341e+06 -2.27941e+06 -5.11086e+06 85148.5 -535200 -563307
209 3 O 0.44328 38.876 55.7883 -1.2 -9.51357 -783856 -2.45184e+06 -4.83388e+06 -114139 382462 42613.3
210 3 O 3.02489 38.83 55.6292 -1.2 -9.75134 -1.62666e+06 -3.66758e+06 -2.9293e+06 -88092 14770.6 56439.2
211 1 Mg 0.272384 37.8883 52.2029 1.2 -7.48856 -747859 -1.23738e+06 4.39018e+06 -1.36085e+06 2.01927e+06 388343
212 1 Mg 2.31122 37.6122 49.4501 1.2 -7.68173 1.95297e+06 536489 308354 119304 -135917 354576
213 2 Si 1.78573 39.934 51.2414 2.4 -32.7394 8.24057e+06 4.88566e+06 9.87079e+06 277531 493940 395829
214 3 O 1.89428 41.5006 51.3014 -1.2 -9.82896 -3.54639e+06 -1.86434e+06 -3.50483e+06 774739 -530313 251937
215 3 O 1.75013 38.8136 57.886 -1.2 -10.2385 -2.46648e+06 -2.18873e+06 -5.99117e+06 -312025 -763786 484860
216 3 O 0.469216 39.3015 50.6588 -1.2 -9.03139 -3.13165e+06 -2.50681e+06 -4.79042e+06 1.26043e+06 -530530 -419710
217 1 Mg -2.69668 37.8889 52.3043 1.2 -7.36453 -889694 -812472 4.1661e+06 1.78131e+06 -1.92628e+06 244552
218 3 O 3.0225 39.2866 50.4651 -1.2 -9.45757 -2.87895e+06 -2.29428e+06 -2.42898e+06 -390544 709153 -520249
219 1 Mg -1.28018 37.785 55.0941 1.2 -7.72325 2.16574e+06 1.03534e+06 1.02661e+06 497654 394298 -1.35206e+06
220 2 Si -1.17731 35.8042 53.2042 2.4 -31.8514 7.14148e+06 4.96266e+06 1.09854e+07 257771 -236237 -1.08743e+06
221 3 O -1.29631 34.2527 53.1673 -1.2 -10.3111 -2.65971e+06 -2.33849e+06 -4.20805e+06 1.29626e+06 564694 525913
222 3 O -0.738054 37.1566 46.4176 -1.2 -7.8501 -2.68815e+06 -2.12752e+06 -2.98459e+06 -605380 -1.50348e+06 611486
223 3 O -2.48964 36.4795 53.9357 -1.2 -9.48983 24549.7 -2.76216e+06 -4.10818e+06 -694239 400040 46563.1
224 3 O 0.131717 36.4895 53.8367 -1.2 -9.82824 -1.8977e+06 -2.30572e+06 -4.10338e+06 1.37318e+06 -673789 635452
225 1 Mg -2.40364 44.9798 57.3541 1.2 -7.21943 -746961 -1.27026e+06 5.28902e+06 -1.00051e+06 -1.4969e+06 -1.57712e+06
226 1 Mg -1.06993 44.8968 49.8343 1.2 -8.56656 887088 1.9705e+06 2.3753e+06 -174657 256411 836697
227 2 Si -0.596166 42.4103 47.9215 2.4 -34.4496 8.69095e+06 6.42566e+06 1.03896e+07 494419 2.30401e+06 124270
228 3 O -0.51472 43.9796 47.9853 -1.2 -8.63287 -2.65624e+06 -4.05397e+06 -3.2794e+06 459853 -1.92e+06 -369517
229 3 O -1.14475 41.2777 51.7649 -1.2 -8.74356 -2.15578e+06 -1.99075e+06 -4.56271e+06 348282 215409 -1.57657e+06
230 3 O -1.76671 41.8331 48.8226 -1.2 -8.74715 -1.12623e+06 -3.32733e+06 -3.86094e+06 17970.9 -399185 -1.49718e+06
231 1 Mg 0.447076 40.3473 46.8135 1.2 -6.96323 1.99075e+06 -486841 1.17384e+06 1.12221e+06 1.58197e+06 -404534
232 3 O 0.866985 41.7666 48.385 -1.2 -8.65865 -1.72976e+06 -1.38101e+06 -2.49525e+06 -293242 -286319 513916
233 1 Mg 1.80561 40.2817 54.474 1.2 -7.79178 1.72882e+06 1.70704e+06 653471 205646 -317392 129114
234 2 Si 2.02265 42.9453 56.2992 2.4 -31.7587 5.71721e+06 5.43594e+06 1.37788e+07 -348486 -80698.9 163144
235 3 O 1.87183 41.3313 56.4237 -1.2 -10.2974 -2.75378e+06 837365 -4.07778e+06 789310 -63454.1 -749032
236 3 O 1.95891 44.014 52.7248 -1.2 -9.32552 -3.05378e+06 -1.9239e+06 -4.69937e+06 297864 -478549 -901227
237 3 O 0.696043 43.6587 55.7772 -1.2 -9.66492 -1.56456e+06 -2.0689e+06 -5.20621e+06 -1.00848e+06 230413 -424335
238 3 O 3.21126 43.6543 55.6071 -1.2 -9.8546 -2.80391e+06 -2.95791e+06 -4.52578e+06 1.29533e+06 442492 -9850.3
239 1 Mg 0.379928 42.6418 52.2013 1.2 -7.84796 -370909 -1.03639e+06 4.30401e+06 -585679 1.89381e+06 578331
240 1 Mg 2.41752 42.366 49.4484 1.2 -7.90194 2.40286e+06 361776 391902 94733 -122699 403918
241 2 Si 1.89374 44.6874 51.2398 2.4 -33.076 8.43565e+06 4.67371e+06 1.04525e+07 236142 349976 679757
242 3 O 2.00266 46.254 51.2996 -1.2 -9.78682 -3.44681e+06 -1.91813e+06 -3.6928e+06 784335 -122727 239652
243 3 O 2.01871 43.5383 57.9308 -1.2 -9.67106 -2.02455e+06 48496.5 -2.63786e+06 377247 -1.1923e+06 927690
244 3 O 0.577464 44.0549 50.6567 -1.2 -8.84774 -3.35447e+06 -2.45978e+06 -5.03621e+06 1.12949e+06 -544925 -462809
245 1 Mg -2.58906 42.6425 52.3022 1.2 -7.66885 -23182.5 -1.01255e+06 3.96081e+06 1.42287e+06 -1.71038e+06 1.02219e+06
246 3 O 3.13067 44.0398 50.464 -1.2 -9.30621 -3.1373e+06 -2.20149e+06 -2.43431e+06 -307870 802403 -583938
247 1 Mg -1.04491 42.8199 55.1306 1.2 -7.86618 685336 1.08961e+06 1.77019e+06 258597 431652 -459900
248 2 Si -1.14519 40.5538 53.321 2.4 -32.7554 5.73966e+06 5.65197e+06 1.30585e+07 128965 -89243.5 -779470
249 3 O -1.1678 39.0129 53.151 -1.2 -10.028 -2.54081e+06 -2.05302e+06 -4.76332e+06 103375 471652 1.15046e+06
250 3 O -0.631421 41.9099 46.4159 -1.2 -7.70581 -2.91302e+06 -1.95681e+06 -3.16083e+06 -605708 -1.50274e+06 597110
251 3 O -2.39401 41.3206 53.9 -1.2 -9.35828 -2.19031e+06 -1.92333e+06 -5.40914e+06 -719391 983040 256805
252 3 O 0.139628 41.2826 53.9179 -1.2 -9.44026 -2.33086e+06 -1.89437e+06 -4.58683e+06 1.15199e+06 -1.03046e+06 619940
253 1 Mg -2.34011 49.688 57.4604 1.2 -7.67279 -335597 -1.85615e+06 4.87849e+06 -1.70841e+06 -1.24878e+06 -1.40986e+06
254 1 Mg -0.961069 49.6502 49.8327 1.2 -8.54225 974297 1.97135e+06 2.2412e+06 -176006 303678 1.00398e+06
255 2 Si -0.488083 47.1636 47.9198 2.4 -34.5513 8.87891e+06 6.49714e+06 1.02918e+07 495610 2.32954e+06 121709
256 3 O -0.40607 48.7329 47.9837 -1.2 -8.59368 -2.73091e+06 -4.08747e+06 -3.23443e+06 460229 -1.93663e+06 -454387
257 3 O -1.0361 46.031 51.7632 -1.2 -8.85231 -2.47734e+06 -1.94954e+06 -5.07166e+06 283935 -641093 -1.37671e+06
258 3 O -1.65866 46.5866 48.821 -1.2 -8.70347 -1.23097e+06 -3.35803e+06 -3.7962e+06 20031 -388547 -1.4829e+06
259 1 Mg 0.554124 45.1001 46.8117 1.2 -7.06014 2.14421e+06 -538728 1.22831e+06 1.1241e+06 1.5846e+06 -458889
260 3 O 0.974961 46.5195 48.3832 -1.2 -8.59846 -1.80434e+06 -1.41179e+06 -2.48189e+06 -294786 -298255 536623
261 1 Mg 1.95116 45.1949 54.5306 1.2 -8.03393 1.24896e+06 1.21741e+06 1.41369e+06 105454 -297414 1.06986e+06
262 2 Si 2.22758 47.7048 56.4044 2.4 -32.688 7.24653e+06 3.85879e+06 1.08775e+07 -166041 50660.9 -80941.8
263 3 O 2.04316 46.1673 56.4208 -1.2 -9.94367 -2.93493e+06 -2.41761e+06 -4.32169e+06 822669 170735 -732344
264 3 O 2.0677 48.7672 52.7232 -1.2 -9.45393 -2.84047e+06 -2.43889e+06 -5.42453e+06 367122 59799.4 -1.49098e+06
265 3 O 0.910016 48.358 55.6586 -1.2 -9.12674 -1.47497e+06 -3.371e+06 -4.41225e+06 -1.01504e+06 -893590 -247200
266 3 O 3.50479 48.3691 55.7646 -1.2 -9.34177 -3.04104e+06 -2.54906e+06 -4.27063e+06 856067 1.00293e+06 -717408
267 1 Mg 0.488584 47.395 52.1996 1.2 -7.8031 -473794 -945095 4.41627e+06 -993221 1.69667e+06 1.32579e+06
268 1 Mg 2.52544 47.1195 49.4466 1.2 -7.92456 2.40548e+06 428095 362751 93281.4 -167317 421055
269 2 Si 2.00256 49.4407 51.2382 2.4 -33.0226 7.86829e+06 4.84881e+06 1.0738e+07 258828 65517.4 1.18391e+06
270 3 O 2.11156 51.0073 51.2982 -1.2 -9.65016 -3.38592e+06 -1.74947e+06 -4.30348e+06 644081 -308055 73768
271 3 O 2.13501 48.3366 57.8427 -1.2 -9.59266 -2.37352e+06 -1.88534e+06 -6.63309e+06 -59079.8 -2523.4 189128
272 3 O 0.686344 48.8082 50.655 -1.2 -8.91961 -3.02364e+06 -2.51904e+06 -4.88428e+06 1.12703e+06 -792147 -662860
273 1 Mg -2.48039 47.3957 52.3005 1.2 -7.51772 -85478.4 -991963 4.49994e+06 1.44324e+06 -1.42228e+06 971836