ITEM: TIMESTEP
100
ITEM: NUMBER OF ATOMS
10500
ITEM: BOX BOUNDS xy xz yz pp pp pp
0.0000000000000000e+00 8.9687999999999999e+00 2.9895999999999998e+00
0.0000000000000000e+00 1.1872499999999999e+02 0.0000000000000000e+00
0.0000000000000000e+00 2.5297700000000000e+02 0.0000000000000000e+00
ITEM: ATOMS id type element xu yu zu q c_pe c_s[1] c_s[2] c_s[3] c_s[4] c_s[5] c_s[6]
1 1 Mg -3.36769 7.05685 57.459 1.2 -8.22346 864401 -2.32572e+06 5.4404e+06 -654411 -1.56156e+06 -1.19558e+06
2 1 Mg -1.81765 6.83251 50.0267 1.2 -8.22417 429407 528579 1.05343e+06 4987.93 -519890 1.59056e+06
3 2 Si -0.301437 3.93004 48.0842 2.4 -36.43 1.1348e+07 7.9699e+06 1.14779e+07 682926 1.52804e+06 2.86876e+06
4 3 O -0.288432 5.4488 47.6242 -1.2 -7.57801 -3.77837e+06 -521056 -2.56384e+06 933230 -1.1776e+06 -878911
5 3 O -2.01219 3.45817 51.9216 -1.2 -8.55237 -3.91989e+06 -1.43685e+06 -7.0917e+06 -781944 1.26403e+06 -1.60271e+06
6 3 O -1.55424 3.59072 48.9595 -1.2 -8.33646 -2.49383e+06 -1.12079e+06 -4.61903e+06 -247130 -447724 -642796
7 1 Mg 1.88583 2.53999 47.1873 1.2 -8.39216 2.36359e+06 -1.29253e+06 472150 1.40916e+06 503355 1.09649e+06
8 3 O 1.27075 3.68218 48.7385 -1.2 -7.50569 -1.12336e+06 -2.27314e+06 -5.11544e+06 -276348 -997752 -1.52436e+06
9 1 Mg 1.03866 2.33097 54.493 1.2 -9.09632 2.65649e+06 904248 1.1173e+06 -633898 -31408.9 583341
10 2 Si 1.04274 4.96137 56.5515 2.4 -34.3418 8.94483e+06 5.36738e+06 1.22605e+07 1.16075e+06 -480228 -519985
11 3 O 0.999992 3.37977 56.5109 -1.2 -8.82641 -4.80874e+06 -192943 -5.15707e+06 592326 -260750 462548
12 3 O 1.08176 6.1251 52.7855 -1.2 -8.62081 -4.06034e+06 -1.96643e+06 -6.10709e+06 33973.8 -185812 -1.39006e+06
13 3 O -0.192392 5.66136 55.8428 -1.2 -8.39836 -3.922e+06 -2.74604e+06 -4.96366e+06 -842059 -1.18276e+06 -546978
14 3 O 2.33132 5.70076 55.7839 -1.2 -8.37697 -3.26081e+06 -1.86492e+06 -3.01397e+06 1.39457e+06 580570 -356521
15 1 Mg -0.488866 4.70569 52.2286 1.2 -8.44164 703530 -2.68051e+06 5.87767e+06 -1.36073e+06 1.05004e+06 848144
16 1 Mg 2.79375 3.94671 50.0064 1.2 -8.65656 3.48984e+06 -1.26279e+06 2.60727e+06 -504838 1.11612e+06 -395975
17 2 Si 1.12431 6.62988 51.2326 2.4 -33.8777 7.64369e+06 6.3161e+06 1.14696e+07 -1.09522e+06 173464 1.56489e+06
18 3 O 1.30893 8.21475 51.2031 -1.2 -9.47562 -2.98866e+06 -1.93927e+06 -3.66356e+06 275344 -888258 2.15765e+06
19 3 O 1.04595 5.66654 57.9524 -1.2 -8.81608 -3.6008e+06 -1.44943e+06 -7.69342e+06 -156663 -55809.7 1.17205e+06
20 3 O -0.144685 6.03858 50.69 -1.2 -8.67794 -4.56109e+06 -2.74297e+06 -6.44575e+06 994138 -1.38703e+06 -1.22663e+06
21 1 Mg -3.49194 4.6815 52.672 1.2 -8.36107 879896 -2.40713e+06 3.60503e+06 1.89373e+06 -1.20487e+06 701420
22 3 O 2.54711 5.86389 50.7205 -1.2 -8.74419 -2.18913e+06 -550249 -3.98516e+06 -2.23769e+06 -863395 -310436
23 1 Mg -1.93026 4.73488 55.2161 1.2 -9.04558 3.64278e+06 1.38119e+06 737204 -149096 -267726 -1.09896e+06
24 2 Si -1.95157 2.60091 53.3035 2.4 -34.3147 9.97442e+06 2.0661e+06 1.39697e+07 1.28088e+06 904797 -938159
25 3 O -1.98245 1.10627 53.2071 -1.2 -9.23012 -4.22263e+06 -3.6098e+06 -4.66654e+06 1.00676e+06 -35277 -194086
26 3 O 0.000223347 2.91788 46.8517 -1.2 -6.67629 -3.46047e+06 -1.85636e+06 -2.68833e+06 -1.67794e+06 -2.84154e+06 -988297
27 3 O -3.25175 3.23783 54.0365 -1.2 -8.3713 -4.3027e+06 -2.23303e+06 -6.42672e+06 -1.11211e+06 415828 1.13822e+06
28 3 O -0.671936 3.30915 54.0748 -1.2 -8.152 -2.89357e+06 -1.63403e+06 -4.47092e+06 1.03211e+06 -246289 1.34319e+06
29 1 Mg -3.22973 11.7401 57.4499 1.2 -7.4442 399352 -779459 4.62536e+06 -1.19962e+06 -1.52597e+06 -1.52305e+06
30 1 Mg -1.77023 11.5765 49.7906 1.2 -8.97909 2.03393e+06 1.93317e+06 1.82971e+06 -582525 176602 446331
31 2 Si -1.19606 8.97307 47.951 2.4 -34.478 8.33998e+06 8.03248e+06 9.72361e+06 560810 3.15616e+06 440532
32 3 O -1.20991 10.6243 48.0265 -1.2 -8.17821 -3.01629e+06 -1.57223e+06 -3.71709e+06 906479 -2.18469e+06 -160381
33 3 O -1.78153 8.05699 51.8962 -1.2 -8.98602 -3.04242e+06 -3.36705e+06 -6.99137e+06 -235074 271434 -323233
34 3 O -2.23072 8.32448 48.9105 -1.2 -9.07584 -1.59916e+06 -3.18193e+06 -4.17222e+06 -519744 -647737 -73137
35 1 Mg 0.182828 7.15259 46.7877 1.2 -7.50953 1.84685e+06 1.05738e+06 832959 971341 1.83963e+06 -1.59488e+06
36 3 O 0.37567 8.5327 48.3478 -1.2 -8.5111 -1.54737e+06 -2.51758e+06 -3.2114e+06 -1385.38 -1.0453e+06 166733
37 1 Mg 1.13461 7.13899 54.5893 1.2 -8.91884 2.77488e+06 1.07512e+06 1.40946e+06 533815 -369424 448712
38 2 Si 1.1872 9.75504 56.4429 2.4 -33.7658 8.54859e+06 5.55608e+06 1.08815e+07 -654765 -626156 -1.55678e+06
39 3 O 1.18969 8.1768 56.6147 -1.2 -8.91385 -4.43991e+06 -1.4856e+06 -4.97063e+06 420600 453975 6373.89
40 3 O 1.36511 10.7269 52.6717 -1.2 -9.20798 -3.44543e+06 -2.35226e+06 -6.68137e+06 401034 -81830.1 187050
41 3 O -0.0875229 10.4213 55.733 -1.2 -8.76025 -2.55841e+06 -3.16711e+06 -3.60668e+06 -1.07416e+06 -347927 530114
42 3 O 2.43798 10.3308 55.6893 -1.2 -8.94834 -3.74419e+06 -3.76632e+06 -3.23503e+06 887450 721599 653232
43 1 Mg -0.254992 9.34665 52.2805 1.2 -7.86873 177760 -1.23503e+06 5.1225e+06 -1.53586e+06 1.44001e+06 150423
44 1 Mg 1.86396 8.96721 49.4187 1.2 -8.0925 1.82083e+06 555420 -597128 -342448 -454486 174044
45 2 Si 1.23478 11.3423 51.2393 2.4 -33.9766 8.80387e+06 6.5238e+06 9.4423e+06 1.26128e+06 1.34197e+06 884519
46 3 O 1.39085 12.9836 51.2866 -1.2 -8.93094 -3.74314e+06 -975491 -3.83463e+06 791058 -342673 592551
47 3 O 1.19912 10.4306 57.9077 -1.2 -9.36323 -2.34793e+06 -2.62541e+06 -4.80052e+06 16890.9 -35130.5 780114
48 3 O -0.124343 10.7483 50.6536 -1.2 -8.38847 -3.70296e+06 -1.83699e+06 -4.14095e+06 1.40467e+06 -164962 -160582
49 1 Mg -3.24779 9.34091 52.3624 1.2 -7.86344 -783292 -1.45292e+06 4.23099e+06 2.18134e+06 -1.48187e+06 246212
50 3 O 2.41098 10.7244 50.4128 -1.2 -8.83337 -4.44658e+06 -2.50671e+06 -2.87882e+06 -588554 926461 223631
51 1 Mg -1.8016 9.47322 55.1069 1.2 -8.83725 2.95628e+06 1.11737e+06 208861 294022 217108 -1.83554e+06
52 2 Si -1.77518 7.3903 53.3358 2.4 -34.0791 8.73139e+06 4.16928e+06 1.12705e+07 429074 220866 -332149
53 3 O -1.90054 5.84355 53.3396 -1.2 -8.88667 -4.40807e+06 -2.43109e+06 -5.32893e+06 1.31395e+06 -362148 -429293
54 3 O -1.22565 8.52502 46.4559 -1.2 -7.66246 -2.61493e+06 -2.25213e+06 -2.92138e+06 -712215 -1.85594e+06 77612.1
55 3 O -3.05894 8.02821 54.028 -1.2 -8.49736 -3.08542e+06 -4.28944e+06 -4.7177e+06 -433971 807072 97464.7
56 3 O -0.507607 8.07528 54.0457 -1.2 -8.72786 -3.79476e+06 -3.53947e+06 -4.02584e+06 1.57948e+06 -667162 432383
57 1 Mg -3.17788 16.5775 57.4085 1.2 -7.74133 -103812 -1.94125e+06 4.89858e+06 -963395 -1.71787e+06 -586161
58 1 Mg -1.70709 16.3162 49.7567 1.2 -8.97314 2.05718e+06 1.77864e+06 1.94011e+06 -442195 808913 21633.6
59 2 Si -1.1373 13.8568 47.9385 2.4 -35.4845 9.67584e+06 3.26988e+06 1.06375e+07 145450 1.39526e+06 -451852
60 3 O -1.1367 15.3701 48.015 -1.2 -8.32809 -3.64381e+06 -6.04479e+06 -3.54543e+06 246151 -1.5193e+06 -139339
61 3 O -1.76955 12.7096 51.8035 -1.2 -8.96056 -3.63363e+06 -2.54371e+06 -5.95137e+06 746237 -185309 47134.6
62 3 O -2.35722 13.313 48.8593 -1.2 -7.92356 -2.0608e+06 -3.74927e+06 -3.93651e+06 94810.2 -21839.2 -1.24762e+06
63 1 Mg -0.15266 11.762 46.8619 1.2 -7.39687 2.41402e+06 -1.26029e+06 1.55973e+06 1.27373e+06 1.47935e+06 -790802
64 3 O 0.236316 13.1967 48.4198 -1.2 -8.24586 -4.3825e+06 -1.34714e+06 -3.63833e+06 204071 -1.17011e+06 820115
65 1 Mg 1.26306 11.8144 54.5648 1.2 -8.64139 2.40759e+06 2.25277e+06 810785 63619.9 -381568 526733
66 2 Si 1.24985 14.4673 56.4475 2.4 -34.1637 8.73175e+06 1.84061e+06 1.18009e+07 409282 -894449 -282983
67 3 O 1.19044 12.9523 56.5001 -1.2 -9.2301 -4.17198e+06 -3.50926e+06 -4.94862e+06 -238443 644537 592942
68 3 O 1.41039 15.4413 52.718 -1.2 -8.50082 -4.04292e+06 -1.75843e+06 -5.09426e+06 187499 -1.11833e+06 -914444
69 3 O 0.0125734 15.1439 55.7651 -1.2 -8.5216 -4.61327e+06 -3.17238e+06 -4.8531e+06 -131089 -276198 731764
70 3 O 2.50589 15.1 55.717 -1.2 -8.56604 -4.32459e+06 -2.83597e+06 -3.70858e+06 590472 -129975 129354
71 1 Mg -0.217369 14.107 52.2276 1.2 -8.30585 1.07406e+06 -1.4461e+06 4.49491e+06 -1.24977e+06 1.96027e+06 752191
72 1 Mg 1.8121 13.7917 49.4418 1.2 -8.6224 2.79821e+06 87889 415897 268449 -295399 324444
73 2 Si 1.30062 16.1762 51.2405 2.4 -34.3726 9.71392e+06 5.2624e+06 1.08338e+07 -330881 -499928 109408
74 3 O 1.44112 17.725 51.3166 -1.2 -9.34193 -3.81251e+06 -1.5834e+06 -3.53793e+06 800046 -581549 418779
75 3 O 1.2339 15.1545 57.914 -1.2 -9.15215 -4.03142e+06 -1.94205e+06 -6.06857e+06 83012.8 -169936 680127
76 3 O 0.00807199 15.5149 50.7509 -1.2 -8.29258 -5.67481e+06 -1.9635e+06 -5.5422e+06 986241 -1.0651e+06 -242779
77 1 Mg -3.17325 14.0753 52.345 1.2 -8.27045 5646.26 -1.84536e+06 4.52312e+06 2.04646e+06 -1.87454e+06 707384
78 3 O 2.53067 15.4747 50.3857 -1.2 -8.38887 -3.34219e+06 -2.45057e+06 -2.37439e+06 -879049 858238 68640.9
79 1 Mg -1.68797 14.1834 55.0942 1.2 -8.79744 4.00942e+06 842726 948044 -42319 -62379.7 -1.05531e+06
80 2 Si -1.70698 12.0791 53.2166 2.4 -33.2063 1.00912e+07 5.79732e+06 1.15907e+07 -119309 -98926.9 252519
81 3 O -1.73065 10.4806 53.2158 -1.2 -9.35837 -3.52613e+06 -954475 -4.93962e+06 207803 -112581 1.14125e+06
82 3 O -1.17672 13.3203 46.459 -1.2 -7.28812 -3.89296e+06 -1.86463e+06 -4.7403e+06 -119213 -1.77379e+06 805853
83 3 O -3.03915 12.8115 54.0152 -1.2 -8.67837 -817437 -2.21559e+06 -3.44773e+06 -971458 -516143 604495
84 3 O -0.39005 12.7678 53.9176 -1.2 -8.92801 -1.64552e+06 -2.22276e+06 -3.33412e+06 877019 -262492 1.04915e+06
85 1 Mg -3.0386 21.2209 57.4355 1.2 -7.70741 -298589 -2.06372e+06 5.67608e+06 -990435 -1.48554e+06 -353937
86 1 Mg -1.61674 21.1486 49.7762 1.2 -8.83838 1.76599e+06 1.63882e+06 1.90437e+06 -285338 581279 591936
87 2 Si -1.03385 18.6286 47.9197 2.4 -34.6734 1.00971e+07 6.27446e+06 1.05256e+07 1.21665e+06 2.09697e+06 -1.02121e+06
88 3 O -0.976818 20.1871 48.0521 -1.2 -8.38026 -2.8817e+06 -4.18937e+06 -3.75454e+06 -108540 -2.60787e+06 170277
89 3 O -1.70073 17.4997 51.7934 -1.2 -8.44719 -3.68518e+06 -2.06966e+06 -5.94166e+06 753730 149567 -773328
90 3 O -2.32363 18.0232 48.7972 -1.2 -8.22626 -24085.1 -2.74677e+06 -3.34842e+06 94464.2 -1.09737e+06 -979319
91 1 Mg -0.024646 16.5547 46.8508 1.2 -7.14297 3.20336e+06 -698812 1.58684e+06 1.05402e+06 1.47783e+06 -1.37029e+06
92 3 O 0.35569 17.9224 48.4046 -1.2 -8.67466 -2.68323e+06 -1.32938e+06 -2.1519e+06 -64453.5 -330865 1.0515e+06
93 1 Mg 1.37916 16.566 54.5682 1.2 -8.72279 3.15781e+06 2.17262e+06 1.08949e+06 -242723 -7281.11 453414
94 2 Si 1.38675 19.1986 56.4601 2.4 -33.0224 7.79499e+06 4.37514e+06 1.14389e+07 446181 -109755 -895369
95 3 O 1.34049 17.6739 56.4959 -1.2 -9.72219 -3.43581e+06 -2.75199e+06 -4.73352e+06 165542 -36998.9 188231
96 3 O 1.40237 20.2431 52.7447 -1.2 -9.13443 -3.29697e+06 -1.86504e+06 -4.64327e+06 296326 -1.13546e+06 -767390
97 3 O 0.122088 19.9162 55.7238 -1.2 -8.86333 -2.75901e+06 -2.57951e+06 -3.4613e+06 -831979 -87163.5 -677736
98 3 O 2.66696 19.9189 55.705 -1.2 -8.74926 -2.33451e+06 -2.92345e+06 -3.32536e+06 995945 149759 -596487
99 1 Mg -0.126775 18.9298 52.2013 1.2 -8.1915 101188 -740126 4.50901e+06 -983797 1.75414e+06 480617
100 1 Mg 1.90303 18.6514 49.4367 1.2 -8.21351 2.77003e+06 666242 293789 -68780.2 -518229 -221573
101 2 Si 1.42077 20.9244 51.2699 2.4 -33.307 8.47587e+06 5.96239e+06 1.08485e+07 396241 168261 -506853
102 3 O 1.44732 22.564 51.3437 -1.2 -9.52645 -4.01498e+06 -717994 -3.7743e+06 389409 -367978 -25066.1
103 3 O 1.4466 19.8885 57.8765 -1.2 -9.77534 -2.4594e+06 -2.26964e+06 -7.19166e+06 -66069.4 143192 738398
104 3 O 0.107839 20.2983 50.6435 -1.2 -8.4517 -3.13009e+06 -1.99907e+06 -5.47939e+06 890836 -416487 491042
105 1 Mg -3.03149 18.8966 52.2741 1.2 -7.94725 327364 -1.04208e+06 4.09283e+06 1.66071e+06 -1.59377e+06 789817
106 3 O 2.60247 20.3325 50.4207 -1.2 -9.28911 -4.757e+06 -2.30785e+06 -1.46265e+06 -466796 660449 259789
107 1 Mg -1.56664 18.9544 55.1723 1.2 -8.60603 2.7644e+06 2.08508e+06 310788 -110315 -329617 -447946
108 2 Si -1.62645 16.7904 53.245 2.4 -34.3828 9.43009e+06 3.87252e+06 1.14897e+07 -679585 -298950 255533
109 3 O -1.6251 15.2766 53.1543 -1.2 -9.20264 -4.67005e+06 -2.90612e+06 -4.76195e+06 137621 296658 931608
110 3 O -1.13563 18.1466 46.418 -1.2 -7.56135 -3.03002e+06 -1.07968e+06 -3.17644e+06 -731389 -831640 1.00611e+06
111 3 O -2.93997 17.5333 53.9419 -1.2 -8.42761 -2.96563e+06 -1.7631e+06 -3.77004e+06 -1.09954e+06 338260 198146
112 3 O -0.41061 17.5079 53.9174 -1.2 -8.65073 -3.96914e+06 -2.73077e+06 -3.52273e+06 264667 -1.11782e+06 277522
113 1 Mg -2.94603 26.0177 57.4608 1.2 -7.26553 -1.82893e+06 -1.19173e+06 4.86144e+06 -1.13489e+06 -1.65963e+06 -441080
114 1 Mg -1.46342 25.9075 49.8475 1.2 -8.90788 1.48986e+06 1.89466e+06 1.52498e+06 -211317 430463 112739
115 2 Si -0.985246 23.436 47.9778 2.4 -34.8873 9.07636e+06 6.4778e+06 1.03584e+07 -91953.1 1.71231e+06 1.07819e+06
116 3 O -0.943035 24.9546 48.0331 -1.2 -8.74749 -3.19131e+06 -5.72364e+06 -2.26047e+06 128466 -1.74721e+06 357748
117 3 O -1.60759 22.3122 51.7846 -1.2 -8.67833 -2.54734e+06 -2.69278e+06 -4.99343e+06 728429 -448949 -645378
118 3 O -2.21027 22.8487 48.86 -1.2 -8.30733 -2.04683e+06 -3.83931e+06 -3.67279e+06 667087 -318907 -1.67521e+06
119 1 Mg 0.0822891 21.2997 46.7904 1.2 -7.34667 1.87356e+06 -1.96417e+06 1.64985e+06 2.00055e+06 1.11586e+06 -345988
120 3 O 0.393568 22.7342 48.4394 -1.2 -8.20177 -2.99633e+06 -1.57514e+06 -3.30705e+06 -436505 -818898 605164
121 1 Mg 1.49186 21.3362 54.5099 1.2 -8.68703 2.64781e+06 1.80957e+06 453189 -326721 694846 875468
122 2 Si 1.49512 23.9703 56.4293 2.4 -33.3104 7.92825e+06 3.47359e+06 1.08396e+07 706346 -264285 -48300.6
123 3 O 1.44347 22.4364 56.4852 -1.2 -9.38872 -4.21657e+06 -2.55687e+06 -4.3234e+06 561614 331488 -354483
124 3 O 1.56355 24.9954 52.7332 -1.2 -9.07599 -3.98511e+06 -2.34938e+06 -4.9644e+06 496896 -875753 -1.08005e+06
125 3 O 0.199617 24.5806 55.7773 -1.2 -9.06908 -3.26897e+06 -3.4326e+06 -3.80098e+06 -608562 -707057 814828
126 3 O 2.75974 24.6486 55.7171 -1.2 -9.03127 -2.23744e+06 -2.90191e+06 -3.91412e+06 582277 595781 226750
127 1 Mg -0.0630358 23.6233 52.2142 1.2 -8.1322 -234134 -849931 4.12649e+06 -920910 1.98034e+06 383035
128 1 Mg 2.02787 23.3972 49.4983 1.2 -8.14363 3.04258e+06 368542 -249036 611074 75729.7 5164.06
129 2 Si 1.46015 25.6562 51.2508 2.4 -33.5999 8.40431e+06 4.72342e+06 9.82021e+06 -950739 -1.07085e+06 -944180
130 3 O 1.55475 27.2337 51.2447 -1.2 -9.52714 -3.67001e+06 -2.14998e+06 -3.25713e+06 473199 -61975.5 401640
131 3 O 1.52881 24.6785 57.8732 -1.2 -9.68794 -2.59504e+06 -1.09444e+06 -6.59917e+06 -505941 -149613 437857
132 3 O 0.22622 25.0492 50.691 -1.2 -8.54652 -6.18191e+06 -4.42616e+06 -5.40202e+06 226991 -1.4302e+06 -427132
133 1 Mg -3.03964 23.6277 52.2535 1.2 -7.83758 -135026 -1.44122e+06 3.71216e+06 1.74047e+06 -1.95226e+06 177284
134 3 O 2.77622 25.0388 50.4411 -1.2 -8.8206 -3.26591e+06 -2.889e+06 -1.96677e+06 -611661 80559.9 -155748
135 1 Mg -1.47138 23.6761 55.126 1.2 -8.50153 2.52965e+06 1.65465e+06 1.00845e+06 -275855 -203538 -1.11104e+06
136 2 Si -1.53545 21.5747 53.281 2.4 -33.966 6.88235e+06 3.79099e+06 1.19356e+07 -646166 -960989 -1.4306e+06
137 3 O -1.50839 20.0668 53.1515 -1.2 -9.21116 -4.23581e+06 -4.65719e+06 -4.2342e+06 20536.6 674293 242672
138 3 O -0.999728 22.735 46.4712 -1.2 -7.29411 -4.05034e+06 -2.32867e+06 -3.27559e+06 392783 -2.31312e+06 2.9405e+06
139 3 O -2.77341 22.1934 54.0563 -1.2 -8.79273 -3.92797e+06 -3.24403e+06 -4.0533e+06 -541340 1.05369e+06 949032
140 3 O -0.279636 22.2537 53.8796 -1.2 -8.77984 -4.07989e+06 -3.48823e+06 -4.68585e+06 105014 -1.08515e+06 128721
141 1 Mg -2.83917 30.7691 57.3667 1.2 -7.05853 -1.47412e+06 -1.40553e+06 4.98243e+06 -943087 -1.48414e+06 -156788
142 1 Mg -1.3832 30.6796 49.8396 1.2 -8.38807 1.21018e+06 2.38752e+06 2.03494e+06 -421980 -56053 443127
143 2 Si -0.926363 28.1497 47.9226 2.4 -34.5092 8.69716e+06 7.55575e+06 9.15868e+06 583357 2.42486e+06 -1.46882e+06
144 3 O -0.786071 29.7328 48.0142 -1.2 -8.65251 -2.40682e+06 -3.9224e+06 -3.24959e+06 253982 -2.1816e+06 353080
145 3 O -1.4233 26.949 51.6976 -1.2 -8.85976 -2.19878e+06 -3.53115e+06 -4.10948e+06 145043 -582672 -220774
146 3 O -2.09134 27.5886 48.8493 -1.2 -8.62758 -1.66519e+06 -3.34604e+06 -3.70508e+06 -86711.7 -326804 -676347
147 1 Mg 0.117346 26.0734 46.7898 1.2 -6.97029 2.33637e+06 -208102 1.35047e+06 828148 1.42569e+06 -1.15313e+06
148 3 O 0.522948 27.4318 48.3506 -1.2 -8.43772 -1.71152e+06 -1.68812e+06 -2.36123e+06 -391992 -455305 1.31596e+06
149 1 Mg 1.57103 26.0341 54.5224 1.2 -8.40538 2.33752e+06 1.80529e+06 390984 -123926 269066 669419
150 2 Si 1.63605 28.7145 56.4045 2.4 -32.2449 5.11175e+06 3.23336e+06 1.20688e+07 -1.37039e+06 1.68231e+06 1.50368e+06
151 3 O 1.53542 27.2066 56.4007 -1.2 -9.98779 -2.54545e+06 -3.6132e+06 -4.29301e+06 290061 -254097 -456140
152 3 O 1.65856 29.7379 52.8105 -1.2 -9.20318 -2.33949e+06 -2.30976e+06 -3.48691e+06 -205967 866902 -995127
153 3 O 0.259343 29.4281 55.7381 -1.2 -9.25661 -944898 -2.9919e+06 -3.84015e+06 -1.10969e+06 305448 -924138
154 3 O 2.80432 29.3987 55.6889 -1.2 -9.70973 -3.19227e+06 -3.3642e+06 -4.84663e+06 225022 720366 -389459
155 1 Mg 0.102381 28.4229 52.1709 1.2 -7.83495 -937242 -618138 4.39206e+06 -929789 2.23395e+06 809456
156 1 Mg 2.10659 28.1575 49.4307 1.2 -7.99402 2.74107e+06 1.0086e+06 -25547.9 230024 124091 -26907.6
157 2 Si 1.58255 30.4253 51.251 2.4 -32.8212 6.20809e+06 5.8151e+06 1.02623e+07 1.58616e+06 1.95423e+06 -98884.3
158 3 O 1.72987 32.0015 51.3674 -1.2 -9.7317 -2.87708e+06 -2.73208e+06 -3.78643e+06 692336 -277080 94365.1
159 3 O 1.63433 29.3661 57.8796 -1.2 -9.95583 -1.62237e+06 -1.36025e+06 -6.0619e+06 597987 -651898 -51173.8
160 3 O 0.268892 29.7843 50.6173 -1.2 -8.91393 -3.43153e+06 -2.58622e+06 -3.98582e+06 1.35364e+06 18031.2 35765.1
161 1 Mg -2.89958 28.3539 52.3153 1.2 -7.44069 367991 -254956 4.06196e+06 1.51273e+06 -1.82927e+06 1.01146e+06
162 3 O 2.73707 29.786 50.5479 -1.2 -9.3967 -5.50861e+06 -3.65383e+06 -3.16207e+06 455146 1.75361e+06 -1.017e+06
163 1 Mg -1.37297 28.4673 55.1605 1.2 -7.9547 2.04365e+06 1.64754e+06 527866 -100486 -593178 -299753
164 2 Si -1.44764 26.3342 53.2171 2.4 -33.4266 8.04055e+06 4.26778e+06 1.2195e+07 1.56644e+06 -280775 296889
165 3 O -1.50877 24.8118 53.0989 -1.2 -9.27586 -3.39869e+06 -3.4683e+06 -5.09159e+06 504096 682206 749492
166 3 O -1.00191 27.674 46.446 -1.2 -7.77114 -3.10197e+06 -1.64894e+06 -4.21815e+06 -710050 -1.70017e+06 1.13712e+06
167 3 O -2.66704 26.9797 53.9786 -1.2 -9.27673 -2.64536e+06 -3.40167e+06 -2.90069e+06 -56443.9 727334 -144721
168 3 O -0.0860591 26.9922 53.8764 -1.2 -8.95325 -1.33087e+06 -2.74656e+06 -2.94246e+06 1.02048e+06 -187105 112417
169 1 Mg -2.72207 35.5181 57.3998 1.2 -6.99011 -1.80234e+06 -1.89732e+06 5.48309e+06 -1.36982e+06 -1.83881e+06 -388676
170 1 Mg -1.2714 35.4396 49.8491 1.2 -8.3874 890010 1.69002e+06 1.25351e+06 484568 -198025 1.18561e+06
171 2 Si -0.773887 32.9591 47.8982 2.4 -33.7943 9.68722e+06 6.66083e+06 1.02125e+07 63160.6 976337 370949
172 3 O -0.748775 34.4959 47.989 -1.2 -9.07754 -2.68622e+06 -5.12225e+06 -2.35886e+06 450378 -1.44589e+06 91670.4
173 3 O -1.29772 31.729 51.818 -1.2 -9.14935 -3.1177e+06 -2.90233e+06 -5.23979e+06 422938 218203 -597445
174 3 O -2.01803 32.3395 48.8427 -1.2 -8.65192 322719 -3.38685e+06 -2.05606e+06 936353 -1.0864e+06 -2.16733e+06
175 1 Mg 0.205208 30.8303 46.7841 1.2 -6.99978 1.34801e+06 -1.69514e+06 903072 1.73902e+06 1.40408e+06 -526573
176 3 O 0.666253 32.2988 48.3686 -1.2 -8.74164 -1.69413e+06 -1.51377e+06 -2.28092e+06 -614124 -543940 497466
177 1 Mg 1.70052 30.8505 54.567 1.2 -8.10887 866318 1.65558e+06 661061 411147 -431218 814315
178 2 Si 1.73467 33.4776 56.3842 2.4 -31.1353 4.90554e+06 4.77259e+06 1.432e+07 551395 495063 1.43599e+06
179 3 O 1.65106 31.8913 56.4475 -1.2 -10.4487 -2.06168e+06 -149452 -4.67296e+06 162890 -435343 -672247
180 3 O 1.74605 34.4511 52.7251 -1.2 -9.41355 -2.92699e+06 -2.02326e+06 -4.88593e+06 346777 -625116 -1.033e+06
181 3 O 0.486527 34.1836 55.6828 -1.2 -10.0347 -1.79948e+06 -1.66747e+06 -3.17754e+06 -340534 726072 -1.05858e+06
182 3 O 2.97201 34.1605 55.6868 -1.2 -9.89372 -1.64937e+06 -1.75821e+06 -4.27797e+06 343425 -326428 -662941
183 1 Mg 0.126719 33.1056 52.2303 1.2 -7.60238 -162395 -794331 3.8067e+06 -1.51018e+06 1.90547e+06 644536
184 1 Mg 2.18074 32.9093 49.4739 1.2 -7.93039 1.85294e+06 188389 -4498.51 148005 -297201 -56165.8
185 2 Si 1.65233 35.1984 51.2701 2.4 -32.6904 7.37081e+06 5.2523e+06 9.37289e+06 -849917 -325857 -368370
186 3 O 1.78432 36.723 51.285 -1.2 -10.051 -3.32347e+06 -3.56022e+06 -2.82401e+06 403767 -603449 444401
187 3 O 1.77893 34.1666 57.9875 -1.2 -10.1392 -1.43915e+06 -936324 -2.8058e+06 270409 -191906 885710
188 3 O 0.386079 34.5823 50.6943 -1.2 -9.13541 -4.52366e+06 -2.7689e+06 -4.54694e+06 521827 -1.42685e+06 -152743
189 1 Mg -2.82715 33.1187 52.3176 1.2 -7.67899 -866531 -659752 3.59226e+06 1.59923e+06 -1.83125e+06 800431
190 3 O 2.92687 34.4668 50.4455 -1.2 -9.09754 -1.75265e+06 -2.95641e+06 -1.84713e+06 -806604 511023 -252705
191 1 Mg -1.24377 33.1664 55.1331 1.2 -7.61181 1.73551e+06 1.43708e+06 1.40979e+06 -237066 -88395.3 -420022
192 2 Si -1.2901 31.0603 53.2919 2.4 -32.5682 7.88571e+06 5.8953e+06 9.98472e+06 -236034 939413 31466.7
193 3 O -1.2896 29.4894 53.1607 -1.2 -9.80986 -3.58175e+06 -1.62624e+06 -3.67516e+06 872290 -36420.9 1.24153e+06
194 3 O -0.774544 32.343 46.3982 -1.2 -7.90167 -3.63836e+06 -2.19906e+06 -2.4517e+06 224651 -2.1251e+06 2.18632e+06
195 3 O -2.54533 31.7944 53.9017 -1.2 -9.58958 -2.05817e+06 -2.62756e+06 -4.98214e+06 -727003 1.24649e+06 -14894.8
196 3 O 0.0558087 31.7502 53.9183 -1.2 -9.41824 -1.51794e+06 -2.95281e+06 -3.93689e+06 1.44256e+06 -744802 336945
197 1 Mg -2.66808 40.2975 57.3958 1.2 -7.05648 -2.15005e+06 -1.62057e+06 4.94113e+06 -1.46793e+06 -1.71974e+06 -519758
198 1 Mg -1.15977 40.1289 49.8249 1.2 -8.28177 956083 2.58763e+06 2.22564e+06 -152219 206916 176990
199 2 Si -0.801511 37.6344 47.8663 2.4 -33.6143 7.18856e+06 8.88863e+06 9.141e+06 1.06397e+06 2.10927e+06 -1.2582e+06
200 3 O -0.611715 39.25 47.9639 -1.2 -8.87778 -2.002e+06 -3.30763e+06 -2.0753e+06 1.48414e+06 -1.8336e+06 350202
201 3 O -1.31979 36.6154 51.8029 -1.2 -8.95295 -2.74527e+06 -3.31844e+06 -6.21646e+06 599619 -353135 -1.29965e+06
202 3 O -1.84266 36.9863 48.8644 -1.2 -9.04095 -1.68044e+06 -4.59027e+06 -3.01479e+06 593412 -613533 -1.21836e+06
203 1 Mg 0.320439 35.5903 46.7936 1.2 -6.64929 1.24727e+06 -476254 1.24616e+06 1.17293e+06 1.55763e+06 -501425
204 3 O 0.723668 37.022 48.3821 -1.2 -8.56394 -776891 -2.1073e+06 -1.8346e+06 -537285 167141 869311
205 1 Mg 1.72705 35.6448 54.5533 1.2 -7.53741 1.5601e+06 1.24582e+06 1.48374e+06 26639.7 38169.7 1.30471e+06
206 2 Si 1.78847 38.205 56.3921 2.4 -31.1465 7.21314e+06 1.66499e+06 1.28486e+07 415599 -569548 1.46951e+06
207 3 O 1.73142 36.7134 56.5499 -1.2 -10.6502 -2.85247e+06 -2.63016e+06 -4.70185e+06 219342 570972 -661614
208 3 O 1.86235 39.2776 52.7337 -1.2 -9.67932 -2.35337e+06 -1.75133e+06 -3.43345e+06 56885.1 -1.32876e+06 -1.17431e+06
209 3 O 0.509281 38.8727 55.7376 -1.2 -10.1721 -386042 -1.57837e+06 -3.97884e+06 -532814 -505383 89159.1
210 3 O 3.15677 38.8398 55.7613 -1.2 -9.89109 361298 -2.02099e+06 -4.49873e+06 1.43229e+06 139611 -602158
211 1 Mg 0.262741 37.9096 52.2203 1.2 -7.49029 -603863 -1.19032e+06 3.56686e+06 -882599 1.70641e+06 1.13297e+06
212 1 Mg 2.27567 37.6019 49.4569 1.2 -7.73547 2.4957e+06 409879 -484330 -417818 83830.5 -186153
213 2 Si 1.7793 39.9137 51.1884 2.4 -32.4283 5.90917e+06 6.26474e+06 1.01727e+07 -393920 113101 426930
214 3 O 1.89336 41.5278 51.296 -1.2 -10.0114 -3.03405e+06 -294841 -3.64324e+06 623020 -555964 954370
215 3 O 1.83752 38.9863 57.9325 -1.2 -10.0042 -1.57233e+06 -632851 -3.74418e+06 -632585 407997 804176
216 3 O 0.499829 39.2707 50.7222 -1.2 -9.10683 -5.04928e+06 -3.70956e+06 -5.67981e+06 823814 -1.01102e+06 -537330
217 1 Mg -2.68417 37.904 52.3319 1.2 -7.34555 -1.4905e+06 -1.23978e+06 3.70483e+06 1.78261e+06 -1.46689e+06 861616
218 3 O 2.96255 39.226 50.3713 -1.2 -9.60472 -3.32589e+06 -2.6502e+06 -1.81737e+06 -576562 375028 -270456
219 1 Mg -1.18173 37.8712 55.0611 1.2 -7.73318 623662 381837 1.62495e+06 245707 -2845.57 -1.01853e+06
220 2 Si -1.22708 35.8497 53.283 2.4 -32.5033 4.27251e+06 3.74607e+06 1.12058e+07 -770485 -1.07821e+06 -1.04032e+06
221 3 O -1.27696 34.3532 53.1722 -1.2 -9.89783 -3.12596e+06 -3.81946e+06 -4.00546e+06 64493.5 520004 124920
222 3 O -0.766408 37.1337 46.4004 -1.2 -8.28472 -2.29099e+06 -2.31323e+06 -3.73651e+06 -918555 -2.20291e+06 1.06771e+06
223 3 O -2.52825 36.5327 53.9803 -1.2 -9.54814 -773435 -3.41305e+06 -5.10033e+06 -1.09195e+06 858372 -44222.9
224 3 O -0.00798471 36.5528 53.8164 -1.2 -9.86777 -3.95718e+06 -4.01165e+06 -5.69541e+06 135080 -2.17106e+06 -85463.4
225 1 Mg -2.54456 45.0183 57.3752 1.2 -6.50206 -1.0521e+06 -1.75111e+06 4.67389e+06 -1.35214e+06 -1.7408e+06 -1.17997e+06
226 1 Mg -1.10085 44.9266 49.7779 1.2 -8.00871 -221220 2.01324e+06 2.12271e+06 -23594.8 688132 512590
227 2 Si -0.623202 42.4473 47.9215 2.4 -34.1613 7.41675e+06 5.97693e+06 8.89115e+06 -274844 3.20153e+06 -1.20095e+06
228 3 O -0.520748 43.9675 47.9673 -1.2 -8.97254 -1.84708e+06 -6.70474e+06 -3.6446e+06 -124306 -2.19114e+06 -363875
229 3 O -1.11236 41.2486 51.6809 -1.2 -9.11628 -1.31276e+06 -2.09762e+06 -3.80486e+06 415736 414421 -1.32913e+06
230 3 O -1.77366 41.8256 48.7517 -1.2 -8.80804 -1.63954e+06 -3.42917e+06 -5.11038e+06 -151818 385667 -1.15244e+06
231 1 Mg 0.432163 40.3435 46.7759 1.2 -6.84304 1.72738e+06 150634 1.05177e+06 456763 1.58636e+06 -780347
232 3 O 0.870186 41.7026 48.407 -1.2 -8.66711 -1.1525e+06 -1.17342e+06 -1.57014e+06 -968364 -172989 674123
233 1 Mg 1.83192 40.3102 54.5872 1.2 -7.42838 2.01261e+06 1.30376e+06 1.92388e+06 -143772 -84703.6 995922
234 2 Si 1.95808 43.0127 56.3949 2.4 -31.2279 3.95558e+06 3.41895e+06 1.30981e+07 -548905 242520 1.49794e+06
235 3 O 1.8997 41.448 56.4219 -1.2 -10.4109 -2.29938e+06 -969480 -4.81303e+06 1.20865e+06 -682271 342855
236 3 O 1.90842 44.0358 52.7426 -1.2 -10.1066 -2.46169e+06 -3.02207e+06 -4.09805e+06 501213 -664061 -1.69146e+06
237 3 O 0.63911 43.5716 55.7529 -1.2 -9.99581 -384353 -3.74026e+06 -5.03975e+06 -324120 -591749 -587722
238 3 O 3.20168 43.6745 55.7047 -1.2 -10.4572 -1.73179e+06 -3.56687e+06 -3.69579e+06 908173 310185 -341397
239 1 Mg 0.416921 42.6681 52.1871 1.2 -7.58609 -1.82319e+06 -1.26115e+06 4.57368e+06 -911073 2.17723e+06 633525
240 1 Mg 2.41416 42.3504 49.4175 1.2 -7.66403 2.12289e+06 214835 163280 -7311.86 -307852 172301
241 2 Si 1.92727 44.7162 51.256 2.4 -31.4029 7.98801e+06 4.65413e+06 1.0601e+07 -209888 -264264 1.91111e+06
242 3 O 1.99162 46.2523 51.3102 -1.2 -10.7542 -2.65648e+06 -2.46676e+06 -3.84941e+06 -281226 -202806 332664
243 3 O 1.9063 43.6528 57.9387 -1.2 -10.134 -1.31168e+06 -1.69382e+06 -4.13122e+06 628157 -629969 706957
244 3 O 0.577715 44.0714 50.6207 -1.2 -9.10446 -631573 -2.6248e+06 -4.86538e+06 1.50228e+06 334850 -197811
245 1 Mg -2.62615 42.6828 52.2956 1.2 -7.1673 -172208 -1.69998e+06 3.90171e+06 1.61747e+06 -2.02395e+06 1.007e+06
246 3 O 3.17704 43.9778 50.4534 -1.2 -9.96536 -1.97649e+06 -1.38835e+06 -907137 -751937 -34303.6 178226
247 1 Mg -1.10465 42.7298 55.1268 1.2 -7.47839 681785 488137 2.19011e+06 462812 -21710.2 -510339
248 2 Si -1.10212 40.6093 53.2473 2.4 -32.1593 5.17014e+06 6.33988e+06 1.28461e+07 236972 -369861 -294126
249 3 O -1.19046 39.0154 53.1688 -1.2 -10.0318 -2.26503e+06 -1.55032e+06 -4.78022e+06 469354 540305 78540.6
250 3 O -0.674966 41.9688 46.4446 -1.2 -7.83049 -2.33167e+06 -2.45083e+06 -4.62453e+06 -660516 -875674 767266
251 3 O -2.37865 41.3577 53.8609 -1.2 -9.71148 -1.78301e+06 -1.49052e+06 -4.68837e+06 -923335 485785 23750.7
252 3 O 0.118879 41.3271 53.8966 -1.2 -9.75706 -2.28947e+06 -2.33493e+06 -4.41405e+06 703056 -993790 -92640.6
253 1 Mg -2.39553 49.7372 57.395 1.2 -6.9517 -1.34509e+06 -2.16896e+06 4.44615e+06 -740649 -1.77474e+06 -403455
254 1 Mg -0.97375 49.7182 49.8581 1.2 -7.80608 -273346 1.79004e+06 2.2989e+06 78741.6 465693 518471
255 2 Si -0.471758 47.188 47.9234 2.4 -33.7687 6.73221e+06 6.60722e+06 8.73492e+06 -160284 2.63114e+06 -151368
256 3 O -0.404928 48.7164 48.0104 -1.2 -9.18391 -1.45287e+06 -5.58871e+06 -2.98801e+06 -48076.7 -2.17096e+06 -377533
257 3 O -0.998066 46.052 51.7535 -1.2 -9.51686 -1.16712e+06 -3.25204e+06 -5.77173e+06 824310 -885798 -1.72743e+06
258 3 O -1.64576 46.5715 48.7729 -1.2 -9.15767 -142155 -4.14284e+06 -4.91179e+06 177077 -114924 -1.15409e+06
259 1 Mg 0.568558 45.0504 46.787 1.2 -6.69306 1.9169e+06 358139 723647 511565 1.5248e+06 -861915
260 3 O 0.99445 46.4709 48.3532 -1.2 -9.14081 -1.61233e+06 -1.40186e+06 -2.1271e+06 -849386 -623591 838846
261 1 Mg 2.02841 45.0227 54.5202 1.2 -7.3333 696027 1.20429e+06 723510 -115259 604185 1.00027e+06
262 2 Si 2.03702 47.7074 56.3648 2.4 -31.5378 4.93991e+06 6.37954e+06 1.05182e+07 297503 -516462 116359
263 3 O 1.94576 46.0804 56.4636 -1.2 -10.5562 -1.36815e+06 145126 -4.38445e+06 874180 504875 -687261
264 3 O 2.12127 48.813 52.7045 -1.2 -9.92852 -2.49297e+06 -2.55737e+06 -5.76685e+06 332859 6895.37 -829229
265 3 O 0.728148 48.4126 55.6916 -1.2 -9.64801 -528496 -1.5598e+06 -5.66093e+06 -1.55186e+06 -1.15062e+06 -472857
266 3 O 3.27929 48.4246 55.7311 -1.2 -10.0429 -2.418e+06 -1.77679e+06 -5.34127e+06 1.17321e+06 1.64301e+06 -960865
267 1 Mg 0.519455 47.3871 52.1977 1.2 -7.28792 -1.87574e+06 -789620 4.47159e+06 -817736 1.92705e+06 765561
268 1 Mg 2.49498 47.0224 49.4119 1.2 -7.07792 1.3292e+06 -84527.8 128490 55678.5 -764649 487983
269 2 Si 2.04423 49.4206 51.2124 2.4 -31.6797 5.5561e+06 4.57022e+06 1.02279e+07 38151.1 883840 723691
270 3 O 2.13858 51.0033 51.2821 -1.2 -10.3429 -1.54913e+06 -2.18094e+06 -3.85771e+06 471228 -692235 1.06462e+06
271 3 O 1.99397 48.3892 57.77 -1.2 -9.91575 -2.00569e+06 -1.77024e+06 -8.03379e+06 -817474 279911 690761
272 3 O 0.690735 48.8409 50.658 -1.2 -9.51689 -1.57978e+06 -2.73923e+06 -4.86327e+06 869524 -825813 -638553
273 1 Mg -2.47883 47.4065 52.2167 1.2 -6.92956 -937298 -1.72481e+06 3.60907e+06 1.49274e+06 -1.89437e+06 952993