ITEM: TIMESTEP
1700
ITEM: NUMBER OF ATOMS
10500
ITEM: BOX BOUNDS xy xz yz pp pp pp
0.0000000000000000e+00 8.9687999999999999e+00 2.9895999999999998e+00
0.0000000000000000e+00 1.1872499999999999e+02 0.0000000000000000e+00
0.0000000000000000e+00 2.5297700000000000e+02 0.0000000000000000e+00
ITEM: ATOMS id type element xu yu zu q c_pe c_s[1] c_s[2] c_s[3] c_s[4] c_s[5] c_s[6]
1 1 Mg -3.6077 7.08955 57.2062 1.2 -7.85325 4458.55 -1.4031e+06 3.74536e+06 -1.49554e+06 -1.82718e+06 -1.43938e+06
2 1 Mg -1.77363 6.61627 49.5109 1.2 -8.09932 -528086 598986 1.19841e+06 307146 114056 2.09618e+06
3 2 Si -0.0947794 3.92792 47.9952 2.4 -35.2487 1.00691e+07 8.75761e+06 1.0413e+07 839000 1.33678e+06 2.60916e+06
4 3 O -0.202105 5.28691 47.2741 -1.2 -8.29103 -2.68342e+06 -4.26335e+06 -1.66066e+06 -294645 -883232 -749687
5 3 O -2.12015 3.48948 51.7927 -1.2 -8.81717 -4.36975e+06 -3.22827e+06 -6.15265e+06 -1.55044e+06 231541 -1.91332e+06
6 3 O -1.37547 3.70469 48.9977 -1.2 -8.33034 -258999 -860330 -3.23821e+06 364713 -1.46497e+06 -211389
7 1 Mg 1.88946 2.42036 46.9661 1.2 -7.57816 341665 -1.29564e+06 755418 2.27101e+06 443195 1.46569e+06
8 3 O 1.3885 3.67371 48.6892 -1.2 -8.32973 -1.70795e+06 -3.04058e+06 -2.15015e+06 -1.06933e+06 -569769 -1.1469e+06
9 1 Mg 0.995643 2.08296 54.5211 1.2 -8.22999 2.75668e+06 1.08865e+06 735632 322428 -249479 1.3256e+06
10 2 Si 0.889586 4.97641 56.2551 2.4 -33.6431 8.06819e+06 4.75553e+06 1.33119e+07 -758544 1.29822e+06 -139453
11 3 O 0.744563 3.4522 56.4417 -1.2 -9.38346 -3.75659e+06 -2.28132e+06 -5.25721e+06 111749 452179 118489
12 3 O 1.04829 6.20064 52.5042 -1.2 -8.70102 -3.47065e+06 -4.09716e+06 -3.86285e+06 514118 -1.45365e+06 -1.02433e+06
13 3 O -0.444348 5.65486 55.632 -1.2 -8.6937 -2.06975e+06 -3.47317e+06 -3.67166e+06 -888970 323201 1.14196e+06
14 3 O 2.06013 5.68358 55.5097 -1.2 -9.303 -4.22711e+06 -2.19408e+06 -3.50607e+06 1.10599e+06 -223.13 777953
15 1 Mg -0.448888 4.75241 52.0011 1.2 -8.24708 59698.5 -84721.8 4.48298e+06 -1.0728e+06 1.55335e+06 691835
16 1 Mg 2.86464 3.98375 49.9744 1.2 -8.3355 2.52443e+06 15372.1 1.54611e+06 -668882 681999 -543102
17 2 Si 1.2164 6.67062 50.9613 2.4 -33.6847 9.50721e+06 7.95017e+06 1.1168e+07 -411010 -375403 3.14657e+06
18 3 O 1.26592 8.34713 51.041 -1.2 -8.97105 -3.46958e+06 -219281 -3.8281e+06 -335996 -1.24731e+06 1.84398e+06
19 3 O 1.00535 5.72513 57.8081 -1.2 -8.63338 -2.83523e+06 -1.57759e+06 -2.64057e+06 -1.23063e+06 432451 1.7318e+06
20 3 O -0.224312 6.13768 50.4705 -1.2 -8.47788 -2.08434e+06 -3.30621e+06 -6.02062e+06 1.74222e+06 -781465 -1.46237e+06
21 1 Mg -3.47367 4.81577 52.6163 1.2 -7.6379 -143307 -1.03161e+06 1.6867e+06 952999 -1.85447e+06 362696
22 3 O 2.49183 6.03882 50.2302 -1.2 -9.4571 -2.88409e+06 -632213 -2.1692e+06 -2.11493e+06 -1.19467e+06 -946198
23 1 Mg -2.09175 4.69294 55.0041 1.2 -8.30191 2.48353e+06 1.45293e+06 378646 200385 -1.27056e+06 -2.00672e+06
24 2 Si -1.9211 2.66787 53.163 2.4 -33.4688 9.66834e+06 3.44925e+06 1.20417e+07 1.75296e+06 348711 -775854
25 3 O -2.07288 1.13792 53.0474 -1.2 -9.5591 -3.16168e+06 -2.34682e+06 -4.68378e+06 1.70574e+06 -441626 77106.6
26 3 O 0.0461864 2.75114 46.8174 -1.2 -7.40189 -3.10159e+06 -1.7531e+06 -1.34847e+06 -660908 -2.29288e+06 -206296
27 3 O -3.16676 3.24967 54.0774 -1.2 -8.88506 -1.62756e+06 -1.75921e+06 -5.30298e+06 -215512 -548803 154360
28 3 O -0.56726 3.30993 53.7334 -1.2 -8.77828 -1.94197e+06 -1.6307e+06 -4.01418e+06 402897 152695 177649
29 1 Mg -3.62665 11.9731 57.382 1.2 -7.94928 -745110 -1.50951e+06 3.69945e+06 218817 -2.50576e+06 507684
30 1 Mg -1.568 11.4541 49.4166 1.2 -8.68913 2.30505e+06 2.05858e+06 2.22646e+06 -247846 451983 684768
31 2 Si -0.936655 8.7894 47.5908 2.4 -35.16 8.98644e+06 5.60544e+06 1.05607e+07 -1.54839e+06 2.42825e+06 929500
32 3 O -1.1082 10.395 47.7012 -1.2 -8.40354 -2.90912e+06 -1.91775e+06 -3.81949e+06 665973 -1.34905e+06 786952
33 3 O -1.77135 8.17418 51.5968 -1.2 -8.57202 -4.55767e+06 -4.03173e+06 -4.7878e+06 581624 949894 -1.64824e+06
34 3 O -2.116 8.14084 48.355 -1.2 -8.84843 -3.23187e+06 -3.42892e+06 -3.7476e+06 -981098 -346220 54148
35 1 Mg 0.206969 6.71149 46.1124 1.2 -7.18336 1.21506e+06 -405584 442663 1.17467e+06 1.3326e+06 -390190
36 3 O 0.499895 8.38266 48.1062 -1.2 -8.04013 -2.20176e+06 -1.17954e+06 -3.93637e+06 639000 -456996 -95285.5
37 1 Mg 1.16365 7.21165 54.4937 1.2 -8.67071 2.66932e+06 1.10713e+06 1.03242e+06 765474 -318893 277817
38 2 Si 0.917553 9.82724 56.3218 2.4 -33.6198 8.24493e+06 5.99894e+06 1.20614e+07 589253 1.02913e+06 -888308
39 3 O 0.87781 8.24748 56.3166 -1.2 -9.53372 -3.03635e+06 -882861 -4.95707e+06 -87266.7 -1.48679e+06 8617.09
40 3 O 1.44368 10.9437 52.5102 -1.2 -8.23988 -4.16606e+06 -3.36018e+06 -3.4602e+06 -186540 -1.4923e+06 -865163
41 3 O -0.359674 10.5658 55.6459 -1.2 -8.66491 -2.63459e+06 -2.72195e+06 -3.52281e+06 -1.51668e+06 106408 -241017
42 3 O 2.16939 10.5724 55.6683 -1.2 -8.78495 -4.33052e+06 -3.43766e+06 -4.13397e+06 2.0148e+06 239733 -412564
43 1 Mg -0.275284 9.37976 51.9565 1.2 -8.43401 -184545 -1.17341e+06 4.2501e+06 -1.88095e+06 1.55817e+06 1.2562e+06
44 1 Mg 2.19634 8.77748 49.1814 1.2 -8.11996 2.76495e+06 723486 1.45676e+06 653813 410158 1.47319e+06
45 2 Si 1.25417 11.4265 50.9987 2.4 -34.1971 1.02258e+07 6.25688e+06 1.21986e+07 -658490 -670474 2.25998e+06
46 3 O 1.32082 13.0468 51.0361 -1.2 -9.08334 -4.36167e+06 -324975 -5.73336e+06 369453 -828563 1.64861e+06
47 3 O 0.90446 10.4153 57.8414 -1.2 -9.10102 -3.2329e+06 -2.26484e+06 -4.91623e+06 402746 -264130 1.28653e+06
48 3 O -0.0659203 10.7794 50.5478 -1.2 -8.45202 -4.36661e+06 -4.13136e+06 -5.35299e+06 1.2844e+06 -275232 -775137
49 1 Mg -3.21532 9.44328 52.0305 1.2 -8.22915 354276 -1.5796e+06 3.29168e+06 2.09702e+06 -1.82041e+06 904721
50 3 O 2.58475 10.684 50.099 -1.2 -8.64112 -981465 824642 -887788 -1.90299e+06 -866674 900882
51 1 Mg -2.12556 9.77124 55.0584 1.2 -8.55031 1.85723e+06 1.77769e+06 1.61728e+06 101540 657751 -371841
52 2 Si -1.78431 7.48742 53.0555 2.4 -34.1947 9.80055e+06 6.00796e+06 1.1081e+07 -1.62118e+06 -348078 864588
53 3 O -1.95519 5.9074 52.9807 -1.2 -9.24373 -4.38526e+06 -2.05465e+06 -4.40877e+06 -588244 -844064 -899157
54 3 O -0.807153 8.26794 46.0572 -1.2 -7.51783 -3.95904e+06 -1.53603e+06 -3.26495e+06 77938.1 -2.09684e+06 1.48727e+06
55 3 O -3.11803 8.22619 53.7272 -1.2 -8.68754 -2.69854e+06 -1.4056e+06 -2.4527e+06 -739597 -358589 615643
56 3 O -0.520301 8.01218 53.8011 -1.2 -8.27585 -3.40603e+06 -3.81618e+06 -3.84717e+06 1.38855e+06 -324714 -298846
57 1 Mg -3.29825 16.6614 57.4022 1.2 -7.86269 -997027 -455641 4.49672e+06 -1.31416e+06 -1.54317e+06 -153070
58 1 Mg -1.65113 16.264 49.6511 1.2 -8.42463 1.10904e+06 2.20449e+06 2.4493e+06 -260454 -124990 1.38225e+06
59 2 Si -1.01578 13.73 47.506 2.4 -34.1508 1.02415e+07 6.44393e+06 1.26336e+07 1.69162e+06 1.7336e+06 13938.5
60 3 O -0.768581 15.3397 47.4681 -1.2 -8.58692 -1.22722e+06 -447963 -2.82117e+06 870367 -1.54415e+06 -308926
61 3 O -1.67498 12.8518 51.5945 -1.2 -8.29828 -3.45908e+06 -2.69457e+06 -5.34659e+06 -203050 -173092 -1.12408e+06
62 3 O -2.3466 13.3452 48.4264 -1.2 -8.49808 86115.5 -404757 -2.21334e+06 -677576 -1.49955e+06 -1.5262e+06
63 1 Mg 0.208519 11.5587 46.8628 1.2 -7.18571 2.29763e+06 -1.59739e+06 2.45751e+06 1.27569e+06 1.77752e+06 -207919
64 3 O 0.369625 13.0359 48.3735 -1.2 -8.35072 -252078 541654 -2.52185e+06 -359677 877718 -220388
65 1 Mg 1.2218 12.0264 54.4812 1.2 -9.0483 2.06769e+06 421985 1.14662e+06 420592 -869854 996824
66 2 Si 1.10606 14.5529 56.3499 2.4 -32.9645 8.48386e+06 6.94192e+06 1.06209e+07 290396 1.63869e+06 219492
67 3 O 1.12009 12.8996 56.3781 -1.2 -9.14251 -5.26301e+06 -1.47211e+06 -5.56476e+06 1.06779e+06 -882678 -1.26066e+06
68 3 O 1.39887 15.5225 52.6389 -1.2 -9.15099 -3.5819e+06 -3.30404e+06 -3.37605e+06 444445 18689.3 -931825
69 3 O -0.221188 15.2531 55.7515 -1.2 -9.20542 -1.4434e+06 -2.25042e+06 -2.14837e+06 -888840 717574 -444036
70 3 O 2.32858 15.2333 55.6011 -1.2 -9.17713 -2.50201e+06 -3.15104e+06 -4.95626e+06 1.04845e+06 298196 103226
71 1 Mg -0.14339 14.1127 51.9148 1.2 -8.36588 -341737 -625062 4.25043e+06 -1.49743e+06 1.32899e+06 1.01007e+06
72 1 Mg 1.97255 13.8994 49.3301 1.2 -8.26334 3.32865e+06 58305.2 125318 -34622 175558 900065
73 2 Si 1.38527 16.2276 51.179 2.4 -33.506 9.48348e+06 7.40164e+06 9.36292e+06 1.19535e+06 1.66987e+06 2.12838e+06
74 3 O 1.40872 17.8556 51.3672 -1.2 -9.05988 -4.00689e+06 -618950 -3.06165e+06 400591 -718106 195744
75 3 O 1.37812 15.1118 57.8203 -1.2 -9.27152 -2.44988e+06 -2.5412e+06 -5.25934e+06 -514744 969685 742601
76 3 O 0.00653385 15.6505 50.5008 -1.2 -8.58918 -2.21974e+06 -2.85012e+06 -2.97803e+06 1.67132e+06 767185 -330683
77 1 Mg -3.24535 14.1565 52.2575 1.2 -8.02622 731529 -848279 2.56279e+06 2.21679e+06 -1.77194e+06 1.24958e+06
78 3 O 2.5401 15.5845 50.3749 -1.2 -9.34325 -4.73236e+06 -2.42392e+06 -2.09101e+06 -797427 418213 -590843
79 1 Mg -1.92251 14.3166 54.9705 1.2 -8.46401 2.69636e+06 1.90204e+06 1.10821e+06 403435 -268388 427914
80 2 Si -1.64177 12.1068 53.0058 2.4 -34.5229 1.22955e+07 4.33717e+06 1.07358e+07 452285 191231 963609
81 3 O -1.67932 10.6023 52.9283 -1.2 -8.88899 -4.7945e+06 -3.98189e+06 -3.99354e+06 410020 -92758.9 472230
82 3 O -0.919838 13.005 46.1501 -1.2 -7.84358 -2.5452e+06 -1.46816e+06 -3.75954e+06 -1.37288e+06 -582148 376950
83 3 O -3.00159 12.795 53.731 -1.2 -8.43977 -2.54741e+06 -2.84444e+06 -3.67807e+06 -2.46949e+06 -75066 24026.3
84 3 O -0.304477 12.8234 53.6724 -1.2 -8.27085 -3.29285e+06 -3.37104e+06 -3.44943e+06 2.52352e+06 -734668 688281
85 1 Mg -2.9531 21.2157 57.5551 1.2 -7.53714 73180.3 -451466 4.31974e+06 -695872 -1.54282e+06 886723
86 1 Mg -1.32248 21.1929 49.6136 1.2 -8.76132 2.5217e+06 1.53168e+06 621068 208010 427183 98860.4
87 2 Si -1.08183 18.6488 47.7599 2.4 -34.3755 8.44299e+06 5.41854e+06 1.2457e+07 312666 1.61175e+06 862313
88 3 O -1.12006 20.1811 48.024 -1.2 -8.68374 -2.2273e+06 -3.51639e+06 -4.78259e+06 1.91594e+06 -1.49682e+06 -1.86239e+06
89 3 O -1.69287 17.5977 51.8129 -1.2 -8.57256 -3.84507e+06 -1.57578e+06 -4.13505e+06 416309 769752 -2.10043e+06
90 3 O -2.27928 17.9099 48.5935 -1.2 -8.68499 -781364 -1.61612e+06 -1.88161e+06 -263271 -1.21295e+06 -2.09786e+06
91 1 Mg 0.446454 16.6678 46.844 1.2 -7.07746 1.57486e+06 -32664 2.50665e+06 359474 1.51839e+06 54645.3
92 3 O 0.391145 18.048 48.4702 -1.2 -8.28558 -262079 -1.0635e+06 -2.97709e+06 -453426 264833 -283804
93 1 Mg 1.3549 16.5885 54.4925 1.2 -8.39459 1.96914e+06 2.05641e+06 248080 791797 -435889 2.09828e+06
94 2 Si 1.32604 19.3108 56.4427 2.4 -34.062 9.62815e+06 2.95372e+06 1.07652e+07 29975.8 -422157 -1.00088e+06
95 3 O 1.2635 17.8199 56.5634 -1.2 -9.2288 -4.09269e+06 -4.72249e+06 -5.43342e+06 456435 -688897 -1.49551e+06
96 3 O 1.62339 20.4139 52.7512 -1.2 -8.44097 -3.85384e+06 -3.21317e+06 -4.60279e+06 280678 569937 -2.30892e+06
97 3 O 0.00671285 19.9847 55.8782 -1.2 -8.54448 -2.97231e+06 -3.35545e+06 -3.80227e+06 106416 -478289 135160
98 3 O 2.63314 19.9717 55.6626 -1.2 -8.45808 -2.24317e+06 -3.89258e+06 -3.03224e+06 1.55929e+06 437784 -742063
99 1 Mg -0.105083 18.9142 52.0655 1.2 -8.22267 1.0317e+06 -475245 4.49536e+06 -277028 1.66081e+06 1.24006e+06
100 1 Mg 2.00445 18.6963 49.4433 1.2 -8.23498 3.88574e+06 169472 1.0468e+06 -102601 -115867 1.41016e+06
101 2 Si 1.56512 21.096 51.2131 2.4 -34.0907 9.50722e+06 5.22606e+06 1.02369e+07 -824668 36673.3 1.70235e+06
102 3 O 1.7301 22.624 51.3066 -1.2 -9.49067 -3.83863e+06 -3.26509e+06 -4.57326e+06 492494 -438467 956777
103 3 O 1.52769 19.8565 57.9252 -1.2 -9.18098 -2.75465e+06 -4.83829e+06 -5.58548e+06 -78467.8 263142 306646
104 3 O 0.352537 20.4191 50.5648 -1.2 -8.47352 -5.79994e+06 -2.95831e+06 -3.60286e+06 1.73597e+06 -1.46699e+06 -1.30541e+06
105 1 Mg -2.99534 19.0418 52.4362 1.2 -8.40166 389720 -1.10318e+06 3.90601e+06 1.9579e+06 -1.20675e+06 1.62789e+06
106 3 O 2.81277 20.2913 50.5218 -1.2 -8.48708 -4.04054e+06 -1.32583e+06 -2.27554e+06 -1.21353e+06 714237 -58392.4
107 1 Mg -1.60612 18.9636 55.1992 1.2 -8.89479 3.06522e+06 2.09093e+06 287456 143011 -362698 -610819
108 2 Si -1.58411 16.8675 53.2815 2.4 -33.5908 9.17709e+06 8.84746e+06 1.05968e+07 -187705 970505 2.10651e+06
109 3 O -1.63604 15.248 53.1152 -1.2 -9.18765 -2.88164e+06 -1.01084e+06 -2.79819e+06 824179 -471767 807142
110 3 O -0.796929 18.2891 46.2827 -1.2 -7.90423 -1.28703e+06 -629749 -4.55614e+06 -1.09512e+06 -1.44145e+06 -635841
111 3 O -2.80368 17.6017 53.9912 -1.2 -8.82274 -2.67907e+06 -2.10524e+06 -4.57689e+06 -748410 779013 -430534
112 3 O -0.251803 17.574 53.957 -1.2 -8.73568 -2.22716e+06 -2.50038e+06 -2.2623e+06 1.64215e+06 77225.1 228321
113 1 Mg -2.62432 26.0411 57.4639 1.2 -8.15583 -478704 -1.53266e+06 4.36406e+06 -371936 -1.52707e+06 118098
114 1 Mg -1.12361 26.2091 49.9031 1.2 -8.38981 2.17982e+06 3.15934e+06 833061 302707 -77433 813803
115 2 Si -1.14065 23.5477 47.8737 2.4 -33.7031 9.0527e+06 7.53154e+06 1.01671e+07 207149 2.29724e+06 2.20459e+06
116 3 O -1.25837 25.1161 47.8854 -1.2 -8.9113 -3.00379e+06 -3.61403e+06 -90082.4 -384817 -1.31165e+06 -1.18341e+06
117 3 O -1.28034 22.3236 51.6328 -1.2 -8.77299 -2.85101e+06 -630289 -3.8939e+06 337899 339529 -1.11512e+06
118 3 O -2.28262 22.841 48.7262 -1.2 -8.71401 -1.43637e+06 -3.79471e+06 -3.2295e+06 140999 -620585 -1.93105e+06
119 1 Mg 0.150931 21.4984 46.7876 1.2 -6.61076 1.89671e+06 13111.9 2.35588e+06 1.77932e+06 1.04981e+06 14940.6
120 3 O 0.325098 22.8809 48.4385 -1.2 -8.62582 -192672 -481132 -2.30548e+06 -990184 305594 -405977
121 1 Mg 1.73303 21.4099 54.4788 1.2 -8.84024 3.80268e+06 1.55886e+06 85788.3 -428553 7260.08 1.02171e+06
122 2 Si 1.7071 23.9377 56.4021 2.4 -33.6956 8.79679e+06 7.52347e+06 1.02021e+07 523329 1.55846e+06 1.81272e+06
123 3 O 1.65725 22.3649 56.468 -1.2 -9.43045 -3.483e+06 -2.47785e+06 -3.05456e+06 1.08403e+06 -418999 -2.82262e+06
124 3 O 1.71114 25.2026 52.6798 -1.2 -9.45458 -2.16246e+06 -2.95344e+06 -5.68004e+06 -18725.4 484440 -1.58825e+06
125 3 O 0.446763 24.6278 55.6693 -1.2 -8.4181 -1.48583e+06 -2.56009e+06 -2.07683e+06 -600555 -479376 -1.37268e+06
126 3 O 2.97026 24.7843 55.8033 -1.2 -8.95239 -4.143e+06 -2.117e+06 -3.88474e+06 1.6419e+06 1.11783e+06 -1.95573e+06
127 1 Mg 0.10858 23.8733 52.2168 1.2 -7.58524 68366.8 -496533 5.49175e+06 -970302 1.60508e+06 1.31956e+06
128 1 Mg 2.03445 23.4927 49.5401 1.2 -7.95031 3.73804e+06 419518 -717547 -247150 500795 429402
129 2 Si 1.81483 25.7764 51.2009 2.4 -32.2359 6.19169e+06 6.70931e+06 1.03871e+07 1.57737e+06 1.82069e+06 496861
130 3 O 1.88023 27.374 51.1876 -1.2 -9.98417 -2.88313e+06 -922739 -4.18764e+06 763319 -522114 1.4055e+06
131 3 O 1.71122 24.5397 57.8923 -1.2 -8.96131 -3.34874e+06 -2.19272e+06 -5.79116e+06 -458307 16033.3 670449
132 3 O 0.476968 25.0426 50.4804 -1.2 -8.95977 -195501 -3.01424e+06 -2.91227e+06 1.42306e+06 -837012 931873
133 1 Mg -2.69492 23.8457 52.1216 1.2 -7.68381 -616303 -1.00502e+06 3.07922e+06 1.40973e+06 -2.3978e+06 2.40289e+06
134 3 O 3.04144 25.0359 50.6165 -1.2 -9.56234 -3.22758e+06 -3.59599e+06 -5.22731e+06 340379 1.70746e+06 410900
135 1 Mg -1.45676 23.7457 55.1272 1.2 -8.62159 2.65274e+06 3.03639e+06 183804 484212 734152 215639
136 2 Si -1.29508 21.695 53.1548 2.4 -34.2976 8.99508e+06 4.37256e+06 1.21705e+07 -285607 599706 1.0964e+06
137 3 O -1.4565 20.1646 53.2598 -1.2 -8.9306 -4.29155e+06 -2.31902e+06 -3.52278e+06 446971 -788288 -849562
138 3 O -1.0059 22.9811 46.3493 -1.2 -8.3352 -2.39927e+06 -90697.9 -3.05326e+06 -409093 -1.54485e+06 177945
139 3 O -2.55669 22.4634 53.8364 -1.2 -8.63098 -3.96985e+06 -3.36987e+06 -2.27164e+06 -647862 -535088 -611747
140 3 O -0.0779194 22.3763 53.8722 -1.2 -8.54001 -3.98614e+06 -3.20072e+06 -2.72044e+06 77828.1 -141072 -1.41566e+06
141 1 Mg -2.63908 30.916 57.3152 1.2 -7.46701 -257740 -1.39679e+06 4.5263e+06 -1.47219e+06 -1.74636e+06 -1.11549e+06
142 1 Mg -0.998812 30.7471 49.8618 1.2 -8.92975 2.82139e+06 1.95586e+06 1.13042e+06 -361688 19092.7 832303
143 2 Si -1.13504 28.2728 47.8868 2.4 -34.3257 9.38068e+06 7.71409e+06 8.66818e+06 -1.33377e+06 543297 -711357
144 3 O -0.934269 29.8146 47.9716 -1.2 -8.63464 -3.80083e+06 -4.28689e+06 -3.06887e+06 634354 -321899 -2.14228e+06
145 3 O -1.03105 27.2249 51.7062 -1.2 -9.72242 -1.95633e+06 -2.08674e+06 -4.94393e+06 70663.7 1.00812e+06 -1.3555e+06
146 3 O -2.42564 27.76 48.6084 -1.2 -8.55491 -3.2992e+06 -4.71254e+06 -1.02974e+06 16342.7 154409 -2.15188e+06
147 1 Mg -0.472026 26.036 46.2964 1.2 -6.27215 1.0523e+06 736073 976908 697669 560115 -238372
148 3 O 0.118867 27.4072 48.7081 -1.2 -8.11387 -1.02794e+06 -2.9788e+06 -1.33495e+06 -706933 628439 -837057
149 1 Mg 1.95341 26.112 54.5116 1.2 -8.50082 3.28458e+06 2.11853e+06 782117 240499 36296.1 1.3942e+06
150 2 Si 1.92685 28.8505 56.4956 2.4 -32.9558 1.03096e+07 4.88985e+06 1.13269e+07 362346 -1.81152e+06 -728670
151 3 O 1.94769 27.2878 56.5632 -1.2 -9.07445 -4.0991e+06 -620431 -3.27944e+06 1.07408e+06 -196212 -2.07681e+06
152 3 O 1.87597 29.9789 52.7579 -1.2 -9.46324 -2.88202e+06 -1.70537e+06 -5.0752e+06 184325 -937329 532536
153 3 O 0.675752 29.5389 55.8071 -1.2 -9.25451 -1.30489e+06 -1.96372e+06 -4.02462e+06 -184421 -384978 -62837.4
154 3 O 3.37145 29.6029 55.8225 -1.2 -8.86586 330385 -3.25285e+06 -2.38599e+06 1.77792e+06 -1.7312e+06 -374952
155 1 Mg 0.49635 28.4079 52.3139 1.2 -7.44571 -415991 -1.22595e+06 5.03975e+06 -1.81979e+06 1.52638e+06 408329
156 1 Mg 1.90255 28.2523 49.3701 1.2 -8.13291 2.28543e+06 1.91233e+06 -923543 960746 422206 1.48536e+06
157 2 Si 1.88241 30.6009 51.2906 2.4 -33.5612 8.72299e+06 4.05536e+06 1.09812e+07 -1186.63 -1.29869e+06 922062
158 3 O 1.9665 32.156 51.3545 -1.2 -9.22272 -4.65341e+06 -3.22706e+06 -4.19078e+06 296758 -851638 103049
159 3 O 1.77387 29.4215 57.9785 -1.2 -9.40048 -2.89727e+06 -2.04523e+06 -4.78597e+06 368999 -1.13374e+06 -784685
160 3 O 0.75902 29.9164 50.5143 -1.2 -8.85396 -5.44697e+06 -2.47658e+06 -3.34225e+06 -425458 -950102 354655
161 1 Mg -2.52459 28.5829 52.1207 1.2 -7.66591 -640874 -1.12265e+06 5.03384e+06 1.63011e+06 -1.72367e+06 409151
162 3 O 3.24888 29.9608 50.506 -1.2 -8.35083 -2.44916e+06 -2.85469e+06 -2.31864e+06 -1.52038e+06 -691439 -329702
163 1 Mg -1.0815 28.5731 55.0733 1.2 -8.59767 2.27969e+06 1.84779e+06 978388 280264 817916 -1.15254e+06
164 2 Si -1.14331 26.5054 53.1863 2.4 -32.7062 7.14267e+06 5.0138e+06 1.14934e+07 -712894 633412 -635968
165 3 O -1.38878 24.9976 53.2194 -1.2 -9.72876 -3.52253e+06 -3.41836e+06 -3.54801e+06 448627 -856390 -817984
166 3 O -0.817649 27.9223 46.3589 -1.2 -8.42523 -1.80254e+06 -1.21356e+06 -3.07801e+06 128587 -1.37449e+06 447189
167 3 O -2.46596 27.2439 53.7948 -1.2 -8.91854 -1.92161e+06 -3.64498e+06 -2.88951e+06 -635292 2140.75 45623.5
168 3 O 0.0729648 27.1301 54.0105 -1.2 -9.16719 -2.23528e+06 -2.92308e+06 -2.58564e+06 916626 -145618 570999
169 1 Mg -2.59484 35.5987 57.4359 1.2 -7.82011 -372526 -1.80353e+06 4.87849e+06 -1.69828e+06 -1.62963e+06 -587087
170 1 Mg -1.28871 35.65 49.9143 1.2 -8.80331 2.31857e+06 1.53919e+06 104360 -1.11832e+06 664340 -174883
171 2 Si -0.794913 33.0519 48.0436 2.4 -34.0399 9.88633e+06 5.31113e+06 1.07838e+07 -218229 1.18512e+06 -554854
172 3 O -0.703943 34.5462 48.2095 -1.2 -8.13766 -4.4274e+06 -6.50401e+06 -4.52374e+06 -983642 -1.87447e+06 -10887.5
173 3 O -1.16791 31.9287 51.7602 -1.2 -8.7541 -3.31265e+06 -2.64664e+06 -5.00557e+06 -718028 -694753 -1.58226e+06
174 3 O -1.96632 32.3754 48.8238 -1.2 -8.42009 -2.22558e+06 -5.16514e+06 -2.28183e+06 -625744 -223316 -1.13599e+06
175 1 Mg -0.0284691 30.9805 46.6955 1.2 -6.74262 1.68308e+06 -340092 1.70354e+06 1.06625e+06 1.48151e+06 -910286
176 3 O 0.646398 32.205 48.5261 -1.2 -8.32369 -1.23669e+06 -1.82934e+06 -1.55808e+06 -638466 456694 450772
177 1 Mg 1.77873 31.1032 54.4874 1.2 -8.12364 1.76552e+06 1.47322e+06 1.02416e+06 981915 -506669 376271
178 2 Si 1.85626 33.6574 56.4034 2.4 -33.2252 7.56595e+06 3.14751e+06 1.07538e+07 -899829 -1.15398e+06 928522
179 3 O 1.94826 32.1434 56.49 -1.2 -9.63004 -4.2591e+06 -3.07901e+06 -4.58745e+06 -636146 1.60059e+06 -1.65437e+06
180 3 O 1.955 34.698 52.6309 -1.2 -9.26355 -2.78243e+06 -1.642e+06 -4.1442e+06 949227 -778763 -2.91646e+06
181 3 O 0.553678 34.3775 55.8229 -1.2 -9.37704 -2.4433e+06 -2.32002e+06 -4.09066e+06 -694542 -1.23637e+06 -426199
182 3 O 3.15621 34.2775 55.7647 -1.2 -8.91891 -1.50951e+06 -4.70845e+06 -4.55345e+06 145408 1.77777e+06 -484047
183 1 Mg 0.298263 33.2099 52.3201 1.2 -7.96361 435851 -2.23992e+06 4.09461e+06 -1.0016e+06 1.51108e+06 1.04709e+06
184 1 Mg 2.19918 32.9939 49.3129 1.2 -8.29651 2.02869e+06 868244 -162689 -566525 -691294 -520554
185 2 Si 1.78529 35.3046 51.1028 2.4 -33.1045 9.38718e+06 6.14109e+06 1.16927e+07 1.59042e+06 80799.4 -500018
186 3 O 1.66832 36.8795 50.9246 -1.2 -9.72585 -3.76474e+06 -1.25023e+06 -3.11855e+06 -569299 1.20865e+06 159566
187 3 O 1.91146 34.245 57.9162 -1.2 -8.91615 -2.69516e+06 -2.59003e+06 -5.58343e+06 -471524 995681 150224
188 3 O 0.410137 34.5093 50.6586 -1.2 -8.19642 -2.30778e+06 -1.42546e+06 -5.27854e+06 1.43276e+06 -1.23834e+06 92318.7
189 1 Mg -2.58901 33.3866 51.9707 1.2 -8.00629 -367290 -2.1138e+06 4.10012e+06 836194 -1.92614e+06 661060
190 3 O 2.97027 34.5752 50.3142 -1.2 -9.02787 -4.11767e+06 -3.9396e+06 -3.86444e+06 -1.19869e+06 1.20708e+06 1.11062e+06
191 1 Mg -1.07322 33.2068 55.1628 1.2 -8.42593 2.40545e+06 1.03729e+06 -283551 117816 183379 -310719
192 2 Si -1.16555 31.2577 53.2762 2.4 -33.2627 6.99065e+06 6.90978e+06 1.26635e+07 -1.33868e+06 -519376 -361525
193 3 O -1.1127 29.6634 53.127 -1.2 -9.51945 -2.49098e+06 -429412 -4.50692e+06 -748301 99193.1 1.15874e+06
194 3 O -0.646724 32.7973 46.3825 -1.2 -8.38599 -2.43031e+06 871425 -1.3755e+06 134884 -1.70064e+06 41037
195 3 O -2.39886 31.9663 54.0022 -1.2 -8.69456 -1.8526e+06 -3.33469e+06 -4.77054e+06 -1.42915e+06 156454 698128
196 3 O 0.120262 31.9542 53.9135 -1.2 -9.43806 -4.65836e+06 -3.21885e+06 -4.6473e+06 2.35418e+06 -515911 959576
197 1 Mg -2.56237 40.3221 57.2541 1.2 -7.72675 -1.02473e+06 -2.84889e+06 4.14944e+06 -2.30823e+06 -1.21146e+06 226928
198 1 Mg -1.21485 40.2526 49.6186 1.2 -8.49699 1.599e+06 2.64219e+06 2.02779e+06 731302 394486 653865
199 2 Si -1.35024 37.5415 47.758 2.4 -34.7301 8.25481e+06 9.31785e+06 8.45161e+06 -1.93099e+06 2.30781e+06 1.4067e+06
200 3 O -1.40539 39.1323 47.6598 -1.2 -8.59038 -1.87243e+06 -3.9868e+06 -2.07373e+06 672612 -394308 877977
201 3 O -1.33293 36.4751 51.6521 -1.2 -9.15936 -1.5414e+06 -2.61957e+06 -4.41408e+06 889581 -1915.36 -2.80998e+06
202 3 O -2.38265 37.0069 48.7162 -1.2 -8.29114 -1.92919e+06 -5.50195e+06 -5.23142e+06 -915116 2.00043e+06 -841752
203 1 Mg -0.258031 35.3478 46.3594 1.2 -7.17496 1.80967e+06 208829 2.15184e+06 976867 1.16302e+06 232803
204 3 O 0.208723 37.0479 48.0868 -1.2 -8.17231 -2.11789e+06 -2.93879e+06 -1.69937e+06 -968620 -1.20171e+06 572911
205 1 Mg 1.88747 35.5967 54.469 1.2 -8.28811 2.44114e+06 884189 1.30905e+06 -628004 423156 1.26024e+06
206 2 Si 1.88223 38.2665 56.3312 2.4 -33.2454 7.46486e+06 3.38794e+06 1.26997e+07 436316 240563 1.18266e+06
207 3 O 1.91769 36.7786 56.3697 -1.2 -9.39608 -4.54862e+06 -4.33348e+06 -5.05856e+06 597187 175362 -537218
208 3 O 1.78903 39.4305 52.4645 -1.2 -9.12917 -3.30857e+06 -1.57892e+06 -5.09715e+06 -734223 564017 -1.33274e+06
209 3 O 0.565711 38.8257 55.6309 -1.2 -9.12881 -1.91337e+06 -3.68497e+06 -3.14102e+06 -702131 -70791.1 -646271
210 3 O 3.13755 39.0768 55.6277 -1.2 -9.14289 -1.85641e+06 -2.84245e+06 -4.73964e+06 1.34862e+06 539369 -1.37953e+06
211 1 Mg 0.271674 37.933 52.0961 1.2 -7.69247 -370532 -1.37238e+06 4.50642e+06 -377077 2.05606e+06 906421
212 1 Mg 1.70951 37.7852 49.0858 1.2 -7.99478 3.28482e+06 1.07473e+06 -14807.3 243840 -346197 557690
213 2 Si 1.65255 39.9275 50.925 2.4 -33.041 8.73577e+06 5.56869e+06 9.26388e+06 -90765.6 194050 -521679
214 3 O 1.63312 41.5213 50.8078 -1.2 -9.51451 -3.96543e+06 -1.5673e+06 -3.89324e+06 666723 -355678 1.51385e+06
215 3 O 2.00922 38.9479 57.8399 -1.2 -9.04211 -2.74555e+06 -3.69247e+06 -4.8811e+06 -648164 961211 1.63137e+06
216 3 O 0.310819 39.2439 50.4178 -1.2 -9.24046 -3.24212e+06 -3.88447e+06 -2.92584e+06 1.02806e+06 -512184 177444
217 1 Mg -2.68839 37.9501 51.9938 1.2 -7.61018 -226649 -652369 5.57413e+06 621334 -1.21443e+06 541237
218 3 O 2.91929 39.2818 50.2731 -1.2 -8.92881 -1.45146e+06 -4.01928e+06 -4.13778e+06 -15607.9 2.38969e+06 -648482
219 1 Mg -1.22949 37.9887 55.1371 1.2 -8.2587 1.78085e+06 647683 750661 409061 215045 -517646
220 2 Si -1.17576 35.8504 53.2738 2.4 -32.8696 8.31542e+06 5.92902e+06 1.24886e+07 61270 -18383.7 258464
221 3 O -1.15222 34.3012 53.2199 -1.2 -9.515 -3.71108e+06 -2.86952e+06 -4.74434e+06 -656835 1.19853e+06 330779
222 3 O -1.48327 36.7684 46.2931 -1.2 -7.56965 -3.35678e+06 -583747 -3.17577e+06 153729 -1.58749e+06 2.34358e+06
223 3 O -2.39715 36.6487 53.9746 -1.2 -9.13856 -1.57967e+06 -1.74439e+06 -4.56436e+06 -1.42695e+06 416857 234450
224 3 O 0.199884 36.5698 53.7317 -1.2 -9.15089 -1.63428e+06 -2.23267e+06 -3.49725e+06 1.59979e+06 -573555 -698147
225 1 Mg -2.71066 44.9518 57.0915 1.2 -7.51509 40940.9 56376 3.68726e+06 -557933 -1.4356e+06 -457026
226 1 Mg -0.881252 44.859 49.325 1.2 -8.28318 718788 2.86832e+06 2.04337e+06 138949 -350369 264713
227 2 Si -1.10272 42.2433 47.4641 2.4 -33.7537 8.84506e+06 8.18342e+06 9.50591e+06 1.96322e+06 1.85063e+06 173070
228 3 O -0.789912 43.821 47.3845 -1.2 -9.00024 -2.60679e+06 -2.51205e+06 -1.65956e+06 864823 -1.66695e+06 346483
229 3 O -1.18236 41.3807 51.4652 -1.2 -8.8977 -2.3014e+06 -2.07007e+06 -3.33198e+06 456275 1.01429e+06 -1.00891e+06
230 3 O -2.20861 41.7756 48.4961 -1.2 -8.70627 -1.35142e+06 -4.50121e+06 -2.63527e+06 -357749 -454186 -2.74469e+06
231 1 Mg -0.0833994 40.0549 46.5306 1.2 -6.77444 2.2326e+06 -1.23922e+06 1.16921e+06 1.30594e+06 1.19678e+06 -455946
232 3 O 0.365986 41.4789 48.0325 -1.2 -8.54679 -713047 -847661 -1.68383e+06 -866774 -39987.6 42581
233 1 Mg 1.85413 40.3543 54.3664 1.2 -8.11776 1.79238e+06 406479 2.2727e+06 53812.1 -38047.6 679969
234 2 Si 1.76462 42.9129 56.1957 2.4 -31.6899 6.2592e+06 7.18209e+06 1.19884e+07 -1.42955e+06 150654 -200132
235 3 O 1.70997 41.342 56.3745 -1.2 -9.83463 -3.09238e+06 -1.98235e+06 -4.94446e+06 -53980.3 575078 -713771
236 3 O 2.02749 43.9261 52.1975 -1.2 -9.86429 -2.7782e+06 -3.35364e+06 -2.53047e+06 1.20544e+06 1.72189e+06 -1.73736e+06
237 3 O 0.405258 43.6061 55.5553 -1.2 -9.54119 550592 -3.17921e+06 -3.75077e+06 -1.5512e+06 426448 -454144
238 3 O 3.04595 43.4558 55.4525 -1.2 -10.225 -950864 -2.73175e+06 -2.07668e+06 573514 121630 -798000
239 1 Mg 0.433872 42.622 52.1496 1.2 -7.20968 -963251 -1.49833e+06 3.93538e+06 -152024 1.90748e+06 318305
240 1 Mg 1.97075 42.3145 49.0702 1.2 -8.0548 3.28359e+06 520793 -1.15454e+06 -435183 639862 417599
241 2 Si 2.07677 44.6393 50.6325 2.4 -32.33 6.97655e+06 5.90082e+06 1.00806e+07 785900 1.77183e+06 229459
242 3 O 2.19683 46.2192 50.8963 -1.2 -10.0893 -2.49985e+06 -1.65576e+06 -2.94221e+06 1.64956e+06 -859090 318921
243 3 O 1.74312 43.6602 57.7209 -1.2 -9.57847 -2.47707e+06 -3.47257e+06 -1.68637e+06 472069 -618093 2.04858e+06
244 3 O 0.905181 44.0587 49.7204 -1.2 -9.16091 -2.51809e+06 -2.59084e+06 -1.74159e+06 297981 -418113 1.69685e+06
245 1 Mg -2.56919 42.7366 51.926 1.2 -7.38453 -2.30861e+06 -1.84848e+06 3.68819e+06 3.33883e+06 -1.49212e+06 772442
246 3 O 3.38318 44.0421 50.1416 -1.2 -9.03233 -4.04005e+06 -4.08092e+06 -4.06845e+06 534208 555255 -1.7506e+06
247 1 Mg -1.20142 42.6172 54.9059 1.2 -7.55836 522434 1.88498e+06 1.14e+06 211438 277673 -551763
248 2 Si -1.18479 40.556 53.006 2.4 -32.7225 7.65695e+06 2.92186e+06 1.25844e+07 -489384 796722 -2.11716e+06
249 3 O -1.17103 39.0593 52.8789 -1.2 -9.65307 -3.76662e+06 -3.89599e+06 -5.07213e+06 325599 359129 68920.6
250 3 O -1.12158 41.5985 46.0257 -1.2 -8.15969 -2.48987e+06 -1.74615e+06 -3.46893e+06 -1.25082e+06 -1.73591e+06 1.23043e+06
251 3 O -2.501 41.2266 53.5657 -1.2 -9.37912 -2.03038e+06 -2.82467e+06 -4.72478e+06 -1.27119e+06 785190 -322214
252 3 O 0.0815384 41.1908 53.7305 -1.2 -9.67041 -1.61287e+06 -2.83377e+06 -3.63275e+06 1.33824e+06 -181397 -87115.7
253 1 Mg -2.51468 49.7221 57.2893 1.2 -7.8373 -1.01153e+06 -937835 4.82933e+06 -1.25899e+06 -1.22719e+06 -1.14453e+06
254 1 Mg -0.630572 49.7543 49.4789 1.2 -8.32995 1.53562e+06 1.81132e+06 2.41441e+06 166693 -592382 1.12297e+06
255 2 Si -0.456846 47.1732 47.356 2.4 -34.5062 1.03314e+07 8.15224e+06 9.39091e+06 -935792 1.56266e+06 -114643
256 3 O -0.321452 48.7548 47.1932 -1.2 -8.48894 -1.93527e+06 -3.11255e+06 -1.09848e+06 1.38851e+06 -1.95375e+06 -1.22125e+06
257 3 O -0.864794 45.9041 51.4351 -1.2 -9.40548 -1.07749e+06 -3.10282e+06 -4.19439e+06 -417467 249503 -930816
258 3 O -1.53257 46.6763 48.3923 -1.2 -9.08061 -1.66737e+06 -2.46057e+06 -2.12317e+06 -300683 -448463 -1.65518e+06
259 1 Mg 0.0799112 44.7562 45.9767 1.2 -6.68714 1.36267e+06 357942 349475 466347 1.27953e+06 -290652
260 3 O 1.05525 46.5256 47.7928 -1.2 -7.98049 687325 -1.37223e+06 -1.7151e+06 243476 779633 608660
261 1 Mg 2.1389 45.0948 54.0889 1.2 -7.39419 -204078 1.55752e+06 2.36432e+06 485754 -749324 1.42929e+06
262 2 Si 1.80631 47.7228 56.204 2.4 -33.3027 1.07839e+07 5.23964e+06 8.98322e+06 48820.1 1.02758e+06 -1.56199e+06
263 3 O 1.80457 46.1302 56.244 -1.2 -9.47957 -3.4151e+06 -611843 -4.13753e+06 -1.16594e+06 -1.26585e+06 -639601
264 3 O 2.0809 48.609 52.356 -1.2 -10.0029 -1.98424e+06 -2.41075e+06 -5.05467e+06 -281909 -639820 -773776
265 3 O 0.409678 48.3373 55.6591 -1.2 -9.13127 -1.88515e+06 -3.28699e+06 -2.49621e+06 -1.57134e+06 -232230 670450
266 3 O 3.14433 48.3136 55.4155 -1.2 -9.1303 -460791 -3.05507e+06 -3.39568e+06 1.576e+06 144114 377281
267 1 Mg 0.69234 47.2715 51.9586 1.2 -7.22539 -1.31532e+06 -2.17139e+06 5.1972e+06 -1.39765e+06 1.30848e+06 437937
268 1 Mg 2.61474 47.2244 48.9343 1.2 -7.7694 3.2682e+06 1.58266e+06 641500 314235 531456 759419
269 2 Si 2.22218 49.3435 50.934 2.4 -32.4936 7.03056e+06 4.98604e+06 1.11094e+07 965857 330841 796045
270 3 O 2.3548 50.9419 51.1012 -1.2 -9.74431 -3.96953e+06 -961941 -4.62319e+06 1.02469e+06 -139907 -1.00427e+06
271 3 O 1.98712 48.2692 57.6347 -1.2 -9.13375 -3.2069e+06 -2.6588e+06 -5.84029e+06 844707 -731594 213911