ITEM: TIMESTEP
1400
ITEM: NUMBER OF ATOMS
10500
ITEM: BOX BOUNDS xy xz yz pp pp pp
0.0000000000000000e+00 8.9687999999999999e+00 2.9895999999999998e+00
0.0000000000000000e+00 1.1872499999999999e+02 0.0000000000000000e+00
0.0000000000000000e+00 2.5297700000000000e+02 0.0000000000000000e+00
ITEM: ATOMS id type element xu yu zu q c_pe c_s[1] c_s[2] c_s[3] c_s[4] c_s[5] c_s[6]
1 1 Mg -3.52283 6.91543 57.3568 1.2 -7.34361 -424940 -1.93968e+06 4.4034e+06 -695338 -1.70861e+06 -562409
2 1 Mg -1.7098 6.48689 49.4986 1.2 -8.03259 506983 862763 1.35163e+06 -409151 -985319 1.33526e+06
3 2 Si -0.111514 3.91313 48.1053 2.4 -35.2582 1.0423e+07 1.01707e+07 8.84695e+06 1.57584e+06 2.48422e+06 1.80392e+06
4 3 O -0.165497 5.35712 47.3731 -1.2 -8.22499 -2.90932e+06 -2.66332e+06 -934413 -295136 -1.31338e+06 -445132
5 3 O -1.93706 3.41846 51.7292 -1.2 -8.70045 -2.3779e+06 -716272 -5.55274e+06 -660941 170165 -1.77986e+06
6 3 O -1.42327 3.70682 48.9532 -1.2 -8.50701 -1.48063e+06 -1.70622e+06 -5.47786e+06 -188056 -511967 -467300
7 1 Mg 1.98493 2.50522 47.0263 1.2 -7.3253 2.31242e+06 -291238 228406 1.03315e+06 702447 1.48525e+06
8 3 O 1.46314 3.72658 48.7005 -1.2 -8.05896 -1.336e+06 -3.36684e+06 -3.60277e+06 -1.09954e+06 -1.30183e+06 -1.1623e+06
9 1 Mg 0.85548 2.33397 54.4577 1.2 -7.71418 1.99798e+06 318690 1.8468e+06 215887 49013.5 89635
10 2 Si 0.890178 4.94375 56.2893 2.4 -31.8361 6.70914e+06 5.56418e+06 1.1399e+07 -1.14741e+06 -1.25467e+06 -368099
11 3 O 0.955221 3.38729 56.4199 -1.2 -10.3637 -2.66221e+06 -1.43264e+06 -3.44772e+06 504773 -5823.22 -1.51546e+06
12 3 O 1.18074 6.18658 52.5967 -1.2 -9.42558 -2.56204e+06 -3.6647e+06 -2.83249e+06 835332 429378 -1.38876e+06
13 3 O -0.430296 5.7127 55.7304 -1.2 -9.55541 -1.59867e+06 -747865 -7.29272e+06 -1.58432e+06 -1.596e+06 -907137
14 3 O 2.16625 5.68692 55.5595 -1.2 -9.75887 -596994 -915900 -4.00727e+06 1.02623e+06 1.13014e+06 -137687
15 1 Mg -0.482569 4.82929 52.1745 1.2 -7.64134 137976 -206519 4.52167e+06 -816827 596600 1.11957e+06
16 1 Mg 2.87909 4.02453 50.0161 1.2 -8.41645 2.59723e+06 -652520 1.0281e+06 -749154 802412 -893651
17 2 Si 1.15817 6.56667 50.9434 2.4 -33.6069 7.28117e+06 7.84913e+06 1.1027e+07 441040 860229 2.60918e+06
18 3 O 1.35398 8.19195 50.9599 -1.2 -9.2008 -2.40506e+06 -491094 -4.12337e+06 1.69715e+06 -857168 1.06134e+06
19 3 O 0.918994 5.64698 57.729 -1.2 -9.49767 -3.05511e+06 -1.62556e+06 -5.84536e+06 -221167 211180 1.20285e+06
20 3 O -0.12427 5.944 50.3848 -1.2 -9.12327 -4.67376e+06 -4.00666e+06 -2.996e+06 1.27432e+06 -668310 -785784
21 1 Mg -3.62676 4.68665 52.762 1.2 -7.19463 -987658 -3.69197e+06 1.31951e+06 2.66091e+06 -1.38519e+06 2.85002e+06
22 3 O 2.51882 5.96782 50.3687 -1.2 -8.89736 -2.04461e+06 -4.13476e+06 -3.31607e+06 -1.74417e+06 -1.10196e+06 -1.32745e+06
23 1 Mg -1.98267 4.65891 55.1078 1.2 -7.63375 43020.8 2.04984e+06 1.70404e+06 -272346 -858506 -1.17672e+06
24 2 Si -2.04494 2.60402 53.2147 2.4 -32.8211 5.18948e+06 5.15337e+06 1.28901e+07 1.35934e+06 -595283 -3.26743e+06
25 3 O -2.03235 1.06164 53.2357 -1.2 -9.62631 -2.19944e+06 -2.52909e+06 -3.49905e+06 331482 -684822 198739
26 3 O 0.0464824 2.75528 47.0074 -1.2 -7.6166 -3.08129e+06 -2.53889e+06 -2.08673e+06 -1.70612e+06 -2.22491e+06 -1.51447e+06
27 3 O -3.32915 3.26935 53.828 -1.2 -9.62601 -3.03041e+06 -5.1434e+06 -7.03655e+06 -337087 -156812 2.447e+06
28 3 O -0.816663 3.3128 53.9045 -1.2 -9.53025 -2.1826e+06 -2.7854e+06 -5.72229e+06 1.07286e+06 -769746 888156
29 1 Mg -3.47327 11.8977 57.314 1.2 -7.44925 787636 -1.30877e+06 5.19929e+06 -943258 -1.15896e+06 -676367
30 1 Mg -1.68881 11.5775 49.6243 1.2 -8.17509 -237238 2.0491e+06 2.37626e+06 -190912 101404 736108
31 2 Si -0.938421 8.80415 47.6627 2.4 -34.8 8.90813e+06 5.88733e+06 9.57239e+06 -317214 2.15831e+06 -17616.7
32 3 O -1.09 10.3442 47.9408 -1.2 -8.58357 -2.35678e+06 -3.99533e+06 -2.89785e+06 1.36033e+06 -2.32541e+06 1.97094e+06
33 3 O -1.78524 8.05112 51.6937 -1.2 -9.03967 -2.79073e+06 -804994 -6.12534e+06 -555867 -444931 -1.5353e+06
34 3 O -2.12125 8.09251 48.4588 -1.2 -8.76358 -1.04495e+06 -2.77182e+06 -3.73861e+06 -1.71296e+06 -464907 512464
35 1 Mg 0.211281 6.67161 46.0908 1.2 -6.90077 1.68011e+06 984850 -16474.7 200417 1.23529e+06 -1.04497e+06
36 3 O 0.55057 8.50967 48.146 -1.2 -8.23916 -3.11251e+06 -2.25387e+06 -3.14549e+06 2.0211e+06 -971473 443429
37 1 Mg 1.22797 7.24471 54.4179 1.2 -7.8496 1.57641e+06 396296 2.61359e+06 -155201 227234 483482
38 2 Si 0.957434 9.7973 56.321 2.4 -32.751 8.04504e+06 4.63425e+06 1.19253e+07 -1.34246e+06 -367734 225708
39 3 O 1.01227 8.22239 56.4431 -1.2 -10.059 -3.35348e+06 -823973 -3.88919e+06 -652743 183825 17455.2
40 3 O 1.32478 10.6165 52.6287 -1.2 -9.57345 -3.07461e+06 -29783.8 -4.51707e+06 804943 -394637 -671678
41 3 O -0.422014 10.4484 55.8328 -1.2 -8.95951 -1.89027e+06 -1.99533e+06 -6.19802e+06 -2.07456e+06 -788521 -173312
42 3 O 2.17891 10.5017 55.5963 -1.2 -9.52508 -2.06797e+06 -1.70414e+06 -3.84968e+06 1.30739e+06 797235 -498754
43 1 Mg -0.135003 9.30909 51.9748 1.2 -7.65718 -524502 -985663 5.41675e+06 -1.81005e+06 1.22561e+06 1.28458e+06
44 1 Mg 2.11586 8.91824 49.181 1.2 -7.89456 1.77463e+06 871343 1.10747e+06 -132173 -366156 197103
45 2 Si 1.27482 11.4316 51.132 2.4 -32.2352 7.55998e+06 3.42675e+06 1.1061e+07 18472.5 -140550 -881718
46 3 O 1.40153 12.9417 51.1821 -1.2 -10.2301 -4.17518e+06 -3.12237e+06 -3.8125e+06 -793161 -434200 -806231
47 3 O 0.985742 10.5086 57.8196 -1.2 -9.25826 -2.76222e+06 -716201 -5.86001e+06 868659 -1.19508e+06 1.09169e+06
48 3 O -0.149908 10.9437 50.6272 -1.2 -8.99282 -2.25059e+06 -2.90984e+06 -5.84448e+06 1.44284e+06 -483205 -499053
49 1 Mg -3.0512 9.53789 52.056 1.2 -7.39052 -558136 -1.68492e+06 4.01737e+06 2.58394e+06 -1.56924e+06 1.33151e+06
50 3 O 2.49241 10.7434 50.3681 -1.2 -9.79615 -2.38948e+06 -2.20445e+06 -1.90867e+06 -1.18448e+06 556831 786923
51 1 Mg -1.95997 9.65324 54.8375 1.2 -8.10388 2.11154e+06 -503971 1.75876e+06 -44326.6 -644171 -675554
52 2 Si -1.80605 7.46599 53.1975 2.4 -32.9922 6.3093e+06 4.117e+06 1.2537e+07 1.653e+06 1.17288e+06 481163
53 3 O -1.9598 5.86042 53.2522 -1.2 -9.65362 -1.84142e+06 -687972 -5.08317e+06 1.49114e+06 -823284 -393749
54 3 O -0.929129 8.26267 46.1513 -1.2 -7.87133 -2.96441e+06 -532419 -2.55341e+06 -894484 -1.4044e+06 2.45152e+06
55 3 O -2.99874 8.18862 53.8691 -1.2 -9.36206 -3.85121e+06 -2.82957e+06 -5.28016e+06 92444.8 538240 -1.17632e+06
56 3 O -0.504625 8.14077 53.8071 -1.2 -9.27872 -2.80958e+06 -2.04864e+06 -4.17481e+06 845104 -484103 -220669
57 1 Mg -3.21449 16.5388 57.5264 1.2 -7.1488 -1.03425e+06 -1.17552e+06 4.52688e+06 -482522 -1.56033e+06 -596233
58 1 Mg -1.70697 16.3856 49.7854 1.2 -7.93026 -401800 1.7863e+06 2.80686e+06 42321 -453679 896307
59 2 Si -1.05851 13.7209 47.627 2.4 -33.763 7.19513e+06 8.713e+06 1.15756e+07 2.01617e+06 1.13785e+06 -148658
60 3 O -0.818117 15.3226 47.5722 -1.2 -8.62096 -1.07433e+06 -1.84693e+06 -2.47695e+06 1.45585e+06 -1.47207e+06 224975
61 3 O -1.84332 12.8408 51.5725 -1.2 -9.36182 -2.74516e+06 -2.39326e+06 -6.35598e+06 1.36612e+06 -385033 -748643
62 3 O -2.31886 13.2479 48.5365 -1.2 -9.21638 172716 -1.44021e+06 -2.93032e+06 23137.8 -1.02234e+06 -1.07741e+06
63 1 Mg 0.194453 11.5554 46.9889 1.2 -6.86192 1.48954e+06 -734538 2.00338e+06 1.48219e+06 1.09137e+06 -1.5762e+06
64 3 O 0.316174 13.115 48.3652 -1.2 -9.03573 -758241 -1.54738e+06 -3.50634e+06 -341019 -120100 1.2176e+06
65 1 Mg 1.3754 11.8907 54.2831 1.2 -7.75281 1.93168e+06 1.42173e+06 1.51873e+06 -414158 406958 1.1202e+06
66 2 Si 1.09878 14.6347 56.3063 2.4 -32.1048 7.15599e+06 6.84772e+06 1.10419e+07 283807 -689529 238020
67 3 O 0.966403 13.0078 56.3034 -1.2 -9.50871 -2.30711e+06 790044 -2.8787e+06 56822.6 -3206.84 491782
68 3 O 1.23963 15.4368 52.6371 -1.2 -9.89818 -2.28923e+06 -1.08574e+06 -4.14149e+06 -524875 -54803.9 -113708
69 3 O -0.225296 15.3263 55.8052 -1.2 -9.52589 -1.01716e+06 -2.60745e+06 -4.15786e+06 11462.8 -271136 836178
70 3 O 2.36415 15.1726 55.552 -1.2 -9.73144 -1.46321e+06 -3.35777e+06 -2.85351e+06 609521 211699 730556
71 1 Mg -0.375566 14.2493 51.8759 1.2 -7.03137 -1.29745e+06 -2.10292e+06 4.49934e+06 -2.04991e+06 1.9542e+06 1.49965e+06
72 1 Mg 1.90902 13.8364 49.2872 1.2 -7.40873 1.93103e+06 823233 725409 152302 5987.16 -121206
73 2 Si 1.18385 16.207 51.198 2.4 -31.6802 6.40679e+06 4.84373e+06 1.20674e+07 -1.17297e+06 295840 -367056
74 3 O 1.45854 17.7764 51.3118 -1.2 -10.0602 -3.13455e+06 -842516 -4.90699e+06 642984 -266954 962037
75 3 O 1.18691 15.3479 57.8589 -1.2 -9.76575 -2.9613e+06 -1.8635e+06 -3.48247e+06 491537 -377120 2.42621e+06
76 3 O -0.0595664 15.6277 50.5434 -1.2 -9.80203 -3.33154e+06 -3.3694e+06 -6.55265e+06 821994 -601443 938961
77 1 Mg -3.28738 14.0542 52.209 1.2 -7.0093 -1.75881e+06 -1.42927e+06 4.09079e+06 1.64364e+06 -1.71338e+06 633271
78 3 O 2.54756 15.5894 50.3561 -1.2 -9.62564 -47379.7 -1.06118e+06 -1.5999e+06 -864607 -555130 614277
79 1 Mg -1.83774 14.201 55.0347 1.2 -7.92853 1.62977e+06 1.75663e+06 1.38763e+06 -274290 -209841 -1.41238e+06
80 2 Si -1.64873 12.2204 53.0719 2.4 -32.7119 658119 3.23191e+06 1.22466e+07 -399673 364191 -710879
81 3 O -1.66769 10.6466 53.1095 -1.2 -9.50374 -3.19923e+06 -3.09529e+06 -5.59407e+06 -49248.5 158614 185497
82 3 O -0.952284 12.9259 46.2402 -1.2 -7.81973 -2.24773e+06 -1.41414e+06 -2.78281e+06 -1.5339e+06 -1.27524e+06 1.68264e+06
83 3 O -2.78655 12.7984 53.8636 -1.2 -9.69087 -5.5475e+06 -3.81891e+06 -5.62695e+06 1.02521e+06 2.4145e+06 -299324
84 3 O -0.406516 12.8366 53.6163 -1.2 -9.28458 -5.32648e+06 -3.28599e+06 -4.58306e+06 -1.76049e+06 -1.38928e+06 -243320
85 1 Mg -2.88571 21.3905 57.512 1.2 -7.35428 -1.39106e+06 -1.68337e+06 5.12733e+06 -1.22669e+06 -1.32115e+06 -1.48662e+06
86 1 Mg -1.50606 21.247 49.7759 1.2 -8.12915 1.70441e+06 3.08112e+06 1.848e+06 -97767.3 891836 1.09444e+06
87 2 Si -1.01841 18.5921 47.8196 2.4 -34.1437 7.67535e+06 5.39604e+06 1.13503e+07 329943 1.05497e+06 238992
88 3 O -0.979935 20.1388 47.9381 -1.2 -9.01689 -3.1761e+06 -4.28947e+06 -4.7974e+06 -152039 -743293 -393646
89 3 O -1.56909 17.7067 51.6174 -1.2 -9.37532 -1.53899e+06 -1.99957e+06 -2.51092e+06 241496 27233 -200805
90 3 O -2.34298 17.9639 48.4974 -1.2 -8.82704 413478 -1.79611e+06 -2.06322e+06 -222096 -1.08672e+06 -1.45261e+06
91 1 Mg 0.366706 16.6856 46.8881 1.2 -7.15593 953231 -1.28069e+06 1.22004e+06 1.70822e+06 1.20283e+06 -1.08107e+06
92 3 O 0.291486 17.8627 48.5228 -1.2 -8.81522 -1.18733e+06 -2.0498e+06 -5.03305e+06 -674018 -336375 171067
93 1 Mg 1.34876 16.6164 54.4466 1.2 -7.74562 1.41259e+06 1.24287e+06 1.02799e+06 297100 -410911 1.21471e+06
94 2 Si 1.44947 19.311 56.4396 2.4 -32.1008 5.43433e+06 4.714e+06 1.15703e+07 -603095 1.51071e+06 995366
95 3 O 1.3714 17.76 56.4202 -1.2 -10.1231 -3.48496e+06 -2.33943e+06 -3.43806e+06 -264080 318914 1.05524e+06
96 3 O 1.34936 20.2718 52.7302 -1.2 -9.68303 -3.38399e+06 -3.11565e+06 -6.16252e+06 -118244 52446.6 350037
97 3 O 0.0303893 19.949 56.0122 -1.2 -9.52725 -1.39783e+06 -2.95511e+06 -4.08982e+06 -979277 290276 173653
98 3 O 2.59997 19.9433 55.6592 -1.2 -9.84022 -2.80859e+06 -3.74586e+06 -4.72348e+06 563417 1.35929e+06 2372.82
99 1 Mg -0.0865125 19.0277 52.3239 1.2 -7.32252 -1.92273e+06 -2.35641e+06 4.58744e+06 -2.24163e+06 1.91946e+06 -36538.2
100 1 Mg 1.89898 18.5141 49.5684 1.2 -7.53433 3.42707e+06 -125764 146353 -211547 5052.41 1.44285e+06
101 2 Si 1.54641 20.9084 51.3033 2.4 -33.0447 7.67801e+06 4.76393e+06 8.45668e+06 26052 365290 707959
102 3 O 1.8133 22.4421 51.3064 -1.2 -9.33519 -4.28125e+06 -1.91763e+06 -3.11052e+06 -287279 -526977 325335
103 3 O 1.61492 20.0345 57.9679 -1.2 -9.60108 -2.37759e+06 -402543 -4.38709e+06 590884 -1.11891e+06 1.49645e+06
104 3 O 0.250003 20.5094 50.5245 -1.2 -8.88246 -2.36459e+06 -2.8038e+06 -3.81183e+06 -384854 -941012 -667083
105 1 Mg -3.0325 18.9646 52.3708 1.2 -7.33504 -902490 -1.69933e+06 3.7833e+06 2.55809e+06 -2.35805e+06 1.21288e+06
106 3 O 2.81382 20.1481 50.678 -1.2 -9.34212 -2.64873e+06 -3.06175e+06 -2.53326e+06 1.00379e+06 166130 -6395.46
107 1 Mg -1.64671 19.0496 55.3327 1.2 -7.52332 413191 1.64602e+06 1.40478e+06 565999 376801 -853043
108 2 Si -1.56848 16.9552 53.1552 2.4 -31.8544 5.71507e+06 4.83188e+06 1.38477e+07 733434 417729 -1.96269e+06
109 3 O -1.7072 15.4105 53.0084 -1.2 -9.99579 -2.19603e+06 -874413 -4.34466e+06 1.34268e+06 154117 743233
110 3 O -0.666239 18.1966 46.332 -1.2 -7.6513 -2.32855e+06 -2.89923e+06 -4.59054e+06 -187346 -1.77837e+06 729215
111 3 O -2.87628 17.5774 53.8582 -1.2 -9.7433 40821.7 -2.64337e+06 -4.16235e+06 128562 196700 979974
112 3 O -0.265732 17.5779 53.837 -1.2 -9.93143 -1.14559e+06 -2.18832e+06 -3.62072e+06 511409 -203194 1.47911e+06
113 1 Mg -2.91732 26.0177 57.4837 1.2 -7.35252 -1.19039e+06 -969701 4.9697e+06 -1.29621e+06 -1.77575e+06 -715031
114 1 Mg -1.10011 26.0739 49.7859 1.2 -8.73706 2.76245e+06 2.5214e+06 2.07793e+06 510747 26788.3 1.02441e+06
115 2 Si -1.08873 23.3761 47.7534 2.4 -33.9699 1.09804e+07 2.84566e+06 1.08172e+07 1.36428e+06 1.28762e+06 1.78628e+06
116 3 O -1.20048 24.9558 47.898 -1.2 -8.45214 -4.52565e+06 -3.0234e+06 -3.61847e+06 1.23978e+06 163952 -115918
117 3 O -1.39209 22.5308 51.7519 -1.2 -8.96529 -4.71211e+06 -2.96417e+06 -5.23733e+06 494384 511387 -424829
118 3 O -2.35397 22.7107 48.508 -1.2 -8.85393 440164 -3.45791e+06 -1.84625e+06 -572891 -1.11786e+06 -1.97956e+06
119 1 Mg 0.0736842 21.317 47.0595 1.2 -6.52617 545040 -1.13256e+06 1.70604e+06 478391 2.41287e+06 624206
120 3 O 0.368499 22.9497 48.4722 -1.2 -8.72559 -1.19481e+06 -1.15822e+06 -3.8342e+06 662571 96475 410552
121 1 Mg 1.7055 21.5009 54.5432 1.2 -7.74568 1.10908e+06 964905 1.90093e+06 25976 509699 -116316
122 2 Si 1.59603 23.9909 56.3662 2.4 -32.1611 7.71704e+06 2.67412e+06 1.26173e+07 -32207.2 28339.1 -929384
123 3 O 1.58283 22.451 56.4011 -1.2 -10.0596 -2.62955e+06 -2.26734e+06 -3.73286e+06 -242235 -12794.3 194344
124 3 O 1.65599 25.1427 52.7946 -1.2 -9.14404 -3.65636e+06 -1.44709e+06 -2.83745e+06 -58824 -979507 -487612
125 3 O 0.360223 24.7241 55.7134 -1.2 -9.64331 -2.51337e+06 -1.58538e+06 -4.69599e+06 -45524.8 -480436 110894
126 3 O 2.934 24.6611 55.7854 -1.2 -9.34598 -1.07379e+06 -1.54701e+06 -4.52761e+06 731119 -211016 511727
127 1 Mg 0.139025 23.8 52.2809 1.2 -7.88246 -679790 -1.43331e+06 3.86112e+06 -2.04122e+06 2.26112e+06 1.44184e+06
128 1 Mg 1.96775 23.4188 49.3673 1.2 -8.14751 2.08807e+06 706955 690238 222400 -719620 19708.3
129 2 Si 1.70196 25.7557 51.235 2.4 -33.5996 1.00908e+07 4.25108e+06 1.12076e+07 596579 -1.65977e+06 1.14912e+06
130 3 O 1.88613 27.3113 51.2074 -1.2 -9.21439 -4.05943e+06 -1.30469e+06 -3.86617e+06 979816 276994 -324641
131 3 O 1.60329 24.6568 57.9212 -1.2 -9.70552 -3.10348e+06 -969413 -4.30084e+06 178913 190985 1.57179e+06
132 3 O 0.379162 25.1334 50.6696 -1.2 -8.70392 -4.37854e+06 -2.49559e+06 -4.78129e+06 871905 -206861 -1.41676e+06
133 1 Mg -2.81342 23.7812 52.2797 1.2 -7.75507 -620878 -1.38114e+06 4.18774e+06 2.70489e+06 -1.81961e+06 1.3145e+06
134 3 O 2.94976 25.0558 50.4862 -1.2 -8.74513 -2.0975e+06 -1.9688e+06 -1.57487e+06 492511 172844 -65862.1
135 1 Mg -1.24039 23.752 55.0622 1.2 -7.92605 1.53357e+06 896979 2.20056e+06 -417402 -1.0809e+06 -1.90655e+06
136 2 Si -1.34345 21.7894 53.174 2.4 -32.371 6.80616e+06 4.99453e+06 1.14038e+07 359758 493987 -1.0161e+06
137 3 O -1.48048 20.2206 53.0842 -1.2 -9.90188 -2.65259e+06 -555259 -4.75076e+06 1.26066e+06 193412 312236
138 3 O -0.820143 23.0478 46.2655 -1.2 -7.96435 -3.08794e+06 337142 -3.78164e+06 -867807 -875684 -2.41312e+06
139 3 O -2.61236 22.4263 53.8661 -1.2 -9.60667 -1.25626e+06 -2.51186e+06 -6.13856e+06 786.416 1.34337e+06 273327
140 3 O 0.00518892 22.4664 53.7931 -1.2 -9.62919 -781200 -2.87461e+06 -4.80577e+06 1.26478e+06 -516955 912362
141 1 Mg -2.49176 30.852 57.3056 1.2 -7.61871 -568576 -1.55973e+06 4.35088e+06 -756528 -1.72533e+06 -51609.2
142 1 Mg -1.07038 30.8205 49.7866 1.2 -8.71298 2.34249e+06 739865 2.12476e+06 -526946 1.3282e+06 1.13875e+06
143 2 Si -1.03892 28.2851 47.8872 2.4 -34.7616 9.99008e+06 4.89269e+06 1.01433e+07 603906 1.14049e+06 79496.6
144 3 O -1.01135 29.8889 47.8949 -1.2 -8.48482 -3.54341e+06 -3.09482e+06 -2.6802e+06 829911 -1.44374e+06 -650024
145 3 O -1.09816 27.1518 51.7348 -1.2 -8.62998 -3.15005e+06 -2.4307e+06 -3.98344e+06 558026 -701376 -1.03463e+06
146 3 O -2.3317 27.6613 48.5684 -1.2 -8.11263 -911254 -2.6401e+06 -2.9071e+06 -1.14765e+06 -402319 -1.13258e+06
147 1 Mg -0.484984 26.0674 46.598 1.2 -6.89281 2.29715e+06 -2.08216e+06 193303 341566 977448 542109
148 3 O 0.241831 27.6918 48.5591 -1.2 -8.56609 -3.99197e+06 -1.49942e+06 -3.16706e+06 1.08953e+06 -469022 -350092
149 1 Mg 1.71837 26.2135 54.6504 1.2 -8.02541 2.66225e+06 1.17164e+06 1.96782e+06 104839 -72124.7 325887
150 2 Si 1.82632 28.7595 56.4398 2.4 -32.4683 4.74843e+06 3.37696e+06 1.39679e+07 142541 1.66418e+06 1.4176e+06
151 3 O 1.73559 27.2366 56.5667 -1.2 -10.335 -3.18401e+06 -2.07037e+06 -4.55596e+06 485861 -849646 77492.2
152 3 O 2.02312 29.814 52.6392 -1.2 -8.92516 -4.17479e+06 -1.91908e+06 -5.61711e+06 1.01613e+06 -386254 -1.41263e+06
153 3 O 0.533833 29.4675 55.8289 -1.2 -9.22524 -2.92109e+06 -2.5679e+06 -4.76861e+06 -952915 -528894 -1.19215e+06
154 3 O 3.02374 29.4554 55.7022 -1.2 -9.46247 -3.56006e+06 -1.68525e+06 -6.40623e+06 1.26241e+06 1.2218e+06 -1.84443e+06
155 1 Mg 0.473097 28.4963 52.3692 1.2 -8.21718 203750 -696472 4.40296e+06 -1.55301e+06 1.43672e+06 1.49097e+06
156 1 Mg 1.90053 28.2946 49.4092 1.2 -8.30881 3.49034e+06 771942 670277 -849323 -966819 865109
157 2 Si 2.04581 30.5877 51.195 2.4 -33.5753 1.04467e+07 4.50537e+06 1.06404e+07 7657.89 -116984 655899
158 3 O 1.87804 32.1493 51.3279 -1.2 -9.44524 -3.47172e+06 -995040 -4.05992e+06 -1.00747e+06 -555774 657386
159 3 O 1.97316 29.5434 57.9505 -1.2 -9.02614 -2.29488e+06 -1.34776e+06 -4.54726e+06 1.21513e+06 -895515 1.25794e+06
160 3 O 0.666134 29.9766 50.5169 -1.2 -8.3379 -697627 -2.35709e+06 -3.58119e+06 620029 -315061 -259830
161 1 Mg -2.48609 28.5962 52.1447 1.2 -7.93253 526548 -2.28711e+06 4.24933e+06 2.6409e+06 -1.71844e+06 1.90935e+06
162 3 O 3.28901 29.8969 50.5648 -1.2 -9.03891 -4.33517e+06 -2.18049e+06 -5.06699e+06 -916453 1.86207e+06 -237891
163 1 Mg -1.20167 28.6177 55.2593 1.2 -8.08763 1.44361e+06 1.1243e+06 1.73389e+06 328284 10506.7 -498431
164 2 Si -1.24335 26.5383 53.2611 2.4 -33.5299 8.52098e+06 4.47384e+06 1.22311e+07 168819 -416907 725653
165 3 O -1.22862 24.9859 53.1732 -1.2 -9.39859 -3.69823e+06 -1.63779e+06 -5.33465e+06 417065 558391 558808
166 3 O -0.946863 27.85 46.3257 -1.2 -7.79946 -3.71664e+06 -1.39694e+06 -2.83737e+06 217899 -581302 340876
167 3 O -2.54812 27.2015 53.8559 -1.2 -9.15721 -1.95137e+06 -2.0343e+06 -3.31727e+06 15126 -88457.7 -808466
168 3 O 0.0521761 27.2754 53.901 -1.2 -8.9919 -1.13339e+06 -3.33427e+06 -5.11608e+06 959889 -609043 -24371.7
169 1 Mg -2.60062 35.6936 57.3176 1.2 -7.68078 -1.15949e+06 -1.15502e+06 4.47739e+06 -1.74065e+06 -1.29016e+06 -31387.1
170 1 Mg -1.24041 35.507 49.9261 1.2 -7.94234 691895 2.60087e+06 1.60986e+06 -812607 93051.7 6615.09
171 2 Si -0.71403 32.9597 48.1526 2.4 -34.175 9.96578e+06 5.95575e+06 8.82399e+06 -779246 2.69415e+06 -230560
172 3 O -0.666428 34.5381 48.1496 -1.2 -8.64462 -3.76471e+06 -5.55382e+06 -5.88831e+06 -1.53218e+06 -1.26294e+06 -538028
173 3 O -1.16434 31.9127 51.7146 -1.2 -9.02498 -2.79938e+06 -1.13093e+06 -3.60939e+06 576581 -1.06553e+06 -759768
174 3 O -1.99045 32.4578 48.8653 -1.2 -8.64354 -1.27562e+06 -4.80827e+06 -5.60269e+06 -508911 472695 -598250
175 1 Mg 0.050215 30.8732 46.5975 1.2 -6.85547 2.91715e+06 1.1405e+06 785841 181953 1.42399e+06 -556426
176 3 O 0.69685 32.2106 48.5159 -1.2 -8.74517 -1.43989e+06 -1.42429e+06 -2.68043e+06 -66343.4 -832855 1.54491e+06
177 1 Mg 1.89002 30.9226 54.5708 1.2 -8.34926 1.97482e+06 1.30142e+06 2.15678e+06 -875834 509748 2.22381e+06
178 2 Si 1.93293 33.5837 56.5619 2.4 -33.2866 5.97567e+06 4.75511e+06 1.11348e+07 1.02175e+06 595664 2.79683e+06
179 3 O 1.86107 32.0384 56.5324 -1.2 -9.44202 -3.10286e+06 -2.29325e+06 -5.16662e+06 434081 76317.4 353783
180 3 O 1.83719 34.7477 52.645 -1.2 -9.74444 -1.1673e+06 -3.90557e+06 -6.57063e+06 -634190 449401 -1.4401e+06
181 3 O 0.674115 34.1898 55.8147 -1.2 -9.11227 -3.50245e+06 -3.97032e+06 -3.99064e+06 -856853 -491904 -1.69341e+06
182 3 O 3.15761 34.242 55.7991 -1.2 -9.14385 -3.79428e+06 -3.52079e+06 -4.82209e+06 674297 758592 -1.12124e+06
183 1 Mg 0.338001 33.3615 52.2375 1.2 -7.44615 -989313 -1.10261e+06 4.35021e+06 -1.64606e+06 1.79511e+06 2.26182e+06
184 1 Mg 2.23534 33.0669 49.4127 1.2 -7.87428 1.26413e+06 374786 666916 775051 -549583 -372201
185 2 Si 1.65589 35.2352 51.1202 2.4 -31.9984 4.39973e+06 5.65508e+06 9.4221e+06 -13447.7 -404589 500263
186 3 O 1.63621 36.8237 51.1488 -1.2 -10.0248 -1.79456e+06 -2.6591e+06 -4.67067e+06 1.55413e+06 138078 1.27218e+06
187 3 O 1.95445 34.3501 57.9559 -1.2 -9.26236 -2.70141e+06 -1.97919e+06 -6.14962e+06 -89120.5 -255547 -342967
188 3 O 0.466745 34.4707 50.6069 -1.2 -9.70655 -4.10444e+06 -3.49676e+06 -5.92091e+06 -583650 -2.7757e+06 246312
189 1 Mg -2.55024 33.406 52.3236 1.2 -7.19401 -702358 -901283 4.28808e+06 676839 -1.85866e+06 909115
190 3 O 3.01571 34.6547 50.4441 -1.2 -9.3302 -1.18259e+06 -4.859e+06 -4.14883e+06 -1.31596e+06 1.60623e+06 -356371
191 1 Mg -1.13698 33.3179 55.2543 1.2 -8.11329 2.56929e+06 807853 923382 -390799 86292.6 679376
192 2 Si -1.23078 31.2715 53.2455 2.4 -33.2846 9.04328e+06 2.82159e+06 1.27915e+07 510929 -209226 1.51299e+06
193 3 O -1.00912 29.754 53.2379 -1.2 -9.17846 -3.69411e+06 -2.57692e+06 -4.03232e+06 -577864 -382107 -1972.37
194 3 O -0.827595 32.7044 46.5434 -1.2 -7.66473 -3.19817e+06 -961798 -2.32698e+06 -538097 -620011 4065.87
195 3 O -2.4944 31.8676 53.9306 -1.2 -9.49571 -3.7658e+06 -2.25443e+06 -3.42921e+06 -471307 544205 -1.24829e+06
196 3 O 0.128709 31.9596 53.9314 -1.2 -8.74543 588296 -2.24599e+06 -3.8529e+06 -6702.1 -144590 -1.61674e+06
197 1 Mg -2.66735 40.3071 57.3627 1.2 -8.16945 -838392 -2.17438e+06 5.24879e+06 -2.03905e+06 -1.5949e+06 -798660
198 1 Mg -1.40291 40.0774 49.6095 1.2 -8.47846 1.50836e+06 1.61395e+06 2.48149e+06 -1.11406e+06 1.25849e+06 1.57279e+06
199 2 Si -1.31327 37.5036 47.6399 2.4 -35.1097 9.1424e+06 6.00103e+06 7.81057e+06 2.15253e+06 1.75158e+06 -470969
200 3 O -1.22921 39.0697 47.5867 -1.2 -7.82048 -5.08786e+06 -6.24645e+06 -2.91855e+06 2.49797e+06 -1.83489e+06 597764
201 3 O -1.41083 36.5308 51.8435 -1.2 -10.2252 -1.38351e+06 -2.91947e+06 -3.79937e+06 -62689.3 -224080 -833408
202 3 O -2.44081 36.9909 48.7003 -1.2 -8.5195 -773147 -3.98795e+06 -1.99849e+06 -641280 372429 -1.28084e+06
203 1 Mg -0.193454 35.3883 46.6236 1.2 -6.82569 1.85894e+06 770030 -1.57848e+06 935544 2.04239e+06 1.25671e+06
204 3 O 0.172693 37.2553 48.1959 -1.2 -8.06452 -2.84517e+06 -5.10312e+06 -1.78665e+06 2.03729e+06 -986593 -41818.2
205 1 Mg 1.75009 35.5187 54.4982 1.2 -7.98305 419468 1.81671e+06 1.10559e+06 495190 167512 819924
206 2 Si 1.90159 38.254 56.3014 2.4 -32.7928 7.17478e+06 4.8307e+06 1.12705e+07 -141900 -1.13738e+06 2.38219e+06
207 3 O 1.83304 36.7402 56.5076 -1.2 -9.76159 -2.97729e+06 -3.96839e+06 -5.85375e+06 364289 1.20603e+06 -983661
208 3 O 1.71477 39.2702 52.5274 -1.2 -9.92089 -1.25404e+06 -1.61467e+06 -5.17996e+06 -625798 -23435.3 -1.53518e+06
209 3 O 0.639439 38.9757 55.7063 -1.2 -9.49544 -3.34697e+06 -4.04984e+06 -4.98038e+06 -1.0728e+06 -1.44214e+06 -407830
210 3 O 3.19217 38.9631 55.7056 -1.2 -9.07383 -1.49957e+06 -3.49442e+06 -4.49506e+06 1.40061e+06 482343 -1.02904e+06
211 1 Mg 0.217934 37.9177 52.1424 1.2 -6.95792 -845680 -2.03805e+06 4.81513e+06 -1.62476e+06 2.13274e+06 775650
212 1 Mg 1.81942 37.7169 49.2066 1.2 -8.06091 2.62075e+06 724235 71230.6 -276521 223181 435728
213 2 Si 1.61882 39.9221 51.0333 2.4 -32.7041 7.22856e+06 3.70881e+06 1.22956e+07 254973 689618 739205
214 3 O 1.76634 41.4895 50.9833 -1.2 -9.82941 -3.24936e+06 -2.20516e+06 -4.03298e+06 1.54048e+06 455904 -1.81942e+06
215 3 O 1.80778 39.0249 57.8293 -1.2 -8.72595 -4.42764e+06 -2.70451e+06 -5.76198e+06 16699.1 -1.08147e+06 1.57712e+06
216 3 O 0.402757 39.1886 50.3443 -1.2 -8.9341 -3.13074e+06 -2.76424e+06 -3.80418e+06 1.09975e+06 -98057.4 -1.26564e+06
217 1 Mg -2.74068 37.9565 52.0186 1.2 -7.11459 -2.0031e+06 -1.15914e+06 5.50545e+06 1.89328e+06 -1.53683e+06 992109
218 3 O 2.9062 39.337 50.293 -1.2 -9.10391 -3.58399e+06 -3.57499e+06 -3.56235e+06 -449709 1.28835e+06 -655842
219 1 Mg -0.999641 37.9621 54.9891 1.2 -7.62537 2.52286e+06 169452 1.4479e+06 -186108 -330750 -1.1057e+06
220 2 Si -1.24314 35.9705 53.3506 2.4 -31.2052 8.83485e+06 3.48636e+06 1.12655e+07 -720557 -254434 432464
221 3 O -1.18266 34.422 53.3138 -1.2 -10.3045 -3.15573e+06 -2.17684e+06 -4.23631e+06 607624 -235463 319328
222 3 O -1.3884 36.9233 46.2506 -1.2 -7.79608 -2.50202e+06 -3.21437e+06 -4.75122e+06 -1.4434e+06 -1.51138e+06 -1.3753e+06
223 3 O -2.52036 36.579 54.1839 -1.2 -9.37036 1.5471e+06 -3.61819e+06 -4.20802e+06 -838371 -303564 -304765
224 3 O 0.170258 36.666 53.9248 -1.2 -10.1526 -109567 -2.16585e+06 -3.1467e+06 1.30951e+06 433540 -627235
225 1 Mg -2.57559 44.9626 57.2137 1.2 -7.85921 242110 -3.64905e+06 4.85209e+06 -1.94954e+06 -1.36682e+06 -1.84651e+06
226 1 Mg -1.04324 44.8724 49.4399 1.2 -8.72131 1.60241e+06 1.8014e+06 2.76254e+06 -327681 1.22901e+06 1.0947e+06
227 2 Si -0.924454 42.2281 47.5751 2.4 -33.9163 9.74366e+06 8.1222e+06 1.15023e+07 198240 1.80331e+06 1.17495e+06
228 3 O -0.788593 43.8306 47.4262 -1.2 -8.68801 -2.35854e+06 -2.02045e+06 -2.29394e+06 20634.9 -1.27721e+06 -1.44172e+06
229 3 O -1.03329 41.1178 51.5549 -1.2 -9.45673 -1.08176e+06 -1.98905e+06 -4.55023e+06 302558 -67551.6 -1.36834e+06
230 3 O -2.09739 41.7476 48.5176 -1.2 -8.70355 210715 -3.63604e+06 -2.59561e+06 -655746 -661853 -2.58026e+06
231 1 Mg -0.00538435 40.1022 46.5905 1.2 -7.40352 2.39752e+06 -1.81353e+06 956584 903873 2.07847e+06 -633423
232 3 O 0.52451 41.4693 48.0639 -1.2 -8.74797 -925478 49686.2 -1.74933e+06 -579149 226431 66982.3
233 1 Mg 1.75482 40.2089 54.4944 1.2 -7.98444 2.47454e+06 432301 2.27443e+06 -649498 -88558 1.50787e+06
234 2 Si 1.80654 42.9996 56.2484 2.4 -33.265 7.59877e+06 6.88465e+06 1.27635e+07 118634 1.09029e+06 -371395
235 3 O 1.86436 41.386 56.2511 -1.2 -9.30234 -3.62933e+06 -37735 -4.12394e+06 649722 -629175 -174300
236 3 O 1.94043 44.0076 52.2765 -1.2 -9.38367 -2.42303e+06 -1.60148e+06 -6.59585e+06 402197 416414 -988891
237 3 O 0.425594 43.5884 55.6754 -1.2 -8.74483 -1.52799e+06 -3.60066e+06 -5.232e+06 -1.70416e+06 24958.6 -61551.3
238 3 O 2.99667 43.8191 55.5169 -1.2 -9.33873 -3.10077e+06 -2.26357e+06 -5.49759e+06 1.48925e+06 707059 256020
239 1 Mg 0.537238 42.5935 52.0239 1.2 -7.30453 -1.09169e+06 -1.10581e+06 5.45958e+06 -361300 1.43446e+06 393283
240 1 Mg 2.00424 42.4878 49.0424 1.2 -7.9408 3.49562e+06 2.26038e+06 692559 -379811 -420532 1.1555e+06
241 2 Si 2.09154 44.6545 50.8528 2.4 -33.7567 8.96768e+06 4.02107e+06 9.78411e+06 77322.6 900813 324710
242 3 O 2.22259 46.2595 50.8793 -1.2 -9.13524 -3.88406e+06 -1.45873e+06 -4.1197e+06 634936 6177.22 -1.15043e+06
243 3 O 1.90179 43.6793 57.7249 -1.2 -8.71328 -3.5943e+06 -1.5647e+06 -5.41848e+06 138042 -332583 2.23015e+06
244 3 O 0.810111 44.1158 50.0181 -1.2 -8.63313 -2.45994e+06 -1.91483e+06 -2.76376e+06 626127 128246 1584.77
245 1 Mg -2.47045 42.4734 52.0504 1.2 -7.11119 -206650 -1.55919e+06 4.42749e+06 1.73357e+06 -1.69004e+06 2.28232e+06
246 3 O 3.33099 44.034 50.1881 -1.2 -8.94777 -4.75009e+06 -3.01906e+06 -3.43956e+06 540326 1.52866e+06 -1.55806e+06
247 1 Mg -1.25267 42.6213 54.9342 1.2 -8.18076 2.80918e+06 980077 1.28194e+06 31037.1 304355 -1.66302e+06
248 2 Si -1.22438 40.6028 53.1178 2.4 -32.0177 6.13082e+06 1.81387e+06 1.32795e+07 1.92496e+06 -613321 1.13926e+06
249 3 O -1.30672 39.0594 53.0673 -1.2 -10.2631 -2.13212e+06 -1.38295e+06 -5.32433e+06 -327646 1.09106e+06 390460
250 3 O -0.983525 41.6598 45.992 -1.2 -7.36846 -2.86939e+06 -1.96191e+06 -68151.3 -609053 -1.03428e+06 793996
251 3 O -2.53698 41.3279 53.6612 -1.2 -9.72379 -1.89438e+06 -2.10226e+06 -4.2807e+06 -456663 158391 332251
252 3 O -0.00362414 41.3051 53.852 -1.2 -9.37505 -1.22228e+06 -1.69491e+06 -5.31536e+06 737924 -900724 -329745
253 1 Mg -2.65529 49.701 57.3374 1.2 -7.55892 -308376 -1.71239e+06 3.78614e+06 -993261 -1.58094e+06 -1.23502e+06
254 1 Mg -0.755032 49.6831 49.578 1.2 -8.63168 53351.8 2.38236e+06 2.33343e+06 -293977 273322 1.13273e+06
255 2 Si -0.349535 47.1873 47.5232 2.4 -35.2519 9.93646e+06 7.72133e+06 1.00077e+07 727978 1.71385e+06 828960
256 3 O -0.23611 48.8408 47.4682 -1.2 -8.26809 -3.08529e+06 -1.4908e+06 -1.84499e+06 196126 -2.10517e+06 -128694
257 3 O -0.746572 45.9336 51.4752 -1.2 -8.74529 -3.02979e+06 -805725 -5.20318e+06 4023.83 -586194 -1.50453e+06
258 3 O -1.53659 46.6799 48.4817 -1.2 -8.07277 -1.29553e+06 -1.56958e+06 -3.72767e+06 -195397 -784679 -2.37961e+06
259 1 Mg 0.171756 44.8389 46.1693 1.2 -7.07574 2.46644e+06 -782242 -6597.63 345587 1.26778e+06 747070
260 3 O 1.00595 46.5756 48.0092 -1.2 -8.14276 -4.54491e+06 -1.49248e+06 -3.34415e+06 715251 -165929 25378.3
261 1 Mg 2.21753 45.0344 54.2682 1.2 -8.26107 1.49303e+06 -504636 1.723e+06 300438 -296950 1.28276e+06
262 2 Si 1.87936 47.6179 56.2097 2.4 -33.0587 5.54467e+06 4.68701e+06 1.29129e+07 -297428 -192625 -1.1604e+06
263 3 O 1.78288 46.1056 56.275 -1.2 -9.44099 -2.70253e+06 -3.80935e+06 -5.19145e+06 448352 239524 597825
264 3 O 2.27495 48.5901 52.2678 -1.2 -8.98144 -2.8035e+06 -2.1334e+06 -5.21526e+06 615762 446349 -1.89367e+06
265 3 O 0.615718 48.4118 55.6725 -1.2 -8.77164 -3.46813e+06 -2.69306e+06 -4.5661e+06 -677314 374906 886466
266 3 O 3.03144 48.3127 55.4503 -1.2 -9.32265 -5.28079e+06 -2.59326e+06 -3.23475e+06 782902 404956 -66089.1
267 1 Mg 0.75415 47.1699 51.9914 1.2 -8.05493 -405654 -1.43178e+06 5.17468e+06 -854059 1.4271e+06 904578
268 1 Mg 2.461 47.3365 48.9753 1.2 -8.24357 4.01595e+06 596722 406022 -597510 -1.30019e+06 -88814.9
269 2 Si 2.24231 49.3974 50.8366 2.4 -33.1939 8.68956e+06 6.1982e+06 1.07024e+07 602072 930396 326451
270 3 O 2.28675 50.9924 51.0542 -1.2 -9.54089 -3.67007e+06 -1.29439e+06 -4.03564e+06 536207 -127210 819289