ITEM: TIMESTEP
2300
ITEM: NUMBER OF ATOMS
10500
ITEM: BOX BOUNDS xy xz yz pp pp pp
0.0000000000000000e+00 8.9687999999999999e+00 2.9895999999999998e+00
0.0000000000000000e+00 1.1872499999999999e+02 0.0000000000000000e+00
0.0000000000000000e+00 2.5297700000000000e+02 0.0000000000000000e+00
ITEM: ATOMS id type element xu yu zu q c_pe c_s[1] c_s[2] c_s[3] c_s[4] c_s[5] c_s[6]
1 1 Mg -3.75371 7.07357 57.2602 1.2 -7.40176 -1.36259e+06 -1.17511e+06 3.77016e+06 -2.23862e+06 -778876 -901557
2 1 Mg -1.82233 6.9861 49.7812 1.2 -7.79055 -476587 821458 429650 -107650 -922248 832402
3 2 Si -0.333884 3.8497 47.7965 2.4 -35.653 6.89353e+06 7.95129e+06 1.01312e+07 125267 2.1787e+06 1.19292e+06
4 3 O -0.296967 5.34471 47.2939 -1.2 -7.72321 -3.21228e+06 -3.57232e+06 -3.34928e+06 510421 -1.03764e+06 1.42333e+06
5 3 O -1.97139 3.42363 51.6348 -1.2 -8.78391 -2.45733e+06 -2.00053e+06 -5.72828e+06 -440500 1.24577e+06 -956428
6 3 O -1.57887 3.59032 48.6589 -1.2 -8.63935 -2.559e+06 -2.261e+06 -4.90373e+06 -1.46475e+06 183580 1.12344e+06
7 1 Mg 1.80468 2.46721 46.8719 1.2 -7.54466 1.50941e+06 128046 1.24903e+06 874747 732831 31859.2
8 3 O 1.11377 3.63389 48.5198 -1.2 -8.04976 -2.14943e+06 -3.00252e+06 -4.95492e+06 623116 -1.63054e+06 365964
9 1 Mg 1.12781 2.47034 54.3133 1.2 -8.3648 1.63706e+06 559013 1.53185e+06 -712342 614175 1.41329e+06
10 2 Si 0.826068 5.07012 56.2562 2.4 -32.1979 5.93322e+06 6.97413e+06 1.01756e+07 295542 357117 467338
11 3 O 0.985416 3.52511 56.2681 -1.2 -9.79533 -3.4371e+06 -1.68398e+06 -3.72559e+06 697240 -1.11011e+06 136174
12 3 O 1.08022 6.08042 52.506 -1.2 -9.75274 -2.37554e+06 -2.70214e+06 -4.79496e+06 -329703 -426785 -579461
13 3 O -0.449188 5.77249 55.7402 -1.2 -9.41246 -4.50399e+06 -4.09708e+06 -4.04411e+06 -1.39301e+06 -1.02276e+06 -1.01032e+06
14 3 O 2.03009 5.87933 55.5654 -1.2 -9.58718 -2.58306e+06 -2.65195e+06 -3.28333e+06 360397 1.06701e+06 -597346
15 1 Mg -0.499279 4.74909 51.9158 1.2 -7.57539 -621746 -1.46946e+06 5.06925e+06 -1.79305e+06 1.11984e+06 1.26949e+06
16 1 Mg 2.69769 4.04388 49.6721 1.2 -8.21427 3.53488e+06 182961 1.01094e+06 -361063 764113 -1.88843e+06
17 2 Si 1.15694 6.60835 50.9686 2.4 -32.6632 6.85784e+06 6.59232e+06 1.0588e+07 1.02214e+06 1.97083e+06 2.23756e+06
18 3 O 1.22205 8.16749 50.926 -1.2 -9.73947 -1.80715e+06 -2.16908e+06 -2.90347e+06 201753 -1.34849e+06 47596.4
19 3 O 0.897056 5.82685 57.8103 -1.2 -9.59864 -4.63649e+06 -2.29606e+06 -4.31088e+06 69689.7 -533783 1.82484e+06
20 3 O -0.269919 6.03873 50.4145 -1.2 -9.16005 -1.04898e+06 -3.03977e+06 -4.39789e+06 977303 -513258 -311754
21 1 Mg -3.60192 4.57981 52.3859 1.2 -7.33471 -507276 -1.54491e+06 1.42665e+06 2.14421e+06 -1.53967e+06 1.83827e+06
22 3 O 2.49245 5.93734 50.4039 -1.2 -9.52126 -1.73289e+06 -2.40151e+06 -3.09372e+06 -1.15851e+06 -441939 -1.01357e+06
23 1 Mg -2.1222 4.96517 55.1089 1.2 -7.91647 552623 2.84209e+06 1.30499e+06 -610107 -406324 -223979
24 2 Si -1.87875 2.71283 53.0897 2.4 -33.7604 6.9051e+06 6.82019e+06 1.28413e+07 -132234 73395.1 -237109
25 3 O -1.85095 1.08277 53.0049 -1.2 -8.76556 -3.63922e+06 384051 -4.64677e+06 272118 -306655 1.11313e+06
26 3 O -0.0886853 2.79297 46.6232 -1.2 -7.49727 -2.16066e+06 -2.44029e+06 -3.48607e+06 -1.02823e+06 -2.49143e+06 -1.01106e+06
27 3 O -3.20007 3.35152 53.7616 -1.2 -9.31006 -3.18501e+06 -3.08525e+06 -6.25821e+06 -1.38591e+06 650568 2.09841e+06
28 3 O -0.61791 3.34448 53.7771 -1.2 -8.96353 -1.93072e+06 -2.76496e+06 -3.66092e+06 580319 -635989 188243
29 1 Mg -3.72806 11.8632 57.5215 1.2 -7.37949 128622 -1.47799e+06 2.9897e+06 -1.22383e+06 -1.51284e+06 -415741
30 1 Mg -1.68103 11.535 49.1439 1.2 -8.01197 243279 570494 2.20231e+06 331158 -56544.9 1.50291e+06
31 2 Si -0.946839 8.93592 47.4947 2.4 -33.5989 9.26629e+06 8.896e+06 1.0138e+07 242802 910195 934250
32 3 O -0.953737 10.5299 47.4524 -1.2 -9.17751 -1.29089e+06 -1.64527e+06 -3.01783e+06 892186 -2.13502e+06 -1.66402e+06
33 3 O -2.04556 8.07 51.5194 -1.2 -9.7303 -2.66065e+06 -2.16609e+06 -4.66827e+06 23696.9 1.23792e+06 -1.96037e+06
34 3 O -2.14741 8.28391 48.357 -1.2 -9.39129 786019 -2.0621e+06 -1.97533e+06 418178 -1.08332e+06 -1.12282e+06
35 1 Mg 0.353053 6.8569 46.4381 1.2 -7.60718 1.37487e+06 -889831 437350 1.06011e+06 1.52942e+06 -1.26391e+06
36 3 O 0.563104 8.36058 47.9189 -1.2 -8.75342 -471224 -1.44596e+06 -3.6156e+06 -931899 -1.55078e+06 581208
37 1 Mg 1.00597 7.25926 54.235 1.2 -7.75227 445493 1.94358e+06 1.35818e+06 536203 -1.14918e+06 1.08879e+06
38 2 Si 0.824062 9.80484 56.2687 2.4 -32.9405 6.66034e+06 2.85315e+06 9.02596e+06 -350980 -278865 577710
39 3 O 0.734866 8.33593 56.2488 -1.2 -9.70904 -4.1142e+06 -7.54847e+06 -2.83648e+06 -316476 238872 -217420
40 3 O 1.22744 10.789 52.136 -1.2 -9.60318 -2.0113e+06 -3.346e+06 -4.89257e+06 378844 -1.26855e+06 -817297
41 3 O -0.473802 10.4988 55.6413 -1.2 -9.07422 -2.69132e+06 -3.627e+06 -4.349e+06 222562 120553 172839
42 3 O 2.04117 10.4257 55.4904 -1.2 -9.32831 -2.68687e+06 -2.92398e+06 -2.25662e+06 -417632 699689 -293679
43 1 Mg -0.362598 9.60869 51.9108 1.2 -6.89759 -489893 281494 4.0507e+06 -1.67068e+06 1.05428e+06 1.07065e+06
44 1 Mg 1.97714 8.99736 49.0946 1.2 -7.58711 1.08451e+06 640549 1.07056e+06 70710.7 -690746 612742
45 2 Si 1.22951 11.4925 50.7025 2.4 -32.8109 7.83833e+06 5.69092e+06 1.03021e+07 -1.71672e+06 -5548.41 2.89177e+06
46 3 O 1.46979 13.0432 50.931 -1.2 -9.8236 -2.83004e+06 -1.41728e+06 -2.39979e+06 197188 -860555 940663
47 3 O 0.87134 10.5107 57.7137 -1.2 -9.51622 -4.22575e+06 -3.42768e+06 -5.45901e+06 368630 270855 568680
48 3 O -0.0878467 10.9829 50.1139 -1.2 -9.12434 -3.21314e+06 -2.38633e+06 -5.63101e+06 1.43032e+06 -1.54716e+06 -1.43732e+06
49 1 Mg -3.28048 9.43271 52.2351 1.2 -7.0975 -2.7048e+06 -903986 2.44123e+06 1.74868e+06 -1.51563e+06 1.48735e+06
50 3 O 2.51203 10.7791 49.8021 -1.2 -9.48137 -730441 -535278 -836737 -872594 -802260 -112808
51 1 Mg -1.99826 9.39229 54.8177 1.2 -7.58384 2.4502e+06 1.67909e+06 340599 -166016 -571658 -1.69952e+06
52 2 Si -1.74819 7.43934 53.0089 2.4 -31.6033 6.83252e+06 4.39369e+06 1.07055e+07 681136 250414 -372165
53 3 O -1.90122 5.93517 53.1968 -1.2 -9.84929 -2.59267e+06 -2.82298e+06 -3.31719e+06 2.20277e+06 -576725 -301686
54 3 O -0.823801 8.30101 45.9464 -1.2 -7.40152 -3.20573e+06 -1.20695e+06 -1.21056e+06 -645574 -2.70489e+06 2.03565e+06
55 3 O -3.09256 8.12989 53.7294 -1.2 -9.49404 521991 -4.82194e+06 -5.68776e+06 -583679 263657 -39493.4
56 3 O -0.507291 8.24285 53.5616 -1.2 -10.2403 -2.80106e+06 -2.67759e+06 -3.43407e+06 1.01512e+06 -1.07232e+06 -219682
57 1 Mg -3.28025 16.5414 57.3366 1.2 -7.83724 -546795 -1.15416e+06 3.91061e+06 -836506 -1.85471e+06 163962
58 1 Mg -1.4699 16.197 49.4445 1.2 -7.81329 -666216 2.59418e+06 1.78635e+06 -710084 -8820.85 343548
59 2 Si -0.830667 13.8889 47.5486 2.4 -33.7443 5.43616e+06 4.09998e+06 9.7272e+06 549128 2.83081e+06 112397
60 3 O -0.559016 15.3859 47.8341 -1.2 -9.42052 -896916 -5.13902e+06 -3.99207e+06 847296 -1.86693e+06 -950953
61 3 O -1.61962 12.94 51.5691 -1.2 -8.9263 -1.49051e+06 -1.37725e+06 -3.23852e+06 594986 5331.63 -1.73611e+06
62 3 O -2.05321 13.3281 48.2844 -1.2 -9.16497 -1.81687e+06 -1.9395e+06 -5.17637e+06 -1.0353e+06 120341 -909574
63 1 Mg 0.224343 11.7669 46.3781 1.2 -6.65724 1.93274e+06 772689 1.50233e+06 830384 1.16646e+06 -537282
64 3 O 0.538942 13.1292 48.0708 -1.2 -8.85747 -2.13047e+06 -2.39697e+06 -3.18841e+06 304034 -333481 1.05276e+06
65 1 Mg 1.3593 11.9666 54.3442 1.2 -7.69978 -495927 1.09514e+06 1.43455e+06 -7147.6 470310 1.17824e+06
66 2 Si 1.09739 14.5431 56.398 2.4 -32.7995 8.94411e+06 2.06236e+06 9.89684e+06 937072 -1.68525e+06 75140.4
67 3 O 1.06423 13.0741 56.5201 -1.2 -9.76466 -3.81671e+06 -6.25904e+06 -4.2298e+06 827567 177936 -110476
68 3 O 1.57563 15.5547 52.5064 -1.2 -9.03985 -3.30927e+06 -1.23584e+06 -2.70932e+06 182744 -1.53971e+06 -1.2886e+06
69 3 O -0.202228 15.1486 55.7317 -1.2 -9.18106 -3.10735e+06 -2.56743e+06 -4.6665e+06 -335493 -918968 679882
70 3 O 2.41812 15.2453 55.6831 -1.2 -8.99619 -1.05688e+06 -2.82392e+06 -3.57967e+06 1.32423e+06 342429 -265790
71 1 Mg 0.0262128 14.2085 52.1309 1.2 -7.58696 417728 502433 4.39572e+06 -1.06025e+06 1.18011e+06 1.4217e+06
72 1 Mg 2.03974 13.8607 49.0871 1.2 -7.28142 2.05077e+06 279116 1.31115e+06 -253941 -451776 1.23808e+06
73 2 Si 1.43393 16.292 50.9282 2.4 -32.356 7.55122e+06 1.98095e+06 9.87538e+06 -565538 -256393 -260638
74 3 O 1.61891 17.7576 51.0933 -1.2 -10.3389 -3.65325e+06 -4.49996e+06 -2.56944e+06 -277682 -647631 467828
75 3 O 1.14577 15.235 57.8674 -1.2 -9.33071 -3.69228e+06 -3.74459e+06 -5.85084e+06 -1.14462e+06 610140 1.05923e+06
76 3 O 0.128456 15.7162 50.5291 -1.2 -9.27259 -4.91789e+06 -3.25351e+06 -5.50608e+06 469546 -1.89465e+06 -1.63372e+06
77 1 Mg -3.0265 14.2706 51.9947 1.2 -7.49765 -825400 -681252 3.52007e+06 2.38556e+06 -1.30107e+06 1.85877e+06
78 3 O 2.72766 15.5729 50.1671 -1.2 -9.76037 -600391 -1.94711e+06 -1.49871e+06 -1.15555e+06 181451 -407202
79 1 Mg -1.73589 14.0726 55.1306 1.2 -8.09447 1.6031e+06 1.59381e+06 536360 -719322 -397567 -443908
80 2 Si -1.7241 12.1679 53.0847 2.4 -32.4872 6.91209e+06 3.54638e+06 1.22048e+07 876845 100317 -1.01501e+06
81 3 O -1.93162 10.6625 52.9198 -1.2 -10.188 -3.14233e+06 -4.03104e+06 -3.72315e+06 -64807.6 -639864 -278652
82 3 O -0.853294 13.4521 46.0594 -1.2 -8.03377 -2.43781e+06 -590524 -5.3557e+06 -1.18906e+06 -893806 940656
83 3 O -2.96068 12.7905 53.8034 -1.2 -9.69444 -1.68511e+06 -4.24508e+06 -3.11161e+06 -158782 959528 -812713
84 3 O -0.327761 12.683 53.7124 -1.2 -9.52864 -602220 -2.53142e+06 -4.50663e+06 1.3801e+06 -562584 448212
85 1 Mg -3.00245 21.4254 57.2691 1.2 -7.29503 -618094 634566 3.22176e+06 -196496 -1.41873e+06 -396176
86 1 Mg -1.39107 21.4804 49.97 1.2 -7.86835 -742660 2.976e+06 837893 -477962 169580 1.42828e+06
87 2 Si -0.899112 18.8009 47.7669 2.4 -33.5357 6.26191e+06 6.23276e+06 1.12166e+07 839011 2.74795e+06 2.26207e+06
88 3 O -0.861088 20.369 47.677 -1.2 -8.93373 -2.85842e+06 -5.47467e+06 -3.97702e+06 -1.31521e+06 -739185 742527
89 3 O -1.53299 17.5827 51.7602 -1.2 -8.86259 -2.12384e+06 -3.96714e+06 -7.19286e+06 86269 98340.8 -1.45422e+06
90 3 O -1.88992 18.2509 48.8063 -1.2 -8.96885 -390693 -2.44414e+06 -5.34255e+06 -585622 169749 -1.05657e+06
91 1 Mg 0.31082 16.7873 46.6733 1.2 -6.37007 1.43639e+06 142989 1.38252e+06 1.05175e+06 1.52726e+06 -476662
92 3 O 0.633018 18.2373 48.1279 -1.2 -9.34909 -1.0977e+06 -1.23567e+06 -1.58941e+06 -194982 817304 204920
93 1 Mg 1.35951 16.6383 54.5353 1.2 -8.03883 2.03281e+06 476081 1.41566e+06 243996 -800233 1.49738e+06
94 2 Si 1.3481 19.2794 56.3119 2.4 -32.2887 5.96137e+06 6.79284e+06 9.34711e+06 -999189 695322 -583271
95 3 O 1.35026 17.654 56.4188 -1.2 -9.67632 -3.02977e+06 -1.53822e+06 -4.47039e+06 597378 -418476 -1.49063e+06
96 3 O 1.65682 20.3511 52.4789 -1.2 -9.82264 -1.93258e+06 -2.48328e+06 -2.95667e+06 73559 -725620 409222
97 3 O 0.0713738 20.0176 55.633 -1.2 -9.72694 -1.38471e+06 -2.55414e+06 -4.3063e+06 -1.24145e+06 -428544 52377.4
98 3 O 2.59025 19.9817 55.6939 -1.2 -9.86379 -2.41604e+06 -3.78391e+06 -4.62365e+06 596181 1.20598e+06 1.27092e+06
99 1 Mg -0.0846776 18.8864 51.8838 1.2 -7.22299 -739332 266084 3.91328e+06 -790949 1.81638e+06 258217
100 1 Mg 2.14377 18.8777 49.2896 1.2 -7.26234 3.12847e+06 -74280.5 -203964 -384248 359735 -933902
101 2 Si 1.67666 20.9999 51.0374 2.4 -32.0649 8.01998e+06 5.43384e+06 9.28009e+06 740660 359117 284824
102 3 O 1.80388 22.575 51.221 -1.2 -10.039 -2.64263e+06 -3.15213e+06 -2.93204e+06 81260 544805 61837.2
103 3 O 1.35071 19.8459 57.7719 -1.2 -9.3165 -2.77217e+06 -3.12194e+06 -5.54465e+06 666409 742140 354058
104 3 O 0.251516 20.5219 50.4033 -1.2 -9.42153 -577573 -1.66506e+06 -4.14913e+06 299506 -676541 -670842
105 1 Mg -3.07696 18.7363 52.3455 1.2 -7.1947 -1.08682e+06 -240218 1.673e+06 1.66816e+06 -2.27935e+06 1.55238e+06
106 3 O 2.91223 20.4306 50.1882 -1.2 -9.73835 -1.22747e+06 -4.39535e+06 -2.08237e+06 1.00021e+06 490880 -763338
107 1 Mg -1.52658 19.0055 55.0799 1.2 -7.67572 1.08953e+06 2.15166e+06 1.00371e+06 -218575 -864046 -527869
108 2 Si -1.47482 16.8801 53.2228 2.4 -33.3688 5.50494e+06 5.01656e+06 1.11383e+07 860956 -225489 -787454
109 3 O -1.53651 15.3461 53.1747 -1.2 -9.32743 -3.00784e+06 -2.40729e+06 -3.99736e+06 626802 -4688.98 -140792
110 3 O -1.14934 18.0983 46.3109 -1.2 -8.20713 -849270 -1.01315e+06 -2.289e+06 -891664 -741051 286753
111 3 O -2.78353 17.539 53.8675 -1.2 -9.22608 -1.4045e+06 -3.67344e+06 -5.33655e+06 -616100 1.02955e+06 628774
112 3 O -0.218054 17.5257 53.8886 -1.2 -9.36534 -3.37328e+06 -3.74284e+06 -3.39487e+06 608190 -1.66664e+06 620528
113 1 Mg -2.54764 26.2012 57.1315 1.2 -8.17905 -1.39156e+06 -1.78535e+06 4.67734e+06 -1.02276e+06 -1.49529e+06 -267826
114 1 Mg -1.05947 26.122 49.6386 1.2 -8.63893 1.76789e+06 625923 737997 252819 91047.2 523104
115 2 Si -1.08401 23.6216 47.9652 2.4 -33.117 6.22492e+06 5.16885e+06 5.90405e+06 -86157.1 2.30396e+06 2.02568e+06
116 3 O -0.867126 25.1026 47.9018 -1.2 -8.78034 -3.77122e+06 -1.03302e+07 -3.68077e+06 -2.01172e+06 -753323 -1.539e+06
117 3 O -1.28253 22.4247 51.8442 -1.2 -9.64124 -2.22936e+06 -3.75844e+06 -4.84508e+06 539658 -154376 -2.33419e+06
118 3 O -2.16169 23.1981 48.9188 -1.2 -8.88959 -769274 -5.78341e+06 -4.27795e+06 -1.62039e+06 1.43721e+06 -1.69836e+06
119 1 Mg -0.154372 21.6407 46.6972 1.2 -6.19255 591506 -2.88288e+06 -512643 -375977 2.65535e+06 1.27326e+06
120 3 O 0.352866 22.8991 48.3317 -1.2 -9.33752 -1.92357e+06 -4.7293e+06 -555339 219771 -236423 170588
121 1 Mg 1.70534 21.3874 54.5945 1.2 -7.63432 941340 1.61235e+06 483878 260906 -124211 1.77069e+06
122 2 Si 1.77397 24.1706 56.457 2.4 -33.1885 6.81661e+06 5.81616e+06 1.0208e+07 212276 -37873.6 -15350.2
123 3 O 1.56453 22.5851 56.4629 -1.2 -10.0291 -3.13344e+06 -1.35585e+06 -4.19435e+06 806888 -169573 388296
124 3 O 1.89815 25.0585 52.5542 -1.2 -9.1262 -3.29679e+06 -2.34414e+06 -4.72801e+06 -29848.5 -1.21489e+06 -743585
125 3 O 0.414247 24.861 55.9916 -1.2 -9.0907 -3.74602e+06 -2.75847e+06 -4.40579e+06 -90128.6 -862782 43782.4
126 3 O 2.90782 24.8064 55.6101 -1.2 -8.91175 -2.31403e+06 -2.97748e+06 -5.97272e+06 242790 2.02651e+06 467299
127 1 Mg 0.322897 23.6543 52.1021 1.2 -7.56856 -363290 55604.1 3.14382e+06 -450947 1.4215e+06 -251838
128 1 Mg 1.74802 23.7886 49.2834 1.2 -7.36363 2.69489e+06 2.25438e+06 -419293 -802240 -587499 -35488
129 2 Si 1.89141 25.8919 51.1465 2.4 -33.1716 1.00609e+07 4.79305e+06 9.5064e+06 -465662 -587247 -586827
130 3 O 1.80848 27.4207 51.46 -1.2 -9.58355 -3.78392e+06 -3.41247e+06 -3.5652e+06 538288 214237 842640
131 3 O 2.0048 24.8956 57.8583 -1.2 -8.71506 -3.88431e+06 -2.48347e+06 -6.17065e+06 -209312 -1.42509e+06 1.62582e+06
132 3 O 0.584796 25.2116 50.502 -1.2 -9.161 -2.73824e+06 -1.83787e+06 -4.57314e+06 1.40496e+06 -1.46014e+06 1.01047e+06
133 1 Mg -2.76608 23.6125 52.2447 1.2 -7.39842 -1.33687e+06 -712944 3.94397e+06 2.13712e+06 -1.1934e+06 392853
134 3 O 3.15256 25.3545 50.3361 -1.2 -8.81146 -1.51064e+06 -3.46468e+06 -2.72588e+06 77207.5 911044 -856306
135 1 Mg -1.03178 23.6664 55.0821 1.2 -7.93576 2.4151e+06 1.60254e+06 1.21889e+06 285.303 -281460 -1.3694e+06
136 2 Si -1.27184 21.5773 53.2726 2.4 -32.1641 6.2056e+06 9.31372e+06 9.20756e+06 956467 593472 250414
137 3 O -1.33741 20.0057 53.0342 -1.2 -9.96451 -1.45969e+06 -2.22375e+06 -2.80001e+06 1.4203e+06 -361827 126965
138 3 O -1.31081 23.257 46.4163 -1.2 -8.7542 -1.03732e+06 -2.25486e+06 -2.80409e+06 -809552 -1.35839e+06 -2.27225e+06
139 3 O -2.50514 22.1642 54.0016 -1.2 -9.52166 -2.47641e+06 -3.29459e+06 -3.48092e+06 -852552 1.22369e+06 -137738
140 3 O 0.00974198 22.353 54.0046 -1.2 -9.43062 -1.81706e+06 -3.38602e+06 -2.84956e+06 2.17092e+06 -336815 1.52193e+06
141 1 Mg -2.64927 30.8492 57.5031 1.2 -7.51788 -98827.7 -536945 3.38164e+06 -1.57216e+06 -1.89266e+06 -1.65761e+06
142 1 Mg -1.25307 30.6953 49.7929 1.2 -8.4138 1.50117e+06 2.55514e+06 1.4746e+06 -358335 1.56771e+06 543156
143 2 Si -1.12644 28.2475 47.8943 2.4 -34.8964 1.03282e+07 6.23856e+06 1.03684e+07 -446544 -245733 1.28876e+06
144 3 O -0.772315 29.7914 47.8976 -1.2 -8.78064 -3.1391e+06 -4.64354e+06 -2.63281e+06 1.102e+06 -1.45095e+06 332100
145 3 O -1.1284 27.1388 51.7811 -1.2 -9.01315 -4.31555e+06 -2.79016e+06 -6.04574e+06 -1.53563e+06 555609 -675387
146 3 O -2.57182 27.9477 48.4981 -1.2 -8.26933 -1.32061e+06 -2.43837e+06 -2.04465e+06 -588793 -1.14034e+06 -1.16877e+06
147 1 Mg -0.684724 25.7263 46.0779 1.2 -6.41888 350318 2.47319e+06 -420817 555078 536687 956493
148 3 O -0.0464288 27.563 48.8046 -1.2 -8.15151 -2.05132e+06 -6.46887e+06 -4.26363e+06 593275 526045 -344916
149 1 Mg 1.8217 26.2091 54.4671 1.2 -8.21387 1.07031e+06 1.004e+06 1.54529e+06 53801.4 -718560 641448
150 2 Si 2.03532 28.8769 56.3618 2.4 -32.4116 6.06111e+06 5.63109e+06 8.88231e+06 -1.21691e+06 583489 -1.36191e+06
151 3 O 1.98605 27.3104 56.4845 -1.2 -9.48255 -3.66175e+06 -4.10523e+06 -4.86051e+06 1.54679e+06 -961592 423131
152 3 O 1.85455 29.8496 52.7711 -1.2 -9.16051 -2.88008e+06 -4.55864e+06 -4.12262e+06 -211294 208329 -1.00304e+06
153 3 O 0.712164 29.4762 55.6844 -1.2 -9.29077 -1.5134e+06 -4.01647e+06 -6.10715e+06 -384221 -1.91848e+06 669808
154 3 O 3.28665 29.509 55.6829 -1.2 -9.9108 -3.31259e+06 -3.56578e+06 -2.93312e+06 -68609.7 517180 790931
155 1 Mg 0.233519 28.4441 52.2788 1.2 -7.96755 -2.14726e+06 -1.24895e+06 3.34376e+06 -1.11759e+06 2.45773e+06 324981
156 1 Mg 1.7842 28.4244 49.5065 1.2 -8.02334 4.38394e+06 348311 544910 187280 -405291 551651
157 2 Si 1.86391 30.4815 51.3397 2.4 -33.4231 9.48272e+06 6.5047e+06 8.1633e+06 342560 8210.36 1.33702e+06
158 3 O 1.92892 32.0288 51.2091 -1.2 -9.2891 -3.96933e+06 -3.83014e+06 -3.50912e+06 587891 -694273 -506489
159 3 O 1.86911 29.5302 57.7963 -1.2 -9.45799 -3.03514e+06 -5.14708e+06 -5.53431e+06 380025 -1.35184e+06 1.61512e+06
160 3 O 0.502162 29.819 50.6179 -1.2 -8.49584 -1.21014e+06 -4.3081e+06 -2.87004e+06 1.35811e+06 151093 -1.13292e+06
161 1 Mg -2.54092 28.4591 52.3424 1.2 -7.44785 439196 -142050 3.45193e+06 1.37198e+06 -1.5427e+06 51590.6
162 3 O 3.08741 29.875 50.5299 -1.2 -9.17228 -3.84678e+06 -4.21209e+06 -2.01448e+06 -259127 1.26546e+06 -1.69447e+06
163 1 Mg -0.986251 28.5462 55.211 1.2 -7.89381 588142 2.82126e+06 785545 199988 -399385 -1.10011e+06
164 2 Si -1.02634 26.3411 53.1805 2.4 -33.3842 7.63268e+06 4.33324e+06 1.11819e+07 796013 -267103 -1.14907e+06
165 3 O -0.968451 24.7962 53.1935 -1.2 -9.40382 -3.13392e+06 -3.70475e+06 -3.14043e+06 1.41108e+06 461907 -596248
166 3 O -0.895912 27.6296 46.3389 -1.2 -7.98926 -2.34552e+06 73179.9 -857400 -255031 -1.18911e+06 2.36691e+06
167 3 O -2.33197 26.8775 53.8926 -1.2 -8.87099 -2.77373e+06 -3.16264e+06 -4.4e+06 -884967 971122 1.27423e+06
168 3 O 0.220932 27.0719 53.8794 -1.2 -9.21387 -3.7474e+06 -3.56263e+06 -4.12395e+06 394314 -244177 1.50289e+06
169 1 Mg -2.59974 35.6409 57.4188 1.2 -7.8921 54055.4 198917 3.39435e+06 -1.83787e+06 -1.11497e+06 -839144
170 1 Mg -1.31471 35.5157 49.7682 1.2 -8.85933 2.17186e+06 1.30136e+06 1.17853e+06 -1.25636e+06 812360 -482888
171 2 Si -0.850671 33.0878 47.883 2.4 -33.6406 8.17269e+06 6.78995e+06 8.17353e+06 1.64827e+06 2.42373e+06 324344
172 3 O -0.931718 34.6779 47.9338 -1.2 -8.12047 -5.38845e+06 -4.87203e+06 -2.25859e+06 -37062.3 -336571 -1.26217e+06
173 3 O -1.01607 31.7184 51.6554 -1.2 -8.51219 -4.38239e+06 -3.85952e+06 -4.66299e+06 1.23796e+06 571013 -1.75962e+06
174 3 O -2.05196 32.3283 48.4634 -1.2 -9.04821 -3.01461e+06 -4.64506e+06 -2.10486e+06 -65895.9 429332 -1.18756e+06
175 1 Mg 0.0995644 31.1015 46.855 1.2 -6.53303 927398 -164692 714628 631810 1.71514e+06 -1.0849e+06
176 3 O 0.515106 32.4454 48.3611 -1.2 -9.09466 -2.12594e+06 -3.20051e+06 -3.44716e+06 -374635 -498957 743111
177 1 Mg 2.01389 30.798 54.6831 1.2 -7.99417 3.40867e+06 843510 274851 377235 604210 813859
178 2 Si 1.8523 33.5176 56.2485 2.4 -33.0571 1.01457e+07 7.39076e+06 1.11717e+07 337956 300794 -1.62114e+06
179 3 O 1.90875 31.9536 56.4638 -1.2 -9.90176 -3.27916e+06 -1.17575e+06 -3.0644e+06 -606369 -253223 -649141
180 3 O 1.97425 34.4996 52.5956 -1.2 -8.48948 -4.31433e+06 -3.5208e+06 -3.09799e+06 -1.02574e+06 -959461 -1.20547e+06
181 3 O 0.579351 34.3125 55.577 -1.2 -8.98061 -1.44503e+06 -1.5235e+06 -3.00748e+06 -1.93993e+06 245453 -731408
182 3 O 3.1767 34.2703 55.5906 -1.2 -8.91879 -2.26344e+06 -2.04848e+06 -3.26063e+06 2.28916e+06 92337.6 -448816
183 1 Mg 0.546694 33.2179 52.3099 1.2 -8.30177 -266942 -1.25372e+06 3.26519e+06 -1.85607e+06 2.01946e+06 1.3883e+06
184 1 Mg 2.23487 32.7655 49.2491 1.2 -7.92105 907156 1.61646e+06 179656 321608 -485102 -121815
185 2 Si 1.77563 35.1338 51.0646 2.4 -33.7846 6.96625e+06 5.53249e+06 1.20138e+07 354177 337202 -260486
186 3 O 1.92799 36.7078 51.0892 -1.2 -9.40326 -3.47978e+06 -823094 -4.69879e+06 -26266.9 508358 119653
187 3 O 1.86024 34.2128 57.7616 -1.2 -9.24208 -2.65763e+06 -2.26691e+06 -2.86782e+06 560644 68267.5 1.59611e+06
188 3 O 0.494837 34.5038 50.5896 -1.2 -8.63219 -4.2419e+06 -2.81548e+06 -5.09751e+06 -439014 -762645 -142367
189 1 Mg -2.34262 33.1823 51.9288 1.2 -7.9893 1.15424e+06 -603161 2.94423e+06 936709 -2.06648e+06 492634
190 3 O 3.0735 34.4998 50.2453 -1.2 -8.86947 -2.98923e+06 -2.81886e+06 -3.21563e+06 -1.14239e+06 1.18281e+06 1.24853e+06
191 1 Mg -1.19363 33.5168 54.918 1.2 -8.29804 1.39643e+06 1.92048e+06 1.89874e+06 249585 742714 -934342
192 2 Si -1.1333 31.1374 53.1805 2.4 -33.8234 8.62511e+06 3.94226e+06 9.91065e+06 -606482 -241509 -34262.4
193 3 O -0.990409 29.6337 53.2202 -1.2 -9.58777 -4.24985e+06 -5.29668e+06 -4.26712e+06 26433 633580 262060
194 3 O -0.720468 32.898 46.2186 -1.2 -8.32979 -2.74605e+06 983343 -1.72229e+06 -894594 -868410 -2.34555e+06
195 3 O -2.40439 31.8703 53.6836 -1.2 -9.00988 -4.50017e+06 -2.49141e+06 -2.90334e+06 375284 404746 41451.1
196 3 O 0.170908 31.8909 53.7801 -1.2 -8.48196 -1.47275e+06 -3.39191e+06 -4.37381e+06 362975 -406494 -60934.2
197 1 Mg -2.65959 40.4542 57.2097 1.2 -8.05606 57392.5 1.22105e+06 3.10606e+06 -1.38751e+06 -1.28027e+06 -828099
198 1 Mg -1.35654 40.214 49.3004 1.2 -8.44407 2.42251e+06 2.76774e+06 1.47292e+06 -147683 1.70167e+06 1.78275e+06
199 2 Si -1.17325 37.5214 47.5796 2.4 -36.0935 1.23187e+07 7.31227e+06 7.0144e+06 -1.87348e+06 1.03624e+06 -590063
200 3 O -1.45783 39.133 47.4657 -1.2 -8.02468 -3.90251e+06 -4.71353e+06 -2.9116e+06 -1.2684e+06 -263026 -42562.5
201 3 O -1.20064 36.6868 51.5359 -1.2 -9.02574 -4.65324e+06 -3.99473e+06 -7.51087e+06 1.17139e+06 293825 -150058
202 3 O -2.281 37.0319 48.6692 -1.2 -7.67736 -3.05615e+06 -5.31373e+06 -3.06144e+06 315177 122636 -1.14909e+06
203 1 Mg -0.69729 35.1705 46.0097 1.2 -7.27033 1.58946e+06 831104 328748 164777 418146 787670
204 3 O 0.27947 37.1612 48.0204 -1.2 -7.47743 -3.57921e+06 -2.94189e+06 -1.50243e+06 -293041 -53894.9 -1.09632e+06
205 1 Mg 2.00351 35.7893 54.4182 1.2 -8.58695 1.87675e+06 1.18645e+06 1.59261e+06 -328249 597658 809622
206 2 Si 1.65989 38.3196 56.1033 2.4 -33.0424 8.17151e+06 8.90793e+06 8.23927e+06 537988 -341715 192639
207 3 O 1.8702 36.777 56.2615 -1.2 -9.48787 -2.98987e+06 -3.06632e+06 -1.84258e+06 -1.22363e+06 313906 -1.96729e+06
208 3 O 1.83066 39.2733 52.4243 -1.2 -9.63467 -2.34362e+06 -4.24441e+06 -3.74574e+06 93928.6 139791 -2.65665e+06
209 3 O 0.390581 38.9738 55.5168 -1.2 -9.52919 -4.04266e+06 -3.6059e+06 -2.16304e+06 -712819 -780131 350187
210 3 O 2.96912 39.0432 55.414 -1.2 -8.82078 258323 -3.57802e+06 -1.67273e+06 817130 361711 -98869.1
211 1 Mg 0.316379 38.0203 52.015 1.2 -7.32897 -355145 -1.05265e+06 3.29138e+06 -2.05458e+06 2.1623e+06 1.39941e+06
212 1 Mg 2.00606 37.7118 49.239 1.2 -8.38576 3.73872e+06 994101 461020 382376 1.13679e+06 478858
213 2 Si 1.86207 39.9952 50.9352 2.4 -32.5597 7.76175e+06 5.85253e+06 9.72174e+06 100488 1.31535e+06 4.19531e+06
214 3 O 2.02377 41.5576 51.1134 -1.2 -9.72169 -3.87674e+06 -2.32947e+06 -3.7067e+06 486860 487625 -1.11917e+06
215 3 O 1.73278 39.03 57.6465 -1.2 -9.02578 -2.4637e+06 -2.05702e+06 -1.7377e+06 929066 295311 780692
216 3 O 0.64657 39.3896 50.1023 -1.2 -8.91432 -2.40592e+06 -1.57038e+06 -1.18002e+06 1.01993e+06 130021 -1.51654e+06
217 1 Mg -2.61779 37.958 51.8774 1.2 -7.78941 -2.27351e+06 -1.02084e+06 3.68806e+06 2.0214e+06 -2.25868e+06 1.16119e+06
218 3 O 3.11426 39.3379 50.2495 -1.2 -9.19091 -4.35262e+06 -3.67478e+06 -3.91955e+06 275097 677013 -1.78096e+06
219 1 Mg -1.09042 37.9608 54.7703 1.2 -7.76332 1.92523e+06 3.12661e+06 398992 -868118 -690245 -932822
220 2 Si -1.08872 35.9825 52.9439 2.4 -33.471 8.79203e+06 3.61504e+06 8.0176e+06 -375899 741804 -191913
221 3 O -1.07895 34.4263 52.882 -1.2 -9.17366 -5.54797e+06 -2.97828e+06 -3.98892e+06 459762 897901 -279891
222 3 O -1.33281 36.9289 46.1689 -1.2 -7.52894 -5.0274e+06 -2.71373e+06 -5.09459e+06 402677 -1.62745e+06 950582
223 3 O -2.33787 36.5217 53.6647 -1.2 -8.9703 -3.56993e+06 -4.91077e+06 -5.35277e+06 -437474 1.75854e+06 -328269
224 3 O 0.252876 36.5889 53.5596 -1.2 -9.32429 -2.57678e+06 -3.04763e+06 -2.97452e+06 321088 -341304 234520
225 1 Mg -2.61133 45.0693 57.215 1.2 -7.96452 1.0039e+06 -1.71383e+06 3.47522e+06 -1.88488e+06 -1.65975e+06 34369.9
226 1 Mg -0.887577 44.9429 49.1233 1.2 -8.32543 2.01399e+06 1.61469e+06 2.31288e+06 140802 -343701 797934
227 2 Si -1.31244 42.3491 47.3409 2.4 -33.3149 6.9574e+06 6.20748e+06 8.87427e+06 29828.3 1.11528e+06 3.32551e+06
228 3 O -0.87567 43.795 47.3253 -1.2 -9.40548 -2.71991e+06 -7.00177e+06 -2.04987e+06 233145 -712542 -908998
229 3 O -0.954165 41.4065 51.2973 -1.2 -8.75506 -2.05127e+06 -2.33275e+06 -2.69975e+06 986295 -608138 -3.99269e+06
230 3 O -2.51341 41.8948 48.1755 -1.2 -9.06567 -1.93123e+06 -3.66625e+06 -1.5426e+06 -177827 -442217 -2.90683e+06
231 1 Mg -0.293586 40.1331 46.426 1.2 -7.10136 1.26512e+06 -2.23124e+06 329339 750682 1.83909e+06 318449
232 3 O -0.000365019 41.4272 48.0147 -1.2 -8.62071 -1.52117e+06 -3.56733e+06 -2.77906e+06 -986146 -577173 -557496
233 1 Mg 1.90583 40.329 54.1033 1.2 -8.49461 2.61395e+06 2.34779e+06 -226540 -778507 201664 1.13616e+06
234 2 Si 1.88937 43.1481 56.0003 2.4 -34.6611 1.10048e+07 5.07943e+06 6.70741e+06 -389240 496423 1.34337e+06
235 3 O 1.89631 41.655 56.0354 -1.2 -8.6145 -4.40914e+06 -5.10532e+06 -2.61336e+06 1.71244e+06 -382289 -1.85914e+06
236 3 O 1.80618 44.1478 52.1718 -1.2 -8.80688 -4.20969e+06 -4.21361e+06 -1.57992e+06 -837893 928057 -1.83737e+06
237 3 O 0.518975 43.699 55.3482 -1.2 -7.90551 -1.33741e+06 -5.77584e+06 -3.69905e+06 -130074 -1.55493e+06 47883.7
238 3 O 3.16532 43.892 55.3968 -1.2 -8.91494 -4.45549e+06 -3.52448e+06 -1.75685e+06 504424 1.31307e+06 -384594
239 1 Mg 0.571516 42.707 51.9294 1.2 -8.10523 5803.81 -1.6678e+06 3.24699e+06 -1.3024e+06 1.40214e+06 965472
240 1 Mg 1.60111 42.21 48.8726 1.2 -7.60027 2.2593e+06 1.59358e+06 161371 -129668 -468972 1.37765e+06
241 2 Si 2.00783 44.7033 50.6006 2.4 -33.7423 9.90267e+06 5.69545e+06 1.00693e+07 -249859 308820 1.64485e+06
242 3 O 2.17681 46.2729 50.6202 -1.2 -9.14332 -3.38287e+06 -3.46026e+06 -2.01496e+06 2.11395e+06 -83075.6 451558
243 3 O 1.74126 43.7043 57.4838 -1.2 -8.63365 -3.66115e+06 -4.78469e+06 -5.42298e+06 822089 -1.06692e+06 -248052
244 3 O 0.958395 43.9581 49.6987 -1.2 -9.26209 -2.90302e+06 -1.12648e+06 -2.38872e+06 -36505.4 -108788 -355500
245 1 Mg -2.40325 42.7253 51.6265 1.2 -8.15024 -35994.8 -1.09464e+06 3.03836e+06 1.20125e+06 -1.97701e+06 1.48843e+06
246 3 O 3.46502 44.1771 50.2296 -1.2 -8.53763 -3.35414e+06 -4.24521e+06 -3.48895e+06 -94408.8 -534301 -2.02307e+06
247 1 Mg -1.2398 42.7684 54.7296 1.2 -8.9316 3.19749e+06 2.20799e+06 1.86961e+06 404479 413179 -272027
248 2 Si -1.15272 40.6221 52.8329 2.4 -33.1927 7.38319e+06 6.9872e+06 1.17073e+07 1.79357e+06 -221851 1.12238e+06
249 3 O -1.22435 39.0815 52.7767 -1.2 -10.0117 -3.1016e+06 -3.87056e+06 -3.83688e+06 -291957 269699 -2.49029e+06
250 3 O -1.10213 41.7384 45.8369 -1.2 -8.1638 -2.02348e+06 -1.75253e+06 -3.44583e+06 -778602 -2.36706e+06 591358
251 3 O -2.37162 41.3238 53.5152 -1.2 -8.87146 -4.26058e+06 -3.14697e+06 -2.53875e+06 -965698 274976 523070
252 3 O 0.16006 41.3049 53.5324 -1.2 -8.51285 -2.24976e+06 -2.59957e+06 -3.75211e+06 1.59896e+06 -668313 133865
253 1 Mg -2.6384 49.595 57.1596 1.2 -8.18803 -108408 -704503 3.16438e+06 39313.8 -1.68965e+06 402199
254 1 Mg -0.716618 49.5052 49.2454 1.2 -8.32201 929587 2.25142e+06 1.8637e+06 70127.5 442412 657331
255 2 Si -0.36184 47.1292 47.0962 2.4 -33.9612 9.64394e+06 6.21323e+06 8.3417e+06 -1.26308e+06 984024 1.97005e+06
256 3 O -0.271655 48.7122 47.1422 -1.2 -9.23649 -2.83651e+06 -3.4781e+06 -157306 1.06963e+06 -812201 -57746.8
257 3 O -0.602481 45.8963 51.2485 -1.2 -8.83687 -3.25431e+06 -2.22721e+06 -1.98666e+06 -1.769e+06 -702170 -953137
258 3 O -1.44806 46.5577 48.076 -1.2 -9.09792 -3.15729e+06 -3.36952e+06 -2.25507e+06 -16080.5 -12300.1 -1.53336e+06
259 1 Mg -0.235351 44.5846 45.7219 1.2 -6.32537 711880 338463 -273163 182346 836290 589343
260 3 O 1.08816 46.5281 47.573 -1.2 -8.02711 -505727 -1.6314e+06 -2.85221e+06 309961 419405 -361947
261 1 Mg 1.90955 44.9762 54.093 1.2 -8.50279 2.20363e+06 449017 976137 1.43422e+06 -1.70005e+06 1.64646e+06
262 2 Si 1.80297 47.6173 56.052 2.4 -33.843 7.92034e+06 7.37881e+06 9.46905e+06 862153 423817 39462.7
263 3 O 1.72609 46.0881 56.1793 -1.2 -9.01967 -4.24736e+06 -5.45249e+06 -4.16517e+06 -159980 -396490 -1.75329e+06
264 3 O 2.33881 48.6713 52.1568 -1.2 -8.66076 -3.2376e+06 -2.67862e+06 -3.21959e+06 1.13011e+06 -1.27023e+06 -772882
265 3 O 0.534761 48.4122 55.499 -1.2 -8.44095 -1.93997e+06 -3.27526e+06 -4.8595e+06 -1.10738e+06 -1.02595e+06 628074
266 3 O 3.10737 48.4004 55.4533 -1.2 -9.08142 -2.8707e+06 -1.74061e+06 -3.18166e+06 1.57617e+06 460010 -1.0248e+06
267 1 Mg 0.683073 47.4491 51.6014 1.2 -8.05899 -63579.5 490480 3.69799e+06 -1.09622e+06 1.11491e+06 1.17908e+06
268 1 Mg 2.71634 47.054 48.6943 1.2 -7.86921 2.14774e+06 1.46542e+06 1.25974e+06 409184 803485 1.01366e+06
269 2 Si 2.35008 49.4423 50.6672 2.4 -33.725 8.19824e+06 4.98976e+06 1.04926e+07 376044 250611 115485
270 3 O 2.55576 50.9427 50.8864 -1.2 -9.45068 -3.54834e+06 -3.57956e+06 -4.16068e+06 -307028 -702163 934594
271 3 O 1.81768 48.2356 57.548 -1.2 -8.74219 -3.18561e+06 -3.45011e+06 -5.92142e+06 -717675 -187067 1.01931e+06