ITEM: TIMESTEP
3500
ITEM: NUMBER OF ATOMS
10500
ITEM: BOX BOUNDS xy xz yz pp pp pp
0.0000000000000000e+00 8.9687999999999999e+00 2.9895999999999998e+00
0.0000000000000000e+00 1.1872499999999999e+02 0.0000000000000000e+00
0.0000000000000000e+00 2.5297700000000000e+02 0.0000000000000000e+00
ITEM: ATOMS id type element xu yu zu q c_pe c_s[1] c_s[2] c_s[3] c_s[4] c_s[5] c_s[6]
1 1 Mg -3.57241 7.3173 57.1236 1.2 -8.35363 1.16089e+06 235623 2.97255e+06 -758281 -1.59463e+06 -34519.6
2 1 Mg -1.87484 7.07506 49.4015 1.2 -8.46154 -133481 1.53379e+06 1.48954e+06 -604732 -101655 2.68862e+06
3 2 Si -0.435007 3.94376 47.59 2.4 -36.9205 1.15441e+07 1.01632e+07 8.41062e+06 320283 1.20639e+06 2.12725e+06
4 3 O -0.517874 5.56109 47.2851 -1.2 -7.31542 -3.69718e+06 -2.06267e+06 -1.93858e+06 -401063 -855659 -828079
5 3 O -2.0253 3.70132 51.2694 -1.2 -8.49031 -2.30248e+06 407573 -4.9118e+06 -1.17047e+06 831285 -2.80249e+06
6 3 O -1.75073 3.48536 48.3305 -1.2 -7.80037 -2.28116e+06 -2.01858e+06 -5.30953e+06 338478 -131809 -233017
7 1 Mg 1.52408 2.45479 46.3606 1.2 -8.48211 2.98426e+06 709811 -161402 644902 781717 966331
8 3 O 1.05138 3.57419 48.1139 -1.2 -7.55158 -3.77281e+06 -3.06916e+06 -4.47926e+06 -673099 -2.40431e+06 -1.377e+06
9 1 Mg 0.826006 2.27238 53.8999 1.2 -8.69863 2.66959e+06 1.36287e+06 1.98419e+06 287221 -296879 390033
10 2 Si 0.866252 5.01943 56.0488 2.4 -34.9803 9.2209e+06 6.27145e+06 1.09344e+07 -134208 -241740 1.74446e+06
11 3 O 0.809968 3.47452 56.1338 -1.2 -8.69032 -3.33461e+06 -2.62549e+06 -3.51769e+06 443138 350104 -1.59365e+06
12 3 O 1.06802 6.24531 52.256 -1.2 -9.08971 -2.93869e+06 -3.82153e+06 -2.90633e+06 1.19866e+06 -769363 -1.96261e+06
13 3 O -0.401328 5.78589 55.4769 -1.2 -8.32854 -4.31729e+06 -2.05553e+06 -5.16185e+06 -622268 -806060 -629067
14 3 O 2.07489 5.66278 55.2611 -1.2 -8.53507 -4.32681e+06 -2.1743e+06 -2.55997e+06 139699 600389 -465682
15 1 Mg -0.443378 4.93604 51.6494 1.2 -8.34996 11029.3 -1.03912e+06 5.02766e+06 -1.64012e+06 1.0938e+06 1.91702e+06
16 1 Mg 2.57399 4.07824 49.3042 1.2 -8.83558 4.07348e+06 624842 1.7222e+06 -655383 827612 161734
17 2 Si 1.14845 6.8304 50.6232 2.4 -33.3169 9.69246e+06 6.85076e+06 1.1034e+07 528851 -779267 4.68027e+06
18 3 O 1.28225 8.39428 50.831 -1.2 -9.40348 -3.48405e+06 -2.3065e+06 -2.01444e+06 175604 -71553.6 562193
19 3 O 0.974345 5.68345 57.5702 -1.2 -8.11488 -3.7673e+06 -2.51529e+06 -2.82744e+06 271906 274085 827067
20 3 O -0.253982 6.28392 50.1564 -1.2 -8.57911 -2.30023e+06 -2.66224e+06 -5.92522e+06 1.47537e+06 -376412 -2.00101e+06
21 1 Mg -3.51739 4.9182 52.1281 1.2 -7.73238 949021 -1.9108e+06 3.74326e+06 2.54164e+06 -1.37468e+06 1.39971e+06
22 3 O 2.44225 6.14265 49.8982 -1.2 -9.14129 -2.46542e+06 -689427 -637495 -1.96141e+06 -1.4121e+06 -1.05155e+06
23 1 Mg -2.02694 4.66027 54.7937 1.2 -8.81158 3.81031e+06 1.867e+06 1.18813e+06 372646 -654306 266975
24 2 Si -2.00299 2.75684 52.664 2.4 -33.8157 9.5909e+06 2.77323e+06 1.40068e+07 378050 -365746 -745422
25 3 O -1.98802 1.22359 52.6027 -1.2 -9.76436 -4.19803e+06 -2.76349e+06 -3.67814e+06 -107916 -539562 -573536
26 3 O -0.256768 3.11297 46.2537 -1.2 -6.49812 -5.62441e+06 -2.62434e+06 -3.99468e+06 -644954 -2.94917e+06 -1.48319e+06
27 3 O -3.37449 3.25987 53.444 -1.2 -8.45484 -2.81834e+06 -1.02765e+06 -3.82391e+06 -757751 -784298 -246190
28 3 O -0.863921 3.36724 53.5639 -1.2 -8.60414 -4.00751e+06 -3.78507e+06 -3.10023e+06 265954 -455744 655039
29 1 Mg -3.22961 11.7852 57.1347 1.2 -7.5139 565778 506625 4.06201e+06 -1.45889e+06 -1.60587e+06 -675224
30 1 Mg -1.53464 11.7156 49.0685 1.2 -8.22045 774765 2.21498e+06 810166 314739 69338.4 667449
31 2 Si -1.12374 9.29961 47.4254 2.4 -34.2349 9.84212e+06 7.20264e+06 8.12999e+06 -354732 2.83402e+06 2.37484e+06
32 3 O -1.12493 10.8346 47.2176 -1.2 -9.36869 -2.79841e+06 -5.66434e+06 -2.08537e+06 -738563 -914961 -34187.8
33 3 O -2.00736 8.08259 51.4888 -1.2 -8.81177 -3.47579e+06 -2.18517e+06 -4.9428e+06 1.00668e+06 -1.66506e+06 -1.82851e+06
34 3 O -2.07511 8.79301 48.5406 -1.2 -8.69819 -1.04983e+06 -3.58628e+06 -5.11592e+06 325875 -98833.7 -1.65003e+06
35 1 Mg -0.0787517 7.08344 46.3521 1.2 -7.94248 2.91597e+06 -465755 -530544 688085 1.66872e+06 -85679.1
36 3 O 0.415652 8.61166 47.7108 -1.2 -8.44879 -1.93857e+06 -1.18148e+06 -1.03462e+06 -1.3154e+06 117185 -613281
37 1 Mg 1.16207 7.07959 54.0646 1.2 -8.49153 2.45552e+06 1.95716e+06 778346 12565.7 1.00092e+06 696607
38 2 Si 0.991086 9.95991 56.2113 2.4 -33.7704 7.4555e+06 7.69953e+06 1.01747e+07 -1.45626e+06 -448993 -1.07339e+06
39 3 O 0.929982 8.33728 56.3589 -1.2 -8.70174 -3.77672e+06 -941096 -4.46939e+06 -392542 680768 -366933
40 3 O 1.32689 10.8752 52.1394 -1.2 -8.97382 -2.0867e+06 -4.03288e+06 -3.70545e+06 1.03208e+06 -25100.7 -1.69052e+06
41 3 O -0.288263 10.6314 55.5369 -1.2 -8.79346 -2.97226e+06 -4.18721e+06 -2.94e+06 -683721 303504 540693
42 3 O 2.23012 10.4609 55.3828 -1.2 -8.99116 -3.25533e+06 -4.6635e+06 -2.34247e+06 959656 162985 831248
43 1 Mg -0.433165 9.46021 51.7128 1.2 -7.90724 999039 787623 4.33616e+06 -164909 1.37903e+06 627371
44 1 Mg 1.81433 9.30946 48.9894 1.2 -7.86839 3.62455e+06 1.12467e+06 494992 -586.7 201894 1.10676e+06
45 2 Si 1.35206 11.5543 50.676 2.4 -33.4903 8.71677e+06 7.6123e+06 8.51491e+06 -61072.4 113725 456582
46 3 O 1.43799 13.1205 50.7898 -1.2 -9.52886 -3.39821e+06 -3.78744e+06 -2.51644e+06 1.55434e+06 -681539 841150
47 3 O 1.14327 10.5306 57.7042 -1.2 -9.07725 -2.57608e+06 -3.94829e+06 -2.85623e+06 772741 -294363 -554966
48 3 O 0.0990259 10.8601 49.9455 -1.2 -8.92485 -2.73992e+06 -2.59839e+06 -1.90041e+06 1.02773e+06 -772609 -106551
49 1 Mg -3.34356 9.48106 52.1886 1.2 -7.69597 -250622 -1.72855e+06 3.2827e+06 1.80718e+06 -1.50508e+06 1.8887e+06
50 3 O 2.61227 11.0179 49.8429 -1.2 -8.94831 -3.72465e+06 -3.64794e+06 -660812 -171506 -377813 -1.28081e+06
51 1 Mg -1.74873 9.53839 54.9019 1.2 -8.51101 2.84635e+06 2.01418e+06 880731 -560976 -1.37372e+06 -1.0921e+06
52 2 Si -1.93572 7.45408 52.9867 2.4 -33.5486 8.39232e+06 5.03965e+06 1.12244e+07 529405 -121429 502102
53 3 O -1.86713 5.91767 52.986 -1.2 -9.20479 -2.83116e+06 -3.12475e+06 -4.87209e+06 340875 -430907 -222779
54 3 O -1.44779 8.47452 46.0597 -1.2 -7.29977 -3.44043e+06 -1.92638e+06 -1.55601e+06 -278466 -1.17739e+06 999403
55 3 O -3.05708 8.14777 53.8094 -1.2 -9.15821 -3.48518e+06 -3.28155e+06 -3.67975e+06 307002 1.59086e+06 -425979
56 3 O -0.506613 8.21494 53.4677 -1.2 -8.42744 -1.0285e+06 -3.08836e+06 -2.53344e+06 1.57694e+06 -336831 -440070
57 1 Mg -3.14236 16.5516 57.0557 1.2 -7.43434 -396860 -95858.6 4.39116e+06 -983786 -1.52986e+06 73711.2
58 1 Mg -1.45381 16.6347 49.2617 1.2 -9.03928 2.2721e+06 3.2922e+06 1.10179e+06 122446 1.06628e+06 -244624
59 2 Si -0.535807 14.2349 47.5931 2.4 -34.724 9.9123e+06 4.61479e+06 1.10532e+07 -1.25726e+06 1.39003e+06 747863
60 3 O -0.68395 15.7793 47.6356 -1.2 -8.38643 -3.50302e+06 -5.1476e+06 -4.18133e+06 -1.06987e+06 -1.78493e+06 -1.36429e+06
61 3 O -1.73495 12.7808 51.34 -1.2 -9.00198 -2.27747e+06 -3.31372e+06 -3.50876e+06 -21651.9 522447 -678418
62 3 O -1.70436 13.6094 48.5391 -1.2 -8.39878 -2.04406e+06 -4.49523e+06 -3.52521e+06 812807 -1.31019e+06 -461143
63 1 Mg -0.313856 12.0158 46.1013 1.2 -6.691 1.96444e+06 202855 -1.64143e+06 -482664 1.88742e+06 629664
64 3 O 0.773676 13.4807 47.8716 -1.2 -8.62036 -3.83408e+06 -1.00345e+06 -1.97321e+06 1.05069e+06 1.15267e+06 428603
65 1 Mg 1.44029 11.9386 54.3376 1.2 -8.48053 2.50289e+06 1.16854e+06 -355853 -333136 146135 1.57835e+06
66 2 Si 1.0813 14.6567 56.0605 2.4 -32.8858 7.83482e+06 9.4669e+06 9.56982e+06 -796227 1.89955e+06 -538675
67 3 O 1.10283 13.0801 56.1249 -1.2 -9.38649 -3.14919e+06 -1.06223e+06 -3.03989e+06 -1.29065e+06 -602536 -1.17897e+06
68 3 O 1.79768 15.4893 52.2919 -1.2 -9.10469 -3.83031e+06 -2.74352e+06 -3.19123e+06 749482 -283043 -1.49232e+06
69 3 O -0.294303 15.3678 55.4791 -1.2 -8.64995 171871 -3.92482e+06 -1.937e+06 -1.70086e+06 -273311 183645
70 3 O 2.36312 15.246 55.3373 -1.2 -9.46315 -2.96106e+06 -5.20697e+06 -2.12303e+06 1.33717e+06 943735 312245
71 1 Mg 0.0352814 14.169 52.0261 1.2 -7.9588 87735.5 269203 4.57073e+06 -960727 1.54681e+06 486982
72 1 Mg 2.40076 13.8154 49.0939 1.2 -8.13284 2.75144e+06 1.29231e+06 -122065 683221 722963 486573
73 2 Si 1.54377 16.2042 50.828 2.4 -34.0406 1.1227e+07 7.81982e+06 8.9585e+06 1.31537e+06 1.13622e+06 1.13892e+06
74 3 O 1.68516 17.8241 50.9303 -1.2 -8.94628 -4.40806e+06 -1.6326e+06 -2.05117e+06 1.89318e+06 262741 -804106
75 3 O 1.17522 15.2337 57.6382 -1.2 -9.61295 -800657 -3.7221e+06 -1.62862e+06 339266 -158523 794138
76 3 O 0.0799831 15.6712 50.3586 -1.2 -8.21158 -1.97511e+06 -3.07901e+06 -2.01783e+06 1.38025e+06 556302 -1.06371e+06
77 1 Mg -3.01238 14.0251 51.9752 1.2 -7.47608 -965320 -2.04747e+06 2.25418e+06 3.75038e+06 -1.27218e+06 929152
78 3 O 2.696 15.6911 49.8973 -1.2 -8.73483 -3.49305e+06 -2.52626e+06 -1.64616e+06 612817 378360 -1.0808e+06
79 1 Mg -1.98457 14.2449 54.8039 1.2 -8.51797 2.00175e+06 3.06524e+06 -899777 707114 156770 -1.28933e+06
80 2 Si -1.62814 12.0955 52.806 2.4 -32.9575 9.45463e+06 4.72886e+06 1.17778e+07 1.08931e+06 776284 -44421.6
81 3 O -1.78622 10.5942 52.8558 -1.2 -9.55193 -4.0342e+06 -5.03751e+06 -2.85529e+06 952648 -636457 -315250
82 3 O -0.842823 13.8753 45.9581 -1.2 -7.55794 -3.31233e+06 -978772 -72238 715082 -521775 -232652
83 3 O -2.90053 12.7914 53.648 -1.2 -9.26701 -2.48991e+06 -4.23064e+06 -1.68873e+06 -937494 -630068 349792
84 3 O -0.242025 12.7477 53.482 -1.2 -8.72325 -79688.6 -3.87034e+06 -2.40374e+06 1.95429e+06 1.09494e+06 660701
85 1 Mg -2.84985 21.3303 57.2993 1.2 -7.52431 539434 348648 3.55563e+06 -102822 -1.51486e+06 260018
86 1 Mg -1.40763 20.9738 49.3205 1.2 -8.60578 1.25945e+06 1.91617e+06 1.32427e+06 58513.2 104254 1.1236e+06
87 2 Si -0.625921 18.9549 47.2411 2.4 -34.9854 1.27293e+07 4.77473e+06 8.42868e+06 1.37427e+06 1.93165e+06 -467536
88 3 O -0.538584 20.4941 47.332 -1.2 -8.60961 -4.37525e+06 -6.1894e+06 -1.55603e+06 -3382.69 -892440 -276260
89 3 O -1.44458 17.69 51.3457 -1.2 -8.65934 -4.71135e+06 -3.4346e+06 -3.5421e+06 1.44055e+06 221338 -2.32876e+06
90 3 O -1.86137 18.4877 48.2904 -1.2 -7.9275 -342117 -2.01262e+06 -2.07388e+06 171462 -2.05826e+06 -1.54557e+06
91 1 Mg 0.131632 16.7681 46.1536 1.2 -7.1029 3.3247e+06 -668026 892794 1.40334e+06 1.52445e+06 360169
92 3 O 0.790878 18.3239 47.7587 -1.2 -8.18364 -3.56669e+06 -2.52413e+06 -994255 -167041 783915 357678
93 1 Mg 1.6753 16.7059 54.1135 1.2 -8.50988 1.66111e+06 1.327e+06 -69425 -524259 -42011.9 1.78445e+06
94 2 Si 1.45623 19.1968 56.1684 2.4 -33.8073 5.84024e+06 5.00709e+06 1.0956e+07 450195 -110659 1.8894e+06
95 3 O 1.29428 17.679 56.0973 -1.2 -9.21446 -2.81407e+06 -4.6197e+06 -3.39823e+06 -96603.4 -679884 -1.66116e+06
96 3 O 1.66597 20.3195 52.318 -1.2 -8.54023 -3.08168e+06 -4.11876e+06 -4.64646e+06 -1.03789e+06 -318855 -1.08084e+06
97 3 O 0.205014 19.9819 55.7461 -1.2 -8.88222 -4.32406e+06 -4.45235e+06 -4.17401e+06 656193 -967014 -188712
98 3 O 2.64027 19.8574 55.3594 -1.2 -9.04805 -4.06234e+06 -4.16224e+06 -3.63956e+06 1.18311e+06 1.09167e+06 51393.4
99 1 Mg 0.223707 18.8648 51.8628 1.2 -8.29712 328653 -1.44355e+06 3.31815e+06 -1.52205e+06 1.76133e+06 2.25254e+06
100 1 Mg 2.14809 18.8262 48.9978 1.2 -8.49685 3.57389e+06 853919 381280 -135211 -1.35239e+06 554799
101 2 Si 1.45142 20.9841 50.9067 2.4 -33.9047 9.537e+06 6.66336e+06 8.49458e+06 -335409 818720 3.76925e+06
102 3 O 1.60158 22.5376 51.1592 -1.2 -9.42546 -2.90857e+06 -3.53351e+06 -3.4902e+06 2.24738e+06 -30829.6 2.0975e+06
103 3 O 1.67878 19.7029 57.7413 -1.2 -8.78217 -2.09208e+06 -2.76698e+06 -4.5921e+06 421617 -949106 1.19404e+06
104 3 O 0.257813 20.1673 50.2791 -1.2 -8.63064 -4.30712e+06 -2.46878e+06 -3.3108e+06 830579 -394440 -787753
105 1 Mg -2.70265 18.9087 52.016 1.2 -7.93825 -55896.5 -1.18335e+06 3.06275e+06 2.22097e+06 -1.06457e+06 1.40788e+06
106 3 O 2.7542 20.5153 50.0215 -1.2 -8.64965 -3.15367e+06 -3.04355e+06 -2.41361e+06 -1.48277e+06 929612 -586568
107 1 Mg -1.54053 19.0286 55.0394 1.2 -8.15547 2.13211e+06 2.82491e+06 1.09882e+06 495188 447675 126401
108 2 Si -1.38089 16.9093 52.7915 2.4 -33.8048 7.76369e+06 7.09483e+06 1.23885e+07 1.22856e+06 455679 -210190
109 3 O -1.3998 15.3156 52.915 -1.2 -8.96173 -3.64297e+06 -719642 -4.3844e+06 859234 -832314 -1.2054e+06
110 3 O -0.901836 18.3504 45.8267 -1.2 -7.7499 -3.57409e+06 -1.60332e+06 -3.14692e+06 -704811 -483945 248747
111 3 O -2.59095 17.5027 53.6331 -1.2 -9.0188 -3.62869e+06 -4.48338e+06 -2.03787e+06 -100106 241264 16060.7
112 3 O 0.00701458 17.5239 53.3739 -1.2 -8.70918 -2.0477e+06 -3.6167e+06 -3.76472e+06 223830 -67348.6 1.08074e+06
113 1 Mg -2.7549 26.0658 57.4603 1.2 -8.25352 -193613 -1.34045e+06 4.22047e+06 -820447 -1.85553e+06 67735.1
114 1 Mg -1.30427 26.184 49.6547 1.2 -8.91036 3.41384e+06 800775 -127881 785770 312865 -848591
115 2 Si -0.974501 23.7822 48.0767 2.4 -33.8304 1.1206e+07 1.00672e+07 7.56503e+06 449514 1.4094e+06 269887
116 3 O -1.64379 25.2086 48.0552 -1.2 -8.42267 -4.26143e+06 -5.83883e+06 -4.17879e+06 -1.28661e+06 1.76362e+06 -3.34711e+06
117 3 O -1.2049 22.4282 51.4966 -1.2 -9.00108 -2.88865e+06 -2.18585e+06 -4.56031e+06 -955452 -588420 -422866
118 3 O -1.96252 22.695 48.6627 -1.2 -8.76096 -3.02447e+06 -5.39197e+06 -3.4537e+06 880398 -290629 136015
119 1 Mg 0.0781629 21.9704 46.3712 1.2 -7.03558 1.71102e+06 1.12009e+06 -192080 15016.1 1.72959e+06 340455
120 3 O 0.529628 23.1903 48.2232 -1.2 -8.56492 -32363.2 -2.60986e+06 -1.2303e+06 -2.06256e+06 374939 -10536.9
121 1 Mg 1.72455 21.3334 54.4121 1.2 -8.4631 2.8242e+06 1.21023e+06 1.69333e+06 223844 -493012 2.14799e+06
122 2 Si 1.63833 24.0146 56.3148 2.4 -33.0427 8.6568e+06 8.14753e+06 9.60162e+06 -77706.3 301841 1.02991e+06
123 3 O 1.6022 22.3472 56.442 -1.2 -9.51222 -3.23093e+06 114102 -2.87629e+06 -1.03004e+06 374582 -1.7084e+06
124 3 O 1.71117 25.1769 52.6316 -1.2 -9.27761 -1.96455e+06 -2.33851e+06 -2.78077e+06 -102181 97913.9 -517148
125 3 O 0.343543 24.7547 55.7057 -1.2 -9.11375 -2.29402e+06 -1.49854e+06 -2.62645e+06 -691166 -673104 -655063
126 3 O 2.92623 24.5831 55.6613 -1.2 -8.90525 -2.18768e+06 -1.86746e+06 -3.28739e+06 291107 883407 -637948
127 1 Mg 0.16787 23.811 52.0401 1.2 -7.78305 -832674 313677 3.69396e+06 -1.96568e+06 1.70691e+06 1.03547e+06
128 1 Mg 2.29836 23.2104 49.3959 1.2 -7.84144 2.03543e+06 2.40346e+06 -701689 -841938 1.27017e+06 686565
129 2 Si 1.67825 25.7984 51.1314 2.4 -33.5674 9.0297e+06 5.72118e+06 1.09221e+07 487536 1.81228e+06 2.35609e+06
130 3 O 1.75561 27.3698 51.1858 -1.2 -9.16225 -4.35743e+06 -1.99869e+06 -3.426e+06 904542 -180841 436023
131 3 O 1.68883 24.6535 57.8337 -1.2 -9.14662 -3.36461e+06 -3.11588e+06 -4.56051e+06 -56997.1 -25705.2 1.1472e+06
132 3 O 0.308872 25.1408 50.3993 -1.2 -8.33805 -980269 -4.13368e+06 -1.66489e+06 2.59887e+06 1.9539e+06 17735.3
133 1 Mg -2.70465 23.7551 51.9958 1.2 -7.45239 543205 1.17161e+06 3.30112e+06 1.94244e+06 -1.82949e+06 1.3163e+06
134 3 O 2.87295 25.0989 50.4008 -1.2 -9.13349 -4.31705e+06 -555480 -3.874e+06 -186414 987548 -190911
135 1 Mg -1.18335 23.5555 54.9193 1.2 -8.39143 2.83886e+06 3.17538e+06 371789 -260688 -353288 -285291
136 2 Si -1.29136 21.694 52.9296 2.4 -33.8562 8.73809e+06 4.84302e+06 8.99922e+06 182893 -403823 1.1578e+06
137 3 O -1.34904 20.1463 52.8565 -1.2 -8.98106 -4.16556e+06 -2.98896e+06 -2.66973e+06 346687 69336.5 -1.45853e+06
138 3 O -1.02714 23.6502 46.2758 -1.2 -7.87509 -2.44592e+06 -1.22268e+06 490671 -1.52384e+06 -87105.9 -1.11989e+06
139 3 O -2.57319 22.2554 53.6783 -1.2 -8.85865 -3.30072e+06 -4.17486e+06 -1.5367e+06 142682 -276842 -1.94423e+06
140 3 O -0.0703854 22.257 53.7232 -1.2 -9.01428 -3.89059e+06 -3.41115e+06 -3.01223e+06 -58675.1 192013 -928417
141 1 Mg -2.64773 30.9732 57.2279 1.2 -8.1388 -343879 -1.54643e+06 4.70971e+06 -1.77508e+06 -1.53009e+06 -936363
142 1 Mg -1.11045 30.4663 49.6228 1.2 -8.51458 1.36117e+06 1.80273e+06 1.21273e+06 -944918 -27258.7 1.86919e+06
143 2 Si -1.06024 28.1551 47.3937 2.4 -35.6231 1.22142e+07 7.49231e+06 7.92579e+06 -1.31791e+06 1.10761e+06 7812.8
144 3 O -0.478245 29.6273 47.5193 -1.2 -8.11416 -3.52027e+06 -5.46687e+06 -1.18832e+06 1.06658e+06 -1.75879e+06 1.2641e+06
145 3 O -1.09027 27.1383 51.6318 -1.2 -8.61434 -2.61782e+06 -1.47014e+06 -4.89774e+06 397615 66290.1 -2.44809e+06
146 3 O -2.54283 27.9553 47.9331 -1.2 -7.82776 -2.27698e+06 -3.11174e+06 -627641 211573 -966260 -825848
147 1 Mg -1.80891 25.6344 46.1162 1.2 -7.3267 2.23183e+06 3.27054e+06 -227198 -30892.4 -1.38962e+06 892435
148 3 O -0.0490749 27.468 48.6382 -1.2 -7.26049 -1.35683e+06 -6.34356e+06 -805732 -349663 627946 -595928
149 1 Mg 1.84457 26.1747 54.4687 1.2 -8.3909 3.88406e+06 1.93415e+06 1.33433e+06 -596251 483555 744921
150 2 Si 1.68701 28.7898 56.4493 2.4 -33.3212 9.64977e+06 5.8905e+06 1.04187e+07 244582 -103679 327836
151 3 O 1.72749 27.2141 56.5464 -1.2 -9.388 -3.56783e+06 132546 -3.91149e+06 -341358 -370639 -1.04907e+06
152 3 O 1.743 29.9826 52.5125 -1.2 -9.00134 -2.50394e+06 -2.74048e+06 -2.13018e+06 -410852 -397416 -2.14132e+06
153 3 O 0.429641 29.5664 55.8029 -1.2 -9.14256 -2.61454e+06 -1.90242e+06 -3.84195e+06 -1.18946e+06 -1.2809e+06 -1.33862e+06
154 3 O 3.02 29.516 55.7631 -1.2 -8.9684 -1.14537e+06 -1.77155e+06 -4.04095e+06 1.44324e+06 1.09231e+06 -1.01213e+06
155 1 Mg 0.371673 28.5724 51.8658 1.2 -8.16109 -59097.5 -1.68923e+06 4.87016e+06 -379242 1.0438e+06 953614
156 1 Mg 1.76419 28.21 49.0348 1.2 -8.62579 4.4735e+06 1.75834e+06 770283 362873 -649953 613690
157 2 Si 1.8646 30.583 50.9499 2.4 -33.2907 8.45608e+06 6.11831e+06 1.15966e+07 -771585 -630158 1.13248e+06
158 3 O 1.9346 32.1281 50.9301 -1.2 -9.72677 -3.90841e+06 -2.6591e+06 -3.30607e+06 -784330 -233819 940481
159 3 O 1.72314 29.4715 57.8817 -1.2 -8.97151 -4.40409e+06 -3.06027e+06 -6.85456e+06 429720 -104285 804727
160 3 O 0.729591 29.7837 50.1903 -1.2 -8.85168 -3.92852e+06 -3.27406e+06 -3.8674e+06 372323 -1.58209e+06 116884
161 1 Mg -2.57976 28.5744 52.0959 1.2 -8.07889 486118 -959871 4.42647e+06 398923 -1.43526e+06 834939
162 3 O 3.21419 29.8145 50.3674 -1.2 -8.60428 -3.10028e+06 -2.48705e+06 -2.80226e+06 -2.29623e+06 72870.5 271437
163 1 Mg -1.23115 28.6131 55.2043 1.2 -8.71793 1.74749e+06 1.76912e+06 2.32528e+06 -238690 -316888 -133744
164 2 Si -1.19651 26.4804 53.1667 2.4 -34.2983 7.97843e+06 6.94509e+06 1.15421e+07 1.06221e+06 -1.00791e+06 209941
165 3 O -1.24383 24.9233 53.1402 -1.2 -9.50446 -3.1698e+06 -1.43692e+06 -3.11583e+06 121275 603592 -80984.9
166 3 O -0.903558 27.4693 46.0327 -1.2 -7.95092 -3.41471e+06 108956 -3.53327e+06 1.44625e+06 1.03125e+06 -67016
167 3 O -2.46521 27.1644 53.8593 -1.2 -8.59856 -4.27445e+06 -2.75536e+06 -1.7157e+06 -1.06239e+06 -158544 91357.4
168 3 O 0.00342175 27.2672 53.8355 -1.2 -8.20806 -3.77017e+06 -2.00403e+06 -3.40467e+06 914940 -495316 490013
169 1 Mg -2.71778 35.5835 57.2305 1.2 -7.59012 -440436 219564 4.76114e+06 -1.85295e+06 -1.51443e+06 -1.29892e+06
170 1 Mg -0.864906 35.7241 49.4393 1.2 -8.95831 2.87464e+06 2.52395e+06 2.03765e+06 384555 -1.04398e+06 -206691
171 2 Si -0.791716 32.7511 47.8674 2.4 -34.2883 9.44721e+06 8.82438e+06 4.804e+06 1.67031e+06 1.3981e+06 1.99051e+06
172 3 O -0.973618 34.2549 47.9388 -1.2 -8.12435 -5.01894e+06 -6.69046e+06 -2.4742e+06 -1.08292e+06 1.23079e+06 110148
173 3 O -1.02441 31.7891 51.6278 -1.2 -8.95856 -2.15325e+06 -2.49758e+06 -4.61499e+06 -573545 -1.39243e+06 -586839
174 3 O -1.87421 31.9864 48.5537 -1.2 -8.59948 -2.37964e+06 -6.67528e+06 -4.68677e+06 -1.65442e+06 1.36669e+06 78583.4
175 1 Mg 0.275507 30.8575 46.2561 1.2 -7.00433 2.55704e+06 1.7993e+06 236169 8879.79 1.72389e+06 -632533
176 3 O 0.765297 32.2553 48.0095 -1.2 -8.49941 -380109 -3.87751e+06 1.07244e+06 437716 -277270 1.75489e+06
177 1 Mg 1.70148 30.7697 54.4801 1.2 -8.37948 3.45514e+06 1.80098e+06 1.00836e+06 8519.53 -737900 768937
178 2 Si 1.68032 33.5525 56.2805 2.4 -33.4194 9.97816e+06 3.50042e+06 1.24877e+07 28844.3 -166482 -1.47263e+06
179 3 O 1.75456 32.0586 56.5523 -1.2 -9.2305 -4.48412e+06 -3.47725e+06 -5.53618e+06 -544944 -332294 -1.22774e+06
180 3 O 2.05281 34.7749 52.4481 -1.2 -9.22383 -4.56866e+06 -1.35847e+06 -4.39423e+06 769916 528430 -498088
181 3 O 0.390607 34.2882 55.637 -1.2 -8.96906 -2.46867e+06 -2.40181e+06 -4.87021e+06 -1.42321e+06 125091 -136872
182 3 O 3.00997 34.243 55.4785 -1.2 -8.9267 -268440 -1.77885e+06 -2.36256e+06 1.24501e+06 -634978 -94248.5
183 1 Mg 0.161274 33.4467 51.6032 1.2 -7.86804 881388 -1.24588e+06 2.69684e+06 -1.66276e+06 1.59499e+06 766528
184 1 Mg 2.41599 32.9605 49.0724 1.2 -8.13241 2.82502e+06 2.49879e+06 -78700.1 322374 1.52792e+06 467006
185 2 Si 2.05328 35.3163 50.9437 2.4 -33.1886 1.1604e+07 6.2788e+06 9.62927e+06 -806207 672422 -1.16924e+06
186 3 O 2.11835 36.9367 50.8655 -1.2 -9.62398 -3.17429e+06 -996048 -1.65127e+06 -603662 -615793 928792
187 3 O 1.7606 34.2385 57.736 -1.2 -9.12847 -3.22928e+06 -3.53932e+06 -4.09428e+06 512685 -470488 15483
188 3 O 0.619138 34.7252 50.3241 -1.2 -8.67983 -2.30275e+06 -2.63381e+06 -5.37575e+06 1.61915e+06 379501 2.10301e+06
189 1 Mg -2.96147 33.0649 52.2877 1.2 -7.86958 414402 -1.71351e+06 2.46671e+06 1.82921e+06 -2.72647e+06 518481
190 3 O 3.25697 34.4832 50.2635 -1.2 -8.49103 -2.36153e+06 -1.11984e+06 -2.94246e+06 -772319 465196 1.06239e+06
191 1 Mg -1.16119 33.2883 54.9269 1.2 -8.60544 2.73227e+06 1.07588e+06 1.39732e+06 -356530 -726909 -1.30688e+06
192 2 Si -1.07886 31.2086 53.0821 2.4 -33.4451 1.02874e+07 8.06814e+06 9.60836e+06 1.99781e+06 -359324 -336524
193 3 O -1.24719 29.6185 53.0862 -1.2 -9.07188 -3.45944e+06 -2.5582e+06 -2.50232e+06 1.19501e+06 -346835 983174
194 3 O -1.05325 32.4502 46.159 -1.2 -8.01345 -2.01745e+06 -763996 -277937 -2.59791e+06 109101 270321
195 3 O -2.52118 31.8872 53.7167 -1.2 -8.77455 354665 -3.19453e+06 -3.31331e+06 -994500 -581693 576807
196 3 O 0.18402 31.9954 53.7985 -1.2 -8.72259 -593583 -1.32623e+06 -3.3237e+06 1.69106e+06 52364.4 472796
197 1 Mg -2.76049 40.3233 57.0305 1.2 -7.076 -638399 -507631 4.35415e+06 -1.22051e+06 -1.34953e+06 -827169
198 1 Mg -0.838826 40.1216 49.403 1.2 -8.13143 -1.06658e+06 1.7167e+06 -184677 -68680.7 -595138 2.25474e+06
199 2 Si -0.86106 37.2318 47.0441 2.4 -36.3688 1.47283e+07 8.55048e+06 8.38289e+06 457295 -164828 -1.21354e+06
200 3 O -0.36502 38.7453 46.5968 -1.2 -7.52427 -2.97211e+06 497258 -1.02894e+06 1.55947e+06 -685728 -968181
201 3 O -1.05892 36.6194 51.5532 -1.2 -8.87311 -1.99203e+06 -5.17628e+06 -3.53009e+06 1.6581e+06 -15738.9 -755404
202 3 O -2.18288 37.1081 47.9169 -1.2 -7.79656 -2.35993e+06 -2.05216e+06 -850878 -356343 -828226 -1.15693e+06
203 1 Mg -1.46628 34.5147 45.9426 1.2 -7.47549 1.71806e+06 729797 -197532 -348113 -307243 527682
204 3 O 0.397549 36.8116 48.0808 -1.2 -7.50763 -1.59118e+06 -4.51638e+06 -320907 205797 1.25073e+06 802066
205 1 Mg 1.94221 35.7205 54.3019 1.2 -8.24634 2.05547e+06 1.50962e+06 700028 10274.1 136926 680078
206 2 Si 1.80434 38.3823 55.9363 2.4 -32.9813 7.77203e+06 5.7392e+06 8.19461e+06 -2.31094e+06 -29710 -2.50856e+06
207 3 O 1.85 36.8605 56.1483 -1.2 -9.51531 -3.20444e+06 -4.19956e+06 -3.75276e+06 -327793 186978 -2.53508e+06
208 3 O 2.13922 39.4255 52.1446 -1.2 -9.34892 -2.12116e+06 -3.09256e+06 -5.10062e+06 506437 -44401.9 -2.75168e+06
209 3 O 0.462649 39.1323 55.3266 -1.2 -8.83467 -677496 -2.47207e+06 -2.8571e+06 -1.13367e+06 -753902 958767
210 3 O 3.0278 38.9963 55.1204 -1.2 -9.31757 -2.55518e+06 -5.01815e+06 -2.32776e+06 1.12626e+06 885356 728669
211 1 Mg 0.608579 38.0167 52.0293 1.2 -7.25112 529960 117443 4.12226e+06 232315 735904 826199
212 1 Mg 2.01796 37.675 48.8532 1.2 -8.57939 4.54618e+06 1.03557e+06 1.32575e+06 -65229.5 -43667.8 865035
213 2 Si 2.11698 40.0815 50.6553 2.4 -33.4699 7.64652e+06 7.47594e+06 8.32447e+06 -683279 -655246 2.72624e+06
214 3 O 2.09269 41.6172 50.708 -1.2 -9.67053 -1.48735e+06 -4.39771e+06 -2.13655e+06 -278812 523846 34995.2
215 3 O 1.80561 38.9188 57.4006 -1.2 -9.48957 -1.60597e+06 -4.40566e+06 -5.49407e+06 371773 -1.05154e+06 -662600
216 3 O 0.882717 39.4412 49.9396 -1.2 -9.07172 -4.86169e+06 -2.46897e+06 -1.72542e+06 683450 -1.50103e+06 -949305
217 1 Mg -2.42291 37.8863 52.0131 1.2 -7.6615 -1.92945e+06 -1.01328e+06 3.57675e+06 1.29316e+06 -1.30963e+06 982461
218 3 O 3.44884 39.3865 49.9549 -1.2 -8.43884 -2.04956e+06 -2.7601e+06 -1.98441e+06 -1.5406e+06 216389 -991037
219 1 Mg -1.24941 37.896 54.7753 1.2 -8.1056 1.3632e+06 1.54338e+06 -906103 152355 -279079 -2.37536e+06
220 2 Si -1.05239 35.9476 53.0558 2.4 -33.2115 5.79492e+06 5.0181e+06 1.1281e+07 -367409 -405566 -717076
221 3 O -1.08815 34.4289 52.8787 -1.2 -8.97654 -3.21158e+06 -3.0157e+06 -4.56531e+06 390987 -972425 1.41053e+06
222 3 O -1.00174 36.2783 45.767 -1.2 -7.34747 -4.55548e+06 -2.51397e+06 -2.04299e+06 71833 651805 1.95835e+06
223 3 O -2.34774 36.7027 53.7573 -1.2 -9.23597 -2.62832e+06 -5.34521e+06 -4.83929e+06 -1.58505e+06 -197427 -1.03797e+06
224 3 O 0.163395 36.5438 53.7447 -1.2 -9.41398 -3.50471e+06 -4.14105e+06 -4.34946e+06 504710 -1.8415e+06 -417685
225 1 Mg -2.56947 45.1044 56.9318 1.2 -7.10948 -107375 129380 4.56133e+06 -1.09635e+06 -1.25121e+06 -1.18954e+06
226 1 Mg -0.982508 45.1622 49.445 1.2 -7.95996 497833 3.2192e+06 -144190 -2736.36 148394 212934
227 2 Si -1.80133 42.6383 47.5048 2.4 -32.6387 7.39266e+06 1.19796e+07 5.14765e+06 1.04487e+06 -102253 1.72332e+06
228 3 O -1.08174 44.0354 47.6899 -1.2 -8.82821 -1.97482e+06 -5.11054e+06 -2.41448e+06 431744 1.66978e+06 -1.35518e+06
229 3 O -0.957712 41.342 51.2438 -1.2 -9.3966 -2.16276e+06 -1.84445e+06 -2.9208e+06 -678388 -57144.1 -2.4867e+06
230 3 O -3.28422 42.3749 47.5153 -1.2 -9.361 -1.13679e+06 -4.13977e+06 -936344 400454 498948 -554026
231 1 Mg -0.30921 40.6952 46.1103 1.2 -7.25599 1.11219e+06 4.49814e+06 -564112 77388.8 731741 -1.36939e+06
232 3 O -0.765982 41.4884 48.0475 -1.2 -9.55992 1.18203e+06 -4.9032e+06 -1.95889e+06 -560662 228342 1.85208e+06
233 1 Mg 2.12257 40.4147 53.9906 1.2 -8.33339 1.50451e+06 1.44507e+06 114061 -355632 -751810 916828
234 2 Si 1.77282 43.1225 56.0107 2.4 -31.8696 5.00002e+06 9.47961e+06 1.10149e+07 -579948 1.07026e+06 579506
235 3 O 1.87133 41.4954 56.1002 -1.2 -9.92006 -2.22409e+06 3484.48 -3.09991e+06 -1.02976e+06 -996290 -267905
236 3 O 1.97246 44.0415 52.1523 -1.2 -10.0632 -1.89818e+06 -3.58633e+06 -3.83401e+06 271696 99684.4 -1.18312e+06
237 3 O 0.510647 43.779 55.2367 -1.2 -9.42902 -1.10203e+06 -3.02856e+06 -2.09043e+06 -1.20702e+06 163681 -1.21773e+06
238 3 O 3.0293 43.7442 55.1976 -1.2 -9.73103 -2.40032e+06 -5.16636e+06 -839465 1.18897e+06 64247 -761757
239 1 Mg 0.506221 42.729 51.7016 1.2 -7.41313 -735362 -415042 3.30835e+06 -1.54955e+06 1.16126e+06 499224
240 1 Mg 1.15868 42.7099 48.5629 1.2 -7.10129 -248161 4.27504e+06 -341974 -163014 841078 -666532
241 2 Si 2.05509 44.7717 50.7138 2.4 -31.9464 4.57543e+06 1.05281e+07 9.06212e+06 259008 -374805 -1.0052e+06
242 3 O 2.21727 46.3922 50.5595 -1.2 -9.72867 -1.20902e+06 -1.76149e+06 -3.38978e+06 1.91624e+06 -477805 -951087
243 3 O 1.8139 43.8441 57.4757 -1.2 -9.9229 -1.2677e+06 -2.44589e+06 -2.88821e+06 1.1446e+06 150127 1.04051e+06
244 3 O 0.749661 44.1384 49.9631 -1.2 -9.76416 -2.88957e+06 -2.83752e+06 -1.85269e+06 1.62824e+06 -234760 1.69682e+06
245 1 Mg -2.42883 42.8677 51.6232 1.2 -7.31512 -651872 525639 3.57813e+06 1.55176e+06 -938111 687966
246 3 O 3.32848 44.2095 49.9911 -1.2 -9.46515 -2.93881e+06 -5.0877e+06 -1.81441e+06 -447472 666462 324860
247 1 Mg -1.2533 42.7388 54.7311 1.2 -8.03933 1.88477e+06 2.69906e+06 -719654 605646 295027 -1.07873e+06
248 2 Si -0.882297 40.6372 52.7515 2.4 -33.0502 8.93083e+06 6.43323e+06 1.06929e+07 393912 1.69376e+06 302366
249 3 O -0.933084 39.0995 52.7493 -1.2 -9.78438 -2.7083e+06 -3.18653e+06 -4.68978e+06 257351 -1.0243e+06 -1.1801e+06
250 3 O -1.17947 42.4887 45.7851 -1.2 -8.2299 -1.6451e+06 -2.41773e+06 87115.3 -1.86547e+06 -2.14999e+06 -1.32836e+06
251 3 O -2.17403 41.3479 53.4619 -1.2 -9.09952 -2.04298e+06 -3.73562e+06 -2.56907e+06 -1.50651e+06 232001 196630
252 3 O 0.456353 41.3161 53.3872 -1.2 -8.91651 -1.53749e+06 -3.89969e+06 -2.14007e+06 1.29003e+06 181939 581514
253 1 Mg -2.40951 49.8315 56.8988 1.2 -7.33521 23483.5 365843 3.73216e+06 -27675.1 -1.05278e+06 -1.77081e+06
254 1 Mg -0.733742 49.3951 48.7626 1.2 -8.60131 2.39534e+06 3.36093e+06 942381 682187 -106621 628186
255 2 Si -0.126153 46.9523 47.1606 2.4 -35.6893 1.14283e+07 1.10207e+07 4.9499e+06 -1.3431e+06 -598216 1.45737e+06
256 3 O -0.184201 48.4994 46.6542 -1.2 -7.87304 -3.8513e+06 -5.1038e+06 54686.3 -721978 532879 -407495
257 3 O -0.838455 46.1293 51.3207 -1.2 -9.4665 -3.40335e+06 -3.71474e+06 -8.4169e+06 -54876.1 -1.41576e+06 -899959
258 3 O -1.24992 47.0587 48.3611 -1.2 -8.619 -3.32005e+06 -2.97729e+06 -305168 -291719 -168394 -104073
259 1 Mg -1.1869 44.4528 45.5931 1.2 -7.08124 1.15821e+06 937965 -1.52411e+06 -851587 278079 1.29288e+06
260 3 O 1.30049 46.6301 47.7846 -1.2 -7.64415 -652963 -3.99804e+06 -2.15978e+06 727999 -109850 -1.03265e+06
261 1 Mg 2.14304 45.0952 53.9547 1.2 -7.93956 1.7563e+06 3.88255e+06 -889930 303451 228631 707359
262 2 Si 1.97295 47.8161 55.8745 2.4 -32.9097 5.44348e+06 7.69174e+06 1.05491e+07 -425116 149825 -1.70738e+06
263 3 O 2.02737 46.2557 55.8695 -1.2 -9.68487 -2.1805e+06 -2.77445e+06 -3.26656e+06 120464 571619 -599929
264 3 O 2.29903 48.9138 51.9134 -1.2 -8.96956 -3.15729e+06 -2.40231e+06 -3.33404e+06 -458803 -398262 -1.25018e+06
265 3 O 0.679818 48.5388 55.2503 -1.2 -9.26322 -2.14104e+06 -4.1157e+06 -2.75959e+06 -1.58848e+06 -320608 969127
266 3 O 3.18895 48.5886 55.2431 -1.2 -9.49075 -2.8515e+06 -5.12829e+06 -1.7383e+06 1.25146e+06 888394 302535
267 1 Mg 0.683218 47.6851 51.374 1.2 -7.97834 -444010 49917.7 3.28593e+06 -756713 1.1437e+06 415723
268 1 Mg 2.84137 47.2892 48.8739 1.2 -8.25524 2.38903e+06 2.02717e+06 -1.1993e+06 581967 550264 888166
269 2 Si 2.20727 49.7376 50.4374 2.4 -34.1295 7.61113e+06 6.51762e+06 9.02928e+06 -76799.2 1.29223e+06 -35275.6
270 3 O 2.35108 51.2514 50.7164 -1.2 -9.16802 -3.41049e+06 -4.09637e+06 -3.12732e+06 1.61463e+06 -913695 731884
271 3 O 1.95826 48.3381 57.4361 -1.2 -9.21578 -1.43508e+06 -2.75595e+06 -3.78445e+06 -563195 383288 1.42331e+06