ITEM: TIMESTEP
4100
ITEM: NUMBER OF ATOMS
10500
ITEM: BOX BOUNDS xy xz yz pp pp pp
0.0000000000000000e+00 8.9687999999999999e+00 2.9895999999999998e+00
0.0000000000000000e+00 1.1872499999999999e+02 0.0000000000000000e+00
0.0000000000000000e+00 2.5297700000000000e+02 0.0000000000000000e+00
ITEM: ATOMS id type element xu yu zu q c_pe c_s[1] c_s[2] c_s[3] c_s[4] c_s[5] c_s[6]
1 1 Mg -3.48602 7.00926 57.2054 1.2 -6.75373 -2.40107e+06 -1.16831e+06 5.00323e+06 -1.28049e+06 -1.33169e+06 606448
2 1 Mg -1.88771 7.12401 49.5564 1.2 -7.92639 -693788 1.66392e+06 1.00928e+06 -383489 -171783 1.19058e+06
3 2 Si -0.463265 4.11008 47.3331 2.4 -35.001 1.08332e+07 5.49342e+06 1.19258e+07 -164681 2.0776e+06 729170
4 3 O -0.722553 5.5927 47.0049 -1.2 -8.26303 -2.74898e+06 -2.9932e+06 -3.09423e+06 -707331 -123370 -1.08466e+06
5 3 O -2.13441 3.52333 51.1573 -1.2 -8.82898 -1.93069e+06 -2.80793e+06 -4.73482e+06 -983757 914748 -2.45342e+06
6 3 O -1.77434 3.57686 48.1252 -1.2 -8.56155 -623665 -2.27558e+06 -4.0984e+06 -920350 -1.04534e+06 1.43719e+06
7 1 Mg 1.42536 2.41147 46.2276 1.2 -7.35014 1.65854e+06 -306745 1.87516e+06 596714 1.25887e+06 -25106.1
8 3 O 0.971719 3.6745 48.0923 -1.2 -8.44387 -651881 -997312 -1.73491e+06 76342.4 809867 360266
9 1 Mg 1.04167 2.42174 53.9454 1.2 -8.58826 2.92181e+06 2.12583e+06 1.26066e+06 -414321 236382 1.67934e+06
10 2 Si 0.859991 5.17973 55.9663 2.4 -32.1945 6.27612e+06 6.46027e+06 9.76016e+06 1.50163e+06 -709727 1.08375e+06
11 3 O 0.927942 3.59222 55.8885 -1.2 -9.58471 -3.5819e+06 -876429 -3.17492e+06 423569 -144006 281126
12 3 O 1.17382 6.28112 52.2022 -1.2 -8.84913 -3.4425e+06 -2.76202e+06 -2.18352e+06 758800 1.38828e+06 -1.56665e+06
13 3 O -0.376021 5.75929 55.32 -1.2 -9.50868 -3.2607e+06 -3.80393e+06 -2.25947e+06 696827 347099 83192.1
14 3 O 2.16174 5.87047 55.1961 -1.2 -9.20438 -1.35018e+06 -5.08179e+06 -2.24121e+06 1.29948e+06 -311155 -994437
15 1 Mg -0.624761 4.72237 51.4984 1.2 -7.84154 -1.01735e+06 -970070 4.32378e+06 -1.34089e+06 1.26377e+06 662493
16 1 Mg 2.64997 4.17392 49.2608 1.2 -8.04869 3.27489e+06 1.18515e+06 1.88287e+06 -557572 1.38214e+06 -592659
17 2 Si 1.08752 6.78186 50.5512 2.4 -32.8009 6.97635e+06 6.37883e+06 1.18813e+07 1.79377e+06 845863 1.1765e+06
18 3 O 1.46762 8.34764 50.5851 -1.2 -9.90226 -1.85235e+06 -2.39073e+06 -2.30827e+06 1.59644e+06 236643 772699
19 3 O 1.06171 5.73909 57.4988 -1.2 -10.5751 -1.74088e+06 -2.20795e+06 -3.84913e+06 -784498 948365 367384
20 3 O -0.260471 6.15048 50.0335 -1.2 -9.33871 -1.96666e+06 -1.88936e+06 -4.046e+06 2.00286e+06 -369.929 -862562
21 1 Mg -3.76527 4.69172 51.9473 1.2 -7.63208 -225910 -1.41974e+06 1.37396e+06 2.02291e+06 -1.50733e+06 552088
22 3 O 2.3958 6.11894 50.029 -1.2 -9.35013 -2.38576e+06 -2.81668e+06 -4.34487e+06 -309933 393444 -703931
23 1 Mg -2.13515 4.87972 54.6316 1.2 -8.2465 2.16682e+06 2.00808e+06 1.07951e+06 -16588.8 -127466 -246280
24 2 Si -1.97593 2.77651 52.6333 2.4 -33.8159 7.16526e+06 9.01453e+06 1.12456e+07 -182770 474989 -248719
25 3 O -1.9686 1.0998 52.4716 -1.2 -8.69 -3.91299e+06 1.36621e+06 -3.08518e+06 -205006 79833.5 1.22542e+06
26 3 O -0.245536 3.30999 45.9102 -1.2 -7.64708 -2.36935e+06 -1.42599e+06 -1.76013e+06 -303607 -1.54058e+06 113303
27 3 O -3.14205 3.50721 53.4173 -1.2 -9.11621 -3.81519e+06 -3.19272e+06 -4.53572e+06 -895063 1.06686e+06 902370
28 3 O -0.662955 3.30782 53.2544 -1.2 -8.68157 -3.95177e+06 -3.72956e+06 -3.06033e+06 1.08432e+06 37124.8 -116228
29 1 Mg -3.26063 11.9581 57.1227 1.2 -6.96886 -1.61144e+06 -1.07787e+06 4.17128e+06 -386391 -1.7649e+06 1.06677e+06
30 1 Mg -1.53871 11.9505 49.5626 1.2 -8.04498 -775441 1.60636e+06 2.32944e+06 631099 -84706.4 682543
31 2 Si -1.155 9.21067 47.3146 2.4 -33.3655 7.79777e+06 8.24581e+06 7.20488e+06 1.42406e+06 1.37858e+06 -844897
32 3 O -1.07776 10.8423 47.391 -1.2 -8.73127 -2.45302e+06 -2.45233e+06 -1.86572e+06 1.14509e+06 -906119 -1.1546e+06
33 3 O -1.66756 8.24993 51.2953 -1.2 -9.33995 -1.68445e+06 -2.22735e+06 -3.64772e+06 284653 -2.151e+06 -2.1013e+06
34 3 O -2.31583 8.45518 48.1717 -1.2 -9.08725 639301 -2.32955e+06 -2.79755e+06 -115701 -795848 -1.08293e+06
35 1 Mg -0.378444 7.23271 46.0878 1.2 -6.786 1.66142e+06 -1.17494e+06 492219 1.67058e+06 1.38885e+06 -1.54435e+06
36 3 O 0.272286 8.65394 47.7077 -1.2 -9.19382 -3.08285e+06 -2.86764e+06 -1.51159e+06 884658 -755654 1.05572e+06
37 1 Mg 1.14979 7.2449 54.0948 1.2 -8.19311 1.08422e+06 1.66974e+06 670129 186013 62505.8 2.20311e+06
38 2 Si 1.21276 9.78657 56.1385 2.4 -32.3729 4.09616e+06 3.38941e+06 1.11443e+07 -136229 785452 2.56504e+06
39 3 O 1.22969 8.26367 56.0865 -1.2 -10.0836 -2.44681e+06 -4.74374e+06 -3.23107e+06 1.11415e+06 177943 -1.86668e+06
40 3 O 1.52081 10.8829 52.2003 -1.2 -9.8322 -2.50742e+06 -2.14203e+06 -3.71782e+06 -368111 -1.28058e+06 -167029
41 3 O 0.0165538 10.4812 55.3974 -1.2 -9.29906 -2.84282e+06 -2.22238e+06 -3.84758e+06 143276 -1.1252e+06 -1.06059e+06
42 3 O 2.46008 10.4839 55.4852 -1.2 -9.58588 -4.48539e+06 -3.29839e+06 -3.32896e+06 653894 661276 -1.22339e+06
43 1 Mg -0.1827 9.56468 51.588 1.2 -7.32905 -558887 -504053 4.14887e+06 -1.43875e+06 958041 1.10404e+06
44 1 Mg 1.77886 9.31312 48.6815 1.2 -7.61067 1.26003e+06 2.32122e+06 242845 -254276 -410632 468753
45 2 Si 1.40714 11.5883 50.7922 2.4 -32.1726 7.05506e+06 5.16812e+06 1.18782e+07 -456012 -713645 2.32567e+06
46 3 O 1.54742 13.155 50.9531 -1.2 -10.0113 -1.10581e+06 -1.78051e+06 -4.12112e+06 195086 -1.16497e+06 416955
47 3 O 1.18138 10.4079 57.62 -1.2 -9.83777 -1.13203e+06 -1.3639e+06 -7.31374e+06 466868 35987.4 -227688
48 3 O 0.0295794 11.0344 50.2703 -1.2 -9.44771 -3.47279e+06 -2.383e+06 -5.72036e+06 1.51156e+06 -399002 -246004
49 1 Mg -3.28191 9.28368 51.8841 1.2 -7.06231 -1.39794e+06 -1.02079e+06 2.31531e+06 2.32091e+06 -1.59405e+06 2.09635e+06
50 3 O 2.61145 10.9446 49.7199 -1.2 -9.23694 397213 -590111 68552 -184884 -548247 1.10436e+06
51 1 Mg -1.93154 9.54315 54.7341 1.2 -7.73877 2.40317e+06 1.77959e+06 1.08788e+06 752819 -118704 -395046
52 2 Si -1.79154 7.43933 52.8705 2.4 -32.4393 7.17017e+06 8.09964e+06 9.4104e+06 1.40844e+06 -725157 524350
53 3 O -1.9213 5.8845 52.6767 -1.2 -9.48031 -3.26296e+06 -1.94262e+06 -2.72105e+06 160917 -370133 307420
54 3 O -1.30546 8.8421 45.8087 -1.2 -8.26824 -3.31938e+06 -2.89712e+06 -4.04515e+06 -318264 -1.14809e+06 525014
55 3 O -3.06448 8.19156 53.5099 -1.2 -9.79061 -2.05782e+06 -3.39498e+06 -3.12049e+06 -1.47202e+06 419801 83443.8
56 3 O -0.518319 8.07842 53.442 -1.2 -9.1666 -2.66847e+06 -4.57969e+06 -3.90809e+06 1.58532e+06 -1.65939e+06 -704621
57 1 Mg -3.13949 16.5548 57.0866 1.2 -7.46219 -927696 -1.34771e+06 3.44239e+06 -755432 -1.46967e+06 8458.37
58 1 Mg -1.31095 16.6714 49.5001 1.2 -7.50358 -256465 2.04755e+06 3.34607e+06 649028 -1.07204e+06 454866
59 2 Si -0.733525 14.2546 47.4677 2.4 -34.0326 8.13604e+06 6.54011e+06 9.61484e+06 -1.82087e+06 2.29301e+06 -1.05241e+06
60 3 O -0.876696 15.7769 47.5107 -1.2 -8.58647 -1.55653e+06 -5.59112e+06 -3.13807e+06 -256595 -3.06122e+06 -634158
61 3 O -1.54679 12.8535 51.4099 -1.2 -9.48268 -2.31658e+06 -3.35774e+06 -6.43557e+06 892045 642260 -1.85983e+06
62 3 O -1.88236 13.5303 48.2599 -1.2 -9.03685 -1.8096e+06 -4.49419e+06 -1.62141e+06 -259656 -432697 -811363
63 1 Mg -0.319119 11.9355 46.0911 1.2 -6.53925 1.61886e+06 736507 434529 91782.3 1.02731e+06 -260673
64 3 O 0.685973 13.5562 47.9952 -1.2 -8.60427 -1.67945e+06 -958086 -2.09571e+06 -324498 515111 -420167
65 1 Mg 1.48812 11.9952 54.1391 1.2 -7.64803 380692 1.67856e+06 1.74605e+06 -67804.2 534544 917523
66 2 Si 1.33023 14.5635 56.0192 2.4 -31.9469 4.06993e+06 3.95605e+06 1.19834e+07 -421989 -995509 2.71118e+06
67 3 O 1.35956 13.0042 56.1911 -1.2 -10.3118 -2.54965e+06 -3.15425e+06 -4.37903e+06 781668 -12417.9 -1.74083e+06
68 3 O 1.51242 15.7615 52.1147 -1.2 -9.29496 -1.79651e+06 -3.74508e+06 -6.6102e+06 76097.6 234923 -1.12113e+06
69 3 O 0.0557197 15.2241 55.5487 -1.2 -9.52015 -2.81496e+06 -2.77327e+06 -6.01069e+06 580302 -1.15468e+06 -405845
70 3 O 2.54073 15.1589 55.1949 -1.2 -10.1209 -2.35643e+06 -2.80539e+06 -3.06963e+06 527576 322903 -948682
71 1 Mg -0.133985 14.3243 51.4398 1.2 -7.10716 139408 -916307 3.72971e+06 -509503 677702 1.3322e+06
72 1 Mg 2.27309 14.0568 48.9097 1.2 -7.57186 640681 947389 990979 152970 -730281 662978
73 2 Si 1.52271 16.3981 50.6557 2.4 -32.6349 3.66966e+06 2.5533e+06 1.04049e+07 -1.14213e+06 109652 1.40608e+06
74 3 O 1.61474 17.8625 50.7874 -1.2 -9.94666 -1.22904e+06 -7.27517e+06 -3.16616e+06 48841.4 -712846 1.183e+06
75 3 O 1.37336 15.2296 57.571 -1.2 -9.35375 -3.45631e+06 -2.56285e+06 -4.3329e+06 -246689 -1.6513e+06 874773
76 3 O 0.338811 15.7043 49.9862 -1.2 -9.44555 -4.31845e+06 -2.45699e+06 -7.14195e+06 606709 -2.90399e+06 -1.06862e+06
77 1 Mg -3.07348 14.3253 52.0135 1.2 -7.40202 -1.37749e+06 -387001 2.99014e+06 418733 -1.42457e+06 886867
78 3 O 2.84933 15.7012 49.9974 -1.2 -9.45222 -2.12252e+06 -895838 -3.59275e+06 -174783 762736 -1.12431e+06
79 1 Mg -1.64533 14.2491 54.8357 1.2 -7.45461 697393 1.69477e+06 2.12393e+06 416701 123967 715204
80 2 Si -1.49792 12.2071 52.8811 2.4 -32.9523 5.97501e+06 4.75801e+06 8.78062e+06 -461217 528189 848254
81 3 O -1.48416 10.7089 52.8447 -1.2 -9.47698 -2.29009e+06 -5.22367e+06 -3.21672e+06 1.14857e+06 -1.11501e+06 54835.6
82 3 O -0.698079 13.9043 45.8532 -1.2 -8.04403 -2.52138e+06 8143.89 -1.67903e+06 968061 -967118 360404
83 3 O -2.89065 12.8395 53.4848 -1.2 -9.40766 -2.62211e+06 -3.15475e+06 -4.57153e+06 -1.06676e+06 627310 -859995
84 3 O -0.362596 12.9359 53.6116 -1.2 -9.49514 -1.90905e+06 -3.70162e+06 -3.27916e+06 -711786 -1.64411e+06 -417511
85 1 Mg -2.95841 21.1389 57.0905 1.2 -7.50388 -1.14737e+06 -1.38621e+06 4.25919e+06 -1.40394e+06 -2.03934e+06 -514214
86 1 Mg -1.52044 20.9781 49.4563 1.2 -7.68773 -1.7185e+06 2.01125e+06 2.78519e+06 -733709 476825 2.34736e+06
87 2 Si -0.572013 19.0107 47.0703 2.4 -34.7895 7.44665e+06 8.61375e+06 9.44982e+06 1.61214e+06 2.04501e+06 640338
88 3 O -0.189826 20.5617 46.9349 -1.2 -8.51378 -1.74843e+06 -2.49239e+06 -1.76777e+06 1.31692e+06 -884980 -506395
89 3 O -1.37138 17.6384 51.4169 -1.2 -9.99455 -1.91014e+06 -2.89e+06 -6.37891e+06 -973844 -159287 -955521
90 3 O -1.7959 18.8173 48.0427 -1.2 -8.74238 -1.02486e+06 -1.28416e+06 -2.58314e+06 178243 -37711.9 -2.05716e+06
91 1 Mg 0.3341 16.6441 46.0162 1.2 -6.76805 2.77598e+06 564520 1.7895e+06 987554 509908 405084
92 3 O 0.721143 18.3017 47.7712 -1.2 -8.64932 -3.71222e+06 -2.27549e+06 -1.77192e+06 -696443 -381887 93551
93 1 Mg 1.66708 16.6593 54.1746 1.2 -7.48913 559467 592788 1.85864e+06 -686492 420604 2.51608e+06
94 2 Si 1.48227 19.3014 56.1509 2.4 -32.1844 6.6777e+06 4.95877e+06 1.1546e+07 -1.25834e+06 663761 -879643
95 3 O 1.5003 17.7284 56.2423 -1.2 -10.0893 -4.05301e+06 -2.18204e+06 -4.33843e+06 -401413 -463860 85219.3
96 3 O 1.72772 20.4495 52.3846 -1.2 -9.86823 -1.77513e+06 -592636 -5.50718e+06 1.16608e+06 887860 -2.11538e+06
97 3 O 0.134521 19.9244 55.494 -1.2 -9.15774 -849533 -2.12523e+06 -2.94665e+06 -219424 169547 -512497
98 3 O 2.67138 19.9132 55.2944 -1.2 -9.61884 -2.32041e+06 -2.78876e+06 -1.98541e+06 3598.44 -211296 -100124
99 1 Mg -0.0129207 19.0074 51.8332 1.2 -6.91836 -1.3572e+06 -1.268e+06 5.48014e+06 -1.34597e+06 728318 1.22518e+06
100 1 Mg 2.21226 18.9177 48.6966 1.2 -7.32232 1.37322e+06 -240857 1.66303e+06 -322218 -1.55283e+06 693417
101 2 Si 1.63456 21.0958 50.8608 2.4 -31.8569 7.14527e+06 6.82887e+06 1.01313e+07 834844 1.59726e+06 2.06886e+06
102 3 O 1.72617 22.7133 50.9258 -1.2 -9.99054 -3.83576e+06 -752589 -1.78592e+06 342491 -1.08439e+06 -114171
103 3 O 1.43238 19.9353 57.6396 -1.2 -9.73303 -2.33346e+06 -3.78726e+06 -3.59139e+06 658310 -1.41979e+06 699573
104 3 O 0.230832 20.54 50.2569 -1.2 -9.59424 -607564 -1.36798e+06 -2.38388e+06 2.21542e+06 287402 -1.98734e+06
105 1 Mg -2.98324 18.9422 52.028 1.2 -7.05157 -1.2682e+06 -1.0866e+06 4.33623e+06 1.57454e+06 -1.08303e+06 1.85052e+06
106 3 O 2.7898 20.312 50.165 -1.2 -9.9385 -3.8567e+06 -2.55412e+06 -3.97382e+06 -1.59468e+06 1.91208e+06 -1.10147e+06
107 1 Mg -1.57122 18.8541 54.7587 1.2 -7.85239 2.18306e+06 1.75131e+06 1.52471e+06 152088 -75381.1 -636896
108 2 Si -1.41417 16.8959 52.8268 2.4 -32.0182 5.62959e+06 3.4078e+06 9.77228e+06 670423 1.35474e+06 1.68533e+06
109 3 O -1.54652 15.3874 52.6317 -1.2 -10.0738 -3.13254e+06 -5.10369e+06 -3.42804e+06 444998 -1.05239e+06 -556905
110 3 O -0.776776 18.185 45.7181 -1.2 -7.76507 -2.20993e+06 -1.45188e+06 -3.50598e+06 -1.09607e+06 -528377 1.08642e+06
111 3 O -2.72341 17.5041 53.487 -1.2 -9.82838 -3.71223e+06 -4.14227e+06 -4.89736e+06 -1.37377e+06 760057 -1.25541e+06
112 3 O -0.201297 17.5483 53.6056 -1.2 -9.61112 -1.06615e+06 -2.47969e+06 -3.69501e+06 809102 -698452 -1.00047e+06
113 1 Mg -2.97398 26.0276 57.3493 1.2 -8.20776 231933 -1.94907e+06 4.13612e+06 -1.48892e+06 -1.41628e+06 -766789
114 1 Mg -1.40464 26.1969 49.7967 1.2 -8.2634 1.05802e+06 1.77535e+06 1.31627e+06 -85678.6 -245557 101174
115 2 Si -0.920228 23.7236 47.9214 2.4 -32.7807 5.47338e+06 8.21306e+06 9.2868e+06 2.80003e+06 694022 4.34903e+06
116 3 O -1.48194 25.1347 48.0084 -1.2 -8.87964 -3.56376e+06 -6.78387e+06 -4.45122e+06 -1.03883e+06 1.2803e+06 -779062
117 3 O -1.53959 22.4325 51.5061 -1.2 -9.00647 -1.84363e+06 -1.24045e+06 -3.83537e+06 585340 -533396 -3.23642e+06
118 3 O -1.93072 22.7039 48.4498 -1.2 -9.35382 1.19382e+06 -2.92397e+06 -5.84611e+06 -548736 406827 -1.28797e+06
119 1 Mg 0.581416 22.2002 46.3136 1.2 -6.89077 1.48318e+06 1.01861e+06 -282912 432059 1.72197e+06 56302.6
120 3 O 0.661263 23.4484 47.8967 -1.2 -9.53127 252401 -2.73811e+06 -3.3076e+06 -380861 -1.92858e+06 -859190
121 1 Mg 1.58714 21.5052 54.1128 1.2 -7.87189 233456 1.38873e+06 895340 210745 -54770.4 1.44035e+06
122 2 Si 1.56123 24.0082 56.31 2.4 -33.6523 6.88751e+06 4.9939e+06 1.05656e+07 -540489 -1.02401e+06 9435.05
123 3 O 1.61443 22.5072 56.3172 -1.2 -9.47298 -3.50291e+06 -2.67597e+06 -3.77113e+06 471239 337601 -855438
124 3 O 1.6123 25.1871 52.5048 -1.2 -9.22188 -2.96378e+06 -1.46423e+06 -4.90552e+06 20613.3 220159 -2.51475e+06
125 3 O 0.269064 24.7278 55.6562 -1.2 -8.7841 -2.8947e+06 -2.43589e+06 -5.44586e+06 -788348 -838590 -446455
126 3 O 2.73754 24.8096 55.5539 -1.2 -9.05844 -4.18066e+06 -3.42678e+06 -3.11106e+06 992277 806571 -901834
127 1 Mg -0.0336977 23.6429 51.8843 1.2 -7.47881 -308080 -1.68666e+06 5.09251e+06 -1.04052e+06 961288 1.54676e+06
128 1 Mg 2.24859 23.776 49.0521 1.2 -7.37804 2.07977e+06 797905 1.15556e+06 -451539 161174 83386.1
129 2 Si 1.52271 25.7973 50.9389 2.4 -32.5373 6.84366e+06 5.42828e+06 1.18924e+07 -532830 671510 130324
130 3 O 1.6222 27.3728 51.0349 -1.2 -9.79448 -2.94143e+06 -1.04405e+06 -4.25067e+06 1.17356e+06 -549077 308698
131 3 O 1.4655 24.6648 57.7828 -1.2 -8.69692 -3.27215e+06 -2.71787e+06 -4.73654e+06 -374575 -809741 991583
132 3 O 0.348985 25.0222 50.365 -1.2 -9.41299 -2.87143e+06 -2.69416e+06 -5.26095e+06 905565 -1.67542e+06 226487
133 1 Mg -3.03093 23.7213 52.1736 1.2 -7.62268 -1.02836e+06 -1.99395e+06 4.27863e+06 575778 -1.53276e+06 1.33463e+06
134 3 O 2.92699 25.1969 50.2781 -1.2 -9.32905 -1.85528e+06 -2.31719e+06 -4.1136e+06 -1.28069e+06 1.07483e+06 223116
135 1 Mg -1.54065 23.8854 55.0167 1.2 -8.20803 1.97794e+06 2.16374e+06 1.74581e+06 278789 312494 -451657
136 2 Si -1.4648 21.6405 53.0711 2.4 -32.2436 5.04785e+06 7.27727e+06 1.42519e+07 298807 1.0013e+06 282482
137 3 O -1.42844 20.0442 52.9317 -1.2 -10.1863 -2.43575e+06 107128 -4.39021e+06 31618.9 -463014 -445222
138 3 O -1.0515 23.4738 46.0993 -1.2 -8.07359 -660413 -2.71377e+06 -447249 -2.04164e+06 -551932 -864201
139 3 O -2.62082 22.3986 53.8039 -1.2 -9.59373 -2.84169e+06 -2.53706e+06 -5.05087e+06 -1.61168e+06 1.06598e+06 684789
140 3 O -0.0855785 22.2932 53.6224 -1.2 -9.35012 -1.71186e+06 -2.45476e+06 -3.3525e+06 2.21498e+06 -491144 66043.1
141 1 Mg -2.70375 30.7635 57.3145 1.2 -7.88683 222980 -673412 4.2055e+06 -801429 -1.67235e+06 -246201
142 1 Mg -1.32347 30.2669 49.4941 1.2 -8.4049 -278673 749052 1.96832e+06 125629 1.49678e+06 2.0635e+06
143 2 Si -1.13068 28.0107 47.464 2.4 -35.1732 9.85225e+06 7.48919e+06 1.1376e+07 -739903 -94278.8 1.15485e+06
144 3 O -0.515587 29.4674 47.1353 -1.2 -8.44172 -1.54558e+06 -2.00521e+06 -2.97413e+06 1.15301e+06 -1.11648e+06 -884868
145 3 O -1.25339 27.1891 51.5932 -1.2 -9.75214 -2.08658e+06 -1.33096e+06 -7.21951e+06 -835877 559240 -632122
146 3 O -2.50189 28.1172 48.2989 -1.2 -8.28466 -658510 -1.3325e+06 -2.78806e+06 305927 -828244 -1.78367e+06
147 1 Mg -1.72934 25.3114 46.0333 1.2 -7.03259 145138 -32624.3 -880344 168970 -933359 1.76873e+06
148 3 O -0.0573854 27.4148 48.546 -1.2 -8.15377 -2.41864e+06 -4.58334e+06 -2.63202e+06 -347100 -199722 -1.7723e+06
149 1 Mg 1.60948 26.0371 54.3045 1.2 -8.44389 2.3351e+06 334153 1.20955e+06 772618 -393593 785966
150 2 Si 1.68399 28.7257 56.1731 2.4 -34.1159 8.25995e+06 4.62493e+06 1.12648e+07 50619.9 -456248 -642305
151 3 O 1.61131 27.198 56.4329 -1.2 -8.86232 -4.86775e+06 -4.57784e+06 -4.85489e+06 768902 -48724.8 -1.73681e+06
152 3 O 1.6521 29.7819 52.4614 -1.2 -9.01889 -4.44276e+06 -2.69162e+06 -3.23127e+06 737084 983463 -1.39584e+06
153 3 O 0.329 29.3013 55.6217 -1.2 -8.86642 -2.30075e+06 -2.10689e+06 -5.8004e+06 -380991 -2.26736e+06 1.07979e+06
154 3 O 2.9646 29.4182 55.4312 -1.2 -8.9993 -1.78162e+06 -1.46913e+06 -4.68561e+06 1.45901e+06 1.33263e+06 -4794.91
155 1 Mg 0.318305 28.3967 52.2808 1.2 -7.65469 -1.42505e+06 -1.42437e+06 4.49973e+06 -2.03456e+06 1.17966e+06 954605
156 1 Mg 1.55953 28.3545 49.0335 1.2 -7.98986 3.35887e+06 -126377 1.31775e+06 -472058 -921466 741846
157 2 Si 1.79811 30.4537 50.8945 2.4 -33.8328 7.81157e+06 1.91587e+06 1.02079e+07 808074 414285 687284
158 3 O 1.74463 31.9741 50.9336 -1.2 -8.88244 -3.94966e+06 -4.02761e+06 -4.11768e+06 458809 -615300 -840052
159 3 O 1.80886 29.3896 57.6156 -1.2 -8.34541 -2.24704e+06 -3.6358e+06 -5.95686e+06 -464711 -243287 -132009
160 3 O 0.567339 29.9164 50.047 -1.2 -8.6978 -2.60828e+06 -4.36908e+06 -2.91134e+06 -88675.6 -435191 -1.2565e+06
161 1 Mg -2.85354 28.5956 52.0325 1.2 -7.4565 -291199 -1.73975e+06 4.52111e+06 2.30834e+06 -1.18007e+06 1.3332e+06
162 3 O 3.07229 29.8807 50.4132 -1.2 -8.95972 -8.17271e+06 -4.98251e+06 -5.67556e+06 220772 2.37058e+06 -2.48716e+06
163 1 Mg -1.33298 28.3956 54.9545 1.2 -8.52823 2.08289e+06 1.38253e+06 860436 463599 -112601 -1.45235e+06
164 2 Si -1.37091 26.4329 52.9509 2.4 -32.8491 7.38616e+06 5.90645e+06 1.08932e+07 122812 684901 529265
165 3 O -1.47861 24.8135 52.9291 -1.2 -9.50975 -2.79232e+06 -939938 -3.84044e+06 286972 -422790 -1.28434e+06
166 3 O -1.28631 27.1292 46.1162 -1.2 -7.90696 -2.4471e+06 -1.83208e+06 -2.61032e+06 279448 510673 1.66022e+06
167 3 O -2.6165 27.0885 53.6739 -1.2 -9.00626 -2.48828e+06 -2.95587e+06 -4.00225e+06 -1.01152e+06 174790 -478793
168 3 O -0.0788356 26.9774 53.8077 -1.2 -9.13868 -2.34198e+06 -3.13674e+06 -3.42551e+06 1.71039e+06 18963.9 615177
169 1 Mg -2.69852 35.6082 57.2216 1.2 -7.83243 25412 -432252 4.45673e+06 -975958 -1.1146e+06 -364403
170 1 Mg -0.999883 35.6763 49.2626 1.2 -8.68456 3.86597e+06 1.08421e+06 2.86471e+06 612628 -627557 -386039
171 2 Si -0.620618 32.8641 47.7731 2.4 -33.5164 8.6936e+06 6.89897e+06 1.01704e+07 1.00804e+06 1.59122e+06 -199263
172 3 O -1.36163 34.2984 47.7148 -1.2 -8.46004 -1.81763e+06 -3.81284e+06 -4.72931e+06 -1.09586e+06 1.73188e+06 236097
173 3 O -1.19092 31.7759 51.6352 -1.2 -8.08598 -4.0907e+06 -1.57927e+06 -7.45681e+06 -129508 -463121 -1.85872e+06
174 3 O -1.65407 31.9745 48.5709 -1.2 -8.81211 -1.33862e+06 -3.81699e+06 -4.05558e+06 123208 -959793 228981
175 1 Mg 0.383566 30.9611 46.3948 1.2 -6.79606 1.34795e+06 -53734.1 1.31162e+06 1.00969e+06 1.65156e+06 -128800
176 3 O 0.85266 32.4344 48.0519 -1.2 -8.94423 -1.05189e+06 -861349 -3.63029e+06 -663856 202550 1.0825e+06
177 1 Mg 1.91934 30.9375 54.3751 1.2 -8.31217 2.2496e+06 402740 2.30831e+06 -1.09184e+06 1.22928e+06 393529
178 2 Si 1.76586 33.5731 56.1669 2.4 -33.2816 6.53326e+06 6.20403e+06 1.18199e+07 571931 248943 -700891
179 3 O 1.73128 31.9829 56.3397 -1.2 -9.29746 -1.95954e+06 295092 -4.35691e+06 302132 -360762 -866386
180 3 O 1.79482 34.5596 52.2338 -1.2 -8.67237 -3.48193e+06 -1.93426e+06 -6.1941e+06 -572084 1.86384e+06 -1.07853e+06
181 3 O 0.56809 34.2762 55.4958 -1.2 -9.12147 -2.19702e+06 -2.62618e+06 -4.56295e+06 -334011 -1.44519e+06 -215220
182 3 O 3.08021 34.2522 55.4757 -1.2 -9.38313 -2.95407e+06 -1.99223e+06 -3.02396e+06 1.54959e+06 162581 -583873
183 1 Mg 0.224697 33.2166 51.4948 1.2 -8.38554 42173.8 -684152 4.24628e+06 -876756 1.19133e+06 1.18834e+06
184 1 Mg 2.61022 32.9762 48.9999 1.2 -8.06507 2.99554e+06 1.77827e+06 1.15323e+06 490541 31398.5 -400301
185 2 Si 1.79432 35.2346 50.8018 2.4 -34.2895 7.94361e+06 3.50484e+06 1.14007e+07 596409 172518 294402
186 3 O 2.08823 36.7994 50.8334 -1.2 -9.3047 -2.68887e+06 -848355 -3.47756e+06 2.16877e+06 -622790 -622386
187 3 O 1.77921 34.2168 57.6633 -1.2 -9.1479 -2.44336e+06 -2.98554e+06 -4.93588e+06 -137287 50768.3 870210
188 3 O 0.647137 34.5484 50.0581 -1.2 -8.56124 -5.40414e+06 -2.17794e+06 -6.17843e+06 814512 -579014 907519
189 1 Mg -2.6525 33.1683 51.9582 1.2 -8.0328 1.57278e+06 -229465 3.07613e+06 940546 -1.00663e+06 842964
190 3 O 3.10993 34.6072 50.1347 -1.2 -8.27861 -4.8526e+06 -1.05051e+06 -4.54617e+06 -310400 803649 -854413
191 1 Mg -1.23748 33.3863 54.8793 1.2 -8.07355 2.10106e+06 1.25376e+06 2.89273e+06 397432 -512392 -636176
192 2 Si -1.22912 31.1526 53.1436 2.4 -34.759 7.79905e+06 2.49356e+06 1.09621e+07 466863 48144 -1.36555e+06
193 3 O -1.15931 29.6383 53.1115 -1.2 -8.99911 -4.06218e+06 -4.0998e+06 -4.73397e+06 -942045 -59750.6 931141
194 3 O -0.72911 32.5696 46.0668 -1.2 -8.43426 -2.06543e+06 -1.04683e+06 -1.00067e+06 -1.30859e+06 374816 -1.62797e+06
195 3 O -2.50266 31.8478 53.6782 -1.2 -9.08293 -6.05482e+06 -1.48977e+06 -5.02339e+06 254125 2.09398e+06 284875
196 3 O 0.0418104 31.7991 53.7608 -1.2 -8.12622 -2.19297e+06 -2.99457e+06 -5.0773e+06 -785720 -1.4939e+06 -278604
197 1 Mg -2.72948 40.4332 57.1358 1.2 -7.99365 629324 -1.49441e+06 5.20467e+06 -2.11395e+06 -1.0683e+06 -1.04797e+06
198 1 Mg -0.896957 40.2189 49.4635 1.2 -7.7083 -1.13276e+06 997969 235472 -30236.6 -518159 3.37771e+06
199 2 Si -0.693912 37.2959 46.9711 2.4 -36.0397 1.23472e+07 5.51325e+06 1.11722e+07 -271570 48814.1 -1.05606e+06
200 3 O -0.304507 38.7705 46.3605 -1.2 -7.74142 -2.70017e+06 56018.4 -2.58556e+06 313121 -481058 -1.71114e+06
201 3 O -0.960225 36.6012 51.1851 -1.2 -9.12244 -2.49995e+06 -1.78165e+06 -1.4405e+06 -202092 463551 -1.40931e+06
202 3 O -2.00954 37.3451 47.9179 -1.2 -8.24342 -3.88149e+06 -1.02271e+06 -2.51895e+06 -56241.7 -184534 -1.31474e+06
203 1 Mg -1.43255 34.5403 45.775 1.2 -7.36793 1.1608e+06 481350 -613572 -377642 -1.02873e+06 1.085e+06
204 3 O 0.504611 36.7984 48.0036 -1.2 -7.79317 -630069 -1.80604e+06 -2.43944e+06 899098 802648 -884961
205 1 Mg 2.04198 35.5562 54.2014 1.2 -8.40928 2.98274e+06 1.4333e+06 2.31274e+06 567928 82714.4 1.86768e+06
206 2 Si 1.82575 38.3191 56.2164 2.4 -33.3476 8.07571e+06 5.58099e+06 1.23789e+07 561526 -330700 351310
207 3 O 1.84889 36.7643 56.2474 -1.2 -9.41953 -3.26348e+06 -1.18295e+06 -3.5755e+06 121802 -838932 -751277
208 3 O 1.85412 39.4448 52.0638 -1.2 -9.16779 -2.30176e+06 -3.53439e+06 -3.00119e+06 -257581 1.0805e+06 -22839.7
209 3 O 0.569139 38.9718 55.5409 -1.2 -8.97126 -2.58113e+06 -3.03621e+06 -3.43216e+06 -532100 136186 -488646
210 3 O 3.1379 39.0392 55.4174 -1.2 -8.96771 -1.77178e+06 -1.95837e+06 -947794 1.58106e+06 -871221 -1.14247e+06
211 1 Mg 0.615489 37.8699 51.9436 1.2 -7.48794 131184 -1.50166e+06 4.11776e+06 -1.6545e+06 1.61889e+06 2.18873e+06
212 1 Mg 2.28188 37.6055 48.6512 1.2 -8.01714 2.19479e+06 491057 1.97773e+06 422153 687480 277145
213 2 Si 1.92005 39.9308 50.5338 2.4 -33.0726 4.56193e+06 8.53094e+06 1.13262e+07 1.71889e+06 481352 3.09464e+06
214 3 O 1.88796 41.6178 50.7557 -1.2 -8.6851 -2.21028e+06 606693 -3.80219e+06 534141 1.9671e+06 1.96971e+06
215 3 O 1.82516 39.0273 57.693 -1.2 -9.16384 -3.73389e+06 -1.12755e+06 -4.56583e+06 130357 -840826 602632
216 3 O 0.765279 39.3297 49.6445 -1.2 -9.28578 -2.06128e+06 -1.91699e+06 -2.35887e+06 -55961.5 -483154 -1.62808e+06
217 1 Mg -2.25346 38.1241 51.3984 1.2 -7.53653 -804292 -896224 3.06638e+06 1.76447e+06 -1.94829e+06 2.13913e+06
218 3 O 3.30852 39.4707 50.0358 -1.2 -9.52794 -2.76246e+06 -2.84817e+06 -5.35029e+06 418442 841623 -1.50276e+06
219 1 Mg -1.22622 38.0455 54.8731 1.2 -8.1454 2.36563e+06 1.82975e+06 1.77328e+06 505618 531481 -111356
220 2 Si -1.01155 35.9677 52.7937 2.4 -33.3862 8.56443e+06 4.06313e+06 1.26491e+07 -789507 2.08815e+06 1.69626e+06
221 3 O -1.09053 34.4206 52.6839 -1.2 -9.12694 -3.76102e+06 -1.76343e+06 -3.29415e+06 1.01906e+06 -975337 -163592
222 3 O -0.878861 36.3147 45.8026 -1.2 -7.50426 -4.0687e+06 -3.35314e+06 -4.68052e+06 -459658 443842 1.28267e+06
223 3 O -2.20468 36.6063 53.5278 -1.2 -9.17115 -2.56592e+06 -1.65778e+06 -2.62537e+06 1.04067e+06 57949.1 -1.00037e+06
224 3 O 0.373282 36.542 53.4609 -1.2 -8.96667 -1.1017e+06 -2.59546e+06 -2.72588e+06 810397 817745 -938292
225 1 Mg -2.60716 45.1956 56.956 1.2 -8.06139 275346 -1.19037e+06 4.626e+06 -315410 -1.73637e+06 -167093
226 1 Mg -0.967702 45.1725 49.3659 1.2 -9.18572 1.52949e+06 473370 2.55252e+06 97723.4 996830 444892
227 2 Si -2.00179 42.5671 47.4853 2.4 -33.3557 8.61558e+06 5.76371e+06 1.01231e+07 1.33636e+06 -1.03034e+06 4.41025e+06
228 3 O -1.2198 43.9296 47.6712 -1.2 -8.64661 -1.479e+06 -5.05134e+06 -3.71744e+06 629615 1.13619e+06 -2.43056e+06
229 3 O -0.826825 41.4595 51.2223 -1.2 -8.96149 -3.94648e+06 -2.75297e+06 -3.44235e+06 -40276.7 154455 -1.31867e+06
230 3 O -3.53359 42.4083 47.9417 -1.2 -8.74941 1.47137e+06 -1.80702e+06 -3.38177e+06 337670 -410515 -1.72549e+06
231 1 Mg -0.465972 40.6444 46.2871 1.2 -7.10458 1.1051e+06 406772 688297 -116444 1.11966e+06 74761
232 3 O -0.922314 41.5344 48.0588 -1.2 -9.59535 -1.00384e+06 -5.18281e+06 -5.35352e+06 568791 79702.2 1.0452e+06
233 1 Mg 2.15132 40.5122 54.0174 1.2 -8.46779 2.20603e+06 1.86228e+06 2.99435e+06 -183964 203391 832468
234 2 Si 1.81879 43.114 55.8554 2.4 -34.4863 9.68314e+06 2.0117e+06 1.28564e+07 -298589 113287 -783620
235 3 O 1.86016 41.5689 55.8957 -1.2 -8.75941 -4.40163e+06 -2.50354e+06 -3.88422e+06 -389432 -404956 -1.36951e+06
236 3 O 2.1542 44.2059 52.212 -1.2 -8.41259 -5.72563e+06 -1.61884e+06 -6.94086e+06 -545409 961566 415127
237 3 O 0.448347 43.762 55.3462 -1.2 -8.47927 -3.67117e+06 -2.6827e+06 -4.59312e+06 -329781 1.36858e+06 918176
238 3 O 2.96947 43.7326 55.0196 -1.2 -8.53918 -4.15239e+06 -3.1082e+06 -5.08547e+06 -19684.6 -53955.2 1.32354e+06
239 1 Mg 0.75433 42.8342 51.8545 1.2 -8.11976 300153 -1.56646e+06 3.56089e+06 -1.3521e+06 1.76334e+06 125029
240 1 Mg 0.755049 42.6926 48.6951 1.2 -7.75517 947937 1.49158e+06 1.22662e+06 -427801 396319 288614
241 2 Si 2.17263 44.806 50.7398 2.4 -35.2976 1.19771e+07 2.93872e+06 1.04868e+07 -1.0078e+06 1.54116e+06 270691
242 3 O 2.28797 46.3325 50.7503 -1.2 -8.28306 -4.59806e+06 -3.91197e+06 -2.75751e+06 1.06506e+06 -977778 631958
243 3 O 1.98856 43.6473 57.3973 -1.2 -8.78324 -4.19241e+06 -1.05223e+06 -4.42121e+06 -444155 187663 -26978.2
244 3 O 0.834056 44.2865 49.9834 -1.2 -8.57473 -3.4702e+06 -1.93837e+06 -2.21814e+06 1.08342e+06 1.62755e+06 -278742
245 1 Mg -2.30215 42.683 51.6792 1.2 -8.25599 470043 -310698 4.30303e+06 2.49543e+06 -1.12485e+06 926191
246 3 O 3.57073 44.2635 50.218 -1.2 -7.69892 -5.11439e+06 -3.32519e+06 -6.58702e+06 -884444 366108 -1.44062e+06
247 1 Mg -1.07315 42.7339 54.5443 1.2 -8.66952 3.39148e+06 347855 1.45999e+06 -615075 -143793 -1.66709e+06
248 2 Si -0.827346 40.7472 52.7277 2.4 -33.2838 7.22088e+06 5.33456e+06 1.07819e+07 20629.7 -105971 -288248
249 3 O -0.955582 39.1689 52.5048 -1.2 -9.63551 -3.169e+06 -495830 -2.92884e+06 -52674.9 -205634 -17333.4
250 3 O -1.63103 42.3146 45.8921 -1.2 -8.5457 -1.26195e+06 589571 -4.32998e+06 -1.06165e+06 -2.6539e+06 -2.12604e+06
251 3 O -2.0973 41.4092 53.3985 -1.2 -9.07881 -4.38552e+06 -2.37729e+06 -4.73867e+06 -496325 627511 -419534
252 3 O 0.345213 41.3936 53.4684 -1.2 -8.90653 -4.8992e+06 -1.75479e+06 -5.74378e+06 795401 -943848 -361831
253 1 Mg -2.34573 49.8511 56.5711 1.2 -8.20031 -590123 -1.37996e+06 4.33292e+06 -1.68146e+06 -1.249e+06 -505876
254 1 Mg -0.526338 49.5181 48.709 1.2 -8.71842 2.50279e+06 835533 1.80176e+06 488801 -1.20701e+06 -728219
255 2 Si -0.120285 47.0772 46.9991 2.4 -35.4101 1.25627e+07 5.22906e+06 1.2009e+07 -336954 -163435 943224
256 3 O -0.302568 48.7332 46.905 -1.2 -8.19046 -4.51349e+06 -918285 -2.67843e+06 -1.23586e+06 984475 813269
257 3 O -0.730299 46.12 51.3853 -1.2 -7.94154 -4.34551e+06 -4.0052e+06 -5.48537e+06 -777686 1.16526e+06 -615067
258 3 O -1.26015 46.8467 48.1606 -1.2 -8.08448 -3.73264e+06 -2.92484e+06 -2.66731e+06 -785563 -676018 -92748.2
259 1 Mg -1.1744 44.4723 45.6785 1.2 -6.88645 1.1754e+06 1.40207e+06 1.50898e+06 -6195.65 173490 1.18685e+06
260 3 O 1.35297 46.8061 47.5221 -1.2 -7.71989 -756286 -1.25492e+06 -3.50213e+06 1.24603e+06 1.13324e+06 54943.8
261 1 Mg 2.30104 45.3201 54.0551 1.2 -8.82657 -50839.8 -1.21779e+06 1.03139e+06 88903.2 -33913.3 1.48002e+06
262 2 Si 2.03129 47.8651 55.7523 2.4 -33.3748 8.45165e+06 3.87698e+06 1.13886e+07 371850 -221305 790719
263 3 O 2.08743 46.3068 55.9501 -1.2 -9.49226 -5.18888e+06 -1.37308e+06 -5.62106e+06 -183052 -1.2891e+06 -2.18879e+06
264 3 O 2.32271 48.8519 52.0267 -1.2 -8.87743 -3.446e+06 -1.60478e+06 -3.14433e+06 922691 -1.12758e+06 -1.98574e+06
265 3 O 0.77214 48.5025 55.1324 -1.2 -9.09966 -4.71174e+06 -2.66346e+06 -4.64669e+06 -776445 -998346 -584406
266 3 O 3.30595 48.5699 54.9682 -1.2 -8.9253 -1.32535e+06 -1.92322e+06 -4.84376e+06 871193 247048 -678120
267 1 Mg 0.716178 47.6337 51.6798 1.2 -8.34462 1.06754e+06 -555598 4.70125e+06 -955855 1.32554e+06 427862
268 1 Mg 2.95496 47.4625 48.4828 1.2 -8.55234 2.23943e+06 318000 1.83816e+06 840852 845044 -284939
269 2 Si 2.30702 49.6316 50.5078 2.4 -34.6975 1.14481e+07 5.72949e+06 1.17442e+07 996567 790279 176602
270 3 O 2.30197 51.1917 50.7593 -1.2 -8.76597 -3.28575e+06 -745831 -5.24735e+06 581822 322224 308299