ITEM: TIMESTEP
500
ITEM: NUMBER OF ATOMS
10500
ITEM: BOX BOUNDS xy xz yz pp pp pp
0.0000000000000000e+00 8.9687999999999999e+00 2.9895999999999998e+00
0.0000000000000000e+00 1.1872499999999999e+02 0.0000000000000000e+00
0.0000000000000000e+00 2.5297700000000000e+02 0.0000000000000000e+00
ITEM: ATOMS id type element xu yu zu q c_pe c_s[1] c_s[2] c_s[3] c_s[4] c_s[5] c_s[6]
1 1 Mg -3.4862 7.07255 57.4867 1.2 -7.74357 262437 -1.45171e+06 4.30712e+06 -281815 -1.67432e+06 -753000
2 1 Mg -1.81751 6.4329 49.8466 1.2 -7.80465 -756639 1.74854e+06 1.82463e+06 -752388 436315 1.45615e+06
3 2 Si -0.130432 4.00886 48.0244 2.4 -35.9739 8.86752e+06 8.8624e+06 1.11603e+07 1.91969e+06 1.73577e+06 1.7735e+06
4 3 O -0.218827 5.42352 47.3622 -1.2 -8.16963 -2.62112e+06 -2.31981e+06 -2.13301e+06 46003.4 -1.05241e+06 -580903
5 3 O -2.00387 3.36957 51.8164 -1.2 -8.88389 -2.47231e+06 -1.18612e+06 -4.86138e+06 -667160 515360 -1.88971e+06
6 3 O -1.46512 3.65362 48.9044 -1.2 -8.14176 -10072.1 -37857.4 -4.3403e+06 743614 -968618 -1.12749e+06
7 1 Mg 2.03999 2.55865 47.2993 1.2 -7.91103 3.75265e+06 -1.14124e+06 726041 1.66297e+06 456106 869196
8 3 O 1.26235 3.75129 48.8163 -1.2 -8.27321 -2.69663e+06 -2.50653e+06 -4.50445e+06 -1.20513e+06 -1.1376e+06 -1.8019e+06
9 1 Mg 0.945765 2.33437 54.5121 1.2 -8.79094 2.85344e+06 1.54925e+06 1.01402e+06 227364 -179368 627564
10 2 Si 1.01301 4.98156 56.4961 2.4 -33.5497 8.24753e+06 5.60682e+06 1.21667e+07 -158876 -337241 -502738
11 3 O 0.977964 3.3969 56.5249 -1.2 -9.27376 -4.23304e+06 -586401 -5.26583e+06 525458 42788.6 330510
12 3 O 1.02692 6.09348 52.8158 -1.2 -9.05313 -3.02483e+06 -3.889e+06 -3.08968e+06 362093 -71324.1 -1.49793e+06
13 3 O -0.273756 5.70605 55.8621 -1.2 -8.57702 -3.10066e+06 -3.55782e+06 -5.37342e+06 -1.23545e+06 -419117 -521536
14 3 O 2.22795 5.74516 55.7807 -1.2 -9.01291 -4.47968e+06 -3.02052e+06 -3.77409e+06 1.47905e+06 -67913 -224410
15 1 Mg -0.488371 4.76742 52.1694 1.2 -7.95569 -495788 -1.49352e+06 5.66969e+06 -731561 1.17299e+06 603905
16 1 Mg 2.74618 3.84848 50.1369 1.2 -8.09187 3.40073e+06 -1.15549e+06 2.11351e+06 -1.04409e+06 246390 -764183
17 2 Si 1.19267 6.58744 51.1892 2.4 -32.9863 6.42663e+06 6.95447e+06 1.2159e+07 -599052 -130555 1.73592e+06
18 3 O 1.40874 8.18375 51.1504 -1.2 -9.53642 -3.01612e+06 -23996.3 -3.20367e+06 538728 -1.10408e+06 959805
19 3 O 0.942908 5.59557 57.9927 -1.2 -9.20914 -3.00192e+06 -1.41409e+06 -5.94475e+06 311297 -1.17708e+06 1.58821e+06
20 3 O -0.0215387 6.0139 50.5086 -1.2 -9.12769 -3.27316e+06 -4.13116e+06 -4.68649e+06 1.71368e+06 -533564 -1.51547e+06
21 1 Mg -3.54732 4.79732 52.6127 1.2 -7.76169 2131.6 -2.72568e+06 2.37665e+06 2.28578e+06 -1.60439e+06 1.19849e+06
22 3 O 2.58575 5.82674 50.7254 -1.2 -9.52396 -3.30951e+06 -2.20332e+06 -3.71126e+06 -2.6931e+06 -846367 -453236
23 1 Mg -1.99906 4.81318 55.1962 1.2 -8.77156 2.99084e+06 1.40043e+06 479175 -94490.5 -190843 -483760
24 2 Si -2.03267 2.65665 53.3281 2.4 -33.8784 9.90031e+06 4.44562e+06 1.4153e+07 1.12468e+06 232396 -312711
25 3 O -2.12707 1.13203 53.2438 -1.2 -9.20672 -3.61326e+06 -990060 -4.6994e+06 -267629 64799.1 1.13928e+06
26 3 O 0.0277745 2.79974 46.9678 -1.2 -6.77926 -2.50568e+06 -1.32886e+06 -3.59906e+06 -1.0612e+06 -1.08418e+06 -902297
27 3 O -3.28874 3.4651 54.0438 -1.2 -8.7623 -2.67338e+06 -2.14623e+06 -4.74111e+06 -931438 -515854 1.16806e+06
28 3 O -0.701088 3.30613 54.0488 -1.2 -8.41457 -2.09783e+06 -2.48294e+06 -3.78597e+06 1.47579e+06 286378 1.02546e+06
29 1 Mg -3.25105 11.7555 57.3947 1.2 -7.74049 -79499.9 -1.65541e+06 4.72161e+06 -1.44131e+06 -1.50795e+06 -1.14032e+06
30 1 Mg -1.76135 11.5348 49.8186 1.2 -8.76582 859461 1.32582e+06 1.84013e+06 -335843 765747 802466
31 2 Si -1.10817 8.98623 47.9775 2.4 -34.2 8.9506e+06 7.58526e+06 9.49268e+06 581397 3.57064e+06 481392
32 3 O -1.21173 10.6142 48.081 -1.2 -8.46192 -3.53869e+06 -2.32522e+06 -3.93132e+06 485009 -1.89391e+06 -490237
33 3 O -1.66282 7.93833 51.8431 -1.2 -8.78429 -2.47035e+06 -1.50078e+06 -7.11928e+06 -141883 435873 -504217
34 3 O -2.16567 8.21866 48.8595 -1.2 -9.03533 -872506 -739130 -6.21589e+06 177415 -277073 -773419
35 1 Mg 0.198054 7.14157 46.6668 1.2 -7.29884 2.61228e+06 686564 24677.9 526104 1.72231e+06 -862488
36 3 O 0.499463 8.58695 48.1824 -1.2 -8.86438 -1.01477e+06 -1.19902e+06 -2.25913e+06 -248008 -1.05285e+06 326383
37 1 Mg 1.19742 7.10231 54.6485 1.2 -8.72416 2.93176e+06 740890 860575 275573 -513976 539890
38 2 Si 1.13561 9.79456 56.3461 2.4 -33.1936 8.62982e+06 7.10266e+06 9.51087e+06 343755 80382.5 -19694.9
39 3 O 1.0091 8.1908 56.4709 -1.2 -9.27821 -4.14204e+06 -331256 -4.40143e+06 309934 -677916 -1.06335e+06
40 3 O 1.42337 10.6678 52.5886 -1.2 -9.16927 -3.08924e+06 -2.90019e+06 -3.41618e+06 225514 -2.13861e+06 -553453
41 3 O -0.16857 10.4903 55.7 -1.2 -8.97448 -1.82312e+06 -3.73059e+06 -3.83471e+06 -1.08977e+06 -582741 -449332
42 3 O 2.41958 10.4296 55.6795 -1.2 -9.19603 -2.26213e+06 -3.3894e+06 -4.1062e+06 977882 1.02577e+06 124853
43 1 Mg -0.146438 9.44338 52.2698 1.2 -7.78267 -43908.5 -789769 4.58152e+06 -1.19073e+06 1.47715e+06 527389
44 1 Mg 2.06724 8.91885 49.2792 1.2 -7.92749 310842 258407 641765 224945 -43017.8 -370748
45 2 Si 1.27532 11.3187 51.0458 2.4 -33.3774 7.12514e+06 7.02146e+06 1.13996e+07 618138 1.35631e+06 725206
46 3 O 1.31972 12.9737 51.2822 -1.2 -9.13123 -3.77048e+06 574056 -4.26211e+06 182608 -676703 1.57051e+06
47 3 O 1.1532 10.4555 57.8048 -1.2 -9.39903 -3.15356e+06 -1.63561e+06 -6.17108e+06 70105.9 -35167.8 1.075e+06
48 3 O -0.147453 10.7588 50.6974 -1.2 -8.69016 -3.46471e+06 -2.96935e+06 -5.67437e+06 1.35716e+06 -936166 -277043
49 1 Mg -3.17187 9.29398 52.2508 1.2 -7.70601 -422424 -1.43909e+06 3.26572e+06 1.41877e+06 -1.74662e+06 918849
50 3 O 2.35434 10.7357 50.1361 -1.2 -9.43279 -4.16523e+06 -2.11145e+06 -2.91026e+06 -875322 1.51352e+06 542839
51 1 Mg -1.82298 9.49028 55.0523 1.2 -8.5149 2.5469e+06 1.24873e+06 438020 -256500 278468 -948940
52 2 Si -1.73233 7.355 53.3138 2.4 -33.6863 9.13991e+06 4.19361e+06 1.15237e+07 139391 140801 -688968
53 3 O -1.88404 5.80034 53.3286 -1.2 -9.35582 -4.07044e+06 -3.29231e+06 -4.48478e+06 947895 -487644 1.05726e+06
54 3 O -1.34314 8.49748 46.5049 -1.2 -7.54646 -2.44179e+06 -1.82575e+06 -3.43057e+06 -964027 -795918 589250
55 3 O -3.10479 8.03453 53.8765 -1.2 -8.78609 -2.54634e+06 -3.20411e+06 -4.21559e+06 -977407 350931 582964
56 3 O -0.529995 8.11068 54.0461 -1.2 -8.73649 -2.57147e+06 -2.6198e+06 -5.34183e+06 1.62234e+06 -1.01896e+06 389281
57 1 Mg -3.25287 16.6336 57.3732 1.2 -7.72976 287260 -1.97623e+06 5.28977e+06 -524155 -1.91293e+06 -949920
58 1 Mg -1.77969 16.2442 49.6705 1.2 -8.57874 2.28554e+06 1.5224e+06 2.10073e+06 -980738 1.32248e+06 546426
59 2 Si -1.12364 13.8069 47.9207 2.4 -35.1474 1.07234e+07 3.32764e+06 1.05539e+07 807539 2.2218e+06 -719908
60 3 O -1.08492 15.3447 47.9249 -1.2 -8.7181 -3.05228e+06 -3.94468e+06 -3.95193e+06 -181232 -1.93531e+06 -925921
61 3 O -1.8378 12.7508 51.728 -1.2 -8.68476 -3.22803e+06 -260013 -3.16268e+06 1.17147e+06 947025 -1.27407e+06
62 3 O -2.35141 13.2369 48.8111 -1.2 -8.16372 -2.33465e+06 -2.8073e+06 -4.44709e+06 487927 -277548 -1.62395e+06
63 1 Mg -0.0938475 11.6501 46.9493 1.2 -7.26812 2.51339e+06 -1.38568e+06 1.54435e+06 711000 1.83176e+06 -124256
64 3 O 0.304199 13.1325 48.4774 -1.2 -8.15928 -2.33862e+06 -147296 -3.42893e+06 -596357 -398094 316143
65 1 Mg 1.23697 11.8082 54.5145 1.2 -8.48252 1.76723e+06 1.24786e+06 1.64305e+06 -151728 -379679 1.32075e+06
66 2 Si 1.24449 14.5284 56.4181 2.4 -34.0895 8.67118e+06 2.68569e+06 1.06836e+07 -156886 -613963 125516
67 3 O 1.21774 12.9801 56.3692 -1.2 -9.04869 -4.3513e+06 -2.55713e+06 -4.47208e+06 829258 -59278.9 -360442
68 3 O 1.48672 15.541 52.6427 -1.2 -8.75159 -4.04831e+06 -1.29777e+06 -4.7968e+06 -201678 -1.48461e+06 -1.2752e+06
69 3 O -0.117047 15.1141 55.8424 -1.2 -8.58912 -2.92986e+06 -3.03751e+06 -5.09101e+06 83940.1 -1.27237e+06 659854
70 3 O 2.47155 15.2459 55.7171 -1.2 -8.94686 -3.16318e+06 -2.64506e+06 -4.58302e+06 -128514 1.36238e+06 851920
71 1 Mg -0.150758 14.1017 52.2003 1.2 -8.17281 1.34568e+06 -513865 4.71939e+06 -1.01749e+06 1.48211e+06 825966
72 1 Mg 1.91744 13.7962 49.5002 1.2 -8.50621 2.28588e+06 -592286 573145 -36380.7 136290 750525
73 2 Si 1.2731 16.2622 51.2066 2.4 -34.3425 9.90278e+06 4.74928e+06 1.19009e+07 6534.85 371510 1.09566e+06
74 3 O 1.41643 17.8134 51.2721 -1.2 -9.43105 -3.75419e+06 -1.52083e+06 -4.52841e+06 868056 -557990 -119650
75 3 O 1.22054 15.1209 57.8588 -1.2 -8.8176 -3.86186e+06 -1.07717e+06 -8.08226e+06 124262 -801998 23677.5
76 3 O -0.0377797 15.5659 50.6942 -1.2 -8.28886 -4.27044e+06 -1.85224e+06 -4.21184e+06 1.49849e+06 347390 -711886
77 1 Mg -3.19155 14.0127 52.4051 1.2 -8.08788 -53198.6 -1.29731e+06 3.57008e+06 2.00827e+06 -1.42255e+06 1.00081e+06
78 3 O 2.4629 15.5525 50.2485 -1.2 -8.51913 -3.61692e+06 -1.77611e+06 -2.23747e+06 -1.16075e+06 -17694 418462
79 1 Mg -1.79096 14.2677 55.0313 1.2 -8.6106 3.08283e+06 1.07944e+06 1.34077e+06 20819.5 211390 -1.25378e+06
80 2 Si -1.7032 12.0005 53.2856 2.4 -32.7442 9.77967e+06 5.17268e+06 1.38013e+07 925328 -213669 -961178
81 3 O -1.74855 10.4446 53.1865 -1.2 -9.77052 -3.89445e+06 -1.98322e+06 -4.56837e+06 721424 321183 1.27277e+06
82 3 O -1.11964 13.251 46.487 -1.2 -7.39354 -3.75753e+06 -1.77676e+06 -5.75994e+06 -766196 -1.37365e+06 114274
83 3 O -3.01007 12.7184 53.9832 -1.2 -9.01469 -1.0228e+06 -1.93724e+06 -5.42125e+06 -1.48431e+06 131605 1.12002e+06
84 3 O -0.368751 12.7808 53.8469 -1.2 -9.16247 -1.13658e+06 -473692 -4.586e+06 1.55005e+06 -384611 893873
85 1 Mg -2.91491 21.2557 57.4905 1.2 -7.79384 -688888 -2.24349e+06 5.40723e+06 -1.56901e+06 -1.75606e+06 -881255
86 1 Mg -1.51798 21.1633 49.7046 1.2 -8.65261 1.56146e+06 825252 2.1349e+06 -81826.5 -169981 750012
87 2 Si -1.06188 18.5502 47.9441 2.4 -33.8966 9.60597e+06 5.19918e+06 1.14222e+07 416160 977495 -1.04991e+06
88 3 O -0.779718 20.1105 48.0291 -1.2 -8.63881 -2.14976e+06 -4.78999e+06 -5.3188e+06 490697 -1.46294e+06 358377
89 3 O -1.60295 17.5624 51.768 -1.2 -8.52684 -3.00352e+06 -1.4795e+06 -5.01353e+06 620893 -230763 -1.15927e+06
90 3 O -2.41702 18.1252 48.7388 -1.2 -8.7877 463209 -1.65623e+06 -2.27251e+06 -969369 -1.05474e+06 -951347
91 1 Mg 0.0516403 16.5425 46.8739 1.2 -6.9873 1.37642e+06 -1.31906e+06 1.97282e+06 1.55595e+06 1.91094e+06 -1.01656e+06
92 3 O 0.336143 17.8649 48.5233 -1.2 -8.53358 -1.17433e+06 -2.35125e+06 -4.13594e+06 482986 -783133 1.50947e+06
93 1 Mg 1.27513 16.5949 54.5522 1.2 -8.56588 3.03135e+06 1.12054e+06 1.56802e+06 349974 -773403 657959
94 2 Si 1.45958 19.2584 56.4111 2.4 -33.2113 8.50081e+06 3.88112e+06 1.16549e+07 -237985 -568484 -200708
95 3 O 1.29115 17.7534 56.479 -1.2 -9.59797 -3.72443e+06 -2.63928e+06 -4.62512e+06 154143 512838 346198
96 3 O 1.63754 20.3239 52.6864 -1.2 -8.86339 -3.83371e+06 -2.5591e+06 -3.09552e+06 1.0676e+06 30301.6 -649477
97 3 O 0.195264 20.0557 55.718 -1.2 -8.99658 -1.71484e+06 -1.68528e+06 -3.78164e+06 -386501 -661645 93146.9
98 3 O 2.80317 19.8287 55.7462 -1.2 -8.80226 -2.1251e+06 -3.45185e+06 -3.97691e+06 858970 929724 -161947
99 1 Mg -0.0428351 18.8919 52.1548 1.2 -8.12094 652027 -289866 4.02504e+06 -654040 1.74619e+06 494202
100 1 Mg 1.80603 18.802 49.4127 1.2 -8.03234 2.37326e+06 769257 -87473.1 -182333 -624721 -346352
101 2 Si 1.41401 21.0487 51.2047 2.4 -33.3974 1.02784e+07 5.07099e+06 1.13543e+07 -55365.6 362695 -519545
102 3 O 1.43601 22.6402 51.435 -1.2 -9.40877 -4.06163e+06 -1.70994e+06 -5.49762e+06 648804 -378312 911323
103 3 O 1.48923 19.9635 57.8748 -1.2 -9.38919 -2.56955e+06 -2.07735e+06 -5.42958e+06 487988 -202703 1.42865e+06
104 3 O 0.0552808 20.4212 50.7 -1.2 -8.76828 -3.12566e+06 -2.32408e+06 -5.19581e+06 1.40541e+06 -245292 -2955.44
105 1 Mg -2.99583 19.0304 52.1739 1.2 -8.0226 -40694.7 -643613 4.16319e+06 2.17999e+06 -1.49014e+06 555711
106 3 O 2.61335 20.4072 50.3507 -1.2 -9.20907 -2.48817e+06 -2.36214e+06 -2.93021e+06 -1.28381e+06 394831 195785
107 1 Mg -1.49481 18.9706 55.1369 1.2 -8.66176 2.51695e+06 1.89085e+06 376754 350913 135172 -998006
108 2 Si -1.69448 16.871 53.2437 2.4 -34.4225 9.37723e+06 4.62041e+06 1.1711e+07 493340 -702604 -125717
109 3 O -1.74667 15.3202 53.2423 -1.2 -9.12983 -4.34771e+06 -1.42164e+06 -4.36471e+06 525828 135913 421279
110 3 O -0.86292 18.1548 46.4192 -1.2 -7.93478 -2.67545e+06 -1.95361e+06 -3.71588e+06 -124301 -2.59869e+06 372994
111 3 O -2.95757 17.5424 53.9177 -1.2 -8.38224 -2.50298e+06 -3.78558e+06 -3.6998e+06 -319566 193104 -417226
112 3 O -0.366269 17.5056 53.8936 -1.2 -8.78341 -3.28528e+06 -2.05191e+06 -4.14839e+06 784002 -976406 691865
113 1 Mg -3.00816 26.1672 57.4889 1.2 -7.30228 -750193 -875478 4.91139e+06 -1.21511e+06 -1.6438e+06 -929966
114 1 Mg -1.37539 25.9993 49.8515 1.2 -8.447 1.15481e+06 2.22622e+06 1.44602e+06 -290351 -33218.7 665422
115 2 Si -0.989122 23.3701 48.0653 2.4 -34.8586 9.48288e+06 5.45138e+06 1.06974e+07 -34892.3 1.05289e+06 -62993.7
116 3 O -0.957794 24.9007 47.9044 -1.2 -8.73799 -2.89894e+06 -4.85387e+06 -2.43966e+06 349228 -1.44938e+06 -84400.1
117 3 O -1.62041 22.2715 51.8555 -1.2 -8.68949 -3.34839e+06 -2.96598e+06 -5.82892e+06 526565 -195007 -511870
118 3 O -2.28125 22.8413 48.9491 -1.2 -8.39842 -137269 -2.99106e+06 -3.82024e+06 127059 -830339 -288331
119 1 Mg 0.245362 21.0934 46.8288 1.2 -6.88831 1.53502e+06 465534 932259 -331437 1.70105e+06 507836
120 3 O 0.365541 22.7777 48.7229 -1.2 -8.37865 -2.82808e+06 -1.9323e+06 -4.22292e+06 -492950 -1.2313e+06 247669
121 1 Mg 1.50004 21.3463 54.5481 1.2 -8.62384 3.24061e+06 1.88435e+06 1.11243e+06 21186.1 281614 834506
122 2 Si 1.52597 24.0395 56.5204 2.4 -33.259 7.6318e+06 3.0842e+06 1.17151e+07 -858938 -11655.6 -1.21509e+06
123 3 O 1.576 22.513 56.6289 -1.2 -9.30719 -3.91618e+06 -2.45716e+06 -5.52808e+06 -605506 613397 452633
124 3 O 1.54774 25.0909 52.6566 -1.2 -8.68741 -3.83213e+06 -4.96667e+06 -6.13764e+06 811610 209685 -1.33329e+06
125 3 O 0.254336 24.7061 55.7948 -1.2 -9.03761 -2.40818e+06 -2.12851e+06 -3.98932e+06 -404358 -61134.4 58753.1
126 3 O 2.77943 24.6736 55.7496 -1.2 -8.94387 -3.0137e+06 -4.19942e+06 -2.90508e+06 876222 116943 115385
127 1 Mg -0.129928 23.6572 52.153 1.2 -8.11246 -277744 -1.02625e+06 4.01741e+06 -252188 2.31986e+06 9500.84
128 1 Mg 1.9019 23.5488 49.5869 1.2 -7.97202 2.94934e+06 -421320 -245164 -450066 -1.01113e+06 -798063
129 2 Si 1.51134 25.7557 51.223 2.4 -33.1606 8.3509e+06 4.91046e+06 9.98045e+06 677525 -967861 -1.03981e+06
130 3 O 1.60902 27.3069 51.2458 -1.2 -9.65542 -3.95652e+06 -3.20668e+06 -4.19603e+06 1.11955e+06 573583 1.16776e+06
131 3 O 1.50308 24.7279 57.9489 -1.2 -9.70395 -2.68853e+06 -2.01307e+06 -6.62495e+06 576079 -266944 359039
132 3 O 0.25291 25.0773 50.6115 -1.2 -9.0486 -3.28422e+06 -3.69335e+06 -5.43251e+06 917751 -1.96362e+06 196016
133 1 Mg -2.99535 23.7411 52.1797 1.2 -7.87474 -183407 -944225 3.50921e+06 1.15478e+06 -2.26096e+06 117876
134 3 O 2.86349 25.0731 50.4957 -1.2 -9.08161 -1.43999e+06 -3.22608e+06 -3.27851e+06 -864533 718065 -70190.9
135 1 Mg -1.5033 23.6591 55.1958 1.2 -8.59586 3.22196e+06 1.36426e+06 395584 344655 -337107 -1.28023e+06
136 2 Si -1.5088 21.6343 53.3248 2.4 -34.2752 9.4028e+06 5.40983e+06 1.12603e+07 232050 -182047 -182654
137 3 O -1.48877 20.0757 53.2377 -1.2 -9.00254 -3.93846e+06 -2.25212e+06 -4.38454e+06 -35017.5 128207 1.22262e+06
138 3 O -0.931502 22.6947 46.6298 -1.2 -7.59924 -2.45213e+06 -2.33729e+06 -3.9723e+06 -711135 -1.51707e+06 748704
139 3 O -2.67492 22.3046 54.1734 -1.2 -8.56495 -3.00934e+06 -3.23735e+06 -4.1675e+06 -259840 332449 79062.7
140 3 O -0.149879 22.3219 53.9004 -1.2 -8.58296 -3.04347e+06 -2.77016e+06 -3.19993e+06 446801 141124 763566
141 1 Mg -2.78749 30.7501 57.3451 1.2 -7.40092 -1.42994e+06 -1.6076e+06 4.56778e+06 -1.36021e+06 -1.77829e+06 -564746
142 1 Mg -1.32809 30.7546 49.9045 1.2 -8.61488 1.54622e+06 2.43456e+06 2.00868e+06 -401717 205702 -360860
143 2 Si -0.964325 28.1602 47.9332 2.4 -33.9154 8.81339e+06 6.51645e+06 8.28009e+06 1.40891e+06 2.19899e+06 -1.00816e+06
144 3 O -0.685069 29.7111 48.0024 -1.2 -8.73586 -2.46887e+06 -4.632e+06 -2.7091e+06 769186 -2.13988e+06 509480
145 3 O -1.36902 27.0989 51.661 -1.2 -8.90753 -3.67717e+06 -2.64362e+06 -4.25564e+06 -375795 -492320 -929846
146 3 O -2.13327 27.6224 48.8721 -1.2 -8.77574 209651 -2.889e+06 -4.50133e+06 -833855 -611729 -741932
147 1 Mg -0.0983368 26.1246 46.6954 1.2 -6.76284 1.72241e+06 -983843 507510 1.42467e+06 1.59484e+06 -1.15351e+06
148 3 O 0.494123 27.4886 48.3225 -1.2 -8.8059 -1.78206e+06 -2.94047e+06 -1.34992e+06 681138 -453792 1.14398e+06
149 1 Mg 1.71816 25.9965 54.5143 1.2 -8.63841 2.21058e+06 2.16968e+06 248492 176475 244146 265561
150 2 Si 1.59363 28.7492 56.3293 2.4 -32.9322 6.73233e+06 3.39913e+06 1.29964e+07 -600852 1.15429e+06 -10238.3
151 3 O 1.64754 27.2094 56.3508 -1.2 -9.82286 -3.31341e+06 -2.88833e+06 -4.32155e+06 -549683 95867 -575374
152 3 O 1.6579 29.7323 52.7955 -1.2 -9.12697 -2.70272e+06 -1.77983e+06 -5.2999e+06 252465 13284.8 441783
153 3 O 0.33277 29.4859 55.6535 -1.2 -9.13539 -1.87462e+06 -1.53215e+06 -4.23908e+06 -512949 5096.63 260426
154 3 O 2.88617 29.4163 55.7141 -1.2 -9.11465 -3.02793e+06 -3.33362e+06 -6.27893e+06 357073 1.21035e+06 497813
155 1 Mg 0.104984 28.3103 52.1056 1.2 -7.95754 -1.00649e+06 -1.62e+06 4.14926e+06 -1.51588e+06 2.24775e+06 -495696
156 1 Mg 1.95539 28.2727 49.3651 1.2 -7.80728 3.02711e+06 1.61127e+06 385379 -656444 -297991 -64684.2
157 2 Si 1.71305 30.4371 51.3476 2.4 -33.1686 7.72886e+06 6.61681e+06 9.30967e+06 630592 922913 -2.43857e+06
158 3 O 1.73834 32.0642 51.4224 -1.2 -9.53815 -3.17828e+06 -733775 -2.77912e+06 270919 -120288 1.13433e+06
159 3 O 1.75404 29.3724 57.8387 -1.2 -9.44534 -1.97972e+06 -1.12297e+06 -5.59649e+06 -427614 1.38871e+06 827011
160 3 O 0.407481 29.798 50.6471 -1.2 -8.71396 -2.24382e+06 -2.48666e+06 -4.18441e+06 1.23586e+06 -734391 1.28e+06
161 1 Mg -2.84271 28.3819 52.2998 1.2 -7.80795 280363 -1.22928e+06 4.08193e+06 1.9366e+06 -1.91768e+06 446954
162 3 O 2.94719 29.8832 50.6076 -1.2 -9.28521 -4.46394e+06 -3.34696e+06 -1.95013e+06 30085.9 1.14771e+06 391234
163 1 Mg -1.37386 28.421 55.1358 1.2 -8.23744 2.6402e+06 1.22959e+06 665696 299040 -340143 -864172
164 2 Si -1.31746 26.3282 53.2017 2.4 -33.1781 9.68927e+06 5.15369e+06 1.02764e+07 -194320 878796 -2.29001e+06
165 3 O -1.47922 24.8194 53.1322 -1.2 -9.50073 -4.3899e+06 -3.70268e+06 -3.44243e+06 505094 112674 462621
166 3 O -1.15503 27.6831 46.461 -1.2 -8.14154 -3.00012e+06 -2.49112e+06 -3.88827e+06 -484080 -1.43857e+06 1.17799e+06
167 3 O -2.59112 27.0602 53.8426 -1.2 -9.11621 -1.97289e+06 -3.7436e+06 -3.82738e+06 -679836 1.08696e+06 769781
168 3 O 0.0655511 26.9007 53.759 -1.2 -8.79584 -2.32526e+06 -4.69732e+06 -2.87506e+06 1.63282e+06 -22701.7 501794
169 1 Mg -2.62507 35.4472 57.3617 1.2 -6.81905 -2.12667e+06 -1.57211e+06 4.86141e+06 -1.98019e+06 -2.00828e+06 -1.38012e+06
170 1 Mg -1.30211 35.4783 49.9496 1.2 -8.1899 793259 3.2613e+06 2.0377e+06 -805337 114856 -261924
171 2 Si -0.781273 32.9913 47.8524 2.4 -34.4266 1.01229e+07 6.99726e+06 1.05e+07 118964 1.72782e+06 -2.28994e+06
172 3 O -0.791647 34.5517 47.9146 -1.2 -8.63556 -2.97665e+06 -4.66821e+06 -1.51742e+06 758476 -2.036e+06 1.2839e+06
173 3 O -1.2198 31.7187 51.8609 -1.2 -8.97161 -2.63711e+06 -2.12275e+06 -4.54982e+06 -235.034 1.1128e+06 -544686
174 3 O -1.99877 32.3312 48.7878 -1.2 -8.59165 -742580 -2.3611e+06 -1.31157e+06 337657 -1.38542e+06 -614690
175 1 Mg 0.160189 30.7347 46.6478 1.2 -6.71551 1.55494e+06 89088.7 986773 526373 1.41818e+06 -685003
176 3 O 0.645108 32.433 48.4601 -1.2 -8.32797 -1.59201e+06 -1.71899e+06 -1.9257e+06 -26335.8 373024 1.19798e+06
177 1 Mg 1.94489 30.9498 54.5886 1.2 -8.1004 959720 972747 560234 -354727 610778 650377
178 2 Si 1.87735 33.5482 56.353 2.4 -31.1725 6.23721e+06 5.27339e+06 1.16783e+07 40246.9 -384664 -1.00312e+06
179 3 O 1.7902 31.9659 56.4403 -1.2 -10.1439 -2.55114e+06 -804239 -5.08377e+06 372809 -935392 -1.4832e+06
180 3 O 1.74802 34.5307 52.8841 -1.2 -9.73038 -2.07579e+06 -2.0127e+06 -4.10156e+06 -494934 -36094.5 -724296
181 3 O 0.567019 34.2524 55.7146 -1.2 -10.1918 206786 -2.28785e+06 -3.79208e+06 -186399 -384550 -123295
182 3 O 3.2582 34.171 55.7557 -1.2 -9.99275 777320 -2.92621e+06 -4.50216e+06 801328 504103 290478
183 1 Mg 0.18847 33.2346 52.314 1.2 -7.54159 -572931 -1.42679e+06 3.98827e+06 -1.52783e+06 1.88333e+06 619758
184 1 Mg 2.21885 32.9897 49.4743 1.2 -8.08276 2.5813e+06 704427 495125 296014 -367597 -752309
185 2 Si 1.63757 35.2008 51.4019 2.4 -32.2724 7.2291e+06 6.3652e+06 9.02444e+06 -750344 157386 -98614
186 3 O 1.71487 36.7598 51.4173 -1.2 -10.1695 -3.05526e+06 -2.48128e+06 -2.11506e+06 883123 -177187 770931
187 3 O 1.88421 34.1203 57.8676 -1.2 -10.2343 -1.73244e+06 -3.30536e+06 -5.02887e+06 270492 -588093 388818
188 3 O 0.395963 34.5591 50.7637 -1.2 -9.31013 -3.66482e+06 -3.48578e+06 -3.54146e+06 619892 -630725 -42488.4
189 1 Mg -2.70747 33.0332 52.4668 1.2 -7.5261 -654151 -295396 3.62063e+06 427318 -1.6278e+06 13929.1
190 3 O 2.96552 34.5521 50.5981 -1.2 -9.18333 -1.53429e+06 -2.65426e+06 -1.40746e+06 -1.50953e+06 -183707 475463
191 1 Mg -1.06076 33.1997 55.1951 1.2 -7.65924 243160 2.2857e+06 859082 -201805 -88794.2 -1.04094e+06
192 2 Si -1.07719 31.0066 53.3651 2.4 -33.1033 7.58891e+06 5.49684e+06 1.23434e+07 78898.9 983410 -2.46675e+06
193 3 O -1.22815 29.4682 53.3105 -1.2 -9.40823 -4.13731e+06 -2.28385e+06 -4.36007e+06 865779 -146618 1.18664e+06
194 3 O -0.748162 32.4343 46.345 -1.2 -8.02006 -2.56679e+06 -815292 -2.11242e+06 -572789 -1.48264e+06 1.76756e+06
195 3 O -2.34625 31.6911 54.0298 -1.2 -9.43559 -2.78566e+06 -3.73992e+06 -5.59027e+06 -1.10463e+06 1.72915e+06 1.22019e+06
196 3 O 0.201274 31.8015 53.9763 -1.2 -9.34261 -1.7429e+06 -2.5232e+06 -4.19735e+06 1.13862e+06 4073.27 1.55151e+06
197 1 Mg -2.66544 40.3397 57.4373 1.2 -7.00428 -1.2758e+06 -1.91896e+06 5.30471e+06 -1.23702e+06 -1.90219e+06 -934916
198 1 Mg -1.17444 40.0731 49.6869 1.2 -8.59305 1.68612e+06 2.39982e+06 1.61785e+06 143393 409046 522295
199 2 Si -0.894565 37.5629 47.7753 2.4 -34.306 9.46285e+06 9.47632e+06 7.3325e+06 1.02718e+06 1.90273e+06 -930685
200 3 O -0.835559 39.2162 47.791 -1.2 -8.53443 -3.49912e+06 -2.10068e+06 -1.91954e+06 -155193 -1.08899e+06 -164631
201 3 O -1.35647 36.5403 51.7509 -1.2 -9.32148 -1.64426e+06 -2.36975e+06 -5.24477e+06 -144394 -788244 -781581
202 3 O -2.13872 37.0968 48.695 -1.2 -8.58013 439052 -4.32087e+06 -3.02287e+06 480210 -84796.7 -1.61628e+06
203 1 Mg 0.259898 35.654 46.6685 1.2 -6.92363 2.33602e+06 -727216 261567 1.33889e+06 1.55101e+06 -1.60156e+06
204 3 O 0.560743 36.9642 48.2082 -1.2 -9.02755 -2.34194e+06 -3.17841e+06 -672580 -1.16546e+06 -745676 686129
205 1 Mg 1.62355 35.7302 54.6223 1.2 -7.40009 2.19285e+06 1.36115e+06 858395 345495 -343909 1.08787e+06
206 2 Si 1.80663 38.29 56.6052 2.4 -31.2696 5.85472e+06 4.07455e+06 1.3385e+07 -354057 -426819 -1.24567e+06
207 3 O 1.86758 36.7421 56.619 -1.2 -10.5401 -2.33217e+06 -330010 -4.92983e+06 -357276 280567 536906
208 3 O 1.86075 39.3672 52.5798 -1.2 -9.80923 -3.15254e+06 -3.36488e+06 -6.57086e+06 863298 -399181 -244396
209 3 O 0.57853 38.9593 55.748 -1.2 -9.84828 -1.25405e+06 -965515 -3.18987e+06 -865842 -57516.2 -698401
210 3 O 3.12037 38.9352 55.8094 -1.2 -9.58497 -477322 -2.24526e+06 -2.49823e+06 958802 -648423 -776482
211 1 Mg 0.220237 37.9571 52.2771 1.2 -7.34431 -438818 -666833 4.24068e+06 -687925 1.38637e+06 516958
212 1 Mg 2.08992 37.4522 49.391 1.2 -7.77827 1.63884e+06 1.67004e+06 546829 408026 -78347.1 155174
213 2 Si 1.72576 39.9044 51.1315 2.4 -33.0823 7.28255e+06 5.45808e+06 8.94853e+06 303191 -853590 1.27496e+06
214 3 O 1.86032 41.534 51.1146 -1.2 -9.41989 -3.56978e+06 -1.66663e+06 -5.341e+06 1.96832e+06 413115 342650
215 3 O 1.68111 39.0206 58.0244 -1.2 -10.2739 -2.1172e+06 -2.25689e+06 -6.22204e+06 609253 -445962 1.59315e+06
216 3 O 0.450413 39.2026 50.5791 -1.2 -9.15442 -3.98487e+06 -2.13676e+06 -3.71603e+06 576912 -695649 59652
217 1 Mg -2.78118 38.0159 52.4467 1.2 -7.1852 -1.62678e+06 -1.41731e+06 4.36908e+06 1.9257e+06 -1.26495e+06 811232
218 3 O 2.96713 39.3744 50.2891 -1.2 -8.83354 -2.3137e+06 -2.74247e+06 -2.50535e+06 466194 1.05712e+06 -357140
219 1 Mg -1.1762 37.8903 55.187 1.2 -7.84232 1.45188e+06 1.4194e+06 729995 126863 -129931 -1.27439e+06
220 2 Si -1.34308 35.832 53.229 2.4 -32.4143 4.45708e+06 5.32184e+06 1.22898e+07 474631 -308478 -682166
221 3 O -1.31707 34.3125 53.1795 -1.2 -10.1156 -2.69107e+06 -3.53359e+06 -5.23982e+06 -251089 526277 203205
222 3 O -1.0524 37.0429 46.3186 -1.2 -7.66916 -2.8501e+06 -3.22844e+06 -3.56143e+06 -522384 -890940 1.28209e+06
223 3 O -2.53996 36.6031 53.9828 -1.2 -9.5254 -2.10307e+06 -2.76968e+06 -4.06542e+06 -913213 254320 384216
224 3 O -0.0864452 36.5778 53.8669 -1.2 -9.69182 -3.28444e+06 -3.01156e+06 -4.13745e+06 1.07724e+06 -568913 733947
225 1 Mg -2.58771 45.0642 57.4337 1.2 -7.10769 -867407 -1.99559e+06 5.34294e+06 -1.39177e+06 -1.54169e+06 -1.08635e+06
226 1 Mg -1.01007 44.8665 49.7507 1.2 -8.66264 -61721.7 1.95145e+06 1.46788e+06 517846 255811 442363
227 2 Si -0.679714 42.3707 47.8555 2.4 -34.9594 8.17137e+06 4.94238e+06 1.06605e+07 608699 1.66224e+06 -1.15281e+06
228 3 O -0.579787 43.9056 47.9767 -1.2 -8.23829 -3.15328e+06 -5.46598e+06 -4.25352e+06 473796 -2.10642e+06 -368991
229 3 O -1.08795 41.3324 51.6617 -1.2 -9.13997 -2.69941e+06 -2.60927e+06 -5.16721e+06 124203 -1.17776e+06 -1.25765e+06
230 3 O -1.85238 41.8194 48.7218 -1.2 -8.40687 -2.82642e+06 -4.43911e+06 -3.00488e+06 -1.18362e+06 -44270.9 -832684
231 1 Mg 0.239453 40.353 46.704 1.2 -7.05941 1.88384e+06 -1.51998e+06 699536 1.23787e+06 1.68821e+06 -1.00022e+06
232 3 O 0.686566 41.676 48.3717 -1.2 -8.3916 -3.29573e+06 -2.29891e+06 -3.14517e+06 855171 -412004 1.03588e+06
233 1 Mg 1.76782 40.3875 54.5441 1.2 -7.73304 1.78434e+06 1.31159e+06 2.28012e+06 318989 -26370.6 -119276
234 2 Si 1.9209 42.9687 56.3643 2.4 -32.0208 6.06068e+06 3.23525e+06 1.34732e+07 18018.6 -287393 -186616
235 3 O 1.92705 41.4251 56.4332 -1.2 -10.2788 -2.2996e+06 -1.93562e+06 -4.80037e+06 126561 639422 -931005
236 3 O 1.88858 43.922 52.6275 -1.2 -9.45807 -3.14981e+06 -1.50445e+06 -4.65884e+06 353828 -675058 -1.78273e+06
237 3 O 0.672612 43.7332 55.6998 -1.2 -9.70933 -908643 -2.34715e+06 -5.03703e+06 -1.18447e+06 -508378 -163233
238 3 O 3.22681 43.6637 55.7668 -1.2 -9.66135 -1.689e+06 -1.94212e+06 -4.84e+06 1.19445e+06 604130 -171164
239 1 Mg 0.424096 42.6138 52.0603 1.2 -7.96795 -1.39522e+06 -2.08018e+06 4.76148e+06 -1.54966e+06 1.92152e+06 476577
240 1 Mg 2.30884 42.2884 49.3572 1.2 -8.13221 3.01996e+06 743097 -548073 -221988 91764 742553
241 2 Si 1.96224 44.706 51.1805 2.4 -32.5011 8.83675e+06 4.35121e+06 1.12915e+07 -404439 475879 1.01872e+06
242 3 O 2.01958 46.2546 51.2002 -1.2 -10.1859 -3.24389e+06 -2.04576e+06 -4.42564e+06 545575 -692607 -198124
243 3 O 1.94132 43.5882 57.9026 -1.2 -9.55808 -1.79856e+06 -855525 -5.35412e+06 -83004.4 517714 979343
244 3 O 0.636536 44.0894 50.4893 -1.2 -8.56378 -2.39723e+06 -2.88013e+06 -5.71053e+06 1.8038e+06 -933782 244001
245 1 Mg -2.53346 42.6419 52.1377 1.2 -7.54447 -197766 -2.65766e+06 4.14799e+06 2.29937e+06 -2.03455e+06 1.37855e+06
246 3 O 3.23632 44.0414 50.4244 -1.2 -9.37291 -3.15021e+06 -1.08231e+06 -2.42631e+06 -564977 670914 78254.7
247 1 Mg -1.06316 42.7004 55.0952 1.2 -7.62398 1.7204e+06 732638 3.0154e+06 235895 -202216 -1.22363e+06
248 2 Si -1.18583 40.7281 53.1843 2.4 -32.2146 6.09795e+06 5.63791e+06 1.17758e+07 638636 -724855 -1.45739e+06
249 3 O -1.22572 39.1143 53.2323 -1.2 -9.89836 -1.98943e+06 -318233 -4.11348e+06 -108729 197533 480259
250 3 O -0.586161 41.9991 46.2864 -1.2 -7.57285 -3.02098e+06 -2.32464e+06 -2.96543e+06 -34551.7 -1.99328e+06 797167
251 3 O -2.43366 41.436 53.8353 -1.2 -9.7442 -1.23236e+06 -2.51681e+06 -3.83745e+06 -92851.8 558873 398174
252 3 O 0.152728 41.333 53.7814 -1.2 -9.62103 -1.56369e+06 -3.01077e+06 -4.58064e+06 597898 -1.03261e+06 858466
253 1 Mg -2.53838 49.6661 57.3311 1.2 -6.96821 -842119 -1.36654e+06 4.40247e+06 -564153 -1.76325e+06 -295020
254 1 Mg -0.867201 49.7772 49.8613 1.2 -8.22667 600287 2.2129e+06 1.71276e+06 -751823 781177 464431
255 2 Si -0.496855 47.1356 47.8486 2.4 -34.8624 8.11894e+06 5.88123e+06 1.02441e+07 425355 2.64006e+06 -349112
256 3 O -0.245664 48.668 47.9945 -1.2 -8.60461 -2.71515e+06 -3.65696e+06 -3.36294e+06 879579 -1.7329e+06 660732
257 3 O -0.904744 46.0856 51.5712 -1.2 -9.29982 -2.66748e+06 -2.85747e+06 -5.92478e+06 539068 470159 -1.32782e+06
258 3 O -1.64099 46.5736 48.7158 -1.2 -8.77436 -2.83238e+06 -3.87378e+06 -4.34595e+06 -80928.6 -52086.6 -1.17147e+06
259 1 Mg 0.453486 45.0712 46.6599 1.2 -7.20949 2.0642e+06 35801 1.45696e+06 1.61509e+06 1.07787e+06 -1.42332e+06
260 3 O 0.943373 46.4245 48.2554 -1.2 -8.41334 -2.17827e+06 -2.82957e+06 -2.66484e+06 -151893 -245808 1.39426e+06
261 1 Mg 2.01927 44.989 54.465 1.2 -7.9682 2.50425e+06 839178 1.98873e+06 168067 -44572.1 903232
262 2 Si 1.99298 47.6736 56.2552 2.4 -31.8295 4.61244e+06 4.25654e+06 1.30333e+07 -760843 24627.6 324200
263 3 O 1.85888 46.1063 56.3665 -1.2 -10.0156 -1.9296e+06 -1.64763e+06 -4.43183e+06 -99216.6 -269365 -1.25235e+06
264 3 O 2.164 48.7093 52.6285 -1.2 -9.45348 -3.32869e+06 -1.76333e+06 -5.72258e+06 567503 -1.75264e+06 -1.077e+06
265 3 O 0.746115 48.4515 55.557 -1.2 -9.51214 -664136 -2.06117e+06 -5.25628e+06 -689834 -405605 -501565
266 3 O 3.2431 48.2971 55.5989 -1.2 -10.0574 -3.41116e+06 -2.17069e+06 -4.39526e+06 923078 364038 -558186
267 1 Mg 0.603782 47.4211 52.2013 1.2 -7.79334 -1.70656e+06 -1.63085e+06 5.06111e+06 -1.10807e+06 2.12297e+06 599050
268 1 Mg 2.52796 46.8202 49.3234 1.2 -7.55844 1.90095e+06 434725 -157628 149286 -123560 871264
269 2 Si 2.18302 49.3909 51.1412 2.4 -32.5615 6.02517e+06 4.23665e+06 1.13428e+07 2.16825e+06 -183110 209540
270 3 O 2.30218 51.0053 51.1606 -1.2 -10.0081 -3.0248e+06 -1.33852e+06 -3.8087e+06 269968 109023 -207078
271 3 O 1.88368 48.2857 57.7738 -1.2 -9.95555 -1.2938e+06 -1.91626e+06 -5.01614e+06 333376 -613067 545439
272 3 O 0.788833 48.8499 50.662 -1.2 -8.76911 -2.71149e+06 -2.1552e+06 -6.72542e+06 792045 -1.22734e+06 -560469