ITEM: TIMESTEP
4500
ITEM: NUMBER OF ATOMS
13888
ITEM: BOX BOUNDS pp pp pp
45.0 100.0
50.0 105.0
-18.06819 30.11365
ITEM: ATOMS id type x y z Coordination
3 3 48.9634 50.5133 -14.0307 24
6 3 52.3661 51.7682 -14.7793 22
19 1 45.8201 54.2448 -13.9174 27
21 1 49.1091 55.0739 -15.4364 26
23 1 46.0629 52.4395 -16.2348 24
24 2 46.399 51.7234 -13.0538 24
25 2 46.1636 55.287 -16.8934 27
28 3 46.5242 57.511 -13.9831 26
29 3 46.3628 50.7884 -17.1158 24
31 3 45.8892 53.8612 -17.7601 24
34 3 47.0126 52.3845 -14.4262 25
35 1 48.7327 52.1253 -15.2681 26
36 1 50.4907 57.642 -14.3679 22
37 1 49.1802 57.3 -17.5485 22
39 1 53.3057 53.9232 -12.0159 25
41 1 51.5227 52.2707 -16.6136 24
43 2 51.5382 52.8762 -13.9237 24
44 2 48.0601 57.4834 -14.0779 25
45 2 52.5611 55.2362 -15.2456 25
47 3 51.4694 52.225 -12.4696 22
48 3 51.4349 57.2832 -12.5344 23
49 3 47.1335 54.8126 -15.661 24
51 3 48.7013 56.0348 -13.5641 19
54 3 51.3204 56.1516 -15.1688 24
55 3 50.3711 53.1973 -14.8884 23
56 3 48.7193 57.6126 -15.5597 20
57 3 52.4947 54.1362 -16.3888 24
60 3 52.5991 54.1417 -13.876 23
62 3 48.7044 52.7043 -17.2226 23
63 1 52.6005 50.5893 -12.5027 23
72 2 52.9502 57.4528 -12.4377 25
84 3 53.3636 58.24 -13.8315 23
89 3 53.2831 58.0859 -16.9937 25
1756 1 45.588 56.6675 -12.2089 24
1767 3 47.3955 51.4793 -11.8966 22
1773 1 50.0611 57.536 -10.9288 26
1774 1 49.3291 51.6539 -12.1419 22
1793 3 52.1395 54.7509 -10.8225 26
1797 3 48.7892 58.3697 -12.9563 23
1798 3 49.3552 53.7885 -12.4189 26
1825 3 53.7272 58.3351 -11.2951 25
53 3 50.2725 50.6185 -16.2187 21
1759 1 46.2643 53.5009 -10.8988 25
1761 2 48.5299 55.1212 -12.2387 25
1766 3 46.9451 54.9052 -12.095 22
1777 1 50.3362 53.7395 -10.7186 26
1778 1 47.6375 58.998 -10.4758 27
1785 3 49.08 55.8129 -10.9226 25
20 1 45.3779 57.7316 -15.7238 25
2825 3 46.4788 57.462 -10.5902 26
12159 3 53.0389 50.7741 -17.419 23
12203 3 46.736 56.4308 -17.8224 24
12212 3 49.4866 55.1992 -17.3889 24
2815 3 45.3473 52.6834 -12.4779 24
27 3 45.8512 50.2763 -13.3794 23
10724 3 63.7201 71.3738 23.2517 24
12662 3 70.7946 77.481 24.9334 23
70 1 52.8024 59.1997 -15.4314 25
22 1 45.1873 59.2329 -13.3841 23
10712 1 64.8191 69.698 23.5037 28
79 3 53.875 56.0042 -12.2968 23
77 3 54.1097 55.7496 -15.1938 24
7 3 54.4192 50.7902 -13.1897 23
66 1 54.1531 51.1433 -15.2035 25
83 3 55.7262 53.3184 -12.4028 23
90 3 54.9656 52.823 -15.7439 24
1826 3 54.3545 53.0958 -10.3814 26
8 2 59.915 51.5576 -15.187 25
9 3 59.0567 52.2177 -13.9851 24
10 3 59.4367 50.8793 -10.8565 24
64 1 55.1373 57.5275 -14.3329 25
65 1 54.8183 56.8206 -17.0073 28
67 1 57.2691 54.7201 -12.5711 26
69 1 55.0117 54.1486 -14.1906 25
71 2 55.8386 53.3433 -10.8451 23
73 2 57.2302 55.5277 -15.8632 29
76 3 56.2874 57.5672 -12.7002 24
81 3 56.643 50.8684 -14.4277 24
82 3 56.3864 56.8766 -15.7443 25
85 3 56.3917 54.5828 -17.055 22
88 3 57.0278 54.5841 -14.5792 24
91 1 58.2052 51.8371 -12.2305 25
92 1 60.1427 57.8265 -14.5388 24
93 1 59.7469 56.8109 -17.2439 27
94 1 57.4171 52.4316 -15.4925 25
95 1 62.4139 54.5482 -12.8063 24
97 1 59.3129 54.4823 -14.1809 28
99 2 60.4403 53.5339 -11.2068 26
100 2 57.8894 57.7287 -12.7214 27
101 2 61.7844 55.5356 -15.7376 29
103 3 61.4826 52.6587 -12.1338 23
104 3 61.0723 57.5328 -12.7729 23
105 3 58.7719 55.8044 -15.8206 25
107 3 58.4633 56.2033 -12.7395 25
109 3 61.2507 52.3625 -15.7034 25
110 3 61.2932 57.031 -15.8834 24
111 3 59.1019 53.7646 -11.9325 22
112 3 58.3585 58.3606 -14.035 24
113 3 61.0619 54.8406 -17.0441 24
116 3 61.2442 54.8906 -14.3011 27
117 3 58.4038 58.3487 -17.4319 24
118 3 59.0529 53.2388 -16.2886 25
119 1 62.2748 52.0585 -13.9954 26
122 1 62.3573 51.5236 -17.1242 25
128 2 62.6803 57.6676 -12.7828 26
1801 1 55.3591 56.8264 -11.0885 30
1821 3 56.4856 54.9423 -10.7019 25
1829 1 59.9236 56.6951 -11.264 28
1849 3 61.4154 54.9251 -10.9395 25
1853 3 58.5452 58.3598 -11.4693 23
1858 1 62.7549 51.3317 -11.0049 25
903 3 56.8206 50.465 -11.8875 17
12162 3 58.9378 50.6052 -16.015 21
12223 2 55.4663 53.1788 -17.2338 25
12227 3 56.4952 51.9525 -17.4153 24
12251 2 60.0958 53.5449 -17.4986 25
909 3 60.9921 50.5944 -14.2355 26
126 1 62.4008 58.9605 -15.7814 25
75 3 56.9793 52.5971 -10.2079 22
5 2 55.9009 50.2881 -13.2338 22
901 1 56.9731 50.0274 -16.3185 24
2637 1 57.0108 50.556 -9.8959 21
5390 2 72.388 57.7475 5.79596 25
140 3 63.2847 58.1526 -14.1335 26
145 3 63.2184 58.2093 -17.6139 23
1881 3 63.3118 58.2954 -11.4943 25
12 3 63.5528 50.4342 -15.941 23
135 3 63.3657 56.1891 -12.7081 24
11 2 64.7858 50.5611 -14.99 25
13 3 64.1685 50.9697 -13.3238 20
14 2 69.1541 50.6729 -15.3175 21
15 3 68.1058 51.7437 -15.4428 22
16 3 68.8131 51.6599 -11.551 17
120 1 64.7784 56.7608 -14.1756 25
121 1 64.4445 56.6795 -17.083 24
123 1 66.9981 54.398 -12.6154 26
125 1 64.5521 53.7886 -15.4753 28
127 2 64.777 52.5078 -12.6384 21
129 2 66.8242 55.5852 -15.7038 26
131 3 66.2824 52.4471 -12.6721 22
132 3 65.8884 57.4099 -12.5407 22
133 3 63.3346 55.449 -15.83 24
137 3 65.3986 51.9699 -15.4388 21
138 3 66.026 56.8738 -15.8218 23
139 3 63.7864 53.3538 -13.6136 23
141 3 66.3256 54.5566 -16.8754 23
144 3 66.1023 54.9182 -14.3638 25
146 3 63.8426 52.9049 -17.6661 22
147 1 67.907 51.9604 -13.3927 21
148 1 69.7921 57.5183 -14.1591 22
149 1 69.5336 56.7139 -16.9067 26
150 1 66.8627 52.604 -16.7388 21
153 1 69.2981 53.7343 -15.7714 25
155 2 70.334 53.6358 -12.9488 26
156 2 67.4672 57.4635 -12.4938 26
157 2 71.8736 55.4299 -15.1916 27
159 3 71.1269 52.2731 -12.7549 23
160 3 70.8379 57.5627 -12.3796 24
161 3 68.3877 55.5695 -15.6445 25
163 3 67.9756 55.9895 -12.3031 22
165 3 70.5351 51.5127 -15.5212 23
166 3 71.0179 56.7554 -15.4089 23
167 3 69.0174 53.5983 -13.8042 24
168 3 67.9882 58.0136 -13.9249 25
169 3 71.2499 54.3549 -16.3091 22
172 3 71.4271 54.5664 -13.7719 25
173 3 68.2293 58.2066 -17.2116 23
174 3 68.7503 53.0112 -17.6073 23
175 1 72.035 51.2379 -14.2304 23
178 1 71.9638 52.4168 -16.6762 25
182 2 72.3576 57.6677 -12.3432 24
1857 1 64.7932 56.7574 -11.1628 27
1877 3 66.1501 54.7361 -10.7569 22
1882 3 64.2303 52.6749 -11.1347 21
1885 1 69.6402 56.1728 -11.097 26
9190 3 70.7659 77.5083 12.8605 24
1909 3 68.2074 58.2569 -11.3352 24
1910 3 70.0386 54.2495 -11.5798 22
1914 1 71.2385 52.5183 -10.7153 23
1750 2 68.5286 51.5545 -10.0267 20
3650 1 72.4998 51.1141 -5.16478 22
42 1 47.8695 61.4264 -17.7814 24
26 2 45.9886 60.8601 -15.976 23
32 3 46.2504 60.1785 -17.4397 22
33 3 46.4331 60.1441 -14.6963 23
40 1 50.3198 59.7263 -12.848 25
46 2 50.387 60.7434 -15.9773 25
50 3 48.8416 60.7762 -16.1188 25
52 3 49.3238 61.2903 -13.0065 24
58 3 51.1232 60.1549 -17.3199 25
59 3 50.9531 59.6289 -14.8473 23
78 3 53.7653 60.8484 -15.8029 23
193 1 48.0552 64.6821 -13.1386 25
195 1 45.6271 64.0289 -16.138 25
196 2 45.1864 63.6946 -12.9514 23
197 2 47.6315 65.8745 -16.1048 26
199 3 46.6455 63.0294 -12.9061 24
200 3 46.8757 67.8125 -13.0928 25
201 3 46.653 62.2948 -16.0746 21
202 3 47.0836 67.287 -16.1169 26
203 3 47.0279 65.0201 -17.4746 26
206 3 47.1968 64.8272 -14.9795 24
207 1 47.4051 61.051 -13.2026 26
208 1 50.4367 67.0231 -14.6542 28
209 1 50.3732 66.9113 -17.5819 29
210 1 48.2746 63.1213 -15.6526 24
211 1 52.6476 64.7082 -13.0659 27
213 1 50.5174 64.2796 -15.971 29
215 2 49.9874 62.7103 -12.8589 26
216 2 48.3884 67.9492 -13.1378 24
217 2 52.5949 65.8253 -16.0295 25
219 3 51.5845 62.5345 -12.7805 22
220 3 51.6201 67.678 -13.1642 23
221 3 49.2539 65.8941 -16.0378 23
223 3 49.1019 66.4789 -13.1319 25
225 3 51.2739 62.0554 -15.7413 22
226 3 51.8183 67.2448 -16.0502 25
227 3 49.4884 63.513 -14.1726 22
229 3 51.8191 65.1284 -17.2868 25
232 3 51.942 64.9503 -14.8638 23
234 3 49.3613 63.1841 -17.4346 25
235 1 52.8519 62.1439 -14.5568 27
238 1 52.6501 61.744 -17.3707 27
244 2 53.1771 67.8477 -12.9707 25
249 3 54.1172 65.8983 -15.9587 23
251 3 53.8595 66.336 -12.9458 25
1768 3 46.4553 60.2786 -11.6173 23
1794 3 51.0211 59.6992 -11.0632 24
1928 1 45.616 66.6787 -12.1578 27
1939 3 47.125 65.3711 -11.4975 22
1945 1 50.4466 67.0724 -11.6026 28
1946 1 47.6018 63.6052 -10.566 24
1965 3 51.8581 65.1321 -11.3146 24
1970 3 49.309 63.5127 -11.622 24
1974 1 52.8288 61.9579 -11.3399 28
262 3 54.1256 63.3009 -17.3833 26
80 3 54.0597 61.2325 -12.8567 24
191 1 45.5437 68.3709 -16.076 23
1938 3 46.8358 67.3782 -10.1018 25
1933 2 47.6951 66.1007 -10.2075 25
1953 2 52.51 65.8793 -10.1173 25
1957 3 49.2597 66.1558 -10.0718 24
1962 3 51.8126 67.2734 -10.0776 25
1762 2 45.8824 60.9495 -10.317 24
1937 3 46.457 62.2478 -9.94067 22
1786 3 48.9952 60.799 -9.89209 25
12458 3 63.5139 70.871 26.3682 23
98 1 57.566 58.9782 -15.8038 26
255 3 54.1985 63.4227 -14.0116 23
1998 3 54.2569 63.3182 -11.4328 26
68 1 55.1277 59.6279 -12.655 28
74 2 55.3898 60.6695 -15.7179 26
86 3 56.0336 60.1478 -17.1024 25
87 3 55.7504 59.5947 -14.6477 24
96 1 60.1548 59.6755 -12.5214 28
102 2 60.1586 60.718 -15.7014 26
106 3 58.6213 60.8419 -15.7144 23
108 3 58.8837 61.1821 -12.7741 25
114 3 60.8071 60.0918 -17.0249 25
115 3 60.7777 59.7141 -14.5422 24
236 1 55.254 66.9281 -14.4315 29
237 1 55.2506 66.9743 -17.3268 28
239 1 57.5221 64.7034 -12.8763 26
241 1 55.2214 63.975 -15.7335 27
243 2 54.8797 62.8098 -12.7498 25
245 2 57.3167 65.8461 -15.8616 24
247 3 56.4106 62.6154 -12.7333 23
248 3 56.392 67.6566 -12.9429 22
253 3 56.1207 62.0182 -15.5518 24
254 3 56.6196 67.2898 -15.9093 26
257 3 56.5935 65.0789 -17.1235 24
260 3 56.5946 65.0776 -14.6009 24
263 1 57.6884 61.9173 -14.2343 28
264 1 60.0868 66.821 -14.2743 29
265 1 60.0852 66.8134 -17.2592 28
266 1 57.4322 61.8367 -17.2154 26
267 1 62.2977 64.573 -12.6859 27
269 1 59.9267 64.0364 -15.7359 28
271 2 59.6404 62.7961 -12.5973 25
272 2 57.9712 67.8156 -12.8217 25
273 2 62.1241 65.7592 -15.6458 25
275 3 61.1671 62.4946 -12.558 24
276 3 61.1543 67.621 -12.7251 23
277 3 58.8584 65.8392 -15.7396 23
279 3 58.6615 66.258 -12.7797 25
281 3 60.9129 62.0818 -15.4689 26
282 3 61.4332 67.2122 -15.689 25
283 3 58.9758 63.4446 -13.8535 23
285 3 61.4617 65.0205 -16.9279 23
288 3 61.37 65.0529 -14.3851 24
290 3 58.9004 63.2963 -17.3838 24
291 1 62.3557 61.9617 -14.1157 28
294 1 62.2869 61.9164 -17.0871 27
300 2 62.6895 67.7766 -12.6523 25
1822 3 56.1101 60.029 -11.0589 24
1850 3 61.0626 60.1347 -10.8979 24
1973 1 55.2392 66.8734 -11.3256 28
1993 3 56.6187 65.0722 -11.1536 24
2001 1 60.0668 66.8499 -11.2056 28
2002 1 57.5656 61.8219 -11.1634 28
2021 3 61.3975 65.0976 -10.9571 24
2026 3 58.9348 63.2269 -11.2546 25
2030 1 62.4243 61.8462 -11.0164 27
307 3 63.3995 66.1889 -12.6425 25
1990 3 56.5598 67.2124 -9.94987 26
1981 2 57.2883 65.7638 -9.89181 25
2013 3 58.8183 65.8359 -9.72444 23
180 1 72.1038 59.1452 -15.2486 26
154 1 67.2169 58.9577 -15.4993 28
134 3 63.3936 60.6796 -15.5234 22
124 1 64.9228 59.5256 -12.422 27
130 2 64.9274 60.6052 -15.4393 25
136 3 63.7506 61.1677 -12.5824 26
142 3 65.6373 59.7895 -16.7136 24
143 3 65.6519 59.82 -14.215 25
152 1 69.7594 59.4068 -12.1763 27
158 2 69.8321 60.6496 -15.2982 25
162 3 68.2894 60.719 -15.4367 23
164 3 68.6168 61.0628 -12.4297 26
170 3 70.5748 60.0075 -16.5992 25
171 3 70.3806 59.5973 -14.1942 25
292 1 64.8326 66.7882 -13.9748 28
293 1 64.7497 66.9048 -17.0335 28
295 1 67.1942 64.5327 -12.5397 27
297 1 64.8044 63.9765 -15.6275 29
299 2 64.4824 62.7747 -12.6221 25
301 2 66.8707 65.812 -15.549 25
303 3 66.0501 62.5157 -12.5297 23
304 3 66.0388 67.4802 -12.509 24
305 3 63.6361 65.8446 -15.582 23
309 3 65.7457 61.9884 -15.5727 25
310 3 66.2391 67.269 -15.5447 25
311 3 63.7778 63.3694 -13.9023 23
313 3 66.156 65.0933 -16.8051 24
316 3 66.2143 64.997 -14.3008 25
318 3 63.7568 63.2574 -17.2644 24
319 1 67.2102 61.7737 -14.0389 27
320 1 69.5934 66.7523 -13.8299 30
321 1 69.5222 66.9389 -16.8801 28
322 1 67.0914 61.6365 -17.0291 26
323 1 71.9156 64.7712 -12.3653 27
325 1 69.6062 64.0708 -15.3078 28
327 2 69.2518 62.5898 -12.3575 25
328 2 67.5817 67.6962 -12.437 25
329 2 71.6217 65.8496 -15.4028 25
331 3 70.8194 62.5264 -12.2751 23
332 3 70.7795 67.6907 -12.2772 24
333 3 68.4194 65.8828 -15.5042 22
335 3 68.2895 66.2012 -12.3717 27
337 3 70.5792 62.0405 -15.0759 22
338 3 70.8743 67.2394 -15.4315 27
339 3 68.5996 63.2523 -13.6607 22
341 3 70.953 65.0092 -16.6365 24
344 3 70.931 65.0999 -14.0896 24
346 3 68.4853 63.1677 -16.9704 25
347 1 72.0972 62.1342 -13.7579 26
350 1 71.9471 61.8266 -16.6262 27
354 2 72.3134 67.9405 -12.2431 26
1878 3 65.7813 60.015 -10.7126 23
1906 3 70.7126 60.1155 -10.5928 23
2029 1 64.7667 66.6572 -11.1478 28
2049 3 66.1784 65.0362 -10.8295 24
2054 3 63.773 63.3142 -11.3265 24
2057 1 69.5905 67.0027 -10.747 28
2058 1 67.1574 61.5419 -10.9842 28
2077 3 71.0267 65.022 -10.5478 26
2082 3 68.5495 63.1729 -11.0818 24
2086 1 71.9406 61.9438 -10.7415 28
194 1 45.5653 69.3898 -13.4642 25
198 2 45.8808 70.975 -16.4126 24
204 3 46.4057 70.1811 -17.7001 22
205 3 46.4753 70.1468 -15.2252 22
212 1 50.4405 69.7344 -13.3073 25
214 1 48.2189 69.0861 -16.1871 27
218 2 50.6926 70.9155 -16.2974 25
222 3 49.1219 70.9201 -16.2805 22
224 3 49.2785 71.3495 -13.3243 25
228 3 49.0584 68.5985 -14.4413 23
230 3 51.3545 70.1188 -17.5038 23
231 3 51.3996 70.2486 -15.0161 24
233 3 48.9184 68.5067 -17.9579 24
242 1 52.9265 69.1773 -15.956 26
250 3 54.0739 70.9153 -16.1988 24
256 3 53.8603 68.5012 -14.2252 23
261 3 53.7871 68.4134 -17.6556 24
363 1 45.5931 77.0184 -15.0103 29
365 1 48.2676 74.69 -13.398 28
367 1 45.4655 74.1247 -16.628 26
369 2 47.6715 75.7749 -16.3827 26
371 3 46.7466 73.0537 -13.5083 24
373 3 46.6316 72.3492 -16.3904 21
375 3 46.957 75.0918 -17.6645 24
378 3 46.8631 74.9598 -15.1085 23
379 1 47.9805 71.9459 -14.9008 28
380 1 50.3963 76.8967 -14.9897 29
381 1 50.4037 76.7855 -17.9321 30
382 1 47.7155 71.753 30.0728 25
383 1 52.7021 74.7046 -13.5055 27
385 1 50.3307 74.1041 -16.3227 28
387 2 50.0919 72.7401 -13.2975 25
389 2 52.4497 75.8485 -16.4794 25
391 3 51.5816 72.6077 -13.2875 24
393 3 49.1897 75.8985 -16.3183 23
395 3 49.1108 76.4316 -13.5328 26
397 3 51.3422 72.3423 -16.3715 24
399 3 49.3843 73.4931 -14.6045 25
401 3 51.7944 75.2084 -17.7861 25
404 3 51.8438 75.1599 -15.211 25
406 3 49.401 73.4279 -12.0216 25
407 1 52.8988 71.8996 -14.8494 29
410 1 52.8619 71.8545 -17.7935 29
421 3 54.0007 75.9734 -16.4466 24
423 3 53.8814 76.3327 -13.4821 26
434 3 54.1766 73.5271 -11.9625 23
1934 2 45.4473 71.639 -11.1998 25
1940 3 46.3011 70.4632 -11.805 23
1966 3 51.3673 70.2177 -11.6036 24
1969 3 48.9823 68.5817 -11.7907 27
1997 3 53.8312 68.4044 -11.6397 24
2111 3 47.1553 75.2402 -11.8547 25
2117 1 50.5232 77.0108 -11.9644 29
2118 1 48.0287 71.9169 -11.7678 27
2125 2 52.5348 75.8762 -10.4302 25
2129 3 49.3942 75.9952 -10.4453 22
2137 3 51.805 75.2703 -11.6922 25
2146 1 52.8494 71.8847 -11.7432 29
2157 3 54.0411 76.0047 -10.4048 24
2100 1 45.5962 76.7235 -12.0338 26
368 2 45.7191 74.1317 -14.0021 27
374 3 47.0277 77.2693 -16.4124 26
398 3 51.6941 77.3072 -16.4818 25
2134 3 51.896 77.3824 -10.4381 25
364 1 45.5749 76.6727 30.0538 26
2103 1 45.7476 74.2395 -10.5071 27
2105 2 47.8654 75.9233 -10.5401 25
2121 1 50.4611 74.0691 -10.2488 27
2133 3 51.5089 72.358 -10.2961 24
2110 3 47.0796 77.3382 -10.589 27
427 3 54.1141 73.4871 -14.4966 23
1954 2 50.734 70.89 -10.2704 25
1958 3 49.1565 71.0088 -10.2802 22
1986 3 54.0082 70.9138 -10.2469 22
2109 3 46.5889 72.5392 -10.5591 25
1927 1 45.4076 68.9977 -10.2266 25
252 3 54.2455 71.3867 -13.1977 25
289 3 58.6661 68.3936 -17.4201 26
240 1 55.3576 69.6876 -13.1449 28
246 2 55.6053 70.8096 -16.1895 25
258 3 56.3089 70.2072 -17.4733 25
259 3 56.2243 70.0734 -14.8753 23
268 1 60.1551 69.6 -12.9524 28
270 1 57.7748 69.0568 -15.7669 26
274 2 60.3337 70.7636 -15.9995 25
278 3 58.7659 70.8969 -16.0582 23
280 3 58.9045 71.3117 -13.0947 26
284 3 58.6133 68.3884 -14.1007 25
286 3 61.0309 70.1068 -17.3022 26
287 3 60.952 69.9948 -14.7051 25
298 1 62.5206 68.9861 -15.612 27
408 1 55.2468 76.8877 -14.9764 30
411 1 57.483 74.7015 -13.4637 28
413 1 55.1215 74.0626 -16.2037 26
415 2 54.9026 72.9115 -13.1677 25
417 2 57.232 75.8795 -16.4968 25
419 3 56.4239 72.8108 -13.2004 24
425 3 56.241 72.3324 -16.1613 26
429 3 56.5329 75.288 -17.7767 25
432 3 56.6111 75.143 -15.2397 24
435 1 57.6 71.8668 -14.6474 29
436 1 59.8973 76.8506 -15.0175 29
438 1 57.6341 71.8583 -17.6548 30
439 1 62.2619 74.7043 -13.5994 26
441 1 59.7748 74.1056 -16.0898 27
443 2 59.6816 72.7634 -13.0508 25
445 2 62.0257 75.9297 -16.649 24
447 3 61.2066 72.5612 -13.019 23
449 3 58.7867 76.006 -16.4588 24
451 3 58.6302 76.3842 -13.5104 25
453 3 61.0084 72.2237 -15.9192 25
455 3 59.0088 73.4964 -14.3337 25
460 3 61.3403 75.1778 -15.3826 25
462 3 58.895 73.3958 -17.7768 26
463 1 62.4206 71.7758 -14.4053 29
466 1 62.3197 71.7694 -17.3864 28
1994 3 56.2467 70.0594 -11.3588 24
2022 3 60.9915 70.199 -11.2478 24
2025 3 58.6504 68.3431 -11.5409 24
2145 1 55.2279 76.9146 -11.9133 28
2153 2 57.284 75.9008 -10.4668 25
2165 3 56.5618 75.2641 -11.7692 25
2173 1 60.0064 76.9131 -12.0429 29
2174 1 57.6882 71.8432 -11.5666 28
2181 2 62.0391 75.8923 -10.5757 25
2185 3 58.7913 76.0361 -10.4837 24
2193 3 61.3797 75.3005 -11.902 25
2198 3 59.0554 73.3895 -11.7646 26
2202 1 62.2808 71.7554 -11.5099 28
2162 3 56.5866 77.3864 -10.4304 26
2149 1 55.2404 74.105 -10.2795 27
2053 3 63.4236 68.3797 -11.4381 24
479 3 63.3258 76.4318 -13.7434 24
1982 2 55.5556 70.8339 -10.1364 25
2010 2 60.3218 70.8409 -9.90588 25
2014 3 58.7133 70.9109 -10.0572 23
2161 3 56.2549 72.3326 -10.1958 26
2177 1 59.8792 73.9768 -10.0673 27
2189 3 60.9703 72.2763 -9.872 26
317 3 63.3814 68.3297 -17.3732 24
2006 1 57.7153 69.0191 -9.88378 27
2190 3 61.3112 77.3744 -10.5077 25
409 1 55.1876 76.8867 -17.9172 29
457 3 61.3534 75.3878 -17.9678 25
426 3 56.5209 77.3632 -16.446 25
312 3 63.4238 68.3479 -13.9768 24
306 3 63.5381 70.7477 -15.766 23
296 1 64.9563 69.5865 -12.6132 32
302 2 65.1025 70.6319 -15.6219 25
308 3 63.7218 71.214 -12.9011 25
314 3 65.7644 70.0458 -16.9126 24
315 3 65.7927 69.8875 -14.3808 22
324 1 69.6021 69.6002 -12.2844 29
326 1 67.3728 68.9683 -15.4281 29
330 2 69.8883 70.7867 -15.2538 25
334 3 68.3802 70.8438 -15.371 25
336 3 68.4549 71.151 -12.4924 25
340 3 68.2633 68.2435 -13.7331 24
342 3 70.593 70.1484 -16.5329 24
343 3 70.6102 70.0808 -13.9924 23
345 3 68.2135 68.3309 -17.1801 24
352 1 72.0159 69.0691 -15.2535 27
464 1 64.6662 77.0243 -15.3426 28
467 1 67.1214 74.7936 -13.9043 25
469 1 64.7896 73.8515 -15.7866 26
471 2 64.4513 72.7224 -12.7372 24
473 2 66.8141 75.8871 -17.0143 25
475 3 65.9537 72.3866 -12.6728 25
477 3 63.5579 75.9925 -16.5939 25
481 3 65.8061 72.1246 -15.5269 25
483 3 63.8345 73.4449 -14.0248 23
488 3 66.2953 75.0882 -15.7216 24
490 3 63.6448 73.2846 -17.3715 24
491 1 67.1913 71.6146 -14.0135 29
492 1 69.4995 77.1062 -15.8217 27
494 1 67.0449 71.8081 -17.0946 28
495 1 71.7971 74.6728 -14.3094 25
497 1 69.3661 73.8735 -15.4136 25
499 2 69.1157 72.6998 -12.3573 26
501 2 71.5062 75.7338 -17.3573 29
503 3 70.6612 72.5317 -12.2716 25
505 3 68.3205 76.1716 -17.1528 25
507 3 68.2115 76.4714 -14.1836 22
509 3 70.5756 72.2815 -15.0914 22
511 3 68.4815 73.3919 -13.6687 24
516 3 70.8859 75.0769 -16.016 24
518 3 68.5044 73.3423 -17.072 26
519 1 71.9397 71.664 -13.5775 29
522 1 71.9242 71.8576 -16.7062 30
2050 3 65.8215 70.0504 -10.8312 24
2078 3 70.5799 70.2776 -10.4623 24
2081 3 68.2645 68.3932 -11.1837 24
2201 1 64.7694 76.995 -12.3439 26
2209 2 66.7741 75.8706 -10.9371 24
2213 3 63.5949 76.002 -10.652 24
2221 3 66.1381 75.3227 -12.2939 25
2226 3 63.7522 73.2088 -11.4347 25
2229 1 69.4309 76.8741 -12.6008 27
2230 1 67.1219 71.8075 -11.0015 29
2237 2 71.4528 75.7724 -11.2697 28
2241 3 68.3291 76.0808 -11.0639 24
2249 3 70.8055 75.2978 -12.6533 29
2254 3 68.4644 73.1916 -11.0272 26
2258 1 71.8253 72.0023 -10.672 31
2205 1 64.6459 73.8509 -9.78748 25
2042 3 63.521 70.8061 -9.68135 23
2217 3 65.7783 72.2098 -9.51994 22
2038 2 65.0829 70.7058 -9.56862 25
2233 1 69.2477 73.9891 -9.45331 25
3477 2 55.3349 50.1732 -1.11266 22
2627 1 47.9227 51.2532 -9.81019 27
1739 3 48.0585 53.229 -10.0493 22
1802 1 53.1422 51.6847 -9.62 22
1740 3 48.2245 50.4596 -5.94406 23
1742 3 52.6301 54.9347 -8.29502 22
1743 3 53.6075 50.8763 -7.87146 23
1757 1 48.2353 54.9696 -9.19134 25
1760 2 45.3401 53.8336 -7.97451 22
1764 3 46.6278 57.5767 -7.45996 23
1765 3 46.1685 50.3351 -9.26316 26
1770 3 46.2441 54.8411 -8.66041 22
1771 1 45.0925 51.032 -7.80753 23
1772 1 50.615 56.4477 -8.05953 28
1775 1 52.7111 54.4165 -6.40855 24
1779 2 50.478 52.8509 -8.10453 25
1780 2 48.1747 57.6942 -7.61723 26
1781 2 52.7059 55.7172 -9.65091 26
1783 3 51.4315 52.9105 -6.86437 21
1784 3 51.4771 57.5624 -6.63192 24
1787 3 48.7071 56.0963 -7.3201 19
1790 3 51.7149 56.9703 -9.631 25
1791 3 51.12 52.0417 -9.38244 24
1792 3 48.7885 58.0215 -8.98644 24
1796 3 50.0977 54.2697 -8.67045 23
1799 1 52.4039 51.3043 -6.39242 23
1808 2 53.01 57.7791 -6.46646 27
1815 3 53.8076 56.3433 -6.43492 22
1820 3 53.5412 58.4491 -7.74915 26
3475 3 46.7542 52.7087 -4.25668 23
3495 1 45.0515 51.9908 -5.22013 26
3497 2 48.6698 55.2175 -5.87475 25
3502 3 47.1336 55.3565 -5.61019 23
3503 3 45.9243 52.7812 -6.97523 21
3507 1 48.33 52.1638 -3.05797 23
3509 1 50.2218 57.7507 -4.92693 24
3510 1 47.6181 52.3735 -6.03562 22
3513 1 50.7674 53.2763 -4.82733 22
3517 2 52.2608 55.814 -3.3943 25
3521 3 49.6209 55.9399 -4.98095 23
3525 3 49.3378 50.5881 -2.49546 25
3526 3 51.6996 57.2724 -3.57397 23
3527 3 49.6026 53.6214 -3.11325 22
3528 3 48.7526 58.1755 -3.21705 20
3529 3 52.1483 54.7436 -4.55745 26
3532 3 51.4871 55.1049 -2.20303 21
3533 3 48.7403 58.4322 -6.32248 23
3534 3 49.0445 53.6764 -6.07939 24
3538 1 53.2922 51.6875 -3.27059 21
3542 1 52.8841 59.0022 -3.32251 27
3549 3 53.8499 55.9837 -3.2067 23
3561 3 53.7333 58.4367 -5.18978 23
3492 1 45.3829 56.4314 -5.84106 23
3493 1 46.5431 54.6291 -3.93535 24
3516 2 47.9245 57.3876 -2.0703 21
3523 3 47.6537 55.8891 -2.7581 24
1905 3 72.4282 54.1466 -10.3838 25
4370 3 51.9395 51.5893 -4.49023 24
1789 3 49.0673 51.7209 -7.94042 20
1755 1 45.9117 56.7709 -8.97887 25
1806 1 52.7878 59.0403 -9.63908 27
3508 1 50.5017 58.2241 -2.06858 24
1738 2 49.2169 50.2452 -7.15444 21
513 3 70.8637 75.1991 29.4878 28
2633 3 50.8031 50.2318 -6.95188 23
1763 3 45.1887 50.1576 -5.90937 20
1854 3 60.3447 52.8708 -9.80473 20
1841 3 58.8606 55.6894 -9.57327 27
4373 1 56.159 50.3074 -4.07299 23
1834 1 57.7392 59.0224 -9.72449 30
1830 1 57.2559 52.6591 -8.195 23
1813 3 54.2829 56.1341 -9.48017 25
1819 3 54.5168 53.5331 -6.5045 24
3562 3 55.3293 53.056 -3.96345 22
1741 2 55.0064 50.4898 -7.30201 20
1744 2 60.1391 51.115 -9.4965 23
1745 3 59.1013 51.4212 -8.3047 21
1746 3 59.3744 50.4248 -5.05862 22
1800 1 55.2344 57.6789 -8.39375 27
1803 1 57.6886 54.6582 -6.47652 25
1805 1 54.6541 55.0121 -7.74285 25
1807 2 55.4964 52.8227 -5.47092 25
1809 2 57.3117 55.6567 -9.47069 25
1811 3 56.9003 52.6586 -6.17202 22
1812 3 56.233 57.8211 -6.66613 24
1817 3 56.1985 50.9745 -8.18841 22
1818 3 56.7078 57.0965 -9.51047 25
1824 3 56.6906 54.7056 -8.30013 24
1827 1 58.2424 50.8251 -6.60725 29
1828 1 59.8662 56.9834 -8.17745 26
1831 1 62.5052 54.3093 -6.57621 24
1833 1 60.476 53.2771 -7.91492 24
1835 2 59.8937 53.7593 -4.85309 27
1836 2 57.7581 57.854 -6.67223 25
1837 2 62.0029 55.7088 -9.57841 24
1839 3 61.6398 52.1743 -6.76487 22
1840 3 61.0984 57.3924 -6.67228 23
1843 3 58.4442 56.3839 -6.81007 26
1845 3 61.6849 50.8456 -9.42935 24
1846 3 61.2381 57.0961 -9.63525 26
1847 3 59.4009 53.6795 -6.37978 23
1848 3 58.5317 58.4918 -7.88504 22
1852 3 61.6564 54.8352 -8.29962 23
1855 1 62.5342 50.4722 -7.496 25
1864 2 62.6677 57.6179 -6.65444 25
3480 2 59.2897 51.0848 -3.62076 25
3481 3 57.7682 51.3227 -3.38792 22
3484 3 62.8808 50.8399 -3.3243 25
3536 1 55.2398 56.972 -2.00323 27
3537 1 55.0075 56.7225 -4.88971 30
3541 1 54.689 54.2197 -2.44533 22
3545 2 57.3104 55.9478 -3.61171 27
3553 3 54.8725 50.4814 -2.5573 27
3554 3 56.3983 57.3912 -3.54887 28
3557 3 56.5084 55.3854 -5.00059 25
3560 3 56.6772 55.1533 -2.4026 21
3564 1 60.176 57.878 -2.41375 24
3565 1 59.9762 57.0927 -5.12372 29
3566 1 57.0454 52.9922 -2.6522 25
3569 1 59.3432 55.0091 -2.11061 26
3573 2 62.0554 55.5481 -3.52471 28
3577 3 58.7974 56.4677 -3.4521 27
3581 3 60.4065 52.4112 -4.04353 23
3582 3 61.4641 56.9799 -3.65813 26
3585 3 61.1585 54.7924 -4.80828 25
3588 3 61.2778 54.7805 -2.33576 25
3589 3 58.4778 58.4423 -5.37494 25
3590 3 58.6687 54.1757 -3.99172 27
3594 1 61.7592 51.1227 -5.18641 24
3591 1 61.7873 52.3059 -2.41065 25
2639 3 54.9839 51.1575 -5.74208 20
4381 3 60.094 50.6291 -2.37559 22
3598 1 62.5638 59.0458 -3.52077 27
3570 1 57.4612 59.0886 -3.64413 27
1862 1 62.4597 58.9725 -9.71782 27
12634 3 65.9977 77.4686 25.2988 25
1886 1 65.2388 51.6897 -9.49832 22
1871 3 63.389 56.1437 -6.51202 25
1876 3 63.3358 58.1493 -7.96116 24
3617 3 63.4184 58.284 -5.39306 23
1749 3 63.9652 50.8174 -6.02229 24
1751 3 67.1665 51.9159 -9.39261 24
1752 3 68.9114 51.1077 -6.23242 22
1856 1 64.8023 56.8697 -8.08916 27
1859 1 67.041 54.3558 -6.61815 26
1861 1 64.6818 54.1652 -9.44685 23
1863 2 64.5495 52.2552 -6.50151 22
1865 2 66.9163 55.59 -9.59693 25
1867 3 66.1144 52.178 -6.37406 20
1868 3 65.9873 57.4589 -6.50707 23
1869 3 63.5574 55.7194 -9.72755 22
1874 3 66.1793 57.0034 -9.70286 25
1875 3 64.2394 52.727 -8.03437 24
1880 3 66.1824 55.0107 -8.22301 24
1883 1 67.1817 50.8124 -7.44174 23
1884 1 69.9499 57.8138 -8.60472 26
1889 1 69.4516 55.1273 -7.87354 22
1891 2 69.4892 52.4924 -5.77928 21
1892 2 67.546 57.5837 -6.65285 27
1893 2 72.1105 55.3763 -9.41827 29
1895 3 71.1679 52.314 -6.03712 22
1896 3 70.7115 57.4446 -6.53718 24
1897 3 68.4444 55.5823 -9.46641 23
1899 3 68.198 56.1441 -6.55678 24
1901 3 69.7476 52.191 -9.30313 24
1902 3 71.0895 56.5754 -9.6404 23
1903 3 68.8966 53.5689 -6.80872 23
1904 3 68.1756 58.1891 -7.99336 25
1908 3 71.4049 54.5459 -8.1273 26
1911 1 71.3073 52.4439 -8.0301 20
3483 2 64.4354 50.6313 -2.87849 26
3487 3 67.4941 50.8973 -2.31908 23
3593 1 64.6879 56.5915 -5.06693 28
3597 1 64.6598 53.7092 -3.72062 28
3601 2 66.8536 55.5695 -3.62363 24
3605 3 63.568 55.5013 -3.60595 23
3609 3 65.2919 51.8662 -3.52453 23
3610 3 66.0573 56.9602 -3.55981 22
3613 3 66.2866 54.7119 -4.81589 24
3616 3 66.3525 54.6655 -2.3514 25
3618 3 63.8593 53.3999 -5.5971 25
3621 1 69.4463 56.5715 -5.06357 29
3622 1 67.011 51.6741 -4.70887 24
3625 1 69.4975 54.125 -2.89779 25
3626 1 67.1542 58.8594 -3.528 26
3629 2 71.7109 55.6677 -3.4107 24
3633 3 68.3947 55.678 -3.42454 23
3637 3 69.766 50.3093 -3.30535 27
3638 3 71.0784 57.0956 -3.54697 24
3641 3 70.9784 54.803 -4.67775 21
3645 3 68.1289 58.31 -5.34594 24
3646 3 68.7155 52.8046 -4.32712 24
3592 1 64.7074 56.7273 -2.05286 28
1890 1 67.2135 58.944 -9.55967 27
3647 1 71.2299 51.1065 -2.28886 26
1918 2 72.2686 57.7585 -6.37248 25
3619 1 66.9861 52.7282 -2.2758 25
7398 3 61.2651 77.4277 7.53498 25
3612 3 63.3705 58.2013 -1.83019 23
3620 1 69.8943 57.6901 -2.09486 23
13394 3 44.9189 64.5373 28.5474 22
1931 1 45.757 66.5469 -8.34383 26
1949 1 50.3765 64.1667 -10.0228 28
1985 3 54.0488 65.8795 -9.96062 23
3514 1 47.8165 59.3086 -4.66482 26
1758 1 45.667 59.3226 -7.13798 26
1769 3 46.3785 59.9485 -9.00503 23
1776 1 50.4361 59.6828 -6.86738 28
1782 2 50.5305 60.7198 -9.8467 24
1788 3 49.2383 61.2639 -7.06484 25
1795 3 51.1699 59.9427 -8.57333 26
1814 3 53.8104 60.8071 -9.85455 23
1929 1 48.0939 64.6485 -7.28236 25
1932 2 45.3424 63.3994 -7.36697 25
1935 3 46.7866 62.8415 -7.22019 23
1936 3 46.8459 67.6662 -7.13063 23
1942 3 47.189 65.0688 -9.01248 23
1943 1 47.8965 61.6553 -8.49956 27
1944 1 50.5331 66.9714 -8.6259 28
1947 1 52.7583 64.7369 -7.13293 28
1951 2 50.0482 62.703 -7.04758 25
1952 2 48.3996 67.8218 -7.11032 25
1955 3 51.5463 62.3799 -6.929 23
1956 3 51.6167 67.8017 -7.06584 23
1959 3 49.1818 66.3477 -7.08619 26
1961 3 51.3252 62.0843 -9.89318 25
1963 3 49.4257 63.3971 -8.32286 25
1968 3 51.8087 65.0867 -8.83374 24
1971 1 52.8494 61.8685 -8.43324 28
1980 2 53.154 67.8861 -6.98609 25
1987 3 53.835 66.3335 -7.03067 25
3498 2 45.8801 61.0566 -4.26899 23
3504 3 46.4293 60.4572 -5.70976 22
3505 3 46.4515 59.9195 -3.27938 23
3518 2 50.5591 60.7333 -3.85572 27
3522 3 49.0331 60.932 -4.00697 24
3530 3 51.0944 59.864 -5.03237 24
3531 3 51.1555 60.0165 -2.47083 25
3550 3 53.8775 60.856 -3.68015 26
3663 1 45.7568 66.694 -2.60878 28
3664 1 45.8255 67.9617 -5.17477 23
3667 1 45.7255 64.2172 -4.4614 25
3669 2 47.8058 65.8129 -4.23456 26
3673 3 46.5916 62.3886 -4.08182 25
3674 3 47.1835 67.2494 -4.13156 27
3675 3 47.1545 64.9759 -5.47138 25
3678 3 47.1894 65.1231 -2.95239 27
3679 1 47.9759 62.0705 -2.58208 25
3680 1 50.5072 66.8471 -2.51487 29
3681 1 50.5627 66.9932 -5.53105 27
3682 1 47.8153 62.2763 -5.57939 27
3685 1 50.5104 64.1081 -4.08107 29
3689 2 52.6233 65.8857 -4.1246 26
3693 3 49.4104 65.8876 -4.17281 22
3697 3 51.379 62.0913 -3.99763 27
3698 3 51.8756 67.2828 -4.00933 25
3701 3 51.912 65.1386 -5.36931 27
3704 3 52.0766 64.9183 -2.91766 23
3706 3 49.4355 63.3564 -5.73302 26
3707 1 52.9075 62.9513 -3.17536 24
3710 1 52.6667 61.5735 -5.46979 29
3721 3 54.1531 65.8571 -4.04627 23
3733 3 53.8559 68.437 -5.69177 24
1991 3 54.1022 63.3936 -7.92931 24
3699 3 49.5617 63.5053 -2.25478 25
1816 3 54.0372 61.2263 -6.78219 26
3734 3 54.1235 63.2441 -5.29425 27
1964 3 49.0748 68.4372 -8.38382 24
3705 3 48.9949 68.4847 -5.79775 25
1804 1 55.1546 59.5992 -6.57772 27
1810 2 55.4411 60.6729 -9.80157 26
1823 3 55.914 59.7139 -8.61414 24
1832 1 59.9898 59.496 -6.79267 26
1838 2 60.3345 60.8461 -9.62533 25
1842 3 58.7569 60.8314 -9.6729 22
1844 3 58.8784 61.1013 -6.69804 26
1851 3 60.9728 60.0127 -8.41821 23
1972 1 55.2046 66.8192 -8.39358 29
1975 1 57.519 64.5908 -6.86317 27
1977 1 55.1091 64.012 -9.71567 26
1979 2 54.7537 62.6922 -6.65437 27
1983 3 56.2847 62.5162 -6.68619 24
1984 3 56.4824 67.6029 -6.93755 23
1989 3 56.1619 62.1437 -9.69177 25
1996 3 56.53 65.0865 -8.59786 24
1999 1 57.6722 61.9735 -8.23633 28
2000 1 60.0603 66.8546 -8.18828 29
2003 1 62.3377 64.5921 -6.68488 28
2005 1 59.9222 64.1126 -9.57475 27
2007 2 59.6362 62.6293 -6.56484 25
2008 2 58.0263 67.7454 -6.81083 25
2009 2 62.0924 65.7631 -9.62717 25
2011 3 61.1787 62.458 -6.55746 23
2012 3 61.2005 67.6084 -6.65799 23
2015 3 58.7088 66.1892 -6.73558 26
2017 3 61.037 62.3029 -9.52194 24
2018 3 61.4508 67.2032 -9.71107 25
2019 3 58.9999 63.3869 -7.85775 25