ITEM: TIMESTEP
1500
ITEM: NUMBER OF ATOMS
13888
ITEM: BOX BOUNDS pp pp pp
45.0 100.0
50.0 105.0
-18.06819 30.11365
ITEM: ATOMS id type x y z Coordination
3 3 49.3345 50.6201 -14.0411 25
6 3 52.5369 51.8202 -14.7352 25
19 1 46.2954 55.0642 -13.9595 27
21 1 49.7482 55.1182 -15.7287 26
23 1 46.0644 52.4732 -16.2955 25
24 2 46.5563 51.9625 -13.1416 23
25 2 46.4923 55.3006 -16.7569 24
28 3 46.8456 57.2385 -13.7665 24
29 3 46.5587 50.8063 -17.033 24
30 3 45.286 55.5475 -15.6924 24
31 3 46.0803 54.0714 -17.7611 24
34 3 47.1017 52.6389 -14.4727 26
35 1 48.812 52.3059 -15.3717 26
36 1 50.7548 57.5987 -14.4034 22
37 1 48.78 57.2759 -17.3122 22
38 1 47.8341 51.2488 29.7587 21
39 1 53.4139 54.3156 -12.2684 23
41 1 51.9009 51.971 -16.5837 25
43 2 51.5881 52.9038 -13.9848 26
44 2 48.3637 57.5585 -13.904 25
45 2 52.788 55.2366 -15.4398 27
47 3 51.5535 52.1624 -12.5297 24
48 3 51.6312 57.3926 -12.5755 25
49 3 47.6882 55.094 -15.7066 22
51 3 49.1984 56.1708 -13.6567 21
54 3 51.6344 56.2355 -15.5359 25
55 3 50.4849 53.2593 -15.0441 23
56 3 48.8456 57.9103 -15.4103 25
57 3 52.6302 54.1071 -16.5096 24
60 3 52.5803 54.3001 -14.0032 22
62 3 48.8585 52.6764 -17.4182 23
63 1 52.68 50.5755 -12.3711 21
72 2 53.2082 57.5561 -12.6066 26
77 3 54.2547 55.8011 -15.4006 25
79 3 54.0883 56.1383 -12.6544 23
84 3 53.5747 58.2473 -13.9997 23
89 3 53.5406 58.1451 -17.0915 25
1756 1 46.1047 56.768 -11.8893 26
1767 3 47.7323 51.666 -12.1023 21
1773 1 50.5471 57.6123 -10.8607 27
1774 1 49.7104 51.7657 -12.2763 23
1793 3 52.4703 54.6242 -10.7283 26
1797 3 49.0072 58.5204 -12.797 24
1798 3 49.8364 53.9007 -12.5626 26
1825 3 53.8758 58.3071 -11.4235 23
53 3 50.5547 50.4723 -16.3371 23
1759 1 46.5432 53.6566 -10.8198 25
1761 2 49.0195 55.1657 -12.3947 26
1766 3 47.4384 55.0751 -12.1939 22
1777 1 50.461 54.0583 -10.5824 26
1778 1 48.0641 59.086 -10.5276 26
1785 3 49.5502 55.9301 -11.0483 23
20 1 45.6127 57.5765 -15.3284 25
10440 2 45.1466 52.1379 22.6233 26
2825 3 47.0978 57.3172 -10.1991 25
12159 3 53.3193 50.6329 -17.5201 24
12203 3 46.9134 56.5459 -17.5472 21
12212 3 49.837 55.0298 -17.6634 25
2815 3 45.5516 52.9208 -12.4421 25
27 3 46.0236 50.462 -13.5788 24
2634 3 52.6299 50.2447 -10.3437 18
4 3 49.5015 50.1761 -10.8216 25
7 3 54.4302 50.5088 -13.0272 19
66 1 54.4236 51.2667 -15.0594 24
83 3 55.1707 53.4664 -12.3342 26
90 3 55.1877 52.9864 -15.5456 25
1826 3 54.8932 53.1302 -9.79699 21
5580 3 46.7015 77.4099 5.17605 24
8 2 60.2033 51.3095 -14.9867 25
9 3 59.2632 51.9436 -13.7595 23
10 3 59.4373 50.6679 -10.8193 23
64 1 55.4244 57.6585 -14.4588 24
65 1 54.9844 56.8538 -17.0315 28
67 1 58.022 54.549 -12.2649 24
69 1 55.24 54.4774 -14.0745 26
71 2 55.8572 53.5273 -10.9248 24
73 2 57.5542 55.4954 -15.462 27
75 3 57.2257 52.7266 -10.769 22
76 3 56.4003 57.7231 -12.6603 24
81 3 56.5583 50.8644 -14.3313 22
82 3 56.7574 56.8747 -15.5357 24
85 3 56.8605 54.5708 -16.7192 22
88 3 57.26 54.4054 -14.2442 26
91 1 58.339 51.6627 -12.1124 25
92 1 60.3116 57.7126 -14.3904 24
93 1 60.0749 56.8817 -17.146 28
94 1 57.6783 52.3595 -15.2949 24
95 1 62.7762 54.6793 -12.7058 27
97 1 59.7619 54.3469 -14.173 27
99 2 60.9117 53.4039 -11.2019 27
100 2 57.9936 57.8049 -12.6756 26
101 2 62.1929 55.5471 -15.6366 29
103 3 61.7614 52.2301 -11.9778 24
104 3 61.2967 57.5427 -12.6186 26
105 3 59.0737 55.8459 -15.4645 26
107 3 58.5987 56.3243 -12.6347 23
109 3 61.4331 52.1704 -15.4881 25
110 3 61.5555 56.9681 -15.7155 25
111 3 59.7955 53.8692 -12.1848 25
112 3 58.5141 58.4999 -13.9791 23
113 3 61.4269 54.7374 -16.9443 23
116 3 61.6946 54.7971 -14.2741 26
117 3 58.6057 58.3333 -17.3109 22
118 3 59.3293 53.3458 -16.0754 23
119 1 62.6158 52.1514 -13.8739 26
122 1 62.6656 51.5426 -17.0438 25
128 2 62.8259 57.8061 -12.5898 25
1801 1 55.3264 56.8338 -11.1847 31
1821 3 56.5764 55.0919 -10.9043 23
1829 1 60.0975 56.6985 -11.1048 28
1849 3 61.8449 54.6547 -10.8267 22
1853 3 58.8214 58.4288 -11.4343 24
1854 3 60.3432 52.8133 -9.84904 22
1858 1 63.0227 51.0632 -10.7158 25
1841 3 58.9685 55.4685 -9.99699 25
903 3 56.8354 50.2747 -11.8678 18
12162 3 59.182 50.5823 -15.9558 21
12223 2 55.8432 53.2598 -17.0472 25
12227 3 56.6846 51.9573 -17.3483 24
12251 2 60.3736 53.4744 -17.2974 25
4373 1 56.3331 50.411 -4.03337 22
909 3 61.171 50.2012 -14.2214 23
12 3 63.9522 50.4197 -15.7881 23
135 3 63.5723 56.3582 -12.4983 23
140 3 63.497 58.3527 -13.9417 25
145 3 63.4813 58.2499 -17.4122 24
1881 3 63.4715 58.4206 -11.2847 23
11 2 65.0549 50.543 -14.7098 23
13 3 64.2449 51.0251 -13.2056 24
14 2 69.3217 50.3953 -15.5883 23
15 3 68.0099 51.0296 -16.0588 21
16 3 68.8913 51.2864 -11.9308 18
120 1 65.0319 56.8909 -14.0073 27
121 1 64.8707 56.7296 -16.9192 29
123 1 67.4618 54.3705 -12.3679 28
125 1 64.9263 53.9193 -15.3447 27
127 2 64.9549 52.6088 -12.4077 22
129 2 67.1242 55.6463 -15.454 26
131 3 66.4618 52.353 -12.4342 21
132 3 66.0925 57.6712 -12.501 22
133 3 63.7768 55.5891 -15.5986 22
137 3 65.7265 51.9992 -15.0161 22
138 3 66.3325 57.0195 -15.5843 24
139 3 64.0336 53.4293 -13.347 24
141 3 66.5684 54.6046 -16.5695 24
144 3 66.4211 54.957 -14.1652 25
146 3 64.1844 53.0164 -17.2373 24
147 1 67.5916 51.225 -13.7878 23
148 1 69.7425 56.6427 -13.8222 27
149 1 69.6423 57.0816 -16.6088 26
150 1 67.0656 52.6414 -16.5201 25
151 1 72.3147 54.514 -12.0967 27
153 1 69.6017 53.7682 -15.6335 27
155 2 69.63 52.6567 -12.5902 22
156 2 67.6724 57.7287 -12.5694 26
157 2 71.8823 55.3905 -14.9886 26
159 3 71.1795 52.1651 -12.5386 24
160 3 70.8522 57.5079 -12.2499 23
161 3 68.6704 55.5802 -15.4345 24
163 3 68.2758 56.2089 -12.3927 23
165 3 70.6874 51.238 -15.552 22
166 3 71.2006 56.7673 -15.3314 24
167 3 68.9694 52.8427 -14.0151 25
168 3 68.3352 58.086 -13.9321 24
169 3 71.4743 54.206 -16.1208 23
172 3 71.1451 54.8433 -13.6895 27
173 3 68.2583 58.4542 -17.2726 23
174 3 68.9904 53.0982 -17.3991 21
175 1 72.1394 51.233 -14.047 26
178 1 72.0103 52.269 -16.7515 22
180 1 72.0733 59.118 -15.1774 26
182 2 72.409 57.7283 -12.2313 25
1857 1 64.8782 57.0846 -10.9236 26
1877 3 66.4375 54.8062 -10.6405 24
1882 3 64.3808 52.6562 -10.9113 21
1885 1 69.7286 56.8703 -10.7718 27
1905 3 71.5642 54.4206 -10.1971 24
1909 3 68.3673 58.4027 -11.3221 23
1910 3 69.2353 53.6753 -11.4943 21
1914 1 71.4761 52.5039 -10.6556 22
1750 2 68.6257 51.0877 -10.2469 20
42 1 48.0153 61.4383 -17.4497 25
70 1 52.8343 59.1876 -15.5844 26
22 1 45.4487 59.1955 -13.0202 23
26 2 46.0343 60.7599 -15.7733 23
32 3 46.4438 60.2627 -17.2243 26
33 3 46.5625 59.8046 -14.6479 23
40 1 50.4855 59.8143 -12.7049 28
46 2 50.6036 60.6965 -15.7586 24
50 3 49.1289 61.0446 -15.7334 22
52 3 49.439 61.428 -12.7597 25
58 3 51.1777 59.9701 -17.0574 24
59 3 51.048 59.6533 -14.5915 23
78 3 53.9111 60.8312 -15.6737 24
192 1 45.6236 66.2732 -17.7532 25
193 1 48.139 64.7462 -12.7593 26
195 1 45.6656 63.9482 -15.7385 25
196 2 45.5114 63.7512 -12.7119 23
197 2 47.7429 65.8462 -15.7709 26
199 3 46.868 62.868 -12.7536 25
200 3 46.9266 67.7365 -12.8481 24
201 3 46.7311 62.1443 -15.5903 23
202 3 47.1881 67.2692 -15.8959 27
203 3 47.1815 64.9419 -17.0725 23
206 3 47.277 64.8691 -14.5865 27
207 1 47.758 61.2244 -13.7414 29
208 1 50.5605 66.7998 -14.3374 29
209 1 50.4688 66.9653 -17.3388 29
210 1 48.4057 63.214 -15.6672 24
211 1 52.8472 64.6948 -12.7654 27
213 1 50.6152 64.0958 -15.8604 27
215 2 50.2366 62.8979 -12.8428 27
216 2 48.4365 67.8604 -12.8377 24
217 2 52.6423 65.8342 -15.8069 25
219 3 51.7484 62.5325 -12.853 24
220 3 51.6288 67.6929 -12.816 23
221 3 49.3277 65.7971 -15.8854 23
223 3 49.1934 66.3406 -12.8504 24
225 3 51.4769 62.0505 -15.6576 25
226 3 51.8434 67.2597 -15.8609 26
227 3 49.6631 63.5158 -14.1654 23
229 3 51.9567 65.0482 -17.0772 24
232 3 51.9162 65.0831 -14.5463 24
234 3 49.4623 63.2441 -17.3717 25
235 1 53.0098 62.0665 -14.3673 27
238 1 52.7613 61.9426 -17.1846 27
244 2 53.1721 67.9033 -12.7403 25
249 3 54.1637 65.9683 -15.7802 23
251 3 53.873 66.3767 -12.7379 25
1768 3 46.6224 60.1737 -11.4609 24
1794 3 51.2213 59.6381 -10.9462 22
1928 1 45.6935 66.6868 -11.6655 26
1938 3 47.0283 67.35 -9.95512 27
1939 3 47.0314 65.1115 -11.1154 22
1945 1 50.5053 66.9237 -11.2743 28
1946 1 48.1889 62.2387 -11.169 25
1965 3 51.8527 65.1277 -11.0085 24
1970 3 49.5379 63.5392 -11.5845 23
1974 1 53.0266 61.9869 -11.3653 28
98 1 57.7541 59.0793 -15.6913 26
126 1 62.6608 59.0943 -15.7251 26
80 3 54.3362 61.3498 -12.7773 25
255 3 54.2942 63.5497 -13.9355 23
262 3 54.2522 63.4209 -17.3291 26
1998 3 54.3401 63.4701 -11.4046 24
68 1 55.4234 59.7548 -12.5804 27
74 2 55.492 60.7088 -15.7146 25
86 3 56.0363 59.8584 -16.9771 25
87 3 55.9925 59.7616 -14.5269 24
96 1 60.1879 59.7027 -12.3259 26
102 2 60.3866 60.6815 -15.4634 26
106 3 58.7786 60.854 -15.6505 23
108 3 59.123 61.3065 -12.6195 25
114 3 61.0377 59.9619 -16.7408 24
115 3 60.94 59.7767 -14.3038 24
236 1 55.2254 67.0856 -14.2233 28
237 1 55.305 66.9632 -17.1948 28
239 1 57.7103 64.6191 -12.6253 27
241 1 55.2884 64.0977 -15.6692 27
243 2 55.0801 62.9011 -12.6861 25
245 2 57.3884 65.8435 -15.6432 25
247 3 56.6141 62.5602 -12.6279 23
248 3 56.4519 67.6948 -12.7242 23
253 3 56.2501 62.0706 -15.6239 25
254 3 56.6321 67.2579 -15.6797 25
257 3 56.6624 65.1293 -16.9403 23
260 3 56.7188 64.9896 -14.4002 23
263 1 57.8308 61.96 -14.1944 27
264 1 60.015 66.909 -14.16 28
265 1 60.0735 66.7967 -17.1289 28
266 1 57.6817 61.9614 -17.1283 28
267 1 62.4223 64.6346 -12.5692 26
269 1 60.0453 64.0331 -15.4614 27
271 2 59.848 62.826 -12.4514 25
272 2 58.0289 67.8127 -12.6444 25
273 2 62.0911 65.8154 -15.5871 25
275 3 61.3769 62.5855 -12.4064 23
276 3 61.1907 67.6636 -12.691 23
277 3 58.9436 65.8374 -15.5808 22
279 3 58.7175 66.2968 -12.682 25
281 3 61.0695 62.0932 -15.4149 24
282 3 61.4099 67.238 -15.6438 25
283 3 59.1567 63.4214 -13.7376 23
285 3 61.4244 65.0415 -16.8501 24
288 3 61.477 65.0859 -14.2826 24
290 3 59.0942 63.3867 -17.178 25
291 1 62.5721 62.001 -13.9934 29
294 1 62.443 61.8537 -16.9557 28
300 2 62.7476 67.7996 -12.6111 25
1822 3 56.3936 60.1385 -10.9025 24
1850 3 61.2026 60.1235 -10.7505 25
1973 1 55.3101 66.9863 -11.1969 27
1993 3 56.7065 65.0622 -10.9752 23
2001 1 60.1091 66.864 -11.1152 28
2002 1 57.7624 61.8463 -11.0697 27
2021 3 61.5131 65.1024 -10.8635 24
2026 3 59.1332 63.3773 -11.1565 25
2030 1 62.5863 61.8526 -10.9562 28
1834 1 57.8244 59.0739 -9.70321 27
154 1 67.2876 59.0947 -15.4232 27
134 3 63.6043 60.8649 -15.445 23
307 3 63.4664 66.2909 -12.5143 25
124 1 65.0349 59.6416 -12.3812 28
130 2 65.1537 60.8347 -15.3556 25
136 3 63.8795 61.284 -12.4797 25
142 3 65.7807 60.0549 -16.6211 24
143 3 65.8574 60.0353 -14.1305 22
152 1 69.7906 59.7161 -12.0938 27
158 2 69.9258 60.8204 -15.0358 24
162 3 68.397 60.8147 -15.2132 23
164 3 68.6493 61.2979 -12.3178 25
170 3 70.664 60.2307 -16.3567 24
171 3 70.5967 59.8938 -13.8977 24
292 1 64.8109 66.9397 -13.9961 29
293 1 64.8026 67.0501 -16.9655 28
295 1 67.1701 64.7431 -12.4071 26
297 1 64.7962 64.1764 -15.45 29
299 2 64.5998 62.8504 -12.3902 25
301 2 66.854 65.91 -15.387 25
303 3 66.1468 62.6378 -12.414 24
304 3 65.9417 67.7547 -12.4442 23
305 3 63.6603 65.9409 -15.5618 22
309 3 65.8928 62.2329 -15.3563 24
310 3 66.1886 67.3342 -15.4926 25
311 3 63.8517 63.4709 -13.663 24
313 3 66.1902 65.1106 -16.6631 23
316 3 66.1343 65.2535 -14.1 24
318 3 63.8354 63.3235 -17.0329 24
319 1 67.3271 61.9956 -13.8732 26
320 1 69.6073 67.082 -13.6983 29
321 1 69.5703 66.9508 -16.7458 28
322 1 67.2156 61.8623 -16.8229 28
323 1 71.7861 64.8198 -12.0827 27
325 1 69.5021 64.1822 -15.1004 27
327 2 69.2939 62.8564 -12.1374 25
328 2 67.4716 67.9 -12.3142 25
329 2 71.6261 66.0232 -15.1154 25
331 3 70.8445 62.7113 -12.0229 23
332 3 70.7165 67.7909 -12.1193 23
333 3 68.4016 65.9276 -15.3113 23
335 3 68.2315 66.3801 -12.2673 26
337 3 70.5961 62.2464 -14.9186 24
338 3 70.9161 67.426 -15.1829 25
339 3 68.5822 63.5146 -13.3978 23
341 3 70.9826 65.2179 -16.3738 24
344 3 70.9167 65.297 -13.8201 24
346 3 68.5902 63.3329 -16.8032 24
347 1 72.1049 62.0851 -13.5312 28
350 1 71.8917 62.0067 -16.511 27
354 2 72.2259 68.0087 -12.0202 25
1878 3 65.913 60.0616 -10.5905 23
1906 3 70.6641 60.1529 -10.4011 24
2029 1 64.8114 66.8853 -10.9875 28
2049 3 66.2644 65.1335 -10.6635 24
2054 3 63.9237 63.3184 -11.0566 24
2057 1 69.5377 66.9673 -10.6782 28
2058 1 67.291 61.8539 -10.8 28
2077 3 70.9184 65.1861 -10.3474 22
2082 3 68.6088 63.3644 -10.8162 24
2086 1 71.9563 61.9597 -10.4631 28
191 1 45.6899 68.3867 -15.938 23
194 1 45.6453 69.286 -13.0582 27
198 2 45.9457 70.9181 -15.9161 24
204 3 46.447 70.0406 -17.1314 23
205 3 46.6111 70.1266 -14.6771 22
212 1 50.5944 69.6161 -12.9673 27
214 1 48.3337 69.0355 -15.8371 27
218 2 50.7516 70.877 -16.0151 25
222 3 49.184 70.87 -15.9978 22
224 3 49.372 71.252 -13.0145 25
228 3 49.1493 68.4611 -14.1281 23
230 3 51.4602 70.1848 -17.2705 24
231 3 51.4685 70.1909 -14.7343 24
233 3 49.1093 68.4559 -17.6106 24
242 1 52.8859 69.1092 -15.8613 27
250 3 53.9527 70.9355 -15.9975 22
256 3 53.8225 68.4884 -14.0836 24
261 3 53.8541 68.4579 -17.4765 24
363 1 45.4912 76.5715 -14.1661 26
365 1 48.2406 74.5956 -12.6853 29
367 1 45.4233 73.9525 -16.0777 25
369 2 47.536 75.6386 -15.8618 26
371 3 46.7138 72.7873 -12.8432 24
373 3 46.6523 72.2817 -15.9772 22
375 3 46.8707 74.9841 -17.1286 23
378 3 46.751 74.7803 -14.502 23
379 1 48.0184 71.7658 -14.4205 29
380 1 50.3627 76.6627 -14.6752 27
381 1 50.4195 76.8377 -17.7674 28
382 1 47.8801 71.6842 -17.6411 26
383 1 52.7061 74.6165 -13.2742 26
385 1 50.2171 73.9958 -16.054 28
387 2 50.1167 72.6605 -13.0001 25
389 2 52.409 75.7948 -16.3124 25
391 3 51.6605 72.6028 -13.0541 24
393 3 49.0707 75.7494 -15.9417 22
395 3 49.0528 76.3401 -13.0753 24
397 3 51.4025 72.3308 -16.029 25
399 3 49.357 73.3817 -14.2079 25
401 3 51.7151 75.2447 -17.6147 25
404 3 51.7285 75.0902 -15.0288 23
406 3 49.4111 73.3122 -11.6867 24
407 1 52.8759 71.8335 -14.539 28
410 1 52.7905 71.9105 -17.5549 28
421 3 53.9576 75.9463 -16.3019 23
423 3 53.7672 76.382 -13.3937 25
434 3 54.146 73.4049 -11.7373 26
1934 2 45.4253 71.5081 -10.7056 24
1940 3 46.3032 70.3608 -11.3362 23
1966 3 51.4193 70.1886 -11.178 23
1969 3 49.107 68.5082 -11.583 23
1997 3 53.8664 68.5476 -11.4963 24
2111 3 47.0275 75.038 -11.1635 25
2117 1 50.4519 76.9134 -11.6559 30
2118 1 48.0327 71.8503 -11.3754 27
2125 2 52.4154 75.778 -10.2959 25
2129 3 49.2121 75.8489 -10.0061 24
2137 3 51.6937 75.2237 -11.6061 26
2146 1 52.8434 71.8236 -11.4464 28
2157 3 53.9321 75.9317 -10.3021 24
2100 1 45.4285 76.7898 -11.3117 25
368 2 45.656 73.8386 -13.2934 27
374 3 46.7973 77.0629 -15.7553 23
12558 3 49.302 73.4097 -17.7686 24
12586 3 54.1404 73.5312 -17.7892 26
398 3 51.6398 77.2623 -16.2143 25
2134 3 51.6983 77.2611 -10.1876 25
364 1 45.4427 76.9086 -17.3002 26
252 3 54.1853 71.3078 -12.9817 26
427 3 54.1867 73.4767 -14.2882 25
240 1 55.3798 69.6898 -12.9605 27
246 2 55.5449 70.9061 -16.0551 25
258 3 56.2555 70.2738 -17.3311 25
259 3 56.2326 70.2104 -14.7527 24
268 1 60.1321 69.6901 -12.8933 27
270 1 57.7322 69.0821 -15.651 26
274 2 60.304 70.8522 -15.9219 25
278 3 58.7198 70.9565 -15.9272 23
280 3 58.9792 71.3723 -12.929 26
284 3 58.6531 68.4783 -13.9498 23
286 3 60.9446 70.2283 -17.2264 25
287 3 60.9414 70.1553 -14.6464 25
289 3 58.6858 68.3301 -17.3095 24
298 1 62.4939 69.0956 -15.6153 27
408 1 55.1727 76.9291 -14.9331 28
409 1 55.156 76.8725 -17.9454 28
411 1 57.4603 74.7068 -13.4576 26
413 1 55.0722 74.0829 -16.0234 26
415 2 54.8555 72.8075 -13.0027 25
417 2 57.225 75.907 -16.5409 25
419 3 56.4057 72.7163 -13.0612 23
425 3 56.1692 72.3621 -16.0638 25
429 3 56.5456 75.3144 -17.8573 26
432 3 56.5898 75.1791 -15.2772 24
435 1 57.6519 71.9059 -14.4836 29
436 1 59.9708 76.9723 -15.1735 29
437 1 59.9208 76.9724 30.0115 27
438 1 57.6012 71.9345 -17.5186 29
439 1 62.1948 74.8544 -13.7077 27
441 1 59.7944 74.0934 -15.9728 26
443 2 59.6258 72.8954 -12.8738 25
445 2 62.0081 76.0174 -16.8186 24
447 3 61.164 72.7797 -12.9299 26
449 3 58.7756 76.0337 -16.5156 23
451 3 58.548 76.4858 -13.6062 26
453 3 60.9537 72.3181 -15.8883 25
455 3 58.9557 73.5542 -14.2044 26
457 3 61.3131 75.4728 30.037 26
460 3 61.3927 75.278 -15.5279 26
462 3 58.9377 73.4836 -17.6553 25
463 1 62.3042 71.8537 -14.2793 28
466 1 62.3043 71.9354 -17.3294 29
1994 3 56.2389 70.2179 -11.2199 24
2022 3 60.9628 70.2546 -11.167 24
2025 3 58.6631 68.3864 -11.3354 25
2053 3 63.3759 68.4445 -11.3066 24
2145 1 55.1318 76.9228 -11.9263 28
2153 2 57.2037 75.9372 -10.4771 25
2165 3 56.5203 75.3531 -11.7971 25
2173 1 59.8687 76.9818 -12.1252 29
2174 1 57.5708 71.9208 -11.4428 29
2181 2 61.9463 76.0747 -10.8231 25
2185 3 58.7372 76.0258 -10.4605 25
2193 3 61.2667 75.4834 -12.1325 25
2198 3 58.9216 73.4729 -11.5832 25
2202 1 62.2809 71.9351 -11.2778 29
3623 1 72.5048 54.5569 -0.27836 26
426 3 56.4775 77.3687 -16.4801 25
2162 3 56.4376 77.3916 -10.4009 26
9922 3 44.9325 65.373 17.3155 25
306 3 63.4702 70.947 -15.6202 24
312 3 63.3705 68.408 -13.9002 24
317 3 63.3779 68.5274 -17.3001 24
479 3 63.2778 76.5763 -13.9479 23
296 1 64.789 69.7514 -12.4476 27
302 2 65.0282 70.8594 -15.4725 25
308 3 63.6076 71.3451 -12.7086 26
314 3 65.7585 70.2392 -16.746 24
315 3 65.7085 70.1691 -14.237 23
324 1 69.6161 69.8322 -12.0608 26
326 1 67.2868 69.1678 -15.3505 27
330 2 69.8304 71.0242 -15.1382 25
334 3 68.2696 71.0303 -15.2898 23
336 3 68.3697 71.3764 -12.3362 25
340 3 68.1567 68.451 -13.6435 24
342 3 70.5862 70.3385 -16.3815 24
343 3 70.4692 70.3079 -13.8525 24
345 3 68.1925 68.5544 -17.0413 23
352 1 72.0108 69.2528 -15.0656 27
464 1 64.6807 77.2197 -15.6101 27
467 1 66.8921 74.8569 -14.0799 24
469 1 64.6053 74.0537 -15.7264 25
471 2 64.3122 72.8952 -12.6005 24
473 2 66.7201 75.984 -17.2286 27
475 3 65.8075 72.5833 -12.4701 24
477 3 63.5282 76.258 -16.8526 26
481 3 65.6907 72.3606 -15.4115 22
483 3 63.7501 73.6195 -13.9362 24
485 3 65.9865 75.497 29.6081 26
488 3 66.1411 75.2694 -15.8947 24
490 3 63.6191 73.5075 -17.3188 25
491 1 67.0545 71.7847 -13.8622 27
492 1 69.4195 77.0686 -16.0567 28
494 1 67.0503 71.8997 -16.9037 29
495 1 71.7888 74.6476 -14.5144 26
497 1 69.2742 74.1712 -15.3583 25
499 2 69.048 72.9507 -12.2618 28
501 2 71.4333 75.8171 -17.578 28
503 3 70.5814 72.634 -12.0885 24
505 3 68.259 76.2056 -17.3971 25
507 3 68.1095 76.4566 -14.4151 23
509 3 70.5398 72.5076 -15.0548 23
511 3 68.3555 73.559 -13.6248 26
516 3 70.7825 75.2323 -16.2267 25
518 3 68.3605 73.4763 -16.9339 28
519 1 71.8615 71.8537 -13.4518 28
522 1 71.8571 72.0052 -16.5479 31
2050 3 65.7695 70.2212 -10.713 24
2078 3 70.5739 70.3168 -10.3351 24
2081 3 68.1702 68.5347 -11.0447 24
2201 1 64.6553 77.0269 -12.5253 28
2209 2 66.6604 75.94 -11.1605 27
2213 3 63.4752 76.2436 -10.8709 25
2221 3 65.9407 75.4121 -12.481 26
2226 3 63.6458 73.4367 -11.2595 25
2229 1 69.4023 76.8911 -12.8968 30
2230 1 67.064 71.8735 -10.8588 28
2237 2 71.4288 75.815 -11.5367 28
2241 3 68.1918 76.1803 -11.3263 24
2249 3 70.7613 75.3127 -12.9031 26
2254 3 68.3743 73.4654 -10.9101 27
2258 1 71.8382 72.0031 -10.5198 31
12647 1 71.8553 74.6846 27.6357 26
4714 3 45.1773 65.1642 -0.667141 22
13394 3 44.9946 64.6993 29.0027 22
12671 1 71.8772 71.8963 28.7252 28
1802 1 53.3018 51.9203 -9.47702 23
2627 1 47.9383 51.6093 -10.0485 28
1739 3 48.421 53.4947 -10.187 23
1740 3 48.029 50.3858 -6.01245 20
1742 3 52.938 54.578 -8.25566 22
1743 3 53.7286 51.0739 -7.7159 25
1757 1 47.9974 55.4792 -9.54333 26
1760 2 45.5876 53.8322 -7.69859 27
1764 3 46.7369 57.9477 -7.2856 21
1765 3 45.7414 51.2502 -10.1256 25
1770 3 46.4733 54.535 -8.68881 27
1771 1 45.2865 50.9856 -7.71797 26
1772 1 50.6896 56.7663 -8.11578 26
1775 1 52.9783 54.3843 -6.30872 27
1779 2 50.5866 53.435 -7.91265 25
1780 2 48.2467 57.9199 -7.73911 26
1781 2 52.8539 55.5496 -9.50538 29
1783 3 51.5049 53.0538 -6.70466 22
1784 3 51.6598 57.7076 -6.62664 24
1787 3 48.6492 56.2918 -7.60034 23
1790 3 52.0596 56.8799 -9.49119 26
1791 3 50.9863 52.3889 -9.0938 23
1792 3 49.1914 58.2472 -9.00502 24
1796 3 50.4929 54.8594 -8.63626 21
1799 1 52.2006 51.2335 -6.61195 24
1808 2 53.2592 57.7765 -6.57059 24
1815 3 53.841 56.2947 -6.43702 22
1820 3 53.8132 58.4099 -7.88369 25
3475 3 47.3842 52.7194 -4.33193 23
3478 3 53.5007 52.8879 -1.6964 22
3495 1 45.8466 51.6228 -4.94457 22
3497 2 48.7505 55.1989 -6.39171 24
3502 3 47.3041 55.2071 -5.87278 20
3503 3 46.0643 52.6014 -6.78462 25
3506 3 45.9006 53.8695 -2.10802 24
3507 1 48.6676 52.1547 -3.14254 19
3509 1 50.32 57.462 -5.04173 25
3510 1 48.011 52.3214 -6.25128 23
3513 1 50.998 53.1372 -4.73416 21
3517 2 52.6224 55.5601 -3.39557 28
3521 3 49.903 55.579 -5.4158 26
3525 3 49.3434 50.4567 -2.53573 25
3526 3 51.8492 56.9977 -3.77046 24
3527 3 49.9907 53.6387 -3.1361 23
3528 3 49.0784 58.2593 -3.40207 22
3529 3 52.5735 54.3574 -4.42392 22
3532 3 51.7758 55.121 -2.12221 22
3533 3 49.0247 58.4312 -6.42706 23
3534 3 49.1719 53.6766 -6.94039 27
3538 1 53.5975 51.8793 -3.52561 23
3542 1 53.0635 59.0655 -3.5065 27
3549 3 54.2139 55.7989 -3.19014 25
3561 3 53.9432 58.4772 -5.3118 24
3492 1 45.791 56.6277 -5.79142 23
3493 1 46.9951 54.6754 -3.92563 23
3516 2 48.079 57.715 -2.17851 25
3523 3 47.7947 56.2169 -2.86564 23
13050 3 54.2603 50.1762 25.6402 23
2631 1 50.8656 50.4869 -9.49039 24
4370 3 52.0268 51.3448 -4.65495 21
1789 3 48.1752 51.3503 -8.19791 21
2633 3 50.377 50.38 -7.15509 24
1755 1 45.6584 57.916 -9.12769 24
1738 2 48.7781 50.1761 -7.4354 22
1830 1 57.2711 52.6714 -8.27238 24
1813 3 54.4379 56.0243 -9.57853 24
1819 3 54.9206 53.5423 -6.45389 22
3562 3 55.5789 52.9658 -3.92269 23
1741 2 55.136 50.5603 -7.17541 20
1744 2 60.1153 51.0618 -9.40979 23
1745 3 59.067 51.4363 -8.30071 23
1746 3 59.5218 50.4227 -5.14931 21
1800 1 55.5739 57.8697 -8.42055 27
1803 1 57.9065 54.659 -6.51911 24
1805 1 54.9519 54.7307 -8.04727 28
1807 2 55.8175 52.788 -5.42524 24
1809 2 57.4781 55.6726 -9.61225 25
1811 3 57.2258 52.6244 -6.16615 23
1812 3 56.4851 57.6583 -6.63978 24
1817 3 56.2994 51.0315 -8.17616 23
1818 3 56.9483 57.1698 -9.58672 25
1824 3 57.0695 54.5891 -8.45008 26
1827 1 58.23 50.8734 -6.58616 26
1828 1 60.5558 57.8715 -8.20663 23
1831 1 62.7417 54.3064 -6.43591 25
1833 1 60.5707 53.2769 -7.83872 23
1835 2 60.1982 53.6975 -4.72646 27
1836 2 58.0746 57.8568 -6.60798 25
1837 2 62.3117 55.5619 -9.48052 26
1839 3 61.9017 52.3281 -6.72422 23
1840 3 61.407 57.6382 -6.46482 23
1843 3 58.7923 56.3942 -6.76855 26
1845 3 61.7182 50.9128 -9.24978 23
1846 3 61.4759 56.9296 -9.62783 24
1847 3 59.6178 53.7582 -6.19563 25
1848 3 58.6328 58.593 -7.90907 23
1852 3 61.9251 54.7322 -8.22835 24
1855 1 62.566 50.6366 -7.53458 24
1864 2 63.0028 57.6937 -6.47019 25
3480 2 59.5869 51.0324 -3.75294 24
3481 3 58.0821 51.4074 -3.50668 23
3484 3 63.3201 51.043 -3.22968 24
3536 1 55.4676 57.0675 -2.07984 27
3537 1 55.3286 56.8122 -5.10432 28
3541 1 55.0351 54.1161 -2.33113 23
3545 2 57.5628 55.9689 -3.63481 27
3553 3 54.7644 50.4197 -2.82783 26
3554 3 56.6836 57.3063 -3.68286 25
3557 3 56.9544 55.298 -5.03858 25
3560 3 56.9868 55.0971 -2.42843 23
3564 1 60.4148 57.8599 -2.25713 24
3565 1 60.1984 56.9687 -5.08957 28
3566 1 57.4162 53.0732 -2.79431 23
3569 1 59.6847 55.0484 -1.97186 25
3573 2 62.2723 55.6611 -3.46165 28
3577 3 59.098 56.4436 -3.44206 28
3581 3 60.7528 52.3557 -4.10803 23
3582 3 61.6462 57.107 -3.64239 25
3585 3 61.4364 54.7966 -4.66933 24
3588 3 61.6179 54.9327 -2.1989 26
3589 3 58.7264 58.4059 -5.28858 24
3590 3 59.0135 53.9491 -3.69567 26
3594 1 62.3034 51.0918 -5.03514 21
3598 1 62.8216 59.0323 -3.61403 26
3591 1 61.8838 51.9899 -2.20805 24
2639 3 55.3841 51.1885 -5.75135 20
12662 3 70.8162 77.4542 24.5761 25
4381 3 60.3178 50.5814 -2.44846 23
2637 1 57.1091 50.4234 -9.79995 19
1886 1 65.4286 51.54 -9.47372 22
1871 3 63.5922 56.1678 -6.38387 25
1876 3 63.5517 58.1138 -7.92247 23
3617 3 63.7676 58.4282 -5.28673 24
1749 3 64.1541 50.9993 -5.93048 24
1751 3 67.3636 51.5791 -9.57855 25
1752 3 69.2793 51.2677 -6.3947 22
1856 1 65.0989 56.8645 -8.02859 27
1859 1 67.3753 54.4747 -6.55231 26
1861 1 64.9178 54.1507 -9.37654 24
1863 2 64.8167 52.4036 -6.38557 21
1865 2 67.0645 55.7296 -9.53588 24
1867 3 66.4754 52.3313 -6.22783 21
1868 3 66.1966 57.3899 -6.3848 24
1869 3 63.8576 55.7537 -9.59941 22
1873 3 65.6487 50.0693 -8.083 20
1874 3 66.341 57.1746 -9.58746 24
1875 3 64.5587 52.711 -7.97689 24
1880 3 66.3252 55.1136 -8.13875 25
1883 1 67.4633 51.0547 -7.45395 24
1884 1 69.8 56.9083 -7.87613 26
1887 1 72.4131 54.5599 -5.91023 26
1889 1 69.3885 53.8475 -9.32267 27
1891 2 69.6853 52.8074 -6.18523 22
1892 2 67.7314 57.6177 -6.38745 26
1893 2 72.0634 55.5754 -9.08175 27
1895 3 71.3196 52.6698 -6.11241 20
1896 3 70.9286 57.4857 -6.18362 25
1897 3 68.6061 55.7198 -9.44509 23
1899 3 68.4403 56.1419 -6.21242 25
1901 3 69.8786 51.7832 -9.66713 21
1902 3 71.1787 56.85 -9.301 24
1903 3 69.0207 53.5117 -7.45322 22
1904 3 68.2564 58.117 -7.76928 25
1908 3 71.6471 54.8621 -7.77245 24
1911 1 72.2437 52.7148 -7.83337 22
5718 3 70.8022 77.438 0.578732 24
3483 2 64.7295 50.7926 -2.53424 21
3487 3 68.0762 51.3808 -3.04914 25
3593 1 65.0747 56.4834 -4.98595 26
3597 1 64.8752 53.8951 -3.271 27
3601 2 67.2506 55.5959 -3.42751 27
3605 3 63.8057 55.6331 -3.45272 22
3609 3 65.599 52.0732 -2.97799 20
3610 3 66.4143 56.9584 -3.39943 24
3613 3 66.6419 54.7441 -4.62652 26
3616 3 66.784 54.7191 -2.16713 26
3618 3 64.2716 53.5394 -5.42557 22
3621 1 69.7908 56.8535 -4.72902 28
3622 1 67.1555 52.6205 -4.43195 25
3625 1 69.862 54.0626 -3.15879 26
3626 1 67.4104 59.0313 -3.39033 26
3629 2 71.9984 55.7403 -3.02752 24
3633 3 68.7832 55.8026 -3.3556 25
3637 3 70.4801 50.7122 -3.58085 25
3638 3 71.199 57.1042 -3.2317 24
3641 3 71.5442 54.7274 -4.13992 24
3645 3 68.3637 58.3891 -5.13865 23
3646 3 69.0705 53.3477 -4.8654 23
3650 1 72.1393 51.2309 -4.90163 19
3652 1 72.1254 59.1202 -3.07498 27
3612 3 63.3749 58.3523 -1.86511 23
3592 1 64.932 57.0131 -2.04955 26
3619 1 67.1925 52.5687 -1.87138 24
3486 2 68.9397 50.1923 -3.31368 24
1931 1 45.7534 64.1132 -9.56476 25
1933 2 47.7031 65.93 -9.83123 26
1937 3 46.748 62.2847 -9.83498 22
1949 1 50.4295 64.1711 -9.83024 27
1953 2 52.5961 65.8698 -9.78961 25
1957 3 49.2647 65.9613 -9.85281 23
1962 3 51.8393 67.3065 -9.76671 25
1985 3 54.1345 65.974 -9.81675 22
1806 1 52.9173 58.9532 -9.70795 28
3514 1 48.5475 59.8014 -5.12822 23
1758 1 45.6737 59.4499 -6.63252 24
1762 2 46.0718 60.9114 -10.1105 25
1769 3 46.6359 59.9541 -8.9503 23
1776 1 50.8113 59.6174 -6.87203 26
1782 2 50.7327 60.8139 -9.83993 24
1786 3 49.1701 60.9031 -9.96319 24
1788 3 49.4371 61.1052 -6.79994 23
1795 3 51.4471 60.18 -8.61383 25
1814 3 54.0192 60.9449 -9.81181 23
1816 3 54.2675 61.2725 -6.77471 27
1929 1 47.3136 65.5753 -6.72104 27
1932 2 45.3115 62.6227 -6.82978 26
1935 3 46.8047 62.3803 -6.73424 24
1936 3 46.9273 67.5119 -6.54346 22
1942 3 47.1723 65.1325 -8.5606 22
1943 1 48.0184 61.7394 -8.29206 29
1944 1 50.4661 66.8235 -8.30064 27
1947 1 52.7815 64.6607 -6.71625 26
1951 2 50.1865 62.6052 -6.83125 25
1952 2 48.4693 67.8761 -6.66411 25
1955 3 51.7409 62.5373 -6.84834 22
1956 3 51.6265 67.6313 -6.68349 23
1959 3 49.1317 66.3181 -6.60933 23
1961 3 51.5569 62.181 -10.0523 26
1963 3 49.6232 63.0892 -8.23936 25
1968 3 51.8849 65.096 -8.53647 23
1971 1 52.8303 62.0309 -8.45832 27
1980 2 53.1991 67.7681 -6.72088 25
1987 3 53.8918 66.2893 -6.73698 25
1991 3 54.256 63.4373 -7.92605 23
3498 2 46.2096 60.7953 -3.60997 25
3504 3 46.5654 59.999 -4.91315 23
3505 3 46.8302 60.0769 -2.33779 20
3518 2 50.8186 60.8247 -3.7816 27
3522 3 49.2996 61.0676 -3.79224 26
3530 3 51.3801 60.0542 -5.08582 24
3531 3 51.3315 59.8122 -2.59033 26
3550 3 54.0552 60.7523 -3.58203 23
3663 1 45.7516 66.5898 -2.01399 26
3664 1 45.9549 67.8476 -4.80895 24
3667 1 45.7509 64.0302 -3.72735 25
3669 2 47.8537 65.6975 -3.69404 26
3673 3 46.7557 62.245 -3.65641 24
3674 3 47.187 67.1188 -3.589 27
3675 3 47.2336 64.842 -4.91806 21
3678 3 47.2781 64.9182 -2.42613 24
3679 1 48.0128 61.8141 -2.15551 30
3680 1 50.4939 66.6597 -2.11197 28
3681 1 50.5374 66.8565 -5.14428 28
3682 1 47.8556 62.9212 -5.1925 24
3685 1 50.5993 63.8936 -3.75579 25
3689 2 52.5506 65.7806 -3.60143 25
3693 3 49.409 65.7244 -3.68923 23
3697 3 51.6771 62.1165 -3.67924 24
3698 3 51.8354 67.1806 -3.57678 25
3701 3 51.9157 65.0889 -4.933 23
3704 3 51.8941 65.0117 -2.3296 23
3706 3 49.6824 63.2197 -5.49447 25
3707 1 53.0932 61.9097 -2.2181 27
3710 1 52.9023 61.8224 -5.28153 29
3721 3 54.1143 65.8433 -3.5939 23
1990 3 56.6083 67.2761 -9.72196 25
1862 1 62.7566 59.0818 -9.52269 26
3570 1 57.7472 59.0592 -3.54094 28
3727 3 54.3255 63.3595 -1.86149 22
3734 3 54.3037 63.3546 -5.33244 24
1804 1 55.3729 59.6734 -6.51409 27
1810 2 55.6216 60.8432 -9.62601 26
1823 3 56.1097 59.8662 -8.47039 22
1832 1 60.1782 59.7121 -6.38023 26
1838 2 60.491 60.8436 -9.46642 25
1842 3 58.8928 60.8764 -9.62869 23
1844 3 59.0387 61.3097 -6.62255 24
1851 3 61.0289 59.8388 -8.27918 23
1972 1 55.2618 66.8715 -8.2132 27
1975 1 57.5976 64.7394 -6.59148 26
1977 1 55.252 64.0992 -9.61361 27
1979 2 54.9357 62.848 -6.6779 25
1981 2 57.3882 65.8505 -9.70221 25
1983 3 56.5177 62.6734 -6.61543 23
1984 3 56.3853 67.6635 -6.6797 23
1989 3 56.3397 62.2123 -9.46041 24
1996 3 56.6538 65.1096 -8.41764 24
1999 1 57.8167 62.0734 -8.07604 28
2000 1 60.0349 66.9686 -8.12218 28
2003 1 62.4115 64.6531 -6.56802 27
2005 1 60.0293 64.1293 -9.43638 28
2007 2 59.8036 62.8452 -6.3745 25
2008 2 57.9489 67.858 -6.60872 25
2009 2 62.1722 65.8557 -9.58714 25
2011 3 61.3293 62.5775 -6.42174 23
2012 3 61.1435 67.7198 -6.64125 22
2013 3 58.9118 65.9081 -9.63597 22
2015 3 58.6834 66.3496 -6.63653 25
2017 3 61.1588 62.2029 -9.33405 26
2018 3 61.4412 67.2746 -9.64728 25
2019 3 59.1294 63.5693 -7.65751 23
2024 3 61.478 65.1251 -8.30046 23
2027 1 62.6078 61.9169 -7.9088 29
2036 2 62.7011 67.8029 -6.56597 25
3546 2 55.6161 60.6913 -3.57728 26
3558 3 56.3262 60.0975 -4.90899 23
3559 3 56.2719 59.8224 -2.3932 23
3574 2 60.41 60.8177 -3.38895 26
3578 3 58.8498 60.8384 -3.54817 23
3586 3 61.1669 60.1331 -4.73096 25
3587 3 60.9527 59.8515 -2.23047 22
3708 1 55.2256 66.8201 -2.11421 29
3709 1 55.2298 66.8744 -5.1273 29
3713 1 55.2922 64.0511 -3.63594 26
3717 2 57.3192 65.8829 -3.579 25
3725 3 56.2652 62.161 -3.52453 26
3726 3 56.5948 67.3009 -3.63245 25
3729 3 56.6616 65.1095 -4.84615 23
3732 3 56.6766 65.0937 -2.32468 23