ITEM: TIMESTEP
9000
ITEM: NUMBER OF ATOMS
13888
ITEM: BOX BOUNDS pp pp pp
45.0 100.0
50.0 105.0
-18.06819 30.11365
ITEM: ATOMS id type x y z Coordination
13232 3 45.1499 57.5672 24.106 23
6 3 52.5983 51.7659 -15.4883 25
19 1 45.7858 54.1897 -13.6371 25
21 1 48.7668 54.3104 -14.865 26
23 1 46.5021 52.6336 -16.1404 23
24 2 46.7119 51.6178 -12.9072 26
25 2 45.9592 55.3275 -16.6478 23
28 3 46.6771 57.3566 -13.8396 25
29 3 46.864 50.7775 -16.6369 25
31 3 45.9315 54.0183 -17.5904 24
34 3 47.4046 52.39 -14.0923 24
35 1 48.7025 51.5404 -15.5722 27
36 1 50.6537 57.6567 -14.0596 23
37 1 50.1577 56.925 -16.7268 22
39 1 52.9094 53.9706 -12.4454 25
41 1 51.9275 51.3883 -17.5072 22
43 2 51.7449 52.7017 -14.5966 23
44 2 48.2288 57.4834 -13.9928 26
45 2 52.675 55.5203 -15.4967 26
47 3 51.9463 52.2092 -12.9873 20
48 3 51.667 57.158 -12.4286 24
49 3 46.8886 54.8414 -15.3225 24
51 3 48.8811 55.913 -13.5209 21
54 3 51.7423 56.6903 -15.3128 23
55 3 50.2159 52.6909 -14.8764 25
56 3 48.9567 57.7789 -15.3348 21
57 3 52.6302 55.0507 -16.9024 25
60 3 52.4037 54.2358 -14.531 20
62 3 48.4091 52.8523 -17.0956 22
63 1 52.4447 50.5782 -12.0222 21
72 2 53.2128 57.3036 -12.4052 25
84 3 53.5641 58.1265 -13.7404 23
89 3 53.6095 57.7827 -17.2091 25
1756 1 45.7985 56.6231 -12.0645 24
1767 3 47.8359 51.2206 -11.8328 21
1773 1 50.2837 57.471 -10.7802 26
1774 1 49.7586 51.5492 -12.7562 25
1793 3 52.2047 54.6341 -10.8049 23
1797 3 48.8705 58.2906 -12.813 22
1798 3 49.416 53.7072 -12.4035 25
1825 3 53.7559 57.9865 -11.1108 23
53 3 50.4753 50.2517 -16.2899 24
1759 1 46.4273 53.6869 -10.5865 26
1761 2 48.6365 55.0534 -12.1348 25
1766 3 47.0619 54.9166 -11.974 22
1777 1 50.413 53.5727 -10.7898 27
1778 1 47.7351 58.9032 -10.4776 25
1785 3 49.2099 55.8578 -10.9109 24
20 1 45.5101 57.7568 -15.6871 23
2825 3 46.5459 57.1713 -10.3136 24
12159 3 53.5424 50.1228 -17.9786 24
12203 3 46.5258 56.5156 -17.4678 23
12212 3 49.7261 55.0176 -16.5042 23
2815 3 45.7061 52.5835 -12.2026 23
27 3 46.0671 50.286 -13.4571 22
79 3 54.0209 55.8013 -12.5522 23
70 1 52.7737 58.7826 -15.6153 28
12195 2 49.5746 53.8327 -17.5893 23
4 3 50.5598 50.591 -11.3067 25
1739 3 48.2795 53.3277 -9.96325 23
13241 3 45.036 55.5615 25.5532 23
77 3 54.31 55.8849 -15.2528 24
7 3 54.3768 50.3874 -13.0965 20
66 1 54.4826 51.1905 -14.9639 24
83 3 56.2082 53.1565 -12.6271 22
90 3 55.1416 53.0289 -15.566 25
1826 3 54.6248 52.9845 -10.525 25
8 2 59.9494 51.4386 -14.9535 25
9 3 59.0129 51.7308 -13.7616 26
10 3 59.5624 50.5513 -10.8625 24
64 1 55.1966 57.5762 -14.5537 24
65 1 55.1079 56.4484 -17.3512 32
67 1 57.6407 54.6974 -12.5768 26
69 1 55.2756 54.5504 -14.0913 27
71 2 56.0388 53.1747 -10.9719 22
73 2 57.3558 55.6784 -15.8745 28
76 3 56.307 57.4891 -12.6106 24
81 3 56.549 50.7899 -14.2688 22
82 3 56.5113 56.9821 -15.8922 24
85 3 56.3917 54.6821 -17.1304 24
88 3 57.154 54.7958 -14.6004 24
91 1 58.3179 51.725 -11.8304 25
92 1 60.2127 57.8743 -14.3293 24
93 1 59.9037 57.0103 -17.2565 27
94 1 57.3044 52.5378 -14.8129 24
95 1 62.6743 54.8826 -12.8323 24
97 1 59.5317 54.8139 -14.096 28
99 2 60.5605 53.4758 -11.2393 27
100 2 57.8204 57.7707 -12.7172 27
101 2 61.8008 55.6547 -15.6914 28
103 3 61.4632 52.189 -11.9486 24
104 3 61.1807 57.5625 -12.5337 24
105 3 58.8442 56.049 -15.8535 24
107 3 58.6071 56.3257 -12.8548 25
109 3 61.1886 52.5395 -15.2656 27
110 3 61.284 57.1703 -15.8372 23
111 3 59.3623 53.783 -12.2466 27
112 3 58.3436 58.5451 -13.9975 26
113 3 61.1115 54.7603 -16.9152 22
116 3 61.3925 55.1186 -14.2706 24
117 3 58.4593 58.4641 -17.4641 24
118 3 59.0031 53.4181 -15.971 26
119 1 62.3417 52.1814 -13.8346 26
122 1 62.4185 51.6762 -16.8026 25
128 2 62.8016 57.8351 -12.5198 26
1801 1 55.2512 56.4856 -11.1134 31
1821 3 56.6726 54.8093 -10.8006 22
1829 1 59.9972 57.1134 -10.9746 27
1849 3 61.6309 54.6603 -10.9706 25
1853 3 58.5394 58.3586 -11.4689 24
1858 1 62.8533 51.102 -10.7418 26
903 3 56.7857 50.2883 -11.7729 19
12162 3 59.2359 50.6181 -16.0107 23
12223 2 55.5679 53.0968 -17.0732 27
12227 3 56.6022 51.9153 -17.2694 23
12251 2 59.9906 53.5082 -17.1966 24
909 3 61.0711 50.3764 -14.1947 25
126 1 62.3836 58.9995 -15.8523 26
75 3 57.2093 52.4496 -10.3043 21
140 3 63.1568 58.3494 -13.9419 25
9162 3 66.0513 77.4404 13.3689 25
1818 3 56.6501 57.0159 -9.62074 25
5 2 55.9242 49.9922 -13.0901 21
145 3 63.3159 58.3193 -17.4269 23
12 3 63.6127 50.5081 -15.7466 25
135 3 63.5666 56.4327 -12.4079 22
1881 3 63.4004 58.5426 -11.3049 23
11 2 64.8428 50.7271 -14.7604 23
13 3 64.2369 51.1195 -13.2113 23
14 2 69.2512 50.6908 -15.179 19
15 3 67.8936 51.4698 -15.2497 22
16 3 69.2189 51.5667 -10.9534 19
120 1 64.9481 57.6655 -14.2225 24
121 1 64.6679 56.548 -17.0551 28
123 1 67.3075 54.4665 -12.5487 23
125 1 64.6711 53.9444 -15.182 26
127 2 64.7879 52.5619 -12.4451 21
129 2 66.8681 55.5802 -15.4655 26
131 3 66.284 52.4855 -12.4988 21
132 3 66.0284 57.6236 -12.4746 23
133 3 63.4621 55.6263 -15.6294 23
137 3 65.3456 52.0965 -15.2956 20
138 3 66.1627 57.0148 -15.6793 25
139 3 63.8131 53.451 -13.3319 21
141 3 66.0869 54.7228 -16.6867 22
144 3 66.2638 54.8749 -14.2058 25
146 3 63.8478 52.9325 -17.6542 25
147 1 67.9672 51.8249 -13.0651 25
148 1 69.7709 57.7937 -14.1879 23
149 1 69.5521 56.6858 -17.0043 27
150 1 66.8997 52.611 -16.5027 25
153 1 69.4917 53.6933 -15.8281 25
155 2 70.2544 53.9859 -12.9214 22
156 2 67.5919 57.7449 -12.4381 26
157 2 71.7279 55.5866 -15.3044 28
159 3 71.2397 52.7346 -12.6166 25
160 3 70.6797 57.6308 -12.4506 23
161 3 68.4242 55.5209 -15.6486 24
163 3 68.1483 56.2924 -12.466 23
165 3 70.449 51.6612 -15.598 24
166 3 70.8892 56.9938 -15.5405 23
167 3 68.9675 53.4611 -13.656 23
168 3 67.9932 58.4462 -13.8291 24
169 3 71.2474 54.5721 -16.4264 23
172 3 71.1192 54.8551 -13.887 26
173 3 68.2239 58.1644 -17.2169 22
174 3 68.6388 52.9074 -17.4149 22
175 1 71.752 51.331 -13.9439 26
178 1 71.8792 52.2442 -16.9343 22
3982 3 70.7963 77.3872 -5.18739 23
1857 1 64.8676 56.8753 -10.9504 26
1877 3 66.4119 55.0046 -10.6931 23
1882 3 64.224 52.537 -10.9166 21
1885 1 69.4959 56.5008 -11.0345 27
1909 3 68.3133 58.456 -11.2344 26
1910 3 69.86 54.4794 -11.5354 23
1914 1 70.8462 52.8443 -10.6201 25
924 3 69.5088 50.3408 -13.6335 19
1905 3 72.1517 54.3435 -10.3083 23
154 1 67.175 58.9943 -15.6722 26
22 1 45.2973 59.0278 -13.2317 24
42 1 47.8119 61.407 -17.7262 24
26 2 46.0407 60.7795 -15.9171 21
32 3 46.3993 59.9361 -17.2432 20
33 3 46.5271 60.1336 -14.6117 21
40 1 50.3745 59.7493 -12.8968 24
46 2 50.4448 60.4774 -15.9611 24
50 3 48.9823 60.797 -16.0455 23
52 3 49.2902 61.2947 -12.871 24
58 3 51.1572 59.7665 -17.2434 25
59 3 50.9742 59.5865 -14.6967 23
78 3 53.7343 60.6049 -15.9828 23
193 1 48.0287 64.8353 -13.4997 26
195 1 45.5037 63.9891 -16.2623 24
196 2 45.2496 63.625 -13.1341 20
197 2 47.5773 65.8872 -16.4833 26
199 3 46.7142 62.9637 -13.0202 23
200 3 46.8121 67.8312 -13.4007 24
201 3 46.5746 62.2049 -16.2296 23
202 3 47.0257 67.3156 -16.5249 27
203 3 46.9136 65.1656 -17.7594 23
206 3 47.1003 64.9155 -15.2851 24
207 1 47.3725 60.9843 -13.0253 26
208 1 50.3963 66.8823 -14.7294 29
209 1 50.4495 67.0585 -17.7837 26
210 1 48.2384 62.8994 -15.7436 24
211 1 52.6861 64.7511 -13.1416 28
213 1 50.6054 63.9769 -15.9416 28
215 2 49.8664 62.7998 -12.9201 26
216 2 48.3313 67.8706 -13.3868 24
217 2 52.4613 65.9177 -16.1368 24
219 3 51.493 62.5322 -13.0247 22
220 3 51.5304 67.7479 -13.1877 24
221 3 49.2298 65.8393 -16.3978 23
223 3 49.0375 66.3703 -13.2841 26
225 3 51.2997 61.8526 -15.8468 24
226 3 51.7106 67.3274 -16.221 26
227 3 49.3109 63.46 -14.2286 24
229 3 51.8541 65.0687 -17.4345 26
232 3 51.7447 65.188 -14.8681 26
234 3 49.3385 63.0786 -17.463 23
235 1 52.7151 62.0503 -14.5453 25
238 1 52.6036 61.5782 -17.3941 28
244 2 53.0708 67.9101 -13.0381 25
249 3 54.0057 65.9555 -15.9558 24
251 3 53.8255 66.3548 -12.9782 26
1768 3 46.4448 60.0932 -11.6248 23
1794 3 51.0589 59.5601 -11.0522 24
1928 1 45.418 66.8587 -12.4373 27
1939 3 46.965 65.3809 -11.8249 24
1945 1 50.4223 66.9854 -11.7301 28
1946 1 47.4193 63.6816 -11.0599 26
1965 3 51.7544 65.0943 -11.3562 22
1970 3 49.2744 63.5515 -11.7317 24
1974 1 52.6263 62.0927 -11.4777 27
80 3 54.0831 61.2817 -13.0196 24
1938 3 46.736 67.4514 -10.3732 24
1933 2 47.5243 66.0868 -10.4752 26
1953 2 52.5139 65.7938 -10.0765 26
1957 3 49.1315 66.1593 -10.2595 25
1962 3 51.8429 67.2711 -10.2104 25
1762 2 45.7935 60.9695 -10.4949 23
1985 3 54.048 65.7361 -9.94245 23
1961 3 51.2302 62.0801 -10.0818 24
191 1 45.4625 68.4566 -16.2057 23
1949 1 50.3298 64.1354 -10.0783 27
1814 3 53.8037 60.8052 -9.9703 23
98 1 57.5844 59.0487 -15.7373 28
262 3 54.066 63.2418 -17.4764 25
255 3 54.1578 63.4419 -14.2236 24
1998 3 54.1065 63.4421 -11.642 24
68 1 55.0023 59.5925 -12.8204 26
74 2 55.3245 60.6052 -15.9691 26
86 3 56.0723 60.1194 -17.3019 26
87 3 55.7558 59.4494 -14.8682 24
96 1 59.8432 59.7125 -12.5812 27
102 2 60.1768 60.7512 -15.6994 26
106 3 58.5364 60.8796 -15.7562 24
108 3 58.7648 61.2552 -12.8238 27
114 3 60.8008 60.044 -16.9081 25
115 3 60.7206 59.8146 -14.452 24
236 1 55.16 66.9724 -14.4462 29
237 1 55.1842 67.0248 -17.479 28
239 1 57.4147 64.6065 -12.9533 29
241 1 55.2335 63.9756 -15.849 27
243 2 54.7963 62.7343 -12.932 25
245 2 57.2312 65.8198 -15.972 24
247 3 56.3318 62.5203 -12.8906 24
248 3 56.3504 67.8089 -13.0124 23
253 3 56.0577 61.985 -15.6128 26
254 3 56.4993 67.275 -16.1024 25
257 3 56.5562 64.9756 -17.1828 24
260 3 56.5653 65.0823 -14.7334 25
263 1 57.6064 61.9782 -14.3875 28
264 1 59.9984 66.7921 -14.2971 29
265 1 59.9873 66.8808 -17.4122 28
266 1 57.3869 61.8283 -17.3317 27
267 1 62.3161 64.7263 -12.8046 25
269 1 59.948 64.0711 -15.8433 27
271 2 59.5761 62.8515 -12.713 25
272 2 57.9362 67.8464 -12.9941 25
273 2 62.0318 65.9093 -15.9046 25
275 3 61.1054 62.5033 -12.6456 24
276 3 61.1381 67.8083 -13.0047 23
277 3 58.7703 65.8328 -15.8689 23
279 3 58.5126 66.3063 -12.9379 26
281 3 60.964 62.125 -15.608 24
282 3 61.2162 67.2936 -15.9792 27
283 3 58.9323 63.5404 -13.9532 24
285 3 61.2982 65.1671 -17.1855 24
288 3 61.4644 65.1665 -14.5542 25
290 3 58.8828 63.3355 -17.3617 25
291 1 62.4009 61.9289 -14.2084 28
294 1 62.354 61.8266 -17.0766 29
300 2 62.6495 67.9719 -12.8596 25
1822 3 56.0636 60.0591 -11.2021 24
1850 3 60.925 59.9732 -10.9184 22
1973 1 55.0963 67.0003 -11.5771 29
1993 3 56.5527 65.0841 -11.2435 25
2001 1 59.9652 66.9069 -11.3507 28
2002 1 57.4147 61.7944 -11.4009 27
2021 3 61.313 65.2029 -11.2069 26
2026 3 58.7947 63.3636 -11.3917 25
2030 1 62.3229 61.7905 -11.216 27
1981 2 57.2315 65.8007 -9.9582 25
180 1 72.0935 59.34 -15.4027 26
307 3 63.3612 66.4315 -12.8291 25
134 3 63.4335 60.7959 -15.6444 23
124 1 64.9103 59.7855 -12.4627 28
130 2 65.0145 60.7939 -15.5936 26
136 3 63.6215 61.206 -12.6385 25
142 3 65.7363 60.0878 -16.8581 25
143 3 65.5485 59.8555 -14.391 24
152 1 69.6921 59.7437 -12.3913 27
158 2 69.7905 60.8323 -15.4148 26
162 3 68.2088 60.7488 -15.5638 23
164 3 68.6254 61.4034 -12.6858 23
170 3 70.6281 60.2847 -16.7474 25
171 3 70.4695 59.7474 -14.2876 25
292 1 64.716 67.0642 -14.3355 29
293 1 64.6907 66.87 -17.359 28
295 1 66.9929 64.6749 -12.8364 26
297 1 64.6441 64.1152 -15.6175 26
299 2 64.4142 62.7957 -12.4985 25
301 2 66.6919 65.9496 -15.7788 25
303 3 65.9159 62.4919 -12.6178 24
304 3 65.7884 67.9269 -12.7804 23
305 3 63.5534 65.9593 -15.8016 23
309 3 65.736 62.2175 -15.4286 26
310 3 65.9816 67.3271 -15.7862 25
311 3 63.7156 63.4185 -13.7876 24
313 3 66.002 65.0918 -16.9667 23
316 3 66.0457 65.2138 -14.4836 25
318 3 63.7071 63.3492 -17.1449 24
319 1 67.2605 61.8677 -14.1048 28
320 1 69.4995 67.0612 -13.9441 28
321 1 69.3505 67.1362 -16.941 27
322 1 67.1059 62.0241 -17.0304 28
323 1 71.786 64.903 -12.4627 27
325 1 69.4392 64.3105 -15.4435 27
327 2 69.1916 62.9642 -12.471 25
328 2 67.3208 67.9481 -12.7113 25
329 2 71.5637 66.0842 -15.5166 24
331 3 70.724 62.8277 -12.3089 23
332 3 70.6193 67.7967 -12.4036 22
333 3 68.2733 66.0058 -15.6516 23
335 3 68.0136 66.4088 -12.5853 25
337 3 70.4328 62.2489 -15.1842 24
338 3 70.8029 67.4952 -15.488 23
339 3 68.4766 63.6278 -13.6664 24
341 3 70.8914 65.2576 -16.6474 24
344 3 70.8272 65.4126 -14.1455 24
346 3 68.485 63.4475 -17.0216 25
347 1 71.9575 62.1379 -13.7733 28
350 1 71.8944 62.0561 -16.6953 28
354 2 72.1856 67.9787 -12.3657 25
1878 3 65.7741 60.17 -10.8063 24
1906 3 70.6458 60.3506 -10.7566 24
2029 1 64.7226 67.0534 -11.2534 28
2049 3 66.0847 65.0989 -10.8995 23
2054 3 63.7654 63.3888 -11.2345 26
2057 1 69.4524 67.0338 -10.9655 28
2058 1 67.0853 61.8609 -11.036 29
2077 3 71.0133 65.1707 -10.6199 25
2082 3 68.4297 63.385 -11.1373 24
2086 1 71.8283 62.1403 -10.7562 27
194 1 45.4849 69.4053 -13.6513 25
198 2 45.8434 70.9373 -16.5915 23
204 3 46.4543 70.2034 -17.8372 23
205 3 46.4452 70.0652 -15.3533 22
212 1 50.5705 69.637 -13.3774 28
214 1 48.2175 69.0657 -16.3517 27
218 2 50.6454 70.9811 -16.3771 25
222 3 49.0739 70.8718 -16.451 22
224 3 49.3484 71.233 -13.3981 25
228 3 49.0502 68.4698 -14.6217 24
230 3 51.3308 70.3202 -17.7831 24
231 3 51.3252 70.2662 -15.221 23
242 1 52.9025 69.2901 -16.2305 27
250 3 53.9214 71.0154 -16.3884 23
256 3 53.6557 68.4931 -14.4035 24
261 3 53.808 68.5262 -17.8573 24
363 1 45.6131 76.8606 -14.9209 29
365 1 48.2406 74.589 -13.4631 27
367 1 45.3397 74.0183 -16.6741 26
369 2 47.4967 75.7474 -16.532 26
371 3 46.6412 72.9319 -13.5346 24
373 3 46.4818 72.3567 -16.4796 22
375 3 46.8165 75.1547 -17.7863 25
378 3 46.7695 74.8636 -15.1279 24
379 1 47.9074 71.6814 -15.0155 28
380 1 50.2368 76.7831 -15.112 29
383 1 52.596 74.6414 -13.4119 29
385 1 50.2067 74.1193 -16.4874 27
387 2 50.0371 72.7111 -13.4641 25
389 2 52.3502 75.8075 -16.5416 25
391 3 51.5803 72.6553 -13.502 23
393 3 49.036 75.8775 -16.4787 24
395 3 49.1456 76.3782 -13.5274 27
397 3 51.3476 72.4181 -16.4422 26
399 3 49.2729 73.3876 -14.7133 25
401 3 51.4639 75.1772 -17.8365 25
404 3 51.6888 75.1105 -15.2689 25
406 3 49.3886 73.4279 -12.2293 23
407 1 52.7775 72.0264 -14.9284 28
410 1 52.7037 72.0204 -17.8997 28
421 3 53.8368 75.9545 -16.5565 24
423 3 53.6983 76.3539 -13.5247 25
434 3 54.0902 73.3512 -12.034 24
1934 2 45.413 71.5934 -11.4158 24
1940 3 46.2217 70.4734 -12.1336 23
1966 3 51.3395 70.0917 -11.531 23
1969 3 48.8872 68.5251 -12.0076 26
1997 3 53.7956 68.5234 -11.7597 22
2111 3 47.0491 75.1109 -11.8197 25
2117 1 50.4503 76.9028 -12.0606 27
2118 1 47.9214 71.7215 -11.9758 26
2125 2 52.4361 75.8157 -10.4856 25
2129 3 49.238 75.8886 -10.5265 22
2137 3 51.8236 75.0606 -11.7088 23
2146 1 52.7751 71.7334 -11.7085 27
2157 3 53.9945 75.9193 -10.4584 23
2100 1 45.6375 76.8102 -12.0931 25
368 2 45.6919 74.0261 -14.0461 26
374 3 46.8718 77.2328 -16.3931 26
398 3 51.6307 77.2751 -16.5029 26
2134 3 51.7239 77.2947 -10.5431 26
364 1 45.5202 76.7713 30.2109 27
2103 1 45.575 74.2138 -10.5271 27
2105 2 47.6738 75.8446 -10.5155 25
2121 1 50.3233 74.0467 -10.3895 28
2133 3 51.3902 72.2729 -10.3481 24
2110 3 47.029 77.2643 -10.5961 26
1954 2 50.6 70.9359 -10.3521 25
1958 3 49.0715 70.9186 -10.431 22
1986 3 54.0059 70.8698 -10.1582 23
2109 3 46.5102 72.3844 -10.5872 23
1927 1 45.3333 69.0248 -10.3369 25
1950 1 48.0833 69.2019 -10.1913 26
1978 1 52.8175 69.1224 -10.143 27
252 3 54.1515 71.2675 -13.3367 26
381 1 50.3086 76.8666 -18.0032 30
2025 3 58.5816 68.408 -11.648 24
427 3 54.0861 73.3926 -14.6302 24
289 3 58.5917 68.5739 -17.6794 24
240 1 55.4052 69.71 -13.1859 28
246 2 55.4877 70.8669 -16.2603 25
258 3 56.101 70.2606 -17.6661 24
259 3 56.1657 70.1495 -15.0265 24
268 1 60.1192 69.7848 -13.1916 27
270 1 57.7686 69.1344 -15.9319 28
274 2 60.2439 70.9478 -16.2913 25
278 3 58.6579 70.943 -16.2359 22
280 3 58.8184 71.4027 -13.334 26
284 3 58.6321 68.3462 -14.2976 24
286 3 60.9817 70.3216 -17.581 26
287 3 60.9052 70.252 -14.9697 25
298 1 62.3597 69.1662 -15.9176 27
408 1 55.0741 76.9092 -15.0978 28
411 1 57.4177 74.6913 -13.5014 27
413 1 54.8982 74.0854 -16.4167 27
415 2 54.7739 72.7524 -13.3151 25
417 2 57.0636 75.9296 -16.6225 25
419 3 56.3407 72.7592 -13.419 23
425 3 56.0919 72.3227 -16.3528 25
429 3 56.3752 75.2974 -17.9172 25
432 3 56.3536 75.1999 -15.3593 24
435 1 57.5228 72.0133 -14.9223 27
436 1 59.8611 76.7554 -15.2101 29
438 1 57.5102 71.9538 -17.7702 29
439 1 62.1811 74.713 -13.6412 26
441 1 59.8233 74.1243 -16.494 29
443 2 59.5686 72.9424 -13.3145 25
445 2 61.9354 75.9381 -16.6515 25
447 3 61.131 72.6924 -13.2199 23
449 3 58.6786 75.9753 -16.6062 22
451 3 58.4754 76.4475 -13.6247 25
453 3 60.8889 72.379 -16.276 25
455 3 58.8483 73.6095 -14.625 25
460 3 61.3156 75.1753 -15.4272 25
462 3 58.8214 73.4527 -18.1574 24
463 1 62.3626 71.9197 -14.7133 29
466 1 62.2783 71.9477 -17.7799 28
1994 3 56.204 70.2513 -11.4856 23
2022 3 60.8693 70.3123 -11.4025 24
2145 1 55.1962 76.9814 -12.0627 29
2153 2 57.1314 75.9162 -10.5468 25
2165 3 56.4621 75.3779 -11.8734 24
2173 1 59.9464 76.9751 -12.1416 28
2174 1 57.6276 71.9308 -11.5818 28
2181 2 61.9712 75.9709 -10.6808 25
2185 3 58.6665 76.117 -10.5386 24
2193 3 61.31 75.3301 -12.0139 26
2198 3 58.9005 73.5083 -11.974 25
2202 1 62.1805 72.0561 -11.6286 28
2149 1 55.0284 74.1648 -10.2752 27
1982 2 55.5508 70.8149 -10.0846 25
2010 2 60.2172 70.9756 -10.1441 25
2014 3 58.6706 71.0294 -10.0495 24
2161 3 56.1824 72.3271 -10.2503 26
2177 1 59.6468 74.2336 -10.2182 28
2189 3 60.9157 72.403 -10.1248 26
2162 3 56.4256 77.4812 -10.5227 26
10870 3 61.257 77.4218 19.5259 25
312 3 63.2805 68.5867 -14.1949 24
479 3 63.1988 76.4898 -13.7887 26
426 3 56.3787 77.4081 -16.5819 25
457 3 61.2375 75.3468 -17.9799 25
409 1 55.0132 76.8655 -18.0685 29
182 2 72.2195 57.8057 -12.3687 24
317 3 63.2539 68.4582 -17.6343 25
2053 3 63.2431 68.5688 -11.5421 24
306 3 63.4366 71.1171 -16.1408 23
296 1 64.8144 69.7643 -12.9603 28
302 2 64.9697 70.9393 -16.0456 26
308 3 63.5943 71.481 -13.1491 25
314 3 65.6162 70.2591 -17.3324 25
315 3 65.6428 70.1979 -14.7694 24
324 1 69.4814 69.8211 -12.4511 27
326 1 67.1492 69.1537 -15.6771 26
330 2 69.8206 70.9371 -15.5146 25
334 3 68.2555 70.9511 -15.6533 24
336 3 68.2555 71.3676 -12.8819 25
340 3 68.0351 68.4574 -14.0014 24
342 3 70.5429 70.4128 -16.8254 26
343 3 70.4721 70.1471 -14.2138 23
345 3 67.9757 68.7635 -17.4323 24
352 1 71.9873 69.2743 -15.2834 26
464 1 64.6606 77.0259 -15.2997 28
467 1 66.8248 74.919 -13.8422 26
469 1 64.5205 74.1303 -16.2712 26
471 2 64.3241 72.9148 -13.057 25
473 2 66.6968 75.9863 -16.9238 24
475 3 65.8703 72.6717 -13.095 24
477 3 63.4469 76.0882 -16.6228 24
481 3 65.6982 72.3659 -16.0157 26
483 3 63.7286 73.6368 -14.3783 25
488 3 66.0585 75.2687 -15.6679 25
490 3 63.479 73.5026 -17.923 26
491 1 67.0064 71.863 -14.4195 28
492 1 69.345 77.3449 -15.7729 27
494 1 67.0377 71.9396 -17.3376 28
495 1 71.8165 74.9268 -14.2578 27
497 1 69.3295 74.0062 -15.6578 26
499 2 69.0071 72.9323 -12.6301 26
501 2 71.3726 75.9565 -17.3732 29
503 3 70.4923 72.4745 -12.3996 25
505 3 68.2302 76.2687 -16.967 24
507 3 68.026 76.572 -14.1149 22
509 3 70.4833 72.4451 -15.3477 21
511 3 68.5122 73.7024 -13.8644 23
516 3 70.9788 75.2771 -16.0382 25
518 3 68.4098 73.5196 -17.3181 26
519 1 71.8535 71.8217 -13.7146 28
522 1 71.8638 72.0836 -16.851 29
2050 3 65.6572 70.3843 -11.2339 25
2078 3 70.4292 70.2636 -10.8309 24
2081 3 68.0771 68.5685 -11.398 23
2201 1 64.5265 77.019 -12.3231 28
2209 2 66.6447 75.9057 -10.8549 26
2213 3 63.5073 76.1225 -10.6853 23
2221 3 65.9609 75.4209 -12.2059 26
2226 3 63.7526 73.4322 -11.7016 26
2229 1 69.4114 77.012 -12.6009 26
2230 1 66.9607 71.9553 -11.2975 30
2237 2 71.4944 75.9063 -11.3452 27
2241 3 68.2452 76.118 -10.9698 25
2249 3 70.7448 75.4252 -12.6642 27
2254 3 68.2701 73.3749 -11.2851 25
2258 1 71.85 72.0998 -10.8784 30
2205 1 64.5118 74.0552 -10.0626 27
2042 3 63.448 70.9584 -9.90736 23
2217 3 65.7349 72.3799 -9.83366 25
485 3 65.9538 75.4849 29.9242 25
2627 1 48.1914 51.4054 -9.89372 27
1802 1 53.1728 52.291 -9.34106 24
1740 3 47.9281 50.4645 -6.17573 24
1742 3 52.7654 54.3633 -8.42602 21
1743 3 53.5205 51.0933 -7.73861 20
1757 1 48.2573 55.0957 -9.15564 24
1760 2 45.3072 53.6855 -7.85033 21
1764 3 46.6764 57.9981 -7.401 21
1765 3 46.2772 50.4617 -9.23338 26
1770 3 46.3569 54.7566 -8.39552 21
1772 1 50.4187 56.391 -7.98687 27
1775 1 52.7544 54.4211 -6.42071 27
1779 2 50.3363 53.0492 -7.93946 26
1780 2 48.1754 57.7569 -7.43162 25
1781 2 52.6367 55.4891 -9.55898 27
1783 3 51.0487 53.102 -6.61007 21
1784 3 51.3984 57.682 -6.70816 26
1787 3 48.4254 56.1783 -7.15638 19
1790 3 51.6924 56.7739 -9.44337 24
1791 3 51.1175 52.2464 -9.16943 25
1792 3 48.9412 57.8922 -8.77849 22
1796 3 50.0809 54.5137 -8.41551 26
1799 1 52.1569 51.4148 -6.28944 22
1808 2 52.9138 57.7728 -6.62625 26
1815 3 53.6059 56.2359 -6.58064 22
1820 3 53.5866 58.5054 -7.89381 23
3475 3 46.9238 52.3696 -4.004 24
3497 2 48.3244 55.4198 -5.68678 25
3502 3 46.9073 55.8986 -5.09554 25
3503 3 45.8607 52.5983 -6.93143 24
3507 1 48.5293 52.1254 -2.81139 22
3509 1 50.3139 57.6835 -4.92246 25
3510 1 47.451 52.3372 -5.8381 21
3513 1 50.3423 53.6914 -4.71162 23
3517 2 52.3887 55.8265 -3.39689 25
3521 3 49.6686 55.8683 -5.03172 25
3525 3 49.402 50.4649 -2.73776 23
3526 3 51.7427 57.2909 -3.61792 21
3527 3 49.6394 53.646 -2.88081 21
3528 3 48.8237 57.9544 -3.19355 20
3529 3 52.2639 54.6447 -4.58892 24
3532 3 51.6 55.0975 -2.15172 21
3533 3 48.8084 58.4776 -6.18695 21
3534 3 48.431 53.8689 -5.73052 22
3538 1 53.0449 51.8765 -3.36523 27
3549 3 53.9415 55.9829 -3.32267 24
3561 3 53.677 58.4423 -5.42266 23
3493 1 46.8842 54.3441 -3.60187 22
3516 2 47.9838 57.3147 -1.94435 21
3523 3 47.5129 55.929 -2.46595 27
4370 3 51.6171 51.3531 -4.48915 21
1789 3 48.9933 52.019 -7.79982 21
1755 1 45.9508 56.5283 -8.47362 25
1806 1 52.652 58.9459 -9.5869 27
3508 1 50.6159 58.035 -2.07424 25
1738 2 49.0415 50.5097 -7.28266 24
1763 3 45.2407 50.1296 -5.2373 20
1771 1 45.6875 50.5609 -7.18448 24
3542 1 53.0462 59.0373 -3.61466 28
2631 1 51.4993 50.188 -9.5522 21
2633 3 50.5328 50.2761 -6.89416 21
3491 1 45.4718 56.1521 -2.36002 21
3478 3 53.3541 53.0124 -1.84536 22
7426 3 65.9725 77.5381 7.28222 26
3898 3 56.4264 77.3043 -4.58505 27
2637 1 57.2204 50.4209 -9.78232 20
1854 3 60.0305 52.9586 -9.89516 24
1841 3 58.9067 55.8366 -9.78495 28
4373 1 55.8207 50.1563 -3.82949 23
1830 1 58.144 52.8757 -8.55397 23
1813 3 54.1845 55.9834 -9.38879 25
1819 3 54.565 53.4899 -6.46585 22
3562 3 55.3067 52.8739 -3.93846 21
1741 2 54.8672 50.5652 -7.31569 19
1744 2 60.1812 50.5212 -9.31807 26
1745 3 59.0686 50.9952 -8.31274 20
1746 3 59.0592 50.2103 -5.08608 22
1800 1 55.2431 57.9872 -8.73433 25
1803 1 57.6166 54.4235 -6.39887 24
1805 1 54.8741 54.9443 -7.76832 24
1807 2 55.548 52.6532 -5.5001 22
1809 2 57.4176 55.6117 -9.49954 28
1811 3 57.0129 52.6013 -6.11089 22
1812 3 56.2751 57.7576 -6.77724 24
1817 3 56.2068 50.8852 -8.08108 23
1824 3 56.8927 54.7273 -8.29036 25
1827 1 57.976 50.619 -6.66476 26
1828 1 59.9888 56.5753 -8.1526 27
1831 1 62.6847 54.3387 -6.44836 26
1833 1 60.9382 52.8837 -8.03709 23
1835 2 59.983 53.5124 -5.20668 27
1836 2 57.8398 57.7983 -6.79051 25
1837 2 62.2839 55.5151 -9.62058 25
1839 3 61.813 52.0666 -6.47957 20
1840 3 61.0924 57.5935 -6.69897 22
1843 3 58.6087 56.3379 -6.58975 23
1845 3 61.6439 51.0368 -9.14116 24
1846 3 61.5208 56.9437 -9.57265 23
1847 3 59.4439 53.5106 -6.77069 25
1848 3 58.5733 58.2412 -8.13816 24
1852 3 61.7475 54.727 -8.27167 24
1855 1 62.7089 50.4462 -7.3169 25
1864 2 62.6449 57.7542 -6.64328 25
3480 2 59.0494 51.0013 -3.69503 23
3481 3 57.5699 51.2893 -3.37381 23
3484 3 62.8089 51.0064 -3.37593 25
3536 1 55.2952 56.8154 -2.08139 27
3537 1 54.8288 56.7406 -5.05836 27
3541 1 54.7939 54.2992 -2.60452 22
3545 2 57.2305 55.9711 -3.89057 26
3553 3 54.0672 50.1805 -2.91614 24
3554 3 56.3581 57.4088 -3.78947 27
3557 3 56.4381 55.3486 -5.07845 25
3560 3 56.7093 55.2395 -2.4527 22
3564 1 60.0844 57.8504 -2.5554 25
3565 1 59.8955 57.0107 -5.19489 30
3566 1 57.0647 53.083 -2.7512 25
3569 1 59.2731 54.9354 -2.21796 26
3573 2 61.8852 55.4096 -3.6767 28
3577 3 58.7186 56.4239 -3.61381 26
3581 3 60.2414 52.3172 -4.21336 22
3582 3 61.3321 56.9277 -3.86952 26
3585 3 61.1456 54.6492 -4.9905 25
3588 3 61.1399 54.6015 -2.47824 23
3589 3 58.5284 58.5501 -5.5789 24
3590 3 58.5514 54.0501 -4.36877 23
3594 1 61.7653 50.8046 -5.10416 22
3591 1 61.4516 52.4962 -2.50155 23
2639 3 55.1129 51.0699 -5.7215 19
4381 3 59.8065 50.6304 -2.43294 20
1862 1 62.6277 59.0296 -9.59327 29
3584 3 58.428 58.4066 -1.83915 26
3612 3 63.3733 58.1479 -2.04736 23
1753 3 72.1587 51.624 -9.41022 23
2659 3 68.6634 50.6577 -8.56361 21
1750 2 68.5881 51.9708 -9.5372 24
1876 3 63.4264 58.2328 -7.86951 23
1886 1 65.4531 51.4621 -9.42596 25
1871 3 63.2851 56.1851 -6.43959 24
3617 3 63.411 58.3763 -5.34779 22
1749 3 64.2781 50.7877 -5.83199 25
1751 3 67.0801 52.3678 -9.56572 26
1752 3 69.2047 50.9305 -5.72069 22
1856 1 64.9727 56.694 -7.99294 26
1859 1 67.1568 54.259 -6.27232 27
1861 1 65.0513 53.781 -9.52269 23
1863 2 64.804 52.1642 -6.52711 22
1865 2 66.9997 55.7119 -9.44815 25
1867 3 66.4077 52.1845 -6.38227 23
1868 3 65.9219 57.3719 -6.40331 21
1869 3 63.83 55.606 -9.68056 22
1874 3 66.2519 57.189 -9.47296 24
1875 3 64.3023 52.3702 -8.04372 23
1880 3 66.3064 54.9364 -8.21202 24
1883 1 67.505 50.5355 -6.82987 27
1884 1 69.8483 57.6506 -8.29695 24
1889 1 69.4457 54.7518 -7.73375 26
1891 2 69.9906 52.3412 -5.46739 23
1892 2 67.4489 57.6128 -6.33286 25
1893 2 72.0384 55.6723 -9.40803 28
1895 3 71.3872 52.2904 -6.30135 20
1896 3 70.7442 57.6571 -6.34617 24
1897 3 68.5355 55.9002 -9.28217 24
1899 3 68.0766 56.0661 -6.23337 23
1901 3 69.6653 53.032 -8.95174 22
1902 3 71.0868 56.9338 -9.71929 23
1903 3 69.0682 53.4467 -6.06592 23
1904 3 68.0741 58.2772 -7.58708 24
1908 3 71.4751 55.1633 -7.97538 26
1911 1 71.7161 52.9152 -8.12681 22
3483 2 64.1706 50.7878 -2.61493 25
3593 1 64.6143 56.8638 -4.87353 26
3597 1 64.7146 53.7687 -3.65764 28
3601 2 67.0043 55.3502 -3.34606 27
3605 3 63.4119 55.3399 -3.73654 23
3609 3 65.3014 51.8418 -3.0295 23
3610 3 65.9935 56.5594 -3.56915 24
3613 3 66.7765 53.9958 -4.19969 22
3616 3 66.2838 54.7739 -1.91262 22
3618 3 64.3012 53.4114 -5.60142 22
3621 1 69.6735 56.6622 -4.94903 28
3622 1 66.809 51.7455 -4.54163 24
3625 1 69.6839 53.9475 -2.91753 23
3626 1 67.3203 58.989 -3.43152 27
3629 2 71.8137 55.815 -3.29984 25
3633 3 68.519 55.6554 -3.28312 24
3638 3 71.0923 57.2481 -3.44511 22
3641 3 71.2181 54.9497 -4.54551 24
3645 3 68.1708 58.2753 -5.11407 24
3646 3 70.3 52.3495 -3.87973 24
1890 1 67.2281 59.014 -9.38861 28
3647 1 71.2372 51.2781 -2.31469 27
1918 2 72.2568 57.8894 -6.28284 25
3619 1 66.9381 52.4215 -1.93174 26
3620 1 69.8358 57.545 -1.93171 23
3644 3 71.2271 54.8912 -2.10916 24
3487 3 67.9008 51.0347 -3.00597 23
3592 1 64.8498 56.5538 -1.83291 24
6968 2 45.0992 51.9873 11.3412 24
7857 1 62.8088 50.0914 5.88259 24
1937 3 46.4811 62.2733 -10.1517 23
1786 3 48.9213 60.6699 -9.9453 25
1782 2 50.4531 60.7033 -10.0075 23
1931 1 45.6075 66.5204 -8.65671 27
3514 1 48.0079 59.2898 -4.43485 26
1758 1 45.6584 59.6161 -7.05585 25
1769 3 46.2271 59.9814 -9.15264 23
1776 1 50.3386 59.7029 -6.82561 26
1788 3 49.3207 61.3215 -7.04563 25
1795 3 51.1876 60.0973 -8.62121 26
1929 1 47.8982 64.7677 -7.5229 27
1932 2 45.1827 63.4755 -7.37048 25
1935 3 46.6934 62.9158 -7.33029 24
1936 3 46.8239 67.5758 -7.38004 25
1942 3 46.9528 65.1112 -9.37693 24
1943 1 47.8765 61.7869 -8.6642 25
1944 1 50.4748 67.0054 -8.80962 27
1947 1 52.702 64.6147 -7.1717 27
1951 2 50.0334 62.8551 -7.08284 25
1952 2 48.3678 67.7903 -7.30905 25
1955 3 51.5234 62.5939 -7.02741 24
1956 3 51.613 67.6671 -7.25891 23
1959 3 49.1113 66.3028 -7.31256 25
1963 3 49.3591 63.4521 -8.37778 25
1968 3 51.7516 65.0927 -8.85303 24
1971 1 52.6971 61.84 -8.46399 27
1980 2 53.1514 67.8174 -7.11735 25
1987 3 53.7628 66.284 -7.04267 25
3498 2 45.9961 60.9721 -4.13529 19
3504 3 46.5554 60.3604 -5.49423 21
3505 3 46.5402 60.1025 -2.978 22
3518 2 50.5685 60.7346 -3.75609 27
3522 3 49.0048 60.8936 -3.92195 23
3530 3 51.1011 59.7953 -5.01018 24
3531 3 51.2453 59.9595 -2.52708 26
3550 3 53.7593 61.056 -3.80292 24
3663 1 45.8396 66.8005 -2.8211 27
3664 1 45.6106 66.8816 -5.67366 26
3667 1 45.8144 64.1917 -4.35348 28
3669 2 47.8883 65.8242 -4.42142 26
3673 3 46.5803 62.403 -4.08886 24
3674 3 47.153 67.2455 -4.41489 25
3675 3 47.0589 65.1464 -5.61426 25
3678 3 47.1798 65.06 -3.10939 26
3679 1 47.9172 62.0684 -2.57504 26
3680 1 50.3848 67.0623 -2.70896 27
3681 1 50.4943 66.9167 -5.74372 28
3682 1 47.977 62.1782 -5.67927 29
3685 1 50.3583 64.1457 -4.10927 27
3689 2 52.5692 65.8314 -4.1972 26
3693 3 49.3754 65.9671 -4.30059 24
3697 3 51.2118 62.1843 -4.15582 27
3698 3 51.8008 67.2755 -4.11196 26
3701 3 51.8175 65.134 -5.41491 25
3704 3 51.9934 64.8443 -2.99318 23
3706 3 49.3958 63.4501 -5.7792 25
3707 1 52.8454 62.9432 -3.39407 26
3710 1 52.6772 61.6641 -5.52056 28
3721 3 54.0477 65.8658 -4.08402 23
1991 3 54.131 63.4194 -8.10908 24
3699 3 49.5057 63.5147 -2.27039 25
1816 3 53.9957 61.2609 -6.85884 28
3734 3 54.1805 63.2953 -5.45996 25
3727 3 54.2318 63.4467 -2.05949 25
1990 3 56.492 67.2477 -9.97635 25
1834 1 57.6537 58.9536 -9.78136 26
3598 1 62.5173 58.9568 -3.67934 28
3570 1 57.3727 59.1229 -3.85056 27
2013 3 58.7903 65.9035 -9.86266 23
1810 2 55.3687 60.7605 -9.92347 26
1977 1 55.1399 64.0343 -9.98303 28
1804 1 55.0976 59.4369 -6.73084 27
1823 3 55.9169 59.7971 -8.75105 23
1832 1 60.0167 59.5239 -6.68439 28
1838 2 60.338 60.7862 -9.68323 25
1842 3 58.72 60.8183 -9.7376 22
1844 3 58.8881 61.2363 -6.72894 25
1851 3 60.974 60.0448 -8.39616 24
1972 1 55.2617 66.7143 -8.4986 29
1975 1 57.6187 64.6449 -6.95244 26
1979 2 54.8485 62.7334 -6.81472 26
1983 3 56.3647 62.5041 -6.77684 23
1984 3 56.3551 67.6113 -6.97592 24
1989 3 56.0758 62.1516 -9.81479 24
1996 3 56.58 65.0194 -8.72579 25
1999 1 57.5668 62.0023 -8.45273 27
2000 1 59.979 66.8936 -8.45447 30
2003 1 62.3573 64.5322 -6.82952 28
2005 1 59.8733 64.1624 -9.87527 29
2007 2 59.5853 62.767 -6.71807 25
2008 2 57.876 67.8881 -6.94392 25
2009 2 62.0405 65.9267 -9.93874 25
2011 3 61.1314 62.561 -6.69873 23
2012 3 61.098 67.6342 -7.00539 23
2015 3 58.6345 66.379 -6.90962 25
2017 3 60.9485 62.2289 -9.78062 26
2018 3 61.3183 67.329 -9.9222 25
2019 3 58.9448 63.4689 -8.01923 24
2024 3 61.3733 65.1631 -8.62688 25
2027 1 62.3564 62.0848 -8.2762 25
2036 2 62.6191 67.7883 -6.85417 25