ITEM: TIMESTEP
5000
ITEM: NUMBER OF ATOMS
13888
ITEM: BOX BOUNDS pp pp pp
45.0 100.0
50.0 105.0
-18.06819 30.11365
ITEM: ATOMS id type x y z Coordination
3 3 49.115 50.4194 -13.9945 25
6 3 52.5961 51.6516 -15.0426 23
19 1 45.8991 54.2574 -13.9191 26
21 1 49.5987 54.9844 -15.3269 24
23 1 46.4429 52.6671 -16.0584 24
24 2 46.4342 51.7511 -12.9218 26
25 2 46.2009 55.4015 -16.8532 25
28 3 46.6415 57.4669 -14.0351 23
29 3 46.5114 50.9121 -16.7553 25
31 3 45.9435 54.0213 -17.6185 24
34 3 47.1286 52.4713 -14.1719 24
35 1 48.7567 51.9929 -15.2341 28
36 1 50.754 57.5948 -14.442 22
37 1 49.1402 57.1456 -17.4267 21
39 1 53.3553 54.1291 -12.2316 25
41 1 51.7022 51.9136 -16.8253 26
43 2 51.6907 52.6682 -14.1849 24
44 2 48.2171 57.4718 -14.0645 24
45 2 52.7012 55.0566 -15.4189 24
47 3 51.5775 52.1151 -12.6788 22
48 3 51.5577 57.4518 -12.5355 24
49 3 46.9801 54.864 -15.6177 25
51 3 48.9287 56.0294 -13.6345 20
54 3 51.5028 56.0198 -15.1959 25
55 3 50.4224 53.1353 -14.9279 23
56 3 48.9258 57.6054 -15.5377 21
57 3 52.4912 53.995 -16.5509 22
60 3 52.6808 54.0071 -14.0499 23
62 3 48.613 52.698 -17.0908 22
63 1 52.6116 50.4099 -12.5956 23
72 2 53.1332 57.5027 -12.7156 25
84 3 53.363 58.1892 -14.1128 22
89 3 53.2781 57.9274 -17.2356 26
1756 1 45.9018 56.8107 -12.3264 25
1767 3 47.4866 51.3668 -11.8397 19
1773 1 50.3823 57.6051 -10.8649 27
1774 1 49.4596 51.6458 -12.2686 22
1793 3 52.2338 54.7232 -10.8772 24
1797 3 48.7997 58.4336 -12.9566 23
1798 3 49.4926 53.7686 -12.3976 25
1825 3 53.8425 58.392 -11.589 23
53 3 50.3142 50.5054 -16.1881 22
1759 1 46.4386 53.7057 -10.8742 26
1761 2 48.7483 55.1864 -12.2935 24
1766 3 47.1527 54.9515 -12.2329 23
1777 1 50.5403 53.7178 -10.7193 26
1778 1 47.8802 59.0914 -10.5876 25
1785 3 49.3028 55.9222 -10.9808 25
20 1 45.512 57.7932 -15.8464 23
2825 3 46.7658 57.3537 -10.5988 26
12159 3 52.9553 50.5466 -17.6958 22
12203 3 46.968 56.4402 -17.7907 24
12212 3 49.6387 55.122 -17.2872 23
2815 3 45.4626 52.7967 -12.3459 22
27 3 45.9978 50.3189 -13.4695 25
10724 3 63.6382 71.4015 23.0717 25
12271 1 61.4487 50.0502 29.0107 26
70 1 52.7219 59.1741 -15.8141 25
22 1 45.388 59.2209 -13.3243 23
10712 1 64.7509 69.7931 23.2534 26
79 3 53.9193 56.0682 -12.5637 24
77 3 54.1618 55.6662 -15.5236 24
7 3 54.3933 50.6508 -13.1612 24
66 1 54.4194 51.1223 -15.2441 24
83 3 55.7772 53.3428 -12.6865 21
90 3 55.2908 52.8955 -15.8556 24
1826 3 54.54 53.0994 -10.4941 26
8 2 59.7665 51.35 -15.0981 26
9 3 58.8224 52.0709 -14.0362 25
10 3 59.4 50.8732 -10.8964 23
64 1 55.2102 57.6611 -14.7738 23
65 1 54.7934 56.6146 -17.3974 25
67 1 57.5526 54.7531 -12.7691 23
69 1 55.1526 54.239 -14.3844 26
71 2 55.9282 53.3664 -11.0662 24
73 2 57.2823 55.5448 -16.1508 27
76 3 56.3178 57.5924 -12.9725 24
81 3 56.4801 50.7145 -14.4606 23
82 3 56.4298 56.8442 -16.1645 23
85 3 56.5969 54.4628 -17.3146 22
88 3 57.1904 54.685 -14.7469 22
91 1 58.093 51.8626 -12.2487 27
92 1 60.2591 57.8685 -14.6003 22
93 1 59.7884 56.9257 -17.4269 26
94 1 57.3412 52.4067 -15.264 24
95 1 62.5551 54.755 -12.8854 24
97 1 59.3875 54.5359 -14.4088 28
99 2 60.5622 53.5995 -11.3662 27
100 2 57.8856 57.8264 -12.9854 27
101 2 61.8819 55.4246 -15.8652 26
103 3 61.4827 52.5775 -12.1855 24
104 3 61.2234 57.7156 -12.8257 24
105 3 58.7698 55.8045 -16.2209 25
107 3 58.6261 56.364 -12.9305 23
109 3 61.1251 52.2478 -15.45 24
110 3 61.3169 56.9986 -16.01 22
111 3 59.2929 53.8532 -12.1815 24
112 3 58.415 58.3411 -14.3787 26
113 3 61.0757 54.5574 -17.034 24
116 3 61.265 54.9571 -14.4128 27
117 3 58.4811 58.46 -17.6699 23
118 3 59.0111 52.9582 -16.4774 24
119 1 62.2347 51.9222 -13.9331 26
122 1 62.3144 51.4694 -16.878 23
128 2 62.8054 57.7731 -12.8794 25
1801 1 55.3942 56.7446 -11.3432 30
1821 3 56.615 54.9005 -11.01 24
1829 1 60.0104 56.8187 -11.3489 29
1849 3 61.5338 54.8932 -11.1519 24
1853 3 58.6017 58.4896 -11.7349 24
1858 1 62.8414 51.1294 -11.0762 24
903 3 56.7727 50.3197 -11.8897 18
12162 3 58.8328 50.389 -16.0014 20
12223 2 55.6266 53.0232 -17.4475 24
12227 3 56.4484 51.7134 -17.6833 24
12251 2 60.058 53.294 -17.5609 28
909 3 60.7574 50.392 -14.1189 24
126 1 62.4335 59.0104 -16.0294 26
75 3 57.1916 52.6127 -10.5526 21
5 2 55.8761 50.134 -13.155 22
6102 3 48.8084 50.1491 0.410177 24
2637 1 57.4063 50.5822 -9.95607 20
3898 3 56.4592 77.3601 -4.66518 25
140 3 63.2395 58.0849 -14.3491 26
145 3 63.233 58.2554 -17.7437 23
1881 3 63.3346 58.541 -11.5878 23
12 3 63.4096 50.2918 -15.7124 25
135 3 63.5504 56.3341 -12.6588 22
11 2 64.7499 50.5026 -14.9127 21
13 3 64.1882 51.0608 -13.2984 21
14 2 69.1859 50.6499 -15.1588 19
15 3 68.0893 51.8073 -15.2575 20
16 3 69.0709 51.7544 -11.3595 17
120 1 65.0621 57.2207 -14.2049 25
121 1 64.4674 56.6951 -17.2067 25
123 1 67.1668 54.5186 -12.5947 25
125 1 64.5494 53.6875 -15.7546 27
127 2 64.7577 52.578 -12.627 21
129 2 66.8065 55.609 -15.7035 24
131 3 66.26 52.6262 -12.7549 20
132 3 65.926 57.7122 -12.4331 22
133 3 63.4147 55.2998 -15.99 22
137 3 65.3234 51.803 -15.5572 20
138 3 65.9539 56.9822 -15.8372 22
139 3 63.7536 53.4146 -13.5327 21
141 3 66.2441 54.5301 -16.8134 22
144 3 66.2387 55.0143 -14.3234 25
146 3 63.7013 52.7681 -17.5361 22
147 1 68.0717 52.0329 -13.1754 21
148 1 69.8993 57.8135 -14.0495 21
149 1 69.4348 56.9706 -16.7839 26
150 1 66.7903 52.5488 -16.7993 22
153 1 69.2894 53.8385 -15.5524 25
155 2 70.2818 53.964 -12.6727 23
156 2 67.5259 57.7416 -12.4654 26
157 2 71.6841 55.4676 -15.0554 28
159 3 71.3441 52.7495 -12.4711 24
160 3 70.7351 57.6665 -12.1629 24
161 3 68.3958 55.7137 -15.6698 27
163 3 68.0899 56.2338 -12.311 22
165 3 70.5956 51.4125 -15.3099 22
166 3 71.0137 56.8511 -15.3118 24
167 3 69.0064 53.6732 -13.5454 23
168 3 67.9748 58.1502 -13.9485 24
169 3 71.1975 54.3986 -16.1429 22
172 3 71.1128 54.8937 -13.6968 25
173 3 68.0839 58.4182 -17.3329 22
174 3 68.7835 53.1213 -17.4707 23
175 1 72.0096 51.3958 -13.7651 23
178 1 71.8076 52.3391 -16.6667 25
182 2 72.2658 57.843 -12.0308 25
1857 1 64.678 57.0575 -10.9575 27
1877 3 66.3497 54.7267 -10.6486 23
1882 3 64.2092 52.6354 -11.1213 21
1885 1 69.5955 56.4278 -10.9764 27
9190 3 70.8105 77.489 12.6997 22
1909 3 68.2531 58.4447 -11.2009 25
1910 3 69.8636 54.471 -11.3285 23
1914 1 71.1285 52.7896 -10.4939 25
1750 2 68.6155 51.6498 -9.88165 23
3650 1 72.4149 51.1381 -4.9596 23
42 1 47.813 61.3832 -17.8108 23
26 2 46.0027 60.8964 -15.9715 22
32 3 46.3189 60.12 -17.327 20
33 3 46.5343 60.1741 -14.6736 21
40 1 50.499 59.6802 -12.9342 27
46 2 50.491 60.5938 -16.1363 24
50 3 49.0181 60.6784 -16.4107 21
52 3 49.4458 61.3554 -13.149 24
58 3 51.2894 59.9086 -17.3303 23
59 3 51.0096 59.6204 -14.8894 22
78 3 53.8386 60.7964 -15.988 23
193 1 48.1333 64.7801 -13.3456 25
195 1 45.5912 63.9543 -16.0913 24
196 2 45.1735 63.6645 -13.1184 22
197 2 47.7048 65.9069 -16.279 26
199 3 46.6419 63.0029 -12.9863 25
200 3 46.8084 67.7322 -13.3852 25
201 3 46.6587 62.2534 -16.1931 21
202 3 47.1007 67.3091 -16.3648 27
203 3 47.0825 65.089 -17.5444 25
206 3 47.1659 64.8269 -15.1503 25
207 1 47.4754 61.1175 -13.0399 26
208 1 50.4176 67.0839 -14.7709 28
209 1 50.39 67.0003 -17.734 29
210 1 48.2711 63.1848 -15.8781 25
211 1 52.7135 64.7575 -13.1907 27
213 1 50.507 64.045 -16.0817 27
215 2 49.9986 62.8327 -13.0443 25
216 2 48.3143 67.8694 -13.2282 24
217 2 52.4846 65.9268 -16.2243 24
219 3 51.6108 62.6985 -13.0083 22
220 3 51.5043 67.8659 -13.0571 23
221 3 49.2482 65.9022 -16.1582 23
223 3 49.2108 66.4733 -13.2145 26
225 3 51.2836 61.9698 -15.8986 23
226 3 51.7155 67.346 -16.2287 25
227 3 49.429 63.5583 -14.4115 23
229 3 51.7436 65.12 -17.4003 24
232 3 51.8259 65.1794 -14.9371 24
234 3 49.328 63.1965 -17.6185 25
235 1 52.7579 62.1648 -14.5384 26
238 1 52.7121 61.8693 -17.517 27
244 2 53.0195 67.941 -13.0742 25
249 3 54.0533 66.0281 -16.1111 22
251 3 53.6429 66.4159 -13.0393 25
1768 3 46.3873 60.216 -11.6027 23
1794 3 51.0098 59.7055 -11.0735 22
1928 1 45.5447 66.8025 -12.4448 28
1939 3 47.0727 65.4286 -11.7143 23
1945 1 50.3263 67.1849 -11.5739 29
1946 1 47.4098 63.5465 -11.0161 23
1965 3 51.8149 65.0766 -11.366 24
1970 3 49.2807 63.577 -11.8316 23
1974 1 52.7357 62.3985 -11.3812 28
262 3 54.1144 63.4349 -17.6537 26
80 3 54.1161 61.3617 -13.0278 24
191 1 45.5026 68.2127 -16.1439 24
1938 3 46.8131 67.4955 -10.2814 25
1933 2 47.6145 66.1614 -10.4196 25
1953 2 52.4235 65.8661 -10.12 26
1957 3 49.1918 66.1164 -10.2913 24
1962 3 51.6908 67.3439 -10.1165 26
1762 2 45.8518 60.895 -10.2518 23
1937 3 46.4949 62.2513 -10.0204 23
1786 3 48.9843 60.7887 -9.98634 25
12458 3 63.4293 71.0651 26.1665 24
98 1 57.5518 59.1457 -16.0177 27
255 3 54.1166 63.5268 -14.2222 24
1998 3 54.2652 63.496 -11.5992 25
68 1 55.0557 59.7856 -12.8238 28
74 2 55.4308 60.8394 -15.9893 25
86 3 56.0975 60.2592 -17.3083 25
87 3 55.8568 59.7465 -14.8796 23
96 1 60.2342 59.7475 -12.5889 29
102 2 60.2114 60.7332 -15.7655 26
106 3 58.6486 60.9029 -15.8545 23
108 3 58.8914 61.3482 -12.8323 25
114 3 60.8688 59.9277 -17.0366 24
115 3 60.7779 59.8757 -14.5424 24
236 1 55.1184 66.9962 -14.5445 27
237 1 55.2008 67.043 -17.5386 27
239 1 57.4741 64.8084 -13.0237 28
241 1 55.1183 64.2195 -16.02 27
243 2 54.8902 62.9311 -12.9487 25
245 2 57.2667 65.8748 -16.0816 25
247 3 56.425 62.7472 -12.9491 22
248 3 56.286 67.6677 -13.0655 23
253 3 56.1855 62.1762 -15.7608 25
254 3 56.5351 67.3111 -16.0142 25
257 3 56.4946 65.2349 -17.3922 24
260 3 56.5977 65.1458 -14.8016 24
263 1 57.6485 62.0641 -14.3536 29
264 1 59.9071 66.9632 -14.5285 27
265 1 59.9564 66.9635 -17.3602 28
266 1 57.5958 61.8862 -17.3902 28
267 1 62.4515 64.6662 -12.8819 27
269 1 59.9649 64.1869 -15.7457 27
271 2 59.7381 62.8983 -12.7833 25
272 2 57.8661 67.8785 -12.9587 25
273 2 62.0443 65.8992 -15.8647 25
275 3 61.2514 62.5549 -12.7917 24
276 3 61.1878 67.6158 -13.0156 23
277 3 58.8093 65.9069 -15.9822 22
279 3 58.558 66.3985 -12.9721 25
281 3 60.8649 62.157 -15.7048 25
282 3 61.2663 67.304 -15.8941 25
283 3 59.0313 63.5157 -14.0559 23
285 3 61.3473 65.2241 -17.1572 25
288 3 61.3715 65.1181 -14.591 25
290 3 58.846 63.4759 -17.5501 24
291 1 62.4773 61.8743 -14.3593 28
294 1 62.2575 61.9607 -17.2332 28
300 2 62.7019 67.8249 -12.8915 25
1822 3 56.2551 60.1369 -11.231 24
1850 3 60.9812 60.1048 -10.8974 24
1973 1 55.0206 66.9538 -11.5737 28
1993 3 56.5363 65.0924 -11.2413 23
2001 1 59.9866 66.9245 -11.3811 28
2002 1 57.5897 62.1266 -11.3377 28
2021 3 61.4429 65.2384 -11.1565 23
2026 3 59.094 63.4151 -11.4715 25
2030 1 62.4554 61.8001 -11.1916 28
307 3 63.5154 66.3681 -12.8511 26
1990 3 56.5426 67.3418 -10.1206 26
1981 2 57.226 65.9098 -9.98731 25
2013 3 58.7958 65.8799 -9.98037 23
180 1 72.0989 59.3516 -15.0597 27
154 1 67.1623 59.0822 -15.6184 27
134 3 63.4192 60.7942 -15.7488 22
124 1 64.943 59.7271 -12.5133 27
130 2 65.0127 60.7454 -15.6184 26
136 3 63.7478 61.2348 -12.7314 26
142 3 65.6605 60.0366 -16.8641 25
143 3 65.5324 59.8393 -14.4412 24
152 1 69.6449 59.6715 -12.2313 25
158 2 69.7255 60.8593 -15.2968 25
162 3 68.1593 60.8518 -15.4335 25
164 3 68.6955 61.3475 -12.6056 24
170 3 70.453 60.2725 -16.6265 24
171 3 70.2877 59.723 -14.1985 25
292 1 64.8451 67.0293 -14.2813 30
293 1 64.6472 67.016 -17.3048 28
295 1 67.1397 64.8777 -12.7268 29
297 1 64.6715 64.1045 -15.6418 27
299 2 64.4622 62.8626 -12.6727 25
301 2 66.778 65.8943 -15.7054 25
303 3 65.9829 62.5339 -12.6333 25
304 3 65.8413 67.9486 -12.7257 23
305 3 63.5771 65.9662 -15.7996 22
309 3 65.6901 62.2011 -15.5131 25
310 3 66.1205 67.2953 -15.7969 25
311 3 63.7954 63.425 -13.983 23
313 3 66.0519 65.1048 -16.985 25
316 3 66.1246 65.159 -14.4408 25
318 3 63.69 63.3913 -17.3427 25
319 1 67.237 62.229 -14.1697 25
320 1 69.4702 67.1977 -14.0056 28
321 1 69.4366 67.1607 -17.0282 28
322 1 67.0737 61.7943 -17.1408 27
323 1 71.727 65.1091 -12.4436 28
325 1 69.3455 64.3171 -15.4498 28
327 2 69.2053 62.9459 -12.4984 25
328 2 67.378 68.1287 -12.6667 25
329 2 71.5547 66.0555 -15.4603 26
331 3 70.7631 62.9656 -12.4216 24
332 3 70.7047 67.9485 -12.4538 23
333 3 68.3095 66.0367 -15.6277 23
335 3 68.0738 66.5532 -12.5736 26
337 3 70.4003 62.2974 -15.1503 25
338 3 70.8666 67.5231 -15.5596 24
339 3 68.5097 63.6364 -13.7042 23
341 3 70.8513 65.2636 -16.6732 23
344 3 70.8115 65.365 -14.1752 24
346 3 68.4947 63.3509 -16.9585 25
347 1 71.9613 62.7905 -14.046 26
350 1 71.7134 61.9959 -16.7931 25
354 2 72.2232 68.1884 -12.3048 26
1878 3 65.8085 60.1902 -10.7689 23
1906 3 70.6697 60.4624 -10.7261 23
2029 1 64.7416 67.0616 -11.2229 28
2049 3 66.1071 65.2646 -10.9841 25
2054 3 63.6944 63.4297 -11.3948 24
2057 1 69.4528 67.2156 -10.9721 28
2058 1 67.1835 61.823 -11.0596 28
2077 3 70.7743 65.3387 -10.6946 24
2082 3 68.4858 63.3871 -11.1613 24
2086 1 71.784 62.2311 -10.8569 26
194 1 45.5595 69.4177 -13.5371 26
198 2 45.8709 71.0413 -16.5807 24
204 3 46.5417 70.3026 -17.8163 23
205 3 46.4158 70.1789 -15.3348 22
212 1 50.4484 69.7201 -13.4232 26
214 1 48.1565 69.2097 -16.2456 26
218 2 50.6203 70.9904 -16.4844 25
222 3 48.9999 71.1043 -16.471 22
224 3 49.1777 71.3336 -13.4282 25
228 3 48.9475 68.6043 -14.5105 23
230 3 51.3335 70.3424 -17.7332 24
231 3 51.1972 70.2881 -15.1941 24
233 3 49.0695 68.5133 -17.932 24
242 1 52.794 69.2076 -16.0573 26
250 3 53.8603 71.0834 -16.3453 23
256 3 53.6718 68.5449 -14.3347 25
261 3 53.7252 68.3605 -17.7889 24
363 1 45.3725 76.8083 -14.993 28
365 1 48.1801 74.6437 -13.3281 29
367 1 45.4764 74.1024 -16.7151 25
369 2 47.574 75.7776 -16.4682 27
371 3 46.6554 73.0051 -13.396 24
373 3 46.5219 72.4506 -16.4613 22
375 3 46.8539 75.1399 -17.7523 24
378 3 46.7479 74.9536 -15.1505 24
379 1 47.9286 71.9372 -14.9785 28
380 1 50.1857 76.8754 -15.1027 28
381 1 50.3414 76.9053 30.0628 29
382 1 47.8649 71.9331 30.081 27
383 1 52.5173 74.799 -13.4961 28
385 1 50.2393 74.167 -16.4306 28
387 2 49.9972 72.7482 -13.4104 25
389 2 52.3567 75.918 -16.5597 25
391 3 51.527 72.688 -13.4414 24
393 3 49.0951 75.9057 -16.508 23
395 3 48.9594 76.3762 -13.5644 27
397 3 51.2839 72.436 -16.3709 25
399 3 49.2803 73.4944 -14.6418 25
401 3 51.6402 75.2274 -17.8201 24
404 3 51.6251 75.2952 -15.2765 24
406 3 49.3538 73.3856 -12.1258 24
407 1 52.784 71.8932 -14.9032 28
410 1 52.666 71.9597 -17.9073 28
421 3 53.9167 76.0536 -16.5612 23
423 3 53.7071 76.4208 -13.5529 25
434 3 54.0846 73.4389 -11.9542 25
1934 2 45.3578 71.6975 -11.3387 24
1940 3 46.2207 70.545 -11.9885 23
1966 3 51.3325 70.3248 -11.7181 25
1969 3 48.789 68.4979 -11.8323 26
1997 3 53.7639 68.5349 -11.8272 25
2111 3 47.0158 75.1247 -11.7871 26
2117 1 50.3362 76.9046 -12.0894 29
2118 1 47.9229 71.8165 -11.8464 26
2125 2 52.3915 75.868 -10.5165 25
2129 3 49.1757 75.9479 -10.5917 23
2137 3 51.6883 75.1808 -11.7645 24
2146 1 52.7521 71.9621 -11.8791 27
2157 3 53.9028 75.9919 -10.5676 24
2100 1 45.4549 76.7042 -12.0212 26
368 2 45.7129 74.085 -14.0013 27
374 3 46.8748 77.1841 -16.3755 27
398 3 51.6143 77.3775 -16.5676 25
2134 3 51.6138 77.3834 -10.5658 26
364 1 45.4744 76.6618 -18.0299 27
2103 1 45.7063 74.2206 -10.388 27
2105 2 47.6794 75.8446 -10.5378 25
2121 1 50.3244 74.0772 -10.4332 28
2133 3 51.362 72.4219 -10.3639 25
2110 3 46.8659 77.2565 -10.5446 27
427 3 54.1407 73.6214 -14.6559 25
1954 2 50.6528 70.9941 -10.4077 26
1958 3 49.0732 70.9275 -10.3764 22
1986 3 53.9408 70.9812 -10.3067 22
2109 3 46.4699 72.4468 -10.4813 25
1927 1 45.4019 69.083 -10.1266 25
252 3 54.0963 71.402 -13.4355 25
289 3 58.5247 68.4542 -17.6485 25
240 1 55.2075 69.7209 -13.2573 27
246 2 55.4364 70.9771 -16.3445 25
258 3 56.0506 70.2481 -17.6091 26
259 3 56.0454 70.2597 -15.0478 23
268 1 60.0621 69.6969 -13.1672 27
270 1 57.6906 69.1818 -15.9668 26
274 2 60.2362 70.9269 -16.2426 25
278 3 58.6403 70.9436 -16.2073 22
280 3 58.9108 71.4168 -13.236 25
284 3 58.6028 68.5303 -14.2643 24
286 3 60.8552 70.3342 -17.6109 24
287 3 60.8838 70.2412 -14.9694 25
298 1 62.3485 69.1647 -15.8849 27
408 1 55.0861 76.8895 -15.1056 28
411 1 57.4677 74.7076 -13.5911 26
413 1 55.0454 74.2037 -16.4227 28
415 2 54.8053 72.9851 -13.3308 25
417 2 57.1238 75.901 -16.5511 25
419 3 56.3544 72.8901 -13.3537 22
425 3 56.0961 72.465 -16.397 25
429 3 56.4334 75.2283 -17.847 24
432 3 56.4103 75.2983 -15.2527 24
435 1 57.4346 71.9954 -14.8339 29
436 1 59.9097 77.0045 -15.2212 29
438 1 57.5978 72.0799 -17.8143 28
439 1 62.2044 74.7967 -13.6989 27
441 1 59.8048 74.1497 -16.2863 26
443 2 59.5835 72.9319 -13.2633 25
445 2 61.9969 75.9677 -16.7591 25
447 3 61.1077 72.7839 -13.285 24
449 3 58.7293 76.0093 -16.5143 22
451 3 58.5813 76.4145 -13.6378 26
453 3 60.8649 72.434 -16.1696 25
455 3 58.8338 73.5148 -14.6132 25
460 3 61.3359 75.2806 -15.4789 26
462 3 58.9139 73.5537 -17.9985 25
463 1 62.3071 71.9541 -14.658 28
466 1 62.2243 71.9772 -17.6813 27
1994 3 56.1449 70.2689 -11.6136 24
2022 3 60.9907 70.2124 -11.4336 23
2025 3 58.5111 68.3915 -11.691 26
2145 1 55.0568 77.0201 -12.1323 29
2153 2 57.1608 75.9703 -10.7443 25
2165 3 56.3749 75.3696 -11.9785 25
2173 1 59.8906 76.9695 -12.2118 28
2174 1 57.5926 71.9252 -11.7517 28
2181 2 61.9639 75.9096 -10.791 25
2185 3 58.6772 76.083 -10.6551 23
2193 3 61.3181 75.293 -12.0561 26
2198 3 58.8645 73.5741 -11.9725 25
2202 1 62.337 71.918 -11.5903 27
5232 2 45.1173 52.4775 4.81047 21
2149 1 55.0398 74.1786 -10.3565 26
2053 3 63.2912 68.465 -11.6133 25
479 3 63.3627 76.5567 -13.7993 26
1982 2 55.514 70.889 -10.3299 25
2010 2 60.3035 70.8942 -10.1649 25
2014 3 58.7139 70.9391 -10.1708 22
2161 3 56.2775 72.3648 -10.2393 27
2177 1 59.7512 74.1082 -10.2771 27
2189 3 60.8874 72.3747 -10.1774 25
317 3 63.2125 68.477 -17.5682 25
2006 1 57.6648 69.1125 -9.97927 26
8036 3 45.193 55.5186 10.3224 25
409 1 55.1465 76.9445 30.06 28
457 3 61.2535 75.3795 30.1781 27
13043 1 47.1229 50.0447 24.5198 23
312 3 63.3171 68.4894 -14.2078 24
306 3 63.4305 71.0532 -16.0401 24
296 1 64.843 69.8387 -12.9337 29
302 2 65.0056 70.9676 -15.9183 25
308 3 63.6488 71.4585 -13.1212 26
314 3 65.6637 70.3314 -17.222 24
315 3 65.6657 70.2034 -14.7318 23
324 1 69.5668 69.9078 -12.5085 27
326 1 67.07 69.2271 -15.7797 28
330 2 69.8405 70.9549 -15.5997 25
334 3 68.2402 71.0936 -15.7392 25
336 3 68.3074 71.417 -12.7666 25
340 3 68.0478 68.6238 -14.0739 24
342 3 70.5725 70.3036 -16.8359 24
343 3 70.4739 70.2247 -14.333 22
345 3 68.1123 68.6897 -17.375 24
352 1 71.9714 69.364 -15.5059 27
464 1 64.6935 77.251 -15.4266 28
467 1 66.8965 74.9001 -13.9627 27
469 1 64.4789 74.1533 -16.0426 26
471 2 64.3667 72.9632 -12.9644 26
473 2 66.6922 76.0688 -17.0137 25
475 3 65.8861 72.7806 -13.0045 25
477 3 63.5122 76.1469 -16.6899 24
481 3 65.6873 72.4095 -15.8644 24
483 3 63.7174 73.6713 -14.2927 24
488 3 66.0691 75.3539 -15.7305 25
490 3 63.6295 73.5064 -17.7118 25
491 1 67.0258 71.9228 -14.3579 28
492 1 69.3304 77.2201 -15.7682 28
494 1 66.9731 71.9592 -17.3083 28
495 1 71.7447 74.9392 -14.2097 26
497 1 69.249 74.283 -15.7367 24
499 2 69.055 72.9522 -12.6627 26
501 2 71.3661 76.0953 -17.2686 27
503 3 70.548 72.5916 -12.5392 25
505 3 68.2171 76.3049 -17.0895 24
507 3 68.1524 76.5451 -14.2573 22
509 3 70.4705 72.4197 -15.412 22
511 3 68.4676 73.712 -13.9716 23
516 3 70.8728 75.4107 -15.9505 25
518 3 68.2873 73.5231 -17.333 26
519 1 71.8097 71.8616 -13.8312 28
522 1 71.8108 72.1926 -16.9154 31
2050 3 65.7214 70.3067 -11.1469 24
2078 3 70.5058 70.3727 -10.8081 24
2081 3 68.111 68.6774 -11.4281 23
2201 1 64.5868 77.1383 -12.3052 28
2209 2 66.6902 76.047 -11.0557 26
2213 3 63.5174 76.0299 -10.7143 23
2221 3 66.0083 75.4741 -12.3551 26
2226 3 63.7436 73.4451 -11.6379 27
2229 1 69.3977 77.0064 -12.729 29
2230 1 67.0605 72.0175 -11.232 30
2237 2 71.4826 76.046 -11.3362 26
2241 3 68.226 76.3029 -11.1931 24
2249 3 70.7633 75.5104 -12.6401 26
2254 3 68.4025 73.4673 -11.3563 26
2258 1 71.8311 72.0886 -10.834 28
2205 1 64.565 74.2336 -9.94362 25
2042 3 63.4291 70.9856 -10.028 24
2217 3 65.6803 72.4008 -9.82472 26
2038 2 64.99 70.9577 -9.91257 25
2233 1 69.2453 74.109 -9.68368 25
10469 3 49.8123 50.0689 19.4364 24
2627 1 47.9565 51.242 -9.83921 26
1739 3 48.0654 53.197 -10.0474 23
1802 1 53.2103 51.6935 -9.6909 22
1740 3 48.4849 50.6539 -5.78488 20
1742 3 52.6592 55.0179 -8.36494 21
1743 3 53.7041 50.7227 -8.00815 21
1757 1 48.3617 55.0264 -9.25434 25
1760 2 45.4869 53.8714 -7.97305 22
1764 3 46.8366 57.7282 -7.53599 22
1765 3 46.1929 50.4213 -9.23062 27
1770 3 46.3145 54.8465 -8.89171 23
1873 3 65.5923 50.0261 -8.30821 19
1772 1 50.9367 56.0774 -8.11935 28
1775 1 52.8998 54.5127 -6.5338 23
1779 2 50.4762 52.8289 -8.20284 27
1780 2 48.3821 57.7995 -7.64034 26
1781 2 52.8012 55.6651 -9.74799 27
1783 3 51.5377 52.9181 -7.07459 22
1784 3 51.6262 57.6119 -6.83667 24
1787 3 48.8862 56.1649 -7.49589 23
1790 3 51.9667 56.9993 -9.74782 24
1791 3 51.2141 52.1341 -9.56149 24
1792 3 49.0259 58.1489 -9.0373 24
1796 3 50.1783 54.2465 -8.74316 23
1799 1 52.5609 51.3617 -6.51861 23
1808 2 53.1712 57.8603 -6.81634 26
1815 3 54.0164 56.4131 -6.65314 23
1820 3 53.7372 58.5039 -8.09111 24
3475 3 46.9426 52.6501 -4.23355 22
3495 1 45.2197 52.0619 -5.1918 24
3497 2 48.7264 55.355 -6.01353 25
3502 3 47.1685 55.3683 -5.63727 23
3503 3 46.1209 52.7931 -7.04103 22
3507 1 48.5553 52.0872 -3.26875 20
3509 1 50.5329 57.8237 -5.12584 23
3510 1 47.7046 52.492 -6.02469 21
3513 1 50.8999 53.3611 -4.95639 24
3517 2 52.3881 55.8143 -3.5981 26
3521 3 49.6337 56.1219 -5.10909 23
3525 3 49.4949 50.5279 -2.57322 25
3526 3 51.9321 57.319 -3.71455 23
3527 3 49.7755 53.698 -3.30181 22
3528 3 48.8967 58.2129 -3.3173 21
3529 3 52.2127 54.8518 -4.86064 26
3532 3 51.5385 55.2715 -2.32538 21
3533 3 48.8995 58.5577 -6.31657 22
3534 3 49.158 53.83 -6.19557 22
3538 1 53.5238 51.6278 -3.52028 22
3542 1 53.0946 59.1841 -3.77238 28
3549 3 54.008 55.7913 -3.3088 24
3561 3 53.7947 58.4844 -5.49262 23
3492 1 45.5997 56.6225 -5.3914 26
3493 1 46.7459 54.5488 -3.87733 25
3516 2 48.0138 57.4323 -2.19949 21
3523 3 47.6444 56.0414 -2.87799 23
1905 3 72.2672 54.3924 -10.3099 25
4370 3 52.1069 51.6399 -4.76491 25
1789 3 49.218 51.7577 -7.91131 21
1755 1 46.008 56.7588 -8.90647 25
1806 1 52.7533 59.081 -9.89365 29
3508 1 50.655 58.2598 -2.39109 25
1738 2 49.291 50.3353 -7.1564 22
513 3 70.592 75.5366 29.5758 28
2633 3 50.8307 50.199 -7.02308 24
1763 3 45.3869 50.2378 -5.89406 20
1854 3 60.3786 52.9159 -9.9299 21
1841 3 58.944 55.721 -9.92373 27
4373 1 56.2911 50.3185 -4.11686 21
1834 1 57.7316 59.1481 -10.0664 27
1830 1 57.4551 52.638 -8.43734 24
1813 3 54.3856 56.0845 -9.72353 24
1819 3 54.664 53.4299 -6.66566 23
3562 3 55.4404 52.9828 -4.21806 21
1741 2 55.1094 50.3865 -7.36885 19
1744 2 60.1542 51.3592 -9.5972 24
1745 3 59.1123 51.4292 -8.41837 23
1746 3 59.5834 50.4249 -5.1715 23
1800 1 55.3937 57.8922 -8.8449 26
1803 1 57.8248 54.591 -6.65391 25
1805 1 54.9151 54.9935 -7.85598 23
1807 2 55.6454 52.6706 -5.72185 23
1809 2 57.4357 55.6879 -9.77471 26
1811 3 57.097 52.4951 -6.4002 22
1812 3 56.3827 57.8054 -7.02969 24
1817 3 56.2436 50.9748 -8.30725 21
1818 3 56.8937 57.1941 -9.90265 25
1824 3 56.9417 54.7065 -8.48618 25
1827 1 58.3799 50.7678 -6.64546 29
1828 1 60.0632 56.9656 -8.36302 26
1831 1 62.6876 54.5544 -6.50762 26
1833 1 60.7715 53.3445 -7.94893 24
1835 2 60.0677 53.6703 -4.91397 28
1836 2 57.9734 57.9797 -6.95269 25
1837 2 62.1298 55.7146 -9.79859 26
1839 3 61.7022 52.1593 -6.8719 21
1840 3 61.2423 57.6933 -6.81578 23
1843 3 58.6445 56.4678 -6.98034 25
1845 3 61.6725 50.8779 -9.51975 23
1846 3 61.3408 57.0088 -9.7913 25
1847 3 59.5939 53.6732 -6.45751 25
1848 3 58.7092 58.5468 -8.22896 24
1852 3 61.7822 54.9812 -8.35819 23
1855 1 62.3878 50.4699 -7.6328 23
1864 2 62.7986 57.7843 -6.81184 25
3480 2 59.4243 51.0384 -3.71285 25
3481 3 57.8754 51.3309 -3.55087 23
3484 3 63.0806 50.9314 -3.47301 25
3536 1 55.2451 56.8951 -2.3426 26
3537 1 55.356 57.0975 -5.42524 28
3541 1 54.8086 54.0121 -2.5704 23
3545 2 57.3509 55.8605 -3.97678 27
3553 3 54.8915 50.2745 -2.72152 27
3554 3 56.4365 57.3025 -3.797 27
3557 3 56.7253 55.3856 -5.33629 25
3560 3 56.9232 55.0684 -2.67927 22
3564 1 60.1771 57.9509 -2.54597 25
3565 1 59.9512 57.0688 -5.29773 29
3566 1 57.1991 52.9459 -2.82034 26
3569 1 59.3705 54.9912 -2.20633 26
3573 2 62.0555 55.7992 -3.67116 28
3577 3 58.8041 56.3878 -3.83482 26
3581 3 60.6477 52.3862 -4.16098 24
3582 3 61.4252 57.2493 -3.86763 25
3585 3 61.2993 54.765 -4.82114 25
3588 3 61.2253 55.1117 -2.44933 25
3589 3 58.5446 58.5784 -5.62361 24
3590 3 58.756 53.8797 -4.11746 25
3594 1 61.9777 51.0014 -5.30401 24
3591 1 61.8046 52.2415 -2.50575 26
2639 3 55.1891 51.0683 -5.87567 20
4381 3 60.1264 50.6623 -2.36089 23
3598 1 62.6361 59.115 -3.91731 26
3570 1 57.4583 59.15 -3.84952 26
1862 1 62.474 59.1283 -9.8325 27
7454 3 70.796 77.4596 6.56375 25
1886 1 65.3105 51.5288 -9.58737 23
1871 3 63.4737 56.2806 -6.63747 24
1876 3 63.3997 58.2223 -8.22775 25
3617 3 63.4848 58.4617 -5.60425 23
1749 3 64.016 50.8608 -6.21897 23
1751 3 67.1703 51.9861 -9.44652 25
1752 3 68.7674 51.1559 -5.99676 21
1856 1 64.7819 56.7442 -8.09706 27
1859 1 67.1053 54.371 -6.53474 26
1861 1 64.8281 53.9945 -9.49636 24
1863 2 64.5931 52.2926 -6.63074 21
1865 2 66.8771 55.6898 -9.52088 24
1867 3 66.1915 52.3511 -6.38124 20
1868 3 65.9194 57.5358 -6.59788 22
1869 3 63.692 55.6424 -9.8143 22
1874 3 66.0875 57.1375 -9.68208 24
1875 3 64.2907 52.5693 -8.13681 24
1880 3 66.1537 55.0493 -8.24696 25
1883 1 67.2549 50.8202 -7.45143 23
1884 1 69.8857 57.8938 -8.36208 25
1889 1 69.3697 54.9654 -7.86883 25
1891 2 69.513 52.5208 -5.63204 21
1892 2 67.5042 57.6809 -6.49449 26
1893 2 71.9821 55.5269 -9.22864 28
1895 3 71.1374 52.2902 -5.85502 22
1896 3 70.7336 57.8218 -6.40981 24
1897 3 68.4327 55.7937 -9.38351 23
1899 3 68.2569 56.1835 -6.52454 24
1901 3 69.7013 52.3302 -8.97239 22
1902 3 71.0846 56.7974 -9.32971 24
1903 3 68.9607 53.563 -6.65671 23
1904 3 68.0548 58.3436 -7.79325 24
1908 3 71.3535 54.7145 -7.98871 26
1911 1 71.3919 52.6368 -7.92442 20
3483 2 64.4108 50.7267 -2.70659 25
3487 3 67.3853 50.8316 -1.79761 22
3593 1 64.7618 56.7867 -5.02248 27
3597 1 64.6841 53.9116 -3.88705 26
3601 2 66.9635 55.717 -3.5369 25
3605 3 63.5669 55.6776 -3.74601 22
3609 3 65.4553 51.9577 -3.41 22
3610 3 66.1836 57.1178 -3.61961 22
3613 3 66.382 54.8366 -4.73776 26
3616 3 66.4069 54.9623 -2.2557 23
3618 3 63.9649 53.3688 -5.64609 28
3621 1 69.5713 56.6878 -4.93912 27
3622 1 67.0107 51.7064 -4.70901 22
3625 1 69.6102 54.243 -2.90137 24
3626 1 67.2146 59.0431 -3.43493 26
3629 2 71.7601 55.8059 -3.39533 24
3633 3 68.5337 55.8057 -3.43235 25
3637 3 69.558 50.4404 -3.07274 27
3638 3 71.0636 57.2328 -3.45827 24
3641 3 71.0216 55.037 -4.61645 21
3645 3 68.1616 58.3619 -5.23995 24
3646 3 68.793 52.8258 -4.20627 23
3592 1 64.9827 56.82 -2.00815 25
1890 1 67.111 59.0551 -9.45669 26
3647 1 71.1799 51.1391 -2.08649 25
1918 2 72.2697 58.0273 -6.13594 25
3619 1 66.9514 52.8391 -2.16779 25
7398 3 61.3025 77.3425 7.28423 25
3612 3 63.403 58.2968 -2.08297 24
3620 1 69.8431 57.8156 -2.04456 24
4369 3 51.472 49.9484 -0.879788 22
1931 1 45.6585 66.5307 -8.55927 27
1949 1 50.256 64.2391 -10.12 29
1985 3 53.9971 65.9332 -10.1094 23
3514 1 48.0346 59.4536 -4.56015 26
1758 1 45.8305 59.4166 -7.17815 25
1769 3 46.274 60.0066 -9.01804 23
1776 1 50.5084 59.7566 -6.93839 27
1782 2 50.5471 60.736 -9.9409 23
1788 3 49.3332 61.3924 -7.17911 25
1795 3 51.3115 60.0953 -8.6878 25
1814 3 53.8503 61.0159 -10.0937 23
1929 1 47.9642 64.7286 -7.40991 25
1932 2 45.193 63.3941 -7.33707 25
1935 3 46.6164 62.7582 -7.21872 24
1936 3 46.8426 67.6028 -7.23105 24
1942 3 47.0852 65.1273 -9.22975 23
1943 1 47.8647 61.7684 -8.5567 25
1944 1 50.3523 66.8497 -8.63141 29
1947 1 52.6402 64.7174 -7.12297 27
1951 2 50.0437 62.8766 -7.14228 26
1952 2 48.397 67.9015 -7.1192 26
1955 3 51.5405 62.6867 -7.09644 23
1956 3 51.6075 67.7294 -7.1454 24
1959 3 49.0852 66.3404 -7.1133 26
1961 3 51.2275 62.1973 -10.0759 24
1963 3 49.3688 63.5438 -8.45258 25
1968 3 51.6963 65.2459 -8.83846 25
1971 1 52.7613 61.9271 -8.53487 28
1980 2 53.1541 67.924 -7.11344 25
1987 3 53.7808 66.3358 -7.14205 25
3498 2 45.9211 61.0293 -4.24747 23
3504 3 46.4775 60.4167 -5.55949 24
3505 3 46.6289 60.166 -3.06467 23
3518 2 50.6034 60.9038 -3.90932 27
3522 3 49.0664 61.0832 -4.10813 23
3530 3 51.2052 59.9434 -5.10328 22
3531 3 51.1936 60.1405 -2.6341 26
3550 3 53.8502 61.0472 -3.9389 24
3663 1 45.6668 66.5751 -2.67165 27
3664 1 45.9174 67.8931 -5.42104 25
3667 1 45.6815 64.1101 -4.51377 27
3669 2 47.7799 65.8082 -4.26178 26
3673 3 46.5359 62.379 -4.11663 25
3674 3 47.1231 67.2475 -4.12664 27
3675 3 47.1607 65.0398 -5.51068 26
3678 3 47.1132 65.0336 -2.98745 26
3679 1 47.8118 62.0739 -2.56294 27
3680 1 50.3802 66.8673 -2.63023 28
3681 1 50.5294 67.017 -5.65029 28
3682 1 47.8629 62.2343 -5.7079 28
3685 1 50.3269 64.1599 -4.16434 28
3689 2 52.4888 65.8755 -4.15658 26
3693 3 49.3227 65.9326 -4.00659 23
3697 3 51.311 62.298 -4.09325 26
3698 3 51.7561 67.2897 -4.01287 26
3701 3 51.7775 65.1945 -5.41911 25
3704 3 51.9187 64.8949 -2.94251 23
3706 3 49.353 63.4826 -5.86343 25
3707 1 52.676 62.9137 -2.85936 25
3710 1 52.7925 61.9463 -5.53527 28
3721 3 54.0299 65.8491 -4.03224 23
3733 3 53.8005 68.3774 -5.78093 24
1991 3 54.0928 63.4693 -8.29906 23
3699 3 49.4008 63.4271 -2.36417 25
1816 3 54.076 61.3355 -7.01439 25
3734 3 54.1641 63.4926 -5.70442 25
1964 3 49.0713 68.5012 -8.3974 24
3705 3 48.9406 68.4697 -5.81558 24
1804 1 55.3646 59.8173 -6.96865 29
1810 2 55.4707 60.8865 -10.0255 26
1823 3 55.9394 59.8231 -8.83576 24
1832 1 60.0697 59.7278 -6.73382 26
1838 2 60.2914 60.8501 -9.67444 25
1842 3 58.7827 60.9817 -9.76199 23
1844 3 58.8744 61.3491 -6.92333 25
1851 3 61.0321 60.1776 -8.41869 24
1972 1 55.1053 67.0125 -8.54902 29
1975 1 57.5422 64.6176 -7.02258 27
1977 1 55.1559 64.2773 -9.89838 28
1979 2 54.8619 62.8888 -7.0697 25
1983 3 56.369 62.6591 -7.00512 24
1984 3 56.3191 67.7277 -7.06866 23
1989 3 56.2459 62.214 -9.79199 27
1996 3 56.4612 65.2903 -8.69847 24
1999 1 57.7022 61.9848 -8.48037 29
2000 1 60.0426 67.0346 -8.35039 29
2003 1 62.2317 64.7465 -6.92357 28
2005 1 59.9789 64.2442 -9.82993 27
2007 2 59.6632 62.8804 -6.81155 25
2008 2 57.8522 67.7678 -6.9666 25
2009 2 62.1068 65.992 -9.87221 25
2011 3 61.1411 62.6173 -6.72061 24
2012 3 61.1246 67.73 -6.90363 23
2015 3 58.6325 66.3369 -6.98734 26
2017 3 61.0608 62.3145 -9.69583 26
2018 3 61.3168 67.384 -9.92281 25
2019 3 59.0343 63.5022 -8.12118 24
2024 3 61.3492 65.2637 -8.5923 24