ITEM: TIMESTEP
2500
ITEM: NUMBER OF ATOMS
5600
ITEM: BOX BOUNDS xy xz yz pp pp pp
0	7.1235	0
0	201.985	2.3745
0	119.584	0
ITEM: ATOMS id type element xu yu zu q Q_1 Q_2 Q_3 Q_4 Q_5 Q_6 Q_7 Q_8 Q_9 Q_10 Q_11 Q_12 Q_13 Q_14 Q_15 Q_16 Q_17 Q_18 Q_19 Q_20 Q_21
1 1 Mg -1.40555 48.7718 -0.676873 1.2 1 0.248719 0.074255 0.0212324 0.0278415 0.00716865 0.015381 0.00569429 0.0178538 0.0056827 0.0230791 0.0083703 0.0253885 0.00895654 0.0291742 0.0104131 0.0259767 0.00889412 0.0227953 0.0091276 0.0264639
2 1 Mg 2.88613 51.7852 1.86492 1.2 1 0.176302 0.0596399 0.00818632 0.0185639 0.00249448 0.0112572 0.00327962 0.0187469 0.00516419 0.0206866 0.00443732 0.0259009 0.00461109 0.0277275 0.00650933 0.0284966 0.00764492 0.0221872 0.0070665 0.0308836
3 2 Si 0.87333 50.7954 0.0470054 2.4 1 0.198337 0.0642021 0.012279 0.0212011 0.00401395 0.0119328 0.00379158 0.0170284 0.00514516 0.0214224 0.00526153 0.0258494 0.00571943 0.0285527 0.00666276 0.0261918 0.00696349 0.020798 0.0065753 0.0274315
4 3 O 1.92438 49.6786 0.395475 -1.2 1 0.226999 0.072225 0.0160774 0.0246961 0.00448065 0.0129374 0.00386721 0.0183321 0.00575108 0.0234174 0.0071276 0.0261897 0.00713145 0.0296689 0.00969598 0.0275402 0.00920608 0.0231946 0.00822205 0.0281635
5 3 O -1.30598 53.7869 1.44586 -1.2 1 0.133645 0.0469241 0.00308327 0.0141249 0.00138767 0.00965506 0.00271067 0.0181552 0.00402164 0.0177408 0.00289158 0.0253247 0.00349442 0.0244608 0.00338814 0.0283193 0.00661578 0.0206988 0.00527233 0.0320278
6 3 O -0.0394834 50.265 -1.12162 -1.2 1 0.20638 0.0672948 0.0127325 0.0224306 0.00512965 0.0125076 0.00491076 0.0177342 0.00432006 0.0221144 0.00592515 0.0252866 0.00597742 0.0292573 0.00736468 0.0267463 0.00830834 0.0217962 0.00732363 0.0268862
7 1 Mg -2.1568 59.5847 3.13687 1.2 1 0.0222179 0.0123912 0.00516814 0.00509274 0.0016687 0.00588315 0.00220101 0.0210626 0.00209443 0.0107965 0.0020466 0.0262304 0.00255793 0.0221806 0.00485763 0.0325121 0.00437645 0.0226905 0.0049618 0.0451211
8 3 O -0.032464 50.9446 1.48325 -1.2 1 0.190609 0.0646151 0.00914356 0.0198163 0.00240035 0.0110328 0.00357556 0.0182269 0.00555002 0.0215466 0.00566418 0.0255306 0.00413512 0.0286067 0.00676233 0.0282267 0.00797908 0.0219409 0.00752035 0.0294391
9 1 Mg -1.91824 56.6078 4.32471 1.2 1 0.0668387 0.0315928 0.00690344 0.00822322 0.00224372 0.00663183 0.00266082 0.0215314 0.00283563 0.0141052 0.00269485 0.0265299 0.00338452 0.0232983 0.00511904 0.0315727 0.00470316 0.0228602 0.00521838 0.0412469
10 2 Si 0.553344 58.5416 4.62851 2.4 1 0.0307915 0.0175476 0.00710937 0.00604729 0.00162784 0.00661152 0.00302431 0.0215489 0.00251944 0.0108037 0.00339575 0.0253148 0.00272709 0.022414 0.00546323 0.0314574 0.00490837 0.0236833 0.00481453 0.0449501
11 3 O -1.0408 58.6434 4.60704 -1.2 1 0.0298681 0.0167505 0.0068188 0.0056474 0.00146884 0.00608754 0.00331655 0.0214434 0.00267083 0.0112078 0.00244773 0.0263052 0.00263852 0.0217361 0.00466074 0.0319047 0.00507598 0.023042 0.00502495 0.0449803
12 3 O 1.69155 54.6304 4.57061 -1.2 1 0.110815 0.0444274 0.00250494 0.0131422 0.00159925 0.00868708 0.00288666 0.0209475 0.00357303 0.0173046 0.00248461 0.0263732 0.00410342 0.0247755 0.00390037 0.0305357 0.00626873 0.023358 0.00594067 0.0382614
13 3 O 1.1378 57.8282 3.3179 -1.2 1 0.0423058 0.0219454 0.00703301 0.00668618 0.00185509 0.00604297 0.00231019 0.0213509 0.00261295 0.0125385 0.00247482 0.025869 0.00302102 0.023067 0.0049062 0.0318048 0.00450734 0.0222967 0.0050671 0.0426419
14 3 O 1.21892 58.0134 5.95712 -1.2 1 0.0404374 0.0225893 0.00761579 0.00561572 0.00184999 0.00610551 0.00293963 0.022327 0.00248573 0.0115217 0.00346954 0.0263954 0.00264278 0.021458 0.00563077 0.0317565 0.00497044 0.0234182 0.00490972 0.0442756
15 1 Mg 0.259716 54.3644 3.05196 1.2 1 0.116549 0.0453365 0.0024041 0.0129249 0.00142987 0.00884139 0.00221112 0.0190351 0.0035814 0.0174955 0.00292423 0.0264319 0.00429969 0.0235128 0.0043081 0.0287769 0.00601702 0.0212621 0.00513036 0.0341812
16 1 Mg 0.69757 50.567 3.19433 1.2 1 0.211414 0.0685968 0.013731 0.0224193 0.00332472 0.0128781 0.00451892 0.0191241 0.00519901 0.0222996 0.00537987 0.0260489 0.00506601 0.0299045 0.00751158 0.0287365 0.00930132 0.0234845 0.0084468 0.0320206
17 2 Si 2.44457 53.1818 4.4774 2.4 1 0.150251 0.0553707 0.00381679 0.0167507 0.00200338 0.0101288 0.00392379 0.0201254 0.00424055 0.0192134 0.00395882 0.0263673 0.0050614 0.0265705 0.00569775 0.0309298 0.00626965 0.023579 0.00635397 0.0354134
18 3 O -0.778765 53.5335 4.49247 -1.2 1 0.132357 0.0514109 0.00161313 0.0146076 0.00147103 0.00880505 0.00303691 0.0201557 0.00465878 0.0185413 0.002881 0.0269755 0.00480086 0.0262215 0.00482845 0.0306791 0.0064737 0.0229944 0.00594841 0.036379
19 3 O 2.54332 49.6596 3.27164 -1.2 1 0.228295 0.072724 0.0156354 0.0244718 0.00433645 0.0140617 0.00495691 0.0197004 0.00555867 0.0235674 0.00667432 0.0262872 0.00646766 0.0309763 0.0103308 0.0297577 0.01154 0.025406 0.00961328 0.0314589
20 3 O 1.84146 52.4809 3.24596 -1.2 1 0.160709 0.0568954 0.00533248 0.0167304 0.00222933 0.00992987 0.00350733 0.0196734 0.00439402 0.0202408 0.00309074 0.0261381 0.0044101 0.027218 0.00524346 0.0292554 0.00750017 0.0227471 0.00627535 0.0330507
21 1 Mg 0.0584975 54.439 -0.139732 1.2 1 0.112993 0.0431113 0.00148334 0.0118438 0.00109522 0.00795879 0.00313548 0.0182918 0.00428807 0.01752 0.0035838 0.0254179 0.00425714 0.0245558 0.00346517 0.0281538 0.00620199 0.0198527 0.00637651 0.032442
22 3 O 1.84627 52.2733 5.79484 -1.2 1 0.164135 0.0599732 0.00494774 0.0182379 0.00177177 0.0110113 0.00369036 0.0204762 0.00401334 0.0203543 0.00341408 0.0270455 0.00513883 0.027815 0.0046249 0.0312518 0.00637889 0.0240019 0.00615341 0.0358232
23 1 Mg 0.188464 57.2928 1.65793 1.2 1 0.0505181 0.0245717 0.00704337 0.00750875 0.00183041 0.00651376 0.00183632 0.0195982 0.00394484 0.0135707 0.00353743 0.025604 0.00318666 0.0226386 0.00497786 0.0305249 0.00575759 0.0214972 0.00552579 0.0393312
24 2 Si -1.85761 55.3505 1.48635 2.4 1 0.0987492 0.0390688 0.00249334 0.0108609 0.00143034 0.00781931 0.00206986 0.0189185 0.00445588 0.0156332 0.00295065 0.0249496 0.00325196 0.0241427 0.00383308 0.0290299 0.00720491 0.0205479 0.00552328 0.0352963
25 3 O 1.31236 55.3338 1.55163 -1.2 1 0.101696 0.0386621 0.001751 0.011466 0.00134638 0.00817609 0.00207692 0.018427 0.00439141 0.0155935 0.00378317 0.0251497 0.00422574 0.0235295 0.00467873 0.0298694 0.00620708 0.0214078 0.00472567 0.034461
26 3 O -0.793098 59.1202 1.66464 -1.2 1 0.0272023 0.0148666 0.00663959 0.0055188 0.00165942 0.00611911 0.00190242 0.0213342 0.00324327 0.0115322 0.00251398 0.0259555 0.0027142 0.0216717 0.00518216 0.0322248 0.00493923 0.0226395 0.00589808 0.0436041
27 3 O -1.19704 56.1408 0.332537 -1.2 1 0.0763265 0.0324416 0.00468471 0.00891788 0.00171183 0.00754773 0.00177479 0.0194645 0.00340688 0.0147398 0.00289775 0.0241031 0.00324588 0.022979 0.00340723 0.0303412 0.00662259 0.0211632 0.00567593 0.0364485
28 3 O -1.13674 56.0265 2.80373 -1.2 1 0.0805464 0.0349063 0.00459173 0.00991804 0.00224574 0.00772837 0.00133471 0.0199635 0.00423671 0.0151294 0.0029517 0.0255885 0.00302468 0.0236804 0.00415043 0.0308457 0.00573196 0.0225719 0.00503094 0.0374617
29 1 Mg -2.25107 59.657 0.20535 1.2 1 0.0215357 0.0113992 0.00429426 0.00533445 0.00126484 0.00642191 0.00179992 0.0206129 0.00263054 0.0118988 0.00210229 0.0259859 0.00249447 0.0208205 0.00433452 0.0317891 0.00391423 0.0224419 0.00504406 0.0427173
30 1 Mg 2.58052 62.5526 1.82614 1.2 1 0.00814736 0.00538337 0.00158706 0.00562892 0.00123251 0.0059509 0.00185176 0.0215826 0.00304911 0.00945053 0.00260494 0.0257503 0.00215494 0.0217853 0.00310438 0.0325795 0.00330203 0.0228291 0.00367475 0.047429
31 2 Si -0.146264 60.6036 1.73416 2.4 1 0.0157291 0.00795945 0.00293538 0.00623716 0.00217199 0.00621733 0.00166309 0.0212096 0.00227938 0.0105478 0.00281008 0.0251004 0.00297847 0.0220883 0.00488759 0.032303 0.00471719 0.0228049 0.00574679 0.0473031
32 3 O 1.47545 60.5433 1.73819 -1.2 1 0.016045 0.00863216 0.00362152 0.00521457 0.00222788 0.0057957 0.00177603 0.021152 0.00289427 0.0101398 0.00218836 0.0253112 0.00315444 0.0216551 0.00492052 0.0326489 0.00427091 0.0229219 0.00595096 0.045805
33 3 O -1.07688 64.3294 1.80782 -1.2 1 0.00559643 0.00468551 0.00156866 0.00587556 0.00123552 0.0065898 0.00127415 0.0224165 0.00171311 0.00934312 0.0014566 0.0254489 0.00205254 0.0208203 0.0031246 0.0320605 0.00290185 0.0230238 0.00356883 0.0476906
34 3 O -0.782942 61.4789 0.586155 -1.2 1 0.011572 0.00656523 0.00173153 0.00506842 0.00176442 0.00580849 0.00146132 0.021352 0.0027078 0.00990772 0.00249208 0.0253889 0.00237366 0.0214877 0.0038437 0.0324131 0.00354022 0.0233168 0.00461684 0.0463581
35 1 Mg -2.14612 69.9914 2.93461 1.2 1 0.00390135 0.00377498 0.000785663 0.00553215 0.00111345 0.00605465 0.00107201 0.0215967 0.00123316 0.00930775 0.001409 0.025991 0.00142993 0.0202245 0.00207118 0.0311466 0.00201381 0.0221501 0.00224937 0.0464238
36 3 O -0.777646 61.2987 3.03113 -1.2 1 0.0125189 0.00769558 0.00251653 0.00488625 0.00154362 0.006024 0.00142086 0.0219669 0.00240384 0.0101499 0.00255173 0.0253233 0.00277948 0.0218884 0.00471242 0.0327468 0.00442755 0.0232345 0.00449167 0.04698
37 1 Mg -2.07597 67.2675 4.56958 1.2 1 0.00178513 0.0044287 0.00143606 0.00577757 0.00140168 0.00593091 0.00157988 0.0212871 0.00178693 0.00944912 0.00278726 0.0254751 0.00233683 0.0214459 0.0026348 0.0321695 0.00350317 0.0231095 0.00374368 0.0475921
38 2 Si 0.490016 69.0364 4.34211 2.4 1 0.0035671 0.00411814 0.00119461 0.00617399 0.0018631 0.00608734 0.00143824 0.0212213 0.00135289 0.00896669 0.00160741 0.0247772 0.00240426 0.0205538 0.00280384 0.0315223 0.00266267 0.0223247 0.00369018 0.0478302
39 3 O -1.10103 69.1651 4.31751 -1.2 1 0.00338957 0.004429 0.00109222 0.00597137 0.00175505 0.00608923 0.00105048 0.0208943 0.00149727 0.00900517 0.00128967 0.0256164 0.00268038 0.0205396 0.00237571 0.0313776 0.00376886 0.021885 0.00376965 0.0473362
40 3 O 1.62819 65.3414 4.65197 -1.2 1 0.00218292 0.00470206 0.00115295 0.00602594 0.000954524 0.00647649 0.00138997 0.0220981 0.00116804 0.00927963 0.00207108 0.025701 0.00229638 0.0206798 0.00292288 0.0320954 0.00301092 0.0230087 0.00299718 0.047995
41 3 O 1.10176 68.5629 2.94031 -1.2 1 0.0027201 0.00409528 0.000906258 0.00563917 0.00153865 0.00613189 0.00164644 0.0215432 0.00180367 0.00915607 0.00184084 0.0252337 0.00207772 0.0205841 0.00243858 0.031433 0.00247367 0.0223402 0.00250491 0.0471441
42 3 O 1.23884 68.2729 5.60859 -1.2 1 0.00311062 0.00504389 0.00128867 0.00561836 0.00194556 0.00571156 0.001281 0.0211342 0.00146728 0.00865259 0.00181419 0.0247333 0.0021157 0.0208593 0.00237305 0.0324786 0.00306856 0.023019 0.00364898 0.0478925
43 1 Mg 0.423505 64.6163 3.15955 1.2 1 0.00372026 0.00457379 0.0014049 0.00593486 0.00109346 0.00639494 0.00160675 0.0216272 0.00172452 0.00983307 0.00141521 0.0264695 0.00113707 0.0207861 0.00212816 0.0316838 0.00264394 0.0223747 0.00262578 0.0469433
44 1 Mg 0.261059 61.9749 4.54174 1.2 1 0.00982733 0.00663158 0.00212715 0.0052728 0.00139331 0.00592748 0.00183951 0.0217249 0.00119392 0.0098725 0.00292271 0.0257845 0.00260023 0.0217593 0.00379729 0.0326665 0.00363649 0.0235415 0.0043005 0.0478366
45 2 Si 2.44869 63.9525 4.74063 2.4 1 0.00477574 0.00464338 0.00113532 0.00722975 0.00126279 0.00684347 0.00192708 0.0220822 0.00160009 0.00902392 0.00244562 0.0246333 0.00166374 0.0218599 0.00321057 0.0316659 0.00292049 0.0234898 0.00232897 0.0496402
46 3 O -0.80898 64.0037 4.7295 -1.2 1 0.00483444 0.0045607 0.00143857 0.00672772 0.00123334 0.00616752 0.00201674 0.0215641 0.00213788 0.00883064 0.00194395 0.0255691 0.00179121 0.0205424 0.00317945 0.0328561 0.00318119 0.023146 0.0029381 0.0480192
47 3 O 1.2319 60.0631 4.55399 -1.2 1 0.0181755 0.0116786 0.00431906 0.00481857 0.00135546 0.00636755 0.00248344 0.0222302 0.00216163 0.0103063 0.00311193 0.0261779 0.00235895 0.021885 0.00478906 0.0322268 0.00421188 0.0236587 0.00471784 0.0464984
48 3 O 1.65862 63.1505 3.52638 -1.2 1 0.00696992 0.00499434 0.00145543 0.00599337 0.00109291 0.00610844 0.00203128 0.0214956 0.00174127 0.00879575 0.00212177 0.0252725 0.00183267 0.0212749 0.00296867 0.0327237 0.00311694 0.0237578 0.00322596 0.0475388
49 1 Mg 0.0865388 64.8001 0.343762 1.2 1 0.00476627 0.00484844 0.00143599 0.00536964 0.00123141 0.00608603 0.00110209 0.0217841 0.0013679 0.00947799 0.00130891 0.0260879 0.00172664 0.0208971 0.002062 0.0314745 0.00224535 0.0224765 0.00291859 0.0462807
50 3 O 1.69249 63.2582 6.01632 -1.2 1 0.00588101 0.00548792 0.00140292 0.00632998 0.00111684 0.00602211 0.0023051 0.0222603 0.00162186 0.00921723 0.00248612 0.0254852 0.00178467 0.0213554 0.00395608 0.0328814 0.00411336 0.023908 0.00305535 0.0489197
51 1 Mg 0.12562 67.7228 1.43233 1.2 1 0.00282767 0.00409295 0.000655739 0.00569866 0.00104647 0.00593486 0.00123109 0.0209387 0.00226075 0.00952514 0.00176018 0.0257582 0.00196674 0.0213952 0.00236403 0.0313747 0.00269419 0.0216889 0.00232861 0.047263
52 2 Si -1.77662 65.8114 1.823 2.4 1 0.00239871 0.00434387 0.00144033 0.00636593 0.00177551 0.00646924 0.00228124 0.0212127 0.00172652 0.00922423 0.00230104 0.0248111 0.00274958 0.0218279 0.00374345 0.0311868 0.00296041 0.0220876 0.00338134 0.0479002
53 3 O 1.4058 65.743 1.90011 -1.2 1 0.00289184 0.00417783 0.00127881 0.00585499 0.00130141 0.00610799 0.0012511 0.0213445 0.00219691 0.00899802 0.0014714 0.0253016 0.00202834 0.0209262 0.0024584 0.0316643 0.00309218 0.0221449 0.0031945 0.0478475
54 3 O -0.896411 69.5245 1.38871 -1.2 1 0.00386134 0.00411599 0.000783569 0.00576105 0.00105448 0.00648841 0.00122519 0.0219989 0.00142398 0.00907215 0.00201399 0.025793 0.00210771 0.0205249 0.00251162 0.030754 0.00236183 0.0223908 0.00244656 0.0466479
55 3 O -1.24191 66.4913 0.471277 -1.2 1 0.00237051 0.00473098 0.00101863 0.005413 0.00135737 0.00612096 0.00223136 0.0213664 0.00207005 0.00912365 0.00176096 0.0246716 0.00202446 0.0210325 0.00258081 0.0315548 0.00218867 0.0224857 0.00280376 0.0471093
56 3 O -1.00005 66.5086 2.99069 -1.2 1 0.000516737 0.00419138 0.00151008 0.00551884 0.00154973 0.00607989 0.0020917 0.0219585 0.00168831 0.00897415 0.00240371 0.0247274 0.0020222 0.0214394 0.00296005 0.0322932 0.0029215 0.0233505 0.00294837 0.0480177
57 1 Mg -2.24881 69.9692 0.164693 1.2 1 0.00399 0.00433715 0.000794379 0.00546316 0.000957686 0.00666345 0.00101569 0.0213641 0.00142618 0.00931059 0.00192321 0.0262555 0.00167627 0.0196451 0.00192259 0.0301648 0.00249144 0.0221429 0.00237383 0.0457504
58 1 Mg 2.35534 73.0148 1.57108 1.2 1 0.00377192 0.00361508 0.000897362 0.00565655 0.00109622 0.00584112 0.00146492 0.0219565 0.00212003 0.00919985 0.00258991 0.0260896 0.00225015 0.0199849 0.00368221 0.030205 0.00376545 0.0226226 0.003563 0.0477233
59 2 Si -0.240262 71.2013 1.46793 2.4 1 0.00444865 0.00394056 0.000619658 0.0060097 0.00146747 0.00624328 0.00196952 0.0217589 0.0022296 0.00912899 0.00242197 0.0251695 0.00215903 0.0202547 0.00303771 0.0303517 0.00255918 0.0220639 0.00272201 0.0472858
60 3 O 1.29396 71.0828 1.52631 -1.2 1 0.00399347 0.00370111 0.000644283 0.00594957 0.00124593 0.00612157 0.00137303 0.0212882 0.00251293 0.00912169 0.00203724 0.0260138 0.00194294 0.0196044 0.00211687 0.0309512 0.00273813 0.0218727 0.00259735 0.0465358
61 3 O -1.52636 74.7955 1.64934 -1.2 1 0.00141663 0.00375473 0.00142377 0.00562477 0.00122659 0.00608183 0.0012964 0.0225454 0.00150203 0.0091954 0.00186376 0.0269517 0.00217236 0.0193187 0.00334852 0.0307701 0.00307344 0.0227838 0.00397795 0.0480701
62 3 O -1.03672 71.812 0.231264 -1.2 1 0.00404662 0.00412465 0.000692915 0.0056702 0.00120925 0.00577945 0.00159962 0.0221255 0.00219397 0.00877484 0.00282211 0.0251801 0.00196797 0.0202535 0.00282181 0.0307152 0.00291189 0.0224551 0.00263067 0.0464913
63 1 Mg -2.35902 80.6275 3.04561 1.2 1 0.00271982 0.00420568 0.00105717 0.00543455 0.00115741 0.00560373 0.00126356 0.0229447 0.00151988 0.00832928 0.00164742 0.029096 0.00259604 0.0185764 0.00305809 0.0317026 0.00330532 0.0238354 0.0046564 0.0499049
64 3 O -0.992933 71.7311 2.76266 -1.2 1 0.00428692 0.0039665 0.000792841 0.00536255 0.00148 0.0054624 0.00210659 0.0215485 0.00226986 0.00918071 0.00215014 0.0252674 0.00256836 0.0203129 0.0032738 0.0311882 0.00272363 0.0222062 0.0024447 0.0478185
65 1 Mg -2.33875 77.7553 4.47585 1.2 1 0.000964239 0.00394885 0.00130149 0.00559683 0.000938059 0.00524356 0.00161145 0.0228288 0.00276542 0.00935622 0.00192593 0.0278782 0.00260181 0.0201657 0.002605 0.0321143 0.00247045 0.0234886 0.0032977 0.0496283
66 2 Si 0.361047 79.6244 4.48177 2.4 1 0.00206819 0.00391375 0.000936894 0.00626157 0.00104515 0.00566851 0.00204345 0.0228032 0.00181389 0.0083901 0.00223994 0.0274383 0.00194114 0.0199626 0.00351063 0.0316703 0.00354369 0.02309 0.00404589 0.0515034
67 3 O -1.20513 79.7366 4.53003 -1.2 1 0.00202229 0.00388615 0.00133213 0.00577361 0.000715867 0.00574656 0.0017209 0.0226302 0.0021708 0.0086068 0.00217869 0.0286307 0.00222217 0.0188143 0.00288869 0.0319329 0.00360223 0.0232018 0.00354353 0.0502252
68 3 O 1.46539 75.7029 4.63153 -1.2 1 0.00210845 0.00363792 0.00148356 0.00640589 0.000651461 0.00600836 0.00124761 0.0225541 0.00171054 0.00919257 0.00218374 0.027477 0.00214572 0.0194005 0.00294261 0.0317292 0.0028173 0.0232203 0.00314887 0.0492761
69 3 O 1.125 78.9452 3.17548 -1.2 1 0.00179648 0.00406534 0.00116534 0.00546071 0.00121692 0.00545851 0.00209991 0.0229748 0.00184031 0.00873543 0.00209235 0.0278806 0.00235056 0.0192953 0.00399702 0.0318697 0.00366537 0.0236888 0.00439373 0.050158
70 3 O 1.11283 78.833 5.64455 -1.2 1 0.00116889 0.00383546 0.000887286 0.00570466 0.00096247 0.00507593 0.00222254 0.0224946 0.00166645 0.00887158 0.00170799 0.0278614 0.00161612 0.0198883 0.00251676 0.0328472 0.00254876 0.022899 0.00295421 0.0494806
71 1 Mg -0.0241669 75.4607 3.23593 1.2 1 0.00144099 0.00423688 0.00159441 0.00555145 0.000893048 0.00599346 0.00127504 0.0216786 0.00170653 0.00934411 0.00169397 0.0279903 0.00171342 0.0191956 0.00201325 0.0310654 0.00248989 0.0223816 0.00295652 0.0481524
72 1 Mg 0.0930506 72.4233 4.53814 1.2 1 0.0044277 0.00411828 0.000812754 0.00581863 0.00133797 0.00566431 0.00126861 0.0221428 0.00210873 0.00964741 0.00228115 0.0262886 0.00233815 0.0203139 0.00361071 0.0316187 0.00352877 0.0230343 0.00382142 0.0473594
73 2 Si 2.10423 74.2815 4.51796 2.4 1 0.00360547 0.00409774 0.00109654 0.00660156 0.00153705 0.0058449 0.00195761 0.0219635 0.00198579 0.00910206 0.00289915 0.0263843 0.00272195 0.0201126 0.00436226 0.031384 0.00395114 0.0226139 0.00433503 0.0487814
74 3 O -1.01721 74.312 4.52639 -1.2 1 0.00357013 0.00402052 0.00132385 0.00614982 0.00137571 0.00559116 0.00146191 0.0213286 0.00282776 0.00906993 0.00160251 0.0268789 0.00220286 0.0194585 0.00242604 0.0318729 0.00313076 0.0227834 0.00341144 0.0488184
75 3 O 1.12947 70.5418 4.51168 -1.2 1 0.00469837 0.00427203 0.00102941 0.00586452 0.00129247 0.00621753 0.00113081 0.0219973 0.00132283 0.00926247 0.00151909 0.0260758 0.00211748 0.0197213 0.00252122 0.0314583 0.00286573 0.0232077 0.00384159 0.0466751
76 3 O 1.37345 73.553 3.1803 -1.2 1 0.00358755 0.0036624 0.00109484 0.00558495 0.00138002 0.00550425 0.0016908 0.0222645 0.0015841 0.00893705 0.00153262 0.0261598 0.00184914 0.0198119 0.00302486 0.0313496 0.00311219 0.022846 0.00355069 0.0483843
77 1 Mg -0.0794139 75.3344 0.314637 1.2 1 0.000973093 0.00370225 0.00125217 0.00559147 0.000992865 0.00582842 0.00144044 0.0218924 0.00188442 0.00850723 0.00150365 0.0275887 0.00203166 0.0188237 0.00281206 0.0302811 0.00325621 0.0221967 0.00398752 0.0472135
78 3 O 1.47482 73.4925 5.76873 -1.2 1 0.00368033 0.00405816 0.000949012 0.00578421 0.00144509 0.00536969 0.00167956 0.0217147 0.00203692 0.00927914 0.00214479 0.0262119 0.00295786 0.0201077 0.00342218 0.032745 0.00311067 0.0231889 0.00426963 0.0484525
79 1 Mg 0.0179209 78.2479 1.50391 1.2 1 0.00193065 0.00406904 0.00154868 0.00576811 0.00134007 0.0056572 0.00139076 0.0226914 0.00225676 0.00874232 0.00213789 0.0280734 0.00260387 0.0191614 0.00396476 0.0311864 0.00367254 0.0236706 0.00567231 0.0493284
80 2 Si -2.10669 76.3552 1.70034 2.4 1 0.00114472 0.00386566 0.00150596 0.00650986 0.00189557 0.00567725 0.00139168 0.0216924 0.00168744 0.00843689 0.00190628 0.0265617 0.00266786 0.0194276 0.00355293 0.0308489 0.00356943 0.0227007 0.00431012 0.0495057
81 3 O 1.09971 76.3471 1.72776 -1.2 1 0.000692178 0.0040154 0.0012896 0.00564762 0.00167554 0.00578939 0.00173668 0.0219998 0.00215162 0.00840375 0.00204965 0.0270933 0.00251303 0.019212 0.00373799 0.0309196 0.00392147 0.023074 0.00543304 0.0489763
82 3 O -1.01727 80.0771 1.62428 -1.2 1 0.00381837 0.00435039 0.00149848 0.00593368 0.00170401 0.00616665 0.00115957 0.0224961 0.00229809 0.00795073 0.00172716 0.0284369 0.00310261 0.0186659 0.00449839 0.0309209 0.00452665 0.0237898 0.00686132 0.0498713
83 3 O -1.44481 77.0739 0.437461 -1.2 1 0.00140301 0.0037332 0.00150875 0.00583534 0.00194045 0.00526795 0.00134027 0.0216974 0.00160974 0.00842158 0.00227465 0.0269884 0.00303902 0.0191818 0.00331393 0.0309241 0.00352787 0.0228818 0.00470962 0.0486959
84 3 O -1.36214 76.9683 2.97774 -1.2 1 0.000704674 0.00426419 0.00138966 0.00527772 0.0014661 0.00547676 0.00126071 0.0228301 0.00168115 0.00860268 0.00172422 0.027532 0.00214332 0.0194739 0.00301911 0.0317641 0.00306727 0.0232491 0.00388222 0.0497449
85 1 Mg -2.29147 80.5483 0.123382 1.2 1 0.00425148 0.00424464 0.00143431 0.00570511 0.0017893 0.00643235 0.00108127 0.0226067 0.00166439 0.00840146 0.00150071 0.0286605 0.0026564 0.0183657 0.00358168 0.0307781 0.00339308 0.0241301 0.00559007 0.0493965
86 1 Mg 2.29607 83.4882 1.48429 1.2 1 0.00348334 0.00458562 0.00159167 0.00558247 0.00143981 0.00569671 0.00128502 0.022958 0.00183253 0.00820616 0.00253212 0.0288718 0.00265882 0.0195967 0.00417469 0.0319879 0.00474907 0.0241115 0.00559357 0.051168
87 2 Si -0.407722 81.5597 1.55689 2.4 1 0.00402489 0.0043108 0.00185933 0.00638059 0.00213388 0.00630312 0.0016737 0.0222118 0.00168596 0.00793061 0.00259746 0.0276501 0.00340525 0.0193635 0.00440538 0.0312303 0.00415279 0.0238794 0.00492423 0.0509362
88 3 O 1.18414 81.6586 1.57371 -1.2 1 0.00412563 0.0043027 0.00144037 0.00580578 0.00218468 0.00559518 0.00144441 0.0216469 0.0023648 0.0078031 0.00220893 0.0284782 0.00290379 0.018583 0.00358018 0.0317707 0.00450802 0.0234359 0.00641878 0.0510588
89 3 O -1.31278 85.1446 1.5796 -1.2 1 0.00333963 0.00456944 0.00146205 0.00586398 0.00145522 0.00649578 0.00126749 0.0232909 0.00210827 0.0082133 0.00213102 0.0292277 0.00287893 0.0188291 0.0042592 0.0321417 0.00468396 0.0247681 0.00602426 0.0505525
90 3 O -1.06199 82.1897 0.210995 -1.2 1 0.00444884 0.00435134 0.00164145 0.00560758 0.00189203 0.00601905 0.00156291 0.023106 0.00211612 0.00805416 0.00245074 0.0275549 0.00334344 0.0195894 0.00439694 0.0320365 0.00402829 0.0248805 0.00543023 0.0509618
91 1 Mg -2.22818 90.9649 3.15511 1.2 1 0.00107158 0.00485702 0.00114722 0.00610927 0.000936654 0.00660847 0.00112963 0.0229763 0.000964301 0.00868926 0.00156018 0.0292455 0.00211254 0.0189159 0.00291195 0.0326117 0.00354842 0.0256763 0.00355968 0.0492325
92 3 O -0.975024 82.2985 2.79498 -1.2 1 0.00325559 0.00432708 0.00132895 0.00560672 0.00186574 0.00534944 0.00166959 0.0222831 0.00151464 0.00808075 0.002086 0.0283222 0.0032001 0.0194462 0.00378171 0.032629 0.00405284 0.0238375 0.00502459 0.0512033
93 1 Mg -2.00288 88.0267 4.502 1.2 1 0.00121156 0.00453993 0.000927696 0.0059338 0.00111727 0.00606408 0.00124933 0.0233422 0.00239265 0.00850651 0.00190554 0.0289484 0.00256575 0.0197932 0.00313838 0.0325174 0.00348159 0.0251062 0.0031713 0.0501333
94 2 Si 0.481789 89.8269 4.6873 2.4 1 0.00133981 0.00428916 0.00119078 0.0063878 0.00117961 0.0063099 0.00172905 0.0228168 0.00162457 0.00814433 0.00276019 0.0282671 0.00253608 0.0198205 0.00441595 0.0324365 0.00451023 0.0250063 0.00439693 0.0508563
95 3 O -0.999513 89.8243 4.64442 -1.2 1 0.0010038 0.00405182 0.00104037 0.00617973 0.00105848 0.00617154 0.00117753 0.0225322 0.00192707 0.00807215 0.00133926 0.0288196 0.0026077 0.0192136 0.00257203 0.0330757 0.00432209 0.0251867 0.00329426 0.0508333
96 3 O 1.41654 86.2716 4.64068 -1.2 1 0.00165383 0.00427773 0.00144126 0.00561793 0.00130248 0.00640442 0.00119881 0.0239501 0.00139272 0.00818719 0.00228687 0.0294083 0.00295272 0.0190504 0.00338805 0.0323171 0.00374744 0.0250916 0.00405279 0.0504875
97 3 O 1.18338 89.2227 3.35304 -1.2 1 0.00106425 0.00461356 0.00101886 0.00599803 0.00131081 0.00620622 0.00228544 0.0235706 0.00171948 0.00867168 0.00223648 0.0279491 0.00253721 0.0201668 0.00380428 0.033309 0.00418411 0.0259869 0.00324576 0.0501681
98 3 O 1.25487 89.251 5.99713 -1.2 1 0.00149871 0.00381939 0.00132118 0.00560265 0.00131041 0.00610041 0.00193805 0.0236107 0.0018231 0.00871067 0.00259837 0.0280266 0.00277356 0.0202249 0.00375805 0.0330078 0.0038307 0.0256384 0.00349039 0.0503072
99 1 Mg 0.0182387 85.5766 3.18893 1.2 1 0.00222015 0.00457341 0.00151177 0.00539341 0.00144326 0.00604715 0.00143649 0.0229056 0.00191265 0.00834445 0.00248569 0.0295156 0.00272464 0.0190157 0.003311 0.0321574 0.0040135 0.0243807 0.00420036 0.0503027
100 1 Mg -0.0237385 82.8779 4.62168 1.2 1 0.00309395 0.00408313 0.0016127 0.00516647 0.001486 0.00542855 0.00167478 0.0230673 0.00258173 0.00870652 0.0026447 0.0292179 0.00312311 0.0194859 0.00416155 0.0329004 0.00396904 0.0241857 0.00407544 0.0510867
101 2 Si 2.11618 84.7166 4.6344 2.4 1 0.00242642 0.00441732 0.00175432 0.00588964 0.00182693 0.00612671 0.00194577 0.0233768 0.00236043 0.00823756 0.0030486 0.0283716 0.00322751 0.0196295 0.00412011 0.0321783 0.00452506 0.0239562 0.00494095 0.051567
102 3 O -1.06953 84.8125 4.55961 -1.2 1 0.00254899 0.00444113 0.00175699 0.00544688 0.00188668 0.00585381 0.00148291 0.0227219 0.0023975 0.00799237 0.0021767 0.0290043 0.00247171 0.0189705 0.00275196 0.0325476 0.00386147 0.0236635 0.00415076 0.0512125
103 3 O 1.06689 81.0677 4.50244 -1.2 1 0.00261209 0.00382965 0.00098659 0.00559383 0.00127739 0.00582426 0.0017015 0.0235106 0.00140108 0.00863173 0.00216772 0.0285509 0.00222662 0.0189733 0.00250664 0.0317983 0.00325294 0.0237891 0.00347609 0.0503708
104 3 O 1.46052 84.0177 3.31562 -1.2 1 0.00304507 0.00435457 0.00148585 0.00538392 0.00139151 0.005629 0.00157312 0.0232483 0.00201332 0.00817501 0.00240764 0.0283071 0.00295774 0.019743 0.00419068 0.0324351 0.00441943 0.0241887 0.00456707 0.0514116
105 1 Mg -0.0112157 85.5011 0.062932 1.2 1 0.00335986 0.0049928 0.00175325 0.00575463 0.00108701 0.00614991 0.00126556 0.0226869 0.00170515 0.00852774 0.00203317 0.0288764 0.00257215 0.0185823 0.00321139 0.0325228 0.00388642 0.0259204 0.00487359 0.0503571
106 3 O 1.52036 84.0217 5.87347 -1.2 1 0.00216298 0.00412184 0.00148069 0.00517583 0.00177217 0.00560533 0.00201161 0.0235044 0.00243467 0.00840398 0.00261149 0.0281528 0.00308223 0.0199568 0.00372731 0.0327027 0.00397935 0.0240393 0.0046134 0.0506648
107 1 Mg 0.199492 88.523 1.61523 1.2 1 0.00225579 0.00516298 0.0010516 0.00605611 0.000941409 0.00608277 0.00141475 0.0228743 0.00183481 0.00938635 0.00259289 0.0285492 0.00262831 0.0199082 0.00271188 0.0336403 0.00425656 0.0265763 0.00429651 0.0500668
108 2 Si -2.00438 86.7267 1.58331 2.4 1 0.00235637 0.00503418 0.00149528 0.00652886 0.00123152 0.00622688 0.0020122 0.0226971 0.00169602 0.0084063 0.00244826 0.0280402 0.00257112 0.0195373 0.00370058 0.0327304 0.00346878 0.0251791 0.00456202 0.0509305
109 3 O 1.18316 86.7067 1.69143 -1.2 1 0.00228553 0.00478669 0.00107303 0.0061102 0.00121949 0.0060072 0.00152825 0.0222605 0.00179588 0.00808574 0.0018697 0.0285876 0.0027876 0.0189882 0.00316777 0.0327566 0.00443478 0.0249088 0.00542117 0.0506747
110 3 O -0.918183 90.5086 1.64536 -1.2 1 0.00122566 0.00494927 0.00146518 0.00649285 0.000995191 0.00698289 0.00157233 0.0228434 0.00147618 0.00886743 0.00199461 0.0288132 0.00245909 0.0191709 0.00385774 0.03254 0.00378818 0.0261076 0.00443676 0.0495161
111 3 O -1.31295 87.3113 0.247356 -1.2 1 0.0025264 0.00491133 0.000990784 0.00638368 0.00119297 0.00603137 0.00168568 0.0230089 0.00166281 0.00883919 0.00189788 0.0283438 0.00238508 0.0195723 0.00256364 0.0331144 0.00347874 0.0262609 0.00436266 0.0505167
112 3 O -1.23059 87.2998 2.86487 -1.2 1 0.00169783 0.00455848 0.00138246 0.0058511 0.00169107 0.00583872 0.00221432 0.0231391 0.00166921 0.00822091 0.00258362 0.027921 0.00254229 0.0193933 0.00276297 0.0336187 0.00353896 0.0255268 0.00417571 0.0508922
113 1 Mg -2.18747 91.0534 0.201991 1.2 1 0.000925526 0.00511965 0.000806092 0.00642159 0.000873412 0.00682662 0.00159123 0.0228119 0.000901386 0.00947137 0.00159587 0.0283801 0.00170801 0.0191677 0.0028665 0.0327377 0.00361752 0.0265767 0.0033933 0.048177
114 1 Mg 2.45749 93.7811 1.71029 1.2 1 0.00253289 0.00445582 0.00199137 0.00654814 0.00174683 0.00642359 0.00150122 0.0223356 0.00230593 0.00872182 0.00278068 0.0277469 0.00280222 0.0187479 0.0049451 0.0333253 0.00485244 0.0269796 0.00586052 0.0488736
115 2 Si -0.158617 91.8678 1.70648 2.4 1 0.00144667 0.00486441 0.00147953 0.00691966 0.00180515 0.00672578 0.00200062 0.0226562 0.00171142 0.00840895 0.00251848 0.0276674 0.00301509 0.0192417 0.0038296 0.0330621 0.00399905 0.0263734 0.00464011 0.0498322
116 3 O 1.39459 91.9016 1.73026 -1.2 1 0.00134265 0.00489916 0.00149802 0.00656159 0.00150517 0.00641403 0.0020983 0.0219445 0.00244786 0.00853709 0.00249224 0.0281958 0.00259637 0.0188931 0.00319075 0.033292 0.0037126 0.0259213 0.00494451 0.0493775
117 3 O -1.15147 95.5357 1.67503 -1.2 1 0.00460702 0.00433447 0.00239033 0.00646998 0.00189713 0.00701183 0.00182574 0.0225988 0.0023631 0.00818071 0.00201216 0.0279778 0.00317262 0.0185191 0.00495863 0.0333799 0.00443271 0.0268042 0.00649307 0.0495175
118 3 O -0.822363 92.5295 0.328257 -1.2 1 0.00125449 0.00474931 0.00153322 0.00645894 0.00158527 0.00662713 0.00199737 0.0225747 0.00146291 0.00925765 0.00195299 0.0273725 0.00281726 0.0194719 0.00350173 0.0336137 0.00296743 0.0268338 0.00412904 0.0489197