ITEM: TIMESTEP
1200
ITEM: NUMBER OF ATOMS
5600
ITEM: BOX BOUNDS xy xz yz pp pp pp
0	7.1235	0
0	201.985	2.3745
0	119.584	0
ITEM: ATOMS id type element xu yu zu q Q_1 Q_2 Q_3 Q_4 Q_5 Q_6 Q_7 Q_8 Q_9 Q_10 Q_11 Q_12 Q_13 Q_14 Q_15 Q_16 Q_17 Q_18 Q_19 Q_20 Q_21
1 1 Mg -1.82227 49.5526 -0.791381 1.2 1 0.24127 0.0773794 0.020339 0.0249071 0.00580474 0.0148738 0.00464135 0.0219894 0.00571623 0.0271626 0.00573156 0.0322647 0.0105065 0.0313761 0.00672783 0.0304826 0.00954251 0.0275655 0.0098774 0.0360421
2 1 Mg 2.75071 51.672 2.0745 1.2 1 0.180643 0.0654347 0.00858562 0.0186588 0.00263084 0.0110468 0.00306415 0.0202132 0.00452156 0.0225369 0.00476087 0.0301471 0.00636224 0.0269987 0.00472153 0.029394 0.00633347 0.0257313 0.00839735 0.0356527
3 2 Si 0.717984 51.3037 0.199051 2.4 1 0.194079 0.0687123 0.0116969 0.0197415 0.00376732 0.0119807 0.0035529 0.0212075 0.00526267 0.0238431 0.0042795 0.030022 0.00734771 0.0288917 0.00448578 0.0288918 0.00761516 0.0251336 0.00756336 0.0359064
4 3 O 1.96278 50.4596 0.508444 -1.2 1 0.212542 0.0736738 0.013728 0.0222941 0.00407978 0.0129659 0.00402116 0.0212459 0.00565947 0.0253184 0.00501097 0.0308755 0.00722033 0.0294802 0.00626469 0.0293723 0.00828034 0.0261833 0.00812684 0.0352941
5 3 O -1.30806 54.1993 1.48672 -1.2 1 0.128367 0.050449 0.00227744 0.0131353 0.00151302 0.00921073 0.00253153 0.0198155 0.00295529 0.0177862 0.00291854 0.0285343 0.00472478 0.0237974 0.00261038 0.0283802 0.00558491 0.0235764 0.00580311 0.0374303
6 3 O -0.103997 50.737 -1.0351 -1.2 1 0.208298 0.0719401 0.0138708 0.0214668 0.00477615 0.0129594 0.00415886 0.0216517 0.00429192 0.0256804 0.00452786 0.030562 0.00843153 0.0291977 0.00509874 0.0289595 0.00796102 0.0255365 0.00769311 0.0361026
7 1 Mg -2.25672 59.8234 3.30798 1.2 1 0.0146071 0.0140433 0.00634101 0.00499742 0.001348 0.00591386 0.00182629 0.0212278 0.00334723 0.00978962 0.00247346 0.0262568 0.00304149 0.0195673 0.0041382 0.0299229 0.00431118 0.0238071 0.00572286 0.0435453
8 3 O -0.145825 51.4874 1.52748 -1.2 1 0.180085 0.0664371 0.00733418 0.0183838 0.00265265 0.011442 0.00298211 0.0210509 0.00404416 0.0231919 0.00497055 0.0303239 0.00556131 0.0273231 0.00388369 0.0296837 0.00576131 0.0252869 0.00770365 0.035579
9 1 Mg -2.19402 56.9805 4.41938 1.2 1 0.0671743 0.0330462 0.00528413 0.00841683 0.00207195 0.00620514 0.00248141 0.0191762 0.00188649 0.0138311 0.00261017 0.0264112 0.00284926 0.0206659 0.00361861 0.0283116 0.00343884 0.0235523 0.006042 0.0394432
10 2 Si 0.48642 58.762 4.76705 2.4 1 0.0317986 0.0205495 0.00688586 0.00667077 0.00182626 0.00618363 0.00211663 0.0208557 0.00271328 0.0109725 0.00289228 0.0255244 0.00318981 0.0199704 0.00443143 0.0282459 0.00420596 0.0239699 0.00506843 0.0421745
11 3 O -1.05289 58.7481 4.66659 -1.2 1 0.0315886 0.0207187 0.00708898 0.00668093 0.00184318 0.00591363 0.00208958 0.0202583 0.00287191 0.0103646 0.00245115 0.0256899 0.00388243 0.0195841 0.00375155 0.0288302 0.00520397 0.0231804 0.00529596 0.042235
12 3 O 1.54966 55.1087 4.34281 -1.2 1 0.113547 0.0463619 0.00137472 0.0125534 0.00229398 0.00843222 0.00261452 0.0199415 0.00224776 0.0177815 0.00322189 0.0271482 0.00352218 0.0227236 0.0029176 0.0275795 0.00416051 0.024251 0.00587306 0.0371968
13 3 O 1.2579 58.2314 3.47532 -1.2 1 0.0405765 0.0249662 0.00724651 0.00686787 0.00155631 0.00549341 0.00264121 0.0209066 0.00274989 0.0114795 0.00268452 0.025768 0.00316521 0.019888 0.00478588 0.0287123 0.00419656 0.0234101 0.00583393 0.0418038
14 3 O 1.22564 58.1239 5.98145 -1.2 1 0.0428998 0.0253166 0.00742361 0.00671402 0.00204473 0.00618032 0.00241816 0.0203158 0.00262421 0.0115843 0.00227047 0.0254958 0.00352209 0.0201607 0.00475145 0.0284646 0.00404403 0.0241904 0.00539277 0.0411467
15 1 Mg 0.190132 54.2972 2.88384 1.2 1 0.128477 0.0510712 0.001605 0.013876 0.00159105 0.00890223 0.00217468 0.0195292 0.00238889 0.0187211 0.00284215 0.0284847 0.00375211 0.0232028 0.00368221 0.0280156 0.00411179 0.0236976 0.0062068 0.0364969
16 1 Mg 0.681504 50.826 3.16724 1.2 1 0.215232 0.0729337 0.0144194 0.0220856 0.00342017 0.0129943 0.00386646 0.020835 0.00584792 0.024709 0.00467141 0.0306789 0.00654768 0.0290191 0.0056058 0.029191 0.00758189 0.0272582 0.00939584 0.0361491
17 2 Si 2.14347 53.6648 4.57287 2.4 1 0.14742 0.0562006 0.00366323 0.015213 0.00261283 0.00908942 0.00294418 0.0200227 0.00302949 0.0196668 0.00398695 0.0283291 0.00432853 0.0249725 0.00457771 0.027965 0.00386778 0.0243691 0.00744715 0.0364106
18 3 O -1.05835 53.7161 4.52973 -1.2 1 0.136973 0.0533437 0.00218567 0.0136601 0.00236621 0.00827537 0.00267542 0.0194935 0.00294269 0.019023 0.0031751 0.0286108 0.00430928 0.0242208 0.00398886 0.0277474 0.00434288 0.0244334 0.00727283 0.0365333
19 3 O 2.51178 49.9389 3.30927 -1.2 1 0.231205 0.07579 0.0168056 0.023301 0.00441607 0.0135359 0.00413923 0.021905 0.00644997 0.0259962 0.00560567 0.0312259 0.00886992 0.0302978 0.00657782 0.0302731 0.00926649 0.0297269 0.00965556 0.0364126
20 3 O 1.58135 52.7 3.30385 -1.2 1 0.160395 0.0594438 0.00536553 0.0161151 0.00274454 0.00933574 0.0033469 0.020039 0.00306363 0.020772 0.00358902 0.0291486 0.00592004 0.0256426 0.00442264 0.0288689 0.00438342 0.0249041 0.00729417 0.0359331
21 1 Mg 0.179503 54.6602 0.0775969 1.2 1 0.118518 0.0488119 0.00132154 0.0129192 0.00180109 0.00844256 0.00242033 0.019957 0.00331782 0.0175671 0.00287539 0.0281736 0.00405135 0.0234269 0.00304746 0.028395 0.00558039 0.0224036 0.00504687 0.0374396
22 3 O 1.37655 53.0929 5.84732 -1.2 1 0.1567 0.057699 0.00569013 0.016357 0.00284721 0.00990788 0.0030523 0.0198461 0.00314905 0.020072 0.00355162 0.0282464 0.00468238 0.0240911 0.00525616 0.0278925 0.00411402 0.0246455 0.00829102 0.0357
23 1 Mg 0.155811 57.5157 1.89985 1.2 1 0.0481415 0.0289966 0.00784548 0.00698021 0.0017569 0.00604994 0.00216957 0.0201265 0.00381104 0.0123187 0.00248494 0.0265224 0.00319651 0.0205333 0.00400717 0.0284631 0.00510439 0.0224311 0.00638821 0.0413042
24 2 Si -1.8712 55.5842 1.5928 2.4 1 0.0979772 0.0436418 0.00302396 0.0108699 0.00190941 0.00770114 0.00227299 0.0197555 0.00376395 0.0161386 0.00251434 0.0270167 0.00297113 0.0223568 0.0034988 0.0277305 0.00530889 0.022577 0.00545674 0.038581
25 3 O 1.28466 55.5576 1.56323 -1.2 1 0.100772 0.0425257 0.00161682 0.0106396 0.00136822 0.00781257 0.00204419 0.0193889 0.00271494 0.015948 0.00248793 0.0274885 0.00286123 0.0217266 0.003236 0.0284396 0.00426849 0.0229596 0.00558277 0.0382832
26 3 O -0.881552 59.272 1.69025 -1.2 1 0.0222193 0.0187544 0.00775998 0.00535718 0.00126073 0.00552147 0.00139199 0.021671 0.00436209 0.0105438 0.00243285 0.0266229 0.00388052 0.0198352 0.0043176 0.0294671 0.00537602 0.0232692 0.0066254 0.0432405
27 3 O -1.20793 56.3145 0.294242 -1.2 1 0.0780336 0.0366741 0.00366898 0.00830215 0.00119097 0.00695244 0.00187981 0.0212101 0.00338866 0.014514 0.00160869 0.0266007 0.00325179 0.0216584 0.00274473 0.0288531 0.00595757 0.0227229 0.00546439 0.039936
28 3 O -1.02625 56.2977 2.85455 -1.2 1 0.0788591 0.0370133 0.00387076 0.00913356 0.00171944 0.00681612 0.00209544 0.0197389 0.00306591 0.014872 0.00208349 0.0266639 0.00264074 0.0212068 0.00306954 0.0279989 0.00459314 0.0234362 0.00513858 0.0388939
29 1 Mg -2.35564 59.6834 0.289006 1.2 1 0.0143431 0.0155244 0.00634128 0.00532624 0.00106943 0.00561529 0.00158718 0.021753 0.00327848 0.0104713 0.00203601 0.0267323 0.00270738 0.0203278 0.00356093 0.0297264 0.00490005 0.0230636 0.00506191 0.043929
30 1 Mg 2.37676 62.6618 1.59492 1.2 1 0.00523299 0.00534973 0.00215318 0.00568291 0.0013995 0.00624393 0.00111144 0.0221023 0.00264803 0.00921084 0.00277924 0.0268624 0.00262587 0.02049 0.00327972 0.0309901 0.00310346 0.023726 0.00384354 0.0476276
31 2 Si -0.268682 60.7569 1.74821 2.4 1 0.00826927 0.0101171 0.00413534 0.00585599 0.001487 0.00612579 0.00115298 0.0214271 0.00294065 0.00956569 0.00268447 0.0254512 0.00348247 0.0204305 0.00426132 0.0298986 0.00464781 0.0234473 0.0048839 0.0455933
32 3 O 1.29052 60.719 1.81617 -1.2 1 0.0082385 0.0103566 0.00436666 0.0053079 0.00170719 0.00556329 0.00153622 0.021494 0.00334545 0.00944761 0.00250652 0.0259259 0.00282037 0.0199509 0.00375879 0.0303098 0.0043002 0.0231501 0.00504274 0.0454043
33 3 O -1.28443 64.4622 1.61947 -1.2 1 0.00384597 0.00423255 0.00207272 0.0066473 0.00115539 0.0064155 0.00113078 0.0224803 0.00196642 0.0088666 0.00250475 0.0269476 0.00258371 0.0203351 0.00308379 0.031178 0.0032637 0.0238887 0.00447457 0.0492644
34 3 O -0.943436 61.5002 0.505833 -1.2 1 0.00563031 0.00812509 0.00327029 0.00560999 0.00134167 0.00577865 0.00148797 0.0215834 0.00214231 0.00946895 0.00233006 0.0259175 0.0026181 0.0207037 0.00339571 0.0304217 0.00361616 0.0229325 0.00364181 0.0459571
35 1 Mg -2.35865 70.0032 3.16115 1.2 1 0.000740348 0.00385937 0.000600207 0.0060055 0.000997699 0.00618614 0.00109651 0.0217697 0.00123866 0.00835494 0.00179662 0.0285017 0.00170559 0.0203085 0.00213102 0.03278 0.00264691 0.0246198 0.00283843 0.0515969
36 3 O -0.891424 61.4183 3.02191 -1.2 1 0.00587674 0.0075322 0.00330394 0.00507489 0.00143924 0.00615988 0.000982672 0.0218708 0.0030479 0.00914533 0.0025482 0.0256533 0.0028753 0.020593 0.00389787 0.0305885 0.00424958 0.0240184 0.00462305 0.0463227
37 1 Mg -2.14241 67.1139 4.7737 1.2 1 0.00241502 0.00367414 0.000735799 0.00612438 0.000669747 0.00596363 0.00127387 0.0219581 0.0020271 0.0093906 0.00169148 0.0271166 0.00200647 0.0210734 0.00266352 0.0327265 0.00282868 0.0249536 0.00232714 0.0506681
38 2 Si 0.540699 69.0125 4.74643 2.4 1 0.000639221 0.00361159 0.000802159 0.00653142 0.0013355 0.00630004 0.00178925 0.0217625 0.00138066 0.00853471 0.00219773 0.0266952 0.00178513 0.0210356 0.00322836 0.0326561 0.00300068 0.0241915 0.00311424 0.0520208
39 3 O -1.00602 69.1309 4.71384 -1.2 1 0.000947132 0.00368637 0.000724727 0.00636915 0.000878348 0.00608504 0.00133379 0.0217373 0.00221664 0.00816007 0.00148714 0.0272226 0.00170938 0.0202831 0.00226268 0.033079 0.00298248 0.0242983 0.00319181 0.0517486
40 3 O 1.53319 65.448 4.60885 -1.2 1 0.0041454 0.00362868 0.0017934 0.00641624 0.00089605 0.00638332 0.00114601 0.0226085 0.00172432 0.00894744 0.00187878 0.0268254 0.00220745 0.0204539 0.00312081 0.0314796 0.00252957 0.0243613 0.00326411 0.0497952
41 3 O 0.940929 68.4992 3.30582 -1.2 1 0.000886313 0.00385795 0.000688943 0.00626376 0.000864958 0.00592818 0.00138396 0.0219018 0.00210531 0.00898738 0.00151772 0.0271171 0.00195309 0.0212301 0.00326328 0.0331191 0.00277019 0.0243664 0.00270291 0.0520304
42 3 O 1.34877 68.3175 5.88636 -1.2 1 0.0011704 0.0035 0.000700094 0.00579419 0.00113081 0.00601041 0.0013666 0.0221795 0.00151765 0.00817524 0.00166496 0.0265756 0.0015424 0.0208819 0.0028918 0.0324028 0.00248544 0.0242855 0.00298013 0.0503679
43 1 Mg 0.144415 64.8184 3.04907 1.2 1 0.00411403 0.00415357 0.00158189 0.00648795 0.00100659 0.00633976 0.000942875 0.0220993 0.00110462 0.00926957 0.00167631 0.0271883 0.00215962 0.0205486 0.0016815 0.031455 0.00181018 0.0237974 0.00267672 0.049054
44 1 Mg 0.136573 62.0344 4.65103 1.2 1 0.00530934 0.00597823 0.00327529 0.00542442 0.00154846 0.00600374 0.0020584 0.0218387 0.00222739 0.0089386 0.00303494 0.0260657 0.00292512 0.0200911 0.00349001 0.0308488 0.00335985 0.0242567 0.00460878 0.0463709
45 2 Si 2.19675 63.9744 4.56577 2.4 1 0.00508833 0.00392613 0.00173698 0.00690099 0.00124419 0.00655192 0.00196803 0.0218802 0.00214491 0.00867119 0.00257165 0.0254358 0.00235719 0.021197 0.00371734 0.0310196 0.00223244 0.0237988 0.00351926 0.0494599
46 3 O -0.947118 63.8141 4.655 -1.2 1 0.00500861 0.00395103 0.0023964 0.00637511 0.00130738 0.00618927 0.00184978 0.021288 0.00229602 0.00836332 0.0023908 0.0258908 0.00301839 0.0204147 0.00245644 0.0312166 0.00342774 0.0238454 0.00366407 0.048545
47 3 O 1.1383 60.2887 4.82534 -1.2 1 0.0115434 0.0116076 0.00530066 0.00539754 0.00159039 0.00623257 0.00240628 0.0213922 0.00282852 0.00921771 0.00290313 0.0261474 0.00280807 0.0199981 0.00342697 0.0297439 0.00347289 0.0238126 0.00500394 0.0446679
48 3 O 1.48391 63.3228 3.33503 -1.2 1 0.00526496 0.00418261 0.00221528 0.00585184 0.00124141 0.00626913 0.00176236 0.022394 0.00214163 0.00847415 0.00242412 0.0258663 0.00221493 0.0202402 0.0030809 0.0312134 0.00177645 0.0240716 0.00320991 0.0483035
49 1 Mg -0.0330093 64.9925 0.146245 1.2 1 0.00244497 0.00447958 0.00140701 0.00646667 0.000770797 0.00602331 0.000735965 0.0225397 0.00139284 0.00909036 0.00155309 0.0278372 0.0017109 0.0204664 0.00244387 0.0317564 0.00251851 0.0231059 0.00265394 0.0491249
50 3 O 1.59462 63.326 5.89292 -1.2 1 0.00478436 0.00389363 0.00192315 0.00556361 0.00137046 0.00599676 0.00186863 0.0216314 0.00196151 0.00804879 0.00226921 0.0256631 0.00252104 0.0202264 0.00311345 0.0315577 0.00242589 0.0243284 0.00322698 0.047567
51 1 Mg 0.0411112 67.8514 1.6135 1.2 1 0.00103001 0.00400958 0.00059255 0.00674177 0.000654827 0.00595458 0.00138844 0.0224165 0.00163702 0.00887621 0.0016741 0.027138 0.00191234 0.0207835 0.0033252 0.0331509 0.00312935 0.0249401 0.0031702 0.0515221
52 2 Si -1.98351 65.9596 1.62342 2.4 1 0.00274526 0.00424268 0.00105343 0.00755325 0.00118191 0.00642161 0.001254 0.0221698 0.00144181 0.00923475 0.00189659 0.0263517 0.00262275 0.0213609 0.00298668 0.0318502 0.00326679 0.0239247 0.00257887 0.0514991
53 3 O 1.18398 65.8297 1.66068 -1.2 1 0.00251943 0.00417701 0.000932998 0.00715173 0.00132674 0.00623948 0.00106276 0.0215817 0.00244085 0.00871847 0.00203881 0.0269689 0.00237433 0.0207404 0.00327506 0.032192 0.00215807 0.0237983 0.00312719 0.0505536
54 3 O -1.05628 69.7179 1.61287 -1.2 1 0.00202463 0.00394302 0.00106731 0.0067927 0.00112199 0.00676927 0.00107051 0.0220061 0.00188749 0.00859716 0.00168564 0.0281775 0.00228331 0.0202766 0.00329051 0.0334361 0.00321842 0.024848 0.00374893 0.0521599
55 3 O -1.4781 66.6684 0.338582 -1.2 1 0.00101377 0.00426095 0.000733652 0.00670789 0.000891734 0.0058821 0.00138007 0.0221006 0.00148559 0.00933931 0.00134924 0.0268828 0.00239768 0.0210614 0.00270145 0.0327568 0.00243714 0.0236942 0.00294498 0.0511304
56 3 O -1.27493 66.6017 2.90078 -1.2 1 0.00250622 0.00378195 0.000570941 0.00651505 0.00110539 0.00612797 0.00118971 0.0221966 0.00144894 0.00897559 0.00154337 0.0264229 0.00221289 0.0216868 0.00272993 0.0326408 0.00285891 0.0247984 0.00229016 0.0516394
57 1 Mg -2.43741 70.0382 0.131615 1.2 1 0.00265462 0.00435396 0.00127823 0.00642063 0.0014916 0.00644204 0.00138175 0.021954 0.00149299 0.00878473 0.0017148 0.0286182 0.00214009 0.0199218 0.00250702 0.0338856 0.00287711 0.0253449 0.00306805 0.0515416
58 1 Mg 2.23433 72.9097 1.66611 1.2 1 0.00160307 0.00392371 0.00162065 0.00589251 0.00110202 0.00607473 0.00146887 0.021653 0.00153051 0.00927329 0.00267031 0.0287679 0.002263 0.020757 0.00297106 0.0350798 0.00316361 0.0259737 0.00286889 0.0528962
59 2 Si -0.377904 71.2155 1.6333 2.4 1 0.0022556 0.0042925 0.00134527 0.00682726 0.00160032 0.00687433 0.00224227 0.0216946 0.00167594 0.00876544 0.00227035 0.0277353 0.00247282 0.0207905 0.003288 0.0341687 0.003372 0.0253259 0.00301228 0.053503
60 3 O 1.1619 71.0691 1.70394 -1.2 1 0.00219554 0.00406171 0.00111577 0.00637239 0.00136437 0.00635525 0.00163771 0.021506 0.00232234 0.00837661 0.00189955 0.0283285 0.00210363 0.0202501 0.00259326 0.0345177 0.00349218 0.0248197 0.00347329 0.0535086
61 3 O -1.27557 74.8042 1.6321 -1.2 1 0.00163532 0.00364923 0.000844488 0.00629055 0.00132129 0.00736408 0.00126575 0.0220576 0.0016098 0.00845809 0.00192674 0.0290441 0.00212899 0.020102 0.00285785 0.0348343 0.00268315 0.0258219 0.00336133 0.0526949
62 3 O -0.952867 71.8531 0.320428 -1.2 1 0.00270825 0.00423249 0.00158063 0.00616411 0.00178832 0.00630767 0.00200428 0.0222604 0.00176243 0.00860289 0.00225307 0.0279235 0.00282982 0.0203776 0.00300883 0.0350187 0.00335467 0.0260979 0.00327488 0.053125
63 1 Mg -2.46498 80.4682 3.1477 1.2 1 0.00172094 0.00321695 0.000872507 0.00566807 0.000843041 0.00750926 0.00127418 0.0216713 0.00158287 0.00814981 0.00155126 0.0286276 0.00261356 0.0195046 0.00270989 0.0330833 0.0036799 0.0246677 0.0025645 0.0482868
64 3 O -1.00695 71.8537 2.97548 -1.2 1 0.00175772 0.00373806 0.000993886 0.00604174 0.00148272 0.00631146 0.00215665 0.0220336 0.00151796 0.00870898 0.00178846 0.0275922 0.00221587 0.02093 0.00230753 0.0342774 0.00253642 0.0248815 0.00264377 0.0527817
65 1 Mg -2.20052 77.6112 4.6388 1.2 1 0.00138998 0.00322783 0.00121662 0.00600169 0.0010101 0.00683811 0.00100083 0.0223909 0.00199943 0.00847709 0.00209666 0.0284468 0.00268031 0.0207279 0.00301233 0.0343256 0.00340207 0.0254379 0.0034208 0.0524196
66 2 Si 0.302021 79.4358 4.56032 2.4 1 0.00174313 0.00305103 0.000951547 0.00677855 0.00124306 0.0079284 0.00159915 0.022339 0.00139216 0.00801605 0.00168433 0.0273881 0.00299956 0.020895 0.00327601 0.0330494 0.00434595 0.0250692 0.00217828 0.0519977
67 3 O -1.26147 79.5452 4.54267 -1.2 1 0.00170456 0.00324366 0.0010561 0.00624055 0.000943271 0.00713091 0.0014684 0.0216904 0.00178462 0.00790055 0.00116448 0.0281884 0.0024514 0.0196981 0.00247027 0.0334999 0.00391326 0.0244191 0.00262371 0.0503312
68 3 O 1.42278 75.8596 4.72389 -1.2 1 0.00153331 0.00327465 0.0010032 0.00618886 0.000949866 0.00682317 0.00112475 0.0226199 0.001567 0.00816441 0.00220557 0.0288645 0.00266113 0.0205499 0.00291341 0.0340011 0.00376229 0.0254205 0.00364801 0.0526247
69 3 O 1.02515 78.7404 3.37751 -1.2 1 0.00106413 0.00322394 0.000577512 0.00577556 0.000819853 0.00700507 0.00165838 0.0217033 0.00177955 0.00819591 0.00172697 0.0278231 0.00285401 0.0201333 0.00299317 0.0339778 0.00391676 0.0249755 0.00266623 0.0508601
70 3 O 0.990975 78.8395 5.89084 -1.2 1 0.00126302 0.00305871 0.000812373 0.00611555 0.00139074 0.00694402 0.00190516 0.0225112 0.00186902 0.00801963 0.00201295 0.0277235 0.00284851 0.0207959 0.00375652 0.0335127 0.00455739 0.0250494 0.00244546 0.0510012
71 1 Mg 0.0569543 75.1925 3.1028 1.2 1 0.00106026 0.00383728 0.000609414 0.00594165 0.000863214 0.00655497 0.00107164 0.0218762 0.00129382 0.00878175 0.00126492 0.0292173 0.00171625 0.0202761 0.00168629 0.0346041 0.00214785 0.0252148 0.00325026 0.051651
72 1 Mg -0.00476256 72.383 4.56697 1.2 1 0.00174417 0.00335541 0.00107751 0.0059639 0.000992853 0.00610811 0.00129835 0.0222905 0.00250994 0.0085773 0.00208717 0.0282888 0.00238327 0.021204 0.00300913 0.0339938 0.00256666 0.0244954 0.00337234 0.0526275
73 2 Si 2.12177 74.3828 4.74032 2.4 1 0.00189193 0.00343827 0.000796459 0.00645925 0.0014447 0.00677466 0.00176331 0.0224763 0.00207381 0.00810193 0.00208522 0.0280219 0.00239075 0.0212813 0.00288877 0.0335807 0.00300173 0.024446 0.00329543 0.0533552
74 3 O -1.0735 74.4503 4.72449 -1.2 1 0.00125031 0.0035945 0.000805029 0.00608913 0.00123837 0.00674497 0.00142635 0.0221096 0.00241529 0.00823219 0.00148821 0.0284414 0.00205558 0.0204223 0.00235103 0.0342856 0.00240879 0.024928 0.00354853 0.0530789
75 3 O 1.17324 70.5473 4.76987 -1.2 1 0.000575734 0.00373677 0.000626716 0.00622697 0.00101543 0.0068178 0.00127554 0.0220126 0.00126019 0.00811896 0.00251465 0.0280285 0.00196009 0.0202332 0.00310088 0.0328571 0.00327482 0.0245602 0.00291124 0.0520861
76 3 O 1.43887 73.6488 3.54085 -1.2 1 0.00197095 0.00364442 0.00107266 0.00612356 0.00128434 0.00633992 0.00189521 0.0221226 0.00188902 0.00859577 0.00179454 0.0278315 0.00200312 0.0206992 0.00277486 0.0345164 0.00287587 0.0252269 0.00314325 0.052267
77 1 Mg 0.0117107 75.4448 0.0179752 1.2 1 0.00138841 0.00393872 0.00089994 0.00596913 0.00124975 0.0072087 0.001129 0.0218136 0.00101364 0.00848977 0.00128406 0.028681 0.00103544 0.0197977 0.00212032 0.0353261 0.00228895 0.0267212 0.00223552 0.052708
78 3 O 1.49207 73.7502 5.98829 -1.2 1 0.00161533 0.00345737 0.000529081 0.00596443 0.00170834 0.00634543 0.00193989 0.0224157 0.00220437 0.00829666 0.00227432 0.0273385 0.00291802 0.0208647 0.00327129 0.0339588 0.00333097 0.0244291 0.00334723 0.052635
79 1 Mg 0.103488 78.1436 1.67026 1.2 1 0.00139976 0.00383728 0.000891642 0.0056782 0.00111552 0.00681499 0.0012403 0.0215916 0.00249214 0.00845456 0.00196399 0.0287774 0.00289207 0.0203866 0.00322931 0.0342703 0.00392765 0.0252478 0.004448 0.0510455
80 2 Si -2.04609 76.1703 1.54905 2.4 1 0.00124141 0.00403272 0.000689855 0.0064357 0.00183481 0.00737154 0.00166013 0.0218203 0.00188768 0.00826707 0.00247498 0.0281292 0.00197067 0.0207617 0.00378303 0.0339959 0.00329647 0.0254713 0.00419333 0.0528734
81 3 O 1.135 76.0783 1.67088 -1.2 1 0.000508926 0.00394374 0.000700199 0.00620328 0.00183916 0.00709802 0.00181457 0.0216299 0.00223713 0.00819826 0.00161629 0.0287355 0.00178186 0.019917 0.00245416 0.0349783 0.00302116 0.0258237 0.00348896 0.0527622
82 3 O -1.1215 79.9259 1.74908 -1.2 1 0.00122063 0.0035775 0.000471833 0.00596256 0.000754289 0.00771346 0.00157048 0.0219301 0.00151955 0.00789733 0.00181536 0.0284137 0.00279766 0.0198116 0.00292737 0.0336284 0.00360808 0.025035 0.00348429 0.0497319
83 3 O -1.45453 76.8631 0.241438 -1.2 1 0.000722262 0.0040326 0.000728225 0.00563273 0.00166427 0.00708345 0.00163122 0.0223399 0.0016286 0.00843447 0.00185244 0.0278941 0.00177704 0.0205475 0.00327073 0.0352325 0.00235897 0.0264533 0.00360797 0.052684
84 3 O -1.38652 76.9539 2.76872 -1.2 1 0.000695219 0.00352998 0.000481761 0.00567714 0.00162544 0.00657194 0.00130051 0.0217158 0.00182789 0.00816655 0.0016553 0.0282175 0.0025397 0.0207121 0.0030715 0.0345149 0.00279149 0.0250186 0.00395445 0.0521415
85 1 Mg -2.51131 80.3804 0.323609 1.2 1 0.00165087 0.00392261 0.000946873 0.00581114 0.000868084 0.00728309 0.00162215 0.0211784 0.00135831 0.0079702 0.001578 0.0283327 0.00209224 0.0194508 0.00230375 0.0332406 0.0031834 0.0247936 0.00311553 0.0481612
86 1 Mg 2.41402 83.5014 1.36366 1.2 1 0.00158172 0.0032504 0.00140833 0.00589596 0.00074416 0.00719628 0.00186183 0.0206797 0.001908 0.00794332 0.00203381 0.0268364 0.00234839 0.0202341 0.0030223 0.0334069 0.00349657 0.0248073 0.00337675 0.0439645
87 2 Si -0.308216 81.4176 1.67749 2.4 1 0.0022342 0.00339959 0.00101015 0.00693341 0.00194139 0.00766566 0.00214915 0.021231 0.00161265 0.00802349 0.00241773 0.0266499 0.00248738 0.0206324 0.00366281 0.0332432 0.00302346 0.0241861 0.00405734 0.0477417
88 3 O 1.18626 81.2648 1.64431 -1.2 1 0.00211552 0.00306149 0.000897814 0.00623614 0.0012842 0.00751898 0.00182192 0.0211597 0.00227653 0.00768803 0.00193731 0.0277335 0.0025877 0.0195485 0.00267666 0.0338573 0.00368834 0.0245132 0.0035609 0.0477827
89 3 O -1.44772 85.3334 1.43068 -1.2 1 0.000526976 0.00310291 0.00128337 0.00631899 0.000937156 0.00790303 0.0017794 0.0204893 0.00187635 0.00801827 0.00186449 0.0263271 0.00245571 0.0202912 0.00369223 0.0327468 0.00369702 0.0248291 0.00398636 0.0426739
90 3 O -0.978532 82.1096 0.39673 -1.2 1 0.00211852 0.00358526 0.00101281 0.00601828 0.00161136 0.00715363 0.00216368 0.0205646 0.00159407 0.0079619 0.00181885 0.0264379 0.00259147 0.0199919 0.00270187 0.0337964 0.00342628 0.0247348 0.00397588 0.0460114
91 1 Mg -2.35885 91.0856 3.50576 1.2 1 0.00382495 0.00342293 0.00132012 0.00580752 0.00178378 0.00701696 0.00123123 0.0200261 0.00186316 0.00856026 0.00268243 0.0258629 0.0031331 0.0197098 0.00368079 0.0330098 0.00361191 0.0239168 0.00629139 0.0412112
92 3 O -1.08995 82.087 2.93991 -1.2 1 0.00273746 0.00312928 0.00119349 0.00611483 0.00219485 0.00753991 0.00248811 0.0218562 0.00222066 0.00833242 0.00245075 0.0268493 0.00266398 0.0202191 0.00327711 0.0338528 0.0031723 0.0249842 0.00426699 0.0473468
93 1 Mg -2.17231 87.976 4.40908 1.2 1 0.00290036 0.00273559 0.00123371 0.00582456 0.00134903 0.00682367 0.00183445 0.0202174 0.00236954 0.00871078 0.00177252 0.0262825 0.00265537 0.0204871 0.00401125 0.0332327 0.00320012 0.0240613 0.0038437 0.0404745
94 2 Si 0.425083 89.8669 4.91823 2.4 1 0.00427748 0.00308633 0.00109094 0.00595585 0.00171641 0.00713545 0.00141624 0.0204605 0.0020313 0.00831076 0.00305629 0.02509 0.0029414 0.0204435 0.00441929 0.0323186 0.00406787 0.0235712 0.00594186 0.0413865
95 3 O -1.16807 90.038 4.80064 -1.2 1 0.00393333 0.00291537 0.00130912 0.0058362 0.00166471 0.00702814 0.00128116 0.0201432 0.00228515 0.00809998 0.00241904 0.0260235 0.00276846 0.0195488 0.00377648 0.0328165 0.00370518 0.0234696 0.00578088 0.0413707
96 3 O 1.41531 86.151 4.3512 -1.2 1 0.00110439 0.00261455 0.00156436 0.00629775 0.00131969 0.00741757 0.00179127 0.0209852 0.00185979 0.00806512 0.00276436 0.0265942 0.00308033 0.019948 0.00331938 0.0330705 0.00336408 0.0243395 0.00337432 0.0422306
97 3 O 1.04696 89.2798 3.64185 -1.2 1 0.0037306 0.00302555 0.00114167 0.00585342 0.00154731 0.0071338 0.00149465 0.0202064 0.00220744 0.00875647 0.00226711 0.0255445 0.00262803 0.0202542 0.00414186 0.0330861 0.00426724 0.024072 0.00586617 0.0410309
98 3 O 1.00434 89.2044 6.18667 -1.2 1 0.00380467 0.00282519 0.00095204 0.00561052 0.00141557 0.0072088 0.00142233 0.0214029 0.00223746 0.00836146 0.00263612 0.0252776 0.00245605 0.0207932 0.00364514 0.0325993 0.00351909 0.0238369 0.00454652 0.0424394
99 1 Mg 0.0569191 85.6049 2.70665 1.2 1 0.0010218 0.00306737 0.00112195 0.00619124 0.00101248 0.00758382 0.00134774 0.020191 0.002224 0.00802504 0.00211125 0.0263101 0.00235039 0.0198377 0.00316547 0.0327297 0.0033302 0.0242363 0.00358005 0.0421181
100 1 Mg -0.130303 82.7172 4.57356 1.2 1 0.00173741 0.00272053 0.00134643 0.00640218 0.00136385 0.00742401 0.00146242 0.0215511 0.00218695 0.00841599 0.00258324 0.0275417 0.00246422 0.0201444 0.00342081 0.0332815 0.00390982 0.0247467 0.00475696 0.045915
101 2 Si 2.0773 84.6398 4.4119 2.4 1 0.000653003 0.00280085 0.00158892 0.00694549 0.000904421 0.00749156 0.00165176 0.0210543 0.00222117 0.00790668 0.00296886 0.02651 0.00298773 0.0203932 0.00428399 0.0329603 0.00473649 0.0239484 0.00410979 0.0441287
102 3 O -1.16574 84.8188 4.45941 -1.2 1 0.000191062 0.00287067 0.00143211 0.00663355 0.0010554 0.00746411 0.00173393 0.0206652 0.00254437 0.00769032 0.0023639 0.026504 0.00240075 0.0195834 0.00270746 0.0334509 0.00408925 0.0242994 0.00422369 0.0434954
103 3 O 0.929733 80.9705 4.52064 -1.2 1 0.00250803 0.00308806 0.00143381 0.00620954 0.00147738 0.00759484 0.00121138 0.0221433 0.00150294 0.00788885 0.00211696 0.0280399 0.00322176 0.0197061 0.00334334 0.0331617 0.00392199 0.0245826 0.00393597 0.0487862
104 3 O 1.40926 84.0832 3.09669 -1.2 1 0.00111319 0.00304349 0.00128812 0.00602574 0.00070146 0.00734866 0.0014544 0.0215215 0.00200679 0.00812173 0.00230219 0.026215 0.00318743 0.0210606 0.00382299 0.0331561 0.00424789 0.0246473 0.00313902 0.0443012
105 1 Mg 0.09556 85.5507 0.0479712 1.2 1 0.000809958 0.00324908 0.00084031 0.00555679 0.000931153 0.00754968 0.00128361 0.0197515 0.00162703 0.0083842 0.00153718 0.0270396 0.00219319 0.01965 0.00270779 0.0330756 0.00309201 0.0245649 0.0030287 0.0415268
106 3 O 1.33497 83.951 5.69643 -1.2 1 0.000785277 0.00305812 0.00161562 0.00644458 0.00107786 0.00719157 0.00192859 0.0210152 0.00221707 0.00820604 0.00240044 0.0263335 0.0029009 0.0206863 0.00337757 0.0335307 0.00372844 0.0241648 0.00396366 0.0450575
107 1 Mg 0.280043 88.6796 1.9385 1.2 1 0.00278431 0.00321803 0.00119614 0.00597345 0.00141791 0.00728348 0.00126239 0.0200728 0.00198721 0.00941793 0.00239812 0.026091 0.00276557 0.0204796 0.0044053 0.0334443 0.0043914 0.0250313 0.00515422 0.0403564
108 2 Si -2.00275 86.8465 1.36077 2.4 1 0.00147406 0.0032465 0.00106547 0.00647862 0.00185851 0.00783463 0.0021797 0.0197503 0.00161761 0.00852585 0.0025235 0.0253357 0.00261151 0.0205516 0.00393004 0.0331638 0.00390835 0.0247636 0.00381289 0.0414211
109 3 O 1.17121 86.6476 1.42133 -1.2 1 0.00106972 0.00314584 0.00103643 0.00635874 0.00154049 0.00757862 0.00164353 0.0192548 0.00231545 0.00803082 0.00220562 0.026436 0.00264474 0.0195756 0.00389293 0.0334923 0.00417789 0.0243868 0.00407031 0.0415567
110 3 O -1.07985 90.39 1.88525 -1.2 1 0.00410949 0.0034032 0.00147332 0.00648713 0.00149661 0.00769395 0.00127711 0.0203979 0.00190411 0.00888319 0.00169329 0.0264306 0.00286219 0.0193919 0.0046759 0.0325902 0.00372794 0.0248844 0.00537783 0.0412049
111 3 O -1.39737 87.5137 0.0679144 -1.2 1 0.00105695 0.00319336 0.000883478 0.00591871 0.00131605 0.00769687 0.00158412 0.0203393 0.00211243 0.00890097 0.0022179 0.0260157 0.00284427 0.0204621 0.00328553 0.0335007 0.00421444 0.0256394 0.00379882 0.0420531
112 3 O -1.3546 87.5447 2.56147 -1.2 1 0.00245608 0.00308446 0.00165267 0.00603482 0.00176391 0.00740158 0.00213875 0.0197757 0.00184263 0.00836934 0.00211375 0.0255508 0.00314975 0.020379 0.0036583 0.033056 0.00394314 0.024509 0.00465534 0.0407521
113 1 Mg -2.22235 90.7788 0.255548 1.2 1 0.00329544 0.00361811 0.00134256 0.00652671 0.00162785 0.00764076 0.00111249 0.0203441 0.00171613 0.00911437 0.00204798 0.0267512 0.00241471 0.0190926 0.00344211 0.0329031 0.00331969 0.025868 0.00501317 0.0411122
114 1 Mg 2.42851 93.6992 1.81952 1.2 1 0.0036901 0.00430884 0.00205213 0.00631846 0.00135973 0.00684143 0.00129031 0.0207902 0.00211956 0.00846026 0.00263479 0.0272359 0.00308308 0.0195522 0.00437477 0.0331609 0.00388422 0.0255207 0.00715712 0.0437274
115 2 Si -0.302024 91.8337 1.91572 2.4 1 0.00414769 0.00366104 0.00186951 0.00670438 0.00160201 0.00736411 0.00161309 0.0199977 0.0019243 0.00885277 0.00227854 0.0261052 0.00345648 0.0199217 0.00427539 0.0327246 0.00355886 0.024862 0.00571502 0.0425033
116 3 O 1.25711 91.8633 1.86719 -1.2 1 0.0040729 0.00396251 0.00161587 0.00655467 0.00158091 0.00696047 0.00149233 0.0195802 0.00211246 0.00894708 0.00204514 0.0264468 0.0027413 0.0194981 0.00396305 0.0334142 0.00366174 0.0252173 0.00655053 0.0422562
117 3 O -1.28992 95.4963 1.66703 -1.2 1 0.00399855 0.00422906 0.00235946 0.00649749 0.00167347 0.00754084 0.00112547 0.0214336 0.00193167 0.00792489 0.00206556 0.0273733 0.00268153 0.0193436 0.00417529 0.0326185 0.00366296 0.0255034 0.00668941 0.0460181
118 3 O -0.923039 92.5072 0.618133 -1.2 1 0.00368167 0.00423795 0.00197065 0.00642715 0.00143718 0.00707781 0.0013649 0.0200846 0.00178574 0.00921953 0.00253561 0.026373 0.00343 0.019634 0.00383163 0.0331946 0.00318317 0.0256458 0.00531451 0.0425138
119 1 Mg -2.22471 101.16 3.28633 1.2 1 0.00284553 0.0035547 0.00140594 0.00510204 0.0012706 0.0069501 0.00113698 0.022791 0.00148223 0.00791618 0.00190673 0.0288211 0.00167856 0.0188509 0.00299198 0.0314362 0.00348049 0.023581 0.00297648 0.0495189