ITEM: TIMESTEP
3600
ITEM: NUMBER OF ATOMS
5600
ITEM: BOX BOUNDS xy xz yz pp pp pp
0	7.1235	0
0	201.985	2.3745
0	119.584	0
ITEM: ATOMS id type element xu yu zu q Q_1 Q_2 Q_3 Q_4 Q_5 Q_6 Q_7 Q_8 Q_9 Q_10 Q_11 Q_12 Q_13 Q_14 Q_15 Q_16 Q_17 Q_18 Q_19 Q_20 Q_21
1 1 Mg -1.40868 48.4753 -1.03444 1.2 1 0.246998 0.0775416 0.0235162 0.0262828 0.00608614 0.0154931 0.00507402 0.0155209 0.00539721 0.0216724 0.00633513 0.0245356 0.00683306 0.0246312 0.00807234 0.0191584 0.0096871 0.0212356 0.0101551 0.0240622
2 1 Mg 3.16535 51.6746 1.56299 1.2 1 0.169593 0.0621826 0.00898135 0.0176986 0.00273428 0.00988864 0.00328211 0.0165188 0.00434945 0.018174 0.00532226 0.0245156 0.00474163 0.0228288 0.00723993 0.0229375 0.00700901 0.0194105 0.00769335 0.0303346
3 2 Si 0.810156 50.3953 -0.0864694 2.4 1 0.202218 0.0696076 0.0134591 0.0200998 0.00330526 0.0113684 0.0034598 0.015001 0.00515055 0.0200817 0.00566803 0.0240229 0.00406622 0.0243686 0.00607668 0.020288 0.00723357 0.0186309 0.00854671 0.0257321
4 3 O 1.61563 49.0331 -0.0290579 -1.2 1 0.231567 0.075514 0.0202815 0.0241881 0.00456682 0.0140876 0.00379936 0.0155274 0.00642395 0.0218255 0.00675892 0.0240898 0.00573425 0.025321 0.00875047 0.0199123 0.00897309 0.020502 0.00982071 0.0258366
5 3 O -1.05232 53.6973 1.36456 -1.2 1 0.124386 0.0501545 0.00291589 0.0135563 0.00165645 0.00895657 0.00265101 0.0163087 0.0031439 0.0156193 0.00351558 0.0243766 0.00393546 0.0202236 0.00437762 0.0239755 0.00607926 0.0184125 0.00655266 0.0322154
6 3 O -0.249756 50.0608 -1.21389 -1.2 1 0.208746 0.0709411 0.0144925 0.0210406 0.0039309 0.0121336 0.00388291 0.0145954 0.00407288 0.0197328 0.00485576 0.0236272 0.00491579 0.0241901 0.00598678 0.0200428 0.00835952 0.0197005 0.00774491 0.0244684
7 1 Mg -2.11214 59.2779 3.1795 1.2 1 0.0114541 0.0144679 0.00677828 0.00637381 0.00152951 0.00614088 0.00241736 0.0213789 0.0029174 0.0118875 0.00281785 0.0276772 0.00350021 0.019946 0.00411254 0.0307309 0.00490153 0.0236838 0.00499982 0.0419149
8 3 O 0.100801 50.8388 1.30523 -1.2 1 0.183778 0.0679436 0.00848181 0.0190369 0.002107 0.0102249 0.00336518 0.0154922 0.00523966 0.0187103 0.00545688 0.024144 0.00427195 0.0238295 0.00605833 0.0215035 0.00773011 0.0184921 0.00817907 0.0282963
9 1 Mg -1.90181 56.3728 4.50065 1.2 1 0.0623282 0.0352033 0.00677417 0.0100503 0.00194551 0.00637009 0.00212764 0.0198035 0.00321341 0.0141875 0.00271129 0.0267118 0.00376741 0.0200797 0.00486258 0.0295156 0.00430026 0.0226304 0.00510941 0.0387914
10 2 Si 0.649558 58.4 4.64548 2.4 1 0.0228969 0.0203546 0.00802326 0.00741641 0.00162966 0.00612 0.00244912 0.0212042 0.00282701 0.0118361 0.00335622 0.0265303 0.00422288 0.0207106 0.00453424 0.0308138 0.00492653 0.0235701 0.00482479 0.0417248
11 3 O -0.912768 58.4492 4.58053 -1.2 1 0.0231097 0.0202786 0.00786034 0.00745923 0.00169426 0.00576339 0.00250565 0.0206167 0.00273265 0.0116854 0.00255368 0.0266043 0.00390785 0.0200484 0.00376813 0.0306278 0.00546639 0.0228333 0.00535096 0.0416782
12 3 O 1.7767 54.5498 4.44426 -1.2 1 0.101792 0.0475439 0.00229948 0.0140063 0.00209102 0.0077824 0.00239015 0.0184335 0.00407078 0.0161433 0.0034015 0.0271331 0.00457472 0.0209214 0.00466566 0.0276364 0.00560698 0.0218753 0.00550616 0.0362818
13 3 O 1.35004 57.661 3.41254 -1.2 1 0.0328601 0.0255125 0.00868712 0.00757998 0.0015532 0.00623373 0.00202662 0.0205149 0.00319211 0.0126785 0.00246495 0.0268169 0.00368356 0.0205133 0.00475741 0.0305295 0.00450719 0.0226212 0.00481029 0.040203
14 3 O 1.28817 57.7513 5.97026 -1.2 1 0.0363218 0.0252753 0.00735486 0.00779696 0.00146623 0.0062926 0.00201858 0.0214596 0.00307949 0.0120915 0.00204852 0.0275853 0.0034177 0.0204011 0.00419099 0.0303207 0.00377093 0.0228629 0.00443697 0.040921
15 1 Mg 0.399599 54.0816 2.78357 1.2 1 0.110545 0.0491966 0.00149907 0.0132866 0.00175469 0.00812868 0.00285052 0.0167494 0.00350338 0.0158093 0.0038618 0.0256874 0.00512101 0.019679 0.00592285 0.0248315 0.00579454 0.0195168 0.00551328 0.0336469
16 1 Mg 0.911129 50.4034 2.98838 1.2 1 0.204224 0.0712744 0.0126443 0.021442 0.00280233 0.0121619 0.00428101 0.016169 0.00616478 0.0192159 0.00658697 0.0253762 0.00527208 0.0246978 0.00680118 0.0223424 0.00872971 0.0197109 0.00812629 0.0307633
17 2 Si 2.52041 53.1438 4.32665 2.4 1 0.136401 0.056544 0.00146351 0.016402 0.00267045 0.0088939 0.00301174 0.0175886 0.00411715 0.0169509 0.0046841 0.0266665 0.00506602 0.0225296 0.00551076 0.0267285 0.00613743 0.0211104 0.00550361 0.0340567
18 3 O -0.697734 53.2769 4.3191 -1.2 1 0.128601 0.0551796 0.000820062 0.0152037 0.00221698 0.00793406 0.00281427 0.0176422 0.00449771 0.0166375 0.00391874 0.0270545 0.00515431 0.0218755 0.00565732 0.0265332 0.00556987 0.0206377 0.00577756 0.0347835
19 3 O 2.67725 49.7469 2.9149 -1.2 1 0.217462 0.0747171 0.01479 0.0229648 0.00311059 0.0122223 0.00407598 0.0168788 0.00635023 0.0202971 0.00698062 0.025401 0.00578789 0.0261627 0.00871349 0.0229633 0.0100814 0.0212168 0.00870339 0.0305164
20 3 O 1.83009 52.4321 2.99555 -1.2 1 0.149936 0.0592506 0.00442138 0.0162738 0.00226632 0.00883388 0.00323356 0.017026 0.00422678 0.017194 0.00401333 0.0257771 0.00481993 0.0222002 0.00557411 0.0245444 0.00654741 0.0194503 0.00637158 0.0326327
21 1 Mg 0.184126 54.4371 -0.171457 1.2 1 0.108131 0.0465762 0.00124842 0.0115511 0.00173359 0.00777111 0.00320511 0.0160502 0.00371541 0.0158778 0.0031414 0.0239728 0.00427369 0.0205534 0.00532715 0.0246748 0.00558332 0.0185244 0.00647568 0.0308929
22 3 O 1.82254 52.3134 5.5686 -1.2 1 0.1577 0.0617706 0.00439813 0.0179073 0.00273528 0.00949752 0.00329043 0.018036 0.00465411 0.0181349 0.00407425 0.0281154 0.00602065 0.024077 0.00587953 0.0271452 0.00572557 0.0210491 0.00622675 0.0333584
23 1 Mg 0.335639 57.1271 1.66793 1.2 1 0.0410544 0.0282145 0.00786021 0.00811196 0.00148016 0.00656961 0.00199069 0.0185989 0.00393967 0.0127103 0.00346541 0.0260381 0.00436867 0.0194046 0.00430838 0.0283078 0.00569686 0.0211035 0.00547045 0.0374908
24 2 Si -1.68832 55.2207 1.55418 2.4 1 0.0921725 0.0427943 0.00281565 0.0108844 0.00177265 0.00748993 0.00267353 0.0166535 0.00392764 0.0142637 0.00352015 0.0245622 0.00407149 0.0200762 0.00501765 0.0250622 0.00636055 0.0188495 0.00628579 0.033822
25 3 O 1.47748 55.0737 1.51671 -1.2 1 0.096906 0.0428634 0.00171354 0.0115603 0.0015416 0.00759691 0.00251134 0.0162386 0.00372988 0.0145899 0.00401748 0.0243305 0.0045353 0.0191884 0.00557053 0.0255625 0.00536165 0.0191127 0.00596483 0.0330089
26 3 O -0.75296 58.8777 1.49602 -1.2 1 0.0155019 0.016671 0.00787437 0.00644576 0.00119202 0.00613666 0.00166262 0.0207815 0.00354785 0.0122764 0.00343963 0.0267195 0.00413716 0.0202398 0.00456226 0.0301366 0.00564653 0.0232783 0.0050696 0.0400331
27 3 O -0.955655 56.0402 0.3144 -1.2 1 0.0669479 0.0358131 0.00506678 0.00867703 0.00195533 0.00657825 0.00183473 0.017589 0.00376927 0.0143156 0.00289175 0.0236454 0.00411914 0.020144 0.00448208 0.0269666 0.00549436 0.0207023 0.00562095 0.03408
28 3 O -1.00815 55.858 2.88282 -1.2 1 0.0736469 0.038544 0.00543222 0.0107879 0.0020334 0.0066811 0.00221971 0.0180347 0.00436441 0.0142331 0.00367697 0.0255251 0.00402617 0.0197715 0.00531319 0.0279774 0.00570986 0.0210254 0.00558401 0.0367443
29 1 Mg -2.16673 59.2997 0.196659 1.2 1 0.0113188 0.0140742 0.00586283 0.00606024 0.00155425 0.00668761 0.00164253 0.0203496 0.00297615 0.012596 0.0026238 0.026145 0.00347134 0.0202622 0.00402137 0.0302385 0.00466846 0.0230692 0.00459338 0.0394154
30 1 Mg 2.43864 62.3857 1.49733 1.2 1 0.00173074 0.00621612 0.00223247 0.00751923 0.00126647 0.00621858 0.00171728 0.0226759 0.00236359 0.0110739 0.00314006 0.0279161 0.00256732 0.0210705 0.0037031 0.0321248 0.00377642 0.025327 0.00415184 0.0443864
31 2 Si -0.100944 60.3656 1.76037 2.4 1 0.00476951 0.00991204 0.004498 0.00761369 0.00137911 0.00598405 0.00174431 0.0212893 0.00240813 0.0115627 0.00330289 0.0263402 0.00324097 0.0212353 0.00411326 0.0304952 0.00542441 0.0240898 0.0044695 0.0431467
32 3 O 1.43542 60.2555 1.79096 -1.2 1 0.00593277 0.0105107 0.00489933 0.0069158 0.00116917 0.00562335 0.00143024 0.0214976 0.00329603 0.0111667 0.003366 0.02707 0.0029842 0.0206587 0.00392965 0.0313778 0.00428268 0.0239542 0.00486554 0.0423065
33 3 O -1.36031 64.313 1.5406 -1.2 1 0.00178912 0.00592915 0.00132445 0.00804771 0.00106328 0.00581205 0.00163711 0.023578 0.00142204 0.0111046 0.00267731 0.0288653 0.00243419 0.0206635 0.00307865 0.0317366 0.00422603 0.0256291 0.00371666 0.0451509
34 3 O -0.829254 61.2659 0.584864 -1.2 1 0.00276812 0.00765126 0.00321118 0.00669306 0.00136985 0.00625945 0.00162982 0.0216029 0.0024152 0.0111405 0.00274659 0.0273097 0.00270782 0.0211806 0.00366515 0.0312205 0.00502226 0.0243489 0.00392227 0.0430406
35 1 Mg -2.15842 70.0582 3.27513 1.2 1 0.00696299 0.00492962 0.00142594 0.00731467 0.00144283 0.00563107 0.00101474 0.0232959 0.00159241 0.00998296 0.00222894 0.0296816 0.00219743 0.0209017 0.00197895 0.03294 0.00203267 0.0246812 0.00312661 0.0477934
36 3 O -0.743624 60.9982 2.99344 -1.2 1 0.00238759 0.00895667 0.00373358 0.00685661 0.00159152 0.00604709 0.00214311 0.0219679 0.0026582 0.0110034 0.00258505 0.0276807 0.0033286 0.0209514 0.00356984 0.0314249 0.00514893 0.0242907 0.0048403 0.0430777
37 1 Mg -2.32293 67.0461 4.53364 1.2 1 0.00353027 0.00450599 0.00132789 0.00760475 0.00112659 0.00549574 0.00127462 0.0237631 0.00176861 0.0109281 0.00172766 0.029536 0.00232404 0.0205972 0.00303076 0.0331806 0.00273867 0.0255286 0.0031448 0.0468073
38 2 Si 0.451599 69.0343 4.74167 2.4 1 0.00573553 0.00455771 0.00167567 0.00802759 0.00147425 0.00553695 0.00185764 0.0231613 0.00140794 0.0103709 0.00275932 0.0288454 0.00197748 0.0211252 0.00362454 0.0324523 0.00255878 0.0246011 0.00349702 0.0488058
39 3 O -1.10711 69.1473 4.65173 -1.2 1 0.00578311 0.00437131 0.00143999 0.00773927 0.00111325 0.00534296 0.00159371 0.0230597 0.00184037 0.00989418 0.0020224 0.029442 0.0025306 0.0205324 0.00242273 0.0330063 0.00258966 0.0246989 0.00324954 0.0480388
40 3 O 1.50555 65.2599 4.64179 -1.2 1 0.00216095 0.00503419 0.0015153 0.00846807 0.00121659 0.00560675 0.00173758 0.023689 0.00177475 0.0105105 0.00241802 0.0290805 0.00298547 0.0203146 0.00333849 0.032328 0.00275729 0.0250314 0.00387178 0.0463632
41 3 O 1.12479 68.3357 3.33195 -1.2 1 0.00489945 0.00493361 0.00127704 0.00757327 0.000982476 0.00540104 0.00173023 0.0234044 0.00183118 0.0101246 0.00221198 0.0286696 0.0020407 0.0209842 0.00273639 0.0327686 0.00258594 0.0251428 0.00280878 0.0475494
42 3 O 1.17273 68.3106 6.05538 -1.2 1 0.00520887 0.00417553 0.00103375 0.00700694 0.00131877 0.00550637 0.00182106 0.0239551 0.0018546 0.0100985 0.00235202 0.0292419 0.00222882 0.0211473 0.00289611 0.0332614 0.00178939 0.0251648 0.0034342 0.0483876
43 1 Mg 0.0537524 65.0239 3.16427 1.2 1 0.00150532 0.00550148 0.00138402 0.00797674 0.00113832 0.00655244 0.0016832 0.0235863 0.00150348 0.011003 0.00178787 0.0299749 0.00202512 0.0201109 0.00326095 0.0320281 0.00346157 0.0255133 0.00366701 0.0446629
44 1 Mg 0.333968 61.6861 4.53289 1.2 1 0.00165728 0.00776649 0.00216363 0.00722373 0.00159428 0.00644484 0.0016507 0.0228639 0.0026176 0.0112057 0.00249822 0.0279688 0.00265916 0.0204485 0.00258094 0.0313768 0.00417289 0.0248882 0.00507878 0.0439414
45 2 Si 2.21259 63.7088 4.60886 2.4 1 0.00190317 0.00547584 0.00125736 0.0090467 0.00136003 0.00551168 0.00202797 0.0231273 0.00199329 0.0104992 0.00274017 0.0281195 0.00264886 0.0204859 0.00420178 0.0319796 0.00328925 0.0247888 0.00421909 0.0457744
46 3 O -0.959102 63.8201 4.62425 -1.2 1 0.00127359 0.00546622 0.00129044 0.00890838 0.0013636 0.00555089 0.00155497 0.0228526 0.00322157 0.0104222 0.0024516 0.0283678 0.00269943 0.0205612 0.00288816 0.0321491 0.00335686 0.0248455 0.00414292 0.0460545
47 3 O 1.36471 59.8542 4.74677 -1.2 1 0.00970064 0.013597 0.00515687 0.00677365 0.0018088 0.00632901 0.00229762 0.0222071 0.00288513 0.0116238 0.00280077 0.0275168 0.00349866 0.0204095 0.00389278 0.0312167 0.00546456 0.0241826 0.00479612 0.0431451
48 3 O 1.52761 63.0582 3.35704 -1.2 1 0.00125647 0.0059641 0.00146683 0.00795912 0.00172332 0.00600426 0.0020046 0.0228069 0.00194973 0.0104613 0.00227927 0.0279645 0.00297004 0.0209496 0.00329677 0.0326811 0.00373035 0.0251901 0.00396738 0.0449756
49 1 Mg 0.080238 64.625 0.00408418 1.2 1 0.00197168 0.00539238 0.000650967 0.00782466 0.00082137 0.00559308 0.00128452 0.0229751 0.00157726 0.0104954 0.00185798 0.0291964 0.00164313 0.0204753 0.00269009 0.0320239 0.00252373 0.0256654 0.00245508 0.0447212
50 3 O 1.61814 62.9825 5.88917 -1.2 1 0.00244582 0.00566177 0.00134108 0.00848956 0.00127866 0.00599534 0.00185261 0.0233243 0.00184386 0.0106472 0.00144635 0.0282606 0.00259581 0.020816 0.00290717 0.0323212 0.00337639 0.0251772 0.00412883 0.0456759
51 1 Mg 0.197479 67.7011 1.58134 1.2 1 0.00423475 0.00515251 0.00167455 0.00772776 0.000738848 0.00545287 0.00149271 0.0234094 0.00225056 0.0105405 0.00199892 0.0292849 0.00178406 0.0208895 0.00298935 0.0325357 0.00276606 0.0257266 0.0023484 0.0465222
52 2 Si -1.98229 65.7974 1.59949 2.4 1 0.00193709 0.00522193 0.000887262 0.00856684 0.00149932 0.00554939 0.0018108 0.0226265 0.00150749 0.010502 0.0019196 0.0282499 0.00229722 0.0209763 0.00467922 0.0317646 0.00468042 0.0253114 0.00345711 0.0466707
53 3 O 1.0779 65.7847 1.48654 -1.2 1 0.00210505 0.00484939 0.000770722 0.0080464 0.00155794 0.00535782 0.00180035 0.0223266 0.00212448 0.0101303 0.00164585 0.0285199 0.00239539 0.0207819 0.00308483 0.0319752 0.00396954 0.0254443 0.00328167 0.0463765
54 3 O -0.954634 69.5736 1.57987 -1.2 1 0.00667413 0.00497627 0.00157274 0.00795296 0.00155411 0.0060064 0.00113566 0.0232682 0.00217555 0.010022 0.00224161 0.0292745 0.00307877 0.020509 0.00382337 0.0321403 0.00294753 0.0252261 0.00416854 0.0476868
55 3 O -1.40808 66.5093 0.325866 -1.2 1 0.00357856 0.00542378 0.000910701 0.00765948 0.00101867 0.00542886 0.00123644 0.0229212 0.00179341 0.0103771 0.00170912 0.0283303 0.00205894 0.0209897 0.00272886 0.0320383 0.00263655 0.0256141 0.0023574 0.0465016
56 3 O -1.33205 66.4253 2.93019 -1.2 1 0.00253484 0.00477554 0.000891178 0.00784456 0.00153372 0.00554091 0.00192292 0.0234607 0.00205667 0.0102144 0.00184449 0.0285467 0.00212037 0.0206917 0.0032384 0.0329297 0.00338852 0.0257431 0.00323691 0.046559
57 1 Mg -2.43608 70.0948 0.0590703 1.2 1 0.00660941 0.00555524 0.0021089 0.00747578 0.00137343 0.0063967 0.00105482 0.0230878 0.00154097 0.0106301 0.00173635 0.0292039 0.00220921 0.0204631 0.00233661 0.0319819 0.00189977 0.0252422 0.00207831 0.0473844
58 1 Mg 2.52104 73.1844 1.53156 1.2 1 0.00691213 0.00583444 0.00152225 0.00700598 0.00135716 0.00631636 0.00113018 0.0233504 0.00207656 0.00959992 0.00268728 0.02835 0.00232308 0.0209998 0.00358398 0.0327903 0.00344526 0.0248195 0.00398261 0.0483433
59 2 Si -0.242295 71.1098 1.58227 2.4 1 0.00781933 0.00546094 0.00177044 0.00840056 0.00249484 0.00601629 0.00159157 0.0225991 0.00193787 0.0100735 0.00264333 0.0281237 0.00338783 0.0210261 0.00358076 0.0327711 0.00292731 0.024903 0.00330459 0.0493749
60 3 O 1.2793 70.9935 1.56293 -1.2 1 0.00784768 0.00535341 0.00153882 0.00783291 0.00222518 0.00563869 0.00115634 0.022406 0.00275685 0.00972712 0.00200624 0.0290724 0.00285629 0.0204434 0.0031364 0.0327993 0.00300356 0.0244183 0.00395958 0.0488264
61 3 O -1.30208 74.9355 1.58706 -1.2 1 0.00620853 0.00565238 0.00178925 0.0069593 0.00104274 0.00645699 0.000988318 0.0232239 0.00181865 0.00958268 0.00237706 0.02823 0.00311132 0.0205025 0.00390376 0.0321738 0.00358249 0.024324 0.00409575 0.048263
62 3 O -0.980454 71.7771 0.253398 -1.2 1 0.00743693 0.00593084 0.00206316 0.00731122 0.00226935 0.00635296 0.00135812 0.022915 0.00182084 0.00993733 0.00198435 0.0275302 0.00329091 0.0210774 0.00301484 0.0328931 0.00271045 0.0253004 0.00314156 0.04878
63 1 Mg -2.3232 80.2904 3.07663 1.2 1 0.00209518 0.00329109 0.00122974 0.00676485 0.000705539 0.00685692 0.00101103 0.0218608 0.00136993 0.0087128 0.00129558 0.0273518 0.00181076 0.0188114 0.00306288 0.0312393 0.00324173 0.0233888 0.00297227 0.0455713
64 3 O -0.93256 71.7669 2.84636 -1.2 1 0.00752689 0.00525852 0.00147071 0.00733115 0.00219868 0.0056356 0.00166774 0.0230517 0.00198742 0.00997189 0.00216986 0.0284319 0.003186 0.0213768 0.00294851 0.0336741 0.00261882 0.0246002 0.00360593 0.0489017
65 1 Mg -2.19301 77.5921 4.4792 1.2 1 0.00324039 0.0042462 0.00176283 0.00683109 0.000963325 0.00623595 0.00111321 0.0221248 0.00232157 0.00903475 0.00257348 0.0275699 0.00290903 0.0198413 0.00292728 0.0316407 0.00388321 0.0233963 0.00452785 0.0473894
66 2 Si 0.459556 79.3484 4.56593 2.4 1 0.000778862 0.0036698 0.00180137 0.0073589 0.00156948 0.0067146 0.00172091 0.0214865 0.00191118 0.00892042 0.00226593 0.0266725 0.00217772 0.019858 0.00416811 0.0306802 0.00416538 0.0228591 0.00295498 0.0474525
67 3 O -1.13774 79.4939 4.4837 -1.2 1 0.00151941 0.00343135 0.0013309 0.00694286 0.00102887 0.00624436 0.00135723 0.0214815 0.00213581 0.00870576 0.0013509 0.0274262 0.00247192 0.0191691 0.00264797 0.0313799 0.00367429 0.0228313 0.00289571 0.0473075
68 3 O 1.5179 75.8269 4.40977 -1.2 1 0.00439281 0.00483569 0.00133886 0.00692196 0.00116319 0.0062798 0.0013394 0.0233066 0.00157304 0.00912282 0.00265087 0.0281353 0.00313974 0.0197881 0.00272435 0.0322811 0.00335848 0.0236594 0.00414693 0.047583
69 3 O 1.16427 78.7763 3.26809 -1.2 1 0.00255625 0.00401565 0.0011679 0.00667626 0.00113494 0.00636281 0.00154354 0.0221906 0.00206306 0.00909831 0.00219468 0.0267276 0.0023363 0.0202419 0.00370339 0.0318987 0.00370631 0.0235297 0.00288795 0.0473181
70 3 O 1.23168 78.7686 5.78383 -1.2 1 0.00220298 0.00372414 0.00169879 0.00644754 0.00112095 0.00632829 0.00148412 0.02186 0.00212936 0.00881813 0.00195863 0.0267268 0.00230522 0.0196493 0.00341191 0.0312868 0.00363665 0.0233949 0.00359766 0.0469481
71 1 Mg 0.157777 75.2169 2.93774 1.2 1 0.00532575 0.00549149 0.00125255 0.00667953 0.000816094 0.0065145 0.000930047 0.0224959 0.00137357 0.0096151 0.00198748 0.028798 0.00277395 0.0199316 0.00251466 0.0324893 0.00345178 0.0235547 0.00319053 0.0472003
72 1 Mg 0.116086 72.4686 4.43164 1.2 1 0.00773755 0.0051419 0.00101658 0.00669364 0.00117794 0.0053651 0.00138923 0.0230015 0.00209598 0.00992134 0.00246399 0.0290791 0.00319877 0.0211365 0.00301677 0.0341224 0.00248142 0.0244485 0.00274994 0.0484829
73 2 Si 2.13083 74.2727 4.49635 2.4 1 0.00619579 0.00508222 0.00110758 0.00749231 0.00128171 0.00579295 0.00204345 0.0227358 0.00214587 0.00936249 0.00272457 0.0278919 0.00290889 0.0209727 0.00436609 0.0326105 0.00381267 0.0235676 0.00399398 0.0491438
74 3 O -1.0511 74.3289 4.50577 -1.2 1 0.00602359 0.00477698 0.00115128 0.00698922 0.00140101 0.00580899 0.00174947 0.0222993 0.00278057 0.00889509 0.00244621 0.0283361 0.00267579 0.0199014 0.00238872 0.0331598 0.00314777 0.0234182 0.00308294 0.0482347
75 3 O 1.16572 70.4803 4.69043 -1.2 1 0.00717937 0.00469828 0.00171169 0.00712967 0.00134441 0.00561345 0.00110699 0.0237495 0.00117764 0.00988605 0.00269313 0.0292588 0.00232113 0.0205634 0.002995 0.033383 0.00264513 0.024605 0.00269978 0.0484715
76 3 O 1.3772 73.6144 3.19455 -1.2 1 0.00651466 0.00539317 0.00128791 0.00664507 0.00114726 0.00580772 0.00163939 0.023071 0.00157874 0.00908832 0.00257029 0.0277018 0.00264762 0.0208891 0.00372054 0.0334508 0.00360362 0.0245295 0.00301615 0.0487818
77 1 Mg 0.0928967 75.3304 0.0307509 1.2 1 0.00440258 0.00577473 0.00133679 0.00690328 0.00097156 0.00642788 0.000815545 0.0226204 0.00136989 0.00930759 0.00230485 0.0284366 0.00247025 0.0195304 0.00269306 0.0318047 0.0031509 0.0246482 0.0028132 0.0466394
78 3 O 1.53033 73.7737 5.827 -1.2 1 0.00629834 0.00461044 0.00120656 0.00674071 0.00140581 0.00523725 0.00228877 0.0229447 0.00146964 0.0091412 0.00242631 0.0282238 0.0024148 0.020303 0.00304659 0.0337745 0.00360319 0.0236437 0.00301579 0.0485679
79 1 Mg 0.160766 78.1201 1.42435 1.2 1 0.00250852 0.00481926 0.00129645 0.00698343 0.00106499 0.00615921 0.00137107 0.0218825 0.00166443 0.00972125 0.00227273 0.0271773 0.00279742 0.0201898 0.00323155 0.0319712 0.0039126 0.0237873 0.00346114 0.0463595
80 2 Si -1.96943 76.3947 1.59408 2.4 1 0.00400116 0.00501474 0.00151226 0.00741896 0.00141541 0.00671383 0.00163976 0.0224289 0.00148802 0.00911193 0.00254191 0.0269153 0.0031279 0.0205492 0.00315634 0.0318576 0.00346358 0.0240796 0.00337104 0.0481399
81 3 O 1.21667 76.3036 1.46459 -1.2 1 0.00381694 0.00517484 0.00156965 0.00733281 0.00149759 0.00623036 0.00150413 0.0217138 0.00290012 0.00920618 0.00243823 0.0273462 0.00364314 0.0200451 0.00382281 0.0318423 0.00488532 0.0235043 0.00469318 0.0478355
82 3 O -0.980779 79.9374 1.48842 -1.2 1 0.00274371 0.00373429 0.00174875 0.00686903 0.000912927 0.00709921 0.000893528 0.0226107 0.00182115 0.00904858 0.00143159 0.0270152 0.00253709 0.0191343 0.00422339 0.0311146 0.00394872 0.0239427 0.00482447 0.0458256
83 3 O -1.27366 76.8997 0.171426 -1.2 1 0.00303125 0.00535417 0.00124933 0.00684953 0.00144045 0.00633305 0.00129979 0.0225104 0.0017266 0.0095055 0.00182167 0.027242 0.00308445 0.0203783 0.00312944 0.0314824 0.00325164 0.024159 0.00355992 0.0464866
84 3 O -1.18862 77.1555 2.70013 -1.2 1 0.00343879 0.00467499 0.00137828 0.00659982 0.00132167 0.00637694 0.00184999 0.0222319 0.001867 0.00898404 0.002056 0.0268135 0.00280809 0.0199627 0.00268613 0.0321246 0.00368317 0.0237167 0.00370113 0.0475324
85 1 Mg -2.33569 80.639 -0.00330289 1.2 1 0.00241547 0.00377764 0.000994064 0.00675348 0.000831111 0.00707405 0.000729853 0.0223217 0.00161667 0.009644 0.00144102 0.0266654 0.00206297 0.0188766 0.00242491 0.0310873 0.00267607 0.0239716 0.00339563 0.0445311
86 1 Mg 2.35916 83.3521 1.77259 1.2 1 0.00266497 0.00325266 0.00165875 0.0064953 0.00107123 0.00670946 0.00149863 0.021845 0.00214663 0.00869178 0.00213794 0.026526 0.0023781 0.0190734 0.00446512 0.0315498 0.00403732 0.0246828 0.00512202 0.0458516
87 2 Si -0.331488 81.338 1.54757 2.4 1 0.00206169 0.00347983 0.00143699 0.00738457 0.0015982 0.00709186 0.0018931 0.0218308 0.00156214 0.00869814 0.00208202 0.0262889 0.00293281 0.0193374 0.00429164 0.0310839 0.0031892 0.0235947 0.00450077 0.0458324
88 3 O 1.25912 81.3579 1.56192 -1.2 1 0.00202198 0.00358754 0.0015394 0.00704074 0.00107691 0.00695723 0.0013319 0.0215197 0.00218368 0.00878285 0.00118974 0.0266581 0.00226124 0.0187602 0.00360849 0.0309141 0.00414753 0.0234666 0.00436789 0.0454425
89 3 O -1.37079 85.2146 1.78603 -1.2 1 0.00364112 0.00341629 0.00155756 0.00671643 0.00109457 0.00751137 0.00101927 0.0218477 0.00186467 0.00810906 0.00188936 0.0265227 0.0024007 0.0192133 0.00414701 0.0314849 0.00308198 0.0245054 0.00429171 0.0461815
90 3 O -0.985859 82.0778 0.219258 -1.2 1 0.00272841 0.00344769 0.00125091 0.00681118 0.00159647 0.00678932 0.00189697 0.021993 0.00181554 0.00913092 0.0019778 0.025619 0.00295984 0.0194651 0.00352803 0.0318595 0.00311061 0.024679 0.00403589 0.0457496
91 1 Mg -2.33652 90.6815 3.01554 1.2 1 0.00383356 0.00292712 0.00148754 0.00540888 0.0018844 0.007408 0.00108595 0.0211321 0.0014943 0.0085888 0.00184704 0.0260403 0.00187199 0.0187909 0.00296408 0.0328852 0.00224403 0.024127 0.00328198 0.0465592
92 3 O -1.03353 82.0563 2.77469 -1.2 1 0.00247993 0.00323092 0.00144352 0.00707016 0.00163706 0.00644813 0.00166942 0.0216698 0.00148323 0.00848922 0.00191115 0.0260236 0.00262226 0.0190017 0.00330073 0.0317349 0.00324577 0.0236787 0.00448387 0.045422
93 1 Mg -2.29152 87.9489 4.73576 1.2 1 0.00384066 0.00272601 0.00118543 0.006067 0.00150702 0.00703482 0.00130919 0.0210695 0.0021637 0.00861847 0.00191774 0.0261143 0.00262088 0.0191101 0.00416584 0.0330913 0.00281804 0.0251538 0.00329035 0.0471088
94 2 Si 0.370597 89.7987 4.52132 2.4 1 0.0035292 0.00283455 0.00144948 0.00602489 0.00181 0.00762079 0.00189459 0.0209478 0.00168268 0.0078983 0.00194157 0.0255312 0.00224906 0.019407 0.00423423 0.0329834 0.00368657 0.0247521 0.00372647 0.0481089
95 3 O -1.19334 89.8832 4.49758 -1.2 1 0.00313762 0.00300424 0.0013067 0.0058673 0.00185356 0.00740365 0.00119538 0.0207704 0.00213301 0.00751569 0.00149919 0.0262877 0.00201027 0.0184958 0.00271087 0.0333772 0.0026843 0.0245893 0.00328749 0.0480317
96 3 O 1.37536 86.277 4.75056 -1.2 1 0.00213187 0.00257675 0.000782752 0.00683137 0.00128059 0.00729096 0.000974197 0.0215389 0.00118565 0.00828332 0.00181942 0.0266665 0.0017208 0.0192639 0.00278582 0.0318284 0.00258053 0.0245635 0.00258151 0.0460637
97 3 O 0.997054 89.1465 3.23937 -1.2 1 0.00348928 0.00284624 0.00137455 0.00581819 0.00163418 0.00741362 0.00176538 0.0213065 0.00174892 0.00794489 0.00215419 0.0251189 0.00274778 0.0194004 0.00405387 0.0330334 0.00321799 0.0246881 0.00306724 0.047877
98 3 O 1.05831 89.1807 5.8375 -1.2 1 0.00301071 0.00282243 0.00106442 0.00595891 0.00153231 0.00729892 0.00158983 0.0208618 0.00133838 0.00809892 0.00134861 0.0258671 0.00220296 0.0190953 0.00349545 0.0335783 0.00276065 0.0252443 0.00310244 0.0474115
99 1 Mg -0.190628 85.7772 3.22963 1.2 1 0.00229082 0.00298717 0.000805702 0.00648792 0.00115544 0.00769991 0.000959948 0.0212833 0.0010941 0.00842531 0.00149001 0.0267798 0.00167614 0.0188255 0.00243104 0.0315519 0.00256458 0.024055 0.00276461 0.0456131
100 1 Mg 0.0678292 82.7157 4.38585 1.2 1 0.00232834 0.00301635 0.00176752 0.00668077 0.00117814 0.00678567 0.000958612 0.0219808 0.00276205 0.0084887 0.00217933 0.0267179 0.00235697 0.0190609 0.00386463 0.0313822 0.00371269 0.0240496 0.00387669 0.0458787
101 2 Si 2.12773 84.7272 4.75125 2.4 1 0.00187463 0.00295712 0.000987018 0.00727092 0.000930148 0.00728374 0.00119453 0.0214344 0.00139728 0.00803249 0.00208998 0.025832 0.00171715 0.0194102 0.00303997 0.0310897 0.00329546 0.0240395 0.00351569 0.0461055
102 3 O -1.09424 84.7828 4.73497 -1.2 1 0.0017545 0.00292363 0.0010294 0.00708224 0.000932049 0.00715956 0.00117093 0.0210968 0.00161099 0.0078271 0.00165258 0.0262657 0.00146094 0.0185055 0.00258964 0.0316931 0.00326214 0.0240075 0.00348337 0.0460298
103 3 O 1.07818 80.9595 4.55791 -1.2 1 0.0011544 0.00356486 0.00117689 0.00701043 0.000951831 0.00721558 0.00121078 0.0219995 0.00141289 0.00859812 0.0020322 0.0272434 0.00240986 0.0187304 0.00269606 0.0308798 0.00425869 0.0237017 0.00292671 0.0457055
104 3 O 1.39866 84.0291 3.53916 -1.2 1 0.00250664 0.00296494 0.00137131 0.00691961 0.000988658 0.00672778 0.00169794 0.0210533 0.00202171 0.00800395 0.00188232 0.0262298 0.00204251 0.0191461 0.00332733 0.031836 0.00330297 0.0240608 0.00402402 0.0460236
105 1 Mg 0.136325 85.6909 0.205394 1.2 1 0.00431304 0.00340545 0.00085338 0.00636766 0.00102707 0.00733731 0.00102878 0.0215882 0.00141834 0.00836818 0.00106855 0.0266795 0.00204273 0.0185697 0.00300749 0.0319782 0.00249899 0.0247526 0.00291921 0.0460906
106 3 O 1.48566 84.127 6.18217 -1.2 1 0.00133904 0.00337509 0.00113772 0.00678556 0.000764466 0.00677365 0.00110541 0.0219146 0.00163925 0.00860641 0.00177105 0.0262257 0.00222675 0.0194407 0.00291883 0.0311367 0.0034843 0.0245679 0.00370491 0.0459747
107 1 Mg -0.0128677 88.4504 1.51614 1.2 1 0.00456479 0.00279506 0.00166132 0.00624033 0.00174627 0.00715957 0.00115572 0.0210491 0.00191473 0.00831238 0.00197708 0.0256459 0.00247108 0.0195411 0.0037283 0.0329497 0.00340789 0.0244248 0.00351889 0.0466994
108 2 Si -2.09333 86.6565 1.84997 2.4 1 0.00395692 0.00310911 0.00101117 0.00664746 0.00203685 0.007466 0.0015212 0.0211616 0.00111481 0.00784107 0.00178934 0.0253541 0.0026869 0.0197557 0.00362373 0.0327017 0.00289662 0.0246462 0.00282052 0.0472805
109 3 O 1.06867 86.6689 1.79733 -1.2 1 0.00423279 0.00311495 0.00117937 0.00670984 0.00184439 0.00722613 0.0011923 0.0206712 0.00212474 0.00782269 0.00129563 0.0259874 0.00252102 0.0190607 0.00339812 0.0325097 0.00252574 0.0241736 0.00353505 0.0466691
110 3 O -0.978082 90.2148 1.55812 -1.2 1 0.00473551 0.00277859 0.00176552 0.00602886 0.00177533 0.00761576 0.00109082 0.0215902 0.00186909 0.0083121 0.00203202 0.0257283 0.00265451 0.0189451 0.00351997 0.0329956 0.00230429 0.0243963 0.00426238 0.0466315
111 3 O -1.37121 87.456 0.589971 -1.2 1 0.00496057 0.00314332 0.00150259 0.00631518 0.00166519 0.00707863 0.00150121 0.0208771 0.00133209 0.00853628 0.00133188 0.0251427 0.0026642 0.0199274 0.00419904 0.0325559 0.0022043 0.0244898 0.00289461 0.0461818
112 3 O -1.37441 87.324 3.07882 -1.2 1 0.00356247 0.00282037 0.00105827 0.00582917 0.00173207 0.00746497 0.00127374 0.0217199 0.00151082 0.00809623 0.00184793 0.025328 0.00325339 0.0197666 0.00355563 0.0328114 0.00320864 0.0246946 0.00293927 0.0478098
113 1 Mg -2.37443 90.644 0.0741192 1.2 1 0.00449838 0.00341347 0.00169462 0.00573172 0.00169302 0.00761651 0.00123895 0.0207187 0.00156241 0.00886389 0.00143182 0.0256375 0.00149445 0.0187316 0.00270126 0.0326144 0.00244358 0.0242301 0.00335385 0.0454413
114 1 Mg 2.27447 93.5502 1.79095 1.2 1 0.00195866 0.00337337 0.00129472 0.0048765 0.00158148 0.00689112 0.00124228 0.0206579 0.00222498 0.00836754 0.0021833 0.0253789 0.00207443 0.0193036 0.00329798 0.0337274 0.00361333 0.0243447 0.00403101 0.0469706
115 2 Si -0.384974 91.7142 1.40282 2.4 1 0.00331341 0.00284776 0.00155927 0.00604471 0.00198132 0.00771868 0.00152934 0.0207089 0.00219807 0.00799236 0.00193911 0.024966 0.00217859 0.0195793 0.00315249 0.0327577 0.00266759 0.0238317 0.00340561 0.0475179
116 3 O 1.21071 91.6504 1.44412 -1.2 1 0.00355579 0.00291678 0.00160411 0.00539816 0.00201318 0.00729211 0.00132431 0.0208009 0.00237314 0.00776728 0.00156153 0.0254829 0.00174108 0.0188145 0.00257422 0.0332288 0.00352738 0.0238931 0.00391759 0.0470942
117 3 O -1.27686 95.5257 1.61757 -1.2 1 0.00159507 0.00390054 0.0013266 0.0050133 0.00132516 0.00734661 0.00123168 0.0209804 0.00155173 0.00798341 0.00183965 0.0251448 0.00234196 0.0189422 0.00322559 0.0329861 0.00320826 0.0237336 0.00365698 0.0478896
118 3 O -1.05409 92.4097 0.123022 -1.2 1 0.00316865 0.003407 0.00176859 0.00537641 0.00163165 0.00725061 0.00159439 0.0216467 0.0019006 0.0084909 0.00202141 0.0241731 0.00232045 0.0195241 0.00324632 0.0331431 0.00281632 0.0244354 0.00362794 0.0473783
119 1 Mg -2.29056 101.137 3.1013 1.2 1 0.00251517 0.00405079 0.000691616 0.00535325 0.000931491 0.00679838 0.000993578 0.0215927 0.00125905 0.00925905 0.00170367 0.0276154 0.00149248 0.0194537 0.00254188 0.0324724 0.00309618 0.023263 0.00395204 0.0478335