ITEM: TIMESTEP
5000
ITEM: NUMBER OF ATOMS
5600
ITEM: BOX BOUNDS xy xz yz pp pp pp
0	7.1235	0
0	201.985	2.3745
0	119.584	0
ITEM: ATOMS id type element xu yu zu q Q_1 Q_2 Q_3 Q_4 Q_5 Q_6 Q_7 Q_8 Q_9 Q_10 Q_11 Q_12 Q_13 Q_14 Q_15 Q_16 Q_17 Q_18 Q_19 Q_20 Q_21
1 1 Mg -1.43169 48.5394 -1.01214 1.2 1 0.242318 0.0817985 0.0229963 0.0284047 0.00475203 0.0175168 0.00490431 0.0195966 0.00461565 0.027155 0.0060026 0.0241524 0.00831466 0.0241998 0.00687578 0.0218094 0.00852106 0.0193031 0.0112557 0.0286856
2 1 Mg 3.18207 51.4209 1.75475 1.2 1 0.173105 0.0650322 0.00900144 0.0184367 0.00221381 0.0106899 0.00306967 0.0189796 0.00407477 0.0216064 0.00468428 0.0250217 0.00547338 0.0225556 0.00657905 0.0233163 0.00637311 0.0172184 0.00897807 0.0310335
3 2 Si 1.01708 50.2248 0.115254 2.4 1 0.198363 0.0716285 0.0126737 0.0210714 0.00255002 0.0118507 0.00262489 0.0178865 0.00516571 0.0241046 0.0057391 0.0232154 0.00506126 0.0231608 0.00583071 0.0220874 0.00669495 0.0164791 0.00965344 0.0293233
4 3 O 2.04028 48.9951 0.344109 -1.2 1 0.228759 0.0796462 0.0189884 0.0264445 0.00263063 0.0148919 0.0027237 0.0189746 0.00509786 0.027456 0.00578171 0.0246317 0.00708953 0.0244731 0.00721211 0.0221962 0.00773593 0.0191202 0.00987303 0.0288028
5 3 O -1.20529 53.5815 1.44241 -1.2 1 0.127124 0.0516407 0.00351129 0.0134894 0.00154824 0.00945685 0.00261179 0.018583 0.00318069 0.0182092 0.00302675 0.0245618 0.00365795 0.0198049 0.00438622 0.0233907 0.00437677 0.0161386 0.00759749 0.0333921
6 3 O 0.129559 49.5379 -1.04878 -1.2 1 0.214606 0.0743487 0.0167265 0.0236495 0.00427379 0.0143895 0.00464228 0.0187163 0.00403715 0.025452 0.00606809 0.0228974 0.00645491 0.0238695 0.0051378 0.0224912 0.00730918 0.017909 0.00873866 0.0281265
7 1 Mg -2.17597 59.3711 3.02206 1.2 1 0.0136338 0.0129818 0.00521285 0.00535357 0.000745265 0.00631795 0.0016081 0.0220514 0.00303247 0.0116861 0.00205595 0.0280065 0.0030393 0.0197671 0.00430444 0.0298449 0.00402822 0.0230578 0.00411525 0.0437779
8 3 O 0.171641 50.6559 1.29589 -1.2 1 0.187447 0.071059 0.00838447 0.0202744 0.00267199 0.0110221 0.0028104 0.0187867 0.00493918 0.022926 0.00554699 0.0235862 0.00502694 0.0237364 0.00541961 0.0232705 0.00673808 0.0171158 0.00923161 0.0302463
9 1 Mg -2.13795 56.3444 4.57585 1.2 1 0.0604269 0.0346852 0.00655249 0.00870234 0.00192474 0.00596723 0.00262472 0.0206716 0.00334171 0.013923 0.00302787 0.0274139 0.00327209 0.020107 0.00461517 0.0274829 0.00376743 0.0208575 0.00516182 0.0394288
10 2 Si 0.503288 58.3529 4.46748 2.4 1 0.0194603 0.0167294 0.00721589 0.00609491 0.0011613 0.0062058 0.00205271 0.0215728 0.00347659 0.0112435 0.00323981 0.0267795 0.00329859 0.0198137 0.00547504 0.029054 0.00472246 0.0226669 0.00358983 0.0433165
11 3 O -1.05991 58.2734 4.52585 -1.2 1 0.0219494 0.0179315 0.00746943 0.00636232 0.00135576 0.0058595 0.00241595 0.0212675 0.00326461 0.0114194 0.00262588 0.0266648 0.00286268 0.0195098 0.00407272 0.0287139 0.00423643 0.022198 0.00438183 0.0428753
12 3 O 1.49938 54.4982 4.65402 -1.2 1 0.0988789 0.0473718 0.0030763 0.0131537 0.00246328 0.00730682 0.00238653 0.0201629 0.00419248 0.0170763 0.00358644 0.0268475 0.00429625 0.0213744 0.00396383 0.0256473 0.00403068 0.020273 0.00648553 0.0361068
13 3 O 1.21941 57.4801 3.21345 -1.2 1 0.0376201 0.0256878 0.00765349 0.00653945 0.00106925 0.00565778 0.00168792 0.0217556 0.00329295 0.0129323 0.00264362 0.0264918 0.00322183 0.0196259 0.00539865 0.0281117 0.00354289 0.021525 0.00457573 0.0406201
14 3 O 1.19122 57.7047 5.80299 -1.2 1 0.0341121 0.0239426 0.00820653 0.00623703 0.00101488 0.00591869 0.00187878 0.0226484 0.00326999 0.0116923 0.00196364 0.0272424 0.00323298 0.0198007 0.0043132 0.0290466 0.00431646 0.0229278 0.00431554 0.0413287
15 1 Mg 0.298653 54.1047 2.93529 1.2 1 0.108526 0.0484806 0.00136165 0.0125428 0.00197605 0.00824095 0.00281316 0.0191142 0.00313983 0.0177809 0.00373914 0.0265423 0.00461095 0.0199338 0.00571586 0.0238155 0.0039527 0.0181687 0.00651088 0.034581
16 1 Mg 0.957483 50.317 3.0345 1.2 1 0.199475 0.0722412 0.011372 0.0223883 0.00210815 0.0127322 0.00317229 0.0192873 0.00479057 0.0230149 0.00548971 0.0250819 0.00545936 0.0249374 0.00634266 0.0234052 0.00731404 0.0181532 0.00966638 0.0313527
17 2 Si 2.22149 53.0689 4.51149 2.4 1 0.1397 0.057292 0.00233379 0.0168721 0.0017136 0.00905946 0.0025643 0.019423 0.00417045 0.0191902 0.00455701 0.0264441 0.00549027 0.0232142 0.00579766 0.0248181 0.00469661 0.019412 0.00719254 0.0336021
18 3 O -0.964864 53.0555 4.48643 -1.2 1 0.13046 0.0562412 0.0014067 0.0152315 0.00207392 0.00773962 0.00266766 0.0190591 0.00433288 0.0189121 0.00382307 0.0270045 0.00521658 0.0227583 0.00421735 0.0243079 0.00450734 0.0191297 0.00712623 0.0346665
19 3 O 2.87108 50.0086 3.15883 -1.2 1 0.210112 0.0731489 0.0142585 0.0230025 0.00318781 0.0123001 0.00324904 0.0193909 0.00485137 0.0240328 0.00622638 0.0254834 0.00662587 0.0254672 0.00702797 0.0241084 0.00858722 0.0194485 0.00960426 0.0306419
20 3 O 1.55369 52.4523 3.13798 -1.2 1 0.146454 0.057923 0.00415485 0.0163795 0.00203037 0.00909392 0.00381229 0.0188332 0.00375471 0.01936 0.00368637 0.0255364 0.00500735 0.0220041 0.00576504 0.0239442 0.00512479 0.0179083 0.00756692 0.0329218
21 1 Mg 0.22202 54.1011 -0.0535481 1.2 1 0.113037 0.0484592 0.00182901 0.0116349 0.00117482 0.00836375 0.00262396 0.0185137 0.00432117 0.0181836 0.00355552 0.024833 0.00430485 0.0194163 0.00474072 0.0236885 0.00414613 0.0167563 0.00689413 0.0330553
22 3 O 1.5556 52.1434 5.63449 -1.2 1 0.154147 0.0607916 0.00497217 0.0180913 0.00223484 0.009287 0.00389418 0.0197933 0.00427247 0.0202874 0.00329768 0.0269818 0.00638561 0.0243765 0.00561746 0.0249282 0.00517976 0.0195526 0.00745961 0.0331566
23 1 Mg 0.158369 57.1415 1.53787 1.2 1 0.0380707 0.0257647 0.00818494 0.00636328 0.00169351 0.00565211 0.0015642 0.0202653 0.00508684 0.0125465 0.00336335 0.0266535 0.00343325 0.0191081 0.00563796 0.0273715 0.00528829 0.0205934 0.00637308 0.0397609
24 2 Si -1.77247 55.1492 1.3979 2.4 1 0.090247 0.0416171 0.00253633 0.0102669 0.00233167 0.00776525 0.00231546 0.0188889 0.00417911 0.0162827 0.00317159 0.0251333 0.00314338 0.0201151 0.0040422 0.0243309 0.0048903 0.0176495 0.00651682 0.0361903
25 3 O 1.38317 55.071 1.31556 -1.2 1 0.0922502 0.0416952 0.0015303 0.0102227 0.00206721 0.00766507 0.00218925 0.0184752 0.00400254 0.0154995 0.0034783 0.0247649 0.00315495 0.0185921 0.00469711 0.0248978 0.00403447 0.0183409 0.00589814 0.0352077
26 3 O -0.901328 58.9465 1.59957 -1.2 1 0.0180345 0.0154203 0.00644707 0.00598723 0.00104483 0.00621663 0.00177549 0.0216205 0.00306105 0.0114554 0.0025534 0.0272478 0.00327744 0.0192653 0.00501846 0.0293868 0.00448383 0.0232244 0.00553149 0.0429905
27 3 O -0.974968 55.9056 0.308317 -1.2 1 0.0735584 0.0359361 0.0027175 0.00800718 0.00104335 0.0067806 0.00210088 0.019353 0.0036195 0.0147801 0.00272682 0.0239105 0.00244262 0.0188523 0.0036626 0.025821 0.00419934 0.0189809 0.00632427 0.0360507
28 3 O -1.17706 55.7688 2.79124 -1.2 1 0.0714136 0.0366957 0.00478121 0.00895836 0.00241727 0.00661853 0.00201287 0.0196325 0.00366643 0.0144023 0.00341637 0.0256687 0.00310544 0.0195728 0.00466272 0.0262793 0.00377041 0.0201188 0.00567514 0.0380009
29 1 Mg -2.26811 59.3283 0.17101 1.2 1 0.0140329 0.0135941 0.00459733 0.00564484 0.000772632 0.00631408 0.00191624 0.0215737 0.00290007 0.0123621 0.00187692 0.0275988 0.00307705 0.0192597 0.00420262 0.0293676 0.00396391 0.0227201 0.00468078 0.0418218
30 1 Mg 2.35113 62.2912 1.50355 1.2 1 0.00307071 0.00646198 0.00177716 0.0066936 0.000811458 0.00615899 0.00125792 0.0234414 0.00203149 0.0107768 0.00229522 0.0283805 0.00253899 0.0199386 0.00347461 0.0324522 0.0035371 0.0251344 0.00374884 0.0453605
31 2 Si -0.260413 60.3839 1.52362 2.4 1 0.0089009 0.00934627 0.00333731 0.00678956 0.00126026 0.00634963 0.00198636 0.0221021 0.00254853 0.011145 0.00271481 0.0271737 0.00362932 0.0201754 0.0049647 0.0299878 0.00400527 0.023745 0.00491033 0.0453994
32 3 O 1.2983 60.3373 1.44585 -1.2 1 0.00783566 0.00884704 0.00325253 0.00649657 0.000997486 0.00611863 0.00171676 0.0219508 0.00335111 0.0105191 0.00266252 0.0273883 0.00345539 0.0195057 0.0056819 0.0305599 0.00464552 0.0234675 0.00525342 0.0447686
33 3 O -1.29943 64.0736 1.58783 -1.2 1 0.00271205 0.0061176 0.00191377 0.00751499 0.00110262 0.00671255 0.00136162 0.0243892 0.00165777 0.0108968 0.0018846 0.0288413 0.00286189 0.0202159 0.00416449 0.0311021 0.00348946 0.0254233 0.00335326 0.0454584
34 3 O -1.05222 61.0862 0.334563 -1.2 1 0.00544022 0.00781069 0.00210893 0.00678796 0.00107259 0.0060592 0.00186831 0.0219223 0.00252073 0.0108576 0.00202599 0.0271999 0.00362117 0.0200032 0.00467321 0.0308406 0.00402616 0.0236486 0.00486341 0.0443746
35 1 Mg -2.32305 70.0036 3.19209 1.2 1 0.00210341 0.00443919 0.00151968 0.00811263 0.000649496 0.00655434 0.0010345 0.0238334 0.00157834 0.0105417 0.00149856 0.0297415 0.00137246 0.0201715 0.0017351 0.0316911 0.00260722 0.0257382 0.00322781 0.0449506
36 3 O -0.838454 61.0103 2.83479 -1.2 1 0.006256 0.00809948 0.00269853 0.00642397 0.000966693 0.00644364 0.00234419 0.0228324 0.00221116 0.0106155 0.00229843 0.0273909 0.00266064 0.020037 0.00430296 0.0306146 0.0036802 0.0237596 0.00344341 0.0448536
37 1 Mg -2.38062 66.9423 4.57505 1.2 1 0.00188475 0.00524033 0.0015298 0.00746806 0.000829895 0.00628779 0.00136709 0.0241467 0.00204744 0.0113494 0.00171691 0.0285402 0.00169427 0.0205628 0.0029094 0.0320614 0.00291596 0.0257477 0.00371074 0.0447353
38 2 Si 0.434766 68.9007 4.69342 2.4 1 0.00156881 0.00473212 0.00150766 0.00850709 0.0013685 0.00594322 0.00144977 0.0236647 0.00129314 0.0108745 0.00236205 0.0277961 0.00191721 0.0215602 0.00298605 0.0318187 0.00281173 0.0253768 0.00376477 0.0458402
39 3 O -1.06502 68.9851 4.55147 -1.2 1 0.00123387 0.00464341 0.00131777 0.0080016 0.00118538 0.0058686 0.00120417 0.0241432 0.00258822 0.0106678 0.00194368 0.0286263 0.00188801 0.0206911 0.00242657 0.0321478 0.00367959 0.0252464 0.00438902 0.045422
40 3 O 1.5555 64.9215 4.59297 -1.2 1 0.00218005 0.00566068 0.00161992 0.00771551 0.000999254 0.00648345 0.00126222 0.0239313 0.00108062 0.0111083 0.00236857 0.0284445 0.00165762 0.0200248 0.00265765 0.0314983 0.00213119 0.0249557 0.0029614 0.0447652
41 3 O 1.16344 68.1525 3.45849 -1.2 1 0.00181745 0.00451614 0.00136811 0.0080207 0.00132562 0.00621144 0.00193982 0.0236106 0.00156556 0.0107629 0.00223873 0.0287489 0.00172476 0.0211271 0.00275706 0.0321313 0.00261708 0.0251547 0.00344567 0.0453128
42 3 O 1.27715 68.1407 5.98902 -1.2 1 0.00130354 0.00509531 0.00129372 0.00753415 0.00197074 0.00584932 0.00193085 0.0242161 0.00160341 0.0111554 0.00205968 0.0275487 0.00214602 0.0218306 0.00256563 0.0320298 0.00320178 0.0254121 0.00353761 0.0446926
43 1 Mg 0.0849825 64.3302 3.02118 1.2 1 0.00232322 0.00546706 0.00162423 0.00773914 0.000609712 0.00647462 0.000963623 0.0233828 0.00114799 0.0110487 0.00178598 0.0288961 0.00146479 0.0194701 0.00260986 0.0314383 0.00228994 0.024733 0.00238885 0.044192
44 1 Mg 0.0581901 61.6741 4.55361 1.2 1 0.00469299 0.0077365 0.00213829 0.00627079 0.00126172 0.00640206 0.00152044 0.0229969 0.00150673 0.0111407 0.00226156 0.0280843 0.0024809 0.0198489 0.00329569 0.0305767 0.00307989 0.0238009 0.00354705 0.0439407
45 2 Si 2.23474 63.438 4.61056 2.4 1 0.0027289 0.00562003 0.00127632 0.00825025 0.00167707 0.00616261 0.0018596 0.0226586 0.00117098 0.010736 0.00219094 0.0272388 0.00158528 0.0195087 0.00335395 0.0309922 0.00230061 0.024132 0.00254609 0.0451326
46 3 O -0.934198 63.5849 4.60531 -1.2 1 0.00299838 0.00539216 0.00105407 0.00783945 0.000932021 0.00604974 0.00145964 0.0224544 0.00240757 0.0104526 0.00196381 0.0272673 0.00202422 0.0196733 0.00322077 0.0313942 0.00251392 0.0239202 0.00293229 0.0449921
47 3 O 1.13831 59.8091 4.42007 -1.2 1 0.0113274 0.0121459 0.00477513 0.00573442 0.00115343 0.00679207 0.00181848 0.0227717 0.00275678 0.0113083 0.00224525 0.0277216 0.00301056 0.0194353 0.00409674 0.0298217 0.00403733 0.0233619 0.00333642 0.0438246
48 3 O 1.5635 62.8362 3.30083 -1.2 1 0.00315129 0.00617496 0.00110495 0.00742004 0.00155952 0.00636788 0.00165254 0.0228806 0.00151232 0.0106459 0.00185439 0.0276257 0.00194029 0.0196694 0.00284939 0.0317863 0.00275899 0.024648 0.00208718 0.0449523
49 1 Mg 0.101392 64.5097 0.134905 1.2 1 0.00221666 0.00595909 0.00169555 0.00731968 0.000721725 0.00655062 0.00106416 0.0239523 0.00146466 0.0106619 0.00166027 0.0292318 0.00213397 0.0195988 0.00225783 0.0320693 0.00266555 0.0257733 0.00368442 0.0439185
50 3 O 1.62779 62.7975 5.95072 -1.2 1 0.00328694 0.00610207 0.00131285 0.00734793 0.00192201 0.00639911 0.00158612 0.0229199 0.0016693 0.0109071 0.0021089 0.0272914 0.0018276 0.0199051 0.00318397 0.0309165 0.00273466 0.0240096 0.00293672 0.0441669
51 1 Mg 0.225125 67.4582 1.83329 1.2 1 0.000943226 0.00464752 0.00123986 0.00775769 0.000887794 0.0062083 0.00131508 0.0235424 0.0023768 0.0107574 0.00225632 0.0292047 0.00272274 0.0206473 0.00358634 0.0320271 0.00352647 0.0256557 0.00399248 0.044645
52 2 Si -1.94274 65.6124 1.57132 2.4 1 0.00167158 0.00512153 0.00155233 0.00844042 0.00169219 0.00647895 0.00208905 0.0233356 0.0013571 0.01037 0.00226164 0.0279343 0.00269265 0.0206862 0.00424556 0.0314503 0.00347258 0.0256437 0.00428957 0.0456467
53 3 O 1.3068 65.5835 1.5905 -1.2 1 0.00121467 0.00508128 0.00145559 0.00829535 0.00142245 0.00597254 0.00173838 0.0229018 0.0029505 0.0102296 0.00256863 0.0283743 0.00212417 0.0198936 0.00272036 0.0320754 0.00350038 0.0253255 0.00413478 0.0453986
54 3 O -0.916237 69.3038 1.56349 -1.2 1 0.00244045 0.00449633 0.00156109 0.00806038 0.00113386 0.00676732 0.000997262 0.0240469 0.00176832 0.0105179 0.00205067 0.0293108 0.00209326 0.0201163 0.00311221 0.0312784 0.0027572 0.0257624 0.00347335 0.0445369
55 3 O -1.2071 66.1727 0.298716 -1.2 1 0.00133885 0.0050137 0.0012132 0.00790019 0.00187852 0.00626141 0.00254399 0.023321 0.00204539 0.0103118 0.00209541 0.0281064 0.00313581 0.020156 0.00412987 0.032159 0.00308655 0.0260125 0.00348446 0.0448825
56 3 O -1.32444 66.3378 2.90108 -1.2 1 0.0017066 0.00503721 0.00180645 0.00790312 0.00158622 0.00628589 0.00170451 0.0237112 0.00154944 0.0106452 0.00147195 0.0280247 0.00212325 0.0203934 0.00289422 0.0323205 0.00288549 0.0257783 0.00337437 0.0450397
57 1 Mg -2.42847 69.8379 0.130133 1.2 1 0.00213508 0.00432423 0.00107912 0.0077844 0.000864927 0.00658348 0.000885325 0.0231523 0.00122432 0.00983853 0.00143237 0.0290618 0.00136846 0.0194498 0.00178707 0.0316736 0.00198586 0.0263612 0.00178789 0.0437581
58 1 Mg 2.36398 72.8627 1.45101 1.2 1 0.00297649 0.00423041 0.00151154 0.00802407 0.000831028 0.00594416 0.00132588 0.0235717 0.00217604 0.0099453 0.00235128 0.0289917 0.00268201 0.0199446 0.00311965 0.0325109 0.00344495 0.0264997 0.0026424 0.0462233
59 2 Si -0.276628 70.763 1.50739 2.4 1 0.00214136 0.0042302 0.0014669 0.00866916 0.00101415 0.00605156 0.00132016 0.0229602 0.00174928 0.0101455 0.00183301 0.0281688 0.00194445 0.0206095 0.003381 0.031475 0.00350687 0.0253662 0.00303186 0.0457043
60 3 O 1.26311 70.7845 1.51888 -1.2 1 0.00250566 0.00429882 0.00109321 0.00837737 0.00106257 0.00595871 0.0018015 0.0231358 0.00241373 0.00984257 0.00165784 0.0283665 0.00191611 0.020307 0.00205067 0.0321167 0.00286432 0.0261696 0.00202554 0.0459088
61 3 O -1.23859 74.6688 1.56717 -1.2 1 0.00442467 0.00396437 0.00145562 0.0083787 0.000865194 0.00612509 0.00166008 0.0229616 0.00153293 0.00906846 0.00276356 0.0289007 0.00294591 0.018952 0.00367835 0.0322582 0.00393857 0.0261657 0.00365335 0.0467317
62 3 O -1.07469 71.5646 0.352319 -1.2 1 0.00243611 0.00422058 0.00125015 0.00770252 0.00121136 0.00629571 0.00214807 0.0235576 0.00185105 0.00986419 0.00188593 0.0278819 0.00221006 0.0206063 0.00310942 0.0326543 0.00312054 0.0268156 0.00246656 0.0452267
63 1 Mg -2.28018 80.4809 3.09079 1.2 1 0.00543724 0.00472687 0.00180691 0.00780251 0.000729317 0.00634933 0.000981628 0.0226571 0.00117246 0.00922732 0.00198328 0.0285564 0.00252919 0.0195145 0.00279983 0.0325898 0.00244017 0.0260829 0.0032546 0.0479273
64 3 O -0.86519 71.4982 2.8235 -1.2 1 0.002966 0.00429521 0.0015587 0.00797788 0.00165447 0.00579505 0.00200997 0.0237229 0.00190701 0.0103145 0.0020992 0.0283328 0.00253494 0.0206988 0.00267125 0.0324355 0.00340746 0.025792 0.00297678 0.0461471
65 1 Mg -2.24825 77.4778 4.45767 1.2 1 0.00645859 0.00448755 0.00171214 0.00818422 0.000867882 0.00566175 0.00142582 0.023676 0.00206102 0.00978853 0.00282366 0.0283952 0.00282721 0.0197323 0.00363076 0.0323399 0.0026987 0.0266976 0.00457792 0.0481433
66 2 Si 0.476587 79.3905 4.54282 2.4 1 0.00695995 0.00478683 0.00158636 0.00895567 0.00115295 0.00600075 0.00153367 0.0226935 0.00177798 0.00905539 0.0027337 0.0274993 0.00233581 0.0204457 0.00406067 0.0323633 0.00351045 0.0260416 0.00446625 0.0494565
67 3 O -1.03749 79.6217 4.51639 -1.2 1 0.00662499 0.00482724 0.00167577 0.0083254 0.000935831 0.00576522 0.00109202 0.0230258 0.00238969 0.00877047 0.00205399 0.028141 0.00279456 0.0196185 0.00308891 0.0325097 0.00352108 0.0265335 0.00396471 0.0489337
68 3 O 1.49965 75.6494 4.40604 -1.2 1 0.00465716 0.00426033 0.00173659 0.00827046 0.00058662 0.00563559 0.00111083 0.0238879 0.00136865 0.0095833 0.0026415 0.0287876 0.0026055 0.019566 0.00316325 0.0320607 0.0028642 0.0262052 0.00366824 0.0478973
69 3 O 1.09068 78.8135 3.14907 -1.2 1 0.00626204 0.00451863 0.00178913 0.00821955 0.00108795 0.00611137 0.00200035 0.0232529 0.00184819 0.00945856 0.00272125 0.0278299 0.00293406 0.020005 0.00340594 0.0327405 0.00294707 0.0265142 0.00503427 0.0483091
70 3 O 1.24817 78.6323 5.73073 -1.2 1 0.00687007 0.00506998 0.00158848 0.00806961 0.0014517 0.00556132 0.00157548 0.023512 0.00208441 0.00918876 0.00266483 0.0277645 0.00243887 0.0205724 0.00386656 0.0327139 0.00358179 0.0266999 0.00435906 0.0498265
71 1 Mg 0.12776 75.0012 2.95139 1.2 1 0.0049183 0.0040967 0.00153725 0.00797838 0.00063285 0.00599604 0.00116237 0.0238992 0.0010772 0.00978116 0.00206108 0.0293628 0.0026552 0.0189222 0.0021455 0.0323377 0.00270979 0.026454 0.00366038 0.0472404
72 1 Mg -0.0877634 72.1815 4.47192 1.2 1 0.00334485 0.00478964 0.00168512 0.00796194 0.000777233 0.00573548 0.00158006 0.0239806 0.00164884 0.0107591 0.00198547 0.0292595 0.0023721 0.0207094 0.00338156 0.0324267 0.00289072 0.0263328 0.00262603 0.0458879
73 2 Si 2.14242 74.1183 4.51018 2.4 1 0.00375114 0.00424628 0.00143159 0.00872573 0.000857564 0.00554547 0.00163181 0.0239799 0.00170123 0.0103303 0.00274916 0.0282252 0.00222996 0.0203827 0.00458106 0.0316928 0.00336379 0.0260401 0.00347655 0.0481502
74 3 O -1.037 74.1245 4.62473 -1.2 1 0.0040409 0.00442159 0.00192837 0.00836585 0.000626306 0.00534519 0.00166107 0.0233257 0.00231111 0.00995052 0.002221 0.0285127 0.0020142 0.019894 0.00246709 0.0320778 0.00265452 0.0258288 0.00291551 0.0479637
75 3 O 1.19746 70.3233 4.663 -1.2 1 0.00187947 0.00479234 0.00146822 0.00825188 0.00068768 0.00611107 0.00129584 0.0243712 0.00110227 0.0109203 0.00209899 0.0293391 0.0017982 0.020657 0.00237178 0.0319562 0.00245339 0.0253849 0.00331562 0.045383
76 3 O 1.53052 73.3669 3.28634 -1.2 1 0.00357304 0.00443905 0.0011559 0.00785846 0.000904911 0.00573685 0.001824 0.0243563 0.0014466 0.0101726 0.00205939 0.0282017 0.00239754 0.0202913 0.00326956 0.0326565 0.00311697 0.0268195 0.00229038 0.0473588
77 1 Mg 0.258698 75.0432 -0.154458 1.2 1 0.00408345 0.00344088 0.00145644 0.00781767 0.00100671 0.00629352 0.00101619 0.0225843 0.00122444 0.00905288 0.00210162 0.0283073 0.00243619 0.0185912 0.00269131 0.0326652 0.00331836 0.0261524 0.00336487 0.0455737
78 3 O 1.49984 73.6299 5.86442 -1.2 1 0.00296928 0.00475725 0.00158547 0.00808922 0.00125653 0.00533839 0.00202613 0.0240652 0.00185859 0.0101121 0.00231896 0.0283315 0.00238297 0.0202425 0.00421438 0.0324545 0.0032514 0.0259922 0.00410408 0.047577
79 1 Mg 0.107843 78.0075 1.65247 1.2 1 0.0047172 0.00408169 0.00234241 0.00783944 0.000944608 0.00598519 0.00197869 0.023031 0.00201089 0.00972934 0.0037501 0.0281285 0.0029821 0.0197393 0.00380113 0.0330937 0.00357313 0.026825 0.00532487 0.0478434
80 2 Si -1.85516 76.1803 1.50846 2.4 1 0.00490976 0.00344464 0.00181676 0.00876489 0.00147817 0.00633439 0.00243026 0.0226039 0.0016857 0.00922203 0.0035464 0.0277504 0.00373184 0.0192627 0.00443169 0.0319688 0.00487082 0.0263272 0.00495753 0.0484713
81 3 O 1.3364 75.8642 1.42842 -1.2 1 0.00498778 0.00381696 0.00185513 0.00803384 0.00105552 0.00595815 0.00135492 0.0233891 0.00182596 0.00915216 0.00248393 0.0283678 0.00297765 0.0190224 0.00282671 0.0322205 0.00365592 0.0266259 0.00431658 0.0477679
82 3 O -0.975227 79.8545 1.54131 -1.2 1 0.00494572 0.00418692 0.0020493 0.00781777 0.000635713 0.0063389 0.00166589 0.0225342 0.00120662 0.00910508 0.00189583 0.0278513 0.00293934 0.0194398 0.002719 0.0326701 0.00323889 0.0260745 0.00429478 0.0480148
83 3 O -1.1403 76.7556 0.191853 -1.2 1 0.00435476 0.00337988 0.00140751 0.00759534 0.00147115 0.00649943 0.00253995 0.0229964 0.00190581 0.00970566 0.00306607 0.0270746 0.00409093 0.019311 0.00423074 0.0328816 0.00484889 0.0268679 0.00532589 0.0479136
84 3 O -1.36414 77.0486 2.76499 -1.2 1 0.00544977 0.00415478 0.00203117 0.0081324 0.00101846 0.00581131 0.00193764 0.0229589 0.00202486 0.00960019 0.00268271 0.0281807 0.00315632 0.0198266 0.00287636 0.0328405 0.00317658 0.0265495 0.0052467 0.0478327
85 1 Mg -2.45449 80.2974 0.100917 1.2 1 0.00429165 0.00378352 0.0019427 0.00694558 0.000869706 0.00637091 0.00116567 0.0224009 0.00108168 0.00916487 0.00214845 0.0281462 0.00208735 0.0192623 0.00250375 0.0330008 0.00347974 0.0262832 0.00401932 0.0476439
86 1 Mg 2.37999 83.2696 1.41889 1.2 1 0.0039513 0.00387723 0.00142816 0.00683888 0.000548563 0.00630795 0.0014922 0.0223589 0.00161455 0.00924218 0.00228957 0.0271354 0.00195062 0.0204841 0.00356202 0.0338688 0.00391342 0.0259134 0.00286071 0.048745
87 2 Si -0.28442 81.2715 1.4799 2.4 1 0.00470334 0.00411709 0.00179379 0.00775104 0.00108898 0.0062663 0.00201064 0.0222276 0.00108481 0.00920554 0.00188575 0.0269247 0.00263772 0.0205613 0.00429106 0.0331403 0.00435083 0.0255736 0.00334583 0.048845
88 3 O 1.26016 81.3313 1.55154 -1.2 1 0.00449074 0.00408667 0.00150676 0.00757838 0.000822608 0.00616974 0.00167816 0.0218447 0.00185674 0.00892833 0.00140096 0.0277294 0.00221528 0.0197598 0.00248477 0.0336906 0.00410699 0.0257225 0.00287748 0.0486715
89 3 O -1.36947 85.0411 1.58867 -1.2 1 0.00487635 0.00431189 0.00105737 0.00670014 0.00063556 0.00659675 0.00126185 0.0229741 0.00134715 0.00858022 0.00209737 0.0272492 0.00245584 0.0203824 0.00379374 0.0338593 0.00373511 0.0259398 0.00326414 0.0489855
90 3 O -1.01229 81.9764 0.198563 -1.2 1 0.0041903 0.0032918 0.00137026 0.0068536 0.000839861 0.00639824 0.00165521 0.0222115 0.00127174 0.00920887 0.00196385 0.0261509 0.00254288 0.0201558 0.00373749 0.0336994 0.0043069 0.0259213 0.00310153 0.0484984
91 1 Mg -2.4566 90.6689 3.11555 1.2 1 0.0012892 0.00306775 0.000455047 0.00549217 0.00103871 0.00589103 0.0011184 0.0225235 0.00136736 0.00839849 0.00123616 0.0269712 0.00158051 0.0203339 0.00189812 0.0341434 0.00272884 0.0253312 0.00292622 0.0486782
92 3 O -0.915327 82.068 2.76633 -1.2 1 0.00466207 0.00445818 0.00152687 0.00753409 0.000876926 0.00620425 0.00168716 0.0225679 0.00156448 0.00883048 0.00187204 0.0268517 0.00256122 0.0205978 0.00326015 0.0337735 0.00295409 0.0263675 0.00271276 0.0486568
93 1 Mg -2.36508 87.9172 4.57515 1.2 1 0.00326269 0.00431579 0.0021408 0.0065091 0.000936862 0.00553755 0.00134472 0.0219909 0.00181825 0.00808885 0.00227429 0.0268135 0.00297017 0.0209783 0.00350442 0.0350752 0.00276872 0.0260385 0.00358395 0.0495258
94 2 Si 0.137775 89.6272 4.74504 2.4 1 0.0018461 0.00326193 0.00145606 0.00689833 0.00127722 0.00662122 0.00151249 0.0230576 0.0013737 0.00778533 0.00182955 0.0258422 0.00219651 0.0207743 0.00228825 0.0337301 0.0026569 0.0254757 0.00281663 0.0509783
95 3 O -1.37696 89.7702 4.72507 -1.2 1 0.00105898 0.0034373 0.00126072 0.00637746 0.00135346 0.00590776 0.00133603 0.022275 0.00166456 0.0075267 0.00152141 0.026831 0.00224439 0.019842 0.00258222 0.0341746 0.00242211 0.0251825 0.00256008 0.049328
96 3 O 1.49608 86.0235 4.68205 -1.2 1 0.00423968 0.00460972 0.00185963 0.00686078 0.00090412 0.00619869 0.00134608 0.0228837 0.0013544 0.00808934 0.00257162 0.0273639 0.00224673 0.0205081 0.00295741 0.0335481 0.00323685 0.0260736 0.00429751 0.0498467
97 3 O 0.808386 88.9527 3.50691 -1.2 1 0.00201252 0.00358106 0.00126238 0.00622854 0.0011652 0.0059069 0.00161309 0.0225566 0.00161944 0.00766517 0.00184289 0.0262822 0.00251194 0.0209343 0.00214744 0.0348982 0.00255975 0.0253195 0.00308841 0.0498213
98 3 O 0.849137 89.0234 6.04192 -1.2 1 0.0018495 0.00387959 0.00197939 0.00654817 0.00141566 0.00608035 0.00138037 0.0227574 0.00103089 0.00772583 0.00199229 0.0262129 0.00309216 0.0203991 0.00316775 0.034495 0.00282293 0.0256067 0.00318974 0.0503898
99 1 Mg 0.114644 85.5061 3.16734 1.2 1 0.00458094 0.00451406 0.00110628 0.00673722 0.000845808 0.00599025 0.00115178 0.0226014 0.00135684 0.00877263 0.00156788 0.0278037 0.00194431 0.0203201 0.00221089 0.0340817 0.0029806 0.02577 0.00365345 0.0483623
100 1 Mg 0.116831 82.6806 4.58301 1.2 1 0.00635237 0.00544586 0.00120447 0.0078699 0.000829372 0.00611348 0.00186124 0.0226506 0.00244399 0.00892694 0.00218892 0.0276857 0.00327693 0.020869 0.00389552 0.0334788 0.00289872 0.026896 0.00300434 0.0491183
101 2 Si 2.22256 84.4838 4.68644 2.4 1 0.0050222 0.00507258 0.000946055 0.00803071 0.00114436 0.00670019 0.00169305 0.0227366 0.00144185 0.0085338 0.0026662 0.0262273 0.00220198 0.0212122 0.00335035 0.0331397 0.00317586 0.0262566 0.0037064 0.0503516
102 3 O -0.972437 84.5674 4.543 -1.2 1 0.00483979 0.00469375 0.00111346 0.00756452 0.00111685 0.00595295 0.00144803 0.0219849 0.00174309 0.00826782 0.00183313 0.0270898 0.00253844 0.0200852 0.00268824 0.0339555 0.0030195 0.0261366 0.00342665 0.0498288
103 3 O 1.10554 80.9393 4.57477 -1.2 1 0.0059835 0.00503553 0.00124497 0.0082748 0.000757018 0.00607637 0.000918981 0.0234602 0.00123334 0.00910702 0.00269526 0.0281197 0.00253906 0.0202447 0.00298323 0.0328655 0.00275082 0.0264626 0.0034621 0.0496227
104 3 O 1.55406 83.8596 3.43502 -1.2 1 0.00509957 0.00445718 0.000921116 0.00747042 0.00102456 0.00624625 0.00164787 0.0224987 0.00145722 0.00876132 0.00196593 0.0263053 0.00205498 0.0204367 0.00279789 0.033936 0.00261995 0.0264484 0.00294218 0.0485289
105 1 Mg -0.0610738 85.554 0.105736 1.2 1 0.00370783 0.00370133 0.00130223 0.00586189 0.000679076 0.00634881 0.0011389 0.022279 0.00139711 0.00836273 0.00210562 0.0273387 0.00181069 0.0199893 0.00214838 0.0339352 0.0035428 0.0256223 0.00373799 0.0481625
106 3 O 1.54805 83.8416 5.94137 -1.2 1 0.00587318 0.00527246 0.0010179 0.00773301 0.00115762 0.0062126 0.00134797 0.0227055 0.00190391 0.0086526 0.00233135 0.0265944 0.0030978 0.0210781 0.0036684 0.0338855 0.003414 0.0268373 0.00369873 0.0504514
107 1 Mg 0.000217268 88.3486 1.90296 1.2 1 0.00173585 0.00371882 0.0010653 0.00609595 0.000811834 0.00586235 0.00116794 0.0224045 0.00206648 0.007823 0.00162712 0.026929 0.00201612 0.021404 0.00292908 0.0349673 0.00317463 0.024946 0.00279306 0.0497845
108 2 Si -2.08819 86.454 1.70569 2.4 1 0.00329632 0.00396393 0.00102242 0.00696902 0.00111349 0.00665527 0.00166456 0.0223735 0.00148166 0.00796272 0.00201969 0.0262553 0.00260821 0.0211589 0.00409101 0.0338118 0.0040912 0.025276 0.00341455 0.0493967
109 3 O 1.16615 86.3258 1.72076 -1.2 1 0.00344129 0.00372681 0.00107537 0.00660667 0.00101857 0.00592053 0.00134691 0.0219393 0.00242152 0.00783841 0.00201992 0.0267431 0.00216965 0.0205454 0.00265373 0.0348108 0.00310291 0.0254005 0.00347682 0.0490842
110 3 O -1.08229 90.2494 1.68059 -1.2 1 0.00108185 0.0026115 0.00098871 0.00592246 0.000916648 0.00628558 0.00129968 0.0224438 0.00164712 0.00788696 0.00215311 0.0265059 0.00201261 0.0208145 0.0033231 0.0338939 0.00342133 0.0248448 0.00366479 0.0496233
111 3 O -1.31079 87.2007 0.374411 -1.2 1 0.00235207 0.00327352 0.00112753 0.00587486 0.000939413 0.00590032 0.00150667 0.0219317 0.00176428 0.00805182 0.00193975 0.0261844 0.00285578 0.0205067 0.00387913 0.034541 0.00416 0.0253944 0.0036063 0.0489502
112 3 O -1.37764 87.2328 2.89926 -1.2 1 0.00297033 0.00424648 0.00126833 0.00633365 0.00106645 0.00594856 0.00130463 0.0225828 0.00199772 0.00796585 0.00159439 0.0262308 0.00278758 0.0210516 0.00335799 0.0352494 0.00338116 0.0259754 0.0033716 0.0495414
113 1 Mg -2.30064 90.697 0.0827814 1.2 1 0.000881456 0.00254103 0.000847447 0.00518226 0.00102172 0.00563793 0.001325 0.022082 0.00196785 0.0085777 0.00147681 0.0269757 0.00157744 0.0207176 0.0026061 0.0342949 0.00293906 0.0245628 0.0037749 0.0485044
114 1 Mg 2.24363 93.353 1.56901 1.2 1 0.00253781 0.00190621 0.000826997 0.00546742 0.00107491 0.00568881 0.0017545 0.0224368 0.00274264 0.00868654 0.00211261 0.0261228 0.00297241 0.021262 0.00314742 0.0351775 0.00372076 0.0252222 0.00423074 0.0495156
115 2 Si -0.295796 91.6994 1.7249 2.4 1 0.00187453 0.00238485 0.000415667 0.00592343 0.000874352 0.00660882 0.00166897 0.0226005 0.00172491 0.00762954 0.00179635 0.0253488 0.00178385 0.0210164 0.00267434 0.0342173 0.00320785 0.0252764 0.00331971 0.0505565
116 3 O 1.22074 91.5191 1.65946 -1.2 1 0.00105732 0.00220247 0.000610712 0.0057272 0.0011024 0.00599068 0.00153491 0.0221001 0.00196236 0.00775434 0.00147164 0.0263344 0.00225332 0.0206642 0.00180465 0.0347322 0.0031028 0.0247236 0.00279914 0.0500999
117 3 O -1.38317 95.0801 1.5598 -1.2 1 0.0027656 0.00176626 0.000567083 0.00556023 0.00104627 0.00584962 0.00151443 0.0227805 0.00152221 0.00856751 0.00187408 0.0265153 0.0025102 0.0204178 0.00276165 0.03423 0.00338945 0.0248182 0.00357005 0.0486401
118 3 O -0.960091 92.3436 0.311519 -1.2 1 0.00172592 0.00183269 0.000812585 0.0051974 0.00120579 0.00594899 0.00154874 0.0224505 0.00187308 0.00824268 0.00204849 0.0254366 0.00212605 0.0211725 0.00296287 0.034841 0.0029747 0.0248296 0.00372145 0.0495281
119 1 Mg -2.35509 100.806 3.09094 1.2 1 0.00152597 0.0025403 0.00105592 0.0051647 0.000913345 0.00632299 0.00130652 0.0210296 0.000975459 0.00942948 0.00129178 0.0270569 0.00164281 0.019618 0.00205242 0.0327649 0.00261399 0.02415 0.0025388 0.046568