ITEM: TIMESTEP
4200
ITEM: NUMBER OF ATOMS
5600
ITEM: BOX BOUNDS xy xz yz pp pp pp
0	7.1235	0
0	201.985	2.3745
0	119.584	0
ITEM: ATOMS id type element xu yu zu q Q_1 Q_2 Q_3 Q_4 Q_5 Q_6 Q_7 Q_8 Q_9 Q_10 Q_11 Q_12 Q_13 Q_14 Q_15 Q_16 Q_17 Q_18 Q_19 Q_20 Q_21
1 1 Mg -1.60712 49.7818 -0.841428 1.2 1 0.238766 0.0812017 0.0203304 0.0274396 0.00593946 0.0149835 0.0050145 0.0221304 0.00398269 0.0270735 0.00628595 0.029826 0.0106375 0.0286953 0.00702254 0.0272565 0.00779668 0.0237723 0.0100535 0.0377623
2 1 Mg 2.9297 51.6258 2.13812 1.2 1 0.18542 0.0677764 0.00943014 0.0195536 0.00265267 0.0104363 0.00330722 0.0193385 0.00324243 0.0210555 0.00508028 0.0268574 0.00575334 0.0257701 0.00538589 0.026625 0.00568238 0.0212137 0.00995532 0.0365491
3 2 Si 0.812647 51.4474 0.215868 2.4 1 0.196833 0.0717782 0.0117671 0.0215376 0.00388562 0.0113371 0.00315277 0.0213629 0.00409463 0.0239 0.00450946 0.0291601 0.00820415 0.0272266 0.00461096 0.0274592 0.00604097 0.0210976 0.00927353 0.0386929
4 3 O 2.17589 50.7196 0.520963 -1.2 1 0.212291 0.0752052 0.0147978 0.0238232 0.00371327 0.0122832 0.00372349 0.0206611 0.00417217 0.0236408 0.00528962 0.0275824 0.00839542 0.0271325 0.00617603 0.0267749 0.00712021 0.0216319 0.00886123 0.0366894
5 3 O -1.34447 54.0524 1.58732 -1.2 1 0.131995 0.0509276 0.00331858 0.0129446 0.00222701 0.00845911 0.00249253 0.0195854 0.00232538 0.0167992 0.00361945 0.0275473 0.005238 0.022758 0.00283685 0.0275728 0.00527413 0.0201934 0.00816528 0.0409129
6 3 O 0.0665618 50.672 -0.936659 -1.2 1 0.214246 0.0758424 0.0156766 0.0238383 0.00457715 0.0136169 0.00400716 0.0211252 0.00354371 0.0254013 0.00530836 0.0294594 0.00849124 0.0276941 0.00542791 0.0274613 0.00637116 0.0221043 0.00879544 0.038389
7 1 Mg -2.38948 59.7756 2.96818 1.2 1 0.0164113 0.0113316 0.00576973 0.00538695 0.000830869 0.00554295 0.00110842 0.0228755 0.00258966 0.0093829 0.0020251 0.0300576 0.00301186 0.0210942 0.00321495 0.0324105 0.004433 0.023224 0.00491935 0.0511035
8 3 O -0.0126222 51.3838 1.53468 -1.2 1 0.188288 0.068855 0.0100196 0.0202947 0.00283215 0.0106409 0.00395142 0.0201598 0.00431314 0.0223504 0.00472957 0.0272861 0.00618841 0.0262515 0.0054161 0.0270959 0.00617176 0.0214916 0.00860614 0.0366274
9 1 Mg -2.31119 56.9215 4.50159 1.2 1 0.0717055 0.0325954 0.00447399 0.00757061 0.00214186 0.0059152 0.00169941 0.020623 0.00208774 0.0124717 0.00254984 0.0274593 0.00270546 0.0217336 0.00379597 0.0298817 0.00397182 0.0222683 0.00637341 0.0447373
10 2 Si 0.36473 58.7588 4.49756 2.4 1 0.0347987 0.0202108 0.00724343 0.00616315 0.0014122 0.00548763 0.00234378 0.0227192 0.00264636 0.0102028 0.00368906 0.0280213 0.00254631 0.0218398 0.00513475 0.031284 0.00433206 0.0227325 0.00575814 0.0492047
11 3 O -1.19529 58.8653 4.47841 -1.2 1 0.0288012 0.0174363 0.00733872 0.00574597 0.00120354 0.00509127 0.00197377 0.0226468 0.0032275 0.00897708 0.0025535 0.0290231 0.00278722 0.0207943 0.00423718 0.0317612 0.00498662 0.0224304 0.00543276 0.0497976
12 3 O 1.54081 54.8029 4.72051 -1.2 1 0.119468 0.0471255 0.00203444 0.0120808 0.00228141 0.00787082 0.00223235 0.0201565 0.00204729 0.0163031 0.0033831 0.0269262 0.00374829 0.0233795 0.00345586 0.0272267 0.00375553 0.0204578 0.00742246 0.0411382
13 3 O 1.00758 58.0262 3.25245 -1.2 1 0.0461826 0.0248227 0.0068726 0.00610142 0.00181541 0.00529717 0.00169127 0.0222924 0.00217426 0.010867 0.0024439 0.0281232 0.00249663 0.0216569 0.00448141 0.0306562 0.00418778 0.0223963 0.00624885 0.0479262
14 3 O 1.08652 58.1092 5.77719 -1.2 1 0.0426411 0.0233695 0.00713556 0.00606331 0.00162578 0.00566537 0.00167763 0.0219924 0.0023979 0.00980202 0.00244457 0.027997 0.00239461 0.0215259 0.00507607 0.0315777 0.00411532 0.0226339 0.00594224 0.0480734
15 1 Mg 0.179211 54.2016 2.95671 1.2 1 0.128752 0.0515323 0.00184766 0.0132897 0.00220507 0.00829798 0.00237027 0.0201207 0.00233381 0.018237 0.00354119 0.0277764 0.00426496 0.0226333 0.00505787 0.0270572 0.00324079 0.0203762 0.00797692 0.039926
16 1 Mg 0.758103 50.7238 3.1391 1.2 1 0.215018 0.07365 0.0158135 0.0229407 0.00360576 0.0123761 0.00353133 0.0198592 0.00394501 0.0229424 0.00431775 0.0267962 0.00768959 0.0274197 0.00572798 0.0258193 0.00680757 0.0214303 0.0101995 0.0358156
17 2 Si 2.30681 53.4093 4.67595 2.4 1 0.156646 0.0582227 0.00618703 0.0157237 0.0029836 0.00896659 0.00306325 0.0191285 0.00290435 0.0180203 0.00405219 0.0260675 0.00474507 0.0240584 0.00481712 0.0266989 0.00382224 0.019985 0.00904957 0.0379233
18 3 O -0.906057 53.6573 4.60535 -1.2 1 0.134884 0.0525124 0.00282859 0.0131258 0.00285183 0.00732479 0.00274522 0.0197371 0.00267459 0.0174552 0.00313479 0.0278736 0.00484571 0.0247063 0.00349432 0.0275768 0.00484723 0.0204452 0.00797496 0.0396674
19 3 O 2.44252 49.9046 3.22869 -1.2 1 0.23118 0.0785412 0.0185443 0.0254979 0.00389352 0.0148328 0.00400121 0.0200288 0.00489718 0.0242874 0.00456164 0.0265808 0.00930114 0.0283868 0.00717812 0.025663 0.00772599 0.0226263 0.0108498 0.034861
20 3 O 1.74921 52.6935 3.36096 -1.2 1 0.164995 0.0602188 0.00767583 0.0161028 0.00302394 0.00987446 0.00349249 0.0194556 0.002482 0.0193762 0.00356168 0.0269254 0.00564247 0.0249266 0.0045595 0.0263276 0.00436939 0.0203718 0.00891377 0.0381753
21 1 Mg -0.143716 54.6044 0.0347007 1.2 1 0.123666 0.0500898 0.00201912 0.0128723 0.00242731 0.0081572 0.00273851 0.0207588 0.00265006 0.0186301 0.00399453 0.0292386 0.00480286 0.0225371 0.00310059 0.0278051 0.00461933 0.0209275 0.00736394 0.0424691
22 3 O 1.78166 52.3821 5.86312 -1.2 1 0.174999 0.0629423 0.0087731 0.0179192 0.0033105 0.0103489 0.00291197 0.0193195 0.00274392 0.0196549 0.00412616 0.0264043 0.0054168 0.0256848 0.00469435 0.0265422 0.00375767 0.0198829 0.00901874 0.0366378
23 1 Mg 0.0222108 57.3775 1.55129 1.2 1 0.0548723 0.028527 0.0069035 0.00658821 0.00191381 0.00583772 0.00181052 0.0208349 0.00405501 0.0117584 0.00342021 0.0289061 0.00278 0.0214746 0.00430129 0.029812 0.00551227 0.0207848 0.00705308 0.0474363
24 2 Si -2.04741 55.4942 1.60513 2.4 1 0.104006 0.0441086 0.00157491 0.0105916 0.00237912 0.00671455 0.00247211 0.0202962 0.00348665 0.0153445 0.0035716 0.027502 0.00363113 0.022753 0.00314573 0.0282811 0.00525842 0.0201149 0.00718593 0.0435014
25 3 O 1.13892 55.4093 1.58157 -1.2 1 0.107077 0.0441654 0.00134357 0.0107581 0.001913 0.0073203 0.00247703 0.0196631 0.00268694 0.015425 0.00319588 0.0276547 0.00390824 0.0216076 0.00346167 0.028532 0.00445226 0.0207412 0.0074954 0.0427228
26 3 O -1.00287 59.2841 1.49564 -1.2 1 0.0244222 0.0155854 0.00774151 0.00556506 0.000818276 0.00536869 0.0013254 0.0226365 0.00384615 0.00922145 0.00236405 0.029783 0.00357078 0.0209277 0.00414121 0.0324329 0.00580462 0.0228696 0.00677686 0.0510864
27 3 O -1.43605 56.2094 0.299682 -1.2 1 0.0842209 0.0373204 0.0029688 0.00823948 0.00227318 0.00620519 0.0018339 0.0207604 0.00348462 0.0139687 0.00324158 0.0281032 0.00331455 0.0217423 0.00314213 0.0297923 0.00527978 0.021549 0.00701457 0.0456506
28 3 O -1.37968 56.237 2.84948 -1.2 1 0.0833568 0.0362075 0.00326901 0.00817149 0.00164251 0.00634829 0.00179883 0.0210474 0.00354639 0.0135175 0.00275722 0.0275469 0.00296392 0.0219663 0.00261745 0.0292101 0.00547282 0.0216555 0.00715506 0.0445528
29 1 Mg -2.40503 59.7873 0.0411183 1.2 1 0.0180181 0.0123667 0.00641339 0.00542486 0.000755473 0.00554199 0.00145522 0.0231466 0.0031029 0.00938742 0.00208385 0.0304308 0.00278207 0.0212926 0.0033981 0.0326287 0.00490314 0.0236349 0.00547952 0.0527497
30 1 Mg 2.33161 62.6195 1.49941 1.2 1 0.0017655 0.00349482 0.00155827 0.00640527 0.00105113 0.00592761 0.00114002 0.023607 0.00238617 0.00798244 0.00225654 0.0305979 0.00168481 0.0213144 0.00297452 0.034305 0.00334859 0.0244427 0.00315705 0.0560724
31 2 Si -0.329595 60.7657 1.50139 2.4 1 0.0103633 0.0077436 0.00429938 0.00594593 0.000698936 0.00650108 0.000978262 0.0229568 0.00217369 0.00866563 0.00214576 0.0291407 0.00338086 0.0216906 0.00346357 0.033124 0.00491013 0.0235779 0.00455523 0.0545145
32 3 O 1.24269 60.7024 1.50414 -1.2 1 0.0117662 0.00832155 0.00497071 0.00560979 0.000842873 0.00570522 0.00125712 0.0226963 0.00294112 0.00828857 0.00184392 0.0298283 0.00256171 0.021106 0.00286364 0.0335243 0.0045028 0.023573 0.00513869 0.054007
33 3 O -1.34121 64.4046 1.5275 -1.2 1 0.00127682 0.00309195 0.00175851 0.00679671 0.000814698 0.00612304 0.000977823 0.0246541 0.000988757 0.0077716 0.00169158 0.030829 0.00197465 0.0206226 0.002993 0.0339655 0.00312881 0.0243775 0.00359448 0.0565582
34 3 O -1.04498 61.4511 0.246948 -1.2 1 0.00674533 0.00566083 0.00341341 0.0056454 0.000686012 0.00614054 0.00114281 0.0233696 0.00240885 0.00820514 0.00154914 0.0298675 0.00244724 0.0217988 0.00277035 0.0341155 0.00392297 0.024435 0.00409821 0.055289
35 1 Mg -2.3351 70.0462 3.06758 1.2 1 0.000799305 0.00426008 0.000741984 0.00683602 0.000915591 0.00559467 0.000816073 0.0245419 0.000585628 0.00810186 0.000640879 0.031495 0.000708953 0.0209072 0.00115436 0.0335086 0.000891603 0.0241617 0.0011156 0.0567056
36 3 O -0.985031 61.4057 2.76553 -1.2 1 0.00669658 0.00547877 0.00298286 0.00563766 0.000757692 0.00594398 0.00126428 0.0232359 0.00217209 0.00837524 0.0015674 0.0294473 0.0024797 0.0212723 0.00290392 0.0340064 0.00381369 0.0240132 0.00361348 0.0542413
37 1 Mg -2.291 67.1557 4.49084 1.2 1 0.000578382 0.0039328 0.00081526 0.00678785 0.000734466 0.00558524 0.00102873 0.0243824 0.00179535 0.00815298 0.00186909 0.0308903 0.00175276 0.0212455 0.00275215 0.034307 0.00238631 0.0246937 0.00259842 0.0568698
38 2 Si 0.364635 69.028 4.56797 2.4 1 0.00138528 0.00411056 0.000836322 0.00722957 0.00150611 0.00595333 0.00165309 0.0241267 0.00131264 0.00795506 0.00196165 0.0300283 0.00201084 0.021626 0.00319216 0.0337215 0.00263737 0.0240801 0.00173079 0.0578641
39 3 O -1.21398 69.0914 4.55883 -1.2 1 0.000969028 0.00415548 0.000867223 0.00678029 0.00178825 0.00543923 0.00145868 0.0236602 0.00210729 0.00777579 0.00144457 0.0307829 0.00183568 0.0208485 0.00170396 0.034261 0.00262966 0.0237702 0.00251155 0.057371
40 3 O 1.41768 65.3606 4.47183 -1.2 1 0.00080131 0.00366549 0.00108264 0.0068628 0.000944937 0.0061557 0.001055 0.0242669 0.0014014 0.00759312 0.00165797 0.0308966 0.00205581 0.0207363 0.00246862 0.0338344 0.0023218 0.0241743 0.00277108 0.0567317
41 3 O 1.07225 68.3336 3.28587 -1.2 1 0.00112443 0.00410645 0.000992396 0.00642878 0.00144627 0.00547033 0.00145576 0.0244144 0.00145351 0.00817893 0.00148427 0.0301863 0.00202599 0.021829 0.00218713 0.03431 0.00195481 0.0244481 0.00210248 0.057381
42 3 O 1.06993 68.3724 5.82906 -1.2 1 0.00132353 0.00400005 0.000699903 0.00666645 0.0014841 0.00549763 0.00125139 0.0241149 0.000951521 0.00816686 0.00125211 0.0301043 0.00176676 0.0212393 0.00168181 0.0346706 0.00118272 0.0244965 0.00123201 0.0572162
43 1 Mg 0.0281994 64.8341 3.0096 1.2 1 0.000365199 0.00356547 0.00113291 0.00647392 0.000773262 0.00597298 0.000629266 0.0241275 0.000945441 0.00826902 0.000857577 0.0312767 0.00110908 0.0206959 0.00146469 0.0338856 0.00152344 0.0240134 0.00228049 0.0558807
44 1 Mg -0.0957785 62.0609 4.4858 1.2 1 0.00415873 0.00428264 0.00220076 0.00603326 0.0010638 0.00595246 0.0014746 0.0235934 0.0014427 0.00850517 0.0027631 0.0302409 0.00247361 0.021156 0.00326532 0.0341032 0.00294297 0.0241613 0.00367216 0.0545256
45 2 Si 2.08856 63.8513 4.48546 2.4 1 0.000645825 0.00366026 0.00116803 0.0070085 0.00134499 0.00645974 0.00145567 0.0239692 0.0015053 0.00783404 0.00240772 0.0298326 0.00184417 0.0211873 0.00344269 0.0338705 0.00248926 0.0241327 0.00273962 0.0571913
46 3 O -1.10357 63.9096 4.5086 -1.2 1 0.00086501 0.00365266 0.00085228 0.006704 0.0015112 0.00577846 0.0015038 0.0231655 0.00224861 0.0075294 0.0017033 0.0305275 0.00182054 0.0205339 0.0020502 0.0343564 0.00285132 0.0235521 0.00302351 0.0563977
47 3 O 1.02044 60.2409 4.45372 -1.2 1 0.0131396 0.00941135 0.00446688 0.00583394 0.000910522 0.00602857 0.00198027 0.0232236 0.00198133 0.00856596 0.00254628 0.0297753 0.0021732 0.0212646 0.00356634 0.0327061 0.00359376 0.0232061 0.00366912 0.0523294
48 3 O 1.39069 63.2152 3.20951 -1.2 1 0.00164805 0.00346487 0.00114335 0.00625115 0.00124895 0.00615104 0.00135954 0.0239827 0.00121719 0.0079742 0.00146603 0.0300411 0.00171445 0.0213606 0.0027645 0.0342296 0.00176626 0.0244134 0.00252101 0.0559679
49 1 Mg -0.0482949 64.9252 0.032763 1.2 1 0.000955443 0.00286126 0.00168425 0.00659563 0.00075697 0.0059446 0.000821652 0.0244256 0.000704792 0.0079198 0.000850919 0.0310231 0.000959513 0.0205016 0.00136713 0.0338121 0.00156965 0.0243877 0.00203739 0.0563206
50 3 O 1.42029 63.2213 5.79493 -1.2 1 0.00133577 0.00366377 0.00107191 0.00643988 0.00125686 0.0062942 0.00140617 0.0238918 0.00115194 0.00801295 0.00145584 0.0299805 0.00173569 0.0212325 0.00314238 0.0342808 0.00169873 0.0241483 0.00254402 0.0560724
51 1 Mg 0.0959758 67.765 1.57786 1.2 1 0.00148884 0.00375896 0.00136526 0.00657172 0.000879128 0.00556279 0.00128626 0.0243661 0.0017807 0.0083826 0.00187967 0.0309547 0.00211818 0.0215919 0.00245095 0.0342247 0.0023096 0.0246447 0.00214591 0.0572039
52 2 Si -2.02134 65.9322 1.54521 2.4 1 0.000813811 0.00349268 0.00153622 0.00695693 0.000698851 0.00614172 0.00132068 0.0239517 0.00115055 0.00801016 0.00197886 0.0298859 0.00163397 0.0214966 0.00367884 0.0337604 0.00327008 0.0239206 0.00285889 0.0579908
53 3 O 1.18858 65.838 1.55327 -1.2 1 0.000314676 0.00344915 0.00174126 0.00656687 0.000601998 0.00549709 0.00110763 0.0239363 0.00227145 0.00773429 0.00123943 0.0306524 0.00160048 0.0207697 0.00149259 0.0343864 0.00272779 0.0240166 0.00278761 0.0573507
54 3 O -0.973195 69.5884 1.57595 -1.2 1 0.000749403 0.00422133 0.00115355 0.00689886 0.000815515 0.00600849 0.000812282 0.0245583 0.000720978 0.00786497 0.00186091 0.0313821 0.00171272 0.0207931 0.00321888 0.033353 0.00245743 0.024045 0.00276963 0.0573491
55 3 O -1.38849 66.5812 0.225495 -1.2 1 0.000876644 0.0031891 0.00140576 0.00642362 0.000810585 0.00566624 0.00168697 0.0242059 0.00117386 0.00822456 0.00164514 0.0301369 0.00209665 0.0214531 0.0032195 0.0341123 0.00252083 0.0242808 0.00235249 0.0576942
56 3 O -1.31192 66.5566 2.7898 -1.2 1 0.000678841 0.00372086 0.00117714 0.00654091 0.000705166 0.00582783 0.00133322 0.0245148 0.0011268 0.0080145 0.00128966 0.0299814 0.00153898 0.0212804 0.00221717 0.0342831 0.0019655 0.0246119 0.00202762 0.0570537
57 1 Mg -2.45146 70.0314 0.0984066 1.2 1 0.00074856 0.0045342 0.00119269 0.00656212 0.000675653 0.00614595 0.0008102 0.0245011 0.000522698 0.00804137 0.00094059 0.0315378 0.000527999 0.0208585 0.00112432 0.0332236 0.000863619 0.0243567 0.000890443 0.0567604
58 1 Mg 2.37283 72.9088 1.60006 1.2 1 0.000416364 0.00421588 0.000601093 0.00675396 0.000757738 0.00521698 0.00122985 0.0242968 0.00195859 0.00815344 0.00198114 0.030921 0.00175081 0.0213078 0.00298362 0.0341962 0.00238545 0.0248526 0.0023076 0.0578682
59 2 Si -0.331165 71.0768 1.55952 2.4 1 0.00110063 0.00465655 0.000668994 0.00721771 0.000761798 0.00593729 0.00125288 0.0240632 0.00103416 0.00799401 0.00222616 0.0299682 0.00171677 0.0214507 0.00355099 0.0336471 0.00281843 0.024257 0.0022654 0.058687
60 3 O 1.2327 71.0073 1.58116 -1.2 1 0.000646459 0.00458713 0.000726719 0.00674319 0.000876188 0.00537912 0.00124904 0.0236706 0.00230783 0.00777435 0.00161433 0.0306513 0.00164853 0.0210493 0.00177575 0.0340062 0.00263189 0.0240314 0.00237806 0.058025
61 3 O -1.30147 74.703 1.675 -1.2 1 0.000883436 0.00405992 0.000860371 0.00696613 0.000562759 0.00561614 0.00107671 0.0248264 0.00120234 0.00776701 0.00163416 0.0309611 0.00173741 0.0207455 0.00283182 0.034084 0.00243338 0.0251645 0.00276589 0.0580874
62 3 O -0.999285 71.7277 0.295315 -1.2 1 0.000511836 0.00460983 0.000644368 0.00653109 0.000581804 0.00536062 0.00120374 0.0241812 0.000782944 0.0081627 0.00141456 0.0302509 0.00155759 0.0212051 0.00232995 0.0341663 0.0015849 0.0247213 0.00142497 0.0579098
63 1 Mg -2.33357 80.4325 3.13581 1.2 1 0.000442012 0.00308012 0.000517304 0.00690573 0.000500601 0.00492787 0.000666199 0.0246739 0.000559164 0.00823341 0.000522022 0.0313658 0.000698354 0.02061 0.00108063 0.0345878 0.00124359 0.0250208 0.00128382 0.0570735
64 3 O -0.988763 71.6994 2.87559 -1.2 1 0.000182244 0.00432079 0.000705383 0.0065394 0.000643933 0.00536225 0.00145825 0.0248913 0.00146237 0.00850448 0.0013515 0.0299658 0.00198996 0.0217256 0.00307674 0.0339967 0.00245439 0.0246784 0.00197509 0.0579038
65 1 Mg -2.26127 77.525 4.58154 1.2 1 0.00136185 0.00366721 0.000874803 0.00691306 0.000807551 0.004693 0.00106826 0.0247077 0.00208595 0.00837521 0.00226954 0.0310328 0.00207602 0.0212248 0.00257039 0.0348705 0.00265352 0.0252809 0.00268546 0.0579018
66 2 Si 0.380004 79.3875 4.60293 2.4 1 0.000778738 0.00347884 0.000835695 0.00731452 0.000930333 0.00515039 0.00148644 0.0245609 0.00129721 0.00832213 0.00187758 0.0301622 0.00180897 0.0211893 0.00297498 0.0345482 0.00242763 0.0247672 0.00200959 0.0586489
67 3 O -1.17001 79.5389 4.59725 -1.2 1 0.000828365 0.00348046 0.000555599 0.00715011 0.000699224 0.00496855 0.000994711 0.024856 0.00162653 0.00785773 0.000883278 0.0309264 0.00145877 0.0203402 0.00132488 0.0348329 0.00226763 0.02523 0.00196838 0.0580596
68 3 O 1.44676 75.7187 4.58143 -1.2 1 0.00115019 0.00371943 0.000950368 0.00717715 0.000496363 0.00527147 0.000881084 0.024947 0.000962447 0.00788386 0.00164225 0.0312001 0.00188958 0.0208292 0.00293277 0.0340719 0.00212693 0.0246398 0.00283178 0.0577549
69 3 O 1.092 78.7104 3.33735 -1.2 1 0.000930909 0.00343985 0.000515857 0.00653781 0.000778082 0.00499608 0.00147468 0.0247507 0.00170158 0.00853892 0.00130036 0.0300934 0.00162559 0.0215847 0.00250445 0.0350398 0.00202601 0.0253286 0.00202162 0.0582419
70 3 O 1.05171 78.7241 5.91023 -1.2 1 0.000659872 0.0035314 0.000540556 0.00683554 0.000567067 0.0047781 0.00109492 0.0247368 0.0012191 0.00845352 0.00123198 0.0303324 0.00151624 0.0211171 0.00206302 0.0350273 0.00147041 0.0251192 0.00148145 0.057912
71 1 Mg 0.119689 75.2093 3.08187 1.2 1 0.000978139 0.00370208 0.000796348 0.00673339 0.000537657 0.00517185 0.000920876 0.0245909 0.000654205 0.00829431 0.000791977 0.0314345 0.000809495 0.0209368 0.00117518 0.0339426 0.00105512 0.0245754 0.00126918 0.0571916
72 1 Mg -0.0223501 72.3371 4.58382 1.2 1 0.00058103 0.00423524 0.000891818 0.00687758 0.000778033 0.00485436 0.00134421 0.0248993 0.00195239 0.00862155 0.00221073 0.0307944 0.00219704 0.0215714 0.00327487 0.0346168 0.00235208 0.0248438 0.00220834 0.057681
73 2 Si 2.10241 74.2263 4.59254 2.4 1 0.000829082 0.00404122 0.000646567 0.00730324 0.00106313 0.005606 0.00135899 0.0247537 0.00117729 0.00822099 0.00179258 0.0299835 0.00196552 0.0216119 0.00315871 0.034077 0.00254248 0.0245502 0.00207425 0.0588691
74 3 O -1.07855 74.3076 4.55499 -1.2 1 0.00069877 0.00401581 0.000825243 0.00691672 0.00103564 0.00511489 0.00118331 0.0244645 0.00233182 0.00778311 0.00129403 0.0306784 0.00118306 0.0206405 0.00191066 0.0344701 0.00189547 0.0246485 0.00208189 0.0580059
75 3 O 1.02284 70.537 4.57929 -1.2 1 0.000781613 0.00430726 0.000977692 0.00707374 0.00091164 0.00563141 0.00109553 0.0248099 0.00128853 0.00799676 0.00131887 0.0311833 0.00167768 0.0208653 0.00265908 0.0337687 0.00243893 0.0241716 0.00309386 0.0573611
76 3 O 1.39237 73.5412 3.35112 -1.2 1 0.000438661 0.00410939 0.000680561 0.00661084 0.00090572 0.0053189 0.00129964 0.0247855 0.0014622 0.00828106 0.0010275 0.0300815 0.0018439 0.0217674 0.00261473 0.034461 0.00194524 0.0249108 0.00168482 0.0579761
77 1 Mg 0.0629787 75.2187 0.173565 1.2 1 0.00121397 0.00387625 0.000611401 0.00660573 0.000386222 0.00526601 0.000875244 0.0244065 0.000843203 0.00802533 0.000840544 0.0313139 0.000673903 0.0207298 0.00126584 0.0338609 0.00114069 0.0250015 0.0012416 0.0574105
78 3 O 1.4378 73.6207 5.90958 -1.2 1 0.000206297 0.00380469 0.000932642 0.00678842 0.00105096 0.00510889 0.00151546 0.0249634 0.000893199 0.00846408 0.00117956 0.0303716 0.00204664 0.0214379 0.00291099 0.0344264 0.00159718 0.0247038 0.00160507 0.0580511
79 1 Mg 0.184484 78.0629 1.60714 1.2 1 0.00112571 0.00332658 0.000953596 0.00680244 0.000635554 0.00493092 0.00111308 0.024446 0.00183787 0.00846489 0.00201105 0.0308493 0.00208809 0.0215527 0.00252943 0.0347841 0.00249143 0.0253856 0.0022281 0.0582557
80 2 Si -1.96473 76.2041 1.63303 2.4 1 0.00145342 0.00351309 0.000888252 0.00701783 0.000902966 0.00545705 0.00161596 0.0243469 0.00136071 0.00803742 0.00194003 0.0300439 0.00146217 0.0213443 0.00310678 0.0343303 0.00285615 0.0249811 0.00217858 0.0590596
81 3 O 1.20478 76.1383 1.61933 -1.2 1 0.000868092 0.00382486 0.000877741 0.00678926 0.000515854 0.00525742 0.000994326 0.0244326 0.00172733 0.00776134 0.000942018 0.030683 0.00147835 0.0206966 0.00181255 0.0343814 0.00254235 0.0249357 0.00239786 0.0583328
82 3 O -0.933043 79.8807 1.58705 -1.2 1 0.000527866 0.00331863 0.00083933 0.00702878 0.000548757 0.00524622 0.00101024 0.0249155 0.000948632 0.00798265 0.00145905 0.0309101 0.00178612 0.0208461 0.00294181 0.0344584 0.00261537 0.0253086 0.00275514 0.0578932
83 3 O -1.29122 76.8433 0.316668 -1.2 1 0.00115428 0.00327604 0.000692604 0.00652895 0.00115402 0.00531638 0.00168858 0.0244746 0.00139283 0.00846219 0.00163525 0.030116 0.00204161 0.021406 0.00277249 0.0345381 0.00232317 0.0252863 0.00178864 0.0585056
84 3 O -1.29058 76.9188 2.90724 -1.2 1 0.00114429 0.00356926 0.000650475 0.00665807 0.000874941 0.00514623 0.00131272 0.0248342 0.00155066 0.00838222 0.00107608 0.02997 0.00155709 0.0215043 0.00202867 0.0346536 0.00179408 0.0253125 0.00197879 0.0581273
85 1 Mg -2.37698 80.4176 0.132522 1.2 1 0.000889041 0.00320135 0.000457581 0.00669717 0.000619248 0.00524229 0.00043858 0.0244009 0.000917163 0.00834566 0.00081894 0.0314144 0.000824989 0.0208519 0.0010483 0.0344352 0.00100667 0.0250196 0.00104628 0.0571618
86 1 Mg 2.30305 83.2527 1.68009 1.2 1 0.0018991 0.00284871 0.00114502 0.00688455 0.000944783 0.00478617 0.00147253 0.0246332 0.00191362 0.00859658 0.00222458 0.0307004 0.00226574 0.0212512 0.00309849 0.0351004 0.00242163 0.0253557 0.00222938 0.0577121
87 2 Si -0.308755 81.3728 1.60896 2.4 1 0.000594263 0.00293741 0.000672154 0.00728023 0.000649102 0.0054486 0.00147684 0.0243063 0.00155664 0.00839369 0.00212973 0.0297263 0.00207433 0.0214431 0.00345942 0.0346138 0.0029666 0.0249881 0.00219421 0.058809
88 3 O 1.25118 81.3365 1.6264 -1.2 1 0.000943366 0.00294678 0.00098645 0.00682656 0.000685731 0.00501898 0.00107303 0.0240767 0.00212107 0.00803724 0.00120326 0.030504 0.00152428 0.0207679 0.00160599 0.0349031 0.00212444 0.0250583 0.00197487 0.0580445
89 3 O -1.30057 85.0373 1.73222 -1.2 1 0.0015665 0.0027658 0.0011613 0.0071732 0.00123275 0.00528307 0.00103732 0.0251498 0.000740551 0.00812757 0.00171327 0.0309281 0.00143671 0.0208288 0.00272832 0.0345353 0.00231396 0.0250553 0.00295052 0.0574362
90 3 O -1.03234 82.073 0.336323 -1.2 1 0.00124573 0.00308564 0.000724258 0.00675573 0.000700024 0.00514473 0.00157515 0.0246875 0.00134556 0.00864059 0.00135836 0.029837 0.0022031 0.0214905 0.0029096 0.0346971 0.00207171 0.0253609 0.00182321 0.058195
91 1 Mg -2.36867 90.7094 3.21423 1.2 1 0.000756803 0.00240104 0.00067957 0.00657058 0.000485187 0.00505104 0.000588897 0.0251601 0.000773897 0.00848294 0.000705591 0.0313301 0.000921281 0.020845 0.00114575 0.0340308 0.00116723 0.0237924 0.00145123 0.0559123
92 3 O -0.996363 82.0355 2.89771 -1.2 1 0.000800106 0.00279627 0.000876975 0.0065562 0.00109115 0.00490612 0.00168887 0.0246043 0.00129041 0.00849344 0.00159778 0.0300093 0.0020974 0.0210791 0.0030129 0.0351765 0.00220201 0.0253542 0.00173878 0.0577844
93 1 Mg -2.3183 87.8164 4.71487 1.2 1 0.000754106 0.00223494 0.00103107 0.00680134 0.000786437 0.00487965 0.00121592 0.0253242 0.00166107 0.00850959 0.00179825 0.030834 0.00176571 0.021043 0.00295089 0.0347688 0.00275735 0.0248099 0.00243929 0.0566298
94 2 Si 0.356449 89.6927 4.71536 2.4 1 0.000964823 0.00215465 0.00102482 0.00698992 0.000745352 0.00534705 0.00124619 0.0251032 0.00100902 0.00860657 0.00157943 0.0297728 0.00169689 0.0214487 0.00283923 0.0342347 0.0029844 0.0240697 0.00233465 0.0576168
95 3 O -1.21876 89.7536 4.6722 -1.2 1 0.000695698 0.00230006 0.00120975 0.00660491 0.000753395 0.00469562 0.00121813 0.0246159 0.00205152 0.00831888 0.00127561 0.0305026 0.00197727 0.020648 0.0019689 0.0345597 0.00292608 0.0236931 0.00266773 0.0566686
96 3 O 1.46273 85.9887 4.67826 -1.2 1 0.00132395 0.00228138 0.00129787 0.00708935 0.000825305 0.00510201 0.00139412 0.0250736 0.00146698 0.00806912 0.00184458 0.0312586 0.00192497 0.0206352 0.00339518 0.0343615 0.00342171 0.024422 0.00286244 0.0569691
97 3 O 1.05656 89.0384 3.41623 -1.2 1 0.00092625 0.00242364 0.000768577 0.00639653 0.000700665 0.00523611 0.00125025 0.0255954 0.00127204 0.00905189 0.00106553 0.0297415 0.00163511 0.0216804 0.0023869 0.0344655 0.00242281 0.024626 0.0019276 0.0570069
98 3 O 1.02827 88.9892 5.96733 -1.2 1 0.00082954 0.00196604 0.0011328 0.00619367 0.000549997 0.00472891 0.00119036 0.0250679 0.00106428 0.00872055 0.00104365 0.0300616 0.00184939 0.0214747 0.00204427 0.0349566 0.00231703 0.0244214 0.0018429 0.0567483
99 1 Mg 0.0592146 85.4876 3.20592 1.2 1 0.00128372 0.00257705 0.000984417 0.00687919 0.000889685 0.00508004 0.00102238 0.0248325 0.000767719 0.00846764 0.000937817 0.0311694 0.000967703 0.0206004 0.00113183 0.0344495 0.00132789 0.0247436 0.00113736 0.0564723
100 1 Mg -0.0101937 82.6869 4.59716 1.2 1 0.000814724 0.00248415 0.00110363 0.00694892 0.000902773 0.00469088 0.0013858 0.0245289 0.00185405 0.00852151 0.00185863 0.0310013 0.0018047 0.0212229 0.00258513 0.0351845 0.00255775 0.025348 0.0022144 0.057548
101 2 Si 2.10349 84.4922 4.71312 2.4 1 0.00106945 0.00227825 0.0012971 0.00735512 0.0010719 0.00528689 0.00190644 0.0247827 0.00134751 0.00841244 0.00210282 0.029935 0.00198695 0.0214481 0.00337787 0.0345629 0.00288071 0.0247028 0.00164513 0.0581202
102 3 O -1.09497 84.6077 4.6988 -1.2 1 0.000943335 0.00233959 0.00105168 0.00687926 0.00128748 0.00475728 0.00128299 0.0240757 0.00234147 0.00806141 0.00138641 0.0306867 0.00176948 0.0206237 0.00191774 0.0349838 0.00275499 0.0243636 0.00229988 0.0573954
103 3 O 1.06158 80.8965 4.5876 -1.2 1 0.000877742 0.00297938 0.000892622 0.00726772 0.000809495 0.00510301 0.000792216 0.0250428 0.000993232 0.00804303 0.00139248 0.0311027 0.00159159 0.0207105 0.00234741 0.0344881 0.00199236 0.0251787 0.0021325 0.0577125
104 3 O 1.40945 83.8192 3.45445 -1.2 1 0.00132351 0.00239084 0.00111784 0.00664222 0.00126929 0.00485134 0.00152271 0.0246272 0.0014637 0.00868043 0.00139895 0.0300047 0.00189164 0.0214882 0.00235391 0.0350128 0.00232117 0.0249006 0.0016087 0.0575466
105 1 Mg 0.045129 85.533 0.218807 1.2 1 0.00160868 0.00311983 0.000715432 0.00683187 0.000904721 0.00517535 0.000762749 0.0247523 0.000848848 0.00831259 0.000858137 0.0311805 0.00100268 0.020681 0.00110644 0.0342495 0.0011515 0.0247564 0.00148723 0.0568223
106 3 O 1.42903 83.8457 5.98828 -1.2 1 0.00105388 0.00242662 0.000843808 0.006775 0.00106941 0.00495232 0.00148758 0.0251953 0.00159201 0.00861329 0.00136211 0.0301464 0.00187261 0.0215913 0.00261948 0.0349115 0.0022489 0.0252239 0.0017166 0.0576561
107 1 Mg 0.0570379 88.4035 1.67356 1.2 1 0.000974148 0.00304428 0.000814893 0.00675016 0.000550913 0.00479293 0.0010131 0.0248933 0.00219331 0.00916146 0.00225096 0.0306018 0.00212853 0.0215214 0.00281757 0.0346552 0.00260466 0.0248182 0.00245154 0.0570861
108 2 Si -1.98506 86.5374 1.7392 2.4 1 0.00113022 0.00287323 0.000818765 0.00731233 0.00103019 0.00541558 0.00163042 0.0246532 0.00121279 0.00843074 0.00198112 0.0298391 0.00194552 0.0216005 0.00358771 0.034138 0.00261797 0.02446 0.00223945 0.0582614
109 3 O 1.20964 86.4008 1.66974 -1.2 1 0.00111781 0.00286269 0.00081189 0.00706346 0.00100244 0.00506277 0.00122035 0.02476 0.00164046 0.00800063 0.00124015 0.0307201 0.00140899 0.02063 0.00158765 0.0346302 0.00178635 0.0246102 0.00203765 0.0574829
110 3 O -0.948628 90.2303 1.65041 -1.2 1 0.000800934 0.00257793 0.00102625 0.00692662 0.000645882 0.00530238 0.00106371 0.0254045 0.000906906 0.00838701 0.00200852 0.0310547 0.0023752 0.021006 0.0032476 0.0337151 0.00195077 0.0238851 0.00255436 0.056792
111 3 O -1.32354 87.234 0.447459 -1.2 1 0.000946052 0.00314856 0.000809454 0.00669131 0.000657061 0.00506095 0.00124594 0.0246061 0.00108098 0.00851557 0.00124131 0.0300475 0.00178639 0.0213518 0.00241191 0.0345004 0.00174889 0.0244319 0.00152899 0.0578326
112 3 O -1.30022 87.1993 3.01879 -1.2 1 0.000652559 0.00286019 0.000735827 0.00671893 0.000927593 0.00503159 0.00134191 0.0254751 0.00156011 0.00865754 0.00128653 0.0299144 0.00165547 0.0215067 0.00249223 0.0348909 0.00203592 0.0251909 0.00187526 0.0570575
113 1 Mg -2.30952 90.728 0.211253 1.2 1 0.000436934 0.00316471 0.000604991 0.00674136 0.000299428 0.00556898 0.00078649 0.0249902 0.000563815 0.00830545 0.000747813 0.0312834 0.00107849 0.0206748 0.00131329 0.0336297 0.0012164 0.0240355 0.00142299 0.0562822
114 1 Mg 2.39831 93.5957 1.69852 1.2 1 0.00152423 0.00257399 0.00099925 0.00647895 0.00082626 0.00484713 0.00166051 0.0250496 0.00221652 0.00814112 0.00193107 0.0309553 0.00147772 0.0209841 0.00307226 0.0343877 0.00240775 0.0239881 0.00301015 0.056526
115 2 Si -0.261321 91.7542 1.6754 2.4 1 0.00146127 0.0024801 0.000825084 0.00707597 0.00125362 0.00546787 0.00136354 0.0247731 0.00121359 0.00851358 0.0023705 0.0299093 0.00263444 0.021482 0.00394949 0.0338287 0.00273406 0.0236668 0.00204419 0.0577665
116 3 O 1.26508 91.6387 1.67811 -1.2 1 0.00117297 0.00288315 0.000681275 0.00672906 0.00130973 0.00512948 0.00118294 0.0243523 0.00236498 0.00818166 0.00135046 0.0304916 0.00168968 0.0206998 0.0021799 0.0343431 0.00240549 0.0237251 0.00239999 0.0571105
117 3 O -1.30662 95.3808 1.76991 -1.2 1 0.0022593 0.00212529 0.00101128 0.00662546 0.00107107 0.00534321 0.0016548 0.0252836 0.00169528 0.00777798 0.00190266 0.031151 0.00220277 0.0206872 0.00340121 0.034024 0.00252796 0.023861 0.00353356 0.0568749
118 3 O -0.955311 92.418 0.425744 -1.2 1 0.00123829 0.00259455 0.000397956 0.00644258 0.000790623 0.00538249 0.00115652 0.025084 0.00118627 0.00870304 0.00137559 0.029921 0.00215512 0.0216548 0.00284177 0.0342842 0.00190697 0.0242774 0.0021709 0.0574944