ITEM: TIMESTEP
3400
ITEM: NUMBER OF ATOMS
5600
ITEM: BOX BOUNDS xy xz yz pp pp pp
0	7.1235	0
0	201.985	2.3745
0	119.584	0
ITEM: ATOMS id type element xu yu zu q Q_1 Q_2 Q_3 Q_4 Q_5 Q_6 Q_7 Q_8 Q_9 Q_10 Q_11 Q_12 Q_13 Q_14 Q_15 Q_16 Q_17 Q_18 Q_19 Q_20 Q_21
1 1 Mg -1.43969 48.4192 -0.977282 1.2 1 0.249225 0.0752358 0.023588 0.0253831 0.00644043 0.0137895 0.00461606 0.015786 0.00556397 0.0215119 0.00606311 0.0246321 0.00684969 0.0235381 0.00818703 0.0202383 0.00834459 0.0211149 0.00930214 0.0241652
2 1 Mg 3.11253 51.8808 1.50414 1.2 1 0.164681 0.0587909 0.00799477 0.0154477 0.0029919 0.00869419 0.00344916 0.0164219 0.00393577 0.0179556 0.0055439 0.0239234 0.00530584 0.0225343 0.00682819 0.0225687 0.00611478 0.0187521 0.00723944 0.0284377
3 2 Si 0.876214 50.4596 -0.0046676 2.4 1 0.207191 0.0682111 0.0133368 0.0196217 0.00336996 0.0101773 0.00347686 0.0149836 0.0043625 0.0198769 0.00521973 0.0237065 0.00421907 0.0236049 0.00626708 0.0201986 0.00682597 0.0187501 0.00774019 0.0254964
4 3 O 1.71049 49.0587 0.0516607 -1.2 1 0.237126 0.0732793 0.0211085 0.0236264 0.00505234 0.0125241 0.00358918 0.0148923 0.00576496 0.0214858 0.00652542 0.0238964 0.00580976 0.0239463 0.00954328 0.0202582 0.00907769 0.0207738 0.00821412 0.0258558
5 3 O -1.04054 53.783 1.41235 -1.2 1 0.125984 0.0491011 0.00353011 0.0122358 0.00158154 0.00800879 0.00254016 0.0162286 0.00283931 0.015998 0.00366567 0.0242208 0.0041137 0.020486 0.00428636 0.0238592 0.00577716 0.0179834 0.00592457 0.0303487
6 3 O -0.150406 49.9519 -1.21709 -1.2 1 0.211247 0.0691574 0.0138169 0.0202321 0.00399714 0.010651 0.00389827 0.0145323 0.00385689 0.0198597 0.00485076 0.0239844 0.00523998 0.0239145 0.00593852 0.0206702 0.00779242 0.0203843 0.00679364 0.0242063
7 1 Mg -2.1351 59.3813 3.20652 1.2 1 0.010266 0.0142502 0.00615637 0.00548212 0.00175291 0.00572749 0.00153793 0.0214146 0.00318525 0.0118108 0.00246032 0.0273588 0.00332568 0.0207286 0.00429124 0.0309863 0.00419601 0.0228587 0.00428715 0.0411776
8 3 O 0.0499744 50.8408 1.20299 -1.2 1 0.18775 0.0657559 0.00989713 0.0179507 0.00177987 0.00872715 0.00330477 0.0153587 0.00465108 0.0193616 0.00506474 0.0238201 0.00465017 0.023427 0.00610967 0.0212392 0.00705528 0.0179445 0.0078107 0.0268589
9 1 Mg -2.04318 56.3421 4.57333 1.2 1 0.0628306 0.0355066 0.00681228 0.00867623 0.00184132 0.00611083 0.0022493 0.0195388 0.00303856 0.0140687 0.00267823 0.0261731 0.00377197 0.0210185 0.00504056 0.0284171 0.0039248 0.0214388 0.00511749 0.0370842
10 2 Si 0.64156 58.4213 4.74601 2.4 1 0.0245237 0.0210331 0.00829004 0.00633827 0.00155365 0.00583072 0.00196527 0.0209613 0.00286922 0.0115937 0.00283057 0.0261858 0.00378033 0.0212936 0.00446742 0.030139 0.00403402 0.0227767 0.00443231 0.0407351
11 3 O -0.897024 58.4057 4.65274 -1.2 1 0.0231688 0.020511 0.00825798 0.00633193 0.00164939 0.00546529 0.00198467 0.0201554 0.00299374 0.0112372 0.00229684 0.0261614 0.00329284 0.0203943 0.00403693 0.0301328 0.00451937 0.0219079 0.0050728 0.0405485
12 3 O 1.78116 54.578 4.57835 -1.2 1 0.102166 0.0467899 0.00183429 0.0125134 0.00203205 0.00699537 0.00289477 0.0186095 0.00380105 0.0162051 0.0032415 0.0262715 0.00481369 0.0219016 0.0051953 0.0269557 0.0050575 0.0209247 0.00618693 0.0344017
13 3 O 1.38682 57.734 3.37103 -1.2 1 0.0322227 0.0254221 0.00823306 0.00643874 0.00159549 0.00564753 0.00152063 0.0203938 0.0032695 0.0125317 0.00279999 0.0262547 0.00364507 0.0207726 0.0047966 0.0301154 0.00436742 0.0219267 0.00448377 0.038768
14 3 O 1.28233 57.635 5.9252 -1.2 1 0.0399615 0.0271099 0.0080291 0.00687889 0.00137703 0.00592238 0.00147779 0.0209113 0.0035453 0.0116678 0.00258669 0.0266334 0.00319185 0.0212885 0.00415633 0.0295235 0.00358744 0.0224274 0.00462592 0.0391749
15 1 Mg 0.455385 54.0871 2.95877 1.2 1 0.113985 0.0492189 0.00144351 0.012173 0.00186839 0.0072432 0.00248715 0.0171033 0.00305812 0.0163436 0.00350609 0.0256642 0.00499869 0.0201409 0.00510178 0.024422 0.00537093 0.0191079 0.0055422 0.0317625
16 1 Mg 0.851953 50.5487 2.93913 1.2 1 0.204521 0.0685712 0.0139049 0.0194804 0.00320837 0.0106297 0.00454633 0.016343 0.00544056 0.0196372 0.00570405 0.0253187 0.00518005 0.0247197 0.0069428 0.0223425 0.00780241 0.0185349 0.00790133 0.0293959
17 2 Si 2.47845 53.1285 4.33872 2.4 1 0.140398 0.0562426 0.00189367 0.0151745 0.00276296 0.00783489 0.00343964 0.0177385 0.00370415 0.0177151 0.00417398 0.0257408 0.00560914 0.0232943 0.00595483 0.025969 0.00537037 0.0202232 0.00554415 0.0328032
18 3 O -0.720755 53.2991 4.3975 -1.2 1 0.128454 0.0536597 0.00116993 0.0134741 0.00199285 0.00680756 0.002922 0.0180956 0.00435626 0.0172708 0.00350554 0.0263233 0.00478831 0.0229584 0.00535942 0.0260482 0.00519497 0.0201285 0.00588029 0.0330617
19 3 O 2.50129 49.5724 3.00106 -1.2 1 0.225231 0.0733954 0.0155844 0.0217364 0.00374809 0.0108487 0.0044575 0.0173566 0.00572631 0.021997 0.00686235 0.0248261 0.00652373 0.0256128 0.010074 0.0234606 0.00969266 0.0211809 0.00817577 0.0289433
20 3 O 1.92775 52.4678 3.08999 -1.2 1 0.152332 0.0577838 0.00491044 0.0147567 0.00242459 0.00776117 0.00326596 0.0174419 0.00401038 0.0183581 0.00419401 0.0250847 0.00465581 0.0225018 0.00577124 0.024284 0.00583491 0.0189828 0.00639043 0.0305255
21 1 Mg 0.415409 54.5053 -0.294085 1.2 1 0.109872 0.0455157 0.00192041 0.0108929 0.00143433 0.00682393 0.00338626 0.015834 0.00318263 0.0155096 0.00290767 0.0241473 0.00403133 0.0201422 0.00486619 0.0246131 0.00543465 0.0188243 0.00625632 0.0298354
22 3 O 1.89571 52.2699 5.56306 -1.2 1 0.158012 0.0600123 0.0053234 0.0162846 0.00283332 0.00824779 0.00357844 0.0180848 0.0040787 0.0182026 0.00381688 0.026981 0.00632753 0.0247726 0.00645165 0.0266398 0.00506362 0.0203458 0.00600156 0.0319632
23 1 Mg 0.258809 57.1545 1.76348 1.2 1 0.0389089 0.0279912 0.00803734 0.00714482 0.0018738 0.00591009 0.00138855 0.0183634 0.0041662 0.0125868 0.00358844 0.0259483 0.00422625 0.0201266 0.00497776 0.0283059 0.00534972 0.0206492 0.0051943 0.0369884
24 2 Si -1.71056 55.2253 1.46029 2.4 1 0.0934042 0.0424101 0.00277794 0.00961838 0.00185527 0.00643825 0.0020216 0.0165864 0.0037876 0.0143351 0.00366533 0.0242514 0.00371668 0.0201443 0.00484434 0.0248625 0.00614753 0.0184674 0.00568511 0.0323234
25 3 O 1.48728 55.1701 1.48688 -1.2 1 0.0926335 0.0414281 0.00246865 0.00977117 0.00164876 0.00674183 0.00280614 0.0162387 0.00333262 0.0146423 0.0037754 0.0242694 0.0041762 0.0192394 0.00493253 0.0255116 0.00529448 0.0191465 0.00564524 0.0323805
26 3 O -0.797959 58.9865 1.74124 -1.2 1 0.0160196 0.0173027 0.00746518 0.00627085 0.00181482 0.00505354 0.00159677 0.0204911 0.00347782 0.0115992 0.00318292 0.026421 0.00383299 0.0199953 0.0048218 0.0303113 0.00563197 0.0223055 0.00479389 0.0396366
27 3 O -1.15335 56.0406 0.339397 -1.2 1 0.0689568 0.0353663 0.0046937 0.00796134 0.00192301 0.00594487 0.00209507 0.0173122 0.00329111 0.0135829 0.00332675 0.0234365 0.00357793 0.0197558 0.00449242 0.026584 0.00547578 0.0201947 0.00544174 0.0337399
28 3 O -1.05901 55.8277 2.7674 -1.2 1 0.0734918 0.038273 0.0054357 0.00949765 0.00236158 0.00585106 0.00184412 0.0177416 0.0037002 0.0141903 0.00338024 0.0251769 0.00398237 0.0200866 0.00531424 0.0272543 0.00520571 0.0206822 0.0049678 0.035215
29 1 Mg -2.20712 59.3216 0.23651 1.2 1 0.0112169 0.0146331 0.00561075 0.00656804 0.00185409 0.00543318 0.00144076 0.0203157 0.00303797 0.0126788 0.00287034 0.0265032 0.00313587 0.0198424 0.00472124 0.0304701 0.00452563 0.022467 0.00415996 0.0394068
30 1 Mg 2.39872 62.417 1.58901 1.2 1 0.00119054 0.00682736 0.00275792 0.00699441 0.00136087 0.00575262 0.00175092 0.022695 0.00244823 0.0111399 0.00301809 0.0274983 0.00289113 0.0212162 0.00376746 0.0323535 0.00366772 0.0239804 0.00365436 0.0444043
31 2 Si -0.174438 60.4775 1.78227 2.4 1 0.00351582 0.0102246 0.00479473 0.0073774 0.00203996 0.00529454 0.00150678 0.0211758 0.00282575 0.0111365 0.00316007 0.0261549 0.00356863 0.0213424 0.0044218 0.0313407 0.00507071 0.0230486 0.00405519 0.0433518
32 3 O 1.41601 60.2544 1.75471 -1.2 1 0.00556518 0.0113935 0.0052406 0.00648014 0.00167345 0.00503888 0.00127575 0.0215622 0.00323272 0.0109977 0.00285242 0.0269538 0.00317335 0.0207331 0.00424028 0.0314914 0.00408756 0.0227038 0.00387186 0.0419572
33 3 O -1.28218 64.3107 1.61828 -1.2 1 0.00112694 0.00554236 0.00220446 0.00715344 0.000891269 0.00559135 0.00163095 0.0236005 0.00161911 0.0105788 0.00233423 0.0283682 0.00222251 0.020465 0.00315665 0.0318658 0.00374286 0.0240274 0.00379092 0.0457042
34 3 O -0.875798 61.2302 0.597948 -1.2 1 0.0016529 0.00816907 0.00348156 0.006981 0.0016567 0.00561768 0.0021155 0.0218943 0.00296 0.0107006 0.00296238 0.0269333 0.00285946 0.0210507 0.00480261 0.0319914 0.00466307 0.0236128 0.00344518 0.0431458
35 1 Mg -2.23979 70.2089 3.18801 1.2 1 0.00657799 0.00477436 0.00113277 0.00682957 0.0012152 0.00536272 0.00114977 0.0230692 0.00179652 0.00956605 0.00148474 0.0282525 0.00255795 0.0203837 0.00269779 0.0316136 0.00249203 0.0241938 0.00343965 0.0480972
36 3 O -0.767092 61.0484 3.14306 -1.2 1 0.00266651 0.00971003 0.00427237 0.00595168 0.00210185 0.00563958 0.00183413 0.0222589 0.00310394 0.0110523 0.00219271 0.0273019 0.00319662 0.0210292 0.0040073 0.031539 0.00447024 0.0232683 0.00407085 0.0426887
37 1 Mg -2.31479 67.0252 4.62225 1.2 1 0.00391104 0.00419839 0.00183026 0.00664356 0.00108889 0.00553516 0.0010787 0.0237718 0.00191368 0.0103307 0.00163943 0.0290065 0.00216816 0.0202355 0.00263176 0.031783 0.00234025 0.0246794 0.00302577 0.0470702
38 2 Si 0.449124 69.0909 4.74298 2.4 1 0.00542643 0.00454952 0.00157297 0.00709542 0.00110749 0.00555889 0.0021177 0.0232477 0.00159674 0.00988657 0.00238265 0.0281107 0.00154155 0.0207634 0.00354713 0.0309117 0.00273165 0.0241083 0.00331133 0.0491895
39 3 O -1.07552 69.1951 4.69491 -1.2 1 0.00517639 0.00441593 0.00126369 0.006501 0.00113533 0.00531773 0.00148475 0.0229863 0.00250493 0.0093535 0.00166243 0.028479 0.00241057 0.01993 0.00266052 0.0314718 0.00269849 0.0239346 0.00315795 0.0484263
40 3 O 1.5698 65.1347 4.60455 -1.2 1 0.00217854 0.00488414 0.00215656 0.00745109 0.00106604 0.00569897 0.00162685 0.0237297 0.00187476 0.0103874 0.00250982 0.0285532 0.00260708 0.0200205 0.0034026 0.031116 0.00203752 0.0237825 0.00306003 0.0461214
41 3 O 1.02277 68.4185 3.52003 -1.2 1 0.004834 0.00439419 0.00160609 0.00662157 0.00107996 0.00511595 0.00202401 0.0232795 0.00175531 0.00963495 0.0020384 0.0279649 0.00191342 0.0204649 0.00267366 0.0315114 0.00263541 0.0237337 0.00269111 0.0478897
42 3 O 1.36024 68.5013 5.95309 -1.2 1 0.00480428 0.00408105 0.00161146 0.00604505 0.00135922 0.00539951 0.00221024 0.0239285 0.00179926 0.00949647 0.0024484 0.0283791 0.0021106 0.0203667 0.00377339 0.0318161 0.00237993 0.0249827 0.00351162 0.0488025
43 1 Mg 0.152316 65.0462 3.20339 1.2 1 0.00143621 0.00500785 0.00193938 0.00700823 0.00110977 0.00605111 0.00141423 0.0235617 0.00171923 0.0104348 0.00154495 0.0291646 0.0019518 0.0196551 0.00255507 0.0316406 0.00279464 0.02388 0.00341382 0.0448615
44 1 Mg 0.256399 61.7438 4.53181 1.2 1 0.00232823 0.00809546 0.00325364 0.00656614 0.0016996 0.00597779 0.00139347 0.0226467 0.00240295 0.0112767 0.00273938 0.0274744 0.00301688 0.0207093 0.00291639 0.031265 0.0036937 0.0229125 0.00447354 0.0433104
45 2 Si 2.28219 63.6751 4.61175 2.4 1 0.00205626 0.00549303 0.00202109 0.00835379 0.00169151 0.00575755 0.00179145 0.0227082 0.00178966 0.0102769 0.00265055 0.0273837 0.00293576 0.0206664 0.00369477 0.0310994 0.00243714 0.0230627 0.00373851 0.0456538
46 3 O -0.944427 63.7852 4.60239 -1.2 1 0.00185475 0.00544405 0.00202655 0.00777473 0.00144528 0.00532453 0.00132591 0.0227561 0.00317077 0.0100664 0.00221152 0.0280521 0.00272444 0.0203365 0.00326953 0.0316384 0.00294002 0.0232996 0.00422453 0.0454199
47 3 O 1.27778 59.8654 4.63166 -1.2 1 0.00912047 0.0135634 0.00571774 0.00573823 0.0015914 0.00617908 0.00201073 0.0219853 0.00342749 0.0112385 0.00256185 0.0267975 0.00420849 0.0209508 0.00474667 0.0305742 0.00494664 0.0230768 0.00469815 0.042378
48 3 O 1.5494 63.0209 3.29634 -1.2 1 0.0015524 0.00618094 0.00259297 0.00747989 0.00166867 0.00577685 0.00171946 0.0224699 0.00207203 0.0100865 0.00211645 0.0277721 0.00295642 0.020899 0.00306367 0.0322218 0.00316212 0.0233361 0.00386171 0.0445376
49 1 Mg 0.123695 64.6401 0.10648 1.2 1 0.00178129 0.0051905 0.00135147 0.00697346 0.000746831 0.0053706 0.00147695 0.0235451 0.00168015 0.0100595 0.00133477 0.0284864 0.00163674 0.0205964 0.00269492 0.0325414 0.0025127 0.0241556 0.00226245 0.0454066
50 3 O 1.67006 63.0056 5.94195 -1.2 1 0.00222821 0.00558891 0.00173082 0.00708693 0.00150127 0.0059745 0.00122977 0.0226053 0.00159909 0.0103619 0.00137613 0.0279228 0.00237497 0.0207821 0.00247449 0.0316234 0.00241066 0.0232639 0.00356729 0.0453495
51 1 Mg 0.228083 67.7397 1.58817 1.2 1 0.00459093 0.00450547 0.00105325 0.00665522 0.000865663 0.00526125 0.00172084 0.023947 0.00194029 0.0101738 0.00191647 0.0284237 0.00186198 0.0206024 0.00307011 0.0320987 0.00266525 0.0244627 0.00219075 0.0472408
52 2 Si -1.98602 65.7573 1.57283 2.4 1 0.00203564 0.00479839 0.00155789 0.00747745 0.00133918 0.00511171 0.00189876 0.0225658 0.0018985 0.0100179 0.00202115 0.0276579 0.00206437 0.0206464 0.00517774 0.0320345 0.00409237 0.0236001 0.0036765 0.0467334
53 3 O 1.28087 65.8244 1.63493 -1.2 1 0.00238977 0.00430156 0.00139541 0.00706401 0.0014074 0.00491405 0.00185806 0.0226758 0.002095 0.00981835 0.00161544 0.0279543 0.00219791 0.0207691 0.0025961 0.0317535 0.00365273 0.0235222 0.00351466 0.0473277
54 3 O -1.11831 69.6343 1.58827 -1.2 1 0.00668794 0.0045515 0.00116602 0.00742003 0.0014322 0.00578809 0.00120222 0.0228545 0.00201612 0.00907282 0.00154014 0.028074 0.00282861 0.0198784 0.00372006 0.0315757 0.00293282 0.0241138 0.00397492 0.0473425
55 3 O -1.31777 66.4761 0.282148 -1.2 1 0.00378096 0.00475564 0.0011373 0.00693519 0.00133554 0.00506645 0.0015581 0.0232546 0.00140849 0.010081 0.00138454 0.0274095 0.00226349 0.0210545 0.00287511 0.0324065 0.00275724 0.0239116 0.00215031 0.0468244
56 3 O -1.33821 66.4418 2.92546 -1.2 1 0.00256114 0.00431011 0.0013677 0.00650588 0.00184457 0.00529187 0.00208251 0.0237036 0.00226777 0.0101233 0.00154799 0.0278212 0.00233664 0.0204551 0.00373177 0.0320574 0.0035842 0.0242564 0.00358247 0.0468713
57 1 Mg -2.40011 70.224 0.0445377 1.2 1 0.00661334 0.00501171 0.00143248 0.00714996 0.00100324 0.00597442 0.00100481 0.0225715 0.00112789 0.00995484 0.001267 0.0279159 0.00240106 0.0199738 0.0023381 0.0310957 0.00178267 0.0238051 0.00233182 0.0463438
58 1 Mg 2.58663 73.0116 1.58747 1.2 1 0.00559975 0.00508241 0.00112153 0.00696221 0.00131183 0.00578741 0.00118794 0.0226778 0.00223773 0.00924713 0.00209801 0.0270649 0.00262906 0.0204617 0.00358729 0.0315738 0.00327977 0.0248154 0.00387248 0.0479492
59 2 Si -0.330468 71.0889 1.4682 2.4 1 0.00663377 0.00488278 0.00133989 0.00781578 0.00191016 0.0059008 0.00133831 0.0226983 0.00154788 0.00946447 0.00187445 0.026512 0.00367526 0.0207127 0.00411035 0.0308952 0.00269563 0.0239451 0.0035386 0.0483664
60 3 O 1.22801 71.0535 1.63578 -1.2 1 0.00693128 0.00482873 0.000937874 0.00762891 0.00214961 0.00543979 0.00138601 0.0221983 0.00280705 0.00915252 0.00207862 0.0270116 0.00271955 0.0205709 0.0036053 0.0311451 0.0032483 0.023877 0.00430367 0.048693
61 3 O -1.35699 74.8282 1.6474 -1.2 1 0.0048428 0.00498785 0.00105479 0.0070835 0.0012046 0.00619221 0.000976719 0.022424 0.00150054 0.00846878 0.0019445 0.0274012 0.00288936 0.0198251 0.00332607 0.0312072 0.00340332 0.0245011 0.0044095 0.047654
62 3 O -1.00302 71.7586 0.272386 -1.2 1 0.00668572 0.0052926 0.00135454 0.00682869 0.00206201 0.00585168 0.00160832 0.0229077 0.00168481 0.00932877 0.00167208 0.026121 0.0034838 0.0205369 0.00354372 0.0319315 0.00288829 0.0245935 0.00359107 0.0476032
63 1 Mg -2.32153 80.4007 3.14748 1.2 1 0.000522238 0.00311558 0.000869546 0.00647068 0.00104265 0.00664395 0.00106885 0.0218294 0.00125991 0.00831319 0.00166863 0.0280675 0.0017559 0.0191207 0.00227877 0.0313137 0.00265442 0.0250572 0.00247462 0.0450504
64 3 O -0.94085 71.834 2.77696 -1.2 1 0.00629677 0.0049604 0.0013061 0.00672732 0.00198369 0.00551031 0.00137278 0.022722 0.00181241 0.00946163 0.00188404 0.0267804 0.00361963 0.0205358 0.00375812 0.0316249 0.00257217 0.0244059 0.00359628 0.0482603
65 1 Mg -2.24516 77.5692 4.58366 1.2 1 0.00297917 0.00462723 0.00148485 0.00670946 0.00104339 0.00616543 0.00122221 0.0223412 0.00238192 0.0086832 0.00275922 0.0275329 0.00289762 0.0197577 0.00295741 0.0314698 0.0033504 0.0256354 0.00430156 0.0483608
66 2 Si 0.372583 79.3965 4.53666 2.4 1 0.00134041 0.00368963 0.0013106 0.00711321 0.0013652 0.00673322 0.00156208 0.0219865 0.00176974 0.00818325 0.00229815 0.0270217 0.00276581 0.0201973 0.00243394 0.031158 0.00290404 0.0250887 0.0028837 0.0486181
67 3 O -1.10642 79.5173 4.59184 -1.2 1 0.00158506 0.00385928 0.00136191 0.00672907 0.000947395 0.00619623 0.00110273 0.0212857 0.00273784 0.00786896 0.00223263 0.0272486 0.00271882 0.0193783 0.00273446 0.0318275 0.0029474 0.0249983 0.00313873 0.0479104
68 3 O 1.50363 75.825 4.33723 -1.2 1 0.0034785 0.00484892 0.00145331 0.00702758 0.000796766 0.00632648 0.0010336 0.0228389 0.00170827 0.00852723 0.00212305 0.0277077 0.00296593 0.0199751 0.00259776 0.0312455 0.00248456 0.0249796 0.00300161 0.0483038
69 3 O 1.02325 78.918 3.14439 -1.2 1 0.00115994 0.00373686 0.000581384 0.00661075 0.00139727 0.00608288 0.0016334 0.0219956 0.00193973 0.00817071 0.0027808 0.0268109 0.0029548 0.0198509 0.00337959 0.0314931 0.0032876 0.0248808 0.00316049 0.0469444
70 3 O 1.08809 78.7723 5.81414 -1.2 1 0.00199165 0.00448796 0.00160744 0.00622194 0.000991308 0.00620995 0.0012894 0.0219791 0.00201959 0.00806596 0.00205058 0.0270188 0.00221631 0.0198216 0.00217731 0.0315607 0.00262582 0.0255851 0.00334927 0.0480508
71 1 Mg 0.190845 75.2219 2.87908 1.2 1 0.00406582 0.00508202 0.000995828 0.00669914 0.000961981 0.00622388 0.00078756 0.0219005 0.00146712 0.0087175 0.00163811 0.0279805 0.00254361 0.0195496 0.00213718 0.03104 0.00257282 0.0242001 0.00291851 0.0469513
72 1 Mg 0.118426 72.4494 4.37519 1.2 1 0.00592116 0.00512191 0.000738516 0.00648094 0.00118501 0.00544137 0.00123658 0.0229227 0.00193551 0.00927754 0.00187426 0.0278 0.00284485 0.0205321 0.00325424 0.0315079 0.00211103 0.0246945 0.0024875 0.0485644
73 2 Si 2.11898 74.3495 4.5317 2.4 1 0.00454067 0.00517472 0.000859447 0.0077574 0.00112745 0.00599173 0.00156166 0.0221479 0.00173066 0.00892574 0.00235121 0.0268201 0.00290799 0.0208272 0.00441869 0.031002 0.0031693 0.0245956 0.00351328 0.0498075
74 3 O -1.09109 74.3679 4.44025 -1.2 1 0.00464952 0.00494376 0.000752266 0.00713071 0.0011784 0.0058157 0.00169014 0.0220796 0.00231794 0.00859822 0.00206761 0.027889 0.00232988 0.0197414 0.002506 0.0315472 0.00260566 0.0245308 0.00312948 0.0484804
75 3 O 1.11316 70.6282 4.62263 -1.2 1 0.00609559 0.00472532 0.00109666 0.00644795 0.00113634 0.00561687 0.00110225 0.0237095 0.00103565 0.0093478 0.00211436 0.0284004 0.00181781 0.0200968 0.00241047 0.0315728 0.00227642 0.0244528 0.00223026 0.0487065
76 3 O 1.38539 73.6152 3.28694 -1.2 1 0.00511745 0.00518248 0.000875248 0.00663175 0.00105999 0.00572365 0.00180751 0.0224695 0.00135568 0.00911527 0.00222965 0.0266023 0.00245903 0.0202694 0.00423841 0.0316616 0.00322979 0.0249655 0.00317825 0.048177
77 1 Mg 0.0827479 75.331 0.092802 1.2 1 0.00288855 0.0050582 0.0010222 0.00688584 0.0012854 0.00622424 0.000964798 0.0222144 0.0015407 0.00831539 0.00203786 0.0275919 0.00267583 0.0195097 0.00274517 0.0308124 0.00313594 0.0243669 0.00233515 0.0457452
78 3 O 1.4067 73.7439 5.85445 -1.2 1 0.00479883 0.00507713 0.00103656 0.00636916 0.00158531 0.00555052 0.00212021 0.0226616 0.00177004 0.00870166 0.00209294 0.027495 0.00266691 0.0200393 0.00380125 0.031764 0.00343087 0.0254047 0.00304187 0.0494
79 1 Mg 0.143309 78.3215 1.39503 1.2 1 0.000932755 0.00357555 0.000902527 0.00662088 0.00156087 0.00610056 0.000971895 0.0218073 0.00176953 0.00846227 0.00236339 0.0275003 0.00233761 0.0199019 0.00283133 0.0312867 0.00351247 0.0246282 0.00329201 0.0458888
80 2 Si -1.96139 76.438 1.5478 2.4 1 0.00294369 0.00446072 0.00117489 0.00768243 0.00205767 0.00630028 0.00163236 0.0214245 0.00155423 0.00839433 0.00201788 0.0265159 0.00316867 0.0200273 0.00349972 0.0307025 0.00324546 0.0240397 0.00351505 0.047385
81 3 O 1.24304 76.3073 1.48727 -1.2 1 0.00252596 0.00453826 0.000990065 0.00714274 0.0014623 0.00585305 0.00135082 0.0212007 0.00285126 0.00838345 0.00241547 0.0269435 0.00304469 0.0195724 0.002739 0.0314042 0.00369717 0.023848 0.00330989 0.0476228
82 3 O -0.957482 79.8973 1.40152 -1.2 1 0.0010734 0.00296358 0.000953946 0.00673835 0.00131053 0.00654227 0.0010894 0.0221674 0.00173657 0.00831533 0.00180939 0.0274125 0.00249972 0.0193733 0.00347856 0.0312391 0.00304991 0.0250981 0.00371196 0.0454243
83 3 O -1.25629 76.8772 0.226772 -1.2 1 0.0017941 0.00448058 0.000846741 0.00703186 0.00169462 0.00599266 0.00164079 0.0217107 0.00169918 0.00841144 0.00217851 0.0269635 0.00271755 0.0198147 0.00247205 0.0312206 0.00306545 0.0244187 0.00279906 0.0463037
84 3 O -1.33837 77.1736 2.77661 -1.2 1 0.00228744 0.00421781 0.000927447 0.00682742 0.00147929 0.00606733 0.00167774 0.0218128 0.00179261 0.00867187 0.00167939 0.0263671 0.00254742 0.0198999 0.00213448 0.0315695 0.00270409 0.0248868 0.00310062 0.0478741
85 1 Mg -2.39215 80.6248 0.0734115 1.2 1 0.00171858 0.00293503 0.000333733 0.0068286 0.00156657 0.00680093 0.00140695 0.0216944 0.0015304 0.00879391 0.00158574 0.0271647 0.00182319 0.0192383 0.00244672 0.0313511 0.00247498 0.0249972 0.00331299 0.0435593
86 1 Mg 2.35072 83.3015 1.77803 1.2 1 0.0021767 0.00260936 0.00102392 0.00639193 0.00152638 0.00666737 0.000951595 0.0215235 0.00159338 0.00854437 0.00219743 0.0271838 0.00219252 0.0196515 0.00399231 0.0319443 0.00325151 0.0255779 0.0044985 0.0439989
87 2 Si -0.351399 81.4478 1.51965 2.4 1 0.00128328 0.00276371 0.000495401 0.00730783 0.00194344 0.00687056 0.00214239 0.0212628 0.00161168 0.00827369 0.00249408 0.0268419 0.00252679 0.0200851 0.00383609 0.0314358 0.00324387 0.0249345 0.00381557 0.0448579
88 3 O 1.18028 81.3801 1.5361 -1.2 1 0.00129331 0.00288637 0.000565075 0.00673189 0.0014991 0.00662925 0.00159864 0.0212859 0.00192095 0.00813886 0.00151315 0.02743 0.00178598 0.019525 0.0026592 0.0311918 0.00322962 0.0249329 0.00360274 0.0445947
89 3 O -1.345 85.1754 1.62713 -1.2 1 0.00316195 0.00318366 0.000844209 0.00633773 0.00119332 0.0073543 0.00117998 0.0215548 0.00139417 0.008548 0.00165165 0.0274274 0.00213689 0.0195465 0.00382559 0.0315905 0.00287406 0.0248511 0.0042244 0.0439584
90 3 O -0.994113 82.1155 0.244876 -1.2 1 0.00220152 0.00311775 0.000444482 0.00675625 0.00181773 0.0069587 0.00177136 0.0218023 0.00139322 0.00889739 0.00190944 0.0264882 0.0022999 0.0203641 0.00322616 0.0319543 0.00280713 0.0256712 0.00363269 0.0441773
91 1 Mg -2.27185 90.7328 2.94139 1.2 1 0.00336629 0.00337482 0.00145838 0.00547366 0.00110993 0.00802789 0.00104145 0.0207201 0.00133488 0.00803612 0.00157082 0.0260136 0.00196577 0.0193658 0.00243194 0.0319529 0.00224453 0.0236497 0.00365174 0.0447763
92 3 O -1.02127 82.0303 2.85976 -1.2 1 0.00143398 0.00264249 0.000960513 0.00659194 0.00179882 0.00678347 0.00187415 0.0216417 0.00131278 0.00853031 0.00184733 0.0269749 0.00218287 0.0201455 0.00327063 0.0317179 0.00321659 0.025293 0.00404315 0.0448962
93 1 Mg -2.45664 87.9811 4.83369 1.2 1 0.00354556 0.00332255 0.00116768 0.00571695 0.0011473 0.00746883 0.00138348 0.0207401 0.00229915 0.0082449 0.00173114 0.0264045 0.00244195 0.0194023 0.00350319 0.0322309 0.00286734 0.0242639 0.00363221 0.0446532
94 2 Si 0.337915 89.8548 4.57486 2.4 1 0.00374674 0.00336034 0.00147174 0.00608068 0.00106375 0.00839051 0.00177631 0.0206587 0.00182325 0.00777507 0.00189154 0.0255231 0.00185634 0.0197264 0.00364405 0.0314305 0.00308714 0.0235181 0.00391378 0.0456846
95 3 O -1.17175 89.8567 4.62098 -1.2 1 0.00319131 0.00331977 0.00152273 0.00591729 0.00108523 0.00764184 0.00144276 0.0200786 0.0020783 0.00755878 0.000995117 0.026376 0.00186973 0.0190493 0.00233001 0.0323167 0.00249059 0.023396 0.00356534 0.045329
96 3 O 1.4207 86.1621 4.69826 -1.2 1 0.00203204 0.00307876 0.00085717 0.006133 0.00119244 0.0075912 0.00115463 0.0211374 0.00121578 0.00853287 0.00212486 0.0270877 0.00217711 0.0190117 0.00209796 0.0316297 0.00228331 0.0244779 0.00283009 0.0438778
97 3 O 0.967796 89.1695 3.20785 -1.2 1 0.00349187 0.00333464 0.00114226 0.00542104 0.00111724 0.00778752 0.00177165 0.0212605 0.00166498 0.00840793 0.00200367 0.0252569 0.00266725 0.0199291 0.00333787 0.0321425 0.00337467 0.0244123 0.00385221 0.0451929
98 3 O 1.11375 89.218 5.8181 -1.2 1 0.00262748 0.00376193 0.00138744 0.00549024 0.00138348 0.00763969 0.00154328 0.0206583 0.00134309 0.0086972 0.00144914 0.0262732 0.00179266 0.0195133 0.00292429 0.0320088 0.00288857 0.0234678 0.00366546 0.0444053
99 1 Mg -0.0502168 85.8658 3.17161 1.2 1 0.00227467 0.00301613 0.000686277 0.00590042 0.00113139 0.00760032 0.000889764 0.0210921 0.00111933 0.00904614 0.00121091 0.0273083 0.00196983 0.0192819 0.00198146 0.0314217 0.00205663 0.0243017 0.00299748 0.0435382
100 1 Mg 0.00720116 82.7512 4.43168 1.2 1 0.00140911 0.00274923 0.00113279 0.00639974 0.00115133 0.00659614 0.00135801 0.021165 0.00235144 0.00830723 0.00223576 0.0278492 0.00224542 0.0197284 0.00315468 0.0314126 0.003599 0.024753 0.00385248 0.0451008
101 2 Si 2.12896 84.7468 4.83361 2.4 1 0.00162109 0.0030945 0.00104033 0.00669462 0.00090205 0.00730226 0.00112361 0.0209953 0.00168904 0.00818184 0.00229581 0.0268465 0.00182703 0.0198328 0.00259508 0.0311494 0.00260129 0.0241314 0.00355511 0.0448492
102 3 O -1.02862 84.8753 4.66962 -1.2 1 0.0014183 0.00298411 0.00105027 0.00634717 0.000799592 0.00736487 0.000835585 0.02072 0.00188068 0.00799306 0.00149162 0.0270587 0.0021426 0.0190311 0.00252432 0.0315516 0.00288566 0.0242659 0.00388721 0.0442108
103 3 O 1.10256 80.9464 4.59873 -1.2 1 0.00028286 0.00341085 0.00134419 0.00651347 0.00106999 0.00695635 0.00129991 0.0219555 0.00140059 0.00818444 0.00200113 0.0277916 0.00236418 0.0193406 0.00274655 0.0311353 0.00351187 0.0252842 0.00269117 0.0462763
104 3 O 1.51721 83.9531 3.53589 -1.2 1 0.00186752 0.00256063 0.000640719 0.00644891 0.000917787 0.00688574 0.00162353 0.0208806 0.002118 0.00814798 0.0020214 0.0270631 0.00166337 0.01941 0.00294637 0.0318457 0.00267657 0.02488 0.00411588 0.044465
105 1 Mg 0.0582332 85.7658 0.163165 1.2 1 0.00359862 0.00382291 0.000449155 0.00617772 0.00120155 0.007257 0.00108901 0.0216516 0.000787304 0.00910723 0.00112462 0.0272656 0.00177498 0.0192601 0.00227424 0.0322194 0.00192606 0.0254636 0.0029371 0.0437652
106 3 O 1.58327 84.2032 6.08582 -1.2 1 0.00167026 0.00386619 0.00127207 0.00633162 0.00100832 0.00699379 0.00115873 0.02156 0.0018302 0.00825014 0.00195443 0.0265237 0.00259219 0.0197497 0.00261407 0.0314158 0.00272973 0.0248937 0.00376916 0.045747
107 1 Mg 0.15376 88.5287 1.57176 1.2 1 0.00392 0.00376559 0.00145125 0.00563398 0.00126772 0.00723411 0.00124175 0.0207806 0.00180459 0.00897446 0.00182399 0.0263421 0.00229529 0.0199508 0.00359413 0.0323708 0.00289054 0.0243128 0.00419922 0.043983
108 2 Si -2.05318 86.723 1.7352 2.4 1 0.00367423 0.00334504 0.000644801 0.00627712 0.00212496 0.00769543 0.00198506 0.0214635 0.00114007 0.00825864 0.00166229 0.0262869 0.00267261 0.0203886 0.00319652 0.0320381 0.00239037 0.0246155 0.00321481 0.0450314
109 3 O 1.18807 86.6215 1.71424 -1.2 1 0.0038226 0.00335527 0.000444931 0.00637565 0.00190361 0.00728693 0.00167582 0.0207295 0.00223825 0.00815657 0.00124841 0.0268114 0.00249689 0.0194328 0.00310454 0.0324151 0.00251774 0.0245854 0.00363552 0.0447524
110 3 O -1.06495 90.3439 1.39505 -1.2 1 0.00463711 0.00391242 0.00177839 0.00572294 0.0015849 0.00783626 0.00110051 0.0210362 0.00146604 0.00820061 0.00158052 0.0261817 0.00266068 0.0195083 0.00309799 0.0324884 0.00254285 0.0240066 0.00442356 0.0447993
111 3 O -1.27164 87.3424 0.524122 -1.2 1 0.00406506 0.00399752 0.00133661 0.00601809 0.00163231 0.00699244 0.00162242 0.0210356 0.00129524 0.00833624 0.00162778 0.0260102 0.00258616 0.0201667 0.00310049 0.0323457 0.00229562 0.0248211 0.00313013 0.0443049
112 3 O -1.46541 87.3063 3.11937 -1.2 1 0.00320177 0.00332525 0.000985918 0.00543186 0.00144481 0.00756125 0.00128707 0.0213639 0.00163112 0.00814272 0.0017597 0.025686 0.00329915 0.0201894 0.00287557 0.0321731 0.00258863 0.0243266 0.00296355 0.0451587
113 1 Mg -2.35822 90.8036 0.0172366 1.2 1 0.00430615 0.00474717 0.00161489 0.0055354 0.00146269 0.00767792 0.000953551 0.0206541 0.00132744 0.0086469 0.00129794 0.0260858 0.00170199 0.0195902 0.00255694 0.0319142 0.00269079 0.0238774 0.00392642 0.0444099
114 1 Mg 2.27021 93.564 1.67938 1.2 1 0.00210382 0.00389895 0.00143041 0.00545998 0.00129363 0.0073248 0.000949296 0.020485 0.00213365 0.00755686 0.00266304 0.0259825 0.00270447 0.0199784 0.00323397 0.0325436 0.00360958 0.0236497 0.00438839 0.0458788
115 2 Si -0.231237 91.7607 1.43371 2.4 1 0.00363545 0.00386704 0.00166091 0.00623368 0.00185527 0.00794843 0.00153274 0.0206493 0.00132796 0.00757193 0.00175837 0.024973 0.00266794 0.0202412 0.00324597 0.0319631 0.00263109 0.0234557 0.0042808 0.0462271
116 3 O 1.27062 91.6934 1.49691 -1.2 1 0.00341178 0.00390173 0.00154731 0.00557438 0.00170189 0.00735124 0.00133223 0.0201766 0.00169828 0.00732249 0.00125985 0.0259124 0.00242969 0.0191424 0.0030063 0.0322717 0.00322497 0.0232641 0.00456405 0.045342
117 3 O -1.28031 95.6156 1.80128 -1.2 1 0.00137357 0.00357962 0.00151784 0.00571205 0.00104267 0.00799455 0.00108635 0.0211019 0.00129681 0.00723117 0.00144559 0.0259911 0.00202034 0.0193951 0.00298582 0.0321202 0.0028526 0.0233556 0.00481483 0.0480058
118 3 O -0.959042 92.2888 0.129724 -1.2 1 0.00352397 0.00472543 0.00160661 0.00549151 0.00175221 0.00755646 0.00176052 0.0211138 0.00121732 0.00819635 0.00165947 0.0249689 0.00291649 0.0202987 0.00311239 0.0324598 0.00322576 0.0243805 0.00427971 0.0462935
119 1 Mg -2.15101 101.055 3.13536 1.2 1 0.00199026 0.00246463 0.000943739 0.00599137 0.000636931 0.0070202 0.00115018 0.0219652 0.00149793 0.00822907 0.0015097 0.0285244 0.00153013 0.0187218 0.00199911 0.0316978 0.00296457 0.02297 0.00381742 0.0491065