ITEM: TIMESTEP
3900
ITEM: NUMBER OF ATOMS
5600
ITEM: BOX BOUNDS xy xz yz pp pp pp
0	7.1235	0
0	201.985	2.3745
0	119.584	0
ITEM: ATOMS id type element xu yu zu q Q_1 Q_2 Q_3 Q_4 Q_5 Q_6 Q_7 Q_8 Q_9 Q_10 Q_11 Q_12 Q_13 Q_14 Q_15 Q_16 Q_17 Q_18 Q_19 Q_20 Q_21
1 1 Mg -1.5688 48.6564 -1.07715 1.2 1 0.24295 0.0780746 0.0231026 0.0277194 0.00677821 0.0144866 0.00437408 0.0154988 0.00484442 0.0227808 0.00586667 0.0258471 0.00749165 0.0218717 0.00647785 0.0185891 0.00848056 0.0211406 0.010106 0.0240125
2 1 Mg 3.08144 51.4248 1.81089 1.2 1 0.173169 0.066457 0.00971853 0.0195209 0.00275827 0.0103904 0.0021897 0.0162247 0.00456577 0.0197904 0.00514575 0.027506 0.00521753 0.0219543 0.00691587 0.0208245 0.00664882 0.0181934 0.00793238 0.0293682
3 2 Si 0.891603 50.3198 -0.142789 2.4 1 0.200795 0.0714348 0.0141191 0.0216957 0.00339377 0.0109761 0.00256343 0.0154313 0.00461776 0.0216802 0.00527118 0.0257552 0.00485452 0.0218397 0.00554828 0.0195051 0.00640446 0.0179265 0.00819999 0.0255576
4 3 O 1.58224 48.9443 -0.210564 -1.2 1 0.228706 0.0772528 0.0212247 0.0260829 0.00489271 0.0134018 0.0028812 0.0154541 0.00546201 0.0244439 0.00639675 0.026249 0.00651606 0.0222125 0.0086418 0.0187975 0.00917751 0.020521 0.00908616 0.0248257
5 3 O -0.992451 53.556 1.48476 -1.2 1 0.124428 0.0524019 0.0032277 0.0146641 0.002031 0.00863527 0.00214241 0.0162989 0.0033225 0.0168038 0.00360106 0.0263757 0.00393804 0.0194921 0.00389354 0.0219636 0.00605746 0.0175175 0.00663056 0.0312796
6 3 O -0.125074 50.04 -1.31159 -1.2 1 0.205126 0.0718916 0.0146493 0.0221464 0.00466313 0.0109801 0.00325514 0.0148744 0.00373774 0.0208695 0.00489416 0.0248897 0.00540421 0.0215354 0.00528385 0.0194191 0.00690871 0.0183961 0.00733776 0.0250196
7 1 Mg -2.03001 59.305 3.08617 1.2 1 0.0116775 0.0147535 0.00656375 0.00703652 0.00107717 0.00611252 0.0024723 0.0211599 0.00241515 0.0119173 0.00285565 0.0282133 0.00354307 0.020528 0.00365194 0.0305574 0.004676 0.0230031 0.00525404 0.0420833
8 3 O 0.0920353 50.6244 1.1931 -1.2 1 0.185274 0.0713169 0.00955241 0.0205625 0.002363 0.0104425 0.00339985 0.0154282 0.00502145 0.0201901 0.00554329 0.0266067 0.00456569 0.0224826 0.00537919 0.0202174 0.00713638 0.0178889 0.00815911 0.0268868
9 1 Mg -1.81559 56.4699 4.60019 1.2 1 0.0609775 0.0359459 0.00675514 0.0107155 0.00157542 0.00649394 0.00222237 0.0191642 0.00341632 0.0142029 0.00250923 0.0282864 0.00378141 0.0204136 0.00445493 0.0273054 0.00390524 0.0213763 0.00577041 0.0378582
10 2 Si 0.661845 58.3302 4.65134 2.4 1 0.0214637 0.0194186 0.00828309 0.00852565 0.0014658 0.00607277 0.00270832 0.0204597 0.00265649 0.0117624 0.00381571 0.0268442 0.00385814 0.0209395 0.00473608 0.0292523 0.00433745 0.0223539 0.00534802 0.0415175
11 3 O -0.930634 58.2896 4.67753 -1.2 1 0.023691 0.0204773 0.0080872 0.008031 0.00131715 0.00617194 0.00288369 0.0202932 0.00287252 0.0117695 0.00274924 0.027536 0.00358907 0.0208558 0.00324288 0.0293966 0.00470843 0.0217605 0.00571861 0.0417207
12 3 O 1.71565 54.591 4.35586 -1.2 1 0.0993638 0.0484537 0.00243251 0.0145513 0.00196106 0.00755755 0.00240197 0.017998 0.00443552 0.0160306 0.00396714 0.028226 0.00422135 0.0204997 0.00458966 0.0248299 0.00537976 0.0202829 0.00632805 0.0345248
13 3 O 1.31165 57.6147 3.30058 -1.2 1 0.0318428 0.0248574 0.00843555 0.00808403 0.00132505 0.00639866 0.00218229 0.0203715 0.00296587 0.0127041 0.00276834 0.0272742 0.0031856 0.0203871 0.00444003 0.0284856 0.00413356 0.0215778 0.00533207 0.0400232
14 3 O 1.32021 57.6215 5.95829 -1.2 1 0.0384707 0.0271319 0.00796511 0.00797178 0.00139728 0.00627989 0.00206536 0.0206766 0.00300277 0.0128027 0.00216761 0.0284392 0.00378467 0.0210379 0.00383165 0.0284806 0.00377927 0.0217383 0.00510702 0.0402755
15 1 Mg 0.403173 53.9779 2.80329 1.2 1 0.109961 0.0512967 0.00200287 0.0144648 0.00230409 0.00819392 0.00263736 0.0166004 0.00377567 0.0170139 0.00435568 0.0276667 0.00513915 0.0195531 0.00599192 0.0222291 0.00549435 0.0187342 0.00599731 0.032276
16 1 Mg 0.998033 50.3731 2.84213 1.2 1 0.199038 0.0735327 0.0118197 0.0225665 0.00282025 0.0117623 0.00238821 0.0156625 0.00537619 0.0198183 0.00630426 0.0276655 0.00562139 0.0233621 0.00526793 0.0205673 0.00739286 0.0187858 0.00889308 0.0283766
17 2 Si 2.37666 53.1628 4.32303 2.4 1 0.134557 0.0584564 0.00265791 0.0167517 0.00255318 0.00868225 0.00258463 0.016808 0.00418498 0.016429 0.00525709 0.028606 0.00541779 0.0217128 0.00563873 0.0237925 0.00550857 0.0189562 0.00631502 0.0325135
18 3 O -0.798391 53.118 4.35888 -1.2 1 0.130205 0.0578488 0.00201466 0.0158035 0.00220991 0.00813548 0.00226733 0.0164966 0.00474118 0.0166856 0.004454 0.0289138 0.00528711 0.021554 0.00483504 0.0234288 0.0056394 0.0188227 0.00631414 0.0332584
19 3 O 2.8624 49.9111 2.79542 -1.2 1 0.210376 0.0764661 0.0140548 0.0236896 0.00345288 0.0116313 0.00193638 0.0161517 0.00555656 0.0214354 0.00635615 0.0278301 0.00604049 0.0243053 0.00688384 0.0208586 0.00871354 0.019691 0.00905223 0.028246
20 3 O 1.82472 52.4209 3.00458 -1.2 1 0.146466 0.0602127 0.00444401 0.0172237 0.00230384 0.00896245 0.0024965 0.0160327 0.00414551 0.017335 0.00469076 0.0275638 0.00491499 0.0210121 0.00534772 0.0222175 0.00588736 0.0181697 0.00684703 0.0309751
21 1 Mg 0.156332 54.2144 -0.197564 1.2 1 0.109848 0.0479669 0.00133109 0.0128093 0.00200712 0.00769131 0.00253411 0.0161526 0.00321771 0.0168718 0.00368837 0.0259356 0.00428569 0.0198006 0.00476368 0.0227182 0.00529536 0.0180535 0.00641383 0.030762
22 3 O 1.74994 52.2908 5.57486 -1.2 1 0.150396 0.0628013 0.0046269 0.0183961 0.0021973 0.00916565 0.00283417 0.0171378 0.00451656 0.017398 0.00440581 0.0299635 0.00644215 0.0234716 0.00605125 0.0249163 0.00549769 0.0192963 0.00684854 0.032047
23 1 Mg 0.433877 56.9818 1.61425 1.2 1 0.0411566 0.0285372 0.00754347 0.00899015 0.00139582 0.00615464 0.00162005 0.0184773 0.00379461 0.0130561 0.00374728 0.0268425 0.00400091 0.0193074 0.00378484 0.0265249 0.00578527 0.020841 0.00577374 0.0376241
24 2 Si -1.67737 55.1476 1.55677 2.4 1 0.0946039 0.044429 0.00219275 0.0120935 0.00173635 0.00740762 0.00228597 0.016522 0.0039808 0.0151416 0.0037685 0.0258422 0.00365473 0.019397 0.00460474 0.0228662 0.00595042 0.017938 0.00604241 0.0332401
25 3 O 1.42514 55.1743 1.49768 -1.2 1 0.0906853 0.0436747 0.00252271 0.0122085 0.00218308 0.00733038 0.00252287 0.0163812 0.00398925 0.015186 0.00398998 0.0261215 0.00479759 0.0187778 0.00501393 0.0235579 0.00508118 0.0185703 0.00551776 0.0330009
26 3 O -0.656854 58.8066 1.63127 -1.2 1 0.0163934 0.0173083 0.00775443 0.00676005 0.0011375 0.00605912 0.00212229 0.0211434 0.0028068 0.0118874 0.00323182 0.0273436 0.00367212 0.0202866 0.00398689 0.0300241 0.00499275 0.0230528 0.00533833 0.0410091
27 3 O -1.07566 55.8866 0.270423 -1.2 1 0.0736862 0.0380251 0.00395894 0.00996541 0.00254649 0.00659072 0.00186552 0.0175059 0.00380746 0.014987 0.00340473 0.0252379 0.00363483 0.0196118 0.0047105 0.0245621 0.00546645 0.0198838 0.00597211 0.0339624
28 3 O -0.96739 55.7534 2.79236 -1.2 1 0.0732835 0.0386539 0.00506577 0.0113274 0.00187896 0.00678563 0.00204588 0.0178092 0.0036225 0.0145067 0.00407239 0.0268172 0.00395866 0.0194016 0.00523113 0.0250193 0.00473004 0.0195796 0.00577737 0.035528
29 1 Mg -2.21791 59.4372 0.235657 1.2 1 0.00891212 0.0134412 0.00554749 0.00657733 0.00114593 0.00628872 0.00180097 0.0210845 0.00223233 0.0129569 0.0026169 0.0273178 0.00329716 0.0202979 0.00339489 0.0304829 0.00451797 0.023866 0.00453698 0.0410418
30 1 Mg 2.55364 62.4053 1.55783 1.2 1 0.00224608 0.00667784 0.00190916 0.00822556 0.00124159 0.00635585 0.00186029 0.0230534 0.00167984 0.0112823 0.00316612 0.0283761 0.00258497 0.0211274 0.00325898 0.0328701 0.00331767 0.0252374 0.00372387 0.0457046
31 2 Si -0.0528084 60.3474 1.62676 2.4 1 0.00397685 0.00954261 0.00379754 0.00831015 0.00102561 0.00619153 0.00216053 0.0213796 0.00225702 0.01191 0.00311902 0.0272549 0.00315937 0.0211439 0.00347805 0.0314491 0.00505634 0.0240604 0.00461056 0.0443509
32 3 O 1.47789 60.2965 1.60891 -1.2 1 0.00301917 0.00907932 0.0040897 0.00791677 0.00111696 0.00582345 0.00184701 0.0209826 0.00278479 0.0112229 0.00328368 0.0270899 0.00246702 0.0204901 0.00354595 0.0317405 0.00417645 0.0236085 0.00545267 0.0435064
33 3 O -1.3602 64.3195 1.47774 -1.2 1 0.00156627 0.00589103 0.00138454 0.00872826 0.0013512 0.00629554 0.0014576 0.0238015 0.00154422 0.0116074 0.00178718 0.0292032 0.00246715 0.0208468 0.00270683 0.0320067 0.00406439 0.0252198 0.00311761 0.04563
34 3 O -0.781169 61.1148 0.4457 -1.2 1 0.00208815 0.00783754 0.00282894 0.00761521 0.000886475 0.00630421 0.00209589 0.021911 0.00200626 0.0114152 0.00239094 0.0272221 0.00284411 0.0210518 0.00321651 0.0323065 0.00485247 0.024726 0.00406269 0.0439971
35 1 Mg -2.22811 69.881 3.02994 1.2 1 0.00491026 0.00454821 0.000712736 0.00726669 0.00111704 0.00593706 0.000930422 0.0244094 0.00102512 0.0110885 0.00132132 0.0297222 0.00195118 0.0207293 0.00182304 0.0331158 0.0013962 0.0253585 0.00252617 0.0463245
36 3 O -0.723185 60.8647 3.01355 -1.2 1 0.00338826 0.0101359 0.00376148 0.00710314 0.00125117 0.00645515 0.00231496 0.0224942 0.00228459 0.0115703 0.00263013 0.0278787 0.00285424 0.0212624 0.00311892 0.0320202 0.00437874 0.0244785 0.00428751 0.0439277
37 1 Mg -2.18321 67.1243 4.62144 1.2 1 0.00298038 0.00404709 0.00111975 0.00768839 0.00176103 0.00617303 0.00137998 0.0243323 0.00216795 0.0117308 0.00164876 0.0292145 0.00244141 0.0217889 0.00316883 0.0336332 0.00254817 0.0252056 0.00296803 0.0460662
38 2 Si 0.460766 68.9143 4.5325 2.4 1 0.00470535 0.00404248 0.000790241 0.00779653 0.00152536 0.00609101 0.00172345 0.024089 0.0015796 0.0112821 0.00236087 0.0284472 0.00213598 0.0218985 0.00353791 0.033272 0.00302327 0.0249052 0.00339859 0.0470431
39 3 O -1.06728 68.9907 4.54816 -1.2 1 0.00504277 0.00387954 0.00101711 0.00775634 0.000953209 0.00577935 0.001287 0.0240136 0.00224902 0.0112221 0.00173368 0.028457 0.00303253 0.0214834 0.00262431 0.033963 0.00290275 0.0247218 0.00286586 0.0472152
40 3 O 1.44452 65.1499 4.62788 -1.2 1 0.00103916 0.00486638 0.00172708 0.00869408 0.00149504 0.00624907 0.00167661 0.0238249 0.0020362 0.0117218 0.00234453 0.0285966 0.00220755 0.0213629 0.00287718 0.0323216 0.00214773 0.0244941 0.0031884 0.0456373
41 3 O 1.18354 68.1349 3.32768 -1.2 1 0.00289135 0.00455791 0.00104786 0.00765991 0.000983662 0.00606408 0.00170919 0.02383 0.00168969 0.0110882 0.00199527 0.0286667 0.0021757 0.0218558 0.00236934 0.0332469 0.00223035 0.0247762 0.00216747 0.0462346
42 3 O 1.16935 68.1453 5.91222 -1.2 1 0.00491923 0.00376191 0.00114092 0.00708338 0.001611 0.00606533 0.00113271 0.0243301 0.00172786 0.0110246 0.00212356 0.028299 0.00243657 0.0220019 0.00299834 0.0338229 0.00223811 0.0250431 0.00309695 0.0462089
43 1 Mg -0.0108831 64.7735 3.16239 1.2 1 0.000752509 0.00539287 0.00175492 0.00838935 0.00138255 0.00680224 0.001334 0.0236651 0.0016366 0.0122603 0.0016466 0.0297323 0.00162538 0.0206874 0.00217991 0.0321327 0.00270017 0.0250242 0.00261212 0.0449511
44 1 Mg 0.366677 61.6677 4.67102 1.2 1 0.00167004 0.00818173 0.0029091 0.007715 0.00148858 0.00639154 0.0015138 0.022759 0.00264277 0.0115259 0.00259138 0.0280939 0.00254371 0.0212543 0.00226462 0.0320338 0.00375628 0.0241302 0.00418889 0.0446848
45 2 Si 2.17015 63.8106 4.58726 2.4 1 0.000488811 0.00518997 0.0019154 0.00955672 0.00167934 0.0061853 0.00187151 0.023214 0.00160931 0.0111772 0.00343905 0.0274255 0.0032427 0.02142 0.00447717 0.0325642 0.00313233 0.0247309 0.00349054 0.0457188
46 3 O -1.00409 63.9422 4.61645 -1.2 1 0.000914134 0.00536082 0.00197328 0.00891084 0.00184676 0.00619404 0.00159839 0.0230815 0.00261877 0.0115633 0.00219057 0.0281902 0.00210903 0.0211946 0.00257257 0.0322487 0.00267328 0.0243357 0.00320527 0.0459322
47 3 O 1.28339 59.7978 4.53433 -1.2 1 0.00964461 0.0136116 0.00549809 0.00725698 0.00166504 0.00645024 0.00241188 0.0219002 0.00271986 0.0116195 0.00327214 0.0280498 0.00353177 0.0209457 0.00376392 0.030543 0.00427491 0.0232354 0.00453422 0.0430642
48 3 O 1.55575 62.9924 3.29933 -1.2 1 0.000968774 0.00653344 0.0017423 0.00880787 0.00169086 0.0059536 0.00188263 0.0230071 0.00240293 0.0110999 0.00246898 0.0280049 0.00245206 0.0218605 0.00263296 0.0326142 0.00337952 0.0247005 0.0034616 0.045748
49 1 Mg -0.0378622 64.7552 0.0564878 1.2 1 0.0017958 0.00580674 0.000834399 0.00853128 0.00127201 0.00618614 0.00100948 0.0236429 0.00165165 0.0109609 0.00150618 0.0292079 0.00139509 0.0203082 0.00167427 0.0321285 0.00241241 0.0259534 0.00183509 0.0452715
50 3 O 1.52965 63.0692 5.8951 -1.2 1 0.00138138 0.00592398 0.00190623 0.00872592 0.00166441 0.00625694 0.00206669 0.0235704 0.00246411 0.0116826 0.00188373 0.0279134 0.00276758 0.0221674 0.00324558 0.0333958 0.00375447 0.024564 0.00337756 0.0457301
51 1 Mg 0.0399507 67.6875 1.66765 1.2 1 0.00232772 0.00506877 0.00108256 0.00833475 0.000893885 0.006379 0.00120735 0.0237562 0.00186541 0.0118503 0.00200434 0.0296388 0.00157192 0.021485 0.00255074 0.0329141 0.00234144 0.0255896 0.00240469 0.0456991
52 2 Si -2.08767 65.8693 1.47654 2.4 1 0.000955833 0.00512578 0.00124656 0.00907294 0.00153064 0.00630266 0.00147095 0.023286 0.00126691 0.010991 0.0013341 0.0282701 0.0019675 0.0214808 0.00248549 0.03214 0.00294475 0.0254183 0.00282567 0.0466012
53 3 O 1.18298 65.6078 1.63142 -1.2 1 0.00123317 0.00521611 0.00121006 0.00890546 0.00149268 0.00610548 0.00127795 0.0225587 0.00194598 0.0113493 0.0019484 0.0288543 0.00220721 0.0210225 0.00194807 0.031992 0.0029359 0.025011 0.00305407 0.045881
54 3 O -0.820368 69.514 1.64445 -1.2 1 0.00429462 0.00513751 0.000776851 0.00796733 0.00127621 0.00620786 0.00105578 0.0244936 0.00152101 0.0115441 0.00214408 0.0297625 0.0030413 0.0206809 0.00311793 0.0322545 0.00244492 0.0256815 0.00331776 0.0462732
55 3 O -1.37436 66.5733 0.280597 -1.2 1 0.0014504 0.0055298 0.00117285 0.00821111 0.00149161 0.00617253 0.00142839 0.0235382 0.00164484 0.0112319 0.00124063 0.0284704 0.00182384 0.0211926 0.00256193 0.032204 0.0031214 0.0258734 0.00163037 0.0452736
56 3 O -1.36247 66.5054 2.77955 -1.2 1 0.0014621 0.00491114 0.00137799 0.00835694 0.00182836 0.00651018 0.00172284 0.0237776 0.00174108 0.0113571 0.00171616 0.0286717 0.00227527 0.0218004 0.00280665 0.0328397 0.00292021 0.0254077 0.00275384 0.045741
57 1 Mg -2.2566 69.9566 0.297719 1.2 1 0.00403268 0.00513196 0.00088079 0.00773537 0.00125328 0.00640467 0.000639524 0.0239192 0.0013007 0.0111692 0.00135191 0.030009 0.00189578 0.0202946 0.00175981 0.0329294 0.00168626 0.0259645 0.0023535 0.0452585
58 1 Mg 2.37269 73.0065 1.58724 1.2 1 0.00567862 0.00484975 0.0011726 0.00665611 0.000823355 0.00606908 0.00120358 0.0239558 0.00262068 0.0105329 0.00279164 0.0290491 0.00179067 0.0206917 0.00387529 0.0333902 0.00308417 0.0263175 0.00393371 0.0475098
59 2 Si -0.215412 71.1338 1.69805 2.4 1 0.00525397 0.00441448 0.000760578 0.0079711 0.00216075 0.00562835 0.00156626 0.0235417 0.00143242 0.0107151 0.00258699 0.0289075 0.00239758 0.0208946 0.00328643 0.0337513 0.00272333 0.0253519 0.00283651 0.0473579
60 3 O 1.33927 70.9598 1.66133 -1.2 1 0.00511293 0.00478342 0.000681209 0.0078594 0.00179383 0.0056554 0.00128895 0.0239783 0.00242927 0.010838 0.00141852 0.029411 0.0019562 0.0206883 0.00253498 0.0333746 0.00211484 0.025432 0.00368168 0.0471781
61 3 O -1.23813 74.8287 1.49585 -1.2 1 0.0062151 0.00458589 0.0014401 0.00659957 0.000940562 0.00645142 0.00129518 0.0241383 0.00201719 0.0102885 0.00191965 0.0290357 0.00258249 0.0208338 0.0036455 0.0332234 0.00264171 0.0260041 0.00399976 0.0481379
62 3 O -0.949197 71.8144 0.489786 -1.2 1 0.00514881 0.00478637 0.000878329 0.00719509 0.00183708 0.0061664 0.00164846 0.0237504 0.00218735 0.0104659 0.0017565 0.0286124 0.00240551 0.0209706 0.00287474 0.0331741 0.00246496 0.0257729 0.00287219 0.0468322
63 1 Mg -2.26897 80.3307 2.90086 1.2 1 0.0042464 0.00464616 0.000950666 0.00565866 0.000874115 0.00662961 0.000961343 0.0219249 0.00176013 0.00932117 0.00141707 0.0278911 0.00237006 0.020382 0.00288426 0.0337136 0.00242829 0.025224 0.00285378 0.0462757
64 3 O -0.845066 71.6441 2.98714 -1.2 1 0.00584835 0.00472601 0.000932236 0.00714858 0.00180814 0.00594643 0.0014284 0.0245121 0.00120256 0.0109585 0.00174802 0.0283173 0.00232726 0.0213734 0.00248046 0.0339433 0.00187924 0.0258016 0.00249071 0.0478885
65 1 Mg -2.0541 77.6867 4.40985 1.2 1 0.00502959 0.00444842 0.0016711 0.00624919 0.000694663 0.00618808 0.0013831 0.0225771 0.00228047 0.00913345 0.00246412 0.0283809 0.00299757 0.0208708 0.00339108 0.0338666 0.00267761 0.0248946 0.00338041 0.04834
66 2 Si 0.48487 79.3963 4.56008 2.4 1 0.00338018 0.00481866 0.001156 0.00640847 0.00106845 0.0068809 0.00129584 0.0226608 0.00197756 0.0083974 0.00256426 0.0270855 0.00253242 0.0207683 0.00400835 0.0332492 0.00350785 0.0245824 0.00295095 0.0488678
67 3 O -1.08082 79.5106 4.49739 -1.2 1 0.00352295 0.00475519 0.00122323 0.00624974 0.000803747 0.00659617 0.00112778 0.0221091 0.00182938 0.00846381 0.00179666 0.0276042 0.00189084 0.020208 0.00258557 0.0339989 0.00271592 0.0245841 0.00277891 0.0481714
68 3 O 1.58933 75.734 4.57254 -1.2 1 0.00586114 0.00407608 0.00176808 0.0063423 0.000664626 0.00631873 0.00114732 0.0237207 0.00146722 0.00941526 0.00270634 0.0286902 0.00281364 0.0202742 0.00354482 0.0333794 0.00362677 0.0248784 0.00419326 0.0481711
69 3 O 1.15214 78.5989 3.35363 -1.2 1 0.00410546 0.0045927 0.000929193 0.00596142 0.000736645 0.00646451 0.00138465 0.0226328 0.00207666 0.00920086 0.00203641 0.0272026 0.00250001 0.0209372 0.00297014 0.0337776 0.00251958 0.0249688 0.00248198 0.0478515
70 3 O 1.12788 78.8262 5.96461 -1.2 1 0.00411174 0.00460921 0.00201305 0.00587657 0.0013988 0.00646619 0.00197323 0.0227456 0.00208684 0.00847991 0.00298108 0.0270274 0.00276551 0.0206381 0.00406056 0.0340834 0.00346943 0.02482 0.00330118 0.0488005
71 1 Mg 0.0927955 75.3414 3.07874 1.2 1 0.00613973 0.00425954 0.00159901 0.00609075 0.000658335 0.00646342 0.00108986 0.0236444 0.00150315 0.0103148 0.00188301 0.0296042 0.00206772 0.0203457 0.00250154 0.033208 0.00240957 0.0250627 0.0034845 0.0473644
72 1 Mg 0.0577873 72.3728 4.65427 1.2 1 0.00761134 0.00442437 0.00166404 0.00674008 0.00120512 0.00567232 0.0016359 0.0239454 0.00200434 0.0109041 0.00230985 0.0289309 0.00312746 0.0213064 0.00334367 0.0344481 0.00202466 0.0251838 0.00272641 0.0477273
73 2 Si 2.30542 74.2897 4.49659 2.4 1 0.00676635 0.0041603 0.00169075 0.00737737 0.00078728 0.0060307 0.00137879 0.0236634 0.00146725 0.00994207 0.00274736 0.0277504 0.00242246 0.0211854 0.00387993 0.0332612 0.003755 0.0245181 0.00368572 0.0492055
74 3 O -0.909659 74.4645 4.50799 -1.2 1 0.00619841 0.00406072 0.00178754 0.00659449 0.000956729 0.00585833 0.00131341 0.0233163 0.0019704 0.00963535 0.00222063 0.02883 0.0019291 0.0204339 0.00289648 0.0336265 0.00245071 0.0245402 0.00318638 0.0480019
75 3 O 1.16204 70.4063 4.54793 -1.2 1 0.00574073 0.00425567 0.00124744 0.00714843 0.0012112 0.00588013 0.00105399 0.0246447 0.00125585 0.0112445 0.00219196 0.0289338 0.00209779 0.0210964 0.00298395 0.033348 0.00276555 0.0248515 0.00278843 0.0473072
76 3 O 1.61261 73.5799 3.28015 -1.2 1 0.00657749 0.00433015 0.00136434 0.00660527 0.000769373 0.00586227 0.0010583 0.0237638 0.00142365 0.0097548 0.00203761 0.0283159 0.00232715 0.0208262 0.00319976 0.0341654 0.00278157 0.0255356 0.00274913 0.0483089
77 1 Mg -0.105171 75.2862 0.0829131 1.2 1 0.00509817 0.00484479 0.00149849 0.00646003 0.000941975 0.00607366 0.0011491 0.0234099 0.00152428 0.00984545 0.00190037 0.0291566 0.00190291 0.0202327 0.00247381 0.0332002 0.00209313 0.0262528 0.00317329 0.0471542
78 3 O 1.62224 73.5774 5.75051 -1.2 1 0.00712391 0.00387135 0.00174744 0.0064333 0.000923327 0.00567513 0.00146634 0.0233484 0.00123663 0.00992386 0.00191282 0.0280047 0.00237271 0.0209995 0.00289139 0.034594 0.00261516 0.0244843 0.00282028 0.048314
79 1 Mg 0.194763 78.0041 1.64309 1.2 1 0.00462681 0.00490425 0.00142556 0.0062822 0.000775998 0.00619419 0.00155419 0.0227677 0.00188554 0.00971742 0.00255464 0.0280806 0.00230049 0.020897 0.0029148 0.0338031 0.0034038 0.0252236 0.00382531 0.0473818
80 2 Si -1.91105 76.3461 1.46206 2.4 1 0.00551657 0.00448049 0.00182222 0.00711071 0.00134849 0.00645037 0.00194186 0.0229361 0.00207566 0.00928355 0.00253237 0.0277702 0.00215059 0.0211037 0.00404699 0.0334099 0.00339818 0.0251772 0.00415335 0.0484542
81 3 O 1.26985 76.2338 1.53849 -1.2 1 0.00528285 0.0045134 0.00160021 0.00640932 0.00107106 0.00604918 0.0016906 0.0231092 0.00258655 0.00908997 0.00226803 0.0283554 0.00259225 0.0204323 0.00316161 0.0333227 0.00375277 0.0253836 0.00434199 0.0481144
82 3 O -0.870988 79.9188 1.56689 -1.2 1 0.00502463 0.00442385 0.00164594 0.00604816 0.00111511 0.00692293 0.0014168 0.0228055 0.00163737 0.00916572 0.00192705 0.0277998 0.0026502 0.020606 0.00391106 0.0337252 0.00299534 0.025486 0.00410669 0.0470504
83 3 O -1.33787 77.0522 0.188379 -1.2 1 0.0052429 0.00444478 0.00169654 0.00612659 0.00134011 0.0063569 0.00158169 0.0229342 0.00259706 0.00968632 0.00223174 0.0275673 0.00226302 0.0211585 0.00330143 0.0335219 0.00301426 0.0257247 0.00426588 0.0472867
84 3 O -1.22901 76.9088 2.7748 -1.2 1 0.00511496 0.00430671 0.00147477 0.00638195 0.00139823 0.00631771 0.0024136 0.0230772 0.00224245 0.00907047 0.0025236 0.027927 0.00272709 0.0209848 0.00328341 0.0339106 0.0029007 0.0251215 0.00345634 0.0478926
85 1 Mg -2.27196 80.5372 -0.0150667 1.2 1 0.00491221 0.00452701 0.00134038 0.00614055 0.00100052 0.00708463 0.00122802 0.0226234 0.00133524 0.00982119 0.0012982 0.02743 0.00182491 0.020311 0.00201559 0.0332708 0.00173638 0.0260202 0.00289443 0.0467768
86 1 Mg 2.33912 83.427 1.79516 1.2 1 0.00360006 0.00445439 0.0011762 0.00562755 0.00102047 0.00694769 0.00140937 0.0211406 0.00175702 0.00917838 0.00179525 0.0264188 0.00237441 0.0210158 0.00341603 0.0343053 0.00306826 0.0256823 0.00323982 0.045596
87 2 Si -0.252714 81.4778 1.55245 2.4 1 0.00414962 0.00473626 0.000935861 0.00619642 0.00143921 0.00692752 0.00239097 0.0221369 0.00141103 0.00890314 0.00180865 0.0266629 0.00296159 0.0210502 0.00375663 0.0337778 0.00265201 0.0254308 0.00338841 0.0470042
88 3 O 1.28899 81.292 1.58718 -1.2 1 0.00438524 0.00473662 0.0011689 0.00598829 0.000898973 0.00683767 0.00113018 0.0220041 0.00237866 0.00882796 0.00139848 0.0269339 0.00241657 0.0202385 0.00298715 0.0340385 0.00243249 0.0254958 0.00278393 0.0471996
89 3 O -1.43211 85.1881 1.88815 -1.2 1 0.00337092 0.00390984 0.00132444 0.0060292 0.000862645 0.00776493 0.00112416 0.0215055 0.00137931 0.00869092 0.0017263 0.0264039 0.00239184 0.0203708 0.00304063 0.0337446 0.00300053 0.0258843 0.0029842 0.0462045
90 3 O -0.849432 82.0898 0.260508 -1.2 1 0.00408768 0.00461423 0.000844789 0.00580891 0.00118406 0.0070779 0.00145113 0.0221686 0.0016934 0.00977301 0.0012397 0.0264787 0.0026084 0.0215996 0.00305434 0.034183 0.00247282 0.0261447 0.00317023 0.04688
91 1 Mg -2.42355 90.6766 3.00595 1.2 1 0.00228292 0.00328084 0.00122371 0.00550025 0.00115306 0.00783557 0.00124116 0.021015 0.00159787 0.00882013 0.00144303 0.0256805 0.00145543 0.0185044 0.00318156 0.0337237 0.00229643 0.0262695 0.00333754 0.0462582
92 3 O -0.910864 82.1496 2.79483 -1.2 1 0.00362723 0.00496044 0.00111873 0.00545041 0.0010319 0.00663148 0.0017636 0.0223578 0.00124176 0.00924046 0.00141957 0.0260169 0.00309021 0.0210586 0.00302369 0.034408 0.00305428 0.0254618 0.00350862 0.0463632
93 1 Mg -2.07015 88.0124 4.75228 1.2 1 0.00295079 0.00305768 0.00126162 0.00572168 0.000849017 0.00736992 0.00146295 0.020633 0.00207588 0.00881714 0.00199402 0.0255488 0.00234223 0.0194967 0.00436405 0.034401 0.00250486 0.026489 0.00262346 0.0456355
94 2 Si 0.33798 89.753 4.45197 2.4 1 0.001655 0.00297893 0.000956474 0.00606937 0.00118425 0.00803096 0.00195669 0.020538 0.00147077 0.0079057 0.00235661 0.0247805 0.0022338 0.0195661 0.00551333 0.0333222 0.00379876 0.0258345 0.00379295 0.0471201
95 3 O -1.22525 89.899 4.49269 -1.2 1 0.00215056 0.00313219 0.000974785 0.00595332 0.00096537 0.00789481 0.00126734 0.0203368 0.00179455 0.00774264 0.00159948 0.0257591 0.00160624 0.0189382 0.00346732 0.033573 0.00214719 0.0258712 0.00317111 0.0468364
96 3 O 1.3639 86.1547 4.72832 -1.2 1 0.00179443 0.00329116 0.000922007 0.00635951 0.00052541 0.00781542 0.000838381 0.0215335 0.00111586 0.00859833 0.00153884 0.026092 0.00213003 0.0197805 0.00311724 0.0338147 0.00250636 0.0259576 0.00244502 0.0460876
97 3 O 1.14426 89.0269 3.21237 -1.2 1 0.00236496 0.00327522 0.00126424 0.00558379 0.00103406 0.00772299 0.00163756 0.0209595 0.00217976 0.00818087 0.00198951 0.0245291 0.00234476 0.0196096 0.00449917 0.0337481 0.00360015 0.0264842 0.00368911 0.0473532
98 3 O 0.992225 89.2048 5.70625 -1.2 1 0.00199015 0.00279916 0.000882231 0.00566016 0.000916778 0.00734858 0.00165587 0.0204902 0.00134748 0.0077527 0.00136437 0.0252419 0.00193922 0.0191185 0.0040738 0.0342243 0.00240837 0.0259285 0.00323179 0.0465143
99 1 Mg 0.0807842 85.5707 3.46095 1.2 1 0.00229766 0.00384571 0.000879807 0.00594172 0.000607329 0.00763763 0.000783485 0.021356 0.00161049 0.00854777 0.00128855 0.0261854 0.00180645 0.01993 0.00257201 0.0339781 0.00237941 0.0256444 0.00226491 0.0457405
100 1 Mg 0.0211524 82.7147 4.44412 1.2 1 0.00353684 0.00462719 0.00159156 0.00567625 0.000601822 0.00661931 0.00114112 0.0221414 0.00294693 0.00922677 0.00207936 0.0268287 0.00306379 0.0207077 0.00369599 0.0349406 0.00306734 0.025255 0.00362199 0.0462006
101 2 Si 1.96311 84.6976 4.8048 2.4 1 0.0020825 0.00368127 0.00139593 0.00643055 0.000987086 0.00744252 0.00108968 0.0211148 0.00167425 0.00861734 0.00205147 0.0262934 0.0025443 0.0204639 0.00410442 0.0337862 0.00407981 0.0248825 0.0038412 0.0456205
102 3 O -1.23897 84.7577 4.81186 -1.2 1 0.00221311 0.00376011 0.00160447 0.0059671 0.000630341 0.00712615 0.000868939 0.0211519 0.00218176 0.00832908 0.00149344 0.0260412 0.0024545 0.0199003 0.00261269 0.0349222 0.00329629 0.025225 0.00383776 0.0462299
103 3 O 1.21493 80.8583 4.44459 -1.2 1 0.00338412 0.00459086 0.000560925 0.0060651 0.000978686 0.00705049 0.000695356 0.0221898 0.001402 0.0085531 0.00191652 0.02732 0.00262632 0.020028 0.00314858 0.0338746 0.00321857 0.0246657 0.00305112 0.0472884
104 3 O 1.30879 83.9793 3.50044 -1.2 1 0.00299369 0.00428526 0.00155746 0.00568381 0.000785426 0.00693492 0.00121917 0.021271 0.00172999 0.00881927 0.00190596 0.0258137 0.00256732 0.0207418 0.00353622 0.0347903 0.00310195 0.0254845 0.003067 0.0455794
105 1 Mg 0.0179759 85.5746 0.346196 1.2 1 0.00380845 0.00405092 0.000584036 0.00585788 0.000844536 0.00774254 0.0011276 0.0212171 0.00162994 0.00888639 0.00139985 0.0264065 0.00196064 0.0201307 0.00212372 0.0339124 0.00235544 0.0259787 0.00164189 0.0460342
106 3 O 1.2881 83.995 6.06425 -1.2 1 0.00188998 0.00359299 0.00141143 0.00556425 0.000792032 0.0073247 0.000955935 0.022491 0.00159828 0.00921698 0.00179473 0.0261093 0.00282986 0.0207309 0.00357529 0.0345741 0.00368834 0.0253809 0.00382487 0.0462749
107 1 Mg -0.00514001 88.4091 1.56292 1.2 1 0.00254342 0.0031167 0.000705342 0.00579667 0.000722513 0.00746591 0.00117847 0.0202402 0.00186802 0.00824572 0.001418 0.025452 0.0020808 0.0200748 0.00320087 0.0343173 0.00343477 0.026391 0.00291891 0.0461072
108 2 Si -2.17004 86.6749 1.79858 2.4 1 0.00249545 0.00331905 0.00107235 0.00658139 0.00101417 0.00803655 0.00147242 0.0210183 0.00154952 0.00818378 0.00190539 0.0251149 0.00248675 0.0203004 0.00247719 0.0339159 0.00248294 0.0258676 0.00221279 0.0470311
109 3 O 1.03464 86.4924 1.76685 -1.2 1 0.0027789 0.00367426 0.000752925 0.0061613 0.000800864 0.00772923 0.00127957 0.0202163 0.00178072 0.00818787 0.00123692 0.0258902 0.00203873 0.0197318 0.00270003 0.0336335 0.00267664 0.0253994 0.00239001 0.046086
110 3 O -1.0807 90.2471 1.54941 -1.2 1 0.00246213 0.00330766 0.00087519 0.00597007 0.00081638 0.00789543 0.00116226 0.0211807 0.00153027 0.00834378 0.00172425 0.025225 0.00202516 0.0189634 0.00249232 0.0335285 0.00250119 0.0265898 0.00341151 0.0466299
111 3 O -1.63403 87.2436 0.389632 -1.2 1 0.00289361 0.00364337 0.00070245 0.00580175 0.000768224 0.00769709 0.00128294 0.0207743 0.00160854 0.00825562 0.00177104 0.0249625 0.00260041 0.0198572 0.00292884 0.0344048 0.00244939 0.0262889 0.00194905 0.0462118
112 3 O -1.32304 87.3606 2.98132 -1.2 1 0.00237681 0.00316521 0.000770141 0.00586219 0.000870014 0.00776614 0.00103044 0.0214267 0.00205825 0.00848569 0.00166341 0.0248722 0.00263627 0.0201731 0.0029309 0.0342423 0.00263606 0.0265222 0.00265395 0.0467547
113 1 Mg -2.43148 90.4943 0.109085 1.2 1 0.0019549 0.00367385 0.00126706 0.00569915 0.000860455 0.00760574 0.00124331 0.0205163 0.00138625 0.00854313 0.0013357 0.0256529 0.00164653 0.0189882 0.00290357 0.0334824 0.00245497 0.0261732 0.00325229 0.0463761
114 1 Mg 2.2962 93.627 1.80213 1.2 1 0.000808756 0.00376154 0.0014326 0.0058658 0.00101751 0.00753651 0.00105364 0.0214765 0.00154773 0.00821253 0.00159142 0.0253625 0.00217208 0.0191946 0.00331544 0.0335464 0.00266355 0.0266013 0.00410013 0.0478961
115 2 Si -0.367932 91.76 1.49699 2.4 1 0.0023875 0.00384393 0.0014111 0.00638233 0.0011793 0.00774965 0.00103827 0.0205766 0.00185305 0.00763115 0.0020838 0.024567 0.00199504 0.0192884 0.00290159 0.0333666 0.00243341 0.0263529 0.00330998 0.0475635
116 3 O 1.16078 91.4949 1.51346 -1.2 1 0.00193545 0.00353005 0.0013362 0.00595069 0.00110452 0.00776651 0.0011028 0.0207623 0.00206284 0.00752534 0.00161773 0.0252692 0.00178308 0.0183293 0.0026679 0.0338743 0.00255826 0.0265067 0.00408075 0.0475617
117 3 O -1.48915 95.4765 1.65503 -1.2 1 0.000921086 0.00406984 0.000629921 0.00606655 0.00083155 0.00752759 0.000930724 0.0216175 0.000834859 0.00787843 0.00187941 0.0253023 0.00188686 0.0186756 0.00296109 0.0332721 0.00277548 0.025998 0.00422383 0.0482467
118 3 O -1.17571 92.3589 0.195232 -1.2 1 0.00206946 0.00407728 0.00169354 0.00580788 0.00157732 0.00748648 0.00128712 0.021065 0.00169874 0.00795408 0.00211634 0.0246211 0.00210973 0.0193608 0.00296119 0.0340687 0.00176267 0.0268838 0.00317805 0.0485538
119 1 Mg -2.25802 101.171 3.26523 1.2 1 0.00216719 0.00364024 0.000754538 0.00561602 0.00058991 0.00682843 0.00125616 0.0213844 0.00117002 0.0085325 0.00131016 0.0273017 0.00129966 0.0190132 0.00219887 0.0330813 0.0023428 0.0251848 0.00293249 0.0479422