ITEM: TIMESTEP
2600
ITEM: NUMBER OF ATOMS
5600
ITEM: BOX BOUNDS xy xz yz pp pp pp
0	7.1235	0
0	201.985	2.3745
0	119.584	0
ITEM: ATOMS id type element xu yu zu q Q_1 Q_2 Q_3 Q_4 Q_5 Q_6 Q_7 Q_8 Q_9 Q_10 Q_11 Q_12 Q_13 Q_14 Q_15 Q_16 Q_17 Q_18 Q_19 Q_20 Q_21
1 1 Mg -1.45609 48.7207 -0.619073 1.2 1 0.248689 0.072663 0.0218569 0.0264067 0.00657818 0.0144844 0.00618056 0.0184498 0.00579141 0.0227446 0.00829103 0.0263927 0.00891937 0.0283795 0.0109938 0.0267322 0.00907175 0.0240051 0.00951071 0.0277924
2 1 Mg 2.93082 51.8014 1.77019 1.2 1 0.177081 0.0586766 0.00859627 0.0178868 0.00297757 0.0100898 0.00377776 0.0188968 0.00491386 0.0198916 0.00499561 0.0263344 0.00507831 0.0267434 0.006804 0.0293935 0.00754303 0.0226263 0.00747778 0.0318617
3 2 Si 0.843316 50.7432 0.0931028 2.4 1 0.202857 0.0643488 0.0127538 0.0209805 0.00363497 0.0108534 0.00435533 0.0170133 0.00439567 0.0207798 0.00573833 0.0266483 0.00578449 0.0274243 0.00745838 0.0271115 0.00704662 0.0219916 0.00752655 0.0289461
4 3 O 1.97913 49.5662 0.340705 -1.2 1 0.23007 0.0718012 0.0165799 0.0239751 0.00400955 0.0120943 0.00437855 0.018541 0.0058382 0.023072 0.00787967 0.0267964 0.00810712 0.028617 0.0106098 0.0286244 0.00990875 0.0247319 0.00892794 0.0295016
5 3 O -1.23293 53.8913 1.48714 -1.2 1 0.133189 0.0461954 0.00347141 0.0134521 0.00175318 0.00877099 0.00294746 0.0181123 0.00405325 0.0167857 0.00305157 0.026175 0.00364157 0.0237698 0.00368479 0.0294328 0.00690695 0.0210511 0.00551464 0.0335392
6 3 O 0.0315284 50.1866 -1.1527 -1.2 1 0.206019 0.0662146 0.0130952 0.0209091 0.00487636 0.0115621 0.00531023 0.0181402 0.00422578 0.0213969 0.00565057 0.0261308 0.00616266 0.0282979 0.00721319 0.0276824 0.00811435 0.0228234 0.00733637 0.0284192
7 1 Mg -2.15925 59.6191 3.17038 1.2 1 0.020652 0.0124612 0.00483525 0.0048554 0.00132453 0.00593735 0.00196595 0.0210338 0.0022987 0.0106558 0.00199571 0.0261702 0.00265368 0.022178 0.004395 0.0329503 0.004465 0.0238685 0.00455868 0.0459765
8 3 O 0.0507201 50.9605 1.41131 -1.2 1 0.190018 0.0627787 0.00979956 0.0188653 0.00245827 0.0101967 0.00370122 0.0178987 0.00524887 0.0203844 0.00535188 0.0264604 0.0042582 0.0271565 0.00683546 0.0286783 0.00853414 0.0221346 0.00752934 0.0307003
9 1 Mg -1.91859 56.5697 4.37355 1.2 1 0.0676946 0.0320688 0.00689757 0.00808268 0.00193201 0.00637811 0.0023619 0.0211554 0.00355126 0.013687 0.00279247 0.0268212 0.00319458 0.0233017 0.004907 0.0319991 0.0048842 0.0232705 0.00516326 0.0422359
10 2 Si 0.524764 58.4824 4.67399 2.4 1 0.0303074 0.0177736 0.00715239 0.00579651 0.00119656 0.0065861 0.00291705 0.0214489 0.00282418 0.010658 0.00313624 0.0254725 0.0026363 0.0227644 0.00487281 0.0322376 0.00471666 0.0243731 0.00473375 0.0456862
11 3 O -0.985669 58.6204 4.59344 -1.2 1 0.0298721 0.0170606 0.00679717 0.00537504 0.00128323 0.00593991 0.00297984 0.0211365 0.00295083 0.0108933 0.00245765 0.0262849 0.00288814 0.022273 0.00449567 0.0327647 0.00541763 0.0234635 0.00487616 0.0457265
12 3 O 1.71189 54.5872 4.55221 -1.2 1 0.112679 0.0442113 0.00205608 0.0128961 0.00143179 0.00831238 0.00309118 0.0203296 0.00392759 0.0167132 0.00258863 0.0269435 0.0040924 0.0243738 0.00400447 0.0311856 0.00641604 0.0234065 0.00614174 0.0387582
13 3 O 1.21743 57.7925 3.429 -1.2 1 0.0427292 0.0225177 0.00730817 0.00626476 0.00146548 0.0057956 0.00217708 0.0208215 0.00321676 0.0123567 0.00221696 0.0260716 0.00295338 0.0229583 0.00481292 0.0323408 0.0046926 0.0225136 0.00496672 0.0432982
14 3 O 1.25196 57.9249 5.90331 -1.2 1 0.0394344 0.0222061 0.00738405 0.00561804 0.00109899 0.00598005 0.00275514 0.0218209 0.00297435 0.0113582 0.00312944 0.0264463 0.00242309 0.022045 0.00499129 0.0323812 0.00472662 0.0237806 0.00458728 0.0451518
15 1 Mg 0.218435 54.3611 3.07123 1.2 1 0.117727 0.0455987 0.00194217 0.0126619 0.00166364 0.00814709 0.00221134 0.0189741 0.00384758 0.0172027 0.0029098 0.0273521 0.00432868 0.0234433 0.00455439 0.0296857 0.0062705 0.0216295 0.00537209 0.0352705
16 1 Mg 0.702924 50.5866 3.19977 1.2 1 0.211649 0.0678239 0.0138202 0.021794 0.00342337 0.0124285 0.0044935 0.0192644 0.00497094 0.0220235 0.00535822 0.0273189 0.00541336 0.0291195 0.00765814 0.029086 0.00948264 0.0237333 0.00848597 0.0330891
17 2 Si 2.39777 53.1616 4.54076 2.4 1 0.149904 0.0550303 0.00390743 0.016228 0.00268642 0.00961408 0.0043739 0.0203002 0.00466926 0.0188805 0.00404127 0.0275321 0.00534153 0.02685 0.00558492 0.031323 0.0066596 0.0232252 0.00642471 0.0368129
18 3 O -0.830074 53.5383 4.47984 -1.2 1 0.133328 0.0513584 0.00199367 0.0144863 0.00184405 0.00826326 0.00317068 0.0199939 0.00482804 0.0180705 0.00291869 0.0279462 0.00486372 0.0260186 0.00504837 0.0313646 0.00672994 0.0229809 0.00637458 0.0375499
19 3 O 2.47893 49.645 3.30472 -1.2 1 0.228206 0.0718985 0.0157254 0.0235322 0.00439914 0.013352 0.00506639 0.0201271 0.00572361 0.0232548 0.00659187 0.0273421 0.00683508 0.0302048 0.0104494 0.0298106 0.011635 0.0259283 0.00981872 0.032486
20 3 O 1.80582 52.4699 3.24391 -1.2 1 0.161213 0.0563069 0.00566484 0.0164579 0.00302193 0.00922036 0.00404453 0.0194899 0.00436653 0.0195722 0.00329131 0.0270889 0.00438556 0.0268229 0.00537371 0.029704 0.00752943 0.0229393 0.00661598 0.0340763
21 1 Mg 0.120648 54.4748 -0.233099 1.2 1 0.111798 0.0422188 0.00113577 0.0113347 0.00153461 0.0069259 0.00296879 0.018206 0.00384288 0.0168222 0.00329819 0.0259497 0.00423579 0.023651 0.00349605 0.029252 0.00614909 0.020637 0.00600968 0.0338175
22 3 O 1.83209 52.2672 5.78533 -1.2 1 0.166167 0.0605186 0.00525149 0.0183306 0.00209855 0.0106166 0.00372326 0.0205163 0.0045099 0.0200692 0.00343818 0.0283519 0.00584487 0.0278597 0.00491332 0.0319341 0.00660326 0.0241001 0.00645963 0.0371784
23 1 Mg 0.183175 57.2787 1.59256 1.2 1 0.0492871 0.0247894 0.00729858 0.007014 0.00177556 0.005978 0.00153976 0.0197526 0.00397412 0.0135448 0.00335123 0.0267843 0.00352032 0.0224896 0.00470772 0.0314524 0.00598462 0.0218242 0.0053211 0.0404656
24 2 Si -1.86207 55.3251 1.47729 2.4 1 0.0985888 0.0391184 0.00259736 0.0105371 0.00139898 0.00706881 0.00205879 0.018731 0.00441093 0.0149316 0.00294322 0.0258017 0.00337924 0.0234019 0.00411877 0.0300123 0.00730943 0.0205933 0.00594224 0.0364589
25 3 O 1.36396 55.2189 1.49302 -1.2 1 0.101733 0.0387405 0.00178537 0.0109407 0.00129128 0.00754865 0.00238168 0.0183468 0.00440769 0.0150324 0.00350098 0.0259223 0.00398093 0.0231642 0.00427348 0.0307456 0.00652649 0.021531 0.00517873 0.0355662
26 3 O -0.839864 59.0987 1.65708 -1.2 1 0.0260634 0.0152244 0.00659402 0.005074 0.0012511 0.00553596 0.00162297 0.0212073 0.00317144 0.0113415 0.00270055 0.0265155 0.00296543 0.0217421 0.00512001 0.0326065 0.00528692 0.0230975 0.00571646 0.0440796
27 3 O -1.20674 56.1582 0.313046 -1.2 1 0.0735764 0.0315593 0.00443287 0.00824979 0.00142713 0.00650708 0.00198945 0.0194045 0.0033684 0.0142477 0.00285111 0.0253184 0.00324531 0.0224231 0.00326202 0.031131 0.00649674 0.0214521 0.00567372 0.037536
28 3 O -1.06294 55.9957 2.77263 -1.2 1 0.0802191 0.0342218 0.00430444 0.00956576 0.00172905 0.00732585 0.00140818 0.0199432 0.0041858 0.0146661 0.00291131 0.0262699 0.0033878 0.0233544 0.00460568 0.0319282 0.00581374 0.0229866 0.00518147 0.038715
29 1 Mg -2.27386 59.6844 0.226338 1.2 1 0.0203283 0.0119216 0.0040259 0.00505467 0.00132512 0.00587505 0.00186526 0.0205737 0.00245145 0.0119863 0.00202481 0.0266674 0.00247239 0.0209629 0.00387647 0.0321508 0.00381346 0.0228028 0.00466012 0.0428955
30 1 Mg 2.5488 62.504 1.81176 1.2 1 0.00693375 0.00627625 0.00161975 0.00566683 0.000861841 0.00576193 0.00186636 0.0215954 0.00305013 0.00970372 0.00259996 0.0257206 0.00249508 0.0221086 0.00309523 0.0324478 0.00344158 0.0237802 0.00368882 0.0475243
31 2 Si -0.158916 60.5968 1.72054 2.4 1 0.0142898 0.00877042 0.00311829 0.00577187 0.00158803 0.00609417 0.00177757 0.0211016 0.00227257 0.0104376 0.00272621 0.0253425 0.00291351 0.0222749 0.00443146 0.0326621 0.00462059 0.0236809 0.0053066 0.0473611
32 3 O 1.42789 60.4491 1.77945 -1.2 1 0.0152025 0.00937428 0.00352913 0.00493376 0.00164309 0.00557527 0.00174478 0.0214455 0.00287836 0.0104902 0.0022398 0.0260473 0.0029665 0.021846 0.00418853 0.0327593 0.00419306 0.0237585 0.00549886 0.0461217
33 3 O -1.13279 64.2696 1.74582 -1.2 1 0.0050785 0.00539731 0.00201036 0.00580017 0.000913392 0.00583176 0.00119069 0.0224382 0.00129409 0.00965454 0.00182943 0.0255603 0.00248328 0.0211161 0.00271878 0.0316888 0.00290557 0.0237387 0.00385988 0.0472242
34 3 O -0.801489 61.4064 0.604266 -1.2 1 0.011072 0.00722472 0.00157375 0.00482269 0.00150622 0.00556094 0.00186459 0.0211033 0.00248281 0.0100793 0.00221113 0.025939 0.00235756 0.0218808 0.00342385 0.0325341 0.00353552 0.0236774 0.0044878 0.0463182
35 1 Mg -2.13324 69.9865 2.93297 1.2 1 0.00334536 0.00408178 0.00104406 0.00570273 0.00112571 0.00527916 0.00104535 0.022179 0.00119261 0.00979473 0.00116788 0.0257628 0.00153431 0.0205435 0.00223999 0.0305126 0.00231244 0.0225806 0.00244954 0.0458959
36 3 O -0.747587 61.3549 3.00164 -1.2 1 0.0118464 0.00820627 0.00263854 0.00466677 0.00105392 0.00611435 0.00154329 0.0218865 0.00221228 0.0101639 0.00237443 0.0254289 0.00294396 0.0224676 0.00450934 0.0325962 0.00442538 0.0238085 0.00439123 0.0468174
37 1 Mg -2.03022 67.3097 4.47377 1.2 1 0.00154503 0.00395437 0.00156275 0.00583288 0.001151 0.00573904 0.00152203 0.0217312 0.00188944 0.00947716 0.00258784 0.0252198 0.00218519 0.0215044 0.00242923 0.0315345 0.00316254 0.0233558 0.00302626 0.0469203
38 2 Si 0.511263 69.03 4.36435 2.4 1 0.00273093 0.00400647 0.00158898 0.0064051 0.00172542 0.00560541 0.00161861 0.0214498 0.00119888 0.0089314 0.00154947 0.0245312 0.00205311 0.0209855 0.00274941 0.0309923 0.00257447 0.0226937 0.00337874 0.0475197
39 3 O -1.06508 69.1148 4.40135 -1.2 1 0.00255922 0.00405224 0.00137954 0.00594134 0.00160888 0.00531935 0.00149514 0.0212912 0.00158979 0.00930289 0.00163907 0.025618 0.00268863 0.0207182 0.00245113 0.031112 0.00383442 0.0225192 0.00340541 0.0468283
40 3 O 1.70491 65.3489 4.59457 -1.2 1 0.00269404 0.00442602 0.00162678 0.00615573 0.000938509 0.00595952 0.00154157 0.0222072 0.00129273 0.00957574 0.00222388 0.025674 0.00234613 0.0211933 0.00329887 0.0316661 0.00308609 0.0234365 0.00315641 0.0474237
41 3 O 1.09468 68.5953 3.01282 -1.2 1 0.00245209 0.00409512 0.00130217 0.00569449 0.00177058 0.0051382 0.00202609 0.0220881 0.00132971 0.00969339 0.00180538 0.0251749 0.00204011 0.0208056 0.00263958 0.0308106 0.00281212 0.022861 0.00245821 0.0470223
42 3 O 1.22458 68.2544 5.51139 -1.2 1 0.00232778 0.00390073 0.00117899 0.00555886 0.00163865 0.00543944 0.00152146 0.0214492 0.00141258 0.00912689 0.00195564 0.0251684 0.00182739 0.0216307 0.00236185 0.0319695 0.00305193 0.0231523 0.00323875 0.0469896
43 1 Mg 0.43696 64.6282 3.15504 1.2 1 0.00342515 0.00491812 0.00195317 0.00601369 0.000931223 0.00597052 0.00172428 0.0216959 0.00141735 0.0102408 0.00164035 0.0265216 0.00130688 0.0211472 0.0022166 0.0312595 0.00292025 0.0231039 0.00274878 0.0463124
44 1 Mg 0.255179 61.9758 4.56965 1.2 1 0.00940472 0.00700689 0.0021572 0.00522252 0.00136432 0.00600997 0.00185437 0.0221214 0.00148913 0.0101424 0.00301028 0.0258895 0.00249483 0.0222924 0.0038217 0.0327617 0.00372127 0.0248172 0.00473066 0.0478323
45 2 Si 2.41988 63.9236 4.73356 2.4 1 0.00470399 0.00447037 0.00175856 0.0072245 0.00142049 0.00650759 0.00196861 0.0218662 0.00168001 0.00906926 0.00245202 0.0249038 0.00152771 0.0222826 0.00334215 0.0314785 0.00298081 0.0240064 0.00263726 0.0490728
46 3 O -0.831532 63.9781 4.79642 -1.2 1 0.00459469 0.00453647 0.00174721 0.00672722 0.00111411 0.00572179 0.00181852 0.0219154 0.00228789 0.00899633 0.00191781 0.0256236 0.00198184 0.021234 0.00323538 0.0326211 0.00317927 0.0241319 0.00310234 0.0479611
47 3 O 1.19806 60.0805 4.59316 -1.2 1 0.0174 0.0118728 0.00411302 0.00466582 0.00122215 0.00612071 0.00215731 0.0222865 0.0023564 0.010239 0.00282265 0.0261271 0.00242903 0.0221971 0.00393596 0.0328486 0.00448343 0.0242893 0.00474341 0.0467884
48 3 O 1.7024 63.1404 3.46622 -1.2 1 0.00629588 0.0052288 0.00198793 0.00600999 0.00107515 0.00608761 0.00172774 0.0215612 0.00136786 0.00895075 0.00180846 0.0251785 0.00199963 0.0217093 0.00293971 0.0326049 0.00315754 0.0243908 0.00349697 0.0470838
49 1 Mg 0.134504 64.7711 0.287914 1.2 1 0.00406699 0.00542427 0.00142428 0.00554244 0.000776535 0.00537326 0.000916025 0.0217112 0.00114586 0.00958165 0.00131827 0.0261148 0.00180044 0.0206726 0.00245296 0.0307604 0.00220598 0.0231776 0.00310049 0.0460137
50 3 O 1.67963 63.2951 6.02236 -1.2 1 0.00596187 0.00517296 0.00164212 0.00631757 0.00134646 0.00595273 0.00232419 0.0223159 0.00170207 0.00943624 0.00237931 0.0254558 0.0017051 0.0219712 0.00350855 0.0331904 0.003908 0.024786 0.00295151 0.048704
51 1 Mg 0.10139 67.7647 1.46404 1.2 1 0.00316725 0.00470436 0.00123984 0.00593542 0.000940044 0.00497358 0.00116502 0.0213522 0.00205155 0.0100843 0.00160042 0.0256071 0.00173055 0.0213539 0.00224383 0.0303805 0.00263345 0.022682 0.00229496 0.0461041
52 2 Si -1.81057 65.8556 1.90489 2.4 1 0.00197169 0.0047399 0.00186825 0.0064501 0.00109388 0.00589612 0.00198215 0.0211633 0.00143144 0.00914027 0.00211631 0.0243808 0.00224093 0.0215715 0.00388002 0.0305671 0.00317467 0.0233257 0.0027617 0.047062
53 3 O 1.47143 65.7411 1.86023 -1.2 1 0.00234815 0.00487906 0.0014708 0.00598601 0.0010123 0.00547905 0.00136317 0.0212148 0.00193 0.00935167 0.00128975 0.0253098 0.00193296 0.0210037 0.0023073 0.0310243 0.00313043 0.0230398 0.00290629 0.047456
54 3 O -0.8992 69.6432 1.4683 -1.2 1 0.00352331 0.00449355 0.000704299 0.00586157 0.00106375 0.00559329 0.0010961 0.0222215 0.00142867 0.00945738 0.00202409 0.0255935 0.00210172 0.0203853 0.00279734 0.0298497 0.00248605 0.0229704 0.00304779 0.045666
55 3 O -1.20695 66.4169 0.471786 -1.2 1 0.00229863 0.00523645 0.00157105 0.00535867 0.0012767 0.00538538 0.00218556 0.0215556 0.00154137 0.00938117 0.00170787 0.0248311 0.00224606 0.0207331 0.00272605 0.0308025 0.00199577 0.0234816 0.00236927 0.0464548
56 3 O -1.06881 66.5479 2.9958 -1.2 1 0.000576867 0.00440534 0.00177013 0.00562022 0.0012568 0.00546551 0.00204851 0.0219123 0.00152167 0.00915942 0.0023605 0.0249033 0.00200591 0.0215669 0.00323858 0.0314957 0.00311213 0.0235627 0.00247858 0.0469657
57 1 Mg -2.33134 69.9525 0.0368875 1.2 1 0.00344572 0.00484774 0.000920412 0.0057872 0.000750615 0.00550507 0.00100311 0.0214327 0.00118875 0.00963717 0.00150276 0.0260217 0.00147556 0.0198174 0.00200451 0.0292801 0.00242694 0.0227073 0.00234699 0.0448033
58 1 Mg 2.26563 73.0523 1.5173 1.2 1 0.00291103 0.00422206 0.000818887 0.00564269 0.000713155 0.00498092 0.00119422 0.0219389 0.00188934 0.00959752 0.00261381 0.0257306 0.00230612 0.020423 0.00366872 0.0303241 0.00369606 0.0229352 0.00375089 0.0469743
59 2 Si -0.246639 71.1379 1.46398 2.4 1 0.00345884 0.00441686 0.000875659 0.00615817 0.00120532 0.00525737 0.00166841 0.0220791 0.00205761 0.00938595 0.00240276 0.0246827 0.00230768 0.0205824 0.00316593 0.0299289 0.00267725 0.0226467 0.00278027 0.0466064
60 3 O 1.33907 71.1258 1.54702 -1.2 1 0.00315191 0.00437841 0.000887985 0.00602316 0.00117214 0.00506979 0.00154462 0.0212564 0.00248202 0.00954464 0.00178284 0.0257676 0.00219465 0.020049 0.00265727 0.0301644 0.00255534 0.0222192 0.00300971 0.046016
61 3 O -1.48714 74.8385 1.59013 -1.2 1 0.000655716 0.00402365 0.0010763 0.00569587 0.000578391 0.0053918 0.00128535 0.022353 0.00192354 0.00947664 0.00178009 0.0264002 0.00244004 0.0199134 0.00371931 0.0309203 0.0032232 0.0231469 0.00456672 0.047363
62 3 O -1.00821 71.7637 0.238095 -1.2 1 0.0031076 0.00469222 0.000715115 0.0057694 0.000958698 0.00486376 0.00147176 0.0224612 0.00207995 0.00919051 0.00220943 0.0249097 0.00202062 0.0206459 0.00257159 0.0298863 0.00288713 0.0230676 0.00271943 0.0458746
63 1 Mg -2.42762 80.6421 3.03979 1.2 1 0.00333537 0.00382847 0.00124198 0.00600199 0.00138662 0.00548283 0.00124647 0.0225993 0.00196963 0.0086568 0.00186364 0.0279707 0.00266726 0.0193958 0.00313957 0.031618 0.00348203 0.0241671 0.00465456 0.0485802
64 3 O -0.960619 71.7408 2.81536 -1.2 1 0.00374367 0.00419734 0.000880698 0.00554051 0.00161581 0.00477688 0.00218592 0.0216076 0.00222033 0.00957114 0.00230995 0.0250081 0.0027079 0.0209238 0.00320615 0.0308829 0.00247799 0.0223628 0.00222073 0.0473704
65 1 Mg -2.33751 77.7598 4.43559 1.2 1 0.00197101 0.00388944 0.00125343 0.00586728 0.00111058 0.00496329 0.00166812 0.0226275 0.00294999 0.00935993 0.00203628 0.0270728 0.00284482 0.0207288 0.00293375 0.0324746 0.00292042 0.0240263 0.0027326 0.0491497
66 2 Si 0.337743 79.6161 4.48189 2.4 1 0.00257214 0.00349955 0.000857686 0.00664855 0.00125924 0.00531895 0.00200768 0.0226568 0.00187857 0.00827921 0.0022502 0.02642 0.00189535 0.0207519 0.00406602 0.0315867 0.00375333 0.0235971 0.00381596 0.0505059
67 3 O -1.13526 79.7455 4.4799 -1.2 1 0.00227412 0.00365523 0.00124078 0.00600751 0.00105958 0.00524557 0.00162408 0.0224815 0.00223902 0.00862225 0.00200164 0.0274032 0.00208092 0.0196123 0.00285087 0.031942 0.00345936 0.0237987 0.00314877 0.0490117
68 3 O 1.50627 75.7298 4.59472 -1.2 1 0.00247077 0.00337306 0.0015548 0.00616052 0.000933697 0.00555223 0.00108231 0.0229016 0.00174706 0.00942344 0.00230115 0.026921 0.00274695 0.0202847 0.0030753 0.0319387 0.00291184 0.02374 0.00286262 0.0491866
69 3 O 1.11445 78.9335 3.18587 -1.2 1 0.00260508 0.00382765 0.0010285 0.00558223 0.00110052 0.00529287 0.00222975 0.023282 0.00215208 0.00882585 0.00226524 0.0267632 0.00246909 0.0204607 0.0045739 0.0318455 0.00418385 0.0244648 0.00431401 0.0492567
70 3 O 1.01661 78.8278 5.65991 -1.2 1 0.00176245 0.00373252 0.00101644 0.00599924 0.00133841 0.00473609 0.00172292 0.0221653 0.00160842 0.00875554 0.0016597 0.0269813 0.00149334 0.0203872 0.00243212 0.0326612 0.00282929 0.0234919 0.00262076 0.0484674
71 1 Mg -0.0248404 75.4629 3.23392 1.2 1 0.001509 0.00391544 0.00130452 0.00558608 0.000673284 0.00526268 0.00119762 0.0219299 0.00156026 0.00970558 0.00161692 0.0273901 0.00224663 0.0200728 0.0020398 0.0313663 0.00247179 0.0230317 0.00270001 0.0479269
72 1 Mg 0.0636949 72.4492 4.57939 1.2 1 0.0036969 0.00382924 0.0014351 0.00602393 0.00150116 0.00505336 0.00131657 0.0222812 0.0020626 0.0100132 0.00280005 0.0261217 0.00272394 0.0210431 0.00339166 0.0317718 0.00341289 0.0233247 0.00337208 0.0472304
73 2 Si 2.1291 74.2829 4.5223 2.4 1 0.00380534 0.00357034 0.00136075 0.00688208 0.00172138 0.00533874 0.00213441 0.0217564 0.00189075 0.00942132 0.00262258 0.0259308 0.00310888 0.0210831 0.00401287 0.0315549 0.00368631 0.0227492 0.00378365 0.0487166
74 3 O -1.06312 74.213 4.50438 -1.2 1 0.00354676 0.00360008 0.00138528 0.00610929 0.00141187 0.00509452 0.00147234 0.0216861 0.00299421 0.00949289 0.00220551 0.0263792 0.00270067 0.0205328 0.00228252 0.0320182 0.0031304 0.0228027 0.00350585 0.0486647
75 3 O 1.0818 70.5794 4.45836 -1.2 1 0.00423307 0.00392646 0.00166288 0.00599452 0.0012004 0.00568854 0.0013061 0.0224368 0.00147665 0.00982094 0.00173607 0.0261503 0.00225495 0.0202766 0.00301703 0.0313156 0.00280946 0.023471 0.00374578 0.0464915
76 3 O 1.33983 73.5704 3.2064 -1.2 1 0.00307696 0.0037863 0.0011749 0.00556246 0.00130365 0.00487084 0.0015636 0.0224521 0.00175832 0.0095525 0.00137475 0.0258107 0.00217607 0.0205219 0.0030243 0.031418 0.00294242 0.0229416 0.00314356 0.0478907
77 1 Mg -0.0640904 75.3356 0.239234 1.2 1 0.00132174 0.00402726 0.00121335 0.0056754 0.000610481 0.00516378 0.00128012 0.0220192 0.00180649 0.00915394 0.0016441 0.0268954 0.00236411 0.0195226 0.00301995 0.0303536 0.00344912 0.0231172 0.0041401 0.0464549
78 3 O 1.53348 73.5922 5.7854 -1.2 1 0.00334061 0.00338436 0.00141679 0.00561634 0.00128084 0.0052272 0.00172836 0.0221906 0.00207526 0.00966118 0.00205354 0.025995 0.00333368 0.0210185 0.00289934 0.0327624 0.0029752 0.0232842 0.00402927 0.048094
79 1 Mg -0.00720828 78.1765 1.51171 1.2 1 0.00269013 0.00375979 0.00148458 0.00593584 0.00108882 0.00511916 0.00156926 0.022623 0.00231361 0.00899517 0.00202411 0.0269974 0.00255969 0.0200031 0.00425215 0.0316485 0.00403681 0.0246221 0.00582819 0.0485078
80 2 Si -2.10351 76.3328 1.69176 2.4 1 0.00102833 0.00354415 0.00109026 0.00661869 0.00120184 0.00509324 0.00145097 0.021681 0.00165233 0.00867447 0.00182199 0.0255101 0.00274928 0.0202449 0.00321857 0.0313651 0.00337258 0.0235326 0.00385778 0.0491507
81 3 O 1.11058 76.3484 1.72605 -1.2 1 0.00114598 0.00395348 0.00110268 0.00606448 0.00163657 0.0049399 0.00175167 0.0215819 0.00261936 0.00844033 0.00195673 0.0259366 0.00264476 0.0198576 0.00463035 0.031065 0.00424962 0.0234639 0.00541946 0.0483957
82 3 O -0.980303 80.1044 1.64332 -1.2 1 0.00398773 0.00390028 0.00166528 0.00647232 0.00150027 0.00565601 0.00110348 0.0223627 0.00239562 0.00822176 0.00199664 0.0270562 0.00271803 0.019587 0.00416947 0.0308963 0.00404797 0.0241863 0.00619255 0.0486386
83 3 O -1.43113 77.076 0.481482 -1.2 1 0.00207426 0.00376311 0.00124279 0.00601959 0.00145226 0.00476313 0.00145635 0.0218689 0.00171046 0.00827455 0.00210744 0.0259531 0.00334019 0.0196819 0.00321262 0.0314437 0.0037167 0.0236451 0.00497412 0.0481523
84 3 O -1.29967 76.9703 2.93471 -1.2 1 0.0015651 0.00393458 0.00138289 0.00545466 0.00111597 0.00496177 0.00118745 0.023047 0.00164763 0.00880604 0.00196928 0.0265385 0.0023749 0.0204309 0.0027791 0.0322239 0.00320236 0.0238806 0.0036829 0.049194
85 1 Mg -2.30274 80.4603 0.0798596 1.2 1 0.00483444 0.00403417 0.00168718 0.00637023 0.00175542 0.0060105 0.00121615 0.0220631 0.00191388 0.00853123 0.00165439 0.0275393 0.00254586 0.0192816 0.00347582 0.0304487 0.00356508 0.0244344 0.00561063 0.048274
86 1 Mg 2.32346 83.479 1.51756 1.2 1 0.00396819 0.00418608 0.00157334 0.00626368 0.00138607 0.00535117 0.00133985 0.0221666 0.00209778 0.00849198 0.00260749 0.0279672 0.00246594 0.0201835 0.0039477 0.0318956 0.00435188 0.0242896 0.00525877 0.0492882
87 2 Si -0.339749 81.5776 1.53765 2.4 1 0.00486428 0.00395073 0.00195339 0.00702666 0.00205736 0.00598641 0.00149684 0.0220288 0.00197775 0.00793577 0.00236765 0.0262328 0.0030441 0.0200701 0.00368238 0.0311536 0.00382099 0.0244863 0.00484676 0.0494333
88 3 O 1.20609 81.6676 1.54631 -1.2 1 0.00453021 0.00392779 0.00151619 0.00638555 0.00237588 0.00535196 0.00146447 0.0214739 0.00245219 0.00764825 0.00226085 0.0271407 0.00291108 0.0193114 0.00356666 0.0318296 0.00446195 0.0239221 0.00624021 0.0494891
89 3 O -1.3429 85.1523 1.676 -1.2 1 0.00356984 0.00429708 0.00144956 0.00638155 0.00125377 0.00605191 0.00112651 0.0228901 0.0017096 0.0082196 0.00204369 0.028261 0.00235047 0.0196419 0.00361307 0.0320097 0.00409689 0.0247353 0.00529583 0.0488768
90 3 O -1.07373 82.1972 0.236734 -1.2 1 0.00480217 0.00411938 0.00183614 0.00608705 0.00207167 0.00580887 0.00153185 0.0226604 0.00246377 0.0080507 0.00219999 0.0262011 0.00314134 0.0201469 0.00412412 0.0316856 0.00394557 0.0254436 0.00571346 0.049433
91 1 Mg -2.28086 90.9257 3.12875 1.2 1 0.00133111 0.00496595 0.00116672 0.00623971 0.00136688 0.0062713 0.00117016 0.0228964 0.00121224 0.0088533 0.00192715 0.02914 0.00186664 0.0201091 0.00307585 0.0323631 0.00320924 0.02519 0.00349804 0.0480389
92 3 O -1.04464 82.3426 2.82102 -1.2 1 0.00406339 0.00390615 0.00148352 0.00613515 0.00197899 0.00534426 0.00124125 0.0221622 0.00178296 0.00816647 0.00182509 0.0271188 0.00298556 0.020222 0.00341235 0.0322182 0.00396234 0.0242376 0.0050146 0.049544
93 1 Mg -2.00059 88.0454 4.45427 1.2 1 0.00202397 0.00437426 0.0011038 0.00612501 0.000993225 0.00545957 0.0012125 0.0232774 0.0022931 0.00866205 0.00239926 0.0288883 0.0027638 0.0204962 0.00314113 0.0326994 0.00339452 0.0249417 0.00354159 0.0493447
94 2 Si 0.484704 89.8125 4.68212 2.4 1 0.00132956 0.00421478 0.00123827 0.00658485 0.00114643 0.00595626 0.00182783 0.0230721 0.00147263 0.00826689 0.00265833 0.027881 0.00206905 0.0207953 0.00373556 0.0328189 0.0041577 0.0249193 0.00445196 0.0505024
95 3 O -1.05446 89.8602 4.69676 -1.2 1 0.00168352 0.00410342 0.001347 0.00647212 0.00109809 0.00568279 0.00127622 0.0221571 0.00193645 0.00833111 0.00166214 0.0284755 0.00236138 0.0202193 0.00255864 0.0331982 0.00420495 0.0246089 0.00390992 0.0501436
96 3 O 1.46256 86.2212 4.68075 -1.2 1 0.00205414 0.00416447 0.00142506 0.00597464 0.00109156 0.00597284 0.00128874 0.023517 0.00139549 0.00842595 0.00252191 0.0286413 0.00278127 0.019748 0.00367167 0.0318117 0.00353138 0.0247125 0.00424334 0.0490311
97 3 O 1.09945 89.2262 3.31795 -1.2 1 0.00145949 0.0046618 0.00129798 0.00618736 0.00158598 0.00595431 0.0019597 0.0234647 0.00209089 0.00858872 0.00233402 0.0273379 0.00230151 0.0205371 0.00310108 0.0332449 0.00334307 0.0257327 0.00313924 0.0492119
98 3 O 1.17376 89.2832 5.95871 -1.2 1 0.00181017 0.00379717 0.00121887 0.0059236 0.00122125 0.00574007 0.00211385 0.023648 0.00186023 0.00870601 0.00278893 0.0279099 0.002614 0.0209179 0.00378457 0.0332482 0.00395673 0.0258163 0.00429742 0.0501318
99 1 Mg -0.0327709 85.5777 3.12665 1.2 1 0.00299802 0.00435587 0.00155548 0.00583262 0.00123256 0.00600166 0.00112661 0.0231592 0.00129663 0.00851546 0.00187562 0.0286753 0.00223309 0.0193307 0.00324208 0.0319077 0.00344028 0.0247867 0.00438145 0.0485241
100 1 Mg -0.042459 82.9436 4.6389 1.2 1 0.00332249 0.00376795 0.0015235 0.00555669 0.0014476 0.00502607 0.00150761 0.0226556 0.00274994 0.00887842 0.00249432 0.0282847 0.00335974 0.0203243 0.00412249 0.0328151 0.00392264 0.02449 0.00384086 0.0495788
101 2 Si 2.14335 84.7013 4.61012 2.4 1 0.00269706 0.00397058 0.00141479 0.00608674 0.00150127 0.00566266 0.00186691 0.0230998 0.00221565 0.00837943 0.00267347 0.0276744 0.00285276 0.0202397 0.00387059 0.0318754 0.00406632 0.0243277 0.00482165 0.0499819
102 3 O -1.05085 84.7618 4.63467 -1.2 1 0.00230096 0.00401964 0.00147718 0.0057959 0.00143087 0.00525222 0.00163811 0.0227237 0.00257254 0.00830664 0.00220798 0.0280946 0.00220574 0.0197491 0.00273675 0.0326013 0.00383101 0.0242026 0.00311295 0.0498029
103 3 O 1.04362 81.1067 4.48502 -1.2 1 0.00267674 0.00390407 0.00104099 0.0058624 0.00140953 0.00526406 0.00138577 0.0230683 0.00159454 0.00876461 0.00176387 0.0280155 0.00193568 0.0198573 0.00285744 0.0317573 0.00331416 0.0239658 0.00342749 0.0491635
104 3 O 1.38892 84.0891 3.41233 -1.2 1 0.00356918 0.00410986 0.00139959 0.0059401 0.00134336 0.00530206 0.00169206 0.0231872 0.00152963 0.00819543 0.00242729 0.0272189 0.0029059 0.0199333 0.00416035 0.0322487 0.00396938 0.0247166 0.00454038 0.0494473
105 1 Mg 0.00698189 85.4329 0.135474 1.2 1 0.00361254 0.00494887 0.00179608 0.00634016 0.00100763 0.00618709 0.000982483 0.0222166 0.00162399 0.00831925 0.00192486 0.0279253 0.00264257 0.018907 0.00339997 0.0320159 0.00328528 0.0258617 0.00461289 0.0486242
106 3 O 1.4487 83.9685 5.85255 -1.2 1 0.00239254 0.00385846 0.00153258 0.00531597 0.00146926 0.00508687 0.00172153 0.0229365 0.00212818 0.00868439 0.00227045 0.0273583 0.00280657 0.0203593 0.00303775 0.032766 0.00361378 0.0244433 0.00435662 0.0491151
107 1 Mg 0.207827 88.4849 1.63442 1.2 1 0.00176365 0.0051098 0.0013876 0.00641601 0.00129803 0.00592828 0.00116762 0.0225435 0.00188644 0.00923387 0.00258437 0.0281147 0.00270643 0.0205006 0.0027396 0.0330509 0.00421261 0.0261338 0.00390582 0.0484783
108 2 Si -1.92927 86.7462 1.61695 2.4 1 0.00202381 0.00465751 0.00161356 0.00681446 0.00123599 0.00608538 0.00197174 0.0221243 0.0016345 0.00837893 0.00278585 0.0271719 0.00214735 0.0203044 0.0040747 0.0324574 0.00321118 0.0251125 0.00376728 0.0492732
109 3 O 1.30384 86.6944 1.81318 -1.2 1 0.00220849 0.00464768 0.00160532 0.0065034 0.001019 0.00591616 0.000919631 0.0223728 0.00201195 0.0079496 0.00182225 0.027552 0.00233238 0.0193523 0.00322354 0.0324286 0.00393889 0.0251409 0.00495626 0.0490699
110 3 O -0.952562 90.4489 1.68553 -1.2 1 0.00111745 0.00542007 0.0014104 0.00684803 0.0014834 0.0066862 0.00154714 0.0223892 0.00180994 0.00888203 0.00200592 0.0281987 0.00236746 0.0200521 0.00378536 0.0321935 0.00342166 0.0256221 0.00395806 0.0478771
111 3 O -1.2852 87.3075 0.256967 -1.2 1 0.00233534 0.00501747 0.0013321 0.00657196 0.00116607 0.00611268 0.00131673 0.0227283 0.00176235 0.00886157 0.00193596 0.0274063 0.00236818 0.0201367 0.00255883 0.0327821 0.00321758 0.02622 0.00377468 0.0488273
112 3 O -1.17121 87.3161 2.88913 -1.2 1 0.00179803 0.00440646 0.00135469 0.00615308 0.00160255 0.00552341 0.00203992 0.0227844 0.00155645 0.00831456 0.00264694 0.0272773 0.00248779 0.020233 0.00313767 0.0330724 0.00355362 0.0250734 0.00416174 0.0494572
113 1 Mg -2.22147 91.0884 0.172389 1.2 1 0.000620807 0.0058436 0.00122745 0.00672259 0.00145607 0.00678555 0.00147354 0.0223919 0.00125693 0.00993087 0.00179066 0.0276499 0.00192747 0.0199982 0.00322222 0.0323142 0.00338241 0.0259704 0.00319028 0.0462819
114 1 Mg 2.50474 93.7612 1.72524 1.2 1 0.00244591 0.00489691 0.0018574 0.00701214 0.00168489 0.0060679 0.00140166 0.022258 0.00217673 0.00886607 0.00280969 0.0273872 0.00256776 0.0203016 0.00503035 0.0331342 0.00465488 0.0263174 0.00548244 0.0474297
115 2 Si -0.170986 91.9315 1.70299 2.4 1 0.00116733 0.00544669 0.00145176 0.00719625 0.00182022 0.00645787 0.00177764 0.0224464 0.00177496 0.00859278 0.00256757 0.0268224 0.00272395 0.0205511 0.00391578 0.0327675 0.00366096 0.0257041 0.0042424 0.0482666
116 3 O 1.35738 91.8716 1.72645 -1.2 1 0.00159116 0.00528513 0.00153315 0.00686862 0.00183064 0.00605701 0.00193073 0.0214936 0.00296085 0.00875779 0.00289863 0.0273123 0.00245324 0.0201384 0.00389713 0.0331798 0.0039397 0.0250299 0.00537201 0.0477055
117 3 O -1.20617 95.547 1.68253 -1.2 1 0.00437799 0.00466058 0.00210176 0.00683549 0.00217049 0.00622507 0.00174597 0.0225036 0.0024231 0.00840669 0.00219198 0.027782 0.00300851 0.0198396 0.00501508 0.0333175 0.00477863 0.026305 0.00611301 0.0478924
118 3 O -0.826312 92.5893 0.340316 -1.2 1 0.00163545 0.0054042 0.00164587 0.00688517 0.00196947 0.00644274 0.00203583 0.0224291 0.00164239 0.00960148 0.00216103 0.0267852 0.0028445 0.0207816 0.00386088 0.0331673 0.0031176 0.0261935 0.00398558 0.0470307
119 1 Mg -2.29877 101.155 2.98865 1.2 1 0.00510462 0.00389604 0.00194157 0.00648204 0.00209107 0.00681006 0.00135088 0.0212214 0.00195751 0.00826301 0.00201565 0.0275162 0.00276425 0.0188703 0.00378177 0.0327198 0.00439928 0.027048 0.00458727 0.0496029