ITEM: TIMESTEP
86100
ITEM: NUMBER OF ATOMS
10500
ITEM: BOX BOUNDS xy xz yz pp pp pp
0	15.2977	5.09925
0	118.725	0
0	89.688	0
ITEM: ATOMS id type element xu yu zu q Q_1 Q_2 Q_3 Q_4 Q_5 Q_6 Q_7 Q_8 Q_9 Q_10 Q_11 Q_12 Q_13 Q_14 Q_15 Q_16 Q_17 Q_18 Q_19 Q_20 Q_21
1 1 Mg 6.2404 -6.37941e-06 0 1.2 1 0.0102743 0.0412904 0.0326331 0.0372233 0.0309712 0.0396005 0.0351718 0.0666639 0.0394424 0.0713585 0.034461 0.0610961 0.0474169 0.0690124 0.0501401 0.089963 0.051214 0.0831149 0.049809 0.101687
2 1 Mg 3.46349 4.70768 1.4948 1.2 1 0.0168619 0.0167152 0.0244205 0.021652 0.0201702 0.0421371 0.0422686 0.0397609 0.0455689 0.055376 0.0425135 0.0709382 0.0573611 0.0712678 0.0723343 0.0645013 0.0685139 0.0855906 0.0727565 0.0818752
3 2 Si 5.2885 2.02354 1.4948 2.4 1 0.0199153 0.0222091 0.0338167 0.0285423 0.0300632 0.0374812 0.0536861 0.032756 0.0437742 0.0539044 0.0544561 0.0621415 0.0552 0.0648473 0.0678447 0.0797996 0.0707075 0.0644072 0.0642074 0.0729924
4 3 O 5.33628 3.63678 1.4948 -1.2 1 0.00935401 0.0141304 0.0268355 0.0257928 0.0184499 0.039054 0.0418408 0.0600818 0.0353678 0.0399739 0.0548128 0.050719 0.0678684 0.057753 0.0592763 0.0649473 0.0603767 0.0616629 0.0711435 0.0745101
5 3 O 1.67294 1.04952 1.4948 -1.2 1 0.0165104 0.0221761 0.0231806 0.0360811 0.0296841 0.0388226 0.0340958 0.060966 0.0347662 0.0598229 0.044159 0.0510883 0.0717196 0.0593514 0.0763474 0.0690321 0.0632445 0.0650202 0.0786925 0.0609132
6 3 O 4.59532 1.31737 0.196716 -1.2 1 0.0261727 0.0203542 0.0586538 0.0246534 0.0325224 0.0492881 0.0384744 0.0464107 0.0333799 0.0385934 0.0386774 0.0509017 0.0549933 0.0573972 0.063341 0.0697655 0.0624563 0.070545 0.0580217 0.0704195
7 1 Mg 6.18956 -6.37941e-06 2.9896 1.2 1 0.0154869 0.0273375 0.0154699 0.0221749 0.0360111 0.0452772 0.0501526 0.0432112 0.047001 0.046424 0.0386846 0.0541747 0.0414374 0.0563186 0.0581614 0.0787924 0.0570746 0.0712735 0.059601 0.0692418
8 3 O 4.55118 1.31737 2.79288 -1.2 1 0.0274943 0.0276491 0.0422154 0.0184199 0.0263999 0.0439858 0.0468814 0.0483331 0.0442718 0.0528121 0.0533211 0.0483503 0.0492356 0.0645704 0.0529069 0.0686316 0.0645191 0.0670962 0.0634245 0.0712925
9 1 Mg -1.20682 0.0413099 4.4844 1.2 1 0.0152035 0.0235079 0.0216095 0.0271286 0.0365455 0.0388027 0.0332254 0.0499879 0.0549883 0.0387141 0.0488518 0.0612034 0.0673577 0.0568073 0.0755232 0.0647799 0.0805626 0.0723826 0.0642017 0.0518955
10 2 Si -3.0337 2.72544 4.4844 2.4 1 0.0299264 0.0147213 0.0199439 0.013736 0.0331265 0.040731 0.0580818 0.0340533 0.0624881 0.0509841 0.0471414 0.0633776 0.0582026 0.0779998 0.0573607 0.0590462 0.0715413 0.0776663 0.0729354 0.0608079
11 3 O -3.08099 1.11221 4.4844 -1.2 1 0.014201 0.0234295 0.0267127 0.0262217 0.0414271 0.0257193 0.049906 0.0483744 0.0410978 0.0415567 0.0432578 0.0744124 0.0543823 0.051545 0.0561882 0.0687024 0.0515133 0.07736 0.0723828 0.0778781
12 3 O 0.582463 3.69946 4.4844 -1.2 1 0.00360974 0.0142648 0.028158 0.0271871 0.0267653 0.0645603 0.0285369 0.05683 0.045299 0.0376935 0.0543272 0.0530832 0.0607849 0.0690457 0.101617 0.0676302 0.0807203 0.0414382 0.0719381 0.0636215
13 3 O -2.29524 3.43162 3.18632 -1.2 1 0.014863 0.0186037 0.024839 0.0303991 0.0233127 0.0529991 0.050703 0.0535685 0.0412511 0.0523851 0.0588027 0.054216 0.0433417 0.0543882 0.0602266 0.0660129 0.0693692 0.0607567 0.0653122 0.0732423
14 3 O -2.34216 3.43162 5.78248 -1.2 1 0.0145975 0.014426 0.0171218 0.030102 0.0275912 0.0388878 0.0539968 0.0476068 0.0444907 0.0549686 0.0565534 0.0484809 0.0580907 0.054302 0.0780621 0.0723303 0.0638634 0.0689151 0.0742662 0.0710154
15 1 Mg 1.12778 2.37449 2.9896 1.2 1 0.0228499 0.0392427 0.0137489 0.025145 0.0259298 0.0429195 0.0420216 0.0513618 0.0365727 0.0612937 0.0366941 0.0606779 0.0402882 0.066577 0.0634058 0.0696779 0.0677852 0.0802489 0.0463934 0.0867257
16 1 Mg 3.92855 2.33318 4.4844 1.2 1 0.0309464 0.0186724 0.019075 0.028565 0.044226 0.0253312 0.0411281 0.0361442 0.0473794 0.0712513 0.0513403 0.0597342 0.0497498 0.0629676 0.0598977 0.075624 0.0655736 0.0913576 0.0719872 0.08787
17 2 Si 2.09341 4.39804 4.4844 2.4 1 0.0137442 0.0191189 0.0368667 0.0222908 0.0426745 0.0318526 0.0582928 0.024262 0.0410584 0.0490492 0.0633714 0.0588419 0.0679385 0.0613925 0.0709217 0.0737367 0.0752425 0.0830093 0.0544542 0.0641427
18 3 O 2.09991 6.01128 4.4844 -1.2 1 0.0125233 0.00895473 0.0171987 0.0180403 0.0341853 0.0242843 0.051506 0.0526179 0.0445139 0.0445163 0.0468068 0.0675013 0.0457339 0.0598764 0.063771 0.0680349 0.0478067 0.0803893 0.0592086 0.0716708
19 3 O -4.52137 3.42402 4.4844 -1.2 1 0.0184508 0.030792 0.0356194 0.0212229 0.0235841 0.0591146 0.039535 0.044582 0.0561423 0.0588157 0.031466 0.0609384 0.0549345 0.0529219 0.0901104 0.0738244 0.0765908 0.0619456 0.0728531 0.0558634
20 3 O 2.80834 3.69187 3.18632 -1.2 1 0.00590266 0.020174 0.0219854 0.0248894 0.020514 0.0389197 0.0363576 0.0515939 0.0464328 0.0586227 0.0689544 0.0542738 0.0442587 0.0655288 0.0718393 0.0717534 0.0587525 0.0598064 0.0706767 0.0701013
21 1 Mg 1.17857 2.37449 0 1.2 1 0.0142233 0.0368127 0.029175 0.0282591 0.0363936 0.0387159 0.0427264 0.0589041 0.0360277 0.04854 0.0532809 0.0409761 0.0432703 0.0670909 0.0547947 0.0651908 0.0598978 0.0807794 0.0581018 0.0732118
22 3 O 2.76143 3.69187 5.78248 -1.2 1 0.0155656 0.0250074 0.0210339 0.0243859 0.0171375 0.0348082 0.0383588 0.0516488 0.0372244 0.0474698 0.0627091 0.0454958 0.0509676 0.0766612 0.0747007 0.0666454 0.0694183 0.0564967 0.075327 0.0768935
23 1 Mg -1.67381 2.41581 1.4948 1.2 1 0.0103531 0.00858062 0.0416435 0.0339788 0.029514 0.0452986 0.05723 0.0406142 0.0507651 0.040669 0.0445513 0.056821 0.0538408 0.0626501 0.060041 0.063009 0.0842969 0.0783625 0.066952 0.0743925
24 2 Si 0.16286 0.350945 1.4948 2.4 1 0.0169944 0.0327669 0.0258216 0.0270414 0.0325973 0.0351282 0.0548716 0.0509441 0.0525162 0.0490392 0.0401246 0.057696 0.0723555 0.0691539 0.0589218 0.0744406 0.0722675 0.0656909 0.0730736 0.0663593
25 3 O 0.15972 -1.26229 1.4948 -1.2 1 0.00752011 0.0200089 0.0374268 0.0237933 0.035008 0.037477 0.0461677 0.0543754 0.0486381 0.0514449 0.0563924 0.0585326 0.0628176 0.0666941 0.0506122 0.0601054 0.0696887 0.0669359 0.0618045 0.0733299
26 3 O 6.77654 1.32496 1.4948 -1.2 1 0.0114878 0.0277811 0.0265783 0.0277404 0.0372182 0.0544305 0.0341997 0.064815 0.0475703 0.0469211 0.0442027 0.0523653 0.0524735 0.0595176 0.0685823 0.0714275 0.0845523 0.0630072 0.0597054 0.0746873
27 3 O -0.508028 1.05712 0.196716 -1.2 1 0.0244593 0.018917 0.0295333 0.0206457 0.0287254 0.0538732 0.0436961 0.0449915 0.0471102 0.0487802 0.0501254 0.0476352 0.0493201 0.0635759 0.0552209 0.0632503 0.0635172 0.0588113 0.0721636 0.0722999
28 3 O -0.552171 1.05712 2.79288 -1.2 1 0.0323003 0.028543 0.0317212 0.0337155 0.0239253 0.0464657 0.0404835 0.0468767 0.0435036 0.0337825 0.0503619 0.0494994 0.0597397 0.0611864 0.0628902 0.0762176 0.0718422 0.0506145 0.0674468 0.0715606
29 1 Mg 6.31713 4.74899 0 1.2 1 0.0272387 0.0291115 0.0303644 0.0367691 0.0325667 0.0268078 0.0419415 0.0559144 0.0586565 0.0494644 0.051128 0.0384472 0.0595225 0.0613456 0.0656546 0.0638035 0.0658085 0.0735628 0.0697576 0.0704332
30 1 Mg 3.54847 9.45668 1.4948 1.2 1 0.0131224 0.0190006 0.017425 0.0231687 0.0205095 0.0384946 0.0397965 0.0430634 0.0458495 0.0547319 0.0366792 0.0698529 0.0543858 0.0652162 0.0735528 0.0626652 0.0645508 0.0877748 0.0754981 0.0793774
31 2 Si 5.36879 6.77254 1.4948 2.4 1 0.0290582 0.026888 0.0240216 0.0256657 0.0247866 0.0349291 0.0442694 0.0361356 0.0446993 0.0571923 0.0421295 0.0578047 0.053633 0.0669589 0.0656856 0.0741099 0.0674454 0.0790426 0.0565482 0.068762
32 3 O 5.41937 8.38578 1.4948 -1.2 1 0.0228272 0.0131708 0.0238247 0.030535 0.0159193 0.0439632 0.0430621 0.0570655 0.0356296 0.0498754 0.0486946 0.0625828 0.0551736 0.0534852 0.0646016 0.0592858 0.0722908 0.0559864 0.0724058 0.0740408
33 3 O 1.75158 5.79852 1.4948 -1.2 1 0.0284224 0.0123245 0.0222942 0.0267727 0.0441598 0.0309053 0.0394115 0.0563869 0.0409656 0.0520895 0.0495919 0.0496566 0.0473085 0.0720596 0.0790157 0.0787204 0.0607281 0.0754247 0.0596746 0.0773755
34 3 O 4.67421 6.06637 0.196716 -1.2 1 0.0115011 0.0281484 0.0306057 0.022929 0.0332829 0.0384081 0.0341196 0.0323949 0.0438416 0.0544531 0.0404826 0.0426909 0.0654858 0.055949 0.0677905 0.0704554 0.0728775 0.0652366 0.063179 0.0684736
35 1 Mg 6.26654 4.74899 2.9896 1.2 1 0.0173582 0.0264237 0.0254187 0.0406572 0.0239996 0.0448516 0.0490327 0.0494918 0.0344311 0.0637538 0.0380337 0.0618052 0.0397929 0.0642831 0.052508 0.0787592 0.0570766 0.0847775 0.0463149 0.0893192
36 3 O 4.63043 6.06637 2.79288 -1.2 1 0.019433 0.0174004 0.0402277 0.0217536 0.030926 0.0381967 0.0420411 0.0494408 0.0440407 0.035056 0.0495009 0.0510887 0.0557942 0.062748 0.0609932 0.0749889 0.0672121 0.0691049 0.0684614 0.0843492
37 1 Mg -1.12976 4.79031 4.4844 1.2 1 0.0232472 0.0287201 0.011651 0.0128815 0.0368718 0.0385472 0.0483094 0.0481485 0.0415347 0.043826 0.0555193 0.062798 0.0760531 0.0729009 0.0611399 0.0687008 0.0718128 0.0938557 0.0707612 0.0811425
38 2 Si -2.9517 7.47444 4.4844 2.4 1 0.0247622 0.0178208 0.0197933 0.0221826 0.0295126 0.0435863 0.0574941 0.0294166 0.0517432 0.0614495 0.0520257 0.0586935 0.0597333 0.0582307 0.0790374 0.0690652 0.05259 0.0880545 0.0568064 0.060113
39 3 O -3.00198 5.86121 4.4844 -1.2 1 0.00807587 0.0181111 0.0307861 0.0253329 0.0315989 0.0355078 0.0520241 0.0605563 0.0386865 0.0540731 0.0490926 0.0736723 0.0611939 0.0557155 0.0662487 0.0740321 0.0468199 0.0754325 0.060898 0.0760708
40 3 O 0.666315 8.44846 4.4844 -1.2 1 0.0121548 0.0181066 0.027232 0.0189961 0.0205138 0.051284 0.0339217 0.0511516 0.0439584 0.047672 0.0409719 0.054119 0.0498915 0.0760145 0.0975548 0.0663579 0.0766615 0.0490456 0.0717466 0.0709066
41 3 O -2.21213 8.18062 3.18632 -1.2 1 0.00983329 0.0131062 0.0182134 0.0170128 0.0194106 0.0354311 0.0479442 0.0569104 0.0465507 0.0542066 0.0557917 0.0499967 0.0547877 0.0488421 0.0780722 0.0636686 0.0730416 0.0571392 0.0677578 0.0696289
42 3 O -2.25864 8.18062 5.78248 -1.2 1 0.023184 0.021981 0.016448 0.0174394 0.0203732 0.0318966 0.0460811 0.0481692 0.0413709 0.0432283 0.0535452 0.0400164 0.0572214 0.0549724 0.0837273 0.0684096 0.0695502 0.0674631 0.0668858 0.0732369
43 1 Mg 1.20893 7.12349 2.9896 1.2 1 0.012269 0.0213966 0.0189006 0.0223933 0.0249939 0.0381669 0.0435334 0.0469362 0.0340284 0.0673317 0.0385935 0.0684619 0.0373485 0.0598529 0.0520026 0.0815868 0.051147 0.0845796 0.045752 0.0872552
44 1 Mg 4.00982 7.08218 4.4844 1.2 1 0.0182663 0.0147483 0.0257367 0.038405 0.0347598 0.0321826 0.0469504 0.036259 0.04488 0.0505648 0.0582223 0.0571012 0.0704981 0.0752262 0.0572474 0.0688976 0.0646627 0.0940835 0.0753185 0.0805964
45 2 Si 2.17861 9.14704 4.4844 2.4 1 0.0290081 0.0130952 0.0243506 0.0215431 0.0298961 0.033867 0.0625754 0.0234874 0.0492067 0.0544827 0.0542849 0.0618582 0.0630109 0.0594751 0.0786339 0.0715167 0.0499875 0.0923569 0.0512978 0.0574242
46 3 O 2.18828 10.7603 4.4844 -1.2 1 0.0196166 0.0127023 0.00687737 0.017115 0.029935 0.0210665 0.0460661 0.0617482 0.03848 0.0524766 0.0384446 0.073882 0.04828 0.0654817 0.0692605 0.0729044 0.0492658 0.0736355 0.064623 0.0717356
47 3 O -4.43805 8.17302 4.4844 -1.2 1 0.0164506 0.0132998 0.0193053 0.021606 0.0235614 0.0546272 0.038606 0.0464347 0.0443021 0.0498786 0.0358669 0.0520149 0.0527381 0.0715478 0.0994925 0.0725486 0.078423 0.0544165 0.0750529 0.0746491
48 3 O 2.89193 8.44087 3.18632 -1.2 1 0.0215224 0.0193978 0.0174153 0.0150015 0.0204128 0.0410311 0.0342627 0.0547463 0.043851 0.049451 0.057392 0.0511575 0.0513706 0.0515175 0.0789553 0.0639187 0.07057 0.0599999 0.0672671 0.0749218
49 1 Mg 1.25915 7.12349 0 1.2 1 0.0186932 0.0175967 0.0282995 0.0150861 0.0318366 0.0250813 0.0501615 0.0402129 0.056058 0.0494792 0.0537776 0.042546 0.0715436 0.0515879 0.0683302 0.0706275 0.0638096 0.0713265 0.0795019 0.0590282
50 3 O 2.84547 8.44087 5.78248 -1.2 1 0.0126818 0.0138894 0.0149827 0.0212485 0.0210403 0.0218366 0.0467134 0.0457806 0.0389377 0.0420177 0.060163 0.0408379 0.0553654 0.0618466 0.0836927 0.0653013 0.0695079 0.0608179 0.0672778 0.0749311
51 1 Mg -1.59284 7.16481 1.4948 1.2 1 0.00964265 0.0166157 0.0203196 0.0207632 0.0147743 0.0372355 0.0463215 0.0426347 0.0427531 0.0578482 0.0381129 0.0648808 0.0522197 0.069933 0.0761546 0.0603984 0.0687334 0.0844944 0.0735886 0.0789281
52 2 Si 0.240329 5.09994 1.4948 2.4 1 0.0245721 0.0170892 0.0161705 0.0433246 0.0274537 0.0404314 0.0468754 0.0533617 0.054755 0.0488429 0.0455952 0.0571564 0.0593544 0.067992 0.0656179 0.0667816 0.0638235 0.0724313 0.0665693 0.0679016
53 3 O 0.234538 3.48671 1.4948 -1.2 1 0.0130181 0.0166012 0.0263432 0.0360974 0.0310058 0.0488852 0.0458775 0.0425126 0.0526059 0.0472297 0.0518023 0.0617778 0.0561395 0.06049 0.0613401 0.0631956 0.0626966 0.0576841 0.0754978 0.075045
54 3 O 6.85564 6.07396 1.4948 -1.2 1 0.0324601 0.0194932 0.0346894 0.0276545 0.037142 0.0402795 0.0325 0.0621587 0.0367071 0.0529375 0.053677 0.0533038 0.0554076 0.0736145 0.070107 0.0771822 0.0663382 0.0723765 0.0534702 0.0852059
55 3 O -0.429565 5.80612 0.196716 -1.2 1 0.0314773 0.0222069 0.019682 0.0240124 0.0411469 0.0371402 0.0532231 0.0435025 0.0450237 0.0563949 0.0400138 0.0412504 0.0530789 0.0588842 0.0591602 0.0677162 0.0693604 0.0614166 0.0643841 0.0746892
56 3 O -0.473377 5.80612 2.79288 -1.2 1 0.0239443 0.0230274 0.0354663 0.0185724 0.0341716 0.0475049 0.0501022 0.0496208 0.0550432 0.0451939 0.0615813 0.0396067 0.0433276 0.060146 0.065695 0.0715563 0.0656544 0.0704305 0.0727907 0.0787688
57 1 Mg 6.40169 9.49799 0 1.2 1 0.0128284 0.0114015 0.0212412 0.0137355 0.0303188 0.0209986 0.0521887 0.0357912 0.0590309 0.0489246 0.0500891 0.0352787 0.0670306 0.0524766 0.0711234 0.0674008 0.0649256 0.0708268 0.0807861 0.0687972
58 1 Mg 3.64209 14.2057 1.4948 1.2 1 0.0153369 0.00938321 0.0187933 0.0185905 0.0210188 0.0335585 0.0360381 0.0435039 0.0415387 0.0551443 0.0404054 0.0650929 0.0527318 0.0659455 0.070972 0.0638733 0.0656053 0.08231 0.0744981 0.0775012
59 2 Si 5.45748 11.5215 1.4948 2.4 1 0.0120096 0.0218507 0.0233044 0.0247033 0.0179294 0.0401072 0.0397197 0.0401844 0.0437604 0.054588 0.0423103 0.0609091 0.053105 0.0659999 0.0697067 0.0633237 0.0710073 0.0820088 0.0577902 0.0659817
60 3 O 5.51101 13.1348 1.4948 -1.2 1 0.025241 0.0151228 0.0219541 0.0307107 0.0175276 0.0441101 0.0436238 0.0586471 0.0363609 0.049736 0.0438415 0.0662889 0.0527514 0.051818 0.0630075 0.0594578 0.0704628 0.0582462 0.0685657 0.0736707
61 3 O 1.83851 10.5475 1.4948 -1.2 1 0.0351927 0.0141878 0.0217517 0.0140448 0.0363502 0.0302262 0.0364894 0.0588188 0.0399254 0.0486014 0.0499838 0.0516376 0.0468599 0.0746365 0.0754831 0.0800661 0.056328 0.0759073 0.0575962 0.0789662
62 3 O 4.7611 10.8154 0.196716 -1.2 1 0.0357869 0.0194077 0.0200963 0.0181858 0.0265405 0.0441215 0.0485037 0.0373706 0.038796 0.0489635 0.0369662 0.040727 0.0605684 0.0609663 0.0651249 0.0715112 0.0754817 0.065708 0.0733114 0.0680739
63 1 Mg 6.35203 9.49799 2.9896 1.2 1 0.0143109 0.019619 0.0247043 0.018957 0.0229095 0.0369331 0.039252 0.0539925 0.0336588 0.0604135 0.0323653 0.0644537 0.029579 0.0647423 0.0477007 0.0812344 0.0460376 0.0897006 0.0452449 0.0893308
64 3 O 4.71833 10.8154 2.79288 -1.2 1 0.0218861 0.0127504 0.0323983 0.0129186 0.0295197 0.0437388 0.0434633 0.0451243 0.0437315 0.038072 0.052447 0.0438894 0.0540895 0.0600262 0.0740492 0.0684305 0.0724949 0.0608193 0.0691811 0.0802199
65 1 Mg -1.0438 9.53931 4.4844 1.2 1 0.0123751 0.0184081 0.0133115 0.0230242 0.0263707 0.0296274 0.0390142 0.0346075 0.0460027 0.0502898 0.0551704 0.0567164 0.0666858 0.07122 0.061579 0.0697318 0.0694476 0.0954445 0.0707651 0.086629
66 2 Si -2.8604 12.2234 4.4844 2.4 1 0.0184294 0.0118049 0.0155687 0.0270164 0.0306238 0.0417627 0.0596125 0.0310507 0.0536686 0.0616685 0.056904 0.0622255 0.0582561 0.0561622 0.0780289 0.0741065 0.0491469 0.0911229 0.0530136 0.0591673
67 3 O -2.91391 10.6102 4.4844 -1.2 1 0.0181515 0.0130508 0.00912767 0.023 0.0285104 0.0230923 0.0456623 0.0638921 0.0402031 0.0518358 0.0377742 0.0708659 0.0434883 0.0598221 0.0677455 0.0749653 0.0475538 0.0731148 0.0622997 0.0759743
68 3 O 0.7596 13.1975 4.4844 -1.2 1 0.0194265 0.0248678 0.0200959 0.0162929 0.0205951 0.0501442 0.0367451 0.0503035 0.0435305 0.0517339 0.0390802 0.0489924 0.0490556 0.0708057 0.0994087 0.0638436 0.0762538 0.0560061 0.0777848 0.0718851
69 3 O -2.12001 12.9296 3.18632 -1.2 1 0.01744 0.00884726 0.0201149 0.016985 0.0202986 0.039329 0.0420026 0.0562631 0.0458897 0.051787 0.0546919 0.0487429 0.0564832 0.0505044 0.0809639 0.0642628 0.071903 0.0630621 0.064912 0.069789
70 3 O -2.16532 12.9296 5.78248 -1.2 1 0.0126206 0.00803683 0.0219896 0.0224163 0.0174125 0.0285877 0.0437096 0.0495257 0.0392038 0.04061 0.0559631 0.0407653 0.0561567 0.0587019 0.0840408 0.0696118 0.0692912 0.0623498 0.0679162 0.078482
71 1 Mg 1.29891 11.8725 2.9896 1.2 1 0.00672567 0.0155319 0.0221746 0.0221583 0.017417 0.0387631 0.0369397 0.0508528 0.0360476 0.0613336 0.0341463 0.0596529 0.0259342 0.0668742 0.0503266 0.0823729 0.0491082 0.0887303 0.0467024 0.0876499
72 1 Mg 4.10033 11.8312 4.4844 1.2 1 0.00636964 0.0122661 0.019659 0.0254555 0.0309002 0.0293375 0.0417883 0.0334573 0.0477968 0.0548357 0.0551471 0.0558839 0.0685103 0.0671308 0.0539008 0.0696685 0.0693189 0.0992736 0.0755688 0.0772693
73 2 Si 2.27333 13.896 4.4844 2.4 1 0.0263707 0.00634153 0.022701 0.0266164 0.0293042 0.0369019 0.0625389 0.0291039 0.0507785 0.0589272 0.053659 0.0628219 0.0634701 0.0565002 0.0749144 0.0671635 0.0482649 0.0973219 0.0535459 0.0587311
74 3 O 2.28634 15.5093 4.4844 -1.2 1 0.0181161 0.0154307 0.00626302 0.0164017 0.0272801 0.023379 0.0432222 0.0578653 0.0419404 0.0546304 0.0414598 0.0733702 0.0444658 0.0647508 0.070347 0.0704658 0.0478483 0.0709533 0.066365 0.0771462
75 3 O -4.34533 12.922 4.4844 -1.2 1 0.0215121 0.0227016 0.0202569 0.0154211 0.0218016 0.0527609 0.0332767 0.0485718 0.0443728 0.0509035 0.0400549 0.0550825 0.0509879 0.0689639 0.0993334 0.0639698 0.0779113 0.0509502 0.077537 0.0709631
76 3 O 2.98455 13.1899 3.18632 -1.2 1 0.0254286 0.0107609 0.0198096 0.0129077 0.019888 0.0390643 0.0386456 0.05721 0.0437412 0.053539 0.0542125 0.0498435 0.0514839 0.0517126 0.0817927 0.061087 0.0659983 0.0619696 0.0641007 0.0715677
77 1 Mg 1.34779 11.8725 0 1.2 1 0.0219062 0.00925706 0.0218188 0.0145536 0.0287139 0.0222895 0.0515947 0.0346271 0.0576593 0.0506228 0.0497109 0.0353864 0.0654439 0.0506227 0.0709127 0.0644363 0.0610372 0.0705599 0.0870838 0.0601981
78 3 O 2.93934 13.1899 5.78248 -1.2 1 0.0174567 0.0126788 0.0179374 0.0222649 0.0166382 0.0279462 0.0487042 0.0473118 0.0448152 0.0401888 0.0565391 0.0374736 0.0548038 0.062711 0.0866649 0.0604216 0.0686806 0.0620233 0.0663926 0.0760458
79 1 Mg -1.50344 11.9138 1.4948 1.2 1 0.00825863 0.0211224 0.0215746 0.0224492 0.0138124 0.0372107 0.0387104 0.0418798 0.0404016 0.0594517 0.0347739 0.0672836 0.0516583 0.0645903 0.0751565 0.0682545 0.0634527 0.0846656 0.0774962 0.0786449
80 2 Si 0.326006 9.84894 1.4948 2.4 1 0.0248899 0.0192786 0.0250115 0.0303034 0.0170833 0.0387233 0.0441135 0.0374379 0.0448868 0.0559245 0.0404851 0.0585649 0.0549971 0.0676601 0.0610274 0.0636358 0.070467 0.0801244 0.0617939 0.0688443
81 3 O 0.317364 8.23571 1.4948 -1.2 1 0.022202 0.0125696 0.0225076 0.0238108 0.0202911 0.0451404 0.0430423 0.0497573 0.0349931 0.0543097 0.0441126 0.0668214 0.0571714 0.0587286 0.0678139 0.0682263 0.0711751 0.0534077 0.0735392 0.0748722
82 3 O 6.94307 10.823 1.4948 -1.2 1 0.0357421 0.0150237 0.0212333 0.0089932 0.0368071 0.0337616 0.0389846 0.0564549 0.0340538 0.0470859 0.0516135 0.0530314 0.0508427 0.0732651 0.0721687 0.0789476 0.0621233 0.0733423 0.0579894 0.0801281
83 3 O -0.343122 10.5551 0.196716 -1.2 1 0.0308715 0.017431 0.0214772 0.0208883 0.0298374 0.0414748 0.0512532 0.0399285 0.0387991 0.050591 0.0370962 0.0377533 0.061823 0.0613187 0.0685772 0.0712367 0.0809999 0.0539176 0.0701081 0.0692465
84 3 O -0.385966 10.5551 2.79288 -1.2 1 0.0228907 0.015355 0.0327619 0.0117119 0.0322137 0.0441089 0.0459741 0.044787 0.0448641 0.0384493 0.0529476 0.0486072 0.0498277 0.0573884 0.0701596 0.0711047 0.0663377 0.0603412 0.0703703 0.0773933
85 1 Mg 6.49448 14.247 0 1.2 1 0.0227759 0.00952234 0.0188328 0.0166128 0.0287739 0.0228336 0.0483618 0.0331544 0.0596011 0.0480011 0.0509991 0.037664 0.0627692 0.0526854 0.072007 0.0652351 0.0643589 0.0707741 0.0844161 0.0704672
86 1 Mg 3.74457 18.9547 1.4948 1.2 1 0.0149506 0.0107542 0.0153284 0.0159747 0.0258928 0.0292975 0.0313522 0.0392934 0.0381847 0.0577964 0.0437185 0.0671307 0.0506862 0.0662384 0.0705249 0.0698524 0.0628184 0.0830215 0.0782115 0.07607
87 2 Si 5.55495 16.2705 1.4948 2.4 1 0.0119834 0.0199376 0.0220639 0.0271956 0.0185071 0.0425569 0.036807 0.0419491 0.0457725 0.0523243 0.0436526 0.0605587 0.0537257 0.0641592 0.0696115 0.0596371 0.0723507 0.0793749 0.0601725 0.0701961
88 3 O 5.6115 17.8838 1.4948 -1.2 1 0.0268926 0.0181996 0.0234285 0.0255081 0.0194986 0.0436285 0.0450835 0.0609404 0.0371602 0.0501901 0.038091 0.0670298 0.0512407 0.0561372 0.0644965 0.0576097 0.0656031 0.0613771 0.06356 0.0690782
89 3 O 1.93416 15.2965 1.4948 -1.2 1 0.0414516 0.0156989 0.0193093 0.00992736 0.0353172 0.0313544 0.0363058 0.0579185 0.0419249 0.046595 0.0486913 0.0501872 0.046573 0.0734091 0.0800842 0.0764885 0.0602357 0.0737636 0.0626742 0.0760298
90 3 O 4.85636 15.5644 0.196716 -1.2 1 0.0224654 0.0133266 0.0243138 0.0209706 0.0234607 0.0520426 0.051117 0.040069 0.0394948 0.0452792 0.0374427 0.0327275 0.0637408 0.0540621 0.0657041 0.0678496 0.0745319 0.0630146 0.0726552 0.068882
91 1 Mg 6.44662 14.247 2.9896 1.2 1 0.0100598 0.0182562 0.0229456 0.0216537 0.0192703 0.0345668 0.0385058 0.0539347 0.0356795 0.0575962 0.0322988 0.0629429 0.0239096 0.0675616 0.0452389 0.0771553 0.0458059 0.0924435 0.0454052 0.0924885
92 3 O 4.81537 15.5644 2.79288 -1.2 1 0.0112455 0.010253 0.0293535 0.0131967 0.0282598 0.0372798 0.047005 0.0476565 0.0459064 0.0400084 0.0512986 0.0423261 0.0532486 0.0554431 0.0755287 0.0663746 0.0767221 0.0526861 0.071854 0.0751565
93 1 Mg -0.948271 14.2883 4.4844 1.2 1 0.0160298 0.0117007 0.0139437 0.0287665 0.0241129 0.0288907 0.0379636 0.0356418 0.0432964 0.0490225 0.0582848 0.0597003 0.0652822 0.066925 0.060716 0.0702017 0.0712013 0.0950034 0.073552 0.0809863
94 2 Si -2.75928 16.9724 4.4844 2.4 1 0.02757 0.0149584 0.02323 0.0251745 0.0281398 0.0412268 0.0549926 0.0348533 0.0521366 0.0647147 0.0525027 0.0675133 0.057134 0.056511 0.0767501 0.0741689 0.0489329 0.092954 0.0500845 0.0646383
95 3 O -2.81617 15.3592 4.4844 -1.2 1 0.0170781 0.0141593 0.0136083 0.023917 0.0314082 0.0225994 0.045712 0.0644735 0.0435797 0.0504745 0.0367859 0.0706778 0.0477581 0.0578475 0.0685105 0.0706911 0.0511856 0.0737667 0.063132 0.073648
96 3 O 0.862762 17.9465 4.4844 -1.2 1 0.0102185 0.0229131 0.0226052 0.0183109 0.0206166 0.0476944 0.0349635 0.0551568 0.0470626 0.0520552 0.0405511 0.0487016 0.0452367 0.0714491 0.106684 0.055931 0.0721089 0.0533506 0.0736424 0.0684073
97 3 O -2.0185 17.6786 3.18632 -1.2 1 0.0247818 0.0108032 0.0190683 0.0189295 0.01763 0.0368847 0.040918 0.0538688 0.0422362 0.0535471 0.0516346 0.0515953 0.0552106 0.0464571 0.080989 0.05967 0.0689814 0.0664061 0.0662325 0.0680433
98 3 O -2.06164 17.6786 5.78248 -1.2 1 0.0141239 0.0112316 0.0218386 0.0208574 0.0172886 0.0306878 0.0459107 0.0484058 0.0376808 0.039726 0.0572756 0.0387363 0.0577641 0.0567517 0.0866203 0.0710573 0.0673354 0.0643783 0.0692772 0.0764065
99 1 Mg 1.39817 16.6215 2.9896 1.2 1 0.00948674 0.015531 0.0193365 0.0211644 0.0204346 0.0364367 0.0375953 0.0541706 0.0359584 0.0606275 0.0359325 0.0569394 0.0245079 0.0676488 0.0473816 0.0801995 0.0486067 0.0917003 0.0447151 0.0879755
100 1 Mg 4.20062 16.5802 4.4844 1.2 1 0.0169207 0.0155219 0.0155154 0.026485 0.0234198 0.0307286 0.0425338 0.0335626 0.0448082 0.0530022 0.0535408 0.0531644 0.0672411 0.0707798 0.0514284 0.0717707 0.0721718 0.0964581 0.0728487 0.0825173
101 2 Si 2.37796 18.645 4.4844 2.4 1 0.0231445 0.00967274 0.019378 0.0228185 0.0244641 0.0367342 0.0609942 0.0300426 0.0547637 0.0605557 0.0482586 0.056383 0.0601669 0.0576451 0.0716841 0.0685201 0.0484115 0.0995945 0.05529 0.0572398
102 3 O 2.39434 20.2583 4.4844 -1.2 1 0.0206445 0.0131736 0.00628493 0.0160505 0.0241876 0.0221808 0.0424732 0.0618655 0.044604 0.0527799 0.0419744 0.0723758 0.0502203 0.0602078 0.0696038 0.0671818 0.0472198 0.0685098 0.0675571 0.080566
103 3 O -4.24274 17.671 4.4844 -1.2 1 0.0105509 0.0184807 0.0240577 0.0195694 0.018785 0.0494173 0.0335806 0.0495738 0.0438509 0.0515924 0.0391421 0.0525328 0.0499204 0.0698144 0.10271 0.0627259 0.0783706 0.0550148 0.0775977 0.0730263
104 3 O 3.08659 17.9389 3.18632 -1.2 1 0.0253098 0.0138025 0.0197042 0.0114022 0.0184123 0.0395605 0.0379789 0.0559991 0.0454246 0.0508182 0.0566863 0.0472525 0.0511535 0.0498265 0.0793817 0.0594813 0.0676454 0.0591063 0.0630843 0.0693168
105 1 Mg 1.44478 16.6215 0 1.2 1 0.00735432 0.015418 0.0239226 0.0124955 0.0282367 0.0304648 0.0484518 0.035624 0.051926 0.0493793 0.0525707 0.0382416 0.0591854 0.0474696 0.0686045 0.0657164 0.0581696 0.0686813 0.0889091 0.0631048
106 3 O 3.0436 17.9389 5.78248 -1.2 1 0.0148973 0.014755 0.0229726 0.016134 0.0145279 0.0293797 0.0475274 0.0477297 0.0409682 0.040506 0.0592342 0.0398837 0.0563852 0.0680823 0.0859239 0.0663841 0.0714607 0.0646162 0.0640925 0.0817113
107 1 Mg -1.40524 16.6628 1.4948 1.2 1 0.0116162 0.012524 0.0256682 0.0176376 0.0173401 0.0344902 0.0361465 0.0427273 0.0416387 0.0604501 0.0407966 0.0626267 0.0547447 0.0643155 0.0735306 0.0691957 0.064178 0.0777865 0.0784707 0.0759024
108 2 Si 0.420358 14.5979 1.4948 2.4 1 0.0224946 0.0192366 0.0290189 0.0260566 0.0176707 0.0385627 0.0391487 0.0418389 0.0443707 0.055183 0.0426847 0.0614226 0.0575358 0.0634252 0.0670386 0.0592536 0.0719263 0.0766027 0.0625281 0.071114
109 3 O 0.408732 12.9847 1.4948 -1.2 1 0.024253 0.0161106 0.021598 0.0275387 0.0156419 0.048084 0.0422895 0.0536178 0.0355865 0.0522635 0.0433445 0.0682975 0.0532049 0.0555662 0.0642069 0.0618488 0.0723034 0.0546647 0.068029 0.0725379
110 3 O 7.03923 15.572 1.4948 -1.2 1 0.0292668 0.0169445 0.0217044 0.0130338 0.0361039 0.0342459 0.036605 0.0560604 0.0390011 0.0447199 0.0514191 0.0526781 0.0474871 0.0744133 0.0776534 0.0785219 0.0642749 0.0694369 0.061775 0.0783385
111 3 O -0.248332 15.3041 0.196716 -1.2 1 0.0154138 0.0150067 0.0221032 0.0197577 0.0255538 0.0468062 0.0489248 0.0423058 0.0379071 0.0441785 0.0389344 0.0301824 0.0601775 0.0537563 0.0686504 0.0634683 0.0819329 0.0496038 0.0702797 0.073722
112 3 O -0.289436 15.3041 2.79288 -1.2 1 0.0185142 0.0156114 0.0270216 0.0101555 0.0316806 0.037052 0.0436175 0.0483872 0.0438865 0.0401566 0.0544195 0.048869 0.0508416 0.0514847 0.0715612 0.0680396 0.070797 0.055102 0.069553 0.0761572
113 1 Mg 6.59566 18.996 0 1.2 1 0.0138893 0.0115015 0.0197338 0.0143186 0.0261455 0.0309377 0.0430237 0.0329819 0.0544113 0.0487441 0.0547531 0.0393045 0.0521122 0.0529882 0.0719581 0.064399 0.0641468 0.0649967 0.0862539 0.0701931
114 1 Mg 3.85574 23.7037 1.4948 1.2 1 0.0139431 0.0198554 0.0178133 0.0170384 0.0225539 0.0287854 0.0325388 0.036099 0.0387554 0.0622011 0.0453469 0.06206 0.0495759 0.0673416 0.0614696 0.0735526 0.0654063 0.0788238 0.0788007 0.07387
115 2 Si 5.66125 21.0195 1.4948 2.4 1 0.0086312 0.0227911 0.0247668 0.027344 0.0200149 0.0457473 0.0337047 0.0434755 0.0473001 0.0539738 0.0442166 0.0616343 0.0557359 0.0597977 0.0710061 0.0604524 0.0734688 0.0775142 0.0649686 0.0751147
116 3 O 5.72074 22.6328 1.4948 -1.2 1 0.0283736 0.0185832 0.0182168 0.0225143 0.0195504 0.0442683 0.0455999 0.0619902 0.0387391 0.0525059 0.0329314 0.0695335 0.0488088 0.0533326 0.0674747 0.0560699 0.0648224 0.0679716 0.0564365 0.0718205
117 3 O 2.03867 20.0455 1.4948 -1.2 1 0.0300033 0.0164877 0.0268848 0.0159759 0.0342024 0.0298859 0.0362799 0.0546694 0.0436321 0.0423265 0.0507145 0.0502916 0.0483073 0.0740988 0.0849968 0.0731698 0.0618461 0.0682859 0.0638403 0.0733912
118 3 O 4.96004 20.3134 0.196716 -1.2 1 0.0242564 0.0103414 0.0243023 0.0197568 0.0223327 0.0456534 0.0450435 0.04796 0.0403942 0.0422396 0.0404235 0.0353138 0.0652824 0.047611 0.0697944 0.0736344 0.0704021 0.0582047 0.0704716 0.0715012
119 1 Mg 6.55057 18.996 2.9896 1.2 1 0.0117024 0.01805 0.0162757 0.0182794 0.0217628 0.0317069 0.0389538 0.0561653 0.0350092 0.0614408 0.0357351 0.0615973 0.0224572 0.067165 0.0447459 0.0729079 0.0437183 0.0944565 0.0458279 0.092607
120 3 O 4.92172 20.3134 2.79288 -1.2 1 0.0166939 0.00910967 0.0259608 0.016021 0.029324 0.0409388 0.0459939 0.0479656 0.0435326 0.0445863 0.0510439 0.0392246 0.0515651 0.0531353 0.0763301 0.0666574 0.0773119 0.048553 0.0714568 0.0760243
121 1 Mg -0.84282 19.0373 4.4844 1.2 1 0.0146058 0.0124795 0.0134619 0.0276743 0.0238346 0.0266347 0.0373799 0.0324222 0.0443112 0.0506393 0.0581374 0.0562364 0.0652738 0.0702995 0.0585988 0.071673 0.0724039 0.0943255 0.0754709 0.0827451
122 2 Si -2.64823 21.7214 4.4844 2.4 1 0.0223405 0.0143497 0.0200011 0.0245807 0.0287441 0.0403447 0.05225 0.0324782 0.0548621 0.0636486 0.0514633 0.0657606 0.0588091 0.0559328 0.0724319 0.0716865 0.0470116 0.0924383 0.0499634 0.0635086
123 3 O -2.70847 20.1082 4.4844 -1.2 1 0.0165071 0.018738 0.0148744 0.024391 0.0270379 0.0286673 0.0377365 0.0685042 0.0434575 0.0512198 0.0370556 0.0718699 0.0515141 0.0596857 0.0664073 0.0654467 0.0537796 0.0741902 0.0642367 0.0765365
124 3 O 0.97581 22.6955 4.4844 -1.2 1 0.0234961 0.023272 0.019089 0.0190685 0.0196666 0.0429577 0.0311039 0.0509259 0.0447691 0.0562006 0.0377061 0.0463486 0.0467803 0.072583 0.103603 0.0530692 0.0677469 0.0554418 0.0747869 0.067307
125 3 O -1.9076 22.4276 3.18632 -1.2 1 0.0215693 0.0085088 0.0207179 0.0178751 0.0131296 0.0369493 0.04448 0.0550807 0.0363405 0.0502071 0.0552244 0.04856 0.0559442 0.0481405 0.0808023 0.0575369 0.0681659 0.0666714 0.0638344 0.0655218
126 3 O -1.9475 22.4276 5.78248 -1.2 1 0.0140197 0.0151613 0.0236924 0.0246119 0.0197503 0.0231293 0.0486417 0.0432178 0.038879 0.0422297 0.0571141 0.0382431 0.0551696 0.0561424 0.0797148 0.071441 0.0685771 0.0671266 0.0687436 0.0715043