ITEM: TIMESTEP
85200
ITEM: NUMBER OF ATOMS
10500
ITEM: BOX BOUNDS xy xz yz pp pp pp
0	15.2977	5.09925
0	118.725	0
0	89.688	0
ITEM: ATOMS id type element xu yu zu q Q_1 Q_2 Q_3 Q_4 Q_5 Q_6 Q_7 Q_8 Q_9 Q_10 Q_11 Q_12 Q_13 Q_14 Q_15 Q_16 Q_17 Q_18 Q_19 Q_20 Q_21
1 1 Mg 6.2404 -6.37941e-06 0 1.2 1 0.0136003 0.0408108 0.0296756 0.0359617 0.0334656 0.0412367 0.0356583 0.0684996 0.0389326 0.0715522 0.0336726 0.0591173 0.0460326 0.068125 0.0497492 0.0926493 0.0510778 0.0843477 0.0518165 0.102163
2 1 Mg 3.46349 4.70768 1.4948 1.2 1 0.0169002 0.0166607 0.0245902 0.021519 0.0204266 0.0421707 0.0422739 0.0399895 0.0461951 0.0559443 0.042983 0.0703155 0.0574983 0.0708434 0.072163 0.0639195 0.0677616 0.0857025 0.0726664 0.0817594
3 2 Si 5.2885 2.02354 1.4948 2.4 1 0.0200338 0.0220384 0.0338398 0.0286631 0.0300877 0.0375372 0.0537825 0.0325583 0.0440911 0.0536825 0.0549175 0.0622337 0.0552593 0.0647811 0.0678351 0.0796266 0.0707017 0.0641897 0.0640003 0.0729716
4 3 O 5.33628 3.63678 1.4948 -1.2 1 0.00939681 0.0140998 0.0267622 0.0261322 0.018409 0.0390283 0.0418643 0.0603353 0.0355421 0.040518 0.0543458 0.0507081 0.0676965 0.0579195 0.0584117 0.0643597 0.0599902 0.0617471 0.0714445 0.0743155
5 3 O 1.67294 1.04952 1.4948 -1.2 1 0.0164754 0.0221885 0.0236721 0.0357862 0.0297546 0.0384638 0.0343886 0.0606544 0.035136 0.0589295 0.0439293 0.0520822 0.0720313 0.0591802 0.0763149 0.0689208 0.0628277 0.0643357 0.0801457 0.0596346
6 3 O 4.59532 1.31737 0.196716 -1.2 1 0.0261967 0.0206175 0.0584813 0.0243711 0.0326611 0.049319 0.038362 0.0464928 0.0332316 0.0389061 0.0387735 0.0512476 0.0548101 0.0569456 0.063981 0.0693576 0.0625531 0.0706242 0.0585198 0.0695258
7 1 Mg 6.18956 -6.37941e-06 2.9896 1.2 1 0.0157082 0.0283635 0.0152064 0.0215381 0.0346887 0.0452315 0.0507579 0.0431192 0.0491293 0.0450447 0.0389375 0.0552957 0.0396677 0.0555791 0.0592667 0.0786383 0.055413 0.0683666 0.0593725 0.0718253
8 3 O 4.55118 1.31737 2.79288 -1.2 1 0.0199732 0.0248381 0.0356019 0.0157577 0.0273865 0.0432844 0.0441022 0.0476254 0.0430724 0.051493 0.054208 0.0493023 0.0467242 0.066135 0.0541821 0.0700469 0.0653864 0.066881 0.068546 0.0672562
9 1 Mg -1.20682 0.0413099 4.4844 1.2 1 0.0188255 0.0281323 0.0226335 0.0276853 0.0384696 0.0404417 0.0307822 0.0529953 0.0555027 0.0384361 0.0468804 0.0605742 0.0682694 0.0589084 0.0755692 0.0598539 0.083572 0.0770348 0.0639518 0.0512227
10 2 Si -3.0337 2.72544 4.4844 2.4 1 0.0245964 0.0170034 0.0213065 0.0202379 0.0343677 0.0385715 0.0649497 0.0303256 0.0609345 0.049235 0.0493334 0.0622746 0.0543771 0.0761915 0.0566882 0.0613183 0.0714979 0.0822861 0.0730736 0.0599234
11 3 O -3.08099 1.11221 4.4844 -1.2 1 0.010106 0.0261227 0.0253052 0.0255207 0.0405149 0.0289675 0.0513636 0.0491889 0.0368687 0.0375628 0.0392439 0.0708233 0.0528451 0.0522465 0.0534111 0.068642 0.0549595 0.0833732 0.0724737 0.0771213
12 3 O 0.582463 3.69946 4.4844 -1.2 1 0.0056952 0.0111859 0.0321042 0.0280553 0.0240152 0.0655215 0.0273044 0.0528664 0.0448405 0.0391544 0.0515368 0.0559774 0.0611029 0.068407 0.0999427 0.0683482 0.0808311 0.0439328 0.0745528 0.0644223
13 3 O -2.29524 3.43162 3.18632 -1.2 1 0.0123413 0.0194437 0.0257725 0.0317963 0.0205614 0.0495124 0.0520165 0.0491046 0.042003 0.0517706 0.0591384 0.0536987 0.0415538 0.053475 0.058836 0.0652838 0.0651053 0.0623231 0.0632705 0.0727729
14 3 O -2.34216 3.43162 5.78248 -1.2 1 0.0185948 0.00632373 0.0234396 0.0298286 0.0294349 0.0393513 0.0576911 0.0450988 0.0368657 0.0590466 0.0567638 0.0476806 0.0534561 0.0515549 0.0759879 0.0735093 0.0612049 0.0738899 0.0729963 0.0733365
15 1 Mg 1.12778 2.37449 2.9896 1.2 1 0.0156809 0.0429361 0.0152988 0.0229465 0.0263267 0.0403895 0.040061 0.050466 0.0376138 0.0620008 0.0392806 0.0615249 0.0401474 0.0693586 0.0615399 0.0698012 0.0666534 0.0811649 0.0466101 0.0881947
16 1 Mg 3.92855 2.33318 4.4844 1.2 1 0.0291215 0.0172267 0.0251802 0.0292643 0.0447501 0.0249125 0.0384301 0.0392244 0.0471482 0.0696651 0.0532295 0.0600239 0.0504578 0.0599844 0.0561705 0.0737351 0.0625907 0.0941867 0.0753704 0.0858456
17 2 Si 2.09341 4.39804 4.4844 2.4 1 0.013587 0.0207289 0.03395 0.014652 0.0424014 0.0289933 0.0629732 0.0204707 0.0434588 0.0476027 0.0619483 0.0602889 0.0673575 0.0600714 0.073517 0.0738324 0.0724261 0.0802862 0.0492293 0.0665644
18 3 O 2.09991 6.01128 4.4844 -1.2 1 0.0114391 0.0092936 0.0171022 0.0209132 0.033411 0.0221998 0.050639 0.0489341 0.0474243 0.0444141 0.0481085 0.0656321 0.0459612 0.0621103 0.0662914 0.0725967 0.0457794 0.0826714 0.0656709 0.0728624
19 3 O -4.52137 3.42402 4.4844 -1.2 1 0.0188828 0.0250095 0.0373843 0.021831 0.0241212 0.0575581 0.0389934 0.0498067 0.0516019 0.056655 0.0338132 0.0565064 0.0532222 0.0567393 0.0905641 0.0721417 0.0777069 0.0610131 0.0761999 0.0576527
20 3 O 2.80834 3.69187 3.18632 -1.2 1 0.0115043 0.0201598 0.0211367 0.0258479 0.0212438 0.0389569 0.0345644 0.0490062 0.044512 0.0589029 0.0659916 0.0520865 0.0420658 0.0636028 0.0715516 0.0727244 0.0600783 0.0598397 0.0706982 0.0713598
21 1 Mg 1.17857 2.37449 0 1.2 1 0.0125084 0.0373883 0.0291157 0.0302095 0.0381597 0.0403561 0.0458413 0.0591053 0.036665 0.0482354 0.0527354 0.041438 0.043867 0.0682573 0.054076 0.0659385 0.0609223 0.0803095 0.0569734 0.0726786
22 3 O 2.76143 3.69187 5.78248 -1.2 1 0.0150605 0.0264445 0.0227025 0.023388 0.0189167 0.0388552 0.0329473 0.0524619 0.0351769 0.0474717 0.056896 0.0487457 0.05723 0.0753548 0.0743617 0.0710949 0.0709928 0.0601729 0.0734354 0.0746952
23 1 Mg -1.67381 2.41581 1.4948 1.2 1 0.0112509 0.0116369 0.0370379 0.0362888 0.0326409 0.0438636 0.0591936 0.0399431 0.0511948 0.0407537 0.0457983 0.0588032 0.0549183 0.0643519 0.0608208 0.0639165 0.0831465 0.0781789 0.0662033 0.0734524
24 2 Si 0.16286 0.350945 1.4948 2.4 1 0.0159255 0.0359405 0.0278596 0.0281782 0.0339597 0.0353235 0.0556641 0.0481777 0.0528189 0.0493819 0.0397998 0.0556621 0.0736543 0.070719 0.0597125 0.0743796 0.0721731 0.0650791 0.0727715 0.0654908
25 3 O 0.15972 -1.26229 1.4948 -1.2 1 0.00916581 0.0155419 0.0397323 0.0212006 0.0373944 0.0357704 0.0454517 0.0564351 0.0469056 0.0514409 0.0556455 0.0557948 0.0632251 0.0666714 0.0493942 0.0595808 0.0693455 0.0663289 0.0622799 0.0740022
26 3 O 6.77654 1.32496 1.4948 -1.2 1 0.0143883 0.0258876 0.0261431 0.0260871 0.0360575 0.053036 0.0347927 0.0629077 0.0487712 0.0472498 0.0433404 0.0517942 0.0541016 0.0606293 0.0682319 0.0709856 0.08391 0.0627694 0.0591629 0.0728612
27 3 O -0.508028 1.05712 0.196716 -1.2 1 0.0278309 0.0168759 0.0327075 0.0186572 0.0318628 0.0528008 0.0450767 0.0443165 0.0468092 0.0470277 0.0502023 0.0505157 0.0491448 0.0632697 0.0552769 0.0619019 0.0642813 0.0596603 0.0722234 0.0723621
28 3 O -0.552171 1.05712 2.79288 -1.2 1 0.0346897 0.0278384 0.0326094 0.0310966 0.0232103 0.0459296 0.0416696 0.0453773 0.0435015 0.0337608 0.0497774 0.0504168 0.0612396 0.0625785 0.0658871 0.0779439 0.070588 0.0503139 0.0723506 0.0699654
29 1 Mg 6.31713 4.74899 0 1.2 1 0.0260628 0.0316607 0.0321211 0.0351189 0.0320455 0.0233355 0.0400526 0.0554046 0.0594965 0.0485034 0.0513487 0.0408359 0.0570054 0.0618984 0.0667742 0.0622704 0.0657539 0.0738613 0.0688967 0.0684575
30 1 Mg 3.54847 9.45668 1.4948 1.2 1 0.0218769 0.0142315 0.0183348 0.0207881 0.0184599 0.0382895 0.0381255 0.0418865 0.0447231 0.0555312 0.0383409 0.0696098 0.0523819 0.0650307 0.0732467 0.0632047 0.0670677 0.08767 0.0738657 0.0791313
31 2 Si 5.36879 6.77254 1.4948 2.4 1 0.025934 0.0295967 0.0213539 0.0265185 0.0245422 0.0351801 0.044463 0.03478 0.0459188 0.0589454 0.0424536 0.0577873 0.0520634 0.067606 0.0650501 0.0751768 0.0670294 0.0783286 0.0567117 0.0678949
32 3 O 5.41937 8.38578 1.4948 -1.2 1 0.0214008 0.0114089 0.0236103 0.0294877 0.0178301 0.043305 0.044033 0.057271 0.0364534 0.0507718 0.0476879 0.0642748 0.0551187 0.0535017 0.0662069 0.0613763 0.0727415 0.0556488 0.073552 0.0729887
33 3 O 1.75158 5.79852 1.4948 -1.2 1 0.0284791 0.0123582 0.0224205 0.0265567 0.0441296 0.030614 0.0394269 0.056992 0.0405212 0.0529525 0.0495693 0.0510647 0.0475437 0.0706316 0.0780911 0.0785192 0.0604944 0.0750783 0.0600478 0.0766102
34 3 O 4.67421 6.06637 0.196716 -1.2 1 0.0145067 0.0265219 0.0314867 0.0242263 0.0320707 0.0378765 0.0345234 0.032407 0.0447104 0.0562132 0.0393519 0.0443758 0.0667322 0.0562906 0.0676038 0.0711337 0.0714186 0.0657818 0.0635361 0.0683957
35 1 Mg 6.26654 4.74899 2.9896 1.2 1 0.0203241 0.0237698 0.0239592 0.0410138 0.0259662 0.0427519 0.0496206 0.0473133 0.0366444 0.0626424 0.0369506 0.0609747 0.0375529 0.064387 0.0526608 0.0750493 0.0536151 0.0839421 0.048392 0.0915295
36 3 O 4.63043 6.06637 2.79288 -1.2 1 0.0178535 0.018314 0.0404947 0.0200225 0.0311646 0.0374104 0.0428359 0.0492955 0.0454664 0.037802 0.0491752 0.0515911 0.0567854 0.0652069 0.061492 0.0738017 0.0649697 0.0666657 0.0680955 0.0852658
37 1 Mg -1.12976 4.79031 4.4844 1.2 1 0.0204866 0.0267596 0.017632 0.0170812 0.0387439 0.038087 0.0483911 0.0495753 0.0434226 0.0425965 0.0551526 0.0598414 0.073104 0.0681939 0.0605584 0.0675058 0.0699608 0.091454 0.0742835 0.0831007
38 2 Si -2.9517 7.47444 4.4844 2.4 1 0.0279068 0.0163065 0.0201379 0.0241899 0.0325984 0.042813 0.0588164 0.0297166 0.0497212 0.0588766 0.0526727 0.0587856 0.0579245 0.0580734 0.0778522 0.0721699 0.0583827 0.0906278 0.0546536 0.0591615
39 3 O -3.00198 5.86121 4.4844 -1.2 1 0.0175403 0.0224113 0.0271027 0.0274222 0.0341709 0.0288063 0.0548385 0.058358 0.0371862 0.0540937 0.0460195 0.070593 0.0585204 0.0527437 0.0654308 0.0702781 0.0537729 0.0787894 0.0650127 0.077656
40 3 O 0.666315 8.44846 4.4844 -1.2 1 0.015265 0.0205521 0.0240888 0.0179836 0.0203059 0.0559738 0.0334843 0.0474223 0.0432454 0.048748 0.0431635 0.0527394 0.04863 0.0764949 0.101226 0.0701314 0.0762783 0.0522242 0.0724539 0.0724212
41 3 O -2.21213 8.18062 3.18632 -1.2 1 0.0215925 0.0116827 0.0201818 0.0148457 0.0153465 0.0345952 0.0445198 0.0563721 0.0427075 0.0546751 0.0517209 0.051876 0.0530644 0.0458518 0.0775611 0.0637402 0.0730536 0.0585442 0.0676091 0.0718485
42 3 O -2.25864 8.18062 5.78248 -1.2 1 0.0140279 0.0143415 0.0207515 0.0239151 0.0191928 0.0346848 0.0469393 0.0479438 0.0365198 0.0408075 0.0557969 0.0413559 0.0592088 0.0594595 0.083855 0.0685621 0.0683981 0.0635731 0.068863 0.0752988
43 1 Mg 1.20893 7.12349 2.9896 1.2 1 0.00777439 0.0191823 0.0229719 0.024648 0.0258465 0.0377394 0.0432526 0.0488059 0.0344941 0.0669656 0.040758 0.0637833 0.0338741 0.0580802 0.0511462 0.0789355 0.0493181 0.0823567 0.0449028 0.0879833
44 1 Mg 4.00982 7.08218 4.4844 1.2 1 0.0180405 0.0193018 0.0287512 0.0369315 0.0371593 0.0318792 0.0485295 0.0349377 0.0473233 0.0516538 0.0588619 0.0529043 0.0704249 0.0747398 0.0561268 0.068831 0.0650919 0.0959202 0.0765148 0.0843323
45 2 Si 2.17861 9.14704 4.4844 2.4 1 0.0262701 0.0105719 0.0240337 0.0166496 0.0314972 0.0374497 0.0594679 0.0256153 0.0490306 0.0522916 0.0542808 0.0617236 0.0630624 0.0570623 0.0803829 0.0714229 0.0516156 0.0952984 0.0542373 0.0560942
46 3 O 2.18828 10.7603 4.4844 -1.2 1 0.0204794 0.0122253 0.00355132 0.0188564 0.0249293 0.0232285 0.0428704 0.0607399 0.039902 0.0517295 0.0400338 0.0707579 0.0471101 0.061236 0.0690426 0.0700144 0.0505005 0.0716475 0.0657365 0.07107
47 3 O -4.43805 8.17302 4.4844 -1.2 1 0.016276 0.0219061 0.016669 0.0171418 0.0214038 0.0570366 0.033677 0.0514311 0.0447565 0.0452368 0.0379225 0.0541314 0.0536886 0.07185 0.0968956 0.0646439 0.0792376 0.0569051 0.0760156 0.0746755
48 3 O 2.89193 8.44087 3.18632 -1.2 1 0.0218172 0.0175172 0.0171341 0.0147354 0.0205739 0.0401332 0.034221 0.0536856 0.0442504 0.050696 0.0584142 0.0506188 0.0506047 0.0501546 0.0796751 0.0642607 0.0699416 0.0584973 0.0667787 0.0752153
49 1 Mg 1.25915 7.12349 0 1.2 1 0.0201969 0.0151428 0.0247034 0.0144243 0.0321878 0.0251093 0.0525246 0.0403973 0.0559234 0.0499128 0.0527029 0.0426148 0.0719966 0.0515376 0.0676558 0.0711239 0.0647744 0.071158 0.0807142 0.0590751
50 3 O 2.84547 8.44087 5.78248 -1.2 1 0.0102546 0.0126721 0.0215162 0.0229604 0.0216712 0.0290697 0.0428529 0.0489616 0.0374786 0.0383711 0.0581272 0.0413816 0.0564945 0.0642893 0.0880663 0.0632849 0.0667253 0.0654058 0.0692037 0.0756233
51 1 Mg -1.59284 7.16481 1.4948 1.2 1 0.0124145 0.0156484 0.0212313 0.0220592 0.0170018 0.0372016 0.0471615 0.0418243 0.0444324 0.0590234 0.038645 0.0660171 0.051726 0.0680061 0.0737698 0.0614867 0.0647486 0.0841338 0.0748513 0.0768151
52 2 Si 0.240329 5.09994 1.4948 2.4 1 0.0246794 0.0174011 0.0159127 0.0434272 0.0271511 0.0406496 0.0466483 0.0532257 0.0551429 0.0487363 0.0456155 0.0576988 0.0591118 0.0679647 0.065533 0.0663514 0.0641912 0.0730458 0.0662188 0.068349
53 3 O 0.234538 3.48671 1.4948 -1.2 1 0.0131139 0.0162201 0.0267167 0.0356407 0.031732 0.0492048 0.0457673 0.042214 0.0527952 0.0464731 0.0525071 0.0614745 0.056306 0.0612329 0.0621987 0.0624624 0.0628249 0.0569237 0.0761178 0.0737273
54 3 O 6.85564 6.07396 1.4948 -1.2 1 0.0324667 0.0195387 0.034412 0.0276214 0.0373304 0.040484 0.0323981 0.0625709 0.0363954 0.0536516 0.054296 0.0540662 0.0546932 0.072582 0.0694021 0.0771432 0.0664863 0.0719478 0.0527405 0.0849074
55 3 O -0.429565 5.80612 0.196716 -1.2 1 0.0340748 0.0201014 0.0160256 0.0213013 0.0409306 0.0373995 0.0539313 0.045093 0.0460461 0.0559671 0.0397504 0.0418306 0.0534202 0.0606273 0.0597947 0.0683596 0.0705688 0.0607617 0.0654004 0.0744173
56 3 O -0.473377 5.80612 2.79288 -1.2 1 0.0318415 0.0224079 0.0256668 0.0188417 0.033615 0.0470686 0.0478158 0.0520207 0.0514014 0.0452199 0.0620522 0.0394039 0.0409796 0.0549436 0.066137 0.0721656 0.0643588 0.0700927 0.0692959 0.0806546
57 1 Mg 6.40169 9.49799 0 1.2 1 0.0127886 0.0122253 0.020985 0.0145432 0.0305358 0.0210852 0.0522863 0.0354686 0.0584704 0.0493784 0.0497874 0.0356679 0.0671324 0.0527228 0.0707369 0.0669052 0.0655804 0.0704093 0.0817679 0.0678271
58 1 Mg 3.64209 14.2057 1.4948 1.2 1 0.0105969 0.0109423 0.0179779 0.0167864 0.0214019 0.0337545 0.0357078 0.0437628 0.0411699 0.0555714 0.038807 0.0658254 0.0531186 0.0660835 0.0743755 0.0631279 0.0652896 0.0828077 0.0739739 0.0781336
59 2 Si 5.45748 11.5215 1.4948 2.4 1 0.0119185 0.0218568 0.0233333 0.0248502 0.0180638 0.0403597 0.0396512 0.0398358 0.0434054 0.0544979 0.0424493 0.0600366 0.053571 0.066503 0.0694827 0.0635003 0.0712265 0.0817756 0.0586333 0.0669594
60 3 O 5.51101 13.1348 1.4948 -1.2 1 0.0241106 0.0132164 0.0220782 0.0295768 0.019707 0.043169 0.0446071 0.0590836 0.0366412 0.0499346 0.0426465 0.0674929 0.0528379 0.0530145 0.0652288 0.060573 0.0707093 0.0581846 0.069231 0.0725246
61 3 O 1.83851 10.5475 1.4948 -1.2 1 0.0351496 0.0139273 0.021505 0.0140605 0.0363462 0.0305723 0.0362365 0.0591304 0.0402284 0.048513 0.0497762 0.0511622 0.0467739 0.0749279 0.0756674 0.0799357 0.0566164 0.0759053 0.0574487 0.0790028
62 3 O 4.7611 10.8154 0.196716 -1.2 1 0.0357342 0.0192636 0.0197335 0.0181737 0.0268616 0.0442194 0.0481734 0.0375938 0.0389844 0.049227 0.0368818 0.0412847 0.0612115 0.0610129 0.0646987 0.0718469 0.0753091 0.0655612 0.0726317 0.0674882
63 1 Mg 6.35203 9.49799 2.9896 1.2 1 0.0144589 0.0161321 0.024919 0.0237661 0.0199531 0.0385596 0.0377917 0.0507977 0.0344545 0.0589732 0.0322522 0.0663447 0.026395 0.0662923 0.0472972 0.0807692 0.0443548 0.0900754 0.0457079 0.0908834
64 3 O 4.71833 10.8154 2.79288 -1.2 1 0.030319 0.0153064 0.0261547 0.0104784 0.0302842 0.041212 0.043396 0.0445643 0.0411157 0.0381263 0.0534779 0.0428407 0.0510819 0.0555111 0.0719587 0.068364 0.0716631 0.0588054 0.0690249 0.0795248
65 1 Mg -1.0438 9.53931 4.4844 1.2 1 0.00871665 0.0137583 0.0193445 0.0207058 0.0299663 0.0268462 0.0379701 0.0339786 0.0470398 0.0521531 0.0562412 0.0583455 0.0640766 0.072744 0.0595562 0.0703302 0.0744612 0.0992068 0.0690874 0.0818759
66 2 Si -2.8604 12.2234 4.4844 2.4 1 0.0131298 0.0168917 0.0178349 0.0247853 0.0295952 0.0430672 0.0566459 0.0322979 0.0548334 0.0613835 0.0518197 0.0583642 0.0586191 0.0561384 0.0804866 0.0693556 0.0521437 0.0914527 0.0538011 0.0605017
67 3 O -2.91391 10.6102 4.4844 -1.2 1 0.0193966 0.0126947 0.0119617 0.0221409 0.0286372 0.0254715 0.0440471 0.0637408 0.0397315 0.0484661 0.0356647 0.0711842 0.0465567 0.0564456 0.0661876 0.0677342 0.0525882 0.0742233 0.0632214 0.0760539
68 3 O 0.7596 13.1975 4.4844 -1.2 1 0.0221102 0.0220092 0.0199853 0.0129643 0.0222255 0.0492004 0.0363881 0.0495075 0.0443746 0.0502723 0.0385401 0.0487262 0.047656 0.0713813 0.098967 0.0649942 0.0753297 0.0533961 0.0732457 0.0698074
69 3 O -2.12001 12.9296 3.18632 -1.2 1 0.0170586 0.00867367 0.0189633 0.0162697 0.0200823 0.0377312 0.0417081 0.0559496 0.0473397 0.0511242 0.0534288 0.0485494 0.0559399 0.0485254 0.0795257 0.063712 0.073315 0.0629671 0.0661458 0.0696349
70 3 O -2.16532 12.9296 5.78248 -1.2 1 0.01778 0.0145832 0.0215503 0.0204246 0.0166805 0.0271116 0.0466739 0.0487131 0.0378276 0.040679 0.0563394 0.0352414 0.0579931 0.0585509 0.0831066 0.0715621 0.0686275 0.0629628 0.0698036 0.0764668
71 1 Mg 1.29891 11.8725 2.9896 1.2 1 0.0124089 0.0142874 0.0258763 0.0235103 0.0193665 0.037208 0.0377659 0.051889 0.0352312 0.0618476 0.0352735 0.0589012 0.0221207 0.0657346 0.0473647 0.0835084 0.0454114 0.0881252 0.0441891 0.0862719
72 1 Mg 4.10033 11.8312 4.4844 1.2 1 0.0118042 0.0172313 0.0177052 0.026654 0.0261552 0.0314602 0.0441209 0.0332213 0.0481445 0.0515268 0.0549176 0.054562 0.0675902 0.0702293 0.054573 0.0707039 0.0713165 0.0976205 0.0760716 0.0806594
73 2 Si 2.27333 13.896 4.4844 2.4 1 0.0249333 0.0089501 0.023562 0.0288298 0.028037 0.0373199 0.0602894 0.030632 0.0498969 0.0590041 0.0518098 0.0588645 0.0599198 0.0559856 0.0720557 0.0689861 0.0463548 0.0956938 0.0540001 0.0534426
74 3 O 2.28634 15.5093 4.4844 -1.2 1 0.0249556 0.0139172 0.00685838 0.0200666 0.0264554 0.0236799 0.0388119 0.0563051 0.0407514 0.0522926 0.0430925 0.0694267 0.0457557 0.0650423 0.0697117 0.0700254 0.0493827 0.0694057 0.0640938 0.0743363
75 3 O -4.34533 12.922 4.4844 -1.2 1 0.0265775 0.0229997 0.0197851 0.0105736 0.0240879 0.048657 0.0364138 0.0487759 0.0437807 0.0542109 0.0392755 0.0517529 0.050403 0.0697009 0.100501 0.0665529 0.0754536 0.0547478 0.0746468 0.0729096
76 3 O 2.98455 13.1899 3.18632 -1.2 1 0.0265529 0.0133978 0.0181636 0.0107086 0.0191884 0.0411913 0.0378721 0.0575861 0.0471664 0.0514411 0.0555296 0.0518053 0.0502541 0.0503262 0.0811679 0.0627229 0.0664258 0.0607334 0.0644453 0.0697677
77 1 Mg 1.34779 11.8725 0 1.2 1 0.0201361 0.0108477 0.0246637 0.0138297 0.0288758 0.0212911 0.0497504 0.0347789 0.0583798 0.0507334 0.0507549 0.036375 0.0644895 0.0508317 0.0721854 0.064593 0.0597592 0.0705279 0.0854495 0.060274
78 3 O 2.93934 13.1899 5.78248 -1.2 1 0.0182461 0.0119542 0.0186584 0.0199357 0.0192843 0.0252747 0.0478635 0.0476708 0.042792 0.0396988 0.0564803 0.0380357 0.0566143 0.0598402 0.0876144 0.0609184 0.0663766 0.064147 0.0679865 0.0796592
79 1 Mg -1.50344 11.9138 1.4948 1.2 1 0.01295 0.017969 0.0228751 0.0205199 0.0117459 0.0369844 0.0380784 0.042678 0.0412843 0.0600475 0.0350872 0.0647465 0.0505763 0.0648345 0.0748661 0.0676882 0.0644272 0.0843093 0.0760582 0.0786622
80 2 Si 0.326006 9.84894 1.4948 2.4 1 0.0250335 0.0191905 0.0250254 0.0305271 0.0172888 0.0387722 0.0441398 0.0378011 0.0449062 0.0564344 0.0402654 0.0598996 0.0549728 0.0668272 0.0608685 0.0638798 0.0701198 0.0789931 0.0616956 0.0683324
81 3 O 0.317364 8.23571 1.4948 -1.2 1 0.0224038 0.0126057 0.0226032 0.0241079 0.0203156 0.045357 0.0427994 0.0500025 0.0346027 0.0542806 0.0441825 0.0655194 0.0573657 0.0599788 0.0678464 0.0658312 0.0718267 0.0532151 0.0736228 0.0738795
82 3 O 6.94307 10.823 1.4948 -1.2 1 0.0312081 0.0148643 0.0220551 0.0118371 0.0373548 0.0329881 0.038177 0.0576015 0.0346915 0.0474789 0.0513375 0.0522484 0.0501534 0.0751144 0.0727784 0.0797964 0.0618199 0.0729185 0.0581401 0.0805705
83 3 O -0.343122 10.5551 0.196716 -1.2 1 0.0308136 0.0174178 0.0215103 0.0208895 0.0297536 0.0415432 0.0514334 0.0399954 0.0386921 0.0508822 0.0371365 0.0373914 0.0612083 0.0611812 0.0688203 0.0709015 0.0813995 0.053813 0.0703297 0.0696966
84 3 O -0.385966 10.5551 2.79288 -1.2 1 0.0271214 0.0119022 0.031711 0.0150522 0.0327956 0.0441522 0.0445379 0.0465287 0.0446325 0.0372519 0.0530305 0.0460932 0.0475317 0.0550654 0.0694517 0.0684314 0.0664258 0.0635074 0.0719722 0.0789731
85 1 Mg 6.49448 14.247 0 1.2 1 0.0224893 0.0102519 0.0184486 0.0173589 0.028557 0.0231994 0.0474465 0.0329074 0.0590294 0.0483532 0.0512462 0.0373948 0.0629574 0.0531359 0.0704554 0.0656386 0.0640632 0.0709123 0.0852774 0.0706788
86 1 Mg 3.74457 18.9547 1.4948 1.2 1 0.0106754 0.013563 0.0166263 0.0171791 0.026695 0.0302706 0.0318741 0.038421 0.037797 0.0571626 0.0432977 0.0689962 0.0516772 0.0670476 0.0708122 0.0696844 0.0621772 0.0838282 0.0796022 0.0761458
87 2 Si 5.55495 16.2705 1.4948 2.4 1 0.0120123 0.0199944 0.0220455 0.0270603 0.0185224 0.0425727 0.0366483 0.0420112 0.0455028 0.0521101 0.0435837 0.0606092 0.0540541 0.0641647 0.0696846 0.0593799 0.0725904 0.0795057 0.0604332 0.0704167
88 3 O 5.6115 17.8838 1.4948 -1.2 1 0.0268491 0.0183641 0.0233765 0.0257608 0.0192917 0.0437053 0.0451741 0.0609816 0.0371093 0.0498991 0.0380752 0.0671946 0.0513964 0.0560335 0.0644312 0.0573324 0.0657692 0.0613912 0.0634141 0.0690143
89 3 O 1.93416 15.2965 1.4948 -1.2 1 0.0370483 0.0142855 0.0218699 0.0133658 0.0350584 0.0311028 0.0357932 0.0589914 0.044126 0.0472736 0.0485108 0.0496881 0.0453196 0.0742789 0.080386 0.0777268 0.0589785 0.0740026 0.0612684 0.0780449
90 3 O 4.85636 15.5644 0.196716 -1.2 1 0.022425 0.0116283 0.0211719 0.0188236 0.0252455 0.0514162 0.0496547 0.0397291 0.0392014 0.0443562 0.0378118 0.0323448 0.0628676 0.0548242 0.0671623 0.067576 0.0763216 0.0625799 0.0724366 0.0689766
91 1 Mg 6.44662 14.247 2.9896 1.2 1 0.0147514 0.0199892 0.0230177 0.0227309 0.0192721 0.0354034 0.0380598 0.0540934 0.0343176 0.0582331 0.0320667 0.0635274 0.0227515 0.0648302 0.0457344 0.080096 0.0446919 0.0910816 0.0428419 0.0904525
92 3 O 4.81537 15.5644 2.79288 -1.2 1 0.0180521 0.00758915 0.026855 0.0137999 0.0281005 0.0390605 0.0458816 0.0486505 0.0453657 0.0390521 0.0515645 0.0426499 0.051823 0.0543597 0.0745765 0.0644795 0.0765527 0.0532991 0.0735386 0.0755128
93 1 Mg -0.948271 14.2883 4.4844 1.2 1 0.0225261 0.017643 0.0188131 0.0254702 0.0274284 0.0300981 0.0359249 0.0346112 0.045306 0.0482972 0.0580921 0.0571377 0.0635434 0.0704171 0.0569219 0.0711225 0.0761402 0.0937985 0.0709419 0.0794152
94 2 Si -2.75928 16.9724 4.4844 2.4 1 0.0184816 0.0168632 0.0222228 0.0288486 0.026927 0.0465475 0.0527035 0.0322033 0.057075 0.0671702 0.0534364 0.0599862 0.0612457 0.0526757 0.079282 0.069448 0.0498034 0.0915466 0.0539413 0.0640859
95 3 O -2.81617 15.3592 4.4844 -1.2 1 0.017173 0.0201363 0.00902598 0.0247088 0.0276493 0.0285979 0.0366151 0.0621266 0.0456853 0.0513677 0.039234 0.0733517 0.0519196 0.0559327 0.0680166 0.0688593 0.0539509 0.0715526 0.0645739 0.0778218
96 3 O 0.862762 17.9465 4.4844 -1.2 1 0.0187107 0.0221513 0.0263133 0.0198126 0.0250778 0.0419869 0.0358554 0.0518951 0.0460766 0.0507599 0.041925 0.0452619 0.0490306 0.0724666 0.1031 0.0575693 0.0714279 0.0526309 0.0722039 0.0689879
97 3 O -2.0185 17.6786 3.18632 -1.2 1 0.0220696 0.00791481 0.0206878 0.0171512 0.0197427 0.0366584 0.0420497 0.0559304 0.0419598 0.0530354 0.0527886 0.0503838 0.0558947 0.0493414 0.0818289 0.0587559 0.0687055 0.0675661 0.0645946 0.0701562
98 3 O -2.06164 17.6786 5.78248 -1.2 1 0.0157305 0.00749331 0.0192324 0.0220429 0.0127157 0.0290672 0.0500296 0.0416402 0.0410446 0.0365779 0.0612866 0.0366456 0.0576656 0.0607912 0.0804287 0.0689786 0.0697481 0.0636497 0.0725194 0.0780123
99 1 Mg 1.39817 16.6215 2.9896 1.2 1 0.0059507 0.0162755 0.0191339 0.0218274 0.0189123 0.0345798 0.0370404 0.0533214 0.0357528 0.0582424 0.0349599 0.0573682 0.0217285 0.0667479 0.047132 0.0808659 0.0505582 0.091699 0.0455256 0.0871989
100 1 Mg 4.20062 16.5802 4.4844 1.2 1 0.0139444 0.0104761 0.0167827 0.0280937 0.0271159 0.0285434 0.0394497 0.034899 0.0476339 0.0518788 0.0555815 0.05426 0.0666869 0.0693976 0.0532465 0.0729481 0.0715799 0.0942381 0.0739707 0.0804443
101 2 Si 2.37796 18.645 4.4844 2.4 1 0.0247367 0.0127195 0.0177328 0.0258519 0.0215329 0.0374097 0.058792 0.030961 0.0569618 0.0584211 0.0516584 0.0576494 0.0602577 0.0553846 0.0712136 0.0687128 0.0491516 0.0969035 0.0578217 0.0546379
102 3 O 2.39434 20.2583 4.4844 -1.2 1 0.0201747 0.0149343 0.00699997 0.0183364 0.0243908 0.0236974 0.0412922 0.0620154 0.039924 0.0487868 0.0405723 0.072574 0.0526306 0.0631836 0.0703911 0.0675095 0.0491207 0.0693579 0.0641976 0.0782412
103 3 O -4.24274 17.671 4.4844 -1.2 1 0.0181767 0.0193147 0.0200436 0.018583 0.0223989 0.0485018 0.0397223 0.0473722 0.0427896 0.0524807 0.0389119 0.0483636 0.0493728 0.0725328 0.102237 0.0647892 0.0756462 0.0536455 0.0778303 0.0719874
104 3 O 3.08659 17.9389 3.18632 -1.2 1 0.0277535 0.0135532 0.0222459 0.0111679 0.0173687 0.037472 0.0370996 0.0561014 0.0422125 0.0523341 0.0560514 0.0476736 0.052041 0.0507668 0.0799665 0.0589945 0.0671202 0.0609931 0.0637972 0.0682133
105 1 Mg 1.44478 16.6215 0 1.2 1 0.012203 0.0119338 0.0213988 0.0120579 0.0274875 0.0321217 0.0480919 0.0364888 0.0503028 0.0502203 0.0513371 0.0395833 0.0600205 0.0493827 0.0691748 0.0654239 0.059253 0.0676607 0.0901023 0.0628477
106 3 O 3.0436 17.9389 5.78248 -1.2 1 0.0165628 0.0144668 0.0179516 0.0244576 0.0160848 0.0266272 0.048753 0.0471985 0.0408785 0.0395002 0.0598737 0.0378708 0.0556825 0.0577634 0.0910812 0.0605816 0.067404 0.0619638 0.064823 0.0819102
107 1 Mg -1.40524 16.6628 1.4948 1.2 1 0.0114481 0.0139091 0.0261645 0.0204608 0.0181879 0.0353974 0.0358676 0.0420507 0.0401953 0.0588609 0.0404028 0.0649015 0.0554724 0.0637366 0.0718989 0.0709123 0.0633837 0.0783045 0.0791757 0.0753626
108 2 Si 0.420358 14.5979 1.4948 2.4 1 0.0241329 0.0183369 0.0281958 0.0264989 0.0185775 0.0405785 0.0398924 0.0395674 0.0452759 0.0546425 0.0442632 0.0600804 0.0584572 0.0636013 0.069895 0.060094 0.0731007 0.077013 0.0618997 0.0717444
109 3 O 0.408732 12.9847 1.4948 -1.2 1 0.0222225 0.0154141 0.0228105 0.0256242 0.0168012 0.0470221 0.0437913 0.0540873 0.0363126 0.0532284 0.0419873 0.0693387 0.0528289 0.0566549 0.0654638 0.0641124 0.0709078 0.0551196 0.0683428 0.0720923
110 3 O 7.03923 15.572 1.4948 -1.2 1 0.0338544 0.0176019 0.0208736 0.00999253 0.0358146 0.034433 0.0374072 0.0543597 0.0381227 0.043898 0.0519514 0.0520917 0.0484014 0.0744179 0.0781284 0.0774172 0.0643038 0.0697055 0.0619235 0.0786967
111 3 O -0.248332 15.3041 0.196716 -1.2 1 0.0188247 0.0127648 0.0209216 0.0184909 0.0253778 0.046637 0.0488912 0.0431641 0.039061 0.0450025 0.0378911 0.030819 0.0608021 0.0546349 0.0698468 0.0645002 0.0831401 0.0498474 0.0704656 0.0724086
112 3 O -0.289436 15.3041 2.79288 -1.2 1 0.0146582 0.0179397 0.0286936 0.0101825 0.0302933 0.037139 0.0437072 0.0474897 0.0440362 0.0394816 0.0536327 0.0478236 0.0497722 0.0514502 0.0718576 0.0680347 0.073168 0.0559883 0.0710386 0.0756528
113 1 Mg 6.59566 18.996 0 1.2 1 0.0146582 0.0129094 0.0207812 0.012911 0.0259662 0.0321186 0.0436947 0.033953 0.0534661 0.049282 0.0533457 0.038824 0.05337 0.053031 0.0716469 0.0641018 0.0634897 0.0643899 0.0876641 0.0697245
114 1 Mg 3.85574 23.7037 1.4948 1.2 1 0.0107701 0.0125729 0.0212994 0.014035 0.0226898 0.0288824 0.0311383 0.0373335 0.0393517 0.0603722 0.0472185 0.0625412 0.0498068 0.06692 0.0645012 0.0722969 0.0662955 0.0796848 0.0797926 0.0759882
115 2 Si 5.66125 21.0195 1.4948 2.4 1 0.00829959 0.0244378 0.0231599 0.0273337 0.0192464 0.0463245 0.0341899 0.0413582 0.0492985 0.0542429 0.0454343 0.0612669 0.0561514 0.0591165 0.0718486 0.0605598 0.073547 0.0773832 0.0643007 0.0761071
116 3 O 5.72074 22.6328 1.4948 -1.2 1 0.0282043 0.0193825 0.0182859 0.0228213 0.0191079 0.0447291 0.0457498 0.0618826 0.0386596 0.0520335 0.0335423 0.069301 0.0499228 0.0538567 0.0677316 0.0548899 0.0651397 0.0676356 0.0568704 0.0708502
117 3 O 2.03867 20.0455 1.4948 -1.2 1 0.0343174 0.0166577 0.0258273 0.0131788 0.033884 0.031304 0.036323 0.0537454 0.0427367 0.041922 0.0509549 0.0508517 0.0486075 0.0732813 0.0844401 0.0723502 0.0628095 0.0677986 0.0642312 0.0722891
118 3 O 4.96004 20.3134 0.196716 -1.2 1 0.0188141 0.013094 0.0244558 0.0204057 0.023406 0.0456921 0.0438234 0.0474544 0.0379888 0.0384429 0.0418818 0.0332654 0.0642508 0.0473581 0.0682077 0.072238 0.0707039 0.057134 0.0723168 0.0731934
119 1 Mg 6.55057 18.996 2.9896 1.2 1 0.0156712 0.0191555 0.0171795 0.0211736 0.0198664 0.0325411 0.0363616 0.0554018 0.0341349 0.0608294 0.0354772 0.0614568 0.0225568 0.0670925 0.0451804 0.0740684 0.0446518 0.0940031 0.0452326 0.0945803
120 3 O 4.92172 20.3134 2.79288 -1.2 1 0.0196601 0.0134762 0.0281494 0.014958 0.029611 0.0398761 0.0462001 0.0445487 0.046504 0.0431694 0.051419 0.0405167 0.0505639 0.0509915 0.0751519 0.0649198 0.0741045 0.0493627 0.0716966 0.0725065
121 1 Mg -0.84282 19.0373 4.4844 1.2 1 0.0121635 0.011275 0.0148829 0.027394 0.0219214 0.0259923 0.0376018 0.0313693 0.0456075 0.047308 0.061436 0.0560016 0.0663779 0.0689302 0.0567399 0.0773794 0.0719724 0.0920108 0.0715374 0.0794456
122 2 Si -2.64823 21.7214 4.4844 2.4 1 0.0207181 0.0164842 0.0173241 0.0251909 0.0274038 0.0378776 0.0548092 0.0308802 0.0520336 0.0676351 0.0532226 0.0617444 0.0580823 0.0546052 0.0727474 0.0703007 0.0453247 0.0938065 0.0515363 0.0687
123 3 O -2.70847 20.1082 4.4844 -1.2 1 0.0176305 0.0136978 0.0199701 0.0265613 0.0252822 0.0227168 0.0389099 0.0649052 0.0441512 0.0479104 0.0389907 0.0701049 0.0473021 0.0596803 0.06644 0.0656625 0.0512545 0.0686802 0.0671254 0.0783751
124 3 O 0.97581 22.6955 4.4844 -1.2 1 0.0169401 0.0257237 0.0193536 0.0205299 0.0176243 0.0449819 0.0333602 0.0490104 0.0437468 0.0557324 0.0423714 0.0455317 0.0485591 0.0730113 0.108376 0.0535773 0.0658735 0.0575074 0.0754188 0.0688498
125 3 O -1.9076 22.4276 3.18632 -1.2 1 0.022026 0.00761841 0.0205687 0.0165884 0.0136502 0.0361875 0.0437935 0.0550029 0.0373981 0.0507559 0.0543401 0.0494335 0.0554816 0.0480313 0.0806328 0.0580359 0.0691635 0.0665897 0.0641634 0.0671903
126 3 O -1.9475 22.4276 5.78248 -1.2 1 0.015372 0.00767895 0.0229096 0.0196055 0.0202965 0.0301464 0.0489602 0.046069 0.039436 0.0333019 0.0560206 0.0372446 0.0563546 0.0690988 0.0785766 0.0700838 0.072607 0.0595896 0.0657077 0.0799031