ITEM: TIMESTEP
33100
ITEM: NUMBER OF ATOMS
10500
ITEM: BOX BOUNDS xy xz yz pp pp pp
0	15.2977	5.09925
0	118.725	0
0	89.688	0
ITEM: ATOMS id type element xu yu zu q Q_1 Q_2 Q_3 Q_4 Q_5 Q_6 Q_7 Q_8 Q_9 Q_10 Q_11 Q_12 Q_13 Q_14 Q_15 Q_16 Q_17 Q_18 Q_19 Q_20 Q_21
1 1 Mg 6.2404 -6.37941e-06 0 1.2 1 0.0133104 0.040989 0.0296763 0.0359423 0.0332087 0.0412272 0.0356598 0.0686834 0.038922 0.0710905 0.0340028 0.0592026 0.0461239 0.068139 0.0499014 0.092038 0.051562 0.083964 0.0505284 0.102798
2 1 Mg 3.46349 4.70768 1.4948 1.2 1 0.0169297 0.0168736 0.024224 0.0216681 0.0201434 0.0420981 0.0422338 0.0398205 0.045985 0.0555658 0.042693 0.0705055 0.0578472 0.0713067 0.0712575 0.0645448 0.0678718 0.0854599 0.0727074 0.0820138
3 2 Si 5.2885 2.02354 1.4948 2.4 1 0.0200229 0.0219553 0.0338514 0.0284891 0.0301743 0.0375806 0.0538294 0.0323536 0.0441619 0.0536813 0.0548894 0.0617877 0.0548536 0.0650789 0.0680487 0.0796618 0.0708599 0.0643647 0.0637841 0.0727387
4 3 O 5.33628 3.63678 1.4948 -1.2 1 0.00938667 0.0141794 0.0269332 0.0258044 0.0182636 0.0390702 0.0418841 0.0602312 0.0355116 0.0402118 0.0547405 0.0509939 0.0677825 0.057298 0.0589661 0.0652625 0.0599993 0.0614967 0.0712169 0.0744397
5 3 O 1.67294 1.04952 1.4948 -1.2 1 0.0162378 0.0217104 0.0234213 0.0354053 0.0298127 0.038618 0.0341741 0.0603678 0.034958 0.0589404 0.0443321 0.050938 0.0714883 0.0598807 0.0763589 0.0696538 0.0633578 0.0645326 0.0797176 0.0608185
6 3 O 4.59532 1.31737 0.196716 -1.2 1 0.0258519 0.0221119 0.0575821 0.0252531 0.0333188 0.0487638 0.038577 0.0473649 0.0338702 0.0392784 0.0386094 0.0506599 0.0542119 0.0569334 0.063709 0.0698439 0.0620315 0.0714689 0.0592159 0.0707152
7 1 Mg 6.18956 -6.37941e-06 2.9896 1.2 1 0.0126688 0.0261263 0.0172872 0.0214906 0.0368208 0.0438201 0.0499868 0.041376 0.047954 0.0458876 0.03882 0.0545672 0.0401117 0.055737 0.0586872 0.0786687 0.0574713 0.0689754 0.0599707 0.0699782
8 3 O 4.55118 1.31737 2.79288 -1.2 1 0.0227076 0.0249599 0.0378974 0.0165336 0.0267813 0.0449593 0.043594 0.0498801 0.0440317 0.0530163 0.0537129 0.0469677 0.0490159 0.0655582 0.0540751 0.070223 0.0640677 0.0674194 0.0648513 0.0710031
9 1 Mg -1.20682 0.0413099 4.4844 1.2 1 0.0179224 0.026542 0.0183092 0.027526 0.0379217 0.0390643 0.0319863 0.0496437 0.0536436 0.0391839 0.0476614 0.0605315 0.0626366 0.0588856 0.077858 0.0641529 0.0809856 0.0733592 0.0601019 0.0514547
10 2 Si -3.0337 2.72544 4.4844 2.4 1 0.033027 0.0138086 0.0200548 0.0139526 0.0285369 0.0381562 0.0602017 0.0353791 0.0595575 0.051507 0.0448645 0.0610752 0.0574064 0.0776037 0.0536099 0.057114 0.0727574 0.0808734 0.0724125 0.061262
11 3 O -3.08099 1.11221 4.4844 -1.2 1 0.0100712 0.0248796 0.0281239 0.0245903 0.0349148 0.0253215 0.0484108 0.0493429 0.036371 0.0388002 0.0385704 0.0711429 0.0529947 0.0515664 0.0550677 0.0679811 0.0555756 0.0807758 0.0744529 0.077201
12 3 O 0.582463 3.69946 4.4844 -1.2 1 0.00818673 0.0139638 0.0320099 0.0298516 0.0267867 0.0597502 0.0313208 0.0554075 0.0454562 0.0406415 0.0543445 0.0562173 0.0604157 0.0698791 0.0987403 0.0683353 0.0815176 0.0412997 0.0710209 0.0667686
13 3 O -2.29524 3.43162 3.18632 -1.2 1 0.0114327 0.017782 0.0253088 0.0323105 0.0215118 0.0504129 0.0525775 0.0511826 0.0406166 0.0532713 0.0593069 0.0545153 0.0422406 0.0537156 0.0596937 0.0649313 0.0686344 0.0604854 0.0639007 0.0718615
14 3 O -2.34216 3.43162 5.78248 -1.2 1 0.0221893 0.00977189 0.0221132 0.0263539 0.0254191 0.0393798 0.0520595 0.0488273 0.0357556 0.0549517 0.0553212 0.0466084 0.0523235 0.0502502 0.0733025 0.0720121 0.063256 0.0700914 0.0729729 0.0693297
15 1 Mg 1.12778 2.37449 2.9896 1.2 1 0.0159766 0.0411205 0.0164268 0.0238702 0.0266973 0.0416811 0.0413465 0.0499845 0.0367899 0.0602393 0.0371809 0.0598519 0.0403308 0.0653328 0.0642529 0.0688555 0.0695851 0.081742 0.0460217 0.0886407
16 1 Mg 3.92855 2.33318 4.4844 1.2 1 0.0307471 0.0154029 0.02197 0.0287094 0.0444875 0.0263251 0.0384039 0.0370524 0.0475099 0.0679744 0.0502485 0.0612714 0.0483398 0.0628194 0.0563773 0.0750106 0.0615584 0.0928864 0.0738549 0.0822178
17 2 Si 2.09341 4.39804 4.4844 2.4 1 0.0118021 0.0183731 0.0328584 0.018825 0.0419991 0.0269158 0.0628553 0.0237991 0.0440938 0.0474716 0.0642484 0.0616132 0.0685996 0.0584867 0.0701083 0.0735976 0.0705552 0.081879 0.055803 0.0688603
18 3 O 2.09991 6.01128 4.4844 -1.2 1 0.0145299 0.009704 0.015116 0.0192817 0.0328329 0.0236225 0.051734 0.0518021 0.0470498 0.0470412 0.0467017 0.0663308 0.0454274 0.0618388 0.0650623 0.0685888 0.0466824 0.0774463 0.0598202 0.0724255
19 3 O -4.52137 3.42402 4.4844 -1.2 1 0.0238763 0.0282664 0.0364283 0.0205191 0.0257171 0.0572414 0.0354346 0.0474919 0.054621 0.0576428 0.0317267 0.0587948 0.0507307 0.0550205 0.0891028 0.0717006 0.0765891 0.0605319 0.0735751 0.0542858
20 3 O 2.80834 3.69187 3.18632 -1.2 1 0.0154985 0.0206557 0.0211952 0.0265125 0.0221515 0.0381666 0.0333357 0.0489873 0.0435604 0.0572008 0.0653181 0.0524474 0.041607 0.0621738 0.0691918 0.0725646 0.0613969 0.0575173 0.0716203 0.0721463
21 1 Mg 1.17857 2.37449 0 1.2 1 0.0144975 0.0373418 0.0291403 0.0289396 0.0363568 0.0388404 0.0430505 0.0586781 0.035468 0.0491585 0.0524398 0.0409198 0.0435979 0.0671773 0.055199 0.0659684 0.0599858 0.0804607 0.0570899 0.0726529
22 3 O 2.76143 3.69187 5.78248 -1.2 1 0.00525098 0.0189037 0.0226041 0.0260777 0.0188998 0.0335189 0.0390256 0.0483407 0.03589 0.0459369 0.0585364 0.0457625 0.057218 0.0795311 0.0715991 0.0671506 0.0697451 0.0577463 0.073139 0.074144
23 1 Mg -1.67381 2.41581 1.4948 1.2 1 0.0114161 0.0116246 0.0371337 0.0363174 0.0325745 0.0439957 0.0589773 0.0402662 0.0509588 0.0406743 0.0462145 0.0590582 0.0550286 0.0639424 0.0613948 0.0643785 0.0834886 0.0777766 0.0664044 0.0742291
24 2 Si 0.16286 0.350945 1.4948 2.4 1 0.0152359 0.0320141 0.0279945 0.0234653 0.0354085 0.0356985 0.0556683 0.0512503 0.0524128 0.0488442 0.0406068 0.0560083 0.0740025 0.0688828 0.057097 0.0731156 0.0696975 0.0650434 0.0733833 0.0663431
25 3 O 0.15972 -1.26229 1.4948 -1.2 1 0.00908863 0.0159112 0.039591 0.0213985 0.036522 0.0358348 0.0453749 0.0557702 0.0476394 0.0520871 0.0559271 0.057152 0.0639141 0.0663112 0.0487561 0.0598859 0.0694544 0.0678578 0.0616832 0.0733663
26 3 O 6.77654 1.32496 1.4948 -1.2 1 0.0114935 0.0277688 0.0266923 0.0277244 0.0373089 0.054589 0.034285 0.0648239 0.0476573 0.0465492 0.0443279 0.0525839 0.0523649 0.059352 0.0687237 0.0716018 0.0847391 0.0628737 0.0599934 0.074651
27 3 O -0.508028 1.05712 0.196716 -1.2 1 0.0247881 0.0190997 0.0297185 0.0204883 0.0293964 0.0531148 0.0439123 0.0444195 0.0473199 0.0480305 0.0502316 0.0478961 0.0493517 0.0634751 0.0549867 0.0631644 0.0636328 0.0587096 0.0719455 0.0715155
28 3 O -0.552171 1.05712 2.79288 -1.2 1 0.0387774 0.0264079 0.0407801 0.0314423 0.0247736 0.0458141 0.0409787 0.0455825 0.0413287 0.038738 0.046867 0.0486419 0.0582055 0.0598752 0.0635947 0.0754416 0.0726504 0.0501017 0.0718903 0.0700399
29 1 Mg 6.31713 4.74899 0 1.2 1 0.0258901 0.0286682 0.031354 0.0370708 0.0317178 0.0252143 0.0407902 0.0549802 0.0589697 0.049834 0.0521323 0.0388925 0.0585892 0.0614097 0.0665315 0.0630313 0.064947 0.072852 0.0678803 0.0705226
30 1 Mg 3.54847 9.45668 1.4948 1.2 1 0.0217738 0.0142943 0.0180561 0.0204656 0.0184316 0.0382127 0.0384006 0.0415025 0.0449858 0.0556522 0.0388658 0.0691339 0.0521392 0.0657337 0.0713324 0.0631551 0.0667166 0.0869391 0.0742111 0.0790593
31 2 Si 5.36879 6.77254 1.4948 2.4 1 0.0291057 0.0269 0.0238879 0.0256457 0.024849 0.0348556 0.0443666 0.0363126 0.0448787 0.057173 0.0421451 0.0583083 0.0534467 0.0663912 0.0655564 0.0743553 0.0669147 0.0788374 0.0557569 0.0686862
32 3 O 5.41937 8.38578 1.4948 -1.2 1 0.0216243 0.0115345 0.0235926 0.0296786 0.0174497 0.0432369 0.044046 0.0572803 0.0361718 0.0503313 0.047535 0.0638789 0.0552932 0.0542891 0.0665811 0.0602525 0.072906 0.0561001 0.0729135 0.0731363
33 3 O 1.75158 5.79852 1.4948 -1.2 1 0.028481 0.0123664 0.0225079 0.0266526 0.0440787 0.0306073 0.0392605 0.05704 0.0406996 0.0523606 0.0494072 0.0503996 0.0474404 0.0714886 0.078991 0.0782144 0.0602612 0.075198 0.0599559 0.076605
34 3 O 4.67421 6.06637 0.196716 -1.2 1 0.0145871 0.0265169 0.0314567 0.0242001 0.0321573 0.0378779 0.0344613 0.032391 0.0449617 0.0560748 0.0392534 0.0444147 0.0671979 0.0561466 0.0675281 0.0713833 0.0712077 0.0658043 0.0630202 0.067738
35 1 Mg 6.26654 4.74899 2.9896 1.2 1 0.0196667 0.0259273 0.0239857 0.0446665 0.0245534 0.0446967 0.048331 0.0466858 0.0365894 0.0625796 0.0363652 0.0617773 0.0363465 0.064839 0.0515769 0.0786072 0.0567043 0.0838017 0.046395 0.0903096
36 3 O 4.63043 6.06637 2.79288 -1.2 1 0.0214658 0.020453 0.0410716 0.0189243 0.0316083 0.0370105 0.0429152 0.0487382 0.044833 0.0364808 0.0491784 0.0517515 0.055877 0.0642704 0.0612964 0.0727218 0.0648863 0.068773 0.0688717 0.0849559
37 1 Mg -1.12976 4.79031 4.4844 1.2 1 0.0224849 0.0277547 0.0141692 0.0129393 0.0384454 0.0385128 0.0497956 0.0491853 0.0433987 0.0417388 0.0545135 0.0624437 0.0739596 0.0682249 0.0617105 0.0683135 0.0688668 0.0958699 0.0712542 0.0816952
38 2 Si -2.9517 7.47444 4.4844 2.4 1 0.0199235 0.0176596 0.016833 0.0238181 0.0311344 0.0442558 0.060275 0.0298922 0.0518402 0.0572165 0.050777 0.0573534 0.0631189 0.0587246 0.0795839 0.0681513 0.0534768 0.0889857 0.0614571 0.0614483
39 3 O -3.00198 5.86121 4.4844 -1.2 1 0.0151185 0.0237559 0.0269264 0.0287713 0.0329243 0.0310551 0.0553503 0.0594376 0.0389491 0.0550267 0.0477212 0.0701942 0.05904 0.0558241 0.0675292 0.0696276 0.0508253 0.0761522 0.0636281 0.0788623
40 3 O 0.666315 8.44846 4.4844 -1.2 1 0.0240099 0.0233627 0.0228909 0.0136737 0.0231647 0.0522895 0.030762 0.0514134 0.0440308 0.0488521 0.0396533 0.0514723 0.048028 0.0756067 0.0996294 0.0667507 0.0755321 0.0495478 0.0684018 0.0721289
41 3 O -2.21213 8.18062 3.18632 -1.2 1 0.018273 0.0152812 0.0164329 0.0153091 0.0170827 0.0354026 0.04596 0.0544179 0.0457394 0.0542597 0.0541793 0.0519473 0.0525507 0.0470463 0.07755 0.0636972 0.0713735 0.0586478 0.0682451 0.0705623
42 3 O -2.25864 8.18062 5.78248 -1.2 1 0.0135371 0.0173396 0.0197572 0.0220327 0.0192715 0.0274335 0.0519801 0.0478255 0.0379919 0.0412646 0.0572128 0.0375395 0.0575371 0.0577587 0.0837581 0.071529 0.0692241 0.061674 0.0684558 0.0757758
43 1 Mg 1.20893 7.12349 2.9896 1.2 1 0.00723502 0.0207203 0.0222266 0.0253111 0.0248916 0.0378255 0.0432875 0.0474249 0.035156 0.065732 0.0403313 0.0654595 0.0339257 0.0585375 0.0516958 0.0781714 0.0514946 0.0850851 0.0456792 0.0862785
44 1 Mg 4.00982 7.08218 4.4844 1.2 1 0.0223939 0.0152754 0.0231234 0.0350866 0.0295503 0.0371684 0.0438506 0.0377685 0.046072 0.0512982 0.0567625 0.0557856 0.0715243 0.073601 0.0580337 0.0672759 0.0636163 0.0994926 0.0745641 0.0816813
45 2 Si 2.17861 9.14704 4.4844 2.4 1 0.0243342 0.0108015 0.0252861 0.0229369 0.0305237 0.0334225 0.0626205 0.0243208 0.0511371 0.0555582 0.0548703 0.0599996 0.0642916 0.0575203 0.0772534 0.0674054 0.0501069 0.0932687 0.0558577 0.0581815
46 3 O 2.18828 10.7603 4.4844 -1.2 1 0.0189501 0.013314 0.00502627 0.0179477 0.027431 0.0229979 0.0429968 0.059213 0.0398674 0.0524208 0.0416423 0.0734617 0.0465381 0.0646282 0.0695205 0.0724198 0.0447465 0.0731706 0.064031 0.0727689
47 3 O -4.43805 8.17302 4.4844 -1.2 1 0.0192281 0.0202344 0.0158385 0.0152504 0.0218558 0.0552799 0.0365051 0.0486404 0.0424666 0.0498472 0.0373883 0.0532632 0.0534605 0.0714117 0.0992695 0.0660912 0.0790446 0.0536531 0.0722207 0.0746597
48 3 O 2.89193 8.44087 3.18632 -1.2 1 0.0220427 0.0195883 0.0166571 0.0153165 0.0209858 0.040271 0.0338553 0.0533174 0.0439819 0.0524068 0.0576292 0.0500651 0.0514235 0.0513149 0.0799436 0.0626511 0.0698412 0.0597523 0.0652812 0.0735521
49 1 Mg 1.25915 7.12349 0 1.2 1 0.0198685 0.015216 0.0249636 0.0146135 0.032211 0.0258639 0.0527845 0.0405294 0.0556522 0.0501465 0.052772 0.0424803 0.0718645 0.0509915 0.0675768 0.0711274 0.0656688 0.0705615 0.0812864 0.0580841
50 3 O 2.84547 8.44087 5.78248 -1.2 1 0.0146416 0.019043 0.0124643 0.0193385 0.0209153 0.0272579 0.0461677 0.0477715 0.0387288 0.0399459 0.0603681 0.0396868 0.0605438 0.0586441 0.090025 0.0613831 0.0720058 0.0646712 0.0644469 0.0755205
51 1 Mg -1.59284 7.16481 1.4948 1.2 1 0.00986649 0.016337 0.0205416 0.0203532 0.0149885 0.0371784 0.0463126 0.0427346 0.0432804 0.0576783 0.0389368 0.0661146 0.0522378 0.0691431 0.0756671 0.0608524 0.0675829 0.0843429 0.0738768 0.0787214
52 2 Si 0.240329 5.09994 1.4948 2.4 1 0.024665 0.0173986 0.0158736 0.0433713 0.027166 0.0405198 0.0467029 0.0533304 0.0550547 0.0484983 0.0457528 0.0578702 0.0592232 0.0677559 0.0655775 0.0664203 0.0640733 0.0727236 0.0661873 0.0684733
53 3 O 0.234538 3.48671 1.4948 -1.2 1 0.0131595 0.0162193 0.0266631 0.035746 0.0315523 0.0493024 0.0459486 0.0423282 0.0528344 0.0462783 0.0524666 0.0616229 0.0566883 0.060724 0.0622071 0.0624199 0.0633123 0.0574259 0.0757761 0.0737644
54 3 O 6.85564 6.07396 1.4948 -1.2 1 0.0324231 0.0193957 0.0345028 0.0276604 0.0372118 0.0405661 0.0321772 0.0625703 0.0366196 0.0531796 0.0536481 0.0535027 0.0555531 0.073334 0.0698987 0.0772021 0.0665746 0.0722537 0.0531784 0.085035
55 3 O -0.429565 5.80612 0.196716 -1.2 1 0.0340968 0.0200701 0.0158309 0.0211405 0.041007 0.037463 0.0538264 0.0450614 0.046135 0.0562913 0.0398183 0.0420461 0.0535265 0.0598503 0.0599898 0.0681796 0.0702471 0.0612078 0.0649969 0.0738401
56 3 O -0.473377 5.80612 2.79288 -1.2 1 0.0245778 0.021407 0.0338854 0.0189968 0.0346661 0.0463214 0.0493985 0.0488502 0.0546698 0.0453945 0.0623425 0.038381 0.0436695 0.0593766 0.0665589 0.0725898 0.0650238 0.0677944 0.0712802 0.0805773
57 1 Mg 6.40169 9.49799 0 1.2 1 0.0127323 0.0119783 0.0211145 0.0145066 0.0302841 0.0213846 0.0520421 0.0357857 0.0585307 0.0491854 0.049715 0.0352887 0.0674667 0.0530999 0.0708643 0.067241 0.0650638 0.0707743 0.0813701 0.0685206
58 1 Mg 3.64209 14.2057 1.4948 1.2 1 0.00621307 0.0139479 0.0176803 0.0195453 0.0218679 0.0341631 0.0364937 0.0430663 0.0398656 0.0545026 0.0385493 0.068813 0.0545075 0.0667268 0.075013 0.0632369 0.0641207 0.0833299 0.0746258 0.0783137
59 2 Si 5.45748 11.5215 1.4948 2.4 1 0.0119667 0.0219105 0.0233057 0.024794 0.0179589 0.0402791 0.0396481 0.0399347 0.0435143 0.05449 0.042378 0.0604748 0.0533844 0.066303 0.0695422 0.0633245 0.0712281 0.0819386 0.058338 0.0667591
60 3 O 5.51101 13.1348 1.4948 -1.2 1 0.0242501 0.0135328 0.0225558 0.0291453 0.0201248 0.043492 0.0443064 0.0589362 0.036267 0.0493937 0.0432451 0.0671061 0.0536111 0.0536479 0.0662213 0.0602987 0.0705963 0.0579014 0.0695714 0.0717722
61 3 O 1.83851 10.5475 1.4948 -1.2 1 0.0395655 0.0146556 0.019896 0.0108677 0.036208 0.0311444 0.0370511 0.0574948 0.0388959 0.047551 0.0499452 0.0516678 0.0479058 0.0741302 0.0753095 0.0789926 0.0575198 0.0762074 0.0577726 0.0782586
62 3 O 4.7611 10.8154 0.196716 -1.2 1 0.0356906 0.0192079 0.0197439 0.0181186 0.0267928 0.0443085 0.0483144 0.0376287 0.0388126 0.04938 0.0368934 0.0410987 0.060757 0.060884 0.0649015 0.0715162 0.0754829 0.0656188 0.0728354 0.0678305
63 1 Mg 6.35203 9.49799 2.9896 1.2 1 0.0128367 0.0163513 0.0226178 0.0204515 0.0195334 0.0374539 0.0379682 0.0522954 0.0347265 0.058056 0.0317806 0.0647425 0.0298432 0.0673196 0.0467503 0.0797731 0.0471062 0.0904988 0.0451907 0.0908242
64 3 O 4.71833 10.8154 2.79288 -1.2 1 0.0260465 0.00942517 0.0313863 0.0129151 0.0303279 0.043443 0.0436562 0.0446954 0.0424967 0.037315 0.053138 0.0423935 0.0539631 0.0582482 0.0729146 0.0678414 0.0715984 0.059223 0.0684571 0.0813367
65 1 Mg -1.0438 9.53931 4.4844 1.2 1 0.0137453 0.0192194 0.014304 0.0232869 0.026105 0.0313566 0.0365867 0.0370658 0.0455199 0.0502164 0.055317 0.0566663 0.0671371 0.0708376 0.059562 0.0705922 0.0712316 0.0979363 0.071405 0.0836453
66 2 Si -2.8604 12.2234 4.4844 2.4 1 0.0186857 0.0118474 0.0171666 0.0269643 0.0297632 0.0415054 0.0588789 0.0305578 0.0535126 0.0628223 0.0548808 0.0631046 0.0604033 0.055662 0.07978 0.0720949 0.0484492 0.0908946 0.0523254 0.0636835
67 3 O -2.91391 10.6102 4.4844 -1.2 1 0.0189838 0.0112918 0.00923352 0.0217885 0.0304442 0.0231014 0.04667 0.0631695 0.0408305 0.0514256 0.0383463 0.0701991 0.0426304 0.0594834 0.0651203 0.0706948 0.0490845 0.0733436 0.0610593 0.0762585
68 3 O 0.7596 13.1975 4.4844 -1.2 1 0.0223942 0.0252364 0.0198056 0.0133654 0.0241534 0.0500231 0.0338891 0.0497784 0.0470122 0.0509504 0.0385887 0.0504533 0.0467242 0.0706849 0.103025 0.0624075 0.0755158 0.0522528 0.0717671 0.0727116
69 3 O -2.12001 12.9296 3.18632 -1.2 1 0.0203252 0.0071219 0.0208574 0.0167818 0.019094 0.0361261 0.0408305 0.0543486 0.0433994 0.054494 0.0531808 0.0489561 0.0560329 0.0493261 0.0801482 0.0633783 0.0732381 0.0639664 0.0673139 0.0708963
70 3 O -2.16532 12.9296 5.78248 -1.2 1 0.0137989 0.0177236 0.0190959 0.022953 0.0206655 0.0251164 0.0506979 0.0465839 0.040556 0.0406203 0.0555072 0.0386403 0.0592263 0.0626796 0.0840437 0.0698727 0.0689348 0.0612083 0.0700206 0.0756445
71 1 Mg 1.29891 11.8725 2.9896 1.2 1 0.00729523 0.0157471 0.0224415 0.0226019 0.0175515 0.0376542 0.0367391 0.0505799 0.0352638 0.0597922 0.0345941 0.0589418 0.0257369 0.0677268 0.0488481 0.0823477 0.048074 0.0890292 0.0469852 0.0858176
72 1 Mg 4.10033 11.8312 4.4844 1.2 1 0.00789975 0.0144422 0.0186883 0.0261152 0.029651 0.0311028 0.0400015 0.0368651 0.0472424 0.0532157 0.0540712 0.0524826 0.0688413 0.0686796 0.0538318 0.0703483 0.0694094 0.0988168 0.0747339 0.0804314
73 2 Si 2.27333 13.896 4.4844 2.4 1 0.0272611 0.00767526 0.0247249 0.0248037 0.0244769 0.0380449 0.0622788 0.0290923 0.0538037 0.0553454 0.0535983 0.0619647 0.062178 0.0576404 0.0766894 0.0687157 0.0480335 0.0986438 0.0557576 0.0560422
74 3 O 2.28634 15.5093 4.4844 -1.2 1 0.0253842 0.0158745 0.00860334 0.0227042 0.0238665 0.0226845 0.0411139 0.0595931 0.0426099 0.0510712 0.0400019 0.0695753 0.0464551 0.0638631 0.0698964 0.0713645 0.0517804 0.0694249 0.0649146 0.0738967
75 3 O -4.34533 12.922 4.4844 -1.2 1 0.0232956 0.0161881 0.0238716 0.0135195 0.0242337 0.0461717 0.0396241 0.0509026 0.0426864 0.0513139 0.0411139 0.0513663 0.0491738 0.0753335 0.0968694 0.069387 0.077423 0.0518315 0.0719488 0.0731008
76 3 O 2.98455 13.1899 3.18632 -1.2 1 0.0253414 0.0111789 0.0192319 0.0118418 0.0190345 0.0402436 0.0381618 0.0573268 0.0424423 0.0555995 0.055806 0.048401 0.0515319 0.0503841 0.0805882 0.0610652 0.0676611 0.0609025 0.0647198 0.0723245
77 1 Mg 1.34779 11.8725 0 1.2 1 0.0219707 0.00931503 0.0218529 0.0145339 0.028771 0.0222019 0.0515448 0.0343933 0.0575875 0.0508725 0.0497416 0.0355929 0.0648429 0.0499417 0.0705154 0.0642137 0.0614158 0.0701469 0.0873096 0.0597504
78 3 O 2.93934 13.1899 5.78248 -1.2 1 0.0223428 0.0140385 0.0189474 0.0194738 0.0142552 0.0281189 0.0459614 0.0488521 0.037215 0.0417191 0.0582597 0.0386258 0.055253 0.0596754 0.0857125 0.0672615 0.0688829 0.0632289 0.0689216 0.0767375
79 1 Mg -1.50344 11.9138 1.4948 1.2 1 0.00825121 0.0211136 0.0216774 0.0224797 0.0137609 0.0372155 0.0384061 0.042068 0.039963 0.0593264 0.0340707 0.0675606 0.0519397 0.064835 0.075968 0.0682393 0.0634393 0.0846965 0.0771134 0.0786751
80 2 Si 0.326006 9.84894 1.4948 2.4 1 0.0281184 0.017888 0.0269658 0.0294807 0.0168909 0.0381296 0.0433496 0.0399551 0.0439402 0.054988 0.0395591 0.0602221 0.055705 0.0665705 0.060959 0.062484 0.0703496 0.0804147 0.0617521 0.0688609
81 3 O 0.317364 8.23571 1.4948 -1.2 1 0.0224 0.0125743 0.022616 0.0239652 0.0203748 0.0453122 0.0428997 0.0499115 0.0348006 0.0541894 0.0442831 0.0659768 0.0574896 0.0594771 0.0679968 0.0666408 0.0715298 0.0532604 0.0735709 0.073993
82 3 O 6.94307 10.823 1.4948 -1.2 1 0.03124 0.0148253 0.0219989 0.0116052 0.0372547 0.0328131 0.0383092 0.0577156 0.0345999 0.0475919 0.051312 0.0527541 0.0501474 0.0747439 0.072652 0.0797513 0.0617021 0.0729778 0.0583054 0.0800962
83 3 O -0.343122 10.5551 0.196716 -1.2 1 0.0267056 0.019626 0.0240608 0.0225558 0.0297319 0.0413574 0.0512485 0.0388879 0.0378377 0.0501751 0.0371766 0.0366194 0.0614102 0.059978 0.0675392 0.0703548 0.0802221 0.0542475 0.0692949 0.0706124
84 3 O -0.385966 10.5551 2.79288 -1.2 1 0.0218012 0.0193954 0.031907 0.0130434 0.0336433 0.0413602 0.0441314 0.0462627 0.0430571 0.039205 0.053166 0.0487567 0.0488149 0.055454 0.0696335 0.0721945 0.0668421 0.0604268 0.0678613 0.0783811
85 1 Mg 6.49448 14.247 0 1.2 1 0.0239073 0.00731455 0.0172455 0.015851 0.0295006 0.023657 0.0483974 0.0341917 0.0593419 0.04781 0.0509087 0.0373489 0.0636679 0.0532255 0.0702325 0.0643898 0.0635608 0.0704407 0.0859229 0.0697467
86 1 Mg 3.74457 18.9547 1.4948 1.2 1 0.0192344 0.00912123 0.015881 0.0181955 0.0250254 0.0295354 0.0311577 0.0388927 0.0376241 0.0567773 0.0442668 0.0664291 0.0509818 0.0656183 0.0676613 0.07092 0.0633775 0.0829025 0.0789322 0.0756919
87 2 Si 5.55495 16.2705 1.4948 2.4 1 0.0108457 0.021956 0.020239 0.0269543 0.0176604 0.0428572 0.0367086 0.0404264 0.046191 0.0525098 0.0437405 0.0604381 0.0540682 0.0645634 0.0701053 0.0591056 0.0736373 0.0793707 0.0610269 0.0705575
88 3 O 5.6115 17.8838 1.4948 -1.2 1 0.0268469 0.0180249 0.023329 0.0256735 0.0191919 0.0434657 0.0449994 0.0608244 0.0368293 0.0499881 0.0376311 0.0673435 0.0507538 0.0560109 0.0648024 0.0578634 0.0659499 0.0618337 0.062845 0.0696015
89 3 O 1.93416 15.2965 1.4948 -1.2 1 0.0370895 0.0145886 0.0218934 0.013029 0.0349922 0.0303052 0.0360551 0.0592576 0.0432752 0.0472335 0.0484878 0.0507812 0.0462103 0.0733845 0.0807855 0.0776338 0.0585886 0.0738498 0.0623723 0.0768371
90 3 O 4.85636 15.5644 0.196716 -1.2 1 0.0193833 0.0149199 0.0233539 0.0203476 0.0248218 0.0515291 0.0496329 0.0391403 0.0380438 0.0435691 0.0382268 0.0318717 0.062711 0.0533235 0.065787 0.0665616 0.0750179 0.0625545 0.0722689 0.0697298
91 1 Mg 6.44662 14.247 2.9896 1.2 1 0.0120741 0.0180837 0.0230716 0.0247984 0.0199481 0.0347951 0.0370796 0.0517598 0.0367142 0.0558394 0.0354808 0.0635485 0.0253959 0.0675217 0.0453486 0.076989 0.0446434 0.09231 0.0451918 0.0923325
92 3 O 4.81537 15.5644 2.79288 -1.2 1 0.0149664 0.00748937 0.0286087 0.012604 0.0283649 0.0380247 0.0466027 0.0467763 0.0459766 0.0388271 0.0518553 0.0428787 0.0533622 0.0569699 0.0742665 0.0661148 0.0764122 0.0519644 0.0720825 0.0755565
93 1 Mg -0.948271 14.2883 4.4844 1.2 1 0.0122651 0.011442 0.012838 0.0261231 0.0257172 0.0281607 0.0337145 0.0358701 0.0458829 0.0498252 0.0584982 0.0566929 0.0675491 0.0686519 0.0576961 0.0718073 0.0700501 0.0954751 0.0738214 0.0825657
94 2 Si -2.75928 16.9724 4.4844 2.4 1 0.0144794 0.0145907 0.0209042 0.0270173 0.0287969 0.0420593 0.0577901 0.0310953 0.0545954 0.0641208 0.0519419 0.0606362 0.0588057 0.054409 0.079924 0.0702694 0.0494799 0.0922427 0.0561282 0.0624495
95 3 O -2.81617 15.3592 4.4844 -1.2 1 0.0145146 0.0128111 0.014306 0.0243841 0.0314569 0.0220919 0.0419877 0.0633732 0.0432841 0.0502137 0.0423049 0.0735088 0.0475306 0.0597338 0.0661305 0.0686062 0.04752 0.0748495 0.0646658 0.0767657
96 3 O 0.862762 17.9465 4.4844 -1.2 1 0.0231841 0.0246291 0.0240567 0.0152614 0.0208747 0.0486585 0.0357102 0.0503393 0.0444388 0.0533764 0.0414855 0.0461714 0.0454099 0.0713052 0.106318 0.0587714 0.0693805 0.0525307 0.0752255 0.0689584
97 3 O -2.0185 17.6786 3.18632 -1.2 1 0.0188063 0.00995493 0.0179338 0.0163274 0.0199299 0.0384121 0.0429431 0.0556807 0.0439688 0.0518896 0.0539497 0.0484339 0.055838 0.0501571 0.0816227 0.0607713 0.0683196 0.0667439 0.0632076 0.0694088
98 3 O -2.06164 17.6786 5.78248 -1.2 1 0.0236758 0.0197389 0.0186521 0.0137964 0.0173621 0.0261386 0.0466115 0.0470181 0.0373704 0.0386502 0.0576785 0.0390852 0.0574794 0.0577155 0.0879793 0.0693966 0.0682439 0.0637249 0.0678167 0.0770041
99 1 Mg 1.39817 16.6215 2.9896 1.2 1 0.00587082 0.0160282 0.0192945 0.0224389 0.0183661 0.036063 0.0371102 0.0535032 0.0366111 0.0595045 0.0358185 0.0563639 0.0228529 0.0667761 0.0463254 0.0807456 0.048503 0.0914104 0.0457273 0.0885397
100 1 Mg 4.20062 16.5802 4.4844 1.2 1 0.0137377 0.0116792 0.0163617 0.0251801 0.0259906 0.0314057 0.0391673 0.0363885 0.0464006 0.0522826 0.054052 0.055441 0.0687283 0.0683896 0.0532023 0.0719189 0.0704047 0.0967718 0.0739475 0.0798272
101 2 Si 2.37796 18.645 4.4844 2.4 1 0.021741 0.0110485 0.0236755 0.0256193 0.0243692 0.0377956 0.0602213 0.032424 0.055355 0.0574645 0.050875 0.061321 0.0600936 0.0556778 0.0733534 0.0699504 0.0447971 0.100924 0.0525178 0.0558787
102 3 O 2.39434 20.2583 4.4844 -1.2 1 0.0227503 0.0128701 0.00620124 0.0182533 0.0238331 0.0237991 0.0411442 0.0587034 0.0418619 0.0513067 0.041277 0.0712795 0.05177 0.0610466 0.0737033 0.0693754 0.0508236 0.0690016 0.0667614 0.0762987
103 3 O -4.24274 17.671 4.4844 -1.2 1 0.0144353 0.0173597 0.0212203 0.0209227 0.021148 0.0467496 0.0384565 0.0492256 0.0432485 0.0546808 0.0383926 0.0504312 0.0495556 0.0734378 0.1002 0.0645406 0.0755054 0.0535167 0.0765604 0.0716888
104 3 O 3.08659 17.9389 3.18632 -1.2 1 0.0320667 0.0158183 0.0218011 0.00985559 0.0166065 0.0374437 0.0367739 0.0539837 0.0436966 0.0513559 0.0553649 0.0493953 0.0508021 0.0490097 0.0802997 0.0586952 0.0666362 0.061257 0.0669183 0.067999
105 1 Mg 1.44478 16.6215 0 1.2 1 0.00958478 0.0119602 0.0218168 0.0125961 0.0268735 0.031361 0.0479967 0.0353192 0.0507679 0.050491 0.0516225 0.0398581 0.058571 0.0492566 0.0699602 0.0660608 0.0602397 0.0676217 0.0885368 0.0640064
106 3 O 3.0436 17.9389 5.78248 -1.2 1 0.024454 0.0121593 0.0214079 0.0187742 0.0174988 0.0233492 0.0468876 0.0451002 0.0381573 0.0417913 0.060353 0.0358034 0.053164 0.0549389 0.0830489 0.0670365 0.0673266 0.0596213 0.0650324 0.0788343
107 1 Mg -1.40524 16.6628 1.4948 1.2 1 0.0161083 0.0122806 0.0261708 0.019022 0.0173427 0.0343818 0.0355512 0.0423737 0.0414988 0.0595964 0.0415985 0.062716 0.0540684 0.0638324 0.0711774 0.0700639 0.0646554 0.0774018 0.0776772 0.0754439
108 2 Si 0.420358 14.5979 1.4948 2.4 1 0.022484 0.0190414 0.0290812 0.0260409 0.0178307 0.038447 0.0391368 0.0419621 0.0444183 0.0552444 0.0425354 0.061382 0.0574512 0.0633945 0.0671814 0.0591246 0.0718085 0.0766032 0.062439 0.0706997
109 3 O 0.408732 12.9847 1.4948 -1.2 1 0.0221648 0.0155463 0.0229131 0.0256586 0.016869 0.0471664 0.0435285 0.0539491 0.0358537 0.0528118 0.0421883 0.069214 0.0530915 0.0568997 0.0661736 0.0636426 0.0715173 0.054931 0.0682934 0.07173
110 3 O 7.03923 15.572 1.4948 -1.2 1 0.0339043 0.0174433 0.0209137 0.00977921 0.0359013 0.0339458 0.0376122 0.0544977 0.0370564 0.043558 0.051486 0.0528977 0.0488544 0.0739039 0.0782307 0.0774583 0.0649229 0.0700085 0.0626627 0.07724
111 3 O -0.248332 15.3041 0.196716 -1.2 1 0.0188993 0.0129026 0.0211885 0.0183402 0.0251473 0.0464642 0.048934 0.0430501 0.0390225 0.0445851 0.0381715 0.0305092 0.0606317 0.0543052 0.0700705 0.0642442 0.0834674 0.0503716 0.0707455 0.0725504
112 3 O -0.289436 15.3041 2.79288 -1.2 1 0.01441 0.0172983 0.0284874 0.0103887 0.0306839 0.0362962 0.0441779 0.046704 0.0437039 0.0402612 0.0541032 0.047778 0.0512193 0.0540396 0.0720662 0.069835 0.0710683 0.0554826 0.0690643 0.0767016
113 1 Mg 6.59566 18.996 0 1.2 1 0.0137668 0.0116967 0.0198436 0.0146373 0.0260821 0.0317216 0.0430226 0.032911 0.0537635 0.0493589 0.0538171 0.0391535 0.0521111 0.0527612 0.0718784 0.0644815 0.0641043 0.0648158 0.086357 0.0705331
114 1 Mg 3.85574 23.7037 1.4948 1.2 1 0.0104457 0.0130133 0.0208905 0.0143265 0.0225303 0.0288274 0.0313497 0.0372246 0.0388236 0.0602815 0.0464971 0.0616959 0.0499809 0.0669219 0.0649985 0.0722229 0.0667114 0.0799776 0.0799253 0.0752471
115 2 Si 5.66125 21.0195 1.4948 2.4 1 0.00809595 0.024153 0.0232827 0.0271905 0.0193336 0.0463228 0.0340056 0.0413474 0.0491583 0.054041 0.0454637 0.0594611 0.0561776 0.0601685 0.0720364 0.0604917 0.0737477 0.0775314 0.0648116 0.0760126
116 3 O 5.72074 22.6328 1.4948 -1.2 1 0.0281243 0.0188375 0.0181719 0.0227993 0.0192729 0.0445481 0.0452951 0.0620034 0.0380828 0.0523759 0.0324822 0.0701864 0.0485271 0.0531081 0.0680066 0.0567612 0.0649994 0.0679786 0.0558943 0.0720408
117 3 O 2.03867 20.0455 1.4948 -1.2 1 0.0300389 0.0162068 0.0266108 0.0159942 0.0341727 0.03031 0.0359613 0.0551487 0.0442824 0.0425857 0.0505568 0.0498459 0.0473653 0.0743892 0.0847187 0.0726109 0.0618478 0.0681535 0.0633875 0.0734233
118 3 O 4.96004 20.3134 0.196716 -1.2 1 0.0210473 0.0102484 0.0228711 0.0186973 0.0233223 0.0452067 0.043865 0.0478909 0.0388197 0.0397122 0.04126 0.0344542 0.0646497 0.0480801 0.0694347 0.0729534 0.0714217 0.0577731 0.0711958 0.0723195
119 1 Mg 6.55057 18.996 2.9896 1.2 1 0.00929014 0.0174451 0.0204607 0.0212394 0.0205113 0.0337565 0.0367058 0.0549127 0.0343083 0.0590252 0.0348544 0.0628114 0.0223107 0.0702092 0.0456945 0.0738944 0.0469067 0.0955776 0.0440727 0.0931552
120 3 O 4.92172 20.3134 2.79288 -1.2 1 0.0127338 0.0107473 0.0304603 0.0142717 0.0300484 0.0403487 0.0460782 0.0459012 0.0468815 0.0427189 0.052305 0.0412648 0.052931 0.0533256 0.0763431 0.0664005 0.0761405 0.046829 0.0722134 0.0722299
121 1 Mg -0.84282 19.0373 4.4844 1.2 1 0.0149287 0.0121698 0.015221 0.0284924 0.0231759 0.0276125 0.0352791 0.0323292 0.0451764 0.0494679 0.0592752 0.057006 0.0646422 0.0710653 0.0575205 0.0733141 0.0736528 0.0940531 0.0729813 0.0810585
122 2 Si -2.64823 21.7214 4.4844 2.4 1 0.0177233 0.0138329 0.0196754 0.0295712 0.027025 0.0409105 0.0567731 0.0320266 0.0550391 0.0637878 0.0514112 0.0632387 0.0585478 0.0535314 0.0761411 0.0727159 0.0450531 0.0928703 0.0543043 0.0651258
123 3 O -2.70847 20.1082 4.4844 -1.2 1 0.0126722 0.0226547 0.0112763 0.0267132 0.0246772 0.0248852 0.039128 0.0634023 0.0434089 0.0481929 0.0386543 0.071179 0.0519762 0.0592048 0.069105 0.0649038 0.0531231 0.0733765 0.0678842 0.0781813
124 3 O 0.97581 22.6955 4.4844 -1.2 1 0.0157293 0.0218102 0.0242827 0.0199458 0.0195486 0.0410528 0.0304037 0.0499471 0.045883 0.0535966 0.0410526 0.0450691 0.046779 0.0738738 0.108945 0.0535534 0.0672901 0.0572101 0.074836 0.066762
125 3 O -1.9076 22.4276 3.18632 -1.2 1 0.0224686 0.0111486 0.0206122 0.0148418 0.0163937 0.0365591 0.0452648 0.0541217 0.0405233 0.0479146 0.0552332 0.0494717 0.0557062 0.0492704 0.0801222 0.0579959 0.0680083 0.0655287 0.0627551 0.0657302
126 3 O -1.9475 22.4276 5.78248 -1.2 1 0.0103332 0.00985666 0.0218625 0.0184254 0.0154709 0.0258932 0.0489338 0.0464789 0.0393607 0.0371818 0.0571572 0.0416941 0.0581563 0.0616014 0.0860771 0.0670909 0.0729098 0.0648191 0.064956 0.0750664