ITEM: TIMESTEP
6900
ITEM: NUMBER OF ATOMS
10500
ITEM: BOX BOUNDS xy xz yz pp pp pp
0	15.2977	5.09925
0	118.725	0
0	89.688	0
ITEM: ATOMS id type element xu yu zu q Q_1 Q_2 Q_3 Q_4 Q_5 Q_6 Q_7 Q_8 Q_9 Q_10 Q_11 Q_12 Q_13 Q_14 Q_15 Q_16 Q_17 Q_18 Q_19 Q_20 Q_21
1 1 Mg 6.2404 -6.37941e-06 0 1.2 1 0.0132083 0.0409524 0.0295865 0.0358096 0.0333275 0.0411935 0.0358754 0.0687918 0.0392016 0.071089 0.0340914 0.0591974 0.0462821 0.068404 0.0501004 0.0920713 0.051731 0.083879 0.0506859 0.102898
2 1 Mg 3.46349 4.70768 1.4948 1.2 1 0.012486 0.0162651 0.0250885 0.0235705 0.0198393 0.0414461 0.0435195 0.0412247 0.0479799 0.0559322 0.0421756 0.0696179 0.0579225 0.0703952 0.0729384 0.0643269 0.0667707 0.0849805 0.0732998 0.0825617
3 2 Si 5.2885 2.02354 1.4948 2.4 1 0.0219051 0.0223618 0.0366914 0.0256244 0.0309403 0.0366337 0.0534193 0.0335243 0.0442901 0.0519006 0.0558333 0.0617333 0.0557457 0.0637549 0.0682223 0.079186 0.0709368 0.0650021 0.063349 0.0732511
4 3 O 5.33628 3.63678 1.4948 -1.2 1 0.00937504 0.0141501 0.0268374 0.025916 0.0183261 0.0390629 0.0419091 0.0602641 0.0355523 0.0403852 0.0546634 0.0508537 0.0677542 0.0575326 0.0587172 0.0650149 0.0600331 0.0615246 0.0713478 0.0743625
5 3 O 1.67294 1.04952 1.4948 -1.2 1 0.016352 0.0219184 0.0234069 0.0356334 0.0296052 0.0387159 0.0342236 0.0608305 0.0348787 0.0593067 0.0439387 0.0512343 0.0718769 0.0593944 0.0761645 0.0690669 0.0627704 0.064508 0.0796162 0.0601809
6 3 O 4.59532 1.31737 0.196716 -1.2 1 0.0258365 0.0220665 0.0575765 0.0252876 0.0332462 0.0487448 0.0386572 0.0474261 0.0339437 0.0392357 0.0384832 0.0504189 0.054187 0.0572851 0.0633922 0.0700166 0.0621564 0.0714565 0.059281 0.0708474
7 1 Mg 6.18956 -6.37941e-06 2.9896 1.2 1 0.0154956 0.0280917 0.0154217 0.0216354 0.0360587 0.0450433 0.0503256 0.0429786 0.0478213 0.0456191 0.0387354 0.0554107 0.0395569 0.056065 0.0585667 0.0794753 0.0568107 0.0697432 0.0593806 0.0698919
8 3 O 4.55118 1.31737 2.79288 -1.2 1 0.0243678 0.0258251 0.0409073 0.0172511 0.0287619 0.0438083 0.0447092 0.0479116 0.0438784 0.0541987 0.0536788 0.0485503 0.0497411 0.0662299 0.0531389 0.0699087 0.0649896 0.0670973 0.0646908 0.0719184
9 1 Mg -1.20682 0.0413099 4.4844 1.2 1 0.0145129 0.024437 0.0220944 0.0276793 0.0370753 0.0424454 0.0317676 0.0554876 0.0539613 0.0382738 0.0500929 0.0605766 0.0671521 0.0566059 0.0754173 0.0620329 0.0805276 0.0755081 0.0637247 0.0532774
10 2 Si -3.0337 2.72544 4.4844 2.4 1 0.0316686 0.0143031 0.0217173 0.0176933 0.0311331 0.0370356 0.0619514 0.0344098 0.0621613 0.0515264 0.0464935 0.0599115 0.057697 0.0753468 0.0541091 0.0603203 0.0717063 0.0792064 0.0723023 0.0596129
11 3 O -3.08099 1.11221 4.4844 -1.2 1 0.0106998 0.025552 0.0254146 0.0260165 0.0399448 0.0287845 0.0490868 0.0496258 0.0373687 0.0374769 0.0398772 0.0729701 0.0536696 0.0518051 0.0542364 0.0692455 0.0539383 0.0804217 0.0734407 0.0775212
12 3 O 0.582463 3.69946 4.4844 -1.2 1 0.0096131 0.0111998 0.0339683 0.0305244 0.0270184 0.0617347 0.0311925 0.0557623 0.0435747 0.0415862 0.0544019 0.0579816 0.0596778 0.0710687 0.0994852 0.0701449 0.079727 0.0405118 0.0729299 0.0674098
13 3 O -2.29524 3.43162 3.18632 -1.2 1 0.0123633 0.0198628 0.0257784 0.0310147 0.0201029 0.0505363 0.051647 0.0498209 0.0408334 0.0529613 0.0594378 0.0542274 0.0409663 0.0523401 0.0585503 0.0644411 0.0666282 0.0614097 0.0636541 0.073562
14 3 O -2.34216 3.43162 5.78248 -1.2 1 0.0190997 0.00931736 0.0233705 0.0271813 0.0266023 0.0396962 0.0536703 0.0479002 0.0390547 0.0556734 0.0544989 0.0485443 0.0547168 0.0517018 0.0777231 0.0732407 0.0618662 0.0713832 0.075413 0.0715195
15 1 Mg 1.12778 2.37449 2.9896 1.2 1 0.0158071 0.0407044 0.0165345 0.0240563 0.0258556 0.0431945 0.0411176 0.0501436 0.0369598 0.0606759 0.0369567 0.0596448 0.0405079 0.0671999 0.0634303 0.0699541 0.0681203 0.0821352 0.0457392 0.0874787
16 1 Mg 3.92855 2.33318 4.4844 1.2 1 0.0276837 0.0156992 0.02434 0.0297015 0.0440505 0.0252505 0.0387495 0.0368414 0.0472974 0.0681681 0.0519562 0.0605196 0.0497164 0.0606713 0.0545158 0.0739779 0.0636218 0.0940303 0.0746846 0.0859199
17 2 Si 2.09341 4.39804 4.4844 2.4 1 0.0140783 0.0209529 0.0333999 0.0137871 0.041456 0.0279444 0.0636035 0.0210557 0.0445511 0.0479567 0.0622826 0.0613855 0.0672164 0.0585336 0.0726299 0.0756884 0.0714593 0.0807244 0.0500629 0.0669146
18 3 O 2.09991 6.01128 4.4844 -1.2 1 0.0103871 0.0117301 0.0175936 0.0188713 0.033965 0.0227001 0.0521935 0.050994 0.0471151 0.0464783 0.0468812 0.0661383 0.0457222 0.0623067 0.0658709 0.071834 0.0454098 0.0794002 0.0611738 0.0715466
19 3 O -4.52137 3.42402 4.4844 -1.2 1 0.0177116 0.0317268 0.0384151 0.0210699 0.0284743 0.0557949 0.0399292 0.0475897 0.0559126 0.0589156 0.0311792 0.0581206 0.0545845 0.0550274 0.0904091 0.0726521 0.0776771 0.0605063 0.0747248 0.0550256
20 3 O 2.80834 3.69187 3.18632 -1.2 1 0.0111014 0.0203632 0.020826 0.0260751 0.0206852 0.0382439 0.0339943 0.0489615 0.0438195 0.0594038 0.0665134 0.052483 0.0421154 0.06333 0.0702009 0.0716162 0.0611206 0.0588353 0.0709578 0.0711757
21 1 Mg 1.17857 2.37449 0 1.2 1 0.0144467 0.0372888 0.0292935 0.0289389 0.0365893 0.0387438 0.0432985 0.0585448 0.0356794 0.0489998 0.0527133 0.0407406 0.0436397 0.0671089 0.0552473 0.0655246 0.0598638 0.0806664 0.056893 0.0727242
22 3 O 2.76143 3.69187 5.78248 -1.2 1 0.0109324 0.0245074 0.0186955 0.0220809 0.0199109 0.0344447 0.0401128 0.0490024 0.0341204 0.0466817 0.0588296 0.0428656 0.0573691 0.0771245 0.0758259 0.0683017 0.0697319 0.0602416 0.0689909 0.0744093
23 1 Mg -1.67381 2.41581 1.4948 1.2 1 0.0114109 0.0116022 0.0371618 0.0362538 0.0324391 0.0440185 0.0587826 0.0403189 0.0509733 0.0405196 0.0462557 0.0591987 0.0549759 0.0637921 0.061471 0.064385 0.0834319 0.0777922 0.0665487 0.0740846
24 2 Si 0.16286 0.350945 1.4948 2.4 1 0.0152052 0.0321217 0.0280946 0.0234423 0.0355238 0.0356138 0.0558288 0.0512954 0.0527673 0.0487957 0.040514 0.0557976 0.0737795 0.0690498 0.0571939 0.0732235 0.06941 0.0648373 0.0733737 0.0656972
25 3 O 0.15972 -1.26229 1.4948 -1.2 1 0.00911463 0.0155387 0.0396451 0.0214699 0.0371829 0.0359363 0.0454709 0.0564159 0.0472724 0.0515135 0.0558318 0.0566971 0.0634452 0.0664806 0.0494745 0.0596098 0.0696595 0.0668293 0.061983 0.0741529
26 3 O 6.77654 1.32496 1.4948 -1.2 1 0.011499 0.0277269 0.0266413 0.0276715 0.0372354 0.0544832 0.0342398 0.0648072 0.0476279 0.0466839 0.0442973 0.0524196 0.052475 0.0594838 0.0686678 0.0714482 0.0845624 0.0629239 0.0598747 0.0746132
27 3 O -0.508028 1.05712 0.196716 -1.2 1 0.0246834 0.019063 0.0295808 0.0205987 0.0293304 0.053252 0.0436984 0.0446046 0.047117 0.0481541 0.0503143 0.0482184 0.0493592 0.0635458 0.0550085 0.0630637 0.0635208 0.0589394 0.0717992 0.0717372
28 3 O -0.552171 1.05712 2.79288 -1.2 1 0.0364513 0.0265945 0.0362193 0.0320486 0.0220174 0.0431293 0.0428448 0.0464516 0.0440002 0.0367321 0.0477464 0.0488425 0.0584593 0.0636161 0.0656686 0.0762097 0.073568 0.0502906 0.0704295 0.0717842
29 1 Mg 6.31713 4.74899 0 1.2 1 0.0272995 0.029254 0.0303659 0.0366659 0.0325825 0.0267099 0.041832 0.0558794 0.0585378 0.049484 0.0509423 0.0383854 0.059315 0.0613205 0.0655112 0.063772 0.0659853 0.0735308 0.0695562 0.0703413
30 1 Mg 3.54847 9.45668 1.4948 1.2 1 0.0217884 0.0143636 0.0180443 0.0204163 0.0182681 0.038269 0.0381605 0.0418394 0.0449731 0.0554943 0.0387031 0.0692915 0.0521914 0.0655348 0.0715332 0.0633285 0.066839 0.087222 0.0740466 0.0791381
31 2 Si 5.36879 6.77254 1.4948 2.4 1 0.0290707 0.0269513 0.0239153 0.0256485 0.0247837 0.0349322 0.0443877 0.0363105 0.0449534 0.0572264 0.0421349 0.0584327 0.0532534 0.0663969 0.0655634 0.0743586 0.0670367 0.0789721 0.0558702 0.0685492
32 3 O 5.41937 8.38578 1.4948 -1.2 1 0.0215468 0.0114304 0.02352 0.0296219 0.0174994 0.0431843 0.0441266 0.0572821 0.0363766 0.0505965 0.0475134 0.0640882 0.0551529 0.053913 0.066346 0.0607194 0.0728212 0.056078 0.0731073 0.0731621
33 3 O 1.75158 5.79852 1.4948 -1.2 1 0.0284556 0.0123707 0.0224908 0.0266385 0.0440492 0.0306837 0.0393617 0.0567832 0.040782 0.0524505 0.0495015 0.0506053 0.047514 0.0712343 0.0787463 0.0786321 0.0603897 0.0750777 0.0600693 0.0767998
34 3 O 4.67421 6.06637 0.196716 -1.2 1 0.014587 0.026501 0.031532 0.0243037 0.0320664 0.037832 0.0345286 0.0322772 0.0448496 0.0561406 0.0392665 0.0443439 0.0669326 0.0561908 0.0676108 0.071284 0.0713667 0.065782 0.0631739 0.0681782
35 1 Mg 6.26654 4.74899 2.9896 1.2 1 0.0220548 0.0245425 0.0235245 0.043486 0.0257354 0.0444262 0.0481878 0.0482178 0.0358669 0.0621356 0.0370606 0.0600704 0.0383527 0.0645253 0.052389 0.0771077 0.0555936 0.084484 0.0465231 0.0901832
36 3 O 4.63043 6.06637 2.79288 -1.2 1 0.0187688 0.0198579 0.0415373 0.0192237 0.0320532 0.0369113 0.0428284 0.0486002 0.045081 0.0369874 0.048944 0.0526536 0.0572487 0.0653168 0.0619414 0.0727496 0.0652039 0.0683364 0.0674737 0.0850443
37 1 Mg -1.12976 4.79031 4.4844 1.2 1 0.0233143 0.0285104 0.0121966 0.0137149 0.0367648 0.0392972 0.0480321 0.0483427 0.0424147 0.0442498 0.0550167 0.0607768 0.0748821 0.072282 0.0599598 0.0676832 0.0723305 0.0943065 0.0712534 0.0818047
38 2 Si -2.9517 7.47444 4.4844 2.4 1 0.0225344 0.0137301 0.0199735 0.0283005 0.0306528 0.041438 0.0626198 0.0286344 0.0554487 0.0580348 0.051472 0.0573241 0.0623188 0.0562783 0.0796487 0.0715728 0.0527427 0.088752 0.0554939 0.0600361
39 3 O -3.00198 5.86121 4.4844 -1.2 1 0.0153938 0.0236612 0.0270819 0.0278221 0.0326885 0.0315588 0.0541374 0.0590508 0.0378821 0.0535535 0.0475398 0.0707743 0.0586005 0.0558947 0.066081 0.0705756 0.049942 0.0777311 0.0616334 0.0780321
40 3 O 0.666315 8.44846 4.4844 -1.2 1 0.016321 0.0230297 0.023762 0.0181502 0.0206508 0.0563864 0.0291677 0.051296 0.041813 0.0479677 0.0427518 0.0519831 0.0501292 0.0754382 0.100804 0.0661565 0.076604 0.0507809 0.0719689 0.0728016
41 3 O -2.21213 8.18062 3.18632 -1.2 1 0.0137348 0.0137125 0.0168087 0.0157245 0.0166748 0.0369264 0.0462965 0.0564131 0.0455889 0.0543378 0.05433 0.0506385 0.0536277 0.0478792 0.0783074 0.0633108 0.0716746 0.0588195 0.0676336 0.0711838
42 3 O -2.25864 8.18062 5.78248 -1.2 1 0.0208673 0.0158954 0.0161571 0.0162525 0.0189078 0.0277213 0.0476138 0.0519959 0.037793 0.0413852 0.0543535 0.040262 0.059432 0.0564609 0.0854622 0.0682529 0.068514 0.0644389 0.0694883 0.0740629
43 1 Mg 1.20893 7.12349 2.9896 1.2 1 0.00769782 0.0225495 0.0186588 0.0249036 0.0240186 0.0394692 0.0426037 0.0463617 0.0345302 0.0653165 0.0393006 0.0667629 0.0362917 0.0587425 0.052532 0.0795439 0.0513785 0.0837596 0.0469082 0.0874732
44 1 Mg 4.00982 7.08218 4.4844 1.2 1 0.0195485 0.0157447 0.0261655 0.0367843 0.0329737 0.034994 0.0449321 0.0371116 0.0464384 0.0507343 0.0584284 0.0550124 0.0718771 0.0734202 0.0578974 0.0680753 0.0644536 0.0982114 0.0748439 0.0799458
45 2 Si 2.17861 9.14704 4.4844 2.4 1 0.0241406 0.0102495 0.0252024 0.0229681 0.0312212 0.0331925 0.0624258 0.0243104 0.0508979 0.0549693 0.0552423 0.0607441 0.0642176 0.0570451 0.0779121 0.0687529 0.0499683 0.0947654 0.0550394 0.0582317
46 3 O 2.18828 10.7603 4.4844 -1.2 1 0.0190045 0.0143178 0.00539659 0.0164393 0.0296126 0.0220373 0.0465213 0.0605644 0.0413654 0.0550959 0.0404499 0.071195 0.043339 0.0642223 0.069093 0.073491 0.0477363 0.0712468 0.0634183 0.0735634
47 3 O -4.43805 8.17302 4.4844 -1.2 1 0.0157582 0.0172479 0.0173891 0.0168665 0.0224609 0.0558382 0.0372336 0.0492113 0.0416656 0.0486413 0.0376372 0.0531137 0.0533619 0.0730091 0.0991148 0.0670834 0.0797395 0.0536457 0.0745162 0.0742145
48 3 O 2.89193 8.44087 3.18632 -1.2 1 0.0180083 0.0157172 0.0181111 0.0145854 0.021482 0.0415657 0.0338722 0.0556791 0.0434801 0.0514501 0.058838 0.0488405 0.0515445 0.0529083 0.0803611 0.0633446 0.0701989 0.0594213 0.0648063 0.0735382
49 1 Mg 1.25915 7.12349 0 1.2 1 0.0188044 0.0174646 0.0282673 0.014782 0.0320892 0.0247035 0.0502802 0.0399456 0.0562063 0.0496385 0.0539569 0.0427307 0.0710039 0.0513537 0.068659 0.070776 0.0639368 0.070941 0.0790979 0.0589829
50 3 O 2.84547 8.44087 5.78248 -1.2 1 0.0106516 0.0155546 0.0136147 0.021413 0.0215463 0.028212 0.0459281 0.0476655 0.0395055 0.0400715 0.0583249 0.0414923 0.0589082 0.0607999 0.0903084 0.0624266 0.0701974 0.0633409 0.0648719 0.0760495
51 1 Mg -1.59284 7.16481 1.4948 1.2 1 0.0098212 0.016372 0.0204545 0.0203851 0.0149411 0.0372187 0.0463226 0.0425508 0.0431414 0.0575616 0.0387974 0.0661625 0.0520262 0.0692429 0.075776 0.0607273 0.0677639 0.0843515 0.0736463 0.0784579
52 2 Si 0.240329 5.09994 1.4948 2.4 1 0.0246458 0.0173161 0.0159639 0.0433523 0.0272425 0.0405039 0.0467146 0.0533364 0.0549234 0.0486368 0.0456572 0.0574013 0.0592948 0.068106 0.0655941 0.0663519 0.0640824 0.0729224 0.0664383 0.0682139
53 3 O 0.234538 3.48671 1.4948 -1.2 1 0.0131692 0.016379 0.0265949 0.0358723 0.0313863 0.0492781 0.0459227 0.0424471 0.0528342 0.0467475 0.0523076 0.0612823 0.056227 0.0608639 0.0619455 0.06244 0.0627855 0.0571685 0.0759379 0.0735626
54 3 O 6.85564 6.07396 1.4948 -1.2 1 0.0324692 0.0194251 0.0344785 0.0276158 0.0372129 0.0403354 0.0323988 0.0625257 0.0365199 0.0532735 0.0538581 0.0535503 0.0551207 0.0732786 0.0698296 0.0769761 0.0664118 0.0723425 0.0532177 0.0848324
55 3 O -0.429565 5.80612 0.196716 -1.2 1 0.0340217 0.0200235 0.0159749 0.0212955 0.0409457 0.037457 0.0538765 0.0450992 0.0460187 0.0564418 0.0397732 0.0419184 0.0532287 0.0600837 0.0599571 0.0681206 0.0705223 0.0610036 0.0652173 0.0743366
56 3 O -0.473377 5.80612 2.79288 -1.2 1 0.0246828 0.0213481 0.0340502 0.01884 0.0347685 0.0461607 0.0493641 0.0485743 0.0545848 0.0454135 0.062591 0.0384937 0.0434558 0.0593967 0.0663378 0.0718436 0.0652812 0.0681562 0.0713713 0.0805777
57 1 Mg 6.40169 9.49799 0 1.2 1 0.0127434 0.0118891 0.0211479 0.0142842 0.030448 0.0211169 0.0521153 0.0355646 0.0586182 0.0491968 0.0498453 0.0354541 0.0672254 0.0528759 0.071031 0.0672661 0.0651652 0.0706233 0.0810304 0.0687111
58 1 Mg 3.64209 14.2057 1.4948 1.2 1 0.00620543 0.0139518 0.0176401 0.0194843 0.0218448 0.0341424 0.0365954 0.0430591 0.0401893 0.0545684 0.0389147 0.0687705 0.0544108 0.0666456 0.0746237 0.0631456 0.0640482 0.0832567 0.0749418 0.0783225
59 2 Si 5.45748 11.5215 1.4948 2.4 1 0.0119524 0.021827 0.0233166 0.0247771 0.0180308 0.0402422 0.039696 0.0399885 0.0435499 0.0545654 0.0424128 0.0603196 0.0533688 0.0662947 0.0694979 0.0634979 0.0710032 0.0817755 0.0581518 0.066647
60 3 O 5.51101 13.1348 1.4948 -1.2 1 0.0242359 0.0134465 0.0223666 0.029379 0.0199174 0.0433978 0.0444482 0.0591033 0.0365045 0.0497226 0.0429503 0.0671216 0.0533354 0.0535737 0.0656442 0.0598746 0.0706269 0.0579087 0.0694873 0.0718937
61 3 O 1.83851 10.5475 1.4948 -1.2 1 0.035172 0.0140156 0.0216078 0.0140177 0.036348 0.0303245 0.0364124 0.058978 0.0399407 0.0483257 0.049795 0.0513504 0.0470364 0.0749879 0.0757783 0.0799915 0.056573 0.0759844 0.0577092 0.0789682
62 3 O 4.7611 10.8154 0.196716 -1.2 1 0.0357245 0.019273 0.0198569 0.0181336 0.0267198 0.0442314 0.0483509 0.037522 0.0387952 0.0492261 0.0369183 0.0409934 0.0607149 0.0608752 0.0649661 0.0714889 0.0754174 0.0656783 0.0729977 0.0678752
63 1 Mg 6.35203 9.49799 2.9896 1.2 1 0.0129387 0.0174655 0.0254418 0.021243 0.0193239 0.037993 0.0372944 0.05128 0.03496 0.0587039 0.0315856 0.0647265 0.0285035 0.0665488 0.0472953 0.0801683 0.0455532 0.0898596 0.0453426 0.0909318
64 3 O 4.71833 10.8154 2.79288 -1.2 1 0.0216021 0.0129645 0.0327639 0.0127118 0.030466 0.0429435 0.0436455 0.0446987 0.0432516 0.0375181 0.0533509 0.0419834 0.0543542 0.0584433 0.0738247 0.0685256 0.0728738 0.0592244 0.0696225 0.0798137
65 1 Mg -1.0438 9.53931 4.4844 1.2 1 0.0141982 0.0166661 0.016697 0.0241961 0.0267494 0.0289531 0.0396175 0.0354126 0.0462795 0.0505971 0.0577027 0.0567377 0.069506 0.0706366 0.0593694 0.0688816 0.0725817 0.0987938 0.0713764 0.0856681
66 2 Si -2.8604 12.2234 4.4844 2.4 1 0.018582 0.0120634 0.0163149 0.0263944 0.030317 0.0417949 0.0597797 0.0303574 0.053994 0.0623117 0.0551238 0.0635944 0.0609269 0.0550142 0.0798908 0.0719855 0.0492084 0.091337 0.0535885 0.0632248
67 3 O -2.91391 10.6102 4.4844 -1.2 1 0.0178341 0.0133812 0.00982718 0.021522 0.0310702 0.0226722 0.0475274 0.0634251 0.040794 0.0517584 0.037144 0.0710851 0.0443709 0.0598276 0.0675579 0.0721452 0.0486825 0.0740925 0.061959 0.0758211
68 3 O 0.7596 13.1975 4.4844 -1.2 1 0.02268 0.0253699 0.0185767 0.0122181 0.0242887 0.0489946 0.0332612 0.0518435 0.0460969 0.0497954 0.038958 0.0498182 0.0474234 0.0714209 0.100667 0.0609556 0.0761129 0.052749 0.0734096 0.0709722
69 3 O -2.12001 12.9296 3.18632 -1.2 1 0.0173964 0.00915893 0.0191104 0.0167844 0.0204074 0.0387412 0.041811 0.0552747 0.0466581 0.0519915 0.0542828 0.0485279 0.0561654 0.0503767 0.0805431 0.064104 0.0717107 0.0629119 0.066588 0.0699508
70 3 O -2.16532 12.9296 5.78248 -1.2 1 0.0112337 0.00985619 0.0223144 0.0228131 0.016779 0.030254 0.0493946 0.0468626 0.0379174 0.0403107 0.0571632 0.037434 0.0578869 0.0608274 0.0824643 0.0699511 0.0698487 0.0638278 0.0691478 0.0772802
71 1 Mg 1.29891 11.8725 2.9896 1.2 1 0.00825234 0.0161013 0.0219465 0.024523 0.0171328 0.0394757 0.0360612 0.0495359 0.0353221 0.0599875 0.0343839 0.0599144 0.0247015 0.0674217 0.0490439 0.0834576 0.0491866 0.0892384 0.0473485 0.0869627
72 1 Mg 4.10033 11.8312 4.4844 1.2 1 0.0106852 0.0184567 0.0181669 0.0282688 0.0279805 0.0316573 0.0429913 0.0349442 0.0470659 0.0505092 0.0554004 0.0536856 0.0690177 0.0698922 0.0536614 0.070704 0.0709088 0.0985725 0.0745724 0.0799403
73 2 Si 2.27333 13.896 4.4844 2.4 1 0.0246045 0.00937132 0.0272181 0.02448 0.0242265 0.0376217 0.0619919 0.0297825 0.0544779 0.0569454 0.0535271 0.0602023 0.0615762 0.0563058 0.0769526 0.0690342 0.0465399 0.0979866 0.0541121 0.0560799
74 3 O 2.28634 15.5093 4.4844 -1.2 1 0.020306 0.0183905 0.00295682 0.0202927 0.0263062 0.0223841 0.04308 0.0590485 0.0417268 0.0534336 0.0412331 0.0710865 0.0463378 0.0643482 0.0709183 0.0710265 0.0493552 0.0710813 0.0655049 0.0754276
75 3 O -4.34533 12.922 4.4844 -1.2 1 0.0162446 0.0212186 0.0213871 0.017981 0.0219737 0.0533453 0.032564 0.0502381 0.0441915 0.0517305 0.0390296 0.0538468 0.0498654 0.0708433 0.102037 0.0655664 0.0786265 0.0535111 0.0754477 0.0726564
76 3 O 2.98455 13.1899 3.18632 -1.2 1 0.022869 0.0116347 0.0178374 0.0116621 0.0204869 0.0419426 0.0388379 0.0581919 0.0455399 0.0524418 0.0564538 0.048783 0.0511498 0.0511433 0.0809308 0.0618463 0.0667137 0.0604874 0.0637699 0.0720074
77 1 Mg 1.34779 11.8725 0 1.2 1 0.0218311 0.00922412 0.0219336 0.0146522 0.0287582 0.0225721 0.0516688 0.0346871 0.0575545 0.0509465 0.0496603 0.0355058 0.0651045 0.0500657 0.070763 0.0642153 0.0615485 0.0701404 0.0872159 0.0599069
78 3 O 2.93934 13.1899 5.78248 -1.2 1 0.0159265 0.0130669 0.0184337 0.0228912 0.020199 0.0274747 0.0480388 0.0483012 0.0423468 0.0410248 0.0582065 0.0378198 0.0577822 0.0610868 0.0881357 0.0655556 0.070045 0.0634413 0.0643734 0.078271
79 1 Mg -1.50344 11.9138 1.4948 1.2 1 0.0129395 0.0179493 0.0228503 0.0204176 0.0117934 0.0369467 0.0383362 0.042461 0.0411354 0.0598772 0.035191 0.0651521 0.0505647 0.0649549 0.0746379 0.0680936 0.0641417 0.08405 0.0765005 0.0787258
80 2 Si 0.326006 9.84894 1.4948 2.4 1 0.0250408 0.0193028 0.0249367 0.0304162 0.0171949 0.0387954 0.0440662 0.0377003 0.0447707 0.056115 0.0403806 0.0596871 0.0552136 0.0670178 0.0609673 0.0636219 0.0703958 0.0793788 0.0618655 0.0687717
81 3 O 0.317364 8.23571 1.4948 -1.2 1 0.0224104 0.0125516 0.0226437 0.0239435 0.0202557 0.0452557 0.0428265 0.0498512 0.0345824 0.0541923 0.0442471 0.0657981 0.0574059 0.0596863 0.0681996 0.0664626 0.0716257 0.0534781 0.0734277 0.0740872
82 3 O 6.94307 10.823 1.4948 -1.2 1 0.0312158 0.014813 0.0219912 0.0117118 0.037288 0.0329886 0.0381665 0.0577683 0.0347249 0.0475972 0.0512787 0.0525736 0.0501663 0.0747972 0.0727514 0.0798105 0.0617252 0.0728743 0.0581973 0.0802526
83 3 O -0.343122 10.5551 0.196716 -1.2 1 0.0308626 0.0174995 0.0216397 0.0208856 0.0297591 0.0413947 0.0513283 0.0397899 0.0386895 0.0506449 0.0371153 0.0375144 0.0613428 0.0609868 0.0688189 0.0708166 0.0811121 0.0540914 0.0702693 0.0694986
84 3 O -0.385966 10.5551 2.79288 -1.2 1 0.0229137 0.0147126 0.0332195 0.0123872 0.032941 0.0437951 0.0453841 0.0454293 0.0448636 0.0389139 0.0528705 0.0477961 0.0493859 0.056496 0.0696525 0.0702784 0.0664354 0.0613446 0.0692296 0.0791567
85 1 Mg 6.49448 14.247 0 1.2 1 0.0225849 0.00998717 0.0185349 0.0170025 0.0286869 0.0228136 0.0479156 0.0328938 0.059279 0.0482527 0.0512113 0.0375754 0.0625887 0.0529275 0.0712239 0.0653109 0.0644109 0.0707467 0.0846042 0.0706559
86 1 Mg 3.74457 18.9547 1.4948 1.2 1 0.0149247 0.0107559 0.0153002 0.0160471 0.0258968 0.0292945 0.0314162 0.0393525 0.0381809 0.0579925 0.0436312 0.0666544 0.0506468 0.0663231 0.0705422 0.0697161 0.0631254 0.0830947 0.078346 0.0759189
87 2 Si 5.55495 16.2705 1.4948 2.4 1 0.0120769 0.0201453 0.0220091 0.0268224 0.0184484 0.0425273 0.0364675 0.0422029 0.0453424 0.0518577 0.0434904 0.0612989 0.0541455 0.0638782 0.0697699 0.0589781 0.0728322 0.0798458 0.0603354 0.0703978
88 3 O 5.6115 17.8838 1.4948 -1.2 1 0.0269293 0.0181275 0.0233574 0.025625 0.0192586 0.0435069 0.045246 0.0608873 0.0373238 0.0499972 0.0380536 0.0670633 0.0512408 0.0560954 0.0644647 0.0573731 0.065728 0.0616351 0.0632495 0.0691758
89 3 O 1.93416 15.2965 1.4948 -1.2 1 0.0370906 0.0147755 0.0219624 0.012999 0.035051 0.0301875 0.0361921 0.0590611 0.0429255 0.0468844 0.0486298 0.0506217 0.0465839 0.0738384 0.0808206 0.0776258 0.0589468 0.0739294 0.0623936 0.0772054
90 3 O 4.85636 15.5644 0.196716 -1.2 1 0.0225078 0.0117594 0.0212668 0.0188777 0.0251547 0.0513731 0.0496538 0.0397177 0.0393107 0.0442518 0.0377087 0.0323526 0.063096 0.0546278 0.0672288 0.0676069 0.076292 0.0628601 0.0726941 0.0686934
91 1 Mg 6.44662 14.247 2.9896 1.2 1 0.0102582 0.0179475 0.0226231 0.0217908 0.0187125 0.0355315 0.0380534 0.0538149 0.0362585 0.0571603 0.0336315 0.0627774 0.0251312 0.0674466 0.0460331 0.0769314 0.0456485 0.0916683 0.0437771 0.0925379
92 3 O 4.81537 15.5644 2.79288 -1.2 1 0.0118833 0.00954063 0.0293821 0.0131573 0.0280043 0.0372868 0.0466098 0.0471367 0.0458803 0.0388895 0.0513194 0.0419849 0.0534185 0.0575391 0.0755938 0.0668118 0.0763231 0.0526084 0.0720815 0.0754853
93 1 Mg -0.948271 14.2883 4.4844 1.2 1 0.016554 0.0124598 0.0143915 0.0287081 0.024057 0.0281655 0.038204 0.0343164 0.0443078 0.048903 0.0591594 0.0566855 0.0668074 0.0682693 0.0594491 0.0703956 0.070658 0.0955908 0.0740999 0.0822091
94 2 Si -2.75928 16.9724 4.4844 2.4 1 0.0202434 0.0118264 0.0178843 0.0277807 0.0294864 0.0414633 0.0587763 0.0314283 0.0547997 0.06244 0.0529466 0.0638131 0.0600392 0.0550034 0.0779492 0.0721595 0.0470866 0.0922126 0.0526067 0.0633488
95 3 O -2.81617 15.3592 4.4844 -1.2 1 0.0159673 0.0144524 0.0135623 0.0245562 0.0299205 0.0224806 0.0446708 0.0648545 0.0439833 0.0514715 0.0378116 0.0718238 0.0473919 0.0582727 0.0674504 0.0689174 0.0500131 0.0732807 0.0628451 0.0749969
96 3 O 0.862762 17.9465 4.4844 -1.2 1 0.0156138 0.0229758 0.0206983 0.0187214 0.0209692 0.051907 0.0319068 0.0532662 0.0465622 0.052549 0.0412554 0.048217 0.0457812 0.0709464 0.10786 0.0563108 0.0711504 0.054311 0.0748343 0.0686448
97 3 O -2.0185 17.6786 3.18632 -1.2 1 0.0187492 0.00985952 0.0181752 0.0168851 0.0189073 0.0400372 0.043047 0.0557146 0.0442859 0.0513796 0.054127 0.0488453 0.0562989 0.0510958 0.0816364 0.0608513 0.0687072 0.0653836 0.0641951 0.0690889
98 3 O -2.06164 17.6786 5.78248 -1.2 1 0.0106142 0.00679322 0.0227929 0.0212555 0.0179158 0.0292392 0.0475083 0.0492624 0.0366449 0.0394186 0.0574526 0.0400945 0.0577581 0.0611667 0.0823952 0.0702531 0.0701044 0.0635682 0.0673561 0.0757845
99 1 Mg 1.39817 16.6215 2.9896 1.2 1 0.00611409 0.0164256 0.0190396 0.0226151 0.0178967 0.0362693 0.0370022 0.0530585 0.0368335 0.0592134 0.0357205 0.0568637 0.0236392 0.067187 0.0471874 0.08055 0.0495269 0.0917207 0.0452226 0.0886575
100 1 Mg 4.20062 16.5802 4.4844 1.2 1 0.0164061 0.0149454 0.01562 0.0268125 0.0231857 0.0308135 0.0433648 0.0344791 0.0458968 0.0516872 0.0548566 0.0552972 0.0679644 0.0685766 0.0534311 0.0724995 0.0700602 0.0960783 0.0734505 0.0809275
101 2 Si 2.37796 18.645 4.4844 2.4 1 0.0214722 0.012113 0.0244089 0.0252743 0.023841 0.0374028 0.060635 0.0317864 0.0557831 0.058999 0.0513875 0.0610315 0.0607073 0.0560501 0.0745637 0.067922 0.0451435 0.100086 0.0529754 0.0568443
102 3 O 2.39434 20.2583 4.4844 -1.2 1 0.0212246 0.010724 0.0084819 0.0157009 0.0238501 0.0225894 0.0400109 0.058513 0.0423928 0.0487115 0.0420145 0.0739168 0.0515783 0.0627776 0.0715808 0.0687911 0.0478264 0.0698619 0.0674596 0.0784973
103 3 O -4.24274 17.671 4.4844 -1.2 1 0.0226589 0.0220649 0.0212837 0.0162663 0.0202475 0.0489504 0.0355531 0.0478013 0.0426221 0.0536817 0.0394058 0.0514155 0.0496625 0.0716581 0.098833 0.0623875 0.0747622 0.054601 0.0772661 0.072188
104 3 O 3.08659 17.9389 3.18632 -1.2 1 0.0254604 0.0142273 0.0203261 0.0118812 0.0183139 0.0405489 0.0380351 0.0558576 0.0460636 0.0497427 0.057147 0.0472852 0.0519355 0.0513379 0.0802006 0.0592558 0.0669734 0.0603794 0.0636199 0.0696259
105 1 Mg 1.44478 16.6215 0 1.2 1 0.00958504 0.0119903 0.0217156 0.0127336 0.0267899 0.0314823 0.04783 0.0353357 0.0507757 0.0503668 0.0519282 0.0397448 0.0586854 0.0493876 0.0697359 0.0661183 0.0601528 0.0678575 0.0886361 0.0639242
106 3 O 3.0436 17.9389 5.78248 -1.2 1 0.018968 0.0158495 0.016849 0.02045 0.0182576 0.0259995 0.0467664 0.0482332 0.0410609 0.0405476 0.0590114 0.0381779 0.0562308 0.0594607 0.0874446 0.0642545 0.0679008 0.0620877 0.0651906 0.0783429
107 1 Mg -1.40524 16.6628 1.4948 1.2 1 0.0116004 0.0125169 0.0257074 0.0176445 0.017413 0.0344597 0.0361809 0.0425615 0.0413487 0.0603937 0.0405506 0.0626525 0.054833 0.0644849 0.0738685 0.0693083 0.0642744 0.0778485 0.0783379 0.0758806
108 2 Si 0.420358 14.5979 1.4948 2.4 1 0.0225422 0.0192745 0.0289632 0.0259664 0.0176193 0.0385701 0.0390583 0.0418491 0.0441817 0.0549906 0.0426557 0.0614922 0.0578019 0.0634443 0.0671504 0.0590287 0.0721327 0.0767081 0.0627267 0.0713129
109 3 O 0.408732 12.9847 1.4948 -1.2 1 0.0222041 0.0154711 0.0228652 0.0256304 0.0167557 0.0471232 0.0437912 0.0539111 0.0361667 0.0528426 0.0421982 0.0693188 0.0531355 0.056803 0.0659096 0.0637827 0.0713248 0.0550824 0.0682682 0.0719287
110 3 O 7.03923 15.572 1.4948 -1.2 1 0.0293233 0.0168182 0.0217473 0.0126443 0.036064 0.0335592 0.0368929 0.056252 0.0382639 0.0445062 0.0511674 0.0534523 0.0481266 0.0740013 0.0781257 0.0782864 0.0642788 0.0695754 0.062414 0.0773203
111 3 O -0.248332 15.3041 0.196716 -1.2 1 0.018936 0.013 0.0212095 0.0184484 0.0252093 0.0464802 0.0488188 0.0430177 0.0391426 0.0448306 0.0378354 0.030704 0.0607206 0.0540489 0.070032 0.0642097 0.0832307 0.0502734 0.0703719 0.0722689
112 3 O -0.289436 15.3041 2.79288 -1.2 1 0.0143887 0.0174326 0.0288647 0.0107854 0.0309836 0.035918 0.0440731 0.0468922 0.0437661 0.0403678 0.0542142 0.0487178 0.0512526 0.0535255 0.0726683 0.0703727 0.0714512 0.0550538 0.0690232 0.0764752
113 1 Mg 6.59566 18.996 0 1.2 1 0.0138338 0.0116318 0.0198732 0.014429 0.0260394 0.0316207 0.0431677 0.0330462 0.0539244 0.0492383 0.0538539 0.0390911 0.0522077 0.0529325 0.0722404 0.0644401 0.0641625 0.0647591 0.0860882 0.0706843
114 1 Mg 3.85574 23.7037 1.4948 1.2 1 0.0106831 0.0127338 0.0211653 0.0140167 0.0225366 0.028862 0.031184 0.0372468 0.0390595 0.0600951 0.0468795 0.062622 0.0500437 0.0668407 0.0647423 0.0722897 0.0664296 0.0797505 0.0797632 0.0758636
115 2 Si 5.66125 21.0195 1.4948 2.4 1 0.00827838 0.0242374 0.0232449 0.0272644 0.0193079 0.0462441 0.0341832 0.0414553 0.0493191 0.0543009 0.0454311 0.0605867 0.0560275 0.0594294 0.0719115 0.0606694 0.0733688 0.0773451 0.0642473 0.0757436
116 3 O 5.72074 22.6328 1.4948 -1.2 1 0.0282436 0.0190976 0.018308 0.0227376 0.0191998 0.0446639 0.0454941 0.0619148 0.0382715 0.0521108 0.0329241 0.0697904 0.0493062 0.0535772 0.0681059 0.0558094 0.0649734 0.0678802 0.0563173 0.0713084
117 3 O 2.03867 20.0455 1.4948 -1.2 1 0.0300284 0.0165047 0.026803 0.0158159 0.0341603 0.0299045 0.0361172 0.0551517 0.0437394 0.0425992 0.050555 0.0506029 0.048137 0.0737419 0.0849421 0.0728029 0.0618298 0.0680156 0.0638308 0.0731548
118 3 O 4.96004 20.3134 0.196716 -1.2 1 0.021089 0.0103374 0.0228659 0.0187648 0.0232717 0.0453531 0.0439462 0.0479818 0.0389593 0.0399021 0.0411295 0.0342844 0.0646681 0.0476925 0.0695974 0.0728819 0.0715569 0.058098 0.0716461 0.0720505
119 1 Mg 6.55057 18.996 2.9896 1.2 1 0.0091901 0.017189 0.0203867 0.0213505 0.0209908 0.0340266 0.0373751 0.0551913 0.0341478 0.0595472 0.0342457 0.0624955 0.0225806 0.0702131 0.0452089 0.0737809 0.0466434 0.0955386 0.0440218 0.0934126
120 3 O 4.92172 20.3134 2.79288 -1.2 1 0.00985608 0.011435 0.0312599 0.0149287 0.0298771 0.0399113 0.0462525 0.0454474 0.0473784 0.0429858 0.052138 0.0405751 0.0535127 0.0540383 0.0769456 0.0674356 0.0761044 0.0483825 0.0718556 0.0721319
121 1 Mg -0.84282 19.0373 4.4844 1.2 1 0.0143271 0.0121845 0.0136549 0.0276657 0.0235012 0.0272181 0.0369579 0.0328327 0.044685 0.049162 0.0595082 0.0570943 0.0665129 0.068654 0.0587731 0.0727271 0.0714012 0.0939278 0.0739487 0.0825125
122 2 Si -2.64823 21.7214 4.4844 2.4 1 0.0196321 0.012823 0.016872 0.027707 0.0285604 0.0412555 0.0563944 0.0310572 0.0549008 0.0622605 0.0525224 0.0645081 0.0601992 0.0552535 0.0769391 0.0723422 0.0457137 0.0941683 0.0539719 0.0638675
123 3 O -2.70847 20.1082 4.4844 -1.2 1 0.0140535 0.0198275 0.013626 0.0270252 0.0240593 0.0249764 0.0386832 0.0640158 0.0434116 0.0477241 0.0386822 0.0701846 0.051587 0.0584365 0.0684445 0.0641285 0.0526197 0.0726141 0.0675386 0.0759548
124 3 O 0.97581 22.6955 4.4844 -1.2 1 0.015534 0.0252527 0.0204961 0.0167693 0.019481 0.0417533 0.0313317 0.051454 0.0452989 0.0545332 0.0396455 0.0464853 0.0452356 0.0721979 0.108575 0.0518857 0.0675295 0.0547659 0.0745824 0.066527
125 3 O -1.9076 22.4276 3.18632 -1.2 1 0.0218316 0.00793406 0.0207735 0.0163426 0.0133639 0.0367147 0.0440746 0.0556735 0.0372606 0.0504728 0.0545022 0.0485624 0.0561274 0.0478719 0.0810111 0.0579241 0.0690793 0.0658908 0.0630638 0.0655281
126 3 O -1.9475 22.4276 5.78248 -1.2 1 0.0132316 0.00978697 0.0227505 0.0228392 0.0167399 0.0265338 0.0493122 0.0455462 0.0373625 0.0384218 0.0567874 0.0385138 0.0557959 0.0593786 0.0821202 0.0680311 0.0700805 0.0645597 0.0674828 0.0764202