ITEM: TIMESTEP
38900
ITEM: NUMBER OF ATOMS
10500
ITEM: BOX BOUNDS xy xz yz pp pp pp
0	15.2977	5.09925
0	118.725	0
0	89.688	0
ITEM: ATOMS id type element xu yu zu q Q_1 Q_2 Q_3 Q_4 Q_5 Q_6 Q_7 Q_8 Q_9 Q_10 Q_11 Q_12 Q_13 Q_14 Q_15 Q_16 Q_17 Q_18 Q_19 Q_20 Q_21
1 1 Mg 6.2404 -6.37941e-06 0 1.2 1 0.0100974 0.0413558 0.0322027 0.0368972 0.0315107 0.0391963 0.0362778 0.066698 0.0406559 0.0710892 0.0348375 0.0616103 0.0472327 0.0690669 0.0495756 0.0904104 0.0511052 0.0831174 0.051314 0.101389
2 1 Mg 3.46349 4.70768 1.4948 1.2 1 0.0124818 0.0161426 0.0251906 0.0236687 0.0197828 0.0413977 0.0437379 0.0407455 0.0475666 0.0555858 0.0419251 0.0704115 0.0578156 0.0709175 0.0730352 0.0643686 0.0668019 0.0845474 0.0735475 0.0826631
3 2 Si 5.2885 2.02354 1.4948 2.4 1 0.0170847 0.0231631 0.0317634 0.026872 0.0307998 0.0376385 0.0548729 0.0315825 0.0432129 0.0544949 0.0524485 0.0614632 0.0556152 0.0646847 0.0680166 0.0790295 0.0703592 0.064602 0.0648045 0.0725022
4 3 O 5.33628 3.63678 1.4948 -1.2 1 0.00948705 0.0142982 0.0269801 0.0259016 0.018449 0.0390874 0.0417569 0.060011 0.0352732 0.03978 0.0548938 0.0503204 0.0682496 0.0581505 0.0594182 0.0646999 0.0601108 0.0619304 0.0709097 0.0746906
5 3 O 1.67294 1.04952 1.4948 -1.2 1 0.0160886 0.0214822 0.0235356 0.0352077 0.0299274 0.0383822 0.0342462 0.0604948 0.0349159 0.0592975 0.0440948 0.0512625 0.0713749 0.0594549 0.0763694 0.0698654 0.0633443 0.0643416 0.0797486 0.0602698
6 3 O 4.59532 1.31737 0.196716 -1.2 1 0.026042 0.0200986 0.058768 0.0249064 0.0323283 0.0494622 0.0385914 0.0464199 0.0333144 0.0383102 0.038579 0.0509005 0.0549554 0.0574527 0.0633187 0.0695946 0.062649 0.0706665 0.0577903 0.070883
7 1 Mg 6.18956 -6.37941e-06 2.9896 1.2 1 0.015332 0.0281894 0.0149812 0.022242 0.034589 0.0453885 0.0499717 0.0436773 0.0471026 0.0454047 0.0369417 0.0558968 0.040002 0.05634 0.0583086 0.0782707 0.0565777 0.069115 0.0603915 0.0702558
8 3 O 4.55118 1.31737 2.79288 -1.2 1 0.0215315 0.0244535 0.0367173 0.0171611 0.0278539 0.0449194 0.0437721 0.0471754 0.0423461 0.0529278 0.0546031 0.048452 0.0483324 0.0661659 0.0563642 0.0701071 0.0645612 0.0662562 0.0651491 0.0709243
9 1 Mg -1.20682 0.0413099 4.4844 1.2 1 0.0152137 0.024088 0.0237202 0.0266408 0.0345558 0.0413482 0.0307449 0.0536246 0.0520314 0.0399111 0.049271 0.0621937 0.0636452 0.0570781 0.0781114 0.0617736 0.0803954 0.0741139 0.0621704 0.05304
10 2 Si -3.0337 2.72544 4.4844 2.4 1 0.0328766 0.0138729 0.0206164 0.0153803 0.0306889 0.0375597 0.0611223 0.0358913 0.0602138 0.050163 0.0457935 0.0609933 0.0589478 0.0770893 0.0547191 0.0612449 0.0715281 0.0818727 0.0726757 0.0600886
11 3 O -3.08099 1.11221 4.4844 -1.2 1 0.0104141 0.0219035 0.0264789 0.0246013 0.0373767 0.0272322 0.0471965 0.0484067 0.0383008 0.0379736 0.0373895 0.0712713 0.0540942 0.0511671 0.054322 0.0691794 0.0541337 0.0810894 0.0747483 0.0767981
12 3 O 0.582463 3.69946 4.4844 -1.2 1 0.00198468 0.0123408 0.0314358 0.0267125 0.0261908 0.0603609 0.0265224 0.055573 0.0451089 0.0420348 0.0534109 0.0561396 0.0579616 0.06826 0.101392 0.0672186 0.0792822 0.0423432 0.0720718 0.0680602
13 3 O -2.29524 3.43162 3.18632 -1.2 1 0.0109969 0.0183939 0.0263067 0.0300485 0.0214062 0.0509988 0.0513236 0.0500861 0.0423014 0.0530196 0.058228 0.0567016 0.0412321 0.0516996 0.0578722 0.064519 0.0650086 0.0632698 0.0622366 0.0736102
14 3 O -2.34216 3.43162 5.78248 -1.2 1 0.0208922 0.010264 0.021315 0.0263026 0.0261069 0.0390255 0.0526994 0.048151 0.0384441 0.0548373 0.054653 0.0491017 0.0555428 0.054622 0.0771454 0.0725598 0.0610551 0.069575 0.0740704 0.0697852
15 1 Mg 1.12778 2.37449 2.9896 1.2 1 0.0189318 0.0393288 0.0144355 0.0235749 0.0246806 0.0422651 0.0411957 0.051401 0.036028 0.061435 0.0364561 0.0615881 0.0401209 0.0672303 0.0646188 0.0698746 0.0702219 0.0805945 0.0463271 0.0894754
16 1 Mg 3.92855 2.33318 4.4844 1.2 1 0.0294897 0.016348 0.0224162 0.0290947 0.0440564 0.025145 0.0380812 0.0366116 0.0478959 0.0699407 0.0524095 0.0601897 0.0490007 0.0613788 0.0557744 0.0744543 0.0622411 0.0942746 0.0744815 0.083217
17 2 Si 2.09341 4.39804 4.4844 2.4 1 0.0167705 0.0197918 0.031379 0.018113 0.0396927 0.025127 0.0638981 0.0234411 0.0427527 0.0495764 0.0631714 0.0620679 0.0695033 0.0609681 0.074782 0.0739678 0.0736119 0.0802135 0.0505592 0.0676634
18 3 O 2.09991 6.01128 4.4844 -1.2 1 0.00874822 0.0122547 0.0169219 0.0185386 0.0353551 0.021759 0.0536615 0.0521707 0.0484586 0.0483053 0.0479121 0.0671954 0.0432703 0.0613402 0.0665695 0.0726634 0.0471638 0.0780105 0.0609771 0.0722989
19 3 O -4.52137 3.42402 4.4844 -1.2 1 0.019909 0.028751 0.0354551 0.0220125 0.0251379 0.0570806 0.0388774 0.0469453 0.0552959 0.0584769 0.0323652 0.0583416 0.0519703 0.0532373 0.0898573 0.0747387 0.0775711 0.0606359 0.07316 0.0558053
20 3 O 2.80834 3.69187 3.18632 -1.2 1 0.00881094 0.0178791 0.0204572 0.0249555 0.0219297 0.038527 0.0355993 0.0511705 0.0444262 0.0589338 0.0667144 0.0514609 0.0434387 0.0645732 0.0702776 0.0713507 0.0628548 0.0583385 0.0694963 0.072836
21 1 Mg 1.17857 2.37449 0 1.2 1 0.0146228 0.0372952 0.0293204 0.0289783 0.0367069 0.0386761 0.0436013 0.058495 0.0357534 0.0489626 0.0526506 0.0409112 0.043752 0.0670571 0.0550848 0.0653864 0.0596638 0.0807286 0.0566898 0.0727207
22 3 O 2.76143 3.69187 5.78248 -1.2 1 0.00649041 0.020778 0.020129 0.0244393 0.0183824 0.0325518 0.0371996 0.0491577 0.0338307 0.0457978 0.0605084 0.0440414 0.0571606 0.0767498 0.0718162 0.0687995 0.065624 0.0593874 0.0708558 0.076774
23 1 Mg -1.67381 2.41581 1.4948 1.2 1 0.0114048 0.0115593 0.0371701 0.0362173 0.032339 0.0440224 0.0587076 0.0403534 0.0511066 0.040478 0.0463498 0.0592985 0.0549062 0.063554 0.0613109 0.0646068 0.0832559 0.0777431 0.0666377 0.073963
24 2 Si 0.16286 0.350945 1.4948 2.4 1 0.0152855 0.0319592 0.0279218 0.0233649 0.0353295 0.0357048 0.0555983 0.051275 0.0524572 0.0487515 0.0405794 0.0556991 0.0741293 0.0690937 0.0568817 0.0732981 0.0697417 0.0650447 0.0732818 0.0662171
25 3 O 0.15972 -1.26229 1.4948 -1.2 1 0.00764578 0.0198496 0.0374682 0.0235032 0.035045 0.0373634 0.0461862 0.0543335 0.0486042 0.0514957 0.0563364 0.0581843 0.0628713 0.067167 0.0506117 0.059657 0.0698259 0.0668109 0.0618866 0.0730907
26 3 O 6.77654 1.32496 1.4948 -1.2 1 0.0143857 0.0259889 0.0261261 0.0259611 0.03615 0.053144 0.0345707 0.0632639 0.0487761 0.0472218 0.04327 0.0519154 0.0537261 0.0605424 0.0684026 0.0710016 0.0838772 0.0625857 0.0592594 0.0729548
27 3 O -0.508028 1.05712 0.196716 -1.2 1 0.0247501 0.0191584 0.0295619 0.0207008 0.0295722 0.0531892 0.0436298 0.044671 0.0471034 0.0483117 0.0502116 0.0486525 0.04903 0.0634215 0.0549817 0.0628044 0.0634995 0.0591829 0.0716685 0.0718119
28 3 O -0.552171 1.05712 2.79288 -1.2 1 0.0358872 0.028285 0.0362361 0.0328179 0.0227174 0.0437959 0.0395724 0.0453525 0.0422107 0.0375498 0.0496363 0.0490217 0.0581641 0.0608326 0.0627245 0.0750511 0.0745129 0.0500416 0.0707684 0.0695007
29 1 Mg 6.31713 4.74899 0 1.2 1 0.0273087 0.0295585 0.0299405 0.0363461 0.0330209 0.0259814 0.0420377 0.0558014 0.0588068 0.0493827 0.0510117 0.038681 0.0593163 0.0620992 0.0660437 0.0636452 0.0652886 0.074211 0.0686716 0.0712039
30 1 Mg 3.54847 9.45668 1.4948 1.2 1 0.021742 0.0144791 0.017869 0.0204643 0.0183083 0.0382148 0.0382785 0.0416397 0.044867 0.0554784 0.0386139 0.0690048 0.0522532 0.0658271 0.0712294 0.0634912 0.06686 0.0871454 0.0740742 0.0788597
31 2 Si 5.36879 6.77254 1.4948 2.4 1 0.0260009 0.0297514 0.0212844 0.0262384 0.0244864 0.0349521 0.0443277 0.0346931 0.0455655 0.0583556 0.0425676 0.0573988 0.0530184 0.0678751 0.0654553 0.0747028 0.067665 0.0786204 0.0569192 0.0689514
32 3 O 5.41937 8.38578 1.4948 -1.2 1 0.0215195 0.0113426 0.0234833 0.0295557 0.0176498 0.0431254 0.0440155 0.0572882 0.0361946 0.0505967 0.0474545 0.0642897 0.0550232 0.0536463 0.0666219 0.0612846 0.0726063 0.05626 0.0729418 0.073191
33 3 O 1.75158 5.79852 1.4948 -1.2 1 0.0284674 0.012345 0.0224205 0.026554 0.044045 0.0305874 0.0393891 0.0567819 0.0409163 0.0525386 0.0495511 0.0507803 0.0473581 0.0708942 0.0786411 0.0787291 0.0600454 0.0750729 0.0603661 0.0765472
34 3 O 4.67421 6.06637 0.196716 -1.2 1 0.0145033 0.0265219 0.0316069 0.0245404 0.0318654 0.0379411 0.0348299 0.0323992 0.0446285 0.0563582 0.0391746 0.0441289 0.0662716 0.0568766 0.0676663 0.0713415 0.0721489 0.0649862 0.0634558 0.0691798
35 1 Mg 6.26654 4.74899 2.9896 1.2 1 0.01739 0.0216137 0.0215209 0.0430616 0.0277291 0.0422374 0.049236 0.0509686 0.0368502 0.0622807 0.0374933 0.0625139 0.0390983 0.0651859 0.0532132 0.0756796 0.0553556 0.0857074 0.0461431 0.0901707
36 3 O 4.63043 6.06637 2.79288 -1.2 1 0.018863 0.0199567 0.0419236 0.0192656 0.0320928 0.0363924 0.0427266 0.0478351 0.0455422 0.0376939 0.0494288 0.0536184 0.0575007 0.0659106 0.0614541 0.0728131 0.0649342 0.068295 0.067832 0.084767
37 1 Mg -1.12976 4.79031 4.4844 1.2 1 0.0181232 0.0224252 0.0165294 0.0163769 0.034587 0.035995 0.049091 0.0486061 0.0455887 0.0440846 0.055424 0.0598712 0.0779833 0.0691181 0.0606422 0.0692752 0.0697418 0.094857 0.0714365 0.0855031
38 2 Si -2.9517 7.47444 4.4844 2.4 1 0.0232839 0.01767 0.0209049 0.0244069 0.0283569 0.0424963 0.0591915 0.0283256 0.0517283 0.0619143 0.0519083 0.0576664 0.0605569 0.0577183 0.0806242 0.0689131 0.0542231 0.087921 0.0571193 0.060848
39 3 O -3.00198 5.86121 4.4844 -1.2 1 0.0102451 0.0195352 0.0291865 0.0276025 0.0332447 0.0316897 0.0551107 0.0590416 0.0389087 0.053508 0.0494173 0.072231 0.0598301 0.057771 0.0656633 0.0705042 0.0467884 0.0764494 0.0618721 0.0779075
40 3 O 0.666315 8.44846 4.4844 -1.2 1 0.015872 0.0190727 0.0264276 0.0175464 0.0220481 0.0537156 0.0299305 0.0489813 0.043895 0.0485903 0.0413617 0.0503687 0.049763 0.0758935 0.102085 0.0677085 0.0764688 0.0492178 0.0693448 0.0732007
41 3 O -2.21213 8.18062 3.18632 -1.2 1 0.0183326 0.0153575 0.0162068 0.0157101 0.0169954 0.0351877 0.0458946 0.0540226 0.0459803 0.0531594 0.0533695 0.0528126 0.0529639 0.0467707 0.0783193 0.0633447 0.0707247 0.0605165 0.0681197 0.0714798
42 3 O -2.25864 8.18062 5.78248 -1.2 1 0.0173492 0.0139694 0.0176078 0.0192925 0.0162505 0.026234 0.0510042 0.0455593 0.0400566 0.0401763 0.0561688 0.0384152 0.057078 0.0521063 0.0867843 0.0670434 0.0675295 0.0645954 0.0664028 0.073038
43 1 Mg 1.20893 7.12349 2.9896 1.2 1 0.00757306 0.0225151 0.0187943 0.0250118 0.0240342 0.040384 0.0417998 0.0464402 0.0344066 0.0644872 0.0395125 0.0667725 0.0359461 0.0590485 0.0523229 0.0793098 0.0514939 0.0844694 0.0466144 0.0867201
44 1 Mg 4.00982 7.08218 4.4844 1.2 1 0.0200847 0.0168183 0.0266649 0.0363112 0.0322883 0.0362743 0.0430193 0.0386243 0.0459917 0.0503538 0.0586018 0.0549 0.0718192 0.0724429 0.0571685 0.0689436 0.0640043 0.0981887 0.0754846 0.0788355
45 2 Si 2.17861 9.14704 4.4844 2.4 1 0.0264992 0.0126623 0.024242 0.0215807 0.0289116 0.0342699 0.0628473 0.0250344 0.0514141 0.0544374 0.0553082 0.0606247 0.0649535 0.0579102 0.0783353 0.0687724 0.0488287 0.0943858 0.0541301 0.059103
46 3 O 2.18828 10.7603 4.4844 -1.2 1 0.0209269 0.0118199 0.00526126 0.0186356 0.0253339 0.0229558 0.0411803 0.058344 0.0401839 0.0509318 0.0411524 0.0729779 0.046939 0.0659074 0.0705102 0.0735928 0.0473805 0.0727576 0.065927 0.0719849
47 3 O -4.43805 8.17302 4.4844 -1.2 1 0.0119994 0.0161461 0.0188112 0.0183186 0.0243638 0.0509086 0.0406556 0.0499046 0.0447017 0.0495091 0.0342215 0.053748 0.0528306 0.0734599 0.100152 0.068512 0.0786593 0.0514783 0.0734402 0.0726396
48 3 O 2.89193 8.44087 3.18632 -1.2 1 0.0219743 0.0190349 0.017203 0.0151929 0.0209858 0.0403724 0.0339175 0.0531291 0.043957 0.0518233 0.0589856 0.0496326 0.0512787 0.0529871 0.0800321 0.0631562 0.0696908 0.0605302 0.0668158 0.072713
49 1 Mg 1.25915 7.12349 0 1.2 1 0.0201169 0.0151761 0.0248859 0.0145046 0.0321731 0.0251904 0.0524493 0.0403454 0.0557603 0.0496069 0.052402 0.0428854 0.0719819 0.0515511 0.0677728 0.0716238 0.0648474 0.0712986 0.0803784 0.0590358
50 3 O 2.84547 8.44087 5.78248 -1.2 1 0.014176 0.0164013 0.0168762 0.0206421 0.0219871 0.0278676 0.0464832 0.0474509 0.0367148 0.0415411 0.0585845 0.0418871 0.057639 0.0652239 0.0873958 0.0667138 0.0692145 0.0636678 0.0671275 0.0738046
51 1 Mg -1.59284 7.16481 1.4948 1.2 1 0.00724155 0.0200413 0.0191405 0.0225763 0.0151873 0.0381768 0.0462857 0.0424574 0.0420297 0.0569295 0.0386157 0.0675146 0.0536394 0.0691645 0.0768446 0.0607895 0.0671492 0.0851554 0.0742197 0.0783376
52 2 Si 0.240329 5.09994 1.4948 2.4 1 0.0246221 0.0172712 0.016001 0.0433971 0.0272748 0.0404753 0.046793 0.0532969 0.0550503 0.0489148 0.0454305 0.0572703 0.0590496 0.0682435 0.0656116 0.0663441 0.063899 0.0729504 0.0664416 0.0677283
53 3 O 0.234538 3.48671 1.4948 -1.2 1 0.0130678 0.0162671 0.0265455 0.0357709 0.0314788 0.0493294 0.04576 0.0423288 0.0527423 0.0464002 0.0525829 0.0614033 0.056547 0.0606795 0.0621602 0.0626088 0.0628875 0.0571989 0.0760406 0.073189
54 3 O 6.85564 6.07396 1.4948 -1.2 1 0.0324845 0.0194822 0.0345079 0.0275769 0.0371577 0.0400534 0.0328518 0.0620075 0.0364364 0.0529868 0.0538873 0.0537366 0.0552295 0.0735469 0.0698152 0.0772761 0.0665551 0.0725645 0.0534507 0.0849065
55 3 O -0.429565 5.80612 0.196716 -1.2 1 0.0339951 0.0200236 0.0160665 0.0213971 0.0409025 0.0374624 0.0539035 0.0451564 0.0460133 0.0565519 0.039758 0.0418657 0.0530768 0.060216 0.0599069 0.0681467 0.0707956 0.0607836 0.0651505 0.0745807
56 3 O -0.473377 5.80612 2.79288 -1.2 1 0.0258288 0.0233517 0.0309001 0.0198283 0.0342513 0.0454042 0.0480674 0.0501326 0.0526767 0.0465951 0.0630189 0.0396391 0.0428932 0.0582476 0.0656362 0.0719292 0.0636557 0.0687889 0.0697519 0.0808285
57 1 Mg 6.40169 9.49799 0 1.2 1 0.0128734 0.0118575 0.0211113 0.014098 0.0303474 0.0209155 0.0519638 0.0355667 0.0586424 0.0489798 0.049799 0.0353124 0.0670488 0.053033 0.0709252 0.0673142 0.0649144 0.0707256 0.0808935 0.0687986
58 1 Mg 3.64209 14.2057 1.4948 1.2 1 0.0110596 0.0111879 0.0181002 0.0208271 0.0215419 0.0343064 0.036607 0.0429555 0.0400427 0.0538182 0.0397957 0.0683154 0.0540038 0.0660012 0.0716374 0.0642054 0.0642931 0.0831298 0.0753065 0.0778115
59 2 Si 5.45748 11.5215 1.4948 2.4 1 0.0119289 0.0217554 0.023363 0.0247731 0.018134 0.0402673 0.0396699 0.0399518 0.0434712 0.0545929 0.0423792 0.059884 0.0534978 0.0665295 0.0695359 0.0635274 0.0709942 0.0816462 0.0583469 0.0666094
60 3 O 5.51101 13.1348 1.4948 -1.2 1 0.0241042 0.0132452 0.0221374 0.0295745 0.019788 0.0432238 0.0443968 0.0591358 0.0362953 0.0498815 0.0425889 0.06746 0.0527334 0.0531604 0.0655303 0.0604314 0.0707919 0.0581089 0.0691616 0.0723688
61 3 O 1.83851 10.5475 1.4948 -1.2 1 0.035189 0.0140299 0.0215996 0.0138507 0.0362788 0.0300896 0.0365619 0.0590061 0.0397919 0.0482605 0.0497092 0.0518119 0.0471907 0.0747206 0.0758408 0.0800897 0.0563588 0.0760533 0.0579734 0.0786226
62 3 O 4.7611 10.8154 0.196716 -1.2 1 0.0357339 0.0192959 0.0198571 0.0181588 0.0267222 0.0442361 0.0483235 0.0375294 0.0388711 0.0493087 0.036891 0.0410695 0.0607776 0.0608687 0.0649588 0.0715763 0.0754999 0.0655776 0.0727847 0.0677824
63 1 Mg 6.35203 9.49799 2.9896 1.2 1 0.0144843 0.0159534 0.0252117 0.0231236 0.0188544 0.0388368 0.0361496 0.0501505 0.0346241 0.0585184 0.0313759 0.0659613 0.0268111 0.0666757 0.04651 0.0817063 0.0459918 0.0908129 0.0464515 0.0908252
64 3 O 4.71833 10.8154 2.79288 -1.2 1 0.021525 0.013072 0.0323413 0.0122902 0.0301489 0.0430767 0.0437079 0.0442038 0.0430673 0.0373013 0.0528777 0.0423781 0.0544129 0.0591389 0.0740407 0.0695522 0.0732817 0.0595852 0.0700919 0.0802579
65 1 Mg -1.0438 9.53931 4.4844 1.2 1 0.0140781 0.0165054 0.0160558 0.0235422 0.0269389 0.028162 0.0393204 0.0353945 0.0460734 0.0510556 0.0581036 0.0570645 0.0687687 0.0709791 0.0599341 0.0673787 0.0735328 0.097578 0.0715274 0.0864866
66 2 Si -2.8604 12.2234 4.4844 2.4 1 0.0189652 0.0145374 0.0202974 0.0241898 0.0275164 0.042018 0.0567756 0.0310625 0.052222 0.0649268 0.0548576 0.0618872 0.0569898 0.0545973 0.0779945 0.0711303 0.0515376 0.0925156 0.0572326 0.0610477
67 3 O -2.91391 10.6102 4.4844 -1.2 1 0.0198887 0.0149166 0.00757101 0.02371 0.0272777 0.0237493 0.0442051 0.063152 0.0384744 0.0499562 0.0361224 0.0700034 0.0461288 0.0597109 0.0675011 0.0716187 0.0499694 0.0741576 0.0622321 0.0777326
68 3 O 0.7596 13.1975 4.4844 -1.2 1 0.0253296 0.0219359 0.0199862 0.0160368 0.0235568 0.0482777 0.0355606 0.0519591 0.0445126 0.0483482 0.0404083 0.0492737 0.0494385 0.0725363 0.0993196 0.0621316 0.0755743 0.0558404 0.0734901 0.0721653
69 3 O -2.12001 12.9296 3.18632 -1.2 1 0.020762 0.0120386 0.0186556 0.0169549 0.0213641 0.0365341 0.041543 0.0533978 0.0465729 0.0526581 0.0542335 0.0494935 0.0549146 0.0481301 0.0797387 0.0634692 0.0715327 0.0630035 0.0661732 0.0701154
70 3 O -2.16532 12.9296 5.78248 -1.2 1 0.0121775 0.00979981 0.0220684 0.0221287 0.0153857 0.027019 0.0482967 0.0483188 0.03719 0.0392777 0.0560126 0.0388424 0.0588771 0.0602377 0.0833458 0.0690386 0.0714719 0.0620135 0.0706704 0.0773753
71 1 Mg 1.29891 11.8725 2.9896 1.2 1 0.00703562 0.0156826 0.0221597 0.0225846 0.017458 0.0384523 0.0366019 0.0505304 0.0350377 0.0603611 0.0344062 0.0591913 0.0262215 0.0676433 0.0501898 0.0825445 0.0484617 0.0892304 0.0467274 0.0865476
72 1 Mg 4.10033 11.8312 4.4844 1.2 1 0.00478475 0.0149003 0.0225732 0.026429 0.032115 0.0318842 0.0396417 0.0354809 0.0477872 0.0530556 0.0556663 0.0542114 0.0684728 0.0723639 0.0547848 0.0718599 0.0679406 0.0994572 0.0750691 0.0792616
73 2 Si 2.27333 13.896 4.4844 2.4 1 0.0262887 0.00495581 0.0236687 0.0253353 0.0285767 0.0362117 0.0624986 0.0280547 0.0519671 0.0578007 0.0539247 0.0620957 0.0638713 0.0577296 0.0758135 0.0684521 0.0484771 0.097038 0.0523652 0.0579615
74 3 O 2.28634 15.5093 4.4844 -1.2 1 0.0205329 0.0144824 0.00763672 0.0170914 0.0265768 0.021509 0.0432926 0.0605556 0.0418428 0.0535034 0.0407414 0.0714749 0.0445225 0.0622806 0.0677455 0.0709736 0.0496806 0.0675015 0.0643902 0.0756096
75 3 O -4.34533 12.922 4.4844 -1.2 1 0.021222 0.0182471 0.0213485 0.0148866 0.0243065 0.0502072 0.0375176 0.0504942 0.0413606 0.0517672 0.0392648 0.0512628 0.049764 0.0725002 0.100941 0.0681002 0.0770974 0.0514461 0.0751236 0.0735847
76 3 O 2.98455 13.1899 3.18632 -1.2 1 0.029527 0.0133536 0.018516 0.0100768 0.0179737 0.038934 0.0376629 0.0557785 0.0437822 0.0544168 0.0537468 0.0508529 0.0504339 0.0499262 0.0815767 0.061728 0.0667983 0.0607394 0.0669209 0.0721489
77 1 Mg 1.34779 11.8725 0 1.2 1 0.0218397 0.00932597 0.0217907 0.0148603 0.0286042 0.0225794 0.0514648 0.0347936 0.0575062 0.0508947 0.0496455 0.0354354 0.0653082 0.0505235 0.0705946 0.0645319 0.0612086 0.0704538 0.0872738 0.0600417
78 3 O 2.93934 13.1899 5.78248 -1.2 1 0.0145062 0.0118238 0.0182626 0.0235524 0.0203533 0.0273721 0.0508229 0.0457927 0.0403514 0.0395932 0.0581817 0.0389362 0.0565458 0.0625269 0.0868379 0.0630888 0.0704852 0.0607769 0.0661296 0.0754731
79 1 Mg -1.50344 11.9138 1.4948 1.2 1 0.008237 0.0211416 0.0217 0.0225437 0.0138755 0.0371841 0.038533 0.0419899 0.0399224 0.059365 0.0340573 0.0675357 0.0520044 0.0650591 0.075958 0.0682614 0.0634602 0.0846587 0.0770795 0.0787403
80 2 Si 0.326006 9.84894 1.4948 2.4 1 0.0281206 0.0178499 0.0269145 0.0294786 0.0169316 0.0380741 0.0433376 0.0400524 0.0439985 0.0548981 0.0395428 0.0604604 0.0557101 0.0663457 0.0609874 0.0624747 0.0702246 0.080412 0.0615246 0.0688177
81 3 O 0.317364 8.23571 1.4948 -1.2 1 0.0224 0.0125553 0.0226003 0.023986 0.0201096 0.045198 0.0428007 0.0499063 0.0344891 0.0543708 0.0440501 0.0656562 0.0572048 0.0598563 0.0680747 0.0662544 0.0716831 0.0535883 0.0733267 0.0742315
82 3 O 6.94307 10.823 1.4948 -1.2 1 0.031188 0.0148033 0.021999 0.0118128 0.0373147 0.0330823 0.0381954 0.0575047 0.0348259 0.0474682 0.0513382 0.0522607 0.050172 0.0749893 0.0728453 0.0800507 0.0617848 0.0729729 0.0581181 0.080478
83 3 O -0.343122 10.5551 0.196716 -1.2 1 0.0269114 0.0181016 0.0218271 0.0212051 0.0312193 0.0418103 0.0500833 0.0391386 0.0375411 0.0483299 0.0382182 0.0361634 0.0600924 0.0605581 0.0686548 0.0696904 0.0823107 0.0535109 0.0705833 0.0703256
84 3 O -0.385966 10.5551 2.79288 -1.2 1 0.0183243 0.0185207 0.0350088 0.0123889 0.0331729 0.0432022 0.0453158 0.0450498 0.0448635 0.0383305 0.0532714 0.0466645 0.0498154 0.0577759 0.0700411 0.0713534 0.0667222 0.0603893 0.0691343 0.0783267
85 1 Mg 6.49448 14.247 0 1.2 1 0.0225272 0.0098089 0.0186081 0.016904 0.028681 0.0227709 0.0478746 0.0329143 0.0594331 0.0481087 0.0513972 0.0372901 0.062756 0.0529032 0.0713824 0.0655072 0.0642771 0.070808 0.0844559 0.070996
86 1 Mg 3.74457 18.9547 1.4948 1.2 1 0.0107057 0.0135502 0.0165422 0.0172179 0.0263704 0.0303829 0.0313698 0.0386762 0.037034 0.0566841 0.0425594 0.0696639 0.0518961 0.0669831 0.0714121 0.0700851 0.0620996 0.0840222 0.0789957 0.0761832
87 2 Si 5.55495 16.2705 1.4948 2.4 1 0.00997558 0.0221937 0.0219238 0.0273165 0.0165815 0.043279 0.034661 0.0417968 0.043899 0.0525647 0.0426373 0.0602054 0.0530308 0.0633766 0.0694818 0.0584478 0.0723906 0.079378 0.0601931 0.0709845
88 3 O 5.6115 17.8838 1.4948 -1.2 1 0.0278517 0.0197433 0.0229519 0.0269745 0.0166175 0.0445865 0.0441127 0.0604238 0.0369532 0.0502513 0.0387148 0.0663196 0.0508598 0.0546879 0.0625638 0.0563841 0.0655393 0.0609788 0.0631313 0.070078
89 3 O 1.93416 15.2965 1.4948 -1.2 1 0.0371116 0.0147507 0.0218646 0.0130708 0.0351582 0.0302844 0.0361221 0.0590103 0.0431244 0.0470439 0.0487695 0.0501485 0.0460833 0.0740592 0.0805589 0.0773594 0.0589285 0.0739772 0.0621967 0.0773646
90 3 O 4.85636 15.5644 0.196716 -1.2 1 0.0260773 0.0109454 0.0222826 0.0196344 0.0237032 0.0514469 0.0506242 0.0401704 0.0411416 0.0465025 0.0366019 0.0337734 0.0642264 0.0549848 0.0672697 0.0686559 0.0748989 0.0632014 0.0722073 0.067529
91 1 Mg 6.44662 14.247 2.9896 1.2 1 0.0135405 0.0163703 0.0174436 0.0208846 0.0195308 0.034074 0.0380062 0.0532326 0.0359447 0.0560792 0.0348841 0.0632489 0.0244406 0.067674 0.044721 0.0764852 0.0442567 0.0929488 0.0455386 0.0930014
92 3 O 4.81537 15.5644 2.79288 -1.2 1 0.0145454 0.00738041 0.0276522 0.0136265 0.0268848 0.0387269 0.0463011 0.0477351 0.0460924 0.0389517 0.0515778 0.0413751 0.0521999 0.0555015 0.0754734 0.066401 0.0765162 0.0544346 0.0734173 0.0762267
93 1 Mg -0.948271 14.2883 4.4844 1.2 1 0.0166696 0.0117637 0.0168541 0.0287954 0.0270625 0.0274363 0.0394156 0.0326715 0.0465652 0.0495385 0.0590534 0.0564874 0.0661777 0.0690383 0.0572732 0.0696133 0.0714079 0.0929427 0.0736077 0.0834245
94 2 Si -2.75928 16.9724 4.4844 2.4 1 0.0206266 0.0119477 0.0185693 0.0271856 0.0294085 0.0416056 0.0580767 0.0323713 0.0552871 0.0618286 0.0539135 0.0631185 0.0596619 0.0546737 0.0779802 0.0733864 0.0470679 0.0898092 0.0509605 0.0618311
95 3 O -2.81617 15.3592 4.4844 -1.2 1 0.0159221 0.0153936 0.0135645 0.0237639 0.0300186 0.0228052 0.0440305 0.0648758 0.0441137 0.0514787 0.0379652 0.0723071 0.0465901 0.0579688 0.066326 0.0698038 0.0496894 0.0717852 0.0626409 0.0753938
96 3 O 0.862762 17.9465 4.4844 -1.2 1 0.016265 0.0205639 0.0253881 0.0180082 0.0236775 0.0457448 0.0345818 0.0525289 0.0465896 0.0524518 0.0404813 0.045138 0.0437268 0.0723209 0.108965 0.0584792 0.0715337 0.0528149 0.0729374 0.0690837
97 3 O -2.0185 17.6786 3.18632 -1.2 1 0.0250147 0.0104196 0.0185798 0.0184596 0.0173205 0.036859 0.0411459 0.0539871 0.0420989 0.0541053 0.0521358 0.0505086 0.0547699 0.0474083 0.082791 0.0602076 0.0693852 0.0656075 0.0653709 0.0665584
98 3 O -2.06164 17.6786 5.78248 -1.2 1 0.0163267 0.0108167 0.0244133 0.0231318 0.0124967 0.0263579 0.0502937 0.0412451 0.0394754 0.0375923 0.0561223 0.0362772 0.0553174 0.0567124 0.0831278 0.0669645 0.0668391 0.064132 0.0677919 0.0784824
99 1 Mg 1.39817 16.6215 2.9896 1.2 1 0.00364647 0.0165377 0.0167748 0.0197749 0.0180824 0.0355869 0.0376041 0.0544298 0.0357288 0.0591553 0.0349532 0.056885 0.0237498 0.0678714 0.0468064 0.0810881 0.0500766 0.0911314 0.0430813 0.0890802
100 1 Mg 4.20062 16.5802 4.4844 1.2 1 0.0155763 0.00839119 0.0166675 0.0250307 0.0234024 0.0320492 0.0388796 0.0331955 0.0471229 0.0525423 0.0548912 0.0528897 0.0681335 0.0690165 0.0504389 0.0733403 0.0728393 0.0950545 0.0741628 0.0792567
101 2 Si 2.37796 18.645 4.4844 2.4 1 0.019022 0.00805601 0.0259091 0.0223765 0.0250964 0.0391838 0.059487 0.0318777 0.0538316 0.0578753 0.0500524 0.0605812 0.0590623 0.0559585 0.074804 0.0674562 0.0461629 0.101653 0.0546806 0.0555169
102 3 O 2.39434 20.2583 4.4844 -1.2 1 0.0211393 0.0108741 0.0087144 0.0159258 0.0224079 0.0237502 0.038757 0.0590492 0.0413614 0.0499643 0.0413265 0.0737463 0.0522603 0.0619023 0.0713054 0.0678494 0.0502789 0.0681053 0.0680539 0.0794436
103 3 O -4.24274 17.671 4.4844 -1.2 1 0.0223061 0.0219513 0.0209865 0.0173439 0.0195641 0.049635 0.0353186 0.0475289 0.0431905 0.0541146 0.0392899 0.0511132 0.0500388 0.0715633 0.0991524 0.0621997 0.0731841 0.0562723 0.0770679 0.0730751
104 3 O 3.08659 17.9389 3.18632 -1.2 1 0.0282279 0.0130016 0.0216972 0.0104004 0.0174765 0.0375746 0.0371353 0.0564306 0.0432358 0.0511854 0.0552374 0.0477673 0.0514824 0.0493024 0.0800514 0.0581598 0.0670477 0.0614106 0.0643349 0.0695822
105 1 Mg 1.44478 16.6215 0 1.2 1 0.00943148 0.0122565 0.0217167 0.01279 0.0266852 0.0315561 0.0479224 0.0354001 0.0507703 0.0505062 0.0519605 0.0394534 0.0589161 0.0493586 0.0698139 0.066053 0.0601489 0.0676604 0.0886033 0.0640584
106 3 O 3.0436 17.9389 5.78248 -1.2 1 0.01798 0.0141392 0.0204445 0.0204422 0.0201707 0.0225245 0.0481832 0.0470198 0.0414749 0.0396938 0.0568594 0.0365097 0.0550193 0.0605449 0.0822386 0.0635421 0.0692335 0.0619039 0.0666538 0.0788873
107 1 Mg -1.40524 16.6628 1.4948 1.2 1 0.0115969 0.0125115 0.0256608 0.0176585 0.0175172 0.0344298 0.0363177 0.0426369 0.0414836 0.0606021 0.0406924 0.0622032 0.0546833 0.0643542 0.0736577 0.0691495 0.0644626 0.0779285 0.0787023 0.0757068
108 2 Si 0.420358 14.5979 1.4948 2.4 1 0.0224911 0.0193492 0.0290147 0.0260738 0.0175914 0.0386419 0.039147 0.0417509 0.044359 0.0551934 0.0427431 0.0613374 0.0575355 0.0635389 0.0670034 0.0592718 0.0720437 0.0766238 0.0626501 0.0711757
109 3 O 0.408732 12.9847 1.4948 -1.2 1 0.0221873 0.0155253 0.0230132 0.0254215 0.0171254 0.0472671 0.0436427 0.0538737 0.0362185 0.0528321 0.0424874 0.0691288 0.0532723 0.0569783 0.0660863 0.0637599 0.0712827 0.0547616 0.0686635 0.071586
110 3 O 7.03923 15.572 1.4948 -1.2 1 0.0338502 0.0175092 0.0208359 0.00991813 0.0358736 0.0345054 0.0372011 0.0545832 0.0375089 0.043983 0.0517385 0.0527576 0.0485123 0.0737672 0.0777018 0.0775393 0.0649894 0.0695479 0.0622155 0.0777286
111 3 O -0.248332 15.3041 0.196716 -1.2 1 0.0190276 0.0129982 0.021151 0.0183171 0.0252794 0.0464501 0.0487088 0.0430597 0.0391772 0.0446531 0.0378442 0.0308212 0.0609785 0.0542306 0.069852 0.0644111 0.0830035 0.0502016 0.070053 0.0720854
112 3 O -0.289436 15.3041 2.79288 -1.2 1 0.014657 0.0139845 0.0297274 0.0113287 0.0305606 0.0384056 0.0446646 0.0464123 0.0453036 0.0390814 0.0540086 0.0473005 0.0517059 0.0542492 0.0717646 0.0680103 0.0707004 0.0557141 0.0703089 0.0759167
113 1 Mg 6.59566 18.996 0 1.2 1 0.0137244 0.0117669 0.0199149 0.0145446 0.0260212 0.0318413 0.0430744 0.0329545 0.0538311 0.0493799 0.0539002 0.0388426 0.0524576 0.0527695 0.0721733 0.0645544 0.0641275 0.0647781 0.0862222 0.0708091
114 1 Mg 3.85574 23.7037 1.4948 1.2 1 0.0127842 0.0141978 0.0211797 0.0158352 0.0225985 0.0288758 0.0309987 0.0370778 0.0386334 0.0597654 0.0468775 0.0614231 0.0507822 0.0657677 0.0624132 0.0728611 0.0671496 0.0796539 0.0802966 0.0759419
115 2 Si 5.66125 21.0195 1.4948 2.4 1 0.00833884 0.0240658 0.0232815 0.027044 0.0194376 0.0460228 0.0344835 0.0415963 0.0494794 0.0541663 0.0455145 0.0602182 0.0558211 0.0593676 0.0721783 0.0607433 0.0729686 0.0776293 0.0631515 0.0754504
116 3 O 5.72074 22.6328 1.4948 -1.2 1 0.0282795 0.0188476 0.0181862 0.0227604 0.0192665 0.0444596 0.0455987 0.0619449 0.0385301 0.0519875 0.03279 0.0700971 0.0489752 0.0531743 0.0678874 0.0565377 0.0647505 0.0681714 0.055864 0.0717417
117 3 O 2.03867 20.0455 1.4948 -1.2 1 0.0343586 0.0168281 0.0257017 0.0131689 0.0340243 0.0312268 0.0362989 0.0539059 0.0432502 0.0417836 0.0507188 0.0499821 0.0483646 0.0743067 0.0848927 0.0714956 0.0624909 0.0677602 0.063908 0.0736084
118 3 O 4.96004 20.3134 0.196716 -1.2 1 0.0210052 0.0101995 0.0228145 0.0187509 0.0233718 0.0453528 0.0439034 0.0480129 0.0388398 0.0398075 0.0412081 0.034248 0.0645586 0.0478809 0.0694048 0.0728151 0.0714161 0.0579464 0.0715842 0.0722578
119 1 Mg 6.55057 18.996 2.9896 1.2 1 0.00734483 0.0149674 0.016285 0.0179641 0.0208123 0.0325555 0.0375825 0.0548778 0.0343266 0.0591618 0.0366509 0.0620823 0.023119 0.0703217 0.044153 0.0728855 0.0447435 0.0969274 0.0461722 0.0932076
120 3 O 4.92172 20.3134 2.79288 -1.2 1 0.0136285 0.0125649 0.0273352 0.0125901 0.031243 0.0397436 0.0463006 0.0481968 0.0452339 0.0432276 0.0517079 0.0414699 0.0513645 0.0509875 0.0762382 0.0656407 0.0766541 0.0479609 0.0710231 0.0729101
121 1 Mg -0.84282 19.0373 4.4844 1.2 1 0.00707181 0.00930947 0.0124619 0.024717 0.024725 0.0254037 0.0353597 0.0315819 0.048148 0.0511608 0.0582201 0.0566764 0.0653553 0.0677967 0.0576083 0.0727316 0.0719495 0.0935784 0.0737499 0.0801198
122 2 Si -2.64823 21.7214 4.4844 2.4 1 0.015285 0.0187028 0.0181737 0.0213407 0.0286555 0.0406007 0.0548037 0.0328964 0.0533219 0.0638498 0.0489636 0.0645964 0.058229 0.0534349 0.0738037 0.0710398 0.0505123 0.0922819 0.0544245 0.0637365
123 3 O -2.70847 20.1082 4.4844 -1.2 1 0.0158979 0.0140872 0.0197578 0.026824 0.0255249 0.0243439 0.0403289 0.0649373 0.0444434 0.0491272 0.0372114 0.0698657 0.0513148 0.0598735 0.0680776 0.0650599 0.0525874 0.0717094 0.0648986 0.0744547
124 3 O 0.97581 22.6955 4.4844 -1.2 1 0.0192653 0.0257495 0.0201985 0.0143267 0.0199557 0.0419549 0.0325888 0.0509755 0.0454047 0.0541092 0.0407758 0.0453215 0.0454368 0.0727728 0.106579 0.0543053 0.0648358 0.0566975 0.0738083 0.0652003
125 3 O -1.9076 22.4276 3.18632 -1.2 1 0.0214354 0.00865881 0.0214688 0.0173579 0.0138441 0.0373124 0.0436915 0.0560326 0.0379198 0.0492911 0.0552565 0.0487875 0.0571949 0.0486932 0.0810145 0.0570681 0.0689868 0.0654341 0.0628852 0.0632176
126 3 O -1.9475 22.4276 5.78248 -1.2 1 0.0172162 0.0104399 0.0219376 0.0205477 0.014346 0.0251295 0.0474689 0.0452146 0.0370251 0.0383704 0.0563209 0.0399806 0.0550063 0.0548547 0.0822771 0.066921 0.0703541 0.0663539 0.0648794 0.0751527