ITEM: TIMESTEP
69600
ITEM: NUMBER OF ATOMS
10500
ITEM: BOX BOUNDS xy xz yz pp pp pp
0	15.2977	5.09925
0	118.725	0
0	89.688	0
ITEM: ATOMS id type element xu yu zu q Q_1 Q_2 Q_3 Q_4 Q_5 Q_6 Q_7 Q_8 Q_9 Q_10 Q_11 Q_12 Q_13 Q_14 Q_15 Q_16 Q_17 Q_18 Q_19 Q_20 Q_21
1 1 Mg 6.2404 -6.37941e-06 0 1.2 1 0.0133102 0.0386517 0.0310703 0.0337049 0.0363988 0.0411291 0.0378992 0.0674559 0.0392884 0.07054 0.0335407 0.0583843 0.0444179 0.0678016 0.0506943 0.0909487 0.0517405 0.0830728 0.049511 0.10252
2 1 Mg 3.46349 4.70768 1.4948 1.2 1 0.0130161 0.0174954 0.0239707 0.0234119 0.0200227 0.0419182 0.0437759 0.0396106 0.0466732 0.056571 0.0428483 0.0702194 0.0583388 0.0713265 0.0739176 0.0630997 0.0675931 0.0857269 0.0717728 0.0823851
3 2 Si 5.2885 2.02354 1.4948 2.4 1 0.0199474 0.0221869 0.0337864 0.0286321 0.0299032 0.037385 0.0538706 0.0326442 0.0441453 0.053682 0.0547759 0.0625049 0.0553361 0.0647099 0.0678078 0.0798393 0.0705906 0.0639878 0.064351 0.0730844
4 3 O 5.33628 3.63678 1.4948 -1.2 1 0.00946101 0.0142217 0.0268967 0.0257025 0.0183425 0.0391402 0.0420019 0.0600932 0.0358649 0.0399182 0.0548136 0.0508299 0.068168 0.0579407 0.0589091 0.0649387 0.060077 0.0614887 0.0714361 0.0742017
5 3 O 1.67294 1.04952 1.4948 -1.2 1 0.0129135 0.0196258 0.0227895 0.0360652 0.0314047 0.038577 0.0358858 0.0608184 0.0356135 0.0592859 0.0444458 0.0530179 0.0708603 0.059205 0.0761387 0.0698995 0.0632193 0.0651856 0.0784538 0.0607422
6 3 O 4.59532 1.31737 0.196716 -1.2 1 0.0257527 0.0230102 0.0598728 0.0242499 0.0321188 0.0490723 0.0376055 0.0456987 0.0334319 0.0376454 0.0393466 0.0512325 0.0542595 0.0556532 0.0634391 0.0689431 0.0611956 0.0705137 0.057725 0.0713149
7 1 Mg 6.18956 -6.37941e-06 2.9896 1.2 1 0.0154712 0.0272835 0.015452 0.0220818 0.037065 0.0461045 0.0504338 0.0435163 0.0465283 0.0459327 0.0377404 0.0539649 0.0399721 0.0552019 0.0592755 0.0795875 0.0590082 0.0704695 0.0594581 0.0686009
8 3 O 4.55118 1.31737 2.79288 -1.2 1 0.0248524 0.0262731 0.0414681 0.0168744 0.0290844 0.0435624 0.0445037 0.0480946 0.0436456 0.0545035 0.0531946 0.0484384 0.0496248 0.0657267 0.0525905 0.0691741 0.0654715 0.066252 0.0645745 0.0717474
9 1 Mg -1.20682 0.0413099 4.4844 1.2 1 0.0208691 0.025433 0.022106 0.0312465 0.0372401 0.0421454 0.0319357 0.04866 0.0548725 0.0376005 0.0457647 0.0595828 0.0648187 0.0554386 0.0767087 0.067279 0.0824529 0.0755693 0.0624921 0.0492895
10 2 Si -3.0337 2.72544 4.4844 2.4 1 0.0347746 0.0170948 0.0235772 0.0163294 0.031669 0.042365 0.0570041 0.0390064 0.0605453 0.054022 0.0482128 0.0630209 0.058766 0.0753117 0.055848 0.0605339 0.0731791 0.0793792 0.0708163 0.057857
11 3 O -3.08099 1.11221 4.4844 -1.2 1 0.0129568 0.0193279 0.0283548 0.0250389 0.0401098 0.0254144 0.0487662 0.0463521 0.0384775 0.0403273 0.040207 0.0705651 0.0530964 0.0523854 0.0549963 0.0695858 0.05624 0.076434 0.0733254 0.0757901
12 3 O 0.582463 3.69946 4.4844 -1.2 1 0.0129053 0.00860534 0.0316341 0.030392 0.0258358 0.0640378 0.0316635 0.0534035 0.0453185 0.0399719 0.0535209 0.0542161 0.0636499 0.0722994 0.0997903 0.0671619 0.0850295 0.0406581 0.0740321 0.0639246
13 3 O -2.29524 3.43162 3.18632 -1.2 1 0.0168793 0.020902 0.0240137 0.0310405 0.0233882 0.0534183 0.0512224 0.051812 0.0427609 0.0522547 0.0599275 0.0558061 0.0395683 0.0541898 0.0607606 0.0662462 0.0659611 0.0626722 0.0634155 0.0744181
14 3 O -2.34216 3.43162 5.78248 -1.2 1 0.0159871 0.0102931 0.0216854 0.0302866 0.026776 0.0439784 0.0496081 0.0463168 0.0407334 0.0569488 0.0593089 0.0473432 0.0578666 0.0489955 0.0755646 0.0732659 0.06358 0.0738292 0.0749711 0.0731347
15 1 Mg 1.12778 2.37449 2.9896 1.2 1 0.0165725 0.0416493 0.0153578 0.0241808 0.0252293 0.042876 0.041316 0.0500443 0.0371128 0.0595798 0.0365994 0.0603331 0.0400294 0.0673882 0.0627894 0.0695058 0.0674929 0.08367 0.0470392 0.0870008
16 1 Mg 3.92855 2.33318 4.4844 1.2 1 0.0293101 0.0155237 0.0222628 0.028353 0.045209 0.0256499 0.0387753 0.036035 0.0468209 0.0681583 0.0506824 0.0592422 0.0467592 0.0621467 0.0550887 0.0738567 0.0641934 0.0916688 0.0735114 0.084481
17 2 Si 2.09341 4.39804 4.4844 2.4 1 0.0151857 0.0221909 0.0321633 0.0136884 0.0409004 0.028141 0.0635074 0.021617 0.0464251 0.0478014 0.062098 0.0616481 0.0658202 0.0601121 0.0700003 0.076339 0.0709926 0.0804093 0.0500318 0.0676405
18 3 O 2.09991 6.01128 4.4844 -1.2 1 0.0115403 0.0119355 0.0167912 0.0176524 0.0346318 0.0233093 0.0519606 0.0532111 0.0471972 0.0455615 0.0476888 0.0655901 0.0473066 0.0616569 0.065065 0.0721085 0.0473074 0.0786158 0.0609355 0.0713124
19 3 O -4.52137 3.42402 4.4844 -1.2 1 0.0192197 0.0276357 0.0367953 0.0235343 0.0285054 0.0574003 0.0395875 0.0490638 0.0543599 0.0571807 0.0296885 0.0560974 0.0545217 0.0566577 0.0890912 0.0751886 0.0782627 0.06219 0.0760057 0.0563002
20 3 O 2.80834 3.69187 3.18632 -1.2 1 0.00906071 0.0193677 0.0217098 0.024525 0.0214205 0.0383749 0.036143 0.0497375 0.0442678 0.0594914 0.0678848 0.0500768 0.0437 0.0645622 0.0707307 0.0709857 0.0617058 0.05938 0.0707517 0.0695668
21 1 Mg 1.17857 2.37449 0 1.2 1 0.0146024 0.0368377 0.029294 0.0284492 0.036411 0.0386954 0.042652 0.0587724 0.0353457 0.049011 0.0524508 0.0405679 0.0431971 0.0671003 0.0552517 0.0659212 0.0600911 0.0801606 0.0572881 0.0730194
22 3 O 2.76143 3.69187 5.78248 -1.2 1 0.00843755 0.0228653 0.0178388 0.0237443 0.0206456 0.0341557 0.0402726 0.0498564 0.0343053 0.0475487 0.0602056 0.0427357 0.0550189 0.0751306 0.074784 0.0698953 0.0680049 0.0616921 0.0695688 0.0735367
23 1 Mg -1.67381 2.41581 1.4948 1.2 1 0.012463 0.0135765 0.0366646 0.0372711 0.0314371 0.0452063 0.0591139 0.0408319 0.0515662 0.0394693 0.0465569 0.0580002 0.0552806 0.062538 0.0598229 0.0637904 0.0833274 0.0771512 0.0665139 0.0737028
24 2 Si 0.16286 0.350945 1.4948 2.4 1 0.0157086 0.0361546 0.0279334 0.0282629 0.0339125 0.0348936 0.0558081 0.0480433 0.0527159 0.049222 0.0398103 0.055942 0.0744145 0.0702526 0.0597479 0.0740843 0.0715471 0.065702 0.0728779 0.0653628
25 3 O 0.15972 -1.26229 1.4948 -1.2 1 0.0118941 0.0159139 0.0414789 0.0198171 0.0344949 0.0364694 0.0451284 0.0560869 0.0474685 0.053832 0.0563121 0.0556618 0.0645407 0.0657399 0.0477392 0.0586595 0.069399 0.0663728 0.0621886 0.0735971
26 3 O 6.77654 1.32496 1.4948 -1.2 1 0.0142282 0.0255167 0.0260652 0.0254817 0.035956 0.0536932 0.0343887 0.0642805 0.0489099 0.0467884 0.0436298 0.0510349 0.0539733 0.0611032 0.0686143 0.0703083 0.0830371 0.0636455 0.0601696 0.0742664
27 3 O -0.508028 1.05712 0.196716 -1.2 1 0.0245359 0.0189596 0.0294836 0.0206145 0.0290704 0.0534526 0.0436706 0.0447395 0.0470364 0.0481626 0.0501908 0.0480797 0.0494502 0.0635157 0.0553295 0.0634092 0.0634324 0.058946 0.0719721 0.0713605
28 3 O -0.552171 1.05712 2.79288 -1.2 1 0.0337605 0.0250856 0.0359793 0.0311299 0.0205754 0.0449794 0.0416207 0.0442642 0.0447026 0.0330742 0.0484935 0.0491005 0.0603125 0.0614416 0.0623171 0.0754141 0.0703332 0.0503115 0.071131 0.0706118
29 1 Mg 6.31713 4.74899 0 1.2 1 0.0271504 0.0290831 0.0302586 0.0365558 0.0329654 0.0266159 0.042439 0.0559177 0.0590383 0.0492278 0.0510753 0.0390392 0.059744 0.0614858 0.0663231 0.0636552 0.0655785 0.0741526 0.0689225 0.0703182
30 1 Mg 3.54847 9.45668 1.4948 1.2 1 0.021791 0.0144206 0.0180765 0.0207411 0.0184977 0.0384469 0.0378529 0.0420136 0.0445042 0.0556757 0.0379955 0.0684093 0.0523509 0.06554 0.072061 0.0630907 0.0673117 0.0874864 0.0737843 0.0791563
31 2 Si 5.36879 6.77254 1.4948 2.4 1 0.0260553 0.0295603 0.0213167 0.0262583 0.0246493 0.034792 0.0446987 0.0345463 0.0459859 0.0583453 0.0426232 0.0573473 0.0527865 0.0675957 0.06557 0.0748002 0.0670714 0.0783655 0.056335 0.0685835
32 3 O 5.41937 8.38578 1.4948 -1.2 1 0.0215743 0.0113364 0.023361 0.0296517 0.0175062 0.0430627 0.044157 0.0573666 0.0364483 0.0507006 0.0472479 0.0643855 0.05493 0.0535901 0.0662906 0.0611967 0.0724901 0.0564051 0.0727491 0.0733668
33 3 O 1.75158 5.79852 1.4948 -1.2 1 0.0284569 0.0123351 0.0225635 0.0266179 0.0439679 0.0305992 0.0395272 0.056459 0.0407966 0.0520634 0.0494595 0.0506159 0.0476141 0.0715468 0.0790246 0.0787348 0.0603735 0.0752589 0.0601418 0.0766956
34 3 O 4.67421 6.06637 0.196716 -1.2 1 0.0120975 0.0279154 0.0327943 0.0262885 0.031363 0.0376723 0.0349395 0.0308971 0.0437684 0.0560885 0.0394769 0.0434215 0.0662974 0.0556807 0.0665979 0.0705476 0.0708945 0.065599 0.062695 0.0700425
35 1 Mg 6.26654 4.74899 2.9896 1.2 1 0.0169944 0.0269167 0.0260838 0.0371732 0.026492 0.0417149 0.0492083 0.0472264 0.0354678 0.0652178 0.0373776 0.0596022 0.0392762 0.0628315 0.0518793 0.0778163 0.0546308 0.0844602 0.04716 0.0906649
36 3 O 4.63043 6.06637 2.79288 -1.2 1 0.0180064 0.0191674 0.0419402 0.0193101 0.0314894 0.0364895 0.0429915 0.0480425 0.045299 0.0370572 0.0494668 0.0507979 0.0568976 0.0644167 0.0626115 0.0743318 0.0661687 0.0679197 0.0688551 0.0844183
37 1 Mg -1.12976 4.79031 4.4844 1.2 1 0.0225676 0.0300125 0.0118529 0.0130817 0.0384128 0.038776 0.0503539 0.0484775 0.0420822 0.0418249 0.0546233 0.0609534 0.0730806 0.0710269 0.061667 0.0675225 0.0703021 0.0927736 0.0687236 0.0816441
38 2 Si -2.9517 7.47444 4.4844 2.4 1 0.0300927 0.0168017 0.0242469 0.0274148 0.0274379 0.0424463 0.0604374 0.0269613 0.0545079 0.0605635 0.0521767 0.0623902 0.0594132 0.0576909 0.0749046 0.0729328 0.0526358 0.0907296 0.0519607 0.0571179
39 3 O -3.00198 5.86121 4.4844 -1.2 1 0.0117741 0.0212667 0.0286522 0.0256983 0.0336947 0.0308055 0.0553265 0.0617454 0.0379541 0.0543179 0.0477109 0.0703385 0.0587816 0.0561191 0.0649896 0.0694963 0.0517847 0.074012 0.0629691 0.0807651
40 3 O 0.666315 8.44846 4.4844 -1.2 1 0.0116642 0.0189398 0.025728 0.0201147 0.0224286 0.0544229 0.0335674 0.052206 0.0429995 0.0467422 0.0408235 0.0512759 0.0495332 0.0751424 0.103758 0.0694471 0.0773308 0.0490842 0.0707967 0.0716079
41 3 O -2.21213 8.18062 3.18632 -1.2 1 0.02127 0.0112917 0.0196888 0.0148764 0.0153775 0.0325209 0.0455488 0.0537504 0.0430709 0.0556689 0.0523551 0.0528744 0.0524279 0.0465769 0.0780372 0.062179 0.0728754 0.0592945 0.0676955 0.0714967
42 3 O -2.25864 8.18062 5.78248 -1.2 1 0.0160463 0.0163151 0.0200136 0.0151988 0.0234569 0.0239779 0.0498549 0.0515266 0.0372748 0.042853 0.0523595 0.0398469 0.056611 0.063435 0.0847971 0.0704513 0.070325 0.0647555 0.0666316 0.077531
43 1 Mg 1.20893 7.12349 2.9896 1.2 1 0.00741487 0.0230477 0.0176769 0.0248566 0.0236086 0.0393533 0.0440012 0.0459183 0.0359755 0.066603 0.0401965 0.0670982 0.0363152 0.0581771 0.0520396 0.0802133 0.0509336 0.0822031 0.0471219 0.0881516
44 1 Mg 4.00982 7.08218 4.4844 1.2 1 0.0211105 0.0147698 0.0258574 0.034993 0.0347785 0.0326731 0.0420387 0.03682 0.0489321 0.0509203 0.0595585 0.0559603 0.0733925 0.0723055 0.0623644 0.0691875 0.0634812 0.0985023 0.0746593 0.0790242
45 2 Si 2.17861 9.14704 4.4844 2.4 1 0.0273736 0.0122492 0.0237972 0.0204628 0.0298182 0.0347291 0.0621616 0.0255852 0.0499316 0.0543 0.0551138 0.0596781 0.0633905 0.0567464 0.0816496 0.0705248 0.0505444 0.0927795 0.0540916 0.0606139
46 3 O 2.18828 10.7603 4.4844 -1.2 1 0.023415 0.0132416 0.00981079 0.0199458 0.0275903 0.022446 0.0435012 0.0594248 0.0423589 0.0523716 0.0397696 0.0698303 0.0435118 0.0643475 0.0700602 0.0725451 0.0469234 0.0689438 0.0623181 0.0717496
47 3 O -4.43805 8.17302 4.4844 -1.2 1 0.0093421 0.0229659 0.017536 0.0159156 0.0239158 0.0548238 0.0353132 0.0502011 0.0447272 0.0485977 0.0375669 0.0526772 0.052888 0.0719412 0.0991034 0.0642221 0.083177 0.0524024 0.0745817 0.0727251
48 3 O 2.89193 8.44087 3.18632 -1.2 1 0.0217194 0.0194168 0.0168396 0.015481 0.0206761 0.0412418 0.0334365 0.0542683 0.0443628 0.0514402 0.0576381 0.0507842 0.0511911 0.0511006 0.0796327 0.0631856 0.0695316 0.0590231 0.0678462 0.0733851
49 1 Mg 1.25915 7.12349 0 1.2 1 0.0187763 0.017391 0.0279893 0.0147719 0.0322159 0.0243506 0.0504853 0.0399411 0.0563346 0.0496824 0.0538481 0.0429594 0.0713499 0.0517713 0.069052 0.070643 0.0635974 0.0712553 0.079144 0.0590019
50 3 O 2.84547 8.44087 5.78248 -1.2 1 0.0102229 0.0129892 0.018516 0.0213873 0.0199161 0.0309957 0.0424215 0.0486872 0.0380321 0.0409709 0.0597151 0.0401905 0.0599712 0.0614455 0.0891101 0.0644815 0.0681434 0.0643204 0.0648694 0.075467
51 1 Mg -1.59284 7.16481 1.4948 1.2 1 0.0098813 0.0163615 0.0204821 0.020331 0.0149488 0.0372255 0.0462985 0.0424012 0.0428168 0.0572955 0.038528 0.0667637 0.0520838 0.0694077 0.0760331 0.0610379 0.0676283 0.0840673 0.0736113 0.0785089
52 2 Si 0.240329 5.09994 1.4948 2.4 1 0.0246757 0.0173845 0.0158918 0.043285 0.027193 0.0404571 0.0466252 0.0534149 0.0547392 0.0482754 0.0458467 0.057244 0.0595628 0.0682599 0.0657416 0.0661047 0.0642139 0.0730749 0.0664861 0.0685011
53 3 O 0.234538 3.48671 1.4948 -1.2 1 0.0131842 0.0167658 0.0265499 0.0361755 0.0310392 0.0487855 0.0457372 0.0424365 0.0524848 0.0474424 0.0515805 0.0614142 0.0559259 0.0610045 0.061662 0.0630102 0.0621475 0.0577011 0.0753865 0.0748145
54 3 O 6.85564 6.07396 1.4948 -1.2 1 0.0324414 0.0193491 0.0345473 0.0276646 0.0371362 0.0403188 0.0323957 0.0623508 0.0367141 0.0530444 0.0536637 0.0533838 0.0553667 0.0734118 0.07008 0.0771329 0.0663169 0.0724979 0.0534769 0.084725
55 3 O -0.429565 5.80612 0.196716 -1.2 1 0.0340239 0.0200389 0.0160446 0.0213311 0.0409335 0.0374205 0.053915 0.0450609 0.0459611 0.0562242 0.0397489 0.0418181 0.0532315 0.0603484 0.0599384 0.0681508 0.0704954 0.0608964 0.0654634 0.0744349
56 3 O -0.473377 5.80612 2.79288 -1.2 1 0.024749 0.0215819 0.0343328 0.0187474 0.0340918 0.0468662 0.0495794 0.0479661 0.0552522 0.0451626 0.0623235 0.0391037 0.0431314 0.0600792 0.066323 0.0720221 0.0666304 0.0687169 0.0712101 0.0798029
57 1 Mg 6.40169 9.49799 0 1.2 1 0.0127642 0.011708 0.02125 0.014215 0.0303745 0.0212712 0.0520896 0.0356032 0.0586234 0.0492797 0.0497817 0.0354731 0.0666631 0.0524287 0.0708447 0.0672803 0.0654732 0.0703245 0.0808842 0.0683526
58 1 Mg 3.64209 14.2057 1.4948 1.2 1 0.0152928 0.00929981 0.0189534 0.0179649 0.0210398 0.0336262 0.0357912 0.0433655 0.0411136 0.0547032 0.0402097 0.0663376 0.0530333 0.0659681 0.0704273 0.064287 0.0647908 0.0818746 0.0748431 0.0781546
59 2 Si 5.45748 11.5215 1.4948 2.4 1 0.0119564 0.0217244 0.023287 0.0247304 0.0181027 0.0401912 0.0397732 0.0400799 0.0435566 0.0545561 0.0425517 0.0602187 0.0534224 0.0661317 0.0694352 0.0638086 0.0706077 0.0815183 0.0575802 0.0667549
60 3 O 5.51101 13.1348 1.4948 -1.2 1 0.0242739 0.0134078 0.0222893 0.0295321 0.019664 0.043324 0.0445576 0.0590797 0.0364969 0.0494979 0.0427754 0.0672818 0.0533253 0.053513 0.0657158 0.0596433 0.0708199 0.0580674 0.0690767 0.0720849
61 3 O 1.83851 10.5475 1.4948 -1.2 1 0.0351947 0.0139644 0.0215955 0.0142744 0.0364738 0.0303345 0.0360917 0.059309 0.0402703 0.0485868 0.0496718 0.0510358 0.0465649 0.0749146 0.0758514 0.0795404 0.0562981 0.0758675 0.0575589 0.0788404
62 3 O 4.7611 10.8154 0.196716 -1.2 1 0.0357897 0.0193823 0.020034 0.0181038 0.0266387 0.0440949 0.048293 0.0372727 0.0387366 0.0491381 0.036854 0.0409095 0.0606544 0.0603317 0.06509 0.0711424 0.0750752 0.0658801 0.072669 0.0675675
63 1 Mg 6.35203 9.49799 2.9896 1.2 1 0.0143142 0.0150261 0.025717 0.0232602 0.0199932 0.0387732 0.0364986 0.0507152 0.0341746 0.0583282 0.0311719 0.0664292 0.0258029 0.0666511 0.0462369 0.0819704 0.0456486 0.0892458 0.0439939 0.0898868
64 3 O 4.71833 10.8154 2.79288 -1.2 1 0.0273672 0.011705 0.0287003 0.0115581 0.0313734 0.0426521 0.0431584 0.0470047 0.0405723 0.0391631 0.0530828 0.044766 0.0528831 0.0540631 0.0731937 0.0671231 0.0731554 0.0600158 0.0682194 0.0808992
65 1 Mg -1.0438 9.53931 4.4844 1.2 1 0.013246 0.0221395 0.0169445 0.0230796 0.0261731 0.0329674 0.0333355 0.0375936 0.045019 0.0497677 0.0578877 0.0564804 0.0663565 0.0715582 0.0575994 0.07204 0.0757793 0.098101 0.0676453 0.0850212
66 2 Si -2.8604 12.2234 4.4844 2.4 1 0.0183885 0.0116332 0.0175424 0.0273425 0.0303341 0.0435305 0.0577643 0.0322135 0.0528272 0.0640646 0.0548862 0.0634659 0.0624371 0.0570901 0.0820775 0.0697847 0.0512944 0.091116 0.0540701 0.063853
67 3 O -2.91391 10.6102 4.4844 -1.2 1 0.0184786 0.0107822 0.0128271 0.0225897 0.0278252 0.0244689 0.0449994 0.063177 0.0423651 0.0498556 0.0375181 0.0720087 0.0443003 0.0573882 0.0672066 0.0684863 0.0527264 0.0742923 0.0616551 0.0778746
68 3 O 0.7596 13.1975 4.4844 -1.2 1 0.0225521 0.025798 0.0187781 0.0121243 0.0247563 0.0482323 0.0343763 0.0499133 0.0460282 0.0489479 0.0395918 0.0488369 0.0496143 0.0697982 0.0988753 0.0611298 0.0770547 0.0532748 0.0733967 0.0693358
69 3 O -2.12001 12.9296 3.18632 -1.2 1 0.0212544 0.0122169 0.0188891 0.0176228 0.0207751 0.0374306 0.0411573 0.0538328 0.0474504 0.0518769 0.0530663 0.0509714 0.054652 0.0487762 0.0806421 0.0640953 0.0722174 0.063425 0.0666723 0.069267
70 3 O -2.16532 12.9296 5.78248 -1.2 1 0.0119352 0.0101451 0.0229948 0.0224128 0.0127491 0.0321349 0.0500712 0.0455475 0.0405651 0.0380179 0.0590503 0.036968 0.0586559 0.0661429 0.0821222 0.0673257 0.0732754 0.0667538 0.0670059 0.078788
71 1 Mg 1.29891 11.8725 2.9896 1.2 1 0.0103445 0.0142743 0.0254597 0.0223223 0.0189752 0.0367977 0.0373018 0.0518992 0.034316 0.060209 0.0347209 0.0569373 0.0235118 0.0666117 0.0485145 0.0818813 0.0488657 0.0894073 0.0445033 0.0848776
72 1 Mg 4.10033 11.8312 4.4844 1.2 1 0.0127099 0.0181054 0.0166296 0.0242092 0.0303898 0.0308429 0.0396845 0.0334714 0.0489276 0.0503096 0.0545248 0.0558269 0.0684526 0.0683996 0.0538198 0.0716303 0.0706963 0.100547 0.0734209 0.0772398
73 2 Si 2.27333 13.896 4.4844 2.4 1 0.0292214 0.0155887 0.0184462 0.0261904 0.0271965 0.0369163 0.0612665 0.0258517 0.0526005 0.0573869 0.0527907 0.0581489 0.0616786 0.0579702 0.0732289 0.0671926 0.0509811 0.0990034 0.0582927 0.0555984
74 3 O 2.28634 15.5093 4.4844 -1.2 1 0.0248018 0.0151543 0.00747335 0.02123 0.0239998 0.0215356 0.0423532 0.0592986 0.0430307 0.0517969 0.0409292 0.069162 0.0453849 0.0643788 0.0682668 0.0687998 0.0496455 0.0699349 0.0638574 0.0761403
75 3 O -4.34533 12.922 4.4844 -1.2 1 0.0203794 0.0205985 0.0196704 0.0154657 0.0217054 0.0528694 0.0358387 0.048225 0.0427169 0.0517471 0.0411033 0.0541867 0.0506514 0.0703322 0.10266 0.0659375 0.0788967 0.0546124 0.0730987 0.0724463
76 3 O 2.98455 13.1899 3.18632 -1.2 1 0.0253392 0.011273 0.0190602 0.0115208 0.0192154 0.0396401 0.0378205 0.0575969 0.042531 0.0550655 0.0547816 0.0495623 0.0506934 0.0517469 0.0815979 0.0613359 0.0684011 0.0610029 0.0639574 0.0705401
77 1 Mg 1.34779 11.8725 0 1.2 1 0.0204281 0.0112058 0.0249253 0.014226 0.0285034 0.0217653 0.0491966 0.0346302 0.0581106 0.050821 0.0506498 0.0357007 0.0636583 0.0499574 0.0711015 0.063582 0.0602138 0.0698738 0.0864566 0.0587071
78 3 O 2.93934 13.1899 5.78248 -1.2 1 0.0206465 0.0115804 0.0227773 0.0199027 0.0169919 0.0230157 0.0493948 0.0463447 0.0402025 0.0408881 0.0564764 0.0379935 0.0537341 0.0573863 0.087495 0.0628575 0.067628 0.0622942 0.0658575 0.0842583
79 1 Mg -1.50344 11.9138 1.4948 1.2 1 0.0129805 0.0178954 0.0229518 0.0204724 0.0116274 0.0370596 0.0378784 0.0429856 0.0413441 0.0601161 0.035052 0.0646521 0.0505942 0.0644774 0.0750157 0.0675865 0.0644582 0.0844731 0.0764138 0.0787407
80 2 Si 0.326006 9.84894 1.4948 2.4 1 0.0250286 0.0192914 0.0250361 0.0306011 0.0171367 0.0388532 0.0441206 0.0377265 0.0450218 0.0566085 0.0402262 0.0599439 0.0547052 0.0668373 0.060652 0.0640893 0.0700807 0.0790225 0.0616842 0.0682432
81 3 O 0.317364 8.23571 1.4948 -1.2 1 0.0224119 0.0125222 0.0228269 0.0236729 0.0205726 0.0453436 0.042748 0.049655 0.0346388 0.0539353 0.0446571 0.0658681 0.0576066 0.0597157 0.0685586 0.0669293 0.071437 0.0534454 0.0736303 0.0739052
82 3 O 6.94307 10.823 1.4948 -1.2 1 0.0311684 0.0147754 0.021868 0.0116417 0.0373115 0.0335228 0.0380138 0.0578025 0.0348358 0.0475789 0.0513595 0.0523548 0.0501612 0.0749717 0.0725196 0.0799644 0.0622287 0.0727699 0.0577496 0.0807689
83 3 O -0.343122 10.5551 0.196716 -1.2 1 0.0229008 0.0205066 0.0241039 0.0226233 0.0311108 0.0415366 0.0496597 0.0380271 0.0367036 0.0481135 0.0386498 0.0359185 0.0601871 0.0595365 0.0672369 0.0689609 0.0805464 0.0533872 0.0690102 0.0711229
84 3 O -0.385966 10.5551 2.79288 -1.2 1 0.0227128 0.0149045 0.032667 0.0125151 0.0325896 0.04418 0.0452779 0.0464927 0.0447487 0.0395453 0.0520594 0.0470119 0.0491171 0.0568372 0.069268 0.0702383 0.0670012 0.0618874 0.069127 0.0808922
85 1 Mg 6.49448 14.247 0 1.2 1 0.0226862 0.0100266 0.0185209 0.0168952 0.0287601 0.0226607 0.0479717 0.0328192 0.0593 0.0482024 0.0511818 0.0376948 0.0624042 0.0528342 0.0712407 0.0651201 0.0644841 0.0706746 0.0846279 0.0705093
86 1 Mg 3.74457 18.9547 1.4948 1.2 1 0.0150295 0.010542 0.0153419 0.0160013 0.0258821 0.029225 0.031491 0.039093 0.0377547 0.0576378 0.0435342 0.0673928 0.0506899 0.0662444 0.0705363 0.0702343 0.0627896 0.0830982 0.078767 0.0760089
87 2 Si 5.55495 16.2705 1.4948 2.4 1 0.0108139 0.0219422 0.0202211 0.0272646 0.0175524 0.0429376 0.0368157 0.0404368 0.0464481 0.052972 0.0437855 0.061036 0.0535545 0.0642127 0.069571 0.0597011 0.073217 0.0789292 0.0608474 0.0703649
88 3 O 5.6115 17.8838 1.4948 -1.2 1 0.0268405 0.018334 0.0234548 0.0256418 0.0191963 0.0436706 0.0450423 0.0607777 0.0368448 0.049859 0.0380995 0.0668887 0.0513406 0.0563336 0.0648083 0.0572268 0.0661131 0.0614916 0.0634548 0.0691342
89 3 O 1.93416 15.2965 1.4948 -1.2 1 0.0370847 0.0148095 0.0218985 0.0128454 0.0350178 0.0303602 0.0360045 0.0594285 0.0429818 0.0470041 0.0485472 0.0509822 0.0466499 0.0735357 0.0807744 0.0775356 0.0590309 0.0737409 0.0623486 0.0770511
90 3 O 4.85636 15.5644 0.196716 -1.2 1 0.0260233 0.0108597 0.0222455 0.0195888 0.0237137 0.0515783 0.050713 0.0402533 0.0409971 0.0466563 0.0366711 0.0336707 0.0638934 0.054781 0.0672538 0.0683394 0.0750573 0.0632319 0.0722268 0.0677745
91 1 Mg 6.44662 14.247 2.9896 1.2 1 0.0113386 0.0166441 0.0231965 0.0239971 0.0184815 0.0369413 0.037298 0.0530585 0.0369219 0.0576012 0.0346965 0.063186 0.0241556 0.0663677 0.0452007 0.0778864 0.0445537 0.0900288 0.0429059 0.0937537
92 3 O 4.81537 15.5644 2.79288 -1.2 1 0.0184955 0.00769909 0.0268436 0.0134037 0.0276209 0.0386916 0.0464586 0.0476301 0.0454841 0.0386293 0.0511658 0.0408858 0.0519336 0.0556123 0.0744297 0.0664719 0.0755343 0.053616 0.0719448 0.0769514
93 1 Mg -0.948271 14.2883 4.4844 1.2 1 0.0136944 0.0111804 0.0135983 0.0285748 0.0221623 0.0279282 0.0376993 0.0338044 0.0450171 0.0482578 0.0595938 0.0551644 0.0681041 0.0673307 0.0556854 0.0707471 0.07007 0.0966603 0.0726228 0.0821907
94 2 Si -2.75928 16.9724 4.4844 2.4 1 0.0226954 0.0169104 0.0195306 0.0250189 0.0291341 0.0393971 0.0566172 0.0315964 0.0533466 0.0670827 0.0519031 0.0623854 0.057036 0.0531819 0.0755568 0.0708436 0.0496917 0.0922275 0.054414 0.0663479
95 3 O -2.81617 15.3592 4.4844 -1.2 1 0.0150828 0.011851 0.016117 0.0243242 0.0291107 0.0218109 0.0427416 0.0653652 0.0431672 0.0498069 0.039303 0.0729721 0.0488183 0.0583984 0.0669939 0.0721751 0.0485798 0.0736874 0.0646178 0.0752263
96 3 O 0.862762 17.9465 4.4844 -1.2 1 0.0222038 0.0238851 0.0221907 0.0165472 0.0204533 0.0490159 0.0345985 0.0528882 0.0460454 0.053822 0.0395406 0.048436 0.0447826 0.0704833 0.103666 0.0569871 0.0715617 0.0551924 0.0728735 0.0716732
97 3 O -2.0185 17.6786 3.18632 -1.2 1 0.0214807 0.00777216 0.0196744 0.0179082 0.0177124 0.0376077 0.0416692 0.0555035 0.0413337 0.0544651 0.053917 0.0488946 0.055913 0.0485742 0.0808427 0.0598265 0.0696919 0.0668046 0.0639908 0.0681232
98 3 O -2.06164 17.6786 5.78248 -1.2 1 0.0119819 0.0143406 0.0258768 0.0249374 0.0138553 0.0259471 0.0515995 0.0406874 0.0405094 0.0395016 0.0555003 0.0358152 0.0573186 0.0596279 0.0835558 0.0707546 0.0660767 0.0610726 0.0707186 0.0769341
99 1 Mg 1.39817 16.6215 2.9896 1.2 1 0.00631365 0.0165661 0.0189672 0.0222439 0.0177823 0.0359592 0.0372818 0.0534278 0.0363348 0.0593986 0.0351028 0.0573752 0.0233034 0.0673022 0.0472273 0.0808141 0.049129 0.0926196 0.0461712 0.0888093
100 1 Mg 4.20062 16.5802 4.4844 1.2 1 0.0215431 0.0127408 0.0191746 0.0300749 0.0282314 0.0306936 0.0397217 0.0350369 0.0472972 0.0517814 0.0555166 0.0524057 0.0638366 0.07013 0.0511192 0.0726127 0.068533 0.094833 0.071598 0.079197
101 2 Si 2.37796 18.645 4.4844 2.4 1 0.022153 0.00795581 0.0245588 0.0322238 0.0279016 0.0327728 0.0640592 0.0303248 0.0560989 0.060438 0.0504015 0.0596983 0.0608659 0.0551139 0.0728724 0.0683053 0.0456195 0.0982303 0.0536749 0.0573563
102 3 O 2.39434 20.2583 4.4844 -1.2 1 0.0232257 0.0122115 0.0125617 0.0157821 0.025684 0.0213663 0.0413044 0.058631 0.0437187 0.0497619 0.0408601 0.0737256 0.0500358 0.0628633 0.0704636 0.0712483 0.0478624 0.0699739 0.063084 0.0801163
103 3 O -4.24274 17.671 4.4844 -1.2 1 0.026135 0.0200554 0.0189045 0.0176649 0.0216317 0.0496525 0.0353855 0.04617 0.0451485 0.053951 0.0401676 0.0510943 0.0482342 0.0697982 0.0982045 0.0628761 0.0741331 0.0516193 0.0762126 0.0718737
104 3 O 3.08659 17.9389 3.18632 -1.2 1 0.028167 0.0129497 0.0214865 0.0113985 0.0168762 0.038554 0.0370515 0.0560404 0.0429198 0.0526123 0.055564 0.0482336 0.0521057 0.0492082 0.0808857 0.0584282 0.0682956 0.0601361 0.0647645 0.0697145
105 1 Mg 1.44478 16.6215 0 1.2 1 0.0095997 0.0119062 0.0217431 0.0124847 0.0268354 0.031383 0.0482737 0.0354693 0.0509221 0.0503302 0.0517961 0.0397496 0.0588786 0.0495737 0.0702143 0.0656477 0.0603657 0.0675564 0.0885412 0.0635659
106 3 O 3.0436 17.9389 5.78248 -1.2 1 0.0146585 0.0156342 0.0243131 0.0224081 0.0214362 0.0238715 0.052106 0.0411465 0.0417271 0.0402966 0.0603358 0.0391044 0.0553654 0.0595006 0.0836551 0.0638782 0.0695714 0.0581505 0.0629378 0.0832251
107 1 Mg -1.40524 16.6628 1.4948 1.2 1 0.011613 0.0124714 0.0258266 0.0176499 0.0174397 0.0344519 0.0360673 0.0426908 0.0417029 0.0605178 0.0407536 0.0627145 0.0548329 0.0644756 0.0738288 0.0692098 0.0641326 0.0777707 0.0780404 0.0760774
108 2 Si 0.420358 14.5979 1.4948 2.4 1 0.0225765 0.0192676 0.028893 0.0260028 0.0176523 0.0385004 0.039102 0.0419255 0.0443317 0.0549406 0.0426127 0.0619842 0.0577274 0.06304 0.0670951 0.0591406 0.0718939 0.0767134 0.062257 0.0713747
109 3 O 0.408732 12.9847 1.4948 -1.2 1 0.0221926 0.0154417 0.022677 0.0258531 0.0163414 0.0470438 0.0441601 0.0539403 0.0364911 0.0530195 0.0420221 0.069209 0.053044 0.0567832 0.0652536 0.063401 0.0715107 0.0551759 0.0682061 0.0723544
110 3 O 7.03923 15.572 1.4948 -1.2 1 0.0293002 0.0168843 0.0218115 0.0128337 0.0361071 0.0336997 0.0367405 0.0563181 0.0383619 0.0444915 0.0511721 0.0533638 0.0481117 0.0741024 0.0781487 0.0782646 0.0642773 0.0694411 0.0622652 0.0775891
111 3 O -0.248332 15.3041 0.196716 -1.2 1 0.0155733 0.0153107 0.0224569 0.0197233 0.0253381 0.0468296 0.0488579 0.0424954 0.0379783 0.0443409 0.0383301 0.0296588 0.0605747 0.0527224 0.0687369 0.0633316 0.0822156 0.0507059 0.0705291 0.0732143
112 3 O -0.289436 15.3041 2.79288 -1.2 1 0.0181753 0.0155571 0.0263693 0.0114055 0.0305364 0.0369918 0.0435987 0.0476509 0.0442161 0.0394659 0.0542334 0.0476021 0.0498784 0.0524538 0.0729566 0.0695672 0.0713823 0.0560659 0.0688979 0.0760962
113 1 Mg 6.59566 18.996 0 1.2 1 0.014086 0.0113092 0.0197783 0.0143699 0.0261519 0.0317335 0.0431594 0.0332439 0.0539558 0.0491555 0.0538488 0.0390615 0.0520134 0.0527962 0.0721887 0.0642899 0.0643595 0.0647513 0.0866367 0.070237
114 1 Mg 3.85574 23.7037 1.4948 1.2 1 0.0107468 0.0126035 0.0212285 0.0140336 0.0227212 0.0288179 0.0314962 0.0368111 0.0389929 0.0600209 0.0471767 0.0628127 0.050157 0.0669443 0.0646812 0.0725208 0.066105 0.0796705 0.0800415 0.0758836
115 2 Si 5.66125 21.0195 1.4948 2.4 1 0.00820987 0.0243859 0.0233207 0.0274185 0.0191945 0.0464589 0.0336401 0.0414872 0.0488592 0.054297 0.0451331 0.0606919 0.0560345 0.0598033 0.0716026 0.0604915 0.0741735 0.077119 0.065566 0.0755338
116 3 O 5.72074 22.6328 1.4948 -1.2 1 0.0281693 0.0193328 0.0184531 0.0227556 0.0191488 0.0449347 0.045261 0.061879 0.0377966 0.0521133 0.0328065 0.0698037 0.0494302 0.0537504 0.0684822 0.0558178 0.0651051 0.0676725 0.0566016 0.0710821
117 3 O 2.03867 20.0455 1.4948 -1.2 1 0.0300398 0.0166454 0.0267721 0.0159113 0.0342181 0.029774 0.0362081 0.0549062 0.0436646 0.0426844 0.0508281 0.0503501 0.0479429 0.0738436 0.084629 0.0727671 0.0618518 0.0680823 0.0638484 0.0732239
118 3 O 4.96004 20.3134 0.196716 -1.2 1 0.0211005 0.0104697 0.0229407 0.0189946 0.0232494 0.0454598 0.0440007 0.0479506 0.0390528 0.0400994 0.0409123 0.0341791 0.0647191 0.0473716 0.0697711 0.0729312 0.0713599 0.0585615 0.0722728 0.0717764
119 1 Mg 6.55057 18.996 2.9896 1.2 1 0.00985488 0.0177998 0.0213502 0.0219696 0.0211273 0.033938 0.0367517 0.0551952 0.034598 0.0595268 0.035441 0.0614065 0.0230106 0.0695082 0.0445165 0.0727946 0.0449892 0.095198 0.0433727 0.0936659
120 3 O 4.92172 20.3134 2.79288 -1.2 1 0.0101314 0.0114886 0.0318503 0.0157538 0.030565 0.0392833 0.0457486 0.0454499 0.0470694 0.0432294 0.053248 0.0408557 0.0538765 0.0543741 0.0759527 0.0670425 0.0753655 0.047904 0.071952 0.071234
121 1 Mg -0.84282 19.0373 4.4844 1.2 1 0.0110077 0.00998503 0.0144334 0.0264424 0.0253707 0.026731 0.0336655 0.0346213 0.0461741 0.0504576 0.0589924 0.0569665 0.0667091 0.0677239 0.0578343 0.0715523 0.0703529 0.0928881 0.0734267 0.0838103
122 2 Si -2.64823 21.7214 4.4844 2.4 1 0.0155855 0.0136911 0.0195834 0.0255 0.0299362 0.0404159 0.0574939 0.0309598 0.0544282 0.0614275 0.0525402 0.0634305 0.0594241 0.0561183 0.0764455 0.0720013 0.0460374 0.0944923 0.0555319 0.0642426
123 3 O -2.70847 20.1082 4.4844 -1.2 1 0.012174 0.0189333 0.0158218 0.0267864 0.0255386 0.0236624 0.0413462 0.0649718 0.0450199 0.0495649 0.0379928 0.0701142 0.0499466 0.0578623 0.0660537 0.0671196 0.0484874 0.0715826 0.0651849 0.0785845
124 3 O 0.97581 22.6955 4.4844 -1.2 1 0.0160616 0.0197797 0.0259827 0.0206165 0.0207386 0.0410664 0.0314501 0.0533178 0.0442653 0.0545895 0.0422153 0.0463662 0.0477657 0.0737153 0.109567 0.0563559 0.0696941 0.0565121 0.0705453 0.0700139
125 3 O -1.9076 22.4276 3.18632 -1.2 1 0.0220943 0.00766294 0.0205229 0.0161235 0.013284 0.037323 0.0438313 0.0551373 0.0376867 0.0508704 0.0548652 0.0489145 0.0565506 0.048772 0.0806998 0.058077 0.0692527 0.0650648 0.0629476 0.0658644
126 3 O -1.9475 22.4276 5.78248 -1.2 1 0.0159557 0.00569597 0.0210094 0.0201133 0.0170248 0.0286623 0.0499774 0.0474067 0.0367722 0.0382385 0.0573838 0.0407523 0.0546983 0.0623573 0.076399 0.0668384 0.0711289 0.0584574 0.0684353 0.0758937