ITEM: TIMESTEP
23300
ITEM: NUMBER OF ATOMS
10500
ITEM: BOX BOUNDS xy xz yz pp pp pp
0	15.2977	5.09925
0	118.725	0
0	89.688	0
ITEM: ATOMS id type element xu yu zu q Q_1 Q_2 Q_3 Q_4 Q_5 Q_6 Q_7 Q_8 Q_9 Q_10 Q_11 Q_12 Q_13 Q_14 Q_15 Q_16 Q_17 Q_18 Q_19 Q_20 Q_21
1 1 Mg 6.2404 -6.37941e-06 0 1.2 1 0.0131865 0.0409642 0.0295665 0.0357353 0.0334454 0.0411522 0.0359985 0.0687514 0.0393304 0.071258 0.033774 0.0593077 0.0460752 0.0685631 0.0499317 0.0921696 0.0515947 0.0839451 0.0511778 0.102839
2 1 Mg 3.46349 4.70768 1.4948 1.2 1 0.0168921 0.0169296 0.0242772 0.0215781 0.0202459 0.04212 0.0422508 0.0399278 0.046102 0.055742 0.042912 0.0702078 0.0575668 0.0709499 0.0716236 0.0644431 0.0680686 0.0858075 0.0726307 0.0814738
3 2 Si 5.2885 2.02354 1.4948 2.4 1 0.0171731 0.0229194 0.0318265 0.0266133 0.0309388 0.0377426 0.0551632 0.0310508 0.0436345 0.0540399 0.0529799 0.0609164 0.0551278 0.0652926 0.0681975 0.079003 0.0703418 0.0643643 0.0646798 0.0719341
4 3 O 5.33628 3.63678 1.4948 -1.2 1 0.00926517 0.0140095 0.0267455 0.0258714 0.0183543 0.0390014 0.0418899 0.0603069 0.0355582 0.040594 0.0544768 0.0510444 0.0673617 0.0573731 0.0585522 0.0651456 0.0601596 0.0615071 0.0714525 0.0743545
5 3 O 1.67294 1.04952 1.4948 -1.2 1 0.0162476 0.0217314 0.0232833 0.035615 0.0297078 0.0386969 0.0340445 0.0610108 0.0347621 0.0598098 0.0439288 0.0507685 0.0715601 0.0593625 0.0762537 0.069475 0.062936 0.0644425 0.0791616 0.0605213
6 3 O 4.59532 1.31737 0.196716 -1.2 1 0.0257382 0.0219175 0.0576173 0.0253437 0.0330705 0.0489149 0.0386904 0.0474753 0.0337372 0.0389727 0.0383124 0.0503105 0.0540254 0.0573355 0.0633453 0.0697755 0.0624055 0.071528 0.0592224 0.0711213
7 1 Mg 6.18956 -6.37941e-06 2.9896 1.2 1 0.0154798 0.0281578 0.0154128 0.0214787 0.0359514 0.0456047 0.0502731 0.0436647 0.0477408 0.0454404 0.0386129 0.056393 0.039318 0.0559103 0.0583197 0.0794189 0.0575941 0.0691229 0.0595862 0.0699437
8 3 O 4.55118 1.31737 2.79288 -1.2 1 0.0240466 0.0254318 0.0393666 0.0186324 0.0273565 0.0453717 0.0447995 0.0482059 0.044931 0.0526127 0.0532907 0.0498568 0.0483219 0.0666838 0.0541807 0.0676523 0.0633282 0.0668032 0.0639478 0.0728621
9 1 Mg -1.20682 0.0413099 4.4844 1.2 1 0.0143847 0.0246034 0.0221211 0.0274339 0.0370177 0.0422563 0.0307703 0.0566541 0.0543227 0.038847 0.0504528 0.0592592 0.0664828 0.0561278 0.0746792 0.0627704 0.0810576 0.0754698 0.0631179 0.0513458
10 2 Si -3.0337 2.72544 4.4844 2.4 1 0.0340007 0.0168972 0.0224782 0.0129846 0.0324445 0.0408261 0.0586514 0.0352138 0.0610174 0.0527865 0.0470892 0.0610033 0.0574752 0.0757769 0.0541899 0.0597944 0.0732745 0.0800081 0.0703327 0.0619202
11 3 O -3.08099 1.11221 4.4844 -1.2 1 0.0123658 0.0240734 0.0279803 0.0226506 0.0372701 0.0240385 0.0509526 0.045125 0.0403405 0.0398782 0.0409833 0.0714548 0.0532296 0.0516343 0.0553398 0.0673445 0.0573468 0.081749 0.0749228 0.0743233
12 3 O 0.582463 3.69946 4.4844 -1.2 1 0.00487134 0.0128216 0.03018 0.0287553 0.0270996 0.0654792 0.0313914 0.0540666 0.0432417 0.0414475 0.0528926 0.0573936 0.0616208 0.0701265 0.101472 0.0676438 0.0795524 0.0397995 0.0738136 0.0669126
13 3 O -2.29524 3.43162 3.18632 -1.2 1 0.013773 0.0191227 0.0255335 0.0304385 0.0227856 0.052917 0.0508035 0.0518331 0.0418538 0.052408 0.0592224 0.0523101 0.0420649 0.0534799 0.0602693 0.0652012 0.0663039 0.0622472 0.0636529 0.0741389
14 3 O -2.34216 3.43162 5.78248 -1.2 1 0.019935 0.014216 0.0140718 0.0275006 0.0253058 0.0412786 0.0513373 0.0488859 0.0429568 0.0546018 0.0563308 0.0484822 0.0577977 0.0499286 0.0778761 0.0719795 0.0631871 0.0702531 0.0729252 0.0716569
15 1 Mg 1.12778 2.37449 2.9896 1.2 1 0.0117794 0.0405288 0.0193347 0.02212 0.0250832 0.0428234 0.0406721 0.0518494 0.036228 0.0608873 0.0376256 0.0575289 0.0400814 0.066641 0.0635086 0.0710654 0.0685293 0.0811866 0.046293 0.0870185
16 1 Mg 3.92855 2.33318 4.4844 1.2 1 0.0276635 0.0157713 0.024457 0.0296899 0.0445833 0.025449 0.0391103 0.0369458 0.0480593 0.0683286 0.0498815 0.0600185 0.0502709 0.0614285 0.0546251 0.0743033 0.0636766 0.094781 0.0742057 0.0836024
17 2 Si 2.09341 4.39804 4.4844 2.4 1 0.0144047 0.0206943 0.0321786 0.0148102 0.0413032 0.0275529 0.0633383 0.0210842 0.0437516 0.048406 0.0620279 0.062357 0.0674647 0.0577617 0.072648 0.0755948 0.0706985 0.0811369 0.0504901 0.0678292
18 3 O 2.09991 6.01128 4.4844 -1.2 1 0.0114133 0.0110128 0.0163835 0.019219 0.0338356 0.0231083 0.0520288 0.0515423 0.0462124 0.0453513 0.0469466 0.066695 0.0464235 0.0606355 0.0663335 0.0717573 0.0472238 0.0808068 0.061247 0.0697104
19 3 O -4.52137 3.42402 4.4844 -1.2 1 0.0210086 0.0319056 0.0385852 0.0203647 0.027686 0.0575829 0.0391724 0.0460444 0.0559762 0.0586736 0.0327794 0.0592731 0.0539804 0.0536095 0.0893863 0.0720079 0.0780608 0.0605303 0.0743376 0.0541911
20 3 O 2.80834 3.69187 3.18632 -1.2 1 0.00916998 0.0185472 0.0209484 0.0251332 0.0218686 0.0386644 0.0362315 0.0510376 0.0443569 0.0584016 0.0670483 0.0517636 0.0424892 0.0639077 0.0702285 0.0716912 0.0622558 0.0587294 0.0700331 0.0712132
21 1 Mg 1.17857 2.37449 0 1.2 1 0.0144925 0.0371302 0.0293077 0.0288048 0.0364439 0.038916 0.0431116 0.0588248 0.0354184 0.048823 0.0524297 0.0408132 0.0435776 0.0670243 0.0552672 0.0656001 0.0595569 0.0806096 0.0570889 0.0729729
22 3 O 2.76143 3.69187 5.78248 -1.2 1 0.0119175 0.0213098 0.018811 0.0212901 0.0210597 0.035658 0.0363907 0.0505851 0.034908 0.0450068 0.057262 0.0439282 0.0582295 0.0748817 0.0757313 0.0685041 0.0672527 0.0608512 0.0685952 0.0770387
23 1 Mg -1.67381 2.41581 1.4948 1.2 1 0.0114175 0.0115523 0.0371547 0.0362143 0.0323714 0.0440144 0.0587939 0.0403534 0.0512145 0.0405966 0.0464082 0.0592051 0.0548607 0.0634178 0.0612235 0.064743 0.0831712 0.0777335 0.0666316 0.0739777
24 2 Si 0.16286 0.350945 1.4948 2.4 1 0.0170302 0.0327867 0.0257871 0.0269831 0.0326221 0.0350897 0.054939 0.0510228 0.0525504 0.0489648 0.040027 0.0579015 0.0722261 0.0690073 0.0589955 0.0743851 0.0722863 0.065581 0.0730015 0.0665408
25 3 O 0.15972 -1.26229 1.4948 -1.2 1 0.00912367 0.0154326 0.039677 0.0213792 0.0374209 0.0360094 0.0454791 0.0566984 0.0470773 0.0515761 0.0558461 0.0561523 0.0632034 0.0663329 0.0498215 0.0596162 0.0697583 0.0664141 0.0623347 0.0743553
26 3 O 6.77654 1.32496 1.4948 -1.2 1 0.0114742 0.0277836 0.0266637 0.0277492 0.0372748 0.0545196 0.0342436 0.0647495 0.0476345 0.04681 0.0442836 0.0525742 0.0522736 0.0592789 0.0686746 0.0716158 0.084729 0.0629174 0.0598835 0.074736
27 3 O -0.508028 1.05712 0.196716 -1.2 1 0.0246793 0.0190654 0.0295899 0.0206134 0.029243 0.0533603 0.0437536 0.0446781 0.0472157 0.0484486 0.050059 0.0478911 0.049213 0.0633738 0.0549684 0.0628627 0.0633818 0.0588946 0.0721399 0.0721646
28 3 O -0.552171 1.05712 2.79288 -1.2 1 0.0336445 0.0260074 0.0326038 0.0316991 0.0207974 0.0451824 0.0429027 0.0460336 0.0451558 0.0348231 0.0491293 0.0495495 0.0610261 0.0626624 0.0646486 0.076027 0.0714721 0.0509177 0.06999 0.0712094
29 1 Mg 6.31713 4.74899 0 1.2 1 0.0270992 0.0299426 0.0297747 0.0356646 0.0323131 0.0252205 0.0409503 0.0568751 0.0588088 0.0494438 0.0509129 0.0393042 0.0582303 0.0617242 0.0664687 0.063255 0.0663881 0.0741826 0.0702607 0.0697599
30 1 Mg 3.54847 9.45668 1.4948 1.2 1 0.0124422 0.0194575 0.016073 0.0216066 0.0200707 0.0385741 0.0390206 0.0417665 0.0435592 0.0555115 0.0368782 0.0712975 0.0547592 0.0660539 0.075466 0.0622876 0.0659375 0.0883336 0.0743833 0.0797478
31 2 Si 5.36879 6.77254 1.4948 2.4 1 0.0290519 0.0267723 0.0240437 0.0258056 0.0248772 0.0349808 0.0444539 0.0361888 0.0450141 0.0574737 0.0420542 0.0580611 0.053039 0.0666516 0.0655515 0.0744668 0.0669087 0.0788462 0.0561004 0.0682549
32 3 O 5.41937 8.38578 1.4948 -1.2 1 0.0215281 0.0113895 0.0234901 0.0295347 0.0177087 0.0431963 0.0441087 0.0573296 0.0364987 0.0507163 0.0475194 0.0643207 0.0551147 0.0535754 0.0663057 0.0613752 0.0724414 0.056113 0.0731718 0.0730699
33 3 O 1.75158 5.79852 1.4948 -1.2 1 0.0284545 0.0123123 0.0223119 0.0266153 0.0441372 0.0307751 0.0392876 0.0568787 0.0408726 0.0526038 0.0495673 0.0502914 0.0473196 0.07122 0.0786048 0.0785459 0.0604205 0.0751286 0.0599475 0.0767828
34 3 O 4.67421 6.06637 0.196716 -1.2 1 0.0145679 0.0265112 0.0315389 0.0243473 0.032031 0.0378641 0.0345738 0.0323288 0.0448278 0.0562402 0.0392409 0.0443572 0.0668244 0.0563531 0.0675704 0.0713546 0.0715792 0.0656641 0.063153 0.0684997
35 1 Mg 6.26654 4.74899 2.9896 1.2 1 0.0219931 0.0241061 0.0235921 0.0433816 0.0256703 0.044461 0.0481529 0.0481923 0.0359654 0.062411 0.0368999 0.0603099 0.0374383 0.0645224 0.052399 0.0771674 0.0557608 0.0843294 0.0469998 0.0904141
36 3 O 4.63043 6.06637 2.79288 -1.2 1 0.0160087 0.0194514 0.042658 0.0204157 0.0325112 0.035807 0.042435 0.0483354 0.0452005 0.0370597 0.0492138 0.0516299 0.0578856 0.0649282 0.0625488 0.0736748 0.0663737 0.0671264 0.0682946 0.0842672
37 1 Mg -1.12976 4.79031 4.4844 1.2 1 0.0221578 0.0254276 0.0148482 0.0144146 0.0363863 0.0379013 0.0485335 0.0477682 0.0438122 0.0436779 0.0554083 0.0610505 0.0738068 0.0727612 0.0618972 0.06841 0.0729443 0.0936969 0.0710602 0.0810385
38 2 Si -2.9517 7.47444 4.4844 2.4 1 0.0216191 0.0138612 0.0196148 0.0282678 0.0303609 0.042262 0.0624254 0.0288268 0.0549449 0.0591697 0.0501297 0.0572505 0.0611962 0.0566128 0.0785436 0.0720642 0.0521754 0.0884232 0.054944 0.0603584
39 3 O -3.00198 5.86121 4.4844 -1.2 1 0.0140871 0.0226919 0.0271696 0.0277867 0.0330085 0.0314077 0.0546856 0.0587579 0.0372788 0.0522305 0.0474107 0.0707977 0.0588169 0.0552028 0.0662483 0.0695178 0.0510342 0.0772907 0.0625022 0.0774112
40 3 O 0.666315 8.44846 4.4844 -1.2 1 0.00480222 0.0190977 0.0290413 0.0219828 0.0209828 0.0518244 0.0323982 0.0508863 0.0425343 0.0481887 0.0423206 0.0510096 0.0494684 0.0783768 0.103031 0.069054 0.0778429 0.0481801 0.0722245 0.0719576
41 3 O -2.21213 8.18062 3.18632 -1.2 1 0.0136156 0.0133749 0.016927 0.0158224 0.0164939 0.0370683 0.0462142 0.0565141 0.0461011 0.0539287 0.0537453 0.0513791 0.0538607 0.0471389 0.0783195 0.0634323 0.0717679 0.0588202 0.0668258 0.0712917
42 3 O -2.25864 8.18062 5.78248 -1.2 1 0.0167041 0.016787 0.0169935 0.0169833 0.0175051 0.0305692 0.0493018 0.0498498 0.0392016 0.0389456 0.053211 0.0384631 0.0599408 0.0567645 0.0852204 0.0677867 0.0673322 0.065821 0.0696393 0.0743523
43 1 Mg 1.20893 7.12349 2.9896 1.2 1 0.00663535 0.0205169 0.0216583 0.0250681 0.0255534 0.0377796 0.0436826 0.0478789 0.0350253 0.0663046 0.0399898 0.0651044 0.0330794 0.0584158 0.0502068 0.0792833 0.0505214 0.0839676 0.0453288 0.086364
44 1 Mg 4.00982 7.08218 4.4844 1.2 1 0.0190234 0.0147895 0.0259213 0.0367634 0.032956 0.0348218 0.0456264 0.036773 0.0472497 0.050475 0.0570627 0.0550171 0.0712272 0.0744133 0.0585117 0.0684006 0.0659138 0.0973187 0.0750935 0.0797838
45 2 Si 2.17861 9.14704 4.4844 2.4 1 0.0249861 0.0093299 0.0239549 0.0226811 0.0309401 0.0338432 0.0621823 0.0248448 0.0502609 0.0542197 0.0543221 0.0612058 0.063742 0.0576573 0.07724 0.0688586 0.0491628 0.0954977 0.0540903 0.0579058
46 3 O 2.18828 10.7603 4.4844 -1.2 1 0.0209787 0.0145629 0.00336185 0.0190534 0.0274933 0.0226803 0.0444873 0.0591684 0.0389809 0.054525 0.0404417 0.0705903 0.0461114 0.0643477 0.0713438 0.0727452 0.0482768 0.072804 0.0630125 0.0722178
47 3 O -4.43805 8.17302 4.4844 -1.2 1 0.00712302 0.0158184 0.0205686 0.021853 0.0237116 0.0547421 0.036729 0.0502157 0.0445108 0.0481402 0.0358929 0.0531975 0.0535498 0.0725624 0.100672 0.0671089 0.0819709 0.0528753 0.0755274 0.0720921
48 3 O 2.89193 8.44087 3.18632 -1.2 1 0.0178417 0.0160612 0.0184843 0.0144304 0.0216924 0.0419987 0.0337951 0.0563611 0.0434896 0.0514707 0.059034 0.0484084 0.0517482 0.0519131 0.0798564 0.0629246 0.0706192 0.0592428 0.0652186 0.0728649
49 1 Mg 1.25915 7.12349 0 1.2 1 0.0187117 0.0174879 0.0282658 0.0148713 0.0321328 0.0246223 0.0501825 0.0397569 0.0561507 0.0496137 0.0538662 0.0427377 0.0710783 0.0512966 0.0687133 0.0707881 0.0640474 0.0707937 0.0791681 0.058967
50 3 O 2.84547 8.44087 5.78248 -1.2 1 0.00852335 0.0135765 0.0132862 0.0213906 0.0212971 0.0282096 0.0456697 0.0475171 0.0402835 0.0405896 0.0577407 0.0399845 0.059408 0.0606232 0.0894653 0.0634627 0.0704187 0.0658438 0.0657149 0.0768857
51 1 Mg -1.59284 7.16481 1.4948 1.2 1 0.00976344 0.0164459 0.020412 0.0204765 0.0148874 0.037251 0.046235 0.0427171 0.0432797 0.0577718 0.0387895 0.0654724 0.0519983 0.0692366 0.0757408 0.0603436 0.0680969 0.084627 0.0733526 0.0784158
52 2 Si 0.240329 5.09994 1.4948 2.4 1 0.024602 0.0172177 0.0160488 0.0433848 0.0273293 0.0404725 0.0468431 0.0533157 0.0550302 0.048944 0.0454904 0.0574405 0.0590645 0.0679783 0.0655045 0.0666153 0.0637997 0.07267 0.0663695 0.0678007
53 3 O 0.234538 3.48671 1.4948 -1.2 1 0.0130942 0.0164238 0.026484 0.035925 0.0312719 0.049176 0.0459503 0.0425154 0.0528362 0.0469901 0.0521732 0.0614661 0.0560193 0.0607077 0.0615315 0.0626058 0.0629233 0.0572325 0.0759252 0.074035
54 3 O 6.85564 6.07396 1.4948 -1.2 1 0.0324448 0.0193815 0.0344741 0.0277272 0.0372575 0.0404501 0.0323699 0.0624138 0.0367046 0.0532722 0.0540292 0.0533147 0.0548156 0.0733439 0.0697596 0.0769743 0.0664607 0.0723403 0.0530532 0.0850327
55 3 O -0.429565 5.80612 0.196716 -1.2 1 0.0340489 0.0200401 0.0159316 0.021236 0.0409682 0.0374414 0.053874 0.0450633 0.0460281 0.0562626 0.0397779 0.0419278 0.0533622 0.0601335 0.059958 0.0681585 0.0703665 0.0610615 0.065305 0.0741868
56 3 O -0.473377 5.80612 2.79288 -1.2 1 0.02477 0.0215746 0.0340249 0.0186206 0.0347619 0.0464036 0.0491693 0.0487933 0.0547887 0.0460217 0.0625884 0.0387148 0.043387 0.0583248 0.0664351 0.0711539 0.0658185 0.0687127 0.071741 0.0795466
57 1 Mg 6.40169 9.49799 0 1.2 1 0.0127319 0.0120096 0.0211632 0.0144937 0.0304169 0.0213866 0.0521284 0.0356244 0.0584798 0.0492821 0.0496989 0.0354336 0.0672766 0.0528398 0.0709285 0.0671124 0.0653034 0.0705943 0.0813015 0.0683932
58 1 Mg 3.64209 14.2057 1.4948 1.2 1 0.0105156 0.0110305 0.0180676 0.016512 0.0217206 0.0336219 0.0362395 0.0432449 0.0413872 0.0555937 0.0394978 0.0664854 0.0532002 0.06638 0.0737222 0.0633579 0.0647739 0.0822591 0.0742554 0.0782672
59 2 Si 5.45748 11.5215 1.4948 2.4 1 0.0119929 0.0217912 0.0232568 0.0246743 0.0180371 0.0401808 0.0397111 0.0401074 0.0434998 0.0544303 0.0425036 0.0604525 0.0534787 0.0661065 0.0694855 0.0635687 0.0708085 0.0816707 0.0577088 0.0667272
60 3 O 5.51101 13.1348 1.4948 -1.2 1 0.0242681 0.0135073 0.0224037 0.0294652 0.0197057 0.0433981 0.0444362 0.0589933 0.0362459 0.0492517 0.0429187 0.0671938 0.0534834 0.0536378 0.0661064 0.0595696 0.0709975 0.0579916 0.0691099 0.0719758
61 3 O 1.83851 10.5475 1.4948 -1.2 1 0.0351953 0.013975 0.0215901 0.0140782 0.0363814 0.0301699 0.0362831 0.0592397 0.0400252 0.0484252 0.0496244 0.0514477 0.0469012 0.0747605 0.0759238 0.0797256 0.0562641 0.0759408 0.0578546 0.0785675
62 3 O 4.7611 10.8154 0.196716 -1.2 1 0.0321876 0.0203041 0.0199187 0.0183156 0.0284915 0.0442907 0.0473417 0.037279 0.0373158 0.0470622 0.0379012 0.0394411 0.0596263 0.0605232 0.0649165 0.070522 0.0765809 0.0649801 0.0730453 0.0685646
63 1 Mg 6.35203 9.49799 2.9896 1.2 1 0.012525 0.0170294 0.0253609 0.0212823 0.0196739 0.0384098 0.0374328 0.0515298 0.0351765 0.0592868 0.0320934 0.064824 0.0285578 0.0660609 0.0470589 0.0803754 0.044854 0.0897952 0.0455137 0.0904004
64 3 O 4.71833 10.8154 2.79288 -1.2 1 0.0217119 0.0128165 0.0326864 0.0127264 0.0306111 0.0427222 0.0436006 0.0447561 0.0427875 0.0370832 0.0538792 0.0419289 0.0544376 0.0584581 0.0735733 0.0685926 0.0730214 0.0588689 0.070613 0.0788785
65 1 Mg -1.0438 9.53931 4.4844 1.2 1 0.0122911 0.0181902 0.0139677 0.0231874 0.0267747 0.0305258 0.0381851 0.0351429 0.0470782 0.0508353 0.0569722 0.0568851 0.0664389 0.0724781 0.0598586 0.0708185 0.0723347 0.0970058 0.0710327 0.083866
66 2 Si -2.8604 12.2234 4.4844 2.4 1 0.0177842 0.011485 0.0161563 0.0269613 0.0301517 0.0421032 0.0596412 0.0304806 0.0536465 0.064267 0.0540301 0.0635382 0.0607046 0.0553752 0.0783004 0.0716386 0.0489542 0.0921615 0.0535439 0.0636339
67 3 O -2.91391 10.6102 4.4844 -1.2 1 0.0188799 0.0135793 0.00752138 0.0236012 0.0289988 0.023938 0.0452727 0.062327 0.0404255 0.0494753 0.0367679 0.0708972 0.0461319 0.0586083 0.0675388 0.070318 0.0506586 0.0762765 0.0633338 0.0745469
68 3 O 0.7596 13.1975 4.4844 -1.2 1 0.0187738 0.0248763 0.0177619 0.014593 0.0227826 0.0527133 0.0314136 0.051809 0.0440985 0.0487543 0.0397605 0.0501851 0.0492691 0.0708613 0.101048 0.060935 0.0778076 0.0548167 0.0734592 0.0705439
69 3 O -2.12001 12.9296 3.18632 -1.2 1 0.0175595 0.00908536 0.0195274 0.0168391 0.0205448 0.0386884 0.0420184 0.0548412 0.0464408 0.0518621 0.0542209 0.0487261 0.0563156 0.0501601 0.0802433 0.0637849 0.0720031 0.0632206 0.0660092 0.0697913
70 3 O -2.16532 12.9296 5.78248 -1.2 1 0.0119134 0.00671666 0.021482 0.0197877 0.0165521 0.0300915 0.0466407 0.0494158 0.0366225 0.0386593 0.056526 0.0390029 0.0580035 0.0595987 0.0813341 0.0711763 0.0701878 0.0640917 0.0679118 0.0748856
71 1 Mg 1.29891 11.8725 2.9896 1.2 1 0.00681055 0.0161278 0.0217614 0.0225466 0.0174871 0.0382982 0.0369339 0.050565 0.0351092 0.0599944 0.0336706 0.0592117 0.025544 0.0680203 0.0491396 0.0827449 0.0492999 0.0896819 0.0478414 0.0864071
72 1 Mg 4.10033 11.8312 4.4844 1.2 1 0.0120485 0.0178512 0.0169601 0.0258283 0.026138 0.0341376 0.0426954 0.033844 0.0468514 0.051207 0.0530023 0.0546862 0.0666232 0.0701334 0.0539093 0.0702599 0.0706313 0.0998855 0.0737724 0.0805045
73 2 Si 2.27333 13.896 4.4844 2.4 1 0.0265559 0.00868578 0.0234576 0.0273419 0.0224767 0.037875 0.0623493 0.03007 0.0545595 0.0557303 0.052849 0.0594789 0.0610932 0.0559422 0.0758521 0.0690471 0.0470671 0.0965142 0.0547185 0.0560175
74 3 O 2.28634 15.5093 4.4844 -1.2 1 0.0208865 0.0122283 0.0105653 0.0159829 0.0277199 0.0215636 0.0426032 0.0601189 0.0414599 0.0526614 0.041132 0.0725773 0.046836 0.0633555 0.0692701 0.0710566 0.046644 0.0711288 0.0656408 0.0739125
75 3 O -4.34533 12.922 4.4844 -1.2 1 0.0166198 0.0217518 0.0211981 0.017072 0.0217914 0.0536121 0.0322797 0.0500216 0.0446853 0.0520508 0.0391599 0.0539165 0.0493875 0.0708214 0.102118 0.0651762 0.0798872 0.0522095 0.074729 0.070989
76 3 O 2.98455 13.1899 3.18632 -1.2 1 0.0253509 0.0116171 0.0190947 0.0117307 0.018776 0.0401835 0.0378793 0.0576694 0.0425862 0.0548216 0.0549807 0.0488223 0.0509449 0.0505277 0.0817225 0.0608175 0.067402 0.0606539 0.0650467 0.0716383
77 1 Mg 1.34779 11.8725 0 1.2 1 0.021835 0.00906646 0.0218677 0.0144319 0.0288018 0.0222871 0.0516924 0.0346665 0.0576815 0.0509104 0.049764 0.0356004 0.0648868 0.0500685 0.070836 0.0644932 0.0614574 0.0701827 0.0869541 0.0601125
78 3 O 2.93934 13.1899 5.78248 -1.2 1 0.0176831 0.0118028 0.0193735 0.0199223 0.0163696 0.0279955 0.0444991 0.0503165 0.0394955 0.0423611 0.0582092 0.0403598 0.054716 0.0607407 0.0881051 0.065904 0.0706318 0.0632713 0.0655782 0.0793846
79 1 Mg -1.50344 11.9138 1.4948 1.2 1 0.0129406 0.0179382 0.0228812 0.0204746 0.0118044 0.0369442 0.0383306 0.0424768 0.0414174 0.0600455 0.035429 0.0649263 0.0504926 0.0648115 0.0746066 0.0678572 0.0641978 0.0841061 0.0762057 0.0786573
80 2 Si 0.326006 9.84894 1.4948 2.4 1 0.0249843 0.0192293 0.0249175 0.0303871 0.0172759 0.0386927 0.0442353 0.0376383 0.0450869 0.0560383 0.0404264 0.0595575 0.0551444 0.0668946 0.0611745 0.0635773 0.0702155 0.0796023 0.0614612 0.0687619
81 3 O 0.317364 8.23571 1.4948 -1.2 1 0.0223714 0.012536 0.0225084 0.0240349 0.0199964 0.0452046 0.0429955 0.0499126 0.0347965 0.0544369 0.0439914 0.0659107 0.0571499 0.0595913 0.0677387 0.066509 0.0716337 0.0535164 0.0734106 0.0744361
82 3 O 6.94307 10.823 1.4948 -1.2 1 0.0312041 0.0147344 0.0219005 0.0116407 0.0372673 0.0331401 0.0381519 0.0578095 0.0346988 0.0474428 0.0512456 0.0525466 0.0502634 0.0749233 0.0727902 0.079854 0.0618821 0.0729265 0.0580706 0.080291
83 3 O -0.343122 10.5551 0.196716 -1.2 1 0.0269212 0.0181114 0.0218504 0.021182 0.0311842 0.0417695 0.0500869 0.0390918 0.0375527 0.0483418 0.0382492 0.0360849 0.0599672 0.0606292 0.0687252 0.0697972 0.0825134 0.0533053 0.0703687 0.0704329
84 3 O -0.385966 10.5551 2.79288 -1.2 1 0.0219757 0.0200608 0.0317896 0.0124041 0.0335892 0.0410922 0.0446777 0.046021 0.0428501 0.0398586 0.0521819 0.0482898 0.0492321 0.0552277 0.0700006 0.0721879 0.0678318 0.0596325 0.0681603 0.0795068
85 1 Mg 6.49448 14.247 0 1.2 1 0.0227013 0.010029 0.0185126 0.0169671 0.0286151 0.0228199 0.0477623 0.0329734 0.0593056 0.0482132 0.0513113 0.0374482 0.0624966 0.0528577 0.0710415 0.0652689 0.0642984 0.0707622 0.084794 0.0705491
86 1 Mg 3.74457 18.9547 1.4948 1.2 1 0.0149689 0.0106869 0.0152742 0.0160494 0.0257895 0.0293021 0.031335 0.0394502 0.0380629 0.0578716 0.0435381 0.0668661 0.050622 0.0661991 0.0705283 0.0698446 0.0630428 0.0831492 0.0784987 0.0759466
87 2 Si 5.55495 16.2705 1.4948 2.4 1 0.0108264 0.0219645 0.0201046 0.0270354 0.0176958 0.0428933 0.0370128 0.0402405 0.0465848 0.0526595 0.0440307 0.0605714 0.0541721 0.0642698 0.0702426 0.0591163 0.0734943 0.0793036 0.0608937 0.0708959
88 3 O 5.6115 17.8838 1.4948 -1.2 1 0.0268941 0.0181197 0.0233308 0.0256421 0.0192361 0.0434873 0.0452367 0.0608749 0.0373192 0.0500456 0.038022 0.0670607 0.051151 0.0560557 0.064421 0.0574011 0.0657979 0.0616471 0.0632672 0.069245
89 3 O 1.93416 15.2965 1.4948 -1.2 1 0.0370946 0.0147955 0.0219133 0.0129344 0.0350542 0.0302654 0.0360624 0.0592914 0.0429905 0.046993 0.048582 0.0507653 0.0465253 0.0736775 0.0807726 0.0774951 0.058968 0.0738102 0.0623603 0.0771074
90 3 O 4.85636 15.5644 0.196716 -1.2 1 0.0224618 0.011762 0.021223 0.0189773 0.0252844 0.0514555 0.0495816 0.0397453 0.0393102 0.0445275 0.0375416 0.0323986 0.0629957 0.0544169 0.0671843 0.0674552 0.0761585 0.0627713 0.0725778 0.0686294
91 1 Mg 6.44662 14.247 2.9896 1.2 1 0.0102719 0.0178446 0.0228289 0.0218257 0.0186601 0.0354057 0.0379972 0.0535839 0.0365501 0.0574533 0.0341493 0.0628487 0.0251816 0.0673561 0.0451654 0.07659 0.0450668 0.0918222 0.0438339 0.0925126
92 3 O 4.81537 15.5644 2.79288 -1.2 1 0.0119038 0.00951426 0.0292047 0.0131198 0.0281237 0.037056 0.0467431 0.0470595 0.0459464 0.0391681 0.0513711 0.0423726 0.0537337 0.0575542 0.0756547 0.0675193 0.0763177 0.0523898 0.0719114 0.0761227
93 1 Mg -0.948271 14.2883 4.4844 1.2 1 0.0161442 0.0121007 0.01468 0.0289578 0.0239363 0.028156 0.0379368 0.0344279 0.044152 0.0484413 0.0593208 0.0566271 0.0669589 0.0685297 0.0581832 0.070115 0.0714899 0.0955838 0.0738552 0.0825963
94 2 Si -2.75928 16.9724 4.4844 2.4 1 0.0187994 0.0135029 0.0162627 0.0276186 0.0317513 0.0402522 0.0587454 0.0302356 0.0549423 0.0645964 0.0532726 0.0608268 0.0597464 0.0529995 0.0783312 0.0731485 0.0476651 0.0927948 0.0535031 0.0631332
95 3 O -2.81617 15.3592 4.4844 -1.2 1 0.0157681 0.0142972 0.0136024 0.0246819 0.0299787 0.0225872 0.0447002 0.0653603 0.0448134 0.0513363 0.0377525 0.0724528 0.0463852 0.0578601 0.0665179 0.0689661 0.0509939 0.0723662 0.0632427 0.0751579
96 3 O 0.862762 17.9465 4.4844 -1.2 1 0.0188636 0.0240933 0.022329 0.0177797 0.0214627 0.0481683 0.034335 0.052081 0.0464209 0.0532564 0.0393315 0.0479046 0.0445584 0.0697692 0.106429 0.0566753 0.0712744 0.0540815 0.0756318 0.0689428
97 3 O -2.0185 17.6786 3.18632 -1.2 1 0.0216076 0.00724491 0.0194817 0.018192 0.0172379 0.0375572 0.0417505 0.0553242 0.0410154 0.053928 0.0536054 0.0493682 0.0561591 0.049225 0.0810752 0.0601212 0.0692204 0.0663145 0.0646797 0.0689565
98 3 O -2.06164 17.6786 5.78248 -1.2 1 0.0143816 0.0154353 0.0212922 0.0217518 0.0157924 0.0295414 0.0470498 0.0479168 0.0371065 0.0386955 0.0581156 0.0391869 0.0564923 0.0597209 0.0849957 0.0704307 0.0678307 0.0641159 0.0696389 0.0760975
99 1 Mg 1.39817 16.6215 2.9896 1.2 1 0.00615955 0.0163175 0.0191202 0.0225271 0.0180857 0.0358557 0.0373893 0.0532724 0.0367419 0.0592979 0.0357476 0.0568615 0.0231979 0.0672039 0.0470923 0.0803502 0.049179 0.091257 0.0457187 0.08885
100 1 Mg 4.20062 16.5802 4.4844 1.2 1 0.0143642 0.0105047 0.0154803 0.0262302 0.0289137 0.0281908 0.0421427 0.0340795 0.0466317 0.0533617 0.0539461 0.0554124 0.0665836 0.0682707 0.0526648 0.0727133 0.0681726 0.0951461 0.0752905 0.0791535
101 2 Si 2.37796 18.645 4.4844 2.4 1 0.0250828 0.00644577 0.0221836 0.0261924 0.0262493 0.0371271 0.0605341 0.0308856 0.053903 0.0580396 0.0515081 0.063023 0.0620558 0.0574836 0.0711009 0.0681928 0.0453894 0.100656 0.051738 0.0578114
102 3 O 2.39434 20.2583 4.4844 -1.2 1 0.0198635 0.0164703 0.00749427 0.0155307 0.0272214 0.0242249 0.0424068 0.0596254 0.0431915 0.0518531 0.0409996 0.0733225 0.0496099 0.0627042 0.0713003 0.0711157 0.0488284 0.0696522 0.0657811 0.0786907
103 3 O -4.24274 17.671 4.4844 -1.2 1 0.0178089 0.0224727 0.0211043 0.0188776 0.0210255 0.0486804 0.0344346 0.0485515 0.0450271 0.0539261 0.0388926 0.051404 0.0501478 0.0696805 0.100015 0.0623903 0.0755088 0.0544869 0.0787068 0.0717492
104 3 O 3.08659 17.9389 3.18632 -1.2 1 0.0281512 0.0129895 0.0219046 0.0114982 0.0170194 0.0388658 0.0371344 0.0557656 0.0429886 0.0520087 0.055567 0.0478747 0.0522981 0.0497871 0.0805534 0.0585275 0.0673111 0.0606438 0.0649736 0.0695041
105 1 Mg 1.44478 16.6215 0 1.2 1 0.0120427 0.0123377 0.0213677 0.0122701 0.0273492 0.032143 0.0481941 0.0365908 0.0502568 0.0503381 0.0514078 0.0395581 0.0596863 0.0493679 0.0688599 0.065614 0.0594968 0.0675395 0.0898184 0.0629151
106 3 O 3.0436 17.9389 5.78248 -1.2 1 0.0158935 0.0112369 0.023224 0.0201739 0.0179017 0.0233149 0.0465203 0.0457808 0.0390424 0.0409468 0.0586918 0.0397572 0.0536688 0.0606501 0.084374 0.0646213 0.066806 0.0606409 0.0644726 0.0796045
107 1 Mg -1.40524 16.6628 1.4948 1.2 1 0.0116168 0.0124666 0.025798 0.0176481 0.0174198 0.0344508 0.036036 0.0427311 0.0415562 0.0604999 0.0406007 0.0626325 0.0548059 0.0644197 0.0739086 0.0692276 0.0642357 0.0778818 0.0781925 0.0760182
108 2 Si 0.420358 14.5979 1.4948 2.4 1 0.0225539 0.0192859 0.0289305 0.026013 0.0176381 0.0385334 0.0391026 0.0418818 0.0443246 0.0550165 0.042633 0.0617738 0.0576805 0.0632091 0.067081 0.0591438 0.0719619 0.0767078 0.0624123 0.071305
109 3 O 0.408732 12.9847 1.4948 -1.2 1 0.0222249 0.0154674 0.0228529 0.0256456 0.0166972 0.0471434 0.0439026 0.05392 0.0363423 0.052948 0.0422438 0.0690925 0.0531688 0.0569819 0.0656919 0.0633775 0.0713954 0.0550194 0.0684014 0.0718955
110 3 O 7.03923 15.572 1.4948 -1.2 1 0.0293046 0.0168943 0.0218641 0.0127658 0.0360984 0.0335268 0.0369248 0.0561147 0.0380735 0.0443346 0.0512356 0.0534115 0.0483434 0.0741658 0.0781574 0.0783391 0.0644201 0.069609 0.0623414 0.0776047
111 3 O -0.248332 15.3041 0.196716 -1.2 1 0.0189805 0.0128874 0.0212224 0.0181971 0.0252027 0.046297 0.048765 0.0428589 0.038985 0.0444479 0.0382036 0.0307212 0.0606999 0.0544509 0.0699354 0.0643822 0.0831245 0.050079 0.0699331 0.0725987
112 3 O -0.289436 15.3041 2.79288 -1.2 1 0.0184089 0.0153433 0.0268696 0.0100269 0.0314796 0.037123 0.0441305 0.0479925 0.0434371 0.0399917 0.0537598 0.0490931 0.0506635 0.0530384 0.0717785 0.0682407 0.0707065 0.0555828 0.06913 0.0764471
113 1 Mg 6.59566 18.996 0 1.2 1 0.0138146 0.0116209 0.0197732 0.0145146 0.0259873 0.0316025 0.0430604 0.0331109 0.0539083 0.0491199 0.0540066 0.0391847 0.0522329 0.0530759 0.0720624 0.0645151 0.0640121 0.0649751 0.0861913 0.0706459
114 1 Mg 3.85574 23.7037 1.4948 1.2 1 0.010665 0.0127612 0.0211253 0.0140281 0.0225677 0.0288597 0.031278 0.0371972 0.0392216 0.0601372 0.0470824 0.0625389 0.0499901 0.0667904 0.0645821 0.0721921 0.0663634 0.0796774 0.0797818 0.0757603
115 2 Si 5.66125 21.0195 1.4948 2.4 1 0.0085619 0.0227262 0.0248112 0.0274858 0.0200869 0.0457971 0.0337968 0.0433492 0.0474277 0.0541005 0.0443545 0.0612288 0.0556213 0.0600145 0.070909 0.0606335 0.0733892 0.0773156 0.065076 0.0751534
116 3 O 5.72074 22.6328 1.4948 -1.2 1 0.0281852 0.0191358 0.0183227 0.0227471 0.0192368 0.044731 0.0453984 0.0619559 0.0381542 0.0522783 0.032884 0.0697565 0.0492073 0.0535721 0.0680661 0.055838 0.0650004 0.0677609 0.0564611 0.0713487
117 3 O 2.03867 20.0455 1.4948 -1.2 1 0.0300246 0.0164643 0.0267417 0.0160336 0.0341111 0.0301019 0.0360308 0.0551129 0.0440791 0.0429424 0.0507871 0.050474 0.0475954 0.0735599 0.0846232 0.0729474 0.0616145 0.0679263 0.0636745 0.0731509
118 3 O 4.96004 20.3134 0.196716 -1.2 1 0.0210907 0.0103693 0.0229036 0.0187995 0.0232725 0.0453595 0.0439179 0.0479438 0.0389131 0.0399908 0.0410495 0.034259 0.0645584 0.0475066 0.0695954 0.0727515 0.0715017 0.0581685 0.0715843 0.0721204
119 1 Mg 6.55057 18.996 2.9896 1.2 1 0.0104079 0.0165829 0.0197936 0.0233425 0.0216923 0.0352097 0.0365028 0.0544554 0.0343955 0.0590635 0.034941 0.0623286 0.0221276 0.0691774 0.0454035 0.074637 0.0467646 0.0951253 0.0439914 0.0942341
120 3 O 4.92172 20.3134 2.79288 -1.2 1 0.0132558 0.0104257 0.0304903 0.0143459 0.030011 0.0406422 0.0463086 0.0456235 0.0473839 0.0425424 0.0529976 0.0414437 0.0533393 0.0529343 0.07575 0.0658453 0.075855 0.0481626 0.0722931 0.0717194
121 1 Mg -0.84282 19.0373 4.4844 1.2 1 0.0143036 0.0130697 0.013484 0.0277668 0.0233659 0.0269959 0.0369919 0.0319433 0.0452001 0.0494657 0.0595334 0.0563403 0.0657694 0.0692796 0.0589276 0.0713294 0.0721112 0.092911 0.0739473 0.0835282
122 2 Si -2.64823 21.7214 4.4844 2.4 1 0.0193819 0.0123874 0.0173166 0.027883 0.0286866 0.0414405 0.0559665 0.031668 0.054291 0.0635605 0.0518028 0.0630763 0.0595924 0.054507 0.0762371 0.0726595 0.0461093 0.0936393 0.0518889 0.0642508
123 3 O -2.70847 20.1082 4.4844 -1.2 1 0.011623 0.0204712 0.0135943 0.0248402 0.0278361 0.0246752 0.0412593 0.0639616 0.0443226 0.0491537 0.0404634 0.0707329 0.05072 0.0587832 0.0686348 0.0666778 0.0511123 0.0739968 0.0668157 0.0772338
124 3 O 0.97581 22.6955 4.4844 -1.2 1 0.015918 0.0252056 0.0201701 0.016596 0.0200661 0.0419716 0.0317015 0.0519724 0.0443144 0.0543147 0.0390783 0.0463664 0.0465897 0.0707044 0.10814 0.0523175 0.06833 0.0536751 0.0760664 0.0650733
125 3 O -1.9076 22.4276 3.18632 -1.2 1 0.0217786 0.00791971 0.0212313 0.016319 0.0136121 0.0364328 0.0441452 0.0555833 0.0376023 0.0502523 0.053508 0.0491592 0.0553994 0.046878 0.0808772 0.0580875 0.0683733 0.0663372 0.0639023 0.0665143
126 3 O -1.9475 22.4276 5.78248 -1.2 1 0.0165865 0.013575 0.0195018 0.020025 0.0155903 0.0259217 0.0459815 0.0443633 0.0371012 0.0365139 0.055125 0.0392177 0.0539031 0.0567528 0.0830222 0.0690568 0.0678683 0.0614705 0.0665377 0.0763758