ITEM: TIMESTEP
30600
ITEM: NUMBER OF ATOMS
10500
ITEM: BOX BOUNDS xy xz yz pp pp pp
0	15.2977	5.09925
0	118.725	0
0	89.688	0
ITEM: ATOMS id type element xu yu zu q Q_1 Q_2 Q_3 Q_4 Q_5 Q_6 Q_7 Q_8 Q_9 Q_10 Q_11 Q_12 Q_13 Q_14 Q_15 Q_16 Q_17 Q_18 Q_19 Q_20 Q_21
1 1 Mg 6.2404 -6.37941e-06 0 1.2 1 0.0131981 0.0408911 0.0297908 0.0359135 0.0331492 0.0412651 0.0354138 0.0685864 0.0387184 0.0713492 0.0337705 0.0593645 0.0460852 0.0684165 0.0499884 0.0921138 0.0516128 0.0838788 0.0508058 0.102305
2 1 Mg 3.46349 4.70768 1.4948 1.2 1 0.0168456 0.0166474 0.0244535 0.0217234 0.0200992 0.0420365 0.0425263 0.0394164 0.045839 0.0555713 0.0428028 0.0711126 0.0574473 0.0713249 0.072132 0.0644277 0.0683073 0.0854319 0.0727155 0.0819757
3 2 Si 5.2885 2.02354 1.4948 2.4 1 0.0199215 0.0222193 0.0338631 0.0286089 0.030048 0.0374517 0.0536577 0.0327621 0.0438024 0.0541054 0.0543746 0.0623514 0.0552836 0.0647723 0.0679044 0.0797695 0.0707086 0.0643299 0.0642236 0.0729822
4 3 O 5.33628 3.63678 1.4948 -1.2 1 0.00941856 0.0142494 0.026929 0.0257728 0.0184141 0.0390916 0.0418397 0.0600334 0.0354267 0.039952 0.0549352 0.0505104 0.0680981 0.0579385 0.059249 0.0650672 0.0601241 0.0617533 0.0711415 0.0744762
5 3 O 1.67294 1.04952 1.4948 -1.2 1 0.0163281 0.0218775 0.0232245 0.0357948 0.0296097 0.0387325 0.0341905 0.0609943 0.0348381 0.0596762 0.0439505 0.051225 0.0720479 0.0590644 0.0762427 0.0691289 0.062545 0.0644723 0.0793011 0.0603664
6 3 O 4.59532 1.31737 0.196716 -1.2 1 0.0269432 0.0196309 0.0563496 0.0254852 0.0334761 0.0487446 0.0392035 0.0477617 0.033788 0.0402403 0.0383598 0.0507415 0.0549805 0.058263 0.0638974 0.070428 0.0629595 0.0718077 0.0592578 0.0699833
7 1 Mg 6.18956 -6.37941e-06 2.9896 1.2 1 0.0155543 0.0283307 0.0158378 0.0221978 0.0373871 0.0444749 0.0507752 0.0429369 0.047689 0.0447502 0.038552 0.0562219 0.0384706 0.0559031 0.059136 0.0803449 0.0571765 0.0685093 0.0590491 0.0699626
8 3 O 4.55118 1.31737 2.79288 -1.2 1 0.0221705 0.0249075 0.0367847 0.0168256 0.0275499 0.0437831 0.0443235 0.0479946 0.0440433 0.0521759 0.053984 0.0505402 0.0478231 0.0671115 0.0521123 0.0667842 0.0642873 0.0656475 0.0647405 0.0716355
9 1 Mg -1.20682 0.0413099 4.4844 1.2 1 0.0161724 0.0268106 0.0210164 0.0282633 0.0383642 0.0413097 0.0324492 0.053044 0.0536575 0.0370059 0.0484072 0.0599648 0.0658775 0.0584062 0.0748925 0.0615612 0.0803544 0.0738948 0.0654246 0.0529118
10 2 Si -3.0337 2.72544 4.4844 2.4 1 0.0285524 0.0152185 0.0215897 0.0186832 0.0321219 0.0376241 0.0621889 0.0322197 0.0622695 0.0494771 0.0465409 0.0605346 0.0564681 0.0748685 0.0560128 0.0604769 0.0716196 0.0795009 0.0744173 0.0589485
11 3 O -3.08099 1.11221 4.4844 -1.2 1 0.0130025 0.0216191 0.0271256 0.024781 0.0409469 0.0265422 0.0492334 0.0447176 0.0413805 0.039813 0.0396464 0.0705856 0.0539487 0.0510643 0.0542129 0.0678609 0.0545417 0.0783401 0.071948 0.0777705
12 3 O 0.582463 3.69946 4.4844 -1.2 1 0.0138532 0.0234363 0.0292669 0.0282691 0.028662 0.0629067 0.0293522 0.0539492 0.0427888 0.0413209 0.0500871 0.053325 0.0602664 0.0688899 0.0967994 0.0703038 0.0767294 0.0420804 0.0688107 0.0654233
13 3 O -2.29524 3.43162 3.18632 -1.2 1 0.0124798 0.0201071 0.0256843 0.0308973 0.0199694 0.0507103 0.0512175 0.0499879 0.0408992 0.0528164 0.0592027 0.0550204 0.0404029 0.0518446 0.0588855 0.0649777 0.06635 0.0623502 0.0643063 0.0731878
14 3 O -2.34216 3.43162 5.78248 -1.2 1 0.0184643 0.0105718 0.019799 0.0285231 0.0254977 0.0408886 0.0536394 0.0478011 0.0365711 0.0561167 0.0560036 0.0472127 0.0549888 0.0491012 0.0772742 0.0744814 0.0647492 0.070385 0.0714368 0.069755
15 1 Mg 1.12778 2.37449 2.9896 1.2 1 0.0156934 0.0401772 0.0165 0.0238948 0.0253031 0.0432636 0.0408373 0.0502439 0.037221 0.0602978 0.0374931 0.0582313 0.0398194 0.06757 0.0631637 0.0697175 0.0675894 0.0826999 0.0454633 0.0864817
16 1 Mg 3.92855 2.33318 4.4844 1.2 1 0.0308426 0.0155153 0.0211696 0.0283883 0.0435567 0.0277598 0.0360563 0.0378911 0.048229 0.0676465 0.0486395 0.0591128 0.0469228 0.0619252 0.0561037 0.0731396 0.0645798 0.09461 0.072284 0.0838465
17 2 Si 2.09341 4.39804 4.4844 2.4 1 0.0114648 0.0175812 0.0337606 0.0185185 0.0425932 0.0268908 0.0631069 0.0229774 0.0455198 0.0474963 0.0632767 0.0588768 0.0670327 0.0615895 0.0702218 0.0709018 0.0704179 0.0803632 0.0516412 0.0671178
18 3 O 2.09991 6.01128 4.4844 -1.2 1 0.0186176 0.0079458 0.0158206 0.0206396 0.032838 0.0235287 0.0501983 0.051153 0.048838 0.0450082 0.047257 0.063647 0.0458605 0.0610067 0.066439 0.071086 0.0448132 0.0772358 0.0608857 0.0713035
19 3 O -4.52137 3.42402 4.4844 -1.2 1 0.0198903 0.0271321 0.0353906 0.0215728 0.0280668 0.0545056 0.0376376 0.049584 0.0541211 0.0567981 0.03131 0.055545 0.0522765 0.0566356 0.0919752 0.0742461 0.0738361 0.0609616 0.0735934 0.0561
20 3 O 2.80834 3.69187 3.18632 -1.2 1 0.0156413 0.0196749 0.0211786 0.0253433 0.0226202 0.0382125 0.0328552 0.04849 0.0436351 0.0576913 0.0658826 0.0508299 0.0419084 0.0612898 0.0698929 0.0729647 0.0607909 0.0587908 0.0731332 0.0720254
21 1 Mg 1.17857 2.37449 0 1.2 1 0.0138492 0.0345448 0.0281875 0.0287792 0.0385294 0.0397026 0.0450925 0.0599783 0.0366621 0.049061 0.0509385 0.0419376 0.0415598 0.0680274 0.0554648 0.0651815 0.0632147 0.0805986 0.0590675 0.0730756
22 3 O 2.76143 3.69187 5.78248 -1.2 1 0.00972079 0.0189087 0.0209735 0.0252442 0.0204647 0.033838 0.0397326 0.0483011 0.0356752 0.0441756 0.0568916 0.0447947 0.0551673 0.0765976 0.0747645 0.0661359 0.0712474 0.0584454 0.067217 0.0746665
23 1 Mg -1.67381 2.41581 1.4948 1.2 1 0.0100974 0.00796832 0.0392813 0.0351862 0.0318229 0.0438727 0.0586915 0.0391705 0.0519476 0.0415036 0.0437711 0.0568735 0.054055 0.0641179 0.0609674 0.0630049 0.0834703 0.0783669 0.0662055 0.0739756
24 2 Si 0.16286 0.350945 1.4948 2.4 1 0.0153907 0.0354361 0.0300181 0.0244633 0.0365626 0.035869 0.0563645 0.0486767 0.0533599 0.04952 0.0405449 0.0533478 0.0743397 0.0707268 0.0579629 0.0734797 0.0696579 0.0640171 0.0730681 0.064883
25 3 O 0.15972 -1.26229 1.4948 -1.2 1 0.00776971 0.019344 0.0374561 0.023177 0.0357029 0.037122 0.0461166 0.0551633 0.0478857 0.0510562 0.0560301 0.0565679 0.0625016 0.0674942 0.0513848 0.0595183 0.0699158 0.0658548 0.0628032 0.0734987
26 3 O 6.77654 1.32496 1.4948 -1.2 1 0.0114836 0.0276557 0.0265471 0.0275905 0.0371166 0.0542775 0.0342079 0.0647306 0.047607 0.0468929 0.0442877 0.052176 0.0526696 0.0597057 0.0685796 0.0711782 0.0842732 0.0631333 0.0596404 0.0745433
27 3 O -0.508028 1.05712 0.196716 -1.2 1 0.0269146 0.016072 0.0320501 0.0188333 0.029499 0.0546326 0.0444342 0.0455585 0.0461541 0.0487997 0.0498921 0.0476216 0.050111 0.0636492 0.0559272 0.0644851 0.0636666 0.0599451 0.072288 0.071284
28 3 O -0.552171 1.05712 2.79288 -1.2 1 0.0347278 0.0291111 0.0315629 0.032221 0.0248199 0.0462237 0.0420696 0.0493943 0.0415195 0.0385893 0.0501424 0.0488089 0.0605648 0.0604495 0.0650432 0.0752318 0.0691622 0.0499762 0.0688898 0.0718797
29 1 Mg 6.31713 4.74899 0 1.2 1 0.0274195 0.0294563 0.0302576 0.0365996 0.0327149 0.0266124 0.0418614 0.0558163 0.0585572 0.0495424 0.0509301 0.0384491 0.0594351 0.0614151 0.0656438 0.0635734 0.0658281 0.0736576 0.0697449 0.0702265
30 1 Mg 3.54847 9.45668 1.4948 1.2 1 0.0173296 0.0169322 0.0163547 0.0229783 0.0198351 0.0387201 0.0387646 0.0418049 0.043662 0.0547998 0.0377765 0.071274 0.0540048 0.0654112 0.0728824 0.063173 0.0662842 0.0882693 0.0749936 0.0793128
31 2 Si 5.36879 6.77254 1.4948 2.4 1 0.0290667 0.0269895 0.0239697 0.0255803 0.024736 0.0349049 0.0442421 0.0362137 0.0446827 0.0571036 0.0421318 0.0579567 0.0536631 0.0668594 0.0657172 0.0740426 0.0675077 0.0791532 0.0563941 0.06887
32 3 O 5.41937 8.38578 1.4948 -1.2 1 0.0215587 0.0114484 0.0235096 0.0295972 0.0176695 0.043234 0.0440733 0.0573659 0.0364076 0.050608 0.0475097 0.0642505 0.0551748 0.0537076 0.0663907 0.0611401 0.0724956 0.056063 0.0730852 0.0730099
33 3 O 1.75158 5.79852 1.4948 -1.2 1 0.0284646 0.0123468 0.0224665 0.0266144 0.044047 0.0306092 0.0394511 0.0566506 0.0407898 0.0523632 0.0495118 0.0505592 0.0474742 0.0713424 0.0787667 0.0786287 0.0603473 0.0751646 0.0601495 0.076747
34 3 O 4.67421 6.06637 0.196716 -1.2 1 0.0145292 0.0265154 0.0315355 0.0243271 0.0320155 0.0378697 0.0345867 0.032359 0.0447226 0.0562592 0.0392902 0.0443395 0.0666769 0.0563923 0.067592 0.0712292 0.0715798 0.0656888 0.0634209 0.0686643
35 1 Mg 6.26654 4.74899 2.9896 1.2 1 0.019535 0.0261366 0.0239319 0.0448245 0.024634 0.0447193 0.0478385 0.0469665 0.0363934 0.062643 0.0372115 0.0616548 0.0375247 0.064039 0.0516933 0.0782226 0.0555151 0.0843763 0.0472746 0.0907591
36 3 O 4.63043 6.06637 2.79288 -1.2 1 0.0233746 0.0195127 0.0395618 0.0211141 0.0304083 0.0385114 0.042692 0.0489217 0.0436761 0.0348192 0.0489651 0.051654 0.055375 0.0626884 0.0608735 0.0744294 0.0663388 0.0698707 0.0673986 0.0851093
37 1 Mg -1.12976 4.79031 4.4844 1.2 1 0.0231946 0.0261989 0.0142008 0.0146914 0.0351503 0.0383267 0.0475983 0.0480406 0.0445897 0.0454338 0.0547173 0.0602196 0.075359 0.0726903 0.0614361 0.0676259 0.073037 0.0930965 0.0734829 0.081285
38 2 Si -2.9517 7.47444 4.4844 2.4 1 0.0244245 0.0132359 0.0187153 0.0265752 0.0304809 0.042203 0.0618933 0.0289431 0.055156 0.0568265 0.0528626 0.0583396 0.0638344 0.0581448 0.0790655 0.0724909 0.0520571 0.0887056 0.0565325 0.0586082
39 3 O -3.00198 5.86121 4.4844 -1.2 1 0.0161217 0.0239539 0.0269402 0.0282444 0.0314912 0.0314796 0.0533282 0.0595989 0.0388723 0.0534212 0.046934 0.0708772 0.0588395 0.0560647 0.0646437 0.0713586 0.0496321 0.0769423 0.0601926 0.0793318
40 3 O 0.666315 8.44846 4.4844 -1.2 1 0.0204239 0.0233086 0.0242403 0.0170682 0.0216898 0.0530299 0.0316014 0.050716 0.0438205 0.0480989 0.0413102 0.0510569 0.0498815 0.0765324 0.100256 0.0666604 0.0743811 0.0497761 0.0699097 0.0731044
41 3 O -2.21213 8.18062 3.18632 -1.2 1 0.0182649 0.0156257 0.01573 0.0153654 0.017503 0.0346173 0.0462506 0.0545273 0.0452606 0.0542254 0.0537552 0.052198 0.0530438 0.0475729 0.0778478 0.0632804 0.0707577 0.0588478 0.0671662 0.0717593
42 3 O -2.25864 8.18062 5.78248 -1.2 1 0.0157465 0.0168373 0.0205206 0.0193264 0.0181579 0.0307663 0.0506776 0.047492 0.0377615 0.0393595 0.0549954 0.0392575 0.0580951 0.0580548 0.0830439 0.0694399 0.0707925 0.0642487 0.0703319 0.0741333
43 1 Mg 1.20893 7.12349 2.9896 1.2 1 0.00509991 0.022192 0.0192581 0.0257368 0.0239928 0.0406018 0.0424854 0.0453321 0.0349325 0.0650988 0.0391703 0.0672965 0.034943 0.0585927 0.0520739 0.080622 0.051364 0.0832351 0.0469277 0.0882609
44 1 Mg 4.00982 7.08218 4.4844 1.2 1 0.0196475 0.0154306 0.02691 0.0365261 0.0328459 0.0359045 0.0438032 0.0375065 0.046366 0.0504245 0.0588618 0.0553822 0.0722312 0.0743127 0.0578528 0.0682372 0.0643966 0.0978449 0.0759523 0.0807909
45 2 Si 2.17861 9.14704 4.4844 2.4 1 0.0269006 0.0118999 0.0236826 0.0202546 0.0296471 0.0345507 0.0629056 0.0248575 0.0507408 0.0541478 0.0548118 0.0602076 0.0642274 0.0551021 0.0803071 0.0712976 0.0493659 0.0937704 0.0540349 0.0588905
46 3 O 2.18828 10.7603 4.4844 -1.2 1 0.0201969 0.0153154 0.00454991 0.0188261 0.0275441 0.0225672 0.0449723 0.0598858 0.0399518 0.0532617 0.0397741 0.0713927 0.0447757 0.0641113 0.0693788 0.0722518 0.0488194 0.0706087 0.0641412 0.0715047
47 3 O -4.43805 8.17302 4.4844 -1.2 1 0.00846201 0.0208518 0.0165134 0.0178455 0.0240392 0.0552617 0.0357308 0.0506955 0.0431512 0.0490225 0.0354975 0.0525303 0.0523098 0.0737299 0.0996306 0.0681868 0.0804272 0.0531267 0.0744223 0.0745343
48 3 O 2.89193 8.44087 3.18632 -1.2 1 0.0206005 0.0148827 0.0207574 0.0124071 0.0200781 0.0400503 0.033268 0.0540588 0.0401533 0.0540543 0.0576441 0.0501114 0.0512649 0.0535078 0.0801804 0.0617149 0.0711095 0.0590605 0.0671499 0.0741072
49 1 Mg 1.25915 7.12349 0 1.2 1 0.0199627 0.0152782 0.0248152 0.0147376 0.0323235 0.0255213 0.0526078 0.0403676 0.0557603 0.0500661 0.052629 0.0426185 0.0721194 0.0513231 0.06758 0.0711601 0.0653837 0.0707795 0.0812232 0.058275
50 3 O 2.84547 8.44087 5.78248 -1.2 1 0.0111346 0.0123304 0.0176714 0.020981 0.0175673 0.0274265 0.0463371 0.0464869 0.0381013 0.0402492 0.0579182 0.040766 0.0557458 0.0610988 0.0871163 0.0638046 0.0692973 0.0624372 0.0672483 0.0754756
51 1 Mg -1.59284 7.16481 1.4948 1.2 1 0.00979817 0.0163887 0.0204407 0.0204222 0.014943 0.0372185 0.046333 0.0424879 0.0430793 0.0575574 0.038718 0.0661341 0.0519853 0.0693068 0.075896 0.0606616 0.0678733 0.0843511 0.07357 0.0784363
52 2 Si 0.240329 5.09994 1.4948 2.4 1 0.0246507 0.0173247 0.0159565 0.0433439 0.0272357 0.0405004 0.0466978 0.0533434 0.054892 0.0485946 0.0456737 0.0573417 0.059337 0.0681661 0.0656218 0.0662956 0.0641178 0.0729781 0.0664653 0.068248
53 3 O 0.234538 3.48671 1.4948 -1.2 1 0.0131494 0.0164807 0.0265511 0.0359464 0.0312269 0.0490999 0.0457669 0.0424461 0.0526725 0.0470994 0.052051 0.0611979 0.0560188 0.0611289 0.0617732 0.0622199 0.0626802 0.0572022 0.0759388 0.073839
54 3 O 6.85564 6.07396 1.4948 -1.2 1 0.0324666 0.0194763 0.0345778 0.0276115 0.0371499 0.0401874 0.0326516 0.0621087 0.0365629 0.0530017 0.0537865 0.0535808 0.055342 0.0734914 0.0699517 0.0772777 0.0664435 0.0724468 0.0534591 0.0849998
55 3 O -0.429565 5.80612 0.196716 -1.2 1 0.0340439 0.0200543 0.0159875 0.0212933 0.040943 0.0374375 0.05389 0.0450949 0.0460383 0.0562894 0.0397665 0.0419047 0.0533076 0.0602488 0.0598967 0.0682137 0.0705283 0.0609274 0.0652526 0.0743471
56 3 O -0.473377 5.80612 2.79288 -1.2 1 0.028577 0.0183523 0.033604 0.018973 0.0338033 0.0469085 0.049119 0.0491967 0.0547236 0.0451992 0.0621619 0.0398599 0.04346 0.0590308 0.0651547 0.0695113 0.0644793 0.0682085 0.0722234 0.0802083
57 1 Mg 6.40169 9.49799 0 1.2 1 0.0128228 0.0119824 0.0211252 0.0142189 0.030558 0.0209701 0.0522001 0.0354282 0.0585646 0.0493345 0.0498383 0.0357683 0.0670941 0.052644 0.0709468 0.0671257 0.0653031 0.0704773 0.0812592 0.0684594
58 1 Mg 3.64209 14.2057 1.4948 1.2 1 0.0153154 0.00927711 0.018973 0.0180706 0.0210396 0.0335997 0.0358516 0.0434043 0.041105 0.0547277 0.0401999 0.0662951 0.0528823 0.065989 0.0706948 0.06431 0.0650552 0.0820345 0.0746431 0.0780942
59 2 Si 5.45748 11.5215 1.4948 2.4 1 0.0108064 0.0235049 0.021377 0.0249158 0.0175669 0.0403796 0.0401355 0.0386128 0.0444449 0.0555614 0.0427212 0.0601544 0.0528325 0.0668298 0.0695269 0.0640478 0.0713151 0.0810189 0.0583079 0.0667517
60 3 O 5.51101 13.1348 1.4948 -1.2 1 0.0242269 0.0133931 0.0222553 0.0295126 0.0196609 0.0432989 0.0446094 0.0590491 0.0366156 0.0496446 0.0428306 0.0672368 0.0532832 0.0534582 0.0655381 0.0597646 0.0708379 0.0580556 0.0692546 0.0721335
61 3 O 1.83851 10.5475 1.4948 -1.2 1 0.0351687 0.0140338 0.0216632 0.0140561 0.0363262 0.0303093 0.036317 0.0591352 0.0399517 0.0483853 0.0497098 0.0516058 0.0471374 0.0747189 0.0758776 0.0800311 0.0564484 0.0758828 0.0577793 0.0788047
62 3 O 4.7611 10.8154 0.196716 -1.2 1 0.035691 0.0192279 0.0198248 0.0181199 0.0266874 0.0443179 0.0484533 0.0376156 0.0387555 0.0492945 0.0369322 0.0408933 0.0605388 0.0609685 0.0650125 0.0714467 0.0755921 0.0656146 0.0731747 0.0680879
63 1 Mg 6.35203 9.49799 2.9896 1.2 1 0.0133279 0.0176177 0.0257334 0.0213436 0.0188807 0.0378096 0.0368289 0.0513596 0.0344576 0.0575876 0.0313965 0.0652264 0.028483 0.066939 0.047683 0.0803905 0.0456669 0.0905526 0.0448635 0.0902056
64 3 O 4.71833 10.8154 2.79288 -1.2 1 0.0216161 0.0128723 0.032847 0.01292 0.0304009 0.0432984 0.043364 0.044905 0.0433838 0.0369487 0.0534575 0.0418145 0.0541142 0.0586717 0.0737588 0.0685649 0.0728852 0.0594165 0.0698881 0.0792028
65 1 Mg -1.0438 9.53931 4.4844 1.2 1 0.00672166 0.0153645 0.0189768 0.0274086 0.0236487 0.0308103 0.0372375 0.0342893 0.0472906 0.0501139 0.0560724 0.0548207 0.0670571 0.0692573 0.056551 0.0703247 0.0721053 0.0986788 0.0696605 0.0849107
66 2 Si -2.8604 12.2234 4.4844 2.4 1 0.0182821 0.0129459 0.015953 0.0262159 0.0319664 0.0401127 0.0601796 0.0289695 0.0531081 0.0643895 0.0550648 0.0612827 0.0610527 0.0555387 0.0799544 0.0721577 0.0505443 0.0904556 0.0528483 0.0615454
67 3 O -2.91391 10.6102 4.4844 -1.2 1 0.0193129 0.0156343 0.00791811 0.0226078 0.0290781 0.0239359 0.0441306 0.0624992 0.0398723 0.0504507 0.0375705 0.0711493 0.0453464 0.059939 0.068347 0.0712164 0.0493396 0.0744273 0.0624568 0.0764899
68 3 O 0.7596 13.1975 4.4844 -1.2 1 0.0184051 0.026495 0.0193322 0.0165075 0.0224251 0.0520253 0.0346336 0.0490247 0.0442013 0.051062 0.0408482 0.0503729 0.0478218 0.0708679 0.103441 0.0618638 0.0769448 0.05486 0.074073 0.0712657
69 3 O -2.12001 12.9296 3.18632 -1.2 1 0.0241234 0.010661 0.0205075 0.0175082 0.0199278 0.0347623 0.0408779 0.052833 0.0440236 0.054358 0.0516261 0.0503666 0.0546008 0.0472183 0.0810106 0.0626558 0.0725542 0.0643237 0.0670431 0.0690199
70 3 O -2.16532 12.9296 5.78248 -1.2 1 0.0111809 0.0124051 0.0231665 0.0228358 0.015481 0.0286936 0.0497288 0.0436032 0.040219 0.0385524 0.055561 0.0374254 0.0560967 0.062715 0.0838676 0.0682194 0.0707072 0.0636969 0.0685999 0.0790868
71 1 Mg 1.29891 11.8725 2.9896 1.2 1 0.00703295 0.0158229 0.0224218 0.0225722 0.0182972 0.0375388 0.0370796 0.0507292 0.0352987 0.0605846 0.0344397 0.058929 0.0259014 0.0674403 0.0488821 0.0825449 0.0479626 0.0889985 0.0469393 0.0865253
72 1 Mg 4.10033 11.8312 4.4844 1.2 1 0.00906037 0.0138662 0.0190099 0.024463 0.0282812 0.0327321 0.0401228 0.0346547 0.0473273 0.0526083 0.052454 0.054894 0.0685143 0.0690914 0.0522881 0.0690608 0.0707206 0.101729 0.0750271 0.0799647
73 2 Si 2.27333 13.896 4.4844 2.4 1 0.0255145 0.00516085 0.0259412 0.0251219 0.0256294 0.0374566 0.0607123 0.0328969 0.0542729 0.0568096 0.0532416 0.0617365 0.0620325 0.0580894 0.0780283 0.0683823 0.0469577 0.0966724 0.0533938 0.0553712
74 3 O 2.28634 15.5093 4.4844 -1.2 1 0.0222038 0.0160025 0.00312342 0.0202464 0.0243273 0.022244 0.0411225 0.0590382 0.0411057 0.0530098 0.0406014 0.0706545 0.0460479 0.0630344 0.0698102 0.0714105 0.0498269 0.0692633 0.0639539 0.0744785
75 3 O -4.34533 12.922 4.4844 -1.2 1 0.0239819 0.0207626 0.0210692 0.0144293 0.0250669 0.0490192 0.0370755 0.0516342 0.0418916 0.0521048 0.0383796 0.0513836 0.0479516 0.0730211 0.099126 0.0670771 0.0779309 0.0517306 0.074758 0.0728619
76 3 O 2.98455 13.1899 3.18632 -1.2 1 0.0253349 0.0114678 0.0196029 0.0119885 0.0189217 0.0402132 0.0382843 0.058034 0.0428859 0.0547156 0.0548372 0.0491485 0.0509144 0.0495354 0.0814901 0.0617897 0.0678488 0.060683 0.0638368 0.0707598
77 1 Mg 1.34779 11.8725 0 1.2 1 0.0216668 0.00923845 0.0219833 0.0150398 0.0286964 0.023011 0.0513939 0.0348141 0.057391 0.0509463 0.0494731 0.0353598 0.0651519 0.0502092 0.0704382 0.0647514 0.0616311 0.0702431 0.0872672 0.0598294
78 3 O 2.93934 13.1899 5.78248 -1.2 1 0.0184321 0.0136572 0.020742 0.0208169 0.015434 0.0294477 0.0447452 0.0495851 0.0399344 0.0422642 0.0593138 0.0391005 0.0562645 0.0585592 0.0874909 0.0680055 0.0702146 0.0623564 0.0650105 0.0797683
79 1 Mg -1.50344 11.9138 1.4948 1.2 1 0.0129501 0.0179289 0.0229055 0.0203957 0.011724 0.0369688 0.038192 0.0425577 0.0411992 0.0598494 0.0351636 0.0652879 0.0505734 0.0648027 0.0747446 0.068081 0.0640023 0.0840644 0.076306 0.0787498
80 2 Si 0.326006 9.84894 1.4948 2.4 1 0.0250479 0.019319 0.0249533 0.0304493 0.0172146 0.0387805 0.0440005 0.037746 0.0447481 0.0561227 0.0403157 0.0597739 0.0551396 0.0669895 0.0609208 0.0636406 0.0703405 0.0794059 0.0617857 0.0686462
81 3 O 0.317364 8.23571 1.4948 -1.2 1 0.0224053 0.0125556 0.0226591 0.023931 0.0202788 0.0452481 0.0427902 0.0498324 0.0345153 0.0541601 0.0442673 0.0657906 0.0574189 0.0596848 0.0682862 0.0664909 0.0716483 0.0534938 0.0734022 0.0740743
82 3 O 6.94307 10.823 1.4948 -1.2 1 0.0312221 0.0147535 0.0219376 0.0116459 0.0372597 0.0329894 0.0381707 0.0578878 0.0346504 0.0474935 0.0511961 0.0527073 0.0502597 0.0748126 0.0728266 0.079758 0.0617401 0.0729256 0.0581992 0.0801215
83 3 O -0.343122 10.5551 0.196716 -1.2 1 0.0309235 0.017593 0.0217516 0.0209069 0.0297888 0.0412979 0.0511687 0.0395713 0.0387975 0.0505885 0.0370407 0.037755 0.0615112 0.0606462 0.0688607 0.0707663 0.0808962 0.054185 0.0697305 0.069076
84 3 O -0.385966 10.5551 2.79288 -1.2 1 0.0262133 0.0164888 0.0301837 0.0121085 0.0334151 0.042285 0.0448682 0.0466545 0.0427484 0.0399511 0.0522723 0.0487093 0.0489121 0.0552639 0.0693171 0.070813 0.0663869 0.0611171 0.068258 0.0803637
85 1 Mg 6.49448 14.247 0 1.2 1 0.0225739 0.0100809 0.0185288 0.0171224 0.0286664 0.0228756 0.0477644 0.0328931 0.0592619 0.0481245 0.0513786 0.0374164 0.0625025 0.0528451 0.0709067 0.0652217 0.0644364 0.0706642 0.0848249 0.0704174
86 1 Mg 3.74457 18.9547 1.4948 1.2 1 0.014924 0.0106861 0.0152979 0.0161143 0.0259542 0.0292857 0.0314993 0.0394113 0.0384102 0.058263 0.0438068 0.0661322 0.0504413 0.0662513 0.0704483 0.0694989 0.0633047 0.0831146 0.0784034 0.0757308
87 2 Si 5.55495 16.2705 1.4948 2.4 1 0.0120275 0.020108 0.0220242 0.0269544 0.018474 0.0425795 0.0365553 0.042075 0.0454176 0.051978 0.0435722 0.0610239 0.0540887 0.0639952 0.0696569 0.0592123 0.0727302 0.0796916 0.0604131 0.0705151
88 3 O 5.6115 17.8838 1.4948 -1.2 1 0.0268488 0.0181437 0.0232575 0.02575 0.0192147 0.0434665 0.0452922 0.0609548 0.0374794 0.0502047 0.038008 0.0669616 0.0510649 0.0560207 0.0640999 0.0571034 0.0658413 0.0615932 0.0633969 0.0692725
89 3 O 1.93416 15.2965 1.4948 -1.2 1 0.0370809 0.0146083 0.0218275 0.0130226 0.0350602 0.0306767 0.0357932 0.0594531 0.0434918 0.0472381 0.0485164 0.0504534 0.0460269 0.0737384 0.080575 0.0773494 0.0590288 0.0737231 0.0619402 0.0773059
90 3 O 4.85636 15.5644 0.196716 -1.2 1 0.0261001 0.010943 0.0222578 0.0195509 0.0237406 0.0513804 0.0504695 0.0400608 0.0410546 0.0465358 0.0364427 0.0338043 0.0642003 0.0545954 0.0671992 0.0684369 0.0746199 0.0632519 0.0716863 0.067341
91 1 Mg 6.44662 14.247 2.9896 1.2 1 0.0103319 0.0180087 0.0226168 0.021696 0.0185941 0.0352394 0.0381096 0.0535587 0.0363437 0.057354 0.0334238 0.0629245 0.0247765 0.067676 0.0459817 0.0772781 0.0457805 0.0913396 0.0431023 0.0923385
92 3 O 4.81537 15.5644 2.79288 -1.2 1 0.0115852 0.00991521 0.0293719 0.0133204 0.0283286 0.0370458 0.0466914 0.0475619 0.0460816 0.0392447 0.0511692 0.0424488 0.0536928 0.0565068 0.0761564 0.0668068 0.0773319 0.0523301 0.0718604 0.0756216
93 1 Mg -0.948271 14.2883 4.4844 1.2 1 0.0131409 0.0120461 0.013885 0.029073 0.0227797 0.0281928 0.0383662 0.0329743 0.0468098 0.0488017 0.0592821 0.0535422 0.0667424 0.0680371 0.0576517 0.0713341 0.0712656 0.0960517 0.0731946 0.0799437
94 2 Si -2.75928 16.9724 4.4844 2.4 1 0.0146493 0.0152145 0.0178293 0.027109 0.0314565 0.0409793 0.0586277 0.0303347 0.0533026 0.064402 0.0517688 0.0611899 0.0582828 0.0537087 0.0802047 0.0706134 0.0494258 0.0922615 0.0552829 0.0638803
95 3 O -2.81617 15.3592 4.4844 -1.2 1 0.0159481 0.0146485 0.0131942 0.0248522 0.0295752 0.0226147 0.0443043 0.0646875 0.0438807 0.0512694 0.0373323 0.072267 0.047179 0.0584959 0.0667642 0.0683035 0.0507593 0.0731073 0.0632832 0.0748491
96 3 O 0.862762 17.9465 4.4844 -1.2 1 0.0180151 0.0245247 0.0206169 0.0164738 0.0213715 0.0462876 0.0359659 0.0526239 0.0463114 0.0529586 0.0402885 0.0486739 0.0454479 0.0703046 0.105672 0.0560247 0.0719265 0.0549991 0.0730656 0.0679309
97 3 O -2.0185 17.6786 3.18632 -1.2 1 0.0186533 0.0101134 0.0180923 0.0166727 0.018804 0.0397918 0.0426338 0.0563629 0.04469 0.0509136 0.0543056 0.0489574 0.0563491 0.0508344 0.0815929 0.0605601 0.0695779 0.0654936 0.0630212 0.067664
98 3 O -2.06164 17.6786 5.78248 -1.2 1 0.0138485 0.0109858 0.0221543 0.0221137 0.0155634 0.0261772 0.0475075 0.0465747 0.0383922 0.037945 0.0563618 0.0401127 0.0560027 0.0592624 0.0837434 0.0704875 0.0692216 0.0616358 0.0657963 0.0784741
99 1 Mg 1.39817 16.6215 2.9896 1.2 1 0.00610642 0.0161577 0.0189791 0.0221553 0.0182056 0.0361591 0.0373614 0.0531959 0.0363958 0.0596032 0.034992 0.0565033 0.0234555 0.0668686 0.047409 0.0807635 0.0497242 0.0924471 0.0457733 0.0883072
100 1 Mg 4.20062 16.5802 4.4844 1.2 1 0.0140912 0.0117448 0.0150783 0.0272571 0.0283287 0.0280496 0.0410884 0.0348767 0.0462338 0.0528895 0.0546237 0.0556517 0.068624 0.0685966 0.0544008 0.0727169 0.0700353 0.0973245 0.0734174 0.0795959
101 2 Si 2.37796 18.645 4.4844 2.4 1 0.0226492 0.0115705 0.0189734 0.0289163 0.026493 0.0357634 0.0612874 0.0290932 0.0550806 0.0607483 0.0509017 0.0602484 0.0605041 0.055476 0.070787 0.0658553 0.0476124 0.0972507 0.0534838 0.0558342
102 3 O 2.39434 20.2583 4.4844 -1.2 1 0.0231499 0.0113729 0.0121664 0.0159451 0.0244639 0.0227643 0.0389886 0.0589333 0.0430303 0.0484531 0.0420418 0.0732742 0.0498553 0.0639136 0.0701888 0.0696632 0.0459692 0.0704141 0.0648946 0.0777735
103 3 O -4.24274 17.671 4.4844 -1.2 1 0.0224541 0.0215803 0.0208804 0.0164034 0.0203872 0.048511 0.0360261 0.0467828 0.0425918 0.0535319 0.0400709 0.0507694 0.0503898 0.0696203 0.0999012 0.0615173 0.0748483 0.0553938 0.0767367 0.0718829
104 3 O 3.08659 17.9389 3.18632 -1.2 1 0.0294874 0.0170097 0.0199107 0.0105822 0.0175934 0.0392913 0.0373291 0.0549302 0.0466297 0.0487294 0.0556965 0.0497842 0.0507474 0.0498127 0.0806154 0.0592529 0.0665617 0.0602062 0.0642534 0.0684333
105 1 Mg 1.44478 16.6215 0 1.2 1 0.00937163 0.0122955 0.0216745 0.0127629 0.0266083 0.0315081 0.0479272 0.0354747 0.0507696 0.0505514 0.0520087 0.0396331 0.0584995 0.049357 0.0696077 0.0662425 0.0603816 0.0675872 0.0884016 0.0638666
106 3 O 3.0436 17.9389 5.78248 -1.2 1 0.0164521 0.0157203 0.0189103 0.0225788 0.0206881 0.0274194 0.0460961 0.0475089 0.0428287 0.0410843 0.0570881 0.0395145 0.0559456 0.0604642 0.0878375 0.0633343 0.0698919 0.0631628 0.0653289 0.0760747
107 1 Mg -1.40524 16.6628 1.4948 1.2 1 0.0116243 0.0125819 0.0256389 0.0178442 0.0172084 0.034542 0.0358574 0.0430616 0.0419711 0.060659 0.0407524 0.0620986 0.0546906 0.064253 0.0735072 0.0687035 0.0645895 0.0780497 0.0782256 0.0757212
108 2 Si 0.420358 14.5979 1.4948 2.4 1 0.02246 0.0190494 0.0290435 0.0261413 0.0178272 0.0384522 0.0392919 0.0419636 0.0446082 0.0553049 0.0427137 0.0617132 0.057262 0.063004 0.0669493 0.0596703 0.0714426 0.0764875 0.0617213 0.0710383
109 3 O 0.408732 12.9847 1.4948 -1.2 1 0.0222353 0.0154521 0.0228966 0.0255865 0.016735 0.0471411 0.0438655 0.0538562 0.0362516 0.0528129 0.0422807 0.0691942 0.0532237 0.0569687 0.0659301 0.0635634 0.0713756 0.0550864 0.0682997 0.0719001
110 3 O 7.03923 15.572 1.4948 -1.2 1 0.0338826 0.0175495 0.0208855 0.0100188 0.0358613 0.0342695 0.0371652 0.054984 0.0374986 0.0437271 0.0515186 0.0527954 0.048515 0.0738465 0.0778446 0.0770495 0.0649853 0.0694937 0.0622363 0.0775358
111 3 O -0.248332 15.3041 0.196716 -1.2 1 0.0220939 0.0124063 0.0224266 0.0192853 0.0242186 0.0461392 0.0499075 0.0433186 0.0403843 0.0465419 0.0368676 0.0320601 0.0621841 0.0542847 0.070316 0.0652698 0.0817899 0.0506816 0.069159 0.0709581
112 3 O -0.289436 15.3041 2.79288 -1.2 1 0.0105407 0.0163232 0.0311128 0.0110508 0.0294297 0.0384764 0.0452345 0.0463483 0.045522 0.0395412 0.0542045 0.0468357 0.051943 0.0547194 0.073181 0.0694636 0.0717263 0.0561318 0.0708429 0.0758738
113 1 Mg 6.59566 18.996 0 1.2 1 0.0138165 0.0116725 0.0198614 0.0144104 0.0258395 0.0319747 0.0430489 0.0332052 0.0538398 0.0493525 0.0539734 0.0388846 0.0520193 0.0526785 0.0718745 0.0646503 0.0642281 0.064866 0.0862756 0.0706102
114 1 Mg 3.85574 23.7037 1.4948 1.2 1 0.0108567 0.012469 0.0213667 0.0139433 0.0226237 0.0288365 0.031127 0.0370988 0.0389291 0.0599557 0.0469047 0.0631696 0.0500292 0.0669008 0.0648938 0.0726087 0.0660608 0.0797576 0.0797095 0.0761743
115 2 Si 5.66125 21.0195 1.4948 2.4 1 0.00855207 0.0227361 0.0248066 0.0275371 0.0200552 0.0457507 0.0339256 0.0433394 0.047576 0.0542386 0.044398 0.0614189 0.0553482 0.059953 0.0707869 0.0607132 0.0732751 0.0772748 0.0648394 0.0749291
116 3 O 5.72074 22.6328 1.4948 -1.2 1 0.028176 0.0193323 0.0184255 0.022693 0.0192366 0.0448934 0.0453895 0.0618902 0.0380497 0.0521862 0.0330464 0.0697144 0.049566 0.0536967 0.068245 0.0557921 0.0650154 0.0675775 0.0567865 0.0710007
117 3 O 2.03867 20.0455 1.4948 -1.2 1 0.0300262 0.0166021 0.0267465 0.0158316 0.0341862 0.0300326 0.0360711 0.0551253 0.043755 0.0426054 0.050754 0.0504642 0.0480639 0.073814 0.0846813 0.0727117 0.0620016 0.0680295 0.0636932 0.0734033
118 3 O 4.96004 20.3134 0.196716 -1.2 1 0.0242746 0.0104195 0.0244472 0.0198445 0.0223023 0.0456187 0.0451371 0.0479166 0.0403553 0.0419858 0.0405546 0.0351271 0.0652576 0.0475323 0.0697893 0.0736207 0.070214 0.058422 0.0707709 0.0716721
119 1 Mg 6.55057 18.996 2.9896 1.2 1 0.00984819 0.0173042 0.0182291 0.0175681 0.0250478 0.033737 0.0396145 0.0591921 0.0308396 0.0618265 0.0335447 0.0631546 0.023995 0.0691923 0.0458054 0.0747865 0.046733 0.09531 0.0427603 0.0926876
120 3 O 4.92172 20.3134 2.79288 -1.2 1 0.0098738 0.0113604 0.0309506 0.0148484 0.0301838 0.0397107 0.0463021 0.0461277 0.0472357 0.0431243 0.0522327 0.0399839 0.0533907 0.0539168 0.0762557 0.06759 0.0757184 0.0487069 0.0711128 0.0732347
121 1 Mg -0.84282 19.0373 4.4844 1.2 1 0.0124125 0.0117152 0.0158911 0.0274446 0.0246541 0.0253411 0.0387991 0.029827 0.0470731 0.0489971 0.060248 0.0553886 0.0642653 0.0675182 0.0570068 0.0726752 0.0699681 0.0915848 0.0729334 0.0803106
122 2 Si -2.64823 21.7214 4.4844 2.4 1 0.0176719 0.0132319 0.0143708 0.0303064 0.0294383 0.0394965 0.0571247 0.0294693 0.0548031 0.0653571 0.0521809 0.0612411 0.0600921 0.054123 0.0757764 0.0735253 0.0474995 0.0937921 0.0529415 0.0642946
123 3 O -2.70847 20.1082 4.4844 -1.2 1 0.0150397 0.0145406 0.0162048 0.0247859 0.0248576 0.0264186 0.0390595 0.067845 0.0456587 0.0475528 0.0363688 0.0715961 0.0518354 0.0585131 0.0666749 0.0663998 0.0539036 0.071532 0.065991 0.0756179
124 3 O 0.97581 22.6955 4.4844 -1.2 1 0.0192166 0.0254015 0.021254 0.0146379 0.019663 0.0412756 0.0336147 0.0492064 0.0439037 0.0538699 0.0409049 0.046463 0.0468603 0.0726226 0.105912 0.0538192 0.0682401 0.0567572 0.0734489 0.0672079
125 3 O -1.9076 22.4276 3.18632 -1.2 1 0.0221472 0.00748106 0.0210688 0.0158514 0.0133765 0.0365656 0.0443872 0.055739 0.0371401 0.050737 0.0544841 0.0491098 0.0566681 0.0482515 0.0807975 0.0579345 0.0692111 0.0659376 0.0623469 0.0664856
126 3 O -1.9475 22.4276 5.78248 -1.2 1 0.0106264 0.00748791 0.0246422 0.0215094 0.0160728 0.0294478 0.048625 0.0459873 0.0384588 0.0373047 0.0572579 0.0388628 0.056312 0.0657391 0.0810263 0.0696356 0.0708779 0.06342 0.0686127 0.0750326