ITEM: TIMESTEP
49100
ITEM: NUMBER OF ATOMS
10500
ITEM: BOX BOUNDS xy xz yz pp pp pp
0	15.2977	5.09925
0	118.725	0
0	89.688	0
ITEM: ATOMS id type element xu yu zu q Q_1 Q_2 Q_3 Q_4 Q_5 Q_6 Q_7 Q_8 Q_9 Q_10 Q_11 Q_12 Q_13 Q_14 Q_15 Q_16 Q_17 Q_18 Q_19 Q_20 Q_21
1 1 Mg 6.2404 -6.37941e-06 0 1.2 1 0.0102323 0.0412107 0.0323239 0.0368436 0.0315941 0.0393895 0.0360745 0.0665919 0.0403511 0.0711677 0.0345597 0.0615185 0.0470234 0.068741 0.0490431 0.0907683 0.0508823 0.0833748 0.0516092 0.101061
2 1 Mg 3.46349 4.70768 1.4948 1.2 1 0.0169272 0.0163602 0.0245951 0.0214613 0.0202742 0.0420169 0.0421009 0.040198 0.0456711 0.0551207 0.0428862 0.0719148 0.0578042 0.0706013 0.072032 0.0645553 0.0677967 0.0855788 0.0733297 0.0823138
3 2 Si 5.2885 2.02354 1.4948 2.4 1 0.0171136 0.0230856 0.0318257 0.0267548 0.0309184 0.0376994 0.0549134 0.0316643 0.0431455 0.0542597 0.0526412 0.0614337 0.055709 0.0649172 0.0678044 0.0789439 0.0700153 0.0642159 0.0650838 0.0722268
4 3 O 5.33628 3.63678 1.4948 -1.2 1 0.00945569 0.0142208 0.0268154 0.0260358 0.0184762 0.0391135 0.0418904 0.0601363 0.0353978 0.0399715 0.0547734 0.0505555 0.0680699 0.058032 0.0590514 0.0645236 0.0603066 0.0616851 0.071124 0.0745682
5 3 O 1.67294 1.04952 1.4948 -1.2 1 0.0161928 0.0216537 0.0235548 0.0352869 0.0297191 0.038472 0.0343293 0.0604663 0.034989 0.0591719 0.0441368 0.05155 0.0720236 0.0593479 0.0762369 0.0693071 0.0629613 0.0645621 0.0794727 0.0602476
6 3 O 4.59532 1.31737 0.196716 -1.2 1 0.02688 0.0195537 0.0563616 0.0255457 0.0333655 0.04883 0.0392594 0.0478295 0.033732 0.040135 0.0381999 0.0506668 0.0548939 0.058346 0.0638208 0.0703523 0.0631292 0.071846 0.0592893 0.0701289
7 1 Mg 6.18956 -6.37941e-06 2.9896 1.2 1 0.0242214 0.0331061 0.0193422 0.0222083 0.0368233 0.042905 0.0508766 0.0431061 0.0487199 0.0463709 0.0398252 0.0556411 0.0405698 0.0572634 0.0584911 0.0786141 0.0589048 0.0705285 0.0599844 0.0710889
8 3 O 4.55118 1.31737 2.79288 -1.2 1 0.0241558 0.0253253 0.0397331 0.0172272 0.0286532 0.0444157 0.0445709 0.0476748 0.0442245 0.0550993 0.0526502 0.0489059 0.0496253 0.0667852 0.0531209 0.0703163 0.0650128 0.0682522 0.0622045 0.0728067
9 1 Mg -1.20682 0.0413099 4.4844 1.2 1 0.0137011 0.0235657 0.0204179 0.0270616 0.0367679 0.038501 0.0334642 0.0500773 0.0521633 0.0396569 0.0493156 0.0624899 0.0654466 0.0573457 0.0781717 0.0619983 0.079535 0.0749189 0.0638073 0.0525938
10 2 Si -3.0337 2.72544 4.4844 2.4 1 0.0291121 0.0134089 0.0184212 0.0158169 0.0328893 0.0383373 0.0610635 0.0336733 0.0594153 0.0494596 0.0465821 0.0594625 0.0567575 0.0778734 0.0560716 0.0608472 0.0725216 0.0805643 0.0755151 0.0587097
11 3 O -3.08099 1.11221 4.4844 -1.2 1 0.0126562 0.023035 0.0273675 0.0254454 0.03874 0.0303404 0.0457129 0.0491916 0.0389492 0.0371491 0.038507 0.0728086 0.0538803 0.0521581 0.0544551 0.067289 0.0526085 0.0775601 0.0777285 0.0781889
12 3 O 0.582463 3.69946 4.4844 -1.2 1 0.0110599 0.0133011 0.0317832 0.0290627 0.0259781 0.0657726 0.0313699 0.0506994 0.0436876 0.0423776 0.0514893 0.0593844 0.0591473 0.0681031 0.102486 0.0670243 0.0815666 0.0403938 0.0710902 0.0689631
13 3 O -2.29524 3.43162 3.18632 -1.2 1 0.0145765 0.0180863 0.0250787 0.0326743 0.0242262 0.0523942 0.0491303 0.0517699 0.0393144 0.0546464 0.0576706 0.0564202 0.0401307 0.0537217 0.0605009 0.0640089 0.0676648 0.0632703 0.0661825 0.074086
14 3 O -2.34216 3.43162 5.78248 -1.2 1 0.0238993 0.012957 0.0174984 0.0249348 0.0306636 0.0386123 0.0539402 0.0491155 0.0392944 0.0553626 0.0571167 0.0452495 0.0550149 0.0540878 0.0757285 0.0726962 0.0633932 0.0721795 0.0753675 0.072291
15 1 Mg 1.12778 2.37449 2.9896 1.2 1 0.0195803 0.0409794 0.0134176 0.0246355 0.0257486 0.0428991 0.041619 0.0524675 0.0380796 0.0608705 0.0400816 0.0604041 0.0408536 0.0665737 0.0642812 0.0681707 0.0690182 0.0799434 0.0466307 0.0898164
16 1 Mg 3.92855 2.33318 4.4844 1.2 1 0.0343796 0.0151839 0.0234323 0.0282212 0.043403 0.0245347 0.0397375 0.035593 0.0457199 0.0713577 0.0515441 0.0615376 0.0537492 0.0593836 0.0561507 0.0748395 0.065771 0.09765 0.0715836 0.0849321
17 2 Si 2.09341 4.39804 4.4844 2.4 1 0.013725 0.0205745 0.0343779 0.0141294 0.0411486 0.027872 0.0627923 0.0217758 0.043199 0.0476638 0.0625764 0.0608063 0.0676292 0.0591209 0.0741784 0.0736767 0.0721184 0.0812716 0.0531304 0.0652496
18 3 O 2.09991 6.01128 4.4844 -1.2 1 0.00760894 0.0134771 0.0180672 0.0188467 0.0346649 0.0225346 0.0523243 0.0529466 0.0490745 0.0478061 0.0471794 0.0659156 0.0437426 0.0615548 0.0648218 0.0744852 0.0446507 0.0775412 0.0614216 0.0731516
19 3 O -4.52137 3.42402 4.4844 -1.2 1 0.0174254 0.0317135 0.0384668 0.0190874 0.0282308 0.0569448 0.0413127 0.0475498 0.0550451 0.0575915 0.0335553 0.0566747 0.0530384 0.0543668 0.0889936 0.0733766 0.078772 0.058879 0.072727 0.0573206
20 3 O 2.80834 3.69187 3.18632 -1.2 1 0.0109342 0.0196889 0.0204768 0.0265683 0.020118 0.0386053 0.0339089 0.0500203 0.0443443 0.0586836 0.0662735 0.0526387 0.0417785 0.0631428 0.0697232 0.0720013 0.0620743 0.0593373 0.0702218 0.0706694
21 1 Mg 1.17857 2.37449 0 1.2 1 0.0143268 0.037383 0.0294526 0.0292911 0.0363897 0.0390418 0.0430042 0.0587183 0.0352082 0.0493146 0.0519359 0.0407709 0.0434315 0.0670899 0.0550874 0.0656902 0.0590585 0.0810885 0.0572309 0.0736002
22 3 O 2.76143 3.69187 5.78248 -1.2 1 0.00489476 0.0206939 0.0207467 0.025849 0.0198123 0.0333116 0.0408926 0.0478295 0.034641 0.0463709 0.0570626 0.0475967 0.0542794 0.0791001 0.0723404 0.0648431 0.0702068 0.0557196 0.0722019 0.0794425
23 1 Mg -1.67381 2.41581 1.4948 1.2 1 0.0113885 0.0115127 0.0372051 0.0361513 0.0321445 0.0440487 0.058462 0.0404271 0.0511716 0.0402568 0.046442 0.0595688 0.0548423 0.0632912 0.0612732 0.0647315 0.0831233 0.0776857 0.0667572 0.0738172
24 2 Si 0.16286 0.350945 1.4948 2.4 1 0.0152873 0.031945 0.027905 0.023363 0.0352783 0.0357056 0.0555418 0.051254 0.0524429 0.0487461 0.0405819 0.0555351 0.0742188 0.0692207 0.0567848 0.073369 0.0697793 0.065059 0.0732737 0.0661155
25 3 O 0.15972 -1.26229 1.4948 -1.2 1 0.00760584 0.0198213 0.0374613 0.0235548 0.0351957 0.037356 0.0461684 0.0544725 0.0484715 0.0513003 0.0563609 0.0581611 0.0627849 0.0671138 0.0507705 0.0597676 0.0698458 0.0665099 0.0619339 0.0733914
26 3 O 6.77654 1.32496 1.4948 -1.2 1 0.0114889 0.0277447 0.0265189 0.0276941 0.0371764 0.0543426 0.0342158 0.0648353 0.0475427 0.0468881 0.0441904 0.0521866 0.0527122 0.0597638 0.0685396 0.0712382 0.0843707 0.0631397 0.0595646 0.0746114
27 3 O -0.508028 1.05712 0.196716 -1.2 1 0.0246422 0.0191048 0.0295007 0.0207964 0.0294326 0.0529702 0.0437393 0.044496 0.0473234 0.0482305 0.0503071 0.0479065 0.0493044 0.0633624 0.0549094 0.0629177 0.0634207 0.0587803 0.0723319 0.07144
28 3 O -0.552171 1.05712 2.79288 -1.2 1 0.0324113 0.0296384 0.0287762 0.0356327 0.0248998 0.046365 0.0421465 0.0483557 0.0426478 0.0365464 0.0491994 0.0488265 0.0603378 0.0620285 0.0639883 0.0771686 0.0719284 0.0507611 0.0694683 0.073156
29 1 Mg 6.31713 4.74899 0 1.2 1 0.0257939 0.0318406 0.0320163 0.034699 0.0329584 0.022654 0.0399813 0.0551852 0.0591334 0.0484494 0.0507362 0.0410942 0.0569391 0.0619574 0.0661286 0.0628583 0.0658517 0.0732873 0.0695037 0.0697171
30 1 Mg 3.54847 9.45668 1.4948 1.2 1 0.0171004 0.0159501 0.0174451 0.0189682 0.0188567 0.0383816 0.0385499 0.0419931 0.0451644 0.0566404 0.0380402 0.0687642 0.0528477 0.0654125 0.0747268 0.0620866 0.0666588 0.0876904 0.0736741 0.0795614
31 2 Si 5.36879 6.77254 1.4948 2.4 1 0.0259406 0.0297625 0.0212737 0.026339 0.0244382 0.0351332 0.0443115 0.0347349 0.0456147 0.058501 0.0425538 0.0577278 0.0526949 0.0676715 0.0651817 0.0749326 0.0675855 0.0786179 0.0569521 0.0687812
32 3 O 5.41937 8.38578 1.4948 -1.2 1 0.0214682 0.0114616 0.0235504 0.0296744 0.0175061 0.0432573 0.0441395 0.0573217 0.036453 0.0507624 0.0475197 0.064041 0.0550889 0.053932 0.0660068 0.0605586 0.0729595 0.0557826 0.0734515 0.073075
33 3 O 1.75158 5.79852 1.4948 -1.2 1 0.02843 0.012372 0.0223699 0.0266659 0.0441259 0.0309068 0.0391884 0.056979 0.0409059 0.0527514 0.049575 0.0504798 0.0473917 0.0709434 0.0785026 0.0786946 0.0605038 0.0749551 0.0598866 0.0769257
34 3 O 4.67421 6.06637 0.196716 -1.2 1 0.0145542 0.0264909 0.0315844 0.0243799 0.031975 0.0378263 0.0346096 0.0322277 0.044686 0.0562635 0.0392901 0.0442524 0.0665723 0.0562401 0.067702 0.0710705 0.0715541 0.0657525 0.0634075 0.0687062
35 1 Mg 6.26654 4.74899 2.9896 1.2 1 0.0221061 0.0251301 0.0236659 0.0437099 0.0253993 0.0447328 0.0477124 0.0484386 0.0359262 0.0622618 0.0380535 0.0597128 0.0394928 0.0634756 0.0533403 0.0763051 0.0558467 0.0844988 0.0459512 0.0901085
36 3 O 4.63043 6.06637 2.79288 -1.2 1 0.021516 0.0203184 0.041136 0.0196592 0.03185 0.037112 0.0426183 0.0485064 0.0455313 0.0367885 0.0492925 0.0522644 0.0561743 0.0648877 0.0607983 0.0730428 0.0648137 0.0688952 0.0675004 0.0857615
37 1 Mg -1.12976 4.79031 4.4844 1.2 1 0.0180129 0.022665 0.0161819 0.0150193 0.0408734 0.0362039 0.0504665 0.0500656 0.0432269 0.0441354 0.0560267 0.0599723 0.0749782 0.067891 0.0624076 0.0693142 0.0676527 0.0989353 0.0722448 0.0818242
38 2 Si -2.9517 7.47444 4.4844 2.4 1 0.0230458 0.0188131 0.0207435 0.0224779 0.0280105 0.0435026 0.0575952 0.0310799 0.0498881 0.0600939 0.0534039 0.0588157 0.0616829 0.0616211 0.080602 0.0657966 0.0554375 0.0873435 0.0550748 0.0623979
39 3 O -3.00198 5.86121 4.4844 -1.2 1 0.0165269 0.0245741 0.0264523 0.0285607 0.0334564 0.0312365 0.0556404 0.0592888 0.038635 0.0523701 0.0476764 0.0705466 0.0563794 0.0563504 0.064881 0.0704519 0.0506761 0.0788713 0.0611638 0.0757646
40 3 O 0.666315 8.44846 4.4844 -1.2 1 0.0230367 0.0222392 0.0220775 0.0141984 0.0220127 0.05534 0.0307731 0.0480452 0.0417197 0.0481814 0.0447905 0.0507917 0.0500694 0.0752511 0.100071 0.0691951 0.0758007 0.0497884 0.0688276 0.0749255
41 3 O -2.21213 8.18062 3.18632 -1.2 1 0.0138265 0.0142124 0.0158671 0.0153414 0.0161209 0.0368477 0.0461039 0.0560833 0.04588 0.0538826 0.0539718 0.0505763 0.0537226 0.0487189 0.0786982 0.0637756 0.0720304 0.0594443 0.0671374 0.072016
42 3 O -2.25864 8.18062 5.78248 -1.2 1 0.0182641 0.0128685 0.0167173 0.0209424 0.017532 0.0234579 0.0520489 0.0496833 0.0387522 0.0398583 0.0555681 0.039724 0.0572837 0.0571644 0.082044 0.0675574 0.067279 0.0597246 0.0691678 0.0770081
43 1 Mg 1.20893 7.12349 2.9896 1.2 1 0.00788234 0.0220274 0.0195872 0.0250127 0.0244648 0.0395098 0.0421608 0.0467096 0.0340201 0.0654968 0.0395298 0.0662941 0.0370106 0.0585095 0.0520161 0.0796711 0.0503574 0.0843487 0.0460725 0.0869099
44 1 Mg 4.00982 7.08218 4.4844 1.2 1 0.0160997 0.0152475 0.0274412 0.0342667 0.0347556 0.0338657 0.0424287 0.0397723 0.0461821 0.051252 0.058861 0.0541863 0.0722596 0.0744967 0.0578509 0.069814 0.0622679 0.0976486 0.074334 0.081518
45 2 Si 2.17861 9.14704 4.4844 2.4 1 0.0257008 0.0116859 0.0240751 0.0245862 0.0330213 0.0303098 0.0631906 0.0226532 0.0498099 0.0579496 0.0559427 0.0594663 0.0646969 0.0576811 0.0770403 0.0689776 0.0515263 0.0946437 0.0556447 0.0554374
46 3 O 2.18828 10.7603 4.4844 -1.2 1 0.0245723 0.0139145 0.00597215 0.0204311 0.0242133 0.0223781 0.0435437 0.0598909 0.0420215 0.0499448 0.0402949 0.0698394 0.0437685 0.063512 0.067777 0.0699438 0.0504669 0.0726379 0.0625287 0.0735406
47 3 O -4.43805 8.17302 4.4844 -1.2 1 0.0198958 0.0193372 0.0183494 0.0142896 0.0259551 0.0517765 0.0387551 0.049628 0.0447128 0.0484759 0.0341218 0.0523777 0.0522119 0.0708211 0.0994123 0.0665959 0.0799164 0.0525003 0.071741 0.0729223
48 3 O 2.89193 8.44087 3.18632 -1.2 1 0.0220448 0.0189113 0.0173543 0.0151217 0.0207191 0.0399549 0.0340668 0.0537446 0.0440655 0.0507651 0.0586375 0.0507336 0.0509181 0.052612 0.0798901 0.0628714 0.0696832 0.0602728 0.0652079 0.0721494
49 1 Mg 1.25915 7.12349 0 1.2 1 0.0200363 0.015211 0.024937 0.0145621 0.032116 0.0256429 0.0526152 0.0405335 0.0556655 0.0499716 0.0525069 0.0427044 0.0720951 0.0513978 0.0677257 0.0712497 0.0651306 0.0710938 0.0809167 0.0585098
50 3 O 2.84547 8.44087 5.78248 -1.2 1 0.0133057 0.0153641 0.0203885 0.0230241 0.0225748 0.026858 0.0458399 0.0469877 0.0390802 0.0386236 0.058237 0.042593 0.0577546 0.0598635 0.0900011 0.0664084 0.0695073 0.0656778 0.0672985 0.0776489
51 1 Mg -1.59284 7.16481 1.4948 1.2 1 0.00727234 0.0199904 0.019187 0.0224887 0.0151213 0.0381537 0.0461768 0.0425882 0.0420119 0.0568772 0.0385754 0.0677331 0.053762 0.0690687 0.0769516 0.0608613 0.0669853 0.0851084 0.0743224 0.078363
52 2 Si 0.240329 5.09994 1.4948 2.4 1 0.0245784 0.017155 0.0161095 0.0434032 0.0273852 0.0404625 0.0469065 0.0532959 0.0550637 0.0491354 0.0453787 0.0573522 0.0589595 0.0680076 0.0654748 0.0667155 0.0636774 0.0726043 0.066377 0.0675515
53 3 O 0.234538 3.48671 1.4948 -1.2 1 0.0130851 0.0162457 0.0265527 0.0357618 0.0314001 0.0492674 0.0456783 0.0422969 0.0526498 0.0464811 0.0524541 0.0612342 0.0565058 0.0610187 0.0621262 0.0621574 0.0630257 0.0572723 0.0759885 0.0732373
54 3 O 6.85564 6.07396 1.4948 -1.2 1 0.0325148 0.0195559 0.0345714 0.0275572 0.037195 0.0400828 0.0327295 0.0622466 0.0363888 0.0530889 0.053908 0.053575 0.055062 0.0735461 0.0698021 0.0769094 0.0664093 0.0724357 0.0532461 0.0849996
55 3 O -0.429565 5.80612 0.196716 -1.2 1 0.0339999 0.0200011 0.015957 0.0213073 0.0409333 0.0374801 0.0538875 0.0451615 0.0460253 0.0565114 0.0397618 0.0419241 0.053223 0.060129 0.0599058 0.0681535 0.0705852 0.0609605 0.065192 0.0743955
56 3 O -0.473377 5.80612 2.79288 -1.2 1 0.0299112 0.0204448 0.0297198 0.0189356 0.0333897 0.0458857 0.0478191 0.0503515 0.0525956 0.0470258 0.0626205 0.0404588 0.0425111 0.0571972 0.0651243 0.070256 0.0633666 0.068584 0.0695075 0.082541
57 1 Mg 6.40169 9.49799 0 1.2 1 0.012778 0.0119105 0.0211241 0.014269 0.0305121 0.0212376 0.0524063 0.0355848 0.0586236 0.049329 0.0497694 0.0356421 0.0669705 0.0525499 0.0711546 0.066867 0.0655425 0.0704462 0.0811037 0.0682133
58 1 Mg 3.64209 14.2057 1.4948 1.2 1 0.00620842 0.0139744 0.0175285 0.0194425 0.0216317 0.0341899 0.0365351 0.0431579 0.0402895 0.0544013 0.038979 0.0689036 0.0543178 0.0664601 0.074393 0.063152 0.0639113 0.08321 0.0750248 0.0782048
59 2 Si 5.45748 11.5215 1.4948 2.4 1 0.0119081 0.021882 0.0233567 0.0249199 0.0180017 0.040324 0.0397238 0.0398444 0.0436369 0.0547218 0.0423992 0.0603021 0.05319 0.0663659 0.0694224 0.0635216 0.0710553 0.0818455 0.0583745 0.0665615
60 3 O 5.51101 13.1348 1.4948 -1.2 1 0.0254498 0.0153082 0.0222749 0.0305461 0.0178101 0.0444277 0.0433265 0.0587521 0.0358978 0.0491838 0.0442556 0.0660499 0.0531998 0.052325 0.0639797 0.058491 0.0709857 0.0572591 0.069201 0.0727629
61 3 O 1.83851 10.5475 1.4948 -1.2 1 0.0351533 0.0140542 0.0215251 0.0138209 0.0363234 0.0306073 0.0363271 0.0591702 0.039826 0.0483275 0.0498092 0.0515041 0.04719 0.075044 0.0756097 0.079968 0.0570054 0.0759277 0.0574523 0.0791094
62 3 O 4.7611 10.8154 0.196716 -1.2 1 0.0324345 0.021547 0.0221657 0.0192152 0.0262962 0.044687 0.0485063 0.0368946 0.0375824 0.0488264 0.0373625 0.0405231 0.0603385 0.0596182 0.0638036 0.0701755 0.074159 0.0657635 0.0724897 0.0687069
63 1 Mg 6.35203 9.49799 2.9896 1.2 1 0.0158965 0.016047 0.0225435 0.0228474 0.0194433 0.0382914 0.036857 0.0508546 0.0333955 0.0571406 0.0315048 0.0663602 0.0277321 0.0673415 0.0485177 0.081528 0.0471356 0.0902297 0.0461708 0.0913374
64 3 O 4.71833 10.8154 2.79288 -1.2 1 0.0251938 0.011084 0.0302332 0.0137943 0.0298902 0.0433217 0.0432919 0.045833 0.0430075 0.036905 0.0530333 0.0406789 0.053016 0.0585815 0.0733122 0.0688522 0.0725605 0.0597817 0.0711656 0.0804844
65 1 Mg -1.0438 9.53931 4.4844 1.2 1 0.0139691 0.0185815 0.0181016 0.0236756 0.0265638 0.0295427 0.0387322 0.0346881 0.0464839 0.0506058 0.0588678 0.0584754 0.0675936 0.0710761 0.0584911 0.0677202 0.0728672 0.0987194 0.069172 0.0853996
66 2 Si -2.8604 12.2234 4.4844 2.4 1 0.0184624 0.0120759 0.0170404 0.0259843 0.0296614 0.043545 0.0590307 0.0302503 0.0542486 0.0634947 0.0547754 0.0634917 0.0596462 0.0556715 0.0792939 0.071702 0.0496216 0.0908718 0.0541836 0.0649113
67 3 O -2.91391 10.6102 4.4844 -1.2 1 0.0218076 0.00813391 0.00794108 0.0227564 0.025471 0.0267251 0.0432204 0.065096 0.0413855 0.047891 0.0371053 0.0712068 0.0462783 0.0577685 0.0674609 0.0686641 0.0500888 0.0729584 0.0617686 0.0740486
68 3 O 0.7596 13.1975 4.4844 -1.2 1 0.0180473 0.0265457 0.0185056 0.0152044 0.0229013 0.0515508 0.033642 0.0526323 0.0447048 0.0508502 0.0415625 0.0493508 0.048601 0.0719013 0.0993625 0.0599276 0.0764333 0.0558893 0.075587 0.071611
69 3 O -2.12001 12.9296 3.18632 -1.2 1 0.0174044 0.00924971 0.0190182 0.0168937 0.0207292 0.0385052 0.0424154 0.054565 0.0472046 0.052524 0.0542491 0.048885 0.0561576 0.0501298 0.0804283 0.0634457 0.0715413 0.0624621 0.0658591 0.0694626
70 3 O -2.16532 12.9296 5.78248 -1.2 1 0.0185896 0.0128524 0.0193864 0.0194873 0.0151637 0.0297597 0.0468876 0.0468401 0.0382433 0.037368 0.0577989 0.0355053 0.0572411 0.056905 0.0855648 0.069785 0.0661765 0.0669865 0.0708612 0.0740228
71 1 Mg 1.29891 11.8725 2.9896 1.2 1 0.0083522 0.0143735 0.0230837 0.0196893 0.0188403 0.0373391 0.0373873 0.0511993 0.0350247 0.0612754 0.0340884 0.0596861 0.0261842 0.0688667 0.0484452 0.0833417 0.0486077 0.0897449 0.0463597 0.0858384
72 1 Mg 4.10033 11.8312 4.4844 1.2 1 0.00863102 0.0172311 0.0186676 0.0281753 0.0259913 0.0339786 0.042006 0.0352933 0.0482764 0.0501469 0.0558628 0.0508066 0.0677086 0.0699382 0.0537007 0.0712306 0.0705922 0.0966184 0.0740418 0.0799248
73 2 Si 2.27333 13.896 4.4844 2.4 1 0.0249124 0.00467516 0.02776 0.0262008 0.0281502 0.0349948 0.0625251 0.031851 0.0538929 0.0569586 0.0539086 0.0626686 0.0627881 0.0583932 0.0746169 0.0681417 0.0477076 0.0969824 0.052351 0.0571684
74 3 O 2.28634 15.5093 4.4844 -1.2 1 0.0215613 0.012827 0.0100189 0.0161721 0.0265963 0.0211729 0.0430916 0.0602365 0.0412689 0.0523104 0.0408461 0.0720585 0.0475131 0.0627429 0.0680455 0.0722309 0.0482048 0.0702558 0.0652952 0.077626
75 3 O -4.34533 12.922 4.4844 -1.2 1 0.0125557 0.0185751 0.0230635 0.0193054 0.0235546 0.0515357 0.0345196 0.0511155 0.0433333 0.0510121 0.0392209 0.0515516 0.0505727 0.0725693 0.102783 0.0668413 0.0795251 0.053627 0.0758872 0.0721405
76 3 O 2.98455 13.1899 3.18632 -1.2 1 0.02281 0.011837 0.0176394 0.0115102 0.0202112 0.0422606 0.0384918 0.0587421 0.0456579 0.0519278 0.0562796 0.0491733 0.0512649 0.0519021 0.0809559 0.0627021 0.0669647 0.0602364 0.0634003 0.0727299
77 1 Mg 1.34779 11.8725 0 1.2 1 0.0216699 0.00916563 0.022123 0.0148322 0.0287931 0.0230635 0.0517468 0.0348648 0.0575029 0.0510672 0.0496069 0.0352447 0.0650602 0.0496955 0.0706805 0.063995 0.0619856 0.0697628 0.0874414 0.0595102
78 3 O 2.93934 13.1899 5.78248 -1.2 1 0.0140379 0.0132042 0.0207881 0.0220473 0.0212493 0.0261244 0.0477428 0.0462778 0.0425902 0.0421971 0.0575874 0.0394991 0.0570849 0.0616174 0.0842024 0.0647843 0.0695018 0.0625309 0.063714 0.0801132
79 1 Mg -1.50344 11.9138 1.4948 1.2 1 0.00819166 0.0212467 0.0217465 0.0228882 0.0143905 0.0370727 0.0391667 0.0416092 0.0401255 0.0597736 0.0343511 0.0667636 0.05194 0.0655652 0.0757499 0.0681088 0.0638228 0.0844628 0.0770557 0.0789181
80 2 Si 0.326006 9.84894 1.4948 2.4 1 0.0280903 0.017757 0.0268998 0.0295304 0.0169406 0.0380648 0.0434996 0.0400319 0.0440785 0.0549246 0.0396674 0.0607411 0.0556405 0.0659896 0.0607559 0.0628811 0.0699234 0.0800089 0.0611853 0.0689419
81 3 O 0.317364 8.23571 1.4948 -1.2 1 0.0224243 0.0124811 0.022436 0.0241955 0.0196043 0.0451515 0.0431577 0.049857 0.0347125 0.0543371 0.0438097 0.0658953 0.0571606 0.0597412 0.0677861 0.0661482 0.071888 0.0537575 0.0730349 0.0748006
82 3 O 6.94307 10.823 1.4948 -1.2 1 0.0356931 0.014901 0.0212008 0.00931772 0.0370714 0.0335546 0.0383999 0.0564534 0.0340078 0.0472527 0.0513067 0.0523029 0.0506695 0.0741373 0.0729076 0.078828 0.0618039 0.0729383 0.0580788 0.0798764
83 3 O -0.343122 10.5551 0.196716 -1.2 1 0.030906 0.0175054 0.021647 0.0208435 0.0298327 0.0413275 0.0511484 0.0396303 0.0387055 0.0504878 0.0370653 0.0377871 0.0616041 0.0607117 0.0687556 0.070734 0.0807162 0.0543266 0.0700022 0.0689622
84 3 O -0.385966 10.5551 2.79288 -1.2 1 0.0225875 0.0152376 0.0323069 0.0140107 0.0325227 0.0437572 0.0450809 0.046131 0.0444293 0.038713 0.0532148 0.0456141 0.0488582 0.056427 0.0699097 0.0712307 0.0669971 0.062473 0.0707192 0.0778846
85 1 Mg 6.49448 14.247 0 1.2 1 0.0225109 0.00992703 0.0184683 0.01718 0.028437 0.0229801 0.0479349 0.033262 0.0593892 0.0483349 0.0513653 0.0372764 0.0624496 0.0528671 0.0709768 0.0652276 0.0645278 0.0705963 0.084789 0.0702478
86 1 Mg 3.74457 18.9547 1.4948 1.2 1 0.0148578 0.0108786 0.0166714 0.0191104 0.0259206 0.0308425 0.031588 0.0384629 0.0375952 0.0560172 0.0440634 0.0688801 0.0518472 0.0661632 0.0682537 0.070893 0.0625206 0.0839537 0.0793333 0.0761023
87 2 Si 5.55495 16.2705 1.4948 2.4 1 0.0120457 0.0200693 0.022078 0.0269201 0.0184858 0.0425249 0.0365164 0.0421301 0.0454808 0.0520719 0.0434125 0.0609235 0.0539647 0.0641508 0.0698029 0.0589602 0.0728109 0.0797564 0.0605719 0.0699712
88 3 O 5.6115 17.8838 1.4948 -1.2 1 0.0269425 0.0180669 0.0234031 0.0254743 0.0196119 0.0435494 0.045096 0.0610336 0.0373491 0.0504538 0.0380354 0.0668916 0.051103 0.0561735 0.0642412 0.0574323 0.0654355 0.0613665 0.0636219 0.0691822
89 3 O 1.93416 15.2965 1.4948 -1.2 1 0.0370917 0.0148088 0.0219255 0.0128796 0.0350164 0.0301388 0.0363559 0.0588825 0.042838 0.0469212 0.0487775 0.0506546 0.0466023 0.0737829 0.0806413 0.0777596 0.0589857 0.0740205 0.0624212 0.0771783
90 3 O 4.85636 15.5644 0.196716 -1.2 1 0.0225904 0.0119039 0.0213536 0.0189522 0.0252377 0.0512848 0.0494735 0.0395951 0.039394 0.0443384 0.0374396 0.0324383 0.0632125 0.0540925 0.0672089 0.0674286 0.0758952 0.0629073 0.0720833 0.0682298
91 1 Mg 6.44662 14.247 2.9896 1.2 1 0.0102554 0.0179671 0.0225949 0.0217921 0.0187534 0.0359532 0.0378955 0.0536654 0.0370588 0.0573784 0.0343363 0.0624008 0.0249679 0.0667673 0.0462435 0.0767882 0.045215 0.0915768 0.0440485 0.092469
92 3 O 4.81537 15.5644 2.79288 -1.2 1 0.0119417 0.00949597 0.0293931 0.0129289 0.0277853 0.037392 0.0469858 0.0471032 0.0456831 0.0386825 0.0515891 0.0418444 0.0532715 0.0576397 0.0751617 0.0663723 0.0761889 0.0526351 0.0725008 0.075895
93 1 Mg -0.948271 14.2883 4.4844 1.2 1 0.0182811 0.0122732 0.013351 0.027266 0.0237327 0.0298988 0.0356363 0.0354455 0.0452523 0.0481384 0.0572712 0.0572569 0.0653203 0.0685898 0.0586337 0.0697758 0.0694319 0.0937201 0.073784 0.0818766
94 2 Si -2.75928 16.9724 4.4844 2.4 1 0.0198823 0.0109512 0.019181 0.0279792 0.0292731 0.0417107 0.0583321 0.0309208 0.0555509 0.0630885 0.0521958 0.0629683 0.0588563 0.0558574 0.0757337 0.0730603 0.0464185 0.0930046 0.0536194 0.0629895
95 3 O -2.81617 15.3592 4.4844 -1.2 1 0.0139196 0.016042 0.0117305 0.0255052 0.0296968 0.0226441 0.0410417 0.0631568 0.0424267 0.0487714 0.0384083 0.0730931 0.0505625 0.0590155 0.0688632 0.071186 0.0484185 0.0752207 0.0663784 0.0749097
96 3 O 0.862762 17.9465 4.4844 -1.2 1 0.0154872 0.0218679 0.0213295 0.0164097 0.0205477 0.0447985 0.0372404 0.0529435 0.0484155 0.0547203 0.0381109 0.0487282 0.0451867 0.0702215 0.107561 0.0568348 0.0695055 0.0521861 0.0729613 0.0697585
97 3 O -2.0185 17.6786 3.18632 -1.2 1 0.0217944 0.00701921 0.0204585 0.0179096 0.0178125 0.0369857 0.0422382 0.0558311 0.0412273 0.0538936 0.0533574 0.0496082 0.0564268 0.049091 0.0820993 0.0594929 0.0686399 0.0665335 0.0651571 0.0684301
98 3 O -2.06164 17.6786 5.78248 -1.2 1 0.0147851 0.0147568 0.0177524 0.0219369 0.0179776 0.0247467 0.0516326 0.0473887 0.0401414 0.036516 0.0563754 0.0373512 0.0594242 0.0599073 0.0846256 0.0662961 0.0689857 0.0603962 0.0666867 0.0752516
99 1 Mg 1.39817 16.6215 2.9896 1.2 1 0.0059851 0.016674 0.0192325 0.0228596 0.0179111 0.0359287 0.0371645 0.0530575 0.0372287 0.0595642 0.0360716 0.0564215 0.0233935 0.0670803 0.0463528 0.0801769 0.0490195 0.091496 0.0465976 0.0891793
100 1 Mg 4.20062 16.5802 4.4844 1.2 1 0.018056 0.0163532 0.0172745 0.0306381 0.0281563 0.0274589 0.0457662 0.0335013 0.0468256 0.0509333 0.0547049 0.0533157 0.0653938 0.0710155 0.0525589 0.0728384 0.0702546 0.0936712 0.0747594 0.078357
101 2 Si 2.37796 18.645 4.4844 2.4 1 0.0280337 0.00553537 0.0208157 0.0269893 0.0267833 0.037442 0.0598491 0.0327239 0.0542265 0.0586525 0.0511066 0.0624005 0.0630007 0.0606159 0.0730748 0.064722 0.0464627 0.100289 0.051188 0.0582502
102 3 O 2.39434 20.2583 4.4844 -1.2 1 0.0236789 0.0115375 0.0118293 0.0170102 0.0253853 0.0216549 0.039939 0.0586113 0.0431689 0.0504231 0.0435811 0.0741742 0.0504273 0.0632462 0.0712611 0.0706133 0.0463462 0.0696824 0.0658948 0.0782424
103 3 O -4.24274 17.671 4.4844 -1.2 1 0.013816 0.0209109 0.0220137 0.0181273 0.0237659 0.0479954 0.0371309 0.0508388 0.0431135 0.0528732 0.0393377 0.0506283 0.0496936 0.0718313 0.100032 0.0618632 0.0752133 0.0537558 0.0786891 0.0685078
104 3 O 3.08659 17.9389 3.18632 -1.2 1 0.0254491 0.0146714 0.0205036 0.0117463 0.0187871 0.040164 0.0382449 0.0566027 0.0459919 0.0499603 0.0571002 0.0468179 0.0515472 0.0500261 0.0792428 0.0597288 0.0664823 0.0613332 0.0635795 0.070641
105 1 Mg 1.44478 16.6215 0 1.2 1 0.00941255 0.0122243 0.021666 0.0127996 0.0265864 0.0315436 0.0477587 0.0355625 0.0507653 0.0504931 0.05195 0.0394854 0.0587324 0.0495228 0.0696502 0.0664758 0.0599346 0.0678991 0.0885208 0.0643054
106 3 O 3.0436 17.9389 5.78248 -1.2 1 0.0178602 0.0126711 0.0174933 0.0248117 0.0206561 0.0290182 0.0459926 0.0473971 0.041806 0.0397642 0.0593439 0.0401835 0.0572334 0.0625131 0.0878075 0.0643515 0.0692552 0.0617799 0.0636397 0.0764025
107 1 Mg -1.40524 16.6628 1.4948 1.2 1 0.00680603 0.015334 0.0259735 0.0194664 0.0182768 0.0352123 0.0364885 0.0418609 0.0405006 0.0599547 0.0399006 0.0643729 0.0556657 0.0648581 0.0747428 0.0695063 0.0637704 0.0786782 0.0791436 0.0755893
108 2 Si 0.420358 14.5979 1.4948 2.4 1 0.0225484 0.0193005 0.0289808 0.0259492 0.0176103 0.0385834 0.0390144 0.041823 0.0441549 0.0550053 0.0426025 0.0613566 0.0578123 0.0636018 0.0672283 0.0588927 0.0722677 0.076765 0.062915 0.0712409
109 3 O 0.408732 12.9847 1.4948 -1.2 1 0.0222031 0.0154692 0.0228334 0.0256186 0.0168544 0.0471355 0.0438833 0.0539543 0.0363864 0.0528475 0.0421991 0.0695677 0.0531906 0.0565076 0.0657054 0.0643149 0.07101 0.0550446 0.0683133 0.0719627
110 3 O 7.03923 15.572 1.4948 -1.2 1 0.0293155 0.0168464 0.021723 0.0126988 0.0360345 0.0336155 0.036941 0.0560363 0.0384469 0.0446875 0.0513209 0.0532654 0.0478915 0.0739358 0.0779572 0.078477 0.0641067 0.0696148 0.0623874 0.0773058
111 3 O -0.248332 15.3041 0.196716 -1.2 1 0.019048 0.0131596 0.0214464 0.0183911 0.0250888 0.0462363 0.0487419 0.0428445 0.0392282 0.0444008 0.0379619 0.0307258 0.060875 0.0540408 0.0701431 0.0643184 0.0831762 0.0504666 0.0701984 0.072198
112 3 O -0.289436 15.3041 2.79288 -1.2 1 0.0103655 0.016737 0.031656 0.0117863 0.0299031 0.037826 0.0447449 0.0459153 0.0454055 0.0393496 0.0542948 0.0483188 0.0519684 0.0552217 0.072891 0.0693461 0.07182 0.0557374 0.0703596 0.0742374
113 1 Mg 6.59566 18.996 0 1.2 1 0.0136594 0.0118205 0.0198371 0.0145474 0.0258466 0.0317866 0.0430021 0.0330036 0.05389 0.0493584 0.0542169 0.038938 0.0520894 0.0525775 0.0716982 0.0646266 0.0642454 0.0648455 0.0863223 0.0704088
114 1 Mg 3.85574 23.7037 1.4948 1.2 1 0.00895779 0.0139058 0.0220415 0.0156667 0.0233168 0.0295979 0.0315807 0.0361814 0.038625 0.058971 0.0463753 0.0656088 0.0509496 0.0677908 0.0649643 0.0729509 0.0652425 0.0805537 0.0808991 0.0764111
115 2 Si 5.66125 21.0195 1.4948 2.4 1 0.00867658 0.0227004 0.0247858 0.0273032 0.0200088 0.0456336 0.0338306 0.0436055 0.0474615 0.0541047 0.04421 0.0618084 0.0555039 0.059645 0.0710254 0.0605215 0.0732225 0.0775153 0.0644988 0.0746282
116 3 O 5.72074 22.6328 1.4948 -1.2 1 0.0281878 0.0195444 0.0185965 0.0228199 0.0189706 0.0451303 0.0451413 0.061752 0.037448 0.0517288 0.0327085 0.069864 0.0497151 0.0539405 0.0689346 0.0557306 0.0652429 0.0677027 0.0565948 0.0708043
117 3 O 2.03867 20.0455 1.4948 -1.2 1 0.0300526 0.0164805 0.0267286 0.015883 0.034178 0.0298606 0.0360521 0.055279 0.0438956 0.0428435 0.0505634 0.050529 0.04771 0.073678 0.0847968 0.0725741 0.0617104 0.0679222 0.0638459 0.0729579
118 3 O 4.96004 20.3134 0.196716 -1.2 1 0.0211275 0.0103465 0.0229138 0.0185954 0.0232867 0.0450612 0.0437614 0.0477879 0.0387977 0.0396854 0.0411137 0.0346945 0.06478 0.0479314 0.069419 0.0729554 0.0713131 0.0577407 0.070486 0.0722142
119 1 Mg 6.55057 18.996 2.9896 1.2 1 0.00935598 0.016689 0.0213056 0.0214642 0.0210511 0.0348457 0.036273 0.0563098 0.0336556 0.0592283 0.0348242 0.0621079 0.0231428 0.0692122 0.0452256 0.0740876 0.0458522 0.0964307 0.0435722 0.0930278
120 3 O 4.92172 20.3134 2.79288 -1.2 1 0.0137286 0.0103109 0.0299103 0.0150211 0.0303916 0.040649 0.0462109 0.0460579 0.0471203 0.0422544 0.053528 0.0404878 0.0533357 0.0536235 0.0750758 0.0667039 0.0747099 0.0487697 0.07153 0.0718857
121 1 Mg -0.84282 19.0373 4.4844 1.2 1 0.0102189 0.00956466 0.0139407 0.0252614 0.0257215 0.0269856 0.0329295 0.0339133 0.0463741 0.0507228 0.0598046 0.0582869 0.0677685 0.0676034 0.0580914 0.0720273 0.0700198 0.0946283 0.074094 0.0832379
122 2 Si -2.64823 21.7214 4.4844 2.4 1 0.0194224 0.0138122 0.0178772 0.0291698 0.0285335 0.0415477 0.0564094 0.0306377 0.0545152 0.0639324 0.0520566 0.0641321 0.0607143 0.055101 0.0775508 0.0708525 0.0465366 0.0945595 0.0535199 0.0660421
123 3 O -2.70847 20.1082 4.4844 -1.2 1 0.0149523 0.0157772 0.0156916 0.025633 0.0262927 0.0258837 0.0373022 0.0663218 0.0451133 0.0487088 0.0400159 0.0730241 0.0523194 0.0607625 0.0679807 0.0684487 0.0523626 0.0751916 0.0679604 0.076043
124 3 O 0.97581 22.6955 4.4844 -1.2 1 0.0176864 0.0234367 0.0241506 0.0171367 0.0207872 0.0382827 0.0320315 0.0494932 0.0448798 0.0557068 0.0415226 0.0466122 0.0432218 0.0766095 0.10547 0.056856 0.06775 0.0558964 0.069694 0.0692168
125 3 O -1.9076 22.4276 3.18632 -1.2 1 0.022568 0.00767724 0.0213038 0.0155738 0.0142178 0.0371044 0.0442195 0.0556496 0.037115 0.0511196 0.0549498 0.0486332 0.0570001 0.0491079 0.0801731 0.0585577 0.0693865 0.0673813 0.0613443 0.0665996
126 3 O -1.9475 22.4276 5.78248 -1.2 1 0.00743663 0.00682673 0.0197876 0.0180903 0.0165032 0.0279233 0.0467665 0.0488312 0.0372159 0.0382249 0.0577245 0.0418879 0.0593975 0.0624197 0.0804291 0.0689364 0.0711744 0.0645936 0.0718791 0.0745759