ITEM: TIMESTEP
22900
ITEM: NUMBER OF ATOMS
10500
ITEM: BOX BOUNDS xy xz yz pp pp pp
0	15.2977	5.09925
0	118.725	0
0	89.688	0
ITEM: ATOMS id type element xu yu zu q Q_1 Q_2 Q_3 Q_4 Q_5 Q_6 Q_7 Q_8 Q_9 Q_10 Q_11 Q_12 Q_13 Q_14 Q_15 Q_16 Q_17 Q_18 Q_19 Q_20 Q_21
1 1 Mg 6.2404 -6.37941e-06 0 1.2 1 0.0131293 0.0409219 0.0295074 0.035609 0.0335646 0.0411164 0.0361973 0.0686516 0.0395575 0.0712826 0.033652 0.0597034 0.0457756 0.0686081 0.0495767 0.0922487 0.0515539 0.0839087 0.0517597 0.102851
2 1 Mg 3.46349 4.70768 1.4948 1.2 1 0.0124837 0.0162427 0.025098 0.0235175 0.0198211 0.0414546 0.0434682 0.0411592 0.0477171 0.0557264 0.0419992 0.0697891 0.0577977 0.0705623 0.0729841 0.0643976 0.0667998 0.0848421 0.0734882 0.0824244
3 2 Si 5.2885 2.02354 1.4948 2.4 1 0.0199594 0.0221187 0.0338342 0.0285408 0.0301236 0.0375333 0.0537036 0.0326478 0.0438585 0.0538541 0.0545935 0.0620137 0.0551137 0.0649181 0.0678959 0.0797322 0.0707678 0.0644153 0.0640456 0.0729146
4 3 O 5.33628 3.63678 1.4948 -1.2 1 0.00937104 0.0141301 0.0268342 0.0259407 0.0184126 0.0390355 0.0418197 0.060193 0.0353475 0.0401897 0.0546602 0.0507075 0.0677824 0.0577002 0.0590316 0.0647674 0.0602184 0.0616838 0.0711583 0.0745077
5 3 O 1.67294 1.04952 1.4948 -1.2 1 0.0162962 0.0218258 0.0233274 0.0356688 0.0296051 0.0386835 0.0341305 0.0611667 0.0347961 0.0597187 0.0437182 0.0509103 0.0716032 0.0592235 0.0761185 0.0693304 0.0624914 0.0641893 0.0794074 0.0600466
6 3 O 4.59532 1.31737 0.196716 -1.2 1 0.025847 0.0220077 0.0575988 0.0252353 0.0331753 0.0487243 0.0386573 0.0474146 0.0340045 0.0391856 0.0386026 0.0504205 0.0541599 0.0573002 0.0634065 0.0699626 0.0621624 0.0713398 0.0591447 0.0709237
7 1 Mg 6.18956 -6.37941e-06 2.9896 1.2 1 0.0122554 0.0269301 0.0171612 0.0216925 0.037583 0.0423947 0.0503983 0.041109 0.0489715 0.0454508 0.0397535 0.0557554 0.0380466 0.0551635 0.0583106 0.0795318 0.0561905 0.0692586 0.0596995 0.0709763
8 3 O 4.55118 1.31737 2.79288 -1.2 1 0.0237125 0.0252207 0.0384947 0.0185526 0.0273556 0.0453158 0.0451962 0.048012 0.0452399 0.0534311 0.0535596 0.0500616 0.0488147 0.0665746 0.0536166 0.0680515 0.064614 0.0672961 0.062919 0.0730155
9 1 Mg -1.20682 0.0413099 4.4844 1.2 1 0.0181017 0.0245826 0.0264032 0.0281124 0.0369055 0.0412741 0.0315654 0.0535503 0.0542914 0.041221 0.0500273 0.0625842 0.066854 0.0547845 0.0757593 0.060976 0.0807187 0.076539 0.0653415 0.0525381
10 2 Si -3.0337 2.72544 4.4844 2.4 1 0.0345515 0.0170663 0.0218458 0.0139187 0.0342748 0.040201 0.059171 0.0367708 0.0618136 0.0523535 0.0486999 0.062113 0.0598291 0.0774159 0.0543975 0.0602208 0.0708374 0.0803594 0.0723429 0.0602518
11 3 O -3.08099 1.11221 4.4844 -1.2 1 0.0159284 0.021285 0.0274273 0.02331 0.0404637 0.0252593 0.0503004 0.0473876 0.0424306 0.0418777 0.0408382 0.0721991 0.0548991 0.0506851 0.054432 0.0688437 0.0539774 0.0772088 0.0743197 0.0769917
12 3 O 0.582463 3.69946 4.4844 -1.2 1 0.00551706 0.0133552 0.0323459 0.029101 0.0284013 0.062272 0.0296862 0.0547258 0.0429071 0.0402434 0.0547971 0.0562144 0.0599153 0.0702423 0.099989 0.06906 0.0809123 0.0408005 0.0717806 0.0684014
13 3 O -2.29524 3.43162 3.18632 -1.2 1 0.012479 0.0203441 0.0257817 0.0308092 0.0195988 0.0501925 0.0514145 0.0496986 0.0412535 0.0529145 0.0591968 0.0538073 0.0407037 0.0516161 0.0583472 0.0648364 0.0667946 0.0620756 0.0641891 0.0723074
14 3 O -2.34216 3.43162 5.78248 -1.2 1 0.022289 0.0137877 0.0212751 0.0293603 0.0259027 0.0414765 0.0525056 0.0438266 0.0404614 0.0558422 0.0580379 0.0468636 0.0580318 0.0525985 0.0768342 0.0726782 0.0625149 0.0694753 0.0759183 0.0733741
15 1 Mg 1.12778 2.37449 2.9896 1.2 1 0.0155775 0.0403726 0.0168217 0.0240075 0.0255496 0.0429627 0.0408167 0.0510112 0.0364362 0.0607685 0.0365484 0.0595987 0.0409858 0.066493 0.0637959 0.070341 0.0685141 0.0816794 0.0460148 0.0878073
16 1 Mg 3.92855 2.33318 4.4844 1.2 1 0.0310533 0.0166167 0.0207763 0.027949 0.0439963 0.0265578 0.0366654 0.0369457 0.0471335 0.0685429 0.0508856 0.0595712 0.0480103 0.0616857 0.055568 0.0751265 0.0631239 0.0937717 0.0738302 0.0844983
17 2 Si 2.09341 4.39804 4.4844 2.4 1 0.0119256 0.0217448 0.0305746 0.0177031 0.0416232 0.0254653 0.0636241 0.0214898 0.0428784 0.0490443 0.0639328 0.0596321 0.0684386 0.0571498 0.0738503 0.0739779 0.0713817 0.080948 0.0528361 0.0645338
18 3 O 2.09991 6.01128 4.4844 -1.2 1 0.0100978 0.0117536 0.0178485 0.0187292 0.0333591 0.0232953 0.0508446 0.0520878 0.046316 0.0461029 0.046668 0.0657372 0.0467011 0.0615243 0.0653241 0.0722555 0.0458663 0.0794134 0.0615197 0.0725891
19 3 O -4.52137 3.42402 4.4844 -1.2 1 0.0124588 0.0346857 0.035708 0.021726 0.0272488 0.0549459 0.0390322 0.0491438 0.056903 0.0571429 0.03137 0.0597288 0.0542393 0.0545296 0.089505 0.0721501 0.0762251 0.0596338 0.0742457 0.0563773
20 3 O 2.80834 3.69187 3.18632 -1.2 1 0.011101 0.0197082 0.0204836 0.0259393 0.0203066 0.0379415 0.0341634 0.049259 0.0442486 0.0592228 0.0660515 0.0531693 0.0416495 0.0632356 0.0706713 0.0719095 0.0612737 0.0585887 0.0706986 0.0717103
21 1 Mg 1.17857 2.37449 0 1.2 1 0.0148867 0.0345721 0.0287204 0.0279615 0.0377529 0.0380956 0.0437851 0.0590068 0.0361291 0.049402 0.0510505 0.0417793 0.0421473 0.0672273 0.0562602 0.0640587 0.0615306 0.0805108 0.0590579 0.0733648
22 3 O 2.76143 3.69187 5.78248 -1.2 1 0.00835821 0.0196557 0.0192447 0.026025 0.019376 0.0337763 0.0398138 0.0484103 0.0358345 0.0461973 0.0579577 0.0442787 0.0552101 0.0802056 0.0737088 0.0672268 0.0697763 0.0574538 0.0696492 0.0768791
23 1 Mg -1.67381 2.41581 1.4948 1.2 1 0.00973824 0.0103464 0.0392015 0.0349921 0.0303318 0.0453231 0.0578352 0.0414432 0.0504152 0.0405555 0.0469552 0.0593123 0.0543676 0.0620791 0.0605694 0.0643586 0.0837649 0.0770983 0.066823 0.0741003
24 2 Si 0.16286 0.350945 1.4948 2.4 1 0.0151692 0.0322052 0.0282018 0.0234437 0.0356635 0.0355649 0.0559984 0.0513276 0.0531141 0.0487925 0.0404827 0.0557411 0.0734565 0.0691284 0.0574536 0.0733682 0.0692731 0.0647158 0.0733203 0.0652312
25 3 O 0.15972 -1.26229 1.4948 -1.2 1 0.00768347 0.0195684 0.0375131 0.0233652 0.0353755 0.0373183 0.0461949 0.054747 0.0483559 0.0512727 0.0562256 0.0577084 0.062622 0.0672974 0.0511949 0.0594547 0.0700864 0.066421 0.0619384 0.0734265
26 3 O 6.77654 1.32496 1.4948 -1.2 1 0.0114917 0.0277496 0.0266176 0.0276994 0.037246 0.0544748 0.034252 0.0648207 0.0476 0.0467068 0.0442677 0.052392 0.0525251 0.0595393 0.0686429 0.0714358 0.0845703 0.0629729 0.0598006 0.0746382
27 3 O -0.508028 1.05712 0.196716 -1.2 1 0.0247373 0.0191204 0.0296421 0.0206651 0.0294973 0.052968 0.0437893 0.0444053 0.0473064 0.0481235 0.0504666 0.0479743 0.0494698 0.0635123 0.054654 0.0627704 0.0634845 0.0588427 0.0721805 0.0717627
28 3 O -0.552171 1.05712 2.79288 -1.2 1 0.0347918 0.0289376 0.0337787 0.0327822 0.0225477 0.042962 0.0414652 0.0469833 0.0426372 0.0379594 0.0484464 0.048086 0.0580657 0.0615808 0.0656605 0.0753218 0.0744101 0.0513462 0.0699846 0.0722053
29 1 Mg 6.31713 4.74899 0 1.2 1 0.0271421 0.0289803 0.0304086 0.0367228 0.0326071 0.0267707 0.042008 0.0559091 0.0586465 0.0493558 0.0510119 0.0385435 0.0593776 0.0613117 0.0656077 0.0639794 0.0660282 0.0736288 0.0692085 0.0703508
30 1 Mg 3.54847 9.45668 1.4948 1.2 1 0.0170764 0.0160271 0.0174703 0.0188941 0.0188286 0.0384322 0.0383166 0.0421439 0.0450663 0.0565276 0.0378267 0.0688789 0.0529726 0.0654454 0.0748641 0.0621259 0.0666296 0.0877371 0.0733236 0.0796309
31 2 Si 5.36879 6.77254 1.4948 2.4 1 0.0290519 0.0269281 0.0239905 0.0256649 0.024767 0.0349579 0.0443371 0.0362111 0.0448493 0.057249 0.0421068 0.0580936 0.0533503 0.0667287 0.0656155 0.0742215 0.0672723 0.0790479 0.0562815 0.0685861
32 3 O 5.41937 8.38578 1.4948 -1.2 1 0.0215148 0.0114283 0.0234805 0.029648 0.0175991 0.0432144 0.044096 0.0573979 0.0364623 0.0508483 0.0474356 0.0641105 0.0550288 0.0538481 0.066069 0.0608565 0.0726134 0.0559791 0.0732781 0.0730503
33 3 O 1.75158 5.79852 1.4948 -1.2 1 0.0284511 0.0122855 0.022286 0.0265864 0.0441317 0.0308391 0.039193 0.0570085 0.0409375 0.0526423 0.0495456 0.050284 0.0472856 0.0711326 0.0786196 0.0785195 0.0603705 0.0751095 0.0598977 0.0766666
34 3 O 4.67421 6.06637 0.196716 -1.2 1 0.014622 0.0264648 0.0316297 0.0244181 0.0319813 0.0377519 0.0345934 0.0320655 0.0447617 0.0561221 0.0392623 0.0442007 0.0667409 0.0560599 0.0677621 0.0710915 0.0713508 0.0658165 0.0632607 0.0683466
35 1 Mg 6.26654 4.74899 2.9896 1.2 1 0.0220455 0.0247785 0.0236448 0.0432478 0.0258822 0.0443477 0.0480423 0.0480996 0.03591 0.0621592 0.037647 0.0598679 0.038379 0.0643371 0.0527535 0.0769441 0.055627 0.0839202 0.045812 0.0902929
36 3 O 4.63043 6.06637 2.79288 -1.2 1 0.0180753 0.0189938 0.0416735 0.0196999 0.0314399 0.0369878 0.0421807 0.048788 0.0457499 0.0368059 0.0501098 0.0514634 0.056703 0.0647086 0.0616941 0.0740391 0.0658698 0.0680705 0.068376 0.0839894
37 1 Mg -1.12976 4.79031 4.4844 1.2 1 0.0212483 0.0259955 0.0146602 0.0145033 0.0381201 0.0374503 0.0522304 0.0482849 0.0439885 0.043201 0.0558526 0.0605054 0.0752709 0.0684787 0.061636 0.0677331 0.0703077 0.0958422 0.0717663 0.0818599
38 2 Si -2.9517 7.47444 4.4844 2.4 1 0.0224724 0.0138317 0.0200768 0.0278372 0.0304686 0.0415904 0.0624563 0.0290655 0.0548445 0.0583496 0.0509973 0.0572216 0.061131 0.0556427 0.0789566 0.0713233 0.053652 0.0877625 0.0546198 0.0612661
39 3 O -3.00198 5.86121 4.4844 -1.2 1 0.0155576 0.0236884 0.0271016 0.0273033 0.0330055 0.0310172 0.0547113 0.059645 0.0374522 0.0530315 0.0483576 0.070482 0.0579509 0.056134 0.0656807 0.0700541 0.0490163 0.0778589 0.0619746 0.0773082
40 3 O 0.666315 8.44846 4.4844 -1.2 1 0.0108379 0.017589 0.0261867 0.0196788 0.0202471 0.0529613 0.0330641 0.0487336 0.0430739 0.0489698 0.0444476 0.052209 0.049537 0.0777523 0.0992473 0.0699701 0.0770213 0.0490682 0.0697529 0.0740671
41 3 O -2.21213 8.18062 3.18632 -1.2 1 0.02153 0.0118266 0.0197234 0.0153688 0.0157835 0.0330203 0.0452975 0.0537798 0.0431488 0.0558904 0.0516827 0.0528247 0.0524833 0.0459069 0.0780883 0.0621882 0.0720913 0.0593641 0.067754 0.0704046
42 3 O -2.25864 8.18062 5.78248 -1.2 1 0.0108388 0.0137079 0.0214022 0.0211973 0.0161624 0.0289024 0.050662 0.0460352 0.0390797 0.0387808 0.0534335 0.0385846 0.057884 0.0568125 0.0808533 0.0679891 0.0684868 0.0630399 0.068107 0.0749378
43 1 Mg 1.20893 7.12349 2.9896 1.2 1 0.00772288 0.0224349 0.0186573 0.0246471 0.0240863 0.0392356 0.0427502 0.0468379 0.0341144 0.065794 0.0386434 0.0669288 0.0359218 0.0588736 0.0516474 0.0805148 0.0508014 0.0841824 0.0474629 0.0874004
44 1 Mg 4.00982 7.08218 4.4844 1.2 1 0.0189094 0.0192199 0.028488 0.0376771 0.0362064 0.0323518 0.0466185 0.0361901 0.0461865 0.0503196 0.0577705 0.0544885 0.0694497 0.0745824 0.0568823 0.0679518 0.0638463 0.0964946 0.075043 0.0819242
45 2 Si 2.17861 9.14704 4.4844 2.4 1 0.026857 0.00807021 0.0242083 0.021302 0.0287098 0.0348472 0.0610495 0.0276332 0.0498748 0.0552005 0.0548499 0.0598756 0.0650511 0.0584427 0.080153 0.0697551 0.049406 0.0923144 0.0528856 0.0571433
46 3 O 2.18828 10.7603 4.4844 -1.2 1 0.0208942 0.0111812 0.00472208 0.0172971 0.0247332 0.0230298 0.0412998 0.0599777 0.0393748 0.0510609 0.0411607 0.0725139 0.0475092 0.0634649 0.0696985 0.0728993 0.0461738 0.0714745 0.0647446 0.0730968
47 3 O -4.43805 8.17302 4.4844 -1.2 1 0.0194109 0.0221263 0.0171611 0.0163492 0.0227683 0.0540483 0.0370132 0.0493243 0.0448859 0.049044 0.035118 0.0534169 0.0532329 0.0711194 0.0985024 0.0657387 0.0785117 0.0546088 0.0758307 0.0740767
48 3 O 2.89193 8.44087 3.18632 -1.2 1 0.0179072 0.0157698 0.0181821 0.0146504 0.021218 0.0416502 0.0340979 0.0560647 0.0437195 0.0510571 0.0590788 0.0490244 0.0514625 0.0521763 0.0804771 0.0629427 0.0697758 0.0593355 0.064911 0.0734185
49 1 Mg 1.25915 7.12349 0 1.2 1 0.0188662 0.0175307 0.0282017 0.0149096 0.0318557 0.0247572 0.0501076 0.0399568 0.0560268 0.0495131 0.0537129 0.0427218 0.0709966 0.0514201 0.0683645 0.0705946 0.0639297 0.0709975 0.0793518 0.058792
50 3 O 2.84547 8.44087 5.78248 -1.2 1 0.0107479 0.0129995 0.0185044 0.0204885 0.0202123 0.0289203 0.0432944 0.0480545 0.0377436 0.0415039 0.05902 0.041971 0.0584995 0.0626995 0.0890256 0.0668886 0.0712479 0.0635829 0.0662833 0.077687
51 1 Mg -1.59284 7.16481 1.4948 1.2 1 0.00982749 0.0164258 0.0204636 0.0204204 0.0149694 0.0372361 0.0462359 0.0428005 0.0434779 0.0578667 0.0390284 0.0654493 0.0520925 0.0691725 0.0755383 0.0603559 0.067863 0.084645 0.0732855 0.0784535
52 2 Si 0.240329 5.09994 1.4948 2.4 1 0.0245937 0.0172209 0.0160359 0.0434019 0.0273275 0.0404467 0.0468915 0.0533173 0.0551261 0.0490198 0.0454358 0.0575859 0.0589181 0.067861 0.0654903 0.0666949 0.0636708 0.0725937 0.0662369 0.0676622
53 3 O 0.234538 3.48671 1.4948 -1.2 1 0.0131844 0.0164366 0.0265932 0.0359081 0.0313635 0.0492587 0.0459804 0.0425357 0.0529229 0.0470898 0.0522277 0.0611147 0.0558291 0.0610398 0.0615671 0.0623811 0.0626915 0.0569792 0.0760527 0.0736526
54 3 O 6.85564 6.07396 1.4948 -1.2 1 0.0324667 0.0195118 0.0345552 0.0276088 0.0372089 0.0403408 0.03246 0.0623591 0.0365204 0.053228 0.0538806 0.0536555 0.0552168 0.0732291 0.069825 0.0771907 0.0664438 0.0722002 0.0532422 0.085082
55 3 O -0.429565 5.80612 0.196716 -1.2 1 0.0340194 0.019989 0.015837 0.0211934 0.0409748 0.0374881 0.0538698 0.0451375 0.0460405 0.0563754 0.0397759 0.0419729 0.0534022 0.0600511 0.059943 0.0681487 0.0703161 0.0611076 0.0652691 0.0740831
56 3 O -0.473377 5.80612 2.79288 -1.2 1 0.0248242 0.021242 0.0341871 0.0187672 0.0345774 0.0464671 0.0494425 0.0484337 0.0548153 0.0454507 0.0624414 0.0377802 0.0434095 0.058308 0.0665548 0.0712169 0.0654864 0.0690525 0.0712742 0.0806295
57 1 Mg 6.40169 9.49799 0 1.2 1 0.0127342 0.0119402 0.0212416 0.0143498 0.0305533 0.021294 0.0521777 0.0354341 0.0585039 0.0492167 0.0496928 0.0355001 0.0670999 0.0526351 0.0710401 0.0670331 0.0654132 0.0704809 0.081072 0.0683915
58 1 Mg 3.64209 14.2057 1.4948 1.2 1 0.00622873 0.0138867 0.017683 0.0194239 0.0218766 0.034117 0.0365704 0.0430712 0.0403116 0.0546489 0.0390368 0.06872 0.0543721 0.0665399 0.0746317 0.0630696 0.0640188 0.0833165 0.0750295 0.0783687
59 2 Si 5.45748 11.5215 1.4948 2.4 1 0.0119511 0.0218291 0.0233033 0.0247943 0.0180103 0.0402262 0.039739 0.0400123 0.0436191 0.0546055 0.0424556 0.060466 0.0532837 0.0661653 0.0694556 0.0635875 0.0708935 0.0817557 0.0579471 0.0666339
60 3 O 5.51101 13.1348 1.4948 -1.2 1 0.0242096 0.0134175 0.0222528 0.0294965 0.0197585 0.0433383 0.0446207 0.0591375 0.0367775 0.049885 0.0428548 0.0671524 0.0532606 0.0534734 0.0652144 0.059714 0.0706959 0.0579081 0.0695282 0.07201
61 3 O 1.83851 10.5475 1.4948 -1.2 1 0.0351732 0.01403 0.0216057 0.0140534 0.0363594 0.0303916 0.0363169 0.0590756 0.0400503 0.0485098 0.0498193 0.0513561 0.0468885 0.0748372 0.0756839 0.0799372 0.0565164 0.0758938 0.0576187 0.0789604
62 3 O 4.7611 10.8154 0.196716 -1.2 1 0.0357368 0.0192552 0.0197747 0.0181279 0.0268585 0.0441638 0.0481719 0.0374955 0.038847 0.0491048 0.0369264 0.0411932 0.0610699 0.0608446 0.0647972 0.0715941 0.0751071 0.0657309 0.0728292 0.0674369
63 1 Mg 6.35203 9.49799 2.9896 1.2 1 0.0128553 0.0173083 0.0254631 0.0211992 0.0194839 0.038156 0.0374291 0.0512329 0.0350423 0.0586006 0.0315644 0.0648175 0.0279489 0.0666173 0.0471242 0.0801149 0.0454671 0.0902023 0.0453159 0.0901082
64 3 O 4.71833 10.8154 2.79288 -1.2 1 0.0215615 0.0129508 0.0326978 0.012934 0.0303411 0.0432016 0.0436385 0.0451349 0.0431339 0.0373699 0.0536067 0.0424297 0.0541614 0.0585031 0.0738249 0.0680224 0.0729132 0.0593896 0.0701433 0.0790988
65 1 Mg -1.0438 9.53931 4.4844 1.2 1 0.0133212 0.0187228 0.0143288 0.0233822 0.0263205 0.0310071 0.0374605 0.0355526 0.0459904 0.0498903 0.056386 0.0565315 0.0664246 0.0730045 0.0585509 0.0707777 0.0724145 0.0978218 0.0693667 0.0842682
66 2 Si -2.8604 12.2234 4.4844 2.4 1 0.0193254 0.0151239 0.0167349 0.0282848 0.0298089 0.0404023 0.058088 0.0292349 0.0532498 0.0652507 0.0557713 0.060178 0.0601967 0.0518422 0.0791173 0.0720804 0.0535779 0.0910776 0.0553838 0.0614249
67 3 O -2.91391 10.6102 4.4844 -1.2 1 0.0206384 0.0118883 0.00997146 0.0235845 0.0266925 0.0234797 0.0443618 0.0629568 0.0402149 0.048597 0.036302 0.0703673 0.0453553 0.0577603 0.0662735 0.0693712 0.05046 0.072658 0.0624387 0.0758598
68 3 O 0.7596 13.1975 4.4844 -1.2 1 0.026895 0.0244905 0.0176881 0.0120726 0.0240785 0.0485018 0.0350787 0.0495667 0.0441045 0.0489517 0.03991 0.0496942 0.0491469 0.0719216 0.098782 0.0635684 0.0763389 0.0549076 0.071998 0.0727218
69 3 O -2.12001 12.9296 3.18632 -1.2 1 0.0239213 0.0102975 0.0207147 0.0173876 0.0198303 0.0354053 0.0403778 0.0535111 0.044188 0.0538847 0.0519138 0.0513124 0.0547288 0.0483544 0.0809615 0.0625892 0.0720963 0.0635838 0.0674588 0.0690979
70 3 O -2.16532 12.9296 5.78248 -1.2 1 0.0155031 0.00899414 0.0214545 0.0215275 0.0165515 0.0277288 0.0494833 0.0473604 0.0377704 0.0385653 0.0548737 0.0380109 0.0560383 0.0611548 0.0809254 0.068617 0.0714383 0.061116 0.0690063 0.0775068
71 1 Mg 1.29891 11.8725 2.9896 1.2 1 0.00811264 0.0160435 0.021792 0.0241076 0.0173601 0.0388863 0.0364734 0.0497875 0.0352131 0.0603698 0.0340467 0.0598616 0.0241944 0.0671781 0.0488814 0.083405 0.0491523 0.0890209 0.0475114 0.0873136
72 1 Mg 4.10033 11.8312 4.4844 1.2 1 0.00932729 0.0152835 0.0183183 0.0251864 0.0322022 0.0300235 0.0420877 0.0331561 0.0476815 0.0527706 0.0526718 0.0551181 0.065996 0.0702948 0.0513949 0.0702785 0.0687301 0.0987021 0.0736772 0.0800846
73 2 Si 2.27333 13.896 4.4844 2.4 1 0.0275473 0.00790782 0.0254735 0.0233218 0.0238352 0.0379259 0.0616184 0.0299055 0.0524823 0.0558212 0.0539942 0.0613466 0.0618413 0.0579704 0.0772444 0.0683329 0.0473236 0.0962391 0.0544957 0.0567119
74 3 O 2.28634 15.5093 4.4844 -1.2 1 0.0236172 0.0128072 0.0121569 0.017846 0.0245093 0.0228829 0.0402532 0.0596381 0.0417318 0.0512746 0.0412422 0.0720791 0.0460229 0.0646897 0.0682916 0.0718046 0.0467517 0.0694044 0.0646875 0.0756648
75 3 O -4.34533 12.922 4.4844 -1.2 1 0.0290178 0.0235112 0.0215226 0.0105085 0.0232342 0.0496789 0.0351037 0.0488068 0.044669 0.0513549 0.0379365 0.0516389 0.0496113 0.0711283 0.0989869 0.0679666 0.076734 0.0520391 0.0747993 0.0731291
76 3 O 2.98455 13.1899 3.18632 -1.2 1 0.0252071 0.0114793 0.0187877 0.0113953 0.0185751 0.0398342 0.0380439 0.0577331 0.0429636 0.0544919 0.0548907 0.049261 0.0508361 0.0502983 0.08152 0.0611994 0.0672041 0.0612908 0.0644489 0.0714426
77 1 Mg 1.34779 11.8725 0 1.2 1 0.0218112 0.00923308 0.0218201 0.0146916 0.028701 0.0224528 0.0515873 0.0347333 0.0576077 0.0508614 0.0497669 0.0353667 0.0653356 0.0503828 0.0707652 0.0644396 0.0612283 0.0703479 0.0871795 0.0602075
78 3 O 2.93934 13.1899 5.78248 -1.2 1 0.0213137 0.0117693 0.0179998 0.0228373 0.0180637 0.0254442 0.0492378 0.0469741 0.0415145 0.0377576 0.0575375 0.036525 0.0550756 0.0590723 0.0876098 0.0612841 0.0691705 0.0622197 0.0653098 0.0794354
79 1 Mg -1.50344 11.9138 1.4948 1.2 1 0.0129451 0.0179359 0.022856 0.0204353 0.0117837 0.036961 0.0383293 0.0425108 0.0413152 0.0599897 0.0353558 0.064963 0.0505044 0.0648196 0.0745619 0.0679521 0.0642136 0.0841106 0.0764799 0.0786854
80 2 Si 0.326006 9.84894 1.4948 2.4 1 0.0280697 0.0177613 0.0270393 0.0295776 0.0169455 0.0381016 0.0435036 0.0399487 0.0441392 0.0552438 0.0395288 0.0602738 0.0554131 0.0663991 0.0607755 0.0628457 0.0700224 0.0801253 0.0615467 0.0685245
81 3 O 0.317364 8.23571 1.4948 -1.2 1 0.0223809 0.0125414 0.0225473 0.0239244 0.0201523 0.0452276 0.0429858 0.0499593 0.0349732 0.0545325 0.0440442 0.0659553 0.0571332 0.0595359 0.0675966 0.0667578 0.0713343 0.0534618 0.0735944 0.0743376
82 3 O 6.94307 10.823 1.4948 -1.2 1 0.0312147 0.0148214 0.0219464 0.0116259 0.0372865 0.0331318 0.038094 0.0579033 0.0347507 0.0477424 0.0513178 0.0526397 0.0501006 0.0746969 0.0725746 0.0797406 0.0618316 0.0727871 0.0580842 0.0802841
83 3 O -0.343122 10.5551 0.196716 -1.2 1 0.0308371 0.0174417 0.021558 0.0208706 0.0297752 0.0414808 0.0513463 0.0398711 0.0386724 0.0508203 0.0371065 0.037513 0.0612678 0.0609813 0.0688074 0.0707954 0.0812107 0.0540217 0.0702316 0.0695709
84 3 O -0.385966 10.5551 2.79288 -1.2 1 0.0224542 0.0156428 0.0325412 0.0137781 0.032516 0.0431845 0.0452359 0.0457363 0.0448963 0.0384465 0.0528408 0.0461211 0.048602 0.0562943 0.0703361 0.0710529 0.0672632 0.0621435 0.0702492 0.0789534
85 1 Mg 6.49448 14.247 0 1.2 1 0.0224848 0.00991686 0.0185949 0.0172734 0.0284525 0.0232568 0.0476829 0.0332433 0.0592826 0.0482008 0.0513662 0.0371552 0.0626498 0.0529339 0.0708044 0.0655127 0.0644177 0.0707268 0.0848787 0.0704531
86 1 Mg 3.74457 18.9547 1.4948 1.2 1 0.01497 0.0107246 0.0152407 0.016111 0.0256245 0.0293302 0.0311843 0.0396564 0.0376135 0.0577426 0.0429617 0.0669792 0.0508598 0.0663022 0.0708272 0.0700375 0.0630911 0.0833064 0.0785986 0.0761155
87 2 Si 5.55495 16.2705 1.4948 2.4 1 0.0107815 0.0218758 0.0201104 0.0270483 0.0176691 0.0427301 0.0372635 0.0402687 0.0468956 0.0527063 0.0441642 0.0604887 0.0536586 0.0641809 0.0701231 0.0595478 0.0729359 0.0794276 0.0599096 0.0706113
88 3 O 5.6115 17.8838 1.4948 -1.2 1 0.0268741 0.0180826 0.0232999 0.0255512 0.0192758 0.0434508 0.0453546 0.0607901 0.0375087 0.0498751 0.0381334 0.0674305 0.0512189 0.0556441 0.0644073 0.0582305 0.0656319 0.0617473 0.0632438 0.0693032
89 3 O 1.93416 15.2965 1.4948 -1.2 1 0.041442 0.0160349 0.0196316 0.00982464 0.035074 0.0312023 0.0366221 0.0577901 0.0420101 0.0464072 0.0490021 0.0504144 0.0474114 0.0734622 0.0804041 0.0765575 0.0599544 0.0737597 0.0624133 0.0771396
90 3 O 4.85636 15.5644 0.196716 -1.2 1 0.0261243 0.0109983 0.0223181 0.0195686 0.0237042 0.0513331 0.0504446 0.039996 0.0410721 0.0465329 0.0363993 0.033791 0.0641909 0.0544571 0.067247 0.0683926 0.0745801 0.0632624 0.0715141 0.0672751
91 1 Mg 6.44662 14.247 2.9896 1.2 1 0.0104078 0.0178252 0.0228705 0.0215772 0.0188647 0.0352048 0.0383394 0.0541026 0.0360446 0.0575884 0.0332716 0.0629223 0.0248703 0.0671194 0.0460311 0.0775452 0.045397 0.0922632 0.0431475 0.092076
92 3 O 4.81537 15.5644 2.79288 -1.2 1 0.0209897 0.011347 0.0257646 0.0115841 0.0262367 0.0384448 0.0467373 0.0461304 0.0450906 0.0398428 0.0501592 0.0420214 0.0506558 0.0545984 0.0741009 0.0653093 0.0745714 0.0544337 0.0725744 0.0771673
93 1 Mg -0.948271 14.2883 4.4844 1.2 1 0.0125565 0.0112826 0.013863 0.0269551 0.0262573 0.0274501 0.0346303 0.0350331 0.0452378 0.0504406 0.0585876 0.0568165 0.0670605 0.069355 0.0582049 0.069309 0.0710653 0.0980025 0.073505 0.0806168
94 2 Si -2.75928 16.9724 4.4844 2.4 1 0.0207225 0.0137555 0.0190005 0.0270404 0.0264901 0.0414018 0.0564402 0.0309436 0.0540318 0.0653503 0.0534242 0.06252 0.059337 0.0544787 0.0741124 0.0713722 0.0479357 0.093167 0.0524732 0.0646294
95 3 O -2.81617 15.3592 4.4844 -1.2 1 0.0207449 0.0111116 0.0139938 0.0258711 0.0261325 0.0265544 0.0393639 0.0663147 0.0442666 0.0480773 0.0352101 0.0721022 0.0494844 0.0601111 0.0662535 0.0677157 0.0545046 0.072898 0.0636473 0.0738736
96 3 O 0.862762 17.9465 4.4844 -1.2 1 0.0177268 0.0240486 0.0199232 0.0166768 0.0225111 0.045972 0.035371 0.0530486 0.0473191 0.0532841 0.0400619 0.0483673 0.0445284 0.0706747 0.105113 0.0584031 0.0706558 0.0544447 0.0734803 0.0685894
97 3 O -2.0185 17.6786 3.18632 -1.2 1 0.0250734 0.0105241 0.0188451 0.0181683 0.0178047 0.0364546 0.0418711 0.0536774 0.041833 0.0537071 0.0522728 0.0508328 0.0556235 0.0479073 0.0819027 0.0596292 0.0696538 0.0664509 0.0654602 0.0689994
98 3 O -2.06164 17.6786 5.78248 -1.2 1 0.0116599 0.0144956 0.0252872 0.0254586 0.0129673 0.0264927 0.0507602 0.0408518 0.0405458 0.0377865 0.0557625 0.0375312 0.0560102 0.0640541 0.0827584 0.0688726 0.0675468 0.0625593 0.0689776 0.0767592
99 1 Mg 1.39817 16.6215 2.9896 1.2 1 0.00567292 0.0169592 0.0196358 0.0245449 0.0178541 0.0367745 0.0365996 0.0517053 0.0372178 0.0585885 0.0363226 0.0574642 0.0222793 0.0665667 0.0472365 0.0812951 0.0493664 0.0909317 0.044985 0.0894139
100 1 Mg 4.20062 16.5802 4.4844 1.2 1 0.0195406 0.0117538 0.0147739 0.023125 0.0267869 0.0305733 0.0398049 0.0329719 0.0471978 0.0520718 0.0552775 0.0557198 0.0679027 0.0688644 0.0531176 0.0745051 0.0697326 0.0964709 0.0716596 0.0790937
101 2 Si 2.37796 18.645 4.4844 2.4 1 0.0191618 0.00890455 0.0228675 0.0236534 0.0310238 0.0355979 0.0606053 0.029858 0.0538087 0.0587692 0.0514348 0.0599871 0.0611914 0.058782 0.0742214 0.0656248 0.0477968 0.099571 0.0538191 0.0552012
102 3 O 2.39434 20.2583 4.4844 -1.2 1 0.0227314 0.0155239 0.00572661 0.0186808 0.0222057 0.022948 0.039958 0.0588833 0.0429492 0.0510046 0.0408324 0.0723305 0.0477734 0.0632862 0.0700689 0.0680955 0.0507935 0.0662823 0.0641661 0.0786947
103 3 O -4.24274 17.671 4.4844 -1.2 1 0.0217089 0.0223033 0.0226666 0.0153487 0.021823 0.0467679 0.0338552 0.0490357 0.046083 0.053042 0.0384351 0.0518593 0.0477283 0.0694212 0.100035 0.0610735 0.0762117 0.0525542 0.076186 0.0699433
104 3 O 3.08659 17.9389 3.18632 -1.2 1 0.0282986 0.0133777 0.021272 0.0103197 0.017179 0.0375566 0.0370968 0.0559476 0.0428316 0.0518786 0.0560835 0.0480779 0.0521014 0.0507537 0.0803337 0.0591504 0.0687466 0.0612602 0.0630275 0.0690385
105 1 Mg 1.44478 16.6215 0 1.2 1 0.00939898 0.0121746 0.0218325 0.0125852 0.0267372 0.031639 0.0481161 0.0355822 0.0506971 0.0505807 0.0515432 0.0397089 0.0586504 0.0493656 0.070033 0.0661171 0.0602877 0.0675887 0.0883372 0.0641015
106 3 O 3.0436 17.9389 5.78248 -1.2 1 0.0144282 0.0135707 0.0223255 0.0214986 0.021946 0.0216842 0.0499907 0.0440158 0.0428739 0.0410567 0.0584944 0.0381212 0.0555898 0.0597021 0.0857326 0.0618682 0.0708785 0.0614739 0.0626353 0.0803812
107 1 Mg -1.40524 16.6628 1.4948 1.2 1 0.0116251 0.0124439 0.0258244 0.0176364 0.0173978 0.0344412 0.0359212 0.0428019 0.0412119 0.0604097 0.0401796 0.0626754 0.0548976 0.0644533 0.074256 0.0693342 0.0642432 0.0780215 0.0782791 0.0760484
108 2 Si 0.420358 14.5979 1.4948 2.4 1 0.0208944 0.0197221 0.0271601 0.0268273 0.0181102 0.0393595 0.0397003 0.0397286 0.0453275 0.0556165 0.0442018 0.0601822 0.0578299 0.0636826 0.0677963 0.0596833 0.0723225 0.0761996 0.0623897 0.0717447
109 3 O 0.408732 12.9847 1.4948 -1.2 1 0.0221772 0.0154793 0.0228193 0.0256624 0.0167192 0.0471211 0.0438458 0.053948 0.0362806 0.0529791 0.0421797 0.0692459 0.0530647 0.0567809 0.0656606 0.0636843 0.0713597 0.055011 0.0683826 0.0719824
110 3 O 7.03923 15.572 1.4948 -1.2 1 0.0293123 0.0168652 0.0217317 0.0127262 0.036072 0.0338001 0.0367036 0.056418 0.0385041 0.0447011 0.0512078 0.0534349 0.0479342 0.0739236 0.0779458 0.0782016 0.0642627 0.06937 0.0622306 0.0774627
111 3 O -0.248332 15.3041 0.196716 -1.2 1 0.0219904 0.0121857 0.022177 0.0192781 0.0242998 0.0463998 0.0500956 0.0435901 0.0402928 0.0468443 0.0370388 0.0319715 0.0620575 0.0546743 0.0702328 0.0653181 0.0821928 0.0504773 0.0696117 0.0713064
112 3 O -0.289436 15.3041 2.79288 -1.2 1 0.0222563 0.0145541 0.0247828 0.0117052 0.0313953 0.0372778 0.0437414 0.0480871 0.0437444 0.0394991 0.0538193 0.0484466 0.04993 0.0523256 0.0717159 0.0677784 0.0706711 0.0569086 0.0695009 0.0772809
113 1 Mg 6.59566 18.996 0 1.2 1 0.0137182 0.0117929 0.0199158 0.0145238 0.0260232 0.0315241 0.0430134 0.0329137 0.0538961 0.0492925 0.0538567 0.0389917 0.0524906 0.0531096 0.0722755 0.0647217 0.0638781 0.0648656 0.0860048 0.0710292
114 1 Mg 3.85574 23.7037 1.4948 1.2 1 0.00885302 0.0140402 0.0220105 0.0158588 0.0234323 0.0296527 0.0316635 0.0360215 0.0385454 0.059016 0.0462995 0.0652001 0.0509025 0.0678903 0.0651439 0.0728693 0.0654799 0.0806514 0.0807671 0.0761367
115 2 Si 5.66125 21.0195 1.4948 2.4 1 0.00859417 0.0226787 0.0247729 0.0274272 0.0201066 0.0458149 0.033775 0.0433855 0.0473027 0.0539274 0.0444302 0.0612208 0.0559112 0.0598297 0.0709665 0.0608272 0.0732314 0.0772381 0.0649026 0.0754968
116 3 O 5.72074 22.6328 1.4948 -1.2 1 0.0283558 0.0192236 0.0185477 0.0226916 0.019202 0.0448558 0.0453399 0.0618967 0.0379324 0.0519664 0.0328918 0.0695744 0.0496894 0.0541389 0.0686239 0.0551806 0.0649907 0.0677372 0.0563987 0.0710602
117 3 O 2.03867 20.0455 1.4948 -1.2 1 0.0300553 0.0165742 0.0267831 0.0159128 0.0342434 0.0297356 0.0360145 0.0553194 0.0438114 0.0427443 0.0504698 0.0506036 0.0478238 0.073724 0.0849084 0.0724601 0.0617398 0.0679155 0.06384 0.0730213
118 3 O 4.96004 20.3134 0.196716 -1.2 1 0.0210531 0.0102587 0.0228668 0.0187413 0.0232651 0.0453212 0.0439915 0.0479833 0.0389381 0.0397353 0.0413501 0.0342557 0.0646519 0.0479834 0.0695722 0.0729633 0.0715916 0.0579638 0.0717149 0.0721917
119 1 Mg 6.55057 18.996 2.9896 1.2 1 0.00907573 0.0165667 0.0215934 0.0203877 0.0240547 0.0338733 0.0382518 0.0570741 0.0333887 0.0615155 0.0352226 0.0632388 0.0240487 0.0710185 0.0447401 0.073847 0.0449053 0.0950791 0.04273 0.0935494
120 3 O 4.92172 20.3134 2.79288 -1.2 1 0.0137934 0.0118807 0.0262662 0.0152372 0.030592 0.0385162 0.0455253 0.0473435 0.0451718 0.0439297 0.0526899 0.0409967 0.0520324 0.0500544 0.0761628 0.0675027 0.0759396 0.0494063 0.0718953 0.0725812
121 1 Mg -0.84282 19.0373 4.4844 1.2 1 0.00793543 0.0086169 0.0135029 0.0254857 0.0249228 0.0259786 0.0339734 0.0323221 0.047485 0.0504222 0.0592184 0.0553156 0.0671958 0.0672714 0.0565298 0.0733206 0.0708637 0.0934214 0.0735578 0.0825697
122 2 Si -2.64823 21.7214 4.4844 2.4 1 0.0170961 0.0133215 0.0134503 0.0299814 0.0293064 0.0392797 0.0579241 0.0303963 0.0547901 0.0648491 0.0509635 0.0611692 0.061963 0.0539584 0.0764346 0.0718843 0.0481947 0.0926384 0.0533026 0.064871
123 3 O -2.70847 20.1082 4.4844 -1.2 1 0.0147105 0.0113839 0.0216631 0.027124 0.0253253 0.0233765 0.0387471 0.0639456 0.0444521 0.0475758 0.0389138 0.0707819 0.0526274 0.0592784 0.0674033 0.0660851 0.0503733 0.0729914 0.0684208 0.0757963
124 3 O 0.97581 22.6955 4.4844 -1.2 1 0.0153717 0.0245814 0.0199739 0.0154119 0.0207155 0.0411794 0.031804 0.0513212 0.0441977 0.054776 0.0388438 0.0475357 0.0451073 0.0712536 0.107709 0.0525822 0.0690185 0.0540557 0.0731733 0.0660757
125 3 O -1.9076 22.4276 3.18632 -1.2 1 0.0219876 0.00744131 0.0207155 0.0160332 0.0130554 0.0364684 0.0436612 0.0559627 0.0377778 0.0509196 0.054832 0.0484078 0.0552251 0.0468115 0.0807623 0.0584114 0.0691982 0.0658022 0.063215 0.0658717
126 3 O -1.9475 22.4276 5.78248 -1.2 1 0.0143139 0.00795671 0.0236145 0.0238745 0.0147286 0.0287985 0.0517346 0.0431777 0.0388396 0.0366037 0.0577765 0.0371273 0.0542274 0.062508 0.0798792 0.0690394 0.0692868 0.0613565 0.0675056 0.0784721