ITEM: TIMESTEP
81900
ITEM: NUMBER OF ATOMS
10500
ITEM: BOX BOUNDS xy xz yz pp pp pp
0	15.2977	5.09925
0	118.725	0
0	89.688	0
ITEM: ATOMS id type element xu yu zu q Q_1 Q_2 Q_3 Q_4 Q_5 Q_6 Q_7 Q_8 Q_9 Q_10 Q_11 Q_12 Q_13 Q_14 Q_15 Q_16 Q_17 Q_18 Q_19 Q_20 Q_21
1 1 Mg 6.2404 -6.37941e-06 0 1.2 1 0.0154772 0.0431873 0.0264736 0.0365506 0.0319414 0.0388043 0.0357469 0.0685827 0.0375258 0.0725639 0.0324142 0.0594909 0.0443924 0.0699406 0.0489145 0.0925237 0.0522556 0.0833604 0.0525744 0.103122
2 1 Mg 3.46349 4.70768 1.4948 1.2 1 0.0168627 0.0165547 0.0244747 0.0217275 0.0200474 0.0420509 0.0424048 0.0394323 0.0455043 0.0552503 0.0425694 0.0715497 0.0575819 0.0714728 0.0720568 0.0645946 0.0683138 0.0852993 0.0729984 0.0821453
3 2 Si 5.2885 2.02354 1.4948 2.4 1 0.0171512 0.0230002 0.0319403 0.0267458 0.0310989 0.0378327 0.0547923 0.0317972 0.0429761 0.0543408 0.05266 0.0613504 0.0557942 0.0649239 0.0677001 0.0787431 0.0699245 0.0641626 0.0648955 0.0721046
4 3 O 5.33628 3.63678 1.4948 -1.2 1 0.00947862 0.0143305 0.0270091 0.0258156 0.0184579 0.0391182 0.0417678 0.0599436 0.0351752 0.0395936 0.0551112 0.0503718 0.0682863 0.0580019 0.0597222 0.0649634 0.060252 0.0618726 0.0707777 0.0747807
5 3 O 1.67294 1.04952 1.4948 -1.2 1 0.0164281 0.0220953 0.022822 0.0365714 0.029985 0.0387285 0.0341959 0.0612556 0.0348866 0.0596378 0.0441721 0.0508087 0.0715352 0.0588194 0.0766194 0.0696658 0.0623779 0.0640463 0.078615 0.0608851
6 3 O 4.59532 1.31737 0.196716 -1.2 1 0.0256874 0.0219297 0.0575558 0.025359 0.0329213 0.0489697 0.039005 0.0477944 0.0342424 0.0393391 0.0381411 0.0503828 0.0540284 0.0574765 0.0633002 0.0698525 0.0623578 0.070963 0.0590649 0.0708141
7 1 Mg 6.18956 -6.37941e-06 2.9896 1.2 1 0.0125568 0.0295209 0.0176729 0.0215101 0.0385196 0.0434623 0.0504842 0.0441917 0.0476794 0.0450038 0.0384961 0.0548 0.039042 0.0555999 0.0583217 0.077685 0.0568545 0.0676434 0.0589976 0.0703339
8 3 O 4.55118 1.31737 2.79288 -1.2 1 0.0204754 0.022715 0.0308286 0.0191593 0.0258217 0.0465425 0.0419247 0.0476282 0.0425379 0.0495771 0.0537292 0.0502756 0.0488371 0.0681823 0.0525292 0.067165 0.065194 0.0653966 0.0661897 0.0710107
9 1 Mg -1.20682 0.0413099 4.4844 1.2 1 0.01346 0.0240617 0.0214192 0.0268926 0.0359476 0.0396917 0.0318505 0.052726 0.0534549 0.0369249 0.0469039 0.0627242 0.0668602 0.0577757 0.0748843 0.0640987 0.0826917 0.076141 0.0655322 0.0504218
10 2 Si -3.0337 2.72544 4.4844 2.4 1 0.0351625 0.0174925 0.0241212 0.0160954 0.0320849 0.0389546 0.0580575 0.0370885 0.0617211 0.0551959 0.0480211 0.0614391 0.0577356 0.0755006 0.0571286 0.0619041 0.0706684 0.0822636 0.069449 0.0582717
11 3 O -3.08099 1.11221 4.4844 -1.2 1 0.0151 0.028047 0.0281693 0.024632 0.0396582 0.0254292 0.0525628 0.045141 0.041744 0.0421737 0.0448326 0.0740124 0.0504782 0.0533108 0.0562391 0.0666892 0.0563347 0.079115 0.0719114 0.0795673
12 3 O 0.582463 3.69946 4.4844 -1.2 1 0.00566726 0.00826171 0.0321016 0.0283071 0.0274714 0.0602599 0.0293917 0.053267 0.0453611 0.0395766 0.056177 0.0538718 0.059367 0.0728123 0.100399 0.0695828 0.080965 0.0400314 0.0677488 0.0677076
13 3 O -2.29524 3.43162 3.18632 -1.2 1 0.010128 0.0179257 0.0264795 0.0296989 0.0211765 0.0511531 0.0510234 0.0495462 0.0425844 0.0522426 0.0576065 0.0562771 0.0432293 0.0495592 0.0590122 0.0632761 0.066215 0.0626362 0.0638876 0.0725108
14 3 O -2.34216 3.43162 5.78248 -1.2 1 0.0213895 0.014667 0.0166824 0.0282276 0.0260062 0.0404591 0.0547132 0.0456668 0.0425595 0.0548549 0.0572675 0.0475712 0.0597509 0.0523564 0.0768055 0.0691238 0.0662955 0.070593 0.0741886 0.0698919
15 1 Mg 1.12778 2.37449 2.9896 1.2 1 0.015901 0.0405642 0.0158884 0.0238698 0.0250084 0.0417202 0.0410146 0.0511217 0.0361957 0.0602946 0.0363473 0.0594259 0.0404128 0.0674562 0.0630479 0.0709058 0.0667633 0.0820463 0.0468228 0.0848296
16 1 Mg 3.92855 2.33318 4.4844 1.2 1 0.026717 0.0182511 0.0223564 0.0290409 0.0429697 0.0274102 0.0384798 0.0406392 0.0447521 0.069816 0.0507787 0.0608823 0.049393 0.0641912 0.0583001 0.0739722 0.0619543 0.0922455 0.0734531 0.0860897
17 2 Si 2.09341 4.39804 4.4844 2.4 1 0.025926 0.0179075 0.0323029 0.0228784 0.040712 0.0280795 0.0618095 0.0265462 0.0448139 0.0477863 0.0657843 0.0627218 0.0675846 0.0634163 0.0715012 0.0764511 0.0715344 0.0836908 0.0495102 0.0630577
18 3 O 2.09991 6.01128 4.4844 -1.2 1 0.0147784 0.0119636 0.0163041 0.0172106 0.0346009 0.0275452 0.0491352 0.0555182 0.0462053 0.0464737 0.044549 0.0672513 0.0459512 0.0594869 0.0677497 0.0732006 0.0501483 0.0773361 0.0564453 0.0697051
19 3 O -4.52137 3.42402 4.4844 -1.2 1 0.0221268 0.0236476 0.0347948 0.0220151 0.0267708 0.0554718 0.0378654 0.0471135 0.055188 0.0558387 0.0318254 0.0552414 0.0507536 0.0569641 0.0898298 0.0724477 0.0773622 0.0603608 0.0729151 0.054387
20 3 O 2.80834 3.69187 3.18632 -1.2 1 0.0125867 0.0200386 0.0222113 0.0246536 0.0247984 0.039363 0.0362463 0.051479 0.04769 0.0567946 0.067071 0.0516561 0.0444449 0.0644561 0.0709483 0.0725275 0.06153 0.0554339 0.0731822 0.0696382
21 1 Mg 1.17857 2.37449 0 1.2 1 0.0121658 0.033011 0.0304632 0.0284923 0.0405054 0.0383671 0.0465383 0.0586213 0.0368747 0.0483967 0.0500298 0.0409261 0.0398622 0.0684076 0.0542722 0.0635922 0.0640675 0.080234 0.0603204 0.0740918
22 3 O 2.76143 3.69187 5.78248 -1.2 1 0.0127445 0.0196342 0.0180607 0.0264756 0.019619 0.032971 0.0426816 0.0454199 0.0344045 0.0479654 0.0604574 0.0445703 0.0550487 0.0768702 0.0735915 0.0717227 0.0745075 0.060959 0.0684262 0.0762473
23 1 Mg -1.67381 2.41581 1.4948 1.2 1 0.0126876 0.0117208 0.0370276 0.0375975 0.0323682 0.0440221 0.0593433 0.0390898 0.0531554 0.0397194 0.044137 0.0560932 0.054946 0.0644453 0.0610953 0.0620505 0.0828706 0.0780812 0.0658014 0.0739306
24 2 Si 0.16286 0.350945 1.4948 2.4 1 0.0151074 0.0358728 0.0303628 0.0250943 0.0365223 0.0356089 0.0563893 0.0483128 0.0533419 0.0495811 0.0404062 0.0533498 0.0741753 0.0709754 0.0581987 0.0734536 0.0692092 0.0639447 0.0733962 0.0636569
25 3 O 0.15972 -1.26229 1.4948 -1.2 1 0.00920655 0.0154255 0.0396319 0.0215115 0.0374272 0.0355723 0.0455141 0.0565661 0.0468735 0.050776 0.0553846 0.0555921 0.0633763 0.0669439 0.0490247 0.0596473 0.0687256 0.0661094 0.062274 0.0739437
26 3 O 6.77654 1.32496 1.4948 -1.2 1 0.0142434 0.025477 0.0261605 0.0253614 0.0359753 0.053273 0.0345901 0.0635936 0.0489875 0.0466591 0.0436776 0.0513561 0.0540582 0.0610721 0.0687354 0.0701084 0.08323 0.0636918 0.0599622 0.0734075
27 3 O -0.508028 1.05712 0.196716 -1.2 1 0.0270775 0.0167908 0.0311493 0.0203799 0.0316797 0.0515995 0.0434198 0.0442761 0.0479136 0.0476787 0.0512581 0.0488392 0.0492412 0.0642359 0.0554328 0.0635349 0.0648468 0.0609683 0.0711238 0.0731195
28 3 O -0.552171 1.05712 2.79288 -1.2 1 0.0368066 0.0321244 0.0321762 0.0298535 0.0247114 0.0425379 0.0422509 0.0492048 0.0400062 0.039612 0.0472506 0.048036 0.059455 0.0593957 0.0661992 0.0763659 0.0733372 0.0534268 0.0700984 0.0708965
29 1 Mg 6.31713 4.74899 0 1.2 1 0.0272622 0.0290897 0.030332 0.0367955 0.0327104 0.0267019 0.042151 0.0557687 0.0589967 0.0495764 0.0512755 0.0386241 0.0592356 0.061025 0.0657166 0.06364 0.0659986 0.0732551 0.0699457 0.0702254
30 1 Mg 3.54847 9.45668 1.4948 1.2 1 0.017472 0.0155678 0.0186836 0.0204044 0.0193607 0.0383315 0.039268 0.0433294 0.0473892 0.0557391 0.0378327 0.0678432 0.0526735 0.0650399 0.0725538 0.0623798 0.064682 0.0866888 0.0739942 0.0793963
31 2 Si 5.36879 6.77254 1.4948 2.4 1 0.0290863 0.0271397 0.0238764 0.0254376 0.0246503 0.0348583 0.0441377 0.0362479 0.0445079 0.0568315 0.0422259 0.0580558 0.0540876 0.0668061 0.0658084 0.0738753 0.0677564 0.0793329 0.0563061 0.0693531
32 3 O 5.41937 8.38578 1.4948 -1.2 1 0.0228936 0.0132392 0.023976 0.0305112 0.01583 0.0439327 0.0429959 0.0569781 0.0357703 0.0498011 0.0484987 0.0624299 0.0551852 0.0537477 0.0644386 0.0591318 0.0723403 0.0559799 0.0721158 0.0741585
33 3 O 1.75158 5.79852 1.4948 -1.2 1 0.028465 0.0122718 0.0223224 0.0265681 0.0441038 0.030787 0.0390713 0.0572044 0.0409873 0.0525265 0.0494443 0.0502453 0.047235 0.0711986 0.0788664 0.0782618 0.0601338 0.0751477 0.0599547 0.0763604
34 3 O 4.67421 6.06637 0.196716 -1.2 1 0.014617 0.0264802 0.031607 0.0244149 0.0319964 0.0377866 0.0345925 0.0321441 0.0448178 0.0561596 0.0392418 0.0442646 0.0668013 0.0561835 0.0676887 0.0712442 0.0714679 0.0657243 0.0631431 0.0683906
35 1 Mg 6.26654 4.74899 2.9896 1.2 1 0.022515 0.0261498 0.0251089 0.0412229 0.0257398 0.0442721 0.048585 0.0493491 0.0353392 0.0646837 0.0386022 0.0605228 0.0411147 0.062733 0.0519201 0.0782482 0.0535806 0.0837472 0.0466184 0.0880184
36 3 O 4.63043 6.06637 2.79288 -1.2 1 0.0166924 0.0173514 0.0410385 0.021745 0.0317716 0.0365169 0.0423209 0.0496292 0.0436592 0.03479 0.0499537 0.0520716 0.0568098 0.0637685 0.0618231 0.0743841 0.068491 0.0668711 0.0686103 0.083612
37 1 Mg -1.12976 4.79031 4.4844 1.2 1 0.0209699 0.0264535 0.0153223 0.0171909 0.0339088 0.0401849 0.0466579 0.0473386 0.0472452 0.0417016 0.0529857 0.0594343 0.0767069 0.0734647 0.0596957 0.0720589 0.0723584 0.0893069 0.067374 0.0833489
38 2 Si -2.9517 7.47444 4.4844 2.4 1 0.0224765 0.0151929 0.0187429 0.0261026 0.029431 0.0435344 0.0619909 0.0280429 0.0547935 0.0592006 0.0522245 0.0574667 0.0627937 0.058663 0.080397 0.0691495 0.0515773 0.0867777 0.0564887 0.0621301
39 3 O -3.00198 5.86121 4.4844 -1.2 1 0.0144446 0.020985 0.0284513 0.0243029 0.0329301 0.0295832 0.0547336 0.0591442 0.0405203 0.0563349 0.0490231 0.0697339 0.0591723 0.0536696 0.0636522 0.0693792 0.0474468 0.0732687 0.0627512 0.0790178
40 3 O 0.666315 8.44846 4.4844 -1.2 1 0.0154051 0.0210341 0.0279876 0.020321 0.0227101 0.0530784 0.0331688 0.0473294 0.043184 0.04797 0.0428942 0.0519804 0.0524514 0.0741711 0.102889 0.0677145 0.0761757 0.0526892 0.0712516 0.074654
41 3 O -2.21213 8.18062 3.18632 -1.2 1 0.00935361 0.013067 0.0171705 0.0158086 0.0181807 0.0359343 0.0467466 0.055669 0.0458831 0.0550695 0.0545277 0.0524601 0.0539874 0.0501734 0.0804425 0.0623216 0.0724277 0.0585149 0.0672705 0.0709317
42 3 O -2.25864 8.18062 5.78248 -1.2 1 0.0161791 0.0115588 0.0200458 0.0203485 0.0211026 0.0338813 0.0486804 0.0510297 0.0375688 0.0374797 0.0572645 0.037284 0.0581081 0.0640169 0.0791476 0.0666079 0.0724057 0.0636767 0.0644736 0.0751952
43 1 Mg 1.20893 7.12349 2.9896 1.2 1 0.0171517 0.021064 0.0209211 0.0225045 0.0252756 0.0379627 0.0436415 0.0476894 0.0351931 0.0651683 0.040412 0.0676489 0.0373381 0.0592495 0.0509017 0.0808737 0.0499293 0.0847421 0.0482071 0.0872728
44 1 Mg 4.00982 7.08218 4.4844 1.2 1 0.0243262 0.0106588 0.023703 0.0335786 0.0335801 0.0350889 0.0428289 0.0367031 0.0456015 0.0522284 0.0579617 0.0571405 0.0721574 0.073146 0.0610181 0.070465 0.0628155 0.0961367 0.0753941 0.0792896
45 2 Si 2.17861 9.14704 4.4844 2.4 1 0.0284225 0.0118599 0.0244347 0.0228119 0.0316591 0.0299822 0.0634903 0.0246665 0.0490737 0.0541615 0.0550982 0.0659361 0.0623628 0.0556978 0.0817092 0.0749312 0.0503994 0.0919581 0.0530004 0.0598521
46 3 O 2.18828 10.7603 4.4844 -1.2 1 0.0222492 0.0166372 0.00912552 0.0153746 0.0294293 0.0220825 0.0449818 0.0599213 0.0395933 0.0534716 0.0420294 0.0721916 0.0469773 0.0648797 0.0697709 0.0756438 0.0459482 0.0714079 0.0620428 0.0749863
47 3 O -4.43805 8.17302 4.4844 -1.2 1 0.0084307 0.01474 0.021547 0.0223132 0.0218801 0.0545307 0.0412003 0.049035 0.0429538 0.0508615 0.037632 0.0536381 0.05791 0.0744488 0.101576 0.0690171 0.0781671 0.0536909 0.0727825 0.0734401
48 3 O 2.89193 8.44087 3.18632 -1.2 1 0.0164262 0.0155893 0.018936 0.0122791 0.0190546 0.0394854 0.0340248 0.0555353 0.040569 0.0548387 0.0588159 0.0486616 0.0519765 0.0536579 0.0808701 0.06208 0.0698051 0.0605984 0.065142 0.0723097
49 1 Mg 1.25915 7.12349 0 1.2 1 0.0187559 0.0175996 0.0282674 0.0149631 0.0319098 0.0248499 0.0499794 0.039896 0.0560604 0.0492423 0.05381 0.042521 0.0709453 0.0512969 0.0680532 0.0709062 0.0644313 0.070684 0.0792177 0.0587197
50 3 O 2.84547 8.44087 5.78248 -1.2 1 0.00409396 0.0145911 0.0203561 0.0205984 0.025305 0.0246591 0.0460183 0.0498347 0.0392405 0.0402468 0.0570738 0.0382709 0.065327 0.0547703 0.0897596 0.0661051 0.0686774 0.0623816 0.0602452 0.0765444
51 1 Mg -1.59284 7.16481 1.4948 1.2 1 0.00720468 0.0201034 0.0192546 0.0227714 0.0154294 0.0381155 0.0464044 0.0423181 0.0419982 0.057146 0.0384374 0.0671741 0.0536801 0.0695219 0.0772938 0.0605721 0.0673876 0.0850657 0.0740692 0.0787245
52 2 Si 0.240329 5.09994 1.4948 2.4 1 0.0245957 0.0172666 0.0159732 0.0433952 0.0272975 0.040377 0.0469269 0.0533661 0.0551887 0.0489402 0.0454475 0.0577967 0.0588197 0.067707 0.0655334 0.0666974 0.0635501 0.0725369 0.0660584 0.0675836
53 3 O 0.234538 3.48671 1.4948 -1.2 1 0.0133188 0.0168163 0.0268086 0.0361212 0.0313341 0.0487509 0.0457177 0.0423157 0.0525168 0.0474228 0.0515991 0.0612316 0.0557664 0.0614508 0.0618182 0.0631012 0.0617171 0.0576669 0.0754741 0.0745943
54 3 O 6.85564 6.07396 1.4948 -1.2 1 0.0368459 0.0202916 0.0330727 0.02697 0.0370358 0.0403705 0.03353 0.0601197 0.0366329 0.0521175 0.0538458 0.0531766 0.0565115 0.0733205 0.0704951 0.0768555 0.0659404 0.0734315 0.053082 0.0849601
55 3 O -0.429565 5.80612 0.196716 -1.2 1 0.0314102 0.0221264 0.0195068 0.023952 0.0411347 0.0371944 0.0531842 0.0436053 0.0451011 0.056771 0.0400685 0.0413898 0.0528616 0.0585344 0.0594671 0.067392 0.0692291 0.0615084 0.0644735 0.0744241
56 3 O -0.473377 5.80612 2.79288 -1.2 1 0.0251386 0.0198599 0.0342552 0.0207606 0.0345358 0.046526 0.0488988 0.0492868 0.0549121 0.045602 0.0606503 0.0385983 0.0438099 0.0605967 0.0653352 0.0693327 0.0644294 0.0685792 0.0735643 0.0812558
57 1 Mg 6.40169 9.49799 0 1.2 1 0.0127116 0.0118109 0.0211906 0.0142977 0.0305085 0.0212087 0.0522798 0.0355809 0.0586088 0.0493563 0.0497966 0.0357686 0.0670027 0.052643 0.0710903 0.0673199 0.0654606 0.0704967 0.0809904 0.0683846
58 1 Mg 3.64209 14.2057 1.4948 1.2 1 0.0105393 0.0110045 0.0182307 0.0163269 0.0216914 0.0336805 0.0359286 0.0435993 0.0414304 0.0555308 0.0393831 0.0668435 0.0534005 0.066149 0.0738753 0.063507 0.0644768 0.0823496 0.0741894 0.0787181
59 2 Si 5.45748 11.5215 1.4948 2.4 1 0.0108201 0.0235141 0.0214442 0.0250011 0.0175188 0.0403401 0.0401062 0.0386966 0.0445832 0.055822 0.0426103 0.0605168 0.0525101 0.0667497 0.0694948 0.0640889 0.0712533 0.0810488 0.0581987 0.0661507
60 3 O 5.51101 13.1348 1.4948 -1.2 1 0.0254972 0.0155019 0.0223744 0.0306343 0.0177608 0.0445693 0.0435683 0.058726 0.0360546 0.0487587 0.04438 0.0662998 0.0537186 0.0521855 0.0640645 0.0584027 0.0709497 0.0573246 0.0690571 0.0725121
61 3 O 1.83851 10.5475 1.4948 -1.2 1 0.0351597 0.0140413 0.0215639 0.0138252 0.0362651 0.0304258 0.036371 0.0592021 0.0398525 0.0483912 0.0497386 0.051819 0.0472503 0.0746673 0.0757113 0.0800969 0.0566422 0.0758987 0.0576994 0.0787785
62 3 O 4.7611 10.8154 0.196716 -1.2 1 0.0322756 0.0204028 0.0200672 0.0182523 0.0282583 0.0441046 0.0474021 0.037056 0.0373634 0.0468489 0.0379572 0.0393342 0.0595883 0.0607477 0.0650465 0.0708664 0.0769047 0.0648445 0.0728807 0.0686628
63 1 Mg 6.35203 9.49799 2.9896 1.2 1 0.0128266 0.0169577 0.0249431 0.0210276 0.0186969 0.0387387 0.0366788 0.0512747 0.0344191 0.0575972 0.0311859 0.0644239 0.0285595 0.0668114 0.0477195 0.081111 0.0464482 0.0900741 0.0452333 0.0905613
64 3 O 4.71833 10.8154 2.79288 -1.2 1 0.0218498 0.0127143 0.0325923 0.0121094 0.0305998 0.0429774 0.0438145 0.0451659 0.0431855 0.0366135 0.0533656 0.0407399 0.0542656 0.0575357 0.0742551 0.0679947 0.0729396 0.0585751 0.0697028 0.0799207
65 1 Mg -1.0438 9.53931 4.4844 1.2 1 0.00911012 0.0187582 0.0129487 0.0229912 0.024902 0.0302986 0.0371838 0.0359372 0.046866 0.0510874 0.058419 0.0556483 0.0665606 0.0698209 0.0584152 0.0688096 0.0720584 0.0964859 0.0691336 0.0817459
66 2 Si -2.8604 12.2234 4.4844 2.4 1 0.0193009 0.00942392 0.0172715 0.0301265 0.034029 0.0385414 0.0595408 0.030227 0.0531301 0.0672546 0.05497 0.0643828 0.0585508 0.0544031 0.0799969 0.0738336 0.052297 0.0905319 0.0553629 0.0610833
67 3 O -2.91391 10.6102 4.4844 -1.2 1 0.018253 0.00756404 0.012263 0.020046 0.0275728 0.0241004 0.0434247 0.0652258 0.0408493 0.0502072 0.0398839 0.0739614 0.0471732 0.0608365 0.0673799 0.0730678 0.0492179 0.0739379 0.0628587 0.0766367
68 3 O 0.7596 13.1975 4.4844 -1.2 1 0.026069 0.0253904 0.020879 0.0131148 0.0225314 0.0513891 0.0356017 0.05209 0.0423898 0.0496012 0.040546 0.0512835 0.0518318 0.070465 0.100783 0.0638318 0.0741066 0.0578352 0.0700002 0.0722681
69 3 O -2.12001 12.9296 3.18632 -1.2 1 0.0205293 0.00733241 0.0215933 0.0178377 0.01962 0.0370374 0.0406441 0.0549927 0.0447971 0.0550686 0.052799 0.0505288 0.0567555 0.0505356 0.0810947 0.0611305 0.0724734 0.0634126 0.0661892 0.0693773
70 3 O -2.16532 12.9296 5.78248 -1.2 1 0.00943186 0.0132313 0.025203 0.0219239 0.0215144 0.0293941 0.0463022 0.0538916 0.0359812 0.0376178 0.0557993 0.0357587 0.0603892 0.0625853 0.0859073 0.0708437 0.069549 0.0651389 0.0710285 0.076891
71 1 Mg 1.29891 11.8725 2.9896 1.2 1 0.0052333 0.0172797 0.0173718 0.0194291 0.0174052 0.037056 0.036669 0.0497797 0.0356578 0.060615 0.0352541 0.0577517 0.0263756 0.0691073 0.0469813 0.0809836 0.0473556 0.0909708 0.0499518 0.0871889
72 1 Mg 4.10033 11.8312 4.4844 1.2 1 0.0146944 0.0223567 0.0165669 0.0286768 0.0321482 0.0284023 0.0434752 0.0359599 0.0472948 0.0499469 0.0568476 0.0533501 0.0696377 0.068781 0.0542105 0.0703838 0.0697169 0.095266 0.0715224 0.079229
73 2 Si 2.27333 13.896 4.4844 2.4 1 0.0286452 0.00984676 0.0208976 0.0302287 0.0295191 0.0328787 0.0658316 0.0294608 0.0518775 0.0578803 0.0540513 0.0595232 0.0627184 0.0584583 0.0757996 0.0668003 0.049284 0.0936044 0.0555872 0.0604655
74 3 O 2.28634 15.5093 4.4844 -1.2 1 0.0238743 0.0124528 0.0138252 0.0188991 0.0238032 0.0225309 0.041493 0.0611917 0.0434229 0.0516347 0.038895 0.0735073 0.0458863 0.0638851 0.0704505 0.0699428 0.0464303 0.0704998 0.0622553 0.0721349
75 3 O -4.34533 12.922 4.4844 -1.2 1 0.0128659 0.0200772 0.0235982 0.0177677 0.0233487 0.0519091 0.0345351 0.0499114 0.0450121 0.0525366 0.04065 0.0513277 0.0502279 0.0689357 0.101283 0.0635737 0.0810588 0.0526087 0.0748022 0.0711724
76 3 O 2.98455 13.1899 3.18632 -1.2 1 0.0183095 0.0139028 0.0162815 0.0126189 0.0209085 0.0423846 0.0391394 0.0588562 0.0452143 0.0550219 0.0564601 0.0500574 0.0514047 0.0523681 0.0817816 0.0601489 0.0684128 0.0579832 0.0644366 0.0719383
77 1 Mg 1.34779 11.8725 0 1.2 1 0.0202633 0.0110263 0.0248478 0.0142001 0.0286428 0.0216392 0.0494206 0.0345225 0.0579835 0.0511442 0.0504177 0.0365218 0.0640112 0.0501577 0.0716011 0.0638731 0.0604913 0.0699688 0.0863934 0.0588621
78 3 O 2.93934 13.1899 5.78248 -1.2 1 0.0139823 0.0143675 0.0257062 0.0235398 0.0184616 0.0261634 0.0497777 0.0458957 0.0398222 0.0406154 0.0608741 0.0385235 0.0546329 0.0564117 0.0860818 0.0628775 0.0685065 0.061677 0.0641788 0.0771846
79 1 Mg -1.50344 11.9138 1.4948 1.2 1 0.0174238 0.0171666 0.0236505 0.0216452 0.0123968 0.0365163 0.0384411 0.0419045 0.0413514 0.0595001 0.0365885 0.0652985 0.0496432 0.0648825 0.0721461 0.0688063 0.0647129 0.0833659 0.0759649 0.0784111
80 2 Si 0.326006 9.84894 1.4948 2.4 1 0.0281056 0.0177931 0.0269 0.0295025 0.016957 0.0380486 0.0434104 0.0400776 0.0440598 0.0549071 0.0395826 0.0606536 0.0556537 0.0661297 0.0608776 0.0626431 0.0700457 0.0802545 0.061308 0.0687866
81 3 O 0.317364 8.23571 1.4948 -1.2 1 0.0224693 0.0125022 0.0225345 0.0240076 0.0199278 0.0451926 0.0430632 0.0499618 0.0349051 0.0544889 0.0439346 0.0658171 0.0571761 0.0597456 0.0676371 0.0663696 0.07138 0.0536974 0.0733587 0.0744771
82 3 O 6.94307 10.823 1.4948 -1.2 1 0.0401912 0.0166697 0.0227979 0.0119788 0.0372827 0.0310577 0.0388905 0.0543311 0.032911 0.0465007 0.0509876 0.0529156 0.0505504 0.0729285 0.0711664 0.0784161 0.0611569 0.072897 0.0585698 0.078587
83 3 O -0.343122 10.5551 0.196716 -1.2 1 0.0309048 0.0175843 0.0217615 0.0209001 0.0297535 0.0412834 0.0512559 0.0396247 0.0387255 0.050499 0.0370913 0.0375895 0.0614101 0.0608001 0.0688632 0.0707499 0.0809557 0.0542302 0.0700882 0.0693135
84 3 O -0.385966 10.5551 2.79288 -1.2 1 0.0219631 0.0202206 0.0320713 0.0123828 0.033632 0.0415534 0.0449581 0.0468463 0.0430202 0.04042 0.0526016 0.0492353 0.0491937 0.0539174 0.0701691 0.0724493 0.0684241 0.0611064 0.0673437 0.0786861
85 1 Mg 6.49448 14.247 0 1.2 1 0.0225798 0.00996199 0.0187095 0.0172481 0.0285743 0.0233949 0.0478072 0.0331911 0.0591649 0.0481664 0.0510899 0.0374131 0.0628017 0.0529449 0.0710921 0.065296 0.0643706 0.0708559 0.0847949 0.0704452
86 1 Mg 3.74457 18.9547 1.4948 1.2 1 0.00878592 0.0159704 0.0192373 0.0175095 0.0275197 0.0297939 0.0325392 0.0402508 0.0388533 0.0573503 0.041279 0.0680315 0.0518322 0.066914 0.0719849 0.0697057 0.060107 0.0839662 0.0795169 0.0767322
87 2 Si 5.55495 16.2705 1.4948 2.4 1 0.0120653 0.0202495 0.0219365 0.026823 0.0183936 0.0426103 0.036463 0.0421465 0.045228 0.0516167 0.0436994 0.0616378 0.0543659 0.063625 0.0696108 0.059158 0.0727954 0.0797602 0.0601163 0.0711977
88 3 O 5.6115 17.8838 1.4948 -1.2 1 0.0269235 0.0184125 0.0234658 0.0257449 0.0189202 0.0436625 0.0453038 0.060711 0.0370947 0.0494743 0.0383388 0.0668037 0.0518077 0.0565072 0.0648503 0.0565735 0.0662979 0.0615345 0.0633084 0.0689243
89 3 O 1.93416 15.2965 1.4948 -1.2 1 0.0370659 0.0149239 0.0222246 0.0132143 0.0350864 0.0301509 0.0362583 0.0588005 0.0427016 0.0465544 0.0486777 0.0506355 0.0470153 0.0741536 0.080946 0.0777488 0.0591195 0.0740639 0.062365 0.0775649
90 3 O 4.85636 15.5644 0.196716 -1.2 1 0.0260449 0.0108242 0.0221477 0.0195008 0.0238044 0.0514929 0.0505302 0.0401822 0.0409703 0.046576 0.0365237 0.0337848 0.0641098 0.0547025 0.0671238 0.0683806 0.0746943 0.0632587 0.0719421 0.0674731
91 1 Mg 6.44662 14.247 2.9896 1.2 1 0.0108516 0.0176956 0.0232188 0.0224724 0.0182764 0.0369814 0.0379689 0.0543257 0.0369431 0.058014 0.0348827 0.0627074 0.0270898 0.0668685 0.0472169 0.0770825 0.0448014 0.0914049 0.0414937 0.0915086
92 3 O 4.81537 15.5644 2.79288 -1.2 1 0.0149264 0.00700707 0.027274 0.0136701 0.0269894 0.0385275 0.0462619 0.0474153 0.0456503 0.0383763 0.0521229 0.040387 0.0526775 0.0580576 0.0746664 0.068007 0.0747217 0.0537518 0.0718527 0.0767814
93 1 Mg -0.948271 14.2883 4.4844 1.2 1 0.0172589 0.00900682 0.0151539 0.0237069 0.0282567 0.0270451 0.0344828 0.0339357 0.0466993 0.0501472 0.0580725 0.0569295 0.0646614 0.0675527 0.059183 0.0715829 0.0690368 0.0956132 0.0729235 0.0788981
94 2 Si -2.75928 16.9724 4.4844 2.4 1 0.0162222 0.0131479 0.0203466 0.0263066 0.0311437 0.0415454 0.0571862 0.0329198 0.0552871 0.0629614 0.0548685 0.0633364 0.0593706 0.0592071 0.0797946 0.0698248 0.0489676 0.0946777 0.053033 0.060957
95 3 O -2.81617 15.3592 4.4844 -1.2 1 0.0161524 0.0121617 0.013526 0.0242148 0.0284392 0.0251692 0.0417979 0.0674856 0.0473476 0.0521177 0.0365045 0.0722549 0.0484729 0.0580324 0.0664235 0.0702348 0.053046 0.0716999 0.0619113 0.0778447
96 3 O 0.862762 17.9465 4.4844 -1.2 1 0.022232 0.0238363 0.0219825 0.0138251 0.0211827 0.0462689 0.0357843 0.0512215 0.047339 0.0536459 0.0415174 0.0476072 0.0430893 0.0714171 0.102794 0.0584761 0.0710277 0.0536649 0.0696431 0.0678368
97 3 O -2.0185 17.6786 3.18632 -1.2 1 0.0185496 0.00816219 0.0196148 0.0182085 0.0211372 0.0360683 0.0450736 0.0551335 0.0414694 0.0536438 0.0551351 0.0479716 0.0572274 0.050804 0.0815534 0.0612909 0.0724133 0.0651978 0.0640288 0.0692446
98 3 O -2.06164 17.6786 5.78248 -1.2 1 0.0129119 0.00794982 0.0236119 0.021533 0.0193049 0.0277006 0.0499313 0.0466532 0.0387476 0.0385883 0.0587524 0.040345 0.0550785 0.0687417 0.0791043 0.0705074 0.072784 0.0597867 0.0721328 0.0726949
99 1 Mg 1.39817 16.6215 2.9896 1.2 1 0.00958266 0.0158878 0.0195857 0.0221514 0.020684 0.0349553 0.0387931 0.0539924 0.0370695 0.0611251 0.0377186 0.0582125 0.0254754 0.0677934 0.0467214 0.0798924 0.0459149 0.090035 0.0436577 0.0889596
100 1 Mg 4.20062 16.5802 4.4844 1.2 1 0.0169708 0.0112262 0.0160947 0.0252696 0.0259212 0.0306637 0.0382833 0.035825 0.0479998 0.051759 0.0557786 0.0552698 0.0676745 0.0683073 0.0513028 0.0736408 0.0671009 0.0987862 0.073503 0.0813262
101 2 Si 2.37796 18.645 4.4844 2.4 1 0.0278603 0.00593948 0.02217 0.029152 0.0261585 0.0357588 0.0592751 0.0331759 0.0530894 0.0610133 0.0509444 0.0635444 0.0623625 0.0589692 0.0769162 0.069335 0.0482201 0.096626 0.0537571 0.0549311
102 3 O 2.39434 20.2583 4.4844 -1.2 1 0.0252605 0.00958478 0.0115579 0.0181151 0.0234309 0.0251371 0.03403 0.058917 0.0441555 0.0463666 0.0411011 0.0740832 0.049999 0.0657345 0.0702034 0.0684311 0.049253 0.0692742 0.0648668 0.0776249
103 3 O -4.24274 17.671 4.4844 -1.2 1 0.0123825 0.0216329 0.0198627 0.0201846 0.0199572 0.0512924 0.0330118 0.0486746 0.0441742 0.0555225 0.0407434 0.0528264 0.0497303 0.0700427 0.0992059 0.0639648 0.0760758 0.0548823 0.0754627 0.0724672
104 3 O 3.08659 17.9389 3.18632 -1.2 1 0.0286285 0.0169102 0.0218857 0.00983307 0.0197946 0.036328 0.040176 0.0538527 0.0441271 0.0516489 0.056436 0.0493293 0.0530945 0.0491064 0.0809052 0.0598784 0.0700182 0.0604422 0.064263 0.0680127
105 1 Mg 1.44478 16.6215 0 1.2 1 0.00936097 0.0123292 0.0215619 0.013016 0.0264619 0.0320164 0.0477272 0.0357599 0.0506534 0.0503381 0.0521448 0.0394191 0.0591432 0.0499405 0.069485 0.0664896 0.0600467 0.0681429 0.088835 0.0639876
106 3 O 3.0436 17.9389 5.78248 -1.2 1 0.0182659 0.0124313 0.0227179 0.0202447 0.0177064 0.0221749 0.0489224 0.0450186 0.0381474 0.0395476 0.0600761 0.039356 0.0534676 0.0574987 0.0856813 0.0658194 0.0683354 0.062777 0.0665883 0.0769127
107 1 Mg -1.40524 16.6628 1.4948 1.2 1 0.0114416 0.0137866 0.0262653 0.0202085 0.0183112 0.0352436 0.0359791 0.0423426 0.0403991 0.0590633 0.0405099 0.0654165 0.0551939 0.0643207 0.0725756 0.0708413 0.0633318 0.0780895 0.0789599 0.075938
108 2 Si 0.420358 14.5979 1.4948 2.4 1 0.0225583 0.0193966 0.0289319 0.0258743 0.0174814 0.0386969 0.0389848 0.041752 0.0438809 0.0547915 0.0428074 0.0613335 0.0581463 0.0636682 0.0672423 0.0589193 0.0725216 0.076801 0.0630658 0.0716341
109 3 O 0.408732 12.9847 1.4948 -1.2 1 0.0222879 0.0154695 0.0229873 0.0254952 0.0170164 0.047198 0.0437258 0.0539498 0.0362558 0.0528555 0.0423441 0.069168 0.0532896 0.0570183 0.0660213 0.0637015 0.0710243 0.0549972 0.0684777 0.0715853
110 3 O 7.03923 15.572 1.4948 -1.2 1 0.0293275 0.016852 0.0217581 0.0126813 0.0361569 0.0335903 0.0367587 0.0564632 0.038138 0.0442436 0.0510633 0.0533677 0.0481868 0.0743658 0.0782812 0.0779809 0.0644467 0.0695465 0.062285 0.0775012
111 3 O -0.248332 15.3041 0.196716 -1.2 1 0.0190473 0.0132041 0.0214068 0.0184183 0.0251338 0.0464057 0.0487039 0.0429478 0.0392808 0.0447991 0.0375274 0.030661 0.0607819 0.0531466 0.0701358 0.0638538 0.0828341 0.0508475 0.07006 0.0716544
112 3 O -0.289436 15.3041 2.79288 -1.2 1 0.0182286 0.0151403 0.027001 0.0100803 0.0310846 0.0363249 0.0435821 0.0477149 0.0436697 0.0396844 0.0535973 0.0501674 0.051278 0.0538736 0.0720068 0.068648 0.0712068 0.0545927 0.0687844 0.0772408
113 1 Mg 6.59566 18.996 0 1.2 1 0.0135818 0.0119112 0.0198073 0.0144637 0.0255471 0.0316208 0.0431345 0.0331059 0.0539662 0.0495829 0.0541944 0.0388255 0.0516315 0.0522198 0.0714529 0.0645978 0.0644544 0.064592 0.0863997 0.0700084
114 1 Mg 3.85574 23.7037 1.4948 1.2 1 0.0131013 0.0138389 0.0214183 0.0156643 0.02248 0.0286329 0.0312529 0.0372116 0.0390635 0.0596932 0.0479241 0.0625589 0.0503564 0.0655333 0.0618664 0.0734182 0.0664854 0.0795636 0.0802838 0.0763352
115 2 Si 5.66125 21.0195 1.4948 2.4 1 0.00815578 0.0244226 0.0232629 0.0273741 0.0191658 0.0463645 0.0338904 0.0413658 0.0490132 0.0541592 0.0453069 0.0606206 0.0558371 0.0597918 0.0715579 0.0605818 0.0739789 0.0774047 0.0649838 0.075779
116 3 O 5.72074 22.6328 1.4948 -1.2 1 0.0279644 0.0194224 0.018128 0.0230845 0.0189722 0.0447632 0.0455491 0.0619546 0.0383564 0.0522167 0.0331508 0.0695295 0.0492426 0.0535315 0.067526 0.0551796 0.0653512 0.0677934 0.0567995 0.071229
117 3 O 2.03867 20.0455 1.4948 -1.2 1 0.0300021 0.0163594 0.026723 0.0158312 0.0339542 0.0305284 0.0358452 0.055601 0.0443461 0.0431592 0.0505755 0.0510871 0.0477275 0.0730114 0.0844747 0.0727687 0.0617248 0.0678285 0.0634248 0.0730286
118 3 O 4.96004 20.3134 0.196716 -1.2 1 0.0211882 0.0103888 0.0231082 0.0184837 0.0230904 0.0448319 0.0438382 0.0476251 0.0387347 0.0393232 0.0414261 0.0346609 0.0647838 0.0479291 0.0694391 0.0729393 0.0711021 0.0578178 0.0701091 0.0724747
119 1 Mg 6.55057 18.996 2.9896 1.2 1 0.0105733 0.0151945 0.0147464 0.0178455 0.0206083 0.0333764 0.0375954 0.0557174 0.0340018 0.0581236 0.0370901 0.0605356 0.0261034 0.0710409 0.0445521 0.0720674 0.0442071 0.0958606 0.0419756 0.0944068
120 3 O 4.92172 20.3134 2.79288 -1.2 1 0.0130572 0.0145562 0.0264655 0.0129923 0.0311306 0.0371948 0.0463156 0.0455328 0.0455883 0.0441472 0.0516455 0.0428861 0.0528174 0.0513483 0.075431 0.0679276 0.0749613 0.0479726 0.06981 0.0730683
121 1 Mg -0.84282 19.0373 4.4844 1.2 1 0.00753066 0.0101139 0.0116445 0.0244089 0.0268988 0.0261284 0.0368756 0.0320817 0.0476103 0.0506302 0.0595376 0.0547657 0.0677 0.0686343 0.0571955 0.0736799 0.0688182 0.096346 0.0706208 0.0830436
122 2 Si -2.64823 21.7214 4.4844 2.4 1 0.0119087 0.0153419 0.0152947 0.0273281 0.0261868 0.0425425 0.055365 0.0297863 0.0570672 0.0629552 0.05252 0.059148 0.0589176 0.0555596 0.0781584 0.0683426 0.0504363 0.0936592 0.0546801 0.0647758
123 3 O -2.70847 20.1082 4.4844 -1.2 1 0.0117537 0.019229 0.0143076 0.0283965 0.0230846 0.0253326 0.0376882 0.0641099 0.0435776 0.047154 0.0398834 0.0729309 0.0498699 0.0591386 0.0693643 0.0631433 0.0529803 0.0718553 0.0669349 0.0752883
124 3 O 0.97581 22.6955 4.4844 -1.2 1 0.0219746 0.0274507 0.0238048 0.0191696 0.018701 0.0419881 0.0328276 0.0457041 0.0434383 0.0526882 0.0428572 0.0432681 0.0489027 0.0699612 0.105979 0.0529541 0.0653175 0.0593587 0.0694539 0.0694819
125 3 O -1.9076 22.4276 3.18632 -1.2 1 0.025228 0.0114496 0.020133 0.0164397 0.0147927 0.0346112 0.0434995 0.0548472 0.0381826 0.0499677 0.0537831 0.0495816 0.0548598 0.04678 0.0802866 0.0577013 0.0697932 0.0677659 0.0622314 0.0670753
126 3 O -1.9475 22.4276 5.78248 -1.2 1 0.0112884 0.00906127 0.0257262 0.0235025 0.0146275 0.0264151 0.0517628 0.0421826 0.041527 0.0360716 0.0564013 0.0362262 0.0557622 0.0623761 0.08229 0.0701956 0.0696221 0.0644535 0.070553 0.0757104