ITEM: TIMESTEP
28700
ITEM: NUMBER OF ATOMS
10500
ITEM: BOX BOUNDS xy xz yz pp pp pp
0	15.2977	5.09925
0	118.725	0
0	89.688	0
ITEM: ATOMS id type element xu yu zu q Q_1 Q_2 Q_3 Q_4 Q_5 Q_6 Q_7 Q_8 Q_9 Q_10 Q_11 Q_12 Q_13 Q_14 Q_15 Q_16 Q_17 Q_18 Q_19 Q_20 Q_21
1 1 Mg 6.2404 -6.37941e-06 0 1.2 1 0.0131856 0.0408119 0.029752 0.0358467 0.0332017 0.0412839 0.0354943 0.068613 0.0388119 0.0712596 0.0340157 0.0593737 0.0461986 0.068369 0.0499338 0.092196 0.0517564 0.0838174 0.0507492 0.102374
2 1 Mg 3.46349 4.70768 1.4948 1.2 1 0.0129728 0.0172432 0.0241027 0.0230867 0.020046 0.0420065 0.0432188 0.0402107 0.0462797 0.0562884 0.0427632 0.0704681 0.0581542 0.0707711 0.0746649 0.0633085 0.0680846 0.0863232 0.0721731 0.0824215
3 2 Si 5.2885 2.02354 1.4948 2.4 1 0.0198949 0.0221687 0.0337979 0.0284156 0.0300612 0.0374701 0.0537905 0.0325898 0.0439049 0.0538215 0.0544746 0.0619071 0.0549425 0.0650753 0.0679871 0.0799026 0.0707812 0.0644534 0.0641805 0.0728165
4 3 O 5.33628 3.63678 1.4948 -1.2 1 0.00929707 0.0140557 0.026744 0.0258403 0.0184088 0.0390429 0.0419148 0.0602083 0.0354942 0.0402891 0.0546648 0.0509681 0.0676016 0.0575048 0.058879 0.0651029 0.0603571 0.061488 0.0713471 0.0744319
5 3 O 1.67294 1.04952 1.4948 -1.2 1 0.0162795 0.0217955 0.0232345 0.0357174 0.0296635 0.0387095 0.0342192 0.0610466 0.0347995 0.0595887 0.0438639 0.0510581 0.0717667 0.0592484 0.0762672 0.0693375 0.0625611 0.0643289 0.0793912 0.0602455
6 3 O 4.59532 1.31737 0.196716 -1.2 1 0.0259459 0.0221742 0.0575794 0.0251633 0.0334493 0.0486291 0.03847 0.0472366 0.0338944 0.0393286 0.0388444 0.0506904 0.0543217 0.0568935 0.0637489 0.0699677 0.0618386 0.0714657 0.0591895 0.0705993
7 1 Mg 6.18956 -6.37941e-06 2.9896 1.2 1 0.0153795 0.0286748 0.0154946 0.0219299 0.0361106 0.0449023 0.0504613 0.0431492 0.0483942 0.0444748 0.038896 0.0570022 0.0384334 0.0559123 0.0592099 0.0790661 0.056752 0.0681079 0.0595425 0.0713952
8 3 O 4.55118 1.31737 2.79288 -1.2 1 0.0211528 0.0247365 0.0370327 0.0174056 0.0285056 0.0445723 0.0437744 0.0470309 0.0430542 0.0538784 0.0535751 0.0491882 0.0485477 0.0659988 0.0548626 0.0702218 0.0640118 0.0671814 0.0648546 0.0713846
9 1 Mg -1.20682 0.0413099 4.4844 1.2 1 0.0141887 0.0256481 0.019211 0.0273473 0.0361582 0.039554 0.0317576 0.0527329 0.0532401 0.0394897 0.0497142 0.0616664 0.0642432 0.0577358 0.0740748 0.0608846 0.0835756 0.073425 0.0629923 0.055924
10 2 Si -3.0337 2.72544 4.4844 2.4 1 0.0330036 0.0152874 0.0221908 0.0176699 0.0309626 0.0371604 0.0625025 0.0336819 0.0612103 0.050239 0.0472107 0.0605349 0.0584107 0.0760457 0.0554297 0.0611486 0.0716319 0.0802302 0.0721056 0.0614156
11 3 O -3.08099 1.11221 4.4844 -1.2 1 0.0143637 0.0215537 0.0263334 0.0238188 0.0402393 0.0259461 0.049613 0.0446933 0.0416842 0.0390651 0.0393848 0.0715731 0.054158 0.0506923 0.0542421 0.0671887 0.0554156 0.0820425 0.0714703 0.0758529
12 3 O 0.582463 3.69946 4.4844 -1.2 1 0.00739972 0.0139874 0.0332595 0.0309745 0.0266232 0.0611798 0.0317484 0.0549196 0.045561 0.0399779 0.0545499 0.0564523 0.0584667 0.0715144 0.0996264 0.071401 0.0814297 0.0391013 0.0700967 0.0679796
13 3 O -2.29524 3.43162 3.18632 -1.2 1 0.0123499 0.020227 0.0254371 0.031059 0.0194971 0.0502901 0.0514693 0.049549 0.0415379 0.0520572 0.0586188 0.0540057 0.041153 0.0516379 0.0585868 0.0652484 0.0663773 0.0632551 0.0634022 0.0728096
14 3 O -2.34216 3.43162 5.78248 -1.2 1 0.00985309 0.0160232 0.0255452 0.0275669 0.0295847 0.037628 0.054821 0.0480077 0.0415355 0.0551201 0.0538249 0.0500909 0.0561694 0.0552 0.075602 0.0731306 0.0640076 0.0667974 0.0717692 0.0732304
15 1 Mg 1.12778 2.37449 2.9896 1.2 1 0.0155439 0.0400675 0.0166768 0.0237864 0.0252513 0.0429982 0.0407767 0.0508926 0.0366441 0.0608546 0.0371625 0.0584402 0.0404477 0.0677674 0.0636692 0.0705074 0.0680769 0.0826997 0.0462697 0.08712
16 1 Mg 3.92855 2.33318 4.4844 1.2 1 0.026232 0.0191463 0.0231313 0.0290723 0.0435572 0.0272006 0.0386912 0.0399107 0.0463501 0.0690466 0.0506492 0.0604293 0.0496247 0.0630063 0.0560621 0.0749576 0.0614825 0.0942908 0.0742271 0.0844411
17 2 Si 2.09341 4.39804 4.4844 2.4 1 0.0182194 0.0212853 0.0327107 0.0160036 0.0393719 0.0265724 0.0629895 0.0224728 0.0431962 0.0496872 0.0639937 0.0614349 0.0662389 0.0593142 0.0734696 0.0771314 0.0739915 0.0823298 0.0486803 0.0649783
18 3 O 2.09991 6.01128 4.4844 -1.2 1 0.0140974 0.0087244 0.0156975 0.0179621 0.0329839 0.0232218 0.0509149 0.0508624 0.0481686 0.0455403 0.047931 0.0654061 0.0431804 0.0597363 0.0651272 0.0703938 0.0462283 0.0781211 0.0606731 0.0717376
19 3 O -4.52137 3.42402 4.4844 -1.2 1 0.0177911 0.0312283 0.0374935 0.0203115 0.0285518 0.0556556 0.0409953 0.0473227 0.0543215 0.058712 0.0326875 0.0592504 0.0539977 0.0548051 0.0895379 0.0726027 0.0787005 0.0580156 0.0755503 0.0542568
20 3 O 2.80834 3.69187 3.18632 -1.2 1 0.00968434 0.0175517 0.02042 0.0248177 0.0219483 0.0382359 0.0360659 0.0501822 0.0447028 0.0585186 0.0674535 0.0522744 0.0418138 0.0647057 0.0706808 0.0729782 0.0613055 0.0580388 0.0698329 0.0715427
21 1 Mg 1.17857 2.37449 0 1.2 1 0.0139636 0.0347102 0.0280475 0.028897 0.0383604 0.0397281 0.0452153 0.0600278 0.0368055 0.0489091 0.0511117 0.0422957 0.0419275 0.0683525 0.0553679 0.0650522 0.0631159 0.0807407 0.0586052 0.0729507
22 3 O 2.76143 3.69187 5.78248 -1.2 1 0.0100957 0.0193482 0.0188351 0.0263599 0.019679 0.0339485 0.0408804 0.0482183 0.0353414 0.045303 0.0542428 0.0448968 0.0546592 0.0803856 0.0742988 0.0666222 0.0690138 0.0586052 0.0683255 0.0763943
23 1 Mg -1.67381 2.41581 1.4948 1.2 1 0.0101275 0.00789559 0.0392754 0.035318 0.0319139 0.0438576 0.058887 0.0391511 0.0520038 0.0416552 0.0438753 0.0568112 0.0541484 0.0641711 0.0606449 0.0634103 0.0832974 0.0780222 0.0660969 0.0741147
24 2 Si 0.16286 0.350945 1.4948 2.4 1 0.0154009 0.0355804 0.0300082 0.0245336 0.0365875 0.0357213 0.0565236 0.0486461 0.0534608 0.0492633 0.0402602 0.0536584 0.0742996 0.0705685 0.0581139 0.0732112 0.069502 0.0639461 0.0730152 0.0646659
25 3 O 0.15972 -1.26229 1.4948 -1.2 1 0.00929589 0.0152866 0.0397801 0.0210747 0.0375256 0.0357416 0.0454796 0.0567096 0.0468494 0.0515605 0.055486 0.0553603 0.0631516 0.0668102 0.0496162 0.0592614 0.0694558 0.066456 0.0622958 0.0738919
26 3 O 6.77654 1.32496 1.4948 -1.2 1 0.0115247 0.0276663 0.0266189 0.0275936 0.0371629 0.0544168 0.0341876 0.064826 0.0476345 0.0467028 0.0443004 0.0522899 0.0525635 0.0595903 0.0686445 0.0712986 0.0843702 0.0629127 0.0598687 0.0744824
27 3 O -0.508028 1.05712 0.196716 -1.2 1 0.0247437 0.0190912 0.0296589 0.0205123 0.0292639 0.0534573 0.0438113 0.0446778 0.0472225 0.0483016 0.05 0.0482397 0.049034 0.0633884 0.0551489 0.0630856 0.0635059 0.0589016 0.0718382 0.071696
28 3 O -0.552171 1.05712 2.79288 -1.2 1 0.0379435 0.0317971 0.0320288 0.0346982 0.0241189 0.0405864 0.0414971 0.049643 0.0415063 0.039744 0.0496565 0.0488897 0.0574327 0.0612247 0.0656876 0.077273 0.0746294 0.0518894 0.0698737 0.0719207
29 1 Mg 6.31713 4.74899 0 1.2 1 0.0270001 0.0296527 0.029814 0.0358268 0.0321333 0.0255107 0.0410435 0.0570156 0.0587727 0.0494515 0.051055 0.0393562 0.0587111 0.0619567 0.0665374 0.0635311 0.0661605 0.074267 0.0703104 0.0697151
30 1 Mg 3.54847 9.45668 1.4948 1.2 1 0.017074 0.0160246 0.0175704 0.0186887 0.0187848 0.0384607 0.0382551 0.042206 0.0452434 0.0563261 0.0379917 0.0693926 0.0529897 0.065232 0.0746609 0.0623028 0.0661287 0.0876274 0.0733632 0.0797224
31 2 Si 5.36879 6.77254 1.4948 2.4 1 0.0260183 0.0295286 0.0212824 0.0265073 0.0245814 0.0350294 0.0445637 0.0346428 0.0459874 0.0587848 0.0425614 0.0575852 0.0527183 0.067648 0.065393 0.0748608 0.0672586 0.0781134 0.0569379 0.0684033
32 3 O 5.41937 8.38578 1.4948 -1.2 1 0.0215498 0.0114738 0.0235211 0.0296278 0.0176439 0.0432531 0.0440661 0.0574052 0.0364633 0.0508572 0.0474872 0.0639501 0.0550873 0.054075 0.0660455 0.0606829 0.0725303 0.0559924 0.0733384 0.0730031
33 3 O 1.75158 5.79852 1.4948 -1.2 1 0.0284988 0.0122544 0.0223348 0.0264654 0.0441123 0.0306154 0.0392502 0.0572788 0.0407107 0.0527696 0.049471 0.050752 0.0473483 0.0708676 0.0785348 0.0782844 0.0600751 0.0752148 0.0600357 0.0762566
34 3 O 4.67421 6.06637 0.196716 -1.2 1 0.0146104 0.0264952 0.0315769 0.0243649 0.03204 0.0377874 0.0345644 0.032228 0.0448426 0.0560253 0.0392646 0.0443316 0.0669606 0.0563529 0.0675705 0.0714095 0.0714016 0.0657267 0.0632494 0.068318
35 1 Mg 6.26654 4.74899 2.9896 1.2 1 0.0168628 0.028984 0.0254863 0.0420584 0.0246859 0.0439039 0.0484947 0.0469068 0.0359297 0.0632069 0.0360184 0.060862 0.0369151 0.0632039 0.0518489 0.07976 0.0557934 0.082501 0.0463039 0.089787
36 3 O 4.63043 6.06637 2.79288 -1.2 1 0.0213417 0.0199464 0.040521 0.0194045 0.0317213 0.0368105 0.0431543 0.0485692 0.0449424 0.0362844 0.049349 0.0515752 0.0556943 0.0638749 0.061121 0.0728569 0.0654104 0.0689422 0.0682593 0.08601
37 1 Mg -1.12976 4.79031 4.4844 1.2 1 0.0230007 0.0260568 0.0137282 0.0146855 0.0359708 0.038707 0.0484734 0.0481764 0.0428875 0.0446142 0.0546602 0.0614856 0.0749811 0.0730949 0.0613662 0.0681833 0.0720627 0.0935959 0.0692256 0.0808063
38 2 Si -2.9517 7.47444 4.4844 2.4 1 0.0239386 0.0137286 0.0182834 0.0261419 0.0304977 0.0429194 0.0621452 0.0277483 0.0544165 0.0576765 0.0514604 0.0583755 0.0623603 0.0575341 0.0797745 0.0725192 0.0528652 0.0883712 0.056519 0.0597694
39 3 O -3.00198 5.86121 4.4844 -1.2 1 0.0109338 0.0216426 0.0302803 0.0262847 0.0290127 0.0337702 0.0532351 0.0624899 0.040016 0.0524603 0.0458478 0.0715557 0.0602992 0.0544937 0.0654876 0.0695178 0.0502197 0.0762575 0.061826 0.0770046
40 3 O 0.666315 8.44846 4.4844 -1.2 1 0.0161812 0.0198275 0.0256809 0.0164097 0.0213775 0.0524622 0.0312339 0.0501773 0.0446648 0.048493 0.0415345 0.0510054 0.0489131 0.0756136 0.0992898 0.0673436 0.0776774 0.0498951 0.0709007 0.0722797
41 3 O -2.21213 8.18062 3.18632 -1.2 1 0.0181711 0.0152521 0.0158873 0.0152468 0.0167138 0.0356142 0.0460538 0.0553795 0.045883 0.0534376 0.052895 0.0525272 0.0525841 0.0463132 0.0781575 0.0637382 0.0705285 0.0588266 0.0674566 0.0714979
42 3 O -2.25864 8.18062 5.78248 -1.2 1 0.0181341 0.0133486 0.0193834 0.0203812 0.0198628 0.0284357 0.0522482 0.0486809 0.0414343 0.0412989 0.0549215 0.0375975 0.0579962 0.0601339 0.0844883 0.0684772 0.0689978 0.0648024 0.0688896 0.0754292
43 1 Mg 1.20893 7.12349 2.9896 1.2 1 0.00782352 0.0223484 0.0189723 0.0252038 0.0240425 0.0396081 0.0426357 0.0467712 0.0343404 0.0653665 0.0388804 0.066236 0.0364271 0.0585127 0.0519924 0.0797292 0.0506092 0.0841144 0.0480867 0.0873655
44 1 Mg 4.00982 7.08218 4.4844 1.2 1 0.021673 0.0144889 0.0230444 0.0358911 0.0293771 0.0372358 0.044182 0.0372951 0.0460503 0.0516667 0.0571824 0.0554702 0.0713267 0.0743855 0.0558026 0.0681043 0.0636812 0.0989918 0.0736202 0.0802179
45 2 Si 2.17861 9.14704 4.4844 2.4 1 0.0266143 0.0118359 0.0242925 0.0212178 0.0298407 0.0333092 0.0622513 0.0250401 0.0505772 0.0542499 0.0555988 0.0589731 0.0624136 0.0568215 0.0791533 0.0700775 0.048675 0.0932194 0.0541488 0.0572752
46 3 O 2.18828 10.7603 4.4844 -1.2 1 0.0202884 0.012032 0.00862151 0.0168995 0.0274714 0.0211114 0.044862 0.0611946 0.0399498 0.0525446 0.0398567 0.0720375 0.0451713 0.0623067 0.0683736 0.0741488 0.0471063 0.0715593 0.0643646 0.0726585
47 3 O -4.43805 8.17302 4.4844 -1.2 1 0.0165902 0.0229859 0.0157657 0.0147158 0.0228475 0.0545866 0.0353749 0.0487786 0.0426992 0.0491236 0.0353453 0.0538584 0.0535458 0.0713109 0.0992936 0.0674692 0.0796375 0.0547088 0.0733574 0.0762566
48 3 O 2.89193 8.44087 3.18632 -1.2 1 0.0207583 0.0151923 0.0205169 0.0121793 0.0202923 0.0400619 0.0331483 0.0554671 0.0400083 0.0543308 0.0572303 0.0500783 0.0508622 0.0516462 0.0796076 0.0628364 0.0721102 0.059193 0.0654464 0.073228
49 1 Mg 1.25915 7.12349 0 1.2 1 0.0184265 0.0175617 0.0281739 0.0150684 0.0319774 0.0249781 0.0505223 0.0398613 0.0561245 0.0496316 0.0540064 0.0423796 0.071227 0.05099 0.0685722 0.0704311 0.0650304 0.0701961 0.0795687 0.058477
50 3 O 2.84547 8.44087 5.78248 -1.2 1 0.0102297 0.0124186 0.0179398 0.0215131 0.0214279 0.0296021 0.044512 0.0484997 0.0384751 0.0405663 0.0578603 0.0423185 0.0577094 0.0627872 0.087391 0.0651477 0.0689843 0.0626552 0.0657411 0.0777462
51 1 Mg -1.59284 7.16481 1.4948 1.2 1 0.0072369 0.0200152 0.0192398 0.0226439 0.0153941 0.0380371 0.046492 0.0423593 0.0422784 0.0572648 0.0389027 0.0672342 0.0537421 0.0691993 0.0768462 0.0607236 0.0670548 0.0851677 0.0744283 0.0786404
52 2 Si 0.240329 5.09994 1.4948 2.4 1 0.0246545 0.0174177 0.015845 0.0434351 0.0271428 0.0405061 0.0467818 0.0533015 0.0553201 0.0487603 0.0455555 0.0581064 0.0588531 0.0676442 0.0655781 0.0664876 0.0638606 0.072745 0.0659606 0.0680121
53 3 O 0.234538 3.48671 1.4948 -1.2 1 0.0132222 0.0163478 0.0267137 0.0358015 0.0315264 0.0492355 0.0459507 0.0424226 0.0529024 0.0469012 0.0522499 0.0611782 0.0559645 0.0613178 0.0618194 0.0621934 0.0628335 0.056951 0.0760033 0.0737964
54 3 O 6.85564 6.07396 1.4948 -1.2 1 0.0324489 0.0195069 0.0345489 0.0276654 0.0372537 0.0404773 0.032375 0.0623773 0.0365519 0.0532274 0.0538951 0.0535309 0.055226 0.0733306 0.0697525 0.0771873 0.0666024 0.0721713 0.0531054 0.0853395
55 3 O -0.429565 5.80612 0.196716 -1.2 1 0.0341077 0.0200303 0.0155754 0.0209571 0.0410498 0.0375292 0.0538436 0.0451908 0.0462183 0.0560344 0.039814 0.042117 0.0539324 0.0600215 0.0598511 0.0683504 0.0699625 0.0612284 0.06508 0.0734272
56 3 O -0.473377 5.80612 2.79288 -1.2 1 0.0247578 0.0213042 0.0344271 0.0191716 0.0348644 0.046294 0.049163 0.0493979 0.0544979 0.0458208 0.0622109 0.0385455 0.0434875 0.0593583 0.0661456 0.070655 0.0650378 0.0685568 0.071885 0.080386
57 1 Mg 6.40169 9.49799 0 1.2 1 0.0127009 0.0117103 0.0212705 0.0141542 0.0304975 0.0211993 0.0521793 0.0355862 0.0586907 0.0490633 0.0498096 0.0354803 0.0673924 0.0528664 0.0712921 0.0674224 0.0650013 0.070872 0.0807745 0.0689549
58 1 Mg 3.64209 14.2057 1.4948 1.2 1 0.00621263 0.0139928 0.0176184 0.0196469 0.0219552 0.0341351 0.0367478 0.0429291 0.040202 0.0546707 0.0389108 0.0684244 0.0543165 0.0667648 0.0746613 0.06302 0.0642436 0.0832353 0.0749006 0.0781519
59 2 Si 5.45748 11.5215 1.4948 2.4 1 0.0119607 0.0218463 0.0233051 0.0247848 0.0179875 0.0402135 0.0397279 0.0400271 0.0436406 0.0546064 0.0424187 0.0605516 0.0532414 0.0661541 0.0694906 0.0635096 0.0709439 0.0818245 0.0579611 0.0665292
60 3 O 5.51101 13.1348 1.4948 -1.2 1 0.0241928 0.013264 0.0221692 0.029468 0.0197774 0.0432235 0.044643 0.0590892 0.0368302 0.0499873 0.0427938 0.0672635 0.0530475 0.0532604 0.0651558 0.0602171 0.0705883 0.0580988 0.0693993 0.0722593
61 3 O 1.83851 10.5475 1.4948 -1.2 1 0.0351949 0.0140946 0.0216161 0.0139802 0.0363602 0.0302943 0.0363385 0.0591513 0.0399826 0.0486276 0.049847 0.051555 0.0468509 0.0746507 0.0755801 0.0798397 0.0564148 0.0758663 0.0576569 0.0787987
62 3 O 4.7611 10.8154 0.196716 -1.2 1 0.0356684 0.0191777 0.0197537 0.0180924 0.0267416 0.0443532 0.0484204 0.0376619 0.038723 0.049354 0.0369268 0.0409454 0.060547 0.0609268 0.0649684 0.0713879 0.075554 0.0656521 0.0731244 0.0680729
63 1 Mg 6.35203 9.49799 2.9896 1.2 1 0.0129935 0.0172906 0.0252135 0.0209578 0.019501 0.0377037 0.0377483 0.0515852 0.0346778 0.0587709 0.031767 0.0643842 0.0283382 0.066381 0.0475294 0.0802783 0.045589 0.0900021 0.0456399 0.0908922
64 3 O 4.71833 10.8154 2.79288 -1.2 1 0.025437 0.0109156 0.0302273 0.0139262 0.0292975 0.0439402 0.043357 0.0455022 0.0432174 0.0367888 0.0535969 0.0413293 0.0529493 0.0583609 0.0737432 0.0685409 0.0723144 0.0607111 0.0706617 0.0793024
65 1 Mg -1.0438 9.53931 4.4844 1.2 1 0.0129491 0.0190807 0.0132359 0.0229193 0.0269924 0.03043 0.0388425 0.0351627 0.0456352 0.050935 0.0555921 0.0570211 0.0657546 0.0722953 0.0600342 0.0696922 0.071695 0.0963346 0.0706382 0.0841852
66 2 Si -2.8604 12.2234 4.4844 2.4 1 0.018783 0.0118124 0.0176464 0.0273667 0.0305249 0.042428 0.0583208 0.0320638 0.0530298 0.0638712 0.0548414 0.0632842 0.0596658 0.0571382 0.0793652 0.0724537 0.0502181 0.090196 0.0510437 0.0615951
67 3 O -2.91391 10.6102 4.4844 -1.2 1 0.0179842 0.0129913 0.00925075 0.02145 0.0302978 0.0229986 0.046746 0.0639087 0.040385 0.0506214 0.038144 0.0712493 0.044963 0.0594734 0.0664703 0.0727687 0.0471611 0.0745691 0.0625239 0.0752916
68 3 O 0.7596 13.1975 4.4844 -1.2 1 0.0189642 0.0233841 0.0192753 0.0130967 0.0229153 0.0485108 0.0357013 0.0512224 0.0470079 0.0511718 0.0372543 0.0499932 0.0480797 0.0710175 0.102022 0.0622021 0.075363 0.0526633 0.0744278 0.0699306
69 3 O -2.12001 12.9296 3.18632 -1.2 1 0.0210796 0.012016 0.018981 0.0176207 0.0209493 0.036992 0.0418197 0.0537496 0.0470535 0.0511251 0.052916 0.050848 0.0551678 0.0492281 0.0800858 0.0638682 0.0715108 0.0631383 0.066614 0.0697065
70 3 O -2.16532 12.9296 5.78248 -1.2 1 0.0144398 0.0102658 0.0203384 0.0196927 0.0172044 0.0299532 0.0448016 0.0504602 0.0374501 0.0387698 0.0561368 0.0425541 0.0577934 0.0593621 0.0877646 0.0707902 0.071512 0.0657562 0.0679901 0.0748812
71 1 Mg 1.29891 11.8725 2.9896 1.2 1 0.00750617 0.0159833 0.0225762 0.0212489 0.0202846 0.0389579 0.0374645 0.0523032 0.0351074 0.061638 0.0341952 0.0604985 0.0267492 0.0678512 0.0487767 0.0820963 0.0474619 0.0899706 0.0480658 0.08592
72 1 Mg 4.10033 11.8312 4.4844 1.2 1 0.0118432 0.0194899 0.0194814 0.027868 0.0280825 0.0330878 0.041409 0.0337563 0.0474128 0.0503082 0.054722 0.0546722 0.0664125 0.0707142 0.0524531 0.0708933 0.070889 0.0993806 0.0743216 0.080132
73 2 Si 2.27333 13.896 4.4844 2.4 1 0.0253054 0.00454652 0.0252314 0.02583 0.0250921 0.0380825 0.0615767 0.0322486 0.0545173 0.057518 0.0530894 0.0621628 0.0631254 0.0584838 0.0777905 0.0666934 0.0475504 0.0963445 0.0520853 0.058008
74 3 O 2.28634 15.5093 4.4844 -1.2 1 0.0216389 0.0127481 0.0107807 0.0177869 0.0271894 0.0219264 0.0418127 0.0585136 0.0422038 0.0523432 0.0421348 0.072716 0.0476951 0.0654793 0.0704617 0.0728385 0.0467073 0.0725157 0.0662636 0.0736257
75 3 O -4.34533 12.922 4.4844 -1.2 1 0.0119038 0.0195718 0.0216131 0.0191768 0.0213868 0.0527499 0.0339289 0.0496634 0.0444564 0.0524308 0.0389809 0.0545224 0.0502258 0.0707951 0.102129 0.0662564 0.0782335 0.0522311 0.0756247 0.0718544
76 3 O 2.98455 13.1899 3.18632 -1.2 1 0.0228857 0.0114378 0.0184984 0.0120378 0.0208405 0.0417454 0.038913 0.0578111 0.0459614 0.0518531 0.0566511 0.0485727 0.0512054 0.051403 0.0811935 0.0615432 0.0663013 0.0608844 0.0639602 0.0712047
77 1 Mg 1.34779 11.8725 0 1.2 1 0.0218223 0.00928902 0.0219044 0.0148274 0.0285642 0.0226656 0.051305 0.0347516 0.0575791 0.0508676 0.049881 0.0349818 0.0649455 0.0500092 0.0701849 0.0643569 0.0615337 0.069991 0.0874597 0.0595156
78 3 O 2.93934 13.1899 5.78248 -1.2 1 0.0178628 0.0116153 0.0188225 0.0215788 0.0172332 0.0280139 0.0452116 0.0490508 0.0406836 0.0416025 0.0605965 0.040755 0.0545309 0.0599908 0.0886783 0.0677072 0.0685065 0.0641445 0.0648412 0.0780607
79 1 Mg -1.50344 11.9138 1.4948 1.2 1 0.00823692 0.0211354 0.0216743 0.022602 0.0139618 0.0371468 0.0387955 0.0418172 0.0403096 0.0596165 0.0346001 0.0670242 0.0517667 0.0648908 0.0755126 0.0680989 0.0636971 0.0847131 0.0773377 0.0787354
80 2 Si 0.326006 9.84894 1.4948 2.4 1 0.0280877 0.017861 0.0270094 0.0296042 0.016883 0.03813 0.0434741 0.0399305 0.0442503 0.0552626 0.0394908 0.0603967 0.0553296 0.0663606 0.0607567 0.0628055 0.0700299 0.0802458 0.0614759 0.0684744
81 3 O 0.317364 8.23571 1.4948 -1.2 1 0.0223876 0.0125646 0.0225917 0.0239469 0.02034 0.0453901 0.042955 0.0500086 0.0351076 0.0544992 0.0442448 0.0657283 0.0572589 0.0597972 0.0674305 0.0662731 0.0714937 0.0530984 0.0738999 0.0739746
82 3 O 6.94307 10.823 1.4948 -1.2 1 0.0312123 0.0148321 0.0219319 0.0115268 0.0372503 0.0331909 0.0381118 0.0579341 0.0347143 0.0478656 0.0513618 0.0529111 0.0501323 0.0744388 0.0724019 0.0798173 0.0619012 0.0727462 0.0580822 0.0802255
83 3 O -0.343122 10.5551 0.196716 -1.2 1 0.03091 0.0175479 0.0217062 0.0208669 0.0298079 0.0413322 0.0511489 0.0395705 0.0387428 0.0506571 0.0370184 0.0377617 0.0614493 0.060494 0.0688626 0.0706225 0.0808213 0.0542792 0.0697304 0.069009
84 3 O -0.385966 10.5551 2.79288 -1.2 1 0.0229213 0.0147966 0.0327022 0.0125045 0.0327258 0.0437858 0.0455478 0.0461004 0.0448315 0.0387358 0.0527254 0.0483573 0.0494324 0.0563703 0.0697968 0.069769 0.066821 0.0611734 0.0697711 0.0787653
85 1 Mg 6.49448 14.247 0 1.2 1 0.0226698 0.00989601 0.0185646 0.0169363 0.0286143 0.0228272 0.0479487 0.0330785 0.0593975 0.0481796 0.0512778 0.0374441 0.0624207 0.0528081 0.0712412 0.0651811 0.0644572 0.0706868 0.0846179 0.0704875
86 1 Mg 3.74457 18.9547 1.4948 1.2 1 0.0149816 0.0106319 0.0153616 0.0160537 0.0259222 0.0292369 0.0314862 0.039273 0.0379121 0.057926 0.0434805 0.0669226 0.050762 0.0664012 0.0706112 0.0700092 0.0629941 0.0831133 0.0786668 0.076112
87 2 Si 5.55495 16.2705 1.4948 2.4 1 0.0108189 0.0217813 0.0201566 0.0271973 0.0176401 0.0427536 0.0371443 0.0403765 0.0468099 0.0529984 0.043967 0.060521 0.0535038 0.0642825 0.0698868 0.0597414 0.0728644 0.0790208 0.0602047 0.0701637
88 3 O 5.6115 17.8838 1.4948 -1.2 1 0.0268907 0.0182047 0.0233907 0.0256182 0.0193013 0.0436003 0.0451475 0.0608787 0.0371019 0.0498935 0.0380183 0.0672633 0.0512521 0.0559972 0.0646413 0.0577357 0.0657187 0.0615931 0.0632292 0.0691533
89 3 O 1.93416 15.2965 1.4948 -1.2 1 0.0370837 0.0147045 0.0219398 0.0129588 0.034989 0.0302183 0.0362427 0.059017 0.0429964 0.0470082 0.0486527 0.0507286 0.0465206 0.0736146 0.0807833 0.077815 0.0588049 0.0739457 0.0624208 0.0770694
90 3 O 4.85636 15.5644 0.196716 -1.2 1 0.0260324 0.0108801 0.0222758 0.0195824 0.0236953 0.0515597 0.0506938 0.0402122 0.0409688 0.0466735 0.0366418 0.0336537 0.0638301 0.0546397 0.0672592 0.0682399 0.0750302 0.0632484 0.0720818 0.0677851
91 1 Mg 6.44662 14.247 2.9896 1.2 1 0.0101622 0.017808 0.0228141 0.0218376 0.0187603 0.0357737 0.0379966 0.0538434 0.0363239 0.0577978 0.0335932 0.0624952 0.0251532 0.067349 0.0456465 0.0769181 0.0452253 0.0920866 0.0436188 0.0922814
92 3 O 4.81537 15.5644 2.79288 -1.2 1 0.0148756 0.00746988 0.0276247 0.0117041 0.0275233 0.0387463 0.0470849 0.0476082 0.0457176 0.0395255 0.0511475 0.0430077 0.0532284 0.0567984 0.0744067 0.0663814 0.0760574 0.0532977 0.0719999 0.0761346
93 1 Mg -0.948271 14.2883 4.4844 1.2 1 0.0160554 0.0120313 0.0145456 0.0282932 0.0245115 0.0276163 0.0376643 0.0350386 0.0442921 0.0484883 0.0589432 0.0566767 0.0660582 0.0691358 0.0591025 0.0710005 0.0711238 0.0961491 0.0748671 0.0829791
94 2 Si -2.75928 16.9724 4.4844 2.4 1 0.0225772 0.0153298 0.020375 0.0252593 0.0273033 0.0412317 0.0557103 0.0326138 0.0525319 0.0652482 0.0524916 0.0632327 0.0573815 0.0553389 0.0759863 0.071877 0.0481753 0.0942648 0.0527786 0.063094
95 3 O -2.81617 15.3592 4.4844 -1.2 1 0.0152605 0.0182629 0.00996453 0.0244483 0.0310429 0.0235673 0.0445297 0.0644175 0.0433315 0.0522182 0.0381721 0.0716104 0.0461493 0.0590981 0.0672916 0.0714419 0.0507547 0.0734412 0.0640077 0.0766841
96 3 O 0.862762 17.9465 4.4844 -1.2 1 0.0184074 0.0250047 0.0220003 0.0167014 0.021661 0.0463791 0.0346569 0.0533313 0.046675 0.0533592 0.0388783 0.0484225 0.0439735 0.0705929 0.105952 0.0566186 0.0712823 0.0525924 0.0754147 0.0697145
97 3 O -2.0185 17.6786 3.18632 -1.2 1 0.018687 0.0101342 0.0180823 0.0162703 0.019465 0.0395952 0.0428862 0.0566205 0.04383 0.0520816 0.0540582 0.0489388 0.0559608 0.0495704 0.0808414 0.0617359 0.0691551 0.0655897 0.0630005 0.0696424
98 3 O -2.06164 17.6786 5.78248 -1.2 1 0.0091202 0.0064797 0.0231363 0.0205758 0.0180894 0.031313 0.0460288 0.0484752 0.0370418 0.0394828 0.0551944 0.0410758 0.0598422 0.0635943 0.0836948 0.0689779 0.0722606 0.0647192 0.0685237 0.0767658
99 1 Mg 1.39817 16.6215 2.9896 1.2 1 0.0093176 0.0157413 0.0189534 0.0212903 0.0209562 0.0362937 0.0388506 0.0543958 0.036848 0.0614063 0.0365485 0.0573276 0.0248026 0.0675559 0.047377 0.080314 0.0483058 0.0906199 0.0448745 0.089037
100 1 Mg 4.20062 16.5802 4.4844 1.2 1 0.0133092 0.0117875 0.0153889 0.0248927 0.0265188 0.0298558 0.0415218 0.0354212 0.0469062 0.0535176 0.0537809 0.0556215 0.0695221 0.0675788 0.0538297 0.0721806 0.0688506 0.0967355 0.0742703 0.0801287
101 2 Si 2.37796 18.645 4.4844 2.4 1 0.0256199 0.00892927 0.0181206 0.0257143 0.0230128 0.0380379 0.0611533 0.030332 0.0554233 0.0572946 0.0518569 0.0619634 0.061563 0.0559693 0.0722943 0.0685789 0.046249 0.100435 0.052083 0.0578164
102 3 O 2.39434 20.2583 4.4844 -1.2 1 0.0209167 0.0133847 0.00690497 0.0168881 0.0253879 0.0228121 0.0429337 0.0605475 0.0434243 0.0527152 0.0401121 0.072186 0.0494785 0.061929 0.0715395 0.0699443 0.0487054 0.0682261 0.0655619 0.0784723
103 3 O -4.24274 17.671 4.4844 -1.2 1 0.00961281 0.0196302 0.0205111 0.0216416 0.0205558 0.0509541 0.0337538 0.0501432 0.0420327 0.0510045 0.0401047 0.0522202 0.0504526 0.0705364 0.100852 0.061435 0.078218 0.0529888 0.0781254 0.0695506
104 3 O 3.08659 17.9389 3.18632 -1.2 1 0.0323006 0.0156263 0.0209559 0.00956173 0.0166806 0.0369059 0.0373133 0.053986 0.0439078 0.0518166 0.0548034 0.049033 0.0510751 0.0482732 0.0804635 0.0595126 0.0665941 0.0599693 0.0657626 0.0692905
105 1 Mg 1.44478 16.6215 0 1.2 1 0.00953552 0.0121844 0.0215526 0.0130499 0.0265454 0.0316965 0.0478163 0.0355697 0.0505847 0.0504737 0.0518655 0.039679 0.0589809 0.0497169 0.0696642 0.0661038 0.0598802 0.0680552 0.0887748 0.06394
106 3 O 3.0436 17.9389 5.78248 -1.2 1 0.0164474 0.0109368 0.0196046 0.021254 0.017466 0.0252146 0.0469427 0.0488494 0.0384827 0.0414357 0.0579326 0.0384659 0.0544976 0.0596923 0.0870257 0.0654602 0.068095 0.0607017 0.0664911 0.0796521
107 1 Mg -1.40524 16.6628 1.4948 1.2 1 0.0116262 0.0125093 0.0257054 0.0176356 0.0172289 0.0345289 0.0359296 0.0426767 0.0413751 0.0602184 0.0404893 0.0630127 0.054786 0.0642286 0.0739918 0.0693612 0.0640238 0.0778256 0.0779903 0.0759689
108 2 Si 0.420358 14.5979 1.4948 2.4 1 0.0225229 0.0191813 0.0290215 0.0259712 0.0176975 0.0385274 0.0390515 0.0418835 0.0442236 0.0550787 0.0425747 0.0613321 0.0577174 0.0635374 0.0672228 0.0589518 0.0720925 0.0766772 0.062784 0.0710467
109 3 O 0.408732 12.9847 1.4948 -1.2 1 0.0221519 0.015539 0.0227834 0.0257855 0.0167101 0.047136 0.0437325 0.0540558 0.0361384 0.0530444 0.0420624 0.0692184 0.0529785 0.0567912 0.0656187 0.0635017 0.0714346 0.0549329 0.0683941 0.0718571
110 3 O 7.03923 15.572 1.4948 -1.2 1 0.029312 0.0168047 0.0216457 0.0127505 0.0360739 0.0338085 0.0368034 0.0561216 0.0386673 0.0446039 0.0512483 0.0529401 0.0477061 0.0742966 0.0779439 0.0782947 0.0642374 0.069588 0.0622023 0.0775328
111 3 O -0.248332 15.3041 0.196716 -1.2 1 0.0219799 0.0121488 0.0221568 0.0192532 0.0243151 0.0464022 0.0500936 0.0435917 0.0402276 0.0467886 0.0370419 0.0319219 0.0620418 0.0546242 0.0701819 0.0652584 0.0820818 0.0505701 0.0697132 0.0713015
112 3 O -0.289436 15.3041 2.79288 -1.2 1 0.0185595 0.0156487 0.0265409 0.00950842 0.0311186 0.0370782 0.0442407 0.0477634 0.0437729 0.0396714 0.0541532 0.0493204 0.0510366 0.0528166 0.0715767 0.0682177 0.0710734 0.0558194 0.0692732 0.0762819
113 1 Mg 6.59566 18.996 0 1.2 1 0.0146886 0.0130373 0.0209488 0.0126749 0.0257857 0.0323206 0.0439135 0.0342892 0.0537605 0.0490474 0.0536758 0.0385026 0.0532056 0.0528682 0.0716616 0.0641338 0.0637279 0.0643928 0.0872032 0.0698862
114 1 Mg 3.85574 23.7037 1.4948 1.2 1 0.0106939 0.0127011 0.021159 0.0140637 0.0225364 0.0288346 0.0311866 0.0372587 0.0389375 0.060121 0.0467742 0.0625708 0.0499928 0.0668686 0.0647924 0.0724007 0.0664495 0.079844 0.0799174 0.0758258
115 2 Si 5.66125 21.0195 1.4948 2.4 1 0.00858524 0.0228239 0.0247522 0.0274136 0.0200416 0.0458264 0.0336951 0.0433718 0.0472494 0.0539095 0.0443167 0.0615129 0.0558432 0.0598572 0.0709209 0.0605608 0.0735483 0.0774483 0.0651546 0.0754667
116 3 O 5.72074 22.6328 1.4948 -1.2 1 0.0282006 0.0191327 0.0182759 0.0227668 0.019137 0.044671 0.0454831 0.0618742 0.038204 0.0520665 0.0328881 0.0698698 0.0492749 0.0535015 0.0681635 0.0559413 0.0650685 0.0679112 0.0563077 0.0713272
117 3 O 2.03867 20.0455 1.4948 -1.2 1 0.0300249 0.016497 0.0267559 0.0160683 0.0341703 0.0301605 0.0358683 0.055316 0.0441636 0.0428241 0.0506303 0.0504872 0.0476146 0.0737178 0.0847154 0.0727133 0.0617092 0.0678856 0.0634996 0.0733663
118 3 O 4.96004 20.3134 0.196716 -1.2 1 0.0211795 0.0105081 0.023024 0.0188089 0.0231201 0.0452661 0.0439969 0.0478411 0.0390113 0.0398681 0.0411593 0.0343256 0.0646977 0.0475249 0.0698274 0.0729179 0.0716092 0.0582563 0.0716811 0.0719855
119 1 Mg 6.55057 18.996 2.9896 1.2 1 0.0093261 0.0174252 0.0207037 0.0218085 0.0212392 0.0334881 0.0373886 0.0552646 0.0345449 0.0596149 0.0349833 0.0619995 0.02252 0.0698857 0.0449661 0.0732283 0.0457788 0.0944731 0.0438202 0.0936578
120 3 O 4.92172 20.3134 2.79288 -1.2 1 0.0168833 0.0107369 0.0286443 0.0162468 0.0288047 0.041606 0.045905 0.0459416 0.0467592 0.0427944 0.0526365 0.0400302 0.0519629 0.052332 0.0755356 0.0662344 0.0751159 0.049283 0.0725161 0.072354
121 1 Mg -0.84282 19.0373 4.4844 1.2 1 0.0153082 0.0119192 0.0157157 0.0288522 0.0235558 0.02808 0.0362058 0.0330209 0.044774 0.0489057 0.0590644 0.0566252 0.0654273 0.0701737 0.0571336 0.0731192 0.0724593 0.0936864 0.073824 0.0818862
122 2 Si -2.64823 21.7214 4.4844 2.4 1 0.0199312 0.0126523 0.0171232 0.0279653 0.0277311 0.0409767 0.056111 0.0319425 0.0538855 0.0633267 0.0512662 0.064295 0.0600398 0.0550847 0.076596 0.0722482 0.0461778 0.0924304 0.0538132 0.0644773
123 3 O -2.70847 20.1082 4.4844 -1.2 1 0.01282 0.0231712 0.0106263 0.027203 0.0256552 0.0256288 0.038824 0.0638248 0.0434054 0.0479497 0.0392423 0.0706414 0.0511562 0.0597584 0.0682722 0.0655578 0.0513581 0.0738497 0.0685828 0.075691
124 3 O 0.97581 22.6955 4.4844 -1.2 1 0.0174916 0.0248016 0.0203561 0.0191958 0.0194052 0.0437089 0.0302152 0.0504893 0.0443516 0.0540391 0.0403135 0.0461453 0.0472482 0.0718956 0.108519 0.0517334 0.0666958 0.0551729 0.0762514 0.0683305
125 3 O -1.9076 22.4276 3.18632 -1.2 1 0.0227169 0.0112261 0.0207592 0.0146324 0.0167442 0.0368154 0.0450446 0.0543294 0.0404951 0.0476566 0.0542183 0.0499022 0.0546472 0.048441 0.0805808 0.0590231 0.0676315 0.0655997 0.0627782 0.0667248
126 3 O -1.9475 22.4276 5.78248 -1.2 1 0.0140543 0.0168908 0.0203571 0.0202611 0.0161433 0.0289935 0.0465111 0.0470303 0.0370357 0.0387203 0.0587406 0.0388014 0.0558745 0.0580549 0.0867105 0.0702098 0.0704076 0.0615325 0.0674053 0.0764799