ITEM: TIMESTEP
66600
ITEM: NUMBER OF ATOMS
10500
ITEM: BOX BOUNDS xy xz yz pp pp pp
0	15.2977	5.09925
0	118.725	0
0	89.688	0
ITEM: ATOMS id type element xu yu zu q Q_1 Q_2 Q_3 Q_4 Q_5 Q_6 Q_7 Q_8 Q_9 Q_10 Q_11 Q_12 Q_13 Q_14 Q_15 Q_16 Q_17 Q_18 Q_19 Q_20 Q_21
1 1 Mg 6.2404 -6.37941e-06 0 1.2 1 0.0133067 0.0409146 0.0299274 0.0361168 0.0330225 0.0414184 0.0350895 0.0686892 0.0382491 0.0713559 0.0337551 0.0588192 0.046291 0.0683816 0.0503542 0.091952 0.0516385 0.0839091 0.0502054 0.102295
2 1 Mg 3.46349 4.70768 1.4948 1.2 1 0.012432 0.0164432 0.0249988 0.0236485 0.019761 0.0414806 0.0434128 0.0412957 0.0480012 0.0559568 0.0421551 0.0691789 0.0579851 0.0700769 0.0729233 0.0648333 0.067207 0.0853492 0.0733643 0.0823935
3 2 Si 5.2885 2.02354 1.4948 2.4 1 0.0184825 0.0227145 0.0350178 0.0238229 0.0323353 0.0372712 0.0547888 0.0320953 0.043611 0.0523351 0.0539996 0.0605099 0.0559966 0.0644262 0.0685062 0.0782849 0.0703104 0.0646597 0.0639205 0.0720218
4 3 O 5.33628 3.63678 1.4948 -1.2 1 0.00922126 0.0140579 0.0268091 0.0257346 0.0182612 0.0390317 0.0419309 0.0603178 0.0354656 0.0405893 0.0547059 0.0514084 0.0672982 0.0568551 0.0587592 0.066008 0.060132 0.0612595 0.0713214 0.0744453
5 3 O 1.67294 1.04952 1.4948 -1.2 1 0.0161819 0.0215925 0.0236628 0.0349388 0.0294101 0.0385518 0.0344994 0.0606486 0.0348764 0.0592193 0.0436675 0.0514495 0.0716018 0.0595186 0.0759302 0.0691829 0.0626163 0.0645737 0.0794799 0.0595554
6 3 O 4.59532 1.31737 0.196716 -1.2 1 0.0269293 0.0196204 0.0563367 0.0255514 0.0334483 0.048726 0.0392631 0.0478717 0.03377 0.0400314 0.0382322 0.0505511 0.0548985 0.0585521 0.063673 0.0706042 0.0631524 0.071828 0.0594812 0.0700121
7 1 Mg 6.18956 -6.37941e-06 2.9896 1.2 1 0.0162865 0.0284628 0.017176 0.0211446 0.0345689 0.0438704 0.0505397 0.0412747 0.0501737 0.0444434 0.0402496 0.0538066 0.0403774 0.0551698 0.0572532 0.079262 0.0550475 0.0682418 0.0621263 0.0717137
8 3 O 4.55118 1.31737 2.79288 -1.2 1 0.021274 0.0248493 0.0371323 0.0175037 0.0282912 0.0437535 0.044678 0.0472053 0.0418276 0.0515332 0.055066 0.0484109 0.0500035 0.0653511 0.0549806 0.0703156 0.0658691 0.067546 0.0667137 0.070269
9 1 Mg -1.20682 0.0413099 4.4844 1.2 1 0.0183857 0.0254524 0.0215638 0.0274648 0.0358166 0.0391404 0.0351391 0.0504915 0.0527359 0.0399739 0.0518087 0.0606762 0.0597111 0.0591538 0.0786221 0.0623091 0.0794485 0.0720202 0.0602068 0.0532221
10 2 Si -3.0337 2.72544 4.4844 2.4 1 0.0368779 0.0142688 0.0189458 0.0160783 0.0290805 0.0348698 0.0631546 0.0352625 0.0594048 0.0480646 0.0463509 0.0632163 0.0589786 0.0767637 0.0559862 0.0630655 0.0727904 0.0826076 0.0709447 0.0579414
11 3 O -3.08099 1.11221 4.4844 -1.2 1 0.00906016 0.0301908 0.0261641 0.0249901 0.035714 0.0290482 0.049339 0.0511536 0.0373322 0.0371386 0.039266 0.071663 0.0531302 0.0507978 0.0537425 0.0689461 0.0545975 0.0818596 0.0763156 0.0781126
12 3 O 0.582463 3.69946 4.4844 -1.2 1 0.00497629 0.0145724 0.0328773 0.0287246 0.027239 0.0563709 0.0313223 0.0535265 0.047702 0.0397312 0.050009 0.051534 0.0584718 0.0689832 0.101037 0.0727755 0.0777954 0.0441172 0.0730212 0.0688803
13 3 O -2.29524 3.43162 3.18632 -1.2 1 0.0123665 0.0198064 0.0253058 0.0309905 0.0201139 0.0508174 0.051353 0.0497095 0.0418967 0.0528535 0.0592783 0.054573 0.0404176 0.0530129 0.0586973 0.0655847 0.0662978 0.0621528 0.0616761 0.0725683
14 3 O -2.34216 3.43162 5.78248 -1.2 1 0.0151184 0.0121949 0.0203315 0.0265307 0.0277577 0.0395195 0.055318 0.0480922 0.0373793 0.0547558 0.0532914 0.0476251 0.055196 0.0552089 0.0761157 0.0748402 0.0611517 0.069742 0.0727476 0.070019
15 1 Mg 1.12778 2.37449 2.9896 1.2 1 0.0154638 0.0401942 0.0170917 0.0240113 0.026219 0.044098 0.0409354 0.0497674 0.0375184 0.0609997 0.0380935 0.05878 0.0404052 0.0660622 0.063184 0.0689573 0.0680935 0.0817305 0.0466897 0.0891203
16 1 Mg 3.92855 2.33318 4.4844 1.2 1 0.0312959 0.0172893 0.0210367 0.027993 0.0432536 0.0266992 0.0360091 0.036987 0.048236 0.0683262 0.0505487 0.0589891 0.0469383 0.0614753 0.0558983 0.0757933 0.062446 0.0956461 0.0742923 0.083731
17 2 Si 2.09341 4.39804 4.4844 2.4 1 0.0136846 0.0191261 0.0312041 0.0207602 0.0424661 0.0270006 0.0640454 0.0199523 0.0411582 0.0521979 0.062792 0.0617265 0.0666186 0.0563112 0.0762938 0.0762602 0.0710844 0.0794283 0.0512191 0.066255
18 3 O 2.09991 6.01128 4.4844 -1.2 1 0.00984191 0.012446 0.0178643 0.018134 0.0338341 0.0230683 0.052489 0.0490554 0.0477626 0.0463127 0.0469998 0.0673654 0.0455499 0.0604276 0.0668577 0.0729254 0.044562 0.0792632 0.0618532 0.0730989
19 3 O -4.52137 3.42402 4.4844 -1.2 1 0.0239842 0.0276984 0.0364524 0.0191545 0.0258456 0.0564175 0.0341268 0.0496619 0.0542386 0.0567379 0.0318509 0.0592199 0.0513139 0.0534314 0.091333 0.0687611 0.0756674 0.0596327 0.0765117 0.0544476
20 3 O 2.80834 3.69187 3.18632 -1.2 1 0.0097245 0.01785 0.0200792 0.0250766 0.0231494 0.0379933 0.0356939 0.050017 0.0440362 0.0585567 0.0668164 0.0524183 0.0425688 0.0648498 0.069563 0.0714473 0.0619174 0.0583593 0.0697711 0.0719216
21 1 Mg 1.17857 2.37449 0 1.2 1 0.0149534 0.0332548 0.0309279 0.0268637 0.0391255 0.0369418 0.0441105 0.0576824 0.0361599 0.0489208 0.0503629 0.0410468 0.0406261 0.0678318 0.056572 0.0637803 0.0630191 0.0787164 0.0594392 0.0737852
22 3 O 2.76143 3.69187 5.78248 -1.2 1 0.0135153 0.0218436 0.0201643 0.0238408 0.0218771 0.0348677 0.0393645 0.0490165 0.0336595 0.0482912 0.0566109 0.0469029 0.0591658 0.0788362 0.0746578 0.067621 0.0655198 0.058806 0.0687898 0.0700246
23 1 Mg -1.67381 2.41581 1.4948 1.2 1 0.0103599 0.00816266 0.0389202 0.035404 0.0326277 0.0435992 0.0598868 0.0386305 0.0521925 0.0427382 0.0437019 0.056526 0.0540775 0.0639011 0.0603923 0.0638492 0.0831754 0.0776442 0.0659127 0.0740057
24 2 Si 0.16286 0.350945 1.4948 2.4 1 0.0154459 0.0319355 0.0278151 0.0230483 0.0354485 0.0356688 0.0558071 0.0515899 0.052816 0.0486064 0.040303 0.0558859 0.0736707 0.0689309 0.0571812 0.0734101 0.0698474 0.0645453 0.0728386 0.0665119
25 3 O 0.15972 -1.26229 1.4948 -1.2 1 0.00763239 0.0196479 0.0374967 0.0234349 0.0352122 0.0375163 0.046237 0.0546801 0.0486246 0.0516267 0.0563411 0.0579972 0.0625976 0.0670073 0.0512715 0.0595 0.0700475 0.0666935 0.0617634 0.0732953
26 3 O 6.77654 1.32496 1.4948 -1.2 1 0.0114757 0.0278014 0.0268219 0.0277898 0.0373116 0.0546647 0.0341853 0.0646169 0.0477944 0.0468743 0.0443636 0.0530481 0.0516771 0.0586559 0.0688181 0.0720173 0.0849508 0.0626994 0.0602415 0.0747647
27 3 O -0.508028 1.05712 0.196716 -1.2 1 0.0246629 0.0190023 0.0297539 0.0204872 0.0292391 0.0532003 0.0439524 0.0444479 0.0471646 0.0479454 0.0503339 0.0478991 0.0497373 0.0635659 0.055042 0.0630848 0.0632055 0.058699 0.0723621 0.0715898
28 3 O -0.552171 1.05712 2.79288 -1.2 1 0.0340148 0.0257409 0.0331363 0.0323408 0.0220154 0.0464145 0.0425821 0.0452799 0.0452138 0.0352206 0.0502391 0.0492765 0.0606947 0.0637533 0.0648629 0.0758132 0.073352 0.0493424 0.070904 0.069261
29 1 Mg 6.31713 4.74899 0 1.2 1 0.0271711 0.0291178 0.0301502 0.0365962 0.0328324 0.0263208 0.0420433 0.0558174 0.0587444 0.0492888 0.0511525 0.0386093 0.0594282 0.0618759 0.0659 0.0639204 0.0656275 0.073917 0.0687403 0.0709278
30 1 Mg 3.54847 9.45668 1.4948 1.2 1 0.0217723 0.0143401 0.0181001 0.0202557 0.0182404 0.038284 0.0381061 0.0418647 0.0450027 0.0553949 0.0387198 0.0695829 0.052239 0.0655272 0.0714257 0.0633722 0.0665339 0.0870822 0.0740072 0.0792954
31 2 Si 5.36879 6.77254 1.4948 2.4 1 0.0290839 0.0268364 0.0239263 0.0257337 0.02486 0.0349222 0.0444263 0.0362446 0.0449664 0.0572735 0.0421378 0.05831 0.0533033 0.0663737 0.0655362 0.0744863 0.0668344 0.0787783 0.0558007 0.068657
32 3 O 5.41937 8.38578 1.4948 -1.2 1 0.0216326 0.0114842 0.0235492 0.0295947 0.0175058 0.0432011 0.0441228 0.0572765 0.0363952 0.0504982 0.0475543 0.0639724 0.0552748 0.0541535 0.0664304 0.0605247 0.0726894 0.0561948 0.0729962 0.0731316
33 3 O 1.75158 5.79852 1.4948 -1.2 1 0.0284832 0.0123713 0.0225456 0.0266228 0.0440567 0.030599 0.0392872 0.0570797 0.040627 0.0524417 0.0494049 0.0506443 0.0475213 0.0713331 0.0788863 0.0782863 0.06027 0.0751724 0.0599456 0.0765898
34 3 O 4.67421 6.06637 0.196716 -1.2 1 0.0114718 0.0281127 0.0306325 0.023034 0.0330836 0.0384056 0.0342036 0.0322754 0.0436983 0.0547046 0.0403497 0.0425786 0.0650701 0.0560411 0.0679651 0.0702858 0.0733455 0.0651306 0.0632647 0.0691823
35 1 Mg 6.26654 4.74899 2.9896 1.2 1 0.0193187 0.0251368 0.0236022 0.0444962 0.0251392 0.0449623 0.0487751 0.0476194 0.0359944 0.0626271 0.0357376 0.0621411 0.0365466 0.065544 0.0512273 0.0791072 0.0553161 0.0839078 0.0467498 0.0905037
36 3 O 4.63043 6.06637 2.79288 -1.2 1 0.0178346 0.018535 0.0410743 0.0193023 0.031479 0.0371586 0.0425868 0.0496094 0.0448943 0.0371962 0.049613 0.0508315 0.0562272 0.0643474 0.0619247 0.0742965 0.0653784 0.0676897 0.069047 0.0832525
37 1 Mg -1.12976 4.79031 4.4844 1.2 1 0.0220902 0.0316979 0.010885 0.011415 0.0438751 0.0384742 0.0522308 0.0497046 0.0407786 0.0448494 0.0545108 0.0617428 0.0721146 0.0688141 0.0629335 0.0673013 0.0701932 0.0924429 0.0683856 0.0816836
38 2 Si -2.9517 7.47444 4.4844 2.4 1 0.0241405 0.0130938 0.0177333 0.0262931 0.0316579 0.0421215 0.0631685 0.0277894 0.0550398 0.0560172 0.0516448 0.0609678 0.0643355 0.0552637 0.0779978 0.073457 0.0515056 0.0888328 0.0548015 0.0594876
39 3 O -3.00198 5.86121 4.4844 -1.2 1 0.0152315 0.0230415 0.0269988 0.0273194 0.0338787 0.0320307 0.0552524 0.059121 0.0373784 0.0556796 0.0464786 0.0708725 0.0593524 0.0545816 0.0666112 0.0705884 0.0525487 0.0785098 0.059484 0.0774905
40 3 O 0.666315 8.44846 4.4844 -1.2 1 0.0185637 0.0188934 0.0224714 0.0179239 0.021933 0.0549694 0.0329827 0.0496842 0.0417567 0.0470194 0.0417924 0.0512036 0.0475066 0.0778514 0.0990395 0.0694733 0.0770249 0.049491 0.0691513 0.0743296
41 3 O -2.21213 8.18062 3.18632 -1.2 1 0.0134061 0.0139481 0.0169147 0.015789 0.0161887 0.0378978 0.0464432 0.0573154 0.04573 0.0544236 0.054416 0.0505756 0.0539604 0.0482822 0.0782708 0.0630042 0.0717162 0.0577113 0.0676965 0.0701628
42 3 O -2.25864 8.18062 5.78248 -1.2 1 0.0170614 0.0171638 0.0265922 0.0252355 0.0198373 0.0261225 0.0542564 0.0463263 0.0398995 0.040826 0.0533792 0.0356316 0.0575445 0.0576217 0.0850455 0.0679532 0.0697192 0.0646698 0.0740861 0.0726879
43 1 Mg 1.20893 7.12349 2.9896 1.2 1 0.00801275 0.0226738 0.0189965 0.025314 0.0240154 0.0399654 0.0425539 0.0463654 0.0345468 0.0651484 0.0390738 0.0660108 0.0366033 0.0589126 0.053171 0.0786486 0.0508633 0.0831552 0.0469471 0.0873285
44 1 Mg 4.00982 7.08218 4.4844 1.2 1 0.0144005 0.0110394 0.0293876 0.034718 0.0357608 0.0339046 0.0438975 0.0394675 0.0453401 0.052488 0.0582716 0.0558761 0.0738624 0.0738422 0.0599241 0.0693136 0.0630167 0.09885 0.0748781 0.0804418
45 2 Si 2.17861 9.14704 4.4844 2.4 1 0.0274652 0.0119339 0.0251789 0.0198539 0.0290207 0.0338922 0.0617101 0.0250996 0.0486672 0.0547245 0.0552713 0.0571869 0.0635117 0.0579822 0.0805624 0.0693008 0.0512237 0.0927483 0.0570705 0.0596648
46 3 O 2.18828 10.7603 4.4844 -1.2 1 0.0199212 0.0157837 0.00634347 0.016734 0.0285388 0.021825 0.0449175 0.0600667 0.0413985 0.0565796 0.0403762 0.0722637 0.0415534 0.064872 0.0677966 0.0739145 0.0458596 0.0703063 0.0637175 0.0750948
47 3 O -4.43805 8.17302 4.4844 -1.2 1 0.0165505 0.0248527 0.0174555 0.0143549 0.0233236 0.0537674 0.0349116 0.0496436 0.0452701 0.048912 0.0338574 0.0537178 0.050129 0.0722731 0.0998306 0.0667369 0.0811903 0.0522801 0.0737529 0.0779478
48 3 O 2.89193 8.44087 3.18632 -1.2 1 0.0204877 0.0158607 0.0199255 0.0123698 0.0198271 0.0401173 0.0334181 0.055678 0.0402126 0.0548459 0.0565608 0.0496628 0.0515156 0.0505731 0.0798857 0.0625419 0.0719445 0.0591893 0.0653367 0.0733903
49 1 Mg 1.25915 7.12349 0 1.2 1 0.0188448 0.0175082 0.0284129 0.014951 0.0318402 0.024692 0.0502065 0.0399908 0.0560562 0.0490934 0.0534567 0.0429356 0.0714209 0.0515218 0.0688165 0.0709809 0.0632949 0.0717537 0.0789624 0.0594746
50 3 O 2.84547 8.44087 5.78248 -1.2 1 0.0120068 0.014197 0.0224897 0.0213076 0.0205313 0.0286679 0.0418755 0.0487279 0.0367479 0.0390192 0.0594237 0.0388359 0.0605752 0.0615319 0.0885248 0.0659323 0.0718907 0.0607647 0.0680675 0.07979
51 1 Mg -1.59284 7.16481 1.4948 1.2 1 0.0098819 0.0163132 0.020531 0.0203493 0.0151088 0.0371378 0.0465105 0.0425334 0.0433965 0.057724 0.0391874 0.0662433 0.0521955 0.0691754 0.0755033 0.0609329 0.0673688 0.084226 0.0739344 0.0786979
52 2 Si 0.240329 5.09994 1.4948 2.4 1 0.0246871 0.017453 0.0158295 0.0433771 0.0271155 0.0405554 0.0466492 0.0533174 0.0550689 0.0484069 0.0457992 0.057932 0.0592597 0.0677627 0.0656102 0.0663221 0.0641909 0.0728271 0.06615 0.0686487
53 3 O 0.234538 3.48671 1.4948 -1.2 1 0.0132238 0.0160558 0.0266704 0.0356587 0.0315255 0.049578 0.0460523 0.0424715 0.0529987 0.0464179 0.0525943 0.0608714 0.0563188 0.0614204 0.06178 0.0615499 0.063488 0.0569859 0.0759387 0.0728341
54 3 O 6.85564 6.07396 1.4948 -1.2 1 0.036846 0.020318 0.0329277 0.0268986 0.0372126 0.0406542 0.0331091 0.0609 0.0367316 0.0521552 0.054134 0.0528719 0.0563379 0.072717 0.0699343 0.0762676 0.0662445 0.0729071 0.0527212 0.0852597
55 3 O -0.429565 5.80612 0.196716 -1.2 1 0.0340481 0.0200462 0.0159058 0.0212349 0.0409482 0.0374467 0.0539162 0.0451513 0.0460572 0.0560829 0.0397484 0.0419076 0.0535062 0.0604896 0.0597838 0.0683504 0.0704201 0.0608914 0.0653927 0.0742705
56 3 O -0.473377 5.80612 2.79288 -1.2 1 0.027541 0.0186961 0.0326328 0.0197411 0.0350298 0.045688 0.0495928 0.0501767 0.0546094 0.0446147 0.0622699 0.0379931 0.0424176 0.0586233 0.0657709 0.0710427 0.0640404 0.0680206 0.0720719 0.0801849
57 1 Mg 6.40169 9.49799 0 1.2 1 0.0128069 0.01197 0.0211241 0.0141802 0.0305639 0.0209993 0.052213 0.0353553 0.0586513 0.0491971 0.0499082 0.0353806 0.0669343 0.0524617 0.0709684 0.0667668 0.0653798 0.0703388 0.0811451 0.0684463
58 1 Mg 3.64209 14.2057 1.4948 1.2 1 0.0152668 0.00935384 0.018961 0.018177 0.0211741 0.0336641 0.0356467 0.0433292 0.0414789 0.0548166 0.0404647 0.0661351 0.0528206 0.0658231 0.0710961 0.0639272 0.06491 0.0822247 0.0735074 0.0778556
59 2 Si 5.45748 11.5215 1.4948 2.4 1 0.0108791 0.0234627 0.0212617 0.0249285 0.0176818 0.040382 0.0403731 0.0384246 0.045027 0.0557874 0.0429468 0.0602415 0.0532201 0.0665984 0.0700633 0.063362 0.0712163 0.0808044 0.0584526 0.0665079
60 3 O 5.51101 13.1348 1.4948 -1.2 1 0.0257599 0.0113058 0.0194688 0.0317179 0.0199008 0.0420993 0.0439737 0.0573808 0.0362302 0.0475489 0.0437517 0.0665923 0.0540927 0.0540853 0.0645251 0.0603924 0.0699606 0.0591382 0.0693774 0.0736003
61 3 O 1.83851 10.5475 1.4948 -1.2 1 0.0351998 0.0140914 0.0216815 0.0141609 0.0364499 0.0302803 0.0363062 0.059061 0.0399834 0.0484609 0.0498222 0.0511874 0.0468235 0.0750184 0.0757095 0.0797081 0.0564669 0.0759437 0.0576355 0.07907
62 3 O 4.7611 10.8154 0.196716 -1.2 1 0.0357142 0.0192345 0.019774 0.0181218 0.0268109 0.044231 0.0482606 0.0375517 0.0388121 0.0492227 0.0369155 0.0411146 0.0608814 0.0608725 0.064865 0.0715391 0.0752919 0.0656962 0.0728998 0.0676862
63 1 Mg 6.35203 9.49799 2.9896 1.2 1 0.0146153 0.0161184 0.0210417 0.0209916 0.0192126 0.0369433 0.0373445 0.0501084 0.0355898 0.0586886 0.0334195 0.0652305 0.0273779 0.0662431 0.0456575 0.0788247 0.044312 0.0906911 0.0473396 0.0924496
64 3 O 4.71833 10.8154 2.79288 -1.2 1 0.0260043 0.0095713 0.0319538 0.0127533 0.0298718 0.0438559 0.043915 0.0453638 0.0431008 0.0385252 0.0530657 0.0432858 0.0535737 0.0569611 0.0733374 0.066624 0.0725244 0.0605314 0.068695 0.0817452
65 1 Mg -1.0438 9.53931 4.4844 1.2 1 0.0117789 0.0174476 0.0146073 0.0235168 0.0285971 0.0272567 0.0420607 0.034649 0.0458804 0.0488992 0.0566651 0.055924 0.0679645 0.0716822 0.0593079 0.069056 0.0730655 0.0983494 0.0699781 0.0859066
66 2 Si -2.8604 12.2234 4.4844 2.4 1 0.0150201 0.0139535 0.0155387 0.0270643 0.0286985 0.0413241 0.058661 0.0298495 0.054078 0.0624752 0.0563972 0.0614651 0.061384 0.0543498 0.0789231 0.0754878 0.0485789 0.0918299 0.0506602 0.0613961
67 3 O -2.91391 10.6102 4.4844 -1.2 1 0.0186414 0.0148546 0.00796894 0.0237496 0.0300957 0.0228023 0.0458012 0.062363 0.0397081 0.049834 0.0372831 0.071624 0.0446594 0.0597414 0.0675146 0.0707355 0.047851 0.0739529 0.0618442 0.0761109
68 3 O 0.7596 13.1975 4.4844 -1.2 1 0.0221898 0.0257709 0.0174005 0.0123972 0.024514 0.0488895 0.0343234 0.0509262 0.0460446 0.0516013 0.0377972 0.0509617 0.0468022 0.0677817 0.100099 0.0615654 0.0766466 0.0532084 0.074141 0.071489
69 3 O -2.12001 12.9296 3.18632 -1.2 1 0.0236221 0.00968253 0.0206625 0.0174244 0.0192531 0.035177 0.0405517 0.0534102 0.0443408 0.0539992 0.0515866 0.0508271 0.0543438 0.0471471 0.0803865 0.0627046 0.0719785 0.0641121 0.0688761 0.0675347
70 3 O -2.16532 12.9296 5.78248 -1.2 1 0.0130291 0.0134465 0.0176426 0.0247399 0.0207864 0.027246 0.0487993 0.0484464 0.0422108 0.0392136 0.0539574 0.0415954 0.0588919 0.0597605 0.0840456 0.0674644 0.07036 0.0607092 0.0628499 0.0790993
71 1 Mg 1.29891 11.8725 2.9896 1.2 1 0.00796865 0.0163722 0.0229628 0.0216092 0.02015 0.0383268 0.0371542 0.052428 0.0348314 0.0610736 0.0341988 0.0599659 0.027083 0.0681331 0.0488549 0.0815595 0.0475929 0.0889067 0.0476394 0.0869107
72 1 Mg 4.10033 11.8312 4.4844 1.2 1 0.00604257 0.00994747 0.0197322 0.0253204 0.0263833 0.0310247 0.0409328 0.0360415 0.0490708 0.0534157 0.0560624 0.0524863 0.0687132 0.069163 0.0530705 0.0714633 0.071308 0.0980767 0.0731736 0.0789987
73 2 Si 2.27333 13.896 4.4844 2.4 1 0.0265191 0.0115634 0.0252357 0.0246414 0.0260912 0.0361953 0.0627217 0.0279579 0.0535955 0.0592705 0.0523816 0.0584676 0.0607377 0.0554016 0.076182 0.0679153 0.0470851 0.0971939 0.0548813 0.0568273
74 3 O 2.28634 15.5093 4.4844 -1.2 1 0.0190382 0.0174871 0.00532696 0.0176974 0.0283655 0.0220659 0.0442933 0.0613695 0.0432142 0.0528964 0.0419391 0.0717687 0.0458568 0.0636424 0.0676552 0.0731358 0.0456064 0.07038 0.0634152 0.0766088
75 3 O -4.34533 12.922 4.4844 -1.2 1 0.0209698 0.0226323 0.0224977 0.016667 0.0216658 0.0518136 0.0345078 0.0486765 0.0450128 0.0528707 0.0379603 0.0533118 0.0497363 0.0700091 0.100351 0.0653761 0.0766231 0.0518761 0.0773846 0.0735716
76 3 O 2.98455 13.1899 3.18632 -1.2 1 0.0253459 0.0117889 0.0191425 0.01135 0.0191192 0.0394581 0.0383908 0.0573332 0.0427756 0.0550547 0.0549607 0.0494159 0.0506993 0.0499388 0.0808443 0.0605283 0.0661069 0.0623956 0.0638662 0.0723238
77 1 Mg 1.34779 11.8725 0 1.2 1 0.0214828 0.0090416 0.0218968 0.0149992 0.0287098 0.0229871 0.0520101 0.0352722 0.0577215 0.0510819 0.0498873 0.0349769 0.0651675 0.0499974 0.0707338 0.0642059 0.0618697 0.0698053 0.0874016 0.0594225
78 3 O 2.93934 13.1899 5.78248 -1.2 1 0.0183223 0.0118022 0.0190473 0.0226357 0.0179386 0.0243454 0.0521544 0.0443563 0.0437191 0.0356374 0.0559718 0.0348717 0.0545266 0.0609258 0.0855248 0.059008 0.0703074 0.0641481 0.0656167 0.0792561
79 1 Mg -1.50344 11.9138 1.4948 1.2 1 0.0174857 0.0171569 0.0237579 0.0216048 0.0123594 0.0366695 0.038191 0.0420758 0.040965 0.059187 0.036351 0.0655035 0.0496897 0.064431 0.0719992 0.0691612 0.0646316 0.0835831 0.0769912 0.0783046
80 2 Si 0.326006 9.84894 1.4948 2.4 1 0.025051 0.019414 0.0249137 0.0304301 0.0170156 0.0389075 0.0440854 0.0375863 0.0448422 0.0562307 0.0404155 0.0596732 0.0551233 0.0670919 0.0608605 0.0636976 0.0705312 0.0794169 0.0620299 0.0688104
81 3 O 0.317364 8.23571 1.4948 -1.2 1 0.0224042 0.0125559 0.0226877 0.0238902 0.0204969 0.0454321 0.0429157 0.0498335 0.0349684 0.0540957 0.0445212 0.0658578 0.0575882 0.0596435 0.0679621 0.0665191 0.0716069 0.0530609 0.0737703 0.0738427
82 3 O 6.94307 10.823 1.4948 -1.2 1 0.0312001 0.0148079 0.0219347 0.0115494 0.0372396 0.0332002 0.0381719 0.0577918 0.0346623 0.0477056 0.0513668 0.0528624 0.0502499 0.0745506 0.0724845 0.0799704 0.0619952 0.0728146 0.0580822 0.0803223
83 3 O -0.343122 10.5551 0.196716 -1.2 1 0.0267651 0.0196495 0.0240627 0.0226003 0.029857 0.0412454 0.0510256 0.0385285 0.0379461 0.0501569 0.0370918 0.0369721 0.0613913 0.059192 0.0677882 0.069725 0.0794016 0.0549507 0.0691752 0.0698095
84 3 O -0.385966 10.5551 2.79288 -1.2 1 0.0226661 0.0147159 0.0331349 0.0132502 0.033088 0.0435795 0.045162 0.0460118 0.0451858 0.0395947 0.0528924 0.0486547 0.0492201 0.0560771 0.0697671 0.0704565 0.0664549 0.0610957 0.0686047 0.0791294
85 1 Mg 6.49448 14.247 0 1.2 1 0.0224036 0.00990357 0.0186107 0.0171705 0.0286535 0.0230267 0.0482004 0.032975 0.0593093 0.0484366 0.0511681 0.0374775 0.0627833 0.0527116 0.0714095 0.0650715 0.0646439 0.0705497 0.0846474 0.0704202
86 1 Mg 3.74457 18.9547 1.4948 1.2 1 0.0148909 0.0107505 0.0164902 0.0188122 0.025688 0.0307304 0.031397 0.0387159 0.0378416 0.0559192 0.0442259 0.0694283 0.0519291 0.0659094 0.0677073 0.0709232 0.0618146 0.0836469 0.0799074 0.0765421
87 2 Si 5.55495 16.2705 1.4948 2.4 1 0.0121118 0.0199406 0.0220116 0.0268847 0.018504 0.0423852 0.0366503 0.0422952 0.0455858 0.0521001 0.043458 0.0610734 0.0538711 0.0638847 0.0698152 0.0591903 0.0724269 0.0797062 0.0598244 0.0697435
88 3 O 5.6115 17.8838 1.4948 -1.2 1 0.0268879 0.0180721 0.0232081 0.0258073 0.0193102 0.0434401 0.0453364 0.0610857 0.0376267 0.0502255 0.0378795 0.0672066 0.0509844 0.0557877 0.0639094 0.0574151 0.065542 0.0616219 0.063191 0.0693706
89 3 O 1.93416 15.2965 1.4948 -1.2 1 0.0414247 0.0158506 0.0195329 0.00977871 0.0350951 0.0311593 0.0366788 0.0576111 0.0420684 0.0465551 0.0489099 0.0503287 0.0473274 0.0734825 0.080665 0.0768641 0.0595677 0.0738896 0.0625865 0.0768492
90 3 O 4.85636 15.5644 0.196716 -1.2 1 0.0260489 0.0108399 0.0221568 0.0195368 0.0237965 0.0514844 0.050558 0.0402044 0.0410349 0.0465187 0.0365599 0.0338055 0.0642236 0.0548952 0.067139 0.0685443 0.0747251 0.0632486 0.0721283 0.0674762
91 1 Mg 6.44662 14.247 2.9896 1.2 1 0.0145129 0.0199391 0.0220043 0.0223837 0.0193637 0.0350488 0.0391303 0.0536709 0.035584 0.057389 0.0328995 0.0629185 0.0221752 0.0649935 0.0454148 0.0798454 0.0454608 0.091434 0.0446043 0.0915307
92 3 O 4.81537 15.5644 2.79288 -1.2 1 0.0183352 0.0138543 0.0238191 0.00897317 0.0283815 0.0366224 0.04712 0.0469656 0.043802 0.0406124 0.0504733 0.0449542 0.0511828 0.0522698 0.0740833 0.063577 0.0755702 0.0530472 0.071577 0.0763312
93 1 Mg -0.948271 14.2883 4.4844 1.2 1 0.0124481 0.00909609 0.0149675 0.0256898 0.029704 0.026791 0.0361251 0.0339336 0.0475254 0.049879 0.0566827 0.0574435 0.0647548 0.0690307 0.0579749 0.0682034 0.0691189 0.0985059 0.0748534 0.0797069
94 2 Si -2.75928 16.9724 4.4844 2.4 1 0.0212934 0.0145524 0.0176198 0.0272254 0.0261236 0.0416199 0.0570525 0.030531 0.0541893 0.0658164 0.0523314 0.0620767 0.0581272 0.0542944 0.0755716 0.0705493 0.0513493 0.0922681 0.0560662 0.0656043
95 3 O -2.81617 15.3592 4.4844 -1.2 1 0.0206616 0.00823545 0.0180805 0.0250591 0.0289909 0.0247307 0.0418664 0.0667999 0.0460832 0.0495818 0.0369907 0.0713491 0.0487559 0.0592127 0.0665417 0.0687012 0.052878 0.0751325 0.0596819 0.0728269
96 3 O 0.862762 17.9465 4.4844 -1.2 1 0.0135314 0.0240545 0.0183137 0.0177618 0.0180695 0.0516233 0.0346512 0.0518867 0.0433012 0.0524109 0.0444754 0.0470577 0.0462112 0.0735941 0.103307 0.0568004 0.07255 0.0552601 0.074181 0.0693791
97 3 O -2.0185 17.6786 3.18632 -1.2 1 0.0185592 0.00981531 0.0184698 0.0165472 0.0185553 0.0403045 0.0427279 0.0561779 0.0449213 0.0520119 0.053738 0.0486734 0.0559272 0.0490274 0.0822434 0.0612457 0.0697269 0.066225 0.0625276 0.0684384
98 3 O -2.06164 17.6786 5.78248 -1.2 1 0.0127495 0.00747934 0.0223396 0.0225518 0.0131314 0.0302641 0.0500627 0.0407435 0.0408621 0.0382608 0.0565051 0.0364336 0.0563586 0.0623307 0.0805346 0.0689103 0.0696179 0.063689 0.070219 0.0772139
99 1 Mg 1.39817 16.6215 2.9896 1.2 1 0.00962478 0.0169471 0.0228112 0.0242889 0.0185689 0.0349467 0.0377303 0.0529847 0.0373071 0.0608491 0.0383071 0.0556671 0.0211891 0.0656751 0.0457202 0.0809787 0.0482745 0.0907062 0.0438998 0.0887762
100 1 Mg 4.20062 16.5802 4.4844 1.2 1 0.0116015 0.0153092 0.0201582 0.0287787 0.0256754 0.0299943 0.0393949 0.0369796 0.0471414 0.0514289 0.0588178 0.0515071 0.0706013 0.067662 0.0509567 0.0743223 0.0704814 0.094479 0.0731977 0.0786855
101 2 Si 2.37796 18.645 4.4844 2.4 1 0.0216542 0.00751564 0.0260265 0.0311052 0.0279454 0.0346492 0.0609772 0.031052 0.0533527 0.0604862 0.0506874 0.0632275 0.0590231 0.0550664 0.0734032 0.0684928 0.043592 0.0994521 0.0529797 0.0577386
102 3 O 2.39434 20.2583 4.4844 -1.2 1 0.0211553 0.0109486 0.00809721 0.0159052 0.0234709 0.0228287 0.0392918 0.0584298 0.0405041 0.0494431 0.0418217 0.07431 0.0504972 0.0630183 0.0710669 0.0678293 0.0509895 0.0697551 0.067285 0.0772037
103 3 O -4.24274 17.671 4.4844 -1.2 1 0.0141982 0.017845 0.021692 0.0185062 0.0218559 0.0499574 0.0334379 0.0522926 0.0436163 0.0520877 0.0370463 0.0509309 0.0501198 0.0687496 0.10321 0.0607666 0.0784199 0.0534332 0.0761534 0.0689199
104 3 O 3.08659 17.9389 3.18632 -1.2 1 0.0254719 0.0142068 0.0202594 0.0115553 0.0183658 0.0401898 0.0383569 0.0568721 0.0462428 0.0491718 0.0569542 0.0475908 0.0519622 0.051557 0.0795825 0.0611582 0.0684523 0.060514 0.0615189 0.0683608
105 1 Mg 1.44478 16.6215 0 1.2 1 0.00946773 0.0122084 0.021613 0.0128127 0.0264688 0.0316985 0.0482544 0.035859 0.0506193 0.0508609 0.051614 0.0395252 0.0586726 0.0492772 0.0699384 0.065473 0.0604227 0.0673361 0.0888698 0.0634069
106 3 O 3.0436 17.9389 5.78248 -1.2 1 0.0191191 0.0162101 0.0183996 0.0211669 0.0180542 0.0258741 0.0455478 0.0476572 0.0417791 0.0385214 0.0598439 0.0383422 0.0549427 0.0598099 0.087121 0.0659149 0.0695175 0.0628243 0.067143 0.0776714
107 1 Mg -1.40524 16.6628 1.4948 1.2 1 0.0116098 0.0125503 0.0256796 0.0177451 0.0172615 0.0345116 0.035936 0.0426997 0.0413345 0.0603505 0.0403389 0.0625368 0.0548201 0.0643844 0.074075 0.069128 0.0644229 0.0779998 0.0779663 0.0758131
108 2 Si 0.420358 14.5979 1.4948 2.4 1 0.0209069 0.0196227 0.0272805 0.0268664 0.0182258 0.0393128 0.0395661 0.039838 0.0451831 0.0557746 0.0440712 0.0601586 0.0577232 0.0638107 0.0677215 0.0596828 0.0722651 0.0759558 0.0625412 0.0712686
109 3 O 0.408732 12.9847 1.4948 -1.2 1 0.0242903 0.0161624 0.0219417 0.027314 0.0159133 0.0480674 0.0418403 0.0536614 0.0358111 0.0523224 0.0432251 0.0679104 0.0533268 0.0557562 0.0641089 0.0623582 0.0714884 0.0546531 0.0675083 0.0728478
110 3 O 7.03923 15.572 1.4948 -1.2 1 0.0293054 0.0166973 0.0216208 0.0126819 0.035995 0.0338828 0.0368257 0.0561504 0.0387942 0.0447394 0.0511468 0.0532285 0.0477524 0.0739277 0.0779407 0.0784432 0.0640731 0.0696293 0.0622685 0.0772249
111 3 O -0.248332 15.3041 0.196716 -1.2 1 0.0219941 0.0121255 0.0220929 0.0192192 0.024326 0.0463964 0.0500508 0.0436295 0.0402539 0.0467288 0.0370139 0.0319916 0.0622311 0.054765 0.0701085 0.0654054 0.0819522 0.050573 0.0697324 0.0711647
112 3 O -0.289436 15.3041 2.79288 -1.2 1 0.0145655 0.014344 0.0298918 0.0112363 0.0306459 0.0385545 0.0453114 0.0460718 0.0459944 0.0394465 0.0548143 0.0474037 0.0511408 0.0537705 0.0716289 0.0675208 0.0722682 0.0555736 0.0703368 0.0761339
113 1 Mg 6.59566 18.996 0 1.2 1 0.014596 0.0130931 0.0209059 0.0127963 0.0257268 0.0322805 0.0439944 0.0342712 0.0535617 0.0492458 0.0533217 0.0387302 0.05319 0.0530664 0.0716984 0.0640399 0.0636421 0.0642526 0.0870959 0.0698578
114 1 Mg 3.85574 23.7037 1.4948 1.2 1 0.00883202 0.0141166 0.0220037 0.0158294 0.0233873 0.0296996 0.031723 0.0359854 0.0384258 0.0588159 0.0461845 0.0654283 0.0511508 0.0678207 0.0653196 0.072801 0.065479 0.0805688 0.0805092 0.0761511
115 2 Si 5.66125 21.0195 1.4948 2.4 1 0.00859855 0.0227424 0.0247366 0.0274906 0.0199929 0.0456705 0.0340651 0.0434267 0.0476252 0.0541983 0.0444971 0.0619572 0.0552819 0.0595426 0.0706641 0.0609693 0.0730151 0.0772168 0.0642092 0.0750797
116 3 O 5.72074 22.6328 1.4948 -1.2 1 0.0282761 0.0192122 0.0183914 0.0225479 0.0191636 0.0447411 0.0455344 0.0617135 0.0381365 0.0518532 0.0330308 0.0700082 0.0497022 0.0536138 0.0685859 0.0561898 0.0650773 0.0677695 0.0565569 0.0709311
117 3 O 2.03867 20.0455 1.4948 -1.2 1 0.0300366 0.0165168 0.026679 0.0159173 0.0341457 0.0303187 0.0356801 0.0557973 0.0443091 0.0430108 0.0505016 0.0508391 0.0474812 0.0734412 0.0846312 0.0722802 0.0618061 0.0677645 0.0633466 0.0731241
118 3 O 4.96004 20.3134 0.196716 -1.2 1 0.0242113 0.0102915 0.0242831 0.0198717 0.0223943 0.045763 0.0451865 0.0480626 0.0405219 0.0421905 0.0406508 0.0352287 0.0653237 0.0479643 0.069862 0.0738269 0.0705086 0.0581219 0.071076 0.0713883
119 1 Mg 6.55057 18.996 2.9896 1.2 1 0.00882911 0.0165392 0.0213344 0.0203576 0.0246705 0.0338844 0.0391268 0.0572538 0.033763 0.0611382 0.0350199 0.0629435 0.0231678 0.0702896 0.0445537 0.0730521 0.0447231 0.0943096 0.0442881 0.0937237
120 3 O 4.92172 20.3134 2.79288 -1.2 1 0.010037 0.011422 0.0312591 0.0147311 0.0294605 0.040405 0.0463281 0.0462521 0.0473218 0.0426497 0.0525746 0.0399888 0.0531415 0.0535168 0.0773821 0.0684262 0.0759623 0.048634 0.0713808 0.0719481
121 1 Mg -0.84282 19.0373 4.4844 1.2 1 0.0124766 0.0104538 0.0137532 0.0258527 0.0241895 0.0247051 0.0409311 0.0297694 0.0478927 0.0497023 0.0611267 0.0557168 0.0657577 0.0677084 0.0581091 0.0727013 0.0713048 0.0929263 0.0700488 0.0827358
122 2 Si -2.64823 21.7214 4.4844 2.4 1 0.0236098 0.018942 0.0214872 0.0287074 0.0286972 0.0400408 0.055092 0.0313646 0.0528592 0.0675411 0.0510622 0.0638748 0.0551846 0.052336 0.0739676 0.0740868 0.0505374 0.0929067 0.0533277 0.0650272
123 3 O -2.70847 20.1082 4.4844 -1.2 1 0.0145278 0.0116077 0.0208648 0.0276281 0.0278303 0.0239125 0.0389372 0.0655656 0.0427989 0.0462879 0.0392488 0.0719429 0.0510452 0.058526 0.0648128 0.0655726 0.0475359 0.0730401 0.0649051 0.0756907
124 3 O 0.97581 22.6955 4.4844 -1.2 1 0.0120671 0.0237276 0.0208566 0.0176356 0.0187992 0.0401225 0.0327977 0.0518981 0.0459708 0.0553655 0.0388888 0.0461207 0.0451352 0.0728108 0.107835 0.0524212 0.0678514 0.0541057 0.0729858 0.0674529
125 3 O -1.9076 22.4276 3.18632 -1.2 1 0.0219923 0.00813972 0.0212108 0.0164637 0.0142432 0.0369793 0.0447825 0.0556847 0.0382824 0.049816 0.0543722 0.049034 0.056485 0.0478464 0.0810755 0.0573297 0.0688761 0.0655482 0.0617248 0.0646858
126 3 O -1.9475 22.4276 5.78248 -1.2 1 0.0199701 0.0118493 0.0201277 0.0230145 0.0149868 0.0271084 0.0474419 0.0467346 0.0364241 0.0369056 0.0573701 0.0355505 0.0552573 0.0554263 0.0825614 0.0660821 0.068733 0.0607757 0.0693916 0.0766771