ITEM: TIMESTEP
28400
ITEM: NUMBER OF ATOMS
10500
ITEM: BOX BOUNDS xy xz yz pp pp pp
0	15.2977	5.09925
0	118.725	0
0	89.688	0
ITEM: ATOMS id type element xu yu zu q Q_1 Q_2 Q_3 Q_4 Q_5 Q_6 Q_7 Q_8 Q_9 Q_10 Q_11 Q_12 Q_13 Q_14 Q_15 Q_16 Q_17 Q_18 Q_19 Q_20 Q_21
1 1 Mg 6.2404 -6.37941e-06 0 1.2 1 0.0131464 0.0408305 0.0296593 0.0357428 0.033264 0.0411981 0.0356973 0.0686509 0.0390453 0.0711448 0.0342203 0.0594053 0.0462207 0.0682506 0.0497142 0.0922549 0.0518245 0.0838432 0.0509017 0.102406
2 1 Mg 3.46349 4.70768 1.4948 1.2 1 0.0169172 0.01689 0.0243045 0.0215784 0.0201623 0.0421241 0.041936 0.0398545 0.0459145 0.0553809 0.0428231 0.0706064 0.0575849 0.0708243 0.07144 0.0647124 0.0678512 0.0856064 0.072642 0.0816503
3 2 Si 5.2885 2.02354 1.4948 2.4 1 0.0200344 0.0218964 0.0339322 0.0284515 0.0303052 0.0376488 0.0537231 0.0323107 0.0440453 0.0540029 0.0547095 0.0615133 0.0547161 0.0652324 0.0682031 0.0795909 0.0709694 0.0643933 0.0635933 0.0726562
4 3 O 5.33628 3.63678 1.4948 -1.2 1 0.00927984 0.0141151 0.0269394 0.02584 0.0183174 0.0389638 0.0416871 0.060266 0.0351687 0.0405983 0.0546536 0.0508018 0.0673942 0.0572828 0.0589777 0.0653333 0.0599048 0.0617217 0.0711027 0.0744334
5 3 O 1.67294 1.04952 1.4948 -1.2 1 0.0164081 0.0219831 0.0232558 0.0357264 0.0294797 0.0387239 0.0341573 0.0608633 0.0348613 0.059478 0.0440223 0.050758 0.0714392 0.0594332 0.0761246 0.0692402 0.0626808 0.0643445 0.0793857 0.0604702
6 3 O 4.59532 1.31737 0.196716 -1.2 1 0.0259317 0.0221953 0.0575552 0.0251228 0.0334279 0.0487397 0.0385657 0.0474495 0.0339538 0.0394338 0.0387467 0.0507209 0.0542752 0.0569633 0.06371 0.0700348 0.0618015 0.0712514 0.0590962 0.0705446
7 1 Mg 6.18956 -6.37941e-06 2.9896 1.2 1 0.0155256 0.028697 0.0154069 0.0212535 0.0360783 0.0446203 0.0501161 0.0428201 0.0477054 0.0455016 0.0378879 0.0568221 0.0398868 0.0559598 0.0584202 0.08003 0.0567827 0.0685344 0.0596235 0.0704486
8 3 O 4.55118 1.31737 2.79288 -1.2 1 0.0244694 0.0257727 0.0409928 0.0172157 0.028662 0.0439795 0.0445237 0.0474828 0.0441766 0.0543681 0.0547654 0.0486713 0.0502635 0.0660217 0.0531858 0.0696507 0.0642685 0.0665509 0.0658192 0.0716105
9 1 Mg -1.20682 0.0413099 4.4844 1.2 1 0.0178991 0.0252426 0.0223379 0.0276856 0.0361374 0.0390461 0.0340364 0.051043 0.0538108 0.0384273 0.0496692 0.0610953 0.0654655 0.0559548 0.0772246 0.0621776 0.0813567 0.0748961 0.06278 0.0540556
10 2 Si -3.0337 2.72544 4.4844 2.4 1 0.0338636 0.0147286 0.0207294 0.0145194 0.034083 0.0381452 0.0587036 0.0364581 0.0620829 0.0530808 0.048035 0.0629999 0.0608715 0.0746982 0.0552918 0.0620101 0.0700965 0.0803141 0.0712296 0.0596864
11 3 O -3.08099 1.11221 4.4844 -1.2 1 0.0129551 0.0217566 0.0262253 0.0249738 0.0403192 0.0258152 0.0489854 0.0460038 0.0402003 0.0403223 0.0395584 0.0712864 0.0544458 0.0517847 0.0544287 0.0675845 0.0548633 0.0780013 0.073758 0.0765838
12 3 O 0.582463 3.69946 4.4844 -1.2 1 0.014797 0.00957796 0.0347342 0.0307021 0.0274168 0.0607367 0.0328381 0.0541633 0.0437202 0.0384751 0.0534863 0.0571245 0.0590384 0.0725113 0.100138 0.0721257 0.08146 0.0399869 0.072699 0.0657567
13 3 O -2.29524 3.43162 3.18632 -1.2 1 0.0125611 0.020085 0.0255698 0.0312096 0.0193 0.0499472 0.0515804 0.049265 0.0415258 0.0532862 0.0591847 0.0541184 0.0416167 0.0515356 0.0590013 0.0648985 0.0655739 0.0620645 0.0636968 0.0722216
14 3 O -2.34216 3.43162 5.78248 -1.2 1 0.0182727 0.0141662 0.0202907 0.0298683 0.0268248 0.0419901 0.0518802 0.0476952 0.0410499 0.0556134 0.0571728 0.0462036 0.0597829 0.05263 0.0747243 0.072407 0.0650176 0.0690986 0.0732046 0.0730068
15 1 Mg 1.12778 2.37449 2.9896 1.2 1 0.0188929 0.0392909 0.0144859 0.02424 0.0241242 0.0438359 0.0406412 0.0514415 0.0359914 0.0613878 0.035712 0.0605754 0.039873 0.0675934 0.0647911 0.0705979 0.0688117 0.0814247 0.0445715 0.0874151
16 1 Mg 3.92855 2.33318 4.4844 1.2 1 0.0285795 0.0152358 0.0241269 0.0312021 0.0436758 0.0251552 0.0362789 0.0376086 0.0467441 0.068832 0.0508785 0.0598922 0.0509961 0.0604858 0.0545078 0.0757631 0.0627165 0.09423 0.0748048 0.0835572
17 2 Si 2.09341 4.39804 4.4844 2.4 1 0.0185818 0.0234949 0.0314942 0.0135137 0.0416454 0.0268842 0.060876 0.0208371 0.0438176 0.0466051 0.062857 0.0630101 0.069072 0.0592234 0.0730469 0.07566 0.0713616 0.0805925 0.052904 0.0648595
18 3 O 2.09991 6.01128 4.4844 -1.2 1 0.0101189 0.0128689 0.0177178 0.0196945 0.0328069 0.0233795 0.0514627 0.0520356 0.0465441 0.0457946 0.0471571 0.0654383 0.0460683 0.0631922 0.0652632 0.0721355 0.044761 0.0796363 0.061908 0.0725712
19 3 O -4.52137 3.42402 4.4844 -1.2 1 0.0234568 0.027734 0.0362974 0.0208209 0.026664 0.0554641 0.0357606 0.0477045 0.0551802 0.0576051 0.0297786 0.0577061 0.0522106 0.0548913 0.0912173 0.0706213 0.0741946 0.0606347 0.075816 0.0561171
20 3 O 2.80834 3.69187 3.18632 -1.2 1 0.00633848 0.0230974 0.0225448 0.0270913 0.0187539 0.0372744 0.0351924 0.049623 0.0440284 0.0576591 0.0667031 0.0547231 0.0418946 0.0631351 0.0699051 0.0729491 0.0596404 0.0590027 0.0706782 0.0718454
21 1 Mg 1.17857 2.37449 0 1.2 1 0.0148144 0.0345336 0.0286668 0.0278579 0.0374698 0.0382961 0.0433125 0.0592277 0.0360384 0.0493904 0.0509815 0.0420093 0.0420607 0.067391 0.0560069 0.0642685 0.061429 0.0804887 0.0593465 0.0734311
22 3 O 2.76143 3.69187 5.78248 -1.2 1 0.00814125 0.0240103 0.0199249 0.0228852 0.0183742 0.0311049 0.0404126 0.0445483 0.0348473 0.0478336 0.0595594 0.045187 0.0580694 0.076796 0.0753857 0.0702224 0.0723947 0.0600894 0.0701954 0.0738892
23 1 Mg -1.67381 2.41581 1.4948 1.2 1 0.0154781 0.015867 0.0347739 0.0387675 0.0335762 0.0439433 0.0601572 0.0396486 0.0524488 0.0395296 0.0462365 0.0579145 0.0555535 0.0634022 0.0613835 0.0643544 0.0830562 0.0775787 0.0666856 0.0739525
24 2 Si 0.16286 0.350945 1.4948 2.4 1 0.0159802 0.0357595 0.0278464 0.027799 0.0341556 0.0353435 0.0557937 0.0484419 0.0529151 0.0495365 0.0399361 0.0557854 0.0733586 0.0706576 0.0599577 0.0748769 0.07246 0.0651439 0.0726841 0.0663472
25 3 O 0.15972 -1.26229 1.4948 -1.2 1 0.00909336 0.0154019 0.0396164 0.0215105 0.0374972 0.036085 0.0455062 0.0568494 0.0470676 0.051462 0.0558919 0.0561179 0.0632284 0.066244 0.0498543 0.0597413 0.0697368 0.0662023 0.0626304 0.0745228
26 3 O 6.77654 1.32496 1.4948 -1.2 1 0.0113986 0.0277645 0.026772 0.0277626 0.0373187 0.0545105 0.0343576 0.0644527 0.0477647 0.0468277 0.0444202 0.0529195 0.0518842 0.0587969 0.0688033 0.0718769 0.0849327 0.0630056 0.059989 0.0748734
27 3 O -0.508028 1.05712 0.196716 -1.2 1 0.0245577 0.0190094 0.0295158 0.0207134 0.029201 0.0532282 0.0437709 0.0446264 0.0471688 0.0482775 0.050124 0.0478073 0.049466 0.0633302 0.0550799 0.0629638 0.0631152 0.0587434 0.072545 0.0715497
28 3 O -0.552171 1.05712 2.79288 -1.2 1 0.0379489 0.0287259 0.0361305 0.030818 0.0239409 0.0433652 0.0416082 0.045359 0.042514 0.0348897 0.0481189 0.0503088 0.0594311 0.0620068 0.0655232 0.0770055 0.0726084 0.0518801 0.0725052 0.0699296
29 1 Mg 6.31713 4.74899 0 1.2 1 0.0270281 0.0297197 0.0298044 0.035902 0.0319577 0.0254792 0.0408298 0.0569872 0.0586898 0.0496735 0.0511528 0.0391407 0.0584117 0.0619038 0.066171 0.0635912 0.0662941 0.0738366 0.0705488 0.0698741
30 1 Mg 3.54847 9.45668 1.4948 1.2 1 0.0218362 0.0142684 0.0182128 0.020432 0.0182783 0.0383923 0.037825 0.0419395 0.0449506 0.0553798 0.0386645 0.0693851 0.0522862 0.0649719 0.071633 0.0634314 0.0665202 0.0873437 0.0741939 0.0789535
31 2 Si 5.36879 6.77254 1.4948 2.4 1 0.0290858 0.0268694 0.0239756 0.0256719 0.0248548 0.0348775 0.0443563 0.0362865 0.0448702 0.0572922 0.0420724 0.0580789 0.0533145 0.0666406 0.0656233 0.0742794 0.067052 0.0789188 0.0560277 0.0684487
32 3 O 5.41937 8.38578 1.4948 -1.2 1 0.0214978 0.0114211 0.0234726 0.0297375 0.0175109 0.0431816 0.0440045 0.0574063 0.0361779 0.0507654 0.0473236 0.0640257 0.0549141 0.053991 0.0662521 0.0605864 0.0728343 0.0560186 0.0731023 0.0731304
33 3 O 1.75158 5.79852 1.4948 -1.2 1 0.0284754 0.0123952 0.0223998 0.0266778 0.0441253 0.0305143 0.0394695 0.0566175 0.040855 0.0524254 0.0495864 0.0503027 0.0472583 0.0714044 0.0787135 0.0784524 0.0601821 0.0751848 0.0602691 0.0767668
34 3 O 4.67421 6.06637 0.196716 -1.2 1 0.0146415 0.0264693 0.0316269 0.0244321 0.0319958 0.0377575 0.0345909 0.0320785 0.0448382 0.0561047 0.0392345 0.0442379 0.0668514 0.0561103 0.0677198 0.0712319 0.0713854 0.0657471 0.0631071 0.0682547
35 1 Mg 6.26654 4.74899 2.9896 1.2 1 0.0221839 0.0245286 0.0234939 0.043296 0.0256294 0.044398 0.0479721 0.0485233 0.0360214 0.062139 0.037371 0.0598586 0.0379885 0.0648091 0.0524817 0.0772138 0.0561702 0.0838752 0.0460763 0.0904548
36 3 O 4.63043 6.06637 2.79288 -1.2 1 0.0163609 0.0196255 0.0422992 0.0198596 0.0321061 0.0363458 0.0421377 0.0484251 0.0453835 0.0364005 0.0499735 0.0520372 0.0574764 0.0655119 0.0622458 0.0732151 0.0657676 0.0676189 0.0675556 0.0843105
37 1 Mg -1.12976 4.79031 4.4844 1.2 1 0.0237424 0.0266096 0.0151702 0.0141392 0.035047 0.038502 0.0468593 0.0484277 0.0435078 0.0450728 0.0547264 0.0610875 0.0752704 0.0720757 0.0613155 0.0674602 0.0711916 0.094084 0.0728209 0.0802938
38 2 Si -2.9517 7.47444 4.4844 2.4 1 0.0202061 0.0170896 0.0164453 0.0242412 0.0330758 0.0433948 0.060893 0.0272837 0.0524339 0.0585576 0.0525957 0.0589281 0.0630678 0.0574389 0.0794528 0.0699064 0.0561108 0.0893726 0.0593852 0.0579142
39 3 O -3.00198 5.86121 4.4844 -1.2 1 0.0116107 0.0224301 0.0281038 0.0268319 0.0310326 0.0334607 0.0528752 0.0618623 0.0387201 0.0535219 0.046653 0.0711173 0.0600079 0.0558423 0.0661375 0.0711451 0.0501773 0.0772227 0.0638389 0.0770671
40 3 O 0.666315 8.44846 4.4844 -1.2 1 0.00670317 0.020489 0.0266503 0.0197832 0.0206357 0.0526264 0.0322344 0.0496118 0.04406 0.048583 0.0418171 0.0531787 0.0490259 0.0766824 0.100866 0.0702817 0.076794 0.0490041 0.0690986 0.072386
41 3 O -2.21213 8.18062 3.18632 -1.2 1 0.0216639 0.0120296 0.0200135 0.0158836 0.0155708 0.0329996 0.0460017 0.0535286 0.0431015 0.0558073 0.0519467 0.0527151 0.0526967 0.0472605 0.0786342 0.0625858 0.0714745 0.0597961 0.0680666 0.0714477
42 3 O -2.25864 8.18062 5.78248 -1.2 1 0.0141703 0.0114333 0.0227595 0.0202985 0.0211774 0.0277697 0.0508748 0.0463809 0.0412375 0.0411553 0.0553775 0.0399953 0.0580118 0.0626741 0.0828061 0.0696654 0.0719668 0.0634776 0.0677701 0.0736505
43 1 Mg 1.20893 7.12349 2.9896 1.2 1 0.00760623 0.0228318 0.0186573 0.0249379 0.023887 0.0390652 0.0425836 0.0463625 0.0345183 0.0653432 0.0391441 0.0666289 0.0362898 0.0586847 0.0522942 0.0794776 0.0517479 0.0841734 0.0474599 0.0886641
44 1 Mg 4.00982 7.08218 4.4844 1.2 1 0.0209176 0.0185867 0.0236032 0.0347621 0.0334778 0.0338449 0.0458365 0.0366588 0.0458888 0.0517548 0.0574325 0.0544134 0.0694898 0.0732966 0.0559574 0.0666187 0.0641464 0.0968983 0.0758671 0.0832866
45 2 Si 2.17861 9.14704 4.4844 2.4 1 0.0246249 0.00909647 0.0271841 0.0276556 0.0331125 0.0308167 0.0609853 0.0277701 0.0478618 0.0571842 0.0549061 0.0614834 0.0668016 0.0585042 0.0824741 0.0678216 0.0498191 0.0908842 0.0548703 0.0571062
46 3 O 2.18828 10.7603 4.4844 -1.2 1 0.0203714 0.011657 0.00352477 0.0188355 0.024578 0.0232455 0.0419541 0.0599842 0.0405784 0.0505108 0.0409477 0.0726004 0.0456302 0.0642983 0.0701473 0.0706565 0.0446857 0.0715476 0.0655258 0.0721084
47 3 O -4.43805 8.17302 4.4844 -1.2 1 0.0192161 0.0206671 0.0157577 0.0156261 0.021159 0.0554415 0.036469 0.0477298 0.0429798 0.0495084 0.0371559 0.0535775 0.0531922 0.0716491 0.0983076 0.0655432 0.0795671 0.0535504 0.0730929 0.0736943
48 3 O 2.89193 8.44087 3.18632 -1.2 1 0.0182292 0.0161322 0.0178139 0.0145977 0.0210953 0.041269 0.0337431 0.0555242 0.043353 0.0513145 0.0592444 0.0491191 0.0512656 0.0530115 0.0801973 0.0633288 0.0703192 0.0597122 0.0645663 0.0741759
49 1 Mg 1.25915 7.12349 0 1.2 1 0.0186106 0.017555 0.0282328 0.0150727 0.0318589 0.0249771 0.0503983 0.0400137 0.0560249 0.0495585 0.05381 0.0426212 0.0711623 0.0512889 0.0686119 0.0706351 0.0644875 0.0707103 0.0793138 0.0587176
50 3 O 2.84547 8.44087 5.78248 -1.2 1 0.0140621 0.0166994 0.0155666 0.0185894 0.0188812 0.02825 0.0437931 0.0478463 0.037505 0.0409153 0.0596398 0.0440998 0.0559664 0.060367 0.0895267 0.0629655 0.0717047 0.0650053 0.0648883 0.0770429
51 1 Mg -1.59284 7.16481 1.4948 1.2 1 0.00976537 0.0163984 0.0203249 0.0204326 0.0149012 0.0372221 0.0465194 0.0424638 0.043257 0.0576605 0.0390089 0.0658438 0.0519309 0.0692558 0.0753668 0.0606759 0.0677993 0.0843876 0.0738409 0.0782965
52 2 Si 0.240329 5.09994 1.4948 2.4 1 0.0246287 0.0172402 0.0160585 0.0433825 0.027305 0.0405648 0.0467378 0.0532701 0.0549268 0.0488808 0.0455396 0.057215 0.0592541 0.0682291 0.0655298 0.0664299 0.0641014 0.072956 0.0665523 0.0680324
53 3 O 0.234538 3.48671 1.4948 -1.2 1 0.0130712 0.0164523 0.0264922 0.0359049 0.0313646 0.0491708 0.0459493 0.042525 0.0529119 0.0471424 0.0522473 0.061432 0.055756 0.0607755 0.0613755 0.0628373 0.0626733 0.0569718 0.0761215 0.0740133
54 3 O 6.85564 6.07396 1.4948 -1.2 1 0.0324352 0.0193729 0.0343952 0.0276932 0.0372441 0.0403946 0.0325053 0.062287 0.0365344 0.0532698 0.0540157 0.0536251 0.0550447 0.0732209 0.0696502 0.0772354 0.0666649 0.0724068 0.0531662 0.084888
55 3 O -0.429565 5.80612 0.196716 -1.2 1 0.0341084 0.0200561 0.0157008 0.0210401 0.0410311 0.0374877 0.0538371 0.0451158 0.0461743 0.0561066 0.0398161 0.0420768 0.0537552 0.0599793 0.0599121 0.0682804 0.0700806 0.0612245 0.0650827 0.0736269
56 3 O -0.473377 5.80612 2.79288 -1.2 1 0.0245432 0.0216129 0.0338975 0.0188041 0.0346526 0.0463242 0.0494132 0.0481817 0.0550114 0.0456487 0.0622314 0.0386029 0.0436769 0.0586712 0.0665361 0.0716603 0.0659599 0.0683313 0.0713626 0.0807443
57 1 Mg 6.40169 9.49799 0 1.2 1 0.0127971 0.011777 0.0212614 0.0141159 0.0304674 0.0211619 0.0521041 0.0355479 0.0586126 0.0491234 0.049757 0.0355106 0.0671916 0.0527601 0.0711421 0.0672711 0.0650643 0.0707182 0.0808301 0.068849
58 1 Mg 3.64209 14.2057 1.4948 1.2 1 0.0062438 0.0138388 0.0176709 0.019288 0.0216739 0.0341587 0.0363089 0.0432786 0.0401903 0.0544421 0.0388418 0.0690801 0.0544378 0.0663296 0.0747511 0.0632248 0.0637929 0.0833438 0.0749194 0.0784237
59 2 Si 5.45748 11.5215 1.4948 2.4 1 0.0119233 0.0218499 0.0233565 0.0248614 0.0180222 0.0402823 0.0397094 0.0399049 0.0436201 0.05469 0.0423689 0.0602628 0.0532303 0.0663871 0.0694746 0.0634849 0.0710518 0.0818281 0.0583455 0.0665073
60 3 O 5.51101 13.1348 1.4948 -1.2 1 0.0241055 0.0135738 0.0224194 0.0293555 0.0199648 0.0434858 0.0443417 0.0590216 0.036311 0.0495733 0.043097 0.0671937 0.05335 0.0533552 0.0658005 0.0601315 0.0709313 0.0576729 0.06972 0.0718459
61 3 O 1.83851 10.5475 1.4948 -1.2 1 0.035174 0.0140577 0.0215395 0.01376 0.0362659 0.0303322 0.0365021 0.0590495 0.0398234 0.0484227 0.0498299 0.0517864 0.0471406 0.0746874 0.0755784 0.080099 0.0566327 0.0759785 0.0577515 0.078777
62 3 O 4.7611 10.8154 0.196716 -1.2 1 0.0356833 0.0192059 0.0197601 0.018124 0.0267512 0.0443322 0.0483851 0.0376532 0.0387997 0.0493668 0.0369111 0.0410164 0.0606618 0.0609728 0.0649437 0.0715247 0.0755829 0.0655807 0.0729999 0.0679686
63 1 Mg 6.35203 9.49799 2.9896 1.2 1 0.0132854 0.0171845 0.0259773 0.0213524 0.0192772 0.0382378 0.0367519 0.0515603 0.0346265 0.058089 0.0318098 0.0650172 0.0285771 0.0661769 0.0483395 0.0798651 0.0457352 0.0899026 0.0449008 0.0908286
64 3 O 4.71833 10.8154 2.79288 -1.2 1 0.0215803 0.0128247 0.0318824 0.0127617 0.0298499 0.0435086 0.0436557 0.0447498 0.0435556 0.0374396 0.0533913 0.0420837 0.0540654 0.060013 0.0734351 0.0695445 0.0720509 0.0593833 0.068818 0.0805211
65 1 Mg -1.0438 9.53931 4.4844 1.2 1 0.00901474 0.015221 0.0164594 0.0200725 0.0290199 0.030004 0.0332356 0.0381778 0.0454691 0.0520664 0.0558673 0.0582582 0.0675572 0.0695919 0.0581986 0.0715844 0.0704636 0.100578 0.0694013 0.0825931
66 2 Si -2.8604 12.2234 4.4844 2.4 1 0.0182798 0.0160344 0.0194509 0.0228274 0.028022 0.0430092 0.055545 0.0311238 0.050829 0.0644676 0.0552268 0.0622415 0.0588518 0.0580198 0.0795105 0.0682911 0.0529066 0.093235 0.0573068 0.0628446
67 3 O -2.91391 10.6102 4.4844 -1.2 1 0.0214356 0.00961102 0.00738182 0.0245551 0.0264157 0.026286 0.0430017 0.0659536 0.0421038 0.047735 0.0343879 0.0720146 0.0459631 0.0592931 0.067365 0.069652 0.0511327 0.0735776 0.0625028 0.0750032
68 3 O 0.7596 13.1975 4.4844 -1.2 1 0.0222534 0.0231903 0.0175477 0.0124987 0.0231094 0.0508896 0.0334317 0.0495883 0.044617 0.0491495 0.0405092 0.0509868 0.0468426 0.0719586 0.0994352 0.0627452 0.0763902 0.0533379 0.0699264 0.0727015
69 3 O -2.12001 12.9296 3.18632 -1.2 1 0.0241006 0.0109785 0.0200778 0.0172447 0.0197511 0.0347917 0.0405535 0.0536716 0.0440333 0.0547861 0.0523028 0.0505841 0.0553643 0.0477723 0.0799554 0.0630353 0.0730817 0.0644032 0.0673269 0.0700188
70 3 O -2.16532 12.9296 5.78248 -1.2 1 0.0175848 0.0149021 0.0200829 0.0215022 0.0191403 0.0282901 0.0497843 0.0457832 0.0407884 0.0394685 0.0571412 0.0393073 0.057882 0.0642222 0.0871394 0.0697879 0.0702038 0.064521 0.0734525 0.0761042
71 1 Mg 1.29891 11.8725 2.9896 1.2 1 0.00767699 0.0155624 0.0227266 0.0225634 0.0175097 0.0375945 0.0364263 0.0511708 0.0347132 0.0601023 0.0344029 0.0590231 0.026205 0.0679219 0.0493275 0.082164 0.0485896 0.0893611 0.0462396 0.0863069
72 1 Mg 4.10033 11.8312 4.4844 1.2 1 0.00959939 0.0146188 0.0184891 0.0244433 0.0281497 0.0335329 0.038162 0.035799 0.0467094 0.0524401 0.0529247 0.0543969 0.0678833 0.0695358 0.0519761 0.0717718 0.0686384 0.09973 0.0745092 0.0827158
73 2 Si 2.27333 13.896 4.4844 2.4 1 0.0232903 0.00417204 0.0258069 0.0236676 0.0280978 0.038351 0.0608628 0.0296957 0.0522264 0.0555782 0.0524297 0.0623156 0.0620562 0.0596637 0.0749341 0.0662282 0.0490735 0.0995517 0.0551681 0.0531535
74 3 O 2.28634 15.5093 4.4844 -1.2 1 0.0232589 0.0133451 0.0037665 0.0211795 0.0233202 0.0247931 0.0411544 0.0619231 0.0427541 0.0525204 0.0392762 0.0706991 0.0472539 0.0630912 0.0702783 0.070117 0.0518283 0.0692068 0.0647243 0.0736388
75 3 O -4.34533 12.922 4.4844 -1.2 1 0.029227 0.0227435 0.0208898 0.0106766 0.0242117 0.048857 0.0361449 0.0493734 0.0450337 0.0517343 0.0375477 0.05224 0.0486644 0.07147 0.098977 0.0680664 0.0767403 0.0519685 0.071628 0.0743745
76 3 O 2.98455 13.1899 3.18632 -1.2 1 0.0227723 0.0153822 0.0186077 0.0126893 0.0223108 0.0398617 0.0411455 0.0576185 0.0465656 0.0510765 0.0570585 0.0494336 0.0513361 0.051233 0.0811121 0.063771 0.0678584 0.059178 0.0655386 0.0713376
77 1 Mg 1.34779 11.8725 0 1.2 1 0.0218843 0.00937156 0.0220075 0.0148966 0.028489 0.0230261 0.0514482 0.0349876 0.0574379 0.0510754 0.0496276 0.035165 0.0651741 0.0500355 0.0703908 0.0638863 0.0615967 0.070008 0.0877381 0.0592912
78 3 O 2.93934 13.1899 5.78248 -1.2 1 0.0219871 0.0126026 0.0175634 0.0219324 0.0199933 0.0256763 0.048656 0.04511 0.0434193 0.0411321 0.0582952 0.0375609 0.0549812 0.0599962 0.0843126 0.0638951 0.0707988 0.0623297 0.0656348 0.0794224
79 1 Mg -1.50344 11.9138 1.4948 1.2 1 0.0082419 0.0210945 0.0217326 0.0224343 0.0137429 0.0371751 0.038447 0.0421074 0.0400196 0.0593313 0.0341341 0.0677755 0.0520677 0.064922 0.0758849 0.068418 0.0631446 0.084564 0.0772358 0.0788507
80 2 Si 0.326006 9.84894 1.4948 2.4 1 0.0250602 0.0194 0.024908 0.0304467 0.017204 0.0387736 0.0439305 0.0377475 0.0447269 0.055932 0.0403145 0.0598661 0.0551698 0.0669373 0.060945 0.0635975 0.0703792 0.0796301 0.0616442 0.0687892
81 3 O 0.317364 8.23571 1.4948 -1.2 1 0.0223637 0.0125539 0.0225529 0.0240763 0.0200582 0.0452286 0.0428815 0.0498425 0.0345368 0.0542338 0.0441109 0.0657837 0.0572887 0.0596793 0.0680656 0.0662589 0.0719397 0.0534689 0.0733261 0.0742779
82 3 O 6.94307 10.823 1.4948 -1.2 1 0.0312212 0.0148812 0.0220549 0.0117626 0.0373088 0.0329487 0.0381157 0.0578378 0.0347633 0.0477774 0.051301 0.052656 0.0500897 0.0746179 0.0726818 0.0797536 0.0615769 0.0727492 0.0582002 0.0802202
83 3 O -0.343122 10.5551 0.196716 -1.2 1 0.0308741 0.0174782 0.0216095 0.0208595 0.0298013 0.0413847 0.0512519 0.0397517 0.0386823 0.0505904 0.0370972 0.0376499 0.0614821 0.0609131 0.0687586 0.0708076 0.0809326 0.0542037 0.0702021 0.069292
84 3 O -0.385966 10.5551 2.79288 -1.2 1 0.0262107 0.0162054 0.0302417 0.0123954 0.033166 0.0425345 0.0442454 0.0467531 0.0434535 0.0404971 0.052342 0.0494686 0.0488956 0.0548893 0.06916 0.0709002 0.0662721 0.0615807 0.0663441 0.0806268
85 1 Mg 6.49448 14.247 0 1.2 1 0.0224868 0.0098711 0.0185511 0.0171024 0.028539 0.0228998 0.0478777 0.033108 0.0594496 0.0481756 0.0515166 0.037143 0.0624903 0.0527531 0.0710445 0.0652791 0.064519 0.0705735 0.0847084 0.0704557
86 1 Mg 3.74457 18.9547 1.4948 1.2 1 0.0106518 0.0136187 0.0166321 0.0172583 0.0266367 0.0303495 0.0317105 0.0384319 0.0373516 0.0569662 0.0428805 0.0692222 0.0518214 0.0671714 0.0711495 0.0699395 0.0622917 0.0839172 0.0792885 0.0761797
87 2 Si 5.55495 16.2705 1.4948 2.4 1 0.0120098 0.0202239 0.0220821 0.0268809 0.0184972 0.0426802 0.0363566 0.0420237 0.0451782 0.0518316 0.0434655 0.060927 0.0543065 0.0642136 0.0697725 0.0588169 0.0732512 0.0798695 0.0610707 0.0706221
88 3 O 5.6115 17.8838 1.4948 -1.2 1 0.0268997 0.0182557 0.0234415 0.0255035 0.0194595 0.0436662 0.0451556 0.0608895 0.037191 0.0499461 0.0381959 0.0672323 0.0514263 0.0559895 0.0646038 0.0578768 0.0655813 0.0614117 0.0634782 0.0689492
89 3 O 1.93416 15.2965 1.4948 -1.2 1 0.0370745 0.0147089 0.0219276 0.0130214 0.0350313 0.0305211 0.0360224 0.0591356 0.0432214 0.0471533 0.0487244 0.0505237 0.0462885 0.0736858 0.0805772 0.0776743 0.058979 0.0738117 0.0621208 0.0773765
90 3 O 4.85636 15.5644 0.196716 -1.2 1 0.0195576 0.0150744 0.0235494 0.0203462 0.0246941 0.0513112 0.0494875 0.0389585 0.0381255 0.0434408 0.0379578 0.0317749 0.0630066 0.052949 0.0658316 0.0667195 0.0749036 0.0627533 0.0718123 0.069344
91 1 Mg 6.44662 14.247 2.9896 1.2 1 0.011961 0.0169905 0.0240492 0.0205135 0.0190016 0.0354295 0.0376321 0.0546004 0.0367002 0.0579477 0.0354843 0.0625741 0.0264845 0.0688041 0.0460434 0.0771201 0.0437068 0.0906739 0.041439 0.0926975
92 3 O 4.81537 15.5644 2.79288 -1.2 1 0.0150168 0.00729044 0.0284258 0.0123698 0.0280765 0.0379775 0.0466264 0.0474533 0.0455799 0.0386956 0.0517748 0.0430884 0.0531502 0.0571423 0.0744704 0.0660299 0.0758384 0.0523964 0.0719018 0.0759276
93 1 Mg -0.948271 14.2883 4.4844 1.2 1 0.0148754 0.00861708 0.0155717 0.026804 0.0251713 0.0286762 0.0323655 0.0358127 0.0461931 0.0499186 0.0589481 0.0561704 0.0664329 0.0687462 0.0573392 0.0716893 0.0698701 0.0970661 0.0732475 0.0831853
94 2 Si -2.75928 16.9724 4.4844 2.4 1 0.0202616 0.0125227 0.0186226 0.0272946 0.0291381 0.0415994 0.0582156 0.0323058 0.0552579 0.0637231 0.0530274 0.0628883 0.0597085 0.0554561 0.0793268 0.0704102 0.0473863 0.0902267 0.0531695 0.0646872
95 3 O -2.81617 15.3592 4.4844 -1.2 1 0.0143275 0.0175581 0.0107376 0.0255368 0.0294333 0.0227603 0.0407152 0.0624952 0.0432833 0.0489146 0.0403197 0.0733374 0.0495195 0.0600736 0.0684471 0.0700229 0.04771 0.0754242 0.0659434 0.0755059
96 3 O 0.862762 17.9465 4.4844 -1.2 1 0.0155311 0.0224888 0.0212456 0.0178204 0.0209219 0.0505095 0.0322727 0.0530283 0.0465543 0.0524131 0.0414665 0.0476808 0.0465662 0.0710289 0.108266 0.0550533 0.0699253 0.0531293 0.0747774 0.0693818
97 3 O -2.0185 17.6786 3.18632 -1.2 1 0.0189061 0.0101907 0.0179021 0.0163437 0.0197611 0.0390916 0.0425763 0.0558986 0.0442734 0.0515167 0.0539646 0.0494524 0.0560925 0.050664 0.0813145 0.0612573 0.0687157 0.0654485 0.0641116 0.0702438
98 3 O -2.06164 17.6786 5.78248 -1.2 1 0.0109693 0.00723101 0.0225287 0.0218797 0.0166062 0.0270851 0.0536656 0.0434386 0.0407245 0.0366669 0.0575768 0.0372629 0.057665 0.0618891 0.0851407 0.0691003 0.068833 0.0635477 0.0693562 0.0754972
99 1 Mg 1.39817 16.6215 2.9896 1.2 1 0.00607973 0.0160799 0.0194038 0.0224418 0.0181526 0.0363499 0.0370042 0.0537219 0.0365164 0.0595582 0.0354825 0.0568622 0.0232102 0.0671053 0.0463759 0.0807301 0.0489462 0.0913325 0.0446183 0.0882778
100 1 Mg 4.20062 16.5802 4.4844 1.2 1 0.0140558 0.0120329 0.0154796 0.0252083 0.0262286 0.0296619 0.0395787 0.0351161 0.0474302 0.0522522 0.0538568 0.0549641 0.0681732 0.0686128 0.0534377 0.0734922 0.0693231 0.0953868 0.0751855 0.080733
101 2 Si 2.37796 18.645 4.4844 2.4 1 0.0218028 0.00763215 0.0250392 0.0309429 0.027691 0.034836 0.0613003 0.031553 0.0549701 0.0600963 0.0503089 0.0628936 0.0611428 0.0550777 0.0728966 0.0678927 0.0458978 0.10067 0.0533371 0.0557401
102 3 O 2.39434 20.2583 4.4844 -1.2 1 0.0193622 0.0136609 0.00823077 0.0158546 0.0251448 0.0246831 0.0391316 0.058303 0.0414578 0.0498615 0.0430588 0.0735207 0.0516989 0.063132 0.0719252 0.0692143 0.0495298 0.0720745 0.0679525 0.0779751
103 3 O -4.24274 17.671 4.4844 -1.2 1 0.0134714 0.0200218 0.0208126 0.020623 0.0198739 0.0475974 0.035837 0.0485479 0.0456368 0.0553185 0.0380007 0.0524122 0.0496859 0.0722585 0.10074 0.0631367 0.0739701 0.0532838 0.0769967 0.0702419
104 3 O 3.08659 17.9389 3.18632 -1.2 1 0.0281826 0.0129317 0.0223753 0.0115785 0.0175517 0.0383418 0.0372595 0.0554886 0.0433943 0.0518874 0.0563709 0.0474321 0.0521787 0.0500846 0.0804238 0.0574843 0.0671668 0.060914 0.0649726 0.0688875
105 1 Mg 1.44478 16.6215 0 1.2 1 0.00942975 0.0122831 0.0217038 0.0128955 0.0266489 0.0316743 0.0479302 0.0354561 0.0506063 0.0505864 0.0517683 0.0396539 0.0587743 0.0493529 0.0696999 0.0660887 0.0601924 0.0677035 0.0886131 0.0639631
106 3 O 3.0436 17.9389 5.78248 -1.2 1 0.0206273 0.0126984 0.018172 0.0185835 0.0162496 0.0268066 0.0460791 0.048005 0.0391197 0.0403179 0.0592015 0.0434722 0.053951 0.0588188 0.0869174 0.0641413 0.0700999 0.062952 0.0663335 0.0771104
107 1 Mg -1.40524 16.6628 1.4948 1.2 1 0.0116207 0.0125403 0.025663 0.0177905 0.0172541 0.0345131 0.0358603 0.042896 0.0414811 0.0605012 0.0403646 0.0622357 0.0547092 0.064249 0.0739708 0.068981 0.0646116 0.0781493 0.0781711 0.0757557
108 2 Si 0.420358 14.5979 1.4948 2.4 1 0.0224699 0.0191312 0.029062 0.0260701 0.0177472 0.0385213 0.0391786 0.0418839 0.0444115 0.0552489 0.0426711 0.0613484 0.0574592 0.0634111 0.0670474 0.0593114 0.0718032 0.0765367 0.0624296 0.0709746
109 3 O 0.408732 12.9847 1.4948 -1.2 1 0.0222248 0.0155043 0.0229476 0.0255437 0.0169798 0.0472038 0.0436878 0.0539529 0.0361945 0.052879 0.0423208 0.0691882 0.0532193 0.0569324 0.0659799 0.0637075 0.071196 0.054915 0.0684959 0.0716358
110 3 O 7.03923 15.572 1.4948 -1.2 1 0.0293174 0.0169273 0.0218271 0.0127507 0.0361115 0.0334095 0.0370495 0.0558875 0.0380826 0.0443578 0.0513584 0.0531249 0.0481419 0.0743288 0.0780164 0.0783034 0.064382 0.0697576 0.0623781 0.0775815
111 3 O -0.248332 15.3041 0.196716 -1.2 1 0.0190334 0.0129585 0.0211356 0.0182176 0.0252602 0.0464652 0.048741 0.0430699 0.0391121 0.0446819 0.037965 0.0307554 0.0608333 0.0542892 0.0698649 0.0643806 0.0832348 0.0501333 0.0698979 0.0723197
112 3 O -0.289436 15.3041 2.79288 -1.2 1 0.010393 0.0160425 0.030959 0.011062 0.0292502 0.0386213 0.0450139 0.0457973 0.0455632 0.0388214 0.0544185 0.0468527 0.0515272 0.0552696 0.0727962 0.0693261 0.0709678 0.0560747 0.070119 0.0759277
113 1 Mg 6.59566 18.996 0 1.2 1 0.0138081 0.0117224 0.0199443 0.0143379 0.0258953 0.0317737 0.0430736 0.0331037 0.0539051 0.0492961 0.0538978 0.0389919 0.0520773 0.0528494 0.0720474 0.0647106 0.0641262 0.064833 0.0859721 0.0708062
114 1 Mg 3.85574 23.7037 1.4948 1.2 1 0.00885687 0.0140193 0.0219303 0.015829 0.023332 0.0295946 0.0315844 0.036108 0.0386153 0.0590088 0.0463313 0.0652173 0.0506801 0.067743 0.0649903 0.072857 0.0654842 0.0807029 0.0808608 0.07605
115 2 Si 5.66125 21.0195 1.4948 2.4 1 0.00864952 0.0228411 0.0247099 0.0273047 0.0199875 0.0457684 0.0336836 0.0434808 0.0471853 0.0538187 0.0442606 0.0618572 0.0559105 0.0596264 0.0709521 0.0605291 0.0734459 0.0775176 0.064888 0.0754698
116 3 O 5.72074 22.6328 1.4948 -1.2 1 0.0282149 0.0193918 0.0184231 0.0229026 0.0188931 0.0448632 0.0453466 0.0617885 0.0378149 0.0517945 0.0328276 0.0695636 0.0496217 0.0540706 0.0686492 0.0549691 0.0654404 0.0678457 0.0563916 0.0709927
117 3 O 2.03867 20.0455 1.4948 -1.2 1 0.0300156 0.0164069 0.0268212 0.016078 0.0341668 0.0300953 0.0359452 0.0551827 0.0440954 0.0426622 0.0505053 0.0504759 0.0477879 0.0738091 0.0849545 0.0728784 0.0616605 0.067991 0.0635906 0.0733024
118 3 O 4.96004 20.3134 0.196716 -1.2 1 0.0211804 0.0104609 0.022979 0.0187027 0.023147 0.0452204 0.0439469 0.0478519 0.038973 0.0398519 0.0411866 0.034429 0.0646927 0.0476345 0.0697262 0.0728933 0.0716683 0.0580331 0.0712491 0.0720588
119 1 Mg 6.55057 18.996 2.9896 1.2 1 0.00911623 0.0167878 0.0216271 0.0207309 0.0235918 0.0344844 0.0375734 0.0568979 0.0332269 0.0607989 0.0348147 0.0630839 0.0246747 0.0709794 0.0456643 0.0723989 0.0456925 0.096053 0.0445856 0.0940591
120 3 O 4.92172 20.3134 2.79288 -1.2 1 0.0100541 0.0114611 0.0313953 0.0154798 0.0305179 0.0396739 0.0458841 0.0458027 0.0472946 0.0424483 0.0532314 0.0398175 0.0540308 0.0540204 0.0761235 0.0676547 0.0756494 0.0479202 0.0717424 0.0716185
121 1 Mg -0.84282 19.0373 4.4844 1.2 1 0.0142054 0.0124823 0.0143158 0.0280979 0.022679 0.0268126 0.0366863 0.0323837 0.0454704 0.0488455 0.0605426 0.0586496 0.0675629 0.0678281 0.0581363 0.0736869 0.0717482 0.093633 0.0735563 0.0819533
122 2 Si -2.64823 21.7214 4.4844 2.4 1 0.0193647 0.0131452 0.0176757 0.0279955 0.0287721 0.0406294 0.0565873 0.0316054 0.0541738 0.0633675 0.0522973 0.0645855 0.0600957 0.0557701 0.0771636 0.0715875 0.0453406 0.0939501 0.0529044 0.064796
123 3 O -2.70847 20.1082 4.4844 -1.2 1 0.0118428 0.0214681 0.0124374 0.0254546 0.0270225 0.0245576 0.0410441 0.0643367 0.0448998 0.0501025 0.0401724 0.0705116 0.0502285 0.0602062 0.0688363 0.0672207 0.0513425 0.0731377 0.0671958 0.0769524
124 3 O 0.97581 22.6955 4.4844 -1.2 1 0.0172199 0.0253088 0.0210597 0.0189422 0.0201057 0.0430014 0.0303967 0.0497844 0.0460619 0.055774 0.0410186 0.0469521 0.0463307 0.0719864 0.10932 0.0518431 0.0671826 0.0558834 0.0741341 0.0670106
125 3 O -1.9076 22.4276 3.18632 -1.2 1 0.0206029 0.00766007 0.0209408 0.013513 0.0162678 0.0383224 0.0453795 0.0552985 0.0396431 0.0483982 0.0553851 0.0479287 0.0558967 0.0510989 0.0804261 0.0583177 0.0685345 0.0661543 0.0620781 0.0675144
126 3 O -1.9475 22.4276 5.78248 -1.2 1 0.0108567 0.00635324 0.0214451 0.0197315 0.0187679 0.0262058 0.0483712 0.0482006 0.0359931 0.0386372 0.0571666 0.0418773 0.0576693 0.0610229 0.081323 0.0661696 0.0698439 0.0626251 0.067402 0.0762925