ITEM: TIMESTEP
65400
ITEM: NUMBER OF ATOMS
10500
ITEM: BOX BOUNDS xy xz yz pp pp pp
0	15.2977	5.09925
0	118.725	0
0	89.688	0
ITEM: ATOMS id type element xu yu zu q Q_1 Q_2 Q_3 Q_4 Q_5 Q_6 Q_7 Q_8 Q_9 Q_10 Q_11 Q_12 Q_13 Q_14 Q_15 Q_16 Q_17 Q_18 Q_19 Q_20 Q_21
1 1 Mg 6.2404 -6.37941e-06 0 1.2 1 0.0103029 0.0415179 0.0322507 0.0369981 0.0313253 0.0390116 0.0359848 0.066603 0.04037 0.0712845 0.0344485 0.0613832 0.0470532 0.068881 0.0495743 0.0903577 0.0507483 0.0833343 0.0514249 0.101049
2 1 Mg 3.46349 4.70768 1.4948 1.2 1 0.0124397 0.0160972 0.0253357 0.0237297 0.019854 0.0414624 0.0437748 0.0408059 0.04749 0.0555462 0.0418383 0.0700691 0.05796 0.070715 0.0729543 0.064801 0.0668479 0.0849099 0.0747805 0.0824158
3 2 Si 5.2885 2.02354 1.4948 2.4 1 0.0198838 0.0222589 0.0338359 0.0284391 0.0302478 0.0376136 0.0534249 0.0329989 0.0432649 0.0539785 0.0542163 0.0615951 0.0551236 0.0648271 0.0677037 0.0796151 0.0707186 0.0648226 0.0638943 0.0730791
4 3 O 5.33628 3.63678 1.4948 -1.2 1 0.00941652 0.0142178 0.026851 0.0260709 0.0185135 0.0391145 0.0417873 0.060114 0.0348889 0.0397343 0.0550141 0.0506864 0.0679085 0.0574921 0.0596754 0.0646917 0.0606166 0.0617043 0.0706377 0.075038
5 3 O 1.67294 1.04952 1.4948 -1.2 1 0.0148354 0.0226968 0.0227065 0.0390795 0.0320195 0.0399445 0.0321804 0.0609478 0.0352751 0.0593912 0.0443754 0.0525204 0.0705122 0.0599371 0.0772926 0.0694924 0.0645694 0.0645902 0.0809781 0.0609125
6 3 O 4.59532 1.31737 0.196716 -1.2 1 0.0255795 0.0230037 0.0598055 0.0244253 0.0318729 0.0493523 0.0379866 0.0462376 0.033571 0.0376976 0.0387191 0.0510239 0.0539955 0.0560712 0.0630814 0.0689213 0.0615811 0.0702827 0.0580215 0.0712499
7 1 Mg 6.18956 -6.37941e-06 2.9896 1.2 1 0.0151816 0.0279756 0.0148666 0.022341 0.0357778 0.0454249 0.0505559 0.0431453 0.0468137 0.0461627 0.0375555 0.0549682 0.0405849 0.0572136 0.0584046 0.0788173 0.0579129 0.0682383 0.0606908 0.0694714
8 3 O 4.55118 1.31737 2.79288 -1.2 1 0.0236447 0.0248946 0.0381725 0.0190411 0.0273659 0.0460025 0.0443523 0.0481918 0.043517 0.0518277 0.0541159 0.0493078 0.0483106 0.0668913 0.0535309 0.0688353 0.0633451 0.0680775 0.0620136 0.0723999
9 1 Mg -1.20682 0.0413099 4.4844 1.2 1 0.0108632 0.0221754 0.0231848 0.0298502 0.0351236 0.039998 0.0318003 0.0522115 0.0519134 0.0395237 0.0509687 0.060892 0.0653189 0.0589448 0.0805344 0.0607224 0.0812646 0.0756725 0.0643227 0.0522734
10 2 Si -3.0337 2.72544 4.4844 2.4 1 0.0331306 0.0108006 0.0180713 0.0153487 0.0327946 0.0350389 0.061484 0.0362248 0.0597488 0.0517344 0.0451644 0.0630503 0.059625 0.0786508 0.0548077 0.0611599 0.0714709 0.0797876 0.0722438 0.0588303
11 3 O -3.08099 1.11221 4.4844 -1.2 1 0.0112014 0.0218091 0.0264689 0.0244281 0.0379102 0.0273413 0.0479365 0.0494232 0.0364004 0.0401957 0.0374174 0.0703722 0.0546675 0.0523504 0.0565821 0.0684914 0.05365 0.0782766 0.0726892 0.0771443
12 3 O 0.582463 3.69946 4.4844 -1.2 1 0.00876652 0.0158796 0.0316904 0.0305506 0.0270691 0.062808 0.0275648 0.0557159 0.0443449 0.0405705 0.0527131 0.0526614 0.0605193 0.0699608 0.0984849 0.0705255 0.0818083 0.0407222 0.0694439 0.0671798
13 3 O -2.29524 3.43162 3.18632 -1.2 1 0.014609 0.0206006 0.0228225 0.0312756 0.0207842 0.0500743 0.0516144 0.0482706 0.0412713 0.0540863 0.0606717 0.0580335 0.0392201 0.056397 0.059585 0.0641863 0.0673345 0.0614148 0.0624952 0.0742452
14 3 O -2.34216 3.43162 5.78248 -1.2 1 0.0234189 0.0136239 0.0176592 0.0275404 0.023315 0.0433 0.0542493 0.0474759 0.0338443 0.0579708 0.0579817 0.0476495 0.0536864 0.0514983 0.0742376 0.0734676 0.0656431 0.0730607 0.0744608 0.0717183
15 1 Mg 1.12778 2.37449 2.9896 1.2 1 0.0188589 0.0395401 0.014622 0.0237229 0.0250298 0.0427979 0.0412168 0.0499489 0.0362899 0.0616925 0.0362643 0.0614363 0.0405141 0.0682582 0.0645279 0.0701245 0.0691672 0.0808679 0.0451964 0.0878432
16 1 Mg 3.92855 2.33318 4.4844 1.2 1 0.0339733 0.0155209 0.0240186 0.0265252 0.0426864 0.0256902 0.0382434 0.036889 0.0464962 0.0703003 0.0522374 0.0627499 0.0527909 0.0596429 0.0570273 0.0727075 0.0651743 0.097319 0.0732007 0.0851355
17 2 Si 2.09341 4.39804 4.4844 2.4 1 0.0193588 0.0271385 0.0313011 0.0164583 0.0382861 0.0270726 0.0620082 0.0193694 0.0417075 0.0535361 0.0643819 0.0579656 0.0676228 0.0607258 0.072488 0.0754583 0.0754872 0.0831515 0.0499087 0.0639257
18 3 O 2.09991 6.01128 4.4844 -1.2 1 0.0139707 0.00892255 0.01631 0.0180941 0.0328261 0.0236551 0.0514056 0.0513135 0.0481951 0.0455149 0.0474672 0.0660349 0.0446224 0.060715 0.0651847 0.0708535 0.0455298 0.0770008 0.0632424 0.0717722
19 3 O -4.52137 3.42402 4.4844 -1.2 1 0.0190876 0.0275903 0.0358111 0.0204198 0.0251572 0.058454 0.0389093 0.050739 0.0529083 0.0589921 0.0317722 0.0554599 0.0521871 0.054452 0.0903177 0.0735751 0.0774425 0.0602584 0.0717639 0.0570462
20 3 O 2.80834 3.69187 3.18632 -1.2 1 0.00909333 0.0178376 0.0204583 0.0247005 0.0220265 0.0383441 0.0359891 0.0497857 0.0436829 0.0599959 0.066963 0.0512678 0.0430296 0.0653349 0.0703625 0.0718359 0.0621838 0.057561 0.0711521 0.0722473
21 1 Mg 1.17857 2.37449 0 1.2 1 0.0120091 0.0371192 0.0290852 0.0302041 0.0381266 0.0402125 0.0455711 0.059211 0.0361865 0.0486976 0.052279 0.0408278 0.0430598 0.0674737 0.0537413 0.065763 0.0612057 0.080713 0.0580618 0.0732287
22 3 O 2.76143 3.69187 5.78248 -1.2 1 0.00270651 0.0198891 0.0195534 0.0211067 0.0160111 0.0353335 0.0351791 0.051469 0.0336224 0.0451523 0.0611238 0.0457358 0.0564378 0.0765398 0.0722099 0.066975 0.0688795 0.058716 0.0729591 0.0745271
23 1 Mg -1.67381 2.41581 1.4948 1.2 1 0.00801516 0.00978524 0.0411314 0.0339858 0.0331402 0.0444964 0.0591694 0.0395642 0.0507726 0.0406737 0.0467071 0.0595182 0.0532289 0.0626932 0.0589409 0.0641923 0.0828225 0.0761674 0.0669757 0.07283
24 2 Si 0.16286 0.350945 1.4948 2.4 1 0.0152777 0.0320478 0.0278363 0.0234787 0.0350717 0.0355872 0.0554163 0.0512003 0.0520306 0.0486237 0.040492 0.0558923 0.0745157 0.0690652 0.056548 0.073115 0.0697523 0.0650866 0.0734811 0.0662995
25 3 O 0.15972 -1.26229 1.4948 -1.2 1 0.00767481 0.0197881 0.0375122 0.0235449 0.0351261 0.0371733 0.0461711 0.0543651 0.0484594 0.0511148 0.056179 0.0581841 0.0628582 0.067309 0.0505513 0.0596498 0.0697916 0.066873 0.0614491 0.0732068
26 3 O 6.77654 1.32496 1.4948 -1.2 1 0.0114201 0.0276302 0.026651 0.0275777 0.0372294 0.0543462 0.0344289 0.0645654 0.0476684 0.0465087 0.0444336 0.0524069 0.0526243 0.0595557 0.0687217 0.0713076 0.0845299 0.0632319 0.059774 0.074608
27 3 O -0.508028 1.05712 0.196716 -1.2 1 0.0247917 0.0191369 0.0296182 0.0206282 0.0296506 0.052802 0.0437802 0.0443124 0.0472453 0.0479033 0.0503699 0.0479678 0.0495613 0.063402 0.0546814 0.062779 0.0633385 0.0588911 0.0722784 0.0715082
28 3 O -0.552171 1.05712 2.79288 -1.2 1 0.0345846 0.0286564 0.0334923 0.032805 0.0220624 0.0429481 0.0406605 0.046563 0.0427299 0.0382868 0.0492064 0.0485934 0.0578411 0.062687 0.0645855 0.0761384 0.0738373 0.0500144 0.0701278 0.0719085
29 1 Mg 6.31713 4.74899 0 1.2 1 0.0275508 0.0319913 0.0326623 0.0353468 0.0322354 0.0236069 0.0411935 0.0542063 0.0593833 0.0486204 0.0510214 0.0403229 0.0571433 0.0611803 0.06543 0.0626046 0.0652757 0.073575 0.0682147 0.0692064
30 1 Mg 3.54847 9.45668 1.4948 1.2 1 0.0171997 0.0159166 0.0172219 0.019032 0.0183932 0.038561 0.0379854 0.0426824 0.0448076 0.0564298 0.0373319 0.0683968 0.0528796 0.0648995 0.07501 0.0620822 0.0671161 0.0881661 0.0738813 0.0793078
31 2 Si 5.36879 6.77254 1.4948 2.4 1 0.025847 0.0297442 0.021341 0.0260523 0.0243712 0.035075 0.0444249 0.0344451 0.0454667 0.0578254 0.0427712 0.0572945 0.0529771 0.067913 0.0653019 0.0749709 0.067968 0.0791858 0.0571429 0.0693619
32 3 O 5.41937 8.38578 1.4948 -1.2 1 0.0213064 0.0111997 0.0232367 0.0299704 0.0170294 0.0429354 0.0443522 0.0573427 0.0363856 0.0511237 0.0469061 0.0643189 0.0544992 0.0536988 0.0655749 0.0604711 0.073531 0.0561308 0.0730821 0.0739586
33 3 O 1.75158 5.79852 1.4948 -1.2 1 0.0284668 0.0123844 0.0227335 0.0266232 0.0439403 0.0306028 0.0395819 0.0565628 0.0404268 0.0521454 0.0493693 0.05106 0.0478822 0.0716557 0.078818 0.0786479 0.0606875 0.0752831 0.0597879 0.076844
34 3 O 4.67421 6.06637 0.196716 -1.2 1 0.00852135 0.0308063 0.0325617 0.0262726 0.0317707 0.0380156 0.0344765 0.0316323 0.0434634 0.0550944 0.0400428 0.0448507 0.0658354 0.0544455 0.0671258 0.0699853 0.0715589 0.0670718 0.0609325 0.0701134
35 1 Mg 6.26654 4.74899 2.9896 1.2 1 0.0199713 0.0244545 0.0240016 0.0396496 0.0268949 0.0419347 0.0496395 0.0463981 0.0370007 0.062078 0.0377062 0.0610901 0.0387676 0.0638202 0.0537386 0.0740845 0.0542736 0.0843637 0.0473728 0.0906087
36 3 O 4.63043 6.06637 2.79288 -1.2 1 0.0179702 0.0186691 0.0416345 0.0192262 0.0315044 0.0367741 0.042421 0.0483448 0.0451229 0.0361865 0.0494009 0.0516263 0.0565836 0.0675684 0.0619645 0.0757459 0.066224 0.0669752 0.0690387 0.084384
37 1 Mg -1.12976 4.79031 4.4844 1.2 1 0.0228882 0.0230549 0.0152593 0.0156866 0.0371243 0.0366164 0.0514561 0.0505472 0.0429198 0.0473083 0.0565452 0.0597905 0.0778331 0.0698786 0.0613705 0.067166 0.072132 0.0949662 0.0719127 0.0850402
38 2 Si -2.9517 7.47444 4.4844 2.4 1 0.0229992 0.0165231 0.0158729 0.0264701 0.0279106 0.0441208 0.0601624 0.0291224 0.0537817 0.0556919 0.0538627 0.0566076 0.0640841 0.058545 0.0785266 0.0693214 0.0553607 0.0876821 0.0571344 0.0585567
39 3 O -3.00198 5.86121 4.4844 -1.2 1 0.0163334 0.0243815 0.0264867 0.0274977 0.0351782 0.0306529 0.056422 0.0597556 0.0374687 0.0549356 0.047101 0.0715365 0.058274 0.0561846 0.0665237 0.0678151 0.0502496 0.0777424 0.0604134 0.0779083
40 3 O 0.666315 8.44846 4.4844 -1.2 1 0.0146027 0.02013 0.0246442 0.019901 0.0194683 0.0562494 0.0346106 0.0457704 0.0421717 0.0495544 0.04212 0.0504601 0.0487155 0.074844 0.10175 0.0714059 0.0758442 0.050191 0.0689626 0.0749306
41 3 O -2.21213 8.18062 3.18632 -1.2 1 0.0216518 0.0120531 0.0199199 0.0155951 0.0155722 0.0323234 0.0455797 0.0539648 0.0421877 0.0566369 0.0523228 0.0517371 0.0525328 0.0463666 0.0773307 0.0601217 0.0731826 0.0588645 0.0690109 0.0703381
42 3 O -2.25864 8.18062 5.78248 -1.2 1 0.0125529 0.014537 0.0271406 0.0252668 0.0209432 0.028552 0.0498686 0.0471954 0.0397996 0.0380805 0.0548702 0.037989 0.0592643 0.0569867 0.0826123 0.0662759 0.0696796 0.0609081 0.0660175 0.074961
43 1 Mg 1.20893 7.12349 2.9896 1.2 1 0.00797207 0.0220699 0.0197261 0.0254214 0.0239046 0.0388163 0.0430529 0.046562 0.0347014 0.0660697 0.0401737 0.0660354 0.0379546 0.058188 0.0529645 0.0788326 0.0505028 0.0829594 0.0468531 0.0883846
44 1 Mg 4.00982 7.08218 4.4844 1.2 1 0.0234699 0.0194527 0.0213163 0.0347046 0.0291505 0.0381397 0.0427282 0.0382387 0.0458097 0.0513407 0.0567293 0.0561618 0.0711502 0.0724878 0.0589393 0.0714166 0.0624453 0.0955459 0.0753119 0.0810568
45 2 Si 2.17861 9.14704 4.4844 2.4 1 0.0239685 0.011287 0.0244521 0.020941 0.0344762 0.0351346 0.0612278 0.0242335 0.0480612 0.0567967 0.0529421 0.0584689 0.0648352 0.0559387 0.0790986 0.0681259 0.0512816 0.0925857 0.0578583 0.0560058
46 3 O 2.18828 10.7603 4.4844 -1.2 1 0.0180375 0.013347 0.00916058 0.0163336 0.0286858 0.0239899 0.041969 0.0599565 0.0404655 0.0535026 0.0418531 0.0724699 0.0451803 0.0642019 0.0685817 0.0767547 0.0450779 0.0721393 0.0656228 0.0727462
47 3 O -4.43805 8.17302 4.4844 -1.2 1 0.0208439 0.0225002 0.0160425 0.0150592 0.0230489 0.05253 0.0367816 0.0516831 0.0431048 0.0478759 0.0359763 0.054053 0.0525372 0.0725156 0.0967519 0.0662235 0.0787937 0.054312 0.0731996 0.0726752
48 3 O 2.89193 8.44087 3.18632 -1.2 1 0.0183908 0.0152314 0.0185473 0.0155457 0.0212859 0.042778 0.0335672 0.0563546 0.0437116 0.0515506 0.0587359 0.0506939 0.051028 0.0534798 0.0814182 0.0641081 0.0705247 0.0582465 0.0643938 0.0740391
49 1 Mg 1.25915 7.12349 0 1.2 1 0.020048 0.0152374 0.0247915 0.0145966 0.0321588 0.0254636 0.0525719 0.040542 0.0558286 0.0499603 0.0525903 0.0426142 0.0726476 0.051724 0.067721 0.0709146 0.0646912 0.0713609 0.0811022 0.0589578
50 3 O 2.84547 8.44087 5.78248 -1.2 1 0.0143471 0.0151464 0.0166535 0.0176638 0.020689 0.0303579 0.0432237 0.0487333 0.0365717 0.0409053 0.0590421 0.0428466 0.0589747 0.0609972 0.0894628 0.0662266 0.0704025 0.0616748 0.0699204 0.0774901
51 1 Mg -1.59284 7.16481 1.4948 1.2 1 0.00819725 0.0190242 0.0205621 0.0215497 0.0165781 0.0369692 0.0479062 0.0432911 0.0448849 0.0573593 0.0377145 0.0650113 0.052582 0.0698063 0.0763953 0.0610385 0.0663024 0.0829769 0.0748727 0.0793767
52 2 Si 0.240329 5.09994 1.4948 2.4 1 0.0247539 0.0175766 0.0157327 0.0432947 0.0270241 0.0405859 0.0464601 0.0533701 0.0547564 0.0478388 0.0461368 0.0577538 0.059762 0.0679863 0.0658222 0.0659814 0.0646727 0.0731844 0.066242 0.0694127
53 3 O 0.234538 3.48671 1.4948 -1.2 1 0.0132142 0.016159 0.0267669 0.0356904 0.0315676 0.0492695 0.0456983 0.0421355 0.052585 0.0459608 0.052469 0.0614448 0.0571164 0.0611131 0.0627778 0.0620313 0.0632965 0.057651 0.0756 0.0733429
54 3 O 6.85564 6.07396 1.4948 -1.2 1 0.0325197 0.0197409 0.0348834 0.0275116 0.037137 0.0402215 0.0324766 0.0623097 0.0364458 0.0528249 0.053344 0.0533602 0.0558944 0.073976 0.0701042 0.0768885 0.0663504 0.0723189 0.0533308 0.0855786
55 3 O -0.429565 5.80612 0.196716 -1.2 1 0.0338908 0.0199187 0.016161 0.0215026 0.0408636 0.0374822 0.0539889 0.0451845 0.0458028 0.0565163 0.0397016 0.0416287 0.0528615 0.0604546 0.0599608 0.067938 0.0707067 0.0606396 0.0656884 0.0747849
56 3 O -0.473377 5.80612 2.79288 -1.2 1 0.0285351 0.0176596 0.033779 0.0193031 0.0339468 0.0465224 0.0491408 0.0495504 0.0546288 0.0461541 0.061984 0.0406978 0.0442297 0.0607169 0.0650157 0.0713131 0.0633216 0.068268 0.0712622 0.0813725
57 1 Mg 6.40169 9.49799 0 1.2 1 0.0127203 0.0114911 0.0211042 0.0137973 0.0306059 0.0210775 0.0529121 0.0358134 0.0591829 0.0493016 0.0501739 0.0358527 0.0671038 0.0522867 0.0718399 0.0668305 0.0652508 0.0706207 0.0807041 0.0687777
58 1 Mg 3.64209 14.2057 1.4948 1.2 1 0.00624794 0.0137982 0.0177902 0.019312 0.0219201 0.0340939 0.0364374 0.0431449 0.0402517 0.0546745 0.0389471 0.0688638 0.054483 0.0664639 0.0748892 0.0631064 0.0638882 0.0833961 0.0749615 0.0785361
59 2 Si 5.45748 11.5215 1.4948 2.4 1 0.0117805 0.0217056 0.0235242 0.025149 0.0182114 0.0404043 0.0398708 0.0396734 0.0438429 0.0551752 0.042399 0.0594245 0.0529678 0.066776 0.0693548 0.0639494 0.0706877 0.0814389 0.0586534 0.0661514
60 3 O 5.51101 13.1348 1.4948 -1.2 1 0.0240087 0.0136175 0.0224069 0.0293062 0.0201907 0.0435845 0.0443378 0.059149 0.0365163 0.0497607 0.0431363 0.0675485 0.0533228 0.0528867 0.0654498 0.0607184 0.070705 0.0573231 0.0700084 0.0716855
61 3 O 1.83851 10.5475 1.4948 -1.2 1 0.0395068 0.0145762 0.019565 0.0105858 0.0362225 0.0319384 0.0369303 0.05758 0.0397442 0.0480589 0.0503414 0.0508237 0.047501 0.0744648 0.0750323 0.0788801 0.0574572 0.0762412 0.0568773 0.0792754
62 3 O 4.7611 10.8154 0.196716 -1.2 1 0.0357032 0.0192354 0.0197598 0.0181624 0.0267719 0.0442893 0.0483387 0.0376432 0.0388914 0.049276 0.0369146 0.0410872 0.0608724 0.061111 0.0648617 0.0717404 0.0755466 0.0655198 0.072982 0.0678346
63 1 Mg 6.35203 9.49799 2.9896 1.2 1 0.0133478 0.0182857 0.0257291 0.0210921 0.0193487 0.0387478 0.0367375 0.050819 0.0342416 0.058397 0.0306705 0.0645963 0.0276689 0.0669261 0.0465992 0.0799765 0.0445574 0.090397 0.0444113 0.0900639
64 3 O 4.71833 10.8154 2.79288 -1.2 1 0.0226049 0.015269 0.0295807 0.0122926 0.0312706 0.0418298 0.0432863 0.0458083 0.0413721 0.0383635 0.0539216 0.0436029 0.05357 0.0549889 0.0735448 0.0692135 0.0733819 0.0563057 0.0689171 0.0792279
65 1 Mg -1.0438 9.53931 4.4844 1.2 1 0.0075952 0.0143554 0.0191024 0.0205834 0.0322184 0.0264283 0.0379107 0.0345904 0.0478486 0.0528395 0.0556124 0.0568139 0.0669427 0.0697681 0.057594 0.0673307 0.071778 0.0996167 0.0703956 0.0841216
66 2 Si -2.8604 12.2234 4.4844 2.4 1 0.0150874 0.0128924 0.0182663 0.027126 0.0311226 0.0434517 0.0596614 0.0299188 0.0538527 0.0612422 0.0534386 0.0620179 0.0588294 0.0546056 0.0798311 0.0696077 0.0520283 0.0916839 0.0550833 0.0659035
67 3 O -2.91391 10.6102 4.4844 -1.2 1 0.0247856 0.0112947 0.0133997 0.0254514 0.0262937 0.0237673 0.0432514 0.0626358 0.0401678 0.0493746 0.0344432 0.0706375 0.044944 0.0587436 0.0669857 0.0701455 0.0510427 0.0748658 0.0600635 0.0757315
68 3 O 0.7596 13.1975 4.4844 -1.2 1 0.0189572 0.0222894 0.0214077 0.0118141 0.0266302 0.0447635 0.0355849 0.0509092 0.0467679 0.0486155 0.0384688 0.0503233 0.0474928 0.0717883 0.0991952 0.0625687 0.0774531 0.051101 0.0710805 0.0694901
69 3 O -2.12001 12.9296 3.18632 -1.2 1 0.0239443 0.0111653 0.0210105 0.0175076 0.0198565 0.0354796 0.0407602 0.0535331 0.0443439 0.0541328 0.052063 0.0502141 0.0550194 0.0468317 0.08003 0.0629595 0.0730724 0.0636759 0.0668781 0.0696106
70 3 O -2.16532 12.9296 5.78248 -1.2 1 0.0162896 0.0112206 0.0183117 0.0260403 0.019411 0.030806 0.0512631 0.0431851 0.0409742 0.0384071 0.0568652 0.036915 0.0594298 0.059338 0.0816446 0.067922 0.0681229 0.0627947 0.0699569 0.0778266
71 1 Mg 1.29891 11.8725 2.9896 1.2 1 0.00829309 0.0156028 0.0224541 0.0240761 0.0179654 0.0390767 0.0356307 0.0506372 0.0344747 0.0601542 0.0341245 0.0579045 0.0249211 0.0669419 0.0471975 0.0835835 0.0485321 0.0893254 0.0479414 0.0868459
72 1 Mg 4.10033 11.8312 4.4844 1.2 1 0.00699093 0.0113467 0.0205528 0.0245477 0.0274343 0.032241 0.0390204 0.0336035 0.0491948 0.0502081 0.0526482 0.0525763 0.0671536 0.0680713 0.0539479 0.0704496 0.0694424 0.0984443 0.0761486 0.0831339
73 2 Si 2.27333 13.896 4.4844 2.4 1 0.0274942 0.00771275 0.0216253 0.0236584 0.0260934 0.0370474 0.0602043 0.0291893 0.0525966 0.0601191 0.0528613 0.0581392 0.0617633 0.0576597 0.0765467 0.0681066 0.0485026 0.0956578 0.0562531 0.0541805
74 3 O 2.28634 15.5093 4.4844 -1.2 1 0.0209851 0.0141439 0.00459805 0.0210123 0.0246952 0.0251764 0.0404481 0.0623337 0.0420114 0.0534044 0.040603 0.0712794 0.0483227 0.0644888 0.071804 0.0719928 0.0491239 0.0707905 0.0646509 0.074718
75 3 O -4.34533 12.922 4.4844 -1.2 1 0.0253188 0.0230715 0.021466 0.0133302 0.0226754 0.0497999 0.0347521 0.0506409 0.0457481 0.0517946 0.0343019 0.0525772 0.0484474 0.0687513 0.101579 0.0664282 0.0803795 0.0521967 0.0766659 0.0733556
76 3 O 2.98455 13.1899 3.18632 -1.2 1 0.0292369 0.0132498 0.018759 0.0104851 0.0175147 0.0389744 0.0377899 0.0572982 0.0427437 0.0550274 0.0542876 0.051195 0.0505901 0.0469043 0.0803892 0.0626327 0.0666864 0.0608409 0.0648724 0.0709027
77 1 Mg 1.34779 11.8725 0 1.2 1 0.0200683 0.0110897 0.0250366 0.0144156 0.0287119 0.0221627 0.049794 0.0348198 0.0581913 0.0506358 0.050594 0.0357896 0.0640519 0.050066 0.0718983 0.0636747 0.0609644 0.0698743 0.0856312 0.0596149
78 3 O 2.93934 13.1899 5.78248 -1.2 1 0.0170352 0.0129216 0.0207123 0.0204587 0.0167849 0.0277864 0.0466484 0.0457315 0.0420473 0.0403975 0.057729 0.0383254 0.0575109 0.0582871 0.0879209 0.0638644 0.0703925 0.0652115 0.065946 0.0774837
79 1 Mg -1.50344 11.9138 1.4948 1.2 1 0.0175104 0.0171381 0.0236778 0.0213354 0.0118614 0.0368282 0.0375135 0.0428167 0.0415869 0.0590978 0.0363513 0.0656276 0.0498269 0.0640881 0.0713722 0.0690956 0.063973 0.0836933 0.0767862 0.0786281
80 2 Si 0.326006 9.84894 1.4948 2.4 1 0.025029 0.0192683 0.0251206 0.0307035 0.0172394 0.0388272 0.043912 0.0379282 0.0446726 0.0565696 0.0400521 0.0601929 0.0544706 0.0666076 0.0603215 0.0644096 0.0698852 0.0790104 0.0613452 0.0681811
81 3 O 0.317364 8.23571 1.4948 -1.2 1 0.0248933 0.0123619 0.0220552 0.0258693 0.0203768 0.0459254 0.0414363 0.0490083 0.0344727 0.0531421 0.0458694 0.0642775 0.0581815 0.0590932 0.0670001 0.0657235 0.0714221 0.0532057 0.0724461 0.0747908
82 3 O 6.94307 10.823 1.4948 -1.2 1 0.0311864 0.0150538 0.0221353 0.0120254 0.0375004 0.0333079 0.0378854 0.0577137 0.0351709 0.0480349 0.0515117 0.0518762 0.0496439 0.0749294 0.0724897 0.0798215 0.0614804 0.0725156 0.0577507 0.0809974
83 3 O -0.343122 10.5551 0.196716 -1.2 1 0.0309041 0.0174341 0.0215084 0.0208327 0.0299072 0.0414249 0.0510814 0.0397311 0.0387743 0.0505773 0.0370374 0.0379881 0.0618676 0.0608297 0.0686067 0.0709488 0.0806623 0.0541952 0.0697772 0.0687617
84 3 O -0.385966 10.5551 2.79288 -1.2 1 0.0304011 0.0138394 0.0283533 0.0145064 0.0327787 0.0426373 0.0437955 0.0472911 0.0425746 0.0392559 0.0532506 0.047052 0.0474718 0.0521397 0.0685915 0.0693351 0.0657567 0.062697 0.0679051 0.0808872
85 1 Mg 6.49448 14.247 0 1.2 1 0.0224034 0.00994858 0.0184648 0.017141 0.0285961 0.022845 0.0479204 0.0329962 0.0593136 0.0482505 0.0512807 0.0374338 0.0628083 0.053183 0.0712055 0.0655157 0.0643583 0.0708114 0.0845681 0.0707443
86 1 Mg 3.74457 18.9547 1.4948 1.2 1 0.019193 0.00932482 0.0158979 0.0184243 0.0249133 0.0296698 0.0310209 0.0395693 0.0382339 0.0572899 0.0443357 0.0656001 0.0505138 0.0658879 0.0679692 0.0703893 0.064134 0.0832888 0.0782939 0.0755509
87 2 Si 5.55495 16.2705 1.4948 2.4 1 0.0107814 0.02192 0.0199139 0.0268087 0.0178601 0.0427907 0.0375365 0.0399857 0.0470178 0.0524186 0.0444365 0.0599956 0.0544902 0.063837 0.070883 0.0586728 0.073128 0.0799219 0.060042 0.0716319
88 3 O 5.6115 17.8838 1.4948 -1.2 1 0.0268821 0.0177496 0.0231355 0.0255446 0.0193796 0.043131 0.0455045 0.0608443 0.0381717 0.0504271 0.038052 0.0669791 0.0507263 0.0554633 0.0636013 0.0580293 0.0655981 0.0618237 0.0634269 0.0696823
89 3 O 1.93416 15.2965 1.4948 -1.2 1 0.0416276 0.0162188 0.0223413 0.0154999 0.0359361 0.0281944 0.0369541 0.0566796 0.0415388 0.0461582 0.0489504 0.05083 0.0466706 0.0727246 0.0791733 0.0780827 0.0586416 0.0733116 0.0625019 0.0763093
90 3 O 4.85636 15.5644 0.196716 -1.2 1 0.0260601 0.0109345 0.0223448 0.019602 0.0236634 0.0514801 0.0506757 0.0401418 0.0409676 0.0465141 0.0366226 0.033632 0.0639367 0.0546243 0.0672511 0.0682925 0.0748654 0.0633472 0.0721317 0.0677423
91 1 Mg 6.44662 14.247 2.9896 1.2 1 0.0148356 0.0195438 0.0182557 0.020509 0.018776 0.0336673 0.0385424 0.0537434 0.0367814 0.0589836 0.0352305 0.0634945 0.0233053 0.0646975 0.0453441 0.0776784 0.0443426 0.0911991 0.0456306 0.0924399
92 3 O 4.81537 15.5644 2.79288 -1.2 1 0.0142302 0.00793366 0.0285669 0.0124613 0.0273592 0.0391104 0.0473029 0.0474844 0.0462932 0.0399705 0.0502771 0.0436888 0.0523415 0.0574282 0.0754124 0.0660487 0.0765716 0.052962 0.0713369 0.0760252
93 1 Mg -0.948271 14.2883 4.4844 1.2 1 0.0174629 0.0101032 0.017061 0.0227702 0.0309935 0.0244768 0.0385764 0.0332028 0.0458403 0.0495121 0.0601615 0.0571617 0.0646026 0.0710098 0.0582084 0.0735108 0.0705813 0.0932094 0.0715309 0.0793918
94 2 Si -2.75928 16.9724 4.4844 2.4 1 0.0165337 0.0161511 0.0163713 0.0269851 0.0268064 0.040935 0.0563009 0.0309874 0.0575525 0.0580961 0.0518054 0.0624364 0.0589539 0.0566309 0.0767534 0.0728285 0.0473736 0.0925406 0.0523651 0.0624446
95 3 O -2.81617 15.3592 4.4844 -1.2 1 0.0186575 0.0157346 0.0118073 0.026623 0.0280492 0.0230445 0.0414507 0.0659733 0.0411524 0.0506712 0.0350485 0.0725154 0.048813 0.0587736 0.0662577 0.0666837 0.0506567 0.0721326 0.0635215 0.0743614
96 3 O 0.862762 17.9465 4.4844 -1.2 1 0.0182389 0.0232188 0.0207426 0.0176242 0.0185117 0.0508213 0.0346807 0.0506303 0.0461172 0.0530485 0.0424111 0.0460437 0.0468812 0.0723404 0.104675 0.058906 0.0703518 0.0543633 0.0783291 0.0719518
97 3 O -2.0185 17.6786 3.18632 -1.2 1 0.0209957 0.00734729 0.0195659 0.0189471 0.0168244 0.0379189 0.0424391 0.0551069 0.0418078 0.0531627 0.0532434 0.0482511 0.055588 0.0487365 0.0817425 0.0599759 0.0684004 0.0674655 0.0655073 0.0679939
98 3 O -2.06164 17.6786 5.78248 -1.2 1 0.0185913 0.0122236 0.0225883 0.0229319 0.0130907 0.0270141 0.0476247 0.0430909 0.037469 0.0385345 0.0557472 0.0363984 0.0537899 0.0573872 0.0825769 0.0675496 0.0646636 0.0615739 0.0643207 0.0792157
99 1 Mg 1.39817 16.6215 2.9896 1.2 1 0.0112527 0.020695 0.0176436 0.0229734 0.0185807 0.0350766 0.0404022 0.0517551 0.0377162 0.0608335 0.0361284 0.0574781 0.0231779 0.0631994 0.0473148 0.0818041 0.0498323 0.0898513 0.0453086 0.0879768
100 1 Mg 4.20062 16.5802 4.4844 1.2 1 0.0193772 0.0122089 0.0160468 0.0252081 0.0231129 0.0300765 0.0438988 0.0307398 0.0472918 0.0500284 0.0549048 0.0524517 0.0660231 0.0714245 0.0513003 0.075102 0.070723 0.0940937 0.0729845 0.0803653
101 2 Si 2.37796 18.645 4.4844 2.4 1 0.0178688 0.00771828 0.0244379 0.0248705 0.0306639 0.0358242 0.0616275 0.0308395 0.0548438 0.0613655 0.0509733 0.0624157 0.0608613 0.0523408 0.0691196 0.0677271 0.045287 0.0990052 0.054202 0.0568384
102 3 O 2.39434 20.2583 4.4844 -1.2 1 0.0245394 0.012468 0.00855511 0.0193548 0.0215753 0.0231846 0.0389253 0.0576789 0.0418098 0.0493554 0.0426711 0.0721443 0.0500962 0.0629994 0.0704076 0.0673533 0.0494655 0.0681883 0.0636943 0.0823433
103 3 O -4.24274 17.671 4.4844 -1.2 1 0.0145435 0.016216 0.0222897 0.0184401 0.0222723 0.045718 0.0364705 0.0490635 0.0435353 0.0520019 0.0378901 0.0510144 0.0501432 0.0720309 0.0999194 0.0612554 0.0760062 0.0513052 0.0767595 0.0707999
104 3 O 3.08659 17.9389 3.18632 -1.2 1 0.0293728 0.0165588 0.020544 0.0111422 0.0189611 0.0383481 0.038399 0.0538174 0.0475231 0.0489884 0.0562804 0.0496103 0.0509404 0.0503303 0.0807752 0.0594127 0.0645257 0.0610998 0.0638534 0.0678905
105 1 Mg 1.44478 16.6215 0 1.2 1 0.00957194 0.0119352 0.0216261 0.0127806 0.0266305 0.0317474 0.0476693 0.0356722 0.0507919 0.0502472 0.052069 0.0395068 0.0588238 0.049618 0.0695192 0.0663273 0.0600457 0.0681417 0.0889363 0.0638156
106 3 O 3.0436 17.9389 5.78248 -1.2 1 0.0121875 0.0131658 0.0168999 0.0200191 0.0224572 0.0280516 0.0460425 0.0500242 0.0409386 0.0388976 0.0564813 0.0390331 0.0580928 0.0631903 0.0852144 0.0662054 0.0732074 0.0604629 0.0647845 0.0771362
107 1 Mg -1.40524 16.6628 1.4948 1.2 1 0.0116065 0.012582 0.0256769 0.0177407 0.0172414 0.0345177 0.0359836 0.0427018 0.0413777 0.0603296 0.0404157 0.0626457 0.0549348 0.0645186 0.073888 0.0691835 0.0643143 0.0778438 0.078002 0.075933
108 2 Si 0.420358 14.5979 1.4948 2.4 1 0.0225013 0.0190584 0.0290207 0.0259634 0.0177448 0.0385001 0.0391096 0.0419469 0.044174 0.0550319 0.0426725 0.0613968 0.0577727 0.063338 0.0671471 0.0591429 0.0718547 0.0765469 0.0624891 0.0711468
109 3 O 0.408732 12.9847 1.4948 -1.2 1 0.0222799 0.0153689 0.0227301 0.0257463 0.0165576 0.0469569 0.0440332 0.0540873 0.036528 0.0532486 0.0418954 0.0692242 0.0528509 0.0566688 0.0651396 0.0638798 0.0709299 0.0552732 0.068212 0.0723046
110 3 O 7.03923 15.572 1.4948 -1.2 1 0.0293253 0.0169436 0.0218497 0.0128666 0.0361972 0.0333055 0.0368944 0.0561755 0.0381045 0.0442635 0.0511275 0.0531412 0.0480909 0.0744518 0.0782744 0.0779826 0.0642529 0.0696682 0.062422 0.0774915
111 3 O -0.248332 15.3041 0.196716 -1.2 1 0.0156469 0.0156025 0.022857 0.0200978 0.0253864 0.0466764 0.0488071 0.0422097 0.0381481 0.0446818 0.0378428 0.0296198 0.0604998 0.0522698 0.0689481 0.0633843 0.0821 0.0507334 0.0698444 0.0731839
112 3 O -0.289436 15.3041 2.79288 -1.2 1 0.0148715 0.0141539 0.0299071 0.0111419 0.0298445 0.0393991 0.0454653 0.0459203 0.0462555 0.039677 0.0538809 0.0480665 0.0512924 0.0542036 0.0730389 0.0675501 0.0718791 0.0572615 0.0710319 0.0755321
113 1 Mg 6.59566 18.996 0 1.2 1 0.0145646 0.0131227 0.0209042 0.0128066 0.025695 0.0322715 0.043966 0.034219 0.0535556 0.0492904 0.053373 0.0386849 0.053119 0.0529359 0.0716005 0.0640406 0.0637112 0.0642249 0.0871516 0.0697908
114 1 Mg 3.85574 23.7037 1.4948 1.2 1 0.0129764 0.0137527 0.0214772 0.0154967 0.022775 0.0287708 0.0312498 0.0365176 0.0390649 0.0596338 0.0479042 0.0625051 0.0510057 0.0655827 0.062205 0.073214 0.0663893 0.0793757 0.0802981 0.0763717
115 2 Si 5.66125 21.0195 1.4948 2.4 1 0.00819714 0.023869 0.0234448 0.0275446 0.0193619 0.0462437 0.0342985 0.0415753 0.0496279 0.054878 0.0455177 0.059921 0.0553052 0.059764 0.0716449 0.0611922 0.0731011 0.0763271 0.0642625 0.0747454
116 3 O 5.72074 22.6328 1.4948 -1.2 1 0.0287514 0.0217282 0.0176743 0.0248075 0.0162572 0.0461641 0.0443736 0.0613999 0.0371252 0.0522673 0.0332285 0.0693379 0.0491603 0.0528359 0.0666178 0.0544766 0.0652343 0.0665567 0.056463 0.0716471
117 3 O 2.03867 20.0455 1.4948 -1.2 1 0.0343751 0.0165753 0.0256061 0.0128797 0.0341584 0.0313853 0.0361573 0.0541578 0.0428667 0.0421947 0.0505231 0.0504652 0.0481692 0.0734911 0.0846734 0.0716094 0.062807 0.0677489 0.0644845 0.0718447
118 3 O 4.96004 20.3134 0.196716 -1.2 1 0.024206 0.0103031 0.0243723 0.019885 0.0223885 0.0457415 0.0451812 0.0480292 0.0403709 0.0420493 0.0406367 0.0349948 0.0651439 0.0476691 0.0697298 0.0735903 0.0702838 0.0583578 0.0710823 0.071735
119 1 Mg 6.55057 18.996 2.9896 1.2 1 0.0103296 0.0150806 0.0163932 0.0198439 0.0211674 0.0332541 0.0362289 0.0536807 0.034598 0.0579816 0.0366889 0.0624476 0.0224583 0.0689522 0.0435459 0.0733175 0.0443639 0.0968304 0.0458235 0.093532
120 3 O 4.92172 20.3134 2.79288 -1.2 1 0.0164908 0.0106249 0.0280986 0.0149612 0.0291034 0.0411917 0.0461563 0.0469538 0.0462839 0.0421149 0.0520033 0.0394297 0.0513309 0.0508566 0.0753844 0.0651959 0.0764865 0.0493219 0.0744627 0.0710733
121 1 Mg -0.84282 19.0373 4.4844 1.2 1 0.0182465 0.016349 0.0160538 0.023286 0.02586 0.0252134 0.0380339 0.0332914 0.04594 0.0462549 0.0614498 0.0558867 0.064892 0.0676382 0.0565173 0.0735936 0.0736034 0.0882994 0.0698424 0.0817013
122 2 Si -2.64823 21.7214 4.4844 2.4 1 0.0130313 0.0143424 0.0160378 0.0280329 0.0293638 0.0404565 0.056379 0.0314237 0.0547326 0.0643714 0.0485077 0.0614856 0.0583306 0.0508074 0.077375 0.0719261 0.0515942 0.0940567 0.0590918 0.0644157
123 3 O -2.70847 20.1082 4.4844 -1.2 1 0.0164543 0.0128331 0.0193367 0.0269753 0.0252984 0.0238773 0.0367938 0.0619421 0.04109 0.0471671 0.0413867 0.0713255 0.0537396 0.0567646 0.067675 0.0628417 0.0530613 0.0733652 0.0683755 0.074531
124 3 O 0.97581 22.6955 4.4844 -1.2 1 0.0116087 0.0243179 0.0213538 0.0183222 0.0192553 0.0411353 0.0325618 0.0489379 0.0445079 0.054573 0.043196 0.0450103 0.0468382 0.0773565 0.104391 0.0552005 0.0665125 0.0583872 0.0744635 0.0672421
125 3 O -1.9076 22.4276 3.18632 -1.2 1 0.0211901 0.00887705 0.0215209 0.01638 0.0134889 0.0373844 0.0434933 0.0566339 0.038246 0.0498541 0.054358 0.048851 0.0562703 0.0465865 0.0797292 0.0576832 0.0681016 0.0675341 0.0626315 0.0656343
126 3 O -1.9475 22.4276 5.78248 -1.2 1 0.0205393 0.0106774 0.0185641 0.0196684 0.0171953 0.0258513 0.049069 0.0431266 0.0382329 0.0370413 0.0577479 0.0345592 0.0579328 0.0541487 0.0836913 0.0714155 0.0689186 0.0616874 0.0689071 0.0792201