ITEM: TIMESTEP
3700
ITEM: NUMBER OF ATOMS
10500
ITEM: BOX BOUNDS xy xz yz pp pp pp
0	15.2977	5.09925
0	118.725	0
0	89.688	0
ITEM: ATOMS id type element xu yu zu q Q_1 Q_2 Q_3 Q_4 Q_5 Q_6 Q_7 Q_8 Q_9 Q_10 Q_11 Q_12 Q_13 Q_14 Q_15 Q_16 Q_17 Q_18 Q_19 Q_20 Q_21
1 1 Mg 6.2404 -6.37941e-06 0 1.2 1 0.0132159 0.0409667 0.0296601 0.0358701 0.033271 0.041218 0.0357341 0.0687258 0.0390298 0.0711862 0.0338808 0.0592292 0.0461705 0.0684327 0.0500849 0.09203 0.051647 0.0838968 0.0507016 0.10279
2 1 Mg 3.46349 4.70768 1.4948 1.2 1 0.0124701 0.0162286 0.0251277 0.0235853 0.019845 0.0414337 0.0436015 0.0411536 0.0478613 0.0558413 0.0421205 0.069779 0.0578385 0.0704612 0.0730029 0.0644273 0.066888 0.0849592 0.0735111 0.0825302
3 2 Si 5.2885 2.02354 1.4948 2.4 1 0.0199244 0.0221547 0.0338162 0.0284903 0.0300793 0.0374914 0.0537467 0.0326321 0.0438809 0.0538564 0.0545204 0.062012 0.0550554 0.0649753 0.0679335 0.0798205 0.0707578 0.0644138 0.0641452 0.0728856
4 3 O 5.33628 3.63678 1.4948 -1.2 1 0.00937368 0.0141424 0.0267993 0.0259343 0.0183887 0.0390728 0.0419113 0.0602194 0.0354755 0.0402382 0.0547101 0.05082 0.067807 0.0576283 0.0588818 0.0649165 0.0602225 0.0615329 0.0712755 0.0744422
5 3 O 1.67294 1.04952 1.4948 -1.2 1 0.0163224 0.0218637 0.0232503 0.0357443 0.0296529 0.0387503 0.0341567 0.0608544 0.0348665 0.0594325 0.0440658 0.0510735 0.0719321 0.0593163 0.0762847 0.0692351 0.0627599 0.0644659 0.0794216 0.0605635
6 3 O 4.59532 1.31737 0.196716 -1.2 1 0.0258589 0.0220689 0.0575893 0.0252571 0.0332868 0.0487269 0.038574 0.0473376 0.0338428 0.0392052 0.0385581 0.0504285 0.0542085 0.057237 0.0634383 0.0699989 0.0621343 0.0715655 0.0592477 0.0709057
7 1 Mg 6.18956 -6.37941e-06 2.9896 1.2 1 0.0155193 0.0284403 0.0157627 0.021732 0.0366338 0.0446564 0.0505243 0.0428753 0.0477249 0.044962 0.0387801 0.0562007 0.0389159 0.0561665 0.059026 0.0798775 0.056855 0.0690565 0.0588139 0.0706158
8 3 O 4.55118 1.31737 2.79288 -1.2 1 0.0215969 0.0250699 0.0384215 0.0152987 0.0283671 0.0430209 0.0444542 0.0479696 0.0436511 0.0533031 0.0542174 0.0495287 0.0486537 0.067201 0.0530147 0.0691358 0.0652735 0.0658314 0.0652599 0.0707333
9 1 Mg -1.20682 0.0413099 4.4844 1.2 1 0.0137279 0.0244061 0.0214382 0.0268454 0.0363366 0.040117 0.0319242 0.0521986 0.0532723 0.0396301 0.0487987 0.0619974 0.0662201 0.0585335 0.0766109 0.0610051 0.0807544 0.0743563 0.0645694 0.0517569
10 2 Si -3.0337 2.72544 4.4844 2.4 1 0.0332605 0.0132791 0.0202772 0.0168655 0.0313619 0.0389356 0.0616887 0.0342979 0.0611513 0.0501433 0.0470231 0.0619075 0.0596288 0.0759003 0.0555284 0.0598337 0.0722001 0.0794096 0.072733 0.060141
11 3 O -3.08099 1.11221 4.4844 -1.2 1 0.0160666 0.0210802 0.028325 0.0243125 0.0411352 0.0258696 0.050519 0.0465826 0.0415354 0.0415944 0.0410893 0.0727636 0.0539468 0.0521569 0.0554139 0.0686619 0.0536191 0.0787224 0.0720151 0.0763274
12 3 O 0.582463 3.69946 4.4844 -1.2 1 0.00989852 0.0114774 0.0336406 0.0304531 0.0271136 0.0614207 0.0320052 0.0546499 0.0435932 0.0414236 0.053742 0.0578693 0.0603007 0.0715588 0.0996279 0.0704716 0.0795959 0.0396326 0.0718187 0.0678442
13 3 O -2.29524 3.43162 3.18632 -1.2 1 0.0126571 0.020328 0.0259253 0.0308378 0.0200881 0.0504216 0.0514669 0.0498136 0.0409533 0.0529452 0.0593652 0.0549412 0.0408013 0.0524365 0.0585069 0.0644947 0.0665853 0.0617836 0.0638434 0.0732822
14 3 O -2.34216 3.43162 5.78248 -1.2 1 0.0200467 0.00984296 0.0227754 0.0266821 0.0274292 0.0402791 0.0536361 0.0476419 0.0398779 0.0559012 0.0544574 0.0496659 0.0548464 0.0516871 0.0787594 0.0739427 0.0611647 0.0715009 0.0732435 0.0709044
15 1 Mg 1.12778 2.37449 2.9896 1.2 1 0.0156502 0.0404088 0.0166242 0.0239483 0.0255003 0.0430283 0.0409765 0.050411 0.0368487 0.0605298 0.0370713 0.059122 0.0406338 0.0676098 0.0635098 0.0702363 0.0680245 0.0825019 0.0451656 0.0871804
16 1 Mg 3.92855 2.33318 4.4844 1.2 1 0.0283076 0.0156313 0.0236751 0.0295429 0.0438559 0.0256127 0.0378633 0.0372646 0.0473247 0.068522 0.050868 0.0608135 0.049666 0.0606643 0.055027 0.0739594 0.0630034 0.0950448 0.0741905 0.0855404
17 2 Si 2.09341 4.39804 4.4844 2.4 1 0.0140232 0.0209549 0.0332963 0.0141083 0.0415281 0.0276928 0.0633209 0.0212173 0.0443393 0.0475506 0.0626823 0.0617843 0.0675487 0.0593353 0.072827 0.0751905 0.0715293 0.0808826 0.0508288 0.066059
18 3 O 2.09991 6.01128 4.4844 -1.2 1 0.0101152 0.0119222 0.017561 0.0192024 0.033863 0.0227985 0.0518732 0.0512791 0.0471555 0.0465342 0.0470446 0.0657164 0.0460774 0.0622185 0.0659043 0.0723575 0.0456822 0.0793525 0.0607259 0.0713303
19 3 O -4.52137 3.42402 4.4844 -1.2 1 0.0176538 0.0282463 0.0364279 0.0233127 0.0276097 0.0562489 0.0391773 0.0487553 0.054059 0.0583224 0.0309317 0.0567252 0.05354 0.0547124 0.0920012 0.0730185 0.0762588 0.0604945 0.0742665 0.0559241
20 3 O 2.80834 3.69187 3.18632 -1.2 1 0.00917139 0.018259 0.0207641 0.0248112 0.0220006 0.0386061 0.0359932 0.0504568 0.0444025 0.0589249 0.0675258 0.0511834 0.0427599 0.0646152 0.0706065 0.0717457 0.0618472 0.0580565 0.0703226 0.0712521
21 1 Mg 1.17857 2.37449 0 1.2 1 0.0118766 0.03728 0.0288423 0.0303508 0.0375739 0.0405126 0.0450374 0.0594939 0.0358411 0.0486148 0.0523093 0.0411226 0.0434339 0.0677549 0.0537906 0.0661853 0.0611456 0.0809559 0.0576549 0.0728042
22 3 O 2.76143 3.69187 5.78248 -1.2 1 0.00362814 0.019882 0.0196995 0.024504 0.0183487 0.0323201 0.0394614 0.047098 0.0348177 0.0460525 0.058727 0.0442416 0.0540836 0.0774678 0.0739417 0.0685863 0.0689378 0.0567375 0.0716476 0.0749477
23 1 Mg -1.67381 2.41581 1.4948 1.2 1 0.0113939 0.0115923 0.0371732 0.0362394 0.0323764 0.0440213 0.058692 0.0403199 0.0509477 0.0404161 0.0462305 0.0592931 0.0549773 0.0638204 0.0614657 0.0643433 0.0834124 0.0778022 0.0665777 0.0740031
24 2 Si 0.16286 0.350945 1.4948 2.4 1 0.0153208 0.0354774 0.0300735 0.0243394 0.0366496 0.0356579 0.0565192 0.0486588 0.0532452 0.049527 0.0405735 0.0536227 0.0747304 0.0706702 0.0581178 0.0735758 0.0695484 0.0643561 0.0731346 0.0652966
25 3 O 0.15972 -1.26229 1.4948 -1.2 1 0.00913811 0.0154055 0.0396967 0.02141 0.0375017 0.0359286 0.0454986 0.0567509 0.0469475 0.0513175 0.0556716 0.0558152 0.0631684 0.066439 0.0497101 0.0596344 0.0695015 0.0662935 0.0624481 0.0743106
26 3 O 6.77654 1.32496 1.4948 -1.2 1 0.0115069 0.0277076 0.0266094 0.0276458 0.0371976 0.0544321 0.0342149 0.064821 0.0476117 0.0467322 0.0442779 0.0523228 0.0525558 0.0595801 0.0686333 0.0713532 0.0844549 0.0629562 0.0598123 0.0745677
27 3 O -0.508028 1.05712 0.196716 -1.2 1 0.0247305 0.0190666 0.0296773 0.0205184 0.0293298 0.0532317 0.0438189 0.0445252 0.0471851 0.04811 0.0502594 0.0480325 0.0494234 0.0635187 0.0549602 0.0630365 0.063468 0.0588294 0.0719495 0.0717782
28 3 O -0.552171 1.05712 2.79288 -1.2 1 0.034552 0.029078 0.0333131 0.0327701 0.0225372 0.0426572 0.0415232 0.0478425 0.0428529 0.0384365 0.0493808 0.0489029 0.0573681 0.0622268 0.0660058 0.075718 0.0727789 0.0509014 0.0689906 0.0723759
29 1 Mg 6.31713 4.74899 0 1.2 1 0.0272889 0.0292328 0.0303171 0.0366326 0.0327091 0.0265908 0.0419156 0.055839 0.0586874 0.0494317 0.0510365 0.0384726 0.0593328 0.0613319 0.0656699 0.0636839 0.0659057 0.073566 0.0694398 0.0704635
30 1 Mg 3.54847 9.45668 1.4948 1.2 1 0.0170793 0.0160382 0.0173692 0.0189212 0.0187604 0.0383825 0.0384634 0.0420541 0.0448605 0.0564489 0.0376445 0.0688936 0.0529502 0.0656438 0.0746988 0.0623316 0.0667627 0.0876402 0.0737112 0.0795967
31 2 Si 5.36879 6.77254 1.4948 2.4 1 0.029053 0.0269725 0.0239366 0.0256425 0.0247366 0.034969 0.0443469 0.036235 0.0448804 0.057179 0.0421569 0.058314 0.0533824 0.0665441 0.0655755 0.0742722 0.0672292 0.0790369 0.0561282 0.0687132
32 3 O 5.41937 8.38578 1.4948 -1.2 1 0.0215018 0.011406 0.023516 0.0296467 0.0174637 0.0431727 0.0441297 0.0572598 0.0363159 0.0505586 0.0475079 0.0641637 0.0551271 0.0537743 0.0663835 0.060784 0.0729808 0.0560152 0.0731193 0.0732218
33 3 O 1.75158 5.79852 1.4948 -1.2 1 0.0284603 0.0123576 0.0224629 0.026614 0.0440582 0.0306655 0.0393701 0.0568027 0.0407831 0.0525042 0.049514 0.0506367 0.0474829 0.0711604 0.0786791 0.0786274 0.060355 0.0750791 0.0601017 0.0767512
34 3 O 4.67421 6.06637 0.196716 -1.2 1 0.0145932 0.026498 0.0315669 0.024356 0.0320334 0.0378082 0.034566 0.0322482 0.0448194 0.0561035 0.0392657 0.0443286 0.0668862 0.056319 0.067592 0.0713454 0.07144 0.0657277 0.0632551 0.0683774
35 1 Mg 6.26654 4.74899 2.9896 1.2 1 0.0220621 0.0248166 0.0235025 0.0436156 0.0258004 0.0444812 0.0481625 0.0480906 0.0361143 0.062373 0.037416 0.0601684 0.0389858 0.0640834 0.052761 0.0768297 0.0555869 0.0842259 0.0460945 0.0899956
36 3 O 4.63043 6.06637 2.79288 -1.2 1 0.0161987 0.0194773 0.0425199 0.0201561 0.0324439 0.0358545 0.0422906 0.0482442 0.0450947 0.0368486 0.0496757 0.0519776 0.0579262 0.0661938 0.0622625 0.0743639 0.06618 0.0668542 0.0678157 0.0841287
37 1 Mg -1.12976 4.79031 4.4844 1.2 1 0.0218105 0.0254127 0.0120986 0.0135028 0.0366262 0.0371844 0.0480718 0.0492546 0.0446482 0.0445325 0.0557694 0.0606318 0.0765114 0.0716906 0.0614008 0.0685063 0.0713776 0.0939587 0.072834 0.0809446
38 2 Si -2.9517 7.47444 4.4844 2.4 1 0.02378 0.0135428 0.0177132 0.0264307 0.0304094 0.042547 0.0617817 0.0286789 0.0547733 0.057213 0.0522746 0.0590663 0.0639535 0.0583313 0.0798726 0.0699823 0.0523182 0.0879866 0.0559249 0.0606396
39 3 O -3.00198 5.86121 4.4844 -1.2 1 0.0184577 0.0238618 0.0270839 0.0266237 0.0319066 0.0287296 0.0536991 0.0580964 0.038487 0.0551468 0.0480408 0.0702017 0.059023 0.0541302 0.0638429 0.0707609 0.049643 0.0760641 0.061163 0.0778677
40 3 O 0.666315 8.44846 4.4844 -1.2 1 0.0198318 0.0219815 0.0231578 0.0157346 0.0222131 0.0550678 0.0288197 0.0515457 0.0430934 0.0475916 0.0411806 0.0514384 0.0495684 0.0741388 0.10088 0.066819 0.076601 0.0497279 0.0699852 0.0726661
41 3 O -2.21213 8.18062 3.18632 -1.2 1 0.0183312 0.0153773 0.0163482 0.0155317 0.0172225 0.0355907 0.0460055 0.0546596 0.0457239 0.0538836 0.0536724 0.0526221 0.0524717 0.047298 0.0780212 0.0634752 0.0712993 0.0586948 0.0680963 0.0711579
42 3 O -2.25864 8.18062 5.78248 -1.2 1 0.0124274 0.0131584 0.0213711 0.0202289 0.0185516 0.0296475 0.0483335 0.0493932 0.0375364 0.0412541 0.0557558 0.0392519 0.0583999 0.0594663 0.082825 0.0689299 0.0708768 0.0626511 0.0661514 0.074858
43 1 Mg 1.20893 7.12349 2.9896 1.2 1 0.00767476 0.0226229 0.0185593 0.0249317 0.0238953 0.0396747 0.0426511 0.0463897 0.0346012 0.065482 0.0394384 0.0665795 0.0364355 0.0586395 0.0523112 0.0796851 0.0512278 0.0838318 0.0471792 0.0876345
44 1 Mg 4.00982 7.08218 4.4844 1.2 1 0.0221492 0.0149618 0.0234719 0.0350213 0.0304445 0.0365993 0.0441493 0.0370825 0.0468495 0.0515353 0.0573921 0.0553314 0.0717282 0.072966 0.0575505 0.0681508 0.0630016 0.0981066 0.0751178 0.0823554
45 2 Si 2.17861 9.14704 4.4844 2.4 1 0.0241558 0.0103658 0.0254747 0.0231008 0.0311202 0.0331372 0.0623597 0.024624 0.0508665 0.0549747 0.0553556 0.0603029 0.0647465 0.0570713 0.0780178 0.0688007 0.0492523 0.094339 0.0553428 0.0581326
46 3 O 2.18828 10.7603 4.4844 -1.2 1 0.0217068 0.0133108 0.0029269 0.0191481 0.0257195 0.0221114 0.044337 0.0596858 0.0409225 0.0529536 0.0403978 0.0707205 0.0443907 0.0627235 0.0692846 0.0711835 0.0478099 0.0707126 0.0627913 0.0726554
47 3 O -4.43805 8.17302 4.4844 -1.2 1 0.00910622 0.0213334 0.0167044 0.016839 0.0237847 0.0550078 0.0354971 0.050789 0.043653 0.0489281 0.036099 0.0535404 0.0524272 0.0731646 0.100732 0.0670757 0.0813532 0.052649 0.0734654 0.0731788
48 3 O 2.89193 8.44087 3.18632 -1.2 1 0.0180887 0.0156699 0.0181501 0.014698 0.0215521 0.0417999 0.0337946 0.0557551 0.0434167 0.0517286 0.0590452 0.0492101 0.0513786 0.0530422 0.0803009 0.0631344 0.0703131 0.0589766 0.0651858 0.0733222
49 1 Mg 1.25915 7.12349 0 1.2 1 0.018751 0.0175116 0.0282395 0.0148726 0.0320034 0.0247605 0.0502337 0.0398996 0.0561465 0.0496009 0.0539009 0.0426449 0.0710985 0.0513227 0.0685802 0.0706746 0.0641682 0.0707828 0.0792374 0.0588821
50 3 O 2.84547 8.44087 5.78248 -1.2 1 0.0109816 0.015868 0.0131926 0.0206709 0.0215747 0.028104 0.0463745 0.0475462 0.0390823 0.0405316 0.0586403 0.0406005 0.0590718 0.0608555 0.0896873 0.0621543 0.0698141 0.0636186 0.0654659 0.075915
51 1 Mg -1.59284 7.16481 1.4948 1.2 1 0.00982714 0.0163615 0.0204714 0.0203677 0.0149414 0.0372225 0.0462868 0.0426231 0.0432206 0.0575906 0.0388536 0.0661172 0.0520387 0.0691496 0.0757396 0.0606935 0.0677169 0.0844014 0.0736341 0.0784523
52 2 Si 0.240329 5.09994 1.4948 2.4 1 0.0246429 0.0173156 0.0159638 0.0433683 0.02724 0.0405084 0.04673 0.0533214 0.0549793 0.0487021 0.045612 0.0574387 0.059217 0.0680874 0.0655786 0.066373 0.0640417 0.0729161 0.0664052 0.0681383
53 3 O 0.234538 3.48671 1.4948 -1.2 1 0.0131451 0.016424 0.0265907 0.0358837 0.0313954 0.0491806 0.045876 0.042418 0.0527948 0.0468516 0.0522358 0.0613825 0.0561456 0.0608858 0.0619017 0.0626098 0.0626604 0.0571613 0.075959 0.073844
54 3 O 6.85564 6.07396 1.4948 -1.2 1 0.0324805 0.0194891 0.034529 0.0276021 0.0372149 0.0402915 0.0324798 0.0624313 0.0364672 0.0531891 0.0538455 0.053528 0.0551877 0.0734186 0.0698273 0.076989 0.0664737 0.0723312 0.0532135 0.0850377
55 3 O -0.429565 5.80612 0.196716 -1.2 1 0.0340238 0.0200074 0.0158734 0.0212266 0.0409604 0.0374817 0.0538779 0.0451535 0.046056 0.0563773 0.0397685 0.0419672 0.0533916 0.0601298 0.0598901 0.0682056 0.0704119 0.061042 0.0652204 0.0741916
56 3 O -0.473377 5.80612 2.79288 -1.2 1 0.0259883 0.0233482 0.0311965 0.0195897 0.0343244 0.0453106 0.0482235 0.0500604 0.0524822 0.0460298 0.0629413 0.0396712 0.0429364 0.0577755 0.0659904 0.0720928 0.0649326 0.0686357 0.0699187 0.0811396
57 1 Mg 6.40169 9.49799 0 1.2 1 0.0126722 0.0117682 0.0212355 0.0143073 0.0304928 0.0213409 0.0522933 0.0356419 0.0586443 0.0492627 0.0497892 0.0356062 0.0672084 0.0527056 0.0712253 0.0673033 0.0653285 0.0706557 0.0809179 0.0685803
58 1 Mg 3.64209 14.2057 1.4948 1.2 1 0.0105134 0.0110751 0.0180638 0.0164814 0.0216202 0.0336834 0.036031 0.0433858 0.0414384 0.0554832 0.0394587 0.06661 0.0531938 0.0662472 0.0737835 0.0633373 0.0646967 0.0823157 0.0739441 0.0783008
59 2 Si 5.45748 11.5215 1.4948 2.4 1 0.0119254 0.0218357 0.0233372 0.0248348 0.0180537 0.0403053 0.0396851 0.0398963 0.0435045 0.0545798 0.0424231 0.0601375 0.0534265 0.0664213 0.0694736 0.0635243 0.071088 0.0817587 0.0584126 0.0667698
60 3 O 5.51101 13.1348 1.4948 -1.2 1 0.0242034 0.0134686 0.0223912 0.0293433 0.0199611 0.0434217 0.0444 0.0590663 0.0364135 0.0496353 0.0430052 0.0672033 0.0533442 0.0534645 0.0657853 0.0601103 0.0706676 0.0578776 0.069506 0.0718766
61 3 O 1.83851 10.5475 1.4948 -1.2 1 0.0351828 0.0140429 0.0215932 0.0139587 0.0363559 0.0303003 0.036422 0.0590229 0.0398844 0.0483438 0.049802 0.0513932 0.0470342 0.0749961 0.0757203 0.079905 0.0566108 0.075988 0.0577125 0.0789404
62 3 O 4.7611 10.8154 0.196716 -1.2 1 0.0357303 0.019287 0.0198871 0.0181298 0.0266951 0.0442239 0.0483653 0.0374964 0.0387797 0.04923 0.0369133 0.040961 0.0606608 0.0608171 0.0650007 0.0714315 0.0754175 0.0656952 0.0729823 0.0678977
63 1 Mg 6.35203 9.49799 2.9896 1.2 1 0.0131482 0.0176078 0.0257121 0.0212287 0.0193194 0.03798 0.0370657 0.0512095 0.0347482 0.0585895 0.0315679 0.0647973 0.0285375 0.0665834 0.0475645 0.0800085 0.045384 0.090075 0.0450211 0.0907531
64 3 O 4.71833 10.8154 2.79288 -1.2 1 0.0258974 0.00959984 0.0314762 0.012934 0.03022 0.0435841 0.0438063 0.0450771 0.0426463 0.0374181 0.0531172 0.0429481 0.053881 0.057889 0.0730087 0.0676712 0.0722899 0.0592772 0.0692696 0.0805871
65 1 Mg -1.0438 9.53931 4.4844 1.2 1 0.0143232 0.0169656 0.0164684 0.0241333 0.0268382 0.0288695 0.0394279 0.0353164 0.0460366 0.0508402 0.0578372 0.0567003 0.0695048 0.0705967 0.0595383 0.0692654 0.0721599 0.0986728 0.0712902 0.0852579
66 2 Si -2.8604 12.2234 4.4844 2.4 1 0.0188202 0.012064 0.0167521 0.0266355 0.030069 0.0420637 0.0594462 0.0304846 0.053808 0.0627752 0.0547214 0.0626735 0.0611196 0.0557415 0.0800636 0.0710389 0.0494755 0.0904609 0.0541676 0.0639586
67 3 O -2.91391 10.6102 4.4844 -1.2 1 0.0211772 0.0123038 0.00913806 0.0235505 0.0266173 0.0234768 0.0442584 0.0626358 0.04082 0.0490377 0.0366543 0.0706431 0.0456 0.0579186 0.0673583 0.0696166 0.04954 0.0740574 0.0614982 0.0754731
68 3 O 0.7596 13.1975 4.4844 -1.2 1 0.0224946 0.0257502 0.0196717 0.0133942 0.0241139 0.0506982 0.0332894 0.0501007 0.0459126 0.0497401 0.0386227 0.049614 0.0474333 0.0707145 0.102344 0.0622165 0.0759517 0.0537087 0.0726293 0.0718785
69 3 O -2.12001 12.9296 3.18632 -1.2 1 0.0173743 0.00934307 0.0190675 0.0166786 0.0204334 0.0384637 0.0418787 0.0553818 0.0464746 0.0523798 0.0542739 0.0485831 0.0562488 0.0498363 0.0803763 0.0637129 0.0719715 0.0629096 0.06627 0.0698418
70 3 O -2.16532 12.9296 5.78248 -1.2 1 0.0154596 0.0144352 0.0204518 0.0215002 0.0169406 0.0297416 0.0481315 0.0471496 0.0374945 0.0397161 0.0584007 0.0391045 0.0582267 0.0589101 0.0860819 0.0710883 0.0698573 0.0631381 0.0693625 0.0764202
71 1 Mg 1.29891 11.8725 2.9896 1.2 1 0.00705989 0.0157584 0.0223918 0.022635 0.0176798 0.0381352 0.0365192 0.050706 0.0350292 0.0601908 0.0339489 0.0589885 0.0257491 0.0676517 0.0488095 0.0823879 0.048582 0.0895338 0.0473346 0.0860004
72 1 Mg 4.10033 11.8312 4.4844 1.2 1 0.00969156 0.0134549 0.0183858 0.0245508 0.0276271 0.0321485 0.0395375 0.035464 0.0478466 0.0525927 0.0529754 0.0545858 0.069023 0.0684039 0.0537222 0.0707196 0.0697773 0.100113 0.075027 0.0807496
73 2 Si 2.27333 13.896 4.4844 2.4 1 0.0244906 0.0093831 0.0271447 0.0245816 0.0242637 0.0374998 0.0620298 0.0302408 0.0544504 0.0564452 0.0526053 0.0601921 0.0616978 0.0563609 0.0767448 0.0689145 0.0468361 0.0973945 0.0544005 0.0560782
74 3 O 2.28634 15.5093 4.4844 -1.2 1 0.0210214 0.0127085 0.0062337 0.0182289 0.0244735 0.0222013 0.0408325 0.0591107 0.0403222 0.0516702 0.041964 0.0721957 0.0484072 0.0631709 0.0699437 0.0707017 0.0476137 0.0708082 0.0661777 0.0743873
75 3 O -4.34533 12.922 4.4844 -1.2 1 0.0251669 0.0218504 0.0206446 0.0143539 0.0220653 0.0509577 0.0365867 0.0486119 0.0437231 0.0530116 0.0386566 0.0523125 0.0488474 0.0717414 0.100129 0.0676877 0.0762912 0.0536486 0.07421 0.0742608
76 3 O 2.98455 13.1899 3.18632 -1.2 1 0.0252298 0.0113379 0.0191179 0.0118919 0.0189101 0.0401235 0.0378279 0.0576374 0.0426762 0.0549693 0.0551336 0.0491367 0.0510698 0.0499975 0.0812726 0.0607741 0.0676814 0.0607128 0.0650459 0.0713645
77 1 Mg 1.34779 11.8725 0 1.2 1 0.0218127 0.0092882 0.021902 0.0148197 0.0286861 0.0226855 0.0516028 0.0347615 0.0574971 0.0509955 0.0496375 0.0354598 0.0650782 0.0501297 0.0706074 0.0642392 0.0616095 0.0701357 0.0873196 0.0597164
78 3 O 2.93934 13.1899 5.78248 -1.2 1 0.0214766 0.0129571 0.019066 0.0181512 0.0147227 0.0274875 0.0453276 0.0486266 0.0390597 0.0407293 0.0591207 0.0384612 0.0544382 0.058908 0.0869865 0.0653685 0.0687345 0.0626166 0.0668711 0.0785491
79 1 Mg -1.50344 11.9138 1.4948 1.2 1 0.0129379 0.0179215 0.0228992 0.0204276 0.0118116 0.0369276 0.0383735 0.042445 0.0411531 0.0599204 0.0352373 0.0651794 0.050575 0.0649347 0.0747071 0.0681026 0.0641195 0.0840249 0.0765477 0.0787807
80 2 Si 0.326006 9.84894 1.4948 2.4 1 0.0280994 0.0178387 0.0269569 0.0295225 0.0168955 0.0381171 0.0434432 0.0399613 0.0440318 0.0550303 0.0396054 0.0604328 0.0556183 0.0663299 0.0608184 0.0627228 0.0701569 0.0802129 0.061549 0.06883
81 3 O 0.317364 8.23571 1.4948 -1.2 1 0.0224135 0.0125347 0.022627 0.0239682 0.0201853 0.0452748 0.042886 0.04983 0.0346536 0.0541882 0.044255 0.0657734 0.0574058 0.0597382 0.0681237 0.0663568 0.0717046 0.0534596 0.0734417 0.0741344
82 3 O 6.94307 10.823 1.4948 -1.2 1 0.0312065 0.014865 0.0220483 0.0117926 0.0373275 0.0330221 0.0381541 0.0576829 0.0346929 0.0475771 0.0513353 0.0524437 0.0501833 0.074912 0.0727245 0.0798378 0.0618094 0.0728418 0.058134 0.0804828
83 3 O -0.343122 10.5551 0.196716 -1.2 1 0.0308744 0.0175022 0.0216415 0.0208766 0.0297835 0.0413904 0.0512635 0.0397318 0.0387044 0.0506874 0.0370806 0.0376203 0.0613812 0.0608358 0.0688162 0.0707677 0.0810343 0.054146 0.0700752 0.0693626
84 3 O -0.385966 10.5551 2.79288 -1.2 1 0.0229107 0.0146008 0.0332901 0.0126504 0.0330801 0.0437752 0.0452241 0.0457237 0.0446998 0.0390361 0.0528345 0.0477266 0.0494715 0.0567121 0.0694684 0.0701081 0.0663819 0.0613705 0.0692217 0.0791206
85 1 Mg 6.49448 14.247 0 1.2 1 0.0226428 0.00994574 0.0185249 0.0168427 0.0287419 0.022611 0.0478639 0.0328342 0.0593707 0.0480764 0.0513103 0.03753 0.0626103 0.0530145 0.0713493 0.0654059 0.0642674 0.070838 0.0844733 0.0708828
86 1 Mg 3.74457 18.9547 1.4948 1.2 1 0.0149503 0.0107119 0.0152473 0.0160987 0.0257475 0.0293123 0.0313231 0.0395057 0.0379305 0.0579086 0.0433351 0.0666782 0.0506726 0.066282 0.0706346 0.0698309 0.063214 0.0832322 0.0785659 0.0759022
87 2 Si 5.55495 16.2705 1.4948 2.4 1 0.0108102 0.0219216 0.0201372 0.0269752 0.0176928 0.0428071 0.0370286 0.0402967 0.0465539 0.0525544 0.0440118 0.0603737 0.0540188 0.0643632 0.070201 0.0592388 0.073351 0.079432 0.0605724 0.0708016
88 3 O 5.6115 17.8838 1.4948 -1.2 1 0.0268822 0.0180707 0.023293 0.0256678 0.0192072 0.0434482 0.0452514 0.0608622 0.0373135 0.0499687 0.037925 0.0672799 0.0510473 0.0558645 0.0644455 0.0577471 0.0657512 0.0617764 0.0630862 0.069391
89 3 O 1.93416 15.2965 1.4948 -1.2 1 0.0370827 0.0146835 0.0219365 0.0130561 0.0350665 0.030336 0.0361008 0.0590943 0.043061 0.0468483 0.04858 0.0504144 0.04649 0.0739986 0.0808715 0.0775914 0.0589943 0.0739288 0.062271 0.0773389
90 3 O 4.85636 15.5644 0.196716 -1.2 1 0.0224947 0.0118 0.0212633 0.0189819 0.025191 0.0514263 0.0496342 0.0397497 0.0393816 0.0444031 0.0375796 0.0323685 0.0631179 0.0545377 0.0672683 0.0676129 0.0762954 0.0628789 0.0728503 0.0685913
91 1 Mg 6.44662 14.247 2.9896 1.2 1 0.0104349 0.0182677 0.022702 0.0216817 0.0184229 0.0354574 0.037913 0.0536842 0.0364487 0.0573672 0.03398 0.0628936 0.024998 0.0676565 0.0456103 0.0767094 0.0452563 0.0918994 0.0436616 0.0924398
92 3 O 4.81537 15.5644 2.79288 -1.2 1 0.0117826 0.00964076 0.0295227 0.0133524 0.0280268 0.0373612 0.0466479 0.0470105 0.0459957 0.0389168 0.0513561 0.0419541 0.0535366 0.0574754 0.0758697 0.0672899 0.0764093 0.0524134 0.0719856 0.0756148
93 1 Mg -0.948271 14.2883 4.4844 1.2 1 0.0167446 0.0124235 0.0146214 0.0288011 0.0239762 0.0282377 0.0378488 0.0344003 0.0444307 0.0490194 0.0589269 0.056323 0.0672222 0.068459 0.058596 0.0701975 0.0713469 0.0964911 0.0732299 0.0832165
94 2 Si -2.75928 16.9724 4.4844 2.4 1 0.0192557 0.013685 0.0168322 0.0278681 0.0313268 0.0398366 0.05899 0.0303302 0.0547341 0.0641237 0.053209 0.0622597 0.0607095 0.0541606 0.0785234 0.0721363 0.0482435 0.0915277 0.0536855 0.0632783
95 3 O -2.81617 15.3592 4.4844 -1.2 1 0.0164822 0.0205857 0.00850775 0.0255298 0.0295786 0.0236857 0.0424531 0.0632068 0.0424376 0.0509933 0.0379008 0.0723498 0.0478795 0.0597895 0.0684299 0.0689525 0.0509188 0.0742878 0.0639751 0.0762763
96 3 O 0.862762 17.9465 4.4844 -1.2 1 0.0227507 0.0242044 0.0229919 0.0161592 0.0207269 0.0478043 0.0356957 0.0508519 0.0458638 0.0528654 0.0408316 0.0469576 0.0453846 0.0718355 0.105887 0.0581944 0.0693755 0.0544688 0.0736014 0.0700147
97 3 O -2.0185 17.6786 3.18632 -1.2 1 0.0216299 0.0073835 0.0199071 0.0181304 0.0178155 0.03732 0.042001 0.0550729 0.041316 0.0537691 0.0535168 0.049193 0.0563805 0.0495542 0.0817438 0.0593014 0.0694252 0.0669054 0.064373 0.0682558
98 3 O -2.06164 17.6786 5.78248 -1.2 1 0.0203187 0.0128734 0.0204401 0.0210124 0.0139877 0.0254484 0.0485799 0.0433965 0.0376233 0.0381347 0.0567473 0.0381854 0.0547049 0.0576706 0.0823893 0.0674822 0.0686889 0.0626428 0.0684461 0.0769394
99 1 Mg 1.39817 16.6215 2.9896 1.2 1 0.00612944 0.0164907 0.0190568 0.0225144 0.01814 0.0359423 0.0371651 0.0531485 0.0365939 0.0593113 0.0355887 0.0568744 0.023404 0.0673831 0.0471224 0.0807475 0.049423 0.0915041 0.0450293 0.0886311
100 1 Mg 4.20062 16.5802 4.4844 1.2 1 0.0165784 0.0152558 0.0156089 0.02689 0.0234641 0.0308657 0.0432316 0.0346481 0.0456354 0.051554 0.0546216 0.0556734 0.068285 0.0687209 0.0537456 0.0722548 0.069967 0.0961452 0.0736045 0.0809218
101 2 Si 2.37796 18.645 4.4844 2.4 1 0.0247277 0.0100084 0.0218864 0.0239652 0.0239112 0.0382819 0.0603448 0.0313186 0.0549696 0.0577698 0.0521337 0.0620372 0.0620379 0.0576932 0.0740875 0.0676596 0.0453722 0.0992344 0.0525945 0.0563054
102 3 O 2.39434 20.2583 4.4844 -1.2 1 0.0233196 0.0113357 0.0124216 0.0162812 0.0246743 0.0220809 0.0401008 0.0591654 0.0433071 0.0495729 0.0414061 0.073487 0.050294 0.0637039 0.0702183 0.0703935 0.0474392 0.0691827 0.0642889 0.0785623
103 3 O -4.24274 17.671 4.4844 -1.2 1 0.0223452 0.0216715 0.0205443 0.016629 0.0205033 0.0485773 0.0357739 0.0479489 0.0428572 0.0541886 0.0397312 0.0509889 0.0497877 0.0716118 0.0987678 0.062863 0.0741117 0.0543316 0.0772249 0.0720056
104 3 O 3.08659 17.9389 3.18632 -1.2 1 0.0253931 0.014275 0.0204649 0.0118647 0.0181241 0.0406685 0.0380972 0.0560134 0.0460367 0.0496339 0.0572144 0.0476205 0.0519126 0.0516015 0.0803192 0.059411 0.0669362 0.0600055 0.0635909 0.0697234
105 1 Mg 1.44478 16.6215 0 1.2 1 0.00945186 0.0121849 0.0217602 0.0127666 0.0267213 0.031674 0.0479556 0.0354719 0.0506527 0.0505138 0.0517087 0.0396742 0.0587992 0.049426 0.069857 0.0661298 0.0601761 0.0677346 0.0885173 0.0641057
106 3 O 3.0436 17.9389 5.78248 -1.2 1 0.0147816 0.0134864 0.0186786 0.0231556 0.0201553 0.0241761 0.0495795 0.0463042 0.0419248 0.040407 0.0581186 0.0376862 0.0559203 0.0609444 0.087249 0.0644317 0.0698282 0.0614104 0.0638553 0.0788688
107 1 Mg -1.40524 16.6628 1.4948 1.2 1 0.0116107 0.012534 0.0257064 0.0177107 0.017319 0.0344777 0.036003 0.0427618 0.041331 0.0604218 0.0403555 0.0625206 0.0549001 0.0645049 0.0739298 0.0692378 0.0644001 0.0779449 0.078306 0.0759463
108 2 Si 0.420358 14.5979 1.4948 2.4 1 0.0209145 0.0196885 0.0272023 0.0268667 0.018182 0.0393384 0.0396255 0.039805 0.0451892 0.0556146 0.0441506 0.0603156 0.057786 0.0636279 0.0676658 0.0598216 0.0722468 0.0760677 0.0623634 0.0716402
109 3 O 0.408732 12.9847 1.4948 -1.2 1 0.0222219 0.0154946 0.0228684 0.025683 0.0167207 0.0471528 0.0438011 0.0539125 0.0361507 0.0527769 0.0422119 0.0692502 0.0532182 0.0568915 0.0659507 0.0635379 0.0714147 0.0550591 0.0682412 0.0718305
110 3 O 7.03923 15.572 1.4948 -1.2 1 0.0293134 0.0168402 0.0218056 0.0127406 0.0360911 0.0334908 0.0369187 0.0561598 0.0381932 0.0443786 0.0511551 0.0533657 0.0482137 0.0741412 0.078244 0.078323 0.0642773 0.069628 0.0624121 0.0774208
111 3 O -0.248332 15.3041 0.196716 -1.2 1 0.0219811 0.0121582 0.0221775 0.0192564 0.0243112 0.0463887 0.050092 0.0435725 0.040218 0.0467653 0.0370424 0.0319062 0.0620217 0.0545837 0.0701889 0.0652305 0.0820617 0.0505969 0.0697183 0.0713039
112 3 O -0.289436 15.3041 2.79288 -1.2 1 0.0143641 0.0174087 0.0290263 0.0106865 0.0310328 0.0359082 0.0441521 0.0469084 0.0436452 0.0402129 0.0542166 0.0483679 0.0510385 0.0530228 0.0725988 0.0700616 0.0714955 0.0554487 0.0688583 0.0764385
113 1 Mg 6.59566 18.996 0 1.2 1 0.0138336 0.0116514 0.0198901 0.0143323 0.0259411 0.031561 0.0431673 0.0330965 0.0539998 0.0492744 0.0539161 0.0390006 0.0521097 0.0528794 0.0722381 0.064528 0.0641465 0.064753 0.0860104 0.0707257
114 1 Mg 3.85574 23.7037 1.4948 1.2 1 0.0107124 0.0126701 0.0211837 0.0140529 0.0225761 0.0288328 0.0312322 0.0372169 0.0389878 0.0601452 0.0468809 0.0625939 0.0500025 0.0668845 0.064725 0.0724155 0.0663828 0.0797965 0.0799611 0.0758617
115 2 Si 5.66125 21.0195 1.4948 2.4 1 0.00857374 0.0227066 0.0248023 0.0274647 0.0200942 0.0457939 0.0337961 0.0433697 0.0474004 0.0540625 0.0443726 0.0612303 0.0556904 0.0599556 0.0709234 0.0606914 0.0733315 0.0772947 0.0650028 0.0752327
116 3 O 5.72074 22.6328 1.4948 -1.2 1 0.028185 0.0191628 0.0183033 0.022806 0.0191544 0.0447338 0.0454283 0.0619284 0.0381523 0.0521127 0.0328502 0.0698709 0.0492348 0.0535234 0.0681281 0.055906 0.0650035 0.0678777 0.0563017 0.0713206
117 3 O 2.03867 20.0455 1.4948 -1.2 1 0.0300337 0.0165009 0.0267601 0.0159152 0.0341825 0.0299703 0.0360456 0.0551683 0.0438809 0.0426781 0.0506221 0.0504411 0.0478759 0.0738216 0.0848141 0.0727182 0.0618097 0.0679865 0.0637405 0.0732371
118 3 O 4.96004 20.3134 0.196716 -1.2 1 0.02112 0.0103953 0.0229307 0.0187762 0.0232081 0.0453306 0.0439715 0.0479328 0.0389693 0.0399078 0.041153 0.034262 0.0646271 0.047587 0.069681 0.0728457 0.0715958 0.0581659 0.0716477 0.0720798
119 1 Mg 6.55057 18.996 2.9896 1.2 1 0.00935997 0.0173322 0.0206029 0.021339 0.0209288 0.0340764 0.0369791 0.0552058 0.034118 0.0594378 0.0343757 0.0623548 0.0224562 0.0702007 0.0449869 0.0739674 0.0465964 0.0955563 0.0431215 0.0930588
120 3 O 4.92172 20.3134 2.79288 -1.2 1 0.00989432 0.0114495 0.0312753 0.015104 0.0299742 0.0399197 0.0461008 0.0455143 0.047436 0.0426792 0.0525278 0.0406419 0.053602 0.0537972 0.07676 0.0675725 0.0761672 0.0482552 0.0720699 0.071671
121 1 Mg -0.84282 19.0373 4.4844 1.2 1 0.0146897 0.0124472 0.0141603 0.0280226 0.0231898 0.0274195 0.0362879 0.032598 0.0449909 0.0489588 0.0597757 0.0568371 0.0672564 0.0689994 0.0587497 0.0731187 0.0709999 0.0932013 0.0735346 0.0830367
122 2 Si -2.64823 21.7214 4.4844 2.4 1 0.0198564 0.0130189 0.0170546 0.0278374 0.0284569 0.0409418 0.0566229 0.0314354 0.0550172 0.0622846 0.0521533 0.0642195 0.0602658 0.054911 0.0767715 0.0718469 0.0461037 0.0934796 0.0535678 0.0646175
123 3 O -2.70847 20.1082 4.4844 -1.2 1 0.0139792 0.020474 0.0134992 0.0271032 0.0238703 0.0244863 0.0385972 0.0639754 0.0434793 0.0478808 0.0386927 0.0701737 0.0519317 0.0583469 0.0683004 0.0647649 0.0527203 0.0719553 0.0675133 0.0762477
124 3 O 0.97581 22.6955 4.4844 -1.2 1 0.0203683 0.0254126 0.0213196 0.017013 0.0191257 0.0429953 0.0319672 0.0495405 0.0438787 0.054493 0.0405385 0.0461138 0.0464438 0.0731298 0.107277 0.0544184 0.0670253 0.0565312 0.0737885 0.0679074
125 3 O -1.9076 22.4276 3.18632 -1.2 1 0.0218307 0.00813165 0.0209338 0.0162525 0.0133887 0.0368578 0.043902 0.0557591 0.0373446 0.0504282 0.0549101 0.0485773 0.0561999 0.048077 0.0808323 0.0577791 0.0690366 0.0662471 0.0626389 0.0655388
126 3 O -1.9475 22.4276 5.78248 -1.2 1 0.0131346 0.0071532 0.0231555 0.0213419 0.0172881 0.0261938 0.0494174 0.0468139 0.0366255 0.0382145 0.0569729 0.0398143 0.0569126 0.0597741 0.082279 0.0688212 0.0712835 0.0632902 0.0671477 0.077277