ITEM: TIMESTEP
9400
ITEM: NUMBER OF ATOMS
10500
ITEM: BOX BOUNDS xy xz yz pp pp pp
0	15.2977	5.09925
0	118.725	0
0	89.688	0
ITEM: ATOMS id type element xu yu zu q Q_1 Q_2 Q_3 Q_4 Q_5 Q_6 Q_7 Q_8 Q_9 Q_10 Q_11 Q_12 Q_13 Q_14 Q_15 Q_16 Q_17 Q_18 Q_19 Q_20 Q_21
1 1 Mg 6.2404 -6.37941e-06 0 1.2 1 0.0130628 0.040963 0.02978 0.0359252 0.0330355 0.0412574 0.035381 0.0687109 0.0386793 0.0712507 0.0338665 0.0593196 0.0461611 0.068644 0.0503286 0.0918115 0.0518814 0.083699 0.050478 0.10245
2 1 Mg 3.46349 4.70768 1.4948 1.2 1 0.0124726 0.016204 0.025144 0.0235934 0.0198676 0.0414487 0.0436283 0.0412007 0.047802 0.0558146 0.0420302 0.0697777 0.0578823 0.0705246 0.0730179 0.0644589 0.0669345 0.0849751 0.0736923 0.0826029
3 2 Si 5.2885 2.02354 1.4948 2.4 1 0.0199018 0.0221985 0.0337868 0.0284655 0.0300712 0.0374899 0.0537283 0.0327175 0.0437892 0.0537742 0.0544934 0.0619588 0.0550853 0.0649486 0.067857 0.0798545 0.0707374 0.0644739 0.0641901 0.0729411
4 3 O 5.33628 3.63678 1.4948 -1.2 1 0.00938267 0.0141391 0.0267844 0.0259316 0.0184082 0.0390927 0.041936 0.0601978 0.0354511 0.0400749 0.0547585 0.0508962 0.0678625 0.0575851 0.0590355 0.0648886 0.0603754 0.061475 0.0712011 0.0745371
5 3 O 1.67294 1.04952 1.4948 -1.2 1 0.0162661 0.0217756 0.0234427 0.0355001 0.0296576 0.0386567 0.034224 0.0608566 0.0348521 0.0593889 0.0438814 0.051211 0.0718558 0.059408 0.0761834 0.069221 0.0627669 0.064465 0.0795385 0.0601081
6 3 O 4.59532 1.31737 0.196716 -1.2 1 0.0258849 0.0220376 0.0576144 0.0252072 0.0332659 0.0486823 0.0385352 0.0473001 0.0338756 0.0391145 0.0387458 0.0504995 0.054199 0.0571279 0.0635334 0.0699186 0.0620649 0.0714852 0.0591903 0.0708925
7 1 Mg 6.18956 -6.37941e-06 2.9896 1.2 1 0.0154205 0.0287892 0.0154815 0.0216664 0.0362027 0.0448928 0.050461 0.0426153 0.0480631 0.0447885 0.0383232 0.0570407 0.0383989 0.0559668 0.0587578 0.0796362 0.0561665 0.0697656 0.058868 0.0704086
8 3 O 4.55118 1.31737 2.79288 -1.2 1 0.0214121 0.0248125 0.0371875 0.0174286 0.0284597 0.0444104 0.0440172 0.0470326 0.0424876 0.0528666 0.0540273 0.0484179 0.0484731 0.0659365 0.0550803 0.0702252 0.064759 0.0671473 0.0642738 0.0713887
9 1 Mg -1.20682 0.0413099 4.4844 1.2 1 0.0142431 0.0249927 0.0206478 0.0270352 0.036065 0.0404568 0.0315892 0.0528817 0.053337 0.0398456 0.0492246 0.0613146 0.0656114 0.0592259 0.0764414 0.0606169 0.080497 0.073627 0.0642931 0.0529879
10 2 Si -3.0337 2.72544 4.4844 2.4 1 0.0319993 0.0154016 0.0228216 0.018259 0.0309478 0.0374473 0.0621585 0.0341936 0.0628034 0.0510138 0.0468247 0.059276 0.0580398 0.0759132 0.0543719 0.0608633 0.0714569 0.0792257 0.0725597 0.0595526
11 3 O -3.08099 1.11221 4.4844 -1.2 1 0.0145591 0.0224209 0.028229 0.0251002 0.038936 0.0276589 0.0497437 0.0491489 0.0404838 0.0396089 0.0375266 0.0727907 0.0541831 0.051642 0.0550025 0.0687106 0.0539862 0.0805223 0.0713756 0.0776259
12 3 O 0.582463 3.69946 4.4844 -1.2 1 0.0100742 0.011504 0.0341948 0.0310314 0.0265349 0.062212 0.031085 0.055147 0.0439278 0.0414442 0.0532915 0.0572236 0.0590811 0.0715498 0.0999517 0.0709693 0.0789466 0.0399953 0.0720656 0.0688485
13 3 O -2.29524 3.43162 3.18632 -1.2 1 0.0127055 0.0205611 0.0256393 0.0308989 0.0197121 0.0501595 0.0512508 0.0494597 0.0410715 0.0532619 0.0593541 0.0548568 0.0405522 0.0522814 0.0580963 0.0647422 0.0670407 0.0620921 0.0636311 0.0727548
14 3 O -2.34216 3.43162 5.78248 -1.2 1 0.0168731 0.0113115 0.0229124 0.0277285 0.0282916 0.0387687 0.0565683 0.0457345 0.0398563 0.0556961 0.0551253 0.0482594 0.0549478 0.0543482 0.0778533 0.0715794 0.063394 0.0703693 0.0737647 0.0719818
15 1 Mg 1.12778 2.37449 2.9896 1.2 1 0.0155142 0.0402698 0.0168687 0.0241852 0.0255418 0.0436037 0.0408717 0.0505982 0.0370667 0.0607082 0.0377831 0.0584818 0.0406423 0.0673047 0.0639118 0.0695488 0.067789 0.0818137 0.044934 0.0874196
16 1 Mg 3.92855 2.33318 4.4844 1.2 1 0.0282398 0.0158579 0.0239986 0.029653 0.0435915 0.0259033 0.0374354 0.0382613 0.0474468 0.0684117 0.0503027 0.0595235 0.0502152 0.0601633 0.0546749 0.073313 0.0627343 0.095439 0.0740142 0.0849893
17 2 Si 2.09341 4.39804 4.4844 2.4 1 0.0138261 0.0206202 0.0332342 0.0149526 0.0416601 0.0271648 0.0639374 0.0206347 0.0441866 0.0475687 0.0625022 0.0617631 0.0672765 0.0587991 0.0726689 0.0757409 0.0719342 0.0814229 0.05108 0.0656463
18 3 O 2.09991 6.01128 4.4844 -1.2 1 0.00994832 0.0116378 0.0176268 0.0188577 0.0345205 0.0226258 0.0522463 0.0504405 0.0472088 0.0467045 0.0474877 0.0655495 0.0451703 0.0614144 0.0663113 0.0719032 0.0461148 0.0794824 0.0606558 0.0713757
19 3 O -4.52137 3.42402 4.4844 -1.2 1 0.0209271 0.0288752 0.0355208 0.0220248 0.0257048 0.0575396 0.038243 0.0482797 0.0544498 0.0591151 0.0319694 0.0583542 0.0530163 0.0527878 0.0905482 0.0724069 0.0764397 0.0602121 0.0732981 0.0554472
20 3 O 2.80834 3.69187 3.18632 -1.2 1 0.00923169 0.018099 0.0207849 0.0249878 0.0224653 0.0387185 0.036098 0.0503655 0.0445169 0.0591528 0.0671276 0.0515099 0.0425844 0.064499 0.0701425 0.0719067 0.062155 0.0578694 0.0705441 0.0710287
21 1 Mg 1.17857 2.37449 0 1.2 1 0.014389 0.0370601 0.0291733 0.0286696 0.0362831 0.0388788 0.0426214 0.0587584 0.0352701 0.0489403 0.0527026 0.0408964 0.0435018 0.0669858 0.0552603 0.0655767 0.059777 0.080745 0.0570792 0.0729725
22 3 O 2.76143 3.69187 5.78248 -1.2 1 0.00467248 0.0196943 0.018822 0.0245479 0.0182775 0.0330993 0.0397574 0.0473541 0.0346404 0.0455306 0.0584243 0.0439199 0.0542638 0.0774796 0.0741603 0.0685321 0.0683901 0.0580521 0.0709588 0.0745192
23 1 Mg -1.67381 2.41581 1.4948 1.2 1 0.0114481 0.0115847 0.0371809 0.0362582 0.0323958 0.044048 0.0587301 0.040401 0.0509802 0.0404872 0.0463904 0.0592769 0.0550004 0.0636169 0.0615221 0.0645786 0.0834128 0.0776269 0.0666283 0.0741758
24 2 Si 0.16286 0.350945 1.4948 2.4 1 0.0152418 0.0321025 0.0280557 0.0233774 0.0355191 0.0356127 0.0558392 0.0513453 0.0527903 0.0487508 0.0404755 0.0558187 0.073758 0.0690238 0.0571871 0.0732434 0.069449 0.0647804 0.0733042 0.0657978
25 3 O 0.15972 -1.26229 1.4948 -1.2 1 0.0092011 0.0152417 0.0397091 0.0213289 0.0376156 0.0359751 0.0455273 0.0569683 0.0469148 0.0514383 0.0556064 0.055444 0.0630759 0.0664819 0.04994 0.0594531 0.0695243 0.0662305 0.0626337 0.074235
26 3 O 6.77654 1.32496 1.4948 -1.2 1 0.0115348 0.0277665 0.0266243 0.0277072 0.0372445 0.0545388 0.0341854 0.064941 0.047603 0.04667 0.0442368 0.0523951 0.0525052 0.0595487 0.0686317 0.0714501 0.0845458 0.0628539 0.0599025 0.074556
27 3 O -0.508028 1.05712 0.196716 -1.2 1 0.0246093 0.0189767 0.0296544 0.0205115 0.0290975 0.0535387 0.0437332 0.0447348 0.0469945 0.0482122 0.0503301 0.0482289 0.0494903 0.0637137 0.0552014 0.0632103 0.0635192 0.0590367 0.0717001 0.0722031
28 3 O -0.552171 1.05712 2.79288 -1.2 1 0.0349227 0.0289927 0.0337049 0.0331134 0.0227891 0.0427876 0.0414225 0.047669 0.0425426 0.0387855 0.0496602 0.0486589 0.0577154 0.0628172 0.0663924 0.0755764 0.0726406 0.0505446 0.0690218 0.0724557
29 1 Mg 6.31713 4.74899 0 1.2 1 0.0270267 0.029717 0.0298269 0.0357647 0.0321472 0.025501 0.0408562 0.0569698 0.0586749 0.0495546 0.0509476 0.0393188 0.0585074 0.0617305 0.0663152 0.0634971 0.0664277 0.0741159 0.070357 0.0696068
30 1 Mg 3.54847 9.45668 1.4948 1.2 1 0.0218259 0.0142911 0.0180921 0.0205181 0.0182679 0.038218 0.038344 0.0417575 0.0448073 0.0555028 0.0386341 0.0694098 0.0522344 0.0655457 0.0716785 0.0634907 0.066978 0.0872405 0.0745782 0.0792287
31 2 Si 5.36879 6.77254 1.4948 2.4 1 0.0259418 0.0296822 0.0212986 0.0263757 0.024546 0.0351147 0.044304 0.0347803 0.0455612 0.0585216 0.0425052 0.0576428 0.0525612 0.0676378 0.0650285 0.0751517 0.0673173 0.0784799 0.0568334 0.068732
32 3 O 5.41937 8.38578 1.4948 -1.2 1 0.0214866 0.0114385 0.0235509 0.0296599 0.0174656 0.0432189 0.0441391 0.0572524 0.0363253 0.0504919 0.0475674 0.0641797 0.0551987 0.0537261 0.0663653 0.0607613 0.0730596 0.0558899 0.0732133 0.0731752
33 3 O 1.75158 5.79852 1.4948 -1.2 1 0.0284539 0.0123559 0.0224264 0.026605 0.0440815 0.0307708 0.0391969 0.0570895 0.0408404 0.0527008 0.0495124 0.0506629 0.047434 0.0709028 0.078606 0.0785634 0.0602942 0.0749769 0.0600248 0.0766616
34 3 O 4.67421 6.06637 0.196716 -1.2 1 0.0146031 0.0264918 0.0315709 0.0243518 0.0320384 0.0377953 0.034556 0.0322149 0.0448263 0.056084 0.0392688 0.0443131 0.0669054 0.0562422 0.067622 0.0713045 0.0713781 0.0657668 0.0632392 0.0682787
35 1 Mg 6.26654 4.74899 2.9896 1.2 1 0.0220991 0.0248542 0.0235537 0.0435746 0.0258644 0.0443376 0.0481794 0.0479423 0.036051 0.0624545 0.0374032 0.059836 0.0388058 0.0641391 0.0527592 0.0767694 0.0555981 0.0842427 0.0458368 0.0900052
36 3 O 4.63043 6.06637 2.79288 -1.2 1 0.0187981 0.0198534 0.0415131 0.0194804 0.0323685 0.0364588 0.042948 0.048661 0.0449764 0.037067 0.0494302 0.0527227 0.0574617 0.0651714 0.0616612 0.0729763 0.0656511 0.067633 0.0673654 0.084993
37 1 Mg -1.12976 4.79031 4.4844 1.2 1 0.0218274 0.0255642 0.0115187 0.0131325 0.0371736 0.0369717 0.048506 0.0494271 0.0445467 0.0447871 0.0552078 0.0604887 0.0767508 0.0713257 0.0610702 0.0681557 0.0714138 0.0940333 0.0722251 0.0815041
38 2 Si -2.9517 7.47444 4.4844 2.4 1 0.0237225 0.0136984 0.0178332 0.0262843 0.0305262 0.0427889 0.0618437 0.028464 0.0543274 0.0574664 0.051988 0.0585417 0.0639888 0.0575477 0.0802556 0.0703812 0.0524518 0.0875914 0.0564057 0.060707
39 3 O -3.00198 5.86121 4.4844 -1.2 1 0.013253 0.0220103 0.0280231 0.0261259 0.0340551 0.0315072 0.055973 0.0601161 0.0393994 0.0553449 0.0483234 0.0712729 0.0573818 0.0565355 0.0649042 0.0715796 0.0477632 0.0762468 0.0615104 0.0783718
40 3 O 0.666315 8.44846 4.4844 -1.2 1 0.0202679 0.0228408 0.0241639 0.0167532 0.0217651 0.0569624 0.0286702 0.0497827 0.042476 0.047477 0.0413964 0.0519144 0.0498779 0.0733702 0.101399 0.0672783 0.0768774 0.0508496 0.0711862 0.07294
41 3 O -2.21213 8.18062 3.18632 -1.2 1 0.013753 0.0139748 0.0164953 0.0155815 0.0164628 0.0366736 0.0462256 0.0561994 0.0455495 0.0538611 0.0541453 0.0509349 0.0536921 0.0482849 0.0782173 0.0627749 0.0716579 0.0588876 0.0675032 0.0720601
42 3 O -2.25864 8.18062 5.78248 -1.2 1 0.0166541 0.0185398 0.0181644 0.0189403 0.0167496 0.0291866 0.0485471 0.0477348 0.0380879 0.0399791 0.0558371 0.0391233 0.0576688 0.0557404 0.0850742 0.068041 0.0666233 0.0642322 0.0697108 0.0746117
43 1 Mg 1.20893 7.12349 2.9896 1.2 1 0.00770443 0.0225244 0.0186082 0.0247502 0.0240765 0.0396234 0.0426626 0.046468 0.0340571 0.0652021 0.0390096 0.0665394 0.0362691 0.0590543 0.0522795 0.0797994 0.0511748 0.0841368 0.0470638 0.0871998
44 1 Mg 4.00982 7.08218 4.4844 1.2 1 0.0220559 0.0145342 0.0236971 0.0348957 0.0303649 0.036712 0.044226 0.0372401 0.0460453 0.051209 0.0570507 0.055656 0.0706669 0.073384 0.0570249 0.0674882 0.0637505 0.098672 0.0746317 0.0819097
45 2 Si 2.17861 9.14704 4.4844 2.4 1 0.0291223 0.0128056 0.0216144 0.0206116 0.0320013 0.0316346 0.0637224 0.0237519 0.0502622 0.0555881 0.0558133 0.0584648 0.064804 0.0566981 0.0802202 0.0711241 0.0498724 0.0932705 0.0529813 0.0565326
46 3 O 2.18828 10.7603 4.4844 -1.2 1 0.0223794 0.0142883 0.00350753 0.0194442 0.0261775 0.0223135 0.0432917 0.0588077 0.040567 0.0523267 0.0396786 0.0703202 0.044212 0.0660433 0.0698297 0.0739483 0.0489751 0.0717634 0.0636983 0.0728049
47 3 O -4.43805 8.17302 4.4844 -1.2 1 0.0108225 0.0172517 0.017858 0.018948 0.0236836 0.0552448 0.0365682 0.0502263 0.042675 0.0476737 0.036252 0.0533357 0.0532786 0.0721215 0.100436 0.0669584 0.0814084 0.054324 0.0752019 0.0726827
48 3 O 2.89193 8.44087 3.18632 -1.2 1 0.0179835 0.015552 0.0182124 0.0144165 0.0214681 0.0419556 0.0338142 0.0560647 0.0432554 0.0516382 0.0590929 0.0489345 0.0514716 0.0533206 0.0803305 0.0631683 0.0703008 0.058859 0.0650899 0.0731935
49 1 Mg 1.25915 7.12349 0 1.2 1 0.0200495 0.0152129 0.0248324 0.014555 0.0321686 0.0255054 0.0525662 0.0404365 0.0557668 0.0500504 0.0527077 0.042515 0.0720555 0.0513147 0.067557 0.071012 0.0651502 0.0709045 0.0811124 0.0586284
50 3 O 2.84547 8.44087 5.78248 -1.2 1 0.0125583 0.014505 0.0152783 0.0178976 0.0185502 0.0293207 0.0440344 0.0487338 0.0365965 0.0416663 0.059328 0.0428492 0.0568545 0.0605206 0.0879025 0.0637941 0.0696318 0.0633232 0.0659251 0.0766155
51 1 Mg -1.59284 7.16481 1.4948 1.2 1 0.00980831 0.0163731 0.0205249 0.0203975 0.0149654 0.0372345 0.0461416 0.0427783 0.0433735 0.057722 0.0388575 0.0658241 0.0520276 0.0689957 0.0759377 0.0603579 0.0678272 0.0846103 0.0732933 0.07841
52 2 Si 0.240329 5.09994 1.4948 2.4 1 0.0246213 0.0172838 0.0159844 0.0433982 0.0272666 0.0404858 0.0468099 0.0533086 0.0551058 0.0488887 0.0454992 0.0575669 0.0590108 0.0679613 0.0655253 0.0665187 0.0638448 0.0727757 0.066293 0.067855
53 3 O 0.234538 3.48671 1.4948 -1.2 1 0.0131575 0.016316 0.0266098 0.0358109 0.0314803 0.0493385 0.0459592 0.0424368 0.0529059 0.0466472 0.052437 0.0612948 0.0562322 0.0608566 0.0619311 0.0624592 0.062859 0.0570696 0.0760181 0.0734485
54 3 O 6.85564 6.07396 1.4948 -1.2 1 0.032479 0.0194978 0.0345434 0.0276202 0.0372204 0.0402861 0.0325236 0.062349 0.0364666 0.0531187 0.053839 0.0534489 0.0552123 0.073562 0.0698157 0.07699 0.0665474 0.0723762 0.0532032 0.0851673
55 3 O -0.429565 5.80612 0.196716 -1.2 1 0.0340306 0.0200344 0.015963 0.0212833 0.0409434 0.0374489 0.0538949 0.045115 0.0460274 0.0562996 0.0397601 0.041904 0.0533211 0.0602596 0.0598887 0.0682103 0.0704939 0.0609409 0.0652974 0.0743335
56 3 O -0.473377 5.80612 2.79288 -1.2 1 0.0259469 0.0232367 0.031191 0.0197879 0.0343258 0.0454514 0.0481997 0.0505719 0.0523889 0.0459385 0.0630196 0.0392626 0.0428782 0.0575373 0.0658036 0.0718045 0.0644154 0.0689408 0.0697932 0.08086
57 1 Mg 6.40169 9.49799 0 1.2 1 0.0126599 0.0117462 0.0212643 0.014299 0.0304751 0.0213826 0.0522308 0.0356128 0.0586884 0.0492623 0.0498905 0.0354032 0.0670909 0.0524598 0.0710848 0.0671834 0.0654152 0.0705 0.0809898 0.0685543
58 1 Mg 3.64209 14.2057 1.4948 1.2 1 0.0105263 0.0110751 0.0179526 0.016587 0.0215157 0.0337127 0.0360417 0.0434649 0.0416125 0.0555487 0.0395543 0.0662664 0.053038 0.0661318 0.0736801 0.0631044 0.0648498 0.082355 0.0739508 0.0780387
59 2 Si 5.45748 11.5215 1.4948 2.4 1 0.0106988 0.0234884 0.0213776 0.0250602 0.017552 0.0405698 0.0400922 0.0384061 0.0444168 0.0557665 0.0427244 0.0597854 0.0529109 0.0671315 0.0694275 0.0640496 0.0716052 0.0809515 0.0591907 0.0669363
60 3 O 5.51101 13.1348 1.4948 -1.2 1 0.0241566 0.0133887 0.0222762 0.0294238 0.0198491 0.0433263 0.0444806 0.0590702 0.0365519 0.0498835 0.0428972 0.0671351 0.053127 0.053459 0.0654536 0.0599846 0.0707688 0.0579215 0.0695406 0.0720571
61 3 O 1.83851 10.5475 1.4948 -1.2 1 0.0351747 0.0140958 0.0216485 0.0139262 0.0363197 0.0303179 0.0364619 0.058971 0.0398034 0.0483395 0.0498364 0.0515982 0.0471812 0.0748958 0.0756755 0.0800519 0.0566836 0.0759585 0.0577191 0.0789874
62 3 O 4.7611 10.8154 0.196716 -1.2 1 0.0357338 0.0192785 0.0198722 0.0181059 0.0267323 0.0441975 0.0483039 0.03746 0.0387509 0.0492067 0.0369026 0.0409992 0.0607128 0.0606857 0.0649742 0.0713457 0.0752601 0.0657791 0.0728926 0.0677574
63 1 Mg 6.35203 9.49799 2.9896 1.2 1 0.0146469 0.0159065 0.025433 0.0236018 0.0193079 0.0390102 0.0366269 0.0503606 0.0347235 0.0586775 0.0316458 0.0658111 0.0270221 0.0659828 0.0472807 0.0813628 0.0453986 0.0894409 0.0455428 0.0915268
64 3 O 4.71833 10.8154 2.79288 -1.2 1 0.0258746 0.00964788 0.03161 0.012993 0.0301474 0.0435427 0.0437905 0.0450429 0.0426996 0.0376098 0.052894 0.0437673 0.0540602 0.0584423 0.0731482 0.0678893 0.072211 0.0592732 0.0695505 0.0806786
65 1 Mg -1.0438 9.53931 4.4844 1.2 1 0.0143626 0.0168365 0.0166389 0.024244 0.0269953 0.0282519 0.039818 0.0346843 0.0460845 0.051015 0.0577583 0.0568616 0.0691265 0.0712472 0.0585963 0.0689569 0.0728036 0.0981714 0.0710899 0.0856261
66 2 Si -2.8604 12.2234 4.4844 2.4 1 0.0187927 0.012011 0.0168506 0.0265619 0.0298543 0.0421586 0.0590453 0.0304803 0.0533231 0.0618655 0.0551444 0.0627153 0.0608902 0.0562761 0.0798243 0.0715332 0.0495318 0.0909315 0.0541204 0.0630799
67 3 O -2.91391 10.6102 4.4844 -1.2 1 0.0211073 0.0120224 0.00927846 0.0235985 0.026165 0.023878 0.0437498 0.0630952 0.0399959 0.0490515 0.0356888 0.0704624 0.0453672 0.0579852 0.0667902 0.069138 0.0498888 0.0743225 0.0622464 0.0754992
68 3 O 0.7596 13.1975 4.4844 -1.2 1 0.0268127 0.0250045 0.0182187 0.0118003 0.022912 0.0500831 0.0339725 0.0498865 0.0450737 0.0498203 0.0401038 0.0490546 0.0470905 0.0727625 0.0990585 0.0626071 0.0754766 0.0534974 0.0727405 0.0723272
69 3 O -2.12001 12.9296 3.18632 -1.2 1 0.0238316 0.0103226 0.0205148 0.0174351 0.0194282 0.0351318 0.0407349 0.05305 0.0441438 0.0541788 0.0520028 0.0502347 0.0545563 0.0472498 0.0807818 0.0622311 0.0723233 0.0639786 0.0680218 0.0695444
70 3 O -2.16532 12.9296 5.78248 -1.2 1 0.0152571 0.0142811 0.0229133 0.0250321 0.0156683 0.0265535 0.0486314 0.0452451 0.0378974 0.0388796 0.0568451 0.0388727 0.0557877 0.059783 0.0833302 0.068739 0.0695624 0.0617581 0.0687037 0.0774136
71 1 Mg 1.29891 11.8725 2.9896 1.2 1 0.00704487 0.0157546 0.0223214 0.0225663 0.017835 0.0378836 0.0367073 0.0506837 0.0351748 0.0603273 0.0342055 0.059192 0.025864 0.0675275 0.0490895 0.0823532 0.0491316 0.0896182 0.0478011 0.0865023
72 1 Mg 4.10033 11.8312 4.4844 1.2 1 0.00897042 0.0152376 0.0211182 0.0270329 0.0310256 0.0317317 0.0390343 0.0349512 0.0470005 0.0517767 0.0537136 0.054537 0.0675997 0.0705883 0.0539081 0.0715597 0.0707573 0.099295 0.0758525 0.0792328
73 2 Si 2.27333 13.896 4.4844 2.4 1 0.0244416 0.00920139 0.027147 0.0244459 0.0248767 0.0372644 0.0622486 0.0304747 0.0542928 0.0565763 0.0533252 0.0610616 0.0619795 0.0551391 0.0767322 0.0699088 0.0471491 0.0969236 0.0542779 0.0565635
74 3 O 2.28634 15.5093 4.4844 -1.2 1 0.0205869 0.0125691 0.010534 0.0162561 0.0274145 0.0213753 0.0430474 0.0599244 0.041703 0.0522916 0.0414679 0.0726165 0.046776 0.0626329 0.068192 0.0720881 0.0480025 0.0706934 0.0653935 0.0741696
75 3 O -4.34533 12.922 4.4844 -1.2 1 0.0250829 0.0219734 0.0204441 0.0143207 0.0224501 0.0510674 0.0359708 0.0486898 0.0429272 0.0516183 0.0398121 0.0519782 0.0492614 0.0728362 0.0996462 0.0680374 0.0767446 0.0537139 0.0745672 0.0736156
76 3 O 2.98455 13.1899 3.18632 -1.2 1 0.0252408 0.0113078 0.0193791 0.0121584 0.0188561 0.0403479 0.0376537 0.0579967 0.0425809 0.0546109 0.054965 0.0495458 0.0510995 0.0504818 0.0816242 0.06092 0.0672334 0.0607014 0.0650468 0.0710936
77 1 Mg 1.34779 11.8725 0 1.2 1 0.0217943 0.00938688 0.0218836 0.0149498 0.0286655 0.0226939 0.0515119 0.034672 0.0574845 0.0510327 0.0497657 0.0352493 0.0650433 0.0499404 0.0703302 0.0641008 0.0616579 0.0699522 0.0875848 0.0595097
78 3 O 2.93934 13.1899 5.78248 -1.2 1 0.0237492 0.00938787 0.0167401 0.0202094 0.0145953 0.0262697 0.0472422 0.0480377 0.0395663 0.03972 0.0574463 0.0389251 0.0536181 0.0589811 0.0853109 0.0651147 0.0679334 0.0616725 0.0673411 0.0779762
79 1 Mg -1.50344 11.9138 1.4948 1.2 1 0.0129342 0.0179221 0.0228932 0.020415 0.0118237 0.0369205 0.0384044 0.0423807 0.0410702 0.0598583 0.0351959 0.0652966 0.0505693 0.0649685 0.0747392 0.0681783 0.064082 0.083975 0.0765585 0.0787678
80 2 Si 0.326006 9.84894 1.4948 2.4 1 0.0281097 0.01786 0.0269459 0.0294946 0.0168914 0.0381206 0.043404 0.0399657 0.0439699 0.0549735 0.0396094 0.0603866 0.0556935 0.0663977 0.0608707 0.0626214 0.0702427 0.0802886 0.0616204 0.0688938
81 3 O 0.317364 8.23571 1.4948 -1.2 1 0.0224179 0.0125412 0.0225742 0.0239968 0.0201154 0.0452535 0.0429253 0.0499444 0.0347707 0.0544138 0.0440877 0.0657283 0.0572417 0.05979 0.0678082 0.0662685 0.0715734 0.0534751 0.073496 0.0742021
82 3 O 6.94307 10.823 1.4948 -1.2 1 0.0312146 0.0148937 0.0220778 0.0118433 0.0373704 0.0329694 0.0381638 0.0576478 0.0346468 0.0475128 0.051347 0.0522654 0.0501348 0.0751162 0.0727251 0.0797031 0.0618215 0.0728954 0.0581276 0.0805945
83 3 O -0.343122 10.5551 0.196716 -1.2 1 0.0308877 0.0174842 0.0216092 0.0208558 0.0298287 0.0413946 0.0511792 0.0396924 0.0387208 0.050681 0.037049 0.0377682 0.0615131 0.0607238 0.0687696 0.0707592 0.0808814 0.0542127 0.0698999 0.0691182
84 3 O -0.385966 10.5551 2.79288 -1.2 1 0.0217776 0.0197871 0.0322881 0.0127979 0.0339079 0.0410755 0.0447476 0.0463635 0.0428458 0.040508 0.0529043 0.0484504 0.049162 0.0550939 0.069892 0.0717871 0.0670758 0.0605018 0.0677661 0.0796834
85 1 Mg 6.49448 14.247 0 1.2 1 0.0226397 0.00990538 0.0185231 0.0168144 0.0287203 0.022567 0.0479267 0.0328612 0.0594436 0.048109 0.0513762 0.0374461 0.0625326 0.0528713 0.0713667 0.0653039 0.0643253 0.070755 0.0844915 0.0708255
86 1 Mg 3.74457 18.9547 1.4948 1.2 1 0.014929 0.0107172 0.0152981 0.0160796 0.0259047 0.0292706 0.0314948 0.0393261 0.038068 0.0580396 0.0435217 0.066525 0.0506702 0.0663944 0.0705725 0.0697768 0.0632051 0.0831222 0.0785468 0.075905
87 2 Si 5.55495 16.2705 1.4948 2.4 1 0.0120226 0.0200799 0.0220719 0.0269621 0.0185009 0.0425751 0.0365272 0.0420619 0.0454328 0.0520548 0.0434755 0.0608135 0.0540467 0.0641855 0.0697329 0.0590621 0.0728226 0.0796965 0.0606585 0.070234
88 3 O 5.6115 17.8838 1.4948 -1.2 1 0.0268404 0.0181399 0.0233223 0.0256079 0.0193942 0.0435472 0.0451488 0.0609389 0.0372531 0.0501402 0.0379515 0.0673191 0.0510327 0.0558103 0.0643738 0.057953 0.0656234 0.0615443 0.0633221 0.0692701
89 3 O 1.93416 15.2965 1.4948 -1.2 1 0.0414746 0.0159398 0.0194569 0.00984638 0.035174 0.0311632 0.0365998 0.0579653 0.0419393 0.0463488 0.0487916 0.0503283 0.0470834 0.0734515 0.0802791 0.0762805 0.0601419 0.0738277 0.0625812 0.0765734
90 3 O 4.85636 15.5644 0.196716 -1.2 1 0.0224986 0.0117986 0.0212864 0.0189637 0.0251715 0.0513969 0.0496364 0.0397214 0.0393466 0.0443321 0.0376098 0.0323535 0.0631137 0.0545189 0.0672521 0.0675813 0.0762282 0.0629134 0.0728392 0.0686244
91 1 Mg 6.44662 14.247 2.9896 1.2 1 0.0103964 0.0181915 0.0228844 0.0212792 0.0185337 0.0354326 0.0377626 0.0537448 0.0361594 0.0575697 0.0333577 0.0630292 0.0244167 0.0675304 0.0456099 0.0768972 0.0452172 0.0919865 0.0434122 0.0926037
92 3 O 4.81537 15.5644 2.79288 -1.2 1 0.0116681 0.00982729 0.0295019 0.0133531 0.0282744 0.0369588 0.0466811 0.0472459 0.0456507 0.0388938 0.0513357 0.0419082 0.0535576 0.0569275 0.0757203 0.0669617 0.0767078 0.0520438 0.072317 0.0754165
93 1 Mg -0.948271 14.2883 4.4844 1.2 1 0.0167314 0.0125211 0.0146656 0.0287798 0.0244335 0.0282803 0.0379106 0.0339508 0.044307 0.0488835 0.0590669 0.0563807 0.0669002 0.0689264 0.0583372 0.0703222 0.07126 0.0956034 0.0729868 0.0830483
94 2 Si -2.75928 16.9724 4.4844 2.4 1 0.0156646 0.0135406 0.0188531 0.025501 0.029707 0.0425441 0.0578712 0.0315498 0.0543834 0.0617567 0.0517308 0.0626424 0.0590736 0.0558824 0.0790682 0.0709772 0.0484099 0.0929452 0.0553924 0.0630953
95 3 O -2.81617 15.3592 4.4844 -1.2 1 0.0180423 0.0169577 0.0111423 0.0258685 0.0280485 0.0237659 0.0423454 0.0635329 0.0422122 0.0496429 0.0375621 0.0719831 0.0488076 0.0579735 0.0681699 0.0679943 0.0514385 0.0735436 0.0640191 0.0765783
96 3 O 0.862762 17.9465 4.4844 -1.2 1 0.0178993 0.0245624 0.0213985 0.0157165 0.0212844 0.0467751 0.0348953 0.0534542 0.0470574 0.0532806 0.0399998 0.0478322 0.0436325 0.0707367 0.106829 0.0560201 0.0702852 0.0527223 0.0745133 0.068469
97 3 O -2.0185 17.6786 3.18632 -1.2 1 0.0186377 0.0100489 0.0179811 0.0163339 0.019152 0.039593 0.042986 0.0562721 0.0445038 0.0518636 0.0541274 0.0487676 0.056406 0.0500474 0.0811465 0.0613588 0.0690506 0.0654727 0.0630425 0.0689962
98 3 O -2.06164 17.6786 5.78248 -1.2 1 0.0153153 0.0138882 0.022901 0.0228101 0.0147305 0.0260438 0.0482578 0.0451437 0.0370115 0.0390715 0.0571964 0.0386262 0.0567558 0.0585056 0.0832651 0.0691117 0.0690512 0.0628648 0.0670133 0.076849
99 1 Mg 1.39817 16.6215 2.9896 1.2 1 0.0052184 0.0165784 0.0193299 0.0244159 0.0182571 0.0371661 0.0374141 0.0518722 0.0374362 0.0595842 0.0359783 0.0568765 0.0225715 0.0663591 0.0468365 0.0813163 0.0489017 0.0910674 0.0456651 0.0895218
100 1 Mg 4.20062 16.5802 4.4844 1.2 1 0.0134717 0.0121102 0.0160468 0.0277685 0.027638 0.0283033 0.0411589 0.0352626 0.0472994 0.0523094 0.0548179 0.0552932 0.0682579 0.0683647 0.0543091 0.0724151 0.0694747 0.0963508 0.0749457 0.0783918
101 2 Si 2.37796 18.645 4.4844 2.4 1 0.0212714 0.0116213 0.0241282 0.0251642 0.0237736 0.0377185 0.0602203 0.0322443 0.0558213 0.0585598 0.0505794 0.0609943 0.0601682 0.0551721 0.0743057 0.0681883 0.0456192 0.0993012 0.0521578 0.056474
102 3 O 2.39434 20.2583 4.4844 -1.2 1 0.0233112 0.0113754 0.0129763 0.0162996 0.024578 0.021983 0.0400097 0.0586063 0.0428513 0.0497315 0.0419693 0.0731672 0.0503959 0.0632386 0.0712077 0.0701872 0.0478488 0.0692681 0.0649853 0.0784425
103 3 O -4.24274 17.671 4.4844 -1.2 1 0.0179135 0.0224958 0.0207986 0.0187124 0.0210624 0.0488072 0.0343585 0.0496637 0.0440576 0.053606 0.0391429 0.051655 0.0491614 0.0698443 0.100606 0.0616113 0.0757345 0.0547298 0.0782152 0.0713464
104 3 O 3.08659 17.9389 3.18632 -1.2 1 0.0322025 0.0158923 0.0211259 0.00929208 0.0167716 0.0375211 0.0363952 0.0542708 0.0441637 0.0515502 0.0547399 0.0494813 0.0512345 0.0480585 0.0803302 0.0590657 0.0670637 0.0608616 0.0660851 0.0684406
105 1 Mg 1.44478 16.6215 0 1.2 1 0.00954966 0.012076 0.0217077 0.0127938 0.0267567 0.0315551 0.0479035 0.0353567 0.0507012 0.0504358 0.0518557 0.0397735 0.0587214 0.0493985 0.0697558 0.0660266 0.0602099 0.067787 0.0886145 0.0638743
106 3 O 3.0436 17.9389 5.78248 -1.2 1 0.0155326 0.0151765 0.0183818 0.0232974 0.0197068 0.0273646 0.0469636 0.0481534 0.0416076 0.0406735 0.0584906 0.0381627 0.0572083 0.0615201 0.0868249 0.0656993 0.0686306 0.0627618 0.0644742 0.078618
107 1 Mg -1.40524 16.6628 1.4948 1.2 1 0.0116121 0.0125125 0.0257334 0.0177024 0.0173754 0.0344659 0.0360456 0.0427817 0.0415892 0.0605373 0.0406013 0.0624363 0.0548119 0.0644447 0.0737775 0.0691251 0.0643799 0.0779081 0.0782865 0.0759341
108 2 Si 0.420358 14.5979 1.4948 2.4 1 0.0225265 0.0192246 0.0289582 0.0260328 0.0176705 0.0385261 0.0391451 0.0418931 0.044347 0.0550619 0.0426811 0.0617126 0.0576325 0.0631881 0.0670375 0.0592682 0.0718511 0.076621 0.062317 0.0712848
109 3 O 0.408732 12.9847 1.4948 -1.2 1 0.0243177 0.0160607 0.0219135 0.0271914 0.0158941 0.0480814 0.0421874 0.0534435 0.035854 0.0521735 0.0434973 0.0679956 0.053527 0.0558407 0.0643629 0.0622676 0.071462 0.0550197 0.0675825 0.0727166
110 3 O 7.03923 15.572 1.4948 -1.2 1 0.0292893 0.0168981 0.0218053 0.0128784 0.0360706 0.0337559 0.0368024 0.0561044 0.0384924 0.0446244 0.0513001 0.0532365 0.0479759 0.0740232 0.0780189 0.078491 0.0641513 0.0694788 0.0622287 0.0776167
111 3 O -0.248332 15.3041 0.196716 -1.2 1 0.0219871 0.0121569 0.0221607 0.0192401 0.0243113 0.0463938 0.0500695 0.0435726 0.0402273 0.0468098 0.0370045 0.0319358 0.0620269 0.0545606 0.0701812 0.06523 0.082059 0.0505645 0.069621 0.0712783
112 3 O -0.289436 15.3041 2.79288 -1.2 1 0.0184247 0.0153525 0.0267693 0.0100156 0.0313259 0.0371446 0.0442478 0.0478165 0.0437435 0.040417 0.0544928 0.0489641 0.0511338 0.0524809 0.0716059 0.0684187 0.0705402 0.0555184 0.0692201 0.076293
113 1 Mg 6.59566 18.996 0 1.2 1 0.0138705 0.0116109 0.0198988 0.0144032 0.0261229 0.0315616 0.0429832 0.0329427 0.0540094 0.049139 0.054071 0.0390616 0.0522175 0.0528825 0.0721113 0.0646049 0.0640695 0.0649045 0.0861483 0.0707462
114 1 Mg 3.85574 23.7037 1.4948 1.2 1 0.010742 0.0126162 0.0212563 0.014037 0.0226024 0.0288413 0.031185 0.0371986 0.0388815 0.0601298 0.0467838 0.0626747 0.0500777 0.0669701 0.0648691 0.0725003 0.0663636 0.0798249 0.0798989 0.0759831
115 2 Si 5.66125 21.0195 1.4948 2.4 1 0.00822274 0.0242481 0.0232582 0.0273133 0.0192762 0.0462881 0.0340919 0.0414457 0.0492031 0.0542513 0.0454213 0.0604703 0.0559656 0.059576 0.0717423 0.0607843 0.0734965 0.0772904 0.0644909 0.075805
116 3 O 5.72074 22.6328 1.4948 -1.2 1 0.0282192 0.0191837 0.018332 0.0227472 0.0191707 0.0447449 0.0454785 0.0618876 0.0381952 0.0520182 0.032929 0.069922 0.0493985 0.0535243 0.0682067 0.056001 0.0649488 0.0678688 0.0563405 0.071188
117 3 O 2.03867 20.0455 1.4948 -1.2 1 0.0300257 0.0164069 0.0267404 0.0159941 0.0341285 0.0301637 0.0359398 0.0552776 0.0441456 0.0428262 0.0505957 0.0504767 0.0476411 0.0736993 0.0847455 0.0727591 0.0617026 0.0679279 0.0635712 0.0732273
118 3 O 4.96004 20.3134 0.196716 -1.2 1 0.0211002 0.0103996 0.0228994 0.0188278 0.0232883 0.0453243 0.0438909 0.0479001 0.0389369 0.0399995 0.0410154 0.0344127 0.0646635 0.0476724 0.0696362 0.0728991 0.071513 0.0580673 0.0715566 0.0720126
119 1 Mg 6.55057 18.996 2.9896 1.2 1 0.00928026 0.0173016 0.0207225 0.0213889 0.0209993 0.0340875 0.0371976 0.055547 0.0341911 0.0599532 0.0344892 0.0623811 0.0223583 0.0700411 0.0447724 0.0734954 0.0458829 0.0954511 0.0436521 0.0932609
120 3 O 4.92172 20.3134 2.79288 -1.2 1 0.00973131 0.0115835 0.0313303 0.0151698 0.0302064 0.0398724 0.04617 0.0457858 0.047357 0.0428819 0.0528264 0.0405024 0.0534389 0.0535497 0.0766682 0.0676733 0.0761272 0.0483528 0.0715353 0.0719503
121 1 Mg -0.84282 19.0373 4.4844 1.2 1 0.014355 0.0125861 0.0139731 0.0277443 0.0238563 0.0265537 0.0375412 0.0318638 0.0456007 0.0495204 0.0595276 0.0573314 0.0664882 0.0688828 0.0587077 0.0729196 0.0714919 0.0938103 0.0736283 0.0823903
122 2 Si -2.64823 21.7214 4.4844 2.4 1 0.0150162 0.0133053 0.0180193 0.0253371 0.0291253 0.041904 0.0555484 0.0320319 0.0533695 0.0627134 0.0515164 0.064408 0.059234 0.0553179 0.0773646 0.0723181 0.0470709 0.0944145 0.0554109 0.0639138
123 3 O -2.70847 20.1082 4.4844 -1.2 1 0.0129081 0.0175108 0.0155622 0.0257579 0.0253399 0.0239069 0.0410103 0.0650413 0.0449969 0.0491498 0.0393815 0.0708759 0.0506871 0.0580797 0.0664764 0.0655264 0.0515037 0.0714253 0.0654477 0.0773195
124 3 O 0.97581 22.6955 4.4844 -1.2 1 0.0171594 0.0246835 0.0208217 0.0191254 0.0199625 0.0428969 0.0309899 0.0501654 0.0445392 0.054303 0.0406681 0.0466557 0.0468604 0.0718623 0.1094 0.0527228 0.0667972 0.0575666 0.074212 0.0674892
125 3 O -1.9076 22.4276 3.18632 -1.2 1 0.021874 0.0078585 0.0209991 0.0160409 0.0136779 0.0365454 0.044025 0.0555664 0.0374039 0.0498885 0.0544081 0.0491149 0.0563795 0.0485047 0.0809797 0.0573857 0.0689025 0.0664665 0.0624757 0.0657052
126 3 O -1.9475 22.4276 5.78248 -1.2 1 0.0124965 0.00836641 0.0257774 0.0219793 0.0156342 0.025901 0.0512276 0.0452343 0.0392851 0.0365344 0.056335 0.0381989 0.0568044 0.0625006 0.0823978 0.0683707 0.0709997 0.0635914 0.0672102 0.0765425