ITEM: TIMESTEP
43400
ITEM: NUMBER OF ATOMS
10500
ITEM: BOX BOUNDS xy xz yz pp pp pp
0	15.2977	5.09925
0	118.725	0
0	89.688	0
ITEM: ATOMS id type element xu yu zu q Q_1 Q_2 Q_3 Q_4 Q_5 Q_6 Q_7 Q_8 Q_9 Q_10 Q_11 Q_12 Q_13 Q_14 Q_15 Q_16 Q_17 Q_18 Q_19 Q_20 Q_21
1 1 Mg 6.2404 -6.37941e-06 0 1.2 1 0.0133258 0.038458 0.0311795 0.0337168 0.0365077 0.0413107 0.0377151 0.0673662 0.0389416 0.0703651 0.0334504 0.058364 0.0444755 0.0677164 0.0506953 0.0910332 0.051835 0.0832445 0.049121 0.102694
2 1 Mg 3.46349 4.70768 1.4948 1.2 1 0.013047 0.0170847 0.0243245 0.0232178 0.0201782 0.0418811 0.0435194 0.0398974 0.0469359 0.0566027 0.04338 0.0709219 0.0585825 0.0705813 0.0742109 0.0629052 0.0671246 0.0861532 0.072033 0.0827655
3 2 Si 5.2885 2.02354 1.4948 2.4 1 0.0218493 0.0224473 0.0367145 0.0255743 0.0308928 0.0365677 0.0534778 0.0334654 0.0443045 0.0520835 0.0555602 0.0617463 0.0556128 0.0638877 0.0683555 0.0793524 0.0709366 0.065003 0.0635491 0.073138
4 3 O 5.33628 3.63678 1.4948 -1.2 1 0.00945997 0.0143069 0.0268966 0.0260151 0.0182825 0.0391304 0.0419735 0.0603056 0.0357546 0.0406821 0.0547182 0.05059 0.0680307 0.0578381 0.0581959 0.0650878 0.0594842 0.061647 0.0715985 0.0741942
5 3 O 1.67294 1.04952 1.4948 -1.2 1 0.0162583 0.0217045 0.0231038 0.0356061 0.029449 0.0390417 0.0340528 0.0611445 0.034639 0.0598487 0.0438396 0.0507448 0.0717613 0.0594294 0.0760972 0.0691039 0.0627888 0.0647636 0.0788604 0.0605208
6 3 O 4.59532 1.31737 0.196716 -1.2 1 0.026037 0.0221221 0.0576372 0.025116 0.0335442 0.0484314 0.0382091 0.0468666 0.033638 0.0390239 0.0391441 0.0505108 0.0544004 0.0569618 0.0636765 0.0700022 0.0618503 0.0718917 0.0592252 0.0708162
7 1 Mg 6.18956 -6.37941e-06 2.9896 1.2 1 0.0169105 0.028002 0.0164228 0.0199118 0.0341723 0.0468537 0.0491747 0.0447214 0.0498159 0.0442508 0.0417546 0.0576106 0.0385102 0.0563987 0.0589366 0.0800639 0.0548293 0.0693655 0.0604668 0.0694955
8 3 O 4.55118 1.31737 2.79288 -1.2 1 0.0237944 0.0249931 0.0392285 0.0187401 0.0282994 0.0448292 0.0446016 0.0488539 0.0448366 0.0533565 0.0530901 0.0498755 0.0480618 0.0667305 0.0531927 0.0674086 0.0631543 0.0673018 0.0632674 0.0742372
9 1 Mg -1.20682 0.0413099 4.4844 1.2 1 0.0177251 0.0258269 0.0222734 0.0282557 0.0365142 0.0385502 0.0351592 0.0511184 0.0539604 0.0382463 0.0490627 0.0593748 0.0675941 0.0580259 0.0751951 0.063036 0.0812593 0.0755534 0.0622944 0.0530299
10 2 Si -3.0337 2.72544 4.4844 2.4 1 0.0328278 0.0102856 0.0179766 0.0160488 0.0379018 0.0378073 0.0592718 0.0377912 0.0593057 0.0513114 0.0513891 0.0596806 0.0581404 0.0746839 0.0563667 0.0616157 0.0718028 0.0778976 0.0712854 0.0574819
11 3 O -3.08099 1.11221 4.4844 -1.2 1 0.00964081 0.0234575 0.0291849 0.023325 0.0383279 0.0236384 0.0507837 0.0428145 0.0443001 0.0399486 0.0419517 0.0715357 0.0507103 0.0512546 0.054571 0.0660585 0.0555301 0.0783179 0.0727081 0.0778388
12 3 O 0.582463 3.69946 4.4844 -1.2 1 0.00517326 0.0146625 0.0319277 0.0291656 0.0313828 0.0613365 0.0317477 0.0550141 0.0436563 0.0421583 0.0517515 0.0567921 0.0585038 0.0711506 0.0975871 0.0705479 0.0788464 0.0410005 0.0688282 0.0681494
13 3 O -2.29524 3.43162 3.18632 -1.2 1 0.0132282 0.0208249 0.0254987 0.0309201 0.0197981 0.0501158 0.0520453 0.0499938 0.0413349 0.0530679 0.0591485 0.0549936 0.0416514 0.0528501 0.0586372 0.0649363 0.0667715 0.0612096 0.0644604 0.0725615
14 3 O -2.34216 3.43162 5.78248 -1.2 1 0.0188393 0.0182249 0.0143977 0.0298002 0.0259017 0.0430975 0.0544449 0.0472615 0.0432358 0.0558729 0.0561403 0.04972 0.0562676 0.0528779 0.0749857 0.0743179 0.0650909 0.0670312 0.0744485 0.0714775
15 1 Mg 1.12778 2.37449 2.9896 1.2 1 0.0152082 0.0399698 0.0171458 0.0240044 0.0258199 0.0430442 0.0411573 0.0503482 0.0368573 0.0603829 0.0368994 0.0580783 0.0408972 0.0672875 0.0635932 0.0700972 0.0680348 0.0830363 0.0456808 0.0867198
16 1 Mg 3.92855 2.33318 4.4844 1.2 1 0.0248166 0.0191419 0.0224885 0.0262822 0.0429251 0.0266169 0.0385274 0.0398607 0.0459851 0.0708272 0.0490886 0.0604769 0.0526166 0.0612966 0.0557791 0.0751152 0.0601755 0.09445 0.0737743 0.0842701
17 2 Si 2.09341 4.39804 4.4844 2.4 1 0.012133 0.0186939 0.0326665 0.0199357 0.0422151 0.0258352 0.0638454 0.0228703 0.0438606 0.0501837 0.0629944 0.0616215 0.0666441 0.0586306 0.0757716 0.0725727 0.0709146 0.079022 0.0527287 0.0669188
18 3 O 2.09991 6.01128 4.4844 -1.2 1 0.0101009 0.0114802 0.0165949 0.0206835 0.0337883 0.0219445 0.0521224 0.0511447 0.04576 0.0451295 0.0473734 0.0677095 0.046619 0.0636994 0.0648649 0.0719735 0.0445155 0.079742 0.0611919 0.0726052
19 3 O -4.52137 3.42402 4.4844 -1.2 1 0.0241457 0.0270584 0.0365016 0.0208262 0.0267078 0.0566591 0.0384792 0.0444738 0.0545166 0.0575474 0.0337634 0.0563178 0.0503665 0.0559986 0.0871875 0.0733995 0.0740032 0.0616631 0.0728715 0.0578041
20 3 O 2.80834 3.69187 3.18632 -1.2 1 0.0121565 0.0198276 0.0225878 0.0223159 0.0205533 0.0368594 0.0349711 0.0509556 0.0428228 0.0608993 0.0653314 0.0524126 0.0427135 0.0629076 0.0692456 0.0723169 0.0640516 0.0566548 0.0700049 0.0722715
21 1 Mg 1.17857 2.37449 0 1.2 1 0.0143016 0.0370518 0.0291725 0.0288624 0.0361953 0.0388445 0.0426771 0.0587545 0.0351344 0.049063 0.0525003 0.0410372 0.0436477 0.066953 0.054482 0.0650631 0.0592448 0.0813875 0.0575692 0.0736144
22 3 O 2.76143 3.69187 5.78248 -1.2 1 0.00952251 0.0251757 0.0197295 0.0205442 0.0184618 0.0348882 0.038213 0.0483327 0.0336204 0.0465551 0.0588155 0.0428762 0.0563111 0.0736768 0.0761371 0.0664378 0.0703844 0.0575513 0.0720883 0.074473
23 1 Mg -1.67381 2.41581 1.4948 1.2 1 0.0115009 0.0116137 0.0371691 0.0362613 0.0324951 0.0440636 0.0588448 0.0404451 0.051003 0.0406564 0.0464878 0.059111 0.0549915 0.0634784 0.0617012 0.0646118 0.0834763 0.077592 0.0666063 0.0743513
24 2 Si 0.16286 0.350945 1.4948 2.4 1 0.0162174 0.0357349 0.027727 0.0278391 0.0341387 0.0356155 0.055702 0.0487158 0.0529647 0.0494012 0.0396505 0.0560916 0.0724635 0.0702683 0.0599482 0.074666 0.072824 0.0643727 0.0724277 0.0668015
25 3 O 0.15972 -1.26229 1.4948 -1.2 1 0.00935459 0.0150587 0.0398429 0.0210008 0.0377608 0.0358634 0.0454575 0.0571679 0.0467262 0.05192 0.0556494 0.0549102 0.0629308 0.0663478 0.0503878 0.0592453 0.0700223 0.0665235 0.0622052 0.0739042
26 3 O 6.77654 1.32496 1.4948 -1.2 1 0.0116047 0.0277499 0.0267102 0.0276822 0.0372005 0.0546466 0.0340185 0.0650058 0.0477077 0.0467458 0.0442661 0.0525528 0.0521298 0.0591936 0.0686941 0.0716243 0.0845351 0.0624986 0.0602258 0.0744116
27 3 O -0.508028 1.05712 0.196716 -1.2 1 0.0244663 0.019004 0.0293177 0.0208637 0.0292205 0.0535183 0.043387 0.0449885 0.0468466 0.0484807 0.05024 0.048734 0.0492053 0.0634966 0.0551159 0.0628332 0.0632854 0.0593788 0.0718663 0.0719078
28 3 O -0.552171 1.05712 2.79288 -1.2 1 0.0368333 0.0268924 0.0362668 0.0324005 0.0220516 0.0428841 0.0431384 0.04733 0.0439136 0.0375547 0.048175 0.0498342 0.0588482 0.063113 0.0664897 0.0763769 0.0720249 0.0510486 0.0693971 0.073064
29 1 Mg 6.31713 4.74899 0 1.2 1 0.0270583 0.0290136 0.0302584 0.0365061 0.0328062 0.0263569 0.0418446 0.0558972 0.0586014 0.0491289 0.051073 0.0385913 0.0594395 0.0616206 0.065635 0.0641062 0.0657372 0.0740981 0.0684921 0.070832
30 1 Mg 3.54847 9.45668 1.4948 1.2 1 0.0171099 0.0159686 0.0174249 0.0187945 0.0186629 0.0383777 0.0385697 0.0421752 0.0450449 0.0564142 0.0378817 0.0690628 0.0530454 0.0654564 0.0743669 0.0624669 0.0663915 0.0876505 0.0743332 0.0797562
31 2 Si 5.36879 6.77254 1.4948 2.4 1 0.0259817 0.0298808 0.0212289 0.0262791 0.0245288 0.0350643 0.0443924 0.0349306 0.0457284 0.0582848 0.0425442 0.0583348 0.0524105 0.0671432 0.0651959 0.0752259 0.0671322 0.0786073 0.0560956 0.0685395
32 3 O 5.41937 8.38578 1.4948 -1.2 1 0.0214868 0.0114625 0.0235253 0.029747 0.0172524 0.0432155 0.0443172 0.0572517 0.0365374 0.0505448 0.0474965 0.0641964 0.0552182 0.0538386 0.0660215 0.0603606 0.0732795 0.0557836 0.073303 0.0732729
33 3 O 1.75158 5.79852 1.4948 -1.2 1 0.0284699 0.0124537 0.0226196 0.0266641 0.0440368 0.0305732 0.0394108 0.056875 0.0405894 0.0525814 0.049483 0.0509854 0.0476246 0.0710691 0.0785601 0.0785312 0.0603979 0.0750278 0.0600925 0.0768102
34 3 O 4.67421 6.06637 0.196716 -1.2 1 0.0145952 0.026491 0.0316088 0.0244394 0.0319724 0.03781 0.0346298 0.032202 0.0447835 0.0562004 0.039238 0.0442752 0.0667124 0.0563669 0.067645 0.0713137 0.0716335 0.065612 0.0632089 0.0686585
35 1 Mg 6.26654 4.74899 2.9896 1.2 1 0.017741 0.0224814 0.0234054 0.0448817 0.0274321 0.0429241 0.0491278 0.047317 0.0354438 0.0623945 0.0380816 0.0591206 0.0389614 0.0656144 0.0526497 0.0757 0.0544324 0.084214 0.0461733 0.0902945
36 3 O 4.63043 6.06637 2.79288 -1.2 1 0.0170049 0.0173613 0.040836 0.0209404 0.0312473 0.0372923 0.042452 0.0494659 0.0442303 0.0355471 0.0489799 0.0515662 0.0574093 0.0637666 0.0621402 0.0751454 0.0670559 0.0686539 0.0671158 0.0834908
37 1 Mg -1.12976 4.79031 4.4844 1.2 1 0.0230254 0.0263214 0.0125489 0.0130581 0.0363619 0.0377595 0.0484172 0.0497189 0.0429844 0.0439164 0.0560108 0.0604259 0.0764045 0.0719266 0.0623217 0.0677858 0.0690193 0.0955616 0.0719955 0.0795
38 2 Si -2.9517 7.47444 4.4844 2.4 1 0.0201631 0.0179184 0.0165828 0.0237819 0.0334686 0.0426672 0.0614147 0.0261244 0.0523932 0.0588533 0.0531422 0.0565332 0.0629565 0.0585376 0.0818261 0.068723 0.0567786 0.0887164 0.0591359 0.0577542
39 3 O -3.00198 5.86121 4.4844 -1.2 1 0.0167041 0.0250347 0.0266471 0.0273646 0.0326929 0.0302034 0.0537702 0.0594354 0.0387324 0.0524972 0.0482014 0.0712162 0.05719 0.0567471 0.0654066 0.0716146 0.0496798 0.0773086 0.0612217 0.0786023
40 3 O 0.666315 8.44846 4.4844 -1.2 1 0.0267248 0.0210839 0.0230761 0.0145012 0.0212506 0.0530493 0.0321925 0.0504025 0.0436715 0.0470923 0.042205 0.0532299 0.0493723 0.0732298 0.0996782 0.0689485 0.0760565 0.0503313 0.071408 0.0730852
41 3 O -2.21213 8.18062 3.18632 -1.2 1 0.0139588 0.0140532 0.0165885 0.0159304 0.0165996 0.0372962 0.0464255 0.0563123 0.0460427 0.0539672 0.0541144 0.0505724 0.0537554 0.0495503 0.0788206 0.0636746 0.0721291 0.0588894 0.0670452 0.0723552
42 3 O -2.25864 8.18062 5.78248 -1.2 1 0.0140627 0.00917864 0.0212823 0.0247732 0.0210624 0.0295007 0.0549686 0.0478035 0.0419769 0.0368139 0.0549531 0.0382912 0.0602163 0.0648599 0.0829863 0.0690422 0.0721019 0.0642717 0.0686401 0.0763163
43 1 Mg 1.20893 7.12349 2.9896 1.2 1 0.00772373 0.0226582 0.0186939 0.025009 0.0240709 0.0389767 0.0432307 0.0460879 0.0346433 0.0654649 0.0397148 0.0667215 0.036673 0.058288 0.0527209 0.0789311 0.0517772 0.0838321 0.0473338 0.0879867
44 1 Mg 4.00982 7.08218 4.4844 1.2 1 0.0184753 0.0149213 0.0259147 0.0338653 0.0343503 0.0341943 0.0425472 0.0380719 0.0454 0.0525855 0.0583805 0.05564 0.0722148 0.07094 0.0566387 0.067468 0.0624905 0.0994744 0.0738626 0.0820924
45 2 Si 2.17861 9.14704 4.4844 2.4 1 0.0284499 0.0108777 0.0211293 0.0205337 0.0294902 0.0338017 0.0616065 0.0243713 0.0488909 0.0545255 0.0569789 0.0615939 0.0659786 0.0587692 0.0811621 0.068739 0.0510448 0.0936905 0.0547074 0.0580763
46 3 O 2.18828 10.7603 4.4844 -1.2 1 0.0189654 0.0149295 0.00532139 0.0165022 0.0297632 0.0217778 0.046123 0.0599839 0.0414498 0.0543166 0.0409595 0.0712571 0.0434177 0.0664901 0.0704678 0.0742243 0.0478655 0.0711717 0.0648037 0.0723935
47 3 O -4.43805 8.17302 4.4844 -1.2 1 0.0166539 0.0238982 0.0156561 0.0148021 0.0216635 0.0565457 0.0342625 0.0484648 0.0440587 0.0493883 0.037574 0.0539366 0.0537334 0.071717 0.0985166 0.0670677 0.0799349 0.0539986 0.0736074 0.0760048
48 3 O 2.89193 8.44087 3.18632 -1.2 1 0.0249046 0.018902 0.0195802 0.0126357 0.0191776 0.0391323 0.0334919 0.0527441 0.0407933 0.0534438 0.0567485 0.0504447 0.051098 0.0518528 0.0800053 0.063504 0.0716898 0.0600652 0.0655424 0.0733206
49 1 Mg 1.25915 7.12349 0 1.2 1 0.018801 0.0175338 0.0282064 0.0148883 0.0320219 0.0246001 0.0501978 0.0398232 0.0561569 0.0493313 0.0536533 0.0428556 0.0712429 0.0515286 0.0687021 0.0708877 0.064186 0.0708549 0.0790155 0.0588487
50 3 O 2.84547 8.44087 5.78248 -1.2 1 0.0143164 0.0182694 0.0128249 0.0204128 0.0224086 0.0280779 0.0457368 0.0476066 0.0370842 0.0397448 0.0611958 0.0420079 0.0616522 0.0561292 0.0898446 0.0635961 0.0687139 0.0637785 0.0648829 0.0733392
51 1 Mg -1.59284 7.16481 1.4948 1.2 1 0.00980914 0.0162839 0.0205356 0.0203582 0.0149729 0.0371743 0.0463385 0.0426084 0.0431659 0.0575332 0.0388307 0.0664766 0.0521125 0.0689388 0.0759613 0.0608281 0.067537 0.0843134 0.0740799 0.0784836
52 2 Si 0.240329 5.09994 1.4948 2.4 1 0.024687 0.0174081 0.0159021 0.0433812 0.0271536 0.0406139 0.046615 0.0532749 0.0549852 0.0485454 0.0457219 0.0575743 0.0593157 0.0680574 0.0656066 0.0662613 0.0643234 0.073116 0.0663314 0.0685633
53 3 O 0.234538 3.48671 1.4948 -1.2 1 0.0131167 0.0163403 0.026544 0.0358337 0.0314678 0.0493045 0.0461662 0.0425873 0.0531121 0.0470126 0.0523573 0.0614439 0.0557328 0.0607664 0.0611971 0.0627001 0.0630506 0.0569358 0.0760414 0.0739876
54 3 O 6.85564 6.07396 1.4948 -1.2 1 0.0325035 0.0195149 0.0343719 0.0274676 0.0372515 0.0403064 0.0323936 0.0628515 0.0361905 0.0536178 0.0539236 0.0542602 0.0551433 0.0726862 0.0695931 0.0770225 0.066342 0.0722361 0.0530749 0.0845514
55 3 O -0.429565 5.80612 0.196716 -1.2 1 0.0339691 0.0199493 0.0158191 0.0212467 0.040931 0.0375373 0.0539181 0.0453116 0.0460623 0.0564657 0.0397263 0.0419636 0.0534326 0.0603171 0.0597374 0.0683141 0.0704961 0.0609135 0.0652251 0.0743003
56 3 O -0.473377 5.80612 2.79288 -1.2 1 0.0257777 0.023398 0.0307641 0.0196687 0.0343171 0.0453263 0.0486523 0.0497742 0.0530206 0.0466195 0.0629601 0.039585 0.0423114 0.058379 0.066561 0.0723226 0.0656441 0.0685623 0.0696198 0.0809053
57 1 Mg 6.40169 9.49799 0 1.2 1 0.012722 0.0115854 0.0213276 0.014254 0.0302905 0.0214804 0.0520712 0.0357969 0.0586191 0.04918 0.0496463 0.0354699 0.066893 0.0526513 0.0709455 0.0675878 0.0652329 0.0707077 0.0808068 0.0684428
58 1 Mg 3.64209 14.2057 1.4948 1.2 1 0.00621338 0.0139227 0.0176703 0.0194495 0.0218284 0.034147 0.0365037 0.0431064 0.0400947 0.0545327 0.0388023 0.0688703 0.0544615 0.0666155 0.0747656 0.0632045 0.0640137 0.0832989 0.0748587 0.0783766
59 2 Si 5.45748 11.5215 1.4948 2.4 1 0.0118807 0.0218957 0.0233306 0.0249905 0.0180155 0.0404103 0.0397401 0.0397567 0.0435439 0.0546319 0.0425445 0.0602322 0.0533822 0.0663117 0.0693579 0.0637169 0.071064 0.0817376 0.0584547 0.0669877
60 3 O 5.51101 13.1348 1.4948 -1.2 1 0.0241691 0.0133274 0.0221993 0.0293988 0.0198303 0.0432745 0.0447188 0.0590577 0.0370486 0.0500246 0.0429419 0.0672625 0.053176 0.053172 0.0649809 0.0603192 0.0705614 0.0579351 0.0696085 0.0721855
61 3 O 1.83851 10.5475 1.4948 -1.2 1 0.0351533 0.0140716 0.0215466 0.0137616 0.036261 0.0305385 0.036338 0.0592605 0.0398009 0.0484134 0.0497643 0.0518829 0.0473015 0.0746884 0.0756213 0.0800812 0.056824 0.0758669 0.0575912 0.0788467
62 3 O 4.7611 10.8154 0.196716 -1.2 1 0.0358009 0.0194129 0.0200076 0.0181824 0.02667 0.0441036 0.0482561 0.037333 0.038913 0.0492185 0.0368622 0.0410844 0.0608513 0.0605829 0.0650339 0.0714869 0.0752946 0.065647 0.0725047 0.0674833
63 1 Mg 6.35203 9.49799 2.9896 1.2 1 0.0148574 0.0161557 0.0248224 0.0236453 0.0189121 0.0390107 0.0374085 0.05039 0.0349429 0.059066 0.0316581 0.0658415 0.0273229 0.0663782 0.0485416 0.0817131 0.0467274 0.0889126 0.0449657 0.0918272
64 3 O 4.71833 10.8154 2.79288 -1.2 1 0.0268434 0.0135124 0.0268477 0.0117826 0.0301009 0.0427101 0.0436003 0.0463846 0.0413427 0.0383318 0.0527144 0.0424464 0.0525977 0.05576 0.0740552 0.0702965 0.0726984 0.0592574 0.0686359 0.0813194
65 1 Mg -1.0438 9.53931 4.4844 1.2 1 0.0109724 0.0168154 0.0194741 0.0254859 0.0261604 0.03014 0.0373376 0.0341605 0.0460562 0.0503255 0.0573325 0.0563376 0.066657 0.0692983 0.0570305 0.0679774 0.0723052 0.101887 0.069916 0.0847491
66 2 Si -2.8604 12.2234 4.4844 2.4 1 0.0194191 0.0121532 0.0159638 0.0262636 0.0302042 0.0425788 0.0593561 0.0297763 0.0534502 0.0619167 0.0556191 0.0652933 0.0613184 0.0563405 0.0795965 0.0709541 0.0505811 0.0901535 0.0540372 0.0642721
67 3 O -2.91391 10.6102 4.4844 -1.2 1 0.0179866 0.0138791 0.0086764 0.0221601 0.0306543 0.0228423 0.0471619 0.0643084 0.0396344 0.0501808 0.0369868 0.0709965 0.0438231 0.0608058 0.0658952 0.0711495 0.0494664 0.0763355 0.0621522 0.0757852
68 3 O 0.7596 13.1975 4.4844 -1.2 1 0.0224904 0.021593 0.0188878 0.0135213 0.0228658 0.0486903 0.0364423 0.0502326 0.045354 0.0503329 0.0387927 0.049656 0.0478665 0.0732232 0.0983474 0.0640787 0.0756259 0.0526932 0.0715896 0.0732435
69 3 O -2.12001 12.9296 3.18632 -1.2 1 0.0236989 0.010511 0.0206554 0.0179014 0.0192307 0.0362908 0.0404535 0.0527697 0.0442943 0.0538649 0.0517171 0.0510665 0.0549323 0.048755 0.0808942 0.0613218 0.0727914 0.0634322 0.0678547 0.069312
70 3 O -2.16532 12.9296 5.78248 -1.2 1 0.010881 0.00686616 0.0224853 0.0214445 0.0176052 0.0299732 0.0484352 0.0480411 0.0382509 0.03943 0.0554456 0.0377905 0.0570654 0.0624335 0.0815571 0.0722805 0.0723596 0.0634236 0.0687823 0.0761443
71 1 Mg 1.29891 11.8725 2.9896 1.2 1 0.0073639 0.0156531 0.0222722 0.022389 0.0168401 0.0390356 0.0357364 0.0505767 0.0348252 0.05975 0.0337954 0.0586891 0.026527 0.0681468 0.0491196 0.082204 0.0497736 0.0897968 0.0466975 0.0868188
72 1 Mg 4.10033 11.8312 4.4844 1.2 1 0.0128108 0.0178811 0.0170875 0.026744 0.0260065 0.0325974 0.0427591 0.0338568 0.0472062 0.050388 0.0540242 0.0528843 0.0697073 0.0692085 0.0537932 0.0711825 0.0690885 0.0993123 0.0739521 0.0816782
73 2 Si 2.27333 13.896 4.4844 2.4 1 0.020812 0.00763241 0.0293343 0.026051 0.0306933 0.0357729 0.0634812 0.029886 0.0510481 0.0589521 0.052054 0.0616025 0.0607622 0.056934 0.077336 0.0679704 0.0462393 0.0972342 0.0562136 0.0572516
74 3 O 2.28634 15.5093 4.4844 -1.2 1 0.0236768 0.0123426 0.012582 0.0176811 0.0251822 0.0226044 0.0418595 0.0597092 0.0430013 0.0516215 0.0412829 0.0728472 0.0464888 0.0644803 0.0675866 0.070527 0.0467857 0.0708477 0.063989 0.0752503
75 3 O -4.34533 12.922 4.4844 -1.2 1 0.0123043 0.0181504 0.0220832 0.0182485 0.022704 0.0518431 0.0348908 0.0502538 0.0423285 0.0497697 0.0406389 0.0538294 0.0500019 0.072239 0.102389 0.0651086 0.0809017 0.052478 0.0754435 0.0709929
76 3 O 2.98455 13.1899 3.18632 -1.2 1 0.022918 0.0116908 0.0174184 0.011797 0.0204339 0.0416906 0.0385652 0.0582926 0.0455759 0.0520587 0.0563477 0.0495535 0.0511339 0.0516997 0.0812477 0.0608107 0.0663472 0.0602634 0.0638512 0.0716561
77 1 Mg 1.34779 11.8725 0 1.2 1 0.0216761 0.00914885 0.0218734 0.0148735 0.0287774 0.0227275 0.0515929 0.0348076 0.0574712 0.0509861 0.0495151 0.0356946 0.0652762 0.0503895 0.0707956 0.0648636 0.0614267 0.070436 0.0870613 0.0601739
78 3 O 2.93934 13.1899 5.78248 -1.2 1 0.0217905 0.013286 0.0190628 0.0160078 0.0151629 0.0280886 0.0451394 0.0491019 0.0394119 0.0405197 0.0583965 0.0398362 0.0531169 0.0597351 0.0872382 0.0643059 0.0701952 0.0615311 0.0684111 0.0770925
79 1 Mg -1.50344 11.9138 1.4948 1.2 1 0.0129198 0.0179608 0.0229166 0.0205013 0.0119148 0.0368623 0.0385226 0.0423397 0.0414245 0.060051 0.0355097 0.065117 0.0506308 0.0650923 0.0744998 0.0679993 0.0639476 0.0839204 0.076118 0.0788008
80 2 Si 0.326006 9.84894 1.4948 2.4 1 0.028109 0.0177996 0.0268689 0.0295053 0.0169469 0.0380475 0.043424 0.0400852 0.0440768 0.0548541 0.0396174 0.0607888 0.0556754 0.0660146 0.060845 0.0626871 0.0699997 0.0802032 0.0612026 0.0688708
81 3 O 0.317364 8.23571 1.4948 -1.2 1 0.0224606 0.0125375 0.022636 0.0241376 0.0201155 0.0453338 0.0428871 0.0497857 0.0344639 0.0539103 0.0443183 0.065587 0.0576314 0.0599382 0.0683117 0.0657575 0.0721176 0.053394 0.0732664 0.0740421
82 3 O 6.94307 10.823 1.4948 -1.2 1 0.0312214 0.0149399 0.0221338 0.0120085 0.0374476 0.0329684 0.0379738 0.057914 0.0347353 0.0476078 0.0512434 0.0521745 0.0500435 0.0750957 0.0728533 0.0794708 0.061607 0.0727722 0.058102 0.0805969
83 3 O -0.343122 10.5551 0.196716 -1.2 1 0.0308758 0.0175828 0.0217577 0.0209296 0.0297077 0.0413535 0.0513582 0.0397072 0.0387425 0.0507201 0.0371069 0.0374281 0.0611428 0.0608503 0.0689746 0.0707282 0.081287 0.0539541 0.0700868 0.0695635
84 3 O -0.385966 10.5551 2.79288 -1.2 1 0.0230084 0.0143514 0.0333136 0.0128257 0.0331377 0.0436849 0.0454583 0.0460668 0.0449355 0.039568 0.0528219 0.0475666 0.0496048 0.0561366 0.0698828 0.0703604 0.0665015 0.0621346 0.0682695 0.0798521
85 1 Mg 6.49448 14.247 0 1.2 1 0.0223217 0.00982323 0.0186139 0.0173207 0.0285057 0.0231651 0.0478548 0.0331144 0.059324 0.0483614 0.0514024 0.0372113 0.062338 0.0526375 0.0707397 0.065505 0.0648176 0.0703539 0.0847832 0.0701742
86 1 Mg 3.74457 18.9547 1.4948 1.2 1 0.0182092 0.0111079 0.0154376 0.01773 0.0278234 0.0294473 0.0325324 0.0385209 0.0388211 0.0591776 0.0433665 0.0662029 0.0501855 0.066544 0.06829 0.0701529 0.060636 0.0824619 0.0788923 0.0746379
87 2 Si 5.55495 16.2705 1.4948 2.4 1 0.0120798 0.0200076 0.0219808 0.0269343 0.0184613 0.0424443 0.0366872 0.042215 0.0456008 0.0520639 0.0435937 0.0612281 0.0538648 0.0637761 0.06966 0.0593886 0.072383 0.0796546 0.0597563 0.0701838
88 3 O 5.6115 17.8838 1.4948 -1.2 1 0.026972 0.0181181 0.0233875 0.0256033 0.0192977 0.0435126 0.0452398 0.0609155 0.0373421 0.0500484 0.0380854 0.066921 0.0513052 0.0562451 0.0644534 0.0571288 0.0656833 0.0615909 0.0633027 0.0691225
89 3 O 1.93416 15.2965 1.4948 -1.2 1 0.0370928 0.0149198 0.0220363 0.0129712 0.0351198 0.0299438 0.0364287 0.0588034 0.0424978 0.0462858 0.0485891 0.0505043 0.0470955 0.0744924 0.0809987 0.0774877 0.0592634 0.0742113 0.0624572 0.0773683
90 3 O 4.85636 15.5644 0.196716 -1.2 1 0.0226539 0.0119371 0.0214419 0.0188792 0.0251962 0.0510986 0.0494076 0.0394221 0.0394013 0.0440971 0.037516 0.0324334 0.0632995 0.0541337 0.067225 0.0675271 0.0756919 0.0627663 0.0714942 0.0681011
91 1 Mg 6.44662 14.247 2.9896 1.2 1 0.0104188 0.018457 0.0227121 0.0213918 0.019142 0.0351957 0.0382576 0.0535985 0.0360366 0.05711 0.0334564 0.0636113 0.0243295 0.0673921 0.0460985 0.0770104 0.0452468 0.0917777 0.0432742 0.0920049
92 3 O 4.81537 15.5644 2.79288 -1.2 1 0.0119782 0.0092561 0.0294324 0.0130145 0.0278246 0.0375429 0.0469224 0.0476575 0.0458703 0.0389933 0.0506098 0.0414657 0.0533474 0.0580201 0.0756086 0.0668346 0.0765024 0.0535033 0.0727692 0.0760977
93 1 Mg -0.948271 14.2883 4.4844 1.2 1 0.0174306 0.0124108 0.015275 0.0291704 0.0237484 0.028215 0.0371824 0.035826 0.0425998 0.0496104 0.0591007 0.0574635 0.0672552 0.0676962 0.0592511 0.0700178 0.0706309 0.0963479 0.0730647 0.0825925
94 2 Si -2.75928 16.9724 4.4844 2.4 1 0.0150866 0.0139583 0.0214664 0.0279446 0.0297936 0.0416278 0.0575686 0.031924 0.0547563 0.0623934 0.0518316 0.0604958 0.0576056 0.0539386 0.0775847 0.0723487 0.047919 0.0949758 0.0556205 0.0598319
95 3 O -2.81617 15.3592 4.4844 -1.2 1 0.0179056 0.0175933 0.0107895 0.0257758 0.0285021 0.024137 0.0416879 0.0637335 0.042598 0.0507321 0.0375604 0.0723337 0.0478269 0.0578534 0.067688 0.0684772 0.0504222 0.0718556 0.0632319 0.0775999
96 3 O 0.862762 17.9465 4.4844 -1.2 1 0.0170041 0.0233392 0.0227023 0.0158956 0.0213515 0.0469257 0.0364947 0.0549207 0.0466046 0.0522739 0.0404133 0.0478338 0.0446021 0.0717137 0.108488 0.0568325 0.0709745 0.0509393 0.0716032 0.0700317
97 3 O -2.0185 17.6786 3.18632 -1.2 1 0.0251137 0.0108974 0.0189438 0.0176863 0.0188338 0.0351854 0.0424802 0.0538447 0.0420123 0.0551821 0.0521714 0.0505536 0.0555133 0.0478642 0.0817379 0.0595278 0.068682 0.0662431 0.0651078 0.0681567
98 3 O -2.06164 17.6786 5.78248 -1.2 1 0.00744591 0.00949423 0.0202801 0.0234712 0.0197667 0.0271143 0.0517305 0.0478767 0.0389261 0.0369477 0.0549965 0.0388124 0.0603908 0.0606851 0.0853574 0.066977 0.0731668 0.0644417 0.0700333 0.0738751
99 1 Mg 1.39817 16.6215 2.9896 1.2 1 0.00520842 0.0158847 0.0166244 0.0194628 0.0213071 0.0350737 0.039331 0.0553031 0.0362967 0.0605297 0.0369775 0.0589814 0.0263001 0.0686673 0.0472441 0.0799614 0.0499792 0.0916478 0.0446617 0.0892715
100 1 Mg 4.20062 16.5802 4.4844 1.2 1 0.0157492 0.0109802 0.0164309 0.02618 0.0255963 0.0311773 0.0393554 0.0350435 0.0464162 0.0518801 0.0526794 0.0563194 0.0690373 0.06898 0.0513603 0.0739986 0.0704844 0.0992099 0.074228 0.0782509
101 2 Si 2.37796 18.645 4.4844 2.4 1 0.0253541 0.00311631 0.0224933 0.0246319 0.0279681 0.0371552 0.0592808 0.0330815 0.0522455 0.0583893 0.0503864 0.0623138 0.063016 0.0610877 0.0740841 0.0654564 0.0494881 0.100672 0.0527551 0.0565334
102 3 O 2.39434 20.2583 4.4844 -1.2 1 0.0220929 0.0124818 0.00989253 0.0173568 0.0240402 0.0231839 0.0372095 0.0570987 0.0420339 0.0496548 0.0416958 0.0738443 0.0505216 0.0650454 0.0729421 0.0700905 0.048537 0.0693797 0.0690676 0.0796586
103 3 O -4.24274 17.671 4.4844 -1.2 1 0.025807 0.0236035 0.0240357 0.0159787 0.0216695 0.0473678 0.0334503 0.0471878 0.0443237 0.0513142 0.0389691 0.0508548 0.0481522 0.0691484 0.0989159 0.0625975 0.0766263 0.051914 0.0752033 0.0731489
104 3 O 3.08659 17.9389 3.18632 -1.2 1 0.0323545 0.0165853 0.021289 0.00882848 0.0175663 0.0368067 0.0367302 0.0541223 0.0446884 0.0515605 0.0543098 0.0492028 0.0512805 0.0474045 0.0800864 0.0599884 0.0675548 0.0621923 0.0648996 0.069134
105 1 Mg 1.44478 16.6215 0 1.2 1 0.00935648 0.0121988 0.0217884 0.0125674 0.0266332 0.0317719 0.0480829 0.0357246 0.0507582 0.0506442 0.0517969 0.0394272 0.0584631 0.0491374 0.0697963 0.0659999 0.0605458 0.0674082 0.0885374 0.0638747
106 3 O 3.0436 17.9389 5.78248 -1.2 1 0.0154171 0.0131756 0.0180683 0.0251725 0.0198291 0.0247645 0.047683 0.0469212 0.0393717 0.0398321 0.0585498 0.0378754 0.0577104 0.0607076 0.0879862 0.0659216 0.0711478 0.0603484 0.06481 0.0791454
107 1 Mg -1.40524 16.6628 1.4948 1.2 1 0.0115666 0.0124707 0.025831 0.0174743 0.0177208 0.0343511 0.0365859 0.0421702 0.0407413 0.0602721 0.0403318 0.0632108 0.0552024 0.0650427 0.0740628 0.0699305 0.0639922 0.0776515 0.0789219 0.0761049
108 2 Si 0.420358 14.5979 1.4948 2.4 1 0.0226472 0.0195141 0.0287864 0.0257867 0.017376 0.0387206 0.0389171 0.0417572 0.0437101 0.0544655 0.0428416 0.0617862 0.0584725 0.0634182 0.0672973 0.0588035 0.0726365 0.0769242 0.0628941 0.0721382
109 3 O 0.408732 12.9847 1.4948 -1.2 1 0.0223602 0.0154335 0.0229679 0.0255875 0.0167391 0.0471735 0.043927 0.0538456 0.036302 0.0526344 0.0423337 0.0691319 0.0534828 0.0572046 0.0661247 0.0632561 0.0712457 0.0551796 0.068165 0.0716768
110 3 O 7.03923 15.572 1.4948 -1.2 1 0.0292929 0.0168103 0.0217516 0.0128915 0.0360966 0.0338368 0.03661 0.0564437 0.0386941 0.0445928 0.0510211 0.0533189 0.0479143 0.074059 0.0782111 0.0782362 0.0641083 0.069378 0.0621894 0.0774806
111 3 O -0.248332 15.3041 0.196716 -1.2 1 0.0182398 0.0140362 0.0234729 0.0207777 0.0247341 0.0465233 0.0500184 0.0426254 0.0392841 0.046087 0.037022 0.0308412 0.0617945 0.0531766 0.0690841 0.0647313 0.0808293 0.0507642 0.0688003 0.072317
112 3 O -0.289436 15.3041 2.79288 -1.2 1 0.0101811 0.0164472 0.0321167 0.0121859 0.0306077 0.0372852 0.0446523 0.045735 0.0459005 0.0397812 0.0548972 0.047936 0.0520587 0.0553158 0.0730988 0.0699209 0.0716627 0.0550664 0.0707052 0.0754096
113 1 Mg 6.59566 18.996 0 1.2 1 0.0138039 0.0116915 0.0199121 0.0145177 0.0260892 0.0318276 0.0430251 0.0330071 0.0538152 0.0491889 0.0538269 0.0390348 0.0525133 0.0530659 0.072211 0.0646638 0.0639974 0.064949 0.086138 0.0709501
114 1 Mg 3.85574 23.7037 1.4948 1.2 1 0.0108193 0.0125398 0.0213421 0.0139069 0.0226208 0.0288607 0.0311697 0.0369633 0.0389821 0.0598411 0.0469962 0.0632489 0.0501381 0.0668803 0.0649284 0.0725209 0.0660769 0.0796599 0.0795176 0.0761839
115 2 Si 5.66125 21.0195 1.4948 2.4 1 0.00837673 0.0242643 0.0233014 0.0273763 0.0192784 0.046249 0.0340737 0.0415924 0.0493167 0.0545675 0.04528 0.0612019 0.0559372 0.059245 0.0718097 0.0606779 0.0733904 0.0770242 0.0644257 0.0751561
116 3 O 5.72074 22.6328 1.4948 -1.2 1 0.0282939 0.0192063 0.0184954 0.0226188 0.0192452 0.0448371 0.0453401 0.0618667 0.0379286 0.0520948 0.0328854 0.0697159 0.0495725 0.0539044 0.0685607 0.055664 0.0649978 0.067684 0.0565643 0.0710772
117 3 O 2.03867 20.0455 1.4948 -1.2 1 0.0343908 0.0167529 0.0257544 0.0130908 0.0338656 0.0311887 0.0363871 0.0542645 0.0430444 0.0422044 0.0506476 0.0507173 0.048191 0.0732337 0.0844051 0.0714172 0.0626906 0.0676283 0.0642296 0.0723623
118 3 O 4.96004 20.3134 0.196716 -1.2 1 0.0210759 0.0103213 0.0228495 0.0187778 0.0232916 0.0453692 0.0439442 0.0480017 0.0389573 0.0398893 0.0411117 0.0342648 0.0646915 0.0476926 0.0695735 0.0728912 0.0714994 0.0581345 0.0717306 0.0720254
119 1 Mg 6.55057 18.996 2.9896 1.2 1 0.00807797 0.015103 0.0204993 0.0223458 0.0237485 0.0351529 0.0376807 0.0563321 0.0347512 0.0608038 0.0355877 0.0642304 0.0231572 0.0699733 0.0448878 0.073898 0.0453225 0.094184 0.043679 0.0945175
120 3 O 4.92172 20.3134 2.79288 -1.2 1 0.00955656 0.0131673 0.0282998 0.0147701 0.0315767 0.0380486 0.046071 0.0467216 0.0462504 0.0438614 0.0527238 0.0413009 0.0531015 0.0507777 0.0766205 0.0682228 0.0758813 0.0473004 0.0698587 0.0736746
121 1 Mg -0.84282 19.0373 4.4844 1.2 1 0.0104956 0.0100287 0.0131821 0.0249055 0.0254909 0.0275335 0.0330825 0.0345835 0.0463998 0.0511454 0.0581287 0.0566431 0.0678476 0.068774 0.0569599 0.0716123 0.071047 0.096313 0.0739372 0.0835122
122 2 Si -2.64823 21.7214 4.4844 2.4 1 0.0195518 0.0134269 0.0174079 0.0273544 0.0292299 0.0405232 0.0569711 0.0305842 0.055117 0.0629136 0.0530138 0.0651864 0.0605023 0.0541829 0.0780428 0.0714762 0.0449393 0.0948295 0.0509655 0.0655969
123 3 O -2.70847 20.1082 4.4844 -1.2 1 0.0138034 0.0165017 0.0145367 0.0259101 0.0268622 0.0257621 0.0392616 0.0664685 0.0455533 0.0506827 0.0400771 0.0726047 0.0487222 0.0607511 0.0668454 0.0650306 0.0530228 0.0714138 0.0658694 0.0783018
124 3 O 0.97581 22.6955 4.4844 -1.2 1 0.0237998 0.0217916 0.0227587 0.0168189 0.0181741 0.0403752 0.033116 0.049594 0.0426577 0.05379 0.0421368 0.0478296 0.0472127 0.0717024 0.104275 0.0524138 0.0659868 0.0550778 0.0767968 0.0670216
125 3 O -1.9076 22.4276 3.18632 -1.2 1 0.0220132 0.00754068 0.0203981 0.0159874 0.0132765 0.0365628 0.0438579 0.056189 0.0372143 0.0502597 0.0547781 0.0482509 0.055975 0.047784 0.0804441 0.0591479 0.0686577 0.0671044 0.0627058 0.0669598
126 3 O -1.9475 22.4276 5.78248 -1.2 1 0.0165675 0.018231 0.0202837 0.0236059 0.0183267 0.0259611 0.0507043 0.0414963 0.0418951 0.0389158 0.0572272 0.0345943 0.058306 0.0602438 0.0824631 0.0667448 0.070541 0.0662346 0.0707263 0.0763015