ITEM: TIMESTEP
200
ITEM: NUMBER OF ATOMS
10500
ITEM: BOX BOUNDS xy xz yz pp pp pp
0	15.2977	5.09925
0	118.725	0
0	89.688	0
ITEM: ATOMS id type element xu yu zu q Q_1 Q_2 Q_3 Q_4 Q_5 Q_6 Q_7 Q_8 Q_9 Q_10 Q_11 Q_12 Q_13 Q_14 Q_15 Q_16 Q_17 Q_18 Q_19 Q_20 Q_21
1 1 Mg 6.2404 -6.37941e-06 0 1.2 1 0.0132188 0.0408935 0.0296797 0.0358255 0.0333044 0.0412498 0.0357043 0.06869 0.0390189 0.0712164 0.033917 0.0592829 0.0461875 0.0683879 0.0499745 0.0921778 0.0516305 0.0839154 0.0508546 0.102625
2 1 Mg 3.46349 4.70768 1.4948 1.2 1 0.0168855 0.0166993 0.024453 0.0216353 0.0202328 0.0420978 0.0423446 0.0397811 0.046024 0.0557114 0.0428455 0.0706338 0.0576074 0.0711185 0.0718984 0.0643447 0.0680843 0.0856151 0.0727936 0.0819405
3 2 Si 5.2885 2.02354 1.4948 2.4 1 0.0218988 0.0223815 0.0366774 0.0256374 0.0309061 0.0366113 0.053429 0.0335538 0.0442985 0.0518701 0.0558476 0.0618139 0.0558007 0.0637085 0.0681844 0.0792024 0.0709031 0.0649648 0.063405 0.073289
4 3 O 5.33628 3.63678 1.4948 -1.2 1 0.00939781 0.014169 0.0268267 0.0259456 0.018374 0.0390799 0.0419077 0.0602194 0.0354863 0.0402182 0.0547192 0.0507829 0.0678738 0.0576592 0.0588851 0.0648787 0.0601603 0.0615493 0.071257 0.0744392
5 3 O 1.67294 1.04952 1.4948 -1.2 1 0.0162945 0.0218211 0.0233107 0.0356761 0.0296718 0.0387142 0.0341278 0.0609595 0.034823 0.0595632 0.0439418 0.0510004 0.0718142 0.0593351 0.076237 0.0692805 0.0627675 0.0644253 0.0793656 0.0603816
6 3 O 4.59532 1.31737 0.196716 -1.2 1 0.0258862 0.0221214 0.0575768 0.0252335 0.0333502 0.048701 0.0385621 0.0473422 0.0338862 0.0392746 0.0386245 0.0505227 0.0542426 0.0571348 0.0635295 0.0700196 0.0620338 0.0715056 0.0592486 0.0707732
7 1 Mg 6.18956 -6.37941e-06 2.9896 1.2 1 0.0154749 0.0284397 0.0155747 0.0217184 0.0363142 0.0451035 0.0504251 0.0429832 0.0477249 0.0451048 0.0385322 0.056425 0.0389904 0.0560074 0.0588121 0.0797576 0.0569456 0.0693396 0.0590102 0.0701052
8 3 O 4.55118 1.31737 2.79288 -1.2 1 0.0242765 0.0257981 0.0407698 0.0170869 0.0286266 0.0438767 0.0444686 0.0480146 0.0438034 0.0544179 0.0537242 0.0486631 0.0496406 0.0664398 0.0534313 0.0699397 0.0644045 0.066855 0.0644064 0.0717785
9 1 Mg -1.20682 0.0413099 4.4844 1.2 1 0.013875 0.0247092 0.020753 0.0269949 0.0363135 0.0403233 0.0312901 0.0526161 0.0534582 0.0397927 0.0492036 0.061728 0.0659103 0.0584055 0.0767369 0.0609461 0.0810298 0.0738635 0.0644513 0.0526053
10 2 Si -3.0337 2.72544 4.4844 2.4 1 0.0316677 0.0149094 0.0225489 0.0180169 0.0311758 0.0373696 0.0620937 0.0344847 0.0623612 0.0513281 0.0466623 0.0600288 0.0579308 0.0755045 0.0548098 0.0606837 0.0716305 0.0793558 0.072225 0.0601682
11 3 O -3.08099 1.11221 4.4844 -1.2 1 0.013117 0.0212515 0.0268776 0.0243558 0.0404841 0.0258775 0.0495372 0.045473 0.0405708 0.0399868 0.0398151 0.0715277 0.05378 0.0510722 0.0550255 0.0684437 0.0553198 0.0796544 0.0734054 0.0756958
12 3 O 0.582463 3.69946 4.4844 -1.2 1 0.00995063 0.0115844 0.0338287 0.0304969 0.02694 0.0617389 0.0315496 0.055139 0.0436772 0.0412131 0.0539811 0.0575807 0.0595376 0.0718369 0.100176 0.0704182 0.0794702 0.0398462 0.0724628 0.0677334
13 3 O -2.29524 3.43162 3.18632 -1.2 1 0.0125502 0.0202691 0.0258711 0.0308265 0.019976 0.0503744 0.0515432 0.0496625 0.0410546 0.0529431 0.0591874 0.0545265 0.0409337 0.0521781 0.0585498 0.0647919 0.066669 0.0618002 0.0636403 0.0731427
14 3 O -2.34216 3.43162 5.78248 -1.2 1 0.0197629 0.00981325 0.0228332 0.0272085 0.0271952 0.0400954 0.0537277 0.047805 0.0395382 0.0556439 0.0547277 0.0490692 0.0551692 0.051631 0.0781148 0.0733486 0.0616152 0.0709888 0.0742311 0.0716167
15 1 Mg 1.12778 2.37449 2.9896 1.2 1 0.015616 0.0403514 0.0166616 0.0239704 0.0254104 0.0431763 0.0409467 0.0505475 0.0368872 0.0607558 0.0371726 0.0589967 0.0406021 0.0673249 0.0634818 0.0700767 0.068024 0.0823549 0.0455824 0.0872729
16 1 Mg 3.92855 2.33318 4.4844 1.2 1 0.02808 0.0156677 0.0238479 0.0297922 0.0439536 0.0255075 0.0380102 0.0376659 0.0473673 0.0682416 0.0508053 0.0600203 0.0498937 0.060496 0.0550546 0.0737978 0.0631044 0.0949132 0.0738587 0.0854055
17 2 Si 2.09341 4.39804 4.4844 2.4 1 0.0139826 0.0207097 0.0330759 0.0143958 0.0415066 0.0274391 0.0634866 0.0209614 0.0445321 0.0475514 0.0625072 0.0617185 0.0669796 0.059249 0.072795 0.0753384 0.0716683 0.0811762 0.0509277 0.0659663
18 3 O 2.09991 6.01128 4.4844 -1.2 1 0.0101816 0.0116544 0.0174821 0.0189948 0.034039 0.0228274 0.0521259 0.0512321 0.0470155 0.0464427 0.0471602 0.0658295 0.0461786 0.0615765 0.0661265 0.0720982 0.0458623 0.0795226 0.0608378 0.0713691
19 3 O -4.52137 3.42402 4.4844 -1.2 1 0.0200838 0.0324707 0.037871 0.0210131 0.0271602 0.0571081 0.039168 0.0459841 0.0563425 0.0597808 0.0327687 0.058846 0.0535864 0.0536221 0.0895268 0.0723106 0.0768462 0.0608121 0.0733178 0.0556148
20 3 O 2.80834 3.69187 3.18632 -1.2 1 0.0110968 0.0201635 0.0207801 0.0260849 0.0204149 0.038165 0.0342562 0.0491184 0.0439364 0.0596409 0.0662877 0.0526462 0.0422179 0.0632068 0.0702853 0.0716294 0.0613762 0.058849 0.070615 0.0711498
21 1 Mg 1.17857 2.37449 0 1.2 1 0.0149316 0.0343673 0.0287339 0.0277275 0.0376656 0.0380895 0.043253 0.0590136 0.0360469 0.0494332 0.0511673 0.0418323 0.0419418 0.0672672 0.0563618 0.0641958 0.0616237 0.0805271 0.0588381 0.0733859
22 3 O 2.76143 3.69187 5.78248 -1.2 1 0.00685223 0.0211292 0.0165495 0.0236637 0.0182618 0.0326338 0.0398829 0.0477608 0.0351438 0.0447838 0.0603362 0.0425093 0.0551252 0.076439 0.0741016 0.0692392 0.0699644 0.058899 0.0705492 0.0744134
23 1 Mg -1.67381 2.41581 1.4948 1.2 1 0.0114097 0.0115891 0.0371662 0.0362399 0.0324033 0.0440216 0.0587492 0.0403334 0.0510089 0.0404985 0.0462861 0.0592366 0.0549546 0.0637167 0.0614357 0.064447 0.0833824 0.0777766 0.0665834 0.0740435
24 2 Si 0.16286 0.350945 1.4948 2.4 1 0.0153364 0.0354768 0.0300719 0.0243026 0.0366991 0.0356525 0.0565839 0.0486913 0.0533308 0.0495058 0.0405449 0.0537021 0.0746405 0.070611 0.0582276 0.0735788 0.0695531 0.0643292 0.0730565 0.0653588
25 3 O 0.15972 -1.26229 1.4948 -1.2 1 0.0091548 0.0153756 0.0397106 0.0213631 0.0374992 0.0359466 0.0454975 0.056765 0.0469714 0.0514147 0.0556858 0.0558177 0.0631462 0.0664388 0.0497961 0.0595578 0.0695863 0.0663492 0.0624058 0.0742872
26 3 O 6.77654 1.32496 1.4948 -1.2 1 0.0115061 0.0277414 0.026616 0.0276858 0.0372302 0.0544754 0.0342235 0.0648477 0.047603 0.0467137 0.0442617 0.0523708 0.0525269 0.0595516 0.0686361 0.0714152 0.08453 0.0629387 0.0598251 0.0746017
27 3 O -0.508028 1.05712 0.196716 -1.2 1 0.0246745 0.0190634 0.0295823 0.0206149 0.0292972 0.053248 0.0437324 0.0445881 0.0471864 0.0482031 0.0502715 0.0480728 0.049346 0.0634886 0.0549765 0.063016 0.063459 0.0588546 0.0719966 0.0717084
28 3 O -0.552171 1.05712 2.79288 -1.2 1 0.0337582 0.025923 0.0328027 0.032085 0.0213169 0.045125 0.0430335 0.0463124 0.0450023 0.0349061 0.0493168 0.0497601 0.0609715 0.0630533 0.0651645 0.0763266 0.0710533 0.0504396 0.069989 0.0718189
29 1 Mg 6.31713 4.74899 0 1.2 1 0.0272423 0.0291663 0.03033 0.0366674 0.0326472 0.0266347 0.0419599 0.0558775 0.0586604 0.0493906 0.0510384 0.0384709 0.0593794 0.0614269 0.0656844 0.0637888 0.0658649 0.0736392 0.0693307 0.0704937
30 1 Mg 3.54847 9.45668 1.4948 1.2 1 0.0170715 0.0160411 0.0174019 0.018915 0.0188159 0.0383891 0.038465 0.0420422 0.0450069 0.0565084 0.0378065 0.0688653 0.0529246 0.0655912 0.0746906 0.0622269 0.0666859 0.0876448 0.0735487 0.0795961
31 2 Si 5.36879 6.77254 1.4948 2.4 1 0.029058 0.0269924 0.0239195 0.0256241 0.0247331 0.0349578 0.0443481 0.0362677 0.044891 0.057164 0.0421564 0.058379 0.0533689 0.0664896 0.0655796 0.0742721 0.067208 0.0790454 0.0560492 0.0687045
32 3 O 5.41937 8.38578 1.4948 -1.2 1 0.021527 0.011433 0.0235188 0.0296462 0.0174759 0.0431924 0.0441389 0.0572895 0.0363884 0.0506241 0.0475035 0.0640881 0.0551358 0.0539009 0.0662745 0.060669 0.0728881 0.056012 0.0731653 0.0731621
33 3 O 1.75158 5.79852 1.4948 -1.2 1 0.0284589 0.0123544 0.0224417 0.0266139 0.044075 0.0307154 0.039276 0.0569619 0.0408024 0.0525872 0.0495059 0.0506018 0.0474508 0.0710825 0.0786736 0.0785563 0.0603298 0.0750418 0.0600386 0.0767086
34 3 O 4.67421 6.06637 0.196716 -1.2 1 0.0145887 0.0264912 0.0315788 0.0243739 0.0320098 0.0378111 0.0345798 0.032214 0.0447881 0.0561816 0.0392633 0.0442919 0.0667757 0.0562313 0.0676573 0.0712306 0.0714769 0.0657423 0.06324 0.0684501
35 1 Mg 6.26654 4.74899 2.9896 1.2 1 0.022111 0.0247676 0.0235165 0.043494 0.025816 0.0444035 0.0481815 0.0480174 0.0361141 0.0623274 0.0373523 0.0600908 0.0385987 0.0642171 0.0526748 0.076826 0.0556458 0.0842904 0.0463437 0.0902284
36 3 O 4.63043 6.06637 2.79288 -1.2 1 0.0187551 0.0198309 0.0415128 0.0193376 0.0321978 0.0366516 0.0430295 0.0487163 0.0448835 0.0368987 0.0491847 0.0525865 0.0574057 0.0654865 0.0617557 0.0728395 0.0654147 0.0677527 0.0673814 0.0850318
37 1 Mg -1.12976 4.79031 4.4844 1.2 1 0.0216645 0.0253991 0.0117123 0.0134939 0.0367852 0.0371958 0.0484654 0.0494002 0.0444925 0.0441341 0.0556419 0.0608256 0.0765628 0.0715596 0.0614385 0.0683745 0.0714559 0.0938265 0.0723643 0.0811613
38 2 Si -2.9517 7.47444 4.4844 2.4 1 0.0237101 0.0136881 0.01759 0.0262462 0.0305953 0.0426256 0.0620532 0.0284638 0.0545208 0.0572551 0.0522577 0.0591987 0.0636277 0.0578821 0.079831 0.0709675 0.0523884 0.0881358 0.0557114 0.0607333
39 3 O -3.00198 5.86121 4.4844 -1.2 1 0.0156011 0.0239495 0.0269913 0.027906 0.0325042 0.0310865 0.0544169 0.0591828 0.0382895 0.0531974 0.0474076 0.0709082 0.0584236 0.05586 0.0657296 0.0707119 0.049866 0.077357 0.0619381 0.0780661
40 3 O 0.666315 8.44846 4.4844 -1.2 1 0.0200413 0.0221585 0.0233066 0.0155221 0.0221225 0.0554198 0.0287515 0.0516958 0.0428759 0.0473476 0.0412758 0.0514647 0.0497505 0.0741133 0.100721 0.0663353 0.0769935 0.0498773 0.0706169 0.071938
41 3 O -2.21213 8.18062 3.18632 -1.2 1 0.0183461 0.0152279 0.0163852 0.015552 0.0172029 0.0355051 0.0460969 0.0545554 0.0457303 0.0537397 0.0535652 0.0525106 0.0525742 0.0472898 0.0780826 0.0634164 0.0710745 0.0587948 0.0679226 0.0711605
42 3 O -2.25864 8.18062 5.78248 -1.2 1 0.0156992 0.0174035 0.0191464 0.0204729 0.019496 0.0299086 0.0487939 0.0483073 0.0383894 0.0405825 0.0560928 0.0393477 0.058808 0.0572704 0.085915 0.0699614 0.0682072 0.0645916 0.0680746 0.0742288
43 1 Mg 1.20893 7.12349 2.9896 1.2 1 0.00766145 0.0225315 0.0185017 0.0247745 0.0239934 0.0395451 0.0428393 0.0462796 0.0345231 0.0654893 0.0390669 0.0666729 0.0362717 0.0587151 0.0523146 0.0799124 0.0513453 0.0839661 0.04736 0.0874327
44 1 Mg 4.00982 7.08218 4.4844 1.2 1 0.021935 0.0147165 0.0234654 0.0349247 0.0305963 0.0364208 0.0445932 0.0367988 0.0465206 0.0516155 0.0574398 0.0555465 0.0713596 0.0731854 0.0572139 0.0678765 0.0635127 0.0983995 0.0747233 0.081863
45 2 Si 2.17861 9.14704 4.4844 2.4 1 0.026793 0.0122663 0.0238906 0.0209695 0.0292454 0.0340849 0.0626931 0.0249689 0.0507615 0.0542905 0.0553704 0.0596846 0.064079 0.0564561 0.0800148 0.0701803 0.0489841 0.0937188 0.0542306 0.0576499
46 3 O 2.18828 10.7603 4.4844 -1.2 1 0.0199546 0.0151102 0.00456447 0.0191486 0.0274849 0.0224667 0.0447202 0.0592597 0.0402874 0.0535861 0.0403345 0.0707845 0.0448267 0.0645261 0.0704631 0.0725041 0.0479558 0.0720361 0.064111 0.0729249
47 3 O -4.43805 8.17302 4.4844 -1.2 1 0.0110906 0.0174254 0.0179306 0.0189929 0.0235592 0.0555553 0.0363137 0.0501658 0.0425892 0.0480223 0.0368104 0.0534836 0.0535825 0.0725369 0.100295 0.0660739 0.0812937 0.054251 0.0750287 0.0729356
48 3 O 2.89193 8.44087 3.18632 -1.2 1 0.0180691 0.0155637 0.0181809 0.0145114 0.0214645 0.0419175 0.0338731 0.0557143 0.0434131 0.0514753 0.0588902 0.0489942 0.0514131 0.0530459 0.0803479 0.0631857 0.0701296 0.0590591 0.0650735 0.0735752
49 1 Mg 1.25915 7.12349 0 1.2 1 0.0200235 0.0152524 0.0248401 0.0146439 0.0321568 0.0255071 0.0525159 0.0403915 0.0556937 0.0499539 0.0526086 0.042575 0.0720245 0.0513158 0.0674877 0.0710837 0.0652137 0.0708987 0.0810777 0.0585026
50 3 O 2.84547 8.44087 5.78248 -1.2 1 0.0105721 0.0128535 0.0173461 0.0201021 0.0200768 0.0295261 0.0442024 0.0489217 0.0379016 0.041384 0.0591898 0.0425918 0.0579554 0.0621076 0.0890692 0.0651319 0.0706751 0.0629608 0.0656019 0.0766549
51 1 Mg -1.59284 7.16481 1.4948 1.2 1 0.0098136 0.0163805 0.0204773 0.0204041 0.0149729 0.0372168 0.0462812 0.0426577 0.0433259 0.0577148 0.0389183 0.0658651 0.0520287 0.0691464 0.0757394 0.0605232 0.0677986 0.0844978 0.0734751 0.0784518
52 2 Si 0.240329 5.09994 1.4948 2.4 1 0.024633 0.0173044 0.0159682 0.0433827 0.0272491 0.0404972 0.0467694 0.0533172 0.055048 0.0487788 0.0455696 0.057544 0.0591148 0.067987 0.0655459 0.0664595 0.0639404 0.0728187 0.066332 0.0680265
53 3 O 0.234538 3.48671 1.4948 -1.2 1 0.013146 0.0163975 0.0265811 0.0358739 0.0313936 0.0492187 0.045932 0.0424562 0.0528536 0.0468735 0.0522561 0.0613544 0.0560785 0.0608815 0.0617771 0.0625223 0.0627927 0.0571259 0.0759771 0.0738159
54 3 O 6.85564 6.07396 1.4948 -1.2 1 0.0324799 0.0194869 0.0345127 0.0275877 0.0372125 0.0402936 0.0324694 0.062461 0.0364462 0.0532256 0.0538436 0.0536119 0.0552095 0.0733354 0.069815 0.0770239 0.0664667 0.0723095 0.0532251 0.0849733
55 3 O -0.429565 5.80612 0.196716 -1.2 1 0.03403 0.0200154 0.0158941 0.0212312 0.0409632 0.0374691 0.0538748 0.0451208 0.0460429 0.0563548 0.0397729 0.0419536 0.0533682 0.0601112 0.0599232 0.0681754 0.0703967 0.0610545 0.0652481 0.0741889
56 3 O -0.473377 5.80612 2.79288 -1.2 1 0.0247808 0.021234 0.0338826 0.0186258 0.0345336 0.0463462 0.049403 0.0487139 0.0544934 0.0453878 0.062277 0.03861 0.0435286 0.0596781 0.0663094 0.0717376 0.0654172 0.0686199 0.071671 0.0802395
57 1 Mg 6.40169 9.49799 0 1.2 1 0.0127165 0.0117923 0.0212268 0.0142673 0.0304728 0.0212956 0.0522336 0.035601 0.0586335 0.0492423 0.0497931 0.0355222 0.0670914 0.0526361 0.0711304 0.0672047 0.0653459 0.0705752 0.0809276 0.0685536
58 1 Mg 3.64209 14.2057 1.4948 1.2 1 0.010533 0.0110384 0.0180358 0.01656 0.0215846 0.0336889 0.035999 0.0434825 0.0414394 0.0555728 0.0393774 0.0663281 0.0531648 0.0662221 0.0738506 0.0632435 0.06488 0.0824168 0.0740156 0.0782482
59 2 Si 5.45748 11.5215 1.4948 2.4 1 0.0119364 0.0218391 0.0233263 0.0248208 0.0180294 0.0402727 0.0397037 0.0399398 0.0435587 0.0545988 0.0424225 0.0602825 0.0533492 0.0663247 0.0694694 0.0635277 0.0710237 0.0817759 0.0582438 0.0666901
60 3 O 5.51101 13.1348 1.4948 -1.2 1 0.024178 0.0134203 0.0223043 0.0294127 0.0198616 0.0433624 0.0444955 0.0590713 0.0365463 0.0497229 0.0429303 0.0672781 0.0532454 0.053336 0.065571 0.0601425 0.0707077 0.0579237 0.0694708 0.0720012
61 3 O 1.83851 10.5475 1.4948 -1.2 1 0.0351802 0.0140517 0.0215945 0.0139219 0.0363335 0.030305 0.0364227 0.0590568 0.0398596 0.0483539 0.0497899 0.0515142 0.0470937 0.0749112 0.0757183 0.0799495 0.0566123 0.0759663 0.0577282 0.0788911
62 3 O 4.7611 10.8154 0.196716 -1.2 1 0.0357289 0.0192766 0.0198628 0.0181211 0.0267271 0.0442187 0.048324 0.0374938 0.0387792 0.0492396 0.0369051 0.0410078 0.0607119 0.0607688 0.0649721 0.071417 0.0753535 0.065718 0.0729069 0.0678115
63 1 Mg 6.35203 9.49799 2.9896 1.2 1 0.0130185 0.017522 0.0254562 0.0212637 0.0192813 0.0380462 0.0372945 0.0511367 0.0348888 0.058586 0.0316473 0.0647657 0.0284064 0.0666276 0.047474 0.080103 0.0455345 0.0900485 0.045312 0.0907757
64 3 O 4.71833 10.8154 2.79288 -1.2 1 0.0215336 0.0130111 0.0326156 0.0126988 0.0304393 0.0428666 0.0436326 0.0447442 0.0429993 0.0373987 0.0532217 0.0420736 0.0544223 0.0588222 0.0737785 0.0688159 0.0729933 0.0588936 0.0698797 0.0795616
65 1 Mg -1.0438 9.53931 4.4844 1.2 1 0.0140711 0.0166973 0.0163114 0.0240342 0.0269717 0.0285105 0.0399735 0.0351119 0.0462622 0.0509535 0.0578603 0.0566215 0.0689243 0.0708909 0.0595234 0.0688774 0.0724736 0.0984939 0.0713454 0.0851337
66 2 Si -2.8604 12.2234 4.4844 2.4 1 0.0188055 0.012006 0.016236 0.0265614 0.0302217 0.0418979 0.059557 0.0304774 0.0536992 0.0623923 0.0548732 0.0632816 0.0605244 0.0557237 0.07928 0.0719113 0.0495198 0.0910645 0.0537201 0.0635184
67 3 O -2.91391 10.6102 4.4844 -1.2 1 0.019583 0.0147123 0.00709762 0.0233105 0.029107 0.0234923 0.0450472 0.0622654 0.0396679 0.0499301 0.0365767 0.0707593 0.045619 0.0595784 0.0680411 0.0709136 0.0498057 0.0752461 0.0625607 0.0754771
68 3 O 0.7596 13.1975 4.4844 -1.2 1 0.0226061 0.0257552 0.0186432 0.0125334 0.0241231 0.0492463 0.033333 0.0516716 0.0459545 0.0500262 0.0384339 0.0497874 0.0470458 0.0709171 0.100785 0.0614694 0.0762318 0.0532725 0.0732571 0.0711171
69 3 O -2.12001 12.9296 3.18632 -1.2 1 0.0173085 0.0091246 0.0192087 0.016724 0.0203745 0.0387046 0.0419836 0.0553095 0.0464665 0.0520864 0.0541952 0.0486337 0.0563229 0.0500911 0.0802888 0.0636271 0.0719907 0.0628312 0.0660858 0.069891
70 3 O -2.16532 12.9296 5.78248 -1.2 1 0.0142137 0.0134709 0.0218381 0.0231346 0.0158801 0.0292068 0.0472028 0.0464557 0.0380023 0.040329 0.0574534 0.0385735 0.0569514 0.059601 0.0837925 0.0705792 0.0694416 0.0630842 0.0677816 0.0769475
71 1 Mg 1.29891 11.8725 2.9896 1.2 1 0.00698545 0.0157153 0.0221804 0.0225373 0.0175752 0.0382333 0.0365815 0.0506257 0.0351994 0.0601303 0.0340959 0.0589267 0.0258877 0.0676512 0.0489771 0.0824952 0.0490129 0.0895369 0.0473687 0.0862472
72 1 Mg 4.10033 11.8312 4.4844 1.2 1 0.0121821 0.0181713 0.017794 0.0264266 0.0261579 0.0342679 0.041874 0.0337529 0.0470293 0.05086 0.0533188 0.0539634 0.0672054 0.0707255 0.0528387 0.0703625 0.0706685 0.0996111 0.0739077 0.0818136
73 2 Si 2.27333 13.896 4.4844 2.4 1 0.0243228 0.0092132 0.0273665 0.024486 0.024454 0.0374609 0.062213 0.0301537 0.0544205 0.0567767 0.0529255 0.0604388 0.0617574 0.0561229 0.0769075 0.0690743 0.0464834 0.0973724 0.0539603 0.0563509
74 3 O 2.28634 15.5093 4.4844 -1.2 1 0.0218703 0.0155255 0.00334744 0.0198336 0.024734 0.0218566 0.0427376 0.0592186 0.0420256 0.0529208 0.0412427 0.0707927 0.0466347 0.0627348 0.069859 0.0696354 0.048899 0.0697761 0.0652753 0.0745535
75 3 O -4.34533 12.922 4.4844 -1.2 1 0.0209272 0.0220212 0.0214533 0.0160315 0.0223767 0.0511526 0.0347849 0.0498979 0.0447916 0.0524968 0.0383701 0.0531424 0.0485695 0.0708011 0.101196 0.0659921 0.0780086 0.0531755 0.0752206 0.0722946
76 3 O 2.98455 13.1899 3.18632 -1.2 1 0.0228404 0.011473 0.017843 0.0117659 0.0204889 0.0420812 0.0386954 0.0581186 0.0456851 0.0523696 0.0564532 0.0488935 0.0509556 0.0512931 0.0810861 0.0621148 0.066636 0.0600684 0.0640402 0.0719348
77 1 Mg 1.34779 11.8725 0 1.2 1 0.0217681 0.00927008 0.0219139 0.014855 0.0287042 0.0227258 0.0516106 0.0347694 0.057505 0.0509889 0.0496579 0.035385 0.0650693 0.0500962 0.0705887 0.0642586 0.0616801 0.0700798 0.087317 0.059697
78 3 O 2.93934 13.1899 5.78248 -1.2 1 0.0158732 0.0136715 0.018384 0.0229345 0.0202265 0.0275161 0.0479659 0.0483667 0.0419951 0.0412204 0.0580255 0.0379209 0.0577615 0.0616839 0.0879582 0.065575 0.0701644 0.0629775 0.0649533 0.0784717
79 1 Mg -1.50344 11.9138 1.4948 1.2 1 0.0129316 0.0179273 0.022895 0.0204307 0.0118443 0.0369072 0.0384572 0.0423715 0.0412301 0.0599349 0.0353593 0.0652115 0.0505627 0.0649707 0.0745991 0.0681186 0.0640407 0.0839625 0.0764863 0.0787708
80 2 Si 0.326006 9.84894 1.4948 2.4 1 0.0281048 0.0178445 0.0269388 0.0295145 0.0168996 0.0381064 0.0434254 0.0399837 0.044034 0.0549927 0.0395996 0.0604829 0.0556365 0.066298 0.0608372 0.0626825 0.0701552 0.0802459 0.0615105 0.0688448
81 3 O 0.317364 8.23571 1.4948 -1.2 1 0.022422 0.0125317 0.0225938 0.0239966 0.0201261 0.0452685 0.0429333 0.0498795 0.0347317 0.0542767 0.0441739 0.0657722 0.0573471 0.0597539 0.0679658 0.0662971 0.0716543 0.0534681 0.073452 0.0741829
82 3 O 6.94307 10.823 1.4948 -1.2 1 0.0312126 0.0148495 0.0220266 0.0117599 0.0373108 0.0330176 0.0381167 0.057807 0.0347242 0.0476506 0.0512916 0.0525635 0.0501635 0.0747792 0.0727284 0.0797859 0.0617312 0.0727985 0.0581567 0.0803375
83 3 O -0.343122 10.5551 0.196716 -1.2 1 0.0308819 0.0174994 0.0216341 0.0208694 0.0298031 0.041392 0.0512198 0.039702 0.0387173 0.050708 0.0370587 0.0376943 0.0614256 0.0607498 0.0688071 0.0707485 0.0809738 0.0541753 0.069949 0.0692503
84 3 O -0.385966 10.5551 2.79288 -1.2 1 0.0218558 0.0197296 0.0321318 0.0127812 0.0337861 0.0410405 0.044669 0.0463289 0.0427391 0.0402421 0.0529345 0.0484648 0.0491708 0.0549763 0.0699758 0.0719738 0.0671486 0.0604053 0.068125 0.0793894
85 1 Mg 6.49448 14.247 0 1.2 1 0.0225882 0.00991826 0.0185458 0.0169606 0.0286613 0.0227722 0.0478833 0.0329565 0.0593664 0.0481298 0.0513193 0.037441 0.0625655 0.0529397 0.0712436 0.0653558 0.0643651 0.0707688 0.0845332 0.0707203
86 1 Mg 3.74457 18.9547 1.4948 1.2 1 0.0149472 0.0107162 0.0153119 0.016062 0.0258664 0.0292896 0.0313762 0.0393986 0.0380752 0.0579649 0.0435337 0.0667391 0.0506783 0.0663205 0.0705939 0.0698015 0.0631089 0.0831385 0.0784243 0.0759903
87 2 Si 5.55495 16.2705 1.4948 2.4 1 0.0120419 0.0201234 0.0220229 0.0269026 0.0184797 0.0425788 0.0364988 0.042104 0.0453323 0.0519083 0.0435358 0.0610358 0.0541864 0.0640098 0.0697084 0.0590957 0.0728307 0.0797428 0.060504 0.0705475
88 3 O 5.6115 17.8838 1.4948 -1.2 1 0.0269085 0.0181359 0.0233497 0.0256179 0.0192904 0.0435205 0.0452321 0.0608938 0.0373123 0.0500034 0.038042 0.067155 0.0512099 0.0559989 0.0644526 0.0575679 0.0656893 0.0616219 0.0632608 0.0691864
89 3 O 1.93416 15.2965 1.4948 -1.2 1 0.0370856 0.0147395 0.0219299 0.0129793 0.0350483 0.0302868 0.0361349 0.0591223 0.0429832 0.0468812 0.0486097 0.0505767 0.0465673 0.0738702 0.0808204 0.0776049 0.0590037 0.0739032 0.0623321 0.0772446
90 3 O 4.85636 15.5644 0.196716 -1.2 1 0.0260718 0.0109387 0.0223048 0.0196057 0.0236931 0.0514558 0.0506204 0.0401395 0.0410458 0.0465452 0.0365791 0.0337212 0.0640696 0.0547439 0.0672583 0.0684372 0.0748583 0.0632627 0.0720578 0.0676079
91 1 Mg 6.44662 14.247 2.9896 1.2 1 0.0103034 0.0182098 0.0227447 0.0217855 0.0187355 0.0354459 0.0380302 0.05367 0.0363453 0.0573815 0.0336929 0.0629685 0.0248314 0.0675008 0.0456731 0.0767913 0.0452115 0.0918978 0.0437185 0.0923063
92 3 O 4.81537 15.5644 2.79288 -1.2 1 0.0117437 0.00959552 0.0292957 0.0131731 0.028078 0.0372427 0.0466956 0.0471968 0.0458316 0.0389122 0.0513375 0.0420847 0.0534921 0.0574712 0.0756017 0.0672181 0.0765031 0.052481 0.0721628 0.0756033
93 1 Mg -0.948271 14.2883 4.4844 1.2 1 0.0165935 0.0123425 0.0145073 0.0289046 0.0240789 0.0281978 0.0379053 0.0344228 0.0444274 0.0487653 0.0590592 0.0566105 0.0668793 0.0687065 0.058854 0.0702876 0.0713449 0.0961148 0.0734727 0.0826358
94 2 Si -2.75928 16.9724 4.4844 2.4 1 0.0205617 0.0117201 0.0183229 0.0276305 0.0294918 0.0414421 0.058617 0.0316666 0.0551992 0.0622595 0.0526274 0.0630276 0.0597938 0.0550846 0.0779129 0.0723394 0.0467761 0.0924156 0.0533965 0.0633039
95 3 O -2.81617 15.3592 4.4844 -1.2 1 0.018218 0.016885 0.0109358 0.0258134 0.0279623 0.0236564 0.0424045 0.0635991 0.0430878 0.0500494 0.0374332 0.0718368 0.0482672 0.0579138 0.0675747 0.0680002 0.0511952 0.0732641 0.0635382 0.0755293
96 3 O 0.862762 17.9465 4.4844 -1.2 1 0.0178948 0.0245599 0.021081 0.0163329 0.0215214 0.0465397 0.0346451 0.0534524 0.0470174 0.0533363 0.0396174 0.047957 0.0436845 0.0710813 0.10575 0.0560398 0.0707845 0.0528009 0.074077 0.068769
97 3 O -2.0185 17.6786 3.18632 -1.2 1 0.021593 0.00740552 0.0198995 0.018072 0.0175397 0.0376848 0.0419188 0.0553001 0.0414539 0.0539698 0.0533579 0.0492013 0.0560818 0.048773 0.0817485 0.0596017 0.0695842 0.0663765 0.0644056 0.0681885
98 3 O -2.06164 17.6786 5.78248 -1.2 1 0.0135043 0.00999329 0.0225617 0.0234338 0.0165837 0.0268609 0.0503861 0.0451525 0.0380153 0.0382086 0.0564199 0.037868 0.0564754 0.059336 0.0826315 0.0692064 0.0694227 0.0632555 0.0683483 0.0771324
99 1 Mg 1.39817 16.6215 2.9896 1.2 1 0.00617032 0.0163736 0.0191441 0.0226111 0.0182239 0.0359423 0.0373157 0.0530647 0.0368383 0.0595003 0.0358062 0.0565532 0.0235783 0.0671676 0.0470956 0.0805418 0.0492416 0.0913055 0.0450857 0.0888355
100 1 Mg 4.20062 16.5802 4.4844 1.2 1 0.0136212 0.0122788 0.0153171 0.0250638 0.0258475 0.0297923 0.040581 0.0350697 0.0468661 0.0530059 0.0538034 0.0556679 0.0687327 0.0680835 0.0532226 0.0725129 0.0696274 0.0970076 0.0746194 0.0797842
101 2 Si 2.37796 18.645 4.4844 2.4 1 0.0214068 0.0120302 0.024449 0.0250366 0.0237755 0.0377618 0.0603527 0.0319384 0.0558267 0.0583272 0.0510467 0.0611332 0.0605799 0.0554461 0.0742704 0.0683533 0.0452555 0.0993904 0.0528924 0.0564508
102 3 O 2.39434 20.2583 4.4844 -1.2 1 0.0208844 0.013591 0.00640973 0.0166695 0.0253883 0.0226926 0.0428733 0.0601809 0.044051 0.0522685 0.0414962 0.07239 0.0492639 0.0619284 0.0705824 0.0694202 0.0483047 0.0679048 0.0646247 0.0789872
103 3 O -4.24274 17.671 4.4844 -1.2 1 0.0179765 0.0221825 0.0209237 0.0186462 0.0208244 0.0486735 0.034507 0.0491905 0.0439464 0.0539364 0.0387204 0.0517874 0.0491026 0.0704027 0.100406 0.0617661 0.0756317 0.0542242 0.0776131 0.0711567
104 3 O 3.08659 17.9389 3.18632 -1.2 1 0.0282899 0.0129548 0.0217069 0.0111435 0.0171655 0.0384695 0.0371172 0.0556419 0.0433162 0.0521141 0.055631 0.0481017 0.0519043 0.0496866 0.080677 0.0584866 0.0675859 0.0603188 0.0647365 0.0692264
105 1 Mg 1.44478 16.6215 0 1.2 1 0.00949831 0.0121126 0.0217168 0.0127382 0.0267055 0.0315795 0.0479608 0.035472 0.0507061 0.0505102 0.0518052 0.0397128 0.0586308 0.0493662 0.0697833 0.0660388 0.0602698 0.0676976 0.0885545 0.0639005
106 3 O 3.0436 17.9389 5.78248 -1.2 1 0.0145769 0.013296 0.0186621 0.0231973 0.020137 0.0243514 0.049483 0.0468356 0.0411294 0.0401752 0.0575128 0.0375756 0.0560092 0.0609901 0.0876064 0.0643619 0.0692944 0.061437 0.0649952 0.0789635
107 1 Mg -1.40524 16.6628 1.4948 1.2 1 0.0116066 0.0125176 0.0257275 0.0176803 0.0173717 0.034466 0.0360701 0.0426709 0.0413767 0.0604226 0.0404641 0.0625879 0.0548654 0.0644987 0.0739247 0.069255 0.0643301 0.0778957 0.0782476 0.0759357
108 2 Si 0.420358 14.5979 1.4948 2.4 1 0.0225351 0.0192264 0.0289593 0.0259798 0.0176475 0.0385456 0.0390923 0.0418817 0.0442133 0.0549899 0.0426779 0.0615802 0.0577785 0.0633214 0.0671087 0.0591265 0.0720004 0.0766515 0.0625602 0.0713288
109 3 O 0.408732 12.9847 1.4948 -1.2 1 0.0222381 0.0154938 0.0229009 0.0256442 0.0167737 0.0471726 0.0437893 0.0539031 0.0361656 0.0527626 0.0422621 0.0692062 0.0532653 0.056957 0.0660039 0.0635025 0.0713809 0.0550376 0.0682838 0.0717549
110 3 O 7.03923 15.572 1.4948 -1.2 1 0.029306 0.0168655 0.0217772 0.0128173 0.0361115 0.0336265 0.0368396 0.0561394 0.0383567 0.0444219 0.0512097 0.0531358 0.0480314 0.0742815 0.0781459 0.0782932 0.0642782 0.0695852 0.0622988 0.0775998
111 3 O -0.248332 15.3041 0.196716 -1.2 1 0.0190013 0.0130218 0.0212276 0.0183303 0.0251901 0.0464404 0.048785 0.0430261 0.0391489 0.0446873 0.0379189 0.0306911 0.0607781 0.0541002 0.0700068 0.0642631 0.0832825 0.0503105 0.0702163 0.0722794
112 3 O -0.289436 15.3041 2.79288 -1.2 1 0.0143131 0.0174 0.0292104 0.0109561 0.0311729 0.0358274 0.0439898 0.0472203 0.0435715 0.0403569 0.0544225 0.0484072 0.0512326 0.0530141 0.0725342 0.0697732 0.0714988 0.0550833 0.0691165 0.0762973
113 1 Mg 6.59566 18.996 0 1.2 1 0.0138303 0.0116547 0.019894 0.0144122 0.0260182 0.0316853 0.043074 0.0330402 0.0539309 0.0492297 0.0539425 0.0390142 0.0522234 0.052892 0.0721519 0.0645792 0.0641167 0.0648451 0.086109 0.0707644
114 1 Mg 3.85574 23.7037 1.4948 1.2 1 0.010719 0.0126548 0.0212007 0.0140571 0.0225896 0.0288351 0.0312179 0.0372027 0.0389735 0.0601476 0.0468721 0.0625986 0.0499946 0.0669058 0.0647573 0.0724341 0.0663807 0.0798064 0.0799343 0.0758766
115 2 Si 5.66125 21.0195 1.4948 2.4 1 0.00859999 0.022754 0.0247692 0.0274149 0.0200485 0.0457645 0.0337896 0.0434166 0.0473649 0.0540214 0.0443352 0.0615084 0.0556869 0.0598165 0.0708992 0.0606498 0.0733403 0.0773787 0.0648928 0.0752405
116 3 O 5.72074 22.6328 1.4948 -1.2 1 0.0282043 0.0191858 0.0183054 0.0228015 0.0191168 0.0447205 0.0454718 0.0618913 0.0381827 0.0520365 0.0329072 0.0698186 0.0493464 0.0535887 0.0681763 0.0557622 0.0650579 0.0678924 0.0563207 0.0712443
117 3 O 2.03867 20.0455 1.4948 -1.2 1 0.0300343 0.0164965 0.0267497 0.0159448 0.0341879 0.0300441 0.0359425 0.0553091 0.0439955 0.0427154 0.0505629 0.0504868 0.0477779 0.0737959 0.0848156 0.0726154 0.061795 0.0679277 0.0636334 0.0732667
118 3 O 4.96004 20.3134 0.196716 -1.2 1 0.021106 0.0103823 0.0229117 0.0187865 0.0232482 0.045322 0.0439332 0.0479258 0.0389409 0.0399139 0.0411058 0.034315 0.0646474 0.0476353 0.0696319 0.0728625 0.0715324 0.0581244 0.0716002 0.0720757
119 1 Mg 6.55057 18.996 2.9896 1.2 1 0.00932045 0.0173279 0.0205851 0.0213745 0.0210628 0.0340636 0.0372143 0.0553131 0.0341454 0.0596528 0.0345508 0.0622802 0.0225564 0.0700474 0.0448143 0.0736758 0.0460123 0.0953764 0.043468 0.0933064
120 3 O 4.92172 20.3134 2.79288 -1.2 1 0.00990578 0.0114609 0.0312946 0.0150962 0.0300717 0.0398217 0.0461003 0.0456975 0.0473481 0.0427261 0.0525752 0.0404391 0.0536347 0.0538181 0.076848 0.0675616 0.0761494 0.0482832 0.0717064 0.0719023
121 1 Mg -0.84282 19.0373 4.4844 1.2 1 0.0145249 0.0124544 0.0140458 0.0280029 0.0234393 0.0271659 0.0371879 0.0322507 0.0452704 0.0492306 0.0595382 0.0570937 0.0668722 0.0688979 0.0586919 0.0725475 0.0713179 0.0935914 0.0736178 0.0829549
122 2 Si -2.64823 21.7214 4.4844 2.4 1 0.0198277 0.0128334 0.0169932 0.0278497 0.0285843 0.0409825 0.0566322 0.0315859 0.0547321 0.0624871 0.0520857 0.0643158 0.0600831 0.0547223 0.0766265 0.0723567 0.0458402 0.0937767 0.0534198 0.0647806
123 3 O -2.70847 20.1082 4.4844 -1.2 1 0.0128337 0.017513 0.0158048 0.0259292 0.02602 0.0238873 0.0410652 0.0650778 0.0447544 0.0494302 0.0390572 0.0706843 0.0508208 0.058155 0.0674048 0.065835 0.0513696 0.0717915 0.0658292 0.0764644
124 3 O 0.97581 22.6955 4.4844 -1.2 1 0.0152447 0.0255596 0.0201465 0.0170883 0.0197293 0.0416036 0.0312857 0.0515684 0.0453651 0.0547268 0.0397272 0.046838 0.0456766 0.0721076 0.107504 0.052099 0.067474 0.0551591 0.0744141 0.0661392
125 3 O -1.9076 22.4276 3.18632 -1.2 1 0.0218491 0.00809135 0.0209845 0.0163517 0.013534 0.0368256 0.0439435 0.0556188 0.0373795 0.0501719 0.0547065 0.0486507 0.0561356 0.0481259 0.0807175 0.0578319 0.0690508 0.0662255 0.0626292 0.0656903
126 3 O -1.9475 22.4276 5.78248 -1.2 1 0.0134373 0.00990295 0.0227138 0.0227309 0.0166175 0.0263204 0.0495096 0.0449002 0.0373497 0.0379276 0.0571327 0.0384943 0.0558037 0.0588671 0.0825297 0.068702 0.0692731 0.0632746 0.0674461 0.0769047