ITEM: TIMESTEP
32400
ITEM: NUMBER OF ATOMS
10500
ITEM: BOX BOUNDS xy xz yz pp pp pp
0	15.2977	5.09925
0	118.725	0
0	89.688	0
ITEM: ATOMS id type element xu yu zu q Q_1 Q_2 Q_3 Q_4 Q_5 Q_6 Q_7 Q_8 Q_9 Q_10 Q_11 Q_12 Q_13 Q_14 Q_15 Q_16 Q_17 Q_18 Q_19 Q_20 Q_21
1 1 Mg 6.2404 -6.37941e-06 0 1.2 1 0.0131845 0.040818 0.0297958 0.0358078 0.0333281 0.0414299 0.0355299 0.0687215 0.0388296 0.0713325 0.0337078 0.0592713 0.0461853 0.0685444 0.0500319 0.0922874 0.0515304 0.0838685 0.0509921 0.102362
2 1 Mg 3.46349 4.70768 1.4948 1.2 1 0.0169354 0.0168267 0.0243117 0.0215262 0.0202547 0.0421365 0.0419836 0.0401317 0.0459477 0.0554689 0.0428215 0.0706224 0.0577096 0.0708381 0.0715348 0.0645034 0.0678944 0.0857664 0.0726989 0.0818346
3 2 Si 5.2885 2.02354 1.4948 2.4 1 0.0219391 0.0222929 0.0367095 0.0256246 0.0310192 0.036703 0.0533757 0.0334929 0.0442707 0.0518847 0.0559174 0.0615615 0.0556928 0.0637886 0.0682228 0.079098 0.0709944 0.0650494 0.0631464 0.0732088
4 3 O 5.33628 3.63678 1.4948 -1.2 1 0.00932024 0.0140835 0.0268351 0.0259039 0.0183261 0.0390124 0.0418384 0.0602943 0.0354423 0.0404812 0.0545618 0.0509351 0.0675123 0.0573575 0.0587515 0.0650661 0.0600714 0.0615666 0.0712811 0.0744213
5 3 O 1.67294 1.04952 1.4948 -1.2 1 0.016349 0.0219073 0.0235954 0.035396 0.0296942 0.0385776 0.0342994 0.0602251 0.0350602 0.0587873 0.0443506 0.0513764 0.0718444 0.0597705 0.0761582 0.0691292 0.0632361 0.0647645 0.0797344 0.0604997
6 3 O 4.59532 1.31737 0.196716 -1.2 1 0.0259288 0.0221621 0.0575698 0.0252434 0.0334414 0.0485953 0.0384965 0.0472109 0.0338646 0.0392943 0.0386653 0.0504577 0.0543263 0.0571944 0.0634745 0.0701307 0.0620344 0.0716616 0.0593208 0.0707587
7 1 Mg 6.18956 -6.37941e-06 2.9896 1.2 1 0.0156281 0.0286242 0.0158443 0.0214188 0.0367434 0.0446578 0.0504318 0.0429284 0.0481056 0.0453317 0.038763 0.0563767 0.0389651 0.0557162 0.0590257 0.0809065 0.0565925 0.0701549 0.058863 0.0698438
8 3 O 4.55118 1.31737 2.79288 -1.2 1 0.022175 0.0248649 0.03701 0.0169642 0.026904 0.0442631 0.0445431 0.048183 0.0446653 0.0521609 0.0539455 0.0512265 0.0469185 0.0671783 0.053124 0.067068 0.0644683 0.0663139 0.0649596 0.0723958
9 1 Mg -1.20682 0.0413099 4.4844 1.2 1 0.0164774 0.0262331 0.0206245 0.0284616 0.038571 0.0411088 0.0325755 0.0537559 0.0534401 0.0384487 0.0478302 0.0585945 0.0673926 0.0596367 0.0754996 0.061253 0.0807795 0.0750877 0.0658331 0.0533902
10 2 Si -3.0337 2.72544 4.4844 2.4 1 0.0320569 0.0168213 0.0234664 0.0171621 0.0291489 0.0375135 0.0608399 0.0347111 0.0620229 0.0509397 0.0466044 0.0571591 0.0572041 0.0739983 0.0536143 0.059673 0.0720204 0.0781905 0.0744278 0.059729
11 3 O -3.08099 1.11221 4.4844 -1.2 1 0.0104766 0.0265432 0.0254806 0.0274049 0.0403528 0.0285151 0.0490969 0.0489962 0.0380597 0.0375796 0.0386542 0.0720918 0.0544316 0.0522483 0.0541065 0.068964 0.0542428 0.0801838 0.0718643 0.0783456
12 3 O 0.582463 3.69946 4.4844 -1.2 1 0.00681463 0.0125461 0.0315699 0.0281131 0.0289075 0.062847 0.0292319 0.0561779 0.0435669 0.0408882 0.0521982 0.0552702 0.0566146 0.070624 0.0984804 0.0714894 0.0801746 0.0423761 0.069255 0.0679011
13 3 O -2.29524 3.43162 3.18632 -1.2 1 0.012795 0.0200684 0.0247098 0.0315408 0.0196262 0.0497845 0.0515255 0.0494776 0.0409647 0.0540155 0.0601374 0.0540895 0.0402369 0.0523037 0.0591568 0.0641295 0.0669114 0.0617916 0.0645617 0.07214
14 3 O -2.34216 3.43162 5.78248 -1.2 1 0.0227761 0.00741024 0.0260143 0.0258966 0.0253121 0.0398303 0.0531257 0.0477408 0.0400966 0.0537439 0.055164 0.0481321 0.051633 0.0504728 0.0745968 0.0721758 0.0640571 0.066763 0.071259 0.0725489
15 1 Mg 1.12778 2.37449 2.9896 1.2 1 0.015244 0.0402928 0.0176608 0.0242093 0.0265776 0.0426106 0.041084 0.0501425 0.0371777 0.0604972 0.038207 0.0586281 0.0402988 0.0662421 0.0643983 0.0693807 0.0680678 0.0813916 0.0442977 0.0884763
16 1 Mg 3.92855 2.33318 4.4844 1.2 1 0.0258711 0.0166867 0.0263232 0.0316844 0.0445555 0.0262745 0.0362608 0.0394939 0.0470596 0.0674859 0.0521207 0.0600071 0.051927 0.062463 0.0548215 0.0758626 0.0624922 0.0945829 0.0742425 0.0839255
17 2 Si 2.09341 4.39804 4.4844 2.4 1 0.0114451 0.0207955 0.0330545 0.0157308 0.040854 0.0258513 0.0638511 0.0213098 0.0436009 0.0485597 0.062429 0.0609113 0.0670809 0.0582048 0.0733258 0.0731942 0.0683986 0.0799361 0.0526885 0.0669633
18 3 O 2.09991 6.01128 4.4844 -1.2 1 0.00901915 0.0130421 0.0177398 0.0185354 0.035608 0.0220753 0.0530104 0.0525095 0.0477407 0.0465811 0.0460952 0.0671334 0.0440761 0.0620847 0.0637149 0.0741446 0.0449466 0.0780532 0.0610727 0.0724905
19 3 O -4.52137 3.42402 4.4844 -1.2 1 0.0196838 0.0310597 0.0343019 0.0217836 0.0251607 0.0555333 0.034148 0.0502526 0.0556903 0.0558355 0.0307291 0.0580266 0.0513292 0.0538969 0.088171 0.0731853 0.0755154 0.0606189 0.0728371 0.0562145
20 3 O 2.80834 3.69187 3.18632 -1.2 1 0.0129751 0.0178393 0.021067 0.025478 0.0243846 0.0388003 0.034852 0.050179 0.0442871 0.0563468 0.0664395 0.0507889 0.0416057 0.0630345 0.0691438 0.0738115 0.0615833 0.0565205 0.0728587 0.0715771
21 1 Mg 1.17857 2.37449 0 1.2 1 0.0149121 0.0342052 0.0286156 0.0274484 0.0376554 0.0379839 0.0432143 0.0590893 0.036212 0.0491029 0.0515241 0.0416733 0.0419046 0.0673648 0.0565349 0.0642771 0.0620801 0.0804133 0.0588467 0.0730268
22 3 O 2.76143 3.69187 5.78248 -1.2 1 0.0097425 0.0184191 0.0221646 0.026189 0.0209081 0.0335592 0.0370388 0.0482396 0.035322 0.0455737 0.0580551 0.0418802 0.054752 0.0772576 0.0745267 0.0658317 0.0733334 0.0573586 0.0705517 0.0753656
23 1 Mg -1.67381 2.41581 1.4948 1.2 1 0.0103844 0.0082579 0.0391034 0.0353225 0.0318826 0.0437832 0.0588397 0.0390221 0.0514214 0.0413304 0.0436242 0.0573978 0.0545475 0.0640074 0.0610854 0.0638281 0.0839485 0.0778775 0.0670508 0.0743754
24 2 Si 0.16286 0.350945 1.4948 2.4 1 0.0154971 0.0351896 0.0297686 0.0242079 0.0363829 0.0359616 0.0561609 0.048777 0.0527768 0.0495243 0.0406638 0.0537202 0.0747909 0.0704614 0.0577212 0.0735907 0.0702625 0.0644423 0.0729879 0.0664171
25 3 O 0.15972 -1.26229 1.4948 -1.2 1 0.00916559 0.0153039 0.0397048 0.0213547 0.0376563 0.03597 0.045507 0.0569879 0.0468269 0.0514085 0.0556628 0.0553747 0.0630512 0.0663367 0.0499065 0.0596403 0.0695414 0.066137 0.0627097 0.0743243
26 3 O 6.77654 1.32496 1.4948 -1.2 1 0.0114315 0.0277509 0.0266606 0.0277221 0.0372855 0.0544569 0.0343485 0.06464 0.0476434 0.0467271 0.0443428 0.0525511 0.0523612 0.0593189 0.0687032 0.071568 0.0847288 0.0630651 0.059792 0.0747718
27 3 O -0.508028 1.05712 0.196716 -1.2 1 0.026926 0.0160198 0.0321758 0.0187352 0.0294881 0.0548268 0.0445281 0.0456667 0.045982 0.0487805 0.0498686 0.0476089 0.0504405 0.0637648 0.0559621 0.0644343 0.0634791 0.060084 0.0722469 0.0718788
28 3 O -0.552171 1.05712 2.79288 -1.2 1 0.0395313 0.0265917 0.0409332 0.0326352 0.0258175 0.0452228 0.0412833 0.0470721 0.0411121 0.0381576 0.0480722 0.0493536 0.0593523 0.0611903 0.0652695 0.0760448 0.0694691 0.0498535 0.0705501 0.0719402
29 1 Mg 6.31713 4.74899 0 1.2 1 0.027173 0.029125 0.0301225 0.0366301 0.0328318 0.0264475 0.0422828 0.055857 0.0587815 0.0492987 0.0511002 0.0387889 0.0596252 0.0620279 0.0660857 0.0639496 0.0654653 0.0741344 0.0687788 0.0706933
30 1 Mg 3.54847 9.45668 1.4948 1.2 1 0.021745 0.0144655 0.0179159 0.0204228 0.0182902 0.0382362 0.0382168 0.0417368 0.0448729 0.0554627 0.0385866 0.0691525 0.0522412 0.0657698 0.0713734 0.0634571 0.0668727 0.0871736 0.0739256 0.0790098
31 2 Si 5.36879 6.77254 1.4948 2.4 1 0.0260215 0.0295549 0.0213065 0.0264334 0.0246451 0.0349574 0.0445975 0.034695 0.0459857 0.0586793 0.0425395 0.0576658 0.0524673 0.0675094 0.0653259 0.075058 0.0669914 0.0782141 0.0564573 0.0682996
32 3 O 5.41937 8.38578 1.4948 -1.2 1 0.0215458 0.0113834 0.0234901 0.0295639 0.0176105 0.043155 0.0440899 0.0572971 0.0363698 0.0506454 0.0474876 0.0642101 0.0550896 0.0537459 0.0664218 0.0610964 0.0725937 0.0562031 0.073047 0.0731571
33 3 O 1.75158 5.79852 1.4948 -1.2 1 0.0284951 0.0123475 0.0223198 0.0266156 0.0441959 0.0305998 0.0391986 0.057299 0.0407476 0.0528038 0.0495338 0.050322 0.0471887 0.0710831 0.0786063 0.0780557 0.0600931 0.0751976 0.0599135 0.0764535
34 3 O 4.67421 6.06637 0.196716 -1.2 1 0.0145987 0.0264737 0.0317046 0.0245845 0.0318656 0.0377706 0.0347678 0.0321017 0.044652 0.0561603 0.0392335 0.0441229 0.0664283 0.0565791 0.0677357 0.0712642 0.0718363 0.0653772 0.0634417 0.0690718
35 1 Mg 6.26654 4.74899 2.9896 1.2 1 0.0197469 0.0261118 0.0238788 0.044364 0.0247006 0.0444228 0.0481373 0.0472905 0.0363234 0.0625229 0.0367553 0.0609396 0.0367203 0.064364 0.0510378 0.0787085 0.055812 0.0838231 0.0465065 0.0907599
36 3 O 4.63043 6.06637 2.79288 -1.2 1 0.0189934 0.0201524 0.0418103 0.018946 0.0320154 0.0369787 0.0428365 0.0491047 0.0452673 0.0370225 0.0489672 0.0531988 0.0573642 0.0647892 0.0622111 0.0731283 0.0656397 0.0688345 0.0672355 0.085268
37 1 Mg -1.12976 4.79031 4.4844 1.2 1 0.0228724 0.0257726 0.0125589 0.0129546 0.0366978 0.0378311 0.0475753 0.0496894 0.0448229 0.0451181 0.0542332 0.0591658 0.0767769 0.071678 0.0588035 0.0671569 0.0699473 0.0953672 0.0729076 0.0810039
38 2 Si -2.9517 7.47444 4.4844 2.4 1 0.0232964 0.014128 0.0172258 0.0263548 0.0311271 0.0427123 0.062222 0.0282714 0.0538731 0.0566812 0.052224 0.0587136 0.0642867 0.0560166 0.0794025 0.071329 0.0542151 0.0875425 0.0557186 0.0603661
39 3 O -3.00198 5.86121 4.4844 -1.2 1 0.014764 0.0235924 0.0293125 0.0282284 0.0307642 0.0300576 0.0536119 0.0596733 0.039343 0.0529866 0.0476006 0.069594 0.058654 0.0549082 0.0660243 0.0686128 0.0500767 0.0774098 0.0626991 0.0758164
40 3 O 0.666315 8.44846 4.4844 -1.2 1 0.0157496 0.0201874 0.0230801 0.0159777 0.0237833 0.0551505 0.0307532 0.0521183 0.0413541 0.0461854 0.0415694 0.0493025 0.0486429 0.0751882 0.101751 0.0666906 0.0791599 0.0482959 0.0702957 0.0700085
41 3 O -2.21213 8.18062 3.18632 -1.2 1 0.013629 0.0135954 0.0168058 0.0153755 0.0160781 0.0369503 0.0463971 0.0565123 0.045873 0.0535635 0.0539832 0.0505739 0.0537669 0.0473707 0.0783594 0.0642065 0.0716151 0.0588679 0.0664491 0.0713462
42 3 O -2.25864 8.18062 5.78248 -1.2 1 0.0181289 0.0179053 0.0173372 0.0193755 0.0180135 0.0267107 0.0491647 0.0475381 0.0391447 0.0403797 0.0538832 0.0392461 0.0571921 0.0571043 0.0861441 0.068303 0.0679705 0.0625291 0.0696748 0.0751647
43 1 Mg 1.20893 7.12349 2.9896 1.2 1 0.00490584 0.022336 0.0200165 0.0264222 0.0240646 0.0413892 0.0417973 0.0458745 0.0344339 0.0650339 0.0390794 0.0672009 0.0343092 0.0580764 0.0518114 0.079868 0.0514345 0.0838975 0.0480335 0.0876462
44 1 Mg 4.00982 7.08218 4.4844 1.2 1 0.0202298 0.0159467 0.0264703 0.0370426 0.0329493 0.034847 0.0451868 0.0373713 0.045505 0.0509275 0.0587078 0.0547438 0.0720505 0.0738504 0.0578978 0.0675329 0.0663789 0.0985662 0.0743377 0.0808881
45 2 Si 2.17861 9.14704 4.4844 2.4 1 0.0265036 0.0102957 0.0232379 0.0243242 0.0345147 0.0315098 0.0625997 0.0233935 0.0492775 0.0556426 0.0553013 0.0597607 0.0643486 0.0566978 0.0771077 0.0683587 0.0517839 0.0941176 0.0563483 0.0576233
46 3 O 2.18828 10.7603 4.4844 -1.2 1 0.0222883 0.0130724 0.0031687 0.0191559 0.0258489 0.0226899 0.0441405 0.0600441 0.0391582 0.0533971 0.039921 0.0708186 0.0457218 0.062353 0.0699231 0.0708798 0.0481668 0.07267 0.0617743 0.070183
47 3 O -4.43805 8.17302 4.4844 -1.2 1 0.0159545 0.019876 0.0183372 0.0180289 0.0235332 0.052627 0.0351845 0.051672 0.0468383 0.0474411 0.0342111 0.0550836 0.0520876 0.0720519 0.0982208 0.06557 0.0810336 0.0525266 0.0728124 0.0730466
48 3 O 2.89193 8.44087 3.18632 -1.2 1 0.0179943 0.0158942 0.0188124 0.0147909 0.0219207 0.0414497 0.0340284 0.0559483 0.0433892 0.0512558 0.058581 0.0490836 0.0516707 0.0524458 0.0804273 0.0633084 0.0699137 0.0599966 0.0641453 0.0737009
49 1 Mg 1.25915 7.12349 0 1.2 1 0.0190165 0.0175125 0.0283242 0.0147832 0.0318061 0.0247236 0.0499725 0.0399186 0.056055 0.049525 0.0537449 0.0426666 0.0709128 0.05132 0.0683487 0.0705838 0.0637356 0.0710182 0.079284 0.0590794
50 3 O 2.84547 8.44087 5.78248 -1.2 1 0.0101789 0.0124456 0.0176459 0.0217364 0.0206206 0.0294265 0.0431437 0.0491261 0.0386679 0.0418941 0.0584485 0.0431437 0.0594595 0.0616064 0.0882658 0.0675241 0.0712 0.0638456 0.067511 0.0758095
51 1 Mg -1.59284 7.16481 1.4948 1.2 1 0.00982242 0.0163081 0.0205504 0.0203731 0.0150613 0.0371634 0.0463591 0.0428235 0.0437022 0.0579532 0.0393269 0.0657022 0.0521615 0.0687882 0.0755271 0.0604608 0.0674892 0.0846527 0.0736972 0.0785167
52 2 Si 0.240329 5.09994 1.4948 2.4 1 0.0216459 0.0203436 0.0145683 0.0439205 0.027174 0.0409719 0.0469411 0.0519331 0.0551778 0.049509 0.0455937 0.0569837 0.0579909 0.0690746 0.0651398 0.0680507 0.0643351 0.0721935 0.0657606 0.0683625
53 3 O 0.234538 3.48671 1.4948 -1.2 1 0.013044 0.0160718 0.0266499 0.0355697 0.0317432 0.0492929 0.0458246 0.0422329 0.0528527 0.0462659 0.0526549 0.0616318 0.0564284 0.0609491 0.0619846 0.0622861 0.0635361 0.0570682 0.0760895 0.0737016
54 3 O 6.85564 6.07396 1.4948 -1.2 1 0.0324268 0.0194783 0.0344107 0.0276555 0.0373078 0.0406359 0.0322402 0.0625776 0.0364212 0.0535039 0.0539755 0.0539117 0.0552359 0.0729207 0.0695067 0.0772906 0.0668007 0.0720314 0.0529475 0.0851265
55 3 O -0.429565 5.80612 0.196716 -1.2 1 0.0339942 0.0199874 0.0159176 0.0212807 0.0409367 0.0374857 0.0539018 0.0451836 0.0460184 0.0564186 0.0397488 0.0419172 0.0533052 0.0602353 0.0598649 0.0681975 0.070501 0.0609451 0.0652977 0.0743448
56 3 O -0.473377 5.80612 2.79288 -1.2 1 0.0296595 0.0207321 0.0296498 0.0195019 0.0335482 0.0462597 0.0484281 0.0509709 0.0527087 0.0468708 0.0627955 0.0392423 0.0429779 0.0562729 0.0653461 0.0708121 0.0633865 0.0676478 0.0693524 0.0823147
57 1 Mg 6.40169 9.49799 0 1.2 1 0.0127203 0.0117334 0.0213299 0.0141798 0.0305545 0.0212667 0.0521697 0.0354549 0.058592 0.0491103 0.0496961 0.0355269 0.0670265 0.052613 0.0711735 0.0672464 0.0653192 0.0705773 0.080724 0.0686041
58 1 Mg 3.64209 14.2057 1.4948 1.2 1 0.0062039 0.0139915 0.0175847 0.0195599 0.0218629 0.0341379 0.0367328 0.0429903 0.0403295 0.0546237 0.0390552 0.0685494 0.0543094 0.066667 0.0744553 0.0630003 0.0641164 0.0832022 0.0750262 0.0781516
59 2 Si 5.45748 11.5215 1.4948 2.4 1 0.0119634 0.0217821 0.0232965 0.0247202 0.0180786 0.0402334 0.0396842 0.0400221 0.0434551 0.0544764 0.0424651 0.0601788 0.0535323 0.0663032 0.0694975 0.0635591 0.0709112 0.0816588 0.05803 0.0667631
60 3 O 5.51101 13.1348 1.4948 -1.2 1 0.024263 0.0133602 0.0222834 0.0295104 0.0197474 0.0433043 0.0444621 0.059119 0.0364131 0.0496919 0.0427292 0.0671385 0.0531546 0.053646 0.0656703 0.0596096 0.0707565 0.0580776 0.0691544 0.0720828
61 3 O 1.83851 10.5475 1.4948 -1.2 1 0.0395818 0.0145107 0.019785 0.0110521 0.0362022 0.0310626 0.0369367 0.0577706 0.0393271 0.0475504 0.0498705 0.0512559 0.0476273 0.0741329 0.0755261 0.0785571 0.0571436 0.0762386 0.0576645 0.0781213
62 3 O 4.7611 10.8154 0.196716 -1.2 1 0.0293772 0.023209 0.0226855 0.0193678 0.0276274 0.0444192 0.0474276 0.036395 0.0362579 0.0466965 0.0383918 0.0389725 0.0593784 0.0592301 0.0638708 0.0692639 0.0753319 0.0650405 0.0726699 0.0694658
63 1 Mg 6.35203 9.49799 2.9896 1.2 1 0.0142868 0.0155608 0.0251012 0.0230819 0.019893 0.0384374 0.0372904 0.0506481 0.0349038 0.059249 0.0316413 0.0656298 0.0263217 0.0663004 0.0465222 0.0811924 0.0462086 0.0894727 0.0456046 0.0916808
64 3 O 4.71833 10.8154 2.79288 -1.2 1 0.0287237 0.0101964 0.0286049 0.0131927 0.0286713 0.0442491 0.0440737 0.0457056 0.0417397 0.0362289 0.0530611 0.0429131 0.0532394 0.0547369 0.0730421 0.068315 0.0735948 0.0600525 0.069418 0.079393
65 1 Mg -1.0438 9.53931 4.4844 1.2 1 0.00814692 0.0172079 0.0191383 0.0258078 0.0305404 0.0274268 0.0410506 0.0322316 0.0463207 0.0498797 0.0559394 0.0559085 0.0654401 0.0703082 0.0588112 0.0672488 0.0717984 0.0986143 0.0731742 0.0844247
66 2 Si -2.8604 12.2234 4.4844 2.4 1 0.0155698 0.0134846 0.0167192 0.026338 0.0317258 0.0413936 0.0596895 0.0292442 0.0517809 0.0657054 0.0522479 0.0604614 0.0590643 0.0534244 0.0796549 0.0719737 0.0512303 0.0914695 0.0568974 0.0616162
67 3 O -2.91391 10.6102 4.4844 -1.2 1 0.0192112 0.0140325 0.00761239 0.02309 0.0293704 0.023901 0.0453403 0.0630304 0.0392709 0.0483173 0.0365804 0.0713529 0.0465374 0.059615 0.0670434 0.0701991 0.0489719 0.076998 0.0631026 0.0748526
68 3 O 0.7596 13.1975 4.4844 -1.2 1 0.0198663 0.0201774 0.0211142 0.0130948 0.0228698 0.0503292 0.0323863 0.0511885 0.0440198 0.0494451 0.0396816 0.0486418 0.0490363 0.0746481 0.0997897 0.0632036 0.0750064 0.0541711 0.0720661 0.0713138
69 3 O -2.12001 12.9296 3.18632 -1.2 1 0.0209932 0.0120788 0.0186796 0.0175184 0.0211791 0.036311 0.0415911 0.053244 0.0467864 0.0518349 0.0530566 0.0507028 0.0548712 0.0480651 0.0799151 0.0631636 0.0711676 0.0633277 0.0673573 0.0694652
70 3 O -2.16532 12.9296 5.78248 -1.2 1 0.012119 0.00993263 0.0218747 0.0204246 0.0166131 0.0301469 0.0480345 0.0484882 0.0391587 0.0379498 0.0551252 0.0400998 0.0602323 0.0620968 0.0875236 0.0702569 0.0726319 0.0653702 0.070629 0.0747001
71 1 Mg 1.29891 11.8725 2.9896 1.2 1 0.00642491 0.0160329 0.0217728 0.0222901 0.0178874 0.0383371 0.0367001 0.0506594 0.0344695 0.0595783 0.0332849 0.0596306 0.0253856 0.0682082 0.0488465 0.0827346 0.0486034 0.0899492 0.0480229 0.0858085
72 1 Mg 4.10033 11.8312 4.4844 1.2 1 0.0127151 0.0210076 0.020004 0.0283432 0.0320695 0.0299062 0.0439311 0.0325175 0.0473546 0.0504137 0.0529835 0.0544142 0.0654572 0.0708956 0.0520191 0.0690071 0.070831 0.0974633 0.0753703 0.0798064
73 2 Si 2.27333 13.896 4.4844 2.4 1 0.0252938 0.00408779 0.0258488 0.0261001 0.0274839 0.0369852 0.0617572 0.0316801 0.0542195 0.0564318 0.0527499 0.0635886 0.063657 0.058144 0.0750968 0.0679028 0.0464981 0.0967054 0.0506667 0.0580851
74 3 O 2.28634 15.5093 4.4844 -1.2 1 0.0258631 0.0147948 0.00809887 0.0214111 0.0247284 0.0218165 0.0424342 0.0594845 0.042526 0.0528437 0.0403108 0.0696393 0.0474376 0.0646865 0.0691283 0.0688614 0.0476123 0.0690617 0.0646724 0.0732304
75 3 O -4.34533 12.922 4.4844 -1.2 1 0.015961 0.0185073 0.0211555 0.0176477 0.0209589 0.0523606 0.0361575 0.0496027 0.0431419 0.0531487 0.0388296 0.053546 0.0500821 0.0718088 0.100704 0.0685813 0.0769529 0.0519492 0.0749363 0.0727453
76 3 O 2.98455 13.1899 3.18632 -1.2 1 0.0267317 0.0144322 0.0176522 0.0105792 0.0188674 0.0410434 0.0381389 0.0558428 0.0464705 0.0519898 0.0558726 0.0488957 0.0501938 0.0501384 0.0808557 0.0618571 0.0654937 0.0609409 0.0664293 0.0709604
77 1 Mg 1.34779 11.8725 0 1.2 1 0.0217145 0.00899726 0.0220306 0.0145581 0.0287379 0.0227271 0.0516053 0.0348844 0.0576716 0.0508536 0.0497726 0.035177 0.0650666 0.0499091 0.0706922 0.0645026 0.0615459 0.0701054 0.0871407 0.0600343
78 3 O 2.93934 13.1899 5.78248 -1.2 1 0.0215155 0.0143192 0.0174238 0.0200033 0.0184483 0.0247295 0.0482147 0.0477984 0.0424141 0.0404938 0.0598 0.0348481 0.0570187 0.0555443 0.0892983 0.0658366 0.0681032 0.0639439 0.0639986 0.0792743
79 1 Mg -1.50344 11.9138 1.4948 1.2 1 0.0129436 0.0179182 0.0229451 0.0205098 0.0117778 0.0369482 0.0381962 0.0425244 0.0413353 0.0600379 0.0352542 0.0649523 0.0505144 0.0647532 0.0749498 0.0677746 0.0642439 0.0841653 0.0759679 0.0786825
80 2 Si 0.326006 9.84894 1.4948 2.4 1 0.0249929 0.0191804 0.0249418 0.0303918 0.0172998 0.0386854 0.0442786 0.0376518 0.045164 0.0561974 0.0403974 0.059561 0.0551516 0.0669187 0.0612464 0.063481 0.0701789 0.0794545 0.0615517 0.0685711
81 3 O 0.317364 8.23571 1.4948 -1.2 1 0.0223741 0.0125948 0.0225004 0.0241008 0.0202297 0.0453317 0.0429789 0.0500959 0.0349867 0.0545301 0.0440354 0.065834 0.0572157 0.0596731 0.0673629 0.0662134 0.0715731 0.0531456 0.0737607 0.0740378
82 3 O 6.94307 10.823 1.4948 -1.2 1 0.0311936 0.0147757 0.0219358 0.0116919 0.0372923 0.0331826 0.0381503 0.057695 0.0347367 0.0474802 0.0513202 0.0524128 0.0502246 0.0749646 0.0727332 0.0799331 0.0619506 0.0729045 0.0580351 0.0804766
83 3 O -0.343122 10.5551 0.196716 -1.2 1 0.0266792 0.0195769 0.0239726 0.022617 0.0298343 0.04147 0.0512202 0.0388518 0.0378989 0.0505969 0.0371342 0.0367654 0.0611047 0.0595126 0.0677099 0.0698971 0.0800392 0.0545147 0.0692047 0.0705318
84 3 O -0.385966 10.5551 2.79288 -1.2 1 0.0229715 0.0147948 0.0327807 0.0125336 0.0328477 0.0440481 0.0453014 0.046111 0.0451927 0.0387169 0.0525985 0.0482313 0.0489959 0.0561779 0.0696289 0.0690215 0.0668214 0.0616601 0.0702131 0.0784243
85 1 Mg 6.49448 14.247 0 1.2 1 0.0225789 0.0101169 0.0183846 0.0170546 0.0286587 0.0226988 0.0477728 0.0328504 0.0592105 0.0482665 0.051216 0.0377084 0.0625409 0.0531611 0.0709619 0.0655115 0.0642777 0.0708695 0.0847352 0.0706246
86 1 Mg 3.74457 18.9547 1.4948 1.2 1 0.0107139 0.0135273 0.0165191 0.0171506 0.0263974 0.0303393 0.0314756 0.0386654 0.0373981 0.0567978 0.0429161 0.0695615 0.0517395 0.0668956 0.0710354 0.0699852 0.0620666 0.0839609 0.0793737 0.0762119
87 2 Si 5.55495 16.2705 1.4948 2.4 1 0.0120541 0.020114 0.0220353 0.0268884 0.0184605 0.0425311 0.0365164 0.0421559 0.0454376 0.0519805 0.0434852 0.0611575 0.054021 0.06397 0.0697393 0.0590423 0.0727755 0.0797938 0.0603826 0.0702321
88 3 O 5.6115 17.8838 1.4948 -1.2 1 0.0268926 0.0182145 0.0233893 0.0256049 0.0193391 0.0435976 0.0451731 0.060907 0.0372074 0.0500165 0.0380894 0.0670991 0.0512865 0.056078 0.064503 0.057508 0.0657081 0.0615017 0.0633928 0.0690913
89 3 O 1.93416 15.2965 1.4948 -1.2 1 0.0370651 0.0147594 0.0220566 0.0130986 0.0350572 0.0302685 0.0363697 0.0586301 0.0428179 0.0466055 0.0487924 0.0502839 0.0467918 0.0742821 0.0808178 0.0778716 0.0591327 0.0741866 0.0622945 0.0776356
90 3 O 4.85636 15.5644 0.196716 -1.2 1 0.0260952 0.0110295 0.0224252 0.0196891 0.0236102 0.0514216 0.0506881 0.0401046 0.041118 0.0465044 0.0366301 0.0336807 0.0640475 0.0547922 0.0673838 0.0684979 0.0749885 0.0632272 0.0721506 0.0676227
91 1 Mg 6.44662 14.247 2.9896 1.2 1 0.0110581 0.0165141 0.0230403 0.0239513 0.0184159 0.0371479 0.0371106 0.0527869 0.0367519 0.0570914 0.0338599 0.0634142 0.0236389 0.0667303 0.0449966 0.0779633 0.0449776 0.0911534 0.04357 0.0929887
92 3 O 4.81537 15.5644 2.79288 -1.2 1 0.0153188 0.00716525 0.0282852 0.012254 0.027937 0.0382453 0.046762 0.0472722 0.0456935 0.0386652 0.0508171 0.0425192 0.0530288 0.0570619 0.0746869 0.0658168 0.075372 0.0529798 0.0717218 0.0769511
93 1 Mg -0.948271 14.2883 4.4844 1.2 1 0.0189777 0.0122165 0.0147819 0.0248991 0.026006 0.027489 0.0370942 0.0335514 0.0440612 0.0463064 0.0573105 0.0555335 0.0646641 0.0702099 0.0595491 0.0729803 0.0720562 0.0947774 0.073951 0.0806435
94 2 Si -2.75928 16.9724 4.4844 2.4 1 0.017946 0.0159296 0.021761 0.0229093 0.0272202 0.0419656 0.0543746 0.0331624 0.0518005 0.064962 0.0515156 0.0630683 0.0582354 0.0559668 0.0783315 0.069238 0.0479851 0.0924156 0.0542773 0.0629817
95 3 O -2.81617 15.3592 4.4844 -1.2 1 0.0168917 0.01667 0.00951439 0.0254163 0.0279878 0.0273322 0.0399408 0.0653259 0.0430879 0.0515136 0.0358627 0.0728528 0.0480149 0.0603591 0.0688966 0.0692199 0.0521033 0.0745493 0.0631407 0.074873
96 3 O 0.862762 17.9465 4.4844 -1.2 1 0.019031 0.0243366 0.021597 0.0190808 0.0212376 0.0474597 0.0341036 0.0532514 0.0471971 0.0536775 0.0392941 0.0486798 0.043416 0.0703664 0.107407 0.0564193 0.0709573 0.0529086 0.0724892 0.0707817
97 3 O -2.0185 17.6786 3.18632 -1.2 1 0.0218632 0.00767257 0.0200973 0.0177831 0.0180933 0.0373878 0.0422112 0.0550999 0.0413213 0.0543932 0.0538326 0.0488347 0.0561415 0.0489015 0.0820431 0.0605344 0.0701331 0.0669951 0.0642912 0.0685259
98 3 O -2.06164 17.6786 5.78248 -1.2 1 0.0164636 0.00701571 0.020131 0.0194522 0.0175768 0.0317822 0.0463612 0.0480231 0.0373913 0.0381298 0.0595274 0.0410582 0.0565304 0.0592893 0.0776703 0.0675392 0.073002 0.0624507 0.0673964 0.0763164
99 1 Mg 1.39817 16.6215 2.9896 1.2 1 0.00610006 0.016707 0.0188504 0.0224836 0.0186599 0.0350184 0.0378222 0.0529423 0.0367218 0.0596212 0.0358608 0.0570425 0.0235381 0.0675894 0.0469183 0.0804971 0.0491781 0.0908427 0.0453724 0.088854
100 1 Mg 4.20062 16.5802 4.4844 1.2 1 0.0141046 0.0117648 0.0157462 0.0274062 0.0283165 0.0276785 0.0419065 0.0346093 0.047348 0.052593 0.0541454 0.0552887 0.0685737 0.0679428 0.0536405 0.0727502 0.0695331 0.0962615 0.0756716 0.0787397
101 2 Si 2.37796 18.645 4.4844 2.4 1 0.0220487 0.00755439 0.0253357 0.0311465 0.0282329 0.034623 0.0618868 0.031116 0.0552651 0.0607035 0.0503575 0.0623733 0.0616697 0.0544185 0.0741935 0.0684025 0.0450088 0.0991152 0.0547864 0.0557866
102 3 O 2.39434 20.2583 4.4844 -1.2 1 0.0241688 0.0107841 0.0106397 0.0174862 0.0230612 0.0228399 0.0384082 0.0583442 0.0407498 0.0481362 0.0403835 0.0736659 0.0501826 0.0642277 0.069843 0.0681254 0.049621 0.0695203 0.0666362 0.0775052
103 3 O -4.24274 17.671 4.4844 -1.2 1 0.020585 0.0214809 0.0197083 0.0168811 0.0233035 0.0470419 0.0370448 0.0508152 0.0412996 0.0533351 0.039261 0.0511343 0.0488664 0.0734982 0.0982196 0.0643009 0.0748819 0.0519789 0.0759185 0.070284
104 3 O 3.08659 17.9389 3.18632 -1.2 1 0.0282705 0.0133648 0.0218556 0.0114237 0.0171792 0.0387611 0.0372344 0.0556228 0.0433308 0.0521361 0.0558814 0.0472546 0.0525161 0.0497102 0.0802711 0.0590569 0.0679358 0.0609835 0.0641076 0.06975
105 1 Mg 1.44478 16.6215 0 1.2 1 0.00947536 0.0120836 0.0216861 0.0126569 0.0266477 0.0314865 0.0478763 0.035602 0.0508571 0.0503904 0.0519295 0.0395057 0.0588221 0.0496323 0.0698686 0.0663416 0.0599826 0.0679086 0.0885261 0.0642101
106 3 O 3.0436 17.9389 5.78248 -1.2 1 0.0246538 0.0170308 0.0175771 0.0173998 0.0142189 0.0269484 0.0443572 0.0499472 0.0374761 0.04074 0.0606368 0.0380717 0.0539867 0.0584099 0.0868533 0.0658316 0.0688773 0.0613285 0.0697202 0.0784878
107 1 Mg -1.40524 16.6628 1.4948 1.2 1 0.00683755 0.0152779 0.0259358 0.0193163 0.0179246 0.0352663 0.0361555 0.0421246 0.0402356 0.0596509 0.0396378 0.0651759 0.055927 0.0647664 0.0748931 0.0697987 0.0632643 0.078516 0.0789883 0.0758306
108 2 Si 0.420358 14.5979 1.4948 2.4 1 0.0209185 0.0196357 0.0271406 0.0266929 0.0180631 0.0394434 0.0397313 0.0397562 0.0452119 0.0555821 0.044278 0.0600184 0.0583093 0.0637632 0.0681281 0.0593001 0.072505 0.0760781 0.0627463 0.0718327
109 3 O 0.408732 12.9847 1.4948 -1.2 1 0.022271 0.0154459 0.0228747 0.0256594 0.0167669 0.0470768 0.043722 0.0540461 0.0361323 0.0530622 0.0420559 0.0691185 0.0529887 0.0569988 0.065786 0.0635008 0.0711414 0.0551202 0.068264 0.0718706
110 3 O 7.03923 15.572 1.4948 -1.2 1 0.029334 0.0168407 0.0217108 0.0127192 0.0361063 0.0334407 0.0369021 0.0561872 0.0383795 0.0445422 0.0511583 0.0531757 0.0478585 0.0741909 0.0781459 0.0781594 0.0641095 0.0696307 0.0624664 0.077204
111 3 O -0.248332 15.3041 0.196716 -1.2 1 0.0219977 0.0122445 0.0222832 0.0193278 0.0242794 0.0463288 0.0501154 0.0435252 0.0402932 0.0466804 0.0371018 0.0319201 0.0620497 0.0546492 0.0702842 0.0653033 0.0821473 0.0505795 0.0697496 0.071307
112 3 O -0.289436 15.3041 2.79288 -1.2 1 0.0148429 0.014326 0.029481 0.0107629 0.0300447 0.0389422 0.0452384 0.0458899 0.0459533 0.0388481 0.0543797 0.0481936 0.0513314 0.0545218 0.072094 0.0682176 0.071131 0.0562589 0.0702769 0.0754225
113 1 Mg 6.59566 18.996 0 1.2 1 0.0138472 0.0116794 0.0199609 0.0143412 0.0260478 0.0314453 0.0430116 0.032913 0.0540015 0.049314 0.0538911 0.0390403 0.0520501 0.0528533 0.0721569 0.0646909 0.0639986 0.0647781 0.085996 0.0708498
114 1 Mg 3.85574 23.7037 1.4948 1.2 1 0.0108143 0.0125611 0.0212546 0.0139263 0.0225767 0.0288224 0.0312699 0.0371175 0.0391075 0.0599617 0.0471085 0.0631155 0.0500191 0.06676 0.064572 0.0725091 0.066052 0.0796441 0.0799553 0.0760916
115 2 Si 5.66125 21.0195 1.4948 2.4 1 0.00860721 0.0228112 0.024755 0.0273926 0.0200148 0.0457672 0.0337459 0.0434242 0.0473228 0.0539837 0.0442801 0.0616541 0.0557021 0.0597907 0.0709169 0.0605397 0.0734572 0.077468 0.0649682 0.0752424
116 3 O 5.72074 22.6328 1.4948 -1.2 1 0.0282009 0.0193044 0.018387 0.0227999 0.0190912 0.0448259 0.0454034 0.0618709 0.0380251 0.0520462 0.0329459 0.0696411 0.0495202 0.0538273 0.0683294 0.0554176 0.0651634 0.0677585 0.0565361 0.0710746
117 3 O 2.03867 20.0455 1.4948 -1.2 1 0.0300246 0.0163589 0.0267364 0.01582 0.0340813 0.0302245 0.0359171 0.055479 0.0441244 0.0428108 0.0504292 0.0507382 0.0478185 0.073533 0.0848417 0.0726401 0.0617391 0.067902 0.0635706 0.0730481
118 3 O 4.96004 20.3134 0.196716 -1.2 1 0.0242393 0.0104056 0.0244977 0.0199713 0.0223461 0.0457223 0.045284 0.0479857 0.040422 0.04193 0.040772 0.0349364 0.0651551 0.0476677 0.0698451 0.0736527 0.0702874 0.0584405 0.0712697 0.0717335
119 1 Mg 6.55057 18.996 2.9896 1.2 1 0.00966224 0.0177509 0.0207351 0.0216234 0.0208682 0.0340114 0.0368417 0.0555869 0.0339178 0.0589175 0.0347314 0.0624982 0.0228119 0.0702794 0.0448904 0.0736908 0.0458258 0.0952091 0.0436984 0.0937631
120 3 O 4.92172 20.3134 2.79288 -1.2 1 0.0114691 0.0124152 0.0300639 0.0135216 0.0304096 0.0387808 0.046802 0.0441276 0.0474258 0.0433348 0.0519011 0.0407 0.0523843 0.0524675 0.0760046 0.0672746 0.0750975 0.0483978 0.0709443 0.0722364
121 1 Mg -0.84282 19.0373 4.4844 1.2 1 0.0116814 0.0103571 0.0151277 0.0286081 0.0213176 0.027973 0.0369215 0.0319914 0.0466636 0.0490142 0.0608263 0.0554716 0.0678985 0.0666947 0.0563338 0.0738691 0.0707347 0.0933455 0.0714034 0.0832328
122 2 Si -2.64823 21.7214 4.4844 2.4 1 0.0180446 0.0170216 0.0181164 0.0294556 0.0303365 0.0391643 0.0577929 0.0295867 0.0562393 0.065035 0.0522758 0.0608589 0.0604381 0.0522854 0.0785894 0.0715708 0.0478575 0.0925274 0.0549164 0.0650834
123 3 O -2.70847 20.1082 4.4844 -1.2 1 0.013758 0.021622 0.0128614 0.0279616 0.0239023 0.0242223 0.0386116 0.0653074 0.0432294 0.0483693 0.0393178 0.0707853 0.0502661 0.058621 0.0670091 0.0650748 0.0511712 0.0712885 0.0675364 0.0757443
124 3 O 0.97581 22.6955 4.4844 -1.2 1 0.0166851 0.0248126 0.0212599 0.0193442 0.0197348 0.0429252 0.0311328 0.0506499 0.045922 0.0544118 0.0410526 0.0475464 0.0453739 0.0728841 0.107375 0.0520342 0.0665642 0.0566631 0.0734507 0.0675864
125 3 O -1.9076 22.4276 3.18632 -1.2 1 0.0220241 0.00798734 0.0204934 0.0161601 0.0137041 0.036683 0.0441794 0.055635 0.0376243 0.0510885 0.0549318 0.0480442 0.0559095 0.048148 0.0808861 0.0581109 0.0684019 0.0671661 0.0622876 0.0661198
126 3 O -1.9475 22.4276 5.78248 -1.2 1 0.0159173 0.00661566 0.0246996 0.0216495 0.0153361 0.0280228 0.0509862 0.0461717 0.0380689 0.0366114 0.05741 0.0377946 0.0573771 0.0626059 0.0796909 0.0672977 0.0704061 0.0637244 0.070388 0.0794963