ITEM: TIMESTEP
4100
ITEM: NUMBER OF ATOMS
10500
ITEM: BOX BOUNDS xy xz yz pp pp pp
0	15.2977	5.09925
0	118.725	0
0	89.688	0
ITEM: ATOMS id type element xu yu zu q Q_1 Q_2 Q_3 Q_4 Q_5 Q_6 Q_7 Q_8 Q_9 Q_10 Q_11 Q_12 Q_13 Q_14 Q_15 Q_16 Q_17 Q_18 Q_19 Q_20 Q_21
1 1 Mg 6.2404 -6.37941e-06 0 1.2 1 0.0131949 0.0409332 0.0296933 0.0358577 0.0332219 0.0412137 0.0356187 0.0686828 0.0389572 0.0712465 0.0339097 0.0593019 0.0461774 0.0684149 0.0500521 0.0921177 0.0516338 0.0838991 0.0508371 0.102482
2 1 Mg 3.46349 4.70768 1.4948 1.2 1 0.0124813 0.0163084 0.0250328 0.0235383 0.0198243 0.0414518 0.0434656 0.0413036 0.0479547 0.0559111 0.0421762 0.0695808 0.0578818 0.0703349 0.0729827 0.0643332 0.066848 0.0850606 0.0731785 0.0824698
3 2 Si 5.2885 2.02354 1.4948 2.4 1 0.0218999 0.0223717 0.0366901 0.0256229 0.0309304 0.0366242 0.0534254 0.0335265 0.0442927 0.0519078 0.0558167 0.061752 0.0557473 0.0637547 0.0682257 0.0792006 0.0709309 0.0649958 0.0633754 0.0732526
4 3 O 5.33628 3.63678 1.4948 -1.2 1 0.00933995 0.0141061 0.0268085 0.0258767 0.0183342 0.0390458 0.0419118 0.0602652 0.0355852 0.0404381 0.0546192 0.0509081 0.0676448 0.0575012 0.0586628 0.0650715 0.0600734 0.0615134 0.0714096 0.0743309
5 3 O 1.67294 1.04952 1.4948 -1.2 1 0.016325 0.0218683 0.0232512 0.0357609 0.0296623 0.0387497 0.0341104 0.060996 0.0348009 0.0596237 0.0439727 0.0509201 0.0717616 0.0593399 0.07625 0.0692558 0.0627988 0.0644695 0.0792482 0.0604946
6 3 O 4.59532 1.31737 0.196716 -1.2 1 0.0258764 0.022109 0.0575779 0.0252396 0.033319 0.0487088 0.0385964 0.047386 0.0339372 0.0392543 0.0386311 0.0505463 0.0542196 0.057115 0.0635434 0.0699886 0.0620331 0.0714307 0.0592546 0.0707416
7 1 Mg 6.18956 -6.37941e-06 2.9896 1.2 1 0.0154434 0.02811 0.0153617 0.0217224 0.0360461 0.0452665 0.0503123 0.0429276 0.0477475 0.0453879 0.0384109 0.0556784 0.039878 0.0560835 0.0586057 0.0793813 0.0571747 0.0694702 0.0596024 0.0699893
8 3 O 4.55118 1.31737 2.79288 -1.2 1 0.0243511 0.0258773 0.0409409 0.017147 0.0286229 0.0438723 0.0446591 0.0479874 0.0440263 0.0545107 0.0536905 0.0486593 0.0498876 0.0663387 0.0533185 0.0698463 0.0645009 0.0670571 0.0645006 0.0717433
9 1 Mg -1.20682 0.0413099 4.4844 1.2 1 0.0153059 0.0261947 0.0200793 0.0274598 0.0384494 0.0408432 0.0318438 0.0536613 0.0545763 0.0393666 0.04903 0.0600491 0.0654496 0.0581355 0.0750569 0.0619035 0.0810855 0.0736986 0.0629252 0.0540867
10 2 Si -3.0337 2.72544 4.4844 2.4 1 0.034678 0.0156335 0.0207757 0.0142989 0.0345124 0.0405102 0.0592922 0.0358955 0.0617687 0.0527534 0.048338 0.0627382 0.0593066 0.0767209 0.054608 0.0603624 0.0720896 0.0794781 0.0714653 0.0605745
11 3 O -3.08099 1.11221 4.4844 -1.2 1 0.0133574 0.0206382 0.0268959 0.0237958 0.0401339 0.0255662 0.0494777 0.0460112 0.0398708 0.0399002 0.0401719 0.0717158 0.0539477 0.0508973 0.0552404 0.0684987 0.05481 0.0792171 0.0731241 0.0754166
12 3 O 0.582463 3.69946 4.4844 -1.2 1 0.00947019 0.0113929 0.033746 0.0303452 0.0273192 0.0615717 0.0314751 0.0550137 0.0435073 0.0415039 0.0546839 0.0578732 0.0605598 0.0714913 0.0995832 0.0694658 0.0797152 0.0397017 0.0732416 0.0664606
13 3 O -2.29524 3.43162 3.18632 -1.2 1 0.0139197 0.0193694 0.0251224 0.0305882 0.0228147 0.0528089 0.0510287 0.0518232 0.0418659 0.0525826 0.0590579 0.0527944 0.0420348 0.0537726 0.059892 0.0648526 0.0658796 0.0624069 0.0645129 0.0738671
14 3 O -2.34216 3.43162 5.78248 -1.2 1 0.0245748 0.0147557 0.0165639 0.0270209 0.0255142 0.040746 0.0517823 0.0461021 0.0412363 0.0559887 0.0565126 0.047889 0.0566142 0.0495391 0.0789131 0.0725469 0.0610062 0.0703067 0.0748414 0.0711022
15 1 Mg 1.12778 2.37449 2.9896 1.2 1 0.0158626 0.0406519 0.0163453 0.0238764 0.0256797 0.0427384 0.041251 0.0502887 0.0368203 0.0603754 0.0366512 0.0595559 0.0406597 0.0673421 0.0631335 0.0701437 0.0682436 0.0828532 0.0462434 0.08735
16 1 Mg 3.92855 2.33318 4.4844 1.2 1 0.0273737 0.0156768 0.0244146 0.0301573 0.0442276 0.0251547 0.0386121 0.0370739 0.0473328 0.0683425 0.0510374 0.0604678 0.0494063 0.0611521 0.0544081 0.0741919 0.0636013 0.0941734 0.0737283 0.0852076
17 2 Si 2.09341 4.39804 4.4844 2.4 1 0.0139624 0.0208144 0.0327665 0.0140027 0.0414303 0.0276168 0.0635242 0.0211232 0.0446251 0.0480158 0.0626353 0.0622483 0.0669422 0.0590918 0.0726465 0.075007 0.0711673 0.0810546 0.0506649 0.0666686
18 3 O 2.09991 6.01128 4.4844 -1.2 1 0.010653 0.0112084 0.0172721 0.0192715 0.0336885 0.0230579 0.0522673 0.0515475 0.0472256 0.046359 0.0472758 0.0657473 0.0465598 0.0619201 0.0660074 0.071443 0.0461414 0.0798931 0.0612186 0.0709278
19 3 O -4.52137 3.42402 4.4844 -1.2 1 0.020799 0.0320492 0.0382161 0.0206852 0.0272114 0.0574497 0.0391209 0.0461752 0.0562074 0.0595806 0.0322658 0.0591686 0.0539884 0.0536829 0.0890582 0.0727355 0.0769406 0.061299 0.0741488 0.0548312
20 3 O 2.80834 3.69187 3.18632 -1.2 1 0.00927772 0.0184207 0.0207421 0.0248999 0.021929 0.0385308 0.0361158 0.0505054 0.0444214 0.0587181 0.0675209 0.0512728 0.0428915 0.0645384 0.0705383 0.0717132 0.0617091 0.0583957 0.0700915 0.0713611
21 1 Mg 1.17857 2.37449 0 1.2 1 0.0149058 0.0342841 0.028714 0.0276402 0.0376599 0.0380541 0.0431606 0.0590064 0.0360829 0.0493418 0.0513589 0.0418294 0.0419433 0.0672671 0.0564042 0.06404 0.0616582 0.0806478 0.0587527 0.0734288
22 3 O 2.76143 3.69187 5.78248 -1.2 1 0.00854268 0.0182719 0.0194272 0.0266776 0.0199806 0.0344293 0.0401245 0.0497435 0.0357463 0.0449925 0.0570221 0.0438768 0.0544117 0.0802759 0.0743279 0.0666414 0.0692269 0.0580829 0.0695287 0.0751608
23 1 Mg -1.67381 2.41581 1.4948 1.2 1 0.0113807 0.0116072 0.0371309 0.0362507 0.0324979 0.0439818 0.0589006 0.0402385 0.0510649 0.0406316 0.0461779 0.059076 0.0549224 0.06385 0.0613089 0.0643322 0.0833616 0.0779148 0.0664689 0.0739758
24 2 Si 0.16286 0.350945 1.4948 2.4 1 0.015168 0.0356095 0.0301472 0.0243829 0.0367517 0.0353922 0.0567648 0.0485284 0.0533962 0.0494374 0.0405436 0.0539157 0.0750132 0.0703801 0.0584903 0.0733749 0.0691684 0.0648026 0.0730828 0.0651537
25 3 O 0.15972 -1.26229 1.4948 -1.2 1 0.00912091 0.0155583 0.0396896 0.0213554 0.0371988 0.035912 0.0454672 0.0563607 0.0472033 0.0515383 0.0557565 0.0564568 0.0633439 0.0665377 0.0494656 0.0595571 0.0695473 0.0667347 0.0620551 0.0740689
26 3 O 6.77654 1.32496 1.4948 -1.2 1 0.0114985 0.0277355 0.026638 0.0276825 0.037233 0.0544812 0.0342272 0.0648048 0.0476249 0.0467305 0.0442866 0.0524268 0.0524465 0.0594604 0.0686595 0.0714642 0.0845693 0.0629184 0.0598651 0.0746284
27 3 O -0.508028 1.05712 0.196716 -1.2 1 0.0246521 0.0190485 0.0295563 0.0206128 0.0292245 0.0533756 0.0436656 0.044669 0.0471397 0.0482652 0.0503039 0.0481899 0.0493042 0.063546 0.054989 0.0630238 0.0635159 0.0589345 0.0718573 0.0718279
28 3 O -0.552171 1.05712 2.79288 -1.2 1 0.0335026 0.0258134 0.0330017 0.0321432 0.0211531 0.0453496 0.0428353 0.0458286 0.0448811 0.0348421 0.0489834 0.049584 0.0610798 0.0627331 0.0644222 0.076052 0.071916 0.050151 0.0700875 0.0717563
29 1 Mg 6.31713 4.74899 0 1.2 1 0.0272056 0.0291167 0.0303344 0.0366497 0.0326714 0.0266303 0.0419865 0.0559075 0.0586621 0.0493072 0.0510396 0.038508 0.0594709 0.0614801 0.0657378 0.0638407 0.0657885 0.0737889 0.0691911 0.0705296
30 1 Mg 3.54847 9.45668 1.4948 1.2 1 0.0170682 0.0160561 0.0174058 0.0188986 0.0188098 0.0384052 0.0384209 0.0421129 0.0450617 0.056528 0.0378373 0.0688128 0.0529534 0.0655624 0.0746728 0.0621852 0.0666631 0.0876866 0.0734894 0.0796172
31 2 Si 5.36879 6.77254 1.4948 2.4 1 0.0290725 0.0269024 0.0239451 0.0256812 0.0248211 0.0349245 0.0444037 0.0363011 0.0449677 0.0572957 0.0421051 0.0583364 0.0531871 0.066453 0.0655661 0.0743852 0.066982 0.0789396 0.0558854 0.068432
32 3 O 5.41937 8.38578 1.4948 -1.2 1 0.0215245 0.0114195 0.0234826 0.0296653 0.0174931 0.0431804 0.044131 0.0573355 0.0364003 0.050687 0.047442 0.064142 0.0550775 0.053831 0.0662257 0.0607626 0.0727955 0.0560363 0.073137 0.073154
33 3 O 1.75158 5.79852 1.4948 -1.2 1 0.0284665 0.0123349 0.0224709 0.0265793 0.0440365 0.0306264 0.0394087 0.0567688 0.0407708 0.0524437 0.0494959 0.0507003 0.0475009 0.0711823 0.0787128 0.0786434 0.0603206 0.0751185 0.0601441 0.0766805
34 3 O 4.67421 6.06637 0.196716 -1.2 1 0.0145808 0.0265006 0.0315581 0.0243545 0.0320261 0.0378315 0.0345704 0.0322672 0.0448108 0.0561881 0.0392579 0.0443271 0.0668214 0.0562863 0.0676115 0.0712965 0.0714989 0.0657173 0.0632114 0.0684375
35 1 Mg 6.26654 4.74899 2.9896 1.2 1 0.0187116 0.0276548 0.0255135 0.0407583 0.0260014 0.0439447 0.048511 0.0483042 0.0350757 0.0633587 0.0368169 0.0593995 0.0388711 0.0635246 0.0520892 0.0787488 0.0564122 0.0836556 0.0457045 0.0892918
36 3 O 4.63043 6.06637 2.79288 -1.2 1 0.0213122 0.0201613 0.0408276 0.019196 0.0312774 0.0378365 0.0430581 0.0488273 0.0449429 0.0362858 0.0490806 0.0514521 0.0561023 0.0644845 0.0612415 0.0727737 0.0645924 0.0691844 0.0686673 0.0846882
37 1 Mg -1.12976 4.79031 4.4844 1.2 1 0.0195748 0.0268631 0.0104051 0.0125984 0.0388204 0.0369853 0.0503141 0.0500847 0.043617 0.0414467 0.0558162 0.0614185 0.0744716 0.0694614 0.0625785 0.0691518 0.0700164 0.0929698 0.071723 0.0818457
38 2 Si -2.9517 7.47444 4.4844 2.4 1 0.0237964 0.0134791 0.0171496 0.0263397 0.0307599 0.0425301 0.0620496 0.0282496 0.0545065 0.057122 0.0517333 0.0594969 0.0631856 0.0578578 0.079168 0.0714429 0.0526143 0.0885552 0.0561347 0.0605431
39 3 O -3.00198 5.86121 4.4844 -1.2 1 0.0150418 0.0232994 0.0270745 0.0280681 0.0329555 0.0309252 0.0546605 0.0595408 0.0377973 0.0531769 0.0466835 0.0705881 0.059082 0.0559998 0.0663228 0.0705917 0.0503219 0.0776656 0.0621153 0.0777388
40 3 O 0.666315 8.44846 4.4844 -1.2 1 0.0167122 0.0232556 0.0242651 0.0181261 0.0204884 0.0568268 0.0287665 0.0511885 0.0416238 0.0481714 0.042841 0.0514342 0.0497907 0.0751944 0.10132 0.0663141 0.0772172 0.0509844 0.072736 0.0729797
41 3 O -2.21213 8.18062 3.18632 -1.2 1 0.018253 0.0149328 0.0166694 0.0154735 0.0172623 0.0357529 0.0462106 0.0546119 0.0456255 0.0537624 0.0535627 0.0523013 0.0526179 0.0467885 0.07803 0.0636266 0.0710186 0.0588311 0.067658 0.0712115
42 3 O -2.25864 8.18062 5.78248 -1.2 1 0.0202006 0.0187438 0.0155972 0.0174611 0.0182608 0.0277825 0.048144 0.0497439 0.03873 0.0413283 0.0543811 0.0403039 0.0584221 0.055065 0.0864804 0.0683098 0.0661449 0.0652152 0.0700192 0.0736043
43 1 Mg 1.20893 7.12349 2.9896 1.2 1 0.00760176 0.0226052 0.0183278 0.0247564 0.0238892 0.0396601 0.0429249 0.046264 0.0349067 0.06581 0.0394139 0.0666517 0.0364464 0.0586008 0.0522998 0.0798417 0.0515071 0.0836706 0.0472878 0.0879157
44 1 Mg 4.00982 7.08218 4.4844 1.2 1 0.019153 0.0156861 0.0263818 0.0365772 0.0328557 0.0349437 0.0454187 0.0366711 0.0468544 0.0505475 0.0578319 0.0552337 0.0717523 0.0737981 0.0574483 0.068052 0.0640332 0.0986856 0.0751496 0.0799605
45 2 Si 2.17861 9.14704 4.4844 2.4 1 0.0266533 0.0119049 0.0240747 0.021315 0.0291353 0.0342942 0.0626501 0.0247886 0.0506364 0.0549559 0.0551802 0.0593354 0.0638852 0.0564614 0.0800496 0.0703049 0.0490262 0.0944612 0.0543761 0.0582533
46 3 O 2.18828 10.7603 4.4844 -1.2 1 0.0216822 0.0127758 0.00285067 0.0191581 0.0255944 0.0221749 0.0444749 0.0596761 0.040918 0.0527896 0.0401295 0.0708166 0.0448613 0.0623798 0.0699525 0.0713322 0.0487837 0.0711349 0.0641594 0.0723445
47 3 O -4.43805 8.17302 4.4844 -1.2 1 0.0073325 0.0151207 0.0198179 0.021265 0.0234302 0.0544767 0.0370604 0.0494643 0.0439438 0.0484983 0.0355062 0.0545299 0.0535406 0.0732737 0.100454 0.0673257 0.0817566 0.0522377 0.0753376 0.0728768
48 3 O 2.89193 8.44087 3.18632 -1.2 1 0.01808 0.0155008 0.0183124 0.0147528 0.0217398 0.0418423 0.033946 0.0558797 0.0435769 0.0515293 0.0585849 0.0490166 0.0514833 0.052651 0.0801403 0.0635707 0.0700594 0.0591868 0.0650812 0.0735498
49 1 Mg 1.25915 7.12349 0 1.2 1 0.0187869 0.0174861 0.0281769 0.0148245 0.0320155 0.0246552 0.0502331 0.0399357 0.0562135 0.0495641 0.0539133 0.0426454 0.0711678 0.0514475 0.068593 0.0706471 0.0639517 0.0709731 0.0791739 0.059054
50 3 O 2.84547 8.44087 5.78248 -1.2 1 0.00993056 0.0149402 0.0125721 0.0207413 0.0214136 0.0286052 0.0452273 0.0487086 0.0390228 0.0405582 0.0578877 0.0405453 0.059234 0.0619978 0.089086 0.063484 0.0699612 0.0632298 0.0654898 0.0763087
51 1 Mg -1.59284 7.16481 1.4948 1.2 1 0.00983482 0.0163733 0.0204519 0.0203803 0.0149971 0.0372124 0.0463705 0.0425043 0.0432456 0.057616 0.0389302 0.0661159 0.0519958 0.0692456 0.0756747 0.0606946 0.0676862 0.0843446 0.0735352 0.0784309
52 2 Si 0.240329 5.09994 1.4948 2.4 1 0.0246544 0.0173522 0.0159246 0.0433596 0.0272083 0.0404956 0.0467065 0.0533372 0.054972 0.0486039 0.0456506 0.0574606 0.0592435 0.0680997 0.065623 0.0662967 0.0640735 0.0729666 0.0663847 0.0682222
53 3 O 0.234538 3.48671 1.4948 -1.2 1 0.0131467 0.0164552 0.0265559 0.035931 0.0313208 0.0491743 0.0459359 0.0424821 0.0528261 0.046971 0.0521624 0.0613794 0.0560416 0.0608179 0.0617153 0.0626298 0.062723 0.0572108 0.0758989 0.0739661
54 3 O 6.85564 6.07396 1.4948 -1.2 1 0.0324602 0.0194151 0.0344761 0.0276378 0.0372193 0.0403747 0.0323756 0.0625055 0.0365638 0.0532963 0.0538933 0.0535396 0.0550772 0.0732295 0.0698102 0.0770162 0.0664193 0.0723113 0.0532 0.0848552
55 3 O -0.429565 5.80612 0.196716 -1.2 1 0.0340028 0.0199912 0.0158954 0.0212585 0.0409454 0.0374867 0.0538939 0.0451781 0.046032 0.0564059 0.0397548 0.0419376 0.0533417 0.060201 0.0598696 0.0682036 0.0704644 0.0609818 0.0652744 0.0742873
56 3 O -0.473377 5.80612 2.79288 -1.2 1 0.0247906 0.0213901 0.0340489 0.0186879 0.0346996 0.0461713 0.0494348 0.048478 0.0546922 0.0455216 0.0623037 0.0390237 0.0434879 0.0595305 0.0663833 0.0716082 0.0657832 0.0682462 0.0717887 0.0801055
57 1 Mg 6.40169 9.49799 0 1.2 1 0.0126957 0.011821 0.0212103 0.0143047 0.0304834 0.0212891 0.0522374 0.0355955 0.0586417 0.0492546 0.0498342 0.0354995 0.0671669 0.0526532 0.0711246 0.0671931 0.065343 0.0705736 0.0809946 0.0685709
58 1 Mg 3.64209 14.2057 1.4948 1.2 1 0.0105217 0.0110812 0.0179592 0.0166468 0.0215545 0.0336839 0.0360641 0.0435059 0.0415058 0.0556468 0.0394002 0.0660781 0.0531452 0.0662892 0.0737698 0.0631234 0.0649972 0.0823929 0.0740366 0.0781512
59 2 Si 5.45748 11.5215 1.4948 2.4 1 0.0119406 0.0218273 0.0233185 0.0248113 0.0180262 0.0402484 0.0397266 0.0399758 0.0435965 0.0546173 0.0424392 0.0603533 0.0533065 0.0662503 0.0694577 0.0635749 0.0709395 0.0817532 0.0580885 0.0666469
60 3 O 5.51101 13.1348 1.4948 -1.2 1 0.0241772 0.0133727 0.0222543 0.0294419 0.0198094 0.0433149 0.0445539 0.059064 0.0366211 0.0497542 0.0428827 0.0673321 0.0531925 0.0532615 0.065481 0.0602196 0.0706952 0.0579984 0.0694034 0.0721084
61 3 O 1.83851 10.5475 1.4948 -1.2 1 0.0351806 0.0140431 0.0215778 0.0139382 0.036346 0.0303498 0.0363408 0.0591691 0.0399104 0.0484143 0.0497601 0.0514948 0.0470423 0.0748753 0.0757215 0.0798718 0.0566019 0.075923 0.0576827 0.078864
62 3 O 4.7611 10.8154 0.196716 -1.2 1 0.0357212 0.0192608 0.0198424 0.018116 0.026739 0.0442304 0.0483254 0.0375133 0.0387706 0.0492396 0.0369104 0.0410098 0.0607138 0.060794 0.0649587 0.0714208 0.0753532 0.0657211 0.0729432 0.067827
63 1 Mg 6.35203 9.49799 2.9896 1.2 1 0.0128236 0.0175203 0.0253828 0.0212381 0.019668 0.0376775 0.0376031 0.0511446 0.0349637 0.0585429 0.0316341 0.0648271 0.0280414 0.0664733 0.0472332 0.0801104 0.0454741 0.0898657 0.0456898 0.0907087
64 3 O 4.71833 10.8154 2.79288 -1.2 1 0.0215213 0.0130524 0.0326774 0.0126722 0.0304413 0.042874 0.0435698 0.0449922 0.0429351 0.0375293 0.0530204 0.0422085 0.0543218 0.0587482 0.0739083 0.0687528 0.0731941 0.0590691 0.0701117 0.0795248
65 1 Mg -1.0438 9.53931 4.4844 1.2 1 0.0138701 0.016264 0.0165877 0.0242584 0.0270108 0.0288435 0.0402872 0.0353413 0.046345 0.0509283 0.0575625 0.0567558 0.0688018 0.0711791 0.0598088 0.0686694 0.0729246 0.0983421 0.0710695 0.0855196
66 2 Si -2.8604 12.2234 4.4844 2.4 1 0.018288 0.0114124 0.018711 0.028791 0.0300432 0.0411012 0.0601557 0.0305758 0.0539227 0.0632407 0.0543386 0.0616467 0.059038 0.0541757 0.079471 0.0722255 0.0496162 0.0911242 0.0539905 0.0635416
67 3 O -2.91391 10.6102 4.4844 -1.2 1 0.0197303 0.0141711 0.00707735 0.0233701 0.0294726 0.02367 0.0454255 0.0622477 0.0394754 0.0496988 0.0361509 0.07082 0.0458733 0.0595985 0.0683195 0.0703683 0.049794 0.0757162 0.0620197 0.0750082
68 3 O 0.7596 13.1975 4.4844 -1.2 1 0.0182131 0.0249671 0.0183548 0.0141575 0.0231643 0.0523871 0.0314158 0.052058 0.0448258 0.0488907 0.0399869 0.0499283 0.0486701 0.0713198 0.101335 0.0603496 0.0772055 0.0545103 0.073877 0.0706916
69 3 O -2.12001 12.9296 3.18632 -1.2 1 0.0209296 0.0120178 0.0187829 0.0175665 0.0211981 0.0370348 0.0416976 0.0533272 0.0469443 0.0518421 0.0532752 0.0502252 0.0551497 0.0484966 0.0801603 0.0636365 0.0717264 0.0628492 0.0666431 0.0693998
70 3 O -2.16532 12.9296 5.78248 -1.2 1 0.0182919 0.0128303 0.020098 0.0209216 0.0150069 0.0293818 0.0452935 0.0464244 0.037531 0.0399815 0.0568986 0.0389182 0.0576737 0.0565599 0.0840974 0.0693906 0.0684636 0.0644138 0.0686766 0.0768769
71 1 Mg 1.29891 11.8725 2.9896 1.2 1 0.00690618 0.0156525 0.0222483 0.0226068 0.0176856 0.0384561 0.0365733 0.0506156 0.0350815 0.0600164 0.0339069 0.0589616 0.0258263 0.0676272 0.0491268 0.0825704 0.0490622 0.0895881 0.0472693 0.0860836
72 1 Mg 4.10033 11.8312 4.4844 1.2 1 0.011802 0.0178135 0.0179467 0.0264562 0.0260839 0.034113 0.0420585 0.0337613 0.046859 0.0507334 0.0532734 0.0546102 0.0667419 0.0706435 0.0530396 0.0703201 0.0708571 0.0997804 0.0737111 0.0806221
73 2 Si 2.27333 13.896 4.4844 2.4 1 0.0258863 0.0100705 0.0245323 0.0242812 0.0268302 0.0361906 0.0632731 0.0288005 0.0535631 0.0581491 0.0532445 0.0594202 0.0624761 0.0563886 0.0772972 0.0691244 0.0482595 0.0967681 0.0534959 0.0568465
74 3 O 2.28634 15.5093 4.4844 -1.2 1 0.0205506 0.0140556 0.00746354 0.0171107 0.0275778 0.0212256 0.0446726 0.0601955 0.0430386 0.054691 0.0415328 0.0709662 0.0459782 0.062591 0.0691344 0.070663 0.0478373 0.0692395 0.0642488 0.0747503
75 3 O -4.34533 12.922 4.4844 -1.2 1 0.0210405 0.0221577 0.0212643 0.0157458 0.022201 0.0515612 0.0344796 0.0500276 0.0445855 0.0521594 0.0383985 0.0530529 0.0489908 0.0704638 0.101475 0.0660763 0.0780636 0.0533566 0.0757009 0.0719214
76 3 O 2.98455 13.1899 3.18632 -1.2 1 0.0228059 0.011391 0.0178183 0.011847 0.0204841 0.0421599 0.038638 0.0582069 0.0459235 0.052094 0.0563077 0.0487572 0.0510063 0.0515567 0.081367 0.0622692 0.0666741 0.0600612 0.0640456 0.0715672
77 1 Mg 1.34779 11.8725 0 1.2 1 0.0218185 0.00924132 0.0218926 0.0147279 0.0286872 0.0225934 0.0516144 0.0347643 0.0575696 0.0509466 0.0497308 0.0353604 0.0650358 0.0500994 0.0706219 0.0642262 0.0615642 0.0701068 0.0872685 0.0597819
78 3 O 2.93934 13.1899 5.78248 -1.2 1 0.020643 0.0121676 0.0189541 0.0178438 0.0148587 0.0275433 0.0451677 0.049053 0.0391828 0.0407215 0.0585539 0.0393044 0.0539851 0.0599147 0.0868874 0.0652765 0.0681173 0.0627853 0.0655664 0.0796315
79 1 Mg -1.50344 11.9138 1.4948 1.2 1 0.0129299 0.0179294 0.0229096 0.0204907 0.0118658 0.0369005 0.0384406 0.042409 0.0413065 0.0600545 0.0353802 0.0649794 0.0505628 0.0649709 0.0746702 0.0679574 0.0641872 0.0840311 0.0763654 0.0787675
80 2 Si 0.326006 9.84894 1.4948 2.4 1 0.028098 0.0178298 0.0269394 0.0295396 0.0169042 0.0380984 0.0434549 0.0399903 0.0441022 0.0550311 0.0395919 0.0605629 0.0555674 0.0662095 0.0607968 0.062765 0.0700688 0.0801921 0.0614067 0.0687901
81 3 O 0.317364 8.23571 1.4948 -1.2 1 0.0224406 0.0125214 0.0226671 0.0239422 0.0202052 0.0452958 0.0428762 0.0497934 0.0346302 0.0541142 0.0443304 0.0657059 0.0574822 0.0598439 0.0682292 0.0662798 0.0717091 0.053483 0.0734316 0.0740894
82 3 O 6.94307 10.823 1.4948 -1.2 1 0.0312098 0.014841 0.0220104 0.0117476 0.037307 0.0330698 0.038077 0.0578755 0.0347441 0.0476832 0.0512766 0.0526054 0.0501702 0.074731 0.0727186 0.0797803 0.0617426 0.0727614 0.0581287 0.0803265
83 3 O -0.343122 10.5551 0.196716 -1.2 1 0.0308702 0.0174928 0.0216212 0.0208811 0.0297896 0.04142 0.0512607 0.0397509 0.0387219 0.0507717 0.0370692 0.0376419 0.0613663 0.0608255 0.0688197 0.0707858 0.081092 0.0540892 0.0699825 0.0693769
84 3 O -0.385966 10.5551 2.79288 -1.2 1 0.0183601 0.0184628 0.0347127 0.0121037 0.0332067 0.0426126 0.0454764 0.0451845 0.0444996 0.0390171 0.0530948 0.046977 0.0497756 0.0571839 0.0702715 0.0714871 0.0670478 0.0605879 0.069643 0.0784805
85 1 Mg 6.49448 14.247 0 1.2 1 0.0226433 0.00993046 0.0185185 0.016885 0.0286587 0.0226648 0.0477831 0.0329121 0.0594085 0.0480967 0.0514299 0.0373696 0.0624897 0.0528696 0.0711449 0.0653853 0.0642839 0.0707651 0.0846079 0.0707405
86 1 Mg 3.74457 18.9547 1.4948 1.2 1 0.0149345 0.0107528 0.015279 0.0160723 0.0258132 0.0293179 0.0313063 0.0394646 0.0380773 0.0579416 0.0434876 0.0666939 0.0506564 0.0662821 0.0706161 0.0697441 0.0631676 0.0831741 0.0783379 0.0759272
87 2 Si 5.55495 16.2705 1.4948 2.4 1 0.0120415 0.0200885 0.0220169 0.0269317 0.0184844 0.0425635 0.0365457 0.0420998 0.045382 0.0519519 0.0435577 0.0609861 0.0541441 0.0640012 0.0696896 0.0591901 0.0727276 0.0796862 0.0603986 0.0705196
88 3 O 5.6115 17.8838 1.4948 -1.2 1 0.0269144 0.0180773 0.0233309 0.025609 0.0192959 0.0434752 0.0452368 0.0608956 0.0373519 0.0500521 0.0379909 0.0671663 0.0511195 0.0559666 0.0644157 0.0576228 0.0656626 0.0616717 0.063212 0.0692599
89 3 O 1.93416 15.2965 1.4948 -1.2 1 0.037089 0.0147447 0.0219196 0.0129572 0.0350458 0.0302482 0.0361475 0.0591447 0.04296 0.0468792 0.0485905 0.0506252 0.0465834 0.073839 0.0808358 0.0775885 0.0589842 0.0739026 0.0623698 0.0771791
90 3 O 4.85636 15.5644 0.196716 -1.2 1 0.0225216 0.0118691 0.0213399 0.0190438 0.0252057 0.0513431 0.049554 0.039645 0.0394064 0.0443991 0.0374939 0.0324138 0.0631594 0.0544303 0.0672673 0.0675964 0.0760911 0.0628266 0.0726095 0.0684983
91 1 Mg 6.44662 14.247 2.9896 1.2 1 0.0101711 0.0180894 0.0226916 0.0217002 0.0188215 0.0353761 0.0382786 0.0535934 0.0365489 0.0577463 0.0335663 0.0629707 0.0246377 0.0674056 0.0453934 0.0769822 0.0450543 0.0919627 0.0437168 0.0922299
92 3 O 4.81537 15.5644 2.79288 -1.2 1 0.0148582 0.00753201 0.0281037 0.0118762 0.0278481 0.0381888 0.0471106 0.0476057 0.0453546 0.0392267 0.0509287 0.0429536 0.0530467 0.0567708 0.0749454 0.0662561 0.0762423 0.0529021 0.0720419 0.0764744
93 1 Mg -0.948271 14.2883 4.4844 1.2 1 0.0164114 0.0122658 0.0144586 0.0289058 0.0241446 0.027977 0.0380389 0.0344412 0.0446254 0.0487215 0.0586812 0.0567315 0.0667617 0.069011 0.0587933 0.0700387 0.0714628 0.0957173 0.0735096 0.082941
94 2 Si -2.75928 16.9724 4.4844 2.4 1 0.0206464 0.0116462 0.0182127 0.0274653 0.0293927 0.0414961 0.0585 0.0314476 0.0553147 0.062236 0.0527372 0.0632878 0.059758 0.0547075 0.0778046 0.0727601 0.0465136 0.0928789 0.0536576 0.063148
95 3 O -2.81617 15.3592 4.4844 -1.2 1 0.0167215 0.020065 0.00837061 0.0254509 0.0298081 0.023838 0.042788 0.0633912 0.0423739 0.0510829 0.0369906 0.0722148 0.0482315 0.0588776 0.0682585 0.0697732 0.0516832 0.0744081 0.0639936 0.0759627
96 3 O 0.862762 17.9465 4.4844 -1.2 1 0.0177984 0.0245266 0.0210192 0.0168412 0.0215422 0.0464204 0.03478 0.0533549 0.0471341 0.0534786 0.0393305 0.0476655 0.0439636 0.0713845 0.105204 0.0558712 0.0707954 0.0530431 0.0745019 0.0689317
97 3 O -2.0185 17.6786 3.18632 -1.2 1 0.0215412 0.00735313 0.0199204 0.0181256 0.0173547 0.0378116 0.0419789 0.0553549 0.0414579 0.0539358 0.0534939 0.0491213 0.0560573 0.0486762 0.0815758 0.0596546 0.0693499 0.0663503 0.0645142 0.0682559
98 3 O -2.06164 17.6786 5.78248 -1.2 1 0.0138524 0.0106689 0.0225822 0.0220164 0.0159478 0.0258276 0.0483627 0.0468642 0.0373604 0.0391094 0.0565932 0.0380858 0.0563632 0.059199 0.0829094 0.0683893 0.0698891 0.0621833 0.0664473 0.07722
99 1 Mg 1.39817 16.6215 2.9896 1.2 1 0.00616734 0.0163898 0.019054 0.0226277 0.018154 0.0359172 0.0372813 0.0529867 0.036768 0.0591902 0.0357157 0.056646 0.0235036 0.0671854 0.0474437 0.0805769 0.0495988 0.091264 0.0451383 0.0888262
100 1 Mg 4.20062 16.5802 4.4844 1.2 1 0.0151964 0.0110303 0.0159796 0.0258003 0.0259165 0.0312339 0.0393646 0.0346801 0.046797 0.052602 0.0536474 0.0559065 0.0676037 0.0695237 0.0522009 0.0732165 0.069478 0.0972533 0.0742073 0.0787488
101 2 Si 2.37796 18.645 4.4844 2.4 1 0.0213914 0.0120172 0.0247265 0.0248348 0.0239497 0.0375845 0.0606401 0.0318172 0.0559988 0.0582462 0.0514036 0.0613182 0.0604528 0.0553231 0.0743286 0.0684872 0.0451784 0.0992434 0.0524799 0.0568865
102 3 O 2.39434 20.2583 4.4844 -1.2 1 0.0238403 0.012625 0.0094128 0.0186648 0.024459 0.0219236 0.0420004 0.0596929 0.0446022 0.0513841 0.0408215 0.0718255 0.0481541 0.0634231 0.0698097 0.0694501 0.0490688 0.067085 0.0635893 0.0795514
103 3 O -4.24274 17.671 4.4844 -1.2 1 0.0179384 0.0221208 0.0209115 0.0186177 0.0209039 0.0484812 0.03446 0.0491549 0.04405 0.0538539 0.0391244 0.0518055 0.0495216 0.0704855 0.100903 0.0617241 0.0751997 0.0538711 0.0775238 0.0714236
104 3 O 3.08659 17.9389 3.18632 -1.2 1 0.0282951 0.0129651 0.0215648 0.0110361 0.017197 0.0383713 0.0370672 0.0555872 0.0433048 0.0520926 0.0555332 0.048126 0.0518642 0.0500083 0.0806354 0.0587538 0.0675983 0.0603405 0.0647038 0.069402
105 1 Mg 1.44478 16.6215 0 1.2 1 0.00952614 0.0121115 0.0216892 0.0127871 0.0266993 0.031527 0.0479547 0.0354388 0.0507062 0.0505068 0.0518173 0.0397141 0.058716 0.049403 0.0698099 0.0659999 0.0601844 0.0677343 0.0885991 0.0639017
106 3 O 3.0436 17.9389 5.78248 -1.2 1 0.0205776 0.0118326 0.0185753 0.0182194 0.0148269 0.0245503 0.0474091 0.0473064 0.0385741 0.0397076 0.058193 0.0391941 0.0523132 0.0593609 0.0864299 0.063592 0.0683093 0.0609059 0.0665941 0.0793662
107 1 Mg -1.40524 16.6628 1.4948 1.2 1 0.0116053 0.0125007 0.0257655 0.0176855 0.0174091 0.0344523 0.0360567 0.0426674 0.0413985 0.0604604 0.0404492 0.0625494 0.0548637 0.0645239 0.0740072 0.0692292 0.0643488 0.0779199 0.0781649 0.0759553
108 2 Si 0.420358 14.5979 1.4948 2.4 1 0.0209571 0.0197299 0.0271525 0.0268439 0.0181679 0.0393306 0.0396521 0.0397952 0.0452882 0.0555809 0.0441109 0.0604729 0.0579005 0.0635291 0.0678326 0.0596093 0.0722838 0.0761579 0.0623218 0.0716926
109 3 O 0.408732 12.9847 1.4948 -1.2 1 0.0222427 0.0154868 0.0228767 0.0256608 0.0167473 0.0471671 0.0438488 0.0539262 0.0362613 0.0528244 0.0422475 0.0691902 0.0532531 0.0569411 0.0658582 0.0634703 0.0713402 0.0550311 0.0683213 0.0717812
110 3 O 7.03923 15.572 1.4948 -1.2 1 0.0292974 0.0168629 0.0217709 0.0128567 0.0361103 0.0337271 0.0367914 0.0561442 0.0384459 0.0444359 0.0512157 0.0530805 0.0479913 0.0743075 0.0781236 0.0783335 0.064283 0.0695554 0.062228 0.077705
111 3 O -0.248332 15.3041 0.196716 -1.2 1 0.0189704 0.0129582 0.0211619 0.0183221 0.0252216 0.0464796 0.0488093 0.0430641 0.0390999 0.0447068 0.0379549 0.0306756 0.0607642 0.0541916 0.0699554 0.0642733 0.083268 0.0502712 0.0703093 0.0723371
112 3 O -0.289436 15.3041 2.79288 -1.2 1 0.0103961 0.0163875 0.0316133 0.0115498 0.0300853 0.0378227 0.0446894 0.0462639 0.0453339 0.0389741 0.0544201 0.0470724 0.0517957 0.0550213 0.0728155 0.069149 0.0717272 0.0556496 0.0703308 0.0753165
113 1 Mg 6.59566 18.996 0 1.2 1 0.0138607 0.0116321 0.0199212 0.0143725 0.0260565 0.0317381 0.0430619 0.0330444 0.0539593 0.0491669 0.0539815 0.0389812 0.0523077 0.0528969 0.0721916 0.0646155 0.0641415 0.0648777 0.0861164 0.0707972
114 1 Mg 3.85574 23.7037 1.4948 1.2 1 0.0107377 0.0126366 0.0212028 0.0140349 0.0225799 0.0288233 0.0312523 0.0372108 0.0389722 0.0601311 0.0468969 0.0626755 0.0500239 0.0668819 0.0646986 0.0724647 0.0663223 0.0797845 0.0800346 0.0759142
115 2 Si 5.66125 21.0195 1.4948 2.4 1 0.00824326 0.0242137 0.0232891 0.0273135 0.0192758 0.0462513 0.0340923 0.0414993 0.0492132 0.054302 0.0453961 0.060481 0.0558677 0.0595804 0.0717067 0.0608341 0.073404 0.0772352 0.0643678 0.0756018
116 3 O 5.72074 22.6328 1.4948 -1.2 1 0.0281953 0.0191846 0.0183113 0.0228173 0.0191193 0.0447411 0.0454386 0.0619078 0.0381386 0.0520426 0.0328548 0.0698688 0.0492926 0.0535629 0.0681878 0.0558343 0.0650313 0.0679014 0.056276 0.0712724
117 3 O 2.03867 20.0455 1.4948 -1.2 1 0.0300402 0.0165108 0.0267532 0.0159056 0.0341855 0.029946 0.0360079 0.05527 0.0439066 0.0427424 0.0505751 0.0505211 0.0478188 0.0737423 0.0848181 0.0726224 0.0617803 0.0679341 0.0637428 0.0731535
118 3 O 4.96004 20.3134 0.196716 -1.2 1 0.0211062 0.0104035 0.022889 0.0188266 0.0232738 0.0453802 0.0439238 0.0479551 0.0389724 0.0400431 0.0409809 0.0343 0.0646534 0.0474989 0.0696463 0.0728342 0.0715126 0.0582167 0.0716819 0.0719684
119 1 Mg 6.55057 18.996 2.9896 1.2 1 0.0104218 0.0166465 0.0200137 0.0232672 0.0216301 0.034872 0.0367903 0.0543852 0.0346577 0.0592211 0.0350054 0.0630613 0.0213423 0.0690558 0.0448457 0.0749032 0.0458589 0.095113 0.0437846 0.0938657
120 3 O 4.92172 20.3134 2.79288 -1.2 1 0.00995004 0.0114631 0.0312495 0.0150132 0.0300716 0.0398061 0.0460639 0.0456331 0.0473592 0.042581 0.0526367 0.0404559 0.0535733 0.0536685 0.0767145 0.0673986 0.07626 0.0483728 0.0720061 0.0717238
121 1 Mg -0.84282 19.0373 4.4844 1.2 1 0.0145929 0.0125152 0.0141141 0.0281151 0.0233025 0.0273527 0.0368767 0.0324837 0.0453045 0.0489423 0.0595174 0.0573461 0.0670431 0.0691345 0.0585402 0.0722187 0.0712758 0.0931332 0.0738215 0.0832814
122 2 Si -2.64823 21.7214 4.4844 2.4 1 0.0198178 0.0127654 0.0170365 0.0277863 0.0285038 0.0410579 0.056713 0.0315623 0.0549391 0.062563 0.0519627 0.0639153 0.0604567 0.0544994 0.0764787 0.0723073 0.045735 0.094031 0.0537928 0.0645451
123 3 O -2.70847 20.1082 4.4844 -1.2 1 0.0127676 0.0175664 0.0158838 0.0258604 0.0260812 0.0238795 0.0411226 0.065247 0.0446394 0.0494933 0.0393394 0.0706248 0.0515224 0.0578946 0.0672451 0.0662151 0.0510931 0.0716023 0.0657521 0.0768009
124 3 O 0.97581 22.6955 4.4844 -1.2 1 0.0152105 0.0254888 0.0201352 0.0170355 0.019873 0.0417518 0.0311998 0.0517072 0.0452995 0.0548287 0.0397203 0.0465783 0.0452436 0.07228 0.107432 0.0524662 0.0675502 0.055459 0.0745216 0.0662884
125 3 O -1.9076 22.4276 3.18632 -1.2 1 0.0218782 0.0079979 0.0210464 0.016384 0.013587 0.036977 0.0439646 0.0556986 0.037575 0.0504638 0.054603 0.0486456 0.0559717 0.0476136 0.0806465 0.0580624 0.0690216 0.0661957 0.0626553 0.0657831
126 3 O -1.9475 22.4276 5.78248 -1.2 1 0.0129842 0.00736272 0.023356 0.0215534 0.0172367 0.0263103 0.0490408 0.0467863 0.0365081 0.0375701 0.0566551 0.0387319 0.0569957 0.0603431 0.0819921 0.0683397 0.0704151 0.0629848 0.0664304 0.0774562