ITEM: TIMESTEP
9900
ITEM: NUMBER OF ATOMS
10500
ITEM: BOX BOUNDS xy xz yz pp pp pp
0	15.2977	5.09925
0	118.725	0
0	89.688	0
ITEM: ATOMS id type element xu yu zu q Q_1 Q_2 Q_3 Q_4 Q_5 Q_6 Q_7 Q_8 Q_9 Q_10 Q_11 Q_12 Q_13 Q_14 Q_15 Q_16 Q_17 Q_18 Q_19 Q_20 Q_21
1 1 Mg 6.2404 -6.37941e-06 0 1.2 1 0.0133058 0.0408745 0.029591 0.0357192 0.0335442 0.0412132 0.0360075 0.0686631 0.039297 0.0712741 0.0337427 0.0593088 0.0460112 0.0683179 0.0496212 0.0924027 0.0514432 0.0840998 0.0513954 0.102795
2 1 Mg 3.46349 4.70768 1.4948 1.2 1 0.016897 0.0166765 0.0244652 0.0215795 0.0202796 0.0420747 0.0423362 0.0398711 0.0461855 0.0557968 0.0430488 0.0706829 0.0576444 0.0709237 0.0718841 0.0641879 0.0678981 0.0857134 0.0726372 0.0818896
3 2 Si 5.2885 2.02354 1.4948 2.4 1 0.0218898 0.0224047 0.0366663 0.0256461 0.0308724 0.0365865 0.0534406 0.0335783 0.0443068 0.0518542 0.0558451 0.0618874 0.0558433 0.0636727 0.0681584 0.079227 0.0708732 0.0649266 0.0634667 0.0733207
4 3 O 5.33628 3.63678 1.4948 -1.2 1 0.00940322 0.0141599 0.0267973 0.0259996 0.0183711 0.0390763 0.0419288 0.060266 0.0356002 0.0403915 0.0546073 0.0507427 0.0678382 0.0577872 0.0585858 0.0647491 0.0600331 0.0615801 0.0714154 0.0743211
5 3 O 1.67294 1.04952 1.4948 -1.2 1 0.0163253 0.0218827 0.0233868 0.0356654 0.0297554 0.0386727 0.0342257 0.0606756 0.0349065 0.059227 0.0441387 0.0512948 0.0719839 0.0594945 0.076334 0.0692009 0.0629946 0.0646488 0.0795211 0.0604648
6 3 O 4.59532 1.31737 0.196716 -1.2 1 0.0268443 0.019525 0.0563482 0.0255876 0.0333017 0.0488752 0.0393467 0.0479361 0.0337701 0.0401344 0.0380318 0.0505316 0.0548537 0.0585605 0.0636237 0.0704405 0.0632343 0.0718254 0.0593479 0.0702008
7 1 Mg 6.18956 -6.37941e-06 2.9896 1.2 1 0.0155455 0.0282972 0.0156566 0.0216679 0.0363614 0.0451066 0.050438 0.0425588 0.047947 0.0449597 0.0385694 0.0560849 0.0390431 0.0556047 0.0589956 0.0797231 0.0571232 0.06982 0.0588328 0.0699825
8 3 O 4.55118 1.31737 2.79288 -1.2 1 0.0243889 0.0258589 0.0408315 0.0171427 0.0284825 0.0440393 0.0443307 0.0483965 0.0438522 0.054409 0.0534983 0.0487394 0.0495451 0.0662665 0.0529842 0.0702359 0.0643909 0.0673368 0.0645679 0.0716166
9 1 Mg -1.20682 0.0413099 4.4844 1.2 1 0.0136863 0.0243755 0.0206448 0.0271015 0.0366256 0.0396671 0.03238 0.0520229 0.0537921 0.0393314 0.0489179 0.0613926 0.0667298 0.0589541 0.0769244 0.060949 0.0809073 0.0743349 0.0656038 0.0528659
10 2 Si -3.0337 2.72544 4.4844 2.4 1 0.0332604 0.01337 0.0202951 0.0166817 0.0313873 0.0381557 0.06158 0.0347133 0.0616054 0.0492688 0.048071 0.0612342 0.059582 0.0759746 0.0553022 0.0595331 0.0722031 0.0792009 0.0734855 0.0604395
11 3 O -3.08099 1.11221 4.4844 -1.2 1 0.0125385 0.0257642 0.0275074 0.0266245 0.0409129 0.0289033 0.0500343 0.0499563 0.0389286 0.03927 0.0402903 0.0737647 0.0533767 0.0529086 0.0547281 0.0694697 0.0528596 0.0806531 0.071419 0.0783711
12 3 O 0.582463 3.69946 4.4844 -1.2 1 0.0054417 0.0118464 0.0309549 0.0281457 0.0274122 0.0644602 0.0306352 0.0544023 0.0437304 0.0416116 0.052048 0.0579064 0.0612741 0.071083 0.100376 0.068082 0.0789363 0.0403935 0.0721241 0.0679989
13 3 O -2.29524 3.43162 3.18632 -1.2 1 0.0126376 0.0202656 0.025808 0.0309192 0.0202394 0.0502039 0.0515961 0.0495797 0.0409767 0.0535835 0.0596161 0.0545829 0.0407623 0.0526302 0.0590062 0.0647868 0.0665017 0.0616285 0.0638217 0.0729502
14 3 O -2.34216 3.43162 5.78248 -1.2 1 0.0155633 0.00997455 0.0245248 0.0284208 0.0278567 0.0408653 0.0561612 0.0451047 0.0381794 0.0562777 0.0563316 0.0470555 0.0553882 0.053413 0.0767186 0.0729786 0.0646773 0.0710984 0.0725452 0.0713869
15 1 Mg 1.12778 2.37449 2.9896 1.2 1 0.015582 0.0403252 0.0168704 0.0238573 0.0258526 0.042876 0.0411765 0.0501297 0.0373331 0.0607775 0.0377568 0.0589737 0.0403746 0.0676121 0.0633966 0.0697131 0.0679823 0.0826075 0.0455283 0.0875117
16 1 Mg 3.92855 2.33318 4.4844 1.2 1 0.0318119 0.0155945 0.0227093 0.0278332 0.0443979 0.0244864 0.0392495 0.0366601 0.0470632 0.0695932 0.0504541 0.0598051 0.0513989 0.0588112 0.0566114 0.0738311 0.0643488 0.0949473 0.0743843 0.0863138
17 2 Si 2.09341 4.39804 4.4844 2.4 1 0.0141598 0.0212157 0.0333185 0.0137607 0.0414794 0.0272163 0.0638969 0.0206856 0.0447844 0.0478968 0.0622206 0.0615328 0.0663496 0.0590894 0.0735382 0.0747064 0.0714091 0.0802941 0.0520356 0.0666805
18 3 O 2.09991 6.01128 4.4844 -1.2 1 0.00993474 0.0124769 0.017647 0.0193017 0.0337664 0.0228278 0.0524338 0.0510426 0.0475825 0.0465641 0.0475752 0.0653017 0.0455915 0.0614759 0.0656926 0.0721734 0.0454436 0.0790957 0.0603396 0.071493
19 3 O -4.52137 3.42402 4.4844 -1.2 1 0.0197618 0.0266965 0.036207 0.0214551 0.027146 0.0553405 0.0365755 0.0496965 0.0536138 0.0570748 0.0306987 0.0555677 0.0523523 0.0569519 0.0908041 0.0734191 0.0753231 0.0607689 0.0753081 0.0560078
20 3 O 2.80834 3.69187 3.18632 -1.2 1 0.00914039 0.0184132 0.0207807 0.0248686 0.022 0.0388762 0.0361991 0.0504589 0.0445121 0.0589383 0.0673296 0.0512387 0.0426162 0.064359 0.0703516 0.0721146 0.0616851 0.0581554 0.0700959 0.0709277
21 1 Mg 1.17857 2.37449 0 1.2 1 0.0144093 0.0371578 0.0292523 0.0288712 0.0363387 0.0388331 0.0428953 0.0587378 0.0353356 0.0490758 0.0525476 0.0408285 0.0433755 0.066933 0.055062 0.0656401 0.059957 0.0806571 0.0574078 0.0729068
22 3 O 2.76143 3.69187 5.78248 -1.2 1 0.00548597 0.0194232 0.0224542 0.0265825 0.0193577 0.0326343 0.0413396 0.0471378 0.0362143 0.0447655 0.0588267 0.0444343 0.054732 0.0783133 0.0744254 0.0674825 0.0704245 0.0575456 0.0705176 0.0745868
23 1 Mg -1.67381 2.41581 1.4948 1.2 1 0.0101527 0.00804664 0.0391536 0.0352907 0.0318851 0.0437594 0.0589381 0.0389893 0.0517124 0.0415055 0.0435725 0.0569664 0.0543815 0.0644616 0.0606683 0.0633796 0.0837139 0.0782393 0.0664463 0.0742456
24 2 Si 0.16286 0.350945 1.4948 2.4 1 0.0153672 0.0354196 0.0299488 0.0243872 0.0365098 0.0357506 0.0563763 0.0486401 0.0530128 0.0494734 0.0405242 0.0536948 0.0748337 0.0705471 0.0579404 0.0733855 0.0697445 0.0643877 0.0731423 0.0655828
25 3 O 0.15972 -1.26229 1.4948 -1.2 1 0.00917487 0.0153686 0.0397231 0.0213464 0.0375111 0.035875 0.0455051 0.0567397 0.0469178 0.0512955 0.0555698 0.0556518 0.063142 0.0665698 0.0496761 0.0595216 0.0693988 0.0663138 0.0624216 0.0741868
26 3 O 6.77654 1.32496 1.4948 -1.2 1 0.0115102 0.0276933 0.0265843 0.0276254 0.0371891 0.0544066 0.0342336 0.0648495 0.0475915 0.0466644 0.0442687 0.0522399 0.0526972 0.0597258 0.0686146 0.0712555 0.0843823 0.0630179 0.0597591 0.0745154
27 3 O -0.508028 1.05712 0.196716 -1.2 1 0.0247535 0.0191162 0.0295881 0.0205887 0.0293144 0.053238 0.0437582 0.0445341 0.0474089 0.0482716 0.0502271 0.0479079 0.0491099 0.0634247 0.0549165 0.0630702 0.0637177 0.0588399 0.0719427 0.0716739
28 3 O -0.552171 1.05712 2.79288 -1.2 1 0.0364452 0.0260576 0.0337276 0.034488 0.0220493 0.0435049 0.0428212 0.0486312 0.0446022 0.0371961 0.0497547 0.0495957 0.0597793 0.0620711 0.0637564 0.0769712 0.070942 0.0499022 0.0699214 0.0725676
29 1 Mg 6.31713 4.74899 0 1.2 1 0.0272341 0.0291978 0.0302922 0.0366167 0.0327152 0.026523 0.0420762 0.0558556 0.0587852 0.049352 0.0510515 0.0385515 0.0592791 0.0614357 0.0658107 0.0636855 0.0658149 0.0736791 0.069142 0.0705555
30 1 Mg 3.54847 9.45668 1.4948 1.2 1 0.0170929 0.0160095 0.017419 0.0189102 0.0187472 0.0384208 0.0383285 0.0421452 0.0448843 0.0564514 0.0376281 0.0689008 0.0529669 0.065491 0.0748634 0.0622561 0.0667492 0.0877262 0.0735698 0.0796005
31 2 Si 5.36879 6.77254 1.4948 2.4 1 0.0259764 0.0296979 0.0212893 0.0263622 0.0245466 0.0350428 0.0444823 0.034767 0.0458565 0.0585593 0.0425402 0.0578852 0.0523954 0.0674629 0.0652127 0.0751084 0.0671429 0.078442 0.0564658 0.06839
32 3 O 5.41937 8.38578 1.4948 -1.2 1 0.0214859 0.0114026 0.023507 0.0296277 0.0175087 0.0431889 0.0441549 0.0572875 0.0364518 0.0507264 0.0475031 0.0641492 0.0550774 0.0537774 0.0661634 0.0608261 0.0728842 0.0559508 0.0732677 0.0731796
33 3 O 1.75158 5.79852 1.4948 -1.2 1 0.0284578 0.0123372 0.022455 0.0265972 0.044065 0.030725 0.039349 0.0568724 0.0407073 0.0525721 0.0495003 0.0506963 0.0475466 0.0711308 0.0786008 0.0786261 0.0604862 0.0750846 0.0599686 0.0767748
34 3 O 4.67421 6.06637 0.196716 -1.2 1 0.0146037 0.0264805 0.0316329 0.0244539 0.0319592 0.0377787 0.0346364 0.032143 0.0447496 0.0561584 0.0392541 0.0442391 0.0666821 0.0563201 0.0676835 0.0712472 0.0715689 0.0656657 0.0632925 0.0686626
35 1 Mg 6.26654 4.74899 2.9896 1.2 1 0.0221105 0.0247035 0.0235496 0.0436281 0.025592 0.0448519 0.0479983 0.0482621 0.0362708 0.0620106 0.0375883 0.060182 0.0386679 0.0638837 0.0522984 0.0769617 0.0553114 0.0845936 0.0470445 0.0899599
36 3 O 4.63043 6.06637 2.79288 -1.2 1 0.0162859 0.0194525 0.0423405 0.0201878 0.0323721 0.0359285 0.0425263 0.0485095 0.0448855 0.0366188 0.0495436 0.0511949 0.0580216 0.0663669 0.0621667 0.0740509 0.0661105 0.0666337 0.0679575 0.0846189
37 1 Mg -1.12976 4.79031 4.4844 1.2 1 0.0205353 0.0259178 0.013811 0.0134552 0.0391463 0.0359975 0.0522154 0.0504553 0.0451097 0.0432671 0.0573033 0.0600139 0.076852 0.0678481 0.0623959 0.067835 0.0683072 0.0963275 0.0726189 0.0819912
38 2 Si -2.9517 7.47444 4.4844 2.4 1 0.023439 0.0138844 0.0174511 0.0263454 0.0308488 0.0423639 0.062443 0.0275529 0.0555673 0.0570882 0.0526498 0.0597673 0.063275 0.0583899 0.0793438 0.0704029 0.0521635 0.0879481 0.0562451 0.0609701
39 3 O -3.00198 5.86121 4.4844 -1.2 1 0.0135383 0.0223694 0.0277427 0.0261482 0.0342279 0.0309476 0.0560306 0.0602621 0.0403151 0.0553427 0.0481127 0.0711503 0.0573288 0.0559726 0.065084 0.0726671 0.0498503 0.0768935 0.0606277 0.0778303
40 3 O 0.666315 8.44846 4.4844 -1.2 1 0.0203971 0.0235926 0.0237668 0.0169517 0.0216083 0.0539963 0.0304854 0.0509585 0.0429143 0.0499434 0.0419399 0.0513245 0.0483748 0.0744562 0.100569 0.0679978 0.075347 0.0511008 0.0702959 0.0730944
41 3 O -2.21213 8.18062 3.18632 -1.2 1 0.0137683 0.0139035 0.0166658 0.0157535 0.0164113 0.0372982 0.0464066 0.0565814 0.0456308 0.0543341 0.0546536 0.0508912 0.053966 0.0492343 0.0785366 0.0629223 0.0717893 0.058422 0.067129 0.0710124
42 3 O -2.25864 8.18062 5.78248 -1.2 1 0.0121287 0.0173977 0.021165 0.021552 0.018307 0.0291766 0.0493346 0.0467286 0.03873 0.0413276 0.0556483 0.0383074 0.0571341 0.0580493 0.0823819 0.0697757 0.0695777 0.0615631 0.0682706 0.0747401
43 1 Mg 1.20893 7.12349 2.9896 1.2 1 0.00775384 0.0225707 0.0187969 0.0250544 0.0239084 0.0396084 0.0426691 0.0460349 0.0345779 0.0656538 0.0391205 0.0662788 0.0365862 0.0587669 0.0519227 0.0797016 0.050851 0.083917 0.0473463 0.0874098
44 1 Mg 4.00982 7.08218 4.4844 1.2 1 0.0224107 0.015455 0.0230956 0.0349398 0.0306747 0.0363845 0.0444148 0.0369332 0.0474932 0.0512587 0.0569302 0.0554584 0.0717731 0.0725829 0.0572916 0.0682725 0.0622864 0.0976858 0.074753 0.0819668
45 2 Si 2.17861 9.14704 4.4844 2.4 1 0.0262829 0.0111062 0.0236328 0.0231058 0.0339071 0.0306097 0.0636008 0.0231048 0.0504326 0.0565364 0.0558153 0.058848 0.0650112 0.0571978 0.0789084 0.0686186 0.0499766 0.0935641 0.054705 0.0577522
46 3 O 2.18828 10.7603 4.4844 -1.2 1 0.0204511 0.0129306 0.00563574 0.0167719 0.0281222 0.0212755 0.0463573 0.0606846 0.0415744 0.0549472 0.0408412 0.071116 0.0432224 0.0633031 0.0682394 0.0729156 0.0469763 0.0696417 0.0612994 0.0734003
47 3 O -4.43805 8.17302 4.4844 -1.2 1 0.0146707 0.0200345 0.0167856 0.0185676 0.0229032 0.0558887 0.0343493 0.0487867 0.0446455 0.0492976 0.0370935 0.055094 0.0537469 0.0716498 0.0990994 0.064277 0.080474 0.0534662 0.0733135 0.074228
48 3 O 2.89193 8.44087 3.18632 -1.2 1 0.0181984 0.0158631 0.0178842 0.0147037 0.0214493 0.0417746 0.0337942 0.0558012 0.0433131 0.0516884 0.0589943 0.0491067 0.0512881 0.0527234 0.0798201 0.0632984 0.0708439 0.0588854 0.064704 0.0736685
49 1 Mg 1.25915 7.12349 0 1.2 1 0.0186868 0.0175487 0.0281965 0.014998 0.0320253 0.0248236 0.0502653 0.0399904 0.0560975 0.0495509 0.0537713 0.0427687 0.0713412 0.0515709 0.0686236 0.0707515 0.0640275 0.0710294 0.0792955 0.0587492
50 3 O 2.84547 8.44087 5.78248 -1.2 1 0.0118997 0.0140905 0.0173023 0.01935 0.0203408 0.0299476 0.0446168 0.0487106 0.0375252 0.0411246 0.0598835 0.0414845 0.058233 0.0605485 0.0893221 0.0641134 0.070773 0.0619356 0.0660617 0.0762025
51 1 Mg -1.59284 7.16481 1.4948 1.2 1 0.00730322 0.020022 0.0192171 0.0225829 0.015329 0.0380965 0.046424 0.0424077 0.042129 0.0570884 0.0387982 0.0675099 0.0537757 0.0692973 0.0767527 0.060905 0.066989 0.0850557 0.0743972 0.0785694
52 2 Si 0.240329 5.09994 1.4948 2.4 1 0.0246477 0.0173405 0.0159347 0.0433715 0.0272178 0.0405073 0.0467306 0.0533263 0.05502 0.0486553 0.0456459 0.0575992 0.059191 0.0679609 0.065569 0.0664079 0.0640253 0.0728452 0.06632 0.0682124
53 3 O 0.234538 3.48671 1.4948 -1.2 1 0.0131359 0.0163386 0.026614 0.0358187 0.0314526 0.0491956 0.0458429 0.0423415 0.0527523 0.0465873 0.0523163 0.0615002 0.0564238 0.0608476 0.062113 0.0625082 0.0628996 0.0572925 0.0758966 0.0738175
54 3 O 6.85564 6.07396 1.4948 -1.2 1 0.032489 0.0195128 0.0345056 0.027548 0.0372181 0.0403138 0.0323946 0.0626176 0.0364305 0.0534059 0.0539144 0.0538165 0.0550987 0.0729873 0.0697791 0.0770164 0.0663028 0.0721645 0.053181 0.0848069
55 3 O -0.429565 5.80612 0.196716 -1.2 1 0.0340127 0.0199913 0.0158698 0.0212249 0.0409622 0.0374839 0.0538796 0.0451459 0.0460311 0.0563869 0.0397675 0.0419536 0.0533651 0.0601117 0.0599201 0.0681627 0.0703785 0.0610584 0.0652832 0.0741806
56 3 O -0.473377 5.80612 2.79288 -1.2 1 0.0259684 0.0233658 0.0312689 0.0197004 0.0345355 0.0449932 0.0482381 0.0501493 0.0522025 0.046186 0.0631301 0.0399499 0.0429774 0.0580452 0.0659187 0.0721242 0.0649621 0.0679987 0.0703513 0.0805396
57 1 Mg 6.40169 9.49799 0 1.2 1 0.0126477 0.011639 0.0213179 0.0142166 0.030539 0.0214322 0.0523892 0.035623 0.0587264 0.0492585 0.0498225 0.0355876 0.0670259 0.0523829 0.0713102 0.0671973 0.0654909 0.0705395 0.080789 0.0684988
58 1 Mg 3.64209 14.2057 1.4948 1.2 1 0.0105351 0.0110023 0.0180921 0.0164767 0.0216437 0.0336691 0.0360481 0.0433133 0.041323 0.0554605 0.0393924 0.0666535 0.0531603 0.0662154 0.0738829 0.0634018 0.064731 0.0823607 0.0740597 0.0782487
59 2 Si 5.45748 11.5215 1.4948 2.4 1 0.011923 0.0218212 0.0233384 0.0248402 0.0180535 0.0402842 0.0397146 0.0399212 0.0435616 0.0546311 0.0424315 0.0601841 0.0533518 0.0663633 0.0694543 0.0635834 0.0709913 0.0817312 0.0582773 0.0666929
60 3 O 5.51101 13.1348 1.4948 -1.2 1 0.0241762 0.0135031 0.0224043 0.0293623 0.019929 0.0434315 0.0443605 0.059035 0.0363101 0.0495892 0.043018 0.0671365 0.0533356 0.0535208 0.0658599 0.0599992 0.0708231 0.057843 0.0695326 0.0718956
61 3 O 1.83851 10.5475 1.4948 -1.2 1 0.0351967 0.0140672 0.0215855 0.0139006 0.0363853 0.0302497 0.0364348 0.0590847 0.039746 0.0482141 0.0497501 0.0513874 0.0471241 0.0751773 0.0757794 0.0797592 0.0566941 0.0760567 0.0577246 0.0789313
62 3 O 4.7611 10.8154 0.196716 -1.2 1 0.0322636 0.0204319 0.0200417 0.0183338 0.0283518 0.0442686 0.0473721 0.0372221 0.0374406 0.0471347 0.0377382 0.0394188 0.0596295 0.0602632 0.0650472 0.0704941 0.0766952 0.0651369 0.0729979 0.0684131
63 1 Mg 6.35203 9.49799 2.9896 1.2 1 0.01323 0.0175321 0.0256691 0.0213154 0.0193951 0.0380603 0.0372407 0.0512983 0.0347641 0.0583857 0.0318984 0.0649603 0.0284319 0.0665436 0.0477144 0.08035 0.0452191 0.0899751 0.0449284 0.0906914
64 3 O 4.71833 10.8154 2.79288 -1.2 1 0.0252735 0.011087 0.0302656 0.0139974 0.0298392 0.0432776 0.0432543 0.0454156 0.0429222 0.0367049 0.0537334 0.0405419 0.0531393 0.0584112 0.0731823 0.068842 0.0721445 0.0595413 0.0709865 0.0796513
65 1 Mg -1.0438 9.53931 4.4844 1.2 1 0.0135679 0.019037 0.0138587 0.0230612 0.0263111 0.03131 0.0376076 0.0364766 0.0459333 0.0511067 0.0566243 0.0572851 0.0672345 0.0712319 0.0598296 0.0707254 0.0712745 0.097396 0.0700092 0.0832803
66 2 Si -2.8604 12.2234 4.4844 2.4 1 0.0189686 0.011938 0.0168387 0.0269593 0.0304595 0.0416328 0.0598842 0.0302884 0.054159 0.062223 0.0547162 0.0633082 0.0606739 0.0563655 0.0789444 0.0715219 0.0494998 0.0909786 0.0532698 0.0639926
67 3 O -2.91391 10.6102 4.4844 -1.2 1 0.0209893 0.0126242 0.0092351 0.0237231 0.0265848 0.0235391 0.0443006 0.062668 0.0407938 0.0493735 0.0360558 0.0701679 0.0461273 0.0577689 0.0674498 0.0699001 0.0498123 0.0736567 0.061505 0.0752438
68 3 O 0.7596 13.1975 4.4844 -1.2 1 0.0222529 0.0253603 0.0179625 0.0124393 0.0241978 0.0492377 0.0337306 0.0516464 0.0458755 0.0499356 0.0390495 0.0500421 0.0465061 0.0716467 0.100616 0.0620644 0.0764841 0.0535035 0.071632 0.0710091
69 3 O -2.12001 12.9296 3.18632 -1.2 1 0.0201251 0.00686904 0.0216232 0.0171536 0.0188993 0.0370965 0.040928 0.054196 0.0437175 0.0547707 0.053218 0.0488709 0.0561311 0.0492697 0.0803502 0.062158 0.0734445 0.0632204 0.0664085 0.0694128
70 3 O -2.16532 12.9296 5.78248 -1.2 1 0.0125163 0.0138256 0.0239366 0.0256463 0.0142855 0.0258578 0.0521498 0.0421324 0.0402834 0.0388 0.0558661 0.0383956 0.0552927 0.0625632 0.0821783 0.0695663 0.0697141 0.0620311 0.0698097 0.0764315
71 1 Mg 1.29891 11.8725 2.9896 1.2 1 0.00733523 0.0158054 0.0224424 0.0229099 0.0174134 0.0381176 0.0364519 0.0505439 0.0350276 0.0600013 0.0338997 0.0588605 0.0261883 0.0676642 0.0489338 0.0823331 0.0489058 0.0901715 0.0477857 0.0859483
72 1 Mg 4.10033 11.8312 4.4844 1.2 1 0.00990091 0.0138363 0.0177936 0.0245004 0.0276357 0.0320259 0.0399527 0.0358064 0.0474458 0.0528768 0.052768 0.0542473 0.0692593 0.0686863 0.0537634 0.0710203 0.0696122 0.100646 0.0742016 0.0814033
73 2 Si 2.27333 13.896 4.4844 2.4 1 0.0243906 0.0100311 0.0278032 0.0246292 0.0242398 0.0368946 0.0622727 0.0300163 0.0540862 0.0566797 0.0530676 0.059797 0.0615467 0.0568682 0.0770811 0.0685328 0.0468437 0.0965769 0.0554078 0.0558452
74 3 O 2.28634 15.5093 4.4844 -1.2 1 0.0202872 0.0129229 0.00939401 0.0159987 0.0270382 0.0214163 0.0429185 0.0601397 0.0422812 0.052373 0.0414796 0.0729937 0.0469424 0.0631486 0.0688844 0.0718261 0.0461284 0.0706376 0.0642542 0.0742331
75 3 O -4.34533 12.922 4.4844 -1.2 1 0.0205674 0.0219035 0.0216507 0.0157638 0.0227781 0.0507584 0.0353635 0.0498337 0.0452878 0.0530843 0.0376901 0.053194 0.0477774 0.0704196 0.101601 0.0661144 0.078586 0.0529482 0.0738085 0.0734243
76 3 O 2.98455 13.1899 3.18632 -1.2 1 0.0254075 0.0110442 0.0189738 0.0114767 0.0190232 0.0399206 0.037764 0.057706 0.0424444 0.0550627 0.0549916 0.0497416 0.0511433 0.0501458 0.0813383 0.0608474 0.0679498 0.0606438 0.0644933 0.0718439
77 1 Mg 1.34779 11.8725 0 1.2 1 0.0217495 0.00923479 0.02193 0.0148707 0.0286173 0.0228206 0.0515249 0.0349034 0.0575471 0.0509508 0.0497384 0.0351309 0.0650715 0.0501037 0.0704597 0.0643073 0.0616435 0.0700448 0.0873793 0.059627
78 3 O 2.93934 13.1899 5.78248 -1.2 1 0.0156674 0.012732 0.0186815 0.0234579 0.0202352 0.0247429 0.0506415 0.046812 0.0422087 0.0403664 0.0574083 0.0368221 0.0572965 0.0603731 0.0885987 0.0644894 0.0710309 0.0616472 0.0656958 0.0786228
79 1 Mg -1.50344 11.9138 1.4948 1.2 1 0.0129248 0.0179012 0.0229504 0.0204345 0.0118996 0.0368638 0.0385741 0.0423487 0.0411631 0.0599692 0.0353667 0.0653018 0.0506704 0.0650813 0.0746351 0.0682471 0.0639712 0.0838858 0.0767806 0.0789433
80 2 Si 0.326006 9.84894 1.4948 2.4 1 0.0281318 0.0179526 0.0268595 0.0294982 0.0168057 0.0381589 0.0434099 0.0399428 0.0439954 0.0548241 0.039705 0.0607159 0.0557857 0.0661628 0.0608127 0.0626882 0.0702495 0.080232 0.0614556 0.0691907
81 3 O 0.317364 8.23571 1.4948 -1.2 1 0.0224525 0.0124907 0.0226108 0.0240293 0.0200359 0.0453146 0.0430264 0.0497643 0.0347608 0.0540695 0.0442969 0.0657866 0.0575161 0.059827 0.0681103 0.0661518 0.0718537 0.0534585 0.0733715 0.074214
82 3 O 6.94307 10.823 1.4948 -1.2 1 0.0311948 0.0148814 0.0220715 0.0118566 0.0373362 0.0331304 0.0380105 0.0578832 0.0347462 0.047695 0.0512821 0.0526022 0.0502471 0.0747142 0.0727627 0.0798545 0.0617576 0.072666 0.0580876 0.0804722
83 3 O -0.343122 10.5551 0.196716 -1.2 1 0.0309104 0.0175385 0.0216762 0.0208798 0.0298169 0.041341 0.0511579 0.0396267 0.038767 0.0506061 0.0370432 0.0377908 0.0615637 0.0606957 0.0687945 0.0707874 0.0808521 0.0542112 0.0698001 0.0690488
84 3 O -0.385966 10.5551 2.79288 -1.2 1 0.0217832 0.0195937 0.0321501 0.0130898 0.0339265 0.0409899 0.0444153 0.0464691 0.042746 0.0403846 0.0530181 0.0485316 0.0493313 0.0553027 0.0698786 0.0725693 0.0672181 0.060129 0.0680033 0.0793171
85 1 Mg 6.49448 14.247 0 1.2 1 0.0225466 0.0100743 0.0184349 0.0170247 0.0286918 0.0226614 0.0479229 0.0328248 0.0592984 0.0482569 0.051301 0.0375499 0.0626202 0.0529651 0.0711542 0.0652615 0.0643986 0.0707335 0.0847004 0.0706057
86 1 Mg 3.74457 18.9547 1.4948 1.2 1 0.0149633 0.0106633 0.0153231 0.0160984 0.0258631 0.029282 0.0313685 0.039423 0.0380197 0.0580076 0.0434779 0.0666529 0.0506526 0.0663201 0.0706441 0.0698146 0.0631659 0.0831922 0.0784873 0.0759808
87 2 Si 5.55495 16.2705 1.4948 2.4 1 0.0120392 0.020181 0.0220601 0.0268478 0.0184917 0.0426215 0.0363773 0.0420922 0.0452018 0.051832 0.0434485 0.0609734 0.0543032 0.0641479 0.0698081 0.0588328 0.0731337 0.0798523 0.0608819 0.0705474
88 3 O 5.6115 17.8838 1.4948 -1.2 1 0.0268671 0.0181526 0.023318 0.0256598 0.0192994 0.0435288 0.0452136 0.0609247 0.0373023 0.0500606 0.037992 0.0672118 0.0511219 0.0559093 0.0643657 0.0576446 0.0656976 0.0615977 0.0632815 0.0692413
89 3 O 1.93416 15.2965 1.4948 -1.2 1 0.0370943 0.0147816 0.0218836 0.0128501 0.035029 0.030177 0.0362223 0.0591453 0.0428613 0.0468603 0.0486066 0.0507479 0.0466686 0.0737792 0.0808009 0.077603 0.0590104 0.0739254 0.0624444 0.0770815
90 3 O 4.85636 15.5644 0.196716 -1.2 1 0.0260516 0.0108959 0.0222617 0.0195926 0.0237167 0.051499 0.0506472 0.0401918 0.0410306 0.0465553 0.0366142 0.0337163 0.0640585 0.0548148 0.0672337 0.0684484 0.0748938 0.0632622 0.0721789 0.0676479
91 1 Mg 6.44662 14.247 2.9896 1.2 1 0.01053 0.0182117 0.0229606 0.0217187 0.0186057 0.0353301 0.0379926 0.0534111 0.0367154 0.0574722 0.0341476 0.0629705 0.0246478 0.0675114 0.045814 0.076428 0.0447682 0.0915456 0.0429795 0.0922835
92 3 O 4.81537 15.5644 2.79288 -1.2 1 0.0117544 0.00952286 0.0292353 0.0131168 0.0281534 0.0371214 0.0467242 0.0471289 0.045829 0.0388542 0.0513323 0.0421377 0.0535263 0.0580262 0.0755218 0.0675466 0.0764194 0.0526003 0.0719589 0.0756661
93 1 Mg -0.948271 14.2883 4.4844 1.2 1 0.0172521 0.0124049 0.014694 0.0286384 0.024117 0.0285578 0.0375065 0.0350025 0.0440839 0.0486943 0.0591435 0.056356 0.0666652 0.0687738 0.0587702 0.0700611 0.0700707 0.0963775 0.072701 0.0834186
94 2 Si -2.75928 16.9724 4.4844 2.4 1 0.0208202 0.011778 0.0185138 0.0278015 0.0296183 0.0413323 0.0591264 0.0309169 0.0556618 0.0622066 0.0533229 0.0627842 0.0595284 0.0554433 0.0776645 0.07246 0.0469413 0.0926921 0.0543094 0.0635423
95 3 O -2.81617 15.3592 4.4844 -1.2 1 0.0160303 0.0154111 0.013343 0.0245024 0.0300109 0.0224388 0.0448757 0.0650782 0.0449157 0.0513543 0.0371921 0.072576 0.0466348 0.0578525 0.0661355 0.0690245 0.0494678 0.0722403 0.0617233 0.0764905
96 3 O 0.862762 17.9465 4.4844 -1.2 1 0.0183402 0.0235655 0.0215378 0.0172202 0.0221083 0.0479429 0.0345557 0.0519593 0.046463 0.0535567 0.0395586 0.0479929 0.0442593 0.0708664 0.107396 0.0568605 0.0709054 0.0539931 0.072907 0.0702127
97 3 O -2.0185 17.6786 3.18632 -1.2 1 0.0215796 0.00739737 0.0196504 0.0177624 0.0177239 0.0373282 0.0420073 0.054798 0.0413499 0.0542629 0.0532144 0.0497279 0.0561888 0.0493293 0.0814474 0.0595022 0.0694428 0.066203 0.064099 0.0687342
98 3 O -2.06164 17.6786 5.78248 -1.2 1 0.0108182 0.0102951 0.0251894 0.0240637 0.0149169 0.0266501 0.053118 0.0421561 0.040963 0.0373039 0.0558751 0.0370416 0.056284 0.0629077 0.0825652 0.0687927 0.0689785 0.063179 0.0695326 0.0761737
99 1 Mg 1.39817 16.6215 2.9896 1.2 1 0.00632313 0.0163129 0.0194574 0.0229116 0.0180919 0.0357851 0.0371343 0.0529768 0.0369223 0.0591855 0.0358655 0.0564535 0.0236506 0.0671251 0.0470441 0.0802362 0.0490869 0.0915613 0.0454599 0.0889152
100 1 Mg 4.20062 16.5802 4.4844 1.2 1 0.0167667 0.0161668 0.0164502 0.0294501 0.0250507 0.0300992 0.0432384 0.0352441 0.0452079 0.0505468 0.0561111 0.0552539 0.0685832 0.0692316 0.0541937 0.0726022 0.0691533 0.0956225 0.0739062 0.0803344
101 2 Si 2.37796 18.645 4.4844 2.4 1 0.0214966 0.0128228 0.0250039 0.0250386 0.0238595 0.0370308 0.0605718 0.0321139 0.0554238 0.058329 0.0510588 0.061382 0.0600964 0.0554955 0.0747438 0.0687316 0.0451122 0.0993368 0.052018 0.0565921
102 3 O 2.39434 20.2583 4.4844 -1.2 1 0.0239152 0.0130048 0.00937062 0.0187197 0.0243468 0.0218207 0.0417969 0.0592979 0.0449479 0.051161 0.0406988 0.0714694 0.048977 0.0633251 0.0708819 0.0710725 0.0481073 0.0666342 0.0632624 0.0796503
103 3 O -4.24274 17.671 4.4844 -1.2 1 0.0220475 0.0221287 0.0217949 0.0152555 0.022198 0.0470468 0.033527 0.0504768 0.0453156 0.0530947 0.0372761 0.0518893 0.0488913 0.0695547 0.0991479 0.0613307 0.0766542 0.0536041 0.0756732 0.0710911
104 3 O 3.08659 17.9389 3.18632 -1.2 1 0.0254525 0.0142116 0.0204399 0.0117914 0.018381 0.0405559 0.0380756 0.0560892 0.0459666 0.0496718 0.0570449 0.047834 0.0517154 0.0513678 0.0801401 0.0597638 0.0667033 0.0598193 0.0635451 0.0697643
105 1 Mg 1.44478 16.6215 0 1.2 1 0.00955792 0.0120412 0.0217191 0.0127611 0.0267571 0.0315532 0.0479217 0.0354054 0.0506885 0.0504502 0.0517685 0.0398166 0.0586723 0.0494245 0.0697998 0.0660615 0.0601951 0.0677995 0.0885803 0.0639209
106 3 O 3.0436 17.9389 5.78248 -1.2 1 0.0146052 0.0135093 0.0212771 0.0223243 0.0212679 0.0220354 0.0496091 0.044068 0.0418631 0.0411813 0.0573369 0.0373225 0.0550418 0.0599381 0.0853337 0.0643267 0.0685194 0.0599459 0.0638518 0.0802904
107 1 Mg -1.40524 16.6628 1.4948 1.2 1 0.0115936 0.0124804 0.0258103 0.0176407 0.01752 0.0344263 0.0362027 0.0424989 0.0414605 0.0604729 0.0406233 0.0626674 0.0548587 0.0645945 0.0739879 0.0692852 0.0642227 0.0778046 0.078098 0.0759777
108 2 Si 0.420358 14.5979 1.4948 2.4 1 0.0210069 0.0198456 0.0271532 0.0268675 0.0181467 0.0393454 0.0394867 0.039804 0.0450786 0.0555036 0.044018 0.0606321 0.0578636 0.0636001 0.0676812 0.0596504 0.0724413 0.0761947 0.0624858 0.0716705
109 3 O 0.408732 12.9847 1.4948 -1.2 1 0.0222335 0.0155374 0.0229121 0.0256655 0.0168166 0.0472487 0.0438351 0.0538688 0.036239 0.052605 0.0423693 0.0692711 0.0534575 0.0569002 0.0660425 0.0634934 0.0714486 0.0549295 0.0683221 0.0716058
110 3 O 7.03923 15.572 1.4948 -1.2 1 0.0293028 0.0168936 0.0218665 0.0128143 0.0360923 0.033483 0.0369298 0.0560846 0.0381637 0.044405 0.0512171 0.0533878 0.0482562 0.0740975 0.078204 0.0784001 0.064255 0.06961 0.062383 0.0775082
111 3 O -0.248332 15.3041 0.196716 -1.2 1 0.0189885 0.0130191 0.0211991 0.0183771 0.0252038 0.0464682 0.0487988 0.0430609 0.03918 0.0447246 0.0378885 0.0307114 0.0608381 0.0541909 0.0700008 0.0643416 0.0833013 0.0502833 0.0703103 0.0722635
112 3 O -0.289436 15.3041 2.79288 -1.2 1 0.014237 0.0170993 0.0291182 0.0110927 0.0312495 0.0357692 0.0439103 0.0473133 0.0435553 0.0404211 0.0545675 0.0485653 0.0513331 0.0535023 0.0723396 0.0698329 0.0710495 0.0554885 0.0689938 0.0759733
113 1 Mg 6.59566 18.996 0 1.2 1 0.0138339 0.0116382 0.0198435 0.0144335 0.0259154 0.0317175 0.0431431 0.0331513 0.0538408 0.0493352 0.053775 0.0391148 0.051975 0.0528838 0.0720494 0.0645051 0.0641486 0.0647828 0.086137 0.0706106
114 1 Mg 3.85574 23.7037 1.4948 1.2 1 0.0107097 0.0126673 0.0211995 0.0140577 0.022606 0.0288433 0.0312373 0.0372374 0.0390452 0.0602144 0.0469352 0.0625197 0.0500019 0.066917 0.0646822 0.0723861 0.0663888 0.0797743 0.0799645 0.0758745
115 2 Si 5.66125 21.0195 1.4948 2.4 1 0.00823593 0.0242621 0.0232454 0.0273077 0.0192755 0.0462727 0.034137 0.041441 0.0492353 0.0542491 0.0454375 0.0605684 0.0559555 0.0595016 0.0717525 0.0607893 0.0734548 0.0773146 0.0643758 0.0758345
116 3 O 5.72074 22.6328 1.4948 -1.2 1 0.0282053 0.0192049 0.0182908 0.0228089 0.0191227 0.0447111 0.0455328 0.0618967 0.0382918 0.0520231 0.0330077 0.0697773 0.0494238 0.053578 0.0680715 0.0557051 0.0650269 0.0678838 0.0563717 0.0711972
117 3 O 2.03867 20.0455 1.4948 -1.2 1 0.0300322 0.0164998 0.0267586 0.0159222 0.0341656 0.0300212 0.0359893 0.0552656 0.0439517 0.0427484 0.0505978 0.0505383 0.0478291 0.073711 0.0847995 0.0726949 0.0617775 0.0679305 0.0636904 0.0732108
118 3 O 4.96004 20.3134 0.196716 -1.2 1 0.0242226 0.0103151 0.0243442 0.0198483 0.0223726 0.0457082 0.0451439 0.0480104 0.0403926 0.0420884 0.0405838 0.0351193 0.0652346 0.0477133 0.0697569 0.0736562 0.0703129 0.0582961 0.0709446 0.0716177
119 1 Mg 6.55057 18.996 2.9896 1.2 1 0.0105882 0.016774 0.0201492 0.023568 0.021463 0.0352632 0.0365187 0.0541586 0.034755 0.0589579 0.0350543 0.0630312 0.0217135 0.0691623 0.0455483 0.0747293 0.0462638 0.0950823 0.0436459 0.0936922
120 3 O 4.92172 20.3134 2.79288 -1.2 1 0.0132814 0.0102994 0.0301676 0.0142238 0.0301131 0.040589 0.0462522 0.0461515 0.0468996 0.0423472 0.0526754 0.0410568 0.0530469 0.0534005 0.0757354 0.0663044 0.0758002 0.0481116 0.0719181 0.0720192
121 1 Mg -0.84282 19.0373 4.4844 1.2 1 0.014942 0.0129536 0.0137752 0.027752 0.0234249 0.027277 0.0367281 0.032282 0.0451791 0.0496661 0.0598282 0.0566957 0.066926 0.0692122 0.0588885 0.0721332 0.0709534 0.094112 0.0730471 0.0838238
122 2 Si -2.64823 21.7214 4.4844 2.4 1 0.0196938 0.0129017 0.0171939 0.0280611 0.0284702 0.0409687 0.0566755 0.0311785 0.0546717 0.0628721 0.052293 0.0644015 0.0597666 0.0553697 0.0765567 0.0715002 0.0454917 0.0934989 0.0540112 0.0650594
123 3 O -2.70847 20.1082 4.4844 -1.2 1 0.0125081 0.0178217 0.0158207 0.0256292 0.0258271 0.0237825 0.0409146 0.0644981 0.0456069 0.0494704 0.0395925 0.0708564 0.0509278 0.0579813 0.0674934 0.0657057 0.0506681 0.071754 0.0648156 0.0774236
124 3 O 0.97581 22.6955 4.4844 -1.2 1 0.0171081 0.0246588 0.0199354 0.0186131 0.020701 0.0427692 0.0306589 0.0498664 0.0447684 0.0547431 0.0401651 0.0463337 0.0467908 0.0714214 0.109481 0.0526299 0.0680689 0.0567068 0.0730956 0.0672514
125 3 O -1.9076 22.4276 3.18632 -1.2 1 0.0219414 0.00794955 0.0210764 0.016248 0.0136541 0.0366623 0.0439731 0.0555829 0.0373771 0.0501972 0.0544994 0.0491663 0.0560632 0.0482152 0.0809571 0.057457 0.0689931 0.0660831 0.0627207 0.0655762
126 3 O -1.9475 22.4276 5.78248 -1.2 1 0.0126684 0.00753302 0.0227134 0.021512 0.017508 0.0264102 0.0493924 0.0470672 0.0371386 0.0369424 0.0567346 0.0388199 0.0561552 0.0611616 0.0812657 0.0677664 0.0723517 0.0614141 0.0660866 0.0770869