ITEM: TIMESTEP
54700
ITEM: NUMBER OF ATOMS
10500
ITEM: BOX BOUNDS xy xz yz pp pp pp
0	15.2977	5.09925
0	118.725	0
0	89.688	0
ITEM: ATOMS id type element xu yu zu q Q_1 Q_2 Q_3 Q_4 Q_5 Q_6 Q_7 Q_8 Q_9 Q_10 Q_11 Q_12 Q_13 Q_14 Q_15 Q_16 Q_17 Q_18 Q_19 Q_20 Q_21
1 1 Mg 6.2404 -6.37941e-06 0 1.2 1 0.0104321 0.0416588 0.0325925 0.0375267 0.0306987 0.0392616 0.0349492 0.0664962 0.039149 0.0713693 0.0341234 0.0611093 0.0468619 0.06871 0.0499193 0.090055 0.0505859 0.0833222 0.0506125 0.10025
2 1 Mg 3.46349 4.70768 1.4948 1.2 1 0.0168989 0.0167158 0.0244156 0.0216655 0.0201408 0.0421341 0.0422508 0.0395682 0.0456494 0.0553953 0.0424954 0.0708325 0.057608 0.0715178 0.0716615 0.0645054 0.0679787 0.0852258 0.0730707 0.0819531
3 2 Si 5.2885 2.02354 1.4948 2.4 1 0.0173299 0.0227622 0.0319594 0.0266705 0.031337 0.0378693 0.0547541 0.0316849 0.0432581 0.0542593 0.053094 0.060994 0.055536 0.0653301 0.0677574 0.0785789 0.0697907 0.0639426 0.0646859 0.0719205
4 3 O 5.33628 3.63678 1.4948 -1.2 1 0.00943244 0.0142424 0.0269899 0.0259089 0.018401 0.0390531 0.041706 0.0600938 0.0350592 0.03984 0.0548884 0.0505771 0.0680064 0.0576408 0.0596144 0.0648444 0.0602254 0.0618133 0.0707407 0.0747508
5 3 O 1.67294 1.04952 1.4948 -1.2 1 0.0130084 0.0197244 0.0228825 0.0358128 0.0311063 0.0385082 0.0358009 0.0606768 0.0356719 0.0590478 0.0444528 0.0526671 0.0703125 0.0595125 0.0757949 0.0697877 0.063273 0.0649647 0.0788247 0.0606234
6 3 O 4.59532 1.31737 0.196716 -1.2 1 0.0256524 0.0229571 0.0598265 0.0244233 0.0320489 0.049039 0.0377594 0.0458037 0.0335823 0.0375956 0.039031 0.051265 0.0542789 0.0556886 0.0634752 0.0691494 0.0614206 0.0704299 0.0578472 0.0711943
7 1 Mg 6.18956 -6.37941e-06 2.9896 1.2 1 0.0125985 0.0263035 0.0170827 0.0215549 0.0369064 0.0418613 0.0504983 0.0405742 0.0489254 0.0458725 0.0397846 0.053146 0.0400795 0.0556692 0.0582918 0.078816 0.0567056 0.0691478 0.059715 0.0713724
8 3 O 4.55118 1.31737 2.79288 -1.2 1 0.0221901 0.0252164 0.0379483 0.0172487 0.0283964 0.0439916 0.0441948 0.0467318 0.0428455 0.0537454 0.054663 0.0479027 0.0489598 0.0651575 0.0536565 0.0699527 0.0650144 0.0660365 0.0651326 0.0703105
9 1 Mg -1.20682 0.0413099 4.4844 1.2 1 0.0165373 0.0235123 0.0255019 0.0272826 0.0346767 0.0401871 0.0336501 0.0517811 0.0527155 0.0371131 0.049957 0.0635688 0.0668542 0.0560829 0.0771192 0.0631463 0.0809477 0.0778388 0.0612753 0.0541473
10 2 Si -3.0337 2.72544 4.4844 2.4 1 0.033808 0.0167885 0.023714 0.0149691 0.0306609 0.0404854 0.0583719 0.0380196 0.0607011 0.0559745 0.0477075 0.0620845 0.0552872 0.0746493 0.0568608 0.0606928 0.0711743 0.0795981 0.0708896 0.0596487
11 3 O -3.08099 1.11221 4.4844 -1.2 1 0.0110354 0.0250017 0.025294 0.0256408 0.0397091 0.0262875 0.0487076 0.0478967 0.0380215 0.0405106 0.0443094 0.0740845 0.0530701 0.0507915 0.056177 0.0689011 0.0568931 0.0768683 0.0726787 0.0784335
12 3 O 0.582463 3.69946 4.4844 -1.2 1 0.01172 0.0158177 0.0304564 0.0304842 0.0270471 0.0592561 0.0359032 0.0527313 0.0423721 0.040667 0.0538712 0.0565801 0.0605877 0.0693747 0.10083 0.0695975 0.0819854 0.0404498 0.0700663 0.0675496
13 3 O -2.29524 3.43162 3.18632 -1.2 1 0.0129333 0.0206003 0.0267036 0.0306802 0.0199869 0.0505148 0.050896 0.0498918 0.0418416 0.0526755 0.0579668 0.0556739 0.0411754 0.0514711 0.0591364 0.0656792 0.0663683 0.062346 0.0647027 0.0722535
14 3 O -2.34216 3.43162 5.78248 -1.2 1 0.0225348 0.0120351 0.0219365 0.0286604 0.0250538 0.0409871 0.0524985 0.0454879 0.0404029 0.0566245 0.0591199 0.0472119 0.0593353 0.050963 0.0731229 0.0716349 0.0635054 0.0719014 0.0726932 0.0704071
15 1 Mg 1.12778 2.37449 2.9896 1.2 1 0.0164271 0.0416633 0.0161854 0.0240054 0.0258085 0.042092 0.0408715 0.0506135 0.0367854 0.0607796 0.0357876 0.0603783 0.0404012 0.064741 0.0627339 0.0697021 0.0681618 0.0818932 0.0465166 0.0886777
16 1 Mg 3.92855 2.33318 4.4844 1.2 1 0.0289127 0.0160373 0.0239229 0.0285851 0.0449537 0.025548 0.0373919 0.0372813 0.045515 0.0701424 0.0515447 0.0608893 0.048203 0.0613328 0.0563994 0.0752859 0.0631087 0.0936959 0.0756687 0.0856376
17 2 Si 2.09341 4.39804 4.4844 2.4 1 0.0157255 0.0178871 0.033037 0.018654 0.0421583 0.0290311 0.0603477 0.0227468 0.0433115 0.0448583 0.0634491 0.0609359 0.067288 0.0613381 0.0698562 0.0747991 0.0722236 0.0826408 0.0529256 0.0646883
18 3 O 2.09991 6.01128 4.4844 -1.2 1 0.0107304 0.0122166 0.0173671 0.0187372 0.0336308 0.023567 0.049833 0.0525682 0.045363 0.0464258 0.0477538 0.0661535 0.0465786 0.0613253 0.0648052 0.0723803 0.0457956 0.0789588 0.0615035 0.0696855
19 3 O -4.52137 3.42402 4.4844 -1.2 1 0.014646 0.0290489 0.0315546 0.0253179 0.0266261 0.0569143 0.0382749 0.0488916 0.0564579 0.0553175 0.0310742 0.0558958 0.0517748 0.0548837 0.0896545 0.0738574 0.0788786 0.0601247 0.0725774 0.053767
20 3 O 2.80834 3.69187 3.18632 -1.2 1 0.00865746 0.019232 0.0214843 0.0248623 0.0220186 0.0382623 0.0363553 0.0500504 0.0446633 0.0595016 0.0677072 0.0509639 0.0425765 0.0648487 0.0709914 0.0707558 0.0619306 0.0579228 0.070574 0.0708541
21 1 Mg 1.17857 2.37449 0 1.2 1 0.0116933 0.0372066 0.0288411 0.0303194 0.0374618 0.040589 0.044819 0.0596287 0.0357992 0.0485124 0.0524515 0.0412674 0.0433155 0.0676881 0.053333 0.0661602 0.0613505 0.081173 0.0583914 0.072791
22 3 O 2.76143 3.69187 5.78248 -1.2 1 0.00998957 0.0239574 0.0195785 0.0218663 0.0215728 0.0322384 0.0417334 0.0455568 0.0326817 0.0459216 0.058104 0.0453934 0.0548493 0.0766896 0.0738424 0.0702958 0.0675529 0.0608199 0.0712324 0.0777354
23 1 Mg -1.67381 2.41581 1.4948 1.2 1 0.0113796 0.0115694 0.0371971 0.0361752 0.032242 0.0440402 0.0585057 0.0403682 0.0509736 0.0402601 0.0462719 0.0594591 0.0549204 0.063661 0.0615084 0.0643403 0.0833458 0.0778222 0.0666784 0.0738514
24 2 Si 0.16286 0.350945 1.4948 2.4 1 0.0155482 0.0361136 0.0280202 0.0278598 0.0340674 0.0345099 0.0560431 0.0483847 0.0526105 0.0492175 0.0400694 0.0563517 0.0744199 0.0694715 0.0599829 0.0741609 0.0715316 0.0663609 0.0730021 0.0663201
25 3 O 0.15972 -1.26229 1.4948 -1.2 1 0.00757217 0.0200492 0.0374487 0.0238117 0.0348656 0.0373555 0.0461648 0.0542117 0.0486842 0.0514111 0.0562647 0.0585603 0.0629411 0.0668042 0.0503463 0.0600625 0.0695935 0.0673645 0.0615128 0.0730315
26 3 O 6.77654 1.32496 1.4948 -1.2 1 0.0113872 0.027692 0.0266011 0.02766 0.0372434 0.0543074 0.0344344 0.0645313 0.0476243 0.0467197 0.0443806 0.0523852 0.0526052 0.0595412 0.0686732 0.0713607 0.0845858 0.0633221 0.0595815 0.0747611
27 3 O -0.508028 1.05712 0.196716 -1.2 1 0.0297771 0.0143526 0.0338579 0.0189593 0.0317308 0.05312 0.0440551 0.0451038 0.0467598 0.0481286 0.0505016 0.0477489 0.0502483 0.0642258 0.0565009 0.0650476 0.0646147 0.0618831 0.0723885 0.0724811
28 3 O -0.552171 1.05712 2.79288 -1.2 1 0.0352069 0.0285216 0.0368449 0.031854 0.0227042 0.0435997 0.040175 0.0449869 0.0435763 0.035905 0.0488833 0.0485805 0.0563408 0.0596996 0.063456 0.0756456 0.0748357 0.0508147 0.0707354 0.069757
29 1 Mg 6.31713 4.74899 0 1.2 1 0.0282895 0.0321441 0.031598 0.0347679 0.0334407 0.0253361 0.0421148 0.0549961 0.0589605 0.0482971 0.049846 0.039413 0.0575203 0.0606174 0.0641762 0.0634272 0.0673961 0.073059 0.0702175 0.0703151
30 1 Mg 3.54847 9.45668 1.4948 1.2 1 0.0173519 0.0169709 0.0162316 0.0230454 0.0197738 0.0387445 0.0387133 0.0417723 0.0435598 0.0547326 0.0375841 0.0710087 0.053766 0.0655021 0.0727706 0.0629813 0.0664815 0.088225 0.0749584 0.0790846
31 2 Si 5.36879 6.77254 1.4948 2.4 1 0.0290776 0.0270253 0.0239203 0.0255445 0.0247217 0.034886 0.0442291 0.0362404 0.0446651 0.0570207 0.0421728 0.058072 0.053767 0.0667515 0.065698 0.0740429 0.067491 0.0791436 0.0562843 0.0690072
32 3 O 5.41937 8.38578 1.4948 -1.2 1 0.0215204 0.0113734 0.0234224 0.0297129 0.0174512 0.043113 0.0440817 0.05737 0.0362727 0.0507502 0.047294 0.0641326 0.0549113 0.0538655 0.0662669 0.0607069 0.0728098 0.0561588 0.0729621 0.0732533
33 3 O 1.75158 5.79852 1.4948 -1.2 1 0.0284477 0.0123092 0.0222949 0.026635 0.0441421 0.0308844 0.0390379 0.0571742 0.0410428 0.0525873 0.0494995 0.0500695 0.0471792 0.0712486 0.0788007 0.0783341 0.0602873 0.0750868 0.0598075 0.0766345
34 3 O 4.67421 6.06637 0.196716 -1.2 1 0.00866198 0.0308082 0.0325549 0.0263725 0.0317382 0.0381466 0.034543 0.0317336 0.0433789 0.054966 0.0400115 0.044715 0.0662259 0.0543982 0.0670926 0.0698292 0.0716815 0.0672669 0.060575 0.0702294
35 1 Mg 6.26654 4.74899 2.9896 1.2 1 0.0171459 0.027399 0.0258119 0.0375031 0.0266635 0.0417881 0.0488402 0.0473725 0.0353707 0.0643559 0.0383835 0.0590368 0.0400591 0.0625996 0.0525414 0.0761955 0.0544532 0.0846202 0.0469597 0.0902994
36 3 O 4.63043 6.06637 2.79288 -1.2 1 0.0186324 0.0200288 0.0418152 0.0191713 0.0323721 0.036527 0.0427937 0.0485733 0.0451219 0.0369589 0.0495256 0.0529251 0.0571717 0.0651645 0.0619866 0.0726243 0.066309 0.0669925 0.0678002 0.085746
37 1 Mg -1.12976 4.79031 4.4844 1.2 1 0.0212165 0.0303412 0.00968969 0.0124815 0.0398716 0.0376612 0.0501708 0.0487704 0.0412179 0.042161 0.0569482 0.0616108 0.0757713 0.0690366 0.0613687 0.071566 0.069701 0.0948475 0.0679983 0.0818798
38 2 Si -2.9517 7.47444 4.4844 2.4 1 0.0196613 0.0153161 0.0188757 0.0289627 0.027645 0.0413969 0.0607698 0.028069 0.0561289 0.0590543 0.0520867 0.0563391 0.0644073 0.0558605 0.0801397 0.0690369 0.0527921 0.0878179 0.0564707 0.0626094
39 3 O -3.00198 5.86121 4.4844 -1.2 1 0.0126963 0.0219877 0.0278945 0.0271205 0.0333378 0.031197 0.0555021 0.0609483 0.0392827 0.0546985 0.0481216 0.071547 0.0588729 0.056912 0.0657896 0.0716576 0.0474655 0.073712 0.0623878 0.0799513
40 3 O 0.666315 8.44846 4.4844 -1.2 1 0.0233992 0.0220656 0.0242647 0.0180339 0.024046 0.0518701 0.0341566 0.047803 0.0434846 0.0474776 0.0402058 0.048409 0.0503454 0.0731463 0.10317 0.0687849 0.0749218 0.048087 0.0708429 0.0712344
41 3 O -2.21213 8.18062 3.18632 -1.2 1 0.0171445 0.0101418 0.0202914 0.015937 0.0155447 0.0339775 0.0449871 0.0552562 0.0424723 0.0564031 0.0526095 0.051843 0.053174 0.0479447 0.0777179 0.0607615 0.0725624 0.0592913 0.0701196 0.0712699
42 3 O -2.25864 8.18062 5.78248 -1.2 1 0.0115743 0.0131597 0.0231405 0.0216514 0.0184476 0.0243024 0.0517144 0.047816 0.0374487 0.0387782 0.0550139 0.0341544 0.0561298 0.059878 0.0792037 0.0670593 0.0695429 0.0586601 0.0667002 0.0758537
43 1 Mg 1.20893 7.12349 2.9896 1.2 1 0.00442497 0.0229655 0.0185534 0.0256306 0.0233294 0.0405478 0.0425403 0.0459946 0.0338506 0.064582 0.0387418 0.0681746 0.0338452 0.058171 0.0510917 0.0818583 0.0514024 0.0836738 0.047185 0.0880621
44 1 Mg 4.00982 7.08218 4.4844 1.2 1 0.0183531 0.0139732 0.0261789 0.0335607 0.0347469 0.0336369 0.0422334 0.0374794 0.0461141 0.0529657 0.0570658 0.057339 0.0718789 0.074031 0.0581869 0.069168 0.0624794 0.096603 0.0756011 0.08159
45 2 Si 2.17861 9.14704 4.4844 2.4 1 0.0264512 0.0110924 0.0231355 0.0225728 0.0319276 0.032762 0.0619764 0.0227523 0.0501063 0.0564684 0.054548 0.059534 0.0654442 0.0565661 0.0776873 0.0681866 0.0486769 0.093543 0.0557586 0.0568727
46 3 O 2.18828 10.7603 4.4844 -1.2 1 0.0207636 0.0124348 0.00810016 0.0167105 0.0260955 0.0239493 0.0410922 0.0602702 0.0394581 0.0538412 0.0421057 0.072062 0.0462327 0.0651335 0.0676983 0.0730786 0.0447545 0.0729909 0.0616709 0.0751542
47 3 O -4.43805 8.17302 4.4844 -1.2 1 0.0125804 0.0163973 0.0196752 0.0162615 0.0245192 0.0500439 0.040468 0.0488936 0.0438814 0.0485534 0.0368727 0.0538517 0.0519142 0.0744737 0.0999303 0.0681589 0.0790856 0.0506258 0.0730378 0.0725644
48 3 O 2.89193 8.44087 3.18632 -1.2 1 0.0206388 0.0156335 0.0207288 0.0122096 0.0197839 0.0403284 0.0333015 0.0541311 0.0401651 0.0542905 0.0581221 0.0487927 0.0512585 0.0523567 0.0804645 0.0612242 0.0706389 0.0592067 0.0659439 0.0734819
49 1 Mg 1.25915 7.12349 0 1.2 1 0.0200191 0.0152517 0.0247691 0.0146685 0.0322047 0.0255591 0.0527214 0.0406111 0.0558032 0.0500392 0.0525478 0.0427249 0.0726091 0.051766 0.067847 0.0709827 0.0648745 0.071293 0.0811247 0.0586153
50 3 O 2.84547 8.44087 5.78248 -1.2 1 0.0106865 0.0160481 0.0133204 0.0201786 0.0206636 0.0277444 0.0478923 0.0464291 0.0391144 0.0419146 0.059574 0.0418333 0.058316 0.0588568 0.0908977 0.0622917 0.0719525 0.066061 0.0650137 0.0775692
51 1 Mg -1.59284 7.16481 1.4948 1.2 1 0.012296 0.0159544 0.0219016 0.0217817 0.0142379 0.0375079 0.0452759 0.0429488 0.0430164 0.0567452 0.0392766 0.0655172 0.0514484 0.0684699 0.0734459 0.0610387 0.0685998 0.0842203 0.0735254 0.0778631
52 2 Si 0.240329 5.09994 1.4948 2.4 1 0.0245748 0.0171819 0.0160643 0.0433998 0.0273681 0.0404031 0.0469539 0.0533328 0.0551327 0.0490828 0.0453982 0.0576023 0.0588503 0.0677788 0.0654907 0.0668147 0.0635336 0.0724641 0.0661687 0.0675493
53 3 O 0.234538 3.48671 1.4948 -1.2 1 0.0130701 0.0166968 0.0264273 0.0361286 0.0310621 0.0487535 0.0459036 0.0425031 0.0526611 0.047564 0.0516447 0.0616211 0.0556978 0.0608601 0.06107 0.0633881 0.0624271 0.0576701 0.0753995 0.0753337
54 3 O 6.85564 6.07396 1.4948 -1.2 1 0.0324718 0.0194843 0.0345969 0.0275917 0.0371374 0.0401736 0.0326354 0.0621477 0.0365322 0.0529294 0.0536711 0.0535325 0.0555054 0.0736339 0.0700035 0.0772236 0.0664738 0.0724787 0.0534892 0.0850333
55 3 O -0.429565 5.80612 0.196716 -1.2 1 0.0312726 0.0209336 0.0159633 0.0210337 0.0417024 0.0379986 0.0534967 0.0450727 0.0449179 0.0548828 0.0404518 0.0398525 0.0524724 0.0603233 0.0594278 0.0675432 0.0722019 0.0604676 0.0654416 0.0746884
56 3 O -0.473377 5.80612 2.79288 -1.2 1 0.0274072 0.0195739 0.0313408 0.0182584 0.0329562 0.0480305 0.048783 0.0494741 0.0550794 0.0438483 0.0613785 0.0367324 0.0419934 0.0594241 0.0664591 0.0704801 0.0651816 0.0717233 0.0708455 0.0799485
57 1 Mg 6.40169 9.49799 0 1.2 1 0.0171971 0.00979109 0.0188989 0.0114704 0.0296672 0.0199856 0.0519961 0.0364054 0.0592681 0.0495724 0.0491372 0.0361902 0.0673655 0.053746 0.0722383 0.0669169 0.0657067 0.0710388 0.0820694 0.0685458
58 1 Mg 3.64209 14.2057 1.4948 1.2 1 0.0105301 0.0109823 0.0183625 0.0161801 0.0218253 0.0336269 0.0359861 0.0433229 0.0410407 0.0552993 0.0392048 0.0675041 0.0535458 0.0662647 0.0740754 0.0638845 0.0641891 0.0822236 0.0742045 0.0787884
59 2 Si 5.45748 11.5215 1.4948 2.4 1 0.0142026 0.0222174 0.0223814 0.0254199 0.0183681 0.0412295 0.0399057 0.0393235 0.0439004 0.0547919 0.0425006 0.0606006 0.0533402 0.0668466 0.0706171 0.0647248 0.0724419 0.0815988 0.0588471 0.0664628
60 3 O 5.51101 13.1348 1.4948 -1.2 1 0.0242872 0.0136804 0.0226023 0.0292555 0.0200403 0.0435968 0.0443521 0.0589936 0.036264 0.0491075 0.0432411 0.0671853 0.0538763 0.0536088 0.0662888 0.0599625 0.0707272 0.0577482 0.0694419 0.0716256
61 3 O 1.83851 10.5475 1.4948 -1.2 1 0.0394846 0.0144922 0.0198826 0.010813 0.0361721 0.0313015 0.0373159 0.0567524 0.0391456 0.0472601 0.0502701 0.0510079 0.0483 0.0749238 0.0758802 0.079597 0.0571153 0.0766182 0.0575524 0.0791261
62 3 O 4.7611 10.8154 0.196716 -1.2 1 0.0355838 0.0190084 0.0194669 0.0180925 0.0269305 0.044514 0.0483842 0.0379575 0.0387941 0.0494783 0.0369287 0.0411307 0.0608113 0.0612723 0.0647467 0.0716916 0.0756312 0.0655145 0.0731587 0.0679744
63 1 Mg 6.35203 9.49799 2.9896 1.2 1 0.0169661 0.0201117 0.0261418 0.0208461 0.0201286 0.0365365 0.0370423 0.0522839 0.032918 0.0583315 0.0306284 0.0639884 0.0278448 0.0648955 0.0476442 0.0820389 0.0455989 0.0894644 0.044803 0.0899209
64 3 O 4.71833 10.8154 2.79288 -1.2 1 0.0216853 0.0127785 0.0325566 0.0130727 0.0304423 0.0435282 0.0429598 0.0454226 0.0434102 0.0369604 0.0533959 0.0408574 0.0543521 0.0582745 0.0728946 0.0676649 0.0724864 0.0594509 0.0698601 0.0794023
65 1 Mg -1.0438 9.53931 4.4844 1.2 1 0.00791459 0.0150702 0.0187741 0.0206942 0.0305312 0.0267194 0.0360763 0.0356365 0.046688 0.0517985 0.0566812 0.0580828 0.0690886 0.0696001 0.0579402 0.0697657 0.0713806 0.0989557 0.0731503 0.08256
66 2 Si -2.8604 12.2234 4.4844 2.4 1 0.0142885 0.0140269 0.0170259 0.0239156 0.0306822 0.0427038 0.0580989 0.0319659 0.0526298 0.0625534 0.0543743 0.0625999 0.0594688 0.0559644 0.081111 0.0703647 0.0526266 0.0909841 0.0571499 0.0638205
67 3 O -2.91391 10.6102 4.4844 -1.2 1 0.0245161 0.00832851 0.0109981 0.0234841 0.023669 0.0266463 0.0404187 0.0644095 0.0418172 0.0488802 0.035941 0.070346 0.0450839 0.0591994 0.0673209 0.0700252 0.0510895 0.0725404 0.0611652 0.0745533
68 3 O 0.7596 13.1975 4.4844 -1.2 1 0.0185175 0.0219215 0.0224815 0.014365 0.0263235 0.0464844 0.0344497 0.0498425 0.0469305 0.0510183 0.0399185 0.0499089 0.0467239 0.0728971 0.101772 0.0639953 0.0766033 0.0539096 0.069922 0.072266
69 3 O -2.12001 12.9296 3.18632 -1.2 1 0.0168827 0.00763353 0.0214809 0.0186393 0.0219286 0.0362683 0.0427289 0.0543194 0.0440703 0.0550007 0.0551163 0.0481118 0.0573008 0.050863 0.0811173 0.0635637 0.074613 0.062036 0.0681759 0.0702844
70 3 O -2.16532 12.9296 5.78248 -1.2 1 0.0124754 0.00604366 0.0206351 0.0213589 0.0182268 0.0280255 0.0521319 0.0482239 0.0369007 0.0385053 0.0561136 0.0384516 0.0603746 0.0588459 0.084114 0.067437 0.0718944 0.0638859 0.0680931 0.0736522
71 1 Mg 1.29891 11.8725 2.9896 1.2 1 0.00838691 0.0161087 0.0217466 0.0238231 0.0169133 0.0379959 0.0356966 0.0491832 0.0350634 0.0600437 0.0342745 0.0609486 0.0242417 0.0681567 0.0489131 0.0844755 0.0494162 0.0896556 0.0468797 0.0858712
72 1 Mg 4.10033 11.8312 4.4844 1.2 1 0.00681206 0.013332 0.0189563 0.0245943 0.0251868 0.0343014 0.0362767 0.0357141 0.0476064 0.0517308 0.0532742 0.0521531 0.0702197 0.0656593 0.0500092 0.0701151 0.0723119 0.0980529 0.0743458 0.0812484
73 2 Si 2.27333 13.896 4.4844 2.4 1 0.0232877 0.00813322 0.0286483 0.0266644 0.0255487 0.035317 0.0617202 0.0305201 0.0534454 0.0570624 0.0545912 0.0600727 0.063863 0.0571215 0.0799296 0.0677885 0.046142 0.0952161 0.0558478 0.0573515
74 3 O 2.28634 15.5093 4.4844 -1.2 1 0.0205199 0.0134707 0.00513309 0.0186961 0.0241264 0.0227483 0.0401807 0.0600232 0.0403746 0.0523174 0.03993 0.0724526 0.0480245 0.06398 0.0703244 0.0686605 0.0491159 0.0702117 0.0676803 0.0724888
75 3 O -4.34533 12.922 4.4844 -1.2 1 0.0210441 0.0190961 0.0225532 0.0132616 0.024503 0.04911 0.0373719 0.0510266 0.0464325 0.0526959 0.0373936 0.0512504 0.0462969 0.0709388 0.101512 0.0692627 0.0789977 0.0524771 0.0715408 0.072893
76 3 O 2.98455 13.1899 3.18632 -1.2 1 0.0253084 0.0110213 0.0181827 0.010725 0.0185472 0.0392708 0.0386551 0.0568427 0.0425615 0.0551191 0.0560849 0.0474802 0.0517713 0.0505829 0.0806152 0.0616854 0.0685546 0.0613056 0.0644703 0.0728233
77 1 Mg 1.34779 11.8725 0 1.2 1 0.0216157 0.00908017 0.0220451 0.0147681 0.028764 0.0229015 0.0516708 0.0348968 0.0576286 0.0510161 0.0498481 0.0350159 0.0651271 0.0496648 0.0705946 0.0642051 0.0617308 0.0698439 0.0874212 0.0599886
78 3 O 2.93934 13.1899 5.78248 -1.2 1 0.0190569 0.0133568 0.0206428 0.0217708 0.0173917 0.023882 0.0512945 0.0454166 0.0410631 0.0414659 0.0605607 0.0361462 0.0565594 0.0580421 0.0845873 0.064423 0.0710141 0.0619534 0.0642429 0.073463
79 1 Mg -1.50344 11.9138 1.4948 1.2 1 0.0129186 0.0180332 0.0227069 0.0203704 0.011841 0.0369501 0.0383415 0.0422187 0.0402364 0.0593944 0.0344006 0.0656346 0.0507164 0.0653684 0.0751364 0.068428 0.0642088 0.0839512 0.0764526 0.0785574
80 2 Si 0.326006 9.84894 1.4948 2.4 1 0.0249509 0.0189756 0.0249095 0.0300442 0.0173807 0.0386767 0.0443799 0.0375832 0.0447191 0.0557925 0.040715 0.0586106 0.0559492 0.0673179 0.0618006 0.062878 0.0706171 0.079623 0.0619512 0.0692602
81 3 O 0.317364 8.23571 1.4948 -1.2 1 0.0248169 0.0122958 0.0214797 0.0259358 0.0195009 0.0454609 0.0414454 0.0495119 0.0343902 0.0542737 0.0446179 0.0645414 0.0569853 0.0587801 0.06583 0.0658685 0.0708661 0.0537255 0.0721923 0.0756872
82 3 O 6.94307 10.823 1.4948 -1.2 1 0.0312552 0.0147309 0.0219284 0.0117035 0.0372895 0.0326837 0.0382546 0.0577783 0.0348073 0.0474926 0.0511343 0.0524436 0.0499524 0.07498 0.0729634 0.0795207 0.0613994 0.0731139 0.0584518 0.0797423
83 3 O -0.343122 10.5551 0.196716 -1.2 1 0.030895 0.0174756 0.0215614 0.0208755 0.0298601 0.0414475 0.0511382 0.0397327 0.0388099 0.0507942 0.0370122 0.0378975 0.061664 0.0607705 0.0687105 0.0709328 0.0809258 0.0540916 0.0696016 0.0690537
84 3 O -0.385966 10.5551 2.79288 -1.2 1 0.0259451 0.0168705 0.0294367 0.0135286 0.0330513 0.0415599 0.044126 0.0455701 0.0436423 0.038833 0.0528452 0.0477874 0.0477902 0.0547595 0.069681 0.0721837 0.0679875 0.0621965 0.0690543 0.0797787
85 1 Mg 6.49448 14.247 0 1.2 1 0.0223991 0.0100865 0.0183614 0.0172146 0.0285386 0.022761 0.0480491 0.033064 0.0593815 0.0482784 0.051413 0.0372837 0.0629496 0.0531368 0.0712592 0.0650536 0.0643401 0.0706864 0.0847817 0.0704247
86 1 Mg 3.74457 18.9547 1.4948 1.2 1 0.0107732 0.0134494 0.0165557 0.0171128 0.0263266 0.0303114 0.0312894 0.0388493 0.0371634 0.0567259 0.0426615 0.0699658 0.05196 0.0669065 0.0713104 0.0702083 0.0617229 0.0839406 0.0791765 0.0765234
87 2 Si 5.55495 16.2705 1.4948 2.4 1 0.0120871 0.0203301 0.0219708 0.0266835 0.0184366 0.0426677 0.0362496 0.0421739 0.0449155 0.0514068 0.0435716 0.0615219 0.0546841 0.0638231 0.0698032 0.0587323 0.073307 0.0799566 0.0606811 0.0713014
88 3 O 5.6115 17.8838 1.4948 -1.2 1 0.0269001 0.0181454 0.0232654 0.0257418 0.0189615 0.0434321 0.0455337 0.0607057 0.0375289 0.0493888 0.0381937 0.067568 0.0515148 0.0556208 0.0645569 0.0579807 0.065858 0.061999 0.0629115 0.0694776
89 3 O 1.93416 15.2965 1.4948 -1.2 1 0.0370886 0.0148999 0.0220903 0.0130474 0.0350543 0.030064 0.0361356 0.059216 0.0427764 0.0467851 0.0485105 0.0509976 0.0468698 0.0736938 0.0810144 0.0776038 0.0589423 0.0738452 0.0625057 0.0771009
90 3 O 4.85636 15.5644 0.196716 -1.2 1 0.0260205 0.0107644 0.0220842 0.0194659 0.0238436 0.0515448 0.0505378 0.0402328 0.0409293 0.0466219 0.0365412 0.0337867 0.0640554 0.0547036 0.0670851 0.0683259 0.0747198 0.0632444 0.0719648 0.0674943
91 1 Mg 6.44662 14.247 2.9896 1.2 1 0.0106585 0.0182754 0.0226435 0.0222969 0.0182323 0.0353784 0.0378833 0.0533783 0.0367115 0.0564926 0.0350733 0.0627004 0.025611 0.0672861 0.0461016 0.0765673 0.0455941 0.0912807 0.0439794 0.0915173
92 3 O 4.81537 15.5644 2.79288 -1.2 1 0.0114448 0.0109736 0.0261294 0.0120005 0.0292106 0.036235 0.046445 0.047947 0.0443664 0.0388889 0.0515791 0.0426005 0.0530405 0.0566071 0.07518 0.0690635 0.0755701 0.0526214 0.0700747 0.0767947
93 1 Mg -0.948271 14.2883 4.4844 1.2 1 0.0136093 0.010976 0.0124469 0.0246449 0.0257734 0.0281413 0.0340596 0.0368862 0.044985 0.048553 0.0601869 0.0542328 0.067837 0.0658911 0.0594097 0.070402 0.0715168 0.0945261 0.0710043 0.0821302
94 2 Si -2.75928 16.9724 4.4844 2.4 1 0.0210059 0.0128669 0.0180189 0.0272086 0.0290853 0.0420259 0.0586802 0.0315846 0.0556394 0.0625925 0.0528949 0.0620529 0.0614586 0.0551408 0.0771674 0.0716778 0.0472141 0.0928544 0.0544958 0.0623979
95 3 O -2.81617 15.3592 4.4844 -1.2 1 0.0167269 0.0120313 0.0144268 0.0236416 0.0315468 0.0241902 0.0411898 0.0669661 0.0431003 0.0509401 0.039129 0.074889 0.0491768 0.0615698 0.0663387 0.0702078 0.0487387 0.0760599 0.0612923 0.0752229
96 3 O 0.862762 17.9465 4.4844 -1.2 1 0.0147527 0.021822 0.0221454 0.018368 0.0197105 0.046795 0.0359285 0.0507506 0.0486461 0.0540183 0.0384689 0.0489388 0.0431378 0.0718821 0.105652 0.0592615 0.0715393 0.0530985 0.0714749 0.0702617
97 3 O -2.0185 17.6786 3.18632 -1.2 1 0.018317 0.00828451 0.0196859 0.0200377 0.0204319 0.0371434 0.0446464 0.0547718 0.0417772 0.0535848 0.0550101 0.0483596 0.0578594 0.0504721 0.0823613 0.0593591 0.0710022 0.0644256 0.0651319 0.0679492
98 3 O -2.06164 17.6786 5.78248 -1.2 1 0.0120992 0.00996464 0.0211789 0.0218902 0.0178112 0.0285077 0.0480473 0.0448068 0.037361 0.0385119 0.0571378 0.0383518 0.0586793 0.0591969 0.0841004 0.0686832 0.0704882 0.0645136 0.0703571 0.0745073
99 1 Mg 1.39817 16.6215 2.9896 1.2 1 0.0103495 0.0144972 0.0203925 0.0204801 0.0181124 0.0353706 0.0375962 0.0534196 0.0370698 0.0604039 0.0366715 0.0571342 0.0253464 0.0691245 0.0466131 0.0814787 0.04786 0.0908287 0.0427315 0.089092
100 1 Mg 4.20062 16.5802 4.4844 1.2 1 0.0138374 0.0147859 0.0178739 0.0277856 0.0248237 0.0312451 0.0437516 0.0361536 0.0453107 0.0523678 0.0565862 0.0534125 0.0701483 0.0689197 0.0550246 0.0741615 0.0681544 0.094623 0.0731977 0.0811239
101 2 Si 2.37796 18.645 4.4844 2.4 1 0.023713 0.0091838 0.0188912 0.0281534 0.0287797 0.0356255 0.060325 0.0307991 0.0525728 0.059304 0.0519669 0.0626929 0.0633971 0.058433 0.0725926 0.0646388 0.0468456 0.0985615 0.0522628 0.0575518
102 3 O 2.39434 20.2583 4.4844 -1.2 1 0.0200719 0.0164494 0.00868701 0.0186005 0.0249212 0.0251677 0.0395203 0.0586708 0.0419397 0.0523651 0.0397704 0.0717272 0.0492312 0.0649626 0.0737851 0.0697526 0.0507462 0.0693191 0.0660488 0.0779405
103 3 O -4.24274 17.671 4.4844 -1.2 1 0.0180224 0.0198255 0.019087 0.0189598 0.0191108 0.049801 0.0339232 0.0480906 0.042727 0.0540929 0.0412393 0.0521276 0.0506579 0.0726626 0.0991795 0.0626371 0.075446 0.0526524 0.0758473 0.072323
104 3 O 3.08659 17.9389 3.18632 -1.2 1 0.0257461 0.0144921 0.0208723 0.0118131 0.0184811 0.040671 0.038506 0.055928 0.0462165 0.0499059 0.0580459 0.0472088 0.0517101 0.0526236 0.0808224 0.0597997 0.0669455 0.0603594 0.063383 0.0696896
105 1 Mg 1.44478 16.6215 0 1.2 1 0.00954445 0.0120394 0.0216529 0.0126117 0.0267903 0.0309315 0.0477993 0.035232 0.0510873 0.0502079 0.0521992 0.0397216 0.0588166 0.0498406 0.0699671 0.0665209 0.0598611 0.0679897 0.0882433 0.0643287
106 3 O 3.0436 17.9389 5.78248 -1.2 1 0.0203305 0.00986015 0.019779 0.0210673 0.0175525 0.0251803 0.045853 0.0465042 0.0389356 0.0422089 0.0600307 0.0391438 0.0520922 0.0582633 0.082339 0.0652259 0.0705285 0.0563112 0.0662384 0.0782714
107 1 Mg -1.40524 16.6628 1.4948 1.2 1 0.0115825 0.0124893 0.0257754 0.0176115 0.0175746 0.0344118 0.0363402 0.0423811 0.0413103 0.060439 0.0405931 0.06267 0.0548624 0.0646425 0.0739716 0.069379 0.0642365 0.0777939 0.078325 0.0759074
108 2 Si 0.420358 14.5979 1.4948 2.4 1 0.0210096 0.0199342 0.0271609 0.0268498 0.0180811 0.0393832 0.0393508 0.0397684 0.0448496 0.0554289 0.0439999 0.0605136 0.0578389 0.0638142 0.067528 0.0596822 0.0726405 0.0762875 0.0627332 0.0717183
109 3 O 0.408732 12.9847 1.4948 -1.2 1 0.0222162 0.0153978 0.0230015 0.0254297 0.0168135 0.0470711 0.0436588 0.0536944 0.0357775 0.0524688 0.0422763 0.0696308 0.0532227 0.0568581 0.0666063 0.064245 0.0713964 0.0553523 0.0680302 0.0719845
110 3 O 7.03923 15.572 1.4948 -1.2 1 0.0293302 0.0168284 0.0218474 0.0126139 0.0361325 0.0333068 0.0370202 0.0562076 0.0377888 0.0440284 0.0510648 0.0535083 0.0485574 0.0743842 0.0784143 0.0781363 0.0645379 0.0697582 0.0624273 0.0774187
111 3 O -0.248332 15.3041 0.196716 -1.2 1 0.022018 0.0122661 0.0222713 0.0193141 0.0242696 0.0463182 0.0500714 0.04352 0.0403447 0.0467225 0.0370462 0.0319979 0.0621174 0.0546708 0.0702809 0.0653664 0.082146 0.0505082 0.0695883 0.0712388
112 3 O -0.289436 15.3041 2.79288 -1.2 1 0.0182519 0.015252 0.0272924 0.0100684 0.0315054 0.0362283 0.044394 0.0468205 0.04349 0.0401383 0.0537533 0.0480265 0.0517072 0.0539284 0.0722539 0.0692503 0.0704025 0.0542539 0.0686268 0.0780372
113 1 Mg 6.59566 18.996 0 1.2 1 0.0148093 0.0129041 0.0208785 0.0127165 0.0259122 0.0324473 0.0435896 0.0343546 0.0538583 0.0486298 0.0541215 0.0385831 0.0533681 0.052958 0.0712418 0.0644108 0.0636983 0.0648274 0.0876398 0.0695768
114 1 Mg 3.85574 23.7037 1.4948 1.2 1 0.00888398 0.0139595 0.0219828 0.0158509 0.0234102 0.0295815 0.0315878 0.0361055 0.038665 0.0591706 0.0464188 0.0650384 0.0506062 0.0678304 0.064915 0.0728904 0.0654631 0.0807116 0.0809804 0.0761176
115 2 Si 5.66125 21.0195 1.4948 2.4 1 0.00857256 0.0227564 0.0247243 0.0274689 0.0200657 0.0458545 0.033794 0.0433203 0.0472666 0.0538238 0.0445049 0.0614383 0.0559781 0.0597191 0.0708854 0.0609264 0.0732985 0.077239 0.0649476 0.075826
116 3 O 5.72074 22.6328 1.4948 -1.2 1 0.0282086 0.0192948 0.0182928 0.0229351 0.0189463 0.044728 0.0455409 0.0618593 0.0382215 0.0518418 0.0329928 0.0696219 0.0495427 0.0538223 0.0682059 0.0550889 0.0652649 0.0679473 0.056288 0.0711029
117 3 O 2.03867 20.0455 1.4948 -1.2 1 0.0300487 0.0165759 0.0267779 0.0157836 0.03419 0.0299128 0.0358555 0.0557024 0.0439062 0.0428248 0.0503145 0.0510351 0.0479289 0.0733936 0.0849973 0.07233 0.0617582 0.0677844 0.0637525 0.0728777
118 3 O 4.96004 20.3134 0.196716 -1.2 1 0.0212278 0.01071 0.0230852 0.0190137 0.0231698 0.0453596 0.0439012 0.0477682 0.0390406 0.0403941 0.0406139 0.0344452 0.0646863 0.0468722 0.0698933 0.072751 0.0713073 0.0586195 0.0715765 0.07162
119 1 Mg 6.55057 18.996 2.9896 1.2 1 0.00989105 0.0180715 0.02026 0.021484 0.0210607 0.0341222 0.0373477 0.054769 0.0338875 0.0592256 0.0347839 0.0625353 0.02371 0.0706279 0.0452337 0.0738697 0.0464764 0.0956733 0.0423962 0.0931689
120 3 O 4.92172 20.3134 2.79288 -1.2 1 0.00993762 0.0112766 0.0308194 0.014844 0.0296299 0.0398994 0.0464072 0.0451894 0.0477343 0.0427475 0.0524234 0.0411987 0.0534791 0.0540605 0.0774225 0.0689275 0.0763487 0.048303 0.070925 0.0718408
121 1 Mg -0.84282 19.0373 4.4844 1.2 1 0.0146213 0.0137734 0.0187386 0.0281826 0.0292687 0.026434 0.0341671 0.0339755 0.0447795 0.0503535 0.0603703 0.0560581 0.0665782 0.0645615 0.0584356 0.0722286 0.0698347 0.0918003 0.0740627 0.0823523
122 2 Si -2.64823 21.7214 4.4844 2.4 1 0.00958859 0.0164747 0.0192895 0.0270482 0.0312491 0.0396247 0.0567236 0.0297173 0.0554921 0.0611643 0.0513192 0.0613078 0.0573945 0.054834 0.0766432 0.0717663 0.0473228 0.0939008 0.0573317 0.0636829
123 3 O -2.70847 20.1082 4.4844 -1.2 1 0.0133345 0.0144742 0.0178481 0.0267713 0.0264678 0.0228749 0.0394646 0.0645653 0.0426172 0.0496617 0.0405931 0.0722463 0.0524388 0.0595942 0.0679299 0.0684852 0.0495896 0.0732045 0.0682456 0.0759428
124 3 O 0.97581 22.6955 4.4844 -1.2 1 0.0168596 0.0229833 0.0232948 0.0179163 0.0191465 0.0414746 0.0342667 0.0488878 0.0439799 0.055189 0.0386035 0.0454076 0.0461196 0.0737533 0.108606 0.0545575 0.0674976 0.0568189 0.0745863 0.0672557
125 3 O -1.9076 22.4276 3.18632 -1.2 1 0.0215538 0.00861622 0.0205983 0.0159105 0.0133629 0.0366023 0.0434749 0.0563466 0.0365564 0.0501298 0.0550358 0.0478704 0.0558005 0.0469698 0.0793968 0.058287 0.0697642 0.0663015 0.0617605 0.0658066
126 3 O -1.9475 22.4276 5.78248 -1.2 1 0.0144154 0.00531867 0.0237951 0.0211769 0.0174292 0.0281187 0.0453105 0.0474113 0.0362673 0.0382509 0.0593603 0.0386485 0.0575228 0.0605717 0.081667 0.0681568 0.0705788 0.062906 0.0707263 0.0770733