ITEM: TIMESTEP
30300
ITEM: NUMBER OF ATOMS
10500
ITEM: BOX BOUNDS xy xz yz pp pp pp
0	15.2977	5.09925
0	118.725	0
0	89.688	0
ITEM: ATOMS id type element xu yu zu q Q_1 Q_2 Q_3 Q_4 Q_5 Q_6 Q_7 Q_8 Q_9 Q_10 Q_11 Q_12 Q_13 Q_14 Q_15 Q_16 Q_17 Q_18 Q_19 Q_20 Q_21
1 1 Mg 6.2404 -6.37941e-06 0 1.2 1 0.013226 0.040822 0.0296133 0.0357232 0.033376 0.0412529 0.0358242 0.0687001 0.0391774 0.071092 0.0342192 0.059379 0.046222 0.0681913 0.0497093 0.0923721 0.0516929 0.0839364 0.0510142 0.10258
2 1 Mg 3.46349 4.70768 1.4948 1.2 1 0.0122821 0.0189357 0.0235676 0.0238426 0.0202516 0.0431206 0.0426387 0.039762 0.0450634 0.0547655 0.0426007 0.0727249 0.0598486 0.0705128 0.0725447 0.0644366 0.0673824 0.0869486 0.0742362 0.081747
3 2 Si 5.2885 2.02354 1.4948 2.4 1 0.0184131 0.0228549 0.0348565 0.0239309 0.0320194 0.0371302 0.0547996 0.0320841 0.0435521 0.0520763 0.0540172 0.0608208 0.0561961 0.0639306 0.0683451 0.0784037 0.0704556 0.0648678 0.0639474 0.0724184
4 3 O 5.33628 3.63678 1.4948 -1.2 1 0.00942567 0.014211 0.0268469 0.0260308 0.0183131 0.0390999 0.0419398 0.0603081 0.0355398 0.040405 0.0546812 0.0508328 0.0678906 0.0575579 0.0586357 0.0649338 0.0599508 0.0614893 0.0713162 0.0743768
5 3 O 1.67294 1.04952 1.4948 -1.2 1 0.0162082 0.0216761 0.0232789 0.0356044 0.0297291 0.0386825 0.0340739 0.0608819 0.0348837 0.0594628 0.0440035 0.0509637 0.0717936 0.0592762 0.0763332 0.0695827 0.0627823 0.0641806 0.079556 0.0605409
6 3 O 4.59532 1.31737 0.196716 -1.2 1 0.0269351 0.0196305 0.056342 0.025491 0.033465 0.0487578 0.0392266 0.0477963 0.0338005 0.0402596 0.0383101 0.0507116 0.0549721 0.0583229 0.0638454 0.0704659 0.0629862 0.0718013 0.0592664 0.070005
7 1 Mg 6.18956 -6.37941e-06 2.9896 1.2 1 0.0154462 0.028075 0.0155525 0.0217238 0.0365243 0.0449417 0.0502827 0.0432783 0.0470694 0.0453799 0.0385758 0.0556314 0.0398595 0.0566854 0.0589328 0.0804912 0.0580169 0.0690284 0.0592045 0.0700385
8 3 O 4.55118 1.31737 2.79288 -1.2 1 0.0242489 0.0256896 0.0403331 0.0172983 0.0285999 0.0440704 0.0447596 0.0477036 0.0436249 0.0538931 0.0532873 0.0485239 0.0495174 0.0667102 0.0533105 0.0700733 0.0651981 0.0675884 0.063217 0.0726194
9 1 Mg -1.20682 0.0413099 4.4844 1.2 1 0.0174071 0.0233863 0.0252036 0.0280295 0.035093 0.0398351 0.034143 0.0521723 0.0520013 0.0370446 0.0505674 0.0619956 0.066574 0.0552924 0.0781045 0.0630472 0.0806914 0.0765136 0.0615647 0.0510013
10 2 Si -3.0337 2.72544 4.4844 2.4 1 0.0337445 0.0161878 0.024044 0.0194169 0.0290293 0.0387296 0.0613046 0.0350844 0.060865 0.051124 0.0460278 0.0618452 0.0572638 0.0766873 0.0543385 0.0607455 0.0727312 0.0798547 0.071535 0.060284
11 3 O -3.08099 1.11221 4.4844 -1.2 1 0.0122641 0.0216904 0.0269634 0.0248434 0.0402203 0.0259817 0.049092 0.04625 0.0392099 0.0397828 0.0401554 0.0719279 0.0546175 0.0515202 0.0555157 0.0672477 0.0545187 0.078534 0.0733682 0.0742743
12 3 O 0.582463 3.69946 4.4844 -1.2 1 0.00572631 0.0119498 0.0304477 0.0281252 0.0267659 0.0636446 0.032499 0.0533244 0.0423441 0.0423859 0.051109 0.0596293 0.0615742 0.0695914 0.100598 0.0692179 0.0788976 0.0390403 0.0716392 0.0679113
13 3 O -2.29524 3.43162 3.18632 -1.2 1 0.0129785 0.0204402 0.025902 0.0303737 0.0204876 0.0506755 0.051694 0.0502386 0.0408065 0.0527288 0.0590594 0.0550833 0.0402034 0.0527813 0.0585856 0.0635163 0.0667559 0.0616053 0.064414 0.0735934
14 3 O -2.34216 3.43162 5.78248 -1.2 1 0.0148963 0.0108481 0.024782 0.0305388 0.0265184 0.042751 0.0553488 0.0483163 0.0382146 0.0539504 0.0535205 0.0485106 0.055217 0.0528274 0.0761152 0.0733872 0.064146 0.0711144 0.0754342 0.0726243
15 1 Mg 1.12778 2.37449 2.9896 1.2 1 0.0154101 0.0402521 0.0168783 0.0238496 0.025667 0.0423679 0.0411598 0.0502877 0.0364478 0.060522 0.0369133 0.0596181 0.041035 0.0664278 0.0635455 0.0702415 0.0688747 0.0817402 0.0454065 0.0879808
16 1 Mg 3.92855 2.33318 4.4844 1.2 1 0.0286999 0.0158244 0.023188 0.0300868 0.0445645 0.024807 0.0387222 0.0363676 0.048164 0.0688457 0.0505332 0.0622775 0.0499555 0.0605863 0.056057 0.0750834 0.0615372 0.0955542 0.0744002 0.086836
17 2 Si 2.09341 4.39804 4.4844 2.4 1 0.0141655 0.020824 0.0332979 0.0144926 0.041883 0.0288841 0.06277 0.0207443 0.0444881 0.0478053 0.0614321 0.0621098 0.067303 0.0592896 0.0721256 0.0757669 0.0715729 0.0813022 0.0523712 0.0647437
18 3 O 2.09991 6.01128 4.4844 -1.2 1 0.0106705 0.0106125 0.0165542 0.0200903 0.0333081 0.023028 0.0514922 0.0520159 0.045633 0.0443752 0.0475743 0.0677137 0.0475399 0.0626073 0.0651002 0.0715693 0.0447027 0.0804814 0.0616957 0.0722339
19 3 O -4.52137 3.42402 4.4844 -1.2 1 0.0175007 0.0284482 0.0358792 0.0233885 0.0276703 0.0568683 0.0392867 0.0484183 0.0537455 0.057899 0.0312494 0.0578232 0.0532099 0.0548288 0.0923935 0.0734764 0.076413 0.0606119 0.0728816 0.0564526
20 3 O 2.80834 3.69187 3.18632 -1.2 1 0.00842001 0.021487 0.0205798 0.0260116 0.0231083 0.0375615 0.0382802 0.0514225 0.0466707 0.05728 0.0670421 0.0511899 0.0428323 0.0650365 0.0705107 0.0715536 0.0638294 0.0568181 0.0704752 0.0711577
21 1 Mg 1.17857 2.37449 0 1.2 1 0.0146006 0.0371662 0.0291145 0.0287588 0.0363346 0.0388293 0.0429319 0.0587013 0.0351677 0.0490512 0.0524365 0.0409584 0.0437156 0.067014 0.0550413 0.0657578 0.0599257 0.0804333 0.0570103 0.0726223
22 3 O 2.76143 3.69187 5.78248 -1.2 1 0.0120512 0.021479 0.0245384 0.0272313 0.0197767 0.0333424 0.0367499 0.0515644 0.0383411 0.0435364 0.0584003 0.0452399 0.0544358 0.0780014 0.0728168 0.0700524 0.0700052 0.0572367 0.0731067 0.0740353
23 1 Mg -1.67381 2.41581 1.4948 1.2 1 0.0125801 0.0136517 0.0366038 0.0373818 0.0315277 0.0452294 0.0593973 0.0408888 0.0518034 0.0397081 0.0468458 0.0579142 0.0550936 0.0623482 0.0601682 0.0638795 0.0834069 0.0770147 0.0666148 0.0740818
24 2 Si 0.16286 0.350945 1.4948 2.4 1 0.0152007 0.0355699 0.0301567 0.0241321 0.0367092 0.0352535 0.0567168 0.0486821 0.0531626 0.0493972 0.0406148 0.0538461 0.0753783 0.0705446 0.0582004 0.0736793 0.0691469 0.0648464 0.07326 0.0654481
25 3 O 0.15972 -1.26229 1.4948 -1.2 1 0.00899814 0.0156498 0.0396491 0.0216774 0.0372395 0.0360067 0.0454797 0.056472 0.0471827 0.0512211 0.0557926 0.0567325 0.0633322 0.0661486 0.0495045 0.0600112 0.0694384 0.0666045 0.0620357 0.0745598
26 3 O 6.77654 1.32496 1.4948 -1.2 1 0.0114643 0.0277057 0.0266268 0.0276552 0.0372291 0.0544161 0.0342981 0.0647131 0.0476247 0.0467009 0.0443245 0.0523917 0.052531 0.059518 0.0686682 0.0714011 0.0845501 0.0630512 0.0597765 0.0746575
27 3 O -0.508028 1.05712 0.196716 -1.2 1 0.0247492 0.0191086 0.0295583 0.0205722 0.0293717 0.0533815 0.0436621 0.0447044 0.0471384 0.0483071 0.0500097 0.0483769 0.0490264 0.0633529 0.0550688 0.0629347 0.0634517 0.0590937 0.0717715 0.0717869
28 3 O -0.552171 1.05712 2.79288 -1.2 1 0.0337656 0.0259187 0.0324351 0.0315754 0.0212654 0.0451268 0.0430052 0.0461362 0.0452414 0.03446 0.0490521 0.049594 0.0602731 0.0625735 0.0650916 0.0765299 0.0721698 0.0513818 0.0698995 0.0713887
29 1 Mg 6.31713 4.74899 0 1.2 1 0.0270473 0.0298216 0.029672 0.0358102 0.0322225 0.025229 0.0409898 0.0568298 0.0588245 0.0496135 0.0511104 0.0394011 0.0584111 0.062076 0.066549 0.0634903 0.0661895 0.0741085 0.070261 0.0698959
30 1 Mg 3.54847 9.45668 1.4948 1.2 1 0.0170973 0.0160045 0.0173652 0.0188361 0.0186917 0.038381 0.0385588 0.042126 0.0451002 0.0564432 0.0379242 0.0689354 0.052916 0.0654793 0.0743568 0.0623361 0.0665119 0.087651 0.0740584 0.0795833
31 2 Si 5.36879 6.77254 1.4948 2.4 1 0.0259785 0.0298292 0.0212341 0.0263075 0.0245706 0.0350702 0.044346 0.034922 0.0456246 0.058301 0.0425252 0.0581763 0.0524606 0.0672113 0.0650494 0.0752745 0.0670992 0.0785184 0.0561837 0.0687238
32 3 O 5.41937 8.38578 1.4948 -1.2 1 0.0215133 0.0114479 0.0235188 0.0297598 0.0172004 0.0431671 0.0442612 0.0572326 0.0363746 0.0504831 0.047449 0.0640815 0.0551805 0.0540127 0.0662103 0.0601632 0.0733663 0.0559231 0.0731281 0.0733267
33 3 O 1.75158 5.79852 1.4948 -1.2 1 0.0284435 0.0123546 0.0224935 0.0266426 0.044049 0.0308355 0.0391899 0.0570293 0.0407897 0.0524933 0.0494591 0.050561 0.047556 0.0712069 0.0788331 0.0785784 0.0604528 0.0750318 0.0598507 0.0767685
34 3 O 4.67421 6.06637 0.196716 -1.2 1 0.0145858 0.0264851 0.031626 0.0244766 0.031934 0.037824 0.0346651 0.032175 0.0447423 0.0563153 0.0392327 0.0442289 0.0665414 0.0563146 0.0677238 0.0711895 0.0717548 0.065566 0.0631814 0.0688187
35 1 Mg 6.26654 4.74899 2.9896 1.2 1 0.0173986 0.0223648 0.0235077 0.0450583 0.0282392 0.0427691 0.0493921 0.0467935 0.0353982 0.0624427 0.0378618 0.0598345 0.0389565 0.0655983 0.0521253 0.0754068 0.0543417 0.0844081 0.0471954 0.0896406
36 3 O 4.63043 6.06637 2.79288 -1.2 1 0.0188171 0.019973 0.0415574 0.0189638 0.0321834 0.0372158 0.0428785 0.0489122 0.0451416 0.0368076 0.0491683 0.052654 0.0571365 0.0655647 0.0620206 0.0729891 0.0655369 0.0673736 0.0674746 0.0841771
37 1 Mg -1.12976 4.79031 4.4844 1.2 1 0.0228103 0.029104 0.0136364 0.0115864 0.040151 0.0385755 0.047129 0.0518647 0.0424329 0.041977 0.057796 0.0600955 0.0769701 0.0692573 0.061201 0.0707349 0.070077 0.0951724 0.0706621 0.0821163
38 2 Si -2.9517 7.47444 4.4844 2.4 1 0.0225267 0.0143044 0.0199063 0.0276692 0.0303485 0.0419999 0.0625286 0.028323 0.0551141 0.0580015 0.0521216 0.0599208 0.0634243 0.0555028 0.0799179 0.0689376 0.0532352 0.0879317 0.0578609 0.0621997
39 3 O -3.00198 5.86121 4.4844 -1.2 1 0.0160945 0.0243797 0.0268572 0.0282973 0.033186 0.0313007 0.0546545 0.0592299 0.0381354 0.0540978 0.0477294 0.0714132 0.0588117 0.0563838 0.0658078 0.069918 0.0500476 0.0767823 0.061593 0.0786213
40 3 O 0.666315 8.44846 4.4844 -1.2 1 0.0201274 0.0225459 0.0241218 0.017115 0.0217131 0.0565831 0.0284266 0.0508991 0.0430661 0.0476548 0.0408284 0.0517041 0.0494626 0.073985 0.101151 0.0667617 0.0764286 0.0507648 0.0698405 0.0727536
41 3 O -2.21213 8.18062 3.18632 -1.2 1 0.0184919 0.0157003 0.016523 0.015717 0.0178987 0.0356149 0.0461313 0.0545272 0.0458851 0.0538788 0.0540569 0.0521906 0.0523996 0.0477016 0.0777955 0.0638663 0.0713754 0.0592093 0.0679024 0.0709178
42 3 O -2.25864 8.18062 5.78248 -1.2 1 0.0154673 0.0121631 0.0225297 0.0223023 0.0204908 0.0276487 0.0530763 0.0457103 0.0402454 0.0406055 0.0570588 0.0385782 0.0572851 0.0610438 0.0846929 0.0687696 0.0684397 0.0671396 0.070441 0.0732279
43 1 Mg 1.20893 7.12349 2.9896 1.2 1 0.00506364 0.0224739 0.0190801 0.0257923 0.0238335 0.0410387 0.0423258 0.0458006 0.0345573 0.0655511 0.0397856 0.0674562 0.0351603 0.0584446 0.0524103 0.0803411 0.0516036 0.0841339 0.0474489 0.0881501
44 1 Mg 4.00982 7.08218 4.4844 1.2 1 0.0198822 0.01278 0.0249325 0.0323537 0.0329706 0.0351523 0.043071 0.0370666 0.0470225 0.0532989 0.057226 0.057515 0.0707938 0.0711384 0.0580015 0.0669815 0.0617195 0.099525 0.0748321 0.0808091
45 2 Si 2.17861 9.14704 4.4844 2.4 1 0.0263248 0.00805667 0.022821 0.0221311 0.031209 0.0338349 0.0619804 0.0241526 0.0499435 0.0545399 0.0559571 0.0610548 0.0654273 0.0595722 0.0781687 0.0677508 0.0498531 0.0934296 0.0542633 0.0582367
46 3 O 2.18828 10.7603 4.4844 -1.2 1 0.0211708 0.0132249 0.0036513 0.0189412 0.0257434 0.0221567 0.043963 0.0594194 0.0419113 0.0536151 0.041288 0.0710473 0.0433021 0.0619831 0.0687144 0.0711168 0.0477343 0.0708208 0.0628457 0.0720365
47 3 O -4.43805 8.17302 4.4844 -1.2 1 0.0109128 0.0176053 0.017147 0.0188952 0.0234929 0.0558148 0.0367192 0.0493803 0.0428421 0.0480143 0.0375826 0.053543 0.054115 0.0732074 0.100083 0.0653499 0.0819899 0.0533413 0.0737583 0.0730549
48 3 O 2.89193 8.44087 3.18632 -1.2 1 0.0218724 0.0191591 0.0170806 0.0152961 0.0204296 0.0405445 0.0339893 0.0536686 0.0445146 0.0511821 0.0577397 0.0503209 0.0509625 0.0508378 0.0805978 0.0644813 0.0701198 0.059694 0.0651193 0.0728491
49 1 Mg 1.25915 7.12349 0 1.2 1 0.0200096 0.0152249 0.0248907 0.0146047 0.0320586 0.0254834 0.0523714 0.0404245 0.0556769 0.0498514 0.0526935 0.0425023 0.0718446 0.0512498 0.0672776 0.0713584 0.0652331 0.0709182 0.0808876 0.0586661
50 3 O 2.84547 8.44087 5.78248 -1.2 1 0.0112809 0.0156081 0.0156954 0.0220098 0.0222179 0.0281653 0.0447209 0.0476885 0.0395608 0.0391961 0.0587192 0.039521 0.0604592 0.0611429 0.0887241 0.0625835 0.0704513 0.063065 0.0649619 0.0768866
51 1 Mg -1.59284 7.16481 1.4948 1.2 1 0.00991931 0.0163419 0.0205325 0.0202677 0.014936 0.0372325 0.0461993 0.042818 0.043281 0.0575415 0.0389054 0.0662371 0.0522227 0.0691038 0.0755222 0.0609607 0.0674388 0.0843088 0.0737598 0.0786965
52 2 Si 0.240329 5.09994 1.4948 2.4 1 0.0246355 0.0173221 0.0159396 0.04336 0.0272391 0.0404624 0.0467706 0.053354 0.0550146 0.0486431 0.0456549 0.0576494 0.0591706 0.0678709 0.0655612 0.0664824 0.063912 0.0726997 0.0662801 0.0681497
53 3 O 0.234538 3.48671 1.4948 -1.2 1 0.0132113 0.0163907 0.0266435 0.0358782 0.03136 0.0492244 0.0458702 0.0424141 0.0527633 0.0467894 0.0521959 0.0611899 0.056247 0.0611068 0.0620318 0.0621803 0.0627934 0.057218 0.0758715 0.0736295
54 3 O 6.85564 6.07396 1.4948 -1.2 1 0.0325022 0.0195088 0.0345168 0.0274898 0.0371896 0.0402868 0.0323201 0.0627972 0.0363666 0.0533504 0.0536869 0.0538167 0.0553603 0.0731124 0.0699264 0.076906 0.0662257 0.0722686 0.053216 0.0846909
55 3 O -0.429565 5.80612 0.196716 -1.2 1 0.0341097 0.0201134 0.0159672 0.0212253 0.0409858 0.0374102 0.0538418 0.0449887 0.0460956 0.0562147 0.0398139 0.0419779 0.0533997 0.0599957 0.0600008 0.068174 0.0703827 0.0610962 0.065085 0.0740817
56 3 O -0.473377 5.80612 2.79288 -1.2 1 0.0259131 0.0231721 0.0309575 0.0194165 0.0341447 0.0454184 0.0487326 0.0497469 0.0524744 0.0458723 0.0629805 0.0384505 0.0428628 0.0578706 0.0662802 0.0731435 0.0648765 0.0688874 0.0691432 0.0823467
57 1 Mg 6.40169 9.49799 0 1.2 1 0.0128444 0.0120804 0.0211372 0.0142339 0.0306026 0.0210515 0.0522421 0.0353582 0.0585383 0.049251 0.0497859 0.0356086 0.0673008 0.0526327 0.071103 0.0667512 0.0652292 0.0705041 0.0812608 0.0685231
58 1 Mg 3.64209 14.2057 1.4948 1.2 1 0.00622627 0.0138872 0.0177435 0.01948 0.021976 0.0341126 0.0365581 0.0430342 0.0401176 0.0546744 0.0388273 0.0687026 0.0544614 0.0666751 0.0748987 0.0631359 0.0640898 0.0833497 0.07487 0.0784365
59 2 Si 5.45748 11.5215 1.4948 2.4 1 0.0118939 0.0218741 0.0233579 0.0249407 0.0180294 0.0403601 0.0397199 0.0398038 0.04358 0.0546908 0.0424372 0.0601735 0.0532876 0.0664167 0.0694037 0.0635821 0.0710835 0.0817947 0.0584953 0.0667189
60 3 O 5.51101 13.1348 1.4948 -1.2 1 0.0241394 0.0136902 0.0225471 0.0292371 0.0200784 0.0435954 0.044347 0.0589685 0.036366 0.0493732 0.0433109 0.0671795 0.0536639 0.0533696 0.065963 0.0602105 0.0708688 0.0575372 0.0698332 0.0716612
61 3 O 1.83851 10.5475 1.4948 -1.2 1 0.0351768 0.0141301 0.0216337 0.0139228 0.0363226 0.030393 0.0364348 0.0589606 0.039919 0.0486073 0.0499596 0.0516227 0.0469412 0.0746715 0.0754306 0.0800486 0.0566261 0.0758885 0.057588 0.0789897
62 3 O 4.7611 10.8154 0.196716 -1.2 1 0.0356128 0.0190523 0.0195715 0.0180593 0.0268812 0.0444229 0.0483749 0.0378033 0.0386867 0.0493365 0.0369653 0.0410417 0.0606813 0.0610833 0.0648335 0.0714516 0.0754496 0.0656678 0.0732939 0.0679839
63 1 Mg 6.35203 9.49799 2.9896 1.2 1 0.0151253 0.0161146 0.0216819 0.0217249 0.0186863 0.0377869 0.0364716 0.0496167 0.0357746 0.0585196 0.033692 0.0640616 0.0277098 0.0658415 0.0471053 0.0784005 0.0445142 0.0901191 0.0469087 0.0923546
64 3 O 4.71833 10.8154 2.79288 -1.2 1 0.0252893 0.0112494 0.0302136 0.0141211 0.030087 0.0429252 0.0433712 0.045002 0.0428076 0.0371239 0.0542422 0.0407836 0.0534829 0.0579191 0.0730062 0.0684884 0.0719728 0.0597599 0.0702203 0.0793505
65 1 Mg -1.0438 9.53931 4.4844 1.2 1 0.012881 0.0196451 0.0164483 0.0226419 0.0274105 0.0288025 0.0394861 0.0358724 0.0454475 0.0485426 0.0586918 0.0556718 0.0678138 0.0715539 0.060453 0.0688493 0.0736036 0.0990002 0.0698272 0.0849335
66 2 Si -2.8604 12.2234 4.4844 2.4 1 0.015813 0.0139638 0.0150518 0.0246781 0.0327423 0.0406375 0.059446 0.0296507 0.0517979 0.0645704 0.0534041 0.0609845 0.0589243 0.0563644 0.0806406 0.0701249 0.0513656 0.0891564 0.0557805 0.0622302
67 3 O -2.91391 10.6102 4.4844 -1.2 1 0.0182935 0.0141249 0.00989293 0.021887 0.0305014 0.0222656 0.0478136 0.0631714 0.0405613 0.0503882 0.037429 0.0708327 0.0444973 0.0599601 0.066904 0.0731559 0.0471277 0.0752075 0.0595391 0.0759763
68 3 O 0.7596 13.1975 4.4844 -1.2 1 0.0260758 0.0249289 0.0202387 0.0131502 0.0232182 0.0505308 0.0346114 0.0493039 0.0446217 0.050363 0.0389687 0.0494292 0.0476084 0.0704609 0.10091 0.0632606 0.0764193 0.0538663 0.0715123 0.074046
69 3 O -2.12001 12.9296 3.18632 -1.2 1 0.0239039 0.010933 0.0205248 0.0168629 0.0201572 0.03459 0.0402704 0.0533938 0.0440213 0.0546085 0.0513233 0.051753 0.0546364 0.0472928 0.0803299 0.0621083 0.0729585 0.0636469 0.0678258 0.0690592
70 3 O -2.16532 12.9296 5.78248 -1.2 1 0.0121872 0.00940125 0.0220239 0.0234734 0.0169249 0.0283737 0.049866 0.045931 0.0380925 0.0379756 0.0565096 0.0388142 0.0570267 0.0568998 0.0834605 0.07024 0.0702784 0.0612812 0.0720084 0.0771435
71 1 Mg 1.29891 11.8725 2.9896 1.2 1 0.00825405 0.0159605 0.0220634 0.0244366 0.0173819 0.0391367 0.0365753 0.0496008 0.035488 0.0606008 0.0347024 0.0592284 0.0247321 0.067036 0.0481791 0.0831116 0.0478982 0.0880994 0.0466036 0.0871852
72 1 Mg 4.10033 11.8312 4.4844 1.2 1 0.0122182 0.0199618 0.0184966 0.0275036 0.0294159 0.0322516 0.0432009 0.0334112 0.0477227 0.0519245 0.0533609 0.0525906 0.0649378 0.0715766 0.0519255 0.0701628 0.0680187 0.0989912 0.0732113 0.0827967
73 2 Si 2.27333 13.896 4.4844 2.4 1 0.0239861 0.00501079 0.0281775 0.0270044 0.0273478 0.0360365 0.0618341 0.0315222 0.0556473 0.0575273 0.0527623 0.0616035 0.0624286 0.0587923 0.0741358 0.0681144 0.0469209 0.0978713 0.0532081 0.0547312
74 3 O 2.28634 15.5093 4.4844 -1.2 1 0.0230202 0.0125881 0.0132113 0.0184369 0.0251922 0.0224689 0.0406542 0.0601432 0.0435845 0.0515097 0.0396378 0.0716631 0.04738 0.0636208 0.0686553 0.0732225 0.0478628 0.069543 0.0641827 0.0752645
75 3 O -4.34533 12.922 4.4844 -1.2 1 0.0202236 0.0215608 0.0203082 0.0153505 0.0229129 0.0508643 0.0356597 0.0498633 0.0450049 0.0533307 0.0372748 0.0530619 0.0482774 0.0695498 0.100432 0.0665553 0.0791355 0.0533852 0.0730811 0.073348
76 3 O 2.98455 13.1899 3.18632 -1.2 1 0.0228274 0.011558 0.0177798 0.0117853 0.0204573 0.0419033 0.0386546 0.0585842 0.0451734 0.0535036 0.0570359 0.0490802 0.0506282 0.0510309 0.0803888 0.0617247 0.0670747 0.0590635 0.0632969 0.0718041
77 1 Mg 1.34779 11.8725 0 1.2 1 0.0217579 0.00920554 0.0219758 0.014748 0.0287096 0.022752 0.0516621 0.0348228 0.0575934 0.0509109 0.0497473 0.0351616 0.0651126 0.0500113 0.0706565 0.0641118 0.061654 0.0700021 0.0873235 0.0596966
78 3 O 2.93934 13.1899 5.78248 -1.2 1 0.0157057 0.0129771 0.0181871 0.0237832 0.0200619 0.0250256 0.0522773 0.0460366 0.0419449 0.0391759 0.0563541 0.0379277 0.054699 0.0620118 0.0874245 0.0644836 0.0706362 0.0612487 0.0644375 0.0796283
79 1 Mg -1.50344 11.9138 1.4948 1.2 1 0.0129419 0.0178913 0.0229114 0.0204447 0.0118118 0.0369464 0.0383746 0.0424156 0.0412053 0.0599698 0.0353275 0.0650803 0.0504467 0.064735 0.0747949 0.0679995 0.064235 0.0840549 0.0764994 0.0787042
80 2 Si 0.326006 9.84894 1.4948 2.4 1 0.0250196 0.0193191 0.0249124 0.0303739 0.0171346 0.0387838 0.0441735 0.0375729 0.045041 0.0561741 0.0404221 0.0594661 0.0551771 0.067128 0.0611386 0.0634427 0.0704147 0.0795839 0.0618348 0.068766
81 3 O 0.317364 8.23571 1.4948 -1.2 1 0.0223779 0.0125514 0.0226468 0.0238217 0.0204102 0.0453041 0.0429048 0.0498765 0.0349476 0.0543067 0.0443177 0.0660269 0.0573569 0.0594701 0.0679052 0.0669291 0.0713231 0.0533104 0.0737031 0.0740621
82 3 O 6.94307 10.823 1.4948 -1.2 1 0.0312152 0.0149348 0.0220498 0.0117033 0.037351 0.0330771 0.0381668 0.0576706 0.0346597 0.0477521 0.0514829 0.0524195 0.0500223 0.074864 0.0724083 0.0797179 0.0619264 0.0727997 0.0580288 0.0805833
83 3 O -0.343122 10.5551 0.196716 -1.2 1 0.0269164 0.0180834 0.0217645 0.0212987 0.0313977 0.0420045 0.04999 0.0392124 0.0376434 0.0486326 0.0380937 0.0364937 0.0602558 0.0601811 0.0685498 0.0695246 0.0820733 0.0535771 0.0702589 0.0698566
84 3 O -0.385966 10.5551 2.79288 -1.2 1 0.0261914 0.0160637 0.0302584 0.0126836 0.0332213 0.0424662 0.0443167 0.0468819 0.0431707 0.0401395 0.0525729 0.049585 0.0490498 0.0543439 0.0693062 0.070382 0.0661717 0.061073 0.067659 0.0796407
85 1 Mg 6.49448 14.247 0 1.2 1 0.0226261 0.0101931 0.0183464 0.0170964 0.0285965 0.0226961 0.0478639 0.0329034 0.0592487 0.0483938 0.0512959 0.0376024 0.0623842 0.0528239 0.0707998 0.0651323 0.0644243 0.0706696 0.0850358 0.0701727
86 1 Mg 3.74457 18.9547 1.4948 1.2 1 0.0106742 0.0135724 0.0166381 0.0172186 0.026665 0.0303048 0.0317666 0.0384372 0.0375552 0.0570695 0.0430794 0.069151 0.0517551 0.0671204 0.0709957 0.0698542 0.0622322 0.0838856 0.0794689 0.0762139
87 2 Si 5.55495 16.2705 1.4948 2.4 1 0.0120566 0.0202919 0.022027 0.02675 0.0184646 0.0426681 0.0362728 0.0421239 0.0450162 0.0515927 0.0434929 0.0612726 0.054516 0.0639972 0.0698229 0.0587195 0.0733388 0.0799701 0.0608836 0.0709676
88 3 O 5.6115 17.8838 1.4948 -1.2 1 0.0269762 0.0182387 0.0234062 0.0256265 0.0192709 0.0435858 0.0453438 0.0609054 0.0374447 0.0498673 0.0382892 0.0669632 0.0516151 0.0562068 0.0644346 0.0570736 0.0656892 0.0614954 0.0633889 0.0689095
89 3 O 1.93416 15.2965 1.4948 -1.2 1 0.0414135 0.0159027 0.0195887 0.00986815 0.035122 0.0313944 0.036459 0.0577577 0.0422241 0.0463499 0.048916 0.0500752 0.0473877 0.0739027 0.0806779 0.0766466 0.0598721 0.0737916 0.0622243 0.0775762
90 3 O 4.85636 15.5644 0.196716 -1.2 1 0.0261375 0.0110879 0.0224576 0.0197062 0.0236087 0.0513082 0.0506134 0.0400311 0.0411799 0.0463161 0.0365875 0.033745 0.0642929 0.054904 0.0673393 0.0686808 0.0747945 0.0632926 0.0721437 0.0674888
91 1 Mg 6.44662 14.247 2.9896 1.2 1 0.0108245 0.0185317 0.0234144 0.0221851 0.018413 0.0354038 0.0378594 0.0533355 0.0369135 0.0573747 0.0345421 0.0628688 0.0255964 0.0672324 0.0456631 0.0761756 0.0436298 0.0922431 0.0438646 0.0923824
92 3 O 4.81537 15.5644 2.79288 -1.2 1 0.0131107 0.0106178 0.0280731 0.012364 0.0278981 0.0364602 0.0468602 0.046157 0.0456708 0.0399901 0.0509472 0.0432432 0.0526891 0.0561428 0.0745543 0.0660101 0.0756496 0.052061 0.0725734 0.0758628
93 1 Mg -0.948271 14.2883 4.4844 1.2 1 0.0163037 0.0103919 0.012253 0.0231092 0.0274729 0.0292049 0.0329498 0.0379885 0.0452605 0.050557 0.0586723 0.0576869 0.0673708 0.0694655 0.059447 0.0735259 0.0703952 0.0956617 0.070581 0.0819156
94 2 Si -2.75928 16.9724 4.4844 2.4 1 0.0175106 0.0154388 0.0199974 0.0245972 0.027087 0.0409484 0.0567461 0.0325572 0.0534156 0.0647748 0.0539752 0.061219 0.0570389 0.0556238 0.0771464 0.0689081 0.0500088 0.0915988 0.0548059 0.0641874
95 3 O -2.81617 15.3592 4.4844 -1.2 1 0.0159894 0.0162266 0.0127886 0.024555 0.0300337 0.0223986 0.0446598 0.0643143 0.0458607 0.0526456 0.0374407 0.0728632 0.0462272 0.0580568 0.0670603 0.0691025 0.0493913 0.0712056 0.0609483 0.0759221
96 3 O 0.862762 17.9465 4.4844 -1.2 1 0.0224665 0.0236462 0.0239032 0.0152724 0.0214253 0.0469667 0.0355758 0.0512002 0.0457354 0.05287 0.0408084 0.0471055 0.0455709 0.071394 0.104265 0.0565647 0.0698335 0.0545529 0.0716811 0.0694115
97 3 O -2.0185 17.6786 3.18632 -1.2 1 0.0191223 0.0105298 0.0178659 0.015958 0.0198422 0.0387023 0.0425495 0.0559588 0.0437339 0.0519175 0.0546692 0.0494781 0.0562344 0.0516003 0.0813001 0.0615933 0.069254 0.0655862 0.0632398 0.069765
98 3 O -2.06164 17.6786 5.78248 -1.2 1 0.0168467 0.00601069 0.0230552 0.0203728 0.0186871 0.0253908 0.0499794 0.0457042 0.037826 0.0386058 0.0572778 0.0382907 0.054283 0.0595944 0.0787992 0.0668256 0.0712532 0.0618696 0.0693518 0.0761038
99 1 Mg 1.39817 16.6215 2.9896 1.2 1 0.00627286 0.0161228 0.0193528 0.0226827 0.0183055 0.0357206 0.0373055 0.0533161 0.0367808 0.0592472 0.0360324 0.0574214 0.0229622 0.067168 0.0473243 0.0810078 0.0492255 0.0913205 0.0437908 0.0877881
100 1 Mg 4.20062 16.5802 4.4844 1.2 1 0.0140723 0.0124189 0.015153 0.0245682 0.0261927 0.0297804 0.0395616 0.0356289 0.0463718 0.0523948 0.0547962 0.0562477 0.0679865 0.0686133 0.0539548 0.0724481 0.0693032 0.0965362 0.0742844 0.0797215
101 2 Si 2.37796 18.645 4.4844 2.4 1 0.0248156 0.00766591 0.0193213 0.0271749 0.0276568 0.0342803 0.0620892 0.0294952 0.0534125 0.0618761 0.0515628 0.0619814 0.0620749 0.0570754 0.0752129 0.0697698 0.0478384 0.0978701 0.0542357 0.0545891
102 3 O 2.39434 20.2583 4.4844 -1.2 1 0.019833 0.0108276 0.010087 0.0139564 0.0283279 0.0243354 0.0398325 0.0592678 0.0425735 0.0502626 0.0431589 0.0746635 0.0489074 0.0637847 0.0673839 0.0690442 0.0474264 0.069882 0.0655422 0.0793103
103 3 O -4.24274 17.671 4.4844 -1.2 1 0.0178795 0.019092 0.0208752 0.0162893 0.023262 0.0472836 0.0362535 0.0503225 0.0432027 0.0539698 0.0365665 0.0503814 0.0491994 0.0706341 0.101361 0.0641659 0.0776167 0.0548296 0.0749917 0.0706354
104 3 O 3.08659 17.9389 3.18632 -1.2 1 0.0281525 0.0128819 0.0217573 0.0112984 0.0170951 0.0387159 0.0373233 0.0550937 0.0431631 0.0519994 0.0561135 0.048036 0.0531144 0.0511438 0.0808033 0.057766 0.0676867 0.0606365 0.0640504 0.0686091
105 1 Mg 1.44478 16.6215 0 1.2 1 0.00958518 0.0121121 0.0215805 0.0129795 0.0266505 0.0315145 0.047794 0.0353539 0.0506774 0.0504375 0.052016 0.0397828 0.05877 0.0494614 0.069574 0.066053 0.0600197 0.06797 0.0887558 0.063736
106 3 O 3.0436 17.9389 5.78248 -1.2 1 0.0212819 0.0125413 0.0192399 0.0246919 0.0202599 0.0261079 0.048716 0.046203 0.0427674 0.0398885 0.0572126 0.0367264 0.055113 0.0589519 0.0840111 0.0624956 0.0679405 0.0630351 0.0644799 0.0800723
107 1 Mg -1.40524 16.6628 1.4948 1.2 1 0.0116319 0.0125207 0.0257224 0.0177383 0.0172116 0.0344937 0.0357566 0.0430358 0.0410687 0.0603711 0.0398922 0.0625268 0.0550212 0.064484 0.0741956 0.0693177 0.0644212 0.0781095 0.0784565 0.0760719
108 2 Si 0.420358 14.5979 1.4948 2.4 1 0.0208878 0.0196487 0.0272272 0.0269016 0.0181717 0.039398 0.0396562 0.0398239 0.0451421 0.0556734 0.0442345 0.060288 0.0577563 0.063579 0.0675551 0.0600947 0.0721744 0.0758497 0.0623638 0.0717298
109 3 O 0.408732 12.9847 1.4948 -1.2 1 0.0222103 0.0155123 0.0228395 0.0257745 0.0165833 0.0471363 0.0437892 0.0539132 0.0360387 0.0527961 0.0421429 0.0690828 0.0531642 0.0570542 0.0659517 0.0631241 0.0716735 0.0550757 0.0681843 0.0718633
110 3 O 7.03923 15.572 1.4948 -1.2 1 0.0293249 0.016885 0.0218924 0.0127361 0.0361407 0.0332183 0.0370334 0.0561165 0.0378775 0.0441508 0.0510941 0.0534377 0.048432 0.074317 0.0783662 0.0781558 0.0643882 0.0697569 0.0624788 0.0774122
111 3 O -0.248332 15.3041 0.196716 -1.2 1 0.0220045 0.012207 0.0222409 0.0192498 0.0242916 0.0463211 0.0500415 0.0434954 0.0402187 0.0466815 0.0369921 0.0319098 0.0620318 0.0544516 0.0701997 0.0651912 0.0819349 0.0506719 0.0696185 0.0712254
112 3 O -0.289436 15.3041 2.79288 -1.2 1 0.0188651 0.0128568 0.027456 0.0132016 0.0302628 0.0388957 0.0438575 0.0463489 0.0450193 0.0378242 0.0537777 0.0467205 0.0499375 0.0549943 0.0715174 0.0682924 0.0704451 0.0576275 0.0705268 0.0767082
113 1 Mg 6.59566 18.996 0 1.2 1 0.0139075 0.0116637 0.0200889 0.0142047 0.0260912 0.031988 0.0430239 0.0330147 0.054 0.0491968 0.0540482 0.0387529 0.052345 0.0526129 0.0721798 0.0647718 0.0642518 0.0648454 0.0860805 0.0709036
114 1 Mg 3.85574 23.7037 1.4948 1.2 1 0.0107634 0.0126246 0.0212429 0.0139495 0.0225769 0.0288436 0.031247 0.0371192 0.039039 0.0599908 0.046994 0.0629453 0.0501123 0.0668395 0.0647156 0.0724395 0.0662023 0.0796738 0.0798345 0.076046
115 2 Si 5.66125 21.0195 1.4948 2.4 1 0.00834754 0.0243489 0.0232439 0.0273429 0.0192357 0.0462401 0.0341408 0.0415268 0.0492392 0.0543192 0.0453573 0.0612986 0.0559172 0.0591515 0.0716994 0.0608023 0.0733774 0.0772295 0.0641417 0.0756403
116 3 O 5.72074 22.6328 1.4948 -1.2 1 0.0282549 0.0192714 0.0183704 0.0227149 0.0190982 0.04475 0.0455373 0.0618043 0.0382095 0.0519329 0.0330982 0.0696657 0.0497028 0.053804 0.0683511 0.055476 0.0651543 0.0677689 0.0565354 0.0709731
117 3 O 2.03867 20.0455 1.4948 -1.2 1 0.0299926 0.016437 0.0268463 0.0161046 0.0340939 0.0302728 0.0359266 0.0551698 0.0441529 0.0427688 0.0506455 0.0506551 0.0478639 0.0735621 0.0848352 0.0731331 0.0616352 0.0679377 0.0635125 0.0733678
118 3 O 4.96004 20.3134 0.196716 -1.2 1 0.0211201 0.0104408 0.0229305 0.0188493 0.0232409 0.0453895 0.0439393 0.0479256 0.0389766 0.0401138 0.0409762 0.0342673 0.064567 0.0473821 0.0697141 0.0727633 0.0715721 0.0582567 0.071676 0.0720013
119 1 Mg 6.55057 18.996 2.9896 1.2 1 0.0133523 0.0210964 0.0212196 0.0209341 0.0207232 0.0331135 0.0372816 0.0559636 0.0321613 0.0596448 0.0326812 0.0617491 0.0230469 0.0680035 0.0467835 0.0752899 0.0482712 0.095077 0.0436554 0.0927214
120 3 O 4.92172 20.3134 2.79288 -1.2 1 0.0101311 0.0114252 0.0313844 0.0153845 0.0300222 0.0400346 0.0461578 0.0457455 0.0476249 0.0433044 0.0523595 0.0403988 0.054034 0.0535956 0.0767637 0.0673994 0.0758567 0.0487411 0.0714659 0.0720663
121 1 Mg -0.84282 19.0373 4.4844 1.2 1 0.0149992 0.0131078 0.0139381 0.027845 0.0226916 0.0276489 0.0364305 0.032312 0.0450506 0.0490154 0.0596669 0.0576703 0.0680065 0.0685662 0.0567897 0.0721972 0.0720528 0.0943574 0.0721874 0.0826712
122 2 Si -2.64823 21.7214 4.4844 2.4 1 0.0193298 0.0135232 0.0176718 0.0271514 0.0279845 0.0414332 0.0552992 0.0318403 0.0542881 0.0633265 0.0524949 0.0633134 0.0597961 0.0550325 0.0786234 0.0714412 0.045001 0.0943761 0.0522892 0.0649056
123 3 O -2.70847 20.1082 4.4844 -1.2 1 0.0121324 0.0172541 0.0151095 0.0262648 0.0227042 0.0238915 0.0360609 0.0633628 0.042341 0.0467559 0.0419659 0.0717606 0.0523859 0.0593369 0.0685157 0.0661 0.0509043 0.0718929 0.06778 0.0762828
124 3 O 0.97581 22.6955 4.4844 -1.2 1 0.0155123 0.0250459 0.0206421 0.017462 0.0190369 0.0411983 0.0318551 0.0519365 0.0459587 0.0551971 0.0400252 0.0472146 0.0459803 0.0713656 0.107807 0.050726 0.0670228 0.0551453 0.0749097 0.0665077
125 3 O -1.9076 22.4276 3.18632 -1.2 1 0.0250725 0.0109004 0.0202476 0.0163204 0.0148106 0.0351107 0.0439082 0.0539377 0.0384014 0.0503547 0.0532871 0.050007 0.0546979 0.0460896 0.0807907 0.0592485 0.0689693 0.0668187 0.0639839 0.0666594
126 3 O -1.9475 22.4276 5.78248 -1.2 1 0.0147487 0.00657203 0.0236634 0.0218095 0.0133507 0.0265821 0.0507219 0.0416683 0.0396521 0.0361258 0.0574199 0.0351622 0.0540853 0.06156 0.0804869 0.0665757 0.0690201 0.0652689 0.0687004 0.074939