ITEM: TIMESTEP
4400
ITEM: NUMBER OF ATOMS
10500
ITEM: BOX BOUNDS xy xz yz pp pp pp
0	15.2977	5.09925
0	118.725	0
0	89.688	0
ITEM: ATOMS id type element xu yu zu q Q_1 Q_2 Q_3 Q_4 Q_5 Q_6 Q_7 Q_8 Q_9 Q_10 Q_11 Q_12 Q_13 Q_14 Q_15 Q_16 Q_17 Q_18 Q_19 Q_20 Q_21
1 1 Mg 6.2404 -6.37941e-06 0 1.2 1 0.0131452 0.0409282 0.0297391 0.0358699 0.0331807 0.0412843 0.035526 0.0687477 0.0388384 0.0712362 0.0338996 0.0592188 0.0462402 0.0685282 0.0502073 0.0920391 0.0517299 0.0838223 0.0506537 0.102491
2 1 Mg 3.46349 4.70768 1.4948 1.2 1 0.0168789 0.0166779 0.0244869 0.0216382 0.0202267 0.0421161 0.042275 0.0398005 0.0459007 0.0556046 0.0427652 0.0707033 0.057571 0.0710772 0.0719912 0.0644675 0.0681966 0.0856498 0.0729371 0.0819308
3 2 Si 5.2885 2.02354 1.4948 2.4 1 0.0219056 0.0223604 0.0366922 0.0256238 0.0309424 0.0366352 0.0534186 0.0335228 0.0442896 0.0519018 0.0558332 0.0617284 0.0557429 0.0637572 0.0682241 0.0791846 0.0709388 0.0650041 0.0633451 0.0732492
4 3 O 5.33628 3.63678 1.4948 -1.2 1 0.00938305 0.014166 0.0268278 0.0259465 0.0184008 0.039075 0.0418756 0.0601947 0.0353448 0.0401367 0.0547831 0.0507788 0.0678509 0.0575937 0.0590814 0.0649223 0.0602723 0.0615686 0.0711316 0.0745502
5 3 O 1.67294 1.04952 1.4948 -1.2 1 0.0163392 0.0218969 0.0233933 0.035635 0.029606 0.038704 0.0342053 0.0608667 0.0348713 0.0593869 0.0439246 0.0511953 0.0718826 0.059347 0.0761644 0.0691034 0.0627254 0.0644733 0.0795568 0.0601967
6 3 O 4.59532 1.31737 0.196716 -1.2 1 0.0258826 0.0221125 0.0575753 0.0252333 0.0333343 0.0487124 0.0385848 0.0473861 0.0338953 0.0392435 0.0386055 0.0504862 0.054216 0.0571936 0.0634761 0.0700449 0.062053 0.0714704 0.0592585 0.0707875
7 1 Mg 6.18956 -6.37941e-06 2.9896 1.2 1 0.0154843 0.0286514 0.0156965 0.0215961 0.0362742 0.0445117 0.0505037 0.0427413 0.047954 0.0451868 0.0386219 0.0564751 0.0388397 0.0561715 0.0586702 0.0796095 0.0564643 0.0692833 0.0590323 0.0705777
8 3 O 4.55118 1.31737 2.79288 -1.2 1 0.0215279 0.0250593 0.0384683 0.0152128 0.0283083 0.0428902 0.0444884 0.0480601 0.0436152 0.0533952 0.0546081 0.0498006 0.0488869 0.0670247 0.0529143 0.0691925 0.0652228 0.065739 0.065927 0.0703877
9 1 Mg -1.20682 0.0413099 4.4844 1.2 1 0.0143988 0.0247845 0.0211497 0.0270587 0.03615 0.0402617 0.0319702 0.0524141 0.0529048 0.0398334 0.0487011 0.0619395 0.065557 0.0587769 0.0768461 0.0601825 0.0803627 0.0744379 0.0652784 0.0526214
10 2 Si -3.0337 2.72544 4.4844 2.4 1 0.0335244 0.0138575 0.020566 0.0169659 0.0309755 0.0382768 0.0620376 0.0341661 0.0613784 0.049816 0.047293 0.0617212 0.0601218 0.0758828 0.055369 0.0601128 0.0718735 0.0789675 0.073783 0.0603453
11 3 O -3.08099 1.11221 4.4844 -1.2 1 0.0114403 0.0224978 0.0268286 0.0256687 0.0385981 0.0285131 0.0482041 0.0479295 0.0386679 0.0379202 0.0370562 0.0715527 0.0531272 0.0516773 0.0545025 0.0688612 0.0548172 0.0797696 0.0724782 0.077996
12 3 O 0.582463 3.69946 4.4844 -1.2 1 0.0102342 0.0114748 0.034162 0.0303301 0.026846 0.0614575 0.0316266 0.0548601 0.0436951 0.0413759 0.0538677 0.0576736 0.0591366 0.0720711 0.100166 0.0710842 0.0788176 0.0401475 0.0719809 0.0685164
13 3 O -2.29524 3.43162 3.18632 -1.2 1 0.0127508 0.020512 0.025433 0.0308034 0.0198284 0.0501852 0.0513938 0.0495962 0.0410279 0.0530739 0.0591577 0.0547391 0.0409193 0.0524903 0.0584295 0.0645809 0.0667309 0.0620905 0.0641057 0.0730726
14 3 O -2.34216 3.43162 5.78248 -1.2 1 0.0205124 0.0105687 0.0231715 0.0273627 0.0274114 0.0400391 0.0540485 0.0473923 0.0392709 0.0553364 0.0551636 0.0496342 0.055121 0.0522408 0.0783708 0.0735459 0.0621124 0.0700371 0.0741134 0.0713124
15 1 Mg 1.12778 2.37449 2.9896 1.2 1 0.0154615 0.0402631 0.0170624 0.0238981 0.0257409 0.0432077 0.0408536 0.0504558 0.0370041 0.0604294 0.0373421 0.0590776 0.0403852 0.0675375 0.0636431 0.0700295 0.0682056 0.0823155 0.0452422 0.0875118
16 1 Mg 3.92855 2.33318 4.4844 1.2 1 0.0283306 0.0157869 0.0237363 0.0296691 0.0434942 0.0257657 0.0371887 0.0377478 0.0469621 0.0684315 0.0511505 0.0601099 0.0500465 0.0604531 0.0549421 0.0736761 0.0632957 0.09516 0.0737805 0.0855572
17 2 Si 2.09341 4.39804 4.4844 2.4 1 0.0137694 0.0205668 0.0336449 0.0143184 0.0412484 0.0276233 0.0633202 0.0209818 0.0445285 0.0475666 0.0629608 0.0613128 0.0670456 0.0589941 0.0731277 0.0754137 0.0717778 0.08135 0.0514603 0.0655729
18 3 O 2.09991 6.01128 4.4844 -1.2 1 0.00989397 0.0118676 0.0178045 0.0191298 0.0337287 0.0226215 0.0518472 0.0509911 0.0475167 0.0463269 0.0471517 0.065678 0.0455825 0.0614744 0.0655978 0.0723204 0.0456804 0.0790713 0.0607269 0.0716744
19 3 O -4.52137 3.42402 4.4844 -1.2 1 0.0236019 0.0281522 0.0356827 0.0206817 0.0260552 0.056053 0.0356576 0.0485861 0.0543228 0.0571612 0.0310436 0.0570603 0.0513681 0.054753 0.0900877 0.0727483 0.0746521 0.060292 0.0746396 0.0560574
20 3 O 2.80834 3.69187 3.18632 -1.2 1 0.00927188 0.0179917 0.0206678 0.0248363 0.0222915 0.03859 0.0358365 0.0502941 0.0444144 0.0589479 0.067677 0.0514843 0.0426645 0.064752 0.0705086 0.0719692 0.0617683 0.0579922 0.0701501 0.0711596
21 1 Mg 1.17857 2.37449 0 1.2 1 0.0148952 0.0343933 0.0287479 0.0277442 0.0376197 0.0381555 0.0432015 0.0590626 0.0360379 0.0494537 0.0511061 0.0418439 0.0419605 0.0673345 0.0563682 0.0642316 0.0614833 0.0804916 0.0588898 0.0735029
22 3 O 2.76143 3.69187 5.78248 -1.2 1 0.00636691 0.0185887 0.019171 0.0224023 0.017081 0.0333537 0.0380736 0.0475255 0.0353348 0.0454288 0.0594648 0.043543 0.0543455 0.0757167 0.0742923 0.0682664 0.0711618 0.0575187 0.0698501 0.0752002
23 1 Mg -1.67381 2.41581 1.4948 1.2 1 0.00968113 0.0103586 0.0391788 0.0349831 0.0304625 0.0452805 0.0579667 0.0413456 0.0503643 0.0406776 0.0467708 0.0590761 0.0543741 0.0623267 0.0604252 0.0641573 0.0838043 0.0773389 0.0666779 0.0740543
24 2 Si 0.16286 0.350945 1.4948 2.4 1 0.0153895 0.0354561 0.0300043 0.0242875 0.0366378 0.0356879 0.0565299 0.0487224 0.0532968 0.0494307 0.04048 0.0536803 0.0746321 0.0705887 0.0581199 0.0735192 0.0696165 0.0642324 0.0730094 0.0654033
25 3 O 0.15972 -1.26229 1.4948 -1.2 1 0.00916701 0.0153455 0.0397116 0.0213449 0.037521 0.0359497 0.0455089 0.0567956 0.0469613 0.0514074 0.0556454 0.0557129 0.0631237 0.0664879 0.0498123 0.0595091 0.069528 0.066301 0.062478 0.0742519
26 3 O 6.77654 1.32496 1.4948 -1.2 1 0.0114894 0.0277338 0.026639 0.0276829 0.0372379 0.0544738 0.0342454 0.0647827 0.0476257 0.0467239 0.0442951 0.0524332 0.0524512 0.0594577 0.0686646 0.0714662 0.0845824 0.0629436 0.0598504 0.074645
27 3 O -0.508028 1.05712 0.196716 -1.2 1 0.024594 0.0190129 0.0295651 0.0206443 0.0292202 0.0532789 0.0437259 0.0446199 0.0471031 0.0481609 0.0503405 0.0480987 0.0495109 0.0635484 0.0550511 0.0630608 0.0633381 0.0588502 0.0721048 0.0716636
28 3 O -0.552171 1.05712 2.79288 -1.2 1 0.0367342 0.0267411 0.0361286 0.032171 0.0220408 0.0429379 0.0431614 0.047031 0.0441931 0.0370396 0.0481589 0.0490431 0.0585679 0.0634523 0.0664576 0.07652 0.0727293 0.0505013 0.0699888 0.0721671
29 1 Mg 6.31713 4.74899 0 1.2 1 0.0272185 0.029067 0.0303972 0.0367295 0.032632 0.026788 0.0420889 0.0559079 0.058714 0.0493735 0.051016 0.0385401 0.0594457 0.0613215 0.0657442 0.0638024 0.0659481 0.0736002 0.0694091 0.0702825
30 1 Mg 3.54847 9.45668 1.4948 1.2 1 0.0170806 0.0160617 0.0173298 0.0189483 0.0187462 0.0384233 0.0383521 0.0421844 0.0449932 0.0565232 0.0377013 0.0686344 0.0529094 0.0655419 0.0747283 0.062136 0.0668359 0.087769 0.0734846 0.0795157
31 2 Si 5.36879 6.77254 1.4948 2.4 1 0.0259788 0.0296893 0.0212807 0.0262796 0.0245116 0.0349912 0.0445123 0.0346288 0.0458113 0.0583653 0.0426179 0.057623 0.0527195 0.0676171 0.0653284 0.0749293 0.0673685 0.0785154 0.0566843 0.0688001
32 3 O 5.41937 8.38578 1.4948 -1.2 1 0.0214966 0.0113573 0.023425 0.0296908 0.0174023 0.0431068 0.0441801 0.0573205 0.0364271 0.0507989 0.0473445 0.0641611 0.0549496 0.053806 0.0661084 0.0607255 0.0729052 0.0561056 0.0731 0.0733182
33 3 O 1.75158 5.79852 1.4948 -1.2 1 0.0284556 0.0123536 0.0224606 0.0266163 0.0440565 0.0307117 0.0393143 0.05687 0.0408065 0.0525144 0.0495031 0.0506138 0.0474856 0.0711382 0.0787153 0.078623 0.0603556 0.0750578 0.0600575 0.0767377
34 3 O 4.67421 6.06637 0.196716 -1.2 1 0.0146072 0.0264906 0.0315702 0.0243546 0.032039 0.037799 0.0345547 0.032209 0.0448406 0.0561016 0.039259 0.0443108 0.0669117 0.0562111 0.067631 0.0712985 0.0713811 0.0657646 0.0631851 0.0682483
35 1 Mg 6.26654 4.74899 2.9896 1.2 1 0.0221181 0.024922 0.0235214 0.0432539 0.0260322 0.0441292 0.0482143 0.048048 0.036165 0.0622601 0.0373886 0.0603367 0.0386779 0.0642262 0.052938 0.0767783 0.0556991 0.084388 0.0461568 0.0902627
36 3 O 4.63043 6.06637 2.79288 -1.2 1 0.0180185 0.0189337 0.0416582 0.0194657 0.0316916 0.0365916 0.0422874 0.048611 0.0452657 0.0365618 0.049885 0.0512306 0.0568163 0.0652798 0.0617317 0.0744029 0.065789 0.0679238 0.0685448 0.0841878
37 1 Mg -1.12976 4.79031 4.4844 1.2 1 0.0235007 0.0267772 0.0146588 0.0141681 0.0351286 0.0386176 0.0472 0.0481735 0.0445061 0.0450988 0.0552169 0.0608317 0.0755 0.072289 0.0612594 0.068357 0.0713198 0.0949445 0.0719481 0.0802524
38 2 Si -2.9517 7.47444 4.4844 2.4 1 0.0227775 0.0140377 0.0200731 0.0279576 0.0300291 0.0414607 0.0627357 0.0281708 0.0553978 0.0579998 0.052201 0.058221 0.0625184 0.0569828 0.0797363 0.0709243 0.0525695 0.0879543 0.0554621 0.0609488
39 3 O -3.00198 5.86121 4.4844 -1.2 1 0.0159323 0.0243971 0.0268659 0.0274687 0.0325697 0.0310089 0.0544037 0.0593606 0.0386055 0.0535555 0.0474859 0.071021 0.0586287 0.0560845 0.06551 0.0705272 0.04961 0.0773153 0.0611816 0.077775
40 3 O 0.666315 8.44846 4.4844 -1.2 1 0.0201705 0.0226619 0.023657 0.0169329 0.0222451 0.0564646 0.0289037 0.0500754 0.0429786 0.0478328 0.0410479 0.0510932 0.0502479 0.0739037 0.102148 0.0670925 0.0765977 0.0508444 0.0707462 0.0726649
41 3 O -2.21213 8.18062 3.18632 -1.2 1 0.0183331 0.015251 0.0163832 0.0156126 0.0170847 0.0354208 0.0460763 0.0544603 0.0456913 0.053632 0.0538235 0.052444 0.0526915 0.0478397 0.0782092 0.0630014 0.0709393 0.059084 0.0681908 0.0709189
42 3 O -2.25864 8.18062 5.78248 -1.2 1 0.0140405 0.0167245 0.0200734 0.0199171 0.0163374 0.028714 0.0487832 0.0462677 0.0380992 0.0412195 0.0559449 0.0377886 0.0566376 0.0557751 0.0830635 0.0687107 0.0678384 0.0640046 0.0676097 0.0746995
43 1 Mg 1.20893 7.12349 2.9896 1.2 1 0.00773479 0.0224689 0.0186811 0.0248459 0.0239951 0.039567 0.0425484 0.0462219 0.0345252 0.0653613 0.0390076 0.0667125 0.0363873 0.0587485 0.052261 0.0798752 0.0511351 0.0841049 0.0472701 0.0872839
44 1 Mg 4.00982 7.08218 4.4844 1.2 1 0.0220267 0.014716 0.0236184 0.0350482 0.0302563 0.0366358 0.0438738 0.0368625 0.0467325 0.0512637 0.0574713 0.0555712 0.0718064 0.0730129 0.0570481 0.0678785 0.063264 0.0983379 0.0751886 0.0819422
45 2 Si 2.17861 9.14704 4.4844 2.4 1 0.026745 0.0124535 0.0243774 0.0209066 0.0289355 0.0338205 0.0625671 0.0252816 0.0505637 0.054758 0.0553107 0.0593938 0.0644659 0.0565655 0.080317 0.0698078 0.048371 0.0930168 0.0538075 0.0582645
46 3 O 2.18828 10.7603 4.4844 -1.2 1 0.0198845 0.0153705 0.00520276 0.019075 0.0273461 0.0225081 0.0444514 0.0589187 0.0406111 0.0535507 0.0407396 0.0710677 0.0445036 0.0646092 0.0700778 0.0725573 0.0471544 0.0714692 0.0637972 0.0733364
47 3 O -4.43805 8.17302 4.4844 -1.2 1 0.0109703 0.0172645 0.0179175 0.0189748 0.0236179 0.0551097 0.036639 0.0498612 0.0424256 0.0482016 0.0373579 0.0539287 0.0534992 0.0728071 0.100459 0.0657529 0.081048 0.0543544 0.0745535 0.0732774
48 3 O 2.89193 8.44087 3.18632 -1.2 1 0.0180696 0.0156158 0.0180583 0.0146248 0.021433 0.041752 0.0337794 0.055481 0.0435122 0.0513728 0.0588853 0.0492541 0.0513738 0.0531102 0.0803905 0.0631844 0.0700591 0.0592385 0.0651769 0.073343
49 1 Mg 1.25915 7.12349 0 1.2 1 0.0199467 0.015256 0.0248601 0.014682 0.0321716 0.02558 0.0525476 0.0404359 0.0556823 0.0499584 0.0526668 0.0425412 0.0720064 0.0512819 0.0674574 0.0711925 0.0653199 0.070862 0.0810512 0.0584413
50 3 O 2.84547 8.44087 5.78248 -1.2 1 0.0100057 0.0138761 0.0155872 0.0222131 0.0233953 0.0287568 0.0464591 0.0475937 0.0402377 0.0399631 0.0587135 0.0411735 0.0604849 0.0619184 0.0899924 0.0639724 0.0706512 0.0631549 0.0637866 0.0765891
51 1 Mg -1.59284 7.16481 1.4948 1.2 1 0.00981371 0.0163942 0.0204585 0.020417 0.0149723 0.0372143 0.0463179 0.0426051 0.0432731 0.0577029 0.0388883 0.0658661 0.0520259 0.0692439 0.0757192 0.0605607 0.067832 0.0844511 0.0734827 0.0784696
52 2 Si 0.240329 5.09994 1.4948 2.4 1 0.0246351 0.0173059 0.0159663 0.0433705 0.0272498 0.0404876 0.0467583 0.0533299 0.0550062 0.0487328 0.0455915 0.0574848 0.0591659 0.0680331 0.0655663 0.0664195 0.0639636 0.0728453 0.0663686 0.0680568
53 3 O 0.234538 3.48671 1.4948 -1.2 1 0.0131593 0.0163764 0.0265887 0.0358648 0.0313897 0.0492668 0.0459145 0.0424508 0.0528399 0.0467984 0.0523023 0.0612684 0.0561597 0.0609106 0.0618785 0.0624081 0.0627928 0.0571199 0.0759832 0.0735857
54 3 O 6.85564 6.07396 1.4948 -1.2 1 0.0324892 0.0195207 0.0345636 0.0275685 0.037191 0.0402345 0.0325255 0.0623914 0.0364356 0.0531276 0.0537704 0.053577 0.0553124 0.0734709 0.0698805 0.0770232 0.066452 0.0723397 0.05329 0.0850489
55 3 O -0.429565 5.80612 0.196716 -1.2 1 0.0340659 0.0200448 0.0158646 0.021183 0.0409874 0.0374612 0.0538484 0.0450786 0.0460844 0.0563119 0.0397972 0.041998 0.0534438 0.0599759 0.0599663 0.0681691 0.070312 0.0611448 0.0651384 0.0740133
56 3 O -0.473377 5.80612 2.79288 -1.2 1 0.0247951 0.0210737 0.0338894 0.0187218 0.0345306 0.0462779 0.0493617 0.0487176 0.0544466 0.0454124 0.0622362 0.0386637 0.0436146 0.0599222 0.0662096 0.071799 0.0650735 0.0688602 0.0716709 0.0806007
57 1 Mg 6.40169 9.49799 0 1.2 1 0.0126601 0.0116857 0.0212619 0.014248 0.0304859 0.0213258 0.0522845 0.0356505 0.0586998 0.049244 0.0498354 0.0355809 0.0671399 0.0526338 0.071233 0.0673683 0.0653096 0.0706448 0.0808181 0.0686518
58 1 Mg 3.64209 14.2057 1.4948 1.2 1 0.0105272 0.0110475 0.0180764 0.0164787 0.0216031 0.033693 0.0359857 0.0434666 0.0414632 0.0555141 0.0394413 0.0665525 0.0531942 0.0661905 0.0738037 0.0633132 0.0647235 0.0823698 0.0739984 0.0783277
59 2 Si 5.45748 11.5215 1.4948 2.4 1 0.0119035 0.02177 0.0233704 0.0248635 0.0180969 0.0402647 0.0397575 0.0399346 0.0436432 0.0547553 0.0424185 0.0600647 0.0532454 0.06639 0.069441 0.0636906 0.0708481 0.0816534 0.0581859 0.0665128
60 3 O 5.51101 13.1348 1.4948 -1.2 1 0.0241759 0.0134573 0.02235 0.029377 0.0199628 0.0434167 0.0444222 0.0591125 0.036484 0.0497398 0.0429597 0.0672588 0.0532678 0.0533636 0.0656134 0.0601733 0.070638 0.0578314 0.0695604 0.0718872
61 3 O 1.83851 10.5475 1.4948 -1.2 1 0.0351832 0.0140538 0.0215905 0.0138958 0.0363316 0.0302636 0.0364958 0.0589657 0.0398204 0.0483043 0.0498191 0.0514893 0.0471016 0.074979 0.0756972 0.0799692 0.0566309 0.0760217 0.0577556 0.0789066
62 3 O 4.7611 10.8154 0.196716 -1.2 1 0.0357636 0.0193482 0.0199717 0.0181536 0.0266542 0.0441559 0.0483649 0.0374116 0.0388037 0.0491337 0.0369195 0.0409316 0.0606939 0.0608 0.0650304 0.071459 0.0753688 0.0657204 0.072985 0.0678588
63 1 Mg 6.35203 9.49799 2.9896 1.2 1 0.013016 0.0176467 0.0255005 0.0211967 0.0193235 0.0380281 0.0370405 0.0511872 0.0345403 0.0582903 0.031186 0.0648458 0.0281359 0.0667954 0.0472465 0.080381 0.0457556 0.0903762 0.0452275 0.0905329
64 3 O 4.71833 10.8154 2.79288 -1.2 1 0.0258617 0.00963145 0.0312386 0.0127618 0.0299494 0.0437907 0.0438957 0.0451017 0.0427917 0.0374717 0.0528371 0.0429623 0.0537946 0.0576442 0.0730814 0.0674466 0.0724519 0.0595853 0.0696087 0.0803839
65 1 Mg -1.0438 9.53931 4.4844 1.2 1 0.0133368 0.0187591 0.0136191 0.0230148 0.0262456 0.0310886 0.0370073 0.0365057 0.0452377 0.0506121 0.0558162 0.057314 0.0670467 0.0712617 0.0593895 0.0708638 0.0722521 0.0974131 0.0703653 0.0835874
66 2 Si -2.8604 12.2234 4.4844 2.4 1 0.0188864 0.0118155 0.0165969 0.0267459 0.0302475 0.0419639 0.0593377 0.0306633 0.0537164 0.0621322 0.0546007 0.0627184 0.0605982 0.0554758 0.0793045 0.0719625 0.0497716 0.0912331 0.05394 0.0630493
67 3 O -2.91391 10.6102 4.4844 -1.2 1 0.0213497 0.0120331 0.00931097 0.0233759 0.0265669 0.0233805 0.0440307 0.0625923 0.0400342 0.0492539 0.0361972 0.0704433 0.0460508 0.0581265 0.0677654 0.0698878 0.0502213 0.0738139 0.0618267 0.0755457
68 3 O 0.7596 13.1975 4.4844 -1.2 1 0.022372 0.0253917 0.0183362 0.0124655 0.0245216 0.0489424 0.0337205 0.0514912 0.0461147 0.0500374 0.0379965 0.0499337 0.0465997 0.070845 0.100608 0.0619498 0.0764042 0.0524235 0.0728775 0.0715325
69 3 O -2.12001 12.9296 3.18632 -1.2 1 0.02011 0.00687803 0.0216402 0.0171353 0.0188922 0.0369269 0.0406658 0.0549565 0.0438289 0.0547457 0.0528679 0.0491378 0.0559184 0.0483035 0.0805768 0.062407 0.0729014 0.0637175 0.0667929 0.0698993
70 3 O -2.16532 12.9296 5.78248 -1.2 1 0.0176149 0.00922608 0.0206495 0.0222371 0.0155869 0.0274727 0.050361 0.0442105 0.0381515 0.0380122 0.0561614 0.0371655 0.0560909 0.0585307 0.0818315 0.0685937 0.0686695 0.0630928 0.0702397 0.0776808
71 1 Mg 1.29891 11.8725 2.9896 1.2 1 0.00717257 0.0157708 0.0223526 0.0227113 0.0176135 0.0380237 0.0364729 0.0507313 0.0351213 0.0600467 0.0343167 0.0588054 0.0258507 0.0676122 0.0489676 0.0822653 0.0487977 0.0895014 0.0473484 0.0861923
72 1 Mg 4.10033 11.8312 4.4844 1.2 1 0.0123253 0.0203527 0.0197164 0.0284275 0.028726 0.0332165 0.0418285 0.0344893 0.0464213 0.0500696 0.0545545 0.0534 0.0673846 0.0713086 0.0534619 0.0708321 0.0710932 0.0996829 0.0740405 0.080601
73 2 Si 2.27333 13.896 4.4844 2.4 1 0.0244636 0.00937626 0.0277413 0.0244615 0.0243634 0.037231 0.0620232 0.0301875 0.0545991 0.0565749 0.0525848 0.0599041 0.0617588 0.0561282 0.0769158 0.0692745 0.046091 0.0975597 0.0545891 0.0556131
74 3 O 2.28634 15.5093 4.4844 -1.2 1 0.0220267 0.0158623 0.0034235 0.0199046 0.0247128 0.0219587 0.0426595 0.059634 0.0418159 0.0529009 0.0411778 0.0709094 0.0465994 0.0623888 0.0694546 0.0703037 0.0488287 0.069585 0.0652439 0.0746205
75 3 O -4.34533 12.922 4.4844 -1.2 1 0.0214692 0.0185624 0.0219615 0.0158221 0.0238481 0.0505674 0.0378878 0.0499152 0.0418689 0.0519446 0.0388495 0.0512019 0.0482756 0.0725628 0.100816 0.0678686 0.0782337 0.0528206 0.0746046 0.0738581
76 3 O 2.98455 13.1899 3.18632 -1.2 1 0.0228324 0.0116414 0.0178112 0.0116297 0.0206014 0.0418532 0.0386307 0.0585531 0.0455752 0.0525914 0.0564176 0.0488743 0.0509565 0.0508229 0.0807952 0.0624499 0.0668242 0.0601465 0.0635761 0.0717791
77 1 Mg 1.34779 11.8725 0 1.2 1 0.0217882 0.00940482 0.0218796 0.0150091 0.0287089 0.0227333 0.051562 0.0346527 0.0574164 0.0510324 0.0495997 0.0354794 0.0650555 0.0500803 0.0704277 0.064197 0.061758 0.0700587 0.0875055 0.0594585
78 3 O 2.93934 13.1899 5.78248 -1.2 1 0.0213427 0.0130297 0.019373 0.0181867 0.0151252 0.0275568 0.0461452 0.0486271 0.0391966 0.0409058 0.0586523 0.0387793 0.0539725 0.0588694 0.0864668 0.0654792 0.0701231 0.0628774 0.0668307 0.0790345
79 1 Mg -1.50344 11.9138 1.4948 1.2 1 0.0129347 0.017911 0.0229136 0.0203919 0.0118152 0.0369157 0.0384151 0.0423582 0.0410994 0.0598258 0.0352462 0.0654376 0.0505685 0.0649339 0.0747161 0.0682437 0.0639538 0.0839218 0.0765339 0.0787868
80 2 Si 0.326006 9.84894 1.4948 2.4 1 0.0281134 0.0178688 0.0269322 0.0294905 0.0168859 0.0381204 0.0433989 0.0399712 0.0439673 0.0549456 0.0396185 0.0604283 0.0557122 0.0663686 0.0608716 0.0626147 0.070245 0.0802945 0.0615969 0.0689304
81 3 O 0.317364 8.23571 1.4948 -1.2 1 0.022425 0.0125305 0.0226154 0.0239704 0.0201553 0.0452556 0.0429085 0.0498499 0.0346719 0.0542152 0.0442075 0.0658153 0.05739 0.0597078 0.0680974 0.066397 0.0716302 0.0535111 0.07341 0.074174
82 3 O 6.94307 10.823 1.4948 -1.2 1 0.0312028 0.0148565 0.0219974 0.0117896 0.0373464 0.0331349 0.0380519 0.0577601 0.0349114 0.0477312 0.0513376 0.0522782 0.049982 0.0748786 0.0726778 0.0797955 0.0617255 0.0727671 0.0580573 0.0804772
83 3 O -0.343122 10.5551 0.196716 -1.2 1 0.0308894 0.0174982 0.0216284 0.020865 0.029817 0.0413818 0.0511931 0.0396893 0.0387254 0.0506612 0.0370561 0.0377423 0.0615014 0.0607524 0.0687803 0.0707734 0.0809056 0.0542005 0.0699283 0.0691599
84 3 O -0.385966 10.5551 2.79288 -1.2 1 0.0261611 0.0163977 0.0306127 0.0125718 0.0337086 0.0422749 0.0444744 0.0469779 0.0429484 0.0402501 0.0529044 0.0492155 0.0489126 0.054332 0.069166 0.0704494 0.0664106 0.0607333 0.067861 0.0797906
85 1 Mg 6.49448 14.247 0 1.2 1 0.0225402 0.00985501 0.0186515 0.01704 0.0286736 0.0229687 0.0478972 0.0329777 0.0593173 0.0481567 0.0512559 0.0374488 0.0625005 0.0528104 0.0711866 0.0653529 0.0645054 0.0706666 0.0845165 0.0705983
86 1 Mg 3.74457 18.9547 1.4948 1.2 1 0.0149468 0.0107088 0.0152944 0.0160354 0.0258838 0.0292758 0.0314732 0.0393481 0.0381587 0.0579731 0.0436446 0.0667289 0.0506455 0.0662989 0.0704643 0.069787 0.0630667 0.0830825 0.0785556 0.0759349
87 2 Si 5.55495 16.2705 1.4948 2.4 1 0.0108308 0.021921 0.0201176 0.0270753 0.0176724 0.0428432 0.0370463 0.0402944 0.0466386 0.0527294 0.0440138 0.0606155 0.0539729 0.0642371 0.0701175 0.0593253 0.0732746 0.0792312 0.0606283 0.0707133
88 3 O 5.6115 17.8838 1.4948 -1.2 1 0.0268994 0.0181712 0.0233453 0.0256692 0.0192141 0.0435262 0.0452457 0.0608805 0.0372877 0.0499641 0.038054 0.0670755 0.0512453 0.0560776 0.0644601 0.0573362 0.0658074 0.061627 0.0632622 0.0691824
89 3 O 1.93416 15.2965 1.4948 -1.2 1 0.0370825 0.014716 0.0219453 0.0130334 0.0350537 0.0303383 0.036091 0.0591256 0.043056 0.0469173 0.0486061 0.0505198 0.0464951 0.0738757 0.0808183 0.0776094 0.0589802 0.0738866 0.0622807 0.0772999
90 3 O 4.85636 15.5644 0.196716 -1.2 1 0.0260924 0.0109711 0.022342 0.0195951 0.023678 0.0514019 0.0505729 0.0400696 0.0410193 0.0465005 0.0365249 0.0337109 0.0640748 0.0545876 0.0672504 0.068366 0.0747303 0.0633164 0.0718934 0.0675461
91 1 Mg 6.44662 14.247 2.9896 1.2 1 0.0103879 0.0181475 0.0229355 0.0217731 0.0186496 0.0354113 0.0380099 0.0539624 0.036372 0.0575359 0.0338306 0.0629885 0.0249599 0.0673326 0.0456205 0.0767015 0.0447733 0.0916339 0.0436555 0.0925033
92 3 O 4.81537 15.5644 2.79288 -1.2 1 0.0144741 0.00750939 0.0276827 0.0137844 0.0273427 0.0381266 0.0462257 0.0476703 0.0458068 0.0387987 0.0517921 0.0411223 0.0525497 0.0566136 0.075393 0.0668337 0.0756978 0.0535252 0.0730582 0.0754426
93 1 Mg -0.948271 14.2883 4.4844 1.2 1 0.0167356 0.0126769 0.0146913 0.0290246 0.0238783 0.0284709 0.037522 0.0342963 0.0444348 0.0491861 0.0591763 0.0562251 0.0669836 0.0689157 0.0584836 0.0704231 0.0715551 0.0967267 0.0733607 0.0832072
94 2 Si -2.75928 16.9724 4.4844 2.4 1 0.0203806 0.0117666 0.0185976 0.0274804 0.0294281 0.0415356 0.0585901 0.0316381 0.0552109 0.0625187 0.0529371 0.0629302 0.059928 0.0547536 0.0781399 0.071819 0.0468352 0.0923247 0.0537238 0.0637227
95 3 O -2.81617 15.3592 4.4844 -1.2 1 0.0178612 0.017025 0.0108327 0.0256948 0.0280789 0.0236295 0.0423712 0.0635714 0.0438322 0.0498412 0.0376823 0.0720136 0.0477369 0.0578565 0.0673909 0.067447 0.0509784 0.0733313 0.0638827 0.0759695
96 3 O 0.862762 17.9465 4.4844 -1.2 1 0.018863 0.0240481 0.0216514 0.017546 0.021882 0.0481062 0.0340417 0.0522966 0.0466239 0.0531846 0.0400987 0.0478741 0.0443564 0.0705228 0.107069 0.0566797 0.0711101 0.0532013 0.0744808 0.0685741
97 3 O -2.0185 17.6786 3.18632 -1.2 1 0.0217089 0.0073009 0.0199103 0.0180942 0.0177943 0.0373414 0.0419656 0.0552511 0.0415721 0.0539204 0.0532566 0.0493554 0.0559276 0.0491047 0.0818162 0.0593777 0.0694236 0.0666669 0.0645998 0.0682514
98 3 O -2.06164 17.6786 5.78248 -1.2 1 0.0119981 0.0106017 0.0257068 0.0230275 0.0164494 0.0259294 0.0520285 0.0451499 0.0392438 0.0368037 0.0553451 0.0386158 0.0569743 0.0639461 0.0820061 0.0673373 0.0714264 0.0631404 0.0691503 0.076987
99 1 Mg 1.39817 16.6215 2.9896 1.2 1 0.00529482 0.0168276 0.0192946 0.0243325 0.0180855 0.0370179 0.0370646 0.0517929 0.0372313 0.0592884 0.0362189 0.0573737 0.0226735 0.0665691 0.0471134 0.0813168 0.0489902 0.0911348 0.0453433 0.0896029
100 1 Mg 4.20062 16.5802 4.4844 1.2 1 0.013932 0.0123457 0.0156274 0.0253159 0.0257665 0.0299448 0.040238 0.0351237 0.0466604 0.052604 0.0538703 0.0561306 0.0684641 0.0680317 0.05305 0.0721926 0.0696449 0.0969099 0.0743692 0.0800047
101 2 Si 2.37796 18.645 4.4844 2.4 1 0.0218081 0.0122486 0.0240032 0.0252267 0.0237836 0.0375997 0.0603941 0.0320335 0.0558135 0.0582018 0.0511611 0.0612013 0.0608245 0.0556126 0.0741348 0.0684118 0.0454606 0.0991307 0.0532935 0.0561253
102 3 O 2.39434 20.2583 4.4844 -1.2 1 0.0226942 0.0140892 0.00570989 0.0184614 0.0233793 0.0228032 0.0413997 0.0590555 0.0428028 0.0505368 0.0412232 0.0720265 0.0499113 0.0624327 0.0715239 0.0679964 0.0491074 0.0690691 0.0661181 0.0781867
103 3 O -4.24274 17.671 4.4844 -1.2 1 0.0223111 0.0224832 0.0217038 0.0154793 0.0220732 0.0473858 0.0335382 0.0499517 0.0451869 0.0530724 0.03725 0.0512391 0.0488829 0.0695825 0.0998836 0.0620487 0.0761534 0.0531779 0.0765699 0.0707452
104 3 O 3.08659 17.9389 3.18632 -1.2 1 0.0282355 0.0132591 0.0218679 0.0112197 0.017104 0.0386216 0.0370868 0.0557022 0.0431516 0.051939 0.0556844 0.0479513 0.0519528 0.0496203 0.0806633 0.0582743 0.0677893 0.0603718 0.0645902 0.0689987
105 1 Mg 1.44478 16.6215 0 1.2 1 0.00950908 0.0121093 0.0216724 0.0127484 0.0266634 0.0315125 0.0479936 0.0355106 0.050723 0.0505195 0.0518231 0.0397419 0.0586118 0.0494404 0.0698078 0.0660077 0.0602412 0.0677139 0.0885263 0.0638492
106 3 O 3.0436 17.9389 5.78248 -1.2 1 0.0144969 0.0133571 0.0188413 0.0237468 0.0203693 0.0240276 0.0494888 0.0464541 0.041434 0.0399592 0.0580581 0.037569 0.0558294 0.0600563 0.0874735 0.0648206 0.0688772 0.0621444 0.0642511 0.0787562
107 1 Mg -1.40524 16.6628 1.4948 1.2 1 0.0116158 0.0125145 0.0257269 0.017703 0.0173218 0.0344773 0.0359639 0.0427874 0.0413659 0.0604323 0.040363 0.0625351 0.0548619 0.0644462 0.0739729 0.0692219 0.0643812 0.0779722 0.0782578 0.0759536
108 2 Si 0.420358 14.5979 1.4948 2.4 1 0.020952 0.0197302 0.0272129 0.0268973 0.0181787 0.0393528 0.0395796 0.0398386 0.0451954 0.0557233 0.0440912 0.0604914 0.0577469 0.063608 0.0676329 0.0597936 0.0722706 0.0759632 0.0624413 0.0714782
109 3 O 0.408732 12.9847 1.4948 -1.2 1 0.0222223 0.0155118 0.0229229 0.0256223 0.0168327 0.0471918 0.0437239 0.0538987 0.0361065 0.0527522 0.0422934 0.0691851 0.0532651 0.0569703 0.0660777 0.0635204 0.0714144 0.0549844 0.0683323 0.0716997
110 3 O 7.03923 15.572 1.4948 -1.2 1 0.029313 0.016856 0.0217834 0.0127485 0.0361002 0.0335761 0.0368647 0.056195 0.0382585 0.0444158 0.0511888 0.0532902 0.0481279 0.0741884 0.0781596 0.0782663 0.064317 0.0695787 0.0623464 0.0775052
111 3 O -0.248332 15.3041 0.196716 -1.2 1 0.019005 0.0130092 0.0212188 0.0182936 0.0251846 0.0464497 0.0487956 0.0430417 0.0391286 0.0446808 0.0379552 0.0306635 0.060746 0.0540965 0.0700031 0.0642392 0.0833291 0.0503221 0.070208 0.0723115
112 3 O -0.289436 15.3041 2.79288 -1.2 1 0.0143092 0.0173286 0.0290047 0.010811 0.0310511 0.0358955 0.0440785 0.0469941 0.0437007 0.0402645 0.0543783 0.0482263 0.0510817 0.053206 0.0724958 0.0699583 0.0713732 0.055037 0.0688327 0.0766364
113 1 Mg 6.59566 18.996 0 1.2 1 0.0138409 0.0116526 0.0199131 0.0144216 0.0260789 0.0315904 0.0430219 0.0329492 0.0539456 0.0492483 0.0539336 0.0390445 0.0521777 0.0528678 0.0721311 0.0646051 0.06406 0.0648354 0.0861128 0.0707868
114 1 Mg 3.85574 23.7037 1.4948 1.2 1 0.0107295 0.0126502 0.021204 0.0140206 0.0225941 0.0288311 0.0312758 0.0370838 0.0389665 0.0600407 0.0469376 0.0627553 0.0500692 0.0668818 0.0647694 0.0724482 0.0662983 0.0797472 0.0798906 0.0759037
115 2 Si 5.66125 21.0195 1.4948 2.4 1 0.00823181 0.0242759 0.0232722 0.0273713 0.0192495 0.0463073 0.0340438 0.0414614 0.0491889 0.0543414 0.0453751 0.0606581 0.0558984 0.0595498 0.0716509 0.0607915 0.0735461 0.0771855 0.0646228 0.0756584
116 3 O 5.72074 22.6328 1.4948 -1.2 1 0.0282022 0.0192153 0.018357 0.0227368 0.0191513 0.0447747 0.0454096 0.0618686 0.03806 0.0520868 0.0328916 0.0698182 0.0493905 0.0536373 0.0683075 0.0558355 0.0650784 0.0677918 0.0564574 0.0711753
117 3 O 2.03867 20.0455 1.4948 -1.2 1 0.0300267 0.0164993 0.0267423 0.0159819 0.0341973 0.0301215 0.0359459 0.0552161 0.0440109 0.0426374 0.050637 0.050349 0.0477859 0.0739311 0.084765 0.0726912 0.0618509 0.067984 0.063565 0.0734618
118 3 O 4.96004 20.3134 0.196716 -1.2 1 0.0211058 0.0103858 0.0229333 0.0187942 0.0232389 0.0452724 0.0439311 0.0478821 0.038929 0.0398276 0.0411642 0.0343768 0.0646918 0.0477825 0.0696443 0.0729495 0.0715081 0.0580639 0.0716062 0.0720951
119 1 Mg 6.55057 18.996 2.9896 1.2 1 0.00932524 0.0172419 0.020573 0.0213862 0.0209259 0.0344753 0.0370565 0.0554295 0.0341748 0.0597187 0.0345858 0.0620776 0.0229241 0.0700827 0.0449071 0.0736573 0.0463125 0.0950595 0.043173 0.0936604
120 3 O 4.92172 20.3134 2.79288 -1.2 1 0.0099278 0.0115294 0.0314441 0.0153174 0.0301305 0.0396861 0.0460401 0.0456397 0.0472852 0.0428865 0.0525578 0.0403377 0.0536997 0.0535674 0.0768486 0.067493 0.0759013 0.0478115 0.0716533 0.0719759
121 1 Mg -0.84282 19.0373 4.4844 1.2 1 0.0143947 0.0125433 0.0141486 0.0280491 0.023452 0.0270626 0.0372056 0.0320469 0.0454857 0.0493901 0.0598253 0.0565239 0.0669584 0.069013 0.058529 0.0726659 0.0711297 0.0939235 0.0735747 0.0827472
122 2 Si -2.64823 21.7214 4.4844 2.4 1 0.019484 0.0127399 0.0171177 0.0277612 0.0286464 0.0407996 0.0566007 0.0314485 0.0548926 0.0626827 0.0522057 0.0647422 0.0600598 0.0548054 0.0768046 0.0720838 0.0457196 0.0939136 0.0526881 0.0657945
123 3 O -2.70847 20.1082 4.4844 -1.2 1 0.0125374 0.0172964 0.0159028 0.0259687 0.0256909 0.0237775 0.0408913 0.0648007 0.0449054 0.04951 0.0391336 0.0702889 0.0508909 0.0581826 0.0680458 0.0658303 0.0515293 0.0721292 0.0662755 0.0766294
124 3 O 0.97581 22.6955 4.4844 -1.2 1 0.0155148 0.0255925 0.0200339 0.0172574 0.0193158 0.0416635 0.0310093 0.0518608 0.04574 0.0546698 0.0400164 0.0469585 0.0460808 0.0720617 0.107171 0.0516963 0.0674853 0.0549241 0.0746051 0.0659326
125 3 O -1.9076 22.4276 3.18632 -1.2 1 0.0218926 0.00794351 0.0209484 0.0163281 0.0135161 0.0368699 0.0440453 0.0554419 0.0375331 0.0502348 0.0548237 0.0485629 0.0561813 0.0483759 0.0807691 0.0581208 0.0691246 0.066108 0.0628014 0.0658089
126 3 O -1.9475 22.4276 5.78248 -1.2 1 0.00980046 0.0109519 0.024075 0.0211945 0.015117 0.0280491 0.0471743 0.0458983 0.0382659 0.0393313 0.0582186 0.0397097 0.0560798 0.0634156 0.082243 0.0684296 0.0708801 0.062573 0.0665146 0.0763199