ITEM: TIMESTEP
34700
ITEM: NUMBER OF ATOMS
10500
ITEM: BOX BOUNDS xy xz yz pp pp pp
0	15.2977	5.09925
0	118.725	0
0	89.688	0
ITEM: ATOMS id type element xu yu zu q Q_1 Q_2 Q_3 Q_4 Q_5 Q_6 Q_7 Q_8 Q_9 Q_10 Q_11 Q_12 Q_13 Q_14 Q_15 Q_16 Q_17 Q_18 Q_19 Q_20 Q_21
1 1 Mg 6.2404 -6.37941e-06 0 1.2 1 0.0131401 0.0408306 0.0297058 0.0358736 0.0332373 0.0413531 0.035655 0.0687609 0.0388971 0.0710859 0.0340967 0.0592425 0.0463604 0.0686164 0.0503372 0.09188 0.0520031 0.0835773 0.0502392 0.103045
2 1 Mg 3.46349 4.70768 1.4948 1.2 1 0.0124726 0.0162506 0.0250884 0.0235735 0.0198018 0.04146 0.0435312 0.0411307 0.0476243 0.0556661 0.0418817 0.0698252 0.0578037 0.0706719 0.0730015 0.0645273 0.0669737 0.0848504 0.073634 0.0824958
3 2 Si 5.2885 2.02354 1.4948 2.4 1 0.0199217 0.0221733 0.0338103 0.028491 0.0301138 0.0375222 0.0536846 0.0327201 0.0437537 0.0538355 0.0544928 0.0619369 0.055097 0.064935 0.0678604 0.0797887 0.0707546 0.0644979 0.0641094 0.072939
4 3 O 5.33628 3.63678 1.4948 -1.2 1 0.00936875 0.0141338 0.026827 0.0258939 0.0184243 0.0390588 0.041851 0.0601554 0.035322 0.0400276 0.0547727 0.0507924 0.0678337 0.0576106 0.0592212 0.0648743 0.060369 0.0616052 0.0710928 0.0745848
5 3 O 1.67294 1.04952 1.4948 -1.2 1 0.0128619 0.0194964 0.022846 0.0357199 0.031157 0.038542 0.0357547 0.0608521 0.035463 0.0594548 0.0442488 0.052486 0.0703534 0.0593968 0.0758186 0.0699382 0.0632728 0.0651467 0.0784074 0.0607205
6 3 O 4.59532 1.31737 0.196716 -1.2 1 0.0269391 0.0195355 0.0563964 0.0255696 0.0333793 0.0486944 0.0392871 0.0477347 0.0339166 0.040126 0.0383268 0.0504888 0.0549313 0.0585584 0.0636083 0.0704908 0.0631303 0.0718029 0.0592131 0.0702489
7 1 Mg 6.18956 -6.37941e-06 2.9896 1.2 1 0.0154541 0.0287005 0.0152529 0.0216561 0.0359124 0.0456315 0.0507504 0.0428626 0.0481868 0.044826 0.037969 0.0566405 0.0397946 0.0550427 0.0590551 0.0799739 0.0569511 0.0683818 0.058351 0.0702148
8 3 O 4.55118 1.31737 2.79288 -1.2 1 0.0217237 0.0248501 0.0373442 0.0171915 0.0281935 0.0447099 0.0437445 0.0471324 0.0432122 0.0537406 0.0541058 0.048194 0.0489579 0.0652784 0.0542435 0.0704492 0.0645786 0.0668185 0.0645656 0.0710709
9 1 Mg -1.20682 0.0413099 4.4844 1.2 1 0.0148446 0.0243918 0.0237787 0.0274323 0.0351781 0.0422807 0.0304752 0.0565081 0.053051 0.0378508 0.0507027 0.0620808 0.0681612 0.0567758 0.0752761 0.060714 0.0812298 0.0757919 0.0634636 0.0525312
10 2 Si -3.0337 2.72544 4.4844 2.4 1 0.0338183 0.0149965 0.0204199 0.0133941 0.0349548 0.0399325 0.0599659 0.0357517 0.062389 0.0536341 0.0492643 0.0617745 0.0587882 0.0737118 0.0575203 0.0608172 0.0719979 0.0801048 0.0715545 0.063176
11 3 O -3.08099 1.11221 4.4844 -1.2 1 0.0155554 0.0209082 0.0287616 0.02373 0.0405358 0.0239807 0.0520884 0.0451145 0.0427734 0.0420354 0.0405844 0.0726126 0.0536678 0.0516804 0.0546526 0.0679888 0.0557863 0.0816661 0.0720833 0.0745258
12 3 O 0.582463 3.69946 4.4844 -1.2 1 0.00976257 0.0122578 0.0330909 0.0302493 0.0275119 0.061703 0.0343372 0.0532605 0.0422101 0.03975 0.0552279 0.0583526 0.0587776 0.0725785 0.101102 0.06936 0.0811061 0.0392328 0.0722338 0.067276
13 3 O -2.29524 3.43162 3.18632 -1.2 1 0.0126362 0.0203896 0.0265883 0.0308664 0.0201829 0.0504297 0.0513293 0.0490367 0.0420147 0.052914 0.0581067 0.055008 0.0414043 0.0513814 0.058976 0.066003 0.0667512 0.0622274 0.0635606 0.0722142
14 3 O -2.34216 3.43162 5.78248 -1.2 1 0.0202611 0.0134244 0.0183416 0.0286864 0.0275689 0.0398941 0.0547071 0.0448714 0.044625 0.0571134 0.0567078 0.0467251 0.0583495 0.0535362 0.0785942 0.0698071 0.0622326 0.0722016 0.0728723 0.0713551
15 1 Mg 1.12778 2.37449 2.9896 1.2 1 0.0190587 0.0393995 0.0140395 0.0240828 0.0233494 0.043467 0.0410066 0.0519682 0.0363067 0.0619538 0.0354701 0.059475 0.0402097 0.0681147 0.0650165 0.0700373 0.0679705 0.08083 0.0446887 0.0871739
16 1 Mg 3.92855 2.33318 4.4844 1.2 1 0.0285068 0.0159089 0.0231678 0.0299459 0.0443376 0.025729 0.0377961 0.0384294 0.0459381 0.0680115 0.0501076 0.0595887 0.050137 0.0601343 0.0549409 0.0734363 0.063787 0.0938034 0.0745777 0.0850462
17 2 Si 2.09341 4.39804 4.4844 2.4 1 0.0143129 0.0206376 0.0323752 0.015315 0.0411923 0.0270164 0.0634203 0.0216294 0.0435342 0.0469183 0.0633241 0.0624228 0.0673821 0.0601009 0.0729071 0.0752993 0.0709472 0.082158 0.0529839 0.0651145
18 3 O 2.09991 6.01128 4.4844 -1.2 1 0.0148648 0.00912249 0.0150171 0.0189467 0.032834 0.0240993 0.0510001 0.0518887 0.0468836 0.0469037 0.0473305 0.0655419 0.0454251 0.0603444 0.0651108 0.069832 0.049016 0.0787705 0.0589569 0.0713595
19 3 O -4.52137 3.42402 4.4844 -1.2 1 0.0220374 0.0256728 0.0342057 0.0230045 0.0251587 0.0596956 0.0393069 0.0451168 0.0563636 0.0574564 0.031969 0.0564703 0.0507321 0.0533693 0.0905247 0.0723736 0.0788382 0.0610501 0.0745045 0.0530721
20 3 O 2.80834 3.69187 3.18632 -1.2 1 0.00848522 0.0177178 0.0208889 0.023704 0.0225633 0.0382166 0.0369704 0.0503002 0.0448371 0.0603813 0.0674182 0.0526112 0.0430809 0.0646094 0.0709095 0.0739016 0.0615551 0.0586579 0.0699897 0.0699567
21 1 Mg 1.17857 2.37449 0 1.2 1 0.0153184 0.0345248 0.027269 0.0290093 0.0395561 0.0403845 0.0467627 0.0609297 0.0369071 0.0485528 0.0512973 0.0424084 0.0423459 0.0702699 0.0569416 0.0657999 0.0617586 0.0808953 0.0583906 0.0729846
22 3 O 2.76143 3.69187 5.78248 -1.2 1 0.00733445 0.0190902 0.0192785 0.0268508 0.0200877 0.0339759 0.039903 0.0473619 0.0359287 0.046453 0.05742 0.0442459 0.0544941 0.0805661 0.0729139 0.0681697 0.0687343 0.0613672 0.0697476 0.0756802
23 1 Mg -1.67381 2.41581 1.4948 1.2 1 0.0114025 0.0115562 0.037154 0.0361884 0.0323543 0.0440106 0.0587619 0.0403405 0.0512184 0.0405752 0.0463697 0.0592066 0.0548271 0.0634242 0.061246 0.0646506 0.0831702 0.0778147 0.0666363 0.0738995
24 2 Si 0.16286 0.350945 1.4948 2.4 1 0.0161154 0.03568 0.0277651 0.0279282 0.03405 0.0356706 0.0555503 0.0485176 0.0529337 0.0495598 0.0399058 0.0556117 0.072752 0.0706135 0.0597488 0.0747534 0.0727384 0.0646911 0.0726043 0.0662185
25 3 O 0.15972 -1.26229 1.4948 -1.2 1 0.00912404 0.0152607 0.0396771 0.0214082 0.0377534 0.0361049 0.0455594 0.0571529 0.0468062 0.0513358 0.0556006 0.0550775 0.0628973 0.0662592 0.0500546 0.0596956 0.0692816 0.0657834 0.063136 0.0744083
26 3 O 6.77654 1.32496 1.4948 -1.2 1 0.0114861 0.0277993 0.0266111 0.0277623 0.0372556 0.0544891 0.0342172 0.0648176 0.0475845 0.0468598 0.0442195 0.052457 0.052402 0.059436 0.0686134 0.0715184 0.0846485 0.0629606 0.0597789 0.0747083
27 3 O -0.508028 1.05712 0.196716 -1.2 1 0.026928 0.0160603 0.0321358 0.018768 0.0295144 0.054767 0.0445566 0.0456507 0.0460699 0.0487651 0.0496538 0.0477217 0.0500407 0.0636057 0.056248 0.0646978 0.0636573 0.0600341 0.0721339 0.0713577
28 3 O -0.552171 1.05712 2.79288 -1.2 1 0.0377988 0.0321621 0.0317367 0.0339105 0.0238295 0.0402149 0.0416438 0.0496809 0.0419203 0.0390452 0.0489477 0.048349 0.0576408 0.0612013 0.0646176 0.0771655 0.0741455 0.0525473 0.0699425 0.0723636
29 1 Mg 6.31713 4.74899 0 1.2 1 0.026917 0.0295952 0.0298611 0.0357812 0.0320713 0.0255428 0.0406981 0.0570647 0.0585854 0.0495647 0.0510561 0.0392752 0.0585323 0.0617549 0.0660595 0.0637533 0.0663318 0.0741561 0.0701817 0.0697751
30 1 Mg 3.54847 9.45668 1.4948 1.2 1 0.017014 0.0161207 0.0173172 0.0190829 0.0190594 0.0382716 0.0389354 0.0417516 0.0451734 0.0568152 0.0380498 0.0684126 0.052906 0.0660209 0.0744589 0.0620665 0.0667183 0.0873469 0.073595 0.0796063
31 2 Si 5.36879 6.77254 1.4948 2.4 1 0.025987 0.0296342 0.0212878 0.0263768 0.0245529 0.0350258 0.0443958 0.0346934 0.0456885 0.0585478 0.0425529 0.057497 0.0527902 0.0677425 0.0652656 0.0749248 0.0674149 0.0783806 0.0569412 0.0687187
32 3 O 5.41937 8.38578 1.4948 -1.2 1 0.0215542 0.0114691 0.0235335 0.0296339 0.0175604 0.0432375 0.0441113 0.057325 0.0363913 0.0505363 0.0475398 0.0641683 0.0552244 0.0538107 0.0663708 0.0608521 0.072719 0.0560008 0.0731196 0.0730543
33 3 O 1.75158 5.79852 1.4948 -1.2 1 0.0284582 0.012267 0.0223092 0.0265399 0.0441007 0.0308234 0.0391279 0.0571541 0.0409548 0.0526577 0.0494931 0.0504303 0.0472985 0.070995 0.0786618 0.0784542 0.0602124 0.0750964 0.0599666 0.076453
34 3 O 4.67421 6.06637 0.196716 -1.2 1 0.0146212 0.0264725 0.031616 0.0244023 0.0319999 0.0377582 0.0345824 0.0321048 0.0447877 0.0560898 0.0392652 0.0442379 0.0668099 0.0561311 0.067714 0.0711816 0.0713535 0.0657992 0.0632563 0.0683179
35 1 Mg 6.26654 4.74899 2.9896 1.2 1 0.0223411 0.0261121 0.0250854 0.0407539 0.0260285 0.0450224 0.0491249 0.0496242 0.0354671 0.0647385 0.0384213 0.0602753 0.0404855 0.0632773 0.0527987 0.0773234 0.0564035 0.084585 0.0459468 0.089019
36 3 O 4.63043 6.06637 2.79288 -1.2 1 0.0180709 0.018986 0.0416956 0.0199827 0.0318897 0.0359406 0.0422658 0.0486347 0.0454295 0.036997 0.0497634 0.051787 0.0569096 0.0653151 0.0613852 0.0743913 0.065986 0.0682438 0.0691284 0.0843731
37 1 Mg -1.12976 4.79031 4.4844 1.2 1 0.0212998 0.0253247 0.0122496 0.0137124 0.0372309 0.0370371 0.0496684 0.0492573 0.0434773 0.0437101 0.0559316 0.0618876 0.077143 0.0709005 0.0619755 0.0692895 0.0696467 0.0947655 0.0703251 0.0803012
38 2 Si -2.9517 7.47444 4.4844 2.4 1 0.0234044 0.0189636 0.0206395 0.022915 0.03123 0.0423958 0.059845 0.0284954 0.051362 0.0626676 0.0522237 0.0576443 0.0611027 0.0595744 0.0797154 0.0676869 0.0548827 0.0874746 0.0562357 0.0615147
39 3 O -3.00198 5.86121 4.4844 -1.2 1 0.0126288 0.0217835 0.0276352 0.0273498 0.0333996 0.0313902 0.0566126 0.0603171 0.0395125 0.0551146 0.0491989 0.0716006 0.0564631 0.056093 0.0655791 0.0720273 0.047221 0.0754354 0.0611865 0.0779166
40 3 O 0.666315 8.44846 4.4844 -1.2 1 0.016006 0.0181645 0.0269251 0.0170424 0.0230324 0.049915 0.0319074 0.0507944 0.045642 0.0494985 0.0399623 0.050381 0.0485378 0.074724 0.098997 0.0692066 0.0780297 0.048359 0.0703336 0.0726492
41 3 O -2.21213 8.18062 3.18632 -1.2 1 0.0138191 0.0136601 0.0166005 0.0159283 0.0165783 0.0368846 0.0462369 0.0562449 0.0456982 0.0542621 0.0541548 0.0511535 0.0541375 0.0482215 0.0782133 0.0625214 0.0713074 0.0586838 0.0669379 0.0710041
42 3 O -2.25864 8.18062 5.78248 -1.2 1 0.0133921 0.0148808 0.0196616 0.0198259 0.0200955 0.0318531 0.0504462 0.0488872 0.0398889 0.0393404 0.0556577 0.0389181 0.0592335 0.0575172 0.0834218 0.0697156 0.0680858 0.0654254 0.0677749 0.0763936
43 1 Mg 1.20893 7.12349 2.9896 1.2 1 0.00740628 0.022861 0.0181657 0.024686 0.0237816 0.0398225 0.043201 0.0461544 0.0352249 0.0659613 0.0388205 0.0673664 0.0357611 0.0584365 0.0516076 0.0803334 0.0517958 0.0844755 0.0475939 0.087563
44 1 Mg 4.00982 7.08218 4.4844 1.2 1 0.0211924 0.0154167 0.0225281 0.0358014 0.0335629 0.0327643 0.0476872 0.0370639 0.0465235 0.0527571 0.0571245 0.0549144 0.0708501 0.0723129 0.0577196 0.0674521 0.0616036 0.0961706 0.0755211 0.0827661
45 2 Si 2.17861 9.14704 4.4844 2.4 1 0.0287007 0.0139462 0.0252341 0.0209159 0.029216 0.0336886 0.0623224 0.0246941 0.0506268 0.0535623 0.0549246 0.0616375 0.0622992 0.0579022 0.0789942 0.0719646 0.049862 0.0932497 0.0530576 0.0575324
46 3 O 2.18828 10.7603 4.4844 -1.2 1 0.0191986 0.0145074 0.00548241 0.016467 0.0302007 0.021316 0.0469893 0.0603247 0.0404768 0.0550879 0.0409728 0.0712348 0.0432431 0.0654615 0.0692431 0.0731796 0.0463394 0.0721327 0.061984 0.0738715
47 3 O -4.43805 8.17302 4.4844 -1.2 1 0.0122966 0.0144063 0.0190712 0.0200536 0.022685 0.0545469 0.0387121 0.0489806 0.0416422 0.0503232 0.0350816 0.0527609 0.0543913 0.0732187 0.0989928 0.0672111 0.0809335 0.0528333 0.0736632 0.0748004
48 3 O 2.89193 8.44087 3.18632 -1.2 1 0.0219479 0.0194738 0.0171047 0.0152088 0.0208702 0.0404614 0.0339817 0.0539464 0.0440549 0.0517488 0.0583611 0.0505444 0.0510943 0.0521452 0.0801467 0.062739 0.0689113 0.059175 0.0656378 0.0723448
49 1 Mg 1.25915 7.12349 0 1.2 1 0.0201568 0.0150796 0.0248683 0.0142427 0.0320802 0.0254275 0.0526054 0.0404157 0.0558323 0.050039 0.0529428 0.0423254 0.0715946 0.05095 0.0674689 0.0708362 0.0651836 0.070699 0.0811442 0.0587674
50 3 O 2.84547 8.44087 5.78248 -1.2 1 0.0127169 0.0185835 0.014793 0.0221642 0.0228808 0.0280637 0.0473757 0.0478763 0.0392916 0.040879 0.0571308 0.0421239 0.058106 0.0589116 0.0899322 0.0644443 0.069482 0.0643703 0.0667365 0.0765561
51 1 Mg -1.59284 7.16481 1.4948 1.2 1 0.00726258 0.0201027 0.0191749 0.0227236 0.0154389 0.0381275 0.0465527 0.0422499 0.0421145 0.0571642 0.0387357 0.0671814 0.0536363 0.0695009 0.0767463 0.0607713 0.0672098 0.0850254 0.0742025 0.0785381
52 2 Si 0.240329 5.09994 1.4948 2.4 1 0.0245932 0.0172535 0.0159907 0.0434044 0.0273061 0.0403923 0.0469264 0.0533506 0.0551974 0.0490077 0.0454058 0.0577302 0.0588035 0.0677768 0.065528 0.066682 0.0635665 0.0725933 0.066103 0.0675074
53 3 O 0.234538 3.48671 1.4948 -1.2 1 0.0130357 0.016516 0.0264064 0.0360043 0.0311602 0.0489668 0.0459438 0.042503 0.0527395 0.0471512 0.0519482 0.0617399 0.0560453 0.0605856 0.0613145 0.0630703 0.0628285 0.057502 0.0756689 0.0748825
54 3 O 6.85564 6.07396 1.4948 -1.2 1 0.0324732 0.0194836 0.0345942 0.027631 0.0371797 0.0402477 0.0325514 0.0622405 0.0365634 0.0530177 0.0537716 0.0533774 0.0552854 0.0736277 0.0699462 0.077063 0.0664571 0.072419 0.0533504 0.0851404
55 3 O -0.429565 5.80612 0.196716 -1.2 1 0.0340801 0.0200788 0.0159564 0.0212309 0.0409753 0.0374157 0.0538704 0.0450203 0.0460456 0.0561573 0.0397874 0.0419264 0.0534013 0.060168 0.0599604 0.0681891 0.0703593 0.0610634 0.0652894 0.0741704
56 3 O -0.473377 5.80612 2.79288 -1.2 1 0.0259599 0.0238211 0.030891 0.0192249 0.0338744 0.0457858 0.0483444 0.0503696 0.052784 0.0467834 0.0624743 0.0398143 0.0431425 0.0570421 0.0660878 0.0713784 0.0651812 0.0696797 0.0707679 0.079515
57 1 Mg 6.40169 9.49799 0 1.2 1 0.0128508 0.0119835 0.0212027 0.0141628 0.0305649 0.0210499 0.0521463 0.035419 0.0584882 0.0490563 0.0495861 0.0356573 0.0674953 0.0530954 0.071319 0.067129 0.0649091 0.0708438 0.0808879 0.0689139
58 1 Mg 3.64209 14.2057 1.4948 1.2 1 0.010564 0.0109556 0.0181105 0.0165021 0.0215883 0.0336776 0.0359587 0.0435582 0.0412826 0.0555603 0.0392111 0.0664327 0.0532618 0.0661872 0.0739549 0.0633901 0.0648481 0.0824931 0.0742797 0.0783951
59 2 Si 5.45748 11.5215 1.4948 2.4 1 0.0107226 0.0235111 0.0214139 0.0249921 0.0175106 0.0404774 0.0400366 0.0385557 0.0442472 0.055605 0.0426471 0.0599323 0.0527521 0.0670504 0.0692632 0.0642278 0.071447 0.0810603 0.0587137 0.0669616
60 3 O 5.51101 13.1348 1.4948 -1.2 1 0.0241766 0.0134848 0.0223011 0.0294778 0.0197113 0.0433741 0.0445934 0.0590165 0.0365857 0.0495278 0.0429577 0.0673325 0.0533995 0.0532997 0.0656098 0.0599686 0.0709028 0.0579174 0.0694052 0.0720472
61 3 O 1.83851 10.5475 1.4948 -1.2 1 0.0395656 0.014542 0.0197621 0.0109908 0.036331 0.0312463 0.0366755 0.0578964 0.0389595 0.0478356 0.0497107 0.0515706 0.0475652 0.0740008 0.0753514 0.0787386 0.0574411 0.0760194 0.0578679 0.0777701
62 3 O 4.7611 10.8154 0.196716 -1.2 1 0.0356251 0.019089 0.0196419 0.0180802 0.0268025 0.0444103 0.0484591 0.0377835 0.0386934 0.0492524 0.0369811 0.0409167 0.0606187 0.0611774 0.0648894 0.0714949 0.0755094 0.0656541 0.0735025 0.0681173
63 1 Mg 6.35203 9.49799 2.9896 1.2 1 0.0143253 0.015842 0.0251517 0.0237467 0.0189821 0.0397866 0.0370198 0.0502658 0.0352044 0.0589594 0.031215 0.0657143 0.0265758 0.0662884 0.0463236 0.081148 0.0456608 0.0897918 0.0463396 0.0910833
64 3 O 4.71833 10.8154 2.79288 -1.2 1 0.0258813 0.00971937 0.031018 0.0127418 0.029995 0.0438093 0.0441586 0.0451414 0.0425719 0.0377501 0.0533501 0.0433451 0.0540437 0.0573492 0.0730962 0.0673919 0.072288 0.0587229 0.0698102 0.0798219
65 1 Mg -1.0438 9.53931 4.4844 1.2 1 0.0133137 0.0173646 0.0183779 0.0235713 0.0268158 0.0295252 0.0390415 0.0348692 0.0465729 0.0503466 0.0577789 0.0588604 0.0669719 0.0708998 0.0591579 0.0680748 0.0715997 0.0981067 0.0709299 0.0853747
66 2 Si -2.8604 12.2234 4.4844 2.4 1 0.0118922 0.015794 0.0152478 0.0247343 0.0288892 0.0422241 0.0583588 0.0295864 0.054441 0.0617288 0.0553992 0.063833 0.0600102 0.0549157 0.0788374 0.0738607 0.0523609 0.0929453 0.0551325 0.062564
67 3 O -2.91391 10.6102 4.4844 -1.2 1 0.0197108 0.0146448 0.00711049 0.0234537 0.0284256 0.0230136 0.0449228 0.062723 0.039713 0.0503846 0.0362236 0.070323 0.0456382 0.0593754 0.0672547 0.0727638 0.0504632 0.0746191 0.0628239 0.0760444
68 3 O 0.7596 13.1975 4.4844 -1.2 1 0.0180104 0.0240085 0.0191331 0.0149106 0.0234718 0.0483902 0.0352279 0.0508779 0.047112 0.0508142 0.0376503 0.0506178 0.0480525 0.0721551 0.100527 0.0625879 0.0781284 0.0532081 0.0734476 0.0717543
69 3 O -2.12001 12.9296 3.18632 -1.2 1 0.0200038 0.00685907 0.0222073 0.0174945 0.0192726 0.0379467 0.0405162 0.0547931 0.0431071 0.0541357 0.0528101 0.0492816 0.0559214 0.0487561 0.0802329 0.0625287 0.0728885 0.063324 0.066236 0.0694458
70 3 O -2.16532 12.9296 5.78248 -1.2 1 0.0105835 0.00766117 0.0226346 0.0217428 0.0179397 0.029704 0.0489574 0.0486828 0.0377091 0.0393569 0.05599 0.0374172 0.0574211 0.0620515 0.0819716 0.0720585 0.070837 0.062546 0.0675917 0.0773047
71 1 Mg 1.29891 11.8725 2.9896 1.2 1 0.00707395 0.0159797 0.0217544 0.0220553 0.017282 0.0381904 0.0366902 0.0504013 0.0352661 0.0601576 0.0339842 0.0584649 0.0258359 0.0676719 0.049452 0.0821842 0.049823 0.0896559 0.0482154 0.0869375
72 1 Mg 4.10033 11.8312 4.4844 1.2 1 0.00914454 0.0177826 0.0203805 0.0280942 0.030212 0.0312545 0.0445045 0.0355346 0.0467197 0.0524991 0.0562279 0.0511485 0.068812 0.0728466 0.0554655 0.0705711 0.0688835 0.0984432 0.0742451 0.0814346
73 2 Si 2.27333 13.896 4.4844 2.4 1 0.0254496 0.00935527 0.0229809 0.0279439 0.0272778 0.0356687 0.0637431 0.0263983 0.0541355 0.0583384 0.0541904 0.0596603 0.0632724 0.0557379 0.0738241 0.0667463 0.0477645 0.0970623 0.0560428 0.0594695
74 3 O 2.28634 15.5093 4.4844 -1.2 1 0.0246497 0.0149922 0.00641089 0.0208125 0.022659 0.0228067 0.0412476 0.0588148 0.0426915 0.0515734 0.0397071 0.0705514 0.0463886 0.0640546 0.0698394 0.0700229 0.0477829 0.0703555 0.0642702 0.0756429
75 3 O -4.34533 12.922 4.4844 -1.2 1 0.0207633 0.021748 0.0210142 0.0160035 0.0226194 0.0513096 0.0348597 0.0496925 0.0439261 0.0530038 0.038514 0.0528708 0.0479938 0.070687 0.101028 0.0648064 0.0799245 0.0515061 0.0754939 0.0729865
76 3 O 2.98455 13.1899 3.18632 -1.2 1 0.0229094 0.0115131 0.0177571 0.0118321 0.0204928 0.0421154 0.0391041 0.0574483 0.0450834 0.0531114 0.0562947 0.0492977 0.0505352 0.0513268 0.0808287 0.0619516 0.0662731 0.0595852 0.0641895 0.0730731
77 1 Mg 1.34779 11.8725 0 1.2 1 0.0218997 0.00914327 0.0219978 0.0144706 0.0287414 0.0226347 0.0517213 0.0348075 0.0575347 0.0509683 0.0494734 0.0357694 0.0653363 0.0502471 0.0710543 0.064367 0.0613197 0.0703425 0.0871378 0.0600861
78 3 O 2.93934 13.1899 5.78248 -1.2 1 0.0188805 0.0136386 0.0183028 0.0206503 0.0189572 0.0242215 0.050443 0.04661 0.0419992 0.0406634 0.0570554 0.0386085 0.054968 0.05852 0.087239 0.0611507 0.0692736 0.0609652 0.066738 0.0762832
79 1 Mg -1.50344 11.9138 1.4948 1.2 1 0.012935 0.0179314 0.0228116 0.0203473 0.0118438 0.0369301 0.0386389 0.042287 0.0415752 0.0599271 0.0358308 0.0652039 0.0504089 0.0647865 0.0740527 0.0680959 0.0637667 0.0838566 0.0766233 0.0786119
80 2 Si 0.326006 9.84894 1.4948 2.4 1 0.0281031 0.0178781 0.026964 0.0295586 0.016881 0.0381195 0.0434282 0.0399623 0.0441572 0.0551147 0.0395273 0.0604623 0.05548 0.066333 0.0608184 0.0627003 0.0701196 0.0803037 0.061495 0.0686597
81 3 O 0.317364 8.23571 1.4948 -1.2 1 0.0247835 0.0122474 0.0212248 0.0261013 0.019231 0.0456588 0.0420564 0.0493173 0.0346733 0.0540949 0.0450734 0.0647462 0.0571691 0.0586708 0.065674 0.0653522 0.071373 0.0538743 0.0728351 0.0754445
82 3 O 6.94307 10.823 1.4948 -1.2 1 0.0357399 0.0149719 0.0212525 0.00933374 0.0368986 0.0335425 0.0388563 0.0563964 0.0338924 0.0465767 0.0515409 0.0520494 0.0508139 0.0743224 0.0724961 0.0784678 0.0624478 0.0732821 0.0578048 0.0802314
83 3 O -0.343122 10.5551 0.196716 -1.2 1 0.0307898 0.0173909 0.0214957 0.0208704 0.0297304 0.0415674 0.0515067 0.0400515 0.0386271 0.0508787 0.0371715 0.0372418 0.061065 0.0611977 0.0688466 0.0707828 0.0814353 0.0538413 0.0705681 0.0698189
84 3 O -0.385966 10.5551 2.79288 -1.2 1 0.0219131 0.0200122 0.0325076 0.0123204 0.0338816 0.0409436 0.0449416 0.0466651 0.0424472 0.0401012 0.0523153 0.0481845 0.0494156 0.0547087 0.0701096 0.0719596 0.0678211 0.0600687 0.0684174 0.0795358
85 1 Mg 6.49448 14.247 0 1.2 1 0.0226245 0.0101823 0.0185213 0.0171201 0.0287043 0.0228714 0.0479759 0.0327919 0.0592206 0.0484134 0.0512606 0.0375311 0.0624961 0.0524846 0.0709605 0.0648156 0.0646012 0.0704819 0.0851231 0.0701015
86 1 Mg 3.74457 18.9547 1.4948 1.2 1 0.0149727 0.0106801 0.0153771 0.016002 0.0259585 0.0292593 0.0314445 0.0393066 0.038203 0.0579497 0.0437482 0.067006 0.0507014 0.0663049 0.0704933 0.0698642 0.0628614 0.0830293 0.078438 0.0761442
87 2 Si 5.55495 16.2705 1.4948 2.4 1 0.0120185 0.0201704 0.0220146 0.0269309 0.0184704 0.0426367 0.0364911 0.0420452 0.0452889 0.0518505 0.043606 0.0610773 0.0542566 0.0639798 0.0696492 0.0591633 0.0728868 0.0797335 0.0605745 0.0708085
88 3 O 5.6115 17.8838 1.4948 -1.2 1 0.0269267 0.0182727 0.0234145 0.025622 0.0192769 0.0436179 0.0452572 0.0608853 0.0372918 0.0499113 0.0382406 0.0669565 0.0515194 0.0562167 0.0645021 0.0571638 0.0657697 0.0614632 0.0634566 0.068954
89 3 O 1.93416 15.2965 1.4948 -1.2 1 0.0370995 0.0149683 0.0220448 0.0130175 0.0351076 0.0300817 0.0362126 0.0590253 0.0427491 0.046814 0.0487017 0.0506924 0.0466876 0.0739209 0.0806982 0.0774637 0.0590838 0.0739509 0.0623817 0.0773149
90 3 O 4.85636 15.5644 0.196716 -1.2 1 0.026026 0.0107793 0.0220431 0.0195106 0.0238596 0.0515658 0.0505294 0.0402888 0.041095 0.0467672 0.0365156 0.0338857 0.0642096 0.0549515 0.0671203 0.0686017 0.0749013 0.0630892 0.0718924 0.0674773
91 1 Mg 6.44662 14.247 2.9896 1.2 1 0.0110582 0.0169959 0.022931 0.0238691 0.019317 0.0358062 0.0377218 0.0524959 0.0363555 0.056892 0.0341739 0.063574 0.0232887 0.0664355 0.0456669 0.0770805 0.0452376 0.0918193 0.045749 0.093069
92 3 O 4.81537 15.5644 2.79288 -1.2 1 0.0146302 0.0071816 0.0274064 0.0135498 0.027404 0.0378448 0.0462458 0.0477901 0.0455287 0.0389962 0.0517571 0.041166 0.0527248 0.0576366 0.0746129 0.0673554 0.0753613 0.0547464 0.0725118 0.0760388
93 1 Mg -0.948271 14.2883 4.4844 1.2 1 0.0118217 0.009977 0.0154533 0.027072 0.0273699 0.0266251 0.036706 0.0333063 0.0472204 0.0496382 0.0576293 0.0557982 0.0642615 0.0668258 0.0581679 0.0703385 0.0698397 0.0936272 0.0750609 0.0801207
94 2 Si -2.75928 16.9724 4.4844 2.4 1 0.0209098 0.0116948 0.0189234 0.0282017 0.0303654 0.0411993 0.0591032 0.03228 0.0550176 0.0619721 0.0524437 0.0608453 0.0594116 0.0554477 0.0774747 0.0744331 0.0477927 0.0926802 0.0534476 0.0619539
95 3 O -2.81617 15.3592 4.4844 -1.2 1 0.0191321 0.0122358 0.0165061 0.0257838 0.0297936 0.023101 0.0436181 0.0641568 0.0454112 0.0509909 0.0370195 0.0716067 0.0447668 0.0586417 0.0656237 0.0711625 0.0505056 0.0730508 0.0630886 0.0745926
96 3 O 0.862762 17.9465 4.4844 -1.2 1 0.0180235 0.0239789 0.0209378 0.0172461 0.0224297 0.0482073 0.0339672 0.0512725 0.0470798 0.0522267 0.0405373 0.0477347 0.0443112 0.0721208 0.10713 0.0564352 0.0726916 0.0534173 0.0735251 0.0713283
97 3 O -2.0185 17.6786 3.18632 -1.2 1 0.0143394 0.00993151 0.0171924 0.0191889 0.0204472 0.0398757 0.0433422 0.0576187 0.0439465 0.053606 0.0527796 0.0505175 0.0560327 0.0503355 0.0825733 0.06 0.0700443 0.0635082 0.0648244 0.0673625
98 3 O -2.06164 17.6786 5.78248 -1.2 1 0.0139315 0.00927384 0.022805 0.0219353 0.0177882 0.0299644 0.0500126 0.0476217 0.0382092 0.0355399 0.0553605 0.0386134 0.0576997 0.0669282 0.0825323 0.0688623 0.0727773 0.0615185 0.0697173 0.076815
99 1 Mg 1.39817 16.6215 2.9896 1.2 1 0.0057569 0.0166278 0.0199895 0.0247898 0.0178939 0.0368219 0.0370891 0.0517162 0.0377564 0.0595905 0.0363334 0.057553 0.0228213 0.0662358 0.0474838 0.0809737 0.0488749 0.0908718 0.0456964 0.0899071
100 1 Mg 4.20062 16.5802 4.4844 1.2 1 0.0111414 0.0140433 0.0182301 0.0272751 0.0226756 0.0308405 0.044596 0.0354131 0.0460303 0.0524391 0.0573194 0.0514184 0.069636 0.0700219 0.0523691 0.075638 0.069832 0.0941311 0.0726337 0.0819293
101 2 Si 2.37796 18.645 4.4844 2.4 1 0.020254 0.0104337 0.0253956 0.027276 0.0260892 0.0361791 0.0598763 0.0312511 0.0546498 0.0583758 0.0513217 0.061903 0.0614753 0.0557808 0.0727401 0.0664234 0.045631 0.100519 0.0542511 0.0575863
102 3 O 2.39434 20.2583 4.4844 -1.2 1 0.0210255 0.0146602 0.00582121 0.01693 0.0244551 0.0220072 0.0418769 0.0599901 0.0429059 0.0527396 0.0412372 0.0717228 0.0479585 0.0633614 0.0706423 0.0706245 0.0470553 0.0677842 0.0649786 0.081002
103 3 O -4.24274 17.671 4.4844 -1.2 1 0.0177748 0.0187822 0.0227051 0.0173315 0.0211101 0.04693 0.0349687 0.0503795 0.0465821 0.0546211 0.0358546 0.0521546 0.0471935 0.0705466 0.100056 0.0638104 0.0770531 0.0508933 0.0756101 0.0731977
104 3 O 3.08659 17.9389 3.18632 -1.2 1 0.0255372 0.0144889 0.0204446 0.0114476 0.0185536 0.0403115 0.0382782 0.0565874 0.046358 0.0499921 0.0569678 0.0472689 0.0518047 0.0513547 0.080555 0.060066 0.0665771 0.0599086 0.0629412 0.0704526
105 1 Mg 1.44478 16.6215 0 1.2 1 0.00927172 0.0123439 0.0218138 0.012654 0.0266182 0.0319069 0.0480713 0.0357234 0.0506678 0.0506527 0.0517396 0.0394205 0.0586051 0.0492197 0.0697786 0.0661324 0.0604942 0.0674571 0.0884682 0.0639761
106 3 O 3.0436 17.9389 5.78248 -1.2 1 0.0166487 0.0120382 0.0242443 0.020478 0.0181754 0.0241423 0.0466155 0.046405 0.0381346 0.0407586 0.0593555 0.041433 0.0542499 0.0599651 0.0843076 0.0635697 0.0688517 0.0601895 0.0675862 0.0815061
107 1 Mg -1.40524 16.6628 1.4948 1.2 1 0.0115759 0.0124688 0.025756 0.0175394 0.0177021 0.0343754 0.0365532 0.042306 0.0412323 0.0604841 0.0406699 0.062641 0.0548189 0.0646292 0.0738119 0.0694837 0.0641962 0.0777753 0.0788288 0.075842
108 2 Si 0.420358 14.5979 1.4948 2.4 1 0.0225876 0.0195061 0.0288928 0.0259376 0.0174633 0.0386812 0.0389986 0.0417335 0.0440776 0.0548669 0.0427081 0.0615799 0.0579353 0.0635202 0.0671675 0.0589335 0.0724444 0.0768912 0.0628453 0.0716063
109 3 O 0.408732 12.9847 1.4948 -1.2 1 0.0221699 0.015535 0.0228592 0.0256686 0.0167616 0.0472096 0.0438229 0.0539218 0.0362818 0.0529307 0.0423035 0.0690313 0.0531826 0.0570027 0.0657194 0.0632403 0.0715739 0.0548456 0.0685403 0.0717642
110 3 O 7.03923 15.572 1.4948 -1.2 1 0.0338655 0.0175043 0.0208478 0.009938 0.0359615 0.0344046 0.0370845 0.0548399 0.0373177 0.0437702 0.0515172 0.0528097 0.0486024 0.0739929 0.0779101 0.0772445 0.0651344 0.0695338 0.0622941 0.0776545
111 3 O -0.248332 15.3041 0.196716 -1.2 1 0.0220389 0.0122771 0.0222949 0.0192408 0.0242626 0.0462731 0.0499702 0.0434186 0.0402767 0.0467383 0.0368837 0.0319791 0.062016 0.0542704 0.0702595 0.0651454 0.0819113 0.0506215 0.0692756 0.0711188
112 3 O -0.289436 15.3041 2.79288 -1.2 1 0.0266742 0.0173659 0.0233817 0.00950797 0.030398 0.0358925 0.0437801 0.0467726 0.0434284 0.0404473 0.0533275 0.0490135 0.0491641 0.0519349 0.0707179 0.0668242 0.0689044 0.0549692 0.0710879 0.0766626
113 1 Mg 6.59566 18.996 0 1.2 1 0.0137124 0.0117667 0.0198275 0.0144532 0.0258674 0.0313996 0.0430206 0.0330807 0.0540515 0.0492072 0.0540591 0.0387817 0.0527414 0.0532678 0.0724331 0.0647919 0.0637693 0.0649548 0.0860882 0.0710278
114 1 Mg 3.85574 23.7037 1.4948 1.2 1 0.00889417 0.014009 0.021878 0.0156522 0.0230926 0.0295853 0.0314671 0.0362526 0.0385047 0.0586443 0.0460662 0.0658733 0.0508414 0.0675118 0.065187 0.0728962 0.065248 0.0806178 0.0805672 0.0761865
115 2 Si 5.66125 21.0195 1.4948 2.4 1 0.0086146 0.0228474 0.0247252 0.0273839 0.0199865 0.0457646 0.0337601 0.0434273 0.0473012 0.0539361 0.0442992 0.0618396 0.0557226 0.0596801 0.0708714 0.0605769 0.0734404 0.0774791 0.0648769 0.075368
116 3 O 5.72074 22.6328 1.4948 -1.2 1 0.0281977 0.0192083 0.018344 0.0227409 0.019009 0.044736 0.0453507 0.0617509 0.0378416 0.0519627 0.0327562 0.0698286 0.0493726 0.0537381 0.0686378 0.0557252 0.0654138 0.0678485 0.056365 0.0712126
117 3 O 2.03867 20.0455 1.4948 -1.2 1 0.0300386 0.0165231 0.0267177 0.0160667 0.0341708 0.0301451 0.0357983 0.0554953 0.0442508 0.0430149 0.0506257 0.0505983 0.0474088 0.0735436 0.0846172 0.0725183 0.0616405 0.0677914 0.0634606 0.073189
118 3 O 4.96004 20.3134 0.196716 -1.2 1 0.0241641 0.0102074 0.0242644 0.0198908 0.0224546 0.0457809 0.0452038 0.0481282 0.0404481 0.041961 0.0406904 0.0350473 0.0653815 0.0479879 0.0696951 0.0738311 0.0702071 0.0583136 0.0713963 0.0715116
119 1 Mg 6.55057 18.996 2.9896 1.2 1 0.00911863 0.0167656 0.0213282 0.0206042 0.0238914 0.0344742 0.0385192 0.0568019 0.0338283 0.0616825 0.0351331 0.0626078 0.0246544 0.070818 0.0448331 0.0722695 0.0448502 0.0953073 0.0439409 0.0940169
120 3 O 4.92172 20.3134 2.79288 -1.2 1 0.00972299 0.012869 0.0284831 0.0146967 0.0313499 0.0381989 0.0460352 0.0462832 0.0457215 0.0435996 0.0532986 0.0413186 0.0534268 0.0516561 0.0763858 0.0686616 0.075109 0.0466322 0.069951 0.0724037
121 1 Mg -0.84282 19.0373 4.4844 1.2 1 0.0133979 0.0115994 0.0126783 0.0256249 0.0245255 0.0268532 0.0393291 0.0325311 0.0478221 0.0502965 0.0609332 0.0545909 0.0669919 0.0691016 0.0590604 0.0719156 0.0713183 0.0923736 0.0718881 0.0845943
122 2 Si -2.64823 21.7214 4.4844 2.4 1 0.0186478 0.0134922 0.0155741 0.0286443 0.0296747 0.039716 0.0566929 0.0295284 0.0565211 0.0644161 0.0528345 0.0658221 0.0610407 0.0535484 0.0792259 0.0745056 0.0495544 0.093904 0.0533731 0.0641899
123 3 O -2.70847 20.1082 4.4844 -1.2 1 0.0163021 0.0148516 0.0161577 0.0252367 0.0274701 0.0255581 0.03841 0.0657015 0.0446631 0.0488833 0.0407401 0.0739536 0.0520022 0.0617046 0.0680401 0.0678663 0.0519995 0.0744141 0.0676588 0.0749525
124 3 O 0.97581 22.6955 4.4844 -1.2 1 0.014479 0.022256 0.0203419 0.0201871 0.0192074 0.0410801 0.0320167 0.0507165 0.0450169 0.0558248 0.0402236 0.0482999 0.0454843 0.0731841 0.108673 0.0545807 0.0691885 0.0550795 0.0733431 0.0671481
125 3 O -1.9076 22.4276 3.18632 -1.2 1 0.0219165 0.00814388 0.0210331 0.0170657 0.0134762 0.0375768 0.0439372 0.0555379 0.0373765 0.0494867 0.0551294 0.0483845 0.0565456 0.0494543 0.0811289 0.0583043 0.0686997 0.0668905 0.0628157 0.0652041
126 3 O -1.9475 22.4276 5.78248 -1.2 1 0.0135883 0.010833 0.0223789 0.0224794 0.0150986 0.0248087 0.0476833 0.0465121 0.0368816 0.0403526 0.0576519 0.0399962 0.0542701 0.0588901 0.0825142 0.0687784 0.0698895 0.0593702 0.0680236 0.0753425