ITEM: TIMESTEP
44700
ITEM: NUMBER OF ATOMS
10500
ITEM: BOX BOUNDS xy xz yz pp pp pp
0	15.2977	5.09925
0	118.725	0
0	89.688	0
ITEM: ATOMS id type element xu yu zu q Q_1 Q_2 Q_3 Q_4 Q_5 Q_6 Q_7 Q_8 Q_9 Q_10 Q_11 Q_12 Q_13 Q_14 Q_15 Q_16 Q_17 Q_18 Q_19 Q_20 Q_21
1 1 Mg 6.2404 -6.37941e-06 0 1.2 1 0.0134374 0.0408013 0.0295931 0.0357492 0.0334788 0.0410709 0.0357919 0.0683729 0.0391412 0.0715949 0.0336409 0.0596234 0.045615 0.0681647 0.0492485 0.0927078 0.0512509 0.084283 0.0521696 0.102058
2 1 Mg 3.46349 4.70768 1.4948 1.2 1 0.009121 0.0178251 0.0255645 0.0255077 0.0199738 0.0412381 0.0445968 0.0409776 0.04832 0.0564255 0.0421755 0.0699781 0.0585503 0.0701371 0.0755688 0.0630315 0.0662519 0.0854304 0.0725863 0.0834037
3 2 Si 5.2885 2.02354 1.4948 2.4 1 0.021808 0.0225548 0.0366688 0.025612 0.0307408 0.0364526 0.0535185 0.033577 0.0443523 0.052035 0.0555506 0.0620388 0.0557557 0.0637389 0.0682142 0.0794876 0.0708215 0.0648055 0.0637254 0.0732166
4 3 O 5.33628 3.63678 1.4948 -1.2 1 0.00944908 0.0143002 0.0269089 0.0257768 0.0183344 0.0391456 0.0419699 0.0601133 0.035919 0.0404033 0.0548056 0.0504737 0.0681063 0.0581367 0.0584225 0.0651582 0.0596873 0.0617168 0.0716108 0.0741588
5 3 O 1.67294 1.04952 1.4948 -1.2 1 0.0161962 0.0216509 0.0229992 0.0358503 0.0298115 0.0389166 0.0341161 0.0608442 0.034802 0.0595247 0.0442747 0.0512185 0.0723699 0.0591173 0.0765339 0.0693819 0.0628668 0.064626 0.0792178 0.0609781
6 3 O 4.59532 1.31737 0.196716 -1.2 1 0.0260008 0.0223743 0.0574892 0.0252414 0.0336603 0.0484667 0.0385922 0.0472379 0.0342506 0.0396526 0.038831 0.0508908 0.0544764 0.0567217 0.0639535 0.0701341 0.0617038 0.0711547 0.0593484 0.069908
7 1 Mg 6.18956 -6.37941e-06 2.9896 1.2 1 0.0154563 0.0287006 0.0155109 0.0221189 0.0365615 0.0457746 0.0503072 0.0423607 0.0477915 0.0434801 0.0378734 0.0577324 0.0387396 0.0559397 0.0585152 0.0794369 0.0568837 0.0703803 0.0579187 0.0696686
8 3 O 4.55118 1.31737 2.79288 -1.2 1 0.0229049 0.0251481 0.0358915 0.0186929 0.0263312 0.045908 0.0440323 0.0501418 0.0458982 0.0519884 0.0522849 0.0477843 0.0472669 0.0659813 0.0532378 0.0683526 0.0632413 0.0680454 0.0631758 0.0726371
9 1 Mg -1.20682 0.0413099 4.4844 1.2 1 0.0148136 0.0239763 0.0231764 0.0285652 0.0347328 0.0431274 0.030648 0.0558677 0.0528571 0.0386825 0.0506513 0.061745 0.0669352 0.0582139 0.0764168 0.0591947 0.0808587 0.0761872 0.0629228 0.0517876
10 2 Si -3.0337 2.72544 4.4844 2.4 1 0.0307845 0.0170492 0.0215158 0.0157243 0.0359547 0.0407363 0.0599017 0.0351991 0.0621268 0.0500855 0.0488569 0.0629539 0.0575497 0.0775893 0.0569124 0.0592742 0.0706754 0.0796388 0.0723121 0.0605212
11 3 O -3.08099 1.11221 4.4844 -1.2 1 0.0134779 0.0211415 0.0267992 0.0241291 0.0402214 0.0249387 0.0507424 0.0441085 0.0413209 0.0401066 0.0394031 0.0722805 0.0524556 0.0501093 0.0568329 0.0667271 0.0557918 0.0815649 0.0738217 0.0731811
12 3 O 0.582463 3.69946 4.4844 -1.2 1 0.00713734 0.0163808 0.0266229 0.0288988 0.0290087 0.065738 0.0316161 0.0551014 0.040481 0.0404448 0.0534973 0.0545062 0.0627005 0.0710403 0.098299 0.06615 0.0823078 0.0419236 0.0698758 0.0698106
13 3 O -2.29524 3.43162 3.18632 -1.2 1 0.0123972 0.0204091 0.0253765 0.0311212 0.0197993 0.0498943 0.0519091 0.04855 0.0416469 0.0534548 0.0592456 0.0543311 0.0414876 0.0522075 0.0590109 0.0655809 0.0667335 0.0614744 0.0641773 0.0726719
14 3 O -2.34216 3.43162 5.78248 -1.2 1 0.02508 0.0155712 0.0168969 0.0278816 0.0263802 0.0409717 0.0526916 0.0459013 0.0436806 0.0565479 0.0550431 0.0469239 0.0577012 0.047897 0.0751715 0.0712951 0.0617234 0.0697871 0.0757593 0.0716014
15 1 Mg 1.12778 2.37449 2.9896 1.2 1 0.0187397 0.0388943 0.014432 0.0239007 0.0235036 0.0438491 0.0407283 0.05128 0.0363041 0.0620629 0.0366959 0.0602884 0.0397328 0.06909 0.0644952 0.0710724 0.0675349 0.0808878 0.0434205 0.0867765
16 1 Mg 3.92855 2.33318 4.4844 1.2 1 0.0318554 0.0143242 0.022856 0.028253 0.0412398 0.029623 0.0351348 0.0396381 0.0458816 0.0669354 0.0496811 0.0602516 0.0504541 0.0612566 0.0556182 0.0737867 0.0633204 0.0937249 0.0721576 0.083516
17 2 Si 2.09341 4.39804 4.4844 2.4 1 0.0124445 0.0216702 0.0336925 0.0134926 0.0418487 0.0271143 0.0618495 0.020887 0.0421551 0.0478775 0.0622727 0.0610074 0.0668673 0.0602764 0.0730585 0.0737784 0.0709719 0.0816203 0.0514299 0.0674018
18 3 O 2.09991 6.01128 4.4844 -1.2 1 0.0150926 0.00819281 0.0156343 0.0198808 0.0327911 0.0239473 0.0519151 0.0524274 0.0468017 0.0451909 0.0464912 0.0657208 0.0462118 0.0606475 0.0650808 0.0686756 0.0491273 0.0785705 0.0607419 0.0710354
19 3 O -4.52137 3.42402 4.4844 -1.2 1 0.0173257 0.0281528 0.0382932 0.0206636 0.0279862 0.0553218 0.0412668 0.0461214 0.0558261 0.0592412 0.032942 0.0578037 0.0542741 0.0570623 0.0889448 0.0742954 0.0756677 0.0614111 0.0736417 0.0574825
20 3 O 2.80834 3.69187 3.18632 -1.2 1 0.0111185 0.0200418 0.0206581 0.0261585 0.0201559 0.0382626 0.0345328 0.0494227 0.044116 0.0593218 0.0661471 0.052179 0.0424203 0.0631412 0.0705002 0.0721426 0.0612762 0.0587938 0.0697272 0.07058
21 1 Mg 1.17857 2.37449 0 1.2 1 0.0140199 0.034935 0.0281277 0.0291993 0.0386992 0.0396217 0.046016 0.059843 0.0367913 0.0489905 0.0508773 0.0421136 0.0421009 0.0679911 0.0554978 0.0650661 0.0632709 0.0805372 0.0589925 0.072755
22 3 O 2.76143 3.69187 5.78248 -1.2 1 0.00232048 0.0184762 0.0219028 0.0248295 0.0203586 0.031858 0.0390024 0.0476945 0.0362699 0.0429229 0.0611762 0.042522 0.0549889 0.0756217 0.0713903 0.0685164 0.0692635 0.0594086 0.0710329 0.0749754
23 1 Mg -1.67381 2.41581 1.4948 1.2 1 0.0113521 0.0116122 0.0371577 0.0363034 0.0324318 0.0439875 0.0587523 0.0402124 0.0508178 0.0403747 0.0460393 0.0592886 0.0550661 0.0642236 0.0613845 0.0641256 0.0834674 0.0778377 0.0664092 0.0740117
24 2 Si 0.16286 0.350945 1.4948 2.4 1 0.0160925 0.0357356 0.0278222 0.0279488 0.0339295 0.0356328 0.0553977 0.0486901 0.0524942 0.0496704 0.040001 0.0556732 0.0730427 0.0706354 0.0592221 0.0748651 0.072695 0.0647206 0.0729727 0.06648
25 3 O 0.15972 -1.26229 1.4948 -1.2 1 0.00905374 0.0152774 0.0396085 0.021822 0.0377584 0.036112 0.0456189 0.0572524 0.0468102 0.0507529 0.0555025 0.0551847 0.0630401 0.0661127 0.0498393 0.0600243 0.0690411 0.0657215 0.0631948 0.0744295
26 3 O 6.77654 1.32496 1.4948 -1.2 1 0.0116108 0.0276197 0.0265818 0.0275247 0.0370648 0.0543869 0.0340512 0.0650033 0.0476461 0.0466903 0.0442531 0.0521019 0.0526315 0.0597038 0.0685932 0.0711203 0.0840647 0.0627768 0.0599163 0.0741411
27 3 O -0.508028 1.05712 0.196716 -1.2 1 0.0250308 0.0192838 0.0297659 0.0205209 0.0299563 0.0527109 0.0438646 0.0441908 0.0474464 0.0478011 0.0503443 0.0482642 0.049155 0.0633936 0.0546147 0.0628277 0.0637779 0.0590278 0.0718456 0.0714984
28 3 O -0.552171 1.05712 2.79288 -1.2 1 0.0384677 0.0258875 0.036958 0.0344982 0.0222303 0.0435374 0.0410167 0.0474177 0.0447449 0.0363881 0.0508053 0.050319 0.0598055 0.0602544 0.0638089 0.0769049 0.0703107 0.0502032 0.0697242 0.0709772
29 1 Mg 6.31713 4.74899 0 1.2 1 0.0273876 0.0292269 0.0302974 0.0368283 0.0325935 0.0268207 0.0418653 0.0558507 0.0584917 0.0495536 0.0511011 0.0383123 0.0596738 0.0615543 0.0655968 0.0637557 0.0658633 0.0734145 0.0700818 0.0703238
30 1 Mg 3.54847 9.45668 1.4948 1.2 1 0.0218189 0.014508 0.0178997 0.0206827 0.0182393 0.0383948 0.0378352 0.0421297 0.0449637 0.0555598 0.0384617 0.0685392 0.0521043 0.065294 0.0717866 0.0630027 0.0673455 0.0876681 0.0736707 0.0787225
31 2 Si 5.36879 6.77254 1.4948 2.4 1 0.0290836 0.0270682 0.0238807 0.0255425 0.0247334 0.034893 0.0443259 0.03642 0.0448897 0.057114 0.0421019 0.0584976 0.0533258 0.0663929 0.0657334 0.0742021 0.0672074 0.0791603 0.0558982 0.0685175
32 3 O 5.41937 8.38578 1.4948 -1.2 1 0.0225491 0.0127846 0.0234552 0.0306376 0.0155155 0.0436015 0.0433502 0.0570039 0.0356549 0.0504298 0.0483035 0.0631916 0.0545355 0.0525459 0.0641436 0.0598488 0.0726574 0.0565187 0.072158 0.0745222
33 3 O 1.75158 5.79852 1.4948 -1.2 1 0.0284831 0.0122549 0.0224325 0.0264869 0.044045 0.0306682 0.0393134 0.0570773 0.0406539 0.0525264 0.0494179 0.0507907 0.0475222 0.0711345 0.0787199 0.0784694 0.0602878 0.0752127 0.0599289 0.076442
34 3 O 4.67421 6.06637 0.196716 -1.2 1 0.0145588 0.0265231 0.0314847 0.0242596 0.0320959 0.0378867 0.0345146 0.0324082 0.0448775 0.056187 0.039256 0.0444186 0.0669906 0.0563165 0.0675103 0.0713957 0.0714334 0.065732 0.0631346 0.0682175
35 1 Mg 6.26654 4.74899 2.9896 1.2 1 0.0174445 0.0218893 0.0235889 0.0446127 0.0278491 0.0428083 0.0493386 0.0463915 0.0360231 0.0622049 0.0380435 0.0599524 0.0385072 0.0650704 0.0526918 0.0757729 0.0542865 0.0847519 0.0477081 0.0896766
36 3 O 4.63043 6.06637 2.79288 -1.2 1 0.0185865 0.0195768 0.0416941 0.019022 0.031654 0.0370131 0.0433619 0.0486288 0.0450896 0.0367637 0.0486313 0.0521693 0.0573565 0.0667434 0.0615182 0.0734747 0.0658653 0.0680922 0.0686801 0.0853041
37 1 Mg -1.12976 4.79031 4.4844 1.2 1 0.0226112 0.0287521 0.0154561 0.0156606 0.037116 0.0404743 0.0470401 0.0501538 0.0457819 0.0396565 0.0571392 0.059324 0.0729359 0.0693488 0.0612795 0.0700611 0.0691292 0.0926557 0.0699221 0.0790704
38 2 Si -2.9517 7.47444 4.4844 2.4 1 0.0207263 0.0176702 0.0166751 0.0249878 0.0336219 0.0425169 0.0623947 0.0259639 0.0541768 0.0585725 0.0517 0.0563842 0.0604569 0.0580362 0.0801329 0.0710444 0.0553421 0.089686 0.0587409 0.0589062
39 3 O -3.00198 5.86121 4.4844 -1.2 1 0.015002 0.0238053 0.0267632 0.0270104 0.033381 0.0300574 0.0543403 0.0599842 0.0386824 0.0525217 0.0473579 0.0704664 0.05889 0.0550356 0.0660607 0.0704832 0.0505128 0.07549 0.0627005 0.0770179
40 3 O 0.666315 8.44846 4.4844 -1.2 1 0.0246936 0.021703 0.0241683 0.013943 0.022033 0.0526838 0.0338016 0.0484577 0.0431502 0.0500326 0.0409077 0.0502443 0.0488195 0.0754732 0.0990956 0.0694554 0.0739441 0.0500059 0.0714422 0.0723627
41 3 O -2.21213 8.18062 3.18632 -1.2 1 0.0183071 0.0142694 0.0170371 0.015346 0.0168956 0.0356952 0.0462437 0.0540386 0.0460928 0.0535036 0.053685 0.0515348 0.0529158 0.0468298 0.0784934 0.0633571 0.070685 0.059634 0.0671711 0.0703213
42 3 O -2.25864 8.18062 5.78248 -1.2 1 0.0160481 0.0144288 0.018581 0.0186864 0.0170976 0.0283101 0.0492345 0.046683 0.039683 0.0400517 0.0562189 0.0362414 0.0599042 0.0546309 0.0882085 0.0676217 0.0654242 0.0656085 0.0677396 0.0743982
43 1 Mg 1.20893 7.12349 2.9896 1.2 1 0.0075428 0.0221046 0.0186969 0.0247304 0.0241179 0.0395594 0.0429968 0.04611 0.0350441 0.0656303 0.0385944 0.066717 0.0362482 0.0585151 0.0513412 0.0799404 0.0512769 0.0840657 0.0481005 0.087675
44 1 Mg 4.00982 7.08218 4.4844 1.2 1 0.0216728 0.0231149 0.0260528 0.0355315 0.0352237 0.0347389 0.0449124 0.036708 0.0462542 0.04895 0.0569513 0.0546421 0.0688045 0.0749165 0.0557268 0.0703845 0.0650849 0.0957981 0.0724423 0.0773545
45 2 Si 2.17861 9.14704 4.4844 2.4 1 0.0234715 0.0105041 0.0251247 0.0234927 0.0311681 0.0336113 0.0632112 0.0241908 0.0491703 0.0558487 0.0545666 0.061905 0.0638486 0.0573794 0.0771434 0.0682795 0.0496649 0.0958204 0.0521989 0.058209
46 3 O 2.18828 10.7603 4.4844 -1.2 1 0.0192409 0.0136119 0.00444879 0.0182865 0.0270926 0.0229232 0.045191 0.0581758 0.0411291 0.0539694 0.0417409 0.0697333 0.0476929 0.0642844 0.0723023 0.0718841 0.0478543 0.0721495 0.0645833 0.0734783
47 3 O -4.43805 8.17302 4.4844 -1.2 1 0.00943254 0.0182907 0.0173771 0.0177844 0.0236933 0.0544341 0.0377516 0.0489117 0.0442441 0.0501834 0.0368004 0.0531891 0.0553658 0.0747399 0.0999522 0.0684974 0.0778737 0.0519421 0.0749555 0.0718454
48 3 O 2.89193 8.44087 3.18632 -1.2 1 0.0220617 0.0184482 0.0177875 0.0152526 0.0211218 0.0402997 0.0341818 0.0531863 0.0443308 0.0499754 0.0578434 0.0501784 0.0509366 0.0520006 0.080325 0.0642377 0.0691 0.0604894 0.0662798 0.0738988
49 1 Mg 1.25915 7.12349 0 1.2 1 0.0200414 0.0151632 0.0249807 0.0144257 0.0321778 0.0256255 0.0526553 0.0404038 0.0557107 0.0500315 0.0526648 0.0425598 0.0718813 0.0510576 0.0676964 0.0710365 0.0653184 0.0707506 0.0810637 0.0584937
50 3 O 2.84547 8.44087 5.78248 -1.2 1 0.0127622 0.0178512 0.0112184 0.0189443 0.0221983 0.0284825 0.0463182 0.0498418 0.0387005 0.0403383 0.0582635 0.0393855 0.0607781 0.060561 0.0889469 0.063124 0.0684178 0.0631851 0.0637685 0.0779478
51 1 Mg -1.59284 7.16481 1.4948 1.2 1 0.012303 0.0157946 0.0216302 0.0217253 0.0142689 0.0372357 0.0461637 0.0421366 0.0431849 0.0571398 0.0399306 0.0659003 0.0510802 0.0691316 0.0732405 0.0611091 0.068487 0.083489 0.0733612 0.0784828
52 2 Si 0.240329 5.09994 1.4948 2.4 1 0.0246786 0.0174626 0.0157988 0.0433689 0.027112 0.0404731 0.0466959 0.0533605 0.0551045 0.0483931 0.0457564 0.05793 0.0591623 0.0677773 0.0656573 0.0662903 0.0640358 0.0728094 0.06612 0.0684443
53 3 O 0.234538 3.48671 1.4948 -1.2 1 0.013227 0.0164234 0.0266997 0.0358897 0.0313934 0.0490928 0.0458383 0.0423232 0.0526616 0.0466569 0.0520726 0.0615154 0.0564949 0.0610468 0.0622832 0.062437 0.0627626 0.0574876 0.0756463 0.0741389
54 3 O 6.85564 6.07396 1.4948 -1.2 1 0.0368653 0.0202015 0.0329254 0.0269029 0.0371605 0.0404911 0.0331824 0.0608134 0.0364932 0.052495 0.0537974 0.05365 0.0557824 0.0720563 0.0700784 0.0764808 0.0658993 0.073128 0.0532283 0.0839657
55 3 O -0.429565 5.80612 0.196716 -1.2 1 0.0340157 0.0200025 0.0158762 0.021241 0.0409519 0.0374908 0.0538822 0.0451824 0.0460639 0.0564229 0.0397631 0.0419706 0.0533787 0.0601467 0.0598615 0.0682261 0.0704667 0.0610132 0.0651798 0.0742407
56 3 O -0.473377 5.80612 2.79288 -1.2 1 0.0248108 0.0213445 0.0338882 0.0188694 0.0344498 0.0461745 0.0492302 0.0485276 0.0543401 0.0454948 0.0624816 0.0385303 0.0436046 0.0597804 0.0665374 0.0718696 0.0655276 0.0678473 0.0724527 0.0795813
57 1 Mg 6.40169 9.49799 0 1.2 1 0.0108911 0.0126805 0.0243188 0.0145279 0.0298103 0.0201727 0.0500838 0.0356325 0.0591022 0.049283 0.0506155 0.03651 0.0666149 0.0535645 0.0719241 0.0669812 0.0636169 0.0707825 0.0798038 0.0681461
58 1 Mg 3.64209 14.2057 1.4948 1.2 1 0.0152538 0.00920055 0.0191327 0.018167 0.0215834 0.0335477 0.0359851 0.0428941 0.041405 0.0550586 0.0406385 0.0661015 0.0531089 0.0658735 0.071128 0.064438 0.0647992 0.0822363 0.0739519 0.0780272
59 2 Si 5.45748 11.5215 1.4948 2.4 1 0.011865 0.021618 0.0234738 0.0248861 0.018241 0.0402039 0.0398375 0.0399883 0.0438161 0.0550374 0.0423317 0.0596526 0.0530298 0.06655 0.0694902 0.0638553 0.0705525 0.0814517 0.0579894 0.0660149
60 3 O 5.51101 13.1348 1.4948 -1.2 1 0.0242228 0.0134668 0.0224635 0.0292296 0.0202866 0.0435215 0.044254 0.0592165 0.0363677 0.0497576 0.0430027 0.0673368 0.0533308 0.0533796 0.0658118 0.0605742 0.0702571 0.0577377 0.0696113 0.0716779
61 3 O 1.83851 10.5475 1.4948 -1.2 1 0.0351643 0.0138954 0.0213737 0.013697 0.0362694 0.0303667 0.0365212 0.0590923 0.0398789 0.048186 0.0497191 0.0515194 0.0471243 0.0749811 0.0757554 0.0799889 0.0565809 0.0761436 0.0577293 0.0785793
62 3 O 4.7611 10.8154 0.196716 -1.2 1 0.0321962 0.0202647 0.0198709 0.0182032 0.0283809 0.0442784 0.0474381 0.0373029 0.0372901 0.0469756 0.0379379 0.0393632 0.0595586 0.0608233 0.0649191 0.0708064 0.0769338 0.0649593 0.0731025 0.0687668
63 1 Mg 6.35203 9.49799 2.9896 1.2 1 0.0139627 0.0159129 0.0246728 0.0232804 0.0199663 0.038765 0.0368447 0.0503446 0.0343177 0.0580139 0.0314763 0.0661827 0.0262671 0.0661684 0.0470235 0.0820715 0.0457296 0.089621 0.0461101 0.0909996
64 3 O 4.71833 10.8154 2.79288 -1.2 1 0.029441 0.00959118 0.0284154 0.0138098 0.0289396 0.0446037 0.0437908 0.0458799 0.0424054 0.0365079 0.0524076 0.0412579 0.0519598 0.0567954 0.0732053 0.0675261 0.0721466 0.0609447 0.0712247 0.0804328
65 1 Mg -1.0438 9.53931 4.4844 1.2 1 0.0111682 0.018223 0.0168878 0.0244439 0.025958 0.0313933 0.0353031 0.0347118 0.0472904 0.0492915 0.0541513 0.0581205 0.0626026 0.0716114 0.0586943 0.0681799 0.0737026 0.0983919 0.0719 0.0796426
66 2 Si -2.8604 12.2234 4.4844 2.4 1 0.0192203 0.0130982 0.0159005 0.0259451 0.0296877 0.0433665 0.0586244 0.03133 0.0519386 0.0623616 0.0533822 0.0627781 0.0592731 0.055994 0.0778099 0.071864 0.0511588 0.0921072 0.0542949 0.0650872
67 3 O -2.91391 10.6102 4.4844 -1.2 1 0.0204131 0.0132764 0.00714269 0.0228199 0.0285124 0.023921 0.0452162 0.0623011 0.0389111 0.0495386 0.0360901 0.0702862 0.0474302 0.0583857 0.0684482 0.0708758 0.0518915 0.0767555 0.0637718 0.0748763
68 3 O 0.7596 13.1975 4.4844 -1.2 1 0.0146263 0.0219237 0.0211729 0.0141604 0.0237579 0.0511703 0.0303713 0.0534832 0.0464703 0.0486744 0.0408744 0.0481759 0.0486637 0.073323 0.0995711 0.0624754 0.0790335 0.0539616 0.0738955 0.0713082
69 3 O -2.12001 12.9296 3.18632 -1.2 1 0.0205854 0.0116332 0.0187042 0.0170917 0.0211888 0.0371324 0.0419296 0.0536047 0.0472551 0.0524107 0.0536383 0.0492991 0.0556876 0.0475728 0.079777 0.0634706 0.0717245 0.0623721 0.0663427 0.0695672
70 3 O -2.16532 12.9296 5.78248 -1.2 1 0.0108317 0.0108974 0.019549 0.0242537 0.018855 0.0303677 0.0494676 0.0451006 0.0411272 0.0386704 0.0551258 0.0360817 0.0618588 0.0573624 0.0832603 0.0710839 0.069185 0.066035 0.0689693 0.0739491
71 1 Mg 1.29891 11.8725 2.9896 1.2 1 0.00792388 0.0159448 0.0215368 0.0243969 0.0176205 0.0397839 0.0369591 0.0494773 0.0356888 0.0602326 0.0342049 0.0588108 0.0255498 0.0673187 0.04924 0.0834792 0.049777 0.0887688 0.0469995 0.0871616
72 1 Mg 4.10033 11.8312 4.4844 1.2 1 0.00813891 0.0186767 0.0219131 0.0285933 0.0302069 0.0325168 0.0436428 0.0346075 0.0479132 0.0504141 0.055168 0.052335 0.0677061 0.0746112 0.0545806 0.0709402 0.0711188 0.0988114 0.0735317 0.0801464
73 2 Si 2.27333 13.896 4.4844 2.4 1 0.0235424 0.00527318 0.0275986 0.0265694 0.0270089 0.0345759 0.0634197 0.0299542 0.0536252 0.0593704 0.0528381 0.0614871 0.0588547 0.0547004 0.0772813 0.0726705 0.0462427 0.0959194 0.0534143 0.0571384
74 3 O 2.28634 15.5093 4.4844 -1.2 1 0.0190175 0.0139478 0.00635062 0.0186396 0.0266415 0.0217243 0.0414121 0.0590595 0.0400084 0.0507914 0.0408023 0.0723979 0.0489682 0.0636695 0.0706931 0.0712824 0.0495908 0.0716761 0.0678004 0.0753001
75 3 O -4.34533 12.922 4.4844 -1.2 1 0.0130221 0.0150106 0.02304 0.0189119 0.0227989 0.052328 0.0363016 0.0511553 0.0424225 0.0517182 0.0384253 0.0516709 0.0505249 0.0728391 0.101444 0.0690695 0.078905 0.051796 0.0774295 0.0734747
76 3 O 2.98455 13.1899 3.18632 -1.2 1 0.0226494 0.0112616 0.0170372 0.0120021 0.020574 0.0418328 0.0387621 0.0586327 0.0459418 0.0521525 0.0557368 0.0496199 0.0510004 0.0513121 0.0805192 0.0625193 0.0665182 0.0594546 0.0645004 0.0727996
77 1 Mg 1.34779 11.8725 0 1.2 1 0.0217237 0.00905156 0.0219572 0.0145836 0.0289121 0.0225325 0.051634 0.0346 0.0575417 0.0508527 0.0495042 0.035773 0.0651984 0.0502723 0.0709915 0.0648582 0.0614168 0.070411 0.0868317 0.0603021
78 3 O 2.93934 13.1899 5.78248 -1.2 1 0.0169322 0.0125854 0.0167925 0.0220201 0.0196425 0.0255885 0.0473492 0.0497831 0.0408291 0.040846 0.0567888 0.0338505 0.0588574 0.0629712 0.0871579 0.0657636 0.0705547 0.0623382 0.0661712 0.0783002
79 1 Mg -1.50344 11.9138 1.4948 1.2 1 0.00820329 0.0212299 0.0217141 0.0227177 0.0142223 0.0371121 0.0389898 0.0417254 0.0399535 0.0595116 0.0342549 0.0673774 0.0520665 0.0655293 0.0756476 0.0683481 0.0635061 0.0844648 0.0770734 0.0788797
80 2 Si 0.326006 9.84894 1.4948 2.4 1 0.0280972 0.0177122 0.0268751 0.0294961 0.0170247 0.0379975 0.0434371 0.0401519 0.0440684 0.0548426 0.0395999 0.0608086 0.0556604 0.0659395 0.0608681 0.0626915 0.0698886 0.0801791 0.0610704 0.0687192
81 3 O 0.317364 8.23571 1.4948 -1.2 1 0.0225509 0.0125179 0.0226788 0.0240232 0.020156 0.0453156 0.0429061 0.0498958 0.0346109 0.0540751 0.044256 0.0655688 0.0576139 0.0600672 0.0682214 0.0658152 0.0716148 0.0535417 0.0732864 0.0740127
82 3 O 6.94307 10.823 1.4948 -1.2 1 0.0311737 0.0148671 0.0220371 0.0120109 0.0373934 0.0332606 0.037859 0.0578002 0.0352903 0.0478846 0.0512301 0.0521546 0.0498539 0.0746957 0.072861 0.0799397 0.0614151 0.0726227 0.0579859 0.0804381
83 3 O -0.343122 10.5551 0.196716 -1.2 1 0.0269406 0.0181125 0.0218325 0.0211077 0.0311465 0.0418178 0.0501347 0.039154 0.0375293 0.0483657 0.0382339 0.0359982 0.0598952 0.0605369 0.0687553 0.0697512 0.0826765 0.0535207 0.0705235 0.0704424
84 3 O -0.385966 10.5551 2.79288 -1.2 1 0.023034 0.0150543 0.0341029 0.0125115 0.0335601 0.0434857 0.0453085 0.046002 0.0444289 0.0382704 0.053399 0.0478126 0.0496414 0.0556718 0.0695992 0.0685249 0.0667256 0.0612379 0.0708234 0.0774223
85 1 Mg 6.49448 14.247 0 1.2 1 0.0226085 0.0101522 0.0182744 0.0169489 0.0286499 0.0224242 0.0477943 0.0328818 0.0593516 0.0480965 0.0514026 0.0375449 0.0627227 0.0533735 0.071168 0.0654268 0.0640835 0.0709626 0.084667 0.0708125
86 1 Mg 3.74457 18.9547 1.4948 1.2 1 0.0105953 0.0137181 0.0166098 0.017318 0.0266382 0.0304105 0.0317504 0.0383599 0.0372303 0.0568764 0.0427304 0.0690932 0.0518335 0.0672066 0.0712552 0.0698969 0.0624168 0.0839139 0.0790838 0.0759793
87 2 Si 5.55495 16.2705 1.4948 2.4 1 0.0121093 0.0201911 0.0219701 0.0267319 0.0184322 0.0425306 0.0363979 0.0422589 0.0451952 0.0516678 0.0435104 0.0614801 0.0543439 0.0637651 0.0698072 0.0588887 0.0729089 0.0798942 0.0602815 0.0706664
88 3 O 5.6115 17.8838 1.4948 -1.2 1 0.027 0.0177647 0.023208 0.0255804 0.0192722 0.0431729 0.0455218 0.0608381 0.0379804 0.0500345 0.0379719 0.067198 0.050956 0.0555932 0.0640164 0.0579885 0.0654692 0.0620264 0.0630288 0.0696119
89 3 O 1.93416 15.2965 1.4948 -1.2 1 0.0371075 0.014826 0.0219557 0.0130521 0.0351185 0.0301827 0.0359515 0.0594328 0.0430138 0.0469855 0.048472 0.0507726 0.0464467 0.0736928 0.0809049 0.0772837 0.0588835 0.0737678 0.0623911 0.0770286
90 3 O 4.85636 15.5644 0.196716 -1.2 1 0.026045 0.0109038 0.0222938 0.0196096 0.0236899 0.0515211 0.0506977 0.0402042 0.0410164 0.0465625 0.0366551 0.033669 0.0639767 0.0547924 0.0672638 0.0683987 0.0749682 0.0632733 0.0722491 0.0677278
91 1 Mg 6.44662 14.247 2.9896 1.2 1 0.0098562 0.0180103 0.0223402 0.0216994 0.0186688 0.0352004 0.0390276 0.0538108 0.0372945 0.0578704 0.0339465 0.0637645 0.0235512 0.0672675 0.0445107 0.0769124 0.0446148 0.0912669 0.0440886 0.0915479
92 3 O 4.81537 15.5644 2.79288 -1.2 1 0.0128584 0.0093635 0.026626 0.0133374 0.0263739 0.03847 0.0465249 0.047997 0.0445252 0.0375723 0.0502914 0.042865 0.0522176 0.0554666 0.0761865 0.0679952 0.0780917 0.0536456 0.0720439 0.0744738
93 1 Mg -0.948271 14.2883 4.4844 1.2 1 0.0183442 0.0121674 0.0201438 0.0319023 0.0268864 0.0281621 0.0378279 0.0354091 0.0452735 0.0467109 0.0598495 0.0566697 0.0644306 0.0711676 0.059253 0.0706013 0.0718527 0.0938564 0.0731571 0.0814739
94 2 Si -2.75928 16.9724 4.4844 2.4 1 0.0183395 0.0136599 0.0183446 0.0296915 0.0306196 0.0394743 0.0593657 0.030412 0.0557281 0.0644328 0.0532947 0.0613962 0.0580316 0.0537752 0.0772794 0.074181 0.0491759 0.0917071 0.0544428 0.0619222
95 3 O -2.81617 15.3592 4.4844 -1.2 1 0.0186223 0.0155547 0.0111996 0.0256502 0.0280947 0.0240498 0.0428707 0.0652179 0.0434012 0.0493006 0.0366645 0.0717573 0.0497087 0.0574207 0.067294 0.0665082 0.0522971 0.0731646 0.0640849 0.075456
96 3 O 0.862762 17.9465 4.4844 -1.2 1 0.0196449 0.0212323 0.0243429 0.0176006 0.0194992 0.0467697 0.0376173 0.0510769 0.0472619 0.0537253 0.0394759 0.0460526 0.0456705 0.0716992 0.106785 0.0589438 0.0696471 0.0539553 0.074251 0.0701024
97 3 O -2.0185 17.6786 3.18632 -1.2 1 0.018739 0.00958669 0.0178937 0.0169881 0.0183889 0.0401082 0.0428581 0.0562457 0.0439463 0.0513366 0.0546785 0.0488968 0.0569 0.0513575 0.0818089 0.0607864 0.069746 0.0649212 0.0630749 0.067477
98 3 O -2.06164 17.6786 5.78248 -1.2 1 0.006604 0.0152296 0.0236659 0.0266019 0.0179362 0.0276328 0.0520405 0.0431436 0.0430788 0.0391124 0.0566419 0.036069 0.0586874 0.0623684 0.0842468 0.0678442 0.0685223 0.0651049 0.0658406 0.078194
99 1 Mg 1.39817 16.6215 2.9896 1.2 1 0.005949 0.0163071 0.0188575 0.0226385 0.0183609 0.0366379 0.0376454 0.0528962 0.0373987 0.0594671 0.0356495 0.0568499 0.0232041 0.066678 0.0475084 0.0803198 0.0495857 0.091071 0.0451895 0.0887776
100 1 Mg 4.20062 16.5802 4.4844 1.2 1 0.0203196 0.0179816 0.0197701 0.0313801 0.0283997 0.0286852 0.0452912 0.0316633 0.0459996 0.0498392 0.0557197 0.0551522 0.0646097 0.070761 0.0522581 0.0724158 0.0698681 0.0941951 0.0725018 0.0768527
101 2 Si 2.37796 18.645 4.4844 2.4 1 0.0241213 0.0120837 0.0217573 0.0231455 0.0239073 0.0392293 0.0588392 0.0327077 0.0522687 0.0589195 0.0511532 0.062282 0.0609219 0.0584045 0.0748628 0.0657811 0.0460637 0.09883 0.052528 0.0593972
102 3 O 2.39434 20.2583 4.4844 -1.2 1 0.0215242 0.0159825 0.0075907 0.0170904 0.0239492 0.0252877 0.0374785 0.0571938 0.0459494 0.0504849 0.0430769 0.0733719 0.051544 0.0613043 0.0709631 0.0658423 0.0496463 0.0672908 0.0671269 0.079687
103 3 O -4.24274 17.671 4.4844 -1.2 1 0.0181291 0.022501 0.0209592 0.0185669 0.0208711 0.0488693 0.0339744 0.0491517 0.0438074 0.0525063 0.0417298 0.0513581 0.0512919 0.0716446 0.10002 0.0609061 0.0754698 0.0557979 0.0781523 0.070527
104 3 O 3.08659 17.9389 3.18632 -1.2 1 0.025414 0.014078 0.0205677 0.0123188 0.0184664 0.0409441 0.0379746 0.0554506 0.0468255 0.0484024 0.0565316 0.0474714 0.0522139 0.0518371 0.0806695 0.0585934 0.0668817 0.0605572 0.0640866 0.0697176
105 1 Mg 1.44478 16.6215 0 1.2 1 0.00940106 0.0120851 0.0217554 0.0125981 0.0266359 0.0318512 0.0478318 0.0356882 0.0507667 0.0505585 0.0520019 0.0394992 0.0582306 0.0490685 0.0694466 0.0662742 0.0606066 0.0675154 0.0886077 0.0636926
106 3 O 3.0436 17.9389 5.78248 -1.2 1 0.0133251 0.0122403 0.0192483 0.0225936 0.0200666 0.0248324 0.0486633 0.0467501 0.0429463 0.0396731 0.0572392 0.0369598 0.0574163 0.0612089 0.086567 0.0629241 0.0689074 0.0620826 0.063778 0.0791756
107 1 Mg -1.40524 16.6628 1.4948 1.2 1 0.00681243 0.0152784 0.0259913 0.0193217 0.0182517 0.0351575 0.0365507 0.04194 0.0407498 0.0600199 0.0402607 0.0645906 0.0557188 0.0648765 0.0743179 0.0695666 0.0635151 0.0784812 0.0794795 0.0757842
108 2 Si 0.420358 14.5979 1.4948 2.4 1 0.0225515 0.0193154 0.0289204 0.0260415 0.0176245 0.038543 0.0391294 0.0418684 0.0443836 0.0550403 0.0426576 0.0618545 0.0576259 0.0631399 0.0670291 0.059226 0.0719026 0.0766876 0.0622824 0.0713418
109 3 O 0.408732 12.9847 1.4948 -1.2 1 0.0223323 0.0154098 0.0230235 0.0253824 0.0170024 0.0472079 0.0439257 0.0538241 0.0365051 0.0527515 0.0424819 0.0691918 0.0534404 0.0570736 0.0659967 0.063754 0.0709656 0.0550748 0.0684951 0.071638
110 3 O 7.03923 15.572 1.4948 -1.2 1 0.0339002 0.0174601 0.0209383 0.00982763 0.035875 0.0341919 0.0372644 0.0550824 0.0370553 0.0435806 0.051299 0.0533475 0.0489358 0.0735375 0.0780874 0.0772223 0.0651679 0.0696043 0.0625093 0.0771408
111 3 O -0.248332 15.3041 0.196716 -1.2 1 0.0190681 0.0132745 0.0215384 0.0184903 0.0250898 0.0462512 0.0486674 0.0427481 0.039338 0.044723 0.0376508 0.0308205 0.0607363 0.0534544 0.0702956 0.064043 0.0830749 0.0503886 0.069697 0.0719018
112 3 O -0.289436 15.3041 2.79288 -1.2 1 0.0143562 0.0142196 0.0291311 0.0123541 0.0297281 0.0382362 0.0445054 0.0468411 0.0449675 0.038951 0.0541868 0.0460516 0.0506767 0.0549615 0.0727862 0.0693034 0.0711866 0.0563563 0.0715722 0.0756831
113 1 Mg 6.59566 18.996 0 1.2 1 0.0137821 0.0116914 0.0198926 0.0144468 0.0260771 0.031477 0.0431189 0.0329232 0.0539993 0.0492283 0.0539843 0.0390451 0.0523074 0.0529182 0.0722698 0.0644656 0.0641059 0.0647511 0.0860339 0.0707527
114 1 Mg 3.85574 23.7037 1.4948 1.2 1 0.012963 0.0139413 0.0212491 0.0155896 0.0225481 0.0287369 0.03113 0.0367801 0.0387164 0.0594605 0.0473785 0.0623653 0.0508368 0.0655579 0.0620777 0.0730469 0.066568 0.0793232 0.0804889 0.0761663
115 2 Si 5.66125 21.0195 1.4948 2.4 1 0.00832071 0.023989 0.0233717 0.0273331 0.0193693 0.0461354 0.0343196 0.0416659 0.049457 0.0545449 0.0454925 0.0604001 0.0555027 0.0594016 0.0716932 0.0611717 0.0729736 0.0768074 0.0636447 0.0749882
116 3 O 5.72074 22.6328 1.4948 -1.2 1 0.0282218 0.0191791 0.0183231 0.0229253 0.0190267 0.0447427 0.0454025 0.0619316 0.0380781 0.0519186 0.0327353 0.0698144 0.0492303 0.053718 0.0682659 0.0554473 0.0651068 0.0679935 0.0560166 0.0713108
117 3 O 2.03867 20.0455 1.4948 -1.2 1 0.0300639 0.0165561 0.0267541 0.0159188 0.0342781 0.0297364 0.0359715 0.0553824 0.0438428 0.042712 0.0504187 0.050516 0.0477311 0.0738454 0.0849271 0.0723007 0.0617731 0.0679167 0.0638111 0.0730173
118 3 O 4.96004 20.3134 0.196716 -1.2 1 0.0210163 0.0102337 0.0228725 0.0187872 0.0233065 0.0453939 0.0439669 0.0480081 0.0388653 0.039844 0.0412602 0.0341017 0.0644389 0.047709 0.0694864 0.0727124 0.0714904 0.0580907 0.0717749 0.0723408
119 1 Mg 6.55057 18.996 2.9896 1.2 1 0.00745677 0.0146429 0.017014 0.0180359 0.0206809 0.0327309 0.0369959 0.055042 0.0342431 0.0591736 0.0362994 0.0613573 0.0235412 0.0702709 0.0433967 0.0729998 0.0453768 0.0976801 0.0450879 0.0927208
120 3 O 4.92172 20.3134 2.79288 -1.2 1 0.0098665 0.0115916 0.0312315 0.0143594 0.0301186 0.0398157 0.0463308 0.0456299 0.0474733 0.042809 0.0521379 0.0403766 0.0530928 0.0530639 0.076829 0.0665996 0.0768823 0.0491221 0.0731164 0.0711262
121 1 Mg -0.84282 19.0373 4.4844 1.2 1 0.0140458 0.0124855 0.0133162 0.0276477 0.0233978 0.0271668 0.0366908 0.0330149 0.0453704 0.0482467 0.0596312 0.0572061 0.0665039 0.0695827 0.0587085 0.0725556 0.0719266 0.0927265 0.0724983 0.0828455
122 2 Si -2.64823 21.7214 4.4844 2.4 1 0.0125492 0.0143554 0.0190161 0.0271628 0.0285358 0.0420544 0.055594 0.0314146 0.0543007 0.063115 0.0499318 0.0629731 0.0582877 0.052503 0.0766831 0.0726059 0.0472558 0.0969562 0.057676 0.063555
123 3 O -2.70847 20.1082 4.4844 -1.2 1 0.0167112 0.0179718 0.0167584 0.0260515 0.0244626 0.024901 0.0374152 0.0626213 0.0430803 0.0475945 0.0400851 0.0696564 0.0518385 0.057513 0.0676437 0.0636356 0.0534432 0.0718888 0.0673834 0.0766965
124 3 O 0.97581 22.6955 4.4844 -1.2 1 0.0196515 0.0251347 0.0201095 0.0153039 0.0202993 0.0419404 0.0323519 0.0505168 0.0445231 0.0546831 0.0401622 0.0458147 0.0454885 0.0722504 0.106988 0.0549437 0.0675174 0.0555439 0.074278 0.066879
125 3 O -1.9076 22.4276 3.18632 -1.2 1 0.0246429 0.0110744 0.0206542 0.0167121 0.0140773 0.0357157 0.0431362 0.0547993 0.0381624 0.0502885 0.0537842 0.0500633 0.0555587 0.0462374 0.0805647 0.0576324 0.0688789 0.0663954 0.0636972 0.0646186
126 3 O -1.9475 22.4276 5.78248 -1.2 1 0.0281316 0.0128505 0.017765 0.0177387 0.0143729 0.0288955 0.0478523 0.0457677 0.0375281 0.036813 0.0583022 0.0377347 0.0564925 0.0562314 0.0790412 0.0677374 0.0693542 0.0628856 0.0666356 0.0774077