ITEM: TIMESTEP
53000
ITEM: NUMBER OF ATOMS
10500
ITEM: BOX BOUNDS xy xz yz pp pp pp
0	15.2977	5.09925
0	118.725	0
0	89.688	0
ITEM: ATOMS id type element xu yu zu q Q_1 Q_2 Q_3 Q_4 Q_5 Q_6 Q_7 Q_8 Q_9 Q_10 Q_11 Q_12 Q_13 Q_14 Q_15 Q_16 Q_17 Q_18 Q_19 Q_20 Q_21
1 1 Mg 6.2404 -6.37941e-06 0 1.2 1 0.0129812 0.0407204 0.0296344 0.0355206 0.0335976 0.0414132 0.0360811 0.0688288 0.0392776 0.0710207 0.0340134 0.0593609 0.0461485 0.0686615 0.0495427 0.0922514 0.0520591 0.0835942 0.0509372 0.10315
2 1 Mg 3.46349 4.70768 1.4948 1.2 1 0.00555174 0.0217307 0.0252817 0.0276242 0.019637 0.0419799 0.0443794 0.0407286 0.0467606 0.0551211 0.0416498 0.0719646 0.0608124 0.0698927 0.0762206 0.0635595 0.0659899 0.0868496 0.0740646 0.0827373
3 2 Si 5.2885 2.02354 1.4948 2.4 1 0.0218925 0.0224228 0.0366327 0.0256915 0.0308126 0.0365616 0.0534444 0.0336557 0.0443176 0.0517371 0.0559511 0.0620345 0.0560062 0.0635366 0.0680378 0.0792123 0.0707949 0.0648201 0.0635355 0.0734435
4 3 O 5.33628 3.63678 1.4948 -1.2 1 0.00947172 0.0142234 0.0268702 0.0259725 0.018415 0.0390919 0.0418767 0.0601494 0.0355439 0.0400476 0.0546902 0.050545 0.0681174 0.0580921 0.0589246 0.064516 0.0600812 0.061724 0.0712264 0.0744343
5 3 O 1.67294 1.04952 1.4948 -1.2 1 0.0127766 0.0193828 0.02273 0.0359035 0.0313418 0.0387735 0.0355744 0.0608409 0.0354995 0.0593584 0.0444546 0.0523598 0.0707476 0.0592767 0.075998 0.0701484 0.0634738 0.0650813 0.0784015 0.0613314
6 3 O 4.59532 1.31737 0.196716 -1.2 1 0.0258463 0.0219671 0.0576296 0.0250728 0.0332054 0.0489953 0.0385031 0.0475005 0.0334689 0.039031 0.038562 0.0503685 0.0539908 0.0573699 0.0634497 0.0699272 0.0622591 0.071441 0.0588917 0.0712081
7 1 Mg 6.18956 -6.37941e-06 2.9896 1.2 1 0.0152301 0.0286558 0.0149742 0.0224416 0.0350349 0.0448047 0.0506948 0.0429928 0.0474643 0.0451656 0.0380087 0.0561661 0.0394735 0.0563809 0.0590907 0.0795187 0.0554911 0.0711201 0.0585775 0.070133
8 3 O 4.55118 1.31737 2.79288 -1.2 1 0.0243585 0.0259716 0.0408978 0.0167827 0.0289141 0.0437282 0.0443499 0.0475091 0.0448452 0.055085 0.0540134 0.0485392 0.0498683 0.0658522 0.0537431 0.069539 0.0648628 0.0658069 0.064666 0.072673
9 1 Mg -1.20682 0.0413099 4.4844 1.2 1 0.0148456 0.0256717 0.022316 0.0255112 0.0361313 0.0412615 0.0295136 0.052925 0.0526291 0.0387887 0.0481129 0.063065 0.0658824 0.0567322 0.077167 0.0618661 0.0800526 0.0769783 0.0668334 0.055931
10 2 Si -3.0337 2.72544 4.4844 2.4 1 0.0314951 0.0171088 0.0254349 0.0154885 0.0332406 0.0370998 0.057827 0.0376002 0.0616405 0.0554742 0.0470108 0.0616024 0.0572698 0.0764924 0.0566623 0.0595623 0.0696947 0.0804327 0.0695488 0.0566817
11 3 O -3.08099 1.11221 4.4844 -1.2 1 0.0123712 0.0222334 0.0267886 0.0253773 0.0390749 0.0247732 0.0495406 0.0445649 0.0409797 0.0397623 0.0403822 0.0718341 0.0544899 0.0507257 0.0555676 0.0684135 0.054742 0.0761532 0.0743423 0.0769072
12 3 O 0.582463 3.69946 4.4844 -1.2 1 0.00449839 0.0112647 0.0306289 0.0281154 0.0283775 0.0642985 0.030546 0.0527441 0.043796 0.0402792 0.0530444 0.0560232 0.0603712 0.071473 0.10073 0.0696982 0.08112 0.0393004 0.0705968 0.0672363
13 3 O -2.29524 3.43162 3.18632 -1.2 1 0.0147181 0.0191648 0.0253938 0.0303696 0.0227941 0.0522347 0.0512804 0.052692 0.042137 0.0521843 0.0588524 0.053395 0.0433885 0.0542196 0.059508 0.0659502 0.0687965 0.0621404 0.066032 0.0722465
14 3 O -2.34216 3.43162 5.78248 -1.2 1 0.0252767 0.0170581 0.016908 0.0263209 0.0246581 0.0396719 0.0520279 0.0471966 0.0424403 0.055728 0.0571025 0.0510214 0.0587202 0.0529922 0.0750251 0.071763 0.0630931 0.0675727 0.0785476 0.0711503
15 1 Mg 1.12778 2.37449 2.9896 1.2 1 0.0156984 0.0406899 0.0166174 0.023972 0.024872 0.0427075 0.0406297 0.0511078 0.0360517 0.0608562 0.0362069 0.0605994 0.0401918 0.0666623 0.0620702 0.0706501 0.0670703 0.0827826 0.04767 0.0863875
16 1 Mg 3.92855 2.33318 4.4844 1.2 1 0.032378 0.0172449 0.0216495 0.0259878 0.0449744 0.0237854 0.039005 0.0363774 0.0478436 0.069682 0.0512882 0.060147 0.050672 0.0591772 0.0568307 0.0744975 0.0623759 0.0948709 0.0744996 0.0849966
17 2 Si 2.09341 4.39804 4.4844 2.4 1 0.0169833 0.0203209 0.0307821 0.0183828 0.0392036 0.0277729 0.0626088 0.0246188 0.0444127 0.0477485 0.0629757 0.0622834 0.0663339 0.062901 0.0722764 0.0745672 0.0719316 0.0812425 0.049715 0.0644739
18 3 O 2.09991 6.01128 4.4844 -1.2 1 0.0122321 0.0126304 0.0166964 0.017947 0.0345139 0.0263253 0.0501597 0.0551074 0.0480292 0.0470089 0.0472621 0.0661029 0.0467989 0.0609427 0.0658788 0.0728046 0.0465757 0.079511 0.059957 0.0709142
19 3 O -4.52137 3.42402 4.4844 -1.2 1 0.0192811 0.0265907 0.0349105 0.0205185 0.0271388 0.0537472 0.0376621 0.0480729 0.0544879 0.0572883 0.0299526 0.0565056 0.0531498 0.0563379 0.0907985 0.0740631 0.0757299 0.060033 0.0744956 0.0556444
20 3 O 2.80834 3.69187 3.18632 -1.2 1 0.00956185 0.0200517 0.020111 0.0254922 0.0238253 0.0373816 0.0371289 0.0511939 0.0465495 0.0559099 0.0682215 0.0506572 0.0435344 0.0642547 0.0726417 0.0738326 0.0610591 0.0574024 0.072049 0.0712578
21 1 Mg 1.17857 2.37449 0 1.2 1 0.0144897 0.0372692 0.0294715 0.0291077 0.0365479 0.0388948 0.0433977 0.0587437 0.0355277 0.0490106 0.052235 0.0409355 0.0434803 0.066927 0.0547533 0.0654091 0.0593 0.0808843 0.0574822 0.0732687
22 3 O 2.76143 3.69187 5.78248 -1.2 1 0.00717387 0.0179935 0.0210102 0.0240125 0.0213191 0.0328207 0.0380536 0.0490423 0.0347779 0.0471449 0.0583402 0.0411016 0.0560247 0.0768533 0.0740433 0.0670573 0.0688753 0.0579314 0.0709364 0.0761486
23 1 Mg -1.67381 2.41581 1.4948 1.2 1 0.0154357 0.0158472 0.0347882 0.0387719 0.0334657 0.0439274 0.0599996 0.039605 0.052321 0.0392803 0.0461215 0.0581533 0.0556419 0.0636796 0.0613191 0.0642111 0.0830696 0.0775829 0.0666696 0.073802
24 2 Si 0.16286 0.350945 1.4948 2.4 1 0.0169792 0.0328665 0.0258324 0.0271313 0.0325148 0.0350596 0.054847 0.0509353 0.0523837 0.048972 0.0400574 0.0577984 0.0725135 0.0691256 0.0587513 0.0742882 0.0721731 0.0656429 0.07319 0.0662342
25 3 O 0.15972 -1.26229 1.4948 -1.2 1 0.00911088 0.0155581 0.0396168 0.0213962 0.037115 0.0359579 0.0455643 0.0562275 0.0473288 0.0512948 0.0555626 0.0563684 0.0634402 0.0669263 0.0491362 0.0594369 0.0690027 0.0663059 0.0626155 0.0738585
26 3 O 6.77654 1.32496 1.4948 -1.2 1 0.0115081 0.0277218 0.0265005 0.0276584 0.0371769 0.0543444 0.0342414 0.0649116 0.0475248 0.0467065 0.0441826 0.0520876 0.0529198 0.0599727 0.068534 0.0711238 0.0842592 0.0631787 0.0595411 0.0744913
27 3 O -0.508028 1.05712 0.196716 -1.2 1 0.0246204 0.0190945 0.0294976 0.0207945 0.029413 0.0532122 0.0436962 0.0447322 0.0471276 0.048465 0.0499802 0.0482281 0.049098 0.0632311 0.055135 0.062795 0.0631658 0.0590248 0.0722787 0.0717584
28 3 O -0.552171 1.05712 2.79288 -1.2 1 0.0397332 0.0290365 0.036524 0.0354861 0.0241909 0.0427218 0.0446883 0.049814 0.0444298 0.0381729 0.0462197 0.0480328 0.0587614 0.0625884 0.0635016 0.0767885 0.0744646 0.0512048 0.0690279 0.0735933
29 1 Mg 6.31713 4.74899 0 1.2 1 0.027196 0.0292891 0.0303662 0.0364209 0.0327795 0.0264511 0.0417331 0.0559251 0.0587984 0.0492938 0.0510755 0.0385618 0.0592636 0.0609985 0.0656491 0.0635644 0.0656703 0.0738406 0.0692997 0.0707459
30 1 Mg 3.54847 9.45668 1.4948 1.2 1 0.0170626 0.0161139 0.0173011 0.018958 0.0187386 0.038416 0.0383226 0.0421709 0.0447845 0.0564549 0.0374503 0.0686674 0.0529767 0.0657112 0.0748062 0.0622417 0.0669279 0.0877319 0.0733953 0.0795562
31 2 Si 5.36879 6.77254 1.4948 2.4 1 0.0260223 0.0297247 0.0212739 0.0262396 0.0245282 0.0349003 0.0445548 0.034661 0.0458828 0.0583279 0.0426093 0.0576809 0.0527559 0.0675585 0.0655161 0.0748048 0.067316 0.0785228 0.0564854 0.068665
32 3 O 5.41937 8.38578 1.4948 -1.2 1 0.0215186 0.0113236 0.0234033 0.0296439 0.0174671 0.0430704 0.0441519 0.0573134 0.0363872 0.0507508 0.0473265 0.064262 0.0549351 0.0536857 0.0662661 0.0610097 0.0727346 0.0562667 0.0729489 0.0733553
33 3 O 1.75158 5.79852 1.4948 -1.2 1 0.0284754 0.0122506 0.022307 0.0265518 0.0441247 0.0307312 0.0392293 0.0570675 0.0408058 0.0525189 0.0494747 0.0502603 0.0473051 0.0713719 0.0787833 0.0783067 0.0603071 0.0752501 0.0598398 0.0765015
34 3 O 4.67421 6.06637 0.196716 -1.2 1 0.0120937 0.027902 0.0326674 0.0260913 0.0314006 0.0375598 0.0347138 0.0308265 0.0438054 0.0557468 0.0396174 0.0435958 0.0666122 0.0555415 0.0665198 0.0704731 0.0704649 0.0659395 0.0629459 0.0695517
35 1 Mg 6.26654 4.74899 2.9896 1.2 1 0.0194209 0.0272809 0.0250727 0.0418003 0.0240598 0.044873 0.0491828 0.0490784 0.0359673 0.0660723 0.0383107 0.0606705 0.0399707 0.0635889 0.051544 0.0784993 0.0550477 0.0829247 0.0464102 0.0903119
36 3 O 4.63043 6.06637 2.79288 -1.2 1 0.0188441 0.0200447 0.0419445 0.0189405 0.0319395 0.0365591 0.0430096 0.0482201 0.0450873 0.0361882 0.0490899 0.0523856 0.0571891 0.0655328 0.0622549 0.0731332 0.066044 0.0672554 0.0672236 0.0853257
37 1 Mg -1.12976 4.79031 4.4844 1.2 1 0.0233262 0.0277841 0.0142246 0.0143275 0.0348665 0.0379963 0.0477478 0.0476383 0.0438201 0.0443787 0.0560317 0.0604072 0.0748248 0.0714979 0.062442 0.0693325 0.0704914 0.0936543 0.0686945 0.0818121
38 2 Si -2.9517 7.47444 4.4844 2.4 1 0.0219799 0.014349 0.0199089 0.0266571 0.0291737 0.0421867 0.0620566 0.0292296 0.0551383 0.0579435 0.0514792 0.0607079 0.0628031 0.0559994 0.0780134 0.0697929 0.0519238 0.0870377 0.0541821 0.062125
39 3 O -3.00198 5.86121 4.4844 -1.2 1 0.0130994 0.0227186 0.0281563 0.0257746 0.032338 0.0312325 0.0537985 0.0616793 0.0382559 0.054965 0.0482111 0.0706593 0.0574109 0.0563525 0.0647743 0.0727126 0.0473187 0.07399 0.0619431 0.0784328
40 3 O 0.666315 8.44846 4.4844 -1.2 1 0.0170901 0.0193521 0.0274214 0.0197009 0.0218162 0.0556719 0.0288146 0.0505198 0.0430755 0.0476505 0.0432463 0.0497005 0.0512687 0.0738729 0.10193 0.0668457 0.0803991 0.0509953 0.0727562 0.0707571
41 3 O -2.21213 8.18062 3.18632 -1.2 1 0.0137843 0.0134754 0.0166753 0.0153839 0.0165295 0.0368515 0.0463839 0.0556978 0.0455555 0.0536715 0.0549127 0.0502385 0.0538739 0.0489234 0.0785232 0.0635094 0.0716115 0.0587074 0.0662896 0.0709246
42 3 O -2.25864 8.18062 5.78248 -1.2 1 0.0162279 0.0164168 0.0195338 0.017676 0.0178684 0.0268669 0.0476673 0.0482194 0.0375891 0.0415059 0.0543747 0.0399356 0.0549886 0.0573584 0.0820028 0.0667888 0.0669744 0.0655977 0.0697061 0.0723641
43 1 Mg 1.20893 7.12349 2.9896 1.2 1 0.00594376 0.0247992 0.0174864 0.0225598 0.0239562 0.038618 0.0440134 0.0465639 0.0350113 0.0661048 0.0387665 0.0669851 0.0343204 0.0565694 0.0519784 0.0827944 0.0522233 0.0829568 0.0480432 0.0869896
44 1 Mg 4.00982 7.08218 4.4844 1.2 1 0.0290511 0.019849 0.0186597 0.0352107 0.0313843 0.0355044 0.0429142 0.0377718 0.0460204 0.0498805 0.0570949 0.0557505 0.073051 0.0728018 0.0610558 0.0702923 0.0629176 0.0971163 0.0731927 0.0796185
45 2 Si 2.17861 9.14704 4.4844 2.4 1 0.0270612 0.0113605 0.023983 0.0205022 0.0295316 0.0339726 0.0628659 0.0245197 0.050088 0.05528 0.0557385 0.0589442 0.0643976 0.0565317 0.0795378 0.0706726 0.0486103 0.0937821 0.0553696 0.0594725
46 3 O 2.18828 10.7603 4.4844 -1.2 1 0.0205953 0.0125296 0.00734818 0.0170724 0.0278672 0.0211654 0.046479 0.0607272 0.0420192 0.0539993 0.0406303 0.0718826 0.0449106 0.0629316 0.0694571 0.071628 0.0477375 0.0712499 0.0611667 0.0725974
47 3 O -4.43805 8.17302 4.4844 -1.2 1 0.0118671 0.0144521 0.0187776 0.0197679 0.0224248 0.0533586 0.0395944 0.0481863 0.0419797 0.0490861 0.0360458 0.0539653 0.0551517 0.0751315 0.0985702 0.0679797 0.0791572 0.0531429 0.0744913 0.0743708
48 3 O 2.89193 8.44087 3.18632 -1.2 1 0.0178463 0.0158285 0.0184776 0.014709 0.0217432 0.0419937 0.0337725 0.0550901 0.0433361 0.0512611 0.0586397 0.0496884 0.051652 0.0527765 0.080012 0.0623367 0.0699528 0.0592799 0.0657836 0.0743413
49 1 Mg 1.25915 7.12349 0 1.2 1 0.0188886 0.0174702 0.0281984 0.0147326 0.0320036 0.0245557 0.0501601 0.0398258 0.0562157 0.0495831 0.0538752 0.0426724 0.0710498 0.0513491 0.0685737 0.0706022 0.0639191 0.0708607 0.0792165 0.0590696
50 3 O 2.84547 8.44087 5.78248 -1.2 1 0.00694178 0.0150399 0.0146042 0.0205277 0.0220117 0.0289695 0.0442861 0.0518957 0.0392055 0.0411609 0.0583476 0.0415624 0.0622415 0.061321 0.0875098 0.0663355 0.0714319 0.0624341 0.0640284 0.076127
51 1 Mg -1.59284 7.16481 1.4948 1.2 1 0.00989196 0.0163886 0.0204859 0.020334 0.0149807 0.0372286 0.0462746 0.0428113 0.04349 0.0577705 0.0391273 0.0657327 0.0521837 0.0691623 0.0753211 0.0606395 0.0675692 0.0845094 0.0735182 0.0785591
52 2 Si 0.240329 5.09994 1.4948 2.4 1 0.0246276 0.0173281 0.0159244 0.0433867 0.0272325 0.0404491 0.0468222 0.053343 0.0551394 0.0487315 0.0456002 0.0578658 0.0590035 0.0676953 0.0655356 0.0665924 0.063783 0.0725726 0.0661147 0.0680359
53 3 O 0.234538 3.48671 1.4948 -1.2 1 0.0131665 0.0167768 0.0265329 0.0361831 0.0310641 0.0486799 0.0459497 0.0425315 0.0527107 0.0478846 0.0514896 0.0613123 0.0552965 0.061246 0.0607357 0.0632665 0.0624847 0.0578467 0.0752029 0.0753505
54 3 O 6.85564 6.07396 1.4948 -1.2 1 0.0324912 0.0195336 0.0345586 0.0275001 0.0371573 0.0402291 0.0324602 0.0625132 0.0364346 0.0532671 0.0537436 0.0539255 0.0553797 0.073042 0.0699261 0.0772068 0.066251 0.0721906 0.0534315 0.0848075
55 3 O -0.429565 5.80612 0.196716 -1.2 1 0.033983 0.0199868 0.0159446 0.0213168 0.0409172 0.03749 0.0539198 0.0452225 0.0460197 0.0564268 0.0397336 0.0418908 0.0532827 0.0603409 0.0598111 0.0682415 0.0705935 0.0608408 0.0652861 0.0744379
56 3 O -0.473377 5.80612 2.79288 -1.2 1 0.0261691 0.0233248 0.0307359 0.0190908 0.0331601 0.0466446 0.0490002 0.0496158 0.0532535 0.0461984 0.062492 0.0379489 0.0427747 0.05758 0.0662587 0.0722487 0.0665193 0.0700231 0.0699473 0.0804493
57 1 Mg 6.40169 9.49799 0 1.2 1 0.0127447 0.0117031 0.0213563 0.0141824 0.0304426 0.0213164 0.0519951 0.0355488 0.0585875 0.0491502 0.049776 0.0354019 0.0670512 0.0525573 0.0709597 0.0673705 0.0651704 0.0705969 0.0808668 0.0687427
58 1 Mg 3.64209 14.2057 1.4948 1.2 1 0.0152647 0.00927038 0.0189893 0.018161 0.0213816 0.033531 0.0360765 0.0431916 0.0415019 0.0551798 0.0406142 0.0657172 0.0530829 0.0660582 0.0706295 0.0641106 0.0650211 0.0819975 0.0745709 0.0780326
59 2 Si 5.45748 11.5215 1.4948 2.4 1 0.0101604 0.0236248 0.0229201 0.025396 0.0164957 0.0405315 0.0383626 0.0397689 0.0418028 0.055037 0.0415522 0.0591867 0.0526937 0.0653886 0.0694969 0.0627444 0.0708155 0.0812495 0.0577127 0.0673984
60 3 O 5.51101 13.1348 1.4948 -1.2 1 0.0253961 0.0152952 0.0221627 0.0305915 0.0177523 0.0443769 0.043618 0.0587324 0.0361503 0.049292 0.0441431 0.0663709 0.0533209 0.0521307 0.0636406 0.0588177 0.0702604 0.0580485 0.0686459 0.0727429
61 3 O 1.83851 10.5475 1.4948 -1.2 1 0.0351923 0.014032 0.0216368 0.0139982 0.0363631 0.0301197 0.0365418 0.0588696 0.0398109 0.0481783 0.0497683 0.0513722 0.0470968 0.0751103 0.0758513 0.0799237 0.0564992 0.0760981 0.0578732 0.078872
62 3 O 4.7611 10.8154 0.196716 -1.2 1 0.0357342 0.0193017 0.0199093 0.0181366 0.0266697 0.0442305 0.0483844 0.037491 0.038791 0.0492689 0.0369049 0.040947 0.0606126 0.0607935 0.0650367 0.0714187 0.0754799 0.0656563 0.0729323 0.0679159
63 1 Mg 6.35203 9.49799 2.9896 1.2 1 0.0143185 0.0160009 0.0247541 0.0232965 0.0196872 0.0384696 0.0370203 0.0501689 0.0346364 0.0579566 0.0314476 0.0661296 0.0257176 0.0667225 0.0469247 0.0816358 0.0471108 0.0899096 0.0459349 0.090984
64 3 O 4.71833 10.8154 2.79288 -1.2 1 0.0257684 0.00981871 0.0315147 0.0126047 0.0300269 0.0436401 0.0439819 0.0451105 0.0430287 0.0378543 0.0528456 0.0437787 0.053536 0.0573227 0.0734917 0.0669812 0.0725574 0.0603768 0.0696933 0.0794273
65 1 Mg -1.0438 9.53931 4.4844 1.2 1 0.01002 0.0195726 0.0132995 0.0239495 0.0258184 0.0324175 0.0363329 0.0380436 0.0434944 0.0503269 0.056717 0.0567324 0.0662389 0.0695229 0.0597573 0.0688248 0.0734399 0.0964917 0.0708168 0.0828209
66 2 Si -2.8604 12.2234 4.4844 2.4 1 0.0181996 0.010977 0.0188624 0.0288488 0.0302025 0.0404975 0.0600852 0.0316072 0.0536859 0.0626886 0.0538758 0.0610695 0.059009 0.0535788 0.0785633 0.0736534 0.0491648 0.0906838 0.054588 0.0638402
67 3 O -2.91391 10.6102 4.4844 -1.2 1 0.0194332 0.00994718 0.0128193 0.0220325 0.0284979 0.0227833 0.0468089 0.0634202 0.0398942 0.050501 0.0358618 0.0714706 0.045655 0.0579894 0.0668766 0.0702484 0.04928 0.072995 0.0606426 0.0757574
68 3 O 0.7596 13.1975 4.4844 -1.2 1 0.0270546 0.025847 0.0187072 0.0112695 0.0232865 0.0501605 0.0334532 0.0514489 0.0440681 0.0494013 0.0387139 0.0478214 0.0474337 0.0723448 0.0999835 0.0608846 0.0770109 0.0533343 0.0733658 0.0738026
69 3 O -2.12001 12.9296 3.18632 -1.2 1 0.0235782 0.010115 0.0209067 0.0175102 0.0197654 0.0357768 0.0396988 0.0535124 0.0440933 0.054294 0.0514769 0.0515801 0.0551947 0.0471536 0.0803169 0.0618129 0.0727607 0.0630743 0.0673058 0.0680498
70 3 O -2.16532 12.9296 5.78248 -1.2 1 0.0084379 0.0129335 0.0203548 0.0261609 0.0183943 0.0280025 0.0539436 0.0469267 0.0404283 0.0368807 0.0554016 0.0371931 0.0601068 0.0577922 0.0853355 0.0695693 0.0698906 0.0646408 0.0691309 0.0757739
71 1 Mg 1.29891 11.8725 2.9896 1.2 1 0.0172003 0.019424 0.0222671 0.0205979 0.01992 0.0355321 0.038111 0.0501246 0.0345645 0.0599017 0.0358619 0.0596477 0.0241964 0.0683228 0.0462821 0.0819948 0.0495441 0.090094 0.0455964 0.0862957
72 1 Mg 4.10033 11.8312 4.4844 1.2 1 0.0121687 0.0167395 0.0194561 0.0244727 0.0300433 0.0330188 0.0370238 0.0356673 0.0467 0.0511588 0.0510703 0.0569005 0.0655807 0.0707214 0.053611 0.0720487 0.0719826 0.100549 0.0733683 0.0779673
73 2 Si 2.27333 13.896 4.4844 2.4 1 0.0224583 0.00642951 0.0253647 0.0226178 0.0307011 0.0358439 0.0636983 0.0272949 0.0526217 0.0592459 0.0518861 0.0590252 0.0625173 0.0570908 0.0755172 0.0674866 0.0490113 0.0976489 0.0568041 0.0597315
74 3 O 2.28634 15.5093 4.4844 -1.2 1 0.0246557 0.0141236 0.00747371 0.0203237 0.0232325 0.0220825 0.0424223 0.0581964 0.0437732 0.0519004 0.0410575 0.0709347 0.0478257 0.0633004 0.0703061 0.0679358 0.0484191 0.0701553 0.066264 0.0771605
75 3 O -4.34533 12.922 4.4844 -1.2 1 0.0204405 0.0222243 0.0209052 0.0155843 0.0220538 0.0526002 0.0350571 0.0499259 0.0437253 0.0509367 0.038624 0.0526165 0.0480553 0.0703283 0.102066 0.0656073 0.079472 0.0530773 0.0757624 0.0733615
76 3 O 2.98455 13.1899 3.18632 -1.2 1 0.0249065 0.0114099 0.0188331 0.01228 0.0190425 0.0398731 0.0377908 0.0575553 0.043175 0.0547437 0.0543163 0.0495243 0.0514725 0.049744 0.0813694 0.0602992 0.0664487 0.0605187 0.06632 0.0707277
77 1 Mg 1.34779 11.8725 0 1.2 1 0.0217709 0.00919686 0.0219135 0.014725 0.0286749 0.0225766 0.0513817 0.0346976 0.0576273 0.0507579 0.049848 0.0350468 0.0651008 0.0501785 0.0704462 0.0645507 0.0614532 0.0701566 0.0872289 0.0599081
78 3 O 2.93934 13.1899 5.78248 -1.2 1 0.0194256 0.0111349 0.0198221 0.0177586 0.0150328 0.0255797 0.047664 0.0482645 0.0384032 0.0380945 0.0578758 0.0377725 0.0544762 0.0591693 0.085712 0.0636781 0.0689698 0.0617778 0.0661844 0.0793302
79 1 Mg -1.50344 11.9138 1.4948 1.2 1 0.0174387 0.0171183 0.0235503 0.0214046 0.0122557 0.0365497 0.0385485 0.0417641 0.0410306 0.0591194 0.0365914 0.0656581 0.0497572 0.0649784 0.0713307 0.0692796 0.0642709 0.0831401 0.0770089 0.0782052
80 2 Si 0.326006 9.84894 1.4948 2.4 1 0.0281192 0.0178973 0.0269396 0.0294752 0.0168659 0.0381448 0.0433837 0.0399395 0.043909 0.0549338 0.0396359 0.0603419 0.0557624 0.0664656 0.0608948 0.0625746 0.0703425 0.0803364 0.0617051 0.0689911
81 3 O 0.317364 8.23571 1.4948 -1.2 1 0.0224206 0.0125378 0.0225644 0.023971 0.020171 0.0452691 0.0430057 0.0499475 0.0349477 0.0543888 0.0441207 0.0659228 0.0573035 0.0595882 0.0677129 0.0665685 0.0714142 0.0534202 0.0735525 0.0742297
82 3 O 6.94307 10.823 1.4948 -1.2 1 0.0356894 0.014893 0.0211545 0.00930067 0.036923 0.0337629 0.0386227 0.056315 0.0341923 0.0467584 0.0515421 0.0518184 0.0507404 0.0743765 0.072601 0.078737 0.0623746 0.0731141 0.0576704 0.0804512
83 3 O -0.343122 10.5551 0.196716 -1.2 1 0.0266843 0.0195453 0.023923 0.0225458 0.0298118 0.0414265 0.0511343 0.0387832 0.0378611 0.0503972 0.0372046 0.0369069 0.0612031 0.0594373 0.0676604 0.0697695 0.0798086 0.0546146 0.0692999 0.0702754
84 3 O -0.385966 10.5551 2.79288 -1.2 1 0.0267377 0.0144497 0.0303072 0.0127425 0.0319745 0.0443678 0.0455341 0.0463151 0.0438161 0.0386337 0.0525451 0.0487031 0.0486874 0.0533476 0.0697667 0.0702937 0.067646 0.0611012 0.0702572 0.0780983
85 1 Mg 6.49448 14.247 0 1.2 1 0.0223831 0.00984189 0.0185572 0.0171888 0.0286134 0.0229499 0.0480958 0.0330475 0.0593228 0.0483159 0.0511939 0.0375656 0.0623588 0.052813 0.0711043 0.0653307 0.0647968 0.0705015 0.0845275 0.070193
86 1 Mg 3.74457 18.9547 1.4948 1.2 1 0.0149314 0.010772 0.0152486 0.0160206 0.0258104 0.0293317 0.0313324 0.0394464 0.0382945 0.0579067 0.0437235 0.0667675 0.0505557 0.0661538 0.0704343 0.0696578 0.0630508 0.0830925 0.0782916 0.0758405
87 2 Si 5.55495 16.2705 1.4948 2.4 1 0.0120642 0.0201749 0.0219355 0.0268863 0.018388 0.0425486 0.0365836 0.0421622 0.0454284 0.0517914 0.0437164 0.0616277 0.0541195 0.0635737 0.0695679 0.0593491 0.0725343 0.0796906 0.0597936 0.0709144
88 3 O 5.6115 17.8838 1.4948 -1.2 1 0.0278243 0.0200813 0.0230708 0.0273468 0.0161937 0.0447165 0.0443995 0.060203 0.0368156 0.0497014 0.0389563 0.0659374 0.0513708 0.0552298 0.0629263 0.0551721 0.0662954 0.0611373 0.0629901 0.0698145
89 3 O 1.93416 15.2965 1.4948 -1.2 1 0.0414119 0.0158824 0.0197094 0.0100022 0.0351325 0.0311978 0.0364705 0.0576908 0.0417218 0.0460792 0.0488313 0.050501 0.0476333 0.0737341 0.0806016 0.0767574 0.060242 0.0738363 0.0625346 0.0768168
90 3 O 4.85636 15.5644 0.196716 -1.2 1 0.0226772 0.0119292 0.021479 0.0188195 0.0249936 0.0511124 0.0495906 0.0394978 0.0394369 0.0440077 0.0377239 0.0324474 0.0633055 0.0545323 0.0673262 0.0677246 0.07617 0.0628296 0.0719412 0.0683302
91 1 Mg 6.44662 14.247 2.9896 1.2 1 0.0107278 0.0158661 0.0191641 0.0215767 0.0183077 0.0353664 0.0374568 0.0522274 0.0374566 0.0572833 0.0351093 0.0632247 0.0237799 0.0670797 0.043782 0.0751843 0.0435872 0.0921643 0.0464253 0.0931584
92 3 O 4.81537 15.5644 2.79288 -1.2 1 0.0107905 0.012072 0.026904 0.0128058 0.0299274 0.0357725 0.0463259 0.0489698 0.0442506 0.0405509 0.0508566 0.042787 0.0525641 0.0546517 0.0754532 0.066963 0.0761425 0.0518133 0.0707521 0.0763241
93 1 Mg -0.948271 14.2883 4.4844 1.2 1 0.0164912 0.0128463 0.0147702 0.0293577 0.0240766 0.0280363 0.0383625 0.0350764 0.0427462 0.048842 0.0589961 0.056426 0.0661529 0.069216 0.0609041 0.0708804 0.0722619 0.0968464 0.0736485 0.0819703
94 2 Si -2.75928 16.9724 4.4844 2.4 1 0.0124674 0.016145 0.0190304 0.0254823 0.0294456 0.0415121 0.0579685 0.0313046 0.0550703 0.0605375 0.0534374 0.0631634 0.0589712 0.0529365 0.0785673 0.0749515 0.0486204 0.0949215 0.0542371 0.0613265
95 3 O -2.81617 15.3592 4.4844 -1.2 1 0.0164911 0.0198985 0.00891411 0.0242757 0.0304899 0.0240565 0.0429545 0.061422 0.0422911 0.0518525 0.0388706 0.0734067 0.0462205 0.0594063 0.0683831 0.0699835 0.0535599 0.0736927 0.0630131 0.0772328
96 3 O 0.862762 17.9465 4.4844 -1.2 1 0.0218613 0.0245832 0.0206724 0.0152412 0.0214377 0.0468523 0.0339809 0.0537306 0.0467847 0.0532897 0.0416681 0.0469977 0.0440894 0.071962 0.102608 0.056468 0.0707608 0.0525677 0.0728701 0.0700768
97 3 O -2.0185 17.6786 3.18632 -1.2 1 0.0247395 0.0107483 0.0186255 0.0192532 0.0181643 0.0367531 0.0412406 0.0539244 0.0417342 0.0543248 0.0526148 0.0509176 0.055336 0.0483404 0.081536 0.0587776 0.0688143 0.0652752 0.0664989 0.0668542
98 3 O -2.06164 17.6786 5.78248 -1.2 1 0.0116344 0.0106911 0.0230856 0.0228944 0.0164189 0.0274069 0.0468934 0.0477751 0.0370494 0.0408984 0.0559786 0.0411427 0.0580094 0.0573281 0.0812032 0.0663676 0.0686569 0.0634251 0.0700749 0.0740075
99 1 Mg 1.39817 16.6215 2.9896 1.2 1 0.00531335 0.0168342 0.0189491 0.0238923 0.0179452 0.0369694 0.0370576 0.0518303 0.0371818 0.0595604 0.0363537 0.057853 0.0232995 0.0667233 0.0479136 0.0814002 0.0492659 0.0911488 0.044595 0.0897878
100 1 Mg 4.20062 16.5802 4.4844 1.2 1 0.0162668 0.0129262 0.0172483 0.0286637 0.0281264 0.0300898 0.040012 0.0346108 0.0464506 0.0526264 0.0544498 0.0565097 0.0678529 0.0684592 0.051419 0.0723529 0.0708601 0.0973439 0.0725192 0.0760268
101 2 Si 2.37796 18.645 4.4844 2.4 1 0.0222645 0.0136523 0.0221452 0.0244216 0.0263848 0.0355353 0.0616791 0.030004 0.0561849 0.061859 0.0527799 0.0590111 0.0620518 0.0560766 0.0749287 0.0679548 0.0454115 0.0974507 0.0547874 0.0576971
102 3 O 2.39434 20.2583 4.4844 -1.2 1 0.0202426 0.0170379 0.00893058 0.018837 0.023624 0.0238244 0.0402456 0.0586565 0.0435791 0.0509336 0.0406418 0.0738483 0.0498355 0.0630852 0.0727183 0.0698325 0.0491653 0.0682107 0.0666463 0.0820702
103 3 O -4.24274 17.671 4.4844 -1.2 1 0.0187112 0.0191129 0.022483 0.0192602 0.0212814 0.0494847 0.0365448 0.0491489 0.0404879 0.0535972 0.0409281 0.0498205 0.0501508 0.0710502 0.0993535 0.0639323 0.0771132 0.0557403 0.0784428 0.0754237
104 3 O 3.08659 17.9389 3.18632 -1.2 1 0.0281876 0.0133049 0.0211504 0.010602 0.0166463 0.0388061 0.0371089 0.0559034 0.0436052 0.0524056 0.0554684 0.0483978 0.0521283 0.0495921 0.0808143 0.0585144 0.0681949 0.0604906 0.064406 0.0685931
105 1 Mg 1.44478 16.6215 0 1.2 1 0.00956762 0.0119273 0.0217764 0.012421 0.026861 0.0310748 0.0481016 0.0353633 0.0510078 0.0503418 0.0518052 0.0397906 0.0586008 0.0495258 0.07014 0.0661344 0.0601925 0.0676665 0.0882973 0.0640967
106 3 O 3.0436 17.9389 5.78248 -1.2 1 0.0166376 0.0119324 0.0209239 0.0221422 0.0197275 0.0253459 0.0489168 0.0470139 0.0413646 0.0391137 0.0593411 0.0363436 0.0554933 0.0590874 0.0829823 0.0617776 0.0689001 0.0592167 0.0621597 0.0809223
107 1 Mg -1.40524 16.6628 1.4948 1.2 1 0.0115772 0.0125931 0.025611 0.0176423 0.0174157 0.0344503 0.036373 0.0424303 0.0408944 0.0602639 0.0402645 0.0626803 0.0550973 0.0647911 0.0738681 0.0695211 0.0643096 0.0777874 0.0787462 0.0758192
108 2 Si 0.420358 14.5979 1.4948 2.4 1 0.0209567 0.0197742 0.0271913 0.0267815 0.0180516 0.0394784 0.0394563 0.03981 0.0447804 0.055531 0.0442002 0.0602396 0.0580914 0.0638777 0.0676424 0.0597147 0.0726634 0.0759606 0.0629805 0.0717242
109 3 O 0.408732 12.9847 1.4948 -1.2 1 0.0243683 0.0160425 0.0218704 0.0272518 0.0158741 0.0480679 0.0420686 0.0535448 0.0356133 0.0521132 0.0434246 0.0681129 0.0534781 0.0558474 0.0645924 0.0621614 0.0714695 0.0549745 0.067507 0.0725306
110 3 O 7.03923 15.572 1.4948 -1.2 1 0.0339143 0.0175019 0.0208212 0.00996136 0.0359895 0.0341513 0.0370743 0.0552353 0.0374065 0.0435873 0.0512112 0.0527838 0.0484121 0.0741027 0.0781927 0.0767069 0.0649505 0.0695712 0.0623692 0.0772306
111 3 O -0.248332 15.3041 0.196716 -1.2 1 0.0189798 0.0130608 0.0212262 0.0184091 0.0251307 0.0465209 0.04889 0.0431427 0.0392344 0.0447688 0.0378888 0.0305822 0.0608073 0.0540908 0.0701344 0.064295 0.0835433 0.0505123 0.0706317 0.072237
112 3 O -0.289436 15.3041 2.79288 -1.2 1 0.0145748 0.0146073 0.0307067 0.0114226 0.0310944 0.0374639 0.0448309 0.0464858 0.0451876 0.0393334 0.0546795 0.0479744 0.051597 0.0537392 0.0727113 0.0679193 0.0711865 0.0546835 0.0711441 0.0756296
113 1 Mg 6.59566 18.996 0 1.2 1 0.0139894 0.0115023 0.0199587 0.0143535 0.0262451 0.0319607 0.0429751 0.0330602 0.053977 0.0489368 0.054032 0.0389012 0.0526521 0.0529068 0.0722201 0.0647225 0.064235 0.0650314 0.0864669 0.0707214
114 1 Mg 3.85574 23.7037 1.4948 1.2 1 0.010615 0.0128318 0.0211265 0.0140822 0.0224651 0.0289107 0.0309702 0.0375886 0.039074 0.0602703 0.0466151 0.062347 0.049946 0.0668696 0.0647404 0.072177 0.0667057 0.0799389 0.0797714 0.0757686
115 2 Si 5.66125 21.0195 1.4948 2.4 1 0.00859885 0.0227364 0.0247953 0.0274275 0.020046 0.045735 0.0338184 0.04343 0.0474479 0.0541188 0.0443007 0.0614863 0.0555403 0.0598787 0.0709133 0.0605883 0.0733348 0.0773904 0.0648683 0.0749776
116 3 O 5.72074 22.6328 1.4948 -1.2 1 0.0282306 0.0189565 0.0181862 0.0227343 0.0193238 0.044512 0.0456446 0.061976 0.0386549 0.0522019 0.0330508 0.0698475 0.0491399 0.0532266 0.0676142 0.0562842 0.064761 0.0679711 0.0562992 0.0715481
117 3 O 2.03867 20.0455 1.4948 -1.2 1 0.0343894 0.0169729 0.0257371 0.0130968 0.0340872 0.0309212 0.0364816 0.0538251 0.042641 0.0419491 0.050922 0.0502891 0.0484123 0.073761 0.084389 0.0714236 0.062873 0.067762 0.0644308 0.072682
118 3 O 4.96004 20.3134 0.196716 -1.2 1 0.0211216 0.0104989 0.0228618 0.0189805 0.0233153 0.0454961 0.0439232 0.048011 0.0390973 0.0402685 0.0406253 0.0342931 0.0648941 0.0471791 0.0696678 0.0729372 0.0711661 0.0586651 0.0720921 0.0715356
119 1 Mg 6.55057 18.996 2.9896 1.2 1 0.0101174 0.0166468 0.0189896 0.0230914 0.0217419 0.0351753 0.0380068 0.0541118 0.0355901 0.0596635 0.0349279 0.0627514 0.0210758 0.0687833 0.0453446 0.0747556 0.0471576 0.0942952 0.0443282 0.0947511
120 3 O 4.92172 20.3134 2.79288 -1.2 1 0.00950088 0.0132116 0.0285488 0.0140575 0.0311142 0.038243 0.0464447 0.046758 0.0454064 0.044536 0.0519231 0.042122 0.0529062 0.0516757 0.0767712 0.067283 0.0763269 0.0484088 0.0702374 0.0728936
121 1 Mg -0.84282 19.0373 4.4844 1.2 1 0.00750752 0.0102188 0.0135526 0.0266559 0.0241856 0.0296608 0.0318138 0.0358225 0.0457241 0.0498353 0.0598708 0.0571667 0.0667225 0.0666031 0.05873 0.0710048 0.0713654 0.0928397 0.0750019 0.0820715
122 2 Si -2.64823 21.7214 4.4844 2.4 1 0.0201727 0.0126131 0.0160168 0.0275604 0.0292419 0.0403855 0.0576529 0.0311688 0.0546122 0.0617287 0.0528315 0.0648095 0.0599829 0.0552204 0.0765173 0.0731702 0.0475999 0.0936193 0.0534399 0.0646805
123 3 O -2.70847 20.1082 4.4844 -1.2 1 0.0175988 0.0171292 0.0174024 0.0277975 0.024475 0.0233149 0.0391337 0.0628994 0.0441691 0.047561 0.0392065 0.0688344 0.0516548 0.0603529 0.0687111 0.0648994 0.0530746 0.0726344 0.0659608 0.0753351
124 3 O 0.97581 22.6955 4.4844 -1.2 1 0.0140591 0.021005 0.0250618 0.0154285 0.0189372 0.0385241 0.0322662 0.0516294 0.0458699 0.054493 0.0389419 0.0430721 0.0442334 0.0758563 0.107364 0.0568513 0.0692171 0.0536423 0.0727052 0.0683952
125 3 O -1.9076 22.4276 3.18632 -1.2 1 0.0243964 0.0118406 0.0204813 0.0177363 0.0141045 0.037018 0.0429964 0.0544803 0.0379325 0.0494472 0.0534633 0.0499211 0.0556583 0.0466695 0.0814191 0.0583607 0.0696737 0.0651851 0.0642767 0.0644446
126 3 O -1.9475 22.4276 5.78248 -1.2 1 0.0127439 0.00858672 0.0247172 0.0237621 0.0182162 0.0264441 0.0484681 0.046772 0.0364666 0.0389412 0.0573182 0.0383093 0.0578393 0.0585462 0.0804373 0.0687944 0.0696224 0.0617855 0.0674522 0.0752204