ITEM: TIMESTEP
42400
ITEM: NUMBER OF ATOMS
10500
ITEM: BOX BOUNDS xy xz yz pp pp pp
0	15.2977	5.09925
0	118.725	0
0	89.688	0
ITEM: ATOMS id type element xu yu zu q Q_1 Q_2 Q_3 Q_4 Q_5 Q_6 Q_7 Q_8 Q_9 Q_10 Q_11 Q_12 Q_13 Q_14 Q_15 Q_16 Q_17 Q_18 Q_19 Q_20 Q_21
1 1 Mg 6.2404 -6.37941e-06 0 1.2 1 0.0131148 0.0407798 0.0298334 0.0357419 0.0333224 0.041435 0.035481 0.0686361 0.0388032 0.0713933 0.0336277 0.059513 0.046007 0.0685365 0.0497437 0.0923629 0.0515075 0.083836 0.0512626 0.102108
2 1 Mg 3.46349 4.70768 1.4948 1.2 1 0.00874422 0.0202152 0.0236526 0.0253478 0.0199647 0.0427527 0.0434257 0.0398617 0.0453359 0.0552072 0.0428026 0.0731294 0.0607548 0.0702021 0.0748424 0.0634663 0.0669076 0.0875535 0.0736978 0.0823792
3 2 Si 5.2885 2.02354 1.4948 2.4 1 0.0219092 0.0223944 0.0366311 0.0257041 0.0308338 0.0365895 0.0534285 0.033656 0.0443105 0.0516936 0.0560158 0.0619983 0.0560266 0.0635219 0.0680088 0.0791641 0.0707976 0.0648338 0.063473 0.0734491
4 3 O 5.33628 3.63678 1.4948 -1.2 1 0.00951117 0.0142489 0.0268331 0.0261122 0.0184195 0.0391415 0.0419484 0.0602155 0.0354823 0.0399386 0.0547204 0.0507225 0.0682078 0.0579172 0.0589702 0.0644096 0.0602271 0.0615474 0.071126 0.0745277
5 3 O 1.67294 1.04952 1.4948 -1.2 1 0.0161755 0.0216394 0.0236643 0.0352401 0.0297765 0.0384898 0.0342393 0.0608129 0.0348543 0.0593721 0.04377 0.0512683 0.0716486 0.0595281 0.0761478 0.0694145 0.0629569 0.0644132 0.0795861 0.059753
6 3 O 4.59532 1.31737 0.196716 -1.2 1 0.0260186 0.0222299 0.0575576 0.0251302 0.0335519 0.0485165 0.0384678 0.0472566 0.033961 0.0392822 0.0389215 0.0505797 0.05432 0.0570844 0.0635974 0.0702065 0.0618398 0.0714123 0.0592275 0.0705747
7 1 Mg 6.18956 -6.37941e-06 2.9896 1.2 1 0.0123344 0.0267262 0.0171255 0.0216828 0.0371021 0.0430132 0.0500394 0.0408757 0.0486481 0.0455185 0.0402082 0.0551306 0.0386973 0.0550316 0.059385 0.079307 0.0558874 0.0689673 0.0594002 0.0711756
8 3 O 4.55118 1.31737 2.79288 -1.2 1 0.0242742 0.0254679 0.040343 0.017195 0.0282288 0.0443229 0.0445409 0.0484031 0.0440066 0.0541153 0.0536077 0.0491815 0.0485855 0.0670392 0.0539895 0.0701825 0.0646719 0.0670879 0.0648381 0.0721387
9 1 Mg -1.20682 0.0413099 4.4844 1.2 1 0.0158159 0.0244642 0.0235492 0.0269671 0.0347227 0.0414998 0.0318186 0.0531583 0.052015 0.0397009 0.0507953 0.063272 0.0657585 0.0555764 0.0778136 0.0613366 0.0789914 0.0743183 0.0616448 0.0550747
10 2 Si -3.0337 2.72544 4.4844 2.4 1 0.033432 0.0132212 0.0192178 0.0140046 0.0326024 0.0362315 0.0632059 0.0358606 0.0606224 0.0508376 0.0457766 0.0594385 0.057248 0.0768633 0.0549649 0.059997 0.0721961 0.0807019 0.0730209 0.0592305
11 3 O -3.08099 1.11221 4.4844 -1.2 1 0.0104351 0.0225913 0.0264188 0.0247414 0.0384163 0.0278138 0.0488798 0.0480339 0.0390025 0.0370273 0.0377061 0.072534 0.0535713 0.0502454 0.0544303 0.0693584 0.0537646 0.0801435 0.0720405 0.0775222
12 3 O 0.582463 3.69946 4.4844 -1.2 1 0.00594168 0.0115332 0.0303299 0.0274439 0.0272964 0.0616533 0.0334477 0.0524474 0.041999 0.0420442 0.049745 0.0562329 0.0599416 0.0688027 0.102034 0.0685186 0.0806222 0.0421199 0.0738015 0.0693194
13 3 O -2.29524 3.43162 3.18632 -1.2 1 0.0152227 0.0207509 0.0245269 0.030344 0.0227523 0.0525954 0.0511968 0.0519683 0.041033 0.0535124 0.0592934 0.0536589 0.0410376 0.0550404 0.0590791 0.0632957 0.0666135 0.0620916 0.0650334 0.0742706
14 3 O -2.34216 3.43162 5.78248 -1.2 1 0.0130248 0.0132146 0.0196585 0.0296397 0.0250232 0.0442665 0.0550772 0.0478186 0.0382979 0.0532119 0.0544198 0.0491497 0.0559484 0.0548436 0.0735614 0.0723126 0.0669568 0.0680678 0.0745757 0.0709722
15 1 Mg 1.12778 2.37449 2.9896 1.2 1 0.0151667 0.0402359 0.0175784 0.0236748 0.0264213 0.042137 0.0413538 0.0500294 0.0366574 0.0602287 0.0371118 0.0601976 0.0410251 0.066273 0.0638588 0.0695669 0.0695613 0.0822969 0.0462238 0.0893169
16 1 Mg 3.92855 2.33318 4.4844 1.2 1 0.0299412 0.015634 0.0221434 0.0291715 0.0448077 0.0259091 0.0391685 0.0376978 0.0462287 0.0690494 0.0515191 0.0610108 0.0520057 0.0587258 0.0553263 0.0730035 0.0605001 0.09561 0.0737524 0.0862672
17 2 Si 2.09341 4.39804 4.4844 2.4 1 0.0193107 0.0186808 0.0325845 0.0213356 0.0398759 0.0277551 0.0636669 0.0244778 0.0424243 0.049003 0.0628406 0.0626112 0.0683968 0.0599545 0.0758131 0.0745204 0.073362 0.0769584 0.0505224 0.0672338
18 3 O 2.09991 6.01128 4.4844 -1.2 1 0.00855864 0.0126725 0.0177514 0.0186052 0.0348351 0.0222621 0.0523993 0.0539928 0.0486681 0.0483432 0.0469502 0.0658651 0.0441484 0.0618035 0.0636464 0.0740836 0.0437118 0.0766472 0.0620392 0.0712872
19 3 O -4.52137 3.42402 4.4844 -1.2 1 0.024323 0.0263116 0.0353745 0.0201207 0.0249013 0.0561547 0.0370864 0.048591 0.0529269 0.0579073 0.0327825 0.0576325 0.0511888 0.0562481 0.0890973 0.0741438 0.0736887 0.0598166 0.0737466 0.0601104
20 3 O 2.80834 3.69187 3.18632 -1.2 1 0.00871417 0.0180343 0.0202983 0.0250675 0.0218256 0.0387847 0.0359852 0.0510719 0.0450146 0.0588766 0.0667376 0.0509583 0.0424897 0.0636455 0.0700009 0.0726969 0.061813 0.0576451 0.0706621 0.0725668
21 1 Mg 1.17857 2.37449 0 1.2 1 0.0146778 0.034331 0.0286405 0.0276658 0.0375003 0.0381661 0.0430834 0.059102 0.0359102 0.0492676 0.0514108 0.0418687 0.0420741 0.0671542 0.056133 0.0637442 0.0614877 0.0807726 0.0593485 0.0737118
22 3 O 2.76143 3.69187 5.78248 -1.2 1 0.00569708 0.0204809 0.0214675 0.0262587 0.0222422 0.0327648 0.0400071 0.0500596 0.0329912 0.0463538 0.0593007 0.0429861 0.0538403 0.0772597 0.0745104 0.0659878 0.069192 0.0573861 0.070876 0.0763558
23 1 Mg -1.67381 2.41581 1.4948 1.2 1 0.011493 0.0116187 0.0371858 0.0362507 0.0324446 0.0440766 0.0587412 0.0404582 0.0509195 0.0405338 0.0464459 0.0591778 0.055024 0.0635547 0.0617953 0.0644882 0.0835262 0.0776145 0.0666597 0.0742888
24 2 Si 0.16286 0.350945 1.4948 2.4 1 0.0153341 0.0320256 0.0279265 0.023252 0.0354475 0.035635 0.0557878 0.0514296 0.0526823 0.0486678 0.0404125 0.055957 0.0738044 0.0689096 0.0571109 0.0732414 0.0696549 0.0647256 0.0731444 0.0662923
25 3 O 0.15972 -1.26229 1.4948 -1.2 1 0.0091398 0.015533 0.0397052 0.0213244 0.0371455 0.0359366 0.0454478 0.0563709 0.0472872 0.0517512 0.0558419 0.0566189 0.0633665 0.0664211 0.0496114 0.0595109 0.0697543 0.0670022 0.0617916 0.0740108
26 3 O 6.77654 1.32496 1.4948 -1.2 1 0.0115522 0.0278346 0.0265764 0.0277809 0.0372896 0.0545925 0.0342001 0.0650906 0.0475428 0.0465654 0.0441434 0.0523384 0.0526921 0.0597581 0.0685829 0.0714183 0.0845364 0.0629194 0.0598066 0.0745149
27 3 O -0.508028 1.05712 0.196716 -1.2 1 0.0244849 0.018964 0.029465 0.0207542 0.0290849 0.0533553 0.0435763 0.0446787 0.0470735 0.0482815 0.050571 0.0480577 0.0496769 0.0636513 0.0548106 0.0628165 0.063298 0.0588182 0.0722894 0.0718287
28 3 O -0.552171 1.05712 2.79288 -1.2 1 0.0380582 0.0287909 0.0351487 0.0344743 0.0247156 0.0446604 0.0438081 0.048052 0.0432158 0.037694 0.0476513 0.0490016 0.0595139 0.0648979 0.0652831 0.0772829 0.0735988 0.0501828 0.070167 0.0722232
29 1 Mg 6.31713 4.74899 0 1.2 1 0.0257589 0.0284323 0.0313611 0.0373063 0.0316784 0.0256378 0.040954 0.0550052 0.0587775 0.0500111 0.0518807 0.0391854 0.0589692 0.0615778 0.0665159 0.0633314 0.0647576 0.0731809 0.0682856 0.0696686
30 1 Mg 3.54847 9.45668 1.4948 1.2 1 0.0171322 0.0160514 0.0173599 0.0189349 0.0184821 0.0386116 0.037696 0.0429358 0.0445945 0.0564071 0.0369279 0.068501 0.0533914 0.065148 0.0753761 0.061988 0.0670337 0.0882462 0.0734673 0.079649
31 2 Si 5.36879 6.77254 1.4948 2.4 1 0.0290527 0.0271384 0.0238367 0.0255357 0.0246286 0.0349881 0.0443162 0.0363128 0.0448765 0.0569788 0.0422307 0.058703 0.0535036 0.0662822 0.065596 0.0742097 0.067332 0.0791431 0.0559174 0.0689921
32 3 O 5.41937 8.38578 1.4948 -1.2 1 0.0214599 0.0112338 0.0232392 0.0297632 0.0172159 0.0429567 0.0444863 0.0572996 0.0368376 0.050958 0.047097 0.064532 0.0548412 0.0533689 0.0655985 0.0613689 0.0728148 0.0563505 0.0729084 0.074039
33 3 O 1.75158 5.79852 1.4948 -1.2 1 0.0284665 0.0125012 0.0226023 0.0267171 0.0440609 0.0305277 0.0394316 0.0567643 0.0407066 0.052578 0.0495463 0.0508518 0.0475001 0.071042 0.0785513 0.0785534 0.060249 0.0749747 0.0602476 0.0768578
34 3 O 4.67421 6.06637 0.196716 -1.2 1 0.0145999 0.0264869 0.0315256 0.0242531 0.0320964 0.037796 0.03449 0.0322106 0.0448382 0.0560222 0.0393024 0.0442874 0.0669875 0.0560007 0.0676976 0.0711406 0.0711365 0.0658736 0.0632762 0.0678239
35 1 Mg 6.26654 4.74899 2.9896 1.2 1 0.0203722 0.0252113 0.0243094 0.0395757 0.0264228 0.0418028 0.049896 0.0468883 0.036768 0.0631801 0.0380604 0.0596617 0.0382978 0.0639602 0.0525733 0.0747258 0.0546379 0.0861416 0.0476813 0.0909707
36 3 O 4.63043 6.06637 2.79288 -1.2 1 0.0165656 0.0196499 0.0427107 0.0195397 0.0318642 0.0366673 0.0427895 0.0479673 0.0454633 0.0362034 0.0495057 0.0520046 0.0582339 0.0661877 0.0628424 0.0744524 0.0668973 0.0677742 0.0669907 0.0845513
37 1 Mg -1.12976 4.79031 4.4844 1.2 1 0.0175723 0.0249779 0.0150632 0.0146304 0.0362218 0.0364394 0.0510466 0.0497409 0.0440659 0.0448042 0.0560598 0.0579226 0.0766119 0.0672246 0.0635896 0.0694298 0.0666204 0.0958179 0.0706803 0.0877582
38 2 Si -2.9517 7.47444 4.4844 2.4 1 0.0236981 0.014279 0.0173636 0.0267439 0.0301446 0.0423984 0.0606048 0.0292236 0.0547266 0.0575263 0.0537685 0.0584633 0.0629614 0.0592458 0.0802952 0.0702623 0.0524373 0.0859519 0.0546049 0.0586049
39 3 O -3.00198 5.86121 4.4844 -1.2 1 0.0115178 0.0224031 0.0287345 0.0246538 0.0331316 0.0327745 0.0553205 0.0628764 0.0403797 0.0555103 0.0483983 0.0717412 0.0581718 0.0576495 0.0635518 0.0719011 0.0482352 0.0765919 0.0606947 0.0764184
40 3 O 0.666315 8.44846 4.4844 -1.2 1 0.019858 0.0205048 0.0251794 0.0160458 0.0226321 0.0515637 0.0350385 0.0473683 0.0447635 0.0503009 0.0379208 0.0529522 0.0471473 0.0717623 0.104134 0.0696414 0.0772288 0.0486669 0.0685259 0.0747486
41 3 O -2.21213 8.18062 3.18632 -1.2 1 0.021698 0.0121736 0.0196206 0.0151198 0.0157709 0.0334493 0.0447739 0.0541902 0.0424418 0.0563832 0.0517447 0.0536671 0.0521645 0.0468249 0.0780349 0.0628513 0.0735973 0.0587801 0.0677537 0.0708756
42 3 O -2.25864 8.18062 5.78248 -1.2 1 0.01169 0.0151573 0.0225327 0.0204565 0.0196195 0.0296384 0.0517745 0.0458531 0.0409628 0.0394683 0.0541235 0.0398565 0.0564321 0.0569643 0.0822134 0.0699836 0.0719054 0.0649885 0.067267 0.0758489
43 1 Mg 1.20893 7.12349 2.9896 1.2 1 0.00675555 0.024263 0.0199632 0.0237514 0.0239574 0.0381824 0.0433959 0.0472892 0.034131 0.0661541 0.039742 0.0658644 0.0355604 0.0570462 0.0521537 0.0816713 0.050094 0.0815095 0.0450257 0.0867751
44 1 Mg 4.00982 7.08218 4.4844 1.2 1 0.0238121 0.0138956 0.0215942 0.0357615 0.0307074 0.0343021 0.0459973 0.0373466 0.0466336 0.0515639 0.0572246 0.0558464 0.0741827 0.0701587 0.058214 0.0695024 0.0616132 0.0968931 0.0749544 0.0817764
45 2 Si 2.17861 9.14704 4.4844 2.4 1 0.0265705 0.0125044 0.0250374 0.022235 0.0281309 0.0353047 0.0618563 0.0252865 0.0505595 0.0549088 0.0539834 0.0597097 0.0638625 0.0567821 0.081401 0.0675618 0.0483796 0.0934083 0.0552164 0.0588946
46 3 O 2.18828 10.7603 4.4844 -1.2 1 0.0216564 0.012865 0.00772554 0.0200204 0.0242549 0.0267353 0.0368165 0.0596042 0.0434557 0.0499407 0.0406815 0.072455 0.0476905 0.0642678 0.0692736 0.0716822 0.0493528 0.0708214 0.0650021 0.0734681
47 3 O -4.43805 8.17302 4.4844 -1.2 1 0.016212 0.0218215 0.0152772 0.0167327 0.0219685 0.0541549 0.0350932 0.0491381 0.0448606 0.0485264 0.0377113 0.0542573 0.0532682 0.0720916 0.0982628 0.0644595 0.079958 0.0531552 0.0738361 0.0713841
48 3 O 2.89193 8.44087 3.18632 -1.2 1 0.0182133 0.0155085 0.0187204 0.0154918 0.0213234 0.0418523 0.0341249 0.0557841 0.043868 0.0513959 0.0593844 0.048656 0.0514799 0.0531619 0.080412 0.0629742 0.070381 0.0592352 0.0649935 0.0729692
49 1 Mg 1.25915 7.12349 0 1.2 1 0.0187028 0.0175211 0.028176 0.0148543 0.0319831 0.0248601 0.0502768 0.0399287 0.0561815 0.0497505 0.054075 0.0424419 0.0711519 0.0511947 0.0683923 0.0703749 0.0643309 0.0705813 0.0796596 0.0586618
50 3 O 2.84547 8.44087 5.78248 -1.2 1 0.00734717 0.0156974 0.015673 0.0220684 0.0211343 0.0272799 0.0497806 0.0447538 0.0403979 0.0398903 0.0580812 0.039421 0.0577634 0.0627493 0.0883091 0.0609002 0.069512 0.062882 0.0669199 0.0756171
51 1 Mg -1.59284 7.16481 1.4948 1.2 1 0.00975421 0.016326 0.0204079 0.0204251 0.0149816 0.0371803 0.0465349 0.0423859 0.0432114 0.0576101 0.0390009 0.0662607 0.0519274 0.0690428 0.0756848 0.0607344 0.06768 0.0843665 0.0740308 0.078335
52 2 Si 0.240329 5.09994 1.4948 2.4 1 0.0246672 0.0173249 0.0159993 0.043392 0.0272266 0.0406417 0.0466404 0.053233 0.0549339 0.0487544 0.0456114 0.0572747 0.0593125 0.0682608 0.0655641 0.0662971 0.0643158 0.0731851 0.066495 0.068337
53 3 O 0.234538 3.48671 1.4948 -1.2 1 0.013095 0.0161733 0.0266124 0.0356675 0.0316931 0.049474 0.0459995 0.0424052 0.0530463 0.0464168 0.0527738 0.0613376 0.0562255 0.060791 0.0618473 0.0626026 0.0629657 0.0568049 0.0762373 0.0731349
54 3 O 6.85564 6.07396 1.4948 -1.2 1 0.0325073 0.0195511 0.0344312 0.0275185 0.0372544 0.0402042 0.0326175 0.0624992 0.0361475 0.0532872 0.0538917 0.0539115 0.0552281 0.0733211 0.069597 0.0769694 0.0666807 0.0723842 0.0530537 0.0849427
55 3 O -0.429565 5.80612 0.196716 -1.2 1 0.0340055 0.0199786 0.0158183 0.0212061 0.0409606 0.0375111 0.053882 0.0452125 0.0460684 0.056432 0.0397614 0.0419926 0.0534326 0.0601277 0.0598523 0.0682308 0.0703977 0.0610524 0.0651965 0.0741585
56 3 O -0.473377 5.80612 2.79288 -1.2 1 0.0245568 0.0208427 0.0336245 0.0190506 0.0345299 0.0460997 0.0493901 0.0487532 0.0546423 0.0450733 0.0623877 0.0383817 0.0435489 0.0602394 0.0661323 0.0722791 0.0646859 0.0682217 0.0708066 0.0815728
57 1 Mg 6.40169 9.49799 0 1.2 1 0.0126974 0.0115989 0.021172 0.0140597 0.030469 0.0211388 0.052444 0.035741 0.0588697 0.0491221 0.0498917 0.035655 0.06727 0.052846 0.0715022 0.0674062 0.065026 0.0708946 0.0806111 0.0688092
58 1 Mg 3.64209 14.2057 1.4948 1.2 1 0.0105214 0.0110767 0.0179626 0.0167205 0.0215999 0.0336781 0.0360462 0.0435263 0.0415063 0.0557385 0.0393408 0.0658719 0.0531465 0.0663342 0.0739003 0.063046 0.0651122 0.0824486 0.0739505 0.078164
59 2 Si 5.45748 11.5215 1.4948 2.4 1 0.0118921 0.0216537 0.0233473 0.0248768 0.0181542 0.0402122 0.0398966 0.0400168 0.0437447 0.0548067 0.0426116 0.0600186 0.0532187 0.0660947 0.0694185 0.0641656 0.0703804 0.0813756 0.0573775 0.066846
60 3 O 5.51101 13.1348 1.4948 -1.2 1 0.0242463 0.0133216 0.0222209 0.0295035 0.0196685 0.0432517 0.0446422 0.0590435 0.0366687 0.04964 0.0427895 0.0673478 0.0532361 0.0533346 0.0655263 0.060016 0.0707208 0.0581698 0.0691323 0.0722387
61 3 O 1.83851 10.5475 1.4948 -1.2 1 0.0351301 0.0138637 0.0215396 0.0142373 0.0363725 0.0306529 0.0361464 0.0591055 0.0403695 0.0484001 0.0496937 0.0509421 0.0467328 0.0750801 0.0758296 0.0799814 0.0566189 0.0759231 0.0573354 0.0791621
62 3 O 4.7611 10.8154 0.196716 -1.2 1 0.0357584 0.0193389 0.0199576 0.0181646 0.0266573 0.0441616 0.0483871 0.0374423 0.0388151 0.0490797 0.036944 0.0409154 0.0607241 0.0609412 0.0650065 0.0715489 0.0754056 0.0657006 0.0731322 0.0679184
63 1 Mg 6.35203 9.49799 2.9896 1.2 1 0.0147157 0.0162625 0.0250433 0.0236533 0.0194764 0.0383535 0.0367146 0.0501921 0.0339005 0.0582513 0.0314809 0.066101 0.0261665 0.066699 0.0463999 0.0823337 0.046172 0.0910301 0.0467455 0.0899068
64 3 O 4.71833 10.8154 2.79288 -1.2 1 0.022768 0.0150029 0.0301657 0.0119507 0.0311004 0.0422356 0.0430312 0.0463418 0.0415342 0.0391193 0.0527602 0.0436277 0.0534979 0.0553742 0.0736431 0.0690734 0.0739378 0.0590046 0.069666 0.0795383
65 1 Mg -1.0438 9.53931 4.4844 1.2 1 0.00669377 0.0127544 0.0186177 0.0227807 0.0281682 0.028336 0.0344163 0.0355134 0.0464612 0.0518566 0.0548463 0.0579231 0.0673507 0.0688161 0.058048 0.0692648 0.0718505 0.10279 0.0721107 0.0808457
66 2 Si -2.8604 12.2234 4.4844 2.4 1 0.0190969 0.0153795 0.0202896 0.0246579 0.0282619 0.0424239 0.0569283 0.032368 0.0504151 0.0633706 0.0540505 0.0631942 0.0565612 0.0545462 0.0779314 0.0695834 0.0524221 0.0928364 0.0557571 0.0634397
67 3 O -2.91391 10.6102 4.4844 -1.2 1 0.0183902 0.00881404 0.0137897 0.0220151 0.0279471 0.0237698 0.0434173 0.0632884 0.0392809 0.0499282 0.0382344 0.0724344 0.0456026 0.0591641 0.0657712 0.0716892 0.0498229 0.0745627 0.0594023 0.0743253
68 3 O 0.7596 13.1975 4.4844 -1.2 1 0.0225055 0.0255058 0.0188527 0.0120524 0.0251469 0.0474326 0.0345211 0.0508433 0.0457325 0.0489928 0.0390798 0.0492748 0.048044 0.0714398 0.100047 0.0607769 0.0776347 0.0531133 0.072275 0.0699881
69 3 O -2.12001 12.9296 3.18632 -1.2 1 0.0172883 0.00926977 0.0193816 0.016861 0.0203826 0.0388056 0.0416131 0.0561295 0.0469424 0.0517062 0.0542903 0.0489274 0.0560315 0.0500452 0.0802804 0.0637897 0.0720369 0.0631307 0.0651218 0.0691511
70 3 O -2.16532 12.9296 5.78248 -1.2 1 0.0121989 0.00612399 0.0217185 0.0212535 0.0168902 0.0289948 0.0516142 0.0482012 0.0374845 0.0367219 0.0550178 0.0387675 0.057742 0.0604563 0.084079 0.0696949 0.0741767 0.0643285 0.0687159 0.076874
71 1 Mg 1.29891 11.8725 2.9896 1.2 1 0.00687216 0.0156267 0.0223458 0.0221043 0.0179705 0.038477 0.0360511 0.0509229 0.0346521 0.0601743 0.0337086 0.0593326 0.0254571 0.0675828 0.0489026 0.0834726 0.0489246 0.0904046 0.0464181 0.0851317
72 1 Mg 4.10033 11.8312 4.4844 1.2 1 0.00597413 0.0124702 0.0208053 0.0247535 0.0315071 0.0321096 0.0399636 0.0346632 0.0487032 0.0525805 0.0525102 0.0550323 0.0688275 0.0719856 0.0536391 0.0714841 0.0709256 0.102661 0.0741291 0.0784083
73 2 Si 2.27333 13.896 4.4844 2.4 1 0.0264936 0.0051211 0.0232182 0.0262709 0.0283559 0.03634 0.0613319 0.0289659 0.0517476 0.058731 0.0540166 0.0603422 0.0634324 0.0603301 0.0741889 0.0662877 0.0481545 0.0958611 0.053907 0.0558801
74 3 O 2.28634 15.5093 4.4844 -1.2 1 0.0216237 0.0150361 0.00438947 0.0193514 0.0247808 0.0227719 0.041371 0.0587471 0.0404531 0.053392 0.0424809 0.0716442 0.046517 0.063089 0.0690463 0.0669493 0.0483893 0.071656 0.0644641 0.0743245
75 3 O -4.34533 12.922 4.4844 -1.2 1 0.0215637 0.0162899 0.0219539 0.0149115 0.0245228 0.0488742 0.0392499 0.0491992 0.0428915 0.050949 0.0369289 0.0505389 0.0487114 0.0718815 0.101939 0.0707579 0.0790936 0.0505037 0.0729702 0.0735794
76 3 O 2.98455 13.1899 3.18632 -1.2 1 0.0251301 0.011366 0.0191061 0.0122963 0.0190444 0.0391646 0.038638 0.0575712 0.0434505 0.054425 0.0541499 0.0494984 0.0510224 0.0495371 0.0819988 0.0604718 0.0676285 0.061069 0.0651937 0.0704608
77 1 Mg 1.34779 11.8725 0 1.2 1 0.0219113 0.00938841 0.021896 0.0148222 0.0287377 0.0225735 0.0515187 0.0345167 0.0573994 0.0509244 0.0494222 0.035799 0.0649632 0.0501886 0.0705365 0.0643443 0.0616194 0.0702894 0.0873112 0.0595698
78 3 O 2.93934 13.1899 5.78248 -1.2 1 0.0162734 0.011299 0.0227665 0.0220642 0.0182869 0.0232751 0.0466513 0.0474743 0.0389122 0.040596 0.0569102 0.0374538 0.0532713 0.0583543 0.0855633 0.0654078 0.0701494 0.0614452 0.0657769 0.0779033
79 1 Mg -1.50344 11.9138 1.4948 1.2 1 0.0129671 0.018031 0.0227643 0.0204383 0.0116496 0.0370696 0.0378983 0.0428568 0.0412172 0.059875 0.0349083 0.0648624 0.0506245 0.0647905 0.0746295 0.0677618 0.0643346 0.0843954 0.0762048 0.0786081
80 2 Si 0.326006 9.84894 1.4948 2.4 1 0.0249782 0.019086 0.0251398 0.0305634 0.0173365 0.0387675 0.0440635 0.0378448 0.0446446 0.0564961 0.0401959 0.0595975 0.0547677 0.0669122 0.0606293 0.0641855 0.0699832 0.0789465 0.0616244 0.0682954
81 3 O 0.317364 8.23571 1.4948 -1.2 1 0.0223813 0.0126074 0.0226137 0.0241023 0.0202585 0.0452575 0.0427033 0.0499027 0.0343018 0.0541468 0.0441507 0.0656017 0.0573712 0.0597903 0.0682417 0.0660515 0.0719756 0.0533825 0.0732984 0.0740318
82 3 O 6.94307 10.823 1.4948 -1.2 1 0.0356925 0.0149263 0.0211348 0.00924184 0.0369597 0.0338457 0.0385802 0.0563231 0.0346911 0.046723 0.051678 0.0512004 0.0505396 0.0749818 0.0728453 0.0785091 0.0620396 0.073204 0.0572744 0.0811885
83 3 O -0.343122 10.5551 0.196716 -1.2 1 0.0308629 0.0174815 0.0215937 0.0208918 0.0297911 0.0414574 0.0512749 0.0397956 0.0387469 0.050856 0.0370659 0.0376452 0.061358 0.0608798 0.0688173 0.0708495 0.0811889 0.0539917 0.069917 0.0694308
84 3 O -0.385966 10.5551 2.79288 -1.2 1 0.0228748 0.0148705 0.0333995 0.0123442 0.0333239 0.0432762 0.0452426 0.0458288 0.0446083 0.0389785 0.0526863 0.0471573 0.0490384 0.0553077 0.0696086 0.0696189 0.0677243 0.0614333 0.0695195 0.0802472
85 1 Mg 6.49448 14.247 0 1.2 1 0.0224521 0.00969942 0.0186689 0.0170012 0.0287209 0.0229402 0.0481808 0.0330452 0.0593389 0.0480645 0.0509934 0.0377723 0.0628535 0.0532176 0.0717181 0.0655843 0.0642403 0.070998 0.0840856 0.0707549
86 1 Mg 3.74457 18.9547 1.4948 1.2 1 0.0107213 0.0135276 0.0165036 0.0171127 0.0263499 0.03034 0.0314264 0.0387318 0.037386 0.0567336 0.0428825 0.0697425 0.0517931 0.0668697 0.0710302 0.0700599 0.0619153 0.0839262 0.0793763 0.0763216
87 2 Si 5.55495 16.2705 1.4948 2.4 1 0.0120512 0.0200646 0.0219957 0.0269383 0.0184779 0.0425398 0.0365884 0.0421184 0.0454179 0.051956 0.0435932 0.0610314 0.0541177 0.0639265 0.0696683 0.0592873 0.0726116 0.0796457 0.0602059 0.0705476
88 3 O 5.6115 17.8838 1.4948 -1.2 1 0.0269363 0.0181994 0.0234237 0.0255962 0.0192659 0.0435909 0.0451739 0.0608494 0.0371127 0.0498366 0.0380765 0.0671388 0.0513646 0.0561555 0.0647227 0.0575038 0.0657498 0.0616107 0.0632168 0.0690911
89 3 O 1.93416 15.2965 1.4948 -1.2 1 0.0414659 0.0159561 0.0195096 0.00993839 0.0352634 0.0310563 0.0364407 0.057943 0.0418638 0.0464452 0.0487477 0.0503588 0.0470642 0.0735226 0.0804375 0.0762891 0.0599898 0.0737743 0.0626592 0.0764887
90 3 O 4.85636 15.5644 0.196716 -1.2 1 0.0260639 0.0109299 0.0223148 0.0196081 0.023686 0.0514679 0.050656 0.0401551 0.0410186 0.046494 0.0366173 0.0336848 0.0640524 0.054765 0.067247 0.0684251 0.0748525 0.0633132 0.0721916 0.0676669
91 1 Mg 6.44662 14.247 2.9896 1.2 1 0.0147145 0.020198 0.0229929 0.0228672 0.0188403 0.034836 0.0386619 0.0539786 0.0357683 0.058518 0.032628 0.0632466 0.0221579 0.063984 0.0461483 0.0795078 0.0460993 0.0895703 0.0427657 0.0918977
92 3 O 4.81537 15.5644 2.79288 -1.2 1 0.0150654 0.00722809 0.0280736 0.0118964 0.0280651 0.0380961 0.0469579 0.0475482 0.0458201 0.0395036 0.0510504 0.0426596 0.0531799 0.0561542 0.0747363 0.0662744 0.0761766 0.0535065 0.0714134 0.0766365
93 1 Mg -0.948271 14.2883 4.4844 1.2 1 0.0163723 0.0123394 0.0150535 0.0292379 0.0240939 0.0279274 0.0381712 0.034577 0.0436554 0.0493836 0.0594644 0.0561735 0.0672975 0.0694514 0.0593036 0.0707586 0.0718994 0.0954755 0.0738317 0.081406
94 2 Si -2.75928 16.9724 4.4844 2.4 1 0.0159195 0.0129844 0.0190362 0.0247995 0.0296453 0.0424273 0.0567352 0.0329418 0.0522803 0.0641347 0.0509407 0.0613205 0.0596522 0.0542565 0.0792403 0.0728488 0.047572 0.0932031 0.0545406 0.0627148
95 3 O -2.81617 15.3592 4.4844 -1.2 1 0.0170854 0.0147771 0.0114219 0.0227918 0.0303187 0.025415 0.0428512 0.0671199 0.0437271 0.0516489 0.0378067 0.0743123 0.0478284 0.0592633 0.0666715 0.0723881 0.0515684 0.0729224 0.0620922 0.0758463
96 3 O 0.862762 17.9465 4.4844 -1.2 1 0.0220635 0.0240641 0.0211063 0.0161941 0.0209153 0.0464305 0.0360399 0.0529825 0.045289 0.0530231 0.0394493 0.0475123 0.0445128 0.0715138 0.103308 0.056014 0.0709316 0.0549242 0.0731104 0.0702865
97 3 O -2.0185 17.6786 3.18632 -1.2 1 0.0249999 0.0110626 0.0192567 0.0188162 0.0182604 0.0368357 0.0413847 0.0536359 0.0418134 0.054083 0.0523905 0.0515416 0.0553352 0.0473606 0.0812096 0.0597611 0.0693303 0.0667084 0.0655999 0.0675549
98 3 O -2.06164 17.6786 5.78248 -1.2 1 0.0130868 0.0118559 0.0215728 0.0199054 0.0160957 0.0290692 0.0433298 0.0484932 0.035527 0.0399498 0.0576422 0.0388883 0.0565737 0.0580316 0.0831022 0.0724227 0.0688403 0.0632956 0.0698924 0.0732018
99 1 Mg 1.39817 16.6215 2.9896 1.2 1 0.00523975 0.0169981 0.0186019 0.0236285 0.0179723 0.0367998 0.037448 0.0516131 0.0368022 0.0588624 0.0349405 0.0576398 0.0230027 0.0662631 0.0488737 0.0810718 0.0505962 0.0911279 0.0453604 0.0899996
100 1 Mg 4.20062 16.5802 4.4844 1.2 1 0.0158813 0.00850232 0.0158089 0.0248022 0.0252011 0.0308039 0.040079 0.0325879 0.0469516 0.0541655 0.0543875 0.0537682 0.0671788 0.0679568 0.050429 0.0726914 0.0707274 0.0975206 0.073307 0.0797926
101 2 Si 2.37796 18.645 4.4844 2.4 1 0.0229122 0.00846962 0.0236712 0.0235805 0.0254333 0.0375871 0.060616 0.033531 0.0566415 0.0572087 0.0523279 0.0627538 0.0618741 0.0568344 0.074814 0.0659338 0.0453489 0.0983642 0.0533167 0.0577509
102 3 O 2.39434 20.2583 4.4844 -1.2 1 0.0239231 0.0110338 0.00899715 0.017163 0.0218021 0.0238731 0.0380633 0.0574021 0.0416363 0.0501327 0.0407581 0.0734056 0.0509861 0.0644201 0.0708579 0.0697079 0.0469473 0.0686688 0.0661865 0.0802717
103 3 O -4.24274 17.671 4.4844 -1.2 1 0.0172972 0.0197449 0.0191594 0.0187503 0.0188927 0.0511306 0.0333417 0.0469594 0.0426114 0.0528812 0.0404888 0.052106 0.0488371 0.0715531 0.0990919 0.062352 0.0766561 0.0536124 0.0759192 0.0736032
104 3 O 3.08659 17.9389 3.18632 -1.2 1 0.0282092 0.013378 0.0209501 0.0104655 0.0166389 0.0382626 0.0369447 0.0555364 0.0428279 0.052168 0.0554905 0.0478569 0.0515741 0.0501154 0.0805508 0.0588631 0.0675783 0.0601176 0.0645581 0.0705422
105 1 Mg 1.44478 16.6215 0 1.2 1 0.00942581 0.0120759 0.0216482 0.0125801 0.0264947 0.031669 0.0481062 0.0359682 0.0507971 0.0506033 0.0517644 0.039572 0.0584855 0.0495551 0.0698699 0.0661073 0.0602198 0.0677108 0.0884771 0.0637551
106 3 O 3.0436 17.9389 5.78248 -1.2 1 0.0175618 0.0129878 0.022027 0.0204303 0.0178957 0.0251819 0.0474743 0.0483568 0.0379433 0.0416607 0.0595722 0.0404153 0.0526777 0.0601983 0.0853922 0.0630419 0.0696502 0.0580441 0.0699916 0.0758563
107 1 Mg -1.40524 16.6628 1.4948 1.2 1 0.0116232 0.0124863 0.0257021 0.0176138 0.0173564 0.0344704 0.0360749 0.042756 0.0413577 0.0604051 0.0405127 0.0626876 0.0547787 0.0643022 0.0737919 0.0693617 0.0642295 0.0779104 0.0785888 0.0759503
108 2 Si 0.420358 14.5979 1.4948 2.4 1 0.0208195 0.0196364 0.0270589 0.0267091 0.0180677 0.0393084 0.0399788 0.0396322 0.0456853 0.0554497 0.0442771 0.0598886 0.0579627 0.0634648 0.0681949 0.0593774 0.0721991 0.0766154 0.0619706 0.0721671
109 3 O 0.408732 12.9847 1.4948 -1.2 1 0.0222243 0.0153266 0.0227671 0.0255781 0.0165836 0.0469494 0.0440935 0.0539034 0.0365398 0.0531223 0.0420423 0.0693668 0.0528831 0.056596 0.0653174 0.0642658 0.0710018 0.0553161 0.0682444 0.0725302
110 3 O 7.03923 15.572 1.4948 -1.2 1 0.029299 0.0168319 0.0217045 0.0127661 0.0360865 0.0338722 0.0368031 0.0560979 0.0384943 0.0444452 0.0512924 0.0529868 0.0479362 0.0743664 0.0779615 0.0783634 0.0644463 0.0695861 0.0621379 0.0778254
111 3 O -0.248332 15.3041 0.196716 -1.2 1 0.0190335 0.0131902 0.0214142 0.0183804 0.0250279 0.046438 0.0488612 0.0430239 0.0392752 0.0447883 0.0377922 0.03052 0.0606411 0.0535333 0.0702933 0.0639961 0.0835173 0.050757 0.0703648 0.0721452
112 3 O -0.289436 15.3041 2.79288 -1.2 1 0.0182032 0.0158008 0.026418 0.0111546 0.0304374 0.0372309 0.0435706 0.0479923 0.0440839 0.0402658 0.053691 0.047496 0.0500137 0.0524168 0.0728761 0.0693871 0.0717882 0.0560051 0.0701262 0.0761135
113 1 Mg 6.59566 18.996 0 1.2 1 0.0138593 0.0116732 0.0199546 0.0140847 0.0257276 0.0318269 0.043355 0.0333847 0.0541082 0.0491448 0.05403 0.0389986 0.0520326 0.052834 0.0721829 0.0646212 0.0644005 0.0647815 0.0858047 0.0704993
114 1 Mg 3.85574 23.7037 1.4948 1.2 1 0.0150978 0.0175902 0.0204388 0.0185193 0.0242796 0.0292164 0.0316429 0.035667 0.0385561 0.060177 0.047222 0.0618607 0.0509734 0.0659059 0.060659 0.0739334 0.0647608 0.0785811 0.0812031 0.0749553
115 2 Si 5.66125 21.0195 1.4948 2.4 1 0.00827453 0.0243463 0.0233396 0.0274388 0.0191747 0.0463536 0.0337501 0.0416039 0.048882 0.0543662 0.0451288 0.061016 0.0558112 0.0595546 0.0713995 0.060805 0.0737587 0.0770258 0.0650379 0.0753423
116 3 O 5.72074 22.6328 1.4948 -1.2 1 0.0281833 0.0193114 0.0184577 0.022721 0.0190706 0.0449096 0.0452187 0.0617853 0.03764 0.0520026 0.0326907 0.0698975 0.0494153 0.0537683 0.0687474 0.055926 0.0652589 0.0677388 0.05652 0.0710864
117 3 O 2.03867 20.0455 1.4948 -1.2 1 0.0300234 0.0168116 0.026898 0.0159414 0.034312 0.0297098 0.036157 0.054871 0.0435155 0.0423632 0.0506976 0.0504578 0.0483562 0.0740441 0.0847353 0.0726502 0.0620482 0.0681844 0.0637145 0.0735552
118 3 O 4.96004 20.3134 0.196716 -1.2 1 0.024318 0.0104771 0.0244814 0.0197864 0.02225 0.0455018 0.0450768 0.0478479 0.0403085 0.0418237 0.040456 0.0352022 0.0654234 0.0474313 0.0697374 0.0736755 0.0700085 0.058574 0.0705599 0.0716327
119 1 Mg 6.55057 18.996 2.9896 1.2 1 0.00795423 0.0152213 0.0172891 0.0190572 0.0207634 0.0331254 0.0369418 0.0554495 0.0348124 0.0596677 0.0374256 0.0607382 0.0246333 0.0698174 0.0435119 0.0714259 0.042661 0.0960379 0.045079 0.0942039
120 3 O 4.92172 20.3134 2.79288 -1.2 1 0.00989058 0.0126816 0.0285891 0.0146369 0.0316375 0.0377772 0.0455705 0.046864 0.0454792 0.0435708 0.0526694 0.0407779 0.0530785 0.0522568 0.0758107 0.0683871 0.0749234 0.0479752 0.0699979 0.0736568
121 1 Mg -0.84282 19.0373 4.4844 1.2 1 0.0114423 0.00949161 0.013144 0.0239728 0.0262643 0.0269035 0.0330441 0.0359029 0.0446304 0.0491665 0.0591019 0.0555306 0.0662161 0.0654058 0.0583952 0.0722001 0.0713691 0.0937496 0.0735561 0.0817809
122 2 Si -2.64823 21.7214 4.4844 2.4 1 0.016713 0.0122307 0.0195811 0.0256255 0.030617 0.0405861 0.0563836 0.0324186 0.0547489 0.0619045 0.0526784 0.0622194 0.060358 0.0571758 0.0787623 0.0717204 0.0476146 0.0949573 0.0549037 0.0629297
123 3 O -2.70847 20.1082 4.4844 -1.2 1 0.0123435 0.0190418 0.0146443 0.027144 0.0281989 0.0239493 0.0391357 0.064585 0.0440525 0.0492283 0.0395899 0.0710198 0.0497773 0.0605525 0.0682455 0.0705714 0.0487104 0.0741335 0.0671285 0.0769169
124 3 O 0.97581 22.6955 4.4844 -1.2 1 0.0163501 0.0218689 0.0189178 0.0230393 0.017833 0.0429686 0.0337716 0.0492585 0.0434397 0.0552585 0.0429141 0.0476826 0.0457871 0.0732836 0.107687 0.0532694 0.0691846 0.0559544 0.0747476 0.0695266
125 3 O -1.9076 22.4276 3.18632 -1.2 1 0.0219458 0.00804764 0.020537 0.0158898 0.0134288 0.0366838 0.0439936 0.0554299 0.0370093 0.0514965 0.0550181 0.0484024 0.0560088 0.0485196 0.0804431 0.0594152 0.0688282 0.0661704 0.062561 0.0670058
126 3 O -1.9475 22.4276 5.78248 -1.2 1 0.0243077 0.0106804 0.0181724 0.0197905 0.0133361 0.0266659 0.0501474 0.0408573 0.037195 0.0362431 0.0578443 0.0404478 0.0519484 0.0594188 0.0783778 0.0654076 0.0690228 0.0609343 0.0672657 0.0775198