ITEM: TIMESTEP
62200
ITEM: NUMBER OF ATOMS
10500
ITEM: BOX BOUNDS xy xz yz pp pp pp
0	15.2977	5.09925
0	118.725	0
0	89.688	0
ITEM: ATOMS id type element xu yu zu q Q_1 Q_2 Q_3 Q_4 Q_5 Q_6 Q_7 Q_8 Q_9 Q_10 Q_11 Q_12 Q_13 Q_14 Q_15 Q_16 Q_17 Q_18 Q_19 Q_20 Q_21
1 1 Mg 6.2404 -6.37941e-06 0 1.2 1 0.0130879 0.0408382 0.0300477 0.0359743 0.0329397 0.0415591 0.0348427 0.0687465 0.0380021 0.0713834 0.0337625 0.0589712 0.0461477 0.0684575 0.0500496 0.0920691 0.0518545 0.0838402 0.0503709 0.101844
2 1 Mg 3.46349 4.70768 1.4948 1.2 1 0.00866142 0.0202796 0.02363 0.0252776 0.0199375 0.0429081 0.0430474 0.0400844 0.0449272 0.0550494 0.0423613 0.0728217 0.0603159 0.0701786 0.075874 0.0632923 0.0675178 0.0876694 0.073114 0.0820828
3 2 Si 5.2885 2.02354 1.4948 2.4 1 0.0218436 0.0225102 0.036636 0.0256634 0.0307414 0.0364793 0.0534888 0.033658 0.044343 0.0518563 0.0557713 0.0621304 0.0559473 0.0635759 0.0680931 0.079363 0.0707771 0.0647534 0.0636929 0.0733993
4 3 O 5.33628 3.63678 1.4948 -1.2 1 0.00939433 0.0141499 0.026783 0.0258433 0.0185063 0.0390969 0.0418965 0.0600484 0.0355275 0.0399242 0.0547732 0.0506169 0.0679652 0.0581153 0.059116 0.064673 0.0604679 0.0616625 0.0712226 0.0744537
5 3 O 1.67294 1.04952 1.4948 -1.2 1 0.0161317 0.0215436 0.0234119 0.0353252 0.0297455 0.0386177 0.0342967 0.0604877 0.0349556 0.0590953 0.0442074 0.0515618 0.0722172 0.059356 0.0763484 0.0693665 0.0629929 0.0645775 0.0795011 0.0604495
6 3 O 4.59532 1.31737 0.196716 -1.2 1 0.0259942 0.0222707 0.0575493 0.0250879 0.0336273 0.048731 0.0384006 0.0473626 0.0336178 0.0392647 0.0388082 0.0506132 0.0542367 0.0570233 0.0636758 0.0701642 0.0618231 0.071501 0.0591892 0.070569
7 1 Mg 6.18956 -6.37941e-06 2.9896 1.2 1 0.0115789 0.0271203 0.0151327 0.0239874 0.0343126 0.0441246 0.0523592 0.0426289 0.0474901 0.0458226 0.0374903 0.0562085 0.0406846 0.0551839 0.057851 0.0790762 0.0554593 0.0709968 0.060777 0.0715578
8 3 O 4.55118 1.31737 2.79288 -1.2 1 0.023133 0.024872 0.037951 0.0182504 0.0273761 0.045728 0.0441031 0.0483543 0.0454861 0.0533713 0.053184 0.05086 0.0479413 0.06721 0.0554044 0.0691996 0.0637 0.0672087 0.0623459 0.0735396
9 1 Mg -1.20682 0.0413099 4.4844 1.2 1 0.0156541 0.0247611 0.0242145 0.0256045 0.0354517 0.0426762 0.0299708 0.0539759 0.0511577 0.0396215 0.0495676 0.0603346 0.0650619 0.0574669 0.0775222 0.0612711 0.0787615 0.0771678 0.0633766 0.056516
10 2 Si -3.0337 2.72544 4.4844 2.4 1 0.0349688 0.0149748 0.0213431 0.0151114 0.0304585 0.0370088 0.0608431 0.0356116 0.0592349 0.0477693 0.0476831 0.05974 0.0597691 0.0791835 0.0529971 0.0608008 0.0709337 0.0782905 0.0722297 0.0564849
11 3 O -3.08099 1.11221 4.4844 -1.2 1 0.0125135 0.022506 0.0254537 0.0244685 0.0374005 0.0285475 0.0460999 0.0484828 0.0404133 0.0371127 0.0359569 0.0708076 0.0543742 0.0528001 0.0535998 0.0704739 0.052165 0.0772522 0.073858 0.0784711
12 3 O 0.582463 3.69946 4.4844 -1.2 1 0.00425085 0.011194 0.0311859 0.0270201 0.0267207 0.0613757 0.0286171 0.053105 0.0464378 0.0379396 0.0507959 0.0541896 0.0604484 0.0710314 0.100509 0.0686952 0.0818592 0.0423505 0.0693426 0.0671632
13 3 O -2.29524 3.43162 3.18632 -1.2 1 0.0131049 0.0211782 0.024833 0.0307831 0.0195877 0.0497021 0.0512979 0.0502484 0.0403911 0.0532024 0.060173 0.0540648 0.0392665 0.0536261 0.0570798 0.0639697 0.0678863 0.0625162 0.0650832 0.0721959
14 3 O -2.34216 3.43162 5.78248 -1.2 1 0.0161864 0.011445 0.0220908 0.0250377 0.0281046 0.0380762 0.0514947 0.0500193 0.0363817 0.0537239 0.0554316 0.0523962 0.0540772 0.0553284 0.0732019 0.0717766 0.0649939 0.0653713 0.0772176 0.0755447
15 1 Mg 1.12778 2.37449 2.9896 1.2 1 0.0195197 0.0406495 0.0132392 0.0251486 0.0250748 0.0437771 0.0407917 0.0523551 0.0375941 0.0609465 0.0406215 0.0612461 0.0404701 0.0666809 0.0641538 0.0688112 0.0681194 0.0798491 0.0475488 0.0882407
16 1 Mg 3.92855 2.33318 4.4844 1.2 1 0.0284933 0.0212565 0.0191097 0.0229231 0.0452797 0.0241766 0.0394293 0.0359599 0.0470091 0.0736091 0.0529552 0.0620263 0.0524762 0.0615993 0.0575929 0.0754091 0.0603793 0.0924634 0.0751244 0.0866866
17 2 Si 2.09341 4.39804 4.4844 2.4 1 0.0104988 0.0166409 0.0343863 0.0195668 0.0421261 0.028586 0.061211 0.0243279 0.0437317 0.0472508 0.0629448 0.060191 0.0688968 0.0589539 0.0708106 0.0722305 0.0724671 0.0825507 0.0531913 0.0660095
18 3 O 2.09991 6.01128 4.4844 -1.2 1 0.0151145 0.0103051 0.0149318 0.0186244 0.0320714 0.0272961 0.0497814 0.053622 0.048197 0.0464381 0.0464584 0.0660067 0.0448971 0.0596253 0.0664238 0.0696772 0.0467846 0.0764553 0.0605462 0.071635
19 3 O -4.52137 3.42402 4.4844 -1.2 1 0.0194335 0.0267828 0.0342116 0.0217901 0.02661 0.0550227 0.0363819 0.0493082 0.0527828 0.0568376 0.0318396 0.0578922 0.0516211 0.0570343 0.0887084 0.076271 0.0756159 0.058676 0.0750851 0.0565231
20 3 O 2.80834 3.69187 3.18632 -1.2 1 0.00823633 0.0236876 0.0234067 0.0232258 0.0205336 0.0354649 0.0386762 0.0508205 0.0439733 0.057717 0.0655142 0.0544941 0.0440623 0.0647625 0.0707146 0.073048 0.063859 0.057107 0.0697321 0.0713166
21 1 Mg 1.17857 2.37449 0 1.2 1 0.01531 0.0339137 0.0286089 0.0270218 0.0375902 0.0379971 0.0425417 0.0591243 0.036139 0.0491275 0.0515558 0.0419608 0.0422071 0.0678861 0.0570465 0.0645277 0.0613001 0.0802933 0.0574987 0.0735113
22 3 O 2.76143 3.69187 5.78248 -1.2 1 0.00792106 0.0210137 0.022934 0.0226396 0.016324 0.0388489 0.0362239 0.0511792 0.0366305 0.0482783 0.0595778 0.0435413 0.0551425 0.0780554 0.0733172 0.0672532 0.0728855 0.0600214 0.0692462 0.0755139
23 1 Mg -1.67381 2.41581 1.4948 1.2 1 0.0107096 0.00848185 0.0413134 0.0343164 0.0299784 0.044953 0.0578382 0.0398572 0.0507107 0.0413282 0.0443454 0.0576782 0.0539943 0.0622169 0.0598075 0.0643499 0.0839118 0.0764595 0.0669066 0.0742449
24 2 Si 0.16286 0.350945 1.4948 2.4 1 0.0153112 0.0320104 0.0278605 0.0233529 0.0352071 0.0356162 0.0555399 0.0512878 0.0523502 0.0486242 0.0404521 0.0557299 0.0742518 0.0691337 0.0567005 0.0732637 0.0697867 0.0649842 0.0733072 0.0661823
25 3 O 0.15972 -1.26229 1.4948 -1.2 1 0.00909284 0.0157799 0.0396318 0.0214009 0.0368897 0.0358195 0.0454 0.0560041 0.0473743 0.0517215 0.0558917 0.0570091 0.063653 0.0664871 0.0490058 0.0597693 0.0695458 0.0672557 0.0617246 0.0737587
26 3 O 6.77654 1.32496 1.4948 -1.2 1 0.0144569 0.0258257 0.0261544 0.0259461 0.0359879 0.053274 0.0344838 0.0634953 0.0488782 0.0472007 0.043277 0.0516161 0.0539582 0.0607159 0.0683452 0.0707528 0.0835115 0.0626608 0.0596456 0.0727799
27 3 O -0.508028 1.05712 0.196716 -1.2 1 0.0246804 0.0189373 0.0297773 0.0202622 0.0289897 0.0538739 0.0437662 0.0448311 0.046845 0.0480813 0.0501893 0.0484865 0.0494742 0.0638131 0.0554386 0.0634069 0.0636494 0.0593807 0.0712813 0.0724911
28 3 O -0.552171 1.05712 2.79288 -1.2 1 0.0344248 0.0276221 0.0341356 0.0333869 0.0219385 0.0450474 0.0395765 0.044281 0.0431613 0.0338931 0.0501109 0.0491866 0.0611989 0.0610561 0.0630105 0.0749689 0.0721973 0.0504058 0.06975 0.0710744
29 1 Mg 6.31713 4.74899 0 1.2 1 0.0271345 0.0298982 0.0296779 0.0357524 0.0322726 0.0253186 0.040959 0.0569071 0.0587998 0.0495484 0.0510854 0.0393769 0.0588086 0.0620535 0.0666968 0.0633088 0.0659883 0.0743087 0.0705989 0.0698064
30 1 Mg 3.54847 9.45668 1.4948 1.2 1 0.0124264 0.0194588 0.0161127 0.0214573 0.0199961 0.0385766 0.0389808 0.04186 0.0436192 0.0553826 0.0369235 0.071601 0.0548556 0.065989 0.0753004 0.0624877 0.0656106 0.0882565 0.0745347 0.079945
31 2 Si 5.36879 6.77254 1.4948 2.4 1 0.0290542 0.0269829 0.0239873 0.0256058 0.0247289 0.0349378 0.0442693 0.0362017 0.0447333 0.0571532 0.0421166 0.0579868 0.0535426 0.066853 0.0656967 0.0740785 0.067486 0.0791636 0.0564173 0.0687725
32 3 O 5.41937 8.38578 1.4948 -1.2 1 0.0216653 0.0114996 0.0235534 0.0294637 0.0178523 0.0432753 0.0440645 0.0573783 0.0366097 0.0507624 0.0476262 0.0639671 0.0552741 0.0540806 0.0661906 0.0610308 0.0720385 0.0562591 0.0732467 0.072963
33 3 O 1.75158 5.79852 1.4948 -1.2 1 0.0284468 0.0122375 0.0222709 0.0265676 0.0441016 0.0308226 0.0393345 0.0567047 0.0409462 0.052392 0.0495645 0.0501769 0.0473406 0.0714007 0.0787643 0.0786682 0.0604372 0.0752738 0.0599114 0.0766576
34 3 O 4.67421 6.06637 0.196716 -1.2 1 0.0145223 0.026529 0.0315306 0.0243596 0.032003 0.0379047 0.0346243 0.0324283 0.0447512 0.0562851 0.0392402 0.0443566 0.0666942 0.0565868 0.0675145 0.0713981 0.0717307 0.065519 0.0633487 0.0687958
35 1 Mg 6.26654 4.74899 2.9896 1.2 1 0.0221013 0.025552 0.0238244 0.0429301 0.026272 0.0437433 0.0478127 0.0481496 0.0357677 0.0618347 0.0376198 0.0600215 0.0388026 0.0643394 0.0532779 0.0765831 0.0547731 0.0841777 0.0455475 0.0903418
36 3 O 4.63043 6.06637 2.79288 -1.2 1 0.02126 0.020057 0.0412977 0.0194551 0.0316081 0.0377399 0.0426037 0.0488768 0.0454979 0.0369864 0.0495374 0.0521716 0.0560254 0.0641567 0.0607604 0.0730156 0.0652776 0.069594 0.067706 0.0850587
37 1 Mg -1.12976 4.79031 4.4844 1.2 1 0.0167514 0.0254183 0.0139342 0.0183386 0.0356196 0.036565 0.0483454 0.0476986 0.0466423 0.0421649 0.0558221 0.0566513 0.0763562 0.070499 0.0603615 0.0687584 0.0721684 0.0942042 0.0708352 0.0817665
38 2 Si -2.9517 7.47444 4.4844 2.4 1 0.0246647 0.0142097 0.0183605 0.0248314 0.0327078 0.0408452 0.0632894 0.0259386 0.0545635 0.0587068 0.0526527 0.0574122 0.0648239 0.0565548 0.0837647 0.0710628 0.0532585 0.0857321 0.0545429 0.062637
39 3 O -3.00198 5.86121 4.4844 -1.2 1 0.00625374 0.0197535 0.0328818 0.0248693 0.0294252 0.0332558 0.0529029 0.0616298 0.0402672 0.0541384 0.0482496 0.0736914 0.0591708 0.0569975 0.0642764 0.0693185 0.0478191 0.0767309 0.0595819 0.0752678
40 3 O 0.666315 8.44846 4.4844 -1.2 1 0.00759829 0.0183419 0.0288248 0.020441 0.0214633 0.0526281 0.0313363 0.0503242 0.0420169 0.0476681 0.0437934 0.0486992 0.0499747 0.08011 0.102154 0.067461 0.0754837 0.0487854 0.0714775 0.0717514
41 3 O -2.21213 8.18062 3.18632 -1.2 1 0.0182436 0.0155663 0.0152399 0.0152724 0.0171936 0.0350737 0.0461914 0.0538812 0.0462686 0.0541833 0.0533938 0.0514489 0.0527244 0.0463114 0.0788877 0.0637147 0.070752 0.0593842 0.0682693 0.0717773
42 3 O -2.25864 8.18062 5.78248 -1.2 1 0.0211278 0.0117467 0.0207589 0.0187446 0.019202 0.026914 0.0519524 0.0503139 0.0381399 0.0400704 0.0552711 0.0376175 0.0586621 0.0577818 0.0827944 0.0653617 0.0710442 0.0640218 0.0673414 0.0757741
43 1 Mg 1.20893 7.12349 2.9896 1.2 1 0.00786336 0.0222225 0.0190832 0.0251009 0.0245236 0.0396046 0.0417366 0.0467205 0.0335479 0.0643323 0.0388078 0.0667314 0.0363194 0.0591113 0.0524496 0.0801188 0.0507862 0.0849243 0.0467131 0.085703
44 1 Mg 4.00982 7.08218 4.4844 1.2 1 0.0203138 0.0173038 0.0255896 0.0355782 0.0343755 0.0333268 0.0457685 0.036911 0.0474812 0.0497478 0.0568677 0.0551013 0.0713834 0.0733321 0.0533257 0.0672286 0.0664834 0.0969321 0.0737362 0.0785607
45 2 Si 2.17861 9.14704 4.4844 2.4 1 0.0228715 0.00975379 0.0261057 0.0256377 0.0320271 0.0320005 0.0624229 0.0245659 0.0497408 0.0567477 0.0555927 0.062754 0.0651416 0.0560237 0.0785959 0.0694743 0.0490164 0.0948068 0.0533118 0.0585264
46 3 O 2.18828 10.7603 4.4844 -1.2 1 0.0190584 0.0123214 0.00711445 0.0148092 0.0292847 0.0219589 0.0448481 0.0617048 0.0399609 0.0548588 0.0419247 0.0736384 0.0471694 0.0645338 0.0680324 0.0723552 0.0489869 0.0733216 0.066584 0.0713422
47 3 O -4.43805 8.17302 4.4844 -1.2 1 0.0127679 0.0197575 0.0161698 0.0168953 0.0224762 0.0562393 0.0376091 0.050527 0.0420731 0.049571 0.0356631 0.0524185 0.0528227 0.074789 0.100501 0.0686888 0.0762207 0.0561317 0.0729515 0.0754702
48 3 O 2.89193 8.44087 3.18632 -1.2 1 0.0179676 0.015518 0.0177702 0.0140292 0.0213162 0.0413399 0.0340978 0.055114 0.0436192 0.0512464 0.0595505 0.0483056 0.051899 0.0532175 0.0802342 0.0636408 0.0700896 0.0603966 0.0651798 0.0736067
49 1 Mg 1.25915 7.12349 0 1.2 1 0.0235624 0.01275 0.0228671 0.0131599 0.0305187 0.0248063 0.0523759 0.0415033 0.0559028 0.050207 0.0526962 0.0428299 0.0715149 0.0520913 0.0681158 0.0714684 0.0659012 0.0709642 0.0820949 0.0583874
50 3 O 2.84547 8.44087 5.78248 -1.2 1 0.00861212 0.0130782 0.0167183 0.0234527 0.0219944 0.0291817 0.0463682 0.049404 0.0399276 0.0409591 0.0576635 0.0411113 0.0628131 0.0639244 0.088327 0.066061 0.0719957 0.0666717 0.0636098 0.0730397
51 1 Mg -1.59284 7.16481 1.4948 1.2 1 0.00981071 0.0164298 0.02055 0.0204476 0.0148958 0.0372522 0.0459999 0.0428615 0.0430873 0.0576521 0.0384422 0.0657456 0.0521441 0.069246 0.0762636 0.0602996 0.0680942 0.0845871 0.0731455 0.0785665
52 2 Si 0.240329 5.09994 1.4948 2.4 1 0.021707 0.0202896 0.0146636 0.0438851 0.0273964 0.0408721 0.0470471 0.0521541 0.055086 0.0496911 0.0455268 0.0568281 0.0582318 0.0691167 0.0654033 0.0677221 0.0643275 0.0718166 0.0661967 0.0678426
53 3 O 0.234538 3.48671 1.4948 -1.2 1 0.0132104 0.0162747 0.0266645 0.0357955 0.0314305 0.0493647 0.0457581 0.0422909 0.0526676 0.0463072 0.0524622 0.0610407 0.0567317 0.0611 0.062511 0.0622361 0.062711 0.0573464 0.0757696 0.072991
54 3 O 6.85564 6.07396 1.4948 -1.2 1 0.0324896 0.0195638 0.0346621 0.027555 0.0371402 0.0401731 0.0325833 0.0622272 0.0365501 0.0530637 0.0537446 0.0536443 0.0553403 0.0733705 0.0700052 0.0771913 0.0662717 0.0722626 0.0534538 0.0850507
55 3 O -0.429565 5.80612 0.196716 -1.2 1 0.0341786 0.0201833 0.0159395 0.0211672 0.0410162 0.0373951 0.0538132 0.0449443 0.046194 0.0560886 0.0398547 0.0420593 0.0535613 0.0598879 0.0600122 0.0682391 0.0703028 0.0611298 0.0648668 0.0738319
56 3 O -0.473377 5.80612 2.79288 -1.2 1 0.024882 0.0206036 0.0339641 0.0189563 0.0346989 0.0464833 0.0490756 0.0484448 0.0544112 0.0452632 0.0629441 0.0373049 0.0430874 0.0598951 0.065742 0.0714366 0.0638952 0.0693242 0.0708978 0.0814607
57 1 Mg 6.40169 9.49799 0 1.2 1 0.0126387 0.0119465 0.0211259 0.0144474 0.0305771 0.0213482 0.0524939 0.0356014 0.0586635 0.0493253 0.0498603 0.0356046 0.0673762 0.0526694 0.0713226 0.0669369 0.0655173 0.0705669 0.0812019 0.0682517
58 1 Mg 3.64209 14.2057 1.4948 1.2 1 0.00694716 0.0133979 0.0193336 0.0200271 0.0228983 0.0338482 0.0375104 0.0447165 0.0413757 0.0538338 0.0377329 0.0676041 0.0544522 0.0665888 0.0725761 0.0638127 0.0623618 0.0823065 0.0755664 0.0784527
59 2 Si 5.45748 11.5215 1.4948 2.4 1 0.0120615 0.0218038 0.023216 0.0245562 0.0179721 0.040053 0.0397264 0.0403258 0.0436099 0.0543456 0.0424644 0.0609997 0.0533583 0.0657862 0.0696355 0.0634132 0.0707877 0.0818462 0.0572696 0.0662678
60 3 O 5.51101 13.1348 1.4948 -1.2 1 0.0244044 0.013417 0.0225055 0.0292569 0.0199085 0.0433723 0.0443893 0.0589594 0.0362699 0.0492932 0.0430186 0.0670431 0.053625 0.0539689 0.0663045 0.0596745 0.0705654 0.0581957 0.0690703 0.0719391
61 3 O 1.83851 10.5475 1.4948 -1.2 1 0.0351963 0.0140488 0.0217088 0.0140359 0.0363426 0.0300081 0.0364675 0.0590478 0.0397758 0.0481731 0.0496172 0.0517171 0.0472473 0.074801 0.0760365 0.0799474 0.0563214 0.0760182 0.058039 0.0786252
62 3 O 4.7611 10.8154 0.196716 -1.2 1 0.0357149 0.0192222 0.0197761 0.018103 0.0268257 0.0441951 0.0482533 0.0375186 0.038757 0.0490858 0.0369543 0.0410762 0.0608986 0.0608896 0.0648569 0.0714963 0.0751513 0.0657892 0.0730991 0.0676642
63 1 Mg 6.35203 9.49799 2.9896 1.2 1 0.0129394 0.0172818 0.0251002 0.0209828 0.0193268 0.0378751 0.0371219 0.0510264 0.0346259 0.0576308 0.0314669 0.0643119 0.0287147 0.0668431 0.04762 0.080939 0.0465385 0.0898513 0.0454879 0.0906026
64 3 O 4.71833 10.8154 2.79288 -1.2 1 0.0221196 0.0121443 0.0324464 0.0121879 0.0296727 0.0438779 0.0436806 0.0450468 0.0431538 0.0368962 0.0533232 0.0408834 0.054442 0.0593124 0.0735758 0.0690691 0.0722096 0.0600168 0.069957 0.0799598
65 1 Mg -1.0438 9.53931 4.4844 1.2 1 0.014012 0.0175392 0.0158744 0.0242066 0.0266784 0.0288074 0.0396606 0.0359513 0.0463532 0.0501938 0.0580073 0.0563876 0.0697085 0.071218 0.0615038 0.0671257 0.0723696 0.0963031 0.0720688 0.0869794
66 2 Si -2.8604 12.2234 4.4844 2.4 1 0.0177187 0.0151197 0.0171041 0.0250284 0.0288551 0.0428639 0.0580582 0.0310706 0.0564953 0.0630401 0.0533285 0.0619906 0.0599738 0.0531779 0.0787622 0.0706947 0.0494289 0.0900547 0.0524059 0.0587479
67 3 O -2.91391 10.6102 4.4844 -1.2 1 0.0198358 0.0111497 0.00680119 0.0224344 0.0278084 0.026092 0.0433582 0.0647746 0.040984 0.0499143 0.0382897 0.0716016 0.0449195 0.0593454 0.0682355 0.0715804 0.0503255 0.0738683 0.0626395 0.0754506
68 3 O 0.7596 13.1975 4.4844 -1.2 1 0.0215602 0.0224909 0.0219848 0.0158456 0.024681 0.0496252 0.0372054 0.0541512 0.0411665 0.048715 0.0425492 0.0484471 0.0494309 0.0749417 0.10241 0.0652223 0.0738023 0.0534778 0.0719136 0.0729689
69 3 O -2.12001 12.9296 3.18632 -1.2 1 0.0171278 0.0106674 0.0184949 0.0194298 0.0245596 0.0360731 0.0436634 0.053796 0.0482452 0.0518369 0.0547836 0.0491866 0.0561582 0.0513167 0.081675 0.0651498 0.0725449 0.0616943 0.0686339 0.0674358
70 3 O -2.16532 12.9296 5.78248 -1.2 1 0.0154957 0.00574241 0.0195425 0.0222497 0.0178816 0.030455 0.0481886 0.0501596 0.0397143 0.0395448 0.0546781 0.0396084 0.0585148 0.0603017 0.0830637 0.068297 0.071163 0.0631813 0.0706257 0.0745026
71 1 Mg 1.29891 11.8725 2.9896 1.2 1 0.00691849 0.0159734 0.0219002 0.0221967 0.0171348 0.0378884 0.0370008 0.0505929 0.0348302 0.0600054 0.0327139 0.0604444 0.0257303 0.0683691 0.049355 0.0832111 0.0486428 0.089012 0.0463394 0.0861246
72 1 Mg 4.10033 11.8312 4.4844 1.2 1 0.0127511 0.0189782 0.0164534 0.0252282 0.0259854 0.0342268 0.041972 0.0337321 0.0476234 0.0523253 0.0537478 0.0541166 0.069022 0.068844 0.0524609 0.0698203 0.0713722 0.0985838 0.0748243 0.0800388
73 2 Si 2.27333 13.896 4.4844 2.4 1 0.0290887 0.00397812 0.025557 0.0253691 0.0270763 0.0371961 0.0616603 0.0314433 0.0523887 0.0562108 0.0541391 0.0620964 0.0657804 0.0618387 0.077412 0.0664306 0.0476804 0.0985405 0.0531406 0.0574332
74 3 O 2.28634 15.5093 4.4844 -1.2 1 0.0205136 0.0158167 0.00816696 0.0151979 0.0289726 0.0223598 0.0423486 0.0602835 0.0400465 0.0531917 0.0400116 0.0738189 0.0471154 0.0661893 0.0679769 0.0734664 0.0468382 0.0683666 0.067016 0.0763422
75 3 O -4.34533 12.922 4.4844 -1.2 1 0.0206867 0.0218352 0.0218765 0.0155 0.0219758 0.0503882 0.0357393 0.0499268 0.0468089 0.0540608 0.0376293 0.0513962 0.0491835 0.0730152 0.10162 0.0675327 0.0753332 0.0521766 0.074142 0.0747647
76 3 O 2.98455 13.1899 3.18632 -1.2 1 0.0145944 0.0181548 0.0178936 0.0123378 0.0204367 0.0415263 0.0404923 0.0597799 0.0461351 0.0548712 0.055524 0.0513914 0.0518925 0.0534395 0.0833752 0.0592751 0.0671711 0.0609046 0.0633221 0.0717115
77 1 Mg 1.34779 11.8725 0 1.2 1 0.0199722 0.0111435 0.0249434 0.0145428 0.0286868 0.0220292 0.0493341 0.0344484 0.0581466 0.0506239 0.0508254 0.0354578 0.0641983 0.0498416 0.0713627 0.0640275 0.0608046 0.0698422 0.0859399 0.0599508
78 3 O 2.93934 13.1899 5.78248 -1.2 1 0.0187676 0.0106133 0.017958 0.021378 0.0199277 0.028182 0.0487062 0.0482658 0.0399904 0.0399217 0.0596222 0.0382008 0.0580139 0.0592549 0.0868535 0.0632882 0.0680609 0.0617715 0.0643279 0.0794074
79 1 Mg -1.50344 11.9138 1.4948 1.2 1 0.0128492 0.0196256 0.0220573 0.0234568 0.0145745 0.0370813 0.038843 0.0417044 0.0400261 0.0588743 0.0352808 0.0673237 0.0509551 0.0649819 0.0726032 0.0690908 0.0641156 0.083963 0.0774762 0.0784436
80 2 Si 0.326006 9.84894 1.4948 2.4 1 0.0291853 0.0179523 0.0254218 0.0302325 0.0181831 0.0396858 0.0443203 0.0377586 0.0443135 0.0550334 0.0405884 0.0596989 0.0560637 0.0668387 0.0629754 0.0642068 0.0713353 0.0803903 0.0612987 0.0692722
81 3 O 0.317364 8.23571 1.4948 -1.2 1 0.0224337 0.0125117 0.022619 0.0238694 0.0201475 0.0451946 0.0429576 0.0498563 0.0347799 0.0543097 0.0441309 0.066009 0.0572941 0.0595631 0.0680189 0.0668263 0.0712782 0.0536948 0.0734225 0.0743257
82 3 O 6.94307 10.823 1.4948 -1.2 1 0.0312135 0.0146564 0.0218402 0.0115146 0.0371685 0.0331224 0.0381305 0.0581155 0.0347322 0.0475839 0.0510481 0.0532584 0.0504 0.0743173 0.0727787 0.0798992 0.0615457 0.0729597 0.0582645 0.0798103
83 3 O -0.343122 10.5551 0.196716 -1.2 1 0.0269627 0.0179113 0.0216455 0.0210585 0.0314763 0.0418197 0.0499236 0.0391855 0.0375382 0.0480758 0.0383728 0.03642 0.0605137 0.0609769 0.0682383 0.0703388 0.0819306 0.0532721 0.0696913 0.070018
84 3 O -0.385966 10.5551 2.79288 -1.2 1 0.0229378 0.0148677 0.0327997 0.0122562 0.0326357 0.0440835 0.0456744 0.0451281 0.0452841 0.0379026 0.0524722 0.0475058 0.0493519 0.0565188 0.0704994 0.0711794 0.0672536 0.0605597 0.069212 0.0791368
85 1 Mg 6.49448 14.247 0 1.2 1 0.0226134 0.0098926 0.0185833 0.0168863 0.0286917 0.0227494 0.0478137 0.0328554 0.0593714 0.0481949 0.0513661 0.0373964 0.0625553 0.0527812 0.0712101 0.0654202 0.0643107 0.0707315 0.0845953 0.0708305
86 1 Mg 3.74457 18.9547 1.4948 1.2 1 0.0106732 0.013646 0.0165183 0.0170356 0.0264032 0.0303502 0.0315628 0.0387094 0.0375217 0.0566629 0.0429385 0.0700254 0.0519584 0.0669687 0.070865 0.0701942 0.0615827 0.0837379 0.0795388 0.076626
87 2 Si 5.55495 16.2705 1.4948 2.4 1 0.0121618 0.0201221 0.0219865 0.0266445 0.0184641 0.0424588 0.0363315 0.0423693 0.0451335 0.0516479 0.0433602 0.0613388 0.0544221 0.0638427 0.0700422 0.0586623 0.0729564 0.0799611 0.0603091 0.0702315
88 3 O 5.6115 17.8838 1.4948 -1.2 1 0.0272097 0.01806 0.0235416 0.0254628 0.0195906 0.0435674 0.045279 0.0610435 0.0375415 0.0500693 0.0383378 0.0666067 0.0517712 0.056609 0.0643829 0.0565554 0.0652651 0.061422 0.0634417 0.0689751
89 3 O 1.93416 15.2965 1.4948 -1.2 1 0.0370898 0.0145499 0.0219234 0.0131765 0.0351178 0.0302016 0.0361669 0.0589913 0.0430307 0.0465758 0.0484105 0.0501357 0.0464894 0.0743745 0.0811738 0.0774982 0.0589258 0.0741148 0.062325 0.0772911
90 3 O 4.85636 15.5644 0.196716 -1.2 1 0.0260748 0.0109816 0.0224071 0.0196529 0.0236271 0.0514453 0.0507192 0.0401318 0.0410156 0.0463978 0.0366678 0.0336131 0.0640271 0.0547609 0.0672891 0.068426 0.0748708 0.0633841 0.0723322 0.0677486
91 1 Mg 6.44662 14.247 2.9896 1.2 1 0.012154 0.0207936 0.0237617 0.0208893 0.0173711 0.0381108 0.0379446 0.0552907 0.0369945 0.0570965 0.0346389 0.065014 0.0255199 0.0660401 0.0469939 0.0774574 0.0471727 0.0920613 0.0432804 0.0924003
92 3 O 4.81537 15.5644 2.79288 -1.2 1 0.0123085 0.00928722 0.0296316 0.0132472 0.027893 0.0376842 0.047017 0.0470159 0.0470094 0.0390337 0.0517129 0.0423513 0.053452 0.0570974 0.0761936 0.0657693 0.0761123 0.0532861 0.0724744 0.0763674
93 1 Mg -0.948271 14.2883 4.4844 1.2 1 0.0151326 0.01392 0.0158312 0.0294646 0.0232032 0.0298843 0.0355352 0.0370557 0.0446844 0.0481038 0.0604866 0.0571409 0.0695311 0.066147 0.057022 0.0694336 0.0713746 0.0970923 0.0723163 0.0813718
94 2 Si -2.75928 16.9724 4.4844 2.4 1 0.0190227 0.00925097 0.0200224 0.0304775 0.032005 0.0397172 0.0590234 0.0309188 0.0561105 0.0637611 0.0536485 0.0634415 0.061867 0.0555573 0.0770208 0.0694361 0.0461084 0.0932279 0.0521722 0.0635096
95 3 O -2.81617 15.3592 4.4844 -1.2 1 0.0159906 0.0107074 0.0132882 0.0251917 0.0265144 0.0261363 0.0390291 0.0661868 0.0435116 0.048773 0.0373714 0.0743353 0.0512463 0.0608497 0.0684476 0.0682998 0.0499768 0.0738016 0.0620939 0.0730188
96 3 O 0.862762 17.9465 4.4844 -1.2 1 0.0181234 0.0187702 0.0246631 0.018646 0.0237685 0.0448648 0.0359877 0.053883 0.0471042 0.0514706 0.0393073 0.0463843 0.045025 0.0733188 0.107261 0.0593701 0.0700735 0.0526516 0.0712093 0.0690438
97 3 O -2.0185 17.6786 3.18632 -1.2 1 0.0220964 0.0069046 0.0198662 0.0179419 0.0176486 0.0373892 0.0422282 0.0553124 0.0413479 0.0545318 0.0537751 0.0488633 0.0568247 0.0497913 0.0829045 0.0601538 0.0684058 0.0670834 0.0654028 0.0677424
98 3 O -2.06164 17.6786 5.78248 -1.2 1 0.017284 0.0111172 0.0156896 0.0182095 0.0211221 0.02971 0.0509566 0.0487024 0.0412377 0.0376286 0.0551757 0.0360767 0.056322 0.0606814 0.0806266 0.0708341 0.0710103 0.063022 0.0708961 0.0784171
99 1 Mg 1.39817 16.6215 2.9896 1.2 1 0.00638961 0.017258 0.0193052 0.0228873 0.0183639 0.0353226 0.0370462 0.0527072 0.0366871 0.0588018 0.03569 0.0570953 0.022723 0.0681576 0.0470722 0.0804922 0.0498312 0.0915964 0.0441499 0.0882914
100 1 Mg 4.20062 16.5802 4.4844 1.2 1 0.0122398 0.0131419 0.0164848 0.0261847 0.0279282 0.0303596 0.0410757 0.0367772 0.0460627 0.0519672 0.0548943 0.0537629 0.0702792 0.0702414 0.0536923 0.075298 0.0694023 0.0952226 0.0741495 0.0769698
101 2 Si 2.37796 18.645 4.4844 2.4 1 0.0244199 0.00800045 0.0241855 0.027395 0.0269579 0.0364243 0.0597168 0.0323643 0.055051 0.0587104 0.0515076 0.0623323 0.0610461 0.0588308 0.0722875 0.0652617 0.0472321 0.0992795 0.0537282 0.055744
102 3 O 2.39434 20.2583 4.4844 -1.2 1 0.0223655 0.0130193 0.00847074 0.0145853 0.0258952 0.0220838 0.040712 0.0615931 0.042172 0.0506172 0.041826 0.0755215 0.0500833 0.0629457 0.0678863 0.0711472 0.0476572 0.0685797 0.0666872 0.077541
103 3 O -4.24274 17.671 4.4844 -1.2 1 0.0136224 0.0213037 0.0224391 0.0207196 0.02281 0.0474299 0.0371435 0.0493457 0.0443482 0.0539232 0.0370918 0.0514079 0.0469265 0.074802 0.101073 0.0606893 0.0764373 0.0530008 0.076335 0.0723249
104 3 O 3.08659 17.9389 3.18632 -1.2 1 0.0282294 0.0146892 0.021257 0.0103799 0.0169541 0.038098 0.0376732 0.0564858 0.042576 0.0516811 0.0556314 0.0470082 0.0528693 0.0496083 0.0801376 0.0579981 0.068035 0.0622972 0.0630929 0.069277
105 1 Mg 1.44478 16.6215 0 1.2 1 0.00933925 0.0122596 0.0218369 0.0127495 0.026732 0.0320813 0.0479174 0.0355479 0.0505345 0.050554 0.0517517 0.0397184 0.0585091 0.0491835 0.0695181 0.0662161 0.0606466 0.0675364 0.0885488 0.0637285
106 3 O 3.0436 17.9389 5.78248 -1.2 1 0.0137595 0.0132892 0.0215028 0.0246305 0.0198723 0.0246962 0.0509695 0.0445059 0.0438424 0.0390867 0.0579093 0.0364435 0.0567974 0.0605765 0.0918828 0.0638173 0.0744946 0.0629051 0.0689593 0.076324
107 1 Mg -1.40524 16.6628 1.4948 1.2 1 0.0116157 0.012541 0.0257318 0.0177214 0.0172427 0.0344884 0.0358611 0.0428247 0.0410397 0.0602989 0.0399937 0.0626803 0.0550672 0.0645989 0.0742116 0.0693655 0.0643552 0.0779722 0.0781739 0.0760685
108 2 Si 0.420358 14.5979 1.4948 2.4 1 0.0225072 0.0191076 0.0289786 0.0259456 0.0176686 0.0385544 0.0391167 0.0419046 0.0440773 0.0549156 0.0427904 0.0614458 0.0579268 0.0632986 0.0671022 0.0592379 0.0718858 0.0764996 0.0625073 0.0714526
109 3 O 0.408732 12.9847 1.4948 -1.2 1 0.0222725 0.0154829 0.0229226 0.0256877 0.0166887 0.0471393 0.043727 0.053862 0.0359443 0.0525723 0.0421881 0.0692851 0.0532932 0.0570078 0.0663095 0.0634464 0.07147 0.0551836 0.0679805 0.0717886
110 3 O 7.03923 15.572 1.4948 -1.2 1 0.0293248 0.0166977 0.0217992 0.012594 0.0360378 0.0332882 0.0370546 0.0562373 0.0380546 0.0442822 0.0509129 0.0538114 0.0484816 0.0738178 0.078554 0.0784989 0.0640844 0.0698076 0.0626541 0.0770219
111 3 O -0.248332 15.3041 0.196716 -1.2 1 0.022079 0.0123713 0.0224123 0.0192474 0.024226 0.0461623 0.0499019 0.0432973 0.040309 0.0465925 0.0368156 0.0319809 0.0620471 0.0540527 0.0703181 0.0650945 0.0817288 0.0507419 0.069096 0.0709513
112 3 O -0.289436 15.3041 2.79288 -1.2 1 0.0103153 0.0163785 0.0312128 0.0110785 0.0299377 0.0378869 0.0450742 0.0452081 0.0458779 0.039514 0.0535424 0.0475015 0.0518231 0.0563093 0.0729222 0.0710462 0.0720402 0.0569493 0.0691209 0.0759376
113 1 Mg 6.59566 18.996 0 1.2 1 0.0138629 0.0116444 0.0198916 0.0145667 0.0262764 0.0315327 0.0427474 0.0328516 0.0538945 0.048845 0.0540093 0.0395077 0.052458 0.0534361 0.071962 0.0648598 0.0636615 0.0652729 0.0860818 0.0710488
114 1 Mg 3.85574 23.7037 1.4948 1.2 1 0.0106954 0.0126782 0.0212681 0.0140233 0.0227907 0.0289213 0.0313412 0.0369933 0.0394967 0.0602675 0.0474829 0.0625073 0.0500079 0.0669608 0.0645363 0.0721104 0.0661613 0.0794985 0.0794968 0.075902
115 2 Si 5.66125 21.0195 1.4948 2.4 1 0.0086718 0.0243533 0.0232853 0.0272133 0.0192919 0.0460566 0.0342696 0.041856 0.0494086 0.0543275 0.0452408 0.0624823 0.0561041 0.058383 0.0721912 0.0606129 0.0730768 0.0773447 0.0632219 0.0748103
116 3 O 5.72074 22.6328 1.4948 -1.2 1 0.0283873 0.0192503 0.0184493 0.0227499 0.019064 0.044709 0.0455964 0.0618342 0.0383219 0.0518009 0.0332226 0.0693198 0.0499974 0.0542649 0.0684204 0.0544843 0.065211 0.067767 0.0564358 0.0709185
117 3 O 2.03867 20.0455 1.4948 -1.2 1 0.0344277 0.0171644 0.0258712 0.0132813 0.0339634 0.0306776 0.0363421 0.0545204 0.0428812 0.0420445 0.0506055 0.0508164 0.0482795 0.0734074 0.0845528 0.0708289 0.062734 0.0675173 0.064122 0.0727227
118 3 O 4.96004 20.3134 0.196716 -1.2 1 0.0211476 0.0104504 0.0229512 0.0187782 0.0232112 0.0452532 0.0439113 0.0478418 0.0389636 0.0399386 0.0411051 0.0344808 0.0646842 0.0477132 0.0697287 0.0729371 0.0716439 0.0579911 0.071375 0.0720184
119 1 Mg 6.55057 18.996 2.9896 1.2 1 0.00940382 0.0166949 0.0204468 0.0208109 0.0205192 0.0341477 0.0367957 0.0561049 0.0334635 0.0582539 0.0340751 0.0625233 0.0235498 0.0703702 0.0451583 0.0747161 0.0479307 0.0958299 0.0436661 0.092701
120 3 O 4.92172 20.3134 2.79288 -1.2 1 0.0106304 0.0115126 0.031612 0.0149104 0.0301595 0.039826 0.0460771 0.0460912 0.0480424 0.0431258 0.052382 0.0400613 0.0533506 0.0530087 0.0772763 0.0663275 0.0758211 0.0494046 0.0716685 0.0723846
121 1 Mg -0.84282 19.0373 4.4844 1.2 1 0.00798664 0.00976238 0.0130693 0.0248364 0.0236125 0.0264913 0.034237 0.0333106 0.0475356 0.0511129 0.0586929 0.0554812 0.0686636 0.0659913 0.0567873 0.0705775 0.0707275 0.0947088 0.0728959 0.0840096
122 2 Si -2.64823 21.7214 4.4844 2.4 1 0.0165865 0.0142846 0.0159786 0.0276251 0.0303901 0.0395978 0.0574573 0.0307613 0.0539254 0.0652927 0.0527968 0.0627504 0.0600306 0.0531713 0.0762996 0.0739277 0.0444305 0.0953239 0.05165 0.0634386
123 3 O -2.70847 20.1082 4.4844 -1.2 1 0.0128597 0.0116909 0.0212302 0.026414 0.0232277 0.0223854 0.0379664 0.0647709 0.044035 0.0477824 0.0405607 0.0715484 0.0497405 0.0604777 0.0672958 0.0677407 0.0503891 0.0718393 0.0675928 0.0778247
124 3 O 0.97581 22.6955 4.4844 -1.2 1 0.0124454 0.025815 0.0188141 0.0186311 0.0185148 0.043276 0.0329821 0.0492889 0.0438497 0.056965 0.0413846 0.0476853 0.045124 0.0723297 0.108128 0.0526203 0.0689035 0.0580351 0.0767638 0.0656592
125 3 O -1.9076 22.4276 3.18632 -1.2 1 0.0212833 0.00627416 0.0208029 0.0136841 0.0159038 0.0385896 0.0453891 0.0564272 0.0400245 0.0487628 0.0549985 0.0485566 0.0555799 0.0508171 0.0803719 0.0603593 0.0684846 0.0646975 0.0622269 0.0667966
126 3 O -1.9475 22.4276 5.78248 -1.2 1 0.0128201 0.00725726 0.0211054 0.0218667 0.016805 0.0294516 0.0517153 0.0453942 0.0393053 0.0374652 0.0566201 0.0395579 0.0540877 0.064903 0.0800288 0.0654865 0.0715315 0.0644728 0.0701681 0.0750013