ITEM: TIMESTEP
81000
ITEM: NUMBER OF ATOMS
10500
ITEM: BOX BOUNDS xy xz yz pp pp pp
0	15.2977	5.09925
0	118.725	0
0	89.688	0
ITEM: ATOMS id type element xu yu zu q Q_1 Q_2 Q_3 Q_4 Q_5 Q_6 Q_7 Q_8 Q_9 Q_10 Q_11 Q_12 Q_13 Q_14 Q_15 Q_16 Q_17 Q_18 Q_19 Q_20 Q_21
1 1 Mg 6.2404 -6.37941e-06 0 1.2 1 0.013293 0.0410705 0.0292216 0.0355548 0.0338864 0.0409937 0.0369109 0.0687898 0.0400195 0.0710602 0.0336275 0.0594404 0.045319 0.0683777 0.0489748 0.0922008 0.0518417 0.084149 0.0518612 0.104095
2 1 Mg 3.46349 4.70768 1.4948 1.2 1 0.0130112 0.0173672 0.0239621 0.0228673 0.0201784 0.0421807 0.0425814 0.0412476 0.0462755 0.0563167 0.0427479 0.0699957 0.0586892 0.0698802 0.0749972 0.0632793 0.068284 0.087267 0.0720761 0.0823344
3 2 Si 5.2885 2.02354 1.4948 2.4 1 0.0218423 0.0224949 0.0366608 0.0256314 0.0307864 0.0365019 0.0534881 0.0335941 0.0443339 0.0519387 0.0556908 0.0620166 0.0558273 0.063683 0.0681807 0.0793725 0.0708307 0.0648446 0.063649 0.0732991
4 3 O 5.33628 3.63678 1.4948 -1.2 1 0.0091662 0.0138266 0.0264988 0.0257709 0.0183238 0.0390878 0.0422056 0.06039 0.0362091 0.0406931 0.0541428 0.0519002 0.0669631 0.0570691 0.0578029 0.0658615 0.0603961 0.0611257 0.0716938 0.0747372
5 3 O 1.67294 1.04952 1.4948 -1.2 1 0.0162955 0.021819 0.0232873 0.0356683 0.0296201 0.0388538 0.0342127 0.0609389 0.0347863 0.059435 0.0439141 0.0513611 0.0721154 0.0592505 0.0761971 0.0689855 0.0627767 0.0646585 0.0794999 0.0602099
6 3 O 4.59532 1.31737 0.196716 -1.2 1 0.0258279 0.021911 0.0575979 0.0252546 0.0331066 0.0487345 0.0386744 0.0473587 0.033854 0.0390031 0.0384253 0.0499996 0.054054 0.0577736 0.0630772 0.0701037 0.062448 0.0714078 0.059082 0.071131
7 1 Mg 6.18956 -6.37941e-06 2.9896 1.2 1 0.0284513 0.0358859 0.0200835 0.0202654 0.0338837 0.0447882 0.0500329 0.0446478 0.0504326 0.0453698 0.0431177 0.0559969 0.0404759 0.0553918 0.0591292 0.080143 0.0580344 0.0706403 0.060161 0.0708926
8 3 O 4.55118 1.31737 2.79288 -1.2 1 0.0209484 0.0251224 0.0381863 0.0149327 0.0281528 0.043268 0.0451164 0.0475686 0.0451631 0.0537711 0.052159 0.0505937 0.0487176 0.0669808 0.0545155 0.0696167 0.0668217 0.0669437 0.064113 0.0715774
9 1 Mg -1.20682 0.0413099 4.4844 1.2 1 0.0130897 0.0238633 0.0202522 0.0269566 0.0373663 0.0399647 0.0310876 0.051837 0.0525216 0.0410598 0.0477146 0.0612068 0.0700135 0.0589381 0.075246 0.0630848 0.0786361 0.0762857 0.0647767 0.0522044
10 2 Si -3.0337 2.72544 4.4844 2.4 1 0.0274373 0.0159684 0.0235741 0.0170954 0.0293935 0.0398517 0.0590749 0.0368304 0.0600754 0.0478369 0.0465784 0.0601952 0.057217 0.0738903 0.0494177 0.0590957 0.0710643 0.0745928 0.0710187 0.0559758
11 3 O -3.08099 1.11221 4.4844 -1.2 1 0.00968717 0.0293496 0.0262928 0.0273427 0.0369451 0.0263621 0.049576 0.0476334 0.0396418 0.0373983 0.0397684 0.0732422 0.0528693 0.0568347 0.0545452 0.0691021 0.0522005 0.0779818 0.0714016 0.0798419
12 3 O 0.582463 3.69946 4.4844 -1.2 1 0.00849041 0.0158151 0.031327 0.0302466 0.0264406 0.0608589 0.0322113 0.0516084 0.0435949 0.0403657 0.0535629 0.0509396 0.0609672 0.0722329 0.0975897 0.0734689 0.0798947 0.0420371 0.0682279 0.0683613
13 3 O -2.29524 3.43162 3.18632 -1.2 1 0.0145187 0.0194262 0.0220041 0.0320122 0.0199967 0.0504237 0.0513856 0.0522772 0.0405795 0.0523907 0.0616214 0.05674 0.040702 0.0559311 0.0591908 0.0645193 0.0703361 0.0619242 0.0628744 0.0728295
14 3 O -2.34216 3.43162 5.78248 -1.2 1 0.0235772 0.0110196 0.0187393 0.02837 0.0215987 0.0420554 0.052327 0.0484846 0.0366787 0.0536721 0.059086 0.0465828 0.0539103 0.0478998 0.0740071 0.0698606 0.0655196 0.0630736 0.0745153 0.0701719
15 1 Mg 1.12778 2.37449 2.9896 1.2 1 0.0174257 0.042076 0.0131164 0.0252318 0.0264625 0.0422287 0.0398999 0.054198 0.0363796 0.0626799 0.0407859 0.0603052 0.0401799 0.069782 0.0656645 0.0688546 0.0659791 0.077632 0.0480818 0.0868263
16 1 Mg 3.92855 2.33318 4.4844 1.2 1 0.0291082 0.0181693 0.0237454 0.0230389 0.0461402 0.0210898 0.041102 0.0346917 0.0463727 0.0719497 0.0489421 0.0603174 0.0542245 0.0578908 0.0543975 0.0744842 0.0613474 0.0937024 0.0725278 0.0865676
17 2 Si 2.09341 4.39804 4.4844 2.4 1 0.0138713 0.0230735 0.0327461 0.0167596 0.0419813 0.0298259 0.0592863 0.0264455 0.0461132 0.0513895 0.0645681 0.0595747 0.0710001 0.059247 0.0704879 0.0714651 0.0696728 0.0780114 0.0545529 0.0666845
18 3 O 2.09991 6.01128 4.4844 -1.2 1 0.017578 0.0116169 0.0164031 0.0223161 0.0347436 0.0289192 0.042289 0.0536803 0.0523596 0.0470958 0.0467102 0.0659593 0.0440498 0.0627015 0.0617627 0.0682504 0.0415124 0.0755737 0.0555188 0.0747518
19 3 O -4.52137 3.42402 4.4844 -1.2 1 0.0203065 0.0251301 0.0392601 0.0194321 0.0231593 0.0547523 0.0403409 0.0475621 0.0540339 0.0538643 0.0327642 0.0602491 0.0552798 0.0568284 0.0905919 0.075465 0.074933 0.0585254 0.0718232 0.058514
20 3 O 2.80834 3.69187 3.18632 -1.2 1 0.0115611 0.0233528 0.0235477 0.0237324 0.0215261 0.0355737 0.0372832 0.0512302 0.0449644 0.0548284 0.0661764 0.0530866 0.0447491 0.0637308 0.0703584 0.074745 0.063229 0.0555676 0.0710255 0.0697991
21 1 Mg 1.17857 2.37449 0 1.2 1 0.0152133 0.0344951 0.0287948 0.0277508 0.037829 0.0381212 0.0434589 0.0588443 0.0358077 0.0493342 0.0510067 0.0418286 0.0422348 0.0672497 0.0565394 0.0647352 0.0620148 0.0800912 0.0584162 0.0725058
22 3 O 2.76143 3.69187 5.78248 -1.2 1 0.0107628 0.0237533 0.023443 0.0230834 0.0183986 0.0373563 0.0380493 0.0478228 0.0383681 0.0491782 0.0608683 0.0435792 0.0547105 0.0754922 0.0742732 0.0616785 0.0747512 0.0573792 0.0736935 0.0744583
23 1 Mg -1.67381 2.41581 1.4948 1.2 1 0.0104235 0.00785572 0.0393998 0.0355294 0.0315599 0.0440242 0.0584025 0.0394465 0.052087 0.0408799 0.0444444 0.0579758 0.0542943 0.0629141 0.0604106 0.0650863 0.0831389 0.0765434 0.0665934 0.0750087
24 2 Si 0.16286 0.350945 1.4948 2.4 1 0.0153237 0.0355632 0.030019 0.0242564 0.0366202 0.035432 0.0566332 0.0486836 0.0531364 0.0492912 0.0403919 0.0539674 0.0750755 0.0704174 0.0581337 0.0734036 0.0694001 0.0645063 0.0731256 0.0656015
25 3 O 0.15972 -1.26229 1.4948 -1.2 1 0.00919747 0.0155057 0.0399362 0.0210683 0.0373824 0.0357329 0.0454328 0.0563873 0.0468569 0.0514808 0.0554671 0.0556867 0.0629208 0.0664996 0.0498463 0.0594525 0.0695508 0.0668146 0.0615794 0.0739779
26 3 O 6.77654 1.32496 1.4948 -1.2 1 0.0116002 0.027674 0.0265824 0.0275844 0.0371263 0.054448 0.0340871 0.065044 0.0476153 0.046636 0.0442261 0.0521587 0.0526659 0.0597411 0.0685873 0.0711856 0.0841901 0.0628026 0.0599154 0.0742532
27 3 O -0.508028 1.05712 0.196716 -1.2 1 0.024925 0.0192151 0.0296948 0.0205795 0.0297584 0.0527752 0.0438713 0.0442889 0.0475006 0.0481279 0.0501629 0.0476577 0.049174 0.0633108 0.0546908 0.0628027 0.0637619 0.0591647 0.0720609 0.0723273
28 3 O -0.552171 1.05712 2.79288 -1.2 1 0.038813 0.0259424 0.0411697 0.0319306 0.0256302 0.0452272 0.0418955 0.0472572 0.0412087 0.0371103 0.0469215 0.0490624 0.0606711 0.0595484 0.0656217 0.0745728 0.0707466 0.0512216 0.0689934 0.0714878
29 1 Mg 6.31713 4.74899 0 1.2 1 0.0273319 0.0292443 0.0301509 0.0366647 0.0328022 0.0265683 0.0422094 0.0558346 0.0585597 0.0493061 0.0509761 0.0386658 0.0597825 0.0620242 0.0659689 0.0638894 0.0657085 0.0740219 0.069223 0.0702299
30 1 Mg 3.54847 9.45668 1.4948 1.2 1 0.0170793 0.0159604 0.0176112 0.0187239 0.0187932 0.0383137 0.038603 0.0418096 0.0444921 0.0560979 0.037475 0.0700686 0.0532291 0.0656662 0.0747521 0.0629513 0.0662907 0.0873073 0.0743272 0.0799498
31 2 Si 5.36879 6.77254 1.4948 2.4 1 0.0259864 0.0293613 0.0213302 0.0268541 0.0248178 0.0352641 0.0444757 0.0349365 0.0458999 0.0592533 0.0422845 0.0578548 0.0519746 0.0671299 0.0650535 0.0757103 0.0665519 0.0779516 0.0562756 0.0682038
32 3 O 5.41937 8.38578 1.4948 -1.2 1 0.0215775 0.0115698 0.0237582 0.0294745 0.0176964 0.0433696 0.0440692 0.0571181 0.0363151 0.0501087 0.0479406 0.064021 0.0556101 0.0539253 0.0667604 0.0609254 0.0728901 0.0558647 0.0732474 0.0730024
33 3 O 1.75158 5.79852 1.4948 -1.2 1 0.028426 0.0124579 0.0225457 0.0267437 0.0440498 0.0307483 0.0394723 0.0564547 0.0408133 0.0524395 0.0495796 0.0506729 0.0475925 0.0712242 0.0786203 0.0789194 0.0605472 0.0750434 0.0600911 0.077133
34 3 O 4.67421 6.06637 0.196716 -1.2 1 0.0145799 0.0264996 0.0316047 0.0244291 0.0319749 0.0378076 0.0346394 0.0322485 0.044749 0.056125 0.0392544 0.0442885 0.0667307 0.0565225 0.0675826 0.0713885 0.0716222 0.0655837 0.0633858 0.0687397
35 1 Mg 6.26654 4.74899 2.9896 1.2 1 0.0159834 0.0304524 0.0263923 0.042129 0.0237905 0.0440882 0.0492578 0.047288 0.0352506 0.0627308 0.0333513 0.0599658 0.0380483 0.0621945 0.0515582 0.0785808 0.0546713 0.0841766 0.0459758 0.0875318
36 3 O 4.63043 6.06637 2.79288 -1.2 1 0.0214215 0.0199456 0.0406381 0.0198909 0.0319539 0.0376274 0.0422189 0.0487892 0.0455327 0.0372654 0.0484842 0.0508494 0.05631 0.0631673 0.0602566 0.0729349 0.0651428 0.0703302 0.0669981 0.0854446
37 1 Mg -1.12976 4.79031 4.4844 1.2 1 0.020866 0.0249881 0.013092 0.0142328 0.0377997 0.0354517 0.0506479 0.047742 0.0434034 0.0430077 0.0546032 0.058795 0.0772687 0.071595 0.0618405 0.067552 0.0710884 0.0954991 0.0731849 0.0789423
38 2 Si -2.9517 7.47444 4.4844 2.4 1 0.0205331 0.0186763 0.0204214 0.0250941 0.0306582 0.0431626 0.0584668 0.0312853 0.0509128 0.0579326 0.0494683 0.0551146 0.0612047 0.0577754 0.0813375 0.0679792 0.0539004 0.0869231 0.0600505 0.0605033
39 3 O -3.00198 5.86121 4.4844 -1.2 1 0.0131941 0.0205781 0.0327376 0.0255711 0.0276888 0.0324103 0.0484298 0.0584019 0.0370184 0.0548702 0.0498588 0.0709362 0.058344 0.0534468 0.0618068 0.0684977 0.047489 0.0743657 0.0606804 0.0767543
40 3 O 0.666315 8.44846 4.4844 -1.2 1 0.0272033 0.0233759 0.0260652 0.0140267 0.0231119 0.0511796 0.0317046 0.0474681 0.0434702 0.0467263 0.042285 0.0516937 0.0468521 0.0719295 0.0989521 0.0685116 0.0801623 0.0482007 0.0683884 0.0748364
41 3 O -2.21213 8.18062 3.18632 -1.2 1 0.0134876 0.0106234 0.0217886 0.0162638 0.0157601 0.0383453 0.0448545 0.0590282 0.0442448 0.0574493 0.0533028 0.0525286 0.0537258 0.0455883 0.0780989 0.0628597 0.0731457 0.0580621 0.0672728 0.0720741
42 3 O -2.25864 8.18062 5.78248 -1.2 1 0.0146584 0.0115645 0.0197677 0.0242342 0.0206749 0.028073 0.0530327 0.0499799 0.0395995 0.0377493 0.0550348 0.0360619 0.0603806 0.058815 0.0828939 0.0677261 0.0730646 0.0607795 0.0676192 0.076323
43 1 Mg 1.20893 7.12349 2.9896 1.2 1 0.00299023 0.0202506 0.0236154 0.0251088 0.0263618 0.0357021 0.0415732 0.0472457 0.034723 0.0668171 0.0390933 0.0662339 0.0340096 0.0571021 0.0501145 0.0777499 0.0491992 0.0833715 0.0437728 0.0854652
44 1 Mg 4.00982 7.08218 4.4844 1.2 1 0.0200435 0.0163236 0.0194271 0.0346715 0.0326322 0.0353171 0.0418397 0.0371306 0.0460589 0.0522192 0.0559795 0.0538452 0.0738217 0.0687207 0.0553923 0.0664164 0.0654897 0.10195 0.0709526 0.0834276
45 2 Si 2.17861 9.14704 4.4844 2.4 1 0.0269114 0.0130618 0.0233163 0.0256386 0.0286261 0.0339761 0.060129 0.0271631 0.0484556 0.0549011 0.0541476 0.0588884 0.0657343 0.0579071 0.0752226 0.0649504 0.0522239 0.093535 0.0568263 0.0586983
46 3 O 2.18828 10.7603 4.4844 -1.2 1 0.0244563 0.015065 0.00831733 0.0211302 0.0244989 0.0228276 0.0428596 0.0607514 0.0390582 0.0522011 0.0380489 0.0697019 0.045714 0.0631561 0.0682896 0.0710183 0.0515678 0.0706613 0.0628228 0.0721969
47 3 O -4.43805 8.17302 4.4844 -1.2 1 0.015797 0.0215084 0.0140333 0.0148213 0.0240683 0.0538636 0.0373503 0.0507826 0.0420653 0.0474449 0.0364988 0.053166 0.0512384 0.0733421 0.0978426 0.0699062 0.0816567 0.0525331 0.0710748 0.074675
48 3 O 2.89193 8.44087 3.18632 -1.2 1 0.0244339 0.0187882 0.0189787 0.0121451 0.0192107 0.0375452 0.0337774 0.0532543 0.0413532 0.0554034 0.0567833 0.0502015 0.0514214 0.0491989 0.0790302 0.0628333 0.073232 0.0597368 0.0649378 0.0720621
49 1 Mg 1.25915 7.12349 0 1.2 1 0.019935 0.0152207 0.0248599 0.0146867 0.0319868 0.0256441 0.052495 0.0406513 0.0556585 0.0499262 0.0527547 0.0425139 0.0718059 0.0512776 0.0671773 0.0714855 0.0653568 0.0709191 0.0808649 0.0583699
50 3 O 2.84547 8.44087 5.78248 -1.2 1 0.0129475 0.0157837 0.0138297 0.0188577 0.0196079 0.0268114 0.0466757 0.0494955 0.0326657 0.0429162 0.0592136 0.0426181 0.0612318 0.0579196 0.0866079 0.0660574 0.0735189 0.0635336 0.0679188 0.0761902
51 1 Mg -1.59284 7.16481 1.4948 1.2 1 0.00870856 0.0190637 0.0201315 0.0244275 0.0175496 0.038418 0.0466688 0.0417772 0.042675 0.0580202 0.0376115 0.0674891 0.0535388 0.0684259 0.0757673 0.0614879 0.0645525 0.084671 0.074925 0.0766697
52 2 Si 0.240329 5.09994 1.4948 2.4 1 0.0216437 0.0201872 0.0146853 0.0437461 0.0273827 0.0409034 0.0471804 0.0518885 0.0552133 0.0495096 0.045716 0.0560598 0.0587834 0.0694979 0.0658454 0.0672357 0.0646951 0.0722934 0.0663207 0.0682481
53 3 O 0.234538 3.48671 1.4948 -1.2 1 0.0131786 0.0164254 0.0266004 0.0358954 0.0314249 0.0493562 0.0459189 0.0424754 0.0528618 0.0467615 0.0524152 0.0611702 0.056202 0.060814 0.062039 0.0627278 0.0623901 0.0570002 0.0760217 0.0732356
54 3 O 6.85564 6.07396 1.4948 -1.2 1 0.0363631 0.0183244 0.0329368 0.027598 0.0376243 0.041645 0.0314857 0.0615988 0.0373353 0.0543471 0.0543336 0.0523593 0.0536656 0.0733702 0.0690196 0.075979 0.0654345 0.0720003 0.0521466 0.0859573
55 3 O -0.429565 5.80612 0.196716 -1.2 1 0.0342167 0.0202407 0.0161374 0.0212273 0.0410382 0.0372945 0.0538141 0.0446822 0.0460521 0.0558804 0.0398574 0.041897 0.0533733 0.0597786 0.0602759 0.0679927 0.0701324 0.0612593 0.0651 0.0738355
56 3 O -0.473377 5.80612 2.79288 -1.2 1 0.029361 0.0239125 0.03061 0.0184552 0.0345093 0.0449971 0.048192 0.0483987 0.0526193 0.0475346 0.0635897 0.0378852 0.0409448 0.0563688 0.0659677 0.0705649 0.0631671 0.0679846 0.0685414 0.0829154
57 1 Mg 6.40169 9.49799 0 1.2 1 0.0107933 0.0127685 0.0244845 0.0149166 0.0297849 0.0206629 0.0500073 0.0354038 0.0587927 0.0493018 0.0502871 0.0363649 0.0665595 0.0532656 0.071995 0.0667104 0.064013 0.0706848 0.0799189 0.0679024
58 1 Mg 3.64209 14.2057 1.4948 1.2 1 0.0105168 0.0111197 0.018062 0.0164587 0.0214705 0.0337624 0.0357281 0.0435734 0.0413354 0.0552776 0.0392104 0.0668078 0.0532271 0.0660775 0.0740098 0.0633695 0.0645834 0.082407 0.0735162 0.0783222
59 2 Si 5.45748 11.5215 1.4948 2.4 1 0.0119654 0.0219721 0.0232487 0.0247929 0.0179869 0.0404282 0.0395575 0.0398015 0.0431657 0.0541427 0.0425477 0.0602926 0.0539105 0.0664209 0.0695304 0.0633083 0.0715697 0.0819401 0.0587477 0.067514
60 3 O 5.51101 13.1348 1.4948 -1.2 1 0.0256639 0.0153102 0.022444 0.0305068 0.0176943 0.0444036 0.0432277 0.058681 0.0357232 0.0486025 0.0441565 0.065997 0.0534966 0.0526125 0.064685 0.0584027 0.0710015 0.0573396 0.0686127 0.0729141
61 3 O 1.83851 10.5475 1.4948 -1.2 1 0.035133 0.0139361 0.0216252 0.014329 0.0364102 0.0306927 0.0361059 0.0590769 0.0403735 0.0484635 0.0497612 0.0509158 0.0467106 0.075086 0.075799 0.0800395 0.0566468 0.0758665 0.0573021 0.079411
62 3 O 4.7611 10.8154 0.196716 -1.2 1 0.0293611 0.0230572 0.0224616 0.0191742 0.0276979 0.0443002 0.0474152 0.0363719 0.0361925 0.0462979 0.0386268 0.0389982 0.0593821 0.0596151 0.0637019 0.0695053 0.0752132 0.0651294 0.072765 0.0692816
63 1 Mg 6.35203 9.49799 2.9896 1.2 1 0.0159668 0.0159571 0.0229685 0.0233725 0.0198191 0.0374749 0.0379832 0.0513779 0.0349033 0.0584214 0.032414 0.0658961 0.0285104 0.0658917 0.0476422 0.0807452 0.0454385 0.0895616 0.0471705 0.0916402
64 3 O 4.71833 10.8154 2.79288 -1.2 1 0.0341284 0.0104704 0.0297269 0.0188062 0.0318066 0.0446472 0.0432156 0.0442474 0.0438839 0.038806 0.0540543 0.0422486 0.0518336 0.0558721 0.0717787 0.0669531 0.0719538 0.0604315 0.068701 0.0817612
65 1 Mg -1.0438 9.53931 4.4844 1.2 1 0.00734625 0.0154317 0.0189887 0.0229863 0.0278526 0.0295003 0.0353306 0.0372226 0.0472485 0.0521724 0.0570787 0.0573957 0.0699878 0.0680093 0.0587504 0.0666915 0.0722957 0.100399 0.0725235 0.0851578
66 2 Si -2.8604 12.2234 4.4844 2.4 1 0.0194303 0.0169882 0.0198715 0.0220198 0.0299991 0.0409169 0.0561733 0.0311569 0.049237 0.0666117 0.0545773 0.0607441 0.0585357 0.0558614 0.0787095 0.0707098 0.0520401 0.0898037 0.0553584 0.0642211
67 3 O -2.91391 10.6102 4.4844 -1.2 1 0.0244744 0.00835225 0.00939502 0.0235163 0.0263586 0.0267039 0.0398826 0.0639853 0.0414601 0.0482582 0.0375582 0.0708646 0.0447137 0.0606865 0.0640287 0.0702822 0.0475855 0.0739628 0.060627 0.0741995
68 3 O 0.7596 13.1975 4.4844 -1.2 1 0.0223833 0.0256936 0.0184157 0.0130279 0.0233176 0.0499641 0.0334241 0.0509306 0.0465002 0.0486796 0.0412673 0.0509638 0.0488638 0.0721233 0.0986362 0.0588489 0.0747342 0.0521156 0.0719095 0.070112
69 3 O -2.12001 12.9296 3.18632 -1.2 1 0.0174088 0.00946682 0.0186916 0.0166968 0.0208799 0.0370253 0.042189 0.0545527 0.0464366 0.0513127 0.0541525 0.0482623 0.0560619 0.0495747 0.0803383 0.0629651 0.0715372 0.0632087 0.0654256 0.07008
70 3 O -2.16532 12.9296 5.78248 -1.2 1 0.0235117 0.0114744 0.0131257 0.0184616 0.0190382 0.0290828 0.0493585 0.0432245 0.0405412 0.0350211 0.0561272 0.0365455 0.0543745 0.0583433 0.0846453 0.0680827 0.0712218 0.0652717 0.0691079 0.0794304
71 1 Mg 1.29891 11.8725 2.9896 1.2 1 0.0125226 0.0146488 0.0255597 0.0227177 0.0185801 0.0368985 0.0376396 0.0509755 0.0340853 0.0608654 0.0338691 0.0602763 0.020889 0.0679999 0.0468495 0.0834892 0.047445 0.0902439 0.046073 0.0854595
72 1 Mg 4.10033 11.8312 4.4844 1.2 1 0.0171905 0.0251767 0.0157194 0.0260464 0.0320344 0.0318858 0.0429998 0.0363408 0.0465124 0.0501542 0.0560047 0.0533996 0.0659369 0.0702061 0.0537688 0.0695306 0.0711772 0.0946859 0.0741566 0.0762678
73 2 Si 2.27333 13.896 4.4844 2.4 1 0.0285917 0.0114835 0.0205672 0.0280538 0.0206693 0.0372116 0.0610755 0.0289955 0.0532894 0.0554556 0.054127 0.0575145 0.0634008 0.0545511 0.0743414 0.0699515 0.0477198 0.0957967 0.0542586 0.0545848
74 3 O 2.28634 15.5093 4.4844 -1.2 1 0.0259109 0.015402 0.00979012 0.0223199 0.0244121 0.0221346 0.0418517 0.0614264 0.0413308 0.0510737 0.0366305 0.0703231 0.0471913 0.0638626 0.0685895 0.0703642 0.0522382 0.0699029 0.0634918 0.0727879
75 3 O -4.34533 12.922 4.4844 -1.2 1 0.020275 0.0151367 0.023222 0.0171368 0.024934 0.0473824 0.0384632 0.047663 0.0435898 0.052003 0.0381992 0.0493031 0.0508194 0.0722319 0.100179 0.0740197 0.0764967 0.0500965 0.0728416 0.0739524
76 3 O 2.98455 13.1899 3.18632 -1.2 1 0.0292059 0.0143299 0.0199757 0.0108888 0.0178583 0.0393065 0.0380728 0.056376 0.0430378 0.0534772 0.0552795 0.0502553 0.0508824 0.0505572 0.0810868 0.0603375 0.0658407 0.0619974 0.0671876 0.0706976
77 1 Mg 1.34779 11.8725 0 1.2 1 0.0212299 0.0153341 0.0276997 0.013647 0.0291435 0.0192963 0.0510455 0.032994 0.0583833 0.050086 0.0492284 0.0364027 0.0629915 0.0503363 0.0699848 0.0638532 0.0605616 0.0700839 0.0866635 0.0604794
78 3 O 2.93934 13.1899 5.78248 -1.2 1 0.0235057 0.0127509 0.0236198 0.0196657 0.0180621 0.0247444 0.0496415 0.0420257 0.0408079 0.0402427 0.0585852 0.0355614 0.0524952 0.0563066 0.0819061 0.0654959 0.0697337 0.0610301 0.0650164 0.081311
79 1 Mg -1.50344 11.9138 1.4948 1.2 1 0.0171869 0.0187139 0.0206221 0.0195277 0.0121215 0.0370255 0.0392278 0.0415375 0.0409619 0.0609234 0.0347998 0.0642743 0.0500649 0.0652825 0.0743928 0.0692272 0.0653481 0.0839836 0.07517 0.0775318
80 2 Si 0.326006 9.84894 1.4948 2.4 1 0.0248981 0.0190582 0.0251642 0.0305138 0.0172662 0.0387598 0.0441205 0.037691 0.0446668 0.0564045 0.0402935 0.0590761 0.0547103 0.0671917 0.0606012 0.0642789 0.0700259 0.0792056 0.0617143 0.0684708
81 3 O 0.317364 8.23571 1.4948 -1.2 1 0.022301 0.0125831 0.0225644 0.0240041 0.0201519 0.0451436 0.0427781 0.0498071 0.0343644 0.0542238 0.0440943 0.0660212 0.0572519 0.0593738 0.0682711 0.0667871 0.0718631 0.0535266 0.073249 0.0743527
82 3 O 6.94307 10.823 1.4948 -1.2 1 0.0356756 0.0148499 0.0211584 0.0091993 0.0371363 0.0336362 0.0386904 0.0558935 0.0337338 0.0467793 0.0514206 0.0519888 0.0508959 0.0750308 0.0730082 0.0791915 0.062213 0.0734038 0.0580049 0.0804777
83 3 O -0.343122 10.5551 0.196716 -1.2 1 0.0221641 0.0187786 0.0207898 0.0234064 0.0319851 0.0426935 0.0503487 0.0405147 0.0366812 0.0472345 0.0389767 0.0371719 0.0601454 0.0600318 0.0688806 0.0696674 0.0832875 0.0540554 0.0687586 0.0707839
84 3 O -0.385966 10.5551 2.79288 -1.2 1 0.0310303 0.0178847 0.0287941 0.00901244 0.0305983 0.0419559 0.0460315 0.0424316 0.0454615 0.0389441 0.0528163 0.0445957 0.0477493 0.053958 0.0691251 0.0708975 0.0660976 0.0607961 0.070133 0.0792731
85 1 Mg 6.49448 14.247 0 1.2 1 0.0227027 0.0100957 0.0183168 0.0168766 0.0285722 0.0224828 0.0473294 0.0329841 0.0594603 0.047669 0.0517396 0.0371571 0.062955 0.05347 0.0708628 0.0657907 0.0637572 0.071184 0.0849441 0.0708775
86 1 Mg 3.74457 18.9547 1.4948 1.2 1 0.0191683 0.00905108 0.0159496 0.0179384 0.0254848 0.0293532 0.0316555 0.038543 0.0385431 0.0573506 0.0452174 0.0660645 0.0510307 0.0657673 0.0672087 0.0704373 0.0629341 0.0824282 0.0787886 0.0757672
87 2 Si 5.55495 16.2705 1.4948 2.4 1 0.0109395 0.0218393 0.0201399 0.0271724 0.0176964 0.0428182 0.0369548 0.040441 0.0466292 0.0530037 0.043826 0.0608116 0.0540147 0.0642169 0.0701672 0.0592621 0.0732182 0.0788762 0.0608095 0.0700858
88 3 O 5.6115 17.8838 1.4948 -1.2 1 0.0269293 0.0182589 0.0234257 0.0257298 0.0193065 0.043654 0.0450657 0.0609985 0.0369569 0.05002 0.0379154 0.0669171 0.0512581 0.056409 0.0646058 0.0569529 0.0657633 0.0614809 0.063261 0.0691472
89 3 O 1.93416 15.2965 1.4948 -1.2 1 0.0371177 0.0146656 0.0218294 0.0129627 0.0350312 0.0301513 0.0360569 0.0593709 0.043254 0.0473901 0.0485101 0.0509157 0.0460353 0.0732086 0.0806728 0.0774571 0.0584217 0.0738161 0.062451 0.0766231
90 3 O 4.85636 15.5644 0.196716 -1.2 1 0.0225158 0.0120089 0.0214161 0.019312 0.0252639 0.0513991 0.0494883 0.0396631 0.0395697 0.0447381 0.0371748 0.0325456 0.0632777 0.0541227 0.0672705 0.0675563 0.0757498 0.0629346 0.0727857 0.0680578
91 1 Mg 6.44662 14.247 2.9896 1.2 1 0.0162681 0.0193178 0.0204374 0.0211797 0.0192787 0.0345414 0.0375701 0.0539068 0.0345678 0.0568513 0.0345225 0.0635622 0.0242778 0.0655372 0.0460752 0.0805558 0.0480798 0.0915332 0.0427272 0.0914578
92 3 O 4.81537 15.5644 2.79288 -1.2 1 0.0185662 0.00768181 0.0273454 0.0136224 0.0279428 0.0379013 0.0461981 0.0469481 0.0456205 0.0382863 0.051927 0.0430558 0.0520159 0.0557017 0.0747368 0.0651744 0.075936 0.0540686 0.0729858 0.0755146
93 1 Mg -0.948271 14.2883 4.4844 1.2 1 0.0172889 0.0111288 0.0163377 0.0276682 0.0229766 0.0267386 0.0369932 0.0333763 0.046935 0.0453125 0.0595654 0.0542004 0.0637337 0.069814 0.0570413 0.0722196 0.0707122 0.0925091 0.0726394 0.0830892
94 2 Si -2.75928 16.9724 4.4844 2.4 1 0.0182277 0.0169008 0.0221506 0.0235919 0.0293436 0.0401932 0.0568746 0.0312207 0.0527379 0.0673272 0.0513773 0.059386 0.0564636 0.052999 0.0775346 0.0712084 0.0508057 0.0936169 0.0567266 0.0634014
95 3 O -2.81617 15.3592 4.4844 -1.2 1 0.0146326 0.0123838 0.0148864 0.0246213 0.030221 0.0223648 0.0407577 0.0628441 0.0421947 0.0511392 0.0402612 0.0746389 0.0479556 0.0597785 0.0664255 0.0720961 0.0483884 0.0732465 0.0667481 0.0764423
96 3 O 0.862762 17.9465 4.4844 -1.2 1 0.0185755 0.0247379 0.0207627 0.0170706 0.0194706 0.0489609 0.036042 0.0520685 0.0439909 0.0535674 0.0398727 0.0464764 0.0444585 0.0721591 0.106069 0.0571931 0.0694245 0.0566833 0.0762612 0.0701763
97 3 O -2.0185 17.6786 3.18632 -1.2 1 0.0190494 0.00993588 0.0179997 0.015761 0.0192732 0.0390879 0.0420821 0.0573814 0.0437661 0.0517817 0.0550211 0.048932 0.0562819 0.049466 0.0812895 0.0618065 0.0695052 0.0654621 0.06271 0.0689165
98 3 O -2.06164 17.6786 5.78248 -1.2 1 0.0191233 0.00669548 0.0206196 0.0234428 0.0157266 0.036288 0.0464475 0.0456765 0.0410975 0.0383024 0.0575067 0.0363889 0.0576025 0.0602169 0.080968 0.0673947 0.0700076 0.0631988 0.0727216 0.0810093
99 1 Mg 1.39817 16.6215 2.9896 1.2 1 0.00326056 0.0164692 0.0152644 0.0187197 0.0190228 0.0350569 0.0373106 0.0533095 0.0375064 0.0599448 0.036809 0.0560417 0.0239644 0.0669198 0.0466276 0.0789346 0.0481961 0.0921675 0.0480295 0.0899933
100 1 Mg 4.20062 16.5802 4.4844 1.2 1 0.0194276 0.0114732 0.0149352 0.0271759 0.0322205 0.0252469 0.0440509 0.0317494 0.0473585 0.0526223 0.0549489 0.0566314 0.0649733 0.0690229 0.0532925 0.0717388 0.0673362 0.0951948 0.0730283 0.0742153
101 2 Si 2.37796 18.645 4.4844 2.4 1 0.0277217 0.0100065 0.0245018 0.0263872 0.0279726 0.0366475 0.0585634 0.0337733 0.054824 0.0584328 0.0494879 0.0656915 0.0616041 0.0568589 0.0726115 0.0682047 0.0488039 0.0977732 0.0508706 0.0565206
102 3 O 2.39434 20.2583 4.4844 -1.2 1 0.022024 0.011169 0.00744642 0.0153725 0.0239411 0.0229846 0.0396116 0.057538 0.0400778 0.0495298 0.0428812 0.0748037 0.0512133 0.0623909 0.0734819 0.0669134 0.0511294 0.0695184 0.0674461 0.0771603
103 3 O -4.24274 17.671 4.4844 -1.2 1 0.0267227 0.0214691 0.0171723 0.0169088 0.0223801 0.0498345 0.0342171 0.0484867 0.0449504 0.0527275 0.040625 0.0502687 0.0485771 0.0717356 0.0973207 0.0622704 0.0720808 0.0521674 0.0796881 0.0690347
104 3 O 3.08659 17.9389 3.18632 -1.2 1 0.0318895 0.0162348 0.0212222 0.00975833 0.0160334 0.0377441 0.0363668 0.0547404 0.0445758 0.0507136 0.0543467 0.0482609 0.0515525 0.0478547 0.081043 0.0585355 0.0663166 0.0618728 0.0664597 0.0673953
105 1 Mg 1.44478 16.6215 0 1.2 1 0.00971625 0.0119679 0.0215065 0.0130423 0.0266357 0.0314558 0.0477997 0.0354093 0.05066 0.0503911 0.0519622 0.03987 0.0589062 0.0496246 0.0696874 0.0658967 0.0598111 0.068125 0.0888887 0.063607
106 3 O 3.0436 17.9389 5.78248 -1.2 1 0.0255903 0.0143161 0.0204424 0.0223062 0.0196533 0.0254862 0.0467774 0.0444089 0.0415953 0.0387912 0.058807 0.0373777 0.0552647 0.0538687 0.0838015 0.0628723 0.0650844 0.0643903 0.06277 0.0810561
107 1 Mg -1.40524 16.6628 1.4948 1.2 1 0.0114206 0.0139398 0.0261541 0.0202941 0.0182172 0.0352558 0.0361701 0.041961 0.0409113 0.0591242 0.0414488 0.0651224 0.0551785 0.0637248 0.0715875 0.0710618 0.0634038 0.0783066 0.0794063 0.0756384
108 2 Si 0.420358 14.5979 1.4948 2.4 1 0.0207812 0.0195245 0.0272229 0.0268482 0.0182941 0.0391212 0.0399126 0.0397035 0.0458741 0.0556741 0.0440618 0.0598754 0.0574386 0.0636284 0.0681696 0.0595473 0.0719777 0.0766277 0.0616882 0.0712452
109 3 O 0.408732 12.9847 1.4948 -1.2 1 0.0220973 0.0153974 0.0226962 0.0256188 0.0166837 0.0469642 0.0439825 0.0539831 0.0365056 0.0532529 0.0419927 0.0695758 0.0527316 0.0562616 0.0651481 0.0646994 0.0710038 0.0550875 0.0683658 0.0726367
110 3 O 7.03923 15.572 1.4948 -1.2 1 0.038285 0.0201018 0.0219978 0.0120848 0.0365143 0.0314135 0.0379526 0.052527 0.035922 0.0431012 0.0519965 0.052767 0.0491112 0.073043 0.0763762 0.0768128 0.0644263 0.06962 0.0621798 0.0766338
111 3 O -0.248332 15.3041 0.196716 -1.2 1 0.0180704 0.0138111 0.0234467 0.0206623 0.0247714 0.0467342 0.0501827 0.0429532 0.0389367 0.0461469 0.0371384 0.0304091 0.0619231 0.0538077 0.0688407 0.0650984 0.0815299 0.0505356 0.0691685 0.0725782
112 3 O -0.289436 15.3041 2.79288 -1.2 1 0.0192112 0.019527 0.0266656 0.00847112 0.0289677 0.0364926 0.0447781 0.0456706 0.0440012 0.0408428 0.0525403 0.0491594 0.0492801 0.053006 0.0716678 0.0688317 0.0707589 0.0549246 0.0691055 0.0761401
113 1 Mg 6.59566 18.996 0 1.2 1 0.013013 0.0136854 0.0190072 0.0151967 0.0237885 0.0312908 0.0457395 0.0342481 0.0535319 0.0514177 0.0523484 0.0405166 0.0526444 0.0539027 0.0733097 0.0647046 0.0645933 0.0639758 0.0867604 0.0696526
114 1 Mg 3.85574 23.7037 1.4948 1.2 1 0.0120669 0.0161123 0.0193572 0.013708 0.0212042 0.0285355 0.0330204 0.0353284 0.0378541 0.0602386 0.0456895 0.0633326 0.0497663 0.0677822 0.0639329 0.0746027 0.0664596 0.0791121 0.0789231 0.0755947
115 2 Si 5.66125 21.0195 1.4948 2.4 1 0.00826938 0.0244347 0.0233326 0.0275514 0.0191357 0.0464154 0.0337059 0.041585 0.0488496 0.0544707 0.0450789 0.0613804 0.0557281 0.0594605 0.0712485 0.0608124 0.073916 0.0768869 0.0652681 0.0752906
116 3 O 5.72074 22.6328 1.4948 -1.2 1 0.0282479 0.0193961 0.0186063 0.0225213 0.0191582 0.0450137 0.0451984 0.0616803 0.0375005 0.0519222 0.032807 0.0699003 0.0497879 0.0539599 0.0691032 0.056096 0.065225 0.0675462 0.0568556 0.0707901
117 3 O 2.03867 20.0455 1.4948 -1.2 1 0.0343613 0.0163765 0.0255657 0.0134773 0.0339989 0.0315376 0.0359126 0.0541316 0.0433448 0.0423443 0.0508167 0.0503816 0.0471439 0.0733523 0.0838266 0.0718688 0.0627117 0.0676623 0.0639025 0.0718322
118 3 O 4.96004 20.3134 0.196716 -1.2 1 0.0242684 0.0103563 0.0243032 0.0197414 0.0223193 0.045627 0.0450288 0.0479452 0.0403985 0.0422144 0.0404013 0.0353566 0.0653397 0.0476124 0.0697943 0.0736677 0.0703717 0.0582135 0.0704179 0.0714581
119 1 Mg 6.55057 18.996 2.9896 1.2 1 0.00889902 0.0151383 0.0182958 0.0196255 0.0210134 0.0344214 0.0371016 0.0573596 0.0324241 0.0591499 0.0338684 0.0620628 0.0241064 0.0706046 0.0446103 0.074074 0.0470255 0.096982 0.0435305 0.0938506
120 3 O 4.92172 20.3134 2.79288 -1.2 1 0.0157896 0.010048 0.0282586 0.0148379 0.0291466 0.0412994 0.0459186 0.047348 0.0459365 0.0411269 0.0532133 0.0407589 0.0527522 0.0505184 0.0752644 0.0676036 0.0755113 0.0489533 0.0702851 0.0718841
121 1 Mg -0.84282 19.0373 4.4844 1.2 1 0.010722 0.0124668 0.00967292 0.0258476 0.0241369 0.0267614 0.0391092 0.0305875 0.045214 0.0479026 0.0582895 0.0545262 0.0654713 0.0685645 0.0576607 0.0771268 0.0733432 0.0911815 0.0730539 0.0783562
122 2 Si -2.64823 21.7214 4.4844 2.4 1 0.0165112 0.0164898 0.0203321 0.0218503 0.0289293 0.0408931 0.0533066 0.0332158 0.0492251 0.0670055 0.0515827 0.0660487 0.0593513 0.0528161 0.0762271 0.072173 0.0480212 0.0956167 0.0513684 0.0671799
123 3 O -2.70847 20.1082 4.4844 -1.2 1 0.012846 0.020986 0.013189 0.0246272 0.0257277 0.0242382 0.0387863 0.0620921 0.043782 0.0473327 0.041028 0.0714939 0.051095 0.0590012 0.0672675 0.0645621 0.054482 0.0718755 0.0696866 0.0774655
124 3 O 0.97581 22.6955 4.4844 -1.2 1 0.0163094 0.023119 0.0202997 0.015894 0.0178331 0.0449768 0.0316973 0.0515978 0.0437741 0.0524751 0.0436064 0.0484223 0.0488822 0.0740504 0.103732 0.0530814 0.06613 0.0559602 0.072791 0.0657425
125 3 O -1.9076 22.4276 3.18632 -1.2 1 0.0250113 0.0100705 0.0198964 0.016641 0.0139416 0.035448 0.0436899 0.0528167 0.0386072 0.0493565 0.053223 0.0506414 0.0558305 0.0478109 0.0805213 0.0578599 0.0684273 0.0658915 0.0653117 0.0679308
126 3 O -1.9475 22.4276 5.78248 -1.2 1 0.0185336 0.0105679 0.0186386 0.0155749 0.0142824 0.0283306 0.0438138 0.0472627 0.0362703 0.04091 0.053609 0.0392875 0.054589 0.0587122 0.0793472 0.0701818 0.0655442 0.060277 0.0707118 0.0721544