ITEM: TIMESTEP
82500
ITEM: NUMBER OF ATOMS
10500
ITEM: BOX BOUNDS xy xz yz pp pp pp
0	15.2977	5.09925
0	118.725	0
0	89.688	0
ITEM: ATOMS id type element xu yu zu q Q_1 Q_2 Q_3 Q_4 Q_5 Q_6 Q_7 Q_8 Q_9 Q_10 Q_11 Q_12 Q_13 Q_14 Q_15 Q_16 Q_17 Q_18 Q_19 Q_20 Q_21
1 1 Mg 6.2404 -6.37941e-06 0 1.2 1 0.0132652 0.041084 0.0296792 0.0359675 0.0331249 0.0411085 0.0355565 0.0686641 0.0389178 0.0713318 0.0337455 0.0592685 0.0460674 0.068376 0.0501138 0.0920579 0.0513885 0.0839923 0.050959 0.102321
2 1 Mg 3.46349 4.70768 1.4948 1.2 1 0.0124372 0.016169 0.0252505 0.0235701 0.0199374 0.0413463 0.043779 0.0411094 0.0483033 0.0561585 0.0427667 0.069885 0.0577552 0.0698388 0.0731735 0.0642251 0.0666464 0.085247 0.0732777 0.0822965
3 2 Si 5.2885 2.02354 1.4948 2.4 1 0.0218376 0.0224797 0.0366973 0.0255884 0.0308437 0.0365315 0.0534908 0.0335042 0.0443196 0.0520581 0.0555663 0.0618513 0.0556679 0.063833 0.0683054 0.0793908 0.0708969 0.0649475 0.06361 0.0731696
4 3 O 5.33628 3.63678 1.4948 -1.2 1 0.0112737 0.012618 0.0252463 0.0278402 0.0200046 0.0389965 0.0415871 0.0598577 0.0340918 0.0406333 0.0557344 0.0497537 0.0666281 0.0566394 0.0570422 0.0649004 0.05886 0.0616288 0.0710248 0.0741203
5 3 O 1.67294 1.04952 1.4948 -1.2 1 0.0161766 0.0215929 0.0230487 0.0356993 0.0296546 0.038978 0.0339743 0.0613535 0.0345798 0.0601375 0.0437969 0.050701 0.0717189 0.0592523 0.0762292 0.0693288 0.0628766 0.064639 0.0787097 0.0605571
6 3 O 4.59532 1.31737 0.196716 -1.2 1 0.0258523 0.0222286 0.0575219 0.0252845 0.0334093 0.0488001 0.038689 0.0475262 0.0340069 0.0395255 0.0384533 0.0507232 0.0542503 0.0569684 0.0637073 0.0700165 0.0619596 0.0713103 0.0592593 0.0704403
7 1 Mg 6.18956 -6.37941e-06 2.9896 1.2 1 0.00581987 0.0268692 0.0159128 0.0220914 0.0360695 0.0419332 0.0498406 0.0383486 0.0484866 0.0443074 0.0402205 0.0565423 0.0399328 0.0549978 0.0572262 0.0796216 0.0571667 0.0686671 0.057488 0.0696264
8 3 O 4.55118 1.31737 2.79288 -1.2 1 0.0213337 0.0247309 0.0360262 0.0169531 0.0265891 0.0443071 0.044752 0.0486715 0.0449421 0.0530524 0.0538561 0.0513173 0.0479198 0.0671154 0.0532897 0.0671396 0.064042 0.0661954 0.0637772 0.0731929
9 1 Mg -1.20682 0.0413099 4.4844 1.2 1 0.0171551 0.0267421 0.022433 0.0271813 0.0375636 0.0408414 0.0340525 0.0530298 0.0558174 0.0408317 0.0455551 0.0612051 0.067234 0.0546467 0.073019 0.0601327 0.080543 0.0734778 0.0629993 0.0535016
10 2 Si -3.0337 2.72544 4.4844 2.4 1 0.036692 0.0191278 0.0240572 0.0132768 0.0331158 0.0415675 0.0583508 0.0367512 0.0602587 0.0517097 0.0479355 0.0598923 0.0572193 0.0771977 0.0557361 0.0581115 0.0745507 0.0778091 0.0696381 0.0612075
11 3 O -3.08099 1.11221 4.4844 -1.2 1 0.0180573 0.0197459 0.0281852 0.0218418 0.0401924 0.0273901 0.0519649 0.0454904 0.0415734 0.0407229 0.0421951 0.0733697 0.0539301 0.051148 0.0566557 0.0665842 0.0541636 0.0807419 0.072565 0.072658
12 3 O 0.582463 3.69946 4.4844 -1.2 1 0.0116342 0.0196536 0.0280398 0.0254363 0.0283945 0.0607195 0.0276847 0.0540305 0.0480588 0.0389765 0.0501896 0.0535645 0.0588295 0.0676434 0.0977259 0.067068 0.0813068 0.0424753 0.0669876 0.0664457
13 3 O -2.29524 3.43162 3.18632 -1.2 1 0.0097875 0.018841 0.0283432 0.0310652 0.0206016 0.0507546 0.0534221 0.0501625 0.0429241 0.0520062 0.0597141 0.0531841 0.0421898 0.0518828 0.0587759 0.0651965 0.0678921 0.0611041 0.0650141 0.0713458
14 3 O -2.34216 3.43162 5.78248 -1.2 1 0.0197023 0.0128705 0.0236533 0.0293617 0.0263787 0.0400782 0.0550287 0.0431821 0.0423125 0.0557143 0.0592323 0.0429553 0.0544677 0.0477232 0.0736507 0.0754159 0.0683436 0.0672525 0.0765458 0.0724706
15 1 Mg 1.12778 2.37449 2.9896 1.2 1 0.0151705 0.0394457 0.0170735 0.0235134 0.0252039 0.0428011 0.0408071 0.0510928 0.0365465 0.0608345 0.0366976 0.0585852 0.0405128 0.0677707 0.0625224 0.0710954 0.0679264 0.0827179 0.0458673 0.0874493
16 1 Mg 3.92855 2.33318 4.4844 1.2 1 0.0281471 0.0153922 0.0240535 0.0300102 0.0432581 0.0251992 0.038548 0.0368576 0.04701 0.0688704 0.0504079 0.0591772 0.0497038 0.0620527 0.0540117 0.0749267 0.0633574 0.0931193 0.0743182 0.0872233
17 2 Si 2.09341 4.39804 4.4844 2.4 1 0.0134953 0.0202018 0.033973 0.0144795 0.0418217 0.0268568 0.0637724 0.0220227 0.0440104 0.0473266 0.0625609 0.0617883 0.0657776 0.0584838 0.0721794 0.0737951 0.0688449 0.0783007 0.0526452 0.0659086
18 3 O 2.09991 6.01128 4.4844 -1.2 1 0.0114589 0.00889123 0.0153199 0.0183091 0.032435 0.0243404 0.0507567 0.0515331 0.0467454 0.0441976 0.0454072 0.0668678 0.0476564 0.0605497 0.0628414 0.0693343 0.0437214 0.0796734 0.0599596 0.0700707
19 3 O -4.52137 3.42402 4.4844 -1.2 1 0.0197337 0.0247114 0.037794 0.0228052 0.0282749 0.0544104 0.0363792 0.0466137 0.0524637 0.0553524 0.0322386 0.054174 0.0525868 0.0546529 0.0907643 0.0746819 0.0751087 0.0606525 0.0735382 0.0565233
20 3 O 2.80834 3.69187 3.18632 -1.2 1 0.00930697 0.0173148 0.0200537 0.0250059 0.0215517 0.0383025 0.0357482 0.0514413 0.0445476 0.0576514 0.0677989 0.0523303 0.042128 0.064549 0.0701986 0.0727771 0.0622375 0.0567199 0.0693441 0.0720009
21 1 Mg 1.17857 2.37449 0 1.2 1 0.0143051 0.0370646 0.0289205 0.0286396 0.036106 0.0387813 0.0426723 0.0588817 0.0353397 0.0490511 0.0527549 0.0410308 0.0434078 0.0669519 0.0547193 0.0656044 0.0602459 0.0806531 0.0579299 0.0728367
22 3 O 2.76143 3.69187 5.78248 -1.2 1 0.0131233 0.0181267 0.0220751 0.0255853 0.0208635 0.0339868 0.0407069 0.0472349 0.0374402 0.0462973 0.0546946 0.0427986 0.0535261 0.0782482 0.0729937 0.0601465 0.0712199 0.05564 0.0684619 0.0758981
23 1 Mg -1.67381 2.41581 1.4948 1.2 1 0.0114004 0.0116078 0.0371055 0.0362935 0.0325926 0.0439677 0.0590788 0.0402259 0.0511407 0.0408065 0.0462329 0.058943 0.0549404 0.0638143 0.061179 0.0644908 0.0833116 0.0778428 0.0664037 0.0740675
24 2 Si 0.16286 0.350945 1.4948 2.4 1 0.0161933 0.0357546 0.0277507 0.0278713 0.0341051 0.0356001 0.0556654 0.0486985 0.0528773 0.0494226 0.0396913 0.0560569 0.0725787 0.0703296 0.0598125 0.07468 0.0728115 0.0644528 0.0725527 0.0667252
25 3 O 0.15972 -1.26229 1.4948 -1.2 1 0.00927639 0.0150922 0.039804 0.0212254 0.0377606 0.0359356 0.0455123 0.0571977 0.0467721 0.0515559 0.0555563 0.0549746 0.0629648 0.0663232 0.0502337 0.0593882 0.0697 0.0664138 0.0624434 0.074109
26 3 O 6.77654 1.32496 1.4948 -1.2 1 0.0170884 0.0267256 0.02459 0.0264958 0.0354282 0.0527174 0.034819 0.062254 0.0505659 0.0453405 0.0442902 0.0509939 0.0528681 0.0607958 0.0686835 0.069916 0.0830963 0.0629591 0.0591823 0.0732372
27 3 O -0.508028 1.05712 0.196716 -1.2 1 0.0247363 0.0190363 0.029735 0.0204246 0.0291506 0.053385 0.0438914 0.0445385 0.0472868 0.0481828 0.0502565 0.0477356 0.0494114 0.0635887 0.0550261 0.0632925 0.0637311 0.0587503 0.0718163 0.0718145
28 3 O -0.552171 1.05712 2.79288 -1.2 1 0.0427549 0.0300385 0.039306 0.0346596 0.0294645 0.0470631 0.041522 0.0497086 0.038777 0.0400529 0.0489471 0.0504579 0.0623115 0.0570469 0.0629475 0.0763294 0.0685805 0.0503035 0.0717652 0.0701023
29 1 Mg 6.31713 4.74899 0 1.2 1 0.0273651 0.0293198 0.0304025 0.0367801 0.0324138 0.0269009 0.0419876 0.0559374 0.0585231 0.0495664 0.0508817 0.0383239 0.0593552 0.0613572 0.0655644 0.063688 0.0659419 0.0734313 0.069929 0.0700406
30 1 Mg 3.54847 9.45668 1.4948 1.2 1 0.0171005 0.016016 0.0173411 0.0190446 0.0187533 0.038413 0.0384161 0.0422946 0.0449602 0.0567195 0.0376743 0.0682957 0.0531066 0.0655908 0.074829 0.0620867 0.0669669 0.0878894 0.0738461 0.0797288
31 2 Si 5.36879 6.77254 1.4948 2.4 1 0.0290197 0.0270429 0.0239388 0.025654 0.0246677 0.0350732 0.0444182 0.0362795 0.0450593 0.0572743 0.0421397 0.0586347 0.0530147 0.0663494 0.0655292 0.0743712 0.0671271 0.0791585 0.055902 0.0683324
32 3 O 5.41937 8.38578 1.4948 -1.2 1 0.0214119 0.0113717 0.0234385 0.0296972 0.0173995 0.0431844 0.0443595 0.0572937 0.0367534 0.0508074 0.0474348 0.0644881 0.0550755 0.0533573 0.0657533 0.0611276 0.0729806 0.0557641 0.0733867 0.0734094
33 3 O 1.75158 5.79852 1.4948 -1.2 1 0.0284725 0.012312 0.0223997 0.0265451 0.0441063 0.0306869 0.0393742 0.0569763 0.0406029 0.0527729 0.0495221 0.0508381 0.0475307 0.0709162 0.0783432 0.0785401 0.0605094 0.0751234 0.0599592 0.0766588
34 3 O 4.67421 6.06637 0.196716 -1.2 1 0.0145546 0.0264924 0.0315228 0.0242746 0.0320454 0.0378464 0.0345259 0.0322543 0.04475 0.0562587 0.039302 0.0442745 0.0667025 0.0559898 0.0677441 0.0709678 0.071367 0.0658694 0.0632784 0.0682463
35 1 Mg 6.26654 4.74899 2.9896 1.2 1 0.0184478 0.0282333 0.025784 0.0406394 0.0262943 0.0434584 0.0486607 0.0484377 0.034979 0.0633192 0.0369898 0.058969 0.0392753 0.0631637 0.0524283 0.0774951 0.0561472 0.0839872 0.0455804 0.0892408
36 3 O 4.63043 6.06637 2.79288 -1.2 1 0.0187374 0.0195923 0.0416653 0.0190985 0.0319889 0.0370595 0.0433019 0.0486048 0.0455287 0.0367999 0.0489935 0.0522953 0.057321 0.0660147 0.0617054 0.0732464 0.0652575 0.0679151 0.0670524 0.0846438
37 1 Mg -1.12976 4.79031 4.4844 1.2 1 0.0178953 0.0254396 0.016481 0.0168736 0.0398389 0.0382032 0.0503944 0.0503366 0.0464902 0.0393503 0.0579082 0.0585592 0.0755935 0.0660917 0.0623194 0.0684084 0.0704285 0.0954688 0.0703611 0.0810913
38 2 Si -2.9517 7.47444 4.4844 2.4 1 0.0218085 0.0168752 0.018494 0.0247544 0.0342105 0.0411129 0.0624415 0.0274271 0.0530477 0.0592928 0.049596 0.0541765 0.0595351 0.0577734 0.0791246 0.0712011 0.0550725 0.0865868 0.0616252 0.0612256
39 3 O -3.00198 5.86121 4.4844 -1.2 1 0.00904636 0.0194793 0.0327872 0.0284586 0.033134 0.0304856 0.0526926 0.060104 0.0395116 0.0509067 0.0497942 0.0716789 0.055751 0.0543754 0.062155 0.0724195 0.0440249 0.0738166 0.0589182 0.0784397
40 3 O 0.666315 8.44846 4.4844 -1.2 1 0.0118481 0.0205865 0.0262127 0.0175787 0.0209058 0.0533896 0.0297091 0.0507809 0.0447098 0.0485488 0.0410873 0.0511999 0.0487439 0.0754657 0.100665 0.0695246 0.0772811 0.0496727 0.070178 0.0710665
41 3 O -2.21213 8.18062 3.18632 -1.2 1 0.0172253 0.0100454 0.0204794 0.0164731 0.0153367 0.0350236 0.0448578 0.056808 0.0424838 0.056416 0.0533354 0.052193 0.0537401 0.04805 0.0769323 0.0609219 0.073325 0.0594744 0.0674115 0.0709191
42 3 O -2.25864 8.18062 5.78248 -1.2 1 0.00946785 0.0153989 0.0232761 0.0263042 0.0241571 0.0266734 0.0539216 0.0448431 0.0408814 0.0356406 0.0542784 0.0364284 0.0606257 0.0594506 0.0841767 0.0682975 0.0683494 0.0628955 0.0694969 0.0781042
43 1 Mg 1.20893 7.12349 2.9896 1.2 1 0.00772623 0.0225584 0.0187339 0.0248243 0.0239782 0.039423 0.0428396 0.0465604 0.0341778 0.0660165 0.0393294 0.0670001 0.0361089 0.0583593 0.0515584 0.0796766 0.0508292 0.0845396 0.04808 0.0872161
44 1 Mg 4.00982 7.08218 4.4844 1.2 1 0.0199366 0.0205255 0.0236639 0.036825 0.0364882 0.0304374 0.0493742 0.0348073 0.0484795 0.0505313 0.0596666 0.0548905 0.0721328 0.0712255 0.0568898 0.0662043 0.0614711 0.0978521 0.0713787 0.0809001
45 2 Si 2.17861 9.14704 4.4844 2.4 1 0.0299227 0.0114578 0.02271 0.0205672 0.0288452 0.0355411 0.0606291 0.0244258 0.0513851 0.0551476 0.0542894 0.0618806 0.0638309 0.0611864 0.0791925 0.0686986 0.0497205 0.0931472 0.0527414 0.057185
46 3 O 2.18828 10.7603 4.4844 -1.2 1 0.0203888 0.0117392 0.00458606 0.0200774 0.0256407 0.0248941 0.0423113 0.0619341 0.0420576 0.053829 0.039939 0.0718682 0.0474338 0.0646671 0.070216 0.0737237 0.0459612 0.0711065 0.0626518 0.0719455
47 3 O -4.43805 8.17302 4.4844 -1.2 1 0.0167138 0.0224285 0.0145907 0.0162399 0.0212362 0.0575648 0.0338213 0.0494021 0.0436158 0.0482634 0.0367704 0.052331 0.0547662 0.0711155 0.0974271 0.0668773 0.0794291 0.0556562 0.0744992 0.0753688
48 3 O 2.89193 8.44087 3.18632 -1.2 1 0.0177392 0.0196876 0.0179898 0.0174466 0.022733 0.0400282 0.0364245 0.053976 0.044968 0.0504475 0.0592007 0.0498566 0.0523255 0.0517112 0.0801287 0.0637712 0.071773 0.0577432 0.06637 0.0725506
49 1 Mg 1.25915 7.12349 0 1.2 1 0.0232812 0.0129488 0.0255774 0.0147044 0.0328275 0.0250442 0.0511278 0.0416874 0.0562664 0.0487902 0.0529164 0.042792 0.0710809 0.0519182 0.0692353 0.0695989 0.0650509 0.0707356 0.0814668 0.0576469
50 3 O 2.84547 8.44087 5.78248 -1.2 1 0.00867403 0.013358 0.0150744 0.022807 0.0235926 0.0289322 0.0462581 0.0478377 0.0413929 0.0395865 0.0602299 0.0401894 0.0594582 0.0603561 0.0846304 0.0637019 0.0725964 0.0595881 0.0611812 0.0769445
51 1 Mg -1.59284 7.16481 1.4948 1.2 1 0.00804818 0.0229581 0.0197426 0.0235942 0.0164259 0.037713 0.0473641 0.0434494 0.044175 0.0568742 0.0378702 0.0658595 0.0543616 0.0694237 0.0772088 0.060854 0.0654701 0.0841778 0.0751611 0.0790482
52 2 Si 0.240329 5.09994 1.4948 2.4 1 0.0246586 0.0173796 0.0159036 0.0434103 0.0271752 0.0405592 0.0467204 0.0532825 0.0551556 0.0487168 0.0456168 0.057815 0.0590663 0.0678339 0.0655391 0.0664389 0.0640294 0.0728402 0.0661763 0.068231
53 3 O 0.234538 3.48671 1.4948 -1.2 1 0.0131298 0.0163787 0.0265684 0.0358541 0.0314523 0.0492212 0.0461221 0.0425556 0.0530545 0.047097 0.0522443 0.0614418 0.0556887 0.0608821 0.0612275 0.0627025 0.062993 0.0569956 0.0759756 0.074214
54 3 O 6.85564 6.07396 1.4948 -1.2 1 0.0325143 0.0196204 0.0345015 0.0274886 0.0372706 0.0403328 0.0323827 0.0627921 0.0362609 0.0535908 0.0540576 0.0541033 0.0549932 0.0726794 0.0696023 0.0769387 0.0662888 0.0720066 0.0529011 0.0847965
55 3 O -0.429565 5.80612 0.196716 -1.2 1 0.0340081 0.0199516 0.0156886 0.0211117 0.0409908 0.0375491 0.0538679 0.0452542 0.04611 0.0564273 0.0397731 0.0420599 0.0535815 0.0600188 0.0598553 0.0682449 0.0702392 0.0611572 0.0651357 0.0738933
56 3 O -0.473377 5.80612 2.79288 -1.2 1 0.0249457 0.0209242 0.0342907 0.0186368 0.0347343 0.0462108 0.0493662 0.0486609 0.0552228 0.0457901 0.0624492 0.0384201 0.04321 0.0592075 0.066673 0.0716262 0.0660256 0.0685546 0.071268 0.0799513
57 1 Mg 6.40169 9.49799 0 1.2 1 0.0127377 0.011814 0.0211385 0.0141141 0.0305604 0.0209949 0.052302 0.0354475 0.0587931 0.0492237 0.0500358 0.0354389 0.066943 0.0523888 0.0711142 0.066948 0.0653963 0.0703972 0.0809571 0.0686218
58 1 Mg 3.64209 14.2057 1.4948 1.2 1 0.0105893 0.0109538 0.0180114 0.0167656 0.0214832 0.0337742 0.035697 0.0438805 0.0415669 0.0557713 0.0391774 0.0656853 0.0530819 0.0659757 0.074224 0.0628482 0.0652722 0.0828486 0.0739344 0.0781593
59 2 Si 5.45748 11.5215 1.4948 2.4 1 0.0119027 0.0218247 0.0233073 0.0249181 0.0180229 0.0403039 0.0398018 0.0398998 0.0436433 0.0546716 0.0425812 0.060356 0.0532991 0.0661242 0.0693569 0.0638616 0.0707727 0.0816025 0.0579318 0.0669448
60 3 O 5.51101 13.1348 1.4948 -1.2 1 0.0241424 0.0133048 0.0220716 0.0296144 0.0195802 0.0431961 0.0448408 0.0590888 0.03708 0.0500295 0.0427288 0.0673083 0.0530765 0.0531504 0.0647735 0.0600881 0.0707533 0.0580516 0.0694532 0.0724643
61 3 O 1.83851 10.5475 1.4948 -1.2 1 0.0395351 0.0146851 0.0199291 0.0107736 0.0361821 0.0312987 0.0369687 0.0574401 0.0390544 0.0477468 0.0500926 0.0516534 0.0480919 0.0741597 0.0754853 0.0792187 0.057272 0.0761367 0.0575987 0.0786517
62 3 O 4.7611 10.8154 0.196716 -1.2 1 0.0357681 0.0193376 0.0198839 0.0181872 0.0267532 0.0441386 0.0482507 0.0374609 0.0389255 0.0490882 0.036928 0.041126 0.0610223 0.0609792 0.064858 0.0717322 0.0753196 0.0656334 0.0728651 0.0676279
63 1 Mg 6.35203 9.49799 2.9896 1.2 1 0.0091669 0.0182244 0.0185201 0.0189113 0.0234374 0.0364775 0.039809 0.0528446 0.0347579 0.0597955 0.0330538 0.0651318 0.0304908 0.0686158 0.0467074 0.0776826 0.0448276 0.0925924 0.0476659 0.0915653
64 3 O 4.71833 10.8154 2.79288 -1.2 1 0.029542 0.00982007 0.0290402 0.0149942 0.0290936 0.04501 0.0441063 0.0456109 0.042683 0.0365937 0.0528883 0.0423971 0.0527622 0.0569552 0.0732546 0.0674291 0.0719113 0.0607432 0.070174 0.0796102
65 1 Mg -1.0438 9.53931 4.4844 1.2 1 0.00769831 0.0148493 0.0194748 0.0266599 0.0239729 0.0318975 0.0362378 0.0338554 0.0470968 0.0499641 0.0555586 0.0531133 0.0649651 0.0691899 0.0580517 0.0695033 0.0717301 0.100194 0.0724253 0.085053
66 2 Si -2.8604 12.2234 4.4844 2.4 1 0.0126977 0.0183297 0.0148335 0.0220465 0.0360236 0.0398233 0.0614945 0.0305129 0.0553309 0.0592675 0.0526156 0.0596314 0.0552456 0.0544308 0.0767813 0.0695176 0.0530924 0.0897605 0.0556227 0.0606299
67 3 O -2.91391 10.6102 4.4844 -1.2 1 0.022818 0.00918275 0.013077 0.0240014 0.0295932 0.0214687 0.0462715 0.0637666 0.038467 0.049459 0.0383548 0.0691038 0.0443108 0.0586835 0.0632362 0.0693343 0.0488878 0.0763869 0.0566117 0.0742717
68 3 O 0.7596 13.1975 4.4844 -1.2 1 0.0181516 0.025555 0.0195186 0.0164263 0.024485 0.053058 0.0318213 0.0500543 0.0466168 0.0486741 0.0396137 0.0495685 0.0503129 0.0695583 0.101777 0.0619807 0.0785698 0.0546875 0.0736297 0.0705976
69 3 O -2.12001 12.9296 3.18632 -1.2 1 0.0199517 0.00690112 0.0219408 0.0170961 0.0192572 0.0368883 0.0402947 0.0557459 0.0431634 0.0539884 0.0533179 0.0486621 0.0555289 0.0478843 0.0804233 0.0616894 0.0747187 0.0636464 0.0655026 0.0684962
70 3 O -2.16532 12.9296 5.78248 -1.2 1 0.0186545 0.0108549 0.0213753 0.0194958 0.0190977 0.027866 0.0522219 0.0439755 0.0432588 0.0390703 0.0542334 0.0380427 0.0551387 0.0619898 0.0837435 0.0711706 0.0682823 0.0643896 0.0740736 0.0754561
71 1 Mg 1.29891 11.8725 2.9896 1.2 1 0.00708964 0.0153295 0.0220814 0.0221472 0.0174251 0.0387342 0.0365287 0.0512156 0.0355637 0.0610001 0.0355268 0.0587925 0.0264126 0.066946 0.0496163 0.0826035 0.0482754 0.0890716 0.0465605 0.0867155
72 1 Mg 4.10033 11.8312 4.4844 1.2 1 0.00967976 0.0177899 0.0174344 0.0276176 0.0302831 0.0290374 0.0474445 0.0323018 0.049121 0.0525837 0.0558916 0.0531128 0.0674865 0.0696617 0.0527134 0.069192 0.068756 0.0988645 0.0721716 0.0808991
73 2 Si 2.27333 13.896 4.4844 2.4 1 0.0267633 0.00579897 0.022156 0.0260371 0.0223895 0.0391451 0.0617926 0.029211 0.0545611 0.0578543 0.0538994 0.0620849 0.0628036 0.0569006 0.0766353 0.0670185 0.0468587 0.0962628 0.0548841 0.0576978
74 3 O 2.28634 15.5093 4.4844 -1.2 1 0.0202298 0.0131683 0.0099266 0.0182299 0.0260003 0.0249654 0.0421734 0.0622461 0.0442767 0.0547645 0.038866 0.0723904 0.0478041 0.0625471 0.069754 0.0687927 0.0517163 0.0698221 0.0663923 0.0760334
75 3 O -4.34533 12.922 4.4844 -1.2 1 0.0251811 0.0193736 0.0175147 0.0187784 0.0217363 0.0570083 0.0325262 0.0476102 0.0431117 0.0498194 0.0424447 0.0535993 0.0499536 0.0696583 0.098568 0.0663446 0.0801011 0.054508 0.0754209 0.0706632
76 3 O 2.98455 13.1899 3.18632 -1.2 1 0.0269837 0.0130228 0.0181672 0.0108547 0.0196515 0.0409914 0.0382437 0.057226 0.0469151 0.0514874 0.0547723 0.051791 0.05028 0.0502053 0.0812894 0.0633527 0.0663323 0.0608746 0.064585 0.0713795
77 1 Mg 1.34779 11.8725 0 1.2 1 0.0214598 0.00921336 0.022 0.0153844 0.0286909 0.0234353 0.05168 0.0351813 0.0573521 0.0512482 0.049466 0.0352422 0.0650962 0.0499754 0.0703601 0.0645414 0.0622242 0.069781 0.0876004 0.0591479
78 3 O 2.93934 13.1899 5.78248 -1.2 1 0.0211569 0.013145 0.0188461 0.0170994 0.0151409 0.0290464 0.0441636 0.0502175 0.0399881 0.0402412 0.0575996 0.0397196 0.0527892 0.0631027 0.0853082 0.0641124 0.0713224 0.0605909 0.068599 0.0797377
79 1 Mg -1.50344 11.9138 1.4948 1.2 1 0.0129453 0.0178855 0.0228961 0.0202112 0.0117415 0.03695 0.0384773 0.0422941 0.0412005 0.0595646 0.0354629 0.0660384 0.0504853 0.0647108 0.0743563 0.0686675 0.0633408 0.0836633 0.0768392 0.0788838
80 2 Si 0.326006 9.84894 1.4948 2.4 1 0.0281162 0.0178919 0.0269785 0.0294831 0.016883 0.038143 0.0433609 0.0399315 0.0439267 0.0550101 0.0395701 0.0601783 0.0557024 0.0666084 0.0609432 0.0625038 0.0703695 0.0803992 0.0617966 0.0688647
81 3 O 0.317364 8.23571 1.4948 -1.2 1 0.0247744 0.0123744 0.0215601 0.0260747 0.0198287 0.0457696 0.0416542 0.0493373 0.0345726 0.0538894 0.0452442 0.0645244 0.0574619 0.0587883 0.0659707 0.0654613 0.0713836 0.0532851 0.0727114 0.0750821
82 3 O 6.94307 10.823 1.4948 -1.2 1 0.0312174 0.0148695 0.0219671 0.0117344 0.037391 0.0331718 0.0380404 0.0578483 0.0347654 0.0476274 0.0513636 0.0521079 0.0499339 0.0751958 0.0725959 0.0795558 0.0619423 0.0728531 0.0579385 0.0806835
83 3 O -0.343122 10.5551 0.196716 -1.2 1 0.0309587 0.0176035 0.0217353 0.0209007 0.029854 0.041316 0.0510199 0.0394795 0.0389126 0.0506589 0.0369484 0.0380127 0.0617485 0.0603377 0.0688506 0.0707588 0.080664 0.0542057 0.0691652 0.0685591
84 3 O -0.385966 10.5551 2.79288 -1.2 1 0.0226137 0.0137328 0.0332362 0.0170284 0.0342105 0.0424944 0.0453334 0.0467931 0.0452093 0.0376793 0.0529183 0.0465851 0.0480433 0.0568923 0.0689587 0.0702669 0.0654527 0.0620734 0.0705914 0.0816274
85 1 Mg 6.49448 14.247 0 1.2 1 0.0225382 0.00962829 0.0186211 0.0167182 0.0286474 0.022628 0.0480193 0.0328805 0.0596048 0.048414 0.0514696 0.0372369 0.062488 0.0524369 0.071418 0.0654672 0.0643346 0.0706029 0.0846156 0.0710632
86 1 Mg 3.74457 18.9547 1.4948 1.2 1 0.0148537 0.0108983 0.0151168 0.0161082 0.0256852 0.0293596 0.0313984 0.0394196 0.0378867 0.0578487 0.0431837 0.0663346 0.0506961 0.0663522 0.0707053 0.0696503 0.0634515 0.0832115 0.0783908 0.0755501
87 2 Si 5.55495 16.2705 1.4948 2.4 1 0.0107468 0.0217579 0.0200428 0.0271611 0.017688 0.0427336 0.0374762 0.0401673 0.047106 0.052862 0.0443092 0.0601695 0.0536185 0.0641537 0.0701359 0.0598282 0.0726868 0.0792075 0.0597246 0.070811
88 3 O 5.6115 17.8838 1.4948 -1.2 1 0.0268744 0.0179461 0.0232755 0.0255469 0.019236 0.0433459 0.0452905 0.0607672 0.0374276 0.0500257 0.0379475 0.0673236 0.0509489 0.055756 0.0644301 0.0580989 0.0657503 0.0618452 0.0631241 0.0695065
89 3 O 1.93416 15.2965 1.4948 -1.2 1 0.0370876 0.0147369 0.0219415 0.0131378 0.0351222 0.0304987 0.035951 0.0591526 0.043256 0.047087 0.0486996 0.0502809 0.0461448 0.0739462 0.0806094 0.0774749 0.0589974 0.073839 0.062057 0.0775695
90 3 O 4.85636 15.5644 0.196716 -1.2 1 0.0260814 0.011043 0.0225055 0.0197364 0.0235547 0.0514491 0.0508358 0.0401502 0.0410853 0.0463176 0.0367751 0.0335401 0.0640072 0.0548963 0.06741 0.0685302 0.0750336 0.0633611 0.0726021 0.0677535
91 1 Mg 6.44662 14.247 2.9896 1.2 1 0.0108206 0.0169814 0.0226157 0.0236932 0.0191481 0.0362866 0.0383222 0.052843 0.0366257 0.0576163 0.033679 0.0636661 0.0223234 0.0665986 0.0445748 0.0778199 0.0447051 0.0914759 0.0440647 0.0922922
92 3 O 4.81537 15.5644 2.79288 -1.2 1 0.0180371 0.0141759 0.023526 0.00925242 0.0275239 0.0366012 0.0466205 0.0474324 0.0437451 0.0422719 0.0498964 0.0455439 0.0516918 0.0525327 0.0737124 0.0653803 0.0760697 0.0523121 0.0710139 0.076627
93 1 Mg -0.948271 14.2883 4.4844 1.2 1 0.019768 0.0122022 0.0117549 0.0256637 0.0263153 0.0308597 0.0379615 0.0363755 0.0441277 0.0484113 0.0583089 0.0552165 0.066321 0.0713821 0.0620217 0.073724 0.0715304 0.0926943 0.0691195 0.0827589
94 2 Si -2.75928 16.9724 4.4844 2.4 1 0.0189943 0.0166478 0.0176332 0.0250347 0.0263368 0.042484 0.0562516 0.0320944 0.0523402 0.063739 0.0521832 0.0617892 0.0559252 0.0544684 0.0762122 0.0711773 0.050386 0.092858 0.0529063 0.0637669
95 3 O -2.81617 15.3592 4.4844 -1.2 1 0.0178429 0.0141053 0.0143257 0.0249839 0.0310269 0.0235598 0.044117 0.0649419 0.0436032 0.0509655 0.0362974 0.072279 0.0471575 0.0576028 0.0686821 0.0697986 0.0520417 0.0732804 0.0614479 0.0739657
96 3 O 0.862762 17.9465 4.4844 -1.2 1 0.0137854 0.0259198 0.02052 0.017866 0.0240936 0.0465021 0.0364369 0.0528176 0.0466758 0.052979 0.0408712 0.0469683 0.044093 0.0712668 0.103403 0.0548815 0.0737198 0.0531964 0.0746695 0.0703129
97 3 O -2.0185 17.6786 3.18632 -1.2 1 0.017161 0.0119282 0.0166649 0.0204347 0.0206745 0.0393381 0.0430104 0.0558477 0.04459 0.0527596 0.0526179 0.0511096 0.0541884 0.0481893 0.0819947 0.0615316 0.0703062 0.0640628 0.064811 0.0663558
98 3 O -2.06164 17.6786 5.78248 -1.2 1 0.0127684 0.0152634 0.0228176 0.0235821 0.012228 0.0287008 0.046434 0.0436851 0.0374692 0.0400156 0.0568752 0.0380683 0.0567214 0.0565119 0.0855001 0.0691929 0.0685145 0.0666427 0.0651134 0.0761195
99 1 Mg 1.39817 16.6215 2.9896 1.2 1 0.00638611 0.0158532 0.0195806 0.0229172 0.0183268 0.036615 0.0368302 0.0532619 0.0372415 0.0595058 0.0358527 0.0569915 0.0234622 0.0663159 0.0488081 0.0810998 0.0496777 0.0912996 0.0441255 0.0884861
100 1 Mg 4.20062 16.5802 4.4844 1.2 1 0.00976955 0.0123166 0.0182743 0.0268323 0.0285156 0.0304787 0.0407628 0.0352819 0.0478683 0.0541856 0.0559505 0.0544997 0.0698735 0.0714248 0.0525863 0.0746825 0.0692888 0.0993949 0.0716214 0.0765408
101 2 Si 2.37796 18.645 4.4844 2.4 1 0.0219681 0.0128496 0.0230226 0.0257051 0.0270671 0.037568 0.0599061 0.0309282 0.0551557 0.0601654 0.0528718 0.0641743 0.0593717 0.0565064 0.0726991 0.06728 0.0462124 0.0998897 0.0518485 0.0570307
102 3 O 2.39434 20.2583 4.4844 -1.2 1 0.0171286 0.015423 0.00866602 0.0151989 0.0261793 0.0252257 0.0409616 0.0591444 0.042708 0.0532356 0.0428419 0.0725589 0.0492075 0.0634854 0.0710799 0.0703413 0.0512322 0.0709082 0.0651501 0.0812558
103 3 O -4.24274 17.671 4.4844 -1.2 1 0.0133731 0.0193293 0.0217827 0.0208552 0.0195627 0.0494495 0.035363 0.0499184 0.0432077 0.0547983 0.0391328 0.0535337 0.0506388 0.069337 0.103605 0.0653523 0.0764558 0.0529497 0.076612 0.0723077
104 3 O 3.08659 17.9389 3.18632 -1.2 1 0.0285745 0.0116199 0.0221786 0.0116476 0.0182648 0.0373556 0.0376659 0.0555926 0.0439528 0.0522337 0.0550216 0.0487419 0.0523562 0.0507664 0.0816987 0.0585869 0.0680147 0.0601531 0.0642119 0.0688913
105 1 Mg 1.44478 16.6215 0 1.2 1 0.0120362 0.0122093 0.0214271 0.0120998 0.0273808 0.0325482 0.0483249 0.0369203 0.0502903 0.0502768 0.0514097 0.0393954 0.0597991 0.0495635 0.0690513 0.0653517 0.0596869 0.0674354 0.0898075 0.0628479
106 3 O 3.0436 17.9389 5.78248 -1.2 1 0.0115099 0.0142762 0.024393 0.0172679 0.01736 0.0282982 0.04294 0.0504171 0.0402014 0.0435599 0.0573562 0.0423755 0.0573401 0.0655148 0.0843363 0.0647157 0.0701986 0.0630054 0.0683896 0.0774737
107 1 Mg -1.40524 16.6628 1.4948 1.2 1 0.0116327 0.0125263 0.0256352 0.017671 0.0172668 0.0344987 0.0360213 0.0429963 0.0415726 0.0605141 0.0406015 0.0624385 0.0547774 0.064254 0.0734799 0.0691937 0.0643162 0.0779297 0.0788491 0.0759623
108 2 Si 0.420358 14.5979 1.4948 2.4 1 0.0209363 0.0197867 0.0272492 0.0269975 0.0181288 0.0394277 0.0396169 0.0398459 0.0453579 0.056043 0.0441137 0.0605913 0.0574621 0.0635987 0.0674387 0.0600473 0.0721832 0.0757021 0.0624285 0.0712327
109 3 O 0.408732 12.9847 1.4948 -1.2 1 0.0221569 0.0155493 0.0229828 0.0254942 0.0170281 0.0472592 0.0436266 0.0538546 0.0361239 0.0528005 0.0424537 0.0690825 0.0532472 0.0569932 0.0661078 0.0636022 0.0715028 0.0547521 0.0686007 0.07164
110 3 O 7.03923 15.572 1.4948 -1.2 1 0.0338685 0.0175913 0.0208414 0.0100251 0.0357949 0.0346606 0.0370482 0.0550925 0.0379285 0.0439186 0.0516739 0.052693 0.0483317 0.0738433 0.0775283 0.0770331 0.0650466 0.0693464 0.061826 0.0780963
111 3 O -0.248332 15.3041 0.196716 -1.2 1 0.0220858 0.0123117 0.0222786 0.0192303 0.0242557 0.0461861 0.0498965 0.0434374 0.0403698 0.0464664 0.0369088 0.0321097 0.0624083 0.0546201 0.0701495 0.0654875 0.0816899 0.0506807 0.069423 0.0708879
112 3 O -0.289436 15.3041 2.79288 -1.2 1 0.0222506 0.0142569 0.0250855 0.0115884 0.0317978 0.0364843 0.0440057 0.0475771 0.0434546 0.0390479 0.0544882 0.0474145 0.0496864 0.0512542 0.0716011 0.0676648 0.0701511 0.056321 0.0711413 0.0781446
113 1 Mg 6.59566 18.996 0 1.2 1 0.014099 0.0113514 0.019857 0.0145365 0.0264421 0.0317952 0.0428252 0.0329796 0.053856 0.0487691 0.0538557 0.0394044 0.0523522 0.0531363 0.0719366 0.0645941 0.0639966 0.0652016 0.0866107 0.0706235
114 1 Mg 3.85574 23.7037 1.4948 1.2 1 0.0128552 0.0140754 0.0213298 0.0158695 0.0227057 0.0288606 0.0309183 0.0366668 0.0387089 0.0595409 0.0470756 0.0618466 0.0506085 0.0654543 0.0627342 0.0729928 0.0668481 0.0797439 0.079925 0.0758582
115 2 Si 5.66125 21.0195 1.4948 2.4 1 0.00819292 0.0240371 0.0233166 0.0272973 0.019379 0.0463006 0.034126 0.0414468 0.0493553 0.0543864 0.0454809 0.0597596 0.0560711 0.059805 0.0719879 0.0607612 0.0732887 0.0770842 0.0644585 0.075641
116 3 O 5.72074 22.6328 1.4948 -1.2 1 0.0282044 0.0189103 0.0183103 0.0227705 0.0192464 0.0446538 0.0452149 0.0620032 0.0379211 0.0523254 0.0324496 0.0699815 0.0487069 0.0534997 0.0682734 0.0561571 0.0650425 0.0678847 0.0559343 0.0717628
117 3 O 2.03867 20.0455 1.4948 -1.2 1 0.0300807 0.0164296 0.0266331 0.015824 0.0341694 0.0298385 0.036001 0.0555329 0.0440092 0.043114 0.050508 0.0506328 0.0473753 0.073494 0.0846725 0.0722567 0.0616163 0.0678397 0.0638891 0.0725773
118 3 O 4.96004 20.3134 0.196716 -1.2 1 0.021077 0.0104488 0.0229045 0.0190126 0.0233049 0.0455273 0.0439691 0.0479694 0.0390376 0.040331 0.0408412 0.0341957 0.0645401 0.0473076 0.0697635 0.0727938 0.0714964 0.0584238 0.0721246 0.0718083
119 1 Mg 6.55057 18.996 2.9896 1.2 1 0.0105815 0.0152872 0.0160987 0.0197833 0.021232 0.0327783 0.037594 0.0538912 0.035576 0.060194 0.0374924 0.0624971 0.0221801 0.0692226 0.0428569 0.0731438 0.0431347 0.0960178 0.0461725 0.0945166
120 3 O 4.92172 20.3134 2.79288 -1.2 1 0.0094489 0.0117043 0.0309367 0.0144933 0.0299382 0.0397444 0.0466718 0.0451475 0.0474549 0.0435479 0.0525525 0.0410699 0.0535585 0.0532777 0.076811 0.0681672 0.0767922 0.0490381 0.0710956 0.0725011
121 1 Mg -0.84282 19.0373 4.4844 1.2 1 0.0162554 0.0145197 0.0169073 0.0261487 0.0304094 0.0256361 0.0408325 0.0342138 0.0453713 0.048437 0.0610745 0.0562996 0.0654129 0.07086 0.0623935 0.0718651 0.0703946 0.0880605 0.0746027 0.0837348
122 2 Si -2.64823 21.7214 4.4844 2.4 1 0.011947 0.0141022 0.0227015 0.0271437 0.0300688 0.0373208 0.0565374 0.0312168 0.0513322 0.0655152 0.0507258 0.064841 0.0547537 0.0520285 0.0760182 0.0743625 0.0507364 0.0894431 0.0583013 0.0615698
123 3 O -2.70847 20.1082 4.4844 -1.2 1 0.014812 0.0180029 0.0148231 0.0265838 0.0283448 0.0234277 0.0412127 0.0659912 0.0413742 0.0481348 0.0399953 0.0716512 0.0527454 0.0603438 0.0662813 0.0692456 0.0512166 0.0731374 0.0686902 0.0742483
124 3 O 0.97581 22.6955 4.4844 -1.2 1 0.0155031 0.0238964 0.0252407 0.0171248 0.0198513 0.0400978 0.0324987 0.0498823 0.0456449 0.053188 0.0418319 0.0447293 0.0457707 0.0758507 0.105441 0.055996 0.0669782 0.0578613 0.0740665 0.0688922
125 3 O -1.9076 22.4276 3.18632 -1.2 1 0.021049 0.00950486 0.0208699 0.0168585 0.0131006 0.037448 0.0433892 0.0571136 0.0374807 0.0492716 0.0556579 0.0471143 0.0559894 0.0474476 0.0807784 0.0572475 0.0691907 0.0664853 0.0617316 0.0635635
126 3 O -1.9475 22.4276 5.78248 -1.2 1 0.0178856 0.0104867 0.0213145 0.0229869 0.0171264 0.0293348 0.0469501 0.0454057 0.0369979 0.0402421 0.0586891 0.0404986 0.0553745 0.0532571 0.0836349 0.0707626 0.0665909 0.0634803 0.0676186 0.07822