ITEM: TIMESTEP
8400
ITEM: NUMBER OF ATOMS
10500
ITEM: BOX BOUNDS xy xz yz pp pp pp
0	15.2977	5.09925
0	118.725	0
0	89.688	0
ITEM: ATOMS id type element xu yu zu q Q_1 Q_2 Q_3 Q_4 Q_5 Q_6 Q_7 Q_8 Q_9 Q_10 Q_11 Q_12 Q_13 Q_14 Q_15 Q_16 Q_17 Q_18 Q_19 Q_20 Q_21
1 1 Mg 6.2404 -6.37941e-06 0 1.2 1 0.0132625 0.0408622 0.0297409 0.0358461 0.0333262 0.0413935 0.0356259 0.068758 0.0388802 0.0711578 0.0339345 0.0591244 0.0462525 0.0682976 0.0499499 0.092229 0.0515983 0.0839524 0.0506363 0.102689
2 1 Mg 3.46349 4.70768 1.4948 1.2 1 0.0169084 0.016731 0.0244212 0.0215574 0.0202964 0.0421 0.0422678 0.0399865 0.0461469 0.0557501 0.0429694 0.0704975 0.0577272 0.0709184 0.0716645 0.0643376 0.0678891 0.0857868 0.0728668 0.0818308
3 2 Si 5.2885 2.02354 1.4948 2.4 1 0.0218984 0.0223826 0.0366768 0.0256379 0.0309045 0.0366101 0.0534295 0.033555 0.0442989 0.0518692 0.0558477 0.0618176 0.0558029 0.0637066 0.068183 0.0792035 0.0709016 0.064963 0.0634079 0.0732906
4 3 O 5.33628 3.63678 1.4948 -1.2 1 0.00936944 0.0141081 0.0267533 0.026007 0.0183653 0.0390723 0.0419562 0.0603087 0.0355732 0.0403935 0.0545714 0.050955 0.0677094 0.0575495 0.0586055 0.0648471 0.0601737 0.0614564 0.0713912 0.0743883
5 3 O 1.67294 1.04952 1.4948 -1.2 1 0.0163138 0.0218414 0.0233219 0.0356231 0.0296183 0.0387087 0.0341601 0.0607085 0.03491 0.0593726 0.0441291 0.0511087 0.071952 0.0593647 0.0762375 0.0692158 0.0628304 0.064523 0.0794444 0.0606097
6 3 O 4.59532 1.31737 0.196716 -1.2 1 0.0258976 0.0221567 0.0575645 0.0252423 0.0334073 0.0486909 0.0385398 0.0473148 0.0338407 0.0393178 0.0385829 0.0504898 0.0542753 0.0571762 0.063495 0.0700893 0.0620368 0.0715892 0.0592813 0.0707595
7 1 Mg 6.18956 -6.37941e-06 2.9896 1.2 1 0.0154186 0.0282343 0.0154092 0.0216599 0.0360296 0.0453766 0.0504503 0.0430227 0.0475531 0.0453645 0.0383542 0.0559583 0.0395641 0.0558894 0.058727 0.0798934 0.05752 0.0692791 0.0590771 0.0698909
8 3 O 4.55118 1.31737 2.79288 -1.2 1 0.0243572 0.0257802 0.0406639 0.0171606 0.0284613 0.0441081 0.0442381 0.0480555 0.0440665 0.0537654 0.0540331 0.0488438 0.0498018 0.0663217 0.0532911 0.0703269 0.0642059 0.0670948 0.0646313 0.0718103
9 1 Mg -1.20682 0.0413099 4.4844 1.2 1 0.0138526 0.0242807 0.020854 0.0272188 0.0362476 0.0402656 0.0312437 0.0519972 0.0528156 0.0397523 0.0488252 0.0621864 0.0652739 0.0579251 0.0772954 0.0610576 0.0809793 0.0740329 0.0642423 0.0533204
10 2 Si -3.0337 2.72544 4.4844 2.4 1 0.0283457 0.0150597 0.0208164 0.0174461 0.0321952 0.0367101 0.0626759 0.0321595 0.0620067 0.0496849 0.046747 0.0603367 0.0558954 0.0759665 0.0560336 0.0609166 0.0713855 0.0800442 0.0746118 0.0596735
11 3 O -3.08099 1.11221 4.4844 -1.2 1 0.0113891 0.0221109 0.0269087 0.0253461 0.0389053 0.0278528 0.0478873 0.0480317 0.0378198 0.0376006 0.0375569 0.0715794 0.0536573 0.0519337 0.0544053 0.0687563 0.0541385 0.0807477 0.0736913 0.0763896
12 3 O 0.582463 3.69946 4.4844 -1.2 1 0.00965215 0.0116918 0.0337997 0.0302091 0.0265451 0.0616968 0.0320364 0.0547116 0.0434642 0.0406613 0.0536489 0.0575043 0.0595329 0.0717364 0.101225 0.0697189 0.0798906 0.0405221 0.072635 0.0684534
13 3 O -2.29524 3.43162 3.18632 -1.2 1 0.0125034 0.0201723 0.0260198 0.030695 0.0201888 0.0503834 0.0514562 0.0499383 0.0410543 0.0528366 0.0588372 0.0545295 0.040896 0.0519476 0.0588959 0.0648886 0.0664731 0.0617954 0.0634904 0.0731763
14 3 O -2.34216 3.43162 5.78248 -1.2 1 0.0193675 0.00936757 0.0227909 0.0276639 0.0273309 0.0400067 0.0530594 0.0482332 0.0396014 0.055367 0.0545444 0.04934 0.0549841 0.0512878 0.0783064 0.07221 0.0620036 0.0707756 0.0746843 0.0723636
15 1 Mg 1.12778 2.37449 2.9896 1.2 1 0.0157175 0.0403848 0.0166633 0.023903 0.0253362 0.0432461 0.0405589 0.0510156 0.0370542 0.0610591 0.0375789 0.0591965 0.0404378 0.0670231 0.0635552 0.0698722 0.0680968 0.0816607 0.045223 0.0878959
16 1 Mg 3.92855 2.33318 4.4844 1.2 1 0.0279763 0.0161578 0.0238001 0.0301328 0.0441253 0.0254385 0.0373502 0.0376654 0.0468992 0.0681144 0.0510451 0.0602933 0.0496774 0.060162 0.0556596 0.0749026 0.0631917 0.0949739 0.0735016 0.0840845
17 2 Si 2.09341 4.39804 4.4844 2.4 1 0.0139494 0.0205073 0.0329479 0.0146283 0.0412893 0.0275549 0.0632476 0.021173 0.0441116 0.0475506 0.0622022 0.0617105 0.0674225 0.0585041 0.0735204 0.0751528 0.0718066 0.0821356 0.0514177 0.0658074
18 3 O 2.09991 6.01128 4.4844 -1.2 1 0.0104486 0.0114644 0.0175252 0.0188752 0.0339059 0.0229034 0.0521074 0.0508569 0.0471923 0.0466173 0.0469381 0.0659686 0.0462983 0.0613126 0.0666153 0.0722393 0.0465088 0.0794886 0.0613427 0.0721379
19 3 O -4.52137 3.42402 4.4844 -1.2 1 0.024079 0.0279289 0.0357815 0.0202297 0.0254401 0.0572898 0.035585 0.0480255 0.054395 0.0569916 0.0313037 0.057333 0.0514724 0.0549546 0.090101 0.073049 0.0754399 0.0605971 0.0754152 0.0550297
20 3 O 2.80834 3.69187 3.18632 -1.2 1 0.0112124 0.0201226 0.0207559 0.0260319 0.0206478 0.0380853 0.0344192 0.0491515 0.0441719 0.0590821 0.0665816 0.0525438 0.0417951 0.0630236 0.0706866 0.071898 0.0613624 0.0588439 0.0701536 0.0703425
21 1 Mg 1.17857 2.37449 0 1.2 1 0.0144542 0.0372398 0.0293785 0.0289133 0.0365048 0.0388405 0.0431259 0.0586433 0.0355789 0.0489359 0.0528057 0.0409184 0.043475 0.0668976 0.0551833 0.0654887 0.059989 0.080564 0.0572063 0.072765
22 3 O 2.76143 3.69187 5.78248 -1.2 1 0.00373871 0.0191653 0.0183203 0.0246527 0.0178716 0.0328347 0.0391086 0.0469695 0.0357037 0.0453303 0.0592351 0.0440224 0.0541999 0.0785175 0.0747301 0.0690552 0.0687407 0.0577413 0.0708482 0.074949
23 1 Mg -1.67381 2.41581 1.4948 1.2 1 0.011373 0.0115817 0.0371425 0.0362049 0.0324056 0.0439902 0.0588003 0.0402713 0.0511356 0.0405661 0.0462306 0.0591628 0.0548616 0.0636803 0.0612642 0.064417 0.0832592 0.0779257 0.0665557 0.0738541
24 2 Si 0.16286 0.350945 1.4948 2.4 1 0.0151812 0.0320409 0.0281044 0.023482 0.0355132 0.035707 0.0557442 0.0512254 0.0527098 0.0489107 0.0406591 0.0555969 0.0739038 0.0691563 0.0571536 0.0732982 0.0694711 0.0650084 0.0733855 0.0657065
25 3 O 0.15972 -1.26229 1.4948 -1.2 1 0.00910149 0.0154797 0.0396582 0.0214052 0.0374046 0.0359893 0.0455003 0.0566174 0.0470637 0.0514066 0.0557491 0.0560759 0.0632146 0.0664726 0.0496372 0.059633 0.0694665 0.0662471 0.062519 0.0742933
26 3 O 6.77654 1.32496 1.4948 -1.2 1 0.0114938 0.0277589 0.0265947 0.0277109 0.0372224 0.0544447 0.0342149 0.0648217 0.0475858 0.0468267 0.0442345 0.0523618 0.0525051 0.0595378 0.068608 0.0714184 0.0845361 0.0629831 0.0597514 0.0746508
27 3 O -0.508028 1.05712 0.196716 -1.2 1 0.0246652 0.019067 0.0296074 0.0206257 0.0292718 0.0533309 0.0437246 0.0446494 0.0471691 0.0482863 0.0503321 0.048232 0.049265 0.0635698 0.0550099 0.0630267 0.0635706 0.0589164 0.0718095 0.071895
28 3 O -0.552171 1.05712 2.79288 -1.2 1 0.0390317 0.0273067 0.0368622 0.0340167 0.0219764 0.0412056 0.0432222 0.0489905 0.0439025 0.038732 0.0480793 0.0486627 0.0572885 0.0619449 0.064522 0.0768573 0.0730799 0.0504394 0.0708244 0.0722023
29 1 Mg 6.31713 4.74899 0 1.2 1 0.0272692 0.0291644 0.0303231 0.0367098 0.0326645 0.0266887 0.0420497 0.0558595 0.0587073 0.0494308 0.0510522 0.0385121 0.0594275 0.0614211 0.0657573 0.0637404 0.0658866 0.0735798 0.069466 0.0703701
30 1 Mg 3.54847 9.45668 1.4948 1.2 1 0.0170777 0.0159877 0.0174331 0.0189778 0.0189195 0.0383587 0.0386329 0.0419127 0.045213 0.0566712 0.0381054 0.068744 0.0528397 0.0655301 0.0746556 0.0620698 0.0666259 0.0876112 0.0735958 0.0795669
31 2 Si 5.36879 6.77254 1.4948 2.4 1 0.0290438 0.0269502 0.0239388 0.0256898 0.0247507 0.035008 0.044422 0.0362625 0.0450222 0.0572825 0.0421436 0.0584994 0.053127 0.0663783 0.0655213 0.0744206 0.0670327 0.0789932 0.0559118 0.0684749
32 3 O 5.41937 8.38578 1.4948 -1.2 1 0.021515 0.0114891 0.0235708 0.0296568 0.0174844 0.0432631 0.0441582 0.0572973 0.0364711 0.0506765 0.0475616 0.0639806 0.0551812 0.0540505 0.0660798 0.0604535 0.0729391 0.0558419 0.0733839 0.0730743
33 3 O 1.75158 5.79852 1.4948 -1.2 1 0.0284258 0.0123475 0.022387 0.0266578 0.0441031 0.0309575 0.0391538 0.0570059 0.0408983 0.0526579 0.0495314 0.050433 0.0474427 0.0710652 0.0786223 0.0786882 0.0605657 0.0749896 0.0597786 0.0769219
34 3 O 4.67421 6.06637 0.196716 -1.2 1 0.0146108 0.0264885 0.0315985 0.0243969 0.0320117 0.0377806 0.034587 0.0321881 0.0448124 0.0560728 0.0392603 0.0442971 0.0668659 0.0563208 0.0676177 0.0713455 0.0714485 0.0657174 0.0632553 0.0684222
35 1 Mg 6.26654 4.74899 2.9896 1.2 1 0.022075 0.0246453 0.0235807 0.0436233 0.0257121 0.0446468 0.0481048 0.0479578 0.0361221 0.0622292 0.0369846 0.0602091 0.0383309 0.0641603 0.0528223 0.0768106 0.0560132 0.0843218 0.0469863 0.0903215
36 3 O 4.63043 6.06637 2.79288 -1.2 1 0.0179662 0.0189179 0.0414326 0.0198968 0.0318037 0.0365639 0.0423603 0.0490306 0.0453376 0.0371753 0.0495386 0.0512908 0.0568721 0.0647807 0.0616995 0.0737239 0.0655854 0.067797 0.0689396 0.0842349
37 1 Mg -1.12976 4.79031 4.4844 1.2 1 0.0229919 0.0264451 0.0143155 0.0142897 0.0355124 0.0381412 0.0479329 0.0482343 0.0442217 0.0446717 0.0553685 0.0609809 0.0754618 0.0724584 0.06111 0.0684302 0.0717771 0.0959876 0.0722823 0.0805612
38 2 Si -2.9517 7.47444 4.4844 2.4 1 0.0231455 0.0180281 0.0196751 0.0223381 0.0290986 0.04328 0.0587508 0.0298927 0.051326 0.0595473 0.0521275 0.0604158 0.0611422 0.0587207 0.0792616 0.0691824 0.0542359 0.089412 0.0568599 0.0610516
39 3 O -3.00198 5.86121 4.4844 -1.2 1 0.0126257 0.021745 0.0282568 0.026125 0.0342943 0.0311756 0.056607 0.0591126 0.0394089 0.0550211 0.0487645 0.0713137 0.0574585 0.0563983 0.0659569 0.0719577 0.0494227 0.0766507 0.0611788 0.0773452
40 3 O 0.666315 8.44846 4.4844 -1.2 1 0.0201046 0.0222034 0.0233746 0.0152451 0.0222982 0.055464 0.0286262 0.0520834 0.0427497 0.0468784 0.0419086 0.0515092 0.0500677 0.073918 0.100697 0.0655246 0.0777499 0.0501183 0.0716138 0.0712599
41 3 O -2.21213 8.18062 3.18632 -1.2 1 0.0137758 0.0136506 0.0169008 0.0157733 0.0166979 0.0369255 0.046145 0.056653 0.0457856 0.0538632 0.054245 0.0510832 0.0537682 0.0485777 0.0782277 0.063137 0.0719694 0.0585056 0.0676663 0.0708099
42 3 O -2.25864 8.18062 5.78248 -1.2 1 0.0148239 0.017129 0.0194474 0.0206557 0.0196912 0.0302679 0.0485164 0.0486465 0.0391787 0.0402298 0.0561294 0.039023 0.0589624 0.0568124 0.0859072 0.0709526 0.0674766 0.0655478 0.0681897 0.0747305
43 1 Mg 1.20893 7.12349 2.9896 1.2 1 0.00770357 0.0223527 0.0185364 0.0244745 0.0241615 0.0395324 0.0428037 0.0465945 0.0343036 0.0657961 0.0390878 0.0667835 0.0360318 0.0589357 0.0521565 0.0802104 0.0512271 0.0838869 0.0468315 0.0872076
44 1 Mg 4.00982 7.08218 4.4844 1.2 1 0.0218141 0.0143553 0.0235126 0.0351368 0.0309436 0.036138 0.0448473 0.0366425 0.0468572 0.0514902 0.0576507 0.0559337 0.0708095 0.0737613 0.0573848 0.068496 0.063703 0.0975066 0.0743295 0.0821504
45 2 Si 2.17861 9.14704 4.4844 2.4 1 0.0269993 0.0118397 0.02381 0.0210618 0.0290619 0.0345073 0.0624784 0.025091 0.0506939 0.05445 0.0552226 0.0594395 0.0635519 0.0563732 0.0790237 0.071319 0.049784 0.0935514 0.0542251 0.0570218
46 3 O 2.18828 10.7603 4.4844 -1.2 1 0.0202532 0.0148542 0.00421756 0.0190749 0.0276016 0.0226937 0.0448549 0.0597458 0.0401272 0.0527881 0.0400666 0.0705299 0.0455605 0.0641613 0.0703359 0.0721455 0.0487736 0.0728695 0.0651929 0.072754
47 3 O -4.43805 8.17302 4.4844 -1.2 1 0.00941582 0.0215741 0.0170234 0.017341 0.0232851 0.0558429 0.0351814 0.0508094 0.0438824 0.0486048 0.0358222 0.052771 0.0537093 0.0723087 0.10085 0.0673321 0.0810891 0.054187 0.0749053 0.0731272
48 3 O 2.89193 8.44087 3.18632 -1.2 1 0.0217408 0.019063 0.0169547 0.0149579 0.0203896 0.0403675 0.0340375 0.0539854 0.0441223 0.0511119 0.0580852 0.0502311 0.0511411 0.0511365 0.0800084 0.0632563 0.0697725 0.0593745 0.0650772 0.0730595
49 1 Mg 1.25915 7.12349 0 1.2 1 0.0200028 0.0152233 0.024864 0.0145781 0.0321705 0.0254897 0.0525492 0.0404187 0.0557445 0.0499019 0.0526564 0.0425707 0.0721686 0.0513682 0.067599 0.0710888 0.0650359 0.0710712 0.0809692 0.0587128
50 3 O 2.84547 8.44087 5.78248 -1.2 1 0.00986132 0.014903 0.0133369 0.0214237 0.0218391 0.0280026 0.0457002 0.0480704 0.0396552 0.0397021 0.0579871 0.0409542 0.0592047 0.0612716 0.0900852 0.0626746 0.0692872 0.0643669 0.0664978 0.0763867
51 1 Mg -1.59284 7.16481 1.4948 1.2 1 0.00981022 0.0164445 0.0204396 0.0204178 0.0148312 0.0372814 0.0461111 0.0428881 0.0432524 0.0577168 0.0387407 0.0655204 0.052118 0.0691995 0.0756645 0.0604206 0.068033 0.0846764 0.0733766 0.0784722
52 2 Si 0.240329 5.09994 1.4948 2.4 1 0.0245869 0.0171894 0.0160667 0.0433822 0.0273588 0.0404329 0.0468926 0.0533322 0.0550404 0.0489903 0.0454588 0.0574546 0.0590057 0.0679168 0.0655033 0.0666986 0.0636765 0.0725622 0.0663193 0.0676855
53 3 O 0.234538 3.48671 1.4948 -1.2 1 0.013132 0.0163903 0.026548 0.0358892 0.031304 0.049202 0.0458282 0.0424232 0.0527277 0.0467915 0.0522246 0.0613349 0.0562639 0.0608735 0.0619314 0.0623407 0.0628691 0.0572648 0.0759151 0.0736771
54 3 O 6.85564 6.07396 1.4948 -1.2 1 0.032489 0.0194666 0.0345182 0.0276028 0.0372227 0.0403001 0.0324058 0.0625809 0.0365094 0.0532884 0.0538993 0.0534837 0.0549968 0.0733034 0.0698441 0.0768199 0.0663203 0.0723222 0.0531423 0.0848698
55 3 O -0.429565 5.80612 0.196716 -1.2 1 0.0340193 0.020004 0.0158957 0.0212357 0.0409588 0.0374673 0.0538895 0.0451267 0.0460189 0.0563048 0.0397621 0.0419276 0.0533731 0.0602009 0.0599104 0.0681827 0.0703737 0.0610216 0.0653543 0.0742149
56 3 O -0.473377 5.80612 2.79288 -1.2 1 0.0259678 0.0235201 0.0311116 0.0194794 0.0343472 0.0453673 0.0481438 0.0504014 0.0523024 0.0464093 0.0631275 0.0395869 0.0430036 0.0569762 0.0660707 0.0721855 0.0648238 0.0689497 0.0700848 0.0807971
57 1 Mg 6.40169 9.49799 0 1.2 1 0.012675 0.0117708 0.0212917 0.0143183 0.0305007 0.0214448 0.0522727 0.035631 0.0585977 0.0492164 0.0497092 0.0355595 0.0672799 0.0526953 0.0712552 0.0672583 0.0652808 0.0707234 0.0809172 0.0685905
58 1 Mg 3.64209 14.2057 1.4948 1.2 1 0.0105307 0.0110856 0.0179711 0.0166411 0.0214825 0.0337214 0.0359057 0.0436472 0.0414455 0.0555921 0.0392651 0.0661344 0.0531905 0.0662182 0.0738673 0.0631497 0.0650249 0.0824991 0.0739621 0.0782333
59 2 Si 5.45748 11.5215 1.4948 2.4 1 0.0119269 0.0218874 0.0233341 0.0248792 0.0179853 0.0403017 0.0397124 0.0398868 0.0436134 0.0546553 0.042409 0.0603981 0.0532379 0.0663017 0.0694452 0.0634924 0.0710691 0.0818593 0.0582909 0.0666308
60 3 O 5.51101 13.1348 1.4948 -1.2 1 0.0241418 0.0133586 0.0222354 0.0293818 0.0198882 0.0433152 0.0446146 0.0590537 0.0368279 0.0498842 0.0429547 0.0673986 0.0531787 0.0530799 0.065252 0.0605377 0.0705781 0.05792 0.0695643 0.0721279
61 3 O 1.83851 10.5475 1.4948 -1.2 1 0.0351493 0.0140757 0.021638 0.0139977 0.0363272 0.0305379 0.0364 0.0589064 0.0399243 0.0484089 0.0499197 0.051417 0.0470986 0.0749536 0.0755755 0.0801551 0.056847 0.0759249 0.05753 0.0792487
62 3 O 4.7611 10.8154 0.196716 -1.2 1 0.035697 0.019211 0.0197793 0.0180927 0.0267773 0.0442691 0.048322 0.0375672 0.0387358 0.0492656 0.036918 0.0410218 0.0606999 0.060812 0.0649283 0.0713867 0.0753415 0.0657362 0.0729952 0.0678469
63 1 Mg 6.35203 9.49799 2.9896 1.2 1 0.012786 0.0173677 0.0253788 0.0214242 0.0193407 0.0383904 0.0376627 0.0512681 0.0353213 0.0590572 0.0315817 0.0647364 0.0283159 0.0662124 0.0474725 0.080094 0.0449953 0.0897858 0.0452442 0.0906976
64 3 O 4.71833 10.8154 2.79288 -1.2 1 0.0257934 0.00976985 0.0315364 0.0129561 0.0300024 0.0438781 0.0439344 0.0452473 0.0425196 0.0373899 0.0528675 0.0430515 0.053988 0.0579244 0.0732881 0.0672508 0.0721723 0.0590304 0.0699068 0.0802469
65 1 Mg -1.0438 9.53931 4.4844 1.2 1 0.013423 0.0176384 0.0185379 0.0238733 0.026742 0.0293074 0.0388239 0.0347463 0.0466721 0.0505819 0.0582261 0.0569582 0.0667912 0.0721702 0.0596061 0.0686886 0.0731588 0.09875 0.070752 0.0849012
66 2 Si -2.8604 12.2234 4.4844 2.4 1 0.0177116 0.0111324 0.0187054 0.0285059 0.0301467 0.0410002 0.0598171 0.030545 0.0545888 0.0633437 0.0549934 0.0624383 0.0586398 0.0546239 0.078863 0.0724064 0.049487 0.0904652 0.0533615 0.0635878
67 3 O -2.91391 10.6102 4.4844 -1.2 1 0.0192781 0.0138868 0.00716382 0.0232282 0.0293257 0.0236053 0.0451163 0.0625289 0.039825 0.0489886 0.0361512 0.0702957 0.0464091 0.0594755 0.0682598 0.0705962 0.0505716 0.0751512 0.062897 0.0750373
68 3 O 0.7596 13.1975 4.4844 -1.2 1 0.0227384 0.0238064 0.0174917 0.0128209 0.0223158 0.052471 0.0322647 0.0514032 0.044383 0.049348 0.0410569 0.0489962 0.0494247 0.0721362 0.0999146 0.062408 0.0753229 0.0541346 0.0741747 0.0714233
69 3 O -2.12001 12.9296 3.18632 -1.2 1 0.0172844 0.00895096 0.0192189 0.016812 0.0204281 0.0387887 0.0419591 0.0553933 0.0465121 0.0517835 0.0539451 0.0491028 0.0563225 0.050326 0.0806076 0.0635239 0.072029 0.0625538 0.0664144 0.070452
70 3 O -2.16532 12.9296 5.78248 -1.2 1 0.0153801 0.00918634 0.0196728 0.0193506 0.0162991 0.0292361 0.0466971 0.0495679 0.0370412 0.0385763 0.0578628 0.0395229 0.0576777 0.059674 0.0847171 0.0684089 0.0693948 0.063436 0.0678229 0.0768963
71 1 Mg 1.29891 11.8725 2.9896 1.2 1 0.00672946 0.015762 0.0219896 0.0221216 0.0178298 0.0380032 0.0368108 0.0505733 0.0352555 0.0604086 0.0341579 0.0590956 0.025297 0.0675582 0.0485351 0.0826937 0.0490653 0.0894348 0.0472797 0.085928
72 1 Mg 4.10033 11.8312 4.4844 1.2 1 0.00837099 0.014715 0.0206349 0.0265197 0.0315648 0.030759 0.0396599 0.0343309 0.0486999 0.051247 0.0535102 0.0543949 0.067109 0.0705167 0.0529685 0.0710332 0.07069 0.0979724 0.0745628 0.079681
73 2 Si 2.27333 13.896 4.4844 2.4 1 0.0231239 0.00651325 0.0276288 0.0261519 0.0266137 0.0368755 0.0622654 0.030065 0.0544092 0.0569448 0.053052 0.0616454 0.0622222 0.0569852 0.0743648 0.0684261 0.0470296 0.0985947 0.0532971 0.0572679
74 3 O 2.28634 15.5093 4.4844 -1.2 1 0.0203 0.0176234 0.00297001 0.0194831 0.0264473 0.0231645 0.0429424 0.0584835 0.0415919 0.0538958 0.0413875 0.0711935 0.0473018 0.0634767 0.0710708 0.0699219 0.0502303 0.0708523 0.0661492 0.0755346
75 3 O -4.34533 12.922 4.4844 -1.2 1 0.0210219 0.0224273 0.0216426 0.0162779 0.0222079 0.0516544 0.0343438 0.0495394 0.0449418 0.0522398 0.0392194 0.0530987 0.0492204 0.0708581 0.100274 0.0655623 0.0779021 0.0535534 0.0766823 0.0714283
76 3 O 2.98455 13.1899 3.18632 -1.2 1 0.0226455 0.0115939 0.0178922 0.0118894 0.0202432 0.0421911 0.0387304 0.0579166 0.0458067 0.0521339 0.0567741 0.0485019 0.0511197 0.0513659 0.0807754 0.0618977 0.0667206 0.0602666 0.0642869 0.071604
77 1 Mg 1.34779 11.8725 0 1.2 1 0.0217662 0.00919823 0.0219793 0.0147543 0.0287217 0.022753 0.0516206 0.0347847 0.0575431 0.0509573 0.0496705 0.0353208 0.0650005 0.0499736 0.0706118 0.0642384 0.0617317 0.0700108 0.0872711 0.0596931
78 3 O 2.93934 13.1899 5.78248 -1.2 1 0.0147269 0.0132263 0.0187561 0.0230028 0.0201064 0.0275798 0.0483307 0.0481728 0.0429048 0.0413682 0.0582377 0.0377854 0.0582557 0.0610899 0.0888085 0.0659713 0.0695433 0.0641651 0.0637589 0.0790203
79 1 Mg -1.50344 11.9138 1.4948 1.2 1 0.0129392 0.0179541 0.0228359 0.0204258 0.0117981 0.0369517 0.0383214 0.0424709 0.0410193 0.0598586 0.0350696 0.0651105 0.0505819 0.065 0.0747235 0.0681015 0.0642398 0.0840801 0.0765918 0.078726
80 2 Si 0.326006 9.84894 1.4948 2.4 1 0.0280777 0.0177568 0.027023 0.0295197 0.016944 0.0381114 0.0434761 0.0399437 0.0439664 0.0551138 0.0396038 0.0601962 0.0556142 0.0664702 0.0608307 0.0627641 0.0701525 0.0801199 0.0616845 0.0687338
81 3 O 0.317364 8.23571 1.4948 -1.2 1 0.0223704 0.0125424 0.0225023 0.0239983 0.0200209 0.0451571 0.0430004 0.0499367 0.0348113 0.0544795 0.0439228 0.066053 0.0571108 0.0594363 0.0677251 0.0668291 0.071421 0.0536005 0.0733713 0.074536
82 3 O 6.94307 10.823 1.4948 -1.2 1 0.0312336 0.0148751 0.0220348 0.0117199 0.0373133 0.0329032 0.0381484 0.0578483 0.034719 0.0477479 0.0513111 0.0526004 0.0500397 0.0747135 0.0726507 0.0796358 0.0616051 0.0728122 0.0582034 0.0801824
83 3 O -0.343122 10.5551 0.196716 -1.2 1 0.0308908 0.0175101 0.0216431 0.0208737 0.0298096 0.04138 0.0511979 0.0396815 0.0387371 0.0506856 0.0370518 0.0377332 0.061476 0.0607367 0.0687998 0.0707713 0.0809403 0.054178 0.0698866 0.0691849
84 3 O -0.385966 10.5551 2.79288 -1.2 1 0.0225981 0.0154549 0.0323831 0.0136409 0.0323051 0.0434085 0.0451031 0.0455672 0.0446722 0.0382708 0.0530786 0.0463543 0.0486493 0.0566873 0.0702535 0.0712255 0.0670424 0.0622991 0.0705076 0.0780926
85 1 Mg 6.49448 14.247 0 1.2 1 0.0226296 0.00993062 0.0184869 0.0169155 0.0286281 0.0226767 0.0479203 0.0329996 0.0594128 0.0481647 0.0513429 0.0374465 0.0624857 0.0529286 0.0712461 0.0652856 0.0643541 0.0707527 0.084566 0.0706471
86 1 Mg 3.74457 18.9547 1.4948 1.2 1 0.0149427 0.0107527 0.0153893 0.0159988 0.02598 0.0292785 0.0313791 0.0392358 0.0381428 0.0578866 0.0436877 0.0670528 0.0507548 0.0663609 0.0706377 0.0698541 0.0628659 0.0830243 0.0781176 0.0761553
87 2 Si 5.55495 16.2705 1.4948 2.4 1 0.0120511 0.0200509 0.0219978 0.0269465 0.0184837 0.042536 0.0365977 0.0421157 0.0454268 0.0519717 0.0435909 0.0609885 0.0541113 0.0639435 0.0696731 0.059301 0.0725946 0.0796292 0.0602018 0.070524
88 3 O 5.6115 17.8838 1.4948 -1.2 1 0.027 0.0181624 0.0234701 0.0255156 0.0193818 0.0435933 0.0451653 0.060888 0.0371653 0.0499311 0.0381269 0.0670062 0.0514419 0.0563019 0.0647117 0.0573826 0.0655903 0.0615496 0.0633037 0.0690175
89 3 O 1.93416 15.2965 1.4948 -1.2 1 0.0370785 0.0147137 0.0219876 0.013076 0.0350646 0.0302668 0.0361888 0.0589735 0.0429432 0.0467242 0.0486064 0.0504157 0.046649 0.0740907 0.0809348 0.0776745 0.0590207 0.0740023 0.0623234 0.0773941
90 3 O 4.85636 15.5644 0.196716 -1.2 1 0.0260814 0.0109725 0.0223545 0.0196344 0.0236616 0.0514353 0.0506465 0.0401219 0.0410598 0.0464934 0.0366009 0.033697 0.0640773 0.0547631 0.0672885 0.0684616 0.0748689 0.0632856 0.0721279 0.0676286
91 1 Mg 6.44662 14.247 2.9896 1.2 1 0.010197 0.0180238 0.0227293 0.0217573 0.0190424 0.0355292 0.0379768 0.0538357 0.0361217 0.0572954 0.0335584 0.0630256 0.0249097 0.0672972 0.0461764 0.077293 0.0454344 0.0917617 0.0434024 0.0924298
92 3 O 4.81537 15.5644 2.79288 -1.2 1 0.0144159 0.00745395 0.0274759 0.0132619 0.02714 0.0382795 0.0463103 0.0479377 0.0455744 0.0390606 0.0515363 0.0406062 0.0523832 0.0561683 0.0752396 0.0667359 0.076072 0.0537383 0.0732901 0.0756891
93 1 Mg -0.948271 14.2883 4.4844 1.2 1 0.0179021 0.012115 0.0132713 0.0276235 0.0239233 0.0301476 0.0360182 0.0350875 0.0443382 0.0480827 0.0578883 0.056892 0.0653678 0.0696492 0.0595138 0.0721486 0.0719505 0.0942557 0.072696 0.080437
94 2 Si -2.75928 16.9724 4.4844 2.4 1 0.0200025 0.0114108 0.0184849 0.0276533 0.0296439 0.0418407 0.0584968 0.0320807 0.0550365 0.0626438 0.0519339 0.0628618 0.0598995 0.0549711 0.0777809 0.0730207 0.046823 0.0935312 0.0519815 0.0633659
95 3 O -2.81617 15.3592 4.4844 -1.2 1 0.0160458 0.0196035 0.00864884 0.0248969 0.0300923 0.023839 0.0427298 0.0626199 0.0430505 0.0510832 0.0383844 0.0722517 0.0484612 0.0584762 0.0691404 0.0685506 0.0526085 0.0746511 0.066128 0.0753822
96 3 O 0.862762 17.9465 4.4844 -1.2 1 0.0184194 0.0243479 0.0211445 0.0159255 0.0216005 0.0469231 0.0341533 0.0542238 0.0468188 0.0533822 0.0397945 0.0480843 0.0440981 0.0705228 0.105464 0.0555762 0.070646 0.0526679 0.0749641 0.0681707
97 3 O -2.0185 17.6786 3.18632 -1.2 1 0.0220502 0.0123924 0.0173845 0.0171712 0.0198277 0.038097 0.0424572 0.0544279 0.0447674 0.05193 0.0536162 0.0503084 0.0551451 0.0485707 0.0813544 0.0610999 0.0688568 0.0650136 0.0651167 0.0688839
98 3 O -2.06164 17.6786 5.78248 -1.2 1 0.0110661 0.00862376 0.024598 0.0217324 0.0173351 0.0312939 0.0494309 0.0477452 0.0389632 0.0375557 0.0571382 0.040013 0.0601815 0.0640654 0.0845275 0.0701979 0.0713321 0.0650794 0.0694388 0.0759011
99 1 Mg 1.39817 16.6215 2.9896 1.2 1 0.00605307 0.0164774 0.0190508 0.0226249 0.0183166 0.0358172 0.0375455 0.0529215 0.0370054 0.0596119 0.0358824 0.0568635 0.0234526 0.0672756 0.0471476 0.0807093 0.0491702 0.0909982 0.0446969 0.0886909
100 1 Mg 4.20062 16.5802 4.4844 1.2 1 0.0151677 0.0109373 0.0157876 0.0255032 0.0257983 0.0306135 0.0399545 0.0342526 0.047332 0.0527785 0.0534846 0.0558212 0.0673062 0.0698936 0.051627 0.0731983 0.071563 0.0968995 0.0745197 0.0795253
101 2 Si 2.37796 18.645 4.4844 2.4 1 0.0220503 0.0119195 0.0238782 0.0248374 0.0237661 0.0378709 0.0603783 0.0321875 0.0559776 0.0579581 0.0508685 0.0610105 0.0600818 0.055606 0.0739754 0.0690317 0.0458843 0.0990288 0.0528216 0.0563615
102 3 O 2.39434 20.2583 4.4844 -1.2 1 0.0217399 0.0111392 0.00751266 0.0160736 0.0233753 0.0223162 0.0396345 0.0590593 0.0415533 0.0488874 0.0415995 0.0738592 0.0519304 0.0625733 0.0713596 0.0688289 0.0486376 0.0692273 0.0679737 0.0781439
103 3 O -4.24274 17.671 4.4844 -1.2 1 0.00932833 0.0203187 0.0217271 0.0211647 0.0207413 0.0511913 0.0335809 0.0507296 0.0424981 0.0518633 0.0401439 0.0507157 0.0496551 0.0714715 0.101981 0.0630781 0.0771273 0.05471 0.0791992 0.0701996
104 3 O 3.08659 17.9389 3.18632 -1.2 1 0.0281981 0.0134108 0.0216388 0.0110086 0.0171604 0.0384209 0.0371155 0.0559178 0.0433359 0.0519566 0.055485 0.047737 0.0519711 0.0493875 0.0803582 0.0584074 0.0677522 0.0604198 0.0647136 0.0696957
105 1 Mg 1.44478 16.6215 0 1.2 1 0.00954412 0.0121203 0.0216892 0.0128448 0.0267482 0.0314037 0.0478645 0.0353037 0.050701 0.0504333 0.0517927 0.0398566 0.0587921 0.0495488 0.0698229 0.0662368 0.0599858 0.0679114 0.0884957 0.0641377
106 3 O 3.0436 17.9389 5.78248 -1.2 1 0.0161892 0.0113253 0.0212219 0.021018 0.0165367 0.0250759 0.0470824 0.0482923 0.0386809 0.0409557 0.0578805 0.0395349 0.0538552 0.0604616 0.0879937 0.0658316 0.0684686 0.0628006 0.0650031 0.0789433
107 1 Mg -1.40524 16.6628 1.4948 1.2 1 0.0115963 0.0125209 0.0257435 0.0176992 0.0174114 0.0344422 0.0360759 0.0426185 0.0410862 0.0603905 0.0401546 0.06251 0.054973 0.0646546 0.0742029 0.0693295 0.0644403 0.0779928 0.078283 0.0759338
108 2 Si 0.420358 14.5979 1.4948 2.4 1 0.020904 0.0197049 0.0271789 0.0268 0.0181336 0.0393579 0.0395949 0.0397619 0.0450625 0.0554666 0.04419 0.0601266 0.0579312 0.0637645 0.0677238 0.0597206 0.0724101 0.0761986 0.0625346 0.0718082
109 3 O 0.408732 12.9847 1.4948 -1.2 1 0.0222172 0.0154573 0.022843 0.0256879 0.0166489 0.0470831 0.043803 0.053901 0.0360778 0.0527815 0.0421148 0.0693696 0.053115 0.0567979 0.065976 0.0637531 0.0713769 0.055194 0.0680874 0.0720328
110 3 O 7.03923 15.572 1.4948 -1.2 1 0.0292994 0.0168358 0.0217301 0.0128755 0.0361256 0.0337512 0.0367603 0.0561547 0.0385483 0.0444003 0.0511609 0.0529333 0.0478791 0.07445 0.078164 0.0782797 0.0642592 0.0695866 0.0621911 0.0777245
111 3 O -0.248332 15.3041 0.196716 -1.2 1 0.0189675 0.0129715 0.0212164 0.0183322 0.0251755 0.0464124 0.0488309 0.0430163 0.0390986 0.0445573 0.0380555 0.0306489 0.0607956 0.0543071 0.0700112 0.0643479 0.0833018 0.050319 0.0704529 0.0723966
112 3 O -0.289436 15.3041 2.79288 -1.2 1 0.0143198 0.0176137 0.0292652 0.0111681 0.0311543 0.0359658 0.0437623 0.0471325 0.0436594 0.0403473 0.0543924 0.0488703 0.0512756 0.0531235 0.0726209 0.069916 0.0718378 0.0547414 0.069396 0.076036
113 1 Mg 6.59566 18.996 0 1.2 1 0.0139034 0.0115917 0.0199365 0.0143082 0.0260373 0.0318079 0.0430927 0.0330763 0.0539724 0.0492351 0.0539878 0.038934 0.0520929 0.0526818 0.0721095 0.0645521 0.0642845 0.0647891 0.0861755 0.0706627
114 1 Mg 3.85574 23.7037 1.4948 1.2 1 0.0106708 0.0127465 0.0211359 0.0140601 0.0225241 0.028863 0.0311341 0.0373919 0.0391467 0.0602207 0.0468903 0.0624627 0.0498945 0.0668136 0.0646205 0.0722495 0.0665009 0.0798041 0.0798555 0.075782
115 2 Si 5.66125 21.0195 1.4948 2.4 1 0.00865091 0.0227915 0.0247466 0.0273107 0.0200045 0.045734 0.0337093 0.043508 0.0472691 0.0539281 0.0442247 0.061744 0.055785 0.0596973 0.0709975 0.0604906 0.0734062 0.0775202 0.0648519 0.0751773
116 3 O 5.72074 22.6328 1.4948 -1.2 1 0.028237 0.0190701 0.0182456 0.0228247 0.0191312 0.0445959 0.0455433 0.0619242 0.0383606 0.05206 0.0329163 0.0697331 0.0492358 0.0535744 0.0680012 0.0556172 0.0650504 0.0679876 0.0561766 0.0714096
117 3 O 2.03867 20.0455 1.4948 -1.2 1 0.0300415 0.0165056 0.0267518 0.0160018 0.0341981 0.0300067 0.035881 0.0554087 0.0440808 0.042835 0.0505182 0.0505627 0.047624 0.0736898 0.084806 0.0725229 0.0617001 0.0678609 0.0636161 0.0731602
118 3 O 4.96004 20.3134 0.196716 -1.2 1 0.0211173 0.0104236 0.0229409 0.0188182 0.0232406 0.0453338 0.043919 0.047899 0.0389301 0.0400055 0.0410275 0.0343057 0.0645882 0.0474731 0.069661 0.0727821 0.0715123 0.0581948 0.0715686 0.0720756
119 1 Mg 6.55057 18.996 2.9896 1.2 1 0.00905281 0.0168336 0.020286 0.0212444 0.0210443 0.0343673 0.0374108 0.0555231 0.0345099 0.0599954 0.0351377 0.0621952 0.0226432 0.0698852 0.0443641 0.0737774 0.0458142 0.0949539 0.0432339 0.0931479
120 3 O 4.92172 20.3134 2.79288 -1.2 1 0.0100874 0.0114635 0.0313871 0.0151542 0.0299098 0.040027 0.0461493 0.0455202 0.0475368 0.042475 0.0527977 0.0405528 0.0537553 0.0538314 0.0770522 0.0672885 0.0762584 0.0483109 0.0718222 0.0717123
121 1 Mg -0.84282 19.0373 4.4844 1.2 1 0.0138987 0.012449 0.013904 0.027894 0.0235265 0.0268801 0.0375971 0.032053 0.0462279 0.0491589 0.0599289 0.0566727 0.0663952 0.0693695 0.0581941 0.0724403 0.0713289 0.0931638 0.0736265 0.0836278
122 2 Si -2.64823 21.7214 4.4844 2.4 1 0.0144028 0.0136427 0.0174878 0.0255111 0.0292828 0.0423574 0.0557321 0.0312249 0.0537891 0.0622421 0.0516905 0.0640074 0.0595237 0.0546756 0.0766105 0.0718169 0.0471905 0.0957848 0.0546374 0.0638246
123 3 O -2.70847 20.1082 4.4844 -1.2 1 0.0115497 0.0205267 0.013052 0.0256447 0.0279659 0.0252061 0.041527 0.0651014 0.0449004 0.0501993 0.0399221 0.0708305 0.0508071 0.059428 0.068516 0.066446 0.0517503 0.0734979 0.0672972 0.0769376
124 3 O 0.97581 22.6955 4.4844 -1.2 1 0.015766 0.0255099 0.0197703 0.0172243 0.0195375 0.0418296 0.031484 0.0514933 0.0451352 0.0549692 0.039621 0.0466568 0.0462717 0.0720539 0.10789 0.0520303 0.0673149 0.0550391 0.0749064 0.0659535
125 3 O -1.9076 22.4276 3.18632 -1.2 1 0.0203949 0.00743663 0.0206735 0.0138643 0.0155461 0.0386355 0.0453455 0.0561763 0.0398547 0.0482449 0.0554909 0.0483463 0.0559058 0.0504956 0.080488 0.0589301 0.0683432 0.0653032 0.0617266 0.066201
126 3 O -1.9475 22.4276 5.78248 -1.2 1 0.0153631 0.0141473 0.0222743 0.0230557 0.0153575 0.0254283 0.0477333 0.0446755 0.0373447 0.0392761 0.0569934 0.0384703 0.0552306 0.0587014 0.0833476 0.0678913 0.0685353 0.0628915 0.0661518 0.0771491