ITEM: TIMESTEP
21900
ITEM: NUMBER OF ATOMS
10500
ITEM: BOX BOUNDS xy xz yz pp pp pp
0	15.2977	5.09925
0	118.725	0
0	89.688	0
ITEM: ATOMS id type element xu yu zu q Q_1 Q_2 Q_3 Q_4 Q_5 Q_6 Q_7 Q_8 Q_9 Q_10 Q_11 Q_12 Q_13 Q_14 Q_15 Q_16 Q_17 Q_18 Q_19 Q_20 Q_21
1 1 Mg 6.2404 -6.37941e-06 0 1.2 1 0.0133914 0.0408958 0.0294302 0.035633 0.0337303 0.0411042 0.0363845 0.068709 0.0396024 0.0711456 0.0339038 0.0591526 0.0459397 0.0681288 0.0493244 0.0924258 0.0515253 0.0842433 0.0514568 0.10323
2 1 Mg 3.46349 4.70768 1.4948 1.2 1 0.0124638 0.0161784 0.0252094 0.0235564 0.0198576 0.0414497 0.0435612 0.0410634 0.0477015 0.0557162 0.0420364 0.0698275 0.057797 0.0704984 0.0729686 0.0645362 0.0668015 0.0849088 0.0739575 0.0823495
3 2 Si 5.2885 2.02354 1.4948 2.4 1 0.0199415 0.0221464 0.0338412 0.0285103 0.0301744 0.0375651 0.0536192 0.0327323 0.0436885 0.0539221 0.0544711 0.0618735 0.0550955 0.0649256 0.0678685 0.0797099 0.0707861 0.0645448 0.063991 0.0729307
4 3 O 5.33628 3.63678 1.4948 -1.2 1 0.00936777 0.0141332 0.0268046 0.0260356 0.0184499 0.0390445 0.0418076 0.060212 0.0351833 0.0401602 0.0546971 0.0507135 0.067741 0.0576298 0.0591282 0.0647084 0.0603438 0.0616816 0.0710338 0.0746492
5 3 O 1.67294 1.04952 1.4948 -1.2 1 0.0163341 0.021881 0.0233004 0.0357055 0.0297665 0.038709 0.0341291 0.0607032 0.0348642 0.0592777 0.0441982 0.0508499 0.0715832 0.0596843 0.0763646 0.069458 0.0631526 0.0645636 0.0794074 0.0608038
6 3 O 4.59532 1.31737 0.196716 -1.2 1 0.0258429 0.0221166 0.0575501 0.0252688 0.0333342 0.0488336 0.038631 0.0474893 0.0337468 0.039271 0.0383244 0.0502793 0.0541817 0.0574807 0.0632303 0.0701829 0.0621635 0.0715764 0.0592935 0.0708869
7 1 Mg 6.18956 -6.37941e-06 2.9896 1.2 1 0.0122757 0.0264947 0.0169014 0.021907 0.0372802 0.0422802 0.0504871 0.0409186 0.0490043 0.0455935 0.0397531 0.0546818 0.0392021 0.0552017 0.0590752 0.0790582 0.0561073 0.0682897 0.0601731 0.0712961
8 3 O 4.55118 1.31737 2.79288 -1.2 1 0.0242418 0.0257569 0.0408188 0.0169225 0.0285355 0.0438841 0.0442299 0.0479125 0.043861 0.0543356 0.054604 0.0486635 0.0498313 0.0660878 0.0537697 0.0697684 0.0641719 0.0664668 0.0647522 0.0713509
9 1 Mg -1.20682 0.0413099 4.4844 1.2 1 0.0142386 0.0232922 0.0231133 0.0270013 0.0348387 0.0412055 0.0311706 0.0536326 0.0527779 0.0391696 0.0498063 0.063703 0.0661863 0.0549371 0.0766262 0.062371 0.081465 0.0768558 0.0616127 0.0540514
10 2 Si -3.0337 2.72544 4.4844 2.4 1 0.0344448 0.0161828 0.0217894 0.0136883 0.0334054 0.0397758 0.0587476 0.036818 0.0614565 0.0528751 0.0474767 0.0617245 0.0598269 0.0790998 0.0551889 0.0577845 0.0710613 0.0800569 0.0711283 0.0612115
11 3 O -3.08099 1.11221 4.4844 -1.2 1 0.0157838 0.0209088 0.0275441 0.0240714 0.0402748 0.0250318 0.0498693 0.0480966 0.041367 0.0424133 0.0412769 0.0722207 0.0543787 0.0505805 0.0559956 0.068806 0.0536856 0.0785666 0.0706841 0.0769956
12 3 O 0.582463 3.69946 4.4844 -1.2 1 0.0149123 0.0131676 0.0349013 0.0320194 0.0254912 0.0626059 0.0319258 0.0533139 0.0429637 0.0417953 0.0540526 0.0581036 0.0583754 0.0705079 0.101055 0.0697217 0.082908 0.0404703 0.0734612 0.0689052
13 3 O -2.29524 3.43162 3.18632 -1.2 1 0.0146877 0.019376 0.0232119 0.0316436 0.0208555 0.0499845 0.051452 0.0501433 0.0420493 0.0536385 0.0606718 0.0575572 0.0408045 0.0550174 0.0596552 0.067104 0.0690246 0.0622015 0.0627583 0.0711331
14 3 O -2.34216 3.43162 5.78248 -1.2 1 0.0154091 0.00924268 0.0242546 0.0275969 0.0261835 0.0396812 0.0560541 0.0456328 0.0367136 0.0559151 0.0571479 0.0474812 0.0541071 0.0534482 0.0739547 0.0724937 0.0625317 0.070833 0.072295 0.0710484
15 1 Mg 1.12778 2.37449 2.9896 1.2 1 0.0190315 0.0398684 0.0141974 0.023954 0.0244904 0.0432735 0.0407834 0.051372 0.0360833 0.0624648 0.0358082 0.0617861 0.0401164 0.0674287 0.0642722 0.0704336 0.0686529 0.0811672 0.046654 0.088168
16 1 Mg 3.92855 2.33318 4.4844 1.2 1 0.0283696 0.0160775 0.023548 0.0293079 0.0441984 0.0251265 0.0385635 0.0370564 0.0458428 0.069163 0.0517927 0.0606089 0.0489219 0.061583 0.0545298 0.0748364 0.0629122 0.0955069 0.0746482 0.0857242
17 2 Si 2.09341 4.39804 4.4844 2.4 1 0.019573 0.0203033 0.0317788 0.0184105 0.0427661 0.0270846 0.0603458 0.0220755 0.0439539 0.045936 0.064055 0.0620104 0.0698833 0.0601603 0.0705504 0.0745443 0.0713133 0.0818737 0.0533045 0.0654983
18 3 O 2.09991 6.01128 4.4844 -1.2 1 0.0117626 0.0124961 0.0168678 0.0184637 0.0356434 0.0217148 0.0522867 0.0528437 0.0461805 0.0453568 0.0474162 0.0684498 0.0473134 0.0631424 0.0622876 0.0739017 0.0442678 0.0802859 0.0614732 0.0703186
19 3 O -4.52137 3.42402 4.4844 -1.2 1 0.0177137 0.0278185 0.0361002 0.0225972 0.0270471 0.056275 0.0392461 0.0484487 0.0542176 0.0586878 0.0295527 0.0568634 0.053362 0.0535761 0.0914617 0.0737416 0.0781077 0.0601228 0.0741114 0.0542858
20 3 O 2.80834 3.69187 3.18632 -1.2 1 0.00729529 0.0182911 0.019852 0.0257122 0.021414 0.0385198 0.0363946 0.0510897 0.0451243 0.059111 0.0679196 0.0515546 0.0426662 0.0647249 0.0721488 0.073439 0.0608757 0.0585725 0.0692066 0.0713278
21 1 Mg 1.17857 2.37449 0 1.2 1 0.0147525 0.034524 0.0288213 0.0280323 0.0378155 0.0381258 0.0437725 0.0590255 0.0360621 0.049565 0.0507788 0.0418255 0.0417975 0.0669148 0.055819 0.0639073 0.0612894 0.0809194 0.0596384 0.0737407
22 3 O 2.76143 3.69187 5.78248 -1.2 1 0.00710991 0.0217821 0.0159973 0.0218589 0.0178884 0.0329509 0.0392419 0.0466151 0.0333086 0.0450405 0.0614919 0.0434255 0.0540627 0.0758872 0.072094 0.0689034 0.0692306 0.0600195 0.0730124 0.0734565
23 1 Mg -1.67381 2.41581 1.4948 1.2 1 0.0114091 0.0115388 0.0371922 0.036285 0.0322913 0.044035 0.0586447 0.0403754 0.0509937 0.0403316 0.0463661 0.0594781 0.0550367 0.0636897 0.0612436 0.0647276 0.0832734 0.0775293 0.0666304 0.0740719
24 2 Si 0.16286 0.350945 1.4948 2.4 1 0.0170129 0.0329038 0.0258002 0.0270909 0.0325284 0.0350107 0.0549126 0.0510079 0.0523935 0.0488934 0.0399522 0.0580291 0.072406 0.0689827 0.0587943 0.0742056 0.0721834 0.0655178 0.0731532 0.0663925
25 3 O 0.15972 -1.26229 1.4948 -1.2 1 0.00772372 0.0197831 0.0375155 0.0234198 0.0349845 0.0372554 0.0462024 0.054267 0.0486308 0.0514744 0.0562026 0.0581165 0.0629415 0.067358 0.0504985 0.0594569 0.0698581 0.0671176 0.0616044 0.0728535
26 3 O 6.77654 1.32496 1.4948 -1.2 1 0.011468 0.0276935 0.0266451 0.0276399 0.0372407 0.0544381 0.0343196 0.0647204 0.0476381 0.0466004 0.0443479 0.0524106 0.0525461 0.0595217 0.0686936 0.0713994 0.0845621 0.0630363 0.0598291 0.074625
27 3 O -0.508028 1.05712 0.196716 -1.2 1 0.0247148 0.0191579 0.0295529 0.0208107 0.0295716 0.0528259 0.0438224 0.0444028 0.0474713 0.0483005 0.0501823 0.0476788 0.0492402 0.0632159 0.0547857 0.0626837 0.0633282 0.0588629 0.0726681 0.0717596
28 3 O -0.552171 1.05712 2.79288 -1.2 1 0.0356308 0.0281073 0.0367909 0.0325481 0.0226462 0.0440102 0.0397026 0.0450362 0.0433902 0.036843 0.0496523 0.0490618 0.0578411 0.0605592 0.0640664 0.0750947 0.0740442 0.0505371 0.0701378 0.0701463
29 1 Mg 6.31713 4.74899 0 1.2 1 0.0272799 0.0291958 0.0304009 0.03671 0.0325566 0.0267913 0.041953 0.0559228 0.0586126 0.0494424 0.0509638 0.0384161 0.0593976 0.0613089 0.0656266 0.0637473 0.0659211 0.073556 0.0696071 0.0702922
30 1 Mg 3.54847 9.45668 1.4948 1.2 1 0.0125381 0.019266 0.0160991 0.0215694 0.0199259 0.0385661 0.0388467 0.0418443 0.0438958 0.0556668 0.0372522 0.0710413 0.0546102 0.0654855 0.0756303 0.0619516 0.0659484 0.0886539 0.0746081 0.0796685
31 2 Si 5.36879 6.77254 1.4948 2.4 1 0.0290225 0.0269766 0.023992 0.025666 0.0246907 0.0350353 0.0443189 0.0361278 0.0448194 0.0571773 0.0421694 0.0581596 0.053438 0.0667398 0.0656001 0.0741997 0.0674562 0.0791634 0.0564574 0.0687397
32 3 O 5.41937 8.38578 1.4948 -1.2 1 0.0214739 0.011431 0.0234509 0.0297288 0.0174673 0.043214 0.0441959 0.0574255 0.0366114 0.0510139 0.0473611 0.0640859 0.0549476 0.0539207 0.0656849 0.0605463 0.0727903 0.0558483 0.0734692 0.0730868
33 3 O 1.75158 5.79852 1.4948 -1.2 1 0.0284809 0.012288 0.0223933 0.0265444 0.044111 0.0306964 0.0392927 0.057126 0.0406003 0.0526735 0.049461 0.050645 0.0474725 0.0711463 0.0785881 0.0783572 0.0604083 0.0752288 0.0597878 0.0765653
34 3 O 4.67421 6.06637 0.196716 -1.2 1 0.0145843 0.0264957 0.0315522 0.0243317 0.032039 0.0378233 0.0345501 0.0322456 0.0448113 0.0561723 0.0392696 0.0443152 0.0668393 0.0561861 0.0676452 0.0712281 0.0714126 0.0657779 0.0632178 0.0683069
35 1 Mg 6.26654 4.74899 2.9896 1.2 1 0.0231287 0.0284378 0.0250176 0.0397471 0.0269846 0.0426497 0.0488163 0.0488549 0.0347554 0.0640218 0.0381419 0.0597544 0.0396585 0.0636044 0.0512873 0.0795748 0.0565343 0.083677 0.0439787 0.0892941
36 3 O 4.63043 6.06637 2.79288 -1.2 1 0.0160853 0.0193213 0.0425211 0.0202668 0.0326173 0.0354652 0.0426269 0.0483481 0.0453699 0.036972 0.0493534 0.0526217 0.0577334 0.0662086 0.0627313 0.0743916 0.0666026 0.0665917 0.0679889 0.084939
37 1 Mg -1.12976 4.79031 4.4844 1.2 1 0.0204237 0.0272628 0.0100686 0.0118678 0.0392971 0.0367592 0.0499833 0.0505844 0.0427447 0.0431853 0.0561771 0.0609092 0.0750312 0.067779 0.0625559 0.0690311 0.0689103 0.0941369 0.0710684 0.0818621
38 2 Si -2.9517 7.47444 4.4844 2.4 1 0.0227339 0.0137785 0.0208002 0.028418 0.0304372 0.0418345 0.0623019 0.0281081 0.0552523 0.0577717 0.0525253 0.056424 0.062279 0.056857 0.079689 0.0706143 0.052142 0.0877859 0.055692 0.0600383
39 3 O -3.00198 5.86121 4.4844 -1.2 1 0.0157761 0.0239086 0.0269781 0.0289145 0.0322208 0.0316395 0.0539501 0.059697 0.0376642 0.0541599 0.0471185 0.0709902 0.0572264 0.0554726 0.0648925 0.0711772 0.048965 0.0770369 0.0615828 0.0791629
40 3 O 0.666315 8.44846 4.4844 -1.2 1 0.0196421 0.0201845 0.0242664 0.0158773 0.0222589 0.0513946 0.0343976 0.0499621 0.0449411 0.0489784 0.0384612 0.0527734 0.048009 0.0742717 0.100697 0.0680529 0.0768634 0.0470802 0.0695321 0.0726376
41 3 O -2.21213 8.18062 3.18632 -1.2 1 0.0171619 0.0102351 0.0200247 0.0160797 0.0147875 0.0344088 0.0455146 0.0559169 0.0425285 0.056856 0.0527337 0.0510915 0.0533457 0.0472248 0.0780247 0.0617734 0.0728639 0.0592911 0.0676771 0.0708419
42 3 O -2.25864 8.18062 5.78248 -1.2 1 0.010972 0.0148772 0.0215011 0.0210688 0.0195019 0.0315439 0.0496449 0.0472964 0.0388115 0.0402091 0.05527 0.0398519 0.0579708 0.0590954 0.0809147 0.0700179 0.070577 0.0615858 0.0690361 0.076561
43 1 Mg 1.20893 7.12349 2.9896 1.2 1 0.00765097 0.0225059 0.0186269 0.0248981 0.0240873 0.0391284 0.0434129 0.0464573 0.0346109 0.0659769 0.0392812 0.0660417 0.0363811 0.0583723 0.052475 0.079386 0.0516598 0.0834013 0.0477245 0.0882886
44 1 Mg 4.00982 7.08218 4.4844 1.2 1 0.0227371 0.0145797 0.022686 0.0344753 0.0369002 0.0307108 0.0447956 0.0367558 0.0454558 0.0519921 0.0574031 0.0563187 0.0735325 0.0706621 0.0617058 0.0692087 0.06127 0.0968613 0.0764778 0.0819642
45 2 Si 2.17861 9.14704 4.4844 2.4 1 0.0300417 0.01128 0.0193945 0.0204225 0.0318304 0.0330017 0.0631607 0.0222934 0.04928 0.0558898 0.0549093 0.059312 0.0653419 0.0565191 0.0800899 0.070232 0.0507046 0.0922522 0.0558362 0.057367
46 3 O 2.18828 10.7603 4.4844 -1.2 1 0.0185396 0.0131663 0.00770154 0.015735 0.0295587 0.0223568 0.0443629 0.0601368 0.0400375 0.0530636 0.0414475 0.0733073 0.0449717 0.0649187 0.0694802 0.0753631 0.0455985 0.072726 0.0644445 0.0718273
47 3 O -4.43805 8.17302 4.4844 -1.2 1 0.019241 0.0220622 0.0169224 0.0165034 0.0238912 0.0539595 0.0366521 0.0482765 0.0445686 0.0483488 0.0359885 0.0535405 0.0526669 0.0707018 0.098664 0.0655877 0.0808759 0.0536287 0.0741899 0.0735068
48 3 O 2.89193 8.44087 3.18632 -1.2 1 0.0180425 0.01564 0.018404 0.0147401 0.0214635 0.0424386 0.0335394 0.0564317 0.0434204 0.0511261 0.0583359 0.0497327 0.0511455 0.0523674 0.0802052 0.0634214 0.0695573 0.058506 0.0644581 0.0738483
49 1 Mg 1.25915 7.12349 0 1.2 1 0.0216642 0.0146458 0.0266126 0.0137134 0.0308261 0.0244642 0.0502543 0.0409622 0.0562281 0.0496502 0.053712 0.0429796 0.070643 0.0521579 0.0694366 0.0708822 0.064324 0.0712471 0.0803749 0.0586415
50 3 O 2.84547 8.44087 5.78248 -1.2 1 0.0113529 0.0133228 0.0171608 0.0201597 0.0206275 0.0290874 0.0439291 0.0482503 0.0388559 0.0413586 0.0588884 0.0409859 0.0562408 0.0618511 0.0890212 0.0644889 0.0724501 0.0625546 0.0674281 0.0758975
51 1 Mg -1.59284 7.16481 1.4948 1.2 1 0.00988095 0.0163045 0.0205821 0.0203224 0.0150528 0.0371695 0.046305 0.0427686 0.0434623 0.0577373 0.0391073 0.0661287 0.0522248 0.0689651 0.0756471 0.0607813 0.0674142 0.0843926 0.0737934 0.0786771
52 2 Si 0.240329 5.09994 1.4948 2.4 1 0.0246683 0.0174205 0.0158527 0.0433982 0.027142 0.0405396 0.0467107 0.0533075 0.0551568 0.0485549 0.045717 0.0580211 0.0591161 0.0676622 0.0655638 0.0664447 0.0640374 0.0726946 0.0660747 0.0684328
53 3 O 0.234538 3.48671 1.4948 -1.2 1 0.0131326 0.0163189 0.0266263 0.0358043 0.0314793 0.0491329 0.0459454 0.042377 0.0528178 0.0467019 0.0522091 0.0616846 0.0563011 0.0608978 0.0618537 0.062553 0.0631421 0.0573048 0.0757905 0.0743908
54 3 O 6.85564 6.07396 1.4948 -1.2 1 0.0324853 0.0196252 0.0346581 0.0275687 0.0372172 0.0403676 0.0324041 0.0624323 0.0364549 0.0531928 0.0537826 0.0536402 0.0553944 0.073338 0.0698477 0.0771035 0.066445 0.072083 0.0531658 0.0853452
55 3 O -0.429565 5.80612 0.196716 -1.2 1 0.0340015 0.019975 0.0158949 0.0212368 0.0409673 0.0374836 0.0538614 0.0450987 0.0459909 0.0565008 0.0397821 0.0419323 0.0532332 0.0599137 0.0600384 0.0680083 0.0703721 0.0611352 0.0652753 0.0741632
56 3 O -0.473377 5.80612 2.79288 -1.2 1 0.0249306 0.0209542 0.0342496 0.0187239 0.0344709 0.0465584 0.0491448 0.048827 0.0548036 0.0455761 0.0622293 0.0380834 0.0435892 0.0594146 0.0664284 0.0720044 0.0652783 0.0688289 0.0709489 0.0802238
57 1 Mg 6.40169 9.49799 0 1.2 1 0.0126454 0.0117901 0.0212378 0.0143491 0.0305206 0.0213533 0.0522923 0.0355799 0.0586565 0.0493034 0.0498585 0.0355292 0.0670806 0.052503 0.0711173 0.0672002 0.0655093 0.0704777 0.0810102 0.0684345
58 1 Mg 3.64209 14.2057 1.4948 1.2 1 0.00623524 0.013944 0.0176827 0.0196626 0.0220492 0.0341162 0.0367264 0.042901 0.0401874 0.0547563 0.0388673 0.0683137 0.054299 0.0667649 0.074838 0.0630071 0.064289 0.0833103 0.0748865 0.0782322
59 2 Si 5.45748 11.5215 1.4948 2.4 1 0.0119282 0.0218391 0.0233274 0.024871 0.0179869 0.0402249 0.0398009 0.0399955 0.0437787 0.0547838 0.0424517 0.0605967 0.0530422 0.0660885 0.0694101 0.0636735 0.0707767 0.0817905 0.0577991 0.0663735
60 3 O 5.51101 13.1348 1.4948 -1.2 1 0.0240911 0.0134983 0.0223087 0.0294047 0.0197954 0.0433901 0.0445573 0.0589432 0.0365734 0.0495443 0.0430817 0.0674144 0.0533481 0.0530844 0.065617 0.060376 0.0709705 0.0578228 0.0695811 0.0720887
61 3 O 1.83851 10.5475 1.4948 -1.2 1 0.0395301 0.0146126 0.0197804 0.0108135 0.0361803 0.0315669 0.0368531 0.0576843 0.039353 0.04777 0.0501249 0.0512241 0.0478511 0.0742934 0.0753195 0.0788952 0.0575239 0.0761071 0.0572288 0.078906
62 3 O 4.7611 10.8154 0.196716 -1.2 1 0.0357309 0.0192799 0.0198642 0.018115 0.0267295 0.0442195 0.048307 0.0374824 0.0387791 0.0492807 0.0368881 0.041026 0.0607016 0.0606847 0.0649834 0.0713697 0.0753398 0.0657205 0.0727979 0.067758
63 1 Mg 6.35203 9.49799 2.9896 1.2 1 0.0119589 0.0171611 0.0214599 0.0189332 0.0188854 0.0370553 0.0369675 0.0506582 0.0349126 0.0586124 0.032918 0.063638 0.0288925 0.0670691 0.0469892 0.077631 0.0437374 0.0915798 0.0468468 0.0912524
64 3 O 4.71833 10.8154 2.79288 -1.2 1 0.0213489 0.0133119 0.0326912 0.0129928 0.0305654 0.0429513 0.0434384 0.0452077 0.0430227 0.0378008 0.0529009 0.0416825 0.0545126 0.0585374 0.0738671 0.0688412 0.0729175 0.058726 0.0697731 0.0791915
65 1 Mg -1.0438 9.53931 4.4844 1.2 1 0.0146413 0.0173681 0.0163995 0.0240102 0.0266411 0.0284937 0.0400303 0.0347398 0.0456996 0.0511197 0.0579967 0.0565104 0.0692472 0.0703274 0.0584915 0.0687811 0.0717534 0.100124 0.0694837 0.0847081
66 2 Si -2.8604 12.2234 4.4844 2.4 1 0.0171871 0.0100774 0.0172839 0.0303462 0.0296764 0.0402583 0.0610027 0.0298931 0.0544145 0.0633458 0.0549765 0.0621044 0.0590804 0.0537207 0.0783831 0.0717037 0.0498943 0.0905225 0.0549335 0.0651422
67 3 O -2.91391 10.6102 4.4844 -1.2 1 0.0192045 0.0113673 0.0121143 0.0223977 0.0280231 0.0223951 0.0463918 0.0640186 0.0406091 0.0496109 0.0360836 0.0708411 0.0434652 0.0592938 0.0657827 0.0705842 0.0494077 0.0726162 0.0598768 0.0761819
68 3 O 0.7596 13.1975 4.4844 -1.2 1 0.0254905 0.021545 0.0194524 0.0149537 0.0235118 0.0482439 0.0349137 0.0509026 0.0448224 0.0488521 0.0407039 0.0501487 0.0486278 0.070861 0.100621 0.0611335 0.0768361 0.0537478 0.0730085 0.0711625
69 3 O -2.12001 12.9296 3.18632 -1.2 1 0.0201215 0.00705498 0.0214703 0.0169214 0.01942 0.0367119 0.0409583 0.0544134 0.0440664 0.0539101 0.0524756 0.0498191 0.0561514 0.0504061 0.0806448 0.0620083 0.0731331 0.0639641 0.0662723 0.0697734
70 3 O -2.16532 12.9296 5.78248 -1.2 1 0.0140367 0.0176254 0.0216955 0.0268805 0.0185982 0.0254864 0.0512387 0.0441472 0.0395908 0.0390592 0.0547143 0.0376331 0.0575054 0.0608167 0.0831315 0.0687489 0.0695786 0.0614934 0.0695705 0.0763164
71 1 Mg 1.29891 11.8725 2.9896 1.2 1 0.00829629 0.0159419 0.0220508 0.0242748 0.0173865 0.0389409 0.0361045 0.049354 0.0351984 0.0597251 0.0342324 0.0595248 0.0243496 0.0671302 0.0484998 0.0835527 0.0492362 0.0896234 0.0477578 0.0864299
72 1 Mg 4.10033 11.8312 4.4844 1.2 1 0.00926917 0.0155883 0.0179176 0.0264572 0.0240357 0.0334017 0.0427354 0.033931 0.0487345 0.050732 0.0536229 0.0526357 0.0672067 0.067668 0.0528489 0.0690749 0.0697626 0.0994812 0.0736818 0.0820111
73 2 Si 2.27333 13.896 4.4844 2.4 1 0.0288792 0.00779942 0.0253973 0.0306662 0.032613 0.0326399 0.0627339 0.0292831 0.0508858 0.0606119 0.0548248 0.0622174 0.0647798 0.0607967 0.0780198 0.0689158 0.0485586 0.0954896 0.0539644 0.055438
74 3 O 2.28634 15.5093 4.4844 -1.2 1 0.0204921 0.0146265 0.00689711 0.0172454 0.0263254 0.0220903 0.0429924 0.0600361 0.0431204 0.0541091 0.0417207 0.071026 0.0457425 0.0628433 0.0691183 0.0719447 0.0478609 0.0692423 0.062536 0.0756458
75 3 O -4.34533 12.922 4.4844 -1.2 1 0.0249124 0.0227836 0.0211371 0.0123541 0.0235863 0.0501565 0.0340661 0.0500852 0.0455254 0.0509984 0.0379806 0.0527093 0.0485473 0.0691962 0.100771 0.0656469 0.0806513 0.0525736 0.0737483 0.0727891
76 3 O 2.98455 13.1899 3.18632 -1.2 1 0.02284 0.0113859 0.0179328 0.0117727 0.0205186 0.0416666 0.0388373 0.0579564 0.045652 0.0524935 0.0563608 0.0494392 0.0510004 0.0515017 0.0811766 0.0622681 0.067265 0.0600765 0.0628978 0.0710101
77 1 Mg 1.34779 11.8725 0 1.2 1 0.0216956 0.00931392 0.022009 0.0150093 0.0287028 0.0229819 0.0515974 0.0348041 0.0574728 0.0510702 0.0496982 0.0350964 0.0649817 0.0498208 0.0703794 0.0640324 0.0619711 0.0697163 0.0875831 0.0592585
78 3 O 2.93934 13.1899 5.78248 -1.2 1 0.0166113 0.0139611 0.0186514 0.0223906 0.0195959 0.0278183 0.0475546 0.0479067 0.0428431 0.0415335 0.0587671 0.0370478 0.0577592 0.0606577 0.0881759 0.0663303 0.0698386 0.0626641 0.06328 0.0780606
79 1 Mg -1.50344 11.9138 1.4948 1.2 1 0.0129531 0.0179583 0.0228602 0.0204279 0.0117292 0.0369833 0.0381819 0.0426601 0.0413418 0.0599715 0.0352488 0.0649794 0.0505922 0.0648296 0.074553 0.0679218 0.0641561 0.0841883 0.0763979 0.0787411
80 2 Si 0.326006 9.84894 1.4948 2.4 1 0.0249961 0.0191879 0.0249568 0.0304414 0.017285 0.0387328 0.044245 0.0376848 0.045018 0.0562057 0.0403973 0.0596883 0.0550918 0.0668322 0.0610287 0.0637637 0.0701521 0.0792739 0.0615578 0.0686632
81 3 O 0.317364 8.23571 1.4948 -1.2 1 0.0224467 0.0125548 0.0226033 0.0240318 0.0202697 0.0453523 0.0429634 0.0499456 0.0348626 0.0542174 0.0442562 0.0657927 0.057503 0.0597315 0.0678481 0.0662052 0.0716095 0.0532566 0.0735835 0.0739714
82 3 O 6.94307 10.823 1.4948 -1.2 1 0.0312329 0.0148597 0.021987 0.0116943 0.0373147 0.0330273 0.0380041 0.0580962 0.0348461 0.0479253 0.051262 0.0526846 0.0499645 0.074537 0.0726135 0.0795314 0.0615304 0.0726991 0.0581342 0.0800699
83 3 O -0.343122 10.5551 0.196716 -1.2 1 0.0309248 0.0175057 0.0216395 0.0208272 0.0298699 0.0413246 0.0510628 0.0395659 0.03874 0.0504829 0.0370263 0.0379088 0.0616989 0.0605288 0.0687517 0.0706781 0.0805718 0.0543566 0.0697592 0.0686525
84 3 O -0.385966 10.5551 2.79288 -1.2 1 0.0304508 0.0141229 0.0278346 0.0145846 0.0328329 0.0426737 0.0446479 0.0470927 0.0432715 0.0393692 0.0528206 0.0481057 0.0476857 0.0534263 0.0690214 0.0700129 0.0662497 0.0626619 0.0686092 0.0805599
85 1 Mg 6.49448 14.247 0 1.2 1 0.0224877 0.0101348 0.0184722 0.0172126 0.0286614 0.02288 0.0479401 0.0328871 0.0592204 0.0482796 0.0512703 0.0375127 0.0626155 0.052883 0.0709962 0.0651016 0.0645454 0.0706316 0.0848699 0.0703019
86 1 Mg 3.74457 18.9547 1.4948 1.2 1 0.0148877 0.0108428 0.0152782 0.0160524 0.0258868 0.0293322 0.0313487 0.0394019 0.0382829 0.0580197 0.0436562 0.0665314 0.0506277 0.0663158 0.0705629 0.0695601 0.0631984 0.0831042 0.0781161 0.0758368
87 2 Si 5.55495 16.2705 1.4948 2.4 1 0.012014 0.0201533 0.0220377 0.0269292 0.0185072 0.0426568 0.0364511 0.0420233 0.0452133 0.0518434 0.0435613 0.0608588 0.0543554 0.064133 0.0697124 0.0590745 0.0730164 0.0797351 0.0608314 0.0707735
88 3 O 5.6115 17.8838 1.4948 -1.2 1 0.0269377 0.0180692 0.0233473 0.0255734 0.0193581 0.0434791 0.0452415 0.0609246 0.0374213 0.0501389 0.0380433 0.0670565 0.051159 0.0560342 0.0643392 0.0574888 0.0656012 0.0616028 0.0633221 0.0691942
89 3 O 1.93416 15.2965 1.4948 -1.2 1 0.0414364 0.0159451 0.0195103 0.00971515 0.0351801 0.0311319 0.0366255 0.0577743 0.0416926 0.0463318 0.0487562 0.0505712 0.0475142 0.0734712 0.0806049 0.0767897 0.0600113 0.0738692 0.0627667 0.0764982
90 3 O 4.85636 15.5644 0.196716 -1.2 1 0.022528 0.0116981 0.0211401 0.01878 0.0253564 0.0513287 0.049512 0.0397132 0.0393126 0.0442183 0.0376755 0.0324862 0.0632571 0.054791 0.0670166 0.0677569 0.0760425 0.0626241 0.0720397 0.068519
91 1 Mg 6.44662 14.247 2.9896 1.2 1 0.0104077 0.0182211 0.0230102 0.0219668 0.0186904 0.035061 0.0383178 0.053082 0.037034 0.0576185 0.0336165 0.0633754 0.024422 0.0673018 0.0468032 0.0767427 0.0454949 0.0911936 0.0432413 0.0924925
92 3 O 4.81537 15.5644 2.79288 -1.2 1 0.0115226 0.00973974 0.0293408 0.0132768 0.0282866 0.0371053 0.0468675 0.0475591 0.0455794 0.0395607 0.0509574 0.0428352 0.0538568 0.0578634 0.0754278 0.0676994 0.0767402 0.0527579 0.0724645 0.075481
93 1 Mg -0.948271 14.2883 4.4844 1.2 1 0.0172186 0.0124401 0.0146637 0.0290228 0.023929 0.028931 0.0373219 0.0352486 0.0436843 0.0494303 0.0594638 0.0563064 0.0674421 0.06893 0.0589869 0.0711655 0.06957 0.0959837 0.0728947 0.081512
94 2 Si -2.75928 16.9724 4.4844 2.4 1 0.0194545 0.0134984 0.0170404 0.0277914 0.0315201 0.0394882 0.0593575 0.0303354 0.0541381 0.064507 0.0533725 0.0616662 0.0600066 0.0552414 0.0787957 0.0719829 0.0488228 0.0908228 0.0534534 0.0640918
95 3 O -2.81617 15.3592 4.4844 -1.2 1 0.0190103 0.0125422 0.0159895 0.0256193 0.0285876 0.0228212 0.0437014 0.0641006 0.0452359 0.050731 0.0363457 0.0716464 0.046272 0.058771 0.0663765 0.0697546 0.0502812 0.0718541 0.0618136 0.0764312
96 3 O 0.862762 17.9465 4.4844 -1.2 1 0.0188479 0.0205852 0.0233715 0.017211 0.019829 0.0464374 0.0374108 0.0505614 0.0460757 0.0545394 0.0392691 0.047466 0.045132 0.0721032 0.10678 0.0589477 0.0706053 0.0537603 0.0728571 0.072902
97 3 O -2.0185 17.6786 3.18632 -1.2 1 0.0249929 0.01084 0.0186691 0.0181497 0.018206 0.0362209 0.041157 0.0539627 0.0418941 0.053804 0.0522152 0.0513288 0.0553567 0.0475866 0.0820407 0.0592745 0.0690077 0.0662281 0.0662744 0.067528
98 3 O -2.06164 17.6786 5.78248 -1.2 1 0.0165597 0.00655431 0.0221868 0.0204011 0.0161056 0.0271768 0.0487161 0.0452835 0.0369474 0.0376841 0.0568069 0.037895 0.0556447 0.058384 0.0814109 0.06856 0.069693 0.0621568 0.0674483 0.0755512
99 1 Mg 1.39817 16.6215 2.9896 1.2 1 0.00605621 0.0149222 0.0187914 0.0229391 0.0201553 0.0372307 0.0381768 0.0532297 0.0375028 0.0611724 0.0367221 0.058755 0.0235575 0.0666156 0.0471304 0.0804872 0.0490144 0.091125 0.045939 0.0895786
100 1 Mg 4.20062 16.5802 4.4844 1.2 1 0.0173155 0.0122283 0.0159619 0.0264054 0.0220511 0.0325617 0.0422758 0.0329437 0.0466857 0.0508314 0.0550748 0.0538561 0.0672217 0.0696243 0.0509587 0.0746623 0.0703769 0.0951585 0.07236 0.0816982
101 2 Si 2.37796 18.645 4.4844 2.4 1 0.0205814 0.0106496 0.0225333 0.021449 0.027121 0.0372202 0.0612169 0.0303995 0.0536836 0.0592621 0.050298 0.0585361 0.0607739 0.0559809 0.0759163 0.0671367 0.0478312 0.0993472 0.0543808 0.0567624
102 3 O 2.39434 20.2583 4.4844 -1.2 1 0.0230535 0.0112848 0.0115548 0.0159209 0.0239872 0.0224623 0.0393834 0.0587295 0.0430303 0.0502362 0.0420631 0.0733476 0.0508151 0.0629278 0.0698155 0.0709243 0.0467957 0.0682273 0.0648137 0.0797643
103 3 O -4.24274 17.671 4.4844 -1.2 1 0.017953 0.0193161 0.0217243 0.0161368 0.0226246 0.0471416 0.0356214 0.0509269 0.0432866 0.0525158 0.0380992 0.0505482 0.0486127 0.0715613 0.101275 0.0619646 0.0765458 0.0540019 0.0761319 0.0705916
104 3 O 3.08659 17.9389 3.18632 -1.2 1 0.0253126 0.0142145 0.0200816 0.0113593 0.018119 0.0403568 0.0381698 0.0558691 0.0461778 0.0495461 0.0570407 0.0473436 0.0518025 0.0512778 0.0802855 0.0596196 0.0662386 0.0596228 0.0638409 0.0694145
105 1 Mg 1.44478 16.6215 0 1.2 1 0.00949997 0.0121766 0.0216681 0.0128278 0.0266874 0.0314114 0.0478854 0.0353018 0.0507414 0.0505431 0.0519654 0.0397365 0.058491 0.0491345 0.0695265 0.0660669 0.060294 0.0676576 0.0886491 0.0636868
106 3 O 3.0436 17.9389 5.78248 -1.2 1 0.0164199 0.0117991 0.0234601 0.0196652 0.0177343 0.0231276 0.0471284 0.0464021 0.0385617 0.0417921 0.0585741 0.0387442 0.0529193 0.0593367 0.08514 0.0663202 0.0696898 0.059369 0.0650592 0.0794658
107 1 Mg -1.40524 16.6628 1.4948 1.2 1 0.0160649 0.0121952 0.0262585 0.0188803 0.0176099 0.0342749 0.0359725 0.0420522 0.0411856 0.0596304 0.0415336 0.062746 0.0544537 0.0642717 0.0710078 0.0705058 0.0644607 0.0771935 0.0782797 0.0756292
108 2 Si 0.420358 14.5979 1.4948 2.4 1 0.0209425 0.0196952 0.027089 0.0267321 0.0181454 0.0393104 0.0397199 0.0397376 0.0452922 0.0553311 0.0441454 0.0602449 0.0581533 0.0635267 0.0681084 0.0593429 0.0723711 0.0764457 0.0622855 0.0720375
109 3 O 0.408732 12.9847 1.4948 -1.2 1 0.0244215 0.0159644 0.0218053 0.0272619 0.0155968 0.0479403 0.0422024 0.0535632 0.0359275 0.0522155 0.0431911 0.0680401 0.05333 0.0557274 0.0640865 0.0623422 0.0714271 0.0549802 0.0674817 0.0731176
110 3 O 7.03923 15.572 1.4948 -1.2 1 0.0292962 0.0169237 0.0218535 0.0129616 0.0361755 0.0335235 0.0368761 0.0559949 0.0382443 0.0442212 0.0512127 0.0529448 0.0481067 0.0745632 0.0782465 0.0782604 0.0642919 0.0697003 0.062305 0.0778122
111 3 O -0.248332 15.3041 0.196716 -1.2 1 0.0190083 0.0129606 0.0212512 0.0182511 0.0252141 0.0463034 0.0487134 0.0428569 0.0390625 0.0445113 0.0380477 0.0307812 0.0607611 0.0542818 0.0699476 0.0643502 0.083048 0.0500981 0.0698348 0.0724129
112 3 O -0.289436 15.3041 2.79288 -1.2 1 0.0147542 0.0140777 0.0296579 0.0113082 0.0303721 0.0387916 0.0447012 0.0468025 0.0454237 0.0399 0.0538587 0.0480245 0.0517194 0.0549934 0.0720446 0.0679911 0.0712893 0.0570985 0.0702831 0.0762587
113 1 Mg 6.59566 18.996 0 1.2 1 0.013755 0.0117041 0.0197719 0.014494 0.0257286 0.0319028 0.0430811 0.0332894 0.0538028 0.0493894 0.0539322 0.0388935 0.0520839 0.0528264 0.0718864 0.0646067 0.0641146 0.0648875 0.0863224 0.0705753
114 1 Mg 3.85574 23.7037 1.4948 1.2 1 0.0107315 0.0126814 0.0211273 0.0140275 0.0224069 0.028805 0.031111 0.0374012 0.0388153 0.0599834 0.0465604 0.0628337 0.0499491 0.0667221 0.0648231 0.0725026 0.0663713 0.079915 0.0800089 0.0758807
115 2 Si 5.66125 21.0195 1.4948 2.4 1 0.00827738 0.0242126 0.0232852 0.027235 0.0192887 0.0461791 0.0341646 0.0415345 0.0492322 0.0542077 0.0454035 0.0605207 0.0558422 0.059515 0.0717878 0.0608164 0.073313 0.0773985 0.0640218 0.0755813
116 3 O 5.72074 22.6328 1.4948 -1.2 1 0.0281957 0.0190574 0.0182255 0.0228419 0.0190776 0.0446038 0.0454592 0.0618849 0.0381707 0.0520314 0.0327433 0.0699031 0.0490813 0.0534736 0.0681735 0.0558984 0.0651514 0.0680462 0.056059 0.0715288
117 3 O 2.03867 20.0455 1.4948 -1.2 1 0.0343633 0.016704 0.0257281 0.0131046 0.0340871 0.0310928 0.0363547 0.0537719 0.042744 0.0417472 0.0507457 0.0502183 0.0484425 0.0739739 0.084653 0.0717071 0.0628484 0.0678747 0.0643415 0.0726057
118 3 O 4.96004 20.3134 0.196716 -1.2 1 0.0242674 0.0103699 0.0243442 0.0197854 0.0223217 0.0456119 0.0450795 0.0479489 0.0403989 0.0420403 0.0404884 0.0352899 0.0654099 0.0477033 0.0697653 0.0737496 0.0702435 0.0583024 0.0706949 0.071479
119 1 Mg 6.55057 18.996 2.9896 1.2 1 0.00918455 0.017204 0.0204752 0.0210943 0.0208791 0.0343083 0.0372058 0.0552537 0.0341216 0.0596652 0.0341233 0.0627041 0.0221986 0.0700323 0.0448596 0.073787 0.0461878 0.0960823 0.0436394 0.0928206
120 3 O 4.92172 20.3134 2.79288 -1.2 1 0.00939484 0.0132508 0.0285382 0.0145759 0.0314908 0.0384923 0.0459042 0.0472463 0.0454374 0.043606 0.0522343 0.0409904 0.0529026 0.0517572 0.0766772 0.0678426 0.0759596 0.0469042 0.0711113 0.0729503
121 1 Mg -0.84282 19.0373 4.4844 1.2 1 0.0145824 0.0129479 0.0156174 0.0275151 0.0262157 0.0263362 0.0383791 0.030607 0.045655 0.0493416 0.0597075 0.0567711 0.0657404 0.068849 0.058338 0.0710001 0.0706161 0.0935431 0.0735615 0.0820021
122 2 Si -2.64823 21.7214 4.4844 2.4 1 0.0151532 0.0137138 0.0176641 0.0256643 0.0288276 0.0420348 0.0555772 0.0312333 0.055183 0.0615156 0.0522418 0.0643802 0.0602597 0.0550634 0.0772533 0.0711244 0.0460357 0.0957204 0.0557698 0.0623647
123 3 O -2.70847 20.1082 4.4844 -1.2 1 0.0150106 0.0172723 0.014293 0.0259401 0.0233336 0.0271612 0.0370406 0.0664114 0.0440007 0.048258 0.0378742 0.0716488 0.0521445 0.0593688 0.068019 0.0649511 0.0551009 0.0713983 0.0654806 0.0756689
124 3 O 0.97581 22.6955 4.4844 -1.2 1 0.0189673 0.0257574 0.0200457 0.0154469 0.0192034 0.0413291 0.0329321 0.0496763 0.0441398 0.0548429 0.0406287 0.0464605 0.0458169 0.0738573 0.105413 0.0535837 0.0663175 0.0557924 0.0731047 0.0660783
125 3 O -1.9076 22.4276 3.18632 -1.2 1 0.021929 0.008188 0.0212162 0.0166953 0.0137421 0.0368345 0.0443831 0.0553359 0.0372783 0.0509493 0.055715 0.04843 0.0565607 0.0485174 0.0807464 0.0577522 0.0684706 0.0665706 0.0627418 0.0653341
126 3 O -1.9475 22.4276 5.78248 -1.2 1 0.0168445 0.0116952 0.0222594 0.0212171 0.0110273 0.0261914 0.0509651 0.0400939 0.0399946 0.0381379 0.0565511 0.0359434 0.052967 0.0586273 0.0825241 0.0656667 0.0691889 0.065109 0.0682969 0.074863