ITEM: TIMESTEP
38000
ITEM: NUMBER OF ATOMS
10500
ITEM: BOX BOUNDS xy xz yz pp pp pp
0	15.2977	5.09925
0	118.725	0
0	89.688	0
ITEM: ATOMS id type element xu yu zu q Q_1 Q_2 Q_3 Q_4 Q_5 Q_6 Q_7 Q_8 Q_9 Q_10 Q_11 Q_12 Q_13 Q_14 Q_15 Q_16 Q_17 Q_18 Q_19 Q_20 Q_21
1 1 Mg 6.2404 -6.37941e-06 0 1.2 1 0.0102484 0.0414236 0.0325432 0.0371479 0.0310471 0.0394432 0.0353985 0.0667129 0.0396724 0.0711325 0.0345707 0.0612248 0.0473484 0.0689171 0.050042 0.090029 0.0512291 0.0830696 0.0501449 0.101498
2 1 Mg 3.46349 4.70768 1.4948 1.2 1 0.0169043 0.0166818 0.0245171 0.0215906 0.0203289 0.0421523 0.0422951 0.0399025 0.0460545 0.0557749 0.0427767 0.0703389 0.0577328 0.0711196 0.0717438 0.0642976 0.0678476 0.0856267 0.0731727 0.0819038
3 2 Si 5.2885 2.02354 1.4948 2.4 1 0.0184412 0.022832 0.0347862 0.0239055 0.0320356 0.0370592 0.0547543 0.0321745 0.0436263 0.0520968 0.0540523 0.0608382 0.0561512 0.0639965 0.0683484 0.0783814 0.0703629 0.0648971 0.0640002 0.0724393
4 3 O 5.33628 3.63678 1.4948 -1.2 1 0.0094128 0.0141451 0.0267773 0.0261167 0.018397 0.039087 0.041916 0.0603064 0.0353662 0.0401927 0.0546103 0.0509272 0.0678338 0.0575188 0.0588775 0.0646369 0.0602835 0.0614918 0.0711492 0.0745747
5 3 O 1.67294 1.04952 1.4948 -1.2 1 0.0162401 0.0217296 0.0234378 0.0354583 0.0297977 0.0385762 0.0341986 0.0605377 0.0349462 0.0590429 0.0441759 0.0510172 0.0715742 0.0596729 0.0763439 0.0696138 0.0631097 0.0643484 0.0797706 0.0605318
6 3 O 4.59532 1.31737 0.196716 -1.2 1 0.0258706 0.0221592 0.05754 0.0251897 0.033333 0.0488187 0.0386855 0.0475728 0.0339965 0.0394737 0.0384867 0.0505691 0.0542211 0.057208 0.0634955 0.0701152 0.0619618 0.0712325 0.0591157 0.0706668
7 1 Mg 6.18956 -6.37941e-06 2.9896 1.2 1 0.0122336 0.0267787 0.0170279 0.0215707 0.0373463 0.043254 0.0501987 0.0409352 0.0483411 0.045453 0.0399488 0.0546772 0.0391378 0.0551401 0.0597279 0.0800653 0.0569361 0.0679387 0.0594324 0.0709562
8 3 O 4.55118 1.31737 2.79288 -1.2 1 0.0241701 0.0256484 0.0405386 0.0169947 0.0283177 0.0441851 0.0440193 0.0480272 0.0436424 0.0540807 0.0540261 0.0491515 0.0495277 0.0665152 0.0537304 0.070219 0.0640241 0.0668342 0.0646698 0.0716011
9 1 Mg -1.20682 0.0413099 4.4844 1.2 1 0.0119313 0.0231235 0.0205809 0.0293041 0.0361464 0.0383663 0.0323461 0.0496821 0.0527543 0.0394294 0.0491555 0.0609921 0.0659531 0.0583743 0.0788342 0.062441 0.0810797 0.075616 0.0637966 0.0538077
10 2 Si -3.0337 2.72544 4.4844 2.4 1 0.0308767 0.0159292 0.0213919 0.0181171 0.0310784 0.0370956 0.0628228 0.0347863 0.0605316 0.0484206 0.0476479 0.0605877 0.0560402 0.0770085 0.0560376 0.0615563 0.072798 0.0805867 0.0754431 0.0588198
11 3 O -3.08099 1.11221 4.4844 -1.2 1 0.0118186 0.0227764 0.0259725 0.024546 0.0388827 0.0281234 0.0479935 0.04843 0.0380302 0.0378744 0.0371916 0.0713968 0.0542405 0.0527754 0.0544701 0.0689433 0.0551072 0.0800431 0.0732487 0.0767079
12 3 O 0.582463 3.69946 4.4844 -1.2 1 0.00613179 0.00925121 0.0335541 0.0280758 0.0263601 0.0589781 0.0307344 0.0548259 0.0441759 0.040241 0.0539384 0.0550953 0.0594928 0.0712838 0.101237 0.0706524 0.0793189 0.0418427 0.0725912 0.0682342
13 3 O -2.29524 3.43162 3.18632 -1.2 1 0.0123607 0.019795 0.0255872 0.0311087 0.0204665 0.0507507 0.0514534 0.049278 0.041037 0.0532642 0.0591495 0.0543055 0.0401349 0.0523797 0.0585659 0.0637975 0.0670025 0.0613835 0.0646004 0.0734858
14 3 O -2.34216 3.43162 5.78248 -1.2 1 0.0188905 0.0128004 0.0194678 0.0280438 0.0249426 0.0418685 0.0544426 0.0481853 0.0362579 0.0552498 0.0558702 0.0485227 0.0524801 0.0490949 0.0749722 0.0737649 0.0624152 0.0703759 0.0743108 0.0691776
15 1 Mg 1.12778 2.37449 2.9896 1.2 1 0.0154721 0.0403725 0.0169558 0.0235944 0.0257277 0.0426013 0.0407468 0.0502351 0.0367506 0.0602905 0.0373739 0.059043 0.0407375 0.067321 0.0639758 0.0696177 0.0690251 0.0821313 0.0454649 0.088025
16 1 Mg 3.92855 2.33318 4.4844 1.2 1 0.0338607 0.0157417 0.0247836 0.0264683 0.0424066 0.0255104 0.0375404 0.0373882 0.045928 0.0698831 0.0496993 0.0629771 0.0539797 0.0591251 0.0570809 0.0748448 0.0631577 0.0980666 0.0752438 0.0830367
17 2 Si 2.09341 4.39804 4.4844 2.4 1 0.0141792 0.0167256 0.0346677 0.0232035 0.0417963 0.0286852 0.0620864 0.0242905 0.0432816 0.0490321 0.064097 0.0617619 0.0686975 0.057905 0.0729363 0.0734378 0.0707895 0.0816853 0.0536271 0.0665231
18 3 O 2.09991 6.01128 4.4844 -1.2 1 0.00989772 0.012248 0.0179617 0.0186455 0.03343 0.0230538 0.0514224 0.0511642 0.047275 0.0473415 0.0476766 0.0668786 0.0462139 0.0608036 0.06531 0.0726862 0.0454928 0.077685 0.0604851 0.0720231
19 3 O -4.52137 3.42402 4.4844 -1.2 1 0.0218065 0.0250228 0.0374672 0.0179988 0.025552 0.0540356 0.0384509 0.0494164 0.0532881 0.0569087 0.0292839 0.0565856 0.0500749 0.0556626 0.0909641 0.0741747 0.0736617 0.0593902 0.0749536 0.0559742
20 3 O 2.80834 3.69187 3.18632 -1.2 1 0.0134779 0.0173732 0.0212096 0.0247595 0.0243167 0.0384038 0.0350682 0.0498814 0.0440953 0.0561843 0.0667456 0.0506163 0.0418675 0.0626191 0.0703012 0.0734085 0.0610705 0.056704 0.0715069 0.072273
21 1 Mg 1.17857 2.37449 0 1.2 1 0.0142491 0.0368729 0.0291345 0.0285458 0.0363091 0.0387266 0.0425944 0.0587324 0.0352377 0.0489324 0.052824 0.0408555 0.0434219 0.0667782 0.0547746 0.0651446 0.059776 0.0811284 0.0576945 0.073311
22 3 O 2.76143 3.69187 5.78248 -1.2 1 0.0105621 0.0244109 0.0175255 0.0183573 0.0167709 0.0338631 0.0370737 0.0479062 0.0330219 0.0474753 0.0606284 0.0450619 0.0567759 0.0729866 0.0745325 0.0686789 0.0709468 0.0601401 0.0707262 0.0722491
23 1 Mg -1.67381 2.41581 1.4948 1.2 1 0.0102746 0.00803661 0.0391487 0.0353831 0.0318912 0.0437605 0.0589241 0.0389753 0.0516796 0.0414827 0.0436983 0.0573136 0.0544207 0.0641412 0.0605525 0.063988 0.083568 0.0776996 0.0665996 0.074324
24 2 Si 0.16286 0.350945 1.4948 2.4 1 0.0152317 0.0320818 0.0279918 0.0234672 0.0353513 0.0356184 0.0556587 0.0512511 0.0524236 0.0487484 0.0405216 0.055886 0.0740974 0.0689984 0.0569346 0.073117 0.0695557 0.0649622 0.0734508 0.0660468
25 3 O 0.15972 -1.26229 1.4948 -1.2 1 0.00921461 0.0154924 0.0397336 0.0212315 0.0372231 0.0357577 0.0454423 0.0563452 0.0471249 0.0515775 0.0557012 0.0563101 0.0633977 0.0667214 0.049363 0.0593796 0.0696674 0.0668892 0.061849 0.0738772
26 3 O 6.77654 1.32496 1.4948 -1.2 1 0.0142657 0.025708 0.026168 0.0256713 0.0360875 0.0534652 0.0345788 0.0636216 0.0489805 0.0469065 0.0435831 0.0517211 0.0537709 0.0606267 0.0687185 0.0706988 0.0836785 0.0630812 0.0598506 0.0735643
27 3 O -0.508028 1.05712 0.196716 -1.2 1 0.024617 0.0189595 0.0296265 0.0204812 0.0290438 0.0535952 0.0436728 0.0447602 0.046965 0.0482875 0.0503267 0.0480409 0.0495609 0.0637158 0.0550372 0.0630974 0.063556 0.0590102 0.0717029 0.0724136
28 3 O -0.552171 1.05712 2.79288 -1.2 1 0.0382447 0.0269368 0.0374912 0.0310995 0.0242232 0.0448474 0.043181 0.0476805 0.0422504 0.0395411 0.0469181 0.0485084 0.0591141 0.0613949 0.0659185 0.0757227 0.0725094 0.0505926 0.0708241 0.0709424
29 1 Mg 6.31713 4.74899 0 1.2 1 0.0272603 0.0291687 0.0303891 0.0367804 0.0323669 0.0267414 0.0418375 0.0559553 0.058458 0.0494232 0.0510394 0.0381922 0.05937 0.0615181 0.0653593 0.0640127 0.0659334 0.0734812 0.0696447 0.0704524
30 1 Mg 3.54847 9.45668 1.4948 1.2 1 0.0125492 0.0192605 0.0160824 0.0215692 0.0198793 0.0385925 0.0387393 0.0419002 0.0437807 0.0555983 0.0370882 0.0711028 0.0546073 0.0654426 0.0757608 0.0619764 0.0660185 0.0886772 0.0745257 0.0796084
31 2 Si 5.36879 6.77254 1.4948 2.4 1 0.0290355 0.0270314 0.0239004 0.0256392 0.0246774 0.0350334 0.0443779 0.0362438 0.0449632 0.0571453 0.0422021 0.0586027 0.0533037 0.0663374 0.0655279 0.074341 0.0671892 0.0790521 0.055974 0.0687416
32 3 O 5.41937 8.38578 1.4948 -1.2 1 0.0215302 0.0114452 0.0235176 0.0296534 0.0174044 0.0431951 0.0442152 0.0572897 0.0365648 0.0508217 0.0474797 0.0639238 0.0550836 0.054171 0.0659366 0.0603107 0.0729537 0.0559557 0.0733286 0.0731923
33 3 O 1.75158 5.79852 1.4948 -1.2 1 0.0329085 0.0118271 0.021558 0.0246111 0.0440084 0.0322116 0.0396938 0.0553247 0.040014 0.0511283 0.0494657 0.050514 0.0484231 0.0708202 0.0784832 0.0774966 0.0614972 0.0755489 0.0591819 0.07617
34 3 O 4.67421 6.06637 0.196716 -1.2 1 0.0116075 0.0281728 0.0307071 0.0231261 0.0332973 0.038404 0.034092 0.032339 0.0441121 0.0544364 0.0403482 0.0426841 0.065812 0.0556473 0.0679599 0.0704033 0.0725495 0.0652071 0.0631313 0.068071
35 1 Mg 6.26654 4.74899 2.9896 1.2 1 0.0187024 0.0277639 0.0257311 0.040758 0.0260832 0.0443728 0.0484859 0.0478091 0.0352652 0.0624748 0.0362938 0.0595401 0.0385809 0.0633068 0.052404 0.0782671 0.0561535 0.0834721 0.0455112 0.089255
36 3 O 4.63043 6.06637 2.79288 -1.2 1 0.0162515 0.0193418 0.0422604 0.0203839 0.0325545 0.0358643 0.0424198 0.0487242 0.0447688 0.0367572 0.0489537 0.0510922 0.0580095 0.0664324 0.061968 0.0741786 0.0667171 0.0663536 0.068231 0.0849708
37 1 Mg -1.12976 4.79031 4.4844 1.2 1 0.0175138 0.0228297 0.0129809 0.015623 0.0342796 0.0378987 0.0467423 0.0498051 0.0442207 0.044021 0.0537922 0.0609782 0.077055 0.0706194 0.0604391 0.0694149 0.0712725 0.0930961 0.0699805 0.0833287
38 2 Si -2.9517 7.47444 4.4844 2.4 1 0.0191424 0.0172639 0.0194559 0.0258339 0.0317654 0.0424749 0.0618044 0.0284465 0.0546707 0.0577611 0.0511908 0.0561446 0.0609506 0.0576863 0.0806087 0.0701733 0.0528396 0.0887322 0.0570527 0.058631
39 3 O -3.00198 5.86121 4.4844 -1.2 1 0.0133831 0.0217401 0.027979 0.0259084 0.0352146 0.0314624 0.0563914 0.0601126 0.0392078 0.0554022 0.0486777 0.0708827 0.0565293 0.0562169 0.0652273 0.0710622 0.0492176 0.0775484 0.0601 0.0787025
40 3 O 0.666315 8.44846 4.4844 -1.2 1 0.0234173 0.021246 0.0243695 0.0168375 0.0220278 0.0519166 0.0354485 0.0478383 0.0433135 0.0490747 0.0397336 0.0513813 0.0479725 0.0763733 0.100732 0.0692361 0.0756955 0.0476296 0.0678957 0.0745169
41 3 O -2.21213 8.18062 3.18632 -1.2 1 0.013819 0.0139604 0.0165704 0.0159125 0.0168736 0.0367246 0.0464745 0.0565117 0.0457431 0.0547992 0.0547554 0.0502728 0.0536529 0.0481727 0.0782878 0.0628549 0.0719384 0.0588316 0.0675953 0.0702939
42 3 O -2.25864 8.18062 5.78248 -1.2 1 0.0177675 0.0111937 0.0186244 0.0189588 0.0188463 0.0272263 0.0527455 0.0456472 0.0402552 0.0416859 0.0555542 0.0373107 0.0541959 0.0599291 0.0797009 0.0679775 0.0679591 0.0612741 0.0705283 0.0765232
43 1 Mg 1.20893 7.12349 2.9896 1.2 1 0.0052264 0.0221205 0.0195029 0.0258227 0.023935 0.0402504 0.0427221 0.0453386 0.0348371 0.0657112 0.0392276 0.0674842 0.0352912 0.0588081 0.0515301 0.0804669 0.0508905 0.0835094 0.0474821 0.0879773
44 1 Mg 4.00982 7.08218 4.4844 1.2 1 0.0222319 0.0202766 0.0231799 0.0359718 0.032337 0.0361953 0.0441944 0.0382782 0.0459187 0.0502896 0.0563582 0.0568041 0.0709013 0.0735175 0.0587738 0.0691226 0.0640677 0.0963616 0.0735945 0.0810606
45 2 Si 2.17861 9.14704 4.4844 2.4 1 0.0243953 0.0101444 0.0250485 0.0232468 0.0306518 0.0338176 0.0624538 0.0245487 0.0511179 0.0546255 0.0543659 0.0612234 0.0638708 0.0570387 0.0776268 0.0685923 0.0488807 0.0936411 0.0559055 0.0583203
46 3 O 2.18828 10.7603 4.4844 -1.2 1 0.0207965 0.0130916 0.00866659 0.0175763 0.0266429 0.0229443 0.0425983 0.0595503 0.0411824 0.052929 0.0393591 0.0724216 0.0453809 0.0656209 0.0693411 0.0750284 0.047418 0.0725963 0.0638415 0.0740537
47 3 O -4.43805 8.17302 4.4844 -1.2 1 0.0106744 0.0171498 0.0175973 0.019578 0.0241564 0.0553348 0.0360162 0.0491344 0.0424641 0.0493343 0.0369801 0.052615 0.0521428 0.0733472 0.10045 0.0665789 0.081531 0.0537033 0.0732891 0.0752677
48 3 O 2.89193 8.44087 3.18632 -1.2 1 0.0218845 0.0195152 0.0166811 0.0154201 0.0200082 0.0408447 0.0338025 0.054154 0.0441996 0.051166 0.0580463 0.0503648 0.0509048 0.0511174 0.0797047 0.0643182 0.0696467 0.0592244 0.0651106 0.0730312
49 1 Mg 1.25915 7.12349 0 1.2 1 0.0189174 0.0174474 0.0280177 0.0147653 0.0321472 0.0243974 0.050297 0.039852 0.05628 0.0497315 0.0538025 0.0430239 0.0710399 0.051546 0.0685775 0.0706775 0.0639675 0.0708559 0.0794976 0.0583104
50 3 O 2.84547 8.44087 5.78248 -1.2 1 0.0100047 0.0150986 0.0154028 0.0231983 0.021126 0.0266938 0.0493979 0.0465259 0.0399612 0.0396534 0.0576863 0.0383298 0.0578864 0.0594895 0.0879415 0.0613423 0.0708297 0.0624258 0.0667335 0.0748883
51 1 Mg -1.59284 7.16481 1.4948 1.2 1 0.0122493 0.0159151 0.0215744 0.0217997 0.0140683 0.0372886 0.0461386 0.0421874 0.0428307 0.0568799 0.0396416 0.0664286 0.0510666 0.0691459 0.0737775 0.0613745 0.0689089 0.0835157 0.0737211 0.0785646
52 2 Si 0.240329 5.09994 1.4948 2.4 1 0.0217042 0.0203955 0.0145413 0.0437725 0.0272428 0.0408755 0.046996 0.0520197 0.0550424 0.0489534 0.0459132 0.0565627 0.058678 0.0692607 0.0656773 0.0674143 0.0647143 0.0722901 0.0660965 0.0688447
53 3 O 0.234538 3.48671 1.4948 -1.2 1 0.0149178 0.0164142 0.0264883 0.0356661 0.0317855 0.0504477 0.0442803 0.0420471 0.0523215 0.0452992 0.0536662 0.0606457 0.055926 0.059738 0.0604421 0.0612612 0.0629796 0.0579623 0.0743082 0.0746055
54 3 O 6.85564 6.07396 1.4948 -1.2 1 0.0325163 0.0195292 0.0346422 0.0275463 0.0371687 0.0401881 0.032419 0.0626093 0.0364997 0.0531425 0.0536888 0.0533918 0.0551986 0.0734752 0.0700682 0.0766949 0.0661413 0.0723683 0.0532853 0.0848826
55 3 O -0.429565 5.80612 0.196716 -1.2 1 0.0339821 0.0199904 0.0160022 0.0213457 0.040919 0.0374714 0.0539102 0.0451567 0.0459775 0.0564719 0.039746 0.0418599 0.0531615 0.0602397 0.0599076 0.0681284 0.0706035 0.0608827 0.065329 0.0744867
56 3 O -0.473377 5.80612 2.79288 -1.2 1 0.0276156 0.0187141 0.0322432 0.0191526 0.0343124 0.0460587 0.0493654 0.049185 0.0543351 0.0444952 0.0627628 0.037961 0.0422649 0.0595991 0.0661118 0.0713381 0.0639318 0.0688957 0.0724557 0.0799521
57 1 Mg 6.40169 9.49799 0 1.2 1 0.012544 0.0118577 0.0213339 0.0147125 0.0304527 0.0218994 0.0522728 0.0357297 0.0584762 0.0493972 0.0496133 0.0353528 0.0671117 0.0524744 0.0709532 0.0671974 0.0657341 0.070417 0.0813068 0.0679398
58 1 Mg 3.64209 14.2057 1.4948 1.2 1 0.010501 0.0110108 0.018118 0.0164865 0.0218752 0.0335848 0.0363851 0.0429701 0.0413309 0.0555616 0.0395995 0.0666988 0.053158 0.0664512 0.0737686 0.0634115 0.0646862 0.0821896 0.0742514 0.0782206
59 2 Si 5.45748 11.5215 1.4948 2.4 1 0.0108033 0.0234623 0.0215751 0.0251967 0.0175148 0.0404759 0.0398287 0.03882 0.0443164 0.0562242 0.0423292 0.0605061 0.0522652 0.0669594 0.0690542 0.0642811 0.0712909 0.0807849 0.0587849 0.0658903
60 3 O 5.51101 13.1348 1.4948 -1.2 1 0.0241382 0.0136672 0.0225539 0.029236 0.0201472 0.0435889 0.0442467 0.0590204 0.0362469 0.0495158 0.0432406 0.0670345 0.0535387 0.0535382 0.0659524 0.0601261 0.070808 0.0575518 0.0698816 0.0716952
61 3 O 1.83851 10.5475 1.4948 -1.2 1 0.0351598 0.0140358 0.0215278 0.0138907 0.0363292 0.030551 0.0363356 0.0591119 0.0399606 0.0484747 0.0498549 0.0514202 0.0469986 0.0749133 0.0755397 0.0799607 0.056841 0.0759128 0.0575041 0.0790584
62 3 O 4.7611 10.8154 0.196716 -1.2 1 0.0357852 0.0193337 0.0198996 0.0181057 0.0268068 0.0440573 0.0481249 0.0373102 0.0388061 0.0490122 0.0368896 0.0411198 0.0610235 0.0604529 0.0649109 0.0713367 0.0748543 0.0658646 0.0726337 0.0671381
63 1 Mg 6.35203 9.49799 2.9896 1.2 1 0.0133132 0.0176015 0.0258177 0.0215298 0.019198 0.0387442 0.0367913 0.0514632 0.0346547 0.0580902 0.0319036 0.0646371 0.0286025 0.0661417 0.0470981 0.0801828 0.0445612 0.090147 0.0455528 0.0907651
64 3 O 4.71833 10.8154 2.79288 -1.2 1 0.0258684 0.00977377 0.0313982 0.012999 0.0301896 0.0435439 0.0438446 0.0455781 0.0425491 0.0369784 0.0530452 0.0424206 0.0540186 0.0581853 0.0730188 0.0673243 0.0719461 0.0591466 0.0697092 0.0799595
65 1 Mg -1.0438 9.53931 4.4844 1.2 1 0.0144868 0.0173827 0.0163575 0.0245598 0.0261468 0.0292025 0.0393799 0.0356579 0.0466915 0.0504705 0.0572746 0.0559158 0.0694611 0.0703589 0.0591554 0.0687176 0.0709211 0.0982604 0.070624 0.0853738
66 2 Si -2.8604 12.2234 4.4844 2.4 1 0.0184466 0.012224 0.0166409 0.0262036 0.0312095 0.0413743 0.0599079 0.0302478 0.0544486 0.061835 0.0552416 0.0642135 0.0601571 0.0548824 0.079375 0.0718612 0.0498905 0.0908967 0.0548313 0.0659217
67 3 O -2.91391 10.6102 4.4844 -1.2 1 0.0209087 0.0126308 0.00877411 0.0236643 0.026429 0.0232242 0.0446136 0.0622683 0.0416721 0.0490066 0.036565 0.070027 0.0451724 0.0572626 0.0679086 0.0709683 0.0512552 0.0735495 0.0631641 0.0755491
68 3 O 0.7596 13.1975 4.4844 -1.2 1 0.0179297 0.0266315 0.0198129 0.0161604 0.0233382 0.0519026 0.0332959 0.0505231 0.0450491 0.0513938 0.0408034 0.0500688 0.0477396 0.0717015 0.101984 0.0607953 0.0771641 0.0563977 0.073772 0.0717462
69 3 O -2.12001 12.9296 3.18632 -1.2 1 0.0209792 0.01224 0.0182329 0.0173393 0.021724 0.0365919 0.0415521 0.0534041 0.0464001 0.0524025 0.0539893 0.0498831 0.0557091 0.0494683 0.0796448 0.0642911 0.0718004 0.0626943 0.0664067 0.0704852
70 3 O -2.16532 12.9296 5.78248 -1.2 1 0.00660026 0.0110233 0.0231123 0.0263787 0.0202666 0.02878 0.0551688 0.0429615 0.0442008 0.0384346 0.0561252 0.037769 0.0607898 0.0650956 0.0848084 0.0696991 0.0699398 0.0650725 0.0726081 0.0749787
71 1 Mg 1.29891 11.8725 2.9896 1.2 1 0.00816241 0.0157344 0.0221395 0.0241057 0.017229 0.0394583 0.0359197 0.0497083 0.0350174 0.0601427 0.0341722 0.0599038 0.0243409 0.0672448 0.0481979 0.0833098 0.048984 0.0898144 0.0479982 0.0861665
72 1 Mg 4.10033 11.8312 4.4844 1.2 1 0.00922541 0.0135443 0.0191537 0.0241441 0.0288352 0.032242 0.0391566 0.0346361 0.0478627 0.0521415 0.0519845 0.0546205 0.0663588 0.0693104 0.0530694 0.0700843 0.0700685 0.0992713 0.0728213 0.0818224
73 2 Si 2.27333 13.896 4.4844 2.4 1 0.0282399 0.00730285 0.0218486 0.0258133 0.0227266 0.0382983 0.0625677 0.029263 0.0546236 0.0579361 0.0544409 0.0588858 0.0622089 0.0578259 0.0751275 0.0689778 0.0492288 0.0967227 0.0536954 0.0563426
74 3 O 2.28634 15.5093 4.4844 -1.2 1 0.0206269 0.0145725 0.00710552 0.0173756 0.025971 0.0209343 0.0443186 0.0607776 0.0441745 0.0550533 0.0417023 0.0712164 0.0466303 0.0616463 0.0691845 0.0686361 0.0488296 0.0700367 0.063866 0.0758859
75 3 O -4.34533 12.922 4.4844 -1.2 1 0.0205117 0.0204106 0.0197219 0.0162184 0.0212359 0.0536809 0.0345104 0.0474419 0.0434397 0.0522177 0.0392094 0.0535351 0.0515111 0.0704524 0.100562 0.0648429 0.0773349 0.0539495 0.0749155 0.0732704
76 3 O 2.98455 13.1899 3.18632 -1.2 1 0.0251118 0.0110807 0.0189679 0.012145 0.0189047 0.0394652 0.0382467 0.0572989 0.042386 0.054859 0.0550522 0.0489013 0.0517148 0.0493525 0.0810192 0.0604264 0.0679427 0.0609455 0.0643207 0.0718716
77 1 Mg 1.34779 11.8725 0 1.2 1 0.0216835 0.00904108 0.0218053 0.0146285 0.028861 0.0223601 0.0519072 0.0347779 0.0577231 0.0508173 0.0497449 0.0355281 0.0650361 0.0503439 0.0710196 0.0645301 0.0616128 0.0702429 0.0868427 0.0599492
78 3 O 2.93934 13.1899 5.78248 -1.2 1 0.0139764 0.0171143 0.0230159 0.0249778 0.0216154 0.0274106 0.0501559 0.0464801 0.0443022 0.0386451 0.0581757 0.035764 0.0595733 0.0625243 0.0895465 0.0679884 0.0695612 0.0646889 0.0638709 0.0806477
79 1 Mg -1.50344 11.9138 1.4948 1.2 1 0.0174734 0.017122 0.0237346 0.0215088 0.0121528 0.0366694 0.0379882 0.0422797 0.0411564 0.0591739 0.0363224 0.0655418 0.0498754 0.0645125 0.071697 0.0692031 0.0643132 0.0835848 0.0767383 0.0784059
80 2 Si 0.326006 9.84894 1.4948 2.4 1 0.0250294 0.0193429 0.0249337 0.0304735 0.0171812 0.038802 0.0440359 0.0377101 0.0447679 0.0560587 0.0403573 0.0598384 0.0550612 0.0668683 0.0607875 0.0638451 0.0702806 0.079419 0.0616396 0.0688145
81 3 O 0.317364 8.23571 1.4948 -1.2 1 0.0224331 0.0125135 0.0226817 0.0239093 0.0202584 0.045294 0.0429102 0.0497215 0.0346539 0.0539644 0.0444273 0.0659255 0.0576037 0.0596173 0.0683835 0.0665859 0.0716778 0.0534925 0.073409 0.0740984
82 3 O 6.94307 10.823 1.4948 -1.2 1 0.0357172 0.0150644 0.0213713 0.00924725 0.036821 0.0335456 0.0387328 0.0564795 0.0342838 0.0470761 0.0516852 0.0525236 0.0509723 0.0736927 0.0727301 0.0787851 0.0617024 0.0730063 0.0577511 0.0804135
83 3 O -0.343122 10.5551 0.196716 -1.2 1 0.0308817 0.01753 0.0216983 0.0208664 0.0297714 0.0413669 0.0512376 0.0396372 0.0386901 0.0507485 0.0370442 0.0376076 0.0612498 0.0605595 0.0689004 0.0705647 0.0809955 0.0542324 0.0699206 0.0693064
84 3 O -0.385966 10.5551 2.79288 -1.2 1 0.0262717 0.016363 0.0302057 0.0123481 0.0332892 0.0424653 0.0442943 0.0467576 0.0426179 0.0396668 0.0532061 0.0489638 0.0487345 0.0544487 0.0690871 0.070894 0.0661723 0.0602032 0.0681153 0.0788832
85 1 Mg 6.49448 14.247 0 1.2 1 0.0226869 0.0100172 0.0186194 0.0169974 0.0286411 0.0229498 0.0475508 0.0329063 0.0593214 0.048046 0.0515289 0.037163 0.0626921 0.0526871 0.0708893 0.0653255 0.0641749 0.0707554 0.0849554 0.0705841
86 1 Mg 3.74457 18.9547 1.4948 1.2 1 0.0149046 0.0108108 0.0153174 0.0161319 0.0258429 0.029355 0.0311597 0.0395442 0.038084 0.0580439 0.0434027 0.0664966 0.0506677 0.0663401 0.0708122 0.0695887 0.0633172 0.0832685 0.0779806 0.0759278
87 2 Si 5.55495 16.2705 1.4948 2.4 1 0.0120493 0.020281 0.0220578 0.0267596 0.0184796 0.0426716 0.0362549 0.042107 0.0450265 0.0516455 0.0434368 0.0611389 0.0544802 0.0641111 0.0698712 0.0586488 0.0734118 0.0799849 0.0610356 0.070817
88 3 O 5.6115 17.8838 1.4948 -1.2 1 0.0269708 0.0180107 0.0233413 0.0255244 0.0193641 0.0434299 0.0453183 0.0608908 0.0375643 0.0500705 0.0380916 0.0671329 0.0511996 0.055928 0.064318 0.0576784 0.0655149 0.0616805 0.0632764 0.0691899
89 3 O 1.93416 15.2965 1.4948 -1.2 1 0.0370529 0.0146889 0.0220827 0.013126 0.0350138 0.0302976 0.0363898 0.0586138 0.0428428 0.046594 0.0487623 0.0503496 0.0468483 0.0741883 0.0809478 0.0780409 0.0590403 0.0742026 0.0622947 0.0775501
90 3 O 4.85636 15.5644 0.196716 -1.2 1 0.0225297 0.013363 0.0240832 0.021044 0.0235336 0.0518239 0.0508377 0.0396892 0.0397577 0.0455681 0.0371295 0.0330492 0.063571 0.0534723 0.0659121 0.0673723 0.0738713 0.0631441 0.0719049 0.0686851
91 1 Mg 6.44662 14.247 2.9896 1.2 1 0.0104649 0.0180474 0.0228549 0.0219457 0.0183714 0.0352046 0.037919 0.0535228 0.0371305 0.0570622 0.034488 0.0629414 0.0243293 0.0675269 0.0459933 0.076396 0.0458962 0.091606 0.04425 0.0923949
92 3 O 4.81537 15.5644 2.79288 -1.2 1 0.0115644 0.00986416 0.0298282 0.0135759 0.0282957 0.0373511 0.0467115 0.047179 0.0458325 0.0394665 0.051207 0.0420831 0.0534602 0.0580059 0.075552 0.0672469 0.076254 0.052685 0.0717476 0.0759839
93 1 Mg -0.948271 14.2883 4.4844 1.2 1 0.0163783 0.0129434 0.0141586 0.0292208 0.0237806 0.0287518 0.0374899 0.0353543 0.0440703 0.0486591 0.0604115 0.0560998 0.066276 0.0697292 0.0592992 0.0713688 0.0721207 0.0948915 0.0739425 0.0815279
94 2 Si -2.75928 16.9724 4.4844 2.4 1 0.0191467 0.0138641 0.0161813 0.0274822 0.0313972 0.0393346 0.0590499 0.0315203 0.0542025 0.0633271 0.0536265 0.0619306 0.0595448 0.0555668 0.078083 0.0738146 0.0467793 0.093037 0.0521017 0.0620303
95 3 O -2.81617 15.3592 4.4844 -1.2 1 0.0148349 0.0179807 0.010963 0.0230055 0.0316211 0.0225688 0.0449824 0.0637439 0.0438259 0.0522394 0.038894 0.0723873 0.0466307 0.059574 0.0676789 0.0697915 0.0491934 0.0737283 0.0629023 0.0766534
96 3 O 0.862762 17.9465 4.4844 -1.2 1 0.0109598 0.0230595 0.0220882 0.0214509 0.0188468 0.0475917 0.0357999 0.0523593 0.0471855 0.0569538 0.0411913 0.0493472 0.0455316 0.0715836 0.106087 0.0567382 0.0708491 0.0545812 0.0754393 0.0718397
97 3 O -2.0185 17.6786 3.18632 -1.2 1 0.0250051 0.0107945 0.0185701 0.0187835 0.0182371 0.0364046 0.0411717 0.0528459 0.0417346 0.0541079 0.0527456 0.0512883 0.0552963 0.0485336 0.0817346 0.0596755 0.0692286 0.0654363 0.0662793 0.0682846
98 3 O -2.06164 17.6786 5.78248 -1.2 1 0.0203928 0.010121 0.0166514 0.016594 0.0152356 0.0285852 0.0455705 0.0479652 0.0389527 0.04044 0.0568611 0.0395804 0.0560808 0.0599171 0.079979 0.0658908 0.0677055 0.0641499 0.0658852 0.0760336
99 1 Mg 1.39817 16.6215 2.9896 1.2 1 0.00609008 0.0162034 0.0189293 0.0224291 0.0176111 0.0362859 0.0368443 0.0529859 0.0373687 0.0593676 0.0360484 0.0573736 0.0235865 0.0673197 0.04754 0.0807964 0.0501372 0.0909253 0.0443012 0.0884876
100 1 Mg 4.20062 16.5802 4.4844 1.2 1 0.0187718 0.0151912 0.0168341 0.0277926 0.0256893 0.0310963 0.0425699 0.0335176 0.046251 0.0520514 0.0547577 0.0548537 0.0654868 0.0714479 0.0511775 0.072935 0.0687356 0.0924837 0.073424 0.0810384
101 2 Si 2.37796 18.645 4.4844 2.4 1 0.0215126 0.00795192 0.0233725 0.0308423 0.030831 0.0320336 0.0638068 0.0297064 0.0550316 0.0622756 0.051411 0.0629466 0.0611971 0.054323 0.0734942 0.0694082 0.0453571 0.0982751 0.0529213 0.0585746
102 3 O 2.39434 20.2583 4.4844 -1.2 1 0.0207719 0.0163147 0.00816944 0.018501 0.0239279 0.0242414 0.0411748 0.0586577 0.0434045 0.050994 0.0400034 0.0730873 0.0497976 0.0634125 0.0724201 0.067483 0.0494502 0.0691631 0.0666863 0.0807987
103 3 O -4.24274 17.671 4.4844 -1.2 1 0.0094501 0.019889 0.0217817 0.0215528 0.0201212 0.0500805 0.0335636 0.0502829 0.0418315 0.0529188 0.0408668 0.0518497 0.0518431 0.0703903 0.100492 0.061655 0.0773962 0.0554068 0.0786384 0.0698552
104 3 O 3.08659 17.9389 3.18632 -1.2 1 0.0253803 0.014106 0.0199556 0.0118352 0.0182612 0.0404856 0.038584 0.0551099 0.0459104 0.049802 0.0575973 0.0477158 0.0526195 0.0525951 0.0797647 0.0587781 0.0658297 0.0603196 0.0637643 0.0698839
105 1 Mg 1.44478 16.6215 0 1.2 1 0.00945653 0.0120578 0.0216934 0.0126407 0.0265784 0.0317768 0.0478434 0.0358088 0.0508361 0.0504638 0.0519951 0.0391952 0.0587769 0.0493899 0.0696903 0.0661478 0.0601907 0.0677499 0.0888925 0.063951
106 3 O 3.0436 17.9389 5.78248 -1.2 1 0.0171016 0.0113483 0.0193875 0.0209724 0.0203971 0.022675 0.0504875 0.0463503 0.0421541 0.0410044 0.0570687 0.0377077 0.0538497 0.0597437 0.0833004 0.0615546 0.0677363 0.0620812 0.0625649 0.0808589
107 1 Mg -1.40524 16.6628 1.4948 1.2 1 0.0115574 0.012595 0.0256507 0.0177048 0.0175062 0.0344321 0.0363935 0.0422863 0.0408446 0.0603131 0.0401454 0.0624568 0.0550573 0.0648597 0.0741952 0.0694115 0.0644728 0.0778676 0.0783681 0.075726
108 2 Si 0.420358 14.5979 1.4948 2.4 1 0.0208878 0.0196123 0.0271713 0.0266664 0.0180787 0.0394152 0.0396518 0.0397382 0.0450461 0.0554701 0.044275 0.0597835 0.058285 0.0639235 0.0680784 0.0593426 0.0725738 0.0761748 0.0627863 0.0718582
109 3 O 0.408732 12.9847 1.4948 -1.2 1 0.0222553 0.0154748 0.0228623 0.0256821 0.0168309 0.0471121 0.0437216 0.0540561 0.0361599 0.0529465 0.0420555 0.0693703 0.0530559 0.0567753 0.0658265 0.0638657 0.0710326 0.055071 0.0681869 0.0718139
110 3 O 7.03923 15.572 1.4948 -1.2 1 0.0293366 0.0168868 0.021859 0.0127305 0.036146 0.0331106 0.0370848 0.056061 0.0379308 0.0442182 0.0510978 0.053333 0.0482679 0.0743365 0.0783465 0.0781186 0.064272 0.0698091 0.062558 0.0772807
111 3 O -0.248332 15.3041 0.196716 -1.2 1 0.0189467 0.0130842 0.0212709 0.0184961 0.0251732 0.046528 0.0488236 0.043046 0.0392055 0.0450018 0.037634 0.0306403 0.0606669 0.0535705 0.0700984 0.063971 0.0831759 0.0505631 0.0703797 0.0720569
112 3 O -0.289436 15.3041 2.79288 -1.2 1 0.0104187 0.0163265 0.0314984 0.0113489 0.0300296 0.0375642 0.0447834 0.0457781 0.0452735 0.0393516 0.0544531 0.0482347 0.0518538 0.0550536 0.0729387 0.0693449 0.0717196 0.0563771 0.0712313 0.0748547
113 1 Mg 6.59566 18.996 0 1.2 1 0.0138034 0.0117045 0.0199362 0.0142097 0.0257772 0.0316801 0.0433986 0.0332383 0.0540107 0.0494017 0.0538084 0.0389433 0.0519335 0.0527077 0.0723037 0.0643852 0.064398 0.0645566 0.085851 0.0705762
114 1 Mg 3.85574 23.7037 1.4948 1.2 1 0.0088634 0.0140576 0.0219198 0.0157449 0.0233017 0.0296088 0.0317005 0.0361282 0.0387351 0.0589381 0.0464648 0.0653915 0.0508815 0.067669 0.0648274 0.072764 0.0653488 0.0805458 0.080938 0.0761497
115 2 Si 5.66125 21.0195 1.4948 2.4 1 0.00865468 0.0226494 0.0247797 0.0273475 0.0200613 0.0456703 0.0338806 0.0435438 0.0474514 0.0540921 0.0443421 0.0615884 0.055569 0.0596625 0.070918 0.0607516 0.0730614 0.0773121 0.0644277 0.0749305
116 3 O 5.72074 22.6328 1.4948 -1.2 1 0.0282557 0.019093 0.0182818 0.0228447 0.019124 0.0446357 0.0455226 0.0619434 0.0383299 0.052017 0.0329 0.0697262 0.0492775 0.0536514 0.0680468 0.0554936 0.0650147 0.0679823 0.0561259 0.0713531
117 3 O 2.03867 20.0455 1.4948 -1.2 1 0.0300335 0.0165451 0.0268562 0.0158475 0.0341888 0.0297144 0.0361803 0.0550771 0.0436435 0.0425959 0.0505022 0.0506674 0.0481894 0.0737159 0.0850241 0.0728268 0.0617687 0.0680434 0.0639421 0.0730567
118 3 O 4.96004 20.3134 0.196716 -1.2 1 0.0242092 0.0102463 0.0242294 0.0197601 0.0223972 0.0457037 0.0450475 0.0480408 0.0403855 0.0421939 0.0404468 0.0352489 0.0653152 0.047761 0.069684 0.0736869 0.070331 0.058196 0.070702 0.071508
119 1 Mg 6.55057 18.996 2.9896 1.2 1 0.00892564 0.0170781 0.0200172 0.0213061 0.0212526 0.034483 0.0371222 0.0548715 0.0340789 0.0590659 0.0343278 0.0621119 0.0228862 0.0699555 0.0454412 0.0740247 0.0468429 0.0956912 0.043775 0.0924089
120 3 O 4.92172 20.3134 2.79288 -1.2 1 0.00953928 0.0132157 0.02837 0.0139644 0.0314145 0.0381451 0.0458988 0.0469795 0.0451709 0.0436458 0.0521351 0.0418164 0.0525244 0.0519891 0.0762226 0.0672581 0.0762452 0.0480758 0.071406 0.072117
121 1 Mg -0.84282 19.0373 4.4844 1.2 1 0.0142344 0.0127175 0.0132359 0.0277408 0.0226757 0.0277777 0.0361027 0.0329804 0.0451105 0.0490284 0.0595029 0.0580303 0.0651539 0.0692734 0.0594523 0.0716342 0.0710701 0.093152 0.0740167 0.0822607
122 2 Si -2.64823 21.7214 4.4844 2.4 1 0.0192396 0.0122118 0.0160276 0.02827 0.028926 0.0416691 0.0572506 0.0310701 0.0549666 0.0635178 0.0514055 0.0633045 0.0593468 0.0543655 0.0756594 0.0724094 0.0460711 0.0952327 0.0543125 0.0643873
123 3 O -2.70847 20.1082 4.4844 -1.2 1 0.0130125 0.0147088 0.0170957 0.0259375 0.0246386 0.0234046 0.037843 0.0623733 0.0435374 0.0468577 0.0424857 0.0709798 0.0545338 0.0573867 0.0694835 0.0650627 0.0512718 0.0739904 0.0672098 0.0752965
124 3 O 0.97581 22.6955 4.4844 -1.2 1 0.0149219 0.0184368 0.0228998 0.0187343 0.0176896 0.0431501 0.0316712 0.0532081 0.0445118 0.0534721 0.0412744 0.0474614 0.0479654 0.0716833 0.108483 0.0508258 0.0678865 0.0545404 0.0747329 0.0666774
125 3 O -1.9076 22.4276 3.18632 -1.2 1 0.0200808 0.00735162 0.0209566 0.0142823 0.0159362 0.0392801 0.0450056 0.0561446 0.0402004 0.0485572 0.0551698 0.0488993 0.0560617 0.0493703 0.0801929 0.0583932 0.0681441 0.0650407 0.0624581 0.066089
126 3 O -1.9475 22.4276 5.78248 -1.2 1 0.0100821 0.00778102 0.0204704 0.0205821 0.018957 0.0296151 0.0480428 0.0499414 0.0368046 0.0379331 0.0579521 0.0380773 0.0587662 0.0603729 0.0821588 0.0703236 0.0701855 0.0649091 0.0679099 0.075806