ITEM: TIMESTEP
62000
ITEM: NUMBER OF ATOMS
10500
ITEM: BOX BOUNDS xy xz yz pp pp pp
0	15.2977	5.09925
0	118.725	0
0	89.688	0
ITEM: ATOMS id type element xu yu zu q Q_1 Q_2 Q_3 Q_4 Q_5 Q_6 Q_7 Q_8 Q_9 Q_10 Q_11 Q_12 Q_13 Q_14 Q_15 Q_16 Q_17 Q_18 Q_19 Q_20 Q_21
1 1 Mg 6.2404 -6.37941e-06 0 1.2 1 0.0115501 0.0432096 0.0295189 0.0380131 0.0298964 0.0372358 0.0355988 0.0666252 0.0380455 0.0725121 0.0328493 0.0607426 0.045765 0.0700772 0.0489202 0.0906583 0.0514614 0.0828057 0.0515479 0.10187
2 1 Mg 3.46349 4.70768 1.4948 1.2 1 0.0168513 0.0165004 0.0245659 0.0216658 0.0201842 0.0419692 0.0426274 0.039554 0.0461053 0.0557082 0.0431437 0.0712315 0.0576614 0.0709836 0.0719996 0.0644272 0.0680609 0.0856665 0.0731113 0.0820323
3 2 Si 5.2885 2.02354 1.4948 2.4 1 0.0218706 0.022435 0.0366724 0.0256291 0.030854 0.0365604 0.0534594 0.0335646 0.0443135 0.0519147 0.0557574 0.0619031 0.0558009 0.0637102 0.0682002 0.0792851 0.0708744 0.0649227 0.0635309 0.0732882
4 3 O 5.33628 3.63678 1.4948 -1.2 1 0.00944234 0.0142526 0.0268271 0.0259891 0.0184418 0.0391381 0.0419312 0.0601398 0.0354253 0.0400443 0.054883 0.0506175 0.0680708 0.0578751 0.0590139 0.0648483 0.0602548 0.0615901 0.0711655 0.074523
5 3 O 1.67294 1.04952 1.4948 -1.2 1 0.012781 0.0194061 0.0228092 0.0358616 0.0313759 0.0386637 0.035755 0.0609644 0.0354268 0.0594835 0.0442665 0.052629 0.07068 0.0592933 0.0759845 0.0700016 0.0633706 0.0652259 0.0783346 0.0607817
6 3 O 4.59532 1.31737 0.196716 -1.2 1 0.0257559 0.0220602 0.0575414 0.0253686 0.0332069 0.0489423 0.0387823 0.0476509 0.0337984 0.0392133 0.0380882 0.0501904 0.054102 0.0575908 0.0631036 0.0701062 0.0622855 0.0714915 0.0593993 0.0708633
7 1 Mg 6.18956 -6.37941e-06 2.9896 1.2 1 0.0154185 0.0291925 0.0159337 0.0216246 0.0370545 0.0442522 0.0503811 0.0434809 0.0482966 0.0447915 0.0390571 0.057494 0.0374259 0.0562571 0.0584013 0.0795403 0.0561004 0.0697492 0.0586916 0.0710868
8 3 O 4.55118 1.31737 2.79288 -1.2 1 0.024042 0.0257748 0.0407287 0.016612 0.0288845 0.0440179 0.0440242 0.0479754 0.0448436 0.0562316 0.0537761 0.0494053 0.0494903 0.0660545 0.053937 0.0696962 0.0649791 0.0667646 0.0635117 0.0716519
9 1 Mg -1.20682 0.0413099 4.4844 1.2 1 0.0155813 0.0242401 0.0248399 0.0277945 0.034954 0.0436336 0.0321224 0.0544692 0.0538035 0.0379776 0.0482563 0.0631016 0.0686698 0.0548474 0.0738823 0.0627709 0.0829494 0.0786836 0.0652272 0.051964
10 2 Si -3.0337 2.72544 4.4844 2.4 1 0.0314967 0.019349 0.0254904 0.0144136 0.0314021 0.0427348 0.0586729 0.0355753 0.0608865 0.0506724 0.0490859 0.059111 0.0548714 0.0777309 0.0572604 0.0593637 0.0718824 0.0791725 0.0732735 0.0589847
11 3 O -3.08099 1.11221 4.4844 -1.2 1 0.013753 0.0223117 0.0266918 0.0270259 0.0406853 0.0266418 0.0498874 0.0445287 0.0433786 0.0399933 0.0388563 0.0721275 0.0520275 0.0520864 0.0555335 0.06837 0.0581717 0.0773063 0.0720741 0.0781947
12 3 O 0.582463 3.69946 4.4844 -1.2 1 0.00693013 0.0160106 0.0287028 0.0250732 0.0270282 0.0609572 0.0297359 0.0537331 0.0464371 0.0396546 0.0509537 0.0554673 0.0585539 0.068993 0.0995222 0.0688543 0.0789724 0.0403773 0.06874 0.0664806
13 3 O -2.29524 3.43162 3.18632 -1.2 1 0.0149163 0.0193031 0.0241169 0.0304924 0.0222589 0.0524615 0.0513212 0.053435 0.0415562 0.0528196 0.0596075 0.0534972 0.0436044 0.054782 0.0593177 0.065355 0.0700182 0.0619428 0.06687 0.0720305
14 3 O -2.34216 3.43162 5.78248 -1.2 1 0.0246585 0.0145535 0.0210064 0.0267594 0.0277485 0.0388416 0.0546676 0.0435657 0.0472081 0.0544013 0.0586688 0.0508987 0.0561396 0.0512459 0.0776034 0.0692188 0.0633473 0.0660662 0.0744785 0.0761436
15 1 Mg 1.12778 2.37449 2.9896 1.2 1 0.0179998 0.0387046 0.016248 0.0234214 0.0254117 0.0415785 0.0411858 0.0507279 0.0369368 0.0591564 0.0376378 0.0580746 0.0409601 0.0680518 0.0630065 0.070155 0.0684257 0.0836018 0.0455743 0.0870524
16 1 Mg 3.92855 2.33318 4.4844 1.2 1 0.027939 0.0172529 0.0253647 0.0252007 0.0416754 0.0254681 0.0346177 0.0389337 0.0454578 0.0704677 0.050232 0.0605946 0.0521507 0.058973 0.0547593 0.0740414 0.0606068 0.0962821 0.0726744 0.0837107
17 2 Si 2.09341 4.39804 4.4844 2.4 1 0.0189443 0.0193399 0.0321036 0.0187896 0.0432115 0.026104 0.0604123 0.0228707 0.0451102 0.0468876 0.0643743 0.0616509 0.0673492 0.0633668 0.070152 0.0733163 0.0727208 0.0828261 0.0549836 0.0631278
18 3 O 2.09991 6.01128 4.4844 -1.2 1 0.0141066 0.0120994 0.0149842 0.0170252 0.0345429 0.0255162 0.0505914 0.0559687 0.049564 0.0475818 0.0474805 0.066777 0.0432211 0.0599426 0.0634897 0.0711171 0.0477315 0.0760291 0.0567219 0.072351
19 3 O -4.52137 3.42402 4.4844 -1.2 1 0.0230135 0.0282888 0.0360143 0.0241223 0.0256548 0.0581224 0.0404241 0.046446 0.0553933 0.0585726 0.0319527 0.0568234 0.0537538 0.0522158 0.0905565 0.0762724 0.0776631 0.0597666 0.0711691 0.0552209
20 3 O 2.80834 3.69187 3.18632 -1.2 1 0.00899324 0.022632 0.0208238 0.0246089 0.0186811 0.0362192 0.0369113 0.05058 0.044253 0.0603304 0.0664129 0.0540341 0.0446025 0.065323 0.0718727 0.0734929 0.0633541 0.0565608 0.0692693 0.0706715
21 1 Mg 1.17857 2.37449 0 1.2 1 0.0151153 0.0339982 0.0286298 0.0273373 0.0376743 0.0378631 0.0428478 0.058943 0.03621 0.049269 0.0517211 0.0419496 0.0421295 0.0675844 0.0565858 0.0639037 0.061387 0.0809358 0.0579176 0.0736904
22 3 O 2.76143 3.69187 5.78248 -1.2 1 0.007591 0.0205299 0.0183431 0.0228003 0.0166553 0.0341884 0.0412608 0.0441583 0.0356557 0.043327 0.0583437 0.0423357 0.0512767 0.0746864 0.0731491 0.066202 0.0709938 0.059163 0.0696042 0.0770698
23 1 Mg -1.67381 2.41581 1.4948 1.2 1 0.0115334 0.0114768 0.0373064 0.0362589 0.0319626 0.0441812 0.0581323 0.040715 0.0509352 0.039802 0.0468117 0.0600255 0.0551655 0.0630384 0.0617195 0.0651138 0.0832486 0.0767575 0.0669561 0.0742174
24 2 Si 0.16286 0.350945 1.4948 2.4 1 0.0160826 0.0356984 0.0278206 0.0278293 0.034049 0.0355709 0.0555503 0.0486595 0.052683 0.0496505 0.0399959 0.05574 0.0730057 0.0706449 0.0595116 0.0749666 0.0727446 0.0648314 0.0728305 0.0666157
25 3 O 0.15972 -1.26229 1.4948 -1.2 1 0.00912018 0.0152601 0.0396043 0.0216548 0.0377212 0.036078 0.0455376 0.0572332 0.046867 0.0512388 0.0558119 0.0555285 0.063231 0.06604 0.0498796 0.0599383 0.0697111 0.0661166 0.0629748 0.0745575
26 3 O 6.77654 1.32496 1.4948 -1.2 1 0.0143731 0.0257416 0.0262311 0.0258948 0.0360021 0.0534351 0.0345504 0.0634165 0.0490006 0.0471979 0.0434853 0.0518563 0.0537586 0.060451 0.0684996 0.0709095 0.0837331 0.0626768 0.0599193 0.0732115
27 3 O -0.508028 1.05712 0.196716 -1.2 1 0.0270547 0.0166678 0.0311146 0.02012 0.0313351 0.0519035 0.0433739 0.0443077 0.0478886 0.0476555 0.0510621 0.0486883 0.049316 0.0642141 0.0555642 0.0636387 0.0647172 0.0609462 0.0713744 0.0730659
28 3 O -0.552171 1.05712 2.79288 -1.2 1 0.0331397 0.0317668 0.027685 0.031263 0.022558 0.0433747 0.0412677 0.046618 0.0435276 0.034024 0.0503897 0.049406 0.061131 0.061681 0.0657108 0.0768435 0.0729365 0.0539576 0.0680969 0.07223
29 1 Mg 6.31713 4.74899 0 1.2 1 0.0272155 0.0300151 0.0298631 0.0357828 0.0320159 0.0254714 0.04073 0.0570543 0.0586859 0.0496546 0.0510009 0.0389587 0.0584133 0.06173 0.0661988 0.0632263 0.0661038 0.0738815 0.0709846 0.0698443
30 1 Mg 3.54847 9.45668 1.4948 1.2 1 0.0217756 0.0143346 0.0180626 0.0205356 0.0184814 0.0381919 0.0383962 0.0416741 0.0455898 0.0558878 0.0393915 0.0691457 0.0519617 0.0654153 0.0719564 0.0627088 0.0667825 0.0872308 0.0733001 0.0790781
31 2 Si 5.36879 6.77254 1.4948 2.4 1 0.0290306 0.0271286 0.0238996 0.0255529 0.0246049 0.0350246 0.0442868 0.0362261 0.0448104 0.0570132 0.0422121 0.0584793 0.0535258 0.0665071 0.0656252 0.0741369 0.0675236 0.079276 0.0561899 0.0689793
32 3 O 5.41937 8.38578 1.4948 -1.2 1 0.0215868 0.0115015 0.0235684 0.0295722 0.0175859 0.0432612 0.0441508 0.0573238 0.0366299 0.0509097 0.0475853 0.0637259 0.0551741 0.0544036 0.0658539 0.0603186 0.0726093 0.0560099 0.0734662 0.0731104
33 3 O 1.75158 5.79852 1.4948 -1.2 1 0.0284526 0.0123203 0.0225476 0.0265308 0.0439873 0.0307911 0.039279 0.0570471 0.0406467 0.0525983 0.0494292 0.0511372 0.0477351 0.0708724 0.0786195 0.0787668 0.0604726 0.0750067 0.0599333 0.0766404
34 3 O 4.67421 6.06637 0.196716 -1.2 1 0.0145611 0.0264957 0.0315426 0.0242973 0.0320407 0.0378203 0.0345404 0.0322552 0.0447444 0.0561627 0.039313 0.0442997 0.0667627 0.0561583 0.0676751 0.0711121 0.0713617 0.0658304 0.0633975 0.0683284
35 1 Mg 6.26654 4.74899 2.9896 1.2 1 0.0197964 0.0279229 0.0250199 0.0416086 0.0242094 0.0446052 0.0487681 0.0494229 0.035976 0.0647088 0.0376814 0.0614094 0.0393805 0.0632051 0.0521152 0.0780625 0.0555062 0.0829398 0.0453355 0.0899989
36 3 O 4.63043 6.06637 2.79288 -1.2 1 0.0213899 0.0202098 0.041131 0.0194236 0.0320571 0.0364913 0.0426628 0.0487886 0.0453816 0.0368215 0.0487521 0.0521687 0.0560113 0.0647244 0.0613213 0.073913 0.0653868 0.0696611 0.0668615 0.0867422
37 1 Mg -1.12976 4.79031 4.4844 1.2 1 0.0256594 0.0281499 0.0207577 0.0165867 0.0364255 0.0397046 0.0483574 0.0500219 0.0434249 0.0426579 0.0584237 0.0603865 0.0786759 0.0701116 0.0621434 0.0713634 0.0682744 0.0943126 0.0681789 0.0797055
38 2 Si -2.9517 7.47444 4.4844 2.4 1 0.0220432 0.0142722 0.0226429 0.031034 0.0313321 0.0389479 0.0617218 0.0312093 0.0538696 0.0605812 0.0522186 0.0577106 0.0624436 0.0589284 0.0827973 0.0702064 0.0537488 0.0839526 0.0545728 0.0626779
39 3 O -3.00198 5.86121 4.4844 -1.2 1 0.00911422 0.0196724 0.0305035 0.0269491 0.0292991 0.0311705 0.0516973 0.0615343 0.0408562 0.0523091 0.0484482 0.0715494 0.0576996 0.0564835 0.0648577 0.0717925 0.0451837 0.0743453 0.0625878 0.0789266
40 3 O 0.666315 8.44846 4.4844 -1.2 1 0.0237887 0.0233978 0.0253519 0.0150801 0.0229096 0.0533978 0.0324412 0.0494353 0.0439781 0.0495345 0.0402575 0.0504023 0.0510338 0.0729023 0.101517 0.0662186 0.0767888 0.0506855 0.0698386 0.0733652
41 3 O -2.21213 8.18062 3.18632 -1.2 1 0.0138302 0.0146636 0.0157026 0.0150875 0.0162183 0.0364388 0.0459852 0.0561833 0.0458465 0.0539852 0.0551768 0.0504639 0.0534688 0.0489832 0.0781839 0.0622264 0.0719193 0.0594465 0.0674364 0.0715608
42 3 O -2.25864 8.18062 5.78248 -1.2 1 0.0127621 0.0139009 0.0238266 0.0214996 0.017595 0.0238353 0.0528143 0.0424974 0.0389435 0.0394972 0.0553434 0.0375554 0.0551896 0.0566866 0.0823311 0.0728071 0.0673796 0.0610084 0.0668098 0.0789377
43 1 Mg 1.20893 7.12349 2.9896 1.2 1 0.00776804 0.0222559 0.0185424 0.0244437 0.0236121 0.0395443 0.0427439 0.045629 0.0351564 0.0658011 0.0394829 0.0673609 0.0361961 0.0579101 0.0521193 0.0799094 0.0516986 0.0846461 0.0475903 0.0871966
44 1 Mg 4.00982 7.08218 4.4844 1.2 1 0.0227095 0.0159111 0.020406 0.0322976 0.0312186 0.0370938 0.0392331 0.0391718 0.0450231 0.0525842 0.0563932 0.0558702 0.0715437 0.0729217 0.056529 0.07096 0.0617988 0.0991466 0.0711326 0.0803187
45 2 Si 2.17861 9.14704 4.4844 2.4 1 0.0251547 0.0109161 0.0244076 0.0230806 0.0339149 0.0304459 0.064754 0.0219763 0.0502537 0.0579894 0.0543939 0.0587839 0.0629051 0.0581354 0.0772862 0.0676773 0.0518187 0.0926015 0.0545386 0.0596815
46 3 O 2.18828 10.7603 4.4844 -1.2 1 0.0215387 0.0123934 0.0113312 0.0171693 0.0268995 0.0215794 0.0432499 0.0595374 0.0430636 0.0512738 0.0419711 0.0719386 0.044374 0.0627606 0.0673017 0.071276 0.0456563 0.0721302 0.062 0.0737846
47 3 O -4.43805 8.17302 4.4844 -1.2 1 0.0113078 0.0155961 0.0180329 0.0182736 0.0247793 0.0504529 0.0408417 0.0463278 0.0450663 0.0502358 0.0353132 0.0551727 0.0522272 0.0720529 0.100012 0.0685402 0.0800939 0.0533542 0.0710675 0.074136
48 3 O 2.89193 8.44087 3.18632 -1.2 1 0.0247286 0.0181659 0.0188527 0.0122875 0.0194438 0.0385617 0.0336344 0.0521559 0.0408441 0.0533843 0.056368 0.0514693 0.0507789 0.0513138 0.0795585 0.0615892 0.0713587 0.0598078 0.0663441 0.0730975
49 1 Mg 1.25915 7.12349 0 1.2 1 0.0188267 0.0175365 0.0285237 0.0147809 0.0318772 0.0249571 0.050027 0.0398541 0.0560902 0.0493822 0.0539875 0.0423498 0.0709861 0.0509217 0.0683253 0.0705908 0.0640735 0.0707176 0.0792385 0.0592267
50 3 O 2.84547 8.44087 5.78248 -1.2 1 0.0079156 0.0148045 0.0208407 0.0201459 0.0223506 0.023196 0.0506953 0.0459776 0.0395599 0.0404691 0.0569116 0.042565 0.0576604 0.0637842 0.0840275 0.0637052 0.0710951 0.0584808 0.0631861 0.078721
51 1 Mg -1.59284 7.16481 1.4948 1.2 1 0.00984412 0.0163535 0.020585 0.0204064 0.0151059 0.0371833 0.0462424 0.0425434 0.0432452 0.0576549 0.038796 0.0662204 0.0520543 0.0691781 0.0761997 0.0605128 0.0676827 0.0843488 0.0732332 0.0785256
52 2 Si 0.240329 5.09994 1.4948 2.4 1 0.0246763 0.0174404 0.0158258 0.0433576 0.0271318 0.0404721 0.0466837 0.0533634 0.0550391 0.0484124 0.0457369 0.0577316 0.0592158 0.0679332 0.0656776 0.0662385 0.064074 0.0729237 0.0662284 0.0684032
53 3 O 0.234538 3.48671 1.4948 -1.2 1 0.0131087 0.016599 0.0264945 0.0360545 0.0311879 0.0488754 0.045993 0.0424664 0.052729 0.0471895 0.0518093 0.0617444 0.0560586 0.0607045 0.061411 0.0633848 0.0625365 0.0576655 0.0753793 0.0752284
54 3 O 6.85564 6.07396 1.4948 -1.2 1 0.0325243 0.0196112 0.0346622 0.0274873 0.0371514 0.0401044 0.0325794 0.0624236 0.0363982 0.0530914 0.0536801 0.053656 0.0553564 0.0734505 0.0699853 0.0769227 0.0662415 0.0723034 0.0533636 0.0849989
55 3 O -0.429565 5.80612 0.196716 -1.2 1 0.0339973 0.0199464 0.0157216 0.0211374 0.0409807 0.0375352 0.0538831 0.0452405 0.0460734 0.0563766 0.039763 0.0420221 0.0535413 0.0601244 0.0598537 0.0682376 0.0702473 0.0610934 0.0652684 0.0739721
56 3 O -0.473377 5.80612 2.79288 -1.2 1 0.0248894 0.0208007 0.0337453 0.018521 0.0337083 0.0472605 0.0493055 0.0484196 0.0551414 0.0456307 0.0623461 0.0376581 0.0429857 0.0608637 0.0665458 0.0715835 0.0652564 0.069894 0.0710154 0.0796317
57 1 Mg 6.40169 9.49799 0 1.2 1 0.0127809 0.0119076 0.0211912 0.0142424 0.0304778 0.0212003 0.0521554 0.035517 0.058591 0.0491428 0.0497677 0.0353984 0.0672015 0.0527593 0.0711064 0.0670307 0.0651882 0.0706201 0.0809908 0.0686264
58 1 Mg 3.64209 14.2057 1.4948 1.2 1 0.0105538 0.0109283 0.0182098 0.0164801 0.021759 0.0336735 0.0359074 0.0433227 0.0412641 0.0555012 0.0392512 0.0666099 0.0531793 0.0661688 0.0742896 0.0633312 0.0647152 0.0825081 0.0737679 0.0783104
59 2 Si 5.45748 11.5215 1.4948 2.4 1 0.0108314 0.0234792 0.0215006 0.0250793 0.0175363 0.0403876 0.0399873 0.0387384 0.0445351 0.0560411 0.0424827 0.0605051 0.0524571 0.0668919 0.0694075 0.0640609 0.0713201 0.0808797 0.0585784 0.0658914
60 3 O 5.51101 13.1348 1.4948 -1.2 1 0.0241736 0.0135232 0.0224353 0.0292923 0.0200492 0.0434734 0.0443586 0.0590663 0.0364183 0.049697 0.0430906 0.0671182 0.0533796 0.0535026 0.0657426 0.0601154 0.0706692 0.0577433 0.0697066 0.0718017
61 3 O 1.83851 10.5475 1.4948 -1.2 1 0.0351835 0.0141513 0.0217042 0.0138215 0.0363052 0.0301552 0.036709 0.0587007 0.0395318 0.0480151 0.0498513 0.0516814 0.0474477 0.0752123 0.0756833 0.0801003 0.0568715 0.0761608 0.0578027 0.0790609
62 3 O 4.7611 10.8154 0.196716 -1.2 1 0.0324955 0.0216442 0.0222497 0.0193671 0.0264099 0.0445366 0.0484429 0.0368025 0.0377099 0.0488903 0.0371473 0.0403745 0.0605223 0.0596966 0.0638529 0.0705038 0.0739872 0.0659346 0.0724407 0.0686519
63 1 Mg 6.35203 9.49799 2.9896 1.2 1 0.015254 0.0158549 0.0222875 0.0214376 0.0183023 0.0375176 0.0356478 0.0497721 0.0349404 0.0580197 0.0330918 0.0654879 0.0271924 0.0665321 0.0460592 0.0793146 0.0425333 0.0916355 0.048017 0.0911523
64 3 O 4.71833 10.8154 2.79288 -1.2 1 0.0258034 0.00978334 0.0310467 0.0126616 0.0301899 0.0434133 0.0436368 0.0452457 0.042444 0.0377025 0.0521566 0.041904 0.0537585 0.0577532 0.0730993 0.067341 0.0725475 0.0599237 0.0682103 0.0825831
65 1 Mg -1.0438 9.53931 4.4844 1.2 1 0.0146469 0.0216033 0.0198469 0.0231 0.0295477 0.0280318 0.039172 0.0349983 0.0460165 0.0502084 0.0571924 0.0556485 0.0658779 0.0727354 0.0587628 0.0664909 0.0716897 0.0976803 0.0694818 0.0857506
66 2 Si -2.8604 12.2234 4.4844 2.4 1 0.0201476 0.0121508 0.0175908 0.0263532 0.0298934 0.0415089 0.0595185 0.0316286 0.055124 0.06049 0.0552975 0.0641542 0.0610568 0.0558323 0.078696 0.0741855 0.0478252 0.0916711 0.0526779 0.060843
67 3 O -2.91391 10.6102 4.4844 -1.2 1 0.018249 0.0156035 0.0106865 0.0211124 0.0286633 0.0233134 0.0451754 0.0642466 0.0401701 0.0523059 0.0362829 0.0711434 0.0433606 0.0594255 0.0662414 0.075289 0.0499639 0.0731105 0.0615698 0.0784334
68 3 O 0.7596 13.1975 4.4844 -1.2 1 0.0261743 0.0246367 0.0186136 0.0114029 0.0238368 0.0494062 0.0344375 0.050612 0.0450994 0.0505174 0.0397381 0.0486294 0.0473259 0.0713201 0.0967189 0.0635648 0.0764868 0.0552306 0.0703145 0.0727113
69 3 O -2.12001 12.9296 3.18632 -1.2 1 0.023819 0.010595 0.020332 0.0172148 0.0194522 0.0353335 0.0406254 0.0530304 0.0441695 0.0559921 0.0539929 0.0498651 0.0547496 0.0482135 0.0801081 0.062456 0.0725418 0.0628426 0.0666232 0.0696075
70 3 O -2.16532 12.9296 5.78248 -1.2 1 0.0142813 0.0158706 0.0205512 0.0260336 0.0177896 0.0273041 0.0506909 0.0438019 0.0396376 0.0408996 0.0545487 0.0383115 0.0588847 0.0596352 0.0821206 0.0686762 0.070628 0.0632769 0.0718088 0.074989
71 1 Mg 1.29891 11.8725 2.9896 1.2 1 0.0103226 0.0182009 0.0225068 0.0254512 0.019487 0.0376804 0.0368773 0.0476561 0.0357256 0.059594 0.0357374 0.0591447 0.0270571 0.0669699 0.0490031 0.0815232 0.0475345 0.0893106 0.0481357 0.0868032
72 1 Mg 4.10033 11.8312 4.4844 1.2 1 0.0072857 0.0123483 0.0250587 0.0274018 0.0316187 0.0321537 0.0384727 0.0335751 0.0474843 0.0519271 0.0550937 0.0503528 0.0669238 0.0722991 0.0512968 0.0712239 0.0667296 0.100712 0.0710071 0.0781166
73 2 Si 2.27333 13.896 4.4844 2.4 1 0.0278243 0.00842967 0.02011 0.0256383 0.0218811 0.0378016 0.0620226 0.0283105 0.0554241 0.0572465 0.0537489 0.0589258 0.0614566 0.0564899 0.0749057 0.0695903 0.0459284 0.0975212 0.0554124 0.0568886
74 3 O 2.28634 15.5093 4.4844 -1.2 1 0.0272483 0.0153245 0.00878938 0.0219406 0.0242343 0.0203587 0.0421453 0.0595449 0.0433116 0.0500045 0.0413943 0.0692926 0.0439711 0.0637076 0.0676815 0.0680344 0.0491744 0.0673915 0.0643182 0.0773246
75 3 O -4.34533 12.922 4.4844 -1.2 1 0.0162988 0.0189558 0.0227239 0.0165223 0.0242175 0.0491177 0.0370347 0.049811 0.0443328 0.053318 0.039146 0.0539658 0.0459392 0.0704023 0.100995 0.06802 0.0802837 0.0533311 0.0728416 0.0753776
76 3 O 2.98455 13.1899 3.18632 -1.2 1 0.0253661 0.010939 0.0180175 0.0113248 0.0192478 0.0392243 0.038116 0.0566973 0.0422425 0.0552862 0.0547269 0.0499554 0.0507051 0.0503394 0.0799823 0.0610736 0.0693869 0.0600469 0.0647527 0.073488
77 1 Mg 1.34779 11.8725 0 1.2 1 0.0215815 0.0090751 0.0220093 0.0147513 0.0289546 0.0227239 0.0517 0.0346391 0.0575643 0.0509425 0.0496849 0.0354118 0.0652949 0.0499109 0.0708669 0.0645388 0.0616095 0.0701226 0.0870993 0.0602824
78 3 O 2.93934 13.1899 5.78248 -1.2 1 0.0199644 0.0113914 0.024803 0.0218965 0.0162149 0.0272868 0.0492492 0.0452915 0.0383594 0.0402753 0.05918 0.0384256 0.0532813 0.061539 0.0798252 0.062029 0.0683912 0.0569328 0.0651465 0.0779745
79 1 Mg -1.50344 11.9138 1.4948 1.2 1 0.012918 0.0178664 0.0230203 0.0203878 0.011899 0.0368536 0.038469 0.0421846 0.040482 0.0595844 0.034727 0.0660223 0.0507492 0.0651493 0.0754142 0.068483 0.0638554 0.0837701 0.0767209 0.0788284
80 2 Si 0.326006 9.84894 1.4948 2.4 1 0.0281728 0.0180316 0.0268322 0.0293591 0.016798 0.0381926 0.0432686 0.039933 0.0436442 0.0545949 0.0397781 0.0604246 0.0561499 0.0665146 0.0610467 0.0623369 0.0706669 0.0805617 0.061756 0.0695167
81 3 O 0.317364 8.23571 1.4948 -1.2 1 0.0225188 0.0125244 0.0227265 0.0239171 0.0202974 0.0453232 0.0428421 0.0498497 0.0346116 0.0540764 0.04437 0.0655814 0.0576082 0.0600172 0.0683004 0.0661049 0.071519 0.0535219 0.0734232 0.0739617
82 3 O 6.94307 10.823 1.4948 -1.2 1 0.0312311 0.0148017 0.0219701 0.0116566 0.0372413 0.0329361 0.0380719 0.0580639 0.0349068 0.0479232 0.0511552 0.0530251 0.050063 0.0742211 0.0727039 0.0797481 0.0612932 0.0727744 0.0583543 0.07981
83 3 O -0.343122 10.5551 0.196716 -1.2 1 0.0308648 0.0175004 0.0216481 0.0208756 0.0297662 0.0413976 0.0512991 0.0397478 0.0386824 0.0507112 0.0370901 0.0375479 0.0612925 0.060837 0.0688434 0.0707219 0.0810891 0.054138 0.0701508 0.0694589
84 3 O -0.385966 10.5551 2.79288 -1.2 1 0.0216123 0.0193598 0.0325047 0.0134543 0.0343137 0.0408166 0.0446146 0.0461779 0.0429424 0.0395346 0.0541572 0.0491199 0.0494079 0.0562564 0.0691411 0.0722325 0.066924 0.0593452 0.0684555 0.0783589
85 1 Mg 6.49448 14.247 0 1.2 1 0.0225048 0.0100321 0.0183738 0.0169623 0.0286769 0.0225803 0.0479284 0.0328685 0.0593277 0.0482255 0.0512431 0.0375752 0.0630216 0.0534184 0.0714562 0.0655666 0.0641503 0.0709564 0.0845308 0.0709977
86 1 Mg 3.74457 18.9547 1.4948 1.2 1 0.0149612 0.0106959 0.0153267 0.0161835 0.0257606 0.0293827 0.030984 0.0397492 0.0381136 0.0580583 0.0433922 0.0665073 0.0505426 0.0661509 0.0708701 0.0695205 0.0632896 0.083406 0.0779466 0.0758752
87 2 Si 5.55495 16.2705 1.4948 2.4 1 0.012054 0.02018 0.0220419 0.026826 0.0184757 0.042595 0.0363893 0.042132 0.0452218 0.0518158 0.0434572 0.0610943 0.0542815 0.0640569 0.0698049 0.0588535 0.0730662 0.0798643 0.060729 0.0705385
88 3 O 5.6115 17.8838 1.4948 -1.2 1 0.026934 0.0179744 0.0232843 0.0255922 0.0193583 0.0433858 0.0452977 0.0609444 0.0376063 0.0502549 0.0379903 0.067043 0.0510007 0.0559103 0.0641216 0.0575234 0.0655702 0.061674 0.0632981 0.0693265
89 3 O 1.93416 15.2965 1.4948 -1.2 1 0.0371228 0.0150323 0.0220245 0.013048 0.035203 0.029918 0.0362834 0.0589492 0.0426362 0.0466727 0.0486845 0.0504867 0.0466052 0.0741903 0.080648 0.0771534 0.0591228 0.0741184 0.0624197 0.0772942
90 3 O 4.85636 15.5644 0.196716 -1.2 1 0.0259579 0.010761 0.0221996 0.0195811 0.0237212 0.0517378 0.0508915 0.0404208 0.0409232 0.0466302 0.036872 0.0335409 0.0637051 0.0548865 0.0672244 0.0682439 0.0752455 0.0632925 0.0726887 0.0679825
91 1 Mg 6.44662 14.247 2.9896 1.2 1 0.0115674 0.0162188 0.019343 0.0211662 0.0177523 0.0344662 0.0376537 0.0522735 0.0372762 0.0568565 0.0366644 0.063507 0.024518 0.0674005 0.0442945 0.0759882 0.0420658 0.0926486 0.0463484 0.0929705
92 3 O 4.81537 15.5644 2.79288 -1.2 1 0.0192272 0.0101118 0.0234234 0.0117995 0.0281513 0.0385513 0.0464318 0.0496794 0.0434805 0.0390757 0.0510036 0.0430559 0.0518662 0.0545453 0.0744508 0.0660844 0.0751146 0.054327 0.0705104 0.0771518
93 1 Mg -0.948271 14.2883 4.4844 1.2 1 0.0132137 0.00921244 0.0152716 0.0279392 0.0269633 0.0261168 0.0360695 0.0356386 0.0470698 0.0515217 0.059586 0.0523377 0.0658643 0.0671911 0.0584323 0.0706626 0.0696003 0.0920092 0.0748426 0.082323
94 2 Si -2.75928 16.9724 4.4844 2.4 1 0.0162019 0.0140414 0.0208984 0.0276149 0.0297582 0.0410391 0.0580683 0.033324 0.0543367 0.0608776 0.0527886 0.062941 0.0581509 0.0543358 0.0787126 0.0719525 0.051556 0.0912875 0.0554098 0.0615105
95 3 O -2.81617 15.3592 4.4844 -1.2 1 0.0183379 0.0130497 0.0144791 0.0261216 0.0282581 0.0222943 0.0400625 0.0619898 0.0422474 0.0501757 0.0407648 0.0722584 0.0472671 0.0590869 0.0655774 0.0661839 0.0490996 0.0726757 0.0642916 0.0761278
96 3 O 0.862762 17.9465 4.4844 -1.2 1 0.0178515 0.0237011 0.0211067 0.0168615 0.021278 0.0489796 0.0345552 0.0517977 0.0482539 0.0537081 0.0401245 0.048284 0.043321 0.0721234 0.107591 0.0561319 0.0690817 0.052585 0.0716666 0.0683113
97 3 O -2.0185 17.6786 3.18632 -1.2 1 0.0248218 0.0110993 0.0186101 0.0177765 0.017975 0.035347 0.0422097 0.0534971 0.0418409 0.0526577 0.0524281 0.0490851 0.0554946 0.0493489 0.0815791 0.0601778 0.069913 0.0668742 0.0643995 0.0681657
98 3 O -2.06164 17.6786 5.78248 -1.2 1 0.0183523 0.0136847 0.0227185 0.0202194 0.0168996 0.027943 0.0464989 0.0492551 0.0361846 0.0382098 0.060162 0.0452292 0.0572064 0.0572313 0.0872073 0.0689941 0.071464 0.061711 0.0696641 0.0747792
99 1 Mg 1.39817 16.6215 2.9896 1.2 1 0.0050285 0.0165013 0.0145356 0.0171356 0.0211301 0.0349783 0.0381627 0.0553655 0.0369094 0.0606418 0.0382503 0.0563609 0.0275073 0.0687115 0.0461144 0.0784922 0.0470684 0.0926521 0.0454937 0.0890677
100 1 Mg 4.20062 16.5802 4.4844 1.2 1 0.0187247 0.0152094 0.0155307 0.0252139 0.0243587 0.028787 0.0450966 0.0330218 0.0463985 0.0497136 0.0552966 0.0550334 0.0687009 0.0699234 0.0524361 0.0728914 0.0720379 0.0967513 0.0707128 0.0810281
101 2 Si 2.37796 18.645 4.4844 2.4 1 0.0230915 0.00821265 0.0177311 0.0248698 0.0268819 0.0385608 0.0619383 0.0318237 0.0547193 0.0619428 0.0508593 0.0579974 0.0640916 0.0559095 0.0753191 0.0649471 0.0490902 0.0992381 0.0547248 0.0579586
102 3 O 2.39434 20.2583 4.4844 -1.2 1 0.0236823 0.0108222 0.0114757 0.0176331 0.0230927 0.02328 0.0376124 0.0575319 0.0428451 0.0488723 0.0420364 0.0754846 0.0520107 0.0625689 0.0710573 0.068132 0.0492489 0.0699527 0.0674399 0.0759763
103 3 O -4.24274 17.671 4.4844 -1.2 1 0.0216008 0.0210917 0.0196254 0.0160936 0.0221296 0.0488827 0.0366946 0.048257 0.041709 0.0527356 0.0414063 0.0511512 0.0506717 0.0738756 0.0977283 0.0642769 0.0727077 0.0581212 0.0755292 0.0712695
104 3 O 3.08659 17.9389 3.18632 -1.2 1 0.025817 0.0135036 0.0212514 0.0119653 0.0193592 0.0403462 0.0386299 0.0548844 0.0466173 0.0496558 0.0570398 0.0481571 0.0523834 0.0509598 0.0799167 0.0589579 0.0668175 0.061262 0.0630984 0.0704092
105 1 Mg 1.44478 16.6215 0 1.2 1 0.00948951 0.0120561 0.0216003 0.0128471 0.0265369 0.0318258 0.0476083 0.035667 0.0507276 0.0504795 0.0521704 0.0395121 0.0584142 0.0492562 0.0692315 0.0663605 0.0602301 0.0678955 0.0888272 0.0636471
106 3 O 3.0436 17.9389 5.78248 -1.2 1 0.0152326 0.0152547 0.0246212 0.0226156 0.0174448 0.0245942 0.0504154 0.0425738 0.0415729 0.0379622 0.059405 0.0349823 0.0549574 0.0619375 0.0810929 0.0643673 0.0699505 0.0627361 0.0658142 0.0759956
107 1 Mg -1.40524 16.6628 1.4948 1.2 1 0.0160804 0.0121946 0.0262451 0.0186687 0.0177831 0.034183 0.0363778 0.0420249 0.0411069 0.0596526 0.0418936 0.0630849 0.0545216 0.0642327 0.0704713 0.0708934 0.0640898 0.0770742 0.0796095 0.0756396
108 2 Si 0.420358 14.5979 1.4948 2.4 1 0.0211154 0.0202609 0.0271004 0.0269048 0.0178543 0.0396127 0.0392125 0.0397645 0.0446963 0.0556252 0.0439848 0.0610577 0.0577763 0.0637014 0.067272 0.0597584 0.0729651 0.0760973 0.0629278 0.0716893
109 3 O 0.408732 12.9847 1.4948 -1.2 1 0.0221692 0.0155949 0.0231051 0.0254015 0.0171537 0.0473896 0.0436347 0.0536568 0.0361215 0.052384 0.0427336 0.0691077 0.0535972 0.0570721 0.0665227 0.0636286 0.071711 0.0546161 0.0685588 0.0714308
110 3 O 7.03923 15.572 1.4948 -1.2 1 0.0338744 0.0175346 0.0209919 0.00993357 0.0358081 0.0343015 0.0372052 0.0550585 0.0370454 0.0437039 0.0514887 0.0534711 0.0489619 0.0733379 0.0777147 0.0773284 0.0653276 0.0694359 0.0623728 0.0772148
111 3 O -0.248332 15.3041 0.196716 -1.2 1 0.0190472 0.0132753 0.0215191 0.0185947 0.0251256 0.0462394 0.0486506 0.0427224 0.0393877 0.044774 0.0376142 0.0309741 0.0608251 0.0536958 0.0702783 0.0642164 0.0830286 0.0501511 0.0696919 0.0718544
112 3 O -0.289436 15.3041 2.79288 -1.2 1 0.0189924 0.0151665 0.0280682 0.00957572 0.0297762 0.0375188 0.0451592 0.0451746 0.045063 0.0397114 0.0538658 0.0472534 0.0505878 0.0548005 0.0706432 0.0686698 0.0685049 0.0547053 0.0700322 0.0768314
113 1 Mg 6.59566 18.996 0 1.2 1 0.014585 0.0128912 0.0207192 0.0129341 0.0261081 0.0323326 0.0435652 0.033869 0.0536411 0.0487928 0.0540378 0.0387041 0.0543585 0.0532314 0.0718503 0.0640455 0.063565 0.0646915 0.0876859 0.0697093
114 1 Mg 3.85574 23.7037 1.4948 1.2 1 0.0121695 0.0143692 0.0206596 0.0133158 0.0214457 0.0287348 0.0343274 0.0385058 0.0399168 0.0614123 0.044635 0.0615697 0.0502816 0.0661369 0.0618974 0.0747989 0.0646 0.0791192 0.0790087 0.0759642
115 2 Si 5.66125 21.0195 1.4948 2.4 1 0.00826155 0.0241205 0.0233163 0.0273108 0.0193141 0.0461543 0.0342956 0.0415165 0.0494814 0.0544917 0.045483 0.0604259 0.0556353 0.0595542 0.0717876 0.0608621 0.0731574 0.0771767 0.0639148 0.0752357
116 3 O 5.72074 22.6328 1.4948 -1.2 1 0.0281638 0.0191031 0.0182652 0.0227886 0.0191948 0.0446892 0.0454226 0.061943 0.038181 0.0522037 0.0328208 0.0699161 0.049101 0.0534077 0.0680408 0.0561033 0.0649905 0.0678792 0.0562939 0.0714515
117 3 O 2.03867 20.0455 1.4948 -1.2 1 0.0300177 0.0163894 0.0267911 0.0157731 0.0340441 0.030056 0.0361312 0.0552107 0.0438637 0.0427995 0.0505587 0.0508221 0.0480748 0.0733789 0.084883 0.0730042 0.0616932 0.0679857 0.0638566 0.0729548
118 3 O 4.96004 20.3134 0.196716 -1.2 1 0.020933 0.0101985 0.0227029 0.0189711 0.0235803 0.0455143 0.0438027 0.0481026 0.0388484 0.0400777 0.0407646 0.0343435 0.0647471 0.0476783 0.0692966 0.0728693 0.0708881 0.0582279 0.0720528 0.0717379
119 1 Mg 6.55057 18.996 2.9896 1.2 1 0.00958716 0.0174633 0.02118 0.0210492 0.0214967 0.0331269 0.0372632 0.0554383 0.0335023 0.0587403 0.0338387 0.0630593 0.022076 0.0705553 0.0448122 0.0741595 0.0462912 0.0969231 0.0428516 0.0927274
120 3 O 4.92172 20.3134 2.79288 -1.2 1 0.0139733 0.0119009 0.0263469 0.0131531 0.0313689 0.0394091 0.0465218 0.0469081 0.0457245 0.0431369 0.0519434 0.0418673 0.052163 0.051963 0.0751549 0.0675848 0.0756131 0.0475759 0.0698595 0.0740216
121 1 Mg -0.84282 19.0373 4.4844 1.2 1 0.00832454 0.00893388 0.012681 0.0248119 0.0256419 0.0265166 0.034154 0.0326384 0.0468401 0.0498624 0.0593044 0.0562025 0.0650866 0.067006 0.0570685 0.0728358 0.0711854 0.0933748 0.0734259 0.0825286
122 2 Si -2.64823 21.7214 4.4844 2.4 1 0.0178195 0.0166639 0.0180679 0.0302127 0.029267 0.0411922 0.0562383 0.0296287 0.0550301 0.0641759 0.0512134 0.0617519 0.0588789 0.0522638 0.0782651 0.0727822 0.045977 0.0935688 0.0527095 0.0631859
123 3 O -2.70847 20.1082 4.4844 -1.2 1 0.014928 0.0191374 0.013383 0.024547 0.0273843 0.0300672 0.0382248 0.0673104 0.0433483 0.0499088 0.0385264 0.0712 0.0516411 0.0607567 0.0682966 0.0667135 0.0524049 0.0720461 0.0654035 0.0769004
124 3 O 0.97581 22.6955 4.4844 -1.2 1 0.0189786 0.0254006 0.0215144 0.015111 0.0198363 0.0406555 0.0332826 0.0505861 0.0446543 0.0570267 0.0392975 0.0462533 0.0444948 0.0728424 0.106509 0.054055 0.0668916 0.0555013 0.0726708 0.0663205
125 3 O -1.9076 22.4276 3.18632 -1.2 1 0.0186316 0.0104598 0.021024 0.0157113 0.0203365 0.0364558 0.0471827 0.0563339 0.0395473 0.0477141 0.0557185 0.0486799 0.0574176 0.0496911 0.0803476 0.0595504 0.0688725 0.0662835 0.0624125 0.065491
126 3 O -1.9475 22.4276 5.78248 -1.2 1 0.0202242 0.00962777 0.0171356 0.01853 0.0157041 0.0310602 0.0476206 0.0463722 0.0361954 0.0372073 0.0571907 0.040647 0.0559753 0.056427 0.0796653 0.0693507 0.0723203 0.0711469 0.0713599 0.0785252