ITEM: TIMESTEP
81800
ITEM: NUMBER OF ATOMS
10500
ITEM: BOX BOUNDS xy xz yz pp pp pp
0	15.2977	5.09925
0	118.725	0
0	89.688	0
ITEM: ATOMS id type element xu yu zu q Q_1 Q_2 Q_3 Q_4 Q_5 Q_6 Q_7 Q_8 Q_9 Q_10 Q_11 Q_12 Q_13 Q_14 Q_15 Q_16 Q_17 Q_18 Q_19 Q_20 Q_21
1 1 Mg 6.2404 -6.37941e-06 0 1.2 1 0.00998588 0.0408939 0.0326141 0.0368138 0.0315615 0.0396894 0.0356178 0.0665099 0.0398194 0.0714298 0.0345139 0.0615987 0.0473732 0.0694257 0.0492867 0.0908092 0.0513453 0.0826856 0.0511471 0.100913
2 1 Mg 3.46349 4.70768 1.4948 1.2 1 0.00792967 0.0193997 0.024553 0.0255587 0.0196802 0.0422972 0.0434819 0.0410376 0.0466647 0.054763 0.0417401 0.0718034 0.0602854 0.0702024 0.0734301 0.0642855 0.0656676 0.086104 0.074969 0.0820822
3 2 Si 5.2885 2.02354 1.4948 2.4 1 0.0219782 0.0222546 0.0366657 0.0257094 0.0309892 0.0367348 0.0533449 0.033575 0.0442764 0.0516548 0.056179 0.0616437 0.0558975 0.0636157 0.067991 0.0789984 0.0709031 0.0649707 0.0630512 0.0732779
4 3 O 5.33628 3.63678 1.4948 -1.2 1 0.0093898 0.0140756 0.0267746 0.0261667 0.0183892 0.0390272 0.0418458 0.0603777 0.035394 0.0403845 0.0543396 0.0509469 0.0676047 0.0575217 0.0586582 0.0644052 0.060195 0.0616163 0.0712127 0.0744919
5 3 O 1.67294 1.04952 1.4948 -1.2 1 0.012761 0.0214017 0.0224075 0.0398813 0.0335504 0.0400252 0.0332386 0.0614935 0.0356508 0.0598565 0.0444992 0.0535099 0.0693548 0.0595971 0.077062 0.0703957 0.0647781 0.0647143 0.0798618 0.0613414
6 3 O 4.59532 1.31737 0.196716 -1.2 1 0.026965 0.0196382 0.0563585 0.0254746 0.0334989 0.0487077 0.039185 0.047715 0.0338184 0.040254 0.0384334 0.0507519 0.0550116 0.0582361 0.0639115 0.07043 0.0629052 0.071799 0.0592327 0.0699649
7 1 Mg 6.18956 -6.37941e-06 2.9896 1.2 1 0.0154656 0.0286145 0.0156106 0.0212891 0.0371159 0.0447601 0.0501062 0.0431806 0.0468089 0.0459052 0.03855 0.0559652 0.0389488 0.0571867 0.0592792 0.0810137 0.0580021 0.0702926 0.0590939 0.0699084
8 3 O 4.55118 1.31737 2.79288 -1.2 1 0.0218224 0.0238777 0.0364784 0.0163602 0.0281426 0.0458768 0.0449183 0.0466642 0.0444465 0.0535422 0.0553469 0.0483807 0.0483428 0.067336 0.0547052 0.0692742 0.0666625 0.0663508 0.0639028 0.0722055
9 1 Mg -1.20682 0.0413099 4.4844 1.2 1 0.0214019 0.03067 0.0247778 0.0291628 0.0450681 0.0374379 0.0336194 0.0518742 0.0551235 0.0366482 0.0454385 0.0614373 0.0667625 0.056274 0.0786997 0.0618736 0.0800688 0.0742418 0.0676886 0.0501533
10 2 Si -3.0337 2.72544 4.4844 2.4 1 0.0367842 0.0173244 0.0241199 0.0154608 0.0288443 0.0460121 0.0573089 0.0386011 0.0602331 0.0526774 0.046937 0.0673223 0.0601726 0.0773536 0.0590129 0.0635392 0.0746279 0.0800759 0.0721253 0.0567439
11 3 O -3.08099 1.11221 4.4844 -1.2 1 0.0153907 0.0200449 0.0288573 0.0249438 0.039119 0.0252384 0.0513512 0.0469174 0.0395672 0.0425044 0.0418358 0.074485 0.0556627 0.055212 0.0585262 0.0694223 0.0580701 0.07382 0.0717879 0.0766859
12 3 O 0.582463 3.69946 4.4844 -1.2 1 0.00519904 0.0119172 0.0302606 0.0287495 0.0273724 0.0630013 0.0363539 0.0518686 0.0435079 0.0403591 0.053619 0.0571173 0.0657872 0.0738039 0.0962458 0.0700857 0.0811947 0.0409506 0.0694616 0.0680393
13 3 O -2.29524 3.43162 3.18632 -1.2 1 0.0113707 0.0184092 0.0262943 0.031746 0.0202022 0.0501413 0.0530632 0.0509872 0.0413325 0.0505705 0.0597181 0.0541228 0.0418357 0.0521425 0.0599616 0.0653476 0.0680312 0.0629108 0.0647373 0.0740941
14 3 O -2.34216 3.43162 5.78248 -1.2 1 0.0193297 0.0130503 0.019488 0.028174 0.0253633 0.0419762 0.0559091 0.0440113 0.0386438 0.0584729 0.0567667 0.0517266 0.0580707 0.0573893 0.073702 0.0685704 0.066466 0.069542 0.0708304 0.0748696
15 1 Mg 1.12778 2.37449 2.9896 1.2 1 0.0227529 0.0393755 0.0130765 0.0242783 0.0240535 0.0423261 0.0418497 0.0521613 0.0357108 0.0603341 0.0350196 0.0601437 0.0416932 0.0692108 0.0618595 0.0714828 0.0669031 0.082942 0.0455448 0.0864231
16 1 Mg 3.92855 2.33318 4.4844 1.2 1 0.0314589 0.0165662 0.0256688 0.0273624 0.0402315 0.0257745 0.0366344 0.0380507 0.0457491 0.0684214 0.0521427 0.0626133 0.054036 0.0607884 0.0568316 0.0720778 0.0640355 0.0950576 0.0739888 0.0816966
17 2 Si 2.09341 4.39804 4.4844 2.4 1 0.014756 0.0218956 0.0321714 0.0152277 0.0411714 0.027959 0.0616969 0.0225194 0.0432204 0.0471093 0.0644456 0.062919 0.0648921 0.0620566 0.0714561 0.0783433 0.0733919 0.0803912 0.0481045 0.0669545
18 3 O 2.09991 6.01128 4.4844 -1.2 1 0.0139935 0.0182838 0.0171863 0.0178129 0.0352816 0.0275702 0.0499271 0.0570844 0.0492819 0.0474238 0.0483694 0.0666256 0.0437483 0.0610868 0.0645055 0.0746551 0.044437 0.0758264 0.0597825 0.0713134
19 3 O -4.52137 3.42402 4.4844 -1.2 1 0.0213474 0.0237047 0.0375404 0.0240201 0.0253305 0.0553863 0.0432973 0.046232 0.0522264 0.0574027 0.031494 0.0579162 0.0538793 0.055303 0.0922411 0.0789016 0.0733781 0.0620043 0.0724158 0.0580551
20 3 O 2.80834 3.69187 3.18632 -1.2 1 0.00803118 0.0220568 0.0198523 0.0259814 0.0213264 0.0375158 0.0388327 0.0515306 0.0462203 0.0584842 0.0691148 0.051607 0.0461648 0.0681478 0.0734853 0.0724487 0.0613123 0.0574569 0.0707231 0.070262
21 1 Mg 1.17857 2.37449 0 1.2 1 0.0151616 0.0343038 0.0287702 0.0276029 0.0378441 0.0380445 0.0434142 0.0589447 0.0360779 0.0492571 0.0511777 0.0419028 0.0421262 0.0672728 0.0566741 0.0642214 0.0614775 0.0804205 0.0582353 0.0732471
22 3 O 2.76143 3.69187 5.78248 -1.2 1 0.00508642 0.0168401 0.0172274 0.0248635 0.0187247 0.0335012 0.0381934 0.0466624 0.037923 0.0451889 0.0591424 0.0412246 0.0562462 0.0787898 0.0780214 0.0712051 0.0701594 0.0559761 0.06905 0.0776961
23 1 Mg -1.67381 2.41581 1.4948 1.2 1 0.0114357 0.0115371 0.0372587 0.0363099 0.032115 0.0441014 0.058302 0.0404904 0.0506723 0.0399027 0.0463847 0.0598315 0.0552341 0.0638531 0.0616265 0.0645557 0.0834031 0.0772195 0.0667294 0.0741113
24 2 Si 0.16286 0.350945 1.4948 2.4 1 0.0169616 0.0329809 0.0258416 0.0272412 0.0324115 0.0349876 0.0548056 0.05093 0.0522034 0.048919 0.0399797 0.0578741 0.0727232 0.0691149 0.0585521 0.074113 0.0719995 0.0655426 0.0733384 0.0660539
25 3 O 0.15972 -1.26229 1.4948 -1.2 1 0.00913975 0.0154086 0.0396724 0.0215414 0.0375262 0.0358369 0.0454958 0.0567948 0.0468837 0.0510831 0.0556457 0.05579 0.0632738 0.0664103 0.0495189 0.0597912 0.0694268 0.0663084 0.0623904 0.0743444
26 3 O 6.77654 1.32496 1.4948 -1.2 1 0.011412 0.0276888 0.0265797 0.0276518 0.0372866 0.0543637 0.034516 0.0646759 0.0475721 0.0463494 0.0443453 0.0522539 0.0529241 0.0598436 0.0686931 0.0712217 0.084516 0.0633347 0.0595356 0.074566
27 3 O -0.508028 1.05712 0.196716 -1.2 1 0.0246157 0.0191144 0.029377 0.0208366 0.0293916 0.0533866 0.0434904 0.0448922 0.0470775 0.0485769 0.04999 0.0486475 0.0488073 0.0632689 0.0551857 0.0628285 0.0633968 0.0593309 0.071844 0.0717274
28 3 O -0.552171 1.05712 2.79288 -1.2 1 0.0371152 0.0271732 0.0372926 0.0289702 0.0235919 0.0441346 0.0442474 0.0487527 0.0436539 0.0378257 0.0456229 0.0478103 0.0584364 0.0612004 0.0665461 0.0757887 0.0726304 0.051432 0.0709681 0.0707837
29 1 Mg 6.31713 4.74899 0 1.2 1 0.02734 0.0291947 0.0303481 0.0366831 0.0327651 0.0267622 0.042207 0.0559205 0.0587328 0.0492738 0.0509702 0.0385883 0.0598096 0.0615364 0.0660396 0.0636026 0.065683 0.0738085 0.0695008 0.0701695
30 1 Mg 3.54847 9.45668 1.4948 1.2 1 0.0170518 0.0160726 0.0173396 0.0190755 0.0189073 0.0383542 0.0384806 0.041763 0.0446468 0.0564328 0.0373896 0.0688644 0.0528235 0.0658322 0.075125 0.0622647 0.0669547 0.0875346 0.0731872 0.0795031
31 2 Si 5.36879 6.77254 1.4948 2.4 1 0.0259996 0.0296584 0.0212533 0.0265192 0.0245853 0.0351111 0.0444645 0.034866 0.0459298 0.0588115 0.0425018 0.058115 0.0523344 0.0672894 0.0651548 0.0751788 0.0670304 0.0782128 0.0564383 0.0681909
32 3 O 5.41937 8.38578 1.4948 -1.2 1 0.0215322 0.0113979 0.0236116 0.0294526 0.0176794 0.0431926 0.0440363 0.0571596 0.0362635 0.0505424 0.0476818 0.0640184 0.0552024 0.0539742 0.0665958 0.0610036 0.0727539 0.0561571 0.0731641 0.0731827
33 3 O 1.75158 5.79852 1.4948 -1.2 1 0.0284911 0.0123002 0.0224849 0.0264335 0.0440141 0.0305678 0.0393831 0.0571081 0.0406349 0.0527417 0.0494569 0.0513522 0.0475666 0.0705762 0.0783904 0.078679 0.0601615 0.0750617 0.0602337 0.0764763
34 3 O 4.67421 6.06637 0.196716 -1.2 1 0.0145409 0.0265037 0.0315643 0.0243396 0.0320045 0.0378226 0.0345914 0.0322907 0.0446818 0.0561578 0.0393181 0.0443038 0.0666768 0.056383 0.0676184 0.0711905 0.0714781 0.0657404 0.0635774 0.0686422
35 1 Mg 6.26654 4.74899 2.9896 1.2 1 0.0199341 0.0249872 0.0253732 0.0384219 0.026298 0.0425553 0.0491629 0.0492914 0.0347043 0.0653189 0.0381682 0.0592757 0.0404872 0.0635386 0.0521103 0.0748656 0.0525471 0.0841444 0.0486623 0.0900992
36 3 O 4.63043 6.06637 2.79288 -1.2 1 0.0162847 0.0194933 0.0423949 0.0201813 0.0322183 0.0359656 0.0420474 0.0483351 0.0453136 0.0370825 0.0490551 0.051933 0.0578234 0.0658911 0.0622979 0.0743767 0.0663142 0.0673896 0.0675891 0.0850431
37 1 Mg -1.12976 4.79031 4.4844 1.2 1 0.0206736 0.0274205 0.0124866 0.0108771 0.038419 0.0351341 0.051386 0.0483462 0.0397245 0.0420054 0.0533853 0.0616155 0.0735353 0.0731232 0.060811 0.0716814 0.0689708 0.0935706 0.0682834 0.0798498
38 2 Si -2.9517 7.47444 4.4844 2.4 1 0.019527 0.0154862 0.0195612 0.0300616 0.0280644 0.0420603 0.0593284 0.0289671 0.054149 0.0585466 0.0511897 0.0568944 0.0637044 0.0580783 0.079735 0.0675593 0.0535887 0.0858561 0.0575681 0.0592179
39 3 O -3.00198 5.86121 4.4844 -1.2 1 0.00756301 0.0188405 0.0311989 0.0300243 0.0287939 0.0317277 0.0507833 0.0613853 0.0368765 0.0538989 0.046616 0.0719421 0.0598222 0.0556691 0.0662491 0.0716821 0.0476008 0.0723195 0.0649148 0.0798682
40 3 O 0.666315 8.44846 4.4844 -1.2 1 0.0240427 0.0232365 0.0243157 0.0149024 0.0234178 0.0516233 0.0326343 0.0491047 0.0430871 0.0492053 0.0412876 0.0522468 0.0485087 0.0702902 0.101893 0.0687539 0.0781444 0.0504799 0.0688133 0.0743665
41 3 O -2.21213 8.18062 3.18632 -1.2 1 0.0169845 0.0101744 0.0196628 0.0151245 0.01471 0.0347935 0.0452221 0.0559191 0.0433473 0.056126 0.0527063 0.0509219 0.0525929 0.0469883 0.0779835 0.0630656 0.0727797 0.0597645 0.0677987 0.0706583
42 3 O -2.25864 8.18062 5.78248 -1.2 1 0.0113422 0.0125171 0.0243041 0.0239435 0.0187615 0.0246702 0.0543248 0.0448461 0.0346294 0.0410518 0.0567079 0.0377377 0.0518142 0.0610782 0.0795392 0.068062 0.0702814 0.0591547 0.0727807 0.0787095
43 1 Mg 1.20893 7.12349 2.9896 1.2 1 0.00742798 0.0229956 0.0177048 0.0245599 0.023175 0.0390861 0.0437317 0.0464667 0.0357865 0.06597 0.0402946 0.0672673 0.0353486 0.0561343 0.0520686 0.0802606 0.0528232 0.0817731 0.047982 0.0896213
44 1 Mg 4.00982 7.08218 4.4844 1.2 1 0.0225263 0.0129691 0.0227716 0.0327541 0.0325531 0.0342495 0.0430424 0.0380458 0.0454376 0.0554031 0.0567782 0.0553307 0.0736599 0.0730207 0.0584952 0.0686736 0.0599779 0.0981429 0.0753772 0.0832041
45 2 Si 2.17861 9.14704 4.4844 2.4 1 0.0281027 0.0139321 0.0235041 0.0175644 0.0315338 0.0336253 0.0623564 0.0230963 0.048221 0.0551698 0.0544541 0.0568331 0.0623204 0.0592444 0.0812688 0.0694058 0.0500582 0.0948877 0.0569578 0.0559297
46 3 O 2.18828 10.7603 4.4844 -1.2 1 0.0222929 0.0137482 0.00826604 0.018941 0.0256236 0.0222921 0.043217 0.0605587 0.0436597 0.0525023 0.0405536 0.0707109 0.0414515 0.0636349 0.0663749 0.073052 0.0467332 0.0690691 0.0596006 0.074379
47 3 O -4.43805 8.17302 4.4844 -1.2 1 0.0188664 0.0220086 0.0168772 0.0146475 0.0240912 0.0531693 0.0377874 0.0486301 0.0440414 0.0470915 0.036319 0.0553011 0.0517559 0.0717367 0.0981633 0.0656205 0.0797365 0.0529319 0.07116 0.0726972
48 3 O 2.89193 8.44087 3.18632 -1.2 1 0.0208815 0.0150151 0.0202801 0.0126845 0.0205908 0.0393531 0.0334965 0.0543197 0.0403267 0.0549989 0.0572661 0.0499247 0.0514811 0.0516173 0.0799034 0.0621931 0.0713187 0.0596655 0.0652033 0.0733856
49 1 Mg 1.25915 7.12349 0 1.2 1 0.0201988 0.0150908 0.0247888 0.0143266 0.0320239 0.0250468 0.0523421 0.0403812 0.0558816 0.0496326 0.052842 0.0425143 0.0716273 0.0512969 0.067304 0.0713573 0.0648604 0.0711482 0.0805491 0.059083
50 3 O 2.84547 8.44087 5.78248 -1.2 1 0.0124541 0.015339 0.0180367 0.0171097 0.022315 0.0291366 0.0457542 0.0490435 0.0362623 0.0402785 0.058824 0.0436299 0.0603027 0.0622302 0.0875475 0.0640787 0.0732522 0.0624157 0.0639018 0.0780552
51 1 Mg -1.59284 7.16481 1.4948 1.2 1 0.00730798 0.0199189 0.0192464 0.0224115 0.015154 0.038061 0.0462297 0.0426406 0.0422171 0.0570043 0.0388477 0.0677875 0.0538923 0.0688896 0.0768083 0.0609937 0.0666886 0.0851007 0.0746276 0.0785327
52 2 Si 0.240329 5.09994 1.4948 2.4 1 0.0246954 0.0174957 0.0157861 0.0434247 0.0270655 0.0405479 0.0466603 0.0532809 0.0552298 0.0485448 0.0456192 0.0578631 0.0590108 0.0679369 0.0657358 0.0662006 0.0641457 0.0731024 0.066118 0.0683429
53 3 O 0.234538 3.48671 1.4948 -1.2 1 0.0121821 0.0159514 0.0281611 0.035507 0.0331857 0.0483907 0.0463543 0.0418811 0.0529833 0.0468984 0.0530986 0.0606941 0.0570222 0.0614797 0.0608208 0.0641982 0.0625359 0.0579181 0.0755934 0.0748851
54 3 O 6.85564 6.07396 1.4948 -1.2 1 0.0324785 0.0195119 0.0344497 0.0275856 0.0372806 0.0404309 0.0323341 0.062687 0.0363874 0.0535142 0.0540264 0.0538227 0.0549871 0.0729388 0.0696 0.0769656 0.0664836 0.0721137 0.0529501 0.0849191
55 3 O -0.429565 5.80612 0.196716 -1.2 1 0.034087 0.02013 0.0161506 0.0213761 0.0409405 0.0373793 0.0538642 0.0449533 0.0460374 0.0563271 0.0398074 0.0418833 0.0531064 0.0600822 0.0600486 0.0680982 0.0706809 0.0608608 0.0651013 0.0744183
56 3 O -0.473377 5.80612 2.79288 -1.2 1 0.0259895 0.0236402 0.0305306 0.0186958 0.0326245 0.0476745 0.0479969 0.0505352 0.0541212 0.0474544 0.0619106 0.0386127 0.0426632 0.059696 0.0659693 0.0719272 0.0662305 0.0706054 0.0673542 0.0818441
57 1 Mg 6.40169 9.49799 0 1.2 1 0.0127131 0.0117418 0.0212208 0.0142707 0.0305194 0.0214459 0.0525524 0.0357337 0.058648 0.0494251 0.0497027 0.0359482 0.067052 0.0525545 0.0714138 0.0671135 0.0656393 0.0705654 0.080965 0.0681269
58 1 Mg 3.64209 14.2057 1.4948 1.2 1 0.0153686 0.00918052 0.0191085 0.0182084 0.0211421 0.0336873 0.0356466 0.0432802 0.0411321 0.0547339 0.0402864 0.0661179 0.0529713 0.0653826 0.0707894 0.064471 0.0648931 0.082324 0.0747164 0.0777315
59 2 Si 5.45748 11.5215 1.4948 2.4 1 0.0119452 0.0217843 0.0233734 0.0247408 0.0181172 0.0402726 0.0396056 0.0399389 0.0434142 0.0545308 0.0422976 0.0598696 0.053556 0.06664 0.0696246 0.0633207 0.0711906 0.081748 0.0585513 0.0665731
60 3 O 5.51101 13.1348 1.4948 -1.2 1 0.0273625 0.0145054 0.0196092 0.0328541 0.017024 0.0430691 0.0424997 0.0571303 0.0352675 0.0469762 0.044795 0.0657353 0.0539796 0.052684 0.0632314 0.0589721 0.0703122 0.058664 0.068424 0.0746094
61 3 O 1.83851 10.5475 1.4948 -1.2 1 0.0395244 0.0144816 0.0196644 0.0107511 0.0363097 0.0314126 0.0369076 0.057466 0.0392411 0.0476995 0.0499636 0.0510054 0.0478224 0.0747146 0.0757443 0.0790686 0.0570932 0.0763298 0.0576044 0.0785976
62 3 O 4.7611 10.8154 0.196716 -1.2 1 0.0357444 0.0193047 0.0198644 0.0181568 0.0267406 0.0441986 0.0482868 0.0374933 0.0388673 0.0492381 0.0368979 0.0410888 0.06085 0.0608451 0.0649292 0.071576 0.0753869 0.0656356 0.0727916 0.0677051
63 1 Mg 6.35203 9.49799 2.9896 1.2 1 0.0149541 0.0159715 0.0217907 0.0212554 0.0188721 0.0366222 0.0368848 0.0492683 0.0355205 0.0589 0.03329 0.0655123 0.0269767 0.0666735 0.0467525 0.0791065 0.0425799 0.0913374 0.0468919 0.0911319
64 3 O 4.71833 10.8154 2.79288 -1.2 1 0.0291636 0.0105008 0.0303838 0.0113706 0.0303779 0.0424801 0.0440248 0.0430515 0.0428682 0.0376079 0.0525014 0.0433126 0.0527943 0.0561319 0.0717245 0.0660321 0.0723524 0.0590867 0.0697668 0.0806795
65 1 Mg -1.0438 9.53931 4.4844 1.2 1 0.00777356 0.0159238 0.0169229 0.0209987 0.0280065 0.0300533 0.0346442 0.0386527 0.045075 0.0525144 0.0570539 0.0587213 0.069195 0.0670853 0.0566264 0.0664232 0.0733282 0.10325 0.0708515 0.0816253
66 2 Si -2.8604 12.2234 4.4844 2.4 1 0.00945228 0.0171096 0.0160136 0.0293089 0.0283031 0.0422993 0.0582243 0.0292753 0.0547905 0.0633232 0.0536033 0.0606227 0.0601062 0.0568908 0.0780501 0.0681889 0.0524587 0.0933193 0.0591675 0.0619903
67 3 O -2.91391 10.6102 4.4844 -1.2 1 0.0215586 0.0105405 0.015453 0.0228621 0.0263807 0.0230849 0.0454541 0.0635757 0.0425099 0.04968 0.0370163 0.0704982 0.0443525 0.0578546 0.0644348 0.0695624 0.0486494 0.0725402 0.0582247 0.0751114
68 3 O 0.7596 13.1975 4.4844 -1.2 1 0.0188608 0.0245475 0.0219888 0.00949727 0.026835 0.0457182 0.0373359 0.0494751 0.0462039 0.0519929 0.0408219 0.0495957 0.0452768 0.0726554 0.096874 0.064716 0.0759244 0.0525736 0.0671064 0.074276
69 3 O -2.12001 12.9296 3.18632 -1.2 1 0.0201523 0.00716367 0.0217908 0.0168262 0.0198907 0.0352989 0.040777 0.0543648 0.0436336 0.0550606 0.0527549 0.0492734 0.0556106 0.0481816 0.0805252 0.06117 0.0727579 0.0653178 0.0669339 0.0688788
70 3 O -2.16532 12.9296 5.78248 -1.2 1 0.0194085 0.0142714 0.0199562 0.0215545 0.0159123 0.02613 0.0526805 0.0415592 0.0416675 0.0387647 0.0567708 0.0346448 0.0551604 0.0567379 0.0856802 0.0707454 0.070577 0.0609993 0.0673944 0.0788587
71 1 Mg 1.29891 11.8725 2.9896 1.2 1 0.00850702 0.0157482 0.0226391 0.0246662 0.0173546 0.0381701 0.0357761 0.0499606 0.0347259 0.0596449 0.033912 0.0592101 0.0242135 0.0672795 0.0483338 0.0833401 0.0484759 0.0892976 0.048272 0.0869664
72 1 Mg 4.10033 11.8312 4.4844 1.2 1 0.0115453 0.0159749 0.0164911 0.0245942 0.0259773 0.035343 0.0351366 0.039937 0.0475511 0.0499111 0.0525338 0.0530292 0.0661568 0.0692511 0.0536019 0.072593 0.0702256 0.0990881 0.0722063 0.0768305
73 2 Si 2.27333 13.896 4.4844 2.4 1 0.023007 0.00789696 0.0270329 0.0293016 0.0244924 0.0357163 0.0630882 0.0293484 0.0551716 0.0570874 0.051825 0.0587105 0.0604335 0.0573629 0.0731893 0.0666207 0.0444815 0.0975249 0.0552723 0.055848
74 3 O 2.28634 15.5093 4.4844 -1.2 1 0.0240767 0.0159159 0.00575394 0.0210271 0.022392 0.0234467 0.0394741 0.0602001 0.0428084 0.0519469 0.0400638 0.0703393 0.0465476 0.063021 0.0673089 0.0719632 0.0479809 0.0665735 0.0634697 0.0776902
75 3 O -4.34533 12.922 4.4844 -1.2 1 0.0249973 0.020171 0.0244436 0.0155294 0.025151 0.0462558 0.0375438 0.0487828 0.0439649 0.0515652 0.036769 0.0496745 0.0490238 0.0676748 0.102372 0.0686813 0.0786156 0.0526537 0.0702552 0.0722376
76 3 O 2.98455 13.1899 3.18632 -1.2 1 0.0294961 0.0132736 0.0190218 0.00945086 0.018378 0.0390687 0.03756 0.0566405 0.0430179 0.0544745 0.0541759 0.0514238 0.0497311 0.0495005 0.0806632 0.0627797 0.0668121 0.0617099 0.0650479 0.0703536
77 1 Mg 1.34779 11.8725 0 1.2 1 0.021702 0.00921048 0.0219291 0.0147864 0.028739 0.0226495 0.0514121 0.034674 0.0575989 0.0507111 0.0497892 0.0350324 0.0655335 0.050384 0.0706495 0.0646176 0.0612206 0.0703499 0.0872521 0.0602709
78 3 O 2.93934 13.1899 5.78248 -1.2 1 0.0252844 0.0111131 0.0206085 0.0168753 0.0175038 0.0240397 0.0507812 0.0448196 0.0393694 0.0395574 0.0568046 0.0385933 0.0507099 0.0573836 0.0810921 0.061726 0.0724811 0.0616746 0.0637506 0.0828112
79 1 Mg -1.50344 11.9138 1.4948 1.2 1 0.0129285 0.017979 0.022856 0.0205276 0.0118515 0.0369226 0.03831 0.0424287 0.0411462 0.059985 0.0351112 0.0648883 0.0505672 0.0650525 0.0748418 0.0678652 0.0643531 0.0841177 0.0760734 0.0786766
80 2 Si 0.326006 9.84894 1.4948 2.4 1 0.0280769 0.0177064 0.0269753 0.0295153 0.0169933 0.0380521 0.0434793 0.0400342 0.0440161 0.055039 0.039597 0.0604243 0.0556028 0.0662392 0.0608201 0.0627815 0.0699915 0.0800951 0.0614024 0.0687106
81 3 O 0.317364 8.23571 1.4948 -1.2 1 0.0249543 0.0123738 0.0218068 0.0260419 0.0199439 0.0458228 0.0414182 0.0493255 0.0342639 0.0536023 0.0453262 0.0638808 0.0576809 0.0595483 0.0664198 0.0648103 0.0714389 0.0533544 0.0724929 0.0750697
82 3 O 6.94307 10.823 1.4948 -1.2 1 0.0356782 0.0149009 0.0212468 0.00919323 0.0369139 0.0335256 0.0388259 0.0558843 0.0342295 0.046806 0.0516299 0.0520917 0.0509784 0.0743557 0.0731013 0.079236 0.0617589 0.0733397 0.0579221 0.0805138
83 3 O -0.343122 10.5551 0.196716 -1.2 1 0.0228495 0.0205977 0.0240561 0.0227922 0.0310544 0.0419792 0.0498724 0.0384211 0.0367212 0.0486924 0.0384914 0.0358304 0.0598751 0.059096 0.0673853 0.0683571 0.0812087 0.0537231 0.0700115 0.0712288
84 3 O -0.385966 10.5551 2.79288 -1.2 1 0.025759 0.0166089 0.0296357 0.0149002 0.0336184 0.0415235 0.043934 0.0470078 0.0433281 0.0394099 0.0534407 0.04679 0.0480817 0.054382 0.0689698 0.0710831 0.0666365 0.0625298 0.068332 0.080293
85 1 Mg 6.49448 14.247 0 1.2 1 0.0224604 0.00992494 0.0186217 0.0171486 0.0286387 0.0230616 0.0481132 0.0329479 0.0592798 0.0485354 0.051181 0.0374666 0.0626474 0.0525435 0.071225 0.0650747 0.0647039 0.0704752 0.0848382 0.0703631
86 1 Mg 3.74457 18.9547 1.4948 1.2 1 0.0128689 0.0158122 0.0146266 0.0175667 0.0249308 0.0311152 0.0326616 0.0371705 0.0363248 0.0574415 0.0416111 0.0690464 0.0513549 0.0677777 0.0706614 0.0716215 0.0629769 0.0831495 0.078058 0.0744057
87 2 Si 5.55495 16.2705 1.4948 2.4 1 0.0119682 0.0201639 0.0221007 0.0270344 0.0184883 0.0426748 0.0365157 0.0419382 0.0454436 0.0520807 0.04353 0.0608181 0.0539896 0.0642414 0.0696259 0.0590876 0.0729299 0.0797124 0.0608849 0.0703304
88 3 O 5.6115 17.8838 1.4948 -1.2 1 0.0269656 0.0177307 0.0233069 0.0252956 0.0197328 0.0432657 0.0452469 0.0609669 0.0379962 0.0508589 0.0381431 0.0666109 0.0507547 0.0558607 0.0635634 0.0574366 0.065445 0.0614341 0.063943 0.0693719
89 3 O 1.93416 15.2965 1.4948 -1.2 1 0.0414161 0.0159358 0.0195192 0.00961213 0.0349954 0.0314957 0.036777 0.0576502 0.0421739 0.0464415 0.0490989 0.0502691 0.047476 0.0734369 0.0803398 0.0768302 0.0599365 0.0738706 0.0622584 0.0773282
90 3 O 4.85636 15.5644 0.196716 -1.2 1 0.0225337 0.0116814 0.0212199 0.0187124 0.0251568 0.051296 0.0496662 0.0397143 0.0392435 0.0439756 0.0378847 0.0323956 0.0632283 0.0548887 0.0670918 0.0677307 0.076148 0.0628467 0.0725308 0.0686646
91 1 Mg 6.44662 14.247 2.9896 1.2 1 0.0110061 0.0162524 0.0194373 0.0211431 0.0173539 0.0352038 0.0364033 0.0524554 0.0372223 0.0564175 0.0351525 0.0636318 0.0240012 0.0669315 0.04398 0.0764566 0.042159 0.0932586 0.0464631 0.0927347
92 3 O 4.81537 15.5644 2.79288 -1.2 1 0.0205937 0.0113214 0.0255946 0.0117468 0.025859 0.0381768 0.0466994 0.0449615 0.0461588 0.0397177 0.0494761 0.0432577 0.0499486 0.0545146 0.07404 0.0648553 0.0755671 0.0537462 0.072428 0.078338
93 1 Mg -0.948271 14.2883 4.4844 1.2 1 0.0109607 0.0103242 0.0130621 0.0267816 0.0244292 0.0282625 0.0332618 0.0345591 0.0481447 0.0512251 0.0570386 0.055099 0.0663836 0.0667194 0.0554087 0.0710904 0.0712137 0.0981491 0.0730675 0.0794931
94 2 Si -2.75928 16.9724 4.4844 2.4 1 0.0123165 0.0187917 0.0161561 0.0245469 0.0311228 0.0401831 0.0589419 0.0299351 0.0569775 0.0617185 0.0519958 0.0582275 0.0584898 0.0519544 0.0759297 0.0721464 0.0487065 0.0890011 0.0544291 0.0614894
95 3 O -2.81617 15.3592 4.4844 -1.2 1 0.0245751 0.0152772 0.015553 0.0288668 0.0256205 0.0245927 0.0374269 0.0650048 0.0433758 0.049929 0.0344825 0.0705089 0.0454364 0.0596172 0.0643106 0.0675804 0.0502579 0.0728912 0.0594323 0.0749544
96 3 O 0.862762 17.9465 4.4844 -1.2 1 0.0174242 0.0221003 0.0192908 0.0195684 0.0225104 0.0447556 0.0374871 0.0517944 0.0472584 0.0543487 0.0392813 0.0465761 0.0447492 0.0714507 0.104782 0.0568922 0.0726369 0.0541226 0.0713014 0.0708959
97 3 O -2.0185 17.6786 3.18632 -1.2 1 0.0201234 0.0103082 0.0179665 0.0209727 0.0200242 0.0354101 0.0426567 0.0555582 0.0412501 0.053565 0.0522838 0.0516131 0.054484 0.0489669 0.0825181 0.058361 0.0698055 0.067038 0.065801 0.0651897
98 3 O -2.06164 17.6786 5.78248 -1.2 1 0.02852 0.0107531 0.0171769 0.022146 0.0139408 0.0300156 0.0477309 0.041933 0.0390715 0.0380402 0.0576435 0.0368088 0.0510788 0.0549636 0.0769719 0.0687099 0.0734826 0.0574817 0.0693844 0.0786923
99 1 Mg 1.39817 16.6215 2.9896 1.2 1 0.00685749 0.0175392 0.0167294 0.0217508 0.0181005 0.0359191 0.0348208 0.0511604 0.0375488 0.0584546 0.0378937 0.0559704 0.0236893 0.0668616 0.0460617 0.0798383 0.0474212 0.0932805 0.0468831 0.0891724
100 1 Mg 4.20062 16.5802 4.4844 1.2 1 0.0134411 0.0131027 0.0193576 0.0289087 0.0231632 0.0357431 0.0344666 0.0374079 0.0471057 0.0523011 0.0558918 0.0507886 0.0682459 0.0699784 0.051335 0.0733157 0.0694701 0.0948324 0.0685951 0.0808535
101 2 Si 2.37796 18.645 4.4844 2.4 1 0.0269032 0.00998825 0.0231863 0.0239086 0.0259028 0.038338 0.058536 0.0336331 0.0548333 0.0596859 0.0520004 0.0631328 0.0586769 0.0590686 0.0725754 0.0656025 0.0447545 0.0957215 0.0510279 0.0569599
102 3 O 2.39434 20.2583 4.4844 -1.2 1 0.0239534 0.0140549 0.0136438 0.0167111 0.0264417 0.0276816 0.0340412 0.0609542 0.0471919 0.0494985 0.0413788 0.0763819 0.0503949 0.0663804 0.0700577 0.0690554 0.047989 0.0672229 0.0616073 0.0801329
103 3 O -4.24274 17.671 4.4844 -1.2 1 0.0153074 0.0141505 0.0245848 0.0202231 0.0238086 0.044237 0.0389971 0.048425 0.0427262 0.0512802 0.0387432 0.0505919 0.0515505 0.0730523 0.0999418 0.065323 0.0764735 0.0531202 0.0694328 0.0742948
104 3 O 3.08659 17.9389 3.18632 -1.2 1 0.0244456 0.015749 0.0219902 0.0113643 0.0201752 0.036359 0.0405276 0.0561935 0.0433227 0.0507888 0.0567342 0.0481467 0.053064 0.0491535 0.0810601 0.0586714 0.0688041 0.0589416 0.0644592 0.0691073
105 1 Mg 1.44478 16.6215 0 1.2 1 0.00934933 0.0121825 0.0216937 0.012524 0.0266138 0.0317005 0.0481892 0.0357065 0.0508705 0.0505275 0.0521246 0.0396798 0.0582545 0.0493727 0.0696096 0.0660382 0.0610185 0.0672396 0.0884611 0.0631627
106 3 O 3.0436 17.9389 5.78248 -1.2 1 0.0263885 0.0130066 0.0126628 0.0166059 0.0210839 0.021785 0.0485344 0.0425682 0.0424005 0.0366979 0.0565674 0.0336015 0.0536799 0.0551043 0.0831486 0.0627703 0.0719744 0.062017 0.0657812 0.0777805
107 1 Mg -1.40524 16.6628 1.4948 1.2 1 0.00684736 0.015207 0.0260101 0.0192312 0.0178395 0.0352317 0.0359408 0.0423192 0.0401122 0.05962 0.0393397 0.065367 0.0560784 0.0647907 0.0752435 0.0698624 0.0629777 0.0784594 0.0787762 0.0759372
108 2 Si 0.420358 14.5979 1.4948 2.4 1 0.0208794 0.0194476 0.0272405 0.0268475 0.0183406 0.0392472 0.0398153 0.0398794 0.0454331 0.0556799 0.0441597 0.0602332 0.0578376 0.0633829 0.0679503 0.059709 0.0718868 0.0760297 0.0618872 0.0715079
109 3 O 0.408732 12.9847 1.4948 -1.2 1 0.0272288 0.015977 0.0196441 0.0289133 0.0134149 0.0465511 0.041624 0.0518639 0.0354301 0.0500408 0.0443156 0.0675303 0.0542387 0.0564672 0.063577 0.0628729 0.0705482 0.0562641 0.0668949 0.07478
110 3 O 7.03923 15.572 1.4948 -1.2 1 0.0293248 0.0170041 0.0218054 0.0129872 0.0362081 0.033359 0.0368378 0.0561055 0.0384099 0.0445225 0.0512348 0.0528734 0.0476726 0.0744301 0.0781134 0.0780079 0.0639437 0.0695886 0.062345 0.0774515
111 3 O -0.248332 15.3041 0.196716 -1.2 1 0.0159237 0.015662 0.0227452 0.0197412 0.0252445 0.0464676 0.0484889 0.0420058 0.038388 0.0441145 0.0380333 0.0300899 0.0605299 0.0520353 0.0690374 0.0631679 0.0817995 0.0504612 0.0690641 0.0725805
112 3 O -0.289436 15.3041 2.79288 -1.2 1 0.0232507 0.0154617 0.0264515 0.0116218 0.0287188 0.0384394 0.044477 0.0442534 0.0458309 0.038909 0.0533242 0.0478518 0.0486267 0.0524301 0.0707066 0.0654379 0.0702808 0.0569409 0.0707408 0.0767002
113 1 Mg 6.59566 18.996 0 1.2 1 0.0139662 0.0114572 0.019786 0.0144941 0.0261355 0.0317961 0.0429654 0.0331148 0.0538857 0.0490856 0.0540002 0.0391146 0.0521527 0.0528768 0.0719624 0.0645027 0.0641291 0.0650174 0.086512 0.0704989
114 1 Mg 3.85574 23.7037 1.4948 1.2 1 0.017841 0.0211395 0.0184134 0.0175233 0.0224526 0.0286119 0.0329028 0.0350268 0.0383458 0.0614377 0.0461629 0.0621579 0.0507865 0.066132 0.0596631 0.0751623 0.0651824 0.0781432 0.0794961 0.0747683
115 2 Si 5.66125 21.0195 1.4948 2.4 1 0.0084254 0.0239084 0.0234678 0.0272436 0.0194352 0.046009 0.0343574 0.0418093 0.0497442 0.054797 0.0454066 0.0605624 0.0554492 0.0594302 0.0720691 0.0607347 0.0729434 0.0769968 0.0633078 0.0740885
116 3 O 5.72074 22.6328 1.4948 -1.2 1 0.0288683 0.0215797 0.0179465 0.0242678 0.0164344 0.046134 0.0440573 0.0613704 0.0372859 0.0522834 0.0331204 0.0695298 0.0494214 0.0526593 0.0671456 0.0557944 0.0647298 0.0667686 0.0556155 0.0720783
117 3 O 2.03867 20.0455 1.4948 -1.2 1 0.0344176 0.0171312 0.0256245 0.013063 0.0344661 0.0306687 0.0363614 0.0538153 0.0423775 0.0420313 0.0508631 0.0500095 0.0481151 0.074055 0.0843364 0.0708566 0.0629084 0.0678907 0.0645847 0.0722135
118 3 O 4.96004 20.3134 0.196716 -1.2 1 0.0189186 0.0132645 0.0243317 0.0204589 0.0234734 0.0458056 0.0436428 0.0473883 0.0379974 0.0391108 0.0412484 0.0334582 0.0641935 0.0465207 0.0682627 0.0718659 0.0705915 0.057445 0.0718569 0.0728731
119 1 Mg 6.55057 18.996 2.9896 1.2 1 0.0136895 0.0146374 0.0178775 0.0200489 0.0221563 0.0339626 0.0362302 0.0534734 0.0333098 0.058523 0.0331946 0.0631415 0.0200579 0.0676311 0.0441015 0.0741154 0.0452015 0.0964709 0.0447289 0.0902864
120 3 O 4.92172 20.3134 2.79288 -1.2 1 0.0160876 0.0122877 0.0293306 0.0121944 0.0300871 0.0398709 0.0463965 0.0446131 0.0465891 0.0432861 0.0512304 0.0409941 0.0511257 0.050513 0.0751596 0.0639643 0.0755176 0.0494068 0.0718534 0.0733207
121 1 Mg -0.84282 19.0373 4.4844 1.2 1 0.00829187 0.0107287 0.014407 0.0268271 0.0228337 0.0292944 0.0291651 0.0358176 0.0449708 0.0501087 0.0601091 0.0523831 0.0662857 0.0666374 0.0564141 0.071274 0.0721756 0.0904306 0.0750124 0.0838762
122 2 Si -2.64823 21.7214 4.4844 2.4 1 0.0148799 0.0117499 0.0141069 0.0313342 0.0302019 0.0369067 0.0568153 0.0307445 0.0550825 0.0634146 0.0500784 0.061862 0.0633842 0.0509714 0.0773919 0.0742479 0.0484038 0.0914463 0.0561716 0.0615898
123 3 O -2.70847 20.1082 4.4844 -1.2 1 0.0159819 0.0127 0.0186499 0.0252716 0.0235149 0.0264295 0.0359798 0.0669007 0.0449431 0.0474412 0.0374342 0.0703838 0.0512794 0.0595332 0.0664283 0.0660313 0.0531668 0.0681069 0.0676777 0.0780414
124 3 O 0.97581 22.6955 4.4844 -1.2 1 0.0184247 0.0195948 0.0238992 0.017863 0.0171842 0.0410396 0.034961 0.0502985 0.0421752 0.0540759 0.0426496 0.0452575 0.0450627 0.0738398 0.105757 0.0577571 0.0692547 0.0564277 0.073569 0.0685801
125 3 O -1.9076 22.4276 3.18632 -1.2 1 0.0185876 0.00823586 0.0212009 0.0160819 0.0160426 0.0362641 0.0463131 0.0569597 0.037118 0.0506981 0.0555712 0.0478806 0.057808 0.048981 0.0811729 0.0616774 0.0700215 0.0638119 0.0631077 0.0668314
126 3 O -1.9475 22.4276 5.78248 -1.2 1 0.0138775 0.0105605 0.0201576 0.0199016 0.0140225 0.0304333 0.046508 0.0446943 0.0356857 0.0392479 0.0582544 0.0418968 0.0571988 0.0635755 0.0815677 0.0679418 0.0705798 0.0653059 0.0701925 0.0781712