ITEM: TIMESTEP
63400
ITEM: NUMBER OF ATOMS
10500
ITEM: BOX BOUNDS xy xz yz pp pp pp
0	15.2977	5.09925
0	118.725	0
0	89.688	0
ITEM: ATOMS id type element xu yu zu q Q_1 Q_2 Q_3 Q_4 Q_5 Q_6 Q_7 Q_8 Q_9 Q_10 Q_11 Q_12 Q_13 Q_14 Q_15 Q_16 Q_17 Q_18 Q_19 Q_20 Q_21
1 1 Mg 6.2404 -6.37941e-06 0 1.2 1 0.013226 0.0409158 0.0296777 0.0358757 0.0331433 0.041158 0.0355819 0.0685496 0.0389247 0.0711717 0.0341101 0.0595327 0.0460201 0.0681188 0.0496841 0.0921085 0.0516787 0.0839016 0.0508477 0.102402
2 1 Mg 3.46349 4.70768 1.4948 1.2 1 0.0169423 0.0168695 0.0242035 0.0216211 0.0201343 0.0420956 0.0420601 0.0399139 0.045918 0.0554139 0.0427328 0.0708261 0.057753 0.0711151 0.0714229 0.0644499 0.0678071 0.085508 0.0722984 0.0820144
3 2 Si 5.2885 2.02354 1.4948 2.4 1 0.0219327 0.0223058 0.0367058 0.0256247 0.0310042 0.0366899 0.0533843 0.0334989 0.0442742 0.0518867 0.0559019 0.0615957 0.055704 0.0637817 0.0682231 0.0791137 0.0709832 0.065042 0.0631866 0.0732181
4 3 O 5.33628 3.63678 1.4948 -1.2 1 0.00937697 0.014192 0.0269888 0.025733 0.0182736 0.0390339 0.0418105 0.0601866 0.0354958 0.0402987 0.0547439 0.0507733 0.0677904 0.0574599 0.0589285 0.0652496 0.0597672 0.0617034 0.0713013 0.0743175
5 3 O 1.67294 1.04952 1.4948 -1.2 1 0.0163747 0.0219416 0.0235612 0.0354483 0.0294544 0.038623 0.0342019 0.060938 0.034819 0.0597143 0.0437132 0.0510815 0.0716675 0.0592995 0.075942 0.0689662 0.062563 0.0645327 0.0792494 0.0598139
6 3 O 4.59532 1.31737 0.196716 -1.2 1 0.0259359 0.0221637 0.0575775 0.0251538 0.0333923 0.0486176 0.0385345 0.0472706 0.0340806 0.0394301 0.0389157 0.0508336 0.0543652 0.0567582 0.0638758 0.0698721 0.0617327 0.071261 0.0591345 0.0704318
7 1 Mg 6.18956 -6.37941e-06 2.9896 1.2 1 0.0155357 0.0281198 0.0154063 0.0211513 0.0360902 0.0457938 0.0503116 0.043847 0.0468767 0.0462161 0.038373 0.0558507 0.0398844 0.056508 0.0586904 0.0796221 0.0576008 0.0687322 0.0592426 0.0689514
8 3 O 4.55118 1.31737 2.79288 -1.2 1 0.0244451 0.0258114 0.0410661 0.017004 0.0289316 0.0438725 0.0448979 0.0476372 0.0447926 0.0555325 0.0534578 0.0491614 0.0500731 0.0663134 0.053648 0.069106 0.0652018 0.0668485 0.0644783 0.0718005
9 1 Mg -1.20682 0.0413099 4.4844 1.2 1 0.0163511 0.0261273 0.0208884 0.0276319 0.0377747 0.0415867 0.0316384 0.0524599 0.0535785 0.0383622 0.0472908 0.060881 0.0646704 0.0570177 0.074752 0.0633867 0.080824 0.0731622 0.0651582 0.0538769
10 2 Si -3.0337 2.72544 4.4844 2.4 1 0.0342744 0.0122805 0.0167478 0.0158351 0.0334854 0.0374295 0.062923 0.0351685 0.0600132 0.0492346 0.0470103 0.0610719 0.0578114 0.0736376 0.05527 0.0607246 0.0734497 0.0789169 0.0731029 0.0597973
11 3 O -3.08099 1.11221 4.4844 -1.2 1 0.0116782 0.0226119 0.0267912 0.0260569 0.0391577 0.026408 0.0485769 0.0480858 0.0387128 0.0370716 0.0366007 0.0713071 0.0534437 0.0520277 0.0540301 0.0676697 0.0545827 0.078737 0.0741371 0.0791365
12 3 O 0.582463 3.69946 4.4844 -1.2 1 0.0154695 0.0131896 0.0361069 0.0327231 0.0269789 0.0610425 0.0336363 0.0518459 0.0485146 0.0370489 0.0528484 0.0546143 0.0571145 0.0724729 0.101204 0.0720228 0.0804634 0.039234 0.0721264 0.0642152
13 3 O -2.29524 3.43162 3.18632 -1.2 1 0.0173514 0.0214361 0.0220615 0.0311348 0.0232615 0.0533283 0.0508573 0.0518635 0.042419 0.0521882 0.0598624 0.054772 0.0402706 0.0551382 0.0601098 0.0668531 0.0659614 0.0639793 0.0636152 0.0737763
14 3 O -2.34216 3.43162 5.78248 -1.2 1 0.0189224 0.0109912 0.0179115 0.0294691 0.0270157 0.0401546 0.0523526 0.0492656 0.0383722 0.0543512 0.0537357 0.049549 0.055368 0.0499257 0.0744934 0.0705274 0.0656752 0.0686778 0.0754161 0.0718408
15 1 Mg 1.12778 2.37449 2.9896 1.2 1 0.0152681 0.0404542 0.0174793 0.0239752 0.0261112 0.0429597 0.0411748 0.0504051 0.0372936 0.0591638 0.0364609 0.0592553 0.0404367 0.0667862 0.0645107 0.0690483 0.0688767 0.082141 0.0467502 0.0873214
16 1 Mg 3.92855 2.33318 4.4844 1.2 1 0.0272853 0.0160714 0.023996 0.0310006 0.0444154 0.0242335 0.0391257 0.0369938 0.0474931 0.0685408 0.0513466 0.0599841 0.0510482 0.0599753 0.053104 0.0737277 0.065405 0.095013 0.0729998 0.0846837
17 2 Si 2.09341 4.39804 4.4844 2.4 1 0.0171605 0.0226399 0.0317084 0.0138376 0.0424115 0.0264258 0.0615986 0.0207824 0.0451988 0.0481432 0.0642124 0.064133 0.0689336 0.0586416 0.0733262 0.0741476 0.0731418 0.0830536 0.0519148 0.0650991
18 3 O 2.09991 6.01128 4.4844 -1.2 1 0.0122186 0.0130991 0.0169777 0.0179772 0.0350851 0.0248909 0.0515811 0.0546617 0.0499079 0.0482744 0.0475945 0.0664832 0.0447327 0.0626526 0.0654052 0.0716162 0.0455615 0.0779429 0.0633344 0.0716887
19 3 O -4.52137 3.42402 4.4844 -1.2 1 0.0261819 0.0258691 0.0353352 0.0207377 0.0267284 0.0592068 0.0364028 0.046949 0.0553712 0.0543538 0.0324499 0.0580383 0.0498292 0.0535581 0.0889046 0.0717304 0.0760784 0.0613398 0.0749911 0.0560276
20 3 O 2.80834 3.69187 3.18632 -1.2 1 0.012171 0.0206363 0.0217579 0.026499 0.0260055 0.0375026 0.0364717 0.0497487 0.0462135 0.0552671 0.0672727 0.050511 0.0427915 0.0640663 0.0699086 0.0739277 0.0621042 0.0576379 0.0727876 0.0714021
21 1 Mg 1.17857 2.37449 0 1.2 1 0.0135972 0.0347069 0.0283097 0.0290215 0.0385295 0.0399852 0.0451739 0.0601338 0.0364906 0.0492774 0.0505677 0.0418299 0.0415411 0.0680131 0.0551124 0.0652478 0.0628662 0.0805294 0.0597655 0.0733091
22 3 O 2.76143 3.69187 5.78248 -1.2 1 0.0122642 0.0260445 0.0190538 0.0239628 0.0195224 0.0345759 0.038943 0.0484017 0.0349315 0.0457081 0.0573641 0.043142 0.0554995 0.0775646 0.0758665 0.0665895 0.071809 0.0619971 0.0673341 0.073108
23 1 Mg -1.67381 2.41581 1.4948 1.2 1 0.0115986 0.0108761 0.038702 0.0363662 0.0313379 0.0450816 0.0597703 0.039734 0.0528933 0.0414602 0.0445003 0.0551202 0.0542474 0.0620015 0.0595576 0.0632435 0.0833667 0.0772688 0.0663007 0.0741423
24 2 Si 0.16286 0.350945 1.4948 2.4 1 0.015274 0.0318819 0.0280621 0.0232659 0.0356982 0.0358583 0.0558743 0.0514017 0.0529931 0.0490227 0.0407208 0.0555687 0.0735791 0.0690857 0.0575084 0.0734995 0.0695079 0.0648451 0.0730481 0.066
25 3 O 0.15972 -1.26229 1.4948 -1.2 1 0.00911914 0.0191515 0.0393297 0.021842 0.03303 0.0384173 0.0458768 0.0553022 0.0481298 0.0538669 0.0564732 0.0561054 0.0630027 0.0665878 0.0505426 0.0579209 0.070325 0.0657725 0.0626289 0.0725855
26 3 O 6.77654 1.32496 1.4948 -1.2 1 0.011453 0.0279168 0.0266879 0.0279176 0.0373569 0.0546259 0.0342289 0.0647501 0.0476099 0.046964 0.0441982 0.0528534 0.0519887 0.059034 0.0686373 0.0718427 0.0850249 0.0629322 0.0599278 0.0748301
27 3 O -0.508028 1.05712 0.196716 -1.2 1 0.0274068 0.0166208 0.0325001 0.0188446 0.0308221 0.053342 0.0450607 0.044607 0.0470599 0.0478298 0.0500278 0.0497015 0.0484305 0.0632876 0.0559392 0.0627 0.0649301 0.0589786 0.0723384 0.0721928
28 3 O -0.552171 1.05712 2.79288 -1.2 1 0.0393355 0.0265295 0.0410986 0.0321012 0.0260858 0.0456511 0.0419359 0.0470579 0.0415492 0.0371766 0.0471075 0.0487022 0.0599072 0.0596875 0.0646926 0.0745284 0.0710934 0.0503713 0.0697531 0.070632
29 1 Mg 6.31713 4.74899 0 1.2 1 0.0270615 0.0286981 0.0306395 0.0368941 0.0325472 0.0272835 0.0425791 0.0561162 0.0589256 0.0491832 0.050997 0.0388565 0.0598207 0.0610949 0.0659663 0.0640044 0.0658997 0.0737997 0.0696833 0.0696592
30 1 Mg 3.54847 9.45668 1.4948 1.2 1 0.0174663 0.0156602 0.0184922 0.0205072 0.0192245 0.0383215 0.0392275 0.0433849 0.0468206 0.0555862 0.0371005 0.0675417 0.0527402 0.0653458 0.0725181 0.0627981 0.0652653 0.0867311 0.0743505 0.0793396
31 2 Si 5.36879 6.77254 1.4948 2.4 1 0.0291264 0.0268963 0.0239098 0.0256113 0.0248975 0.0347858 0.0443435 0.0364074 0.0448532 0.057219 0.0420722 0.0582203 0.0533742 0.0664443 0.0656547 0.0742787 0.0669084 0.0789055 0.0556844 0.0683765
32 3 O 5.41937 8.38578 1.4948 -1.2 1 0.0226181 0.0128701 0.0236391 0.0304923 0.0157065 0.0437531 0.0432971 0.0569405 0.0355033 0.0500564 0.0486047 0.0631588 0.0549636 0.0527122 0.0647047 0.0598211 0.0722165 0.0568065 0.0718338 0.0741038
33 3 O 1.75158 5.79852 1.4948 -1.2 1 0.0284801 0.0122499 0.0224702 0.0264408 0.0439609 0.0305888 0.0393577 0.0569153 0.0408809 0.0523234 0.0493998 0.0510144 0.0474829 0.0709217 0.0788613 0.0787056 0.0599617 0.0751996 0.0603884 0.0763421
34 3 O 4.67421 6.06637 0.196716 -1.2 1 0.0146501 0.0265028 0.0315029 0.0242662 0.0321551 0.0378195 0.0344824 0.0323049 0.0450409 0.0558656 0.0392193 0.0443938 0.067393 0.0562396 0.0674729 0.0715531 0.0711396 0.0657652 0.0629371 0.0676252
35 1 Mg 6.26654 4.74899 2.9896 1.2 1 0.0208759 0.0295456 0.0253563 0.0405358 0.025684 0.0433376 0.0496325 0.0480447 0.0353331 0.0643071 0.0368524 0.0603434 0.0364328 0.0651522 0.0531274 0.0811337 0.0579099 0.0826684 0.042898 0.089984
36 3 O 4.63043 6.06637 2.79288 -1.2 1 0.0160562 0.0192991 0.0422073 0.0201544 0.0317382 0.0364746 0.0424752 0.0479838 0.0459558 0.0370315 0.0492012 0.0514191 0.0577493 0.0660401 0.0625482 0.0750025 0.0664603 0.0691408 0.0671338 0.0851297
37 1 Mg -1.12976 4.79031 4.4844 1.2 1 0.0224887 0.0243592 0.0140778 0.0143721 0.0368599 0.0371427 0.0509661 0.0497065 0.0438834 0.0447232 0.0570763 0.0589479 0.0780681 0.0703131 0.0611126 0.0662186 0.072648 0.094793 0.0729547 0.0819932
38 2 Si -2.9517 7.47444 4.4844 2.4 1 0.027877 0.0157013 0.0186015 0.0241735 0.027597 0.0427637 0.0595939 0.0286137 0.0529853 0.0603179 0.0527387 0.0587544 0.0620046 0.0579965 0.0788547 0.0705736 0.0551831 0.0892088 0.0560414 0.0604449
39 3 O -3.00198 5.86121 4.4844 -1.2 1 0.0123486 0.0236347 0.0284937 0.0265647 0.031896 0.0336061 0.0535913 0.062939 0.039621 0.0528881 0.0473648 0.071371 0.0584978 0.0566004 0.0658494 0.0679982 0.0493181 0.0779533 0.0622704 0.0769976
40 3 O 0.666315 8.44846 4.4844 -1.2 1 0.015816 0.0179736 0.026801 0.0181988 0.0207445 0.0512633 0.0340338 0.0492259 0.0436495 0.0507216 0.0422849 0.0503465 0.0468515 0.078511 0.0990697 0.0720524 0.074433 0.0491812 0.0692933 0.0756808
41 3 O -2.21213 8.18062 3.18632 -1.2 1 0.0143205 0.0130497 0.017648 0.0145474 0.0174784 0.0393146 0.045654 0.0572978 0.0469151 0.0539234 0.0546483 0.0522427 0.0542312 0.047841 0.0788966 0.0629665 0.0705355 0.0591606 0.0680541 0.0714215
42 3 O -2.25864 8.18062 5.78248 -1.2 1 0.0169875 0.0123177 0.0183417 0.0190229 0.0145822 0.0318109 0.0468973 0.0503391 0.036702 0.0401138 0.0554403 0.038805 0.0590856 0.053971 0.0856101 0.0674828 0.068646 0.0659456 0.0683975 0.0739015
43 1 Mg 1.20893 7.12349 2.9896 1.2 1 0.0078007 0.0221717 0.0186112 0.0245341 0.0236969 0.0398025 0.0424302 0.0458472 0.0352492 0.065097 0.0386453 0.0669392 0.0360148 0.0592122 0.0522492 0.0801922 0.0517055 0.0837097 0.0469194 0.0877307
44 1 Mg 4.00982 7.08218 4.4844 1.2 1 0.0227822 0.0190137 0.0215401 0.0337764 0.0299238 0.0380351 0.0416429 0.0380416 0.046235 0.0507468 0.0561913 0.0543128 0.0710435 0.0734427 0.0552884 0.0698283 0.0633505 0.0990719 0.0737512 0.0809264
45 2 Si 2.17861 9.14704 4.4844 2.4 1 0.0233664 0.0104402 0.0263016 0.0225788 0.0310246 0.0327159 0.0628076 0.0238923 0.0499998 0.0565268 0.0548431 0.060331 0.0643597 0.0569983 0.0779706 0.0677097 0.0483827 0.0947103 0.0537548 0.0592154
46 3 O 2.18828 10.7603 4.4844 -1.2 1 0.0196644 0.0142904 0.00510739 0.0187742 0.0264334 0.0228271 0.0448221 0.0590293 0.0408305 0.053234 0.0396491 0.0706269 0.0443853 0.0642349 0.0713388 0.0701468 0.0498401 0.0722775 0.0658543 0.0738719
47 3 O -4.43805 8.17302 4.4844 -1.2 1 0.0114421 0.0168076 0.0183335 0.0183736 0.0234791 0.0548334 0.0367838 0.0496274 0.0430233 0.0471073 0.0367093 0.0526714 0.0538715 0.0727314 0.101793 0.065429 0.0796704 0.051458 0.0747278 0.0740358
48 3 O 2.89193 8.44087 3.18632 -1.2 1 0.0182337 0.0152386 0.0176771 0.0149107 0.02166 0.0408888 0.0341588 0.0548547 0.0435323 0.0513719 0.0586378 0.0480774 0.0513586 0.0531452 0.0810128 0.062915 0.0693098 0.0595069 0.0661454 0.0743267
49 1 Mg 1.25915 7.12349 0 1.2 1 0.0236745 0.0126828 0.0228548 0.0129252 0.0307393 0.0245897 0.05271 0.0412899 0.0559731 0.0501062 0.0525044 0.0430294 0.0717283 0.0521378 0.0688617 0.0711786 0.0657382 0.0711848 0.0821365 0.0583739
50 3 O 2.84547 8.44087 5.78248 -1.2 1 0.0114447 0.0139777 0.0116152 0.0194002 0.022127 0.0274559 0.048118 0.049197 0.037322 0.0387289 0.0567345 0.0419307 0.0593743 0.0611954 0.0833593 0.059311 0.0711572 0.0605507 0.0638447 0.0750184
51 1 Mg -1.59284 7.16481 1.4948 1.2 1 0.0073875 0.020111 0.0191116 0.0226424 0.0154357 0.0381747 0.046675 0.0422127 0.0421064 0.0570276 0.0389033 0.0673953 0.0536864 0.0696388 0.0762074 0.0610519 0.0668803 0.084848 0.0743086 0.0783926
52 2 Si 0.240329 5.09994 1.4948 2.4 1 0.0217094 0.0204739 0.0145456 0.043832 0.0272235 0.0407753 0.0471278 0.0519133 0.0554081 0.0490744 0.0456963 0.0566955 0.0584083 0.0692532 0.0660491 0.0671741 0.0644841 0.0723669 0.0657996 0.0682535
53 3 O 0.234538 3.48671 1.4948 -1.2 1 0.0131389 0.0163544 0.0264506 0.035935 0.0311264 0.0493552 0.0459691 0.0426279 0.0528469 0.0470103 0.0521946 0.0610618 0.055952 0.0609519 0.0614491 0.0618429 0.0631752 0.0571723 0.0759729 0.0732398
54 3 O 6.85564 6.07396 1.4948 -1.2 1 0.0368417 0.0201207 0.0328791 0.02698 0.0371678 0.0404794 0.0332758 0.0606845 0.0366975 0.0521371 0.0538682 0.0531616 0.0559198 0.0723555 0.0699619 0.0763002 0.0661441 0.0733096 0.0532105 0.0840622
55 3 O -0.429565 5.80612 0.196716 -1.2 1 0.0340136 0.0200194 0.0159909 0.0213086 0.040936 0.0374474 0.0539041 0.0451075 0.0459894 0.0563216 0.0397528 0.0418676 0.0532551 0.0602724 0.0599149 0.0681625 0.0705016 0.0609242 0.0653741 0.0743901
56 3 O -0.473377 5.80612 2.79288 -1.2 1 0.0249042 0.0207622 0.0335487 0.0192789 0.0342994 0.0464437 0.0497001 0.0484632 0.0554998 0.0460198 0.0623505 0.0386166 0.0429795 0.059488 0.0664609 0.0714652 0.0653862 0.0686907 0.0712638 0.0810814
57 1 Mg 6.40169 9.49799 0 1.2 1 0.0125375 0.011536 0.0213111 0.0143167 0.0304276 0.021529 0.0523597 0.0358717 0.0588213 0.049067 0.0498441 0.0354568 0.0676292 0.052835 0.0713185 0.0676413 0.0649401 0.0711 0.0810306 0.068776
58 1 Mg 3.64209 14.2057 1.4948 1.2 1 0.0109846 0.011212 0.0180257 0.0205779 0.0212927 0.0343533 0.0364541 0.0432761 0.0396177 0.0534769 0.0392883 0.0690963 0.0543112 0.0661356 0.0717359 0.0645604 0.0638625 0.0828845 0.0750501 0.0781875
59 2 Si 5.45748 11.5215 1.4948 2.4 1 0.011955 0.0217757 0.0233235 0.0247407 0.0180772 0.0402125 0.0397038 0.0400347 0.0435449 0.054578 0.0424105 0.0602089 0.0533901 0.0663084 0.0695109 0.0635464 0.0708962 0.0816988 0.0580273 0.0665563
60 3 O 5.51101 13.1348 1.4948 -1.2 1 0.024357 0.0131622 0.0223349 0.0292248 0.020096 0.043243 0.0444232 0.0591025 0.0365786 0.049923 0.0428586 0.0671391 0.0531115 0.0536039 0.0656 0.0602778 0.070118 0.0582843 0.069342 0.0720431
61 3 O 1.83851 10.5475 1.4948 -1.2 1 0.0351838 0.0139895 0.0215559 0.0139125 0.036358 0.0302452 0.0363932 0.0591707 0.0397837 0.0480996 0.0496268 0.0514334 0.0472217 0.0751496 0.0759964 0.0798245 0.0565847 0.0760369 0.0577694 0.0787714
62 3 O 4.7611 10.8154 0.196716 -1.2 1 0.0357005 0.0192393 0.0198388 0.0181106 0.0266957 0.0442926 0.0484158 0.0375737 0.038743 0.0492997 0.0369194 0.040921 0.0605535 0.0608612 0.065011 0.0713844 0.0755168 0.0656674 0.0730704 0.0680309
63 1 Mg 6.35203 9.49799 2.9896 1.2 1 0.0125343 0.0179342 0.0248987 0.0215276 0.0199636 0.0373543 0.0375965 0.0510411 0.0346784 0.0572857 0.0318203 0.0655972 0.0274109 0.0669087 0.0467484 0.0802248 0.0457333 0.0897497 0.0464048 0.0904298
64 3 O 4.71833 10.8154 2.79288 -1.2 1 0.0215274 0.0128349 0.0325474 0.0120676 0.0298653 0.0434849 0.0436189 0.0444792 0.0434459 0.0371968 0.0527183 0.0412556 0.0534276 0.058771 0.0740577 0.0684375 0.0730879 0.0591297 0.0693893 0.0810451
65 1 Mg -1.0438 9.53931 4.4844 1.2 1 0.0134449 0.0171789 0.0183467 0.023464 0.0283002 0.0295155 0.0396293 0.0360599 0.0460795 0.0498008 0.0562373 0.0578002 0.0672168 0.0712858 0.0581855 0.0688817 0.0743489 0.100835 0.0697571 0.0821694
66 2 Si -2.8604 12.2234 4.4844 2.4 1 0.0169688 0.00974814 0.0174021 0.0295759 0.0321656 0.0408101 0.0598668 0.0302705 0.0530307 0.0627116 0.053382 0.0641043 0.0610235 0.0560107 0.0752341 0.0738213 0.0502843 0.0939246 0.0546384 0.0639033
67 3 O -2.91391 10.6102 4.4844 -1.2 1 0.022571 0.00766058 0.00876131 0.0222578 0.0261636 0.0263494 0.0434794 0.0661064 0.0402033 0.0486393 0.0358194 0.0707188 0.0478723 0.0588301 0.0673754 0.0698935 0.0511519 0.0734316 0.0622062 0.0732627
68 3 O 0.7596 13.1975 4.4844 -1.2 1 0.0144078 0.021564 0.0202166 0.0162467 0.0243965 0.0476721 0.0369304 0.0522119 0.0457797 0.0498661 0.0372865 0.0482884 0.046666 0.0724358 0.101213 0.0628583 0.0761427 0.052688 0.0727037 0.0708897
69 3 O -2.12001 12.9296 3.18632 -1.2 1 0.0199855 0.00640884 0.021939 0.0178831 0.0187602 0.0373807 0.0413134 0.0539006 0.0438431 0.0545405 0.0531036 0.0484535 0.0567204 0.0489511 0.0812903 0.0618306 0.071935 0.0642034 0.0668949 0.0683909
70 3 O -2.16532 12.9296 5.78248 -1.2 1 0.0222886 0.00944628 0.018407 0.018379 0.0171219 0.0300491 0.0459401 0.0484791 0.0371957 0.0389359 0.057893 0.0347704 0.0593142 0.0553312 0.083182 0.0718902 0.0690874 0.062009 0.0662244 0.078384
71 1 Mg 1.29891 11.8725 2.9896 1.2 1 0.00711047 0.0159381 0.0222743 0.0231365 0.0174396 0.0384926 0.0364393 0.0503281 0.0354027 0.0598376 0.0338626 0.0585939 0.0265196 0.0677759 0.0491629 0.0824231 0.0490689 0.0887206 0.0462938 0.086583
72 1 Mg 4.10033 11.8312 4.4844 1.2 1 0.00773989 0.0190686 0.0211299 0.029014 0.0312064 0.0313899 0.044566 0.0338501 0.0477083 0.0517234 0.0530203 0.0506583 0.0663528 0.0739423 0.0519983 0.0718061 0.0705791 0.0968789 0.0742004 0.0788092
73 2 Si 2.27333 13.896 4.4844 2.4 1 0.0235299 0.00956376 0.0280086 0.0259827 0.0255293 0.0376797 0.060618 0.0312952 0.0506187 0.0569709 0.0511765 0.0596629 0.0618714 0.0574343 0.0746417 0.0676314 0.0451188 0.0983269 0.0538725 0.0557314
74 3 O 2.28634 15.5093 4.4844 -1.2 1 0.0218904 0.0121842 0.00696753 0.0180103 0.0250767 0.0223667 0.0410657 0.0598491 0.0394085 0.0521883 0.0422217 0.0731296 0.0483281 0.0631198 0.0690164 0.0698232 0.0485873 0.0710375 0.0660782 0.0743945
75 3 O -4.34533 12.922 4.4844 -1.2 1 0.0171118 0.019213 0.0257391 0.019671 0.0230968 0.0515738 0.033685 0.0492 0.0419259 0.0505184 0.0401647 0.0516318 0.0497385 0.0731746 0.100788 0.0656308 0.079029 0.0508464 0.0762243 0.0719823
76 3 O 2.98455 13.1899 3.18632 -1.2 1 0.022981 0.0118092 0.0177578 0.0118123 0.0211 0.0417903 0.0390261 0.0585256 0.0459801 0.0522019 0.0559965 0.048479 0.0506192 0.050558 0.0808032 0.0620622 0.0665211 0.0612545 0.0640399 0.0724499
77 1 Mg 1.34779 11.8725 0 1.2 1 0.0201593 0.01109 0.0249431 0.0144157 0.028692 0.0220584 0.0491212 0.0346268 0.0579284 0.0507273 0.0502421 0.0361619 0.0646133 0.0507165 0.07175 0.0647151 0.0597381 0.0706908 0.0858248 0.0603775
78 3 O 2.93934 13.1899 5.78248 -1.2 1 0.0235472 0.0075096 0.0165114 0.0198586 0.0140588 0.0270963 0.046103 0.0491697 0.0381643 0.0392426 0.0565882 0.0360877 0.0548703 0.0586081 0.0851835 0.0606739 0.071189 0.0627863 0.0679123 0.0786368
79 1 Mg -1.50344 11.9138 1.4948 1.2 1 0.0128965 0.0179955 0.0228505 0.0205955 0.0120535 0.0368194 0.0387035 0.0421943 0.0412208 0.0601303 0.0353551 0.0647869 0.0506124 0.0653571 0.0746239 0.0679452 0.0642789 0.0838597 0.0762077 0.078761
80 2 Si 0.326006 9.84894 1.4948 2.4 1 0.0281181 0.0178282 0.0268508 0.0294697 0.0169069 0.038083 0.0434167 0.0400382 0.0439507 0.0547618 0.039704 0.0607283 0.055828 0.0660813 0.060833 0.0626651 0.070101 0.0801537 0.0613322 0.0691184
81 3 O 0.317364 8.23571 1.4948 -1.2 1 0.0225973 0.0124753 0.0227805 0.0238766 0.0201506 0.0452896 0.0428527 0.0497925 0.0345019 0.0540254 0.044353 0.06544 0.0576507 0.0603327 0.0684646 0.0658631 0.0714625 0.0537805 0.0732615 0.0741045
82 3 O 6.94307 10.823 1.4948 -1.2 1 0.0312022 0.0147797 0.0220184 0.0118747 0.0373108 0.0329781 0.038088 0.0577939 0.0348236 0.0474948 0.0511493 0.0524987 0.0502407 0.0748075 0.0730221 0.0798605 0.0615752 0.0728686 0.0582414 0.0801967
83 3 O -0.343122 10.5551 0.196716 -1.2 1 0.0308489 0.0174881 0.0216011 0.0209116 0.029743 0.0414423 0.0513904 0.0398927 0.0387318 0.0506849 0.0371387 0.0374408 0.0613408 0.0611972 0.0688167 0.070968 0.0812823 0.0538681 0.0703106 0.069579
84 3 O -0.385966 10.5551 2.79288 -1.2 1 0.026973 0.0124772 0.0323913 0.0150441 0.0333921 0.0435596 0.0448707 0.0459965 0.0446222 0.0386642 0.0526301 0.0466539 0.0485637 0.0556088 0.0696813 0.0693902 0.0663084 0.0615381 0.0699832 0.0790918
85 1 Mg 6.49448 14.247 0 1.2 1 0.0226308 0.0100679 0.0184331 0.0169162 0.0287297 0.0225216 0.0476877 0.0327537 0.059338 0.0480208 0.0514544 0.0375005 0.0624712 0.0530254 0.0709922 0.065445 0.0642258 0.070815 0.0846622 0.0707255
86 1 Mg 3.74457 18.9547 1.4948 1.2 1 0.0192206 0.00900124 0.0159627 0.0178887 0.025349 0.0294407 0.0312028 0.0385497 0.0380455 0.0568322 0.0448886 0.067073 0.0511638 0.0655588 0.0673639 0.0708057 0.0626286 0.082531 0.0788004 0.0761047
87 2 Si 5.55495 16.2705 1.4948 2.4 1 0.0110571 0.0217688 0.0201808 0.02723 0.0177051 0.0427182 0.036901 0.0407016 0.0466051 0.0531332 0.0436648 0.0612363 0.0537835 0.0639812 0.0700866 0.0594462 0.0729369 0.0787307 0.0603057 0.0693475
88 3 O 5.6115 17.8838 1.4948 -1.2 1 0.0270178 0.0182299 0.0235654 0.0256128 0.0193837 0.0437091 0.044884 0.0609282 0.0365761 0.0498367 0.0378251 0.0669073 0.0513086 0.0566605 0.0651182 0.057182 0.0657013 0.0615449 0.0630018 0.0692404
89 3 O 1.93416 15.2965 1.4948 -1.2 1 0.0371488 0.0147543 0.0217204 0.0127875 0.0351357 0.0298288 0.0361458 0.0595925 0.0428099 0.0468385 0.0482148 0.0510097 0.0464631 0.0736822 0.0810968 0.0770422 0.0587156 0.0739536 0.0627481 0.0763634
90 3 O 4.85636 15.5644 0.196716 -1.2 1 0.0224899 0.0117785 0.0212917 0.0189475 0.0252403 0.0513244 0.049551 0.039619 0.0392999 0.0443526 0.0376101 0.0324018 0.0630365 0.0545573 0.0672058 0.067565 0.0760645 0.0626647 0.0723313 0.0686877
91 1 Mg 6.44662 14.247 2.9896 1.2 1 0.0101868 0.0176632 0.022837 0.0215011 0.0194406 0.0352851 0.0378059 0.0539321 0.0359756 0.0564379 0.0343949 0.0634595 0.0249176 0.0669276 0.0457632 0.0777922 0.0451234 0.0917914 0.0431771 0.0919138
92 3 O 4.81537 15.5644 2.79288 -1.2 1 0.0153605 0.00730056 0.0283906 0.011768 0.0280539 0.0379444 0.0471684 0.0475016 0.0457097 0.0375789 0.0519437 0.0419547 0.0525365 0.0569444 0.0747304 0.0654586 0.0758882 0.0528881 0.0728896 0.0757526
93 1 Mg -0.948271 14.2883 4.4844 1.2 1 0.0114595 0.0113999 0.0161663 0.0283338 0.0275198 0.025341 0.0361109 0.0357429 0.0452629 0.0499737 0.0581859 0.0546086 0.0662812 0.0671457 0.0572921 0.0684739 0.0704922 0.0939123 0.0755306 0.0815166
94 2 Si -2.75928 16.9724 4.4844 2.4 1 0.0145764 0.0174211 0.0155288 0.0292546 0.0314556 0.0426575 0.0577568 0.0311628 0.0511966 0.0653076 0.0509693 0.0577849 0.0572935 0.0522752 0.0765849 0.0713065 0.0501861 0.0926469 0.0557468 0.0622443
95 3 O -2.81617 15.3592 4.4844 -1.2 1 0.0151398 0.0153788 0.0123774 0.0242017 0.0323713 0.0240213 0.0440907 0.065166 0.0438239 0.0530276 0.0382718 0.0738091 0.0466992 0.0574711 0.0665564 0.0686434 0.050441 0.0741757 0.064566 0.0745387
96 3 O 0.862762 17.9465 4.4844 -1.2 1 0.017473 0.019853 0.0252793 0.0144838 0.0209444 0.0481301 0.0341465 0.0529691 0.0444379 0.0524621 0.0403196 0.0481851 0.0422185 0.0729345 0.104794 0.0593052 0.0707746 0.0534963 0.0720843 0.0686817
97 3 O -2.0185 17.6786 3.18632 -1.2 1 0.0252769 0.0105195 0.0191063 0.0171445 0.0188293 0.0346676 0.0424225 0.0541002 0.0410872 0.0543713 0.0523915 0.0496975 0.0555953 0.0462017 0.0810173 0.0596277 0.0679598 0.0668373 0.0656267 0.0690537
98 3 O -2.06164 17.6786 5.78248 -1.2 1 0.0153087 0.0153194 0.0178531 0.0214308 0.0222461 0.0285534 0.0469194 0.0497762 0.0386115 0.0361471 0.0545796 0.0403051 0.0602327 0.0606676 0.0839189 0.0711618 0.0718941 0.0620293 0.0694195 0.0761349
99 1 Mg 1.39817 16.6215 2.9896 1.2 1 0.00612226 0.0165775 0.0192028 0.0228491 0.0183532 0.0354346 0.0378288 0.0536474 0.0361288 0.059332 0.034949 0.0571568 0.0240286 0.0676631 0.0468172 0.080376 0.0483399 0.0913762 0.0455077 0.0886554
100 1 Mg 4.20062 16.5802 4.4844 1.2 1 0.0172672 0.0102409 0.0167914 0.0267442 0.028316 0.0296264 0.041393 0.0344321 0.0455705 0.0520041 0.0527269 0.0563848 0.0647934 0.0699785 0.0520083 0.0720397 0.0699402 0.0975304 0.0741976 0.0772157
101 2 Si 2.37796 18.645 4.4844 2.4 1 0.0289106 0.00630517 0.0215606 0.0279989 0.0273093 0.0347562 0.0602801 0.0336382 0.0538382 0.0589836 0.050611 0.0635391 0.0618364 0.0573141 0.0761987 0.0697377 0.0490928 0.0968444 0.0517186 0.0558892
102 3 O 2.39434 20.2583 4.4844 -1.2 1 0.0206457 0.0118914 0.00990182 0.0150698 0.0269886 0.0212257 0.0407194 0.0605375 0.0421034 0.051282 0.0422888 0.0727216 0.0517545 0.0627513 0.071947 0.0730753 0.0445092 0.0690029 0.0675009 0.0777318
103 3 O -4.24274 17.671 4.4844 -1.2 1 0.0265826 0.0217762 0.0199555 0.0159158 0.0208282 0.0510411 0.0357278 0.0471426 0.0449462 0.0523625 0.0392009 0.0505028 0.0466719 0.0721114 0.0994177 0.0624844 0.0731704 0.0526392 0.0767223 0.0707624
104 3 O 3.08659 17.9389 3.18632 -1.2 1 0.0322518 0.0167021 0.0211405 0.00933252 0.0166176 0.0373048 0.0365301 0.0546017 0.0435654 0.0513914 0.0545401 0.048287 0.0512012 0.0470688 0.0806031 0.0594642 0.0669021 0.0608036 0.0655795 0.0700618
105 1 Mg 1.44478 16.6215 0 1.2 1 0.009557 0.0119727 0.0216852 0.0127301 0.0267419 0.0316497 0.0475906 0.0353978 0.050925 0.0502318 0.0523953 0.0393587 0.0588157 0.0492658 0.0694515 0.0662095 0.0602234 0.0679539 0.0889573 0.0636657
106 3 O 3.0436 17.9389 5.78248 -1.2 1 0.0179373 0.012521 0.0193741 0.0227254 0.0217269 0.0239766 0.0479978 0.046429 0.0409027 0.0407797 0.058538 0.0338237 0.0585329 0.0600062 0.0860646 0.0664936 0.0681653 0.0614477 0.0638011 0.0790546
107 1 Mg -1.40524 16.6628 1.4948 1.2 1 0.011626 0.0123558 0.0260425 0.0175779 0.0175952 0.0344021 0.0360019 0.0427056 0.0418222 0.0605833 0.0407866 0.0630011 0.0548924 0.0644937 0.0741713 0.0692914 0.0638055 0.0777073 0.07772 0.0763156
108 2 Si 0.420358 14.5979 1.4948 2.4 1 0.0226516 0.0193917 0.0287873 0.026002 0.0175987 0.0384926 0.0390612 0.0419353 0.0443968 0.054782 0.0425303 0.0624648 0.0578138 0.0627668 0.0671699 0.0590246 0.0719316 0.076807 0.0620484 0.0715823
109 3 O 0.408732 12.9847 1.4948 -1.2 1 0.022302 0.015454 0.0229654 0.0255469 0.0167263 0.0472319 0.0440237 0.0537285 0.0364115 0.0525375 0.0424707 0.0691868 0.0535722 0.0571643 0.0661315 0.0633477 0.071464 0.0550486 0.0682166 0.0717321
110 3 O 7.03923 15.572 1.4948 -1.2 1 0.0292598 0.0166657 0.0218041 0.0127516 0.0359403 0.0340391 0.0367656 0.0563194 0.0385323 0.0446263 0.0510617 0.0539468 0.0484409 0.0734061 0.0782069 0.0788505 0.0641069 0.0694921 0.0622741 0.0772576
111 3 O -0.248332 15.3041 0.196716 -1.2 1 0.0189853 0.0131821 0.0213159 0.0186769 0.0252568 0.0464337 0.0486765 0.0429313 0.039392 0.0450743 0.0374162 0.0310649 0.0609832 0.053792 0.0700268 0.0642949 0.08276 0.0501482 0.0698878 0.0716547
112 3 O -0.289436 15.3041 2.79288 -1.2 1 0.014192 0.0174201 0.0292192 0.0115224 0.0311285 0.0363708 0.0434119 0.0470411 0.0445681 0.0400396 0.0538792 0.0485617 0.0505617 0.0538463 0.0727625 0.0703481 0.0715967 0.0542184 0.0679511 0.0760542
113 1 Mg 6.59566 18.996 0 1.2 1 0.0136853 0.0118625 0.019963 0.0143419 0.0257446 0.0315635 0.0432847 0.0330627 0.0539041 0.0495384 0.0537161 0.0390521 0.0517434 0.0526173 0.0719815 0.0644789 0.0643939 0.0644783 0.0858977 0.070442
114 1 Mg 3.85574 23.7037 1.4948 1.2 1 0.0118529 0.0164517 0.018975 0.0139053 0.0209091 0.0283556 0.032851 0.0365113 0.0381827 0.061201 0.0456679 0.0627293 0.0494726 0.0675622 0.063555 0.0740964 0.0668864 0.079599 0.0791994 0.0751487
115 2 Si 5.66125 21.0195 1.4948 2.4 1 0.00862048 0.022922 0.0247546 0.0273274 0.0199749 0.0458289 0.0335311 0.04342 0.0471421 0.0538289 0.0441097 0.0616767 0.0558982 0.0598954 0.071124 0.0601867 0.0739043 0.0776312 0.0654267 0.0753
116 3 O 5.72074 22.6328 1.4948 -1.2 1 0.0281206 0.0190825 0.0181072 0.0228798 0.0191295 0.04456 0.0456265 0.0619038 0.0384842 0.0520261 0.0329689 0.0700474 0.0491149 0.053087 0.0677523 0.0564599 0.0649476 0.0680977 0.0561911 0.0716435
117 3 O 2.03867 20.0455 1.4948 -1.2 1 0.0343617 0.0166849 0.0256936 0.013299 0.0338896 0.0313477 0.0362518 0.0540313 0.0432762 0.0421345 0.0508587 0.0503526 0.047965 0.0736234 0.0842769 0.0716728 0.0626734 0.067681 0.0639122 0.0728283
118 3 O 4.96004 20.3134 0.196716 -1.2 1 0.0211819 0.0103715 0.0230724 0.018548 0.0230187 0.0450835 0.0440594 0.0478151 0.0389119 0.0395309 0.0416664 0.0343614 0.0645904 0.047934 0.0696366 0.0728841 0.0716762 0.0578175 0.070942 0.0723878
119 1 Mg 6.55057 18.996 2.9896 1.2 1 0.00982185 0.017766 0.0203778 0.0217544 0.0219755 0.0325559 0.0370158 0.0545274 0.0350533 0.0586033 0.0361565 0.062417 0.0245592 0.0713696 0.0429731 0.0725805 0.0450173 0.0957389 0.0445918 0.09283
120 3 O 4.92172 20.3134 2.79288 -1.2 1 0.00982511 0.0117513 0.0313894 0.0158082 0.0298769 0.0400733 0.0460786 0.0447471 0.0482321 0.042585 0.0526534 0.0407346 0.0533006 0.0537183 0.0774389 0.0675622 0.0759162 0.0474559 0.0711924 0.0719874
121 1 Mg -0.84282 19.0373 4.4844 1.2 1 0.0149269 0.00942771 0.0135868 0.0234945 0.0252676 0.0277774 0.0301963 0.0341196 0.0460994 0.0487825 0.057419 0.0556602 0.0653543 0.0705901 0.0550814 0.0732222 0.073434 0.0951325 0.0743685 0.0814853
122 2 Si -2.64823 21.7214 4.4844 2.4 1 0.0151581 0.0136367 0.0172006 0.0241244 0.0285105 0.0427426 0.0548883 0.0322769 0.0534922 0.0610681 0.0521077 0.0670418 0.0622753 0.0549219 0.0777998 0.0701534 0.046068 0.0947832 0.0557122 0.0637455
123 3 O -2.70847 20.1082 4.4844 -1.2 1 0.012352 0.023905 0.0112621 0.0275775 0.0241236 0.0257513 0.037581 0.0643794 0.0424802 0.0486482 0.0386254 0.0721482 0.0520338 0.0621891 0.0668762 0.0644339 0.0513706 0.0736312 0.0667725 0.0765137
124 3 O 0.97581 22.6955 4.4844 -1.2 1 0.0148767 0.022543 0.0200656 0.0213703 0.0195202 0.0443821 0.0299932 0.0501824 0.0448237 0.0527159 0.0418459 0.0463667 0.04976 0.0728714 0.108269 0.0528212 0.0700637 0.0578921 0.0744905 0.0677442
125 3 O -1.9076 22.4276 3.18632 -1.2 1 0.0230114 0.0116961 0.0205451 0.0152724 0.0172524 0.037124 0.0448822 0.0544317 0.0405337 0.0478629 0.0551427 0.0495403 0.0556363 0.0498532 0.0801311 0.0589378 0.0682689 0.0666986 0.0621665 0.0666771
126 3 O -1.9475 22.4276 5.78248 -1.2 1 0.00416481 0.0104355 0.0246898 0.0281677 0.0172896 0.0263135 0.0535031 0.0397848 0.0435317 0.0373637 0.0561275 0.0394313 0.0579638 0.0622517 0.0836752 0.0652463 0.0712869 0.0693164 0.0689293 0.0750976