ITEM: TIMESTEP
12300
ITEM: NUMBER OF ATOMS
10500
ITEM: BOX BOUNDS xy xz yz pp pp pp
0	15.2977	5.09925
0	118.725	0
0	89.688	0
ITEM: ATOMS id type element xu yu zu q Q_1 Q_2 Q_3 Q_4 Q_5 Q_6 Q_7 Q_8 Q_9 Q_10 Q_11 Q_12 Q_13 Q_14 Q_15 Q_16 Q_17 Q_18 Q_19 Q_20 Q_21
1 1 Mg 6.2404 -6.37941e-06 0 1.2 1 0.0104041 0.0413736 0.0324149 0.0371261 0.0312674 0.0394666 0.0356877 0.0667451 0.0399479 0.0711288 0.0344664 0.06111 0.0473314 0.0688608 0.0500144 0.0902346 0.0508201 0.0831873 0.0505917 0.101516
2 1 Mg 3.46349 4.70768 1.4948 1.2 1 0.0169073 0.0165673 0.0245116 0.0216157 0.0202332 0.0420442 0.0423744 0.0397603 0.046084 0.0556565 0.0429531 0.0709882 0.0578279 0.0710966 0.0716706 0.0643572 0.0677796 0.085507 0.0730031 0.0821743
3 2 Si 5.2885 2.02354 1.4948 2.4 1 0.0199727 0.0221162 0.0338434 0.0285879 0.0301079 0.0375234 0.0537042 0.0326544 0.0438912 0.0538729 0.0546264 0.0621333 0.0551885 0.0648556 0.0678823 0.079707 0.0707459 0.0643512 0.0640622 0.0729454
4 3 O 5.33628 3.63678 1.4948 -1.2 1 0.00947553 0.0142574 0.0268715 0.0260667 0.0183558 0.0391214 0.041921 0.0602475 0.035465 0.040174 0.0547458 0.0507053 0.0680872 0.0577393 0.0588562 0.0647332 0.0600312 0.0615589 0.0711737 0.074482
5 3 O 1.67294 1.04952 1.4948 -1.2 1 0.0163399 0.0218948 0.023324 0.0357128 0.0296488 0.0387546 0.0340875 0.0608713 0.0348573 0.0594672 0.044039 0.0509903 0.0718723 0.0593845 0.0762144 0.0691897 0.0628747 0.0645017 0.079393 0.0605275
6 3 O 4.59532 1.31737 0.196716 -1.2 1 0.0258407 0.0221343 0.0575603 0.0253733 0.033343 0.0486553 0.0386045 0.0472302 0.0339365 0.0394234 0.0383983 0.0504571 0.05435 0.0572108 0.0634627 0.0700374 0.0622086 0.0717329 0.0593884 0.0707565
7 1 Mg 6.18956 -6.37941e-06 2.9896 1.2 1 0.0155272 0.0280502 0.015659 0.0218758 0.0360445 0.0449437 0.0502732 0.0432077 0.047114 0.0455725 0.0386077 0.0553217 0.0397525 0.0565868 0.0590831 0.0792677 0.0569019 0.0691669 0.0594605 0.0699703
8 3 O 4.55118 1.31737 2.79288 -1.2 1 0.0244341 0.0257726 0.0409437 0.0172891 0.0287277 0.0439211 0.0444165 0.0480828 0.0439206 0.0544059 0.0538685 0.0484225 0.0495145 0.0661972 0.0529993 0.0698943 0.0641422 0.066974 0.0643337 0.0717829
9 1 Mg -1.20682 0.0413099 4.4844 1.2 1 0.0132163 0.0242593 0.0206072 0.0268671 0.036679 0.0399717 0.0316434 0.0513991 0.0534655 0.0399622 0.0482804 0.0623581 0.0660745 0.0575556 0.0764364 0.0627303 0.0815397 0.0741528 0.0642715 0.0535895
10 2 Si -3.0337 2.72544 4.4844 2.4 1 0.0311043 0.0144974 0.0226318 0.0176738 0.0308893 0.0373282 0.0614741 0.0349705 0.0624264 0.0521451 0.0460063 0.0595148 0.0574711 0.0759349 0.0541641 0.0601591 0.0717544 0.0790977 0.0721894 0.0595531
11 3 O -3.08099 1.11221 4.4844 -1.2 1 0.0128782 0.0206286 0.0272263 0.0242685 0.0402502 0.0260015 0.0486498 0.0462739 0.0394185 0.0403915 0.0406925 0.0720016 0.0538134 0.0508768 0.0552832 0.0693233 0.0532147 0.078933 0.0728584 0.0761087
12 3 O 0.582463 3.69946 4.4844 -1.2 1 0.0101343 0.0112804 0.0335874 0.03032 0.0267407 0.0615598 0.0313972 0.0550933 0.043484 0.0416016 0.0540789 0.0591953 0.059181 0.0702702 0.100499 0.0693194 0.0801092 0.04034 0.0720999 0.0671011
13 3 O -2.29524 3.43162 3.18632 -1.2 1 0.0128709 0.0204355 0.0259361 0.0306337 0.0202803 0.0504104 0.0515113 0.0500427 0.0412012 0.0531765 0.0588781 0.0548542 0.040971 0.0516206 0.0586663 0.0645489 0.066731 0.0616648 0.0637983 0.0730361
14 3 O -2.34216 3.43162 5.78248 -1.2 1 0.0112342 0.0122 0.0188433 0.0293968 0.0253684 0.042764 0.0539891 0.0512638 0.0387114 0.0546426 0.0532109 0.0496164 0.0567514 0.0544063 0.0757556 0.0731186 0.0649802 0.0701756 0.0744189 0.0729219
15 1 Mg 1.12778 2.37449 2.9896 1.2 1 0.0158592 0.0407561 0.0165147 0.024128 0.0260675 0.0426039 0.041124 0.0506354 0.0368695 0.0608878 0.0368991 0.060021 0.0405129 0.0662011 0.06328 0.0696955 0.0682449 0.0820067 0.0464486 0.0878232
16 1 Mg 3.92855 2.33318 4.4844 1.2 1 0.0285373 0.0151703 0.0238908 0.0299639 0.0442002 0.0256279 0.0378299 0.0373146 0.0466943 0.0691462 0.0509065 0.0600302 0.0493613 0.0613874 0.0555085 0.0741674 0.0630361 0.0945568 0.074091 0.0857892
17 2 Si 2.09341 4.39804 4.4844 2.4 1 0.0150294 0.0175951 0.0334778 0.0184754 0.0434084 0.0287786 0.0617015 0.0221791 0.045151 0.0458909 0.0632737 0.0618631 0.067112 0.0598947 0.0709093 0.073675 0.0714848 0.0814964 0.0528919 0.0673228
18 3 O 2.09991 6.01128 4.4844 -1.2 1 0.0145216 0.00919693 0.0154874 0.0190648 0.0333284 0.0234036 0.0514992 0.0516157 0.0470806 0.0465733 0.0474271 0.0649594 0.0446939 0.0604548 0.0652945 0.0708997 0.0461551 0.0791067 0.0601038 0.0704325
19 3 O -4.52137 3.42402 4.4844 -1.2 1 0.020481 0.0292972 0.0357719 0.0228199 0.0261397 0.0582617 0.0382664 0.0473003 0.0550458 0.0593381 0.0307708 0.0578987 0.0524734 0.0530951 0.090693 0.072687 0.0768688 0.0612463 0.0727301 0.0560721
20 3 O 2.80834 3.69187 3.18632 -1.2 1 0.00881847 0.018694 0.0209373 0.0248768 0.0221194 0.0387558 0.0361065 0.0507171 0.0446907 0.0590563 0.0675606 0.0510134 0.0424722 0.0640878 0.0700701 0.0716081 0.0621953 0.0577439 0.0703221 0.0714488
21 1 Mg 1.17857 2.37449 0 1.2 1 0.0145371 0.0372395 0.0292483 0.0289325 0.036551 0.0387301 0.043326 0.0585764 0.0354279 0.0490941 0.0524856 0.040892 0.0436483 0.066902 0.0549451 0.0654195 0.0597325 0.080668 0.0571536 0.0728491
22 3 O 2.76143 3.69187 5.78248 -1.2 1 0.00848006 0.0212856 0.0183678 0.0255061 0.0204819 0.033058 0.0416164 0.0471971 0.0355211 0.0453673 0.0595234 0.0435984 0.0560946 0.0773228 0.0746951 0.0676705 0.0722704 0.0598765 0.0685698 0.0749061
23 1 Mg -1.67381 2.41581 1.4948 1.2 1 0.0114176 0.0115971 0.0371677 0.0362294 0.0324099 0.0440276 0.0587424 0.0403448 0.0510013 0.0405074 0.0462937 0.0592141 0.0549452 0.0636905 0.0615081 0.0644123 0.0834106 0.0777943 0.0665945 0.07406
24 2 Si 0.16286 0.350945 1.4948 2.4 1 0.0151608 0.0320944 0.0281551 0.0235087 0.0355833 0.0356761 0.0558313 0.0512369 0.0527965 0.0489295 0.0406246 0.0557515 0.073724 0.0690784 0.057314 0.0732566 0.0694335 0.0649491 0.0733853 0.0656645
25 3 O 0.15972 -1.26229 1.4948 -1.2 1 0.00914332 0.0156401 0.0397038 0.0212434 0.0370632 0.0358456 0.0454233 0.0561714 0.0472553 0.0517652 0.0558189 0.0565971 0.0634405 0.0665523 0.0493042 0.0595476 0.0696469 0.0670127 0.0618541 0.0738321
26 3 O 6.77654 1.32496 1.4948 -1.2 1 0.0114946 0.0277639 0.0266117 0.0277152 0.0372539 0.0544862 0.0342491 0.0648436 0.0475899 0.0467064 0.0442512 0.0523903 0.0525355 0.059555 0.0686341 0.071442 0.0845799 0.0629718 0.0597901 0.0746397
27 3 O -0.508028 1.05712 0.196716 -1.2 1 0.0247965 0.0191091 0.0297163 0.0205088 0.0294996 0.0531546 0.0438062 0.0445002 0.0471185 0.0480715 0.050248 0.0482395 0.0494264 0.063495 0.0548443 0.0628366 0.0633583 0.0589536 0.0719218 0.0718989
28 3 O -0.552171 1.05712 2.79288 -1.2 1 0.03688 0.0255938 0.0390258 0.0323284 0.022546 0.0437865 0.0412656 0.0451823 0.0437353 0.0356793 0.0483413 0.0499159 0.0584185 0.0614985 0.0644235 0.0758274 0.0723457 0.0498996 0.0704421 0.0704585
29 1 Mg 6.31713 4.74899 0 1.2 1 0.0274052 0.0294343 0.030321 0.0366481 0.0325696 0.0266236 0.0417985 0.0558514 0.0585609 0.049557 0.0509709 0.0382872 0.0592661 0.0613461 0.0655109 0.0636053 0.0658485 0.0734413 0.06986 0.0703816
30 1 Mg 3.54847 9.45668 1.4948 1.2 1 0.017061 0.0159992 0.0175541 0.0188247 0.0189177 0.0383495 0.0385998 0.0418411 0.045028 0.0564225 0.0379718 0.0694001 0.0529905 0.0655856 0.0746619 0.0624123 0.0663573 0.0874619 0.0736698 0.0797594
31 2 Si 5.36879 6.77254 1.4948 2.4 1 0.0290591 0.0271187 0.0238298 0.0255457 0.0246486 0.0349757 0.0443271 0.0363194 0.0448894 0.0569858 0.0422339 0.0587172 0.0535003 0.0662509 0.0655798 0.0742388 0.067269 0.0790874 0.0558707 0.0689836
32 3 O 5.41937 8.38578 1.4948 -1.2 1 0.0216389 0.0115946 0.0236984 0.0295809 0.0174578 0.0433167 0.0441711 0.0571653 0.0364066 0.0502228 0.0477796 0.0638513 0.0555676 0.054338 0.0665135 0.0602535 0.0729938 0.0559413 0.0731557 0.0730813
33 3 O 1.75158 5.79852 1.4948 -1.2 1 0.0284418 0.0124505 0.0224623 0.0267426 0.044126 0.0308017 0.0391576 0.0570615 0.0408778 0.05267 0.0495506 0.0504108 0.0473759 0.0710887 0.0786914 0.0784959 0.0603522 0.0749276 0.059961 0.0769481
34 3 O 4.67421 6.06637 0.196716 -1.2 1 0.014554 0.0265123 0.031504 0.024273 0.0320701 0.0378709 0.0345247 0.0323494 0.0448191 0.0562322 0.0392788 0.044368 0.0668528 0.056209 0.0676032 0.0712363 0.0714362 0.065778 0.0632074 0.0682845
35 1 Mg 6.26654 4.74899 2.9896 1.2 1 0.0222646 0.0251547 0.0235206 0.0436813 0.025705 0.0446924 0.0480422 0.0482505 0.0360737 0.0623803 0.037648 0.0596777 0.0390976 0.0640543 0.0524423 0.0764692 0.0559099 0.0844132 0.0464517 0.0901229
36 3 O 4.63043 6.06637 2.79288 -1.2 1 0.016587 0.0198201 0.0425604 0.0202669 0.0326479 0.035805 0.0423018 0.0487798 0.0450458 0.0371761 0.0501425 0.0519959 0.0581658 0.0658473 0.0620208 0.0737845 0.0659023 0.066779 0.0673866 0.0841162
37 1 Mg -1.12976 4.79031 4.4844 1.2 1 0.0221549 0.0256703 0.0124649 0.0133244 0.0369414 0.0372895 0.0484893 0.0491988 0.044803 0.0437853 0.0553596 0.0611658 0.077066 0.0710229 0.0611419 0.0689086 0.0710841 0.0954265 0.0720365 0.0818156
38 2 Si -2.9517 7.47444 4.4844 2.4 1 0.023621 0.0139147 0.0177862 0.0265324 0.0307436 0.0423113 0.0622465 0.0281886 0.0545873 0.0573437 0.0524021 0.0601178 0.0639708 0.0579143 0.0808793 0.069781 0.0516185 0.0867387 0.0559123 0.0615579
39 3 O -3.00198 5.86121 4.4844 -1.2 1 0.0162719 0.024673 0.0268976 0.0286838 0.0324753 0.0311153 0.0544527 0.0589539 0.038533 0.0536964 0.0476606 0.070677 0.0586067 0.056511 0.0659195 0.0709786 0.048771 0.0772842 0.0606869 0.0780962
40 3 O 0.666315 8.44846 4.4844 -1.2 1 0.0238179 0.0220089 0.0220596 0.0146765 0.0214258 0.0551413 0.0301963 0.0506586 0.0409679 0.0472767 0.0434851 0.0512263 0.0495054 0.0755502 0.0989094 0.0670755 0.0775168 0.0499724 0.0684061 0.0724581
41 3 O -2.21213 8.18062 3.18632 -1.2 1 0.0185735 0.0157695 0.0163051 0.0159418 0.0176372 0.0355692 0.0461055 0.0543928 0.0456759 0.0540326 0.0531553 0.0525604 0.0524105 0.0475314 0.0783051 0.0637677 0.0712207 0.058816 0.0677847 0.0704538
42 3 O -2.25864 8.18062 5.78248 -1.2 1 0.0138111 0.00973296 0.0219746 0.0213798 0.0183785 0.029388 0.0510996 0.050234 0.0376544 0.0408303 0.0561433 0.038252 0.0572778 0.0599278 0.0802799 0.0697406 0.07202 0.0615746 0.0667388 0.0752786
43 1 Mg 1.20893 7.12349 2.9896 1.2 1 0.00762328 0.0227474 0.0184211 0.0247326 0.0241029 0.0394634 0.0429208 0.0460912 0.0342989 0.0657155 0.0389846 0.0668386 0.0363051 0.0586642 0.0521902 0.0800373 0.0513082 0.0840626 0.0470436 0.0872787
44 1 Mg 4.00982 7.08218 4.4844 1.2 1 0.0202198 0.016911 0.0257066 0.0358314 0.0330182 0.0350183 0.0449278 0.0373171 0.0460974 0.0508888 0.0580829 0.0544816 0.072175 0.0730636 0.0573617 0.0680227 0.0634708 0.0985149 0.0751516 0.0809433
45 2 Si 2.17861 9.14704 4.4844 2.4 1 0.0268589 0.0129319 0.0238529 0.0210272 0.0288318 0.0342234 0.0622113 0.024896 0.0504101 0.054304 0.0556492 0.0594723 0.0641712 0.0571373 0.079492 0.0693497 0.0497401 0.0932699 0.0557426 0.0572546
46 3 O 2.18828 10.7603 4.4844 -1.2 1 0.0200323 0.0157338 0.00521415 0.0195781 0.027461 0.0225728 0.0440679 0.0606001 0.0402513 0.0534225 0.0397315 0.0710553 0.0445754 0.0653117 0.0694795 0.0725376 0.047889 0.0715797 0.0646418 0.0729916
47 3 O -4.43805 8.17302 4.4844 -1.2 1 0.0106439 0.01738 0.0177012 0.0213895 0.0224496 0.0550428 0.0358759 0.048047 0.0453731 0.0499443 0.03479 0.0552962 0.0534656 0.0725882 0.0994732 0.0681809 0.0807714 0.053501 0.0731535 0.0748503
48 3 O 2.89193 8.44087 3.18632 -1.2 1 0.0181945 0.0157808 0.0181152 0.0142931 0.0213438 0.0419646 0.0340548 0.0554889 0.0432039 0.0518197 0.059159 0.0487464 0.0512938 0.0531734 0.0804296 0.0626602 0.0703742 0.0590295 0.0646326 0.0735373
49 1 Mg 1.25915 7.12349 0 1.2 1 0.0187808 0.0174705 0.0282963 0.0147641 0.0320836 0.0247316 0.0502877 0.0398833 0.056165 0.0496348 0.0539145 0.0426854 0.0711365 0.0512892 0.0687247 0.0705868 0.0638378 0.0709576 0.0792281 0.0590219
50 3 O 2.84547 8.44087 5.78248 -1.2 1 0.0112419 0.0136764 0.0166387 0.019389 0.0197634 0.0294498 0.044016 0.0487916 0.0366221 0.0406904 0.0593245 0.0426038 0.0581776 0.0626673 0.0891447 0.0657362 0.0715435 0.0638055 0.0663164 0.0767128
51 1 Mg -1.59284 7.16481 1.4948 1.2 1 0.00977965 0.0163873 0.0204574 0.0204107 0.0148296 0.0372483 0.0461794 0.0428973 0.0433026 0.0577293 0.0388272 0.0656438 0.0521276 0.069016 0.0756647 0.0605015 0.0679251 0.0846684 0.0737415 0.078483
52 2 Si 0.240329 5.09994 1.4948 2.4 1 0.0245978 0.0171909 0.0160885 0.0434128 0.0273466 0.0405307 0.0468472 0.0532637 0.0550741 0.0490776 0.04544 0.0574425 0.0590171 0.0679714 0.0654558 0.0666946 0.0638289 0.0726673 0.0663824 0.0677691
53 3 O 0.234538 3.48671 1.4948 -1.2 1 0.0130861 0.0163656 0.0265566 0.0358221 0.0314842 0.0492162 0.0459321 0.0424354 0.052902 0.0468435 0.0523694 0.0614942 0.0560215 0.0607825 0.0616849 0.062757 0.0627806 0.0569994 0.0761078 0.0738959
54 3 O 6.85564 6.07396 1.4948 -1.2 1 0.0324997 0.0195221 0.0344537 0.0275263 0.037239 0.0402583 0.0325009 0.0625931 0.0362397 0.0532862 0.0538173 0.0538081 0.055282 0.0733207 0.0697132 0.0769429 0.06656 0.0723618 0.0530865 0.0849104
55 3 O -0.429565 5.80612 0.196716 -1.2 1 0.0340059 0.0199961 0.0159309 0.021268 0.0409485 0.037465 0.0538968 0.0451235 0.045992 0.0563412 0.039756 0.0418977 0.0533021 0.0602129 0.0599247 0.0681485 0.0704163 0.0609916 0.06539 0.0742935
56 3 O -0.473377 5.80612 2.79288 -1.2 1 0.0298837 0.0208827 0.0295463 0.0187724 0.033073 0.046373 0.0483949 0.050914 0.0527163 0.0468103 0.0619819 0.04046 0.04291 0.0571449 0.0651848 0.0713837 0.0647187 0.0684551 0.0701961 0.0813476
57 1 Mg 6.40169 9.49799 0 1.2 1 0.0127163 0.0119155 0.0211558 0.0143911 0.0304349 0.021303 0.052192 0.0356157 0.058599 0.0493113 0.0498425 0.0354349 0.0671374 0.05265 0.0709589 0.0670983 0.0653962 0.0704827 0.0812056 0.0684121
58 1 Mg 3.64209 14.2057 1.4948 1.2 1 0.0105622 0.01104 0.0180115 0.0166105 0.0213809 0.033799 0.0356171 0.0438314 0.0414139 0.0554656 0.0391086 0.0662629 0.0531486 0.0659519 0.0741125 0.0631046 0.0649725 0.0826787 0.073699 0.0781974
59 2 Si 5.45748 11.5215 1.4948 2.4 1 0.0119892 0.0219491 0.0232613 0.024765 0.0179219 0.0402922 0.0396249 0.0399409 0.0434337 0.0543455 0.0424368 0.0606168 0.0535182 0.0662138 0.0695424 0.0632868 0.0712973 0.0819531 0.0582854 0.067041
60 3 O 5.51101 13.1348 1.4948 -1.2 1 0.0242079 0.0132754 0.0221835 0.0294691 0.0197067 0.0432137 0.0446677 0.059031 0.0367963 0.0498699 0.0428176 0.0672495 0.0531212 0.0533275 0.0652899 0.0601139 0.0706896 0.0581481 0.0693116 0.0722921
61 3 O 1.83851 10.5475 1.4948 -1.2 1 0.0351937 0.0140855 0.0216024 0.0139036 0.0363729 0.0302979 0.0363185 0.0592767 0.0397656 0.0483028 0.0496905 0.0515687 0.047171 0.0749853 0.0758215 0.0797479 0.0566511 0.0759551 0.0577022 0.0788333
62 3 O 4.7611 10.8154 0.196716 -1.2 1 0.0357328 0.019273 0.019847 0.0181184 0.0267592 0.0441963 0.0482818 0.0374804 0.0387842 0.0491949 0.0369095 0.0410476 0.0607958 0.0607621 0.0649337 0.0714371 0.075263 0.0657478 0.0728927 0.0677125
63 1 Mg 6.35203 9.49799 2.9896 1.2 1 0.0133176 0.0178012 0.0252332 0.0213917 0.0189689 0.0378712 0.0376685 0.0506486 0.0353285 0.0586413 0.0321591 0.0646259 0.0290011 0.0667154 0.0479219 0.0796154 0.0459883 0.0899132 0.0455521 0.0911805
64 3 O 4.71833 10.8154 2.79288 -1.2 1 0.0216735 0.0127492 0.0324713 0.0124474 0.0301537 0.0430424 0.0439217 0.0444355 0.0433118 0.037388 0.0528132 0.041912 0.0545879 0.0597123 0.074183 0.0697141 0.0732183 0.0588717 0.0692176 0.0808521
65 1 Mg -1.0438 9.53931 4.4844 1.2 1 0.014131 0.0168244 0.016088 0.0243295 0.0265803 0.0288125 0.0406583 0.0353486 0.0459835 0.0511585 0.0578304 0.0563356 0.0698297 0.0704021 0.0602473 0.0681639 0.0713201 0.0997438 0.0700077 0.085596
66 2 Si -2.8604 12.2234 4.4844 2.4 1 0.0142962 0.0144023 0.016372 0.0240146 0.030748 0.042725 0.0583596 0.0309866 0.0527024 0.0617189 0.0548867 0.0625305 0.0590859 0.0564905 0.0800184 0.0713465 0.050775 0.0913763 0.055235 0.0610286
67 3 O -2.91391 10.6102 4.4844 -1.2 1 0.0215494 0.0122754 0.0082913 0.0235029 0.0268209 0.0230294 0.0441283 0.0631181 0.04018 0.0489252 0.0367506 0.0708505 0.0450121 0.0591586 0.0666516 0.0697574 0.0494065 0.0726839 0.0608904 0.0748941
68 3 O 0.7596 13.1975 4.4844 -1.2 1 0.0268247 0.0256213 0.0201912 0.0123644 0.0231849 0.0508104 0.0346493 0.0485357 0.0445948 0.0498661 0.0392796 0.0482 0.0478388 0.0709765 0.101491 0.0637731 0.0757639 0.0548179 0.0723853 0.0720518
69 3 O -2.12001 12.9296 3.18632 -1.2 1 0.0201993 0.00701436 0.0213365 0.0174315 0.019149 0.0366145 0.0406434 0.0547725 0.043283 0.0542823 0.053204 0.0488671 0.0560908 0.0492434 0.0807216 0.0624299 0.0733455 0.0635283 0.0662499 0.0686973
70 3 O -2.16532 12.9296 5.78248 -1.2 1 0.016403 0.00914108 0.0208056 0.0212194 0.0176888 0.0237192 0.0502215 0.0458917 0.0413259 0.0395639 0.0546618 0.039297 0.0544582 0.0621934 0.0834215 0.0652729 0.0697069 0.0626631 0.0698886 0.0751901
71 1 Mg 1.29891 11.8725 2.9896 1.2 1 0.00769581 0.0159802 0.0223667 0.0210996 0.0200075 0.0383102 0.0378474 0.0521314 0.0353582 0.0623189 0.0344619 0.0601874 0.0268962 0.0677389 0.0488218 0.08211 0.0478372 0.0891422 0.0474596 0.0864161
72 1 Mg 4.10033 11.8312 4.4844 1.2 1 0.0128421 0.0176592 0.0167564 0.0266696 0.0261037 0.0326919 0.0433675 0.0339307 0.0469572 0.052098 0.0542975 0.0532368 0.0696416 0.0694136 0.053521 0.0708693 0.0698422 0.0994888 0.0741598 0.0819303
73 2 Si 2.27333 13.896 4.4844 2.4 1 0.0270141 0.00719575 0.0253791 0.0239294 0.0241629 0.0385804 0.0618047 0.0301179 0.0531245 0.0563378 0.0529734 0.0614636 0.0627576 0.0577218 0.076992 0.0677106 0.0465738 0.097088 0.0547011 0.056345
74 3 O 2.28634 15.5093 4.4844 -1.2 1 0.0251394 0.0151956 0.00722713 0.0219913 0.0226863 0.0236072 0.0408301 0.0590006 0.0421053 0.0516373 0.0406288 0.0702787 0.046327 0.0641063 0.0680963 0.0698669 0.0483878 0.069795 0.0649013 0.0743858
75 3 O -4.34533 12.922 4.4844 -1.2 1 0.0208001 0.0214042 0.0213454 0.0162989 0.0224067 0.0506109 0.0352333 0.0493113 0.0446534 0.0525737 0.0387212 0.0534264 0.049523 0.0712159 0.100407 0.0657002 0.0779516 0.0532003 0.0747545 0.0731098
76 3 O 2.98455 13.1899 3.18632 -1.2 1 0.023014 0.0114575 0.0181346 0.0117567 0.0206174 0.0421327 0.0388655 0.0577384 0.0458184 0.052332 0.056311 0.0493607 0.050934 0.0512976 0.0813678 0.0615238 0.0664904 0.0601498 0.0636485 0.0725298
77 1 Mg 1.34779 11.8725 0 1.2 1 0.021698 0.00913081 0.0219803 0.0147779 0.0287519 0.0227793 0.0515948 0.0348015 0.0575457 0.050948 0.0496587 0.0353348 0.0650185 0.0500048 0.0706249 0.0644836 0.0617231 0.0700606 0.0871625 0.0598383
78 3 O 2.93934 13.1899 5.78248 -1.2 1 0.021685 0.0111448 0.0184158 0.0181636 0.0151744 0.0255416 0.0477169 0.0476146 0.039488 0.0397487 0.0572409 0.0387739 0.0530757 0.058698 0.0859249 0.0641913 0.0704837 0.0632461 0.0665454 0.077897
79 1 Mg -1.50344 11.9138 1.4948 1.2 1 0.012929 0.0179259 0.0229086 0.0204329 0.0118751 0.0368829 0.0385471 0.0424009 0.0413405 0.0600143 0.0354915 0.0651478 0.0506365 0.0650387 0.0744369 0.0681336 0.0639633 0.0839327 0.0766662 0.0788765
80 2 Si 0.326006 9.84894 1.4948 2.4 1 0.0281244 0.0179158 0.0268524 0.0295197 0.0168352 0.0381265 0.0434275 0.0399839 0.0440774 0.0548456 0.0396768 0.0608207 0.055714 0.0660459 0.0607909 0.0627338 0.0701219 0.0801821 0.0613049 0.0691045
81 3 O 0.317364 8.23571 1.4948 -1.2 1 0.0224149 0.0124813 0.0224636 0.0241796 0.0197215 0.0452374 0.0431739 0.0498176 0.0348228 0.0542446 0.0439914 0.0658973 0.0572863 0.0597388 0.0677807 0.0661218 0.0719695 0.0535569 0.0732167 0.0746245
82 3 O 6.94307 10.823 1.4948 -1.2 1 0.0312281 0.0148418 0.0220877 0.0117629 0.0372666 0.0328257 0.0381816 0.0579411 0.0344788 0.047517 0.05116 0.0530262 0.0504336 0.0746326 0.0728775 0.0797604 0.0616675 0.0728354 0.0582909 0.0801223
83 3 O -0.343122 10.5551 0.196716 -1.2 1 0.0309003 0.0175693 0.0217371 0.0208953 0.0297674 0.0413245 0.0512282 0.0396159 0.0387406 0.0506495 0.0370559 0.0376415 0.0613596 0.0606624 0.0688892 0.0706901 0.0809853 0.0541875 0.0698964 0.0692611
84 3 O -0.385966 10.5551 2.79288 -1.2 1 0.0184433 0.0181819 0.0346062 0.0119246 0.0330258 0.0428211 0.0455303 0.0450381 0.0447834 0.0386769 0.052613 0.047049 0.049792 0.057334 0.0708299 0.0724401 0.0674942 0.0610816 0.0693601 0.0786974
85 1 Mg 6.49448 14.247 0 1.2 1 0.0225828 0.00997347 0.0185467 0.0170469 0.0286263 0.0228867 0.0478359 0.0329584 0.059298 0.048248 0.0512998 0.0374369 0.0625082 0.0528281 0.0710597 0.0653115 0.0644243 0.0706955 0.0847048 0.0705667
86 1 Mg 3.74457 18.9547 1.4948 1.2 1 0.014995 0.0106801 0.0153094 0.0160244 0.0257778 0.0293177 0.03125 0.0396522 0.0382721 0.057928 0.0436654 0.0670137 0.0506241 0.0661003 0.0704284 0.0697907 0.0628489 0.0831244 0.0785082 0.0761487
87 2 Si 5.55495 16.2705 1.4948 2.4 1 0.0108407 0.0217454 0.0200515 0.0271483 0.0177339 0.0427337 0.0373519 0.0402316 0.0470326 0.0529933 0.0441425 0.060265 0.0538703 0.0642027 0.0703006 0.0594441 0.0728354 0.0790649 0.0601758 0.0704269
88 3 O 5.6115 17.8838 1.4948 -1.2 1 0.0269017 0.0181246 0.023303 0.0256918 0.0193293 0.0435074 0.0452496 0.0610004 0.0374249 0.0501615 0.037981 0.0671043 0.0511183 0.0559772 0.0642045 0.0573776 0.0656184 0.0615658 0.0632982 0.0692194
89 3 O 1.93416 15.2965 1.4948 -1.2 1 0.0370789 0.014606 0.0219176 0.013139 0.0350904 0.0304704 0.0360639 0.0590045 0.0432291 0.0468887 0.0486205 0.0501221 0.0462598 0.0741706 0.080793 0.0776079 0.0590114 0.0739784 0.0621144 0.0775638
90 3 O 4.85636 15.5644 0.196716 -1.2 1 0.0260772 0.0109491 0.0223159 0.0196033 0.0236871 0.051445 0.0506063 0.0401195 0.0410402 0.046559 0.0365594 0.03372 0.0640512 0.0546817 0.0672644 0.0684017 0.0748436 0.0632627 0.0719762 0.0675952
91 1 Mg 6.44662 14.247 2.9896 1.2 1 0.0110396 0.0168609 0.0225455 0.0237058 0.0189574 0.0363383 0.0374763 0.0527091 0.0361636 0.0564833 0.033684 0.063896 0.0233807 0.066979 0.0457716 0.0783005 0.0462329 0.0919378 0.0441492 0.0927041
92 3 O 4.81537 15.5644 2.79288 -1.2 1 0.0183162 0.00756051 0.0268871 0.0133111 0.0272612 0.0394841 0.0467398 0.0478949 0.0457327 0.0385346 0.0512501 0.0413981 0.0516809 0.0554275 0.0746651 0.0650256 0.0756581 0.0545272 0.0729846 0.0766709
93 1 Mg -0.948271 14.2883 4.4844 1.2 1 0.016602 0.0126975 0.0142598 0.0290379 0.0240275 0.028553 0.0374822 0.0342398 0.0444301 0.0482477 0.0586482 0.0569409 0.0665115 0.0690623 0.0591314 0.070317 0.0714823 0.097568 0.073799 0.0808268
94 2 Si -2.75928 16.9724 4.4844 2.4 1 0.0200887 0.0118065 0.0184014 0.0277111 0.0295398 0.0420776 0.0579187 0.0317067 0.0553897 0.0624619 0.0523516 0.0619842 0.0593736 0.0547481 0.0784318 0.07214 0.0469059 0.0922353 0.0525085 0.0637009
95 3 O -2.81617 15.3592 4.4844 -1.2 1 0.0185054 0.0132216 0.0116236 0.0247889 0.0277187 0.0269115 0.0402133 0.0659438 0.0433311 0.0494166 0.036863 0.072507 0.0492291 0.0589247 0.0680143 0.0679653 0.0525816 0.0737822 0.0629348 0.0733079
96 3 O 0.862762 17.9465 4.4844 -1.2 1 0.0179684 0.0248848 0.0206369 0.0161817 0.0215981 0.0464159 0.0348477 0.053277 0.0471138 0.0528273 0.0404918 0.0473904 0.043851 0.070554 0.105894 0.0562934 0.0716162 0.0525599 0.07517 0.0677113
97 3 O -2.0185 17.6786 3.18632 -1.2 1 0.0219753 0.0126352 0.0176859 0.0173661 0.0199453 0.0383628 0.0422828 0.0548502 0.044756 0.0517213 0.0533497 0.050254 0.0550786 0.0484439 0.0816762 0.0613086 0.068734 0.0659082 0.0640971 0.0682093
98 3 O -2.06164 17.6786 5.78248 -1.2 1 0.00846683 0.00826895 0.0207761 0.0269235 0.018366 0.0308581 0.0530096 0.0438988 0.04288 0.0361823 0.0569275 0.0355294 0.0596609 0.0631567 0.083492 0.068812 0.069928 0.0649072 0.0676432 0.0773728
99 1 Mg 1.39817 16.6215 2.9896 1.2 1 0.00622606 0.0164433 0.0192364 0.0223891 0.01849 0.0353879 0.0374386 0.053033 0.0365839 0.0599026 0.0355419 0.0566413 0.0230947 0.0672629 0.0468732 0.0809106 0.0492435 0.0915999 0.0446888 0.0884663
100 1 Mg 4.20062 16.5802 4.4844 1.2 1 0.0113102 0.0113873 0.0173362 0.0263574 0.0282682 0.0304634 0.0399725 0.0354011 0.0468592 0.0532159 0.0548559 0.0538906 0.0685549 0.071387 0.0518564 0.0741498 0.0705653 0.0978587 0.0741861 0.0791747
101 2 Si 2.37796 18.645 4.4844 2.4 1 0.0207222 0.00968273 0.0249462 0.0276052 0.025776 0.0367243 0.0596836 0.0314582 0.0552796 0.0588047 0.0515629 0.0620496 0.0608118 0.056264 0.0714617 0.066924 0.0452993 0.100019 0.0534863 0.0561045
102 3 O 2.39434 20.2583 4.4844 -1.2 1 0.0239808 0.0132217 0.00946772 0.0187757 0.0241876 0.022115 0.0417344 0.0603435 0.0438884 0.0511796 0.040878 0.0715682 0.0489551 0.0639813 0.0699533 0.0696223 0.0496306 0.0678299 0.0642381 0.0794472
103 3 O -4.24274 17.671 4.4844 -1.2 1 0.0179414 0.0197898 0.0196655 0.0188507 0.0189302 0.0515385 0.0338956 0.0477627 0.0426382 0.0534609 0.039887 0.0517489 0.0496708 0.0705959 0.10007 0.0618966 0.0752 0.0543583 0.0773705 0.0726413
104 3 O 3.08659 17.9389 3.18632 -1.2 1 0.02828 0.0131489 0.0217261 0.0108419 0.0172742 0.0378517 0.0374254 0.0562704 0.0430025 0.0517552 0.0553229 0.047948 0.0518243 0.049173 0.0803616 0.0588301 0.0681898 0.0606585 0.0638628 0.0694329
105 1 Mg 1.44478 16.6215 0 1.2 1 0.00945576 0.0120953 0.0217127 0.0126345 0.0266403 0.0316244 0.0480072 0.0356536 0.0507574 0.0505433 0.0518221 0.0396346 0.0584886 0.0493728 0.0697876 0.0660797 0.06035 0.0676443 0.0884948 0.0638596
106 3 O 3.0436 17.9389 5.78248 -1.2 1 0.0172072 0.01271 0.0210713 0.0212314 0.0172857 0.0244961 0.0470821 0.0474736 0.0391392 0.0400497 0.0582771 0.0400218 0.0535985 0.0589856 0.0871397 0.0649778 0.070292 0.0617285 0.0667592 0.0784301
107 1 Mg -1.40524 16.6628 1.4948 1.2 1 0.0116274 0.0125583 0.0256456 0.0177705 0.0171763 0.0345228 0.0358131 0.0429866 0.0412486 0.060394 0.0401298 0.0624195 0.0548936 0.0643719 0.0739691 0.0691837 0.064514 0.0781021 0.0784332 0.0759205
108 2 Si 0.420358 14.5979 1.4948 2.4 1 0.0224569 0.0190986 0.0290576 0.0260451 0.0177207 0.0385546 0.0391891 0.041872 0.0442915 0.0551572 0.0427783 0.0612784 0.0576147 0.0633912 0.0670449 0.0594116 0.0717946 0.076443 0.0624389 0.0712162
109 3 O 0.408732 12.9847 1.4948 -1.2 1 0.0222192 0.0155337 0.0228716 0.0256912 0.0168356 0.0472161 0.0438059 0.0539621 0.0362597 0.0527693 0.042266 0.0693128 0.0533121 0.0567957 0.065856 0.0636367 0.0713006 0.0549191 0.0683655 0.0716544
110 3 O 7.03923 15.572 1.4948 -1.2 1 0.0292952 0.016829 0.0217027 0.0128555 0.0360833 0.033848 0.036772 0.0560916 0.0386755 0.04456 0.0512422 0.0529337 0.0477718 0.074305 0.0780119 0.078397 0.064209 0.0695645 0.0621501 0.07769
111 3 O -0.248332 15.3041 0.196716 -1.2 1 0.0220283 0.0122978 0.0223443 0.019303 0.0242586 0.0462586 0.0500354 0.0434298 0.0402909 0.0466455 0.0369962 0.0319438 0.0620381 0.0544262 0.07029 0.0652179 0.0819922 0.050647 0.0695117 0.0712189
112 3 O -0.289436 15.3041 2.79288 -1.2 1 0.018349 0.0155449 0.0270038 0.00986016 0.031466 0.0367839 0.0443594 0.0475908 0.0438514 0.0404586 0.0540712 0.0495606 0.050776 0.0517181 0.0720293 0.0678964 0.0716835 0.0559134 0.0695926 0.0765315
113 1 Mg 6.59566 18.996 0 1.2 1 0.013812 0.0116648 0.0198875 0.0144071 0.0260029 0.0316264 0.043115 0.0330233 0.0539649 0.0492787 0.0539666 0.0389634 0.0522027 0.0528156 0.0721925 0.0645102 0.0641582 0.0647727 0.086114 0.0707206
114 1 Mg 3.85574 23.7037 1.4948 1.2 1 0.010795 0.0125405 0.0212955 0.0140075 0.0226744 0.0288325 0.0312737 0.0370413 0.0390209 0.0600855 0.0470678 0.0628667 0.0500202 0.066934 0.0647163 0.072537 0.0661668 0.0797192 0.0799209 0.0760264
115 2 Si 5.66125 21.0195 1.4948 2.4 1 0.008574 0.0227593 0.0247656 0.0274918 0.0200344 0.0457483 0.0339104 0.0433707 0.047495 0.054128 0.0444159 0.0616011 0.0554822 0.0597823 0.0707751 0.0607817 0.0732431 0.0772959 0.0647283 0.0751786
116 3 O 5.72074 22.6328 1.4948 -1.2 1 0.0281889 0.0193472 0.0183941 0.0227481 0.0191294 0.0448529 0.0454424 0.0618465 0.0380802 0.0520483 0.0330553 0.0696812 0.0496254 0.0537539 0.0682962 0.0555969 0.0651188 0.0676814 0.056678 0.0709684
117 3 O 2.03867 20.0455 1.4948 -1.2 1 0.0300265 0.0165728 0.0267231 0.0160259 0.0342125 0.0302255 0.0358053 0.055404 0.0441261 0.0427315 0.0506553 0.050456 0.0476587 0.0738289 0.0846611 0.0725541 0.0618711 0.0678972 0.0634121 0.0735517
118 3 O 4.96004 20.3134 0.196716 -1.2 1 0.0210827 0.0103401 0.0229032 0.0187785 0.0232638 0.0453203 0.0439355 0.047937 0.0389101 0.0398603 0.0411595 0.0342816 0.0646173 0.0476993 0.0695833 0.0728495 0.0715 0.058094 0.0716207 0.0721541
119 1 Mg 6.55057 18.996 2.9896 1.2 1 0.0104046 0.0166396 0.0198598 0.02351 0.0219394 0.0352836 0.0367961 0.0549132 0.0346911 0.0591004 0.0356239 0.0627115 0.0215677 0.0686761 0.0450263 0.0747393 0.0456432 0.0939792 0.0437779 0.0942392
120 3 O 4.92172 20.3134 2.79288 -1.2 1 0.010114 0.0112837 0.0313333 0.0150219 0.0301444 0.0397694 0.0459393 0.0460746 0.0474127 0.0424843 0.0527126 0.0399195 0.0533483 0.0535726 0.0766811 0.0674387 0.075891 0.0485296 0.0710899 0.0721763
121 1 Mg -0.84282 19.0373 4.4844 1.2 1 0.0140495 0.0122629 0.0143995 0.0280961 0.0237348 0.0266872 0.0379146 0.0318142 0.045511 0.0490917 0.0597091 0.0571837 0.0666973 0.0688751 0.0590886 0.0722036 0.0712619 0.0933496 0.0736326 0.0825978
122 2 Si -2.64823 21.7214 4.4844 2.4 1 0.014692 0.0135072 0.0178501 0.0256836 0.0295878 0.0421532 0.0554964 0.0322008 0.0527512 0.0621954 0.0506987 0.0641708 0.0585951 0.0551016 0.0771164 0.0718438 0.0474711 0.0941923 0.054331 0.0645128
123 3 O -2.70847 20.1082 4.4844 -1.2 1 0.0117749 0.0209743 0.0125238 0.0260032 0.0278312 0.0248868 0.0412107 0.064704 0.0444003 0.049615 0.0392584 0.0707239 0.0493973 0.0592246 0.0680985 0.067296 0.0514214 0.0728566 0.067562 0.0755922
124 3 O 0.97581 22.6955 4.4844 -1.2 1 0.0154682 0.0257789 0.0195798 0.017158 0.0193714 0.042046 0.0312787 0.0517622 0.0454486 0.0540204 0.0410778 0.0472246 0.0459297 0.0719356 0.10763 0.0523726 0.0678327 0.0550658 0.074965 0.0662076
125 3 O -1.9076 22.4276 3.18632 -1.2 1 0.0218729 0.00795463 0.0211597 0.0162212 0.0135552 0.0369877 0.0441249 0.055465 0.037917 0.0496745 0.0543893 0.0487825 0.0561603 0.0485897 0.0810968 0.0581334 0.0691679 0.0659902 0.0625919 0.0658197
126 3 O -1.9475 22.4276 5.78248 -1.2 1 0.0131028 0.00721172 0.0221542 0.0220591 0.0176295 0.0265051 0.0482619 0.0477827 0.0358737 0.0366254 0.056968 0.0399795 0.0561337 0.0611146 0.0819732 0.0680867 0.070188 0.0602276 0.066473 0.0783901