ITEM: TIMESTEP
30700
ITEM: NUMBER OF ATOMS
10500
ITEM: BOX BOUNDS xy xz yz pp pp pp
0	15.2977	5.09925
0	118.725	0
0	89.688	0
ITEM: ATOMS id type element xu yu zu q Q_1 Q_2 Q_3 Q_4 Q_5 Q_6 Q_7 Q_8 Q_9 Q_10 Q_11 Q_12 Q_13 Q_14 Q_15 Q_16 Q_17 Q_18 Q_19 Q_20 Q_21
1 1 Mg 6.2404 -6.37941e-06 0 1.2 1 0.01321 0.040745 0.0296031 0.0356919 0.033531 0.0413465 0.0359953 0.068726 0.0392844 0.0710996 0.0340484 0.059392 0.046248 0.0684656 0.0498753 0.092284 0.0517444 0.0837822 0.0509234 0.103046
2 1 Mg 3.46349 4.70768 1.4948 1.2 1 0.0130529 0.0170544 0.0241833 0.0229986 0.0201257 0.0419133 0.0431071 0.0405235 0.0464576 0.0561209 0.0430973 0.0711344 0.058537 0.0702749 0.0742447 0.0634264 0.0675325 0.0864159 0.0724856 0.0828361
3 2 Si 5.2885 2.02354 1.4948 2.4 1 0.0198977 0.0222151 0.0337679 0.0285011 0.0299508 0.0374044 0.0538448 0.03265 0.04401 0.0537051 0.0545983 0.0622149 0.0551329 0.0648898 0.067868 0.0799335 0.0706768 0.0642326 0.0643288 0.0729608
4 3 O 5.33628 3.63678 1.4948 -1.2 1 0.00940672 0.0141371 0.0267185 0.0259746 0.0183852 0.0391324 0.0420577 0.060266 0.0357762 0.0402668 0.0546275 0.0509867 0.0678782 0.0577424 0.0585317 0.0647986 0.0602632 0.0613406 0.0714962 0.0742944
5 3 O 1.67294 1.04952 1.4948 -1.2 1 0.01615 0.0215725 0.0234857 0.0352817 0.0298505 0.0386901 0.0342226 0.0604609 0.0348768 0.0590709 0.0442395 0.0513519 0.0719898 0.0598096 0.0763056 0.0693305 0.0633692 0.0648966 0.0793844 0.0605175
6 3 O 4.59532 1.31737 0.196716 -1.2 1 0.0269187 0.0196192 0.0563272 0.0254864 0.0334241 0.0487977 0.0393117 0.0478523 0.0339299 0.0404821 0.0381896 0.0506434 0.0550042 0.0584699 0.0636939 0.0705501 0.0629854 0.0717325 0.0591342 0.070112
7 1 Mg 6.18956 -6.37941e-06 2.9896 1.2 1 0.0154452 0.0285798 0.0155696 0.0217569 0.0366585 0.0453267 0.0502547 0.0432055 0.0475904 0.0452519 0.0389808 0.0571276 0.0380999 0.0563648 0.0588393 0.0796382 0.0559699 0.0699173 0.0587783 0.0705596
8 3 O 4.55118 1.31737 2.79288 -1.2 1 0.0215125 0.0246101 0.037861 0.0155481 0.0280461 0.0434988 0.044418 0.0483862 0.0431327 0.0528435 0.0544596 0.0495854 0.0484223 0.0675 0.0537987 0.0692492 0.0656062 0.0662289 0.0642608 0.0718703
9 1 Mg -1.20682 0.0413099 4.4844 1.2 1 0.0168185 0.0266598 0.0211752 0.0280275 0.0385062 0.0407164 0.0329847 0.0530704 0.0533652 0.0396192 0.0498666 0.0601894 0.0684387 0.0584812 0.0755364 0.0598936 0.079058 0.0747248 0.0627793 0.0536455
10 2 Si -3.0337 2.72544 4.4844 2.4 1 0.0331804 0.0135919 0.0198014 0.0160439 0.0321427 0.0385158 0.0614566 0.0347463 0.0615249 0.049053 0.0479359 0.0603298 0.0599973 0.0769301 0.0543993 0.0593726 0.071696 0.0792847 0.0748069 0.0595131
11 3 O -3.08099 1.11221 4.4844 -1.2 1 0.0100008 0.0252654 0.0276886 0.0244648 0.0362241 0.0267983 0.0485913 0.0479465 0.0390438 0.0386851 0.0393733 0.0720074 0.0522003 0.0522073 0.0557106 0.0654375 0.0544452 0.079413 0.0736142 0.0785847
12 3 O 0.582463 3.69946 4.4844 -1.2 1 0.00587943 0.0119682 0.0306881 0.0277966 0.0269093 0.0638953 0.0307838 0.0546539 0.044576 0.0418638 0.0511746 0.0590183 0.0607902 0.0683329 0.0974963 0.0679134 0.0808758 0.040829 0.0690166 0.0690144
13 3 O -2.29524 3.43162 3.18632 -1.2 1 0.0148235 0.0193845 0.0230164 0.0317859 0.0221923 0.0499436 0.0520696 0.0513174 0.0415073 0.053577 0.0606786 0.0575145 0.0408083 0.0544606 0.0593915 0.0660764 0.0680518 0.0613775 0.0631967 0.071621
14 3 O -2.34216 3.43162 5.78248 -1.2 1 0.020815 0.0103851 0.0230064 0.0269795 0.0278204 0.0401164 0.0536605 0.0466062 0.0414295 0.0552452 0.0553044 0.0481046 0.0533788 0.0513509 0.0756586 0.070495 0.0642468 0.0703709 0.0713509 0.0723004
15 1 Mg 1.12778 2.37449 2.9896 1.2 1 0.0185487 0.0389455 0.0151594 0.0241881 0.0247244 0.0436643 0.0410339 0.0508186 0.0365 0.0615981 0.0376326 0.0604396 0.0399591 0.0680086 0.0649174 0.0699218 0.0685082 0.0799613 0.0434674 0.0879168
16 1 Mg 3.92855 2.33318 4.4844 1.2 1 0.028832 0.0154176 0.0233052 0.0308456 0.0440088 0.0255004 0.0386494 0.0372121 0.0477304 0.0688038 0.0506316 0.0612286 0.050815 0.060816 0.0531605 0.0749497 0.0619944 0.0945924 0.0735632 0.0839952
17 2 Si 2.09341 4.39804 4.4844 2.4 1 0.0180754 0.0231338 0.0315033 0.0143265 0.0423553 0.0263225 0.0623458 0.0196539 0.0444475 0.0477256 0.0632887 0.0627648 0.0683623 0.0594701 0.0717383 0.0750776 0.0713915 0.0813876 0.0541521 0.0652818
18 3 O 2.09991 6.01128 4.4844 -1.2 1 0.00975622 0.0122946 0.0179838 0.0203685 0.0328068 0.0233468 0.0509078 0.0515633 0.0474976 0.0468702 0.0470452 0.0665293 0.0454565 0.0623902 0.0644972 0.0735829 0.0446917 0.0783104 0.0614367 0.0742915
19 3 O -4.52137 3.42402 4.4844 -1.2 1 0.0214616 0.0312816 0.0385546 0.0198071 0.0273386 0.0555768 0.037092 0.0465306 0.0558157 0.0578423 0.0327418 0.0579904 0.0529711 0.0544797 0.0881673 0.0736628 0.0747547 0.0614044 0.0743282 0.0569487
20 3 O 2.80834 3.69187 3.18632 -1.2 1 0.0110066 0.0200842 0.0204523 0.0268104 0.0206747 0.0385222 0.0341773 0.0494493 0.0441829 0.0600015 0.065884 0.0525988 0.0424563 0.0639006 0.0695514 0.0720037 0.0620404 0.0580609 0.0703247 0.0703352
21 1 Mg 1.17857 2.37449 0 1.2 1 0.0139202 0.0346647 0.0281854 0.0289123 0.0386036 0.0396884 0.0454047 0.0599251 0.0366824 0.0490502 0.050855 0.0420094 0.0417718 0.0679989 0.055422 0.065091 0.0631288 0.0806253 0.0589762 0.073004
22 3 O 2.76143 3.69187 5.78248 -1.2 1 0.0075327 0.0232586 0.019905 0.0207706 0.017251 0.0343819 0.0369287 0.0475333 0.0334388 0.047995 0.0579905 0.0454064 0.0562493 0.0753958 0.0750373 0.0662501 0.0707422 0.0557694 0.0701993 0.0745771
23 1 Mg -1.67381 2.41581 1.4948 1.2 1 0.00975329 0.0104544 0.0391657 0.0350914 0.0306831 0.045326 0.0581591 0.0413942 0.0501611 0.0407743 0.0467333 0.0588583 0.0544633 0.0625702 0.0608186 0.0638633 0.0841377 0.077325 0.0665881 0.0744908
24 2 Si 0.16286 0.350945 1.4948 2.4 1 0.0160302 0.0358234 0.0278615 0.0277495 0.0341812 0.035282 0.0558579 0.0486376 0.0527538 0.0494774 0.0398143 0.0561501 0.0732988 0.0704836 0.0598305 0.0748753 0.0725278 0.0649777 0.0728038 0.0668055
25 3 O 0.15972 -1.26229 1.4948 -1.2 1 0.00917884 0.0152867 0.0396577 0.0215343 0.0375166 0.0359869 0.0454862 0.0569607 0.0470673 0.0515003 0.0559273 0.056194 0.063375 0.0661765 0.0498831 0.0596713 0.070092 0.0666452 0.0622225 0.0744769
26 3 O 6.77654 1.32496 1.4948 -1.2 1 0.0116233 0.027763 0.0266041 0.0276788 0.0372095 0.0545997 0.0340794 0.0651898 0.0476073 0.0465206 0.0441839 0.0522859 0.0526233 0.0597158 0.0685922 0.0713303 0.0843569 0.0627231 0.0600322 0.074301
27 3 O -0.508028 1.05712 0.196716 -1.2 1 0.0247422 0.0191178 0.0295395 0.0206164 0.0294352 0.0532106 0.0436906 0.0446098 0.0471975 0.0481978 0.0500757 0.0482735 0.0490757 0.0633425 0.0550924 0.063045 0.0635088 0.0589851 0.0718495 0.0714734
28 3 O -0.552171 1.05712 2.79288 -1.2 1 0.0350503 0.0250716 0.0355307 0.0324616 0.0218987 0.045356 0.0410363 0.0451397 0.0445356 0.0342737 0.0500008 0.0509331 0.0602569 0.0618468 0.0643948 0.0764099 0.0694855 0.0503188 0.0707003 0.0705591
29 1 Mg 6.31713 4.74899 0 1.2 1 0.0273019 0.0292412 0.0302568 0.0367476 0.032489 0.0265461 0.0418309 0.0558379 0.0584752 0.0494905 0.0510838 0.0382426 0.059289 0.0617308 0.0654479 0.0639482 0.065913 0.0734253 0.0694758 0.070634
30 1 Mg 3.54847 9.45668 1.4948 1.2 1 0.0171034 0.0160334 0.0172752 0.0189404 0.0186497 0.0384235 0.0383636 0.0422006 0.0449254 0.0564328 0.0376297 0.0687024 0.0528472 0.0654723 0.0746456 0.0622333 0.066859 0.0877629 0.0737193 0.0794244
31 2 Si 5.36879 6.77254 1.4948 2.4 1 0.0290356 0.0269641 0.0239336 0.0256905 0.0247236 0.0350333 0.0444102 0.0362263 0.0450023 0.0572409 0.0421712 0.0585118 0.0532004 0.0663797 0.0655129 0.074408 0.0670883 0.0789936 0.0559799 0.0685962
32 3 O 5.41937 8.38578 1.4948 -1.2 1 0.0214254 0.0113298 0.0234545 0.0296907 0.017364 0.0431059 0.0441935 0.0572497 0.0363814 0.0507983 0.0473855 0.0641666 0.0549192 0.0537578 0.0660943 0.0606919 0.0731857 0.055976 0.0732089 0.0734151
33 3 O 1.75158 5.79852 1.4948 -1.2 1 0.0284493 0.0123468 0.0225043 0.0265621 0.0440204 0.030787 0.0392488 0.0570493 0.0407421 0.052684 0.0494773 0.0510208 0.0476252 0.0707759 0.0785555 0.0787474 0.0603944 0.0749498 0.0600297 0.0766649
34 3 O 4.67421 6.06637 0.196716 -1.2 1 0.0146403 0.0264799 0.0316012 0.0244069 0.0320231 0.0377774 0.0345734 0.0321387 0.0448854 0.056086 0.039226 0.044286 0.0669488 0.0561751 0.0676561 0.0713364 0.0713942 0.0657229 0.0630431 0.0681906
35 1 Mg 6.26654 4.74899 2.9896 1.2 1 0.0219304 0.0248679 0.0236935 0.0435779 0.0256129 0.044703 0.0485499 0.04808 0.0363091 0.0626306 0.0375178 0.059379 0.0396577 0.0640637 0.0528731 0.0767609 0.0561094 0.0837108 0.0448951 0.0902842
36 3 O 4.63043 6.06637 2.79288 -1.2 1 0.018902 0.0199406 0.0417699 0.0190033 0.0318254 0.0369756 0.0431924 0.0480499 0.0453262 0.0363497 0.0489944 0.0528063 0.0573768 0.0660638 0.0622389 0.0738698 0.0655236 0.0676363 0.067083 0.0848838
37 1 Mg -1.12976 4.79031 4.4844 1.2 1 0.0221225 0.0264085 0.0154256 0.014688 0.0375156 0.0380076 0.051855 0.0490172 0.0449531 0.0438912 0.0568052 0.0596443 0.0759686 0.0670038 0.0626128 0.0659424 0.0670409 0.0989919 0.0733676 0.0809654
38 2 Si -2.9517 7.47444 4.4844 2.4 1 0.023634 0.0138779 0.0170483 0.0265622 0.0311129 0.0429031 0.062463 0.0277131 0.0548981 0.0571459 0.0518794 0.0582937 0.0634948 0.0587718 0.0793689 0.0685653 0.0532964 0.0881179 0.0564954 0.0621125
39 3 O -3.00198 5.86121 4.4844 -1.2 1 0.0119547 0.0212642 0.0281378 0.0287187 0.0326011 0.0309295 0.0535898 0.0588328 0.037354 0.0526222 0.048224 0.0717595 0.0607822 0.05717 0.0653333 0.0710573 0.0488828 0.0809962 0.063044 0.0759997
40 3 O 0.666315 8.44846 4.4844 -1.2 1 0.01962 0.0227162 0.0228659 0.0148171 0.0236428 0.0542552 0.0295706 0.0506525 0.0437324 0.0476433 0.0408878 0.0513041 0.049004 0.0735911 0.0995937 0.0669427 0.077356 0.0488653 0.0698862 0.0710439
41 3 O -2.21213 8.18062 3.18632 -1.2 1 0.0183915 0.0149512 0.0169943 0.0158277 0.0173581 0.0356222 0.0463366 0.0549686 0.0456957 0.0533978 0.0539302 0.0516949 0.0523692 0.0461421 0.0775886 0.0631328 0.0717459 0.0584244 0.0683645 0.0708182
42 3 O -2.25864 8.18062 5.78248 -1.2 1 0.0118427 0.0190411 0.0180198 0.0244833 0.0200782 0.0265706 0.0534661 0.0463269 0.0392808 0.0389536 0.0560038 0.036169 0.0584215 0.0580228 0.0845445 0.068654 0.0660201 0.0628607 0.0690176 0.0759879
43 1 Mg 1.20893 7.12349 2.9896 1.2 1 0.00773385 0.0223595 0.0190881 0.0248869 0.0239035 0.0396807 0.0424014 0.0467893 0.0339731 0.0655349 0.0399248 0.0665681 0.0366597 0.0586864 0.0521449 0.0794379 0.050996 0.0844168 0.0472427 0.0873559
44 1 Mg 4.00982 7.08218 4.4844 1.2 1 0.0221965 0.0156759 0.0236635 0.0351961 0.0306206 0.0361389 0.0443606 0.0372402 0.0466803 0.0512121 0.0586487 0.0551732 0.0723259 0.0717282 0.0575691 0.0678581 0.0632767 0.098138 0.0741467 0.0845338
45 2 Si 2.17861 9.14704 4.4844 2.4 1 0.0288107 0.0134006 0.0223831 0.0213678 0.0303562 0.0326949 0.0622408 0.0241913 0.0503685 0.0581389 0.0548038 0.0577459 0.0648343 0.056957 0.0806435 0.0685366 0.0513043 0.091997 0.0555139 0.0570766
46 3 O 2.18828 10.7603 4.4844 -1.2 1 0.0207644 0.0126062 0.00516797 0.0197315 0.0257089 0.0246705 0.0427251 0.0612882 0.0417266 0.0530768 0.0412857 0.0720239 0.045696 0.0652444 0.0707772 0.0717331 0.0471997 0.0718863 0.0625165 0.0743415
47 3 O -4.43805 8.17302 4.4844 -1.2 1 0.0172162 0.0222044 0.0170636 0.0153878 0.022458 0.0523854 0.0384195 0.0473364 0.0457567 0.0511215 0.0340418 0.0539395 0.0524261 0.0723669 0.0983108 0.068704 0.0778433 0.0518351 0.0736636 0.0753678
48 3 O 2.89193 8.44087 3.18632 -1.2 1 0.0176364 0.0198931 0.01764 0.017447 0.0226348 0.0400312 0.0362387 0.0544973 0.0450607 0.0502064 0.0590539 0.050014 0.0522336 0.0522827 0.0808778 0.0641165 0.071211 0.0585475 0.0662533 0.0726136
49 1 Mg 1.25915 7.12349 0 1.2 1 0.0200378 0.0153397 0.0248616 0.0148195 0.0321007 0.0256421 0.0523889 0.0403551 0.0555494 0.0500351 0.0524409 0.0426093 0.0718886 0.0512063 0.067202 0.0711272 0.0654667 0.0706766 0.0814397 0.058052
50 3 O 2.84547 8.44087 5.78248 -1.2 1 0.0103189 0.0143791 0.014528 0.0216012 0.0239258 0.0270047 0.0471038 0.0465225 0.0400785 0.0407367 0.0601987 0.0419063 0.0608685 0.0617615 0.0895924 0.0644588 0.0727299 0.0650717 0.0655533 0.0757471
51 1 Mg -1.59284 7.16481 1.4948 1.2 1 0.0080661 0.0229917 0.0197081 0.0236056 0.0164 0.0377728 0.0473297 0.0434313 0.0440262 0.0567571 0.0377043 0.0659457 0.0543297 0.0695981 0.0772215 0.0609036 0.0655698 0.0840918 0.0750174 0.0789823
52 2 Si 0.240329 5.09994 1.4948 2.4 1 0.0246426 0.0173526 0.0159127 0.0433894 0.0272061 0.0404735 0.0467678 0.0533298 0.0551135 0.0487274 0.0455629 0.0576548 0.0590421 0.0679506 0.0655943 0.0663951 0.0639126 0.0728591 0.0662467 0.0679998
53 3 O 0.234538 3.48671 1.4948 -1.2 1 0.0131156 0.0161891 0.0266221 0.035721 0.0316094 0.0494052 0.0459484 0.0423184 0.0528822 0.0461022 0.0526984 0.0616099 0.056782 0.0604504 0.0622447 0.0626958 0.0632285 0.057404 0.0758666 0.0733659
54 3 O 6.85564 6.07396 1.4948 -1.2 1 0.0324865 0.0195042 0.034527 0.027598 0.0372451 0.0403651 0.03236 0.0626207 0.0364607 0.0532975 0.0538715 0.0535097 0.0551005 0.0733242 0.0697942 0.076847 0.0664246 0.0722622 0.0530576 0.0850531
55 3 O -0.429565 5.80612 0.196716 -1.2 1 0.0340769 0.0200694 0.0159251 0.0212142 0.0409792 0.0374303 0.0538626 0.0450404 0.0460619 0.0562051 0.039791 0.0419532 0.0534205 0.0601087 0.0599572 0.0681889 0.0703454 0.0610866 0.065235 0.0741183
56 3 O -0.473377 5.80612 2.79288 -1.2 1 0.0246614 0.0211614 0.0336331 0.0183069 0.0346649 0.0464021 0.0495811 0.0485628 0.0545015 0.0452116 0.0627551 0.0380874 0.0434196 0.0593995 0.0665279 0.0719694 0.0644855 0.068523 0.0701176 0.0815227
57 1 Mg 6.40169 9.49799 0 1.2 1 0.012701 0.0119737 0.0212576 0.0144786 0.030474 0.0213502 0.0519637 0.0354579 0.0584657 0.049303 0.0498143 0.0353516 0.0671147 0.0525392 0.0706707 0.0671992 0.0653665 0.0703797 0.0813773 0.068399
58 1 Mg 3.64209 14.2057 1.4948 1.2 1 0.0105569 0.0109679 0.0181212 0.0165046 0.0216102 0.0336435 0.0360352 0.0435812 0.0411629 0.0555996 0.0391003 0.0664422 0.0534166 0.0663335 0.0739332 0.0635171 0.0648557 0.0824572 0.0745153 0.0785674
59 2 Si 5.45748 11.5215 1.4948 2.4 1 0.010588 0.0233899 0.0214929 0.025013 0.0175556 0.0404706 0.0401088 0.0384334 0.0444311 0.0559055 0.0425905 0.0592612 0.0525611 0.0674568 0.0692966 0.0642598 0.0713453 0.0810126 0.0590401 0.0664811
60 3 O 5.51101 13.1348 1.4948 -1.2 1 0.0240971 0.0134505 0.0222835 0.0293936 0.0200122 0.0434286 0.044498 0.0591285 0.0366186 0.0496993 0.0429646 0.06769 0.0532645 0.0528163 0.0654573 0.060911 0.0705417 0.0577578 0.0695804 0.0719839
61 3 O 1.83851 10.5475 1.4948 -1.2 1 0.0351668 0.0140113 0.021522 0.0138665 0.0363011 0.0303883 0.0365152 0.0588801 0.0399632 0.0484505 0.0499235 0.0514348 0.0469375 0.0748526 0.0755359 0.0801009 0.056632 0.0760253 0.0576584 0.0789128
62 3 O 4.7611 10.8154 0.196716 -1.2 1 0.0357477 0.0192974 0.0198588 0.0181376 0.0267679 0.0441694 0.0482478 0.0374592 0.0388328 0.0491766 0.036904 0.0410972 0.0608887 0.0607705 0.0649097 0.0715102 0.0752414 0.0657218 0.0728037 0.0676133
63 1 Mg 6.35203 9.49799 2.9896 1.2 1 0.0147461 0.0162866 0.021114 0.0214601 0.0187199 0.0376808 0.0369765 0.049752 0.0356719 0.0594562 0.0334652 0.0649678 0.0272896 0.0664489 0.0460001 0.0791344 0.0427776 0.0904652 0.0464431 0.0918186
64 3 O 4.71833 10.8154 2.79288 -1.2 1 0.0295589 0.00961467 0.0291801 0.0148218 0.0293203 0.0445707 0.0437973 0.0452197 0.0428943 0.0368908 0.0534376 0.0423181 0.0525085 0.0566881 0.07303 0.0674884 0.0714117 0.0609058 0.0702432 0.0799505
65 1 Mg -1.0438 9.53931 4.4844 1.2 1 0.0123145 0.018611 0.0181434 0.0251963 0.0250315 0.0327645 0.0338975 0.0351091 0.046287 0.0493194 0.054184 0.0566684 0.0643313 0.0702802 0.0562192 0.0698577 0.0721796 0.0992332 0.0694325 0.0839105
66 2 Si -2.8604 12.2234 4.4844 2.4 1 0.0191014 0.0127351 0.0149689 0.0264333 0.0330909 0.0399355 0.0604726 0.0291237 0.0536883 0.0635345 0.0546451 0.0633957 0.0612956 0.0542567 0.079112 0.0717179 0.0516882 0.0894178 0.0539944 0.0651259
67 3 O -2.91391 10.6102 4.4844 -1.2 1 0.0197372 0.0105703 0.0124184 0.0228915 0.0284596 0.022392 0.0465734 0.0646959 0.0405877 0.0504521 0.0359634 0.0705819 0.0448251 0.0579916 0.0654334 0.0702202 0.0486939 0.0733613 0.0601825 0.0754279
68 3 O 0.7596 13.1975 4.4844 -1.2 1 0.0259851 0.026161 0.0196111 0.0133654 0.0235797 0.0505285 0.0341356 0.0491804 0.0453215 0.0500846 0.0401589 0.0491501 0.0489842 0.0720395 0.0988348 0.063734 0.0762484 0.0546617 0.0730957 0.073387
69 3 O -2.12001 12.9296 3.18632 -1.2 1 0.0236352 0.0104496 0.0209916 0.0176971 0.0198246 0.0358677 0.0403533 0.0529165 0.0440904 0.0540622 0.0522224 0.0506352 0.055112 0.0472898 0.0802554 0.0624069 0.0726893 0.0636679 0.0673922 0.0694501
70 3 O -2.16532 12.9296 5.78248 -1.2 1 0.0179018 0.00874046 0.0214891 0.0237613 0.0148826 0.0274101 0.0508872 0.0438075 0.0385554 0.0375342 0.0561957 0.0358482 0.0569921 0.0569319 0.0822235 0.0689 0.0689031 0.0635931 0.0696676 0.0770656
71 1 Mg 1.29891 11.8725 2.9896 1.2 1 0.00727977 0.0157699 0.0221141 0.0222704 0.0170352 0.0386326 0.0358713 0.0509339 0.0351305 0.0599124 0.0340241 0.0584953 0.025987 0.0679391 0.0491337 0.0824228 0.0497887 0.0898211 0.0466607 0.086349
72 1 Mg 4.10033 11.8312 4.4844 1.2 1 0.0110401 0.0167986 0.0151362 0.0221884 0.0293801 0.0323686 0.0396008 0.0337127 0.0490174 0.051285 0.0544179 0.053954 0.0677684 0.0684234 0.0545873 0.0705004 0.0689946 0.100034 0.0727504 0.0809986
73 2 Si 2.27333 13.896 4.4844 2.4 1 0.0251276 0.0103809 0.0260705 0.0232059 0.0269926 0.0357317 0.06286 0.0285986 0.054287 0.058837 0.0546638 0.0582085 0.0635166 0.0553598 0.0769232 0.0677797 0.047057 0.0956536 0.0554139 0.0571184
74 3 O 2.28634 15.5093 4.4844 -1.2 1 0.0226251 0.0140206 0.00959126 0.0189245 0.0251524 0.0216449 0.0435237 0.0600652 0.0448741 0.0531383 0.0407522 0.0710533 0.0444065 0.0639551 0.0687766 0.0705737 0.0477963 0.0686687 0.0622413 0.0760509
75 3 O -4.34533 12.922 4.4844 -1.2 1 0.0251203 0.0213367 0.0206082 0.0150124 0.0216879 0.0509451 0.0361753 0.0491581 0.0436334 0.0523634 0.0385642 0.0520639 0.0493345 0.0712133 0.0994848 0.0660968 0.0774955 0.0532037 0.0738282 0.0732132
76 3 O 2.98455 13.1899 3.18632 -1.2 1 0.0252928 0.0107787 0.0183315 0.0115937 0.0187299 0.0393791 0.0381108 0.0574827 0.0424532 0.0556466 0.0554409 0.0499218 0.0513793 0.0507827 0.0809773 0.0611058 0.0678765 0.0603142 0.0644936 0.0715356
77 1 Mg 1.34779 11.8725 0 1.2 1 0.0217777 0.00926113 0.021888 0.0147377 0.028807 0.0224803 0.0516151 0.0345548 0.0575704 0.0508909 0.0497441 0.035379 0.0650733 0.0500691 0.07065 0.0642771 0.0616102 0.0700856 0.0872299 0.0598981
78 3 O 2.93934 13.1899 5.78248 -1.2 1 0.0135379 0.0130149 0.020403 0.0214132 0.0205722 0.0266262 0.0487265 0.0497173 0.0420413 0.040731 0.0582232 0.0390444 0.0595405 0.0620672 0.0863275 0.0640441 0.0727821 0.062323 0.0647328 0.0779035
79 1 Mg -1.50344 11.9138 1.4948 1.2 1 0.0129459 0.0179407 0.0228409 0.0203289 0.0117552 0.036962 0.0383911 0.0424349 0.0413623 0.0598002 0.0354714 0.0653899 0.0505026 0.0648077 0.0743045 0.0682199 0.063765 0.0839298 0.0765425 0.0787375
80 2 Si 0.326006 9.84894 1.4948 2.4 1 0.0280806 0.0177637 0.0270171 0.029538 0.0169617 0.0380838 0.0434505 0.039985 0.044066 0.0551492 0.0395255 0.0602612 0.0555144 0.0664351 0.0608514 0.0627022 0.0700933 0.0802078 0.0615887 0.0685788
81 3 O 0.317364 8.23571 1.4948 -1.2 1 0.0224023 0.0125667 0.0226339 0.0239092 0.0203314 0.0452724 0.0428336 0.0499343 0.0347349 0.0543445 0.0442108 0.0658143 0.0573261 0.0596614 0.0679704 0.0665537 0.0714457 0.0533914 0.0735839 0.0740347
82 3 O 6.94307 10.823 1.4948 -1.2 1 0.0312017 0.0149154 0.0220536 0.0118091 0.0373615 0.0330873 0.0381267 0.0575873 0.0348733 0.0477576 0.0514401 0.0522362 0.0499519 0.0748866 0.0725895 0.079877 0.0617112 0.0727835 0.0580563 0.0805761
83 3 O -0.343122 10.5551 0.196716 -1.2 1 0.026938 0.0180294 0.0217695 0.021134 0.0313285 0.0417933 0.0500012 0.0391216 0.0375257 0.0481952 0.0383131 0.0362959 0.060232 0.0606722 0.0685067 0.0698783 0.0821396 0.0534378 0.0702201 0.0701588
84 3 O -0.385966 10.5551 2.79288 -1.2 1 0.0262318 0.0163189 0.0308003 0.012238 0.0336064 0.0424947 0.0448773 0.046504 0.0429526 0.0398653 0.0530485 0.0484103 0.0487492 0.0532582 0.0693319 0.06982 0.0660948 0.0611872 0.0678201 0.0802448
85 1 Mg 6.49448 14.247 0 1.2 1 0.022685 0.00989189 0.018642 0.01697 0.0285889 0.0229977 0.047497 0.03308 0.0593823 0.0478439 0.0515195 0.0371186 0.0627287 0.0528821 0.0708848 0.0655965 0.0641726 0.0709146 0.0848888 0.0706114
86 1 Mg 3.74457 18.9547 1.4948 1.2 1 0.0192971 0.00898437 0.0159444 0.0181347 0.0250296 0.0294568 0.0313333 0.0392221 0.0380918 0.0570558 0.0446075 0.0666695 0.0507938 0.0658856 0.0674314 0.0708805 0.0632837 0.0827657 0.0790008 0.0761662
87 2 Si 5.55495 16.2705 1.4948 2.4 1 0.012013 0.0201709 0.0219798 0.0269583 0.0184634 0.0426669 0.0365147 0.0420113 0.0452402 0.0517584 0.0437051 0.061084 0.0543913 0.063909 0.0696214 0.0593167 0.0728435 0.0796586 0.0605066 0.0711259
88 3 O 5.6115 17.8838 1.4948 -1.2 1 0.0268785 0.0182591 0.0233244 0.0257446 0.0190937 0.0435462 0.0453598 0.0608484 0.037396 0.0498181 0.0381875 0.0670592 0.051427 0.0560528 0.0643848 0.0571325 0.0659414 0.061609 0.0633195 0.0691079
89 3 O 1.93416 15.2965 1.4948 -1.2 1 0.0414391 0.0162603 0.0198517 0.00982199 0.0350541 0.0308654 0.0368076 0.0575729 0.0416935 0.0462447 0.04906 0.0507229 0.047882 0.0735173 0.0805901 0.076669 0.0598311 0.0738507 0.0625583 0.0772167
90 3 O 4.85636 15.5644 0.196716 -1.2 1 0.0260616 0.0109141 0.0222992 0.0195669 0.0236958 0.0514738 0.0506132 0.0401275 0.0409583 0.0465671 0.0365638 0.0336732 0.0639466 0.0545493 0.0672238 0.0682553 0.0748077 0.0633182 0.0719495 0.0676555
91 1 Mg 6.44662 14.247 2.9896 1.2 1 0.0110258 0.0171895 0.0228094 0.0237349 0.0188801 0.0360961 0.0378467 0.0528612 0.0363531 0.0573188 0.033496 0.0642474 0.0228817 0.0670776 0.0453688 0.077357 0.0451957 0.0918409 0.0450082 0.0924114
92 3 O 4.81537 15.5644 2.79288 -1.2 1 0.0182973 0.00736842 0.027032 0.0136855 0.0276474 0.039036 0.0464557 0.0478775 0.0450048 0.0388014 0.0512792 0.0419786 0.0516745 0.0568243 0.0739943 0.0663393 0.0748808 0.0547889 0.0721744 0.0758717
93 1 Mg -0.948271 14.2883 4.4844 1.2 1 0.0125502 0.0146031 0.0156931 0.0252477 0.027261 0.0274779 0.0352499 0.0365759 0.0456245 0.0498982 0.0616069 0.054911 0.0673811 0.0657784 0.0577612 0.0704329 0.07254 0.0912876 0.0726564 0.0828248
94 2 Si -2.75928 16.9724 4.4844 2.4 1 0.0230326 0.0169777 0.0200184 0.0254012 0.0297705 0.0388715 0.0576351 0.0314607 0.0530247 0.0654687 0.0531272 0.0625308 0.0581622 0.0544975 0.0761468 0.0730374 0.0500604 0.0918197 0.0547531 0.0629668
95 3 O -2.81617 15.3592 4.4844 -1.2 1 0.0185149 0.0167168 0.011034 0.0251315 0.0291853 0.0231724 0.0427551 0.0630465 0.0425964 0.0501474 0.0365249 0.072018 0.0488366 0.0579423 0.0676548 0.0678755 0.050382 0.0726386 0.0624518 0.0758926
96 3 O 0.862762 17.9465 4.4844 -1.2 1 0.0171104 0.024224 0.0205471 0.0161121 0.0222282 0.0465611 0.0343429 0.0538739 0.0480033 0.0527607 0.0396146 0.0481837 0.0432029 0.0709983 0.105018 0.0556982 0.0720469 0.0508195 0.0724591 0.0697769
97 3 O -2.0185 17.6786 3.18632 -1.2 1 0.0249104 0.0110146 0.0185049 0.017913 0.0183262 0.0358462 0.0414502 0.0532851 0.0417312 0.054064 0.0518539 0.0507077 0.0551669 0.0477063 0.0815025 0.0588196 0.0694438 0.065587 0.0656488 0.0687084
98 3 O -2.06164 17.6786 5.78248 -1.2 1 0.0151658 0.00810289 0.0212768 0.0213628 0.0163238 0.0251439 0.0521032 0.0424982 0.040859 0.038745 0.0558124 0.0397647 0.0544495 0.0617625 0.0808907 0.0645479 0.0680633 0.0633518 0.0716098 0.0758409
99 1 Mg 1.39817 16.6215 2.9896 1.2 1 0.00649716 0.0164726 0.0197275 0.0229374 0.0180859 0.0354706 0.0369515 0.0530652 0.0370037 0.0591297 0.0362534 0.0572152 0.0235353 0.0669379 0.0469854 0.080006 0.0486916 0.0915482 0.0452345 0.0886885
100 1 Mg 4.20062 16.5802 4.4844 1.2 1 0.0163042 0.013613 0.0172614 0.0283069 0.024019 0.0294237 0.0446354 0.0338191 0.0473603 0.0516201 0.0561945 0.0527647 0.0666284 0.0683563 0.050518 0.0731315 0.0690128 0.0946073 0.0729775 0.0808468
101 2 Si 2.37796 18.645 4.4844 2.4 1 0.0224707 0.0142429 0.0224678 0.0249585 0.0259409 0.0352107 0.0615689 0.0301038 0.0550923 0.0616155 0.0505477 0.0576324 0.0619986 0.0561208 0.0755016 0.069142 0.0462547 0.0983191 0.0555336 0.0556464
102 3 O 2.39434 20.2583 4.4844 -1.2 1 0.0230272 0.0148608 0.00682998 0.0181992 0.0228877 0.0226802 0.041253 0.0587006 0.0436453 0.0500453 0.0404764 0.07286 0.0487101 0.0617138 0.0713927 0.0698359 0.050258 0.0677733 0.0663342 0.0792085
103 3 O -4.24274 17.671 4.4844 -1.2 1 0.0222569 0.0214003 0.0218951 0.0155342 0.0216294 0.0475546 0.034015 0.0507763 0.0433934 0.0525501 0.0363956 0.0503076 0.0488834 0.0701103 0.101006 0.062623 0.0777848 0.0534788 0.07567 0.0729554
104 3 O 3.08659 17.9389 3.18632 -1.2 1 0.0254333 0.0145629 0.0208126 0.0114578 0.0186518 0.0403384 0.037938 0.056328 0.0460318 0.0501399 0.0573175 0.048081 0.0522829 0.0515524 0.0802329 0.0595488 0.066915 0.0604954 0.0623008 0.0688266
105 1 Mg 1.44478 16.6215 0 1.2 1 0.00955067 0.0120843 0.0217518 0.0128687 0.0267664 0.0317314 0.0478445 0.0354063 0.0505731 0.0504977 0.0516537 0.0397619 0.0588398 0.0493737 0.0697656 0.0661238 0.060061 0.0678635 0.0887226 0.0640574
106 3 O 3.0436 17.9389 5.78248 -1.2 1 0.0187663 0.014307 0.0177737 0.0207442 0.0182218 0.0239091 0.049577 0.0461138 0.041197 0.0377109 0.0590216 0.0367948 0.05556 0.0587295 0.0865575 0.0647196 0.0697268 0.0600479 0.0670772 0.0806269
107 1 Mg -1.40524 16.6628 1.4948 1.2 1 0.00681713 0.015298 0.02596 0.0193764 0.0181804 0.0352028 0.0364342 0.0419473 0.0405549 0.0599192 0.040019 0.0646158 0.0557066 0.0648102 0.0745681 0.0695777 0.0636138 0.0786053 0.0792784 0.0756916
108 2 Si 0.420358 14.5979 1.4948 2.4 1 0.0225757 0.0194384 0.0289307 0.0259018 0.0174954 0.038671 0.0389699 0.0417476 0.0439978 0.0548694 0.0426923 0.0613752 0.0579996 0.0636739 0.0672484 0.0588434 0.0725129 0.0768757 0.063034 0.071531
109 3 O 0.408732 12.9847 1.4948 -1.2 1 0.0222024 0.0154763 0.0228914 0.0255849 0.0168348 0.04714 0.043745 0.0539335 0.0361807 0.0529245 0.0422337 0.0692212 0.0531091 0.0568753 0.0658847 0.0637185 0.0712935 0.05501 0.0683922 0.0718521
110 3 O 7.03923 15.572 1.4948 -1.2 1 0.0293013 0.0168911 0.0217392 0.0128416 0.0361752 0.0337769 0.0368195 0.0560315 0.0383156 0.0441543 0.0512843 0.0527446 0.0480005 0.0748003 0.0780595 0.0782134 0.0645649 0.0697228 0.0621414 0.0781242
111 3 O -0.248332 15.3041 0.196716 -1.2 1 0.0189227 0.0129036 0.0211305 0.0183435 0.025213 0.0464986 0.0488738 0.0430837 0.0390563 0.0446818 0.0380501 0.0306168 0.0607265 0.05433 0.0699788 0.0643038 0.0833525 0.0502669 0.0705498 0.0724561
112 3 O -0.289436 15.3041 2.79288 -1.2 1 0.0181458 0.0151699 0.0276721 0.0107813 0.0320096 0.0363873 0.043971 0.0478643 0.0437464 0.0404584 0.0543449 0.048896 0.0511917 0.0524566 0.0720478 0.0682012 0.070635 0.0542219 0.069451 0.0771955
113 1 Mg 6.59566 18.996 0 1.2 1 0.0138228 0.011604 0.0198053 0.014406 0.0259758 0.0315381 0.0431188 0.0330216 0.054066 0.0492957 0.0542253 0.0389179 0.0519678 0.0525006 0.0720003 0.0643513 0.0642929 0.0647557 0.086355 0.0703624
114 1 Mg 3.85574 23.7037 1.4948 1.2 1 0.01061 0.0128497 0.0210938 0.0140206 0.0225251 0.0288669 0.031325 0.0372206 0.0390562 0.0601111 0.0468663 0.0624309 0.0502418 0.0668449 0.0647443 0.0721368 0.0664554 0.0797113 0.0797863 0.0757489
115 2 Si 5.66125 21.0195 1.4948 2.4 1 0.00857827 0.0228298 0.024735 0.0274571 0.0200142 0.0457927 0.0338109 0.0433583 0.047354 0.0539823 0.0443816 0.061696 0.0556767 0.0597456 0.0708016 0.0606953 0.073399 0.0773872 0.0649042 0.0754426
116 3 O 5.72074 22.6328 1.4948 -1.2 1 0.0282511 0.0191281 0.0182904 0.0226702 0.0191806 0.0446405 0.0455925 0.061824 0.0383583 0.0519802 0.033047 0.069883 0.0494815 0.0534911 0.0681713 0.0560369 0.0649988 0.067881 0.056404 0.0711866
117 3 O 2.03867 20.0455 1.4948 -1.2 1 0.0343624 0.0168315 0.0257706 0.0130701 0.0339509 0.0311266 0.0363849 0.0539394 0.0428092 0.0421047 0.0508546 0.0506555 0.048475 0.073355 0.0845012 0.071799 0.0627293 0.0676657 0.0643684 0.0724956
118 3 O 4.96004 20.3134 0.196716 -1.2 1 0.0242327 0.0103215 0.0243594 0.0198075 0.0223552 0.0456549 0.0450938 0.0479785 0.0403161 0.0419952 0.0405073 0.0350904 0.0652509 0.0475761 0.0696732 0.0735985 0.0701515 0.0584126 0.0708174 0.0716875
119 1 Mg 6.55057 18.996 2.9896 1.2 1 0.00924709 0.0173636 0.0203681 0.0216353 0.021168 0.0341571 0.0375896 0.0547335 0.0346195 0.059938 0.0342254 0.0620598 0.0224399 0.0696624 0.0454411 0.0735007 0.0457039 0.0947285 0.0433157 0.0938723
120 3 O 4.92172 20.3134 2.79288 -1.2 1 0.00953593 0.0130375 0.0287007 0.0145777 0.0313902 0.0379979 0.0459182 0.0467517 0.0452444 0.0443285 0.0523148 0.0421638 0.0534109 0.0517359 0.0763742 0.0680513 0.0758734 0.0473071 0.0707723 0.0720737
121 1 Mg -0.84282 19.0373 4.4844 1.2 1 0.0171357 0.0140664 0.0120428 0.0256628 0.0247415 0.0276047 0.0379853 0.0345585 0.044403 0.0502825 0.0610477 0.0572348 0.0681514 0.0716203 0.0597635 0.0729639 0.0714125 0.0932513 0.0708831 0.0855489
122 2 Si -2.64823 21.7214 4.4844 2.4 1 0.017281 0.0141834 0.0190759 0.0295486 0.0285571 0.0403873 0.0584423 0.0311209 0.0557051 0.0641201 0.0522859 0.0631739 0.0584881 0.0534493 0.0765626 0.0723756 0.0461666 0.0924083 0.0542063 0.0658357
123 3 O -2.70847 20.1082 4.4844 -1.2 1 0.0125049 0.0169368 0.0161224 0.0257554 0.0269687 0.0237697 0.0417725 0.0641548 0.0448512 0.049258 0.0391974 0.071877 0.0510855 0.0575816 0.0681562 0.0647877 0.0508296 0.0722252 0.0644453 0.0766209
124 3 O 0.97581 22.6955 4.4844 -1.2 1 0.0152085 0.0219256 0.020865 0.0184053 0.0198769 0.0419849 0.0311147 0.0512775 0.0448486 0.0555977 0.0390998 0.0467233 0.0461047 0.0715686 0.109047 0.0526095 0.0694742 0.0532212 0.074413 0.0671049
125 3 O -1.9076 22.4276 3.18632 -1.2 1 0.0218853 0.0078502 0.0211442 0.0170863 0.0139067 0.037053 0.0438658 0.0558484 0.0379298 0.0501046 0.053999 0.0494604 0.0561852 0.0475054 0.081404 0.0571611 0.0687012 0.0654073 0.0640573 0.0649894
126 3 O -1.9475 22.4276 5.78248 -1.2 1 0.0180622 0.0104026 0.0188512 0.0192811 0.0158052 0.0272741 0.0513863 0.0439896 0.0412172 0.0363424 0.0566398 0.0378653 0.054487 0.0616523 0.0825901 0.0647996 0.0673839 0.0636795 0.0695567 0.0762739