ITEM: TIMESTEP
17600
ITEM: NUMBER OF ATOMS
10500
ITEM: BOX BOUNDS xy xz yz pp pp pp
0	15.2977	5.09925
0	118.725	0
0	89.688	0
ITEM: ATOMS id type element xu yu zu q Q_1 Q_2 Q_3 Q_4 Q_5 Q_6 Q_7 Q_8 Q_9 Q_10 Q_11 Q_12 Q_13 Q_14 Q_15 Q_16 Q_17 Q_18 Q_19 Q_20 Q_21
1 1 Mg 6.2404 -6.37941e-06 0 1.2 1 0.0132957 0.0407791 0.0296622 0.0357637 0.0334 0.0412692 0.035737 0.0686026 0.0390677 0.0712461 0.0340175 0.0593908 0.0461227 0.0681992 0.0496501 0.0924669 0.0515521 0.0840213 0.0511875 0.10244
2 1 Mg 3.46349 4.70768 1.4948 1.2 1 0.0129478 0.0172105 0.0241603 0.0231706 0.0200327 0.041977 0.0434565 0.0399802 0.0463558 0.0564048 0.0427828 0.0704094 0.0581988 0.0709527 0.0745667 0.0633461 0.0680198 0.0861947 0.0725151 0.082438
3 2 Si 5.2885 2.02354 1.4948 2.4 1 0.0170666 0.0231565 0.0317466 0.0266395 0.030855 0.0376441 0.0549785 0.0315997 0.0431383 0.0540172 0.0526648 0.0611892 0.0555656 0.0650312 0.0677807 0.0790944 0.0700315 0.0643407 0.0651653 0.072271
4 3 O 5.33628 3.63678 1.4948 -1.2 1 0.00940081 0.01412 0.0267374 0.0259515 0.018476 0.039115 0.041967 0.0601589 0.0354738 0.0398725 0.0547556 0.0509147 0.067936 0.0577373 0.0591376 0.0646392 0.0605812 0.0614687 0.0711732 0.0746074
5 3 O 1.67294 1.04952 1.4948 -1.2 1 0.0161962 0.0216821 0.0233496 0.035622 0.0299374 0.0386045 0.0342089 0.0607605 0.0348858 0.0592074 0.0440906 0.0511688 0.0718347 0.0594643 0.0765105 0.0696609 0.0629557 0.0643129 0.079605 0.0604505
6 3 O 4.59532 1.31737 0.196716 -1.2 1 0.0259067 0.0221802 0.0575653 0.0252441 0.0334168 0.0486345 0.0385491 0.0472727 0.0339873 0.0393741 0.038732 0.0507171 0.0543161 0.0568683 0.063769 0.0699332 0.0619118 0.0714378 0.0592788 0.0705123
7 1 Mg 6.18956 -6.37941e-06 2.9896 1.2 1 0.0153499 0.02844 0.0154918 0.0218933 0.0360873 0.0451485 0.0503498 0.0425605 0.0475036 0.0448735 0.0383493 0.0559998 0.0389506 0.0558624 0.0592055 0.0797485 0.0573498 0.0701546 0.0592149 0.0702375
8 3 O 4.55118 1.31737 2.79288 -1.2 1 0.0241372 0.0257908 0.0405599 0.0168885 0.0283813 0.0442457 0.0440067 0.0482687 0.0432473 0.0540402 0.0530715 0.0487732 0.0490822 0.0668357 0.0536974 0.0706005 0.0643891 0.0669852 0.0641189 0.0716868
9 1 Mg -1.20682 0.0413099 4.4844 1.2 1 0.0139894 0.0246606 0.0205785 0.0272557 0.0364873 0.0398205 0.0320903 0.0522791 0.0535328 0.0396797 0.0496384 0.0609184 0.0666477 0.0584876 0.0782715 0.0614021 0.0796708 0.07383 0.0645452 0.0521842
10 2 Si -3.0337 2.72544 4.4844 2.4 1 0.0307321 0.0122676 0.0213875 0.0176331 0.0322321 0.0348836 0.0614673 0.0347012 0.0617858 0.0508104 0.0465434 0.0604575 0.0589061 0.075331 0.0557554 0.061871 0.070696 0.0804018 0.0729421 0.0587365
11 3 O -3.08099 1.11221 4.4844 -1.2 1 0.0145699 0.0222486 0.0285656 0.024804 0.039031 0.0282903 0.04914 0.0494898 0.0394463 0.0395929 0.0375442 0.0725868 0.0540203 0.0533214 0.0557977 0.0694357 0.0527674 0.0784753 0.0708464 0.0786539
12 3 O 0.582463 3.69946 4.4844 -1.2 1 0.0042778 0.0150137 0.0294898 0.0282532 0.0259377 0.0635495 0.0308046 0.0544401 0.0463867 0.0397965 0.0509284 0.0559765 0.0609847 0.0708985 0.0998687 0.069342 0.0798815 0.0395304 0.0702403 0.0676719
13 3 O -2.29524 3.43162 3.18632 -1.2 1 0.0125238 0.020446 0.0258999 0.0307753 0.0201573 0.0503307 0.051384 0.0496317 0.040856 0.0532424 0.0595158 0.0548946 0.0402362 0.0524279 0.0584607 0.0647441 0.0667914 0.0623471 0.0639949 0.0735079
14 3 O -2.34216 3.43162 5.78248 -1.2 1 0.0148732 0.0103339 0.0247925 0.0285797 0.0275518 0.0403182 0.0562782 0.0454064 0.0364974 0.0554652 0.0567505 0.0469118 0.0565547 0.0537574 0.0761017 0.072363 0.0632954 0.0707138 0.0719272 0.0721161
15 1 Mg 1.12778 2.37449 2.9896 1.2 1 0.0155314 0.0401812 0.0167709 0.0238477 0.0256931 0.0424848 0.0412478 0.0503656 0.0370645 0.060888 0.0379643 0.0594366 0.0405119 0.0671528 0.0633204 0.0701297 0.06839 0.0826958 0.0465622 0.0873056
16 1 Mg 3.92855 2.33318 4.4844 1.2 1 0.0278418 0.0157973 0.0236894 0.0300598 0.0441477 0.0264434 0.0373285 0.0380948 0.0476628 0.0677259 0.0505439 0.0597841 0.0506047 0.0609778 0.0551466 0.0733297 0.0623631 0.0954407 0.0730265 0.0848224
17 2 Si 2.09341 4.39804 4.4844 2.4 1 0.0137713 0.0202345 0.0333062 0.0152995 0.0414895 0.0271295 0.0641106 0.0204517 0.0440494 0.0480509 0.0626143 0.062206 0.0671281 0.059891 0.0725032 0.0757951 0.0715432 0.0818132 0.0508939 0.065056
18 3 O 2.09991 6.01128 4.4844 -1.2 1 0.00990575 0.0116296 0.0176822 0.0191242 0.034069 0.023206 0.0521432 0.0504788 0.0473616 0.0463107 0.0474272 0.0660259 0.0458181 0.060063 0.0663809 0.0724777 0.047395 0.0788428 0.0600839 0.0709875
19 3 O -4.52137 3.42402 4.4844 -1.2 1 0.017487 0.031867 0.037823 0.0213711 0.0281761 0.0560886 0.0400294 0.0472159 0.0555648 0.0594306 0.0330246 0.0573553 0.054322 0.0557373 0.0899862 0.0732342 0.0766885 0.0603204 0.0734449 0.0559395
20 3 O 2.80834 3.69187 3.18632 -1.2 1 0.00935386 0.0178571 0.0208726 0.025 0.0220142 0.0389904 0.0364363 0.0506758 0.0444797 0.0590334 0.0670017 0.0515507 0.0429842 0.064742 0.0706725 0.0722214 0.0620486 0.0581953 0.0699009 0.0705251
21 1 Mg 1.17857 2.37449 0 1.2 1 0.0150113 0.034576 0.0287912 0.0279658 0.0377162 0.0381785 0.0435593 0.0589811 0.0361113 0.0494618 0.0510097 0.0419129 0.0423008 0.0675264 0.0563743 0.0642 0.06127 0.0805035 0.0584958 0.0734086
22 3 O 2.76143 3.69187 5.78248 -1.2 1 0.0078699 0.0251692 0.0182987 0.0207766 0.0173631 0.0347183 0.0393542 0.0490052 0.0342961 0.0469559 0.0591591 0.0445674 0.0561026 0.0742475 0.0752516 0.0708832 0.0694358 0.0602657 0.0718161 0.0730095
23 1 Mg -1.67381 2.41581 1.4948 1.2 1 0.0113818 0.0115901 0.0371795 0.0363473 0.0323874 0.0440127 0.0587039 0.0402803 0.0507556 0.0403029 0.0461372 0.0594176 0.0551517 0.0641822 0.0613735 0.0643317 0.083461 0.0776168 0.0664492 0.0741471
24 2 Si 0.16286 0.350945 1.4948 2.4 1 0.015177 0.032219 0.0280646 0.023556 0.0353482 0.0355095 0.0557048 0.0512265 0.052462 0.0487154 0.0404326 0.0558461 0.0740966 0.0690724 0.0569108 0.0730448 0.0692958 0.0648297 0.0736083 0.0655851
25 3 O 0.15972 -1.26229 1.4948 -1.2 1 0.00919067 0.0154257 0.0397889 0.0213218 0.037422 0.0357466 0.0454778 0.0565605 0.0469133 0.0511925 0.0554915 0.0557884 0.0631588 0.0666258 0.0495253 0.0594895 0.0693772 0.0665712 0.0619933 0.074098
26 3 O 6.77654 1.32496 1.4948 -1.2 1 0.0115586 0.0276596 0.0265423 0.0275705 0.0371607 0.0543998 0.0342262 0.0650087 0.0475582 0.0464296 0.044222 0.0520655 0.053001 0.0600577 0.0685761 0.0710212 0.0841747 0.0630619 0.0597519 0.0742825
27 3 O -0.508028 1.05712 0.196716 -1.2 1 0.0246897 0.0191017 0.0295386 0.0207008 0.0294653 0.0530785 0.0436736 0.0445347 0.0471652 0.0481579 0.0503068 0.048193 0.0493841 0.0634181 0.0548218 0.0627675 0.0632745 0.058937 0.0721951 0.071634
28 3 O -0.552171 1.05712 2.79288 -1.2 1 0.0373204 0.0289072 0.0344116 0.0351111 0.0228268 0.040718 0.0411347 0.0494883 0.041871 0.0406302 0.0495825 0.0488218 0.0562827 0.0609993 0.0640458 0.0760318 0.07326 0.0506241 0.0694643 0.0729571
29 1 Mg 6.31713 4.74899 0 1.2 1 0.0269963 0.0295774 0.0298853 0.0359405 0.0319426 0.0256637 0.0410531 0.0570075 0.0587226 0.0496155 0.0509906 0.0392466 0.0584318 0.0617678 0.0662482 0.0636339 0.0665576 0.0738294 0.0705036 0.0695068
30 1 Mg 3.54847 9.45668 1.4948 1.2 1 0.0171028 0.0159633 0.0173391 0.0190875 0.0188653 0.0383679 0.0385975 0.0419366 0.0451227 0.0567004 0.0379529 0.0684862 0.0527185 0.0654629 0.0747686 0.0620115 0.0668705 0.0876774 0.073655 0.0794404
31 2 Si 5.36879 6.77254 1.4948 2.4 1 0.0290382 0.0269704 0.0239601 0.025654 0.0247102 0.035001 0.0443171 0.036157 0.0448151 0.0571416 0.0421856 0.0582074 0.0535059 0.0666651 0.0655949 0.0742226 0.0673866 0.0790881 0.056361 0.0688288
32 3 O 5.41937 8.38578 1.4948 -1.2 1 0.0214588 0.0114203 0.0235028 0.0297524 0.0173826 0.0431795 0.0441068 0.057318 0.036256 0.0507287 0.0473866 0.0639927 0.0549676 0.0540186 0.0661278 0.0603511 0.0731548 0.0559226 0.0732574 0.0732169
33 3 O 1.75158 5.79852 1.4948 -1.2 1 0.0284594 0.0122787 0.0223774 0.0265181 0.0440646 0.0308033 0.0391667 0.057167 0.0408588 0.0526938 0.0494726 0.0507178 0.047433 0.0708432 0.0786032 0.0785571 0.0602394 0.0750499 0.060008 0.0764713
34 3 O 4.67421 6.06637 0.196716 -1.2 1 0.0146595 0.0264633 0.0316106 0.0243904 0.032034 0.0377444 0.0345525 0.0320524 0.0448824 0.0560198 0.0392308 0.0442237 0.0669886 0.0559674 0.0677423 0.0711984 0.0711853 0.065816 0.0630761 0.0678937
35 1 Mg 6.26654 4.74899 2.9896 1.2 1 0.0196031 0.0260583 0.0239979 0.0452408 0.0244323 0.0451178 0.0480815 0.0465372 0.0367786 0.0622952 0.0366081 0.0611757 0.0375961 0.0634971 0.0519103 0.0778922 0.0557463 0.0830173 0.0462632 0.0905678
36 3 O 4.63043 6.06637 2.79288 -1.2 1 0.0160566 0.0194994 0.0425084 0.0206922 0.0329986 0.0350629 0.0425004 0.048596 0.0446568 0.0371083 0.0495288 0.052009 0.0582262 0.0660984 0.0620645 0.0743388 0.067173 0.0661493 0.0684186 0.0844518
37 1 Mg -1.12976 4.79031 4.4844 1.2 1 0.0230956 0.0272277 0.0149215 0.0127023 0.037719 0.0386095 0.0460455 0.0512324 0.0447131 0.0438291 0.0571139 0.0600485 0.0779374 0.0714779 0.0615947 0.0685858 0.0715107 0.094424 0.0723152 0.0785134
38 2 Si -2.9517 7.47444 4.4844 2.4 1 0.0225884 0.0140721 0.0199817 0.0280748 0.030495 0.041297 0.0632237 0.0279287 0.0547761 0.0581045 0.0516621 0.0573295 0.0617278 0.0570833 0.08062 0.0703708 0.0527426 0.08877 0.0562743 0.0613946
39 3 O -3.00198 5.86121 4.4844 -1.2 1 0.0155858 0.0238698 0.027173 0.0275697 0.0325819 0.0306361 0.0552215 0.0589238 0.0385928 0.0529757 0.0477324 0.0709743 0.0589826 0.0557662 0.0663832 0.0696663 0.0507105 0.0778787 0.0623115 0.0791509
40 3 O 0.666315 8.44846 4.4844 -1.2 1 0.0201675 0.0212357 0.0254439 0.0165702 0.0219799 0.0532455 0.0320232 0.0489388 0.045354 0.04968 0.0400085 0.0519382 0.0493537 0.074102 0.101936 0.0684344 0.0746619 0.0493814 0.0706048 0.0731329
41 3 O -2.21213 8.18062 3.18632 -1.2 1 0.0137686 0.0138278 0.0165184 0.0155302 0.0165396 0.0364957 0.0462841 0.0562698 0.0455869 0.0537297 0.0544983 0.0502907 0.0538597 0.0485179 0.0777112 0.0622002 0.07194 0.0585985 0.0679425 0.0718373
42 3 O -2.25864 8.18062 5.78248 -1.2 1 0.0104255 0.0179427 0.0189126 0.0237876 0.0220327 0.0277649 0.053221 0.0475594 0.0402149 0.0390669 0.056056 0.0365867 0.0598367 0.0597675 0.0853701 0.068634 0.0662287 0.0647604 0.0697101 0.0739074
43 1 Mg 1.20893 7.12349 2.9896 1.2 1 0.00767976 0.0223165 0.018573 0.0247605 0.024049 0.0396991 0.0428823 0.0462902 0.0342066 0.0654457 0.0388807 0.066508 0.0365674 0.0589561 0.0521569 0.0800928 0.0507845 0.0844814 0.0479525 0.0868285
44 1 Mg 4.00982 7.08218 4.4844 1.2 1 0.0217523 0.0141788 0.0236372 0.0351034 0.0304503 0.0364624 0.0448944 0.0366697 0.0467908 0.051247 0.0568948 0.0563796 0.0707655 0.0736249 0.0572859 0.0678336 0.0635613 0.0978005 0.0739393 0.0820528
45 2 Si 2.17861 9.14704 4.4844 2.4 1 0.0287919 0.0127133 0.0211195 0.0208576 0.032236 0.0318366 0.0637932 0.023705 0.0509532 0.0561261 0.0558526 0.0590783 0.0633986 0.0565573 0.0798909 0.0712106 0.0495597 0.0927343 0.0518387 0.0575
46 3 O 2.18828 10.7603 4.4844 -1.2 1 0.0195765 0.0147281 0.00428074 0.019115 0.0276088 0.0218864 0.0448216 0.058824 0.0406108 0.0534077 0.041024 0.0693303 0.0458617 0.0633845 0.0703688 0.0735599 0.0482386 0.0727497 0.063926 0.0726943
47 3 O -4.43805 8.17302 4.4844 -1.2 1 0.0157456 0.0193544 0.0180397 0.0166824 0.0245877 0.0535645 0.0385905 0.0499573 0.0419827 0.0481383 0.0361273 0.0521309 0.0533772 0.0719241 0.0996688 0.0669679 0.0799777 0.0552581 0.0754573 0.0738276
48 3 O 2.89193 8.44087 3.18632 -1.2 1 0.0245657 0.0185604 0.0194485 0.0121037 0.0192518 0.0392618 0.0331892 0.0527882 0.0407116 0.0535683 0.056579 0.0509244 0.0507648 0.050838 0.079993 0.062351 0.0708724 0.0589343 0.0670972 0.0724854
49 1 Mg 1.25915 7.12349 0 1.2 1 0.0200149 0.0152397 0.0248597 0.0146154 0.0321071 0.0254793 0.0524388 0.0403828 0.055685 0.0498856 0.0526662 0.04252 0.0719403 0.0512649 0.0673706 0.0711545 0.065205 0.0709024 0.0810095 0.058599
50 3 O 2.84547 8.44087 5.78248 -1.2 1 0.0103951 0.0127415 0.0175317 0.0206154 0.0206474 0.0293117 0.0438691 0.050105 0.0369121 0.041952 0.0585313 0.0428426 0.0575963 0.0611322 0.0881658 0.066013 0.0688349 0.061667 0.0644173 0.0759147
51 1 Mg -1.59284 7.16481 1.4948 1.2 1 0.00980621 0.0164062 0.0205838 0.0204583 0.0150649 0.0372214 0.0460765 0.0427989 0.043476 0.0578612 0.0388456 0.065571 0.0520398 0.0690531 0.0761884 0.0600682 0.0679141 0.0846981 0.0728893 0.0784768
52 2 Si 0.240329 5.09994 1.4948 2.4 1 0.0246234 0.0173263 0.0159259 0.0433989 0.0272348 0.04043 0.0468404 0.0533452 0.0551818 0.0488315 0.0454988 0.0577704 0.0589082 0.0678227 0.0655699 0.0665181 0.0637424 0.0727242 0.0661411 0.0677714
53 3 O 0.234538 3.48671 1.4948 -1.2 1 0.0132134 0.0163715 0.0267111 0.0358258 0.0315387 0.0492469 0.0458731 0.0423073 0.0527703 0.046459 0.0523589 0.0614213 0.0565228 0.0609186 0.0624335 0.0626708 0.0625582 0.0572972 0.0758357 0.0736139
54 3 O 6.85564 6.07396 1.4948 -1.2 1 0.0324892 0.0195464 0.0346286 0.0276014 0.037196 0.0402537 0.0325251 0.062321 0.036492 0.0530375 0.0537414 0.0533844 0.0553211 0.0736634 0.0699156 0.0769615 0.0664592 0.0723605 0.0532669 0.0852715
55 3 O -0.429565 5.80612 0.196716 -1.2 1 0.0340608 0.0200419 0.0158514 0.021187 0.0409792 0.0374718 0.0538574 0.0451222 0.046103 0.0563174 0.0397881 0.0420092 0.0534766 0.0600523 0.0599021 0.0682325 0.0703579 0.0611008 0.0651133 0.0740608
56 3 O -0.473377 5.80612 2.79288 -1.2 1 0.0248898 0.0211027 0.0339547 0.0186262 0.0344215 0.0464622 0.0491792 0.0492106 0.0540054 0.0449795 0.0622473 0.0387256 0.0436332 0.0602122 0.0658922 0.0712765 0.0646079 0.0689345 0.0721681 0.0798854
57 1 Mg 6.40169 9.49799 0 1.2 1 0.0126553 0.0117046 0.0213078 0.0143564 0.0304151 0.0215109 0.0521776 0.0356814 0.0586198 0.0492377 0.0497482 0.0354053 0.0670202 0.0525461 0.0710286 0.067348 0.0654249 0.070557 0.0809319 0.0684293
58 1 Mg 3.64209 14.2057 1.4948 1.2 1 0.0105565 0.0109937 0.0179848 0.0167133 0.0215456 0.033692 0.0359591 0.0435333 0.0413361 0.055645 0.0391588 0.0659425 0.0531049 0.066233 0.0740649 0.0631625 0.065144 0.0825542 0.0740305 0.078143
59 2 Si 5.45748 11.5215 1.4948 2.4 1 0.0106278 0.0234725 0.0214511 0.0250268 0.0174967 0.0404803 0.0401394 0.0383548 0.0445421 0.0558771 0.0426356 0.0595462 0.0525704 0.0673278 0.0694185 0.0640298 0.071453 0.0811465 0.0590164 0.0664792
60 3 O 5.51101 13.1348 1.4948 -1.2 1 0.024061 0.0133691 0.0222191 0.0294015 0.0199588 0.0433364 0.0445016 0.0591022 0.0366915 0.0500021 0.0429116 0.067442 0.0530071 0.0529939 0.0652128 0.0606519 0.0706413 0.0577886 0.069681 0.0721161
61 3 O 1.83851 10.5475 1.4948 -1.2 1 0.035179 0.0141215 0.0215894 0.0138144 0.0363143 0.0303633 0.0365479 0.0588653 0.0397972 0.0484597 0.0499729 0.0515944 0.0470411 0.0748493 0.0754013 0.080039 0.0568049 0.0760043 0.0576414 0.0790146
62 3 O 4.7611 10.8154 0.196716 -1.2 1 0.0357673 0.0193338 0.0199412 0.0181137 0.0267126 0.0441269 0.0482621 0.0373603 0.0387688 0.0491443 0.0368843 0.0410032 0.0607681 0.0605388 0.0649999 0.0713028 0.0751301 0.0658275 0.0727584 0.0675833
63 1 Mg 6.35203 9.49799 2.9896 1.2 1 0.0129804 0.0173607 0.0256333 0.0212321 0.0190393 0.0384289 0.0371373 0.0511495 0.0349664 0.0587446 0.0313734 0.0644666 0.0280808 0.0664687 0.0471221 0.0801317 0.0445936 0.0899674 0.0448882 0.0907389
64 3 O 4.71833 10.8154 2.79288 -1.2 1 0.0252236 0.0112329 0.0301474 0.013982 0.0298379 0.0433474 0.0431694 0.04545 0.0427358 0.0366705 0.0533422 0.0409891 0.053179 0.0578634 0.0733188 0.0680973 0.072481 0.0591399 0.0716975 0.0788349
65 1 Mg -1.0438 9.53931 4.4844 1.2 1 0.0138609 0.0166427 0.0159085 0.0239851 0.0268092 0.0282616 0.0399206 0.0346598 0.0465126 0.0510451 0.0577229 0.0562785 0.0679632 0.0712503 0.0591679 0.0696002 0.0728036 0.0969318 0.0711887 0.0854696
66 2 Si -2.8604 12.2234 4.4844 2.4 1 0.0191255 0.0118844 0.0163003 0.0266854 0.0297694 0.0416683 0.0591383 0.030767 0.0536195 0.0621402 0.0551013 0.0638992 0.0590289 0.0565504 0.0788813 0.0718244 0.0495655 0.0901143 0.0527631 0.0633808
67 3 O -2.91391 10.6102 4.4844 -1.2 1 0.0183758 0.013204 0.009576 0.021255 0.0299831 0.0232301 0.0468564 0.0631841 0.0397522 0.0514314 0.0368218 0.0697926 0.0447806 0.0590333 0.0674488 0.0727488 0.0495068 0.0747421 0.0611455 0.0770499
68 3 O 0.7596 13.1975 4.4844 -1.2 1 0.0222496 0.0227659 0.0209803 0.0148992 0.0223998 0.0500241 0.0359379 0.0481502 0.0464478 0.0516382 0.0386691 0.0484508 0.0484173 0.0714529 0.101024 0.0657069 0.0749993 0.0547548 0.073294 0.0744476
69 3 O -2.12001 12.9296 3.18632 -1.2 1 0.0238675 0.0106375 0.0210393 0.0174262 0.0196793 0.0356044 0.0404386 0.0530331 0.0439469 0.0539742 0.0522132 0.050758 0.054662 0.0480569 0.0806314 0.0625972 0.0728072 0.0635963 0.0670812 0.0699596
70 3 O -2.16532 12.9296 5.78248 -1.2 1 0.0168999 0.0077102 0.0201602 0.0197203 0.0148541 0.0266739 0.0473455 0.0479731 0.0367081 0.0403242 0.0564113 0.0411102 0.0566752 0.0565634 0.0820345 0.0671313 0.0700393 0.0626186 0.068045 0.0756951
71 1 Mg 1.29891 11.8725 2.9896 1.2 1 0.00810468 0.0159675 0.0217423 0.024497 0.0174172 0.0394374 0.0365759 0.0495493 0.0354533 0.0603687 0.0344627 0.0588121 0.0256269 0.0668434 0.0489405 0.0831242 0.0488681 0.089234 0.048168 0.0869606
72 1 Mg 4.10033 11.8312 4.4844 1.2 1 0.0135801 0.022374 0.0204769 0.0289114 0.0318247 0.0305786 0.0444159 0.0321922 0.0480758 0.04997 0.0538744 0.0521156 0.0645021 0.071598 0.0532036 0.0705619 0.0687984 0.0980402 0.0749232 0.0796458
73 2 Si 2.27333 13.896 4.4844 2.4 1 0.0252862 0.00970531 0.0248653 0.0239713 0.0268865 0.0363616 0.0628298 0.0293476 0.0536791 0.0587001 0.053793 0.0585792 0.0630629 0.055603 0.0780409 0.0683654 0.0469122 0.0967513 0.0543131 0.0575595
74 3 O 2.28634 15.5093 4.4844 -1.2 1 0.0229661 0.0120317 0.0133629 0.0173844 0.0252006 0.0223982 0.0402493 0.05823 0.0417976 0.0519042 0.0422499 0.0727864 0.0468625 0.06373 0.0699909 0.0717522 0.0467479 0.0694253 0.0647274 0.0762904
75 3 O -4.34533 12.922 4.4844 -1.2 1 0.0208803 0.0220097 0.0212322 0.0156528 0.0224885 0.0510837 0.0349213 0.049515 0.0449533 0.0523982 0.0394253 0.0530062 0.0493221 0.0699595 0.101102 0.0661648 0.0779348 0.0547745 0.0746303 0.0727089
76 3 O 2.98455 13.1899 3.18632 -1.2 1 0.0253117 0.0108876 0.0189302 0.011909 0.0191062 0.0402099 0.0377039 0.0573596 0.0431164 0.0548357 0.0551651 0.0494898 0.0508482 0.0501512 0.0810956 0.0612699 0.0676341 0.0607715 0.0654371 0.071422
77 1 Mg 1.34779 11.8725 0 1.2 1 0.0217736 0.0091936 0.0219516 0.0146918 0.02875 0.0226475 0.0516054 0.0347255 0.057567 0.0508941 0.0496939 0.0353467 0.0652444 0.0501213 0.0707484 0.0643478 0.0614463 0.0701996 0.0872022 0.0600793
78 3 O 2.93934 13.1899 5.78248 -1.2 1 0.0235551 0.00929723 0.0168792 0.019371 0.0137505 0.0263607 0.0462511 0.0489015 0.0378128 0.0403113 0.0589081 0.0383897 0.0542042 0.0601022 0.0845947 0.0626588 0.0665244 0.0606662 0.0669196 0.076485
79 1 Mg -1.50344 11.9138 1.4948 1.2 1 0.0129304 0.0179166 0.0228634 0.0204105 0.0118637 0.0369141 0.0385409 0.0422987 0.0411911 0.059913 0.0354148 0.0652144 0.0504867 0.0649208 0.0745404 0.0681582 0.0640856 0.0839304 0.0766789 0.0787091
80 2 Si 0.326006 9.84894 1.4948 2.4 1 0.0281125 0.0179023 0.0269605 0.0295165 0.0168615 0.0381458 0.0434026 0.0399298 0.0440194 0.0550367 0.0395815 0.0603495 0.0556235 0.0664515 0.0608562 0.0626262 0.0702676 0.0803328 0.0616589 0.0688401
81 3 O 0.317364 8.23571 1.4948 -1.2 1 0.0224299 0.0125338 0.0226187 0.0238865 0.0202371 0.0452876 0.0429325 0.0499574 0.0349484 0.0544825 0.044176 0.0657336 0.0572444 0.0597907 0.0676877 0.0664376 0.0713452 0.0534247 0.0736846 0.0741323
82 3 O 6.94307 10.823 1.4948 -1.2 1 0.0312218 0.0149394 0.0220801 0.0117341 0.0373271 0.0329614 0.0381689 0.0577051 0.0347439 0.0478494 0.0514328 0.0525724 0.0499934 0.0746439 0.072493 0.0797655 0.0616366 0.0727426 0.0581176 0.0803455
83 3 O -0.343122 10.5551 0.196716 -1.2 1 0.0308533 0.0174611 0.0215784 0.0208749 0.0297864 0.0414502 0.0513042 0.0398248 0.0386962 0.0507665 0.0370941 0.0375843 0.0613569 0.0609541 0.0687912 0.0708276 0.081134 0.0540551 0.0701488 0.0694672
84 3 O -0.385966 10.5551 2.79288 -1.2 1 0.026305 0.016361 0.0304311 0.0120968 0.0335131 0.0420106 0.0448714 0.0469189 0.0423233 0.0397406 0.0528457 0.0491627 0.0491498 0.0544327 0.0691126 0.0696296 0.0664991 0.0609668 0.068814 0.0794431
85 1 Mg 6.49448 14.247 0 1.2 1 0.0225734 0.0100475 0.018554 0.017015 0.0287592 0.0227768 0.0479044 0.0327726 0.0592685 0.0481844 0.0512741 0.0375338 0.0626456 0.0528444 0.0712082 0.0651861 0.0644251 0.0706917 0.0846622 0.0706398
86 1 Mg 3.74457 18.9547 1.4948 1.2 1 0.014967 0.0107119 0.0152556 0.016112 0.0256731 0.0293365 0.0311582 0.0395949 0.0377534 0.0577843 0.0431369 0.0668773 0.0507366 0.0662396 0.0708165 0.0699111 0.0631429 0.083294 0.0783743 0.0759875
87 2 Si 5.55495 16.2705 1.4948 2.4 1 0.012024 0.0200692 0.0220325 0.0269782 0.0185016 0.0425854 0.0365632 0.0420511 0.0453957 0.0519945 0.0435648 0.0608266 0.0541455 0.0640896 0.0696854 0.0592333 0.0727332 0.0796337 0.0605069 0.0705221
88 3 O 5.6115 17.8838 1.4948 -1.2 1 0.0268841 0.0180437 0.0233138 0.0255921 0.0192997 0.0434583 0.0452045 0.0608627 0.0372771 0.0500126 0.0379103 0.0673654 0.0510082 0.0558096 0.0644936 0.0580264 0.0656454 0.06175 0.0631172 0.0693777
89 3 O 1.93416 15.2965 1.4948 -1.2 1 0.037105 0.014792 0.021871 0.0128798 0.0350658 0.030123 0.0362135 0.0591525 0.0428664 0.0468673 0.0486 0.0506607 0.0465762 0.0738491 0.0807937 0.0774834 0.0589905 0.0739383 0.0624565 0.0770591
90 3 O 4.85636 15.5644 0.196716 -1.2 1 0.0260606 0.010883 0.0221892 0.0195841 0.023765 0.0514811 0.050577 0.0402073 0.0411238 0.0465782 0.0365631 0.033822 0.0642478 0.0549811 0.0672032 0.0686478 0.0748617 0.0631672 0.072103 0.0674874
91 1 Mg 6.44662 14.247 2.9896 1.2 1 0.0103413 0.0183956 0.0229213 0.0217929 0.0187741 0.0351829 0.0379911 0.0537048 0.0361274 0.0574584 0.0335099 0.0631773 0.0243602 0.0674915 0.045754 0.0768752 0.044856 0.0926607 0.0443362 0.0919106
92 3 O 4.81537 15.5644 2.79288 -1.2 1 0.0143376 0.00743233 0.0272437 0.0134372 0.0270176 0.0383125 0.0464563 0.047412 0.0456417 0.0387467 0.0512836 0.0410196 0.0524572 0.0571617 0.0751549 0.0679088 0.0759773 0.0543867 0.0731072 0.0761898
93 1 Mg -0.948271 14.2883 4.4844 1.2 1 0.0191254 0.0118263 0.0154626 0.0267311 0.0265297 0.0297906 0.0377498 0.0338316 0.0455084 0.0486312 0.057124 0.0565642 0.0634409 0.0697608 0.0585695 0.0716003 0.0711559 0.0932399 0.071617 0.0803761
94 2 Si -2.75928 16.9724 4.4844 2.4 1 0.0210913 0.0139379 0.0177224 0.0263418 0.0288245 0.0417149 0.0576973 0.031536 0.0569604 0.0609504 0.0506775 0.0615425 0.060149 0.0539883 0.0770217 0.0718324 0.046724 0.0923378 0.0537607 0.0623312
95 3 O -2.81617 15.3592 4.4844 -1.2 1 0.0185063 0.0171041 0.0105308 0.0254227 0.0278857 0.0240525 0.0417613 0.0633008 0.0430699 0.0496482 0.0374519 0.072062 0.047727 0.0570479 0.0670615 0.0679453 0.0519175 0.0729051 0.0630808 0.0765993
96 3 O 0.862762 17.9465 4.4844 -1.2 1 0.0220116 0.0242152 0.0213163 0.014713 0.0220104 0.0457147 0.0361825 0.0515415 0.045045 0.0528383 0.0400239 0.0468472 0.0448695 0.0724146 0.10287 0.0582573 0.0709432 0.0538854 0.0727633 0.0692164
97 3 O -2.0185 17.6786 3.18632 -1.2 1 0.0214438 0.00744607 0.0200538 0.0186841 0.0172772 0.0380677 0.0417851 0.0555282 0.0411131 0.0542114 0.0536705 0.0494583 0.0564208 0.0488312 0.0813163 0.0587541 0.069598 0.0663359 0.0645262 0.0678437
98 3 O -2.06164 17.6786 5.78248 -1.2 1 0.0183656 0.00932411 0.020775 0.0201102 0.0140611 0.0256037 0.0482504 0.0445695 0.0366407 0.0378019 0.0561145 0.0381838 0.0548791 0.0578717 0.0834417 0.0676404 0.0677547 0.0618676 0.0685859 0.0769973
99 1 Mg 1.39817 16.6215 2.9896 1.2 1 0.00958835 0.0159578 0.0195702 0.0217056 0.0205095 0.0364346 0.0377944 0.0542519 0.0360191 0.0606459 0.0356647 0.0572198 0.025105 0.0675512 0.0477515 0.0798854 0.0485383 0.0917613 0.0453594 0.0888851
100 1 Mg 4.20062 16.5802 4.4844 1.2 1 0.013837 0.0127869 0.0152767 0.0250523 0.0254055 0.0306889 0.0400785 0.035079 0.0459345 0.0527743 0.0538391 0.0564629 0.0702131 0.0679115 0.0529623 0.0729406 0.069475 0.0975387 0.0731397 0.0807244
101 2 Si 2.37796 18.645 4.4844 2.4 1 0.0247401 0.0117462 0.019471 0.0232808 0.0266309 0.0357349 0.06126 0.0299683 0.0540828 0.0591381 0.0523509 0.060847 0.0629773 0.0583264 0.0749331 0.0659903 0.0463861 0.0980002 0.0539851 0.0578011
102 3 O 2.39434 20.2583 4.4844 -1.2 1 0.0234554 0.0129536 0.00929137 0.019003 0.0237775 0.0218096 0.0421259 0.0601816 0.0450998 0.0515469 0.0406084 0.071439 0.0487915 0.063729 0.0702563 0.0691917 0.0483082 0.0673657 0.0642783 0.0799666
103 3 O -4.24274 17.671 4.4844 -1.2 1 0.0138995 0.0196208 0.0217141 0.0199407 0.0220385 0.047057 0.036738 0.0495759 0.0428567 0.0528364 0.0391477 0.0507181 0.0486482 0.0711642 0.1021 0.0626216 0.0768228 0.0533232 0.0772261 0.071159
104 3 O 3.08659 17.9389 3.18632 -1.2 1 0.0282982 0.0130032 0.0213442 0.0105498 0.017273 0.037934 0.0369936 0.0553727 0.0430756 0.0518902 0.0554906 0.0483673 0.0516021 0.0501727 0.0804689 0.0587277 0.0675904 0.0605132 0.0650538 0.0702006
105 1 Mg 1.44478 16.6215 0 1.2 1 0.00934647 0.0122181 0.021748 0.0125642 0.0266029 0.0316167 0.0481146 0.0357394 0.0508064 0.0505731 0.0517702 0.0395294 0.0585833 0.0494392 0.0699402 0.066171 0.0602973 0.0676066 0.0883121 0.0640268
106 3 O 3.0436 17.9389 5.78248 -1.2 1 0.0173675 0.0120844 0.0205606 0.0228539 0.0215946 0.0239517 0.0499491 0.0456847 0.0425775 0.0410209 0.0590996 0.037132 0.055113 0.0619673 0.0825648 0.0627929 0.0708415 0.0579009 0.0652135 0.0795833
107 1 Mg -1.40524 16.6628 1.4948 1.2 1 0.0116028 0.012484 0.0257736 0.0176458 0.0174576 0.0344421 0.036134 0.0425839 0.0414093 0.0604493 0.0405436 0.0626308 0.0548237 0.0644962 0.073982 0.0692771 0.0642737 0.0778807 0.0782051 0.0759402
108 2 Si 0.420358 14.5979 1.4948 2.4 1 0.0225721 0.0193101 0.0289122 0.0259664 0.0176043 0.0385526 0.0390549 0.0418698 0.0442119 0.0549259 0.0426318 0.0617341 0.0578223 0.0632776 0.0671405 0.0590295 0.0720949 0.0767508 0.0625767 0.0714142
109 3 O 0.408732 12.9847 1.4948 -1.2 1 0.0222005 0.0155256 0.0228805 0.0257055 0.0166803 0.0471864 0.0437878 0.0538567 0.0360839 0.0526973 0.0422723 0.0691366 0.0532798 0.0570057 0.066046 0.0632736 0.0716691 0.0549995 0.0682638 0.071785
110 3 O 7.03923 15.572 1.4948 -1.2 1 0.0292938 0.0168885 0.0217625 0.0129027 0.0361236 0.0337685 0.0367908 0.0560624 0.0385055 0.044438 0.0512746 0.052913 0.0478923 0.074422 0.0780557 0.0783532 0.064285 0.0695828 0.0621764 0.0778419
111 3 O -0.248332 15.3041 0.196716 -1.2 1 0.022028 0.0122735 0.0222937 0.019274 0.024266 0.0462904 0.0500156 0.0434533 0.040294 0.0467364 0.0369516 0.0319778 0.0620347 0.0544127 0.070271 0.0652127 0.0820095 0.0505853 0.0694075 0.0711959
112 3 O -0.289436 15.3041 2.79288 -1.2 1 0.010324 0.0163016 0.0318709 0.0119157 0.0304151 0.0375365 0.0444085 0.0464087 0.0452969 0.0389943 0.054611 0.046802 0.0520605 0.0552118 0.0725134 0.0691107 0.0715522 0.055498 0.070595 0.0754086
113 1 Mg 6.59566 18.996 0 1.2 1 0.0136204 0.0119108 0.0199092 0.0143892 0.025611 0.0319732 0.0432648 0.0332979 0.0538539 0.0493791 0.0539553 0.0388228 0.0522914 0.052876 0.0720923 0.0646387 0.0642924 0.0647781 0.0859329 0.0706953
114 1 Mg 3.85574 23.7037 1.4948 1.2 1 0.0107611 0.0125931 0.0212476 0.0140265 0.0226158 0.0288193 0.0312846 0.0371802 0.0389132 0.0601471 0.0468869 0.0627136 0.0501027 0.0669496 0.0647272 0.0725411 0.066272 0.0797794 0.0801158 0.0759948
115 2 Si 5.66125 21.0195 1.4948 2.4 1 0.00823434 0.0241871 0.0232925 0.0272988 0.0192963 0.0462834 0.0340368 0.0415036 0.0491561 0.0542621 0.0453878 0.0603187 0.0559816 0.0596345 0.0717484 0.0608279 0.0734327 0.077215 0.0644886 0.0756788
116 3 O 5.72074 22.6328 1.4948 -1.2 1 0.0282096 0.0192011 0.0183333 0.022849 0.0191127 0.0447771 0.0454361 0.0619292 0.0381399 0.0519599 0.0328381 0.0699369 0.0493227 0.0535625 0.0682053 0.0558533 0.0649527 0.0679306 0.0561671 0.0712338
117 3 O 2.03867 20.0455 1.4948 -1.2 1 0.0300499 0.0166574 0.0268033 0.0158892 0.0343157 0.0296692 0.0361352 0.0550382 0.0435945 0.0424372 0.05057 0.0503162 0.0480789 0.0741337 0.0848659 0.0724553 0.0619685 0.0681121 0.0638437 0.0733114
118 3 O 4.96004 20.3134 0.196716 -1.2 1 0.0242407 0.0102709 0.0242295 0.0196693 0.0223561 0.0455991 0.044948 0.0479787 0.0403081 0.042081 0.0403015 0.0353201 0.0654152 0.0475856 0.0696141 0.0736594 0.0701275 0.0583163 0.0704072 0.0714366
119 1 Mg 6.55057 18.996 2.9896 1.2 1 0.0105475 0.0169192 0.0199589 0.0233579 0.0214343 0.0350231 0.0365301 0.0545739 0.03471 0.059282 0.0357046 0.0632894 0.0214441 0.0693097 0.0443519 0.0749733 0.0454515 0.0951812 0.043832 0.0937175
120 3 O 4.92172 20.3134 2.79288 -1.2 1 0.0170834 0.0106934 0.0285158 0.0162214 0.0286849 0.0416184 0.0458726 0.0460778 0.0467432 0.0425272 0.0522498 0.0402465 0.051999 0.0526443 0.0759058 0.0658468 0.075267 0.0503114 0.0723825 0.0726552
121 1 Mg -0.84282 19.0373 4.4844 1.2 1 0.0118991 0.0109267 0.013148 0.0237236 0.0240422 0.0261857 0.0326697 0.0336746 0.0466677 0.0490049 0.0605578 0.0536817 0.0651659 0.0655771 0.057196 0.0736944 0.0717449 0.0909793 0.0737458 0.0817261
122 2 Si -2.64823 21.7214 4.4844 2.4 1 0.0148965 0.0148286 0.0155321 0.0259034 0.0316055 0.0399145 0.0566212 0.0307104 0.05351 0.0626078 0.0521055 0.0618644 0.0603736 0.0545206 0.0776913 0.0729112 0.0498465 0.0943133 0.055243 0.0629209
123 3 O -2.70847 20.1082 4.4844 -1.2 1 0.0141682 0.020754 0.0133104 0.0275568 0.024245 0.0244443 0.0383382 0.0642578 0.0433796 0.0480737 0.038823 0.0696988 0.0510619 0.0585032 0.067346 0.065823 0.0518816 0.07276 0.0676034 0.0753545
124 3 O 0.97581 22.6955 4.4844 -1.2 1 0.0198788 0.0253757 0.0207009 0.0165229 0.0194819 0.043268 0.0319103 0.0498719 0.0439604 0.0546599 0.0400229 0.0452239 0.0453302 0.0733757 0.1069 0.0537449 0.068417 0.055959 0.0730317 0.0686116
125 3 O -1.9076 22.4276 3.18632 -1.2 1 0.0246977 0.0115293 0.0203814 0.0162605 0.0141734 0.0353933 0.0436309 0.053775 0.0373482 0.0507845 0.0540996 0.0498863 0.055337 0.0465827 0.0805355 0.0581288 0.0689672 0.0652885 0.0634023 0.0653841
126 3 O -1.9475 22.4276 5.78248 -1.2 1 0.0125733 0.00728404 0.0239913 0.0218699 0.0174211 0.0262692 0.0519375 0.0450487 0.0387999 0.0364755 0.0573471 0.0403664 0.0574476 0.0619729 0.0829285 0.0689859 0.0710037 0.0634218 0.0713091 0.0738856