ITEM: TIMESTEP
54000
ITEM: NUMBER OF ATOMS
10500
ITEM: BOX BOUNDS xy xz yz pp pp pp
0	15.2977	5.09925
0	118.725	0
0	89.688	0
ITEM: ATOMS id type element xu yu zu q Q_1 Q_2 Q_3 Q_4 Q_5 Q_6 Q_7 Q_8 Q_9 Q_10 Q_11 Q_12 Q_13 Q_14 Q_15 Q_16 Q_17 Q_18 Q_19 Q_20 Q_21
1 1 Mg 6.2404 -6.37941e-06 0 1.2 1 0.0107402 0.0411463 0.0323311 0.0370231 0.0315632 0.0397315 0.0358828 0.0668569 0.040009 0.0709717 0.0345689 0.0607133 0.0473834 0.0683606 0.0496429 0.0906422 0.0504579 0.0833309 0.0509453 0.101638
2 1 Mg 3.46349 4.70768 1.4948 1.2 1 0.012989 0.0171193 0.0242378 0.0231003 0.0200892 0.041969 0.0432507 0.0401437 0.046453 0.0563737 0.0429634 0.0706817 0.0582391 0.0706358 0.0747008 0.0631353 0.0678535 0.0862978 0.0721307 0.0825969
3 2 Si 5.2885 2.02354 1.4948 2.4 1 0.0219383 0.0222912 0.0367149 0.0256179 0.0310274 0.036706 0.0533753 0.0334825 0.0442686 0.0519033 0.0559002 0.0615387 0.0556712 0.0638072 0.0682421 0.0791005 0.0710054 0.0650573 0.0631405 0.0731977
4 3 O 5.33628 3.63678 1.4948 -1.2 1 0.00938358 0.0141535 0.0268508 0.026061 0.0183882 0.0390331 0.0417881 0.0602701 0.0352304 0.0403188 0.0546224 0.0507088 0.0677217 0.057579 0.0589643 0.0647262 0.060133 0.0616905 0.0710685 0.0745674
5 3 O 1.67294 1.04952 1.4948 -1.2 1 0.0129252 0.019576 0.0228841 0.0356293 0.0310311 0.0385563 0.0357902 0.0607645 0.035525 0.059192 0.0442695 0.0524986 0.0701745 0.0596365 0.0757109 0.0698037 0.0632869 0.065122 0.0786361 0.0605239
6 3 O 4.59532 1.31737 0.196716 -1.2 1 0.0260255 0.0203174 0.0585782 0.0246403 0.0324116 0.049508 0.0384735 0.0465712 0.0330836 0.0385877 0.0384631 0.051227 0.0548611 0.0571733 0.0637778 0.0694946 0.0626745 0.0707202 0.0581516 0.0702654
7 1 Mg 6.18956 -6.37941e-06 2.9896 1.2 1 0.0155231 0.0286435 0.0158809 0.0213532 0.0361088 0.0442858 0.0502109 0.043538 0.0477226 0.0455854 0.0386828 0.0562903 0.038948 0.0564514 0.0581874 0.0796909 0.0564379 0.0696313 0.0596101 0.0702164
8 3 O 4.55118 1.31737 2.79288 -1.2 1 0.0244607 0.0261996 0.0413706 0.0170435 0.0288959 0.0432126 0.0454462 0.0475697 0.0443195 0.0550714 0.0533501 0.0485906 0.04934 0.0665609 0.0531206 0.0695222 0.0652541 0.0667949 0.0645134 0.0718484
9 1 Mg -1.20682 0.0413099 4.4844 1.2 1 0.0159507 0.0264865 0.0214583 0.0268985 0.0388002 0.0415535 0.0306981 0.0543796 0.0538556 0.0386708 0.0477845 0.0621601 0.0672057 0.0569083 0.0747107 0.0615047 0.0796447 0.0739576 0.0617611 0.0552543
10 2 Si -3.0337 2.72544 4.4844 2.4 1 0.031445 0.018682 0.0239539 0.0158797 0.0319389 0.0415049 0.0588962 0.0354483 0.0609452 0.0503218 0.0494368 0.0623139 0.0573434 0.0773091 0.0568854 0.0606954 0.0715177 0.0797724 0.072809 0.0588845
11 3 O -3.08099 1.11221 4.4844 -1.2 1 0.0122824 0.02491 0.0276096 0.0242681 0.0359235 0.0238659 0.0505861 0.0455922 0.0394475 0.0409554 0.0418207 0.0711728 0.0525251 0.0541319 0.0558255 0.06825 0.0574966 0.0750743 0.0728926 0.0781136
12 3 O 0.582463 3.69946 4.4844 -1.2 1 0.00999785 0.0110109 0.0347212 0.0297834 0.0270808 0.0615528 0.032545 0.0539165 0.0424623 0.0405598 0.0552232 0.0579412 0.0599462 0.0713481 0.0992181 0.0715021 0.0792763 0.0397019 0.070902 0.0667612
13 3 O -2.29524 3.43162 3.18632 -1.2 1 0.0125295 0.0204488 0.0256342 0.0310905 0.0191818 0.0501813 0.0518767 0.0491971 0.0420859 0.0524326 0.0589148 0.0531154 0.0413062 0.0524257 0.0582985 0.0649388 0.0671635 0.0617029 0.0651215 0.0720571
14 3 O -2.34216 3.43162 5.78248 -1.2 1 0.0189477 0.0116477 0.0226451 0.0284168 0.0276853 0.0377717 0.0538736 0.0478988 0.0437387 0.0570056 0.0585872 0.0464711 0.055479 0.0535363 0.0731898 0.0687947 0.0642308 0.0659924 0.077676 0.0746539
15 1 Mg 1.12778 2.37449 2.9896 1.2 1 0.0197156 0.0415779 0.013173 0.0253464 0.0252252 0.0447874 0.0417065 0.0520106 0.0372228 0.0604139 0.0382669 0.0592589 0.0416598 0.0680302 0.0635837 0.0698544 0.0673975 0.0820409 0.0471132 0.0881175
16 1 Mg 3.92855 2.33318 4.4844 1.2 1 0.0259165 0.0192081 0.0247791 0.0255606 0.043312 0.0229209 0.0378353 0.0354949 0.0464909 0.069872 0.0496959 0.0609648 0.0510006 0.0592332 0.0539552 0.0749437 0.0604801 0.0954153 0.0750837 0.0847284
17 2 Si 2.09341 4.39804 4.4844 2.4 1 0.0137351 0.0210003 0.0339385 0.0137489 0.0410568 0.0283004 0.0628955 0.02173 0.0428261 0.0482139 0.0639244 0.0623269 0.0676809 0.0599025 0.0731151 0.0740863 0.0707251 0.079659 0.0506231 0.0633705
18 3 O 2.09991 6.01128 4.4844 -1.2 1 0.0110867 0.012409 0.0174463 0.0181252 0.0350309 0.022102 0.0517157 0.0523236 0.0464784 0.0460403 0.0491281 0.0687509 0.046297 0.0633718 0.0639745 0.0733168 0.0452807 0.0801012 0.0598893 0.0723292
19 3 O -4.52137 3.42402 4.4844 -1.2 1 0.0195671 0.0326481 0.0374873 0.0205013 0.0272457 0.0558859 0.0393511 0.0454945 0.0575018 0.0591046 0.0312614 0.0593971 0.0543621 0.0528752 0.0904196 0.0721485 0.0751647 0.0613481 0.0721188 0.0566132
20 3 O 2.80834 3.69187 3.18632 -1.2 1 0.00911291 0.0183011 0.0211304 0.024808 0.0222753 0.0389852 0.0356501 0.0509936 0.0442795 0.0589518 0.0670066 0.0516828 0.043138 0.0649222 0.070306 0.0719135 0.0616237 0.0578386 0.070765 0.0712113
21 1 Mg 1.17857 2.37449 0 1.2 1 0.0119764 0.0371202 0.0290279 0.0300563 0.0379164 0.0403876 0.045212 0.0593304 0.0364294 0.048377 0.0526806 0.0410641 0.043585 0.0680059 0.0536778 0.0658373 0.0607896 0.0808806 0.0574561 0.0730951
22 3 O 2.76143 3.69187 5.78248 -1.2 1 0.011468 0.0249868 0.0207273 0.0231831 0.0202418 0.0344051 0.0388066 0.0490663 0.0353104 0.0486485 0.057094 0.0447091 0.053004 0.0784459 0.0748845 0.066355 0.0713026 0.0603879 0.0710262 0.0744776
23 1 Mg -1.67381 2.41581 1.4948 1.2 1 0.0115043 0.0115472 0.0372336 0.0362091 0.0322146 0.0441172 0.0584719 0.0405741 0.0510077 0.0402762 0.0466286 0.0595151 0.054997 0.0631985 0.0617198 0.0648147 0.0833343 0.0773402 0.0668475 0.0741708
24 2 Si 0.16286 0.350945 1.4948 2.4 1 0.0170418 0.0328064 0.0257757 0.0269737 0.0326211 0.0350677 0.0549607 0.0510502 0.0525463 0.0489324 0.0399843 0.057995 0.0721966 0.0689481 0.059004 0.0743449 0.072287 0.0655251 0.0729861 0.0666061
25 3 O 0.15972 -1.26229 1.4948 -1.2 1 0.00910746 0.0154542 0.0397613 0.0213233 0.0374044 0.0360066 0.045504 0.056608 0.0470534 0.051451 0.0556459 0.0559387 0.0630245 0.0663923 0.0498888 0.0595346 0.0694641 0.0664014 0.0622492 0.0742697
26 3 O 6.77654 1.32496 1.4948 -1.2 1 0.0114647 0.0277787 0.026674 0.0277457 0.0372942 0.0545279 0.0342854 0.0647339 0.0476427 0.0467287 0.0443098 0.0525906 0.0522988 0.0592853 0.0686969 0.0716234 0.0847545 0.0629433 0.0598888 0.0747384
27 3 O -0.508028 1.05712 0.196716 -1.2 1 0.0245543 0.0190385 0.0294112 0.0207825 0.0291282 0.0534587 0.0435447 0.0447877 0.0471998 0.048567 0.0501998 0.04807 0.0491912 0.063378 0.0548613 0.0626539 0.063241 0.0589249 0.072431 0.0719925
28 3 O -0.552171 1.05712 2.79288 -1.2 1 0.0371071 0.0256796 0.0396987 0.0320739 0.0232907 0.043999 0.0416458 0.0451053 0.0433643 0.0356702 0.0473343 0.0495695 0.0587964 0.0608773 0.0653313 0.0756056 0.0732308 0.0507688 0.069873 0.0713281
29 1 Mg 6.31713 4.74899 0 1.2 1 0.0283284 0.032263 0.0316818 0.0349063 0.0333033 0.0252782 0.0416928 0.0551181 0.0592498 0.0482479 0.0502438 0.0392862 0.057609 0.0604628 0.0645137 0.0630808 0.0671435 0.0733533 0.0699257 0.0707043
30 1 Mg 3.54847 9.45668 1.4948 1.2 1 0.017047 0.0160954 0.0172939 0.0189679 0.0187962 0.0382758 0.0387745 0.0418031 0.0444871 0.0563752 0.0373823 0.069063 0.0530846 0.066126 0.0745472 0.0626653 0.0668439 0.0874022 0.0741532 0.0796793
31 2 Si 5.36879 6.77254 1.4948 2.4 1 0.0259115 0.029767 0.0213329 0.0263329 0.0245557 0.035155 0.0441455 0.0349423 0.045338 0.0584812 0.042401 0.0577425 0.052326 0.0675847 0.0648222 0.0752828 0.067208 0.0786504 0.0566285 0.0686283
32 3 O 5.41937 8.38578 1.4948 -1.2 1 0.0214917 0.0114188 0.0236394 0.0295116 0.0175945 0.0432316 0.0440941 0.0571019 0.0362027 0.0501456 0.047806 0.0643386 0.0554171 0.0534653 0.0668591 0.0612503 0.0730771 0.0559776 0.0731112 0.0732071
33 3 O 1.75158 5.79852 1.4948 -1.2 1 0.0284732 0.0123106 0.0224416 0.0265731 0.0440786 0.0306819 0.0393443 0.0569641 0.0406358 0.0525468 0.0494633 0.0506383 0.0475192 0.0712508 0.0786652 0.0784628 0.0604436 0.0751845 0.0598794 0.076672
34 3 O 4.67421 6.06637 0.196716 -1.2 1 0.0101879 0.0299181 0.0320245 0.0247874 0.0323559 0.0378107 0.033908 0.0309077 0.0429409 0.0545989 0.0410158 0.0421378 0.0652582 0.0552963 0.0667669 0.0698172 0.0720132 0.0649299 0.0622741 0.0701222
35 1 Mg 6.26654 4.74899 2.9896 1.2 1 0.0220652 0.0250476 0.0236211 0.0431928 0.0257252 0.0441584 0.0481309 0.0481561 0.0355212 0.0619015 0.0365027 0.0600897 0.0376244 0.0651542 0.0534027 0.0769038 0.0558467 0.0835362 0.0450374 0.0906254
36 3 O 4.63043 6.06637 2.79288 -1.2 1 0.0161138 0.0192738 0.0423031 0.0201532 0.0322769 0.0360455 0.0416533 0.0487894 0.045304 0.0378907 0.048744 0.0521792 0.0582496 0.066938 0.0618125 0.0752753 0.0663974 0.0676893 0.0670124 0.0850965
37 1 Mg -1.12976 4.79031 4.4844 1.2 1 0.0203319 0.0260417 0.0131844 0.012971 0.0390289 0.0352305 0.0529877 0.0492963 0.0434968 0.0416832 0.0560314 0.0614999 0.0767944 0.0674909 0.062927 0.068556 0.0682509 0.0937061 0.0712295 0.0806618
38 2 Si -2.9517 7.47444 4.4844 2.4 1 0.0236085 0.0135853 0.018119 0.0259232 0.0306306 0.0431004 0.061882 0.0294076 0.0543231 0.0573597 0.0530238 0.0577666 0.0639482 0.0571708 0.0799389 0.0720547 0.0539174 0.0885387 0.0563236 0.0617433
39 3 O -3.00198 5.86121 4.4844 -1.2 1 0.0121448 0.0217015 0.0303406 0.0271812 0.0307899 0.0316796 0.0538081 0.0610803 0.0405745 0.0543002 0.0491337 0.0698205 0.0544977 0.0550527 0.0643165 0.0704672 0.0484194 0.0737388 0.0635909 0.0784191
40 3 O 0.666315 8.44846 4.4844 -1.2 1 0.0200992 0.0233431 0.0249028 0.0181692 0.0211127 0.0556308 0.0317777 0.0500806 0.0423823 0.0491494 0.0431388 0.05076 0.0491485 0.075187 0.101449 0.0677723 0.0778212 0.0524838 0.0720833 0.0743786
41 3 O -2.21213 8.18062 3.18632 -1.2 1 0.0136681 0.0139782 0.0164706 0.0156483 0.0169394 0.0373211 0.0461875 0.0560795 0.046242 0.0542979 0.0544029 0.0508248 0.0539972 0.0492952 0.0781898 0.063715 0.0719805 0.058473 0.0667988 0.0721395
42 3 O -2.25864 8.18062 5.78248 -1.2 1 0.0117125 0.012527 0.0249205 0.0221392 0.0179595 0.0286875 0.0516903 0.0443808 0.0406759 0.0398122 0.0563105 0.0375161 0.0553378 0.0647284 0.0815847 0.0700247 0.0666886 0.0638714 0.0682692 0.074258
43 1 Mg 1.20893 7.12349 2.9896 1.2 1 0.0119408 0.0229558 0.0179019 0.0240532 0.0257761 0.0403427 0.0429898 0.0478243 0.0347062 0.0664265 0.0400722 0.0678347 0.0363753 0.0584555 0.0524661 0.0798102 0.0511269 0.0845276 0.0491629 0.0874161
44 1 Mg 4.00982 7.08218 4.4844 1.2 1 0.020826 0.013762 0.0245387 0.0377613 0.0330741 0.0340167 0.0461488 0.0383844 0.0450228 0.0522188 0.0594141 0.0554614 0.0738916 0.072101 0.0591756 0.0676542 0.0632458 0.0978397 0.0736535 0.0829179
45 2 Si 2.17861 9.14704 4.4844 2.4 1 0.0291356 0.00735273 0.0228661 0.0207858 0.030084 0.0337617 0.061804 0.0265585 0.0505655 0.0544688 0.0579214 0.061484 0.0663421 0.06007 0.0800592 0.0692907 0.049865 0.091788 0.054373 0.0575648
46 3 O 2.18828 10.7603 4.4844 -1.2 1 0.0204649 0.0156722 0.0051032 0.0192496 0.0268718 0.0233154 0.0451741 0.0586518 0.0405166 0.0534159 0.0398487 0.0697996 0.0432204 0.063581 0.070696 0.0722853 0.0489691 0.0724987 0.0637335 0.0736871
47 3 O -4.43805 8.17302 4.4844 -1.2 1 0.0122316 0.0216723 0.0171826 0.0171549 0.0234028 0.0517146 0.0367174 0.0484915 0.0483591 0.0502869 0.0357868 0.0532281 0.0515346 0.0734194 0.100843 0.067003 0.0783458 0.0511444 0.0734754 0.0786248
48 3 O 2.89193 8.44087 3.18632 -1.2 1 0.0180684 0.0157775 0.0179604 0.0150584 0.0217126 0.0409823 0.0339744 0.055018 0.0430861 0.0514009 0.0588122 0.0496308 0.0516711 0.0544367 0.0806406 0.0629128 0.0701877 0.0588132 0.0643958 0.0753588
49 1 Mg 1.25915 7.12349 0 1.2 1 0.0187735 0.0175092 0.0279454 0.0150243 0.0319106 0.0245421 0.050035 0.0399378 0.0561907 0.049789 0.0539745 0.0426348 0.0709431 0.051487 0.0680983 0.0706735 0.0641911 0.0707006 0.0797446 0.0586656
50 3 O 2.84547 8.44087 5.78248 -1.2 1 0.0136553 0.0138297 0.0212454 0.0232554 0.026505 0.0270386 0.0487021 0.0477274 0.0415055 0.0402824 0.0581385 0.0408449 0.0629146 0.0621472 0.0887742 0.0626449 0.0730526 0.0626135 0.0663673 0.0740417
51 1 Mg -1.59284 7.16481 1.4948 1.2 1 0.00739278 0.019991 0.0192104 0.0224999 0.0153559 0.0380735 0.0465378 0.0423993 0.0422596 0.0570783 0.0390702 0.0676572 0.05387 0.0692803 0.0763319 0.0611828 0.0666301 0.0849383 0.0746583 0.0786422
52 2 Si 0.240329 5.09994 1.4948 2.4 1 0.0246631 0.0173971 0.0158752 0.0433781 0.0271664 0.0405171 0.0467107 0.0533268 0.0550793 0.0485441 0.0457154 0.0578462 0.0591775 0.0677885 0.0655767 0.0664095 0.0640485 0.072765 0.0661856 0.0683938
53 3 O 0.234538 3.48671 1.4948 -1.2 1 0.0131987 0.0164987 0.026582 0.0359772 0.0312627 0.0491213 0.0460689 0.0426069 0.0529532 0.0474285 0.0519587 0.0611802 0.0555082 0.0611538 0.0610873 0.0623834 0.0629575 0.0571777 0.0758303 0.0742933
54 3 O 6.85564 6.07396 1.4948 -1.2 1 0.0324901 0.019566 0.0345743 0.0275273 0.0371996 0.0403189 0.0323845 0.0625748 0.0364232 0.053321 0.0538105 0.0538202 0.055309 0.0730763 0.0698528 0.0770981 0.0663305 0.0720995 0.0532391 0.0849695
55 3 O -0.429565 5.80612 0.196716 -1.2 1 0.031294 0.0209362 0.0159854 0.0209879 0.0418031 0.03774 0.0533219 0.0445762 0.0451215 0.0546494 0.0405939 0.0402454 0.0525612 0.0600197 0.0598151 0.0675659 0.071623 0.0604286 0.0646069 0.0745686
56 3 O -0.473377 5.80612 2.79288 -1.2 1 0.0261313 0.0229617 0.0311325 0.019586 0.0339849 0.0457955 0.0484871 0.0500753 0.0531268 0.0462142 0.0630133 0.0385385 0.0428072 0.0573686 0.0663466 0.0721946 0.0654423 0.069607 0.0699224 0.0803472
57 1 Mg 6.40169 9.49799 0 1.2 1 0.0128141 0.0118184 0.0211365 0.0141372 0.0304484 0.0210632 0.0522276 0.0355723 0.0586752 0.0493256 0.0498828 0.035618 0.0668531 0.0525241 0.0709965 0.0670955 0.0653529 0.0704105 0.0810079 0.0684932
58 1 Mg 3.64209 14.2057 1.4948 1.2 1 0.0153037 0.00935404 0.0188732 0.0182535 0.0209581 0.033626 0.0358348 0.0433438 0.0407047 0.0546283 0.0397571 0.0660435 0.0530632 0.066088 0.0707872 0.0645385 0.0652574 0.0821266 0.0747483 0.0779743
59 2 Si 5.45748 11.5215 1.4948 2.4 1 0.0106745 0.0235001 0.021358 0.0248719 0.017568 0.0405468 0.0400425 0.0383895 0.0441181 0.0553242 0.0427377 0.0593409 0.053203 0.0673599 0.0695234 0.0639697 0.071808 0.0812431 0.0592082 0.0673161
60 3 O 5.51101 13.1348 1.4948 -1.2 1 0.0254674 0.015116 0.0220892 0.0306704 0.0175361 0.0442498 0.0435032 0.0586816 0.0358188 0.0489059 0.0440476 0.0665883 0.0530612 0.0519124 0.0642104 0.0590556 0.070822 0.0579696 0.0684133 0.0731732
61 3 O 1.83851 10.5475 1.4948 -1.2 1 0.0351909 0.0141018 0.0217792 0.0140899 0.0363581 0.0300267 0.0366297 0.0586678 0.0397451 0.0481064 0.0497955 0.0514864 0.0472076 0.0750926 0.0758665 0.0800556 0.0564586 0.0761396 0.0579255 0.0789568
62 3 O 4.7611 10.8154 0.196716 -1.2 1 0.0357761 0.0193731 0.0199694 0.0181895 0.0266638 0.0441441 0.0483357 0.0374192 0.0388915 0.0491423 0.036918 0.041009 0.060806 0.0608887 0.0649987 0.0716119 0.0754372 0.0656121 0.0728814 0.0677619
63 1 Mg 6.35203 9.49799 2.9896 1.2 1 0.0129509 0.0174983 0.0252626 0.0212704 0.0192352 0.0378283 0.0374048 0.0508712 0.0355611 0.0590188 0.0321165 0.0648578 0.0283244 0.0667358 0.0481833 0.0800388 0.0466853 0.0899456 0.0448429 0.0905066
64 3 O 4.71833 10.8154 2.79288 -1.2 1 0.0215214 0.0130638 0.0333506 0.0128764 0.030819 0.0425585 0.0436414 0.0439462 0.042671 0.0376843 0.0535334 0.0422448 0.0543698 0.0589021 0.073645 0.0690111 0.0728436 0.058723 0.0701789 0.0791034
65 1 Mg -1.0438 9.53931 4.4844 1.2 1 0.0147313 0.0174756 0.0164931 0.0240259 0.0271371 0.0289893 0.0398966 0.0353362 0.046212 0.0509101 0.0568323 0.0560992 0.0681327 0.0717618 0.059436 0.0697476 0.0721007 0.0975267 0.0711034 0.0850393
66 2 Si -2.8604 12.2234 4.4844 2.4 1 0.0180723 0.0121077 0.0164585 0.0269482 0.0298421 0.0413982 0.0603508 0.030391 0.0544602 0.0630872 0.0555918 0.0625736 0.0606467 0.0569814 0.077702 0.0734422 0.0483845 0.092151 0.0523873 0.0621164
67 3 O -2.91391 10.6102 4.4844 -1.2 1 0.020473 0.0119343 0.00931339 0.0231686 0.0276385 0.0231639 0.045648 0.0635319 0.0418427 0.0475133 0.0369288 0.070231 0.0466383 0.0576079 0.0672117 0.0685393 0.0494294 0.0739483 0.062733 0.0761703
68 3 O 0.7596 13.1975 4.4844 -1.2 1 0.018853 0.0231606 0.019729 0.0146014 0.0223375 0.050556 0.034499 0.0488162 0.0468606 0.0516598 0.0369573 0.0493394 0.0476333 0.0701871 0.102327 0.0636709 0.0761573 0.0527875 0.0736927 0.0725168
69 3 O -2.12001 12.9296 3.18632 -1.2 1 0.0208668 0.0114624 0.0185695 0.017605 0.0208981 0.0366477 0.0417697 0.0527407 0.0468087 0.0521067 0.0530162 0.0511723 0.0554489 0.0492701 0.0801835 0.0633624 0.0711787 0.0624126 0.0673701 0.0703892
70 3 O -2.16532 12.9296 5.78248 -1.2 1 0.0146295 0.0145266 0.0198384 0.0207608 0.0163272 0.030288 0.0486286 0.0477756 0.0375341 0.0389559 0.0573801 0.0403703 0.0575265 0.0608549 0.084959 0.0688601 0.0689525 0.0652139 0.0664262 0.0764577
71 1 Mg 1.29891 11.8725 2.9896 1.2 1 0.00684087 0.015986 0.0224406 0.0229889 0.0174619 0.0383465 0.0364586 0.050102 0.0362589 0.0600395 0.0347898 0.0590896 0.0256718 0.0674637 0.0485745 0.0816918 0.0483747 0.0889758 0.0473736 0.0862503
72 1 Mg 4.10033 11.8312 4.4844 1.2 1 0.012318 0.017988 0.0178352 0.0267229 0.0255103 0.0347672 0.04093 0.0346377 0.0474848 0.0512662 0.0529247 0.0535607 0.066449 0.0708671 0.0529648 0.0709658 0.0707798 0.0981262 0.074053 0.0812314
73 2 Si 2.27333 13.896 4.4844 2.4 1 0.0251515 0.00918242 0.0267513 0.0249146 0.0245837 0.0364823 0.0621422 0.0317002 0.0542438 0.0565817 0.0532462 0.0597144 0.0620916 0.0569011 0.0769555 0.0689754 0.0463953 0.0965153 0.0540591 0.0584721
74 3 O 2.28634 15.5093 4.4844 -1.2 1 0.0223734 0.0153499 0.00332844 0.0201245 0.0245105 0.0214043 0.0431649 0.0586463 0.0423158 0.0532616 0.0421118 0.070084 0.0459661 0.0621637 0.0706691 0.0708303 0.0486346 0.0699364 0.0662268 0.0745679
75 3 O -4.34533 12.922 4.4844 -1.2 1 0.0296021 0.0242265 0.0221259 0.0105886 0.022858 0.0499768 0.0342545 0.0510563 0.0439641 0.0518061 0.0384795 0.051281 0.0480498 0.0710121 0.0982083 0.0666555 0.0774037 0.0514931 0.0751063 0.0736355
76 3 O 2.98455 13.1899 3.18632 -1.2 1 0.0227464 0.0119122 0.018296 0.0119281 0.0209207 0.0420699 0.0387146 0.0575174 0.0455137 0.0531309 0.0571863 0.0486653 0.0510675 0.0518463 0.0807589 0.061687 0.0662036 0.0605561 0.0647893 0.0715006
77 1 Mg 1.34779 11.8725 0 1.2 1 0.0201898 0.0111822 0.0247368 0.0143456 0.0285663 0.0217421 0.0492471 0.034693 0.0581986 0.0506884 0.0508821 0.0356016 0.0641327 0.0503004 0.0711398 0.0640863 0.0601256 0.0701616 0.0861302 0.0596547
78 3 O 2.93934 13.1899 5.78248 -1.2 1 0.0167389 0.0133902 0.0200238 0.0194498 0.0171281 0.0260023 0.0477954 0.0482195 0.0408531 0.0428407 0.0591379 0.0392653 0.0557129 0.0579585 0.0869624 0.0682815 0.0685971 0.0617069 0.06547 0.080532
79 1 Mg -1.50344 11.9138 1.4948 1.2 1 0.0128898 0.0179604 0.0227727 0.0204865 0.0120989 0.0368352 0.0389225 0.0419115 0.0408955 0.0598711 0.0353209 0.0652065 0.0504484 0.0652866 0.0745974 0.0682742 0.0642386 0.0837101 0.076849 0.0786215
80 2 Si 0.326006 9.84894 1.4948 2.4 1 0.0281315 0.0179385 0.0269711 0.0294276 0.0168531 0.0381858 0.0433312 0.039885 0.0437501 0.05491 0.0396536 0.06007 0.0558884 0.066745 0.0610068 0.0624273 0.0705778 0.0804685 0.0619519 0.0690777
81 3 O 0.317364 8.23571 1.4948 -1.2 1 0.0223806 0.0125868 0.0226096 0.0239603 0.0203951 0.0453039 0.0428673 0.0499363 0.0347858 0.0542513 0.0442531 0.0659665 0.0574273 0.0594691 0.0679532 0.0666645 0.07152 0.053236 0.0736056 0.0739801
82 3 O 6.94307 10.823 1.4948 -1.2 1 0.0356887 0.0148731 0.0212115 0.0093108 0.0370217 0.0335527 0.0388499 0.0558396 0.0336852 0.0464793 0.0514962 0.0518816 0.0509665 0.0748405 0.0727971 0.0789519 0.0624758 0.0734582 0.0579915 0.0804404
83 3 O -0.343122 10.5551 0.196716 -1.2 1 0.0308574 0.0174059 0.0214952 0.0208371 0.0298579 0.0414995 0.0511983 0.0398097 0.0387014 0.0508629 0.0370438 0.0377907 0.0614865 0.060785 0.0687201 0.0707969 0.0809813 0.0541414 0.0698791 0.0692112
84 3 O -0.385966 10.5551 2.79288 -1.2 1 0.0261206 0.0166328 0.030497 0.0127491 0.0339956 0.0418909 0.0447387 0.0470007 0.042573 0.0408608 0.0524808 0.0500236 0.0491784 0.0548735 0.0690287 0.0699785 0.0658942 0.0605881 0.0690788 0.0792907
85 1 Mg 6.49448 14.247 0 1.2 1 0.0226872 0.00956311 0.0187957 0.0168589 0.0285352 0.0231197 0.0478078 0.0333036 0.0595282 0.0480114 0.0513516 0.0371313 0.0625259 0.0525817 0.0711692 0.0655952 0.0644047 0.0707528 0.0847655 0.0704528
86 1 Mg 3.74457 18.9547 1.4948 1.2 1 0.0192404 0.00911173 0.0159944 0.0182847 0.0251168 0.0295999 0.0309646 0.0391464 0.0377202 0.0570021 0.0441934 0.0661855 0.0509479 0.0656104 0.0678603 0.0707214 0.0634807 0.0830399 0.0785973 0.0759132
87 2 Si 5.55495 16.2705 1.4948 2.4 1 0.0107773 0.0217505 0.0200464 0.0271001 0.0177508 0.0428318 0.0372363 0.0401864 0.0467196 0.0527506 0.0441434 0.0598538 0.054166 0.0644185 0.0702686 0.0594799 0.0731092 0.0791246 0.0605942 0.070938
88 3 O 5.6115 17.8838 1.4948 -1.2 1 0.0269255 0.0179641 0.0233173 0.0256109 0.0193058 0.0434213 0.0451494 0.0609019 0.037203 0.0500606 0.0377463 0.067344 0.0508619 0.0559077 0.0645471 0.0579154 0.0656062 0.0618106 0.0629216 0.0694744
89 3 O 1.93416 15.2965 1.4948 -1.2 1 0.0370924 0.0146884 0.021965 0.0130806 0.0350632 0.0301237 0.0362569 0.0589387 0.0429462 0.0468082 0.0485903 0.050445 0.0465262 0.0739895 0.0809359 0.0776502 0.0588573 0.0740398 0.0624345 0.0771799
90 3 O 4.85636 15.5644 0.196716 -1.2 1 0.0226005 0.0121259 0.021535 0.0193006 0.0251082 0.0513876 0.0495309 0.0396517 0.0396329 0.0447258 0.037023 0.032425 0.0633556 0.0535259 0.0673776 0.0673592 0.0757282 0.0635073 0.0729174 0.0679371
91 1 Mg 6.44662 14.247 2.9896 1.2 1 0.00880925 0.0160137 0.0216978 0.0228088 0.0214158 0.0369236 0.0387294 0.0542181 0.0363565 0.0592304 0.0343903 0.0650812 0.0253589 0.0676622 0.0456455 0.0772234 0.0450971 0.0917362 0.0440776 0.0925922
92 3 O 4.81537 15.5644 2.79288 -1.2 1 0.0190271 0.0108248 0.0229634 0.0109021 0.0279702 0.0380236 0.0463941 0.0488014 0.0431517 0.0388317 0.0513332 0.042705 0.0514122 0.0539476 0.0742806 0.0663644 0.0749419 0.05295 0.0714628 0.0768427
93 1 Mg -0.948271 14.2883 4.4844 1.2 1 0.0164145 0.0124973 0.0129175 0.0271163 0.0245855 0.0314974 0.0343703 0.0361476 0.043401 0.0483717 0.0588189 0.0561081 0.0652317 0.066882 0.0579968 0.0702621 0.0726767 0.0940469 0.072735 0.0823548
94 2 Si -2.75928 16.9724 4.4844 2.4 1 0.0179462 0.0152292 0.0208149 0.0236591 0.0268078 0.0422654 0.0552624 0.0317684 0.0520166 0.064578 0.0520546 0.0650132 0.0577868 0.0567497 0.0759955 0.0690785 0.0483366 0.093684 0.054279 0.0638606
95 3 O -2.81617 15.3592 4.4844 -1.2 1 0.0147837 0.0176491 0.0108343 0.0246466 0.0308069 0.0237318 0.0443545 0.0635393 0.0434366 0.0543386 0.0379895 0.0723029 0.0469959 0.0596908 0.067856 0.0698052 0.052037 0.0744863 0.0622797 0.0759726
96 3 O 0.862762 17.9465 4.4844 -1.2 1 0.0223486 0.0241838 0.0206405 0.015175 0.0194655 0.0473466 0.0349084 0.0514266 0.0450386 0.053423 0.0408495 0.0471682 0.04358 0.0720639 0.105179 0.057638 0.0707906 0.0526339 0.074588 0.0692542
97 3 O -2.0185 17.6786 3.18632 -1.2 1 0.021306 0.00749522 0.0201441 0.0182864 0.0171395 0.0379221 0.0420983 0.055178 0.0414818 0.0532282 0.0538155 0.0488222 0.0563479 0.0486642 0.0816395 0.059713 0.0695798 0.0665678 0.0638331 0.066956
98 3 O -2.06164 17.6786 5.78248 -1.2 1 0.0222669 0.014265 0.0169176 0.0218001 0.015084 0.0271881 0.0484623 0.0466115 0.0385566 0.04061 0.0572294 0.0414716 0.0558416 0.0556195 0.0821572 0.067791 0.0697965 0.0611126 0.0691127 0.0773087
99 1 Mg 1.39817 16.6215 2.9896 1.2 1 0.00598404 0.0166316 0.0191587 0.0226579 0.0185112 0.0362428 0.0372801 0.0531862 0.0370271 0.0599566 0.0361508 0.055961 0.0241627 0.0673109 0.0465604 0.0803434 0.0483288 0.0904578 0.0452674 0.0895851
100 1 Mg 4.20062 16.5802 4.4844 1.2 1 0.0157992 0.0155423 0.0168709 0.0300294 0.0251479 0.0292425 0.0445229 0.0343541 0.0457247 0.0502246 0.0559633 0.0552502 0.0685905 0.0692152 0.0540865 0.0732335 0.0709901 0.0964555 0.0753859 0.0792182
101 2 Si 2.37796 18.645 4.4844 2.4 1 0.0232095 0.0113583 0.0190317 0.0289226 0.0264904 0.034813 0.0624987 0.0290295 0.0551438 0.0616676 0.0508561 0.0577762 0.0630846 0.0546323 0.0721729 0.0663527 0.0470072 0.0981139 0.0546411 0.059162
102 3 O 2.39434 20.2583 4.4844 -1.2 1 0.0266601 0.011419 0.0109957 0.0184891 0.0264147 0.0223513 0.0407537 0.0581666 0.0445243 0.0494093 0.041866 0.073808 0.0473089 0.0629878 0.069211 0.0673842 0.0496459 0.0664768 0.0642927 0.0796038
103 3 O -4.24274 17.671 4.4844 -1.2 1 0.0178209 0.0225395 0.0203389 0.0182532 0.021446 0.0482723 0.0354285 0.0489878 0.0429365 0.0534522 0.0382556 0.0513858 0.0496475 0.0706692 0.0991545 0.0625907 0.0760953 0.0525963 0.0787111 0.0703852
104 3 O 3.08659 17.9389 3.18632 -1.2 1 0.0292856 0.0172604 0.0205152 0.0110607 0.0179031 0.0396372 0.0373137 0.0549697 0.0469606 0.0495266 0.0559756 0.0497041 0.0508394 0.0489313 0.0796643 0.06016 0.0661117 0.0614572 0.0653453 0.0698326
105 1 Mg 1.44478 16.6215 0 1.2 1 0.00969471 0.011849 0.0217022 0.01279 0.0267848 0.0316835 0.0478855 0.035486 0.0506747 0.050404 0.0517546 0.0397099 0.0588641 0.0494237 0.0698586 0.0658189 0.0601651 0.0678374 0.0889571 0.0636422
106 3 O 3.0436 17.9389 5.78248 -1.2 1 0.0250184 0.0155084 0.0141609 0.0190647 0.017998 0.0227473 0.0490198 0.046916 0.0398914 0.0371554 0.0602672 0.0339666 0.0553561 0.058806 0.0853812 0.0638259 0.0678531 0.0619523 0.0668858 0.0793892
107 1 Mg -1.40524 16.6628 1.4948 1.2 1 0.00681838 0.0153332 0.025926 0.0193782 0.0181318 0.0352434 0.0364708 0.041938 0.040499 0.0598169 0.0400213 0.0648124 0.0558134 0.0648838 0.0744765 0.0696469 0.0634721 0.0784777 0.0792788 0.0757165
108 2 Si 0.420358 14.5979 1.4948 2.4 1 0.0209772 0.0198057 0.0273015 0.0269372 0.0181666 0.0393761 0.0393029 0.0398967 0.0448142 0.0557861 0.0439418 0.0604861 0.0575608 0.0638528 0.0672867 0.0598946 0.0724258 0.0758645 0.0628305 0.0711744
109 3 O 0.408732 12.9847 1.4948 -1.2 1 0.022164 0.0155593 0.0229696 0.0256096 0.0169117 0.0472052 0.0434997 0.0538477 0.0357858 0.0526072 0.0423175 0.069231 0.0532433 0.0569123 0.0664128 0.063678 0.0716433 0.0549191 0.068278 0.0716626
110 3 O 7.03923 15.572 1.4948 -1.2 1 0.0292762 0.0168449 0.0217552 0.0129599 0.0361302 0.0338489 0.036865 0.0558206 0.0385094 0.0442127 0.0513074 0.0526294 0.0479535 0.0747246 0.0781343 0.0785579 0.0643803 0.069792 0.0621103 0.078118
111 3 O -0.248332 15.3041 0.196716 -1.2 1 0.0188739 0.0128735 0.020951 0.0184855 0.0253482 0.0467407 0.0488913 0.0432988 0.0391451 0.04518 0.0376995 0.0307167 0.0607956 0.0541512 0.0698535 0.0642411 0.0832379 0.0502015 0.0705263 0.0721827
112 3 O -0.289436 15.3041 2.79288 -1.2 1 0.0183565 0.0157409 0.0271036 0.0100195 0.0313627 0.0366843 0.0439669 0.0481428 0.0433649 0.0412343 0.0540769 0.049139 0.0515973 0.0525415 0.0714561 0.0681167 0.0706391 0.0554967 0.0694276 0.077084
113 1 Mg 6.59566 18.996 0 1.2 1 0.0139375 0.0115918 0.0200383 0.0142635 0.0261192 0.031896 0.0432281 0.0330348 0.0538871 0.0493629 0.0536665 0.0389944 0.0520298 0.0526234 0.072258 0.0644234 0.0643935 0.06456 0.0860694 0.0706653
114 1 Mg 3.85574 23.7037 1.4948 1.2 1 0.01285 0.0139002 0.0212924 0.0153009 0.0225599 0.0288146 0.0311806 0.0365273 0.0390166 0.0593884 0.0477294 0.0625093 0.0512272 0.0656006 0.0624642 0.0728624 0.0666246 0.0792006 0.0794982 0.0763659
115 2 Si 5.66125 21.0195 1.4948 2.4 1 0.00858644 0.0226564 0.024827 0.0274407 0.0201206 0.0457844 0.0337738 0.0434003 0.0474005 0.0540772 0.0443461 0.061088 0.0557201 0.0600078 0.0709932 0.06066 0.0732864 0.0772751 0.064976 0.0751329
116 3 O 5.72074 22.6328 1.4948 -1.2 1 0.0289356 0.0215696 0.0178557 0.0244457 0.0163212 0.0460613 0.044204 0.061335 0.0370892 0.0522432 0.0330499 0.069262 0.0493589 0.0529063 0.0670241 0.0548601 0.0651339 0.0664555 0.0563071 0.0719561
117 3 O 2.03867 20.0455 1.4948 -1.2 1 0.0300467 0.0164472 0.0266772 0.0160323 0.0342551 0.0301116 0.0358644 0.055321 0.0441422 0.0426379 0.0505403 0.0501408 0.0474794 0.0741664 0.0847667 0.0724254 0.0618424 0.0679887 0.0634848 0.0734542
118 3 O 4.96004 20.3134 0.196716 -1.2 1 0.0242185 0.0103091 0.0243504 0.0198607 0.0223799 0.0456943 0.0451612 0.0480221 0.0403917 0.0419665 0.0406152 0.0350917 0.0653236 0.0477789 0.0697188 0.073732 0.0701982 0.0583658 0.0710944 0.0716066
119 1 Mg 6.55057 18.996 2.9896 1.2 1 0.0117402 0.0158756 0.0179521 0.0214328 0.0222331 0.0345048 0.0367905 0.0554752 0.0330613 0.0580604 0.0349308 0.0638821 0.0219449 0.070244 0.044494 0.0752311 0.0465394 0.0959225 0.0434022 0.0938543
120 3 O 4.92172 20.3134 2.79288 -1.2 1 0.0128472 0.0100948 0.0293384 0.0163713 0.0288507 0.0407045 0.0456398 0.0466088 0.047174 0.0435308 0.0525284 0.0400048 0.0525935 0.0527522 0.0766906 0.066998 0.0760523 0.050136 0.0726354 0.0729692
121 1 Mg -0.84282 19.0373 4.4844 1.2 1 0.0145204 0.0129687 0.0156038 0.0287638 0.0244355 0.0268052 0.0380588 0.0322139 0.0441651 0.0483416 0.0599988 0.0588246 0.0671924 0.0687506 0.0595219 0.0725917 0.0710423 0.0937065 0.0718498 0.0835098
122 2 Si -2.64823 21.7214 4.4844 2.4 1 0.0180219 0.0169429 0.0169066 0.0278227 0.031067 0.0408781 0.0565928 0.0306044 0.0517241 0.0648743 0.0528915 0.0609152 0.0613639 0.0534636 0.0761211 0.0736284 0.0488797 0.0926552 0.0546957 0.0657333
123 3 O -2.70847 20.1082 4.4844 -1.2 1 0.0133748 0.0200537 0.0136743 0.0275051 0.0240067 0.0255567 0.0387939 0.063505 0.0430737 0.0474783 0.0390935 0.0712551 0.0522462 0.0566669 0.0678457 0.0655169 0.053374 0.0702937 0.0671883 0.0761113
124 3 O 0.97581 22.6955 4.4844 -1.2 1 0.0140236 0.0275013 0.0210655 0.0221205 0.018657 0.0418435 0.0352016 0.0479378 0.0402912 0.0524645 0.0453843 0.0432759 0.048923 0.0745817 0.103744 0.0536735 0.0678619 0.0566356 0.0739586 0.066539
125 3 O -1.9076 22.4276 3.18632 -1.2 1 0.0205884 0.00727101 0.0209131 0.013048 0.0155909 0.0386004 0.0455034 0.0563291 0.0399616 0.0486006 0.0557829 0.0487353 0.0567384 0.050466 0.0805529 0.058465 0.0676899 0.0647058 0.0615098 0.0662824
126 3 O -1.9475 22.4276 5.78248 -1.2 1 0.0193149 0.0126635 0.0210887 0.020279 0.0193452 0.0277336 0.0513373 0.0463387 0.0432577 0.03637 0.056061 0.0363585 0.0557863 0.0660315 0.0782344 0.0704562 0.0682651 0.0621728 0.071373 0.0776606