ITEM: TIMESTEP
36000
ITEM: NUMBER OF ATOMS
10500
ITEM: BOX BOUNDS xy xz yz pp pp pp
0	15.2977	5.09925
0	118.725	0
0	89.688	0
ITEM: ATOMS id type element xu yu zu q Q_1 Q_2 Q_3 Q_4 Q_5 Q_6 Q_7 Q_8 Q_9 Q_10 Q_11 Q_12 Q_13 Q_14 Q_15 Q_16 Q_17 Q_18 Q_19 Q_20 Q_21
1 1 Mg 6.2404 -6.37941e-06 0 1.2 1 0.013053 0.0407904 0.0297062 0.0356848 0.0333216 0.0412887 0.0356862 0.068649 0.039053 0.0712578 0.0339322 0.0596019 0.0461104 0.0685596 0.0498063 0.0922508 0.051774 0.0837288 0.0511761 0.10236
2 1 Mg 3.46349 4.70768 1.4948 1.2 1 0.0168915 0.0168591 0.0243714 0.0216672 0.0202069 0.0421759 0.0422663 0.039687 0.0458556 0.0556309 0.0425378 0.0701626 0.0575999 0.0713964 0.0715823 0.0645363 0.0680182 0.0854125 0.0731319 0.0817018
3 2 Si 5.2885 2.02354 1.4948 2.4 1 0.0172514 0.0228339 0.0318745 0.0266193 0.0311601 0.037865 0.0549264 0.0312787 0.0433242 0.0540997 0.0530026 0.0606446 0.0552013 0.0653513 0.0679924 0.0788076 0.070255 0.0643801 0.0644857 0.0718663
4 3 O 5.33628 3.63678 1.4948 -1.2 1 0.00934595 0.0141196 0.0268796 0.0259579 0.0183681 0.0390236 0.0417572 0.060243 0.0351203 0.0401662 0.0546918 0.0509201 0.0676152 0.0572612 0.059286 0.0649702 0.060321 0.0615983 0.0708893 0.0747043
5 3 O 1.67294 1.04952 1.4948 -1.2 1 0.0163734 0.0219638 0.0233482 0.0357737 0.0298293 0.0386086 0.0341328 0.0605541 0.0349827 0.0590052 0.0443141 0.0508244 0.0714783 0.059653 0.0764148 0.0696531 0.0631247 0.064282 0.0797693 0.0608025
6 3 O 4.59532 1.31737 0.196716 -1.2 1 0.0259219 0.0220874 0.0576045 0.0251735 0.0333323 0.0486235 0.0385007 0.0472357 0.0339366 0.0392409 0.0388392 0.0505871 0.0542832 0.0570353 0.0636232 0.0699468 0.061946 0.0714593 0.0591544 0.0707826
7 1 Mg 6.18956 -6.37941e-06 2.9896 1.2 1 0.0126081 0.0265 0.0173976 0.0214983 0.0372979 0.0423459 0.0502259 0.0406794 0.0488278 0.0459323 0.0399702 0.0548657 0.0393732 0.0551844 0.0586882 0.0795882 0.0566649 0.0695233 0.060109 0.0706312
8 3 O 4.55118 1.31737 2.79288 -1.2 1 0.0245163 0.0259357 0.0411529 0.0170645 0.0284942 0.0439926 0.044291 0.0478497 0.0437335 0.0542762 0.0539905 0.0486787 0.0493638 0.0663042 0.0533483 0.0700236 0.0641085 0.0666609 0.0652993 0.0711275
9 1 Mg -1.20682 0.0413099 4.4844 1.2 1 0.0173733 0.0294147 0.0173163 0.027116 0.0391605 0.0395714 0.0319992 0.0522424 0.05564 0.0404887 0.0479205 0.0607822 0.0630282 0.0568864 0.0765193 0.0631394 0.0803483 0.0731251 0.0632549 0.0538317
10 2 Si -3.0337 2.72544 4.4844 2.4 1 0.0320141 0.0163724 0.0191681 0.0126874 0.0304489 0.0358831 0.0628177 0.0314813 0.0594609 0.0506675 0.0441081 0.0577034 0.0541648 0.0737485 0.0567204 0.0599314 0.0726269 0.0805367 0.0759141 0.0609001
11 3 O -3.08099 1.11221 4.4844 -1.2 1 0.0129821 0.0210024 0.0262921 0.0233629 0.0397063 0.026048 0.0491143 0.0469761 0.0393995 0.0403271 0.0402701 0.0718578 0.0545738 0.0511583 0.0565123 0.0676392 0.0542293 0.0775658 0.0719523 0.0772396
12 3 O 0.582463 3.69946 4.4844 -1.2 1 0.00972587 0.0128899 0.0318137 0.031828 0.0237617 0.0619484 0.031113 0.055634 0.0432746 0.0393443 0.0552889 0.0580509 0.0605836 0.0699332 0.101144 0.0682992 0.0804252 0.0409229 0.0732265 0.0678851
13 3 O -2.29524 3.43162 3.18632 -1.2 1 0.0119413 0.0196641 0.0262257 0.0309704 0.0199898 0.0497896 0.0514237 0.0492944 0.0412853 0.0532186 0.0596084 0.0544366 0.0408755 0.0514162 0.0589271 0.0652335 0.066478 0.062198 0.0631948 0.0726716
14 3 O -2.34216 3.43162 5.78248 -1.2 1 0.025445 0.0125327 0.019241 0.0237386 0.0252713 0.0392546 0.0528861 0.0481931 0.0376486 0.0531429 0.0563723 0.0464498 0.0554664 0.0497892 0.0781453 0.0711531 0.062392 0.0704289 0.0730656 0.0747396
15 1 Mg 1.12778 2.37449 2.9896 1.2 1 0.0161183 0.0409008 0.0161444 0.023952 0.0255567 0.0423258 0.0410365 0.0506298 0.036866 0.0613655 0.0368902 0.0605836 0.0402768 0.0658103 0.0631599 0.069849 0.0687447 0.0824743 0.0475475 0.0878345
16 1 Mg 3.92855 2.33318 4.4844 1.2 1 0.0333301 0.0171764 0.0206073 0.024863 0.0450548 0.0257265 0.0389194 0.0361804 0.0469666 0.0690323 0.049389 0.0610223 0.0502092 0.0600997 0.0566399 0.0747968 0.0650738 0.094236 0.0750649 0.0836457
17 2 Si 2.09341 4.39804 4.4844 2.4 1 0.0114973 0.0206594 0.0313824 0.0160707 0.0406402 0.0280707 0.0633236 0.0223569 0.0434471 0.0481935 0.0617372 0.0605596 0.0677606 0.0590307 0.071477 0.0740965 0.0705383 0.0811497 0.0500278 0.067279
18 3 O 2.09991 6.01128 4.4844 -1.2 1 0.0125946 0.00981215 0.015488 0.0195455 0.0328122 0.0231703 0.0503924 0.0507775 0.0443101 0.0457163 0.0481094 0.0667729 0.0494214 0.061134 0.0669828 0.0722971 0.0467287 0.0820514 0.0648199 0.0688628
19 3 O -4.52137 3.42402 4.4844 -1.2 1 0.0196049 0.0269638 0.0335169 0.021653 0.0250182 0.0545381 0.0363927 0.0514141 0.0530547 0.0556421 0.0311827 0.0562386 0.052157 0.057232 0.0896685 0.0743543 0.0734826 0.0603962 0.0742723 0.0559738
20 3 O 2.80834 3.69187 3.18632 -1.2 1 0.0110969 0.0205872 0.0212592 0.0259864 0.0204175 0.0381207 0.0347734 0.0490463 0.0440508 0.0596352 0.0662004 0.0522677 0.0421182 0.0628454 0.0707632 0.071809 0.061032 0.0599138 0.0705277 0.0708302
21 1 Mg 1.17857 2.37449 0 1.2 1 0.0150058 0.0342446 0.028749 0.0275944 0.0377079 0.0380629 0.0431021 0.0589516 0.0358643 0.0494311 0.0510994 0.0419021 0.04202 0.067185 0.0561047 0.0641411 0.061512 0.0806422 0.058851 0.0734083
22 3 O 2.76143 3.69187 5.78248 -1.2 1 0.00431811 0.0198525 0.0200885 0.0190229 0.0187145 0.036434 0.0395146 0.0464747 0.0326625 0.0458299 0.0588863 0.0458293 0.0571485 0.0749428 0.0728843 0.0702135 0.0672908 0.0610003 0.071656 0.0739958
23 1 Mg -1.67381 2.41581 1.4948 1.2 1 0.0103643 0.00838251 0.0413645 0.0341769 0.0297592 0.0449601 0.0578165 0.0399324 0.050824 0.0412353 0.0440973 0.0569256 0.0538824 0.0632576 0.0597959 0.0631832 0.0841845 0.0778401 0.0665903 0.074324
24 2 Si 0.16286 0.350945 1.4948 2.4 1 0.0151089 0.0321509 0.0281454 0.0236672 0.0354195 0.0356281 0.0556712 0.0511226 0.0524459 0.0489369 0.0406272 0.055783 0.0740633 0.0690914 0.0570754 0.0730775 0.0694058 0.0650606 0.0736224 0.065645
25 3 O 0.15972 -1.26229 1.4948 -1.2 1 0.00912286 0.0157613 0.0396919 0.0213935 0.0369391 0.0357043 0.0453836 0.056004 0.0472667 0.0515683 0.0557862 0.0569328 0.0635887 0.0665216 0.0489912 0.0597449 0.0695407 0.067335 0.0614284 0.0737928
26 3 O 6.77654 1.32496 1.4948 -1.2 1 0.0113775 0.0276569 0.026666 0.0276257 0.0372785 0.0543452 0.0345178 0.0644766 0.047685 0.0464871 0.0444682 0.0524989 0.0525441 0.0594294 0.0687519 0.0714081 0.084644 0.0633168 0.0597213 0.0746843
27 3 O -0.508028 1.05712 0.196716 -1.2 1 0.0246418 0.0190405 0.0295644 0.0206343 0.0293248 0.0532999 0.0436579 0.0446921 0.0469963 0.0482553 0.0502781 0.0482755 0.0494177 0.0635482 0.0550048 0.0629154 0.0633736 0.059051 0.0718352 0.0721043
28 3 O -0.552171 1.05712 2.79288 -1.2 1 0.035306 0.0280067 0.0364378 0.0328177 0.0227779 0.0436541 0.0395066 0.0453707 0.0426368 0.036849 0.0498929 0.0492785 0.0574088 0.0606785 0.0637766 0.0747466 0.0728939 0.0499813 0.0708517 0.0703331
29 1 Mg 6.31713 4.74899 0 1.2 1 0.0271188 0.0298264 0.0296987 0.0357564 0.0322696 0.0253957 0.040936 0.0568431 0.0587439 0.0496044 0.0510108 0.0394275 0.058708 0.0618195 0.066536 0.063389 0.0663268 0.0742076 0.0706865 0.0694555
30 1 Mg 3.54847 9.45668 1.4948 1.2 1 0.02179 0.0144079 0.0179621 0.020598 0.0183316 0.0382765 0.0381901 0.0417547 0.0446905 0.0555438 0.0383677 0.0688938 0.0521617 0.0657362 0.0716369 0.0633159 0.0671858 0.0872271 0.0740904 0.0790164
31 2 Si 5.36879 6.77254 1.4948 2.4 1 0.0290611 0.0269152 0.0239528 0.0256694 0.0247732 0.0349486 0.0443302 0.036187 0.0448229 0.0571739 0.0421647 0.0581459 0.0535122 0.0666425 0.0655888 0.0742657 0.0672308 0.0789625 0.0562436 0.0687948
32 3 O 5.41937 8.38578 1.4948 -1.2 1 0.0215184 0.011361 0.0234865 0.0296172 0.0174884 0.0431168 0.0440916 0.0572487 0.0362238 0.0505256 0.0474611 0.0642241 0.0550764 0.0537275 0.066559 0.0609492 0.0728876 0.0561927 0.072938 0.0732868
33 3 O 1.75158 5.79852 1.4948 -1.2 1 0.0284436 0.012311 0.0223311 0.0266215 0.0441158 0.030892 0.0390786 0.0571323 0.0409944 0.052603 0.0495002 0.0502342 0.047279 0.0711523 0.0787574 0.078453 0.0603275 0.0750569 0.0598351 0.0766591
34 3 O 4.67421 6.06637 0.196716 -1.2 1 0.0145592 0.0265033 0.0315819 0.0243875 0.0319883 0.0378241 0.0346174 0.0322784 0.0447232 0.0561691 0.039277 0.0443004 0.0666981 0.0564523 0.0675968 0.0712973 0.0715757 0.0656525 0.0634442 0.0687114
35 1 Mg 6.26654 4.74899 2.9896 1.2 1 0.0186499 0.0273142 0.0254435 0.0407884 0.0259805 0.0442609 0.0483806 0.0483585 0.0351541 0.0628384 0.0366751 0.0598067 0.0386448 0.0635019 0.0513452 0.0789474 0.05632 0.0830815 0.0452197 0.0892766
36 3 O 4.63043 6.06637 2.79288 -1.2 1 0.0177187 0.0188763 0.0416094 0.0195542 0.0315291 0.036861 0.0422055 0.0491722 0.0448667 0.0371473 0.0497318 0.0511045 0.056904 0.0645593 0.0620632 0.0741016 0.0658152 0.0669343 0.0690143 0.0835852
37 1 Mg -1.12976 4.79031 4.4844 1.2 1 0.021213 0.0274205 0.0126655 0.012605 0.0378192 0.0373952 0.0489944 0.0483995 0.0442556 0.0426688 0.0549796 0.0606551 0.0740613 0.0701688 0.062202 0.0699212 0.0716298 0.0955212 0.0727232 0.0796005
38 2 Si -2.9517 7.47444 4.4844 2.4 1 0.0223505 0.0132891 0.0196735 0.0282291 0.0301867 0.0420673 0.0626797 0.0284375 0.0553987 0.0586997 0.0515732 0.057324 0.062229 0.056752 0.0792238 0.07119 0.0524381 0.0890574 0.0556666 0.0621007
39 3 O -3.00198 5.86121 4.4844 -1.2 1 0.0144652 0.0231124 0.0274662 0.0282442 0.0317606 0.0317804 0.0541498 0.0587215 0.0380671 0.0547718 0.0474269 0.0697823 0.0588925 0.0563857 0.0668445 0.0707061 0.0534128 0.0791426 0.0626124 0.0772918
40 3 O 0.666315 8.44846 4.4844 -1.2 1 0.0122292 0.0222098 0.0258393 0.0203508 0.0197425 0.054348 0.0322227 0.0496438 0.0430857 0.0492032 0.0429793 0.05234 0.0514649 0.0777192 0.0999273 0.0668401 0.0757714 0.0509027 0.0716009 0.0725131
41 3 O -2.21213 8.18062 3.18632 -1.2 1 0.0182289 0.0148768 0.016713 0.0158335 0.0172333 0.0355873 0.0462304 0.0537605 0.0457982 0.0536298 0.0539464 0.0516727 0.0529304 0.0468128 0.0780727 0.0624879 0.0712862 0.0584366 0.0674307 0.0706574
42 3 O -2.25864 8.18062 5.78248 -1.2 1 0.0157353 0.0165864 0.0169488 0.0176416 0.0175508 0.0282615 0.0478936 0.050814 0.0372939 0.0399184 0.0573578 0.0361074 0.0619395 0.0527885 0.0828055 0.0714374 0.0688606 0.0634538 0.065586 0.0744245
43 1 Mg 1.20893 7.12349 2.9896 1.2 1 0.00750478 0.0227358 0.0177532 0.0243739 0.0241896 0.0396092 0.0428431 0.0463276 0.0335202 0.0645186 0.038067 0.0670715 0.0356892 0.0594735 0.0523942 0.0808036 0.0520078 0.0845472 0.0473943 0.0866414
44 1 Mg 4.00982 7.08218 4.4844 1.2 1 0.0210251 0.0134056 0.0235337 0.0346813 0.0311833 0.0350427 0.0450527 0.0365747 0.0462825 0.0515769 0.0562104 0.0549026 0.0702406 0.074406 0.0578641 0.0682369 0.0644069 0.096155 0.0760338 0.0790026
45 2 Si 2.17861 9.14704 4.4844 2.4 1 0.0284488 0.0105434 0.0213337 0.0199932 0.0286591 0.0356959 0.0623321 0.0243865 0.050216 0.0535425 0.0562163 0.0612681 0.0661234 0.0574504 0.0792342 0.0706172 0.0493271 0.092192 0.0538407 0.0573503
46 3 O 2.18828 10.7603 4.4844 -1.2 1 0.0206677 0.0104796 0.00521734 0.0163604 0.0254589 0.0232426 0.0423999 0.0600687 0.0398334 0.0520193 0.0415154 0.0727679 0.0473677 0.0634357 0.0695915 0.0696584 0.0473607 0.0707818 0.0652615 0.0722429
47 3 O -4.43805 8.17302 4.4844 -1.2 1 0.0152462 0.0193446 0.0179745 0.0179975 0.0222433 0.0529559 0.0372326 0.0484774 0.0469539 0.0509698 0.0356587 0.0539658 0.052912 0.0715984 0.0997125 0.0664992 0.0778484 0.0522584 0.0750134 0.0729177
48 3 O 2.89193 8.44087 3.18632 -1.2 1 0.0179588 0.0153497 0.0179445 0.013941 0.0210155 0.0419719 0.0337349 0.055192 0.0431714 0.0515569 0.0592559 0.0488492 0.0515784 0.0539258 0.0811012 0.062329 0.0698212 0.0590076 0.0659609 0.0735733
49 1 Mg 1.25915 7.12349 0 1.2 1 0.0201454 0.0152259 0.0248207 0.014571 0.0320139 0.0254509 0.0524008 0.0403821 0.0556524 0.0499648 0.0526184 0.0425164 0.0716744 0.0511796 0.067241 0.0710628 0.0652727 0.0707606 0.0811408 0.0584347
50 3 O 2.84547 8.44087 5.78248 -1.2 1 0.0133881 0.0145066 0.014343 0.0164059 0.018276 0.0276132 0.0445116 0.0477293 0.0380248 0.0420234 0.0607279 0.039088 0.0585152 0.0587292 0.0905648 0.062635 0.0698656 0.0661412 0.0667532 0.0770871
51 1 Mg -1.59284 7.16481 1.4948 1.2 1 0.00888695 0.0174484 0.0210006 0.0220875 0.0149398 0.0372185 0.0468194 0.0441789 0.0453177 0.0569387 0.0388637 0.0642353 0.0518222 0.0689588 0.0736809 0.0608011 0.0672593 0.0829441 0.073959 0.0788544
52 2 Si 0.240329 5.09994 1.4948 2.4 1 0.0215378 0.0202187 0.0147164 0.0437853 0.0273487 0.0407256 0.0473511 0.0518202 0.0554394 0.0494434 0.0455928 0.0563914 0.0582037 0.0691112 0.0657248 0.0678312 0.0640701 0.072097 0.0656988 0.0680952
53 3 O 0.234538 3.48671 1.4948 -1.2 1 0.0131514 0.0164368 0.02662 0.0358851 0.0314167 0.0491232 0.045827 0.0423427 0.0527093 0.046701 0.0522072 0.0615365 0.0563766 0.0608254 0.0621568 0.062768 0.0625878 0.057336 0.0758342 0.0740003
54 3 O 6.85564 6.07396 1.4948 -1.2 1 0.0324586 0.0194733 0.0345817 0.0276486 0.0372044 0.0403819 0.0323998 0.0623732 0.0365769 0.0530606 0.0537204 0.0533449 0.0553849 0.0736066 0.0699301 0.0770722 0.0665339 0.0723432 0.0532623 0.085259
55 3 O -0.429565 5.80612 0.196716 -1.2 1 0.0340641 0.0200704 0.0160079 0.0212795 0.0409646 0.0374203 0.0538576 0.0450058 0.0460274 0.0563341 0.0397938 0.0419202 0.0532512 0.0600085 0.060026 0.068092 0.0704494 0.0610613 0.0651949 0.0742405
56 3 O -0.473377 5.80612 2.79288 -1.2 1 0.0317707 0.0172802 0.0314286 0.0186885 0.0328948 0.0480483 0.0491589 0.0501054 0.0544991 0.0446737 0.0611449 0.0377949 0.041999 0.0574765 0.0656856 0.0691991 0.0635755 0.0692584 0.0728639 0.079506
57 1 Mg 6.40169 9.49799 0 1.2 1 0.0127134 0.0119697 0.0212734 0.014477 0.0304876 0.0215523 0.0521622 0.0355353 0.058476 0.0493535 0.0497201 0.0353719 0.0670972 0.0523966 0.0708897 0.066874 0.0655298 0.0703629 0.0813493 0.0681863
58 1 Mg 3.64209 14.2057 1.4948 1.2 1 0.0152956 0.00927004 0.0190481 0.0180895 0.0211198 0.0336422 0.035694 0.0432317 0.040703 0.0545123 0.0398467 0.0665898 0.0531557 0.0658511 0.0710757 0.0647453 0.0648463 0.0821726 0.0742992 0.0780652
59 2 Si 5.45748 11.5215 1.4948 2.4 1 0.0107334 0.0234183 0.0214608 0.0249926 0.017603 0.0404724 0.0399891 0.0385889 0.044303 0.0558272 0.0425561 0.0597047 0.0527979 0.0672356 0.0693599 0.064122 0.0714333 0.0808483 0.0589665 0.0665603
60 3 O 5.51101 13.1348 1.4948 -1.2 1 0.0242311 0.0133186 0.0223711 0.0292772 0.0200299 0.0433405 0.0443209 0.059025 0.0362295 0.0495281 0.0429219 0.0674618 0.0531833 0.053316 0.0660952 0.0606785 0.0704897 0.0581448 0.0692108 0.0719948
61 3 O 1.83851 10.5475 1.4948 -1.2 1 0.0351847 0.0140379 0.0216268 0.0138026 0.0362882 0.030041 0.0367266 0.0588011 0.0395646 0.0478649 0.0497143 0.0516803 0.0474802 0.0752054 0.075976 0.0801225 0.0566125 0.076207 0.0579457 0.0787925
62 3 O 4.7611 10.8154 0.196716 -1.2 1 0.0292694 0.0230554 0.0225063 0.0193517 0.0278691 0.044498 0.0473867 0.036536 0.0361409 0.0469111 0.0384354 0.038988 0.059275 0.0594192 0.0637389 0.0693429 0.0753715 0.0649107 0.0722861 0.0696698
63 1 Mg 6.35203 9.49799 2.9896 1.2 1 0.0128098 0.0175251 0.025482 0.0210017 0.0194461 0.0380141 0.0372268 0.0507948 0.0351435 0.0588878 0.0316991 0.0653219 0.0280242 0.0665691 0.0469238 0.0806432 0.0445594 0.0898267 0.0445195 0.0900839
64 3 O 4.71833 10.8154 2.79288 -1.2 1 0.0259208 0.00942788 0.0309394 0.0125081 0.0296117 0.0441853 0.0439293 0.045077 0.0422975 0.0370327 0.052657 0.0424519 0.0540239 0.0590247 0.0730789 0.0686955 0.0720087 0.0593498 0.0691877 0.0813293
65 1 Mg -1.0438 9.53931 4.4844 1.2 1 0.0128856 0.0183655 0.0140384 0.0235446 0.0253871 0.0307952 0.0365265 0.0360281 0.0463571 0.0493172 0.0557155 0.0570827 0.0665758 0.0728251 0.058787 0.070401 0.0734104 0.094494 0.0706751 0.084086
66 2 Si -2.8604 12.2234 4.4844 2.4 1 0.0164397 0.0167125 0.0152199 0.0231431 0.032238 0.0425405 0.0576935 0.0305119 0.0513429 0.0640263 0.0541419 0.0598623 0.0599162 0.0545756 0.0779177 0.0715975 0.0534344 0.0925986 0.0556729 0.0615376
67 3 O -2.91391 10.6102 4.4844 -1.2 1 0.0196728 0.0101127 0.00658805 0.022501 0.028459 0.0261709 0.0438618 0.0654936 0.0404805 0.0497283 0.0349233 0.071595 0.0461531 0.0578185 0.0674385 0.0701934 0.0532777 0.0717422 0.0643746 0.0759863
68 3 O 0.7596 13.1975 4.4844 -1.2 1 0.0267032 0.0257885 0.0197544 0.0125395 0.0237486 0.0511463 0.0340003 0.0498012 0.0445262 0.0500141 0.0390585 0.0483338 0.0480683 0.0716504 0.099712 0.0645636 0.0742231 0.0554164 0.0719737 0.0741619
69 3 O -2.12001 12.9296 3.18632 -1.2 1 0.0202459 0.00670501 0.0212519 0.017368 0.0190029 0.0363652 0.0407788 0.0543318 0.0435099 0.0556463 0.0542117 0.0486253 0.0562304 0.0485669 0.0802574 0.0624488 0.072872 0.0623121 0.0670565 0.0699528
70 3 O -2.16532 12.9296 5.78248 -1.2 1 0.0229491 0.0145513 0.0175894 0.0195367 0.0145567 0.0269894 0.0495995 0.0447509 0.0369595 0.040483 0.0561745 0.0339767 0.0594269 0.0583447 0.0833388 0.0690735 0.0692369 0.0634093 0.0685159 0.0772864
71 1 Mg 1.29891 11.8725 2.9896 1.2 1 0.00982722 0.018026 0.0222557 0.0243541 0.0194133 0.0362388 0.0377664 0.0484356 0.0361023 0.0595856 0.0346239 0.0607004 0.024989 0.0677734 0.047635 0.0824567 0.0478812 0.0890292 0.0483498 0.0864975
72 1 Mg 4.10033 11.8312 4.4844 1.2 1 0.0110139 0.0166305 0.0153738 0.0241613 0.0301816 0.0316677 0.0400081 0.0362396 0.0486221 0.0525156 0.0515904 0.0542767 0.0664353 0.0699879 0.0536972 0.0727225 0.068516 0.0956004 0.0757946 0.0796728
73 2 Si 2.27333 13.896 4.4844 2.4 1 0.0235647 0.00713929 0.0285637 0.0258672 0.0261057 0.0364504 0.0620174 0.0302418 0.0551333 0.05646 0.0524432 0.0611495 0.0629354 0.0558683 0.0754298 0.0686199 0.0465596 0.0972331 0.0546633 0.05675
74 3 O 2.28634 15.5093 4.4844 -1.2 1 0.0223472 0.0166967 0.00176887 0.0198075 0.026293 0.0227659 0.0411845 0.0581636 0.0404385 0.0539589 0.0411737 0.0708918 0.0452253 0.0640625 0.0693623 0.0710181 0.0490917 0.0683422 0.0645139 0.0773395
75 3 O -4.34533 12.922 4.4844 -1.2 1 0.0213649 0.0188 0.0226608 0.0160266 0.0237764 0.0502838 0.0377007 0.0504361 0.0437871 0.0530053 0.0396662 0.0509672 0.0497732 0.074457 0.100022 0.0681336 0.0748059 0.0514225 0.07513 0.0745568
76 3 O 2.98455 13.1899 3.18632 -1.2 1 0.0292484 0.014134 0.0185151 0.0097063 0.0182801 0.0384109 0.0379241 0.0554171 0.0435559 0.0551929 0.0548187 0.0500134 0.0511079 0.0488061 0.0806717 0.0616228 0.0662704 0.0611014 0.0658564 0.0718686
77 1 Mg 1.34779 11.8725 0 1.2 1 0.0217344 0.00914865 0.0218672 0.0147313 0.0286752 0.0225843 0.0516065 0.034852 0.0576488 0.0509802 0.0498876 0.0351816 0.0649717 0.0499789 0.0705328 0.0643304 0.0616021 0.0699891 0.0872673 0.0598703
78 3 O 2.93934 13.1899 5.78248 -1.2 1 0.0176614 0.0128046 0.0211909 0.0196333 0.0200564 0.0232516 0.0488287 0.0470126 0.0411712 0.0410682 0.0574675 0.0376738 0.0593266 0.0569951 0.084529 0.0616983 0.0694143 0.0635115 0.0663294 0.0772144
79 1 Mg -1.50344 11.9138 1.4948 1.2 1 0.0128072 0.0197366 0.0221519 0.0236585 0.0147654 0.0370294 0.0389063 0.041699 0.0400808 0.0588414 0.035318 0.0675423 0.0512101 0.0648445 0.0730254 0.069362 0.0639419 0.0843158 0.0771524 0.0783804
80 2 Si 0.326006 9.84894 1.4948 2.4 1 0.0281591 0.0179339 0.0268081 0.0293768 0.0168687 0.038117 0.043279 0.0400378 0.0437436 0.0545737 0.0397303 0.0605696 0.0560874 0.0663197 0.0610199 0.0623439 0.0704197 0.0804465 0.0615586 0.0693757
81 3 O 0.317364 8.23571 1.4948 -1.2 1 0.02248 0.0124972 0.0225124 0.0240632 0.019836 0.0451579 0.0430879 0.0499417 0.0348088 0.0544016 0.0438671 0.0658974 0.0572026 0.0596872 0.0677553 0.0663713 0.0714359 0.0537886 0.0731676 0.0746037
82 3 O 6.94307 10.823 1.4948 -1.2 1 0.0311961 0.0148303 0.0220903 0.0119599 0.0373378 0.0329501 0.038101 0.0577017 0.0347803 0.0474723 0.0511886 0.0524546 0.0502885 0.0748522 0.073042 0.0799213 0.0615948 0.0728493 0.0582456 0.080335
83 3 O -0.343122 10.5551 0.196716 -1.2 1 0.026654 0.0195203 0.0238801 0.0225713 0.0298212 0.0415295 0.0511885 0.0388734 0.0378853 0.050634 0.0372226 0.0368808 0.0610092 0.0593992 0.0676996 0.0696848 0.0799995 0.0544735 0.0692345 0.0704303
84 3 O -0.385966 10.5551 2.79288 -1.2 1 0.0217852 0.0197596 0.0325966 0.0130581 0.0340393 0.0415084 0.0442066 0.0464196 0.0427839 0.0392655 0.0532238 0.048141 0.0488638 0.0549056 0.0699866 0.0719294 0.0674584 0.0604159 0.0683599 0.0785528
85 1 Mg 6.49448 14.247 0 1.2 1 0.022475 0.0101673 0.018453 0.0173706 0.0284525 0.0230903 0.0478537 0.0331663 0.0593095 0.0483495 0.0515443 0.0370683 0.062717 0.0527627 0.0708124 0.0648849 0.0644588 0.070483 0.0852705 0.069943
86 1 Mg 3.74457 18.9547 1.4948 1.2 1 0.0191741 0.00917924 0.0158804 0.0180067 0.0251304 0.0295159 0.0311381 0.0388046 0.0378071 0.0567827 0.0444536 0.0667186 0.0511966 0.0656937 0.0677137 0.0708956 0.0631447 0.0827917 0.0784852 0.075983
87 2 Si 5.55495 16.2705 1.4948 2.4 1 0.0120695 0.0200716 0.0220367 0.0268371 0.0185466 0.0425796 0.0364009 0.0421297 0.0451305 0.0518223 0.0434447 0.0606983 0.0544749 0.0642046 0.0698745 0.0588981 0.0729829 0.0797337 0.0607444 0.0705354
88 3 O 5.6115 17.8838 1.4948 -1.2 1 0.0269801 0.0180329 0.0234892 0.0254363 0.0194547 0.0435774 0.0449496 0.0608584 0.0367831 0.0499073 0.0377667 0.0674359 0.051049 0.0561489 0.0650698 0.0582007 0.0654968 0.0617047 0.0629622 0.0692493
89 3 O 1.93416 15.2965 1.4948 -1.2 1 0.037064 0.0144951 0.02203 0.0133171 0.0350298 0.0304686 0.036116 0.0588283 0.0433925 0.0470756 0.0486289 0.0502139 0.0460565 0.0738707 0.0808913 0.0779313 0.0586168 0.0740304 0.0621104 0.0773457
90 3 O 4.85636 15.5644 0.196716 -1.2 1 0.022532 0.0132962 0.0238956 0.0209675 0.0236528 0.0517671 0.0506647 0.0396042 0.0397477 0.0457988 0.0369272 0.0330652 0.0634761 0.0531267 0.065958 0.067191 0.0735844 0.0632711 0.0714696 0.0684005
91 1 Mg 6.44662 14.247 2.9896 1.2 1 0.0117158 0.016235 0.0199051 0.0227786 0.0192754 0.0362151 0.037888 0.0535845 0.0357657 0.0563634 0.0344919 0.0644344 0.0251295 0.0684455 0.0461364 0.0790261 0.0476632 0.091618 0.0423202 0.0918209
92 3 O 4.81537 15.5644 2.79288 -1.2 1 0.0182661 0.0075541 0.0275651 0.0138005 0.0274886 0.0395446 0.0461446 0.0473406 0.0455351 0.0384138 0.0521467 0.0418043 0.0516924 0.0555205 0.0745385 0.0652423 0.0750843 0.0529455 0.0732879 0.0745323
93 1 Mg -0.948271 14.2883 4.4844 1.2 1 0.015408 0.00843369 0.013564 0.0250316 0.0255859 0.0257629 0.0347572 0.0341377 0.048596 0.0479317 0.0597394 0.0554398 0.0641616 0.068157 0.056798 0.0713034 0.072418 0.0949294 0.071723 0.0793617
94 2 Si -2.75928 16.9724 4.4844 2.4 1 0.0154767 0.0177612 0.0163586 0.0249097 0.0317004 0.041508 0.0578683 0.030804 0.0515526 0.0643383 0.0516817 0.062171 0.0616656 0.0544083 0.0787403 0.0693871 0.0505925 0.0899042 0.0547573 0.0649171
95 3 O -2.81617 15.3592 4.4844 -1.2 1 0.0239447 0.0141189 0.0167441 0.0280439 0.0270475 0.0241035 0.0408996 0.0621783 0.0435587 0.0496712 0.0392415 0.070528 0.0490765 0.0585949 0.066338 0.0641916 0.0509868 0.0731658 0.0624633 0.0748686
96 3 O 0.862762 17.9465 4.4844 -1.2 1 0.0214397 0.0239529 0.021494 0.0164774 0.0188166 0.048523 0.0351453 0.0503648 0.0446607 0.0507853 0.0451101 0.0474145 0.0481332 0.0717894 0.102484 0.0570665 0.0694586 0.0521749 0.0718829 0.0685438
97 3 O -2.0185 17.6786 3.18632 -1.2 1 0.025015 0.0106889 0.0190508 0.0182597 0.0187933 0.0355192 0.0418765 0.0531322 0.0424316 0.053164 0.052546 0.0501531 0.0557495 0.0471288 0.082016 0.0597131 0.0687977 0.0678293 0.0660189 0.0675209
98 3 O -2.06164 17.6786 5.78248 -1.2 1 0.0147869 0.0145138 0.0229256 0.0234506 0.0159868 0.0259371 0.048888 0.0456134 0.037146 0.0393914 0.0568145 0.0384236 0.0570245 0.0580238 0.0830303 0.0711651 0.0686649 0.0616588 0.0678409 0.0766347
99 1 Mg 1.39817 16.6215 2.9896 1.2 1 0.00653542 0.0180714 0.0171184 0.0214558 0.0181845 0.0366012 0.0367289 0.0530593 0.0363317 0.0583459 0.0363849 0.0585255 0.0225443 0.067742 0.0467157 0.0829121 0.0505636 0.0921027 0.0440232 0.0884014
100 1 Mg 4.20062 16.5802 4.4844 1.2 1 0.0193942 0.0155842 0.0177268 0.02884 0.0268615 0.0301546 0.043168 0.0337933 0.0464945 0.0514634 0.0543758 0.0540817 0.0653077 0.0701691 0.0524806 0.0725344 0.0702995 0.0948578 0.0746931 0.0807457
101 2 Si 2.37796 18.645 4.4844 2.4 1 0.02088 0.0039097 0.0234789 0.0219134 0.0262755 0.039081 0.0590674 0.0337265 0.0556462 0.0578037 0.051116 0.0616223 0.0611744 0.0591829 0.0749352 0.0662751 0.0467756 0.099916 0.0542636 0.0549318
102 3 O 2.39434 20.2583 4.4844 -1.2 1 0.0232755 0.011503 0.012508 0.0168414 0.024353 0.0223382 0.0397621 0.0590589 0.0431004 0.0496753 0.0412274 0.0739675 0.0508518 0.0638688 0.0709682 0.0697081 0.0485623 0.0697111 0.0642935 0.078148
103 3 O -4.24274 17.671 4.4844 -1.2 1 0.0228674 0.019352 0.0219987 0.0143495 0.0234067 0.0470596 0.0359371 0.0508332 0.0428006 0.0520527 0.0363919 0.0487503 0.0479421 0.0725885 0.100397 0.0633232 0.0760763 0.0534138 0.0754367 0.0721923
104 3 O 3.08659 17.9389 3.18632 -1.2 1 0.0251493 0.0148255 0.020633 0.0114713 0.017987 0.0401095 0.0381566 0.0564461 0.045681 0.0501557 0.0580429 0.0472234 0.0521348 0.0512729 0.0800985 0.0588282 0.0664459 0.0609224 0.0637539 0.068651
105 1 Mg 1.44478 16.6215 0 1.2 1 0.00945999 0.0121388 0.0218522 0.012647 0.0268287 0.0316884 0.0479082 0.0353385 0.0508039 0.0505022 0.0519171 0.039349 0.0588575 0.0489419 0.0697983 0.0659283 0.0602748 0.0675265 0.0887829 0.064019
106 3 O 3.0436 17.9389 5.78248 -1.2 1 0.0209466 0.0145185 0.0178336 0.0188173 0.0170795 0.0261505 0.0459823 0.0458357 0.0400364 0.0409561 0.0605533 0.0401394 0.0568561 0.0581184 0.0882112 0.066464 0.0728298 0.0647473 0.0682153 0.0773262
107 1 Mg -1.40524 16.6628 1.4948 1.2 1 0.0116133 0.0126731 0.0254558 0.017868 0.0170619 0.0346051 0.0359073 0.0428434 0.0413524 0.0603087 0.0403303 0.0622529 0.054739 0.0641803 0.0737889 0.068903 0.0646469 0.0780856 0.0781948 0.0755074
108 2 Si 0.420358 14.5979 1.4948 2.4 1 0.0223861 0.0189342 0.0292243 0.0260727 0.0178596 0.0385377 0.0391905 0.0418664 0.044349 0.0553866 0.0426957 0.060704 0.0574403 0.0637769 0.0671647 0.0592685 0.0717789 0.0762748 0.0626509 0.0707501
109 3 O 0.408732 12.9847 1.4948 -1.2 1 0.0222122 0.0155664 0.0230992 0.0254047 0.0174073 0.0472905 0.0433144 0.0539825 0.03586 0.0526619 0.0423739 0.069532 0.0532904 0.0567953 0.0665934 0.0644742 0.0709382 0.0547758 0.0684417 0.0712676
110 3 O 7.03923 15.572 1.4948 -1.2 1 0.0293083 0.0167715 0.0217095 0.0127034 0.0360794 0.0335359 0.0371447 0.0556542 0.0382067 0.0441836 0.0513777 0.0527772 0.0481044 0.0746024 0.0781626 0.0785632 0.0644266 0.0700165 0.0624026 0.077544
111 3 O -0.248332 15.3041 0.196716 -1.2 1 0.0219854 0.0121417 0.0221333 0.0192401 0.0243184 0.0464024 0.0500765 0.0436043 0.0402389 0.0467833 0.0370254 0.0319504 0.0621007 0.0546661 0.0701584 0.0653057 0.0820468 0.0505615 0.069697 0.0712585
112 3 O -0.289436 15.3041 2.79288 -1.2 1 0.0222328 0.0146675 0.0246165 0.0112231 0.0309598 0.0374528 0.043413 0.0476213 0.0433227 0.0397018 0.0539732 0.0477847 0.0498376 0.0512919 0.0715494 0.0679078 0.0704949 0.0568552 0.0697099 0.0768402
113 1 Mg 6.59566 18.996 0 1.2 1 0.0136124 0.0118512 0.0197932 0.0145907 0.0258049 0.0316577 0.0430865 0.0330776 0.053875 0.049308 0.0541033 0.0389784 0.052363 0.0529608 0.0720036 0.0645557 0.0640616 0.0648684 0.0861531 0.0706313
114 1 Mg 3.85574 23.7037 1.4948 1.2 1 0.0128781 0.0140762 0.0211752 0.0157368 0.0226058 0.0287476 0.0311668 0.0368594 0.0388197 0.0597264 0.0473848 0.0617721 0.0507895 0.0655256 0.0619956 0.0728836 0.0667456 0.0793998 0.0806497 0.0758711
115 2 Si 5.66125 21.0195 1.4948 2.4 1 0.00831303 0.0242291 0.0232649 0.0271006 0.0193494 0.0462857 0.0339313 0.0415233 0.0490339 0.0540311 0.0452897 0.0602452 0.0564281 0.0595907 0.0721757 0.0604118 0.0735687 0.0775545 0.064464 0.0758678
116 3 O 5.72074 22.6328 1.4948 -1.2 1 0.0282008 0.0190458 0.0182149 0.0229861 0.0190788 0.0446208 0.0454694 0.0620146 0.0383062 0.0520179 0.0327227 0.06985 0.0489607 0.0535133 0.067914 0.0556288 0.0650014 0.0680986 0.0558393 0.0715999
117 3 O 2.03867 20.0455 1.4948 -1.2 1 0.0344109 0.0168373 0.0257002 0.0132444 0.0340758 0.0308423 0.0362924 0.0541437 0.0429245 0.0421904 0.0506815 0.0504059 0.0479118 0.0736215 0.084463 0.0711638 0.0626442 0.0676055 0.0643615 0.0722907
118 3 O 4.96004 20.3134 0.196716 -1.2 1 0.0210887 0.0102735 0.0228863 0.0186131 0.0232739 0.0451959 0.0438731 0.047921 0.0388146 0.0396768 0.0412513 0.0343883 0.0646356 0.0478342 0.0693956 0.0728182 0.0714061 0.0578731 0.0710113 0.072272
119 1 Mg 6.55057 18.996 2.9896 1.2 1 0.00941608 0.0178258 0.0207343 0.0219274 0.0227838 0.0323874 0.0367043 0.05459 0.0342781 0.0585354 0.0356534 0.0633047 0.0236924 0.0709732 0.0431578 0.0728868 0.0450016 0.0964054 0.044787 0.0923626
120 3 O 4.92172 20.3134 2.79288 -1.2 1 0.0159621 0.0102862 0.0278857 0.0144418 0.0283789 0.0415537 0.0460101 0.0468098 0.0464075 0.0416062 0.052841 0.0422659 0.0526576 0.0511297 0.075656 0.0668373 0.0766466 0.0499702 0.0708826 0.0720999
121 1 Mg -0.84282 19.0373 4.4844 1.2 1 0.0118605 0.00922794 0.0121263 0.0245177 0.0260344 0.0286206 0.03182 0.0337314 0.0462713 0.0490305 0.0569407 0.0587731 0.0653371 0.0682711 0.0575507 0.0759765 0.0713694 0.0920407 0.0731188 0.0815586
122 2 Si -2.64823 21.7214 4.4844 2.4 1 0.0175229 0.0158872 0.020901 0.0233365 0.0266371 0.0408744 0.0537614 0.0314486 0.0518129 0.0642576 0.0534222 0.0651399 0.0574931 0.0561526 0.0748812 0.0711727 0.0478096 0.0950176 0.0570023 0.0635016
123 3 O -2.70847 20.1082 4.4844 -1.2 1 0.0138445 0.0199567 0.01348 0.0277684 0.0238374 0.0245435 0.0388604 0.0647492 0.04351 0.0483671 0.038323 0.0696965 0.052218 0.0590495 0.0685952 0.0647383 0.0523201 0.0712579 0.0670576 0.0776189
124 3 O 0.97581 22.6955 4.4844 -1.2 1 0.0202506 0.0258051 0.0214739 0.0173647 0.0186084 0.0425139 0.0327786 0.0486815 0.0441591 0.0555852 0.0413667 0.0463619 0.047248 0.0735598 0.107387 0.0551257 0.0678953 0.0576501 0.0748143 0.0669377
125 3 O -1.9076 22.4276 3.18632 -1.2 1 0.0217959 0.00819942 0.0208149 0.0162496 0.0132433 0.0368115 0.0438165 0.0555233 0.0366219 0.0497922 0.0549255 0.0488521 0.0564754 0.0495906 0.0808338 0.0578453 0.0688284 0.0665738 0.0622166 0.0649312
126 3 O -1.9475 22.4276 5.78248 -1.2 1 0.014972 0.0110796 0.0209978 0.0202043 0.0156288 0.0282662 0.0468213 0.0440963 0.0392378 0.0404661 0.0582717 0.0405738 0.0561071 0.0588493 0.0821412 0.067863 0.0689561 0.0629751 0.0676389 0.0778205