ITEM: TIMESTEP
22000
ITEM: NUMBER OF ATOMS
10500
ITEM: BOX BOUNDS xy xz yz pp pp pp
0	15.2977	5.09925
0	118.725	0
0	89.688	0
ITEM: ATOMS id type element xu yu zu q Q_1 Q_2 Q_3 Q_4 Q_5 Q_6 Q_7 Q_8 Q_9 Q_10 Q_11 Q_12 Q_13 Q_14 Q_15 Q_16 Q_17 Q_18 Q_19 Q_20 Q_21
1 1 Mg 6.2404 -6.37941e-06 0 1.2 1 0.0102817 0.0414399 0.0327188 0.0373885 0.0308118 0.0395994 0.0349254 0.0666655 0.0390677 0.0712565 0.0343117 0.0609782 0.0472679 0.0689666 0.0502594 0.0898394 0.0511769 0.0831222 0.0497133 0.101176
2 1 Mg 3.46349 4.70768 1.4948 1.2 1 0.0124696 0.0163543 0.0249437 0.0235979 0.0198089 0.0414542 0.0435654 0.0414131 0.0478979 0.0558929 0.0420942 0.0696572 0.0578958 0.0703612 0.0731552 0.0643701 0.0671741 0.0851848 0.0730096 0.0826385
3 2 Si 5.2885 2.02354 1.4948 2.4 1 0.0218599 0.0224611 0.0366625 0.0256363 0.0308187 0.0365332 0.0534712 0.0335886 0.0443232 0.0519064 0.0557477 0.0619729 0.055836 0.0636781 0.0681754 0.0793168 0.0708462 0.0648782 0.0635886 0.0733127
4 3 O 5.33628 3.63678 1.4948 -1.2 1 0.00932149 0.0140797 0.0267668 0.0257097 0.0183229 0.0390922 0.0420334 0.0602083 0.0358413 0.0402929 0.0546755 0.0511476 0.067664 0.0574466 0.0586339 0.0653607 0.0602303 0.0613194 0.0715487 0.0742691
5 3 O 1.67294 1.04952 1.4948 -1.2 1 0.0162955 0.0218237 0.0231642 0.0358474 0.0296598 0.0388046 0.0340705 0.0611763 0.0347513 0.0599307 0.0439102 0.0510319 0.0720191 0.0590361 0.0762433 0.0691558 0.0626508 0.0645172 0.0790271 0.0604696
6 3 O 4.59532 1.31737 0.196716 -1.2 1 0.0259354 0.0221931 0.0575594 0.0251884 0.0334709 0.048673 0.0385001 0.0473085 0.0338267 0.0393425 0.0386739 0.050536 0.0542928 0.0571292 0.0635471 0.070131 0.061943 0.0715443 0.0592351 0.0706995
7 1 Mg 6.18956 -6.37941e-06 2.9896 1.2 1 0.0155133 0.02787 0.0154493 0.0217208 0.0359106 0.0455142 0.0500512 0.0428529 0.0471801 0.0452263 0.038851 0.0555964 0.0395408 0.0568337 0.0581733 0.0791616 0.0567675 0.0705282 0.0590087 0.0698116
8 3 O 4.55118 1.31737 2.79288 -1.2 1 0.0242626 0.0258221 0.0406409 0.0171209 0.0285248 0.0439407 0.0447102 0.0479569 0.0438182 0.0541158 0.053593 0.0487361 0.0496822 0.066464 0.0539511 0.0703319 0.0650146 0.0667162 0.0642418 0.0723326
9 1 Mg -1.20682 0.0413099 4.4844 1.2 1 0.0179816 0.0319845 0.0164901 0.0258261 0.0375713 0.0422411 0.0304928 0.0504305 0.0558297 0.0415639 0.0467006 0.0615593 0.0640576 0.0570045 0.0788368 0.0603959 0.079692 0.0709613 0.0637967 0.0514484
10 2 Si -3.0337 2.72544 4.4844 2.4 1 0.031421 0.0145033 0.0225899 0.0180331 0.0314125 0.037491 0.0623484 0.0343361 0.0621431 0.0516309 0.0459974 0.0607421 0.0568113 0.0772137 0.0545838 0.0606801 0.0715279 0.0791575 0.0701217 0.0591419
11 3 O -3.08099 1.11221 4.4844 -1.2 1 0.0128408 0.0208581 0.0267848 0.0248049 0.040406 0.0259091 0.0488741 0.0460931 0.0393117 0.0388344 0.0399328 0.0730906 0.053437 0.0507367 0.055879 0.0682187 0.0530917 0.0795545 0.0749039 0.0758826
12 3 O 0.582463 3.69946 4.4844 -1.2 1 0.00491032 0.0123717 0.0309561 0.028724 0.0266707 0.0645238 0.0310423 0.0540879 0.0425498 0.0419265 0.0533492 0.0576908 0.0629066 0.0700804 0.100516 0.0674833 0.0802729 0.0407402 0.0743047 0.0661592
13 3 O -2.29524 3.43162 3.18632 -1.2 1 0.0126399 0.0201753 0.0258455 0.0307345 0.0199331 0.0506223 0.0518818 0.050096 0.0409078 0.0521158 0.0591882 0.0551403 0.041092 0.0529899 0.0585837 0.0643243 0.0668282 0.0613055 0.062871 0.0743372
14 3 O -2.34216 3.43162 5.78248 -1.2 1 0.0196371 0.00970068 0.0228301 0.0274126 0.0279243 0.0400026 0.0537916 0.0474191 0.0401663 0.054823 0.0532361 0.0504305 0.0546233 0.0535374 0.0777826 0.0732818 0.0617154 0.0713302 0.0735625 0.0714484
15 1 Mg 1.12778 2.37449 2.9896 1.2 1 0.0159202 0.0405125 0.0160936 0.0240575 0.0252392 0.0433553 0.0408862 0.0502862 0.0368586 0.0609561 0.0370898 0.0597365 0.0403012 0.0667136 0.0628221 0.0705749 0.0676297 0.0819691 0.0457831 0.0871968
16 1 Mg 3.92855 2.33318 4.4844 1.2 1 0.0280924 0.0158365 0.0238834 0.0291475 0.0445885 0.0246037 0.0386169 0.0364742 0.0484933 0.0683591 0.0515932 0.0613718 0.0486652 0.0615407 0.0561615 0.073776 0.0623825 0.0936484 0.0747381 0.0857463
17 2 Si 2.09341 4.39804 4.4844 2.4 1 0.0124137 0.0224637 0.0299552 0.0178815 0.0422632 0.025278 0.0640353 0.0215293 0.0428963 0.0500235 0.0633423 0.0582271 0.067585 0.058824 0.0735845 0.0736716 0.0719395 0.0815149 0.0497881 0.0656537
18 3 O 2.09991 6.01128 4.4844 -1.2 1 0.0114387 0.0105182 0.0160274 0.0198493 0.0330572 0.0226536 0.0511334 0.0501368 0.0451642 0.0447934 0.0489152 0.0667827 0.0474497 0.0618308 0.0662109 0.0727943 0.046288 0.0804215 0.0616909 0.0718821
19 3 O -4.52137 3.42402 4.4844 -1.2 1 0.0210806 0.0290123 0.0356607 0.0227999 0.0260039 0.0584232 0.0380178 0.0469049 0.0556593 0.0584215 0.032917 0.0579117 0.0537046 0.054035 0.09102 0.0717044 0.0763635 0.0606784 0.0747759 0.0557286
20 3 O 2.80834 3.69187 3.18632 -1.2 1 0.0111235 0.0202571 0.0206564 0.0259999 0.020294 0.0377224 0.0340637 0.0491755 0.0437339 0.058958 0.0667454 0.0523079 0.0426843 0.0634286 0.0705611 0.0706609 0.0617122 0.0590133 0.0703607 0.0711162
21 1 Mg 1.17857 2.37449 0 1.2 1 0.0149226 0.0344631 0.0287 0.0278369 0.0375298 0.0381771 0.0431836 0.0590888 0.0361467 0.0494535 0.051216 0.0419678 0.0420121 0.0675133 0.0562635 0.0643047 0.0616317 0.080562 0.0587169 0.0733017
22 3 O 2.76143 3.69187 5.78248 -1.2 1 0.0127511 0.021121 0.0220529 0.0250348 0.0214576 0.0354224 0.038806 0.049379 0.0351488 0.0465213 0.0564169 0.0458186 0.0578081 0.0801003 0.0759893 0.0675964 0.0678611 0.0594553 0.0678199 0.0751279
23 1 Mg -1.67381 2.41581 1.4948 1.2 1 0.0103997 0.00852094 0.0414173 0.0341296 0.0299768 0.0450581 0.0579531 0.0400427 0.0512142 0.0416761 0.0443317 0.0565137 0.053518 0.0629211 0.0604783 0.0625455 0.0841569 0.0780929 0.0662622 0.0741943
24 2 Si 0.16286 0.350945 1.4948 2.4 1 0.0151163 0.0321281 0.0282346 0.0235498 0.0356505 0.035673 0.0558877 0.0512065 0.0529694 0.0489779 0.0406648 0.0555995 0.0736133 0.0692087 0.0574142 0.0733688 0.0693418 0.0649489 0.0733912 0.0653088
25 3 O 0.15972 -1.26229 1.4948 -1.2 1 0.00904185 0.0156846 0.0396096 0.0215169 0.0371061 0.0359722 0.0454408 0.0563024 0.047294 0.0515687 0.0559323 0.0568972 0.0634725 0.0663173 0.0493674 0.0598512 0.0695958 0.0668046 0.0620165 0.0742044
26 3 O 6.77654 1.32496 1.4948 -1.2 1 0.0115415 0.0277542 0.0265824 0.0276943 0.0371841 0.0544583 0.034126 0.0649308 0.0475877 0.0468506 0.0441972 0.0523011 0.0525016 0.0595683 0.068577 0.0713729 0.0844217 0.0628782 0.0598094 0.0745244
27 3 O -0.508028 1.05712 0.196716 -1.2 1 0.0246608 0.0189997 0.0297741 0.0204982 0.0292995 0.0531631 0.0438863 0.0444817 0.0470819 0.0479453 0.0506055 0.0481101 0.0497744 0.0638482 0.0551508 0.0632928 0.0636075 0.058913 0.0717011 0.0720631
28 3 O -0.552171 1.05712 2.79288 -1.2 1 0.0345416 0.0251438 0.0355723 0.0315763 0.0218778 0.045559 0.0415938 0.0452636 0.0447252 0.0335439 0.0502312 0.0506105 0.0599647 0.0616671 0.0641029 0.0756522 0.0708473 0.0496821 0.070957 0.0689572
29 1 Mg 6.31713 4.74899 0 1.2 1 0.0270565 0.0298198 0.029726 0.0358091 0.0321486 0.0253188 0.0408967 0.0569454 0.05877 0.0495674 0.0511449 0.0392663 0.0585522 0.0620643 0.06648 0.0634584 0.0660452 0.0741505 0.0703795 0.070007
30 1 Mg 3.54847 9.45668 1.4948 1.2 1 0.0172959 0.0170038 0.0161725 0.0229318 0.0197896 0.038641 0.0389968 0.0416631 0.0437774 0.054825 0.0379269 0.0710733 0.0538406 0.0657771 0.0723231 0.0630692 0.0662989 0.0880417 0.0751464 0.0792289
31 2 Si 5.36879 6.77254 1.4948 2.4 1 0.0290865 0.0268266 0.0239571 0.0257237 0.0248798 0.0348979 0.0444123 0.0362673 0.0449469 0.0573232 0.042098 0.058197 0.0532506 0.0664826 0.0655585 0.0744319 0.0668737 0.0788227 0.0558576 0.0684901
32 3 O 5.41937 8.38578 1.4948 -1.2 1 0.0215282 0.011409 0.0234828 0.0296734 0.0174549 0.0431637 0.0441416 0.0572882 0.036303 0.0504321 0.0474666 0.0643352 0.0551735 0.0535962 0.066508 0.0609667 0.0728917 0.0560827 0.0729359 0.0732441
33 3 O 1.75158 5.79852 1.4948 -1.2 1 0.02847 0.0123838 0.0224632 0.0266603 0.0440847 0.0305966 0.0393572 0.056816 0.0408039 0.0524314 0.0495043 0.0504297 0.0473876 0.0713399 0.0788028 0.0784389 0.0602629 0.0751205 0.0601392 0.0767402
34 3 O 4.67421 6.06637 0.196716 -1.2 1 0.0146148 0.0264843 0.0316404 0.0244705 0.0319622 0.0377678 0.0346469 0.0321548 0.0447741 0.0560806 0.0392461 0.0442562 0.0667541 0.0564511 0.067629 0.0713817 0.0715954 0.0656014 0.0632962 0.0686783
35 1 Mg 6.26654 4.74899 2.9896 1.2 1 0.0189077 0.0279168 0.025348 0.0406493 0.0259874 0.0436688 0.0487897 0.0480465 0.0351623 0.0638148 0.036657 0.0597408 0.0388501 0.0638272 0.052357 0.0790977 0.056043 0.0837622 0.0455831 0.0889089
36 3 O 4.63043 6.06637 2.79288 -1.2 1 0.0160619 0.019474 0.0425399 0.0201343 0.0324155 0.0360182 0.0424046 0.0487301 0.0447638 0.0373047 0.0495047 0.0521413 0.0581803 0.0657059 0.0622182 0.0744065 0.0665933 0.0675698 0.0684301 0.0831106
37 1 Mg -1.12976 4.79031 4.4844 1.2 1 0.0214004 0.0258993 0.015561 0.0144431 0.0371574 0.036153 0.0511889 0.0466712 0.0457276 0.0436222 0.0577773 0.0600087 0.0742708 0.0732167 0.0634582 0.0676659 0.072455 0.0927625 0.0712356 0.0829084
38 2 Si -2.9517 7.47444 4.4844 2.4 1 0.023489 0.0137123 0.0173665 0.0265843 0.0309097 0.0427173 0.0626327 0.0283277 0.0542057 0.0577773 0.051959 0.059393 0.0637202 0.0579014 0.0793166 0.0715665 0.0541436 0.0890562 0.0577969 0.0611315
39 3 O -3.00198 5.86121 4.4844 -1.2 1 0.0155511 0.0240051 0.0270927 0.0276618 0.032506 0.0316768 0.0544429 0.0588843 0.0389799 0.0527799 0.0471534 0.0709616 0.0591068 0.0553667 0.0658348 0.0695694 0.0524437 0.0779001 0.0626952 0.0788047
40 3 O 0.666315 8.44846 4.4844 -1.2 1 0.0153893 0.020186 0.0242573 0.0173669 0.0220316 0.0541653 0.0311271 0.0503443 0.0437469 0.0485122 0.040551 0.0514134 0.0496594 0.0753445 0.101225 0.0674309 0.0782501 0.0494469 0.0707599 0.0724778
41 3 O -2.21213 8.18062 3.18632 -1.2 1 0.018281 0.0150296 0.0166686 0.0156174 0.017119 0.0362571 0.0458683 0.0547294 0.045977 0.0538251 0.0537431 0.0533548 0.0528799 0.0480344 0.0779169 0.0632191 0.0712442 0.0586592 0.0670485 0.0716646
42 3 O -2.25864 8.18062 5.78248 -1.2 1 0.0157317 0.0163751 0.0224345 0.0161271 0.0186701 0.0302567 0.050109 0.0520103 0.0363 0.0403738 0.0544677 0.0389809 0.0584986 0.0593604 0.0844331 0.0686601 0.0690049 0.0661259 0.0673339 0.0748939
43 1 Mg 1.20893 7.12349 2.9896 1.2 1 0.00773909 0.0227259 0.0182824 0.0249028 0.0239408 0.0397687 0.0425424 0.045732 0.0347067 0.0650357 0.0388755 0.066755 0.0362642 0.0585147 0.0530498 0.0797194 0.0520614 0.0846504 0.0477515 0.0871906
44 1 Mg 4.00982 7.08218 4.4844 1.2 1 0.0168354 0.013912 0.028761 0.0357753 0.0345606 0.0351681 0.0453031 0.0377406 0.0469298 0.0511929 0.0596404 0.0544826 0.0725399 0.0765568 0.0584305 0.069315 0.063387 0.0983161 0.0752283 0.0798923
45 2 Si 2.17861 9.14704 4.4844 2.4 1 0.0264655 0.0123891 0.0244952 0.0203016 0.0291771 0.0333946 0.0623826 0.0252157 0.0510992 0.0547988 0.0570276 0.060154 0.0643077 0.0579937 0.0807589 0.069318 0.0485583 0.0928838 0.0540496 0.0592266
46 3 O 2.18828 10.7603 4.4844 -1.2 1 0.0215166 0.0132211 0.00236807 0.0194637 0.0251706 0.0214873 0.0444766 0.0595324 0.0415999 0.0529531 0.0400241 0.0706438 0.0441486 0.0633335 0.0695818 0.0706675 0.0473773 0.0704344 0.0640984 0.0726979
47 3 O -4.43805 8.17302 4.4844 -1.2 1 0.0125245 0.0241311 0.0166747 0.016955 0.0228836 0.0561787 0.0328361 0.049464 0.0449063 0.048743 0.0368312 0.0540944 0.0521782 0.0712026 0.100747 0.0645177 0.0820775 0.0540618 0.0741818 0.0742351
48 3 O 2.89193 8.44087 3.18632 -1.2 1 0.0181451 0.0157251 0.0175896 0.0145819 0.0214817 0.0413863 0.0338214 0.0553637 0.0431845 0.0516242 0.0587195 0.0492403 0.0514285 0.0536049 0.0804715 0.0635359 0.0705887 0.058886 0.0648606 0.0737895
49 1 Mg 1.25915 7.12349 0 1.2 1 0.0186931 0.0175545 0.0281081 0.0150206 0.0318008 0.0248607 0.0503144 0.0400352 0.0560741 0.0494247 0.0538166 0.0425699 0.0710467 0.0513475 0.0683422 0.0705797 0.0645277 0.0706766 0.0793375 0.0586301
50 3 O 2.84547 8.44087 5.78248 -1.2 1 0.0104956 0.0149287 0.0167366 0.0228215 0.0237863 0.0270864 0.0446243 0.0489346 0.0389422 0.0406375 0.060026 0.0399319 0.0594786 0.0604611 0.0889998 0.0632669 0.067958 0.0639675 0.066817 0.0741414
51 1 Mg -1.59284 7.16481 1.4948 1.2 1 0.0097969 0.0163779 0.020434 0.0204418 0.015022 0.0371751 0.0464886 0.0424678 0.043288 0.0577419 0.0390038 0.0659231 0.0520148 0.0692892 0.07562 0.0606507 0.0677622 0.0843583 0.0737229 0.0784833
52 2 Si 0.240329 5.09994 1.4948 2.4 1 0.024646 0.0173135 0.0159739 0.0433736 0.0272407 0.0405411 0.0467166 0.0533041 0.0549765 0.0487103 0.0456294 0.0574739 0.0592408 0.0680526 0.0655556 0.0664071 0.0640966 0.0729115 0.0664056 0.0682129
53 3 O 0.234538 3.48671 1.4948 -1.2 1 0.0131343 0.0164375 0.0265698 0.0358905 0.031377 0.0491624 0.045917 0.0424818 0.0528652 0.0470957 0.0521861 0.0612967 0.0558328 0.0610104 0.0615581 0.0625099 0.0627188 0.0570218 0.076056 0.0739515
54 3 O 6.85564 6.07396 1.4948 -1.2 1 0.032425 0.0193891 0.0344517 0.0277022 0.0372567 0.0405548 0.0322716 0.0624811 0.0366083 0.0532542 0.0538476 0.0534647 0.0552346 0.0733306 0.0697309 0.0771507 0.0666764 0.0722845 0.0530824 0.085132
55 3 O -0.429565 5.80612 0.196716 -1.2 1 0.034061 0.0200055 0.0156884 0.0210718 0.0410134 0.0375241 0.0538435 0.0451876 0.0461554 0.0563128 0.0397982 0.0420841 0.0536683 0.0599297 0.0598931 0.0682558 0.0701629 0.0612175 0.0650386 0.0737305
56 3 O -0.473377 5.80612 2.79288 -1.2 1 0.0246527 0.0215423 0.033887 0.0187695 0.0347979 0.0463369 0.0495637 0.0489643 0.054333 0.0458772 0.0619546 0.0394417 0.0437409 0.0600542 0.0661346 0.071698 0.0658435 0.0683397 0.0721152 0.0805819
57 1 Mg 6.40169 9.49799 0 1.2 1 0.0125918 0.0115848 0.0213294 0.0143107 0.030438 0.0214534 0.0521965 0.035659 0.0587268 0.0491594 0.0498289 0.0353528 0.0669567 0.0525169 0.0710796 0.0675181 0.0654295 0.070548 0.0807436 0.0684741
58 1 Mg 3.64209 14.2057 1.4948 1.2 1 0.0105521 0.0110184 0.0180761 0.0165218 0.0215328 0.0337402 0.0358214 0.04372 0.041574 0.0556007 0.0393904 0.0663197 0.0531873 0.066041 0.0738924 0.0631466 0.0648422 0.0825435 0.0739733 0.0783497
59 2 Si 5.45748 11.5215 1.4948 2.4 1 0.01195 0.021847 0.0232818 0.0247921 0.0180217 0.0402871 0.0396934 0.0399454 0.0434635 0.0544603 0.0425126 0.0603224 0.0535218 0.0662517 0.069448 0.0635763 0.0710193 0.0817118 0.0581715 0.0669938
60 3 O 5.51101 13.1348 1.4948 -1.2 1 0.0242203 0.013395 0.0222375 0.0295208 0.0196915 0.0433097 0.0446412 0.0590929 0.0367153 0.0497194 0.0428217 0.0672803 0.0532778 0.0533744 0.0653788 0.0598492 0.0707462 0.0580132 0.0693243 0.0721148
61 3 O 1.83851 10.5475 1.4948 -1.2 1 0.0352312 0.0141898 0.021739 0.0139153 0.0363889 0.0299372 0.0365371 0.0590649 0.0395697 0.0481893 0.0496889 0.0517535 0.0472244 0.0749738 0.0758007 0.0796699 0.0564899 0.0760943 0.0579317 0.0787018
62 3 O 4.7611 10.8154 0.196716 -1.2 1 0.0358071 0.019408 0.0200234 0.0181455 0.0266807 0.0440597 0.0482286 0.0372681 0.0388355 0.0491114 0.0368614 0.0410291 0.0608465 0.0604297 0.0650358 0.0713307 0.0750682 0.0658078 0.0725682 0.0673889
63 1 Mg 6.35203 9.49799 2.9896 1.2 1 0.0143554 0.0157602 0.0250533 0.0234845 0.0192725 0.0392583 0.0374908 0.050377 0.0357164 0.0592872 0.0320811 0.0659971 0.0265316 0.065976 0.0466441 0.0811835 0.0459501 0.0890539 0.0450573 0.0911965
64 3 O 4.71833 10.8154 2.79288 -1.2 1 0.0216782 0.0126968 0.0323286 0.0123407 0.0301871 0.0428017 0.0439063 0.0444696 0.0428249 0.0373013 0.0530957 0.042311 0.0543312 0.0589999 0.0740733 0.0691008 0.0730451 0.0593857 0.0698832 0.0800132
65 1 Mg -1.0438 9.53931 4.4844 1.2 1 0.0109721 0.0154586 0.0184195 0.0256528 0.026196 0.0293316 0.0382151 0.034434 0.0458472 0.0504972 0.05628 0.0562093 0.0671223 0.069746 0.0586717 0.0684096 0.0720856 0.0990599 0.0721986 0.084445
66 2 Si -2.8604 12.2234 4.4844 2.4 1 0.0155784 0.0142476 0.0140127 0.0248916 0.0330698 0.0411504 0.0596405 0.0291157 0.052081 0.0632804 0.05474 0.0618493 0.0600962 0.0564041 0.079818 0.0710541 0.0528987 0.0924889 0.0559142 0.0606914
67 3 O -2.91391 10.6102 4.4844 -1.2 1 0.0195571 0.0150246 0.00708991 0.0240057 0.0292982 0.0235393 0.0453185 0.0627734 0.0400459 0.0503602 0.0365016 0.0706658 0.0457798 0.0594625 0.0676889 0.0713044 0.0502238 0.0764423 0.0619523 0.075203
68 3 O 0.7596 13.1975 4.4844 -1.2 1 0.01801 0.023075 0.0202293 0.0160659 0.0228626 0.0501205 0.0349892 0.049125 0.04763 0.05081 0.0367188 0.0509085 0.0474016 0.0710555 0.102217 0.0630719 0.0778971 0.0528204 0.0722116 0.0731671
69 3 O -2.12001 12.9296 3.18632 -1.2 1 0.0201204 0.00694811 0.0219472 0.0173112 0.0189292 0.0373351 0.040797 0.0548709 0.0430482 0.0545933 0.0534361 0.0487273 0.0560579 0.0486109 0.0803263 0.0628126 0.0735251 0.0634356 0.0655644 0.0692983
70 3 O -2.16532 12.9296 5.78248 -1.2 1 0.00964992 0.00865271 0.0230007 0.0242584 0.016821 0.0305174 0.0502795 0.0439369 0.0410575 0.0402888 0.0571899 0.0382264 0.0584161 0.0611071 0.0833665 0.0711924 0.0715459 0.0651798 0.0711074 0.074285
71 1 Mg 1.29891 11.8725 2.9896 1.2 1 0.00735804 0.0157829 0.0223435 0.0231529 0.0171681 0.0386099 0.0367445 0.0506091 0.0360062 0.0603294 0.0346757 0.0586803 0.0266651 0.0673388 0.0499507 0.0817089 0.0490196 0.0888856 0.0472338 0.0870429
72 1 Mg 4.10033 11.8312 4.4844 1.2 1 0.00939628 0.0158052 0.0183088 0.0254764 0.0311939 0.0307987 0.0419418 0.0334932 0.0483828 0.0530319 0.0532086 0.0542001 0.0674034 0.0691047 0.0522839 0.0710853 0.0676269 0.0998201 0.0739071 0.0803501
73 2 Si 2.27333 13.896 4.4844 2.4 1 0.021934 0.00797704 0.028757 0.0272539 0.0267501 0.0364883 0.062383 0.0287359 0.0541433 0.0578832 0.0530651 0.0615491 0.0616736 0.0570257 0.0754342 0.065279 0.0473109 0.0973485 0.0565762 0.0585561
74 3 O 2.28634 15.5093 4.4844 -1.2 1 0.0233349 0.0126371 0.00845006 0.020381 0.0224538 0.0231951 0.0396739 0.0578285 0.0422309 0.0502773 0.0408969 0.0723419 0.0464544 0.0652097 0.0701402 0.0708435 0.046638 0.0708868 0.0654816 0.0752086
75 3 O -4.34533 12.922 4.4844 -1.2 1 0.0206344 0.0203308 0.0192042 0.0147514 0.0219567 0.0530033 0.0343866 0.048942 0.0420154 0.0519186 0.0412943 0.0542852 0.0502126 0.0714979 0.100457 0.0662293 0.0792734 0.0525548 0.0732936 0.0723356
76 3 O 2.98455 13.1899 3.18632 -1.2 1 0.0255468 0.0108309 0.0190649 0.0115034 0.0195364 0.039909 0.0381737 0.0576351 0.0428235 0.0552787 0.0544323 0.0499016 0.0513962 0.0504558 0.081525 0.0610522 0.0674285 0.0606611 0.0643703 0.0718522
77 1 Mg 1.34779 11.8725 0 1.2 1 0.0217882 0.00943649 0.0218905 0.0150573 0.02865 0.0228333 0.0514979 0.0347277 0.0573993 0.0510129 0.0495975 0.0353516 0.0652781 0.0502253 0.0704585 0.0641884 0.0615423 0.0701592 0.0875378 0.0596413
78 3 O 2.93934 13.1899 5.78248 -1.2 1 0.0181553 0.0106819 0.0193784 0.0205517 0.0172357 0.0255694 0.0468231 0.0495292 0.0393482 0.0404293 0.0577082 0.039786 0.0544312 0.0613599 0.0868853 0.0637778 0.0711033 0.0609372 0.0683781 0.0789038
79 1 Mg -1.50344 11.9138 1.4948 1.2 1 0.00822857 0.0211222 0.0216942 0.0225168 0.0139412 0.03711 0.0389086 0.0418117 0.0404385 0.0595651 0.0348052 0.0673297 0.051898 0.0649887 0.075222 0.0683001 0.0632637 0.0845683 0.0775593 0.0788697
80 2 Si 0.326006 9.84894 1.4948 2.4 1 0.0251475 0.0196484 0.0247415 0.0303671 0.0169854 0.0389287 0.0439109 0.0376162 0.0447079 0.0557399 0.0404714 0.0600746 0.0554875 0.0669114 0.0610655 0.063359 0.070797 0.0798025 0.0617971 0.0694508
81 3 O 0.317364 8.23571 1.4948 -1.2 1 0.022428 0.0124948 0.0226364 0.0239772 0.02012 0.0453494 0.0429974 0.0497406 0.0348129 0.0540854 0.0443762 0.0657567 0.0574903 0.0598449 0.068079 0.0662186 0.0718598 0.0533595 0.0734811 0.0741602
82 3 O 6.94307 10.823 1.4948 -1.2 1 0.0357037 0.0149907 0.0213056 0.00931643 0.036892 0.033651 0.0387544 0.0563234 0.0339072 0.0466139 0.0516182 0.0521661 0.0511084 0.0743488 0.0727238 0.078742 0.0623793 0.0731627 0.0576648 0.0806456
83 3 O -0.343122 10.5551 0.196716 -1.2 1 0.0266465 0.0194709 0.0238082 0.0225731 0.0298778 0.0415214 0.0511799 0.0389064 0.0378493 0.0506115 0.037163 0.0368706 0.0611309 0.0595539 0.067676 0.0698003 0.079847 0.0546655 0.0695002 0.0703828
84 3 O -0.385966 10.5551 2.79288 -1.2 1 0.0228306 0.0147184 0.0335085 0.0126354 0.0333768 0.0432637 0.0454182 0.0458611 0.0445091 0.0391184 0.0527588 0.0479589 0.0497641 0.057392 0.0695298 0.0705011 0.065998 0.0605115 0.0695925 0.0793212
85 1 Mg 6.49448 14.247 0 1.2 1 0.0224676 0.00962668 0.0187157 0.0169665 0.0286324 0.022932 0.0480038 0.0331041 0.059522 0.0480595 0.0514026 0.0372253 0.0625362 0.0527305 0.0713868 0.0654614 0.0644932 0.0706655 0.0843326 0.0707139
86 1 Mg 3.74457 18.9547 1.4948 1.2 1 0.0106629 0.0135964 0.0165518 0.0172622 0.0265036 0.0303771 0.0315892 0.0385009 0.0373163 0.0568558 0.0428344 0.0691955 0.05169 0.0670087 0.0711553 0.0698934 0.0623645 0.0839987 0.0792343 0.0759772
87 2 Si 5.55495 16.2705 1.4948 2.4 1 0.012043 0.020114 0.0219956 0.0269366 0.0184439 0.0425462 0.0365905 0.0421223 0.0454741 0.0519654 0.0436116 0.061247 0.0540193 0.0638345 0.069622 0.0592857 0.0726083 0.0797009 0.0601224 0.0705265
88 3 O 5.6115 17.8838 1.4948 -1.2 1 0.0268617 0.0182289 0.0234071 0.025599 0.0191722 0.0435883 0.0451524 0.0607461 0.0370246 0.0497709 0.0380978 0.067189 0.0513068 0.0560642 0.0647893 0.0576677 0.0659801 0.0616463 0.0632693 0.06918
89 3 O 1.93416 15.2965 1.4948 -1.2 1 0.037094 0.0148203 0.0219404 0.0129566 0.0350391 0.0302893 0.0360283 0.0593159 0.0430572 0.0471609 0.048635 0.0508772 0.046426 0.073461 0.0806709 0.0775437 0.0588648 0.0737454 0.0623294 0.0770697
90 3 O 4.85636 15.5644 0.196716 -1.2 1 0.0261047 0.0109637 0.0222826 0.0195681 0.0237215 0.0513788 0.0504794 0.0400521 0.0410717 0.0465688 0.0364404 0.0337991 0.0641734 0.0545729 0.0672319 0.0684277 0.0746691 0.063233 0.0716429 0.0673621
91 1 Mg 6.44662 14.247 2.9896 1.2 1 0.0106372 0.0184823 0.0230922 0.0217199 0.0191405 0.0348944 0.0381294 0.0537616 0.0356074 0.0572297 0.0333706 0.0625931 0.024836 0.0677643 0.0450569 0.0762427 0.0450315 0.0925716 0.0443569 0.0921164
92 3 O 4.81537 15.5644 2.79288 -1.2 1 0.0110035 0.0118457 0.0261383 0.0124087 0.0291172 0.0358742 0.0460461 0.0482457 0.0443637 0.0403908 0.0512735 0.0431976 0.0531158 0.0554479 0.0751264 0.0683691 0.0762432 0.0525093 0.069997 0.0761966
93 1 Mg -0.948271 14.2883 4.4844 1.2 1 0.0173997 0.011593 0.0151443 0.0288518 0.024375 0.0291553 0.037984 0.035156 0.0435247 0.0477536 0.0585366 0.0568777 0.0670406 0.0672788 0.0592453 0.0695201 0.0702231 0.0965804 0.0724458 0.0833668
94 2 Si -2.75928 16.9724 4.4844 2.4 1 0.0212374 0.012024 0.0186634 0.0284361 0.0294547 0.0419148 0.0587109 0.031495 0.0549261 0.0621825 0.052377 0.0623809 0.0598861 0.0550173 0.0785927 0.0726118 0.0464562 0.0927363 0.0546523 0.0630743
95 3 O -2.81617 15.3592 4.4844 -1.2 1 0.017228 0.00964777 0.017636 0.0263275 0.0306734 0.0233567 0.0416987 0.063485 0.0426306 0.049659 0.0398891 0.0733096 0.046403 0.0591183 0.0649785 0.0704951 0.0479176 0.0739638 0.0622073 0.075748
96 3 O 0.862762 17.9465 4.4844 -1.2 1 0.0174387 0.0242774 0.0214695 0.0157915 0.0216418 0.0457293 0.0352212 0.0532437 0.0474822 0.0537391 0.0403569 0.0479671 0.0428827 0.0717219 0.105871 0.0555005 0.071182 0.0523097 0.072963 0.0699168
97 3 O -2.0185 17.6786 3.18632 -1.2 1 0.0186817 0.0107353 0.0180264 0.0161446 0.0196475 0.0395597 0.0429299 0.0566806 0.043907 0.0518731 0.0541098 0.0490974 0.0564642 0.0503884 0.0807056 0.0613732 0.0691442 0.0657848 0.0623257 0.0688341
98 3 O -2.06164 17.6786 5.78248 -1.2 1 0.0138844 0.0125857 0.0222889 0.0232373 0.0150077 0.0272309 0.0509573 0.0431735 0.0399213 0.0379517 0.0573755 0.0386343 0.0555752 0.0614067 0.0851113 0.0686253 0.0696315 0.0640624 0.0726414 0.0735711
99 1 Mg 1.39817 16.6215 2.9896 1.2 1 0.00646232 0.0163848 0.0195866 0.0227948 0.0180805 0.0364623 0.0366967 0.0532136 0.0365647 0.0588978 0.0360517 0.0563376 0.0238243 0.0668998 0.0477461 0.0803608 0.0491296 0.091497 0.0447664 0.0887701
100 1 Mg 4.20062 16.5802 4.4844 1.2 1 0.0139608 0.0120919 0.0154885 0.0255428 0.0256102 0.0308785 0.0395201 0.0365704 0.046488 0.0536273 0.0540738 0.0555654 0.0694064 0.0668595 0.052484 0.0721941 0.0678212 0.0985235 0.072612 0.0799137
101 2 Si 2.37796 18.645 4.4844 2.4 1 0.0269785 0.00504881 0.0223384 0.0273693 0.0277447 0.0363234 0.0598208 0.0318045 0.055349 0.059045 0.0527055 0.0636959 0.0621789 0.060501 0.0723967 0.066061 0.0464076 0.100146 0.0515859 0.0563578
102 3 O 2.39434 20.2583 4.4844 -1.2 1 0.0234979 0.0127462 0.00991821 0.0187535 0.0246694 0.0222218 0.041871 0.0594693 0.045817 0.0512613 0.0407593 0.0718244 0.0469911 0.0631892 0.0698743 0.0699489 0.0501428 0.0676534 0.0631331 0.0797069
103 3 O -4.24274 17.671 4.4844 -1.2 1 0.0179767 0.0180877 0.0203116 0.0182627 0.0200641 0.0472682 0.0375366 0.0473855 0.0435854 0.055033 0.0386115 0.0513502 0.0489664 0.0713166 0.0991019 0.0637056 0.0754823 0.0520759 0.0751279 0.074696
104 3 O 3.08659 17.9389 3.18632 -1.2 1 0.0255596 0.0140212 0.0207546 0.012063 0.0187415 0.040045 0.0383176 0.056036 0.0460718 0.0501642 0.0569468 0.047853 0.0515825 0.0515312 0.0805311 0.0595531 0.067113 0.0597319 0.0632688 0.0698326
105 1 Mg 1.44478 16.6215 0 1.2 1 0.00945346 0.0122571 0.0216859 0.0129074 0.0266517 0.0317314 0.0480288 0.0354771 0.0505533 0.0505851 0.0517189 0.039814 0.0587097 0.049406 0.0697274 0.0659128 0.0603589 0.0676652 0.0885934 0.0636986
106 3 O 3.0436 17.9389 5.78248 -1.2 1 0.0163979 0.0140381 0.0171176 0.0233487 0.0205131 0.0237925 0.0504356 0.0458371 0.0413742 0.040671 0.0581138 0.0375769 0.0551375 0.0612392 0.086102 0.0648404 0.0703242 0.0598384 0.0660084 0.078504
107 1 Mg -1.40524 16.6628 1.4948 1.2 1 0.00684174 0.0151988 0.0259732 0.0192032 0.0179949 0.0351682 0.0362237 0.0421688 0.0406319 0.0598731 0.0400747 0.0650078 0.0557298 0.0646311 0.0744749 0.0697678 0.0632633 0.0785119 0.079431 0.0759772
108 2 Si 0.420358 14.5979 1.4948 2.4 1 0.0210107 0.0199178 0.0272839 0.0270365 0.0181744 0.0393513 0.0393097 0.0398972 0.0450204 0.0559074 0.0438464 0.0608492 0.0572864 0.0636724 0.067174 0.0599991 0.0722995 0.0759249 0.0625366 0.070983
109 3 O 0.408732 12.9847 1.4948 -1.2 1 0.0221291 0.0156634 0.0229736 0.0256388 0.0170395 0.0473852 0.0436295 0.0538509 0.0361226 0.0525705 0.0425458 0.0690948 0.0534869 0.056916 0.0661069 0.0633465 0.0717497 0.0545352 0.0686978 0.0713399
110 3 O 7.03923 15.572 1.4948 -1.2 1 0.0293015 0.016866 0.0217325 0.01273 0.0360749 0.0339017 0.0367373 0.0562765 0.0384465 0.0445748 0.0512922 0.0532778 0.0480005 0.0741076 0.0778824 0.0782943 0.0644656 0.0694382 0.0621407 0.0777401
111 3 O -0.248332 15.3041 0.196716 -1.2 1 0.0220107 0.0121623 0.0221354 0.0191929 0.0243093 0.046373 0.0499944 0.0435516 0.0402421 0.0468214 0.0369089 0.032 0.0620936 0.0544935 0.0701432 0.0652458 0.0819397 0.0505548 0.0694286 0.0711423
112 3 O -0.289436 15.3041 2.79288 -1.2 1 0.018316 0.0148504 0.0267841 0.0102875 0.0316061 0.036481 0.0439907 0.048044 0.0436919 0.0400555 0.0544624 0.0486588 0.0510845 0.0527838 0.0714093 0.0684323 0.0705009 0.0549715 0.0686224 0.0767111
113 1 Mg 6.59566 18.996 0 1.2 1 0.0137353 0.0117692 0.0199215 0.0145718 0.0260451 0.0316644 0.04306 0.0329009 0.053796 0.0494561 0.0537008 0.0389572 0.0523397 0.0528623 0.0721811 0.0646114 0.0640144 0.0647342 0.0861953 0.0708507
114 1 Mg 3.85574 23.7037 1.4948 1.2 1 0.0107372 0.0126063 0.0212271 0.0140706 0.022655 0.028807 0.0313559 0.0368257 0.0387131 0.0599249 0.0468252 0.0628292 0.0501507 0.0669945 0.0650122 0.072638 0.066256 0.079836 0.0799282 0.0758664
115 2 Si 5.66125 21.0195 1.4948 2.4 1 0.00821267 0.024311 0.0233175 0.0273802 0.0192221 0.0464075 0.0337282 0.0415176 0.0488917 0.0542579 0.045203 0.0605436 0.0560342 0.0597664 0.0715866 0.0606647 0.0739105 0.0771443 0.0652546 0.0756078
116 3 O 5.72074 22.6328 1.4948 -1.2 1 0.0281984 0.0192087 0.0184354 0.0227143 0.0191431 0.0448639 0.0452191 0.061855 0.0377153 0.0520801 0.0326251 0.0699863 0.0492519 0.053672 0.0686388 0.0560854 0.0651161 0.0677791 0.0563617 0.0712268
117 3 O 2.03867 20.0455 1.4948 -1.2 1 0.0300471 0.0165816 0.026737 0.0159667 0.0342366 0.0298942 0.0360096 0.0552042 0.0438839 0.0427387 0.0506702 0.0503764 0.047718 0.0738545 0.0847127 0.0725457 0.061801 0.0679534 0.0637206 0.0732444
118 3 O 4.96004 20.3134 0.196716 -1.2 1 0.0210293 0.0102071 0.0228638 0.0187197 0.023279 0.0452697 0.0439889 0.0479646 0.0389053 0.0396101 0.0414568 0.0342991 0.064685 0.0482086 0.0695172 0.073047 0.0715341 0.0578495 0.0716551 0.0722777
119 1 Mg 6.55057 18.996 2.9896 1.2 1 0.0082289 0.0153573 0.020665 0.022443 0.0239846 0.0346478 0.0377301 0.0558167 0.0349929 0.0611171 0.0363814 0.0635475 0.0231059 0.0698863 0.0449819 0.0733317 0.0448079 0.0944316 0.0436954 0.0947975
120 3 O 4.92172 20.3134 2.79288 -1.2 1 0.0133259 0.0102694 0.0301542 0.0142627 0.0301171 0.0401611 0.0460661 0.045791 0.0467744 0.0430981 0.0529499 0.040964 0.0536409 0.0535655 0.0752912 0.0669994 0.0754592 0.0482086 0.0714127 0.0725438
121 1 Mg -0.84282 19.0373 4.4844 1.2 1 0.0109965 0.0128576 0.01574 0.0291616 0.0210918 0.0291495 0.0342964 0.0335121 0.046127 0.0486196 0.0607645 0.0532776 0.0674387 0.065933 0.0571246 0.0736386 0.0710088 0.0913367 0.0742721 0.0837215
122 2 Si -2.64823 21.7214 4.4844 2.4 1 0.0199734 0.0134759 0.0175579 0.0277848 0.0281745 0.0400412 0.0566654 0.0319632 0.0543504 0.0631631 0.0523207 0.0638738 0.060538 0.0560741 0.0781339 0.0716815 0.0457375 0.0919443 0.0532416 0.0646326
123 3 O -2.70847 20.1082 4.4844 -1.2 1 0.0126381 0.0190011 0.0144546 0.0262443 0.0271839 0.0231645 0.0396854 0.0637233 0.0442626 0.0482046 0.04039 0.0720102 0.0511843 0.0605391 0.0678796 0.0691875 0.0486707 0.0735959 0.0681155 0.0763257
124 3 O 0.97581 22.6955 4.4844 -1.2 1 0.0169142 0.0247276 0.0209457 0.0187293 0.0195812 0.043491 0.0304201 0.0509665 0.044475 0.055 0.0400419 0.0459419 0.0454111 0.0715758 0.108953 0.0534798 0.0683791 0.0560082 0.0746261 0.0674633
125 3 O -1.9076 22.4276 3.18632 -1.2 1 0.0202968 0.00822449 0.0203248 0.0135426 0.0152855 0.0385898 0.0448967 0.0561808 0.0398366 0.0483848 0.0558484 0.0482927 0.0560129 0.05062 0.0805379 0.0594307 0.0684124 0.0652179 0.0619029 0.0662604
126 3 O -1.9475 22.4276 5.78248 -1.2 1 0.0179212 0.0123414 0.0199962 0.02215 0.0152225 0.0268742 0.0473722 0.0439896 0.0364759 0.0402902 0.0585186 0.0396863 0.0539488 0.0544246 0.0840549 0.0678963 0.0683836 0.0626082 0.0678925 0.0760378