ITEM: TIMESTEP
29900
ITEM: NUMBER OF ATOMS
10500
ITEM: BOX BOUNDS xy xz yz pp pp pp
0	15.2977	5.09925
0	118.725	0
0	89.688	0
ITEM: ATOMS id type element xu yu zu q Q_1 Q_2 Q_3 Q_4 Q_5 Q_6 Q_7 Q_8 Q_9 Q_10 Q_11 Q_12 Q_13 Q_14 Q_15 Q_16 Q_17 Q_18 Q_19 Q_20 Q_21
1 1 Mg 6.2404 -6.37941e-06 0 1.2 1 0.0103949 0.0413301 0.0323611 0.0370555 0.0312618 0.0393467 0.0357674 0.0666653 0.0400757 0.0711554 0.0346425 0.0612014 0.0473074 0.0687391 0.0497725 0.0902658 0.0509651 0.083235 0.050596 0.101628
2 1 Mg 3.46349 4.70768 1.4948 1.2 1 0.0130325 0.0170101 0.0242243 0.023116 0.0200287 0.0418909 0.0432059 0.0402627 0.0461978 0.0559724 0.0428719 0.0714088 0.0585707 0.0706294 0.0743924 0.0636168 0.0677922 0.086195 0.0726787 0.0829946
3 2 Si 5.2885 2.02354 1.4948 2.4 1 0.0218031 0.022559 0.0366763 0.0256025 0.0307456 0.0364529 0.0535228 0.0335574 0.0443519 0.0520672 0.0555114 0.0620098 0.0557178 0.0637739 0.0682387 0.079505 0.0708315 0.0648218 0.063726 0.0731802
4 3 O 5.33628 3.63678 1.4948 -1.2 1 0.00940889 0.0142288 0.0267695 0.0258129 0.0184157 0.0392001 0.0420797 0.060103 0.0357076 0.039978 0.0549737 0.0509378 0.068054 0.0577071 0.0589587 0.0652366 0.0604661 0.0612977 0.071337 0.0743583
5 3 O 1.67294 1.04952 1.4948 -1.2 1 0.0161067 0.0214826 0.0231088 0.0355512 0.029642 0.0389476 0.0341353 0.0610792 0.0347186 0.0596346 0.0438766 0.051216 0.0721895 0.0591028 0.0762669 0.069344 0.0625947 0.0644096 0.0793452 0.0603709
6 3 O 4.59532 1.31737 0.196716 -1.2 1 0.0258747 0.0221685 0.0575506 0.0252827 0.0333837 0.0486985 0.0386084 0.0473599 0.0339443 0.0394035 0.0385072 0.0505275 0.0542882 0.0571585 0.063511 0.0700839 0.0620471 0.0715159 0.0593095 0.0706725
7 1 Mg 6.18956 -6.37941e-06 2.9896 1.2 1 0.0151162 0.0293226 0.0157386 0.0222692 0.0365581 0.0440209 0.0504727 0.04299 0.0481037 0.0444058 0.0389662 0.0575989 0.0372814 0.0564258 0.0588949 0.0788856 0.0560543 0.0691215 0.0596741 0.0720213
8 3 O 4.55118 1.31737 2.79288 -1.2 1 0.0208269 0.0246056 0.0378876 0.015136 0.0287669 0.043096 0.0444139 0.0480895 0.044176 0.0539218 0.0539959 0.0502672 0.0492837 0.0672042 0.0538685 0.0685503 0.0644536 0.0660111 0.0651596 0.0718503
9 1 Mg -1.20682 0.0413099 4.4844 1.2 1 0.0175254 0.0281114 0.0206896 0.0281819 0.0381857 0.040569 0.0332487 0.0531702 0.0539669 0.0396555 0.0504327 0.0586637 0.066034 0.0572843 0.073363 0.060512 0.0791991 0.0779208 0.0643845 0.0547225
10 2 Si -3.0337 2.72544 4.4844 2.4 1 0.0333671 0.016798 0.0236767 0.016858 0.030669 0.0373004 0.0612078 0.0351547 0.0622227 0.0496715 0.0472538 0.0582015 0.0589892 0.0762206 0.0544111 0.0604712 0.071456 0.0782911 0.0741062 0.0589243
11 3 O -3.08099 1.11221 4.4844 -1.2 1 0.0112277 0.0255662 0.0269816 0.0243077 0.0354396 0.0272243 0.0490534 0.0466743 0.0408284 0.037729 0.0378753 0.0716832 0.0514457 0.0524734 0.0542176 0.0677513 0.0542152 0.0788618 0.0720039 0.0806899
12 3 O 0.582463 3.69946 4.4844 -1.2 1 0.00149672 0.01339 0.0304816 0.0275194 0.0296915 0.064432 0.0312135 0.0533191 0.0441105 0.0401253 0.0522141 0.0561544 0.0607749 0.0716093 0.0985553 0.0689869 0.0811252 0.0403226 0.0696879 0.0694016
13 3 O -2.29524 3.43162 3.18632 -1.2 1 0.0129602 0.0212644 0.0248035 0.0313169 0.0188569 0.0500156 0.051736 0.0499004 0.0413141 0.0530263 0.0591296 0.054668 0.0408305 0.0518644 0.0579561 0.0643113 0.067656 0.0626146 0.0648351 0.0723503
14 3 O -2.34216 3.43162 5.78248 -1.2 1 0.0192142 0.0145429 0.020186 0.0281137 0.0244151 0.0430782 0.0553212 0.0455167 0.0363407 0.0523259 0.0573744 0.047406 0.055472 0.0495946 0.0756701 0.0728109 0.0656982 0.0661099 0.0774157 0.0710566
15 1 Mg 1.12778 2.37449 2.9896 1.2 1 0.0151273 0.0398671 0.0169533 0.0238793 0.0257026 0.0425582 0.0410516 0.0510657 0.0369278 0.0606876 0.0371246 0.0591824 0.0404333 0.066926 0.0644606 0.0697798 0.0682882 0.0823054 0.0461584 0.0873137
16 1 Mg 3.92855 2.33318 4.4844 1.2 1 0.0318468 0.0158994 0.0225449 0.0267234 0.0448089 0.0253113 0.0404317 0.0363179 0.0467924 0.069874 0.0500106 0.0593414 0.0513733 0.0593401 0.0541851 0.0742547 0.0621567 0.097354 0.0738469 0.0847258
17 2 Si 2.09341 4.39804 4.4844 2.4 1 0.0188156 0.0197444 0.0332763 0.0227378 0.0430544 0.0269567 0.0607447 0.0247147 0.0429192 0.0490137 0.0647701 0.0623416 0.0692322 0.0591685 0.0734604 0.0711432 0.0721571 0.0801542 0.0543725 0.0671273
18 3 O 2.09991 6.01128 4.4844 -1.2 1 0.0110329 0.0151168 0.0174385 0.0170426 0.035191 0.0248973 0.0511892 0.0549761 0.0489029 0.0491065 0.0459169 0.0663038 0.0441653 0.0622788 0.065209 0.0743464 0.0447983 0.0777823 0.0584457 0.0734596
19 3 O -4.52137 3.42402 4.4844 -1.2 1 0.0190131 0.0272929 0.0363481 0.0189044 0.0287155 0.0534059 0.0401335 0.0466233 0.0545454 0.0566868 0.0340466 0.0575358 0.052735 0.0583028 0.0885264 0.0750724 0.0737523 0.0591037 0.0739477 0.0567142
20 3 O 2.80834 3.69187 3.18632 -1.2 1 0.0134117 0.016521 0.0207058 0.0250324 0.023675 0.0390692 0.0348426 0.0509169 0.0448685 0.0566259 0.0665775 0.0506903 0.0424233 0.0625327 0.0700579 0.0741713 0.0616618 0.0568714 0.0719936 0.0715972
21 1 Mg 1.17857 2.37449 0 1.2 1 0.0148215 0.0345319 0.0288125 0.0279861 0.037735 0.0381883 0.0435729 0.0590142 0.0358526 0.0496406 0.0506842 0.0418883 0.0419697 0.0670265 0.0559193 0.0640187 0.0611393 0.080698 0.0594603 0.0737954
22 3 O 2.76143 3.69187 5.78248 -1.2 1 0.00880693 0.0214851 0.0186881 0.0210158 0.0167268 0.0372556 0.0379333 0.0480977 0.0361148 0.0495866 0.0598947 0.0427394 0.0579139 0.074294 0.0746344 0.0659448 0.075354 0.0551628 0.0708849 0.074954
23 1 Mg -1.67381 2.41581 1.4948 1.2 1 0.0114663 0.0114788 0.0372467 0.0363375 0.0321391 0.0440917 0.0584584 0.0405204 0.0509912 0.0400902 0.0466161 0.0598222 0.0551401 0.0633866 0.0612186 0.065212 0.0832099 0.0770333 0.0667248 0.0743432
24 2 Si 0.16286 0.350945 1.4948 2.4 1 0.0152383 0.0322653 0.0280765 0.023388 0.0354924 0.0354449 0.0559239 0.0513957 0.0528731 0.0485838 0.0402689 0.0559144 0.0736793 0.0690265 0.0571621 0.0731792 0.0692867 0.0645329 0.0733916 0.0654263
25 3 O 0.15972 -1.26229 1.4948 -1.2 1 0.00929159 0.0152374 0.0397536 0.0212439 0.037523 0.0357725 0.0454579 0.0568263 0.0469199 0.0515442 0.0556732 0.0557217 0.0632647 0.0665745 0.0497492 0.0593221 0.0698893 0.0667271 0.0620574 0.0740148
26 3 O 6.77654 1.32496 1.4948 -1.2 1 0.0116496 0.0276351 0.0266118 0.0275376 0.0370729 0.0544658 0.0340001 0.0650946 0.0476707 0.046633 0.0442448 0.0521508 0.0525302 0.0596061 0.0686171 0.071189 0.0840896 0.0626178 0.0600483 0.0740692
27 3 O -0.508028 1.05712 0.196716 -1.2 1 0.0246338 0.0190897 0.0295441 0.0207963 0.0294856 0.0529313 0.0437717 0.0444865 0.0472233 0.0482253 0.0502633 0.0479005 0.0494958 0.0633084 0.0548224 0.062659 0.0630936 0.0588306 0.0726102 0.071636
28 3 O -0.552171 1.05712 2.79288 -1.2 1 0.0367748 0.0306667 0.0333331 0.0315046 0.0258161 0.0464869 0.0399491 0.0470257 0.0390529 0.0365712 0.0499963 0.0495975 0.0628033 0.0587425 0.0654347 0.0757142 0.0702181 0.0522039 0.0699123 0.0714069
29 1 Mg 6.31713 4.74899 0 1.2 1 0.0258937 0.0287557 0.0311865 0.0371025 0.0317076 0.0251618 0.0409121 0.0549942 0.0589035 0.0498963 0.0521297 0.0389546 0.0587521 0.0618783 0.0666473 0.0630967 0.0645664 0.0731691 0.0678717 0.070412
30 1 Mg 3.54847 9.45668 1.4948 1.2 1 0.017103 0.0158961 0.0176068 0.018951 0.0189456 0.0383853 0.0385052 0.0419293 0.0450886 0.0566264 0.0380074 0.0690405 0.0529854 0.0653692 0.0750366 0.0621275 0.0665263 0.0876641 0.0735794 0.0797378
31 2 Si 5.36879 6.77254 1.4948 2.4 1 0.0290568 0.0271056 0.0238412 0.0255454 0.0246387 0.0349739 0.0442803 0.036239 0.0447807 0.0569153 0.0422713 0.0585506 0.0537226 0.0664009 0.0655948 0.0741648 0.0674233 0.0790959 0.0561021 0.0692035
32 3 O 5.41937 8.38578 1.4948 -1.2 1 0.0216286 0.0115936 0.0236374 0.0296896 0.0173364 0.0432954 0.044214 0.0572428 0.0364313 0.050322 0.0476341 0.0638731 0.0554734 0.0543775 0.0663077 0.0599809 0.0730723 0.0559008 0.073162 0.0730718
33 3 O 1.75158 5.79852 1.4948 -1.2 1 0.0284717 0.0124333 0.0225233 0.0266612 0.0440818 0.0306226 0.039214 0.0571542 0.040763 0.0526675 0.0494964 0.0507113 0.0474364 0.0709536 0.0786955 0.07837 0.0601481 0.0749626 0.0601323 0.0766287
34 3 O 4.67421 6.06637 0.196716 -1.2 1 0.0145694 0.0265165 0.031509 0.0243044 0.0320674 0.0378801 0.0345398 0.0323664 0.0448759 0.0562295 0.0392353 0.044392 0.0669317 0.0563058 0.0675414 0.0713846 0.071508 0.0657033 0.0630695 0.0683216
35 1 Mg 6.26654 4.74899 2.9896 1.2 1 0.0268786 0.0263614 0.0232459 0.0424221 0.0257876 0.0430486 0.0483171 0.0487131 0.0358621 0.0633571 0.0383825 0.0602828 0.0402064 0.0644011 0.0535635 0.0774692 0.0562344 0.0840773 0.0435871 0.0895459
36 3 O 4.63043 6.06637 2.79288 -1.2 1 0.0182891 0.0189713 0.0416307 0.0198638 0.0319582 0.0358603 0.0424718 0.0486327 0.0455669 0.0372116 0.0501512 0.0514956 0.0571184 0.0651501 0.0614902 0.0749771 0.0658156 0.0688845 0.0673873 0.0846338
37 1 Mg -1.12976 4.79031 4.4844 1.2 1 0.0229462 0.0263875 0.011737 0.0136837 0.0351941 0.0384904 0.0481229 0.0495305 0.0440368 0.0440359 0.0551595 0.0588947 0.0785821 0.0715381 0.0622477 0.0685047 0.0694414 0.0954256 0.0724981 0.0788279
38 2 Si -2.9517 7.47444 4.4844 2.4 1 0.0202216 0.0176959 0.0183117 0.0239892 0.0311139 0.0431343 0.0612813 0.0294259 0.0533698 0.0570432 0.0523564 0.0576544 0.0624755 0.0593642 0.0813672 0.0705161 0.0534255 0.0893317 0.057879 0.0582678
39 3 O -3.00198 5.86121 4.4844 -1.2 1 0.0148629 0.022939 0.0278721 0.0245881 0.034285 0.0301838 0.0556077 0.0599914 0.04006 0.0546449 0.0491909 0.0717643 0.0563013 0.0569466 0.062897 0.0734685 0.0463566 0.0758673 0.0605561 0.0792978
40 3 O 0.666315 8.44846 4.4844 -1.2 1 0.0197349 0.0234828 0.0246615 0.0174169 0.0212777 0.0549574 0.0324212 0.04832 0.0421797 0.0485558 0.0429831 0.0520782 0.0504536 0.0743235 0.101742 0.067986 0.0755037 0.0527299 0.0708973 0.0750465
41 3 O -2.21213 8.18062 3.18632 -1.2 1 0.0216006 0.0124851 0.0190186 0.0152702 0.0155178 0.0327486 0.0449945 0.0535728 0.0433923 0.0561967 0.051592 0.0530959 0.0521756 0.0472566 0.0781171 0.0620107 0.0721547 0.0596231 0.0687707 0.0703613
42 3 O -2.25864 8.18062 5.78248 -1.2 1 0.00594584 0.0172646 0.0203144 0.0231613 0.0213272 0.027835 0.0543672 0.043875 0.0410093 0.0377938 0.0528046 0.036974 0.0580301 0.058139 0.0835997 0.0698089 0.0681567 0.0615376 0.0688627 0.0740803
43 1 Mg 1.20893 7.12349 2.9896 1.2 1 0.00790336 0.0223355 0.0192412 0.0251047 0.0238704 0.0396507 0.0425152 0.0465763 0.0345572 0.0652829 0.0393029 0.0666793 0.036888 0.0585368 0.0526009 0.0797257 0.0503501 0.0835185 0.0459685 0.0878504
44 1 Mg 4.00982 7.08218 4.4844 1.2 1 0.0227294 0.0159473 0.0226854 0.0352944 0.0297111 0.0367801 0.0440357 0.037457 0.0457477 0.051694 0.0578167 0.055668 0.0721459 0.0724944 0.0567807 0.0679937 0.0628197 0.100718 0.0722726 0.0821904
45 2 Si 2.17861 9.14704 4.4844 2.4 1 0.0268848 0.0136988 0.0246244 0.021556 0.0291597 0.0338198 0.0622245 0.0248307 0.0503353 0.0538491 0.055896 0.0588242 0.0641023 0.0579362 0.0810521 0.0680561 0.0503721 0.0930245 0.0566706 0.055653
46 3 O 2.18828 10.7603 4.4844 -1.2 1 0.0198802 0.0118356 0.00371323 0.0188346 0.0247885 0.0226266 0.0421959 0.0594756 0.0405515 0.0508434 0.0418674 0.0718597 0.0459767 0.0636184 0.0688562 0.0725574 0.0464761 0.0714121 0.0636685 0.074223
47 3 O -4.43805 8.17302 4.4844 -1.2 1 0.0165227 0.0248821 0.0167958 0.0152148 0.0241415 0.0526807 0.0358809 0.0485576 0.0460659 0.0505174 0.0351523 0.0524524 0.0509402 0.0720767 0.0999272 0.0681171 0.0779352 0.0538135 0.0722649 0.0745779
48 3 O 2.89193 8.44087 3.18632 -1.2 1 0.022171 0.0193558 0.0168261 0.0153259 0.020436 0.0404897 0.033793 0.0542042 0.043947 0.0513824 0.0582031 0.0503525 0.0507067 0.052618 0.0802623 0.0628629 0.0700023 0.0590771 0.0659176 0.0729225
49 1 Mg 1.25915 7.12349 0 1.2 1 0.01992 0.0152794 0.0247821 0.0147022 0.0321623 0.0255097 0.0524141 0.0404242 0.0557834 0.0500003 0.052881 0.0423109 0.0722613 0.0513681 0.0672563 0.0708992 0.0651144 0.0709417 0.0813167 0.0587139
50 3 O 2.84547 8.44087 5.78248 -1.2 1 0.0059183 0.0145662 0.0175607 0.024102 0.0235599 0.0256236 0.0480548 0.0485185 0.0396333 0.0396788 0.0584505 0.0430242 0.0603085 0.0621444 0.0887153 0.0608112 0.0723165 0.0612547 0.0654473 0.0759657
51 1 Mg -1.59284 7.16481 1.4948 1.2 1 0.0072551 0.0199904 0.0192016 0.022556 0.0152752 0.0380717 0.0463981 0.042446 0.0422489 0.0571364 0.0389017 0.067414 0.0537323 0.069071 0.0767217 0.0608099 0.0669633 0.0851965 0.0744771 0.0784991
52 2 Si 0.240329 5.09994 1.4948 2.4 1 0.0246431 0.0173294 0.0159555 0.0434148 0.0272193 0.040556 0.0467499 0.0532703 0.0551404 0.0488458 0.0455416 0.0576569 0.0590348 0.0679379 0.0655137 0.0664735 0.0639801 0.0728631 0.06626 0.0680519
53 3 O 0.234538 3.48671 1.4948 -1.2 1 0.0132194 0.0163084 0.0267219 0.0357599 0.0316416 0.0493796 0.0460208 0.0424263 0.0530131 0.0466987 0.052502 0.0611259 0.0560592 0.0611473 0.0619319 0.0624624 0.0626296 0.0568232 0.0761099 0.0734095
54 3 O 6.85564 6.07396 1.4948 -1.2 1 0.0324967 0.0195518 0.0345259 0.0275494 0.0372247 0.0402345 0.0325741 0.0624038 0.0362585 0.0530638 0.0536948 0.0536084 0.055483 0.0737145 0.0697807 0.0769603 0.0666883 0.0724499 0.0531233 0.0852019
55 3 O -0.429565 5.80612 0.196716 -1.2 1 0.0340239 0.0200082 0.0159261 0.0212431 0.0409661 0.0374554 0.0538734 0.0450701 0.045995 0.0563487 0.039775 0.0419139 0.0532943 0.0600629 0.0599994 0.0680836 0.0703539 0.0610852 0.0653449 0.0741926
56 3 O -0.473377 5.80612 2.79288 -1.2 1 0.0258711 0.0228641 0.0314456 0.0203151 0.0343105 0.045365 0.048179 0.0501702 0.0528717 0.0460555 0.0626052 0.0389417 0.0427563 0.0581025 0.0660651 0.0722775 0.0643386 0.0681694 0.0697141 0.0817619
57 1 Mg 6.40169 9.49799 0 1.2 1 0.0169448 0.0094987 0.0187303 0.0120008 0.0292811 0.0206213 0.0520178 0.0369145 0.0594226 0.0498596 0.0493154 0.0356923 0.0668834 0.0534472 0.0716043 0.0671736 0.0662944 0.0706091 0.0825041 0.0676185
58 1 Mg 3.64209 14.2057 1.4948 1.2 1 0.00624301 0.0138908 0.0177743 0.01962 0.0221559 0.0340867 0.0367069 0.0428925 0.0401923 0.0548473 0.0388636 0.0683136 0.0543518 0.0667766 0.0749835 0.0630171 0.0642423 0.0833619 0.074907 0.0784103
59 2 Si 5.45748 11.5215 1.4948 2.4 1 0.0119623 0.021953 0.0232804 0.0248429 0.0179105 0.0403027 0.0396817 0.0399097 0.0435555 0.0544969 0.0424487 0.0606886 0.0533338 0.0661446 0.0694715 0.0633914 0.0711704 0.0819366 0.058174 0.0668793
60 3 O 5.51101 13.1348 1.4948 -1.2 1 0.0241372 0.0136153 0.0224007 0.0293744 0.0198054 0.0434813 0.0445833 0.0589447 0.0366294 0.0494237 0.0431879 0.0673063 0.0536047 0.0532543 0.0656722 0.0600565 0.070988 0.0576856 0.0696592 0.0718807
61 3 O 1.83851 10.5475 1.4948 -1.2 1 0.0351626 0.0141059 0.0216313 0.0139486 0.0363312 0.0305182 0.03628 0.0591865 0.0398827 0.0484856 0.0498257 0.0516167 0.0471441 0.0748092 0.0756114 0.0799828 0.0568081 0.0758313 0.0575559 0.079058
62 3 O 4.7611 10.8154 0.196716 -1.2 1 0.0358489 0.0194532 0.0200171 0.0181666 0.026762 0.0439645 0.0480688 0.0371922 0.038951 0.04897 0.0368473 0.0411824 0.0612044 0.0603106 0.064933 0.0714318 0.0747727 0.065808 0.0722944 0.0668051
63 1 Mg 6.35203 9.49799 2.9896 1.2 1 0.00934974 0.0176551 0.0218888 0.0189248 0.0214905 0.0374562 0.0376656 0.052002 0.0352497 0.0601219 0.0343283 0.0643506 0.0311799 0.0671036 0.0479286 0.077122 0.0424689 0.0919547 0.0469104 0.0911387
64 3 O 4.71833 10.8154 2.79288 -1.2 1 0.0215013 0.0131449 0.0322489 0.0130167 0.0306002 0.0426449 0.043406 0.0451559 0.0428209 0.0376086 0.0529807 0.0422268 0.0547864 0.0597643 0.0735611 0.0690824 0.0729714 0.0586258 0.0696152 0.0796053
65 1 Mg -1.0438 9.53931 4.4844 1.2 1 0.0101319 0.0137256 0.0178068 0.0202337 0.0294355 0.0267731 0.0367163 0.0357643 0.047263 0.0521887 0.0569038 0.0575392 0.0693344 0.0700385 0.0583756 0.0693363 0.0711402 0.100555 0.0714662 0.0835084
66 2 Si -2.8604 12.2234 4.4844 2.4 1 0.0193061 0.012029 0.0165768 0.0271176 0.0306979 0.0414509 0.0601088 0.0304151 0.0536745 0.0620883 0.056342 0.0631139 0.0601791 0.0576034 0.0804469 0.070697 0.0495911 0.0914208 0.0545063 0.0646769
67 3 O -2.91391 10.6102 4.4844 -1.2 1 0.021251 0.0135324 0.00906844 0.0244489 0.0264877 0.023293 0.044556 0.0626224 0.0415427 0.0485154 0.0366669 0.0700774 0.0446527 0.0587544 0.0669861 0.0704395 0.0499132 0.0733626 0.0609621 0.0756882
68 3 O 0.7596 13.1975 4.4844 -1.2 1 0.0219041 0.0254937 0.0198967 0.0128146 0.0247517 0.0495891 0.0340327 0.0486956 0.0466326 0.0505778 0.0396273 0.0492665 0.0480746 0.0707414 0.102001 0.0624205 0.0767191 0.054897 0.0720785 0.0712112
69 3 O -2.12001 12.9296 3.18632 -1.2 1 0.0202557 0.00734983 0.0213264 0.0168867 0.0191519 0.0368559 0.0406949 0.0544439 0.0436859 0.0542399 0.0533176 0.0492566 0.0560409 0.0501741 0.0800787 0.0626327 0.0737939 0.0640376 0.0658303 0.0703108
70 3 O -2.16532 12.9296 5.78248 -1.2 1 0.0120834 0.0101639 0.0238438 0.024973 0.0155713 0.0269917 0.0528798 0.0434172 0.0401882 0.0377552 0.0560732 0.0378537 0.0550955 0.0650177 0.0816488 0.0685946 0.0696371 0.061102 0.071786 0.0750975
71 1 Mg 1.29891 11.8725 2.9896 1.2 1 0.00870111 0.0158271 0.0224152 0.0246744 0.0173101 0.0391514 0.0362488 0.0494137 0.0355259 0.0599593 0.0349099 0.0594466 0.0252244 0.066961 0.0494141 0.0837262 0.0490094 0.0892178 0.0469242 0.0867062
72 1 Mg 4.10033 11.8312 4.4844 1.2 1 0.00781694 0.0146059 0.0184831 0.0260326 0.0306496 0.0298664 0.040071 0.0360065 0.0482911 0.0520158 0.0555205 0.0539059 0.0694746 0.068641 0.05468 0.0708486 0.0680584 0.100122 0.0745096 0.0797041
73 2 Si 2.27333 13.896 4.4844 2.4 1 0.025984 0.00709921 0.0250757 0.0243016 0.0241858 0.0384685 0.0611736 0.030044 0.0533668 0.0563008 0.0542683 0.062301 0.0620633 0.0580442 0.0764268 0.0682319 0.0470096 0.0974985 0.05467 0.0544985
74 3 O 2.28634 15.5093 4.4844 -1.2 1 0.0196763 0.0146587 0.0065406 0.0176753 0.0265823 0.0217261 0.0435363 0.0604064 0.0433268 0.0535861 0.0412213 0.0709956 0.0445404 0.0630665 0.0679234 0.0706775 0.0484456 0.0696373 0.0623439 0.074044
75 3 O -4.34533 12.922 4.4844 -1.2 1 0.029402 0.0229987 0.0208599 0.0110292 0.0232093 0.0499672 0.0352623 0.0484315 0.0444175 0.0522626 0.0387533 0.0526762 0.0485424 0.070574 0.0988754 0.0675674 0.0781119 0.0538308 0.0713318 0.0740273
76 3 O 2.98455 13.1899 3.18632 -1.2 1 0.025548 0.0102859 0.0190799 0.0117962 0.0190278 0.0400855 0.0382401 0.0570399 0.0428918 0.0550162 0.0551972 0.0502577 0.0512966 0.0519198 0.0816012 0.0613695 0.0677275 0.0602867 0.0635324 0.0715917
77 1 Mg 1.34779 11.8725 0 1.2 1 0.0216558 0.00932521 0.0218849 0.0150246 0.0288241 0.022727 0.051603 0.0346175 0.0574572 0.0510029 0.0496695 0.0353899 0.0652915 0.0501244 0.0705865 0.0643644 0.0616986 0.0700792 0.0874089 0.0598456
78 3 O 2.93934 13.1899 5.78248 -1.2 1 0.0167994 0.0132868 0.0171621 0.02368 0.0203332 0.0245422 0.0502078 0.0472148 0.0419178 0.0409549 0.0575148 0.0388161 0.0550143 0.0609582 0.0869436 0.0643338 0.0706506 0.0629749 0.066392 0.0742975
79 1 Mg -1.50344 11.9138 1.4948 1.2 1 0.0129542 0.0179021 0.0229574 0.0204058 0.0117211 0.0369618 0.0381733 0.0426584 0.0411853 0.0599218 0.0351196 0.0652177 0.0506507 0.0648045 0.0748318 0.06807 0.0640397 0.084103 0.0765201 0.0788682
80 2 Si 0.326006 9.84894 1.4948 2.4 1 0.0280926 0.0178179 0.0269513 0.0295456 0.0169041 0.0381037 0.0434736 0.0399762 0.0440992 0.0550545 0.0396023 0.0605363 0.0555577 0.0662156 0.0607783 0.0628104 0.0700564 0.0801486 0.0614184 0.0687918
81 3 O 0.317364 8.23571 1.4948 -1.2 1 0.0224054 0.0125411 0.0225506 0.0240935 0.0200731 0.045308 0.0429724 0.0499028 0.0347677 0.0542835 0.0441475 0.0657109 0.0573321 0.0598228 0.0678135 0.0660359 0.071852 0.0533486 0.0734953 0.0741655
82 3 O 6.94307 10.823 1.4948 -1.2 1 0.0312379 0.0148743 0.0220673 0.0117134 0.0372869 0.0328609 0.0381428 0.0580052 0.034543 0.0476939 0.0512296 0.0529437 0.0502461 0.0745766 0.0727129 0.0796199 0.061633 0.0727964 0.0582287 0.0800967
83 3 O -0.343122 10.5551 0.196716 -1.2 1 0.026965 0.0179659 0.0216664 0.0210782 0.0314272 0.0419224 0.0499774 0.0392443 0.0375473 0.0483023 0.0382905 0.036363 0.0603325 0.0607118 0.0683511 0.070127 0.0822486 0.0534177 0.069851 0.0700833
84 3 O -0.385966 10.5551 2.79288 -1.2 1 0.0218814 0.0193009 0.0317291 0.0126023 0.033507 0.0410888 0.0447819 0.046607 0.0425419 0.0399772 0.0528191 0.0484 0.0494394 0.0559375 0.0697701 0.0724057 0.0673882 0.0609897 0.0680524 0.0797627
85 1 Mg 6.49448 14.247 0 1.2 1 0.0224691 0.009834 0.0186188 0.0171493 0.028553 0.0231321 0.0477732 0.033132 0.0592811 0.0481646 0.0512387 0.0373423 0.0627509 0.0530859 0.0710946 0.0656833 0.0642893 0.0708857 0.0845728 0.0707997
86 1 Mg 3.74457 18.9547 1.4948 1.2 1 0.0149664 0.0106523 0.0153643 0.0161418 0.0258778 0.0292909 0.031278 0.0394776 0.0379633 0.0580593 0.0433797 0.0665835 0.0506748 0.0663565 0.0708062 0.0697853 0.0632162 0.0832642 0.0783298 0.076041
87 2 Si 5.55495 16.2705 1.4948 2.4 1 0.0120332 0.0202305 0.0220024 0.0268577 0.01846 0.0426561 0.0364104 0.0420757 0.0451646 0.0517117 0.0435986 0.0612255 0.0543943 0.0639281 0.0696815 0.0590279 0.0730402 0.0798189 0.0606432 0.0709845
88 3 O 5.6115 17.8838 1.4948 -1.2 1 0.0269329 0.0181446 0.0233459 0.0256218 0.019188 0.04349 0.0453549 0.060829 0.0374601 0.0498562 0.0381758 0.0671173 0.0513818 0.0560106 0.0644535 0.0574383 0.0657679 0.0616744 0.0632409 0.0691355
89 3 O 1.93416 15.2965 1.4948 -1.2 1 0.0370962 0.0148047 0.0218654 0.0127689 0.0349767 0.0302445 0.0360237 0.0595682 0.0430014 0.0471685 0.0484557 0.0513464 0.0466097 0.0731292 0.0807591 0.0775669 0.0587829 0.0737272 0.0625223 0.0767588
90 3 O 4.85636 15.5644 0.196716 -1.2 1 0.0260829 0.01097 0.0223787 0.0195962 0.0236501 0.0514217 0.0506236 0.0400729 0.0409586 0.0464709 0.0365637 0.0336344 0.0639705 0.0545022 0.067247 0.0682591 0.0747431 0.0633869 0.0719709 0.0676663
91 1 Mg 6.44662 14.247 2.9896 1.2 1 0.0114116 0.0170331 0.0231038 0.0240047 0.01842 0.0366021 0.0376909 0.0524301 0.03677 0.0572037 0.0340537 0.0636989 0.023882 0.0669049 0.0458476 0.0776083 0.045122 0.0914694 0.0437034 0.0928495
92 3 O 4.81537 15.5644 2.79288 -1.2 1 0.0117134 0.00948046 0.0291557 0.0131619 0.0282759 0.0371433 0.0470263 0.0471474 0.0457772 0.0389361 0.0515568 0.0425024 0.0539425 0.0576038 0.0754676 0.0683547 0.0769106 0.0523247 0.0719391 0.0752536
93 1 Mg -0.948271 14.2883 4.4844 1.2 1 0.0181025 0.0122703 0.0172983 0.0297734 0.0258052 0.0278473 0.0379862 0.0346969 0.0444268 0.0482048 0.060148 0.0563655 0.0669814 0.0681723 0.0599393 0.0713253 0.0690288 0.0962197 0.0726198 0.0798938
94 2 Si -2.75928 16.9724 4.4844 2.4 1 0.0197046 0.0100528 0.0203472 0.0289204 0.0293761 0.0403698 0.0585338 0.0324449 0.0559316 0.0642581 0.0531024 0.0621427 0.0588756 0.056081 0.0797276 0.0708614 0.0483959 0.0915903 0.0522613 0.0647105
95 3 O -2.81617 15.3592 4.4844 -1.2 1 0.0157477 0.0118237 0.0151534 0.0237709 0.0302035 0.0213747 0.0427699 0.0646042 0.0439439 0.0499316 0.0387526 0.0733512 0.0489909 0.0590648 0.0667337 0.0700648 0.0494859 0.0737006 0.0635868 0.0761447
96 3 O 0.862762 17.9465 4.4844 -1.2 1 0.0180963 0.0241452 0.0222757 0.0178262 0.0222251 0.0479587 0.0344981 0.0518548 0.0471591 0.0539916 0.039685 0.048196 0.0445629 0.0715165 0.106931 0.0573673 0.0698413 0.0542133 0.0729363 0.0697023
97 3 O -2.0185 17.6786 3.18632 -1.2 1 0.0214888 0.00768813 0.0194353 0.0181513 0.0172915 0.037889 0.0418084 0.0550679 0.0413506 0.0536488 0.0534089 0.0486531 0.0558535 0.0487715 0.0813096 0.0591956 0.0701866 0.0666273 0.0643461 0.0689233
98 3 O -2.06164 17.6786 5.78248 -1.2 1 0.0165403 0.00904344 0.022196 0.0207011 0.014501 0.0289363 0.0478697 0.0449031 0.0368369 0.0386276 0.057684 0.0373473 0.0561852 0.0586598 0.0833112 0.0706436 0.0677938 0.0615764 0.0678715 0.0769307
99 1 Mg 1.39817 16.6215 2.9896 1.2 1 0.00644434 0.016031 0.0190587 0.0223784 0.017755 0.0360789 0.0372197 0.0526642 0.0369065 0.0588312 0.0359537 0.0560668 0.0238081 0.0670391 0.0473127 0.0806889 0.0494815 0.0920899 0.0451448 0.0882475
100 1 Mg 4.20062 16.5802 4.4844 1.2 1 0.0136764 0.0121288 0.0148151 0.0243951 0.0255982 0.0297492 0.0408292 0.0351213 0.04661 0.0525873 0.0539465 0.054537 0.0698366 0.0680919 0.0534358 0.0715994 0.0687926 0.0973334 0.0733417 0.0805211
101 2 Si 2.37796 18.645 4.4844 2.4 1 0.0214264 0.0133907 0.0221331 0.0247865 0.0264253 0.0358248 0.0619879 0.0302526 0.0551517 0.0603098 0.0510683 0.0605591 0.0603855 0.0554948 0.0745888 0.0678362 0.0457544 0.0981376 0.0509819 0.0570873
102 3 O 2.39434 20.2583 4.4844 -1.2 1 0.0231563 0.0125019 0.00931145 0.0180699 0.0246917 0.022112 0.0416779 0.0593671 0.0453177 0.0524472 0.0416618 0.0716371 0.0478284 0.0635639 0.0698631 0.0689806 0.0490828 0.0680325 0.0628982 0.078597
103 3 O -4.24274 17.671 4.4844 -1.2 1 0.0131773 0.0208013 0.0199969 0.0207462 0.0198779 0.0506412 0.0327321 0.0489345 0.0430342 0.0535177 0.0410838 0.0528998 0.0506078 0.0699636 0.10167 0.0600206 0.0762406 0.0569857 0.0760526 0.0714855
104 3 O 3.08659 17.9389 3.18632 -1.2 1 0.0284701 0.0121625 0.0212565 0.0109924 0.0171228 0.038422 0.0373005 0.0550149 0.0431097 0.0520651 0.0553841 0.04851 0.0516971 0.0501706 0.0809133 0.0582631 0.0677651 0.0602569 0.0650908 0.0682508
105 1 Mg 1.44478 16.6215 0 1.2 1 0.00943253 0.012171 0.0217004 0.0127884 0.0266394 0.031685 0.0478787 0.0355886 0.050643 0.0504596 0.0517215 0.0398089 0.0586596 0.0496309 0.0697499 0.0664248 0.060047 0.0679833 0.0883779 0.0641901
106 3 O 3.0436 17.9389 5.78248 -1.2 1 0.0157675 0.0140396 0.0181237 0.0223073 0.0199267 0.0238061 0.0502408 0.0466716 0.0410141 0.0410635 0.0574036 0.037235 0.0555248 0.0590983 0.0858304 0.0658082 0.0696992 0.0602449 0.0642441 0.0779513
107 1 Mg -1.40524 16.6628 1.4948 1.2 1 0.0116127 0.0124433 0.0258824 0.0176499 0.0174856 0.0344634 0.0360628 0.042599 0.0419808 0.0605461 0.0410198 0.0628208 0.0547322 0.0643546 0.0738825 0.0690731 0.0639524 0.0777397 0.0776351 0.0760196
108 2 Si 0.420358 14.5979 1.4948 2.4 1 0.022597 0.0192655 0.0288964 0.0260191 0.0176996 0.0384505 0.0390787 0.0419679 0.0444449 0.0549891 0.0424712 0.0620957 0.0576179 0.0629961 0.0672061 0.0590395 0.0719145 0.0768356 0.0622393 0.0710925
109 3 O 0.408732 12.9847 1.4948 -1.2 1 0.0222153 0.0154828 0.0228551 0.0256504 0.0167075 0.0471736 0.0439363 0.0538677 0.0363525 0.0527799 0.0422933 0.0692621 0.0532858 0.0568528 0.0657981 0.063583 0.0714096 0.0550157 0.068326 0.071888
110 3 O 7.03923 15.572 1.4948 -1.2 1 0.029304 0.0169108 0.0218543 0.0128038 0.0361409 0.0335849 0.0368533 0.0561791 0.0380825 0.0442479 0.0512157 0.053292 0.0483076 0.0743522 0.0781689 0.0782069 0.0644872 0.0695971 0.0622828 0.0777445
111 3 O -0.248332 15.3041 0.196716 -1.2 1 0.0190943 0.013197 0.0213851 0.0183432 0.0250879 0.0463685 0.0487652 0.0429972 0.0393203 0.0446286 0.0378677 0.0307125 0.0608638 0.0539687 0.0701762 0.0643207 0.0834695 0.0504412 0.0700784 0.0721213
112 3 O -0.289436 15.3041 2.79288 -1.2 1 0.0104863 0.0158334 0.0311454 0.011139 0.0297967 0.037999 0.0447514 0.0465374 0.0452149 0.0388347 0.0539208 0.0464268 0.0520823 0.0562899 0.0727935 0.0694603 0.0715175 0.0562954 0.0705043 0.0761014
113 1 Mg 6.59566 18.996 0 1.2 1 0.0138279 0.0116493 0.0198877 0.0143381 0.0260069 0.0316869 0.0430614 0.0330479 0.0540641 0.0490854 0.0542942 0.0390655 0.0521263 0.052764 0.0719592 0.064546 0.0643332 0.0648513 0.0861153 0.0704996
114 1 Mg 3.85574 23.7037 1.4948 1.2 1 0.0107418 0.0125961 0.021252 0.0140596 0.0226911 0.0288162 0.0313937 0.0368702 0.038784 0.0600211 0.0469085 0.0627588 0.0501969 0.0670309 0.0649088 0.072617 0.0662317 0.0797814 0.0800094 0.075925
115 2 Si 5.66125 21.0195 1.4948 2.4 1 0.00826757 0.0242619 0.023306 0.0274009 0.0192313 0.0462885 0.0339932 0.0415576 0.0491075 0.0543772 0.0453122 0.0608382 0.0557879 0.0594727 0.0714995 0.060945 0.0734598 0.0770527 0.0645483 0.0754714
116 3 O 5.72074 22.6328 1.4948 -1.2 1 0.0282252 0.0192697 0.0184203 0.0227226 0.0190973 0.0448439 0.0453585 0.0618119 0.0378956 0.0519294 0.0328173 0.0699268 0.0494986 0.0537068 0.0685856 0.0559047 0.0651089 0.067815 0.0564062 0.0710494
117 3 O 2.03867 20.0455 1.4948 -1.2 1 0.0300358 0.0166101 0.0268097 0.015727 0.0342117 0.0298524 0.0360467 0.0553337 0.0436418 0.0425027 0.0504475 0.0507479 0.0482812 0.0737601 0.0850274 0.0725613 0.061939 0.0679646 0.0637973 0.0731654
118 3 O 4.96004 20.3134 0.196716 -1.2 1 0.0211835 0.0104985 0.0229646 0.01872 0.0232385 0.045179 0.0437952 0.0478222 0.0388724 0.0398722 0.040863 0.0345445 0.0648017 0.0473362 0.0695578 0.072801 0.0712274 0.0582354 0.0709893 0.0719294
119 1 Mg 6.55057 18.996 2.9896 1.2 1 0.00809606 0.0151602 0.0205724 0.0223094 0.0244563 0.0349366 0.0376812 0.0558529 0.0339188 0.0603258 0.0355053 0.064299 0.0229127 0.0702678 0.0451216 0.0739185 0.0451694 0.0951071 0.0432633 0.0941807
120 3 O 4.92172 20.3134 2.79288 -1.2 1 0.0134295 0.010081 0.0299829 0.0139912 0.0301143 0.0401108 0.0460279 0.0459443 0.046795 0.0424507 0.051993 0.0406201 0.0531207 0.0539482 0.0758631 0.0670464 0.0758493 0.0483039 0.0713356 0.0729217
121 1 Mg -0.84282 19.0373 4.4844 1.2 1 0.0151189 0.0129097 0.013564 0.0277195 0.0232963 0.0271291 0.0371346 0.0325125 0.0449765 0.049021 0.0588143 0.0568761 0.0665453 0.0688317 0.0582845 0.0725862 0.0714615 0.093602 0.0728459 0.0817865
122 2 Si -2.64823 21.7214 4.4844 2.4 1 0.0152003 0.0137445 0.0180555 0.0255037 0.0289332 0.0415803 0.0557413 0.0322805 0.053458 0.0623268 0.0500514 0.0626346 0.0589376 0.0556126 0.0780666 0.0714854 0.0467361 0.0946559 0.0543196 0.0639368
123 3 O -2.70847 20.1082 4.4844 -1.2 1 0.0130895 0.0178546 0.0156881 0.0254778 0.0256072 0.0247304 0.0403357 0.0649302 0.0448084 0.0498916 0.0385818 0.0703934 0.0500865 0.0578922 0.0673733 0.0660164 0.0527654 0.0718642 0.064835 0.0770726
124 3 O 0.97581 22.6955 4.4844 -1.2 1 0.0163937 0.0246508 0.0206601 0.0189858 0.0205877 0.0430386 0.0305238 0.0514324 0.045357 0.0553823 0.0404877 0.0464424 0.0453211 0.0717232 0.1094 0.052727 0.0679707 0.0576498 0.0733433 0.0674353
125 3 O -1.9076 22.4276 3.18632 -1.2 1 0.0218884 0.00790528 0.0207096 0.0160552 0.0133559 0.0368952 0.0437651 0.0558872 0.0375597 0.0506845 0.0550397 0.0486317 0.0563276 0.0479309 0.0804923 0.0581653 0.0692355 0.0661753 0.0624884 0.0653714
126 3 O -1.9475 22.4276 5.78248 -1.2 1 0.0139929 0.0103081 0.0224677 0.0211285 0.014647 0.0254027 0.0480972 0.0459149 0.0362033 0.0390009 0.0586664 0.0389067 0.0560232 0.0582018 0.0821341 0.0677058 0.0702919 0.0621776 0.0663 0.0770073