ITEM: TIMESTEP
83700
ITEM: NUMBER OF ATOMS
10500
ITEM: BOX BOUNDS xy xz yz pp pp pp
0	15.2977	5.09925
0	118.725	0
0	89.688	0
ITEM: ATOMS id type element xu yu zu q Q_1 Q_2 Q_3 Q_4 Q_5 Q_6 Q_7 Q_8 Q_9 Q_10 Q_11 Q_12 Q_13 Q_14 Q_15 Q_16 Q_17 Q_18 Q_19 Q_20 Q_21
1 1 Mg 6.2404 -6.37941e-06 0 1.2 1 0.0131765 0.0407969 0.0297784 0.0357201 0.0332863 0.041175 0.0355078 0.0683836 0.0388337 0.0715574 0.0336078 0.059718 0.0456938 0.0682428 0.0491049 0.0925212 0.0514701 0.0840388 0.0517899 0.10181
2 1 Mg 3.46349 4.70768 1.4948 1.2 1 0.00781767 0.0194026 0.0246946 0.0256121 0.019749 0.0421828 0.0437081 0.0408896 0.0470711 0.0550247 0.042377 0.0717867 0.0600243 0.069349 0.073566 0.0644797 0.0658198 0.0866039 0.0748863 0.0817334
3 2 Si 5.2885 2.02354 1.4948 2.4 1 0.0218775 0.022405 0.0367005 0.0256001 0.0309145 0.0365979 0.0534486 0.0335015 0.0442978 0.0519861 0.0557037 0.0617552 0.0556891 0.0638114 0.0682875 0.0792662 0.0709356 0.0650008 0.0634559 0.0732092
4 3 O 5.33628 3.63678 1.4948 -1.2 1 0.00938736 0.0141731 0.0267607 0.0261804 0.0184249 0.0390457 0.0418648 0.060337 0.0354693 0.0407361 0.0544347 0.0505496 0.0677238 0.0580431 0.0581941 0.0646554 0.0597373 0.0618581 0.0715571 0.0742722
5 3 O 1.67294 1.04952 1.4948 -1.2 1 0.0145897 0.0223085 0.0226679 0.038644 0.0315632 0.0398983 0.0322735 0.0618984 0.0350471 0.0604549 0.0433039 0.0529366 0.0705455 0.0591346 0.0768762 0.0693188 0.0636333 0.0642883 0.080548 0.0597666
6 3 O 4.59532 1.31737 0.196716 -1.2 1 0.0260424 0.0223055 0.0575314 0.0249666 0.0336195 0.0487054 0.0384964 0.0475043 0.0339454 0.0394652 0.0390065 0.0508806 0.0543228 0.0567994 0.0638828 0.0701056 0.061532 0.0710085 0.0590087 0.0701876
7 1 Mg 6.18956 -6.37941e-06 2.9896 1.2 1 0.0154961 0.0294871 0.0156894 0.0217196 0.0363985 0.0445091 0.0511032 0.0426744 0.0478494 0.0449109 0.0380614 0.0563334 0.0395277 0.0560152 0.0600456 0.0796356 0.0572373 0.0666822 0.0594053 0.0718764
8 3 O 4.55118 1.31737 2.79288 -1.2 1 0.0238038 0.0254559 0.0399533 0.017467 0.028229 0.0441026 0.0451012 0.0478106 0.0438577 0.0532959 0.0540529 0.0483411 0.049898 0.0668153 0.0540941 0.0701816 0.0642132 0.0673373 0.0643951 0.0718725
9 1 Mg -1.20682 0.0413099 4.4844 1.2 1 0.0152893 0.0232786 0.0244585 0.0305317 0.0350428 0.0389247 0.0368129 0.051305 0.0524994 0.0374328 0.049156 0.0599753 0.0673307 0.0578169 0.078827 0.0587228 0.0775654 0.074679 0.0624305 0.0520689
10 2 Si -3.0337 2.72544 4.4844 2.4 1 0.0290435 0.0139136 0.019725 0.0174145 0.0314204 0.0365373 0.0624791 0.0312202 0.0590178 0.0486749 0.046007 0.0621618 0.0572651 0.0764308 0.0580144 0.0648073 0.0715606 0.0827695 0.0750472 0.0584322
11 3 O -3.08099 1.11221 4.4844 -1.2 1 0.0148029 0.0212024 0.0284596 0.0223539 0.0373122 0.0307996 0.050377 0.0484239 0.0379768 0.0388854 0.0371402 0.0723886 0.0528604 0.0538337 0.0532432 0.0699456 0.0553746 0.081183 0.0742467 0.0763787
12 3 O 0.582463 3.69946 4.4844 -1.2 1 0.00274895 0.0138681 0.031519 0.0287518 0.0271042 0.0638357 0.0329818 0.0511829 0.0429785 0.0431387 0.0491132 0.0602715 0.0581119 0.070316 0.101277 0.0680708 0.0788518 0.0425872 0.0712597 0.0712669
13 3 O -2.29524 3.43162 3.18632 -1.2 1 0.0131911 0.0210267 0.0250031 0.0297948 0.0199623 0.050118 0.051877 0.0500537 0.0409558 0.0521831 0.0590314 0.0543565 0.0398128 0.0520804 0.05836 0.0649511 0.065479 0.0639693 0.0629074 0.0736704
14 3 O -2.34216 3.43162 5.78248 -1.2 1 0.0144324 0.0111795 0.0195838 0.0309352 0.0285293 0.0420003 0.0540623 0.0495514 0.0382382 0.0575598 0.0546205 0.0499272 0.0566202 0.0602776 0.0759204 0.0716747 0.0661616 0.0687474 0.0749811 0.0726759
15 1 Mg 1.12778 2.37449 2.9896 1.2 1 0.0224416 0.0384481 0.0148011 0.0240556 0.0240679 0.042106 0.0409486 0.0518323 0.0366161 0.062309 0.0369708 0.0599892 0.0400988 0.069906 0.0651199 0.0692382 0.0678096 0.0801376 0.045271 0.0899946
16 1 Mg 3.92855 2.33318 4.4844 1.2 1 0.0364552 0.0159818 0.0246271 0.0258632 0.0437352 0.026635 0.0367679 0.0379805 0.0442983 0.0699072 0.0509429 0.0621182 0.0523763 0.0571722 0.0581981 0.0757686 0.0637198 0.0971537 0.0733903 0.0838365
17 2 Si 2.09341 4.39804 4.4844 2.4 1 0.0160357 0.0217765 0.0302538 0.0169482 0.042365 0.0291577 0.0599689 0.0228917 0.0425613 0.0510072 0.0610791 0.057387 0.067488 0.0600991 0.0759472 0.0744805 0.0743752 0.0834946 0.0507026 0.0651876
18 3 O 2.09991 6.01128 4.4844 -1.2 1 0.0129613 0.0151624 0.0156836 0.023261 0.0314094 0.0267249 0.0498556 0.0516868 0.0474863 0.0448931 0.0504717 0.0663848 0.0450126 0.0587965 0.0666147 0.0726293 0.0437335 0.0786697 0.0612073 0.0721204
19 3 O -4.52137 3.42402 4.4844 -1.2 1 0.0213951 0.0265802 0.0357587 0.0212942 0.0254542 0.0561133 0.040339 0.046218 0.0535099 0.0576588 0.033284 0.0585489 0.0527797 0.0541966 0.0908716 0.0722512 0.0745303 0.0586755 0.0755911 0.0577133
20 3 O 2.80834 3.69187 3.18632 -1.2 1 0.00668399 0.02165 0.0218532 0.0261637 0.0199684 0.0377484 0.0352981 0.0495313 0.044504 0.0568346 0.0655607 0.0543002 0.0421057 0.0624004 0.0697926 0.0739295 0.0594488 0.0595972 0.0706647 0.0710105
21 1 Mg 1.17857 2.37449 0 1.2 1 0.0135113 0.0358634 0.0273817 0.0290988 0.0393199 0.0391774 0.0470259 0.0589534 0.0383767 0.0479197 0.0545924 0.0417011 0.0444791 0.068293 0.053688 0.066806 0.0611609 0.0806867 0.0593674 0.0739686
22 3 O 2.76143 3.69187 5.78248 -1.2 1 0.00324053 0.0206008 0.0219508 0.0243133 0.019664 0.0358554 0.0393679 0.0487141 0.0363346 0.0459451 0.0584674 0.045368 0.0565871 0.0789329 0.0724163 0.0657834 0.0676019 0.0604498 0.0706193 0.0759941
23 1 Mg -1.67381 2.41581 1.4948 1.2 1 0.0114435 0.0115637 0.0371208 0.0362609 0.0325025 0.0439954 0.0590167 0.0403276 0.0512919 0.0408235 0.0464565 0.059007 0.054875 0.063401 0.0611259 0.0648767 0.083133 0.0776839 0.0665365 0.0741048
24 2 Si 0.16286 0.350945 1.4948 2.4 1 0.015865 0.0353672 0.0295979 0.0241769 0.0363265 0.0359609 0.0562549 0.0492143 0.0535197 0.0489051 0.0397719 0.0537095 0.0735687 0.0703428 0.0578511 0.07327 0.0705148 0.0630863 0.0724016 0.0653727
25 3 O 0.15972 -1.26229 1.4948 -1.2 1 0.00934052 0.0149947 0.0396978 0.0210994 0.037802 0.0359886 0.0455497 0.057315 0.0468136 0.0518264 0.0555006 0.0547172 0.0629982 0.0665764 0.0501151 0.0592687 0.0694012 0.0661044 0.0629472 0.0741055
26 3 O 6.77654 1.32496 1.4948 -1.2 1 0.0115468 0.0278159 0.0267053 0.0277691 0.0372749 0.0546569 0.0341069 0.0649238 0.0476702 0.0467925 0.0442523 0.0526724 0.0521086 0.0591677 0.0686768 0.0717217 0.0847401 0.0626631 0.0601332 0.0746035
27 3 O -0.508028 1.05712 0.196716 -1.2 1 0.0249315 0.0191864 0.0297622 0.0204674 0.0297158 0.0528197 0.0438836 0.0442508 0.0473502 0.0478289 0.050464 0.0480297 0.0493482 0.0635739 0.0547706 0.0631541 0.0640169 0.0588792 0.0715249 0.0715861
28 3 O -0.552171 1.05712 2.79288 -1.2 1 0.0373542 0.0265872 0.0339522 0.0350737 0.0232831 0.0441779 0.0436374 0.0495737 0.0444354 0.0390745 0.0505764 0.0493837 0.0592093 0.061546 0.0648427 0.0774352 0.0704162 0.0503254 0.0702713 0.072013
29 1 Mg 6.31713 4.74899 0 1.2 1 0.026238 0.0291833 0.0311537 0.0370449 0.031631 0.0254099 0.0402865 0.0549401 0.0583933 0.0502577 0.0520186 0.0387131 0.0587101 0.0615061 0.0657994 0.0631079 0.0647055 0.0727654 0.069216 0.0695427
30 1 Mg 3.54847 9.45668 1.4948 1.2 1 0.0170636 0.0160457 0.0174792 0.0187885 0.0187855 0.038361 0.0385767 0.0421029 0.0449856 0.0564388 0.0378358 0.0691397 0.0531652 0.0656739 0.0744501 0.0625366 0.0663954 0.0875361 0.0740452 0.0799463
31 2 Si 5.36879 6.77254 1.4948 2.4 1 0.0258992 0.0297771 0.0213428 0.0263345 0.0244168 0.035186 0.0444509 0.0347608 0.0458742 0.0586261 0.0425021 0.0579603 0.0520453 0.0675327 0.0651197 0.0751634 0.0671295 0.0786944 0.0564507 0.0679925
32 3 O 5.41937 8.38578 1.4948 -1.2 1 0.0214263 0.011478 0.0236348 0.0294908 0.01777 0.0433826 0.0442227 0.057241 0.0367967 0.050651 0.0477797 0.0644649 0.0553334 0.0533305 0.0659842 0.0613831 0.0727692 0.0554442 0.0736041 0.0729554
33 3 O 1.75158 5.79852 1.4948 -1.2 1 0.0284282 0.0122779 0.0223562 0.0264779 0.0440737 0.0309782 0.0392136 0.0570783 0.0407632 0.0530609 0.0495422 0.0512997 0.0476448 0.0701752 0.0779932 0.0789692 0.0606323 0.0748896 0.0600495 0.0765814
34 3 O 4.67421 6.06637 0.196716 -1.2 1 0.011832 0.0280301 0.0322438 0.0256814 0.0315824 0.0378496 0.0345012 0.0312801 0.0439407 0.0562369 0.0397829 0.0438598 0.0661999 0.0551931 0.066844 0.0697109 0.070387 0.0659927 0.0632637 0.0687172
35 1 Mg 6.26654 4.74899 2.9896 1.2 1 0.0193844 0.024435 0.0241839 0.0425618 0.0245551 0.0437844 0.0481979 0.0491787 0.0352625 0.0609648 0.037493 0.0600065 0.0386188 0.0648728 0.0550521 0.0759527 0.0571641 0.0848832 0.045686 0.0898857
36 3 O 4.63043 6.06637 2.79288 -1.2 1 0.0214875 0.0201755 0.0406426 0.0196838 0.0317784 0.0377115 0.042839 0.0487459 0.0458685 0.0369237 0.0492652 0.0517994 0.0560692 0.0647445 0.0606961 0.0725798 0.0645199 0.0694187 0.0689815 0.0846807
37 1 Mg -1.12976 4.79031 4.4844 1.2 1 0.0240081 0.0276801 0.0141742 0.0124076 0.0360805 0.0373511 0.0488569 0.0484526 0.042058 0.0464963 0.0551493 0.059446 0.0743409 0.0736946 0.0601318 0.0678178 0.0707263 0.095415 0.0712222 0.0805973
38 2 Si -2.9517 7.47444 4.4844 2.4 1 0.0210609 0.0137613 0.0191363 0.0297077 0.0351046 0.0418184 0.0629856 0.0260187 0.0528482 0.0598324 0.0517853 0.0586353 0.0643125 0.0584728 0.0793252 0.0693419 0.0533479 0.0880841 0.0586928 0.0600172
39 3 O -3.00198 5.86121 4.4844 -1.2 1 0.0146161 0.0207902 0.0285389 0.0267516 0.0308673 0.0302721 0.0518024 0.0565788 0.0384228 0.0531308 0.0491861 0.0735295 0.0598868 0.054053 0.0616427 0.0717348 0.0475113 0.0772611 0.0612005 0.0777427
40 3 O 0.666315 8.44846 4.4844 -1.2 1 0.0157169 0.0213938 0.025097 0.0185544 0.0202446 0.0536833 0.0328804 0.0468227 0.043074 0.0510924 0.0420458 0.0542924 0.0491767 0.0746706 0.0997782 0.0677189 0.0768061 0.0486616 0.0720645 0.0752232
41 3 O -2.21213 8.18062 3.18632 -1.2 1 0.0175181 0.0101513 0.020733 0.0167086 0.0178581 0.0337655 0.0460855 0.0554721 0.0445446 0.0562061 0.0498292 0.055007 0.0531505 0.0473 0.0803121 0.061621 0.0710904 0.0605892 0.0687811 0.0715954
42 3 O -2.25864 8.18062 5.78248 -1.2 1 0.0176917 0.0113229 0.0189281 0.016934 0.0181117 0.029894 0.0493787 0.0481692 0.0420353 0.0412401 0.055852 0.03807 0.0563352 0.0601221 0.0816296 0.0647406 0.0677959 0.0646841 0.0717016 0.0722653
43 1 Mg 1.20893 7.12349 2.9896 1.2 1 0.00804591 0.0220043 0.0194538 0.0249399 0.0245452 0.0396265 0.0418471 0.0469701 0.0338644 0.0646978 0.0388667 0.0657155 0.0364916 0.0591285 0.0521077 0.0795595 0.051353 0.0843181 0.0463358 0.0878246
44 1 Mg 4.00982 7.08218 4.4844 1.2 1 0.0223257 0.0227975 0.0214236 0.0339629 0.0327183 0.0338798 0.0464195 0.0355318 0.0475915 0.0493628 0.0576447 0.0568825 0.0703242 0.071053 0.0569912 0.0681131 0.0615681 0.095576 0.0730501 0.0810089
45 2 Si 2.17861 9.14704 4.4844 2.4 1 0.0231021 0.0105151 0.0258843 0.0206806 0.0336257 0.0352122 0.0610965 0.0242917 0.050158 0.0525342 0.0561037 0.0622599 0.0625813 0.0606665 0.0770144 0.0708194 0.0506286 0.0986227 0.0555549 0.054557
46 3 O 2.18828 10.7603 4.4844 -1.2 1 0.0184071 0.0125599 0.00687454 0.0158094 0.0282778 0.0226757 0.0436413 0.0598471 0.0399951 0.0559516 0.0410343 0.0728895 0.0451658 0.0649831 0.0680607 0.0749977 0.0474207 0.0718048 0.0641066 0.075475
47 3 O -4.43805 8.17302 4.4844 -1.2 1 0.0166929 0.0163448 0.0198218 0.0180472 0.0234117 0.0517792 0.0415467 0.046976 0.0430383 0.0494944 0.035069 0.0533824 0.0534655 0.0747995 0.098216 0.0681735 0.0794993 0.0534501 0.0744239 0.0743254
48 3 O 2.89193 8.44087 3.18632 -1.2 1 0.0182992 0.0154822 0.018157 0.0148078 0.02147 0.0414059 0.0344681 0.056217 0.0433522 0.0518002 0.0598471 0.0485189 0.0513407 0.0542446 0.080063 0.0645648 0.06995 0.0596501 0.063325 0.0732252
49 1 Mg 1.25915 7.12349 0 1.2 1 0.0187365 0.0173831 0.0282608 0.0145627 0.0321904 0.0248077 0.0505915 0.0398919 0.0562223 0.0499051 0.0541935 0.0425489 0.0709049 0.0509077 0.0687465 0.0700874 0.0638334 0.0707221 0.0797715 0.0587636
50 3 O 2.84547 8.44087 5.78248 -1.2 1 0.0118739 0.0148441 0.0197408 0.0167089 0.0228459 0.0276587 0.0436155 0.0488844 0.0368236 0.0430143 0.0586918 0.0441144 0.0566985 0.0630275 0.0853836 0.0614506 0.0701298 0.0650557 0.0652329 0.0768097
51 1 Mg -1.59284 7.16481 1.4948 1.2 1 0.00718554 0.0201066 0.019166 0.0227624 0.0154156 0.0381219 0.0465085 0.0422575 0.0421674 0.0572039 0.038691 0.0669997 0.0535548 0.0693711 0.0768965 0.0606158 0.0673358 0.0851368 0.0741712 0.0785308
52 2 Si 0.240329 5.09994 1.4948 2.4 1 0.0246076 0.0172748 0.0159828 0.0434242 0.0272756 0.0404428 0.0468745 0.0533075 0.0552134 0.0490405 0.04536 0.0575971 0.0588176 0.0679752 0.0655656 0.0665247 0.0637038 0.0728021 0.0662218 0.0674832
53 3 O 0.234538 3.48671 1.4948 -1.2 1 0.0132458 0.0161529 0.0266839 0.0356961 0.0316015 0.0496495 0.0460602 0.0424696 0.0530348 0.0464246 0.0527719 0.0606051 0.0563778 0.0613773 0.0619225 0.0622997 0.062559 0.0568721 0.0759982 0.0727127
54 3 O 6.85564 6.07396 1.4948 -1.2 1 0.0325373 0.0196004 0.0344706 0.0274655 0.0372467 0.0401213 0.0326283 0.0626344 0.0362894 0.0535538 0.0542375 0.0542456 0.0546346 0.072521 0.0695916 0.0769724 0.0660204 0.0721244 0.0529572 0.0845053
55 3 O -0.429565 5.80612 0.196716 -1.2 1 0.034021 0.0199858 0.0158689 0.0211891 0.0409851 0.0374591 0.0538729 0.0450518 0.0459724 0.0562612 0.0397783 0.0419103 0.0533559 0.0600535 0.0600457 0.0680472 0.0701994 0.0611362 0.0654751 0.0740353
56 3 O -0.473377 5.80612 2.79288 -1.2 1 0.0294116 0.0240275 0.0290593 0.0175378 0.0343996 0.044918 0.0491116 0.0488099 0.0523704 0.0485842 0.0634227 0.0390668 0.0415038 0.0560059 0.0647128 0.070038 0.0632198 0.0681194 0.0691379 0.0814444
57 1 Mg 6.40169 9.49799 0 1.2 1 0.0127748 0.0122857 0.0210007 0.0147007 0.0302959 0.0214166 0.0519921 0.0356355 0.0584629 0.0493939 0.0498833 0.035008 0.0673663 0.0527548 0.0705199 0.0665884 0.0652403 0.0702889 0.0819774 0.0679426
58 1 Mg 3.64209 14.2057 1.4948 1.2 1 0.00977576 0.0153337 0.0155064 0.0205073 0.0199593 0.0347609 0.0374548 0.0420327 0.0396396 0.0544802 0.0376623 0.0680491 0.0540889 0.0669533 0.0742192 0.0646815 0.0653108 0.0820054 0.0742537 0.0775996
59 2 Si 5.45748 11.5215 1.4948 2.4 1 0.0119587 0.021912 0.0232355 0.0248236 0.0179484 0.0403196 0.0397033 0.0399133 0.0434484 0.0543649 0.0426016 0.0605902 0.0535703 0.0660849 0.0694042 0.0635906 0.0710576 0.0817127 0.0580868 0.0672974
60 3 O 5.51101 13.1348 1.4948 -1.2 1 0.0243144 0.0134352 0.022417 0.0293217 0.0197948 0.0433409 0.044521 0.0589569 0.0365468 0.0496535 0.0430499 0.066802 0.0535392 0.0540318 0.0657843 0.059356 0.070784 0.05803 0.0694201 0.0720046
61 3 O 1.83851 10.5475 1.4948 -1.2 1 0.0395997 0.014812 0.0200089 0.010783 0.0361193 0.031068 0.0370437 0.058019 0.0389199 0.0473131 0.0498408 0.0519855 0.0483424 0.0739498 0.0756716 0.0787475 0.0572898 0.0762359 0.0576907 0.0783892
62 3 O 4.7611 10.8154 0.196716 -1.2 1 0.0323869 0.0214911 0.0219669 0.0193124 0.0264742 0.0447201 0.048413 0.0369519 0.0377236 0.0490267 0.0372881 0.0406332 0.0602497 0.0595402 0.0638989 0.0700489 0.0739358 0.0658005 0.0725441 0.06829
63 1 Mg 6.35203 9.49799 2.9896 1.2 1 0.0131848 0.0176018 0.0253617 0.0213331 0.0191638 0.0383953 0.0380184 0.0511757 0.0353497 0.0591607 0.0316822 0.0653308 0.0299416 0.0664959 0.0485975 0.0805098 0.0451105 0.0901675 0.0460881 0.0910986
64 3 O 4.71833 10.8154 2.79288 -1.2 1 0.0214972 0.0129575 0.0328407 0.0127603 0.0304168 0.0428341 0.0442313 0.0449085 0.0426649 0.0371001 0.0534422 0.0423946 0.0548174 0.0599515 0.0736601 0.0699085 0.072787 0.0575766 0.0704267 0.0794903
65 1 Mg -1.0438 9.53931 4.4844 1.2 1 0.00472043 0.0148018 0.0157524 0.0203868 0.0276719 0.0287612 0.0355819 0.0349129 0.0474373 0.0534642 0.0557646 0.0588937 0.0668186 0.0668003 0.0584499 0.0701034 0.0697117 0.0986147 0.0723919 0.0804677
66 2 Si -2.8604 12.2234 4.4844 2.4 1 0.0170552 0.0147079 0.0167151 0.0271638 0.0326441 0.0394124 0.0605125 0.0287184 0.0559091 0.0629348 0.0527394 0.0606303 0.0588651 0.0527498 0.0780744 0.0706039 0.0497665 0.0912294 0.0558193 0.0662196
67 3 O -2.91391 10.6102 4.4844 -1.2 1 0.0189277 0.00783199 0.0133085 0.0221155 0.0285418 0.0212794 0.0449833 0.0641114 0.0397006 0.0517347 0.037646 0.071488 0.0474222 0.058326 0.0671103 0.0725168 0.0470133 0.075271 0.0635279 0.0748809
68 3 O 0.7596 13.1975 4.4844 -1.2 1 0.0101436 0.022239 0.0207779 0.0181327 0.0248631 0.048818 0.0361311 0.0538032 0.0464689 0.0527225 0.0366221 0.0494539 0.0468252 0.0740202 0.101317 0.0622273 0.0792503 0.0520526 0.0716818 0.0707488
69 3 O -2.12001 12.9296 3.18632 -1.2 1 0.0161876 0.00982411 0.0187662 0.0189786 0.0240966 0.0372816 0.04275 0.0537996 0.0463263 0.0536173 0.0533786 0.0510449 0.0547126 0.0500293 0.0801802 0.0620873 0.0728461 0.0617904 0.069304 0.0689664
70 3 O -2.16532 12.9296 5.78248 -1.2 1 0.0120691 0.011101 0.0211139 0.0216185 0.0192985 0.0260224 0.0512399 0.0440645 0.0395186 0.0410707 0.0540269 0.0409459 0.0560327 0.0607326 0.0833781 0.0691452 0.0692817 0.0619506 0.0721843 0.070753
71 1 Mg 1.29891 11.8725 2.9896 1.2 1 0.00768058 0.0160592 0.0220381 0.0212335 0.0197735 0.0391542 0.0369041 0.0519991 0.0345896 0.0597939 0.0341381 0.0614662 0.0275211 0.0680061 0.0501077 0.0818072 0.0492136 0.0912949 0.0485644 0.0856445
72 1 Mg 4.10033 11.8312 4.4844 1.2 1 0.0143299 0.0234618 0.0206237 0.0280969 0.0323867 0.0292986 0.0470018 0.0342257 0.0460546 0.0502085 0.0556914 0.0532402 0.067438 0.074555 0.0552137 0.0696774 0.0696772 0.0959853 0.0741797 0.0828528
73 2 Si 2.27333 13.896 4.4844 2.4 1 0.0270908 0.00466126 0.0264898 0.0277547 0.0281349 0.0344232 0.0642914 0.0297249 0.0547513 0.0599453 0.0528638 0.0611483 0.0632289 0.0576597 0.075349 0.0673632 0.045529 0.0952975 0.0557342 0.0575553
74 3 O 2.28634 15.5093 4.4844 -1.2 1 0.0255751 0.0131026 0.0136905 0.0166614 0.0255182 0.0258098 0.0402545 0.0625736 0.0442497 0.0546482 0.0418502 0.0733985 0.0471578 0.0630564 0.0665972 0.0717351 0.0457161 0.0716369 0.0632142 0.0734579
75 3 O -4.34533 12.922 4.4844 -1.2 1 0.0206773 0.0169439 0.0207313 0.0191914 0.0214774 0.0518851 0.0365533 0.0489766 0.0467009 0.0526543 0.0398052 0.0527787 0.0471933 0.0727824 0.102014 0.0652857 0.0767952 0.0502009 0.0738742 0.0719187
76 3 O 2.98455 13.1899 3.18632 -1.2 1 0.0183351 0.0144614 0.0178031 0.0131605 0.0227746 0.0410643 0.0411593 0.0577505 0.0464302 0.0516496 0.057947 0.0477872 0.0521691 0.0507468 0.0819766 0.0620311 0.0673663 0.0595003 0.0656639 0.0709549
77 1 Mg 1.34779 11.8725 0 1.2 1 0.0214943 0.00902889 0.0218168 0.0149331 0.0287644 0.0228346 0.0521786 0.03527 0.0577514 0.0512085 0.0499614 0.0352808 0.0653023 0.049919 0.07094 0.0639875 0.0618193 0.0698471 0.0874928 0.0596962
78 3 O 2.93934 13.1899 5.78248 -1.2 1 0.024291 0.0138611 0.0170925 0.016466 0.0169372 0.0286316 0.0477598 0.0491778 0.0403022 0.0399683 0.0603412 0.0388687 0.052027 0.0571065 0.0851321 0.0662247 0.0704553 0.0604319 0.0676618 0.0763819
79 1 Mg -1.50344 11.9138 1.4948 1.2 1 0.0128233 0.0185057 0.0237892 0.0217508 0.0136686 0.0363917 0.0396539 0.0436139 0.0430625 0.0594424 0.0354892 0.0639662 0.0502342 0.0646961 0.0724843 0.0687524 0.0623349 0.0825333 0.0765941 0.0788376
80 2 Si 0.326006 9.84894 1.4948 2.4 1 0.0281585 0.0179832 0.0267645 0.0294938 0.0168361 0.0380978 0.0433207 0.0400811 0.0441152 0.0546592 0.0396317 0.0610497 0.0557998 0.0659269 0.0609392 0.0625087 0.0701729 0.0803962 0.0611697 0.0691623
81 3 O 0.317364 8.23571 1.4948 -1.2 1 0.0224842 0.0124718 0.0225682 0.0240477 0.0198333 0.0452612 0.0430541 0.0498706 0.0348092 0.0543746 0.0440562 0.0655605 0.0572649 0.0601335 0.0677923 0.065822 0.071756 0.0536253 0.0733452 0.0743708
82 3 O 6.94307 10.823 1.4948 -1.2 1 0.0312085 0.0148585 0.022086 0.0119009 0.0373627 0.0330532 0.0379796 0.0580666 0.0345248 0.0474485 0.0511531 0.0526418 0.0504183 0.074963 0.0729785 0.0796387 0.0618014 0.0727522 0.0580793 0.0804478
83 3 O -0.343122 10.5551 0.196716 -1.2 1 0.0267032 0.0195983 0.0240257 0.0225561 0.0297965 0.0413715 0.0511725 0.038765 0.0378446 0.0503282 0.037177 0.0368018 0.0612605 0.0594981 0.0676637 0.0698941 0.0798713 0.0546446 0.0692691 0.0703919
84 3 O -0.385966 10.5551 2.79288 -1.2 1 0.0185252 0.0182598 0.0344973 0.0118115 0.0329015 0.0429021 0.0452926 0.0454807 0.0447409 0.0384513 0.0524401 0.0466319 0.0496111 0.0582924 0.0708866 0.071847 0.0669048 0.0602999 0.0688324 0.0795174
85 1 Mg 6.49448 14.247 0 1.2 1 0.0224269 0.00959509 0.0186207 0.0171305 0.0283118 0.0231642 0.0481734 0.033525 0.0596549 0.0484559 0.0514753 0.0368916 0.0626203 0.0525153 0.071255 0.0651299 0.0645915 0.0704186 0.0849085 0.0703
86 1 Mg 3.74457 18.9547 1.4948 1.2 1 0.0107383 0.0134927 0.0164208 0.0171066 0.0262174 0.0303616 0.031319 0.0388246 0.0374023 0.0566506 0.0428898 0.0697244 0.0516374 0.0666678 0.0709728 0.0700183 0.0619402 0.0839744 0.0793559 0.0761517
87 2 Si 5.55495 16.2705 1.4948 2.4 1 0.0121143 0.0200769 0.0220344 0.0267719 0.0184679 0.0424546 0.0364376 0.0422929 0.0453613 0.0518887 0.0433563 0.0611955 0.0541266 0.0639543 0.0699628 0.0587967 0.0728569 0.0798896 0.0603583 0.0699418
88 3 O 5.6115 17.8838 1.4948 -1.2 1 0.0268358 0.0182307 0.0233744 0.0257576 0.0191836 0.0436117 0.0450004 0.0608884 0.036799 0.0499371 0.0377834 0.0671295 0.0510058 0.0561698 0.0647208 0.0573674 0.0660029 0.0616313 0.0631177 0.0693585
89 3 O 1.93416 15.2965 1.4948 -1.2 1 0.0370798 0.0148451 0.0220799 0.0128199 0.0349249 0.0296104 0.0370084 0.0582836 0.0423225 0.0462986 0.0487275 0.0508654 0.0472849 0.0742227 0.0809781 0.0781683 0.059047 0.0745451 0.0625942 0.0770622
90 3 O 4.85636 15.5644 0.196716 -1.2 1 0.0260455 0.0108641 0.022257 0.0195024 0.0237173 0.0515043 0.0505867 0.0401259 0.0408589 0.0465991 0.0365391 0.0336292 0.0638127 0.0543265 0.0671657 0.0680471 0.0747421 0.0633592 0.0717939 0.0676477
91 1 Mg 6.44662 14.247 2.9896 1.2 1 0.00621035 0.0172727 0.0204888 0.017805 0.0213185 0.0361873 0.0375422 0.0539101 0.0358001 0.0585216 0.0330346 0.0631494 0.0257269 0.0665274 0.0482289 0.0757489 0.0470636 0.0908596 0.043764 0.0917587
92 3 O 4.81537 15.5644 2.79288 -1.2 1 0.012147 0.00902102 0.0291768 0.01277 0.027995 0.0373307 0.0470084 0.0459545 0.046107 0.0381763 0.0511709 0.0407113 0.0534254 0.058411 0.0745328 0.067185 0.0753205 0.0525137 0.0729624 0.0756902
93 1 Mg -0.948271 14.2883 4.4844 1.2 1 0.0167121 0.0122637 0.0149837 0.0295339 0.0226065 0.029602 0.0352868 0.0375319 0.0437969 0.0481075 0.0585786 0.0550084 0.0665628 0.0701574 0.0582511 0.0688703 0.0715592 0.094996 0.0752348 0.0819815
94 2 Si -2.75928 16.9724 4.4844 2.4 1 0.0204253 0.00903151 0.0201728 0.0312731 0.0311608 0.0378161 0.0591906 0.0313385 0.0562166 0.0651581 0.0524432 0.0632726 0.0596465 0.0529639 0.0778303 0.0722356 0.0472927 0.0930548 0.0570021 0.0620194
95 3 O -2.81617 15.3592 4.4844 -1.2 1 0.0161185 0.0147699 0.0116752 0.0230134 0.030616 0.0255832 0.0431071 0.0672506 0.044422 0.0525764 0.0376019 0.0725537 0.046165 0.0596556 0.066422 0.0705064 0.0505119 0.0751143 0.0619695 0.0789021
96 3 O 0.862762 17.9465 4.4844 -1.2 1 0.0156425 0.018997 0.0258757 0.0180593 0.0222949 0.0442891 0.0357676 0.0568832 0.0449998 0.053637 0.0391285 0.0486063 0.0437824 0.0726731 0.106148 0.0613082 0.0736215 0.0514436 0.0688056 0.0730705
97 3 O -2.0185 17.6786 3.18632 -1.2 1 0.0151951 0.00990367 0.0179385 0.0184478 0.0241242 0.0374227 0.045614 0.0567047 0.04399 0.0527857 0.05609 0.0477889 0.0575854 0.0518132 0.0825531 0.0604888 0.0688861 0.064694 0.0648371 0.0681071
98 3 O -2.06164 17.6786 5.78248 -1.2 1 0.0060441 0.00926028 0.0191315 0.0207273 0.0208093 0.0266454 0.0553921 0.0465525 0.0415213 0.039826 0.0536129 0.0415555 0.0605917 0.0677762 0.0838563 0.0665858 0.0714034 0.0637248 0.0716151 0.0778096
99 1 Mg 1.39817 16.6215 2.9896 1.2 1 0.00623684 0.0170477 0.0192181 0.0228537 0.0185482 0.0352709 0.036995 0.0525517 0.0371153 0.0598125 0.0368884 0.0560733 0.024819 0.0677064 0.0465744 0.0789843 0.0482237 0.0913386 0.0471923 0.0899223
100 1 Mg 4.20062 16.5802 4.4844 1.2 1 0.015178 0.0124137 0.0152144 0.0245981 0.0251097 0.0318139 0.0392138 0.0362135 0.047377 0.0518573 0.0525949 0.0568534 0.0691906 0.0670234 0.0530375 0.0720135 0.0667284 0.0972793 0.0737714 0.0808725
101 2 Si 2.37796 18.645 4.4844 2.4 1 0.0311816 0.0134244 0.0225456 0.0223472 0.0261203 0.0370109 0.0596043 0.0348413 0.0547618 0.0583775 0.0506253 0.0620512 0.0607163 0.0610788 0.0764148 0.0697287 0.0478557 0.0976786 0.052685 0.0581178
102 3 O 2.39434 20.2583 4.4844 -1.2 1 0.0253086 0.0140095 0.00928146 0.0195651 0.0244432 0.0220231 0.0413504 0.0600073 0.0453458 0.0527709 0.0403658 0.0711704 0.0471412 0.0645113 0.0709595 0.072785 0.0467879 0.0662899 0.0648769 0.0767531
103 3 O -4.24274 17.671 4.4844 -1.2 1 0.0054257 0.0203779 0.024029 0.0246403 0.0197322 0.0480809 0.0353428 0.0493707 0.0453831 0.0549543 0.040238 0.0532701 0.0494795 0.0727989 0.0997083 0.0626264 0.0799014 0.0514829 0.0772987 0.0735095
104 3 O 3.08659 17.9389 3.18632 -1.2 1 0.0235232 0.0160302 0.0219172 0.0121477 0.0180536 0.0382819 0.0372057 0.0563672 0.0429713 0.0541129 0.0544801 0.0493552 0.0514154 0.0495209 0.0806564 0.0592647 0.0684215 0.060791 0.0666783 0.0700493
105 1 Mg 1.44478 16.6215 0 1.2 1 0.00931958 0.012392 0.0216638 0.0129918 0.026433 0.0323822 0.0480709 0.0359535 0.0504076 0.0508855 0.0518073 0.0393503 0.0585756 0.0490976 0.0693876 0.0657011 0.0608721 0.0673003 0.0891934 0.0630885
106 3 O 3.0436 17.9389 5.78248 -1.2 1 0.0161164 0.0114671 0.0233293 0.0205636 0.0191257 0.0219889 0.0459423 0.0472115 0.0382551 0.0431095 0.0598457 0.039097 0.0518065 0.0574306 0.0823726 0.0628012 0.0686468 0.0568673 0.0659624 0.0762663
107 1 Mg -1.40524 16.6628 1.4948 1.2 1 0.0115513 0.0125622 0.0256649 0.0174319 0.0175199 0.034484 0.0366518 0.041708 0.0404636 0.0597674 0.0404271 0.0639361 0.0551454 0.0648376 0.0742666 0.06997 0.0637676 0.0775824 0.0783426 0.075761
108 2 Si 0.420358 14.5979 1.4948 2.4 1 0.0226606 0.0193899 0.0289061 0.0256393 0.0174597 0.0387034 0.0387187 0.0417893 0.0434942 0.0545406 0.0426087 0.0610539 0.0586349 0.0639798 0.0677662 0.0583018 0.0729176 0.0770481 0.0632367 0.0717754
109 3 O 0.408732 12.9847 1.4948 -1.2 1 0.0223601 0.0155431 0.0230488 0.0256191 0.0171161 0.0472583 0.0435175 0.0540633 0.0359803 0.0527081 0.0422306 0.0691438 0.0533597 0.0571983 0.0663389 0.0634474 0.0709721 0.0548942 0.0681862 0.0712965
110 3 O 7.03923 15.572 1.4948 -1.2 1 0.029351 0.0167481 0.0216847 0.0126215 0.036082 0.0331952 0.0370393 0.0561838 0.0382848 0.0445157 0.0509873 0.0534163 0.047932 0.0740209 0.0783435 0.0782238 0.0639157 0.0698212 0.0627465 0.0767892
111 3 O -0.248332 15.3041 0.196716 -1.2 1 0.0221096 0.0122084 0.0220972 0.018987 0.0242891 0.0462665 0.0496958 0.0434063 0.0402839 0.046754 0.0365435 0.0321215 0.0622002 0.0539087 0.0701104 0.0651076 0.0814239 0.0506007 0.0686495 0.0703451
112 3 O -0.289436 15.3041 2.79288 -1.2 1 0.00987025 0.01855 0.0321739 0.0147683 0.0335974 0.0335809 0.0441605 0.0465203 0.044365 0.0396789 0.054634 0.0491154 0.0510806 0.0543279 0.0715078 0.0708979 0.0707988 0.0550496 0.0688587 0.0771906
113 1 Mg 6.59566 18.996 0 1.2 1 0.0174977 0.0136623 0.0200925 0.0133735 0.0263202 0.0320066 0.0438074 0.0350243 0.0543001 0.0486994 0.053806 0.0391993 0.0535496 0.0539328 0.0719765 0.0638882 0.0638616 0.0644822 0.087251 0.0702667
114 1 Mg 3.85574 23.7037 1.4948 1.2 1 0.0106023 0.0129227 0.0210249 0.0139913 0.022311 0.0289061 0.0310174 0.0377413 0.0392046 0.0601258 0.046608 0.0625777 0.0499939 0.0666285 0.0645167 0.072085 0.0665424 0.079868 0.0799459 0.0758247
115 2 Si 5.66125 21.0195 1.4948 2.4 1 0.00857218 0.0228718 0.0247789 0.0274181 0.0200341 0.0458572 0.0336039 0.0433427 0.0472219 0.0539187 0.0442202 0.0614226 0.0558227 0.0600241 0.0710055 0.0603296 0.0738056 0.0775261 0.0654529 0.0753293
116 3 O 5.72074 22.6328 1.4948 -1.2 1 0.0282174 0.0188859 0.0181478 0.0227068 0.0193429 0.0444493 0.0456361 0.0619553 0.0386415 0.0522449 0.0329864 0.0698994 0.0490079 0.0531232 0.0676127 0.0565105 0.0647986 0.0679947 0.0562842 0.0716965
117 3 O 2.03867 20.0455 1.4948 -1.2 1 0.0300315 0.0165778 0.026712 0.0160455 0.0343718 0.030083 0.0360012 0.0549171 0.0438442 0.0421654 0.050691 0.0498037 0.0478944 0.0746802 0.0847423 0.0725605 0.0620926 0.0682897 0.0635659 0.0740487
118 3 O 4.96004 20.3134 0.196716 -1.2 1 0.0212666 0.0105612 0.0230187 0.0186459 0.0230486 0.045197 0.0439931 0.0478637 0.0390777 0.0398247 0.0411402 0.0344353 0.0648365 0.0474024 0.0698128 0.0729211 0.0716591 0.0582177 0.0711705 0.0718549
119 1 Mg 6.55057 18.996 2.9896 1.2 1 0.00826689 0.0154122 0.0199268 0.0222798 0.0232077 0.0348751 0.0375521 0.0560688 0.0349303 0.0602912 0.0362661 0.0650906 0.0234446 0.0701465 0.045616 0.0742558 0.0459474 0.0945588 0.0434111 0.0935692
120 3 O 4.92172 20.3134 2.79288 -1.2 1 0.0140246 0.0115914 0.027607 0.0135493 0.0309799 0.0394736 0.0460149 0.0465015 0.0460201 0.0433582 0.0518801 0.0425592 0.0524238 0.0512511 0.0765832 0.0669251 0.0758006 0.0470073 0.0703458 0.0736746
121 1 Mg -0.84282 19.0373 4.4844 1.2 1 0.0173613 0.0140738 0.0132879 0.0262832 0.0242072 0.0288392 0.0368279 0.0346608 0.0450156 0.052314 0.0619769 0.0541477 0.0682899 0.0710455 0.05884 0.0726693 0.0705087 0.0937323 0.0705513 0.0851543
122 2 Si -2.64823 21.7214 4.4844 2.4 1 0.0193791 0.0138848 0.0175019 0.0301225 0.0296833 0.0382765 0.0556728 0.0316275 0.0577944 0.0615515 0.05059 0.0645864 0.0611211 0.0569286 0.073838 0.0674212 0.0445554 0.0912183 0.0523543 0.0648252
123 3 O -2.70847 20.1082 4.4844 -1.2 1 0.0108346 0.0181396 0.0159413 0.0264507 0.0252787 0.023143 0.0395532 0.0641546 0.045971 0.0517063 0.0384347 0.0711632 0.0504079 0.0596486 0.0675393 0.0634399 0.0500821 0.0739096 0.0627877 0.0779478
124 3 O 0.97581 22.6955 4.4844 -1.2 1 0.0152501 0.0193487 0.0228366 0.0194105 0.0183262 0.042384 0.0299092 0.0503455 0.0449488 0.0538055 0.0408504 0.0455116 0.0455707 0.0718408 0.110962 0.0533483 0.069137 0.0542252 0.0710935 0.0689088
125 3 O -1.9076 22.4276 3.18632 -1.2 1 0.0221457 0.00742082 0.020926 0.0165131 0.0138231 0.0360136 0.0448834 0.0556414 0.0368805 0.0507175 0.0545842 0.049001 0.056586 0.0484307 0.0812134 0.0583734 0.0692574 0.0667354 0.0619554 0.0650096
126 3 O -1.9475 22.4276 5.78248 -1.2 1 0.0101627 0.00994331 0.0216377 0.0212966 0.0160514 0.0244369 0.0516619 0.0432382 0.0415189 0.0377007 0.0590231 0.041769 0.0540407 0.061188 0.0822996 0.064158 0.0750288 0.0627097 0.0664844 0.0752672