ITEM: TIMESTEP
29700
ITEM: NUMBER OF ATOMS
10500
ITEM: BOX BOUNDS xy xz yz pp pp pp
0	15.2977	5.09925
0	118.725	0
0	89.688	0
ITEM: ATOMS id type element xu yu zu q Q_1 Q_2 Q_3 Q_4 Q_5 Q_6 Q_7 Q_8 Q_9 Q_10 Q_11 Q_12 Q_13 Q_14 Q_15 Q_16 Q_17 Q_18 Q_19 Q_20 Q_21
1 1 Mg 6.2404 -6.37941e-06 0 1.2 1 0.0130757 0.0407706 0.0295312 0.0355201 0.033602 0.0411435 0.0361568 0.06867 0.0394874 0.0712497 0.0339233 0.0595112 0.046053 0.0686083 0.0495416 0.0923892 0.0517956 0.0838263 0.0515285 0.102715
2 1 Mg 3.46349 4.70768 1.4948 1.2 1 0.0169166 0.0167337 0.0243959 0.0215917 0.0202269 0.0420907 0.0422799 0.039777 0.0460328 0.0556322 0.042836 0.0706215 0.0577352 0.0712012 0.0714565 0.0643692 0.0677426 0.0854776 0.0729343 0.0818883
3 2 Si 5.2885 2.02354 1.4948 2.4 1 0.0219505 0.0222825 0.0366948 0.0256499 0.0310084 0.0367097 0.0533664 0.0335217 0.0442733 0.0518138 0.0559992 0.061597 0.0557579 0.0637306 0.0681511 0.0790685 0.0709673 0.0650269 0.0631181 0.0732362
4 3 O 5.33628 3.63678 1.4948 -1.2 1 0.00941052 0.0141806 0.02688 0.0260221 0.0183585 0.0390538 0.0418184 0.0602545 0.0353082 0.0402317 0.0546682 0.0507459 0.0678273 0.0575571 0.059001 0.0647665 0.0601081 0.0616385 0.0710725 0.0745499
5 3 O 1.67294 1.04952 1.4948 -1.2 1 0.0128513 0.0194815 0.0229026 0.0356757 0.031134 0.0387089 0.0355737 0.0608947 0.0354783 0.0592816 0.0442364 0.0523457 0.0704466 0.0595151 0.0756878 0.069876 0.0634321 0.0650942 0.0785749 0.0607208
6 3 O 4.59532 1.31737 0.196716 -1.2 1 0.0258736 0.0220574 0.0575917 0.0251414 0.0332793 0.0488558 0.0385734 0.0475172 0.0337238 0.0391421 0.0385754 0.0504012 0.054097 0.0573399 0.06339 0.0700545 0.0621051 0.0713933 0.0590992 0.0709631
7 1 Mg 6.18956 -6.37941e-06 2.9896 1.2 1 0.0196578 0.0301262 0.0158233 0.0212462 0.0335513 0.046423 0.0505791 0.0443074 0.0485219 0.0444791 0.0406891 0.0545623 0.0403332 0.0569597 0.0578291 0.0786972 0.0572301 0.067457 0.0618717 0.0709463
8 3 O 4.55118 1.31737 2.79288 -1.2 1 0.0243092 0.0258201 0.0409869 0.0171263 0.0287313 0.0438538 0.0444411 0.0481501 0.044149 0.0545567 0.0540393 0.0488025 0.0502887 0.0662107 0.0527087 0.0695238 0.0640305 0.0669078 0.0655565 0.0706598
9 1 Mg -1.20682 0.0413099 4.4844 1.2 1 0.0164731 0.0237364 0.0237435 0.0290766 0.0352528 0.0408888 0.0327137 0.0543255 0.0525338 0.0368845 0.0497177 0.0620502 0.0658051 0.0548995 0.0758397 0.0630924 0.0830912 0.0758029 0.062181 0.0515932
10 2 Si -3.0337 2.72544 4.4844 2.4 1 0.0345674 0.015724 0.0204298 0.0142421 0.034664 0.0406721 0.0602672 0.0357414 0.0613233 0.0536146 0.0480598 0.0633692 0.0596254 0.0757483 0.0556717 0.0604319 0.0732274 0.0793871 0.071341 0.0619101
11 3 O -3.08099 1.11221 4.4844 -1.2 1 0.0130927 0.0238613 0.0275384 0.0224629 0.0376645 0.023689 0.0519355 0.0447089 0.0398081 0.040183 0.04176 0.0714274 0.0534496 0.0524153 0.0564042 0.0669634 0.0583583 0.0802112 0.073614 0.0769225
12 3 O 0.582463 3.69946 4.4844 -1.2 1 0.0149446 0.0132926 0.035202 0.0325939 0.0268622 0.0634798 0.0325968 0.0540709 0.0425234 0.0415188 0.0544876 0.0568529 0.058935 0.0721775 0.100413 0.0697166 0.0811787 0.0393915 0.0738127 0.0662554
13 3 O -2.29524 3.43162 3.18632 -1.2 1 0.0141383 0.0202825 0.0235155 0.0311214 0.0199782 0.0508266 0.0511869 0.0488203 0.0426013 0.0523263 0.0588889 0.0568215 0.0404629 0.0531878 0.059449 0.0666642 0.0666507 0.0621037 0.0623056 0.0729462
14 3 O -2.34216 3.43162 5.78248 -1.2 1 0.0221304 0.0136445 0.0214718 0.0286965 0.026754 0.0409915 0.0527614 0.0464821 0.0424544 0.0572497 0.0567373 0.0450482 0.0592544 0.0523831 0.0770324 0.0730874 0.0609311 0.0694036 0.0769434 0.0691314
15 1 Mg 1.12778 2.37449 2.9896 1.2 1 0.0190713 0.0398059 0.0139827 0.0242349 0.0243682 0.0437155 0.0413896 0.051122 0.0362956 0.061541 0.0348669 0.0603337 0.0405967 0.0679126 0.0644723 0.0700404 0.0684662 0.0817386 0.0460584 0.0866524
16 1 Mg 3.92855 2.33318 4.4844 1.2 1 0.027339 0.0154792 0.0244187 0.0306349 0.0438122 0.0247181 0.0393144 0.0369234 0.0472249 0.0687117 0.0500373 0.060759 0.0498642 0.0607766 0.0538546 0.0742696 0.0627688 0.0956522 0.0726124 0.0845952
17 2 Si 2.09341 4.39804 4.4844 2.4 1 0.0140839 0.0210798 0.0332082 0.014291 0.0411159 0.0283721 0.0642126 0.0220888 0.0448932 0.0475386 0.0627988 0.0619674 0.0670473 0.0594839 0.0717741 0.0758717 0.0712344 0.081959 0.0523365 0.0649736
18 3 O 2.09991 6.01128 4.4844 -1.2 1 0.00958247 0.0123853 0.0171945 0.0175254 0.0361237 0.0227075 0.0542208 0.0527212 0.0479459 0.0480946 0.0475829 0.0665423 0.0452277 0.0617343 0.0637626 0.0721908 0.0453051 0.0800005 0.0602661 0.0712523
19 3 O -4.52137 3.42402 4.4844 -1.2 1 0.0208805 0.0318214 0.0382134 0.0201579 0.0271486 0.0574441 0.0397349 0.0456974 0.0553461 0.0584726 0.0315798 0.0595719 0.0527677 0.0528004 0.089959 0.0713124 0.0784414 0.0610934 0.0745778 0.0541195
20 3 O 2.80834 3.69187 3.18632 -1.2 1 0.0111334 0.0204581 0.0208132 0.0263956 0.0203604 0.0383367 0.034581 0.0490213 0.0439061 0.0595625 0.0665445 0.0530929 0.0417917 0.0629425 0.070069 0.0718167 0.0612127 0.0587571 0.0706071 0.0710948
21 1 Mg 1.17857 2.37449 0 1.2 1 0.0144891 0.0372323 0.0292524 0.0287986 0.0364304 0.0388973 0.0430822 0.0587553 0.0357263 0.0487805 0.052717 0.0409439 0.0437285 0.0673078 0.0554036 0.0655872 0.0594754 0.0806425 0.0567533 0.0730133
22 3 O 2.76143 3.69187 5.78248 -1.2 1 0.0106159 0.0282008 0.0204739 0.0227812 0.0181483 0.0357815 0.0358386 0.0486459 0.0359679 0.0442881 0.0574086 0.0455256 0.0544763 0.0738934 0.0744453 0.0701418 0.0710188 0.0597064 0.072268 0.0729231
23 1 Mg -1.67381 2.41581 1.4948 1.2 1 0.0154957 0.0158834 0.0347778 0.0388385 0.0336577 0.0439547 0.060258 0.039653 0.0523995 0.039577 0.0462421 0.0578743 0.0556251 0.0634957 0.0613372 0.0644258 0.0831086 0.0774707 0.0666371 0.0741171
24 2 Si 0.16286 0.350945 1.4948 2.4 1 0.0170598 0.0328329 0.025758 0.0269584 0.0326213 0.0350383 0.0549927 0.0510914 0.0525417 0.0488909 0.0399241 0.0581329 0.0721497 0.0688606 0.0590235 0.0742884 0.0722905 0.0654307 0.0729573 0.0667166
25 3 O 0.15972 -1.26229 1.4948 -1.2 1 0.00912334 0.0154632 0.0397121 0.0214056 0.0372717 0.0359894 0.0454855 0.0565348 0.047219 0.0515517 0.0557674 0.0564305 0.0632631 0.066382 0.0497635 0.0595302 0.0696644 0.0667622 0.0619587 0.0742136
26 3 O 6.77654 1.32496 1.4948 -1.2 1 0.0114538 0.0277861 0.0266684 0.027757 0.0373303 0.0545432 0.0343553 0.0647507 0.0476301 0.0465824 0.0443218 0.0525697 0.052408 0.0593714 0.0687129 0.0716019 0.084778 0.0630007 0.0598472 0.0747204
27 3 O -0.508028 1.05712 0.196716 -1.2 1 0.0246265 0.0191037 0.0294202 0.0207703 0.0291958 0.0535039 0.0435643 0.0448382 0.0472964 0.0486475 0.0500689 0.0483002 0.0487942 0.063316 0.0550722 0.0628623 0.0635028 0.0590321 0.0720339 0.0718059
28 3 O -0.552171 1.05712 2.79288 -1.2 1 0.0388675 0.0271241 0.037276 0.0336312 0.0218345 0.0415221 0.0431971 0.0493969 0.0444429 0.0382227 0.0473844 0.0486576 0.0572831 0.0610392 0.064417 0.0766748 0.0746376 0.0510236 0.0697303 0.0717938
29 1 Mg 6.31713 4.74899 0 1.2 1 0.0271992 0.0290378 0.0304068 0.036685 0.0327131 0.0267 0.0420072 0.0558952 0.0588189 0.0493379 0.0511136 0.0385493 0.0593923 0.0611568 0.0657395 0.0637302 0.0659032 0.0735759 0.0694142 0.0704559
30 1 Mg 3.54847 9.45668 1.4948 1.2 1 0.0170534 0.0160379 0.0174095 0.0189305 0.0189153 0.0383146 0.0387426 0.0417944 0.0450312 0.0565314 0.0379611 0.0690075 0.0528955 0.0657606 0.0745099 0.0623054 0.0665851 0.0874539 0.0737705 0.0796129
31 2 Si 5.36879 6.77254 1.4948 2.4 1 0.0260018 0.0297452 0.0212335 0.0264238 0.0245694 0.035084 0.0442895 0.0349078 0.0456253 0.0585853 0.042489 0.057965 0.0526266 0.0674078 0.0651171 0.0750859 0.0672555 0.0783434 0.0565952 0.0686298
32 3 O 5.41937 8.38578 1.4948 -1.2 1 0.0215586 0.0114989 0.0236075 0.0296166 0.01751 0.0432546 0.0440996 0.0572378 0.0363045 0.0504137 0.0476371 0.0639937 0.0553072 0.0540286 0.0664729 0.0605712 0.0729402 0.0559693 0.0731596 0.0731003
33 3 O 1.75158 5.79852 1.4948 -1.2 1 0.0284573 0.0123447 0.0225507 0.0266193 0.0440071 0.0306725 0.0394556 0.0566559 0.0406672 0.0522881 0.0494563 0.0506906 0.0476588 0.0714499 0.0788223 0.0786742 0.0605312 0.0751757 0.0599607 0.0768217
34 3 O 4.67421 6.06637 0.196716 -1.2 1 0.0145935 0.0264924 0.0315546 0.0243182 0.0320528 0.0378007 0.0345366 0.032226 0.0448145 0.0560871 0.0392856 0.044312 0.0669018 0.0561797 0.0676414 0.071241 0.071321 0.0658087 0.0632793 0.068195
35 1 Mg 6.26654 4.74899 2.9896 1.2 1 0.0268927 0.0256217 0.0232512 0.0427997 0.0259635 0.0434336 0.0483858 0.0487328 0.0356664 0.0628033 0.0383914 0.0604303 0.0386144 0.0651376 0.0528282 0.0776155 0.0563976 0.0839903 0.0452437 0.0906192
36 3 O 4.63043 6.06637 2.79288 -1.2 1 0.0187551 0.0198128 0.0413746 0.0195331 0.0322852 0.0362754 0.0427746 0.0486899 0.0446995 0.0371354 0.0488697 0.0523323 0.0571748 0.0659052 0.0616245 0.0724788 0.0649517 0.0677269 0.0677688 0.0854872
37 1 Mg -1.12976 4.79031 4.4844 1.2 1 0.0229013 0.0256117 0.0147344 0.0151783 0.0360742 0.038269 0.0487308 0.0480462 0.0427159 0.0429701 0.0558948 0.062304 0.0744785 0.0717573 0.0612489 0.0685664 0.0723755 0.093488 0.0702381 0.0823906
38 2 Si -2.9517 7.47444 4.4844 2.4 1 0.0217894 0.0138285 0.020071 0.0284329 0.0312093 0.0415353 0.063001 0.0283091 0.0554306 0.0587493 0.052243 0.0560749 0.062191 0.057201 0.0788269 0.0716815 0.0520895 0.0890816 0.0558956 0.0604558
39 3 O -3.00198 5.86121 4.4844 -1.2 1 0.0144869 0.0227878 0.0269869 0.0280476 0.0332737 0.0315334 0.0547992 0.059724 0.0379229 0.052921 0.0476671 0.071327 0.0575636 0.0551625 0.0669564 0.0700704 0.0500018 0.0760419 0.0634323 0.0790469
40 3 O 0.666315 8.44846 4.4844 -1.2 1 0.016447 0.0232939 0.0241437 0.0176855 0.0199918 0.0577249 0.0281279 0.0520183 0.0417618 0.0489362 0.0429483 0.0511091 0.0497266 0.0745394 0.100794 0.0662249 0.0760262 0.0517601 0.0727401 0.0734106
41 3 O -2.21213 8.18062 3.18632 -1.2 1 0.0102493 0.0138866 0.0186951 0.0161315 0.0174738 0.03985 0.0463457 0.0586419 0.0463157 0.0547197 0.05531 0.0507176 0.0548151 0.0487804 0.0784812 0.0619149 0.0711042 0.0575317 0.0679561 0.0731522
42 3 O -2.25864 8.18062 5.78248 -1.2 1 0.0229253 0.0139635 0.0170798 0.0172279 0.0212838 0.027839 0.0497148 0.049373 0.0405913 0.0420513 0.056573 0.0387669 0.0580513 0.0605974 0.0827484 0.0686095 0.0642307 0.0669174 0.0702273 0.0741609
43 1 Mg 1.20893 7.12349 2.9896 1.2 1 0.00756023 0.0227838 0.0183631 0.0250204 0.0239094 0.0392399 0.043333 0.0459784 0.0353624 0.0656829 0.0394753 0.0670863 0.0364685 0.0584537 0.0522849 0.0796255 0.0516094 0.0837574 0.0471142 0.0880355
44 1 Mg 4.00982 7.08218 4.4844 1.2 1 0.0201064 0.01735 0.0245296 0.0355017 0.0338447 0.0342565 0.0472999 0.0361972 0.0466315 0.0521472 0.0570771 0.0550556 0.0689853 0.0741719 0.0572203 0.0670455 0.0633814 0.0963176 0.0747409 0.0818134
45 2 Si 2.17861 9.14704 4.4844 2.4 1 0.023215 0.0100435 0.0266012 0.0268592 0.0340821 0.0301744 0.0642081 0.0241965 0.0506014 0.0565446 0.0559246 0.0624175 0.0643531 0.0561533 0.0791041 0.0708697 0.0492763 0.0937507 0.0548787 0.0578321
46 3 O 2.18828 10.7603 4.4844 -1.2 1 0.0188676 0.0129591 0.00755478 0.0158406 0.0300858 0.0216643 0.0461126 0.0597587 0.0412765 0.0543019 0.0411663 0.072648 0.0451671 0.063442 0.0692493 0.0753439 0.0486909 0.0727029 0.0649549 0.0735318
47 3 O -4.43805 8.17302 4.4844 -1.2 1 0.0157942 0.0198829 0.0187511 0.0168391 0.02451 0.0546983 0.0379174 0.0501622 0.0431478 0.0489184 0.0362157 0.0522997 0.0509593 0.0719691 0.0994021 0.0654975 0.0805951 0.0533516 0.0755993 0.0730215
48 3 O 2.89193 8.44087 3.18632 -1.2 1 0.0180391 0.0156032 0.0185322 0.0145454 0.0220961 0.0422024 0.0340137 0.056065 0.0432495 0.0518516 0.0587566 0.048772 0.051593 0.05313 0.0801212 0.06335 0.0704579 0.0585504 0.0651207 0.0736958
49 1 Mg 1.25915 7.12349 0 1.2 1 0.023572 0.0127221 0.0229241 0.0130432 0.0305755 0.0248629 0.0525194 0.0413379 0.0557937 0.0502185 0.0525432 0.0428648 0.0713062 0.0517672 0.0682863 0.0713271 0.0662153 0.0707366 0.0823287 0.0580335
50 3 O 2.84547 8.44087 5.78248 -1.2 1 0.013827 0.0151745 0.0174884 0.0187581 0.0219877 0.03061 0.0419511 0.0508045 0.0373558 0.0435961 0.0596356 0.0443926 0.058333 0.0593258 0.0894469 0.0646773 0.0711078 0.06459 0.0644832 0.0753247
51 1 Mg -1.59284 7.16481 1.4948 1.2 1 0.00979998 0.016388 0.0204752 0.0204723 0.0150308 0.0371697 0.0464339 0.0423318 0.0429377 0.0575603 0.038631 0.0663124 0.0520408 0.0694905 0.0761093 0.0607509 0.0678987 0.0841969 0.0736468 0.0785879
52 2 Si 0.240329 5.09994 1.4948 2.4 1 0.0246822 0.0174059 0.0158768 0.0433105 0.0271695 0.0405042 0.0466216 0.0533794 0.0548181 0.0482931 0.0458622 0.0574816 0.0595122 0.0680859 0.065683 0.066197 0.064274 0.0730095 0.0664118 0.0686437
53 3 O 0.234538 3.48671 1.4948 -1.2 1 0.0131953 0.0165161 0.0265314 0.0360283 0.0311682 0.0491674 0.0460677 0.0426095 0.0528867 0.0472146 0.0519788 0.0612722 0.0558347 0.0608368 0.0613522 0.0625159 0.0628757 0.0573554 0.0756963 0.0741538
54 3 O 6.85564 6.07396 1.4948 -1.2 1 0.0324892 0.01949 0.0345825 0.0275583 0.0371644 0.0402507 0.0324092 0.0625332 0.0365196 0.0531898 0.0537179 0.0535678 0.05529 0.0733085 0.0700009 0.0769683 0.0662497 0.0722949 0.0533701 0.0848455
55 3 O -0.429565 5.80612 0.196716 -1.2 1 0.0316079 0.0223375 0.0196505 0.023952 0.0412263 0.0370903 0.05317 0.043327 0.0452008 0.0563454 0.0400577 0.0413644 0.0530597 0.0584402 0.0595617 0.0674962 0.0690528 0.0615985 0.0642621 0.0741344
56 3 O -0.473377 5.80612 2.79288 -1.2 1 0.025849 0.0234499 0.0312305 0.0197805 0.0342822 0.0454382 0.0482705 0.0501516 0.0529193 0.0464487 0.0629831 0.0401255 0.0427351 0.05804 0.0661859 0.0722934 0.0656712 0.0691621 0.070111 0.0796885
57 1 Mg 6.40169 9.49799 0 1.2 1 0.0127076 0.011919 0.0211689 0.0144186 0.0304256 0.0212889 0.0521135 0.0355871 0.0585531 0.0492099 0.0497549 0.0353805 0.0671374 0.0528403 0.0709512 0.0672455 0.0653206 0.0705583 0.0811016 0.0684639
58 1 Mg 3.64209 14.2057 1.4948 1.2 1 0.0105235 0.010987 0.0180718 0.0166047 0.0218098 0.0336344 0.0362167 0.0431593 0.0415453 0.0556836 0.0395984 0.0662292 0.0530035 0.0662769 0.0739211 0.0631479 0.0648315 0.0823167 0.0739356 0.0781088
59 2 Si 5.45748 11.5215 1.4948 2.4 1 0.0119433 0.021898 0.0233145 0.0248286 0.017998 0.0403243 0.0396504 0.0398765 0.0434626 0.0544927 0.0424182 0.0603 0.0534619 0.0663834 0.0694938 0.0634024 0.0712365 0.0818757 0.0584767 0.0668944
60 3 O 5.51101 13.1348 1.4948 -1.2 1 0.0241783 0.0135113 0.0224086 0.0293557 0.0199323 0.0434312 0.0443721 0.0590381 0.0363592 0.049676 0.0430301 0.0670191 0.0533408 0.0536389 0.0657701 0.0598435 0.0708254 0.0578176 0.0696142 0.0718931
61 3 O 1.83851 10.5475 1.4948 -1.2 1 0.0395559 0.0146117 0.0198222 0.0108766 0.0362049 0.0312993 0.0369089 0.0576807 0.0391177 0.0476884 0.0499708 0.0514872 0.0478308 0.0741049 0.0753548 0.0788841 0.0574402 0.076134 0.0575996 0.0783694
62 3 O 4.7611 10.8154 0.196716 -1.2 1 0.0357248 0.0192572 0.0198393 0.0180886 0.0267585 0.0442134 0.048278 0.0374735 0.0387371 0.0492504 0.0368899 0.0410284 0.0607114 0.0606136 0.0649637 0.0712896 0.0752294 0.065787 0.0728082 0.0676902
63 1 Mg 6.35203 9.49799 2.9896 1.2 1 0.0128422 0.017334 0.0254348 0.0215732 0.0191922 0.0385228 0.0371064 0.0509761 0.035232 0.0585587 0.0316257 0.0642361 0.0286469 0.0663768 0.0475333 0.0800726 0.045414 0.089211 0.0449974 0.0911773
64 3 O 4.71833 10.8154 2.79288 -1.2 1 0.0229028 0.0146255 0.0300626 0.0117614 0.0319204 0.0411966 0.0431947 0.0462879 0.04054 0.0388101 0.0534031 0.0433148 0.0541158 0.0565857 0.073152 0.0691547 0.0728497 0.0574731 0.0687125 0.0797781
65 1 Mg -1.0438 9.53931 4.4844 1.2 1 0.0129755 0.019033 0.0135733 0.0232187 0.0265111 0.0311362 0.0377405 0.0363921 0.0465771 0.0505722 0.0561333 0.0562261 0.0661948 0.0719293 0.0592683 0.0706337 0.0717814 0.0957372 0.0712157 0.083946
66 2 Si -2.8604 12.2234 4.4844 2.4 1 0.0144831 0.0149266 0.0149644 0.0243093 0.0326393 0.0415457 0.0602503 0.0288319 0.0519307 0.0635906 0.0545317 0.0625726 0.0597763 0.0557858 0.0801298 0.0716762 0.0522891 0.0929074 0.0542454 0.0631068
67 3 O -2.91391 10.6102 4.4844 -1.2 1 0.017544 0.0129827 0.00983762 0.0214761 0.0308347 0.0226711 0.0482018 0.0627908 0.0415332 0.0516868 0.0385725 0.0703814 0.0430966 0.0588107 0.067812 0.0714905 0.0500097 0.0754028 0.0634512 0.0770715
68 3 O 0.7596 13.1975 4.4844 -1.2 1 0.0184159 0.0232569 0.019269 0.0130555 0.0225333 0.0494791 0.0337644 0.0517343 0.0470119 0.051499 0.0378157 0.0513539 0.0469891 0.070739 0.100398 0.0609201 0.0769907 0.0512001 0.0742021 0.0719846
69 3 O -2.12001 12.9296 3.18632 -1.2 1 0.0175 0.00911843 0.0190418 0.0170745 0.0208018 0.0384395 0.0421733 0.0553452 0.0466829 0.0522976 0.0542258 0.0485298 0.0560239 0.0505519 0.0803751 0.0641524 0.0717838 0.0623202 0.0661861 0.0702317
70 3 O -2.16532 12.9296 5.78248 -1.2 1 0.0157499 0.0143187 0.016289 0.0258108 0.0200604 0.0316301 0.0492934 0.0471157 0.04003 0.039831 0.0566846 0.0386208 0.0594412 0.0602323 0.0858427 0.0703019 0.0686898 0.0657782 0.0684527 0.0765682
71 1 Mg 1.29891 11.8725 2.9896 1.2 1 0.00796945 0.0158523 0.0219158 0.0242054 0.0174609 0.0396974 0.0366776 0.0497008 0.0355696 0.0606985 0.0341507 0.0595693 0.0254143 0.067154 0.0491729 0.0832726 0.0482875 0.0891446 0.0479018 0.0872102
72 1 Mg 4.10033 11.8312 4.4844 1.2 1 0.0106623 0.0182341 0.0182254 0.0279809 0.0276111 0.03242 0.0434702 0.0355112 0.046988 0.0512094 0.055486 0.0538019 0.0675828 0.0701789 0.055745 0.0699029 0.0703203 0.0975398 0.0750233 0.0819806
73 2 Si 2.27333 13.896 4.4844 2.4 1 0.0282977 0.00867915 0.0216185 0.0248232 0.0275854 0.0356844 0.0636474 0.0279694 0.0524289 0.0580216 0.0540642 0.0595742 0.0630106 0.0566271 0.0769125 0.0701142 0.0483718 0.0968107 0.0540944 0.057043
74 3 O 2.28634 15.5093 4.4844 -1.2 1 0.0222219 0.0155809 0.00392516 0.0206672 0.0245416 0.0210104 0.0431914 0.05949 0.0419172 0.0522818 0.0408814 0.070697 0.0464313 0.0630616 0.0706916 0.0710039 0.0485146 0.0710026 0.0649093 0.0747653
75 3 O -4.34533 12.922 4.4844 -1.2 1 0.00862753 0.0181242 0.024448 0.0208751 0.0224663 0.051283 0.0352971 0.0507611 0.0434028 0.0518428 0.038499 0.052441 0.0504054 0.0730703 0.102514 0.0672453 0.0818298 0.0519371 0.0766305 0.0741684
76 3 O 2.98455 13.1899 3.18632 -1.2 1 0.0269136 0.0140979 0.0185135 0.0112183 0.0195947 0.0417306 0.0382302 0.0567224 0.0462722 0.0521821 0.055675 0.0505973 0.050005 0.0493131 0.0807344 0.062526 0.0653693 0.0600604 0.0651941 0.0714429
77 1 Mg 1.34779 11.8725 0 1.2 1 0.0219694 0.00962339 0.0217319 0.0150209 0.0286349 0.0224147 0.0515201 0.0344664 0.0574206 0.0510614 0.0497134 0.0356179 0.0650589 0.0499933 0.0701578 0.0639428 0.0614312 0.0701717 0.0879208 0.0591538
78 3 O 2.93934 13.1899 5.78248 -1.2 1 0.0210047 0.0100813 0.018396 0.0199091 0.01416 0.0255862 0.0467426 0.0477179 0.0389636 0.0403754 0.0576453 0.0384562 0.0532995 0.0571124 0.0866698 0.0646595 0.065435 0.064414 0.067552 0.0776379
79 1 Mg -1.50344 11.9138 1.4948 1.2 1 0.0129219 0.0179801 0.0227748 0.020474 0.0119166 0.0369101 0.038606 0.0422604 0.0414119 0.0600238 0.0355697 0.0648491 0.0504342 0.0649955 0.0743225 0.0679094 0.0641761 0.0839388 0.0763413 0.0785242
80 2 Si 0.326006 9.84894 1.4948 2.4 1 0.0250735 0.0193678 0.0249594 0.0304815 0.0171683 0.0388176 0.0439476 0.0377664 0.0447321 0.0562088 0.0402688 0.0598881 0.0550966 0.0669936 0.0608578 0.0636448 0.0703753 0.0793447 0.0618762 0.0685668
81 3 O 0.317364 8.23571 1.4948 -1.2 1 0.0224347 0.0125532 0.0227438 0.0238507 0.0204642 0.0453099 0.0427618 0.0497757 0.0345471 0.053985 0.0444801 0.0658058 0.0576208 0.0596805 0.0684738 0.066613 0.0715591 0.0534295 0.0734854 0.0739002
82 3 O 6.94307 10.823 1.4948 -1.2 1 0.0357325 0.0149348 0.0212344 0.00932713 0.0369635 0.0334464 0.0388155 0.0562443 0.0338257 0.0467078 0.0514371 0.0520892 0.0507195 0.074336 0.0726255 0.0786026 0.062273 0.0733057 0.0580587 0.0800078
83 3 O -0.343122 10.5551 0.196716 -1.2 1 0.0268651 0.0178249 0.0216043 0.0210305 0.031357 0.0417134 0.0500249 0.0391559 0.0374259 0.0481682 0.0384479 0.0361934 0.0601994 0.0612629 0.068399 0.0703104 0.0819736 0.0530559 0.0699419 0.0705315
84 3 O -0.385966 10.5551 2.79288 -1.2 1 0.0262195 0.0164118 0.030076 0.012566 0.0333738 0.0421117 0.0446345 0.0469909 0.042255 0.0402437 0.0530885 0.0491906 0.0491002 0.054544 0.0688814 0.0704016 0.0659334 0.0601833 0.0684644 0.0796371
85 1 Mg 6.49448 14.247 0 1.2 1 0.0226804 0.00993677 0.0185233 0.0168868 0.0286378 0.0226904 0.047742 0.0329629 0.0594192 0.0480354 0.051456 0.0373322 0.0624602 0.0528609 0.0710867 0.0653589 0.0642755 0.070772 0.0846586 0.0706526
86 1 Mg 3.74457 18.9547 1.4948 1.2 1 0.0149509 0.0106524 0.0152279 0.0161395 0.0257849 0.0293046 0.0314152 0.039468 0.038071 0.0580461 0.043495 0.0663427 0.0504802 0.0661972 0.0705315 0.0697139 0.063348 0.0832271 0.0786213 0.0756964
87 2 Si 5.55495 16.2705 1.4948 2.4 1 0.0107781 0.0219073 0.020153 0.0270137 0.0176826 0.0428311 0.0370499 0.0401993 0.0466918 0.0527289 0.0440004 0.0602193 0.0539841 0.0645074 0.0702998 0.0590565 0.0734379 0.0793843 0.0608747 0.070577
88 3 O 5.6115 17.8838 1.4948 -1.2 1 0.0267739 0.0180796 0.0232132 0.0257269 0.0192898 0.0434377 0.0451874 0.0609518 0.03737 0.050318 0.037833 0.0672027 0.0507668 0.0557712 0.0641086 0.0576939 0.0658108 0.0616288 0.0633048 0.069506
89 3 O 1.93416 15.2965 1.4948 -1.2 1 0.0370917 0.0147897 0.0219262 0.0129806 0.0350538 0.0303098 0.03615 0.0590424 0.0430562 0.0471119 0.0487781 0.050562 0.0463337 0.0736956 0.0805603 0.0776281 0.058919 0.0738805 0.0622553 0.0772562
90 3 O 4.85636 15.5644 0.196716 -1.2 1 0.0225279 0.0119029 0.0213806 0.0190802 0.0251985 0.0513298 0.049538 0.039619 0.0394042 0.0444141 0.0374413 0.0324161 0.0631658 0.0542892 0.0672652 0.0675251 0.0759714 0.0628998 0.0726105 0.0684378
91 1 Mg 6.44662 14.247 2.9896 1.2 1 0.00826306 0.0164163 0.0189223 0.0193328 0.0181077 0.0351467 0.0374599 0.053115 0.0374378 0.0574891 0.0357027 0.0616603 0.0259708 0.0674124 0.0457414 0.0744032 0.043725 0.0930424 0.0457041 0.0930918
92 3 O 4.81537 15.5644 2.79288 -1.2 1 0.0146941 0.0078416 0.0283064 0.0122414 0.0279151 0.0379394 0.0469468 0.0471561 0.0453436 0.0392743 0.051335 0.0434543 0.0528757 0.0569808 0.0745939 0.0651569 0.0757813 0.0520379 0.072473 0.0754802
93 1 Mg -0.948271 14.2883 4.4844 1.2 1 0.017378 0.01067 0.0161778 0.0291277 0.0243011 0.0287567 0.0368146 0.0347425 0.0446299 0.0488702 0.0590109 0.0571391 0.0649661 0.0691093 0.0581637 0.0716835 0.0704039 0.0952197 0.0732178 0.0816028
94 2 Si -2.75928 16.9724 4.4844 2.4 1 0.0145168 0.0153733 0.0168226 0.0276901 0.0320709 0.0400097 0.0593886 0.0295732 0.0536617 0.0647749 0.0529938 0.0613356 0.0576771 0.054931 0.0800067 0.0710215 0.0502524 0.0920659 0.0561704 0.063479
95 3 O -2.81617 15.3592 4.4844 -1.2 1 0.0143132 0.0141198 0.0136613 0.0245305 0.0314128 0.0220137 0.0437913 0.063005 0.0427756 0.0505994 0.0392688 0.0739915 0.0490913 0.0592876 0.0687273 0.07109 0.0500784 0.0764642 0.0648462 0.0752117
96 3 O 0.862762 17.9465 4.4844 -1.2 1 0.018629 0.0256049 0.0218958 0.0181093 0.0219823 0.0485002 0.0343159 0.0509904 0.046483 0.0533577 0.0396474 0.0474336 0.0451197 0.0693131 0.108766 0.0564582 0.0711091 0.0549205 0.0758818 0.0683079
97 3 O -2.0185 17.6786 3.18632 -1.2 1 0.0214298 0.00751529 0.0202177 0.0182552 0.0174735 0.0377275 0.0417787 0.0555191 0.0412597 0.0530385 0.0528181 0.0492455 0.0562715 0.0490676 0.0815999 0.0601408 0.0696038 0.0669216 0.0643939 0.0675987
98 3 O -2.06164 17.6786 5.78248 -1.2 1 0.0124437 0.00975125 0.0225514 0.022501 0.0166612 0.0267748 0.0460423 0.0493556 0.0369356 0.0395859 0.0567379 0.0410512 0.0569944 0.0572477 0.0836585 0.0689181 0.0686599 0.0615139 0.0663791 0.0757449
99 1 Mg 1.39817 16.6215 2.9896 1.2 1 0.00590085 0.0158446 0.0189142 0.0223716 0.0181551 0.0362035 0.0374199 0.0534651 0.0372315 0.0600179 0.0361484 0.055873 0.0234078 0.0666403 0.0467052 0.0803373 0.0495113 0.0907686 0.0458024 0.0894507
100 1 Mg 4.20062 16.5802 4.4844 1.2 1 0.0158499 0.0144657 0.0154828 0.0265476 0.0236536 0.0303071 0.0432608 0.0346322 0.0457028 0.0519591 0.0550635 0.0549513 0.0677722 0.068745 0.0543729 0.0732711 0.0695932 0.0952466 0.0741896 0.0811602
101 2 Si 2.37796 18.645 4.4844 2.4 1 0.0200644 0.00997338 0.022464 0.0268907 0.0285654 0.0355991 0.0614386 0.0298804 0.0542354 0.0615938 0.0510545 0.061574 0.062505 0.0540985 0.0723513 0.0683424 0.0465954 0.100645 0.0532601 0.0577859
102 3 O 2.39434 20.2583 4.4844 -1.2 1 0.0227875 0.0121127 0.00948678 0.0179552 0.0240121 0.0221863 0.0412705 0.0584299 0.0444608 0.0504615 0.0416432 0.0726432 0.0491799 0.0626607 0.0710403 0.0685631 0.0490595 0.0679268 0.0647021 0.0805521
103 3 O -4.24274 17.671 4.4844 -1.2 1 0.0229319 0.022399 0.0208121 0.0160848 0.0202965 0.0499143 0.0348897 0.0477171 0.0418549 0.053938 0.0397931 0.0521486 0.0507772 0.0700102 0.0981649 0.0609202 0.0744529 0.0550341 0.0777673 0.0700737
104 3 O 3.08659 17.9389 3.18632 -1.2 1 0.0254715 0.0132795 0.0206491 0.0120573 0.0182105 0.0408439 0.0377741 0.0556083 0.0462198 0.0497299 0.0572539 0.0479066 0.0516398 0.0513381 0.0800212 0.0600433 0.0667593 0.0598879 0.0635364 0.0694755
105 1 Mg 1.44478 16.6215 0 1.2 1 0.00947268 0.0122601 0.0215637 0.012946 0.0265095 0.0314612 0.0479697 0.0356001 0.0506579 0.050605 0.0517882 0.039699 0.0588013 0.049644 0.0697866 0.066086 0.0599621 0.0678302 0.0885658 0.0639402
106 3 O 3.0436 17.9389 5.78248 -1.2 1 0.0191658 0.016606 0.0177574 0.0190424 0.018947 0.026536 0.0461262 0.0467888 0.0413126 0.0399019 0.0579006 0.0395555 0.0547826 0.0611516 0.0869698 0.0631586 0.0665276 0.0644143 0.066433 0.0763418
107 1 Mg -1.40524 16.6628 1.4948 1.2 1 0.0161028 0.0122789 0.026087 0.0188907 0.0174005 0.0343194 0.0358731 0.0422696 0.0413159 0.0595859 0.0417382 0.0626427 0.0543013 0.0639072 0.0704656 0.0703426 0.0644404 0.077192 0.0787808 0.0753637
108 2 Si 0.420358 14.5979 1.4948 2.4 1 0.0225065 0.0192808 0.0290216 0.0260391 0.0176484 0.0385794 0.0391061 0.0418105 0.0443412 0.0551794 0.0426391 0.0613403 0.0575574 0.0635542 0.0670898 0.0591124 0.0720594 0.0766662 0.0627155 0.0710629
109 3 O 0.408732 12.9847 1.4948 -1.2 1 0.0221552 0.0155036 0.0228681 0.0255861 0.0168844 0.0471614 0.0437278 0.0539672 0.0362413 0.0530188 0.0422474 0.0692253 0.0530493 0.0567852 0.0657339 0.0637726 0.0713145 0.0548838 0.06853 0.0718459
110 3 O 7.03923 15.572 1.4948 -1.2 1 0.033909 0.0175549 0.0209063 0.00993736 0.0358643 0.0340633 0.0374005 0.0548712 0.0371353 0.0436976 0.0515287 0.0529914 0.0485219 0.0735518 0.0775958 0.0771242 0.0651524 0.0696622 0.0625064 0.0770265
111 3 O -0.248332 15.3041 0.196716 -1.2 1 0.0190075 0.0129052 0.0211318 0.018142 0.0252038 0.0464801 0.0488338 0.0431057 0.0390225 0.044626 0.0381661 0.030625 0.0606865 0.0543495 0.069915 0.0643004 0.0834669 0.0502113 0.0701258 0.0724992
112 3 O -0.289436 15.3041 2.79288 -1.2 1 0.014471 0.0178143 0.0291259 0.0107188 0.0310293 0.0357045 0.0441752 0.047577 0.0432424 0.0411007 0.0539903 0.0490525 0.0513505 0.0529325 0.072387 0.0695389 0.0711659 0.0556697 0.0693478 0.0765353
113 1 Mg 6.59566 18.996 0 1.2 1 0.0137732 0.0117494 0.0199688 0.014275 0.0258289 0.0318302 0.0433662 0.0331869 0.0539174 0.0493828 0.0537709 0.0389833 0.0520337 0.0527286 0.0722438 0.064405 0.0644321 0.0645802 0.0858605 0.070591
114 1 Mg 3.85574 23.7037 1.4948 1.2 1 0.00894823 0.0139225 0.0220687 0.0156872 0.0233084 0.0296315 0.0315346 0.0361503 0.0384275 0.058858 0.0461443 0.0657096 0.0510605 0.0678292 0.0652752 0.0729838 0.0652771 0.0806093 0.0806134 0.0763905
115 2 Si 5.66125 21.0195 1.4948 2.4 1 0.00851373 0.0226849 0.0248539 0.0275966 0.020126 0.0458285 0.0338676 0.0432552 0.0475517 0.0542145 0.044428 0.0609496 0.055484 0.060202 0.0708728 0.0607016 0.0733554 0.0771756 0.0651747 0.0750581
116 3 O 5.72074 22.6328 1.4948 -1.2 1 0.0281716 0.0192679 0.0184498 0.0226234 0.019308 0.0449345 0.0453111 0.0618892 0.0379237 0.0521413 0.0328576 0.070147 0.0494176 0.0534341 0.0684165 0.0565726 0.0648459 0.0676237 0.0565986 0.0710451
117 3 O 2.03867 20.0455 1.4948 -1.2 1 0.03436 0.0165706 0.0256435 0.0129886 0.0339626 0.031515 0.036318 0.0539962 0.0430113 0.0422152 0.0507854 0.0504627 0.0481563 0.0733204 0.0843456 0.0718107 0.0628028 0.0677826 0.0643016 0.0721876
118 3 O 4.96004 20.3134 0.196716 -1.2 1 0.021167 0.0103944 0.0228943 0.0186303 0.0231834 0.0452963 0.0439593 0.0479736 0.039003 0.0399188 0.0411588 0.034349 0.0646715 0.0475565 0.0696347 0.0728227 0.0717101 0.0580269 0.0711624 0.0720031
119 1 Mg 6.55057 18.996 2.9896 1.2 1 0.00769683 0.0151691 0.0204606 0.0222437 0.0244553 0.0350754 0.0378101 0.0559892 0.034292 0.0604713 0.0351474 0.0643717 0.0218379 0.069763 0.0455847 0.0735998 0.0453628 0.0958744 0.0449743 0.0941488
120 3 O 4.92172 20.3134 2.79288 -1.2 1 0.00950397 0.0115405 0.0310371 0.01511 0.0301527 0.0399808 0.0463957 0.0456106 0.0475608 0.0427794 0.0528456 0.0400617 0.0531714 0.0537952 0.076247 0.0681995 0.0757298 0.0476679 0.0717684 0.0720557
121 1 Mg -0.84282 19.0373 4.4844 1.2 1 0.0161307 0.0126507 0.0123072 0.0261724 0.024094 0.0292118 0.0351924 0.0327778 0.0444179 0.0484977 0.0578528 0.0594232 0.0646012 0.067831 0.059693 0.0733714 0.0720802 0.0937839 0.0711549 0.0794741
122 2 Si -2.64823 21.7214 4.4844 2.4 1 0.0175963 0.017522 0.0184976 0.0232964 0.0268006 0.0396003 0.0538301 0.0310829 0.0523375 0.0660131 0.0502526 0.062816 0.0586202 0.0532343 0.0760904 0.0722038 0.0510186 0.0939829 0.0557389 0.0646707
123 3 O -2.70847 20.1082 4.4844 -1.2 1 0.0163314 0.0143391 0.0162681 0.0247839 0.0255183 0.0266968 0.0395105 0.0673793 0.0452921 0.0479285 0.0370442 0.0721739 0.0525324 0.0583718 0.0676215 0.0654104 0.05384 0.0723537 0.0643062 0.0752176
124 3 O 0.97581 22.6955 4.4844 -1.2 1 0.0142106 0.0252186 0.0196778 0.0175484 0.0203701 0.0405939 0.0320397 0.0513931 0.0456479 0.0535172 0.040149 0.0476343 0.0466119 0.0738368 0.106666 0.0518526 0.0674968 0.0557202 0.0721275 0.0672306
125 3 O -1.9076 22.4276 3.18632 -1.2 1 0.0216002 0.00833812 0.0211131 0.0158193 0.0137209 0.0367569 0.0440946 0.0559571 0.0373633 0.0500033 0.0546432 0.0489731 0.0571294 0.0474061 0.0806073 0.0570311 0.0684265 0.0669377 0.0624313 0.0659776
126 3 O -1.9475 22.4276 5.78248 -1.2 1 0.0221823 0.00870664 0.0184068 0.0210053 0.0140075 0.0281169 0.0491889 0.0431611 0.0374667 0.0356756 0.0581403 0.0362914 0.0550193 0.0573937 0.0803065 0.0694425 0.0704243 0.0607913 0.0685092 0.0774139