ITEM: TIMESTEP
18800
ITEM: NUMBER OF ATOMS
10500
ITEM: BOX BOUNDS xy xz yz pp pp pp
0	15.2977	5.09925
0	118.725	0
0	89.688	0
ITEM: ATOMS id type element xu yu zu q Q_1 Q_2 Q_3 Q_4 Q_5 Q_6 Q_7 Q_8 Q_9 Q_10 Q_11 Q_12 Q_13 Q_14 Q_15 Q_16 Q_17 Q_18 Q_19 Q_20 Q_21
1 1 Mg 6.2404 -6.37941e-06 0 1.2 1 0.0132189 0.0410187 0.0295989 0.0358617 0.0332471 0.0410623 0.035795 0.0686398 0.0391661 0.071273 0.0338402 0.0594063 0.04606 0.0684346 0.050023 0.0920516 0.0515546 0.0839256 0.0510258 0.102618
2 1 Mg 3.46349 4.70768 1.4948 1.2 1 0.0124844 0.016187 0.0251797 0.0236583 0.0198264 0.0414169 0.0436734 0.0409424 0.0478842 0.0558453 0.0421032 0.0699332 0.0579082 0.0706351 0.0729165 0.0643674 0.0667244 0.0847259 0.0734834 0.0827044
3 2 Si 5.2885 2.02354 1.4948 2.4 1 0.0172531 0.0228393 0.0319251 0.0267354 0.0311068 0.0378032 0.0549649 0.0314549 0.0434249 0.0542455 0.0529996 0.0612822 0.0555638 0.0652012 0.0679137 0.0787635 0.0699783 0.0639803 0.0648332 0.0719125
4 3 O 5.33628 3.63678 1.4948 -1.2 1 0.00944248 0.0142523 0.0269366 0.0259156 0.018349 0.0390852 0.0418424 0.0601644 0.0353975 0.0401151 0.0548264 0.05061 0.068041 0.0577323 0.0590797 0.0649368 0.0599942 0.0616812 0.0711154 0.074505
5 3 O 1.67294 1.04952 1.4948 -1.2 1 0.0163102 0.0218477 0.0234252 0.0355781 0.0296172 0.0386954 0.0341561 0.0610454 0.0347841 0.059597 0.0437536 0.0510013 0.0716572 0.0594244 0.076115 0.0691888 0.0627224 0.0644458 0.0793915 0.0600096
6 3 O 4.59532 1.31737 0.196716 -1.2 1 0.0258465 0.0221045 0.0575684 0.0252552 0.0332771 0.0487574 0.0386495 0.0474266 0.0339874 0.0393775 0.0385265 0.0505634 0.054232 0.0571363 0.0635433 0.0699808 0.0620543 0.0713904 0.0591913 0.0707567
7 1 Mg 6.18956 -6.37941e-06 2.9896 1.2 1 0.0121798 0.0266474 0.0155865 0.0228401 0.0359561 0.0449633 0.0520678 0.0423087 0.0477032 0.0453837 0.0380642 0.0576801 0.0401628 0.0550857 0.0578873 0.0804583 0.0561579 0.0706759 0.0588754 0.0698654
8 3 O 4.55118 1.31737 2.79288 -1.2 1 0.0242641 0.0257274 0.0407423 0.0171444 0.0288465 0.0437126 0.0446111 0.0478191 0.0438457 0.0548254 0.0537413 0.048762 0.0495801 0.0665272 0.0532114 0.0699059 0.0648778 0.0666243 0.0645973 0.0716761
9 1 Mg -1.20682 0.0413099 4.4844 1.2 1 0.013947 0.0248067 0.0208576 0.0271007 0.0364727 0.0409152 0.0310786 0.0525515 0.0545284 0.04009 0.0479527 0.0621549 0.0684259 0.0580286 0.0760554 0.060822 0.0807885 0.0731374 0.0657308 0.0520039
10 2 Si -3.0337 2.72544 4.4844 2.4 1 0.0338332 0.0137241 0.0202143 0.0172361 0.0313444 0.0386898 0.0624418 0.0346015 0.0616027 0.0496151 0.046958 0.0609112 0.0605879 0.0755592 0.0558518 0.0597614 0.07252 0.0786034 0.0726518 0.0603723
11 3 O -3.08099 1.11221 4.4844 -1.2 1 0.0127317 0.0288573 0.0261411 0.0258224 0.0398861 0.0254207 0.0513535 0.0462152 0.0408225 0.0402652 0.0432003 0.0728558 0.0518809 0.0531817 0.054911 0.0677577 0.0560054 0.0806914 0.0752808 0.0771569
12 3 O 0.582463 3.69946 4.4844 -1.2 1 0.0101235 0.0115982 0.034492 0.0307706 0.0269628 0.0620939 0.0314614 0.0556872 0.0445678 0.0413006 0.0532921 0.0585623 0.0580067 0.0715156 0.099774 0.070843 0.0792407 0.0401746 0.0723484 0.0690275
13 3 O -2.29524 3.43162 3.18632 -1.2 1 0.0124373 0.0203166 0.025574 0.0310164 0.0193732 0.0505412 0.0517055 0.0499185 0.0408386 0.0535628 0.0600981 0.0539342 0.0404269 0.0517169 0.0582068 0.0648972 0.067073 0.061904 0.0634236 0.0724709
14 3 O -2.34216 3.43162 5.78248 -1.2 1 0.014849 0.0101936 0.0242662 0.0293266 0.0274981 0.0401742 0.0563273 0.0447689 0.0389928 0.0565846 0.0564254 0.0454546 0.0570895 0.0522472 0.0776462 0.0727361 0.0655775 0.0708481 0.0726655 0.0731294
15 1 Mg 1.12778 2.37449 2.9896 1.2 1 0.0153516 0.040162 0.0170341 0.0240722 0.0253073 0.0438693 0.0406779 0.0505597 0.0369649 0.0608871 0.0372994 0.0586861 0.0405121 0.0672386 0.0638139 0.0700315 0.0678801 0.0822291 0.0452502 0.0871355
16 1 Mg 3.92855 2.33318 4.4844 1.2 1 0.0280586 0.0157194 0.0242594 0.0303005 0.0434023 0.025652 0.0376821 0.0380272 0.0475231 0.0677391 0.050752 0.0596367 0.0505825 0.0599253 0.0549404 0.0736389 0.0634539 0.0949586 0.0732781 0.0852148
17 2 Si 2.09341 4.39804 4.4844 2.4 1 0.0135352 0.0204642 0.0330414 0.014597 0.0415655 0.0261338 0.0637068 0.0212078 0.0444607 0.0475319 0.0623496 0.0620559 0.066472 0.0589871 0.0729178 0.0741424 0.0722675 0.0797299 0.0506013 0.0667424
18 3 O 2.09991 6.01128 4.4844 -1.2 1 0.00995222 0.0114893 0.0175426 0.0191436 0.0342134 0.022398 0.0518541 0.0513879 0.0469911 0.0470275 0.046614 0.0656155 0.0463419 0.0622217 0.0662085 0.0716802 0.0449058 0.0802894 0.0611506 0.0718419
19 3 O -4.52137 3.42402 4.4844 -1.2 1 0.0212586 0.0283549 0.0356068 0.021982 0.0267168 0.0570771 0.0388649 0.0474424 0.0546687 0.0588686 0.0307669 0.0579045 0.0534484 0.052644 0.0915298 0.0735166 0.076981 0.0610718 0.0721617 0.0561742
20 3 O 2.80834 3.69187 3.18632 -1.2 1 0.0111709 0.0199598 0.0207174 0.0261027 0.0208477 0.0381053 0.0341976 0.0490066 0.0441828 0.0597758 0.0661953 0.0528362 0.0418628 0.0628509 0.0701018 0.0719458 0.061326 0.0584938 0.0708711 0.0720003
21 1 Mg 1.17857 2.37449 0 1.2 1 0.0148881 0.0344023 0.0286512 0.0276848 0.0375775 0.0381342 0.0432102 0.0590272 0.0359159 0.0492593 0.0513703 0.0418664 0.0421127 0.0672181 0.056368 0.0641409 0.0618346 0.0804228 0.0589388 0.0731457
22 3 O 2.76143 3.69187 5.78248 -1.2 1 0.00362315 0.018769 0.0191078 0.022384 0.0150812 0.0357763 0.0370013 0.0502555 0.0356377 0.0447669 0.0574375 0.0442915 0.0529921 0.0766772 0.0734237 0.067071 0.069369 0.0584585 0.0709261 0.0766846
23 1 Mg -1.67381 2.41581 1.4948 1.2 1 0.0114707 0.0115862 0.0371796 0.0362529 0.0324127 0.0440568 0.0587567 0.0404302 0.0510164 0.0405434 0.0464559 0.0592372 0.0549837 0.0635025 0.0615658 0.0646517 0.083405 0.0775885 0.0666434 0.0742321
24 2 Si 0.16286 0.350945 1.4948 2.4 1 0.0154817 0.0353823 0.0300203 0.0242079 0.0367324 0.0358565 0.0565228 0.0489263 0.0533893 0.0495492 0.0405196 0.0537684 0.0740839 0.070484 0.0582013 0.0736875 0.069848 0.0639272 0.0729142 0.0657533
25 3 O 0.15972 -1.26229 1.4948 -1.2 1 0.00918343 0.0151728 0.0397013 0.0214211 0.0377032 0.0360705 0.0455505 0.0571642 0.046902 0.0514101 0.0556395 0.0553226 0.0630196 0.0662832 0.0501515 0.0595354 0.0695916 0.0661605 0.0627582 0.0743546
26 3 O 6.77654 1.32496 1.4948 -1.2 1 0.0115087 0.0277853 0.0266648 0.0277384 0.0372873 0.0545776 0.034229 0.0648698 0.04763 0.0466566 0.0442761 0.0525336 0.0523745 0.059393 0.0686771 0.071578 0.0846922 0.0628522 0.0599544 0.0746422
27 3 O -0.508028 1.05712 0.196716 -1.2 1 0.0246685 0.0190521 0.0295686 0.0206128 0.0292592 0.0532753 0.0437047 0.044594 0.0471946 0.0482603 0.0502763 0.0479437 0.0494016 0.0634814 0.0548586 0.0628916 0.0634096 0.0588659 0.072113 0.07192
28 3 O -0.552171 1.05712 2.79288 -1.2 1 0.0359325 0.0282439 0.0363521 0.033128 0.023766 0.0433457 0.039908 0.0471069 0.0421069 0.037571 0.0500687 0.0500873 0.057911 0.0609175 0.0656908 0.0752015 0.0713123 0.0501531 0.06946 0.0710487
29 1 Mg 6.31713 4.74899 0 1.2 1 0.0272518 0.0292093 0.0303538 0.0366845 0.0325132 0.0265884 0.0417649 0.055872 0.0585849 0.0494712 0.0510895 0.0382876 0.0591947 0.0613454 0.065409 0.0638721 0.0659541 0.0734014 0.0695148 0.0706291
30 1 Mg 3.54847 9.45668 1.4948 1.2 1 0.0218131 0.0143719 0.0180622 0.0205821 0.018308 0.0383339 0.0380055 0.0418966 0.0447294 0.0554692 0.0383436 0.0691377 0.0521502 0.0654423 0.0719959 0.0632603 0.0671425 0.0873753 0.073818 0.0790412
31 2 Si 5.36879 6.77254 1.4948 2.4 1 0.0290701 0.027028 0.0239039 0.0255744 0.0247238 0.0349201 0.044305 0.0362954 0.0448205 0.0570976 0.0421535 0.0583272 0.0534892 0.0665368 0.0656338 0.0741815 0.0672968 0.0790964 0.0560744 0.0687978
32 3 O 5.41937 8.38578 1.4948 -1.2 1 0.0215169 0.0113508 0.0234741 0.0295956 0.0175403 0.0431141 0.0440788 0.0572784 0.0362839 0.0506924 0.0474345 0.0641463 0.0550015 0.0538164 0.0664068 0.0609408 0.0727656 0.0562084 0.0730261 0.0732538
33 3 O 1.75158 5.79852 1.4948 -1.2 1 0.0284819 0.0124208 0.0224871 0.026649 0.044104 0.0305537 0.0393011 0.0570674 0.040724 0.0526788 0.0495191 0.0506711 0.0473854 0.0710004 0.0786172 0.0783334 0.0601414 0.0750319 0.0601477 0.0766265
34 3 O 4.67421 6.06637 0.196716 -1.2 1 0.0146376 0.0264762 0.0316026 0.02439 0.0320277 0.0377616 0.0345636 0.0321215 0.0448567 0.0560442 0.0392482 0.0442698 0.0669427 0.056139 0.0676752 0.0712816 0.0713156 0.0657802 0.0631434 0.068148
35 1 Mg 6.26654 4.74899 2.9896 1.2 1 0.0220778 0.0248893 0.0236338 0.0431085 0.0258497 0.0440399 0.0481609 0.0482093 0.0359445 0.0622195 0.0376434 0.0596176 0.038173 0.0648183 0.0518292 0.07683 0.0557986 0.0847025 0.0464135 0.0903598
36 3 O 4.63043 6.06637 2.79288 -1.2 1 0.0214784 0.0203242 0.0410873 0.0189576 0.0314054 0.0375556 0.0429451 0.0487206 0.0450647 0.0364972 0.0492618 0.0518814 0.0562923 0.0646997 0.0611019 0.073179 0.0647754 0.0690084 0.0674686 0.085634
37 1 Mg -1.12976 4.79031 4.4844 1.2 1 0.0229496 0.0263136 0.0144784 0.0140229 0.0355281 0.0382553 0.048224 0.0482018 0.0448015 0.0441455 0.0540874 0.0603871 0.0748768 0.0718491 0.0622048 0.0678229 0.0711099 0.0934822 0.073127 0.0805913
38 2 Si -2.9517 7.47444 4.4844 2.4 1 0.0242812 0.0134542 0.0176627 0.0259369 0.0302093 0.0422577 0.0615281 0.0294187 0.0543587 0.0565672 0.0520184 0.059247 0.063906 0.0573851 0.0797913 0.072524 0.0523188 0.0878831 0.0550067 0.060871
39 3 O -3.00198 5.86121 4.4844 -1.2 1 0.0157387 0.0240559 0.0269388 0.0279018 0.0321291 0.0308721 0.053732 0.0593094 0.0380273 0.0537697 0.0474251 0.0701368 0.0579453 0.0566153 0.0655968 0.0727642 0.0494712 0.0766709 0.062578 0.0775643
40 3 O 0.666315 8.44846 4.4844 -1.2 1 0.0198882 0.0221765 0.0236942 0.0162203 0.0215621 0.0556938 0.0285347 0.0514746 0.0433917 0.0483726 0.0411835 0.0513791 0.0496539 0.0748102 0.101048 0.0662733 0.0759026 0.0499973 0.071499 0.073243
41 3 O -2.21213 8.18062 3.18632 -1.2 1 0.0136854 0.0136853 0.0165488 0.0152846 0.0159879 0.0374673 0.045902 0.0566591 0.0456233 0.0538283 0.0550299 0.0501853 0.0538574 0.0485296 0.0781835 0.063864 0.0717664 0.0591869 0.0669364 0.0708638
42 3 O -2.25864 8.18062 5.78248 -1.2 1 0.0209791 0.0191934 0.0170842 0.0170669 0.0179154 0.0279645 0.0478451 0.0493702 0.0385485 0.0409257 0.0548765 0.0399886 0.057595 0.0537049 0.0878225 0.0698229 0.0663302 0.065088 0.0690502 0.0740708
43 1 Mg 1.20893 7.12349 2.9896 1.2 1 0.00770425 0.0224501 0.0185916 0.0247725 0.023731 0.0400902 0.0425101 0.0465459 0.0343009 0.0651069 0.0390664 0.0667315 0.0360764 0.0586331 0.0525732 0.0798512 0.0512595 0.0837704 0.0472123 0.0874853
44 1 Mg 4.00982 7.08218 4.4844 1.2 1 0.0196107 0.0160614 0.0267653 0.0366044 0.0325023 0.0357552 0.0443386 0.0376615 0.0454538 0.0514844 0.0586322 0.0548175 0.0716797 0.07381 0.0565474 0.0684868 0.0642403 0.097706 0.0740084 0.0804856
45 2 Si 2.17861 9.14704 4.4844 2.4 1 0.0239349 0.0101752 0.025916 0.0228619 0.0312829 0.0334662 0.0629231 0.0240232 0.0511476 0.0550887 0.0555145 0.0601111 0.0647779 0.0566298 0.0775515 0.0685386 0.0488454 0.095537 0.055873 0.05854
46 3 O 2.18828 10.7603 4.4844 -1.2 1 0.019924 0.0149812 0.00490725 0.018548 0.0273352 0.0228686 0.0445255 0.0590383 0.0405234 0.053666 0.0402958 0.0712986 0.0456976 0.0636622 0.0695358 0.0726705 0.0479565 0.0719434 0.0627123 0.0735055
47 3 O -4.43805 8.17302 4.4844 -1.2 1 0.010385 0.0171796 0.0179909 0.0207482 0.0228912 0.0543378 0.0354881 0.0484246 0.0462886 0.0499666 0.0352764 0.0553285 0.053539 0.0730544 0.0995137 0.0668899 0.0793932 0.0528983 0.0739644 0.0745589
48 3 O 2.89193 8.44087 3.18632 -1.2 1 0.0181911 0.0154014 0.0183816 0.0149277 0.0216897 0.0417876 0.0340383 0.0552621 0.0432308 0.0515501 0.059051 0.0491637 0.0515906 0.053565 0.0802241 0.0622537 0.0701961 0.0591216 0.0655177 0.0743804
49 1 Mg 1.25915 7.12349 0 1.2 1 0.0216958 0.0146614 0.0264412 0.0137974 0.0306421 0.0242722 0.0501122 0.0407535 0.0561785 0.049823 0.0536509 0.0428675 0.0705652 0.0520903 0.069405 0.0706559 0.0647795 0.0707953 0.0807324 0.0586087
50 3 O 2.84547 8.44087 5.78248 -1.2 1 0.0105648 0.0123477 0.0172762 0.0189709 0.0205203 0.0291715 0.0453633 0.0483566 0.0382344 0.0415412 0.058937 0.0420064 0.0583016 0.0638902 0.0871577 0.0636941 0.0707891 0.0619843 0.0673094 0.0765865
51 1 Mg -1.59284 7.16481 1.4948 1.2 1 0.00980349 0.0163248 0.0204708 0.0203706 0.0149899 0.0371943 0.0463907 0.0426486 0.0434679 0.0577466 0.0391489 0.0659638 0.0520169 0.0689208 0.0755361 0.0606069 0.0675793 0.0845077 0.0737787 0.078394
52 2 Si 0.240329 5.09994 1.4948 2.4 1 0.0246517 0.0173395 0.0159559 0.0434182 0.0272086 0.0405903 0.0467197 0.0532524 0.0551284 0.0488315 0.0455592 0.0576364 0.0590708 0.0679653 0.0655091 0.0664459 0.0640529 0.07292 0.0662764 0.0681346
53 3 O 0.234538 3.48671 1.4948 -1.2 1 0.0131214 0.0162943 0.026599 0.0357693 0.0315635 0.0493243 0.0460611 0.0424919 0.0530523 0.0468394 0.0524555 0.0613848 0.0558774 0.0608902 0.0615205 0.0625596 0.0629712 0.0568414 0.076151 0.0737437
54 3 O 6.85564 6.07396 1.4948 -1.2 1 0.0324618 0.019486 0.0344361 0.0275923 0.0372367 0.040335 0.032531 0.0623628 0.0363408 0.0532728 0.053901 0.0538754 0.0553047 0.0732015 0.0696421 0.0772664 0.0667097 0.0722814 0.0531973 0.0849976
55 3 O -0.429565 5.80612 0.196716 -1.2 1 0.0340656 0.0200552 0.0159012 0.0212104 0.0409745 0.0374448 0.053869 0.0450793 0.0460687 0.0562256 0.0397835 0.0419617 0.0534417 0.0601473 0.0599186 0.0682194 0.0703589 0.0610644 0.0652348 0.074131
56 3 O -0.473377 5.80612 2.79288 -1.2 1 0.0247995 0.0210614 0.034016 0.0190047 0.0345202 0.0463917 0.0494896 0.0488042 0.0547418 0.0448836 0.0624035 0.0381669 0.0434409 0.0593658 0.0663562 0.0716662 0.0654743 0.0680559 0.0714463 0.0799547
57 1 Mg 6.40169 9.49799 0 1.2 1 0.0126509 0.0118897 0.0212549 0.0144919 0.0304904 0.0214254 0.0521427 0.0355567 0.0584931 0.0492811 0.0496998 0.0355007 0.067123 0.0527053 0.0709516 0.0673227 0.0654624 0.070514 0.0811271 0.0683556
58 1 Mg 3.64209 14.2057 1.4948 1.2 1 0.0152744 0.00932069 0.018914 0.0181704 0.021155 0.0335927 0.0358536 0.0431285 0.0415005 0.0548875 0.0406676 0.0659762 0.052938 0.0657834 0.0706553 0.0641661 0.0649172 0.0820987 0.0741557 0.0776615
59 2 Si 5.45748 11.5215 1.4948 2.4 1 0.0119274 0.0217558 0.0233726 0.0247849 0.0181199 0.0402446 0.0396932 0.0399703 0.0435484 0.0546601 0.0423536 0.0599653 0.0533763 0.0664921 0.0695301 0.0635286 0.0709546 0.0816727 0.0582844 0.0664693
60 3 O 5.51101 13.1348 1.4948 -1.2 1 0.0242006 0.0133147 0.0222744 0.0294244 0.0199699 0.0433226 0.0443622 0.0591878 0.0364138 0.0499521 0.0427529 0.0672085 0.0529776 0.0534644 0.0655259 0.0601405 0.0705228 0.0579851 0.0693934 0.0720333
61 3 O 1.83851 10.5475 1.4948 -1.2 1 0.0351888 0.0140184 0.0215903 0.0139017 0.0363273 0.0301293 0.0365906 0.0588703 0.039786 0.0481735 0.0497806 0.051471 0.0471342 0.0750583 0.0758155 0.0799932 0.0565203 0.0761163 0.0578837 0.0788031
62 3 O 4.7611 10.8154 0.196716 -1.2 1 0.035782 0.019357 0.019944 0.0181535 0.0267311 0.0440933 0.0482386 0.0373623 0.0388427 0.0490613 0.0369128 0.0410634 0.0609212 0.0607194 0.0649399 0.0715007 0.0751495 0.0657793 0.0728126 0.0675506
63 1 Mg 6.35203 9.49799 2.9896 1.2 1 0.0145004 0.0160909 0.0250421 0.0233109 0.0194383 0.0384623 0.0367392 0.0505426 0.0341725 0.0583551 0.0317669 0.0660427 0.0265977 0.0665646 0.0466302 0.0815481 0.0452802 0.0904617 0.046431 0.0910266
64 3 O 4.71833 10.8154 2.79288 -1.2 1 0.0296648 0.00923327 0.0295358 0.0145739 0.0294356 0.0443561 0.0434402 0.045438 0.0425138 0.036232 0.0532196 0.0417454 0.0522475 0.0573509 0.0727183 0.0670471 0.0716293 0.0606259 0.0712623 0.0798819
65 1 Mg -1.0438 9.53931 4.4844 1.2 1 0.0109071 0.0159752 0.0182171 0.0262441 0.0259928 0.029188 0.0378389 0.0344444 0.0460972 0.0495881 0.0558093 0.0570924 0.0670618 0.0697955 0.0591595 0.0686323 0.0721595 0.0980487 0.0728433 0.0838829
66 2 Si -2.8604 12.2234 4.4844 2.4 1 0.0186849 0.0121801 0.0164973 0.0264597 0.0299708 0.0423972 0.0592376 0.0307749 0.0541571 0.0624104 0.0541167 0.0622469 0.0613483 0.0553165 0.0786118 0.0721333 0.0487811 0.0911701 0.0542852 0.0638497
67 3 O -2.91391 10.6102 4.4844 -1.2 1 0.0195817 0.0143097 0.00720265 0.0226922 0.0291994 0.023948 0.0450858 0.0623466 0.039373 0.0500752 0.036914 0.0706176 0.0463448 0.0581158 0.068228 0.0714874 0.0494471 0.0755963 0.0624602 0.0746588
68 3 O 0.7596 13.1975 4.4844 -1.2 1 0.0226001 0.0255666 0.0182312 0.012201 0.0240371 0.0494573 0.0338092 0.0526144 0.0456738 0.0505663 0.0378343 0.0497653 0.0469587 0.0710317 0.100706 0.0618909 0.0750883 0.0533699 0.0729927 0.0711549
69 3 O -2.12001 12.9296 3.18632 -1.2 1 0.0172059 0.0088521 0.0192472 0.0165587 0.020255 0.0384584 0.0420867 0.0550951 0.0462846 0.0527454 0.0545635 0.0484773 0.0562139 0.0492158 0.0801906 0.0635266 0.0717498 0.0627877 0.0664249 0.0700045
70 3 O -2.16532 12.9296 5.78248 -1.2 1 0.0169811 0.00926312 0.0179283 0.017307 0.0171639 0.0255091 0.0483802 0.047837 0.0381262 0.0391678 0.0538383 0.0411412 0.0578541 0.057806 0.0839612 0.0681281 0.0681868 0.0637508 0.0677263 0.0765548
71 1 Mg 1.29891 11.8725 2.9896 1.2 1 0.00682151 0.0157651 0.0223732 0.0228322 0.0177799 0.0383201 0.0365022 0.0506386 0.035333 0.0599508 0.0341687 0.0590347 0.0259649 0.0676124 0.0487136 0.0821673 0.0483168 0.0895699 0.0474014 0.0861056
72 1 Mg 4.10033 11.8312 4.4844 1.2 1 0.0126809 0.0176804 0.0174804 0.0273555 0.0250713 0.033137 0.0423804 0.0344938 0.0471557 0.0503519 0.0534802 0.054253 0.0684006 0.0699792 0.0542703 0.0702103 0.0702862 0.0995883 0.0747816 0.0810036
73 2 Si 2.27333 13.896 4.4844 2.4 1 0.0230908 0.00690922 0.0276776 0.0267826 0.0262597 0.036304 0.0628692 0.0295282 0.0543429 0.05748 0.0514965 0.061283 0.0610839 0.0565189 0.0748203 0.0680343 0.0461748 0.0984438 0.0543912 0.0569606
74 3 O 2.28634 15.5093 4.4844 -1.2 1 0.0238664 0.0124543 0.0131715 0.0181274 0.0253498 0.0216517 0.0421264 0.0592804 0.0427482 0.052364 0.0417626 0.0722385 0.0468815 0.0641169 0.0693491 0.0728176 0.0465629 0.0691832 0.0640565 0.0749229
75 3 O -4.34533 12.922 4.4844 -1.2 1 0.0207307 0.0189142 0.0214641 0.0159621 0.0217013 0.0499328 0.0377265 0.0477723 0.0450811 0.0545673 0.0376204 0.0529066 0.0486137 0.0723545 0.101149 0.0677038 0.075519 0.0515235 0.0742357 0.0741748
76 3 O 2.98455 13.1899 3.18632 -1.2 1 0.0251913 0.0117121 0.0191452 0.0116775 0.0190598 0.0399343 0.0376185 0.0577429 0.0428587 0.0545544 0.0550214 0.0492636 0.0509918 0.0495201 0.0810948 0.061101 0.0673418 0.0608923 0.0649402 0.0706136
77 1 Mg 1.34779 11.8725 0 1.2 1 0.0217819 0.00925903 0.0219086 0.0147622 0.0287763 0.0226028 0.0517468 0.0347005 0.0575622 0.0509227 0.0496768 0.035404 0.0650885 0.0501148 0.0707608 0.0640927 0.061686 0.0700618 0.0872417 0.0597064
78 3 O 2.93934 13.1899 5.78248 -1.2 1 0.0206472 0.0122332 0.0169748 0.023056 0.0180762 0.0281715 0.0474753 0.0485935 0.0422763 0.0394869 0.0588143 0.0356377 0.0565642 0.0584682 0.0855724 0.0626596 0.0698445 0.062637 0.0646154 0.0791864
79 1 Mg -1.50344 11.9138 1.4948 1.2 1 0.0129153 0.0179211 0.0229178 0.0204658 0.0119228 0.0368647 0.0385548 0.0421862 0.0410189 0.0598707 0.0352328 0.06538 0.0505633 0.0650978 0.0748481 0.0682045 0.0640702 0.0838674 0.0763928 0.07877
80 2 Si 0.326006 9.84894 1.4948 2.4 1 0.0281232 0.0178821 0.0269194 0.0294593 0.0168877 0.0381202 0.0433598 0.0399816 0.0438978 0.0548799 0.0396271 0.0603837 0.0557983 0.0664272 0.0609309 0.0625169 0.0703232 0.0803624 0.0616513 0.069005
81 3 O 0.317364 8.23571 1.4948 -1.2 1 0.0223924 0.0125757 0.0225475 0.0241232 0.020141 0.0452942 0.0428924 0.0499575 0.0346485 0.0542995 0.0440989 0.0656877 0.0573112 0.0597971 0.0678467 0.0660032 0.0718574 0.053327 0.0734812 0.0740867
82 3 O 6.94307 10.823 1.4948 -1.2 1 0.0311927 0.0148241 0.0220097 0.0117959 0.0373055 0.0330871 0.0381387 0.0576349 0.0348526 0.0476158 0.0513171 0.052427 0.0501458 0.0747913 0.0727859 0.0800043 0.0617075 0.0728564 0.0581364 0.0803876
83 3 O -0.343122 10.5551 0.196716 -1.2 1 0.0308738 0.0174515 0.021556 0.0208559 0.0298368 0.0414387 0.0512025 0.0397663 0.0387203 0.05073 0.037059 0.0377653 0.0615341 0.060841 0.0687302 0.0708398 0.0809439 0.0541465 0.0699498 0.0691939
84 3 O -0.385966 10.5551 2.79288 -1.2 1 0.0183669 0.0183379 0.0348265 0.0125787 0.0335747 0.0425805 0.0451993 0.0452093 0.0446467 0.0384046 0.0536791 0.0469964 0.0496228 0.0573191 0.0698549 0.0708759 0.0669502 0.0602876 0.0702494 0.0778071
85 1 Mg 6.49448 14.247 0 1.2 1 0.0225157 0.00981623 0.0187178 0.0171167 0.0286101 0.0231807 0.0478906 0.0330732 0.0593006 0.0482679 0.0512518 0.0373198 0.0625737 0.0526786 0.0711455 0.0653384 0.0645283 0.0706198 0.084643 0.0705598
86 1 Mg 3.74457 18.9547 1.4948 1.2 1 0.0148623 0.0108056 0.0166257 0.0189502 0.0259469 0.0307266 0.0317474 0.0384589 0.0378937 0.0561769 0.0443512 0.0689732 0.0518804 0.0662582 0.0678744 0.0708224 0.0623048 0.0837303 0.0797322 0.0763356
87 2 Si 5.55495 16.2705 1.4948 2.4 1 0.012054 0.020075 0.0220489 0.0269065 0.018479 0.0425181 0.0365323 0.0421511 0.0454621 0.0520308 0.0434589 0.0610232 0.0539986 0.0640458 0.0697648 0.0590401 0.0727508 0.0797567 0.0604187 0.070113
88 3 O 5.6115 17.8838 1.4948 -1.2 1 0.0268903 0.0182631 0.0233857 0.0256354 0.0194094 0.0436485 0.0451867 0.0609839 0.0372563 0.0500414 0.038114 0.0671551 0.0513556 0.0560212 0.064392 0.0575168 0.0656025 0.0613966 0.0634481 0.0690098
89 3 O 1.93416 15.2965 1.4948 -1.2 1 0.0370645 0.0146396 0.0219397 0.0130105 0.035011 0.0304213 0.0362193 0.0589017 0.0430316 0.0468075 0.0486934 0.0503724 0.0465928 0.0740101 0.0808147 0.077845 0.059052 0.0740251 0.0622289 0.0774265
90 3 O 4.85636 15.5644 0.196716 -1.2 1 0.0261127 0.0109859 0.0223016 0.0196038 0.0237097 0.0513589 0.0505035 0.0400636 0.0411279 0.0464838 0.0364827 0.0338189 0.064282 0.0547682 0.0672356 0.0685826 0.0746905 0.0632297 0.0718359 0.0673755
91 1 Mg 6.44662 14.247 2.9896 1.2 1 0.0100901 0.0180368 0.0227309 0.0217274 0.0185528 0.0356518 0.037639 0.0539511 0.0362573 0.0571615 0.0336287 0.0628255 0.024422 0.0675037 0.0449255 0.0769298 0.0448585 0.0918619 0.044055 0.0922228
92 3 O 4.81537 15.5644 2.79288 -1.2 1 0.0150622 0.0101643 0.0249319 0.0107999 0.0297267 0.0368149 0.0465191 0.0492912 0.0437074 0.039807 0.0511321 0.043899 0.0524544 0.0541489 0.0747084 0.0657788 0.0758321 0.0525514 0.0706031 0.077087
93 1 Mg -0.948271 14.2883 4.4844 1.2 1 0.017975 0.0119831 0.0133377 0.0271439 0.0239292 0.0303253 0.0350714 0.0359237 0.0450188 0.048136 0.0572125 0.0565882 0.0652982 0.0696427 0.0586116 0.0720427 0.0715742 0.0941012 0.0737608 0.0804896
94 2 Si -2.75928 16.9724 4.4844 2.4 1 0.0143292 0.0148255 0.0165102 0.0252249 0.0326211 0.0408517 0.0586833 0.0307436 0.0535986 0.0627397 0.0522648 0.0619479 0.0601098 0.053538 0.0800581 0.0715699 0.0494643 0.0930617 0.0576455 0.0634423
95 3 O -2.81617 15.3592 4.4844 -1.2 1 0.0177414 0.0165488 0.0110664 0.0255888 0.0275021 0.0236117 0.0422794 0.0630401 0.0435295 0.0502269 0.0369257 0.0717986 0.0475031 0.0576663 0.0680776 0.0674752 0.0518264 0.0732165 0.0637916 0.0761055
96 3 O 0.862762 17.9465 4.4844 -1.2 1 0.0225287 0.0238488 0.0215975 0.0145482 0.0210825 0.0465675 0.0348902 0.0532765 0.0445508 0.0527996 0.0412458 0.0473638 0.0444821 0.0731279 0.103785 0.0575962 0.0700356 0.0536459 0.072586 0.0696564
97 3 O -2.0185 17.6786 3.18632 -1.2 1 0.0188366 0.010056 0.0180245 0.0165598 0.0195628 0.0397518 0.0426334 0.0560856 0.0443979 0.0519438 0.0541544 0.0494188 0.056337 0.0510271 0.0818268 0.0607618 0.0685162 0.065385 0.0638299 0.0693374
98 3 O -2.06164 17.6786 5.78248 -1.2 1 0.00951999 0.00790044 0.0229055 0.0214575 0.0169346 0.0305303 0.0478853 0.0491291 0.0371148 0.0392939 0.0575885 0.0402094 0.0587846 0.0625901 0.0817537 0.0687692 0.0716586 0.0606476 0.0698323 0.0776941
99 1 Mg 1.39817 16.6215 2.9896 1.2 1 0.00623645 0.0164566 0.0191398 0.0223461 0.0183227 0.035825 0.0370518 0.0527351 0.0365597 0.0593482 0.0357925 0.056659 0.0231871 0.0676059 0.046719 0.0803557 0.0493772 0.0915894 0.0451762 0.0884823
100 1 Mg 4.20062 16.5802 4.4844 1.2 1 0.0147692 0.0108818 0.0148338 0.0254047 0.0291058 0.0281597 0.0422977 0.0345076 0.046965 0.0528726 0.0532841 0.0565689 0.0667687 0.0676547 0.0515012 0.0716396 0.0683618 0.0957397 0.0741956 0.0807015
101 2 Si 2.37796 18.645 4.4844 2.4 1 0.0248378 0.00923776 0.0192729 0.0257183 0.028811 0.0353038 0.0623018 0.0288389 0.0542608 0.0599497 0.0521985 0.0618474 0.0620527 0.0586765 0.0720148 0.0676774 0.0472775 0.0996315 0.0525551 0.0566329
102 3 O 2.39434 20.2583 4.4844 -1.2 1 0.0289747 0.0132987 0.00965568 0.0205047 0.0225021 0.0225112 0.0393499 0.0580512 0.0425276 0.0488034 0.0414939 0.0713394 0.0477918 0.0640385 0.0688224 0.0662718 0.0498049 0.0674608 0.0653478 0.079334
103 3 O -4.24274 17.671 4.4844 -1.2 1 0.0138998 0.0201214 0.0220283 0.019874 0.021868 0.0483629 0.0364233 0.0500758 0.0436628 0.0527392 0.0385555 0.0501199 0.0500569 0.0706639 0.100901 0.061994 0.0771121 0.0542748 0.0778967 0.0715307
104 3 O 3.08659 17.9389 3.18632 -1.2 1 0.0252605 0.0146926 0.0199015 0.0114802 0.0177466 0.0404387 0.0381371 0.0560601 0.0458403 0.049791 0.0571537 0.0472336 0.0518949 0.051103 0.0795635 0.0594243 0.0675808 0.0590197 0.0635289 0.0695729
105 1 Mg 1.44478 16.6215 0 1.2 1 0.00956467 0.0121325 0.0216306 0.0128896 0.0267312 0.0312811 0.0479063 0.0352519 0.0507118 0.0504063 0.0518406 0.0400035 0.0587342 0.0496458 0.0698063 0.0661817 0.0600136 0.0679327 0.0884306 0.0640059
106 3 O 3.0436 17.9389 5.78248 -1.2 1 0.0171404 0.0120401 0.0212257 0.020534 0.016637 0.0250278 0.0478988 0.0471133 0.0394989 0.0406353 0.0581367 0.0378512 0.0536909 0.060216 0.0863939 0.0647552 0.0690832 0.0621675 0.0642802 0.0785895
107 1 Mg -1.40524 16.6628 1.4948 1.2 1 0.0116019 0.0125707 0.0256703 0.0177567 0.0172731 0.0344965 0.0359712 0.0426876 0.0411403 0.0603335 0.0401574 0.0624835 0.0549449 0.0645459 0.0741395 0.0692018 0.0645009 0.0780123 0.0781022 0.0758433
108 2 Si 0.420358 14.5979 1.4948 2.4 1 0.0209584 0.0196561 0.0272577 0.0268657 0.0182032 0.0393732 0.0395218 0.0398992 0.0450274 0.0557447 0.0440836 0.0603933 0.0578722 0.0636878 0.0676596 0.059738 0.0723117 0.0757916 0.0626388 0.0713785
109 3 O 0.408732 12.9847 1.4948 -1.2 1 0.0222674 0.0155085 0.02298 0.0256099 0.0168968 0.0471801 0.0435873 0.0539218 0.0359081 0.052679 0.0422379 0.0691976 0.0532575 0.0570666 0.0663453 0.0635458 0.071317 0.0550496 0.0681754 0.0716139
110 3 O 7.03923 15.572 1.4948 -1.2 1 0.0293203 0.0168355 0.0217324 0.0127833 0.0360908 0.033502 0.0368787 0.0561496 0.0384632 0.0445785 0.0511542 0.0531875 0.0478575 0.0741148 0.0781693 0.0782833 0.0640312 0.0696134 0.0624329 0.0772411
111 3 O -0.248332 15.3041 0.196716 -1.2 1 0.0219534 0.0121303 0.0221801 0.0192675 0.0243199 0.0464328 0.0501473 0.0435857 0.0401653 0.0468262 0.0370882 0.0318222 0.0618595 0.0544997 0.0702092 0.0650997 0.0821647 0.0505998 0.0697847 0.0714317
112 3 O -0.289436 15.3041 2.79288 -1.2 1 0.0104475 0.01644 0.0315086 0.0112957 0.0299778 0.0378616 0.0448712 0.0457162 0.0453347 0.0390011 0.0549832 0.0470729 0.05168 0.054813 0.0724787 0.0693178 0.0714491 0.0555556 0.0703418 0.0748084
113 1 Mg 6.59566 18.996 0 1.2 1 0.0137864 0.0117801 0.0199608 0.0142925 0.0257633 0.0317398 0.0431175 0.0332264 0.0538795 0.049296 0.0537135 0.0390301 0.0521737 0.0531349 0.0721733 0.0648871 0.0639154 0.0649422 0.0857988 0.0709991
114 1 Mg 3.85574 23.7037 1.4948 1.2 1 0.0107246 0.012679 0.0212037 0.0140046 0.0225177 0.0288727 0.031046 0.0373585 0.0391311 0.060106 0.0468728 0.0627309 0.0498797 0.0667907 0.0647169 0.0723043 0.066396 0.0797814 0.079659 0.0759209
115 2 Si 5.66125 21.0195 1.4948 2.4 1 0.0086117 0.0228629 0.0247154 0.0274039 0.0199658 0.0457482 0.0338112 0.0434223 0.0473517 0.0539707 0.0443214 0.0619671 0.0556341 0.0596212 0.0708161 0.060618 0.0733912 0.0774692 0.0647537 0.0753383
116 3 O 5.72074 22.6328 1.4948 -1.2 1 0.028228 0.0191834 0.0182814 0.0227335 0.0191462 0.044646 0.0455946 0.0618548 0.0383959 0.0520934 0.0331488 0.0695724 0.0495233 0.0536831 0.0680323 0.0554684 0.0651445 0.0677883 0.0565529 0.0711612
117 3 O 2.03867 20.0455 1.4948 -1.2 1 0.0300063 0.016679 0.0268496 0.0160468 0.0342615 0.0300879 0.035927 0.0551138 0.043844 0.0424273 0.0506765 0.0504691 0.0481588 0.0740037 0.0848149 0.0727868 0.0619558 0.0680379 0.0635335 0.0737702
118 3 O 4.96004 20.3134 0.196716 -1.2 1 0.0242753 0.0104253 0.0244288 0.0198766 0.0223097 0.0456419 0.0451833 0.0479396 0.040451 0.0420126 0.0406367 0.0352128 0.0653388 0.0477397 0.0698796 0.073763 0.0703319 0.0583084 0.0709351 0.0715016
119 1 Mg 6.55057 18.996 2.9896 1.2 1 0.0103946 0.01646 0.020038 0.0237114 0.0217578 0.0352588 0.0369798 0.0544433 0.0350567 0.0590238 0.0349363 0.0630377 0.0216031 0.0686221 0.045978 0.0747449 0.0465166 0.094236 0.0438012 0.0943141
120 3 O 4.92172 20.3134 2.79288 -1.2 1 0.0132263 0.00993417 0.0294567 0.0164297 0.0287551 0.0409602 0.045892 0.0464099 0.0470027 0.0432796 0.0522082 0.0392443 0.0525894 0.0531847 0.0767481 0.0671523 0.0752695 0.0496869 0.0728056 0.0726736
121 1 Mg -0.84282 19.0373 4.4844 1.2 1 0.0147551 0.0128989 0.0143706 0.0285146 0.0233336 0.0273658 0.037754 0.0321236 0.0456195 0.0499445 0.0604169 0.0567235 0.0670369 0.0696476 0.0595022 0.0724107 0.0707635 0.0940343 0.0723318 0.0822096
122 2 Si -2.64823 21.7214 4.4844 2.4 1 0.0146747 0.013648 0.0178696 0.0256339 0.0295024 0.0416356 0.0558322 0.0315952 0.0536014 0.0623652 0.0525819 0.064396 0.0594741 0.0561925 0.0772043 0.0714329 0.0468658 0.0944949 0.0538209 0.0631177
123 3 O -2.70847 20.1082 4.4844 -1.2 1 0.0133279 0.020127 0.0137953 0.0267344 0.0245252 0.023986 0.0389539 0.0633317 0.0438801 0.0475566 0.0395491 0.0703056 0.0520026 0.0585017 0.0687952 0.063813 0.0529156 0.0721079 0.0669319 0.0759672
124 3 O 0.97581 22.6955 4.4844 -1.2 1 0.0205548 0.0256109 0.0203401 0.0169882 0.0196698 0.0434697 0.0317673 0.0498274 0.0441274 0.0541806 0.0415288 0.0463047 0.047245 0.072621 0.106825 0.0544337 0.0667201 0.0575443 0.0726271 0.0674424
125 3 O -1.9076 22.4276 3.18632 -1.2 1 0.0250168 0.0110665 0.0205075 0.017082 0.0139649 0.0358789 0.0436889 0.0536951 0.038062 0.0497474 0.0539655 0.0502328 0.0557298 0.0477569 0.0813402 0.05757 0.0692981 0.0659673 0.0643819 0.0656782
126 3 O -1.9475 22.4276 5.78248 -1.2 1 0.0120733 0.0140775 0.0252319 0.024101 0.0145777 0.0251822 0.0499645 0.0423634 0.039834 0.0397244 0.0574538 0.0389635 0.0547043 0.0602037 0.0822344 0.0680949 0.0675551 0.0625052 0.0678669 0.0747482