ITEM: TIMESTEP
16100
ITEM: NUMBER OF ATOMS
10500
ITEM: BOX BOUNDS xy xz yz pp pp pp
0	15.2977	5.09925
0	118.725	0
0	89.688	0
ITEM: ATOMS id type element xu yu zu q Q_1 Q_2 Q_3 Q_4 Q_5 Q_6 Q_7 Q_8 Q_9 Q_10 Q_11 Q_12 Q_13 Q_14 Q_15 Q_16 Q_17 Q_18 Q_19 Q_20 Q_21
1 1 Mg 6.2404 -6.37941e-06 0 1.2 1 0.0132981 0.0409503 0.0297239 0.0359626 0.0331582 0.0412526 0.0355188 0.068673 0.0387982 0.0711623 0.03401 0.0591623 0.0461972 0.0681942 0.050025 0.092069 0.0515924 0.0839508 0.050513 0.102574
2 1 Mg 3.46349 4.70768 1.4948 1.2 1 0.0125008 0.0162964 0.0249909 0.0235191 0.0198449 0.0414818 0.0434539 0.0414594 0.0478358 0.0558569 0.0419922 0.069599 0.057952 0.0704856 0.0730397 0.0642553 0.0669285 0.0850532 0.0731805 0.0826429
3 2 Si 5.2885 2.02354 1.4948 2.4 1 0.0218967 0.0224027 0.0366509 0.0256695 0.030854 0.0365846 0.0534365 0.0336127 0.0443095 0.0517889 0.0559138 0.0619413 0.0559198 0.0636079 0.0680963 0.0792044 0.0708414 0.0648873 0.063473 0.0733755
4 3 O 5.33628 3.63678 1.4948 -1.2 1 0.00936584 0.0140945 0.0267857 0.025849 0.0183478 0.0390764 0.0419734 0.060238 0.0356947 0.0402234 0.0546143 0.0510323 0.0677469 0.0575377 0.0587394 0.0649732 0.0602266 0.0614207 0.071404 0.0743742
5 3 O 1.67294 1.04952 1.4948 -1.2 1 0.0163725 0.021973 0.0230816 0.0361226 0.0298022 0.0388183 0.0340352 0.0610731 0.0348472 0.05957 0.0441373 0.0508953 0.0719149 0.0591406 0.076435 0.0693499 0.06278 0.0643343 0.0791392 0.0608512
6 3 O 4.59532 1.31737 0.196716 -1.2 1 0.0259101 0.0221765 0.0575622 0.0252309 0.0334171 0.0486562 0.038554 0.0473164 0.0339483 0.0393547 0.0386841 0.0506247 0.0542935 0.0570098 0.0636426 0.0700236 0.0619451 0.0714589 0.0592719 0.0706045
7 1 Mg 6.18956 -6.37941e-06 2.9896 1.2 1 0.019698 0.0303208 0.016126 0.0212617 0.0336566 0.0467464 0.0504516 0.0443931 0.0485073 0.0444456 0.0408566 0.0556483 0.0392528 0.0558619 0.058545 0.0796905 0.0566373 0.0686113 0.0603141 0.0703835
8 3 O 4.55118 1.31737 2.79288 -1.2 1 0.0215273 0.0251176 0.0385294 0.0151681 0.0282334 0.0431724 0.0444438 0.0480913 0.044022 0.0530784 0.0542397 0.049684 0.048872 0.0667707 0.0535847 0.0689946 0.0653384 0.0655816 0.0657268 0.0700999
9 1 Mg -1.20682 0.0413099 4.4844 1.2 1 0.0131594 0.0241923 0.0213545 0.0269245 0.0364453 0.0408762 0.0303324 0.0534212 0.0533788 0.0393316 0.0483281 0.0612472 0.0665515 0.0576689 0.0758644 0.0620114 0.0829949 0.0754169 0.0659722 0.0516177
10 2 Si -3.0337 2.72544 4.4844 2.4 1 0.0327962 0.0176871 0.023282 0.0148267 0.0338655 0.0394386 0.0596379 0.0353558 0.0642267 0.0534648 0.0486038 0.0618276 0.0589195 0.0749568 0.0547052 0.0604194 0.0705415 0.0795678 0.070443 0.0608676
11 3 O -3.08099 1.11221 4.4844 -1.2 1 0.0125199 0.0242349 0.0282503 0.0239475 0.0382084 0.0238117 0.0513842 0.0445826 0.0406756 0.0406175 0.0410595 0.0714345 0.0522646 0.052686 0.0551944 0.0668297 0.0564804 0.0799088 0.0753763 0.0762782
12 3 O 0.582463 3.69946 4.4844 -1.2 1 0.00477929 0.0123782 0.030703 0.0282989 0.026494 0.0644157 0.0307247 0.0552706 0.0437554 0.0409474 0.0525846 0.0574681 0.0620385 0.0705242 0.099538 0.0675755 0.0802927 0.0392971 0.0737623 0.067589
13 3 O -2.29524 3.43162 3.18632 -1.2 1 0.0118967 0.0198839 0.0263853 0.0311827 0.0195593 0.0503659 0.0515976 0.0496874 0.0414124 0.0527035 0.0591018 0.054308 0.0411908 0.0514014 0.058879 0.0654032 0.0666499 0.0620138 0.0633527 0.0728314
14 3 O -2.34216 3.43162 5.78248 -1.2 1 0.0220857 0.0142036 0.0196461 0.0288462 0.0265485 0.0409091 0.0522652 0.0463499 0.0445257 0.0566378 0.057339 0.0483862 0.0574053 0.0501958 0.078648 0.0718362 0.0622312 0.0709225 0.0727762 0.0694235
15 1 Mg 1.12778 2.37449 2.9896 1.2 1 0.0160132 0.040628 0.0159531 0.0240676 0.0249534 0.0430925 0.0406529 0.0511826 0.0372192 0.061219 0.0374905 0.059175 0.0402195 0.0671486 0.0635829 0.0698397 0.0674129 0.0825179 0.046344 0.0863381
16 1 Mg 3.92855 2.33318 4.4844 1.2 1 0.0274499 0.0162185 0.0242837 0.0295516 0.044518 0.0252737 0.0377757 0.0378878 0.0478267 0.0678275 0.0509177 0.0601659 0.0505379 0.0602194 0.0548002 0.0738382 0.0629809 0.0943824 0.0741408 0.0846045
17 2 Si 2.09341 4.39804 4.4844 2.4 1 0.0144584 0.0208763 0.0328719 0.0144823 0.0404874 0.0285825 0.0632784 0.0218189 0.0446825 0.0480573 0.061713 0.0608409 0.0663113 0.0588941 0.0715171 0.0764553 0.0710841 0.0818053 0.0512865 0.0663374
18 3 O 2.09991 6.01128 4.4844 -1.2 1 0.0110145 0.0117953 0.0169079 0.0182032 0.0337796 0.0234601 0.0508853 0.0512423 0.046668 0.0465775 0.0479462 0.0657648 0.0460513 0.0608782 0.0654993 0.0724111 0.0470999 0.0799038 0.0603 0.071229
19 3 O -4.52137 3.42402 4.4844 -1.2 1 0.0170659 0.0286908 0.0333754 0.0219647 0.0252764 0.054394 0.0354928 0.0517364 0.0545405 0.0549549 0.0309887 0.0569153 0.0529082 0.0571707 0.089122 0.0730098 0.0750346 0.0597672 0.0759393 0.0552953
20 3 O 2.80834 3.69187 3.18632 -1.2 1 0.0111237 0.0204453 0.0209883 0.0263489 0.0200574 0.0382118 0.0348253 0.048828 0.0442947 0.0599452 0.0665494 0.0525654 0.0420777 0.0627956 0.0709615 0.0712463 0.0611243 0.0587749 0.0701673 0.0698433
21 1 Mg 1.17857 2.37449 0 1.2 1 0.0138328 0.0345169 0.0282143 0.0287789 0.0386753 0.0396132 0.0454091 0.0599862 0.0369383 0.0489372 0.0510054 0.0418548 0.041626 0.0680553 0.0553717 0.0649412 0.0630718 0.0808 0.059097 0.0731933
22 3 O 2.76143 3.69187 5.78248 -1.2 1 0.00905902 0.0224344 0.0168387 0.017606 0.0162892 0.0335608 0.0379193 0.0468306 0.0334594 0.046985 0.0591092 0.0416977 0.0558689 0.071967 0.0756173 0.0711558 0.0712691 0.060978 0.0703982 0.0734248
23 1 Mg -1.67381 2.41581 1.4948 1.2 1 0.0125217 0.0136696 0.0366212 0.0374204 0.0315512 0.0452535 0.0593519 0.0408025 0.0516759 0.0396531 0.0465435 0.0580788 0.0552321 0.0626063 0.060057 0.0637256 0.0834887 0.0770148 0.066562 0.0737804
24 2 Si 0.16286 0.350945 1.4948 2.4 1 0.0160095 0.0359264 0.0278477 0.0281593 0.0339317 0.0354242 0.0555821 0.0483562 0.0526583 0.0494069 0.0397545 0.0557297 0.0734246 0.0706856 0.0595162 0.0744461 0.0723457 0.0648036 0.0728886 0.0657479
25 3 O 0.15972 -1.26229 1.4948 -1.2 1 0.00922744 0.0153844 0.0397533 0.0212597 0.0375205 0.0357059 0.0454626 0.056683 0.046799 0.0512973 0.0555347 0.0554998 0.0631863 0.0666534 0.0495068 0.0595319 0.0694037 0.0664181 0.0622124 0.0740376
26 3 O 6.77654 1.32496 1.4948 -1.2 1 0.0115037 0.0276454 0.0265401 0.0275665 0.0371581 0.0543265 0.0342804 0.0648466 0.0475663 0.0465566 0.0442715 0.0520948 0.0529543 0.0599871 0.0685839 0.0710507 0.0842285 0.0631815 0.0596509 0.0744097
27 3 O -0.508028 1.05712 0.196716 -1.2 1 0.0269213 0.0160526 0.0321062 0.0187846 0.0294517 0.0547624 0.0445168 0.0456285 0.046148 0.0488837 0.0497562 0.04751 0.050178 0.0636108 0.0559774 0.0644519 0.0635216 0.0599373 0.0724188 0.0714976
28 3 O -0.552171 1.05712 2.79288 -1.2 1 0.0333829 0.0259077 0.0326642 0.0317101 0.0205445 0.044693 0.0434745 0.046653 0.0456737 0.0344815 0.0491289 0.0495799 0.0610798 0.0624504 0.0651917 0.0765167 0.0706145 0.050799 0.0703291 0.0722031
29 1 Mg 6.31713 4.74899 0 1.2 1 0.0272641 0.0292435 0.0302351 0.0366427 0.0326437 0.0264918 0.0418983 0.0558565 0.0585844 0.0493895 0.0510723 0.0384079 0.0593957 0.0616983 0.0656696 0.0638466 0.0657213 0.073742 0.069232 0.070705
30 1 Mg 3.54847 9.45668 1.4948 1.2 1 0.0218047 0.014417 0.017996 0.0205866 0.0183171 0.0383333 0.0380376 0.0419939 0.0451009 0.0556884 0.0387495 0.0686547 0.0521817 0.0654032 0.0715772 0.0630361 0.0670868 0.0874905 0.073931 0.0789391
31 2 Si 5.36879 6.77254 1.4948 2.4 1 0.0260139 0.0295182 0.0213342 0.0263465 0.0246351 0.0348941 0.0447423 0.0345453 0.046096 0.0585187 0.0426071 0.0574927 0.0524922 0.0675334 0.0654489 0.0749989 0.0669726 0.0783183 0.0563708 0.0684198
32 3 O 5.41937 8.38578 1.4948 -1.2 1 0.0214882 0.0113351 0.0233457 0.0297468 0.0174083 0.0430814 0.0441882 0.0574224 0.0365159 0.0510194 0.0471953 0.0641855 0.0547904 0.0537686 0.0658364 0.060778 0.0727472 0.0561383 0.073117 0.0733339
33 3 O 1.75158 5.79852 1.4948 -1.2 1 0.0284386 0.0123492 0.0223473 0.026664 0.0441222 0.0308652 0.039149 0.0569906 0.040997 0.0525838 0.0495417 0.0502222 0.0472833 0.0711761 0.0787415 0.078552 0.0603574 0.0750394 0.0598981 0.0768086
34 3 O 4.67421 6.06637 0.196716 -1.2 1 0.0145933 0.0264852 0.0316183 0.0244354 0.0319671 0.0377926 0.0346282 0.0321727 0.044747 0.0561782 0.0392578 0.0442526 0.06668 0.0563221 0.0676726 0.0712403 0.0715711 0.0656732 0.063303 0.0686625
35 1 Mg 6.26654 4.74899 2.9896 1.2 1 0.0219914 0.0240456 0.0235864 0.0434638 0.0257569 0.0444174 0.0483277 0.0480372 0.0361642 0.0621485 0.036875 0.0604396 0.0383133 0.0640109 0.0523596 0.0774027 0.0557379 0.0843527 0.0467182 0.0900645
36 3 O 4.63043 6.06637 2.79288 -1.2 1 0.0160342 0.0195945 0.0427713 0.0205098 0.0325766 0.0359361 0.0425965 0.048467 0.0452888 0.0372293 0.0492824 0.0518404 0.0579756 0.0651103 0.06261 0.0734349 0.0667329 0.0672989 0.0684459 0.0841492
37 1 Mg -1.12976 4.79031 4.4844 1.2 1 0.0224444 0.0257621 0.0148129 0.014551 0.0354034 0.0379874 0.0478065 0.0484545 0.0445526 0.0441597 0.0552324 0.060757 0.0750344 0.0732542 0.0614911 0.0674349 0.0717927 0.0946578 0.0712794 0.0786734
38 2 Si -2.9517 7.47444 4.4844 2.4 1 0.0180045 0.0174501 0.0191306 0.0253998 0.0318599 0.0432903 0.0618906 0.0282671 0.0538637 0.0581018 0.0510067 0.0581097 0.0610488 0.0566512 0.0786181 0.0706898 0.0534199 0.0896496 0.056439 0.0606841
39 3 O -3.00198 5.86121 4.4844 -1.2 1 0.0171029 0.0224014 0.0274791 0.025945 0.032025 0.0284962 0.0537428 0.0580575 0.0377879 0.054338 0.0479611 0.0704216 0.059907 0.0541149 0.0643399 0.0703852 0.0502694 0.0757648 0.0622578 0.0769037
40 3 O 0.666315 8.44846 4.4844 -1.2 1 0.0204199 0.0225204 0.022907 0.0160727 0.0219401 0.0552216 0.0298096 0.0516069 0.0421974 0.0472672 0.0418788 0.0512553 0.0518983 0.0730612 0.100685 0.0660336 0.0780157 0.0519034 0.0721409 0.0708316
41 3 O -2.21213 8.18062 3.18632 -1.2 1 0.0135628 0.0133528 0.017155 0.016007 0.016305 0.0373058 0.0463635 0.0562006 0.0460338 0.0537698 0.0545527 0.0510083 0.0539738 0.0485264 0.0784583 0.0623592 0.071563 0.05874 0.0670365 0.0709008
42 3 O -2.25864 8.18062 5.78248 -1.2 1 0.0156623 0.0139551 0.0170786 0.0157098 0.0182478 0.0273252 0.047055 0.0508824 0.038407 0.0416598 0.0535505 0.0397262 0.0574531 0.0578314 0.0813882 0.0684836 0.0665591 0.0650519 0.0666398 0.0763608
43 1 Mg 1.20893 7.12349 2.9896 1.2 1 0.00750088 0.0230042 0.0178943 0.0245629 0.0240532 0.0394689 0.0429855 0.0461338 0.0342174 0.0655357 0.0385103 0.0669972 0.035832 0.0587295 0.0519105 0.0805125 0.0516052 0.0844683 0.0477831 0.0875588
44 1 Mg 4.00982 7.08218 4.4844 1.2 1 0.0220555 0.0144065 0.0228724 0.0350877 0.0312346 0.0354913 0.0452982 0.0358242 0.0470389 0.0518429 0.0572002 0.0563174 0.0704523 0.0736535 0.0571518 0.067153 0.064196 0.0981811 0.0748865 0.0804942
45 2 Si 2.17861 9.14704 4.4844 2.4 1 0.0295305 0.0132923 0.0209935 0.0202007 0.0314004 0.03192 0.063519 0.0240385 0.0501264 0.0555943 0.0562548 0.059205 0.064689 0.0573498 0.0810134 0.0693565 0.048974 0.0917324 0.0535141 0.0591235
46 3 O 2.18828 10.7603 4.4844 -1.2 1 0.020749 0.011086 0.0038739 0.0180337 0.0249919 0.0226909 0.0434348 0.0594039 0.0399515 0.0512277 0.0414575 0.0726084 0.0462947 0.0633969 0.0699754 0.0705333 0.0469403 0.0722858 0.064432 0.0724805
47 3 O -4.43805 8.17302 4.4844 -1.2 1 0.0157946 0.0177792 0.0179367 0.0172494 0.0223056 0.0560395 0.0365329 0.048801 0.0409423 0.0487169 0.0380095 0.052739 0.0536266 0.0725116 0.0984615 0.0652554 0.0809777 0.053807 0.0760097 0.0737838
48 3 O 2.89193 8.44087 3.18632 -1.2 1 0.0178489 0.0162238 0.0177789 0.0142238 0.0208799 0.0416873 0.0338372 0.055923 0.0434785 0.0508612 0.0588528 0.0490627 0.0515062 0.0529115 0.080276 0.0630883 0.0702827 0.0590161 0.0650045 0.0732041
49 1 Mg 1.25915 7.12349 0 1.2 1 0.0188056 0.0174978 0.0280871 0.0148523 0.0320381 0.0246202 0.050256 0.0398959 0.0561714 0.0496734 0.0538175 0.0427789 0.0712122 0.0515024 0.0685585 0.0705076 0.0639932 0.0708931 0.0794893 0.0585907
50 3 O 2.84547 8.44087 5.78248 -1.2 1 0.013891 0.0153843 0.0143743 0.0191904 0.0187759 0.0294659 0.0438747 0.0488705 0.0384407 0.0403322 0.0599864 0.0434824 0.0563471 0.0590631 0.0876161 0.062908 0.0703897 0.0632595 0.0652777 0.0766506
51 1 Mg -1.59284 7.16481 1.4948 1.2 1 0.00977436 0.0164573 0.0204425 0.0204758 0.0148863 0.0372645 0.0461395 0.0428013 0.0432884 0.0577871 0.0387329 0.0654036 0.0520309 0.0692184 0.0758385 0.0602513 0.0681423 0.0846969 0.0731973 0.078441
52 2 Si 0.240329 5.09994 1.4948 2.4 1 0.024581 0.0171681 0.0160909 0.0433891 0.0273768 0.04044 0.0469029 0.0533201 0.0550414 0.0490588 0.0454189 0.0573863 0.0589891 0.0679686 0.065494 0.0667059 0.0636673 0.0725782 0.0663534 0.0676065
53 3 O 0.234538 3.48671 1.4948 -1.2 1 0.0131546 0.0166111 0.0265968 0.0360086 0.0313323 0.0489779 0.0458416 0.0423979 0.0526956 0.0470988 0.0519798 0.0615317 0.0560197 0.0608457 0.0618499 0.0632203 0.0621668 0.057363 0.0757396 0.0744497
54 3 O 6.85564 6.07396 1.4948 -1.2 1 0.0324494 0.0193808 0.0344684 0.0276809 0.0372255 0.0403957 0.0323887 0.0624346 0.0366135 0.0532162 0.0538886 0.0533913 0.0550685 0.0733972 0.0698156 0.0770071 0.066501 0.0723958 0.0531837 0.0849382
55 3 O -0.429565 5.80612 0.196716 -1.2 1 0.0339885 0.0199742 0.0159 0.0212649 0.0409433 0.0374872 0.0539025 0.0451743 0.0460003 0.0563969 0.039749 0.0419128 0.0533142 0.0602263 0.0598883 0.0681701 0.0704359 0.0609735 0.0653683 0.0743009
56 3 O -0.473377 5.80612 2.79288 -1.2 1 0.0247388 0.0217505 0.0341479 0.0185531 0.0343219 0.0467313 0.0492325 0.0485356 0.0546883 0.0458739 0.0620827 0.0385155 0.0434331 0.0590754 0.0665798 0.0715743 0.0660405 0.0690251 0.0722194 0.0794124
57 1 Mg 6.40169 9.49799 0 1.2 1 0.0127124 0.0116486 0.0212714 0.0141229 0.0305064 0.0212785 0.0523377 0.0356201 0.0587393 0.0492604 0.0498526 0.0356245 0.0669823 0.0524521 0.0712718 0.0672101 0.0653885 0.0705432 0.0807604 0.0686185
58 1 Mg 3.64209 14.2057 1.4948 1.2 1 0.0105429 0.011009 0.0180887 0.016389 0.0215657 0.0336812 0.0360549 0.0434611 0.0414222 0.055445 0.0394682 0.0667602 0.0532131 0.0661365 0.0736339 0.0634637 0.0645863 0.082316 0.0743745 0.0783769
59 2 Si 5.45748 11.5215 1.4948 2.4 1 0.0107029 0.0233818 0.0214932 0.0250959 0.0175918 0.0404371 0.0400893 0.0386713 0.0444915 0.0560909 0.0425864 0.0599305 0.0524065 0.0670031 0.0691698 0.0644941 0.0710654 0.0807483 0.0584858 0.0663308
60 3 O 5.51101 13.1348 1.4948 -1.2 1 0.0253922 0.0154127 0.022308 0.0306246 0.0177672 0.0444818 0.0434319 0.05869 0.0358283 0.049027 0.0443033 0.0661789 0.0533572 0.0522604 0.0640748 0.0584856 0.0708825 0.0576285 0.0688955 0.0726905
61 3 O 1.83851 10.5475 1.4948 -1.2 1 0.0352033 0.0141337 0.0216768 0.0139386 0.0363713 0.030144 0.0365476 0.0588853 0.0397257 0.048282 0.0498446 0.051495 0.0470964 0.075047 0.075643 0.0798535 0.0566159 0.0760648 0.0577889 0.0789571
62 3 O 4.7611 10.8154 0.196716 -1.2 1 0.0357498 0.0193243 0.0199187 0.0181556 0.0266856 0.0441933 0.0483437 0.037464 0.0388345 0.0492213 0.0369059 0.0409985 0.0607264 0.0608218 0.0650023 0.071505 0.0754306 0.0656495 0.0728837 0.0678148
63 1 Mg 6.35203 9.49799 2.9896 1.2 1 0.0165244 0.0195641 0.0254156 0.0201951 0.0207482 0.0366196 0.0382371 0.0525471 0.0336353 0.0595242 0.0310464 0.0642764 0.0268312 0.0643902 0.0474472 0.082346 0.0456563 0.0889404 0.044776 0.089146
64 3 O 4.71833 10.8154 2.79288 -1.2 1 0.0253949 0.010867 0.0298986 0.0139354 0.0295272 0.0436313 0.0433495 0.0457936 0.0428789 0.0369751 0.0535638 0.0408804 0.0531299 0.0579163 0.0731009 0.068349 0.0720634 0.0608029 0.0713162 0.0794493
65 1 Mg -1.0438 9.53931 4.4844 1.2 1 0.0127778 0.0181077 0.0142287 0.0229384 0.0262774 0.0305885 0.0369046 0.0360724 0.0458561 0.0503092 0.0567454 0.0570168 0.0660505 0.0722704 0.0599687 0.0710848 0.0723632 0.0951709 0.0710826 0.0840875
66 2 Si -2.8604 12.2234 4.4844 2.4 1 0.0182866 0.0115829 0.0162149 0.0270005 0.0308692 0.0418359 0.0590324 0.0306365 0.0538361 0.062336 0.055498 0.0633033 0.0599208 0.0548068 0.0784915 0.073398 0.0507801 0.0927701 0.0549701 0.0622684
67 3 O -2.91391 10.6102 4.4844 -1.2 1 0.0215557 0.00769156 0.00864346 0.0230821 0.0262409 0.0254672 0.0434508 0.0651015 0.0412776 0.0481427 0.0348119 0.0704249 0.046455 0.0573895 0.0672085 0.0695144 0.0524556 0.073048 0.0635231 0.0748496
68 3 O 0.7596 13.1975 4.4844 -1.2 1 0.0181674 0.0235922 0.0190658 0.0136847 0.0231814 0.0489427 0.0345251 0.0509422 0.0466717 0.0511693 0.0373984 0.0505502 0.0459418 0.071807 0.100833 0.0621656 0.0785458 0.0515323 0.0734441 0.0721867
69 3 O -2.12001 12.9296 3.18632 -1.2 1 0.0209225 0.0118096 0.0187939 0.0171053 0.0213036 0.0369795 0.0418929 0.0532501 0.0470336 0.0524555 0.0531033 0.0506556 0.0547201 0.0486832 0.080053 0.0644256 0.0716379 0.0620572 0.0663994 0.070341
70 3 O -2.16532 12.9296 5.78248 -1.2 1 0.0182288 0.0120028 0.0179831 0.0181688 0.0181978 0.0270838 0.0463581 0.0499621 0.0379394 0.0399966 0.0552454 0.0406818 0.0580915 0.0595233 0.0859242 0.0694502 0.0679751 0.065435 0.0687676 0.0766185
71 1 Mg 1.29891 11.8725 2.9896 1.2 1 0.00820175 0.0159583 0.0219713 0.0244188 0.0171419 0.038797 0.0368742 0.0494325 0.0360466 0.06031 0.0342177 0.0598122 0.0243683 0.0670019 0.0490437 0.0827094 0.0495235 0.0887817 0.0480163 0.0875007
72 1 Mg 4.10033 11.8312 4.4844 1.2 1 0.0122421 0.0200526 0.0190637 0.0280612 0.0291218 0.0325656 0.0424351 0.0342654 0.0462513 0.0504041 0.0545726 0.0532361 0.0676462 0.0715696 0.0533207 0.0712301 0.0717019 0.0991571 0.0741518 0.0808204
73 2 Si 2.27333 13.896 4.4844 2.4 1 0.0284351 0.00735922 0.0218401 0.0266444 0.0224387 0.037449 0.0627574 0.0296207 0.0532546 0.0557904 0.0536725 0.0603699 0.0628009 0.0566903 0.0752642 0.0690215 0.0472589 0.0973837 0.0552691 0.0563658
74 3 O 2.28634 15.5093 4.4844 -1.2 1 0.0252603 0.0152496 0.00788525 0.0221273 0.022562 0.022414 0.0417063 0.0592581 0.0421604 0.0517047 0.0393179 0.0697779 0.0462875 0.0637507 0.0697314 0.0703684 0.0495529 0.0693598 0.0663327 0.0752108
75 3 O -4.34533 12.922 4.4844 -1.2 1 0.0205663 0.0203248 0.0199504 0.0154008 0.0212455 0.0538462 0.0338621 0.0490726 0.0432454 0.0523491 0.0407261 0.0534627 0.0499798 0.0718824 0.100652 0.0662829 0.0788144 0.0526048 0.0751849 0.0741779
76 3 O 2.98455 13.1899 3.18632 -1.2 1 0.0271229 0.0140138 0.0185573 0.0106819 0.0202285 0.0403763 0.0383958 0.0566279 0.0460982 0.0525331 0.0556253 0.0497934 0.0501307 0.0497271 0.0805541 0.0633295 0.0661341 0.0606281 0.0638306 0.0717941
77 1 Mg 1.34779 11.8725 0 1.2 1 0.0217201 0.00933804 0.0219565 0.0150088 0.0287144 0.0228671 0.0514725 0.0346883 0.0574275 0.0510303 0.0496518 0.0352786 0.0651057 0.0499597 0.0703644 0.0643032 0.0617329 0.0699797 0.0874981 0.0596194
78 3 O 2.93934 13.1899 5.78248 -1.2 1 0.0142161 0.0130692 0.0192834 0.0241159 0.0199791 0.0251261 0.0497536 0.0476311 0.0411429 0.0404727 0.0573732 0.038713 0.0572017 0.0611084 0.0874648 0.0647375 0.0709033 0.0638159 0.0650642 0.0796243
79 1 Mg -1.50344 11.9138 1.4948 1.2 1 0.0129049 0.0179152 0.0228434 0.0204339 0.012028 0.0368431 0.0388858 0.0420451 0.0411518 0.059951 0.0355768 0.0652483 0.0504775 0.0651128 0.074407 0.0682468 0.0640412 0.0837421 0.0769528 0.0787011
80 2 Si 0.326006 9.84894 1.4948 2.4 1 0.0250359 0.0193801 0.0247785 0.0302338 0.0171106 0.0387952 0.0442416 0.037505 0.0449964 0.0557984 0.0406049 0.059431 0.0555449 0.0670289 0.0614046 0.0631917 0.0706697 0.079887 0.0617588 0.0694053
81 3 O 0.317364 8.23571 1.4948 -1.2 1 0.0223752 0.0125106 0.022521 0.0239584 0.0199864 0.0452079 0.0430489 0.049888 0.0349496 0.0544982 0.0440119 0.065949 0.0570949 0.0595887 0.0676194 0.0666803 0.0714893 0.053549 0.0734829 0.0745188
82 3 O 6.94307 10.823 1.4948 -1.2 1 0.0356915 0.0149215 0.0211126 0.00916871 0.0369736 0.0339046 0.0384963 0.0564702 0.0342606 0.0471474 0.0515466 0.0519818 0.0505565 0.0741703 0.072452 0.0786899 0.0622862 0.0729714 0.0576671 0.0803745
83 3 O -0.343122 10.5551 0.196716 -1.2 1 0.0308868 0.0174754 0.021609 0.0208357 0.0298349 0.0413937 0.05116 0.0396611 0.0386943 0.050695 0.0370356 0.0377713 0.061467 0.0605964 0.0687905 0.0706485 0.0808244 0.0542786 0.0698741 0.0690478
84 3 O -0.385966 10.5551 2.79288 -1.2 1 0.0261895 0.016848 0.0306263 0.0124257 0.0338194 0.0421317 0.0445762 0.0470783 0.0428922 0.0403519 0.0528521 0.0492416 0.0489238 0.0537916 0.0694133 0.0701704 0.0669025 0.0594294 0.0688415 0.0794889
85 1 Mg 6.49448 14.247 0 1.2 1 0.0225484 0.0100847 0.0185799 0.0171367 0.0287183 0.0229815 0.0477639 0.0328359 0.0591693 0.0481586 0.0512341 0.037518 0.0627643 0.052989 0.0710697 0.0653394 0.0643239 0.0707976 0.0847233 0.0706905
86 1 Mg 3.74457 18.9547 1.4948 1.2 1 0.0149298 0.0108129 0.015357 0.0159894 0.0259318 0.0293218 0.0313159 0.0394791 0.0384549 0.0580068 0.0438466 0.0669373 0.0506939 0.06626 0.0704498 0.0696368 0.062858 0.0830235 0.0781592 0.0761517
87 2 Si 5.55495 16.2705 1.4948 2.4 1 0.0120089 0.0201967 0.0220518 0.0269187 0.0184821 0.0426584 0.0364362 0.0420281 0.0452612 0.0518698 0.0435375 0.0610072 0.0542417 0.0640956 0.0696913 0.0590062 0.0730454 0.0797997 0.0608149 0.0706724
88 3 O 5.6115 17.8838 1.4948 -1.2 1 0.0269574 0.0181802 0.0233926 0.0255285 0.0194623 0.0435714 0.0453085 0.0609629 0.0375756 0.0501373 0.038302 0.0669458 0.0514719 0.0560788 0.0642104 0.0573218 0.0655074 0.0613836 0.0636145 0.0689243
89 3 O 1.93416 15.2965 1.4948 -1.2 1 0.0370596 0.0146691 0.0219238 0.0129023 0.0349416 0.0305039 0.0361063 0.0591623 0.0431115 0.0470667 0.048646 0.0508291 0.0465867 0.073488 0.0806962 0.0778741 0.05896 0.0738398 0.062253 0.0771702
90 3 O 4.85636 15.5644 0.196716 -1.2 1 0.0260425 0.0108344 0.0221424 0.0195346 0.0237985 0.0515191 0.0505555 0.0402198 0.0410469 0.0466677 0.0365363 0.0338157 0.0641309 0.054826 0.0671649 0.0684863 0.0748479 0.0631741 0.0719503 0.0675182
91 1 Mg 6.44662 14.247 2.9896 1.2 1 0.0109716 0.0166289 0.0227664 0.0240871 0.018894 0.0366883 0.0378018 0.0527954 0.037212 0.0575429 0.0345026 0.0638385 0.023661 0.0660568 0.0462719 0.0775959 0.0453241 0.0906439 0.0444016 0.0933761
92 3 O 4.81537 15.5644 2.79288 -1.2 1 0.0146614 0.0104465 0.0240818 0.0121055 0.028629 0.0365546 0.0462574 0.0486404 0.0443345 0.0396351 0.0520017 0.0424308 0.0518669 0.0543044 0.0751833 0.0673504 0.0754936 0.0528451 0.0714035 0.0769447
93 1 Mg -0.948271 14.2883 4.4844 1.2 1 0.0156121 0.00986408 0.0154313 0.029859 0.0226726 0.0299943 0.0366335 0.0345802 0.0458696 0.0485443 0.0595123 0.0546056 0.0643497 0.0689064 0.0567118 0.070802 0.0716632 0.0959498 0.0730504 0.0826025
94 2 Si -2.75928 16.9724 4.4844 2.4 1 0.0190052 0.0135894 0.016728 0.0278997 0.032052 0.0401481 0.059326 0.0294513 0.0550787 0.0644182 0.052666 0.0620586 0.0601955 0.0538456 0.0785294 0.072355 0.0481988 0.0916508 0.0540127 0.0640841
95 3 O -2.81617 15.3592 4.4844 -1.2 1 0.0143738 0.0162493 0.0109848 0.0256557 0.0304824 0.0234152 0.041288 0.0630701 0.0423857 0.0490949 0.0391427 0.0739042 0.0493961 0.0600102 0.0673366 0.0695759 0.0489955 0.0774363 0.065543 0.0745398
96 3 O 0.862762 17.9465 4.4844 -1.2 1 0.019145 0.0241703 0.0217682 0.0172003 0.0219314 0.0479417 0.0340248 0.052133 0.0459933 0.0528091 0.0390498 0.0480942 0.0446076 0.0706524 0.107358 0.0553339 0.0712316 0.053181 0.0756084 0.0680882
97 3 O -2.0185 17.6786 3.18632 -1.2 1 0.021978 0.0129049 0.0172996 0.0174386 0.020411 0.0377808 0.0424324 0.0547734 0.0441952 0.0513422 0.052896 0.0509857 0.055297 0.0485233 0.0815625 0.0604615 0.0677718 0.0655912 0.0651727 0.0692998
98 3 O -2.06164 17.6786 5.78248 -1.2 1 0.0110376 0.0114253 0.0221559 0.0216698 0.0172138 0.0303879 0.0487716 0.0474765 0.0390322 0.0383687 0.0568825 0.0385009 0.0592037 0.0598619 0.0853842 0.0714551 0.0700263 0.0644595 0.0706818 0.0769183
99 1 Mg 1.39817 16.6215 2.9896 1.2 1 0.00604666 0.0160978 0.0192955 0.022303 0.0182076 0.0360472 0.0371412 0.0533348 0.0366614 0.0596122 0.0356825 0.0566022 0.0230826 0.0674715 0.0461782 0.0806147 0.0489108 0.0908465 0.0448675 0.0888141
100 1 Mg 4.20062 16.5802 4.4844 1.2 1 0.0189718 0.0154469 0.017677 0.0290517 0.0269286 0.0303857 0.0434797 0.033721 0.0455 0.0503926 0.0538517 0.0547879 0.0654667 0.070224 0.050871 0.0727706 0.069486 0.094258 0.0738136 0.0807041
101 2 Si 2.37796 18.645 4.4844 2.4 1 0.0221349 0.0116987 0.0237723 0.0252198 0.0238527 0.037661 0.0608927 0.0320489 0.0551739 0.0581909 0.0502594 0.0611757 0.0603997 0.0546617 0.0732966 0.0690661 0.0465881 0.0992322 0.0524789 0.0570903
102 3 O 2.39434 20.2583 4.4844 -1.2 1 0.026164 0.0131216 0.00859824 0.0203919 0.0225495 0.0223726 0.0407293 0.0594299 0.0428717 0.0496144 0.040191 0.0713314 0.050373 0.0637469 0.0719181 0.0676283 0.050863 0.0684972 0.0673216 0.0788745
103 3 O -4.24274 17.671 4.4844 -1.2 1 0.0185487 0.0190094 0.021112 0.018212 0.0225617 0.0482814 0.0372893 0.0484922 0.0409652 0.052891 0.0385737 0.0503026 0.0502297 0.0723273 0.0983683 0.0635664 0.0762853 0.053755 0.0786968 0.0707176
104 3 O 3.08659 17.9389 3.18632 -1.2 1 0.0280773 0.013224 0.0219895 0.0111831 0.0171228 0.0383968 0.0372618 0.055915 0.0432787 0.0519367 0.0560247 0.0474021 0.0517351 0.0490943 0.0803727 0.057895 0.0669244 0.0608712 0.0649335 0.0683671
105 1 Mg 1.44478 16.6215 0 1.2 1 0.0094453 0.0121875 0.0217641 0.0127046 0.0267352 0.0315001 0.0479809 0.0354158 0.0507292 0.0505247 0.0517432 0.0396956 0.0586885 0.049368 0.0698748 0.0661503 0.060207 0.0676597 0.0884215 0.0641127
106 3 O 3.0436 17.9389 5.78248 -1.2 1 0.0239767 0.0120296 0.0189769 0.0169392 0.0179167 0.021337 0.0467891 0.0445745 0.0392863 0.0411227 0.058236 0.036545 0.0528834 0.0564503 0.0855946 0.0659756 0.0684661 0.0609816 0.0649731 0.0805936
107 1 Mg -1.40524 16.6628 1.4948 1.2 1 0.0115944 0.0125678 0.0257055 0.0178131 0.0173314 0.0345019 0.0359799 0.0426357 0.0415686 0.0604786 0.0404957 0.0622908 0.0547765 0.0644523 0.0740665 0.0688987 0.0645219 0.0779934 0.0776639 0.0757178
108 2 Si 0.420358 14.5979 1.4948 2.4 1 0.0209761 0.0196867 0.0273192 0.026957 0.0182969 0.039289 0.0393952 0.0399564 0.0449803 0.0557925 0.0439081 0.060599 0.0575486 0.0636521 0.0674482 0.0598809 0.0722083 0.0758651 0.0624706 0.0710185
109 3 O 0.408732 12.9847 1.4948 -1.2 1 0.0221922 0.0155832 0.0229134 0.0257415 0.0168099 0.0472247 0.0435955 0.0539259 0.0358902 0.0526482 0.0422383 0.0691645 0.053268 0.0569653 0.0662015 0.0633311 0.0716393 0.0548992 0.0682626 0.0715875
110 3 O 7.03923 15.572 1.4948 -1.2 1 0.0293231 0.0169173 0.0217849 0.012842 0.0361662 0.0334094 0.0369143 0.056063 0.0382515 0.0443539 0.0512194 0.0529675 0.0479381 0.0744829 0.078163 0.0781092 0.0642318 0.0696869 0.0623891 0.0775259
111 3 O -0.248332 15.3041 0.196716 -1.2 1 0.0220119 0.0122315 0.0222477 0.0192833 0.0242842 0.0463152 0.0500577 0.0435197 0.0402845 0.046665 0.0370329 0.0319601 0.0621268 0.0546241 0.0702214 0.0653257 0.0820121 0.0506119 0.0696642 0.0712254
112 3 O -0.289436 15.3041 2.79288 -1.2 1 0.0150222 0.017319 0.0296065 0.0094277 0.02901 0.0372725 0.0452963 0.0449693 0.0452174 0.0400289 0.0532902 0.0476637 0.0503441 0.0537445 0.0718808 0.0677487 0.0704089 0.0558207 0.0700819 0.0751623
113 1 Mg 6.59566 18.996 0 1.2 1 0.0137066 0.0117483 0.0197814 0.0145492 0.0257818 0.031863 0.0431378 0.033226 0.0537862 0.0493482 0.0539034 0.0389651 0.05224 0.0529266 0.0720051 0.0645267 0.0641226 0.0648688 0.0862349 0.0706166
114 1 Mg 3.85574 23.7037 1.4948 1.2 1 0.0107498 0.0125949 0.0212664 0.0140476 0.0226745 0.0288477 0.0312393 0.037055 0.0390307 0.0601284 0.0470198 0.0626885 0.0499837 0.0669583 0.0647801 0.0724646 0.0662764 0.0797501 0.0798094 0.0759418
115 2 Si 5.66125 21.0195 1.4948 2.4 1 0.00837703 0.0242955 0.0232603 0.0273332 0.0192639 0.046212 0.0341754 0.0415772 0.0492835 0.054377 0.0453645 0.0612951 0.0558965 0.0591023 0.0717226 0.0608562 0.0732575 0.0771561 0.0640106 0.0754928
116 3 O 5.72074 22.6328 1.4948 -1.2 1 0.0282657 0.0192579 0.0183701 0.0227704 0.0190638 0.0447398 0.0455181 0.0618304 0.0381874 0.0519164 0.0330433 0.069608 0.0496614 0.0538842 0.0683538 0.0552527 0.0651834 0.0678193 0.0564344 0.0710242
117 3 O 2.03867 20.0455 1.4948 -1.2 1 0.0300072 0.0164294 0.0268135 0.0161135 0.0341632 0.030208 0.0359025 0.0551805 0.0441555 0.0426484 0.0505712 0.0504334 0.0477745 0.0738493 0.0848791 0.0729298 0.0616982 0.0679866 0.0634814 0.073484
118 3 O 4.96004 20.3134 0.196716 -1.2 1 0.0211218 0.0103543 0.0228663 0.0186774 0.023267 0.0452694 0.0438893 0.047944 0.0389312 0.039867 0.0411109 0.0344316 0.0647174 0.0477389 0.0695389 0.0728942 0.071567 0.0579482 0.0711967 0.0720558
119 1 Mg 6.55057 18.996 2.9896 1.2 1 0.010475 0.0166571 0.0200425 0.0235421 0.0217073 0.0355388 0.0364541 0.0545973 0.034456 0.058691 0.0349476 0.0630812 0.0218921 0.0688311 0.0454475 0.0747917 0.0464682 0.0952514 0.0442808 0.0940572
120 3 O 4.92172 20.3134 2.79288 -1.2 1 0.0133027 0.0104428 0.0302481 0.0143676 0.0299295 0.0408024 0.0463763 0.0460431 0.0471856 0.0425883 0.0526457 0.0405843 0.0531192 0.0530561 0.076141 0.0661382 0.0755671 0.0481418 0.0713766 0.0729069
121 1 Mg -0.84282 19.0373 4.4844 1.2 1 0.0155138 0.0132494 0.0127769 0.0269373 0.0234544 0.028741 0.0360177 0.0322333 0.0445931 0.048387 0.0580702 0.0574037 0.0655493 0.069803 0.058796 0.0739377 0.0718981 0.0921478 0.0734203 0.0820833
122 2 Si -2.64823 21.7214 4.4844 2.4 1 0.0180993 0.0138502 0.0159564 0.0282018 0.0306897 0.0395666 0.0562785 0.0312318 0.0534084 0.0640336 0.0521129 0.0641262 0.0606911 0.0540069 0.0771463 0.0732534 0.0469268 0.094083 0.0520634 0.0636448
123 3 O -2.70847 20.1082 4.4844 -1.2 1 0.011772 0.0208493 0.0131721 0.02572 0.0269721 0.0243651 0.0401109 0.0644508 0.0439371 0.0505081 0.0395118 0.0715381 0.0505772 0.0598948 0.0687257 0.0675779 0.0521541 0.0721119 0.06849 0.0773808
124 3 O 0.97581 22.6955 4.4844 -1.2 1 0.0200816 0.0255888 0.0208762 0.0159679 0.0183524 0.0426627 0.031852 0.0503327 0.0442177 0.0539754 0.0411103 0.0465073 0.0463277 0.0731975 0.10598 0.0533143 0.0664466 0.0559539 0.075688 0.0660486
125 3 O -1.9076 22.4276 3.18632 -1.2 1 0.0219932 0.00771047 0.0211969 0.016212 0.0137391 0.0366029 0.0441038 0.0557888 0.0372758 0.0496334 0.0545628 0.0486462 0.0560651 0.0485253 0.0808251 0.0584464 0.0687772 0.0663551 0.0631224 0.0662269
126 3 O -1.9475 22.4276 5.78248 -1.2 1 0.0133329 0.0041183 0.0234802 0.021673 0.0156849 0.0314172 0.0464133 0.0460891 0.0376214 0.037099 0.0570293 0.0403211 0.0552159 0.0639903 0.0791697 0.068355 0.0728846 0.064679 0.0688145 0.0761149