ITEM: TIMESTEP
6200
ITEM: NUMBER OF ATOMS
10500
ITEM: BOX BOUNDS xy xz yz pp pp pp
0	15.2977	5.09925
0	118.725	0
0	89.688	0
ITEM: ATOMS id type element xu yu zu q Q_1 Q_2 Q_3 Q_4 Q_5 Q_6 Q_7 Q_8 Q_9 Q_10 Q_11 Q_12 Q_13 Q_14 Q_15 Q_16 Q_17 Q_18 Q_19 Q_20 Q_21
1 1 Mg 6.2404 -6.37941e-06 0 1.2 1 0.0132648 0.0408904 0.0297324 0.0358892 0.0332796 0.0412835 0.0356109 0.0686317 0.0388851 0.0712759 0.0337766 0.0592811 0.0461137 0.0683633 0.0499496 0.0921603 0.051549 0.0839376 0.0508234 0.102618
2 1 Mg 3.46349 4.70768 1.4948 1.2 1 0.0124561 0.0162502 0.0251324 0.0236263 0.0198218 0.0414332 0.0436173 0.0410903 0.0478545 0.0558317 0.0421067 0.0697357 0.057835 0.0704524 0.0729751 0.0645624 0.0669685 0.0849768 0.0736026 0.082512
3 2 Si 5.2885 2.02354 1.4948 2.4 1 0.0199189 0.0221401 0.0338264 0.0284441 0.0301276 0.0375203 0.0537195 0.0326168 0.0438227 0.0538981 0.0544621 0.0618486 0.0549663 0.0650566 0.0679778 0.0798123 0.0708032 0.0645031 0.0640758 0.0728344
4 3 O 5.33628 3.63678 1.4948 -1.2 1 0.00935271 0.0141456 0.0268191 0.0259005 0.0183788 0.039067 0.0418901 0.0602109 0.0353803 0.0402249 0.0547814 0.0508642 0.0677649 0.0574827 0.0590162 0.0651022 0.0602486 0.0615143 0.0711962 0.0744997
5 3 O 1.67294 1.04952 1.4948 -1.2 1 0.0162823 0.0217947 0.0233625 0.0355638 0.0296254 0.0387315 0.0342087 0.0608268 0.0348658 0.059297 0.0439562 0.051161 0.0718911 0.0594123 0.0762035 0.0692131 0.062747 0.0644395 0.0795882 0.0602892
6 3 O 4.59532 1.31737 0.196716 -1.2 1 0.0259226 0.0221472 0.0575816 0.0252138 0.0334245 0.0486356 0.0384697 0.0472026 0.0338195 0.0392989 0.0387065 0.0505294 0.0543157 0.0570904 0.0635734 0.0700408 0.0619934 0.071648 0.0592396 0.0707818
7 1 Mg 6.18956 -6.37941e-06 2.9896 1.2 1 0.0154596 0.028404 0.0155724 0.0216259 0.0361935 0.0449102 0.0503359 0.0428321 0.0476936 0.0452131 0.0385693 0.0561972 0.0394771 0.0560308 0.0587759 0.0798407 0.0570079 0.0692685 0.0590668 0.0702533
8 3 O 4.55118 1.31737 2.79288 -1.2 1 0.0242041 0.0257696 0.0406785 0.0171102 0.0285668 0.0439721 0.044437 0.0480578 0.0436203 0.0540904 0.0538076 0.048613 0.0496681 0.0665762 0.053363 0.0703306 0.0644118 0.0670448 0.0645891 0.0717461
9 1 Mg -1.20682 0.0413099 4.4844 1.2 1 0.0139495 0.0245624 0.0210643 0.0269656 0.03652 0.040228 0.0317196 0.0520993 0.0529329 0.0399464 0.0495106 0.0617468 0.0661378 0.058413 0.077539 0.0602861 0.0803288 0.0735663 0.0650845 0.0524762
10 2 Si -3.0337 2.72544 4.4844 2.4 1 0.0334196 0.0134699 0.0202384 0.0167202 0.0312097 0.0385778 0.0619617 0.0344056 0.0613581 0.0500344 0.0467346 0.0616628 0.0594853 0.0763437 0.0548954 0.0596624 0.072452 0.0792322 0.0734892 0.0606938
11 3 O -3.08099 1.11221 4.4844 -1.2 1 0.0113913 0.0222503 0.0268522 0.0253477 0.0385571 0.0285213 0.0480521 0.0482486 0.0383694 0.0378527 0.0370453 0.0712143 0.053505 0.0518251 0.0550084 0.0683352 0.0544076 0.0800708 0.0728122 0.0768853
12 3 O 0.582463 3.69946 4.4844 -1.2 1 0.00750857 0.0142878 0.0330862 0.0308834 0.0264144 0.0607557 0.031179 0.0557447 0.0459781 0.0399569 0.0529148 0.0559373 0.0590257 0.0705929 0.0996692 0.0708711 0.0795872 0.0396592 0.0705137 0.0674619
13 3 O -2.29524 3.43162 3.18632 -1.2 1 0.0125371 0.0202915 0.0258437 0.0307688 0.020132 0.0504025 0.0515726 0.0497639 0.0408064 0.0531741 0.0594262 0.0546378 0.0409635 0.0527138 0.0584793 0.0643902 0.066501 0.0619935 0.0632544 0.0733555
14 3 O -2.34216 3.43162 5.78248 -1.2 1 0.0199336 0.0100528 0.022022 0.0269244 0.0271187 0.0398151 0.054071 0.0473528 0.0392287 0.0555894 0.0543844 0.0492321 0.0549822 0.0521802 0.0789629 0.0738302 0.0616692 0.0710686 0.073605 0.0719026
15 1 Mg 1.12778 2.37449 2.9896 1.2 1 0.0155501 0.0403865 0.0168349 0.0239495 0.025642 0.0432743 0.0410193 0.0501726 0.0370204 0.0607382 0.0372526 0.0592205 0.0403617 0.0673442 0.0634343 0.0701163 0.0681677 0.0825478 0.0457201 0.0876725
16 1 Mg 3.92855 2.33318 4.4844 1.2 1 0.0280652 0.015957 0.0238975 0.0293875 0.0437009 0.0260012 0.0377221 0.0377475 0.0476947 0.0681638 0.051115 0.0601361 0.049862 0.0601498 0.0550467 0.0732995 0.0635869 0.0949636 0.0741951 0.0854493
17 2 Si 2.09341 4.39804 4.4844 2.4 1 0.0137395 0.0206787 0.0330909 0.0146522 0.0416491 0.0273239 0.0637252 0.0207206 0.044425 0.0477199 0.0628609 0.0614655 0.0679056 0.0591171 0.0732572 0.0753212 0.0716604 0.0815503 0.0503563 0.0660678
18 3 O 2.09991 6.01128 4.4844 -1.2 1 0.0145763 0.0085133 0.0155003 0.0185024 0.0333552 0.0234125 0.0517406 0.0508537 0.0474223 0.0466126 0.0476498 0.0653813 0.0454292 0.0604625 0.0659378 0.0709053 0.045768 0.0782664 0.0606953 0.0712627
19 3 O -4.52137 3.42402 4.4844 -1.2 1 0.0237783 0.0279062 0.0358479 0.0207204 0.0259779 0.05632 0.0357492 0.0486733 0.0541057 0.0573249 0.0310344 0.0572778 0.0515944 0.0551393 0.0898828 0.072235 0.075497 0.0604103 0.0742643 0.0553917
20 3 O 2.80834 3.69187 3.18632 -1.2 1 0.0112144 0.020003 0.0206704 0.0260445 0.0205722 0.0382081 0.0341586 0.0489831 0.0437977 0.0596959 0.0663017 0.0527264 0.0422922 0.0634902 0.0703247 0.0719976 0.0610808 0.0589175 0.0706832 0.0709536
21 1 Mg 1.17857 2.37449 0 1.2 1 0.01437 0.0371964 0.0293533 0.0289129 0.0364212 0.0388901 0.0429341 0.0586929 0.0353617 0.0490469 0.0525193 0.0408953 0.0434441 0.0668806 0.054959 0.0654663 0.0596148 0.0807855 0.0574756 0.0731564
22 3 O 2.76143 3.69187 5.78248 -1.2 1 0.00715841 0.0212467 0.0162586 0.0230424 0.0186861 0.0324201 0.0402361 0.0478799 0.0347093 0.0457801 0.0610792 0.0420643 0.055637 0.0758573 0.0731832 0.0693742 0.0702408 0.0594519 0.0698798 0.0739471
23 1 Mg -1.67381 2.41581 1.4948 1.2 1 0.011412 0.0116029 0.0371539 0.0362872 0.0324772 0.0440103 0.058848 0.0403022 0.0509642 0.0405595 0.0462484 0.0591768 0.0550109 0.0638568 0.0614032 0.0644268 0.0834358 0.0777507 0.0664997 0.0741405
24 2 Si 0.16286 0.350945 1.4948 2.4 1 0.0152223 0.0321517 0.0280779 0.0234149 0.0355099 0.0355717 0.0558497 0.0513289 0.0527844 0.0487313 0.0404455 0.0558404 0.073762 0.0690319 0.0571718 0.0732072 0.0693877 0.0647547 0.0733662 0.0656737
25 3 O 0.15972 -1.26229 1.4948 -1.2 1 0.00912644 0.01542 0.0397374 0.0214271 0.0374496 0.0359498 0.0454907 0.0567093 0.0470067 0.0513528 0.0556897 0.0560154 0.0631518 0.0663214 0.0498067 0.0596379 0.0696205 0.0665004 0.0621679 0.0743774
26 3 O 6.77654 1.32496 1.4948 -1.2 1 0.0115081 0.0277148 0.0266794 0.0276575 0.0372374 0.0545185 0.0342255 0.0647974 0.0476655 0.0466512 0.0443289 0.0524936 0.0523755 0.0593761 0.0687065 0.0715073 0.0845936 0.0628461 0.0599846 0.0745981
27 3 O -0.508028 1.05712 0.196716 -1.2 1 0.0246496 0.019062 0.0295728 0.02066 0.0292595 0.0532747 0.043724 0.0446161 0.047221 0.0483241 0.0502892 0.0479976 0.049327 0.0634836 0.0549033 0.062907 0.0634377 0.058841 0.0721126 0.0718854
28 3 O -0.552171 1.05712 2.79288 -1.2 1 0.0322153 0.0287328 0.0303663 0.0330909 0.0221956 0.044938 0.0409748 0.0468035 0.043379 0.0362945 0.0504279 0.0493912 0.0598418 0.0619643 0.0653635 0.0755735 0.0711342 0.0506837 0.0695584 0.07169
29 1 Mg 6.31713 4.74899 0 1.2 1 0.0270806 0.0298533 0.0297592 0.0357533 0.0321806 0.0253506 0.0408397 0.0569603 0.0587364 0.0495472 0.0510647 0.0392543 0.0585596 0.0619288 0.0664448 0.0633937 0.0661132 0.0741924 0.0704311 0.0699098
30 1 Mg 3.54847 9.45668 1.4948 1.2 1 0.021806 0.0143117 0.0180743 0.0204985 0.0183171 0.0382439 0.0382601 0.0417098 0.0448772 0.0555257 0.0386793 0.0693117 0.0521532 0.0655508 0.0716302 0.0633432 0.0669325 0.0871813 0.0742221 0.0791179
31 2 Si 5.36879 6.77254 1.4948 2.4 1 0.025984 0.0296884 0.0212577 0.026404 0.0245561 0.0350767 0.0443404 0.0347916 0.0456462 0.0585528 0.042526 0.0577423 0.0526936 0.0675596 0.0651454 0.0750499 0.0673295 0.0783647 0.0567844 0.0687287
32 3 O 5.41937 8.38578 1.4948 -1.2 1 0.0215351 0.0114529 0.023552 0.0296436 0.0174823 0.0432079 0.0441012 0.0572688 0.0362996 0.050535 0.0475398 0.0640312 0.0551785 0.0539741 0.0663918 0.060598 0.0729395 0.0560103 0.0731362 0.073151
33 3 O 1.75158 5.79852 1.4948 -1.2 1 0.0284659 0.012312 0.022472 0.0265623 0.0440371 0.0307001 0.0393056 0.0569663 0.0407291 0.0524878 0.04945 0.0507103 0.0475384 0.0711614 0.0787567 0.0785603 0.0603489 0.0751121 0.0599887 0.0766132
34 3 O 4.67421 6.06637 0.196716 -1.2 1 0.0145613 0.0264994 0.0315767 0.0243815 0.0319897 0.0378323 0.0346068 0.0322629 0.0447341 0.0562292 0.0392725 0.0442928 0.0666698 0.0563432 0.0676382 0.0712228 0.0715792 0.0656888 0.0633526 0.068671
35 1 Mg 6.26654 4.74899 2.9896 1.2 1 0.0195413 0.0261435 0.023978 0.0448908 0.0247551 0.0449316 0.0481943 0.0469176 0.0366466 0.0623284 0.0367844 0.0616564 0.03738 0.0642569 0.0521177 0.0779643 0.0560229 0.0832547 0.0464896 0.090738
36 3 O 4.63043 6.06637 2.79288 -1.2 1 0.0212987 0.0201208 0.0408811 0.0191693 0.0315873 0.0373395 0.0429512 0.0486995 0.0449083 0.0362625 0.0493624 0.0517456 0.0558835 0.0648182 0.061132 0.0732929 0.0647381 0.0684709 0.0682999 0.0850603
37 1 Mg -1.12976 4.79031 4.4844 1.2 1 0.0230826 0.0264266 0.0144979 0.0142691 0.0353871 0.0382819 0.0475948 0.0482511 0.0446781 0.0451781 0.0554382 0.0611898 0.075527 0.0717444 0.061432 0.0680156 0.0718424 0.0947885 0.0718294 0.0810769
38 2 Si -2.9517 7.47444 4.4844 2.4 1 0.0228475 0.0139023 0.0199321 0.027893 0.0302702 0.0414705 0.0629945 0.027973 0.0555995 0.0581158 0.051885 0.0580064 0.062093 0.0568996 0.07983 0.0710403 0.0522951 0.0888039 0.0554975 0.0610213
39 3 O -3.00198 5.86121 4.4844 -1.2 1 0.0131856 0.0221234 0.0279686 0.0261227 0.03382 0.031436 0.0559007 0.0603135 0.039803 0.0559694 0.0481304 0.071163 0.0574173 0.056169 0.065314 0.0716046 0.0484535 0.0767117 0.061157 0.0786087
40 3 O 0.666315 8.44846 4.4844 -1.2 1 0.0245992 0.0235845 0.0239992 0.0144935 0.0227997 0.0528631 0.0302085 0.0508125 0.0444123 0.0479529 0.0402705 0.0514225 0.0482905 0.0740197 0.0991217 0.0664891 0.0770599 0.0489475 0.0706345 0.0720962
41 3 O -2.21213 8.18062 3.18632 -1.2 1 0.0183812 0.0152613 0.0164584 0.0156248 0.0172778 0.0355557 0.0462232 0.0543815 0.0455262 0.0538248 0.0537918 0.0521385 0.0526439 0.0471697 0.0777479 0.0631689 0.0711649 0.058794 0.0681204 0.0711747
42 3 O -2.25864 8.18062 5.78248 -1.2 1 0.0208688 0.0193777 0.0161184 0.0163511 0.0186439 0.0274512 0.0487013 0.0494075 0.0383291 0.0412904 0.0552222 0.0403289 0.0582438 0.0554744 0.0860187 0.0680241 0.0663186 0.0653306 0.0697805 0.0741721
43 1 Mg 1.20893 7.12349 2.9896 1.2 1 0.00768576 0.0225001 0.0184786 0.0248454 0.0239532 0.0397069 0.0427589 0.0462665 0.0345596 0.0653174 0.0391763 0.0664982 0.0365649 0.0588812 0.0526651 0.0797715 0.0516662 0.084116 0.0474542 0.087546
44 1 Mg 4.00982 7.08218 4.4844 1.2 1 0.0217245 0.014586 0.0238252 0.0351325 0.0304347 0.0368497 0.0443954 0.0370444 0.0461903 0.0511996 0.0573945 0.0553892 0.0716124 0.0730163 0.0575105 0.0679138 0.0629752 0.0989342 0.0749606 0.0818799
45 2 Si 2.17861 9.14704 4.4844 2.4 1 0.0264766 0.0120322 0.0240049 0.0208397 0.0295308 0.0337531 0.0627631 0.0247279 0.0506519 0.0550801 0.055405 0.05934 0.0644605 0.0562734 0.0796662 0.0703278 0.0493058 0.0935766 0.054803 0.0580521
46 3 O 2.18828 10.7603 4.4844 -1.2 1 0.0187114 0.0142509 0.00577102 0.0163742 0.0300431 0.0219153 0.0466957 0.0604982 0.0419611 0.0547041 0.0405303 0.071498 0.0436389 0.0643733 0.0692664 0.0737758 0.0470919 0.071464 0.0635335 0.0732765
47 3 O -4.43805 8.17302 4.4844 -1.2 1 0.0158963 0.0190583 0.0183019 0.0166995 0.0243176 0.053285 0.039143 0.0497428 0.0431604 0.0484629 0.0352183 0.0530838 0.0526682 0.0717946 0.0995385 0.0671464 0.0805571 0.0533171 0.0747511 0.0730195
48 3 O 2.89193 8.44087 3.18632 -1.2 1 0.018095 0.0154505 0.0181964 0.0146178 0.0217715 0.0419806 0.0337797 0.0557124 0.043356 0.0516396 0.0586375 0.0493245 0.0514458 0.0528649 0.0804806 0.0632579 0.0699214 0.0591521 0.0652939 0.0736833
49 1 Mg 1.25915 7.12349 0 1.2 1 0.0200351 0.0152582 0.024832 0.0146393 0.0321014 0.0255308 0.052508 0.040441 0.055686 0.0499289 0.0525951 0.042571 0.0721743 0.0514094 0.067494 0.0709756 0.0650504 0.0710567 0.0811146 0.0585803
50 3 O 2.84547 8.44087 5.78248 -1.2 1 0.0103839 0.0126884 0.017205 0.0200997 0.0203352 0.0296983 0.044031 0.049237 0.0371444 0.0414096 0.0593839 0.042156 0.0584014 0.0624331 0.0884819 0.0648302 0.0702394 0.0624871 0.0663037 0.0760679
51 1 Mg -1.59284 7.16481 1.4948 1.2 1 0.00988006 0.0163545 0.0205209 0.0203418 0.0150329 0.0372006 0.0463087 0.0426339 0.0433337 0.0576615 0.0389951 0.0661267 0.0521111 0.069178 0.0756481 0.0607419 0.0675547 0.0843491 0.0735315 0.0785647
52 2 Si 0.240329 5.09994 1.4948 2.4 1 0.0246586 0.0173905 0.0158753 0.0433654 0.0271757 0.0404768 0.0467224 0.0533516 0.0550503 0.0485399 0.0456882 0.0577205 0.059173 0.0678953 0.0656114 0.0663505 0.0640028 0.0728322 0.0662383 0.0682759
53 3 O 0.234538 3.48671 1.4948 -1.2 1 0.0132187 0.0163412 0.0266569 0.0358465 0.0314257 0.0493103 0.0459606 0.0424305 0.0528547 0.0466479 0.0523125 0.0612393 0.0563163 0.0609768 0.0620518 0.0622627 0.0628992 0.0572113 0.0758606 0.0735273
54 3 O 6.85564 6.07396 1.4948 -1.2 1 0.0324776 0.0195156 0.0346018 0.0275902 0.0371877 0.0403201 0.0324066 0.062449 0.0365179 0.0531247 0.0537123 0.0534854 0.0553848 0.0734634 0.069953 0.0770354 0.0664162 0.0722712 0.0532957 0.0851271
55 3 O -0.429565 5.80612 0.196716 -1.2 1 0.0340099 0.019988 0.0158761 0.0212258 0.0409617 0.0374764 0.0538888 0.0451348 0.0460105 0.0563276 0.039762 0.0419313 0.0533704 0.0601742 0.0599233 0.0681609 0.0703455 0.0610397 0.0653753 0.0741858
56 3 O -0.473377 5.80612 2.79288 -1.2 1 0.026014 0.0232094 0.0312368 0.0197155 0.0343651 0.0453066 0.0482885 0.0503745 0.0524007 0.0461261 0.0627999 0.0397122 0.0429549 0.0577395 0.0660018 0.0723082 0.0647864 0.0687304 0.0697179 0.0810849
57 1 Mg 6.40169 9.49799 0 1.2 1 0.0127282 0.0117381 0.021227 0.0141547 0.0305243 0.0212326 0.0523502 0.0355943 0.0587047 0.0492369 0.0498246 0.0356322 0.0671113 0.0525909 0.0713105 0.0671492 0.0653286 0.0706118 0.0808107 0.0686343
58 1 Mg 3.64209 14.2057 1.4948 1.2 1 0.0105286 0.0110875 0.017968 0.0165588 0.0214662 0.0337204 0.0359715 0.0435873 0.0415239 0.0555219 0.0394165 0.0663291 0.0531493 0.0661614 0.0736828 0.0632035 0.0648515 0.0823969 0.0740673 0.0782034
59 2 Si 5.45748 11.5215 1.4948 2.4 1 0.011936 0.0218627 0.0233278 0.0248267 0.018025 0.0403043 0.0396711 0.0398981 0.0434993 0.0545499 0.0424111 0.0602319 0.0534203 0.066396 0.0694868 0.0634588 0.0711459 0.0818188 0.0584196 0.0667848
60 3 O 5.51101 13.1348 1.4948 -1.2 1 0.0241612 0.013378 0.0222543 0.0294471 0.0198328 0.0433237 0.0445176 0.0590849 0.036582 0.0498035 0.0428686 0.0673068 0.0531445 0.0532787 0.0654613 0.0601975 0.0707053 0.0579603 0.069449 0.0720872
61 3 O 1.83851 10.5475 1.4948 -1.2 1 0.0351869 0.0140582 0.0215698 0.0138291 0.0363063 0.030246 0.036465 0.0591026 0.0398053 0.0483574 0.0497647 0.0516918 0.0471377 0.0748023 0.0757057 0.0799612 0.0565618 0.0759818 0.0577977 0.0787498
62 3 O 4.7611 10.8154 0.196716 -1.2 1 0.0357 0.0192301 0.0198002 0.0181144 0.026744 0.0442874 0.048356 0.0375837 0.0387751 0.0493253 0.036907 0.0410124 0.0606623 0.0608537 0.0649594 0.0714404 0.0754736 0.0656572 0.0729487 0.0679103
63 1 Mg 6.35203 9.49799 2.9896 1.2 1 0.0130333 0.0177912 0.025394 0.0212406 0.0192657 0.0379826 0.037284 0.0509854 0.0350156 0.0585005 0.0316792 0.0647251 0.0282397 0.0667964 0.0472443 0.079693 0.0456977 0.0898141 0.045268 0.0909193
64 3 O 4.71833 10.8154 2.79288 -1.2 1 0.0258146 0.00974289 0.0312913 0.0126267 0.0299077 0.0437866 0.0440294 0.0448212 0.0429664 0.0376372 0.0528156 0.0432954 0.0537832 0.0581522 0.0733265 0.0678772 0.0723768 0.0594057 0.0694179 0.0804163
65 1 Mg -1.0438 9.53931 4.4844 1.2 1 0.0129546 0.0184734 0.0135582 0.0232627 0.0262428 0.0310186 0.0377781 0.0361681 0.0453685 0.0506031 0.0559144 0.0568749 0.0668223 0.0712985 0.0589145 0.0703139 0.0723145 0.0974752 0.0699051 0.0839105
66 2 Si -2.8604 12.2234 4.4844 2.4 1 0.0189492 0.0120296 0.0162438 0.0264215 0.0301391 0.0419123 0.0595983 0.03024 0.0534283 0.062671 0.0546944 0.0627273 0.060269 0.0553409 0.0790604 0.0724021 0.0498003 0.091289 0.0540141 0.0635962
67 3 O -2.91391 10.6102 4.4844 -1.2 1 0.0198709 0.0144416 0.00705501 0.023051 0.0291368 0.0231989 0.0450496 0.0622811 0.0394855 0.0495748 0.0366776 0.07114 0.045437 0.0597529 0.0678094 0.070496 0.049351 0.0754931 0.0625222 0.0756698
68 3 O 0.7596 13.1975 4.4844 -1.2 1 0.0180907 0.0249931 0.0182563 0.014484 0.023128 0.0525587 0.0313715 0.052301 0.0453327 0.0484727 0.0395306 0.0501627 0.0482652 0.0708655 0.100763 0.0604868 0.0777372 0.0534442 0.0737243 0.0711367
69 3 O -2.12001 12.9296 3.18632 -1.2 1 0.0172049 0.00906995 0.0191688 0.0167272 0.0205181 0.0384972 0.0420461 0.0552323 0.0464691 0.0520667 0.0539794 0.0485427 0.0562968 0.0494483 0.0801723 0.063579 0.071795 0.0631215 0.0660787 0.0701364
70 3 O -2.16532 12.9296 5.78248 -1.2 1 0.0143009 0.0131017 0.0216332 0.0230072 0.0158121 0.0288572 0.0471581 0.0462103 0.0383043 0.0402145 0.0568437 0.038097 0.0565458 0.0596305 0.0838166 0.0701573 0.0684251 0.063465 0.0682924 0.0769438
71 1 Mg 1.29891 11.8725 2.9896 1.2 1 0.0069038 0.0156965 0.022217 0.0226444 0.017612 0.0383726 0.0366054 0.0508359 0.0354111 0.0602151 0.0343053 0.0588504 0.0260342 0.0675586 0.0490832 0.082108 0.0491557 0.0893177 0.0475943 0.08666
72 1 Mg 4.10033 11.8312 4.4844 1.2 1 0.0119427 0.0199942 0.0199488 0.028399 0.0288137 0.0332148 0.0422201 0.0342941 0.046321 0.0502913 0.0550019 0.0537132 0.0668412 0.0708303 0.0535967 0.0703144 0.0705836 0.0998847 0.0740746 0.0798104
73 2 Si 2.27333 13.896 4.4844 2.4 1 0.0241915 0.00893796 0.0271549 0.0247384 0.0243349 0.0374946 0.0624307 0.0299755 0.0543859 0.0569763 0.0525243 0.060897 0.0618082 0.0555453 0.0769011 0.0690351 0.0464062 0.0976412 0.0538554 0.056949
74 3 O 2.28634 15.5093 4.4844 -1.2 1 0.0204104 0.0141227 0.00733707 0.0176076 0.0270944 0.0213625 0.0445973 0.0601112 0.043265 0.0546312 0.0418886 0.0711108 0.0454052 0.0623369 0.0692518 0.0712306 0.0480164 0.069825 0.064217 0.07514
75 3 O -4.34533 12.922 4.4844 -1.2 1 0.0209404 0.0218649 0.0211915 0.0160179 0.0226044 0.050947 0.0347712 0.0501326 0.0441795 0.052328 0.0381868 0.0535699 0.0488673 0.0705115 0.100953 0.0656601 0.07869 0.052561 0.0755989 0.0719397
76 3 O 2.98455 13.1899 3.18632 -1.2 1 0.0228001 0.0115147 0.0179808 0.0119249 0.0205911 0.0422967 0.0386253 0.0582611 0.0458477 0.0523227 0.0563313 0.0490501 0.0509362 0.0512091 0.0812006 0.0624896 0.0663171 0.0602766 0.064077 0.0716311
77 1 Mg 1.34779 11.8725 0 1.2 1 0.0217986 0.00925126 0.0219086 0.0147559 0.0287032 0.0226273 0.0516052 0.0347436 0.0575621 0.0509149 0.0497214 0.0353112 0.065109 0.0501279 0.0706383 0.0642333 0.0615506 0.0701216 0.0872695 0.0598181
78 3 O 2.93934 13.1899 5.78248 -1.2 1 0.0156261 0.0136991 0.0182101 0.0230936 0.0200125 0.0280028 0.0479835 0.0484164 0.0420213 0.0409063 0.0576232 0.0380073 0.0577132 0.0621491 0.0874131 0.0663324 0.070382 0.063252 0.065343 0.0788949
79 1 Mg -1.50344 11.9138 1.4948 1.2 1 0.0129257 0.0179211 0.0229143 0.020432 0.0118773 0.0368832 0.0385458 0.0422827 0.0413442 0.0599498 0.0355245 0.0653043 0.0505444 0.0649636 0.0745142 0.0681386 0.0638937 0.0838781 0.0763709 0.0787659
80 2 Si 0.326006 9.84894 1.4948 2.4 1 0.0281194 0.0178796 0.0268978 0.0295051 0.0168906 0.0380967 0.0433852 0.0400182 0.044055 0.0549166 0.0395865 0.0606018 0.0556664 0.066231 0.0608792 0.0626034 0.0701696 0.0803297 0.0614368 0.0688869
81 3 O 0.317364 8.23571 1.4948 -1.2 1 0.0224693 0.0125203 0.0226666 0.0239367 0.0202395 0.0453132 0.0429205 0.0498374 0.0347415 0.0541293 0.0443308 0.0657554 0.0575291 0.0598092 0.068146 0.0663072 0.0715683 0.053461 0.0734747 0.0740431
82 3 O 6.94307 10.823 1.4948 -1.2 1 0.0312141 0.0148625 0.0220589 0.0117914 0.0373148 0.0329591 0.0381485 0.0577599 0.0346761 0.0476038 0.0512894 0.0525731 0.0502039 0.0748099 0.0727606 0.0797941 0.0617205 0.0728218 0.0581885 0.0803502
83 3 O -0.343122 10.5551 0.196716 -1.2 1 0.0308787 0.0174749 0.0215915 0.0208644 0.0298212 0.0414137 0.0512117 0.039741 0.0387224 0.0507004 0.0370633 0.0377342 0.0615045 0.0608293 0.0687569 0.0708213 0.0809547 0.0541539 0.0699679 0.0692195
84 3 O -0.385966 10.5551 2.79288 -1.2 1 0.0183712 0.0183724 0.0349041 0.0121281 0.0332599 0.0426264 0.0455192 0.0450473 0.0447429 0.039004 0.0532791 0.0469856 0.0496408 0.0569587 0.0704172 0.0713822 0.0668823 0.0609064 0.0693388 0.0786053
85 1 Mg 6.49448 14.247 0 1.2 1 0.0226113 0.00999302 0.0184875 0.0169542 0.0286526 0.0226854 0.0478 0.032894 0.0593674 0.0481506 0.0514145 0.0373916 0.0625188 0.0528827 0.0710932 0.0653307 0.0643136 0.0707445 0.0846746 0.0706776
86 1 Mg 3.74457 18.9547 1.4948 1.2 1 0.0149497 0.0107173 0.0153333 0.0160098 0.0259222 0.0292417 0.0315346 0.0392002 0.0379 0.0578489 0.0434759 0.0670141 0.0508344 0.0664537 0.070571 0.0700377 0.0629571 0.0830449 0.0786395 0.0761095
87 2 Si 5.55495 16.2705 1.4948 2.4 1 0.0107941 0.0218629 0.0201552 0.0271665 0.0176339 0.0428539 0.0370238 0.0403147 0.0466396 0.0528876 0.0439506 0.0605109 0.0537483 0.0643524 0.0699049 0.059551 0.0731675 0.0790727 0.0606923 0.0704893
88 3 O 5.6115 17.8838 1.4948 -1.2 1 0.0269096 0.0182057 0.0234234 0.0255538 0.0193358 0.0436138 0.0451491 0.0608479 0.0370998 0.0498493 0.0380821 0.0672784 0.0513338 0.0560121 0.0647242 0.0578441 0.0656786 0.0615824 0.0632642 0.0690832
89 3 O 1.93416 15.2965 1.4948 -1.2 1 0.0370844 0.0146923 0.0219102 0.0129944 0.0350357 0.0303462 0.0361109 0.0591199 0.043094 0.0469991 0.0486306 0.0505399 0.0464224 0.073784 0.0807507 0.0776327 0.0589362 0.0738871 0.0622855 0.0772211
90 3 O 4.85636 15.5644 0.196716 -1.2 1 0.0225137 0.0118144 0.0212922 0.0189721 0.0252347 0.0513348 0.0495517 0.0396525 0.0393604 0.0443331 0.0375671 0.0324169 0.0631528 0.0545474 0.0672114 0.0676251 0.0760902 0.0627635 0.0724958 0.0685738
91 1 Mg 6.44662 14.247 2.9896 1.2 1 0.0102679 0.0182191 0.0227747 0.0217389 0.0189025 0.0356071 0.0378572 0.0537327 0.0362293 0.0573494 0.0335891 0.0626702 0.0249552 0.0674382 0.0457342 0.0766132 0.0455304 0.0918567 0.0437765 0.0925772
92 3 O 4.81537 15.5644 2.79288 -1.2 1 0.0148828 0.00747521 0.0281524 0.0119656 0.0279036 0.038144 0.0469677 0.0474286 0.0456129 0.0394161 0.0513626 0.0429087 0.053022 0.0566174 0.0747589 0.0662599 0.0758608 0.0530027 0.0716869 0.076278
93 1 Mg -0.948271 14.2883 4.4844 1.2 1 0.0164751 0.0123198 0.0147467 0.0291551 0.0240992 0.0283433 0.0378712 0.0343297 0.0444817 0.0487301 0.0586607 0.0567026 0.0669789 0.0684796 0.0586254 0.0700384 0.071362 0.0962015 0.0735746 0.083049
94 2 Si -2.75928 16.9724 4.4844 2.4 1 0.0207142 0.0117144 0.0184235 0.0279074 0.0295579 0.0412646 0.0586168 0.0315918 0.0550163 0.0625691 0.0525823 0.0627336 0.0601785 0.0551967 0.0784712 0.0720937 0.0469685 0.0921436 0.0537255 0.0637263
95 3 O -2.81617 15.3592 4.4844 -1.2 1 0.0167734 0.0203171 0.00850937 0.0258693 0.0298425 0.0236499 0.042675 0.0630827 0.042587 0.0510915 0.0372731 0.0724199 0.047488 0.0595232 0.0683559 0.0696368 0.0511383 0.074889 0.0643809 0.075831
96 3 O 0.862762 17.9465 4.4844 -1.2 1 0.0222239 0.0245261 0.0219407 0.0146539 0.0208403 0.046612 0.0353023 0.0521475 0.0456992 0.0530849 0.041091 0.0467791 0.0441643 0.0726667 0.104033 0.0571174 0.0705972 0.0528646 0.0739747 0.0701467
97 3 O -2.0185 17.6786 3.18632 -1.2 1 0.0250514 0.0112953 0.0190591 0.0181558 0.0186926 0.0361803 0.0416787 0.0538024 0.0418426 0.053626 0.0523086 0.0503741 0.0552929 0.0470341 0.0818065 0.0598955 0.069178 0.0667217 0.0651326 0.0681888
98 3 O -2.06164 17.6786 5.78248 -1.2 1 0.0181012 0.00846291 0.0208939 0.0220969 0.0154992 0.0267277 0.0497565 0.0442005 0.0377916 0.0373997 0.0575706 0.0378495 0.0557484 0.057134 0.081983 0.0682369 0.06902 0.0632123 0.0688323 0.0772043
99 1 Mg 1.39817 16.6215 2.9896 1.2 1 0.00612154 0.0163343 0.0190692 0.0224904 0.0181567 0.0361399 0.037159 0.0530649 0.0368941 0.0593654 0.0357659 0.056409 0.0234788 0.0672658 0.0470394 0.0806603 0.0498178 0.0910781 0.0449973 0.0888752
100 1 Mg 4.20062 16.5802 4.4844 1.2 1 0.0151491 0.0108322 0.0160748 0.0256873 0.0257748 0.031473 0.0386394 0.0354947 0.046639 0.0524018 0.0536757 0.0551975 0.0675323 0.0690442 0.0520767 0.0726867 0.0699333 0.0976508 0.0742509 0.0798329
101 2 Si 2.37796 18.645 4.4844 2.4 1 0.022125 0.0132856 0.0215736 0.0242983 0.0268011 0.0362805 0.0612944 0.0305684 0.0553918 0.0599857 0.0518119 0.0592529 0.0613151 0.0552379 0.0741704 0.0687315 0.0469653 0.0989847 0.0532006 0.0560395
102 3 O 2.39434 20.2583 4.4844 -1.2 1 0.025295 0.0128854 0.0078998 0.0196197 0.0221421 0.0226222 0.040109 0.0590296 0.0434765 0.0492632 0.0403782 0.0717143 0.0490734 0.0635392 0.0710418 0.067989 0.0500508 0.0675272 0.0656983 0.0785919
103 3 O -4.24274 17.671 4.4844 -1.2 1 0.0180424 0.0220298 0.0204208 0.0186417 0.02065 0.0489075 0.0346913 0.049481 0.0440495 0.0540001 0.0382834 0.0512903 0.0487794 0.0705049 0.100518 0.0619076 0.0760142 0.0535071 0.0773962 0.0715972
104 3 O 3.08659 17.9389 3.18632 -1.2 1 0.0283038 0.0127589 0.0216951 0.0114029 0.0172561 0.038209 0.0372108 0.0555709 0.0431658 0.0524188 0.055719 0.0479936 0.0519891 0.0500521 0.0805995 0.058484 0.0675775 0.0602076 0.064908 0.0691961
105 1 Mg 1.44478 16.6215 0 1.2 1 0.00950085 0.0120868 0.021749 0.0127117 0.026743 0.031628 0.0479142 0.0354612 0.0507237 0.0504548 0.0518195 0.0396492 0.0587275 0.0493872 0.0698094 0.0661042 0.0602177 0.0677498 0.0885829 0.0640114
106 3 O 3.0436 17.9389 5.78248 -1.2 1 0.0193503 0.00921542 0.0180795 0.0208572 0.0169786 0.0262869 0.0474487 0.0476097 0.039321 0.0400079 0.0580776 0.039775 0.0533246 0.0607881 0.0843539 0.0648992 0.0690718 0.0607466 0.0651395 0.0800167
107 1 Mg -1.40524 16.6628 1.4948 1.2 1 0.0116133 0.0125383 0.0256841 0.017717 0.0172981 0.0344979 0.0360016 0.0427554 0.0414991 0.0604365 0.0405281 0.0625056 0.0547936 0.0643769 0.0738278 0.0691311 0.0643762 0.0779316 0.0781963 0.075865
108 2 Si 0.420358 14.5979 1.4948 2.4 1 0.0225068 0.0191689 0.0290083 0.0260178 0.0177056 0.0385216 0.0391276 0.0418962 0.0443072 0.0551114 0.0426554 0.0614818 0.057627 0.0633538 0.0670917 0.0591903 0.0719026 0.0766073 0.0624977 0.0711274
109 3 O 0.408732 12.9847 1.4948 -1.2 1 0.022239 0.0155182 0.0229468 0.0255905 0.0169276 0.0472175 0.0437036 0.0539399 0.0361641 0.052809 0.0423248 0.06914 0.0532852 0.0570045 0.0660335 0.0635224 0.0712877 0.0549229 0.0684391 0.0715947
110 3 O 7.03923 15.572 1.4948 -1.2 1 0.0293053 0.0168662 0.0217504 0.0128069 0.0361019 0.0336912 0.0368368 0.0561034 0.0384227 0.0444721 0.0512613 0.0530629 0.0479507 0.0742916 0.0780556 0.0783198 0.0642931 0.0695835 0.0622579 0.0776461
111 3 O -0.248332 15.3041 0.196716 -1.2 1 0.0189781 0.0130213 0.0212051 0.0183821 0.0252026 0.0464913 0.0488037 0.0430639 0.039164 0.0447947 0.0378378 0.0306809 0.0607658 0.0540095 0.0700111 0.0642095 0.0832693 0.0503547 0.0703138 0.0722247
112 3 O -0.289436 15.3041 2.79288 -1.2 1 0.0184116 0.0154737 0.0269347 0.00975844 0.031354 0.0367024 0.0442016 0.047487 0.0437651 0.0403356 0.054037 0.0490901 0.0509396 0.0519923 0.0719007 0.0680065 0.071059 0.0553001 0.0690244 0.0765644
113 1 Mg 6.59566 18.996 0 1.2 1 0.0137806 0.0117201 0.0199149 0.0144375 0.0259616 0.0317751 0.0431344 0.0330589 0.0538496 0.0493175 0.0538204 0.0390263 0.0521889 0.0528702 0.0721303 0.0645515 0.0641682 0.064773 0.0860482 0.0707549
114 1 Mg 3.85574 23.7037 1.4948 1.2 1 0.0106562 0.0127433 0.0211296 0.0141121 0.0225329 0.0288377 0.0311746 0.0372967 0.0388911 0.060179 0.0466797 0.0623948 0.0499855 0.0669089 0.0648476 0.0723793 0.06655 0.0799071 0.0799396 0.0757495
115 2 Si 5.66125 21.0195 1.4948 2.4 1 0.00860964 0.0228195 0.0247383 0.0273588 0.0200413 0.0458267 0.033649 0.043411 0.0471718 0.05383 0.0442983 0.0615452 0.055972 0.0598023 0.0709684 0.0605456 0.0735373 0.0774741 0.0651286 0.0755458
116 3 O 5.72074 22.6328 1.4948 -1.2 1 0.0282237 0.0190811 0.0182414 0.0228175 0.0190842 0.0446101 0.0455202 0.0618701 0.0382548 0.0519524 0.0328322 0.0699174 0.0492218 0.0534798 0.0681715 0.0559025 0.0650829 0.0680462 0.0560885 0.0714227
117 3 O 2.03867 20.0455 1.4948 -1.2 1 0.0300403 0.0165072 0.0267681 0.0159018 0.0342047 0.0299712 0.0359123 0.0554272 0.0439588 0.0426971 0.0504327 0.0506234 0.0478409 0.0737428 0.0849367 0.072494 0.061784 0.0678937 0.0636731 0.0731461
118 3 O 4.96004 20.3134 0.196716 -1.2 1 0.0211222 0.0103643 0.0228892 0.0187083 0.023234 0.0452832 0.0439365 0.0479369 0.0389629 0.0398562 0.0411805 0.0343877 0.0647043 0.0477808 0.0696151 0.0729307 0.0716342 0.0579759 0.0713875 0.0720647
119 1 Mg 6.55057 18.996 2.9896 1.2 1 0.0105634 0.0169243 0.0199449 0.0233226 0.0214078 0.0346668 0.037021 0.0541277 0.0350698 0.0593879 0.0353238 0.0634196 0.0212526 0.0693467 0.0448477 0.0745496 0.0460309 0.0952251 0.0439723 0.0940094
120 3 O 4.92172 20.3134 2.79288 -1.2 1 0.00984783 0.0114713 0.0314258 0.015126 0.0301213 0.0396744 0.046169 0.0453263 0.0472733 0.0427919 0.0525299 0.0405966 0.0536534 0.0541553 0.0771467 0.0681968 0.0761352 0.0481675 0.0716124 0.0720187
121 1 Mg -0.84282 19.0373 4.4844 1.2 1 0.014542 0.0122892 0.0142787 0.028307 0.023302 0.0274645 0.0374896 0.0322874 0.0450378 0.0489898 0.0595263 0.0574721 0.0671457 0.068979 0.0587533 0.0726326 0.0713177 0.0936814 0.0730519 0.0828925
122 2 Si -2.64823 21.7214 4.4844 2.4 1 0.0200521 0.0129778 0.0172139 0.0276342 0.0280714 0.0409431 0.0566317 0.0316602 0.0548702 0.0628489 0.0521811 0.0636382 0.060021 0.0553264 0.0763967 0.0725731 0.045375 0.0938269 0.0539747 0.0639948
123 3 O -2.70847 20.1082 4.4844 -1.2 1 0.0143817 0.0202258 0.0133474 0.0268475 0.0240634 0.0246348 0.0389614 0.064446 0.0438677 0.0475738 0.0387662 0.0706623 0.0519496 0.0582625 0.0675555 0.0646424 0.0521659 0.0715825 0.0668809 0.0766337
124 3 O 0.97581 22.6955 4.4844 -1.2 1 0.0170538 0.0248328 0.0206394 0.0185027 0.0199174 0.0435061 0.0308623 0.0504207 0.0452867 0.0542264 0.0400354 0.045828 0.0459411 0.0721396 0.109439 0.0525177 0.067456 0.0564924 0.0746746 0.0672192
125 3 O -1.9076 22.4276 3.18632 -1.2 1 0.0217616 0.00813394 0.0208433 0.0163514 0.0136011 0.0364039 0.044048 0.0555204 0.0372756 0.0501005 0.0547987 0.0485796 0.0561511 0.0480066 0.0804181 0.0577485 0.0690404 0.0664509 0.0624109 0.0656055
126 3 O -1.9475 22.4276 5.78248 -1.2 1 0.0152389 0.0136262 0.0231537 0.0224625 0.0155039 0.025355 0.0483153 0.0441026 0.0373669 0.0385095 0.0574265 0.0380492 0.0550332 0.0579934 0.0837723 0.0678585 0.0692341 0.0629317 0.066742 0.077613