ITEM: TIMESTEP
5500
ITEM: NUMBER OF ATOMS
756
ITEM: BOX BOUNDS pp pp pp
-4.8435403183999997e+00 9.6870806368999993e+00
-1.0186409263300000e+01 2.0372818526500001e+01
-6.0013959751000003e+00 1.2002791950200001e+01
ITEM: ATOMS id type x y z q2 q3 q4 q5 q6 q7 q8 q9 q10 q11 q12
1 1 -0.138928 -10.1425 -0.0543722 0.174493  0.0700481  0.671401  0.103566  0.467733  0.132545  0.587209  0.166168  0.487847  0.19884  0.565069  
2 1 -0.111631 -7.42296 -4.43201 0.0514292  0.245635  0.66717  0.284806  0.28903  0.369594  0.534287  0.395284  0.270553  0.387056  0.525175  
3 2 -2.80569 -9.10093 -4.48317 0.120719  0.649442  0.465492  0.229877  0.57581  0.534207  0.339378  0.460289  0.511025  0.444049  0.485164  
4 3 -1.23896 -9.2122 -4.48032 0.133294  0.462053  0.361307  0.329068  0.278221  0.298872  0.491427  0.403475  0.25716  0.416622  0.416436  
5 3 -3.78746 -5.58662 -4.40057 0.144313  0.414071  0.363918  0.226279  0.289927  0.316902  0.475803  0.368415  0.232371  0.39922  0.398365  
6 3 -3.53932 -8.40005 -5.75825 0.152892  0.412013  0.340629  0.296046  0.263662  0.349093  0.45737  0.365977  0.297156  0.333515  0.408574  
7 1 -0.0457039 -10.2217 -3.04724 0.172095  0.0465257  0.669461  0.0770788  0.46067  0.0920633  0.60091  0.121811  0.49136  0.144163  0.584313  
8 3 -3.49636 -8.50378 -3.1676 0.126219  0.413695  0.343063  0.27072  0.272976  0.327828  0.480056  0.346096  0.249269  0.383964  0.380547  
9 1 -4.80358 -2.84159 -1.39886 0.0740574  0.279221  0.637179  0.333052  0.290948  0.380484  0.518452  0.40208  0.300711  0.360762  0.543023  
10 2 -2.19054 -0.962419 -1.54187 0.145306  0.641828  0.466016  0.287174  0.559972  0.511882  0.379485  0.48709  0.447728  0.484236  0.517198  
11 3 -3.71641 -0.98643 -1.52171 0.136573  0.449802  0.340971  0.296121  0.2853  0.321533  0.461543  0.407037  0.257382  0.374505  0.431582  
12 3 -1.07243 -4.55855 -1.51818 0.136181  0.426454  0.387522  0.228987  0.308858  0.336998  0.463921  0.395083  0.226433  0.408315  0.417626  
13 3 -1.44524 -1.67576 -2.7794 0.132875  0.376353  0.328835  0.261925  0.25994  0.332753  0.458163  0.323902  0.24317  0.385619  0.355899  
14 3 -1.40482 -1.6344 -0.292279 0.12689  0.430968  0.332368  0.22131  0.269332  0.367368  0.435483  0.344491  0.277714  0.404116  0.382794  
15 1 -2.42586 -5.01456 -2.94494 0.163856  0.0445405  0.678661  0.080473  0.450125  0.0855344  0.604907  0.119107  0.499383  0.14794  0.575554  
16 1 -2.41718 -7.95407 -1.43411 0.0803365  0.250577  0.649598  0.298074  0.322693  0.385417  0.483044  0.408655  0.342523  0.392687  0.45126  
17 2 -0.409856 -6.01267 -1.48698 0.0943734  0.672515  0.481339  0.16106  0.597673  0.562656  0.274573  0.482293  0.563394  0.400788  0.454707  
18 3 -3.60744 -5.93511 -1.46801 0.145481  0.428747  0.341207  0.316366  0.251245  0.290814  0.491768  0.378482  0.244801  0.383516  0.409221  
19 3 -1.45418 -9.69998 -1.60811 0.143509  0.435402  0.373378  0.230464  0.29703  0.345682  0.466863  0.372403  0.256776  0.417708  0.390739  
20 3 -1.08064 -6.75467 -2.72681 0.144627  0.412017  0.329646  0.269764  0.2539  0.320974  0.462016  0.365359  0.214965  0.396785  0.389539  
21 1 -2.38068 -4.98506 0.0109596 0.171539  0.0580931  0.66759  0.122794  0.455863  0.105739  0.59101  0.176642  0.476222  0.201511  0.567978  
22 3 -1.03769 -6.70339 -0.136732 0.145844  0.396952  0.324594  0.285197  0.260142  0.305398  0.466567  0.352236  0.21126  0.397023  0.377668  
23 1 -2.25631 -2.28119 -4.6756 0.0848638  0.301152  0.598561  0.367358  0.293544  0.376492  0.488732  0.412988  0.286144  0.41668  0.465429  
24 2 -4.48212 -4.05299 -4.40699 0.103595  0.663147  0.465773  0.179439  0.591738  0.548572  0.288027  0.484544  0.544853  0.37413  0.485757  
25 3 -1.28639 -4.13665 -4.50976 0.13134  0.475325  0.359465  0.264671  0.307952  0.347426  0.438582  0.401971  0.299191  0.381435  0.435044  
26 3 -3.52259 -0.51239 -4.4958 0.112331  0.411405  0.361734  0.222561  0.301402  0.348135  0.440003  0.361172  0.264981  0.385334  0.377842  
27 3 -3.83818 -3.48106 -5.75219 0.146053  0.425931  0.306752  0.268213  0.26902  0.290227  0.479633  0.371893  0.20287  0.415346  0.385205  
28 3 -3.91708 -3.37853 -3.10928 0.1623  0.370244  0.326533  0.317714  0.260246  0.307863  0.46833  0.34222  0.277393  0.346354  0.359281  
30 1 0.011267 -7.28496 1.55307 0.0720322  0.270723  0.636456  0.315791  0.312845  0.401465  0.477427  0.40358  0.352793  0.371456  0.485391  
31 2 -2.81589 -9.21881 1.52138 0.134696  0.656192  0.466865  0.255563  0.578911  0.533504  0.345728  0.48146  0.501873  0.449549  0.495001  
32 3 -1.2929 -9.32119 1.47583 0.151893  0.436145  0.347787  0.32743  0.251491  0.261801  0.494867  0.394351  0.230411  0.420543  0.403362  
33 3 -3.7892 -5.57389 1.64546 0.144866  0.419297  0.344382  0.246456  0.28803  0.296109  0.467231  0.384898  0.220987  0.40369  0.39403  
34 3 -3.44504 -8.52948 0.219007 0.147927  0.412099  0.322485  0.269076  0.260517  0.30198  0.466405  0.353708  0.213248  0.406846  0.385393  
36 3 -3.55814 -8.5926 2.80841 0.122863  0.401351  0.323199  0.260553  0.244934  0.346073  0.446303  0.344928  0.237143  0.379524  0.374319  
51 1 -2.34827 -2.27839 1.51707 0.0743204  0.243455  0.64679  0.312172  0.299033  0.353908  0.519965  0.399403  0.295081  0.362667  0.524566  
52 2 -4.44533 -4.12222 1.62479 0.108695  0.667697  0.475778  0.199001  0.583576  0.556781  0.311233  0.46681  0.546612  0.434741  0.451637  
53 3 -1.22668 -4.1732 1.52651 0.141465  0.460781  0.357939  0.308199  0.275854  0.31988  0.483639  0.38686  0.267764  0.398394  0.425138  
54 3 -3.47495 -0.542102 1.46023 0.150381  0.381814  0.344886  0.261758  0.268686  0.278687  0.491312  0.363644  0.220054  0.35524  0.394492  
55 3 -3.85029 -3.45517 0.324747 0.148954  0.435517  0.347668  0.262385  0.264774  0.34429  0.473764  0.347278  0.270041  0.4267  0.362932  
56 3 -3.72876 -3.43807 2.89242 0.150561  0.402118  0.312633  0.296574  0.249957  0.305789  0.469035  0.359739  0.243027  0.361101  0.390545  
253 1 4.79836 -10.1521 0.0100507 0.183981  0.0398778  0.671912  0.0566464  0.478474  0.079434  0.600093  0.0953583  0.504807  0.125595  0.594506  
254 1 4.75485 -7.35855 -4.54603 0.0737768  0.253784  0.66803  0.273221  0.313501  0.389536  0.515258  0.381009  0.319994  0.411163  0.487839  
255 2 2.06917 -9.25472 -4.44313 0.101264  0.66539  0.482391  0.188848  0.582912  0.555992  0.301596  0.477434  0.541788  0.43264  0.454982  
256 3 3.60294 -9.33373 -4.52059 0.143644  0.445103  0.349828  0.288898  0.245701  0.309827  0.477742  0.377249  0.260939  0.398895  0.414727  
257 3 0.989752 -5.58997 -4.51956 0.139527  0.39357  0.360812  0.226727  0.281238  0.308086  0.47214  0.374885  0.201903  0.399712  0.383647  
258 3 1.43159 -8.50989 -5.72064 0.160324  0.407958  0.344263  0.272854  0.273625  0.328904  0.475144  0.341029  0.257151  0.396691  0.371754  
259 1 4.77517 -10.1934 -2.92826 0.178925  0.0439299  0.680547  0.0634003  0.475968  0.0774602  0.601752  0.0984437  0.51395  0.127639  0.590126  
260 3 1.41137 -8.5139 -3.1548 0.161776  0.377067  0.327655  0.28705  0.27329  0.27515  0.489568  0.343812  0.226232  0.361178  0.384395  
261 1 0.0811175 -2.84903 -1.43988 0.0698534  0.280148  0.638958  0.319757  0.290113  0.395001  0.511838  0.395247  0.291364  0.384428  0.532486  
262 2 2.71342 -0.878657 -1.39432 0.119236  0.65809  0.476278  0.226399  0.57435  0.542747  0.329765  0.479481  0.511034  0.452496  0.478146  
263 3 1.17052 -0.887874 -1.44308 0.142523  0.457361  0.351227  0.313303  0.279626  0.300361  0.486585  0.399755  0.241452  0.412725  0.419888  
264 3 3.75851 -4.51426 -1.50708 0.141005  0.409358  0.347797  0.237084  0.280207  0.287191  0.488143  0.370492  0.201952  0.387896  0.409251  
265 3 3.42971 -1.56574 -2.69318 0.129691  0.442829  0.351999  0.235684  0.278452  0.375698  0.457166  0.3328  0.292978  0.424448  0.351195  
266 3 3.44351 -1.56967 -0.160411 0.142606  0.42867  0.34913  0.258867  0.281907  0.337225  0.47131  0.354584  0.226003  0.417669  0.397623  
267 1 2.37961 -5.11023 -3.03602 0.16296  0.0345824  0.688137  0.0626436  0.456474  0.0581559  0.61659  0.0932974  0.504787  0.107861  0.594586  
268 1 2.3541 -7.90578 -1.45255 0.0752609  0.255186  0.653121  0.30165  0.311707  0.381976  0.503232  0.406686  0.323692  0.380513  0.489077  
269 2 4.50262 -6.00623 -1.56279 0.142181  0.657377  0.471995  0.259039  0.568445  0.529752  0.365474  0.48401  0.483187  0.474254  0.501878  
270 3 1.13794 -6.01228 -1.54836 0.144642  0.447087  0.346998  0.308474  0.261148  0.268282  0.48598  0.396421  0.217455  0.429228  0.412613  
271 3 3.39145 -9.74018 -1.52823 0.133385  0.429712  0.366316  0.211219  0.300741  0.33466  0.445982  0.379343  0.249035  0.422246  0.381546  
272 3 3.75299 -6.68114 -2.82777 0.132459  0.421971  0.340083  0.257841  0.262009  0.325562  0.484147  0.350447  0.211653  0.4013  0.396327  
273 1 2.35622 -5.0506 -0.0186479 0.178307  0.0362622  0.684046  0.0469746  0.47974  0.0740685  0.602907  0.0819346  0.520935  0.101827  0.592919  
274 3 3.78326 -6.69028 -0.266969 0.145445  0.441838  0.327699  0.241736  0.274076  0.339306  0.46059  0.360869  0.242256  0.416115  0.389945  
275 1 2.57072 -2.29328 -4.44755 0.0819846  0.278036  0.633512  0.335917  0.284537  0.375164  0.512423  0.412535  0.282546  0.363024  0.541034  
276 2 0.327448 -4.16516 -4.4616 0.107274  0.666362  0.479362  0.188747  0.581878  0.548389  0.304365  0.483525  0.538986  0.415534  0.472871  
277 3 3.56796 -4.11085 -4.49383 0.124123  0.45975  0.359455  0.301453  0.270424  0.330946  0.482299  0.38367  0.281514  0.392967  0.416645  
278 3 1.38261 -0.549597 -4.46207 0.129961  0.39617  0.36301  0.216695  0.292907  0.307682  0.464887  0.37114  0.203084  0.39371  0.401384  
279 3 0.925848 -3.52953 -5.80781 0.165008  0.407328  0.326441  0.274131  0.265699  0.299663  0.47069  0.354448  0.243222  0.39379  0.395506  
280 3 1.00745 -3.48682 -3.20044 0.138702  0.416254  0.334627  0.280184  0.263145  0.313866  0.490477  0.354025  0.219928  0.401719  0.389649  
282 1 4.75871 -7.3244 1.43822 0.078737  0.273401  0.634479  0.33309  0.300974  0.379588  0.511856  0.397946  0.315423  0.365275  0.534003  
283 2 2.05204 -9.24003 1.48092 0.133051  0.652371  0.475178  0.262328  0.56878  0.529591  0.361806  0.480856  0.48173  0.477582  0.494738  
284 3 3.61118 -9.1727 1.45512 0.147429  0.453902  0.346233  0.307225  0.287151  0.298927  0.47082  0.404695  0.254711  0.408322  0.417607  
285 3 1.05908 -5.53449 1.49467 0.143914  0.435744  0.354475  0.215969  0.294517  0.333145  0.44833  0.388435  0.237246  0.414276  0.409325  
286 3 1.35431 -8.53244 0.215804 0.141928  0.423497  0.325901  0.246232  0.264614  0.325813  0.465703  0.355678  0.225869  0.400523  0.396036  
288 3 1.31357 -8.56151 2.7412 0.131327  0.432275  0.32235  0.2484  0.255382  0.346644  0.449893  0.361359  0.240524  0.395192  0.400278  
303 1 2.51097 -2.18479 1.53618 0.0726887  0.280818  0.644326  0.313763  0.292557  0.403733  0.50337  0.395147  0.295044  0.403686  0.523621  
304 2 0.353013 -4.07095 1.5535 0.134901  0.658503  0.465295  0.243115  0.575897  0.529224  0.346646  0.484682  0.499616  0.442581  0.503852  
305 3 3.60043 -4.17456 1.5276 0.142362  0.429936  0.346972  0.306477  0.238202  0.303035  0.485503  0.369672  0.264027  0.386644  0.394113  
306 3 1.38253 -0.539613 1.53003 0.160155  0.374805  0.343935  0.252463  0.271349  0.260691  0.489062  0.37063  0.177911  0.375192  0.397946  
307 3 1.05132 -3.43551 0.269494 0.143258  0.443897  0.328604  0.255871  0.264072  0.356985  0.469145  0.341203  0.256225  0.421703  0.385315  
308 3 1.03643 -3.4661 2.80799 0.142497  0.435692  0.353544  0.269699  0.264032  0.352508  0.489195  0.338033  0.239368  0.422308  0.395948  
505 1 9.64831 -10.2672 0.0355047 0.170107  0.0748572  0.670901  0.119798  0.456429  0.131822  0.589663  0.181205  0.476766  0.219527  0.559617  
506 1 9.64592 -7.3446 -4.49601 0.0683999  0.230079  0.668621  0.299931  0.306809  0.340604  0.530488  0.418598  0.290673  0.369965  0.504365  
507 2 6.88595 -9.18914 -4.46147 0.133697  0.659115  0.468904  0.246392  0.576508  0.537858  0.347308  0.476741  0.504737  0.456195  0.487388  
508 3 8.43781 -9.24471 -4.4577 0.151112  0.451411  0.34707  0.330951  0.271416  0.279048  0.500385  0.399662  0.22339  0.413826  0.416674  
509 3 5.88647 -5.56333 -4.46288 0.138822  0.37396  0.34277  0.22786  0.243398  0.281559  0.475132  0.36526  0.180235  0.384815  0.387311  
510 3 6.23934 -8.52798 -5.76044 0.148325  0.420344  0.336301  0.266549  0.255444  0.33293  0.484012  0.331784  0.24512  0.413051  0.375589  
511 1 9.65955 -10.0442 -2.93833 0.179711  0.0574631  0.662445  0.0953324  0.470905  0.106231  0.592112  0.139451  0.481696  0.17788  0.586589  
512 3 6.11727 -8.57983 -3.23725 0.118862  0.44433  0.334727  0.244063  0.276236  0.368012  0.45659  0.343345  0.269132  0.406881  0.378781  
513 1 4.82196 -2.78122 -1.44684 0.0677715  0.245619  0.6615  0.273837  0.310982  0.383797  0.514606  0.370867  0.329108  0.39917  0.488356  
514 2 7.55032 -0.949752 -1.49453 0.111935  0.666642  0.473866  0.204652  0.584249  0.551388  0.307229  0.487635  0.529773  0.422394  0.481711  
515 3 6.00855 -0.800198 -1.4533 0.139709  0.454534  0.363159  0.299846  0.276968  0.317422  0.474034  0.389629  0.284202  0.395775  0.405877  
516 3 8.6714 -4.58627 -1.46952 0.13223  0.437067  0.373142  0.203018  0.340034  0.348225  0.437613  0.394922  0.259754  0.423408  0.377856  
517 3 8.12558 -1.65651 -2.79301 0.165954  0.399083  0.367239  0.2712  0.252158  0.36633  0.452999  0.330722  0.298803  0.395592  0.362218  
518 3 8.23783 -1.61804 -0.239383 0.141799  0.414701  0.322355  0.23797  0.256997  0.333703  0.462372  0.339803  0.241412  0.405563  0.376887  
519 1 7.23671 -4.91051 -2.85465 0.170561  0.0832977  0.637203  0.215007  0.430511  0.196211  0.55453  0.276817  0.391243  0.342997  0.494889  
520 1 7.12005 -7.92699 -1.4466 0.0636183  0.261902  0.642402  0.313863  0.287295  0.381813  0.519407  0.389028  0.281126  0.370003  0.544712  
521 2 9.37041 -6.03803 -1.44572 0.12093  0.658213  0.467606  0.236817  0.577696  0.542543  0.331631  0.478257  0.507011  0.448356  0.48865  
522 3 5.9784 -5.94237 -1.53752 0.153715  0.449724  0.343093  0.32477  0.278033  0.290441  0.489167  0.390275  0.263581  0.411801  0.39126  
523 3 8.23253 -9.6437 -1.40072 0.139469  0.40092  0.338812  0.231178  0.29876  0.31302  0.46314  0.365635  0.239296  0.376954  0.382481  
524 3 8.65958 -6.71241 -2.74468 0.146812  0.381767  0.307438  0.262742  0.245538  0.290652  0.472078  0.341753  0.197304  0.384444  0.378002  
525 1 7.2762 -4.98608 -0.0026032 0.169871  0.0477778  0.65806  0.12123  0.455745  0.11941  0.586157  0.164695  0.476621  0.202552  0.560245  
526 3 8.67308 -6.70293 -0.157112 0.146026  0.424248  0.317133  0.276557  0.274599  0.311805  0.480099  0.356888  0.217814  0.406102  0.387835  
527 1 7.31386 -2.29895 -4.49185 0.074692  0.23156  0.664694  0.307576  0.303467  0.323283  0.540291  0.421676  0.276536  0.352991  0.530598  
528 2 5.19871 -4.01894 -4.52549 0.114369  0.644148  0.461241  0.215269  0.568124  0.537945  0.316788  0.46015  0.517226  0.427826  0.472705  
529 3 8.42002 -4.07327 -4.48757 0.139341  0.458184  0.358104  0.284294  0.283301  0.317915  0.463407  0.389246  0.268373  0.409593  0.427905  
530 3 6.1786 -0.537064 -4.56409 0.135346  0.397325  0.36239  0.224125  0.28031  0.310703  0.477948  0.363616  0.228698  0.376025  0.408686  
531 3 5.9372 -3.40667 -5.81848 0.129679  0.418632  0.336574  0.292011  0.27373  0.328953  0.473586  0.362585  0.251973  0.375531  0.392609  
532 3 5.83981 -3.36577 -3.19223 0.133112  0.417186  0.347491  0.283103  0.259812  0.33911  0.473036  0.339914  0.281924  0.398566  0.368704  
534 1 9.65027 -7.28643 1.46769 0.0765959  0.267903  0.631458  0.324636  0.311611  0.391047  0.485029  0.397533  0.340742  0.383602  0.489024  
535 2 6.88923 -9.19048 1.52563 0.133362  0.654564  0.465906  0.25236  0.575462  0.533273  0.350515  0.475372  0.496807  0.458076  0.494236  
536 3 8.45368 -9.26832 1.4869 0.143263  0.427731  0.327277  0.310824  0.25147  0.292065  0.476328  0.386451  0.24206  0.379206  0.401988  
537 3 5.92053 -5.55037 1.58128 0.134259  0.403857  0.335068  0.198646  0.273619  0.312004  0.455186  0.361696  0.23405  0.382845  0.389774  
538 3 6.15896 -8.49534 0.300047 0.136822  0.441147  0.348672  0.247076  0.282684  0.369768  0.460631  0.354556  0.271667  0.408391  0.392789  
540 3 6.19408 -8.62578 2.80308 0.1401  0.430463  0.337716  0.274371  0.26542  0.351339  0.482642  0.339965  0.260754  0.408636  0.360959  
555 1 7.25919 -2.27102 1.51485 0.0927614  0.253453  0.636435  0.338825  0.30709  0.352841  0.49269  0.437198  0.326094  0.342956  0.495979  
556 2 5.16721 -4.06672 1.56246 0.138389  0.655382  0.460734  0.256356  0.575524  0.522861  0.348654  0.496929  0.484201  0.434474  0.523718  
557 3 8.51708 -4.25256 1.59384 0.142565  0.436233  0.350806  0.3092  0.259281  0.275554  0.486759  0.384608  0.249693  0.413585  0.387639  
558 3 6.2941 -0.449301 1.51261 0.151681  0.412243  0.363423  0.229494  0.279602  0.294598  0.478711  0.373726  0.210718  0.416099  0.394118  
559 3 5.87293 -3.47666 0.219989 0.130227  0.435469  0.33827  0.273042  0.299019  0.309697  0.482104  0.368316  0.223404  0.413141  0.388627  
560 3 5.83839 -3.44862 2.80702 0.142234  0.411984  0.347297  0.270711  0.26953  0.341825  0.490468  0.328481  0.252401  0.406957  0.355376  
85 1 -0.0685117 0.0345446 -0.00661912 0.176549  0.0504289  0.672148  0.0771705  0.473563  0.0939153  0.594031  0.123613  0.50457  0.143113  0.579582  
86 1 -0.100401 2.77764 -4.50425 0.0642909  0.268943  0.660663  0.286317  0.300147  0.393145  0.515741  0.388904  0.306247  0.39772  0.50462  
87 2 -2.76742 0.921214 -4.39939 0.117031  0.651909  0.483361  0.22511  0.567323  0.544368  0.336295  0.462646  0.516509  0.471769  0.451918  
88 3 -1.20855 0.832909 -4.44859 0.135501  0.4507  0.361549  0.300926  0.266877  0.305579  0.482608  0.387107  0.259238  0.414408  0.405365  
89 3 -3.84521 4.61113 -4.49983 0.135104  0.39628  0.344866  0.212206  0.283677  0.3071  0.455114  0.369826  0.219208  0.39961  0.372402  
90 3 -3.34456 1.65984 -5.73102 0.167396  0.388695  0.358946  0.275781  0.248113  0.362115  0.461338  0.322348  0.29774  0.389215  0.343857  
91 1 -0.0215196 -0.0283983 -2.9876 0.181429  0.038509  0.676112  0.0454497  0.472862  0.0747492  0.608851  0.0792402  0.500124  0.110891  0.606865  
92 3 -3.50271 1.58408 -3.17516 0.149925  0.40615  0.318518  0.293717  0.270379  0.274864  0.507711  0.353907  0.188456  0.394248  0.400929  
93 1 -4.67809 7.32173 -1.61699 0.0890236  0.27405  0.632183  0.344341  0.28345  0.368179  0.505658  0.421332  0.28524  0.373048  0.524613  
94 2 -2.06211 9.19198 -1.45051 0.126608  0.658134  0.472233  0.232945  0.568831  0.537858  0.339763  0.48423  0.496529  0.45332  0.496021  
95 3 -3.66125 9.20746 -1.54311 0.139332  0.469283  0.358507  0.305151  0.281284  0.336116  0.477796  0.39037  0.273359  0.391672  0.433789  
96 3 -1.04723 5.59919 -1.41416 0.134602  0.398918  0.371102  0.212087  0.283634  0.323137  0.47395  0.369562  0.226021  0.384272  0.399158  
97 3 -1.28335 8.47186 -2.66572 0.129038  0.422774  0.332043  0.232671  0.230256  0.37673  0.44381  0.318601  0.287516  0.394274  0.380624  
98 3 -1.41821 8.54878 -0.137555 0.165714  0.41601  0.352373  0.278923  0.280662  0.297673  0.497678  0.360837  0.21756  0.405174  0.413171  
99 1 -2.38811 5.21799 -2.95354 0.177118  0.0906475  0.644216  0.184518  0.448112  0.176609  0.554542  0.25896  0.420927  0.311348  0.51785  
100 1 -2.57994 2.27327 -1.54145 0.090012  0.268591  0.652411  0.317151  0.310561  0.360571  0.52373  0.404669  0.320204  0.356796  0.53602  
101 2 -0.365978 4.12059 -1.51673 0.111212  0.670318  0.474329  0.191956  0.587003  0.550089  0.300609  0.488611  0.540013  0.404106  0.48716  
102 3 -3.58109 4.05729 -1.49058 0.14443  0.467521  0.350295  0.272795  0.309083  0.335212  0.434014  0.407175  0.292946  0.394265  0.428223  
103 3 -1.46647 0.510599 -1.63095 0.138938  0.390767  0.372534  0.225488  0.29407  0.314082  0.464014  0.366846  0.236736  0.380716  0.388807  
104 3 -1.04286 3.53833 -2.86083 0.145725  0.413849  0.315436  0.292563  0.24917  0.283865  0.492021  0.354459  0.177296  0.40944  0.388849  
105 1 -2.42233 5.00592 0.0686272 0.172396  0.0446743  0.66604  0.11695  0.462442  0.0925816  0.590035  0.157855  0.491465  0.192915  0.557666  
106 3 -0.985827 3.41237 -0.208602 0.155433  0.414225  0.326524  0.27142  0.264886  0.312926  0.458692  0.366755  0.247057  0.388362  0.390597  
107 1 -2.25881 7.83296 -4.57664 0.0796797  0.256987  0.653503  0.300894  0.305074  0.366966  0.522453  0.393047  0.317117  0.359128  0.528917  
108 2 -4.52738 6.08815 -4.58706 0.148209  0.641087  0.462714  0.277675  0.547513  0.51695  0.383897  0.46434  0.471644  0.481906  0.488488  
109 3 -1.17564 6.01747 -4.47604 0.141677  0.452056  0.347264  0.322197  0.266173  0.289546  0.495977  0.395632  0.215697  0.408114  0.420255  
110 3 -3.36813 9.61179 -4.67456 0.145921  0.378397  0.368126  0.233236  0.282758  0.281545  0.457737  0.37778  0.212157  0.391993  0.369715  
111 3 -3.70591 6.71998 -5.81077 0.137532  0.459021  0.34201  0.272962  0.278371  0.337255  0.493761  0.374772  0.246255  0.408403  0.433106  
112 3 -3.84057 6.68345 -3.29021 0.163786  0.431296  0.339023  0.258346  0.301129  0.35117  0.468153  0.345003  0.301774  0.408813  0.348496  
114 1 0.0629093 2.84589 1.43108 0.0754929  0.25437  0.652595  0.289786  0.322915  0.395246  0.483487  0.399381  0.347796  0.406301  0.441425  
115 2 -2.73209 0.954908 1.45747 0.123497  0.662576  0.470725  0.229444  0.582135  0.544872  0.326183  0.487433  0.511782  0.439898  0.489234  
116 3 -1.19272 0.895002 1.51511 0.153337  0.465655  0.35879  0.30685  0.284673  0.30826  0.47901  0.402181  0.24977  0.419044  0.43692  
117 3 -3.80654 4.58221 1.52488 0.147189  0.413027  0.368811  0.225964  0.307029  0.310891  0.474066  0.380443  0.214956  0.404477  0.404627  
118 3 -3.37138 1.65341 0.214677 0.165272  0.409496  0.365768  0.267494  0.287695  0.342729  0.464771  0.345481  0.274816  0.4026  0.379293  
120 3 -3.46208 1.63787 2.74205 0.138885  0.423779  0.329663  0.240057  0.258299  0.34343  0.463409  0.339241  0.232946  0.412843  0.383612  
135 1 -2.3051 7.81005 1.48398 0.0668732  0.232905  0.68272  0.278484  0.31244  0.354568  0.53191  0.409421  0.303012  0.392938  0.484572  
136 2 -4.52505 6.13131 1.51728 0.148753  0.634114  0.455981  0.291688  0.561267  0.510599  0.381944  0.469863  0.451168  0.481341  0.512478  
137 3 -1.19616 6.06974 1.56968 0.143075  0.456052  0.341226  0.318318  0.277287  0.287877  0.492077  0.404011  0.219374  0.412464  0.420451  
138 3 -3.40381 9.70022 1.58943 0.137873  0.386382  0.362867  0.201193  0.282066  0.331705  0.457701  0.341522  0.260774  0.383851  0.360205  
139 3 -3.73664 6.7516 0.252061 0.129815  0.407913  0.340315  0.258326  0.241722  0.332644  0.4855  0.325038  0.251216  0.392805  0.386803  
140 3 -3.74683 6.77264 2.81779 0.135483  0.415756  0.334897  0.277718  0.265408  0.326836  0.491931  0.356927  0.237834  0.367197  0.405001  
337 1 4.88645 0.0477972 0.0639239 0.173398  0.0343599  0.681766  0.0386955  0.475312  0.0588812  0.610288  0.0683284  0.503254  0.0809094  0.614922  
338 1 4.85354 2.78714 -4.50088 0.0673725  0.243688  0.667598  0.280616  0.317143  0.36534  0.527268  0.377679  0.339284  0.375105  0.504551  
339 2 2.08361 0.951174 -4.52763 0.119028  0.661295  0.474806  0.223274  0.579707  0.54674  0.327822  0.47513  0.520021  0.449657  0.472474  
340 3 3.63079 0.860197 -4.47329 0.146304  0.449216  0.350565  0.319721  0.265077  0.297442  0.48722  0.391773  0.242213  0.402123  0.420037  
341 3 1.09054 4.54577 -4.4721 0.129587  0.392682  0.357481  0.213508  0.289076  0.306427  0.466945  0.365527  0.219812  0.3806  0.390697  
342 3 1.39077 1.6363 -5.80756 0.149502  0.41065  0.332161  0.29309  0.252297  0.312149  0.495599  0.345409  0.226475  0.382824  0.402214  
343 1 4.8495 -0.107252 -3.07039 0.174673  0.0870602  0.656344  0.177952  0.463831  0.164346  0.56335  0.244945  0.437212  0.293269  0.538775  
344 3 1.41023 1.62517 -3.30681 0.138361  0.411878  0.343132  0.231156  0.246603  0.364963  0.459307  0.311961  0.260086  0.427512  0.343265  
345 1 0.090061 7.36141 -1.45016 0.0756462  0.249225  0.667971  0.283542  0.307623  0.371679  0.521843  0.397393  0.30769  0.390037  0.500578  
346 2 2.78153 9.14984 -1.48143 0.128146  0.658784  0.471474  0.231402  0.577944  0.537181  0.335622  0.480105  0.512915  0.441773  0.487159  
347 3 1.20969 9.22927 -1.38493 0.150977  0.458445  0.356584  0.300499  0.258885  0.326495  0.471833  0.381882  0.280439  0.39846  0.420878  
348 3 3.82092 5.59524 -1.48638 0.138376  0.404331  0.357614  0.236198  0.277034  0.301984  0.470141  0.385985  0.190972  0.399799  0.404335  
349 3 3.45525 8.58196 -2.79138 0.142667  0.420606  0.339391  0.272604  0.29838  0.322641  0.475322  0.348991  0.25673  0.39062  0.378804  
350 3 3.45974 8.44028 -0.243836 0.152109  0.410185  0.331138  0.279613  0.276965  0.300212  0.478883  0.36424  0.226204  0.388744  0.392203  
351 1 2.50263 5.05311 -2.99781 0.170449  0.041788  0.680029  0.0397904  0.461014  0.0795158  0.610806  0.0812487  0.502684  0.102254  0.597129  
352 1 2.27148 2.27625 -1.41213 0.0788847  0.267092  0.642896  0.329467  0.294923  0.357676  0.531266  0.396274  0.294988  0.355088  0.55012  
353 2 4.47537 4.12186 -1.47113 0.114915  0.667252  0.475872  0.197307  0.578106  0.549632  0.320578  0.471398  0.540682  0.431772  0.460627  
354 3 1.17004 4.12997 -1.4754 0.143123  0.443981  0.346907  0.306208  0.264855  0.279003  0.491417  0.391764  0.225873  0.417385  0.406805  
355 3 3.37561 0.617182 -1.45504 0.16013  0.355224  0.345793  0.251536  0.274376  0.263888  0.493044  0.362436  0.185661  0.342478  0.402846  
356 3 3.82626 3.50077 -2.81455 0.138416  0.417291  0.315531  0.278474  0.249392  0.289645  0.4904  0.354809  0.191233  0.407366  0.385179  
357 1 2.44426 5.1037 0.0480294 0.165489  0.0481211  0.682315  0.0623408  0.463429  0.0932128  0.604712  0.104799  0.504423  0.137282  0.586177  
358 3 3.78587 3.43442 -0.223888 0.126714  0.421321  0.340934  0.25457  0.253045  0.344884  0.45715  0.347915  0.26105  0.39013  0.392899  
359 1 2.45566 7.93889 -4.52519 0.0699648  0.259247  0.651249  0.301152  0.301418  0.393871  0.504832  0.399427  0.310484  0.382055  0.506748  
360 2 0.392234 6.02026 -4.49649 0.111807  0.669343  0.480865  0.205319  0.582826  0.549484  0.316089  0.483367  0.532926  0.433994  0.475238  
361 3 3.74552 6.00154 -4.46825 0.14442  0.451932  0.34302  0.312935  0.255952  0.270026  0.498224  0.394113  0.209951  0.430923  0.413309  
362 3 1.36729 9.76173 -4.46483 0.134096  0.421911  0.352703  0.220847  0.280417  0.312174  0.470389  0.372127  0.220911  0.40804  0.405791  
363 3 1.10021 6.74641 -5.69444 0.134266  0.435444  0.339963  0.244488  0.271344  0.360389  0.458348  0.353552  0.25861  0.405499  0.38721  
364 3 1.00361 6.63656 -3.18709 0.15153  0.401294  0.328958  0.255341  0.241078  0.311659  0.466338  0.343371  0.229395  0.398466  0.372357  
366 1 4.85526 2.86904 1.5845 0.0543516  0.243342  0.660709  0.284296  0.304866  0.37766  0.524962  0.381455  0.308987  0.382238  0.509633  
367 2 2.03496 0.964701 1.51679 0.113383  0.660169  0.472476  0.213697  0.586164  0.546078  0.312803  0.483547  0.524142  0.424444  0.481392  
368 3 3.63888 1.00076 1.59169 0.133947  0.437157  0.338353  0.329771  0.266503  0.26444  0.494076  0.392695  0.226562  0.403554  0.39512  
369 3 1.11212 4.59774 1.56935 0.141953  0.435972  0.358545  0.225606  0.296381  0.327658  0.472843  0.375644  0.229665  0.408065  0.41386  
370 3 1.34999 1.62238 0.252665 0.142717  0.453864  0.360608  0.269124  0.290959  0.354693  0.482066  0.374597  0.243789  0.433038  0.402038  
372 3 1.34927 1.5736 2.78357 0.13014  0.429627  0.333368  0.266304  0.281299  0.340641  0.472754  0.348001  0.243373  0.410556  0.372943  
387 1 2.47549 7.8488 1.49377 0.0859974  0.237722  0.649365  0.314208  0.310993  0.344101  0.501495  0.43336  0.303308  0.363505  0.48334  
388 2 0.372866 6.07088 1.55828 0.12285  0.658465  0.464134  0.222557  0.582786  0.537989  0.323089  0.48886  0.508618  0.414222  0.506122  
389 3 3.65556 5.98833 1.46636 0.140332  0.45595  0.354413  0.333972  0.265317  0.284867  0.513312  0.389155  0.24108  0.410649  0.414529  
390 3 1.48954 9.72868 1.64275 0.131992  0.414848  0.376407  0.206789  0.286948  0.347926  0.436269  0.353432  0.265135  0.432556  0.335242  
391 3 0.993177 6.66545 0.164763 0.164916  0.398854  0.330455  0.308727  0.285548  0.272611  0.500348  0.352997  0.233262  0.381959  0.381785  
392 3 1.07137 6.7492 2.79747 0.14363  0.429973  0.345563  0.284176  0.257102  0.333785  0.497213  0.360793  0.231461  0.401867  0.394922  
589 1 9.65063 0.184588 0.024991 0.173942  0.123112  0.643746  0.200216  0.448628  0.233275  0.528186  0.281451  0.422626  0.365771  0.468625  
590 1 9.60072 2.7568 -4.46078 0.0680331  0.248598  0.65907  0.291103  0.300706  0.371189  0.521677  0.395361  0.302459  0.373055  0.516054  
591 2 6.8909 0.925206 -4.57846 0.118856  0.657203  0.473196  0.228703  0.572637  0.544568  0.330439  0.470538  0.518024  0.449558  0.470642  
592 3 8.48182 0.860898 -4.51249 0.140811  0.459047  0.3554  0.315706  0.285652  0.305631  0.486097  0.399286  0.251338  0.401014  0.421097  
593 3 5.95949 4.50956 -4.50434 0.14385  0.394452  0.347965  0.230351  0.262686  0.277881  0.482364  0.374038  0.169934  0.391224  0.408522  
594 3 6.15674 1.57653 -5.85561 0.131841  0.430434  0.343394  0.274564  0.275835  0.319187  0.490898  0.363006  0.20938  0.408035  0.400275  
595 1 9.55331 -0.141262 -3.12853 0.165885  0.104724  0.649287  0.219237  0.437863  0.195073  0.554831  0.289882  0.390546  0.354127  0.505264  
596 3 6.27329 1.60164 -3.30451 0.144056  0.416328  0.337406  0.266919  0.248571  0.339542  0.477574  0.338235  0.256482  0.415403  0.356322  
597 1 4.91512 7.38655 -1.464 0.049066  0.231091  0.67483  0.253882  0.303385  0.37013  0.541693  0.35677  0.304116  0.402697  0.503942  