ITEM: TIMESTEP
5500
ITEM: NUMBER OF ATOMS
756
ITEM: BOX BOUNDS pp pp pp
-4.8435403184 9.6870806369
-10.1864092633 20.3728185265
-6.0013959751 12.0027919502
ITEM: ATOMS id type x y z coord q2 q3 q4 q5 q6 q7 q8 q2_mono q3_mono q4_mono q5_mono q6_mono q7_mono q8_mono
1 1 -0.138928 -10.1425 -0.0543722 29 0.0210051  0.00293076  0.0203061  0.00441836  0.0369777  0.00626503  0.135258  0.0616311  0.00580788  0.200936  0.00860649  0.28354  0.0161865  0.310004  
2 1 -0.111631 -7.42296 -4.43201 28 0.024501  0.0128558  0.0236537  0.0159634  0.0342188  0.0276027  0.14341  0.095357  0.0721655  0.136445  0.0570743  0.337464  0.131286  0.298812  
3 2 -2.80569 -9.10093 -4.48317 25 0.0267481  0.0143962  0.02288  0.0130609  0.0381304  0.0243336  0.152735  0.566439  0.280414  0.725353  0.193586  0.751551  0.251716  0.608263  
4 3 -1.23896 -9.2122 -4.48032 22 0.0249881  0.017176  0.0207168  0.012472  0.032766  0.0253597  0.138059  0.0201545  0.0313678  0.052947  0.00967882  0.196583  0.0713868  0.317251  
5 3 -3.78746 -5.58662 -4.40057 24 0.021372  0.00845028  0.0200831  0.0124438  0.0333388  0.0157383  0.13285  0.0226527  0.0246684  0.0524564  0.0165674  0.19477  0.0740274  0.325145  
6 3 -3.53932 -8.40005 -5.75825 23 0.0219476  0.00894958  0.0227185  0.015991  0.0382742  0.0360834  0.132571  0.0164029  0.0194199  0.0573753  0.015703  0.195483  0.0678262  0.325376  
7 1 -0.0457039 -10.2217 -3.04724 28 0.0192866  0.00326351  0.0203975  0.00471327  0.0381201  0.00669243  0.139731  0.0607001  0.00633698  0.197772  0.00954038  0.287218  0.0175861  0.311911  
8 3 -3.49636 -8.50378 -3.1676 24 0.0237869  0.00949141  0.022788  0.0150957  0.0396822  0.0356791  0.132437  0.0187423  0.0211894  0.0575969  0.017967  0.197694  0.0701724  0.328059  
9 1 -4.80358 -2.84159 -1.39886 27 0.0235867  0.0129628  0.0228286  0.0150374  0.0328789  0.0269339  0.143159  0.0901691  0.0748974  0.135614  0.0562618  0.333094  0.126061  0.299226  
10 2 -2.19054 -0.962419 -1.54187 25 0.0247629  0.0103454  0.0252056  0.00939221  0.0375665  0.0241546  0.153112  0.595924  0.282159  0.68297  0.198023  0.792903  0.242916  0.596969  
11 3 -3.71641 -0.98643 -1.52171 22 0.0248643  0.0137755  0.0217946  0.0102663  0.0337577  0.0226675  0.143534  0.026715  0.032519  0.056828  0.00879609  0.190482  0.0693671  0.322576  
12 3 -1.07243 -4.55855 -1.51818 24 0.021036  0.0107512  0.018457  0.0100822  0.0320429  0.016303  0.13337  0.0216701  0.0228375  0.0534632  0.0115952  0.193766  0.0776236  0.32507  
13 3 -1.44524 -1.67576 -2.7794 24 0.0246913  0.00931382  0.0235007  0.0133655  0.0382168  0.0354533  0.132851  0.0160248  0.0206472  0.060161  0.0167932  0.189835  0.0703749  0.330255  
14 3 -1.40482 -1.6344 -0.292279 24 0.0257284  0.00664001  0.0223413  0.0149178  0.0389133  0.0358689  0.13903  0.0163142  0.0216816  0.0612564  0.0137076  0.190557  0.0715513  0.333487  
15 1 -2.42586 -5.01456 -2.94494 29 0.0203417  0.00433542  0.0233619  0.00731375  0.0321086  0.00597695  0.133928  0.0564408  0.00567849  0.196279  0.00878904  0.283771  0.0180841  0.31307  
16 1 -2.41718 -7.95407 -1.43411 27 0.0243381  0.0120783  0.021795  0.0147066  0.0343915  0.0288458  0.145568  0.0911968  0.0744085  0.135802  0.0552832  0.337528  0.13178  0.298205  
17 2 -0.409856 -6.01267 -1.48698 25 0.0237259  0.0117484  0.0261209  0.012107  0.0339384  0.0250427  0.154916  0.586649  0.278906  0.694966  0.191704  0.780437  0.256659  0.593048  
18 3 -3.60744 -5.93511 -1.46801 22 0.024362  0.0123188  0.021059  0.0131439  0.0311008  0.022398  0.144996  0.0227854  0.0273885  0.0559034  0.0133002  0.194973  0.0633811  0.326447  
19 3 -1.45418 -9.69998 -1.60811 25 0.021873  0.00914507  0.0179456  0.00946091  0.0366628  0.0143928  0.137647  0.0202938  0.0176562  0.0536272  0.0167123  0.198053  0.0668628  0.325894  
20 3 -1.08064 -6.75467 -2.72681 24 0.0231971  0.0115974  0.0248203  0.015321  0.0374224  0.0334212  0.133485  0.0190171  0.0197186  0.0597707  0.0152178  0.197021  0.0703838  0.331003  
21 1 -2.38068 -4.98506 0.0109596 29 0.0214413  0.00569583  0.0221364  0.00620663  0.0319302  0.0117701  0.141867  0.0562765  0.00656121  0.201157  0.0141689  0.281571  0.0248084  0.312302  
22 3 -1.03769 -6.70339 -0.136732 24 0.0232874  0.0105051  0.0225039  0.013669  0.0375468  0.0361273  0.13358  0.0193701  0.0192962  0.0581344  0.0174063  0.197762  0.069093  0.32942  
23 1 -2.25631 -2.28119 -4.6756 27 0.0248933  0.0122853  0.0231439  0.0128907  0.0324685  0.0251765  0.141708  0.0899346  0.0750251  0.135559  0.0533642  0.334706  0.126016  0.298887  
24 2 -4.48212 -4.05299 -4.40699 25 0.0245945  0.0107081  0.0246031  0.00988913  0.0343039  0.0250135  0.153691  0.58363  0.280869  0.701801  0.19443  0.78015  0.249844  0.599279  
25 3 -1.28639 -4.13665 -4.50976 22 0.0245834  0.0124772  0.0226486  0.0132267  0.0324103  0.0261209  0.137768  0.0272587  0.0304235  0.0546366  0.00872501  0.196826  0.0709904  0.322553  
26 3 -3.52259 -0.51239 -4.4958 25 0.0204935  0.0122382  0.0189338  0.0111719  0.0355167  0.0137861  0.139448  0.0211946  0.0253401  0.0535673  0.0156881  0.189928  0.0770208  0.324011  
27 3 -3.83818 -3.48106 -5.75219 24 0.0211368  0.00812599  0.0257419  0.0143415  0.0381011  0.0363101  0.135508  0.0200093  0.0205846  0.0592795  0.014997  0.195428  0.0693561  0.330895  
28 3 -3.91708 -3.37853 -3.10928 24 0.0209471  0.00855127  0.0277623  0.0143317  0.0360366  0.0360679  0.135672  0.0180912  0.0231675  0.0606898  0.0137157  0.189783  0.0681875  0.327645  
30 1 0.011267 -7.28496 1.55307 26 0.024393  0.0142912  0.0215903  0.0125903  0.0340123  0.0272889  0.144045  0.0930036  0.0719544  0.135578  0.0538433  0.34147  0.133872  0.296798  
31 2 -2.81589 -9.21881 1.52138 25 0.0222197  0.00913671  0.024284  0.0117993  0.0362002  0.0232768  0.151859  0.584523  0.278551  0.699598  0.191418  0.779653  0.257605  0.597311  
32 3 -1.2929 -9.32119 1.47583 24 0.0225674  0.0114649  0.0202913  0.0153556  0.0317185  0.0243385  0.145874  0.0252331  0.0308308  0.0529664  0.0111536  0.196599  0.0644312  0.324882  
33 3 -3.7892 -5.57389 1.64546 24 0.0223274  0.0112763  0.0181144  0.0108433  0.034723  0.0138502  0.139397  0.0234839  0.0205341  0.0541745  0.0227286  0.198259  0.0737699  0.324294  
34 3 -3.44504 -8.52948 0.219007 24 0.0219708  0.0102313  0.0222062  0.0115779  0.0381022  0.0371362  0.133248  0.0217362  0.0213864  0.0570239  0.0158373  0.201465  0.0669034  0.330105  
36 3 -3.55814 -8.5926 2.80841 23 0.0217532  0.0105754  0.0227042  0.0138831  0.0391662  0.0360734  0.133641  0.0234847  0.0214234  0.0578611  0.0151885  0.199444  0.0670803  0.327632  
51 1 -2.34827 -2.27839 1.51707 27 0.0241925  0.0128406  0.0215271  0.0145362  0.0356237  0.0286315  0.14724  0.0887726  0.0711489  0.135776  0.0541755  0.339961  0.132783  0.299455  
52 2 -4.44533 -4.12222 1.62479 25 0.0248313  0.00975595  0.0244648  0.0120184  0.0377976  0.0265413  0.154002  0.570144  0.277252  0.718515  0.190738  0.756196  0.260553  0.600752  
53 3 -1.22668 -4.1732 1.52651 24 0.0227097  0.0124261  0.0187282  0.0136073  0.0314351  0.0269795  0.14624  0.0243802  0.0312329  0.0558349  0.00800029  0.196462  0.0738356  0.323214  
54 3 -3.47495 -0.542102 1.46023 25 0.0212565  0.0136389  0.0172273  0.0102756  0.0343479  0.0138846  0.140417  0.0234424  0.0232216  0.0533443  0.0156745  0.189047  0.0738164  0.323645  
55 3 -3.85029 -3.45517 0.324747 24 0.0214224  0.0078499  0.0239073  0.0155704  0.0381273  0.035292  0.133631  0.0180852  0.0217357  0.0591675  0.0152133  0.192242  0.0671812  0.327741  
56 3 -3.72876 -3.43807 2.89242 23 0.0230904  0.0111675  0.0247465  0.0151875  0.0412156  0.0391437  0.134638  0.0179103  0.0215191  0.0570774  0.0163145  0.197705  0.065147  0.324812  
253 1 4.79836 -10.1521 0.0100507 28 0.0237568  0.0044473  0.0157912  0.00387064  0.0380891  0.00535158  0.138299  0.0605415  0.00363431  0.200336  0.00681487  0.286237  0.0123689  0.31561  
254 1 4.75485 -7.35855 -4.54603 28 0.0262125  0.0110879  0.0203789  0.0151207  0.0353062  0.0315768  0.147793  0.0915746  0.0704068  0.136555  0.055406  0.339323  0.132531  0.299409  
255 2 2.06917 -9.25472 -4.44313 25 0.0267105  0.0138609  0.0213596  0.0116952  0.037347  0.0242589  0.156629  0.590811  0.281036  0.691197  0.194786  0.788277  0.249094  0.598358  
256 3 3.60294 -9.33373 -4.52059 22 0.0261341  0.0141942  0.0190119  0.0124292  0.034923  0.024358  0.149574  0.0250928  0.0327782  0.0528652  0.0101954  0.198956  0.0622882  0.327389  
257 3 0.989752 -5.58997 -4.51956 25 0.0203854  0.00956273  0.020424  0.0129036  0.0342837  0.0140915  0.136673  0.0190776  0.0202607  0.0544772  0.0215118  0.193552  0.0658065  0.32495  
258 3 1.43159 -8.50989 -5.72064 24 0.0230478  0.0085673  0.0236366  0.0142461  0.0412649  0.0354935  0.133273  0.0191971  0.0206031  0.0557608  0.0159204  0.197322  0.0680668  0.323372  
259 1 4.77517 -10.1934 -2.92826 28 0.0226349  0.00410749  0.01652  0.00277506  0.0387178  0.00556898  0.138037  0.0603482  0.00433051  0.198382  0.0126887  0.287617  0.0148535  0.316665  
260 3 1.41137 -8.5139 -3.1548 24 0.0239508  0.0096152  0.0226674  0.0140629  0.0402123  0.0371802  0.134609  0.0164035  0.0195747  0.0585101  0.0157663  0.196594  0.0673376  0.328115  
261 1 0.0811175 -2.84903 -1.43988 27 0.0244692  0.0126438  0.0215508  0.0168918  0.0319251  0.0267188  0.144278  0.0937993  0.074654  0.136267  0.0560732  0.340518  0.126924  0.294067  
262 2 2.71342 -0.878657 -1.39432 25 0.0274496  0.0132938  0.0241039  0.0129264  0.0361361  0.0250707  0.155977  0.602111  0.280044  0.673196  0.193008  0.795716  0.253087  0.598573  
263 3 1.17052 -0.887874 -1.44308 22 0.0261866  0.0142602  0.0185328  0.011884  0.0313394  0.0254708  0.148345  0.0223124  0.0315312  0.0572239  0.00979891  0.191389  0.0694827  0.328384  
264 3 3.75851 -4.51426 -1.50708 25 0.0268278  0.0132443  0.0157848  0.0115306  0.0346889  0.0173835  0.139887  0.0226869  0.0236206  0.0526682  0.0135841  0.196254  0.0769591  0.327447  
265 3 3.42971 -1.56574 -2.69318 24 0.0271607  0.0125073  0.0227222  0.0160112  0.0370171  0.0361373  0.138027  0.0177007  0.0175568  0.0606935  0.0170855  0.192256  0.0675631  0.336056  
266 3 3.44351 -1.56967 -0.160411 24 0.0232138  0.0112527  0.0219959  0.0158278  0.0375939  0.0359136  0.136344  0.017657  0.0179181  0.059476  0.0173607  0.194339  0.0681812  0.334005  
267 1 2.37961 -5.11023 -3.03602 29 0.0214329  0.00602588  0.0226754  0.00476484  0.0355727  0.0102136  0.139888  0.0636336  0.00389355  0.196462  0.00872697  0.287465  0.0110319  0.31135  
268 1 2.3541 -7.90578 -1.45255 28 0.0271369  0.013553  0.0201706  0.0147078  0.0346822  0.0312277  0.14643  0.0969329  0.0691746  0.136704  0.0578915  0.340824  0.135859  0.297063  
269 2 4.50262 -6.00623 -1.56279 25 0.0280832  0.010724  0.023919  0.0117102  0.0379174  0.024582  0.153319  0.582971  0.278038  0.701687  0.191084  0.77696  0.258862  0.597831  
270 3 1.13794 -6.01228 -1.54836 24 0.0236994  0.0124611  0.0204047  0.0136068  0.0310113  0.0220381  0.146588  0.0207983  0.0285946  0.0560879  0.0108656  0.194084  0.0630166  0.326849  
271 3 3.39145 -9.74018 -1.52823 24 0.024107  0.0105803  0.0148941  0.0106087  0.0362497  0.014152  0.141522  0.0203561  0.0195373  0.0542456  0.015977  0.194244  0.0613487  0.327422  
272 3 3.75299 -6.68114 -2.82777 24 0.0254103  0.0103063  0.0216492  0.0160681  0.0380856  0.0365495  0.134248  0.0175101  0.0196282  0.0586819  0.0168157  0.197727  0.0691129  0.330799  
273 1 2.35622 -5.0506 -0.0186479 29 0.0243749  0.00275313  0.0205311  0.00330414  0.036203  0.00503901  0.136642  0.0645409  0.00395964  0.198945  0.00820004  0.286155  0.0152091  0.308965  
274 3 3.78326 -6.69028 -0.266969 24 0.0252382  0.00941778  0.0220441  0.0164286  0.0380247  0.0363327  0.134711  0.0207575  0.0201843  0.0595502  0.0171628  0.19384  0.0681231  0.330022  
275 1 2.57072 -2.29328 -4.44755 28 0.0267892  0.0157115  0.0216294  0.0141507  0.0322849  0.027604  0.148216  0.0962092  0.071979  0.135461  0.0554286  0.340032  0.129139  0.295873  
276 2 0.327448 -4.16516 -4.4616 25 0.0270294  0.00917105  0.0262505  0.0114379  0.0358861  0.0238182  0.147847  0.589712  0.280859  0.69109  0.194411  0.785427  0.249887  0.593652  
277 3 3.56796 -4.11085 -4.49383 22 0.0253487  0.01465  0.0198014  0.0105344  0.0326009  0.023733  0.146142  0.0245934  0.0291592  0.0552405  0.00919249  0.197805  0.0696398  0.326954  
278 3 1.38261 -0.549597 -4.46207 25 0.0240355  0.0122183  0.0171689  0.00986942  0.0346022  0.015926  0.139848  0.0194409  0.0235885  0.0524527  0.0159058  0.190747  0.0790787  0.325242  
279 3 0.925848 -3.52953 -5.80781 24 0.0220787  0.00695977  0.0237189  0.0160998  0.0361057  0.034973  0.136195  0.016768  0.0206039  0.0590039  0.0156245  0.193218  0.0680027  0.327852  
280 3 1.00745 -3.48682 -3.20044 24 0.0245284  0.011424  0.0230703  0.0153799  0.0362831  0.0374047  0.133558  0.0146673  0.0224599  0.0594174  0.0177716  0.192981  0.0718927  0.331653  
282 1 4.75871 -7.3244 1.43822 27 0.0249546  0.0118334  0.0204979  0.0147674  0.0358021  0.0307046  0.147846  0.0932472  0.0704084  0.136771  0.0541088  0.342441  0.133783  0.295767  
283 2 2.05204 -9.24003 1.48092 25 0.025064  0.0126409  0.0226953  0.0110622  0.0380733  0.0226096  0.151122  0.59262  0.280649  0.688271  0.194002  0.789735  0.250777  0.59789  
284 3 3.61118 -9.1727 1.45512 22 0.023967  0.0158399  0.0143916  0.0140849  0.0314556  0.0250652  0.140661  0.0183352  0.0308437  0.0556412  0.0132077  0.189218  0.0688161  0.324075  
285 3 1.05908 -5.53449 1.49467 25 0.0223639  0.0126519  0.0170052  0.00945025  0.0343745  0.0159013  0.139526  0.022044  0.0259198  0.0532717  0.0143598  0.195399  0.0775184  0.32502  
286 3 1.35431 -8.53244 0.215804 24 0.0241942  0.0108081  0.0214847  0.0135966  0.0386439  0.0348803  0.132722  0.0160072  0.0182047  0.0584281  0.0160099  0.193943  0.0668354  0.327989  
288 3 1.31357 -8.56151 2.7412 24 0.0196641  0.0109079  0.0222095  0.0143561  0.0370134  0.034125  0.132761  0.0167772  0.0191564  0.0597644  0.0162866  0.192539  0.0678889  0.328754  
303 1 2.51097 -2.18479 1.53618 27 0.0258014  0.0129282  0.0212526  0.0152944  0.0342074  0.0303063  0.148051  0.0945443  0.0684551  0.1355  0.0573221  0.342898  0.131558  0.294894  
304 2 0.353013 -4.07095 1.5535 25 0.026395  0.0114889  0.0250648  0.0126196  0.0378117  0.0266276  0.152698  0.580151  0.281516  0.70445  0.195959  0.77235  0.246738  0.594548  
305 3 3.60043 -4.17456 1.5276 22 0.0263183  0.014913  0.0182485  0.0148771  0.0352384  0.0230316  0.142558  0.02559  0.0303223  0.0563464  0.00958739  0.19643  0.061023  0.330705  
306 3 1.38253 -0.539613 1.53003 26 0.0237408  0.0124036  0.0162408  0.0103579  0.0323984  0.0144964  0.142519  0.022268  0.0248733  0.0533182  0.0158187  0.191231  0.0762122  0.330491  
307 3 1.05132 -3.43551 0.269494 24 0.0253683  0.0094604  0.0232607  0.0157303  0.0360471  0.0382108  0.134624  0.0162164  0.0201736  0.0609924  0.0159799  0.193652  0.0692199  0.333247  
308 3 1.03643 -3.4661 2.80799 24 0.0221494  0.00935118  0.0220154  0.0153672  0.040025  0.0384737  0.136742  0.0178645  0.0199669  0.0576239  0.016108  0.197793  0.0678931  0.331078  
505 1 9.64831 -10.2672 0.0355047 29 0.0207933  0.00845259  0.0214829  0.00329586  0.0349976  0.00599287  0.138491  0.0543889  0.0055705  0.201048  0.0115572  0.281904  0.017412  0.315906  
506 1 9.64592 -7.3446 -4.49601 26 0.023926  0.0123364  0.0223273  0.0167871  0.034739  0.0283521  0.14564  0.0900871  0.0683425  0.135611  0.0600715  0.337158  0.137313  0.30016  
507 2 6.88595 -9.18914 -4.46147 25 0.0261959  0.0107199  0.0207198  0.0108951  0.0375028  0.0253913  0.156804  0.591412  0.28134  0.690069  0.195499  0.788783  0.247643  0.597626  
508 3 8.43781 -9.24471 -4.4577 22 0.022542  0.0141663  0.0171287  0.0133359  0.0317189  0.0264204  0.149194  0.022864  0.0317678  0.0535119  0.0102391  0.197407  0.0719227  0.323052  
509 3 5.88647 -5.56333 -4.46288 24 0.0240747  0.0119474  0.0154696  0.0124292  0.0331026  0.0149749  0.141146  0.0205934  0.0260522  0.052554  0.0154495  0.196112  0.077243  0.327998  
510 3 6.23934 -8.52798 -5.76044 24 0.022381  0.00792286  0.0205542  0.0153102  0.0401631  0.0373466  0.135637  0.0176132  0.0197448  0.0568869  0.0148144  0.198772  0.0686403  0.332653  
511 1 9.65955 -10.0442 -2.93833 27 0.0178586  0.00734732  0.01966  0.00357949  0.0355261  0.00993208  0.142403  0.0541731  0.00732738  0.198893  0.0130275  0.282476  0.0188082  0.316311  
512 3 6.11727 -8.57983 -3.23725 24 0.0249259  0.009534  0.0212923  0.0165784  0.0399667  0.0371254  0.140923  0.0195993  0.0198541  0.0580453  0.0158426  0.197147  0.0665654  0.330851  
513 1 4.82196 -2.78122 -1.44684 27 0.0272183  0.0136632  0.0193154  0.0156004  0.0337089  0.0274468  0.146098  0.0951462  0.0714239  0.137255  0.0520946  0.339603  0.131741  0.297396  
514 2 7.55032 -0.949752 -1.49453 25 0.0240965  0.00894809  0.0263859  0.0117999  0.0369875  0.023353  0.151537  0.593508  0.278948  0.685159  0.191742  0.787318  0.256542  0.594437  
515 3 6.00855 -0.800198 -1.4533 23 0.0236008  0.0142436  0.0224538  0.0137599  0.0329774  0.0237485  0.153457  0.0225792  0.0325467  0.0556317  0.0105921  0.191598  0.0632476  0.327448  
516 3 8.6714 -4.58627 -1.46952 24 0.0205957  0.0088318  0.0200304  0.0104383  0.0344465  0.0151732  0.137206  0.0238804  0.0189511  0.0553943  0.0150967  0.193315  0.0676031  0.325938  
517 3 8.12558 -1.65651 -2.79301 23 0.0247731  0.00993556  0.0247561  0.0150614  0.0368858  0.0334699  0.136088  0.0192349  0.0190347  0.0614498  0.0176055  0.190435  0.0706396  0.330703  
518 3 8.23783 -1.61804 -0.239383 24 0.0236759  0.0078713  0.0230038  0.0147745  0.0400986  0.0357385  0.133972  0.0218221  0.0217142  0.0592574  0.0172295  0.191188  0.0713677  0.32668  
519 1 7.23671 -4.91051 -2.85465 27 0.0188662  0.0060404  0.0222689  0.00692559  0.0339952  0.0102845  0.143197  0.0560718  0.00471928  0.196281  0.00843015  0.287493  0.0109913  0.313909  
520 1 7.12005 -7.92699 -1.4466 26 0.0266622  0.0129379  0.0184711  0.0151271  0.0341466  0.0299443  0.148028  0.0890276  0.0757602  0.13584  0.0535113  0.339133  0.131294  0.300306  
521 2 9.37041 -6.03803 -1.44572 25 0.0276887  0.0142651  0.0231424  0.0139015  0.0352118  0.0226006  0.152478  0.581553  0.278039  0.704307  0.191085  0.776356  0.258858  0.599081  
522 3 5.9784 -5.94237 -1.53752 23 0.0253261  0.0122912  0.0177849  0.0131152  0.0322589  0.0227626  0.148216  0.0231707  0.0274982  0.0547349  0.0121847  0.194286  0.0626464  0.327644  
523 3 8.23253 -9.6437 -1.40072 25 0.0227331  0.00816401  0.0150841  0.0082861  0.0357007  0.0149487  0.140585  0.0227854  0.0168768  0.0522212  0.0148617  0.197265  0.0651588  0.326981  
524 3 8.65958 -6.71241 -2.74468 24 0.0226017  0.00998001  0.0229923  0.0159024  0.037111  0.0355591  0.135867  0.0201848  0.0204611  0.0595103  0.0158745  0.196769  0.0699577  0.331868  
525 1 7.2762 -4.98608 -0.0026032 28 0.0225593  0.00295704  0.0203507  0.00368908  0.0378549  0.00867086  0.134831  0.0566628  0.00654922  0.201196  0.0168129  0.281904  0.0198407  0.313187  
526 3 8.67308 -6.70293 -0.157112 24 0.0264268  0.00923549  0.0221264  0.0147967  0.0388145  0.0365366  0.133219  0.0221041  0.0183138  0.0578324  0.0185124  0.196574  0.0693883  0.329265  
527 1 7.31386 -2.29895 -4.49185 27 0.02425  0.0130248  0.0236621  0.0153991  0.0335201  0.028245  0.147675  0.0902487  0.0726649  0.136061  0.0540948  0.334797  0.129611  0.299517  
528 2 5.19871 -4.01894 -4.52549 25 0.0263153  0.0126472  0.0237886  0.0109088  0.0366415  0.0231128  0.153945  0.580849  0.282674  0.704433  0.200331  0.773207  0.23898  0.598057  
529 3 8.42002 -4.07327 -4.48757 22 0.0248024  0.0166553  0.021268  0.0116593  0.0331157  0.0258238  0.13923  0.0286493  0.0334222  0.0550244  0.0116553  0.198445  0.0727043  0.326499  
530 3 6.1786 -0.537064 -4.56409 25 0.0223062  0.0142136  0.0166205  0.0132649  0.0328342  0.0139814  0.141509  0.023452  0.026389  0.0538345  0.0194688  0.191954  0.0779249  0.329017  
531 3 5.9372 -3.40667 -5.81848 24 0.0227323  0.0100417  0.0225897  0.0140789  0.0390777  0.0346439  0.138096  0.0178057  0.0190429  0.0599836  0.0168313  0.195586  0.0682298  0.332008  
532 3 5.83981 -3.36577 -3.19223 24 0.0244562  0.0111086  0.022688  0.0158078  0.0364981  0.0354048  0.135442  0.0177615  0.0216653  0.0598311  0.0155044  0.194868  0.0693351  0.333644  
534 1 9.65027 -7.28643 1.46769 26 0.0256978  0.0152398  0.0191591  0.0134549  0.0347586  0.025209  0.145593  0.0858368  0.0736535  0.136076  0.0555888  0.3419  0.133017  0.298847  
535 2 6.88923 -9.19048 1.52563 25 0.0253739  0.00863873  0.0248943  0.00831112  0.0395291  0.0242754  0.152788  0.587456  0.282018  0.695936  0.197508  0.784072  0.243839  0.598232  
536 3 8.45368 -9.26832 1.4869 22 0.023303  0.0144689  0.0160208  0.0143161  0.0321394  0.0280645  0.143978  0.027502  0.0335803  0.0542894  0.010039  0.198508  0.0719796  0.324208  
537 3 5.92053 -5.55037 1.58128 25 0.0251883  0.0121591  0.0166581  0.0101062  0.0366145  0.0146536  0.139757  0.0228008  0.0236393  0.0527687  0.0150277  0.193484  0.0790694  0.325255  
538 3 6.15896 -8.49534 0.300047 24 0.0230077  0.00860664  0.0194792  0.0145456  0.0384697  0.038372  0.136266  0.0176248  0.0226417  0.0576536  0.0148762  0.194228  0.069378  0.329294  
540 3 6.19408 -8.62578 2.80308 24 0.0222116  0.00991958  0.0215239  0.0147297  0.038069  0.0365923  0.136777  0.0132072  0.0195912  0.0614764  0.0155896  0.190169  0.0712978  0.33155  
555 1 7.25919 -2.27102 1.51485 27 0.0249155  0.0129616  0.0221837  0.0159116  0.0361995  0.0287984  0.145088  0.0916313  0.0715344  0.135554  0.0576802  0.339268  0.133636  0.300115  
556 2 5.16721 -4.06672 1.56246 25 0.0266252  0.011681  0.0239294  0.00995073  0.0400667  0.0226851  0.153653  0.588345  0.280867  0.694911  0.194427  0.785824  0.249852  0.598523  
557 3 8.51708 -4.25256 1.59384 22 0.0245411  0.0116888  0.019821  0.0114256  0.0342753  0.0268671  0.147146  0.0276222  0.0320595  0.0545032  0.00854502  0.196906  0.0732963  0.320807  
558 3 6.2941 -0.449301 1.51261 24 0.0201658  0.0115533  0.0199559  0.0117209  0.0358922  0.0131059  0.138971  0.0246125  0.0210827  0.0542726  0.020353  0.192114  0.0643525  0.324763  
559 3 5.87293 -3.47666 0.219989 24 0.0273467  0.0112148  0.0214741  0.0144997  0.0401288  0.0374465  0.136801  0.0229028  0.02143  0.0585212  0.0180867  0.195266  0.0689177  0.327814  
560 3 5.83839 -3.44862 2.80702 24 0.0235375  0.010069  0.0233675  0.0138494  0.0406332  0.0352755  0.134678  0.0181861  0.020441  0.0583746  0.0163058  0.196808  0.0694244  0.328677  
85 1 -0.0685117 0.0345446 -0.00661912 28 0.0209306  0.00203751  0.0186835  0.00409239  0.0360848  0.00369422  0.137626  0.0605065  0.00658522  0.200907  0.010564  0.286526  0.0148171  0.306532  
86 1 -0.100401 2.77764 -4.50425 28 0.0271522  0.0122332  0.0220218  0.0158772  0.0360162  0.0310524  0.144753  0.0930545  0.0727226  0.137256  0.0529281  0.339175  0.130556  0.294156  
87 2 -2.76742 0.921214 -4.39939 25 0.0252532  0.0125225  0.0224367  0.0121374  0.0339534  0.0262585  0.153061  0.594924  0.28181  0.684481  0.196819  0.792034  0.245103  0.596826  
88 3 -1.20855 0.832909 -4.44859 23 0.0244557  0.0140776  0.0186617  0.0150285  0.0335951  0.0237856  0.146118  0.0203146  0.0297791  0.0537425  0.0116749  0.192314  0.0616509  0.325877  
89 3 -3.84521 4.61113 -4.49983 25 0.0194232  0.0077818  0.0186201  0.00916469  0.0367891  0.0138017  0.137831  0.0201676  0.0168248  0.0560036  0.0141628  0.188867  0.0703655  0.320408  
90 3 -3.34456 1.65984 -5.73102 23 0.0236431  0.0104232  0.025445  0.0152171  0.03648  0.0389296  0.13656  0.0204726  0.0211957  0.0587619  0.0155655  0.192878  0.0681815  0.326396  
91 1 -0.0215196 -0.0283983 -2.9876 28 0.0236665  0.00279007  0.0199272  0.005062  0.0357435  0.00309744  0.136556  0.0586958  0.00322046  0.197924  0.00686522  0.287427  0.0134217  0.306556  
92 3 -3.50271 1.58408 -3.17516 24 0.0207392  0.0110036  0.0225389  0.0157734  0.0367673  0.0378377  0.131484  0.0180403  0.0213277  0.0605073  0.0158114  0.187788  0.0683174  0.326649  
93 1 -4.67809 7.32173 -1.61699 27 0.0218013  0.0132298  0.0231672  0.0174936  0.0330708  0.0271994  0.144013  0.0941333  0.070152  0.136884  0.0587048  0.334556  0.122391  0.297205  
94 2 -2.06211 9.19198 -1.45051 25 0.0251018  0.014093  0.0240057  0.0141769  0.0360395  0.0245216  0.149696  0.589008  0.281726  0.693546  0.196562  0.786171  0.245585  0.597427  
95 3 -3.66125 9.20746 -1.54311 22 0.0228934  0.0146473  0.0214772  0.0124864  0.0329129  0.0253831  0.137573  0.0305103  0.0289567  0.0559245  0.0094652  0.193341  0.0716872  0.318164  
96 3 -1.04723 5.59919 -1.41416 25 0.0223546  0.0135264  0.0176936  0.0130573  0.0357173  0.0145143  0.137305  0.0195344  0.0287084  0.0540699  0.0163161  0.189139  0.0773403  0.322848  
97 3 -1.28335 8.47186 -2.66572 23 0.0232924  0.0105319  0.023389  0.0172624  0.0383097  0.0361843  0.131672  0.020451  0.0237452  0.0592277  0.0164499  0.193171  0.0676499  0.326484  
98 3 -1.41821 8.54878 -0.137555 24 0.0211925  0.00999394  0.0245963  0.0164351  0.0374034  0.0349014  0.133515  0.0173889  0.0224043  0.0585788  0.0197423  0.190494  0.0657558  0.324006  
99 1 -2.38811 5.21799 -2.95354 28 0.0214071  0.00681552  0.022098  0.0060682  0.0354846  0.00882166  0.140673  0.0626222  0.00978351  0.198517  0.0103091  0.281889  0.021306  0.311552  
100 1 -2.57994 2.27327 -1.54145 27 0.024142  0.0122082  0.0217979  0.0151011  0.0331108  0.029026  0.144543  0.0934611  0.0705559  0.135129  0.0541524  0.334395  0.134131  0.293949  
101 2 -0.365978 4.12059 -1.51673 25 0.0279016  0.0105985  0.0238006  0.0111564  0.037386  0.0257121  0.151611  0.58959  0.280893  0.692453  0.19448  0.786573  0.249738  0.596764  
102 3 -3.58109 4.05729 -1.49058 22 0.0223235  0.0141891  0.0189291  0.0134652  0.0322723  0.0258187  0.13759  0.0234745  0.0302016  0.0566844  0.00721492  0.190765  0.0731747  0.319631  
103 3 -1.46647 0.510599 -1.63095 25 0.0239447  0.0134044  0.0171739  0.012808  0.0328972  0.0159461  0.139647  0.0216048  0.026414  0.055205  0.0167575  0.188728  0.0730875  0.32735  
104 3 -1.04286 3.53833 -2.86083 24 0.0250072  0.0105469  0.0237949  0.0141029  0.0392744  0.035229  0.131977  0.014834  0.0224558  0.0605633  0.0151289  0.190479  0.0667682  0.327432  
105 1 -2.42233 5.00592 0.0686272 27 0.0183503  0.0040313  0.0211153  0.00665993  0.0354892  0.00502603  0.135691  0.0606319  0.00466099  0.197684  0.0121064  0.285074  0.017277  0.310977  
106 3 -0.985827 3.41237 -0.208602 24 0.0220081  0.00850864  0.0217539  0.0148557  0.0362133  0.0364851  0.133712  0.0155231  0.0222091  0.0619349  0.0156888  0.191626  0.0669144  0.330483  
107 1 -2.25881 7.83296 -4.57664 28 0.0249185  0.0127283  0.0210961  0.0162379  0.0334064  0.0273173  0.142015  0.0999154  0.0698986  0.136211  0.0546949  0.336877  0.132378  0.29334  
108 2 -4.52738 6.08815 -4.58706 25 0.0225147  0.0131134  0.0251955  0.0132503  0.0383746  0.0256166  0.151492  0.57817  0.27888  0.709257  0.191682  0.771704  0.25673  0.600669  
109 3 -1.17564 6.01747 -4.47604 22 0.0229402  0.0140117  0.0194898  0.0159741  0.0334391  0.0206288  0.142957  0.0209065  0.0286372  0.0562822  0.00999404  0.19088  0.0581206  0.323441  
110 3 -3.36813 9.61179 -4.67456 25 0.0212027  0.00891535  0.0176721  0.00933979  0.0375049  0.0161664  0.138144  0.026995  0.0152066  0.0542125  0.0145414  0.194076  0.070507  0.32183  
111 3 -3.70591 6.71998 -5.81077 23 0.0221442  0.0112143  0.02183  0.0147829  0.0393736  0.0359222  0.132818  0.0190144  0.0184225  0.059867  0.0151143  0.191151  0.0700328  0.326361  
112 3 -3.84057 6.68345 -3.29021 23 0.0215469  0.0105613  0.0231057  0.0181427  0.0373917  0.0359928  0.13279  0.0219077  0.0180123  0.0603335  0.017388  0.190124  0.0698779  0.32599  
114 1 0.0629093 2.84589 1.43108 25 0.0238613  0.0109727  0.0197109  0.0174266  0.0332124  0.030549  0.14626  0.09027  0.0727564  0.137812  0.0494523  0.342661  0.133265  0.295869  
115 2 -2.73209 0.954908 1.45747 25 0.0235398  0.0100152  0.0243559  0.0127932  0.0383097  0.0236098  0.153659  0.593418  0.280542  0.686933  0.193808  0.790342  0.251209  0.59757  
116 3 -1.19272 0.895002 1.51511 22 0.0220084  0.0128595  0.0192934  0.01449  0.0323513  0.0225274  0.14851  0.025174  0.0288652  0.0559784  0.00731888  0.191111  0.0614529  0.329254  
117 3 -3.80654 4.58221 1.52488 25 0.0179855  0.00930315  0.018163  0.00977149  0.034513  0.0128453  0.138101  0.0218416  0.0194046  0.0568189  0.0148673  0.193761  0.071691  0.325591  
118 3 -3.37138 1.65341 0.214677 23 0.0220142  0.0101079  0.0218184  0.0162781  0.036242  0.0344443  0.133304  0.0208067  0.0198108  0.0620072  0.0187452  0.189541  0.0670931  0.329132  
120 3 -3.46208 1.63787 2.74205 24 0.0226796  0.0102746  0.0209309  0.0145591  0.0429147  0.0348014  0.134493  0.0225565  0.019653  0.0580482  0.0165514  0.194516  0.0673581  0.325735  
135 1 -2.3051 7.81005 1.48398 29 0.0215051  0.013362  0.0231049  0.0153995  0.0325904  0.0271857  0.14407  0.095965  0.077267  0.136627  0.052174  0.335898  0.127308  0.299419  
136 2 -4.52505 6.13131 1.51728 25 0.0243315  0.0126171  0.0248092  0.0110055  0.0360195  0.0228822  0.153103  0.583989  0.281682  0.701023  0.19643  0.780141  0.245834  0.598686  
137 3 -1.19616 6.06974 1.56968 22 0.0239034  0.0139504  0.0201344  0.0134783  0.0335824  0.0201532  0.140083  0.0193931  0.0266897  0.0574713  0.0122386  0.191917  0.060335  0.328668  
138 3 -3.40381 9.70022 1.58943 25 0.0203917  0.00883451  0.0210504  0.00879174  0.0314398  0.0150182  0.132386  0.0212998  0.0226575  0.0514856  0.0120422  0.194223  0.0774351  0.321312  
139 3 -3.73664 6.7516 0.252061 24 0.0192951  0.0110334  0.0252529  0.016523  0.0362456  0.0357937  0.132892  0.0173356  0.0192852  0.0613444  0.0147556  0.188604  0.0691395  0.328713  
140 3 -3.74683 6.77264 2.81779 24 0.0238838  0.00919204  0.0251682  0.0132961  0.0376129  0.0346907  0.137211  0.0170049  0.0221662  0.0599253  0.0170187  0.19482  0.0707931  0.332411  