ITEM: TIMESTEP
500
ITEM: NUMBER OF ATOMS
11016
ITEM: BOX BOUNDS pp pp pp
-14.54184 24.2364
80.0 135.0
35.0 90.0
ITEM: ATOMS id type x y z Coordination
6982 3 10.4606 107.17 37.4834 22
3 3 -13.1008 85.2516 36.0237 22
10320 3 23.1318 103.029 61.3305 23
13 3 -10.2095 81.3217 42.5244 22
17 1 -11.8359 81.056 36.1894 19
15 3 -12.1892 80.7968 40.2183 19
16 3 -10.6517 81.5018 37.6007 17
396 1 -10.1016 107.201 47.9919 28
18 1 -12.103 85.0236 37.5902 25
19 2 -14.4076 83.2902 37.9027 20
20 3 -13.2802 82.3041 37.3739 23
21 3 -11.0159 86.2847 38.2295 24
22 3 -10.4342 83.9627 37.3588 20
23 1 -12.0064 82.3233 39.1245 19
24 3 -10.2524 82.9579 39.6133 21
25 1 -11.6303 88.9135 41.0468 30
28 3 -12.9635 86.3611 40.6857 22
31 1 -13.8929 86.6567 39.0684 25
32 1 -14.3649 83.4717 40.7007 25
33 2 -12.02 85.2897 41.2517 27
34 3 -10.4678 85.4792 41.1072 22
35 3 -12.5691 83.7164 40.7793 24
36 3 -13.6661 84.4484 38.5617 20
37 1 -13.187 88.5472 35.733 21
38 3 -12.4602 85.3227 42.7497 23
40 2 -11.3216 87.9135 37.9229 22
41 3 -12.8845 87.8435 37.7239 23
43 3 -10.5755 87.8744 36.4634 23
44 3 -10.5841 88.3788 39.3189 25
168 3 -10.2483 81.1969 45.2902 22
169 1 -11.8705 82.0716 41.7394 19
170 1 -11.4038 84.5171 44.2307 28
171 2 -13.9678 82.5676 44.0123 21
172 3 -12.4281 82.3763 43.7565 23
173 3 -10.4983 86.2913 44.3533 23
174 3 -9.50286 83.4337 43.7186 25
189 1 -14.1486 86.7855 42.4161 26
192 2 -11.3081 87.6733 44.1011 23
193 3 -12.883 87.7483 44.0659 22
195 3 -10.7892 88.0708 42.6458 25
463 3 -12.0723 80.0554 49.3505 21
1380 3 -8.01392 85.1642 36.0454 24
10319 2 21.5513 103.078 61.4953 25
1390 3 -5.01723 81.2753 42.3165 20
9655 3 23.9671 80.2151 35.1637 21
11013 1 23.645 85.5414 36.2494 24
1393 3 -3.10623 81.4221 35.7608 19
2771 1 -0.803938 82.9533 35.2101 22
1395 1 -7.21474 84.535 37.9532 25
1396 2 -9.71049 82.7371 38.0084 19
1397 3 -8.15356 82.6442 37.8046 23
1398 3 -5.89031 86.1596 37.877 24
1399 3 -5.63513 83.5996 37.0509 21
1400 1 -6.88575 81.9267 39.6516 19
1401 3 -5.2896 83.1028 39.347 23
1402 1 -6.97888 89.1626 40.7696 28
1405 3 -8.10571 87.2934 41.037 23
1408 1 -9.44175 86.5769 39.4517 30
1409 1 -8.91613 83.7596 41.1886 26
1410 2 -7.34174 85.9164 41.0036 25
1411 3 -5.78419 85.9584 40.9336 27
1412 3 -7.28411 82.7379 41.3287 21
1413 3 -7.94962 85.2216 39.6778 25
1414 1 -8.56534 88.2785 36.1182 27
1415 3 -7.81355 85.3943 42.3583 23
1417 2 -6.66845 87.5551 37.929 24
1418 3 -8.23787 87.4099 37.9641 21
1420 3 -6.33785 88.0885 36.4588 24
1421 3 -6.09603 88.3657 39.1065 26
1545 3 -4.95329 81.4972 44.8316 24
1546 1 -6.94379 80.8424 42.1153 21
1547 1 -6.56495 84.7318 43.8337 25
1548 2 -9.46509 81.8146 43.7347 23
1549 3 -8.00767 81.3674 43.8935 22
1550 3 -5.73108 86.6496 43.9113 26
1551 3 -5.21422 83.587 43.1808 25
1566 1 -9.30139 86.7304 42.6543 29
1569 2 -6.47224 88.0383 43.8921 25
1570 3 -8.02135 88.0307 44.0797 22
1572 3 -5.79704 88.6668 42.5455 24
9639 1 19.5438 101.769 35.1003 22
2757 3 -4.00667 86.163 35.629 21
10318 1 19.6952 105.106 61.4547 28
2767 3 0.254838 82.2329 42.1021 24
5506 1 5.18636 91.4627 35.3515 22
2769 3 -2.88012 80.8897 40.2084 23
2770 3 -0.446024 81.3841 36.6665 23
5667 3 6.97984 80.8449 37.0748 21
2772 1 -3.93655 85.5051 37.5674 22
2773 2 -4.48843 82.8255 38.0384 22
2774 3 -3.20044 83.5622 37.8474 24
2775 3 -1.24429 86.1483 38.0559 22
2776 3 0.237902 83.8423 36.6599 19
2777 1 -1.75463 84.3817 38.7523 22
2778 3 -0.394082 83.097 38.9521 22
2779 1 -2.02413 89.1962 40.9535 27
2782 3 -3.33905 87.791 41.027 27
2785 1 -4.44887 87.2136 39.6882 24
2786 1 -5.29684 83.8555 41.2962 25
2787 2 -2.42322 85.1545 41.1128 24
2788 3 -0.926925 85.8838 41.0976 25
2789 3 -2.25362 83.6208 41.1895 21
2790 3 -3.28744 85.4195 39.7268 22
2791 1 -4.40148 88.1978 35.7022 24
2792 3 -3.22201 85.4813 42.4567 23
2794 2 -1.83172 87.6764 38.1436 23
2795 3 -3.40944 87.6956 38.1077 21
2797 3 -1.26631 88.2666 36.8113 20
2798 3 -1.10164 88.384 39.3855 25
2922 3 -0.147619 81.2517 44.7028 23
2923 1 -1.82483 81.8186 41.586 21
2924 1 -2.27548 84.3737 43.686 27
2925 2 -4.62304 82.2054 43.5066 22
2926 3 -2.94013 82.234 43.5662 23
2927 3 -1.23602 86.3714 44.1925 22
2928 3 -0.27667 83.7047 44.1692 22
2943 1 -4.25532 87.1302 42.5086 27
2946 2 -1.76746 87.9505 44.0764 24
2947 3 -3.26895 87.9732 44.0109 23
2949 3 -1.07305 88.5724 42.8138 24
10321 3 20.9886 106.71 61.3936 27
4134 3 2.06983 86.3343 35.7157 19
10317 1 19.3557 102.979 59.482 25
4144 3 5.8769 82.2619 41.5418 22
6882 1 7.09034 85.3599 36.3078 22
4131 1 0.0677247 101.589 35.1525 22
4147 3 4.97879 82.2486 38.3701 23
4148 1 2.99784 82.0878 36.1497 20
4149 1 2.67897 84.2843 38.3526 23
4150 2 0.315421 82.6885 37.6641 20
4151 3 1.83695 82.3218 37.9935 21
4152 3 3.71802 86.1585 38.2456 22
4153 3 5.50943 82.3582 35.5711 26
4154 1 3.32457 81.3157 38.6031 22
4155 3 3.53869 83.8062 36.579 22
4156 1 2.73339 89.0244 41.0936 28
4159 3 1.63328 87.1407 41.1275 22
4162 1 0.185554 86.7914 39.8645 26
4163 1 0.929293 82.6077 40.3164 22
4164 2 2.23115 85.5828 41.2033 25
4165 3 3.753 85.5223 41.4416 23
4166 3 2.99198 82.5099 40.7037 24
4167 3 1.71926 84.8896 39.8669 25
4168 1 2.55049 88.4193 35.1907 24
4169 3 1.63241 85.052 42.6296 23
4171 2 2.98533 87.5649 38.0732 24
4172 3 1.4649 87.6712 38.2196 22
4174 3 3.6909 88.3624 36.8402 20
4175 3 3.70674 88.2741 39.4737 22
4299 3 4.26226 80.9065 43.1334 21
4300 1 2.65763 80.8769 41.822 23
4301 1 3.29248 84.1319 43.2215 26
4302 2 0.452949 82.4446 43.6002 25
4303 3 2.01633 82.4697 43.8675 23
4304 3 3.76514 85.9764 44.3509 22
4305 3 4.89611 83.3668 43.7625 23
4320 1 0.125921 86.9374 42.5296 25
4323 2 3.02821 87.4646 44.0694 25
4324 3 1.56667 87.3721 44.0001 25
4326 3 3.87514 88.0165 42.8819 24
4023 1 -1.82809 94.1273 35.1398 21
5511 3 5.6829 86.3235 35.5012 24
8349 1 18.9064 107.169 38.9171 25
5521 3 8.80715 82.9015 42.9524 22
5522 3 7.54723 80.5841 39.9137 20
8259 1 14.5147 85.5308 35.932 20
5524 3 9.11021 81.1566 35.5464 23
5505 1 4.00192 85.5886 35.9884 22
5526 1 8.39604 84.2825 38.7174 22
5527 2 5.87202 82.517 37.0457 23
5528 3 6.87661 83.6496 37.0895 21
5529 3 8.2863 86.0033 37.9569 22
6884 1 7.69355 98.8709 35.1626 24
5531 1 8.61363 81.6235 38.7825 21
5532 3 9.48055 82.9986 37.5037 23
5533 1 7.65293 88.8895 40.8472 26
5536 3 6.61888 87.1181 41.0048 23
5539 1 5.18278 86.8017 39.6242 26
5540 1 4.97096 83.378 40.2011 26
5541 2 7.28912 85.6816 41.0592 25
5542 3 8.85509 85.8384 40.862 23
5543 3 8.79962 83.0555 40.1441 22
5544 3 6.40053 84.8589 39.9721 20
5545 1 5.78583 88.2189 36.03 24
5546 3 6.74931 85.194 42.4535 25
5548 2 7.8409 87.4496 37.9179 22
5549 3 6.24438 87.6156 38.101 21
5551 3 8.14246 88.0438 36.5055 21
5552 3 8.72078 88.1577 39.0778 25
84 3 -13.5909 107.223 40.6291 26
5677 1 7.73971 81.8511 41.421 23
5678 1 7.77011 84.3256 44.0347 24
5679 2 5.32883 81.995 43.0159 19
5680 3 6.65791 81.4659 43.7979 22
5681 3 8.84197 86.0904 44.217 24
5682 3 10.9808 82.0199 44.3184 20
5697 1 5.25935 86.476 42.7241 25
5700 2 8.04627 87.582 43.8961 25
5701 3 6.5139 87.5994 44.0689 22
5703 3 8.63483 88.1502 42.5678 25
7348 3 11.8473 80.9252 49.2927 24
6888 3 11.2702 84.7554 37.0213 22
10314 3 20.8111 101.671 61.4933 21
6898 3 13.4921 83.4143 43.4915 21
6899 3 13.4211 80.4806 39.6841 26
6900 3 10.8426 80.9688 39.0482 22
4678 1 4.29049 107.084 53.9493 28
8260 1 14.4271 90.8092 35.6497 21
6903 1 12.727 84.3998 38.131 24
6904 2 10.6779 83.4603 36.4667 22
6905 3 12.0802 82.3581 36.5738 25
6906 3 13.6334 85.9595 37.7765 22
6907 3 14.5654 83.2606 35.7427 21
6908 1 13.0425 81.4301 38.1455 26
6909 3 14.1339 83.1913 38.3602 22
6910 1 12.6356 88.6894 40.685 27
6913 3 11.3624 86.8037 40.5977 22
6916 1 9.94907 86.6241 39.2891 24
6917 1 10.5834 82.8461 39.7495 25
6918 2 12.2065 85.445 41.0381 25
6919 3 13.821 85.6783 41.1493 23
6920 3 11.07 82.3115 41.6579 21
6921 3 12.1185 84.2482 39.98 26
6922 1 11.787 89.0295 35.2888 22
6923 3 11.5747 85.2399 42.3808 24
6925 2 12.9154 87.4273 37.7906 23
6926 3 11.3817 87.52 38.041 19
6928 3 13.1692 88.1432 36.4508 22
6929 3 13.6876 88.0612 39.1228 23
7053 3 14.1941 81.0481 44.2278 19
7054 1 11.8655 80.7408 40.7865 22
7055 1 12.1756 84.8379 44.0622 24
7056 2 10.1894 82.1823 42.8748 19
7057 3 9.71415 80.4693 42.5548 22
7058 3 13.7088 86.2888 44.4624 24
7059 3 15.6518 83.0367 44.7483 23
7074 1 10.2327 87.0005 42.3606 24
7077 2 12.9826 87.7071 44.0426 24
7078 3 11.4579 87.5368 43.8838 23
7080 3 13.5433 88.0811 42.597 24
4228 3 0.794496 107.271 37.5235 23
8265 3 16.5531 85.4688 36.0823 21
1840 3 -7.16431 80.1979 49.4001 23
8275 3 18.1064 81.5403 41.0846 18
1474 3 -8.68516 107.175 37.3194 23
5400 1 2.89916 94.0821 35.2593 24
8278 3 18.8699 81.0807 36.6757 22
10102 3 21.395 80.234 49.1785 26
8280 1 16.8493 84.7808 38.0253 24
8281 2 15.0941 82.738 37.1673 22
8282 3 16.5947 83.015 37.289 20
8283 3 18.3829 86.0433 38.3107 27
8284 3 19.3294 83.7375 36.3431 18
8285 1 17.6993 81.1546 38.8613 22
8286 3 18.8383 82.8437 38.7222 20
8287 1 17.5314 88.9144 40.8804 27
8290 3 16.445 87.0826 40.8192 25
8293 1 15.0207 86.6656 39.5186 28
8294 1 14.5353 83.6717 40.7064 23
8295 2 17.0717 85.609 41.011 23
8296 3 18.6296 85.323 41.0196 24
8297 3 15.0238 81.1962 37.4276 17
8298 3 16.1005 84.7345 39.9483 22
8299 1 16.8594 88.1286 35.1237 23
8300 3 16.4857 85.2673 42.4583 22
8302 2 17.7148 87.6318 38.0428 25
8303 3 16.2628 87.3804 38.144 23
8305 3 18.303 87.8791 36.5882 23
8306 3 18.4537 88.412 39.2224 26
8430 3 19.367 80.5481 43.375 21
8431 1 16.314 80.8325 41.2743 18
8432 1 17.0612 84.3138 44.0616 21
8433 2 14.7431 82.4561 43.58 19
8434 3 15.2714 82.2394 42.13 19
8435 3 18.753 86.1473 44.0631 22
8436 3 18.5634 83.15 44.0967 26
8451 1 15.0966 86.8764 42.4755 26
8454 2 17.927 87.6502 43.8904 25
8455 3 16.3273 87.6409 43.9213 22
8457 3 18.4856 88.096 42.4683 24
6885 1 9.68183 101.459 35.1731 22
9642 3 20.5978 86.039 36.3428 23
8359 3 15.2253 107.41 37.3653 22
9652 3 24.1814 82.6869 42.5531 20
9636 1 18.8226 85.8878 36.2496 23
8809 1 18.8331 106.986 54.0037 28
2850 2 -2.38084 107.295 37.2841 23
1394 1 -6.81986 82.6149 35.8016 23
9657 1 21.4639 84.7793 37.7402 26
9658 2 19.5065 82.4849 37.3266 23
9659 3 21.0914 82.2301 37.5868 22
9660 3 23.1002 86.0735 38.1178 25
9661 3 23.2724 83.6526 36.8855 22
9662 1 21.8976 81.5797 39.0622 21
9663 3 23.6193 82.4012 39.1713 21
9664 1 22.3171 89.0749 40.8506 25
9667 3 21.1217 86.7846 40.9871 26
9670 1 19.7075 86.7844 39.5376 28
9671 1 19.5651 83.3233 40.6038 24
9672 2 21.8389 85.3607 41.1182 27
9673 3 23.3696 85.1196 41.2669 23
9674 3 20.6632 81.8725 41.3393 22
9675 3 21.2549 84.4455 39.8785 24
9676 1 20.6482 87.9323 36.0608 26
9677 3 21.1577 84.8664 42.542 24
9679 2 22.4879 87.4947 37.9904 23
9680 3 21.0192 87.658 38.3642 22
9682 3 22.9668 87.9174 36.5102 23
9683 3 23.3445 88.2589 39.1832 25
9807 3 -14.4355 81.1626 44.6944 21
9808 1 22.2827 81.777 42.4947 24
9809 1 22.8855 84.4836 43.735 27
9810 2 19.3858 80.8517 41.7519 20
9811 3 21.7828 82.5658 44.1534 19
9812 3 23.2984 86.3281 44.0839 23
9813 3 -14.4708 83.6637 44.9801 21
9828 1 19.8792 86.4346 42.5163 29
9831 2 22.6836 87.8308 43.9574 26
9832 3 21.0445 87.7397 43.9352 24
9834 3 23.2617 88.1952 42.5481 26
2 3 -13.9988 90.1786 36.1229 21
5 3 -13.1747 94.7972 36.1147 21
26 2 -13.9991 90.7572 41.1943 24
27 3 -10.7233 90.7202 41.1696 21
29 3 -13.3309 89.8298 40.0469 24
30 3 -13.227 90.1855 42.477 24
39 1 -14.1788 89.4442 38.1501 24
42 3 -11.5462 90.2627 37.7914 23
45 1 -12.3929 91.412 36.4981 27
46 1 -12.387 94.3279 37.8245 25
47 2 23.8821 92.4643 38.0411 22
48 3 -13.3177 92.4348 37.9299 23
49 3 -10.3929 94.9398 37.9109 21
50 3 -10.6685 92.6684 36.6783 23
51 1 -11.9831 91.5063 39.4106 27
52 3 -10.5926 92.9467 39.2971 25
56 3 -13.1158 97.3179 40.8365 24
59 1 -14.4784 96.8369 39.3066 25
60 1 -14.4306 94.0114 40.8226 27
61 2 -12.349 95.8999 40.7903 25
62 3 -10.7973 95.8945 40.8353 22
63 3 -13.3262 92.1771 40.9565 25
64 3 -13.0111 95.1392 39.5679 25
65 1 -14.4486 96.2994 36.3208 24
66 3 -12.9907 95.1834 42.0779 23
68 2 -11.8638 98.2429 37.7189 24
69 3 -13.3698 97.6079 37.7357 21
191 1 -13.8453 89.5496 44.2694 26
194 3 -10.3499 91.5035 43.993 25
197 1 -11.8594 91.905 42.4408 28
198 1 -11.9786 94.7522 43.7844 28
199 2 24.2408 93.0047 43.941 25
200 3 -12.9802 92.9055 44.0036 23
201 3 -11.0002 96.4518 43.8127 26
202 3 -10.5587 93.5705 42.6464 22
217 1 -14.512 96.9003 42.3126 28
220 2 -11.7657 97.931 43.753 25
221 3 -13.3089 97.8411 43.7659 22
1379 3 -8.7581 90.2085 36.4959 23
1382 3 -8.39251 94.6702 36.1153 22
1403 2 -9.17045 90.8459 41.1324 23
1404 3 -5.89544 91.164 41.0434 22
1406 3 -8.49994 90.3188 39.7593 24
1407 3 -8.40184 90.1876 42.3064 24
1416 1 -9.62777 89.9867 38.1612 26
1419 3 -5.78915 91.1145 37.9486 24
1422 1 -7.18491 91.3676 36.6082 23
1423 1 -7.24097 94.4151 37.7343 26
1424 2 -9.8699 93.4249 37.8958 25
1425 3 -8.42139 92.7378 37.9935 23
1426 3 -6.03832 95.896 37.8101 25
1427 3 -5.81491 92.9265 36.4715 21
1428 1 -7.19903 91.974 39.5383 28
1429 3 -5.84404 93.4312 39.063 24
1433 3 -8.23311 97.2657 40.6867 24
1436 1 -9.64412 96.61 39.0622 28
1437 1 -9.71343 94.086 40.9635 27
1438 2 -7.5016 95.8266 40.8408 25
1439 3 -5.95359 95.8982 40.8815 22
1440 3 -8.58428 92.3478 41.2495 25
1441 3 -8.10889 94.9272 39.6893 24
1442 1 -9.75945 96.0438 36.2668 24
1443 3 -8.18762 95.2373 42.2099 25
1445 2 -6.79461 97.3942 37.7227 23
1446 3 -8.31198 97.288 37.6794 21
1568 1 -9.24343 89.7678 44.0342 27
1571 3 -5.57313 91.5408 43.9882 25
1574 1 -7.02761 91.999 42.5148 28
1575 1 -7.08711 94.7596 43.8765 28
1576 2 -9.67674 93.0011 43.9084 25
1577 3 -8.12896 92.902 43.9915 23
1578 3 -6.1607 96.5149 43.8929 24
1579 3 -5.64972 93.6205 42.667 24
1594 1 -9.66646 97.0239 42.1489 27
1597 2 -6.88843 97.9757 43.7635 25
1598 3 -8.44769 97.8572 43.7286 22
2756 3 -3.80208 89.9934 36.3448 23
2759 3 -3.22175 94.6872 36.2046 22
2780 2 -4.32943 90.9624 41.0564 26
2781 3 -0.982243 90.9418 41.0596 24
2783 3 -3.64964 90.2865 39.8022 25
2784 3 -3.58116 90.4144 42.3189 24
2793 1 -4.60518 89.5148 38.2429 25
2796 3 -0.834868 91.0565 37.8847 23
2799 1 -1.83555 90.1667 36.4701 21
2800 1 -2.5515 94.3514 37.9848 26
2801 2 -5.1047 92.6526 37.9436 22
2802 3 -3.57834 92.5854 38.0295 23
2803 3 -1.24445 95.8672 37.9393 24
2804 3 -0.626505 92.8937 36.2818 23
2805 1 -2.24019 91.7013 39.3459 27
2806 3 -0.806847 93.2719 38.9754 26
2810 3 -3.37156 97.229 40.9004 24
2813 1 -4.67329 96.7158 39.3002 28
2814 1 -4.84525 94.0847 40.8167 27
2815 2 -2.64135 95.7905 40.9542 25
2816 3 -1.07706 95.8646 40.9594 22
2817 3 -3.55933 92.434 40.9867 27
2818 3 -3.34294 95.0624 39.6878 24
2819 1 -4.74618 95.8694 36.2946 25
2820 3 -3.22777 95.1818 42.2547 24
2822 2 -1.87753 97.3888 37.7451 23
2823 3 -3.43969 97.344 37.6528 22
2945 1 -4.38708 89.7924 43.9445 28
2948 3 -0.630442 91.4357 43.9646 25
2951 1 -2.18708 91.9818 42.4189 28
2952 1 -2.23523 94.6919 43.9599 28
2953 2 -4.91611 93.0136 43.9232 25
2954 3 -3.35258 92.9041 44.0006 23
2955 3 -1.29895 96.4846 43.9958 25
2956 3 -0.758736 93.4841 42.6032 25
2971 1 -4.8005 97.021 42.288 27
2974 2 -2.07295 97.932 43.8667 25
2975 3 -3.65238 97.8932 43.8348 22
4133 3 1.13715 90.1278 36.0394 22
4136 3 1.49136 94.6981 36.369 25
4157 2 0.584722 90.8115 41.0972 25
4158 3 3.86945 90.6637 41.0966 24
4160 3 1.2633 90.0383 39.9208 25
4161 3 1.2959 90.0903 42.3791 25
4170 1 0.444745 89.4295 38.1183 27
4173 3 4.02955 91.0338 38.2148 26
4176 1 2.69276 91.0025 36.5967 27
4177 1 2.27579 94.3122 38.1516 27
4178 2 -0.128273 92.5231 37.7757 24
4179 3 1.4145 92.2551 37.9745 22
4180 3 3.5732 95.7525 37.8137 23
4181 3 4.07137 92.6645 36.5003 23
4182 1 2.65121 91.6461 39.6254 29
4183 3 3.89507 93.2794 39.1942 24
4187 3 1.50524 97.1959 40.9015 24
4190 1 0.136703 96.7772 39.4279 28
4191 1 -0.0414191 94.0165 40.8156 28
4192 2 2.23432 95.7847 41.031 25
4193 3 3.78656 95.758 40.9952 22
4194 3 1.34112 92.2271 41.1034 25
4195 3 1.4907 94.9999 39.799 25
4196 1 0.115309 96.0324 36.372 28
4197 3 1.59423 95.1979 42.3794 25
4199 2 2.90843 97.3237 37.755 23
4200 3 1.30794 97.3521 37.763 21
4322 1 0.39089 89.6396 44.0827 26
4325 3 4.13711 91.2845 44.0698 26
4328 1 2.65566 91.7862 42.5465 28
4329 1 2.75789 94.6278 43.9468 28
4330 2 0.0570282 92.9559 43.8808 25
4331 3 1.58151 92.7648 43.9744 23
4332 3 3.62444 96.406 43.9167 25
4333 3 4.01353 93.3282 42.6603 24
4348 1 0.0493434 96.916 42.3369 27
4351 2 2.80147 97.86 43.7821 25
4352 3 1.25244 97.8288 43.8348 22
5510 3 6.19118 90.069 36.4349 23
5513 3 6.41732 94.6811 36.1746 23
5534 2 5.3875 90.5902 41.1313 25
5535 3 8.69004 90.7016 41.1014 22
5537 3 6.1283 89.9082 39.8994 22
5538 3 6.09692 90.0175 42.4914 24
5547 1 5.30145 89.4234 38.2535 28
5550 3 8.76385 90.7869 38.1761 24
5553 1 8.40564 90.0826 36.2222 25
5554 1 7.26688 94.1501 37.8848 26
5555 2 4.68569 92.5901 38.037 23
5556 3 6.19115 92.4795 38.1195 21
5557 3 8.5585 95.6953 37.868 24
5558 3 8.87362 92.876 36.7068 23
5559 1 7.3167 91.4811 39.3937 26
5560 3 8.80267 92.9824 39.2863 23
5564 3 6.33349 97.1661 40.8104 24
5567 1 4.94392 96.5365 39.3686 27
5568 1 4.92989 93.8594 40.8852 30
5569 2 7.09801 95.7354 40.8569 25
5570 3 8.65925 95.8142 40.8773 22
5571 3 6.01188 92.1231 41.0712 26
5572 3 6.40377 94.9526 39.6456 24
5573 1 4.97527 96.0224 36.3897 25
5574 3 6.41961 95.1097 42.2124 24
5576 2 7.73554 97.1003 37.7312 23
5577 3 6.13155 97.1255 37.753 21
5699 1 5.22014 89.3608 44.2253 26
5702 3 8.89877 91.3959 44.0846 26
5705 1 7.44045 91.6666 42.5299 29
5706 1 7.4128 94.6594 43.8634 28
5707 2 4.81561 92.7616 43.9053 25
5708 3 6.36691 92.7107 43.969 23
5709 3 8.44307 96.4044 43.8873 25
5710 3 8.90215 93.3825 42.5688 23
5725 1 4.94037 96.902 42.2783 28
5728 2 7.62697 97.8744 43.7328 25
5729 3 6.08309 97.8073 43.786 22
6887 3 10.4555 90.0842 36.2894 22
6890 3 11.2058 94.0562 36.0263 20
6911 2 10.2476 90.7467 41.0371 25
6912 3 13.645 90.6392 41.0473 23
6914 3 11.0638 89.8775 39.9052 25
6915 3 10.9219 90.1279 42.3873 25
6924 1 10.2222 89.1887 38.1689 25
6927 3 13.7565 90.7522 37.9246 26
6930 1 11.5849 91.7849 36.3004 24
6931 1 12.018 94.1395 37.996 25
6932 2 9.42348 92.233 38.0414 23
6933 3 11.0255 92.1956 38.0714 22
6934 3 13.5495 95.3088 37.6056 22
6935 3 13.6212 92.6377 36.438 21
6936 1 12.3622 91.3618 39.4807 29
6937 3 13.5331 92.9048 39.0972 26
6941 3 11.2345 97.1454 40.8793 23
6944 1 9.9241 96.684 39.2621 26
6945 1 9.81989 93.9245 40.8577 28
6946 2 11.9384 95.709 40.8595 24
6947 3 13.4704 95.7008 40.8592 21
6948 3 11.0051 92.1901 40.9532 25
6949 3 11.2215 94.9997 39.5947 24
6950 1 9.70838 95.5141 36.2574 20
6951 3 11.3021 95.0329 42.174 23
6953 2 12.4121 98.352 37.7945 21
6954 3 10.9374 97.7069 37.7028 22
7076 1 10.1248 89.5376 44.1281 25
7079 3 13.8226 91.3328 44.0373 25
7082 1 12.4441 91.7283 42.4546 28
7083 1 12.2954 94.6526 43.8767 28
7084 2 9.57777 92.8658 43.8882 25
7085 3 11.1364 92.8077 43.9451 23
7086 3 13.2412 96.421 43.8772 25
7087 3 13.7995 93.2807 42.5817 24
7102 1 9.8446 96.7989 42.3263 28
7105 2 12.5048 97.8828 43.7967 25
7106 3 10.9822 97.8039 43.8017 22
8264 3 15.9466 89.4613 36.335 23
8267 3 15.988 94.8997 35.8808 22
8288 2 15.2435 90.6596 41.0334 25
8289 3 18.4056 90.8709 41.2552 23
8291 3 15.9777 89.8707 39.801 24
8292 3 15.8867 90.0435 42.3506 25
8301 1 15.101 89.197 38.1131 25
8304 3 18.5202 90.9565 38.1204 23
8307 1 17.4481 90.7011 36.5109 26
8308 1 16.6503 94.3442 37.6865 26
8309 2 14.2618 92.3608 37.8533 24
8310 3 15.8249 92.3404 37.8493 22
8311 3 18.068 95.8314 37.8257 24
8312 3 18.4347 92.906 36.6578 22
8313 1 17.0589 91.8 39.4379 28
8314 3 18.401 93.1972 39.2169 24
8318 3 15.9705 97.1818 40.7127 24
8321 1 14.5334 96.5161 39.0444 27
8322 1 14.5725 93.9313 40.8045 28
8323 2 16.6735 95.742 40.8396 25
8324 3 18.2579 95.8457 40.8848 23
8325 3 15.8344 92.1692 40.9882 25
8326 3 16.0087 94.8951 39.6331 24
8327 1 14.5863 96.4507 36.2973 23
8328 3 16.0134 95.162 42.1998 24
8330 2 17.4515 97.3999 37.7215 22
8331 3 15.864 97.3508 37.6935 22
8453 1 15.0357 89.6542 44.1511 26
8456 3 18.7215 91.3857 44.0893 25
8459 1 17.2171 91.826 42.5447 28
8460 1 17.1088 94.6553 43.9123 26
8461 2 14.5352 92.8032 43.898 25
8462 3 16.0633 92.6965 43.999 22
8463 3 18.0584 96.3993 43.9286 25
8464 3 18.5572 93.4221 42.7016 24
8479 1 14.6357 96.8754 42.2135 28
8482 2 17.3016 97.8961 43.7872 25
8483 3 15.7781 97.8142 43.7705 22
9641 3 20.7546 89.7665 36.5906 25
9644 3 20.7439 94.5907 35.7592 22
9665 2 19.9872 90.8208 41.2891 24
9666 3 23.2343 90.8704 41.2122 22
9668 3 20.7177 90.0406 40.086 23
9669 3 20.7691 90.2614 42.5301 26
9678 1 19.9181 89.6074 38.3437 27
9681 3 23.3067 90.9755 38.273 24
9684 1 22.6168 90.5172 36.385 24
9685 1 21.6946 94.1347 37.6114 24
9686 2 19.1403 92.5144 37.965 21
9687 3 20.6471 92.4953 38.1081 21
9688 3 22.9057 95.8008 37.7435 24
9689 3 23.2616 92.8068 36.6162 24
9690 1 21.9458 91.7438 39.6692 29
9691 3 23.3058 93.2208 39.2707 22
9695 3 20.811 97.2507 40.8136 24
9698 1 19.5025 96.6189 39.2555 27
9699 1 19.3462 94.0415 40.8949 27
9700 2 21.5767 95.7956 40.7866 25
9701 3 23.1275 95.86 40.8224 22
9702 3 20.6274 92.2885 41.1567 27
9703 3 20.883 95.0509 39.586 24
9704 1 19.3838 96.1501 36.2969 26
9705 3 20.9094 95.1694 42.1384 24
9707 2 22.1725 97.2805 37.6402 23
9708 3 20.6122 97.1594 37.5591 21
9830 1 19.9405 89.7195 44.1368 27
9833 3 23.5521 91.5288 44.0283 25
9836 1 22.1245 92.0287 42.5693 27
9837 1 21.976 94.7162 43.8206 28
9838 2 19.3445 92.9376 43.9982 25
9839 3 20.9156 92.9366 44.0325 22
9840 3 22.9437 96.4667 43.8912 25
9841 3 23.4822 93.6215 42.6956 23
9856 1 19.4213 96.8925 42.2635 28
9859 2 22.1401 97.937 43.7651 25
9860 3 20.5978 97.802 43.7575 22
4 3 -13.501 99.456 35.4049 22
7 3 -14.1225 104.217 36.7194 17
53 1 -12.0403 98.9619 40.6062 25
54 2 -14.3376 100.693 40.5945 24
55 3 -11.0962 100.805 40.5642 21
57 3 -13.6642 99.8557 39.4629 23
58 3 -13.6378 100.205 42.0042 24
67 1 24.2353 99.5895 37.3656 24
70 3 -11.6705 99.8413 37.4497 22
71 3 -11.1134 97.555 36.4467 24
72 3 -11.1181 97.9237 39.0738 23
73 1 -12.3656 101.06 36.0722 24
74 1 -13.0398 105.39 37.8042 24
75 2 -10.1851 103.093 37.1624 22
76 3 -13.7949 101.846 37.4302 23
77 3 -11.203 105.832 37.8 21
78 3 -11.3478 102.955 36.0634 21
79 1 -12.2907 101.538 38.9227 27
80 3 -10.7199 102.845 38.5888 25
1375 1 -9.89301 91.349 35.4143 20
88 1 -10.1414 103.928 40.3344 25
89 2 -12.817 105.797 40.7382 23
90 3 -11.2488 105.965 40.6731 21
91 3 -13.6493 102.135 40.4757 24
92 3 -13.42 104.874 39.6565 24
93 1 -10.0939 106.174 36.239 22
94 3 -13.454 105.268 42.1784 24
219 1 -14.5135 99.6986 43.6963 27
222 3 -10.8951 101.414 43.6092 25
223 3 -11.1093 98.5165 42.4319 23
225 1 -12.3056 101.851 41.9924 29
226 1 -12.3892 104.663 43.7091 26
227 2 -10.2073 102.893 43.4693 25
228 3 -13.5155 102.774 43.6245 23
229 3 -11.4231 106.503 43.7162 25
230 3 -10.9649 103.413 42.1911 26
245 1 -10.0471 106.896 42.0639 28
1381 3 -8.57252 99.2429 35.2766 23
1384 3 -9.1875 104.222 36.7296 18
1430 1 -7.24186 99.0011 40.5958 27
1431 2 -9.53239 100.806 40.4546 24
1432 3 -6.26091 100.778 40.6326 21
1434 3 -8.8831 100.106 39.2057 24
1435 3 -8.79729 100.101 41.7997 23
1444 1 -9.17861 99.6335 37.2021 26
1447 3 -6.59415 100.468 37.4996 23
1448 3 -6.03396 97.9249 36.4675 21
1449 3 -6.10402 98.0745 39.001 24
1450 1 -7.40944 101.319 35.9488 23
1451 1 -7.86179 105.264 37.8716 25
1452 2 -5.20724 103.215 37.3313 19
1453 3 -9.20346 101.751 36.5954 23
1454 3 -6.15525 106.062 38.0727 23
1455 3 -6.14712 102.871 36.0748 23
1456 1 -7.32368 101.551 38.9298 27
1457 3 -6.03832 103.192 38.6714 24
8429 3 17.4744 80.2389 45.373 20
1465 1 -5.32489 104.016 40.3581 26
1466 2 -7.98957 105.846 40.7655 24
1467 3 -6.44479 105.908 40.8884 22
1468 3 -8.78565 102.237 40.5357 24
1469 3 -8.6299 104.997 39.5928 21
1470 1 -5.23574 106.244 36.3716 21
1471 3 -8.6972 105.275 42.1607 24
1596 1 -9.67133 99.7386 43.5633 27
1599 3 -6.04639 101.379 43.668 26
1600 3 -6.20879 98.5299 42.4371 25
1602 1 -7.43359 101.731 42.0683 28
1603 1 -7.52472 104.674 43.6546 26
1604 2 -5.39408 102.85 43.5332 25
1605 3 -8.6843 102.701 43.602 23
1606 3 -6.55339 106.51 43.7034 25
1607 3 -6.15136 103.434 42.3244 24
1622 1 -5.21432 106.885 42.1176 28
2758 3 -3.97261 99.9724 35.287 24
2761 3 -4.29583 104.379 36.7443 19
2807 1 -2.37692 98.9752 40.727 27
2808 2 -4.67708 100.76 40.6021 24
2809 3 -1.36351 100.796 40.5651 22
2811 3 -3.98796 99.9167 39.4501 23
2812 3 -3.94174 100.149 41.9649 24
2821 1 -4.90426 99.4388 37.5861 26
2824 3 -1.67561 100.154 37.2525 23
2825 3 -1.17857 97.6956 36.3872 22
2826 3 -1.33423 98.0768 39.0569 24
2827 1 -2.71427 101.269 36.0984 24
2828 1 -2.74448 104.21 38.0107 22
2829 2 -0.219213 103.076 37.3129 22
2830 3 -3.99222 102.051 37.4119 22
2831 3 -1.84998 105.839 37.627 22
2832 3 -1.28784 102.77 36.1547 24
2833 1 -2.45 101.169 38.761 26
2834 3 -1.14928 103.019 38.6432 26
2841 1 -0.241358 107.403 39.1835 27
2842 1 -0.467215 103.88 40.3918 27
2843 2 -3.09875 105.82 40.735 23
2844 3 -1.56191 106.041 40.7258 23
2845 3 -4.06651 102.183 40.6143 25
2846 3 -3.58678 104.758 39.7248 24
2847 1 -0.261023 106.011 36.3104 21
2848 3 -3.72227 105.377 42.1561 23
2973 1 -4.80725 99.739 43.7447 27
2976 3 -1.229 101.396 43.657 27
2977 3 -1.40063 98.4719 42.5165 24
2979 1 -2.6005 101.816 41.9797 29
2980 1 -2.76131 104.646 43.7419 26
2981 2 -0.545059 102.873 43.5512 25
2982 3 -3.83249 102.783 43.6738 23
2983 3 -1.7044 106.469 43.7229 25
2984 3 -1.2913 103.426 42.2676 25
2999 1 -0.376623 106.771 42.1808 27
4135 3 0.989965 99.6819 35.2761 24
4138 3 0.658758 104.301 37.014 20
4184 1 2.46986 98.9314 40.5377 25
4185 2 0.203455 100.727 40.5806 24
4186 3 3.42004 100.747 40.6618 22
4188 3 0.909797 99.929 39.4191 23
4189 3 0.847081 100.206 41.9807 24
4198 1 0.391211 99.5189 37.4337 27
4201 3 3.24067 100.261 37.641 22
4202 3 3.52389 97.7799 36.3976 23
4203 3 3.46303 97.8975 39.1075 25
4204 1 2.42227 101.026 36.1288 23
4205 1 2.18157 104.755 38.1082 24
4206 2 4.46336 103.103 37.2581 21
4207 3 0.799335 101.823 37.1772 22
4208 3 3.53615 106.037 37.9143 23
4209 3 3.47322 102.766 36.0504 24
4210 1 2.40607 101.505 38.9542 28
4211 3 3.59027 103.231 38.5911 23
7432 1 13.9666 107.013 53.9616 28
4219 1 4.37847 104.014 40.3531 26
4220 2 1.73001 105.747 40.8752 24
4221 3 3.28806 105.802 40.8508 21
4222 3 0.916845 102.171 40.5146 25
4223 3 1.15366 104.85 39.7866 23
4224 1 4.22679 106.433 36.144 21
4225 3 0.98489 105.249 42.2439 25
4350 1 -0.0373808 99.7486 43.6731 26
4353 3 3.55727 101.366 43.6915 26
4354 3 3.46033 98.429 42.4735 24
4356 1 2.20481 101.75 42.0593 29
4357 1 2.08072 104.654 43.792 26
4358 2 4.23917 102.819 43.4895 25
4359 3 0.983922 102.759 43.649 23
4360 3 3.11736 106.481 43.734 25
4361 3 3.53932 103.37 42.1939 26
4376 1 4.4244 106.842 42.0822 27
5512 3 5.8563 99.5907 35.3758 24
5515 3 5.43467 104.261 36.6816 19
5561 1 7.31431 98.9309 40.5321 26
5562 2 4.98476 100.714 40.558 24
5563 3 8.22563 100.773 40.6184 21
5565 3 5.73956 99.8694 39.4507 21
5566 3 5.67025 100.221 41.9845 24
5575 1 5.12018 99.6198 37.3521 28
5578 3 7.94565 100.239 37.354 24
5579 3 8.31889 97.5672 36.3802 24
5580 3 8.27629 97.9182 38.967 25
5581 1 6.93322 101.231 35.9994 24
5582 1 6.89367 104.474 37.9163 23
5583 2 9.29926 103.042 37.233 21
5584 3 5.52239 101.877 37.4168 22
5585 3 7.72104 106.21 37.6989 23
5586 3 8.26502 102.635 36.0188 24
5587 1 7.05024 101.395 38.8072 26
5588 3 8.36011 103.113 38.5446 25
4129 1 0.0635837 91.459 35.0792 23
5596 1 9.17046 103.895 40.3496 28
5597 2 6.50632 105.919 40.5557 25
5598 3 8.07148 106.096 40.5649 22
5599 3 5.65173 102.153 40.4738 25
5600 3 6.04125 104.805 39.6216 24
5601 1 9.07858 106.243 36.1495 21
5602 3 5.92309 105.44 42.0434 23
5727 1 4.84572 99.6878 43.7093 26
5730 3 8.38429 101.408 43.6528 26
5731 3 8.35696 98.4197 42.435 25
5733 1 7.01584 101.861 41.9946 30
5734 1 6.86586 104.735 43.5742 26
5735 2 9.07781 102.866 43.5182 25
5736 3 5.78331 102.823 43.5623 23
5737 3 7.97693 106.479 43.6336 24
5738 3 8.40149 103.444 42.2222 25
5753 1 9.31036 106.795 42.0624 27
6889 3 10.6318 99.647 35.2331 23
6892 3 9.81997 104.435 36.9365 18
6938 1 12.1357 98.9525 40.7297 27
6939 2 9.78303 100.668 40.668 25
6940 3 13.1583 100.797 40.6 21
6942 3 10.3933 99.7256 39.577 22
6943 3 10.5516 100.263 42.043 24
6952 1 9.60558 99.232 37.7368 23
6955 3 12.4147 99.9391 37.7726 22
6956 3 13.2979 97.9844 36.5032 21
6957 3 13.1386 97.9637 39.1289 23
6958 1 12.0991 101.083 36.2363 22
6959 1 11.1218 105.423 37.8502 24
6960 2 13.6855 103.903 37.3816 22
6961 3 10.434 101.901 37.2633 23
6962 3 13.0457 105.388 37.5159 21
6963 3 12.8726 103.134 36.1728 21
6964 1 11.8133 101.568 38.9399 25
6965 3 13.2276 103.153 38.7521 25
10311 1 21.4299 99.7541 61.7116 27
6973 1 14.0905 103.851 40.3806 24
6974 2 11.4074 105.881 40.7702 24
6975 3 12.9475 106.12 40.6123 23
6976 3 10.4554 102.104 40.3982 24
6977 3 10.7255 104.999 39.7038 24
6978 1 13.8203 106.6 36.2164 21
6979 3 10.776 105.347 42.1624 25
7104 1 9.67334 99.7098 43.7266 26
7107 3 13.2953 101.414 43.6903 25
7108 3 13.1606 98.5006 42.4861 23
7110 1 11.8957 101.87 41.9613 27
7111 1 11.7203 104.68 43.7177 26
7112 2 13.977 102.87 43.4933 25
7113 3 10.6396 102.848 43.6064 23
7114 3 12.7896 106.448 43.6535 25
7115 3 13.2095 103.382 42.2094 26
7130 1 14.1969 106.821 42.1014 28
8266 3 15.7281 99.2073 35.0808 24
8269 3 15.1397 103.996 36.8396 20
8315 1 17.0132 98.93 40.5514 26
8316 2 14.7107 100.752 40.5527 24
8317 3 17.9949 100.833 40.5904 21
8319 3 15.4484 99.9227 39.3982 22
8320 3 15.405 100.281 41.9571 24
8329 1 15.0518 99.3734 37.3002 24
8332 3 17.6909 100.307 37.4879 23
8333 3 18.1882 97.778 36.3791 21
8334 3 18.0764 98.0685 38.9707 24
8335 1 16.7846 101.197 36.0029 24
8336 1 16.574 104.587 37.98 26
8337 2 19.0533 103.218 37.3597 21
8338 3 15.0911 101.318 36.8976 25
8339 3 17.7207 106.05 37.7521 21
8340 3 18.0968 102.913 36.0739 24
8341 1 16.826 101.451 38.7955 26
8342 3 18.0347 103.243 38.6336 25
1539 3 -4.53656 81.2049 37.6715 23
8350 1 18.9225 104.022 40.4224 28
8351 2 16.1879 105.805 40.652 24
8352 3 17.7885 105.87 40.6598 22
8353 3 15.3892 102.231 40.4705 25
8354 3 15.4855 104.97 39.558 20
8355 1 19.0797 106.376 36.379 21
8356 3 15.5421 105.25 42.0791 25
8481 1 14.5796 99.7393 43.7354 27
8484 3 18.1545 101.4 43.6719 26
8485 3 17.9726 98.4261 42.4412 24
8487 1 16.7784 101.881 41.9421 27
8488 1 16.6322 104.634 43.6461 26
8489 2 18.8636 102.844 43.529 25
8490 3 15.5218 102.78 43.6185 23