ITEM: TIMESTEP
2500
ITEM: NUMBER OF ATOMS
11016
ITEM: BOX BOUNDS pp pp pp
-14.54184 24.2364
80.0 135.0
35.0 90.0
ITEM: ATOMS id type x y z Coordination
3 3 -12.9195 84.0591 35.2828 22
13 3 -9.84206 81.7076 42.8535 23
17 1 -11.309 80.7161 36.7548 22
15 3 -12.6439 80.9791 40.4359 24
16 3 -9.78086 80.3976 38.3506 22
18 1 -11.2757 83.8798 36.1106 21
19 2 -14.2977 82.075 37.6919 20
20 3 -13.1299 81.1873 37.1917 27
21 3 -10.9414 85.3204 38.3477 23
22 3 -10.6121 82.6452 37.489 19
23 1 -11.8029 83.5465 38.9849 24
24 3 -10.1163 82.5885 40.0081 24
25 1 -11.7592 88.5051 40.8431 28
28 3 -12.8658 86.3333 40.7418 23
31 1 -14.3272 85.8975 39.2497 27
32 1 -14.1888 82.5905 40.393 24
33 2 -12.2461 85.0807 41.4862 24
34 3 -10.633 85.2681 41.4978 25
35 3 -12.5877 83.7017 40.8193 21
36 3 -13.6195 83.4654 38.4092 23
37 1 -11.4454 88.5957 35.3108 21
38 3 -12.9406 84.9583 42.8738 24
40 2 -11.5672 86.8831 38.0706 21
41 3 -13.0983 86.8886 37.9913 22
43 3 -10.919 87.3495 36.7416 19
44 3 -10.8253 87.6491 39.28 22
169 1 -11.4189 82.0839 41.6226 24
171 2 -14.1112 82.1094 43.5399 21
172 3 -12.5163 82.085 43.4313 22
189 1 -14.3284 86.28 42.4115 28
192 2 -11.4838 87.5883 44.0673 24
193 3 -13.0347 87.4477 43.9391 21
195 3 -10.8057 88.0546 42.7199 24
1380 3 -7.90886 84.3844 36.5133 22
1395 1 -7.00782 83.9685 38.3003 25
1396 2 -9.55574 82.0381 38.6065 22
1397 3 -8.0196 82.2364 38.4596 23
1398 3 -5.94894 85.5955 38.3447 24
1399 3 -5.21169 83.2952 36.9007 24
1400 1 -6.5518 81.0716 39.2543 26
1401 3 -5.14478 82.6181 39.2937 23
1402 1 -6.76581 88.4841 41.1416 27
1405 3 -8.0644 86.7769 41.2541 25
1408 1 -9.55128 86.2477 40.0227 25
1409 1 -8.60901 83.0199 41.2333 27
1410 2 -7.25111 85.3871 41.3148 24
1411 3 -5.69727 85.4449 41.2643 23
1412 3 -7.35764 81.5543 41.1709 29
1413 3 -7.92763 84.5721 40.0549 24
1415 3 -7.74507 84.5189 42.5046 23
1417 2 -6.74071 87.003 38.1513 23
1418 3 -8.3155 86.8528 38.1845 22
1420 3 -6.2068 87.5147 36.7768 24
1421 3 -6.09267 87.843 39.3356 25
1546 1 -8.60231 80.2352 42.1815 25
1551 3 -5.08555 82.7622 42.8996 24
1566 1 -9.35992 86.2589 42.8193 24
1572 3 -5.84324 87.7532 42.8769 25
1394 1 -6.48462 83.162 35.4657 21
39 1 -14.1379 88.8524 37.4577 25
1416 1 -9.65987 88.73 37.8461 24
1536 3 -7.19126 81.1273 35.8802 24
1374 1 -9.32402 85.8086 36.777 22
2751 1 -5.01014 85.4026 36.4633 29
1539 3 -4.57279 80.8201 37.5838 24
11013 1 -14.484 84.6479 36.1945 20
9826 3 19.9942 80.702 47.9742 25
2929 1 -1.89634 80.0311 44.6386 28
173 3 -10.8151 86.1022 44.29 22
1547 1 -6.45376 83.6837 44.1105 27
1569 2 -6.51111 87.2103 44.2581 24
1570 3 -8.09563 87.2779 44.1012 22
1414 1 -6.85287 88.7468 35.3431 21
1545 3 -5.1219 80.4435 44.0522 26
1390 3 -3.98829 80.7635 41.8796 22
1393 3 -3.41792 80.7553 35.3537 21
2757 3 -3.30681 85.5668 35.6084 26
2767 3 0.503675 81.6459 42.0208 23
2769 3 -2.80892 81.0031 39.6572 24
2770 3 -0.608564 80.9871 37.0321 23
2772 1 -1.99502 84.2198 36.5727 23
2773 2 -4.2993 82.4367 37.9199 24
2774 3 -2.88411 82.9056 37.6907 25
2775 3 -1.13604 85.6271 37.7375 23
2776 3 0.163739 83.3723 36.5177 20
2777 1 -2.1881 82.9001 39.5441 23
2778 3 -0.282272 82.7344 39.1158 22
2779 1 -1.98441 88.5227 40.9004 26
2782 3 -3.14435 86.8926 41.0457 26
2785 1 -4.4733 86.296 39.607 27
2786 1 -4.73619 83.5725 41.0568 29
2787 2 -2.36961 85.4623 41.0923 24
2788 3 -0.800659 85.4579 40.8716 25
2789 3 -1.70972 82.8133 41.4477 23
2790 3 -3.15532 84.6613 39.9054 26
2791 1 -2.96463 87.6154 35.0805 24
2792 3 -3.09216 84.9137 42.4425 26
2794 2 -1.79032 87.0668 37.8304 24
2795 3 -3.34255 87.063 38.0639 22
2797 3 -1.35913 87.8601 36.5595 23
2798 3 -1.02339 87.7369 39.0597 26
2923 1 -1.00992 81.0543 40.8793 24
2924 1 -1.92169 83.7048 43.4547 29
2925 2 -4.16072 81.5744 43.3953 22
2926 3 -2.84406 81.7211 44.2056 23
2927 3 -0.894688 85.9547 43.8972 23
2928 3 0.0432607 83.2597 44.0008 25
2943 1 -4.47489 86.4283 42.6417 29
2946 2 -1.63115 87.3226 43.9386 26
2949 3 -0.9959 88.001 42.5657 24
4134 3 2.13166 85.4706 35.1852 23
4148 1 2.92462 80.9247 36.5962 17
4149 1 2.77528 83.6454 38.1693 24
4150 2 0.193254 82.2321 37.7182 21
4151 3 1.77839 81.8945 37.9674 20
4152 3 3.65143 85.44 37.7415 25
4154 1 3.22314 81.1962 39.503 26
4155 3 3.77951 82.9705 36.4097 19
4156 1 2.97444 88.5092 40.7794 28
4159 3 1.74557 86.7763 40.8121 24
4162 1 0.294043 86.2131 39.3584 27
4163 1 0.364993 83.5411 40.9846 27
4164 2 2.44384 85.3558 40.921 23
4165 3 3.99909 85.3455 41.0727 24
4166 3 3.4167 82.4731 41.1403 22
4167 3 1.88691 84.6206 39.6848 25
4169 3 1.76044 84.7557 42.2779 23
4171 2 2.98352 86.8626 37.6751 26
4172 3 1.42384 86.7723 37.7647 22
4174 3 3.52058 87.701 36.4265 21
4175 3 3.68398 87.6336 39.0132 25
4300 1 3.05858 80.7801 42.2776 23
4301 1 3.1352 83.4873 42.8322 25
4302 2 0.632816 81.9109 43.579 24
4303 3 2.23316 81.9442 43.81 22
4305 3 4.78185 83.2033 43.7074 22
4320 1 0.396049 86.4963 42.4422 27
4324 3 1.58685 87.0456 43.9037 24
4326 3 3.85344 87.8916 42.5988 24
5505 1 3.95642 84.8582 35.7613 22
2793 1 -4.63026 88.7921 37.8879 25
4170 1 0.48144 88.8539 37.9842 27
4128 1 0.494729 85.4212 36.3801 25
4304 3 3.89808 85.8581 44.1192 22
4323 2 3.14137 87.3208 43.9563 26
5667 3 8.10472 80.4497 36.1812 23
4144 3 6.27786 82.2752 41.7494 24
6882 1 7.15893 85.0742 36.1674 24
4147 3 4.80586 82.3322 38.6357 22
4153 3 5.03169 80.8742 36.2424 23
4299 3 4.903 80.7772 43.3593 22
5511 3 5.61025 85.8534 35.3561 24
5521 3 9.42658 83.2909 43.0575 25
5526 1 7.80572 83.8712 38.5106 24
5527 2 5.0939 82.2952 37.0098 23
5528 3 6.34754 83.1762 36.5921 22
5529 3 8.3208 85.6457 37.7491 22
5525 1 7.91269 82.1988 35.5165 22
5531 1 8.6255 81.1585 38.2515 19
5532 3 8.94967 83.0256 37.1032 20
5533 1 7.70402 88.5181 40.7674 27
5536 3 6.46043 86.8309 40.8047 26
5539 1 5.19461 86.2643 39.4011 27
5540 1 5.12384 83.3858 40.4991 25
5541 2 7.23576 85.3586 40.8756 25
5542 3 8.72839 85.4327 40.711 24
5543 3 8.63274 82.5362 39.7461 24
5544 3 6.4352 84.6285 39.7387 24
5545 1 5.24781 87.7596 35.4076 24
5546 3 6.78486 84.8658 42.3166 25
5548 2 7.80201 87.2257 37.8108 23
5549 3 6.3066 87.1304 37.9253 23
5551 3 8.32825 88.094 36.5255 20
5552 3 8.53416 87.7616 39.0978 24
5677 1 7.9085 81.4687 41.03 26
5678 1 7.67187 84.1098 43.9383 24
5679 2 5.81271 82.0855 43.2236 21
5682 3 11.6108 82.2092 43.6076 21
5697 1 5.22662 86.3679 42.512 29
5703 3 8.55377 87.8035 42.5096 24
6888 3 11.0434 84.6004 36.1908 24
6900 3 10.4082 80.4168 38.7583 24
6903 1 12.5007 83.9931 37.6027 28
6904 2 10.2398 83.2207 36.3086 25
6905 3 11.3202 82.3557 37.1847 27
6906 3 13.4207 85.6113 37.8453 26
6908 1 12.3412 80.8934 39.2431 26
6909 3 13.7312 82.3607 39.288 26
6910 1 12.3841 88.4603 40.7493 26
6913 3 11.3155 86.5828 40.7454 24
6916 1 9.93109 86.3244 39.1873 27
6917 1 10.5203 82.5771 39.4581 24
6918 2 12.0474 85.0824 40.743 26
6919 3 13.6268 85.1713 40.8459 23
6920 3 11.5393 82.1239 40.9888 23
6921 3 11.4442 84.3677 39.387 27
6922 1 12.3391 88.6198 35.1496 23
6923 3 11.5648 84.5715 42.1226 26
6925 2 12.699 87.0626 37.7724 22
6926 3 11.2006 87.0971 37.8584 21
6928 3 13.4211 87.7234 36.5239 22
6929 3 13.3859 87.6758 39.1436 24
7054 1 12.7893 80.7841 41.7609 24
7055 1 12.5146 84.1703 43.9105 27
7056 2 10.5453 82.4019 42.336 25
7057 3 9.7983 80.9192 42.1099 23
7058 3 13.4408 85.9553 43.8896 23
7074 1 9.94806 86.1464 42.312 28
7077 2 12.7184 87.409 43.8006 25
7078 3 11.1686 87.2478 43.8904 23
7080 3 13.367 87.9029 42.4158 23
5547 1 5.16877 88.8447 38.2017 24
6924 1 10.0415 88.9417 37.8186 26
6907 3 13.9566 82.6739 36.8528 26
6902 1 12.6547 81.6549 35.7524 28
10170 3 21.7877 106.894 55.2546 21
5700 2 7.96596 87.3152 43.9229 25
5701 3 6.34803 87.2722 44.0015 22
6901 3 14.1843 80.2871 35.4542 25
8117 1 14.5328 83.7478 35.2142 23
10166 1 22.1246 102.047 54.3202 27
8259 1 14.9798 86.279 36.317 23
8265 3 16.034 84.6708 36.2449 22
8275 3 17.6 82.2272 41.506 23
8278 3 18.5534 80.6814 37.2374 22
8280 1 17.0236 83.9214 37.7468 26
8281 2 14.6795 81.9373 38.0292 25
8282 3 16.2353 82.215 38.1563 24
8283 3 18.1761 85.4852 38.216 26
8284 3 18.4391 83.0213 36.219 22
8285 1 17.5716 81.6926 39.4964 28
8286 3 18.9801 82.8754 38.6612 23
8287 1 17.2267 88.3056 40.8582 27
8290 3 16.1482 86.5513 40.8778 23
8293 1 14.7871 86.2464 39.3535 28
8294 1 14.4943 83.3533 40.9209 27
8295 2 16.7598 85.0621 41.0535 25
8296 3 18.2893 85.0823 41.1488 29
8297 3 14.6255 80.3169 38.1921 20
8298 3 16.0261 84.3349 39.8362 23
10165 3 23.7534 98.7048 56.814 25
8300 3 16.0078 84.4837 42.3393 25
8302 2 17.5878 86.9423 38.0222 23
8303 3 15.984 87.0636 37.9585 21
8305 3 18.2054 87.3007 36.5524 24
8306 3 18.1504 87.7509 39.1841 24
8431 1 16.2118 80.9773 42.0894 22
8432 1 17.021 83.9344 43.8393 24
8433 2 14.7009 82.0006 44.0454 24
8434 3 14.4293 81.9422 42.4482 26
8435 3 18.5282 85.7109 43.9387 22
8436 3 18.7676 82.7833 43.6983 24
8451 1 14.7202 86.2972 42.313 27
8454 2 17.633 87.1174 43.7912 25
8455 3 16.1222 86.8393 43.8716 26
8457 3 18.2554 87.7283 42.4772 24
9642 3 20.6265 84.639 36.3861 25
9652 3 23.7839 82.2355 42.2407 23
9636 1 18.8465 85.2877 36.1804 23
9657 1 21.9248 83.8236 37.5296 23
9658 2 19.2725 82.2138 37.234 25
9659 3 20.8048 81.9051 37.2067 22
9660 3 23.0205 85.4595 37.6931 21
9661 3 23.405 82.6254 36.7026 20
9662 1 21.373 81.7345 39.1998 24
9663 3 23.5044 81.5837 38.9868 19
9664 1 22.4213 88.472 40.6639 27
9667 3 20.8622 86.1644 40.6625 24
9670 1 20.047 87.5426 39.5028 23
9671 1 19.5653 84.5889 39.4996 27
9672 2 21.8483 84.8324 41.0395 26
9673 3 23.4348 85.0326 41.0819 20
9674 3 20.2087 82.6645 41.4587 22
9675 3 21.5166 83.9613 39.7149 28
9677 3 21.4547 84.6828 42.6096 24
9679 2 22.4104 86.9394 37.7049 21
9680 3 20.861 87.2568 37.7819 21
9682 3 23.0104 87.6114 36.4357 19
9683 3 22.9824 87.4451 39.1195 22
9808 1 21.7572 81.5402 42.5539 24
9810 2 19.0058 82.0088 42.2206 25
9812 3 23.2887 86.1158 44.1653 24
9828 1 19.7158 86.2531 42.3145 29
9831 2 22.5034 87.4942 43.7691 26
9832 3 20.9527 87.262 43.7289 24
9834 3 23.1052 87.9407 42.3192 25
8301 1 14.8244 88.9685 37.7414 28
9678 1 19.6708 88.771 37.063 23
9656 1 22.1877 81.2756 35.6878 24
2766 2 -3.81011 80.109 40.3815 26
1378 3 -9.88864 80.9911 35.1235 18
9654 3 19.5659 80.428 42.3077 25
7121 3 10.4564 107.446 46.2291 24
9809 1 22.6189 84.3114 44.2506 27
9823 1 20.2147 83.9596 43.955 26
2 3 -13.3349 89.2327 35.5355 23
5 3 -13.2009 94.2519 35.4797 24
26 2 -13.9368 90.1875 40.5512 24
27 3 -10.6478 90.3021 40.6966 21
29 3 -13.3035 89.5117 39.3645 24
30 3 -13.2929 89.484 41.8618 22
42 3 -11.016 90.1271 37.3516 24
45 1 -12.2788 91.0796 36.0593 24
46 1 -12.5294 94.235 37.3483 24
48 3 -13.3319 92.0137 37.4442 21
49 3 -10.0885 94.7135 37.6074 23
50 3 -10.3593 92.5414 36.2137 22
51 1 -11.8928 91.1408 38.8171 26
52 3 -10.4704 92.6231 38.8548 25
56 3 -13.0635 96.7007 40.4912 24
59 1 -14.3408 96.0168 39.0155 28
60 1 -14.4577 93.4283 40.409 25
61 2 -12.3054 95.3156 40.5724 25
62 3 -10.736 95.3325 40.6373 22
63 3 -13.2621 91.7078 40.6082 25
64 3 -12.9242 94.4771 39.3553 24
65 1 -13.9031 96.1053 35.7023 22
66 3 -12.9479 94.727 41.9487 25
68 2 -11.7651 97.7622 37.524 27
69 3 -12.8659 96.527 37.4309 24
191 1 -14.1139 89.3217 43.7106 27
194 3 -10.5042 90.9342 43.6597 25
197 1 -11.87 91.3872 42.0286 28
198 1 -11.9121 94.2598 43.6189 27
199 2 24.1985 92.4254 43.5081 25
200 3 -13.0211 92.265 43.5847 23
201 3 -10.9791 96.0322 43.6469 26
202 3 -10.5126 93.0721 42.4062 23
217 1 -14.4182 96.3546 42.029 29
220 2 -11.7523 97.4943 43.5601 25
221 3 -13.3099 97.4243 43.5574 23
1379 3 -8.54018 89.3539 36.2727 20
1382 3 -8.12802 94.5229 35.3036 20
1403 2 -9.02564 90.3321 40.6276 25
1404 3 -5.76081 90.2162 41.0925 23
1406 3 -8.51571 89.7762 39.2366 25
1407 3 -8.37229 89.6518 41.8986 22
1419 3 -5.59802 90.5424 37.7934 23
1422 1 -7.52089 90.5581 37.6061 27
1423 1 -6.49483 94.0928 36.1632 27
1424 2 -9.69433 93.1301 37.6135 23
1425 3 -8.24287 92.4349 37.6237 25
1426 3 -6.01371 95.4538 37.6185 24
1427 3 -5.26799 92.6263 36.537 21
1428 1 -7.40488 92.7868 39.3347 23
1429 3 -5.56227 92.6849 39.2137 24
1433 3 -8.26271 96.853 40.8534 24
1436 1 -9.46093 96.3712 39.1706 27
1437 1 -9.85007 93.4643 40.5731 26
1438 2 -7.46698 95.377 40.9363 25
1439 3 -5.87279 95.3959 40.9398 22
1440 3 -8.47568 91.8801 40.7081 24
1441 3 -8.11009 94.5813 39.7207 23
1442 1 -9.41426 96.036 36.1676 23
1443 3 -8.12019 94.8196 42.2744 26
1445 2 -6.602 96.9925 37.7631 23
1446 3 -8.14195 97.0618 37.5343 21
1568 1 -9.2741 89.2391 43.658 25
1571 3 -5.53656 90.9446 43.9793 26
1574 1 -6.96129 91.3914 42.2837 28
1575 1 -7.14555 94.2133 43.8689 27
1576 2 -9.8046 92.3969 43.6426 25
1577 3 -8.22275 92.2953 43.7064 23
1578 3 -6.15115 96.0715 43.8226 24
1579 3 -5.65113 92.8912 42.4723 24
1594 1 -9.78849 96.3625 42.173 27
1597 2 -6.91522 97.5373 43.6686 25
1598 3 -8.42955 97.49 43.7095 22
2801 2 -4.83777 92.0178 37.9741 23
71 3 -10.665 97.6956 36.396 21
72 3 -10.9879 97.6108 38.9116 24
1375 1 -9.58779 90.7618 35.5467 22
1448 3 -5.75907 97.7027 36.5946 22
1449 3 -6.17803 97.5414 39.1825 24
1600 3 -6.18213 98.0751 42.3934 25
2953 2 -4.87642 92.426 43.8163 25
4023 1 -1.35146 93.9937 35.2967 23
10186 1 23.3834 107.425 53.747 27
2756 3 -3.74993 89.2824 36.0801 23
2759 3 -3.10585 94.5262 35.9178 23
2780 2 -4.22355 90.2817 40.9169 24
2781 3 -0.944609 90.4 40.9154 23
2783 3 -3.47372 89.6475 39.6868 23
2784 3 -3.50181 89.7043 42.2544 24
2796 3 -0.762793 90.5685 37.8856 23
2799 1 -2.00464 89.7805 36.5731 24
2800 1 -2.39219 93.9127 37.8612 25
2802 3 -3.29089 91.9902 38.026 21
2803 3 -1.15484 95.6032 37.7833 23
2804 3 -0.659799 92.5703 36.4311 21
2805 1 -2.18325 91.2289 39.4761 27
2806 3 -0.802209 92.8386 39.0624 24
2810 3 -3.28882 96.8321 40.846 24
2813 1 -4.61131 96.2449 39.3372 26
2814 1 -4.64037 93.6162 40.8215 27
2815 2 -2.54291 95.4225 40.8174 25
2816 3 -1.002 95.4446 40.8369 23
2817 3 -3.54186 91.7805 40.9561 24
2818 3 -3.29185 94.6825 39.5396 24
2819 1 -4.38039 95.9933 36.3118 24
2820 3 -3.24903 94.7352 42.1218 23
2822 2 -1.82984 97.1812 37.7618 24
2823 3 -3.38481 97.0195 37.7517 23
2945 1 -4.47722 89.1384 44.0104 27
2948 3 -0.681941 90.9929 43.9446 25
2951 1 -2.14335 91.348 42.4909 28
2952 1 -2.21086 94.271 43.8163 28
2954 3 -3.32459 92.4391 43.9173 23
2955 3 -1.31278 96.1425 43.865 25
2956 3 -0.779365 93.075 42.6144 24
2971 1 -4.78808 96.4348 42.2793 28
2974 2 -1.99933 97.6024 43.6539 25
2975 3 -3.54966 97.4687 43.715 22
4133 3 1.25572 89.369 36.2133 23
4136 3 1.44861 94.5345 36.1044 23
4157 2 0.635593 90.3224 40.9586 25
4158 3 3.93348 90.324 41.0037 23
4160 3 1.36042 89.5674 39.7041 23
4161 3 1.37389 89.7358 42.2665 25
4173 3 3.99747 90.4666 38.1378 24
4176 1 3.44752 89.8906 36.2712 23
4177 1 2.48745 93.8447 37.7378 25
4178 2 -0.13077 92.0842 37.8452 23
4179 3 1.42737 91.9519 37.8274 20
4180 3 3.69271 95.5059 37.7248 24
4181 3 4.01257 92.4245 36.4983 22
4182 1 2.61819 91.1707 39.35 29
4183 3 4.02253 92.7423 39.0781 23
4187 3 1.6024 96.7923 40.8025 25
4190 1 0.271452 96.2518 39.1797 29
4191 1 0.106692 93.5424 40.7814 27
4192 2 2.29299 95.3106 40.8771 25
4193 3 3.83769 95.3298 40.7515 22
4194 3 1.26377 91.8071 40.9035 25
4195 3 1.55815 94.593 39.6045 24
4196 1 0.249139 96.0531 36.3438 26
4197 3 1.61583 94.7707 42.2125 24
4199 2 3.11655 96.9637 37.6668 23
4200 3 1.46711 97.0978 37.6602 23
4325 3 4.13189 90.9845 43.8745 25
4328 1 2.74032 91.3688 42.3572 28
4329 1 2.63865 94.2734 43.849 27
4330 2 0.0152404 92.4823 43.9171 25
4331 3 1.55884 92.3243 43.8976 23
4332 3 3.65533 96.0524 43.7926 25
4333 3 4.08801 92.9673 42.4655 24
4348 1 0.157915 96.5212 42.2417 27
4351 2 2.88109 97.5507 43.6823 25
4352 3 1.3188 97.3913 43.701 22
5555 2 4.68742 91.9623 37.8618 22
2825 3 -1.26579 97.5668 36.3577 23
2826 3 -1.19217 97.7214 39.0854 25
2977 3 -1.28391 98.0451 42.3228 24
4202 3 3.62522 97.5388 36.2906 23
4203 3 3.66608 97.6331 38.959 24
4354 3 3.56294 98.1303 42.3948 24
4129 1 0.353842 90.9926 35.535 21
2752 1 -4.7081 90.8771 35.4956 21
4322 1 0.369649 89.1917 43.9749 27
5707 2 4.83169 92.461 43.7916 25
9653 3 21.1147 80.1067 40.236 23
5510 3 5.65778 89.5027 36.3148 23
5513 3 6.29125 94.1595 35.5974 23
5534 2 5.52146 90.3288 40.9255 25
5535 3 8.7155 90.4022 40.9005 22
5537 3 6.16159 89.6223 39.679 24
5538 3 6.22889 89.6972 42.2263 24
5550 3 8.84728 90.6388 37.858 24
5553 1 7.27989 90.5264 36.5554 28
5554 1 7.40789 93.819 37.3179 24
5556 3 6.21445 91.9589 37.7681 22
5557 3 8.57056 95.4796 37.6667 24
5558 3 8.90715 92.7089 36.4886 22
5559 1 7.57675 91.394 39.4613 28
5560 3 8.93912 92.7835 39.0964 24
5564 3 6.33608 96.7458 40.7634 23
5567 1 5.13804 96.1243 39.1989 27
5568 1 4.95761 93.552 40.7434 26
5569 2 7.06726 95.2608 40.8038 25
5570 3 8.57765 95.3818 40.8231 22
5571 3 6.10957 91.7557 40.8118 24
5572 3 6.44085 94.5348 39.5115 24
5573 1 5.12483 95.7248 36.1073 25
5574 3 6.32884 94.7312 42.1443 25
5576 2 7.74774 96.9371 37.5731 23
5577 3 6.22413 96.696 37.4773 23
5699 1 5.23211 89.224 43.9223 26
5702 3 8.94707 91.0383 43.8066 25
5705 1 7.55445 91.3674 42.2785 30
5706 1 7.397 94.3209 43.8361 26
5708 3 6.37016 92.3316 43.8376 23
5709 3 8.33504 96.1223 43.7766 25
5710 3 8.83691 93.0305 42.3922 23
5725 1 4.96417 96.4884 42.1663 27
5728 2 7.5963 97.5282 43.5605 25
5729 3 6.08128 97.503 43.6267 22
6887 3 10.8978 89.4126 36.03 22
6890 3 11.217 94.3804 36.0368 22
6911 2 10.2886 90.2804 40.819 25
6912 3 13.4761 90.3302 40.85 23
6914 3 10.9647 89.5497 39.5745 24
6915 3 10.8957 89.5713 42.1393 24
6927 3 13.5575 90.5781 37.7935 25
6930 1 12.1661 91.0366 36.3321 28
6931 1 12.1641 94.1108 37.8696 27
6932 2 9.54991 92.1093 37.7578 23
6933 3 11.1321 92.0217 37.7643 22
6934 3 13.6565 95.2402 37.4651 23
6935 3 13.7124 92.6312 36.3695 23
6936 1 12.3059 91.2707 39.2743 29
6937 3 13.6828 92.716 39.0157 25
6941 3 11.0786 96.9167 40.735 24
6944 1 9.78592 96.2104 39.1536 29
6945 1 9.8383 93.5863 40.6783 26
6946 2 11.8977 95.531 40.7301 24
6947 3 13.4179 95.538 40.6585 22
6948 3 10.9789 91.7458 40.8008 25
6949 3 11.2473 94.728 39.5183 23
6950 1 10.0215 96.0233 36.236 25
6951 3 11.2712 94.914 42.0857 24
6954 3 10.9564 97.3264 37.6045 23
7076 1 9.89874 89.2441 43.8773 27
7079 3 13.7846 91.0438 43.8177 25
7082 1 12.3553 91.3824 42.3365 28
7083 1 12.2347 94.3098 43.7498 28
7084 2 9.57285 92.5311 43.7073 25
7085 3 11.1254 92.4156 43.6531 24
7086 3 13.3087 96.0962 43.5981 25
7087 3 13.6922 93.1053 42.4168 23
7102 1 9.76814 96.4555 42.1948 28
7105 2 12.5171 97.5268 43.4836 25
7106 3 10.9177 97.5141 43.6192 22
8309 2 14.2933 91.9842 37.7271 24
5579 3 8.45905 97.6008 36.3952 20
5580 3 8.26689 97.6774 38.8784 23
6957 3 13.1286 97.82 38.8886 24
7108 3 13.1414 98.0803 42.1705 24
8154 1 13.0138 94.3824 35.4898 22
8321 1 14.5658 96.4037 38.8787 28
8266 3 15.7757 99.0232 35.1535 23
9641 3 20.5487 89.3872 35.4976 22
8461 2 14.4949 92.5839 43.6399 25
47 2 23.8765 91.896 37.5871 23
8264 3 15.6939 89.3699 35.8967 25
8267 3 16.242 94.0078 35.4242 25
8288 2 15.0242 90.1882 40.8683 25
8289 3 18.3851 90.2573 40.8941 22
8291 3 15.7172 89.5074 39.5458 24
8292 3 15.729 89.5411 42.151 24
8304 3 18.5015 90.2961 37.7109 27
8307 1 17.0839 90.9122 36.2392 27
8308 1 16.8279 93.8654 37.341 26
8310 3 15.8422 91.8603 37.5858 23
8311 3 18.0979 95.335 37.5114 25
8312 3 18.4566 92.4286 36.502 23
8313 1 17.0701 91.0764 39.2627 27
8314 3 18.5344 92.4548 39.0273 24
8318 3 16.0212 96.6634 40.4059 24
8322 1 14.5552 93.7141 40.5905 27
8323 2 16.7941 95.1756 40.4891 25
8324 3 18.3594 95.1935 40.5399 22
8325 3 15.7357 91.7097 40.7458 24
8326 3 16.0701 94.4569 39.2649 24
8327 1 14.5727 96.3754 36.1951 25
8328 3 16.1463 94.6236 41.8496 23
8330 2 17.6079 96.906 37.415 23
8331 3 16.0252 97.0446 37.3751 24
8453 1 14.7902 89.2476 43.9046 26
8456 3 18.6006 90.9049 43.7452 24
8459 1 17.1474 91.4657 42.0968 28
8460 1 17.1637 94.3058 43.5982 27
8462 3 16.0329 92.3954 43.6668 23
8463 3 18.2139 95.9982 43.4719 24
8464 3 18.5757 92.9425 42.3719 24
8479 1 14.5733 96.621 41.909 27
8482 2 17.3875 97.4776 43.3716 25
8483 3 15.867 97.3715 43.4396 22
9644 3 20.8938 93.7402 35.3309 26
9665 2 19.9615 90.2925 40.9014 24
9666 3 23.248 90.3199 40.6596 22
9668 3 20.6275 89.376 39.7476 24
9669 3 20.6437 89.7291 42.1941 26
9681 3 23.3908 90.3796 37.7367 24
9684 1 21.5143 91.2952 35.8172 22
9685 1 21.7644 93.7777 37.2949 25
9686 2 19.1687 91.7809 37.7262 23
9687 3 20.7052 91.6867 37.6265 21
9688 3 23.1767 95.2363 37.5044 24
9689 3 23.168 92.5162 36.3134 20
9690 1 21.9064 90.9848 39.0707 27
9691 3 23.3242 92.6043 38.8382 24
9695 3 20.8635 96.643 40.3082 24
9698 1 19.6122 95.9535 38.705 26
9699 1 19.5367 93.4161 40.5558 27
9700 2 21.5979 95.2381 40.4368 25
9701 3 23.175 95.2466 40.5143 22
9702 3 20.6356 91.7159 40.6568 24
9703 3 20.9442 94.3648 39.2556 23
9704 1 20.1312 97.0127 35.4104 23
9705 3 21.0129 94.7005 41.8717 24
9707 2 22.5242 96.7217 37.3725 21
9708 3 20.9864 96.6232 37.1488 25
9830 1 19.6291 89.1607 43.7934 26
9833 3 23.5867 90.9521 43.5101 25
9836 1 22.1019 91.5156 41.9475 27
9837 1 21.9427 94.1478 43.6149 27
9838 2 19.3283 92.3417 43.6888 25
9839 3 20.8915 92.2516 43.6726 23
9840 3 22.9706 96.0726 43.4679 25
9841 3 23.4963 93.0186 42.2556 22
9856 1 19.4927 96.4239 41.911 28
9859 2 22.2179 97.4925 43.3071 26
9860 3 20.6351 97.4358 43.3717 22
8333 3 18.4297 97.6668 36.2619 21
8334 3 18.2319 97.5754 38.7016 23
8485 3 18.0489 98.0221 42.0368 24
9710 3 23.4335 97.4017 36.2518 22
9711 3 22.9984 97.4983 38.6818 25
9637 1 18.8385 93.734 35.1503 23
1377 1 -10.7782 104.135 35.3967 19
223 3 -11.1249 98.0077 42.2162 26
84 3 -13.6778 107.048 40.3046 24
7 3 24.2052 103.737 36.6832 17
53 1 -12.0361 98.4109 40.4232 25
54 2 -14.4134 100.334 40.7023 24
55 3 -11.091 100.27 40.4916 24
57 3 -13.7625 99.3758 39.6541 22
58 3 -13.709 99.9833 42.0569 26
70 3 -12.5005 99.1336 37.3901 24
73 1 -12.8828 100.636 35.8909 22
74 1 -13.3999 105.072 37.3542 25
75 2 -10.6695 102.192 37.1972 25
76 3 -14.2288 101.259 37.4221 24
77 3 -11.654 105.695 36.7286 21
78 3 -11.8817 102.384 36.1378 20
79 1 -12.6222 100.934 38.8003 24
80 3 -11.2402 102.445 38.6623 24
88 1 -10.2684 103.458 40.1844 26
89 2 -13.0562 105.532 40.3638 24
90 3 -11.5108 105.595 40.271 21
91 3 -13.739 101.805 40.4086 24
92 3 -13.7227 104.673 39.2778 21
93 1 -10.9565 107.126 35.4883 24
94 3 -13.6136 105.076 41.7562 22
219 1 -14.4538 99.3641 43.695 27
222 3 -10.9191 101.117 43.4662 26
225 1 -12.2632 101.472 41.8117 27
226 1 -12.4835 104.381 43.3403 27
227 2 -10.2647 102.621 43.3697 25
228 3 -13.5411 102.548 43.5178 23
229 3 -11.5841 106.284 43.2491 24
230 3 -11.0129 103.165 42.1184 23
245 1 -10.3934 106.655 41.5618 26
3069 1 -6.05213 80.5084 42.009 23
1384 3 -9.58753 103.157 36.6449 22
1430 1 -7.17372 98.5621 40.6586 27
1431 2 -9.53363 100.307 40.466 24
1432 3 -6.24423 100.46 40.5325 23
1434 3 -8.76031 99.4471 39.4256 22
1435 3 -8.81082 99.9734 41.9099 25
1444 1 -8.88659 98.9511 37.2376 23
1447 3 -7.22553 100.251 37.1812 23
1450 1 -8.43561 101.144 35.6963 24
1451 1 -7.91728 104.075 37.3872 24
1452 2 -5.74851 102.199 36.9901 24
1453 3 -10.0291 100.742 37.1401 25
1454 3 -6.74634 105.573 36.7767 22
1455 3 -6.9932 102.681 36.0244 19
1456 1 -7.44936 101.044 38.9112 25
1457 3 -6.36833 102.761 38.4322 23
1465 1 -5.28634 103.46 40.0962 25
1466 2 -8.31768 105.585 40.1451 23
1467 3 -6.74789 105.779 40.0992 21
1468 3 -8.95476 101.836 40.2794 25
1469 3 -8.89922 104.628 39.0531 19
1470 1 -6.16801 107.045 35.5235 24
1471 3 -8.8092 105.063 41.5696 23
1596 1 -9.68221 99.3839 43.5378 27
1599 3 -6.08486 101.222 43.4844 25
1602 1 -7.57763 101.581 41.8513 29
1603 1 -7.78433 104.462 43.1479 24
1604 2 -5.45903 102.72 43.3531 25
1605 3 -8.70251 102.617 43.3622 22
1606 3 -6.79131 106.254 43.2669 22
1607 3 -6.13375 103.262 41.9968 23
1622 1 -5.47265 106.642 41.4575 27
1464 1 -5.8561 106.752 38.3055 26
87 1 -10.5792 106.702 38.3765 25
97 3 -14.2643 107.094 37.1709 26
1461 3 -9.07538 106.947 40.0132 22
2754 1 -6.01715 104.287 35.3251 22
2753 1 -6.58621 99.0329 35.3898 25
2990 3 -4.00252 107.431 46.2643 25
4131 1 -0.774188 99.5627 36.0705 23
2758 3 -3.68867 99.1658 35.1593 24
2761 3 -4.68443 103.289 36.3503 19
2807 1 -2.36022 98.613 40.6446 25
2808 2 -4.66102 100.285 40.5689 23
2809 3 -1.42064 100.473 40.6028 20
2811 3 -3.9263 99.3826 39.5666 21
2812 3 -3.94865 99.9153 41.9829 24
2821 1 -4.15439 99.0776 37.2983 24
2824 3 -2.16709 99.8594 37.3665 22
2827 1 -3.24847 101.04 35.8 21
2828 1 -3.13499 104.14 37.0627 22
2829 2 -0.723107 102.444 37.0756 21
2830 3 -4.72202 101.037 37.2192 24
2831 3 -2.54637 106.049 36.5957 22
2832 3 -2.01783 102.563 36.1696 22
2833 1 -2.71801 101.089 38.7949 26
2834 3 -1.38473 102.571 38.5544 25
2842 1 -0.415108 103.449 40.1031 23
2843 2 -3.33528 105.607 40.0373 24
2844 3 -1.81746 106.053 40.0048 26
2845 3 -4.08775 101.8 40.3192 23
2846 3 -3.74445 104.518 38.9884 21
2847 1 -0.568218 105.666 36.3389 22
2848 3 -3.88164 105.103 41.4681 22
2973 1 -4.89398 99.4662 43.6866 26
2976 3 -1.16127 101.224 43.4668 25
2979 1 -2.66726 101.676 41.8603 28
2980 1 -2.90487 104.52 43.2133 25
2981 2 -0.587717 102.759 43.3062 25
2982 3 -3.88795 102.67 43.3543 22
2983 3 -1.97294 106.304 43.1096 23
2984 3 -1.30526 103.309 42.0125 23
2999 1 -0.624401 106.494 41.6213 26
4135 3 1.08714 99.0603 35.3068 24
4138 3 0.0939396 103.796 36.8223 17
4184 1 2.56367 98.6094 40.5641 26
4185 2 0.133036 100.362 40.6192 23
4186 3 3.52279 100.419 40.6133 24
4188 3 0.972792 99.6328 39.5166 22
4189 3 0.905023 99.9057 42.0271 24
4198 1 1.1906 99.0894 37.5634 23
4201 3 2.94661 100.109 37.454 22
4204 1 1.99788 100.843 35.821 23
4205 1 1.86237 104.138 37.428 22
4206 2 4.19636 102.405 37.2687 23
4207 3 0.258143 101.164 36.9344 23
4208 3 2.88265 105.635 36.6958 24
4209 3 2.86754 102.569 36.2655 19
4210 1 2.34983 101.232 39.0582 27
4211 3 3.51987 102.774 38.6787 23
4219 1 4.43426 103.771 40.1857 25
4220 2 1.58825 105.591 40.3058 24
4221 3 3.15487 105.8 40.2207 21
4222 3 0.76148 101.861 40.5111 24
4223 3 1.0767 104.563 39.2553 22
4224 1 3.5906 107.159 35.3688 24
4225 3 0.948197 105.12 41.7218 22
4350 1 0.073091 99.5063 43.7227 26
4353 3 3.60818 101.354 43.6309 26
4356 1 2.22644 101.562 41.9916 28
4357 1 1.99803 104.566 43.3165 25
4358 2 4.25825 102.88 43.475 25
4359 3 0.975905 102.677 43.4522 23
4360 3 2.94491 106.461 43.2567 24
4361 3 3.5472 103.34 42.1369 25
4376 1 4.22885 106.913 41.5878 26
4218 1 3.83999 106.768 38.1376 27
2838 3 -4.22314 106.944 39.8163 20
4215 3 0.808891 106.976 40.1887 21
4228 3 0.246431 107.332 37.1284 26
5575 1 4.7963 99.3136 37.0058 25
5508 1 3.63196 104.22 35.3375 22
6953 2 12.2937 98.2064 37.5622 23
5731 3 8.29721 98.1328 42.2864 25
6956 3 13.1776 97.8266 36.2952 23
5727 1 4.72684 99.6007 43.6536 25
6982 3 10.1686 107.114 37.3032 22
6885 1 10.0412 100.917 35.761 23
5512 3 6.03174 99.262 35.3898 24
5515 3 5.02004 103.582 36.6183 19
5561 1 7.36663 98.5721 40.5206 26
5562 2 5.10405 100.461 40.6203 25
5563 3 8.31725 100.485 40.5624 21
5565 3 5.81137 99.6056 39.5245 24
5566 3 5.76795 100.033 42.0107 24
5578 3 8.26049 100.286 37.3142 24
5581 1 6.88296 101.017 36.0068 23
5582 1 6.61251 104.478 37.1233 23
5583 2 8.75862 103.064 37.261 22
5584 3 5.33818 101.28 37.3566 23
5585 3 6.88253 106.257 36.2421 23
5586 3 7.67951 102.75 36.1603 21
5587 1 7.05454 101.038 38.7297 26
5588 3 8.09895 102.782 38.6923 24
5596 1 9.21815 103.531 40.1358 24
5597 2 6.35427 105.958 40.1518 22
5598 3 7.91838 106.149 40.1536 23
5599 3 5.6772 101.999 40.4672 24
5600 3 5.78047 105.096 38.9382 23
5601 1 8.84585 106.279 36.0632 20
5602 3 5.79057 105.324 41.5096 22
5730 3 8.46018 101.324 43.478 25
5733 1 7.10083 101.722 41.7912 28
5734 1 6.70567 104.664 43.1754 26
5735 2 9.09937 102.812 43.3211 25
5736 3 5.80204 102.817 43.4358 23
5737 3 7.67592 106.497 43.2852 24
5738 3 8.38885 103.341 41.9853 23
5753 1 9.12859 106.799 41.7853 26
6892 3 8.89554 104.629 37.1838 18
6938 1 12.1307 98.6399 40.465 25
6939 2 9.85835 100.43 40.5669 25
6940 3 13.1555 100.525 40.3833 23
6942 3 10.4179 99.4715 39.4973 21
6943 3 10.6389 100.045 41.9234 24
6952 1 9.52874 98.9132 37.7461 26
6955 3 12.1695 99.8264 37.481 24
6958 1 13.268 100.938 36.231 23
6959 1 10.8159 105.207 37.4496 23
6960 2 13.3683 103.85 37.0852 18
6961 3 10.1713 102.335 37.0927 24
6962 3 12.6692 105.328 37.0748 21
6963 3 12.8698 102.877 35.9132 19
6964 1 11.7112 101.555 38.5927 25
6965 3 13.0272 103.096 38.4314 23
6973 1 13.98 103.622 40.0957 25
6974 2 11.2523 105.721 40.4346 24
6975 3 12.8172 105.898 40.3246 22
6976 3 10.5344 101.921 40.269 25
6977 3 10.6656 104.779 39.3425 21
6978 1 13.4095 106.796 35.7136 23
6979 3 10.6652 105.221 41.8478 23
7104 1 9.63325 99.4966 43.4961 25
7107 3 13.2647 101.215 43.5177 25
7110 1 11.9885 101.611 41.6864 26
7111 1 11.7003 104.578 43.4361 26
7112 2 13.9422 102.712 43.314 25
7113 3 10.6633 102.664 43.3899 23
7114 3 12.6416 106.359 43.3914 24
7115 3 13.2479 103.221 42.0006 24
7130 1 13.9356 106.704 41.8239 28
5592 3 5.67937 107.391 40.0992 24
6969 3 10.525 107.146 40.3448 23
10164 3 23.502 98.5315 54.2334 25
9559 1 17.4149 106.724 35.2977 23
10148 3 24.1846 100.82 58.8335 23
9862 3 22.8754 98.0498 41.9625 25
67 1 24.1078 99.1742 37.7077 25
8349 1 18.4476 107.31 38.666 25
11016 1 22.9062 104.222 35.2627 21
8269 3 14.9213 104.019 36.6884 20
8315 1 17.1018 98.4744 40.2179 26
8316 2 14.7147 100.36 40.4846 24
8317 3 17.914 100.462 40.4731 24
8319 3 15.4074 99.4493 39.4251 23
8320 3 15.3779 99.9877 41.9268 25
8329 1 15.5481 99.1104 37.3837 24
8332 3 17.4244 99.9584 37.4414 22
8335 1 16.5072 100.829 35.8134 22
8336 1 16.5633 104.405 37.7215 22
8337 2 18.6788 102.443 37.1824 25
8338 3 14.9802 101.033 37.129 26
8339 3 17.7637 105.873 37.1105 23
8340 3 17.5348 102.533 36.0552 18
8341 1 16.4761 101.401 38.6018 24
8342 3 17.8544 102.838 38.4935 26
8350 1 18.8623 103.787 40.2787 26
8351 2 16.033 105.689 40.5291 23
8352 3 17.6262 105.764 40.4127 21
8353 3 15.3515 101.856 40.2819 24
8354 3 15.4657 104.805 39.3533 21
8355 1 19.8266 105.839 36.7215 22
8356 3 15.5074 105.15 41.9434 24
8481 1 14.5575 99.4631 43.6059 26
8484 3 18.1884 101.094 43.518 26
8487 1 16.8036 101.5 41.8316 27
8488 1 16.531 104.481 43.5335 26
8489 2 18.7971 102.597 43.3947 25
8490 3 15.5119 102.596 43.4263 23
8491 3 17.4636 106.354 43.414 24
8492 3 18.1427 103.142 42.0758 23
8507 1 18.7673 106.694 41.7858 28
9646 3 19.5903 103.701 36.6547 20
9692 1 21.9371 98.4898 40.109 26
9693 2 19.4805 100.474 40.5296 24
9694 3 22.8192 100.46 40.4969 24