ITEM: TIMESTEP
78800
ITEM: NUMBER OF ATOMS
5600
ITEM: BOX BOUNDS xy xz yz pp pp pp
0	7.1235	0
0	201.985	2.3745
0	119.584	0
ITEM: ATOMS id type element xu yu zu q Q_1 Q_2 Q_3 Q_4 Q_5 Q_6 Q_7 Q_8 Q_9 Q_10 Q_11 Q_12 Q_13 Q_14 Q_15 Q_16 Q_17 Q_18 Q_19 Q_20 Q_21
1 1 Mg -1.85626 47.7611 -0.921952 1.2 1 0.239431 0.082 0.0218402 0.0281095 0.00421865 0.0175599 0.00400006 0.0199844 0.00445854 0.0247702 0.00480777 0.0320661 0.00879101 0.0247314 0.00820147 0.0256741 0.00902273 0.0241335 0.007599 0.0288364
2 1 Mg 2.94374 50.2418 2.37663 1.2 1 0.173432 0.0684312 0.00743611 0.0207692 0.00240186 0.0121007 0.00329426 0.0175334 0.00407225 0.0190893 0.00650779 0.0274788 0.00697876 0.0222379 0.00554022 0.0227147 0.00558259 0.0226551 0.00749569 0.0261666
3 2 Si 0.948741 49.3069 0.250196 2.4 1 0.197796 0.0745661 0.0106607 0.0240773 0.00266816 0.0135665 0.00366494 0.0178728 0.00400008 0.0207475 0.00514933 0.0293165 0.00754597 0.0243746 0.00731325 0.0248582 0.00670788 0.0225489 0.00753835 0.0273187
4 3 O 2.24517 48.4715 0.647828 -1.2 1 0.213513 0.078352 0.0134078 0.025573 0.00264947 0.014829 0.00469785 0.0188263 0.00418013 0.0226707 0.00504088 0.0296233 0.00748327 0.0249074 0.0079646 0.0243119 0.00772742 0.0232578 0.00704335 0.0272595
5 3 O -1.31675 52.2014 1.71575 -1.2 1 0.126453 0.0535797 0.000733012 0.0153782 0.00188654 0.0103457 0.00289554 0.0164458 0.00322528 0.0169083 0.00485847 0.0268044 0.00476156 0.0205383 0.00492031 0.0229485 0.00514444 0.021582 0.00559378 0.0276444
6 3 O 0.177894 48.7805 -0.863931 -1.2 1 0.205793 0.0751945 0.0125463 0.0231766 0.00344563 0.0134592 0.00327466 0.0191935 0.0032799 0.0226331 0.00456141 0.0310592 0.00801941 0.0256788 0.00613347 0.0261973 0.00719843 0.0225856 0.0069829 0.0283877
7 1 Mg -2.10351 57.8028 2.94646 1.2 1 0.0225049 0.0144789 0.0066389 0.00594234 0.00113599 0.00701468 0.00335113 0.0199088 0.00233604 0.0117767 0.00279661 0.0257006 0.00320345 0.0203334 0.0057931 0.0275884 0.00472595 0.0232871 0.00562617 0.0329611
8 3 O 0.0519913 49.4442 1.5459 -1.2 1 0.188648 0.0727729 0.00904895 0.0218935 0.0021356 0.0131379 0.00423409 0.0176776 0.00397528 0.0202145 0.00666127 0.0278077 0.00681866 0.023198 0.00720448 0.0236952 0.00626254 0.0220745 0.00670703 0.0257968
9 1 Mg -2.04646 55.2002 4.57244 1.2 1 0.0682617 0.0342039 0.00603956 0.00949686 0.00197166 0.00680111 0.00244082 0.0173794 0.00300128 0.0136553 0.004061 0.02512 0.00364844 0.0193452 0.00643059 0.0247048 0.00559613 0.0219194 0.00658975 0.0289978
10 2 Si 0.610215 57.1457 4.50228 2.4 1 0.0287771 0.0174772 0.00698253 0.00669898 0.00121507 0.00687007 0.00258438 0.0192851 0.00256453 0.0112523 0.0033832 0.0252143 0.00380715 0.0199786 0.00611479 0.0271503 0.00493364 0.0229183 0.00627555 0.0332389
11 3 O -0.989655 57.187 4.47421 -1.2 1 0.0271589 0.0169465 0.00724984 0.00642936 0.000989362 0.00725511 0.00307337 0.0185781 0.00267028 0.0115581 0.0031488 0.0256734 0.00337139 0.0202094 0.00404337 0.0267816 0.00388766 0.0225764 0.00587236 0.0329987
12 3 O 1.54115 53.4462 4.5867 -1.2 1 0.102324 0.0469929 0.00335952 0.0128246 0.00242182 0.00772161 0.00257045 0.0168036 0.00299356 0.0152316 0.00427872 0.0253986 0.00422362 0.0201872 0.00595855 0.022969 0.00582743 0.0211921 0.00666968 0.0271194
13 3 O 1.37943 56.2515 3.32488 -1.2 1 0.0446141 0.0254499 0.007317 0.00728597 0.00141195 0.00714007 0.00290808 0.0187773 0.00216422 0.012672 0.0035805 0.0254811 0.00348197 0.0210209 0.00606624 0.0261339 0.00462157 0.0220387 0.0057419 0.0303571
14 3 O 1.24717 56.5191 5.78205 -1.2 1 0.040491 0.0234864 0.00760773 0.00648202 0.00119387 0.00641455 0.00296019 0.0187462 0.00233201 0.0119742 0.00246612 0.0248312 0.00359098 0.0197015 0.00605465 0.025935 0.00465761 0.022152 0.00651411 0.0312024
15 1 Mg 0.506558 52.9474 2.9404 1.2 1 0.114891 0.0506629 0.00190373 0.0145681 0.00163173 0.00859443 0.00284143 0.0158695 0.00348437 0.0155513 0.00461872 0.0263805 0.00410644 0.0195458 0.00536948 0.0227952 0.00511391 0.020599 0.0059416 0.0268708
16 1 Mg 0.586796 49.5225 3.55997 1.2 1 0.190705 0.0738878 0.00768394 0.0221089 0.00308795 0.011634 0.00336646 0.0170077 0.00385535 0.0183494 0.00552209 0.0274311 0.00730686 0.0226133 0.00821669 0.0226731 0.00661879 0.0222689 0.00780645 0.0254635
17 2 Si 2.28664 52.0657 4.67136 2.4 1 0.134379 0.0573719 0.00217541 0.0160201 0.00268774 0.00933647 0.00260744 0.0161655 0.00285423 0.0159918 0.00588578 0.026093 0.00532786 0.0203261 0.0060811 0.0217886 0.00652312 0.0209258 0.0075343 0.0257109
18 3 O -0.970367 52.1191 4.5867 -1.2 1 0.128143 0.0556028 0.00208174 0.0148315 0.00266527 0.00816485 0.00274474 0.0163249 0.00351977 0.0162171 0.00469509 0.0266095 0.00482821 0.0200721 0.00588644 0.0217906 0.00602592 0.020338 0.00704011 0.026524
19 3 O 2.44156 49.0053 3.88912 -1.2 1 0.201064 0.07723 0.0101357 0.0234308 0.00266457 0.0123604 0.0035073 0.0164028 0.00439126 0.0196751 0.00597602 0.0288859 0.00762149 0.022996 0.00776764 0.0221059 0.00717421 0.0229762 0.00748237 0.0255027
20 3 O 1.55988 51.2722 3.39329 -1.2 1 0.148851 0.0604279 0.00341692 0.0175869 0.00250413 0.00966255 0.00310534 0.0165822 0.00292117 0.017315 0.00478733 0.0264899 0.00563834 0.0210037 0.00640774 0.0229352 0.00522529 0.0211328 0.00711076 0.0266424
21 1 Mg 0.320892 52.7513 -0.0189543 1.2 1 0.115052 0.0504119 0.00149589 0.0145599 0.00203087 0.00911077 0.00217146 0.0173395 0.00276668 0.0177542 0.0039784 0.0271914 0.00380048 0.0214768 0.00315224 0.0251963 0.00545963 0.0216653 0.00544607 0.0280841
22 3 O 1.54368 51.3623 6.09402 -1.2 1 0.139696 0.0595106 0.00185929 0.0162865 0.00225904 0.00904191 0.00300461 0.0159636 0.0032207 0.0164473 0.00577159 0.0252572 0.00504971 0.0208245 0.00631521 0.02214 0.00546727 0.0207594 0.00760278 0.0252271
23 1 Mg 0.501627 55.812 1.63064 1.2 1 0.0528418 0.0281091 0.00718487 0.00765065 0.00193348 0.00731522 0.00220511 0.0181889 0.00333661 0.0135968 0.00394425 0.0259589 0.00324144 0.020119 0.00608884 0.0250237 0.00568825 0.0211575 0.00559086 0.0292476
24 2 Si -1.91405 53.7265 1.53383 2.4 1 0.0936289 0.0433669 0.00444799 0.0116006 0.00212155 0.00833589 0.00244345 0.0165893 0.00324458 0.0154258 0.00464528 0.0260189 0.0027988 0.0205008 0.00462718 0.023894 0.00514965 0.0213074 0.005506 0.0283057
25 3 O 1.22114 53.8097 1.49975 -1.2 1 0.0971152 0.0431686 0.00352977 0.0125316 0.00198346 0.00846911 0.00227927 0.016481 0.00297005 0.015396 0.00439243 0.0268733 0.00324628 0.0201279 0.00434324 0.0246835 0.00413455 0.0216471 0.00557578 0.0281785
26 3 O -0.516112 57.5326 1.45337 -1.2 1 0.0243454 0.0153829 0.00703863 0.00633693 0.00136697 0.00715905 0.00272067 0.0194546 0.0024766 0.0125008 0.00274602 0.0253805 0.00259563 0.020187 0.00448102 0.0271301 0.00513611 0.022594 0.00541248 0.0315945
27 3 O -1.43326 54.241 0.0889835 -1.2 1 0.0844113 0.040161 0.00512484 0.0108855 0.00203183 0.00755508 0.00199859 0.0177445 0.00318343 0.0158553 0.0034715 0.0260005 0.0024903 0.0211346 0.00368018 0.0250605 0.00515968 0.0217359 0.00480099 0.0289308
28 3 O -1.27038 54.5425 2.79009 -1.2 1 0.0771841 0.0376107 0.00550695 0.00947583 0.00217382 0.00757862 0.00268719 0.0178538 0.00327009 0.0140946 0.00423111 0.0259333 0.00302597 0.0208107 0.00528793 0.0243131 0.00563424 0.0217397 0.00592714 0.0283511
29 1 Mg -1.81289 57.9038 0.0017739 1.2 1 0.022263 0.0140571 0.00582338 0.00639368 0.0012701 0.00770183 0.0026609 0.01952 0.00261933 0.0132378 0.00291621 0.0253867 0.00341111 0.0201758 0.00356913 0.0270223 0.00427185 0.0231179 0.00454747 0.0310653
30 1 Mg 2.91387 61.2969 1.40098 1.2 1 0.00940034 0.00546781 0.00126437 0.00670174 0.00141015 0.00671991 0.00168204 0.0203809 0.00255015 0.0121939 0.00238225 0.0250628 0.00175311 0.0202441 0.00334255 0.0303407 0.00338645 0.0245202 0.00349335 0.0350423
31 2 Si 0.104487 59.2155 1.31199 2.4 1 0.0136888 0.00809701 0.00265726 0.00643888 0.00141461 0.00755799 0.00198742 0.0196711 0.00204561 0.0122854 0.0022397 0.0246217 0.00279058 0.0206877 0.00314247 0.0284474 0.00408494 0.0239647 0.0047505 0.0330711
32 3 O 1.73177 58.9149 1.4316 -1.2 1 0.0157547 0.00926875 0.00380307 0.00654117 0.00164831 0.00704055 0.0022098 0.0193167 0.00279972 0.0120813 0.0017403 0.0255036 0.00277091 0.0206665 0.0039084 0.0286961 0.00446115 0.0234071 0.00514706 0.0325583
33 3 O -0.994104 63.1033 1.57539 -1.2 1 0.00788981 0.00567031 0.00143831 0.0070898 0.00160531 0.00605008 0.00129889 0.0202377 0.00266911 0.0111608 0.00277979 0.02436 0.00163399 0.0194652 0.00341868 0.0293777 0.00317973 0.0236122 0.00331213 0.0355625
34 3 O -0.615925 59.8366 0.0601118 -1.2 1 0.0124786 0.00702132 0.00163962 0.00675954 0.00118743 0.00714352 0.00238662 0.0193812 0.00183867 0.0126077 0.0019062 0.0248 0.00222228 0.0207725 0.00290243 0.028657 0.00341196 0.0245658 0.0037347 0.0334769
35 1 Mg -1.82139 68.399 2.79278 1.2 1 0.00396784 0.00725538 0.000861664 0.00680538 0.00235535 0.00492174 0.0013297 0.0199075 0.00105074 0.0108318 0.00148998 0.023817 0.00159444 0.0211648 0.00248204 0.0303117 0.002464 0.0229835 0.00358211 0.0362389
36 3 O -0.416519 60.0266 2.5262 -1.2 1 0.0106684 0.00680564 0.00148495 0.00637226 0.00154752 0.00735546 0.00146606 0.0203353 0.00260239 0.0117767 0.00159278 0.024738 0.0023549 0.0209487 0.00377082 0.0299167 0.00369657 0.024048 0.00472193 0.0338345
37 1 Mg -1.82275 66.0662 4.41408 1.2 1 0.00149254 0.00690345 0.00206002 0.00621925 0.00166001 0.00511725 0.00192276 0.020299 0.00199137 0.010767 0.00175242 0.0245276 0.0023526 0.0207352 0.00297125 0.0318285 0.00260652 0.023783 0.00292415 0.0373403
38 2 Si 0.76185 67.7382 4.82017 2.4 1 0.00316112 0.00758163 0.00117864 0.00709725 0.00231304 0.00517869 0.00134234 0.0198276 0.00196206 0.0108695 0.00257732 0.0232745 0.00239051 0.0214044 0.00292282 0.030639 0.00254211 0.0232023 0.0033212 0.0378486
39 3 O -0.778623 67.8995 4.42374 -1.2 1 0.00371846 0.00723977 0.000816557 0.00696506 0.00189358 0.00522243 0.000997326 0.0202505 0.00186266 0.0110239 0.00130316 0.0238699 0.0021422 0.0207823 0.00300295 0.0304315 0.00272177 0.0231712 0.00281753 0.0370238
40 3 O 1.82237 63.9852 4.57155 -1.2 1 0.00469972 0.00596987 0.00186388 0.0065621 0.00127117 0.00594483 0.00147468 0.0208502 0.00166487 0.0110228 0.00172264 0.024415 0.00200616 0.0198183 0.00296048 0.030504 0.00253695 0.0242215 0.00296716 0.0371695
41 3 O 1.36305 66.9837 3.53388 -1.2 1 0.00192906 0.00704521 0.00142868 0.006609 0.00230351 0.00528536 0.00201328 0.0191177 0.00131338 0.0104836 0.00192226 0.0232578 0.00242237 0.0212701 0.00245293 0.0310612 0.00247589 0.0231869 0.00267336 0.0367996
42 3 O 1.74365 67.003 6.04948 -1.2 1 0.00251412 0.00697774 0.001268 0.00660009 0.00155899 0.00511429 0.00166516 0.0207619 0.00199529 0.0107818 0.00229159 0.0236877 0.00195469 0.0208224 0.00276936 0.0307076 0.00294196 0.0237044 0.00265762 0.0377172
43 1 Mg 0.220534 63.742 3.07741 1.2 1 0.00635712 0.00558363 0.0017031 0.0064332 0.00181708 0.00599506 0.00136078 0.0199872 0.00179467 0.0113683 0.00265141 0.0246367 0.00220504 0.0192438 0.00264814 0.0299048 0.0024743 0.0235136 0.00286566 0.034949
44 1 Mg 0.276845 60.6413 4.30119 1.2 1 0.00900535 0.00583771 0.0012505 0.0063171 0.00133806 0.00703703 0.00259139 0.019862 0.00227049 0.0114242 0.00300264 0.0253596 0.00330144 0.0201328 0.0039754 0.0292779 0.00355412 0.0232865 0.00378639 0.0343335
45 2 Si 2.40821 62.454 4.48563 2.4 1 0.00626833 0.00487399 0.00175219 0.00742062 0.00136521 0.00647133 0.00213229 0.0198782 0.0016558 0.0108614 0.00205837 0.0238294 0.00265862 0.0200244 0.0048222 0.0291628 0.00353898 0.0235466 0.00352737 0.0364792
46 3 O -0.709126 62.5079 4.51898 -1.2 1 0.00627728 0.00459529 0.00167416 0.00727391 0.00133426 0.00602648 0.00174431 0.0199632 0.00214992 0.0108414 0.00258557 0.0244776 0.00229872 0.0197794 0.0025201 0.0300551 0.00291978 0.0233863 0.00336846 0.0360956
47 3 O 1.11409 58.6044 4.39852 -1.2 1 0.0161193 0.0110676 0.0046799 0.0057488 0.00112124 0.00750779 0.00348568 0.0203841 0.0020871 0.011833 0.0026524 0.0258713 0.00373164 0.0195554 0.00477491 0.027396 0.00411392 0.0228834 0.00522585 0.0341908
48 3 O 1.79969 61.8675 3.3167 -1.2 1 0.00632142 0.00462798 0.0015614 0.00666625 0.00166211 0.00684833 0.00245306 0.0205343 0.00175747 0.0109588 0.00202678 0.0244105 0.00245291 0.0203873 0.0040202 0.0301418 0.00334734 0.0240541 0.00317963 0.0345212
49 1 Mg 0.146079 63.8739 -0.146867 1.2 1 0.00807383 0.00622844 0.000949476 0.00678211 0.00155758 0.00550773 0.00181318 0.0201485 0.00252243 0.010868 0.00297338 0.0243953 0.00167556 0.0197316 0.00301759 0.0289871 0.00313163 0.0237588 0.00332867 0.0365529
50 3 O 1.73661 61.6915 5.71261 -1.2 1 0.00636912 0.00453574 0.00134055 0.0069897 0.00167242 0.00658922 0.00271762 0.0204009 0.00175625 0.0111296 0.00209743 0.0243501 0.00274458 0.0205306 0.00404157 0.0298682 0.0028475 0.024266 0.00329229 0.0361692
51 1 Mg 0.388291 66.4968 1.79808 1.2 1 0.00371462 0.00745595 0.00137818 0.00670092 0.00174788 0.005163 0.00172393 0.0201334 0.00218998 0.0106702 0.00232976 0.0234684 0.00248836 0.0206207 0.00316291 0.030452 0.00310107 0.0240325 0.00326378 0.0369751
52 2 Si -1.8354 64.4099 1.44452 2.4 1 0.00679595 0.00665515 0.0016498 0.00708113 0.00193522 0.00549208 0.00178725 0.0195858 0.00224649 0.0107793 0.0031487 0.0235698 0.00217468 0.0196929 0.00354227 0.0295788 0.00346131 0.0234098 0.00314979 0.0364159
53 3 O 1.38129 64.3873 1.50499 -1.2 1 0.00688552 0.00586287 0.00160692 0.00680574 0.00185993 0.00552126 0.00171215 0.0196293 0.00243451 0.0106428 0.00231525 0.0237068 0.00250618 0.019507 0.00301269 0.0299368 0.0033284 0.0237516 0.00306766 0.036453
54 3 O -0.730793 68.0453 1.42934 -1.2 1 0.00361458 0.00741992 0.00126845 0.00685333 0.00196538 0.00543506 0.00144893 0.0209179 0.000910791 0.0111739 0.00203183 0.0239744 0.00276546 0.0203369 0.00333366 0.0294307 0.00256781 0.0236775 0.00346993 0.0370982
55 3 O -1.29831 65.1344 0.0514492 -1.2 1 0.00674085 0.00669008 0.00123254 0.00630343 0.00148958 0.00519583 0.00164949 0.0200707 0.00188992 0.0103461 0.00288162 0.0237206 0.00220928 0.0199505 0.00342916 0.0301346 0.00334846 0.0236751 0.00358738 0.0367031
56 3 O -1.09685 65.3863 2.52937 -1.2 1 0.00445901 0.00694978 0.00140653 0.00630627 0.00133198 0.00530371 0.00158503 0.020028 0.00201305 0.0105799 0.00214257 0.0235881 0.00202552 0.0205078 0.00299577 0.0305427 0.00317014 0.0239427 0.002946 0.0365787
57 1 Mg -2.13962 68.668 -0.210682 1.2 1 0.0047165 0.0068202 0.0017952 0.00667781 0.00195961 0.00539207 0.00139004 0.0201727 0.00135244 0.0113246 0.00173609 0.0249169 0.00266867 0.0201138 0.00256495 0.0293137 0.00246932 0.0233035 0.00446967 0.0373546
58 1 Mg 2.63394 71.3656 1.69765 1.2 1 0.00823304 0.00558903 0.00224737 0.0064723 0.00261327 0.00578672 0.00253763 0.0203318 0.00285752 0.011487 0.00292029 0.0240815 0.0026277 0.0222068 0.00456271 0.0289808 0.00303233 0.0222711 0.00472782 0.0376363
59 2 Si 0.043242 69.566 1.41616 2.4 1 0.00558987 0.00672337 0.0015729 0.00766747 0.00214505 0.00558197 0.0018283 0.0195442 0.00166248 0.0106438 0.00234156 0.0227709 0.00262135 0.0217271 0.00486128 0.02844 0.00313379 0.0224171 0.00393252 0.0377249
60 3 O 1.58944 69.5111 1.56098 -1.2 1 0.00514614 0.00665303 0.00215004 0.00677079 0.00216062 0.00547586 0.00188899 0.0198639 0.00185057 0.0109626 0.00183198 0.0238341 0.00198723 0.0211552 0.00304419 0.0292807 0.00273679 0.0228795 0.00379724 0.0376145
61 3 O -1.2566 73.4544 1.3733 -1.2 1 0.00784945 0.00467115 0.00150101 0.00734759 0.00296076 0.00634305 0.00218382 0.0205543 0.00172487 0.0126632 0.00238886 0.0243631 0.00299345 0.0220295 0.00399075 0.0267616 0.00384191 0.0210918 0.00466271 0.0364441
62 3 O -0.612207 70.2699 0.113755 -1.2 1 0.00579268 0.00610067 0.0022219 0.00642609 0.00217013 0.00555318 0.00232159 0.0200022 0.0018502 0.0109335 0.00231607 0.0235966 0.00228327 0.0217655 0.00395774 0.0288473 0.00291165 0.0234055 0.00382258 0.0376777
63 1 Mg -2.37333 79.095 2.82773 1.2 1 0.000965163 0.00479854 0.000801569 0.00843541 0.00216093 0.00726558 0.00134125 0.020104 0.00137514 0.0134922 0.0017444 0.0234664 0.00207252 0.0212963 0.00293016 0.026201 0.00416036 0.0206442 0.0041707 0.0331398
64 3 O -0.655841 70.3492 2.70309 -1.2 1 0.00712242 0.00639749 0.00211494 0.00689668 0.00230624 0.00548465 0.00208465 0.0198863 0.00217966 0.0107637 0.00219865 0.0230138 0.00278238 0.0222386 0.00533273 0.0298705 0.00307678 0.0223961 0.00426716 0.0376675
65 1 Mg -2.28934 76.4068 4.5767 1.2 1 0.00515273 0.00507235 0.00130199 0.00856145 0.00299291 0.00660317 0.00158679 0.020076 0.00242129 0.0132666 0.00228296 0.0240074 0.00221314 0.0219417 0.00387618 0.0266104 0.00398559 0.0211638 0.00478134 0.0351755
66 2 Si 0.247293 78.1473 4.46818 2.4 1 0.0022641 0.00491541 0.00122792 0.00977434 0.00306784 0.0061044 0.00200338 0.0192295 0.00266833 0.01255 0.00191486 0.0223462 0.00202082 0.0212927 0.00274201 0.0262167 0.00424894 0.0208696 0.00435813 0.0337987
67 3 O -1.35894 78.2066 4.21247 -1.2 1 0.00185857 0.00463511 0.00105899 0.0092035 0.00309763 0.00667639 0.00194408 0.0191628 0.00288941 0.0129475 0.00198444 0.0232359 0.00211094 0.0217309 0.00355013 0.0264677 0.00384544 0.0208076 0.00497529 0.0331523
68 3 O 1.79447 74.0894 4.23765 -1.2 1 0.00888128 0.00465292 0.00143912 0.0082974 0.0034522 0.00635544 0.00162101 0.0198602 0.00265758 0.0128242 0.00228414 0.0238363 0.00258059 0.0216634 0.00410341 0.02653 0.00358838 0.0214929 0.00462002 0.0367411
69 3 O 1.06801 77.5483 3.13351 -1.2 1 0.00278657 0.00464345 0.00133444 0.00885344 0.00299411 0.00699036 0.00159056 0.0195075 0.00202741 0.0132482 0.00191114 0.0233613 0.00214326 0.0220439 0.00316432 0.0264682 0.00413329 0.0207546 0.00495623 0.0339553
70 3 O 1.13561 77.5519 5.5672 -1.2 1 0.0022868 0.00493304 0.000575224 0.00902894 0.00319006 0.00651015 0.00194251 0.0196833 0.00240844 0.0128276 0.00164073 0.0228106 0.00195111 0.0220408 0.00292064 0.0263054 0.00390977 0.0212216 0.0032954 0.0332068
71 1 Mg 0.140463 73.9033 2.84273 1.2 1 0.00813289 0.00461062 0.00128879 0.00746918 0.00321571 0.00629169 0.00169285 0.0196719 0.00185437 0.0125453 0.00290791 0.0245063 0.00281258 0.0216135 0.00388723 0.0273306 0.00356717 0.0208361 0.00464655 0.0363326
72 1 Mg 0.264385 70.8883 4.4635 1.2 1 0.00853898 0.0057381 0.00174133 0.00730152 0.00273972 0.00543299 0.00170013 0.020092 0.00236697 0.0118033 0.0030684 0.0233078 0.00247265 0.0215409 0.0060028 0.0298226 0.00430338 0.0221674 0.00520366 0.0370101
73 2 Si 2.37682 72.6849 4.42923 2.4 1 0.00998395 0.00465559 0.00235768 0.00805454 0.0042015 0.00540941 0.00210022 0.0193855 0.00287439 0.0119668 0.00333709 0.0226004 0.00321072 0.021664 0.00454323 0.0280608 0.00417779 0.0216644 0.00461726 0.0373029
74 3 O -0.72961 72.8585 4.38235 -1.2 1 0.00986147 0.00476137 0.00169865 0.00768047 0.00409788 0.00502536 0.0016964 0.0187482 0.00304643 0.0115328 0.00251839 0.0229499 0.00267885 0.0210735 0.00474129 0.0281357 0.00369329 0.021368 0.00525011 0.0374709
75 3 O 1.31311 69.2262 4.76453 -1.2 1 0.00659191 0.00732357 0.00156168 0.00694869 0.00247799 0.00516812 0.00110021 0.0207413 0.00175553 0.0113362 0.00235884 0.0237794 0.00228214 0.0206922 0.00420432 0.0300722 0.00321397 0.0229822 0.00422254 0.0377202
76 3 O 1.62421 71.7924 3.22793 -1.2 1 0.00913392 0.00529018 0.00208033 0.00656577 0.00331307 0.0056221 0.00140759 0.0201272 0.00197345 0.0113864 0.00200065 0.0232426 0.00275844 0.0218122 0.00451349 0.0296205 0.003037 0.0217815 0.00465982 0.0370009
77 1 Mg 0.315564 74.0428 -0.0122501 1.2 1 0.00733649 0.00432098 0.00124851 0.00740687 0.0033053 0.00630906 0.0018296 0.0205274 0.0018817 0.0125571 0.00186277 0.025134 0.00326422 0.0218102 0.0043051 0.0275266 0.00397813 0.0216239 0.0057296 0.0371784
78 3 O 1.82902 72.2926 5.89403 -1.2 1 0.00939969 0.00459304 0.00200746 0.00757341 0.00340082 0.00541596 0.00170051 0.0199624 0.00253493 0.0115502 0.00256388 0.0228018 0.00267346 0.0213465 0.00458027 0.0293461 0.00354997 0.0221963 0.00438451 0.0366159
79 1 Mg 0.0777482 76.8949 1.47746 1.2 1 0.00525946 0.00464108 0.0011036 0.0083621 0.00249044 0.00695418 0.00231184 0.0204577 0.00222147 0.013418 0.00192184 0.0245056 0.0022872 0.0222525 0.00420548 0.0272736 0.00411034 0.0211874 0.00540501 0.0355238
80 2 Si -1.83656 74.9657 1.60989 2.4 1 0.00732928 0.00422509 0.00111998 0.00858192 0.00267179 0.00618408 0.00227344 0.0201117 0.00169212 0.0122719 0.00272833 0.0240791 0.0024943 0.0225433 0.005 0.0272116 0.0045236 0.0211006 0.00585271 0.0368506
81 3 O 1.29876 74.8648 1.58613 -1.2 1 0.00747721 0.00428243 0.00120669 0.00815468 0.00281879 0.00617136 0.00138617 0.0199902 0.00235274 0.0127929 0.00247839 0.024582 0.00299402 0.0224619 0.00372601 0.0264162 0.00365581 0.0207209 0.00489135 0.0370232
82 3 O -1.00172 79.0303 1.33733 -1.2 1 0.00269401 0.00471871 0.000566324 0.00851473 0.00190068 0.00688927 0.00128323 0.0202897 0.00131272 0.0130017 0.00185486 0.0241032 0.00232533 0.0214749 0.00299794 0.0265445 0.00440091 0.0209623 0.00429968 0.0345086
83 3 O -1.14617 75.5596 0.205892 -1.2 1 0.00671245 0.00428791 0.00126658 0.00819994 0.00297118 0.00626882 0.00229527 0.0199072 0.00214988 0.0123074 0.00221198 0.0244876 0.00265212 0.0219702 0.00466139 0.0266669 0.00508146 0.0209891 0.00576328 0.037105
84 3 O -1.08955 75.6573 2.77407 -1.2 1 0.00612279 0.00489275 0.00113562 0.00819777 0.00244857 0.00684894 0.00245162 0.0204559 0.00223142 0.0131678 0.00253479 0.023726 0.0025282 0.0224995 0.00393929 0.0279003 0.00367115 0.0214565 0.00489132 0.0357509
85 1 Mg -2.36514 79.5775 -0.0412063 1.2 1 0.00456856 0.00455629 0.00121062 0.00791248 0.0017072 0.00701581 0.00211169 0.0206766 0.00163284 0.0128513 0.00182801 0.0248014 0.00196475 0.0213091 0.00289779 0.0265937 0.0038267 0.0205042 0.00427742 0.0347566
86 1 Mg 2.49237 82.4681 1.57737 1.2 1 0.00343718 0.00649856 0.00123659 0.00712658 0.0011329 0.00683132 0.00184707 0.0210089 0.00213868 0.0129343 0.00261085 0.0236742 0.00237776 0.0214292 0.00336663 0.0274761 0.00375601 0.0211627 0.00427202 0.0331372
87 2 Si -0.224061 80.5413 1.37465 2.4 1 0.00364172 0.00467094 0.00104511 0.00852249 0.0021293 0.00669659 0.0019645 0.0198791 0.0021618 0.0123618 0.00228791 0.0230931 0.00220472 0.0213661 0.00355045 0.0262243 0.00505009 0.0203739 0.00511593 0.0334549
88 3 O 1.31207 80.392 1.42412 -1.2 1 0.00308297 0.00480366 0.00117468 0.00830608 0.00186934 0.00663703 0.00169155 0.0198697 0.00260756 0.0126459 0.00214205 0.0234651 0.00231487 0.0215719 0.00346757 0.0264929 0.00455766 0.0203983 0.0046168 0.0336199
89 3 O -1.53144 84.3364 1.52601 -1.2 1 0.00454228 0.00712672 0.00109665 0.00727902 0.00201712 0.00646415 0.00135624 0.0217281 0.00168431 0.0123363 0.00276034 0.0244786 0.00272507 0.02055 0.00429628 0.0273841 0.00383724 0.0217624 0.00425386 0.0339519
90 3 O -0.839784 81.2414 0.0389166 -1.2 1 0.00419833 0.00494241 0.00108505 0.00716872 0.00190658 0.00705602 0.00141336 0.021111 0.00200731 0.0118362 0.00255835 0.0243569 0.00238568 0.0217963 0.00386274 0.0271533 0.00443769 0.021011 0.0051288 0.0351621
91 1 Mg -2.52935 90.1326 3.0621 1.2 1 0.00703521 0.00494718 0.00229744 0.00591446 0.00249965 0.00565812 0.00204686 0.0222312 0.00168985 0.0102161 0.00271354 0.0259417 0.00354421 0.0187068 0.00468657 0.0276901 0.0039163 0.024091 0.00475382 0.0385426
92 3 O -0.86597 81.4424 2.51967 -1.2 1 0.00297405 0.00551131 0.00114793 0.00734233 0.00111657 0.00763276 0.00189648 0.0211247 0.00227197 0.0131417 0.00260961 0.0234654 0.00204099 0.021658 0.00338728 0.0264235 0.00367792 0.0208852 0.00355067 0.0321679
93 1 Mg -2.2844 87.2207 4.65107 1.2 1 0.00837414 0.00527657 0.00173567 0.00598668 0.00239836 0.00603241 0.00193002 0.0210296 0.00263571 0.0111178 0.00265895 0.0235075 0.00311802 0.019174 0.00405037 0.0281303 0.00411412 0.0225943 0.00490669 0.0353352
94 2 Si 0.339433 89.1168 4.64784 2.4 1 0.00726257 0.00407965 0.00187163 0.00604857 0.00245014 0.0055482 0.00223974 0.0213381 0.00218133 0.00947127 0.00263942 0.0238298 0.00404294 0.0185346 0.00463144 0.0282079 0.0041399 0.0235424 0.00644098 0.0387791
95 3 O -1.2675 89.0182 4.64304 -1.2 1 0.00686576 0.00410533 0.00186775 0.00617743 0.00244369 0.00541023 0.00239562 0.0203825 0.00257701 0.00914008 0.00256019 0.0243428 0.00328272 0.0180738 0.00379176 0.0281928 0.00351843 0.023092 0.00569335 0.0376386
96 3 O 1.63797 85.2496 4.42251 -1.2 1 0.0071301 0.0055285 0.000789953 0.00692569 0.00204319 0.00665412 0.00179702 0.021157 0.00215586 0.0122045 0.00210037 0.0231795 0.00190909 0.0194716 0.0032505 0.0269138 0.00356207 0.0218727 0.00414705 0.0330534
97 3 O 0.999423 88.3373 3.33007 -1.2 1 0.00719204 0.0048354 0.00212835 0.00608834 0.00217332 0.00555411 0.002721 0.0209467 0.00171842 0.00998497 0.00270222 0.0237204 0.00390251 0.0188956 0.00421588 0.027846 0.00362416 0.0229402 0.00514483 0.0367029
98 3 O 1.20731 88.3981 5.90549 -1.2 1 0.0065358 0.00417671 0.00155709 0.00513593 0.00268666 0.00598521 0.00196065 0.02224 0.00213601 0.00950505 0.00229803 0.0240602 0.00320641 0.0187027 0.0043852 0.0287763 0.00388711 0.023493 0.00528174 0.0382072
99 1 Mg -0.33085 85.0878 3.09621 1.2 1 0.00638622 0.00635828 0.000658692 0.00651528 0.00246103 0.00683827 0.0020205 0.0209987 0.00205865 0.0125385 0.00221557 0.0236651 0.0027252 0.0193878 0.00338098 0.0278009 0.00386201 0.0216415 0.00362506 0.0325701
100 1 Mg 0.0139284 81.8682 4.20816 1.2 1 0.00517917 0.00497971 0.00128492 0.00748099 0.00114631 0.00745055 0.00169823 0.0206529 0.00230303 0.0130582 0.00212904 0.023288 0.00236937 0.0207333 0.00360771 0.0264177 0.00413052 0.0211252 0.00352535 0.0317731
101 2 Si 2.1529 83.734 4.70149 2.4 1 0.00757864 0.0053925 0.000786453 0.00763127 0.00178611 0.00699751 0.00207065 0.0200861 0.00222568 0.0122091 0.00289661 0.0222187 0.00161608 0.0201057 0.00447002 0.0264047 0.00359489 0.021667 0.00391224 0.0315646
102 3 O -0.961415 83.8782 4.7125 -1.2 1 0.00673046 0.00478722 0.00121261 0.00715458 0.0018079 0.00664354 0.00159161 0.0200034 0.00240798 0.0119582 0.00222122 0.0221698 0.00265985 0.0198958 0.0041132 0.0267526 0.00362946 0.0212222 0.00382013 0.032169
103 3 O 0.789824 79.7542 4.53632 -1.2 1 0.00177807 0.00481398 0.00194675 0.00850139 0.00168324 0.00747168 0.0017222 0.0201848 0.00192104 0.0144691 0.00206732 0.0236452 0.00190282 0.021184 0.00319899 0.0258234 0.00383134 0.0207301 0.0033529 0.0323575
104 3 O 1.53689 82.7609 3.55643 -1.2 1 0.00597576 0.00551837 0.00104464 0.00722216 0.00125642 0.0075587 0.0022695 0.0205289 0.00230773 0.0124767 0.00210921 0.0226889 0.00219503 0.0212381 0.00371806 0.027138 0.00382614 0.0215773 0.00391282 0.0323518
105 1 Mg 0.0376932 84.4251 -0.138016 1.2 1 0.00352326 0.00719137 0.00149088 0.00775854 0.000872046 0.0062505 0.00169374 0.0213389 0.00165109 0.0115374 0.00227188 0.0249291 0.0027197 0.01999 0.00293638 0.0274063 0.00365639 0.0221726 0.00396275 0.0350386
106 3 O 1.41327 83.257 6.01282 -1.2 1 0.00822088 0.00467557 0.00122893 0.00778106 0.00214842 0.00673475 0.0020016 0.0203911 0.00282565 0.0125474 0.00253064 0.0224068 0.00246591 0.0203525 0.00429776 0.0267063 0.00425012 0.0224969 0.00468828 0.0329044
107 1 Mg -0.210164 87.6598 1.43638 1.2 1 0.00509964 0.00637542 0.00204087 0.00663514 0.00224746 0.00614985 0.00225897 0.0220983 0.00257352 0.0105498 0.00325207 0.0248423 0.00275236 0.0189796 0.00434191 0.0273709 0.00372051 0.0231676 0.00446958 0.0364732
108 2 Si -2.17422 85.8594 1.51755 2.4 1 0.00468577 0.00662749 0.00188101 0.00747623 0.00312252 0.00604262 0.00203287 0.0210595 0.0016046 0.0107924 0.00291126 0.0231197 0.00304538 0.0198845 0.00435227 0.0269691 0.00426076 0.0216845 0.0038604 0.0352815
109 3 O 0.914769 85.8763 1.61875 -1.2 1 0.00515116 0.00689768 0.00160301 0.00700323 0.00323424 0.00645736 0.00199254 0.020851 0.00221157 0.0109315 0.00265326 0.0238471 0.00266574 0.0199396 0.00395204 0.0277024 0.00396658 0.0215911 0.00450635 0.0346694
110 3 O -1.15287 89.6328 1.38182 -1.2 1 0.00614628 0.00578277 0.00186556 0.00673652 0.00235481 0.00605995 0.00191346 0.0221173 0.00107388 0.0106513 0.00235739 0.0256894 0.00274897 0.0188094 0.00395965 0.0274068 0.00392522 0.0234418 0.00440632 0.0378855
111 3 O -1.52132 86.3757 0.25747 -1.2 1 0.00343769 0.00680182 0.00198632 0.0070551 0.00276538 0.0062148 0.0020712 0.0220325 0.00214959 0.0102211 0.00249159 0.0242606 0.00316088 0.0200245 0.00406822 0.0278212 0.00373501 0.0222477 0.00373871 0.0357891
112 3 O -1.48355 86.6233 2.61794 -1.2 1 0.00595892 0.00652878 0.00168545 0.00651101 0.00253983 0.00652441 0.00179112 0.0218345 0.00171942 0.0114193 0.00230418 0.0235145 0.00291125 0.019528 0.00414598 0.0273337 0.00422991 0.0223056 0.00452987 0.0349366
113 1 Mg -2.5477 89.8363 0.225912 1.2 1 0.00528496 0.00599886 0.00179045 0.0071526 0.0015745 0.00594879 0.00149821 0.0222467 0.00101954 0.0107944 0.00244743 0.0262081 0.0029704 0.0187345 0.00368289 0.0274146 0.00355224 0.0238135 0.00427235 0.0382602
114 1 Mg 2.00548 92.928 1.42601 1.2 1 0.00507139 0.00689953 0.00229436 0.00722423 0.00141915 0.00565822 0.00185587 0.022581 0.00222774 0.00991938 0.00285066 0.0272341 0.00312552 0.0194902 0.00376854 0.0294541 0.00461685 0.0251092 0.00446583 0.0412672
115 2 Si -0.495185 91.1433 1.53839 2.4 1 0.00612672 0.00572351 0.00209536 0.00786102 0.00239753 0.00561131 0.00181375 0.0209756 0.00194475 0.00942817 0.00274959 0.0255101 0.0031019 0.0191512 0.00513928 0.0271357 0.00523163 0.0242821 0.00532411 0.0395479
116 3 O 0.987764 91.0376 1.62276 -1.2 1 0.00587414 0.00548946 0.0023321 0.00747249 0.00205099 0.00491392 0.00137756 0.0211296 0.00204315 0.00916811 0.00238441 0.0257915 0.00347366 0.0186816 0.00441365 0.0281246 0.00505737 0.0239333 0.00435014 0.039882
117 3 O -1.7056 94.8279 1.62309 -1.2 1 0.00314407 0.00714103 0.00227547 0.007287 0.00141606 0.00586301 0.00224845 0.0226331 0.00144746 0.0100163 0.00271035 0.0276623 0.00330706 0.0192851 0.00552313 0.0292507 0.00450648 0.0246426 0.00434328 0.0415476
118 3 O -1.07856 91.9046 0.304479 -1.2 1 0.00503395 0.00657919 0.00186025 0.00741321 0.00203984 0.00599209 0.0026987 0.0218858 0.00228092 0.00961051 0.00308287 0.0265559 0.00281175 0.0200063 0.00466695 0.028542 0.00413188 0.0244421 0.00412143 0.0402432
119 1 Mg -2.65561 100.252 2.96456 1.2 1 0.00761982 0.00616384 0.00150815 0.00764501 0.00227541 0.00586995 0.00216178 0.0220245 0.0020428 0.0096604 0.00193884 0.0284319 0.00339434 0.0194816 0.00395445 0.0303548 0.00367184 0.0249104 0.00532868 0.0390872