ITEM: TIMESTEP
43300
ITEM: NUMBER OF ATOMS
5600
ITEM: BOX BOUNDS xy xz yz pp pp pp
0	7.1235	0
0	201.985	2.3745
0	119.584	0
ITEM: ATOMS id type element xu yu zu q Q_1 Q_2 Q_3 Q_4 Q_5 Q_6 Q_7 Q_8 Q_9 Q_10 Q_11 Q_12 Q_13 Q_14 Q_15 Q_16 Q_17 Q_18 Q_19 Q_20 Q_21
1 1 Mg -1.74216 48.9554 -1.01597 1.2 1 0.234285 0.0833769 0.0177626 0.0282743 0.00529612 0.0148505 0.00369521 0.0212688 0.00512153 0.0243991 0.0072372 0.0303943 0.0110329 0.0293405 0.00850207 0.0265025 0.00896968 0.0229698 0.010111 0.0331661
2 1 Mg 2.744 50.6888 2.16974 1.2 1 0.187556 0.0729055 0.00836618 0.0206297 0.00267323 0.00974767 0.00408982 0.018563 0.00486399 0.0211944 0.00484914 0.0251242 0.00642837 0.0272534 0.00588707 0.024934 0.0081077 0.0211074 0.00878993 0.0308575
3 2 Si 0.69216 50.6222 0.299772 2.4 1 0.192195 0.0733554 0.0104211 0.0224193 0.00358335 0.0106139 0.00281012 0.0192589 0.00548123 0.0224106 0.005767 0.0278975 0.0073062 0.0286867 0.0055571 0.0253534 0.00737109 0.0206092 0.00901734 0.0327087
4 3 O 1.98387 49.7306 0.551783 -1.2 1 0.211836 0.0778086 0.0148913 0.0247811 0.00468178 0.0119255 0.00314024 0.01927 0.00608375 0.0232231 0.00616094 0.0268322 0.00901303 0.0295969 0.00767728 0.02594 0.0087943 0.0220533 0.00868145 0.0320765
5 3 O -1.5323 53.4391 1.80356 -1.2 1 0.124724 0.0505597 0.00238917 0.01302 0.0023751 0.00757672 0.00268741 0.0181301 0.00394431 0.0173176 0.00453 0.026676 0.0047002 0.0237826 0.0042549 0.0256441 0.00650242 0.0194051 0.00778115 0.0342592
6 3 O -0.135312 50.067 -0.90035 -1.2 1 0.200055 0.0752928 0.0103414 0.0230707 0.00379415 0.0127234 0.00365429 0.0206212 0.00446019 0.0227219 0.00665867 0.0290208 0.00851761 0.0287057 0.00620457 0.0262644 0.00728481 0.0216772 0.00842184 0.0333994
7 1 Mg -2.53215 59.2376 2.9859 1.2 1 0.0180888 0.0130758 0.00427155 0.00649558 0.0017544 0.00631071 0.00191956 0.0202357 0.00259781 0.0119781 0.00349673 0.026815 0.00362559 0.0211673 0.00528465 0.0286646 0.00547001 0.0221097 0.00620187 0.0393005
8 3 O -0.199626 50.5273 1.60289 -1.2 1 0.189314 0.0735799 0.00984546 0.0207747 0.00306785 0.00949875 0.0041015 0.0196718 0.00584573 0.0223347 0.00578868 0.0269002 0.00737499 0.0288615 0.00602685 0.025443 0.00846036 0.0209544 0.00885995 0.0318639
9 1 Mg -2.68879 56.217 4.53531 1.2 1 0.0702196 0.0342032 0.00377299 0.00852959 0.00217773 0.00644431 0.00256355 0.0174789 0.00382021 0.0147282 0.00371397 0.0246225 0.0037911 0.0215076 0.00455537 0.0251816 0.00490823 0.0199274 0.00629618 0.0341131
10 2 Si 0.34475 58.4148 4.57558 2.4 1 0.0249628 0.0156998 0.00577868 0.00686495 0.00159684 0.00627319 0.00337251 0.0191038 0.00358336 0.011694 0.00405691 0.0252221 0.00353826 0.0214998 0.0067914 0.02691 0.00586018 0.0211851 0.00683462 0.0377803
11 3 O -1.25199 58.4921 4.42426 -1.2 1 0.0244949 0.0166393 0.00576897 0.0061401 0.00131644 0.00608676 0.00230236 0.0193136 0.00363099 0.012012 0.00316405 0.0260603 0.00368379 0.0211797 0.00512601 0.0276173 0.00581388 0.0209509 0.00660588 0.0380049
12 3 O 1.58099 54.0366 4.78343 -1.2 1 0.112808 0.0479488 0.00166698 0.0116603 0.00163538 0.00671685 0.00283673 0.0166776 0.0039573 0.0164924 0.00434558 0.0240225 0.00468994 0.0226479 0.00415506 0.0233765 0.00520625 0.0185187 0.00614986 0.0312974
13 3 O 0.870715 57.6803 3.31405 -1.2 1 0.0352786 0.0214092 0.00644998 0.00673552 0.00133652 0.00562255 0.00252375 0.0191111 0.0035371 0.0122657 0.00399356 0.0254855 0.00341026 0.0214585 0.00552396 0.0275202 0.00547615 0.0209416 0.00692089 0.0374249
14 3 O 0.848911 57.768 5.84978 -1.2 1 0.0324727 0.0203812 0.0069126 0.00563645 0.00161897 0.00615761 0.00299066 0.0190568 0.00288496 0.0120702 0.00310307 0.0251155 0.00339628 0.0209302 0.00515223 0.0265258 0.00518666 0.0207566 0.00686327 0.0361847
15 1 Mg 0.0570242 53.4404 3.17345 1.2 1 0.124611 0.053746 0.00193831 0.0132746 0.00186306 0.00742258 0.00261954 0.0172595 0.00450286 0.0172264 0.0047012 0.0254005 0.00483245 0.0230063 0.00445587 0.0235112 0.00598582 0.0187812 0.00768206 0.0324099
16 1 Mg 0.680739 49.7119 3.17796 1.2 1 0.209863 0.0782988 0.014304 0.0236444 0.00352481 0.0108529 0.00460837 0.0190313 0.00551953 0.0229725 0.00576757 0.0247522 0.00780339 0.0283826 0.00620226 0.0245106 0.00887209 0.0223424 0.00924433 0.0300141
17 2 Si 2.28979 52.5526 4.77096 2.4 1 0.150188 0.0611092 0.00448798 0.0153162 0.00194428 0.00789771 0.00321605 0.0162138 0.00313417 0.0187023 0.00512063 0.0240907 0.00541871 0.0239259 0.00505282 0.0236358 0.0055267 0.0187877 0.00801206 0.0296032
18 3 O -0.875244 52.6426 4.73006 -1.2 1 0.141959 0.0585403 0.00316584 0.0144096 0.002061 0.00748749 0.00326307 0.0160577 0.00419831 0.0178792 0.00504349 0.0242744 0.00563446 0.0248975 0.00426172 0.0233336 0.00564861 0.018149 0.00750535 0.0300769
19 3 O 2.51605 48.8651 3.26275 -1.2 1 0.225834 0.0834257 0.0166445 0.0263574 0.00397216 0.0123884 0.00401165 0.0180948 0.00555587 0.0239924 0.006029 0.0249783 0.00862895 0.028259 0.00873164 0.0251479 0.00964653 0.0236883 0.00968988 0.0294663
20 3 O 1.73766 51.8428 3.41323 -1.2 1 0.156672 0.0633322 0.00471731 0.0158573 0.00224013 0.00811677 0.00311962 0.017681 0.00408429 0.0193022 0.00489236 0.0248643 0.00537406 0.025494 0.00558543 0.0241434 0.00659526 0.0192701 0.00826934 0.0305016
21 1 Mg -0.221083 54.0877 0.132364 1.2 1 0.111973 0.0490027 0.00134773 0.0134145 0.0022127 0.00769459 0.00255942 0.01925 0.00437645 0.0169965 0.00443551 0.0280957 0.00410497 0.0232991 0.00460093 0.0258479 0.00557046 0.0205951 0.00714697 0.0356047
22 3 O 1.8043 51.4309 5.82552 -1.2 1 0.158776 0.0649787 0.00479256 0.0162432 0.00205832 0.00849864 0.00355662 0.0162721 0.00375864 0.0196402 0.00496071 0.0231424 0.00581355 0.0247433 0.00511764 0.0231057 0.0055963 0.0182712 0.00717489 0.0282974
23 1 Mg -0.24462 56.9457 1.76287 1.2 1 0.0475033 0.0268369 0.00673973 0.00803804 0.00209916 0.00634396 0.00198027 0.0189008 0.00413373 0.0129336 0.00453269 0.0269267 0.00368486 0.0217198 0.00573804 0.0266898 0.00598677 0.0202446 0.00704397 0.0383209
24 2 Si -2.2494 54.8484 1.59931 2.4 1 0.0994994 0.0436957 0.00165325 0.0113578 0.00191519 0.00659857 0.00242227 0.0176782 0.00439918 0.0155282 0.00427067 0.0258476 0.00416721 0.0231085 0.00462642 0.0250356 0.00586913 0.0186808 0.00719632 0.035594
25 3 O 0.940844 54.6876 1.60042 -1.2 1 0.107413 0.0454438 0.0016613 0.0123113 0.00197075 0.00738684 0.00254525 0.017578 0.00427056 0.0159408 0.00436743 0.0263529 0.00451396 0.0230286 0.00482975 0.0256698 0.00555076 0.0195172 0.00757585 0.0352104
26 3 O -1.2064 58.8201 1.51634 -1.2 1 0.0220176 0.0157279 0.00624782 0.00675164 0.00209308 0.00583336 0.00190827 0.0200849 0.00340039 0.0109242 0.00369987 0.0271861 0.00409523 0.021247 0.00541565 0.0292223 0.00594098 0.0226764 0.00763972 0.0397874
27 3 O -1.52379 55.546 0.328217 -1.2 1 0.0787144 0.0382572 0.00440728 0.0107217 0.00280286 0.00611859 0.00172672 0.0189776 0.00452347 0.0141165 0.00437219 0.0270146 0.00315586 0.0223089 0.00494688 0.0268945 0.00576876 0.021154 0.00665883 0.0375824
28 3 O -1.66648 55.7013 2.81409 -1.2 1 0.078839 0.0371407 0.0038115 0.00888691 0.00197923 0.00624529 0.00219613 0.0176737 0.0038062 0.0144811 0.00444749 0.0255499 0.00342313 0.0219073 0.00502198 0.025339 0.00653961 0.0196019 0.00755224 0.0354524
29 1 Mg -2.54976 59.211 0.0324058 1.2 1 0.0165764 0.012527 0.0044151 0.00711176 0.00181173 0.0067693 0.00228013 0.0208546 0.00231931 0.0107331 0.00304492 0.0278138 0.00297988 0.0216232 0.00518376 0.029566 0.00445779 0.0244446 0.00642667 0.0412617
30 1 Mg 2.48112 62.295 1.73119 1.2 1 0.00724266 0.00715954 0.00122663 0.00778805 0.00155672 0.00590823 0.00172647 0.0218241 0.00210766 0.00976991 0.00313542 0.0269349 0.00311868 0.0212142 0.00450251 0.0304725 0.00480799 0.0251595 0.00494052 0.0424305
31 2 Si -0.445814 60.4134 1.57532 2.4 1 0.012784 0.00934274 0.00219324 0.0082294 0.00199219 0.00605223 0.00127456 0.0203921 0.00247792 0.0102385 0.00368838 0.0262254 0.00369932 0.0216935 0.00498136 0.0298105 0.00496599 0.0238469 0.00595194 0.042277
32 3 O 1.05661 60.1321 1.59765 -1.2 1 0.0142268 0.0105021 0.00328367 0.00724931 0.00188826 0.00600771 0.0023651 0.0207495 0.00331976 0.0103486 0.00353196 0.026597 0.00375834 0.0212653 0.00566133 0.0301489 0.00524053 0.0240028 0.00689834 0.0415707
33 3 O -1.45662 64.1741 1.68422 -1.2 1 0.00609767 0.00591768 0.00127667 0.00790422 0.00148913 0.00577074 0.00133587 0.0221814 0.00165814 0.00930543 0.00239632 0.0272328 0.00298348 0.0203766 0.00421735 0.0299757 0.00443073 0.0252957 0.00499987 0.04264
34 3 O -1.09925 61.14 0.251009 -1.2 1 0.00918286 0.00765341 0.00143242 0.00735024 0.00186749 0.00606392 0.00105762 0.0214843 0.00197224 0.00993221 0.00287542 0.0268862 0.00345971 0.0219954 0.00503688 0.0312854 0.0042272 0.0250349 0.00598127 0.0430652
35 1 Mg -2.289 69.6278 2.88738 1.2 1 0.00075488 0.00397303 0.00140281 0.00798217 0.00125574 0.00531134 0.00134426 0.0222259 0.00114022 0.00942562 0.00210765 0.0277171 0.00259603 0.0195736 0.00416252 0.0307824 0.0044275 0.0263433 0.00482447 0.0434088
36 3 O -1.08762 61.0182 2.85953 -1.2 1 0.0100889 0.00839741 0.00172409 0.00733037 0.001925 0.00618758 0.00134748 0.0215154 0.00231908 0.0102878 0.00303784 0.0261667 0.00385376 0.0215598 0.00498992 0.0301474 0.00495805 0.024275 0.00650553 0.0416607
37 1 Mg -2.19807 66.8262 4.65648 1.2 1 0.00311316 0.00566587 0.00161232 0.00725971 0.00130525 0.00545062 0.00142592 0.0224721 0.00233459 0.00955245 0.00216636 0.0274097 0.00306877 0.0202826 0.00475512 0.0315391 0.00420342 0.0260604 0.0047743 0.0434513
38 2 Si 0.453514 68.8354 4.4998 2.4 1 0.00283729 0.00426111 0.00177132 0.00831808 0.0012657 0.00533004 0.0016316 0.0223577 0.00166917 0.00917929 0.00298671 0.0267697 0.00279692 0.020327 0.00544497 0.0310696 0.00498564 0.0263714 0.0045343 0.0441211
39 3 O -1.07672 68.7038 4.48996 -1.2 1 0.00247033 0.00443277 0.00136523 0.00834918 0.00125891 0.00522961 0.0015022 0.0215722 0.00230898 0.00901116 0.00190279 0.0266496 0.0031452 0.0198904 0.0040293 0.0313664 0.00468813 0.0259589 0.00346481 0.0447865
40 3 O 1.506 64.9975 4.78258 -1.2 1 0.00452768 0.0065405 0.0013526 0.00734757 0.00133785 0.00516798 0.00141032 0.02243 0.00134582 0.00985672 0.0028118 0.0272459 0.00382912 0.0196217 0.00511289 0.0305251 0.00425664 0.0255025 0.00401681 0.0437134
41 3 O 1.18211 68.0294 3.30143 -1.2 1 0.00223128 0.00466995 0.00137712 0.00757494 0.0016284 0.00563782 0.00223116 0.0227297 0.00221792 0.00943718 0.00277068 0.026218 0.00349239 0.0208342 0.0047088 0.0312179 0.00442008 0.0264113 0.00391614 0.0438572
42 3 O 1.2217 68.0771 5.91481 -1.2 1 0.00353124 0.00531613 0.00128934 0.00740937 0.00161876 0.00548354 0.00266949 0.0227591 0.00195082 0.00920271 0.00219295 0.027009 0.00312231 0.0206473 0.00515843 0.0316641 0.00422045 0.0262206 0.004261 0.0445035
43 1 Mg 0.195888 64.8308 3.32133 1.2 1 0.0049125 0.00625887 0.00125846 0.00742507 0.00165646 0.00537131 0.00134984 0.02201 0.00188894 0.00936169 0.00283538 0.027265 0.00326915 0.0196849 0.00434177 0.03045 0.00438957 0.025489 0.00457187 0.0432269
44 1 Mg -0.0196749 61.8313 4.5631 1.2 1 0.00871573 0.00748565 0.00193273 0.00698056 0.00168512 0.00610923 0.00250793 0.0211213 0.00195876 0.0107762 0.00351737 0.026827 0.00359241 0.0207981 0.00542815 0.0298496 0.00500322 0.0239366 0.00612222 0.0416801
45 2 Si 2.17766 63.5649 4.66007 2.4 1 0.00675058 0.00649042 0.00160467 0.00828641 0.00184577 0.00552231 0.0021853 0.0217263 0.00146234 0.00916402 0.00306234 0.0258079 0.00367548 0.0205966 0.00616386 0.0296906 0.00513941 0.024685 0.00530866 0.0445601
46 3 O -1.01021 63.6578 4.56996 -1.2 1 0.00590123 0.00652763 0.00154723 0.00776561 0.00178244 0.00520243 0.00177291 0.0211468 0.00235301 0.00915724 0.00254452 0.0267956 0.00275516 0.0197147 0.00390858 0.0304964 0.00420852 0.0245984 0.00419432 0.042922
47 3 O 0.969685 59.9548 4.60789 -1.2 1 0.014499 0.0107971 0.00297587 0.00633606 0.00154471 0.0063053 0.00225418 0.0206414 0.0026885 0.0112531 0.00327103 0.0264539 0.00326268 0.0206863 0.00467461 0.0284841 0.00483929 0.0219924 0.00558304 0.0401507
48 3 O 1.48273 63.0089 3.34877 -1.2 1 0.00675611 0.00672608 0.00147173 0.00773505 0.00208624 0.00532458 0.00297978 0.0214614 0.00187686 0.00912042 0.00290289 0.0263441 0.00368536 0.0199867 0.00591451 0.0303944 0.00541601 0.0255313 0.00571693 0.0432009
49 1 Mg -0.157022 64.2961 0.228571 1.2 1 0.00519808 0.0057812 0.00113874 0.00792212 0.00142937 0.00571253 0.00161942 0.0223259 0.00153909 0.00948661 0.00211871 0.0273479 0.00301682 0.0208419 0.00452464 0.0309854 0.00411712 0.0253216 0.00426551 0.0426119
50 3 O 1.41878 62.827 5.72956 -1.2 1 0.00691042 0.00678517 0.00148009 0.00743062 0.00199458 0.00564773 0.00223453 0.0211264 0.00166362 0.0096757 0.00188003 0.0263763 0.00351343 0.0203776 0.00510841 0.0300176 0.0046318 0.0239475 0.00511296 0.0433026
51 1 Mg 0.0877068 67.4683 1.55112 1.2 1 0.00278325 0.00475193 0.00100733 0.00754485 0.00113428 0.00514646 0.00092075 0.0222908 0.00185171 0.01013 0.00252849 0.027375 0.0036551 0.0203931 0.00402426 0.0310461 0.00445846 0.0261935 0.0048196 0.0427564
52 2 Si -1.9743 65.6355 1.75034 2.4 1 0.00448774 0.0051711 0.00148733 0.00797733 0.00148915 0.0051745 0.00178931 0.0218355 0.00173295 0.00940059 0.00224349 0.0264082 0.00276928 0.0209219 0.00412359 0.0306393 0.00380595 0.0254718 0.00391727 0.0430392
53 3 O 1.24861 65.6364 1.86515 -1.2 1 0.00472821 0.0050949 0.00121817 0.00771372 0.00152824 0.00521956 0.0013835 0.0220367 0.00180908 0.00913714 0.00204347 0.027132 0.00284119 0.020031 0.00478859 0.0310946 0.00457538 0.0254419 0.00487776 0.0432567
54 3 O -0.902551 69.1991 1.43104 -1.2 1 0.00198964 0.00443459 0.00149381 0.00799199 0.00143451 0.00560884 0.00160099 0.0225376 0.0013204 0.00969869 0.00218797 0.02774 0.0029193 0.0198362 0.00521612 0.0301303 0.00447263 0.0262022 0.00499099 0.0424352
55 3 O -1.5281 66.4474 0.379109 -1.2 1 0.00370766 0.00477434 0.00152996 0.00769323 0.00128773 0.00535795 0.00128297 0.0219282 0.0018115 0.00978737 0.00221011 0.0269459 0.00256482 0.020737 0.00420095 0.0312518 0.0040675 0.025418 0.00442059 0.0421205
56 3 O -1.21245 66.3462 2.97726 -1.2 1 0.00378805 0.00512868 0.00172862 0.00701298 0.00126321 0.00545689 0.0014953 0.023078 0.00191043 0.00963126 0.00232203 0.0266099 0.0031096 0.0212394 0.00406806 0.0311431 0.00437054 0.026184 0.00475223 0.0437348
57 1 Mg -2.29559 69.7471 -0.344642 1.2 1 0.00232724 0.00475529 0.00100663 0.00827456 0.0013344 0.00558989 0.00138701 0.0216973 0.00134689 0.0100143 0.00215662 0.0278241 0.00273786 0.0197246 0.00348143 0.030587 0.0045646 0.0259837 0.00371931 0.0410874
58 1 Mg 2.51432 72.6024 1.53153 1.2 1 0.00149476 0.00380032 0.0014984 0.00800904 0.00157968 0.00577189 0.00170694 0.0228155 0.00222626 0.00962066 0.00259948 0.0277084 0.00306705 0.0201997 0.00493278 0.0316884 0.00523265 0.0263918 0.00537711 0.0434988
59 2 Si -0.170841 70.7872 1.49349 2.4 1 0.001269 0.00379271 0.00123295 0.00868401 0.00240341 0.00517146 0.00208262 0.0220434 0.00187019 0.00913631 0.0027023 0.0270299 0.00282581 0.019982 0.00417983 0.031364 0.00450984 0.0259296 0.00526066 0.0436221
60 3 O 1.37822 70.6032 1.47231 -1.2 1 0.00201476 0.00384305 0.00136612 0.00859692 0.00226141 0.00544177 0.00198095 0.021549 0.00216023 0.00933818 0.00295388 0.0272868 0.00302638 0.0195435 0.00508791 0.0306855 0.00500742 0.025687 0.00568727 0.042567
61 3 O -1.32291 74.5007 1.67843 -1.2 1 0.00221236 0.00369067 0.00115574 0.00837639 0.00166905 0.00596272 0.00196135 0.0230358 0.00123819 0.00976933 0.00264683 0.0281373 0.00275927 0.0196439 0.00397195 0.0313232 0.00368681 0.0258125 0.00498822 0.0439337
62 3 O -0.848207 71.5044 0.207386 -1.2 1 0.00167177 0.00417581 0.00110701 0.00840381 0.0020869 0.00559508 0.00139191 0.022142 0.00204836 0.00981631 0.00223398 0.0268516 0.00333958 0.0206293 0.00428509 0.0314195 0.00495285 0.0258879 0.00535446 0.0425709
63 1 Mg -2.25589 80.321 3.30853 1.2 1 0.00255725 0.0042149 0.00115571 0.00731334 0.00194575 0.00584423 0.00165625 0.0235654 0.00138362 0.0102306 0.00224531 0.0289042 0.0021022 0.0196524 0.00323648 0.0319157 0.00393774 0.0259734 0.00340116 0.0450704
64 3 O -0.815857 71.391 2.76753 -1.2 1 0.00113006 0.00380548 0.00154178 0.00816049 0.00204928 0.00558444 0.00196759 0.0225494 0.00120623 0.0094359 0.00253161 0.0268399 0.00340675 0.0201206 0.00453159 0.0314887 0.00455865 0.0264371 0.00499774 0.0432569
65 1 Mg -2.17015 77.2815 4.4416 1.2 1 0.00339811 0.00402173 0.00196599 0.00817847 0.00140447 0.00598653 0.00222345 0.0231768 0.0015781 0.0105306 0.00289857 0.0285206 0.00277819 0.0206596 0.00430197 0.0325458 0.00401667 0.0267666 0.00431628 0.0452982
66 2 Si 0.354633 79.1467 4.61623 2.4 1 0.00327079 0.00405171 0.00146353 0.00847273 0.00182203 0.00594304 0.00204904 0.0228315 0.00183139 0.00968309 0.00286076 0.0276776 0.00255138 0.0204308 0.00386613 0.0314701 0.0044762 0.0260447 0.00399613 0.046096
67 3 O -1.20044 79.252 4.59091 -1.2 1 0.00296695 0.00418252 0.00153602 0.00836374 0.001546 0.00572259 0.00172668 0.0226311 0.00256156 0.00989626 0.00209582 0.0289772 0.00249898 0.0195343 0.00281842 0.0321026 0.00433736 0.0258482 0.00328912 0.0456699
68 3 O 1.61647 75.5059 4.56362 -1.2 1 0.00230606 0.0036763 0.00201766 0.00832359 0.00124202 0.00628297 0.00198332 0.0232681 0.00128342 0.0101434 0.00251862 0.0285391 0.0025515 0.019561 0.00393534 0.0308791 0.00396434 0.0261096 0.004055 0.0449825
69 3 O 0.98283 78.493 3.42122 -1.2 1 0.00286623 0.0040483 0.00159105 0.00838828 0.00162361 0.00587333 0.0027779 0.0229456 0.00152378 0.00996251 0.00261888 0.0275242 0.00250623 0.0211357 0.00426252 0.0319423 0.00466655 0.025951 0.00378222 0.0458004
70 3 O 0.971819 78.762 5.98048 -1.2 1 0.00341684 0.0047433 0.00156297 0.0077736 0.00173494 0.00582356 0.00259726 0.0233014 0.00229964 0.0096098 0.00259692 0.0279282 0.00263277 0.0201593 0.00361512 0.0320821 0.00384975 0.0262945 0.00347068 0.0448567
71 1 Mg 0.164261 75.0536 2.89403 1.2 1 0.00229815 0.00371543 0.00157747 0.00797161 0.0013637 0.00624789 0.00197772 0.0228746 0.000992681 0.0100995 0.0019912 0.0286144 0.00230452 0.0196759 0.00374813 0.0311384 0.0034225 0.0260704 0.00460346 0.0435286
72 1 Mg 0.0312086 72.2022 4.59144 1.2 1 0.00171352 0.00394506 0.00165035 0.00799235 0.00119201 0.00558351 0.00190021 0.0228337 0.0022086 0.00997113 0.00287942 0.0277722 0.00274589 0.0195884 0.00462576 0.031484 0.00402903 0.0270022 0.00391129 0.0438385
73 2 Si 2.28324 74.0872 4.53452 2.4 1 0.00202627 0.00352383 0.00174959 0.00874911 0.0016646 0.00594615 0.00225045 0.0226879 0.00151305 0.00956613 0.00256704 0.0277104 0.00287485 0.0196708 0.00538575 0.0308614 0.0047576 0.0260255 0.00566299 0.0454093
74 3 O -0.986907 74.0822 4.51768 -1.2 1 0.00229115 0.00315348 0.00174856 0.00856345 0.00134919 0.00585887 0.00156441 0.0218234 0.00189348 0.00943218 0.00208333 0.0280363 0.00206012 0.0192389 0.00319 0.0311572 0.00320346 0.0257191 0.00470238 0.0445401
75 3 O 1.0697 70.3204 4.57212 -1.2 1 0.00240864 0.00425609 0.00111119 0.00795744 0.000910384 0.00576416 0.00127724 0.0230426 0.00146012 0.00974587 0.00242007 0.0278464 0.00266055 0.0194623 0.003638 0.030987 0.00430548 0.0267043 0.00424624 0.0437973
76 3 O 1.51683 73.403 3.31139 -1.2 1 0.00201593 0.00338884 0.00150871 0.00799013 0.0013736 0.0059379 0.00252925 0.0233544 0.00178795 0.00975736 0.00192037 0.0271866 0.00289107 0.0200305 0.00510446 0.0314627 0.00462792 0.0265215 0.00515836 0.0443432
77 1 Mg -0.0346865 74.8919 0.232543 1.2 1 0.00193746 0.00421209 0.00118831 0.00805002 0.00168516 0.00626923 0.00180676 0.0229647 0.00138997 0.0102917 0.00212862 0.0282439 0.00250161 0.0196307 0.00350577 0.0318807 0.00446862 0.0264464 0.00440014 0.0436514
78 3 O 1.47073 73.4391 5.92061 -1.2 1 0.00196471 0.00349115 0.00110307 0.00816375 0.00184345 0.00591278 0.00245651 0.0229746 0.00170413 0.00961439 0.00229835 0.0280377 0.0030981 0.0196445 0.0049862 0.0318613 0.0035212 0.0268198 0.00347001 0.0449398
79 1 Mg 0.0968327 78.0071 1.73521 1.2 1 0.00185897 0.00446071 0.0018045 0.0082706 0.00196214 0.00582638 0.00158128 0.0234285 0.002524 0.0105262 0.00237796 0.0280294 0.00247054 0.0205287 0.00408612 0.0314426 0.00475158 0.0259876 0.00458822 0.0454749
80 2 Si -2.0421 75.9863 1.43902 2.4 1 0.00270427 0.00402174 0.00136606 0.00926751 0.00209211 0.00594289 0.00195582 0.0224729 0.00202302 0.00966565 0.00324519 0.0268307 0.00258749 0.0206423 0.00375603 0.0311863 0.00322572 0.025611 0.0037184 0.0454106
81 3 O 1.17416 75.996 1.46483 -1.2 1 0.00259487 0.00402452 0.0012154 0.00867486 0.0021426 0.00563893 0.00198576 0.0221496 0.00309372 0.0096607 0.00241548 0.0277512 0.00329006 0.0195265 0.00524112 0.0320493 0.00542528 0.025682 0.00536484 0.044827
82 3 O -1.01937 79.7001 1.81438 -1.2 1 0.00271206 0.00432024 0.00115577 0.00771983 0.00200609 0.00589398 0.00211951 0.0243489 0.00158505 0.010544 0.00219064 0.028085 0.00243252 0.0201903 0.00382259 0.0314093 0.0042278 0.0260166 0.00442311 0.0457105
83 3 O -1.46006 76.4937 0.143098 -1.2 1 0.00188165 0.00425299 0.001028 0.0081024 0.00233351 0.00589494 0.00209548 0.0231032 0.00167282 0.0105671 0.00270194 0.0271227 0.00285752 0.0204332 0.00313525 0.0322364 0.00413736 0.0261309 0.00341823 0.0445384
84 3 O -1.40409 76.8494 2.68687 -1.2 1 0.00263311 0.00401672 0.00175538 0.00804405 0.00196414 0.00546181 0.00190622 0.0228192 0.00226535 0.0101222 0.00203585 0.0278139 0.00258134 0.0210082 0.00370631 0.032129 0.00395511 0.026053 0.00420612 0.0452811
85 1 Mg -2.36976 80.3731 0.208117 1.2 1 0.00219233 0.00442459 0.00106172 0.00702115 0.00147846 0.00582929 0.00196995 0.0239831 0.00115307 0.0109958 0.00205148 0.0284244 0.0021179 0.020063 0.00307095 0.031588 0.00380544 0.0258826 0.00371597 0.0449363
86 1 Mg 2.42835 83.1191 1.69577 1.2 1 0.00196084 0.00370496 0.00114348 0.00643887 0.00150942 0.00528559 0.00161185 0.0240423 0.00232354 0.0101873 0.00220962 0.0279705 0.00261945 0.0201971 0.00331553 0.0313497 0.00447928 0.025368 0.00420928 0.0457066
87 2 Si -0.313485 81.2128 1.77372 2.4 1 0.00177401 0.00364707 0.000962241 0.00770813 0.00186462 0.00522781 0.00182168 0.023385 0.00156268 0.00961644 0.00289873 0.0274327 0.00209052 0.0203685 0.00382077 0.0311512 0.00310113 0.0252576 0.00375903 0.0460629
88 3 O 1.17375 81.1273 1.61076 -1.2 1 0.00216357 0.00408555 0.00103686 0.00746057 0.00170674 0.0051155 0.00199053 0.0236535 0.00216645 0.00991271 0.00234552 0.0277411 0.00251065 0.0198912 0.00368703 0.0312727 0.00417126 0.025405 0.00415934 0.0459436
89 3 O -1.49616 85.0882 1.716 -1.2 1 0.00344689 0.00373308 0.00148332 0.00613752 0.00189549 0.00548082 0.00183862 0.0238552 0.00226269 0.00910066 0.00236058 0.027763 0.00319819 0.019326 0.00433944 0.030779 0.00417411 0.0245908 0.00467745 0.0460846
90 3 O -1.08656 82.0047 0.457107 -1.2 1 0.00176363 0.00359874 0.00097818 0.00672671 0.00208122 0.00506014 0.00232941 0.0235191 0.00214281 0.0100591 0.00239135 0.027373 0.0024065 0.0209442 0.00332939 0.0316578 0.0038959 0.0251323 0.00382073 0.0458882
91 1 Mg -2.58824 90.7264 3.07104 1.2 1 0.00236831 0.00561255 0.000909596 0.00613739 0.00176261 0.00604765 0.0015068 0.0229007 0.00208304 0.00962789 0.00163067 0.0278535 0.00226162 0.0192769 0.00380431 0.0311587 0.00335449 0.0248997 0.00364213 0.0447304
92 3 O -1.03084 81.8636 2.9601 -1.2 1 0.0022046 0.00444123 0.00116557 0.00684558 0.00247411 0.00547428 0.00188587 0.0239473 0.00182183 0.00989929 0.00237709 0.0275383 0.00208768 0.0203025 0.00255741 0.0319717 0.00314738 0.0255947 0.00351447 0.0458193
93 1 Mg -2.10632 87.8622 4.87557 1.2 1 0.00181866 0.00553623 0.00109943 0.00659806 0.00185684 0.00568848 0.00186892 0.0234195 0.00178175 0.00976472 0.00286813 0.0274743 0.00287592 0.0195461 0.00340442 0.0319026 0.00328573 0.0257428 0.00314291 0.0452137
94 2 Si 0.31646 89.7057 4.63803 2.4 1 0.00124543 0.0053666 0.00126442 0.00736718 0.00161287 0.00618557 0.00217495 0.0228353 0.00167722 0.00910272 0.00193443 0.026288 0.00261724 0.0202961 0.00445594 0.030997 0.00446436 0.0254688 0.00326951 0.0456678
95 3 O -1.2654 89.7062 4.84346 -1.2 1 0.00152487 0.00554519 0.00135135 0.00705424 0.00117449 0.00605101 0.00168576 0.022327 0.00225976 0.0089978 0.00177137 0.0266249 0.00226302 0.0194225 0.00296096 0.0314235 0.00372475 0.0250159 0.00282732 0.0458062
96 3 O 1.41178 86.0235 4.7782 -1.2 1 0.00192183 0.00502781 0.00138671 0.00658191 0.00153702 0.00563502 0.00165348 0.0239395 0.00149214 0.00977946 0.00223906 0.0282238 0.00227827 0.0195468 0.00279139 0.0315755 0.00298674 0.0250727 0.00333293 0.0451689
97 3 O 0.978083 89.1182 3.37918 -1.2 1 0.00241978 0.00533873 0.00154465 0.00626329 0.00151567 0.00557732 0.00223341 0.0232435 0.00197247 0.00905378 0.00200755 0.0267341 0.00336254 0.0201764 0.00491964 0.0311225 0.00442797 0.0247457 0.00387572 0.0459178
98 3 O 1.01437 89.0077 5.85129 -1.2 1 0.000443202 0.00569475 0.00137851 0.0067255 0.00144184 0.00588547 0.00161228 0.0230546 0.00184344 0.0093105 0.00235406 0.0265116 0.00197033 0.0204108 0.00319659 0.031602 0.0030347 0.0256794 0.00244006 0.0446004
99 1 Mg 0.0323045 85.4513 3.15842 1.2 1 0.00242589 0.00428026 0.00147501 0.00595973 0.00197551 0.00576421 0.0019109 0.0236199 0.00163825 0.00956115 0.00236263 0.0285174 0.00255555 0.0191224 0.00285907 0.0311226 0.00368258 0.0248253 0.00332201 0.0452589
100 1 Mg 0.132618 82.6723 4.74881 1.2 1 0.0031828 0.0050539 0.00152513 0.00649311 0.00175065 0.00527328 0.00194633 0.0237296 0.00194682 0.00990431 0.00258313 0.0286267 0.00294164 0.019825 0.00347731 0.0320615 0.00358831 0.0252614 0.00361865 0.0449221
101 2 Si 2.09677 84.5219 4.69713 2.4 1 0.00228194 0.00506255 0.000958218 0.00716824 0.00130846 0.00514563 0.00235433 0.0235464 0.00178239 0.00947126 0.00282863 0.0274055 0.00241417 0.0202383 0.00458561 0.0308542 0.00435575 0.024251 0.00390449 0.0462036
102 3 O -1.10939 84.6818 4.63678 -1.2 1 0.00269032 0.00504735 0.00131592 0.00658259 0.00134239 0.00508585 0.00176693 0.0230861 0.00235542 0.00934465 0.00216683 0.0280965 0.00252192 0.0192761 0.00251606 0.0313988 0.00358317 0.0241093 0.00323383 0.0449668
103 3 O 0.981003 80.7075 4.59679 -1.2 1 0.00272617 0.00449675 0.00147921 0.00753515 0.0017349 0.00575421 0.00170643 0.0236801 0.00116799 0.0100404 0.00287509 0.0289579 0.00246665 0.0196098 0.00387249 0.0315482 0.004641 0.0255095 0.00378061 0.0453393
104 3 O 1.3729 83.7797 3.44569 -1.2 1 0.00248058 0.00433433 0.00135313 0.00653899 0.00156095 0.00510025 0.00324766 0.0235911 0.00195738 0.00947827 0.0026423 0.0271591 0.00279755 0.0199951 0.00393034 0.0316628 0.00457877 0.0248643 0.00347264 0.0453669
105 1 Mg -0.138281 85.5799 0.281843 1.2 1 0.00316365 0.00326096 0.00122332 0.00577878 0.00171076 0.00568923 0.00178503 0.0235112 0.00187324 0.00940753 0.00189993 0.0278582 0.00271234 0.0193142 0.00387844 0.0302756 0.00463863 0.0243088 0.00395105 0.0454764
106 3 O 1.34976 83.801 6.01959 -1.2 1 0.00281677 0.00541793 0.00154609 0.00641732 0.00128679 0.00559991 0.00212991 0.0239378 0.0015574 0.0103106 0.00239778 0.0273448 0.0029407 0.0204528 0.0032651 0.0321761 0.00347099 0.0251456 0.00345198 0.0449557
107 1 Mg 0.158553 88.4022 1.54544 1.2 1 0.00346247 0.00433407 0.00172297 0.00595645 0.00208047 0.00566735 0.00144365 0.0231247 0.00280734 0.00901831 0.00196009 0.0276237 0.00282549 0.0200025 0.00431049 0.0306099 0.00459088 0.0242439 0.0033994 0.045152
108 2 Si -2.0933 86.6074 1.73152 2.4 1 0.00319851 0.00381508 0.00148008 0.00686574 0.00252667 0.00542231 0.00183929 0.0230009 0.0021067 0.00829159 0.00243942 0.0265427 0.00320695 0.0198872 0.0037079 0.0307693 0.00404451 0.0243837 0.00374925 0.0466066
109 3 O 1.03097 86.5713 1.70012 -1.2 1 0.00332211 0.00391639 0.00124265 0.00645616 0.00280164 0.00535859 0.00185475 0.0228053 0.00314299 0.00850316 0.00256349 0.027079 0.00314204 0.0194884 0.0050549 0.0307105 0.0049577 0.0240378 0.00518977 0.0464259
110 3 O -1.18499 90.3066 1.70637 -1.2 1 0.00305312 0.00479761 0.00121005 0.00633638 0.00215217 0.00600958 0.00166981 0.0233908 0.00219486 0.00948594 0.00216802 0.0270281 0.00274254 0.0198447 0.00425828 0.030035 0.00370553 0.024066 0.00385234 0.0446342
111 3 O -1.50432 87.1639 0.364152 -1.2 1 0.00388423 0.00354238 0.00180024 0.00609377 0.00285564 0.00528874 0.00257872 0.0234876 0.00245351 0.00874702 0.0023416 0.026686 0.00318196 0.0199244 0.00424393 0.0307908 0.00413239 0.0240901 0.00390778 0.0456797
112 3 O -1.42957 87.2728 2.98024 -1.2 1 0.00302185 0.00499613 0.00128352 0.00623065 0.00280619 0.00553858 0.00126805 0.0235809 0.00210918 0.00891598 0.00228408 0.0268503 0.00336966 0.0199979 0.00369774 0.0312619 0.00379633 0.0249057 0.00402532 0.0466167
113 1 Mg -2.54669 90.8264 0.148278 1.2 1 0.00257157 0.00454795 0.00159438 0.00577554 0.00167332 0.00519473 0.00113893 0.0222624 0.00120549 0.00945583 0.00152484 0.0275865 0.00223923 0.0195734 0.00299059 0.0305478 0.00362439 0.0228883 0.00279807 0.0433102
114 1 Mg 2.31607 93.8018 1.69389 1.2 1 0.00253111 0.00556698 0.000936926 0.00667967 0.00152237 0.00578964 0.00124652 0.022145 0.00211336 0.00966187 0.00215524 0.0272275 0.00224311 0.0202034 0.00433288 0.0318566 0.0049471 0.0235819 0.00370313 0.0443837
115 2 Si -0.457274 91.7991 1.78063 2.4 1 0.00263775 0.00493645 0.000978771 0.00729252 0.00229935 0.00570034 0.00203497 0.0220734 0.00192588 0.00920402 0.00301386 0.0263183 0.00247555 0.0205995 0.00418044 0.0305884 0.00354397 0.0235902 0.00285259 0.0452632
116 3 O 1.02636 91.7892 1.70248 -1.2 1 0.00274338 0.00477466 0.000835987 0.0067745 0.00204004 0.00528745 0.00173506 0.0218386 0.00311133 0.00889615 0.00173388 0.0266374 0.0027565 0.0196467 0.00376184 0.0308411 0.00335797 0.0232839 0.00345342 0.0446367
117 3 O -1.33752 95.6091 1.81679 -1.2 1 0.00280708 0.00499936 0.00134941 0.00707559 0.00127401 0.00586407 0.00125376 0.0222132 0.0016933 0.00975505 0.00185964 0.0273673 0.00228412 0.0206773 0.00365017 0.0323311 0.00334117 0.0236757 0.00395611 0.045182
118 3 O -1.28684 92.473 0.509802 -1.2 1 0.00164419 0.00434267 0.00143982 0.00645674 0.00250926 0.00508941 0.00247285 0.0219926 0.0017417 0.00881791 0.00245879 0.0260656 0.00281185 0.0204775 0.0034572 0.0314281 0.00292628 0.0236751 0.00316226 0.0440656
119 1 Mg -2.39136 101.352 3.10228 1.2 1 0.00284333 0.00633495 0.00138175 0.00742336 0.00127563 0.00580495 0.00156498 0.0222101 0.00175797 0.010824 0.00193783 0.0284522 0.00242161 0.0203595 0.00294273 0.033306 0.00321482 0.0239165 0.0030695 0.0440514