ITEM: TIMESTEP
90800
ITEM: NUMBER OF ATOMS
5600
ITEM: BOX BOUNDS xy xz yz pp pp pp
0	7.1235	0
0	201.985	2.3745
0	119.584	0
ITEM: ATOMS id type element xu yu zu q Q_1 Q_2 Q_3 Q_4 Q_5 Q_6 Q_7 Q_8 Q_9 Q_10 Q_11 Q_12 Q_13 Q_14 Q_15 Q_16 Q_17 Q_18 Q_19 Q_20 Q_21
1 1 Mg -1.83274 48.5649 -1.26978 1.2 1 0.21311 0.0690297 0.0136881 0.0242248 0.00367294 0.0164798 0.00341606 0.01983 0.00452195 0.0218101 0.00499867 0.0265715 0.00766535 0.021879 0.00578577 0.018024 0.00636699 0.0185604 0.0095092 0.0246976
2 1 Mg 2.88311 49.147 2.17353 1.2 1 0.198343 0.0716899 0.0121624 0.0224977 0.00268997 0.0144786 0.0042018 0.0186588 0.00584235 0.0205416 0.00478178 0.0241257 0.00694328 0.0209521 0.00643311 0.0174059 0.00590108 0.0172683 0.00927549 0.027636
3 2 Si 0.650267 49.5888 0.100087 2.4 1 0.195077 0.067038 0.0123931 0.0225756 0.00322492 0.0156788 0.00358093 0.0200433 0.00450859 0.0211805 0.00353614 0.0251624 0.00659775 0.0209372 0.00613094 0.0169931 0.00610017 0.017003 0.00803363 0.0261975
4 3 O 2.0271 48.8135 0.437342 -1.2 1 0.209739 0.0699523 0.0144093 0.0242526 0.00366826 0.0152521 0.00392352 0.0199662 0.00590019 0.0218648 0.00447256 0.0256516 0.00693186 0.0221767 0.00679542 0.0182414 0.00643282 0.0168851 0.00937358 0.0260915
5 3 O -1.46389 52.1566 1.63144 -1.2 1 0.129188 0.0522733 0.00308524 0.0142658 0.00203169 0.0103971 0.00284472 0.0193204 0.00437574 0.017532 0.00319767 0.0242967 0.00509227 0.0183836 0.00401778 0.0182717 0.00468355 0.0165915 0.00603437 0.0281068
6 3 O 0.103125 48.7304 -1.12305 -1.2 1 0.213301 0.0690585 0.014202 0.0245941 0.00347275 0.0182407 0.00405798 0.0207015 0.00493059 0.0227641 0.00471111 0.0263659 0.00737205 0.022517 0.00686559 0.0178241 0.00665371 0.0182489 0.00863362 0.0251525
7 1 Mg -2.56558 57.7448 3.06555 1.2 1 0.0133278 0.0158549 0.00603111 0.00694593 0.00175796 0.00540716 0.00163797 0.0197137 0.00233387 0.0128733 0.00229203 0.0239509 0.00325558 0.0193803 0.0044204 0.0230918 0.00425215 0.0229779 0.0047018 0.0305461
8 3 O -0.0720779 49.345 1.44278 -1.2 1 0.193487 0.0680377 0.0121196 0.0215776 0.00205398 0.0134265 0.00377075 0.019047 0.00525711 0.0203256 0.00331476 0.0246531 0.00621638 0.021068 0.00563825 0.0170451 0.00530917 0.0169414 0.00947223 0.0271407
9 1 Mg -2.57694 54.7459 4.45987 1.2 1 0.0697111 0.0380235 0.00502853 0.00923071 0.00184603 0.0063188 0.00168426 0.0192775 0.00299579 0.014266 0.00260322 0.0235151 0.00335309 0.0185723 0.00376411 0.0199922 0.00389232 0.0208386 0.00558798 0.0296509
10 2 Si 0.286015 56.7878 4.53435 2.4 1 0.0241385 0.0222902 0.00766303 0.0078374 0.00208043 0.00472921 0.00225241 0.0194832 0.00323376 0.011837 0.00286301 0.0233658 0.00412353 0.0202101 0.00420148 0.0223258 0.00429121 0.0233282 0.00537044 0.0309253
11 3 O -1.31249 56.8672 4.48909 -1.2 1 0.0223248 0.0212916 0.00769545 0.00740797 0.00199082 0.0052241 0.00212082 0.0194857 0.00343692 0.0113605 0.00209215 0.0236805 0.00351982 0.0199824 0.00409435 0.0218287 0.005273 0.0226594 0.0056558 0.0312613
12 3 O 1.46984 52.659 4.53311 -1.2 1 0.118347 0.0511549 0.00176578 0.0130683 0.00223693 0.00904096 0.00260334 0.0187197 0.00368792 0.0163826 0.00265684 0.0234076 0.00428578 0.0186096 0.00393949 0.0176035 0.0047533 0.0188708 0.00589194 0.0288588
13 3 O 0.712013 55.8869 3.22751 -1.2 1 0.0437429 0.0290647 0.00672047 0.00759544 0.0019351 0.00560085 0.00205589 0.0197869 0.00266096 0.0132911 0.00249991 0.0232856 0.00311107 0.0193387 0.00383862 0.0208712 0.00436775 0.0216907 0.00463033 0.0303285
14 3 O 0.912638 55.9235 5.84732 -1.2 1 0.0458171 0.0308296 0.00663614 0.00771464 0.00187648 0.00548156 0.00141622 0.0194274 0.00286425 0.0128943 0.00252349 0.0235113 0.00344487 0.0193586 0.00417149 0.0213781 0.00391621 0.0220954 0.00560459 0.0303152
15 1 Mg -0.218084 52.6849 3.17983 1.2 1 0.117286 0.0515743 0.00143076 0.0133476 0.00231728 0.00989359 0.00184567 0.0186489 0.00373496 0.0172057 0.00261604 0.0241029 0.0037417 0.018385 0.00394825 0.0181397 0.00467654 0.0184401 0.00583767 0.0283946
16 1 Mg 0.856431 48.6079 2.97921 1.2 1 0.210027 0.0737834 0.0144783 0.0233342 0.00234207 0.0147221 0.00414622 0.0193154 0.00518004 0.0205989 0.0040411 0.0240904 0.00681371 0.022381 0.00635274 0.016885 0.00620541 0.0178732 0.00990966 0.0283471
17 2 Si 2.30694 51.3646 4.53332 2.4 1 0.154315 0.0607021 0.00470021 0.0162073 0.00256276 0.0108149 0.0030863 0.0180546 0.00439309 0.0169708 0.00360393 0.0235437 0.00496421 0.0194389 0.00500906 0.017726 0.00458651 0.0173209 0.00712011 0.0290865
18 3 O -0.952938 51.7071 4.69111 -1.2 1 0.135881 0.0560488 0.00241944 0.0138812 0.00307026 0.00912811 0.00298974 0.0183151 0.00492451 0.0165516 0.00309314 0.0238037 0.00460973 0.019988 0.00403212 0.0179709 0.00580785 0.0182985 0.0062248 0.0289598
19 3 O 2.48307 47.5609 3.26137 -1.2 1 0.23577 0.0793712 0.0193845 0.0278723 0.00306335 0.0189275 0.004678 0.0197487 0.005697 0.0221428 0.00511444 0.0262158 0.00810285 0.0224012 0.00800025 0.0182016 0.00832075 0.0195583 0.00982546 0.0289042
20 3 O 1.89314 50.4777 3.39953 -1.2 1 0.164007 0.0649663 0.0049822 0.0172886 0.00211063 0.0119097 0.00318516 0.019081 0.00501956 0.0185563 0.00327694 0.0242739 0.00502489 0.020557 0.00512015 0.0179656 0.00517044 0.0175006 0.00726787 0.0284742
21 1 Mg -0.270653 53.0666 -0.018732 1.2 1 0.106699 0.0454536 0.00272372 0.0126206 0.00211099 0.00989141 0.00250337 0.0192351 0.00434095 0.0173402 0.00326899 0.0243342 0.00357601 0.0172747 0.00373877 0.0185745 0.00384074 0.0173954 0.00550388 0.0276424
22 3 O 1.62838 50.5616 5.97252 -1.2 1 0.160386 0.0640526 0.00435664 0.0165526 0.00284534 0.0101533 0.00296469 0.0179348 0.0052485 0.0163525 0.00394432 0.0232345 0.0057882 0.020588 0.00411479 0.0186243 0.00433016 0.0179526 0.00712343 0.0287847
23 1 Mg -0.183825 55.4153 1.63677 1.2 1 0.0550943 0.0311639 0.00631585 0.00797078 0.00195445 0.00708779 0.000907337 0.0188102 0.00332358 0.0141053 0.00255196 0.0242268 0.00379217 0.0184305 0.00457967 0.0208491 0.0047074 0.0196396 0.00417471 0.0304101
24 2 Si -2.31484 53.719 1.73562 2.4 1 0.0991145 0.043003 0.00257173 0.0115722 0.00144057 0.00844848 0.00151725 0.018105 0.00337856 0.015487 0.00272718 0.023514 0.00385849 0.0179558 0.00323053 0.0184274 0.00429929 0.0180136 0.00458229 0.0287617
25 3 O 0.947185 53.5368 1.58433 -1.2 1 0.103641 0.0443058 0.00285163 0.0120752 0.00184092 0.00923445 0.00193466 0.017971 0.00348398 0.0160931 0.00279355 0.0240867 0.00309521 0.0183401 0.00401598 0.0190713 0.00350844 0.0178571 0.00553489 0.0287551
26 3 O -1.33346 57.4642 1.38087 -1.2 1 0.0189266 0.018364 0.00687381 0.00671693 0.00184629 0.00569895 0.00167217 0.0197793 0.00310663 0.0128219 0.00256363 0.023468 0.00296794 0.0195073 0.0048306 0.0227276 0.0045039 0.0223777 0.00422995 0.0309181
27 3 O -1.6464 54.7296 0.396265 -1.2 1 0.0713043 0.0353331 0.00508133 0.00893983 0.00179629 0.00686713 0.00191979 0.0188588 0.00360965 0.0145462 0.00221966 0.0232722 0.00357642 0.0179631 0.00447663 0.02047 0.00471714 0.0184996 0.0043669 0.0294188
28 3 O -1.66266 54.1363 2.93603 -1.2 1 0.0841795 0.0400478 0.00330314 0.00999065 0.00204653 0.00738934 0.00200055 0.0190537 0.00381419 0.0148915 0.00287361 0.0233099 0.0027084 0.0185362 0.00412885 0.018793 0.00496484 0.0198685 0.0051735 0.0294778
29 1 Mg -2.5643 58.1001 0.0615251 1.2 1 0.0125087 0.0130984 0.00524636 0.00629502 0.00181344 0.00599402 0.00163917 0.0188422 0.00299902 0.0124232 0.00232263 0.0235371 0.00401307 0.0189846 0.00584403 0.0236188 0.00459796 0.0220515 0.00447172 0.0311571
30 1 Mg 2.28027 60.7873 1.47212 1.2 1 0.00452891 0.00673158 0.00197551 0.00846435 0.00146708 0.00576223 0.00221443 0.0182899 0.00254828 0.0117495 0.00248324 0.022971 0.00329145 0.0197702 0.00537078 0.0258289 0.00422916 0.0230039 0.00586122 0.0282665
31 2 Si -0.465886 58.882 1.58139 2.4 1 0.00776533 0.0112715 0.0042062 0.00822734 0.0020206 0.00528059 0.00198536 0.0186968 0.00226512 0.0116465 0.00324605 0.0228389 0.00299672 0.0198734 0.00483566 0.023538 0.00506075 0.0228284 0.00553526 0.0307237
32 3 O 1.01823 58.8453 1.64259 -1.2 1 0.00652189 0.0108027 0.0042877 0.00789225 0.00181881 0.00520648 0.00173075 0.0186257 0.00284286 0.0111299 0.00312577 0.0226178 0.00356741 0.0198405 0.00531023 0.0242815 0.00459164 0.0225293 0.00488466 0.0308249
33 3 O -1.55543 63.0757 1.41722 -1.2 1 0.00449749 0.00490944 0.00183802 0.00926373 0.00114703 0.0063584 0.00218266 0.0178052 0.00244207 0.0115604 0.00248631 0.023193 0.00368559 0.0192299 0.00641872 0.0254224 0.00440177 0.0222705 0.00552879 0.026841
34 3 O -1.13215 59.803 0.212185 -1.2 1 0.0054979 0.00890417 0.00278693 0.00735622 0.00177215 0.00580884 0.00205037 0.0184628 0.00294581 0.0109488 0.00234559 0.0225369 0.00324181 0.0199173 0.00514121 0.0258659 0.00420523 0.022304 0.00463476 0.0300438
35 1 Mg -2.4545 68.8769 3.56797 1.2 1 0.00269624 0.00346163 0.000998087 0.0101145 0.00135481 0.00628868 0.00177373 0.0174477 0.00242602 0.0112818 0.00235558 0.025097 0.00298328 0.0196175 0.00314273 0.0260081 0.00407725 0.0214456 0.00534579 0.0281205
36 3 O -1.22762 59.3878 2.84735 -1.2 1 0.00466735 0.0102711 0.0038669 0.00775061 0.00188019 0.00544124 0.00294341 0.0193712 0.00268437 0.0116211 0.00317491 0.0229771 0.0034046 0.0199479 0.00519711 0.0236583 0.00483221 0.0230178 0.00569772 0.029763
37 1 Mg -2.1177 65.4342 4.29434 1.2 1 0.000282057 0.00373854 0.00134993 0.00925027 0.00137776 0.00689848 0.00187882 0.0169796 0.00225708 0.0116315 0.0027638 0.0237279 0.00377752 0.0202398 0.0045611 0.0243682 0.00381591 0.0224403 0.00529859 0.0249966
38 2 Si 0.233711 67.4888 4.81152 2.4 1 0.00205209 0.00398777 0.00148905 0.00945853 0.00268877 0.00631273 0.0019628 0.0164873 0.00173488 0.0106652 0.00223186 0.0238596 0.00364207 0.0199656 0.00417026 0.0252335 0.00355584 0.0214469 0.00524642 0.0261237
39 3 O -1.352 67.5168 4.8623 -1.2 1 0.00193197 0.00382499 0.00107262 0.00957279 0.00244196 0.00609196 0.00203865 0.0165409 0.00282148 0.0108356 0.00221269 0.0240178 0.00348294 0.0201969 0.00300116 0.0253049 0.00390139 0.0213939 0.00558802 0.0266105
40 3 O 1.46891 63.8441 3.90644 -1.2 1 0.0013871 0.00453016 0.00109241 0.00896573 0.00168672 0.00691745 0.00210705 0.0177642 0.00216528 0.0121155 0.00272637 0.0235313 0.00342069 0.0202008 0.0052444 0.0241176 0.00402773 0.0228285 0.00590946 0.025174
41 3 O 1.00662 66.6902 3.62186 -1.2 1 0.000468514 0.00381205 0.00134182 0.00934942 0.00208425 0.00647366 0.00158678 0.0167019 0.00242793 0.0106541 0.0025575 0.0232863 0.00376387 0.0205194 0.00447347 0.025188 0.00336088 0.0213351 0.00539923 0.0253989
42 3 O 0.762271 66.9442 6.23416 -1.2 1 0.00219094 0.00422828 0.00114719 0.00876495 0.00182636 0.00678412 0.00168027 0.0175351 0.00183559 0.0113144 0.00236622 0.024191 0.00324969 0.0209703 0.00286071 0.0253617 0.00313152 0.0223028 0.00433602 0.026115
43 1 Mg -0.0591657 63.5729 2.60531 1.2 1 0.00296729 0.00529455 0.00178573 0.0090764 0.00133245 0.00657546 0.00205204 0.0169664 0.0028359 0.0115185 0.00266146 0.022903 0.00376817 0.0200792 0.00563007 0.0246774 0.00390052 0.021988 0.0058481 0.0255387
44 1 Mg -0.456304 60.4032 4.47903 1.2 1 0.00203838 0.00682253 0.00232193 0.00752101 0.00246364 0.00592806 0.00215868 0.0191755 0.00232459 0.0120807 0.00304965 0.0244315 0.00319154 0.0205361 0.00511391 0.024026 0.00464917 0.0232589 0.00674862 0.0281534
45 2 Si 1.96722 62.3149 4.14997 2.4 1 0.00216837 0.00511277 0.00180124 0.00899412 0.0024055 0.00577666 0.0021047 0.0176047 0.00202519 0.0112328 0.00260729 0.022951 0.00312343 0.0211093 0.00620445 0.0240596 0.0043909 0.0222737 0.00599186 0.0264621
46 3 O -1.23674 62.3023 4.28219 -1.2 1 0.00248363 0.00494468 0.00175902 0.00901689 0.00255258 0.00573844 0.00167564 0.0174123 0.00235743 0.0110366 0.00240758 0.0231147 0.00326615 0.0207102 0.0064434 0.0240968 0.0049603 0.0225628 0.00657056 0.0260589
47 3 O 0.840607 58.2619 4.54817 -1.2 1 0.010009 0.0141509 0.00502051 0.00768106 0.00220414 0.00568713 0.00145671 0.0194636 0.00212083 0.0124452 0.0023993 0.0243907 0.00327421 0.0201615 0.00453379 0.0226787 0.00415251 0.0229143 0.00506322 0.0301402
48 3 O 1.1315 61.5656 3.02661 -1.2 1 0.00313591 0.00573242 0.00192342 0.00851438 0.00173621 0.00605627 0.0013002 0.0183278 0.00196581 0.011439 0.0022491 0.0227397 0.00285789 0.0205533 0.00601518 0.0252774 0.00439379 0.0229132 0.00526564 0.0267243
49 1 Mg -0.229734 63.0428 -0.219544 1.2 1 0.00626999 0.0051647 0.00209169 0.00923919 0.00162531 0.00644703 0.00200229 0.0185263 0.00232964 0.0120203 0.00231149 0.0237586 0.00313301 0.0180583 0.00408625 0.0262326 0.00400711 0.0211236 0.004954 0.0280036
50 3 O 1.43615 61.8193 5.54565 -1.2 1 0.00155101 0.00444137 0.00142729 0.00872179 0.00193416 0.00540439 0.00237413 0.0179263 0.00221458 0.011313 0.00221241 0.0240645 0.00299122 0.0213998 0.00504642 0.0239354 0.00425602 0.0224023 0.0057375 0.0271678
51 1 Mg 0.0435188 66.6232 1.77456 1.2 1 0.00124646 0.00366453 0.00168077 0.00978525 0.0012386 0.00678571 0.00176049 0.0175312 0.0026325 0.011138 0.00255455 0.02405 0.00305117 0.0191346 0.00487568 0.0259295 0.0041788 0.0213081 0.00526792 0.0267771
52 2 Si -2.227 64.5733 1.3169 2.4 1 0.00371526 0.00418391 0.001575 0.0103269 0.00140535 0.00614246 0.00242733 0.016062 0.00268367 0.0106995 0.00271018 0.0224434 0.00360931 0.0193849 0.00560545 0.0247847 0.00459557 0.0206404 0.00609051 0.0263727
53 3 O 0.970556 64.4406 1.21001 -1.2 1 0.00427144 0.00472564 0.00189577 0.00998104 0.00109924 0.0063333 0.00238747 0.0166419 0.00330596 0.010924 0.00262221 0.022531 0.00323848 0.0190352 0.00527363 0.0255842 0.00427511 0.0211947 0.00579617 0.0265049
54 3 O -1.3098 68.2293 1.80718 -1.2 1 0.0021035 0.00369365 0.00104157 0.00991725 0.000893626 0.00664044 0.00125897 0.0178319 0.00206915 0.0112675 0.00279545 0.0246668 0.00288137 0.018721 0.00360814 0.0264763 0.00367054 0.0213851 0.00564591 0.0284823
55 3 O -1.52298 65.0005 -0.189049 -1.2 1 0.00524021 0.00435915 0.0016361 0.00951854 0.00170016 0.00688687 0.00201147 0.0179266 0.00188507 0.011284 0.00242189 0.023937 0.00339166 0.0185772 0.0045785 0.026497 0.00394099 0.0210398 0.00585948 0.0286748
56 3 O -1.5182 65.271 2.40228 -1.2 1 0.00220938 0.00394954 0.000985591 0.0093467 0.00143899 0.0068041 0.00281578 0.0172125 0.00271695 0.0111749 0.00288382 0.0232492 0.00381765 0.0198384 0.0052657 0.0251847 0.00457747 0.0213074 0.00562136 0.025645
57 1 Mg -2.55624 69.0297 0.369387 1.2 1 0.00192612 0.00405716 0.00101653 0.0100598 0.00136673 0.00683092 0.00103531 0.0181893 0.00220694 0.0112122 0.002527 0.0256892 0.00230795 0.0185145 0.0032195 0.0275285 0.0043363 0.021617 0.00448677 0.0299117
58 1 Mg 2.26417 72.0058 2.04237 1.2 1 0.00726392 0.00304168 0.00108894 0.00937308 0.00145114 0.00579374 0.00155797 0.0189891 0.00249861 0.0108499 0.00279374 0.0263508 0.00313696 0.0189751 0.00536973 0.0276872 0.00565715 0.0220106 0.00538328 0.0347219
59 2 Si -0.646389 69.9093 1.7939 2.4 1 0.00373087 0.00311235 0.000966948 0.010732 0.00201222 0.00601145 0.00102273 0.0172975 0.00290345 0.0107354 0.00291405 0.0249208 0.0030301 0.019379 0.00395041 0.0266616 0.00494282 0.020832 0.00570133 0.0311055
60 3 O 0.940995 69.6943 1.81181 -1.2 1 0.00401121 0.00354898 0.00139856 0.0103789 0.00141166 0.00602834 0.000885627 0.0170393 0.00248911 0.0110744 0.00289563 0.0248857 0.00305851 0.0194085 0.00344283 0.0269736 0.00435687 0.0212339 0.00522937 0.0307097
61 3 O -1.38549 73.7558 2.00077 -1.2 1 0.00749453 0.00340184 0.00124602 0.00914699 0.00173769 0.00576227 0.00118741 0.0199949 0.00204878 0.0106932 0.0024267 0.0270587 0.00280159 0.0188203 0.00431872 0.0286143 0.00516399 0.0236871 0.00561028 0.0373672
62 3 O -1.24309 70.6688 0.4273 -1.2 1 0.00493688 0.00385006 0.00100265 0.0101716 0.00177576 0.00618699 0.00159245 0.018788 0.00295795 0.010275 0.00287971 0.0249676 0.00310527 0.0195489 0.00378649 0.0283338 0.00414221 0.0229138 0.00374458 0.0330315
63 1 Mg -2.29135 79.4288 3.4545 1.2 1 0.00278516 0.00574187 0.000717399 0.00758859 0.000639702 0.0053272 0.00124862 0.0201623 0.00161196 0.00966829 0.00156151 0.0256943 0.00277529 0.0185376 0.00432962 0.028727 0.00404708 0.0249381 0.00493444 0.0383463
64 3 O -1.1981 70.4553 3.09522 -1.2 1 0.00530185 0.00344369 0.000915522 0.00963324 0.00202611 0.00600675 0.00175543 0.0181854 0.00249067 0.0111681 0.00218213 0.0248949 0.00290443 0.0195127 0.00326165 0.0274457 0.00462555 0.0217042 0.00487115 0.0307794
65 1 Mg -2.47946 76.5444 4.75501 1.2 1 0.00505698 0.00525256 0.00157546 0.00800751 0.00149146 0.00491816 0.00159434 0.0203624 0.00207957 0.0100943 0.00171582 0.0262985 0.00298611 0.019067 0.00397437 0.0289952 0.0037254 0.024702 0.00436627 0.0394392
66 2 Si 0.356942 78.5358 5.02191 2.4 1 0.00249688 0.00596661 0.000788411 0.00869185 0.00107973 0.00481312 0.00180308 0.0198361 0.00225742 0.0095553 0.00217079 0.0246067 0.00322944 0.0192961 0.00518845 0.0283696 0.00437881 0.024877 0.00469167 0.0402388
67 3 O -1.19588 78.6935 4.97175 -1.2 1 0.00223744 0.00545211 0.00112697 0.00845169 0.00117103 0.004828 0.00166415 0.0196714 0.00268739 0.00930708 0.0021942 0.0251703 0.00361893 0.0189813 0.00407417 0.0283633 0.00460995 0.0241765 0.004498 0.0387998
68 3 O 1.41971 74.6809 4.93794 -1.2 1 0.00642576 0.00458796 0.00183225 0.00852983 0.00118077 0.00524884 0.00192815 0.0195396 0.00218247 0.0106547 0.0027514 0.0260462 0.00297583 0.0192422 0.00484589 0.0281345 0.00393553 0.0233283 0.00440147 0.0376917
69 3 O 0.915471 77.8669 3.63296 -1.2 1 0.00377841 0.00561967 0.00102127 0.00785252 0.00114683 0.00502105 0.00213923 0.0204273 0.00221036 0.0092511 0.0020685 0.0254102 0.00247361 0.0193403 0.00423381 0.0285101 0.00390045 0.0250698 0.00432979 0.0392773
70 3 O 1.02118 77.9184 6.2113 -1.2 1 0.00294922 0.00594927 0.00143441 0.00778063 0.00151051 0.00495994 0.00223615 0.0204431 0.00214482 0.00976347 0.00323074 0.025134 0.0037402 0.0200885 0.00498185 0.0292461 0.00453638 0.025123 0.00420192 0.0387503
71 1 Mg -0.0103221 74.1132 3.37362 1.2 1 0.00731583 0.00405112 0.00152178 0.00876925 0.00133646 0.00586517 0.00108149 0.0195067 0.00181037 0.0111053 0.00176581 0.0273905 0.0031807 0.0187366 0.00449132 0.0285208 0.00464596 0.023714 0.0045116 0.0374285
72 1 Mg 0.129415 71.0786 4.79701 1.2 1 0.0060668 0.00314827 0.00124397 0.008977 0.00128353 0.00627979 0.00198622 0.0180528 0.00236708 0.01229 0.00235078 0.0259839 0.00329319 0.0202345 0.00389486 0.0274636 0.00367874 0.0225283 0.00453829 0.0317879
73 2 Si 1.94994 73.2408 4.97183 2.4 1 0.00711099 0.0036565 0.00130556 0.00913246 0.00104662 0.00513921 0.00254467 0.0183594 0.00164009 0.0108159 0.00324379 0.0255534 0.00320218 0.0199157 0.00487092 0.027633 0.00362981 0.0225226 0.00522233 0.0356769
74 3 O -1.30867 73.3107 4.85202 -1.2 1 0.00734598 0.00367272 0.00146647 0.00886469 0.000915981 0.00537088 0.00202628 0.0183966 0.00304152 0.0109017 0.0027043 0.0260577 0.00377086 0.0195195 0.00458787 0.0287326 0.00520218 0.0223931 0.00451076 0.0361604
75 3 O 0.817799 69.1398 5.02006 -1.2 1 0.00396158 0.0035543 0.00145908 0.00968636 0.00157582 0.00676337 0.00189018 0.0177108 0.00221206 0.0117253 0.00233753 0.0246873 0.00295267 0.0195901 0.00369078 0.0264556 0.00351735 0.0221081 0.00460045 0.0291067
76 3 O 1.26977 72.4347 3.63741 -1.2 1 0.00678341 0.00333863 0.00085337 0.00874659 0.0014164 0.00572474 0.00242302 0.0184807 0.00266305 0.0107865 0.00228476 0.025608 0.00342318 0.0193529 0.00443292 0.0280358 0.00379781 0.0222689 0.0049348 0.0348371
77 1 Mg -0.0749478 74.347 0.331694 1.2 1 0.00807159 0.00339277 0.00147378 0.00903198 0.00200241 0.00572751 0.00121872 0.0200475 0.00202841 0.00970359 0.00201225 0.0268016 0.00358125 0.0184773 0.00471941 0.0289686 0.00486444 0.0254236 0.00478498 0.0381676
78 3 O 1.46575 72.6254 6.32475 -1.2 1 0.00660773 0.0045375 0.00124354 0.0081948 0.00111786 0.00539195 0.00206785 0.0188901 0.00156697 0.0115197 0.00219845 0.0256888 0.00213639 0.0201356 0.00387518 0.0284452 0.0031604 0.0229465 0.00388199 0.0344539
79 1 Mg 0.195461 77.1227 2.14164 1.2 1 0.0049972 0.00562706 0.00139661 0.00795402 0.00113573 0.00531616 0.00138983 0.0202563 0.00162472 0.00975273 0.00241321 0.0259446 0.00282537 0.0189992 0.00392018 0.0291588 0.00366463 0.0253102 0.00455807 0.0388343
80 2 Si -2.07783 75.2157 1.95066 2.4 1 0.00814076 0.0038887 0.00209547 0.0092795 0.00234336 0.00558067 0.0014699 0.020135 0.00184877 0.00975691 0.00259564 0.0258301 0.00395835 0.0193245 0.00503672 0.0286521 0.00522929 0.0249334 0.00496989 0.0397287
81 3 O 1.26557 75.0408 1.84748 -1.2 1 0.00780557 0.00377195 0.00180294 0.00895162 0.00183072 0.00509394 0.0013187 0.0199978 0.0023413 0.00972835 0.0015858 0.0264721 0.00297891 0.0188241 0.00494741 0.02907 0.00561632 0.0244891 0.00524543 0.038965
82 3 O -0.967944 79.0235 2.10127 -1.2 1 0.00273174 0.00551982 0.0009329 0.00742197 0.0012204 0.00556573 0.00157765 0.0208029 0.00118064 0.0093802 0.00264493 0.0253194 0.00365083 0.0185098 0.00513677 0.0278896 0.00461777 0.0247153 0.00493544 0.038036
83 3 O -1.55803 75.6703 0.671698 -1.2 1 0.0078289 0.00424607 0.00154249 0.00831548 0.002439 0.00543999 0.00185893 0.0207163 0.00253092 0.00941707 0.00190701 0.0264283 0.00374795 0.0188797 0.00477037 0.0294145 0.00477089 0.0256523 0.00384397 0.0395678
84 3 O -1.39873 76.2339 3.08016 -1.2 1 0.0064021 0.00497898 0.00170237 0.00821965 0.00173252 0.00531106 0.00139753 0.0202882 0.00202021 0.00972595 0.00215886 0.026068 0.00360438 0.0189717 0.00459661 0.0293981 0.00394339 0.0250285 0.00449986 0.0399093
85 1 Mg -2.3758 79.7998 0.510541 1.2 1 0.0025305 0.0049248 0.000927947 0.00712658 0.00137679 0.00601588 0.00177166 0.020052 0.00181945 0.00907122 0.00227895 0.0250332 0.00273401 0.0181562 0.00407934 0.028595 0.0039733 0.02438 0.00496634 0.0379877
86 1 Mg 2.39401 82.5049 1.98231 1.2 1 0.00523249 0.00487338 0.00126961 0.00659875 0.00175496 0.0060327 0.00185947 0.020539 0.00231138 0.00980014 0.00293125 0.0249695 0.00296788 0.0193727 0.00444515 0.0287071 0.00473965 0.0248433 0.00518291 0.0367084
87 2 Si -0.367493 80.565 1.86107 2.4 1 0.00292495 0.0048448 0.000984256 0.00744475 0.00208111 0.00526879 0.00242405 0.0198935 0.00183103 0.00906561 0.00323223 0.0242556 0.00339044 0.019083 0.00572205 0.0280011 0.00501018 0.0241167 0.00565554 0.0384238
88 3 O 1.18558 80.4784 1.77165 -1.2 1 0.00271449 0.00463418 0.00128351 0.00765173 0.00186692 0.00574431 0.00214648 0.0194367 0.00281684 0.00874542 0.00273362 0.0252246 0.00302762 0.0184509 0.00520961 0.0278154 0.00350514 0.0240878 0.00533898 0.0386004
89 3 O -1.22132 84.2749 1.83075 -1.2 1 0.00488763 0.00454398 0.00104116 0.00744309 0.00141102 0.00642515 0.00160668 0.0207219 0.0016602 0.0101047 0.00226488 0.0245774 0.00263701 0.0197344 0.00369108 0.0283139 0.0040347 0.0244906 0.00408314 0.0362793
90 3 O -1.00799 81.1788 0.658805 -1.2 1 0.00335892 0.00485066 0.00118198 0.00653067 0.00225908 0.00582586 0.00282428 0.0207603 0.00187855 0.009097 0.00276067 0.0243032 0.00323213 0.0196189 0.00542496 0.0287633 0.00450008 0.0246787 0.00570936 0.0377006
91 1 Mg -2.4877 90.1932 2.88036 1.2 1 0.00231446 0.00495056 0.0014585 0.00835711 0.00101391 0.00737454 0.00169955 0.0207634 0.0019463 0.012505 0.00237723 0.0261461 0.0021666 0.0202072 0.00387666 0.0269919 0.00417646 0.0240487 0.00467532 0.0328878
92 3 O -0.994872 81.1845 3.2987 -1.2 1 0.0041213 0.00579512 0.00115703 0.00720574 0.00142476 0.00533815 0.00182004 0.0202731 0.00124645 0.0100204 0.00228966 0.0240872 0.00367073 0.0196094 0.00428756 0.0283088 0.00436171 0.0242057 0.00540727 0.0375088
93 1 Mg -2.31777 87.0642 4.88557 1.2 1 0.00464672 0.00487205 0.000916869 0.00817954 0.00111609 0.0067326 0.00177873 0.0199791 0.00230914 0.0124721 0.00333618 0.0244286 0.00222128 0.0214922 0.00382185 0.0276635 0.00329033 0.023824 0.00429842 0.0345593
94 2 Si 0.392544 89.2295 4.62218 2.4 1 0.00254343 0.00438013 0.00169732 0.00888196 0.00209376 0.00653163 0.00182642 0.0192517 0.00160486 0.0121901 0.00237473 0.0244588 0.00239008 0.0212855 0.00412771 0.026898 0.00420341 0.0232442 0.00438995 0.0334324
95 3 O -1.12636 89.0936 4.69562 -1.2 1 0.00284968 0.00439633 0.00123006 0.00851041 0.00195082 0.00682727 0.00193853 0.0195325 0.00205241 0.0122169 0.00270654 0.0244781 0.00201709 0.0206522 0.00311882 0.0274476 0.00394593 0.0235242 0.00444353 0.0332327
96 3 O 1.24789 85.2387 4.47416 -1.2 1 0.00661879 0.00468492 0.00108773 0.00760521 0.00196261 0.00691079 0.00151741 0.0206849 0.00204372 0.0119059 0.00240868 0.0246849 0.00283575 0.0201517 0.00440705 0.0272704 0.0034272 0.0242428 0.00370967 0.0355358
97 3 O 1.10137 88.6077 3.13667 -1.2 1 0.00321883 0.00475568 0.00183924 0.00823795 0.00228996 0.00722267 0.0022217 0.0211114 0.0017625 0.0119677 0.00245925 0.0247841 0.00249172 0.0211272 0.00320112 0.0271604 0.00410441 0.0243006 0.00361044 0.0344019
98 3 O 1.06948 88.2582 5.76063 -1.2 1 0.00321805 0.00469748 0.00163922 0.00812831 0.00203716 0.00699659 0.00176508 0.0197936 0.00151897 0.0125286 0.00216311 0.0242351 0.00220845 0.0219758 0.00307639 0.0280672 0.00331437 0.023392 0.00482017 0.0330291
99 1 Mg -0.159011 84.7566 3.33656 1.2 1 0.00565106 0.00462408 0.00100313 0.00716446 0.00122188 0.00646562 0.00143301 0.0203746 0.00161537 0.011011 0.00251114 0.0246874 0.00262117 0.0202507 0.00402804 0.0277548 0.0042184 0.0238359 0.00375897 0.0352411
100 1 Mg -0.241996 81.5363 4.94981 1.2 1 0.00485578 0.00637527 0.000861515 0.00767872 0.00118767 0.00600906 0.00141489 0.0202703 0.00236715 0.010825 0.00228066 0.0254644 0.00272036 0.0190559 0.00465517 0.0280093 0.00404172 0.0243047 0.00541486 0.0378552
101 2 Si 1.92207 83.8056 4.656 2.4 1 0.0063651 0.00484331 0.000882324 0.00813176 0.0022788 0.00596905 0.00203362 0.0194899 0.00241827 0.0108324 0.00292423 0.0241487 0.00318586 0.020336 0.00538218 0.0275159 0.00518388 0.0233213 0.00460448 0.0364563
102 3 O -1.15312 83.5989 4.80072 -1.2 1 0.00677421 0.00547537 0.000762095 0.00773661 0.00224878 0.00570092 0.00182335 0.0194178 0.00340259 0.010755 0.00251205 0.0245295 0.00286894 0.0200631 0.00401982 0.0279909 0.00391562 0.023399 0.00560744 0.0368326
103 3 O 1.11801 80.1309 5.01313 -1.2 1 0.00333679 0.00625235 0.000749369 0.00819562 0.00087328 0.00562751 0.00138176 0.0198258 0.00205826 0.0102138 0.00185235 0.0254034 0.00281606 0.0188777 0.00433791 0.0282409 0.0043875 0.024155 0.00511197 0.038344
104 3 O 1.39815 83.0535 3.4577 -1.2 1 0.00582151 0.0049263 0.000797513 0.00673922 0.00179487 0.00561133 0.00264106 0.020431 0.0022965 0.0102911 0.00274387 0.0242082 0.00309243 0.0202542 0.00445909 0.0286886 0.00446617 0.0239791 0.00456983 0.0370327
105 1 Mg 0.00402187 84.5846 0.319435 1.2 1 0.00477921 0.00391998 0.00124921 0.00750586 0.00191298 0.00674317 0.00172933 0.0204371 0.00155386 0.00957327 0.00201916 0.0252104 0.00320247 0.0194104 0.00321168 0.0276833 0.00411731 0.0235866 0.00359271 0.0361466
106 3 O 1.3886 83.2774 6.10421 -1.2 1 0.00624106 0.0061215 0.000678644 0.00746654 0.0017219 0.00571028 0.00159094 0.0206616 0.00230759 0.0111663 0.00229527 0.024411 0.0028573 0.0212746 0.00362132 0.0283451 0.00400111 0.0242469 0.00481987 0.0362792
107 1 Mg 0.223213 87.6372 1.64525 1.2 1 0.00429221 0.00399968 0.00147386 0.00775415 0.000956099 0.0066255 0.000911627 0.0203586 0.00201275 0.0115366 0.00185275 0.0248094 0.00242928 0.0213968 0.00313072 0.0279367 0.0038836 0.023376 0.00339077 0.0342775
108 2 Si -1.99403 85.8027 1.89535 2.4 1 0.00445145 0.00393455 0.00133776 0.0079491 0.000946468 0.00631879 0.00184698 0.0196125 0.00183751 0.0106001 0.00315719 0.024384 0.001942 0.0210301 0.00351275 0.027336 0.00393402 0.0231971 0.00364233 0.0352706
109 3 O 1.27759 85.8594 1.70664 -1.2 1 0.00439521 0.00374395 0.00141976 0.00813879 0.00107294 0.00633589 0.00145201 0.0199506 0.00196765 0.0105198 0.00269272 0.0241136 0.0022517 0.0206742 0.00218966 0.027862 0.00401034 0.0238326 0.00339792 0.0356153
110 3 O -1.05801 89.874 1.30834 -1.2 1 0.00303041 0.00434994 0.00144441 0.00867336 0.000742593 0.00703824 0.00135322 0.0201845 0.00152367 0.0111853 0.00257061 0.0254382 0.00255533 0.0197032 0.00352213 0.0266383 0.0038211 0.0237597 0.00391513 0.0338644
111 3 O -1.20906 86.5187 0.550599 -1.2 1 0.00382301 0.00368967 0.00181696 0.0075324 0.00107486 0.00595339 0.00215718 0.0200282 0.00180421 0.0103977 0.0027176 0.0243356 0.00211885 0.0212789 0.00330103 0.0275282 0.00373345 0.0234194 0.00350084 0.0349501
112 3 O -1.31594 86.4202 3.04088 -1.2 1 0.00432485 0.00420058 0.00133383 0.00750585 0.0012244 0.00693588 0.00213622 0.0203677 0.00162658 0.0113752 0.00291241 0.0239742 0.00212248 0.0213302 0.00333005 0.028052 0.00341386 0.0241116 0.00303227 0.0351544
113 1 Mg -2.51549 90.2996 -0.0263608 1.2 1 0.00355258 0.00392626 0.00106646 0.00834612 0.00113069 0.00752292 0.00132785 0.0205833 0.00181433 0.0113886 0.00204488 0.026354 0.00188801 0.0193973 0.00293016 0.0267583 0.00359325 0.0241018 0.00360941 0.0327409
114 1 Mg 2.07787 93.2673 1.64547 1.2 1 0.00299187 0.00422052 0.00113862 0.00828632 0.000838456 0.0070692 0.00178749 0.0200282 0.00178592 0.0120864 0.00298502 0.0260198 0.00250431 0.0195365 0.00425873 0.0264517 0.00446324 0.0245533 0.00463651 0.0316461
115 2 Si -0.458276 91.3213 1.47511 2.4 1 0.00256258 0.00412735 0.00129613 0.00897122 0.00126618 0.00665979 0.00180618 0.0193795 0.00221431 0.0108203 0.00333836 0.0250999 0.00338443 0.0199768 0.00498694 0.026302 0.00499396 0.0245294 0.00509895 0.0332811
116 3 O 1.04219 91.3153 1.47999 -1.2 1 0.00233945 0.00423244 0.00137521 0.00850745 0.00098925 0.00675063 0.00204137 0.0197887 0.00257094 0.0107724 0.00265032 0.0254422 0.00210605 0.0196533 0.00383666 0.026867 0.00435573 0.0243193 0.00494156 0.0330748
117 3 O -1.37466 95.1774 1.7 -1.2 1 0.00401847 0.00334251 0.00128187 0.00843915 0.00128142 0.00714004 0.00129182 0.0199829 0.00186999 0.0121894 0.00211587 0.0253943 0.00252848 0.0193182 0.00377728 0.026214 0.00436737 0.0240803 0.00382959 0.0316649
118 3 O -1.1008 92.2401 0.349799 -1.2 1 0.00317007 0.00419731 0.00116288 0.00854623 0.000778298 0.00716614 0.0011602 0.0201576 0.00177811 0.0111842 0.00250895 0.025438 0.00272098 0.0198827 0.00434045 0.026886 0.004952 0.0246809 0.00464374 0.0324386
119 1 Mg -2.35237 100.776 3.28544 1.2 1 0.00796929 0.00312191 0.00210575 0.00825475 0.00144489 0.00706 0.000999019 0.0186565 0.00186414 0.0114735 0.00195886 0.0253542 0.00289588 0.0197165 0.00299639 0.027258 0.00292007 0.0215413 0.00475173 0.0314643