ITEM: TIMESTEP
23800
ITEM: NUMBER OF ATOMS
5600
ITEM: BOX BOUNDS xy xz yz pp pp pp
0	7.1235	0
0	201.985	2.3745
0	119.584	0
ITEM: ATOMS id type element xu yu zu q Q_1 Q_2 Q_3 Q_4 Q_5 Q_6 Q_7 Q_8 Q_9 Q_10 Q_11 Q_12 Q_13 Q_14 Q_15 Q_16 Q_17 Q_18 Q_19 Q_20 Q_21
1 1 Mg -1.49123 49.0754 -0.883203 1.2 1 0.240628 0.0847372 0.0219356 0.0287524 0.00653251 0.015852 0.00447645 0.0206063 0.00488023 0.0272696 0.00528791 0.0315687 0.0102969 0.0274827 0.00764894 0.027403 0.00897765 0.0218629 0.00985144 0.0337784
2 1 Mg 3.33699 50.7504 2.28966 1.2 1 0.196545 0.0733076 0.0128809 0.022375 0.00324326 0.0117228 0.00346878 0.017393 0.00410819 0.021731 0.00461454 0.026232 0.0059743 0.0243404 0.00508026 0.0250723 0.00740728 0.0195298 0.00831501 0.0319189
3 2 Si 1.11355 50.7437 0.395379 2.4 1 0.19782 0.0745232 0.0149018 0.0229779 0.00505753 0.0121574 0.00331912 0.0191663 0.00453236 0.0236828 0.0043226 0.0281728 0.00745672 0.0265764 0.00527023 0.025856 0.007332 0.0192371 0.00908499 0.0337853
4 3 O 2.47658 50.0257 0.601693 -1.2 1 0.215568 0.0784831 0.0175107 0.0251329 0.00561911 0.0129499 0.00350517 0.0184473 0.00496452 0.0243304 0.00495593 0.0269525 0.00807538 0.0266063 0.00706225 0.0260794 0.00817855 0.0202523 0.00913063 0.0319155
5 3 O -0.975644 53.4504 1.70567 -1.2 1 0.135002 0.0541248 0.00533052 0.0148956 0.0029132 0.00943582 0.00292761 0.0178739 0.0031645 0.0171074 0.0030096 0.0262414 0.00518504 0.021135 0.00314584 0.0256896 0.00584134 0.0189678 0.00647081 0.0357295
6 3 O 0.315895 49.8709 -0.720179 -1.2 1 0.21523 0.0788719 0.0182288 0.0253452 0.00592399 0.0137398 0.00375189 0.0191689 0.00445414 0.0249144 0.00450718 0.0294436 0.00787671 0.0267077 0.00595181 0.0263244 0.00752987 0.0200797 0.00819411 0.0339404
7 1 Mg -2.2336 59.3601 3.1306 1.2 1 0.0136207 0.0142451 0.00520608 0.00622012 0.00118856 0.00637274 0.00174582 0.0217918 0.00279333 0.0106137 0.00193084 0.028429 0.00254427 0.0196739 0.0037623 0.0302811 0.00391457 0.0227499 0.00396126 0.0439071
8 3 O 0.335548 50.7467 1.74628 -1.2 1 0.195311 0.0737654 0.01343 0.0223645 0.00331732 0.0115889 0.00352356 0.0185975 0.0048209 0.0231535 0.00456679 0.0269132 0.00660482 0.0253939 0.00550137 0.025099 0.00813434 0.0197992 0.00841143 0.0318626
9 1 Mg -2.06019 56.4516 4.51846 1.2 1 0.0688767 0.0360167 0.0038052 0.00903543 0.00162945 0.0064493 0.0021807 0.0195668 0.00248197 0.0131175 0.00282804 0.0265138 0.00309261 0.0196993 0.00397796 0.0270677 0.00452619 0.0206741 0.00580418 0.0396801
10 2 Si 0.544719 58.3078 4.63234 2.4 1 0.0251627 0.0201568 0.00681974 0.00713081 0.00145081 0.00627493 0.00306153 0.0212782 0.00325454 0.00984896 0.00357703 0.0267491 0.00412794 0.0200595 0.00523727 0.0284823 0.00439666 0.0220766 0.00507144 0.0432609
11 3 O -0.992686 58.5248 4.64659 -1.2 1 0.0223233 0.0190772 0.00670358 0.00618098 0.00135351 0.00600012 0.00256027 0.0216015 0.00330691 0.0100366 0.00213931 0.0275378 0.00341189 0.0198194 0.00391058 0.0293369 0.00503437 0.0218657 0.00471159 0.0435226
12 3 O 1.86659 54.1544 4.61307 -1.2 1 0.116335 0.0499394 0.00219988 0.0132932 0.00201299 0.0084266 0.00323267 0.0189695 0.00280472 0.0165393 0.00346471 0.0258778 0.00379014 0.0210327 0.00338527 0.0243328 0.00464105 0.0189379 0.00674481 0.0367913
13 3 O 1.27593 57.5805 3.4097 -1.2 1 0.0421725 0.0276293 0.00589546 0.00738741 0.00158551 0.00617172 0.0021644 0.0209653 0.00270644 0.0113424 0.00224505 0.0269482 0.00343401 0.0201593 0.00406989 0.02827 0.0043808 0.0216754 0.00506025 0.0420227
14 3 O 1.14203 57.6041 5.91061 -1.2 1 0.0363851 0.0245535 0.00678909 0.0069776 0.00130918 0.0066822 0.0020279 0.0211179 0.00255784 0.0102864 0.00226793 0.0269602 0.00310352 0.0196545 0.00432747 0.0284323 0.00426512 0.0225209 0.00535761 0.0437461
15 1 Mg 0.548445 53.2568 2.93426 1.2 1 0.13418 0.0564602 0.00307829 0.0153775 0.00195861 0.00977358 0.00309199 0.0179239 0.00318238 0.0178105 0.00352613 0.026342 0.00445932 0.0211228 0.00400139 0.0248451 0.00492379 0.0182173 0.00680123 0.0349858
16 1 Mg 1.16853 50.0415 3.27413 1.2 1 0.215344 0.076803 0.0165203 0.0250543 0.00395214 0.0130709 0.00404534 0.0181124 0.00350116 0.0237792 0.00485123 0.0261559 0.00655568 0.0257419 0.00621988 0.0244188 0.00830004 0.0203938 0.00940636 0.031343
17 2 Si 2.61174 52.7073 4.65701 2.4 1 0.157811 0.0613289 0.00667158 0.0174143 0.00317538 0.0101414 0.00424617 0.0175374 0.00316391 0.0184732 0.00378148 0.0253723 0.00456789 0.0215261 0.00463217 0.0238967 0.00437163 0.0178556 0.00814919 0.0342702
18 3 O -0.629203 52.9405 4.58604 -1.2 1 0.145924 0.0572855 0.00566074 0.015537 0.00344356 0.00903285 0.00441081 0.0178098 0.00300668 0.0176973 0.00347584 0.0262816 0.00508986 0.023111 0.00360722 0.0235049 0.00603029 0.0181157 0.00739335 0.0352228
19 3 O 2.8786 49.1913 3.43712 -1.2 1 0.231302 0.0807209 0.0205066 0.0266453 0.00474527 0.0153517 0.0039278 0.0190788 0.00367969 0.0244982 0.00564485 0.0268034 0.0077722 0.0258401 0.00767569 0.0247219 0.00871488 0.0203112 0.00811156 0.0311802
20 3 O 2.09025 51.8708 3.38291 -1.2 1 0.164811 0.0634824 0.00787914 0.0180229 0.00333992 0.0104012 0.00446684 0.0179631 0.00281442 0.0196468 0.00379511 0.0264651 0.00490434 0.0230179 0.004531 0.02448 0.0053019 0.0182547 0.0077594 0.0338734
21 1 Mg 0.196302 54.1464 0.188131 1.2 1 0.116702 0.0525667 0.00156888 0.01423 0.00202279 0.0087036 0.00267262 0.0190193 0.00346164 0.0183005 0.00322332 0.0283548 0.00442398 0.0213966 0.00319856 0.0260682 0.00534039 0.0201551 0.00614525 0.0364913
22 3 O 2.18078 51.7535 5.90266 -1.2 1 0.171873 0.0647366 0.00904046 0.0188134 0.00344492 0.0112549 0.00343802 0.0181515 0.00341887 0.0199329 0.00396281 0.0262612 0.00453279 0.0224905 0.00484904 0.0235438 0.00491649 0.0176709 0.00792568 0.033485
23 1 Mg 0.125971 57.0744 1.79837 1.2 1 0.0457827 0.0291967 0.00651743 0.00732339 0.00139786 0.00649168 0.00233405 0.0197691 0.00444549 0.0118345 0.00320606 0.0278878 0.00287978 0.0198828 0.0041086 0.027441 0.00554465 0.0202164 0.00581256 0.0410953
24 2 Si -1.69275 54.8727 1.77301 2.4 1 0.106213 0.047838 0.00122001 0.0123054 0.00197547 0.00807086 0.00236533 0.0183015 0.00417904 0.0155771 0.00344993 0.0264098 0.00350021 0.0212961 0.00331593 0.025549 0.00577302 0.0186817 0.00595513 0.0374076
25 3 O 1.47562 54.7654 1.70826 -1.2 1 0.105954 0.0468028 0.00124574 0.0119501 0.00159487 0.00804734 0.0025149 0.0180261 0.00347686 0.0154541 0.00329081 0.0263547 0.00397737 0.0204204 0.00344274 0.0262686 0.00528989 0.0193054 0.0059704 0.0369505
26 3 O -0.899605 58.9854 1.61611 -1.2 1 0.0179882 0.0168265 0.00684456 0.0063894 0.00127914 0.0064648 0.00148641 0.0216579 0.00380971 0.00955316 0.00272083 0.0281599 0.00309597 0.0200996 0.00451564 0.0294653 0.00539777 0.0223749 0.00507024 0.0442106
27 3 O -1.128 55.6811 0.396454 -1.2 1 0.0782812 0.0401206 0.00400441 0.0098346 0.00230998 0.00693613 0.00178446 0.0190934 0.00416189 0.0135789 0.00305943 0.0265209 0.00387031 0.0203986 0.00364729 0.0274224 0.00569731 0.020969 0.00481747 0.0392043
28 3 O -1.1344 55.8174 2.89639 -1.2 1 0.0813441 0.0389684 0.00174275 0.00956155 0.00175991 0.00722395 0.00188309 0.0186546 0.00344262 0.0134892 0.00280147 0.0263338 0.00292789 0.0202185 0.00275843 0.026812 0.00486834 0.0198287 0.00557984 0.038617
29 1 Mg -2.24544 59.2734 0.240217 1.2 1 0.0138202 0.0148977 0.00602391 0.00607708 0.000886809 0.00659791 0.00218783 0.0219203 0.00329666 0.0101279 0.00217553 0.0291791 0.00244715 0.0201863 0.00379233 0.0297303 0.00403426 0.0229281 0.00445312 0.0445808
30 1 Mg 2.63834 62.3656 1.86425 1.2 1 0.00164031 0.00630598 0.00109037 0.00690301 0.000784624 0.00697861 0.000922579 0.0234749 0.0021299 0.0093809 0.00210451 0.0287847 0.00186084 0.0204092 0.00219268 0.0319232 0.00290415 0.0243892 0.00328882 0.0461942
31 2 Si -0.166373 60.4621 1.67828 2.4 1 0.00607889 0.00998158 0.00295471 0.00710544 0.00140876 0.00671386 0.00124019 0.022387 0.00228886 0.00989075 0.00234603 0.0279412 0.00246006 0.0208936 0.00347529 0.0301418 0.0036288 0.0235117 0.00355323 0.0464385
32 3 O 1.34365 60.1857 1.62277 -1.2 1 0.00809084 0.0108548 0.00431696 0.00643785 0.00127014 0.00622762 0.00113816 0.0221709 0.00293847 0.00943388 0.00220216 0.0283022 0.00244077 0.0202001 0.00369522 0.0309953 0.00418382 0.0232095 0.00457197 0.0456762
33 3 O -1.21117 64.1373 1.699 -1.2 1 0.00118943 0.00528882 0.00144693 0.00764347 0.000836743 0.00663631 0.00157698 0.0233554 0.0015956 0.00980073 0.00212757 0.0290037 0.00246612 0.0204926 0.0037005 0.0308858 0.00323724 0.0238601 0.00349816 0.0461827
34 3 O -0.855026 61.1776 0.474597 -1.2 1 0.00334018 0.00825131 0.00250459 0.00648157 0.00120042 0.00670945 0.00115695 0.0229248 0.00283633 0.00889836 0.00162806 0.0284979 0.00219168 0.020654 0.00280456 0.0312986 0.00304921 0.0240006 0.00367139 0.0460177
35 1 Mg -2.4284 69.8437 3.10261 1.2 1 0.00188298 0.00457974 0.000855116 0.00729706 0.000833149 0.00628076 0.00082637 0.0231408 0.00136044 0.0107818 0.0012977 0.0290899 0.00190966 0.0210946 0.0021685 0.0320905 0.00211061 0.0249153 0.00210008 0.0459888
36 3 O -0.764466 61.1228 2.9875 -1.2 1 0.00369919 0.00828702 0.00233421 0.00676422 0.00108174 0.0066348 0.00120263 0.022319 0.00211985 0.00960907 0.0021523 0.0279984 0.00211567 0.0204807 0.00342227 0.0311878 0.00358065 0.0232423 0.00347506 0.0461698
37 1 Mg -2.16877 66.7844 4.78412 1.2 1 0.00248019 0.00448864 0.00158519 0.00725906 0.00112332 0.00603284 0.00133326 0.0231663 0.00228127 0.0107494 0.00222838 0.0280948 0.00190174 0.0213601 0.00286815 0.0318804 0.00242769 0.0244621 0.00334743 0.0451792
38 2 Si 0.442232 68.7427 4.68671 2.4 1 0.000447917 0.00395131 0.00122818 0.00832987 0.00133189 0.006241 0.00147508 0.0233287 0.00187245 0.010744 0.00158509 0.027035 0.00236356 0.0218731 0.00348817 0.0319923 0.00243629 0.0248398 0.00295685 0.0467056
39 3 O -1.13597 68.9123 4.75137 -1.2 1 0.000152154 0.00410029 0.00100524 0.00766157 0.0012289 0.00597319 0.00149504 0.0229753 0.00219859 0.0106473 0.00136562 0.028038 0.00173086 0.0212239 0.00201124 0.0324542 0.00158046 0.024784 0.00199678 0.0460422
40 3 O 1.52011 64.9573 4.5537 -1.2 1 0.00349781 0.00516478 0.00142277 0.00752524 0.00150735 0.00623856 0.00134041 0.0235433 0.00165811 0.0101144 0.00236112 0.0284809 0.00274483 0.0208728 0.00293388 0.0315441 0.00284139 0.024165 0.00283409 0.0455851
41 3 O 1.13763 68.208 3.36604 -1.2 1 0.000317214 0.00420052 0.0015489 0.0074192 0.00169623 0.00604398 0.00224245 0.0230048 0.00169385 0.0104907 0.00173941 0.0276942 0.00266694 0.0212351 0.00380672 0.0324973 0.00294842 0.0245019 0.00275952 0.0459863
42 3 O 1.10819 68.0149 5.89247 -1.2 1 0.0018065 0.00398957 0.00134481 0.00766188 0.00188685 0.00603987 0.00197826 0.0234651 0.00204262 0.0105545 0.00201053 0.0272105 0.00262411 0.0217293 0.00253453 0.0325178 0.00289106 0.0248812 0.0032889 0.0458248
43 1 Mg 0.150244 64.7188 3.21891 1.2 1 0.00215992 0.00522343 0.00130192 0.00723723 0.000946764 0.00650052 0.00112698 0.0229745 0.00151329 0.00984852 0.00156169 0.0291361 0.00180531 0.0207271 0.002041 0.0312761 0.00229705 0.0236122 0.00254105 0.0451628
44 1 Mg 0.145392 61.5102 4.72127 1.2 1 0.00373239 0.00766871 0.00237377 0.00684134 0.00176559 0.006444 0.00172502 0.0228111 0.00221828 0.00976573 0.0027973 0.0282209 0.00218636 0.0201792 0.00266166 0.0315286 0.00364293 0.0234185 0.0042622 0.0456747
45 2 Si 2.17745 63.5272 4.63459 2.4 1 0.00322476 0.00572279 0.00146177 0.00825309 0.00167357 0.00629448 0.00152596 0.0227618 0.00172564 0.00965338 0.00270962 0.0274236 0.0022178 0.0210891 0.003691 0.0314693 0.00277268 0.0235763 0.00300943 0.0466276
46 3 O -1.00613 63.6156 4.69635 -1.2 1 0.00361885 0.00562078 0.00127836 0.00757668 0.00159758 0.00623925 0.00139062 0.0227149 0.0021008 0.00962949 0.00177189 0.0281555 0.0025092 0.020339 0.00225658 0.031711 0.00315831 0.0233888 0.00334676 0.0462784
47 3 O 1.26011 59.7885 4.70894 -1.2 1 0.0103902 0.0132402 0.00428736 0.00640196 0.00167615 0.00645706 0.002271 0.0220694 0.00271406 0.00991345 0.00209103 0.0275091 0.00275914 0.0200775 0.0037676 0.0301986 0.00422612 0.0224901 0.00442795 0.0450344
48 3 O 1.53857 62.7289 3.44094 -1.2 1 0.00257667 0.00599545 0.00135688 0.00719748 0.00146182 0.00649482 0.00193837 0.0233146 0.00176716 0.00926008 0.00177319 0.0279298 0.00210843 0.0207376 0.00188618 0.0324971 0.00225174 0.0243256 0.00310481 0.0461798
49 1 Mg 0.118345 64.4504 0.275323 1.2 1 0.00110913 0.00488834 0.00064272 0.0069655 0.000965123 0.00678231 0.000777616 0.023436 0.00145731 0.00949628 0.00152028 0.0296926 0.00176669 0.0203952 0.00179056 0.0311017 0.00237911 0.0235809 0.0029857 0.0453827
50 3 O 1.56098 62.7826 6.0443 -1.2 1 0.00454443 0.00648042 0.00189014 0.00694784 0.00219861 0.00626145 0.00151173 0.0233873 0.00141315 0.00964828 0.00180988 0.0274876 0.00238745 0.02104 0.00288027 0.0319812 0.00269855 0.0237162 0.00380433 0.0468726
51 1 Mg 0.105819 67.6588 1.57902 1.2 1 0.000994443 0.00441559 0.00110126 0.00741071 0.000891658 0.00639904 0.00135462 0.0235852 0.00160341 0.0104414 0.00142916 0.0286613 0.00189614 0.021352 0.00297954 0.0314731 0.00304952 0.024812 0.00318102 0.0464333
52 2 Si -1.93487 65.7164 1.75275 2.4 1 0.00130846 0.00460008 0.00109961 0.00822087 0.000802773 0.00626435 0.00164927 0.0226087 0.00148997 0.00999694 0.00224975 0.0276342 0.00274538 0.0210712 0.00401044 0.0308026 0.00347959 0.0237151 0.00323759 0.0468381
53 3 O 1.32235 65.5879 1.70782 -1.2 1 0.0013274 0.0044239 0.00124012 0.00770923 0.000733043 0.00619518 0.00137758 0.022904 0.00251437 0.0102615 0.00218908 0.0282614 0.00211683 0.0210709 0.00264013 0.0313045 0.00300121 0.0240297 0.00355418 0.0464941
54 3 O -1.03875 69.4381 1.64174 -1.2 1 0.00243176 0.00448926 0.00100795 0.00818346 0.000610504 0.00647716 0.000767631 0.0232852 0.00142681 0.0102739 0.00196251 0.0286129 0.00215561 0.0208212 0.00403783 0.0313571 0.00283665 0.0247959 0.00330069 0.0464941
55 3 O -1.33022 66.3529 0.439385 -1.2 1 0.000715431 0.0042935 0.000474016 0.00743568 0.00100671 0.00625492 0.00150237 0.0231618 0.00135202 0.0101476 0.00155586 0.0281414 0.00269193 0.0211202 0.00297752 0.0315155 0.00331077 0.0238695 0.00362728 0.0468828
56 3 O -1.22606 66.2628 3.01751 -1.2 1 0.00123612 0.00442868 0.00113935 0.00729849 0.000769324 0.00614938 0.00154194 0.0231991 0.00110683 0.0102854 0.00192817 0.0277923 0.00254607 0.0216922 0.0035121 0.031651 0.00319122 0.0242656 0.0026443 0.0456148
57 1 Mg -2.44255 69.9648 0.0783143 1.2 1 0.00221516 0.00481821 0.00115322 0.00773867 0.001046 0.00608856 0.00111958 0.0231796 0.00138408 0.0104929 0.00173406 0.0296789 0.00235759 0.0206374 0.00300653 0.0315636 0.00208711 0.0243497 0.00273934 0.0464311
58 1 Mg 2.36887 72.746 1.60323 1.2 1 0.00324025 0.00552637 0.00137307 0.00743382 0.00123402 0.00618982 0.00151965 0.0237877 0.00218609 0.0108253 0.00200799 0.0289599 0.00216857 0.0210591 0.0039424 0.0331258 0.00386066 0.0254771 0.00392204 0.047088
59 2 Si -0.28749 70.8736 1.62689 2.4 1 0.00335228 0.00445181 0.00125947 0.00837827 0.00154786 0.00636564 0.00112754 0.0229991 0.00143401 0.0105964 0.00241098 0.0278058 0.00224811 0.0212556 0.00380393 0.0324948 0.0032316 0.0250706 0.00304292 0.047199
60 3 O 1.25605 70.8614 1.67058 -1.2 1 0.00305575 0.00447258 0.000955619 0.00805298 0.00107867 0.005492 0.00119073 0.0221252 0.00221913 0.0104135 0.0011507 0.0282703 0.00280103 0.0207031 0.00337482 0.0325838 0.0036992 0.0242366 0.00371211 0.0469388
61 3 O -1.254 74.5165 1.67526 -1.2 1 0.00326076 0.00547351 0.00138517 0.00741966 0.00117416 0.00594465 0.000792624 0.0238539 0.00161941 0.0104529 0.00210459 0.0290344 0.00292159 0.020752 0.00414799 0.0329796 0.00234014 0.0247701 0.00360535 0.0476064
62 3 O -0.989155 71.5113 0.283349 -1.2 1 0.0030231 0.0050981 0.00143697 0.00775839 0.00131911 0.00621226 0.00127555 0.0239731 0.00197108 0.0101273 0.00190945 0.0281057 0.00231508 0.02117 0.00293348 0.0323964 0.00256789 0.0249798 0.00282375 0.0470634
63 1 Mg -2.2558 80.3793 3.03663 1.2 1 0.000752643 0.00422523 0.00142019 0.00701713 0.000985375 0.00593432 0.000978634 0.023694 0.00141781 0.00987954 0.00153908 0.0296095 0.00168255 0.0208083 0.00158156 0.0346709 0.00183376 0.0258386 0.00267011 0.0498841
64 3 O -0.804336 71.5379 2.98173 -1.2 1 0.00306518 0.00505207 0.00104239 0.00755298 0.00125899 0.00625734 0.00128554 0.023418 0.00191908 0.0107879 0.00184452 0.027908 0.00230006 0.0215693 0.00267751 0.033338 0.00260731 0.0254905 0.00312247 0.0471698
65 1 Mg -2.09471 77.4866 4.57389 1.2 1 0.00266919 0.00516871 0.00146186 0.00704649 0.00126273 0.00570173 0.00153673 0.0236806 0.00184961 0.0105844 0.00229083 0.0292952 0.00250263 0.0217566 0.00271083 0.0354401 0.00291061 0.0264121 0.00232391 0.0501613
66 2 Si 0.393055 79.2875 4.50997 2.4 1 0.00190783 0.00440357 0.00178298 0.00738362 0.00169403 0.00605555 0.00179665 0.0240883 0.00147685 0.0101346 0.00215679 0.0282279 0.00191403 0.0217713 0.00283009 0.0348543 0.00312291 0.0260149 0.00318807 0.052045
67 3 O -1.13482 79.3201 4.48978 -1.2 1 0.00139215 0.00484563 0.00183897 0.00706334 0.00166029 0.00555325 0.00158956 0.0235588 0.00224236 0.00996672 0.00204947 0.0289822 0.00267437 0.0211958 0.00219362 0.0347383 0.00367427 0.0254352 0.00360757 0.0506272
68 3 O 1.48858 75.5008 4.55167 -1.2 1 0.00264365 0.00518436 0.000979419 0.00722516 0.0010563 0.00602782 0.000979622 0.0240951 0.00104865 0.0105228 0.00206242 0.0290404 0.001813 0.0210711 0.00302061 0.0342818 0.00303311 0.0262494 0.00232176 0.049591
69 3 O 1.12724 78.6411 3.21318 -1.2 1 0.00134465 0.00515596 0.00131302 0.00707875 0.00154758 0.00594472 0.00171644 0.0237387 0.00192381 0.0105461 0.00197892 0.0281445 0.00262467 0.0214199 0.00295631 0.0346915 0.00333041 0.0261497 0.00308218 0.0503781
70 3 O 1.10296 78.4944 5.69402 -1.2 1 0.00209073 0.00475539 0.00160874 0.00648071 0.00156038 0.00564763 0.00176784 0.0238206 0.00167056 0.0101314 0.00207612 0.0284704 0.00221149 0.0220164 0.00232217 0.0348678 0.00268835 0.0256765 0.00291882 0.0505779
71 1 Mg 0.125979 74.7672 3.11147 1.2 1 0.00312384 0.00567797 0.00103901 0.00725441 0.000931221 0.00615795 0.00106473 0.023624 0.000958555 0.0106204 0.00115776 0.0291952 0.00143346 0.0210338 0.00260571 0.0335511 0.00208445 0.0254245 0.00232479 0.048202
72 1 Mg 0.00221886 72.0613 4.70432 1.2 1 0.00302715 0.00493165 0.000999636 0.00734289 0.000735593 0.00586084 0.00094836 0.0237315 0.00209533 0.0111645 0.00207323 0.0287541 0.00253209 0.0216563 0.00340475 0.0336603 0.00276316 0.0259207 0.00269253 0.0472589
73 2 Si 2.22485 73.9946 4.65184 2.4 1 0.00369512 0.00540366 0.000883978 0.00795067 0.00152639 0.00594822 0.00171344 0.0230331 0.00167179 0.0106237 0.0024419 0.0278225 0.00145374 0.0217732 0.00436176 0.0334186 0.00354694 0.025647 0.00322057 0.0492447
74 3 O -0.921905 74.1908 4.69036 -1.2 1 0.00355262 0.00493528 0.00105141 0.00762043 0.00133546 0.00598409 0.00133735 0.0232622 0.00163778 0.0105343 0.00181781 0.0289506 0.00147981 0.0209698 0.00214346 0.0338336 0.00225608 0.0257493 0.00220461 0.0488367
75 3 O 1.15278 70.2758 4.74409 -1.2 1 0.00144797 0.00423892 0.000912473 0.00718766 0.00083792 0.00631046 0.00110171 0.0240063 0.00132448 0.0109075 0.00164374 0.0285815 0.00249488 0.0215118 0.00286133 0.032753 0.00186523 0.0253991 0.00235146 0.0466012
76 3 O 1.48918 73.2654 3.44161 -1.2 1 0.00374126 0.00548478 0.00146858 0.00733738 0.00135903 0.00604233 0.001724 0.0236249 0.00154955 0.010564 0.00149091 0.0282785 0.00189786 0.0214077 0.00304254 0.0335259 0.00255831 0.025891 0.00236002 0.0479056
77 1 Mg -0.0283154 74.8856 0.195528 1.2 1 0.00276998 0.00535469 0.0011129 0.00738671 0.000849163 0.00584233 0.00082816 0.0232599 0.00114941 0.010405 0.00142047 0.0295859 0.00198316 0.0202198 0.00258345 0.0330178 0.00234301 0.0245722 0.0023847 0.0470775
78 3 O 1.64172 73.3307 5.93628 -1.2 1 0.00295324 0.00475573 0.000997794 0.00713604 0.00159722 0.00569179 0.00173044 0.0237463 0.00200516 0.010871 0.0017376 0.0278667 0.00198581 0.0219056 0.00292557 0.0346279 0.00259502 0.0259804 0.00257573 0.0482092
79 1 Mg 0.128436 77.9814 1.582 1.2 1 0.00101506 0.00544433 0.00147725 0.00706422 0.000868106 0.00588927 0.00129903 0.0235379 0.00227421 0.0105519 0.002343 0.0291142 0.00236848 0.0209261 0.00354839 0.0343646 0.00279025 0.0257946 0.00329255 0.0487276
80 2 Si -1.97778 76.0135 1.75187 2.4 1 0.00238995 0.00597817 0.00141954 0.0079723 0.00110001 0.00590711 0.00134165 0.0233597 0.0016879 0.0104494 0.00274112 0.0276751 0.00222426 0.0212655 0.00344996 0.033724 0.00274669 0.0252281 0.00257189 0.0492686
81 3 O 1.19906 75.843 1.71509 -1.2 1 0.00289114 0.00578389 0.00137783 0.0077993 0.00130514 0.00597349 0.000978305 0.0231533 0.00218067 0.0103146 0.0015738 0.0288488 0.00203229 0.0205146 0.00286064 0.0336445 0.00220158 0.0249506 0.00273671 0.0481137
82 3 O -0.94755 79.8341 1.50077 -1.2 1 0.00078156 0.00458215 0.00145878 0.00760684 0.000806583 0.00607554 0.00109485 0.023926 0.00151046 0.0100696 0.0022581 0.0290482 0.00218417 0.0209924 0.00273417 0.0340634 0.00231765 0.0256604 0.0029061 0.049315
83 3 O -1.41585 76.6112 0.35587 -1.2 1 0.00170034 0.00545512 0.00149753 0.00718147 0.00144599 0.00563663 0.00203795 0.0234242 0.0019688 0.0104959 0.00198808 0.0285743 0.00303096 0.0210677 0.00339913 0.0337588 0.00304593 0.0251134 0.00364483 0.048799
84 3 O -1.24046 76.7489 2.8903 -1.2 1 0.00217974 0.00551297 0.0012358 0.00729548 0.0011605 0.00553241 0.00167016 0.0236783 0.00142265 0.0102043 0.00220176 0.0278775 0.00236261 0.021348 0.00252712 0.0349988 0.00224839 0.0259276 0.00246178 0.0492201
85 1 Mg -2.31371 80.0713 0.0881638 1.2 1 0.000437978 0.00450823 0.00125573 0.00734092 0.0008318 0.0059393 0.000915288 0.0237962 0.0014591 0.0102989 0.00202688 0.0295648 0.00236372 0.0205062 0.00265379 0.0335326 0.0028731 0.0252911 0.00328335 0.0477549
86 1 Mg 2.33827 83.1384 1.58905 1.2 1 0.00110368 0.0040323 0.000965681 0.00713365 0.00107494 0.00554216 0.00137425 0.0241795 0.00181126 0.009958 0.00195153 0.0292884 0.00222139 0.0213403 0.00254846 0.0337986 0.00284842 0.0257085 0.00217463 0.0507363
87 2 Si -0.258529 81.2933 1.49133 2.4 1 0.00134342 0.00412388 0.00119729 0.0077411 0.00127714 0.00604365 0.00149776 0.0237999 0.00186589 0.00994295 0.00237485 0.0280986 0.00193087 0.0212428 0.00365962 0.0340262 0.00321865 0.0258146 0.00306042 0.0504286
88 3 O 1.33064 81.2087 1.59618 -1.2 1 0.00105979 0.0039945 0.00105705 0.00731527 0.000942669 0.00565366 0.00161147 0.0237751 0.0026608 0.00992498 0.0017592 0.0289589 0.00213846 0.0210232 0.00197528 0.0342882 0.00353187 0.0253819 0.00300051 0.0501972
89 3 O -1.28901 84.9968 1.67169 -1.2 1 0.00153621 0.00379044 0.000723772 0.00736929 0.000965698 0.00591294 0.00104883 0.024702 0.00117422 0.0093854 0.00183963 0.0291514 0.00244943 0.0208771 0.00293659 0.0329431 0.00328299 0.0260641 0.00289233 0.0517701
90 3 O -0.962622 82.002 0.214408 -1.2 1 0.000609853 0.00393413 0.00100957 0.00716117 0.000992766 0.00575579 0.00133236 0.0245643 0.00200528 0.0100784 0.00235428 0.0282177 0.00204801 0.0217886 0.00364143 0.0338269 0.00297377 0.0258543 0.00296033 0.0495164
91 1 Mg -1.95647 90.5889 3.19223 1.2 1 0.00174286 0.00390738 0.00165012 0.0064809 0.00108828 0.00589381 0.00108883 0.0244307 0.00125334 0.00870288 0.00165162 0.0304918 0.00156782 0.0204016 0.00203911 0.0323779 0.00219033 0.0254898 0.00344848 0.0523782
92 3 O -0.878471 82.0029 2.81479 -1.2 1 0.000837823 0.00373481 0.000997223 0.00677754 0.00115949 0.0056844 0.00158187 0.0241006 0.0017866 0.0102528 0.00190565 0.0284058 0.0020628 0.021743 0.00246539 0.0345794 0.00200611 0.0256292 0.00210036 0.0512633
93 1 Mg -2.07329 87.7601 4.654 1.2 1 0.00246139 0.00436156 0.00109696 0.00621261 0.00121489 0.0053218 0.00119688 0.0249011 0.00215421 0.00951468 0.00165422 0.0300914 0.00197026 0.0213248 0.00303315 0.0341624 0.00285569 0.025647 0.0031321 0.0530178
94 2 Si 0.577313 89.7052 4.64548 2.4 1 0.00210145 0.00430321 0.00161232 0.00720463 0.00141568 0.00581008 0.00155514 0.0243362 0.00185324 0.00912651 0.00255982 0.0288403 0.0021404 0.0217229 0.0040275 0.0328303 0.00278616 0.0249129 0.00454743 0.0542879
95 3 O -0.949838 89.8124 4.66275 -1.2 1 0.00213928 0.00418793 0.00144423 0.0066133 0.00122042 0.00547718 0.00102728 0.0245534 0.00224987 0.00867505 0.00142096 0.0296334 0.00227297 0.0206204 0.00250527 0.033342 0.00281174 0.0252899 0.00379983 0.0533647
96 3 O 1.65034 85.9911 4.56826 -1.2 1 0.00123297 0.00410709 0.000752577 0.00656682 0.00108619 0.00582329 0.000805538 0.0250672 0.00145146 0.00935513 0.00222571 0.0299306 0.00222214 0.0211346 0.00326959 0.0334966 0.00210997 0.0257927 0.00244522 0.0525465
97 3 O 1.30497 89.0297 3.40574 -1.2 1 0.00239476 0.00392634 0.00151487 0.00639747 0.00171325 0.00592384 0.00222977 0.0247778 0.00183326 0.00911198 0.00272171 0.0286873 0.0020645 0.0216466 0.00323253 0.0334424 0.00234564 0.0260356 0.00344432 0.053668
98 3 O 1.27788 88.9623 5.96523 -1.2 1 0.001908 0.00404752 0.00141011 0.00628143 0.00138265 0.00546756 0.00108494 0.025011 0.0015857 0.00938855 0.00189756 0.0292153 0.00141928 0.0214482 0.00247849 0.0337976 0.00198671 0.0251377 0.00318458 0.0529712
99 1 Mg 0.15577 85.5155 3.15045 1.2 1 0.00143196 0.00417654 0.000353865 0.00674448 0.00093204 0.0055949 0.000637742 0.0245601 0.00114077 0.00999483 0.00102935 0.0303055 0.00111886 0.0211984 0.0015528 0.0332996 0.00182505 0.0256255 0.00179259 0.0517799
100 1 Mg 0.198148 82.6291 4.50812 1.2 1 0.000895099 0.00377837 0.00106905 0.00662506 0.00101985 0.00542234 0.00133851 0.0243404 0.00229883 0.0104317 0.00254357 0.029357 0.0025517 0.0216275 0.00328495 0.0345532 0.00273391 0.0257141 0.00362903 0.0515276
101 2 Si 2.27553 84.4971 4.57803 2.4 1 0.000710309 0.00365498 0.000864359 0.0074275 0.00160525 0.00602768 0.0015554 0.0243961 0.00159457 0.00980024 0.00224509 0.0286364 0.00193806 0.0217491 0.00362782 0.0338409 0.00284591 0.025259 0.00266314 0.0535327
102 3 O -0.901099 84.6574 4.67935 -1.2 1 0.000917815 0.00364282 0.0010039 0.00713463 0.00119846 0.00567914 0.00139833 0.024161 0.00255538 0.00954781 0.00150731 0.0293541 0.00161429 0.0207075 0.00233037 0.0342965 0.00217054 0.0252921 0.00211559 0.0526243
103 3 O 1.12538 80.7922 4.59911 -1.2 1 0.00153642 0.00407574 0.00177349 0.00690037 0.0011801 0.00609104 0.00127067 0.0244297 0.00180672 0.0100762 0.00225006 0.0296644 0.00213692 0.0211357 0.00293408 0.0343696 0.00294464 0.02555 0.00409836 0.0511349
104 3 O 1.55881 83.7619 3.27855 -1.2 1 0.000643153 0.00374365 0.00072136 0.0069235 0.00131255 0.0057278 0.00145921 0.0244452 0.00159042 0.0096493 0.00159197 0.028583 0.00188983 0.0214936 0.00238177 0.0341829 0.00182945 0.0256966 0.00191833 0.0516866
105 1 Mg -0.0422741 85.4183 0.102507 1.2 1 0.00123173 0.00371897 0.000507774 0.00687402 0.000908462 0.00570216 0.000855976 0.0247898 0.000965759 0.0094613 0.00126834 0.0294124 0.00181645 0.0206593 0.0019364 0.0322502 0.00216484 0.0263104 0.00224393 0.0509398
106 3 O 1.613 83.7823 5.80035 -1.2 1 0.00125045 0.00358384 0.00147551 0.00656621 0.00155603 0.00534535 0.00151665 0.0241459 0.00155186 0.010146 0.00199981 0.0287791 0.00242125 0.0215486 0.00335446 0.0349168 0.00233759 0.0252086 0.00299639 0.0530926
107 1 Mg 0.234265 88.394 1.63379 1.2 1 0.00250157 0.0039401 0.00106808 0.00678822 0.00108309 0.00579051 0.00102542 0.0246246 0.00174381 0.00938989 0.00207508 0.0292958 0.00181229 0.0213825 0.00302539 0.0326096 0.00289239 0.0262416 0.00380357 0.05258
108 2 Si -1.96242 86.5627 1.64852 2.4 1 0.0025603 0.00388466 0.000675058 0.00745394 0.00132655 0.00584977 0.00172495 0.0243017 0.00162281 0.00935046 0.00216351 0.0283109 0.00261616 0.0214419 0.00340484 0.0328408 0.00341333 0.0257951 0.00304566 0.0530882
109 3 O 1.2407 86.4895 1.65894 -1.2 1 0.00244958 0.00382481 0.000796829 0.00730072 0.00142383 0.00532473 0.00160622 0.0234959 0.00193974 0.00898807 0.00171761 0.0287712 0.00190806 0.0207258 0.00206958 0.0330872 0.00269639 0.0254594 0.00349863 0.0525007
110 3 O -0.810806 90.1881 1.69613 -1.2 1 0.00238549 0.00375651 0.00114039 0.00662958 0.00111438 0.00593086 0.00102455 0.0249769 0.00120355 0.00878959 0.0019135 0.0297302 0.00234492 0.0207571 0.00315572 0.0319785 0.00268383 0.0258079 0.00405575 0.0523913
111 3 O -1.45258 87.2369 0.342026 -1.2 1 0.00227212 0.00397656 0.000614886 0.00673113 0.00102569 0.00569269 0.00125799 0.0243937 0.00139791 0.00903926 0.00155264 0.028329 0.00268408 0.0214797 0.00258165 0.0327948 0.0032933 0.0258757 0.00306077 0.0519039
112 3 O -1.13285 87.2449 2.84894 -1.2 1 0.00221172 0.00384844 0.000993732 0.0066746 0.00148482 0.00550653 0.00135307 0.0245378 0.0015562 0.00894721 0.001323 0.0288981 0.00228975 0.0215884 0.00232025 0.0334135 0.00300417 0.0256884 0.00330684 0.0531425
113 1 Mg -2.37928 90.6749 0.268147 1.2 1 0.00226825 0.00391664 0.000764865 0.00674396 0.00099321 0.00579189 0.00071228 0.024358 0.000804648 0.00899592 0.00153528 0.0303509 0.0015479 0.0205458 0.00176152 0.0316254 0.00171408 0.025611 0.00304525 0.0513745
114 1 Mg 2.54339 93.5962 1.61371 1.2 1 0.000858525 0.00420043 0.00106634 0.0068703 0.00116796 0.00567922 0.00141737 0.0243683 0.00213667 0.00819514 0.00248371 0.029831 0.00224577 0.0207696 0.00342614 0.0323045 0.00291172 0.0259986 0.00320188 0.0525175
115 2 Si -0.145072 91.6798 1.68876 2.4 1 0.0013899 0.00387069 0.000944376 0.00742858 0.00166631 0.00623473 0.00134796 0.0242499 0.00118648 0.00818549 0.00230429 0.0283103 0.00252355 0.0214485 0.00324851 0.0320165 0.00333628 0.0254248 0.00369274 0.0536104
116 3 O 1.43176 91.5368 1.70447 -1.2 1 0.00169222 0.00390709 0.00127899 0.00703508 0.00125144 0.00587561 0.00111738 0.0240126 0.00160871 0.00826692 0.00140293 0.0298351 0.00208189 0.0205472 0.00203332 0.0320336 0.00214674 0.0253952 0.00354597 0.0529029
117 3 O -1.24364 95.3531 1.61115 -1.2 1 0.00153005 0.00418319 0.000904588 0.00728808 0.00128186 0.0066124 0.00113109 0.0245129 0.00145921 0.0080355 0.00203857 0.0305213 0.00182065 0.0199739 0.00299864 0.0323568 0.00273506 0.025957 0.00344108 0.0527078
118 3 O -0.863056 92.309 0.418097 -1.2 1 0.00107216 0.00400805 0.00128985 0.00692916 0.00154697 0.00561082 0.00162299 0.0243261 0.00135412 0.0077477 0.00156006 0.0287364 0.00229658 0.0206224 0.00238062 0.0324053 0.00244456 0.0260208 0.00271805 0.0525095
119 1 Mg -2.39514 101.185 2.96796 1.2 1 0.0034772 0.00400173 0.00162447 0.00710766 0.00195182 0.00659208 0.000975401 0.0241457 0.00143389 0.00843215 0.00140171 0.0305887 0.00223733 0.0197355 0.00219985 0.0335217 0.00237421 0.0271165 0.00370427 0.0515966