ITEM: TIMESTEP
61600
ITEM: NUMBER OF ATOMS
5600
ITEM: BOX BOUNDS xy xz yz pp pp pp
0	7.1235	0
0	201.985	2.3745
0	119.584	0
ITEM: ATOMS id type element xu yu zu q Q_1 Q_2 Q_3 Q_4 Q_5 Q_6 Q_7 Q_8 Q_9 Q_10 Q_11 Q_12 Q_13 Q_14 Q_15 Q_16 Q_17 Q_18 Q_19 Q_20 Q_21
1 1 Mg -1.74914 48.0454 -0.797322 1.2 1 0.244749 0.0789039 0.022982 0.0251553 0.00490489 0.0158762 0.00384704 0.0182554 0.00594032 0.0247991 0.00811522 0.0244096 0.00894232 0.0214915 0.0087701 0.0242343 0.00883631 0.021513 0.0109002 0.0232931
2 1 Mg 2.86235 49.4783 2.60346 1.2 1 0.195129 0.0704628 0.0137976 0.019023 0.003315 0.010645 0.00306987 0.0145994 0.00472776 0.0204694 0.00524152 0.0213432 0.00607975 0.019151 0.00552856 0.0220281 0.00758505 0.018877 0.00750329 0.0201747
3 2 Si 0.696037 49.7387 0.53629 2.4 1 0.199722 0.0714977 0.0144103 0.0198053 0.00270433 0.0112341 0.00207312 0.0157784 0.0047948 0.0218108 0.00563498 0.0217164 0.00595013 0.0200469 0.00593356 0.0231671 0.00702597 0.0188385 0.00779059 0.0209097
4 3 O 1.86838 48.7116 1.10172 -1.2 1 0.212329 0.0746458 0.0156509 0.0211907 0.00293256 0.011548 0.00301338 0.0159021 0.00574863 0.0224722 0.00592798 0.0219737 0.0067179 0.0205337 0.00776407 0.0232674 0.00799079 0.0202706 0.00869459 0.0203571
5 3 O -1.41811 52.7282 1.93357 -1.2 1 0.12258 0.0498248 0.00341422 0.0118229 0.00336306 0.00786285 0.00189819 0.0149835 0.00405459 0.0170264 0.00312685 0.0208158 0.00461747 0.0167222 0.0036168 0.0211363 0.00596531 0.0171862 0.0057923 0.0225977
6 3 O -0.162465 49.0189 -0.596548 -1.2 1 0.215986 0.0729661 0.0177996 0.0210783 0.0034431 0.013605 0.00282859 0.0173 0.00532693 0.0239224 0.00620492 0.0227524 0.00701286 0.0200515 0.0062678 0.0235503 0.00738107 0.020152 0.00860005 0.0221678
7 1 Mg -2.62063 58.5764 3.16134 1.2 1 0.00914584 0.012292 0.0049051 0.00741302 0.00228539 0.00560331 0.0018015 0.0185294 0.00332881 0.0131631 0.0021478 0.0242312 0.00295528 0.020714 0.00443269 0.025178 0.00501719 0.0210792 0.00432162 0.029905
8 3 O -0.155992 49.8269 1.81505 -1.2 1 0.188284 0.0694877 0.0123662 0.0181751 0.00261569 0.0108178 0.00200494 0.016372 0.00550909 0.0224233 0.00533009 0.0217913 0.00619694 0.0194959 0.00568408 0.0223224 0.00729604 0.0189233 0.00737855 0.0206684
9 1 Mg -2.7542 55.1009 4.81172 1.2 1 0.0673881 0.0375059 0.00365434 0.0086645 0.00280383 0.00574514 0.00153961 0.0166075 0.00432698 0.0155063 0.00260909 0.0211527 0.00476707 0.0175103 0.00400711 0.0213195 0.00611755 0.01867 0.00598262 0.0252799
10 2 Si 0.0270676 57.2006 4.47945 2.4 1 0.0237557 0.0214418 0.00782314 0.00715484 0.00295544 0.00556959 0.00229942 0.0172265 0.00335135 0.0129142 0.00211714 0.0227334 0.0044809 0.0190064 0.00446983 0.0236908 0.00655968 0.0194194 0.00591226 0.0283761
11 3 O -1.46814 57.5003 4.61004 -1.2 1 0.0187161 0.0190368 0.00749789 0.00732232 0.0032057 0.00542399 0.00256972 0.0174896 0.00354609 0.0124266 0.00276949 0.0228432 0.00464365 0.0197179 0.00448888 0.0241728 0.0066999 0.0198718 0.00610872 0.0295063
12 3 O 1.82279 52.8998 4.80471 -1.2 1 0.123888 0.0523364 0.00412895 0.0127949 0.00329593 0.00728806 0.0033648 0.0158625 0.00504796 0.0180902 0.00328708 0.0210333 0.00462855 0.0172795 0.00406949 0.0199105 0.0066844 0.0177693 0.00704461 0.0235243
13 3 O 0.769747 56.809 3.12245 -1.2 1 0.0265808 0.0221175 0.00750817 0.00662302 0.00294395 0.00519832 0.00186671 0.0176803 0.00427311 0.0133757 0.00250464 0.0223974 0.00357361 0.0188778 0.00452699 0.0234724 0.00556081 0.0196899 0.00538011 0.0279587
14 3 O 0.831879 56.5038 5.71499 -1.2 1 0.0327462 0.0256862 0.00724264 0.00738036 0.00283792 0.00594919 0.00176835 0.0170264 0.00343028 0.0131054 0.00224073 0.0226531 0.00406331 0.0186466 0.00432451 0.023427 0.00600882 0.019248 0.00550149 0.0287195
15 1 Mg 0.520356 52.1311 2.78454 1.2 1 0.132486 0.0556701 0.00387593 0.0138376 0.00317593 0.00889192 0.00241944 0.0147368 0.00493058 0.0183429 0.00374672 0.0207037 0.00500792 0.0173172 0.00413921 0.0204684 0.00623253 0.0174001 0.00631848 0.0213358
16 1 Mg 0.87342 48.4735 3.07491 1.2 1 0.22138 0.0742514 0.0199319 0.0224449 0.00445098 0.0117103 0.00329647 0.0163211 0.00509066 0.0230394 0.00575509 0.0223331 0.00684998 0.0205961 0.00743138 0.0225554 0.00840888 0.0210706 0.00897108 0.0205643
17 2 Si 2.56012 51.6023 4.57849 2.4 1 0.156559 0.060958 0.00935702 0.0151637 0.00425029 0.00832714 0.00384626 0.0144302 0.00470859 0.0193697 0.00375707 0.0212656 0.00525059 0.0175763 0.00400536 0.0200678 0.00659517 0.0185231 0.00693907 0.0218062
18 3 O -0.633162 51.793 4.65339 -1.2 1 0.146987 0.0577905 0.0083054 0.0146356 0.00437155 0.00783685 0.00362323 0.0137488 0.00465911 0.0182517 0.00341922 0.0207975 0.00510352 0.0176739 0.00424928 0.0193711 0.00708001 0.0177655 0.0067854 0.0220347
19 3 O 2.66404 47.644 3.45036 -1.2 1 0.235263 0.0787213 0.0223968 0.0244659 0.00528502 0.0127615 0.00457001 0.0164508 0.00553091 0.0229707 0.00638946 0.0224379 0.00739366 0.0208168 0.00703494 0.0214556 0.00807121 0.0212132 0.00860494 0.019857
20 3 O 1.88567 50.7619 3.30843 -1.2 1 0.161597 0.0627483 0.00883147 0.0147955 0.00388278 0.00866898 0.0031923 0.0152832 0.00532834 0.0204041 0.0049301 0.0214891 0.00556545 0.0181348 0.00472402 0.0203373 0.00679024 0.0182794 0.00687974 0.02126
21 1 Mg -0.080799 53.4747 0.373668 1.2 1 0.106101 0.0474844 0.000504574 0.0112664 0.0019035 0.00834721 0.00165409 0.0159529 0.00414199 0.0177955 0.00331825 0.0210988 0.00372578 0.0171203 0.00368243 0.0221258 0.00491642 0.0182962 0.00595295 0.0240104
22 3 O 2.24281 50.5145 5.70751 -1.2 1 0.168241 0.063766 0.0121669 0.0167387 0.00459655 0.00838895 0.00357759 0.0151662 0.00495071 0.020334 0.00376927 0.0215712 0.00582455 0.0181613 0.00425985 0.0200413 0.00713381 0.0185159 0.00741814 0.0222462
23 1 Mg -0.116628 56.3652 1.42758 1.2 1 0.0356903 0.0253096 0.00754336 0.00661847 0.00232042 0.00604214 0.00166923 0.0170152 0.00501856 0.0138113 0.0023724 0.0222313 0.00317039 0.0190245 0.00453077 0.0238137 0.00516886 0.0196967 0.0051072 0.0267576
24 2 Si -2.04614 54.2241 2.02587 2.4 1 0.0885231 0.0423365 0.00159246 0.00937662 0.00243701 0.00704328 0.00101848 0.0146528 0.00491926 0.0154703 0.00286506 0.0205206 0.00379919 0.0168775 0.00447119 0.0213357 0.00637116 0.0172657 0.00532325 0.0232997
25 3 O 1.04049 54.0747 1.90651 -1.2 1 0.0982772 0.0429801 0.00118962 0.0102336 0.0025705 0.00734625 0.00134808 0.0147373 0.00411883 0.0158296 0.00281635 0.020556 0.00451128 0.0170186 0.004378 0.0215081 0.00537868 0.0177273 0.00525159 0.0230002
26 3 O -1.21545 57.9706 1.41159 -1.2 1 0.0152905 0.0150279 0.00680114 0.00681264 0.0019478 0.00558079 0.00166616 0.0186225 0.00367728 0.0126922 0.00290429 0.0234144 0.00320866 0.0204888 0.00455704 0.0252198 0.0049621 0.0214721 0.0047069 0.0293534
27 3 O -1.67966 54.9011 0.654774 -1.2 1 0.0728306 0.0372691 0.00409125 0.0085278 0.00254041 0.00653594 0.00167265 0.0157756 0.00492236 0.0149089 0.00315337 0.0209383 0.00341391 0.0178276 0.00447349 0.0226747 0.00533686 0.0182841 0.00534536 0.0247802
28 3 O -1.39347 54.8936 3.42603 -1.2 1 0.0740965 0.0383122 0.00337639 0.00806395 0.00270955 0.00579689 0.00169355 0.0156807 0.00475671 0.0146959 0.00205666 0.0209897 0.0040921 0.0170849 0.0039584 0.0209403 0.00611712 0.0178552 0.00557706 0.0246278
29 1 Mg -2.55221 58.2719 0.077252 1.2 1 0.011353 0.0129483 0.00586588 0.00687074 0.00185459 0.00601499 0.00195747 0.0187165 0.00327335 0.012573 0.0025728 0.0237411 0.00371965 0.0203811 0.00483506 0.0258766 0.00476059 0.0214527 0.00484084 0.0299735
30 1 Mg 2.36037 61.5608 1.41689 1.2 1 0.00270131 0.0054637 0.00145122 0.00853704 0.000539885 0.00555505 0.00154503 0.0209007 0.00240335 0.0123493 0.00155819 0.0253635 0.0024622 0.02243 0.0030126 0.0284401 0.00343997 0.0235579 0.00355918 0.0343218
31 2 Si -0.580794 59.4728 1.69255 2.4 1 0.00582982 0.00871285 0.00373098 0.00844868 0.00155922 0.0058312 0.00169504 0.0181956 0.00284996 0.0122892 0.00268344 0.023296 0.00252708 0.0218717 0.00470923 0.025993 0.00454413 0.0216796 0.00445479 0.031339
32 3 O 0.880427 59.4993 1.76844 -1.2 1 0.0046426 0.00755801 0.00312816 0.00822415 0.00144512 0.0057322 0.0015895 0.0189949 0.00310234 0.0119852 0.0020404 0.023527 0.00332536 0.0212354 0.0043848 0.0266661 0.0044513 0.0222397 0.00462764 0.0318464
33 3 O -1.36117 63.5188 1.53467 -1.2 1 0.00564334 0.00528904 0.00137369 0.00892999 0.00138057 0.00568435 0.00154022 0.0213698 0.00191898 0.0118638 0.00253916 0.0259609 0.00229464 0.0216517 0.00403464 0.0287357 0.00369065 0.0235349 0.003997 0.0359944
34 3 O -1.19905 60.3895 0.33357 -1.2 1 0.00411235 0.00708655 0.00247299 0.00735094 0.000824978 0.00611016 0.00194168 0.0201041 0.0028526 0.012109 0.00232871 0.0239274 0.00215982 0.0221745 0.00372916 0.0280827 0.00393961 0.0231028 0.00374936 0.032117
35 1 Mg -2.36407 69.261 3.00212 1.2 1 0.00694007 0.00654415 0.00199536 0.00711713 0.00159935 0.00502381 0.00123797 0.0224482 0.00198315 0.0106786 0.00166854 0.0272954 0.00217114 0.0203909 0.00361212 0.0293605 0.00305386 0.0236166 0.00382791 0.0412647
36 3 O -1.36861 60.1095 2.85028 -1.2 1 0.00330908 0.00662691 0.00261966 0.00830477 0.00160957 0.00634438 0.00242799 0.0195562 0.00278951 0.0124352 0.00246025 0.0239343 0.0028173 0.0222445 0.0044212 0.0265756 0.00484915 0.0232417 0.00429646 0.0329701
37 1 Mg -2.33893 66.2031 4.73545 1.2 1 0.00821258 0.00529855 0.00163508 0.00888268 0.00167163 0.00555457 0.00158324 0.0222228 0.00208284 0.0116434 0.00282353 0.0270377 0.0025474 0.021757 0.00363479 0.0291812 0.00274636 0.0254352 0.00288195 0.0399011
38 2 Si 0.41207 68.1397 4.56615 2.4 1 0.00687055 0.00506122 0.00182054 0.00855228 0.00127396 0.00510797 0.00145698 0.0218956 0.00206079 0.0107478 0.00276973 0.0264223 0.00262913 0.0209804 0.00406656 0.0289889 0.00347846 0.0248022 0.00341557 0.0418836
39 3 O -1.07037 68.2296 4.47398 -1.2 1 0.00626083 0.00570445 0.00209574 0.00806624 0.000938038 0.00520632 0.0014789 0.0219384 0.00246545 0.0103847 0.00227787 0.0267282 0.00269381 0.0205298 0.00329396 0.0292479 0.00329889 0.024669 0.00274861 0.0415365
40 3 O 1.30774 64.38 4.60824 -1.2 1 0.00629028 0.00497349 0.00132241 0.00925039 0.00104143 0.00614319 0.00180789 0.022272 0.00140305 0.0121924 0.00252383 0.0266574 0.00186806 0.0220668 0.00282544 0.0283153 0.00298618 0.0252557 0.00306514 0.0381796
41 3 O 1.15474 67.4302 3.29679 -1.2 1 0.00770919 0.0058116 0.00216053 0.00780552 0.00135417 0.00511708 0.00159775 0.0222333 0.00170232 0.0109555 0.00217889 0.0263743 0.00273231 0.0214962 0.00334091 0.029424 0.00337033 0.0246044 0.00327738 0.0406124
42 3 O 1.12869 67.5222 5.79153 -1.2 1 0.0069554 0.0054004 0.00141814 0.008111 0.00128983 0.00546462 0.00264156 0.0230976 0.00203031 0.0107598 0.00249327 0.0271005 0.00218254 0.0213328 0.00338566 0.0294286 0.00276702 0.0260696 0.00275599 0.0420557
43 1 Mg 0.0461834 63.6366 2.85801 1.2 1 0.00613901 0.0052679 0.00107393 0.00890747 0.00093334 0.00606664 0.00117734 0.0213449 0.00112975 0.0117007 0.00217463 0.0261475 0.00212335 0.0218381 0.00293991 0.0287845 0.00261376 0.0246932 0.00311018 0.0366206
44 1 Mg -0.270778 60.9863 4.67044 1.2 1 0.003067 0.00451894 0.00257369 0.0092545 0.00166139 0.00629549 0.00240345 0.0199784 0.00194837 0.0120652 0.001914 0.0254934 0.00350514 0.0222702 0.00351447 0.0275481 0.00420156 0.0230308 0.00409677 0.0340305
45 2 Si 1.98315 62.8517 4.65913 2.4 1 0.00535577 0.00402815 0.00206351 0.0104407 0.00153049 0.0060101 0.00236092 0.0203042 0.00139575 0.0119263 0.00285818 0.0257057 0.00228705 0.0223494 0.00427642 0.0277402 0.00329272 0.0239002 0.00366797 0.0363384
46 3 O -1.17053 62.8219 4.60113 -1.2 1 0.00511069 0.00388257 0.00179452 0.0104478 0.00102897 0.00577016 0.0019482 0.0202609 0.00232427 0.0118963 0.00209671 0.0255916 0.002983 0.0222428 0.00368784 0.0286011 0.00330251 0.0238232 0.00334674 0.0365541
47 3 O 0.774784 58.8446 4.68905 -1.2 1 0.00772798 0.0109281 0.00474097 0.00822595 0.00305129 0.00626261 0.00272875 0.019165 0.00314548 0.0127158 0.00249407 0.0246028 0.00424498 0.0208656 0.00498403 0.0256543 0.00527069 0.0210989 0.00512652 0.0313562
48 3 O 1.38589 62.2843 3.29833 -1.2 1 0.00440682 0.00478485 0.00163403 0.00938251 0.00140323 0.00615238 0.00208951 0.020603 0.00137883 0.0118289 0.00189755 0.0247299 0.0027361 0.0226491 0.00285981 0.0286569 0.00261974 0.0243236 0.00312751 0.0354452
49 1 Mg -0.300638 64.2777 -0.103476 1.2 1 0.00537104 0.00537297 0.00188025 0.00790861 0.00181565 0.00594379 0.00148043 0.0223114 0.00172587 0.0121746 0.00171662 0.0261004 0.00206853 0.0214626 0.00283864 0.0293737 0.00327861 0.0241464 0.00354723 0.0375796
50 3 O 1.37326 62.1852 5.96465 -1.2 1 0.00520938 0.00340361 0.00200525 0.0101776 0.00123558 0.00612317 0.00296511 0.0210383 0.00178226 0.0121359 0.00260522 0.0258919 0.00308999 0.0225715 0.00355473 0.0285696 0.00297428 0.0240354 0.00427992 0.0374261
51 1 Mg -0.0168142 66.9314 1.57526 1.2 1 0.00758913 0.00614466 0.00247664 0.00747319 0.00197235 0.00518901 0.000982239 0.0224648 0.00260912 0.0115296 0.00331557 0.0267595 0.00216207 0.0213926 0.00356735 0.0295584 0.00386765 0.0238057 0.00398221 0.0397876
52 2 Si -2.31483 65.018 1.62212 2.4 1 0.00738204 0.00546825 0.00195719 0.00880511 0.00293091 0.00534007 0.00208779 0.021759 0.00196887 0.01153 0.00295739 0.0253878 0.00218363 0.0220974 0.00351911 0.0289966 0.0031294 0.0241918 0.00365756 0.0388454
53 3 O 0.896676 65.0206 1.5304 -1.2 1 0.0078215 0.00563606 0.00158697 0.00846656 0.00267176 0.00526299 0.0015927 0.0215184 0.00240071 0.0116771 0.00170027 0.02614 0.00232317 0.0219164 0.00365609 0.0291659 0.00323401 0.0239865 0.00361171 0.0386953
54 3 O -1.07451 68.7807 1.56051 -1.2 1 0.00813005 0.00602967 0.00201833 0.00746783 0.00275558 0.00486448 0.00174435 0.0222071 0.00237075 0.0108402 0.00164738 0.0266735 0.00275344 0.0204426 0.00403257 0.0289389 0.00307763 0.023177 0.00475801 0.0408072
55 3 O -1.81926 65.4234 0.040594 -1.2 1 0.00659293 0.00514964 0.00242478 0.00785087 0.00234564 0.00533918 0.00168064 0.0220348 0.00143668 0.0119707 0.00186066 0.0263979 0.0024754 0.0219265 0.00302685 0.0294201 0.00296035 0.0232475 0.00367634 0.0392225
56 3 O -1.56721 65.7283 2.64674 -1.2 1 0.00733319 0.00615472 0.00179595 0.00827852 0.00253194 0.00544721 0.00193374 0.0220911 0.00201589 0.0117095 0.00234168 0.0261662 0.00238347 0.0224659 0.00357411 0.0294378 0.00291145 0.024401 0.00307672 0.0395158
57 1 Mg -2.43853 69.3897 0.0486427 1.2 1 0.00769497 0.00602952 0.00232345 0.00679655 0.0025822 0.00497338 0.00140872 0.0225636 0.00185065 0.0112107 0.00162087 0.0271936 0.00251842 0.0200548 0.00406193 0.0291425 0.00313091 0.0230609 0.00442454 0.0410484
58 1 Mg 2.38223 71.9802 1.63276 1.2 1 0.00488888 0.00692323 0.0014531 0.00667801 0.00152324 0.00419429 0.0011501 0.0226562 0.00249732 0.0108992 0.00281929 0.026961 0.00261076 0.0205392 0.00325222 0.0310179 0.00367216 0.0239058 0.00349859 0.0438303
59 2 Si -0.364558 70.2435 1.5349 2.4 1 0.00657326 0.00627787 0.00185464 0.00774945 0.00329889 0.00423059 0.00215666 0.0216276 0.00266874 0.0100901 0.00222171 0.025848 0.00262835 0.0206256 0.00392189 0.0296521 0.00336588 0.0230908 0.00472632 0.0432526
60 3 O 1.23147 70.2347 1.4577 -1.2 1 0.00747978 0.00640217 0.00206533 0.00702665 0.00302146 0.004126 0.00151382 0.0221886 0.00241112 0.0100901 0.00182015 0.026256 0.00305296 0.0200673 0.00372417 0.0300091 0.00370374 0.0229034 0.00543243 0.0426743
61 3 O -1.42651 74.0561 1.48943 -1.2 1 0.00348286 0.00605965 0.00193204 0.00702145 0.00152922 0.0048056 0.00153479 0.0228237 0.00154638 0.010313 0.00159479 0.0271245 0.00238328 0.0198256 0.00386041 0.0306237 0.00271649 0.0232421 0.00414057 0.0449057
62 3 O -0.967311 70.9269 0.187021 -1.2 1 0.00716418 0.00647078 0.0022453 0.00670707 0.00295899 0.00416155 0.00142678 0.022481 0.00237652 0.010307 0.00165685 0.0256706 0.00288935 0.020758 0.0039606 0.0301485 0.00306064 0.0232393 0.00494899 0.0429515
63 1 Mg -2.38097 79.6892 3.18058 1.2 1 0.00475383 0.00592126 0.00122574 0.00682391 0.00122825 0.00512369 0.00193754 0.0210929 0.00228831 0.0117938 0.00221826 0.026893 0.00252654 0.0208859 0.00242015 0.0315196 0.00411691 0.0238128 0.0044376 0.0401822
64 3 O -1.05386 70.8481 2.84159 -1.2 1 0.00505722 0.00621206 0.00171401 0.00697484 0.00262268 0.00427823 0.00197644 0.0220955 0.00221238 0.010046 0.0018261 0.0261479 0.00255802 0.0206364 0.00347671 0.0307976 0.00289534 0.0233189 0.00341077 0.043081
65 1 Mg -2.27304 76.8061 4.54252 1.2 1 0.00480469 0.00583765 0.00171211 0.00717728 0.0014472 0.0045612 0.00179547 0.02179 0.00263549 0.0111076 0.00207536 0.0267996 0.0019206 0.020575 0.00271332 0.0312082 0.00427837 0.0236138 0.00423945 0.0425127
66 2 Si 0.33167 78.6347 4.61607 2.4 1 0.0061199 0.00562389 0.00166241 0.00771642 0.00255314 0.00450779 0.00178094 0.0211394 0.00229372 0.0108856 0.00267142 0.025526 0.00270669 0.0212289 0.0031713 0.0306223 0.00441893 0.0233089 0.00428973 0.0416972
67 3 O -1.23646 78.7004 4.65404 -1.2 1 0.00556873 0.00542048 0.00162662 0.00747772 0.0027644 0.00432732 0.00181679 0.0206472 0.00307836 0.0109804 0.0020555 0.0259162 0.00234707 0.0210834 0.00291311 0.0308148 0.00422011 0.0229479 0.0047146 0.0412085
68 3 O 1.2903 74.8235 4.57066 -1.2 1 0.00323485 0.00585733 0.000787596 0.00747459 0.00134949 0.00467236 0.0011046 0.0223623 0.00144802 0.0106461 0.00145466 0.0265896 0.00170565 0.02011 0.0026015 0.0297312 0.00322732 0.0236558 0.00322383 0.0432835
69 3 O 1.04015 78.0158 3.43478 -1.2 1 0.00430687 0.00600438 0.00212761 0.00685257 0.00206944 0.00424256 0.00173963 0.021372 0.00240268 0.0104063 0.00207548 0.025707 0.00278529 0.0207667 0.00288082 0.0319181 0.00435289 0.0233602 0.00424356 0.0419261
70 3 O 1.06219 78.2392 6.05048 -1.2 1 0.00607527 0.00571631 0.00177379 0.00738561 0.00237385 0.00493495 0.00148865 0.021767 0.00226484 0.01127 0.00201867 0.0261396 0.00282071 0.0209873 0.00295404 0.0305138 0.00428042 0.0233576 0.00408984 0.040831
71 1 Mg 0.117042 74.3003 2.94346 1.2 1 0.00207942 0.00596242 0.00124083 0.00694276 0.000692603 0.00511225 0.00118834 0.0220573 0.00126996 0.0105995 0.00113122 0.0273093 0.00147538 0.0200131 0.00251619 0.0303896 0.00204401 0.0234394 0.00251436 0.0435722
72 1 Mg -0.152945 71.5853 4.45702 1.2 1 0.00303118 0.00589023 0.00110051 0.0066778 0.000789314 0.00441015 0.00175827 0.0220837 0.0021186 0.00990792 0.00148605 0.0273655 0.00214519 0.0202819 0.00256324 0.0300822 0.00340426 0.0237619 0.00287005 0.0435438
73 2 Si 2.00285 73.4086 4.5543 2.4 1 0.00237506 0.00569124 0.00110378 0.00765571 0.00203887 0.00418278 0.00117207 0.0215251 0.00186962 0.00985287 0.00240917 0.0263416 0.00243167 0.0205473 0.00325685 0.0295573 0.00387264 0.0232578 0.00313431 0.0441965
74 3 O -1.17604 73.4219 4.46704 -1.2 1 0.00235049 0.00559591 0.00112194 0.00742209 0.00118496 0.00399947 0.0015759 0.0216701 0.00283992 0.00992536 0.0015175 0.0266802 0.0025218 0.0202787 0.00320146 0.0299197 0.00455168 0.0233569 0.00341343 0.0442181
75 3 O 1.19997 69.657 4.46089 -1.2 1 0.00444441 0.0059494 0.00201556 0.00739034 0.000871414 0.00518865 0.00124463 0.0225016 0.00144529 0.0103859 0.00288126 0.027349 0.0025594 0.0200142 0.00336554 0.0290981 0.00359068 0.0240983 0.00297525 0.042802
76 3 O 1.39835 72.7377 3.3614 -1.2 1 0.00241698 0.00606617 0.00101936 0.00713729 0.000952685 0.00427002 0.00112843 0.0219256 0.00181225 0.00990806 0.00212508 0.0263858 0.00194014 0.0203511 0.0028911 0.0300992 0.00355107 0.0235183 0.00256044 0.0436426
77 1 Mg -0.000715435 74.8483 0.135759 1.2 1 0.00297695 0.00594656 0.00148004 0.00648349 0.00168212 0.004383 0.00169204 0.0224629 0.00112814 0.010136 0.0015182 0.0267792 0.00206322 0.0196954 0.00302822 0.0314946 0.00264401 0.0234141 0.00321732 0.043834
78 3 O 1.47342 72.6825 5.82954 -1.2 1 0.00252651 0.0062088 0.00149331 0.00694716 0.00147445 0.00451563 0.0014972 0.0223791 0.00225428 0.00981656 0.00187364 0.0262989 0.00235724 0.0204507 0.0027776 0.0299581 0.00328375 0.024416 0.00330687 0.043998
79 1 Mg 0.213539 77.3939 1.70757 1.2 1 0.00230042 0.00571303 0.00197144 0.0069525 0.00110834 0.00455143 0.00186209 0.0219384 0.00263901 0.0103657 0.00208513 0.0261658 0.00219962 0.0206799 0.00266144 0.0319996 0.00366594 0.0240876 0.00405465 0.0432324
80 2 Si -2.10589 75.6264 1.58779 2.4 1 0.00169082 0.00574639 0.00178128 0.00751231 0.00167567 0.0045215 0.00202136 0.021911 0.00176175 0.00957878 0.00235764 0.0256687 0.00233167 0.020426 0.00339184 0.0312225 0.00344998 0.0233136 0.00426049 0.0448705
81 3 O 1.17511 75.5073 1.70791 -1.2 1 0.00155254 0.0057572 0.00185397 0.00693117 0.0014561 0.00429551 0.00163946 0.0222041 0.00231833 0.00983336 0.00164143 0.0263729 0.00188344 0.0200636 0.00310822 0.0313139 0.00341993 0.0235115 0.00415681 0.0440357
82 3 O -0.930678 79.3575 1.74446 -1.2 1 0.00273169 0.00568677 0.00188497 0.0071038 0.00109573 0.00501661 0.00173326 0.021964 0.00210391 0.0113216 0.00278854 0.0261755 0.00305196 0.0203803 0.00371928 0.0308223 0.00424359 0.0241401 0.00504225 0.0413691
83 3 O -1.42022 76.3406 0.394203 -1.2 1 0.00164393 0.00610053 0.00179769 0.00660199 0.00180173 0.00397844 0.00210025 0.022186 0.00186845 0.00998827 0.00187265 0.0260747 0.00276873 0.0201676 0.00287205 0.031921 0.00324213 0.0236792 0.00442512 0.0440443
84 3 O -1.4118 76.089 2.93412 -1.2 1 0.00314773 0.0056432 0.00158322 0.00680796 0.00130517 0.00434707 0.00237898 0.0223238 0.00166998 0.00997191 0.00175034 0.0260091 0.00181651 0.0205405 0.00279026 0.0317937 0.00328474 0.0238943 0.00344956 0.043686
85 1 Mg -2.34455 80.1071 -0.00247406 1.2 1 0.00125109 0.00493974 0.00189473 0.00704638 0.00112142 0.00518881 0.0021893 0.0209536 0.00217663 0.0114737 0.00248406 0.026314 0.00294892 0.0199425 0.00287289 0.0312099 0.00372029 0.0238259 0.00556438 0.04012
86 1 Mg 2.39026 82.7089 1.60915 1.2 1 0.00431029 0.00503787 0.000715319 0.007279 0.00130923 0.00586897 0.0020807 0.0210398 0.00265821 0.0127319 0.00172459 0.0255237 0.00279582 0.0216616 0.00301683 0.0318686 0.00369297 0.0246785 0.00403361 0.0394168
87 2 Si -0.215072 80.8261 1.63849 2.4 1 0.00368492 0.00511834 0.00094608 0.00800712 0.00150552 0.00516637 0.00203215 0.0208253 0.00214371 0.0113398 0.00285993 0.0246951 0.00292231 0.0212097 0.00364665 0.0311009 0.00485229 0.0242828 0.00549105 0.0404133
88 3 O 1.33211 80.8408 1.64366 -1.2 1 0.003897 0.00514847 0.000998911 0.00788235 0.00133293 0.00483456 0.00173903 0.0198792 0.00268842 0.0112084 0.00235189 0.0250974 0.00267519 0.0209672 0.0025265 0.0316938 0.00423832 0.0239525 0.00481219 0.0405196
89 3 O -1.2988 84.5826 1.45264 -1.2 1 0.00502114 0.00491564 0.00154086 0.00720061 0.00103726 0.00676918 0.0011422 0.0210537 0.00130233 0.0127709 0.00262708 0.0254168 0.00211237 0.0213231 0.0022667 0.0314101 0.00292715 0.0242597 0.00347817 0.0378612
90 3 O -0.785924 81.4778 0.408601 -1.2 1 0.00246349 0.00492071 0.00131659 0.00758504 0.00149899 0.00555038 0.00208719 0.0208596 0.0019886 0.0111106 0.00236636 0.0248014 0.00307263 0.0212654 0.00265794 0.0321997 0.00361874 0.02458 0.0048296 0.0400342
91 1 Mg -2.62864 90.4286 2.6231 1.2 1 0.00736156 0.00485209 0.00278127 0.00601169 0.00165667 0.0063978 0.00185279 0.0203607 0.00200701 0.0104696 0.0029644 0.0251638 0.00378578 0.0195436 0.00327128 0.0299217 0.00292125 0.0234223 0.00665959 0.0362417
92 3 O -0.847085 81.8091 2.90217 -1.2 1 0.00464321 0.00595667 0.000916544 0.00743403 0.00104968 0.00559371 0.00152794 0.0209203 0.00166432 0.0119072 0.00233226 0.0250563 0.00273894 0.0213165 0.00276015 0.0314512 0.00367735 0.0238853 0.00431624 0.0390612
93 1 Mg -2.1035 87.4688 4.42188 1.2 1 0.00694306 0.00513958 0.0026423 0.00643729 0.00147413 0.00644209 0.00241871 0.0210168 0.0020172 0.0115747 0.0031875 0.0253819 0.00275132 0.0199596 0.00311593 0.0313787 0.00338398 0.0250451 0.00468919 0.0374648
94 2 Si 0.253189 89.3013 4.0988 2.4 1 0.00771832 0.00489442 0.00268952 0.0069818 0.00159974 0.00615166 0.00256611 0.0203947 0.00181701 0.01069 0.00300115 0.0243445 0.00351495 0.0199097 0.00458749 0.0304066 0.00280309 0.0244403 0.00603302 0.037702
95 3 O -1.32955 89.4744 4.08553 -1.2 1 0.00716786 0.00503062 0.00294704 0.00681047 0.00163935 0.00594573 0.00177471 0.0198576 0.00264711 0.0101842 0.00270348 0.0245535 0.00379411 0.0197065 0.00403971 0.0303833 0.00327538 0.0237988 0.00627055 0.0374024
96 3 O 1.51311 85.5119 4.39338 -1.2 1 0.00644832 0.0051239 0.00233595 0.0068226 0.00135469 0.00625328 0.00204606 0.0216135 0.000974749 0.0118812 0.00201858 0.0258015 0.00261508 0.0202151 0.00318856 0.0311921 0.00312533 0.0244286 0.00338956 0.0380019
97 3 O 0.849798 88.7385 2.72134 -1.2 1 0.00725451 0.00469529 0.00274333 0.00628837 0.0016261 0.00619023 0.00184146 0.0205977 0.00171615 0.0112372 0.00267773 0.0244699 0.00347064 0.0201846 0.00348971 0.0306221 0.00248216 0.0240694 0.0058145 0.0369939
98 3 O 1.1397 88.6379 5.15402 -1.2 1 0.00666692 0.00542908 0.00281411 0.00649301 0.00146567 0.00640061 0.0032127 0.0206956 0.00211653 0.0104759 0.00324179 0.025016 0.00329935 0.0201162 0.00354227 0.0310387 0.00257521 0.0248701 0.00458956 0.0380836
99 1 Mg 0.166125 84.785 2.8578 1.2 1 0.00578616 0.00515477 0.00169841 0.00672047 0.000900613 0.00714339 0.0014006 0.0213788 0.00103921 0.0130113 0.00228337 0.0263091 0.00190975 0.0207752 0.00209307 0.0309221 0.00288008 0.0242024 0.00331041 0.0373628
100 1 Mg 0.123825 82.2972 4.63315 1.2 1 0.00569689 0.00613876 0.00151135 0.00740682 0.00161864 0.00599188 0.00154812 0.0213029 0.00234012 0.0119588 0.00247412 0.0258445 0.00249215 0.0214174 0.00352652 0.0310081 0.00415742 0.0242511 0.00507566 0.038735
101 2 Si 2.18604 83.9853 4.4559 2.4 1 0.00605806 0.00582023 0.00192433 0.00807193 0.00191816 0.00576637 0.00271727 0.0204897 0.00125491 0.0118782 0.0022329 0.0250198 0.00248221 0.0211159 0.00424001 0.0309971 0.00401969 0.0239287 0.00420485 0.0386715
102 3 O -0.936834 84.0599 4.61387 -1.2 1 0.00614923 0.0056725 0.00178498 0.00774204 0.0018287 0.0057115 0.00203864 0.0207281 0.00185829 0.012339 0.00210646 0.0254907 0.0020099 0.020786 0.00302713 0.0309486 0.00351479 0.0239335 0.00426558 0.0383874
103 3 O 0.981471 80.2125 4.51833 -1.2 1 0.00585374 0.00655201 0.00124013 0.00732736 0.00157704 0.00554054 0.00142422 0.0214501 0.00215224 0.0123404 0.00264486 0.0262107 0.00267882 0.0211653 0.00328237 0.0305291 0.00453058 0.0235453 0.00490917 0.0393065
104 3 O 1.59389 83.301 3.25947 -1.2 1 0.0054928 0.00568594 0.00132053 0.00738968 0.00146741 0.00588283 0.00171321 0.0207917 0.00157214 0.0120582 0.00191306 0.0252413 0.00223054 0.0213693 0.0031861 0.0317562 0.00359895 0.0245111 0.0040606 0.03805
105 1 Mg 0.0265677 85.1386 -0.152003 1.2 1 0.00441953 0.00484853 0.00108043 0.00667907 0.0016182 0.00630668 0.000894161 0.0202159 0.0013439 0.0127042 0.00131328 0.0251924 0.00128969 0.0209218 0.00179948 0.0312621 0.00280569 0.0235077 0.00297731 0.037229
106 3 O 1.61535 83.1257 5.87647 -1.2 1 0.00524326 0.00631144 0.00151217 0.00743536 0.00177686 0.00612803 0.00195054 0.0211357 0.00186053 0.0117478 0.00185547 0.0254444 0.00176522 0.0213944 0.00343159 0.0308331 0.00452559 0.0234579 0.00453958 0.0383722
107 1 Mg -0.0785802 87.9202 1.15274 1.2 1 0.00644395 0.00449307 0.00264237 0.00618836 0.00189703 0.00626686 0.00159746 0.0202264 0.00225944 0.0117495 0.00296287 0.0245139 0.00298541 0.0204122 0.00288148 0.0307734 0.00300878 0.0232794 0.00528249 0.0362188
108 2 Si -1.98798 86.0571 1.49839 2.4 1 0.00638412 0.00442623 0.00202604 0.00737675 0.00201251 0.00652274 0.00167401 0.019659 0.00181791 0.0121225 0.00314876 0.0242021 0.00276337 0.021403 0.00379599 0.0311624 0.00328582 0.0236633 0.00440264 0.0372749
109 3 O 1.23538 85.9623 1.5885 -1.2 1 0.00576087 0.00457912 0.0019543 0.00694762 0.00181427 0.00619025 0.00150812 0.0197308 0.00222428 0.0121314 0.00194761 0.0248013 0.00214772 0.0207606 0.00262799 0.0311478 0.00251553 0.0235724 0.00353948 0.0374049
110 3 O -1.23668 89.936 1.05805 -1.2 1 0.00681085 0.0044255 0.00292585 0.00624913 0.00173219 0.00659162 0.00170356 0.020326 0.00235264 0.0109199 0.00243896 0.0244849 0.00367957 0.019813 0.00348665 0.0299565 0.00247849 0.0234442 0.00643883 0.0365377
111 3 O -1.48654 86.6843 0.0369468 -1.2 1 0.00569029 0.00472149 0.00204252 0.00654152 0.00200943 0.00643861 0.00117093 0.0202811 0.0019657 0.012177 0.00198497 0.0240556 0.00254289 0.0210715 0.00210787 0.032019 0.00256342 0.0236567 0.00378158 0.0376267
112 3 O -1.28276 86.7057 2.67667 -1.2 1 0.00691085 0.004441 0.00243666 0.00663038 0.00225977 0.00622995 0.00298825 0.0200759 0.00220494 0.0117194 0.003003 0.0240838 0.00239738 0.0206545 0.00292914 0.0314719 0.00366091 0.0242743 0.0040739 0.0369685
113 1 Mg -2.49524 90.6714 -0.495076 1.2 1 0.0057941 0.00464622 0.00281674 0.00612088 0.00173827 0.00679959 0.00144558 0.0204659 0.00229761 0.0111337 0.00274398 0.02479 0.00311205 0.0201369 0.00303446 0.0291564 0.0032568 0.0226104 0.00649606 0.0379346
114 1 Mg 2.21543 93.2515 1.06546 1.2 1 0.00575815 0.00586608 0.00174831 0.00672979 0.00134872 0.00676611 0.00142157 0.0207375 0.00227562 0.0103361 0.00282539 0.0245161 0.00313864 0.0213203 0.00376088 0.0303892 0.00374397 0.0238348 0.00604252 0.0384379
115 2 Si -0.628298 91.3949 0.970822 2.4 1 0.0068496 0.0045668 0.00254653 0.00680399 0.00218259 0.00673305 0.00176595 0.0198433 0.00280674 0.0103034 0.00282459 0.0239199 0.00430911 0.0207916 0.00374402 0.0296503 0.0034755 0.022859 0.00750383 0.0376792
116 3 O 0.93445 91.3804 1.01315 -1.2 1 0.00682694 0.00473234 0.00242566 0.00637524 0.00203522 0.00654954 0.00150764 0.0197746 0.0024126 0.00980164 0.00241581 0.0240182 0.00415059 0.0200679 0.00415127 0.030006 0.00412026 0.0228458 0.00732222 0.0371374
117 3 O -1.74135 95.1676 1.33823 -1.2 1 0.00490577 0.00580497 0.00121869 0.00682549 0.00116263 0.00670228 0.00135012 0.0214317 0.00192146 0.0103585 0.00283839 0.0253005 0.00385577 0.0204804 0.00449981 0.0295247 0.00378809 0.0244845 0.00494268 0.0388663
118 3 O -1.17812 92.015 -0.386276 -1.2 1 0.00457406 0.00544129 0.00200033 0.00615851 0.00186674 0.00676975 0.00145261 0.0209122 0.00201697 0.0104835 0.00290086 0.024516 0.00343914 0.0214391 0.00430058 0.0302288 0.00393961 0.0233107 0.00669737 0.0380844
119 1 Mg -2.56115 100.812 2.74583 1.2 1 0.00465854 0.00387926 0.000939226 0.00582458 0.00129761 0.00529153 0.00116912 0.0228391 0.00168162 0.0116342 0.00200582 0.0265104 0.00284509 0.0214827 0.00300775 0.0302767 0.00299068 0.0252404 0.00292244 0.0404081