ITEM: TIMESTEP
66000
ITEM: NUMBER OF ATOMS
5600
ITEM: BOX BOUNDS xy xz yz pp pp pp
0	7.1235	0
0	201.985	2.3745
0	119.584	0
ITEM: ATOMS id type element xu yu zu q Q_1 Q_2 Q_3 Q_4 Q_5 Q_6 Q_7 Q_8 Q_9 Q_10 Q_11 Q_12 Q_13 Q_14 Q_15 Q_16 Q_17 Q_18 Q_19 Q_20 Q_21
1 1 Mg -2.039 48.2247 -0.781271 1.2 1 0.236692 0.0767982 0.0197934 0.024512 0.00564194 0.0117341 0.00283836 0.0164265 0.00461521 0.0207231 0.0067648 0.0254775 0.00605889 0.0223479 0.00735729 0.0261804 0.00873033 0.0209484 0.00797091 0.0301104
2 1 Mg 2.83248 50.978 2.12284 1.2 1 0.16446 0.0636526 0.00627013 0.016886 0.00224247 0.00907166 0.00190667 0.0174667 0.00421655 0.0169325 0.00534247 0.0258633 0.0053745 0.0203195 0.00571684 0.024169 0.00503834 0.0200045 0.00763199 0.0318461
3 2 Si 0.631513 50.0285 0.233804 2.4 1 0.186603 0.0687028 0.0091512 0.0196518 0.00346942 0.00944895 0.00224034 0.0164403 0.00430328 0.0184517 0.00533385 0.025409 0.00541987 0.021738 0.00621854 0.0241927 0.00548033 0.0181692 0.00774413 0.0304455
4 3 O 1.46566 48.8012 0.433988 -1.2 1 0.216061 0.0751429 0.0151305 0.0235199 0.00380401 0.0109293 0.00287054 0.016351 0.00453481 0.0194641 0.00582277 0.0256697 0.00664016 0.0219987 0.00732868 0.0245059 0.00745506 0.0198054 0.00844761 0.0306369
5 3 O -1.68415 52.8778 1.91503 -1.2 1 0.122586 0.050251 0.0015709 0.0130994 0.00142744 0.00890343 0.00230972 0.0171685 0.00383275 0.014934 0.00371937 0.0255747 0.00384417 0.018991 0.00431659 0.0245342 0.0046908 0.0195749 0.00644251 0.0318577
6 3 O -0.420273 49.477 -0.872301 -1.2 1 0.202058 0.0702021 0.0120534 0.0201039 0.00395845 0.00844326 0.00178358 0.0165692 0.00442944 0.0187206 0.00599413 0.0244809 0.00522535 0.0228426 0.00659591 0.0260422 0.00696778 0.01945 0.00619191 0.0294004
7 1 Mg -2.22324 58.5262 3.35649 1.2 1 0.0169689 0.0153338 0.0065578 0.00684051 0.000971962 0.00662721 0.00211362 0.019851 0.00338342 0.0113159 0.00192292 0.026328 0.00295692 0.0192721 0.00376661 0.0264279 0.0046248 0.0224413 0.00420705 0.0347703
8 3 O -0.335931 50.3956 1.46655 -1.2 1 0.17435 0.0668219 0.00619462 0.0185429 0.0022572 0.00937533 0.00316939 0.0168256 0.00427752 0.0172532 0.00511002 0.0258662 0.00430874 0.0202977 0.00510553 0.0241336 0.00568692 0.0183646 0.00785518 0.0314705
9 1 Mg -2.54208 55.5862 4.75607 1.2 1 0.0696293 0.0362845 0.006082 0.00996526 0.00120769 0.0069883 0.00223241 0.0183084 0.00253296 0.0128333 0.00352054 0.0260212 0.00335443 0.0191904 0.00532315 0.0234918 0.00376162 0.0209586 0.00625345 0.0332532
10 2 Si 0.346691 57.6749 4.81513 2.4 1 0.0248413 0.0191054 0.00823625 0.0077943 0.000890502 0.00687235 0.00223022 0.0194732 0.00289292 0.0102465 0.00288785 0.0256514 0.00366744 0.0202453 0.00503987 0.0255629 0.00510183 0.0221055 0.00490822 0.0345809
11 3 O -1.14001 57.842 4.73305 -1.2 1 0.0218792 0.0179123 0.00816669 0.00709549 0.00171277 0.00659146 0.00237153 0.0197208 0.00280569 0.0106071 0.00238383 0.0255214 0.00275772 0.0195495 0.0038194 0.0262064 0.00473219 0.0220644 0.00467572 0.0351794
12 3 O 1.09198 53.9438 4.71748 -1.2 1 0.105147 0.0480729 0.00235262 0.0126551 0.00194937 0.0076531 0.00229652 0.0177071 0.00319919 0.0145348 0.00418532 0.0261165 0.00423431 0.0199355 0.00459917 0.0230237 0.00455849 0.0211215 0.00648039 0.0326911
13 3 O 1.16147 56.9389 3.63554 -1.2 1 0.0423672 0.0270528 0.0080928 0.00778002 0.00099075 0.00657681 0.00236128 0.0189269 0.00283941 0.0114512 0.00202964 0.0252362 0.00315789 0.0192856 0.00408511 0.0250468 0.00361073 0.0217444 0.00580738 0.0337728
14 3 O 0.934372 57.0594 6.12274 -1.2 1 0.0378189 0.0250413 0.00843845 0.00704042 0.00108214 0.00662419 0.00164484 0.0194857 0.00242129 0.0108995 0.00213844 0.0256723 0.0034045 0.0197075 0.0049222 0.025072 0.00468618 0.0216321 0.00489896 0.034048
15 1 Mg -0.244028 53.4078 3.04703 1.2 1 0.112468 0.0485945 0.00172567 0.0127122 0.00134299 0.00822408 0.00255833 0.0168307 0.00378163 0.0140493 0.0038347 0.0262236 0.00417644 0.0188226 0.00467593 0.0232251 0.0039988 0.0197764 0.00706478 0.031867
16 1 Mg 0.496005 49.7158 3.23924 1.2 1 0.199991 0.0743339 0.0109756 0.0220213 0.00290896 0.0101122 0.00219264 0.0173342 0.00473886 0.0177292 0.00600411 0.0262819 0.00609894 0.0210388 0.0052734 0.0234589 0.0061668 0.0196084 0.00910152 0.0328892
17 2 Si 1.66862 52.3757 4.70828 2.4 1 0.14509 0.0589496 0.00285822 0.0160046 0.00235907 0.00829859 0.0024055 0.0165317 0.00339131 0.0146855 0.00563357 0.026309 0.00577215 0.0201281 0.00578732 0.0226415 0.00462332 0.0203349 0.00708703 0.0331241
18 3 O -1.50431 52.5481 4.96871 -1.2 1 0.134029 0.0571369 0.00119683 0.0150021 0.00198659 0.00771329 0.00238916 0.016786 0.00308076 0.0148339 0.00503958 0.0267985 0.00522201 0.0203507 0.00513514 0.02255 0.00557934 0.0203261 0.00732119 0.0339511
19 3 O 2.32606 49.3902 3.52423 -1.2 1 0.20936 0.0750231 0.0133334 0.0227029 0.00369301 0.0103737 0.00222167 0.017149 0.00503805 0.0186522 0.00639421 0.027017 0.00782232 0.0219235 0.00648904 0.0234362 0.0069092 0.0209958 0.00852688 0.0326464
20 3 O 1.02374 51.8493 3.43061 -1.2 1 0.147085 0.0592071 0.00361633 0.0155427 0.00218886 0.0086299 0.00232426 0.016871 0.00352956 0.0157188 0.00446495 0.0256472 0.00490175 0.0196939 0.00539208 0.0233954 0.00474725 0.0195401 0.00719253 0.0323102
21 1 Mg 0.0325273 53.6908 -0.187966 1.2 1 0.106388 0.0453714 0.00190235 0.0119193 0.00219821 0.00760947 0.00220445 0.0161223 0.00346087 0.0156164 0.00329552 0.0247604 0.00430494 0.020445 0.00502053 0.0250201 0.00492384 0.0193789 0.00605092 0.030833
22 3 O 0.93152 51.7711 6.00349 -1.2 1 0.149278 0.0606819 0.00286361 0.0161876 0.00238085 0.00831055 0.00255242 0.0176927 0.00337536 0.0155182 0.00615816 0.0267042 0.00667629 0.0207885 0.00595898 0.0232796 0.00521171 0.0205499 0.00651077 0.0333945
23 1 Mg -0.157223 56.4412 1.86349 1.2 1 0.0506484 0.02898 0.00693322 0.00827514 0.0014032 0.00684839 0.00189715 0.0175167 0.0036424 0.0122757 0.00272917 0.0257339 0.00355214 0.0190289 0.00465517 0.0251353 0.00465527 0.0211074 0.00659321 0.0327411
24 2 Si -2.29908 54.328 1.64776 2.4 1 0.0942528 0.0426608 0.0026295 0.0110665 0.00158187 0.00764252 0.00286526 0.0168791 0.00398418 0.0140546 0.00341305 0.0251266 0.00354886 0.0186687 0.00452989 0.0242844 0.00429954 0.019209 0.00619663 0.0318268
25 3 O 0.911046 54.2622 1.57754 -1.2 1 0.0977009 0.0421339 0.00215843 0.0112324 0.0013277 0.00789153 0.00241433 0.0158097 0.00363118 0.013313 0.00337443 0.0247722 0.00432666 0.0182419 0.00486048 0.0246659 0.00362456 0.0196709 0.00655527 0.0314672
26 3 O -0.895691 58.238 1.86156 -1.2 1 0.0203658 0.0166191 0.00744502 0.00683849 0.00139938 0.00644568 0.00200938 0.0200253 0.00348498 0.0115883 0.00290904 0.0258191 0.00328934 0.0191297 0.00415336 0.0262283 0.0050433 0.0229197 0.00560377 0.034556
27 3 O -1.55465 54.9288 0.439395 -1.2 1 0.0767238 0.0370131 0.00464527 0.00896308 0.00216413 0.00750403 0.00192746 0.017187 0.00418544 0.0139731 0.00385006 0.024744 0.00389012 0.0193401 0.00462745 0.0250269 0.00503943 0.0209883 0.00599281 0.0320495
28 3 O -1.51479 55.1252 2.99201 -1.2 1 0.076941 0.0379741 0.00496961 0.00984459 0.00173878 0.00756604 0.00238935 0.0173921 0.00358411 0.0131843 0.00340438 0.0252492 0.003065 0.0194019 0.00480436 0.0244054 0.00411593 0.0210453 0.00681239 0.0321507
29 1 Mg -2.09812 58.8014 0.318795 1.2 1 0.0117832 0.0117225 0.00495222 0.00678145 0.000999672 0.00663779 0.00197872 0.0199214 0.00307107 0.0124175 0.00252131 0.0263764 0.00410044 0.0196861 0.00336951 0.0274077 0.00564119 0.0228854 0.0053672 0.0350266
30 1 Mg 2.26696 61.6936 1.95063 1.2 1 0.0023129 0.00484331 0.0018086 0.00746082 0.00120742 0.0068878 0.00175848 0.0219975 0.00266471 0.0116206 0.00242919 0.0267112 0.00241752 0.0205411 0.00400567 0.0285481 0.00434688 0.0238181 0.00333391 0.0366917
31 2 Si -0.179043 59.7572 1.83513 2.4 1 0.00658872 0.00796303 0.00379577 0.00805227 0.00136753 0.00662353 0.00175805 0.0203668 0.0025342 0.0111147 0.00302611 0.0255375 0.00329548 0.0205131 0.00359849 0.0278539 0.00469337 0.0237105 0.00352426 0.0369697
32 3 O 1.35631 59.622 1.69154 -1.2 1 0.00745422 0.00821629 0.00417417 0.00770931 0.00108577 0.00634582 0.0017639 0.0196944 0.00320481 0.0108506 0.00234192 0.0261195 0.00300321 0.0196618 0.00337973 0.0275755 0.00416058 0.0227193 0.00449532 0.0365003
33 3 O -1.32224 63.4363 1.80439 -1.2 1 0.00201915 0.00469618 0.000926103 0.00771473 0.00119993 0.00594073 0.00123295 0.0225217 0.00156674 0.0115522 0.00208015 0.0259244 0.00208044 0.0198055 0.0033595 0.0283731 0.003321 0.0237256 0.00358057 0.0366738
34 3 O -0.874796 60.4114 0.5702 -1.2 1 0.00472584 0.00669729 0.00252267 0.00728503 0.00104478 0.00632959 0.00201737 0.0212475 0.00189207 0.0114792 0.00252346 0.025909 0.00313791 0.0201356 0.00367351 0.0279022 0.00474634 0.0238846 0.00375769 0.0368726
35 1 Mg -2.27436 69.7908 3.50299 1.2 1 0.00261447 0.00230908 0.000823892 0.00720513 0.00110475 0.00639591 0.00140405 0.0213679 0.00113277 0.0105193 0.00178172 0.0259532 0.00204568 0.0199584 0.00233724 0.0291555 0.00253249 0.0218501 0.00292735 0.0366666
36 3 O -0.749182 60.4933 3.01694 -1.2 1 0.00387329 0.00682879 0.00289464 0.00762727 0.00119601 0.00688926 0.00137288 0.0206498 0.0025584 0.0107577 0.00190402 0.0261872 0.00295316 0.0206242 0.00338733 0.028358 0.00399146 0.0235578 0.00331798 0.0363798
37 1 Mg -2.18258 66.3416 4.87059 1.2 1 0.00172702 0.00413526 0.00108316 0.00710123 0.00116489 0.00624059 0.00156171 0.0222167 0.00158215 0.0107639 0.00270819 0.0261197 0.00228435 0.0205247 0.00337369 0.0290683 0.00349435 0.0232703 0.00381461 0.0373965
38 2 Si 0.149793 68.2702 4.63106 2.4 1 0.00201617 0.00310589 0.000631796 0.00792213 0.00141562 0.00573393 0.00176022 0.0218168 0.00131054 0.010383 0.00207012 0.024745 0.00200934 0.0202503 0.00324354 0.0282333 0.00352465 0.0224856 0.00296666 0.0382614
39 3 O -1.28114 68.4702 4.61684 -1.2 1 0.00161894 0.00295139 0.000732732 0.00759242 0.00148377 0.00532169 0.00119384 0.0215491 0.00219458 0.0106735 0.00182884 0.0252867 0.0022106 0.0198385 0.00333488 0.0286992 0.00367893 0.0221321 0.00352975 0.037892
40 3 O 1.56384 64.4883 4.94915 -1.2 1 0.00200897 0.00473702 0.000813127 0.00725746 0.00123132 0.0062396 0.00137251 0.0224893 0.00190677 0.0108929 0.0022534 0.0257175 0.00317945 0.019811 0.00433592 0.0279836 0.00375782 0.0235382 0.00309851 0.0367941
41 3 O 0.78682 67.5286 3.39609 -1.2 1 0.00159076 0.00376449 0.000941369 0.0071009 0.00134569 0.00603116 0.0012102 0.0220731 0.00212363 0.0112822 0.00215932 0.0256325 0.00227806 0.0204047 0.00357102 0.0289939 0.00268947 0.02282 0.00279518 0.0369207
42 3 O 1.06365 67.635 5.83815 -1.2 1 0.00165738 0.00362484 0.00107724 0.00755654 0.00117995 0.00587775 0.00155736 0.0218139 0.00180674 0.0104095 0.00212722 0.0258679 0.00211911 0.0204696 0.00323107 0.028922 0.00357309 0.023307 0.0030116 0.0385599
43 1 Mg 0.17126 64.0459 3.49112 1.2 1 0.00226839 0.00475013 0.000964995 0.00742037 0.00120195 0.00610978 0.00156497 0.0219838 0.00170092 0.0111789 0.00176739 0.0263132 0.00246945 0.019837 0.00310797 0.0288187 0.00325708 0.0235733 0.00279052 0.036134
44 1 Mg -0.00735308 60.9837 4.84193 1.2 1 0.00431994 0.00781647 0.00241302 0.00729046 0.00144364 0.00676614 0.00199098 0.0215711 0.0025572 0.0111207 0.0028814 0.0260199 0.00207248 0.0203726 0.00354276 0.0288582 0.00420031 0.0239212 0.00348476 0.0358162
45 2 Si 2.19557 63.0731 4.98807 2.4 1 0.00239389 0.00479685 0.00126067 0.00830418 0.00142197 0.00555198 0.001936 0.0215881 0.00196589 0.010347 0.00228208 0.0250604 0.00283964 0.0201648 0.00314844 0.028802 0.00352899 0.0234517 0.00301979 0.03707
46 3 O -0.873244 63.1106 5.12475 -1.2 1 0.00276996 0.00478492 0.00118702 0.0082485 0.00138363 0.00594491 0.00207653 0.0210412 0.0024666 0.0103337 0.00260719 0.0256309 0.00252744 0.020047 0.00341896 0.0282696 0.00344629 0.0235124 0.00339606 0.0371023
47 3 O 1.02036 59.31 4.82746 -1.2 1 0.0113682 0.0127892 0.00500363 0.00695273 0.0012696 0.00694051 0.00245122 0.0212282 0.00334659 0.0109782 0.00236402 0.0262484 0.0029571 0.0199067 0.00398593 0.0271026 0.00454841 0.0231467 0.00384942 0.0356814
48 3 O 1.68439 62.2299 3.67164 -1.2 1 0.00220733 0.00507785 0.00127136 0.0080611 0.00143175 0.00658464 0.00199982 0.0215026 0.00249163 0.0104891 0.00209524 0.0258426 0.00243847 0.0204905 0.00360614 0.0285935 0.00418948 0.023706 0.00336254 0.0359596
49 1 Mg 0.024378 64.0755 0.361354 1.2 1 0.00121326 0.00391603 0.000849293 0.0072764 0.0011751 0.00632277 0.00148349 0.0220127 0.00151126 0.0121336 0.00178354 0.0268394 0.00175883 0.0199919 0.00283251 0.0288259 0.00321177 0.0238601 0.00288348 0.0360855
50 3 O 1.56494 62.42 6.28434 -1.2 1 0.00262729 0.00571288 0.0016817 0.00764938 0.00150797 0.00642886 0.00193494 0.0220295 0.00177667 0.0101958 0.00237112 0.0249652 0.00283119 0.0200733 0.00353836 0.028664 0.00334437 0.0236691 0.00275498 0.0366808
51 1 Mg -0.0482429 66.9349 1.85702 1.2 1 0.0014376 0.00434992 0.000958257 0.00737619 0.00105418 0.00650305 0.00119292 0.0222407 0.00196842 0.0117194 0.00194536 0.0253009 0.00213936 0.0206631 0.00349202 0.0290199 0.00338388 0.0234217 0.00272084 0.0358579
52 2 Si -2.00466 64.8501 2.01919 2.4 1 0.00218902 0.00460183 0.000828096 0.0080231 0.00155776 0.00605214 0.00150868 0.0217345 0.0017544 0.0114868 0.00262049 0.0254649 0.00256285 0.0210782 0.0039292 0.0283656 0.0038211 0.0237694 0.00347925 0.0369859
53 3 O 1.23607 64.8254 2.00458 -1.2 1 0.00209714 0.00473609 0.000933902 0.00758754 0.00111622 0.00562671 0.00177452 0.0213916 0.00177633 0.0113879 0.0016223 0.0257584 0.00213658 0.0202012 0.00248958 0.0282011 0.00424341 0.0233226 0.00337329 0.0366137
54 3 O -1.06761 69.0817 1.85609 -1.2 1 0.0025817 0.00287369 0.00110782 0.00738041 0.00109969 0.00629755 0.00118075 0.0217061 0.00139431 0.0111287 0.00157606 0.0251817 0.00202296 0.020762 0.00357808 0.0289749 0.00287627 0.0222957 0.00322414 0.0366309
55 3 O -1.25356 65.5756 0.663004 -1.2 1 0.00125811 0.00435838 0.000996672 0.00753333 0.00123028 0.00634083 0.00131821 0.0215064 0.0014315 0.0118089 0.0019026 0.0251983 0.00227162 0.0207468 0.00252566 0.0290764 0.0031562 0.0234818 0.00284191 0.0362569
56 3 O -1.41909 65.5611 3.2805 -1.2 1 0.00180502 0.00462998 0.00087058 0.00717407 0.00179304 0.00635511 0.00184467 0.0226054 0.00169167 0.0112906 0.00208079 0.0252522 0.00236567 0.0210052 0.00406136 0.0290759 0.00272341 0.0236654 0.00328134 0.0369323
57 1 Mg -2.53132 69.0766 0.465035 1.2 1 0.00225372 0.00330225 0.00123166 0.00703486 0.000827254 0.00636962 0.00118138 0.0220929 0.00135208 0.0116653 0.00161497 0.0251552 0.00184268 0.0205998 0.00244984 0.0289579 0.0029329 0.0219644 0.00264586 0.0352628
58 1 Mg 2.31021 72.2846 1.86668 1.2 1 0.0048298 0.00207913 0.000983298 0.00668804 0.000764941 0.00660118 0.00201164 0.0217584 0.0019367 0.0112119 0.0022149 0.024881 0.0023387 0.0213508 0.0036339 0.0292251 0.00331744 0.0218136 0.00404112 0.0374022
59 2 Si -0.379407 70.4592 1.66517 2.4 1 0.00335164 0.00195956 0.000904237 0.00751019 0.00162071 0.0061684 0.00168569 0.0215252 0.00168345 0.0109239 0.00168318 0.0241424 0.0020348 0.0213653 0.00303105 0.0285885 0.00346768 0.0216225 0.00300326 0.0375637
60 3 O 1.138 70.3039 1.82659 -1.2 1 0.00330668 0.00212084 0.00101194 0.00739434 0.00158151 0.00620808 0.00145771 0.0214633 0.0025308 0.0109729 0.00178412 0.0249579 0.00226416 0.0213277 0.00345512 0.0297585 0.0026721 0.0218206 0.00305996 0.0369614
61 3 O -1.56067 74.4082 1.91751 -1.2 1 0.00663483 0.0029835 0.000993974 0.00724571 0.00135528 0.00610243 0.00197051 0.0208984 0.00187151 0.0102442 0.00231864 0.0251579 0.00298668 0.0204168 0.00357096 0.0298899 0.00439363 0.0221144 0.00503629 0.0389143
62 3 O -1.11441 71.2386 0.441473 -1.2 1 0.003513 0.0022622 0.00122428 0.00727486 0.00105704 0.00650357 0.0015605 0.0214926 0.00157131 0.0109953 0.00165362 0.0251904 0.00182152 0.0218121 0.00244751 0.0293592 0.00293236 0.0217448 0.00266205 0.036614
63 1 Mg -2.70096 80.1884 3.42408 1.2 1 0.00372792 0.00449974 0.00154414 0.00653442 0.0012334 0.00544249 0.00172841 0.0201318 0.0015358 0.00965589 0.00203212 0.0248022 0.0023583 0.0178845 0.00308293 0.0306504 0.00387198 0.0248678 0.0047236 0.0400791
64 3 O -0.961259 71.3225 3.07966 -1.2 1 0.00459929 0.00227754 0.000753671 0.00682495 0.00155092 0.00636442 0.00204586 0.0212073 0.0014876 0.0104241 0.00208355 0.0247006 0.0023048 0.0210585 0.00241808 0.0295751 0.00265838 0.0214765 0.00321105 0.0379848
65 1 Mg -2.44624 76.9988 4.68319 1.2 1 0.00572348 0.0037209 0.00184772 0.00638281 0.00126806 0.00612377 0.00171316 0.0206103 0.00315053 0.00950227 0.00300106 0.0253269 0.00321343 0.0193266 0.00371967 0.0306222 0.00424559 0.0241072 0.00525742 0.0422315
66 2 Si 0.180708 79.0482 4.95443 2.4 1 0.00286249 0.00405328 0.00198773 0.00737879 0.00136049 0.00615176 0.00144849 0.0201032 0.00247821 0.00942127 0.00247202 0.0244885 0.00213933 0.0191065 0.00267782 0.0301416 0.00348975 0.02496 0.00510567 0.0425229
67 3 O -1.39637 79.2542 4.63516 -1.2 1 0.00233202 0.00393194 0.00149218 0.00685608 0.00147292 0.00574847 0.0019317 0.0199175 0.0025766 0.00931523 0.00251553 0.0249752 0.00227822 0.018072 0.00374194 0.030741 0.00330061 0.0247598 0.00483753 0.0414769
68 3 O 1.39653 75.1303 4.82129 -1.2 1 0.00587184 0.00337431 0.00146374 0.00662191 0.00171511 0.00643523 0.00184266 0.0214465 0.00174451 0.0100142 0.00248634 0.025578 0.00209472 0.0197646 0.00258533 0.0297446 0.00312563 0.0227389 0.0040707 0.0410084
69 3 O 0.99283 78.3241 3.58419 -1.2 1 0.00368919 0.00426374 0.00150089 0.0066532 0.00111799 0.00597085 0.00254142 0.0206189 0.00263539 0.00935585 0.00245756 0.0242321 0.00274084 0.0194349 0.00413131 0.0315863 0.00385235 0.0247039 0.0046943 0.0411521
70 3 O 0.788114 78.1873 6.11653 -1.2 1 0.00399351 0.00406803 0.00191603 0.00651346 0.00140277 0.00599127 0.0011036 0.0205616 0.00332953 0.00929646 0.00254993 0.025324 0.00268034 0.0185986 0.00388136 0.0306573 0.00382687 0.024815 0.00409223 0.0435431
71 1 Mg 0.0322802 74.4886 3.3828 1.2 1 0.00597376 0.00326763 0.00104081 0.00659084 0.00168707 0.00625477 0.00197467 0.0208016 0.00158163 0.010352 0.00201136 0.0259259 0.002261 0.0200588 0.0025337 0.030185 0.00362213 0.0223949 0.00430684 0.0392688
72 1 Mg -0.0220015 71.6423 4.81101 1.2 1 0.00463029 0.00336674 0.00125027 0.00686803 0.00151683 0.00641337 0.00150134 0.0220413 0.00170199 0.0106819 0.00172472 0.0255402 0.00230561 0.0205474 0.00278067 0.0298314 0.00213607 0.0228645 0.00309791 0.0389832
73 2 Si 2.01257 73.6471 4.76081 2.4 1 0.00628143 0.00312161 0.00122429 0.00739539 0.00169692 0.00612929 0.00228104 0.0204394 0.00223315 0.0100419 0.00249869 0.0244667 0.00180103 0.020831 0.00401902 0.0298634 0.00297998 0.0220544 0.00390308 0.0405715
74 3 O -1.13804 73.8372 4.92566 -1.2 1 0.00559646 0.0033222 0.00114482 0.00681555 0.00133221 0.00622171 0.00142257 0.0202526 0.00246593 0.00983675 0.00213789 0.0254672 0.00257912 0.0202581 0.00216695 0.0306837 0.00308905 0.0223207 0.00366467 0.0402278
75 3 O 0.873479 69.7561 4.55093 -1.2 1 0.00274518 0.00271132 0.000676838 0.00742804 0.00110639 0.00649025 0.00118641 0.0220508 0.00130567 0.0106917 0.00222392 0.0257206 0.00228402 0.0203319 0.00242554 0.0288758 0.00268456 0.0225282 0.00311126 0.0380758
76 3 O 1.2944 72.8586 3.58751 -1.2 1 0.00558694 0.00282692 0.000660193 0.00650159 0.00121091 0.00640296 0.00225396 0.0213309 0.00175464 0.0103442 0.0022017 0.024452 0.00196815 0.0213345 0.00263047 0.0304238 0.00223137 0.022199 0.00352007 0.0384346
77 1 Mg -0.0466294 74.8586 0.623306 1.2 1 0.00593738 0.00290145 0.00100357 0.00696832 0.000923793 0.0057632 0.00195172 0.0209262 0.00199544 0.0106322 0.00197667 0.0252688 0.0027374 0.0200958 0.00304451 0.0301832 0.00338011 0.0220727 0.00468651 0.0380952
78 3 O 1.34435 72.9537 5.95865 -1.2 1 0.0053402 0.00372728 0.00102321 0.00668099 0.00157901 0.00591921 0.00205478 0.0210696 0.00250873 0.0103335 0.00267707 0.025002 0.00203215 0.0205124 0.0032123 0.0301725 0.00278271 0.0225004 0.00371845 0.040646
79 1 Mg -0.105771 77.6019 1.85769 1.2 1 0.0047206 0.00426767 0.00144848 0.00707392 0.00112638 0.00562409 0.00235482 0.0204211 0.00180338 0.00956645 0.00339413 0.0252086 0.00295151 0.0193017 0.00404587 0.0316131 0.00441592 0.0245139 0.0044341 0.0402126
80 2 Si -2.20283 75.8294 1.96203 2.4 1 0.00608448 0.00383428 0.00126144 0.00778298 0.00187461 0.00590059 0.0023043 0.0198791 0.00173338 0.00954843 0.00251589 0.0246236 0.00345396 0.0204228 0.00334818 0.0304981 0.00500328 0.0228688 0.005454 0.0399636
81 3 O 1.047 75.686 2.02027 -1.2 1 0.00643633 0.00371146 0.00122523 0.00754465 0.00159086 0.00553537 0.00205536 0.0199266 0.00220158 0.00958615 0.00210913 0.0248833 0.00291589 0.0200699 0.0037216 0.0304453 0.00434587 0.0229586 0.00577779 0.039928
82 3 O -1.29542 79.4673 1.91441 -1.2 1 0.00398109 0.00470132 0.00151783 0.00681401 0.000990276 0.00566803 0.00163437 0.0209547 0.00132233 0.0095285 0.00175661 0.024988 0.00257383 0.0185256 0.00291372 0.0303185 0.00423209 0.0249498 0.00439253 0.0401142
83 3 O -1.47644 76.6582 0.6555 -1.2 1 0.00599913 0.00356117 0.00158215 0.00728912 0.00146326 0.00546456 0.00237417 0.020341 0.00197966 0.00937432 0.00209055 0.0248825 0.00306917 0.0195692 0.00311805 0.0315365 0.00412576 0.0233047 0.00512693 0.039945
84 3 O -1.49798 76.4675 3.09314 -1.2 1 0.00518944 0.00409145 0.00142329 0.00670383 0.00150033 0.0059656 0.00201112 0.0209318 0.00163972 0.00941561 0.0024859 0.0244961 0.00342832 0.0195227 0.00342772 0.0307836 0.00471619 0.0241112 0.00521302 0.0407731
85 1 Mg -2.89139 79.7448 0.563427 1.2 1 0.0046428 0.00470227 0.00154053 0.0066941 0.000993131 0.0055726 0.00151617 0.0209447 0.00143256 0.010189 0.00149224 0.0258169 0.00273294 0.0182204 0.00331761 0.0305789 0.00338191 0.0245829 0.00402872 0.0389409
86 1 Mg 1.95649 82.6679 1.65723 1.2 1 0.00630974 0.00512372 0.00116409 0.00664629 0.0018202 0.0050045 0.0014485 0.0199003 0.00243939 0.0105205 0.00256178 0.025211 0.00297975 0.0178257 0.00380827 0.0301248 0.00419486 0.0247923 0.00411593 0.0368272
87 2 Si -0.642627 80.8761 1.89686 2.4 1 0.0049418 0.00442254 0.00151211 0.00689361 0.00164783 0.00539994 0.00192083 0.019242 0.00224797 0.00934728 0.00302726 0.0245667 0.00295283 0.0183221 0.00433172 0.0300193 0.00522473 0.0243851 0.00509117 0.0388521
88 3 O 0.816583 81.0115 1.73929 -1.2 1 0.00504274 0.00446715 0.00123986 0.00702583 0.001404 0.00494691 0.00143167 0.0193626 0.00220375 0.00898356 0.00205994 0.0242629 0.00240302 0.0178247 0.00316011 0.0307843 0.00412093 0.0242385 0.00404859 0.0386592
89 3 O -1.62455 84.7077 1.77719 -1.2 1 0.00608919 0.00480346 0.000554374 0.00712516 0.00148589 0.00567593 0.0014296 0.0199722 0.00192766 0.0112735 0.00225527 0.0251675 0.00353879 0.0182446 0.00426094 0.0289802 0.00369674 0.0240983 0.00400413 0.0356506
90 3 O -1.47177 81.7167 0.678802 -1.2 1 0.00499989 0.00454397 0.00122929 0.0068822 0.00150358 0.00529459 0.00193859 0.0199006 0.00237596 0.00971836 0.00257865 0.0248073 0.00264992 0.0185148 0.0032011 0.0303005 0.00359666 0.0246665 0.00296652 0.0380694
91 1 Mg -2.37613 90.1645 3.05508 1.2 1 0.00148064 0.00444327 0.000830334 0.00763198 0.00185112 0.00618482 0.00125995 0.020144 0.00146672 0.0116421 0.00184516 0.0264031 0.00280195 0.0197096 0.00255601 0.029321 0.00332972 0.0228461 0.00316693 0.0353357
92 3 O -1.3067 81.656 3.21238 -1.2 1 0.00486812 0.00452469 0.00117003 0.0065186 0.00169079 0.00504073 0.00142828 0.0201976 0.00207378 0.00966668 0.0030426 0.0241882 0.00268735 0.0185856 0.00413277 0.0302467 0.00398067 0.0250511 0.00441798 0.0388153
93 1 Mg -2.40425 87.2844 4.82665 1.2 1 0.0055329 0.00401621 0.0010753 0.00680573 0.00151548 0.00530538 0.0015157 0.0191412 0.00232338 0.0114951 0.00182569 0.0247942 0.00247201 0.0196305 0.00375749 0.0283257 0.0041346 0.0237263 0.00487492 0.0348932
94 2 Si 0.325335 89.2989 4.64892 2.4 1 0.00268515 0.00332924 0.00135151 0.00777975 0.00223036 0.00541552 0.00194436 0.0190549 0.00176083 0.0107924 0.00191749 0.0244217 0.00333524 0.0198511 0.00374395 0.0286099 0.0048968 0.0225896 0.00426267 0.0359135
95 3 O -1.21388 89.3378 4.63735 -1.2 1 0.00346439 0.00355497 0.00110316 0.00706715 0.0020225 0.00535235 0.00196422 0.0189041 0.00253683 0.0107184 0.00180282 0.0249354 0.00296571 0.0201409 0.003157 0.0287747 0.00372864 0.0229556 0.00403721 0.0353928
96 3 O 1.29541 85.4312 4.34529 -1.2 1 0.006979 0.00407837 0.000695652 0.00690913 0.00209182 0.00562158 0.00123555 0.0188238 0.00241401 0.0109216 0.0023642 0.0243853 0.00275494 0.0188738 0.0039979 0.0285283 0.00436317 0.0238592 0.00502303 0.0348798
97 3 O 0.931541 88.6841 3.2407 -1.2 1 0.00404573 0.00416675 0.00089539 0.00725099 0.00176106 0.00583012 0.00125337 0.0196886 0.00133406 0.0109277 0.00198384 0.0246814 0.00374519 0.020012 0.00337497 0.0292955 0.00396264 0.0232944 0.00418106 0.0347963
98 3 O 0.789906 88.369 5.86621 -1.2 1 0.00416568 0.00322641 0.000977705 0.00702062 0.00147923 0.00551564 0.00133911 0.0190404 0.00146877 0.0109228 0.001746 0.0243549 0.0028683 0.0201812 0.00305945 0.0291621 0.00391901 0.0231499 0.00401668 0.0349043
99 1 Mg -0.22856 85.4022 3.22167 1.2 1 0.00677981 0.00434497 0.000453319 0.00682143 0.00190896 0.00543613 0.0014506 0.0188985 0.00234646 0.0111542 0.00214707 0.0249892 0.00307388 0.0182203 0.00460335 0.0291951 0.00403797 0.0241106 0.0048152 0.0348594
100 1 Mg -0.136464 82.1937 4.85555 1.2 1 0.00423926 0.00454264 0.00101391 0.00637254 0.00139509 0.00509662 0.00167599 0.0201575 0.00214955 0.0102952 0.00257994 0.0246839 0.00234927 0.0183901 0.00348383 0.0303645 0.00416349 0.0259614 0.00458628 0.0394073
101 2 Si 1.97321 84.0138 4.65026 2.4 1 0.00750006 0.00426219 0.000839028 0.00716684 0.00315199 0.00484689 0.00170907 0.0189013 0.00236425 0.00995716 0.00276402 0.0238298 0.00322001 0.0189573 0.00432816 0.0293198 0.00470145 0.0250209 0.00548722 0.0377299
102 3 O -1.25538 84.1791 4.79553 -1.2 1 0.00660258 0.00423683 0.000733202 0.00704293 0.00288043 0.00469955 0.00142949 0.0181957 0.00227969 0.00981237 0.00190217 0.0244508 0.00319913 0.0185385 0.00422666 0.0289846 0.00497474 0.024187 0.00548887 0.0371708
103 3 O 0.773957 80.3921 4.95455 -1.2 1 0.0027907 0.00430448 0.00200456 0.0066201 0.00136109 0.00587948 0.0022416 0.0198957 0.00219561 0.0101345 0.00236774 0.0249805 0.00255089 0.0184172 0.00387425 0.0296547 0.00344119 0.0251483 0.00467499 0.0411402
104 3 O 1.2895 83.142 3.46434 -1.2 1 0.00665859 0.00446742 0.00114201 0.00672506 0.00262893 0.00520921 0.00143728 0.0193187 0.0025816 0.00963979 0.00255347 0.0236092 0.00257125 0.0187876 0.00402878 0.0297628 0.00413265 0.0248452 0.00534437 0.0376008
105 1 Mg -0.123261 84.8234 0.380336 1.2 1 0.00550378 0.00479305 0.000641947 0.0073142 0.00185004 0.00553655 0.001293 0.020478 0.00186669 0.0113235 0.00188621 0.0254956 0.00206519 0.0177736 0.00321432 0.0298462 0.00240883 0.0249499 0.00405752 0.0355406
106 3 O 1.31358 83.2661 6.02256 -1.2 1 0.00514118 0.00410573 0.0010042 0.00626058 0.00190338 0.00486723 0.00203459 0.0196103 0.00239461 0.00986158 0.00231848 0.023974 0.00249984 0.0192556 0.00302875 0.0296135 0.0034517 0.025327 0.00435608 0.0384837
107 1 Mg -0.0577906 88.1186 1.46635 1.2 1 0.00388082 0.00402969 0.000319668 0.00747848 0.00184635 0.00601863 0.00120131 0.0196929 0.00247656 0.0117193 0.00230121 0.0257185 0.00264591 0.0197594 0.00379134 0.0299202 0.00328772 0.0233193 0.00440448 0.0348163
108 2 Si -2.24197 86.2063 1.68779 2.4 1 0.00650508 0.00424696 0.000507162 0.00813948 0.00171402 0.00533335 0.00153223 0.0192654 0.00258603 0.0109121 0.00257151 0.0242826 0.00308217 0.0188738 0.00548334 0.0293803 0.00405088 0.0237224 0.00480292 0.0347508
109 3 O 0.993099 86.0396 1.506 -1.2 1 0.00561681 0.00409714 0.00062262 0.00742662 0.00150171 0.00544013 0.00119519 0.0193931 0.00234565 0.0111361 0.00228038 0.0249878 0.00277061 0.0186604 0.00345935 0.0294063 0.00328489 0.0237695 0.00393118 0.0346951
110 3 O -0.968274 90.0791 1.88719 -1.2 1 0.00185179 0.00447117 0.00113289 0.00782369 0.00156455 0.0064286 0.00124833 0.0205416 0.00137825 0.0121607 0.00267817 0.0260305 0.00261884 0.0204547 0.00315587 0.0292806 0.00373798 0.0230247 0.00291101 0.0359067
111 3 O -1.49858 86.708 0.422478 -1.2 1 0.0057858 0.00409792 0.00125125 0.00738986 0.00157886 0.0056369 0.00181967 0.0200946 0.00283025 0.011358 0.00275562 0.0246926 0.00271196 0.0190786 0.00402473 0.0293674 0.00368589 0.0239071 0.00458456 0.035197
112 3 O -1.51976 87.036 2.94104 -1.2 1 0.00541945 0.00412959 0.000874795 0.00710967 0.00152093 0.00558701 0.00110116 0.0193188 0.00213991 0.0106245 0.00246276 0.0242502 0.00331186 0.0197816 0.00491486 0.0292126 0.00397948 0.0235297 0.00383607 0.0343031
113 1 Mg -2.36571 90.7116 0.159994 1.2 1 0.00127872 0.00446782 0.000866644 0.00798028 0.00111389 0.00674231 0.00134206 0.0208346 0.00155698 0.0117866 0.00237596 0.0263427 0.00256945 0.0203748 0.00242026 0.0288594 0.00383834 0.0223569 0.00321177 0.0361758
114 1 Mg 2.23951 93.6328 1.42822 1.2 1 0.0023506 0.00536737 0.00102398 0.00723032 0.00067913 0.00686912 0.00126883 0.0212424 0.0026392 0.011807 0.00201386 0.0268773 0.00238374 0.0215788 0.00301472 0.0310157 0.00281523 0.0230849 0.0026947 0.0384558
115 2 Si -0.338475 91.6184 1.63642 2.4 1 0.000986074 0.0047875 0.00100889 0.00814913 0.00140213 0.00612861 0.00141423 0.0199625 0.0013895 0.0112071 0.0027247 0.0255421 0.00206669 0.0211645 0.00291667 0.0296194 0.00340368 0.0223202 0.00302352 0.037061
116 3 O 1.23342 91.4104 1.6338 -1.2 1 0.00134445 0.00473122 0.000696443 0.00808492 0.00121368 0.00599406 0.00148094 0.0203773 0.00233997 0.0112643 0.00234876 0.0260232 0.00241866 0.0208142 0.00239498 0.0298852 0.00392282 0.0225655 0.00323927 0.0367918
117 3 O -1.41724 95.2751 1.54092 -1.2 1 0.00324177 0.00569192 0.000871961 0.007557 0.00115967 0.00660392 0.00176468 0.0219774 0.00189195 0.0119791 0.00272674 0.0265034 0.00223209 0.0215971 0.00397624 0.0309176 0.00270441 0.0233252 0.00265579 0.0400915
118 3 O -0.992081 92.0351 0.195431 -1.2 1 0.00120351 0.00486158 0.000525392 0.00757827 0.000796946 0.00632116 0.00165378 0.0208969 0.0017677 0.0115665 0.00315032 0.0261997 0.00263624 0.0214827 0.00310208 0.030728 0.00376718 0.0226578 0.00309012 0.0378594
119 1 Mg -2.54246 101.287 2.81686 1.2 1 0.00198951 0.00520599 0.00134867 0.00708821 0.00106434 0.00640338 0.000957455 0.0230254 0.00146127 0.0105589 0.00148568 0.0271974 0.00273834 0.020896 0.00300774 0.0334443 0.00290353 0.0253241 0.00449095 0.0406926