ITEM: TIMESTEP
58300
ITEM: NUMBER OF ATOMS
5600
ITEM: BOX BOUNDS xy xz yz pp pp pp
0	7.1235	0
0	201.985	2.3745
0	119.584	0
ITEM: ATOMS id type element xu yu zu q Q_1 Q_2 Q_3 Q_4 Q_5 Q_6 Q_7 Q_8 Q_9 Q_10 Q_11 Q_12 Q_13 Q_14 Q_15 Q_16 Q_17 Q_18 Q_19 Q_20 Q_21
1 1 Mg -1.61845 48.0478 -0.138067 1.2 1 0.248976 0.0694241 0.019919 0.0251003 0.00765605 0.0111657 0.0053391 0.0208992 0.00618344 0.0229307 0.00670724 0.0276639 0.00927604 0.0263515 0.00861057 0.0243215 0.00928128 0.022264 0.0094364 0.0276988
2 1 Mg 3.01954 49.8054 2.87415 1.2 1 0.203247 0.0640597 0.011435 0.0199206 0.00436608 0.00826505 0.0041428 0.0181435 0.00514955 0.020062 0.00571786 0.0239502 0.00545833 0.023975 0.00720805 0.0230637 0.00915385 0.0215775 0.00829139 0.0232701
3 2 Si 0.864942 49.94 0.950135 2.4 1 0.204162 0.0632608 0.0128085 0.0202246 0.00500086 0.00760711 0.00352434 0.0188867 0.00594196 0.019777 0.00543366 0.02639 0.00631571 0.0260207 0.00672198 0.0234857 0.00836294 0.020617 0.00850854 0.0258568
4 3 O 2.04997 48.8757 1.21307 -1.2 1 0.226117 0.0674132 0.01565 0.0229558 0.00595605 0.00904544 0.00428842 0.0194579 0.0061045 0.0215067 0.00680309 0.0259226 0.00746821 0.0259154 0.00956671 0.0241826 0.0109014 0.0219091 0.00906341 0.0250836
5 3 O -0.785704 53.1082 2.08945 -1.2 1 0.126957 0.0455431 0.00260197 0.0126045 0.00294625 0.00717421 0.00303241 0.01732 0.00311947 0.0156613 0.0033467 0.0236903 0.00354705 0.0208689 0.00379447 0.0232745 0.0064495 0.0188028 0.00657573 0.0265353
6 3 O -0.149212 49.5339 -0.157098 -1.2 1 0.212359 0.0652611 0.0131934 0.0208913 0.00606706 0.0083764 0.00438802 0.0199923 0.00552571 0.0214761 0.00534911 0.0270024 0.00661578 0.0261282 0.00674008 0.0246907 0.00865027 0.0214542 0.0086332 0.0272605
7 1 Mg -2.03764 59.0175 3.64698 1.2 1 0.0128848 0.013068 0.00457598 0.00578435 0.00156025 0.00632023 0.00123999 0.0200073 0.00274362 0.0115954 0.00236299 0.0248848 0.00367796 0.0194335 0.00445552 0.0265494 0.0054597 0.021218 0.00489543 0.0350526
8 3 O 0.0268432 49.9026 2.35086 -1.2 1 0.203079 0.0645852 0.0111151 0.0203714 0.00446833 0.00820672 0.00338406 0.0187506 0.00550263 0.019643 0.00623396 0.0242466 0.00566098 0.0241759 0.00790971 0.0224956 0.00910696 0.0207717 0.00793999 0.0238709
9 1 Mg -2.05589 55.6935 4.94156 1.2 1 0.0716567 0.0338487 0.0041521 0.00825311 0.00200147 0.00628535 0.00240657 0.0179153 0.00255281 0.0133171 0.00378016 0.023505 0.00370999 0.0187594 0.00621706 0.0225481 0.0047892 0.0195144 0.00749033 0.0281923
10 2 Si 0.670603 58.0206 4.85959 2.4 1 0.0236329 0.0181675 0.0056277 0.00659342 0.00178527 0.00584769 0.00217671 0.0185289 0.00305682 0.0108623 0.00375385 0.0244128 0.00507079 0.0192112 0.00603607 0.024758 0.00508463 0.0202847 0.00640183 0.0326813
11 3 O -0.883361 58.0387 4.85328 -1.2 1 0.022888 0.0184823 0.00606411 0.00550475 0.00158941 0.00561477 0.00194474 0.019317 0.00279128 0.0113377 0.00299104 0.024587 0.00430944 0.0193166 0.00469954 0.0252239 0.00464934 0.0202707 0.00477583 0.0333849
12 3 O 1.97805 53.7123 5.24272 -1.2 1 0.114673 0.0446495 0.0011342 0.0120409 0.00253543 0.0072597 0.00320517 0.0180142 0.00256291 0.0150551 0.00401103 0.0224718 0.00417559 0.0196569 0.00599671 0.020158 0.00535403 0.019636 0.00715094 0.0248484
13 3 O 1.36686 57.3754 3.62873 -1.2 1 0.0298547 0.0214663 0.00630378 0.005634 0.00165061 0.00572081 0.00218962 0.020022 0.00286513 0.0120068 0.00271473 0.0244057 0.00340874 0.0197971 0.0052066 0.0258562 0.00511877 0.0202906 0.00633818 0.0324825
14 3 O 1.30007 57.33 6.07884 -1.2 1 0.0339317 0.0230879 0.00737722 0.00534025 0.00191444 0.00554871 0.00214594 0.0184521 0.00226558 0.010696 0.00355751 0.0241702 0.00527214 0.0184646 0.00692876 0.0235551 0.00557237 0.0202823 0.00665728 0.0306881
15 1 Mg 0.686595 53.1041 3.42079 1.2 1 0.130268 0.0480677 0.00189264 0.0135712 0.00236682 0.0074692 0.00298654 0.0175576 0.00363829 0.0161313 0.00322276 0.0233956 0.00324193 0.0199712 0.00532358 0.0217427 0.00537887 0.0186351 0.00737763 0.0246366
16 1 Mg 0.597019 48.5575 3.65633 1.2 1 0.227051 0.0682846 0.0167379 0.0233607 0.00521783 0.0103785 0.00452159 0.018398 0.00508308 0.0208508 0.00677265 0.0235963 0.00645159 0.0244438 0.00912251 0.0229582 0.0101 0.0232324 0.00908295 0.0232247
17 2 Si 2.7527 52.2978 5.14653 2.4 1 0.147338 0.0547652 0.00250202 0.0153967 0.00325823 0.00824074 0.0027357 0.0166251 0.00322264 0.0153291 0.00415291 0.0220737 0.00436874 0.0208163 0.0068849 0.021271 0.00585154 0.019248 0.007706 0.0233587
18 3 O -0.502747 52.5201 5.20441 -1.2 1 0.141431 0.0520197 0.00266224 0.0142442 0.0026204 0.00759354 0.00298205 0.0169352 0.00346612 0.0157201 0.00384368 0.0226675 0.00481504 0.0212115 0.00570313 0.0198504 0.00579485 0.0189844 0.00761367 0.0238745
19 3 O 2.4095 48.1727 4.17024 -1.2 1 0.241455 0.0710969 0.0199864 0.0251137 0.00588687 0.0118641 0.00500515 0.0183732 0.00559133 0.0222238 0.00699967 0.0239973 0.00774499 0.0240396 0.0099825 0.0225896 0.0103374 0.0247444 0.00968381 0.0235682
20 3 O 2.22739 51.4376 3.93103 -1.2 1 0.165804 0.0562337 0.00588118 0.016399 0.0034178 0.00806661 0.00344542 0.0172786 0.00345611 0.0175808 0.00462811 0.0230631 0.00375291 0.0216818 0.00565293 0.0210355 0.00623496 0.0194446 0.00773839 0.0238156
21 1 Mg 0.361811 53.7902 0.633555 1.2 1 0.112355 0.0424658 0.00173055 0.0111553 0.0025383 0.00683256 0.00247759 0.0184582 0.00411737 0.0163116 0.00338762 0.0248747 0.00382199 0.021232 0.00435765 0.0238432 0.00649014 0.018402 0.00615584 0.0286134
22 3 O 1.71449 51.4373 6.43065 -1.2 1 0.161749 0.0599277 0.00417814 0.0164995 0.00300043 0.00868379 0.00377852 0.0175909 0.0038521 0.0171354 0.00526644 0.0222075 0.0051119 0.0205791 0.00713009 0.0194854 0.0063224 0.0199491 0.00863753 0.0226418
23 1 Mg 0.355671 56.5836 2.24426 1.2 1 0.0436748 0.0267217 0.00641259 0.00689147 0.00208293 0.00626926 0.0017899 0.0191462 0.00388001 0.0128178 0.00273443 0.0247359 0.00334361 0.0204605 0.00501103 0.0256041 0.00646389 0.0197983 0.00660725 0.0310765
24 2 Si -1.7503 54.4614 2.14953 2.4 1 0.098353 0.0398753 0.00206207 0.010422 0.00249487 0.00689442 0.00224329 0.0174682 0.0041827 0.0147148 0.00301573 0.0234886 0.00329951 0.0211897 0.00466114 0.0230569 0.00704677 0.0183877 0.0069485 0.0275495
25 3 O 1.55122 54.4274 2.21032 -1.2 1 0.104913 0.0407586 0.00138705 0.0109251 0.00201029 0.00655334 0.00234971 0.0178983 0.003736 0.0148274 0.00305406 0.0235123 0.00367321 0.021003 0.00443471 0.0238982 0.00577924 0.018533 0.00676807 0.0273732
26 3 O -0.716904 58.459 1.97775 -1.2 1 0.0193028 0.0165027 0.00537362 0.00604373 0.00166576 0.00623779 0.00129799 0.0202318 0.00270993 0.0119122 0.00344382 0.024985 0.00383318 0.0205713 0.00456605 0.0281157 0.00495793 0.0214242 0.00559238 0.0355653
27 3 O -1.42408 55.1765 0.774872 -1.2 1 0.081298 0.035769 0.00303713 0.0089561 0.00226851 0.00634633 0.00197044 0.0186614 0.00347346 0.0139389 0.00299844 0.0240303 0.00319035 0.0214972 0.0045406 0.0258317 0.00603576 0.0186586 0.00624765 0.0307359
28 3 O -1.05855 55.3234 3.28383 -1.2 1 0.0782409 0.0346146 0.00302825 0.00884209 0.00190372 0.00665759 0.00202279 0.0179234 0.00393452 0.0136025 0.00205512 0.0239088 0.00249459 0.0203652 0.00499658 0.023535 0.00573394 0.0191278 0.00719333 0.0283699
29 1 Mg -2.13649 58.732 0.696697 1.2 1 0.0155713 0.0140139 0.0048031 0.00598627 0.00146137 0.00616942 0.00140671 0.0197456 0.00202354 0.0116471 0.00225497 0.0266287 0.00326996 0.0203515 0.00434697 0.0291108 0.00448871 0.0221356 0.004374 0.036872
30 1 Mg 2.36736 61.6428 1.92375 1.2 1 0.00244186 0.00664612 0.00251591 0.00672516 0.00175853 0.0058248 0.00126359 0.0211467 0.00195483 0.0106908 0.00255016 0.0263845 0.00317382 0.0205037 0.00395308 0.0304332 0.0035374 0.0233187 0.00423957 0.0402486
31 2 Si -0.0453893 59.9618 1.81402 2.4 1 0.00788616 0.00965478 0.00324306 0.00639984 0.00252552 0.00582598 0.00127281 0.0203435 0.00214572 0.0108695 0.00269918 0.0252013 0.00297072 0.0210164 0.00429681 0.0296339 0.00397847 0.0227739 0.00460371 0.0390827
32 3 O 1.57825 59.7984 1.92728 -1.2 1 0.00732824 0.00946632 0.00305265 0.00636057 0.00218075 0.00594196 0.00162712 0.0196735 0.00255173 0.0105466 0.00214661 0.025933 0.00286396 0.0199999 0.00432869 0.0293125 0.00416076 0.022037 0.00532182 0.0378998
33 3 O -1.16941 63.5738 2.0225 -1.2 1 0.00106102 0.00557065 0.00191369 0.00692911 0.00132151 0.00623209 0.000998177 0.0213217 0.00138407 0.0109179 0.00164946 0.0262398 0.00228015 0.0207772 0.00341665 0.0295963 0.00294319 0.0234932 0.00322841 0.0402292
34 3 O -0.683392 60.6434 0.650815 -1.2 1 0.00554243 0.00793284 0.00318151 0.00589381 0.00209089 0.00618243 0.00155913 0.0212004 0.00205216 0.0108145 0.00198753 0.0261117 0.00257721 0.0212244 0.00418855 0.030427 0.0032408 0.0234404 0.00396167 0.0392994
35 1 Mg -2.30384 69.3944 3.03311 1.2 1 0.00366407 0.00504894 0.00128895 0.00796977 0.00130033 0.00647841 0.00106843 0.0211024 0.00175418 0.0103147 0.00147383 0.0278322 0.00206741 0.0209068 0.00217816 0.0292342 0.00253133 0.0229138 0.00264572 0.039649
36 3 O -0.74685 60.5976 3.18558 -1.2 1 0.00475241 0.00814587 0.00237729 0.00625241 0.00185999 0.0058 0.00144945 0.0201941 0.00233183 0.0103068 0.00201671 0.0253501 0.00319464 0.0207048 0.00400663 0.0287069 0.00485847 0.022376 0.00489667 0.0388168
37 1 Mg -2.38328 66.3732 4.77179 1.2 1 0.00321349 0.00482823 0.00112625 0.00759494 0.000696297 0.0061771 0.00178888 0.0206253 0.00207278 0.0114541 0.0018781 0.0269065 0.00225495 0.0213529 0.00380108 0.0295953 0.0032542 0.0237988 0.00270183 0.0399971
38 2 Si 0.523076 68.5411 4.60391 2.4 1 0.00353639 0.00503001 0.00113482 0.00881548 0.00177398 0.00634073 0.00197575 0.0208901 0.00137261 0.0108434 0.00425647 0.0273777 0.00405196 0.0210706 0.00497844 0.0284906 0.00357678 0.022597 0.0037283 0.0405536
39 3 O -1.06385 68.508 4.49486 -1.2 1 0.00318805 0.00478425 0.00139004 0.00863133 0.00156936 0.00637681 0.00160677 0.0203494 0.00214189 0.0104507 0.00169459 0.0272888 0.00252454 0.0212045 0.00308537 0.0282798 0.00346358 0.0225891 0.00275655 0.0402505
40 3 O 1.47507 64.4011 4.77171 -1.2 1 0.00225658 0.00492852 0.00141612 0.00776204 0.000999416 0.00582955 0.00126848 0.0211273 0.00142297 0.0106469 0.00215679 0.0261965 0.00312239 0.0207989 0.00432934 0.0284709 0.00402606 0.0238146 0.00351762 0.0412149
41 3 O 1.09936 67.7452 3.23405 -1.2 1 0.00281962 0.00470573 0.00132287 0.00773297 0.00129013 0.0060372 0.00117566 0.0206613 0.00175914 0.0106387 0.00224118 0.0271535 0.00233711 0.0216823 0.00326341 0.0295977 0.00229846 0.0228283 0.00246574 0.0404267
42 3 O 1.15502 67.8849 5.86042 -1.2 1 0.00309493 0.00557054 0.00140106 0.00829822 0.00142252 0.00679869 0.001805 0.021727 0.00182724 0.0110873 0.00273313 0.0263856 0.00294265 0.0216308 0.00419326 0.0293067 0.00335739 0.024075 0.00304056 0.0401659
43 1 Mg 0.0506816 64.1852 3.50574 1.2 1 0.00116308 0.00499393 0.00126323 0.00683143 0.000996071 0.0058916 0.00097036 0.0208373 0.00121706 0.0112896 0.0016791 0.0270913 0.00214206 0.0207272 0.00342786 0.0286995 0.00295794 0.0235537 0.00308253 0.040157
44 1 Mg -0.0935374 61.3103 5.06615 1.2 1 0.00169609 0.007361 0.00204729 0.00626964 0.00117279 0.00546318 0.0019152 0.0205592 0.00190615 0.0108964 0.00246657 0.0259044 0.00387273 0.0206366 0.00419949 0.0291705 0.00408493 0.0228674 0.00469098 0.0383427
45 2 Si 2.23499 63.0567 4.9935 2.4 1 0.00140227 0.00569594 0.00184932 0.00787665 0.00136042 0.0053388 0.00158935 0.0200003 0.00197958 0.0101358 0.00312427 0.0255888 0.00288471 0.0208445 0.00561423 0.028501 0.00497117 0.0232072 0.00480581 0.0404201
46 3 O -0.946852 63.1874 5.18404 -1.2 1 0.00108192 0.00536195 0.00126548 0.00793608 0.00117542 0.00525494 0.00146916 0.0199726 0.00197571 0.00993449 0.00204539 0.0258494 0.00330153 0.0205318 0.00345611 0.0285234 0.00434356 0.0230409 0.00398259 0.0399384
47 3 O 1.31315 59.4783 4.90495 -1.2 1 0.0099163 0.0121949 0.00434556 0.0058231 0.000981336 0.00614069 0.00173865 0.0202493 0.00261792 0.0109914 0.00311275 0.0252992 0.00410132 0.0197538 0.00464201 0.0263997 0.0044523 0.0213042 0.00466374 0.0356694
48 3 O 1.62743 62.3277 3.65475 -1.2 1 0.000995443 0.00622551 0.00183631 0.00676017 0.00145134 0.00573197 0.00202781 0.0209834 0.00191665 0.0104545 0.00235314 0.0256952 0.0037196 0.0208196 0.00450042 0.0298096 0.00385102 0.023663 0.00407491 0.0403117
49 1 Mg 0.0344217 64.0355 0.609908 1.2 1 0.00145173 0.0050799 0.0018005 0.00638255 0.000951206 0.00608251 0.00128814 0.0210894 0.00176576 0.0111371 0.00150147 0.0272149 0.0017384 0.0209263 0.00243656 0.0304289 0.00255621 0.0232298 0.00264078 0.0395659
50 3 O 1.74152 62.444 6.36888 -1.2 1 0.00111742 0.00622586 0.00145519 0.00724849 0.00112815 0.00551121 0.00144456 0.020445 0.00151554 0.0104217 0.00230796 0.0256198 0.0029586 0.0207928 0.0041561 0.0285921 0.00485785 0.0229528 0.00423905 0.0388954
51 1 Mg 0.0140138 67.1617 1.76248 1.2 1 0.00278428 0.00425125 0.00114748 0.00693527 0.000904307 0.00588281 0.00118088 0.020906 0.00218278 0.0107234 0.00262999 0.0273572 0.00222578 0.0219803 0.00309438 0.0302036 0.00284092 0.023102 0.00241217 0.0404162
52 2 Si -1.9522 64.9379 1.93739 2.4 1 0.0012327 0.00501843 0.00133418 0.0071823 0.00106524 0.00595829 0.00125377 0.0205458 0.00188365 0.0106535 0.00225112 0.0262077 0.00273324 0.0216023 0.00353593 0.0287183 0.00318967 0.0231094 0.00296595 0.0410627
53 3 O 1.30243 64.8134 1.97303 -1.2 1 0.00056574 0.00491327 0.0013698 0.00646837 0.0012242 0.00576629 0.00118995 0.0209963 0.00189377 0.0106492 0.00183129 0.0264527 0.00237894 0.0210985 0.00303391 0.0298772 0.00280461 0.0233108 0.00296357 0.0408596
54 3 O -0.851006 69.0083 1.54638 -1.2 1 0.00237483 0.00441988 0.00137148 0.00798602 0.0013591 0.00627789 0.00137987 0.0211319 0.00179193 0.0104297 0.00236854 0.0274957 0.00252588 0.0210058 0.00323431 0.0290545 0.00340924 0.0228534 0.00319509 0.0403329
55 3 O -1.22977 65.6873 0.685827 -1.2 1 0.00196535 0.00458924 0.00124201 0.00663929 0.00166008 0.00564661 0.0022871 0.0207442 0.00212604 0.010645 0.00219048 0.0262368 0.0025873 0.0216528 0.00297669 0.0309289 0.00294505 0.0233358 0.00230654 0.0408848
56 3 O -1.20933 65.7172 3.22963 -1.2 1 0.00228577 0.00490184 0.000887136 0.00672853 0.000962043 0.00594856 0.00148835 0.0211932 0.00179427 0.0108874 0.00229179 0.0262399 0.00273976 0.0219343 0.0031206 0.0299869 0.002929 0.0240789 0.00279708 0.0405419
57 1 Mg -2.3404 69.3997 -0.0890781 1.2 1 0.00241707 0.00351535 0.00137982 0.0075757 0.00156873 0.0060475 0.00148698 0.0205148 0.00222969 0.0104603 0.0024762 0.0276779 0.00224248 0.0207855 0.0031137 0.0294571 0.00331733 0.021976 0.0038133 0.0395892
58 1 Mg 2.47047 72.4056 1.44867 1.2 1 0.00365478 0.00511696 0.00211803 0.00869263 0.00170728 0.00615698 0.00158249 0.0215388 0.00282606 0.0105985 0.00210002 0.0276993 0.00329163 0.0219457 0.00339435 0.0297712 0.00384539 0.0225296 0.00542182 0.0397274
59 2 Si -0.258567 70.5573 1.55143 2.4 1 0.00355723 0.00430606 0.00188769 0.00907781 0.00187921 0.0057349 0.00190449 0.0206778 0.00218307 0.0104548 0.00234573 0.0270948 0.00249503 0.0218636 0.0036475 0.0291422 0.00440039 0.0222226 0.00471916 0.040956
60 3 O 1.28014 70.5422 1.54542 -1.2 1 0.00355378 0.00429329 0.0017541 0.00894785 0.00156759 0.00543235 0.00183988 0.0202598 0.0025276 0.0104237 0.00250241 0.0274693 0.00251774 0.021234 0.00206719 0.0295084 0.0034212 0.0219962 0.00407612 0.0403126
61 3 O -1.16247 74.2412 1.47299 -1.2 1 0.00339459 0.00564139 0.00222077 0.00897829 0.00171103 0.0060984 0.0011755 0.0220842 0.00218318 0.0111471 0.00258176 0.027741 0.00323833 0.0217163 0.00354099 0.0301199 0.00389444 0.0223996 0.00548509 0.03959
62 3 O -1.00133 71.2169 0.34924 -1.2 1 0.00303487 0.00465333 0.00149813 0.0083146 0.00192773 0.00582714 0.00222791 0.0208724 0.00226763 0.0106103 0.00225573 0.0264947 0.00229051 0.0220881 0.00360338 0.029805 0.00409128 0.0223206 0.00441922 0.0393345
63 1 Mg -2.18848 79.8525 3.04177 1.2 1 0.00153603 0.00469705 0.00138561 0.00856328 0.00119022 0.00685828 0.00128123 0.023591 0.00124168 0.0117579 0.00111302 0.0294663 0.00183545 0.0211664 0.0020016 0.0304038 0.00232959 0.0240838 0.00269226 0.0412134
64 3 O -0.976162 71.2066 2.87461 -1.2 1 0.00358299 0.00485092 0.00189351 0.00881856 0.00180287 0.00596174 0.00244789 0.0210341 0.00237247 0.0102688 0.0023109 0.0275308 0.00235645 0.0218012 0.00284105 0.0296786 0.00302125 0.0225214 0.00388401 0.0405374
65 1 Mg -2.18034 76.8172 4.46914 1.2 1 0.00121814 0.0055631 0.00135867 0.00924684 0.00139721 0.00669785 0.00145586 0.0236477 0.0018985 0.0112689 0.00214921 0.0294615 0.00318771 0.0218895 0.00357989 0.0303465 0.00313127 0.024168 0.00413718 0.0414732
66 2 Si 0.552952 78.9233 4.47145 2.4 1 0.00175691 0.0040806 0.00134395 0.00990139 0.00155376 0.00655275 0.00152901 0.0227642 0.00185628 0.011189 0.00208811 0.0286718 0.00202867 0.0219836 0.00360826 0.0296014 0.0036146 0.0240748 0.00354084 0.0426853
67 3 O -0.995875 79.1004 4.46319 -1.2 1 0.00200502 0.00417631 0.00160142 0.00999004 0.000981844 0.00625914 0.00140099 0.0226267 0.00237228 0.0112024 0.00196718 0.0286755 0.00238682 0.0215056 0.00263508 0.0304876 0.00352888 0.0241434 0.00363349 0.0424112
68 3 O 1.66743 75.177 4.47866 -1.2 1 0.00213308 0.00614666 0.00139627 0.00909987 0.00140174 0.00657499 0.00130008 0.0234795 0.00177586 0.0112897 0.00199544 0.0288291 0.00321672 0.0214077 0.0028453 0.0294385 0.00299328 0.0237053 0.00500393 0.0407743
69 3 O 1.1603 78.279 3.18169 -1.2 1 0.00134758 0.00457571 0.00106973 0.00901179 0.00171805 0.0064544 0.00176121 0.022827 0.00161596 0.011441 0.00181761 0.0286547 0.00255312 0.022099 0.00284304 0.0304109 0.00250588 0.0239045 0.00337151 0.0415759
70 3 O 1.34287 78.0581 5.7939 -1.2 1 0.00204684 0.00523629 0.0012897 0.00961642 0.000814918 0.00679847 0.00122518 0.0231837 0.0019414 0.0112088 0.00192857 0.0287238 0.00274203 0.0220906 0.00313984 0.0302394 0.00368917 0.0248875 0.00389985 0.041652
71 1 Mg 0.239851 74.604 2.91642 1.2 1 0.00342664 0.00559675 0.00191831 0.0088275 0.00148401 0.00664286 0.001158 0.022709 0.00156417 0.0111578 0.00177742 0.0290632 0.00262216 0.0211581 0.00261837 0.0300606 0.0028321 0.0230688 0.00495123 0.0391821
72 1 Mg 0.325508 71.8361 4.49101 1.2 1 0.00277955 0.0058279 0.00145739 0.00901813 0.00141451 0.00624799 0.00162594 0.0221702 0.00250436 0.01094 0.00253592 0.0286064 0.00313805 0.0221603 0.0035204 0.0300266 0.0036199 0.0232059 0.00503183 0.0404615
73 2 Si 2.32693 73.6941 4.47416 2.4 1 0.00216783 0.00574566 0.0015238 0.00947684 0.00155876 0.00626928 0.00169801 0.0225718 0.00208092 0.0107764 0.00209281 0.0277675 0.00334037 0.0221101 0.00394267 0.0298202 0.00349679 0.0232525 0.00553549 0.0410972
74 3 O -0.891892 73.9836 4.48455 -1.2 1 0.00219771 0.00606084 0.0011815 0.0096205 0.00152255 0.00631725 0.00110301 0.0219834 0.00222228 0.0105229 0.00188388 0.0284686 0.00346683 0.0214622 0.00267549 0.0301946 0.00279598 0.0233125 0.00499288 0.0404362
75 3 O 1.07811 70.0127 4.4539 -1.2 1 0.0034976 0.00564262 0.0013682 0.00864869 0.00131181 0.00656602 0.00126621 0.021797 0.00176357 0.0109712 0.00259492 0.0281494 0.00304062 0.0210738 0.0031779 0.0287525 0.00250571 0.0227267 0.0033745 0.0396572
76 3 O 1.62466 72.9988 3.18081 -1.2 1 0.00318326 0.00512754 0.00186308 0.00895335 0.00186042 0.00644332 0.00158905 0.0222909 0.00233277 0.0103607 0.00195834 0.0279152 0.00371973 0.0222935 0.00331293 0.0300666 0.00341949 0.0224905 0.00553547 0.0402372
77 1 Mg 0.075722 74.8027 -0.132536 1.2 1 0.00443623 0.00477125 0.00194868 0.00835805 0.00148465 0.00600977 0.00134961 0.0215857 0.00204541 0.0109693 0.00192043 0.0274098 0.00265123 0.0213256 0.00324067 0.0301169 0.00364924 0.0217829 0.00493754 0.038772
78 3 O 1.71911 72.9374 5.76048 -1.2 1 0.00110341 0.00633567 0.00166375 0.00902496 0.00114228 0.00629211 0.00197822 0.0222433 0.00212219 0.0107297 0.00216963 0.0281449 0.00332576 0.0217997 0.0039961 0.030169 0.00393875 0.0240435 0.0053948 0.0403619
79 1 Mg 0.0651074 77.648 1.33987 1.2 1 0.00274363 0.00488528 0.00214324 0.00847026 0.00126595 0.00626189 0.00113929 0.0226982 0.0018978 0.012018 0.00232023 0.0285841 0.00255951 0.0220472 0.00327424 0.0304368 0.00317564 0.0233361 0.00383789 0.0403941
80 2 Si -1.93584 75.7094 1.50442 2.4 1 0.003919 0.0048412 0.00222555 0.00939336 0.00215875 0.00591146 0.00160091 0.021702 0.00221464 0.0109644 0.00266294 0.0272771 0.00327465 0.0223087 0.00476582 0.0304178 0.00459086 0.0226316 0.00563771 0.0401359
81 3 O 1.23076 75.627 1.42754 -1.2 1 0.0036299 0.0046966 0.0025136 0.00899434 0.00187245 0.00584047 0.0015704 0.021548 0.00234469 0.0109342 0.00240549 0.0279723 0.0032309 0.0219024 0.00307375 0.0304966 0.00362074 0.0220668 0.00512573 0.0399683
82 3 O -0.979249 79.5806 1.47021 -1.2 1 0.000659533 0.00468688 0.0013585 0.00866031 0.000825182 0.00621738 0.00128805 0.0233732 0.00104588 0.012017 0.00251025 0.0291867 0.00252855 0.0217359 0.00292889 0.0307581 0.00304965 0.023271 0.00297276 0.0405499
83 3 O -1.41878 76.4435 0.265626 -1.2 1 0.00382015 0.00479793 0.00195181 0.00843052 0.00207682 0.0057955 0.00178238 0.0220771 0.001852 0.0109836 0.00247899 0.0274417 0.00313634 0.0216604 0.0042611 0.0310062 0.00438315 0.022386 0.00449636 0.0392089
84 3 O -1.22661 76.3713 2.74375 -1.2 1 0.00253968 0.00504966 0.00179415 0.00903985 0.00205739 0.00629641 0.00207859 0.0229772 0.00195286 0.0108121 0.00268069 0.0280249 0.002739 0.0222709 0.00298726 0.0308822 0.00357477 0.0233276 0.00428241 0.0409136
85 1 Mg -2.43271 80.3433 -0.00233264 1.2 1 0.000685675 0.00445262 0.0017187 0.00836916 0.00101027 0.00629654 0.00148761 0.0229739 0.0014086 0.0124616 0.00194371 0.0287361 0.00188707 0.0218428 0.00268069 0.0306566 0.00258815 0.0239074 0.0024029 0.0394493
86 1 Mg 2.36954 83.1707 1.41471 1.2 1 0.00349588 0.00464174 0.00130042 0.00783253 0.00164423 0.00622404 0.00161544 0.023225 0.00242711 0.0127792 0.00251001 0.0282908 0.00188538 0.0223123 0.00332295 0.0316297 0.00363717 0.0246486 0.00424535 0.0421065
87 2 Si -0.29426 81.06 1.63602 2.4 1 0.00167556 0.00440795 0.00158639 0.00937861 0.00173056 0.00622374 0.00148095 0.0226566 0.00137108 0.0121202 0.00274068 0.0282011 0.00272263 0.0224267 0.00435623 0.0307125 0.00373173 0.023925 0.00249542 0.0417362
88 3 O 1.30033 81.0852 1.69303 -1.2 1 0.00151628 0.00427379 0.00147402 0.00877578 0.00138315 0.00604485 0.00115711 0.0228124 0.0023333 0.0119478 0.00160556 0.0285872 0.00171405 0.0219529 0.00233449 0.0311453 0.00307844 0.023703 0.00240052 0.0419456
89 3 O -1.42451 85.0933 1.60672 -1.2 1 0.00564 0.00495952 0.00139716 0.0076953 0.0025708 0.00643108 0.00146818 0.0239611 0.00212662 0.0128161 0.00230554 0.0281371 0.00262591 0.0221798 0.0038006 0.03183 0.00300003 0.0253869 0.0043114 0.0426169
90 3 O -0.926107 81.821 0.400588 -1.2 1 0.00214282 0.00418444 0.00193289 0.0085201 0.00190458 0.0064011 0.00177899 0.0230886 0.00167628 0.0125211 0.00210935 0.0278064 0.00214571 0.0228612 0.00320385 0.0314671 0.00332928 0.024199 0.00317986 0.0405577
91 1 Mg -2.60951 90.6351 2.78418 1.2 1 0.00573139 0.00562839 0.00169731 0.00619166 0.00253284 0.00626535 0.00169378 0.0229151 0.00245576 0.0116586 0.00186864 0.0277505 0.00298263 0.0201687 0.00372284 0.0335378 0.00343113 0.0264567 0.0046389 0.0421484
92 3 O -0.972536 81.8175 2.8979 -1.2 1 0.00297185 0.00468632 0.00147423 0.00836923 0.00207455 0.00660595 0.00143138 0.0233144 0.00172413 0.0124959 0.00200718 0.0281314 0.00224301 0.0226055 0.00302808 0.0313698 0.00331256 0.0246817 0.00268063 0.0423338
93 1 Mg -2.25927 87.9195 4.66899 1.2 1 0.00365306 0.00605065 0.00111884 0.00738319 0.00138977 0.00645602 0.00198052 0.0234862 0.00261512 0.0116001 0.00194625 0.0279717 0.00234819 0.0225002 0.00335414 0.0330898 0.00308983 0.0270351 0.00278364 0.044742
94 2 Si 0.333082 89.6159 4.35892 2.4 1 0.00434208 0.00627718 0.00106635 0.00768649 0.00174471 0.00644589 0.00216818 0.0228284 0.00240896 0.0107791 0.00234351 0.026662 0.00243644 0.0211661 0.0048564 0.0327884 0.00413492 0.0271059 0.00403552 0.044453
95 3 O -1.2523 89.7983 4.43528 -1.2 1 0.00392936 0.00593277 0.00109808 0.00722772 0.00190472 0.00634888 0.00145583 0.0227326 0.00254677 0.0109213 0.00160318 0.0276054 0.00219433 0.0208197 0.00283532 0.0329625 0.00323151 0.02688 0.00375572 0.0436235
96 3 O 1.54329 85.9309 4.49145 -1.2 1 0.00389551 0.00589946 0.00116064 0.0078292 0.00159911 0.00681415 0.00159682 0.0244007 0.00120097 0.0122733 0.00212048 0.028422 0.00230869 0.0213609 0.00354047 0.0323229 0.00287198 0.0265201 0.00289791 0.0441729
97 3 O 0.994485 89.1681 3.04721 -1.2 1 0.00489627 0.00601978 0.00115631 0.00690566 0.00185857 0.00634748 0.0018618 0.0235783 0.00236747 0.0114325 0.00164955 0.0274014 0.00253979 0.0215829 0.00393015 0.0336398 0.00390908 0.0267608 0.00360137 0.0437033
98 3 O 1.02189 88.9041 5.62663 -1.2 1 0.0027882 0.00574904 0.000989603 0.00733837 0.00133678 0.00690802 0.00235596 0.0231789 0.00260591 0.0107898 0.00159272 0.0269833 0.00213729 0.0218189 0.00289927 0.0330114 0.00296302 0.0270324 0.00282811 0.0437657
99 1 Mg -0.080914 85.3166 3.07289 1.2 1 0.00501472 0.00531421 0.00116294 0.00784822 0.00191136 0.00645826 0.00125139 0.0235552 0.0016273 0.0123583 0.00193499 0.0283067 0.00164621 0.0215875 0.00301139 0.0324263 0.00278032 0.0257782 0.00319524 0.0428076
100 1 Mg 0.152519 82.3806 4.45234 1.2 1 0.00467095 0.00466171 0.00109225 0.00875598 0.00146098 0.00671018 0.00159952 0.0232748 0.00237983 0.0121808 0.00271365 0.0285344 0.00218715 0.0216584 0.00384971 0.0313613 0.00321597 0.0253121 0.00348747 0.0426504
101 2 Si 2.07444 84.3749 4.4062 2.4 1 0.00529798 0.004605 0.00138164 0.0091714 0.00175031 0.00664622 0.00165026 0.0228488 0.00189394 0.0116816 0.00286556 0.0275632 0.00219366 0.0219689 0.00507397 0.0314562 0.00478252 0.0249996 0.00453791 0.0442268
102 3 O -1.09443 84.3461 4.49536 -1.2 1 0.00515805 0.00473155 0.00164619 0.00901548 0.00172859 0.00660164 0.00133988 0.0223975 0.00262171 0.011628 0.0023536 0.0277179 0.00175361 0.0218039 0.00266072 0.0321699 0.00316245 0.0254769 0.00345671 0.0439384
103 3 O 1.23198 80.3859 4.49563 -1.2 1 0.00287424 0.00448023 0.00157437 0.00921353 0.00136446 0.00676843 0.00111382 0.0232144 0.0016769 0.0112612 0.00175527 0.0287976 0.00169849 0.02148 0.00294701 0.030511 0.00356282 0.0246584 0.00326342 0.0427033
104 3 O 1.40979 83.7188 3.17558 -1.2 1 0.00435016 0.00466475 0.00109514 0.00836712 0.00171201 0.00637075 0.00216789 0.0229297 0.00148338 0.011745 0.00178459 0.0276665 0.00214871 0.0220409 0.00313453 0.032287 0.00272871 0.0252864 0.00321102 0.0428804
105 1 Mg -0.106582 85.3803 0.0922267 1.2 1 0.00527825 0.00470727 0.0010782 0.0072274 0.00203194 0.00597769 0.00195707 0.0232991 0.00198774 0.0130235 0.00202122 0.0284899 0.00247537 0.0215994 0.00381069 0.0316824 0.00318387 0.0245626 0.00500757 0.0411184
106 3 O 1.49701 83.6042 5.74237 -1.2 1 0.00522526 0.00536247 0.00143827 0.00841536 0.00165346 0.00705906 0.00172831 0.0232813 0.00241775 0.0114867 0.00197449 0.0274562 0.00212455 0.0216014 0.00354011 0.0317714 0.00350453 0.0256212 0.00373188 0.0426567
107 1 Mg 0.147953 88.1705 1.42777 1.2 1 0.00587642 0.00624074 0.000683578 0.00688718 0.00273487 0.00599576 0.0019304 0.0230733 0.00262705 0.012506 0.00256411 0.0275037 0.0023799 0.0221836 0.00418614 0.034669 0.00396502 0.026158 0.00437451 0.0427061
108 2 Si -2.15944 86.5667 1.50375 2.4 1 0.00599315 0.0049445 0.00115564 0.00823769 0.00302553 0.00622103 0.00219753 0.0226547 0.00169009 0.0120685 0.00287405 0.0265108 0.00344504 0.022597 0.00372137 0.0333383 0.00353428 0.0254579 0.00446255 0.0431201
109 3 O 1.08376 86.3759 1.41734 -1.2 1 0.00614928 0.00486498 0.00125163 0.00776869 0.00321399 0.00610265 0.00182266 0.0223893 0.00255619 0.0120617 0.00230109 0.0271196 0.00274397 0.0221477 0.00437999 0.0325213 0.00387153 0.0251716 0.00521058 0.0422506
110 3 O -1.16623 90.2772 1.42179 -1.2 1 0.00602917 0.00550665 0.00153103 0.00672941 0.00279408 0.00595572 0.00213394 0.0219934 0.00273576 0.0112149 0.00202974 0.0273267 0.00303538 0.020624 0.00442564 0.0333659 0.00405352 0.0254429 0.00478852 0.0425062
111 3 O -1.50718 87.1709 0.234266 -1.2 1 0.00628611 0.00542513 0.00111628 0.00694882 0.00307654 0.00582893 0.00175165 0.0229319 0.00215985 0.0121347 0.00216645 0.0265495 0.00319919 0.0222466 0.00416844 0.0336969 0.0038015 0.0255258 0.00511054 0.0426027
112 3 O -1.32515 87.1959 2.76575 -1.2 1 0.00548615 0.00545098 0.0010862 0.00727023 0.00265208 0.0062849 0.00185576 0.0233344 0.00230806 0.0118851 0.00200857 0.0268649 0.00298362 0.0221686 0.00333991 0.0331264 0.0032849 0.025845 0.00371033 0.0433439
113 1 Mg -2.47307 90.6452 0.0272665 1.2 1 0.00622059 0.00561388 0.001533 0.00563524 0.00249744 0.00575857 0.0017228 0.0224968 0.00189022 0.0120187 0.00207368 0.0273895 0.00245973 0.0209687 0.00336922 0.0338873 0.00354071 0.0252825 0.0044219 0.0425177
114 1 Mg 2.14312 93.6735 1.31114 1.2 1 0.00641718 0.00537946 0.00216924 0.00546012 0.00209496 0.00513055 0.00157615 0.0221321 0.00256738 0.010977 0.00254747 0.0260451 0.00282859 0.0200382 0.00425778 0.0334375 0.00402292 0.0255216 0.00534814 0.0414515
115 2 Si -0.50957 91.8643 1.42403 2.4 1 0.00674779 0.00537439 0.00188109 0.00598178 0.00314159 0.0058365 0.00265135 0.0218314 0.00278627 0.0110062 0.00238048 0.0263619 0.00346835 0.0210527 0.00395442 0.0338444 0.00413878 0.0254331 0.00544961 0.0421986
116 3 O 1.11468 91.7223 1.47359 -1.2 1 0.00660644 0.00542935 0.00211721 0.00593644 0.00287573 0.00557123 0.00212281 0.021406 0.00313456 0.0108477 0.00212682 0.0265416 0.00316833 0.0203939 0.004052 0.0338076 0.0040301 0.0248545 0.00520348 0.0426758
117 3 O -1.28401 95.2355 1.42815 -1.2 1 0.00573694 0.00504942 0.00143188 0.00582441 0.00194497 0.00550045 0.00128632 0.0224594 0.00157379 0.0106323 0.0015959 0.0260663 0.00236169 0.0191758 0.00327175 0.0322088 0.00325843 0.0250152 0.00385396 0.0406634
118 3 O -0.950178 92.4491 0.0649641 -1.2 1 0.00599778 0.00541129 0.0021029 0.00544558 0.00270911 0.00583978 0.00167825 0.0224543 0.00246445 0.0110017 0.00182034 0.0257921 0.00316999 0.0214147 0.00346727 0.0341632 0.00419747 0.0251794 0.00569758 0.0420751
119 1 Mg -2.18776 100.825 2.95512 1.2 1 0.00260526 0.00556347 0.00097165 0.00730797 0.0014134 0.00549103 0.00135464 0.020647 0.00147484 0.00996701 0.00159998 0.0249959 0.00198177 0.0180983 0.00295996 0.0301928 0.00337357 0.0242264 0.00342469 0.0373053