ITEM: TIMESTEP
25200
ITEM: NUMBER OF ATOMS
5600
ITEM: BOX BOUNDS xy xz yz pp pp pp
0	7.1235	0
0	201.985	2.3745
0	119.584	0
ITEM: ATOMS id type element xu yu zu q Q_1 Q_2 Q_3 Q_4 Q_5 Q_6 Q_7 Q_8 Q_9 Q_10 Q_11 Q_12 Q_13 Q_14 Q_15 Q_16 Q_17 Q_18 Q_19 Q_20 Q_21
1 1 Mg -1.86141 49.4105 -0.962789 1.2 1 0.229716 0.0826778 0.0195853 0.0272766 0.00477626 0.0168187 0.00420123 0.0226969 0.00538106 0.0256414 0.0054426 0.0319859 0.00955119 0.0266355 0.00603431 0.0260877 0.00777395 0.0217058 0.00991227 0.0385151
2 1 Mg 2.69615 51.0912 2.225 1.2 1 0.189576 0.0719209 0.0123032 0.0214287 0.00275475 0.011249 0.00317892 0.0196969 0.00429617 0.0203008 0.00553159 0.0277642 0.0060145 0.0238485 0.00585711 0.0250364 0.00775201 0.0200684 0.00936173 0.035964
3 2 Si 0.716791 50.8375 0.354421 2.4 1 0.198649 0.0760518 0.0133529 0.023479 0.00348377 0.0125101 0.00273528 0.021216 0.0050983 0.0229261 0.00424899 0.0298758 0.00753778 0.0261314 0.00544468 0.025679 0.00797485 0.020396 0.00953949 0.0373428
4 3 O 2.1126 50.2247 0.551916 -1.2 1 0.213449 0.07846 0.0176349 0.0251168 0.0045056 0.0131577 0.00355144 0.0206624 0.00528003 0.0229516 0.00553382 0.0292218 0.00895561 0.0259963 0.00634072 0.0257348 0.00848715 0.0207863 0.00966623 0.0365239
5 3 O -1.61407 53.5165 1.74277 -1.2 1 0.133488 0.0550396 0.00429043 0.0150392 0.00210857 0.00922 0.00267681 0.0194842 0.00339035 0.0160652 0.0034835 0.0282859 0.00518189 0.0210204 0.0032806 0.0260827 0.00683271 0.0197068 0.00667413 0.0395268
6 3 O 0.060919 50.0827 -0.877095 -1.2 1 0.211224 0.078051 0.0167866 0.0244414 0.00393852 0.0152958 0.00375284 0.02159 0.00511424 0.023686 0.00451313 0.0302114 0.00839108 0.0262253 0.0059848 0.025623 0.00732142 0.0202955 0.0085106 0.0374198
7 1 Mg -2.66011 59.3948 3.01296 1.2 1 0.015845 0.0137009 0.00571617 0.00587489 0.00109281 0.00628101 0.00122244 0.0220504 0.00267138 0.00924002 0.0016689 0.0295572 0.00231806 0.0197653 0.00293882 0.0313915 0.00507724 0.0245238 0.00402859 0.0469809
8 3 O -0.0884327 50.6542 1.69183 -1.2 1 0.201177 0.0761436 0.0129253 0.0232084 0.00268067 0.0116016 0.00339323 0.020406 0.00496238 0.0220817 0.00526096 0.0280801 0.00738254 0.0255375 0.00581231 0.0248555 0.00861666 0.0203175 0.00938791 0.0355733
9 1 Mg -2.51367 56.5022 4.45868 1.2 1 0.0721364 0.0363279 0.00446899 0.00933269 0.00153612 0.00676764 0.00187907 0.020103 0.00271806 0.0119493 0.00223742 0.0272035 0.00286444 0.0196306 0.00355712 0.0284884 0.00511896 0.0228523 0.00563492 0.0416362
10 2 Si 0.141737 58.4248 4.47744 2.4 1 0.0282577 0.0197551 0.0071251 0.00683226 0.000883162 0.00647235 0.00256113 0.0216451 0.00279432 0.008755 0.00270538 0.027192 0.00270549 0.0204608 0.00449886 0.0307485 0.00522637 0.0245655 0.00528345 0.0463772
11 3 O -1.38284 58.5632 4.41017 -1.2 1 0.0242924 0.0178034 0.00698097 0.00641505 0.000908804 0.00631343 0.00211106 0.021275 0.00253446 0.00835342 0.00198619 0.0283263 0.00304926 0.019264 0.00369145 0.0307104 0.00541146 0.0237795 0.0048145 0.0461642
12 3 O 1.28106 54.4411 4.60016 -1.2 1 0.113681 0.0488368 0.00158046 0.013081 0.00134291 0.00800158 0.00262768 0.0198517 0.00263445 0.0150273 0.00321706 0.0268775 0.00340616 0.0209348 0.00385181 0.0260751 0.00505551 0.0213061 0.00626449 0.0391
13 3 O 0.817963 57.6942 3.1344 -1.2 1 0.0395684 0.025315 0.0076966 0.0066813 0.00119584 0.00603254 0.00209071 0.0217439 0.00282799 0.00976422 0.00215421 0.0283509 0.00285545 0.0203229 0.00412893 0.0303137 0.00489113 0.0237461 0.0052486 0.0450866
14 3 O 0.861466 57.7835 5.68951 -1.2 1 0.0389294 0.0244549 0.00757394 0.00676919 0.00125099 0.00632708 0.00171791 0.0209597 0.00269426 0.00886094 0.00213364 0.0275453 0.00230552 0.0197878 0.00426758 0.0300752 0.00469575 0.0239069 0.00544846 0.0442336
15 1 Mg -0.0110124 53.7905 3.09674 1.2 1 0.125565 0.0542023 0.00157189 0.0144694 0.00136263 0.0087853 0.00240966 0.0196955 0.00312602 0.0166914 0.00357913 0.0284094 0.00424751 0.0210181 0.00405576 0.0256978 0.00550643 0.0206423 0.00696763 0.0384275
16 1 Mg 0.464015 49.977 3.30474 1.2 1 0.220384 0.0772274 0.0181073 0.0245489 0.00352139 0.0128401 0.00385723 0.0202012 0.00394775 0.0220444 0.00526848 0.0270734 0.00788933 0.0252538 0.00602302 0.0241992 0.00896591 0.0210131 0.010056 0.0346407
17 2 Si 2.13356 52.9303 4.62636 2.4 1 0.152631 0.0603744 0.00560625 0.0169663 0.00204501 0.00930377 0.00314009 0.0190975 0.0033659 0.0169855 0.00439636 0.0266531 0.00486999 0.0216042 0.00522494 0.0253146 0.00485255 0.0201547 0.00723589 0.0368826
18 3 O -1.12744 53.1875 4.61412 -1.2 1 0.137546 0.0555729 0.00377536 0.0150673 0.00218518 0.00816423 0.00329947 0.0189579 0.00344451 0.0158543 0.00347024 0.0277832 0.00500679 0.0226083 0.00430397 0.0259523 0.00600644 0.0207618 0.00684332 0.0373549
19 3 O 2.27443 49.2827 3.23528 -1.2 1 0.230759 0.0811715 0.0196584 0.0263551 0.00408209 0.013828 0.00420521 0.0200206 0.00379328 0.0228215 0.00629707 0.0273124 0.00900458 0.0246452 0.00741261 0.0243568 0.00989755 0.0221547 0.0102619 0.0339435
20 3 O 1.5182 52.1277 3.4917 -1.2 1 0.165475 0.0634389 0.00783929 0.017648 0.00235755 0.0100715 0.00360947 0.0189092 0.00303327 0.0180955 0.00471276 0.0270457 0.00548574 0.0228011 0.00437181 0.0249294 0.00615056 0.0199549 0.00762356 0.0366669
21 1 Mg -0.302265 54.076 0.162172 1.2 1 0.125096 0.0537244 0.0031547 0.0151551 0.00190589 0.00943932 0.00218416 0.0200112 0.0036677 0.0171844 0.00296842 0.0290569 0.00463913 0.0210271 0.00328929 0.026123 0.00605015 0.0202135 0.00569023 0.0398136
22 3 O 1.58985 52.0485 5.92838 -1.2 1 0.167089 0.0638243 0.00780652 0.0180159 0.00221236 0.00994571 0.00289321 0.0189477 0.00346379 0.0180525 0.00417249 0.0265147 0.00559893 0.0231517 0.00476949 0.0248121 0.0050272 0.0205607 0.00760305 0.0350465
23 1 Mg -0.318984 56.9798 1.48855 1.2 1 0.0501972 0.0311203 0.00778342 0.00765527 0.00148473 0.00647995 0.00153537 0.0207666 0.0045585 0.0111115 0.00237739 0.0284378 0.00327359 0.0206975 0.00459714 0.0289093 0.00633391 0.0223595 0.00470722 0.0441967
24 2 Si -2.30226 55.0362 1.74518 2.4 1 0.101054 0.0465059 0.00128852 0.0120238 0.00153098 0.00752089 0.00199719 0.0197624 0.00414154 0.0139905 0.0031331 0.0274593 0.00339867 0.0211296 0.00376674 0.0263109 0.00644533 0.0204671 0.00613361 0.041147
25 3 O 0.932649 54.858 1.70672 -1.2 1 0.107289 0.048018 0.000949191 0.0128586 0.00151098 0.0082835 0.00208543 0.0194681 0.00363618 0.0147376 0.00308392 0.0279309 0.00430712 0.0204677 0.00396903 0.0267742 0.0059732 0.0209406 0.00558535 0.0406684
26 3 O -1.32062 58.7677 1.50205 -1.2 1 0.021921 0.0178729 0.00771992 0.00600466 0.00132675 0.00602071 0.0013682 0.0222456 0.00397971 0.00925689 0.00261108 0.0295037 0.00314103 0.0203954 0.00400713 0.0311275 0.00623812 0.024132 0.00532853 0.0470034
27 3 O -1.62133 55.6109 0.301801 -1.2 1 0.0866303 0.0418415 0.00270369 0.0105752 0.0016052 0.00693386 0.00170685 0.0198358 0.00425854 0.0132678 0.00293878 0.0278795 0.00359251 0.0204853 0.00405887 0.0275991 0.0071147 0.0213765 0.00554099 0.0417305
28 3 O -1.57362 55.8397 2.88232 -1.2 1 0.0809872 0.0389798 0.00308607 0.00980751 0.00131811 0.0072119 0.00178934 0.0204374 0.00398583 0.0123832 0.00252264 0.027223 0.00283628 0.0199466 0.00336833 0.0278063 0.00650028 0.0223417 0.00562792 0.04191
29 1 Mg -2.591 59.2196 -0.0174849 1.2 1 0.017062 0.0159012 0.00656019 0.00590129 0.00118217 0.00610023 0.00132745 0.0222539 0.00361588 0.00957351 0.00188135 0.030002 0.00280604 0.020687 0.00369599 0.031297 0.00553879 0.0242267 0.00456972 0.0472448
30 1 Mg 2.10219 62.3147 1.46003 1.2 1 0.00241452 0.00556324 0.00117554 0.00633974 0.00101574 0.00601642 0.0012199 0.0234145 0.00248491 0.00885542 0.00180449 0.0295451 0.001357 0.0197232 0.00271525 0.0333092 0.00362087 0.0254632 0.00350658 0.0501091
31 2 Si -0.638173 60.2365 1.45257 2.4 1 0.010582 0.0103733 0.00417887 0.00747537 0.00159979 0.00666606 0.000871059 0.0224047 0.00258002 0.00956926 0.00308586 0.0287505 0.00261049 0.0210603 0.0037454 0.0319369 0.00585964 0.0251287 0.00439558 0.0498021
32 3 O 0.971162 60.0874 1.47956 -1.2 1 0.0117231 0.011666 0.00523229 0.00650538 0.00134102 0.00597501 0.00131858 0.0222099 0.00313461 0.00897657 0.0017529 0.0292475 0.00301 0.019687 0.0031894 0.0320569 0.00473494 0.0244838 0.00396767 0.0488016
33 3 O -1.42798 64.1054 1.47471 -1.2 1 0.00204225 0.00495038 0.00103333 0.00606099 0.00121765 0.00597106 0.000993542 0.0237753 0.00150869 0.00886245 0.00164997 0.0294165 0.00217552 0.0194122 0.00317814 0.0334422 0.00341887 0.0248765 0.00476166 0.0502588
34 3 O -1.34692 60.8843 0.23091 -1.2 1 0.00617086 0.00846184 0.00334944 0.00621443 0.00120625 0.00640164 0.0013543 0.0227016 0.00297932 0.0086894 0.00203125 0.0290975 0.00248748 0.0206055 0.00384136 0.032523 0.00443133 0.0251893 0.00320464 0.049078
35 1 Mg -2.38776 69.7905 2.81336 1.2 1 0.00136983 0.00364247 0.00132976 0.00534393 0.00092657 0.00536942 0.0010832 0.0238807 0.000963056 0.0096995 0.00145639 0.0288709 0.00161302 0.019817 0.00214595 0.0331009 0.00195241 0.0241854 0.00222884 0.0487753
36 3 O -1.1858 61.0495 2.71667 -1.2 1 0.00659979 0.00761008 0.00251603 0.00592039 0.00105225 0.00644287 0.00109486 0.0226942 0.00220449 0.00883403 0.00183378 0.0289097 0.00191289 0.0202311 0.00305883 0.0328457 0.00359759 0.0252382 0.00321043 0.0495488
37 1 Mg -2.4286 66.9925 4.44738 1.2 1 0.0013851 0.00397168 0.00119944 0.0061772 0.00134288 0.00544705 0.00112799 0.023336 0.00165984 0.00995471 0.00244467 0.0294706 0.00243147 0.0199687 0.00310681 0.0331241 0.00311221 0.0253155 0.00356027 0.0507219
38 2 Si 0.286431 68.7063 4.3922 2.4 1 0.00101344 0.00379149 0.00114317 0.00630088 0.00152242 0.00570674 0.00161387 0.0236714 0.00108371 0.00949036 0.00207195 0.0282266 0.00198442 0.0201501 0.00334867 0.032509 0.00311682 0.0249255 0.00316686 0.0508505
39 3 O -1.22791 68.8913 4.44039 -1.2 1 0.000735481 0.00358583 0.00143078 0.00579823 0.00161066 0.00549079 0.00163146 0.0233775 0.00178035 0.00942101 0.00162723 0.029093 0.00257832 0.0197855 0.00264171 0.0327396 0.00361472 0.0243869 0.00334702 0.0504844
40 3 O 1.37907 65.034 4.40364 -1.2 1 0.00127329 0.00453749 0.00122306 0.00655647 0.00112177 0.00665182 0.000990432 0.0238059 0.00152714 0.00913873 0.00225266 0.0297466 0.00238538 0.0191898 0.00362819 0.0326377 0.00316129 0.0255213 0.00441093 0.0509386
41 3 O 0.955916 68.0889 3.07942 -1.2 1 0.000736617 0.00367752 0.00148079 0.00531055 0.00155292 0.00531868 0.00184834 0.0241056 0.00143763 0.00979368 0.00228542 0.0282725 0.0019981 0.0202963 0.00362012 0.033094 0.00279599 0.0249096 0.00312976 0.0501177
42 3 O 1.03388 68.0285 5.65901 -1.2 1 0.000762141 0.00385287 0.00116945 0.00572732 0.00136192 0.00560902 0.00131715 0.0239333 0.00176982 0.00928405 0.00205391 0.0283698 0.00191329 0.0199648 0.00286493 0.033075 0.00301495 0.0257346 0.00363839 0.0507649
43 1 Mg 0.0597553 64.6346 2.9386 1.2 1 0.00131651 0.004561 0.000877888 0.00571504 0.00137387 0.00602201 0.00105745 0.0233077 0.00138818 0.00920156 0.00122863 0.0300579 0.00192695 0.01909 0.00272402 0.0330576 0.00249643 0.0246774 0.00456948 0.0498613
44 1 Mg -0.254865 61.7365 4.32748 1.2 1 0.00517469 0.00665904 0.00204287 0.00570013 0.00122326 0.00647275 0.00158122 0.0225293 0.00157538 0.00867506 0.00256851 0.0292621 0.0023733 0.0195719 0.00327202 0.0327698 0.00334595 0.0255019 0.00444855 0.0495814
45 2 Si 1.97554 63.5557 4.5195 2.4 1 0.00207852 0.00495516 0.00141136 0.00703122 0.00112443 0.00671356 0.00153144 0.0229117 0.00148867 0.00880608 0.00189884 0.0287568 0.00203869 0.0194806 0.0040588 0.0324276 0.00276353 0.0255066 0.00495577 0.0516232
46 3 O -1.18773 63.6501 4.46882 -1.2 1 0.00220663 0.00481794 0.00127098 0.00674812 0.00124324 0.00623881 0.001193 0.0226963 0.00266745 0.00835031 0.00194334 0.0295254 0.00198352 0.0190662 0.00266491 0.0329328 0.00325622 0.0254232 0.00409518 0.0512093
47 3 O 0.788763 59.9281 4.40986 -1.2 1 0.0128554 0.0113404 0.00429004 0.00570095 0.000800758 0.00680413 0.00226329 0.0225941 0.00230391 0.00888347 0.00199675 0.0289567 0.00212205 0.0200777 0.00407638 0.0314709 0.00429213 0.0246907 0.00385544 0.0481898
48 3 O 1.2813 62.823 3.23373 -1.2 1 0.00259549 0.00528742 0.00138084 0.0066992 0.00132848 0.00605478 0.00201206 0.0225662 0.00145833 0.00892252 0.00141274 0.0289967 0.00204429 0.0197951 0.00342949 0.0330323 0.00298938 0.0248896 0.00434193 0.0505977
49 1 Mg -0.154201 64.5515 -0.0956419 1.2 1 0.0020248 0.0045725 0.00098631 0.00539727 0.00104461 0.00543599 0.00080356 0.0237656 0.00144616 0.00900563 0.00128982 0.0295518 0.00169058 0.0196024 0.00236226 0.0334769 0.00252959 0.0246525 0.00350881 0.0495295
50 3 O 1.40933 63.0269 5.92254 -1.2 1 0.00279205 0.00552634 0.00112738 0.00650411 0.00105544 0.00648331 0.00185768 0.0231493 0.00127087 0.00837269 0.00184821 0.0292506 0.00191684 0.019335 0.0037039 0.0326327 0.00299646 0.0261545 0.00437794 0.051246
51 1 Mg 0.0203895 67.5956 1.39157 1.2 1 0.000689043 0.0039391 0.000960538 0.00510188 0.00115439 0.00484396 0.000871269 0.0237533 0.00230265 0.0100312 0.00231951 0.028901 0.00218661 0.020578 0.00305894 0.0338925 0.00220244 0.0241262 0.00321599 0.0493798
52 2 Si -2.06455 65.5645 1.52926 2.4 1 0.00158808 0.00418102 0.000704725 0.00639118 0.00203457 0.00550105 0.00194095 0.0232373 0.00179473 0.00969555 0.00252915 0.0284427 0.00282995 0.0205113 0.00457176 0.0330979 0.00403547 0.0239049 0.0045042 0.0510431
53 3 O 1.09704 65.4951 1.48442 -1.2 1 0.00149518 0.00433107 0.000993151 0.00579515 0.00153937 0.00552713 0.00126762 0.0233653 0.0023242 0.00935869 0.00166257 0.0289032 0.00230178 0.019754 0.00296318 0.0335364 0.00237219 0.024388 0.00430845 0.0503003
54 3 O -1.01285 69.455 1.51594 -1.2 1 0.00126487 0.00380838 0.000740063 0.00556683 0.00103474 0.00558337 0.00110689 0.0240215 0.00118178 0.00976509 0.00197151 0.0285728 0.00251631 0.0201326 0.00331364 0.032899 0.00310684 0.02393 0.00404236 0.0488091
55 3 O -1.32819 66.2158 0.15426 -1.2 1 0.00188153 0.00425598 0.000622815 0.00538818 0.00205426 0.00489189 0.00214647 0.0237643 0.0015636 0.00974859 0.00177132 0.0279818 0.00318772 0.0202917 0.00326066 0.0342929 0.0028065 0.024477 0.00406866 0.0501463
56 3 O -1.46166 66.2799 2.71085 -1.2 1 0.000994415 0.00416208 0.000647785 0.00539018 0.00176385 0.00528632 0.00167687 0.0240418 0.00170336 0.00960426 0.0018862 0.0284407 0.00225689 0.0202715 0.00335747 0.0337335 0.00298886 0.0251236 0.00394464 0.0505963
57 1 Mg -2.36377 69.9508 -0.0428066 1.2 1 0.000980991 0.00426091 0.00106257 0.00494551 0.001079 0.00570331 0.00060476 0.0243381 0.000785287 0.00960576 0.00116524 0.0285726 0.00183287 0.0200523 0.00196571 0.0333778 0.00191493 0.0240569 0.00311313 0.0480974
58 1 Mg 2.25157 72.6535 1.61504 1.2 1 0.000959604 0.00435351 0.00120072 0.00569367 0.00104219 0.00502768 0.0011716 0.0237015 0.0021042 0.010134 0.00250038 0.0280785 0.00237743 0.0204005 0.00275023 0.0334303 0.00328072 0.024134 0.00272481 0.0492158
59 2 Si -0.31192 70.9202 1.42242 2.4 1 0.00135504 0.00399774 0.00120737 0.00617783 0.00124158 0.00523804 0.0016793 0.0236819 0.00119393 0.00969503 0.00205615 0.0270136 0.00304797 0.0207038 0.003445 0.0330511 0.00269953 0.0241084 0.00253705 0.0498504
60 3 O 1.24702 70.7369 1.45054 -1.2 1 0.00165217 0.00401075 0.00122902 0.00563467 0.00154215 0.00498341 0.00174064 0.0233247 0.00225823 0.00940577 0.00163262 0.0280828 0.00218822 0.0200197 0.0026395 0.0334956 0.00262822 0.0236218 0.00318979 0.0490418
61 3 O -1.35539 74.6603 1.61258 -1.2 1 0.000840508 0.00475314 0.00148175 0.00565396 0.00109094 0.00560031 0.00140581 0.0241445 0.00134268 0.0092432 0.00210038 0.0279957 0.00213388 0.0196802 0.00259842 0.0329548 0.00328953 0.0243082 0.00402841 0.0494358
62 3 O -1.03302 71.4754 0.157757 -1.2 1 0.000527388 0.00425971 0.00120307 0.00523357 0.00107895 0.00482827 0.00130401 0.0242012 0.00148254 0.00962472 0.00147627 0.0270568 0.00249422 0.0204679 0.00267972 0.0338482 0.00241411 0.0241641 0.00256551 0.0494502
63 1 Mg -2.42749 80.2348 3.11634 1.2 1 0.000686376 0.00546346 0.00110593 0.00574039 0.000833351 0.00534431 0.00143914 0.0243168 0.00122247 0.00912457 0.00187637 0.0290106 0.00150989 0.0193894 0.00173055 0.0325299 0.00184222 0.0239181 0.00299977 0.0498895
64 3 O -0.916456 71.6497 2.73728 -1.2 1 0.00173137 0.00426523 0.0011472 0.00544278 0.00110091 0.00487861 0.00123946 0.0236973 0.00142369 0.0098931 0.00137418 0.0275775 0.00268362 0.020363 0.00263973 0.0333597 0.00282246 0.0243623 0.00274824 0.0499953
65 1 Mg -2.20668 77.3303 4.61893 1.2 1 0.00103194 0.00473919 0.00146775 0.00580199 0.00134047 0.00539242 0.00137074 0.0240543 0.00208172 0.00955876 0.00215325 0.0285357 0.00191648 0.0199303 0.00286264 0.0327531 0.00321658 0.0239061 0.00415657 0.0492126
66 2 Si 0.31164 79.2795 4.62323 2.4 1 0.00114832 0.00479933 0.00156314 0.00676807 0.00130713 0.00569213 0.00194223 0.0238885 0.00175725 0.00924326 0.00279164 0.0275164 0.00165975 0.0202657 0.00356324 0.0318461 0.00318218 0.0234516 0.00343851 0.0510539
67 3 O -1.1916 79.3249 4.60074 -1.2 1 0.00036187 0.00472939 0.00137076 0.0062357 0.0015053 0.0051436 0.00185087 0.0235746 0.00247816 0.00882521 0.00154721 0.0280834 0.00177004 0.0191365 0.00210482 0.0324228 0.00320859 0.0234461 0.00347255 0.0499581
68 3 O 1.55569 75.439 4.59983 -1.2 1 0.000680716 0.00433831 0.0014831 0.00593165 0.00174244 0.00571225 0.00163506 0.0243683 0.0012773 0.00957184 0.00237586 0.0286682 0.0025143 0.0195608 0.0041156 0.0320412 0.00350291 0.0240209 0.00358659 0.0497475
69 3 O 1.10307 78.6872 3.39362 -1.2 1 0.00074708 0.00493295 0.00170412 0.00605941 0.00238981 0.00529082 0.00282745 0.0233915 0.00236507 0.00933917 0.00281097 0.0275416 0.00205103 0.0196523 0.00347508 0.0326035 0.00318224 0.0232201 0.0038412 0.0504359
70 3 O 1.07925 78.6171 5.94462 -1.2 1 0.00166635 0.00465052 0.00120151 0.00564291 0.00211005 0.0052789 0.00247374 0.0244046 0.0025037 0.00923771 0.00256459 0.0277454 0.00177631 0.0203032 0.00391176 0.0325939 0.00304835 0.0240479 0.00345453 0.0498705
71 1 Mg -0.00121454 74.9902 3.07131 1.2 1 0.000525648 0.00469833 0.00130902 0.00533235 0.00143033 0.00542712 0.00119821 0.0238986 0.00109935 0.00954924 0.00153992 0.0287658 0.00174445 0.0198002 0.00249989 0.0327904 0.00275195 0.0243847 0.00353633 0.0492754
72 1 Mg 0.0683722 72.0897 4.55668 1.2 1 0.00189029 0.00415699 0.00198055 0.00564778 0.00134355 0.00516082 0.00165199 0.0240134 0.00134535 0.00993454 0.00173698 0.0284287 0.00227825 0.0199345 0.00358567 0.0332356 0.00269164 0.0250826 0.00270635 0.0497863
73 2 Si 2.16177 73.9064 4.50787 2.4 1 0.0014003 0.00417315 0.00154823 0.00650553 0.00198888 0.00547234 0.00208799 0.0239268 0.00135479 0.0097349 0.00206331 0.0276628 0.00215353 0.020096 0.00412214 0.0324225 0.0041121 0.0241863 0.0027658 0.0507946
74 3 O -1.07848 74.0158 4.54287 -1.2 1 0.00154907 0.0042379 0.00169293 0.0059432 0.00173246 0.00505845 0.0018446 0.0236683 0.00239585 0.0095405 0.00184387 0.0283946 0.00196524 0.0195969 0.00283932 0.0327509 0.00313849 0.024083 0.00288811 0.0496582
75 3 O 0.959575 70.244 4.37958 -1.2 1 0.000835932 0.00375229 0.00186851 0.00573455 0.001043 0.00581859 0.00125457 0.0241897 0.0011434 0.00981736 0.00226291 0.0290187 0.00157176 0.019853 0.00320658 0.0324635 0.00300728 0.0245549 0.00299535 0.0495929
76 3 O 1.41295 73.3272 3.21945 -1.2 1 0.00113712 0.00437078 0.00140921 0.00572091 0.00185826 0.00485452 0.00209119 0.0238342 0.00109586 0.00974214 0.00188194 0.0272318 0.0027935 0.0202241 0.00344235 0.0334693 0.00340386 0.0243498 0.00257883 0.0499232
77 1 Mg 0.0646256 75.2584 0.23263 1.2 1 0.000834171 0.00470881 0.00112906 0.00512801 0.000865392 0.00512724 0.000982186 0.0241866 0.00119295 0.00899924 0.00170355 0.0283139 0.00200391 0.019771 0.00161776 0.0332318 0.00221222 0.0240238 0.0033632 0.0490033
78 3 O 1.48736 73.1834 5.72295 -1.2 1 0.00113188 0.00426957 0.00151956 0.00582313 0.00168872 0.00475094 0.00190111 0.0238471 0.00143184 0.00978689 0.00165272 0.0282699 0.00252854 0.0201068 0.00354341 0.0333587 0.00347461 0.0242703 0.00248462 0.0496845
79 1 Mg 0.243447 77.8986 1.71311 1.2 1 0.00106714 0.00518867 0.0013575 0.00560972 0.00108465 0.00506311 0.00151079 0.0242073 0.00195329 0.0093088 0.00260289 0.0279625 0.00245965 0.02013 0.00265132 0.0326789 0.00332864 0.0242414 0.00441439 0.0504505
80 2 Si -1.91077 76.2043 1.60391 2.4 1 0.0007536 0.00466389 0.00161834 0.00599234 0.00136632 0.00551903 0.00149279 0.0237438 0.00148866 0.00944962 0.00270967 0.0272529 0.00233344 0.0204378 0.00362141 0.0322175 0.00359377 0.0237379 0.00470218 0.0504302
81 3 O 1.23958 76.1789 1.62956 -1.2 1 0.000438982 0.00482187 0.00137221 0.00582639 0.00127648 0.00470152 0.00130403 0.023001 0.00217818 0.00927632 0.00213142 0.0273241 0.00246832 0.019578 0.00238188 0.0330959 0.00405934 0.0233696 0.00465509 0.0498958
82 3 O -0.941238 79.6842 1.64074 -1.2 1 0.00127245 0.00516378 0.00135894 0.00583192 0.000873954 0.00552304 0.0013359 0.0245645 0.00119399 0.00925817 0.00212877 0.0285886 0.00220654 0.0196422 0.0031907 0.0319861 0.00291959 0.0241819 0.00440552 0.0504523
83 3 O -1.23522 76.8292 0.224646 -1.2 1 0.00095104 0.00460979 0.00136054 0.00545269 0.00137984 0.00471357 0.0020605 0.0242223 0.00185512 0.00935766 0.00262844 0.0268516 0.00223363 0.0201314 0.00333424 0.0333285 0.00276952 0.024362 0.00385726 0.0506464
84 3 O -1.20476 76.7887 2.84327 -1.2 1 0.000554977 0.00492787 0.0016923 0.00578623 0.00126474 0.0052324 0.0013864 0.023998 0.0014389 0.00949718 0.00242315 0.0274875 0.00212153 0.0202822 0.00282815 0.0325776 0.00307068 0.0237966 0.00452029 0.0500312
85 1 Mg -2.26758 80.2828 0.0477801 1.2 1 0.00151432 0.00521838 0.00124994 0.00573546 0.000792706 0.00550502 0.0012262 0.024108 0.00134036 0.00963093 0.00191496 0.0290284 0.00164274 0.0195607 0.00188941 0.0321988 0.00185624 0.0244104 0.00309613 0.050229
86 1 Mg 2.4466 83.269 1.43186 1.2 1 0.00152256 0.00567757 0.000794714 0.0058913 0.000819662 0.00538069 0.00186542 0.0245638 0.00162865 0.00925411 0.00265396 0.0286372 0.00176071 0.0199407 0.00341109 0.0323545 0.00301645 0.0248862 0.0032524 0.0514268
87 2 Si -0.32992 81.2622 1.69427 2.4 1 0.000919321 0.00511755 0.000789061 0.00686884 0.000919621 0.00545867 0.00175423 0.0238352 0.00117579 0.00905306 0.00233022 0.0277875 0.00249286 0.0202283 0.00353698 0.0318693 0.0028368 0.0242702 0.00290505 0.0517854
88 3 O 1.23804 81.2201 1.5632 -1.2 1 0.00104557 0.00522299 0.000874073 0.00648382 0.000989545 0.00512375 0.0014441 0.0237151 0.00236667 0.00896524 0.00238767 0.0280953 0.00202336 0.0194022 0.00248369 0.0324124 0.00299252 0.0241976 0.00354466 0.0515545
89 3 O -1.37956 85.0718 1.42321 -1.2 1 0.00091303 0.00504287 0.00128417 0.00608254 0.00125287 0.00592529 0.00120833 0.0246749 0.0010041 0.00946629 0.00219407 0.0293351 0.00202612 0.0201439 0.00273284 0.0316269 0.00270461 0.0245682 0.00279552 0.0512412
90 3 O -0.983182 81.8628 0.346641 -1.2 1 0.00130811 0.00536453 0.00114439 0.00621327 0.000978706 0.00502744 0.00151864 0.0240509 0.00158574 0.00883819 0.00188138 0.0277506 0.00198309 0.0203553 0.00217301 0.0326208 0.00258149 0.0248714 0.00292722 0.0515205
91 1 Mg -2.5188 90.8043 2.90781 1.2 1 0.00250607 0.00360178 0.00117285 0.00598905 0.00125248 0.00559362 0.000777682 0.0243576 0.000929128 0.00889351 0.00114209 0.0300057 0.00129891 0.0197249 0.00151412 0.0323954 0.00203541 0.0251751 0.00152471 0.0504227
92 3 O -0.996079 81.9073 2.94666 -1.2 1 0.000783487 0.00538082 0.000739338 0.00616794 0.000830449 0.00547329 0.00166534 0.0245382 0.00125476 0.00935514 0.00160548 0.0282659 0.00216865 0.0202208 0.00319789 0.0325845 0.00207444 0.0245354 0.00241163 0.051796
93 1 Mg -2.34737 87.7019 4.44841 1.2 1 0.00153292 0.00343844 0.00176029 0.00594088 0.00120124 0.00575666 0.00103243 0.0240318 0.00184622 0.00901978 0.00244554 0.0292623 0.00233735 0.0200546 0.0030738 0.0321888 0.00308567 0.0244486 0.00326496 0.051585
94 2 Si 0.376788 89.6099 4.41357 2.4 1 0.00243135 0.00279874 0.00143457 0.00667104 0.00171056 0.00593632 0.00208009 0.0240974 0.00137024 0.00928494 0.00227998 0.0289054 0.0023837 0.0203049 0.00356593 0.0316433 0.00276294 0.0241907 0.0028591 0.0526208
95 3 O -1.2097 89.7025 4.44428 -1.2 1 0.00262375 0.00289876 0.00149298 0.00615062 0.00173928 0.00540996 0.00190786 0.0235039 0.00264454 0.00900303 0.00192393 0.0294189 0.00235642 0.0197267 0.00217177 0.0324214 0.00304586 0.0243629 0.00328648 0.0521388
96 3 O 1.36358 85.9653 4.56096 -1.2 1 0.00172964 0.00374925 0.00115109 0.00616846 0.000774068 0.00611869 0.00126957 0.0243464 0.00120125 0.00901852 0.00180235 0.0292957 0.00238 0.0196895 0.00270242 0.0314511 0.0025706 0.0245392 0.00331788 0.0514932
97 3 O 1.02572 89.0098 3.09241 -1.2 1 0.00222957 0.00370248 0.00106595 0.00576065 0.00132448 0.00538229 0.00156289 0.0249027 0.00164408 0.00982504 0.00143646 0.0288035 0.00218428 0.0207947 0.00286411 0.0329134 0.00271956 0.0250861 0.00246629 0.0520944
98 3 O 1.08384 89.0021 5.72794 -1.2 1 0.00168666 0.00282351 0.00141917 0.00602017 0.00172838 0.00552461 0.00215959 0.0238853 0.00153362 0.0090302 0.00210502 0.0287149 0.00213716 0.0202584 0.00250016 0.0325555 0.00216892 0.0247373 0.00273357 0.0520703
99 1 Mg 0.0668255 85.5176 2.90226 1.2 1 0.00118027 0.00473755 0.000949712 0.00593695 0.000766471 0.00620909 0.000964295 0.0241794 0.000778696 0.00920232 0.00125114 0.0298172 0.00179617 0.019691 0.00176414 0.0316227 0.0019335 0.0245315 0.00231737 0.0503409
100 1 Mg -0.044501 82.5558 4.52289 1.2 1 0.000883471 0.00468631 0.000571152 0.00612493 0.000636643 0.00569131 0.00124599 0.0244866 0.00226816 0.00946217 0.00176637 0.0286043 0.00225652 0.0204856 0.00318317 0.0322794 0.00269688 0.0244551 0.00243006 0.0512633
101 2 Si 2.08878 84.4418 4.52394 2.4 1 0.00109592 0.00425572 0.000877808 0.00715245 0.0010843 0.00595932 0.00176214 0.0233607 0.00165818 0.00873841 0.00221546 0.0280555 0.00227735 0.0203204 0.00368037 0.0318297 0.00260308 0.024234 0.00308236 0.0524908
102 3 O -1.12309 84.4737 4.41239 -1.2 1 0.000686543 0.00435969 0.000595886 0.00672958 0.00141687 0.00557365 0.00178916 0.0232263 0.00256573 0.00870627 0.0016559 0.0284345 0.00202678 0.0199118 0.00247378 0.0321811 0.00302718 0.0239627 0.00282956 0.0517168
103 3 O 0.980772 80.7129 4.71781 -1.2 1 0.000577071 0.00487993 0.00117287 0.00605431 0.000945302 0.00577331 0.00145816 0.0241931 0.00143301 0.00923509 0.00206623 0.0284968 0.00182065 0.0198598 0.00236335 0.03184 0.00220739 0.0237812 0.00277927 0.0500813
104 3 O 1.465 83.8297 3.13218 -1.2 1 0.000915388 0.00511618 0.000925262 0.00622367 0.00125428 0.00544251 0.00182459 0.023937 0.00157533 0.0087891 0.00177162 0.0281625 0.00220926 0.0197987 0.00307677 0.0324243 0.00209356 0.0244962 0.0023616 0.0516676
105 1 Mg 0.0385776 85.5357 -0.012967 1.2 1 0.00155624 0.00551981 0.000792659 0.00554369 0.000861055 0.00561419 0.000803148 0.024494 0.000623165 0.00959351 0.00135788 0.0295455 0.00181791 0.0197264 0.0017135 0.0321894 0.00180794 0.0248876 0.00326549 0.0503337
106 3 O 1.33996 83.7758 5.73443 -1.2 1 0.000487441 0.00419529 0.00122653 0.00604616 0.00112616 0.00595941 0.00162709 0.0241444 0.00171654 0.00905104 0.001506 0.0282007 0.00166684 0.0208102 0.002424 0.0321463 0.00212873 0.0243636 0.00219122 0.0516403
107 1 Mg 0.0739757 88.4535 1.31293 1.2 1 0.00218852 0.00473208 0.00126659 0.00621415 0.000944459 0.0051574 0.00110005 0.0244791 0.00151234 0.0101777 0.00215365 0.0293109 0.00227376 0.0206016 0.0025649 0.0328769 0.00274808 0.0251947 0.00257939 0.0509461
108 2 Si -2.03799 86.5335 1.42731 2.4 1 0.0013256 0.00497107 0.00148674 0.00706405 0.00149324 0.00566686 0.00165308 0.0240652 0.00138113 0.00948071 0.00233608 0.0278727 0.00235278 0.0207185 0.00370314 0.0316958 0.00344503 0.0243743 0.0036416 0.0520233
109 3 O 1.13544 86.5382 1.42016 -1.2 1 0.00139493 0.0049254 0.00131377 0.00641315 0.00111753 0.0050537 0.00131971 0.0237644 0.00261857 0.00937357 0.00206755 0.0286129 0.00269281 0.0202112 0.00263114 0.0322555 0.00351892 0.0242121 0.00411423 0.0512258
110 3 O -1.1243 90.2349 1.39908 -1.2 1 0.00165787 0.00404604 0.00102418 0.00632219 0.00116386 0.00569883 0.000743779 0.0247651 0.00140488 0.00955644 0.00203344 0.0298118 0.00202946 0.020114 0.0032527 0.0322611 0.0033033 0.0251687 0.00279723 0.0507997
111 3 O -1.32912 87.2107 0.209799 -1.2 1 0.0016268 0.00521504 0.000787726 0.00572384 0.00100726 0.00514628 0.00126983 0.0247882 0.0011402 0.00983074 0.00129529 0.0282279 0.00231906 0.0206113 0.00217514 0.0324618 0.00257157 0.0248918 0.00358917 0.0513565
112 3 O -1.45219 87.1119 2.78735 -1.2 1 0.00153846 0.00416976 0.00118246 0.00581033 0.00169102 0.0054583 0.00194965 0.0242917 0.00137211 0.00935592 0.00180002 0.0285879 0.00201181 0.0203442 0.00313586 0.0322056 0.00299401 0.0246577 0.00265438 0.0515403
113 1 Mg -2.39012 90.8794 -0.154004 1.2 1 0.00159537 0.00445959 0.00111899 0.00598751 0.000911594 0.00530852 0.000711321 0.0247496 0.00133157 0.00974889 0.00110055 0.0303757 0.00143052 0.0198922 0.00218281 0.0326479 0.00193504 0.0251814 0.0016976 0.0497485
114 1 Mg 2.1751 93.5995 1.54874 1.2 1 0.00264453 0.0035609 0.00142558 0.00624528 0.0015217 0.00503987 0.00146263 0.024553 0.00192358 0.00957526 0.0026593 0.0302098 0.00266793 0.0205342 0.00345395 0.0334272 0.00305772 0.0248736 0.0026806 0.0502993
115 2 Si -0.441964 91.7706 1.45189 2.4 1 0.00239768 0.00341528 0.00132107 0.00686776 0.00159798 0.00553492 0.00143297 0.0245097 0.00153273 0.00973318 0.00206558 0.0291128 0.00135956 0.0206984 0.00320763 0.0325981 0.00378772 0.0249529 0.002376 0.0515018
116 3 O 1.13602 91.7616 1.46023 -1.2 1 0.00216178 0.00319763 0.00145773 0.00659652 0.00131373 0.004802 0.00133981 0.023432 0.00262915 0.00970834 0.00179954 0.0294029 0.00176475 0.0198216 0.00243492 0.0332378 0.0032982 0.0240789 0.00260318 0.0510175
117 3 O -1.50877 95.4268 1.57561 -1.2 1 0.0029407 0.00357665 0.00153992 0.00677631 0.00172851 0.00566656 0.000923767 0.0251133 0.00107092 0.00940084 0.00207765 0.030306 0.00238506 0.0203023 0.00337034 0.0332785 0.00346573 0.0248188 0.00375931 0.0502039
118 3 O -1.13992 92.4918 0.254884 -1.2 1 0.00156309 0.00401666 0.00114738 0.00635626 0.00117538 0.00499258 0.00150503 0.0248898 0.00222224 0.00996168 0.00121826 0.0293028 0.00227388 0.0208184 0.00207986 0.0336147 0.00283986 0.025252 0.00222869 0.0505623