ITEM: TIMESTEP
92300
ITEM: NUMBER OF ATOMS
5600
ITEM: BOX BOUNDS xy xz yz pp pp pp
0	7.1235	0
0	201.985	2.3745
0	119.584	0
ITEM: ATOMS id type element xu yu zu q Q_1 Q_2 Q_3 Q_4 Q_5 Q_6 Q_7 Q_8 Q_9 Q_10 Q_11 Q_12 Q_13 Q_14 Q_15 Q_16 Q_17 Q_18 Q_19 Q_20 Q_21
1 1 Mg -1.57863 47.2463 -1.59816 1.2 1 0.240836 0.0761711 0.0173792 0.0242749 0.00574963 0.0132965 0.00379498 0.0193827 0.00502466 0.0222384 0.00506663 0.0242499 0.00858581 0.0247759 0.00899696 0.0220492 0.00813918 0.0216295 0.0109338 0.0307573
2 1 Mg 2.91498 49.7972 1.38267 1.2 1 0.170722 0.0607676 0.00641387 0.0180347 0.00303677 0.009466 0.00298219 0.0187865 0.00401092 0.0185528 0.00443918 0.0248381 0.00633225 0.020861 0.00595516 0.0210278 0.00469789 0.0199793 0.00677704 0.0313163
3 2 Si 0.828858 48.9105 -0.47781 2.4 1 0.199414 0.0677579 0.00885004 0.0200452 0.00371154 0.0105251 0.00359279 0.0182415 0.004902 0.0195319 0.00372535 0.0238702 0.00577783 0.0228298 0.00724292 0.0211471 0.00553946 0.0193556 0.00874077 0.0301047
4 3 O 1.89205 47.6403 -0.175778 -1.2 1 0.228813 0.0750988 0.0134087 0.0235976 0.00479272 0.0124399 0.00465753 0.0188239 0.00706634 0.0211895 0.00530598 0.0236271 0.00822914 0.0238536 0.00897456 0.0209578 0.0083904 0.0202821 0.00972432 0.0310787
5 3 O -1.43699 51.9676 0.98729 -1.2 1 0.126682 0.0482872 0.00244159 0.0133356 0.00152041 0.00873254 0.00258446 0.0183502 0.003539 0.0159615 0.00304977 0.0245425 0.00402579 0.0186503 0.00447089 0.0210623 0.00478607 0.0191117 0.00587847 0.03035
6 3 O 0.0128244 48.4711 -1.75424 -1.2 1 0.207594 0.0693337 0.0104332 0.0206976 0.00448274 0.0100365 0.00344359 0.0190376 0.0041425 0.0202416 0.00384626 0.0237237 0.00698832 0.0254077 0.00697325 0.0221222 0.00603357 0.0207724 0.00861362 0.0299042
7 1 Mg -2.26241 57.3136 2.71812 1.2 1 0.0187869 0.0152166 0.00662281 0.00710145 0.00171718 0.00693979 0.00264559 0.018699 0.00262575 0.0132421 0.00266628 0.0257739 0.00382428 0.0196863 0.00462262 0.0257742 0.00396367 0.0217796 0.00448141 0.0297189
8 3 O -0.102828 49.2764 0.720223 -1.2 1 0.176858 0.0638996 0.00522372 0.0179972 0.00332527 0.00941635 0.00392466 0.0193259 0.00473836 0.0191292 0.00365386 0.0245553 0.00529379 0.0224133 0.00719481 0.0214652 0.00411644 0.0195351 0.00732384 0.0305113
9 1 Mg -2.18428 54.6678 4.22378 1.2 1 0.0639084 0.0310974 0.00653893 0.00927424 0.00149862 0.00623464 0.00243947 0.0177405 0.00284384 0.0132874 0.00300569 0.0249128 0.00372573 0.0192422 0.0058936 0.0220515 0.00474129 0.0195354 0.0054388 0.0292131
10 2 Si 0.352623 56.3306 4.41337 2.4 1 0.0306244 0.0195157 0.00674937 0.00845352 0.00154902 0.00605081 0.00181455 0.0185554 0.002889 0.0130231 0.00330886 0.0251296 0.00500216 0.0197482 0.00594188 0.0248158 0.00576762 0.020382 0.00506125 0.0297917
11 3 O -1.19827 56.4795 4.40085 -1.2 1 0.0265534 0.0175204 0.00696448 0.00816965 0.00226562 0.00669357 0.00252966 0.0180771 0.00266311 0.01254 0.00229124 0.0249145 0.00371346 0.019659 0.0056042 0.0241406 0.00470433 0.0203343 0.0046825 0.0298076
12 3 O 1.27955 52.9656 4.06624 -1.2 1 0.101302 0.0418724 0.0037148 0.011905 0.00195774 0.00643173 0.00225539 0.0179511 0.00311421 0.0149721 0.00273997 0.0245842 0.00399796 0.0193167 0.00509132 0.0193754 0.00402295 0.0190828 0.00526297 0.0287932
13 3 O 1.09922 55.79 3.19127 -1.2 1 0.0435292 0.0246477 0.00701105 0.00803803 0.000943904 0.00661608 0.00207808 0.0187185 0.00265623 0.0133123 0.00215858 0.0247952 0.00363593 0.019585 0.00562692 0.0242061 0.00465837 0.0208591 0.0053104 0.0292291
14 3 O 0.965689 55.5708 5.65399 -1.2 1 0.0478372 0.0253364 0.00644749 0.00886355 0.00175583 0.00568147 0.00208752 0.0180253 0.00285144 0.0126965 0.00212873 0.0241089 0.00380362 0.0184328 0.00557038 0.0216463 0.00484395 0.0196623 0.00487629 0.0286487
15 1 Mg 0.100824 52.536 2.50975 1.2 1 0.108116 0.0441104 0.0030067 0.0128147 0.00159705 0.00834343 0.002375 0.0171919 0.00339615 0.0154753 0.00287184 0.0245093 0.00381053 0.0181521 0.00466121 0.0198141 0.00446436 0.0182469 0.00562564 0.0295047
16 1 Mg 0.541307 48.7182 2.76862 1.2 1 0.206041 0.0677426 0.0112676 0.0213072 0.0043633 0.0110956 0.00350223 0.0194688 0.00435707 0.0188326 0.00461942 0.0237037 0.00770438 0.0205128 0.00690671 0.0191487 0.00531034 0.0192567 0.00785944 0.0326574
17 2 Si 2.20991 51.4343 3.92415 2.4 1 0.14018 0.0514316 0.00251752 0.0147316 0.00297156 0.00732502 0.0029011 0.0179944 0.00262313 0.016101 0.003832 0.0239223 0.00522701 0.0188246 0.00461938 0.0186517 0.00389401 0.0184773 0.00581795 0.0298177
18 3 O -1.14203 51.7521 3.81364 -1.2 1 0.126668 0.0485198 0.00202227 0.0134521 0.00268959 0.00700145 0.00221388 0.0178368 0.00272324 0.0157434 0.00374698 0.0243434 0.00441159 0.0189367 0.00493834 0.0191537 0.00443926 0.01879 0.00576836 0.0298794
19 3 O 3.21434 48.4991 2.87863 -1.2 1 0.202302 0.0661837 0.0104877 0.0205826 0.0046593 0.00942205 0.00302582 0.0183075 0.0039797 0.0187284 0.00412585 0.0240212 0.00735278 0.0202964 0.00645093 0.0197247 0.00518262 0.0197419 0.00715437 0.0314916
20 3 O 1.34062 50.5906 2.8645 -1.2 1 0.152894 0.0555637 0.00436854 0.0162849 0.00307962 0.0085869 0.00305184 0.0178499 0.00260669 0.0167487 0.00345428 0.0238142 0.0051736 0.0194715 0.00556604 0.0191544 0.00475392 0.018045 0.0061901 0.0302758
21 1 Mg 0.0857958 52.4146 -0.438643 1.2 1 0.117587 0.0469906 0.00217891 0.0131366 0.00225337 0.00807085 0.00270649 0.0179481 0.00316814 0.0160621 0.00289358 0.0245948 0.00372639 0.0199171 0.00471531 0.02256 0.00419362 0.0196787 0.0065553 0.0294479
22 3 O 1.47694 50.6448 5.21701 -1.2 1 0.157218 0.0554588 0.00324482 0.0164191 0.00351969 0.00718214 0.00312269 0.0176334 0.00307921 0.0169198 0.00301132 0.0242353 0.00576895 0.0192242 0.00434236 0.0179249 0.00435801 0.0183646 0.00560343 0.0294306
23 1 Mg 0.11856 55.3317 1.42932 1.2 1 0.0491667 0.0274099 0.00741496 0.00805744 0.00106212 0.00739958 0.00195623 0.0178523 0.00373221 0.0135506 0.00283766 0.0254617 0.00337495 0.0191132 0.00516611 0.0241565 0.00453983 0.0210702 0.00507806 0.0300697
24 2 Si -2.01338 53.4919 0.916183 2.4 1 0.0944919 0.0402329 0.00368667 0.0109911 0.00154037 0.00760674 0.00171013 0.0177523 0.00319353 0.0144463 0.00280975 0.024322 0.00282094 0.0187717 0.00420377 0.0214859 0.00403809 0.0196502 0.00509741 0.0301226
25 3 O 1.18856 53.258 1.03679 -1.2 1 0.101367 0.0415627 0.00369323 0.0117902 0.00161945 0.0076821 0.00252131 0.0173002 0.00302242 0.0149289 0.00300384 0.0243193 0.00286522 0.0187016 0.00492815 0.0219587 0.0039879 0.0194617 0.00544307 0.0302081
26 3 O -0.80922 57.344 1.50055 -1.2 1 0.0196887 0.0159131 0.00706702 0.00748387 0.0016311 0.00639607 0.00225469 0.0188724 0.00305961 0.0127123 0.0024259 0.0253737 0.00313113 0.0197896 0.00369025 0.0266899 0.00402458 0.0225814 0.00446974 0.030842
27 3 O -1.23061 54.0194 -0.258858 -1.2 1 0.0801316 0.0373509 0.00555374 0.00966824 0.00206494 0.00757564 0.00158592 0.018555 0.00331498 0.0146555 0.00297591 0.0241145 0.00302741 0.0192676 0.00390027 0.02293 0.00425086 0.0217775 0.00574904 0.0304498
28 3 O -1.30932 54.3082 2.31897 -1.2 1 0.0752257 0.0348134 0.00534487 0.00947754 0.00102134 0.00728694 0.00209422 0.0182489 0.00320069 0.0141578 0.00261553 0.0244253 0.00286763 0.0190508 0.00439796 0.0225997 0.0043357 0.0199148 0.00501883 0.0292877
29 1 Mg -2.33002 58.0196 -0.4298 1.2 1 0.0122196 0.0134647 0.00528187 0.00695282 0.00185294 0.00680084 0.00179528 0.0181249 0.00244049 0.0135792 0.00200521 0.0251486 0.00256058 0.0200975 0.00299646 0.0271863 0.00384267 0.022957 0.00361817 0.029906
30 1 Mg 2.66668 60.4117 1.61631 1.2 1 0.00226001 0.0066444 0.00291512 0.00847963 0.00202009 0.00594109 0.00207993 0.0181554 0.00262024 0.0121912 0.00254448 0.0247676 0.00290261 0.0201765 0.00397522 0.0276916 0.00440589 0.0225812 0.00552855 0.0290912
31 2 Si -0.173855 58.7171 1.58914 2.4 1 0.00696705 0.00933763 0.00366871 0.00837776 0.00244442 0.00619195 0.0021479 0.0177333 0.00222479 0.0132207 0.00333203 0.0253107 0.00319665 0.0205552 0.00417442 0.0274079 0.00423298 0.0224116 0.00472317 0.0301838
32 3 O 1.44721 58.7542 1.5421 -1.2 1 0.00770245 0.00931939 0.00420055 0.00802723 0.00174677 0.00635534 0.00217758 0.0173856 0.00353276 0.0128016 0.00275257 0.0251011 0.00292818 0.0202801 0.00368415 0.0276712 0.0037819 0.0223211 0.00384329 0.0297304
33 3 O -0.895777 62.5303 1.73359 -1.2 1 0.00398453 0.00546686 0.00211419 0.0087847 0.00201732 0.00589371 0.00242772 0.019395 0.00199614 0.0117387 0.00321095 0.0241508 0.00274651 0.0188104 0.00404432 0.0268342 0.00413987 0.0221491 0.00665495 0.0277719
34 3 O -0.644025 59.396 0.17636 -1.2 1 0.00363614 0.00840921 0.00302927 0.00739303 0.00259016 0.00650886 0.00244369 0.0180571 0.00200144 0.0130807 0.00297001 0.0242714 0.00294532 0.0204539 0.00419923 0.0279035 0.00414818 0.0231649 0.00516723 0.0293077
35 1 Mg -1.95458 68.2263 3.31724 1.2 1 0.00597836 0.00392898 0.0019897 0.00802726 0.0012228 0.00604155 0.00156336 0.0200604 0.00288377 0.0114875 0.00262844 0.0230732 0.00382254 0.0195373 0.00563176 0.0258382 0.00577838 0.0213808 0.00508277 0.0297962
36 3 O -0.771554 59.4216 2.73797 -1.2 1 0.00543391 0.00824472 0.00345675 0.00792643 0.0015068 0.00639907 0.00173167 0.0184464 0.00248353 0.0128355 0.00233236 0.0247693 0.00310682 0.0203925 0.00385211 0.0275712 0.00430323 0.0225381 0.00490733 0.0292155
37 1 Mg -1.8619 65.153 4.90618 1.2 1 0.00430693 0.00589878 0.00198635 0.00800972 0.00149805 0.00631506 0.00199493 0.0200377 0.0030307 0.0114642 0.00331997 0.0237118 0.00252943 0.0208261 0.00498794 0.0269482 0.00532005 0.022025 0.00593373 0.029213
38 2 Si 0.614668 67.1372 4.53897 2.4 1 0.00619013 0.00541415 0.00177866 0.00882076 0.00186564 0.00567953 0.00152765 0.019234 0.00247768 0.011206 0.00310284 0.0231371 0.00403672 0.0205357 0.00517866 0.0270753 0.00566298 0.0216594 0.00511704 0.0304151
39 3 O -0.869433 67.3755 4.66836 -1.2 1 0.0057935 0.00543645 0.00191396 0.00872842 0.00167561 0.00569019 0.00152248 0.019839 0.00327071 0.011348 0.00308076 0.0226742 0.00394653 0.0203104 0.00569956 0.0268279 0.00594052 0.0222302 0.00504136 0.0306709
40 3 O 1.72494 63.178 4.85945 -1.2 1 0.00318183 0.00575071 0.00161777 0.0086488 0.00140208 0.00600284 0.0019234 0.0196551 0.0025124 0.0113702 0.00254191 0.0237151 0.00327456 0.0202505 0.00447032 0.0267215 0.00458823 0.0220706 0.00651942 0.0285177
41 3 O 1.34549 66.6584 3.22936 -1.2 1 0.00668487 0.00549329 0.0016567 0.00800808 0.00151156 0.00616348 0.00232716 0.0200091 0.00259067 0.0113277 0.00318369 0.0231226 0.00392497 0.0204025 0.00520627 0.027147 0.00642031 0.0221785 0.00571546 0.0299428
42 3 O 1.42797 66.4992 5.63951 -1.2 1 0.00506606 0.00578647 0.00214753 0.00797513 0.00171282 0.00622084 0.00151006 0.0200122 0.00244437 0.0113712 0.00255777 0.0232467 0.00358962 0.0210464 0.00527371 0.0280558 0.00585198 0.0229023 0.00574428 0.0306247
43 1 Mg 0.37096 62.9788 3.07331 1.2 1 0.00409562 0.00539065 0.00148687 0.00846826 0.0017646 0.00594371 0.00238582 0.0192793 0.00219592 0.0113152 0.00324396 0.0240571 0.00277189 0.0193878 0.00414664 0.0270751 0.00361796 0.0221787 0.00675474 0.0279648
44 1 Mg 0.147082 59.8404 4.48954 1.2 1 0.00354176 0.00646419 0.00208833 0.00787245 0.00204741 0.00624275 0.00265513 0.0190601 0.00198412 0.0129212 0.00280315 0.0250937 0.0030701 0.0207308 0.00375593 0.027475 0.00451304 0.0218068 0.00609341 0.028816
45 2 Si 2.37555 61.6339 4.86152 2.4 1 0.00148688 0.00485687 0.00163842 0.00874616 0.00157016 0.00577009 0.00177806 0.0188569 0.00186501 0.0116625 0.00247203 0.0238915 0.00241774 0.0206298 0.00385142 0.02754 0.00362597 0.0225038 0.00636291 0.028122
46 3 O -0.88906 61.8908 4.67245 -1.2 1 0.00199805 0.0049579 0.00180463 0.00882895 0.00174426 0.00543904 0.0017499 0.0184808 0.00281808 0.0115767 0.002957 0.0236936 0.00289412 0.0201714 0.00389076 0.0274352 0.00471303 0.0222137 0.00718257 0.0279513
47 3 O 0.991707 57.7481 4.48488 -1.2 1 0.0130784 0.011946 0.00495304 0.00747114 0.00208356 0.00683972 0.00252095 0.0188016 0.00287328 0.0129426 0.00261624 0.0252844 0.00420321 0.0200158 0.00608089 0.0252475 0.0051075 0.0210841 0.00429446 0.029646
48 3 O 1.58197 61.0126 3.62206 -1.2 1 0.00201159 0.00488386 0.00179288 0.00862122 0.00198384 0.00619026 0.00223489 0.0186044 0.00182168 0.011508 0.00309557 0.0237168 0.00255938 0.0206717 0.0037292 0.0278429 0.00361532 0.0226247 0.006404 0.0279319
49 1 Mg 0.471157 62.7611 0.312331 1.2 1 0.00374904 0.00540925 0.00210101 0.00881855 0.00193576 0.00587246 0.00253933 0.0186675 0.00181545 0.0116179 0.00281895 0.0240249 0.00347313 0.0181866 0.00375271 0.026653 0.00464653 0.0217349 0.00686444 0.0273269
50 3 O 1.77451 61.2508 6.18446 -1.2 1 0.00177823 0.00549493 0.00164161 0.00826317 0.00173832 0.00605616 0.00174346 0.0205 0.00190672 0.0117271 0.00265769 0.0237767 0.00277596 0.0212186 0.00413303 0.02769 0.00444343 0.0221144 0.00617126 0.0284694
51 1 Mg 0.759413 65.6798 1.06612 1.2 1 0.00582465 0.00531934 0.00157304 0.00802314 0.00111224 0.0063442 0.00241817 0.0187596 0.00220887 0.0105062 0.00246582 0.0239144 0.00319138 0.0193312 0.00479575 0.026283 0.0047401 0.0217419 0.00609951 0.0277585
52 2 Si -1.47328 64.2127 1.86911 2.4 1 0.00521292 0.00546994 0.00154376 0.00857156 0.00191812 0.00579573 0.00253426 0.0182856 0.00285749 0.0105902 0.00363526 0.023156 0.00302575 0.0197024 0.00507205 0.0258456 0.00506567 0.0215007 0.0073647 0.0282276
53 3 O 1.68145 64.0478 1.58626 -1.2 1 0.0051854 0.00551951 0.00151424 0.00836782 0.00193479 0.00568037 0.00225469 0.0183797 0.00271183 0.0105545 0.0029372 0.0232679 0.00358865 0.0194233 0.0048809 0.0266887 0.00479861 0.0217707 0.00736938 0.028072
54 3 O -0.440324 67.6732 1.16952 -1.2 1 0.00450893 0.00389618 0.000757186 0.0080102 0.00107052 0.00669011 0.0015165 0.0204087 0.0023713 0.011352 0.00281599 0.0237745 0.00332289 0.0187804 0.00405202 0.0250513 0.00450279 0.0212699 0.00470117 0.0295418
55 3 O -1.00476 64.9408 0.54335 -1.2 1 0.00531627 0.00540295 0.00171534 0.00823964 0.00148685 0.00572219 0.00251923 0.0188952 0.00261385 0.0101177 0.00260128 0.0229089 0.00313963 0.0197851 0.0042508 0.0267527 0.00465534 0.0217622 0.00640012 0.0277216
56 3 O -1.07203 64.5544 3.24253 -1.2 1 0.00537581 0.00570255 0.00185803 0.00828262 0.00154732 0.00622082 0.00236019 0.0197174 0.0027027 0.0106755 0.00274004 0.0232931 0.00323691 0.0201887 0.00507884 0.0266582 0.00498625 0.0221805 0.00629765 0.0286799
57 1 Mg -1.9735 68.0473 -0.112559 1.2 1 0.00384136 0.00335189 0.00101651 0.00838651 0.00117787 0.00678837 0.00152666 0.0194305 0.00227268 0.0107981 0.0020674 0.0236747 0.00254668 0.0183762 0.00351417 0.0252642 0.00429768 0.0213171 0.00418305 0.0288476
58 1 Mg 2.59423 71.4251 0.901835 1.2 1 0.00297665 0.00265817 0.00145464 0.00821103 0.00106205 0.0059619 0.00164494 0.0205506 0.00224352 0.0111951 0.00313943 0.0241066 0.00305756 0.0192308 0.00331407 0.0261747 0.00464291 0.0216078 0.00367113 0.031241
59 2 Si 0.0438167 69.1653 1.37556 2.4 1 0.00384998 0.00245384 0.00144435 0.00863824 0.00143559 0.00610692 0.00215252 0.0196146 0.00207879 0.0108122 0.00401535 0.0227584 0.00391595 0.0187319 0.00444257 0.0247129 0.0057405 0.0213205 0.00451146 0.0302223
60 3 O 1.61042 69.3386 1.33464 -1.2 1 0.0035117 0.00221217 0.00119653 0.00872549 0.00167073 0.00620655 0.00181489 0.0196134 0.00205228 0.0109768 0.00253296 0.0237988 0.00327656 0.0185279 0.00336764 0.025353 0.00491438 0.0213501 0.00401529 0.0304749
61 3 O -1.17023 73.5058 1.32791 -1.2 1 0.00696086 0.00269229 0.00195719 0.00888939 0.00124821 0.00592468 0.00163602 0.0201331 0.0014388 0.0110772 0.00310092 0.0240809 0.00269356 0.0187174 0.00279561 0.0259153 0.00400722 0.0220286 0.0035399 0.0326688
62 3 O -0.843247 69.8386 -0.0735647 -1.2 1 0.0012105 0.00279915 0.00115468 0.00805869 0.00178955 0.00669812 0.00135245 0.0203067 0.00188351 0.0107905 0.00261853 0.0232196 0.00274488 0.0190374 0.00292846 0.0255394 0.00451142 0.0220146 0.00318743 0.0301504
63 1 Mg -2.18323 79.279 2.77725 1.2 1 0.00673006 0.00831706 0.000999726 0.0071255 0.00124011 0.0052475 0.0016773 0.0184025 0.00151601 0.013442 0.00190088 0.0242617 0.0021906 0.0188911 0.00352446 0.0282731 0.00354828 0.0222756 0.0043473 0.0335133
64 3 O -0.709787 69.7661 2.70717 -1.2 1 0.00505953 0.00238625 0.00194736 0.0077963 0.0020442 0.00620891 0.00251976 0.0201738 0.00200613 0.011377 0.00297223 0.0230448 0.00388392 0.0194183 0.00555649 0.0259439 0.00567573 0.0221317 0.00447495 0.0304129
65 1 Mg -2.02394 76.4315 4.33152 1.2 1 0.00644696 0.00748193 0.00242474 0.00724809 0.00127756 0.00543211 0.00169328 0.0182446 0.00181968 0.0125558 0.00215058 0.0235063 0.00387843 0.0197239 0.00404385 0.0294864 0.00439158 0.0223178 0.00493564 0.0323691
66 2 Si 0.540959 78.2863 4.23906 2.4 1 0.00544752 0.00858617 0.0016456 0.00820681 0.00217562 0.0054202 0.00180534 0.0177528 0.00206999 0.0123903 0.00355441 0.0230569 0.00238587 0.0196693 0.00486983 0.0279767 0.00455981 0.022032 0.00520619 0.033203
67 3 O -1.03209 78.4982 4.32772 -1.2 1 0.005297 0.00855412 0.00162152 0.00800492 0.00174444 0.00534372 0.00168132 0.0175533 0.0017763 0.0124734 0.0020072 0.0238734 0.00278176 0.0190279 0.00401774 0.0289032 0.00452011 0.0222497 0.0047065 0.0330329
68 3 O 1.53106 73.9935 4.32384 -1.2 1 0.00549237 0.00442608 0.00282011 0.00797339 0.0011492 0.0058214 0.00150362 0.0186952 0.00199998 0.0118756 0.00278525 0.0232923 0.00328283 0.0188749 0.00290643 0.0269927 0.00374331 0.022554 0.00470439 0.0322298
69 3 O 1.23784 77.68 2.92323 -1.2 1 0.00782971 0.00756369 0.00162834 0.00751072 0.00170195 0.00504116 0.00192998 0.0180313 0.00222612 0.0116185 0.0022739 0.0231822 0.00238054 0.0193674 0.00427062 0.0288027 0.0030746 0.0221954 0.00394488 0.0339048
70 3 O 1.05802 77.3956 5.514 -1.2 1 0.0041333 0.00767034 0.00214393 0.00746482 0.00177272 0.00608335 0.00165332 0.0178927 0.00277835 0.0126088 0.00266635 0.0240817 0.00249146 0.0198091 0.00335775 0.0292257 0.00357669 0.02227 0.0041401 0.0326746
71 1 Mg 0.401446 73.5823 2.7798 1.2 1 0.00614317 0.00316459 0.00218009 0.00823292 0.00147579 0.00605995 0.00186228 0.0186971 0.00203323 0.0111492 0.00244051 0.0238535 0.00338696 0.0184669 0.00238803 0.025647 0.00439737 0.0217726 0.00432565 0.0313124
72 1 Mg 0.344403 70.6159 4.38732 1.2 1 0.00498977 0.00364902 0.00251204 0.00754224 0.00112029 0.00641712 0.00140918 0.0206281 0.00186586 0.0117912 0.00232555 0.0229295 0.00337136 0.0198603 0.00436084 0.0265443 0.00522036 0.0230535 0.00330955 0.0312878
73 2 Si 2.4345 72.5099 4.25308 2.4 1 0.00515026 0.00246862 0.00260949 0.00795553 0.00166136 0.00586843 0.00209939 0.0185917 0.00185932 0.010628 0.00300585 0.0225364 0.00403771 0.018857 0.00360948 0.0265798 0.00479018 0.0223445 0.00423287 0.0324795
74 3 O -0.833867 72.5968 4.16023 -1.2 1 0.00529099 0.00245502 0.00268913 0.00805903 0.00187679 0.00579994 0.00158399 0.0185307 0.00275425 0.0105079 0.00256543 0.0227011 0.00364003 0.0191862 0.00370647 0.0267151 0.00450878 0.0221932 0.00523178 0.032364
75 3 O 1.34744 68.8024 4.75562 -1.2 1 0.00576106 0.00428755 0.00223367 0.00793392 0.00177237 0.00606457 0.00135234 0.0205691 0.00242311 0.0119863 0.0025395 0.0229685 0.00373093 0.0197433 0.00577283 0.0267893 0.00586219 0.0226076 0.00469225 0.0310693
76 3 O 1.83501 71.8417 2.98621 -1.2 1 0.00460233 0.0027422 0.00177621 0.00780003 0.00152426 0.00616447 0.00182188 0.0202761 0.00186536 0.0108774 0.00280831 0.0231268 0.00373431 0.0191168 0.00325155 0.0265841 0.00522898 0.0223924 0.00393518 0.0316846
77 1 Mg 0.104279 74.1496 -0.186563 1.2 1 0.00841633 0.00310382 0.001497 0.00900003 0.0015328 0.00605456 0.00142524 0.0198835 0.0016795 0.0106166 0.00248025 0.0243378 0.00256606 0.0189795 0.00328767 0.025803 0.00348651 0.0220842 0.00366727 0.0329747
78 3 O 1.62039 71.709 5.61403 -1.2 1 0.00412621 0.00346046 0.00251804 0.00765421 0.00148109 0.00651438 0.0021308 0.0200526 0.00147433 0.0116322 0.00217853 0.0234816 0.00334052 0.0204639 0.0037911 0.027671 0.00457864 0.0229553 0.0035048 0.0326005
79 1 Mg 0.239467 76.6903 1.18637 1.2 1 0.0089067 0.00552611 0.00140305 0.0082186 0.000852338 0.00544125 0.00137205 0.0186522 0.00200734 0.0115821 0.002317 0.0237728 0.00265634 0.0196149 0.00326976 0.0272438 0.00305191 0.0219339 0.00338884 0.0339013
80 2 Si -1.84458 74.9833 1.44791 2.4 1 0.00908969 0.0041578 0.00196238 0.00882726 0.00187975 0.00561753 0.00197696 0.0185415 0.0015567 0.0107079 0.00271476 0.022756 0.00298369 0.0193663 0.00382597 0.0264253 0.0042525 0.0219148 0.00421823 0.0331358
81 3 O 1.29949 75.003 1.33162 -1.2 1 0.00873174 0.00369846 0.0016219 0.00865563 0.00155143 0.00546917 0.00122555 0.0184049 0.00222519 0.0102952 0.00191546 0.0225649 0.00341465 0.0188782 0.00302189 0.0267512 0.00383836 0.0219158 0.00310569 0.0335311
82 3 O -0.839985 78.5962 1.31186 -1.2 1 0.00850344 0.00692245 0.00117629 0.00776826 0.00139061 0.00531037 0.00145354 0.0185598 0.00173128 0.0122112 0.00252616 0.0233047 0.00273761 0.0192915 0.00362375 0.0275213 0.00393065 0.022067 0.003609 0.0344388
83 3 O -1.18884 75.7199 0.0885929 -1.2 1 0.00955579 0.00411339 0.00155991 0.00875141 0.00205785 0.0058647 0.00197424 0.0196416 0.00264113 0.0108199 0.00253584 0.0238119 0.00307242 0.0196872 0.00363006 0.0279516 0.00366604 0.0225209 0.00315582 0.0356208
84 3 O -1.05983 75.4797 2.67393 -1.2 1 0.00760975 0.00528102 0.0021193 0.00808913 0.00112769 0.00598889 0.00163813 0.0182697 0.00185951 0.0112575 0.00247258 0.022575 0.00305845 0.0194367 0.00268877 0.0268745 0.00302802 0.0221287 0.00368171 0.0318401
85 1 Mg -2.18448 79.0085 -0.139583 1.2 1 0.00838029 0.00678653 0.00100345 0.00775072 0.00096391 0.00506378 0.00118406 0.0181948 0.00169506 0.011872 0.00157254 0.024131 0.00244763 0.0194081 0.00289867 0.0282459 0.00308904 0.0220481 0.00295595 0.0359222
86 1 Mg 2.49587 81.9789 1.4373 1.2 1 0.00511 0.00825146 0.00112164 0.00668697 0.00160228 0.00451108 0.00202406 0.0174426 0.0022913 0.0123261 0.00275412 0.0234651 0.00223811 0.0198694 0.00401463 0.0281341 0.00366271 0.021721 0.00383019 0.0360712
87 2 Si -0.181809 80.1475 1.2613 2.4 1 0.00648359 0.00768612 0.00105145 0.00812807 0.0020071 0.00456839 0.00188957 0.017441 0.00182803 0.0108445 0.00295389 0.0219557 0.00273433 0.0195209 0.00392705 0.0275453 0.00355526 0.0219748 0.00383269 0.0360676
88 3 O 1.34322 80.2704 1.32271 -1.2 1 0.00683178 0.00792443 0.000523101 0.00766966 0.00144216 0.00418042 0.00179219 0.0174426 0.00237977 0.0111917 0.00200527 0.0232508 0.00236374 0.0192996 0.00289606 0.0285445 0.0031555 0.0219092 0.00372018 0.0357227
89 3 O -1.07719 83.9955 1.22927 -1.2 1 0.00649875 0.00713466 0.00143734 0.00683049 0.00149155 0.00505424 0.0016585 0.0184461 0.00191379 0.0118776 0.00258661 0.0229382 0.00276002 0.0190782 0.00431569 0.0273509 0.00325282 0.0219847 0.00483955 0.0353111
90 3 O -0.989627 80.9487 0.1895 -1.2 1 0.00637285 0.00739572 0.000900869 0.00754795 0.00246461 0.00476924 0.00192292 0.0182724 0.00250872 0.0112665 0.00193099 0.0229805 0.00207566 0.0197836 0.00315285 0.0288707 0.00323023 0.0226466 0.00289648 0.0368583
91 1 Mg -2.38093 89.5224 2.62015 1.2 1 0.00963541 0.0050755 0.00140884 0.0060528 0.00149119 0.00522662 0.00195881 0.017956 0.00286384 0.0119081 0.00261782 0.0230948 0.00377168 0.0206455 0.00495342 0.0253524 0.00376009 0.0208757 0.00507486 0.0284
92 3 O -0.835611 80.8767 2.79727 -1.2 1 0.00597425 0.00841709 0.0014238 0.00689379 0.00177085 0.00471194 0.00246544 0.0171595 0.00198408 0.0120021 0.00201859 0.0232072 0.00274415 0.0194521 0.0042765 0.0283723 0.00383017 0.022319 0.00466442 0.0341715
93 1 Mg -1.88849 86.9394 4.12153 1.2 1 0.00912683 0.00691795 0.000971529 0.00603504 0.00187282 0.00494384 0.00169828 0.0180229 0.00269405 0.0117107 0.00261914 0.0233481 0.00336728 0.0201562 0.00429453 0.0271145 0.00398312 0.0223901 0.00561656 0.0310318
94 2 Si 0.297474 88.8738 4.41765 2.4 1 0.0087811 0.00599269 0.00128443 0.00690123 0.00219936 0.00484387 0.00253163 0.0176268 0.00256627 0.0104874 0.00269142 0.022793 0.00386379 0.0204059 0.005471 0.0257869 0.00392252 0.0216698 0.00559598 0.0291905
95 3 O -1.36045 88.932 4.33217 -1.2 1 0.00866313 0.00598736 0.00123793 0.0063298 0.00249339 0.00479033 0.00249343 0.0175731 0.00301699 0.0109732 0.00266653 0.0232365 0.00429404 0.0201744 0.0058276 0.0257618 0.00474623 0.0212796 0.00610236 0.0289042
96 3 O 1.56737 84.9875 4.14775 -1.2 1 0.00930918 0.0074182 0.0013838 0.00684688 0.00186888 0.00462224 0.00214102 0.0177262 0.00231077 0.0120646 0.00257962 0.0230881 0.00283402 0.0188148 0.00508477 0.0264349 0.00334645 0.0218172 0.00467311 0.0318636
97 3 O 0.753514 87.6748 3.42607 -1.2 1 0.0097997 0.00625302 0.00159752 0.00586614 0.00159974 0.00487027 0.00214074 0.0182596 0.00277454 0.0107581 0.00293638 0.0227831 0.00375087 0.0209283 0.00480554 0.0260931 0.00453093 0.0214481 0.00605278 0.0301738
98 3 O 1.00461 88.5072 5.73575 -1.2 1 0.00620348 0.00612097 0.00129764 0.00634561 0.00177094 0.00507937 0.00264303 0.0183762 0.0029595 0.0108941 0.00270595 0.0232597 0.00353842 0.0204451 0.00409232 0.0263012 0.0036075 0.0222403 0.0044452 0.0292678
99 1 Mg 0.15563 84.4212 2.59831 1.2 1 0.00802756 0.00747733 0.00110499 0.00669121 0.002097 0.00493465 0.00152784 0.0179755 0.00224193 0.0122021 0.0027749 0.0233282 0.00292486 0.0187801 0.00426263 0.0270955 0.00313182 0.0222679 0.00508832 0.0331044
100 1 Mg 0.186083 81.6368 4.19035 1.2 1 0.00631192 0.00850267 0.00155619 0.00686882 0.00190245 0.00543588 0.00145141 0.0178536 0.0029809 0.0127485 0.00297257 0.023349 0.00294337 0.0187521 0.00468083 0.0282464 0.00379031 0.0231429 0.00464777 0.0331661
101 2 Si 2.17344 83.5123 4.16956 2.4 1 0.00914868 0.00787134 0.00129791 0.00707287 0.00279232 0.00485203 0.00199167 0.0165696 0.00223871 0.0115326 0.00270963 0.0223758 0.00293204 0.0192448 0.00413855 0.0274944 0.00408588 0.0222968 0.00534045 0.0332998
102 3 O -0.925784 83.5487 3.9872 -1.2 1 0.00881169 0.00787812 0.00153609 0.00716309 0.00273917 0.00474674 0.00132775 0.0166228 0.00306497 0.0114705 0.00296811 0.0228688 0.002665 0.0187123 0.00504627 0.0271145 0.00340513 0.0223081 0.00526619 0.0330355
103 3 O 1.24705 79.8444 4.27801 -1.2 1 0.00514709 0.00830946 0.00185618 0.00726032 0.00202053 0.00561706 0.00129236 0.0184297 0.00158856 0.0131091 0.00186595 0.0238077 0.00237788 0.019082 0.00395084 0.02804 0.00357926 0.0220249 0.00487997 0.0340331
104 3 O 1.4099 82.8032 3.05227 -1.2 1 0.00690333 0.00838764 0.00150295 0.00673947 0.0025641 0.00461915 0.0013087 0.0176751 0.00247414 0.0117901 0.00247742 0.0226655 0.0024461 0.0194928 0.00405294 0.0280233 0.00383806 0.0226428 0.00479191 0.0341648
105 1 Mg 0.106958 84.5832 -0.398661 1.2 1 0.00460689 0.0065705 0.00140037 0.00703098 0.00129747 0.0048261 0.00193407 0.0183961 0.00196341 0.0120938 0.00202576 0.022967 0.00161572 0.0187052 0.00424069 0.0269506 0.0034495 0.0214438 0.00400564 0.0371711
106 3 O 1.98241 82.7218 5.5658 -1.2 1 0.00798112 0.00798807 0.00168215 0.00718174 0.00206684 0.00496099 0.00200302 0.0170562 0.00222653 0.0117356 0.00305786 0.0231318 0.00271214 0.0192539 0.00442525 0.0274923 0.00358196 0.0227771 0.00439234 0.0330341
107 1 Mg 0.220568 87.4323 1.22022 1.2 1 0.0102317 0.00507406 0.000951279 0.00606083 0.00195987 0.00460431 0.00202596 0.0188027 0.00223977 0.0111409 0.00255436 0.0228282 0.00346629 0.020841 0.00532891 0.0269554 0.00422093 0.0210634 0.00644637 0.032324
108 2 Si -1.89429 85.4442 1.189 2.4 1 0.00864013 0.00592252 0.00139371 0.00710845 0.00253896 0.00425544 0.00259154 0.0177966 0.0022281 0.0104398 0.00359461 0.0214918 0.00349885 0.0195647 0.00704549 0.0264618 0.00528306 0.0210866 0.00679791 0.0352965
109 3 O 1.17532 85.5174 1.0782 -1.2 1 0.00790202 0.00565303 0.0013592 0.00686551 0.00218767 0.00443076 0.00183435 0.0172853 0.00295622 0.0106925 0.00244393 0.0220987 0.00242762 0.019236 0.0041274 0.0263189 0.00385991 0.0208386 0.00577073 0.0343872
110 3 O -0.818255 89.3627 1.14661 -1.2 1 0.00893909 0.00469776 0.00117073 0.0062707 0.0016587 0.00493515 0.00201591 0.0188573 0.00191595 0.0119906 0.00259914 0.0230312 0.00365453 0.0200734 0.00473693 0.0257741 0.0035158 0.0202558 0.00507591 0.0307296
111 3 O -1.30407 86.0621 -0.373822 -1.2 1 0.00734001 0.00593338 0.00153527 0.00643647 0.00177172 0.00476224 0.00195328 0.0187663 0.00226337 0.011603 0.00297943 0.0225363 0.00253517 0.0195739 0.00549371 0.0269619 0.00463403 0.0213791 0.00502549 0.0364666
112 3 O -1.35276 86.4858 2.26135 -1.2 1 0.0093356 0.00613315 0.00149268 0.00586833 0.00229189 0.0046908 0.00321684 0.0182332 0.00258195 0.0102344 0.00282668 0.0220452 0.0035285 0.0203865 0.00582255 0.0271754 0.00407273 0.0215551 0.00645359 0.0324423
113 1 Mg -2.28219 90.0591 -0.225119 1.2 1 0.00847288 0.00478297 0.000939408 0.00615111 0.00154161 0.00528508 0.00153209 0.0184754 0.00173072 0.0124146 0.00252694 0.023636 0.00269769 0.0206241 0.00422418 0.0262021 0.00399339 0.0200914 0.00427368 0.0308473
114 1 Mg 2.41317 92.9429 1.54205 1.2 1 0.00674479 0.00530413 0.00138925 0.00715708 0.00129421 0.00648123 0.00128708 0.0175437 0.00148673 0.0124701 0.00263213 0.0234412 0.0030495 0.0213182 0.00329149 0.0259411 0.00344776 0.0202059 0.00332534 0.0263797
115 2 Si -0.159791 90.84 1.06974 2.4 1 0.00799046 0.00463035 0.00131751 0.00685648 0.00137717 0.00526711 0.00190036 0.0174521 0.00173783 0.0116151 0.00307549 0.0227222 0.00435165 0.0209013 0.00493432 0.0252325 0.00413204 0.0198679 0.00470449 0.0291961
116 3 O 1.34719 90.852 1.16594 -1.2 1 0.00785126 0.00479275 0.00154237 0.00654364 0.00157243 0.00524805 0.00193742 0.0178455 0.0024506 0.011961 0.00246359 0.023102 0.00308725 0.0209478 0.00404147 0.0254683 0.00346177 0.0201872 0.00369529 0.0289737
117 3 O -1.16021 94.9997 1.67349 -1.2 1 0.0040978 0.00504844 0.0016755 0.00812111 0.00099184 0.0065298 0.00181964 0.0179669 0.00121618 0.0118795 0.00264808 0.0236036 0.00257586 0.0207452 0.00355164 0.0267986 0.00243267 0.020758 0.0033751 0.026327
118 3 O -0.907986 91.5132 -0.283523 -1.2 1 0.00794417 0.0047779 0.00148709 0.00650966 0.00172556 0.00524503 0.00186848 0.018711 0.00169851 0.0115028 0.00279824 0.0229813 0.00260636 0.0215739 0.00461185 0.0265533 0.00418374 0.0209336 0.00416216 0.0297494
119 1 Mg -2.44933 100.696 3.13914 1.2 1 0.00122315 0.00592397 0.00156588 0.0103829 0.00175132 0.00789057 0.00130191 0.0182838 0.00185707 0.0116795 0.00208374 0.0250117 0.00304993 0.0200651 0.00290238 0.0268349 0.00361633 0.0224031 0.00315368 0.0292309