ITEM: TIMESTEP
6300
ITEM: NUMBER OF ATOMS
5600
ITEM: BOX BOUNDS xy xz yz pp pp pp
0	7.1235	0
0	201.985	2.3745
0	119.584	0
ITEM: ATOMS id type element xu yu zu q Q_1 Q_2 Q_3 Q_4 Q_5 Q_6 Q_7 Q_8 Q_9 Q_10 Q_11 Q_12 Q_13 Q_14 Q_15 Q_16 Q_17 Q_18 Q_19 Q_20 Q_21
1 1 Mg -1.53854 49.715 -0.581883 1.2 1 0.237487 0.0802349 0.0209495 0.0263022 0.00525516 0.0151757 0.00486977 0.0200959 0.00571285 0.0241493 0.00628919 0.0280744 0.0104858 0.0249202 0.00649046 0.0245576 0.00932105 0.0210822 0.0111553 0.0321142
2 1 Mg 3.12228 51.0439 2.6124 1.2 1 0.199476 0.0713487 0.012598 0.0219538 0.00242622 0.0112457 0.00338094 0.01715 0.00398124 0.0199796 0.0045172 0.023429 0.00659346 0.0228807 0.00456387 0.0237771 0.00842944 0.018275 0.00973236 0.0299544
3 2 Si 0.976277 51.3382 0.61428 2.4 1 0.20027 0.0724745 0.0138698 0.022125 0.00380955 0.0117981 0.00349414 0.0184893 0.00508446 0.0210631 0.00469455 0.0264516 0.00808233 0.0243819 0.00457304 0.0249282 0.0082025 0.018924 0.00988982 0.0324842
4 3 O 2.23964 50.437 0.971909 -1.2 1 0.218062 0.0756337 0.017506 0.0242247 0.00449936 0.0129966 0.00382465 0.0179969 0.00560883 0.0220713 0.00533648 0.0248631 0.00875665 0.0238285 0.00641639 0.0240105 0.00922486 0.019534 0.0105118 0.0304514
5 3 O -1.04762 54.1238 1.94108 -1.2 1 0.131784 0.0512873 0.00418984 0.0129392 0.00198724 0.00838863 0.00247009 0.0174805 0.00312191 0.0153123 0.00331135 0.02554 0.00532342 0.0199929 0.00355481 0.0257065 0.00603354 0.0177622 0.00807144 0.0366845
6 3 O 0.244962 50.5838 -0.555254 -1.2 1 0.214316 0.0763751 0.0163479 0.0240826 0.00427672 0.0140459 0.00437584 0.0188044 0.00450335 0.0222536 0.00580323 0.0275739 0.00842334 0.0242572 0.00523699 0.0249317 0.00779645 0.0193464 0.0100321 0.0337554
7 1 Mg -2.2023 59.7748 3.15426 1.2 1 0.0162675 0.0122767 0.00556771 0.00452066 0.0013444 0.00553009 0.00135056 0.0225165 0.00277932 0.0100353 0.00176106 0.0286635 0.0025655 0.02027 0.00321438 0.032698 0.00453949 0.0227034 0.0046328 0.050566
8 3 O 0.117254 51.3086 1.91847 -1.2 1 0.189582 0.0687523 0.0118652 0.0204252 0.00246656 0.0103752 0.00323451 0.0180466 0.0047559 0.0207214 0.00441859 0.0248873 0.00674719 0.0235928 0.00522797 0.0241893 0.00824622 0.0190674 0.00898332 0.0309717
9 1 Mg -2.13618 57.0142 4.70477 1.2 1 0.0699629 0.0329946 0.00406718 0.00744007 0.00143982 0.00569154 0.00207077 0.0192315 0.00189849 0.0128857 0.0020564 0.025557 0.0026808 0.0198782 0.00468281 0.0287773 0.0037618 0.0203222 0.00649216 0.0420681
10 2 Si 0.441744 58.8277 4.59796 2.4 1 0.0300318 0.0199202 0.00711147 0.00537633 0.00170488 0.0053192 0.00284238 0.0217142 0.00256315 0.00992388 0.00380783 0.0269257 0.0026404 0.0208456 0.00544752 0.0304874 0.00441985 0.0215274 0.00635626 0.0483102
11 3 O -1.07415 58.9697 4.63343 -1.2 1 0.0254471 0.0169836 0.0070907 0.00473577 0.00156608 0.00513073 0.00167108 0.0219971 0.00256546 0.00952568 0.00236454 0.0277822 0.00301071 0.0200164 0.0038359 0.0313518 0.00473353 0.0216535 0.00545546 0.0489499
12 3 O 1.72964 54.5951 4.7857 -1.2 1 0.123284 0.0487246 0.00318709 0.0120785 0.00166919 0.00770427 0.00310963 0.0182491 0.00256614 0.0157109 0.00288462 0.0244844 0.00377943 0.0207934 0.00377029 0.0247983 0.00444233 0.0174952 0.00721865 0.0366699
13 3 O 1.19939 58.0921 3.41302 -1.2 1 0.0430789 0.0248388 0.00645143 0.00575595 0.00196189 0.00517646 0.0021767 0.0216235 0.00245508 0.0109784 0.00221519 0.0267237 0.00263817 0.0202117 0.00407546 0.0305249 0.00442429 0.0214207 0.00593461 0.046617
14 3 O 1.1378 58.1825 5.92835 -1.2 1 0.0373079 0.0220867 0.00744113 0.00545749 0.00155994 0.00554218 0.00208832 0.0208116 0.00232563 0.0097031 0.00264731 0.0264943 0.00244969 0.0200932 0.00523245 0.0305426 0.00385075 0.0216195 0.00704518 0.0471033
15 1 Mg 0.48495 53.8829 3.1821 1.2 1 0.133755 0.0544803 0.00250997 0.0140474 0.00108572 0.00900116 0.00288845 0.0176207 0.00264628 0.0168543 0.00342871 0.0252895 0.00416893 0.0202445 0.00457631 0.0247539 0.00427117 0.0172571 0.00867842 0.0351663
16 1 Mg 0.868867 50.3174 3.34137 1.2 1 0.220824 0.073951 0.0182181 0.0238395 0.00374768 0.0125414 0.00370961 0.0177028 0.00440081 0.0208711 0.00353095 0.0234141 0.0074704 0.0245547 0.00500642 0.0231656 0.00861136 0.0191977 0.0100602 0.0288268
17 2 Si 2.49156 53.2069 4.82693 2.4 1 0.159089 0.0591903 0.00718612 0.015916 0.00260087 0.00912838 0.0038466 0.016733 0.00280086 0.0171011 0.00340997 0.0235201 0.00428066 0.0210398 0.00466995 0.0239048 0.00401904 0.0168597 0.00884607 0.033
18 3 O -0.71027 53.4536 4.83399 -1.2 1 0.148232 0.0562889 0.00572682 0.0146901 0.00240194 0.00816673 0.00326095 0.0163666 0.00270388 0.0166014 0.00284435 0.024511 0.00465108 0.0228176 0.00419883 0.0242742 0.00465644 0.0170944 0.00841312 0.0338813
19 3 O 2.50492 49.308 3.56563 -1.2 1 0.238113 0.079132 0.0208305 0.0269168 0.00426326 0.0142575 0.00437534 0.0171458 0.00444636 0.0224369 0.00475387 0.0237222 0.00906537 0.024442 0.00648209 0.0229806 0.00977754 0.0205298 0.0101401 0.0274092
20 3 O 2.0107 52.3697 3.54955 -1.2 1 0.169694 0.0619265 0.0086771 0.0164285 0.00243525 0.0096513 0.00386659 0.0169064 0.0024187 0.0180495 0.00338503 0.0243956 0.0048527 0.0222973 0.00487225 0.0236981 0.00531256 0.0169161 0.00902634 0.0324136
21 1 Mg 0.171153 54.6079 0.385575 1.2 1 0.118681 0.0504316 0.00209267 0.0129009 0.00195801 0.00808766 0.00250446 0.0188092 0.00359046 0.0167377 0.00368632 0.0275428 0.0048753 0.0197973 0.00416285 0.0261198 0.00556809 0.0188986 0.00789235 0.0388164
22 3 O 1.92747 52.2347 6.03271 -1.2 1 0.174657 0.0633231 0.00943264 0.0178822 0.00291052 0.0100251 0.0033867 0.0170217 0.00313768 0.0185213 0.00403826 0.0237018 0.00468731 0.0223824 0.00459568 0.0232307 0.00397174 0.0166451 0.00888986 0.0310743
23 1 Mg 0.231298 57.375 1.80535 1.2 1 0.0526113 0.0299062 0.00632093 0.00657708 0.00198641 0.00561097 0.00203081 0.0200835 0.00467456 0.011404 0.00314284 0.0274457 0.00276224 0.0200393 0.00386147 0.0295862 0.00614874 0.0199826 0.00705234 0.0451155
24 2 Si -1.76432 55.5093 1.9712 2.4 1 0.101872 0.0446299 0.00138032 0.0108196 0.00169216 0.00708579 0.00203293 0.0181453 0.00455465 0.0141502 0.00347291 0.02595 0.0036966 0.0200947 0.00401647 0.0264727 0.00663703 0.0181405 0.00734109 0.03951
25 3 O 1.43752 55.3231 1.95537 -1.2 1 0.105435 0.0444595 0.001389 0.0106528 0.00116093 0.00715562 0.00224002 0.0181684 0.00360082 0.0141124 0.00315392 0.0254269 0.00403731 0.0193581 0.00437196 0.0268252 0.00553211 0.0182798 0.00773944 0.0389842
26 3 O -0.914872 59.2675 1.6641 -1.2 1 0.023118 0.0162403 0.00762032 0.00479318 0.00141971 0.00503675 0.00158883 0.0221969 0.00409667 0.0090289 0.00297184 0.0287012 0.00333185 0.0199515 0.00424672 0.0324539 0.00625307 0.0226473 0.00688823 0.0508728
27 3 O -1.15603 56.1772 0.608095 -1.2 1 0.0809527 0.0390987 0.00308295 0.00886969 0.00221023 0.00635067 0.0021753 0.0196336 0.00467734 0.0132421 0.00336182 0.026554 0.00338628 0.0198447 0.00405337 0.0286708 0.00618926 0.0202438 0.0066774 0.0426281
28 3 O -1.17281 56.3379 3.17214 -1.2 1 0.0815437 0.0362813 0.00278578 0.00789535 0.00126757 0.00619242 0.00232741 0.0196385 0.00361407 0.0130826 0.00254298 0.0256619 0.00246116 0.019895 0.00303431 0.0282271 0.00505974 0.0198805 0.00717399 0.0418548
29 1 Mg -2.30887 59.7573 0.198372 1.2 1 0.0165299 0.0133376 0.00602299 0.00453438 0.00115056 0.00567596 0.00168455 0.0227702 0.00341202 0.00963046 0.00233989 0.0293141 0.00230878 0.0204144 0.00346875 0.0328819 0.00492973 0.0237008 0.00481916 0.0522092
30 1 Mg 2.40053 62.5775 1.6003 1.2 1 0.00373432 0.00421856 0.00140751 0.00532599 0.000977478 0.00560215 0.000831252 0.0240492 0.00257847 0.00836176 0.00251379 0.0293043 0.00206942 0.0212413 0.00308757 0.0355205 0.0034492 0.0248947 0.00343189 0.0564641
31 2 Si -0.24201 60.795 1.67684 2.4 1 0.00974055 0.00783656 0.00386845 0.00536315 0.00135364 0.00615984 0.00100519 0.0235116 0.00270443 0.00894511 0.00227419 0.0280575 0.00297217 0.0213598 0.00346183 0.0338727 0.00455783 0.0237323 0.00436554 0.0549725
32 3 O 1.32375 60.6736 1.70182 -1.2 1 0.0109435 0.00883581 0.0045185 0.00497948 0.00128067 0.00545207 0.00099639 0.0229853 0.00314759 0.00836331 0.0019777 0.02881 0.0024397 0.0204835 0.0035029 0.0341076 0.00423923 0.0236142 0.00519807 0.0539603
33 3 O -1.32194 64.4507 1.62163 -1.2 1 0.00275038 0.00363375 0.00179947 0.00597971 0.000738801 0.00593409 0.0009975 0.0248885 0.00140406 0.00769224 0.00174664 0.0298819 0.00213194 0.0207338 0.00308472 0.0344794 0.00363252 0.024577 0.00417163 0.0569847
34 3 O -0.955968 61.4295 0.39283 -1.2 1 0.00789564 0.00665144 0.00333948 0.00484512 0.000830514 0.00557375 0.000966773 0.0238626 0.00281569 0.00816882 0.00167366 0.0289831 0.00233112 0.0211884 0.00309039 0.0349104 0.0040438 0.0247096 0.00381334 0.0548458
35 1 Mg -2.30601 70.0868 3.11646 1.2 1 0.000502103 0.00275612 0.000355301 0.00624308 0.000699039 0.00549355 0.000672358 0.0250533 0.000867233 0.00782758 0.000907717 0.030495 0.000789124 0.0208234 0.000684104 0.0340929 0.00121987 0.0247814 0.0013663 0.0572019
36 3 O -0.913163 61.4482 2.93239 -1.2 1 0.00748814 0.00605619 0.00266467 0.00500525 0.00115977 0.00558399 0.00139558 0.0232401 0.00202706 0.00853524 0.00153238 0.0282289 0.00215279 0.0205279 0.00260415 0.0346478 0.00337408 0.0236168 0.00363853 0.0543071
37 1 Mg -2.24578 67.2243 4.6746 1.2 1 0.0017598 0.00280085 0.00113383 0.00604311 0.000923991 0.00533911 0.00145886 0.0244924 0.00187676 0.00837193 0.00184598 0.0297451 0.00219497 0.0216723 0.00292709 0.0353665 0.00236786 0.0253679 0.00253988 0.0584367
38 2 Si 0.373223 69.0708 4.53185 2.4 1 0.00109277 0.00292694 0.000705968 0.00665137 0.00108311 0.00573404 0.00127354 0.0244824 0.00122235 0.00783259 0.00203767 0.029005 0.00198478 0.0217336 0.00282918 0.0343497 0.00289729 0.0245483 0.00202331 0.0591876
39 3 O -1.18114 69.1179 4.61607 -1.2 1 0.000887388 0.00304375 0.000659816 0.00627512 0.00127522 0.00524548 0.00116472 0.0241141 0.00223692 0.00737482 0.00156707 0.029736 0.0020764 0.0209082 0.00198705 0.034678 0.00279067 0.024216 0.00243915 0.0583576
40 3 O 1.45029 65.4663 4.70468 -1.2 1 0.00203382 0.00307743 0.000889871 0.00620472 0.00100339 0.00594561 0.000955766 0.0247725 0.001439 0.00757423 0.00187203 0.029832 0.00234409 0.0208779 0.00261172 0.0346927 0.0023476 0.0248003 0.00284266 0.0578396
41 3 O 1.03464 68.4637 3.23917 -1.2 1 0.000905241 0.00289797 0.00067309 0.00588705 0.00112768 0.00541064 0.00114918 0.0249141 0.00127451 0.00780274 0.00156693 0.0291483 0.0018761 0.0217692 0.0022158 0.0347987 0.00207352 0.0249827 0.00178138 0.0583771
42 3 O 1.10661 68.415 5.81459 -1.2 1 0.00121829 0.00283909 0.000749041 0.00604142 0.00136994 0.00519558 0.00144993 0.024443 0.00124113 0.00762606 0.00152652 0.0293661 0.00233299 0.0213583 0.00250043 0.0349016 0.00228761 0.0246382 0.00156744 0.0583086
43 1 Mg 0.0475178 64.8809 3.12585 1.2 1 0.00239708 0.00349604 0.00134927 0.00581561 0.00073731 0.0055499 0.000867296 0.0245754 0.00109189 0.00801157 0.00101333 0.030087 0.00154371 0.0209119 0.0013662 0.034641 0.00189866 0.0245371 0.00224077 0.0568012
44 1 Mg 0.0208668 62.1395 4.66476 1.2 1 0.00545946 0.0041885 0.00225277 0.00535849 0.00145247 0.00562415 0.00160834 0.0236736 0.00178463 0.00830906 0.00222787 0.0290034 0.00265607 0.0210137 0.0032372 0.0346677 0.00310462 0.0239275 0.0039928 0.0554437
45 2 Si 2.13651 63.9572 4.65153 2.4 1 0.00282133 0.00340259 0.00124841 0.00620288 0.00142751 0.00631801 0.0014653 0.0240754 0.00166446 0.00757237 0.00235026 0.0283253 0.00203014 0.0213851 0.00361973 0.0346565 0.00261423 0.0244317 0.00333249 0.058445
46 3 O -1.07115 64.0317 4.63838 -1.2 1 0.00282282 0.00339771 0.00134814 0.00587399 0.00146347 0.00575592 0.00115004 0.0237553 0.00188424 0.0074285 0.0015058 0.0294397 0.00192227 0.0206615 0.00200685 0.0351613 0.00248442 0.0241393 0.0028789 0.0575522
47 3 O 1.17496 60.3163 4.66934 -1.2 1 0.0129093 0.00972545 0.00456139 0.0048516 0.00110073 0.00589938 0.00188683 0.0228028 0.00181972 0.00909575 0.0024662 0.0284135 0.00209206 0.0208482 0.00382317 0.0325744 0.00318348 0.0224511 0.00401744 0.0519937
48 3 O 1.4755 63.2514 3.39161 -1.2 1 0.00338119 0.0034211 0.00105778 0.00558161 0.00134581 0.00564416 0.00141825 0.0241601 0.00145127 0.00793064 0.00147864 0.0286949 0.0020531 0.0213965 0.00324524 0.0353464 0.00199556 0.0245439 0.00319326 0.0571586
49 1 Mg 0.0233508 64.8723 0.14316 1.2 1 0.00253745 0.00299057 0.00117895 0.00577207 0.000531386 0.00567464 0.000663505 0.0248443 0.0009289 0.00792992 0.000949168 0.03051 0.00132308 0.0208473 0.00142358 0.0345741 0.00162973 0.0246584 0.00215105 0.0563404
50 3 O 1.45066 63.273 5.93098 -1.2 1 0.00370216 0.00332793 0.00152565 0.00549241 0.00140622 0.00598238 0.00158022 0.0239523 0.00141752 0.00782571 0.00151657 0.0286241 0.00228933 0.0212638 0.00318484 0.0351827 0.00262188 0.0245319 0.00351037 0.0572159
51 1 Mg 0.114983 67.7496 1.59786 1.2 1 0.00117654 0.00265675 0.000957171 0.00601825 0.000820554 0.00488398 0.000937668 0.0249891 0.00235348 0.00787187 0.00247689 0.0300294 0.00232344 0.0214089 0.00272534 0.0350568 0.00261133 0.0250399 0.00250376 0.0578234
52 2 Si -2.0383 65.9303 1.62332 2.4 1 0.00198732 0.00329109 0.00134005 0.00617076 0.000959189 0.00582112 0.00153917 0.0245886 0.00134883 0.00775919 0.00177612 0.0287342 0.00200845 0.0214097 0.00287437 0.0346342 0.00321343 0.0246394 0.00257354 0.0586539
53 3 O 1.13364 65.8241 1.60561 -1.2 1 0.00233115 0.00344042 0.00123192 0.00583175 0.000671293 0.00556943 0.00125956 0.0242656 0.00193627 0.00760294 0.00110854 0.0297507 0.00214219 0.0206973 0.00193609 0.0348366 0.00229127 0.0244272 0.00281207 0.0576997
54 3 O -0.978618 69.5866 1.61244 -1.2 1 0.00085729 0.00286813 0.00091651 0.00634852 0.000563936 0.005526 0.000847355 0.0253366 0.00130588 0.00773857 0.00173401 0.0304749 0.00207225 0.0208634 0.00290758 0.0342539 0.00259309 0.0248766 0.00301168 0.05775
55 3 O -1.37168 66.6424 0.423922 -1.2 1 0.0014997 0.00268863 0.00119762 0.00558075 0.000840715 0.00515145 0.00132346 0.0244652 0.00149149 0.00813438 0.0015339 0.0290477 0.00213656 0.0215117 0.00213952 0.0349662 0.00210136 0.0246584 0.00248644 0.0578261
56 3 O -1.37843 66.5479 2.93188 -1.2 1 0.00187626 0.0030843 0.0013424 0.00572325 0.000874791 0.00534751 0.00142491 0.0248676 0.0012748 0.00772872 0.00119116 0.0290286 0.00198174 0.021571 0.00231666 0.0350961 0.00221392 0.0251415 0.00219889 0.0582905
57 1 Mg -2.49354 70.0821 0.120783 1.2 1 0.000620807 0.00268565 0.000531924 0.0059714 0.000612017 0.00530528 0.000670475 0.0250305 0.000720142 0.00804772 0.000886117 0.0309474 0.000814905 0.0211243 0.000921596 0.0342862 0.00107963 0.0246335 0.00111557 0.0570541
58 1 Mg 2.2814 72.9082 1.53813 1.2 1 0.000792602 0.0022288 0.000624102 0.00649792 0.000736544 0.0049196 0.00110727 0.0250734 0.00204336 0.00866569 0.00234472 0.030351 0.00216457 0.0220037 0.00280714 0.0346918 0.00283325 0.0247549 0.00242406 0.0579775
59 2 Si -0.355848 71.0694 1.60208 2.4 1 0.00111691 0.00257379 0.000841267 0.00680459 0.000773888 0.005685 0.00131649 0.0246837 0.00136926 0.00806834 0.00204968 0.0292051 0.00178312 0.0217058 0.00320145 0.0341877 0.0027269 0.024541 0.00233173 0.0587991
60 3 O 1.19241 71.0065 1.59355 -1.2 1 0.000650085 0.00266225 0.000770098 0.00633757 0.000456791 0.00509322 0.00110628 0.0249247 0.00215723 0.00755813 0.0012798 0.0299221 0.00134917 0.0208503 0.00162532 0.0346722 0.00276528 0.0246219 0.00236934 0.0581914
61 3 O -1.37048 74.7098 1.62126 -1.2 1 0.000438042 0.0024211 0.000855365 0.00662501 0.000793861 0.00516222 0.000847268 0.0255144 0.00111338 0.00777188 0.00131498 0.0305969 0.00178226 0.0210346 0.00218389 0.0342154 0.00222166 0.0242819 0.00267372 0.0574632
62 3 O -1.10779 71.7193 0.314601 -1.2 1 0.00040753 0.00223752 0.000560886 0.00600777 0.00106813 0.00494788 0.0015305 0.025285 0.00129852 0.00792829 0.00169068 0.0295614 0.00176693 0.0214992 0.0022237 0.0349206 0.00193002 0.0250232 0.00192925 0.0579832
63 1 Mg -2.3679 80.4612 3.06952 1.2 1 0.00160029 0.00140644 0.00059092 0.00650999 0.000860836 0.00481457 0.000675206 0.0253069 0.000886029 0.00818444 0.00109435 0.0312945 0.00117692 0.0211291 0.0012554 0.0344734 0.0011151 0.0238673 0.00153794 0.0563993
64 3 O -1.01865 71.7243 2.87128 -1.2 1 0.000400691 0.0025612 0.000564853 0.00611246 0.000974121 0.00525862 0.001369 0.0252691 0.00171201 0.00797148 0.00140538 0.029474 0.00135876 0.0213859 0.00204663 0.0345805 0.00177892 0.024859 0.00190183 0.0579497
65 1 Mg -2.34623 77.5827 4.56934 1.2 1 0.00202293 0.00171787 0.000920758 0.00625854 0.0008848 0.00445898 0.000904194 0.025006 0.00219918 0.00875 0.00195827 0.0306056 0.00230072 0.0215381 0.00300198 0.0349653 0.00249643 0.0241034 0.0020073 0.0575244
66 2 Si 0.355498 79.4055 4.55099 2.4 1 0.00205555 0.00158402 0.000835834 0.00673851 0.000959434 0.00515026 0.00134024 0.0253354 0.00176027 0.00854082 0.00226917 0.0294926 0.00197237 0.0218855 0.00306351 0.0344155 0.00308079 0.0236948 0.00273397 0.0585944
67 3 O -1.21323 79.5389 4.5654 -1.2 1 0.00193553 0.00183984 0.000982643 0.00650688 0.000963125 0.00473118 0.000946168 0.0253675 0.00217302 0.00790281 0.00123614 0.030555 0.00169791 0.0209332 0.00162973 0.0349798 0.00163323 0.0239487 0.00176042 0.0576499
68 3 O 1.39443 75.6911 4.58425 -1.2 1 0.000662842 0.00210262 0.000776071 0.00656255 0.000557615 0.00512414 0.000811931 0.0253737 0.00102598 0.00798029 0.00205182 0.0308965 0.00208987 0.020966 0.00300828 0.0341551 0.00298586 0.0235353 0.0028609 0.0574793
69 3 O 0.981298 78.7354 3.23043 -1.2 1 0.00154641 0.0014505 0.000857667 0.0061903 0.000653083 0.00461232 0.00147033 0.0254689 0.00181049 0.00866425 0.00182521 0.0298571 0.00205872 0.02204 0.00309959 0.0350342 0.00268581 0.0240359 0.00241717 0.0577031
70 3 O 1.04001 78.7814 5.82321 -1.2 1 0.00181527 0.00187593 0.00080607 0.00623073 0.000520815 0.00469886 0.00103054 0.0253779 0.00124727 0.00833739 0.00150106 0.029801 0.00168647 0.0212897 0.00203135 0.0350847 0.00196414 0.0241103 0.00191388 0.0576231
71 1 Mg -0.00814826 75.2467 3.10244 1.2 1 0.000648847 0.00205078 0.000435637 0.00645859 0.000716419 0.00488989 0.000714469 0.0252554 0.000633314 0.00824589 0.00083156 0.031233 0.000857905 0.0211607 0.000710589 0.0339743 0.00104041 0.0236125 0.000976147 0.0567055
72 1 Mg -0.0249342 72.4268 4.55911 1.2 1 0.000481757 0.00214535 0.000520649 0.00652663 0.000603899 0.00477505 0.00131891 0.0248197 0.00176255 0.00808616 0.00215302 0.0302599 0.00204455 0.0215187 0.00254967 0.0345809 0.00291922 0.0243968 0.00204878 0.0578098
73 2 Si 2.04552 74.2413 4.54889 2.4 1 0.000633531 0.00217164 0.000802457 0.00682492 0.00049469 0.0054291 0.00111788 0.0250528 0.000999602 0.00814248 0.00190367 0.0293872 0.00194973 0.0214921 0.00267614 0.0342398 0.00292377 0.0239284 0.00207675 0.0586603
74 3 O -1.13054 74.3174 4.56233 -1.2 1 0.00029927 0.00227526 0.000665926 0.0063536 0.000592161 0.00476335 0.000883355 0.0247128 0.00199005 0.00791634 0.00127919 0.0302124 0.00172235 0.0208292 0.00163927 0.0344811 0.00270317 0.0235718 0.00210209 0.057772
75 3 O 1.01675 70.5876 4.55606 -1.2 1 0.00108651 0.00277809 0.000825109 0.00656252 0.000814394 0.00534777 0.000946729 0.0253157 0.001053 0.00767496 0.00186683 0.030475 0.00205302 0.0208432 0.00286305 0.0340549 0.00298899 0.0244329 0.00263762 0.0578465
76 3 O 1.33914 73.5921 3.2499 -1.2 1 0.000464591 0.00231139 0.000642144 0.00624967 0.000835964 0.00504673 0.00129918 0.0252591 0.00128692 0.0080263 0.001616 0.0296315 0.00201131 0.0216294 0.0022879 0.0345549 0.00216451 0.0244668 0.00181162 0.0578208
77 1 Mg -0.0518861 75.2601 0.0679824 1.2 1 0.000632083 0.00209852 0.000690583 0.00625657 0.000692202 0.00507066 0.00053782 0.025195 0.00064087 0.00788486 0.00104395 0.0312505 0.000930289 0.021246 0.00103432 0.034092 0.00105064 0.0241298 0.00119619 0.0567741
78 3 O 1.39905 73.5686 5.83286 -1.2 1 0.000633855 0.00197987 0.000575676 0.00615456 0.00075947 0.00497205 0.00115208 0.025047 0.00124758 0.00854495 0.00121047 0.0296497 0.00199134 0.0218395 0.00195087 0.0345489 0.00238512 0.0241004 0.00172012 0.058005
79 1 Mg -0.0435433 78.1102 1.56762 1.2 1 0.000647033 0.00158004 0.000627983 0.00658796 0.000943912 0.00426832 0.00130989 0.0252788 0.00190706 0.0086995 0.0025285 0.0306318 0.00233498 0.0219344 0.00307657 0.0351379 0.0024568 0.0241853 0.00289572 0.0574134
80 2 Si -2.04737 76.2453 1.60316 2.4 1 0.000825673 0.00219093 0.000512231 0.00678984 0.00144465 0.00512233 0.00129799 0.0248653 0.00117999 0.00834745 0.00173327 0.0295096 0.00193875 0.0217344 0.00309866 0.0344987 0.00300081 0.0237822 0.00207254 0.0583381
81 3 O 1.16981 76.155 1.57792 -1.2 1 0.000440839 0.00225303 0.000747145 0.0064111 0.00134547 0.00469107 0.00114042 0.0246348 0.0023581 0.00793395 0.00171758 0.0302549 0.00179835 0.0210917 0.00205348 0.0347747 0.00234492 0.0237172 0.00257209 0.0575787
82 3 O -1.02786 79.9525 1.57569 -1.2 1 0.00131324 0.0016365 0.000869456 0.0067228 0.000967057 0.00491736 0.00113596 0.0253537 0.00133023 0.00787962 0.00168988 0.0310321 0.00201363 0.0211365 0.00315208 0.0345397 0.00271397 0.0236934 0.00336087 0.0570683
83 3 O -1.39768 76.9147 0.331342 -1.2 1 0.000736662 0.0020804 0.00053718 0.0062021 0.00117676 0.00490092 0.00116011 0.0251857 0.000787979 0.00833855 0.0012491 0.0298132 0.00184266 0.0216269 0.00238068 0.0348927 0.00190032 0.0243219 0.00147779 0.0574318
84 3 O -1.36319 76.9055 2.85821 -1.2 1 0.0014285 0.00191139 0.000563314 0.00636687 0.00147315 0.00457595 0.00146796 0.0254001 0.000798766 0.00849758 0.00116816 0.0297095 0.00197084 0.0215642 0.00223694 0.0351313 0.00155359 0.0242667 0.00163331 0.0577814
85 1 Mg -2.36238 80.348 0.123237 1.2 1 0.000498795 0.00151061 0.000609668 0.00654822 0.000686677 0.00491455 0.000738483 0.0250508 0.000786113 0.00811788 0.000871637 0.0313352 0.000987483 0.0215402 0.00107151 0.0343619 0.000973006 0.0238418 0.00125275 0.0564288
86 1 Mg 2.28691 83.2659 1.58121 1.2 1 0.000789029 0.00128727 0.000832233 0.00660945 0.000780048 0.00469994 0.00123715 0.0250411 0.00172034 0.00822926 0.00239549 0.0304989 0.00199731 0.0219974 0.00279415 0.0351913 0.00248885 0.0247221 0.0025476 0.0571867
87 2 Si -0.351194 81.4546 1.5335 2.4 1 0.0011612 0.0015474 0.000871709 0.00689886 0.00121187 0.00543215 0.00164704 0.0249876 0.00108331 0.0081183 0.00187948 0.0297787 0.00202385 0.0220951 0.0030363 0.0345017 0.00226346 0.0240419 0.00203395 0.0582446
88 3 O 1.21024 81.3424 1.61318 -1.2 1 0.0010775 0.00156521 0.000630691 0.0065618 0.00102737 0.00471652 0.00113678 0.0248268 0.00185651 0.00788437 0.0013358 0.0303689 0.00183408 0.0212874 0.0019161 0.035054 0.00276042 0.0239325 0.00273788 0.0576583
89 3 O -1.41567 85.0664 1.48381 -1.2 1 0.000922537 0.00197617 0.000930637 0.00670198 0.000704446 0.00525717 0.00114658 0.025227 0.00108251 0.00782639 0.00108737 0.0305734 0.00189754 0.0212845 0.00303808 0.0345625 0.00250062 0.0241787 0.00326223 0.0569302
90 3 O -1.02521 82.111 0.294746 -1.2 1 0.000862568 0.0014067 0.000606859 0.00638575 0.00108495 0.00510422 0.00142531 0.0248975 0.00151894 0.00844944 0.00129908 0.0297534 0.0018059 0.0225649 0.00220254 0.0349103 0.00163178 0.0242959 0.00166709 0.0575905
91 1 Mg -2.41425 90.6948 2.9205 1.2 1 0.000534767 0.00273273 0.000824647 0.00639371 0.000474411 0.00559258 0.00103991 0.0244119 0.000735067 0.00789384 0.00104352 0.0311787 0.0012292 0.0209476 0.00155177 0.0336018 0.00134663 0.0241683 0.00202041 0.0556399
92 3 O -1.03316 82.1023 2.83346 -1.2 1 0.0014983 0.00132605 0.000539223 0.00639797 0.00128857 0.00481508 0.00154574 0.0255036 0.00148712 0.0086971 0.00145447 0.0296321 0.00192784 0.0221745 0.00283226 0.0351042 0.00207185 0.0243054 0.00233544 0.0576595
93 1 Mg -2.28365 87.893 4.47247 1.2 1 0.00069383 0.00185572 0.000903931 0.00675836 0.000627928 0.00515752 0.00139407 0.0248927 0.00220702 0.00802502 0.00197421 0.0303669 0.00227473 0.0217022 0.00351331 0.0346495 0.00301103 0.0249545 0.00255792 0.0568729
94 2 Si 0.280058 89.7486 4.41597 2.4 1 0.00126477 0.00232184 0.000870109 0.00715092 0.000956585 0.00579987 0.0012482 0.0242722 0.00145206 0.00786481 0.00221315 0.0295354 0.00244283 0.0216468 0.00321909 0.0339344 0.00362575 0.0241693 0.00275226 0.0575037
95 3 O -1.28743 89.8052 4.38169 -1.2 1 0.000717544 0.00242431 0.000798888 0.00676313 0.000953658 0.0051554 0.00139522 0.0238744 0.00217089 0.00758294 0.0013333 0.0302046 0.00161714 0.0207348 0.00236983 0.0344933 0.00238401 0.0240477 0.00267656 0.0566641
96 3 O 1.35996 86.0793 4.50051 -1.2 1 0.000524958 0.00188839 0.000847353 0.00689844 0.00071213 0.00545769 0.000763383 0.0250996 0.00134342 0.00766721 0.00189742 0.0306301 0.0019329 0.0211018 0.00227534 0.0343866 0.00276285 0.02452 0.00293538 0.0569427
97 3 O 0.984795 89.0653 3.14432 -1.2 1 0.000736121 0.00251658 0.000657428 0.0064867 0.000703278 0.00526121 0.00121861 0.0247407 0.00150235 0.00809608 0.00126012 0.0296445 0.00210329 0.0218031 0.00222466 0.0344811 0.0022623 0.0244817 0.00211202 0.0569426
98 3 O 0.984573 89.0769 5.71884 -1.2 1 0.00117618 0.00177998 0.00104529 0.00674699 0.00100108 0.00514198 0.00118774 0.0243067 0.00121598 0.00785868 0.00145752 0.0299858 0.00211078 0.0213111 0.00250352 0.0345335 0.0022581 0.0246117 0.00174551 0.0569598
99 1 Mg -0.122935 85.5313 3.0211 1.2 1 0.00045432 0.00197283 0.000795542 0.00662803 0.000580809 0.0051818 0.00100021 0.0250229 0.000943361 0.00817339 0.00124736 0.0308889 0.00114467 0.0211544 0.00144409 0.0346549 0.00162557 0.0241808 0.00179712 0.0561224
100 1 Mg -0.111354 82.8212 4.52215 1.2 1 0.00233212 0.00144993 0.00083986 0.00662486 0.000769515 0.00482181 0.00110572 0.0247812 0.0021312 0.00854225 0.00177037 0.0303923 0.0023198 0.0217079 0.00299866 0.0353546 0.0028104 0.0244844 0.00208689 0.0575107
101 2 Si 2.0011 84.6145 4.51986 2.4 1 0.00134644 0.00195125 0.000956825 0.0068909 0.000708516 0.00559924 0.00150854 0.024636 0.00168726 0.00791876 0.00239971 0.0293938 0.00180089 0.0218357 0.00339819 0.034848 0.0036715 0.0243263 0.00274996 0.0582502
102 3 O -1.19243 84.6638 4.4849 -1.2 1 0.000949277 0.00188924 0.000856498 0.00662206 0.00058806 0.00504473 0.00126831 0.0244286 0.00207261 0.00761268 0.000794547 0.0301856 0.00190727 0.0210537 0.00159432 0.0352323 0.00313295 0.0241725 0.00229451 0.0575716
103 3 O 0.994551 80.9054 4.56235 -1.2 1 0.0021772 0.00171122 0.00100411 0.00677336 0.00104249 0.00521864 0.000763242 0.0255324 0.00124972 0.00788224 0.00248122 0.0309508 0.00217791 0.0211936 0.00328591 0.0343682 0.00334246 0.0239798 0.00297039 0.0573053
104 3 O 1.32539 83.9402 3.25105 -1.2 1 0.00141836 0.00167739 0.00052326 0.00646978 0.000690464 0.00513968 0.00125845 0.025127 0.00165688 0.00797081 0.00148398 0.029663 0.00174785 0.0216372 0.00228763 0.0352026 0.00221746 0.0246019 0.0018663 0.0573513
105 1 Mg 0.00149765 85.5291 0.0154404 1.2 1 0.000227032 0.00209771 0.000597786 0.00645696 0.000484394 0.0052272 0.000829391 0.0250634 0.000735261 0.00818395 0.000732784 0.0306988 0.000784001 0.0213134 0.000934366 0.0343519 0.00113431 0.0240782 0.00142558 0.0563594
106 3 O 1.32955 83.9204 5.79317 -1.2 1 0.00142832 0.00158186 0.000834613 0.00635736 0.000856849 0.00535711 0.00138696 0.0251888 0.00191495 0.00827334 0.00188083 0.0295063 0.00195095 0.0219719 0.00267744 0.035381 0.00311513 0.0247676 0.00227472 0.0579639
107 1 Mg 0.0011999 88.3975 1.45136 1.2 1 0.00075109 0.00278813 0.000842334 0.00653171 0.000613745 0.00511273 0.00165882 0.0244948 0.00189406 0.00835966 0.00208471 0.0302568 0.00207103 0.0218087 0.00285153 0.0347893 0.00246465 0.0246371 0.00276348 0.0568356
108 2 Si -2.12025 86.5622 1.49154 2.4 1 0.000578408 0.00233647 0.000651794 0.00695649 0.00107241 0.00572349 0.00141087 0.0247483 0.000957601 0.0080859 0.00158646 0.0292316 0.00184352 0.0221897 0.00324012 0.0344556 0.0023686 0.0241684 0.0024947 0.0581479
109 3 O 1.09471 86.4629 1.4921 -1.2 1 0.000449984 0.00248652 0.000767254 0.00659042 0.0012984 0.00517664 0.00144996 0.0247021 0.00185058 0.00757169 0.00118967 0.0302989 0.00140435 0.0210942 0.00230305 0.0348185 0.00192348 0.0242431 0.00211021 0.0567994
110 3 O -1.0357 90.3128 1.46601 -1.2 1 0.000367894 0.00298203 0.000938633 0.00664018 0.000714606 0.00593362 0.00132553 0.0244744 0.00126352 0.00772786 0.00180824 0.0309535 0.00164645 0.0212286 0.00348584 0.0334534 0.00276595 0.0238369 0.00342184 0.0565905
111 3 O -1.45232 87.2507 0.250202 -1.2 1 0.000125611 0.00264199 0.000593635 0.00627557 0.0010087 0.00528391 0.00135566 0.024654 0.00118602 0.00836526 0.0011868 0.0294969 0.00171713 0.0221119 0.00276729 0.0348604 0.00185783 0.0242374 0.00256171 0.0571905
112 3 O -1.39772 87.1886 2.77242 -1.2 1 0.000181704 0.00243077 0.000792677 0.00645885 0.00127524 0.00526149 0.00198776 0.0251451 0.00105041 0.00794426 0.00137631 0.0293376 0.00214555 0.021705 0.00334821 0.035101 0.00170336 0.0249418 0.00203855 0.0572058
113 1 Mg -2.38793 90.8187 -0.0517898 1.2 1 0.000723535 0.00343334 0.00057774 0.00624172 0.00055284 0.00562695 0.000836494 0.0245692 0.000872728 0.00815592 0.000954235 0.0309918 0.0012028 0.021063 0.00149316 0.0336332 0.00152793 0.0239019 0.00212804 0.055946
114 1 Mg 2.29224 93.6188 1.56157 1.2 1 0.00142691 0.00328397 0.000795952 0.0061878 0.000824222 0.00549829 0.00140696 0.0242814 0.0020059 0.00808819 0.0022538 0.0306816 0.00180648 0.0211025 0.00321734 0.0340761 0.00276453 0.0245754 0.00311454 0.0566831
115 2 Si -0.351383 91.8093 1.48893 2.4 1 0.00115002 0.00318175 0.000740476 0.00653297 0.00124027 0.00588931 0.00174946 0.0240975 0.00131373 0.0078723 0.00185201 0.0298663 0.00170249 0.0214491 0.00354416 0.0334674 0.00247535 0.0237846 0.00258607 0.0571791
116 3 O 1.20353 91.7261 1.50997 -1.2 1 0.000778568 0.00327142 0.000973373 0.00624898 0.00139367 0.00531296 0.00156731 0.023312 0.00298832 0.00773554 0.00239451 0.0301973 0.00221343 0.0209374 0.00260063 0.0342049 0.00299088 0.023575 0.00346783 0.0571031
117 3 O -1.33941 95.3862 1.54883 -1.2 1 0.00237378 0.00315764 0.00065062 0.00645975 0.00106786 0.00607344 0.00121472 0.0244029 0.00181827 0.00754122 0.00159027 0.0310412 0.00179358 0.0205441 0.00393727 0.0336847 0.00275055 0.0242336 0.00380841 0.056783
118 3 O -1.00999 92.4575 0.207893 -1.2 1 0.00112718 0.00330795 0.000610101 0.00604431 0.00123083 0.00558883 0.00146527 0.0240647 0.00154213 0.00839587 0.00115293 0.0297736 0.00176031 0.0216475 0.00283158 0.0340866 0.00217842 0.0240295 0.00250089 0.0568751