ITEM: TIMESTEP
42100
ITEM: NUMBER OF ATOMS
5600
ITEM: BOX BOUNDS xy xz yz pp pp pp
0	7.1235	0
0	201.985	2.3745
0	119.584	0
ITEM: ATOMS id type element xu yu zu q Q_1 Q_2 Q_3 Q_4 Q_5 Q_6 Q_7 Q_8 Q_9 Q_10 Q_11 Q_12 Q_13 Q_14 Q_15 Q_16 Q_17 Q_18 Q_19 Q_20 Q_21
1 1 Mg -1.48908 48.8656 -0.991356 1.2 1 0.239176 0.0828253 0.0193899 0.0287098 0.00658288 0.016932 0.00432996 0.0232766 0.00532864 0.0248826 0.00663672 0.0330047 0.011838 0.028967 0.00786348 0.0285146 0.00872806 0.0270792 0.0108603 0.0349759
2 1 Mg 3.07477 50.6827 2.3074 1.2 1 0.187937 0.0695503 0.0100759 0.0212035 0.00337382 0.0120293 0.00362828 0.0197527 0.00441689 0.0200373 0.0042734 0.0272525 0.00652405 0.0253901 0.00585729 0.0250044 0.00768389 0.0220808 0.0100808 0.0315318
3 2 Si 0.862238 50.471 0.380028 2.4 1 0.198737 0.0732176 0.0122233 0.0232941 0.00451744 0.0126283 0.00302223 0.0205574 0.00454742 0.0212796 0.00429855 0.0289337 0.00774724 0.0273625 0.00560107 0.0266503 0.00726716 0.0232744 0.00962338 0.0334722
4 3 O 2.11343 49.5287 0.545134 -1.2 1 0.217156 0.0767217 0.0160791 0.025292 0.00572734 0.0139327 0.00354897 0.0215878 0.00545228 0.0224387 0.00431945 0.0286928 0.00898455 0.0289571 0.00685742 0.02726 0.00874003 0.0237275 0.00956269 0.032298
5 3 O -1.26608 53.2357 1.71698 -1.2 1 0.13144 0.0522622 0.00379031 0.0149073 0.00197407 0.00974826 0.00263141 0.0192934 0.00310131 0.0163252 0.00343524 0.0279818 0.00496413 0.0219977 0.00357016 0.0258256 0.00586899 0.0210062 0.00757527 0.0350434
6 3 O 0.0794737 49.9298 -0.816022 -1.2 1 0.204276 0.0759488 0.0117755 0.0232369 0.00448188 0.0137222 0.00308222 0.0215987 0.00438866 0.0224096 0.00518856 0.0307443 0.0079458 0.0274869 0.00572247 0.0272991 0.006706 0.0234769 0.00920853 0.0349955
7 1 Mg -2.30393 58.9698 3.10597 1.2 1 0.0182411 0.0129335 0.00499943 0.00572269 0.00118293 0.00645052 0.00157556 0.0213173 0.00309685 0.0103642 0.00257742 0.0290846 0.00311336 0.0203172 0.00452491 0.0290863 0.00400919 0.0236774 0.00468581 0.0419345
8 3 O 0.0976495 50.7076 1.71165 -1.2 1 0.183224 0.0682857 0.0101503 0.0209394 0.00349134 0.0121256 0.00290792 0.0206008 0.00403231 0.0210897 0.00409707 0.0276607 0.00678992 0.0258842 0.00540872 0.0260457 0.00772293 0.0222304 0.00852218 0.0323132
9 1 Mg -2.34416 56.2004 4.57312 1.2 1 0.0710731 0.0333467 0.0040571 0.0089185 0.0020757 0.0067866 0.00280365 0.019109 0.00265521 0.0128993 0.00254991 0.026654 0.00282927 0.0198358 0.00376211 0.0257233 0.00450719 0.0222957 0.0060885 0.0363497
10 2 Si 0.404087 58.1759 4.64404 2.4 1 0.0285093 0.0178215 0.00656039 0.00648481 0.00103872 0.00630435 0.00374126 0.0199957 0.00330685 0.00985328 0.00373182 0.0273716 0.00325571 0.0199696 0.00627818 0.0269916 0.00480628 0.0228518 0.00547976 0.0394901
11 3 O -1.13519 58.2914 4.62754 -1.2 1 0.0271688 0.0171162 0.00620651 0.0061592 0.0014646 0.00618425 0.00261889 0.0202447 0.00310993 0.00967246 0.00293689 0.0277609 0.00361571 0.0197145 0.00442921 0.0274651 0.00439581 0.0224769 0.00511409 0.0400759
12 3 O 1.83128 53.862 5.10279 -1.2 1 0.118394 0.0481127 0.00108673 0.0136721 0.00181733 0.00946688 0.00275487 0.0190285 0.00232985 0.01555 0.00305236 0.0256615 0.00405981 0.0215295 0.00350644 0.0226532 0.00549023 0.0205894 0.00669808 0.0332507
13 3 O 1.14833 57.5152 3.38378 -1.2 1 0.0393202 0.022812 0.0069124 0.00643601 0.00136967 0.00594384 0.00270019 0.0210477 0.00239914 0.0106595 0.00275183 0.0275817 0.00303525 0.0202133 0.00442462 0.0281457 0.00430607 0.0231537 0.00537269 0.0399335
14 3 O 1.02018 57.4546 5.88055 -1.2 1 0.0386893 0.0221723 0.00631737 0.00638343 0.00148704 0.00638789 0.00272499 0.0197293 0.00229018 0.0101313 0.00265687 0.0262661 0.00284726 0.0196052 0.00429933 0.0262474 0.00407119 0.0227162 0.0053963 0.0380408
15 1 Mg 0.462411 53.1074 3.03436 1.2 1 0.133974 0.0541138 0.00240681 0.0156617 0.00180589 0.0101832 0.00287883 0.0191742 0.00336307 0.0171142 0.00348592 0.0269712 0.00457405 0.0217532 0.00371368 0.0243955 0.00537213 0.0200981 0.00774516 0.0336059
16 1 Mg 0.931948 49.8181 3.18997 1.2 1 0.211533 0.0760724 0.0133555 0.0255752 0.00395576 0.0142054 0.00423857 0.0204023 0.00411572 0.0218931 0.00363544 0.026626 0.00823543 0.0283886 0.00610199 0.0247671 0.00932303 0.0229941 0.0105298 0.02997
17 2 Si 2.57151 52.4317 4.82354 2.4 1 0.153972 0.0583241 0.00451616 0.0170361 0.00277447 0.0107672 0.00332615 0.0179943 0.00257317 0.0170079 0.00423407 0.0250832 0.0054424 0.0226747 0.00449077 0.0227271 0.00600858 0.0192714 0.00867769 0.0313076
18 3 O -0.627691 52.7685 4.75744 -1.2 1 0.138787 0.0543038 0.00262731 0.0158532 0.00207131 0.0100846 0.00294872 0.0176431 0.00267574 0.0163636 0.00375139 0.0263487 0.00529908 0.023417 0.00417202 0.0231137 0.00551622 0.0198753 0.00784735 0.0321794
19 3 O 2.7024 49.1307 3.44416 -1.2 1 0.227355 0.079171 0.0161464 0.0275745 0.00436145 0.0160639 0.00417769 0.0207469 0.00420253 0.0229748 0.00476098 0.0273163 0.00970535 0.0282705 0.00754173 0.0244185 0.00950447 0.0239019 0.0105064 0.0302813
20 3 O 1.92916 51.814 3.50734 -1.2 1 0.157973 0.0597698 0.00508498 0.0174585 0.00276156 0.0109708 0.00375061 0.0190282 0.00259251 0.0180639 0.00369316 0.0260903 0.00562232 0.0239899 0.00501049 0.0240996 0.00605142 0.0203581 0.00857898 0.0322089
21 1 Mg 0.0932689 53.9902 0.279564 1.2 1 0.114256 0.0494995 0.00104831 0.0132803 0.00151638 0.00877464 0.00232551 0.0205521 0.00331817 0.0165955 0.00316584 0.0295926 0.00442858 0.0214179 0.00425473 0.0270488 0.00486227 0.0222106 0.00665841 0.0368083
22 3 O 2.08028 51.2257 6.00714 -1.2 1 0.172511 0.0642618 0.00616474 0.0194935 0.00292795 0.0124835 0.0028775 0.0186773 0.00284782 0.0189363 0.00454336 0.0241238 0.00644813 0.0240268 0.0046933 0.0211585 0.00617117 0.0184605 0.0088763 0.0291528
23 1 Mg 0.0629788 56.7404 1.67492 1.2 1 0.0530997 0.0291821 0.0070383 0.00717211 0.00204934 0.0061818 0.00138474 0.020033 0.00422153 0.0120775 0.00319728 0.0288201 0.00326809 0.0197613 0.0045919 0.0273185 0.0055638 0.0211507 0.00573042 0.0398402
24 2 Si -1.90092 54.7477 1.7105 2.4 1 0.103342 0.0449059 0.000837874 0.0116978 0.001401 0.00779035 0.00223153 0.0192492 0.00405795 0.0148601 0.00380142 0.0274214 0.00341311 0.0212097 0.00329018 0.0259355 0.00584479 0.0200245 0.00602704 0.0366991
25 3 O 1.22148 54.6655 1.79854 -1.2 1 0.106706 0.0452973 0.00109468 0.0122938 0.00112991 0.0085434 0.00231482 0.0191828 0.00348571 0.0151595 0.00328259 0.0276748 0.00405062 0.0209962 0.00344134 0.0263671 0.00507982 0.0212527 0.00639714 0.0363906
26 3 O -1.08079 58.5324 1.48317 -1.2 1 0.0263235 0.0184196 0.00704733 0.00593186 0.00175167 0.00589052 0.00178009 0.0216027 0.00366273 0.0102215 0.00256776 0.0288741 0.00373494 0.0201893 0.0039793 0.0294974 0.0044167 0.0235207 0.00553602 0.0420869
27 3 O -1.16125 55.4567 0.445608 -1.2 1 0.0813044 0.0391106 0.00415418 0.0096643 0.0023734 0.00699785 0.00219582 0.0205032 0.00434344 0.0137067 0.00340435 0.0275776 0.00279877 0.0208361 0.0033346 0.0277966 0.00534275 0.0227787 0.00536241 0.0387971
28 3 O -1.24025 55.4671 2.96147 -1.2 1 0.0834887 0.0383884 0.00282498 0.00974847 0.00156408 0.00746419 0.00164808 0.0197175 0.00408704 0.0141618 0.00277761 0.0279073 0.00253248 0.0204055 0.00325292 0.0262972 0.00552214 0.0219121 0.00534698 0.0370038
29 1 Mg -2.38156 59.1195 0.290293 1.2 1 0.0171004 0.0136346 0.00562398 0.00599358 0.00146791 0.00644817 0.00143561 0.0215536 0.00290127 0.0100093 0.00220824 0.0291365 0.00301743 0.0203602 0.00434781 0.0294919 0.0038019 0.0242788 0.00503793 0.0432375
30 1 Mg 2.24556 62.0818 1.73472 1.2 1 0.00517628 0.00647426 0.00107162 0.00703441 0.00166669 0.0061391 0.00158961 0.0227418 0.00268036 0.00878648 0.00219057 0.0289585 0.00240545 0.0204488 0.00290831 0.0305949 0.00382807 0.0251117 0.00392559 0.0451916
31 2 Si -0.296835 60.0031 1.71031 2.4 1 0.0126803 0.0100457 0.00364869 0.00685727 0.00208164 0.00640893 0.00147536 0.0211435 0.00245642 0.00994282 0.00292749 0.0279385 0.00313416 0.0210952 0.00427183 0.0292976 0.00373414 0.0236572 0.00450838 0.0442124
32 3 O 1.29156 60.0266 1.59525 -1.2 1 0.011052 0.00940908 0.00364681 0.00693358 0.00200511 0.00631502 0.00151043 0.0214849 0.00338486 0.00913097 0.00203593 0.0282413 0.00304611 0.0203568 0.00502489 0.0297743 0.00422626 0.0244319 0.00506382 0.0439915
33 3 O -1.20952 63.8536 1.6638 -1.2 1 0.00418396 0.00545675 0.00137337 0.00743549 0.00196132 0.00620704 0.00116216 0.0228573 0.00181933 0.00835849 0.00188213 0.0284619 0.00265894 0.019755 0.00392565 0.0304591 0.00339763 0.025281 0.00419847 0.0458363
34 3 O -0.915743 60.8301 0.467034 -1.2 1 0.00767219 0.00771369 0.00251019 0.00664821 0.00168044 0.00643967 0.00146499 0.0221535 0.00298098 0.0092399 0.00206578 0.0280145 0.00211799 0.0208992 0.00366012 0.030345 0.00316959 0.0247074 0.00376516 0.0444094
35 1 Mg -2.41327 69.5411 3.10586 1.2 1 0.0037216 0.00465036 0.00124232 0.00744623 0.0010653 0.00606316 0.00101373 0.0241359 0.00106174 0.00823515 0.00119189 0.029704 0.00192016 0.0192735 0.00266129 0.0314802 0.00228548 0.0265473 0.00385275 0.0476201
36 3 O -0.926062 60.567 3.00373 -1.2 1 0.00990469 0.00857324 0.00200628 0.0064432 0.00185243 0.00619036 0.00168024 0.0216632 0.00269324 0.00892668 0.00212216 0.0282734 0.00313714 0.0207944 0.00388268 0.029529 0.00294429 0.0236437 0.00450934 0.0437136
37 1 Mg -2.26216 66.8108 4.47032 1.2 1 0.00190156 0.00566151 0.00112982 0.0072979 0.00132566 0.00540151 0.00137752 0.0233528 0.00245145 0.00867539 0.00212036 0.028613 0.00254414 0.0201154 0.00358409 0.0312826 0.00340898 0.0262703 0.00311454 0.0471295
38 2 Si 0.380861 68.6319 4.67994 2.4 1 0.00366441 0.00473052 0.00123839 0.00804041 0.00161101 0.00597845 0.00188588 0.02357 0.00144247 0.0081453 0.00206317 0.0281018 0.00212458 0.0199303 0.00447522 0.0312385 0.0041113 0.0260803 0.00408448 0.0482492
39 3 O -1.14801 68.6046 4.49871 -1.2 1 0.00318943 0.00483934 0.00111711 0.00750924 0.00140032 0.00570308 0.00145477 0.0235813 0.00216668 0.00794347 0.00122789 0.0289431 0.0024948 0.0195139 0.00256307 0.0318057 0.00328797 0.0261658 0.00302577 0.0481385
40 3 O 1.55263 64.7461 4.48301 -1.2 1 0.00144042 0.00571368 0.00101508 0.00721821 0.00100104 0.00617293 0.00166023 0.0233743 0.00165336 0.00861984 0.00213414 0.0289861 0.00246825 0.0199359 0.00314871 0.0302563 0.00265269 0.0254921 0.00286638 0.046217
41 3 O 1.10708 67.9282 3.27849 -1.2 1 0.00244602 0.00492697 0.00101072 0.00722315 0.00152249 0.00545942 0.00186024 0.0235862 0.00204894 0.00833204 0.00154604 0.0276626 0.00261925 0.0202375 0.00357882 0.0316138 0.00320197 0.0263789 0.00255889 0.0478479
42 3 O 1.10179 67.957 5.92346 -1.2 1 0.00386239 0.00556411 0.0014058 0.00746963 0.00209272 0.00551535 0.00275708 0.0242247 0.00195305 0.00852515 0.0021965 0.0280786 0.00237926 0.0201133 0.00448291 0.0319241 0.00406138 0.0270415 0.00331739 0.0473262
43 1 Mg 0.110391 64.6347 3.06776 1.2 1 0.00204171 0.00554748 0.00108091 0.00719103 0.00181722 0.00603997 0.00117626 0.0227197 0.00189029 0.00819426 0.00173799 0.028903 0.00218765 0.0193287 0.00368823 0.0304017 0.0023039 0.0253 0.00301082 0.0456026
44 1 Mg -0.0238888 61.4613 4.75818 1.2 1 0.00715921 0.00719799 0.00108241 0.00678684 0.00125292 0.00616948 0.00204595 0.0221275 0.00187693 0.00886215 0.00231747 0.028726 0.00273139 0.0208264 0.00412631 0.0298686 0.00340437 0.0243326 0.00419476 0.0442546
45 2 Si 2.18081 63.2609 4.55936 2.4 1 0.00373265 0.00574674 0.00126725 0.00797813 0.00113118 0.00617998 0.00177561 0.0223857 0.00137937 0.0084964 0.00236754 0.0275303 0.00203555 0.0209757 0.00494175 0.0297674 0.00370492 0.0248413 0.00406155 0.046743
46 3 O -1.09813 63.4189 4.5196 -1.2 1 0.00348597 0.00571938 0.00118971 0.00781197 0.00106661 0.00590282 0.00131594 0.0222909 0.00248467 0.00832736 0.00192519 0.0283547 0.00263168 0.0199596 0.00272327 0.0306855 0.00385896 0.0250435 0.00328921 0.0459105
47 3 O 1.08236 59.6768 4.61561 -1.2 1 0.0150638 0.0114178 0.00333358 0.00641923 0.000847254 0.00664899 0.00273444 0.0212376 0.00294283 0.00929418 0.00265708 0.0285723 0.0030252 0.0203527 0.00416341 0.0287614 0.00347954 0.0235548 0.00407093 0.0422189
48 3 O 1.42826 62.4967 3.42396 -1.2 1 0.00496365 0.00601646 0.000986029 0.00735838 0.001091 0.00572938 0.00237456 0.0223821 0.00159981 0.0085235 0.00193568 0.0280783 0.00238184 0.0207726 0.00368878 0.0305842 0.00301284 0.0250245 0.00364764 0.0454984
49 1 Mg 0.138667 64.2884 0.319973 1.2 1 0.00366072 0.00552666 0.00133285 0.00702535 0.00173303 0.00603245 0.000802247 0.0226853 0.00168773 0.0087753 0.00187302 0.028653 0.00222214 0.0195738 0.00258269 0.0298285 0.0021758 0.0250396 0.00239969 0.0452494
50 3 O 1.4266 62.7778 5.9761 -1.2 1 0.0044823 0.00649079 0.00108616 0.00745071 0.00138661 0.00614651 0.00266256 0.0225795 0.00151614 0.00860776 0.00203065 0.0282409 0.00224279 0.0207463 0.00473221 0.0303267 0.00398646 0.0254184 0.00379875 0.045551
51 1 Mg 0.0682014 67.3646 1.48971 1.2 1 0.000971199 0.00494332 0.00113708 0.00730774 0.00107686 0.00530425 0.00103443 0.0231476 0.0014766 0.00824151 0.00214076 0.0283587 0.00170928 0.0201561 0.00387736 0.0308209 0.00287035 0.0253863 0.00380649 0.0470133
52 2 Si -1.9598 65.3017 1.66098 2.4 1 0.00260432 0.00501745 0.00105512 0.00796264 0.0022665 0.00603454 0.00147954 0.0222771 0.00259371 0.0084746 0.00232933 0.0272081 0.0031185 0.0201739 0.00463588 0.0305887 0.00378891 0.0249708 0.00335465 0.0466422
53 3 O 1.2714 65.266 1.67731 -1.2 1 0.00302603 0.005046 0.00141535 0.00730883 0.00176839 0.00585084 0.0011618 0.0229229 0.00270317 0.00843178 0.00201559 0.0282184 0.00203084 0.0196336 0.0035 0.0308121 0.00290379 0.0255226 0.00339724 0.046968
54 3 O -0.911606 68.9933 1.52337 -1.2 1 0.00174709 0.00477844 0.00113048 0.00753234 0.00114972 0.0061105 0.000941164 0.0241245 0.00124191 0.00828143 0.00149167 0.0287672 0.00191101 0.019606 0.00355722 0.0313892 0.00291489 0.0264477 0.00430482 0.0475615
55 3 O -1.28263 65.9638 0.389237 -1.2 1 0.0025279 0.00501379 0.00141172 0.00703874 0.00236346 0.00568932 0.0013983 0.0228474 0.00136661 0.00829416 0.00151381 0.0274116 0.00269647 0.0201803 0.00288754 0.0307929 0.00180632 0.0256091 0.00285244 0.0466556
56 3 O -1.18487 66.1064 2.7752 -1.2 1 0.0010756 0.00535335 0.000963218 0.00714552 0.00175597 0.00545333 0.00140397 0.0232369 0.00226974 0.0082797 0.00186615 0.0281238 0.00264775 0.0199789 0.00326991 0.0310406 0.00255272 0.0257295 0.00284933 0.0465835
57 1 Mg -2.35076 69.5939 0.0461655 1.2 1 0.00178337 0.00487067 0.000884035 0.00704407 0.0011191 0.00595044 0.00126 0.0237623 0.00115989 0.00827535 0.00152543 0.0286996 0.00199153 0.0191321 0.00297905 0.0312129 0.0022928 0.0264687 0.00338553 0.0474138
58 1 Mg 2.25464 72.3978 1.61949 1.2 1 0.00457682 0.00445259 0.0015229 0.00746418 0.00101653 0.00539641 0.00155999 0.0241617 0.00208512 0.00854747 0.00274182 0.029306 0.00280466 0.0193892 0.00326271 0.0313131 0.00311759 0.026833 0.00365082 0.0490123
59 2 Si -0.341429 70.5481 1.56769 2.4 1 0.00353555 0.00468599 0.00129559 0.00816536 0.00194467 0.0056574 0.00253128 0.0238007 0.00194671 0.00799784 0.00270736 0.0282566 0.00250463 0.0200034 0.00457887 0.0314284 0.00285147 0.0265588 0.00388729 0.0496255
60 3 O 1.25331 70.4453 1.6141 -1.2 1 0.00338571 0.00480846 0.0011763 0.00765827 0.0014166 0.00579498 0.0018564 0.0240618 0.00201392 0.00789528 0.00185948 0.0289157 0.0022579 0.0192603 0.00334394 0.0313782 0.00318761 0.026448 0.00429385 0.0487259
61 3 O -1.39334 74.2785 1.53954 -1.2 1 0.00431111 0.00406753 0.00208738 0.00761793 0.00134376 0.0066043 0.00187147 0.0242562 0.00153113 0.00844771 0.00221973 0.0297234 0.00279751 0.0186335 0.00434286 0.0308361 0.00361585 0.0269068 0.00413029 0.0491686
62 3 O -1.01847 71.1442 0.236362 -1.2 1 0.00310011 0.00480394 0.00117917 0.00736747 0.00221185 0.00550773 0.00234485 0.0241993 0.00187977 0.0079736 0.00227304 0.0276006 0.00297735 0.0196663 0.00315577 0.0316114 0.00282772 0.0266207 0.00395182 0.0489392
63 1 Mg -2.38224 80.1772 3.25361 1.2 1 0.00282276 0.00417576 0.00178003 0.00805956 0.00131842 0.00759599 0.00108886 0.0239653 0.00101349 0.00940802 0.00149576 0.0304247 0.00145179 0.0195638 0.0020056 0.0309786 0.00251988 0.0275937 0.00281049 0.0480931
64 3 O -1.15044 71.2533 2.80054 -1.2 1 0.00499028 0.00472468 0.00177117 0.00766451 0.00206825 0.00551299 0.00310419 0.0243105 0.00209774 0.00842388 0.00261805 0.0284131 0.00224517 0.0198008 0.00342741 0.0318399 0.00237594 0.0266825 0.00400357 0.0489207
65 1 Mg -2.10484 76.9583 4.52031 1.2 1 0.00434216 0.00379989 0.00243937 0.00822373 0.00134178 0.00668369 0.00150475 0.0239283 0.00212405 0.00958963 0.00222465 0.0306262 0.00251524 0.0195843 0.00346924 0.0321625 0.00295873 0.0273553 0.00308379 0.0485226
66 2 Si 0.498536 78.9953 4.69989 2.4 1 0.00420722 0.00369828 0.00201745 0.00890489 0.0018498 0.00721398 0.0018356 0.0233276 0.00169267 0.00976933 0.00199679 0.0293426 0.00190577 0.0200127 0.0037809 0.0316804 0.00381871 0.027157 0.00311339 0.0486155
67 3 O -1.04574 79.11 4.57908 -1.2 1 0.00375468 0.00393012 0.00204389 0.00847231 0.00130018 0.00740622 0.00130215 0.0231744 0.00219706 0.00946433 0.00184414 0.0301482 0.0020252 0.0192257 0.00245838 0.0319758 0.00285159 0.0271754 0.00256612 0.0484646
68 3 O 1.46871 75.2393 4.58337 -1.2 1 0.00504287 0.00365826 0.00223682 0.00838245 0.00135848 0.00699447 0.00155929 0.0245144 0.00131409 0.00897236 0.00231219 0.0304757 0.00267603 0.0189087 0.00274613 0.0317745 0.00294648 0.0273655 0.00315138 0.0489302
69 3 O 1.13583 78.1698 3.54792 -1.2 1 0.00384417 0.00394807 0.00194907 0.00812489 0.0014835 0.00651359 0.00142178 0.0236919 0.00175747 0.00974635 0.00184574 0.0291143 0.00231704 0.0204665 0.00303644 0.0319499 0.00348874 0.0275331 0.00312221 0.0485282
70 3 O 1.22934 78.3761 5.92328 -1.2 1 0.00470861 0.00380554 0.00270062 0.00842685 0.00218123 0.00683352 0.00327063 0.0236293 0.00163374 0.0100903 0.00277568 0.02922 0.00225617 0.0199088 0.00291515 0.0323934 0.00285265 0.0271863 0.00293062 0.0480936
71 1 Mg 0.0535872 74.8839 2.92379 1.2 1 0.00429186 0.00399957 0.00197241 0.00751901 0.0013101 0.00651159 0.00158252 0.0240779 0.00143073 0.00875615 0.00199689 0.0301479 0.0025279 0.0186131 0.00257586 0.0315035 0.00282534 0.026749 0.00314728 0.0483517
72 1 Mg -0.143222 71.928 4.50861 1.2 1 0.00558393 0.00505427 0.00205073 0.00769702 0.00167104 0.00582266 0.00157344 0.0245508 0.00225488 0.00898879 0.00239419 0.0303379 0.00288607 0.0195475 0.00382943 0.0320305 0.0030358 0.027023 0.00448695 0.048744
73 2 Si 2.07236 73.7805 4.42277 2.4 1 0.0052513 0.00387464 0.00188578 0.00864618 0.00183012 0.0063006 0.00157106 0.024471 0.00163217 0.00880905 0.00293694 0.0291464 0.00308535 0.0196162 0.00441167 0.0318471 0.00384184 0.0269169 0.00367678 0.0497898
74 3 O -1.09006 73.8801 4.48804 -1.2 1 0.00546095 0.00367906 0.00220932 0.00833385 0.00184701 0.00607613 0.00121704 0.0238457 0.00237325 0.0085329 0.00212364 0.0299205 0.00250298 0.0187967 0.00290608 0.0320912 0.00284811 0.0264971 0.00412993 0.0492601
75 3 O 0.984928 70.1171 4.58798 -1.2 1 0.00468849 0.00494289 0.00144469 0.00769292 0.00125516 0.00627829 0.00142028 0.0246397 0.00133796 0.00841426 0.00248393 0.029659 0.00292773 0.0193739 0.00375385 0.0314753 0.00319718 0.0266571 0.00422786 0.0480514
76 3 O 1.30257 73.0983 3.2279 -1.2 1 0.00501126 0.00439906 0.00204183 0.00739114 0.00174008 0.00561571 0.00135379 0.0251713 0.00144949 0.00861978 0.0022895 0.0291492 0.0028857 0.0196358 0.00400777 0.0318006 0.003421 0.0272641 0.00352994 0.0492529
77 1 Mg 0.170969 74.6652 0.075284 1.2 1 0.00363302 0.00397765 0.00167984 0.00712059 0.00101775 0.00653173 0.00142004 0.0241493 0.00109889 0.00828931 0.0020847 0.0296375 0.00228571 0.0183258 0.00289427 0.030947 0.00279261 0.0269634 0.00330978 0.0484297
78 3 O 1.50879 73.1528 5.77597 -1.2 1 0.00459773 0.00437223 0.00204906 0.00802525 0.00146808 0.00616855 0.00198689 0.0244773 0.00136008 0.0085612 0.00225961 0.0297446 0.00296514 0.0192195 0.00372198 0.0325487 0.0030382 0.0273384 0.00316321 0.0487384
79 1 Mg 0.10949 77.7635 1.58466 1.2 1 0.00318944 0.00376773 0.00195687 0.00758682 0.00126907 0.00656467 0.00177623 0.0238102 0.00191687 0.00929279 0.00262416 0.0300373 0.00259956 0.0195563 0.00374099 0.0313545 0.00384202 0.0272831 0.00433232 0.0489769
80 2 Si -2.00619 75.7775 1.41563 2.4 1 0.0039547 0.00319312 0.00182619 0.00813982 0.00136794 0.00652107 0.00221217 0.0237461 0.00133224 0.0091558 0.00209609 0.0284053 0.00245098 0.0194185 0.00369272 0.030591 0.00308474 0.0264509 0.00344929 0.0502803
81 3 O 1.12904 75.793 1.4488 -1.2 1 0.00369494 0.0033048 0.00159393 0.0079422 0.0020511 0.00625376 0.00211602 0.0230928 0.00239053 0.00848374 0.00205152 0.0293948 0.00283624 0.0185535 0.00299261 0.0313341 0.00387135 0.0263897 0.00372175 0.0494229
82 3 O -0.88797 79.5342 1.67144 -1.2 1 0.00282847 0.00402989 0.00143253 0.00818208 0.00137754 0.00735294 0.00126469 0.0242423 0.00103677 0.00927227 0.00201544 0.0299622 0.00257434 0.0194652 0.0034638 0.0308501 0.00301431 0.0276315 0.00409312 0.0491482
83 3 O -1.31457 76.4172 0.191803 -1.2 1 0.00363073 0.00389606 0.0017022 0.00733991 0.00189132 0.00632299 0.00240806 0.0242572 0.00158743 0.00908988 0.00198067 0.0288266 0.00304547 0.0195822 0.0032744 0.0309678 0.00303776 0.0270881 0.00434829 0.0499003
84 3 O -1.2223 76.4441 2.64735 -1.2 1 0.00385982 0.00332442 0.00167016 0.0079143 0.00189549 0.00637826 0.00253783 0.0236592 0.00120888 0.00898927 0.00174651 0.0290625 0.00215229 0.0190984 0.00319987 0.0316266 0.00266312 0.0269623 0.00301156 0.0489264
85 1 Mg -2.31665 80.0857 0.152776 1.2 1 0.00274363 0.0041858 0.00138853 0.00768398 0.00129378 0.00721285 0.00135137 0.0239583 0.00131016 0.00907163 0.0016762 0.029451 0.00226455 0.0193579 0.0019155 0.0305776 0.00287495 0.0271954 0.00386112 0.0480351
86 1 Mg 2.27215 82.8684 1.74632 1.2 1 0.0012125 0.00464648 0.000533314 0.00783961 0.00103739 0.00697734 0.0015075 0.0237313 0.00153572 0.0101519 0.00276709 0.0295725 0.00233945 0.0203191 0.00298736 0.031934 0.00318497 0.0274117 0.00249174 0.0486997
87 2 Si -0.320568 81.0333 1.63421 2.4 1 0.00162689 0.00409565 0.00101787 0.00879377 0.00194478 0.00696417 0.00210594 0.0233706 0.00161665 0.00973151 0.00220032 0.0291601 0.00220126 0.0199962 0.00362371 0.031125 0.00301168 0.0271705 0.00316855 0.0498265
88 3 O 1.27656 80.9137 1.63857 -1.2 1 0.00173547 0.00422841 0.00112449 0.00827454 0.0012549 0.00716594 0.00143487 0.0235397 0.00236453 0.00936057 0.0017746 0.0296686 0.00219757 0.0196964 0.002789 0.0311836 0.00289773 0.0276606 0.0035528 0.0496202
89 3 O -1.18622 84.6651 1.74284 -1.2 1 0.0014273 0.00428011 0.000948122 0.00794967 0.000725474 0.00771674 0.000974555 0.0240958 0.00122351 0.00972151 0.00197241 0.0293429 0.00223453 0.0201388 0.00202321 0.0313198 0.0022359 0.0271171 0.00320776 0.0479836
90 3 O -1.06826 81.5839 0.334539 -1.2 1 0.0018161 0.00454066 0.00059031 0.00785064 0.00200196 0.0066784 0.00204528 0.0242468 0.00138311 0.0100774 0.00181829 0.0283008 0.00248443 0.0206345 0.00284179 0.0310286 0.00290026 0.0273678 0.00338785 0.0491643
91 1 Mg -2.33776 90.4344 3.39011 1.2 1 0.00257281 0.00413309 0.00150551 0.00742084 0.000817025 0.00737216 0.00112661 0.0235361 0.0014658 0.00910239 0.00152849 0.029217 0.00281105 0.0195386 0.00356449 0.0306611 0.00376969 0.026594 0.00442022 0.0459735
92 3 O -0.869822 81.6966 2.88938 -1.2 1 0.00190255 0.0043766 0.00141535 0.00809164 0.00172778 0.00705762 0.00268652 0.0238882 0.00202562 0.00980905 0.00207517 0.0289645 0.00206976 0.020598 0.00343482 0.0318281 0.00279629 0.0274373 0.00280649 0.0485498
93 1 Mg -2.46195 87.5141 4.69693 1.2 1 0.000973012 0.00442387 0.00160043 0.00777569 0.00115765 0.006989 0.00105027 0.0238782 0.00221025 0.0100093 0.00203784 0.0287296 0.00254689 0.0203593 0.00445492 0.0330803 0.00437581 0.0273557 0.00514621 0.0479891
94 2 Si 0.28518 89.3769 4.87922 2.4 1 0.0013736 0.00394278 0.00142444 0.00802895 0.00151692 0.00705886 0.00151688 0.0235291 0.00173242 0.00926869 0.00214096 0.0275088 0.00345388 0.0205487 0.00434557 0.0318624 0.00335833 0.0265386 0.00487021 0.0483072
95 3 O -1.27982 89.4129 4.93987 -1.2 1 0.00134087 0.00411979 0.00146454 0.0078712 0.0016549 0.00690141 0.00147879 0.0229801 0.00250353 0.00903301 0.0020063 0.0280656 0.00297043 0.0199585 0.00399852 0.0323443 0.00371666 0.0263244 0.00527264 0.0473053
96 3 O 1.47026 85.7074 4.60926 -1.2 1 0.00126026 0.00457976 0.00127883 0.0078889 0.00117944 0.00767243 0.000758725 0.0242552 0.00194829 0.00988563 0.00179173 0.0294025 0.00253879 0.020343 0.00397257 0.0325177 0.00379449 0.027655 0.00462001 0.04852
97 3 O 1.10324 88.6879 3.61271 -1.2 1 0.00165447 0.00412794 0.00197596 0.00765891 0.00124111 0.00693747 0.00196137 0.0236614 0.00228466 0.00934051 0.00168647 0.0275615 0.00290739 0.0206119 0.00371531 0.0317346 0.00325807 0.0266534 0.00444785 0.0471863
98 3 O 0.937459 88.6473 6.10461 -1.2 1 0.000554985 0.00457372 0.0011351 0.00781181 0.00117328 0.0069273 0.001181 0.0237455 0.00186267 0.0102645 0.00195789 0.0275786 0.0024874 0.0212576 0.00357224 0.0327213 0.00329968 0.0271096 0.00394559 0.048616
99 1 Mg 0.0987578 85.2126 3.21317 1.2 1 0.00117071 0.00446927 0.00115872 0.00770119 0.000743474 0.00750419 0.000856978 0.0239196 0.00161542 0.00996449 0.00193314 0.029424 0.0021678 0.0200687 0.0020994 0.0323261 0.00234445 0.0272699 0.0034781 0.0475547
100 1 Mg -0.0472048 82.2175 4.61404 1.2 1 0.0027699 0.00502873 0.00115897 0.00787019 0.00134708 0.00729004 0.00110571 0.0238497 0.00195525 0.0101605 0.00215978 0.0303197 0.00211577 0.0206377 0.00365581 0.0326872 0.00297909 0.0281663 0.00255848 0.0485115
101 2 Si 2.19166 84.2042 4.83508 2.4 1 0.00120298 0.00482516 0.000466508 0.00864996 0.00113251 0.00747116 0.00129054 0.0240293 0.00208722 0.0104398 0.00235512 0.0287177 0.00200354 0.0211569 0.00351201 0.0323315 0.00284737 0.027603 0.00294771 0.049366
102 3 O -1.01363 84.299 4.84791 -1.2 1 0.00102863 0.00482829 0.000621499 0.00835158 0.00130084 0.00730553 0.00139808 0.0233051 0.00278619 0.0098506 0.00188352 0.0291082 0.00171524 0.0202309 0.00326794 0.0325944 0.00306145 0.0273838 0.00335986 0.0486922
103 3 O 1.1995 80.5588 4.75423 -1.2 1 0.00289492 0.00458142 0.00181422 0.00840105 0.0014713 0.00763668 0.00118143 0.0239279 0.00110646 0.00964681 0.00183576 0.0304057 0.00163858 0.0198108 0.00270418 0.031549 0.00290136 0.0277387 0.00257205 0.0483704
104 3 O 1.49101 83.4858 3.57038 -1.2 1 0.00131473 0.00490998 0.000582766 0.00772752 0.00121788 0.00725055 0.00142292 0.0240659 0.00189802 0.00991555 0.00164578 0.0284985 0.00193199 0.020861 0.00330315 0.0324993 0.00286968 0.0278845 0.00274353 0.0485032
105 1 Mg 0.0364692 85.2651 0.16115 1.2 1 0.00316805 0.00452887 0.00160538 0.00737003 0.000693008 0.00746346 0.000864668 0.0239159 0.00123237 0.0096414 0.00183886 0.0291253 0.00227168 0.019531 0.00172715 0.0308297 0.00215476 0.026986 0.00346211 0.0468754
106 3 O 1.55135 83.6437 6.09563 -1.2 1 0.00176983 0.00534221 0.00102416 0.00815154 0.00153982 0.00714066 0.00200128 0.0239927 0.00198399 0.0104814 0.00217466 0.0288992 0.00299588 0.0207361 0.00367919 0.0332354 0.00281552 0.0281581 0.00295909 0.0485769
107 1 Mg 0.153716 87.9491 1.94531 1.2 1 0.00304725 0.00464267 0.00176561 0.007869 0.000906261 0.00689541 0.00139946 0.0235436 0.00236238 0.00937708 0.00265174 0.0284067 0.00295564 0.0200815 0.00375662 0.0318711 0.0030737 0.0265636 0.00472095 0.0467291
108 2 Si -1.98361 86.0747 1.62393 2.4 1 0.00256527 0.00413677 0.00146575 0.0084825 0.00125798 0.00753265 0.0014519 0.0235457 0.00145856 0.00959029 0.00266014 0.027598 0.00291454 0.0210309 0.00375738 0.0310819 0.00339472 0.0264434 0.00489364 0.0482813
109 3 O 1.21588 85.9815 1.62185 -1.2 1 0.00213452 0.00421425 0.00148758 0.00792639 0.000864555 0.00744515 0.0015445 0.023133 0.00204445 0.00935121 0.00208933 0.0290143 0.00230728 0.0200153 0.00284396 0.0315118 0.00209345 0.0261747 0.00426691 0.0475324
110 3 O -1.10353 89.8405 1.81944 -1.2 1 0.00281321 0.00448518 0.00147042 0.0076612 0.000893304 0.00731059 0.00155393 0.0240887 0.00186325 0.00872503 0.00231915 0.0286987 0.00286157 0.0198027 0.00318506 0.0304528 0.00339599 0.0262955 0.00414097 0.0464485
111 3 O -1.39905 86.7094 0.258764 -1.2 1 0.00383442 0.00429196 0.00191478 0.00783845 0.00224971 0.00708349 0.00243122 0.0234239 0.00174007 0.00952093 0.00224319 0.0281521 0.00255226 0.0203442 0.00302274 0.0314941 0.00272025 0.0264951 0.00415471 0.0473402
112 3 O -1.33729 86.7907 2.80606 -1.2 1 0.00219947 0.00430102 0.00149686 0.00772866 0.00151629 0.00706245 0.00186357 0.0234603 0.00171606 0.00944783 0.00217804 0.0277587 0.00305663 0.0203645 0.004318 0.0323252 0.0035566 0.0267236 0.00482974 0.0469656
113 1 Mg -2.54457 90.3008 0.408274 1.2 1 0.00389775 0.00467581 0.00076341 0.00755139 0.00100374 0.00740009 0.000778024 0.0235715 0.00139881 0.00863188 0.00185304 0.0289106 0.00210105 0.0190912 0.00258171 0.0303292 0.00309944 0.0263851 0.00370046 0.0448511
114 1 Mg 2.29919 93.2295 1.64849 1.2 1 0.00339111 0.00469893 0.00117689 0.00744941 0.00120169 0.00698464 0.0016721 0.0235591 0.00184669 0.00892166 0.00233188 0.0286826 0.00316098 0.019973 0.00405549 0.0310401 0.00439162 0.0267242 0.00435536 0.0455828
115 2 Si -0.375679 91.2917 1.8545 2.4 1 0.00302386 0.00424295 0.00130988 0.0083268 0.00134943 0.0071761 0.00203684 0.0232311 0.00161777 0.00826451 0.00205498 0.0278069 0.0026187 0.0199956 0.00469068 0.0301843 0.00496072 0.0258678 0.00482649 0.046652
116 3 O 1.11351 91.4216 1.85346 -1.2 1 0.00363403 0.00408506 0.00149784 0.00837782 0.00104812 0.00664626 0.00160768 0.0221593 0.00219397 0.00832195 0.00172009 0.0279772 0.00247842 0.0194953 0.00295984 0.0313408 0.00401816 0.0255498 0.00348615 0.046552
117 3 O -1.59275 94.8988 1.79715 -1.2 1 0.00297349 0.00488361 0.00162813 0.00742985 0.0010349 0.00707599 0.00143408 0.0239304 0.00151987 0.00903185 0.0027331 0.0289145 0.00338801 0.0196252 0.00405483 0.0311671 0.0040307 0.0268967 0.00468724 0.0457269
118 3 O -1.0974 92.1477 0.645146 -1.2 1 0.00316192 0.00467068 0.00118677 0.00792102 0.00158542 0.00675959 0.00273365 0.0230107 0.00174531 0.00850704 0.00211741 0.0277444 0.00244764 0.0201553 0.00374074 0.0306956 0.00400572 0.0261007 0.0038447 0.0457532
119 1 Mg -2.49633 100.842 3.30069 1.2 1 0.00334998 0.00460581 0.00167348 0.00707653 0.00188884 0.00689525 0.00185791 0.0231081 0.00199914 0.00940417 0.00198395 0.0292065 0.00271144 0.0206744 0.00310571 0.0318862 0.00269965 0.0269832 0.00442231 0.0456364