ITEM: TIMESTEP
78900
ITEM: NUMBER OF ATOMS
5600
ITEM: BOX BOUNDS xy xz yz pp pp pp
0	7.1235	0
0	201.985	2.3745
0	119.584	0
ITEM: ATOMS id type element xu yu zu q Q_1 Q_2 Q_3 Q_4 Q_5 Q_6 Q_7 Q_8 Q_9 Q_10 Q_11 Q_12 Q_13 Q_14 Q_15 Q_16 Q_17 Q_18 Q_19 Q_20 Q_21
1 1 Mg -2.05813 47.3191 -1.22752 1.2 1 0.24609 0.0762052 0.0194697 0.0275285 0.00620019 0.0143235 0.0042795 0.0239654 0.004087 0.0274304 0.00539187 0.0348704 0.0113238 0.0269311 0.00906105 0.0249924 0.00872559 0.0240476 0.00929064 0.0325133
2 1 Mg 2.8177 49.8625 1.80141 1.2 1 0.182192 0.0629765 0.00800006 0.0177736 0.00161957 0.0093545 0.00383723 0.0223284 0.00486099 0.0228659 0.00534135 0.0303439 0.00689559 0.0240352 0.00453974 0.0254611 0.00720942 0.020989 0.00788381 0.0318992
3 2 Si 0.724311 49.3559 0.0478834 2.4 1 0.194712 0.0654764 0.00924596 0.0206159 0.00291296 0.0105782 0.00355769 0.0219869 0.0039188 0.0241468 0.00476087 0.0314647 0.00653592 0.0252978 0.00541236 0.0244455 0.00689401 0.0216499 0.0072655 0.0314067
4 3 O 1.80263 48.2206 0.247184 -1.2 1 0.223813 0.0717915 0.0148674 0.0245521 0.0036308 0.0132373 0.00416412 0.0235029 0.00446753 0.026377 0.00566181 0.0331867 0.00891621 0.0257579 0.00726938 0.0250219 0.0083283 0.0226171 0.0082603 0.0314413
5 3 O -1.03339 52.1778 1.69119 -1.2 1 0.127183 0.0481419 0.00215482 0.0128235 0.00168931 0.00829266 0.00290745 0.0208693 0.00364874 0.0184356 0.00427794 0.0289593 0.0045381 0.0217065 0.00368762 0.0256448 0.00493847 0.0207505 0.00635311 0.0324777
6 3 O -0.0827995 48.6074 -1.18147 -1.2 1 0.208212 0.0676615 0.0116148 0.0217831 0.00452061 0.0115859 0.00372925 0.0227379 0.00305661 0.0260473 0.00472672 0.0326661 0.0072331 0.0260124 0.00572246 0.0243536 0.00734093 0.0211116 0.00816513 0.0310524
7 1 Mg -1.95428 58.3815 3.27426 1.2 1 0.0134656 0.0135891 0.00480799 0.00557167 0.00147107 0.00592924 0.00152447 0.0216687 0.0028499 0.0120535 0.00276455 0.0276655 0.00339602 0.0205122 0.00424799 0.0298699 0.00431818 0.0252638 0.00452578 0.0385662
8 3 O -0.325236 49.3567 1.23634 -1.2 1 0.19218 0.0655656 0.00909228 0.0197715 0.00220506 0.00990799 0.00410401 0.0224802 0.00495343 0.0235314 0.00474018 0.0308167 0.00662872 0.025285 0.00549338 0.0248345 0.00715832 0.021793 0.00718893 0.031315
9 1 Mg -2.02171 55.1943 4.41922 1.2 1 0.0696661 0.0348531 0.00445317 0.00790656 0.00132916 0.00604453 0.0023669 0.0208536 0.00401847 0.0153155 0.00344196 0.0268441 0.00392329 0.0197956 0.00527832 0.0269798 0.00395152 0.0224303 0.00678485 0.0343379
10 2 Si 0.62783 57.2575 4.59973 2.4 1 0.0230486 0.0185499 0.00626879 0.00636961 0.0019119 0.0057047 0.00306376 0.0208905 0.00322669 0.0114229 0.00373665 0.0258026 0.00341097 0.0198004 0.00571071 0.0282357 0.005286 0.0246813 0.00551159 0.0381614
11 3 O -0.883646 57.2832 4.45382 -1.2 1 0.0222706 0.0183504 0.00634282 0.0058652 0.00152637 0.00589957 0.00232525 0.020549 0.00343843 0.0116636 0.00301417 0.0262927 0.00378408 0.0194858 0.00494384 0.0287269 0.00504816 0.0247206 0.00526967 0.0379372
12 3 O 1.61124 53.3124 4.57404 -1.2 1 0.106791 0.0454026 0.00172687 0.0109877 0.00178257 0.0071779 0.00233747 0.020543 0.00458957 0.0173253 0.00395279 0.0271229 0.00373424 0.0206938 0.0043486 0.0256852 0.00478395 0.0207685 0.00601569 0.0322083
13 3 O 1.1693 56.2318 3.35104 -1.2 1 0.0429192 0.0255607 0.00631434 0.00620775 0.00135855 0.00582537 0.00222212 0.0214182 0.00306141 0.0131142 0.00266636 0.0270498 0.00359405 0.0201815 0.00495088 0.0289026 0.00391957 0.023872 0.00539183 0.0365266
14 3 O 1.2559 56.7107 5.85569 -1.2 1 0.0371153 0.0239573 0.00632347 0.00621082 0.0015302 0.00560693 0.00275585 0.0215636 0.00335514 0.0131411 0.00276853 0.0254751 0.00277478 0.0202213 0.00490293 0.0277784 0.00462908 0.0240685 0.00618101 0.0367448
15 1 Mg 0.401109 52.7149 3.15001 1.2 1 0.118982 0.0470937 0.00135007 0.0115882 0.00139621 0.00760821 0.00184296 0.0203462 0.00378842 0.01795 0.00476954 0.0292072 0.00396297 0.0205611 0.00440655 0.0251651 0.00431169 0.0207087 0.0061776 0.0316538
16 1 Mg 0.588526 48.5138 2.94891 1.2 1 0.21173 0.0722535 0.0105053 0.0222673 0.00236381 0.0116536 0.00618115 0.0234307 0.00694545 0.0242828 0.00626835 0.0301477 0.00849957 0.0253424 0.00724454 0.0246303 0.00826293 0.0220641 0.00874042 0.0319673
17 2 Si 2.26469 51.8597 4.60539 2.4 1 0.144448 0.0538742 0.00253334 0.0139396 0.00186418 0.00813684 0.00269328 0.0202109 0.00420018 0.0193509 0.00480233 0.0269102 0.00423003 0.0219167 0.0046774 0.024578 0.00511624 0.0199808 0.00660146 0.03062
18 3 O -0.863296 52.0867 4.69651 -1.2 1 0.135835 0.0518857 0.00158483 0.012796 0.00163735 0.00746842 0.00234764 0.02001 0.00449105 0.0196323 0.00435412 0.0276436 0.0045581 0.0222337 0.00465022 0.0250899 0.00478425 0.0201656 0.00652053 0.0309616
19 3 O 2.55441 48.3815 3.03473 -1.2 1 0.216259 0.0718957 0.0113692 0.0228305 0.0018827 0.0117757 0.004788 0.0231446 0.00543234 0.0246704 0.00663873 0.0301638 0.0077503 0.0245949 0.00625448 0.0247633 0.00889959 0.021963 0.00835774 0.0308538
20 3 O 1.65109 51.0445 3.31844 -1.2 1 0.153967 0.0569443 0.00310874 0.0148127 0.00152529 0.0077878 0.00279175 0.0207435 0.00463426 0.0202007 0.00464004 0.0288901 0.0060353 0.0229012 0.0049037 0.0252993 0.00484361 0.020546 0.00730051 0.030856
21 1 Mg 0.327869 52.6045 0.257814 1.2 1 0.124839 0.0477635 0.00217015 0.0134639 0.0019156 0.00841181 0.00205243 0.0207676 0.00361247 0.0186771 0.00339256 0.0297119 0.00382196 0.0218487 0.00406427 0.0258109 0.00463817 0.021679 0.00622032 0.0317236
22 3 O 1.58439 51.1715 5.9419 -1.2 1 0.154172 0.0559001 0.00403608 0.014336 0.00176682 0.00853229 0.00293982 0.0192853 0.00452014 0.0197795 0.00467 0.0265578 0.00451856 0.0223397 0.00532007 0.0248434 0.00470783 0.0196264 0.00702468 0.0300515
23 1 Mg 0.351437 55.7501 1.6157 1.2 1 0.0509288 0.027447 0.00640128 0.00620505 0.00118028 0.00664754 0.00187726 0.0204052 0.00394812 0.0136744 0.00338117 0.0279331 0.00346339 0.0208167 0.00451183 0.0278006 0.00511751 0.0232785 0.00536428 0.0354486
24 2 Si -1.86286 53.7216 1.60824 2.4 1 0.097101 0.0402483 0.00314872 0.00977408 0.00139442 0.00653592 0.0023508 0.020285 0.00407369 0.016234 0.00389262 0.0283761 0.00318972 0.0211898 0.00376154 0.0260577 0.00446473 0.021366 0.00561931 0.033729
25 3 O 1.2972 53.7379 1.65823 -1.2 1 0.0994558 0.0395432 0.00260617 0.0101051 0.00126525 0.0071422 0.0017567 0.0194261 0.0036336 0.0161653 0.00390793 0.0284754 0.00389302 0.0202181 0.00440285 0.0262267 0.00422585 0.0215961 0.00608738 0.0324729
26 3 O -0.813713 57.6523 1.45284 -1.2 1 0.0196728 0.0168931 0.00628794 0.00529179 0.00146589 0.00646927 0.00155433 0.0222644 0.00367681 0.0122758 0.00290163 0.0283913 0.00349786 0.0208348 0.00395099 0.0295602 0.00426646 0.0253134 0.00458281 0.0380962
27 3 O -1.33402 54.4183 0.256928 -1.2 1 0.0773723 0.0350964 0.0048049 0.00721901 0.00152664 0.00679289 0.00176109 0.0204315 0.00341948 0.0152643 0.00293948 0.0282418 0.00326388 0.0213715 0.0038373 0.0274238 0.00502078 0.0227849 0.00564579 0.0342496
28 3 O -1.21796 54.3546 2.83951 -1.2 1 0.0834688 0.0374894 0.00363095 0.00860947 0.00147394 0.0067693 0.00224669 0.0209577 0.00383826 0.0156168 0.00372771 0.0277169 0.00305609 0.0210997 0.00413659 0.0269661 0.00484068 0.0227825 0.00519477 0.0335092
29 1 Mg -2.26392 58.2667 0.103262 1.2 1 0.0134402 0.0138752 0.00479532 0.0059659 0.00161076 0.00734404 0.00187426 0.0216162 0.00306354 0.0126882 0.00234031 0.0287098 0.00362103 0.0215587 0.00335881 0.0294444 0.0040638 0.0249654 0.00393263 0.037731
30 1 Mg 2.47204 61.0047 1.49238 1.2 1 0.00539824 0.00723666 0.00084346 0.0083834 0.00170381 0.00635184 0.00187262 0.0222908 0.00274668 0.0116984 0.0022053 0.0278648 0.00320429 0.0213526 0.0031673 0.030715 0.00324588 0.0257332 0.00397999 0.0399441
31 2 Si -0.283359 59.1554 1.51278 2.4 1 0.00790868 0.0102345 0.00274259 0.00724969 0.00198124 0.00578706 0.00181995 0.021982 0.0022296 0.0119962 0.00370609 0.0271763 0.00417322 0.0219957 0.00450866 0.0302034 0.00431162 0.0254266 0.00493984 0.0396801
32 3 O 1.26462 59.105 1.44577 -1.2 1 0.00834111 0.00991248 0.00271522 0.00719019 0.00197121 0.00599273 0.00109203 0.0218451 0.00311689 0.0112639 0.00255082 0.0272341 0.0028049 0.0212194 0.00352114 0.0301004 0.00334171 0.0256449 0.00417612 0.0394519
33 3 O -1.12534 62.9906 1.49676 -1.2 1 0.00483163 0.00669806 0.00113107 0.00928107 0.00155887 0.00634161 0.0018373 0.0225433 0.00160459 0.0119301 0.00177733 0.0276608 0.00253315 0.0212888 0.00326015 0.0300261 0.00337305 0.0251547 0.00345651 0.0403034
34 3 O -0.903486 59.9637 0.289089 -1.2 1 0.00689508 0.00806991 0.00178503 0.00779051 0.00169308 0.00652497 0.00209028 0.0219849 0.00230629 0.0113697 0.0026677 0.0274332 0.00371841 0.0216811 0.0035001 0.0302718 0.00402488 0.0255398 0.00478953 0.0391301
35 1 Mg -1.87507 68.8419 3.22526 1.2 1 0.00362089 0.00466288 0.00123767 0.00866196 0.00160448 0.00663182 0.00117382 0.0210969 0.00129205 0.0115608 0.00204201 0.0260568 0.00257298 0.0199814 0.003915 0.0282471 0.00308475 0.024847 0.00293781 0.0370965
36 3 O -0.771828 59.8698 2.85611 -1.2 1 0.00659865 0.00910296 0.0021562 0.00688161 0.00181455 0.00620646 0.00131067 0.0223572 0.00238919 0.0115681 0.00252821 0.0271663 0.00342236 0.0212694 0.00410471 0.0307484 0.00385385 0.025426 0.00367327 0.0396488
37 1 Mg -1.95501 65.9596 4.38466 1.2 1 0.00387104 0.00666528 0.000564829 0.00857604 0.00135175 0.00623934 0.00158572 0.0207063 0.00202812 0.011783 0.00193365 0.0268536 0.00263627 0.0211471 0.00350196 0.0300248 0.00413946 0.0252905 0.00454695 0.0397188
38 2 Si 0.728099 67.6867 4.25846 2.4 1 0.00336367 0.0051313 0.000642157 0.00938058 0.001523 0.00632676 0.00129529 0.0199651 0.00179382 0.0112449 0.00253376 0.0250408 0.00252256 0.0214086 0.00421614 0.0290032 0.00387859 0.0246528 0.0046438 0.0383094
39 3 O -0.802236 67.8932 4.51584 -1.2 1 0.00303704 0.00490156 0.00113568 0.0094248 0.00127654 0.00600036 0.00144073 0.0200553 0.00214821 0.0112399 0.00191853 0.02546 0.00277105 0.0205652 0.0045899 0.0286132 0.00458448 0.0239908 0.0046274 0.0377231
40 3 O 1.86443 64.0459 4.56949 -1.2 1 0.00505726 0.00738786 0.000497879 0.00881974 0.00187981 0.00614946 0.00107567 0.0219588 0.00184372 0.0119683 0.00221391 0.0270826 0.00328962 0.0202315 0.00392594 0.0293988 0.00374982 0.0259863 0.00434671 0.0404492
41 3 O 1.3886 67.1509 3.06944 -1.2 1 0.00329 0.00562385 0.00116775 0.00856057 0.00166736 0.00664132 0.0021229 0.0215035 0.00221028 0.0120134 0.00261174 0.0260214 0.00257306 0.0214841 0.00353432 0.0295773 0.00349689 0.0253971 0.0040326 0.0388771
42 3 O 1.25958 66.9733 5.58881 -1.2 1 0.00374543 0.00572572 0.000909904 0.00900851 0.00134625 0.00673353 0.00131553 0.0209515 0.00202878 0.011286 0.00147115 0.0252602 0.00254935 0.0215718 0.00403304 0.0292169 0.00354221 0.0253197 0.00439533 0.0384435
43 1 Mg 0.460042 63.1184 2.80208 1.2 1 0.00456803 0.00676355 0.000997715 0.0090945 0.00147963 0.00630426 0.00210883 0.0222899 0.00178007 0.0120704 0.00163852 0.0281176 0.00281639 0.0207261 0.00333502 0.0296663 0.00324411 0.0255524 0.00394072 0.040106
44 1 Mg 0.470034 60.4817 4.40161 1.2 1 0.00592563 0.00836371 0.00168277 0.00715778 0.00199886 0.00649552 0.00222515 0.0226206 0.00205826 0.0118899 0.00314843 0.0272052 0.00257866 0.0201641 0.00363625 0.029854 0.0032884 0.0265209 0.00362363 0.0399759
45 2 Si 2.49764 62.5935 4.57821 2.4 1 0.00530521 0.00678605 0.00108878 0.0093028 0.00242051 0.00565634 0.00161777 0.0215149 0.00204235 0.0111211 0.00230732 0.02618 0.00277626 0.0200586 0.00331317 0.0294441 0.00322035 0.026285 0.00347219 0.0416402
46 3 O -0.695858 62.458 4.64285 -1.2 1 0.00514192 0.00687764 0.000982407 0.00889875 0.00222052 0.0056871 0.0015103 0.0212487 0.00242575 0.0109785 0.00155175 0.0266872 0.00256623 0.0200183 0.00286562 0.0294482 0.00290596 0.0262764 0.00342387 0.0414456
47 3 O 1.25538 58.686 4.36167 -1.2 1 0.0130815 0.0136953 0.0042516 0.00621162 0.00157077 0.00606828 0.00201987 0.0217677 0.00257279 0.0121262 0.00305608 0.0273323 0.00305687 0.0198805 0.0044283 0.0293459 0.00440617 0.0258431 0.00404301 0.0394399
48 3 O 1.76905 61.7605 3.14846 -1.2 1 0.00508287 0.00642197 0.000934019 0.00872904 0.0024713 0.00614962 0.00282265 0.0225279 0.00185511 0.0111594 0.00177962 0.0268914 0.00274825 0.0210959 0.00368461 0.030359 0.0030667 0.0261922 0.00340287 0.0403377
49 1 Mg 0.355055 63.3284 -0.0119016 1.2 1 0.00539065 0.00604783 0.000731238 0.0090117 0.00136853 0.00687096 0.0013772 0.0227497 0.00123028 0.0122244 0.00123913 0.0277347 0.00237466 0.0209355 0.00286435 0.0307061 0.00288457 0.0252627 0.00331938 0.0396509
50 3 O 1.92119 61.764 5.73118 -1.2 1 0.00563092 0.0076701 0.00151239 0.00772465 0.00156579 0.00585499 0.0012206 0.0216308 0.00180358 0.0111685 0.0021137 0.0264359 0.00250408 0.0200577 0.00343109 0.0301929 0.00303882 0.0262263 0.00345554 0.0408022
51 1 Mg 0.44878 66.3825 1.55413 1.2 1 0.00459744 0.00589335 0.000884235 0.00859082 0.0019128 0.00663131 0.00156407 0.0215021 0.0020349 0.0124561 0.00263701 0.0263114 0.00274108 0.0215386 0.00268816 0.0304017 0.00324116 0.0249128 0.00269296 0.0385491
52 2 Si -1.74361 64.5029 1.47037 2.4 1 0.00479829 0.00583501 0.000875046 0.00967735 0.00226346 0.00618175 0.00216446 0.0214501 0.00193916 0.011883 0.00138668 0.0267128 0.00232032 0.0211465 0.00388489 0.0301719 0.00389356 0.0247763 0.00402314 0.0405551
53 3 O 1.43608 64.4145 1.55552 -1.2 1 0.00493467 0.00571224 0.000950267 0.00978166 0.00263581 0.00600244 0.00217388 0.0214678 0.00229243 0.0117195 0.00192765 0.0267023 0.00324504 0.0210072 0.00304867 0.0302024 0.00380356 0.0248585 0.00383249 0.0400667
54 3 O -0.731047 68.3466 1.68415 -1.2 1 0.00543266 0.0048887 0.00124626 0.00857023 0.0016694 0.0067897 0.00151588 0.0214294 0.00191728 0.0119536 0.00221032 0.0262764 0.00305969 0.020484 0.00358101 0.0287827 0.00299827 0.0245533 0.00269537 0.0380952
55 3 O -1.09663 65.1648 0.179636 -1.2 1 0.00493102 0.00550487 0.00123449 0.00915773 0.002811 0.00736477 0.00325002 0.0219012 0.00204657 0.0122902 0.00194136 0.0264619 0.00295226 0.0218433 0.00322715 0.030709 0.00335023 0.0250208 0.00322816 0.0394072
56 3 O -1.25597 65.3447 2.73804 -1.2 1 0.00424509 0.00635013 0.000844558 0.00886201 0.00200516 0.00649065 0.00154182 0.0215607 0.00192824 0.0119058 0.00147457 0.0264635 0.00240092 0.0218147 0.00303425 0.0304645 0.00311453 0.0254477 0.00338135 0.0397212
57 1 Mg -2.34399 68.83 0.193825 1.2 1 0.00590897 0.00526678 0.00130057 0.00822438 0.00175702 0.0069877 0.00118679 0.0213418 0.00192162 0.0123008 0.0021234 0.0265846 0.00225397 0.0210478 0.00278877 0.0290447 0.00246344 0.0241519 0.00268496 0.0369181
58 1 Mg 2.40527 71.8509 1.60921 1.2 1 0.00398119 0.00569429 0.00140076 0.0085958 0.00160425 0.00693119 0.00140461 0.0213894 0.0022786 0.0112028 0.00254379 0.0256723 0.00214465 0.0212932 0.00381877 0.0291015 0.00311342 0.0243894 0.00274176 0.0366348
59 2 Si -0.116832 69.9788 1.62586 2.4 1 0.00542734 0.0041914 0.0014673 0.00936863 0.00241697 0.00651727 0.00176255 0.0201146 0.0024311 0.0110675 0.00256731 0.0254157 0.00293558 0.0209601 0.00411163 0.0291033 0.00371764 0.0240231 0.00342445 0.0372357
60 3 O 1.52055 69.8866 1.60539 -1.2 1 0.00568826 0.00426826 0.00116547 0.00906623 0.00212258 0.00660799 0.0016091 0.0198177 0.00261653 0.0113422 0.00184548 0.0258259 0.00245136 0.020859 0.00292 0.0286799 0.00285753 0.0238789 0.00285807 0.0368213
61 3 O -1.08648 73.685 1.56404 -1.2 1 0.00336576 0.00574616 0.00155001 0.00844323 0.00154099 0.00668808 0.00105896 0.0211485 0.00167235 0.0104208 0.00281199 0.0251083 0.00286302 0.0205234 0.00339075 0.0271922 0.00328928 0.0233515 0.00253224 0.0360805
62 3 O -0.690209 70.4565 0.368349 -1.2 1 0.0057004 0.0050981 0.00207879 0.0084249 0.00211542 0.00733124 0.00185484 0.0212764 0.00189953 0.011604 0.00204841 0.0258572 0.00291492 0.0215356 0.00404134 0.0288479 0.00276067 0.0235182 0.00318913 0.0364977
63 1 Mg -1.8419 79.1658 3.00803 1.2 1 0.00317019 0.00406437 0.00174069 0.00777615 0.00146927 0.00608783 0.00144807 0.0209274 0.0016767 0.00968247 0.0025962 0.0248142 0.00248847 0.0194342 0.00356844 0.0264354 0.00386719 0.0224725 0.00389346 0.0357743
64 3 O -0.737782 70.6329 2.77812 -1.2 1 0.00456565 0.00502352 0.00133059 0.00921969 0.00199943 0.00670773 0.00149693 0.0206593 0.00186914 0.0109351 0.0020376 0.0253298 0.00287539 0.0217295 0.00363766 0.0287761 0.00298076 0.0244265 0.00237316 0.037158
65 1 Mg -2.02014 76.5382 4.43696 1.2 1 0.000677753 0.00453133 0.00181008 0.00744086 0.00117161 0.00633384 0.00119182 0.0206648 0.00204109 0.00980302 0.00254026 0.0252359 0.00246307 0.0203225 0.00455742 0.0268173 0.00342875 0.0238437 0.00338429 0.0366975
66 2 Si 0.612137 78.3191 4.50498 2.4 1 0.00101733 0.00344133 0.00166122 0.00807205 0.00158571 0.0059562 0.00146638 0.0200736 0.00187419 0.00912189 0.00284966 0.0240087 0.00313591 0.0198958 0.00490665 0.0264608 0.00444845 0.023399 0.00477826 0.0371961
67 3 O -0.990222 78.2634 4.54778 -1.2 1 0.0013347 0.00333349 0.0019282 0.00776131 0.00186071 0.00571241 0.00158842 0.0199672 0.00248608 0.00892445 0.00223441 0.0242093 0.00292982 0.0202493 0.00467659 0.0266135 0.00440541 0.0227138 0.00492534 0.0370945
68 3 O 1.65578 74.4328 4.76453 -1.2 1 0.00227948 0.0048368 0.00162111 0.00821113 0.00106346 0.00637554 0.00111477 0.0206075 0.00128702 0.00997012 0.00234025 0.0248129 0.00175668 0.0200174 0.00394579 0.0266801 0.00337006 0.0244823 0.00311612 0.0367421
69 3 O 1.29136 77.5191 3.11092 -1.2 1 0.00188755 0.00438897 0.00171387 0.00763055 0.00186988 0.00607479 0.00174343 0.0204935 0.00185133 0.00911036 0.00202778 0.0244102 0.00300145 0.0200962 0.00380513 0.0263298 0.00397638 0.0225882 0.00411847 0.0365216
70 3 O 1.24448 77.5641 5.69421 -1.2 1 0.000452325 0.00398129 0.00161879 0.00764874 0.00133494 0.00646866 0.00141066 0.0208653 0.00176751 0.00933376 0.00181786 0.0243548 0.00234945 0.0206015 0.0038257 0.0274242 0.00374897 0.0243323 0.00406198 0.0372313
71 1 Mg 0.295618 73.9115 2.92778 1.2 1 0.00216168 0.00517458 0.00159022 0.00780576 0.000978587 0.00698292 0.00111763 0.0212681 0.00134283 0.0106267 0.00227282 0.0257632 0.00205088 0.0201696 0.00329526 0.0270313 0.00342036 0.0238919 0.00243472 0.035739
72 1 Mg 0.51695 71.0934 4.66842 1.2 1 0.00362945 0.00488934 0.00155859 0.00901722 0.0011705 0.00651908 0.00126341 0.0213038 0.00192733 0.0111382 0.00172575 0.025624 0.002322 0.0211826 0.00346054 0.0275542 0.00285443 0.0253844 0.00295935 0.0370072
73 2 Si 2.55131 72.9694 4.50441 2.4 1 0.00337222 0.00488178 0.00135621 0.00934056 0.00141329 0.00626944 0.000915319 0.0199835 0.00173661 0.00985645 0.00209591 0.0242341 0.00211696 0.0211184 0.00329648 0.0270039 0.00283212 0.024646 0.00310659 0.0366338
74 3 O -0.731523 73.2587 4.64357 -1.2 1 0.00348294 0.00507191 0.00116239 0.00894939 0.00122872 0.00612443 0.00120475 0.0199781 0.00217172 0.0103016 0.00190534 0.0250827 0.00220889 0.0204388 0.00293823 0.0271096 0.00259726 0.0245402 0.00268611 0.0367138
75 3 O 1.42404 69.1738 4.32277 -1.2 1 0.00307692 0.00524878 0.00122013 0.0091384 0.00129412 0.00621308 0.00183169 0.0210395 0.00143576 0.0114003 0.00213806 0.0260139 0.00218391 0.0205637 0.00314426 0.0284372 0.00286387 0.0248294 0.00333535 0.0371879
76 3 O 1.76403 72.4429 3.27142 -1.2 1 0.00407214 0.00476147 0.00118147 0.00894704 0.00130575 0.006501 0.0020265 0.0205425 0.00213267 0.00992358 0.00256399 0.0247819 0.0016229 0.02117 0.00304341 0.0279341 0.00307342 0.0242655 0.00245486 0.0362233
77 1 Mg 0.205489 73.8397 -0.133513 1.2 1 0.00305816 0.00583144 0.00106058 0.00789849 0.00123224 0.00685052 0.0013595 0.021503 0.00134675 0.0110527 0.00259229 0.0254619 0.00221086 0.0202651 0.00346684 0.0271275 0.00361416 0.0227646 0.00285336 0.0355133
78 3 O 2.00071 72.0763 5.80008 -1.2 1 0.00295747 0.00534895 0.00109933 0.00898551 0.00118215 0.00661385 0.00100114 0.0209711 0.00130842 0.0101392 0.00231608 0.0246996 0.00214752 0.0218613 0.00297434 0.0283608 0.00310877 0.0250865 0.00284453 0.0376475
79 1 Mg 0.232782 77.1153 1.37962 1.2 1 0.00325717 0.00550627 0.00147267 0.00766755 0.00110697 0.00620748 0.00106392 0.0215273 0.00253705 0.0100174 0.00304811 0.0248716 0.00263905 0.019769 0.00445262 0.0264834 0.00365973 0.0224407 0.00387234 0.0359576
80 2 Si -1.78461 75.0481 1.52238 2.4 1 0.00263871 0.00596493 0.00122298 0.00873905 0.00176255 0.00607719 0.00146087 0.0201952 0.00196048 0.0100293 0.00328916 0.0247045 0.00363722 0.020694 0.00562666 0.0270096 0.00453189 0.0226394 0.00384533 0.0363044
81 3 O 1.38574 74.9788 1.58952 -1.2 1 0.00248276 0.00578782 0.00170442 0.00835668 0.0014398 0.00616963 0.00121283 0.0202819 0.00236712 0.00973455 0.00245302 0.0248887 0.0024025 0.0200187 0.00378232 0.0266 0.00373864 0.0224236 0.00273472 0.0361531
82 3 O -0.772351 78.7397 1.09263 -1.2 1 0.0042811 0.00447047 0.00140684 0.00784235 0.000898875 0.0061302 0.00149582 0.021627 0.00188884 0.00972242 0.00258228 0.0248661 0.00231086 0.0198043 0.00326508 0.0259167 0.00367693 0.0214831 0.00294774 0.0360085
83 3 O -1.12619 75.7838 0.195404 -1.2 1 0.00313149 0.00564541 0.00127467 0.00783645 0.00195074 0.00669149 0.0014145 0.021418 0.00218218 0.0101586 0.00232121 0.024122 0.00333963 0.0208583 0.00396934 0.0272569 0.00382602 0.0229241 0.00300513 0.036115
84 3 O -1.15518 75.6983 2.88453 -1.2 1 0.00130506 0.00514084 0.0017866 0.0075008 0.00176525 0.00674765 0.00174434 0.0213026 0.00168881 0.00935888 0.0025885 0.0243501 0.00334388 0.0206849 0.00465334 0.0270493 0.00397761 0.0239468 0.0032061 0.0358504
85 1 Mg -2.30377 79.1885 -0.0927692 1.2 1 0.00572776 0.0046268 0.000854394 0.00811658 0.00113544 0.00632488 0.00124528 0.0212787 0.00228991 0.0101867 0.00225332 0.025124 0.00275013 0.0195643 0.00336786 0.025444 0.00388587 0.0212233 0.00354203 0.0355604
86 1 Mg 2.34596 82.2158 1.69065 1.2 1 0.00535851 0.00377069 0.00119714 0.00777118 0.00159707 0.00593367 0.00251189 0.0205633 0.00306661 0.00973454 0.00321631 0.0246255 0.0031148 0.0204359 0.00463732 0.0268053 0.00524568 0.0209153 0.00446429 0.0371333
87 2 Si -0.236102 80.2833 1.14164 2.4 1 0.00518142 0.00368232 0.00136252 0.00821018 0.00147774 0.00584265 0.00163365 0.0205845 0.00189898 0.00952448 0.00312876 0.0238629 0.00291372 0.0199924 0.00447934 0.0255062 0.00448675 0.020401 0.00386273 0.0369618
88 3 O 1.21308 80.2976 1.49262 -1.2 1 0.00459501 0.00362964 0.00167349 0.00819174 0.00179551 0.00575627 0.00171454 0.0202404 0.00261138 0.00882755 0.00250757 0.0240149 0.00343352 0.0195797 0.0034217 0.0262875 0.00514638 0.0212968 0.00416349 0.0375788
89 3 O -1.24356 84.1911 1.70996 -1.2 1 0.00420059 0.00365656 0.00106204 0.00790555 0.00115287 0.0062323 0.00129914 0.0202053 0.00213325 0.010164 0.00191118 0.0244857 0.00387669 0.0195298 0.004164 0.0269844 0.00542609 0.0208463 0.00425628 0.0375636
90 3 O -1.09358 80.9659 0.0786819 -1.2 1 0.00621429 0.00426102 0.00158896 0.00827623 0.0019974 0.00618824 0.0026106 0.0212279 0.00292874 0.0094789 0.00250353 0.024035 0.00323019 0.021016 0.00444503 0.0267136 0.00443044 0.0208196 0.00377982 0.0374194
91 1 Mg -2.27432 89.8222 3.00544 1.2 1 0.00180237 0.00362385 0.00093326 0.00807364 0.00154697 0.00630978 0.00150437 0.0203963 0.00125625 0.00989821 0.002687 0.0255517 0.00318174 0.018675 0.00433245 0.0283522 0.00573404 0.0233076 0.00549328 0.0393509
92 3 O -1.05748 80.8075 2.49477 -1.2 1 0.00370236 0.00360194 0.00150074 0.00762897 0.00181198 0.00584671 0.0026394 0.0204699 0.00229201 0.00901878 0.00326642 0.0237529 0.00347034 0.0205047 0.00381577 0.0271766 0.00472267 0.0219558 0.00436768 0.0371499
93 1 Mg -2.23435 87.0483 4.51197 1.2 1 0.00225625 0.00331683 0.00127273 0.00820569 0.00133513 0.00632422 0.00100763 0.0201792 0.00254183 0.010276 0.00288392 0.02469 0.00313777 0.0200547 0.00415566 0.0279947 0.00585334 0.0221872 0.00578536 0.0367351
94 2 Si 0.31192 88.9498 4.40596 2.4 1 0.00196838 0.00328007 0.000815162 0.00871987 0.00183292 0.0061331 0.00100357 0.020218 0.00206352 0.00945309 0.00301607 0.0237844 0.00315882 0.0196422 0.00470136 0.0283077 0.00600913 0.0232328 0.00529719 0.0385156
95 3 O -1.18859 88.9125 4.48102 -1.2 1 0.00203994 0.00349759 0.000576446 0.00874273 0.00184722 0.00613061 0.00137898 0.0198261 0.00284722 0.00955868 0.00269651 0.0239792 0.00294375 0.0191524 0.00494865 0.0281158 0.00582052 0.0232387 0.00574226 0.038097
96 3 O 1.51948 85.2109 4.20702 -1.2 1 0.00402604 0.00320144 0.0013053 0.0079204 0.00158907 0.00659642 0.00135948 0.0201337 0.0026526 0.0101721 0.00179465 0.0244881 0.00325003 0.0191206 0.00455717 0.0267774 0.00497507 0.0217598 0.00553841 0.037032
97 3 O 1.16447 88.3336 3.04026 -1.2 1 0.00183217 0.00368573 0.00132734 0.00807957 0.00195931 0.00594466 0.00223392 0.0207745 0.00173076 0.0100248 0.00286416 0.0247245 0.00311435 0.019993 0.00381847 0.0287525 0.00494006 0.0227029 0.00558302 0.0394612
98 3 O 0.970406 88.1763 5.53813 -1.2 1 0.00265422 0.00367477 0.00100403 0.00859482 0.00150427 0.00638211 0.00134719 0.0201056 0.00280247 0.0103594 0.00258365 0.0240289 0.00311621 0.0200508 0.00447371 0.0280848 0.0057653 0.0232258 0.00609937 0.0371708
99 1 Mg 0.035906 84.6242 2.97086 1.2 1 0.00362453 0.00317185 0.00125073 0.00775671 0.00164804 0.00642806 0.00168615 0.0197633 0.00246031 0.010282 0.00163263 0.0255648 0.00348179 0.0194032 0.00511898 0.02673 0.00538599 0.0209329 0.00494735 0.0365165
100 1 Mg 0.0279077 81.6734 4.28685 1.2 1 0.00272988 0.00400531 0.00160009 0.00791536 0.00166237 0.00635765 0.00131929 0.020756 0.0020573 0.0101497 0.00226999 0.0246517 0.00333218 0.0202873 0.00414244 0.0275956 0.00536005 0.0231075 0.00537549 0.0360648
101 2 Si 2.22672 83.7093 4.33334 2.4 1 0.00369286 0.00325025 0.00134314 0.00854805 0.00173558 0.00623779 0.00159775 0.0195308 0.00262074 0.00959119 0.00217083 0.0238947 0.00337331 0.0202301 0.00404327 0.0271981 0.0045271 0.0216199 0.00598329 0.0373122
102 3 O -0.94233 83.4657 4.30004 -1.2 1 0.00365644 0.00351302 0.00142018 0.00848203 0.00184702 0.00581445 0.00154145 0.0192555 0.00281772 0.00963591 0.00208773 0.0240541 0.00379146 0.0200661 0.00484871 0.027564 0.00601444 0.0212031 0.00653687 0.0360301
103 3 O 1.15058 79.7716 4.40239 -1.2 1 0.00243445 0.00382725 0.00170717 0.00798901 0.00150097 0.0064166 0.0011161 0.0208222 0.00198052 0.0100452 0.0023199 0.0247646 0.00325147 0.0195173 0.00519643 0.0266124 0.00491308 0.0230767 0.0056103 0.0367966
104 3 O 1.48292 82.7746 3.25114 -1.2 1 0.00427189 0.00323113 0.00127252 0.00761159 0.00218005 0.00627738 0.00173602 0.020192 0.00247529 0.00925986 0.0023938 0.0239454 0.00339008 0.0201253 0.00524895 0.027446 0.00563716 0.0214485 0.00586491 0.0366926
105 1 Mg 0.0292051 84.9854 0.194923 1.2 1 0.00485292 0.00360738 0.00146179 0.00768046 0.00109567 0.00626479 0.00169864 0.0207177 0.0022458 0.0103539 0.00190325 0.0246284 0.00307629 0.0197396 0.00344298 0.0275449 0.00443196 0.0208769 0.00352232 0.0382383
106 3 O 1.6394 83.1267 5.66111 -1.2 1 0.00341431 0.00361516 0.00167245 0.00803739 0.00176891 0.0059581 0.00210309 0.0194831 0.00231864 0.00989572 0.00238626 0.0241924 0.00279553 0.0208442 0.00357931 0.0281644 0.00389177 0.0228524 0.00520451 0.0366522
107 1 Mg 0.0098561 87.5997 1.30647 1.2 1 0.00291609 0.00380483 0.00178154 0.00749336 0.00149657 0.00595354 0.00218956 0.0206789 0.00254408 0.0102859 0.00263522 0.0247774 0.00342281 0.019731 0.00503364 0.0282576 0.00509511 0.0226395 0.00437045 0.0401075
108 2 Si -1.96067 85.8569 1.53546 2.4 1 0.00371912 0.00328515 0.00144913 0.00809427 0.00173396 0.00548929 0.00216156 0.0195968 0.00272829 0.00952186 0.00235241 0.0241624 0.00327209 0.0196559 0.00508071 0.0278793 0.00607207 0.0211021 0.00454008 0.0387431
109 3 O 1.29123 85.6198 1.49711 -1.2 1 0.00386475 0.00352855 0.00131943 0.00800578 0.00166311 0.00557402 0.00159188 0.0200021 0.00320708 0.00967429 0.00241649 0.02464 0.00296916 0.0197864 0.00348557 0.0281929 0.00432991 0.021267 0.00328579 0.0388444
110 3 O -0.970341 89.4418 1.56837 -1.2 1 0.00218762 0.00373476 0.000987748 0.00778549 0.00152868 0.00631839 0.00136628 0.0208364 0.00104538 0.0104008 0.00253578 0.0254936 0.00306535 0.0187778 0.00340527 0.0285289 0.00518475 0.0232368 0.00488669 0.040796
111 3 O -1.20401 86.4538 0.242568 -1.2 1 0.00379693 0.00362843 0.00176627 0.0074307 0.00145471 0.00588497 0.00221378 0.0202937 0.00222263 0.0099982 0.00220692 0.0244758 0.00366654 0.0201843 0.00410271 0.0283347 0.00520406 0.0214132 0.00389482 0.0397173
112 3 O -1.19227 86.5647 2.81819 -1.2 1 0.00230677 0.00364375 0.00162763 0.00774502 0.00119595 0.00595292 0.0021461 0.0208498 0.00229633 0.00972891 0.00238715 0.0242882 0.00418583 0.0196949 0.00521776 0.0280796 0.00566573 0.0222355 0.00447429 0.0378843
113 1 Mg -2.40365 90.2269 -0.0207426 1.2 1 0.00352561 0.00419434 0.00133487 0.00736527 0.00195104 0.00638519 0.00171687 0.0207514 0.00138223 0.0111367 0.00199948 0.0260671 0.00234311 0.0190702 0.00426038 0.0285324 0.00503754 0.0231022 0.0040033 0.0410555
114 1 Mg 2.30323 92.8036 1.41516 1.2 1 0.000597523 0.00362753 0.00154016 0.0075385 0.00188801 0.00549685 0.00195824 0.0210211 0.00199683 0.0103968 0.002747 0.0252751 0.00355964 0.0188785 0.00493452 0.0285568 0.00586745 0.0233444 0.00515049 0.041947
115 2 Si -0.287501 90.9236 1.56257 2.4 1 0.00123605 0.00358641 0.000960474 0.0084254 0.00158311 0.00566413 0.00190379 0.0201421 0.00159631 0.00949304 0.00274478 0.0245303 0.00340018 0.019126 0.00573281 0.0282617 0.00614898 0.0228854 0.00571818 0.0420749
116 3 O 1.27698 90.9883 1.40274 -1.2 1 0.00123085 0.00362312 0.00120544 0.00827609 0.00158696 0.00568013 0.00158135 0.0203642 0.00212998 0.0095893 0.00271345 0.0253628 0.00306543 0.0184672 0.00401958 0.0286646 0.00544243 0.0233586 0.00459072 0.0420569
117 3 O -1.38174 94.7187 1.20095 -1.2 1 0.0008712 0.00350409 0.0018097 0.00767961 0.00142268 0.0058241 0.00113464 0.0212806 0.00194816 0.0103296 0.00231938 0.0255848 0.00382324 0.0181375 0.00498475 0.0273462 0.00526814 0.0235193 0.0051147 0.0412051
118 3 O -1.02062 91.675 0.272682 -1.2 1 0.00170524 0.00384124 0.00121888 0.00767036 0.00157709 0.00579683 0.00181523 0.0206134 0.0015266 0.0101035 0.00208192 0.0246202 0.00317811 0.0191988 0.00483148 0.028627 0.0052388 0.0229725 0.0051751 0.0416874
119 1 Mg -2.50936 100.654 2.93738 1.2 1 0.00331989 0.00326185 0.00190422 0.00698808 0.00148328 0.00485469 0.00129336 0.0207112 0.00198027 0.00951619 0.0031338 0.0252147 0.00402073 0.0174394 0.00627206 0.0282 0.00703448 0.0217746 0.00589859 0.0378393