ITEM: TIMESTEP
30000
ITEM: NUMBER OF ATOMS
5600
ITEM: BOX BOUNDS xy xz yz pp pp pp
0	7.1235	0
0	201.985	2.3745
0	119.584	0
ITEM: ATOMS id type element xu yu zu q Q_1 Q_2 Q_3 Q_4 Q_5 Q_6 Q_7 Q_8 Q_9 Q_10 Q_11 Q_12 Q_13 Q_14 Q_15 Q_16 Q_17 Q_18 Q_19 Q_20 Q_21
1 1 Mg -1.58182 49.4784 -1.52866 1.2 1 0.227292 0.0799909 0.0177226 0.0221794 0.00500663 0.0105196 0.00319783 0.0178193 0.00390572 0.021254 0.00370766 0.0240033 0.00745891 0.0239105 0.00791735 0.0227015 0.00674282 0.0193054 0.00748497 0.0239272
2 1 Mg 3.04179 50.7458 1.79213 1.2 1 0.191844 0.0734632 0.0104322 0.0202704 0.00256793 0.00960863 0.00306793 0.0178223 0.00430166 0.0196515 0.00362269 0.0235632 0.00473638 0.021927 0.00647694 0.0234796 0.00697744 0.0168158 0.0070288 0.0260991
3 2 Si 0.892227 50.8758 -0.0499499 2.4 1 0.191736 0.0714154 0.0125322 0.0188764 0.0040122 0.00897575 0.00321173 0.0182295 0.00394092 0.0196795 0.00306325 0.0237526 0.00599485 0.0220577 0.00595782 0.0221208 0.00559942 0.0169298 0.00693699 0.0252351
4 3 O 2.33982 50.29 0.102694 -1.2 1 0.206152 0.0757108 0.0143833 0.0209724 0.00460787 0.00897833 0.0029326 0.0174273 0.00400269 0.0201224 0.00389206 0.0233227 0.0069865 0.023426 0.00772135 0.0230325 0.0072215 0.0177312 0.00703195 0.0252426
5 3 O -1.22621 53.4135 1.29897 -1.2 1 0.130998 0.0530382 0.00310153 0.0131571 0.0017799 0.00800152 0.00254783 0.0174431 0.00289994 0.0155568 0.00239917 0.0239603 0.00436254 0.0193083 0.00346083 0.0228605 0.00427412 0.016323 0.00614644 0.0289236
6 3 O 0.232761 49.9446 -1.15548 -1.2 1 0.210481 0.0780407 0.0146263 0.0209929 0.00390678 0.0104432 0.00248318 0.0175689 0.0039055 0.0203208 0.00405262 0.0231064 0.00641601 0.0229931 0.00696617 0.021542 0.0060927 0.0180627 0.00646681 0.0245183
7 1 Mg -2.13245 59.5272 3.09323 1.2 1 0.0167965 0.013165 0.00511916 0.00632036 0.00118168 0.00571313 0.00162166 0.021823 0.00265038 0.0105172 0.0020995 0.0272417 0.00307965 0.0196565 0.00462697 0.0296502 0.00522173 0.0226062 0.00545763 0.0427517
8 3 O 0.152497 50.7528 1.32531 -1.2 1 0.190821 0.0730299 0.0111415 0.019589 0.00299908 0.00891154 0.00328074 0.0180689 0.00444198 0.0202077 0.00289469 0.023683 0.00474725 0.0223999 0.00658909 0.0231131 0.00666911 0.0173282 0.00667819 0.0258471
9 1 Mg -2.25952 56.3669 4.33117 1.2 1 0.0707589 0.0343629 0.00391978 0.00889858 0.00173847 0.00628879 0.00219121 0.0195157 0.0032581 0.0134291 0.00233349 0.0249109 0.00345807 0.0189092 0.0035615 0.0252068 0.00515683 0.0189242 0.00564491 0.0350562
10 2 Si 0.417117 58.359 4.62372 2.4 1 0.0266002 0.0182486 0.00728626 0.00742735 0.00133567 0.00566829 0.00308394 0.0212371 0.00299644 0.00985104 0.00256434 0.0255339 0.00292195 0.0202863 0.00523715 0.0282298 0.0048894 0.021614 0.00596982 0.0415169
11 3 O -1.11274 58.445 4.46536 -1.2 1 0.0257508 0.0176149 0.00701682 0.00707593 0.00178158 0.00532615 0.00244853 0.0208898 0.00352488 0.00987531 0.00250087 0.0257311 0.00358103 0.0194501 0.00414261 0.02907 0.00571374 0.0210825 0.00544141 0.0412832
12 3 O 1.84105 53.9447 4.55627 -1.2 1 0.121631 0.0503949 0.00217397 0.0131903 0.00258724 0.00786456 0.00338797 0.0194683 0.00334488 0.0165103 0.00266463 0.0249044 0.00436156 0.0194958 0.00342118 0.022316 0.00510999 0.0167179 0.006157 0.0306073
13 3 O 0.994808 57.4232 3.51191 -1.2 1 0.0435885 0.0256657 0.00667948 0.00736084 0.00165304 0.00591337 0.00202617 0.0198765 0.00314382 0.0110898 0.0025395 0.0254967 0.00270105 0.0191654 0.00396766 0.0272284 0.00466479 0.0200091 0.00536732 0.0381463
14 3 O 1.02475 57.6912 5.92849 -1.2 1 0.0360426 0.0224381 0.00804767 0.00729795 0.00161403 0.00608369 0.00230173 0.021525 0.00279415 0.0113523 0.00237139 0.026095 0.00291739 0.0200573 0.00467127 0.0282189 0.00513925 0.0215044 0.00627049 0.0407484
15 1 Mg 0.444046 53.3017 2.69715 1.2 1 0.131033 0.0557455 0.00138566 0.0140257 0.00131303 0.00886195 0.00345826 0.0180735 0.00341977 0.016657 0.00250421 0.0241072 0.00389551 0.0194777 0.00499845 0.0222628 0.00409135 0.0165628 0.00633596 0.0289562
16 1 Mg 0.933242 50.0056 3.00466 1.2 1 0.213983 0.0759712 0.016394 0.0229625 0.00400116 0.0110408 0.00277761 0.0193344 0.00465329 0.0214271 0.00389223 0.0248338 0.00585044 0.0224973 0.00711636 0.0236243 0.00764032 0.0176883 0.00731466 0.026198
17 2 Si 2.54729 52.5167 4.54645 2.4 1 0.15897 0.0614096 0.00695427 0.0170488 0.0036427 0.00897547 0.00347714 0.0184439 0.00414178 0.0177878 0.00358189 0.0245341 0.00531402 0.0194008 0.00489151 0.0224237 0.00497773 0.0161561 0.00649583 0.0288242
18 3 O -0.703692 52.8393 4.35437 -1.2 1 0.143953 0.0569864 0.00492036 0.015017 0.00344516 0.00756696 0.0035118 0.0182103 0.00409641 0.016357 0.00285018 0.0240423 0.00500774 0.0205489 0.00474906 0.0222819 0.0053676 0.0157621 0.00587528 0.02944
19 3 O 2.59625 48.9795 2.82915 -1.2 1 0.231811 0.0824804 0.01847 0.02635 0.00377536 0.0128302 0.00400544 0.0191291 0.00495783 0.0223835 0.00454965 0.025681 0.00754652 0.0221931 0.00860687 0.0233581 0.00889718 0.0184797 0.00751801 0.0252357
20 3 O 1.96893 51.7936 3.1412 -1.2 1 0.165185 0.0645217 0.0070721 0.0164285 0.00322817 0.00893439 0.00357962 0.0186487 0.00401263 0.0183918 0.00294143 0.0245961 0.00502721 0.0203443 0.00606104 0.0228389 0.00493427 0.0161013 0.00680849 0.0278629
21 1 Mg 0.0119463 54.0287 -0.213515 1.2 1 0.116626 0.0504224 0.00135566 0.0118348 0.0015025 0.00731308 0.00272717 0.0169372 0.0027523 0.0153064 0.00316473 0.0239616 0.00463189 0.0192707 0.00538208 0.0225909 0.00365172 0.0169498 0.0063091 0.0284319
22 3 O 2.05148 51.4917 5.71372 -1.2 1 0.172807 0.0656822 0.00965689 0.0184492 0.00378958 0.00940011 0.00319825 0.0194565 0.00440499 0.019765 0.00380244 0.0259992 0.00588471 0.0210522 0.00511611 0.0229276 0.00527447 0.0161161 0.00659455 0.0286481
23 1 Mg 0.110113 56.889 1.65619 1.2 1 0.0546521 0.0300834 0.00676893 0.00712018 0.00185414 0.00616895 0.00226528 0.0186633 0.00382135 0.0111785 0.00313381 0.0249709 0.00272625 0.0187425 0.00531509 0.0248309 0.00515467 0.0182204 0.00632557 0.0351465
24 2 Si -1.87711 54.9267 1.52844 2.4 1 0.104126 0.0457712 0.00171615 0.0106851 0.00145231 0.00701025 0.00230455 0.0180705 0.00382919 0.0142893 0.00233565 0.0236061 0.00295335 0.019006 0.00343454 0.0230887 0.00464464 0.0168907 0.00579431 0.0311462
25 3 O 1.33372 54.8424 1.50498 -1.2 1 0.104936 0.0458675 0.00138319 0.0106817 0.00130396 0.00739251 0.00253021 0.0173877 0.0031681 0.0147389 0.00299521 0.023742 0.003243 0.0185408 0.00448064 0.0231829 0.00351845 0.0169666 0.00619879 0.0299812
26 3 O -0.92768 58.831 1.59625 -1.2 1 0.0232654 0.0165299 0.0073807 0.00578081 0.00117439 0.0056785 0.00195531 0.0210033 0.00337894 0.00912164 0.00233953 0.0263226 0.00307916 0.0184212 0.00505669 0.0285388 0.00543164 0.0217256 0.00697141 0.0407572
27 3 O -1.26709 55.7355 0.228837 -1.2 1 0.0790729 0.0393513 0.00557117 0.00818873 0.00290066 0.00636267 0.00235084 0.0178967 0.00363414 0.0128551 0.00317607 0.0238246 0.00337209 0.0191787 0.00478762 0.024245 0.00412609 0.0180075 0.00642607 0.0315938
28 3 O -1.22266 55.6202 2.80845 -1.2 1 0.0858614 0.0392409 0.00270611 0.00921719 0.00160826 0.00704374 0.00208428 0.018855 0.00378669 0.0137444 0.00305379 0.0248791 0.00253598 0.0188627 0.00345381 0.0245968 0.00483579 0.018211 0.00551676 0.0328955
29 1 Mg -2.29622 59.2568 0.198685 1.2 1 0.0183446 0.0135262 0.00616966 0.00569803 0.000824919 0.00622621 0.00209982 0.0214301 0.00255691 0.00937461 0.00185222 0.0270454 0.00295499 0.0189479 0.00512318 0.0285607 0.00488745 0.022447 0.00734951 0.041763
30 1 Mg 2.38799 62.4021 1.58899 1.2 1 0.0046259 0.00636058 0.0015409 0.00743932 0.000878555 0.00561287 0.0014763 0.0233659 0.00201991 0.0082959 0.00225663 0.0282823 0.00145649 0.0196113 0.00364667 0.0325197 0.00365502 0.0260386 0.00493296 0.0480355
31 2 Si -0.273267 60.4269 1.62583 2.4 1 0.0115092 0.0094179 0.00343768 0.00741521 0.00138313 0.00588242 0.00135058 0.0216568 0.00194967 0.00863775 0.00279629 0.0266787 0.00251717 0.0198006 0.00482735 0.0305929 0.0048186 0.0235156 0.00585151 0.0459247
32 3 O 1.30801 60.262 1.58078 -1.2 1 0.0122894 0.00987946 0.00425586 0.00677936 0.00126766 0.00582173 0.00134195 0.0217766 0.00240196 0.0083473 0.00203063 0.0273001 0.00317065 0.0189855 0.00551112 0.0307086 0.00506098 0.0231899 0.00709557 0.0451679
33 3 O -1.31451 64.0787 1.63011 -1.2 1 0.00305425 0.00579384 0.000978223 0.00766232 0.0011173 0.00582086 0.000935335 0.0241074 0.00145147 0.00849542 0.00195747 0.0284054 0.00233225 0.0191978 0.00361231 0.0324951 0.00387577 0.02662 0.00414744 0.0487184
34 3 O -0.974403 61.1259 0.470252 -1.2 1 0.00779114 0.00763228 0.00249721 0.00658144 0.00107033 0.00592026 0.00129586 0.0225417 0.00190156 0.0079813 0.00146255 0.027505 0.00198756 0.0199059 0.00435182 0.0316121 0.00430841 0.024833 0.00663035 0.0465142
35 1 Mg -2.32852 69.7482 3.31493 1.2 1 0.000472327 0.00490458 0.00087443 0.00664997 0.00113042 0.00558002 0.00106489 0.0235434 0.00152099 0.00925082 0.00148467 0.0282646 0.00159268 0.0187876 0.00233641 0.0306881 0.0021089 0.027076 0.00197426 0.0476492
36 3 O -0.95242 61.0516 2.97038 -1.2 1 0.00842441 0.00906264 0.00277671 0.00687864 0.00130038 0.00554862 0.00136594 0.0230798 0.00239573 0.00885313 0.0023991 0.0269859 0.00252049 0.0199796 0.00460587 0.0312984 0.0049342 0.0246531 0.0054073 0.0463051
37 1 Mg -2.05577 66.8267 4.7053 1.2 1 0.000918874 0.00498581 0.000548908 0.00673731 0.00140116 0.00526932 0.00127927 0.0234584 0.00197578 0.00927962 0.00240932 0.0285201 0.00228401 0.019151 0.0025524 0.0320024 0.00331918 0.0265235 0.00373552 0.0486155
38 2 Si 0.404885 68.6837 4.88285 2.4 1 0.000836447 0.00462355 0.000854308 0.0070791 0.00137663 0.00558832 0.00109782 0.0238715 0.00177349 0.00901605 0.00189258 0.0270537 0.00193524 0.0194795 0.00255438 0.0310573 0.00250228 0.0263129 0.00285632 0.049473
39 3 O -1.19191 68.6664 4.90108 -1.2 1 0.000989543 0.00463177 0.000699626 0.00710531 0.00165159 0.00513698 0.0016351 0.0226104 0.00222485 0.00855715 0.00182761 0.027305 0.00216287 0.0188838 0.00251309 0.0316349 0.00337489 0.0255946 0.00331919 0.0489957
40 3 O 1.48043 65.1866 4.66503 -1.2 1 0.000894592 0.00544962 0.00100484 0.0071515 0.00106918 0.00573763 0.0016356 0.0238048 0.00169582 0.00900595 0.00166192 0.0282914 0.00244384 0.0188314 0.00355405 0.031824 0.00274442 0.0260508 0.003598 0.048401
41 3 O 1.02958 68.2125 3.48761 -1.2 1 0.000819131 0.00523249 0.000631561 0.00692833 0.00128544 0.00509953 0.00115158 0.0236536 0.00215737 0.00904686 0.00213518 0.0273152 0.00179337 0.0199967 0.00310269 0.0315262 0.00250267 0.0268065 0.00249694 0.0490009
42 3 O 1.10653 67.9656 6.09041 -1.2 1 0.00121968 0.00431598 0.00116092 0.00664345 0.00124551 0.00505071 0.0015832 0.023717 0.00178248 0.0086388 0.00153284 0.0272507 0.00226021 0.0196307 0.00284531 0.0318936 0.00265747 0.0257196 0.00382203 0.0494383
43 1 Mg -0.0308793 64.5505 3.1634 1.2 1 0.00147841 0.00578472 0.00102279 0.00734758 0.00126308 0.00591658 0.00138373 0.0234816 0.00175595 0.00878485 0.00146241 0.0287823 0.00177593 0.0189446 0.00252922 0.0323348 0.00280547 0.0266047 0.0030754 0.0481952
44 1 Mg -0.0971331 61.7477 4.73886 1.2 1 0.00581812 0.00714129 0.00180669 0.00654968 0.00115231 0.00547754 0.001696 0.0234235 0.00240741 0.00958686 0.00223294 0.0278607 0.00246442 0.0200482 0.00365405 0.0326488 0.00379286 0.0250936 0.00559471 0.047441
45 2 Si 2.15764 63.7338 4.72407 2.4 1 0.00245562 0.00565106 0.000915665 0.00804883 0.000806777 0.0054685 0.00138158 0.0232968 0.0021108 0.00844643 0.0022364 0.0270129 0.00206621 0.01962 0.00374558 0.0318955 0.00243852 0.0255918 0.00407809 0.0491162
46 3 O -1.00325 63.6708 4.55088 -1.2 1 0.00247601 0.00569011 0.000902602 0.00756615 0.000804603 0.00567882 0.00141557 0.023273 0.00262382 0.00835128 0.00204899 0.0279967 0.00209391 0.0188901 0.00266328 0.032517 0.00266287 0.0255452 0.00428528 0.0486143
47 3 O 1.1532 59.7925 4.49316 -1.2 1 0.0145107 0.0117906 0.0045559 0.00675486 0.00130822 0.00584431 0.00250101 0.0220713 0.00246587 0.0100717 0.0015642 0.0269015 0.00254626 0.0195932 0.0038928 0.0299523 0.00479757 0.0224581 0.00463915 0.0440652
48 3 O 1.46786 62.9923 3.40776 -1.2 1 0.00359615 0.00628312 0.00092235 0.00744709 0.00106187 0.0053609 0.00157155 0.0234095 0.00170579 0.00842446 0.00158299 0.0274512 0.00175719 0.0198553 0.00317122 0.0332065 0.00288631 0.0261751 0.00381856 0.0484945
49 1 Mg -0.0218211 64.6657 0.119264 1.2 1 0.00287274 0.00553835 0.00109502 0.00728841 0.00136769 0.00574886 0.00103097 0.0235786 0.00138447 0.00869001 0.00181812 0.0288594 0.00185188 0.0190707 0.00268989 0.032712 0.00304454 0.0267433 0.00290713 0.0484282
50 3 O 1.57456 63.0741 6.02801 -1.2 1 0.00348694 0.00577337 0.00135783 0.0070942 0.00148167 0.00507133 0.00187194 0.0238716 0.00188681 0.00941927 0.00125324 0.0275671 0.0022607 0.0195819 0.00355316 0.0330464 0.00311012 0.0254971 0.00490058 0.0487862
51 1 Mg 0.0376444 67.4353 1.67621 1.2 1 0.002115 0.00546717 0.000953189 0.00714064 0.001093 0.00519147 0.00121893 0.0237502 0.0019777 0.00938262 0.00259427 0.0281653 0.00165954 0.0197154 0.00263803 0.03216 0.00318165 0.0273904 0.00259388 0.0486952
52 2 Si -2.06454 65.6153 1.62872 2.4 1 0.00158602 0.00559444 0.00124734 0.00807661 0.00155172 0.00587417 0.0018099 0.0235846 0.0018237 0.00854182 0.00238398 0.0271593 0.00254806 0.0201738 0.00332648 0.031251 0.00333077 0.0269303 0.00288307 0.0498473
53 3 O 1.15297 65.5541 1.7227 -1.2 1 0.00179409 0.00570787 0.00137416 0.00785272 0.00148875 0.00564154 0.00141166 0.0228107 0.00200769 0.00820788 0.00175238 0.0281037 0.00187054 0.0189834 0.00255907 0.0322191 0.00316983 0.0266631 0.00333951 0.0490761
54 3 O -1.10185 69.3435 1.62572 -1.2 1 0.00138242 0.00517257 0.00112814 0.00717956 0.00121456 0.00580846 0.00124505 0.0239901 0.00166764 0.00919485 0.00171392 0.0284792 0.00187678 0.0196008 0.00334288 0.0309672 0.00326422 0.0272837 0.00241604 0.0486534
55 3 O -1.37776 66.3414 0.362724 -1.2 1 0.00260701 0.00517924 0.00123916 0.00701125 0.00205712 0.00540749 0.00183128 0.0238038 0.00192773 0.00885469 0.00201238 0.027351 0.00209159 0.020031 0.00244853 0.0324454 0.00280679 0.0271637 0.00236591 0.0491312
56 3 O -1.36748 66.2457 2.88408 -1.2 1 0.000795053 0.00516384 0.00107817 0.0072641 0.00170549 0.00523647 0.00188906 0.0235121 0.00216442 0.00848447 0.00184224 0.027351 0.00223626 0.0191933 0.00245466 0.0320718 0.00261943 0.0272143 0.00326844 0.0483499
57 1 Mg -2.67901 69.8402 0.246724 1.2 1 0.00221357 0.00479667 0.00131858 0.00684337 0.00107378 0.00583004 0.00125158 0.0238725 0.00152325 0.00947993 0.00146294 0.0290147 0.00114213 0.0195091 0.00185486 0.0311868 0.00203349 0.027461 0.00188801 0.0481384
58 1 Mg 2.25121 72.7533 1.75345 1.2 1 0.00135505 0.00439417 0.00108772 0.00635421 0.000718297 0.00527659 0.00109726 0.0233356 0.00244448 0.00968692 0.00225336 0.0282956 0.00221379 0.0195379 0.00344377 0.0312467 0.00278932 0.0268887 0.00330779 0.0475608
59 2 Si -0.350273 70.8023 1.72583 2.4 1 0.000671535 0.0045854 0.00136511 0.00738585 0.00155462 0.0057068 0.00180872 0.0229172 0.0016934 0.00913992 0.00163113 0.0276701 0.00184233 0.0196857 0.00355174 0.0310274 0.00343426 0.0265831 0.00274372 0.048801
60 3 O 1.17484 70.6622 1.74743 -1.2 1 0.000787126 0.004562 0.00133811 0.00700519 0.00120663 0.00568578 0.00123637 0.0231848 0.0022643 0.00913931 0.00177688 0.0278929 0.00150149 0.0191558 0.00237611 0.0313427 0.00178627 0.0267715 0.00221225 0.0483775
61 3 O -1.55128 74.457 1.80114 -1.2 1 0.00263888 0.00443594 0.00098276 0.00654374 0.000890505 0.00576555 0.001261 0.0236802 0.00151978 0.00940436 0.00204863 0.0283805 0.00300655 0.0189599 0.00322468 0.0306674 0.00255907 0.0259941 0.00391866 0.0480482
62 3 O -1.07266 71.7266 0.664077 -1.2 1 0.000762433 0.00438767 0.00083651 0.00675256 0.00138083 0.00540505 0.00137395 0.023098 0.00141612 0.00876582 0.001452 0.0274478 0.00248277 0.0201642 0.00269276 0.0316102 0.00215564 0.026635 0.0019537 0.0483779
63 1 Mg -2.55098 80.1541 3.20049 1.2 1 0.00285833 0.00591148 0.000924645 0.00611098 0.00142025 0.00604646 0.00134665 0.0240507 0.000911584 0.00903781 0.0014822 0.0292131 0.00148938 0.0196474 0.00236349 0.0319412 0.00241278 0.026406 0.00230028 0.0495201
64 3 O -1.02787 71.2808 3.15733 -1.2 1 0.00119694 0.00451287 0.00147254 0.00685501 0.00229869 0.00516724 0.00248286 0.0234605 0.00195567 0.00912082 0.00185198 0.0272764 0.00215408 0.0194746 0.00289915 0.0313867 0.00259458 0.0267156 0.00309378 0.0480754
65 1 Mg -2.42444 77.2897 4.75413 1.2 1 0.0031361 0.00566696 0.00150323 0.00574617 0.000860762 0.00556665 0.00141174 0.0233702 0.00201318 0.00908473 0.00215482 0.0280551 0.00251243 0.0198772 0.00344082 0.0315564 0.00292061 0.0267207 0.00347156 0.0496047
66 2 Si 0.180689 79.1706 4.72584 2.4 1 0.00227692 0.0055821 0.000863952 0.00660425 0.00159681 0.00631771 0.00178689 0.0239347 0.00133173 0.00898622 0.00205713 0.0274292 0.00229368 0.0205488 0.00347737 0.0311596 0.00343949 0.0259783 0.00255869 0.0513836
67 3 O -1.3731 79.2228 4.75846 -1.2 1 0.00257546 0.00572616 0.0011692 0.00639384 0.00172529 0.00584148 0.00207081 0.0229048 0.00188675 0.00869395 0.00179902 0.028395 0.00203191 0.0197342 0.00274619 0.0311203 0.00292909 0.0256969 0.00263398 0.049897
68 3 O 1.402 75.4849 4.70266 -1.2 1 0.00323067 0.00487014 0.00110936 0.00588033 0.00090934 0.00594332 0.00084557 0.0233932 0.00119752 0.00906929 0.00191406 0.0280616 0.00183692 0.0193282 0.0030213 0.0305422 0.0028585 0.0257602 0.00360274 0.0491534
69 3 O 0.920924 78.4839 3.54785 -1.2 1 0.00207817 0.00568419 0.000840561 0.00624819 0.00140261 0.00568448 0.00155012 0.0233993 0.0012111 0.00872143 0.00210165 0.0272397 0.00290536 0.0198282 0.00321385 0.0315578 0.00295169 0.0261427 0.00198077 0.0494476
70 3 O 0.938741 78.5607 6.02114 -1.2 1 0.00228348 0.00528601 0.0010044 0.00574515 0.00144773 0.00542734 0.00134429 0.0235253 0.00122721 0.00852162 0.00181216 0.02735 0.00197913 0.0206292 0.00308358 0.0316949 0.00266728 0.0262438 0.00201633 0.0504342
71 1 Mg -0.071258 74.9896 3.23466 1.2 1 0.00296533 0.00497628 0.00123947 0.00605459 0.000872749 0.00597018 0.000717418 0.0233338 0.00120183 0.00962873 0.00151208 0.0287916 0.00197107 0.0189478 0.00247613 0.030364 0.00240845 0.0261328 0.0037914 0.0479295
72 1 Mg 0.198049 71.9807 4.94293 1.2 1 0.00319565 0.00451166 0.00129711 0.00626118 0.00115598 0.00522317 0.00118782 0.0235264 0.00138241 0.00946844 0.00158704 0.0278769 0.00234941 0.0203339 0.0026236 0.0309709 0.00236739 0.0261456 0.00326912 0.0487369
73 2 Si 2.03088 73.951 4.68063 2.4 1 0.00433716 0.00428014 0.00127644 0.00677547 0.00119001 0.0056949 0.00136083 0.0228708 0.00170887 0.00891013 0.00216655 0.0266687 0.00211919 0.0201784 0.00404583 0.0305021 0.00340176 0.0257752 0.00464906 0.0491912
74 3 O -1.1446 74.1814 4.74241 -1.2 1 0.00359215 0.00437217 0.00116402 0.00612194 0.00103397 0.00577361 0.00104183 0.0227631 0.00225075 0.00916286 0.00164495 0.0281528 0.00220293 0.0194896 0.00289805 0.030887 0.00268616 0.0256695 0.0045047 0.0487646
75 3 O 1.15568 70.1902 4.99228 -1.2 1 0.00152802 0.00437978 0.00111021 0.0066599 0.00103919 0.00590623 0.00107754 0.0238749 0.00161741 0.00932063 0.00246179 0.0279369 0.002391 0.0197435 0.00248851 0.0308192 0.00252346 0.0263509 0.00303366 0.0489875
76 3 O 1.31942 73.2295 3.51454 -1.2 1 0.00310816 0.00444323 0.00112678 0.00616943 0.000887496 0.00537851 0.00104923 0.023357 0.00164335 0.00935182 0.00194292 0.0274632 0.00182366 0.0200896 0.00237354 0.0310298 0.00242893 0.0263213 0.00328101 0.048145
77 1 Mg -0.139853 74.8167 0.44765 1.2 1 0.00180314 0.00426866 0.000533064 0.00646351 0.000643002 0.00601734 0.000815205 0.0229553 0.00108897 0.00887963 0.00136467 0.0291288 0.00202304 0.0185519 0.00205459 0.0308485 0.00204441 0.0262852 0.00278835 0.0479715
78 3 O 1.39046 73.2434 5.94687 -1.2 1 0.00403439 0.00427368 0.00102014 0.00596088 0.00125533 0.00495741 0.00144966 0.0231284 0.00157393 0.00881008 0.00181858 0.0269129 0.00227643 0.0203841 0.00287406 0.0317666 0.00261792 0.0258776 0.00404 0.0494445
79 1 Mg 0.123684 77.9967 1.88853 1.2 1 0.0015795 0.005881 0.000964362 0.00669868 0.0010894 0.00583136 0.00185309 0.0236782 0.00188903 0.00896573 0.00246853 0.0285609 0.00239696 0.0196816 0.0036323 0.0315881 0.00275251 0.0265507 0.00211965 0.0500616
80 2 Si -2.13654 76.005 1.77167 2.4 1 0.00311993 0.00515044 0.00100537 0.00753253 0.00131305 0.00597249 0.00182207 0.0228087 0.00157394 0.00871432 0.00233039 0.0271396 0.00269778 0.0198167 0.00345111 0.0307812 0.00375982 0.0261489 0.00341889 0.049701
81 3 O 1.00989 75.804 1.75959 -1.2 1 0.00273294 0.00494882 0.000912911 0.00686881 0.0013539 0.00576128 0.00155262 0.0226423 0.00179149 0.00858613 0.00162663 0.0282832 0.0022027 0.0185183 0.00272926 0.0309992 0.0023742 0.0261343 0.00309935 0.0490424
82 3 O -1.14086 79.7185 1.86298 -1.2 1 0.00203744 0.00586005 0.00124539 0.0067145 0.00112629 0.00652802 0.00141336 0.0241571 0.00144256 0.00881955 0.00221107 0.029091 0.00197104 0.0194949 0.00323828 0.0319117 0.0029173 0.0263166 0.00296574 0.050422
83 3 O -1.49177 76.5806 0.493618 -1.2 1 0.00167627 0.00478557 0.000875601 0.00668769 0.00125346 0.00553106 0.00191184 0.0228233 0.00188514 0.00845918 0.00221161 0.0277046 0.00236736 0.0192966 0.00286418 0.0315044 0.00291798 0.0262449 0.00236812 0.0498434
84 3 O -1.48052 76.6357 3.03988 -1.2 1 0.0023849 0.00546074 0.0010528 0.00628093 0.00128321 0.00573092 0.00145372 0.0234272 0.00170422 0.00850822 0.00187942 0.0272121 0.00277742 0.0193725 0.00292752 0.0313684 0.0027261 0.0269651 0.00284577 0.0492712
85 1 Mg -2.54556 80.0942 0.17265 1.2 1 0.00262472 0.00526776 0.00121658 0.00667638 0.00114444 0.00668225 0.00135143 0.0239075 0.00155857 0.00889352 0.00146812 0.0299693 0.00181251 0.018912 0.00235964 0.0322352 0.00217051 0.026079 0.00251645 0.0499482
86 1 Mg 2.27529 83.1157 1.68312 1.2 1 0.00520831 0.00450155 0.00126857 0.00671832 0.00165715 0.00635152 0.00162151 0.0241237 0.00232847 0.00923902 0.00222682 0.0289455 0.0029616 0.020229 0.00305019 0.0325598 0.00285226 0.0253391 0.00311112 0.0501807
87 2 Si -0.417538 81.1697 1.74906 2.4 1 0.00429178 0.00516463 0.00134441 0.0070709 0.0015471 0.00639096 0.00195704 0.0231932 0.00216663 0.00874021 0.00260552 0.0283953 0.00202128 0.0198411 0.00458791 0.031605 0.00354424 0.0252421 0.00421924 0.0508455
88 3 O 1.139 81.0554 1.68289 -1.2 1 0.00332798 0.00525716 0.00109402 0.00683621 0.00107117 0.00622448 0.00131701 0.0236126 0.00248453 0.00872723 0.00169114 0.0292794 0.0019431 0.0195108 0.0021189 0.03246 0.00308605 0.025667 0.00310111 0.0506039
89 3 O -1.45783 84.9642 1.69285 -1.2 1 0.00381719 0.00382037 0.00110582 0.00726175 0.00114082 0.00674807 0.00131113 0.0242506 0.00164437 0.0096344 0.00206966 0.0292214 0.00204633 0.0202575 0.00304513 0.0327655 0.00199807 0.0247351 0.00269121 0.0494946
90 3 O -1.18073 81.7444 0.483701 -1.2 1 0.00422502 0.00477256 0.00134093 0.00665791 0.00165546 0.0063213 0.00211308 0.0238809 0.00206963 0.00875346 0.00207509 0.0288689 0.00185722 0.0197423 0.00244158 0.0325753 0.00276307 0.0257633 0.00344811 0.0507249
91 1 Mg -2.25386 90.6921 3.29178 1.2 1 0.00315066 0.00422252 0.000943429 0.0075492 0.000850484 0.00692193 0.00143825 0.0246899 0.00133909 0.00999635 0.00128577 0.0288639 0.00186265 0.0202461 0.00244716 0.0333726 0.00207988 0.0249438 0.00231482 0.0477643
92 3 O -1.02618 82.047 2.9365 -1.2 1 0.00452886 0.00500156 0.00104432 0.00635172 0.00155607 0.0057243 0.00159923 0.0241148 0.00219887 0.0092883 0.00201733 0.0280173 0.00157156 0.0206471 0.00270912 0.0325117 0.00223005 0.0256207 0.00302948 0.0504803
93 1 Mg -2.45809 87.6266 4.67345 1.2 1 0.00389407 0.00346871 0.0014111 0.0071341 0.00166484 0.00655379 0.00164089 0.0245236 0.0023846 0.0101534 0.00209866 0.0286861 0.00224058 0.0208257 0.00314044 0.0328897 0.00282967 0.0249392 0.0031312 0.0488218
94 2 Si 0.401861 89.5747 4.82055 2.4 1 0.00360514 0.00348908 0.00151066 0.00827581 0.00178539 0.00698247 0.00240171 0.024476 0.00182214 0.00995932 0.00239322 0.0279483 0.00291211 0.0210849 0.00391476 0.0328052 0.00374397 0.0244273 0.00358794 0.0496455
95 3 O -1.18249 89.7348 4.83246 -1.2 1 0.00346747 0.00353887 0.00126908 0.00796018 0.00144826 0.00661825 0.00157965 0.0237022 0.00249902 0.00990702 0.00214026 0.028491 0.00221644 0.0206281 0.00297916 0.0331567 0.003118 0.0242001 0.00330679 0.0488736
96 3 O 1.22192 85.8052 4.8306 -1.2 1 0.00427486 0.00370039 0.00138471 0.00711824 0.0018512 0.00650895 0.00137528 0.0242631 0.00181023 0.00965481 0.00242507 0.0287289 0.00232426 0.0204086 0.00319433 0.0326698 0.00331621 0.0248135 0.00330537 0.0497831
97 3 O 0.944991 88.9161 3.46715 -1.2 1 0.00384386 0.0037618 0.00167909 0.00760622 0.00201778 0.00671348 0.00287228 0.0244296 0.00168716 0.0102874 0.00257396 0.0280251 0.00246749 0.0210899 0.00279588 0.0338242 0.00252886 0.0247242 0.00313043 0.0486813
98 3 O 1.04607 88.9316 5.99376 -1.2 1 0.00293545 0.00336268 0.00141653 0.00710729 0.00160774 0.00642841 0.00194023 0.0245598 0.00184203 0.0100054 0.00195681 0.0276327 0.00301618 0.0210733 0.00370092 0.0334637 0.00357376 0.0249666 0.0027309 0.0493884
99 1 Mg -0.00957317 85.2617 3.22671 1.2 1 0.00386316 0.0042282 0.00106309 0.00689707 0.00166752 0.00674978 0.00139691 0.0242245 0.00132026 0.00995848 0.00162106 0.0294186 0.00202214 0.0199291 0.00213181 0.0325405 0.00195368 0.0251536 0.00220789 0.0486851
100 1 Mg 0.00147663 82.4657 4.66375 1.2 1 0.00421643 0.00529627 0.00143827 0.00654029 0.00147835 0.00549437 0.00119903 0.0238367 0.00149759 0.00939247 0.0026229 0.0285463 0.0016911 0.0203086 0.00333982 0.0325576 0.00361095 0.0263047 0.00379876 0.0499046
101 2 Si 2.02581 84.3583 4.67519 2.4 1 0.00466315 0.00427592 0.00124174 0.00752715 0.0018305 0.00627411 0.00175148 0.0236612 0.00201149 0.00929833 0.0023042 0.0277503 0.00229713 0.0210264 0.00316764 0.0320829 0.00307616 0.0250989 0.00265619 0.0506238
102 3 O -1.17739 84.4161 4.69742 -1.2 1 0.00440607 0.00402812 0.00136226 0.00743948 0.00196184 0.00583783 0.00216444 0.0232873 0.00257578 0.00911446 0.00173042 0.0281531 0.00237185 0.0202138 0.00322053 0.0327061 0.00379574 0.0247643 0.00369737 0.0502689
103 3 O 0.851033 80.6217 4.55918 -1.2 1 0.00343546 0.00567993 0.00102699 0.00643469 0.00133608 0.00597692 0.00123328 0.0241964 0.00144663 0.00919057 0.00174034 0.0287063 0.00295361 0.0197223 0.00404679 0.0312298 0.00306772 0.0259599 0.00337896 0.0502405
104 3 O 1.40449 83.7064 3.42832 -1.2 1 0.00428599 0.00433571 0.00106385 0.0066995 0.00219688 0.00611921 0.00199591 0.0239941 0.00209041 0.00914159 0.00187148 0.0280032 0.00234894 0.0206322 0.00275949 0.0321761 0.00236695 0.0250645 0.0028754 0.0497623
105 1 Mg -0.127445 85.3936 0.263195 1.2 1 0.00320296 0.00344015 0.000884412 0.00710073 0.00131991 0.006729 0.000950904 0.0243079 0.00144535 0.00984437 0.00164537 0.0296518 0.00238892 0.0202108 0.00204731 0.0333495 0.00190641 0.0248062 0.00257245 0.0489829
106 3 O 1.30763 83.514 5.96765 -1.2 1 0.00423926 0.00467311 0.0013299 0.00669694 0.00177298 0.00593459 0.00184282 0.0237364 0.00163112 0.00887192 0.00160205 0.0278421 0.001927 0.0208838 0.00261707 0.032183 0.00219213 0.0255176 0.0019758 0.0503855
107 1 Mg -0.0590331 88.3375 1.83587 1.2 1 0.0028675 0.00381732 0.00104387 0.00750534 0.00131384 0.0067578 0.00187085 0.0244703 0.00170703 0.0106505 0.00221538 0.0288564 0.00222724 0.0214798 0.00284063 0.0340217 0.00320128 0.0245091 0.00373435 0.0482931
108 2 Si -2.1452 86.4072 1.70486 2.4 1 0.00337168 0.00354323 0.0012476 0.00846854 0.00118036 0.0067314 0.0017866 0.0240765 0.00126563 0.00980178 0.00213091 0.0280179 0.00215302 0.0212417 0.00369829 0.0331585 0.00301292 0.0243441 0.00358836 0.0499755
109 3 O 1.10491 86.3337 1.70765 -1.2 1 0.00340308 0.00348932 0.000937639 0.00784962 0.0012508 0.00655119 0.00156338 0.0238217 0.0027409 0.00961503 0.00213687 0.02882 0.00279541 0.0203659 0.00229083 0.0337234 0.00230405 0.0243005 0.003118 0.0493596
110 3 O -1.05345 90.2542 1.83728 -1.2 1 0.00403116 0.00432058 0.0012802 0.00783777 0.00120957 0.00686698 0.00165389 0.0248982 0.00166083 0.0103318 0.00228208 0.0286484 0.00312439 0.0207769 0.00377076 0.0331836 0.00296242 0.0246471 0.00297841 0.0483495
111 3 O -1.41353 87.141 0.48355 -1.2 1 0.00259898 0.00349848 0.00108531 0.00764034 0.000930362 0.00678948 0.00189153 0.0242465 0.0016935 0.0100206 0.00198663 0.0287077 0.00200819 0.0215081 0.0022685 0.0341127 0.00219558 0.0243327 0.00287593 0.0491215
112 3 O -1.50519 86.9986 3.09412 -1.2 1 0.00353184 0.0038837 0.00132552 0.0072381 0.00167619 0.00667083 0.00159353 0.0245754 0.00150235 0.0101267 0.0022207 0.0286751 0.00230449 0.0214262 0.0032956 0.0332268 0.00300869 0.0244854 0.00351175 0.0491503
113 1 Mg -2.48118 90.845 0.268857 1.2 1 0.00422057 0.00479253 0.00115137 0.00723197 0.00100062 0.00669857 0.00139718 0.0244093 0.00109824 0.0105224 0.00142352 0.0289968 0.00247179 0.020622 0.00197718 0.0335667 0.0020034 0.0244546 0.00219545 0.0473292
114 1 Mg 2.37665 93.6449 1.56527 1.2 1 0.00271979 0.00561942 0.001378 0.00748662 0.00106687 0.00625983 0.00153285 0.0248408 0.00192663 0.0102148 0.00259529 0.0274204 0.00246682 0.0206438 0.00438675 0.0334105 0.00335525 0.0249955 0.00367462 0.0485865
115 2 Si -0.235953 91.8142 1.74404 2.4 1 0.00424181 0.00495841 0.00101472 0.00829136 0.00204234 0.00650981 0.00207991 0.0240283 0.00157596 0.0100839 0.0021184 0.0272292 0.0032181 0.020814 0.00334251 0.0335749 0.00338343 0.0242245 0.00321073 0.0484631
116 3 O 1.32726 91.6737 1.72126 -1.2 1 0.00402755 0.00492534 0.000937635 0.00800089 0.00159061 0.00649205 0.00174957 0.0238072 0.00210698 0.0102188 0.00116139 0.0278646 0.00250715 0.0209805 0.0024295 0.0333423 0.00336106 0.0242639 0.00342724 0.0486181
117 3 O -1.27176 95.2658 1.5943 -1.2 1 0.00257364 0.00578487 0.000853679 0.0074968 0.00105659 0.00621998 0.00128157 0.024889 0.00121668 0.0100925 0.00173409 0.0276412 0.00224636 0.0201888 0.00202853 0.032482 0.00328817 0.0246985 0.00322484 0.0481303
118 3 O -0.89765 92.4814 0.549332 -1.2 1 0.00416217 0.00531083 0.00105426 0.007087 0.0014865 0.00622439 0.00157715 0.0244385 0.00169496 0.0100424 0.00117182 0.0273247 0.00263703 0.0206853 0.00214852 0.0334586 0.00293387 0.024697 0.00307433 0.0485027
119 1 Mg -2.23267 100.93 3.11809 1.2 1 0.00319336 0.00505378 0.000698474 0.00689168 0.00109561 0.00571424 0.00119694 0.0242954 0.000870933 0.00994054 0.00109385 0.0282856 0.00156056 0.0193252 0.00203198 0.0313756 0.0020285 0.0248862 0.00231014 0.0466729