ITEM: TIMESTEP
71300
ITEM: NUMBER OF ATOMS
5600
ITEM: BOX BOUNDS xy xz yz pp pp pp
0	7.1235	0
0	201.985	2.3745
0	119.584	0
ITEM: ATOMS id type element xu yu zu q Q_1 Q_2 Q_3 Q_4 Q_5 Q_6 Q_7 Q_8 Q_9 Q_10 Q_11 Q_12 Q_13 Q_14 Q_15 Q_16 Q_17 Q_18 Q_19 Q_20 Q_21
1 1 Mg -2.11032 47.7061 -1.01893 1.2 1 0.234492 0.0812782 0.0190915 0.0261225 0.00482688 0.0131472 0.00324763 0.0226601 0.00531041 0.0277351 0.0076553 0.0307363 0.00911483 0.0312894 0.00896133 0.0289901 0.00837114 0.025953 0.00913471 0.0331466
2 1 Mg 2.52658 49.8079 1.96228 1.2 1 0.180816 0.0691848 0.00855376 0.0196168 0.00227232 0.010511 0.00365921 0.0206728 0.00453505 0.0231486 0.0055034 0.0272043 0.00612248 0.0277718 0.00675271 0.0276297 0.00691292 0.0223708 0.00847748 0.032679
3 2 Si 0.360793 49.4493 0.13285 2.4 1 0.196905 0.0729865 0.01262 0.022005 0.00361947 0.0114342 0.00335274 0.0211271 0.00473569 0.025026 0.00562288 0.0290618 0.00634949 0.0297468 0.00728299 0.0279251 0.00676628 0.0235893 0.00829208 0.0330239
4 3 O 1.41971 48.1643 0.434926 -1.2 1 0.217682 0.0794221 0.0147411 0.0246014 0.00316753 0.0126599 0.00399867 0.0221362 0.00562629 0.0269071 0.00674224 0.0294577 0.00832692 0.0305523 0.00887059 0.0289586 0.00841793 0.0251973 0.00955152 0.0335748
5 3 O -1.56249 52.3837 1.5719 -1.2 1 0.124634 0.0530876 0.00291066 0.0146118 0.00194763 0.00950258 0.00282819 0.0193603 0.00325942 0.0193235 0.00372027 0.0266924 0.00439695 0.0246712 0.00398896 0.0268879 0.00442001 0.0225501 0.00571823 0.0325713
6 3 O -0.549254 48.9318 -1.06802 -1.2 1 0.202347 0.075203 0.0117916 0.0219684 0.00365904 0.011291 0.00146105 0.0206154 0.00428586 0.025009 0.00562177 0.0291408 0.00651873 0.0309213 0.0074492 0.0286996 0.00695267 0.0241692 0.00762347 0.0327625
7 1 Mg -2.72169 57.9878 2.92997 1.2 1 0.0162012 0.0145748 0.00480941 0.00868782 0.00103746 0.00706494 0.00217607 0.020758 0.00273957 0.0134668 0.00205818 0.0245535 0.00294264 0.0218144 0.00449631 0.0283613 0.00408559 0.0244954 0.00430176 0.0321939
8 3 O -0.404841 49.4786 1.4382 -1.2 1 0.192015 0.0726923 0.0104291 0.0211134 0.00283032 0.0110881 0.00361624 0.0210641 0.00536852 0.0241572 0.00603938 0.0277297 0.00614679 0.0295603 0.00740786 0.0274655 0.00665834 0.0228425 0.00844651 0.0329458
9 1 Mg -2.8571 55.1898 4.5285 1.2 1 0.0646629 0.035227 0.00569581 0.00990269 0.00266296 0.00671202 0.00228554 0.0203431 0.00382858 0.0161737 0.00232304 0.0245173 0.00299378 0.0215745 0.00464736 0.0259003 0.00471815 0.0213032 0.00646378 0.0308879
10 2 Si -0.120536 57.1204 4.57026 2.4 1 0.0223313 0.0182853 0.0069876 0.00930169 0.00186491 0.00618802 0.00269134 0.0207941 0.00376364 0.0130241 0.00290358 0.0234011 0.00474299 0.0208224 0.00652139 0.0274764 0.00550124 0.0230191 0.00565105 0.0319473
11 3 O -1.67243 57.1396 4.60847 -1.2 1 0.023472 0.0187211 0.00698607 0.00900317 0.00218175 0.00635709 0.00276146 0.0199112 0.00349993 0.0132228 0.00207372 0.0237758 0.00340435 0.0205962 0.00534528 0.0269567 0.00496166 0.0223684 0.00606021 0.0311915
12 3 O 0.933027 53.141 4.71929 -1.2 1 0.107013 0.0488371 0.00302384 0.0134311 0.00216466 0.00807958 0.00277604 0.0201394 0.00463895 0.0182782 0.00326773 0.0246428 0.00354458 0.0230164 0.00479603 0.0251091 0.00616486 0.0198892 0.00733644 0.0296844
13 3 O 0.603656 56.4095 3.30425 -1.2 1 0.0359027 0.0249335 0.00770311 0.00947508 0.00143691 0.00616454 0.00205746 0.0206586 0.00349804 0.0131729 0.00243199 0.0242413 0.00338089 0.0215443 0.00539356 0.027673 0.00425127 0.0233666 0.00499919 0.0323429
14 3 O 0.779723 56.5495 5.76155 -1.2 1 0.0343879 0.0233607 0.00780036 0.00806478 0.00202498 0.00688891 0.00153387 0.0212806 0.00286233 0.0143263 0.00173803 0.0241035 0.0043115 0.0208168 0.00595456 0.0260838 0.00540307 0.0208653 0.00658624 0.0305577
15 1 Mg -0.269043 52.3914 3.06346 1.2 1 0.122957 0.0536715 0.00210791 0.0143728 0.0021026 0.00862429 0.00301333 0.0197095 0.00357993 0.0193048 0.00374629 0.0262085 0.00416435 0.0242028 0.00455793 0.0258107 0.00485042 0.0214668 0.00627541 0.0318359
16 1 Mg 0.361898 49.0016 3.19813 1.2 1 0.201937 0.074739 0.0111467 0.0221684 0.00252042 0.0122936 0.00408465 0.0218184 0.0062983 0.025336 0.00557681 0.027562 0.00730183 0.0289439 0.00721919 0.0272062 0.00803105 0.0225253 0.00932905 0.0325319
17 2 Si 1.78947 51.5702 4.63774 2.4 1 0.145614 0.0583942 0.00377883 0.0159554 0.00288005 0.00867774 0.00320214 0.0202268 0.00326523 0.0208832 0.00511719 0.0257428 0.00502227 0.0252693 0.00561822 0.0258816 0.0063498 0.01996 0.00738181 0.0298431
18 3 O -1.45104 51.6578 4.51568 -1.2 1 0.138632 0.0578318 0.00296593 0.0150493 0.00230163 0.00770768 0.00286573 0.0201495 0.00396113 0.0203425 0.00421822 0.0258912 0.00495148 0.0255539 0.00537918 0.0262648 0.00630795 0.0198933 0.00713092 0.0305914
19 3 O 2.39246 48.5254 3.36873 -1.2 1 0.20832 0.0766485 0.0103759 0.0232088 0.0026404 0.0130679 0.00371092 0.0215101 0.00556977 0.0249971 0.00596798 0.0283709 0.00812947 0.0288077 0.00808963 0.0273346 0.00809016 0.0227337 0.00902836 0.0330746
20 3 O 1.23006 50.8082 3.21241 -1.2 1 0.161456 0.0650461 0.00447509 0.0173209 0.00214334 0.00883837 0.00308262 0.0204861 0.00439582 0.0220221 0.00456229 0.0266972 0.00563627 0.0269423 0.00578464 0.0263924 0.00628277 0.0210628 0.0083265 0.0318265
21 1 Mg -0.283194 53.0414 0.0655832 1.2 1 0.107658 0.0501551 0.00171916 0.0136818 0.00156318 0.00790188 0.00196068 0.0187547 0.00305688 0.017979 0.00345543 0.0268355 0.00366008 0.0241826 0.0042067 0.0269376 0.00357103 0.0231179 0.00576418 0.0320635
22 3 O 1.08545 50.7637 5.8581 -1.2 1 0.157361 0.060624 0.00535371 0.0166941 0.00228643 0.00925858 0.00358152 0.0198017 0.00399447 0.0214567 0.00436374 0.0256692 0.00545747 0.0261997 0.00563218 0.0249526 0.00724507 0.018958 0.00759509 0.0288176
23 1 Mg -0.0540736 55.8891 1.38869 1.2 1 0.0446848 0.0285105 0.00750542 0.00964172 0.00164116 0.00649498 0.00164647 0.0190985 0.00401588 0.0133844 0.003067 0.0250244 0.00337498 0.0220955 0.00575571 0.0267714 0.00407044 0.0233446 0.00501608 0.031972
24 2 Si -2.14853 53.9349 1.59927 2.4 1 0.0933896 0.0445704 0.00310103 0.0121404 0.00195293 0.00712335 0.00214755 0.0185935 0.00383212 0.016398 0.00339025 0.0254276 0.00310309 0.023774 0.00400993 0.0260712 0.00436538 0.0215183 0.00548511 0.0321114
25 3 O 0.987274 53.928 1.56297 -1.2 1 0.098217 0.0441591 0.00194156 0.0126659 0.00158135 0.0078823 0.00193862 0.0181971 0.00322253 0.0162721 0.00374169 0.0255652 0.00418751 0.0228628 0.00455397 0.0265539 0.00389621 0.0221914 0.00539575 0.0321877
26 3 O -1.19663 57.5854 1.57809 -1.2 1 0.0234328 0.0186932 0.00674563 0.00868611 0.0015266 0.00691537 0.00152524 0.0202229 0.00339186 0.0129886 0.00260368 0.0246784 0.00344827 0.0222276 0.00447788 0.0279581 0.00500019 0.0241411 0.00501985 0.0321164
27 3 O -1.39352 54.646 0.317694 -1.2 1 0.0773092 0.039915 0.00391468 0.0115757 0.00239444 0.00686253 0.00203836 0.0182393 0.00360766 0.0153087 0.00269466 0.0249265 0.00306455 0.0228844 0.00429377 0.0270594 0.00384562 0.0230856 0.00496572 0.0318131
28 3 O -1.7284 54.5065 2.99154 -1.2 1 0.07854 0.0394909 0.00389131 0.010639 0.00208802 0.00707277 0.00236804 0.0201646 0.00354747 0.0162168 0.00317823 0.0253943 0.00259727 0.023033 0.00407535 0.0264423 0.00466675 0.0223676 0.00571809 0.0312412
29 1 Mg -2.55275 58.1007 0.0478674 1.2 1 0.0168431 0.0145642 0.00508818 0.00902586 0.00139659 0.00662849 0.00235276 0.0192882 0.00249887 0.0128869 0.00258711 0.0244501 0.0036826 0.0218541 0.003751 0.0281253 0.00473023 0.0252975 0.00462756 0.0326484
30 1 Mg 2.29115 61.2921 1.44961 1.2 1 0.00426083 0.00779589 0.00123516 0.00905373 0.000592524 0.00690021 0.0016251 0.0202796 0.0021993 0.0116835 0.00275086 0.0236364 0.00211925 0.0220174 0.00311344 0.0293606 0.0035538 0.025217 0.00354042 0.0313265
31 2 Si -0.529585 59.133 1.68236 2.4 1 0.0102437 0.0104328 0.00261984 0.00980479 0.00128835 0.00647954 0.0015146 0.0194006 0.0026636 0.0116399 0.00312748 0.0235081 0.00340295 0.0218481 0.00397053 0.0286047 0.00396526 0.024978 0.00453096 0.032533
32 3 O 1.02414 58.8726 1.50147 -1.2 1 0.0123318 0.0118203 0.00365678 0.0092908 0.00075296 0.00647671 0.00192873 0.0192254 0.00296292 0.0121342 0.002372 0.0240757 0.00323402 0.0218173 0.00446723 0.0278489 0.00422835 0.0245272 0.00445299 0.0324482
33 3 O -1.74162 63.0907 1.41125 -1.2 1 0.00416812 0.00720077 0.00145986 0.00907095 0.000926233 0.0067863 0.00163696 0.0210842 0.000923055 0.0117012 0.00203138 0.0230369 0.00188509 0.0213919 0.00343045 0.0284316 0.00367107 0.02544 0.00347593 0.0311445
34 3 O -1.18842 59.9104 0.495847 -1.2 1 0.00811575 0.00888051 0.00198167 0.00933948 0.00126406 0.00666738 0.00147021 0.0196688 0.00225502 0.0113205 0.00195869 0.0236489 0.00302933 0.0222672 0.00348929 0.028617 0.00374599 0.0251555 0.00364347 0.0321002
35 1 Mg -2.77841 68.6289 2.68421 1.2 1 0.00466459 0.00561964 0.00188753 0.0086414 0.0026067 0.00695486 0.00161692 0.0205261 0.0023255 0.0102633 0.00274645 0.0245359 0.00430708 0.0188946 0.00540619 0.0270139 0.00590072 0.0243247 0.00556438 0.0327601
36 3 O -1.35981 59.6911 3.0017 -1.2 1 0.00796686 0.00944307 0.00221652 0.00921832 0.00178825 0.00679508 0.00200607 0.0205888 0.00278761 0.011766 0.00210885 0.0236871 0.00339892 0.0218453 0.00446066 0.0287491 0.00458936 0.0257633 0.0051921 0.0327644
37 1 Mg -2.60973 65.5959 4.92943 1.2 1 0.00321165 0.00567691 0.00158361 0.00937633 0.00134116 0.00761684 0.0016144 0.0205242 0.00143777 0.0106165 0.00226441 0.0242647 0.00309472 0.0204917 0.00522896 0.0275698 0.00546372 0.0251619 0.00497288 0.0315255
38 2 Si 0.157476 67.7658 4.32522 2.4 1 0.00382257 0.00481282 0.00156815 0.00960799 0.00337203 0.00634385 0.00198442 0.0196603 0.00223609 0.00999229 0.00304773 0.0238847 0.00470907 0.0204481 0.00546104 0.0276571 0.00542155 0.0244019 0.00513095 0.0321836
39 3 O -1.34572 67.8065 4.43759 -1.2 1 0.00382895 0.00456474 0.00162919 0.00951127 0.00224555 0.00631577 0.00163828 0.0196094 0.00293573 0.00983701 0.00311992 0.0240671 0.00361453 0.0197955 0.00636138 0.0278594 0.00593896 0.0238177 0.00582912 0.0328291
40 3 O 1.20214 63.9081 4.69817 -1.2 1 0.00246642 0.00665023 0.00106266 0.00939235 0.00160407 0.0072684 0.00196097 0.0213918 0.00122205 0.0111982 0.00200769 0.0245006 0.0029225 0.0200948 0.00462529 0.028617 0.00512845 0.0257265 0.00505018 0.0314593
41 3 O 0.589905 67.0369 3.06876 -1.2 1 0.00415541 0.0051525 0.000981857 0.00880996 0.00221803 0.00671197 0.000751842 0.0202978 0.00185794 0.0101693 0.00257083 0.023684 0.00422438 0.0205262 0.00588099 0.0281335 0.00628363 0.0244706 0.00528584 0.0320624
42 3 O 0.978713 67.1773 5.64463 -1.2 1 0.00325832 0.00478815 0.00171095 0.00920479 0.00282348 0.00681234 0.0028618 0.0204147 0.00223912 0.0101089 0.00282934 0.0243485 0.00305441 0.0209769 0.00527801 0.0284952 0.00467251 0.0248103 0.00459898 0.0327385
43 1 Mg -0.143203 64.0387 3.00558 1.2 1 0.00297929 0.00639804 0.00160906 0.00894325 0.00141324 0.00693437 0.00196671 0.0209775 0.00169538 0.0112929 0.00198683 0.0237172 0.00293335 0.0207075 0.00495946 0.0288205 0.00591256 0.025704 0.00515132 0.0310483
44 1 Mg -0.119436 60.6602 4.29002 1.2 1 0.00491333 0.00865731 0.00111532 0.00912582 0.00137031 0.00713399 0.00180135 0.0214566 0.00189688 0.0118513 0.00280993 0.0241583 0.00261908 0.0210611 0.00340152 0.0289598 0.00396542 0.0256155 0.00534074 0.0319452
45 2 Si 1.99986 62.3651 4.49397 2.4 1 0.00303032 0.00722167 0.00139423 0.0101267 0.0017808 0.0068156 0.00179856 0.0206708 0.00156465 0.0104107 0.00207748 0.0232246 0.00213843 0.020938 0.00419449 0.0291097 0.00384246 0.0256183 0.00491054 0.0317453
46 3 O -1.28536 62.5367 4.38458 -1.2 1 0.00261247 0.00659177 0.00159277 0.00988736 0.00138073 0.00644514 0.00179583 0.0201571 0.00207603 0.0108479 0.0027464 0.0237446 0.00250542 0.0204072 0.00485765 0.0291468 0.00453289 0.0254471 0.00569877 0.0319495
47 3 O 0.485106 58.7674 4.53568 -1.2 1 0.0120332 0.0125121 0.00388307 0.00873193 0.00137901 0.0071782 0.00247956 0.0209207 0.0031665 0.012881 0.00231423 0.0241007 0.003462 0.0208184 0.00540985 0.0269962 0.00479633 0.0238107 0.00463363 0.0313819
48 3 O 1.25962 61.7584 3.17926 -1.2 1 0.00361921 0.00785009 0.00120208 0.00935158 0.00184909 0.00673706 0.00186979 0.0211341 0.00167284 0.010912 0.00248964 0.0230026 0.00255246 0.0219283 0.00340929 0.0292646 0.0038801 0.0264643 0.00493093 0.0323336
49 1 Mg -0.287834 63.4534 -0.306421 1.2 1 0.00347643 0.00680836 0.000776502 0.00841338 0.000936089 0.00654706 0.00100925 0.0200414 0.0016155 0.0117107 0.00171507 0.0235766 0.00175348 0.0215405 0.00342823 0.0279988 0.0031369 0.0247448 0.00341486 0.0303964
50 3 O 1.40998 61.5735 5.72546 -1.2 1 0.0027673 0.00774416 0.00158195 0.00992719 0.00168536 0.00704809 0.00175291 0.0208868 0.00197833 0.0114273 0.00216733 0.0237251 0.00267013 0.0208528 0.00419494 0.0287816 0.00457219 0.0247972 0.00549177 0.0311102
51 1 Mg -0.158865 66.5243 1.16164 1.2 1 0.00397199 0.00575917 0.00113759 0.00803224 0.00200078 0.00680768 0.00196627 0.020265 0.00226064 0.0111377 0.00254429 0.0237635 0.00353309 0.0203803 0.005424 0.0281889 0.00538594 0.024115 0.00490056 0.0315065
52 2 Si -2.27159 64.6026 1.54374 2.4 1 0.0031672 0.00593057 0.00107187 0.00885825 0.00152721 0.00632713 0.00256392 0.0197012 0.00181485 0.0106081 0.00306152 0.0228482 0.00390002 0.0210002 0.00611043 0.028568 0.00562877 0.0246592 0.00454869 0.0311404
53 3 O 0.936882 64.6714 1.54355 -1.2 1 0.00352964 0.00570985 0.000999186 0.00882658 0.00158713 0.0060498 0.00264592 0.0188968 0.00257718 0.0106032 0.00216952 0.0230064 0.00315943 0.0211368 0.00409102 0.0284464 0.00475908 0.0246025 0.00407885 0.0313432
54 3 O -1.53171 68.2953 1.11685 -1.2 1 0.00452364 0.0056264 0.00139288 0.00854012 0.00175191 0.00684929 0.00188656 0.0208283 0.00185047 0.0105589 0.00237444 0.0243665 0.00403368 0.0193093 0.00433365 0.0272251 0.00557855 0.0237961 0.00497594 0.0327288
55 3 O -1.62568 65.2457 0.319772 -1.2 1 0.00328964 0.00608884 0.000444185 0.00784762 0.00148518 0.00658822 0.00224012 0.0206105 0.00203402 0.0109843 0.00178904 0.0229095 0.00267784 0.0212009 0.00448365 0.0281807 0.00431611 0.0239502 0.00346398 0.0308419
56 3 O -1.76792 65.177 2.923 -1.2 1 0.00336026 0.0053401 0.0011569 0.0086579 0.00184111 0.00656636 0.00287842 0.0204079 0.00190774 0.0102523 0.00282782 0.0227363 0.00351064 0.0206574 0.00634824 0.0274586 0.00595613 0.0251381 0.00547587 0.0313792
57 1 Mg -2.94411 68.8706 -0.246034 1.2 1 0.00436644 0.00578708 0.00137137 0.00768399 0.00120148 0.00673047 0.00167315 0.0205188 0.00207868 0.0107534 0.00190909 0.0244686 0.00338971 0.0189079 0.00344599 0.0260699 0.00430532 0.0228093 0.00455182 0.0323171
58 1 Mg 2.0236 71.8606 1.35964 1.2 1 0.00441077 0.00656035 0.00149433 0.00823526 0.00180463 0.00612324 0.00140546 0.0213241 0.00312256 0.0108211 0.00194105 0.0254415 0.00421108 0.0190866 0.00440735 0.0264766 0.006657 0.0239193 0.00509508 0.0354651
59 2 Si -0.81859 69.7175 1.339 2.4 1 0.00502158 0.00540355 0.00175437 0.00878011 0.00191881 0.00651185 0.00195799 0.0202583 0.00222724 0.00999294 0.00341794 0.0239934 0.0048494 0.0190457 0.00632987 0.0258007 0.00747797 0.0232593 0.00661447 0.0337294
60 3 O 0.72173 69.5308 1.22787 -1.2 1 0.00496532 0.00551024 0.00159669 0.00819324 0.00202715 0.00664729 0.0016946 0.0204642 0.00246136 0.010133 0.00248126 0.0238787 0.00453514 0.0187634 0.00443232 0.0258884 0.00656087 0.0226145 0.00544796 0.0327689
61 3 O -1.60749 73.5408 1.17994 -1.2 1 0.00321731 0.00629365 0.00150566 0.00886301 0.00171427 0.00614176 0.00154861 0.021725 0.00204012 0.0108222 0.00234671 0.0258043 0.00417439 0.0186532 0.00535157 0.0265913 0.00630724 0.0241383 0.00493023 0.0363683
62 3 O -1.57221 70.5596 0.230302 -1.2 1 0.00490053 0.00618365 0.001458 0.00821929 0.00133174 0.00669348 0.00217102 0.021128 0.00257763 0.0103336 0.00219394 0.023651 0.00377397 0.0195405 0.00459209 0.0261076 0.00626009 0.0231078 0.00507193 0.0343888
63 1 Mg -2.29166 79.4686 3.09758 1.2 1 0.000830402 0.0057042 0.00136867 0.00953624 0.00191256 0.00543721 0.00170704 0.0214514 0.00207568 0.0112441 0.00226525 0.0250719 0.00342083 0.0192158 0.00498064 0.027306 0.00575999 0.0250028 0.00448893 0.0356364
64 3 O -1.37238 70.2813 2.74715 -1.2 1 0.00396571 0.00609855 0.0019744 0.0087437 0.00236774 0.0061016 0.00330447 0.0207818 0.0026866 0.0103854 0.00301655 0.0242222 0.00454402 0.0194679 0.00636232 0.0269728 0.007048 0.0242627 0.00632677 0.0338549
65 1 Mg -2.46158 76.4781 4.35896 1.2 1 0.00217705 0.00528596 0.00122429 0.00872487 0.00203974 0.00543212 0.00159836 0.0205168 0.00238617 0.0118006 0.00213926 0.0251926 0.00313956 0.0201215 0.00438131 0.0286808 0.00555145 0.0253795 0.00465548 0.0359017
66 2 Si 0.158597 78.3179 4.45329 2.4 1 0.000796798 0.0052919 0.00135236 0.00963078 0.00308807 0.00505378 0.00186544 0.0202088 0.00288213 0.0115837 0.00267233 0.0244323 0.00382065 0.0197716 0.00386335 0.0282126 0.00441411 0.02519 0.00450407 0.0352434
67 3 O -1.41683 78.5073 4.60178 -1.2 1 0.000470541 0.00540755 0.00157139 0.00949522 0.00310995 0.00497333 0.00205519 0.0202393 0.0030097 0.0115734 0.00219652 0.0247363 0.00320391 0.0197239 0.00428923 0.0285021 0.00479722 0.0253807 0.00510449 0.035542
68 3 O 1.17533 74.8533 4.35564 -1.2 1 0.0026027 0.00533186 0.000834449 0.0091397 0.00243331 0.00575451 0.00220967 0.0207783 0.00312782 0.0115451 0.00253524 0.0258027 0.00397679 0.0194027 0.00519839 0.0283248 0.0050361 0.0253827 0.00510976 0.0354586
69 3 O 0.843075 77.5932 3.39498 -1.2 1 0.00212464 0.00579356 0.00140623 0.00905148 0.00279848 0.00525883 0.00166064 0.0208258 0.00303747 0.0111648 0.00224207 0.0250092 0.00378593 0.0200335 0.00479301 0.0283052 0.00534144 0.0250822 0.00511017 0.0361835
70 3 O 0.790683 77.9824 6.03932 -1.2 1 0.0010131 0.00594604 0.00165134 0.00890871 0.00240594 0.00509188 0.00161438 0.0200036 0.00232994 0.012288 0.00266328 0.024705 0.00300005 0.020684 0.00324127 0.0295815 0.00424224 0.0263555 0.00459195 0.0346485
71 1 Mg -0.167749 74.2933 2.77155 1.2 1 0.00284048 0.00560399 0.0010143 0.00889093 0.00198117 0.00621193 0.00240924 0.0204849 0.00267006 0.0108707 0.00211555 0.0260658 0.00445417 0.0188936 0.00596587 0.0272316 0.0060563 0.0244345 0.0050037 0.0357356
72 1 Mg -0.239509 71.2506 4.2183 1.2 1 0.00370138 0.00671375 0.00144256 0.00930354 0.00227202 0.00658916 0.00120389 0.0210807 0.00240565 0.0107702 0.00282968 0.0249444 0.00462121 0.0199593 0.00532572 0.0284783 0.00693473 0.0254378 0.00634633 0.0343737
73 2 Si 1.89931 73.2385 4.4305 2.4 1 0.00322619 0.0056845 0.000963114 0.00985642 0.00300938 0.00575328 0.00244314 0.0197064 0.00269117 0.0109285 0.00266347 0.0247659 0.00451217 0.0199955 0.00447208 0.0281966 0.00560642 0.0255649 0.00570768 0.0362065
74 3 O -1.16862 73.4282 4.31518 -1.2 1 0.00293584 0.00544929 0.000854486 0.00952132 0.00261035 0.00577159 0.00196831 0.0196937 0.0030029 0.0107805 0.00252892 0.0254956 0.00419499 0.0192378 0.00449771 0.02805 0.00583865 0.0249168 0.00561409 0.0353362
75 3 O 0.860399 69.2105 4.11395 -1.2 1 0.00403826 0.0056826 0.00189639 0.00956034 0.00229449 0.00653977 0.00153454 0.020602 0.00187279 0.010178 0.00294033 0.0248431 0.00409849 0.0191736 0.00577526 0.0274536 0.00596033 0.024939 0.00577225 0.0331512
76 3 O 1.19376 72.5703 3.07914 -1.2 1 0.00384278 0.0062465 0.00162532 0.00916985 0.00324097 0.00607018 0.00210846 0.0208232 0.00234829 0.0106424 0.00271661 0.0245944 0.00493324 0.0196806 0.00488623 0.0273451 0.00621242 0.0249573 0.00576972 0.0357857
77 1 Mg -0.327691 74.0648 -0.258183 1.2 1 0.00361216 0.00624786 0.00129406 0.00886782 0.00179076 0.00640086 0.0012772 0.0219301 0.0022846 0.0108225 0.00141729 0.0265337 0.00317906 0.0180151 0.00343867 0.0266149 0.00545834 0.0238999 0.00430441 0.0374658
78 3 O 1.35888 72.5816 5.81879 -1.2 1 0.00280731 0.00634522 0.000821577 0.00929725 0.00205229 0.00614248 0.00220325 0.0204808 0.00219509 0.0116777 0.00287894 0.0254831 0.00346794 0.0206167 0.00385625 0.0293511 0.00474015 0.0263538 0.00589832 0.0353649
79 1 Mg -0.145597 77.2133 1.32953 1.2 1 0.00274602 0.00564016 0.00168885 0.0088844 0.00191622 0.00574092 0.00226998 0.0221876 0.0032522 0.0107877 0.00267429 0.0262585 0.00363908 0.0191073 0.00581973 0.0283654 0.00567073 0.0249202 0.00506441 0.0383098
80 2 Si -2.23294 75.1147 1.32234 2.4 1 0.00223158 0.00585501 0.00113785 0.00982581 0.00183792 0.00564779 0.00181324 0.0214443 0.00275909 0.0105901 0.00313473 0.0252956 0.00445872 0.0190426 0.00628849 0.026388 0.00753344 0.0240713 0.00562993 0.0378126
81 3 O 0.953104 75.076 1.34091 -1.2 1 0.00260584 0.00542724 0.00139503 0.00951883 0.00192623 0.00570512 0.00188611 0.0205591 0.00280106 0.0105214 0.00205874 0.0263567 0.00341575 0.0189228 0.00489556 0.0270821 0.00611446 0.0244209 0.00472937 0.0377396
82 3 O -1.03034 78.9944 1.50347 -1.2 1 0.00177396 0.00575565 0.00106705 0.00935672 0.00175554 0.00589779 0.00176554 0.0222323 0.00163457 0.011206 0.00260766 0.0260944 0.00356552 0.0186616 0.00531127 0.0276562 0.00609302 0.0249357 0.00489566 0.0376007
83 3 O -1.57159 75.9536 0.049785 -1.2 1 0.00342882 0.00600168 0.00126698 0.00880071 0.00170244 0.00583847 0.00192778 0.0226446 0.00277974 0.0107413 0.00206247 0.0261696 0.0031274 0.0189454 0.00503868 0.0276591 0.00571851 0.0247088 0.00462234 0.0387383
84 3 O -1.50229 75.8418 2.63112 -1.2 1 0.00240373 0.00511599 0.00130583 0.00877339 0.00219243 0.00567212 0.00298907 0.0211072 0.00317303 0.0111104 0.00266586 0.0254884 0.0044354 0.0195795 0.00751731 0.0279737 0.00714074 0.0255062 0.00528248 0.03685
85 1 Mg -2.53888 79.4299 0.152571 1.2 1 0.00342293 0.00570892 0.0011369 0.00892152 0.00186774 0.00574134 0.00189761 0.0224889 0.00226766 0.0108253 0.00202752 0.0261582 0.00308155 0.0183011 0.00481396 0.0283838 0.00530102 0.0252604 0.0050265 0.0384308
86 1 Mg 2.15721 82.5913 1.54656 1.2 1 0.000315141 0.00524739 0.000963773 0.00908277 0.00207675 0.0054821 0.00198857 0.0223633 0.00205981 0.0118737 0.00275605 0.0250479 0.00368383 0.0190202 0.00545322 0.027803 0.00564368 0.025219 0.00507959 0.0369758
87 2 Si -0.471768 80.5412 1.58952 2.4 1 0.00201598 0.00514384 0.00131011 0.00975721 0.00212379 0.00526208 0.00198332 0.0216791 0.00194183 0.0109641 0.00290136 0.0249479 0.00393493 0.0189919 0.00676376 0.0273133 0.00653761 0.025142 0.00584101 0.0375596
88 3 O 1.02621 80.3547 1.66898 -1.2 1 0.00164001 0.00548073 0.00111708 0.0097102 0.00182501 0.00521987 0.00115591 0.021397 0.00183091 0.0112017 0.00215914 0.0252124 0.00320313 0.0186873 0.00443629 0.0269594 0.00509392 0.0247758 0.00469044 0.0374641
89 3 O -1.59639 84.5448 1.6517 -1.2 1 0.00247274 0.00486583 0.00145002 0.00924349 0.00157461 0.00581224 0.00193427 0.0219909 0.00176793 0.0123886 0.00307649 0.0244298 0.00463939 0.0188723 0.00562482 0.0268097 0.00575729 0.0250663 0.00487794 0.035867
90 3 O -1.30558 81.4649 0.54876 -1.2 1 0.00211499 0.00556905 0.00132197 0.00947193 0.00180183 0.00522908 0.0019651 0.0220905 0.00250849 0.0110476 0.00275612 0.0250246 0.00433421 0.0187161 0.00559175 0.0280553 0.00580437 0.0253611 0.00534195 0.0377332
91 1 Mg -2.46811 90.1233 3.34202 1.2 1 0.00443122 0.00647785 0.00092121 0.00805183 0.00104517 0.00660773 0.00100744 0.0216191 0.00157733 0.0123398 0.00213848 0.0243601 0.00314912 0.0194172 0.00334663 0.0277076 0.0033056 0.0237672 0.00408564 0.0362933
92 3 O -1.28764 81.0834 3.0532 -1.2 1 0.000911252 0.00591847 0.00116422 0.00917757 0.00224706 0.00539615 0.00318812 0.0216541 0.00263659 0.0120691 0.00311929 0.0245204 0.0044329 0.0197109 0.00684831 0.0270823 0.00657206 0.0254146 0.00536315 0.0353603
93 1 Mg -2.58384 87.0823 4.54301 1.2 1 0.00536899 0.0067235 0.00150716 0.00763178 0.000946554 0.0064189 0.00122433 0.0214775 0.00143309 0.0127021 0.00227365 0.0237161 0.00285867 0.0202467 0.00402768 0.0273325 0.00445439 0.0241396 0.00327243 0.0348562
94 2 Si 0.218235 89.141 4.90786 2.4 1 0.00480473 0.00718097 0.000906294 0.00830664 0.00171972 0.00629219 0.00148953 0.0205957 0.001629 0.0122932 0.00225741 0.0229578 0.00321202 0.020307 0.004462 0.0278112 0.00360466 0.0229508 0.00323102 0.0363721
95 3 O -1.38555 89.4544 4.93517 -1.2 1 0.00454125 0.00693748 0.00105856 0.00808938 0.00157619 0.0061195 0.00129574 0.0210429 0.00230306 0.0121568 0.00260821 0.0237481 0.00283938 0.0199699 0.00380036 0.0279668 0.00399589 0.0231688 0.0041338 0.0363527
96 3 O 1.12863 85.2473 4.49718 -1.2 1 0.00455337 0.0062839 0.00150873 0.00830248 0.00107902 0.00612471 0.00102927 0.0205988 0.00118057 0.0127029 0.0022941 0.023746 0.00278785 0.0193659 0.00458626 0.0267715 0.00484372 0.0240923 0.00403934 0.0343698
97 3 O 0.641978 88.1977 3.64272 -1.2 1 0.00497072 0.00659164 0.00134811 0.00772584 0.00113177 0.00646332 0.00111374 0.021181 0.00173724 0.0119928 0.00247053 0.0234124 0.00358524 0.020182 0.00476893 0.028057 0.00467677 0.0233992 0.00403175 0.0357155
98 3 O 1.04443 88.64 6.22593 -1.2 1 0.00503788 0.00723135 0.000898579 0.00739828 0.00120206 0.00662328 0.00121449 0.0210224 0.00180868 0.0123345 0.00188908 0.0231484 0.00244201 0.0206852 0.00354481 0.0277553 0.00337222 0.0230356 0.00284839 0.036303
99 1 Mg -0.359474 85.0254 3.21146 1.2 1 0.00354495 0.0054584 0.00170302 0.00851754 0.00162661 0.00634178 0.00126654 0.0212312 0.00162573 0.0127498 0.00227089 0.0243476 0.00442439 0.0188308 0.00531334 0.0269617 0.00582831 0.0246575 0.00473617 0.0343069
100 1 Mg -0.159417 81.9039 4.67314 1.2 1 0.00263927 0.00599578 0.00122427 0.00843222 0.0012263 0.00529005 0.00181911 0.0208101 0.00192663 0.0127412 0.00279289 0.0244516 0.00409585 0.0192524 0.00492713 0.0274013 0.00591207 0.0253287 0.00563463 0.0338748
101 2 Si 1.82604 83.6712 4.50787 2.4 1 0.00357624 0.00544294 0.00160801 0.00915629 0.00211679 0.00546341 0.001837 0.0197863 0.00204448 0.0121647 0.00244958 0.0230611 0.00402976 0.0189331 0.00511767 0.0255849 0.00572039 0.0242221 0.00476919 0.0332366
102 3 O -1.38877 83.9783 4.63091 -1.2 1 0.00392703 0.00562326 0.00164171 0.00846961 0.00155401 0.00557152 0.00164085 0.0201159 0.00214023 0.0121276 0.00247525 0.0233101 0.00377392 0.0192245 0.00511764 0.0267992 0.00577211 0.0242502 0.00492799 0.0339227
103 3 O 0.873656 79.8798 4.52243 -1.2 1 0.000921624 0.00582955 0.00167829 0.00962008 0.0017948 0.00533872 0.00187285 0.0206867 0.00266154 0.0120101 0.00244134 0.024635 0.00358317 0.019482 0.00486048 0.0273583 0.00468861 0.0253225 0.00528275 0.0346852
104 3 O 1.12322 82.8976 3.398 -1.2 1 0.00211588 0.00543882 0.00152453 0.00868233 0.00200256 0.00569844 0.00171386 0.0208193 0.00265886 0.0114041 0.0023753 0.0232542 0.00356285 0.0193329 0.00544757 0.0269644 0.00591535 0.0242395 0.00539665 0.0337809
105 1 Mg -0.376149 84.9547 0.0956174 1.2 1 0.00204067 0.00471311 0.000973689 0.00940019 0.00181866 0.00540487 0.00135861 0.0228364 0.0018294 0.0117464 0.00296733 0.0254162 0.0036652 0.0183687 0.00491888 0.02804 0.00536671 0.0262072 0.00545779 0.0378241
106 3 O 1.48563 83.1935 5.93464 -1.2 1 0.00424833 0.00594572 0.00174462 0.00802502 0.0013961 0.00550857 0.00126118 0.019958 0.00188419 0.0124011 0.00250642 0.0230625 0.00324535 0.0198894 0.00397538 0.0271984 0.00505487 0.0246792 0.00446389 0.0325819
107 1 Mg -0.242554 87.8217 1.76104 1.2 1 0.00475102 0.00607556 0.00158224 0.00824926 0.00164773 0.0062371 0.00152291 0.0217881 0.0018358 0.0127425 0.00263586 0.0251422 0.00397037 0.0193065 0.00542554 0.0275229 0.00546149 0.0245204 0.00441887 0.0362845
108 2 Si -2.48761 85.8279 1.43385 2.4 1 0.00393723 0.00495982 0.0014367 0.00956252 0.00194788 0.00545318 0.00177665 0.0214861 0.00176276 0.011435 0.00314765 0.0241677 0.00470374 0.019005 0.00649959 0.0269183 0.00660037 0.0247904 0.00493242 0.0369135
109 3 O 0.770533 85.934 1.46101 -1.2 1 0.00382214 0.0051914 0.00140045 0.00924925 0.0020132 0.0053231 0.00181143 0.0213818 0.00239044 0.011659 0.00229717 0.0243651 0.00389259 0.0190353 0.00511344 0.0273418 0.00587314 0.02491 0.004844 0.0367992
110 3 O -1.06394 89.757 1.92234 -1.2 1 0.00427459 0.00604979 0.00143882 0.00816715 0.00142702 0.00641946 0.00133863 0.0221577 0.00153402 0.0127738 0.00231312 0.0249735 0.00366 0.019279 0.00368737 0.0274897 0.00391247 0.0241768 0.0045451 0.0366343
111 3 O -1.75451 86.4821 0.159017 -1.2 1 0.00293786 0.00534415 0.0011085 0.009038 0.0019588 0.00544099 0.00223045 0.0229768 0.00177783 0.0117014 0.00300222 0.0251743 0.00414865 0.0192314 0.00611103 0.0282501 0.00608536 0.0261648 0.00557188 0.0389046
112 3 O -1.65684 86.5526 2.94146 -1.2 1 0.00460479 0.00545677 0.00169027 0.0081872 0.00177082 0.00636842 0.00211048 0.0219673 0.00192787 0.0122986 0.002542 0.0238132 0.00410625 0.019593 0.00604693 0.0271898 0.00534561 0.0244546 0.00367461 0.034898
113 1 Mg -2.69876 90.3433 0.359711 1.2 1 0.00317353 0.00559775 0.00148803 0.00790821 0.00147817 0.00666605 0.00142376 0.0220176 0.00106703 0.0121356 0.00205261 0.0255335 0.00358721 0.0185191 0.00474644 0.0280518 0.00464079 0.0247847 0.00547053 0.0365345
114 1 Mg 2.10473 93.2886 1.96026 1.2 1 0.00254073 0.00405825 0.00185297 0.00757625 0.00124402 0.0071311 0.00206354 0.0210914 0.00230938 0.0115398 0.00320923 0.0247046 0.00348717 0.019246 0.00326432 0.0288491 0.00390675 0.0228874 0.00628183 0.0355811
115 2 Si -0.505967 91.2941 1.84891 2.4 1 0.00352842 0.00527617 0.00145506 0.00843261 0.00198366 0.00652655 0.00226652 0.0211059 0.00197316 0.0119548 0.00323947 0.0238832 0.00393076 0.0197874 0.00507822 0.0279133 0.00501181 0.023168 0.00654221 0.0364902
116 3 O 1.08235 91.2786 1.8354 -1.2 1 0.00363522 0.00479043 0.00160722 0.00808473 0.00166017 0.00630575 0.00196326 0.0207884 0.00255655 0.0116296 0.00225667 0.0240579 0.00440992 0.0189974 0.00428547 0.0280286 0.00454114 0.0232798 0.005694 0.0366654
117 3 O -1.51069 95.2736 1.97876 -1.2 1 0.00277037 0.00390292 0.00190222 0.00781367 0.00126406 0.00757211 0.00190037 0.0211566 0.00157656 0.011043 0.00298302 0.0249972 0.00339962 0.0193953 0.00369151 0.029943 0.00408916 0.0230763 0.00554832 0.0359455
118 3 O -1.16323 91.8524 0.49481 -1.2 1 0.00305034 0.00499826 0.00193898 0.00747125 0.00210035 0.00666262 0.0032397 0.0216956 0.00143933 0.011339 0.0032259 0.0242597 0.00380925 0.019593 0.00454289 0.0293226 0.0041478 0.0248418 0.00609591 0.03666
119 1 Mg -2.39524 100.974 2.87016 1.2 1 0.00318947 0.00466525 0.00106611 0.00780167 0.00125337 0.00697778 0.00120573 0.021465 0.00171604 0.00962592 0.00229347 0.0269415 0.00248047 0.0194866 0.00382497 0.0298715 0.00330397 0.0237904 0.00396359 0.037513