ITEM: TIMESTEP
44700
ITEM: NUMBER OF ATOMS
5600
ITEM: BOX BOUNDS xy xz yz pp pp pp
0	7.1235	0
0	201.985	2.3745
0	119.584	0
ITEM: ATOMS id type element xu yu zu q Q_1 Q_2 Q_3 Q_4 Q_5 Q_6 Q_7 Q_8 Q_9 Q_10 Q_11 Q_12 Q_13 Q_14 Q_15 Q_16 Q_17 Q_18 Q_19 Q_20 Q_21
1 1 Mg -1.46161 49.198 -1.04595 1.2 1 0.219278 0.0720368 0.0146498 0.0202661 0.00450599 0.0111399 0.00330618 0.0158528 0.00451561 0.0220516 0.00520966 0.0193355 0.00706197 0.0221574 0.00560051 0.021812 0.00705472 0.0194517 0.00818852 0.0251855
2 1 Mg 2.97946 50.6042 2.46564 1.2 1 0.187366 0.0657279 0.00781509 0.0177549 0.00213024 0.00927965 0.00267198 0.0158035 0.00381543 0.0203331 0.00401418 0.020437 0.00491035 0.0203181 0.00482566 0.021804 0.00607949 0.0174907 0.00933702 0.0254527
3 2 Si 0.976049 50.4375 0.360285 2.4 1 0.194384 0.0669472 0.0116439 0.0178456 0.00382391 0.00905609 0.00291461 0.0171075 0.00485012 0.0210804 0.00413872 0.0199569 0.00558745 0.0210841 0.00462976 0.0208894 0.00635081 0.0179073 0.00765171 0.0249184
4 3 O 2.29736 49.7028 0.67664 -1.2 1 0.212979 0.0705886 0.0138405 0.0199851 0.0036168 0.0100339 0.00295985 0.0160557 0.00494528 0.0215018 0.0042486 0.0201957 0.00652706 0.0220087 0.00610685 0.0218006 0.00669654 0.0182954 0.00782005 0.0243224
5 3 O -1.17984 53.3073 1.97099 -1.2 1 0.128565 0.0497035 0.0022897 0.0121857 0.00180712 0.00763532 0.00211477 0.0155042 0.00287616 0.0167579 0.00309217 0.0215594 0.00388444 0.0180699 0.00355047 0.0208617 0.00503405 0.0170423 0.0076521 0.0273
6 3 O 0.445222 49.6146 -0.835065 -1.2 1 0.213244 0.0697741 0.0152688 0.0196778 0.00469067 0.0103543 0.00413284 0.0162222 0.00393077 0.0201872 0.00473656 0.0193581 0.00715586 0.0215347 0.0056164 0.0214163 0.00618067 0.0190903 0.00786956 0.0242981
7 1 Mg -2.55161 58.9185 3.29691 1.2 1 0.0146887 0.0135986 0.00528622 0.00679319 0.00162213 0.00579332 0.0011154 0.0194237 0.00281785 0.0101064 0.00195437 0.0246278 0.00242442 0.0184774 0.00398681 0.027531 0.00433436 0.0235195 0.00448446 0.0381387
8 3 O 0.0349016 50.4409 1.65747 -1.2 1 0.187215 0.0665107 0.00904385 0.0175395 0.00262313 0.00875775 0.00271305 0.0164598 0.00468252 0.0208226 0.00438438 0.0201792 0.0051024 0.0217072 0.0049743 0.0222335 0.00636199 0.0177542 0.0079355 0.0244582
9 1 Mg -2.34947 56.2148 4.72625 1.2 1 0.0706479 0.032892 0.00452423 0.00803873 0.00183854 0.00523375 0.00175606 0.017361 0.00180133 0.0130366 0.00273213 0.0233667 0.00245564 0.0180052 0.00344447 0.0246112 0.00374711 0.0198253 0.0059193 0.0322544
10 2 Si 0.225985 58.1679 5.00967 2.4 1 0.0234339 0.0182895 0.00657058 0.00659075 0.00178854 0.00554194 0.00275643 0.0199306 0.00285115 0.00971261 0.00328392 0.0245726 0.00284349 0.0192198 0.00397492 0.0267725 0.00420301 0.0226041 0.00492642 0.0380328
11 3 O -1.29689 58.1957 4.72097 -1.2 1 0.0240822 0.0184204 0.00667356 0.00650934 0.00199682 0.00507972 0.00211769 0.0192542 0.003285 0.00983998 0.00247442 0.0248455 0.00273728 0.0186039 0.00394638 0.0272871 0.00409628 0.0223049 0.00443655 0.0375883
12 3 O 1.5719 53.7817 5.11351 -1.2 1 0.121123 0.0459089 0.00166657 0.011878 0.00158639 0.00715162 0.00293444 0.016731 0.00211425 0.0161383 0.00348938 0.0222321 0.0030899 0.018738 0.00391531 0.0210784 0.00386575 0.0163379 0.00717329 0.0286806
13 3 O 0.977744 57.4043 3.68856 -1.2 1 0.0367537 0.0231704 0.00708131 0.00713939 0.00185867 0.0051905 0.00137086 0.018523 0.00287229 0.0106631 0.00254569 0.0235606 0.00287177 0.0183466 0.0044271 0.0257462 0.00434326 0.0214907 0.00506971 0.0357828
14 3 O 1.00935 57.6346 6.15138 -1.2 1 0.0315534 0.0210035 0.0077018 0.00575648 0.00193074 0.00533701 0.00195265 0.0198296 0.00234886 0.00977473 0.00297716 0.0248671 0.00278791 0.0182942 0.00390564 0.0277409 0.0040545 0.0223928 0.00541906 0.0376892
15 1 Mg 0.255538 53.1021 3.21731 1.2 1 0.129448 0.0514034 0.0014032 0.0130366 0.0017924 0.00779909 0.00274836 0.0159789 0.00293119 0.0172936 0.00310357 0.0220262 0.00308773 0.018673 0.00388338 0.0208473 0.00414175 0.0165443 0.00805513 0.027224
16 1 Mg 0.441752 49.1103 3.07994 1.2 1 0.215676 0.072092 0.0126288 0.0214498 0.00321231 0.0105758 0.00297957 0.0174911 0.00541298 0.0223977 0.00522469 0.0204323 0.00594094 0.0226214 0.00624036 0.0228436 0.00732107 0.0193181 0.010014 0.0255482
17 2 Si 2.29443 52.3163 4.92571 2.4 1 0.161441 0.0565006 0.00541851 0.0152287 0.00232087 0.00895133 0.00331311 0.0162753 0.00320588 0.0183935 0.00398043 0.0219422 0.00389823 0.0192572 0.00471238 0.0210748 0.00470319 0.0158776 0.00879239 0.0265216
18 3 O -0.850563 52.5333 4.84426 -1.2 1 0.145944 0.053092 0.00279004 0.0133927 0.00213402 0.00721504 0.00322646 0.0163647 0.00329083 0.016948 0.00357086 0.0222355 0.00331163 0.0200672 0.00370836 0.0210925 0.00484793 0.0156486 0.00759144 0.0272115
19 3 O 2.30297 48.5961 3.49792 -1.2 1 0.23817 0.0762351 0.0178762 0.0249404 0.0035016 0.0131195 0.00339216 0.0167824 0.00529497 0.0240606 0.00527093 0.022271 0.00786575 0.0216519 0.00710688 0.0215954 0.00789357 0.0202657 0.0103467 0.0259567
20 3 O 1.75448 51.8797 3.52912 -1.2 1 0.156001 0.0564916 0.00360735 0.0144272 0.00180148 0.00845498 0.00323002 0.0159921 0.00276893 0.0183814 0.003244 0.0212916 0.00364503 0.0196334 0.00375243 0.0207237 0.00411289 0.0160898 0.00901009 0.0260995
21 1 Mg -0.0923408 53.5715 0.370475 1.2 1 0.121405 0.0488117 0.00133603 0.0125319 0.00226283 0.00759668 0.00220232 0.0155546 0.00270985 0.0168109 0.00263809 0.0212562 0.00362802 0.0178346 0.00306555 0.0205435 0.0048679 0.0172233 0.00657355 0.0266731
22 3 O 1.76655 51.3033 6.07934 -1.2 1 0.175443 0.0606886 0.00711782 0.0168385 0.0025833 0.00917432 0.00319654 0.0176793 0.00340413 0.0199878 0.0043232 0.0228289 0.00339785 0.0210615 0.0057024 0.0216209 0.00418592 0.0152364 0.0088696 0.0260962
23 1 Mg 0.0852212 56.5743 2.1259 1.2 1 0.0514953 0.0289823 0.00614343 0.00771168 0.00180367 0.00562362 0.00132936 0.0174064 0.00391591 0.0127217 0.00276671 0.0232803 0.00346448 0.0183347 0.00489639 0.0238261 0.00529625 0.0192226 0.00527441 0.0331031
24 2 Si -1.9879 54.6824 1.97379 2.4 1 0.100182 0.0436165 0.00267109 0.0105529 0.00201638 0.00682041 0.00181301 0.0154719 0.00340801 0.0146945 0.00323979 0.0217236 0.00277996 0.0177611 0.00392164 0.021407 0.00480308 0.0168932 0.00677975 0.0290192
25 3 O 1.17136 54.6718 2.14343 -1.2 1 0.100272 0.0422308 0.00167002 0.010377 0.00207822 0.00687628 0.00182667 0.0152413 0.0025579 0.0146943 0.00306751 0.0215378 0.00275445 0.0170792 0.00417075 0.0213071 0.00353 0.0168162 0.00649146 0.0285268
26 3 O -1.25011 58.3815 1.65838 -1.2 1 0.021825 0.0177309 0.00729383 0.00664732 0.0014797 0.00563043 0.00149853 0.0195373 0.00334836 0.0106002 0.00268019 0.0242322 0.00282946 0.017759 0.0045621 0.0265704 0.00544547 0.0229535 0.00582558 0.03718
27 3 O -1.34784 55.317 0.63413 -1.2 1 0.0816639 0.0386167 0.00390986 0.00935413 0.00277334 0.0063785 0.00211264 0.0160931 0.00291434 0.0138476 0.00249698 0.022013 0.00299469 0.0178918 0.00392725 0.0226594 0.00462267 0.0183585 0.00644131 0.0300966
28 3 O -1.39954 55.417 3.20273 -1.2 1 0.084653 0.0370825 0.0028205 0.00830863 0.00149631 0.0062717 0.00151402 0.0171922 0.00254459 0.0143422 0.00266576 0.0226215 0.00231707 0.0174479 0.00348353 0.0219608 0.00465128 0.0182907 0.00636936 0.0309313
29 1 Mg -2.68181 58.8887 0.378824 1.2 1 0.0152366 0.0145613 0.00614489 0.00666861 0.0012729 0.00646615 0.00182929 0.0198034 0.00253235 0.0104194 0.00185841 0.0246739 0.00334723 0.0178757 0.00485653 0.0273387 0.00417113 0.0239119 0.00540421 0.0379606
30 1 Mg 2.1671 61.8888 1.51316 1.2 1 0.00340194 0.00631414 0.00189373 0.00789139 0.00151117 0.00579586 0.00135766 0.0216702 0.00284615 0.00884487 0.00259167 0.026408 0.00301647 0.0194066 0.00340227 0.030514 0.00346909 0.0257925 0.00317968 0.0425163
31 2 Si -0.471474 59.743 1.81697 2.4 1 0.0109048 0.0112467 0.00452395 0.00780794 0.00154722 0.00626388 0.000999611 0.0197547 0.00163163 0.0096516 0.00247011 0.0240142 0.0024817 0.0192045 0.00458491 0.027919 0.00429351 0.0242311 0.00456793 0.0402353
32 3 O 1.02532 59.7503 1.79236 -1.2 1 0.00936998 0.0106913 0.00430975 0.00747921 0.00158438 0.00590158 0.00112218 0.0197496 0.00244088 0.00903781 0.00211267 0.0245535 0.00271908 0.0186153 0.00448118 0.0288415 0.00407076 0.0243494 0.0045541 0.0406419
33 3 O -1.49935 63.7251 1.64281 -1.2 1 0.00306622 0.0045443 0.000946162 0.00787768 0.00104467 0.00623961 0.000966009 0.0219426 0.00156962 0.00866757 0.00167318 0.0264481 0.00241279 0.0188933 0.00310504 0.0308632 0.00270816 0.0256916 0.00272677 0.0431511
34 3 O -1.2069 60.6257 0.537729 -1.2 1 0.00602963 0.00869001 0.00276002 0.00730852 0.0013486 0.00612907 0.00152541 0.0207376 0.00286167 0.00876804 0.00182065 0.0247968 0.00227146 0.0196269 0.00389678 0.0301027 0.00367603 0.0249885 0.00375511 0.0410169
35 1 Mg -2.22717 69.7346 3.19421 1.2 1 0.00108013 0.0043594 0.00236555 0.0081432 0.00126635 0.00629657 0.00134596 0.0235064 0.00141347 0.00974639 0.00152459 0.0269406 0.00237168 0.0196407 0.00279194 0.0315036 0.00288027 0.027307 0.00268226 0.0451827
36 3 O -1.09707 60.4933 3.06278 -1.2 1 0.00543482 0.00859912 0.00282641 0.00708417 0.00205487 0.00577672 0.00216557 0.021094 0.00178203 0.00933376 0.00243743 0.0246413 0.00266639 0.0199876 0.00392349 0.030063 0.00368331 0.0254832 0.00366363 0.0419747
37 1 Mg -2.29577 66.3593 4.55813 1.2 1 0.00169618 0.00352766 0.00111585 0.00740429 0.00133853 0.00527263 0.00128419 0.022919 0.00189384 0.0093072 0.00156657 0.0267111 0.00249376 0.0201763 0.0033058 0.0314411 0.00339942 0.0266088 0.0039749 0.0452627
38 2 Si 0.453032 68.2705 4.65159 2.4 1 0.000768264 0.00361341 0.00165489 0.00854997 0.00164938 0.00582725 0.00201436 0.0225299 0.00172267 0.00917946 0.00235893 0.0261258 0.00259128 0.0203391 0.0039367 0.0313887 0.00312699 0.0265861 0.00276576 0.046209
39 3 O -1.13424 68.3173 4.65627 -1.2 1 0.000336939 0.00347984 0.00177536 0.00834798 0.00170619 0.00561106 0.00162397 0.0223336 0.00285729 0.00923469 0.00211349 0.0264196 0.00287145 0.0199647 0.00387754 0.0317411 0.00377601 0.0263064 0.00400407 0.0463367
40 3 O 1.49585 64.5738 4.4871 -1.2 1 0.00285031 0.0042436 0.00138538 0.00777955 0.00103312 0.00621062 0.00145505 0.0225319 0.00220911 0.0089141 0.00170522 0.026384 0.00277284 0.0194742 0.00292669 0.0303243 0.00306888 0.0263546 0.00360026 0.0449167
41 3 O 1.02835 67.4722 3.47616 -1.2 1 0.000539566 0.00367744 0.000721142 0.00767358 0.00138206 0.00542686 0.00155523 0.0227003 0.00145341 0.00920423 0.00113787 0.0258132 0.00246565 0.0203287 0.00309479 0.032556 0.00265722 0.027196 0.00324016 0.0447076
42 3 O 1.04795 67.5371 5.96181 -1.2 1 0.00203256 0.00391789 0.00163289 0.00778043 0.00138319 0.00562782 0.00138602 0.023101 0.00211221 0.00938183 0.00134905 0.0266165 0.00231737 0.0205636 0.0030749 0.0315501 0.0038517 0.02679 0.00434103 0.0464013
43 1 Mg -0.0797126 64.3159 3.12224 1.2 1 0.00257824 0.00438475 0.000870583 0.00716647 0.0013281 0.005931 0.00101317 0.0225313 0.00148137 0.00943219 0.00122632 0.0268516 0.00186415 0.0191322 0.00213988 0.0308972 0.00232658 0.0266388 0.00229237 0.043521
44 1 Mg -0.0275594 61.3171 4.71864 1.2 1 0.00370682 0.00687692 0.00231685 0.00679036 0.00151328 0.00558535 0.00142553 0.021172 0.0017532 0.00909553 0.00232437 0.0254725 0.00320304 0.0196593 0.00302125 0.0306299 0.00373941 0.0253623 0.00411626 0.0424012
45 2 Si 2.09892 63.0163 4.48794 2.4 1 0.00314162 0.00505213 0.00194577 0.00832561 0.00199998 0.0058995 0.00160123 0.0211213 0.00164394 0.00852393 0.00193791 0.0251843 0.00230994 0.0194132 0.00265509 0.0308305 0.00249367 0.0264001 0.00304484 0.0446554
46 3 O -1.14374 63.1701 4.66119 -1.2 1 0.00335554 0.00490391 0.00178188 0.00796066 0.00128975 0.00582384 0.00141812 0.0209238 0.00224536 0.00829374 0.0014976 0.0257354 0.00285109 0.0190177 0.00296299 0.0309368 0.00328878 0.0257613 0.00363982 0.0447368
47 3 O 0.99614 59.6696 4.85089 -1.2 1 0.0107426 0.0117742 0.00375317 0.00676646 0.00182556 0.00575308 0.00167643 0.0206341 0.00259928 0.00941368 0.00167406 0.0249873 0.0029212 0.0192375 0.00385741 0.0284894 0.00389463 0.0238065 0.00357748 0.0401018
48 3 O 1.29893 62.3578 3.36413 -1.2 1 0.00329749 0.00563883 0.00207972 0.00750383 0.00187594 0.00599452 0.00176873 0.0216673 0.0017489 0.00876355 0.00193785 0.0249457 0.00241938 0.0194144 0.00271495 0.0307096 0.00310191 0.0260753 0.0031319 0.0439195
49 1 Mg -0.16379 64.2314 0.0765097 1.2 1 0.00289135 0.00431939 0.000981877 0.00771992 0.00133559 0.00590061 0.000782785 0.0221693 0.00190807 0.0092987 0.00172017 0.0268372 0.00245217 0.0188441 0.00246605 0.0316101 0.00281588 0.0259977 0.00312168 0.0422819
50 3 O 1.36414 62.4334 5.90026 -1.2 1 0.00313544 0.00530573 0.00199045 0.0075356 0.00161249 0.00569821 0.00167786 0.0212489 0.00193499 0.00841776 0.00161887 0.025329 0.00262259 0.0196075 0.00322076 0.0309901 0.00315369 0.0257171 0.00353727 0.0447266
51 1 Mg 0.0935691 66.9655 1.63809 1.2 1 0.00100465 0.00421021 0.00155866 0.00763758 0.00138645 0.00541171 0.00127069 0.0226503 0.00256569 0.00995218 0.00253607 0.0271013 0.00228563 0.0197602 0.00397388 0.0329023 0.00319254 0.0270339 0.00352593 0.0437949
52 2 Si -2.20836 65.2862 1.61694 2.4 1 0.0018319 0.00365645 0.00116503 0.00813837 0.00155697 0.00597863 0.00127519 0.0221939 0.00180143 0.00884941 0.00192931 0.0260007 0.00250105 0.0197708 0.00406759 0.0315548 0.00351746 0.0259812 0.00390144 0.0442964
53 3 O 1.11412 64.9881 1.58404 -1.2 1 0.00246751 0.00388037 0.000988427 0.00777207 0.00132907 0.00588213 0.000968201 0.0219631 0.00225543 0.00866782 0.00210141 0.0265939 0.00201829 0.0190937 0.00232718 0.0320899 0.0022765 0.0261004 0.00302735 0.0440546
54 3 O -0.881044 68.9429 1.63415 -1.2 1 0.00149318 0.00455806 0.00201005 0.00811589 0.00108562 0.00621982 0.0011334 0.0232649 0.00140411 0.00996233 0.00193183 0.0275876 0.00214103 0.0191776 0.00334196 0.031954 0.00226382 0.0264073 0.00249943 0.0444003
55 3 O -1.44283 66.0999 0.34401 -1.2 1 0.00219753 0.0039268 0.00127535 0.00766317 0.00127591 0.0052669 0.00110858 0.0222395 0.0023317 0.0093533 0.00169089 0.0262861 0.00177636 0.0196811 0.00273697 0.0325911 0.00279016 0.0257355 0.00307019 0.0433137
56 3 O -1.46782 65.7994 2.7926 -1.2 1 0.00149975 0.00385437 0.000841181 0.00763613 0.00155206 0.00546213 0.00185466 0.0225704 0.00192638 0.00896001 0.00183543 0.0264182 0.00237762 0.0199402 0.00431011 0.0314017 0.00328578 0.0262167 0.00336649 0.0446701
57 1 Mg -2.29273 69.3177 0.309544 1.2 1 0.00263927 0.00501721 0.00201779 0.00803091 0.00111594 0.00618655 0.00103461 0.0228379 0.00110414 0.00968448 0.00155991 0.0278896 0.00178816 0.0188772 0.00279564 0.0323689 0.00204236 0.02611 0.00180082 0.0436378
58 1 Mg 2.20949 72.2526 1.5347 1.2 1 0.00179314 0.00611652 0.00197445 0.00770301 0.00141058 0.00622822 0.00202038 0.0225297 0.00256653 0.00999103 0.00204985 0.026563 0.00247639 0.0199285 0.0027037 0.0320618 0.00346983 0.0261115 0.00306738 0.0451069
59 2 Si -0.308626 70.4247 1.75528 2.4 1 0.00179321 0.00476865 0.00256797 0.00844263 0.00173007 0.00626665 0.00166252 0.0227065 0.00165192 0.00941089 0.00215518 0.0256555 0.00265339 0.0198774 0.0041096 0.0318545 0.00320477 0.026618 0.00266932 0.0452381
60 3 O 1.30357 70.4896 1.72096 -1.2 1 0.00178186 0.00503319 0.00268664 0.00841242 0.00193048 0.00588654 0.00198737 0.022168 0.00228543 0.00935503 0.0017769 0.0265095 0.00254994 0.0194231 0.00284217 0.0321175 0.00417978 0.0259384 0.00313969 0.0451601
61 3 O -1.5254 74.0929 1.51928 -1.2 1 0.00188529 0.00600711 0.00142388 0.00736863 0.00118919 0.00725595 0.00161001 0.0225897 0.0014515 0.0104976 0.00213087 0.0265457 0.00292207 0.0194633 0.00289308 0.0311078 0.00268416 0.0264394 0.00292664 0.0445981
62 3 O -1.03183 71.1535 0.47099 -1.2 1 0.00273872 0.00583296 0.00198464 0.0077285 0.00185485 0.00589159 0.00187709 0.0227803 0.00194786 0.00939838 0.0018395 0.0261626 0.00276523 0.0200716 0.0026674 0.032715 0.00265833 0.0263125 0.00248782 0.0449337
63 1 Mg -2.25727 79.9132 2.93253 1.2 1 0.00302159 0.00689741 0.000864249 0.00737832 0.00118284 0.00757706 0.000900474 0.0219671 0.000985213 0.00987596 0.00151207 0.0261617 0.00191423 0.0205574 0.00273504 0.0302312 0.00262106 0.0266028 0.00276193 0.0433368
64 3 O -0.837529 71.1133 3.01704 -1.2 1 0.00140474 0.00538593 0.00218477 0.00796623 0.00145507 0.00598903 0.00136732 0.0228693 0.00154118 0.0098845 0.00185685 0.0261233 0.00246335 0.02035 0.00302448 0.0319243 0.00301848 0.0270694 0.00262866 0.0452084
65 1 Mg -2.279 76.903 4.66221 1.2 1 0.00255709 0.00650873 0.00134838 0.00787856 0.00151022 0.00684909 0.00145015 0.0221815 0.00188982 0.0103497 0.00230356 0.0264571 0.00252218 0.0206399 0.00321291 0.0310912 0.00369475 0.0266982 0.00360863 0.0444427
66 2 Si 0.380404 78.7324 4.36961 2.4 1 0.00314341 0.00660735 0.00116842 0.0082772 0.00185235 0.0066064 0.00145044 0.0213579 0.00104951 0.00988103 0.00188531 0.0254618 0.00275673 0.0212525 0.00335193 0.0304425 0.00295331 0.025969 0.00379788 0.0446858
67 3 O -1.19406 78.8049 4.64123 -1.2 1 0.00262371 0.00652034 0.0014218 0.0084543 0.00165709 0.0067733 0.00168676 0.0210439 0.00234585 0.00969596 0.00215112 0.0253758 0.00270824 0.0204237 0.00355484 0.0300418 0.00332262 0.0262813 0.0043454 0.0441991
68 3 O 1.51723 75.1192 4.71505 -1.2 1 0.00198383 0.00605745 0.00144018 0.00814703 0.00127009 0.00717116 0.00127593 0.0226635 0.00108465 0.0108367 0.00174753 0.0265385 0.00247327 0.0202879 0.00390324 0.0302983 0.00303798 0.0263286 0.00401616 0.0449091
69 3 O 1.06451 78.004 3.1835 -1.2 1 0.00197691 0.00687793 0.00118255 0.00750032 0.00144198 0.00661325 0.00130311 0.0221702 0.00112655 0.0100606 0.00178916 0.0257499 0.0022574 0.0215926 0.00306994 0.0316371 0.00295081 0.0266101 0.00347629 0.0446504
70 3 O 1.12021 78.3416 5.72369 -1.2 1 0.00342047 0.00669977 0.00126061 0.0082464 0.00214701 0.00648866 0.00233019 0.021739 0.00188201 0.00966925 0.00228852 0.0257201 0.00319561 0.020562 0.00385416 0.0305418 0.0037244 0.0266253 0.00343771 0.04425
71 1 Mg 0.0862445 74.7346 3.08446 1.2 1 0.00211445 0.00646111 0.00152926 0.00742697 0.00113329 0.00709107 0.00123366 0.022419 0.00105047 0.0104771 0.00133082 0.0270712 0.0017774 0.0195818 0.00227386 0.031182 0.00247445 0.0263281 0.00236669 0.0443801
72 1 Mg -0.0598248 72.0174 4.46568 1.2 1 0.00208402 0.00572731 0.00205176 0.00808628 0.00149564 0.00599714 0.00137816 0.0224302 0.0015959 0.0107317 0.00180625 0.0269835 0.00261612 0.020497 0.0030193 0.0319365 0.00342641 0.0268679 0.00293736 0.045576
73 2 Si 2.11183 73.5907 4.64059 2.4 1 0.00228886 0.00586211 0.00124415 0.00870521 0.00185994 0.00658846 0.00186453 0.0221627 0.00127226 0.0101402 0.00207088 0.0256672 0.00246276 0.0203936 0.00366267 0.0309562 0.00376949 0.0265309 0.0031778 0.0456215
74 3 O -1.07711 73.7492 4.64224 -1.2 1 0.00199433 0.00608887 0.00171962 0.00833439 0.00186528 0.00647613 0.00181065 0.0215735 0.00173609 0.0100056 0.00156606 0.0266068 0.00227887 0.0198714 0.00345155 0.0311703 0.00332898 0.0262036 0.0040443 0.0447716
75 3 O 1.0902 69.7881 4.76118 -1.2 1 0.000654211 0.00470553 0.00220423 0.00829048 0.00144825 0.00613117 0.00182413 0.0237064 0.00171483 0.00991383 0.00175469 0.0270999 0.00259815 0.020341 0.00341597 0.0309246 0.00332557 0.027561 0.00375066 0.0464389
76 3 O 1.49596 73.0211 3.2186 -1.2 1 0.00205751 0.00602002 0.0018193 0.00775871 0.00161256 0.00626453 0.00160985 0.0223957 0.00155461 0.0100843 0.00191378 0.0261968 0.002286 0.0197234 0.00246588 0.0314716 0.00313035 0.0263467 0.00272671 0.0452685
77 1 Mg -0.0802492 74.7079 0.217117 1.2 1 0.00127843 0.00555051 0.00139395 0.00765278 0.000947777 0.00745282 0.00147195 0.0214887 0.00110557 0.00993699 0.0013489 0.0266534 0.00195166 0.0188687 0.00181982 0.0313047 0.00269574 0.0257098 0.00201883 0.0436486
78 3 O 1.4169 72.7583 5.75001 -1.2 1 0.00163056 0.00555679 0.00137048 0.00823037 0.00164741 0.0061786 0.00140867 0.0221724 0.00162007 0.0104204 0.00136513 0.0263606 0.00270872 0.0206354 0.00308851 0.0319172 0.00307094 0.0268584 0.00396542 0.0456153
79 1 Mg 0.110044 77.5846 1.4156 1.2 1 0.00143864 0.00689024 0.00109622 0.00779118 0.00125181 0.00678405 0.00148714 0.0217233 0.00171046 0.010448 0.00208554 0.0262755 0.00234574 0.0211162 0.00263611 0.0320269 0.00280917 0.0265195 0.00286823 0.0448707
80 2 Si -2.06928 75.6947 1.57676 2.4 1 0.00122456 0.00601783 0.00146065 0.00840916 0.00169696 0.00714619 0.0019804 0.0211053 0.00143089 0.00990998 0.00213083 0.0253028 0.00228958 0.020449 0.00348166 0.0307168 0.00309586 0.0257371 0.00283413 0.0454724
81 3 O 1.07335 75.5996 1.58766 -1.2 1 0.00120283 0.00573188 0.00120714 0.00824859 0.00112418 0.00699903 0.0012581 0.0210886 0.00251003 0.0095308 0.00133413 0.0259882 0.00261037 0.0195875 0.00259659 0.0311745 0.0028962 0.0259443 0.00264828 0.0451355
82 3 O -0.866473 79.5422 1.63457 -1.2 1 0.00208357 0.00720848 0.000591051 0.00783825 0.000818407 0.00773238 0.000779223 0.0220891 0.00125586 0.009976 0.00238674 0.0264332 0.00247385 0.0201659 0.00331079 0.0302283 0.00311218 0.0263498 0.0025427 0.0443554
83 3 O -1.29657 76.5204 0.430773 -1.2 1 0.00068263 0.00625462 0.00126482 0.00770888 0.00138098 0.00688124 0.00192199 0.0216714 0.00172786 0.00975129 0.00144107 0.0257249 0.0019956 0.0202463 0.00252073 0.032079 0.00214727 0.0254665 0.0023288 0.0443068
84 3 O -1.3196 76.3149 2.85635 -1.2 1 0.00208152 0.00654709 0.00115377 0.00782332 0.00198746 0.00678715 0.0024392 0.0217837 0.00159585 0.00995059 0.00249625 0.0257028 0.00283508 0.0203779 0.00357765 0.0312861 0.00334955 0.026661 0.00259045 0.0454955
85 1 Mg -2.24654 80.0537 -0.0649496 1.2 1 0.00191136 0.0064196 0.00104012 0.00738924 0.00103546 0.00773625 0.000968956 0.0221898 0.00105058 0.00995442 0.00145971 0.0268515 0.00249421 0.0203902 0.00278628 0.0306171 0.00234515 0.0255159 0.00277936 0.0429065
86 1 Mg 2.4644 82.7632 1.69697 1.2 1 0.00380509 0.00600301 0.00152721 0.0070948 0.00105544 0.00664517 0.00173113 0.0221021 0.00201365 0.00978863 0.00217494 0.0261003 0.00308002 0.0213758 0.00399952 0.0299717 0.00312528 0.0254597 0.00290315 0.0423036
87 2 Si -0.199751 80.9738 1.66332 2.4 1 0.00257128 0.0064082 0.000830113 0.00785683 0.00126265 0.00697551 0.00159016 0.021861 0.00188849 0.00967287 0.00247393 0.0250281 0.00255606 0.0212672 0.0041982 0.0296102 0.00356784 0.0253624 0.00284631 0.0439982
88 3 O 1.34029 81.0069 1.61103 -1.2 1 0.00271137 0.00619234 0.000884374 0.00776482 0.00126291 0.00694549 0.0014604 0.0211414 0.00260613 0.00975078 0.00159505 0.0260153 0.00161359 0.0207379 0.00253893 0.0299437 0.00297449 0.0252954 0.00241589 0.0432556
89 3 O -1.34824 84.5518 1.52087 -1.2 1 0.00418316 0.00563307 0.00182572 0.00773083 0.00108912 0.00703997 0.000652293 0.0227167 0.00118409 0.00996369 0.00171512 0.0265564 0.00170729 0.0211315 0.0032015 0.0298383 0.00303271 0.0260348 0.00240828 0.0418237
90 3 O -0.968644 81.6528 0.401719 -1.2 1 0.00285765 0.00597669 0.00100086 0.00713609 0.00105181 0.00708393 0.00227056 0.0220989 0.00179108 0.00933326 0.00157528 0.0257088 0.00296422 0.0210859 0.00368931 0.0304237 0.00295405 0.025406 0.00293818 0.0428898
91 1 Mg -2.26397 90.5257 2.99523 1.2 1 0.00573907 0.00490109 0.00167556 0.0090081 0.00135297 0.0066626 0.000973502 0.022692 0.00133024 0.010116 0.00113768 0.0279501 0.00170146 0.0206803 0.00316388 0.0296889 0.00298612 0.0258594 0.00224687 0.0415986
92 3 O -1.05349 81.669 2.866 -1.2 1 0.00370352 0.00636923 0.00130957 0.00754658 0.00129967 0.006599 0.0020454 0.0217489 0.00165305 0.00954876 0.00215158 0.0247667 0.00251568 0.0212376 0.00411526 0.0296516 0.00325923 0.0257296 0.0029959 0.0429078
93 1 Mg -2.28714 87.6127 4.29589 1.2 1 0.00668198 0.00556409 0.00183112 0.00884363 0.00135387 0.00605289 0.00123808 0.0222264 0.00220429 0.00962963 0.00236108 0.0267896 0.00245573 0.0222312 0.00407736 0.0293861 0.0037669 0.0257214 0.00343774 0.0413324
94 2 Si 0.311535 89.4717 4.40954 2.4 1 0.00633855 0.005043 0.00178979 0.00948864 0.00198105 0.00590712 0.00140057 0.0223581 0.00136854 0.00923301 0.00196894 0.0263635 0.00242608 0.0222908 0.00318444 0.0296627 0.00263625 0.0254252 0.00236628 0.0421257
95 3 O -1.20331 89.5027 4.39558 -1.2 1 0.00648297 0.00467835 0.00163891 0.00948069 0.00163607 0.00583283 0.00132351 0.0216873 0.00230599 0.00928093 0.00140497 0.0269279 0.00222037 0.0216729 0.00305543 0.0295429 0.0034807 0.0253536 0.00268476 0.0419716
96 3 O 1.37687 85.7141 4.59096 -1.2 1 0.00652774 0.0059527 0.00133415 0.00817994 0.00153196 0.00644394 0.00144484 0.0228319 0.00191189 0.00968005 0.00237535 0.0269301 0.00297427 0.021065 0.00392269 0.0292997 0.00360188 0.0261042 0.00385329 0.0417689
97 3 O 1.03081 88.8785 3.07778 -1.2 1 0.00650732 0.00555323 0.0021399 0.00850552 0.00190199 0.00644852 0.000972679 0.0227703 0.00166702 0.0101906 0.00172933 0.0269454 0.00250977 0.022479 0.00261305 0.0298336 0.00273248 0.0257646 0.00244057 0.0421081
98 3 O 0.907492 88.7059 5.5889 -1.2 1 0.00673618 0.00504137 0.00167055 0.00916135 0.0022591 0.00593667 0.00149244 0.0220439 0.00230448 0.00931793 0.00214579 0.0270034 0.00328973 0.0220276 0.00359991 0.0292282 0.00361062 0.0251245 0.00353072 0.0416371
99 1 Mg 0.209125 85.0313 3.09069 1.2 1 0.00561956 0.00584033 0.00166256 0.00777699 0.000934399 0.00659218 0.00151776 0.0221658 0.00136569 0.00999033 0.00133013 0.0270762 0.00248757 0.0211798 0.00325652 0.0293005 0.00273229 0.0256377 0.00247565 0.0413296
100 1 Mg -0.0840998 82.2804 4.60671 1.2 1 0.00388941 0.00673401 0.00129629 0.00696749 0.00130562 0.00645517 0.0012813 0.0217647 0.00194238 0.0101793 0.00301608 0.0262572 0.00231734 0.020969 0.00349957 0.0290884 0.00378946 0.0260066 0.00347452 0.0423922
101 2 Si 2.19694 84.0658 4.5858 2.4 1 0.00458639 0.00601762 0.00138607 0.00778386 0.00246496 0.00621078 0.0015141 0.0215076 0.00176763 0.00922593 0.00243463 0.0256853 0.00285062 0.0210369 0.00399715 0.0288332 0.00338192 0.0258701 0.00320869 0.0422707
102 3 O -1.04922 84.2596 4.54781 -1.2 1 0.00532817 0.0058541 0.00140673 0.00788323 0.00234522 0.00618545 0.00155627 0.021265 0.00255379 0.00900875 0.00207315 0.0262806 0.00285546 0.0204754 0.00385245 0.0289623 0.00382293 0.0252085 0.00348896 0.0420644
103 3 O 1.03905 80.2906 4.16746 -1.2 1 0.0035508 0.00665137 0.00144352 0.00751069 0.00156292 0.00770556 0.000823644 0.0226047 0.00138455 0.0100529 0.00157538 0.0259229 0.0026178 0.0205904 0.00324351 0.0290897 0.00339542 0.0267939 0.00417443 0.0433805
104 3 O 1.38805 83.4872 3.37321 -1.2 1 0.00400394 0.00597634 0.00149672 0.00723686 0.0020346 0.00619599 0.00136907 0.0214793 0.00165312 0.00926433 0.00192709 0.0256532 0.0029345 0.0215845 0.00310084 0.0297938 0.00239411 0.0256075 0.00320122 0.0426686
105 1 Mg 0.179479 85.0106 0.130719 1.2 1 0.00374013 0.0055665 0.00195765 0.00780133 0.00130722 0.00740832 0.000953192 0.0219257 0.00146734 0.00987715 0.00152253 0.0273129 0.00201125 0.0206416 0.00308758 0.0300321 0.00267774 0.0257619 0.00261866 0.0416095
106 3 O 1.42885 83.254 5.73124 -1.2 1 0.00456929 0.00645714 0.00149061 0.00730437 0.0019562 0.00609154 0.00108563 0.0220581 0.00189694 0.00950414 0.00251979 0.0260999 0.00303057 0.0212642 0.00335287 0.0289543 0.00362524 0.0254884 0.00413346 0.0422208
107 1 Mg -0.0749494 88.1283 1.52695 1.2 1 0.00629653 0.00536541 0.00222797 0.00839014 0.0014464 0.00667013 0.00129022 0.02269 0.0021897 0.0106096 0.00246798 0.0273112 0.00297284 0.0220878 0.00360992 0.0303835 0.00307317 0.0263462 0.00271198 0.0420175
108 2 Si -1.85864 86.0712 1.65615 2.4 1 0.00502049 0.00553831 0.00187638 0.00858828 0.00120295 0.00667514 0.00166006 0.0218696 0.00205855 0.00957583 0.00178188 0.0261336 0.00235918 0.0218471 0.0042539 0.0294348 0.00402536 0.0260123 0.00318269 0.0426198
109 3 O 1.28222 85.986 1.74989 -1.2 1 0.00476237 0.0052389 0.00167267 0.0083442 0.000975219 0.00675724 0.00124502 0.0217643 0.00211384 0.00972692 0.00203133 0.0267919 0.0023302 0.0207455 0.00313574 0.0297772 0.00345455 0.0260502 0.00316868 0.0415671
110 3 O -0.976097 89.9491 1.55529 -1.2 1 0.00534252 0.00504296 0.00210124 0.00885736 0.00129599 0.00673286 0.00132991 0.0225756 0.0011094 0.010266 0.00172996 0.0277227 0.00284927 0.0209522 0.00372544 0.0295997 0.00381875 0.0255836 0.00244717 0.042426
111 3 O -1.27748 86.8476 0.412673 -1.2 1 0.00487321 0.00555636 0.00143005 0.00827465 0.00129109 0.00675211 0.00176229 0.0223327 0.0017529 0.00961748 0.00143423 0.0268576 0.00200076 0.0215746 0.00321706 0.0312591 0.0029433 0.0266862 0.00317921 0.0422601
112 3 O -1.22365 86.724 2.92012 -1.2 1 0.00620076 0.00564729 0.0016879 0.00844741 0.00119091 0.00646799 0.00279803 0.0224308 0.00178084 0.00943345 0.00212033 0.0266726 0.0021472 0.022043 0.00425066 0.0298705 0.00374605 0.0263101 0.00354304 0.0425525
113 1 Mg -2.40915 90.6725 0.00153727 1.2 1 0.00546617 0.00424748 0.00144857 0.00879137 0.00125195 0.00696269 0.00137178 0.0224183 0.00130872 0.0103773 0.00145954 0.0284771 0.00230402 0.0201751 0.00394303 0.0299452 0.00308537 0.0251631 0.00296387 0.0427892
114 1 Mg 2.50741 93.5257 1.36908 1.2 1 0.00561858 0.00476708 0.00131584 0.00952674 0.00149607 0.00634115 0.00164307 0.0228619 0.00209883 0.0104647 0.00257674 0.0285824 0.00253776 0.0201808 0.00508581 0.0297597 0.00378598 0.0250649 0.00401456 0.0436814
115 2 Si -0.351145 91.4798 1.50966 2.4 1 0.00631116 0.00410503 0.00131419 0.0099037 0.00170415 0.00652675 0.00179106 0.0219058 0.00146811 0.00995502 0.00238882 0.0272688 0.00326476 0.0213783 0.00568043 0.0294169 0.00485148 0.0249858 0.00343118 0.0434098
116 3 O 1.10377 91.4319 1.55711 -1.2 1 0.00622783 0.00415599 0.00156331 0.00985598 0.00141834 0.00623417 0.00139608 0.0216533 0.00225088 0.0100925 0.00199298 0.0277727 0.00197289 0.0210057 0.00321341 0.0296265 0.00258168 0.024618 0.00251394 0.0436949
117 3 O -1.17905 95.3052 1.25574 -1.2 1 0.00601813 0.00499268 0.00079124 0.00961377 0.00111634 0.00662665 0.00131596 0.0228887 0.00193649 0.00984459 0.00203058 0.0286351 0.00257931 0.0199469 0.00297719 0.0297679 0.00317202 0.0243738 0.0038994 0.0438969
118 3 O -1.04591 92.1638 0.299689 -1.2 1 0.00566691 0.00434294 0.00142919 0.00908169 0.00135995 0.00671832 0.00203076 0.0223521 0.0016488 0.010049 0.00191834 0.0277125 0.00256084 0.0212973 0.00425154 0.0300192 0.00425587 0.024749 0.00341054 0.0433049
119 1 Mg -2.15965 100.973 2.71562 1.2 1 0.00601374 0.00666104 0.0016449 0.0082984 0.0014074 0.00557941 0.00154144 0.0221085 0.00160606 0.00912094 0.00219083 0.0281168 0.00303732 0.0193993 0.00317226 0.0307347 0.00255846 0.0243944 0.00344297 0.0441177