ITEM: TIMESTEP
36100
ITEM: NUMBER OF ATOMS
5600
ITEM: BOX BOUNDS xy xz yz pp pp pp
0	7.1235	0
0	201.985	2.3745
0	119.584	0
ITEM: ATOMS id type element xu yu zu q Q_1 Q_2 Q_3 Q_4 Q_5 Q_6 Q_7 Q_8 Q_9 Q_10 Q_11 Q_12 Q_13 Q_14 Q_15 Q_16 Q_17 Q_18 Q_19 Q_20 Q_21
1 1 Mg -1.50575 48.7581 -1.10152 1.2 1 0.23784 0.0816769 0.0204463 0.0293906 0.00628172 0.0174811 0.00376146 0.0234264 0.00406093 0.0298934 0.00480913 0.0322599 0.00966759 0.0256343 0.00839381 0.027453 0.00839301 0.0228943 0.00939139 0.0376563
2 1 Mg 3.08315 50.9262 1.75742 1.2 1 0.181284 0.0685564 0.00951544 0.0209846 0.00290913 0.0118218 0.00311577 0.0200503 0.00315086 0.0225291 0.00378824 0.0287484 0.00499675 0.0228083 0.00588367 0.0264577 0.00627471 0.0195136 0.00884856 0.0359586
3 2 Si 0.96355 50.354 -0.0414565 2.4 1 0.198459 0.0729047 0.0120596 0.0236086 0.00381124 0.0123587 0.00311317 0.021373 0.00346881 0.0266155 0.00422369 0.0302436 0.00716455 0.0240744 0.00634528 0.0269862 0.00778071 0.0204459 0.00865879 0.0366409
4 3 O 2.33671 49.6733 0.28171 -1.2 1 0.216021 0.0770003 0.0163363 0.026064 0.00466951 0.014242 0.00333396 0.0210551 0.00412749 0.0274905 0.00463064 0.0293101 0.00789142 0.0249804 0.00777739 0.0269837 0.00832314 0.0206029 0.00839581 0.0357331
5 3 O -1.23453 53.0183 1.37191 -1.2 1 0.132755 0.053039 0.00373135 0.015909 0.00218342 0.0101817 0.00248015 0.0201637 0.00276349 0.0187166 0.00296056 0.0287723 0.00430357 0.0204046 0.00340169 0.0267195 0.00530164 0.0195499 0.00703535 0.0375722
6 3 O 0.222785 49.5242 -1.17673 -1.2 1 0.212364 0.0754026 0.0160637 0.0256675 0.00504966 0.015505 0.00368259 0.0226885 0.00341459 0.0281031 0.00474886 0.0310958 0.00734114 0.0252738 0.00663411 0.0276038 0.00729306 0.0210572 0.0079762 0.0367271
7 1 Mg -2.38612 59.0617 2.8692 1.2 1 0.0167903 0.0138147 0.00545889 0.00764993 0.00103691 0.00697704 0.00164248 0.0224458 0.00323755 0.0100382 0.00188149 0.0291312 0.00249802 0.0186893 0.00335774 0.0304183 0.0044786 0.0252979 0.00476531 0.0437615
8 3 O 0.251203 50.4238 1.38276 -1.2 1 0.193243 0.0723926 0.0108139 0.0225291 0.00257461 0.0123045 0.00323947 0.0210469 0.00336966 0.0255106 0.00396956 0.0288961 0.0057586 0.0241355 0.00601466 0.0270976 0.00767455 0.0198526 0.00854061 0.0355909
9 1 Mg -2.1481 56.0782 4.33644 1.2 1 0.0725615 0.0358712 0.00475062 0.0103331 0.00167899 0.00736552 0.0017837 0.0202759 0.00246737 0.0129545 0.00258536 0.0284566 0.0027224 0.0181758 0.00331113 0.0275032 0.00427773 0.0219519 0.0069834 0.0396541
10 2 Si 0.470757 57.9961 4.35062 2.4 1 0.0290283 0.0199762 0.00789074 0.00820477 0.00106106 0.00659033 0.00238799 0.0214148 0.00330069 0.00917751 0.00343153 0.0279176 0.00284314 0.0189687 0.00456013 0.0286257 0.00469744 0.0241633 0.00546007 0.0425966
11 3 O -1.13008 58.1078 4.26843 -1.2 1 0.0270829 0.0191981 0.00778361 0.00765551 0.000910507 0.00652718 0.00233385 0.0212199 0.00369249 0.00913643 0.00218962 0.028644 0.00316315 0.0184083 0.00358256 0.028966 0.00577573 0.0239845 0.00580873 0.0423243
12 3 O 1.62706 53.9211 4.58807 -1.2 1 0.117466 0.0498157 0.000924569 0.014178 0.0021464 0.00940907 0.00256701 0.0195004 0.00261931 0.0168301 0.0029709 0.0276996 0.00294692 0.0197599 0.00363063 0.0249362 0.00436959 0.0195768 0.00815688 0.0373873
13 3 O 1.08009 57.458 2.97043 -1.2 1 0.0351069 0.0233733 0.00783911 0.00800836 0.00117945 0.0066899 0.00209747 0.0225406 0.00341093 0.0103037 0.00224151 0.0284619 0.00314732 0.0194399 0.00409867 0.0294869 0.00503184 0.0240398 0.00642771 0.0423033
14 3 O 1.17572 57.3087 5.55536 -1.2 1 0.041571 0.0251045 0.00810103 0.00784028 0.00115768 0.00686009 0.00210877 0.0209439 0.00290985 0.0101066 0.00233332 0.0274598 0.0027882 0.0184947 0.00398087 0.0280995 0.00432856 0.0239042 0.00583344 0.0408396
15 1 Mg 0.403668 53.0727 2.83103 1.2 1 0.132948 0.0549699 0.00127266 0.0159178 0.00173402 0.00987798 0.00251544 0.019561 0.00230628 0.0182878 0.0034875 0.027725 0.00357896 0.020324 0.00441753 0.025956 0.00483751 0.0190993 0.00835933 0.0365594
16 1 Mg 0.963093 49.8464 3.06037 1.2 1 0.207007 0.075632 0.0128731 0.0245169 0.00306317 0.0126236 0.00324723 0.0203291 0.00289729 0.0256923 0.00343334 0.0282676 0.00545728 0.0247263 0.00622982 0.0264013 0.00780196 0.0201174 0.0091234 0.0353149
17 2 Si 2.29313 52.5422 4.5665 2.4 1 0.152229 0.0596459 0.00501372 0.0171277 0.00271376 0.0101764 0.00330965 0.0192321 0.00332219 0.0185863 0.00346429 0.0275379 0.00386442 0.0203875 0.00548533 0.0256103 0.00484765 0.0177557 0.00853056 0.0355383
18 3 O -0.743754 52.5303 4.46741 -1.2 1 0.142917 0.0564081 0.00335448 0.0153284 0.00249211 0.00876904 0.00331704 0.0187149 0.00349959 0.017774 0.00316326 0.0277715 0.00382769 0.021265 0.00411119 0.0250473 0.00564973 0.0175112 0.0078331 0.0360788
19 3 O 2.76171 49.355 3.17652 -1.2 1 0.218605 0.0779091 0.0146701 0.0253109 0.00301576 0.0144413 0.00427126 0.020878 0.00278049 0.025521 0.00396014 0.02922 0.00694647 0.0251001 0.00603399 0.026781 0.00760792 0.0203129 0.00884574 0.0351867
20 3 O 1.84278 51.8928 3.23931 -1.2 1 0.155928 0.0611718 0.00467311 0.0171638 0.00217396 0.0103218 0.00303364 0.019514 0.00296006 0.0197961 0.0034379 0.0277175 0.00387848 0.0212914 0.00480825 0.0255473 0.0054182 0.0187415 0.00850457 0.0358505
21 1 Mg -0.0660225 53.7016 -0.15056 1.2 1 0.11583 0.050342 0.00127592 0.0149463 0.00160453 0.00943792 0.00223094 0.021527 0.00348265 0.0191253 0.00332547 0.0300547 0.00358893 0.0202658 0.00347307 0.0276782 0.00544171 0.0213233 0.0069657 0.0387539
22 3 O 1.80298 51.5378 5.80917 -1.2 1 0.166552 0.0645636 0.00678002 0.0185941 0.00306542 0.0110442 0.0034236 0.0191074 0.00278181 0.0202199 0.00315713 0.0275344 0.00409503 0.02205 0.00552721 0.0248317 0.00411398 0.0172117 0.0086281 0.0339711
23 1 Mg -0.172235 56.711 1.30745 1.2 1 0.0499899 0.0292417 0.0071001 0.00871962 0.00129012 0.00707066 0.00146247 0.0216515 0.00457708 0.0121686 0.00357807 0.0293038 0.00352819 0.01892 0.00424531 0.0287743 0.00513064 0.0225105 0.00705902 0.041201
24 2 Si -1.97697 54.6209 1.38455 2.4 1 0.0996398 0.0445876 0.00164213 0.0129051 0.00168675 0.00866435 0.00168557 0.0198635 0.00339256 0.0163119 0.00329627 0.0284859 0.00329887 0.0200465 0.00341076 0.0266519 0.00580666 0.0198396 0.00715217 0.0387604
25 3 O 1.19006 54.4969 1.31532 -1.2 1 0.104606 0.0451523 0.00140413 0.0128045 0.00155914 0.00899614 0.0022152 0.0199551 0.00302693 0.0160087 0.00327032 0.0287486 0.00329715 0.0197387 0.00320889 0.0271074 0.00505332 0.0207475 0.00709665 0.0385791
26 3 O -1.14259 58.4378 1.35414 -1.2 1 0.0238039 0.0177774 0.00706058 0.00761303 0.000986851 0.00652375 0.00195863 0.0226856 0.00392051 0.010083 0.00255643 0.0295095 0.00321824 0.0189239 0.00448047 0.03015 0.00552101 0.0249753 0.00649851 0.0438526
27 3 O -1.33551 55.3718 0.112132 -1.2 1 0.0783918 0.0386795 0.00409614 0.0108566 0.00222378 0.00772452 0.00130121 0.0214028 0.00390537 0.0145739 0.00357771 0.0289201 0.00294494 0.0197262 0.00369541 0.0286867 0.00547245 0.022691 0.00661617 0.0407351
28 3 O -1.33982 55.3897 2.67237 -1.2 1 0.0812799 0.0384978 0.00354069 0.0101885 0.00155873 0.00823512 0.00224115 0.0208081 0.00388826 0.0142253 0.00325663 0.028501 0.00268727 0.0193021 0.0027102 0.0273704 0.00582315 0.0220822 0.00735757 0.0397859
29 1 Mg -2.47081 59.0388 -0.0318443 1.2 1 0.0172702 0.0140856 0.00508397 0.00724921 0.000878663 0.0073077 0.0014064 0.0228827 0.00347151 0.0104173 0.00262489 0.0301981 0.00304771 0.0193137 0.00451524 0.0308232 0.00454803 0.0260268 0.0059856 0.0446246
30 1 Mg 2.22916 61.9631 1.51134 1.2 1 0.00526865 0.00756104 0.00138775 0.00861656 0.000582283 0.00660328 0.00136171 0.0231345 0.00235809 0.00986492 0.00270486 0.0294602 0.00185282 0.019832 0.0030385 0.0331331 0.00330528 0.0272158 0.00292898 0.0465097
31 2 Si -0.518743 60.067 1.35467 2.4 1 0.0109595 0.00974302 0.00298453 0.00880214 0.0010592 0.00689328 0.0016524 0.0224598 0.00282689 0.0104215 0.00292751 0.0285163 0.002799 0.0205439 0.00446174 0.0308596 0.00506009 0.0261705 0.00503633 0.0463327
32 3 O 1.06852 60.0712 1.45173 -1.2 1 0.00967215 0.00925343 0.00293672 0.00847306 0.000875036 0.00668248 0.000954223 0.0223136 0.00312013 0.00947992 0.0024888 0.0287839 0.00234538 0.0193222 0.00396591 0.0323118 0.00397345 0.0263405 0.0042095 0.0460757
33 3 O -1.48693 63.7946 1.44977 -1.2 1 0.00543209 0.0071473 0.00117346 0.00886923 0.000904694 0.00652889 0.00086848 0.0237792 0.0014165 0.00962757 0.00182229 0.0290341 0.00278335 0.019433 0.00384428 0.0323392 0.00284647 0.0267886 0.00299631 0.0470576
34 3 O -1.18393 60.6914 0.151179 -1.2 1 0.00859033 0.00851384 0.00214151 0.00809368 0.000938656 0.00676202 0.00197781 0.0234112 0.00294805 0.00998407 0.00261644 0.0288521 0.00263375 0.0206805 0.00464808 0.0325234 0.00443044 0.0266957 0.00504128 0.0464226
35 1 Mg -2.44589 69.5371 3.18851 1.2 1 0.00271726 0.00623223 0.000967624 0.00714167 0.00103555 0.00579656 0.00105312 0.0239459 0.00147409 0.00986685 0.00147606 0.0286463 0.00147897 0.0198456 0.00185891 0.0332383 0.00162175 0.0256918 0.00265545 0.0457679
36 3 O -1.21027 60.6589 2.65944 -1.2 1 0.00849498 0.00891483 0.0026263 0.00799157 0.000927614 0.00702908 0.00150205 0.0233129 0.00287294 0.00980101 0.00230424 0.0285463 0.00282642 0.0201131 0.00341383 0.0318985 0.0038549 0.0265836 0.00360816 0.0457555
37 1 Mg -2.25471 66.5617 4.43237 1.2 1 0.00372956 0.00686083 0.00108242 0.00764267 0.00115028 0.0057711 0.00159306 0.0235104 0.002236 0.0103517 0.00253951 0.0279575 0.0023467 0.0202679 0.00401146 0.0328559 0.00322578 0.0263326 0.00341103 0.0455988
38 2 Si 0.174254 68.4144 4.67456 2.4 1 0.00293161 0.00600399 0.000944471 0.00804285 0.00154491 0.00546192 0.00179623 0.0237986 0.00163413 0.00963731 0.00224236 0.0264282 0.00261959 0.0206187 0.00332436 0.032834 0.00299681 0.0259254 0.00352335 0.0465124
39 3 O -1.33169 68.4997 4.75083 -1.2 1 0.0034514 0.00604924 0.0011125 0.00765263 0.0013436 0.00513428 0.00151078 0.0229769 0.00264735 0.0093908 0.00239798 0.0273929 0.0018597 0.0203347 0.00258792 0.0336322 0.00246847 0.0255595 0.00313827 0.0460427
40 3 O 1.47003 64.7079 4.56498 -1.2 1 0.00351813 0.00701524 0.000965352 0.0078927 0.0012031 0.00638196 0.00117692 0.023883 0.00189279 0.00987968 0.0023119 0.0284328 0.00215778 0.0196276 0.00312374 0.0318062 0.00311962 0.0263584 0.00318022 0.0459958
41 3 O 0.901621 67.704 3.39078 -1.2 1 0.00298096 0.0068072 0.00103947 0.00735458 0.00166521 0.00537431 0.00227055 0.023627 0.00218558 0.0094632 0.00221866 0.0269279 0.0025839 0.0206881 0.00319371 0.0338384 0.00273103 0.0260437 0.00321294 0.0463699
42 3 O 0.931331 67.7056 5.95603 -1.2 1 0.00302625 0.00612158 0.00144205 0.00737916 0.00154952 0.00565347 0.00154723 0.0237626 0.00125045 0.0101189 0.0018291 0.026883 0.00234628 0.0207985 0.00286012 0.0329229 0.00277187 0.0259992 0.00235111 0.045897
43 1 Mg 0.0151337 64.4982 3.15796 1.2 1 0.00354212 0.00747558 0.000901438 0.00812421 0.00113988 0.00606103 0.000858751 0.0232723 0.0015931 0.00959279 0.00207394 0.028942 0.00217832 0.0194638 0.00316576 0.0321127 0.00317929 0.0259844 0.00311789 0.0458362
44 1 Mg -0.248433 61.4135 4.19104 1.2 1 0.00621407 0.00820234 0.00185238 0.00763229 0.00115047 0.00713473 0.00192904 0.0227907 0.00194407 0.00956787 0.0019438 0.0297487 0.00219879 0.0193399 0.00284823 0.0315425 0.00322754 0.0264591 0.00316636 0.0454226
45 2 Si 1.99023 63.1563 4.52197 2.4 1 0.00429775 0.00686404 0.00117402 0.0085643 0.001511 0.00647213 0.00186088 0.023122 0.00154807 0.00985212 0.00247284 0.0278496 0.00215129 0.0198188 0.00421763 0.0314043 0.00315854 0.0262206 0.00221428 0.0463627
46 3 O -1.1279 63.3096 4.34697 -1.2 1 0.00367255 0.00694644 0.00114583 0.00846382 0.00156776 0.0062804 0.00165749 0.0225109 0.00212477 0.00901678 0.00135864 0.0282855 0.00215988 0.0190474 0.00295427 0.0315535 0.00330581 0.0258944 0.00324979 0.0461272
47 3 O 1.12287 59.5586 4.34665 -1.2 1 0.0140494 0.0125252 0.00450269 0.00791209 0.00113076 0.00730783 0.00181305 0.0221683 0.00337537 0.00963474 0.00198247 0.0292802 0.00219132 0.0187145 0.00293025 0.0303262 0.00406878 0.0254932 0.00401167 0.044061
48 3 O 1.24087 62.6285 3.22347 -1.2 1 0.00426543 0.00739972 0.00079032 0.00854318 0.00156713 0.00665997 0.00217516 0.0236961 0.00183722 0.00942068 0.00227524 0.0283551 0.0018174 0.0199712 0.00373104 0.0322645 0.00340044 0.027102 0.00255373 0.0466463
49 1 Mg -0.0714095 64.2339 0.156672 1.2 1 0.00538581 0.00677226 0.00127694 0.00833221 0.000907825 0.00653477 0.000818424 0.0239277 0.00160139 0.00974603 0.00164245 0.0296126 0.00214474 0.0196528 0.00258914 0.0327913 0.00218426 0.0268311 0.0024616 0.0464261
50 3 O 1.45209 62.5541 5.87458 -1.2 1 0.00425524 0.00727223 0.000780673 0.00772447 0.00132114 0.0067435 0.00135163 0.0235228 0.00157928 0.00989942 0.00199065 0.0283823 0.00213974 0.0196599 0.00335436 0.0319882 0.00304645 0.0268829 0.00229947 0.0461043
51 1 Mg -0.143045 67.1458 1.53053 1.2 1 0.00309565 0.00689648 0.000914549 0.00723131 0.00125218 0.00540784 0.0011225 0.0237777 0.00206161 0.00978284 0.0025488 0.0280617 0.0021236 0.0205202 0.00359936 0.0334224 0.0031249 0.0265712 0.0038527 0.0463821
52 2 Si -2.16075 65.3511 1.58245 2.4 1 0.00412302 0.00667089 0.000922849 0.0084762 0.00154605 0.00575069 0.00166922 0.0234136 0.00189133 0.00962944 0.00232849 0.0275594 0.00247222 0.0203482 0.0041692 0.032587 0.00379177 0.0260149 0.003263 0.0471174
53 3 O 1.06856 65.3382 1.57444 -1.2 1 0.00450662 0.00684863 0.00130998 0.00811076 0.00157976 0.00516086 0.00136713 0.0229584 0.00249612 0.00966751 0.00193492 0.0278349 0.00198172 0.0202067 0.0028539 0.0333414 0.00297256 0.0259632 0.00384244 0.0464725
54 3 O -1.06627 69.0151 1.67733 -1.2 1 0.00289486 0.00627445 0.00107092 0.0074091 0.00108605 0.00580756 0.000977832 0.0242599 0.00184078 0.00965504 0.00235801 0.0282266 0.00163341 0.0198499 0.00309179 0.0331052 0.00302504 0.0261173 0.00406291 0.0463003
55 3 O -1.54212 66.0865 0.303805 -1.2 1 0.00375669 0.0069499 0.000886712 0.00769551 0.00119653 0.00561631 0.000980536 0.0235137 0.0016222 0.0101142 0.0018915 0.0276864 0.00208883 0.0203751 0.00274939 0.0337189 0.00242797 0.0265417 0.0030559 0.0460716
56 3 O -1.30948 66.062 2.77461 -1.2 1 0.00389986 0.00693491 0.00098808 0.00764892 0.00177977 0.00542689 0.0015938 0.0233917 0.00151662 0.00930538 0.00157244 0.0267949 0.00286878 0.0204964 0.00327995 0.0326788 0.00337001 0.0264355 0.00375678 0.0458235
57 1 Mg -2.58484 69.438 0.119235 1.2 1 0.00195686 0.00696832 0.000844463 0.00707357 0.00115638 0.00602793 0.000955066 0.0243565 0.00147266 0.0098479 0.00146481 0.0281539 0.0014977 0.0200116 0.00198693 0.0337297 0.00235886 0.0268912 0.00290085 0.0460177
58 1 Mg 2.08411 72.3071 1.57206 1.2 1 0.00209086 0.00603718 0.00098785 0.00718739 0.001289 0.0054919 0.00101689 0.024173 0.00223782 0.00985305 0.00205065 0.0272767 0.00175138 0.0212072 0.00277302 0.0343758 0.0029208 0.0262468 0.00318098 0.0468651
59 2 Si -0.461762 70.5253 1.77183 2.4 1 0.00227649 0.00599981 0.000855651 0.0081359 0.0018696 0.00536317 0.0019511 0.0234973 0.00184067 0.00905633 0.00216756 0.0268611 0.0016889 0.0205085 0.00387773 0.0336511 0.00291733 0.026191 0.00306457 0.0473318
60 3 O 1.07662 70.4574 1.72924 -1.2 1 0.00220769 0.00591931 0.00105127 0.00741127 0.00149927 0.00531087 0.00175875 0.0234409 0.0023228 0.00907544 0.00129354 0.0273268 0.00217688 0.0201008 0.00247384 0.0335393 0.0032599 0.0257201 0.00367141 0.0469926
61 3 O -1.45439 74.2001 1.5149 -1.2 1 0.00220347 0.00587199 0.00104783 0.00690233 0.00128485 0.00613276 0.00147822 0.0240025 0.00172809 0.00987071 0.00199888 0.0278851 0.00292652 0.0205944 0.00360501 0.0338921 0.00290368 0.025649 0.00302082 0.0473846
62 3 O -0.949171 71.2872 0.475994 -1.2 1 0.00190203 0.00630478 0.000750716 0.00696898 0.00162195 0.00547465 0.00183977 0.0235916 0.00198144 0.00942328 0.00189723 0.0272163 0.00191444 0.0210056 0.00304248 0.0342705 0.0019929 0.026533 0.0023615 0.0470638
63 1 Mg -2.39599 79.9278 3.23616 1.2 1 0.00286402 0.0056551 0.000828777 0.00575415 0.00143588 0.00654337 0.00122055 0.0232435 0.00105522 0.00942283 0.00143065 0.027983 0.0022057 0.0201062 0.00265074 0.0333293 0.00229008 0.0237256 0.00282062 0.04861
64 3 O -1.21581 71.083 3.01222 -1.2 1 0.00226192 0.00590208 0.00103833 0.00717004 0.00155844 0.00555423 0.00192632 0.0244622 0.00200252 0.00950491 0.00164334 0.0274088 0.00178409 0.020611 0.00278608 0.0339218 0.00242867 0.0263758 0.00305727 0.0469031
65 1 Mg -2.17116 76.9699 4.61109 1.2 1 0.00276619 0.00572942 0.00113461 0.00638705 0.00139206 0.0060274 0.00159592 0.0238229 0.00149884 0.00958824 0.00207501 0.0280578 0.00277465 0.020414 0.00380972 0.0336442 0.00260141 0.0249866 0.00257779 0.0487883
66 2 Si 0.299878 78.899 4.68029 2.4 1 0.00206748 0.00560174 0.00114244 0.00690789 0.00118707 0.00645373 0.0018752 0.0227966 0.00146627 0.00930807 0.00244528 0.0271053 0.00260154 0.0208142 0.00402901 0.0325165 0.00334122 0.0237154 0.00352641 0.0501519
67 3 O -1.23866 78.9085 4.66705 -1.2 1 0.00216 0.00562836 0.000994404 0.0064905 0.00091558 0.00587161 0.00145903 0.0224377 0.00215698 0.00897778 0.00164415 0.0273388 0.00197015 0.0202977 0.00203934 0.0334128 0.00295152 0.0237902 0.00244803 0.0498479
68 3 O 1.16744 75.2453 4.57035 -1.2 1 0.00263294 0.00545664 0.0010091 0.00662685 0.00073651 0.00588318 0.000941367 0.0240731 0.00101897 0.00966988 0.00164887 0.0279615 0.00190611 0.0205774 0.00215324 0.0332233 0.00238221 0.0249211 0.00234833 0.0480984
69 3 O 1.0586 78.2377 3.34808 -1.2 1 0.0024961 0.00616301 0.000986811 0.00622741 0.000750396 0.0061082 0.00182219 0.0238732 0.00128465 0.00936233 0.00207002 0.0267116 0.00246254 0.020707 0.00344581 0.0341114 0.00256387 0.025163 0.00319727 0.0488802
70 3 O 0.992649 78.2891 6.01194 -1.2 1 0.00169357 0.00574299 0.00147571 0.00605546 0.00128698 0.00632514 0.0016536 0.0232459 0.00154315 0.00930981 0.00201262 0.0276721 0.00268231 0.020287 0.00350865 0.0331177 0.00287907 0.0242966 0.00313496 0.0495181
71 1 Mg -0.131246 74.7001 3.15063 1.2 1 0.00248476 0.00587712 0.00130679 0.0063278 0.000784838 0.00607373 0.000782217 0.0237098 0.00150155 0.0100806 0.00105979 0.0283858 0.00181803 0.0205433 0.00214238 0.0340531 0.00281722 0.0253714 0.00210987 0.046458
72 1 Mg -0.153796 71.8263 4.83042 1.2 1 0.00301885 0.00594945 0.000891944 0.00698499 0.000911124 0.00554029 0.00152486 0.0239453 0.00166351 0.0100346 0.00202775 0.0278129 0.00248308 0.0209505 0.00255496 0.0338662 0.00289974 0.0258629 0.00218036 0.0469554
73 2 Si 1.96938 73.7507 4.6603 2.4 1 0.00307792 0.00526897 0.00110382 0.0074317 0.0013368 0.00580776 0.00159714 0.0239633 0.00187428 0.00960131 0.00246309 0.0274142 0.00179858 0.0211903 0.00412459 0.0332999 0.00353561 0.0250447 0.00338818 0.0485996
74 3 O -1.27443 73.9541 4.73101 -1.2 1 0.00256443 0.00560237 0.00108493 0.00694276 0.000832866 0.00564657 0.00101441 0.0240808 0.00177754 0.0095208 0.00149821 0.0277538 0.00278742 0.0205215 0.00285915 0.0338332 0.00352888 0.0249692 0.00267607 0.0479843
75 3 O 0.811087 69.9038 4.72173 -1.2 1 0.00279687 0.0061271 0.000992237 0.00746224 0.00113854 0.00590119 0.00149715 0.0240363 0.00171056 0.0100907 0.00236592 0.0278563 0.00280558 0.020415 0.0035528 0.0330693 0.00300806 0.0258254 0.0032844 0.0461311
76 3 O 1.18122 73.0747 3.49297 -1.2 1 0.00299183 0.00555716 0.00114211 0.00685835 0.0011862 0.00580619 0.00178502 0.0242535 0.00215989 0.00925813 0.00201523 0.0270793 0.00223709 0.0210754 0.00328009 0.0344196 0.00320328 0.0256983 0.00285778 0.0476651
77 1 Mg -0.0788428 74.6956 0.245637 1.2 1 0.00201037 0.00686802 0.0006989 0.00654601 0.000943232 0.00606192 0.000827621 0.0240859 0.00144781 0.00989708 0.00117196 0.0278068 0.00105432 0.0205548 0.00169119 0.034277 0.0022012 0.0265735 0.00252644 0.047344
78 3 O 1.24478 73.0619 5.9566 -1.2 1 0.0027427 0.0053998 0.000763529 0.00691071 0.00085441 0.0058671 0.00118013 0.0240095 0.00161762 0.00972029 0.00167598 0.0272662 0.00195982 0.0214481 0.0029156 0.0336167 0.00259895 0.025356 0.00268582 0.0477546
79 1 Mg -0.149188 77.5278 1.66182 1.2 1 0.0030195 0.00601751 0.00111709 0.00599732 0.00121368 0.00623094 0.0014135 0.0236485 0.00226905 0.00994104 0.00210242 0.0273183 0.00206258 0.0210207 0.00331802 0.0345804 0.00307412 0.0255725 0.00312463 0.0479872
80 2 Si -2.20797 75.7092 1.59847 2.4 1 0.00243921 0.00583438 0.000982997 0.0072569 0.00166374 0.00609848 0.00187002 0.023461 0.00145686 0.00944662 0.00227323 0.0263537 0.00253492 0.0212478 0.0038102 0.0340051 0.00283069 0.0253026 0.00234363 0.0486401
81 3 O 1.00635 75.6933 1.56589 -1.2 1 0.00262837 0.00587713 0.00132234 0.00671973 0.00151812 0.00600087 0.00130289 0.0232512 0.00229108 0.00913474 0.00160925 0.0273616 0.0015946 0.020718 0.00220884 0.0341154 0.00188085 0.0252052 0.00286119 0.0481039
82 3 O -1.0849 79.5358 1.81293 -1.2 1 0.00319486 0.00586716 0.000580721 0.0064422 0.00109117 0.00649561 0.00115095 0.0233871 0.00119496 0.00932931 0.0016315 0.0272653 0.00259107 0.0203596 0.0026561 0.0335761 0.00227475 0.0246443 0.00303709 0.0489102
83 3 O -1.5542 76.4778 0.361854 -1.2 1 0.00232927 0.00611475 0.00107828 0.00667767 0.0013724 0.00607512 0.00166196 0.0234853 0.00168871 0.00980681 0.00179616 0.026653 0.00192227 0.0211978 0.00339373 0.0340261 0.0024308 0.0252781 0.00255092 0.0484329
84 3 O -1.41028 76.2863 3.00605 -1.2 1 0.00274459 0.00577366 0.00146713 0.00615678 0.00184507 0.00623691 0.00167434 0.0237742 0.00181999 0.0090637 0.00184819 0.0267409 0.00295183 0.0208756 0.0032077 0.034346 0.00282349 0.025258 0.00333024 0.0480847
85 1 Mg -2.61444 80.0118 0.503532 1.2 1 0.00309975 0.0058424 0.000918898 0.00611462 0.00107096 0.00681108 0.000841719 0.0230992 0.00100078 0.00942569 0.00118388 0.0276542 0.00176153 0.0201371 0.00185783 0.0335291 0.00172653 0.0241091 0.00281961 0.0477551
86 1 Mg 2.40012 82.9502 2.03936 1.2 1 0.00258518 0.00529218 0.00112534 0.00599851 0.00131059 0.00660073 0.00124872 0.0229664 0.00193999 0.00880136 0.0020892 0.0268987 0.00248685 0.020712 0.00318596 0.0336283 0.00325723 0.0238194 0.00457035 0.0498808
87 2 Si -0.363472 80.9678 1.81186 2.4 1 0.00330327 0.00531713 0.0010445 0.00667305 0.00205928 0.00667349 0.00165921 0.0227245 0.00122532 0.00886759 0.00219007 0.0262791 0.0025688 0.0208362 0.00381659 0.0331614 0.00301061 0.023603 0.0033874 0.0499483
88 3 O 1.18297 80.9734 1.88686 -1.2 1 0.00305475 0.00531616 0.000962227 0.00633255 0.00187199 0.00638214 0.00125991 0.0226154 0.00185127 0.00888494 0.00150934 0.0269334 0.00226783 0.0201759 0.0023319 0.0341484 0.0026234 0.0236516 0.00381602 0.0495112
89 3 O -1.37842 84.7552 1.99426 -1.2 1 0.0029687 0.00443675 0.00148907 0.00584158 0.0014432 0.00702581 0.00138179 0.0231718 0.00160453 0.00837492 0.00185481 0.0272013 0.00313018 0.0196339 0.00347695 0.0332941 0.00334565 0.0236087 0.00537599 0.050152
90 3 O -1.06568 81.7842 0.575225 -1.2 1 0.00360792 0.00559949 0.00138491 0.00597681 0.0016567 0.00639621 0.00116509 0.022966 0.00149043 0.00916073 0.0018112 0.0261622 0.00269986 0.0206604 0.00265899 0.0339603 0.00224837 0.0242696 0.00400636 0.0496053
91 1 Mg -2.36497 90.4466 3.28748 1.2 1 0.00116183 0.00321769 0.00123631 0.00589146 0.00111325 0.0066488 0.000754216 0.0231348 0.00124099 0.00801351 0.00165501 0.0289978 0.00148139 0.019218 0.00223247 0.0338227 0.00232455 0.0247421 0.0021682 0.0514397
92 3 O -1.05401 81.6948 3.09268 -1.2 1 0.00293225 0.00554858 0.000766191 0.00575645 0.00193469 0.00642384 0.00142582 0.0233351 0.0017884 0.0091322 0.00184938 0.0263653 0.00255968 0.021018 0.00306051 0.0339939 0.0030167 0.0238941 0.00401498 0.0498181
93 1 Mg -2.29801 87.6004 4.86311 1.2 1 0.00346189 0.00343212 0.00152462 0.00599998 0.00105934 0.00624837 0.00143886 0.0227747 0.00267671 0.0091347 0.00210616 0.0279702 0.00235888 0.0198405 0.00337255 0.0340198 0.00298189 0.0234396 0.00428184 0.0504101
94 2 Si 0.311561 89.447 4.89177 2.4 1 0.00305698 0.00299611 0.00125514 0.00680073 0.00133034 0.00688878 0.00163498 0.0228 0.00208521 0.00842929 0.00249978 0.0277869 0.00193983 0.0202033 0.00415319 0.0336562 0.00363994 0.0238568 0.00392459 0.052605
95 3 O -1.21734 89.5364 5.00016 -1.2 1 0.00323494 0.00311588 0.0017545 0.00623197 0.00152965 0.00663191 0.00135652 0.0226102 0.00282403 0.00803846 0.00188115 0.0282843 0.0017778 0.019264 0.00279229 0.0348877 0.00254578 0.0245486 0.00289479 0.0523251
96 3 O 1.42344 85.6766 5.02572 -1.2 1 0.00275862 0.00402424 0.000939412 0.00602757 0.000683306 0.00693032 0.00144628 0.0234302 0.00116872 0.00916035 0.00241341 0.0279031 0.00237603 0.020019 0.00296406 0.0337864 0.00284767 0.0232232 0.00406691 0.050774
97 3 O 0.970157 88.7236 3.57766 -1.2 1 0.00182917 0.00330187 0.00100044 0.00596416 0.00116634 0.00640093 0.00194292 0.0234283 0.00214796 0.00867651 0.00177713 0.0272178 0.00206825 0.020232 0.00314917 0.0349314 0.00268931 0.0244637 0.00378532 0.0520766
98 3 O 0.967555 88.75 6.12617 -1.2 1 0.0043141 0.00337397 0.00167079 0.00594391 0.00156972 0.00601047 0.00181339 0.0227239 0.00190825 0.00877233 0.00160899 0.0275636 0.00216877 0.0201803 0.00361844 0.0350666 0.00273716 0.0240522 0.00337769 0.0515614
99 1 Mg 0.0301425 85.3437 3.44118 1.2 1 0.00208509 0.00401855 0.00116333 0.0055323 0.00111324 0.0068318 0.00110529 0.0227564 0.00115324 0.00897335 0.00181504 0.0280699 0.00237461 0.0198246 0.00194957 0.0335279 0.00231465 0.0231341 0.00450888 0.0495219
100 1 Mg 0.0270222 82.3482 4.76828 1.2 1 0.00285526 0.00504169 0.00105086 0.0057032 0.00151813 0.00644753 0.00167423 0.0229126 0.00173512 0.00948962 0.00248443 0.0272856 0.00273656 0.0212679 0.00361899 0.0341584 0.00303113 0.0240741 0.00301958 0.0502407
101 2 Si 2.03156 84.1109 4.84227 2.4 1 0.00267876 0.0041886 0.00132459 0.00647691 0.000978517 0.00682781 0.00204938 0.0226532 0.00116157 0.00921592 0.00238663 0.0265463 0.00219432 0.0208287 0.00448825 0.0334315 0.00386548 0.023043 0.00405519 0.051374
102 3 O -1.0698 84.209 4.89573 -1.2 1 0.00228993 0.00430868 0.00154114 0.00637534 0.0011234 0.00644063 0.0017471 0.0222321 0.00207316 0.00903856 0.00201678 0.0274697 0.00266963 0.0200152 0.00198712 0.0339544 0.00351344 0.0227854 0.00383944 0.0500713
103 3 O 0.994705 80.3822 4.63297 -1.2 1 0.00158213 0.00532761 0.00120217 0.00617688 0.00126504 0.00666304 0.0010347 0.023306 0.00107292 0.00920098 0.00235522 0.0276939 0.00260594 0.0201791 0.00341432 0.0327624 0.00327489 0.0237238 0.00294476 0.0498563
104 3 O 1.40442 83.6092 3.64118 -1.2 1 0.00232451 0.00466082 0.00144088 0.00569928 0.00112919 0.00674757 0.00245574 0.0225808 0.00138363 0.00870289 0.00230783 0.0267001 0.00262311 0.0211998 0.00352953 0.0337922 0.00334074 0.0232298 0.00394501 0.0503851
105 1 Mg -0.075234 85.1354 0.521455 1.2 1 0.00312943 0.00420082 0.00122403 0.00600321 0.00106838 0.00646289 0.000707227 0.0226776 0.00172943 0.00816576 0.00161726 0.0272984 0.00302041 0.0199465 0.0021413 0.0330208 0.00253225 0.0235802 0.00479339 0.0497277
106 3 O 1.3663 83.4743 6.21745 -1.2 1 0.00312163 0.00457149 0.00126296 0.00614754 0.00125154 0.00648119 0.00181719 0.0232771 0.00157319 0.00962927 0.00259771 0.0271622 0.00214737 0.0209006 0.00383306 0.0340467 0.0037901 0.02343 0.00353565 0.0504209
107 1 Mg -0.0815639 88.0164 1.92729 1.2 1 0.000648935 0.00363128 0.000903332 0.00604821 0.00113577 0.00598482 0.00115469 0.0227341 0.00222311 0.00863888 0.00245253 0.0277917 0.00278314 0.0199693 0.00316147 0.0347897 0.0030509 0.0244611 0.00435266 0.0515118
108 2 Si -2.04379 86.2901 1.95479 2.4 1 0.00183447 0.00366719 0.00131641 0.00651801 0.00141676 0.00677683 0.0012016 0.0227069 0.00180076 0.00863196 0.00208977 0.0263533 0.00324495 0.0201217 0.00320215 0.0335043 0.00351136 0.0234599 0.00502983 0.0515972
109 3 O 1.17755 86.0759 1.99455 -1.2 1 0.00254025 0.00402104 0.00115415 0.00593023 0.00136781 0.00641289 0.00128078 0.0224551 0.00237882 0.00821595 0.00165188 0.0271337 0.00263916 0.0195668 0.00316079 0.0335156 0.00282521 0.0233787 0.0047807 0.0502825
110 3 O -1.02735 89.8995 1.92606 -1.2 1 0.000754141 0.00381809 0.00125373 0.00623594 0.00112788 0.00671449 0.00109803 0.0232203 0.00151655 0.00787579 0.00189042 0.0285758 0.00226189 0.0192175 0.00307677 0.0332761 0.00320801 0.0246381 0.00358133 0.0520761
111 3 O -1.35932 86.9662 0.738793 -1.2 1 0.00216363 0.00359503 0.00122571 0.00597125 0.00104902 0.00614819 0.000947892 0.0225712 0.00146887 0.00839579 0.00173033 0.0267757 0.002806 0.0202179 0.00249184 0.0338669 0.00257122 0.0238785 0.00441918 0.051145
112 3 O -1.33002 86.8885 3.20783 -1.2 1 0.00167099 0.00362376 0.000947557 0.00565104 0.00153702 0.0062743 0.00144918 0.0230968 0.00195065 0.00875283 0.00135547 0.0269314 0.00260702 0.0199858 0.00245901 0.0341057 0.00289961 0.023303 0.00479627 0.0509089
113 1 Mg -2.34833 90.1167 0.387522 1.2 1 0.00238383 0.00370767 0.000964108 0.00618111 0.00107668 0.00661342 0.000965731 0.0230383 0.00115081 0.00804945 0.0012428 0.0289063 0.0016195 0.0191847 0.00198106 0.0333038 0.00192508 0.025126 0.00210218 0.0518052
114 1 Mg 2.36148 93.1969 1.75882 1.2 1 0.0017826 0.00380468 0.00141844 0.00631299 0.000989692 0.00620575 0.00152756 0.0228852 0.00196894 0.00817976 0.00247151 0.0291531 0.00218984 0.020201 0.00334835 0.0338433 0.00300345 0.0258903 0.0027084 0.0535631
115 2 Si -0.328155 91.4552 1.89351 2.4 1 0.00121252 0.00343613 0.00109832 0.00658969 0.0012596 0.00678188 0.00175718 0.0228493 0.00112906 0.00775238 0.00251014 0.0281246 0.00235306 0.0199668 0.00393563 0.0334912 0.00326166 0.0253358 0.00286439 0.0537253
116 3 O 1.14128 91.4503 1.70335 -1.2 1 0.00158895 0.00334105 0.00131086 0.0065521 0.00156251 0.00650805 0.00159865 0.0223903 0.00204367 0.00763559 0.00211712 0.0284059 0.00188903 0.019364 0.00216796 0.033812 0.00290757 0.0251427 0.00186985 0.0540258
117 3 O -1.13571 94.9621 1.89792 -1.2 1 0.00183949 0.00391052 0.00108393 0.00654661 0.00096952 0.00725197 0.00111165 0.0234645 0.000997943 0.00785851 0.00173531 0.0291632 0.00204098 0.0199539 0.00250124 0.032438 0.00316883 0.0260444 0.00254102 0.0531031
118 3 O -1.02598 91.9391 0.556782 -1.2 1 0.00208104 0.00367226 0.00104865 0.00649736 0.00139321 0.00630167 0.0019327 0.0231335 0.00118424 0.00809593 0.00263389 0.0281893 0.00221042 0.0204183 0.00392695 0.0335748 0.00339812 0.0258511 0.00318354 0.0537869
119 1 Mg -2.24342 100.791 3.40911 1.2 1 0.00425144 0.00311347 0.0017595 0.0066774 0.00132311 0.00706164 0.00105521 0.0228404 0.00143659 0.00767705 0.00220099 0.0290378 0.00260064 0.0194814 0.0031719 0.0318391 0.00293332 0.0253502 0.00434173 0.0490361