ITEM: TIMESTEP
47400
ITEM: NUMBER OF ATOMS
5600
ITEM: BOX BOUNDS xy xz yz pp pp pp
0	7.1235	0
0	201.985	2.3745
0	119.584	0
ITEM: ATOMS id type element xu yu zu q Q_1 Q_2 Q_3 Q_4 Q_5 Q_6 Q_7 Q_8 Q_9 Q_10 Q_11 Q_12 Q_13 Q_14 Q_15 Q_16 Q_17 Q_18 Q_19 Q_20 Q_21
1 1 Mg -1.76518 48.8496 -0.653037 1.2 1 0.235856 0.081246 0.0195879 0.0269594 0.00689333 0.0141777 0.00498386 0.0200152 0.00480373 0.0246464 0.00710493 0.0286531 0.0108095 0.0305565 0.00827714 0.0253839 0.00769968 0.023641 0.00935043 0.0318232
2 1 Mg 3.04468 50.8381 2.41521 1.2 1 0.18645 0.0696448 0.00914452 0.0214765 0.00342278 0.0106352 0.00325646 0.0181536 0.00410608 0.0214771 0.00399999 0.026043 0.0057773 0.0273776 0.0052485 0.0227163 0.0068891 0.0197308 0.00865101 0.0318124
3 2 Si 0.717919 50.6727 0.471085 2.4 1 0.193595 0.0721445 0.0119141 0.0222306 0.00463624 0.0108166 0.00301595 0.0188483 0.00475146 0.0218648 0.00418108 0.0277961 0.00739493 0.028487 0.00535774 0.0243249 0.00708082 0.0203413 0.00850921 0.0322478
4 3 O 1.98293 49.7182 0.854865 -1.2 1 0.208973 0.0752409 0.0144167 0.0243016 0.00515809 0.0119261 0.00361675 0.0183509 0.00514593 0.0228659 0.00468533 0.027078 0.00809329 0.029328 0.00730646 0.0232618 0.00815604 0.0208965 0.00816588 0.031243
5 3 O -1.39734 53.5056 2.08316 -1.2 1 0.124332 0.0502231 0.00240842 0.0141581 0.0021779 0.00878209 0.00262651 0.0182983 0.003188 0.0172414 0.00337538 0.0264979 0.00457151 0.0238311 0.0033013 0.0242592 0.00522837 0.0196071 0.0066979 0.0340094
6 3 O -0.0907341 49.8804 -0.572322 -1.2 1 0.205845 0.0749945 0.0140522 0.0233767 0.00535522 0.0126726 0.00337605 0.0195315 0.00431182 0.0231145 0.00469385 0.0273375 0.0081508 0.029694 0.00555393 0.0241848 0.00745623 0.02123 0.00785907 0.0317019
7 1 Mg -2.43476 59.4014 3.3863 1.2 1 0.0197225 0.0103317 0.00446527 0.00566341 0.0018955 0.00662383 0.00215345 0.0210847 0.00330621 0.011849 0.00227619 0.0271768 0.00341223 0.0204539 0.00511299 0.0289369 0.00507573 0.0229079 0.00656418 0.0415454
8 3 O -0.0673045 50.9577 1.79391 -1.2 1 0.177596 0.0681837 0.00911415 0.0208002 0.00361889 0.00994889 0.00310517 0.0185423 0.00451773 0.0215297 0.00379297 0.0262268 0.00555345 0.0273018 0.0056467 0.0241634 0.00735744 0.0201766 0.00780644 0.0319556
9 1 Mg -2.34922 56.5473 4.81958 1.2 1 0.0629951 0.0299909 0.00571096 0.008901 0.00163709 0.00646592 0.00321145 0.0189762 0.00253422 0.0140549 0.00226315 0.0260008 0.00265364 0.0216661 0.00483466 0.0256143 0.00438086 0.0213308 0.00557216 0.0367902
10 2 Si 0.312783 58.4097 4.88501 2.4 1 0.0265869 0.0146826 0.00569696 0.00625789 0.00141542 0.00607395 0.00299879 0.0206033 0.00291652 0.0113775 0.00309517 0.0262316 0.00348381 0.0211958 0.00627334 0.0274439 0.00521076 0.0215332 0.00693631 0.0406475
11 3 O -1.32753 58.485 4.81387 -1.2 1 0.0268211 0.014962 0.00626988 0.00600946 0.00158345 0.00576493 0.002919 0.0201003 0.00335047 0.0113783 0.00240276 0.0262959 0.00350051 0.0204709 0.00489216 0.0281851 0.0053771 0.0212307 0.00586549 0.0404509
12 3 O 1.66495 53.98 5.06772 -1.2 1 0.115418 0.0469372 0.00170635 0.0141714 0.00164576 0.00841618 0.00293661 0.0186921 0.00290156 0.0174757 0.00310051 0.0259613 0.00422312 0.0232914 0.00425289 0.0224844 0.00457452 0.0192725 0.00586876 0.0343089
13 3 O 1.02213 57.6192 3.64528 -1.2 1 0.0413814 0.0226157 0.00652433 0.00749508 0.00175489 0.00609351 0.00254864 0.0201114 0.00257641 0.0123018 0.00267572 0.0260377 0.00285901 0.0213914 0.00525943 0.0270094 0.00493192 0.0216387 0.00587341 0.0383741
14 3 O 1.08245 57.7363 6.14106 -1.2 1 0.0347396 0.018603 0.00674934 0.00628952 0.00133305 0.00624513 0.0029053 0.0206365 0.00262571 0.0119138 0.00235136 0.0258502 0.00306945 0.0204449 0.00599079 0.0268424 0.00473398 0.0214811 0.00656856 0.0396783
15 1 Mg 0.184268 53.3244 3.15383 1.2 1 0.128644 0.0527339 0.00111978 0.0155866 0.00184981 0.00949838 0.00306147 0.0179572 0.0040211 0.0181494 0.00289898 0.0260055 0.00412841 0.0239496 0.00441666 0.0230374 0.00479523 0.0189669 0.00694983 0.0337179
16 1 Mg 0.708465 49.6862 3.25934 1.2 1 0.208901 0.0748844 0.0134807 0.0251763 0.00384821 0.0124605 0.00298648 0.0186136 0.00422611 0.0228802 0.00416273 0.0263112 0.00706549 0.0288288 0.00653115 0.0225498 0.00874264 0.0203727 0.00990027 0.0322585
17 2 Si 2.38369 52.5309 4.99188 2.4 1 0.153281 0.0590869 0.00388548 0.0184851 0.00258944 0.00983422 0.00310712 0.0174335 0.00345375 0.0190625 0.00425286 0.0259172 0.00513531 0.0247454 0.00554103 0.0219535 0.0055862 0.0185836 0.00823744 0.0329623
18 3 O -0.819017 52.8542 4.98923 -1.2 1 0.141632 0.0553592 0.00214699 0.0163857 0.00272488 0.00858094 0.00340944 0.0177239 0.00397878 0.018133 0.00317029 0.0263178 0.00504854 0.0253802 0.00397221 0.022198 0.00552407 0.0182233 0.00757087 0.0340194
19 3 O 2.5888 49.0923 3.46026 -1.2 1 0.224455 0.0794129 0.0149205 0.0275455 0.00473263 0.0134105 0.00344579 0.018995 0.0044496 0.0245306 0.00499342 0.0267779 0.00924311 0.0283682 0.00826671 0.0215726 0.00885352 0.0210461 0.0106816 0.0315979
20 3 O 1.70445 51.8975 3.57672 -1.2 1 0.158337 0.0611096 0.00459811 0.01804 0.003277 0.00948959 0.00317292 0.0185337 0.00371776 0.0201018 0.00339649 0.0264621 0.00556984 0.0262379 0.00599467 0.0227904 0.00528626 0.0193173 0.00834027 0.0330434
21 1 Mg -0.093935 53.979 0.398321 1.2 1 0.114386 0.0495829 0.0012245 0.0135233 0.00236185 0.00870889 0.00233768 0.0187735 0.00325109 0.0172806 0.00309278 0.0271616 0.00376745 0.023614 0.00374776 0.0253988 0.0049415 0.020668 0.00636118 0.0337915
22 3 O 1.73528 51.5597 6.10246 -1.2 1 0.163928 0.0631906 0.004306 0.0194301 0.00247465 0.0104089 0.00293123 0.0185183 0.00373248 0.0202557 0.00440995 0.0261043 0.00522294 0.0252821 0.0056615 0.0213238 0.00606728 0.0173845 0.00854703 0.0324315
23 1 Mg 0.0486098 56.798 1.94927 1.2 1 0.0477866 0.0265194 0.00699393 0.00794551 0.00199133 0.00647911 0.00197198 0.0193764 0.0044279 0.0132104 0.002875 0.0268124 0.00319347 0.0219308 0.00536247 0.0262642 0.00592513 0.0215258 0.00594612 0.0379714
24 2 Si -2.03319 54.9561 2.04772 2.4 1 0.0958453 0.0435142 0.00226485 0.0120727 0.00230377 0.00732354 0.00224895 0.0181982 0.00446078 0.0153372 0.00269655 0.0258211 0.00316711 0.0233092 0.00392063 0.0251521 0.00571113 0.0198547 0.00597458 0.0354144
25 3 O 1.20062 54.8005 1.84541 -1.2 1 0.100852 0.0438074 0.00103172 0.0121894 0.00194357 0.00771184 0.00270514 0.0180489 0.00363537 0.0155968 0.00285585 0.025987 0.00397822 0.0227358 0.00444716 0.0254177 0.00474978 0.0200635 0.00642173 0.0348096
26 3 O -0.761575 58.8218 1.9793 -1.2 1 0.0239727 0.0144892 0.00611434 0.00640787 0.00222178 0.00669348 0.0014423 0.0216466 0.00384029 0.0114655 0.00250978 0.0272077 0.00345371 0.0216539 0.0054692 0.0290509 0.00551337 0.0231842 0.0071085 0.0414333
27 3 O -1.3644 55.6225 0.666577 -1.2 1 0.0754284 0.0379346 0.00418969 0.00983826 0.00296084 0.00697569 0.00252966 0.0193352 0.00393276 0.0141456 0.00291424 0.0261279 0.00308453 0.0228523 0.00458177 0.0269458 0.00525435 0.021472 0.00621052 0.036597
28 3 O -1.30287 55.8118 3.14929 -1.2 1 0.0767264 0.0350755 0.00348154 0.00972265 0.00165988 0.00701168 0.00213949 0.0192408 0.00397743 0.0146105 0.00246561 0.026383 0.00262031 0.0221027 0.00395526 0.025422 0.00553072 0.0212008 0.00572498 0.0359237
29 1 Mg -2.30719 59.1117 0.491739 1.2 1 0.0205165 0.013715 0.00549533 0.00649332 0.00136279 0.00681113 0.00129324 0.022006 0.00314224 0.0113206 0.00227599 0.0277549 0.00311608 0.0221756 0.00486169 0.0292376 0.00475841 0.0245471 0.00567777 0.0419317
30 1 Mg 2.30645 62.053 1.74048 1.2 1 0.0118358 0.00506864 0.00200378 0.00626891 0.00264336 0.00635669 0.00111575 0.0224494 0.00306515 0.00969885 0.00281231 0.027959 0.00299072 0.0207082 0.00480369 0.0312782 0.00446795 0.0255122 0.00587525 0.0465556
31 2 Si -0.277618 60.3697 1.78822 2.4 1 0.0147686 0.00741556 0.00306222 0.00685104 0.00263839 0.00663696 0.00148589 0.0215294 0.00278463 0.0107025 0.00259351 0.0269872 0.00400431 0.0214274 0.0048467 0.0302003 0.00431652 0.0243633 0.00579902 0.044702
32 3 O 1.23552 60.3602 1.909 -1.2 1 0.0142007 0.00639645 0.00254042 0.00655105 0.00289533 0.00663192 0.00134889 0.0212942 0.00342094 0.00982562 0.00184622 0.0272798 0.00364097 0.0205979 0.00595292 0.0300115 0.00419724 0.0238121 0.0073308 0.0442124
33 3 O -1.23101 64.025 1.76905 -1.2 1 0.0118642 0.0047699 0.00266941 0.00640035 0.00306484 0.00669976 0.00122156 0.0231892 0.00248405 0.00930423 0.00169587 0.028304 0.00329298 0.0193379 0.00460515 0.0310621 0.00292589 0.0259816 0.00519088 0.0484309
34 3 O -1.02139 60.9159 0.473941 -1.2 1 0.0133567 0.00750705 0.00273537 0.00649569 0.00233007 0.00673271 0.00138084 0.0229247 0.00301293 0.00989287 0.00218609 0.0275097 0.00307791 0.0216148 0.0039633 0.03072 0.00396991 0.0254227 0.00558055 0.044489
35 1 Mg -2.53895 69.789 3.07992 1.2 1 0.00242573 0.00356273 0.00167208 0.00603053 0.00107422 0.00721891 0.00104259 0.0222718 0.00112951 0.00876043 0.0013127 0.0283807 0.00210095 0.0179922 0.00314995 0.0308378 0.00355819 0.0269809 0.0041107 0.0499946
36 3 O -1.05272 61.0393 3.03757 -1.2 1 0.0138205 0.0060255 0.00196388 0.00574093 0.00274224 0.00615874 0.0011144 0.0222056 0.00268368 0.0103633 0.00210671 0.0264208 0.00450118 0.0214203 0.0055049 0.0306364 0.00453105 0.0241481 0.00683095 0.0453212
37 1 Mg -2.35392 67.0512 4.53524 1.2 1 0.00623368 0.0042191 0.00289306 0.00588725 0.00177158 0.00593839 0.00152717 0.0216217 0.00261329 0.00854451 0.00207245 0.0273562 0.00296627 0.0190835 0.00436778 0.0322985 0.00385534 0.0258544 0.00475458 0.0504326
38 2 Si 0.261796 68.8467 4.54334 2.4 1 0.00224952 0.00390626 0.0024081 0.00674972 0.00138835 0.00724063 0.00135423 0.0217562 0.00218502 0.00811194 0.00209062 0.0267379 0.0024359 0.0189019 0.00429541 0.0306076 0.00467996 0.025977 0.00456272 0.0513678
39 3 O -1.27682 68.8313 4.53601 -1.2 1 0.0024346 0.00366929 0.00229643 0.00638556 0.0014949 0.00719076 0.00137892 0.0218798 0.00208593 0.0082693 0.00156787 0.0275233 0.00245952 0.0177285 0.00299986 0.0315331 0.0036309 0.026771 0.00425791 0.0504109
40 3 O 1.33981 65.2003 4.57247 -1.2 1 0.00855384 0.00375131 0.00280818 0.00593482 0.00264718 0.00654603 0.00131883 0.0223484 0.00186093 0.00904279 0.00243488 0.0273523 0.00340045 0.0186657 0.00463605 0.031328 0.00423952 0.0257223 0.00506029 0.0493283
41 3 O 0.988729 68.3085 3.20092 -1.2 1 0.00467251 0.00355436 0.00240152 0.00584406 0.00156643 0.00683934 0.00205785 0.0226325 0.00152431 0.00856093 0.00179764 0.0269381 0.00224799 0.0186726 0.00403363 0.0311279 0.00391237 0.0267303 0.00455595 0.0510545
42 3 O 0.994786 68.053 5.7681 -1.2 1 0.00336168 0.00429071 0.00229517 0.00588617 0.00148764 0.00672445 0.00149311 0.0219471 0.00216969 0.00834625 0.00132312 0.0266342 0.0028041 0.0185244 0.0040598 0.0319566 0.00410249 0.0267381 0.00453784 0.0503644
43 1 Mg -0.0934844 64.776 3.31302 1.2 1 0.0106471 0.0041809 0.00285549 0.00573798 0.00292344 0.00701465 0.0011639 0.022749 0.00191363 0.00959752 0.00224382 0.0277301 0.0032918 0.0189986 0.00427012 0.0307375 0.00376285 0.025889 0.00512542 0.0486897
44 1 Mg -0.0242572 61.6327 4.77592 1.2 1 0.0131999 0.00448791 0.00225032 0.00577318 0.00216779 0.00615489 0.00193585 0.0219789 0.00246224 0.010461 0.00234943 0.0267684 0.00384376 0.0203611 0.00589691 0.030974 0.00386831 0.0239649 0.00720986 0.0456461
45 2 Si 2.12643 63.7632 4.61821 2.4 1 0.0101087 0.00347648 0.00292611 0.00658539 0.00265009 0.00674125 0.00146977 0.0221181 0.00239643 0.00938262 0.00244593 0.0270382 0.00313434 0.0201479 0.00595599 0.0297799 0.00471237 0.0247349 0.0062104 0.0491456
46 3 O -1.10578 63.6601 4.83285 -1.2 1 0.0103109 0.00341457 0.00268996 0.00660868 0.00267351 0.00652637 0.00153086 0.0212839 0.00254737 0.00894951 0.00214807 0.0272578 0.00351543 0.0190005 0.0045505 0.0311147 0.00417525 0.0246811 0.00542926 0.0487261
47 3 O 1.04732 59.9473 4.8349 -1.2 1 0.0174669 0.00830687 0.00342838 0.00558617 0.00163349 0.00657938 0.00242778 0.0215685 0.00266931 0.0110993 0.00222024 0.0266714 0.00301028 0.0205541 0.00544019 0.0287819 0.00373367 0.0222275 0.00577219 0.0434023
48 3 O 1.52875 63.0031 3.4046 -1.2 1 0.0120725 0.00394691 0.00290423 0.00597629 0.00273876 0.00622716 0.00258267 0.0225791 0.00277097 0.00897215 0.00237632 0.026758 0.004135 0.0197788 0.00649453 0.0314756 0.0046858 0.0253432 0.00651423 0.0480773
49 1 Mg 0.089829 64.3832 0.198296 1.2 1 0.0107827 0.00525059 0.00206045 0.00632916 0.00236362 0.00637596 0.00105806 0.0228032 0.0019521 0.00912015 0.00161216 0.0287794 0.00277857 0.0193432 0.00350414 0.0314996 0.00253397 0.0263098 0.00408069 0.0475749
50 3 O 1.41246 63.1295 5.96451 -1.2 1 0.0104725 0.0040724 0.00265749 0.00648554 0.00245396 0.00622937 0.0021803 0.0220775 0.00212737 0.00945262 0.00205833 0.0262171 0.00328544 0.019346 0.00574541 0.0318329 0.00434513 0.0249483 0.00642201 0.0480188
51 1 Mg 0.0275502 67.4791 1.50189 1.2 1 0.00684626 0.00479354 0.00220266 0.00595198 0.00183396 0.00633279 0.000964917 0.0231808 0.00187062 0.00852501 0.0020892 0.0279751 0.00224405 0.0193031 0.00372657 0.0311625 0.00342787 0.026837 0.00431388 0.0508458
52 2 Si -2.00968 65.5572 1.69236 2.4 1 0.010057 0.00459449 0.00250804 0.00657398 0.00298223 0.00652026 0.00143959 0.0228289 0.00214793 0.00841777 0.00259213 0.0272889 0.00342114 0.0198582 0.00403842 0.0307413 0.00305164 0.0262001 0.00426178 0.0503599
53 3 O 1.13106 65.5605 1.75071 -1.2 1 0.00989321 0.00449782 0.00220415 0.00617257 0.00294365 0.00591393 0.00127313 0.0220065 0.00251032 0.00839009 0.00218234 0.0274657 0.0031473 0.019233 0.00440697 0.0312582 0.00367712 0.0258011 0.00554988 0.0501647
54 3 O -0.968513 69.1466 1.63304 -1.2 1 0.00409526 0.00411139 0.00188817 0.00620739 0.00126553 0.00681922 0.000873493 0.0231401 0.00111271 0.00832382 0.0016566 0.0279889 0.00256994 0.0183516 0.00353699 0.0307071 0.00358969 0.0267183 0.00523234 0.0505773
55 3 O -1.41715 66.2825 0.348913 -1.2 1 0.00915704 0.00490449 0.00205647 0.00582987 0.00225589 0.00609661 0.00112823 0.0232211 0.00188589 0.00836507 0.00133827 0.0273468 0.00282192 0.0200183 0.00296098 0.0315058 0.00251265 0.0267647 0.0039988 0.0501293
56 3 O -1.5034 66.2889 2.97347 -1.2 1 0.00807736 0.00436148 0.00274724 0.0056778 0.00233566 0.00615798 0.00126822 0.0227773 0.00206007 0.00843119 0.00200709 0.0269256 0.00277247 0.0194901 0.00362548 0.0315456 0.00375012 0.0263951 0.00506194 0.0502961
57 1 Mg -2.18153 69.6971 0.141508 1.2 1 0.00362284 0.00474798 0.00140113 0.00619393 0.00127119 0.00666613 0.00105797 0.0231621 0.000926171 0.00826125 0.00114189 0.0288454 0.00183153 0.0180995 0.00200869 0.0307849 0.00238105 0.0267527 0.00298041 0.0499598
58 1 Mg 2.14595 72.454 1.36449 1.2 1 0.00265527 0.00345782 0.00111149 0.00657008 0.000884539 0.0060683 0.00126909 0.0226039 0.00115873 0.00828772 0.0015532 0.0277564 0.00237021 0.0186615 0.00292433 0.0319688 0.00331081 0.0270057 0.0040136 0.050512
59 2 Si -0.364898 70.6487 1.61853 2.4 1 0.00158298 0.0035461 0.00158941 0.00703921 0.00122051 0.00720028 0.00122602 0.0224225 0.00160717 0.00825994 0.00184082 0.0265281 0.00223797 0.0190467 0.00307977 0.0307389 0.00332686 0.0266105 0.00405149 0.0511729
60 3 O 1.15349 70.7384 1.4311 -1.2 1 0.00147496 0.00403541 0.00161504 0.00667801 0.000995418 0.00638606 0.00145586 0.0220801 0.00175693 0.00767569 0.00160732 0.0277706 0.00245919 0.0185073 0.00277666 0.0311863 0.00357439 0.0261164 0.00426094 0.0503464
61 3 O -1.62989 74.4456 1.48139 -1.2 1 0.00348378 0.00311219 0.0010125 0.00712962 0.000704568 0.00687279 0.000850551 0.0231405 0.000970847 0.0085241 0.00224389 0.0279374 0.0023942 0.018298 0.00313155 0.030953 0.00329191 0.0273004 0.00392079 0.0499707
62 3 O -1.19907 71.4605 0.343893 -1.2 1 0.00147462 0.00411175 0.00132811 0.00629762 0.00122601 0.0061986 0.00118768 0.0226794 0.00142591 0.00757147 0.00161718 0.0271207 0.00249509 0.0189885 0.00257319 0.0316415 0.00272477 0.0267563 0.00317377 0.0507202
63 1 Mg -2.55498 80.1886 3.1225 1.2 1 0.00110154 0.00474497 0.00118268 0.00791175 0.00109817 0.00647392 0.00132726 0.0239339 0.00113811 0.00951719 0.00131796 0.0285068 0.00195734 0.0187825 0.00283848 0.0313083 0.0028541 0.0280086 0.00360026 0.0488828
64 3 O -1.12898 71.2552 2.93561 -1.2 1 0.00141276 0.00346118 0.00118925 0.00626393 0.00109377 0.00669128 0.00151781 0.0226651 0.00165103 0.00839806 0.00202235 0.0269899 0.00257686 0.0183217 0.00262993 0.0316906 0.00323979 0.0273238 0.00394735 0.0507999
65 1 Mg -2.46513 77.2597 4.69518 1.2 1 0.00268893 0.00430118 0.00133991 0.00721174 0.00106435 0.00614352 0.00186163 0.0234224 0.00232866 0.00948094 0.00223308 0.0278022 0.00248019 0.0189947 0.00386561 0.0315155 0.00345829 0.0272633 0.00363712 0.0493186
66 2 Si 0.393176 79.1003 4.72065 2.4 1 0.00193868 0.00486558 0.00156425 0.0080332 0.00132258 0.00661095 0.00162498 0.0236465 0.00166776 0.00953774 0.00232526 0.0270347 0.00313583 0.0194027 0.00379528 0.0316297 0.00395572 0.0272597 0.00503338 0.0504726
67 3 O -1.23093 79.258 4.68089 -1.2 1 0.00189806 0.00484512 0.00117149 0.00762176 0.00139218 0.00645836 0.00155225 0.0234139 0.00243326 0.00923758 0.00155696 0.0278541 0.00240152 0.0186956 0.00261553 0.0315781 0.00254648 0.0275324 0.00441395 0.0498207
68 3 O 1.27354 75.2816 4.47865 -1.2 1 0.00434218 0.00355123 0.00119331 0.00764996 0.00112982 0.00732784 0.00170784 0.0227913 0.00192373 0.00896526 0.00173138 0.0279886 0.0022653 0.0186656 0.00289131 0.0306591 0.00371161 0.0269482 0.00316831 0.0493884
69 3 O 1.00998 78.5203 3.29407 -1.2 1 0.00222476 0.00447424 0.00134529 0.00739417 0.00166478 0.00636626 0.00235927 0.0237966 0.00162976 0.00912625 0.00228034 0.0271611 0.00308692 0.019295 0.00407641 0.031761 0.00347318 0.0279364 0.00347321 0.0497648
70 3 O 1.1726 78.3193 5.85983 -1.2 1 0.00188395 0.00517548 0.00150378 0.00704959 0.00143623 0.0062649 0.00167507 0.0239201 0.00160066 0.0094551 0.00150879 0.0274317 0.0029891 0.0193739 0.00349852 0.031689 0.00347833 0.0269564 0.00412691 0.0497258
71 1 Mg -0.343797 75.0747 3.12843 1.2 1 0.00388886 0.00301419 0.00049457 0.0069641 0.000879747 0.0069442 0.00119786 0.0230234 0.00116741 0.0093586 0.00150752 0.0285594 0.00191151 0.0183855 0.0019462 0.0309002 0.00308771 0.0273753 0.00313283 0.0487684
72 1 Mg 0.00987724 72.0058 4.59329 1.2 1 0.00251726 0.00383651 0.00109664 0.00649806 0.000985673 0.00667985 0.00145507 0.0225681 0.00212107 0.00879062 0.00227905 0.0279061 0.00242268 0.018374 0.00347849 0.0317789 0.00410675 0.0274799 0.00378634 0.0500772
73 2 Si 1.90039 73.8755 4.46846 2.4 1 0.00465976 0.00341778 0.000471906 0.00738194 0.00162106 0.00712079 0.00180363 0.0225052 0.00168892 0.00832372 0.00196506 0.0272413 0.00265341 0.0188892 0.00351125 0.030938 0.00396443 0.02747 0.0031993 0.0500954
74 3 O -1.30909 74.0811 4.55054 -1.2 1 0.00418322 0.00355895 0.000628704 0.00709266 0.00113698 0.00686595 0.00144311 0.0227695 0.00202834 0.00842204 0.00150201 0.0277934 0.00234613 0.0185115 0.0024771 0.0314317 0.00350396 0.0269212 0.00311974 0.0499587
75 3 O 0.86974 70.267 4.60566 -1.2 1 0.000850273 0.0042059 0.00139875 0.00660281 0.000886364 0.00739503 0.00161426 0.0225166 0.00130685 0.00853343 0.00199193 0.0280332 0.00301567 0.0179325 0.0037927 0.0310734 0.0041763 0.0268974 0.00366789 0.0504991
76 3 O 1.2006 73.1194 3.26034 -1.2 1 0.00326587 0.00302466 0.000480275 0.00652058 0.00120092 0.00670952 0.00159328 0.0227822 0.0017054 0.00866979 0.00188133 0.0267147 0.00247771 0.0190698 0.00316557 0.0317352 0.00346993 0.0276014 0.00337809 0.0501588
77 1 Mg -0.246243 74.7946 -0.0382819 1.2 1 0.00335076 0.00319596 0.000906531 0.00684912 0.00112352 0.00660555 0.000853204 0.0232644 0.00110068 0.00878472 0.00106075 0.0282381 0.00176946 0.0187304 0.00183733 0.030675 0.00210365 0.0275742 0.00186109 0.0494952
78 3 O 1.13539 73.2653 5.82556 -1.2 1 0.00378674 0.0037915 0.00103284 0.00670772 0.00183096 0.00701453 0.00222304 0.0227624 0.00203472 0.00858699 0.00203769 0.0270431 0.00249859 0.0186232 0.00277643 0.031881 0.00378595 0.0272562 0.00285732 0.0501058
79 1 Mg -0.140184 77.8167 1.57135 1.2 1 0.00351536 0.00387452 0.00106239 0.00768972 0.000970602 0.00589644 0.00146122 0.0237416 0.0019202 0.00954847 0.00244224 0.0279515 0.00238854 0.0192029 0.00342177 0.0317033 0.00288365 0.0281033 0.00330363 0.0492641
80 2 Si -2.30911 75.8751 1.47966 2.4 1 0.0036771 0.00293099 0.000797727 0.00769493 0.000841577 0.00663968 0.00104858 0.0233544 0.00169378 0.00851957 0.00189993 0.0269204 0.00251208 0.0190237 0.00269604 0.0306906 0.003182 0.0275237 0.00324052 0.0502752
81 3 O 0.887419 75.7578 1.58635 -1.2 1 0.00360533 0.0029738 0.000794543 0.00747763 0.000973105 0.0064693 0.00142944 0.0227095 0.00212403 0.0085982 0.00185687 0.0278995 0.00205847 0.0185622 0.00252795 0.0308017 0.00248562 0.0271005 0.00301459 0.0499171
82 3 O -1.00252 79.6495 1.46483 -1.2 1 0.00153095 0.0045735 0.00128712 0.00856688 0.000985188 0.00648586 0.000916143 0.0241932 0.00151417 0.00940049 0.00177212 0.0280264 0.00187782 0.0189128 0.00313406 0.0310294 0.00326321 0.0282178 0.00398228 0.0490108
83 3 O -1.53022 76.5259 0.16328 -1.2 1 0.00380967 0.00349371 0.00112944 0.00716339 0.00118338 0.00589896 0.00129845 0.0237253 0.00160632 0.00863505 0.00189095 0.0269905 0.00211392 0.0191939 0.00324872 0.0316138 0.00290912 0.0278007 0.0022995 0.0496495
84 3 O -1.57243 76.6511 2.78652 -1.2 1 0.00346052 0.00312016 0.000708269 0.00707579 0.00130514 0.00626233 0.00139779 0.023374 0.00105835 0.00896781 0.00183237 0.0271509 0.00327631 0.0191009 0.00404497 0.0316931 0.00325277 0.0274162 0.00293025 0.0495262
85 1 Mg -2.65292 80.2202 0.0432885 1.2 1 0.00235601 0.00478223 0.00132413 0.00820696 0.000942136 0.00631803 0.000873399 0.0240578 0.0012872 0.00957733 0.00137404 0.0288 0.00159302 0.0187868 0.0025056 0.0315621 0.0027883 0.0282788 0.00292725 0.0479979
86 1 Mg 2.3479 82.9902 1.55663 1.2 1 0.000668821 0.00483053 0.000950074 0.0078733 0.00107936 0.00590311 0.00133264 0.0241238 0.0020285 0.00984969 0.00213985 0.0284339 0.00213627 0.0194941 0.00329581 0.0326862 0.00333856 0.0283008 0.00314091 0.0486992
87 2 Si -0.389089 81.1699 1.55993 2.4 1 0.00106028 0.00496 0.0012865 0.00887209 0.00148363 0.00625764 0.00165212 0.0237179 0.0017199 0.00972608 0.00214882 0.0271977 0.00207937 0.0196967 0.00355655 0.0314466 0.00328732 0.0277677 0.003588 0.0493199
88 3 O 1.18156 81.142 1.70483 -1.2 1 0.000617871 0.00524045 0.00130831 0.00846219 0.000981896 0.00562204 0.00111098 0.0231603 0.00184847 0.00932049 0.00147751 0.0279202 0.00230649 0.0189962 0.00284285 0.0317623 0.00355234 0.0272879 0.00417172 0.0489346
89 3 O -1.50919 84.7744 1.51621 -1.2 1 0.000357347 0.00476635 0.00135187 0.00819984 0.00104365 0.00599426 0.00113903 0.0244376 0.00126449 0.00993468 0.00216363 0.0289135 0.00246128 0.0192946 0.0038351 0.0312851 0.0029362 0.0268775 0.00260008 0.0478929
90 3 O -1.0847 81.8201 0.260646 -1.2 1 0.00149168 0.00482817 0.00102845 0.00818694 0.00104703 0.00602974 0.00185711 0.0242179 0.0017788 0.00957296 0.00203494 0.0273694 0.00239965 0.020018 0.00239102 0.0321926 0.00274472 0.027864 0.00301803 0.0488115
91 1 Mg -2.56596 90.5897 2.73275 1.2 1 0.00132947 0.00414315 0.000948281 0.00794644 0.000968537 0.00589176 0.00126069 0.0230872 0.001143 0.0102638 0.00154168 0.0286088 0.00193495 0.0187979 0.00303881 0.0315241 0.00373663 0.0258265 0.00282461 0.0456821
92 3 O -1.11331 81.747 2.80464 -1.2 1 0.000330627 0.00511004 0.00136737 0.00810449 0.00151783 0.00599524 0.00141949 0.0238231 0.00148302 0.00972326 0.00213511 0.027548 0.00223502 0.0202103 0.0030217 0.0316338 0.00290327 0.0277571 0.0037309 0.0494768
93 1 Mg -2.36923 87.6446 4.48341 1.2 1 0.00158583 0.00484272 0.00100773 0.00800239 0.00130424 0.00575594 0.00138625 0.0235855 0.0013979 0.010343 0.00264284 0.0285613 0.00208566 0.0199329 0.00339957 0.0323264 0.00340895 0.0268372 0.00276251 0.0489213
94 2 Si 0.253892 89.441 4.35577 2.4 1 0.0023294 0.00422118 0.000905397 0.00897006 0.00162337 0.00590333 0.00140835 0.0230269 0.00155114 0.00996113 0.00231973 0.0280592 0.00287712 0.0196224 0.00444206 0.0316255 0.0047725 0.0259424 0.00349903 0.0486735
95 3 O -1.25737 89.5336 4.38684 -1.2 1 0.00225708 0.00420359 0.00132308 0.00870969 0.00167406 0.00570164 0.00139213 0.0226063 0.00257151 0.00977684 0.00248365 0.0282898 0.00241321 0.019104 0.00311945 0.0323367 0.0032497 0.0259458 0.00402185 0.0485402
96 3 O 1.43732 85.8172 4.54257 -1.2 1 0.00190051 0.00488319 0.000785045 0.00797839 0.00125574 0.00601794 0.0010731 0.0238923 0.00108085 0.0098768 0.00192752 0.0290357 0.00219615 0.0188986 0.00310659 0.0312109 0.00380107 0.0267093 0.00308118 0.0489729
97 3 O 1.00815 88.7428 3.1121 -1.2 1 0.00195079 0.00449609 0.000928986 0.0082874 0.00195801 0.00582374 0.00192187 0.0237259 0.00155678 0.0101889 0.00178102 0.0279493 0.00299269 0.0199229 0.00337299 0.0324129 0.00383198 0.026543 0.00351057 0.0474667
98 3 O 1.0002 88.8128 5.72618 -1.2 1 0.00227346 0.00466205 0.000708944 0.0080612 0.00176362 0.00568018 0.0019217 0.0234987 0.00166251 0.00974327 0.00195732 0.027972 0.00261784 0.0203342 0.0037067 0.0318476 0.00404884 0.0262295 0.00285809 0.0490499
99 1 Mg -0.118359 85.2622 2.97868 1.2 1 0.00109537 0.00482394 0.000942265 0.00791187 0.00123602 0.00621661 0.00101727 0.0239085 0.00114963 0.00995397 0.00130047 0.0295401 0.00164895 0.0188436 0.00249458 0.0311615 0.00312388 0.0270582 0.00213679 0.0477348
100 1 Mg -0.108583 82.5115 4.55387 1.2 1 0.00212991 0.00499314 0.00116382 0.00764839 0.00131886 0.00558868 0.00146009 0.0235856 0.00198128 0.00989667 0.00187054 0.0284772 0.0024396 0.0196483 0.00355727 0.0316269 0.00338803 0.0278293 0.00381136 0.0499936
101 2 Si 1.993 84.346 4.60231 2.4 1 0.00163638 0.00485325 0.000536007 0.00851094 0.00168601 0.00605975 0.00137254 0.0235414 0.00157163 0.00957214 0.00236762 0.0278057 0.00266049 0.019745 0.0049127 0.0311673 0.00440814 0.0271724 0.00391943 0.0506416
102 3 O -1.16094 84.5103 4.46864 -1.2 1 0.00176005 0.00480877 0.00100624 0.00804812 0.00132712 0.00582883 0.00126781 0.0232762 0.00169169 0.00969339 0.00153162 0.0287439 0.00203169 0.0191242 0.0030932 0.0311307 0.00303769 0.0267591 0.00291641 0.0494737
103 3 O 0.874222 80.6768 4.84555 -1.2 1 0.00191324 0.00500386 0.0013129 0.00760051 0.00131165 0.00619097 0.00158358 0.0240083 0.00148209 0.00955828 0.00180432 0.0283753 0.00282643 0.0187134 0.00278819 0.0312704 0.00306129 0.027449 0.00425488 0.0500123
104 3 O 1.28043 83.6377 3.32469 -1.2 1 0.00120537 0.00486345 0.000802068 0.00776425 0.00135869 0.00582148 0.00165089 0.0240266 0.00133886 0.0097816 0.00183556 0.027291 0.0019102 0.0198418 0.00319974 0.0318875 0.0029531 0.0277462 0.00302365 0.0495901
105 1 Mg -0.220073 84.9415 0.0738476 1.2 1 0.000722975 0.00445712 0.00117963 0.00820984 0.00142881 0.00596554 0.00101214 0.0238379 0.000950768 0.00971279 0.00112123 0.0288259 0.00134749 0.0192839 0.00216189 0.0315904 0.00267454 0.0269788 0.00283528 0.0473349
106 3 O 1.34814 83.7165 5.94981 -1.2 1 0.00229394 0.0048196 0.000957322 0.00739833 0.0017276 0.00598866 0.00126143 0.0239604 0.00130717 0.00960787 0.00163423 0.0277754 0.002698 0.019747 0.00355785 0.0313089 0.00335909 0.0268287 0.00409499 0.0506114
107 1 Mg -0.196839 88.1895 1.5614 1.2 1 0.00227144 0.00444319 0.00133844 0.00818804 0.0013067 0.0057791 0.00102509 0.0237293 0.00269923 0.0105002 0.00277526 0.0286906 0.00290013 0.0193206 0.00388848 0.0317078 0.0040785 0.0261379 0.00400709 0.0467032
108 2 Si -2.22308 86.3175 1.46459 2.4 1 0.00142943 0.00461562 0.00145177 0.00899212 0.00132849 0.00577627 0.00145058 0.0231612 0.00153065 0.00973235 0.00202709 0.027761 0.00193042 0.0194838 0.00401147 0.0314054 0.00293569 0.0263493 0.00283989 0.0478119
109 3 O 1.02678 86.1126 1.54444 -1.2 1 0.00101884 0.00450256 0.00142987 0.00857947 0.00140605 0.00596674 0.00107299 0.0237115 0.00195525 0.00971283 0.00152125 0.0286737 0.00199122 0.0189441 0.00248711 0.0320123 0.00272694 0.0268396 0.00263393 0.0479866
110 3 O -1.14295 89.9126 1.34956 -1.2 1 0.00152939 0.00395805 0.00108214 0.00818138 0.00120901 0.00582305 0.00140531 0.0241706 0.00106035 0.010897 0.00245545 0.0289194 0.00214261 0.0197103 0.00343737 0.0315057 0.002975 0.0258338 0.00314188 0.0459495
111 3 O -1.52003 86.8579 0.120062 -1.2 1 0.00142907 0.00435714 0.00112954 0.00842523 0.00151766 0.00574639 0.00238192 0.0238938 0.00172372 0.0103363 0.00197171 0.0283839 0.0022439 0.0195421 0.00384631 0.0317241 0.00386196 0.0264735 0.00398754 0.0476453
112 3 O -1.51905 87.0546 2.73873 -1.2 1 0.00191801 0.00422273 0.00105727 0.00818003 0.00158464 0.00592908 0.00155165 0.0235249 0.00191808 0.0101525 0.00188945 0.0278875 0.00227951 0.0200832 0.00338246 0.031932 0.00333551 0.0266077 0.00275502 0.0483549
113 1 Mg -2.53296 90.5035 -0.101402 1.2 1 0.00173161 0.00347811 0.000914993 0.00811711 0.00147572 0.00589583 0.000929514 0.0238767 0.00113339 0.010854 0.00161507 0.0280039 0.002518 0.0197167 0.00254002 0.0315061 0.00397802 0.025746 0.00347692 0.0446837
114 1 Mg 1.9403 93.4414 1.53144 1.2 1 0.000358647 0.00376238 0.00110511 0.00781705 0.00146078 0.00556157 0.00143831 0.0228951 0.0019581 0.011571 0.00239412 0.0279498 0.00252524 0.0200778 0.00306099 0.0320604 0.00456711 0.0256156 0.00377165 0.0439021
115 2 Si -0.534668 91.5147 1.40401 2.4 1 0.00170972 0.00332952 0.001229 0.00885204 0.00142091 0.00592253 0.00201086 0.0228588 0.00160057 0.0107421 0.00286249 0.0271252 0.00171672 0.0201456 0.00530113 0.031889 0.0035093 0.0255062 0.00363381 0.0456061
116 3 O 0.926606 91.4253 1.41043 -1.2 1 0.0013239 0.00339921 0.000852578 0.00848717 0.00111541 0.00539585 0.00116242 0.0227856 0.00219133 0.0105281 0.00180181 0.0275654 0.00284433 0.0190932 0.00321532 0.0315344 0.00487556 0.0251621 0.00342645 0.0453196
117 3 O -1.58045 95.3585 1.49101 -1.2 1 0.0013751 0.00412994 0.00149323 0.00737184 0.00158653 0.00557935 0.00164807 0.0225133 0.00192616 0.0115041 0.00262305 0.0273248 0.00315454 0.0197512 0.00463203 0.0308196 0.00385019 0.0249483 0.00454157 0.0425923
118 3 O -1.32007 92.0263 0.117356 -1.2 1 0.00150528 0.00338499 0.00149427 0.00802423 0.00174142 0.00553558 0.0025495 0.0236593 0.00160385 0.0108831 0.00243263 0.0271415 0.00209279 0.0206846 0.00394294 0.0320559 0.00358971 0.025748 0.00377785 0.0441451
119 1 Mg -2.57798 101.182 2.77405 1.2 1 0.000770746 0.00441542 0.000889714 0.00740054 0.000987426 0.00525032 0.00156451 0.0216464 0.00154063 0.0105635 0.00188881 0.0260681 0.0021632 0.0190856 0.00251458 0.0293636 0.00265184 0.0234916 0.00315381 0.0388068