ITEM: TIMESTEP
10900
ITEM: NUMBER OF ATOMS
5600
ITEM: BOX BOUNDS xy xz yz pp pp pp
0	7.1235	0
0	201.985	2.3745
0	119.584	0
ITEM: ATOMS id type element xu yu zu q Q_1 Q_2 Q_3 Q_4 Q_5 Q_6 Q_7 Q_8 Q_9 Q_10 Q_11 Q_12 Q_13 Q_14 Q_15 Q_16 Q_17 Q_18 Q_19 Q_20 Q_21
1 1 Mg -1.52473 49.6614 -0.742688 1.2 1 0.237793 0.0813282 0.0208081 0.0269306 0.00519486 0.0169019 0.00452521 0.0218885 0.005173 0.0260732 0.00646775 0.0317985 0.010563 0.0259257 0.00675891 0.0256393 0.00852732 0.0202864 0.0111741 0.0357883
2 1 Mg 3.19917 51.2148 2.43811 1.2 1 0.196229 0.0709162 0.0110921 0.0209284 0.00264586 0.0118098 0.00381494 0.0180877 0.00379991 0.0204218 0.00493346 0.0261594 0.00683323 0.0238602 0.00462014 0.0246836 0.00735499 0.0181718 0.01015 0.0339202
3 2 Si 1.02761 51.362 0.474863 2.4 1 0.195636 0.0710234 0.0127898 0.021069 0.00377188 0.0128058 0.00314082 0.0203252 0.004547 0.0219967 0.00465831 0.0287528 0.00789598 0.0248006 0.00382884 0.0253377 0.00714127 0.0183345 0.00985695 0.0361886
4 3 O 2.4229 50.5815 0.695626 -1.2 1 0.214962 0.0755908 0.0158476 0.0239295 0.00413424 0.0136391 0.00364185 0.0198357 0.00463678 0.0226594 0.00583408 0.0276814 0.00841662 0.025171 0.00644457 0.0250762 0.00801395 0.0185429 0.0101429 0.0343322
5 3 O -1.1545 54.0459 1.92204 -1.2 1 0.132321 0.0517154 0.00380519 0.012784 0.00200153 0.00919451 0.00268508 0.0184643 0.00308546 0.0160504 0.00382146 0.0272345 0.00550355 0.0207079 0.00290763 0.0257883 0.00611891 0.0182899 0.00814696 0.0389864
6 3 O 0.249994 50.5146 -0.630695 -1.2 1 0.211442 0.0760053 0.0159857 0.0234159 0.00394415 0.0154476 0.0038491 0.0204855 0.00405746 0.0235358 0.00564726 0.0299872 0.00856714 0.0250054 0.00500614 0.0253641 0.00691599 0.0181823 0.010494 0.0369795
7 1 Mg -2.20146 59.7405 3.14373 1.2 1 0.0137533 0.0123178 0.00621607 0.0060171 0.00115404 0.00611206 0.00172123 0.0221851 0.00269808 0.00973467 0.0020342 0.0293559 0.00215407 0.0197839 0.00299641 0.0320243 0.00501791 0.0240904 0.00479239 0.0500565
8 3 O 0.22074 51.233 1.83416 -1.2 1 0.194182 0.0708122 0.01135 0.0210146 0.0026665 0.0113787 0.00372583 0.0192292 0.00424812 0.0211898 0.00505283 0.0269342 0.00622659 0.0242285 0.00562756 0.0247409 0.0071348 0.0181914 0.00924008 0.0336534
9 1 Mg -2.08313 56.9016 4.76136 1.2 1 0.0702051 0.0335063 0.00493785 0.00790414 0.00177174 0.00660196 0.002377 0.0197819 0.00221605 0.0126066 0.00238097 0.0267047 0.0026812 0.0200071 0.00452656 0.0290309 0.00430656 0.0215006 0.00681655 0.0432992
10 2 Si 0.533565 58.7602 4.68143 2.4 1 0.0298054 0.0201598 0.0080492 0.00602405 0.00144621 0.0062977 0.00278068 0.0219695 0.00293419 0.00970242 0.00320267 0.0273472 0.00255351 0.0199758 0.00495975 0.0305805 0.00489824 0.0231332 0.00616926 0.0484433
11 3 O -1.03713 58.8182 4.70984 -1.2 1 0.0281177 0.0188142 0.00771382 0.00604143 0.00132764 0.00557473 0.00221685 0.021552 0.00310889 0.00923299 0.0021498 0.0279968 0.00292669 0.0193468 0.00372349 0.0310827 0.00551444 0.0226053 0.00592923 0.0482306
12 3 O 1.83611 54.6363 4.7504 -1.2 1 0.118774 0.0477672 0.00167169 0.0120537 0.00195593 0.008301 0.00318907 0.0191945 0.00245956 0.0160209 0.00325038 0.0259385 0.0038834 0.0216511 0.00393335 0.0258037 0.00465729 0.0191293 0.00764828 0.0393652
13 3 O 1.23546 58.0131 3.42165 -1.2 1 0.0433861 0.0253891 0.00735574 0.0065186 0.00177617 0.00597116 0.0021744 0.0216751 0.00269654 0.0107635 0.00298702 0.0275387 0.00240681 0.0203007 0.00436434 0.030004 0.00469697 0.0227643 0.00610528 0.0467971
14 3 O 1.19616 58.1287 5.9696 -1.2 1 0.0374283 0.0227411 0.00807127 0.00610182 0.0018785 0.00613036 0.00221128 0.0212678 0.00269858 0.00959792 0.00220409 0.0271969 0.00230403 0.0195125 0.00476393 0.0308788 0.00491187 0.022832 0.00701697 0.0473751
15 1 Mg 0.439849 53.9523 3.15771 1.2 1 0.132257 0.0535638 0.00184586 0.0138152 0.00194501 0.00961134 0.00274953 0.0185101 0.00239479 0.017136 0.00395325 0.0270051 0.00446544 0.0208179 0.00488633 0.0254091 0.00436943 0.0183566 0.00793843 0.037947
16 1 Mg 1.02025 50.4523 3.36815 1.2 1 0.219137 0.0740813 0.0165825 0.0235005 0.00356551 0.013374 0.00401104 0.0192779 0.00425449 0.0215978 0.00400555 0.0262342 0.00776755 0.0258714 0.0056548 0.0240506 0.00752993 0.018879 0.0103941 0.0325687
17 2 Si 2.60531 53.2182 4.80903 2.4 1 0.15939 0.0588326 0.00701766 0.0161512 0.00314488 0.0100532 0.00364759 0.0178864 0.00299365 0.0173898 0.00352417 0.0254403 0.00465451 0.022335 0.00501406 0.0253347 0.00420359 0.0179121 0.00916391 0.0358787
18 3 O -0.620351 53.4497 4.84734 -1.2 1 0.143884 0.0550109 0.0038671 0.014342 0.00259517 0.00867708 0.00335037 0.0177991 0.00293017 0.0168942 0.00302926 0.0266543 0.00485687 0.0236401 0.00387069 0.0261198 0.00529442 0.0186775 0.00833462 0.037227
19 3 O 2.64729 49.5317 3.49801 -1.2 1 0.236383 0.0792787 0.0190726 0.0267823 0.00417785 0.0153118 0.00424786 0.0191755 0.00413985 0.0228495 0.00521352 0.0263296 0.0089266 0.0256079 0.00680274 0.0234205 0.00829405 0.0199713 0.0105566 0.0312758
20 3 O 2.0662 52.3764 3.57034 -1.2 1 0.167557 0.0612702 0.00743895 0.0165367 0.00298083 0.0105651 0.00364348 0.0181617 0.00267268 0.018263 0.0039063 0.0260067 0.00525032 0.023174 0.00478383 0.02492 0.00480924 0.0177686 0.00923939 0.0358263
21 1 Mg 0.130825 54.5456 0.288599 1.2 1 0.119579 0.0503228 0.00240286 0.0126653 0.00222754 0.00934332 0.00273324 0.0194554 0.00343943 0.0176795 0.00372544 0.0291282 0.00510839 0.0201874 0.00353664 0.0257254 0.0059996 0.0191918 0.00756636 0.0404097
22 3 O 2.03678 52.2912 6.0862 -1.2 1 0.174187 0.0633304 0.00849259 0.0181617 0.0032647 0.0108354 0.00290761 0.0184301 0.00315794 0.0191226 0.00394839 0.0256884 0.00474343 0.0238826 0.00496263 0.0247085 0.00391753 0.0180498 0.00847447 0.0342382
23 1 Mg 0.142258 57.2915 1.73793 1.2 1 0.0521408 0.0296034 0.00677699 0.00700308 0.0017298 0.00643455 0.00238943 0.020165 0.00421288 0.0114613 0.00372132 0.0284974 0.00269955 0.0196895 0.00421195 0.0287158 0.00596362 0.0209656 0.00709005 0.0457765
24 2 Si -1.82842 55.4783 1.89865 2.4 1 0.102471 0.0439571 0.00163528 0.010587 0.00182186 0.00784186 0.00224276 0.0188686 0.00411229 0.014206 0.00347346 0.0269067 0.00386574 0.0203485 0.00366699 0.0263809 0.00603303 0.0187032 0.00676176 0.0413103
25 3 O 1.30792 55.3351 1.81344 -1.2 1 0.106617 0.0448121 0.00187572 0.010697 0.00165593 0.00813826 0.00256547 0.0183674 0.00316319 0.0146648 0.00356332 0.0273322 0.00400334 0.0195511 0.00353368 0.0269068 0.0054171 0.0196112 0.0074943 0.0407828
26 3 O -0.835838 59.1594 1.70634 -1.2 1 0.02326 0.0173278 0.00820723 0.00588893 0.00135337 0.00598365 0.00185615 0.0224708 0.00397115 0.00964252 0.0025858 0.0294914 0.00326736 0.0195602 0.00426346 0.0316134 0.00646008 0.0241434 0.00656904 0.0500436
27 3 O -1.22834 56.1787 0.588013 -1.2 1 0.0769338 0.037901 0.00415711 0.00831921 0.00175564 0.00666522 0.00206896 0.019548 0.00406098 0.0130174 0.00332244 0.0279821 0.00358605 0.0195769 0.0035208 0.0277949 0.00644488 0.0205935 0.00639554 0.0438269
28 3 O -1.16795 56.2985 3.12264 -1.2 1 0.0805632 0.0360682 0.00326228 0.00826394 0.00123281 0.00687771 0.00222387 0.0198657 0.00348837 0.0129949 0.00267288 0.0268478 0.0024412 0.0200852 0.00271785 0.028361 0.00588809 0.0208269 0.0070448 0.0428151
29 1 Mg -2.22875 59.5588 0.226392 1.2 1 0.0169508 0.0144487 0.00675593 0.00587134 0.00126059 0.0062241 0.00181968 0.0231547 0.0031131 0.00974295 0.0023603 0.0296552 0.00256816 0.0201306 0.00366632 0.0315346 0.00478782 0.0251406 0.00477993 0.0511065
30 1 Mg 2.38371 62.4886 1.63527 1.2 1 0.000686561 0.00555269 0.00215491 0.00688589 0.00133529 0.00617723 0.001172 0.0238777 0.00255195 0.00858253 0.00267534 0.0304911 0.00206654 0.0208366 0.00304309 0.0342605 0.00333793 0.0262338 0.00278042 0.054095
31 2 Si -0.161499 60.6807 1.66536 2.4 1 0.00874286 0.00929729 0.00445311 0.00675567 0.00154073 0.00660331 0.00110589 0.0231812 0.00250645 0.00919379 0.00204811 0.029036 0.00266529 0.0209674 0.002955 0.0326508 0.00447035 0.0251326 0.004064 0.0531083
32 3 O 1.40175 60.6245 1.63396 -1.2 1 0.00932651 0.00991914 0.00489439 0.00625148 0.00127036 0.00606144 0.000947377 0.0226344 0.0031343 0.00840542 0.00217744 0.0294743 0.00202598 0.0201651 0.00268816 0.0330079 0.00430675 0.0250176 0.00473743 0.0527843
33 3 O -1.25562 64.2699 1.65005 -1.2 1 0.00043889 0.00484279 0.00150761 0.00749131 0.000888213 0.00628811 0.000887281 0.0250724 0.00103921 0.00849933 0.00166996 0.0309842 0.00196454 0.0202932 0.00315147 0.0336264 0.00344498 0.0263844 0.00286186 0.0544117
34 3 O -0.914319 61.282 0.365093 -1.2 1 0.00592686 0.00801833 0.00381786 0.00615586 0.00127677 0.0064277 0.00117925 0.0239785 0.00298037 0.00836327 0.0019243 0.0297288 0.00213569 0.0211796 0.00311234 0.0334849 0.00430691 0.0262832 0.00376387 0.053346
35 1 Mg -2.22499 69.9977 3.19999 1.2 1 0.0027313 0.00451743 0.000326193 0.00795292 0.000988819 0.00668497 0.000546451 0.0244873 0.000960596 0.00889667 0.000825934 0.031914 0.00112919 0.0202999 0.00112724 0.0328007 0.00150825 0.0264535 0.00155855 0.0529395
36 3 O -0.849316 61.3513 2.94356 -1.2 1 0.00503052 0.00719319 0.00346923 0.0063069 0.00128262 0.00636574 0.00181933 0.0231882 0.00244793 0.00879051 0.00192899 0.0288591 0.0021489 0.0205235 0.00353014 0.0335462 0.00428487 0.0253743 0.00384455 0.0527761
37 1 Mg -2.1303 67.1111 4.68983 1.2 1 0.00180255 0.00433369 0.000824594 0.00750428 0.000692652 0.00601465 0.00119653 0.0239639 0.00209437 0.00868292 0.00158451 0.0312526 0.00165426 0.0206985 0.00274154 0.0334062 0.00235057 0.026306 0.00216054 0.0534332
38 2 Si 0.507662 69.0739 4.71199 2.4 1 0.00252514 0.00406483 0.000620068 0.00841126 0.00142882 0.00676154 0.00125226 0.023696 0.0013906 0.00870932 0.00207491 0.0307346 0.00221799 0.0210373 0.00395342 0.0329952 0.00317214 0.0259461 0.00210229 0.054335
39 3 O -1.05244 69.1062 4.68999 -1.2 1 0.00232472 0.00419433 0.00037405 0.00801673 0.00100218 0.00647194 0.000857489 0.0237826 0.00213265 0.00844171 0.00106635 0.0311676 0.00142857 0.0203677 0.00122165 0.033077 0.00264863 0.0258193 0.00213893 0.0537593
40 3 O 1.59807 65.3612 4.71797 -1.2 1 0.00185593 0.00498698 0.00106524 0.00752031 0.000507328 0.00645218 0.000927561 0.0241681 0.00122896 0.00820661 0.00233135 0.0311078 0.00230632 0.0200723 0.00304324 0.0328693 0.00247232 0.025675 0.00247134 0.0541211
41 3 O 1.20257 68.3704 3.41715 -1.2 1 0.00263608 0.00421574 0.000668927 0.0077192 0.00167749 0.00623284 0.00157651 0.0244027 0.00163715 0.00891746 0.00128771 0.0306102 0.00208598 0.0213803 0.00301125 0.0335643 0.00262991 0.026477 0.00182191 0.0539265
42 3 O 1.24369 68.4485 5.96947 -1.2 1 0.00253866 0.00433081 0.000438075 0.00788283 0.00114134 0.0064127 0.0014301 0.0240057 0.0012912 0.00883648 0.0016812 0.0303155 0.0024219 0.0208549 0.00292758 0.0333973 0.00226454 0.0260714 0.00175269 0.0538493
43 1 Mg 0.180278 64.761 3.10165 1.2 1 0.00137869 0.00501311 0.00127344 0.00738791 0.000687013 0.00624202 0.000836365 0.0243153 0.00086788 0.00889987 0.000895727 0.0314129 0.00113613 0.0203145 0.0015098 0.0332936 0.00197121 0.0259295 0.00177296 0.0534348
44 1 Mg 0.100192 61.9793 4.64356 1.2 1 0.00315271 0.00624353 0.00283988 0.00642851 0.00147494 0.00618362 0.00188392 0.0236639 0.00176558 0.00890766 0.00257897 0.0298219 0.00202992 0.019974 0.00333065 0.0335278 0.0037931 0.0253576 0.00417686 0.0525635
45 2 Si 2.25215 63.8726 4.71975 2.4 1 0.00190146 0.00531447 0.0014401 0.00771102 0.00107605 0.00643776 0.00147064 0.0236738 0.00149511 0.00822149 0.0027696 0.0297682 0.00205113 0.0205099 0.00428143 0.033288 0.00275098 0.0252742 0.00300492 0.0547539
46 3 O -0.922657 63.9063 4.69882 -1.2 1 0.00147402 0.00539984 0.00128912 0.0074179 0.000987397 0.0059814 0.00117998 0.0232261 0.00219246 0.00797202 0.00137327 0.0305746 0.00179554 0.0198057 0.00174781 0.0338107 0.00316098 0.0252149 0.00249957 0.0544076
47 3 O 1.19726 60.2512 4.63237 -1.2 1 0.0115722 0.0110678 0.00511872 0.00613511 0.000994428 0.00637828 0.00202771 0.0227132 0.00237207 0.00915638 0.00257929 0.0291521 0.00206332 0.0202086 0.00350731 0.0322425 0.00410823 0.024075 0.00423054 0.050841
48 3 O 1.57899 63.182 3.46376 -1.2 1 0.00138195 0.00538861 0.0016889 0.0069628 0.00102104 0.00622963 0.00133052 0.0239117 0.0016927 0.00830813 0.00163561 0.0298062 0.00183738 0.0209997 0.00296683 0.0339238 0.00212214 0.0258817 0.00254672 0.0542132
49 1 Mg 0.0607431 64.8127 0.196986 1.2 1 0.00069645 0.00415347 0.000814799 0.00715614 0.000954374 0.00613697 0.000646661 0.0248703 0.000892782 0.00846127 0.00101602 0.0311836 0.00117017 0.0201713 0.00167712 0.0336801 0.00164333 0.0266883 0.00171729 0.0542321
50 3 O 1.56789 63.2296 6.04921 -1.2 1 0.00208057 0.00537296 0.00161193 0.00684468 0.000817665 0.00639585 0.00170227 0.0240745 0.00142853 0.00845592 0.00191872 0.0295737 0.00211002 0.0205682 0.00385937 0.0336213 0.00293532 0.0254377 0.00388926 0.0544767
51 1 Mg 0.106196 67.7433 1.64422 1.2 1 0.00300466 0.00453063 0.000821882 0.00775826 0.00108889 0.00599007 0.000924485 0.0247146 0.00183604 0.00901059 0.00207063 0.0311961 0.00232254 0.0209247 0.00295627 0.0336248 0.00254283 0.0267832 0.00225808 0.0540971
52 2 Si -1.98744 65.8015 1.68904 2.4 1 0.00158971 0.00445555 0.000984959 0.00791579 0.000907233 0.00636328 0.00185503 0.0246014 0.00138697 0.00856935 0.00161021 0.0303043 0.00201989 0.0214476 0.00307872 0.0328909 0.00311202 0.0259982 0.00244415 0.0553463
53 3 O 1.24451 65.7331 1.68537 -1.2 1 0.00167396 0.00467061 0.00105145 0.00768554 0.0009024 0.00585563 0.00147135 0.0241714 0.0019516 0.00824985 0.00123002 0.0310591 0.0018379 0.0203044 0.00155947 0.0336321 0.00245755 0.0260281 0.0024099 0.0544206
54 3 O -1.00742 69.4695 1.58721 -1.2 1 0.00252041 0.00495483 0.00065907 0.00828002 0.000964363 0.00669435 0.000960386 0.0248453 0.00115858 0.00874792 0.00216882 0.0317501 0.00185078 0.0206022 0.00265557 0.0330891 0.002923 0.0264858 0.00292926 0.053874
55 3 O -1.32331 66.4705 0.395737 -1.2 1 0.00205244 0.00445257 0.000682545 0.00741194 0.00108584 0.00585821 0.00147525 0.0244494 0.0016624 0.00882129 0.0015353 0.0303484 0.00202077 0.0209842 0.00271188 0.0339508 0.00228499 0.0263866 0.00248553 0.0546021
56 3 O -1.24003 66.4402 2.90638 -1.2 1 0.00195686 0.00451742 0.000935782 0.00760886 0.00101398 0.00590279 0.00202509 0.0242215 0.00150295 0.00832167 0.00112023 0.0303404 0.0022604 0.0209521 0.00243011 0.0335848 0.00228101 0.0261683 0.00177713 0.0542451
57 1 Mg -2.3954 69.913 0.165263 1.2 1 0.00274268 0.00531788 0.000818382 0.00783014 0.00116966 0.0066625 0.000580882 0.0247025 0.000921911 0.00895146 0.00100215 0.0317977 0.00117078 0.020362 0.00104114 0.0331442 0.00172323 0.0266144 0.00208986 0.053199
58 1 Mg 2.3611 72.8349 1.60235 1.2 1 0.00187981 0.00555189 0.00102949 0.0079033 0.00123605 0.00646668 0.00123512 0.0243616 0.00206622 0.00927968 0.00213513 0.0318795 0.00241955 0.0210017 0.00300164 0.0337096 0.00270835 0.026887 0.00258272 0.0536494
59 2 Si -0.296098 70.9589 1.56165 2.4 1 0.00257271 0.00498232 0.000612625 0.00859229 0.00113247 0.006956 0.00151738 0.0241911 0.00172955 0.00898597 0.00242741 0.0309032 0.00180592 0.0213331 0.00338517 0.0329025 0.00327451 0.0262113 0.0031768 0.0546277
60 3 O 1.24821 70.9186 1.60101 -1.2 1 0.00285263 0.00489889 0.000893284 0.00807771 0.00110822 0.0064147 0.000897798 0.0236761 0.00233201 0.0088779 0.00158517 0.0313535 0.00193384 0.0204353 0.00203257 0.0334817 0.00232427 0.0258863 0.00253105 0.0540699
61 3 O -1.31167 74.6678 1.68586 -1.2 1 0.000714878 0.00514032 0.00140671 0.00812187 0.00114084 0.00702218 0.000773968 0.02462 0.00108138 0.00899701 0.00149179 0.0318685 0.00165719 0.0204185 0.00283072 0.033377 0.00244737 0.0266635 0.00357676 0.0540056
62 3 O -1.01765 71.6294 0.293542 -1.2 1 0.00200053 0.00544574 0.000587669 0.00771891 0.00138441 0.00644493 0.00176266 0.024607 0.00152338 0.00961335 0.00209882 0.030577 0.00216048 0.0214491 0.00310085 0.0339269 0.00268009 0.0267907 0.00283036 0.0542329
63 1 Mg -2.30022 80.4458 3.18445 1.2 1 0.00380202 0.00481259 0.00159264 0.00720643 0.000849896 0.00639162 0.000966096 0.0241048 0.00122365 0.00876185 0.00114967 0.0313203 0.00143428 0.0203529 0.00166083 0.0342153 0.00144533 0.0262802 0.00171803 0.0538702
64 3 O -0.878939 71.6202 2.83012 -1.2 1 0.00214702 0.00505779 0.00054238 0.00791458 0.00134833 0.00653076 0.00175136 0.0240725 0.00149962 0.00896114 0.00193791 0.0309265 0.00211063 0.0209584 0.00224051 0.033691 0.00225342 0.0263993 0.00207634 0.0537153
65 1 Mg -2.09805 77.4298 4.67031 1.2 1 0.0033485 0.00484472 0.0015892 0.00761282 0.00141837 0.00627995 0.00147787 0.0246929 0.00198332 0.00902319 0.00206048 0.031753 0.00219851 0.0210315 0.00301472 0.0343567 0.00201046 0.026923 0.00237761 0.0543553
66 2 Si 0.493178 79.3504 4.68139 2.4 1 0.00390913 0.00467528 0.00165872 0.00786334 0.00117341 0.0064977 0.0017578 0.0240958 0.00140862 0.00866878 0.00191496 0.0305001 0.001816 0.0212752 0.00342692 0.0342182 0.00314522 0.0263497 0.00290863 0.0554574
67 3 O -1.05489 79.474 4.65125 -1.2 1 0.00384096 0.00485792 0.00163823 0.00749302 0.001126 0.00662564 0.00126646 0.0241976 0.00180987 0.00849972 0.00139608 0.0314084 0.00153368 0.0203509 0.00199367 0.0343386 0.00220628 0.026323 0.0021192 0.0547527
68 3 O 1.47991 75.6247 4.64045 -1.2 1 0.00206269 0.00473712 0.00161787 0.00827153 0.000983097 0.00707173 0.000879585 0.0245776 0.00136011 0.008746 0.0017703 0.0319317 0.00160907 0.0207616 0.00286802 0.0331933 0.00279095 0.0264382 0.00257378 0.05441
69 3 O 1.16086 78.7091 3.39711 -1.2 1 0.00338048 0.00491414 0.00177354 0.00735534 0.00150921 0.00634556 0.00189435 0.0244274 0.00156837 0.00904088 0.00132576 0.0304989 0.00171531 0.0211425 0.00269531 0.0346531 0.00197398 0.026736 0.00211028 0.0545312
70 3 O 1.13391 78.7289 5.99497 -1.2 1 0.00299911 0.00467552 0.00115984 0.00719554 0.00141856 0.00633691 0.00169617 0.0246946 0.00111511 0.00899712 0.0011863 0.0306545 0.00172703 0.0213217 0.00235334 0.0348056 0.00156117 0.0267237 0.00191364 0.0551992
71 1 Mg 0.152615 75.1172 3.09483 1.2 1 0.00169293 0.00504161 0.00143825 0.00792686 0.0011236 0.00691793 0.000729087 0.0245554 0.00104855 0.00941758 0.000932261 0.0322881 0.000859898 0.0204764 0.00132179 0.0334782 0.00111573 0.0265545 0.00163357 0.0534411
72 1 Mg 0.0448753 72.3009 4.62392 1.2 1 0.00136166 0.00471477 0.000752555 0.00830401 0.00113141 0.00659581 0.00127851 0.0241865 0.00199369 0.00923373 0.0025866 0.0319486 0.00166502 0.0210327 0.00321464 0.0334362 0.00296662 0.0263738 0.00272428 0.0538141
73 2 Si 2.16703 74.1427 4.67211 2.4 1 0.00173914 0.00447788 0.0010278 0.00874176 0.00126879 0.00698772 0.00126629 0.0241073 0.00161315 0.00890956 0.00196921 0.0310455 0.00193957 0.0212399 0.00380643 0.0331978 0.00325339 0.0259993 0.00248402 0.0550583
74 3 O -1.05451 74.2562 4.69169 -1.2 1 0.00125974 0.00476057 0.000970225 0.00836666 0.00126188 0.00663861 0.00082675 0.0237795 0.00229263 0.00865965 0.00192059 0.0314643 0.00145007 0.0204707 0.00154107 0.0338566 0.00218891 0.0259329 0.00197603 0.054596
75 3 O 1.14817 70.5426 4.63462 -1.2 1 0.00262116 0.00439924 0.000690139 0.00829007 0.00117559 0.00673775 0.000807639 0.0245841 0.00123023 0.00877738 0.00149301 0.0318804 0.0021552 0.0203342 0.00296728 0.0329319 0.00251175 0.0261873 0.00254104 0.0536576
76 3 O 1.47121 73.4678 3.40054 -1.2 1 0.00101125 0.00496492 0.00112933 0.00798361 0.00138468 0.00672723 0.00108458 0.0241904 0.00155029 0.00909465 0.0011212 0.0309891 0.00183503 0.0216032 0.00249828 0.0333356 0.00202433 0.0263286 0.00163032 0.0540029
77 1 Mg 0.0612998 75.0669 0.126863 1.2 1 0.000765687 0.0056145 0.000821502 0.0076284 0.000940904 0.00678271 0.000795925 0.0247062 0.00117581 0.00922095 0.000848731 0.0316596 0.00102878 0.0201047 0.00138733 0.0339331 0.00130191 0.0272075 0.00221222 0.053361
78 3 O 1.49891 73.5198 5.97321 -1.2 1 0.00160461 0.00473728 0.000503324 0.00794487 0.00129352 0.00679381 0.00137085 0.0243666 0.0019014 0.00920977 0.001446 0.0311133 0.00232844 0.021792 0.00341927 0.0334674 0.00257112 0.0261137 0.00230893 0.0543897
79 1 Mg 0.157339 78.0847 1.67188 1.2 1 0.0023186 0.00533255 0.0014739 0.00735206 0.00131001 0.00646518 0.00145415 0.0244573 0.00198299 0.00958385 0.00217097 0.0313003 0.00198034 0.0207203 0.00281095 0.0345614 0.00287472 0.0272196 0.00247278 0.0538666
80 2 Si -1.99497 76.1808 1.68177 2.4 1 0.00139767 0.0049092 0.00127571 0.00836443 0.001178 0.00686281 0.00120658 0.0245935 0.00134946 0.00907854 0.00161414 0.0306298 0.00162688 0.0210638 0.00297636 0.0339065 0.0026277 0.0267569 0.0026592 0.0549621
81 3 O 1.21507 76.0495 1.66209 -1.2 1 0.00160446 0.00515389 0.00128149 0.0081005 0.00092574 0.00666964 0.000999537 0.0240627 0.00212581 0.00878134 0.00102419 0.0313496 0.00180638 0.0203389 0.00231387 0.0341368 0.00238785 0.0264949 0.00312064 0.0543608
82 3 O -0.851833 79.8618 1.68075 -1.2 1 0.00388367 0.00491762 0.00186232 0.00764756 0.00101934 0.00681052 0.00104549 0.0245813 0.0017072 0.00893338 0.0018285 0.0313301 0.00244606 0.0205745 0.00349377 0.0338181 0.00227654 0.0264161 0.00314195 0.0543154
83 3 O -1.3236 76.7587 0.309281 -1.2 1 0.00163177 0.00513916 0.00105523 0.00765768 0.00120462 0.00661623 0.00135337 0.0247089 0.00120858 0.00981432 0.00155057 0.0305068 0.00205277 0.0211785 0.00268781 0.0341702 0.00187737 0.0269156 0.00244412 0.0546818
84 3 O -1.28517 76.8676 2.90282 -1.2 1 0.00233049 0.00478115 0.0014155 0.00754825 0.00125979 0.0064721 0.00120731 0.0246983 0.00179869 0.00915886 0.00133645 0.0309291 0.00152252 0.0215561 0.00237809 0.0341903 0.00213278 0.0268109 0.00221823 0.054202
85 1 Mg -2.25725 80.3582 0.231603 1.2 1 0.00341807 0.00528594 0.00117251 0.00694962 0.000819764 0.00685801 0.000746497 0.0245088 0.00111568 0.00922645 0.00104426 0.0311995 0.00137319 0.0203007 0.0015291 0.0339828 0.00128811 0.0269717 0.00155372 0.0535916
86 1 Mg 2.5278 83.2464 1.61551 1.2 1 0.00273215 0.00500879 0.00145601 0.00692297 0.00113342 0.00635464 0.00130063 0.024236 0.0021288 0.00870382 0.00245069 0.0305821 0.00187782 0.0207107 0.00402135 0.0344845 0.00342922 0.0266222 0.00374929 0.0542344
87 2 Si -0.214618 81.3444 1.64359 2.4 1 0.00399926 0.00505745 0.00146123 0.00754158 0.00147926 0.00657587 0.00145552 0.0240204 0.00173964 0.00868426 0.00221854 0.0300531 0.00265953 0.0210452 0.00355509 0.0341557 0.00268809 0.0262681 0.00213166 0.055084
88 3 O 1.35827 81.3092 1.64937 -1.2 1 0.00340958 0.00487044 0.00115865 0.00723329 0.00119331 0.0061252 0.00157425 0.0235233 0.00266486 0.00880306 0.00207936 0.0303614 0.00223021 0.0206083 0.0025589 0.034459 0.00312587 0.0260545 0.00341336 0.0547768
89 3 O -1.22348 85.02 1.71514 -1.2 1 0.0023843 0.00474601 0.000919342 0.00707889 0.000986448 0.0066197 0.00106734 0.0243831 0.00155482 0.00827152 0.00150298 0.0307058 0.00184865 0.0204791 0.00301043 0.0339156 0.00225465 0.0261705 0.00320099 0.0546907
90 3 O -0.824798 82.019 0.352269 -1.2 1 0.003532 0.00507843 0.00106646 0.00686149 0.00113224 0.00657363 0.00130406 0.0244116 0.00142161 0.00952926 0.0012803 0.0297324 0.00269097 0.0213746 0.00297714 0.0343931 0.00205 0.026645 0.00256011 0.0544845
91 1 Mg -2.18501 90.6745 3.189 1.2 1 0.00112796 0.00444996 0.000350386 0.00683031 0.000592364 0.0067077 0.000697123 0.0237331 0.000751702 0.00868952 0.000730538 0.0311796 0.00135689 0.0201578 0.00162219 0.0330984 0.00150751 0.0253397 0.00154131 0.053552
92 3 O -0.846973 82.0303 2.92229 -1.2 1 0.00342094 0.004907 0.00109655 0.00684774 0.000968187 0.00623287 0.00125695 0.0241704 0.0014469 0.00883767 0.00117878 0.0300813 0.00244602 0.0215279 0.00315039 0.0346288 0.00214181 0.026355 0.00257332 0.0547401
93 1 Mg -2.02211 87.8667 4.65102 1.2 1 0.000932605 0.00494226 0.000744656 0.0066224 0.00089816 0.00615162 0.00119776 0.0237203 0.00158394 0.00845121 0.00219417 0.0304886 0.00200843 0.0208955 0.00286313 0.0338851 0.00298848 0.0254744 0.00298456 0.0544069
94 2 Si 0.518027 89.6899 4.67611 2.4 1 0.00174836 0.0044492 0.000602716 0.0073225 0.00105215 0.00690894 0.00146504 0.0238803 0.00115062 0.00848303 0.00208609 0.0294532 0.00151025 0.0213132 0.00337247 0.0332763 0.00297409 0.0249411 0.00247557 0.0553737
95 3 O -1.06277 89.7504 4.70972 -1.2 1 0.00119849 0.00476274 0.00069122 0.00697776 0.000855055 0.00653191 0.00115606 0.023931 0.00162298 0.00824025 0.000891181 0.0301989 0.00206915 0.0201193 0.00205466 0.0336525 0.00316156 0.0253366 0.00260212 0.0546945
96 3 O 1.61138 85.9637 4.58515 -1.2 1 0.00097893 0.00498951 0.00135688 0.00684367 0.000852711 0.00653169 0.00103318 0.0242895 0.000973924 0.00818227 0.00116662 0.030304 0.00225046 0.0202325 0.00277188 0.0339051 0.0024845 0.0256369 0.00304798 0.0544415
97 3 O 1.24396 89.0266 3.41886 -1.2 1 0.00059182 0.00485685 0.000682133 0.00675723 0.00103392 0.00649101 0.00180204 0.0242506 0.00142983 0.0085409 0.0015847 0.0292581 0.00186277 0.0207635 0.00272318 0.0339318 0.00264142 0.0258018 0.00215869 0.0547637
98 3 O 1.16913 89.0314 5.95537 -1.2 1 0.00196415 0.00465503 0.000776125 0.00694705 0.00121879 0.00648587 0.00128337 0.0239138 0.00135437 0.00880411 0.00181812 0.029562 0.00157441 0.0211109 0.00199708 0.0338878 0.00184866 0.0253363 0.0019757 0.0549253
99 1 Mg 0.139324 85.5409 3.14826 1.2 1 0.00141949 0.00481618 0.000690184 0.00670662 0.000887483 0.00648077 0.000963665 0.0239183 0.000887129 0.00877261 0.00101543 0.0311286 0.0012941 0.0204368 0.0023068 0.0339074 0.00177013 0.0258312 0.0017594 0.0539259
100 1 Mg 0.058678 82.6409 4.60878 1.2 1 0.00328418 0.00501819 0.00122147 0.00679847 0.00078451 0.00601692 0.00159563 0.0241093 0.00181046 0.0089458 0.00202676 0.0304652 0.00257278 0.0210811 0.00398325 0.0348565 0.0022925 0.0266127 0.00220527 0.0549513
101 2 Si 2.23056 84.4352 4.66688 2.4 1 0.00169337 0.00497938 0.00118383 0.00737115 0.000823241 0.00679694 0.00168524 0.0241984 0.00121031 0.00824525 0.00176544 0.0293934 0.00214924 0.0213106 0.00328353 0.0339247 0.0030951 0.0258675 0.00232082 0.0560655
102 3 O -0.940388 84.4994 4.64627 -1.2 1 0.00160732 0.00516989 0.00133191 0.00689446 0.000979735 0.00605102 0.00194901 0.0232278 0.00260194 0.00812511 0.00197739 0.0303081 0.00216844 0.0203356 0.00286851 0.0344884 0.00260755 0.025266 0.0021512 0.0550171
103 3 O 1.14209 80.8822 4.68763 -1.2 1 0.00320334 0.00502332 0.00157513 0.0073275 0.000906913 0.00667499 0.00111039 0.0247825 0.000934674 0.00861656 0.00193275 0.0310224 0.00178268 0.020706 0.00224324 0.0341576 0.0024537 0.0265471 0.00242743 0.0547439
104 3 O 1.58449 83.7507 3.40109 -1.2 1 0.00216368 0.0052264 0.000836077 0.00658631 0.000793088 0.00630049 0.00152797 0.0240925 0.00136445 0.00842011 0.00104698 0.0296638 0.0021026 0.0211942 0.00314279 0.0344824 0.00259285 0.02613 0.00203525 0.0547184
105 1 Mg 0.127413 85.4655 0.239512 1.2 1 0.00192465 0.00513449 0.000760144 0.00700444 0.000842066 0.00671901 0.000689406 0.0240312 0.000925278 0.00861238 0.00120645 0.0310521 0.00174842 0.0200787 0.00287857 0.0335507 0.00190938 0.0261555 0.00216552 0.0534338
106 3 O 1.5776 83.8736 5.9884 -1.2 1 0.00149507 0.0050666 0.00100371 0.00664653 0.000616202 0.0061781 0.00180903 0.0239407 0.000982183 0.00836971 0.000974814 0.0298044 0.00226753 0.0209433 0.00320273 0.0345233 0.00172727 0.0259409 0.00157342 0.0551397
107 1 Mg 0.233194 88.3945 1.67719 1.2 1 0.00090854 0.00503456 0.000817972 0.00695247 0.000771457 0.00639815 0.000817752 0.0239629 0.0015877 0.00875195 0.00190641 0.0304384 0.00238743 0.0204327 0.00295857 0.0340399 0.00326048 0.0263552 0.0029269 0.0542014
108 2 Si -1.85357 86.5209 1.68996 2.4 1 0.000928872 0.00481482 0.000950812 0.00749377 0.00110337 0.00669035 0.00141976 0.0235367 0.00133145 0.00841439 0.00211925 0.0293744 0.00150319 0.0207383 0.00371657 0.0338399 0.00266812 0.0258017 0.00265677 0.0552609
109 3 O 1.31296 86.4174 1.6698 -1.2 1 0.00147557 0.00494887 0.000543738 0.00699471 0.000954117 0.00627939 0.0010572 0.0234909 0.00178689 0.00810722 0.000984595 0.0303264 0.0017811 0.0200076 0.00208884 0.0341743 0.003242 0.025637 0.00312668 0.0548428
110 3 O -0.874889 90.1656 1.71325 -1.2 1 0.00114379 0.00469172 0.000752196 0.00722839 0.000925555 0.00684681 0.000883802 0.0239868 0.00142691 0.00813972 0.00189346 0.0306587 0.00195096 0.0200636 0.00290382 0.0329251 0.00277094 0.0256543 0.00272911 0.054359
111 3 O -1.19947 87.1708 0.396124 -1.2 1 0.000856006 0.00492623 0.000685854 0.00709808 0.0012534 0.00643979 0.00117058 0.023472 0.00163112 0.00865913 0.00193318 0.029614 0.00144608 0.0204504 0.00212094 0.0340828 0.00180453 0.0258298 0.00211049 0.054566
112 3 O -1.14432 87.2132 2.88766 -1.2 1 0.000152605 0.00496847 0.000717796 0.00655782 0.00107077 0.00647387 0.00130678 0.0241189 0.00166337 0.00846289 0.00164589 0.0293636 0.00145492 0.0211623 0.00267163 0.0339405 0.00223982 0.0259494 0.00208403 0.0543166
113 1 Mg -2.2522 90.6565 0.1368 1.2 1 0.00192748 0.00485329 0.000978282 0.00704009 0.000633023 0.00670707 0.000746007 0.0239705 0.00108657 0.00829091 0.000968036 0.0307016 0.00124336 0.0197211 0.00125446 0.0332738 0.00137715 0.0259479 0.00158441 0.0534205
114 1 Mg 2.43445 93.5138 1.75093 1.2 1 0.00276879 0.00352261 0.00189228 0.00697411 0.000956454 0.00594997 0.00133938 0.0240229 0.00215049 0.00847017 0.00222312 0.0305779 0.00262435 0.0204926 0.00318414 0.0340624 0.0026801 0.026204 0.00285234 0.0544851
115 2 Si -0.187914 91.6668 1.64947 2.4 1 0.0014284 0.00431091 0.0011942 0.00776744 0.000913928 0.00671245 0.00132401 0.0237122 0.00153436 0.00835309 0.00195315 0.029422 0.0020829 0.0205848 0.00258948 0.0331913 0.00288593 0.0255773 0.00227773 0.0554815
116 3 O 1.35548 91.5641 1.6595 -1.2 1 0.00170446 0.00453331 0.00118513 0.00739285 0.000776753 0.00642244 0.00146713 0.0236614 0.00259103 0.00806835 0.00133808 0.0303338 0.00175514 0.0201578 0.00189358 0.0335832 0.00223825 0.0257312 0.00224924 0.0548267
117 3 O -1.3119 95.2953 1.76299 -1.2 1 0.00303335 0.00240224 0.0021603 0.00738651 0.00124534 0.00633809 0.00147596 0.0246738 0.00117569 0.00825795 0.00182966 0.0309803 0.00187214 0.0198517 0.00255245 0.0333177 0.00254365 0.0256174 0.00303114 0.0546888
118 3 O -0.847676 92.204 0.336453 -1.2 1 0.00231575 0.00432012 0.00153953 0.00710029 0.00101734 0.00621991 0.00201021 0.0241273 0.00168915 0.00854657 0.00176357 0.030105 0.00234286 0.0205256 0.00334639 0.0335011 0.00242842 0.0258808 0.00182661 0.0542647