ITEM: TIMESTEP
33900
ITEM: NUMBER OF ATOMS
5600
ITEM: BOX BOUNDS xy xz yz pp pp pp
0	7.1235	0
0	201.985	2.3745
0	119.584	0
ITEM: ATOMS id type element xu yu zu q Q_1 Q_2 Q_3 Q_4 Q_5 Q_6 Q_7 Q_8 Q_9 Q_10 Q_11 Q_12 Q_13 Q_14 Q_15 Q_16 Q_17 Q_18 Q_19 Q_20 Q_21
1 1 Mg -2.0041 49.2696 -1.23563 1.2 1 0.234667 0.0781462 0.0181232 0.0275044 0.00528549 0.0156069 0.00437963 0.0208738 0.00567616 0.0241165 0.00625133 0.0287321 0.00879395 0.0251054 0.00823948 0.0273414 0.0075277 0.0220805 0.0109391 0.032371
2 1 Mg 2.57659 51.095 2.07776 1.2 1 0.183028 0.070725 0.00704677 0.0221846 0.00287025 0.01287 0.00367692 0.0205328 0.00454786 0.0224493 0.00539933 0.0310112 0.0063106 0.024002 0.00582919 0.0301935 0.00642771 0.0228011 0.00823949 0.0372522
3 2 Si 0.598788 50.6224 0.202615 2.4 1 0.200449 0.072673 0.0111148 0.0238495 0.00451929 0.0125381 0.00412567 0.0212478 0.00501571 0.0225475 0.00547505 0.0296711 0.00847516 0.0247726 0.00709216 0.0285766 0.0067827 0.0211497 0.00845993 0.0351491
4 3 O 1.95511 49.8508 0.393292 -1.2 1 0.217469 0.0761168 0.0144345 0.0262204 0.00450657 0.0145519 0.00413278 0.0216622 0.00522174 0.0240198 0.0063253 0.0295862 0.00879699 0.0255015 0.0080025 0.0296573 0.00730545 0.0226048 0.00908804 0.0350439
5 3 O -1.51292 53.5005 1.61461 -1.2 1 0.132696 0.0527521 0.00191552 0.0152742 0.0023275 0.010081 0.00270395 0.0201274 0.00322491 0.017285 0.00391036 0.0301549 0.00513393 0.021295 0.00283362 0.0294054 0.00543605 0.0209963 0.00637302 0.0390858
6 3 O -0.169174 49.8445 -0.999272 -1.2 1 0.211586 0.0743846 0.0135619 0.0251645 0.00399697 0.0138745 0.00394209 0.0205837 0.00496851 0.0229096 0.0052268 0.0287232 0.00784667 0.0243215 0.00684887 0.0279456 0.0070121 0.0204767 0.00828193 0.0339515
7 1 Mg -2.66221 59.1727 3.2668 1.2 1 0.0167918 0.0147678 0.00493632 0.00599892 0.00131113 0.00574861 0.00143061 0.0231366 0.00369532 0.00964496 0.00139002 0.0299171 0.00257827 0.0197739 0.00430336 0.0312397 0.00664809 0.0246765 0.00436882 0.0472132
8 3 O -0.311232 50.6252 1.45634 -1.2 1 0.192296 0.0722097 0.00886497 0.0229353 0.00334716 0.0126714 0.00369253 0.0209143 0.00558038 0.0219243 0.00487914 0.0293961 0.00570394 0.0252355 0.00574236 0.0295774 0.0077013 0.0228414 0.00760046 0.0356661
9 1 Mg -2.45544 56.1958 4.81448 1.2 1 0.0742944 0.0363154 0.00430266 0.0094868 0.00190798 0.00635812 0.00207477 0.0219728 0.00316151 0.0138328 0.00230833 0.0301843 0.00287464 0.0203089 0.00321698 0.0292819 0.00653479 0.0231919 0.00560549 0.0432393
10 2 Si 0.178303 58.0507 4.77562 2.4 1 0.0331426 0.0223182 0.00708424 0.00729745 0.00136035 0.0055214 0.0027687 0.0233582 0.00320034 0.010225 0.00301794 0.0291259 0.00304788 0.0204727 0.00488532 0.0301953 0.00608999 0.024696 0.00483891 0.0472828
11 3 O -1.34979 58.1798 4.86315 -1.2 1 0.0281641 0.0202266 0.00720709 0.00666118 0.00152817 0.0055331 0.00302966 0.0225201 0.0038587 0.00944644 0.00169696 0.0295398 0.00344243 0.0194125 0.00522171 0.0306766 0.00750836 0.0235412 0.00604495 0.0471041
12 3 O 1.25979 54.2371 4.67593 -1.2 1 0.117143 0.0493876 0.0016381 0.0134027 0.00200591 0.00924248 0.00306368 0.0213731 0.00346876 0.0175249 0.00260483 0.030238 0.00414729 0.0215615 0.00280404 0.0286686 0.00619061 0.0225363 0.00586089 0.041077
13 3 O 0.893544 57.46 3.38239 -1.2 1 0.044781 0.0268045 0.00675676 0.00762625 0.00147914 0.00524715 0.00195436 0.0230883 0.0034304 0.0110092 0.00162782 0.0295244 0.00285324 0.0204126 0.00479056 0.0307463 0.00616695 0.024313 0.00510544 0.0460004
14 3 O 0.890564 57.4615 6.00488 -1.2 1 0.0421518 0.0256282 0.00739464 0.00714948 0.00138046 0.00565822 0.00227643 0.023062 0.00310335 0.0106981 0.00158141 0.0292572 0.00300538 0.020218 0.00438167 0.0304329 0.00612193 0.0243079 0.00523948 0.046198
15 1 Mg -0.0592231 53.7895 3.18674 1.2 1 0.122014 0.0504686 0.00167659 0.0137725 0.00191716 0.00951799 0.00257043 0.0208771 0.0032972 0.0175807 0.00333425 0.030675 0.00350604 0.0209112 0.00287655 0.0290599 0.00461301 0.0217126 0.00590581 0.0400376
16 1 Mg 0.409184 50.0738 3.23393 1.2 1 0.211098 0.0785071 0.0109695 0.0262603 0.00300463 0.0155039 0.00365546 0.02131 0.00499321 0.0250332 0.00481602 0.0314535 0.00658014 0.0254925 0.00695275 0.0303414 0.00873608 0.0246312 0.00937789 0.0368211
17 2 Si 1.96882 52.8598 4.67933 2.4 1 0.151384 0.0590668 0.00418559 0.0172014 0.00245643 0.0116247 0.0038593 0.0208243 0.00331328 0.0197604 0.00378343 0.0306301 0.00490854 0.0220339 0.00496993 0.0286003 0.00527901 0.0224326 0.00681783 0.0388938
18 3 O -1.27289 52.9796 4.77167 -1.2 1 0.13756 0.0561415 0.00163701 0.0150312 0.00229071 0.00950823 0.00368826 0.0208102 0.00412731 0.0187105 0.00304355 0.0310735 0.00482162 0.023152 0.00325435 0.0294048 0.00656089 0.0225298 0.00674944 0.0406295
19 3 O 2.31126 49.5142 3.30072 -1.2 1 0.222056 0.0817301 0.0135126 0.0274784 0.00321691 0.0169338 0.00397148 0.0222083 0.00470919 0.0259722 0.00547299 0.0321753 0.00806019 0.0248997 0.00769805 0.0304207 0.00929165 0.02479 0.00919329 0.0369436
20 3 O 1.3371 52.1033 3.40789 -1.2 1 0.158698 0.0629093 0.00340531 0.0180991 0.00230928 0.0113472 0.0036664 0.0206147 0.00351535 0.0204732 0.00419565 0.0309488 0.00522742 0.0227188 0.00550042 0.0295697 0.0052971 0.0227325 0.00739047 0.0387242
21 1 Mg -0.201733 53.9758 0.195512 1.2 1 0.117697 0.0492698 0.00187849 0.0137443 0.00273903 0.00853626 0.00282494 0.0205736 0.00352496 0.0171193 0.00404394 0.0293689 0.00439186 0.0212431 0.00348311 0.0289179 0.00494747 0.0210528 0.00642003 0.0380638
22 3 O 1.23756 51.9634 5.89169 -1.2 1 0.162264 0.0634232 0.00456706 0.0183829 0.00268888 0.011671 0.00346793 0.0206041 0.00400638 0.0209526 0.00368122 0.031243 0.00554528 0.0235132 0.00471046 0.0292053 0.00558834 0.022386 0.00771529 0.0387039
23 1 Mg -0.101092 57.0231 1.66812 1.2 1 0.0513027 0.0277682 0.00667427 0.00696872 0.00128171 0.00609711 0.00203363 0.0216497 0.00490083 0.0116373 0.00344076 0.0298604 0.00314465 0.0202802 0.00443579 0.0305268 0.00591924 0.0224095 0.00539086 0.0445143
24 2 Si -2.2111 55.0493 1.75465 2.4 1 0.0989156 0.0429446 0.00221316 0.011455 0.00196805 0.00830445 0.00216324 0.0207649 0.00391829 0.015235 0.00391244 0.0297071 0.00327553 0.021541 0.00306768 0.0297411 0.00536213 0.0212408 0.00546645 0.041847
25 3 O 1.02158 54.9123 1.7942 -1.2 1 0.103886 0.0440063 0.00203413 0.0120946 0.00253107 0.008405 0.00239066 0.0197626 0.00373926 0.0150063 0.00405183 0.0296756 0.00292792 0.0200939 0.0032769 0.0297728 0.00444922 0.0213545 0.00596929 0.0407551
26 3 O -1.19252 58.7432 1.71996 -1.2 1 0.023207 0.0164122 0.00691397 0.00566384 0.00109863 0.00594731 0.00132457 0.0229281 0.00400254 0.00929928 0.00235564 0.0296618 0.00273937 0.0195971 0.00447991 0.0312568 0.00630961 0.0242574 0.00545221 0.0473873
27 3 O -1.58398 55.7876 0.460761 -1.2 1 0.0786036 0.0367652 0.00441999 0.00947953 0.00242959 0.00659659 0.00212873 0.0209114 0.00350002 0.0137552 0.00344123 0.0286652 0.00261435 0.0207475 0.00361216 0.0303107 0.00475665 0.0217112 0.0061185 0.0418576
28 3 O -1.55957 55.6128 3.08393 -1.2 1 0.0850004 0.0382691 0.00298126 0.00931947 0.00152138 0.00735892 0.00225656 0.0215914 0.00380273 0.0143642 0.00281477 0.029714 0.00270931 0.0206962 0.00266671 0.0299682 0.00558432 0.0227349 0.00513838 0.0429432
29 1 Mg -2.46803 59.2404 0.253278 1.2 1 0.0201042 0.0137284 0.00542675 0.00500713 0.00103529 0.00635083 0.00183682 0.0229358 0.00313287 0.00980827 0.00254789 0.0299431 0.00258509 0.0197725 0.00383708 0.0313485 0.0045494 0.0239168 0.00469934 0.0472461
30 1 Mg 2.08873 62.0721 1.7605 1.2 1 0.00441475 0.00643452 0.0014979 0.00619405 0.00111532 0.00608923 0.00108267 0.0234196 0.00255151 0.00828171 0.00207065 0.0289611 0.00196439 0.0195205 0.00336363 0.0321367 0.00412501 0.0253291 0.00309234 0.0498903
31 2 Si -0.596173 60.2076 1.76551 2.4 1 0.0111194 0.0102991 0.00318579 0.00644765 0.00146228 0.00671344 0.00104524 0.0228306 0.00271373 0.00939164 0.00290569 0.0286635 0.00364609 0.0204587 0.00491491 0.0309858 0.00619416 0.0250176 0.00420776 0.0492906
32 3 O 1.00067 60.1904 1.71188 -1.2 1 0.00997121 0.00976446 0.00322924 0.00622803 0.00122731 0.00573943 0.00112836 0.0222303 0.00369919 0.00854755 0.0020956 0.028814 0.00215719 0.0197049 0.00362957 0.0317643 0.00523387 0.024113 0.00403345 0.0491759
33 3 O -1.32509 63.733 1.74736 -1.2 1 0.00438281 0.00597204 0.00120718 0.00648233 0.00100691 0.00612497 0.000940118 0.0244616 0.00141637 0.00897091 0.00219964 0.0290013 0.00248388 0.0195088 0.00277691 0.0319227 0.00370112 0.0256211 0.00250793 0.0508699
34 3 O -1.19884 60.9034 0.466933 -1.2 1 0.00884171 0.00795042 0.00214007 0.00520229 0.00109173 0.00672764 0.00127924 0.0231066 0.00267742 0.00860458 0.00184689 0.0282407 0.00206742 0.0206223 0.00327335 0.0321456 0.00344558 0.024854 0.00316307 0.0491902
35 1 Mg -2.31848 69.5637 3.24763 1.2 1 0.00569514 0.00471551 0.00142132 0.00686293 0.0019458 0.00556479 0.00116336 0.0239684 0.00191097 0.00875017 0.00142762 0.030104 0.00266654 0.0188386 0.00348986 0.0308137 0.00279284 0.0252978 0.00440452 0.0489163
36 3 O -1.25204 60.8442 3.08979 -1.2 1 0.00636713 0.00850922 0.00243287 0.00626595 0.00121001 0.00616773 0.00158143 0.0235194 0.00302718 0.00933176 0.00273416 0.0281293 0.00328656 0.0203751 0.00511885 0.0315034 0.00638014 0.0256469 0.00391319 0.0497691
37 1 Mg -2.36201 66.6512 4.75859 1.2 1 0.00504227 0.00609679 0.00186 0.00661613 0.00196311 0.00547529 0.00127436 0.0239592 0.00207923 0.00887532 0.00223172 0.0293159 0.00234348 0.0189995 0.00402167 0.0312679 0.00444634 0.0253703 0.00493229 0.050264
38 2 Si 0.335556 68.5943 4.71218 2.4 1 0.00521367 0.00498359 0.00196537 0.00774034 0.00297418 0.00558483 0.00235327 0.0237142 0.002324 0.00893166 0.00276337 0.0286944 0.00365944 0.0194271 0.00479352 0.0308207 0.00334808 0.0249139 0.00432743 0.0507893
39 3 O -1.21918 68.6411 4.6903 -1.2 1 0.00562985 0.00519491 0.00158601 0.00738697 0.00279202 0.00541187 0.00198572 0.0230469 0.00312323 0.00868173 0.00220109 0.0288443 0.00335395 0.018844 0.00517546 0.0309217 0.00486174 0.0249399 0.00623492 0.0500799
40 3 O 1.37017 64.7727 4.69287 -1.2 1 0.00428373 0.00585878 0.00201394 0.00668827 0.00188632 0.00619719 0.00160095 0.0241795 0.00208299 0.00867114 0.00170272 0.0290455 0.00328777 0.0190793 0.00471776 0.0309239 0.0038956 0.0252453 0.00515844 0.0505276
41 3 O 1.1248 67.7042 3.55548 -1.2 1 0.00601413 0.00561631 0.00204824 0.00681117 0.00235222 0.00495152 0.00153245 0.0234356 0.00191481 0.00916245 0.00192306 0.0284634 0.00380647 0.0195563 0.00412921 0.0310942 0.00371365 0.0248978 0.00510788 0.0506425
42 3 O 0.997517 68.0598 6.11378 -1.2 1 0.00474981 0.00518499 0.00184464 0.00691672 0.00270381 0.00558293 0.00264077 0.0242843 0.0021138 0.00914119 0.00239775 0.0288196 0.00287538 0.0198653 0.00371223 0.0313861 0.00324063 0.0251894 0.00348227 0.0503302
43 1 Mg -0.0687666 64.2776 3.30986 1.2 1 0.00446671 0.00606128 0.00183904 0.0062617 0.0014447 0.00587374 0.0010854 0.023838 0.0015213 0.00877778 0.00127468 0.0292856 0.00258088 0.0185609 0.00326846 0.0314164 0.00350592 0.0256618 0.00423335 0.0505448
44 1 Mg -0.245743 61.4011 4.88123 1.2 1 0.0039622 0.00804085 0.00200619 0.00612208 0.00157613 0.00621758 0.0010765 0.0235299 0.00150967 0.00952322 0.00316521 0.0286896 0.00312218 0.0195785 0.00413971 0.0313237 0.00545368 0.0257722 0.00496441 0.0492139
45 2 Si 2.01741 63.2916 4.72274 2.4 1 0.00294968 0.00583038 0.00149325 0.0075284 0.00187732 0.00610605 0.00185204 0.0237005 0.00180256 0.00828937 0.00220967 0.0277924 0.0026439 0.0191844 0.00360939 0.031272 0.00356462 0.0255392 0.00386336 0.0516507
46 3 O -1.15263 63.3628 4.74664 -1.2 1 0.00307189 0.00591831 0.00134198 0.00705999 0.00186554 0.00561322 0.00166871 0.0228952 0.00218741 0.00794706 0.00211874 0.0288009 0.00316637 0.0186325 0.00417639 0.0313649 0.00470065 0.0247291 0.00456483 0.0506595
47 3 O 0.863859 59.585 4.80277 -1.2 1 0.0135787 0.0136159 0.00387526 0.00632334 0.00162086 0.0063372 0.00227647 0.0238192 0.00321007 0.00939421 0.00181418 0.0294973 0.0030579 0.0201432 0.00468947 0.0308955 0.00586524 0.0249285 0.00481023 0.0482186
48 3 O 1.31275 62.7531 3.38135 -1.2 1 0.00325871 0.00613516 0.0015244 0.00636605 0.00197045 0.00613686 0.0018959 0.0237482 0.00175419 0.0083732 0.00200119 0.0284207 0.00256689 0.0192933 0.00288248 0.0316952 0.00331728 0.025397 0.00345217 0.0512024
49 1 Mg 0.00544586 64.2826 0.266513 1.2 1 0.00557358 0.00585571 0.00119478 0.00657056 0.000951962 0.00578457 0.000690106 0.0229582 0.0013423 0.00906024 0.00126782 0.0292126 0.0018644 0.0189007 0.00197843 0.032089 0.00274175 0.0247007 0.00190271 0.0493639
50 3 O 1.27435 62.4672 5.88084 -1.2 1 0.00172305 0.00615566 0.00154743 0.00682431 0.00186418 0.00560559 0.00176736 0.0236512 0.00162393 0.008513 0.00164677 0.0285868 0.00235567 0.0198852 0.00317688 0.0319794 0.00384762 0.0253184 0.00451504 0.0502602
51 1 Mg -0.0824467 67.2235 1.7713 1.2 1 0.0074338 0.00527042 0.00201404 0.00678964 0.00198543 0.00505877 0.00147917 0.0236142 0.0020868 0.00933635 0.00198318 0.0293365 0.0035344 0.0192485 0.00413867 0.0319686 0.00318871 0.0257427 0.00388529 0.0505773
52 2 Si -2.02603 65.2743 1.66392 2.4 1 0.00581038 0.00627094 0.00160864 0.00722686 0.00117445 0.00582247 0.00184242 0.023156 0.00170987 0.00864727 0.00312271 0.0283715 0.00290802 0.0196729 0.00592086 0.0310652 0.00434413 0.0247341 0.00446921 0.0513996
53 3 O 1.23501 65.3521 1.73675 -1.2 1 0.00569549 0.00588775 0.00196727 0.00688286 0.00143153 0.00577912 0.00139169 0.0231031 0.00186669 0.00807414 0.00159484 0.0285578 0.00257688 0.0186803 0.00279305 0.0317075 0.00350614 0.0249241 0.00314157 0.0509298
54 3 O -1.01922 69.1054 1.67089 -1.2 1 0.00667855 0.0042538 0.001907 0.00734539 0.00163869 0.00576918 0.0011002 0.0241105 0.0014778 0.00875353 0.002405 0.0296727 0.00261329 0.0191993 0.00410777 0.0309431 0.00338942 0.0248731 0.00360652 0.0493413
55 3 O -1.3685 65.9449 0.344795 -1.2 1 0.00642534 0.00558436 0.00174746 0.00674994 0.00146141 0.00537727 0.00192608 0.0239685 0.00154264 0.00831794 0.00198509 0.0282363 0.00211523 0.0195354 0.00355472 0.0324696 0.00278396 0.0250527 0.0031051 0.0504957
56 3 O -1.32465 65.8836 3.01906 -1.2 1 0.00540534 0.00586355 0.0019595 0.006536 0.00205279 0.00545193 0.00311614 0.0236319 0.00241521 0.00823393 0.00302535 0.0282169 0.00368885 0.0190567 0.00599068 0.0313275 0.00489627 0.0253688 0.00577163 0.0509909
57 1 Mg -2.25887 69.4245 0.0815534 1.2 1 0.00731671 0.0036815 0.00135417 0.00706551 0.00180375 0.00549038 0.000974132 0.0239961 0.00130332 0.0085215 0.00152705 0.029118 0.00266573 0.0191718 0.00250538 0.0315874 0.00249095 0.0243723 0.00336242 0.0490203
58 1 Mg 2.21033 72.4676 1.56078 1.2 1 0.0045681 0.00349543 0.00121929 0.00718456 0.00140314 0.00511259 0.00130363 0.0242159 0.00260447 0.00962987 0.00188695 0.0293472 0.00284507 0.0202375 0.00354933 0.0312465 0.00270018 0.0247746 0.00314661 0.049234
59 2 Si -0.338195 70.657 1.67526 2.4 1 0.00606939 0.0033881 0.00119118 0.00763738 0.00141651 0.00521272 0.00170045 0.0238518 0.0016532 0.00885043 0.00231463 0.0285675 0.00243798 0.0197667 0.00471058 0.0308851 0.00350097 0.02468 0.00446747 0.0504552
60 3 O 1.22964 70.4643 1.65185 -1.2 1 0.00605385 0.00352117 0.00162414 0.00750994 0.00131361 0.00495992 0.00135551 0.0232843 0.00232336 0.00853581 0.00214516 0.0289334 0.00268605 0.0189698 0.00228572 0.0313796 0.00253396 0.0243806 0.00320222 0.0496351
61 3 O -1.46921 74.3674 1.50176 -1.2 1 0.00311211 0.00398961 0.00110139 0.00749339 0.000991599 0.00505217 0.00114387 0.0249056 0.00135913 0.0101261 0.00198348 0.0296061 0.0024729 0.0199392 0.00284559 0.0311522 0.00234277 0.0248278 0.00309086 0.048833
62 3 O -1.03285 71.252 0.270415 -1.2 1 0.00590086 0.0031059 0.000940372 0.00690506 0.0012653 0.00506975 0.00198649 0.0245052 0.00202424 0.00910349 0.00199091 0.0285898 0.00250248 0.0203413 0.00327197 0.0317548 0.0027545 0.0248919 0.00359624 0.0494469
63 1 Mg -2.3359 80.1893 3.17939 1.2 1 0.00260395 0.00575205 0.00147518 0.00673289 0.000989186 0.00558728 0.00147026 0.0243872 0.00130648 0.0101905 0.0022007 0.0296005 0.00125396 0.020806 0.00228197 0.0317511 0.00246545 0.0253151 0.00296631 0.0475116
64 3 O -1.06421 71.2336 2.96499 -1.2 1 0.00462512 0.00364099 0.0013643 0.00720543 0.00141363 0.00519492 0.00235771 0.024102 0.00243036 0.00934974 0.00247572 0.0286732 0.00271609 0.0201427 0.00429341 0.0310399 0.00387502 0.0248157 0.00416443 0.0497535
65 1 Mg -2.40079 77.2511 4.58597 1.2 1 0.00251976 0.00540037 0.00161389 0.00722334 0.00108748 0.00507416 0.00116361 0.0241256 0.00233596 0.0104095 0.00227234 0.029996 0.00182131 0.0207314 0.0027679 0.031177 0.00311176 0.0258499 0.00294529 0.0489104
66 2 Si 0.296243 79.044 4.59875 2.4 1 0.00304103 0.00540623 0.00162899 0.00779885 0.00162429 0.0055991 0.00184415 0.0239982 0.00204197 0.00984981 0.00247143 0.0285286 0.0018327 0.02087 0.0033722 0.030855 0.00286439 0.0254404 0.0031944 0.0493193
67 3 O -1.23131 79.2038 4.74315 -1.2 1 0.00288621 0.00540681 0.0018098 0.00747163 0.00124434 0.00531168 0.00191798 0.0234154 0.0025457 0.00996966 0.00233981 0.0295425 0.00209191 0.0202955 0.00263104 0.0311646 0.00354466 0.0250746 0.0037369 0.0484648
68 3 O 1.34018 75.3629 4.48555 -1.2 1 0.000633223 0.00473399 0.00137298 0.00757077 0.00158659 0.00562071 0.00137941 0.0242508 0.00207328 0.00969968 0.00207104 0.0299673 0.00205262 0.0199889 0.00336362 0.0306158 0.00319615 0.0253754 0.00324958 0.049253
69 3 O 0.993294 78.4602 3.32449 -1.2 1 0.00280501 0.00560725 0.00154206 0.00744803 0.00160314 0.00497916 0.0021242 0.0241333 0.00204632 0.00984518 0.0016836 0.0290205 0.00197489 0.0207165 0.00320351 0.0315224 0.0028373 0.0254194 0.00292225 0.0487553
70 3 O 0.99852 78.3929 5.91512 -1.2 1 0.00317221 0.00539614 0.00139848 0.00726489 0.0016144 0.00529727 0.0017165 0.0239871 0.00223872 0.00945013 0.00203744 0.0287364 0.00196215 0.020601 0.00312468 0.0313758 0.00302922 0.0255981 0.00312287 0.0489122
71 1 Mg -0.0343684 74.8173 3.09937 1.2 1 0.00109933 0.00460748 0.00129532 0.00739265 0.00127541 0.00530823 0.00109358 0.0245124 0.00155869 0.00956543 0.00167424 0.0298332 0.00191391 0.019687 0.00246576 0.0312018 0.00246399 0.025378 0.00268595 0.0482854
72 1 Mg -0.0973249 71.7757 4.62893 1.2 1 0.00287317 0.00411614 0.000947909 0.00700336 0.00161864 0.00511353 0.00118332 0.0241712 0.00262437 0.00937354 0.00153071 0.0297404 0.00269148 0.0197493 0.00390722 0.0308612 0.0037738 0.0254343 0.0044533 0.0499202
73 2 Si 1.87487 73.7868 4.5841 2.4 1 0.00125238 0.00378588 0.00122963 0.00827045 0.00245179 0.00527287 0.0022935 0.0235599 0.00202771 0.00980066 0.00225235 0.0289444 0.00213213 0.0205609 0.00462277 0.0304786 0.00315822 0.0247951 0.00253422 0.0500975
74 3 O -1.33451 73.7492 4.66023 -1.2 1 0.000823161 0.0038756 0.00106896 0.00754874 0.00219189 0.00475766 0.00195381 0.0234197 0.0026368 0.00957827 0.00150801 0.029046 0.00258662 0.0199489 0.00268513 0.0310425 0.00338343 0.0247671 0.00383766 0.0502025
75 3 O 1.03247 69.9968 4.71874 -1.2 1 0.00465376 0.00446088 0.0013268 0.00721478 0.00214852 0.00589371 0.00162542 0.0240921 0.00242888 0.00903173 0.00189941 0.02963 0.0030212 0.0191467 0.00442479 0.0305135 0.00318511 0.0253887 0.00518197 0.0499927
76 3 O 1.23193 73.0891 3.29773 -1.2 1 0.00262622 0.00395774 0.00126315 0.00721385 0.00255651 0.00503998 0.00241616 0.0242771 0.00219465 0.00978332 0.00217258 0.0286879 0.0026539 0.0206404 0.00396063 0.0313415 0.00301253 0.0250985 0.00358428 0.0495667
77 1 Mg -0.130811 74.8502 0.199753 1.2 1 0.00369599 0.00420442 0.00110475 0.00690871 0.000782535 0.00486101 0.000948907 0.0246487 0.00133084 0.0102266 0.00148725 0.0298411 0.00192301 0.0204445 0.00217574 0.0315641 0.00256141 0.0245472 0.00233873 0.047761
78 3 O 1.1419 73.2199 5.89083 -1.2 1 0.00179425 0.00397796 0.0011781 0.00714634 0.00232551 0.00537193 0.00239504 0.0239274 0.00229636 0.00968352 0.00212276 0.0288992 0.00192701 0.0206156 0.00348734 0.0309365 0.00331089 0.0249045 0.00338614 0.0496989
79 1 Mg -0.181217 77.819 1.60924 1.2 1 0.00221132 0.00589509 0.00161326 0.00714239 0.00112344 0.00483678 0.00184652 0.0246484 0.00185317 0.0103759 0.00249701 0.0293159 0.00183333 0.0208757 0.00357868 0.0317439 0.0028145 0.0251446 0.00264737 0.0481569
80 2 Si -2.17117 75.8826 1.5839 2.4 1 0.00205498 0.0047852 0.00147327 0.00818291 0.00133323 0.00500952 0.00179794 0.0241098 0.00179767 0.0101749 0.00221883 0.0284712 0.0019269 0.0209625 0.00388662 0.030853 0.00313869 0.0245229 0.00307426 0.0496549
81 3 O 1.08196 75.7721 1.6185 -1.2 1 0.00239084 0.00450922 0.00112798 0.00756458 0.0012651 0.00453409 0.00152739 0.0243699 0.00281817 0.0099077 0.00236194 0.0294255 0.00231022 0.0203243 0.002638 0.0316187 0.00338827 0.0246856 0.0030565 0.0486507
82 3 O -0.955747 79.7665 1.58205 -1.2 1 0.00276688 0.00617494 0.00160167 0.00714625 0.00100516 0.00533147 0.00154577 0.0247134 0.00126515 0.0103709 0.00189803 0.0292871 0.00166848 0.0207066 0.00308487 0.0313044 0.00263549 0.0249174 0.00334347 0.0475622
83 3 O -1.36178 76.6952 0.434137 -1.2 1 0.00261966 0.00579752 0.0015074 0.00683871 0.00139246 0.0048551 0.00180225 0.0244799 0.00132729 0.0106798 0.0013569 0.0286666 0.00222318 0.0215708 0.00288049 0.0324319 0.00214826 0.0247776 0.00224436 0.0481514
84 3 O -1.39972 76.5254 2.96185 -1.2 1 0.00130612 0.00538193 0.00136968 0.0072809 0.00154902 0.00490841 0.00203481 0.0243969 0.00146681 0.00987551 0.00153461 0.0289324 0.00187729 0.0210834 0.00321968 0.0317091 0.00298536 0.0253159 0.00247542 0.0486528
85 1 Mg -2.29058 80.2197 0.119182 1.2 1 0.00240952 0.00637313 0.0012735 0.00644269 0.000894187 0.00515443 0.00106104 0.024472 0.000974275 0.0108814 0.0017451 0.0299889 0.00147769 0.0201424 0.00235367 0.0314833 0.00231611 0.0249221 0.00281176 0.0461832
86 1 Mg 2.35415 83.1652 1.55344 1.2 1 0.00235031 0.00654994 0.00142124 0.00624527 0.000886617 0.00542588 0.00167585 0.0244618 0.00174389 0.0102678 0.0025618 0.0285867 0.00195589 0.0210117 0.00274842 0.0317444 0.00279399 0.025438 0.00293662 0.0466141
87 2 Si -0.190699 81.2744 1.61168 2.4 1 0.00245834 0.0064354 0.00197149 0.00722194 0.0014316 0.00520071 0.00171799 0.0237139 0.00142167 0.00998028 0.00187406 0.0279827 0.00135725 0.0205879 0.00279144 0.0313107 0.00256761 0.0249223 0.00338161 0.0471791
88 3 O 1.28679 81.2479 1.688 -1.2 1 0.00217323 0.00653127 0.00196712 0.00680698 0.00167974 0.00500384 0.00161276 0.0233904 0.00233453 0.0100598 0.00227932 0.0283082 0.00192389 0.0209521 0.00231137 0.0317972 0.00273689 0.0246202 0.00375598 0.0473371
89 3 O -1.26749 84.8839 1.49825 -1.2 1 0.00278221 0.00646343 0.00133386 0.00680375 0.00121255 0.00610798 0.000912308 0.0237499 0.00158197 0.0102202 0.00162332 0.0289041 0.00193722 0.0204707 0.00272614 0.0307195 0.00231617 0.0249847 0.00354372 0.0467533
90 3 O -0.819849 81.8669 0.309174 -1.2 1 0.00238011 0.00661342 0.00166719 0.00660821 0.00194726 0.0047084 0.00174208 0.0239234 0.00169802 0.0100361 0.00214139 0.028127 0.00206058 0.0205445 0.00297622 0.0318 0.00241268 0.0247751 0.00339194 0.0462699
91 1 Mg -2.40655 90.6897 2.9218 1.2 1 0.00105079 0.00498727 0.000879507 0.00596778 0.000978454 0.0060387 0.000951734 0.0241297 0.000857241 0.0091562 0.000985205 0.0290518 0.00122419 0.0203533 0.00162182 0.0324301 0.00190053 0.02577 0.00168091 0.0488335
92 3 O -0.874354 81.8242 2.93223 -1.2 1 0.00265672 0.0061592 0.00198852 0.00649721 0.00113561 0.00526547 0.00182495 0.0238837 0.0012452 0.0100589 0.00208389 0.0286225 0.00186789 0.0210768 0.00291868 0.0318451 0.0027531 0.0247337 0.00292079 0.047405
93 1 Mg -2.15494 87.6688 4.51218 1.2 1 0.00246981 0.00570094 0.00121941 0.00662966 0.000950732 0.00591976 0.0013584 0.0234581 0.00180205 0.00969627 0.00224246 0.0288389 0.00248055 0.0209138 0.00268771 0.0321273 0.00268742 0.0257049 0.00243314 0.0480719
94 2 Si 0.307521 89.5622 4.38957 2.4 1 0.000640935 0.00510536 0.00127287 0.00666166 0.00175685 0.00624684 0.00151483 0.023115 0.00122803 0.00908362 0.0016118 0.027584 0.00218812 0.0212225 0.00251534 0.0321882 0.0024906 0.0254294 0.00294371 0.0489922
95 3 O -1.19337 89.6142 4.44575 -1.2 1 0.00133724 0.00513446 0.00123432 0.006727 0.00142109 0.00576625 0.00149254 0.0228856 0.00179473 0.0089407 0.00152051 0.0286632 0.00274837 0.0205592 0.00251981 0.0325637 0.00335039 0.0247415 0.00358472 0.0489186
96 3 O 1.31287 85.7415 4.62869 -1.2 1 0.00210345 0.00587842 0.00128118 0.00705591 0.000975967 0.00636906 0.00124875 0.0236769 0.00151707 0.00986646 0.00189876 0.0289896 0.0023122 0.0205117 0.00271751 0.0314756 0.00278422 0.0252231 0.00301494 0.0472967
97 3 O 1.10624 88.9468 3.02393 -1.2 1 0.00186769 0.00512839 0.00104742 0.00630554 0.00112729 0.00575868 0.00143562 0.0238828 0.00165301 0.00938233 0.00164874 0.0280024 0.00213611 0.0210288 0.00237891 0.0322879 0.00215352 0.0256933 0.00187471 0.0487604
98 3 O 1.10712 88.7725 5.55559 -1.2 1 0.00103805 0.00503859 0.00106092 0.00615638 0.00142457 0.00580588 0.0013165 0.0233043 0.00143164 0.00896648 0.00137882 0.0279928 0.0021237 0.021068 0.00215181 0.0326148 0.0028155 0.0252898 0.00361552 0.0482343
99 1 Mg 0.119241 85.3695 3.04368 1.2 1 0.00228244 0.00643211 0.00103403 0.00663777 0.00080897 0.00611046 0.00120052 0.0236698 0.00109175 0.00981751 0.0015143 0.0289002 0.00157494 0.0201592 0.00154903 0.0312918 0.0020021 0.025237 0.00175498 0.046157
100 1 Mg -0.060215 82.4455 4.73 1.2 1 0.00312134 0.0055894 0.00189719 0.00685496 0.000851492 0.00575978 0.00157876 0.0236332 0.00201489 0.0101757 0.00262954 0.0291316 0.00212379 0.0210193 0.00345069 0.0319581 0.00357827 0.02528 0.00351472 0.047346
101 2 Si 2.07193 84.3147 4.58841 2.4 1 0.00222428 0.00563121 0.0016695 0.00779752 0.00173257 0.00595526 0.00214574 0.0231507 0.00220815 0.00981592 0.00284571 0.0281906 0.00222798 0.0211227 0.00405541 0.0315231 0.00293968 0.024519 0.00284804 0.0479527
102 3 O -1.13436 84.3418 4.584 -1.2 1 0.00233699 0.00556643 0.00154261 0.0071501 0.00167428 0.00561663 0.00167806 0.023283 0.00253318 0.00979666 0.00194839 0.0285877 0.00172154 0.020741 0.00268027 0.0321262 0.00256925 0.0249265 0.00313496 0.0477008
103 3 O 1.02591 80.5278 4.61714 -1.2 1 0.00263904 0.00553295 0.00197512 0.00724452 0.00140499 0.00577962 0.0017674 0.0241558 0.00160674 0.0102192 0.00261543 0.0294825 0.00173722 0.0204157 0.00288249 0.0315134 0.00255713 0.0254039 0.00351082 0.0479925
104 3 O 1.37022 83.7448 3.20412 -1.2 1 0.00252466 0.00606852 0.00182036 0.00655455 0.00175723 0.00553448 0.00248212 0.0238705 0.00171358 0.00988637 0.00269544 0.0283906 0.002425 0.0212997 0.00282287 0.0320701 0.00208696 0.0250315 0.00242185 0.0470959
105 1 Mg 0.0585504 85.279 0.032503 1.2 1 0.0021662 0.00630322 0.0011835 0.00660962 0.000588814 0.00550772 0.00125516 0.023887 0.00104055 0.0102763 0.0014196 0.029152 0.00166024 0.0204315 0.00201705 0.0306774 0.00186109 0.0248753 0.00194946 0.0460661
106 3 O 1.29865 83.563 5.83758 -1.2 1 0.00257671 0.00548877 0.00143105 0.00687315 0.0015981 0.00562219 0.00199038 0.0236176 0.00168394 0.00999195 0.00269691 0.0281845 0.0022097 0.0214381 0.00360956 0.0320499 0.00268605 0.0251527 0.00304027 0.0479279
107 1 Mg 0.0812589 88.322 1.29013 1.2 1 0.00172422 0.00554748 0.00119172 0.00672417 0.000586203 0.00547401 0.00155422 0.0239747 0.00215603 0.00936558 0.00255901 0.0284663 0.00230408 0.020819 0.0034031 0.0317269 0.00306778 0.0256939 0.00307704 0.0479383
108 2 Si -1.92649 86.3573 1.51715 2.4 1 0.0020655 0.00574351 0.00106124 0.00748738 0.00128416 0.00605852 0.00137781 0.0231609 0.00131451 0.00965866 0.00238151 0.0278044 0.00210273 0.0212601 0.00360595 0.0312042 0.0029532 0.0249587 0.00264326 0.0478856
109 3 O 1.29818 86.3202 1.44324 -1.2 1 0.0019751 0.00580458 0.00112283 0.00708287 0.00117707 0.00573086 0.00154891 0.0230654 0.00217316 0.00940605 0.00178852 0.0280986 0.00244785 0.0202009 0.0020811 0.0312453 0.00245214 0.0247517 0.00241213 0.0475298
110 3 O -1.03348 90.1724 1.33766 -1.2 1 0.00236415 0.00514413 0.00097072 0.0066695 0.000842701 0.00584871 0.000986756 0.0239806 0.00152983 0.00905421 0.00181637 0.0288403 0.00191369 0.0200681 0.00311886 0.0317361 0.00287284 0.0251022 0.00285047 0.0491738
111 3 O -1.27467 87.0443 0.208504 -1.2 1 0.00213948 0.00588731 0.0010764 0.00646064 0.00129795 0.00555522 0.00204447 0.0239983 0.0017305 0.00973058 0.00135055 0.0276252 0.00203323 0.0216789 0.00219699 0.0321246 0.00274014 0.0258247 0.00319717 0.0477921
112 3 O -1.19845 86.9702 2.74408 -1.2 1 0.00203068 0.00576611 0.00086955 0.00677271 0.00144853 0.00564518 0.00179678 0.023816 0.00201651 0.00975281 0.00179829 0.0276323 0.00228866 0.0214725 0.00279745 0.0320695 0.00303431 0.0255134 0.00191238 0.0476942
113 1 Mg -2.31349 90.6504 -0.0845837 1.2 1 0.00253923 0.00557845 0.00112514 0.00615878 0.00104248 0.00542266 0.000860551 0.0238995 0.000942495 0.00918281 0.00122726 0.0295051 0.00164817 0.0198746 0.00161801 0.0324821 0.00180641 0.0249999 0.00211773 0.0487491
114 1 Mg 2.39627 93.4403 1.47284 1.2 1 0.00264336 0.00570587 0.0015007 0.00642469 0.000905884 0.00484134 0.0010157 0.0239687 0.002199 0.00947298 0.00164805 0.0289103 0.00225489 0.0203685 0.0029125 0.0332224 0.0025335 0.025355 0.00286539 0.0501915
115 2 Si -0.241965 91.7324 1.42022 2.4 1 0.0019649 0.005136 0.00116137 0.00666387 0.00120992 0.00560376 0.00163738 0.0240649 0.00194132 0.00889914 0.00177857 0.0279048 0.00221312 0.0205515 0.00266749 0.0326475 0.00273775 0.025537 0.00231909 0.0503027
116 3 O 1.38161 91.5233 1.36621 -1.2 1 0.0020393 0.00534247 0.000929432 0.00653843 0.00113462 0.00534927 0.00123696 0.0234571 0.00295535 0.00876119 0.00185149 0.0286677 0.00176616 0.0204077 0.00241456 0.0325889 0.00332906 0.0249389 0.00324232 0.0495896
117 3 O -1.33363 95.3167 1.51121 -1.2 1 0.00299092 0.005608 0.00155246 0.00644663 0.000841854 0.00533636 0.00102218 0.0245371 0.00136363 0.00879193 0.00243248 0.0288953 0.00187424 0.0198364 0.00261493 0.0326743 0.00240843 0.0247354 0.00356391 0.0498532
118 3 O -0.890718 92.3462 0.106347 -1.2 1 0.00249433 0.00575321 0.00136814 0.00612768 0.00106957 0.00497497 0.00101173 0.0240664 0.00185417 0.00866393 0.00201906 0.028196 0.00241471 0.020279 0.00282622 0.0332985 0.00261307 0.0252582 0.00308207 0.0498383
119 1 Mg -2.34463 100.944 2.73838 1.2 1 0.00321397 0.00529653 0.000859511 0.00653203 0.000798342 0.00551004 0.0012879 0.0242647 0.0010383 0.0102188 0.00157401 0.0298 0.00171066 0.0196525 0.00177049 0.031732 0.00163832 0.0247992 0.00248872 0.0475692