ITEM: TIMESTEP
20300
ITEM: NUMBER OF ATOMS
5600
ITEM: BOX BOUNDS xy xz yz pp pp pp
0	7.1235	0
0	201.985	2.3745
0	119.584	0
ITEM: ATOMS id type element xu yu zu q Q_1 Q_2 Q_3 Q_4 Q_5 Q_6 Q_7 Q_8 Q_9 Q_10 Q_11 Q_12 Q_13 Q_14 Q_15 Q_16 Q_17 Q_18 Q_19 Q_20 Q_21
1 1 Mg -1.63457 49.7808 -1.15498 1.2 1 0.237089 0.0773052 0.0197182 0.0260221 0.00536905 0.0157012 0.00474553 0.0214553 0.00457287 0.0238917 0.00648714 0.0279141 0.0100637 0.0274449 0.00649751 0.0257539 0.00825185 0.0219968 0.0108472 0.0322731
2 1 Mg 2.97586 50.9402 2.26868 1.2 1 0.200341 0.0698234 0.0110103 0.0215282 0.00189967 0.0114541 0.00402455 0.0181496 0.00458731 0.0208176 0.005314 0.0239136 0.00610183 0.0249449 0.00540393 0.0267776 0.00705399 0.0200629 0.00912168 0.0310655
3 2 Si 0.938088 51.1122 0.278674 2.4 1 0.203442 0.0719263 0.0123839 0.0225025 0.00320445 0.0122369 0.00327827 0.0195046 0.00587175 0.0211998 0.00562732 0.0261678 0.00791718 0.0266276 0.00539112 0.0260789 0.00732156 0.0205359 0.00958118 0.0321104
4 3 O 2.29042 50.3463 0.518494 -1.2 1 0.221339 0.0737348 0.0169622 0.0242679 0.00391466 0.0139443 0.00395047 0.0194898 0.00564275 0.022383 0.00569163 0.0252648 0.00888265 0.0259775 0.00691694 0.025825 0.00799617 0.0208105 0.00911578 0.0303665
5 3 O -1.43614 53.9384 1.6997 -1.2 1 0.1339 0.0519421 0.00287079 0.0139913 0.00232519 0.00942054 0.0028779 0.0180793 0.00329367 0.0160663 0.0033974 0.0255408 0.00475368 0.0216676 0.00292622 0.02683 0.00626086 0.0202804 0.0077346 0.0364793
6 3 O 0.191483 50.4953 -0.961173 -1.2 1 0.212962 0.073725 0.0151342 0.0236972 0.00379803 0.0149025 0.00405989 0.0203279 0.0044368 0.0230301 0.00571005 0.0275294 0.00884882 0.0268114 0.00592545 0.0263914 0.00675527 0.0204674 0.00935739 0.0324929
7 1 Mg -2.43357 59.6041 3.08459 1.2 1 0.0118598 0.0133879 0.00633004 0.00596901 0.0017894 0.00609071 0.00116887 0.0223935 0.00295664 0.0105278 0.00228371 0.0281676 0.00295356 0.0204474 0.00372717 0.0320764 0.00535891 0.0243815 0.00429895 0.0458638
8 3 O 0.0144023 51.0373 1.54033 -1.2 1 0.197914 0.0692189 0.0111518 0.0209305 0.00280598 0.0111249 0.0036306 0.0187293 0.00594495 0.0205039 0.00484567 0.0249353 0.00655898 0.0259929 0.00494667 0.0264805 0.00702564 0.0200059 0.00834071 0.0314064
9 1 Mg -2.41664 56.6433 4.57757 1.2 1 0.0678471 0.035211 0.00504458 0.00850578 0.00198725 0.00594964 0.0017188 0.0202842 0.00354702 0.0137788 0.00238513 0.0258218 0.00279906 0.021202 0.00399049 0.0286722 0.00517495 0.0213119 0.00623309 0.0389899
10 2 Si 0.334536 58.513 4.52944 2.4 1 0.0250275 0.0209196 0.00821316 0.00629673 0.00199301 0.00554977 0.00240812 0.0223393 0.00328174 0.010826 0.00333223 0.0265339 0.00276097 0.0216411 0.00537252 0.0307951 0.00480791 0.0229304 0.00503952 0.0444917
11 3 O -1.21393 58.6438 4.5952 -1.2 1 0.0227342 0.0201102 0.00794016 0.00598043 0.00164594 0.00516263 0.00209467 0.0222661 0.00332415 0.0105839 0.00218859 0.0270662 0.00322724 0.0207873 0.00415553 0.0308522 0.00518507 0.0226492 0.00495269 0.0448568
12 3 O 1.55727 54.5032 4.53754 -1.2 1 0.115653 0.0472537 0.00113613 0.0122896 0.00194696 0.0075447 0.00281969 0.0191297 0.00311884 0.016624 0.00307756 0.0247624 0.00376044 0.0223178 0.00276482 0.026672 0.00526745 0.0202253 0.0065599 0.0359611
13 3 O 1.03049 57.8283 3.32107 -1.2 1 0.0392539 0.0260302 0.00711448 0.00706315 0.00210371 0.00571273 0.00145706 0.0217025 0.00360392 0.0119118 0.00216084 0.0262404 0.00274808 0.0214976 0.00419263 0.0306471 0.00471595 0.0227206 0.00480881 0.0432882
14 3 O 0.951112 57.8649 5.87339 -1.2 1 0.0343449 0.0245638 0.00778552 0.0061275 0.00158967 0.00548525 0.00133497 0.0215769 0.0034214 0.0108241 0.00214986 0.0263793 0.00249856 0.021391 0.00452686 0.0305766 0.00470334 0.0223499 0.00526612 0.0433915
15 1 Mg 0.0182023 54.4968 3.12812 1.2 1 0.120621 0.0498363 0.000830006 0.0127242 0.00186599 0.00835983 0.00194865 0.0185289 0.00377532 0.0164021 0.00318989 0.0256537 0.00407428 0.0212087 0.0030286 0.0260916 0.00550107 0.0201156 0.00657206 0.0355303
16 1 Mg 0.705643 50.3724 3.22234 1.2 1 0.218573 0.0718932 0.0154825 0.0232345 0.00358094 0.0126667 0.00382919 0.0191558 0.00522285 0.0224558 0.00468 0.0243768 0.00683441 0.0261874 0.00534606 0.0259836 0.00757142 0.021 0.00977573 0.0300865
17 2 Si 2.32288 53.0705 4.68415 2.4 1 0.158925 0.0585231 0.00611631 0.0164532 0.00262935 0.00911775 0.00359177 0.0176604 0.00326358 0.0186567 0.00380873 0.0245112 0.00480258 0.0228162 0.0046361 0.0264229 0.00465284 0.0195694 0.00829998 0.0327882
18 3 O -0.869883 53.3925 4.61137 -1.2 1 0.140048 0.054083 0.00292739 0.0143226 0.00243003 0.00822734 0.00265863 0.0182556 0.00361726 0.018027 0.00305852 0.0257398 0.00457398 0.0241192 0.0029156 0.0264646 0.00521789 0.0201794 0.00783403 0.0339175
19 3 O 2.39672 49.2128 3.27362 -1.2 1 0.242157 0.0778738 0.0199896 0.0270823 0.00359678 0.0149736 0.00421213 0.0186241 0.00584955 0.0237708 0.00555507 0.024424 0.00853595 0.0262736 0.00750513 0.0256939 0.00864281 0.0221984 0.00995098 0.0287031
20 3 O 1.95434 52.0423 3.57122 -1.2 1 0.171732 0.0622083 0.00727412 0.0171943 0.00257094 0.010177 0.00330438 0.018069 0.00386694 0.0194653 0.00400508 0.0247647 0.00483295 0.0242305 0.00455898 0.0261581 0.00469117 0.0196253 0.00841047 0.0330146
21 1 Mg -0.0467889 54.4393 0.215869 1.2 1 0.122383 0.0492305 0.00235222 0.0137595 0.00234435 0.00976219 0.00246218 0.0190342 0.00342225 0.0166617 0.00326566 0.0274012 0.004568 0.0214574 0.00330224 0.0268719 0.00600237 0.0213494 0.00684507 0.0375131
22 3 O 1.62179 52.2899 5.91363 -1.2 1 0.165956 0.0614213 0.00685968 0.0177708 0.00265345 0.0098213 0.00320004 0.0183883 0.00430452 0.0199805 0.00402392 0.0247321 0.00504431 0.02399 0.00423925 0.0264886 0.00434544 0.019585 0.00772206 0.0319593
23 1 Mg 0.0850395 57.3173 1.57041 1.2 1 0.0498694 0.0298282 0.00645455 0.00799569 0.00203301 0.00653895 0.00141983 0.0204221 0.00454525 0.0123696 0.00312723 0.0273921 0.0034544 0.020822 0.00402513 0.0302573 0.00602073 0.0226563 0.00522678 0.0427342
24 2 Si -2.07782 55.4245 1.74033 2.4 1 0.0996975 0.0438996 0.0018288 0.011261 0.00202477 0.00796912 0.0019516 0.0186442 0.00431922 0.0142879 0.00355814 0.0259107 0.0034304 0.0212351 0.00333596 0.0274515 0.00597967 0.0205409 0.00625349 0.0387901
25 3 O 1.14208 55.4142 1.7186 -1.2 1 0.102474 0.0435238 0.00106287 0.0115481 0.00164578 0.00783269 0.00179532 0.0181333 0.00349863 0.0143022 0.00330806 0.0256678 0.00342687 0.0206211 0.00347952 0.0280795 0.00534143 0.0207554 0.00643187 0.0382432
26 3 O -1.06993 59.0406 1.65324 -1.2 1 0.020233 0.0175944 0.00864088 0.00595476 0.00147421 0.00611615 0.00144631 0.0222374 0.00393759 0.010185 0.00256177 0.0282573 0.00373491 0.0205172 0.00399485 0.0317081 0.00660851 0.024902 0.00583653 0.0465641
27 3 O -1.34532 56.3121 0.541252 -1.2 1 0.0742642 0.0368662 0.00461854 0.00953476 0.00228737 0.00726129 0.00162449 0.0198633 0.00383031 0.0137141 0.00303534 0.0264989 0.00298709 0.0207979 0.00365767 0.0292977 0.00594915 0.0224052 0.00599011 0.0410323
28 3 O -1.40503 56.0517 3.06228 -1.2 1 0.0822887 0.037915 0.0027654 0.00904291 0.00164095 0.0068942 0.001737 0.0198171 0.0034083 0.013837 0.00235413 0.0256838 0.00288402 0.0213348 0.00275256 0.0283026 0.00522198 0.0214913 0.0056848 0.0391662
29 1 Mg -2.38307 59.4919 0.0932411 1.2 1 0.0157486 0.0144267 0.00725871 0.00611063 0.000985943 0.0063441 0.00181323 0.0226983 0.00297929 0.0106924 0.00222334 0.028709 0.00257837 0.0202078 0.00378351 0.0323299 0.00506319 0.0264617 0.00431706 0.0478498
30 1 Mg 2.28303 62.3359 1.45353 1.2 1 0.000524418 0.00461081 0.00242433 0.00678813 0.000909514 0.00623281 0.00140545 0.0230441 0.0027672 0.00902363 0.00230621 0.0292892 0.00285182 0.0207499 0.00377345 0.033875 0.00420537 0.026281 0.00305433 0.050369
31 2 Si -0.307187 60.4911 1.6279 2.4 1 0.00883859 0.0107838 0.00595438 0.00708902 0.00127316 0.00639382 0.0010172 0.0227529 0.00253515 0.0100693 0.00273372 0.0282948 0.0034307 0.0215143 0.00398689 0.0323345 0.00604482 0.0254355 0.00448311 0.0496536
32 3 O 1.19623 60.4392 1.62391 -1.2 1 0.00885054 0.0107068 0.00603357 0.00638625 0.00125804 0.00619946 0.00137943 0.0225026 0.0029088 0.00974476 0.00255478 0.0284498 0.00290581 0.0203682 0.00296458 0.0329206 0.00500171 0.0255891 0.00408783 0.0487042
33 3 O -1.47957 64.2158 1.61507 -1.2 1 0.00163276 0.0030276 0.00168832 0.00696334 0.000754556 0.00665629 0.00106543 0.0240459 0.00123527 0.00898634 0.00238255 0.02993 0.00256119 0.0202426 0.0035815 0.0330392 0.00409922 0.0259911 0.00318346 0.0514815
34 3 O -1.01232 61.1495 0.368745 -1.2 1 0.00549851 0.00787575 0.00453918 0.00644819 0.000665421 0.00687113 0.00138056 0.0230422 0.00319876 0.00933381 0.00214977 0.0284009 0.00280709 0.0210654 0.00343305 0.0332641 0.00498445 0.0271847 0.00321842 0.0497704
35 1 Mg -2.36037 69.9218 3.14404 1.2 1 0.00337757 0.00263203 0.00156098 0.00624005 0.000931877 0.0059152 0.00140045 0.0238235 0.000875072 0.00829144 0.00160943 0.0305222 0.001964 0.0193764 0.00175104 0.0330605 0.00254779 0.025109 0.00262373 0.05175
36 3 O -0.994104 61.2481 2.8965 -1.2 1 0.0029765 0.00718886 0.00416866 0.00656429 0.00143725 0.00599024 0.00131827 0.0228015 0.00198595 0.00956894 0.00224942 0.0280604 0.00287864 0.0209251 0.00347272 0.033237 0.00474534 0.0253879 0.00344663 0.0491538
37 1 Mg -2.30378 67.0023 4.58616 1.2 1 0.001993 0.00242912 0.00141506 0.00645414 0.00103605 0.00522025 0.00117165 0.0239642 0.00174097 0.00891382 0.00290799 0.0295752 0.0026013 0.0201925 0.0033907 0.0330111 0.00393755 0.0255897 0.00423065 0.0514985
38 2 Si 0.364768 68.9442 4.71721 2.4 1 0.00294608 0.00267734 0.0016783 0.0072786 0.00148177 0.00548285 0.00197119 0.0234598 0.00159367 0.00858554 0.00238589 0.0292242 0.00256463 0.0201483 0.00378344 0.0327863 0.00270321 0.0246451 0.00318069 0.0528293
39 3 O -1.17745 69.0156 4.63894 -1.2 1 0.0024033 0.00277382 0.00137588 0.00662902 0.00107163 0.00569514 0.00184585 0.0241018 0.00180624 0.00807009 0.00204692 0.0297443 0.00231423 0.01922 0.00244348 0.0330123 0.00288576 0.0252789 0.00342781 0.0522723
40 3 O 1.4249 65.0935 4.69097 -1.2 1 0.00181107 0.00265064 0.00071979 0.00675086 0.0013058 0.00583386 0.00137798 0.0241563 0.00169262 0.00883433 0.0015451 0.0297523 0.00273581 0.0201502 0.0035283 0.0324752 0.00311811 0.0250657 0.00404164 0.0516367
41 3 O 1.15057 68.201 3.48871 -1.2 1 0.00308103 0.00251912 0.0015054 0.0064413 0.00130155 0.00543882 0.0014868 0.0237686 0.00115691 0.00905456 0.00201116 0.0289971 0.00227098 0.020756 0.00247316 0.0333975 0.00275649 0.0251347 0.00371181 0.0522915
42 3 O 1.08668 68.3313 6.06014 -1.2 1 0.00213245 0.00244218 0.00155748 0.00628382 0.00158462 0.00541381 0.00199224 0.0243889 0.0015575 0.0088159 0.00196185 0.029251 0.00246063 0.0200548 0.00271609 0.0330016 0.00260989 0.0256178 0.00258237 0.0524499
43 1 Mg -0.0138792 64.6382 3.14818 1.2 1 0.00179207 0.00269977 0.00089911 0.00637216 0.00100619 0.00603501 0.00107183 0.0238585 0.00111623 0.0090228 0.00148919 0.030021 0.00235281 0.0200705 0.00245074 0.0328701 0.00311051 0.0254245 0.00294523 0.0509462
44 1 Mg -0.0123077 61.8318 4.69514 1.2 1 0.000718588 0.00572035 0.00300537 0.0058767 0.0021174 0.00564321 0.00104934 0.0237822 0.00245676 0.0100142 0.0027933 0.0287963 0.00232267 0.0208256 0.0038514 0.0330825 0.00456506 0.0246072 0.00422996 0.0486935
45 2 Si 2.08775 63.6252 4.55719 2.4 1 0.00204452 0.00324322 0.00110403 0.00717867 0.00157015 0.00603288 0.00141566 0.0236251 0.00149192 0.00890943 0.0025157 0.0288425 0.00311139 0.0206455 0.00391003 0.0324762 0.00310466 0.0248545 0.0035141 0.0515474
46 3 O -1.15201 63.6938 4.69555 -1.2 1 0.00206523 0.00314275 0.000880938 0.00678154 0.00141566 0.00543694 0.00108573 0.0229885 0.00270803 0.00881095 0.0027026 0.0293222 0.00321085 0.0204663 0.003094 0.0329133 0.00405259 0.024187 0.0042938 0.0511441
47 3 O 1.02896 59.9803 4.55348 -1.2 1 0.00843417 0.0120246 0.00542444 0.00597509 0.00198021 0.00595718 0.00204594 0.0230478 0.00272662 0.0102917 0.00196025 0.0279985 0.0030305 0.0215298 0.00416373 0.0318814 0.00449258 0.0233119 0.00423042 0.0468029
48 3 O 1.34101 63.0277 3.35227 -1.2 1 0.00117854 0.00401045 0.00171526 0.00655038 0.00107583 0.00574407 0.00101417 0.0235786 0.0012671 0.00876885 0.00161819 0.0288458 0.00282021 0.0210762 0.00309895 0.0332421 0.0035095 0.02547 0.0035722 0.0506426
49 1 Mg 0.0430783 64.7083 0.164882 1.2 1 0.00230304 0.00304614 0.00143821 0.00670152 0.00067246 0.00687166 0.00106756 0.0232054 0.00129301 0.00895829 0.00135286 0.030226 0.00207774 0.0200579 0.0026606 0.0331119 0.00303431 0.0261503 0.00289336 0.0513093
50 3 O 1.34651 62.9628 5.86105 -1.2 1 0.00213616 0.00391606 0.00137305 0.00614142 0.00187389 0.00537435 0.000927788 0.0235334 0.00205887 0.00923229 0.00193926 0.0288195 0.00252198 0.0211207 0.00302006 0.0331612 0.00314954 0.0242861 0.00374912 0.0503468
51 1 Mg 0.00361625 67.7231 1.61192 1.2 1 0.00355886 0.00246757 0.00181204 0.00632035 0.00102915 0.00587411 0.00165388 0.0237903 0.00202162 0.00867615 0.00267583 0.0297617 0.00229067 0.0201558 0.00343577 0.0334474 0.00328041 0.0258543 0.00307164 0.0523485
52 2 Si -2.10535 65.734 1.71775 2.4 1 0.00261381 0.00238998 0.00135035 0.0070885 0.000934502 0.00660771 0.00158617 0.0232346 0.00132463 0.00867822 0.0025048 0.0288888 0.00243785 0.0207302 0.00431614 0.0327907 0.00469542 0.0253293 0.00365949 0.0527411
53 3 O 1.1231 65.7296 1.75077 -1.2 1 0.0024962 0.00257953 0.00145354 0.00667838 0.000727378 0.00622346 0.00120026 0.0231474 0.00210431 0.00845637 0.00151678 0.0299028 0.002095 0.0200348 0.00210636 0.0330393 0.00346679 0.0251949 0.00266151 0.0521906
54 3 O -1.09874 69.4636 1.54264 -1.2 1 0.00439363 0.00221723 0.00203205 0.00653119 0.000864266 0.00640298 0.00153412 0.0238596 0.00143495 0.00820945 0.00260169 0.0299914 0.00249052 0.019751 0.00318131 0.0332789 0.00295337 0.0253003 0.00332861 0.05284
55 3 O -1.37887 66.4107 0.411847 -1.2 1 0.00328893 0.00254194 0.00162164 0.0063793 0.00070656 0.0063907 0.00151543 0.0232619 0.00180593 0.00864751 0.00174001 0.0290917 0.00261299 0.0206971 0.00350732 0.0333278 0.00381619 0.0256063 0.00285992 0.0521668
56 3 O -1.36581 66.2854 2.97376 -1.2 1 0.00236053 0.00234889 0.00140358 0.00635888 0.000977729 0.00581081 0.00213237 0.0240622 0.0013536 0.00882592 0.00206419 0.02885 0.00221783 0.0205007 0.00372724 0.0330044 0.00396778 0.0256985 0.00338348 0.0520058
57 1 Mg -2.46306 69.9604 0.145117 1.2 1 0.00464802 0.002248 0.00181097 0.00610995 0.000909087 0.00632106 0.00124064 0.0235047 0.00100742 0.00844625 0.00161952 0.0303158 0.00173676 0.0195468 0.00149545 0.0334563 0.0021854 0.0251939 0.00248779 0.0523365
58 1 Mg 2.14191 72.732 1.66817 1.2 1 0.00402216 0.00298242 0.00163714 0.00629747 0.00105497 0.00546914 0.00154312 0.0241902 0.00213576 0.00868543 0.00239723 0.029993 0.00257244 0.0203095 0.00318522 0.0348168 0.003084 0.0256897 0.00276025 0.0536153
59 2 Si -0.459244 70.9523 1.57223 2.4 1 0.00433824 0.00235014 0.00170128 0.00692304 0.00106658 0.00598938 0.00177533 0.0233664 0.00141707 0.00831341 0.00272706 0.029393 0.00239803 0.0203532 0.00389834 0.0335839 0.00388321 0.0249031 0.00284701 0.0538739
60 3 O 1.11182 70.7886 1.58979 -1.2 1 0.00429788 0.00228821 0.00149834 0.00638866 0.000969828 0.00599377 0.00104966 0.0233431 0.00213824 0.00807766 0.00132602 0.0299959 0.00213319 0.0200167 0.00194698 0.0336141 0.00312665 0.0246561 0.00261129 0.053397
61 3 O -1.30365 74.6205 1.58379 -1.2 1 0.00372841 0.00363765 0.00192406 0.00653443 0.00108141 0.00581571 0.000952411 0.0241524 0.00128012 0.00791274 0.0024078 0.0300127 0.00226322 0.0199005 0.00318494 0.0349017 0.0029266 0.0253429 0.00306773 0.0537169
62 3 O -1.04334 71.6115 0.280732 -1.2 1 0.00476263 0.002202 0.00195609 0.00603268 0.00125369 0.00599666 0.00158779 0.0239962 0.00139087 0.00857272 0.00204644 0.0289655 0.00223675 0.0204082 0.00252892 0.0343711 0.00286096 0.025375 0.00234819 0.0541077
63 1 Mg -2.39771 80.2537 3.24412 1.2 1 0.00221328 0.00409928 0.00098488 0.00608207 0.000687906 0.00553483 0.000690769 0.0245673 0.00108731 0.009102 0.00105196 0.0306788 0.00161715 0.0205497 0.00187266 0.0353882 0.00179676 0.0252332 0.00239804 0.0530282
64 3 O -1.13334 71.5759 2.83796 -1.2 1 0.0035726 0.00277252 0.00195765 0.00599953 0.00120579 0.00558149 0.00219105 0.0239716 0.00162949 0.00846048 0.0022463 0.0291182 0.00258273 0.0200216 0.00295047 0.034066 0.0029054 0.0254649 0.00200693 0.0531849
65 1 Mg -2.32944 77.4465 4.62204 1.2 1 0.0024467 0.00494054 0.00086519 0.0063272 0.00115684 0.00541941 0.00107105 0.0240908 0.00241115 0.00911806 0.00204914 0.030096 0.0022441 0.0209213 0.00255247 0.0356124 0.00299576 0.0260527 0.00314554 0.0537344
66 2 Si 0.265189 79.2869 4.68975 2.4 1 0.00255559 0.00486295 0.00103946 0.00719971 0.00127865 0.00598141 0.0014061 0.0241399 0.00177477 0.00887388 0.00194421 0.0290454 0.00316229 0.020933 0.00401454 0.0353131 0.00336904 0.02529 0.0031066 0.0546268
67 3 O -1.26065 79.2581 4.70028 -1.2 1 0.00231415 0.00463601 0.000834531 0.00675445 0.00147769 0.00549854 0.00143177 0.0237169 0.00275054 0.00853918 0.00172063 0.029705 0.00266486 0.0205997 0.00271554 0.0350571 0.00362628 0.0247884 0.00392481 0.0539038
68 3 O 1.34915 75.5121 4.56983 -1.2 1 0.00257166 0.00475443 0.00136356 0.00684075 0.00100774 0.00608219 0.000981141 0.0245788 0.00164018 0.00803257 0.00190157 0.0303586 0.0023632 0.0198708 0.00331638 0.0343762 0.00311097 0.0259953 0.00338872 0.0536776
69 3 O 0.974516 78.6085 3.42525 -1.2 1 0.00272253 0.00451999 0.000868641 0.00610875 0.00122925 0.005558 0.00119115 0.0242522 0.00141873 0.00854237 0.00138608 0.0289228 0.00287854 0.0207363 0.002421 0.0357386 0.00238684 0.0255334 0.00265548 0.0538407
70 3 O 0.91787 78.623 6.00402 -1.2 1 0.00203835 0.00462873 0.000847326 0.00623716 0.00130931 0.0056673 0.00141628 0.0245049 0.00164529 0.00874591 0.00109153 0.0294061 0.00235384 0.0207052 0.00258181 0.0353035 0.00234684 0.0259347 0.00264933 0.0539287
71 1 Mg -0.0632297 74.9664 3.10394 1.2 1 0.00300579 0.00449567 0.00153921 0.00613505 0.00104776 0.00584172 0.000792675 0.0242127 0.00111475 0.00817294 0.00125643 0.0304359 0.00161911 0.019824 0.0017297 0.0350001 0.00204458 0.0259745 0.00256554 0.0530802
72 1 Mg -0.0799658 72.2045 4.58631 1.2 1 0.00298318 0.00351764 0.00169896 0.00636501 0.000951082 0.00568085 0.00171393 0.023862 0.00227335 0.00841663 0.00270601 0.0302283 0.002586 0.0200556 0.00311798 0.0339023 0.00311128 0.0260403 0.00256582 0.0530778
73 2 Si 1.99196 74.0901 4.63846 2.4 1 0.00230926 0.00428078 0.00172349 0.00707479 0.00152538 0.00589195 0.0019078 0.0234449 0.00172536 0.00825733 0.00254358 0.0292861 0.00229983 0.0203337 0.00412087 0.0341428 0.00290094 0.025328 0.00294396 0.0542391
74 3 O -1.14581 74.1012 4.58354 -1.2 1 0.00243783 0.00417385 0.00130189 0.00671522 0.00154976 0.00574811 0.00149825 0.0230037 0.00214176 0.00777627 0.00150884 0.030142 0.00221133 0.0195906 0.00205343 0.034527 0.00298604 0.0252264 0.00285391 0.0538108
75 3 O 0.952254 70.4208 4.64037 -1.2 1 0.00258197 0.00288335 0.00190879 0.00651664 0.00104383 0.00614449 0.00155821 0.0242845 0.00119387 0.00805779 0.00170617 0.0304643 0.00248188 0.0193116 0.00323519 0.0328178 0.00312347 0.0254685 0.00350682 0.0523467
76 3 O 1.30498 73.311 3.42541 -1.2 1 0.00314241 0.0037524 0.00172193 0.00601868 0.00124119 0.00567782 0.0017466 0.0242295 0.00165333 0.0087748 0.00190935 0.0290733 0.00189537 0.020536 0.0022865 0.0345292 0.00234832 0.0256312 0.00235967 0.0537277
77 1 Mg -0.0314926 75.1613 0.244901 1.2 1 0.00394591 0.00359948 0.00248527 0.00607939 0.00120227 0.00564063 0.00111702 0.0242603 0.00138533 0.00830193 0.00160816 0.0301114 0.00176895 0.0199385 0.00171749 0.0351982 0.00235141 0.0254549 0.002984 0.0534231
78 3 O 1.42875 73.4294 5.99679 -1.2 1 0.00191659 0.00438234 0.00129082 0.00640188 0.00151166 0.00551022 0.00172251 0.0238351 0.00179959 0.00824578 0.00152907 0.0295783 0.0019132 0.0198015 0.00269268 0.0341316 0.00193918 0.0259697 0.00208897 0.0536844
79 1 Mg -0.0192393 77.8704 1.82957 1.2 1 0.0029581 0.00463047 0.00158946 0.00588019 0.000783987 0.0049165 0.00127599 0.0242357 0.00213911 0.00865633 0.00216319 0.0297459 0.00297672 0.0208321 0.00292711 0.0361597 0.00258164 0.0257752 0.00237288 0.0540967
80 2 Si -2.06989 76.114 1.68812 2.4 1 0.00279452 0.0045297 0.00170343 0.00643168 0.00101857 0.00562805 0.00134409 0.0242353 0.00174741 0.0083185 0.00186997 0.0289524 0.00207894 0.0208426 0.00303967 0.0354917 0.00325237 0.0256955 0.00309224 0.0551297
81 3 O 1.11242 75.9727 1.67809 -1.2 1 0.00307013 0.00424994 0.00179945 0.00631752 0.000935802 0.00546937 0.00101918 0.0239171 0.00215909 0.00802501 0.00144097 0.0298649 0.0017216 0.0200375 0.00208013 0.0356319 0.00256941 0.0255795 0.00259201 0.0542581
82 3 O -1.07705 79.7788 1.70203 -1.2 1 0.00208079 0.00404368 0.00113778 0.0060965 0.00075403 0.0055377 0.000992593 0.0249829 0.000838204 0.00849441 0.00187721 0.0300794 0.00197087 0.020464 0.0028201 0.0354038 0.00269917 0.0252255 0.00287932 0.0539018
83 3 O -1.42474 76.7553 0.415419 -1.2 1 0.0030564 0.00401867 0.00166044 0.00586162 0.0010591 0.00513249 0.00157851 0.0243503 0.00156649 0.00877506 0.00160895 0.0290493 0.00222881 0.0209759 0.00282989 0.0360082 0.00240943 0.025465 0.00267812 0.0549155
84 3 O -1.34975 76.729 2.98663 -1.2 1 0.00252687 0.00491556 0.00151041 0.00609105 0.00130633 0.00541336 0.00185838 0.0243934 0.00159524 0.00830907 0.00173934 0.0289932 0.00253439 0.0203803 0.00314588 0.0357578 0.00300058 0.0261594 0.00293453 0.0541684
85 1 Mg -2.35008 80.4123 0.206271 1.2 1 0.00270948 0.00337705 0.00137363 0.00556983 0.000846789 0.00511563 0.000764374 0.0248141 0.00106261 0.00873244 0.0010587 0.0301224 0.00164619 0.0201933 0.0016072 0.0355137 0.0017589 0.024975 0.00184001 0.0533054
86 1 Mg 2.37688 83.1426 1.79373 1.2 1 0.00347764 0.00318229 0.00139918 0.00626991 0.000763848 0.00488688 0.00114646 0.0249847 0.00207501 0.00962861 0.00240687 0.0299006 0.00284594 0.0213153 0.00339094 0.0359815 0.00296639 0.0254723 0.00301539 0.0543581
87 2 Si -0.285266 81.2403 1.71428 2.4 1 0.00299374 0.00337372 0.00112243 0.00677945 0.000834531 0.00555681 0.00173359 0.024603 0.0013832 0.00874621 0.00191852 0.0293049 0.00195428 0.0211647 0.00381399 0.0351929 0.00315714 0.0248 0.00312697 0.0548753
88 3 O 1.23727 81.0973 1.69997 -1.2 1 0.00232365 0.00350056 0.00135481 0.00610503 0.000888208 0.00526205 0.00139926 0.0245766 0.00200281 0.0083618 0.00150344 0.0302186 0.00174254 0.0203182 0.00216077 0.0356534 0.00220213 0.0247614 0.00259084 0.0541441
89 3 O -1.37938 85.0139 1.76643 -1.2 1 0.00263392 0.00332048 0.00127657 0.00628288 0.000796798 0.00521273 0.00136196 0.0253089 0.00109011 0.00886786 0.00197338 0.0306263 0.00196804 0.0205063 0.00339329 0.0348628 0.00267142 0.0248981 0.00317157 0.0539265
90 3 O -0.987784 81.928 0.427333 -1.2 1 0.00342247 0.00283496 0.0013078 0.0056827 0.000922019 0.00498119 0.00140192 0.0249539 0.0014317 0.00877546 0.00159268 0.0293016 0.00170908 0.0210504 0.00298532 0.0357471 0.00221489 0.025294 0.00310936 0.0547081
91 1 Mg -2.36523 90.5321 3.15466 1.2 1 0.00181264 0.00423288 0.00104501 0.00602761 0.0011284 0.00550175 0.000931884 0.0248868 0.00100157 0.00953534 0.00118737 0.0309213 0.00162026 0.0201157 0.00177129 0.0342394 0.00193823 0.0249078 0.00139112 0.0514415
92 3 O -0.97588 81.9473 2.98119 -1.2 1 0.00235771 0.00344319 0.00149996 0.00592646 0.000944254 0.00517555 0.00170053 0.0246938 0.00167819 0.00881183 0.00124751 0.0289941 0.00210457 0.0208136 0.002909 0.0359106 0.00258235 0.0252604 0.00294203 0.0541174
93 1 Mg -2.29716 87.7871 4.76731 1.2 1 0.00208143 0.00394904 0.00196062 0.00640386 0.00107031 0.0055497 0.00133367 0.0248465 0.0026054 0.00991892 0.00222449 0.0299806 0.002121 0.0209135 0.00318544 0.0345221 0.00271929 0.025085 0.0030012 0.0515664
94 2 Si 0.338556 89.6809 4.72998 2.4 1 0.00264689 0.00382806 0.00137111 0.00728226 0.000973707 0.00579263 0.00135668 0.02459 0.00157451 0.0100609 0.00234232 0.029216 0.00226163 0.0215249 0.00355167 0.0341429 0.00298382 0.0244546 0.00234745 0.0525775
95 3 O -1.22337 89.7647 4.67186 -1.2 1 0.00221112 0.00386601 0.00166079 0.00668995 0.000866355 0.0053596 0.00141747 0.0241627 0.00219467 0.00968541 0.00133721 0.0301919 0.00197965 0.0202372 0.00215327 0.0343645 0.00191842 0.0244999 0.00192901 0.0512796
96 3 O 1.36105 86.0003 4.85775 -1.2 1 0.00286119 0.00385791 0.00210732 0.00666739 0.000971767 0.00570725 0.0010217 0.024976 0.00168385 0.00911088 0.00229065 0.0302887 0.0023393 0.0205291 0.00292352 0.0343332 0.00242529 0.0248632 0.00319636 0.0521103
97 3 O 1.01557 88.8956 3.48175 -1.2 1 0.00233119 0.00374792 0.00154679 0.0062517 0.000930552 0.00544253 0.00134507 0.0246662 0.00146497 0.0101066 0.00146448 0.0293567 0.00211674 0.0211806 0.00203343 0.0348767 0.00219422 0.0247982 0.00211499 0.0524076
98 3 O 0.997985 89.0178 6.02435 -1.2 1 0.00269515 0.00384838 0.00188243 0.00632079 0.000798428 0.00570152 0.00121166 0.0244102 0.00166835 0.010052 0.00192127 0.0294272 0.00233136 0.0213873 0.0025874 0.0347101 0.00238599 0.0248715 0.00231319 0.0512838
99 1 Mg 0.0340239 85.5931 3.25101 1.2 1 0.00244555 0.00357476 0.0013591 0.00603929 0.000847643 0.00542905 0.000788481 0.0250475 0.00130596 0.00913099 0.00131031 0.0305833 0.00168007 0.0203716 0.00162156 0.034808 0.00185357 0.0252724 0.00210245 0.0528333
100 1 Mg 0.0223875 82.5595 4.70668 1.2 1 0.00135003 0.00364246 0.00155872 0.00613865 0.000618339 0.00545009 0.000964437 0.0247075 0.00188265 0.008852 0.00245584 0.0297501 0.00213025 0.0208238 0.0034669 0.035565 0.00368612 0.0257949 0.00371624 0.0537886
101 2 Si 1.97146 84.4389 4.82195 2.4 1 0.00243344 0.00385881 0.00159978 0.00690426 0.00121027 0.00547247 0.00134858 0.0241944 0.00155986 0.00936786 0.00271019 0.0293629 0.00239543 0.0212407 0.0042796 0.034779 0.00292393 0.0247074 0.00267106 0.0534291
102 3 O -1.16654 84.5027 4.79388 -1.2 1 0.00209174 0.00366143 0.00135837 0.00642135 0.000867079 0.00524453 0.00101759 0.0244446 0.00218537 0.00926991 0.00159668 0.0296178 0.00260341 0.0202879 0.00302603 0.0350528 0.00369539 0.0245748 0.00370617 0.0532276
103 3 O 0.970771 80.729 4.67229 -1.2 1 0.00259015 0.00407914 0.00183399 0.0065778 0.000852783 0.00616255 0.000802746 0.0250949 0.00177686 0.00884601 0.00151446 0.0303014 0.00239988 0.0205445 0.00365483 0.0350904 0.00301129 0.0254857 0.00377513 0.0540322
104 3 O 1.36438 83.7108 3.58046 -1.2 1 0.00211319 0.00358413 0.00153296 0.00618583 0.0010306 0.00516633 0.000988299 0.0248019 0.00173048 0.00946193 0.0013987 0.0294144 0.00209169 0.0215262 0.00246651 0.0353592 0.00229491 0.025052 0.00267704 0.0540859
105 1 Mg 0.120308 85.4352 0.371778 1.2 1 0.00353804 0.00302674 0.00145015 0.00581648 0.00113874 0.00518376 0.000793078 0.0251377 0.00135097 0.00893498 0.00129937 0.0306317 0.00154259 0.0204972 0.00201021 0.0352154 0.0019267 0.0252428 0.00308519 0.0534426
106 3 O 1.33781 83.7818 6.13367 -1.2 1 0.00204077 0.00394559 0.0015711 0.00642019 0.000735762 0.00562979 0.000978037 0.0251359 0.00196172 0.00978494 0.00189003 0.0287935 0.00270838 0.0211478 0.00272494 0.0352008 0.00266471 0.0255036 0.00286153 0.0530651
107 1 Mg -0.0322898 88.3635 1.78901 1.2 1 0.00330042 0.00367694 0.00132081 0.00593834 0.0010015 0.00527578 0.00142411 0.0248604 0.00218452 0.00979482 0.00221167 0.0301181 0.00226573 0.020976 0.00302244 0.0352944 0.00228013 0.025687 0.00259199 0.0527979
108 2 Si -2.01154 86.5589 1.8328 2.4 1 0.00312364 0.00329365 0.00170631 0.00661084 0.0016531 0.0053167 0.00177191 0.0251833 0.00162359 0.00960327 0.00201942 0.029261 0.00172837 0.0213242 0.00340771 0.0348396 0.0029232 0.0250322 0.00275474 0.0545896
109 3 O 1.2178 86.4193 1.83255 -1.2 1 0.00343094 0.00316418 0.00161405 0.00622596 0.00126647 0.00504956 0.00129919 0.0246356 0.00280747 0.00934675 0.00219754 0.02987 0.00245681 0.0206427 0.00246665 0.0353836 0.00314761 0.0249489 0.00259562 0.0534126
110 3 O -1.03734 90.1862 1.7652 -1.2 1 0.00202906 0.00400439 0.00098898 0.00626869 0.0011577 0.00551422 0.000981605 0.0251807 0.00117286 0.00943922 0.00202563 0.0306901 0.00221397 0.0203279 0.0028558 0.0344898 0.00242691 0.0251782 0.00240456 0.0525665
111 3 O -1.26263 87.1734 0.601209 -1.2 1 0.00355076 0.00310413 0.00161479 0.00592526 0.00168764 0.00510137 0.0022239 0.0248896 0.00166942 0.00966164 0.00189736 0.0292984 0.00191041 0.021474 0.00270461 0.0357096 0.00231249 0.0250933 0.00243567 0.0535357
112 3 O -1.30365 87.2487 3.08076 -1.2 1 0.00273227 0.00364568 0.00141212 0.00601117 0.00160185 0.00512585 0.0017381 0.0251931 0.00160194 0.0101242 0.00162436 0.0293792 0.00204085 0.0216416 0.00261003 0.0348105 0.00269294 0.0251211 0.0022258 0.0529493
113 1 Mg -2.34451 90.7707 0.333439 1.2 1 0.00144299 0.00372373 0.000792612 0.00602117 0.00108511 0.0054262 0.00101159 0.0249364 0.000985297 0.00953754 0.00122411 0.0309143 0.00147722 0.0205948 0.00126014 0.0345349 0.00158192 0.0250474 0.00133577 0.0518818
114 1 Mg 2.31461 93.649 1.69389 1.2 1 0.00168373 0.00468571 0.00107756 0.00636052 0.00147205 0.00531119 0.00126926 0.0249887 0.00186605 0.00934661 0.00210619 0.0306521 0.00169255 0.0211116 0.00288446 0.034113 0.00302093 0.0255209 0.00330696 0.0526222
115 2 Si -0.319216 91.7384 1.75874 2.4 1 0.00151277 0.00430911 0.00116918 0.00699174 0.00201394 0.0053361 0.00134879 0.0247555 0.00141885 0.00965917 0.00211551 0.0298246 0.00205774 0.0212754 0.00329141 0.0342201 0.00276035 0.0250129 0.00213272 0.0531935
116 3 O 1.29697 91.6086 1.75925 -1.2 1 0.00152483 0.00417158 0.00065797 0.00676214 0.00210645 0.00523234 0.00172733 0.0237392 0.00239938 0.00957576 0.00190179 0.0306839 0.00224553 0.0206146 0.00202461 0.034586 0.00304703 0.0244507 0.00288397 0.0528729
117 3 O -1.27727 95.4595 1.75692 -1.2 1 0.00282436 0.00454928 0.00167586 0.0064228 0.00152407 0.0060408 0.00120124 0.0251813 0.00191764 0.00888497 0.00200475 0.0308929 0.00238889 0.0203423 0.00340346 0.0338301 0.00328056 0.0257066 0.00424446 0.0531668
118 3 O -0.881934 92.4102 0.443945 -1.2 1 0.00122496 0.004354 0.00102879 0.0062066 0.00187672 0.00511072 0.00155992 0.0248522 0.00153184 0.00968554 0.00117067 0.0294404 0.00187016 0.0216191 0.00244788 0.0346543 0.00222282 0.0252601 0.00187369 0.0527697