ITEM: TIMESTEP
88000
ITEM: NUMBER OF ATOMS
5600
ITEM: BOX BOUNDS xy xz yz pp pp pp
0	7.1235	0
0	201.985	2.3745
0	119.584	0
ITEM: ATOMS id type element xu yu zu q Q_1 Q_2 Q_3 Q_4 Q_5 Q_6 Q_7 Q_8 Q_9 Q_10 Q_11 Q_12 Q_13 Q_14 Q_15 Q_16 Q_17 Q_18 Q_19 Q_20 Q_21
1 1 Mg -1.13099 47.226 -1.12176 1.2 1 0.232462 0.0744536 0.0156497 0.0282487 0.00557678 0.0175262 0.0029999 0.0188203 0.00624917 0.0221751 0.00680484 0.0255051 0.00791399 0.0230326 0.0093266 0.0238498 0.00844852 0.0213707 0.00902555 0.0280736
2 1 Mg 3.29769 49.7723 1.50004 1.2 1 0.163214 0.0614526 0.00552343 0.0192059 0.00315492 0.0104786 0.00308401 0.0176871 0.00587061 0.0184725 0.0060046 0.025135 0.00748548 0.0220933 0.00930878 0.0230436 0.00594714 0.0188811 0.0070338 0.0280252
3 2 Si 1.13913 48.9095 -0.314039 2.4 1 0.188759 0.0666198 0.00839935 0.0227377 0.00396294 0.0124041 0.00344209 0.0173691 0.00475206 0.0201239 0.00593456 0.0236461 0.00598532 0.0231918 0.00773278 0.0225073 0.00592753 0.0190003 0.00701679 0.0271869
4 3 O 2.41714 47.9934 0.215958 -1.2 1 0.205804 0.0724231 0.0101172 0.0248829 0.00375748 0.0132609 0.00367187 0.0177897 0.00626312 0.0207095 0.00728466 0.0248656 0.00780677 0.0241606 0.0097364 0.0231802 0.00716103 0.0191294 0.00790004 0.0280043
5 3 O -0.745005 51.736 0.970009 -1.2 1 0.117663 0.0478121 0.00279602 0.0144655 0.00157438 0.00979839 0.00244579 0.0170563 0.00390044 0.0166838 0.00500954 0.0248174 0.00526936 0.0195078 0.00560134 0.0232776 0.00393745 0.0201403 0.00695088 0.0285417
6 3 O 0.569988 48.1977 -1.59753 -1.2 1 0.20369 0.0673181 0.0109898 0.0242247 0.00463287 0.0147908 0.00327221 0.0188117 0.00527896 0.02178 0.00532331 0.0241785 0.00628215 0.0221706 0.00739774 0.0238411 0.00688519 0.0209935 0.00773771 0.0277248
7 1 Mg -1.71224 57.3764 3.19969 1.2 1 0.0169775 0.0112539 0.00555163 0.00721167 0.00160208 0.00772974 0.00171901 0.0186123 0.00303045 0.0126306 0.00215863 0.0248381 0.00337992 0.0203454 0.00447456 0.0269958 0.00455676 0.0236093 0.00380584 0.0296659
8 3 O 0.23135 49.0814 0.84489 -1.2 1 0.174614 0.0647509 0.00622917 0.0201662 0.00267386 0.0118651 0.00352837 0.0180297 0.00552718 0.0187954 0.00582398 0.0250663 0.00573852 0.022398 0.007396 0.0236835 0.00512889 0.0183011 0.00720907 0.0273995
9 1 Mg -1.97214 54.4734 4.36041 1.2 1 0.0668896 0.0330502 0.00576967 0.0101369 0.00189252 0.00774269 0.00187636 0.0179493 0.00322783 0.0146479 0.00316975 0.0248115 0.00369495 0.0197595 0.00546278 0.0262744 0.00397017 0.0208707 0.00577792 0.0278366
10 2 Si 0.964543 56.3215 4.58049 2.4 1 0.0280171 0.0169869 0.0067387 0.00794317 0.00129076 0.00766252 0.00171321 0.0183801 0.00244581 0.0127771 0.00246322 0.0247437 0.00318471 0.0208632 0.00384863 0.0280589 0.00398033 0.0229932 0.00378958 0.0288232
11 3 O -0.564095 56.575 4.60075 -1.2 1 0.0232924 0.0147896 0.00658898 0.00773483 0.00161372 0.00789479 0.0020217 0.0183423 0.00277368 0.0126293 0.00226327 0.0249724 0.00300546 0.0201789 0.00421392 0.0277244 0.00453205 0.0228426 0.0039573 0.0288173
12 3 O 1.81549 52.6792 4.47309 -1.2 1 0.100511 0.0443494 0.00271607 0.0123907 0.00228994 0.00773802 0.00203456 0.0176033 0.00402891 0.0157094 0.00371637 0.0245508 0.00338277 0.0203423 0.00515744 0.0234873 0.00512903 0.0187536 0.00626202 0.0269278
13 3 O 1.46393 55.5388 3.3065 -1.2 1 0.0439224 0.0240271 0.00703794 0.0080745 0.00139137 0.00756088 0.00214933 0.0178218 0.00269951 0.0134357 0.00239799 0.0250465 0.00359995 0.0199934 0.00440404 0.0267094 0.00390509 0.0231225 0.00490718 0.0285774
14 3 O 1.84285 55.8047 5.87161 -1.2 1 0.039617 0.0229182 0.00711091 0.00793134 0.00179411 0.00736913 0.0016705 0.0183791 0.00248729 0.013244 0.00213508 0.0240129 0.00337291 0.0202186 0.00392464 0.0266458 0.00432735 0.0213185 0.00457534 0.0274131
15 1 Mg 0.471969 52.3592 2.74969 1.2 1 0.102621 0.0458642 0.00419707 0.0134208 0.00235118 0.00881509 0.00300702 0.0163323 0.0041568 0.0160917 0.00424718 0.025494 0.003951 0.0189918 0.0054701 0.0234317 0.00454053 0.0192414 0.0069566 0.027577
16 1 Mg 1.48161 48.677 2.72161 1.2 1 0.193174 0.0704529 0.00773873 0.0209093 0.00377518 0.0103917 0.00271072 0.0179971 0.00672653 0.017741 0.00564681 0.0251239 0.00743594 0.0237413 0.00892113 0.0226341 0.00618804 0.0173367 0.00821577 0.0284239
17 2 Si 2.47378 51.262 4.21829 2.4 1 0.137 0.0557527 0.00218208 0.0160117 0.00288616 0.00809239 0.00227111 0.0173384 0.00449066 0.0164268 0.00429173 0.024314 0.00446174 0.0214499 0.00535151 0.0229927 0.00497655 0.0176078 0.0066166 0.0268922
18 3 O -0.589806 51.2661 4.04512 -1.2 1 0.128224 0.0533052 0.00209003 0.0148838 0.00266287 0.00765455 0.00241252 0.0174605 0.00473753 0.017228 0.00405408 0.0245321 0.00463562 0.0217729 0.00569749 0.023607 0.00539787 0.0181875 0.00713964 0.0275745
19 3 O 3.33693 48.1964 2.78142 -1.2 1 0.19754 0.0716957 0.00806361 0.0217745 0.00409358 0.0108518 0.00367722 0.0185216 0.00757234 0.0188244 0.00555334 0.0248665 0.0074009 0.0245807 0.00871545 0.0231924 0.00688714 0.0180423 0.00795967 0.0283092
20 3 O 1.91249 50.729 2.85652 -1.2 1 0.139818 0.0559788 0.00242761 0.0166277 0.00293494 0.00801994 0.00256722 0.0173632 0.00507603 0.0169843 0.00450425 0.0246317 0.0060613 0.0214882 0.00710978 0.0234724 0.00552227 0.01853 0.00730131 0.0271769
21 1 Mg 0.657774 52.4561 -0.314628 1.2 1 0.103986 0.0436543 0.00304308 0.0129567 0.00188503 0.00885954 0.00184848 0.0160912 0.00347023 0.0155978 0.00393011 0.0240917 0.00461619 0.0196282 0.00566235 0.0232534 0.00401136 0.0203681 0.00564563 0.0281873
22 3 O 2.00787 50.4948 5.62106 -1.2 1 0.146029 0.0560052 0.00305557 0.0149769 0.00280518 0.00813742 0.00221729 0.017576 0.00369405 0.0169337 0.00403539 0.0237321 0.00459384 0.0219478 0.00584937 0.0226192 0.00570443 0.0168361 0.00661044 0.0260685
23 1 Mg 0.723669 55.1436 1.53322 1.2 1 0.0504813 0.0264162 0.00708923 0.00766613 0.00164535 0.00826106 0.00119308 0.0174448 0.00352086 0.0140437 0.00248772 0.0255602 0.00367421 0.0189285 0.00533507 0.0248406 0.00406684 0.0222411 0.00482069 0.0286006
24 2 Si -1.38765 53.1511 1.205 2.4 1 0.093459 0.0412342 0.00440851 0.0116111 0.00156991 0.00839765 0.00258734 0.0164336 0.00370759 0.0155548 0.00428422 0.024515 0.00453775 0.0196053 0.00502423 0.0237109 0.00407663 0.0201972 0.00662726 0.0288232
25 3 O 1.77615 53.0844 1.24951 -1.2 1 0.0916783 0.0404687 0.0050166 0.0119093 0.00168365 0.00845043 0.00240456 0.0165436 0.00438817 0.0155092 0.00447011 0.0246897 0.00453112 0.0191859 0.00597348 0.0249537 0.00403225 0.0208686 0.00642688 0.0290896
26 3 O -0.558276 56.9828 1.52869 -1.2 1 0.0226369 0.0151311 0.00649935 0.006878 0.00165387 0.00741942 0.00202364 0.0189919 0.00261033 0.0125764 0.00209852 0.0251756 0.0036684 0.0187606 0.0046306 0.0261153 0.00439625 0.0238757 0.00426293 0.0295857
27 3 O -0.851144 54.0619 -0.0545696 -1.2 1 0.0644612 0.0319786 0.0062421 0.00845378 0.0018958 0.00806551 0.00192438 0.0173014 0.00345947 0.0145408 0.00323921 0.0237285 0.00419376 0.0192997 0.00443369 0.0240565 0.00418861 0.0221996 0.00546399 0.029485
28 3 O -1.03339 53.8101 2.53099 -1.2 1 0.0775192 0.0359346 0.00539215 0.0104713 0.00233386 0.0082318 0.00248679 0.0169387 0.00370916 0.0153681 0.00306738 0.0244792 0.00364255 0.0194262 0.00512021 0.0252616 0.00408236 0.0213614 0.0061287 0.0285833
29 1 Mg -2.07776 57.4171 0.191382 1.2 1 0.0162408 0.0125846 0.00496676 0.00627704 0.00216118 0.00800312 0.00192325 0.0189978 0.00219542 0.0131486 0.00211307 0.025725 0.00402574 0.0186783 0.00420572 0.0261622 0.0043464 0.0238334 0.00401871 0.0301447
30 1 Mg 2.84116 60.5142 1.87925 1.2 1 0.00483188 0.00378719 0.00168079 0.0083908 0.00199844 0.00757238 0.00116559 0.0196391 0.00202393 0.0115095 0.00202774 0.0247792 0.00251797 0.0197848 0.0035343 0.0265935 0.00451394 0.0234535 0.00404701 0.0302789
31 2 Si 0.0894786 58.5533 1.51893 2.4 1 0.00963234 0.00728014 0.00310642 0.00815843 0.00217176 0.0074192 0.00135167 0.0189914 0.00219997 0.0118771 0.00222363 0.0246834 0.00293656 0.0203734 0.00439254 0.0266563 0.00437118 0.0235407 0.00417027 0.0310357
32 3 O 1.67604 58.2856 1.45077 -1.2 1 0.0112772 0.00823088 0.0038632 0.00787125 0.00197243 0.00682038 0.00141661 0.019052 0.00238104 0.0117291 0.00248752 0.0249815 0.00392409 0.0194525 0.00402051 0.0263708 0.00422317 0.0234645 0.00451885 0.0305457
33 3 O -1.14578 62.3895 2.11589 -1.2 1 0.00458702 0.0031006 0.00112946 0.00857039 0.00180435 0.00722105 0.00167111 0.0199284 0.00211724 0.0113818 0.00284802 0.0246493 0.00365043 0.018985 0.00382568 0.024986 0.00414686 0.0224587 0.00446152 0.0307193
34 3 O -0.663489 59.1642 0.383568 -1.2 1 0.00782959 0.00666455 0.00281871 0.00792996 0.00215003 0.00746741 0.00218017 0.0191852 0.00225799 0.0109214 0.00262629 0.0242267 0.00331305 0.0200298 0.00391071 0.0262241 0.00438889 0.0236222 0.00415819 0.0310963
35 1 Mg -2.11149 68.3875 3.24232 1.2 1 0.00229969 0.00419756 0.00137456 0.00889301 0.00122137 0.00538504 0.00154618 0.0184674 0.00155618 0.0112342 0.00151617 0.0230955 0.00289703 0.0186001 0.00350792 0.0270657 0.00444653 0.0237004 0.00377849 0.0329618
36 3 O -0.452249 59.2353 2.89764 -1.2 1 0.00771984 0.0057454 0.00242589 0.00778067 0.00221669 0.00748837 0.00186752 0.0191769 0.00220005 0.0115724 0.00239416 0.024635 0.00319618 0.0211332 0.00415402 0.026908 0.00411909 0.0233275 0.0041045 0.0296193
37 1 Mg -2.01739 65.0503 4.67946 1.2 1 0.00327059 0.00452388 0.000604588 0.00851977 0.0019866 0.00639267 0.00140142 0.0195643 0.00179317 0.0112704 0.00288544 0.0239258 0.00284569 0.0189704 0.00351335 0.0261851 0.00403224 0.022806 0.00368348 0.0313324
38 2 Si 0.690405 67.087 4.46093 2.4 1 0.00128592 0.00429646 0.000889553 0.0091718 0.00239512 0.006033 0.00178168 0.0183939 0.00231222 0.0110641 0.00274488 0.0228068 0.00272156 0.0191597 0.00368661 0.0261984 0.00397268 0.0229128 0.00334323 0.032906
39 3 O -0.883262 67.3697 4.83399 -1.2 1 0.000992686 0.00462217 0.00107367 0.00899474 0.00143254 0.00585406 0.00143908 0.0181869 0.00220085 0.0107712 0.00225282 0.0230682 0.00250643 0.0186698 0.00326279 0.0268031 0.00396445 0.0231145 0.00324496 0.0321747
40 3 O 2.02611 63.2029 5.01035 -1.2 1 0.00453112 0.00486585 0.00125422 0.00910312 0.00214051 0.00689344 0.00155266 0.0199758 0.00158797 0.0110564 0.00188457 0.0246074 0.0032658 0.0194179 0.0031942 0.0257317 0.00401579 0.0225061 0.00384123 0.030276
41 3 O 1.31502 66.6015 3.22022 -1.2 1 0.00246619 0.00339784 0.00119077 0.00885728 0.00193072 0.00617052 0.0018563 0.0186445 0.00196941 0.0108838 0.00289847 0.0229763 0.00329284 0.0191238 0.00326632 0.0266626 0.00422373 0.0224207 0.00361306 0.0323839
42 3 O 1.27621 66.2067 5.6715 -1.2 1 0.00168791 0.00539521 0.000987985 0.00870925 0.00213141 0.0063243 0.00156902 0.0192054 0.00161883 0.0107919 0.00304395 0.023401 0.0025938 0.0192032 0.00349018 0.0269909 0.00386854 0.0236947 0.0040034 0.0322797
43 1 Mg 0.349319 62.9041 3.57712 1.2 1 0.00459823 0.00404156 0.00113164 0.00863915 0.00190744 0.006902 0.00172419 0.0193912 0.00177984 0.0110129 0.00256875 0.0246324 0.00280268 0.0190919 0.00365578 0.0258429 0.00374111 0.0225529 0.00329297 0.0301109
44 1 Mg 0.657158 59.4615 4.43638 1.2 1 0.00753423 0.00534632 0.00253359 0.00813594 0.00166771 0.00786598 0.00199884 0.0194013 0.00239292 0.0121462 0.00210944 0.0249776 0.00304339 0.0213124 0.00306093 0.0267391 0.00401203 0.0235316 0.004351 0.029252
45 2 Si 2.53317 61.6777 4.98782 2.4 1 0.00551607 0.00453051 0.00157101 0.00972818 0.00161727 0.00691289 0.00165574 0.0190552 0.00174568 0.0116614 0.00213527 0.0239211 0.00352028 0.0202358 0.00294841 0.0261197 0.00363355 0.0225078 0.00439809 0.0294471
46 3 O -0.587315 61.8878 4.86116 -1.2 1 0.00549501 0.00450632 0.00160953 0.00958837 0.00173398 0.00675258 0.00167486 0.0189153 0.00250707 0.0111533 0.00229769 0.0239146 0.00313803 0.0202096 0.00291792 0.0262023 0.00375887 0.0230086 0.00463972 0.0298891
47 3 O 1.80333 57.7943 4.49042 -1.2 1 0.015334 0.0105216 0.00487467 0.00748365 0.0014792 0.00778267 0.00201735 0.0189963 0.00283831 0.012567 0.00239981 0.0251935 0.00317706 0.0207917 0.00410037 0.0276669 0.00401276 0.0235885 0.00430563 0.0289625
48 3 O 1.92024 60.8899 3.63694 -1.2 1 0.00452299 0.00392199 0.0015784 0.00887582 0.00160563 0.00740568 0.00142986 0.0196555 0.00192251 0.0113928 0.00255279 0.0237503 0.00303596 0.0207216 0.0036281 0.0265948 0.00357731 0.0232035 0.00410375 0.0291903
49 1 Mg 0.260675 63.1334 0.191404 1.2 1 0.0055383 0.00246114 0.0012379 0.00789899 0.00210118 0.00633631 0.00178658 0.0193093 0.00216484 0.0104283 0.00320704 0.0237331 0.00441542 0.0176235 0.00597108 0.0253169 0.00544434 0.022127 0.00524732 0.0307798
50 3 O 1.85741 61.2606 6.25042 -1.2 1 0.00625024 0.00509997 0.00149218 0.00914446 0.0015749 0.0075614 0.00187691 0.020047 0.00198983 0.0114183 0.00258773 0.0240116 0.00382955 0.0207145 0.00408493 0.0261856 0.00455747 0.0236599 0.00537338 0.0296178
51 1 Mg 0.182402 65.6843 1.58102 1.2 1 0.00356253 0.00271323 0.00135312 0.00873685 0.00162661 0.00548117 0.00170383 0.0190122 0.00259196 0.0109704 0.00343794 0.0231593 0.00339274 0.0181817 0.00490153 0.0265375 0.00521513 0.022642 0.00482131 0.0317931
52 2 Si -1.84645 63.82 1.80008 2.4 1 0.00449507 0.00282558 0.000679622 0.00900765 0.00197915 0.00610483 0.00208604 0.0193588 0.00230787 0.0106752 0.00379894 0.0228718 0.00396851 0.018521 0.00588431 0.0252611 0.00544771 0.0221583 0.00549232 0.0313649
53 3 O 1.36386 63.7819 1.88148 -1.2 1 0.00475763 0.00224601 0.000828228 0.00854875 0.00195278 0.00637678 0.00178574 0.0186088 0.00253432 0.0108318 0.00263345 0.0232699 0.00357335 0.0184135 0.00457542 0.0245441 0.00482113 0.0221296 0.00415478 0.0304969
54 3 O -0.927177 67.8985 1.62243 -1.2 1 0.00339017 0.00369616 0.00157461 0.00935424 0.00125927 0.0050748 0.00149401 0.0182253 0.00148788 0.0107461 0.00231668 0.0233194 0.0035282 0.0184211 0.0039468 0.0269711 0.00530675 0.0231764 0.00437391 0.0326018
55 3 O -1.19269 64.4272 0.407698 -1.2 1 0.00470854 0.00220167 0.000930932 0.00765589 0.00209299 0.00593189 0.00269846 0.0188779 0.00232982 0.0102303 0.003534 0.0225173 0.0042442 0.0175355 0.00567616 0.0251297 0.00517549 0.0219616 0.00495334 0.0301027
56 3 O -1.22722 64.8606 2.91317 -1.2 1 0.00374765 0.00297559 0.00107818 0.0084432 0.00166872 0.00632448 0.00146702 0.0192553 0.00175942 0.0109812 0.00274904 0.0229056 0.00335481 0.0191711 0.00403662 0.0264054 0.00422749 0.0223838 0.00370438 0.0309315
57 1 Mg -2.44917 67.9938 0.384167 1.2 1 0.00331997 0.00360981 0.0013656 0.00867406 0.00166382 0.00530161 0.000939639 0.0182053 0.00157338 0.0107405 0.00204152 0.0230534 0.00357704 0.0180491 0.00324461 0.0261266 0.00510149 0.0224406 0.00376245 0.032648
58 1 Mg 2.5169 71.3782 1.87134 1.2 1 0.00440296 0.0038779 0.00140604 0.00730775 0.00171849 0.00560407 0.00205226 0.01769 0.0026987 0.0105992 0.00252706 0.0225831 0.00365227 0.0198597 0.00461079 0.0282163 0.00446691 0.0235679 0.00537623 0.0337642
59 2 Si -0.187505 69.3728 1.6078 2.4 1 0.00286323 0.0037486 0.00172035 0.00918486 0.00171841 0.00502663 0.00179697 0.0174062 0.00224399 0.0107632 0.00246727 0.0219765 0.00332539 0.0193013 0.00444233 0.0269679 0.00485628 0.0230434 0.00574941 0.0335849
60 3 O 1.43491 69.0934 1.77868 -1.2 1 0.00309436 0.0034198 0.00148768 0.0090977 0.00165069 0.00505165 0.00159395 0.0172884 0.00269506 0.0109024 0.00201229 0.0227337 0.00343341 0.0188779 0.00339653 0.0275744 0.00478893 0.0228328 0.00476022 0.0336903
61 3 O -1.24148 72.9744 1.65939 -1.2 1 0.00432025 0.00387634 0.00119867 0.00777885 0.00150446 0.00521277 0.00175801 0.0174654 0.00212836 0.0115282 0.00215853 0.0233913 0.00294666 0.0197085 0.0033326 0.0281749 0.00408247 0.0225903 0.0044317 0.0340072
62 3 O -0.693908 70.2736 0.38533 -1.2 1 0.00290985 0.00447385 0.00172257 0.00744605 0.00174959 0.00539475 0.00172397 0.0179401 0.00206132 0.0108884 0.0026156 0.0229298 0.00367887 0.0202699 0.00415346 0.0285757 0.00508889 0.0230723 0.00509765 0.0333507
63 1 Mg -2.33232 79.1179 3.39496 1.2 1 0.00326315 0.00583109 0.00113305 0.00744003 0.00201315 0.005149 0.00187449 0.0175218 0.00149112 0.011213 0.00257738 0.0243271 0.00324956 0.0203102 0.00453961 0.0285764 0.0049059 0.0208552 0.00501221 0.0314644
64 3 O -0.969386 69.9527 3.02307 -1.2 1 0.00379133 0.00456558 0.0011828 0.00868889 0.00215519 0.00524889 0.00282749 0.017692 0.00302888 0.0106667 0.00260264 0.0223955 0.00384949 0.0192124 0.00418896 0.0276238 0.00441148 0.0237297 0.00532926 0.0333876
65 1 Mg -2.24235 76.1303 4.572 1.2 1 0.0052626 0.00529645 0.00124792 0.00768465 0.00168067 0.0057222 0.00183555 0.0178644 0.00201932 0.0118366 0.00207607 0.0235038 0.0023242 0.0213014 0.00350645 0.029443 0.00454227 0.0224869 0.00409047 0.0330245
66 2 Si 0.140384 77.8802 4.85582 2.4 1 0.00377025 0.00611207 0.0009681 0.00836625 0.00230813 0.00463128 0.00212555 0.0168658 0.00222316 0.0107277 0.00284292 0.0222538 0.00232224 0.0210041 0.00376232 0.0282551 0.00473277 0.0214062 0.00453282 0.0325607
67 3 O -1.34916 78.0441 4.88231 -1.2 1 0.00371276 0.00623453 0.000769006 0.00810472 0.00250989 0.00450117 0.00201118 0.017053 0.00200647 0.0109558 0.00289815 0.0229552 0.00289692 0.0208681 0.00438883 0.0283683 0.00462823 0.0207638 0.0043118 0.0323233
68 3 O 1.42092 74.0145 4.67027 -1.2 1 0.00586069 0.00385078 0.00129529 0.00817123 0.00185634 0.00573539 0.00124258 0.0175042 0.00218349 0.0113078 0.00229708 0.0232671 0.00282426 0.0205638 0.00522379 0.0289369 0.00500769 0.0225397 0.00481944 0.0326445
69 3 O 1.1169 77.3652 3.51101 -1.2 1 0.00388051 0.00618477 0.00104987 0.00733575 0.0021348 0.00470119 0.00230964 0.0172959 0.00216976 0.0110261 0.0024525 0.0230396 0.00263743 0.020466 0.00364922 0.0290808 0.00476249 0.0215087 0.00399536 0.0327714
70 3 O 0.686685 77.0236 6.1567 -1.2 1 0.0045951 0.00605359 0.000826797 0.00776797 0.0020835 0.00566779 0.00176852 0.0178914 0.00215434 0.0116815 0.00244373 0.0232006 0.00280764 0.0221061 0.00326956 0.0289799 0.00471537 0.0214867 0.00448646 0.0318385
71 1 Mg 0.0158226 73.4375 3.16965 1.2 1 0.00516852 0.00401388 0.00102445 0.00791233 0.00185781 0.0053136 0.00134179 0.0169192 0.00194235 0.0113624 0.00188541 0.0236251 0.00251103 0.0194612 0.00306864 0.0283587 0.00378011 0.0222736 0.00456632 0.0332867
72 1 Mg 0.272676 70.6019 4.60307 1.2 1 0.00454715 0.00456736 0.0011113 0.00871371 0.00204339 0.00564674 0.0015841 0.0174657 0.00212253 0.0115691 0.00251355 0.0235124 0.00384445 0.0200373 0.00459729 0.0275522 0.00467273 0.0230142 0.00547187 0.0327386
73 2 Si 2.18351 72.6481 4.84657 2.4 1 0.00644418 0.00366614 0.00100966 0.00925575 0.00262146 0.00552076 0.00202747 0.0165409 0.00255181 0.0110647 0.00275379 0.02285 0.00343692 0.0206552 0.00425663 0.0285118 0.00521828 0.0226015 0.00642398 0.0325971
74 3 O -1.03255 72.6119 4.54261 -1.2 1 0.00627738 0.00385311 0.00119966 0.00854577 0.0024985 0.00549747 0.0015266 0.0166227 0.00276884 0.0110222 0.00235825 0.0230099 0.00345408 0.0203029 0.00526419 0.0285768 0.00535246 0.0228593 0.00602316 0.032999
75 3 O 1.22346 68.603 4.69297 -1.2 1 0.00241617 0.00481889 0.00104422 0.00889198 0.00168027 0.00588224 0.00113042 0.0183323 0.00187089 0.0112106 0.00190676 0.0235292 0.00260195 0.0192055 0.00352109 0.0273578 0.00357031 0.0231911 0.00375235 0.031983
76 3 O 1.4292 71.9877 3.33297 -1.2 1 0.00526526 0.00379625 0.00165649 0.00779998 0.00251264 0.00561213 0.00162227 0.0176003 0.0020912 0.0108859 0.00218782 0.0231326 0.00349476 0.0201956 0.00369362 0.0284543 0.00487857 0.0233767 0.00605776 0.0333166
77 1 Mg 0.0971127 73.6244 0.165642 1.2 1 0.003206 0.00395061 0.0014084 0.00714091 0.00114123 0.00522916 0.00153423 0.0172048 0.00188572 0.0113766 0.00228321 0.0241934 0.00255154 0.0197382 0.00446188 0.0286322 0.00448411 0.0214398 0.00419492 0.0337432
78 3 O 1.58559 71.579 5.95211 -1.2 1 0.00501986 0.00424055 0.00136114 0.00837642 0.00185862 0.00641216 0.00162868 0.0173685 0.00226517 0.0110636 0.00216118 0.0229147 0.00364143 0.0208767 0.00457224 0.0291868 0.00410748 0.0238029 0.00539084 0.0315506
79 1 Mg 0.291859 76.7606 1.82747 1.2 1 0.00392676 0.00611071 0.000862849 0.00741402 0.000925498 0.00464672 0.00189589 0.0177926 0.00226196 0.0112974 0.00242009 0.023855 0.002726 0.0204219 0.00401086 0.0297571 0.00413163 0.0219567 0.00364873 0.0327992
80 2 Si -1.84519 74.5645 1.67869 2.4 1 0.00426572 0.00441553 0.00123529 0.00881952 0.00163046 0.00481389 0.00191412 0.0162659 0.00204809 0.0108573 0.00326229 0.0226391 0.00283809 0.0204706 0.00432719 0.0288796 0.00454036 0.0222024 0.0040075 0.0343244
81 3 O 1.26148 74.4612 1.60005 -1.2 1 0.00442728 0.0043702 0.00150331 0.008041 0.0016492 0.00449083 0.00207348 0.0167516 0.00196822 0.0109605 0.00246008 0.0232476 0.00245432 0.0201299 0.0040486 0.028997 0.00484484 0.0224162 0.00321059 0.0341717
82 3 O -0.855464 78.7316 2.05933 -1.2 1 0.00384522 0.00595739 0.000968733 0.00769101 0.00226479 0.00455726 0.00183895 0.0176032 0.00201154 0.0108909 0.00247874 0.0237192 0.00367335 0.0201621 0.00481387 0.0281408 0.00495247 0.0205968 0.00446309 0.0321445
83 3 O -1.16087 75.1434 0.219578 -1.2 1 0.00320656 0.00441457 0.00149109 0.00710774 0.00183285 0.00485921 0.00298255 0.0172827 0.00208952 0.0107202 0.00264232 0.0231217 0.00279597 0.0199108 0.00595723 0.0291099 0.00535252 0.0219763 0.004413 0.0345665
84 3 O -1.24593 75.3226 2.99282 -1.2 1 0.00471213 0.00485828 0.000982941 0.00776798 0.0014112 0.00492129 0.00171198 0.016832 0.00214379 0.0105203 0.00198466 0.0229842 0.00210914 0.02107 0.00400157 0.0298192 0.00364208 0.0224322 0.00341147 0.033228
85 1 Mg -2.26976 79.4806 0.386886 1.2 1 0.00504727 0.00535418 0.00121978 0.00750675 0.00249248 0.00465196 0.00209823 0.0175123 0.00198734 0.0105194 0.00210466 0.0242806 0.00398899 0.0200663 0.00662142 0.028574 0.00509505 0.0205854 0.0049147 0.0321434
86 1 Mg 2.34394 82.2999 1.90899 1.2 1 0.00553002 0.00467082 0.00146784 0.00792847 0.00290245 0.00527152 0.0023907 0.0185209 0.00194951 0.0112888 0.00210294 0.0247693 0.00361967 0.020352 0.00507397 0.028374 0.00413006 0.0212182 0.00399739 0.0320488
87 2 Si -0.264788 80.1592 2.23462 2.4 1 0.00448264 0.00523467 0.001042 0.00788511 0.00272749 0.00410801 0.00245962 0.0172803 0.00205184 0.0108246 0.00268362 0.0239211 0.00445131 0.0202946 0.0062104 0.0277047 0.00537366 0.0206883 0.0052773 0.0321632
88 3 O 1.30721 80.0508 1.96513 -1.2 1 0.00381726 0.00560024 0.00131268 0.00757232 0.0027217 0.00450543 0.00198952 0.0172299 0.00244795 0.0104895 0.00228134 0.0238429 0.00441808 0.0205383 0.00467977 0.028366 0.00512639 0.0206385 0.00516547 0.0326208
89 3 O -1.52745 84.0976 2.02189 -1.2 1 0.0055457 0.00501248 0.00231676 0.0088485 0.00206453 0.00562049 0.00211827 0.0186717 0.00187851 0.0118997 0.00198569 0.0251528 0.00235163 0.0210839 0.00349942 0.0274027 0.0029611 0.0209998 0.00329406 0.0333002
90 3 O -0.954384 80.9393 0.731712 -1.2 1 0.00521789 0.00517874 0.00117238 0.00766937 0.00260102 0.0049556 0.00257058 0.01798 0.00201289 0.0105244 0.00233186 0.0240656 0.0043999 0.0205666 0.00621761 0.0281805 0.00547514 0.0209887 0.00486825 0.0319508
91 1 Mg -2.27047 90.2692 3.36385 1.2 1 0.00138179 0.00337094 0.00100826 0.00851701 0.00103105 0.00760242 0.00102687 0.0199394 0.00161631 0.0127081 0.00227995 0.0259574 0.00243846 0.022805 0.00363939 0.0301031 0.00379507 0.0220133 0.00343664 0.0336788
92 3 O -0.931896 80.8524 3.46048 -1.2 1 0.00431396 0.00545033 0.00105157 0.00701424 0.00219161 0.00478675 0.00179345 0.0184333 0.00171328 0.0106914 0.00239244 0.0241659 0.00350683 0.0205711 0.00428186 0.0286723 0.00400859 0.021083 0.00478626 0.0320091
93 1 Mg -2.25624 86.9681 4.76608 1.2 1 0.00474487 0.00446164 0.00119018 0.00924835 0.00172103 0.00675475 0.00113402 0.019423 0.00250254 0.0122988 0.00233115 0.0262627 0.00203023 0.0226986 0.00358885 0.0297597 0.00339073 0.021764 0.0033677 0.033451
94 2 Si 0.402263 88.9356 4.47548 2.4 1 0.00319965 0.00341828 0.00101907 0.0098265 0.00218471 0.00663168 0.00124912 0.0187082 0.0016002 0.0122881 0.00260372 0.0258445 0.00221323 0.023035 0.00336816 0.0298156 0.00321011 0.021732 0.00361531 0.0342564
95 3 O -1.16253 89.0977 4.49506 -1.2 1 0.00285574 0.00307606 0.00125085 0.00965372 0.00193044 0.00671745 0.00131642 0.0192672 0.00274117 0.0122667 0.00211748 0.0250446 0.00239758 0.0229866 0.00360725 0.0301857 0.00336428 0.022013 0.00396791 0.0340656
96 3 O 1.60738 84.6867 4.89045 -1.2 1 0.00465792 0.00525978 0.000876133 0.00894295 0.00214221 0.00595077 0.00143063 0.0196645 0.00222144 0.0118368 0.00296799 0.0251147 0.00265656 0.021815 0.00349506 0.0290154 0.00345824 0.0208667 0.00382359 0.0328025
97 3 O 1.10183 88.3535 3.22922 -1.2 1 0.00405504 0.00408349 0.00125921 0.00890657 0.00197077 0.00715241 0.00190652 0.0196615 0.00165426 0.0126012 0.00188857 0.0256002 0.00213298 0.0228693 0.00259356 0.0297776 0.0026342 0.0221936 0.0030145 0.0347544
98 3 O 0.993022 88.1343 5.69641 -1.2 1 0.00370101 0.00376343 0.000946966 0.00960885 0.0018457 0.00682118 0.00136038 0.0196842 0.00219787 0.0120014 0.00271702 0.0256756 0.00250594 0.0233623 0.00289316 0.0304612 0.00336152 0.0224199 0.0039331 0.0333523
99 1 Mg 0.357058 84.091 2.98909 1.2 1 0.00560488 0.00465884 0.00192034 0.00875777 0.00251879 0.0055576 0.00193545 0.0186397 0.00189073 0.0115233 0.00175923 0.0250834 0.00264595 0.021105 0.00316581 0.027915 0.00256054 0.0207752 0.00389345 0.0329793
100 1 Mg 0.179717 81.3361 5.27961 1.2 1 0.0028913 0.0056221 0.00167069 0.00732801 0.00179757 0.00549957 0.00223845 0.0189885 0.00143283 0.0111485 0.00246782 0.0248159 0.0029113 0.0217181 0.00346717 0.0286147 0.00312651 0.0204092 0.00500086 0.0320214
101 2 Si 2.18462 83.1504 4.92215 2.4 1 0.00481521 0.00513995 0.0016599 0.00828038 0.00303344 0.00517251 0.00216478 0.0186833 0.00199578 0.0114208 0.00305992 0.0244904 0.00315544 0.0215081 0.00423293 0.028324 0.00293691 0.0203633 0.00451805 0.0323522
102 3 O -1.04294 83.2498 4.89853 -1.2 1 0.00528665 0.00509083 0.00126707 0.0079398 0.00297597 0.0051232 0.00183892 0.0183641 0.00252119 0.0110323 0.00235173 0.0247055 0.00307322 0.0215486 0.00377819 0.029071 0.00408137 0.020204 0.00449899 0.0325159
103 3 O 1.06297 79.3208 5.17725 -1.2 1 0.00300005 0.00591105 0.00144363 0.00781475 0.00169275 0.00501939 0.00191309 0.018287 0.00161713 0.0110373 0.00304026 0.0239894 0.0027128 0.0206341 0.004358 0.0286563 0.00410955 0.0211982 0.00451841 0.0318257
104 3 O 1.40857 82.4461 3.60999 -1.2 1 0.00509651 0.00518491 0.00158512 0.00750801 0.00283385 0.00511795 0.00192293 0.0188492 0.00206336 0.0113052 0.00278913 0.0243373 0.00348965 0.0214779 0.00420446 0.028478 0.00316792 0.0207531 0.00455672 0.0320711
105 1 Mg -0.0401236 84.553 0.311768 1.2 1 0.00689192 0.0048219 0.00196176 0.00848561 0.0022001 0.0062074 0.00162116 0.0182566 0.00155515 0.0122331 0.00150668 0.025389 0.00296583 0.020593 0.00353513 0.0277319 0.00337784 0.020935 0.00274601 0.0324127
106 3 O 1.34758 82.6614 6.20588 -1.2 1 0.00375393 0.00587754 0.00194135 0.00719581 0.00252973 0.0054305 0.00215443 0.0191779 0.00216677 0.0110775 0.00324888 0.0246587 0.00241715 0.0218107 0.00436252 0.0297272 0.00379664 0.0204521 0.00467294 0.0329572
107 1 Mg -0.0310208 87.6851 1.76109 1.2 1 0.00551275 0.00468374 0.0020151 0.00870222 0.0013861 0.00715958 0.0015509 0.0193174 0.00224581 0.0127042 0.00228847 0.0255687 0.00184429 0.0230367 0.00323443 0.0293122 0.00238963 0.0216118 0.00299111 0.0342501
108 2 Si -1.87118 85.6232 1.83446 2.4 1 0.00604638 0.00480697 0.00228459 0.0097687 0.00193995 0.00531206 0.00209824 0.0180033 0.00203204 0.012127 0.00273283 0.0250477 0.00251326 0.0220996 0.00486958 0.0274134 0.00383082 0.0208405 0.0037881 0.0343595
109 3 O 1.2758 85.3388 1.83678 -1.2 1 0.0067163 0.00441226 0.00219244 0.00933655 0.00188121 0.00550085 0.00111326 0.0185028 0.00240322 0.0120201 0.0021561 0.0251384 0.00265029 0.0219625 0.0030269 0.0283433 0.00269498 0.0212559 0.00363023 0.0339185
110 3 O -1.09364 89.7046 1.62675 -1.2 1 0.00296683 0.00384356 0.00106756 0.00870896 0.00170316 0.00682536 0.00126215 0.0194767 0.0017837 0.0127464 0.00222994 0.0253778 0.00248027 0.0224926 0.00358431 0.0293168 0.0031965 0.0214611 0.00314268 0.0339237
111 3 O -1.34494 86.1329 0.328048 -1.2 1 0.00643653 0.00578142 0.00177176 0.00868423 0.00208732 0.00644499 0.00200351 0.0187389 0.00179414 0.0126109 0.00191776 0.0250375 0.00202683 0.0223993 0.00339893 0.029374 0.00285048 0.0217998 0.00286507 0.0346374
112 3 O -1.19905 86.3137 2.9999 -1.2 1 0.00527712 0.00448944 0.0017885 0.0093527 0.00135011 0.0061967 0.00190552 0.0192657 0.00195265 0.0120743 0.00263886 0.0253168 0.00191039 0.0226374 0.00315968 0.02897 0.00317165 0.0216245 0.00320091 0.033556
113 1 Mg -2.34994 90.0587 0.164607 1.2 1 0.00346442 0.00402858 0.00112462 0.00870317 0.00126098 0.00706191 0.00100236 0.0190959 0.00213264 0.0124743 0.0020637 0.0261454 0.00183428 0.0226386 0.00239212 0.0303041 0.00250081 0.021132 0.00308817 0.0339109
114 1 Mg 2.16219 93.0559 1.71581 1.2 1 0.0055761 0.00420844 0.00214147 0.00851682 0.00150866 0.00668161 0.00192075 0.0203542 0.00206958 0.0125968 0.00287965 0.0247145 0.00285392 0.0217446 0.00429408 0.0315507 0.00412603 0.0222055 0.00366895 0.0342866
115 2 Si -0.455124 91.249 1.79996 2.4 1 0.00346655 0.00409379 0.00151079 0.00927524 0.00186129 0.00666186 0.00134347 0.0192583 0.00177914 0.012818 0.00286282 0.0253712 0.00301344 0.022678 0.00448366 0.0305052 0.00426091 0.0216793 0.00369167 0.0339272
116 3 O 1.11814 91.0916 1.68217 -1.2 1 0.00343663 0.00389673 0.00116672 0.00905083 0.0015238 0.00675969 0.00096959 0.0194149 0.00243377 0.0123543 0.0025549 0.0247485 0.00262759 0.0225154 0.00317923 0.0308536 0.0035269 0.0218922 0.00387432 0.0339643
117 3 O -1.23189 95.1164 1.72893 -1.2 1 0.0079063 0.00499179 0.00188166 0.00814164 0.00211255 0.00646226 0.00185977 0.0212808 0.00231475 0.0120262 0.00258988 0.0243312 0.00240546 0.0205612 0.00339163 0.0307717 0.0046399 0.0229008 0.00421442 0.0342146
118 3 O -1.25683 92.0638 0.540299 -1.2 1 0.00506465 0.00381822 0.00165232 0.00863788 0.00188848 0.00721247 0.00162288 0.0196286 0.00164425 0.0123341 0.00271913 0.0248865 0.00271709 0.0225037 0.00357004 0.031346 0.00302364 0.0216264 0.00340662 0.0333793
119 1 Mg -2.0368 100.878 2.92209 1.2 1 0.00170436 0.00566041 0.00106156 0.00679708 0.00137931 0.00606853 0.0017546 0.0221349 0.00112575 0.0113259 0.00229563 0.0252928 0.00351894 0.0183747 0.00467442 0.0300756 0.00526445 0.0231071 0.00456304 0.0339219