ITEM: TIMESTEP
71800
ITEM: NUMBER OF ATOMS
5600
ITEM: BOX BOUNDS xy xz yz pp pp pp
0	7.1235	0
0	201.985	2.3745
0	119.584	0
ITEM: ATOMS id type element xu yu zu q Q_1 Q_2 Q_3 Q_4 Q_5 Q_6 Q_7 Q_8 Q_9 Q_10 Q_11 Q_12 Q_13 Q_14 Q_15 Q_16 Q_17 Q_18 Q_19 Q_20 Q_21
1 1 Mg -1.7525 48.1269 -1.01987 1.2 1 0.239694 0.0771408 0.0224168 0.0269254 0.00652343 0.0158459 0.00526181 0.0194906 0.00496276 0.0250378 0.00657896 0.0243174 0.00713594 0.0241166 0.00811846 0.0194566 0.00966857 0.0196367 0.00904584 0.0276506
2 1 Mg 3.13102 51.059 1.7129 1.2 1 0.168899 0.0645492 0.00816119 0.0189384 0.00229319 0.0108672 0.00281711 0.0178627 0.00336416 0.0203098 0.00438895 0.0242939 0.00521337 0.0207269 0.00477439 0.0198578 0.00541167 0.0184951 0.00671134 0.0285525
3 2 Si 0.78426 49.5782 -0.237047 2.4 1 0.203106 0.0716402 0.014138 0.0228077 0.00508336 0.0122591 0.00337229 0.0175846 0.00436277 0.0231038 0.00501436 0.0234504 0.00566399 0.0233385 0.00556057 0.0197298 0.00831402 0.0184044 0.00827725 0.0267996
4 3 O 1.71988 48.3789 0.325973 -1.2 1 0.233819 0.0788992 0.020277 0.0274578 0.00461628 0.0149902 0.00435128 0.0192142 0.00580511 0.0251836 0.00632168 0.024014 0.00706383 0.0243739 0.00766754 0.0199418 0.00924077 0.0197014 0.00915195 0.0277588
5 3 O -1.40032 52.9783 1.24883 -1.2 1 0.126665 0.0514003 0.00296769 0.0142757 0.00194292 0.009945 0.00157451 0.0166847 0.00270667 0.0172708 0.00306414 0.0236651 0.0042488 0.0185727 0.00401556 0.020201 0.00450741 0.0189269 0.00601349 0.0294185
6 3 O -0.170124 49.0696 -1.31982 -1.2 1 0.213482 0.071803 0.0165865 0.0234335 0.00575997 0.0132636 0.00511275 0.0182058 0.00392864 0.0237751 0.00495644 0.0228319 0.0067506 0.0244227 0.0057086 0.0193886 0.00743837 0.0192495 0.00829786 0.026491
7 1 Mg -2.72198 58.398 3.08445 1.2 1 0.0146666 0.0157854 0.00676927 0.00675643 0.0016728 0.0070357 0.00210284 0.0185723 0.00277347 0.0113446 0.00262484 0.0265126 0.00495654 0.0175824 0.00553373 0.0279083 0.00451012 0.0245096 0.00470003 0.0351458
8 3 O -0.133312 50.0715 0.971981 -1.2 1 0.191261 0.07065 0.0115778 0.021559 0.00379157 0.0115248 0.00331061 0.0182396 0.00483737 0.021339 0.00475859 0.0234754 0.00553813 0.0227966 0.00552435 0.020032 0.00660751 0.0181335 0.00806951 0.0271728
9 1 Mg -2.39015 55.6897 4.19926 1.2 1 0.0655373 0.0349817 0.00515828 0.00980261 0.00167636 0.00683443 0.0018905 0.0169603 0.00301248 0.0138029 0.00401127 0.0250152 0.00441036 0.0170816 0.0051363 0.0236345 0.00403957 0.0202953 0.00567668 0.0327678
10 2 Si 0.133145 57.5017 4.69356 2.4 1 0.029988 0.0226349 0.00763727 0.00766533 0.00147316 0.00631274 0.00211095 0.018676 0.00226307 0.0109081 0.00422663 0.0254296 0.0046399 0.0176282 0.0058163 0.0263823 0.0045392 0.0233827 0.00544893 0.0351653
11 3 O -1.53605 57.675 4.63639 -1.2 1 0.0237668 0.0203061 0.00819933 0.00717084 0.00178013 0.00648241 0.00266434 0.0184003 0.00280985 0.0108501 0.00340123 0.0264412 0.00446749 0.0167449 0.0056802 0.0264333 0.00425903 0.0232903 0.00493777 0.0354468
12 3 O 1.18031 53.9175 4.14974 -1.2 1 0.102374 0.0478655 0.00310288 0.0132949 0.00233324 0.00765822 0.00208368 0.0167369 0.00335408 0.0153977 0.00387797 0.0245654 0.00508402 0.0174942 0.0042857 0.0208009 0.00417889 0.019165 0.00617363 0.0306133
13 3 O 0.7215 56.9334 3.3942 -1.2 1 0.0394142 0.0259872 0.0069702 0.0082382 0.00127122 0.00621061 0.00173785 0.0181357 0.00274629 0.0121142 0.0027285 0.0247109 0.00443681 0.0172435 0.00556103 0.0256208 0.00445303 0.0225281 0.0053488 0.0336319
14 3 O 0.901848 56.8768 5.97434 -1.2 1 0.0427809 0.0276759 0.00759732 0.00772605 0.0011928 0.0062672 0.00201277 0.0189172 0.00265496 0.0112595 0.00283915 0.0253786 0.00464588 0.0181121 0.00561534 0.0251739 0.00451723 0.0227072 0.00520867 0.0346398
15 1 Mg -0.111028 53.3842 2.7747 1.2 1 0.116117 0.0502802 0.00169916 0.0140222 0.00147818 0.008923 0.00209572 0.0160703 0.00293048 0.01669 0.00411047 0.0247169 0.00448486 0.0170626 0.00443258 0.0202054 0.00398107 0.0184263 0.00603291 0.0299483
16 1 Mg 0.59589 50.0099 2.8246 1.2 1 0.199758 0.0732905 0.0121639 0.0225277 0.00248648 0.0122162 0.00296313 0.0177258 0.00468988 0.0208879 0.00489342 0.024823 0.00576624 0.0210929 0.00518402 0.0198141 0.00664815 0.0174129 0.00836347 0.0290222
17 2 Si 2.00791 52.5665 4.29056 2.4 1 0.134466 0.0565069 0.00217526 0.0155625 0.00207566 0.00930891 0.00240678 0.0168913 0.00252677 0.0169494 0.00474664 0.0247931 0.0054614 0.0177762 0.00459339 0.0203616 0.00454044 0.0177149 0.00688571 0.0302791
18 3 O -1.18135 52.7415 4.40893 -1.2 1 0.122867 0.0545917 0.00273957 0.0150804 0.0023071 0.00855977 0.00242402 0.0165281 0.00331819 0.0166237 0.00463831 0.0256271 0.00528749 0.0176579 0.00518031 0.0209328 0.00499209 0.0178896 0.00713693 0.0310411
19 3 O 2.72521 49.5786 3.07032 -1.2 1 0.204081 0.0748005 0.0123989 0.0226953 0.00255275 0.012595 0.00403732 0.0187763 0.0054816 0.021367 0.00545069 0.0252466 0.00645557 0.0214324 0.00595792 0.0209902 0.00691953 0.018186 0.00844363 0.0288093
20 3 O 1.49173 51.9235 2.9023 -1.2 1 0.144571 0.0589133 0.00371835 0.0164991 0.00196199 0.00974433 0.00224281 0.0171919 0.00326139 0.0182268 0.00411103 0.0242327 0.00509738 0.0195728 0.00465421 0.0202764 0.00454713 0.0181244 0.00659821 0.029658
21 1 Mg -0.10303 53.5871 -0.548273 1.2 1 0.10871 0.0466971 0.00130534 0.012355 0.00208852 0.00835963 0.00163391 0.016092 0.00273788 0.0183764 0.00360323 0.0225559 0.00451946 0.0198029 0.00415783 0.0203388 0.00374506 0.0188106 0.00552446 0.0280366
22 3 O 1.14788 51.902 5.44235 -1.2 1 0.151222 0.062514 0.00384312 0.0177382 0.00252951 0.00978965 0.00254799 0.0171624 0.00332104 0.0174197 0.00639222 0.025369 0.00585463 0.019111 0.00567155 0.0213514 0.00533008 0.0167676 0.00769144 0.0308465
23 1 Mg -0.0488754 56.2663 1.61235 1.2 1 0.0469594 0.0287225 0.00669415 0.00838278 0.00168383 0.00701761 0.00124786 0.0168586 0.0039476 0.0134104 0.00319045 0.0245508 0.00457317 0.0174464 0.00515967 0.0245219 0.004427 0.0217683 0.00481079 0.0325805
24 2 Si -2.04485 54.4161 1.11298 2.4 1 0.0963064 0.04269 0.00182411 0.0113368 0.00155262 0.00822518 0.00116801 0.0162988 0.00349608 0.0164474 0.0030081 0.0235508 0.00388205 0.0181922 0.00378186 0.0211553 0.00437268 0.0193541 0.00505522 0.0301545
25 3 O 1.01812 54.3289 1.35111 -1.2 1 0.0982463 0.0433276 0.00243493 0.0121755 0.00179125 0.00858455 0.00152969 0.0155861 0.00301851 0.0158999 0.00338009 0.0235483 0.00381715 0.0171596 0.00475247 0.0217328 0.00315919 0.0190799 0.00536882 0.0302656
26 3 O -1.24673 58.0549 1.63838 -1.2 1 0.0178827 0.0173246 0.00705197 0.00706138 0.00121972 0.00673127 0.00178645 0.0181493 0.00339806 0.0118893 0.0033372 0.0263224 0.0045735 0.01795 0.00503988 0.0276347 0.00551817 0.02381 0.00547769 0.0349808
27 3 O -1.37084 55.3205 0.0127673 -1.2 1 0.0720549 0.0351405 0.00434584 0.00853616 0.00139767 0.00792811 0.00174384 0.0168544 0.00283177 0.0153056 0.00220972 0.0227468 0.00365459 0.0186087 0.00382448 0.0223689 0.00506492 0.0211569 0.00557277 0.0304462
28 3 O -1.52847 55.1058 2.48589 -1.2 1 0.0766146 0.0377315 0.00414705 0.0101571 0.0016239 0.00745534 0.00169522 0.0165688 0.00346981 0.0144849 0.00313208 0.0237107 0.00417686 0.0174352 0.00424224 0.0226754 0.00374432 0.0200745 0.00518018 0.0307159
29 1 Mg -2.45145 58.419 0.0880964 1.2 1 0.0160937 0.0155126 0.0053336 0.00686473 0.00155645 0.00733733 0.00150735 0.0183916 0.00260038 0.0127287 0.00285634 0.0252301 0.00325951 0.0182513 0.00352791 0.0279832 0.00465318 0.0234096 0.0047568 0.0345263
30 1 Mg 2.16889 61.6815 1.75041 1.2 1 0.00261327 0.00736452 0.00156837 0.0091744 0.00147757 0.00760094 0.00134906 0.0204007 0.00307992 0.0112994 0.00251394 0.0282887 0.0021215 0.0195191 0.00325546 0.0321916 0.00385608 0.0259219 0.00470541 0.0381083
31 2 Si -0.607227 59.4881 1.6494 2.4 1 0.00728426 0.011631 0.00394128 0.00825034 0.00157899 0.00663634 0.00161619 0.0186856 0.0027756 0.0116516 0.00351174 0.0265481 0.00403778 0.0188276 0.00417964 0.0291189 0.00461845 0.0244934 0.00495441 0.0366473
32 3 O 1.00962 59.2191 1.61207 -1.2 1 0.00767705 0.0116087 0.00417524 0.0080868 0.00124836 0.00649841 0.00182023 0.0183668 0.00330742 0.0117836 0.00295569 0.026338 0.00418451 0.0187976 0.00458244 0.0296238 0.00430522 0.0242988 0.0048715 0.0363698
33 3 O -1.36859 63.4026 1.67399 -1.2 1 0.0030355 0.00660074 0.00139833 0.00967741 0.00156268 0.00727223 0.0018319 0.0212914 0.00216759 0.0109059 0.00281279 0.0288339 0.00212112 0.0191985 0.0022772 0.0321755 0.00314245 0.0258099 0.00437748 0.0395372
34 3 O -0.979182 60.3297 0.288764 -1.2 1 0.00268507 0.00896216 0.00216292 0.00844346 0.0014068 0.00699624 0.00204119 0.0193205 0.00266794 0.0115394 0.0023781 0.0261674 0.00264523 0.0195051 0.00296356 0.0315841 0.00397214 0.0248644 0.00472131 0.0366507
35 1 Mg -2.12728 69.1781 3.34983 1.2 1 0.00134346 0.00470659 0.00154776 0.00920198 0.00141073 0.00608532 0.00145218 0.022075 0.00164338 0.0111771 0.00204849 0.0285239 0.00214373 0.0195194 0.00208426 0.0328837 0.00277701 0.0274167 0.00303434 0.0414521
36 3 O -1.19659 60.1787 2.92372 -1.2 1 0.00414734 0.010333 0.00335158 0.00794879 0.00133791 0.0070521 0.00207575 0.020219 0.00352553 0.0110014 0.00274032 0.0265146 0.00302049 0.0192549 0.00433228 0.0306006 0.0046935 0.0262624 0.00446754 0.0372042
37 1 Mg -2.15038 66.2848 4.68017 1.2 1 0.00172573 0.00457653 0.00136412 0.00971422 0.00151079 0.00594814 0.00182103 0.0222133 0.00223575 0.0113548 0.00231507 0.0294105 0.00244836 0.0199681 0.00294217 0.0340004 0.00276325 0.0282782 0.00296748 0.0419783
38 2 Si 0.380888 68.0779 4.66206 2.4 1 0.00106254 0.00394734 0.00130513 0.0101195 0.00179702 0.00565162 0.00190608 0.0216508 0.00236221 0.0108278 0.00237157 0.0285656 0.00253838 0.0200124 0.00436654 0.0335734 0.00355521 0.0277812 0.00355016 0.0426202
39 3 O -1.13094 68.2314 4.77396 -1.2 1 0.000822037 0.00400968 0.00152637 0.00998699 0.00182507 0.0057818 0.00172949 0.0217716 0.00298223 0.0105584 0.00222142 0.0286342 0.00285664 0.019698 0.00254148 0.0335986 0.00291007 0.0278474 0.0026801 0.0428013
40 3 O 1.14485 64.2555 4.62946 -1.2 1 0.00345461 0.00481269 0.00179684 0.0100557 0.00175801 0.00644629 0.0013227 0.0217847 0.00232309 0.010661 0.0024768 0.0292868 0.00207916 0.019112 0.00309027 0.0328628 0.00314462 0.0276964 0.00355399 0.0402608
41 3 O 1.22791 67.4367 3.4759 -1.2 1 0.00170943 0.00459351 0.00151879 0.00961081 0.00161342 0.00615692 0.0021472 0.0222067 0.00211197 0.0111261 0.00218796 0.0282567 0.00241494 0.0202975 0.00391955 0.0344097 0.00355451 0.0280978 0.00341086 0.0422052
42 3 O 1.0793 67.3022 6.01237 -1.2 1 0.000758182 0.00474036 0.00115837 0.00927507 0.00164133 0.00592382 0.00212855 0.0225813 0.00194846 0.0113875 0.00228954 0.0284388 0.00268752 0.0205295 0.00326835 0.0334365 0.00298487 0.0280044 0.00285496 0.0413494
43 1 Mg -0.0100496 63.7334 2.92074 1.2 1 0.00357834 0.00591214 0.00138521 0.0098224 0.0015089 0.00697842 0.00139376 0.0212825 0.00269552 0.0104412 0.00260283 0.0289108 0.00201232 0.0190566 0.00322598 0.0326607 0.00319495 0.0268479 0.00403663 0.0397408
44 1 Mg -0.229693 60.8453 4.5563 1.2 1 0.00352152 0.00830637 0.00267214 0.00834015 0.00197366 0.00661768 0.00227672 0.0206582 0.00239623 0.0111078 0.00245773 0.0274576 0.00335519 0.0193748 0.0039914 0.0308979 0.00484393 0.0259023 0.00495734 0.0367072
45 2 Si 1.93049 62.8246 4.51125 2.4 1 0.00403097 0.00479621 0.00218403 0.0101672 0.00221169 0.00639856 0.00200095 0.0213879 0.00200472 0.0107272 0.00247323 0.0279956 0.0030576 0.0194608 0.00498902 0.0318351 0.0033363 0.0270864 0.00497095 0.0393801
46 3 O -1.3991 63.2 4.47202 -1.2 1 0.00399726 0.00494658 0.00174274 0.010158 0.00117952 0.00638042 0.00151896 0.0215253 0.00292983 0.0101859 0.00234942 0.0284682 0.00241205 0.0191067 0.00348472 0.032503 0.00446501 0.0266157 0.00425361 0.0399104
47 3 O 0.661732 59.0676 4.72106 -1.2 1 0.00959076 0.0136822 0.00508785 0.00730142 0.00159892 0.00712202 0.00220573 0.0205137 0.00276251 0.010806 0.00283389 0.0266504 0.00477662 0.0185876 0.00550272 0.0280734 0.00467706 0.0251684 0.00460588 0.0357064
48 3 O 1.14318 62.0057 3.24595 -1.2 1 0.00368761 0.00656195 0.0017431 0.0096367 0.00192828 0.00719876 0.00262345 0.020629 0.00187594 0.0108806 0.00215563 0.027074 0.00333476 0.0196762 0.00363321 0.0322722 0.00275062 0.0265923 0.004239 0.0384075
49 1 Mg 0.103185 64.0668 -0.123223 1.2 1 0.0025638 0.00715634 0.000489309 0.00986076 0.00136398 0.00741347 0.000937795 0.0208602 0.00192384 0.0103039 0.0018976 0.0280335 0.00227253 0.0197159 0.00308761 0.0334634 0.00288215 0.0252263 0.0043091 0.0387799
50 3 O 1.32563 61.9607 5.81442 -1.2 1 0.00401527 0.00581397 0.00222743 0.00918083 0.00238611 0.00647739 0.00184585 0.0214382 0.00195048 0.0106264 0.002148 0.0274456 0.00263511 0.0196102 0.00354525 0.0315029 0.00431802 0.0266765 0.00504992 0.0374264
51 1 Mg 0.11374 66.8016 1.77256 1.2 1 0.00276587 0.00527624 0.00161092 0.00931735 0.0013867 0.00650286 0.000930139 0.0218447 0.00182616 0.0107795 0.00218359 0.0285815 0.00248837 0.0199493 0.00339601 0.0344345 0.00342479 0.0274397 0.00343141 0.0405739
52 2 Si -2.05451 65.0072 1.55435 2.4 1 0.00334546 0.00589184 0.000929655 0.01028 0.00156252 0.00680781 0.00153118 0.021157 0.00238988 0.0107859 0.00270454 0.0278039 0.0021417 0.0197241 0.00377711 0.0326426 0.00333419 0.0266277 0.00393248 0.0405886
53 3 O 1.12246 64.8836 1.4342 -1.2 1 0.00321394 0.00549489 0.0011849 0.00992581 0.00145865 0.00670105 0.00143686 0.0208272 0.00311991 0.0101016 0.00207218 0.027971 0.00226793 0.0194843 0.00371999 0.0338239 0.00342809 0.0263845 0.00389907 0.0405425
54 3 O -0.948203 68.5506 1.74946 -1.2 1 0.00209247 0.00548809 0.00124809 0.0093943 0.00152233 0.00645598 0.00131282 0.022756 0.00171928 0.0113949 0.00252958 0.0281684 0.00285008 0.0198724 0.00323994 0.0334378 0.00326303 0.0276798 0.003168 0.041129
55 3 O -1.35017 65.5007 0.148763 -1.2 1 0.00323148 0.00586605 0.0013738 0.00971122 0.00172825 0.00690185 0.0020316 0.0208013 0.00244078 0.0105974 0.00227431 0.0268861 0.00260058 0.0201604 0.00456118 0.0335528 0.00290662 0.0260339 0.00377255 0.0395989
56 3 O -1.38347 65.7417 2.71597 -1.2 1 0.00293029 0.00529099 0.000777251 0.00955218 0.00144772 0.006413 0.00175661 0.0218619 0.00271861 0.0107273 0.00227012 0.0286516 0.00237561 0.0199269 0.00342441 0.0333875 0.00339967 0.0271466 0.00342017 0.0408377
57 1 Mg -2.17253 68.9952 0.153875 1.2 1 0.00232548 0.00528895 0.00117643 0.00868768 0.00195654 0.00655386 0.00120831 0.0220715 0.00157551 0.0113914 0.00174771 0.0270525 0.00197673 0.0200079 0.00214434 0.0338381 0.00310753 0.0269486 0.00307065 0.0391036
58 1 Mg 2.11891 72.0492 1.86435 1.2 1 0.0016505 0.00496794 0.0011615 0.00822252 0.00213067 0.00594019 0.000977186 0.022461 0.00151054 0.0118486 0.00194535 0.0269717 0.00263718 0.0213585 0.00249329 0.0323891 0.00373578 0.0270746 0.00391764 0.0401467
59 2 Si -0.333432 70.1958 1.55971 2.4 1 0.00162825 0.00489125 0.00117699 0.00910504 0.002792 0.00598496 0.00153477 0.0215907 0.00161428 0.0113044 0.002412 0.0263199 0.00270018 0.0209094 0.00314599 0.0334138 0.00347764 0.0269446 0.00342241 0.0407073
60 3 O 1.23661 70.1487 1.62726 -1.2 1 0.00175437 0.00475544 0.00121889 0.00918313 0.00238096 0.00572971 0.00116487 0.0211147 0.00202536 0.0110518 0.00220706 0.0266972 0.00270694 0.0205466 0.00255089 0.0327975 0.00363177 0.0267629 0.00465259 0.0406759
61 3 O -1.47981 74.0582 1.56752 -1.2 1 0.0025226 0.00466604 0.00147074 0.00808065 0.00207375 0.00588706 0.00122729 0.0221184 0.00197808 0.0118594 0.00234347 0.0261779 0.00304795 0.0202876 0.00415265 0.0297579 0.00373873 0.0267346 0.00383598 0.0397944
62 3 O -0.888083 70.7529 0.222405 -1.2 1 0.00211089 0.00523097 0.00119102 0.00821513 0.00284382 0.00623297 0.00164535 0.0220078 0.00184108 0.0119444 0.00236116 0.0262422 0.0028189 0.0213956 0.00269625 0.0332482 0.00398509 0.0267441 0.00381197 0.0399849
63 1 Mg -2.54116 79.9734 3.32441 1.2 1 0.00437395 0.00395675 0.000930476 0.00847851 0.00117379 0.00569662 0.00107916 0.0209449 0.00199489 0.0101003 0.00208427 0.0257674 0.00250265 0.0192605 0.00285591 0.0278659 0.0033716 0.026005 0.00240033 0.039396
64 3 O -0.979714 70.8124 2.88377 -1.2 1 0.00149076 0.00490426 0.00138803 0.00864889 0.00262453 0.0056681 0.0013696 0.0224407 0.00181247 0.0110496 0.00198089 0.0271305 0.00272224 0.0208869 0.00255893 0.0325251 0.00370941 0.0268747 0.00342361 0.0411861
65 1 Mg -2.64606 76.854 4.33708 1.2 1 0.00422757 0.00465651 0.00150169 0.00844029 0.00175276 0.00593027 0.00183038 0.0217764 0.00223434 0.0108331 0.00178655 0.0257285 0.00262122 0.0204787 0.00353783 0.0278859 0.00334956 0.0261971 0.003403 0.0398405
66 2 Si 0.125212 78.8299 4.63637 2.4 1 0.00425262 0.00374754 0.00121999 0.00926245 0.00148352 0.00549124 0.00190114 0.0204199 0.0018759 0.00991728 0.00233795 0.0245432 0.00225314 0.019666 0.00505578 0.0274574 0.00386419 0.0258374 0.00300826 0.0393207
67 3 O -1.35878 78.7364 4.61723 -1.2 1 0.00399989 0.00356685 0.00102582 0.00904298 0.00141128 0.00560671 0.00158384 0.0206536 0.00230863 0.010043 0.00176893 0.0252644 0.00177481 0.0194012 0.00269753 0.027936 0.00292542 0.0262714 0.0027378 0.0403492
68 3 O 1.36858 75.0317 4.49016 -1.2 1 0.00369711 0.00468877 0.000821061 0.00812358 0.00156236 0.00606744 0.00133118 0.022729 0.00165209 0.0115237 0.00186177 0.0269583 0.00253638 0.0195846 0.00270705 0.0286854 0.0024234 0.0267571 0.0028631 0.0399131
69 3 O 1.04085 78.2043 3.25909 -1.2 1 0.00396225 0.00402283 0.000987231 0.00850627 0.00221802 0.00591319 0.00293483 0.0214078 0.00208745 0.0102065 0.00238845 0.0245374 0.00278862 0.0208628 0.0047494 0.0279365 0.004554 0.0263659 0.00269657 0.039014
70 3 O 0.907501 77.9833 5.79875 -1.2 1 0.00397981 0.00370791 0.0013497 0.00823238 0.0016953 0.00546253 0.00209159 0.0215255 0.00213063 0.010548 0.00229298 0.025264 0.00247998 0.019758 0.00545327 0.0278974 0.00358178 0.0258238 0.00283543 0.039929
71 1 Mg -0.227157 74.9341 3.11797 1.2 1 0.00379132 0.00427125 0.00136756 0.00782775 0.0018851 0.00604252 0.00107388 0.0219224 0.00202495 0.0116671 0.00135286 0.0270646 0.00298331 0.0197983 0.00307273 0.0289522 0.002778 0.0265433 0.00300808 0.0392589
72 1 Mg -0.0736846 71.6164 4.50088 1.2 1 0.00291284 0.00480793 0.00108795 0.00805067 0.00182873 0.00550041 0.00204126 0.0227841 0.00216439 0.011384 0.00202054 0.0285198 0.00299111 0.0200452 0.00348848 0.0320066 0.00320739 0.027457 0.00290329 0.0412935
73 2 Si 1.99328 73.578 4.58884 2.4 1 0.00442472 0.00463312 0.00127182 0.00878705 0.00225512 0.00514566 0.00214898 0.0218753 0.00203432 0.0106234 0.0028823 0.0263027 0.00265495 0.0200583 0.00423641 0.029388 0.00418301 0.0262038 0.00427853 0.0408872
74 3 O -1.17187 73.75 4.67689 -1.2 1 0.00375056 0.00406351 0.00145374 0.00844459 0.00174894 0.00535456 0.00144106 0.0217116 0.00224411 0.0109079 0.00178198 0.0270326 0.00301098 0.0194131 0.00295283 0.02987 0.00337635 0.0266854 0.00250773 0.0408505
75 3 O 0.987301 69.6941 4.59814 -1.2 1 0.00154246 0.00440579 0.00136703 0.00920116 0.00123367 0.00621086 0.00153049 0.0223619 0.00199941 0.0109887 0.0019998 0.0290546 0.00220489 0.0196057 0.00329886 0.0323415 0.00349258 0.0273356 0.00326567 0.0420114
76 3 O 1.33828 72.7781 3.34655 -1.2 1 0.00254197 0.00461465 0.00131829 0.00829385 0.00202382 0.00549132 0.00275395 0.0225947 0.00203665 0.0111635 0.00192922 0.0265298 0.00218712 0.0208556 0.00327738 0.0318232 0.0034873 0.0270861 0.00285697 0.0399331
77 1 Mg -0.0889871 74.4151 -0.00777439 1.2 1 0.0017125 0.00485407 0.00103411 0.0077037 0.00165006 0.00616225 0.00107738 0.0223786 0.00149751 0.0118051 0.00129166 0.026111 0.00214781 0.0207103 0.00280283 0.0305475 0.00316963 0.0267618 0.00323697 0.0386503
78 3 O 1.33515 72.8462 5.83437 -1.2 1 0.00423948 0.00450342 0.00145681 0.00851273 0.00191021 0.00530854 0.00228758 0.0223985 0.00234504 0.010585 0.00201941 0.0271851 0.00232015 0.0195135 0.00319368 0.0306722 0.00321738 0.0269787 0.00318771 0.0417881
79 1 Mg -0.324419 77.413 1.60756 1.2 1 0.00404616 0.00448637 0.000606142 0.00767256 0.00171631 0.00598803 0.00113709 0.0216817 0.00252011 0.012002 0.00239154 0.0256206 0.00309105 0.02079 0.00386091 0.0286452 0.00381256 0.0266066 0.00381443 0.0387108
80 2 Si -2.25315 75.5546 1.48651 2.4 1 0.00354218 0.00396031 0.000872824 0.00840862 0.00245739 0.00519484 0.00166453 0.0210688 0.00228229 0.0114741 0.00230846 0.0247434 0.00352862 0.0203355 0.00391922 0.0288333 0.00388618 0.0262761 0.00410896 0.0393073
81 3 O 0.92559 75.5797 1.49746 -1.2 1 0.00412794 0.00446508 0.0012306 0.00804629 0.00267759 0.00538979 0.00195468 0.0210213 0.00201605 0.0114435 0.00191996 0.0253772 0.00310213 0.0203694 0.00370487 0.0292636 0.00334398 0.0262778 0.00468795 0.0390415
82 3 O -1.15728 79.4282 1.61598 -1.2 1 0.00443602 0.00413206 0.00142481 0.00847251 0.00165569 0.00621879 0.00149183 0.021381 0.00203071 0.0107624 0.00214748 0.0251143 0.00292364 0.0198505 0.00367605 0.0275715 0.0037616 0.0260203 0.00354046 0.0383857
83 3 O -1.63965 76.1604 0.163858 -1.2 1 0.00329589 0.00459339 0.000753546 0.00752209 0.00250128 0.00536908 0.00173149 0.0214928 0.00172009 0.0116347 0.00196461 0.0252461 0.00328158 0.0210047 0.00340235 0.0295491 0.00301543 0.0258151 0.00396161 0.0382982
84 3 O -1.51393 76.2583 2.78793 -1.2 1 0.00385569 0.00448961 0.0011792 0.00820263 0.00172548 0.00540866 0.0014345 0.0216253 0.00187923 0.0108063 0.00178225 0.0249376 0.00331474 0.0204981 0.00297717 0.0287436 0.00354251 0.0264429 0.00310366 0.0392246
85 1 Mg -2.56173 79.8029 0.141351 1.2 1 0.00388527 0.00472959 0.00129631 0.00758492 0.00179971 0.00618912 0.00122926 0.0214373 0.00176618 0.0106131 0.00223568 0.0254288 0.00273065 0.0195426 0.00354364 0.0284394 0.00338791 0.0255456 0.00304507 0.0362247
86 1 Mg 2.27524 82.6775 1.76732 1.2 1 0.00405332 0.00511094 0.001417 0.00824076 0.00173218 0.00540111 0.00142303 0.0210253 0.0023751 0.00965857 0.0027172 0.0254133 0.00317867 0.0189491 0.00398767 0.0281138 0.00414203 0.025421 0.00362885 0.037402
87 2 Si -0.439068 80.7065 1.71246 2.4 1 0.00433646 0.00406684 0.00137614 0.0091046 0.00205398 0.00602349 0.00136197 0.020765 0.00191882 0.00953671 0.00268768 0.0242808 0.00322678 0.0198718 0.00331693 0.0276181 0.00366065 0.0257421 0.00361419 0.0386835
88 3 O 1.17782 80.9284 1.64821 -1.2 1 0.00458852 0.00421714 0.00136812 0.00868315 0.00203942 0.00550764 0.00166561 0.02008 0.00261138 0.00968346 0.00235361 0.0248883 0.00385943 0.0192589 0.0038979 0.0277154 0.00437122 0.0252238 0.00300754 0.0379434
89 3 O -1.35756 84.6376 1.94989 -1.2 1 0.00340037 0.00506779 0.00111874 0.00872366 0.00158314 0.00634241 0.00130916 0.0208698 0.00200705 0.00937005 0.00238366 0.0255006 0.00298244 0.0182631 0.00375321 0.0276665 0.00373584 0.0255309 0.003943 0.0375139
90 3 O -1.12562 81.4058 0.383974 -1.2 1 0.00441969 0.00413205 0.0016688 0.00810879 0.00226665 0.00579462 0.00187946 0.0208044 0.00182139 0.00993949 0.00287126 0.0244196 0.0026968 0.0195332 0.00321919 0.0286048 0.00293852 0.0256736 0.00370221 0.037529
91 1 Mg -2.29511 90.476 3.17636 1.2 1 0.00101357 0.00555495 0.00137881 0.00910861 0.00116212 0.00652506 0.00166614 0.019747 0.00149243 0.0080654 0.00145255 0.0251334 0.00223126 0.0177514 0.00247433 0.0266731 0.00253367 0.0261003 0.00382359 0.037187
92 3 O -1.00959 81.4298 2.98 -1.2 1 0.00460024 0.00462637 0.00124463 0.00841814 0.00146002 0.00561843 0.0011108 0.0210784 0.00212977 0.00941769 0.00234723 0.0245268 0.00323178 0.0195176 0.00277994 0.0273087 0.00344243 0.0256912 0.00334644 0.0380999
93 1 Mg -2.0915 87.6681 4.75677 1.2 1 0.00324062 0.00611653 0.00144036 0.00899847 0.00127728 0.00582517 0.00121624 0.0191956 0.00126319 0.00837468 0.00196163 0.0253457 0.00250041 0.0176307 0.00284984 0.0281316 0.00298273 0.0251651 0.00357104 0.0378857
94 2 Si 0.401501 89.498 4.38747 2.4 1 0.00195643 0.00586127 0.00105872 0.00943906 0.00112171 0.00592778 0.00169689 0.0194076 0.001977 0.0079106 0.0018479 0.0249314 0.00187673 0.0174625 0.00370786 0.026384 0.00393638 0.0256363 0.00393234 0.0385481
95 3 O -1.15177 89.4492 4.46191 -1.2 1 0.00186825 0.0058916 0.00155247 0.00944029 0.00149537 0.00583466 0.00144998 0.018386 0.00240673 0.0078954 0.00140154 0.0249932 0.00291591 0.017067 0.00353284 0.0270153 0.00396635 0.0246121 0.00342567 0.0379907
96 3 O 1.39688 85.7179 4.63406 -1.2 1 0.00433008 0.00547179 0.00159433 0.00882409 0.00152596 0.00605305 0.00121948 0.0201844 0.00149517 0.0088688 0.00195209 0.0253286 0.00182258 0.0172071 0.00299968 0.0281507 0.00343504 0.0255963 0.00404792 0.0379663
97 3 O 1.05607 88.9564 2.97266 -1.2 1 0.00106073 0.00539093 0.0011807 0.00880299 0.00152279 0.00617293 0.001303 0.0198358 0.00142962 0.00792932 0.00188325 0.0245971 0.00249186 0.0184476 0.00291352 0.0269942 0.00324112 0.0254393 0.00411294 0.0379973
98 3 O 0.976612 88.5276 5.42665 -1.2 1 0.00347537 0.00603725 0.000988352 0.00888326 0.00126792 0.00573609 0.00175295 0.0190192 0.00151928 0.00818657 0.00186243 0.0247622 0.00217436 0.0175501 0.0033462 0.0277229 0.00295008 0.0254199 0.0036099 0.0380981
99 1 Mg 0.0512971 85.2267 3.19756 1.2 1 0.00339714 0.00536017 0.00122 0.00873687 0.00141134 0.00621528 0.00120758 0.0200113 0.0012735 0.0093549 0.00202258 0.0249101 0.00202041 0.0174037 0.00221372 0.0278619 0.00222883 0.0256532 0.00303618 0.0367001
100 1 Mg 0.0255378 82.3034 4.62147 1.2 1 0.00493944 0.00446817 0.00146704 0.00861174 0.00140209 0.00608675 0.00153617 0.0201179 0.00193262 0.00964304 0.00227867 0.0253866 0.00263145 0.0185055 0.0033046 0.0280373 0.00340493 0.0264961 0.00337501 0.0381046
101 2 Si 1.99861 84.2211 4.71166 2.4 1 0.00522763 0.00446821 0.00154861 0.00912901 0.00189201 0.00602551 0.00174774 0.0193945 0.00201633 0.00818624 0.00245325 0.0250915 0.00251901 0.0180156 0.00364576 0.0280834 0.00339286 0.025157 0.00402353 0.0385206
102 3 O -1.17479 84.4147 4.78681 -1.2 1 0.00517901 0.0048343 0.00165608 0.00925917 0.00169783 0.00603642 0.00148787 0.019274 0.00237462 0.00805277 0.00239077 0.0253516 0.00224435 0.017841 0.00248367 0.0286737 0.00353048 0.0256444 0.00386525 0.0378412
103 3 O 0.793259 80.1943 4.62482 -1.2 1 0.00471417 0.00385341 0.0014216 0.00875992 0.0013154 0.00634547 0.00150982 0.0213423 0.0018374 0.010344 0.00252275 0.025489 0.0027156 0.0190625 0.0040939 0.0273184 0.00377278 0.0265094 0.00296569 0.039596
104 3 O 1.24153 83.5639 3.56744 -1.2 1 0.00399151 0.00432155 0.0012986 0.0089249 0.00258107 0.00591839 0.00242403 0.0200402 0.00211301 0.00827116 0.00262447 0.0248213 0.00212599 0.0185368 0.0041359 0.0286722 0.00330383 0.0256215 0.0032783 0.0377655
105 1 Mg -0.159656 85.0035 0.185984 1.2 1 0.00267194 0.00516767 0.00137949 0.00836611 0.00134864 0.0062768 0.0013268 0.0203528 0.00180313 0.0100238 0.00271311 0.025967 0.0026659 0.0186822 0.00384058 0.0270828 0.00404844 0.0251523 0.00412082 0.0373177
106 3 O 1.46314 83.3235 5.93291 -1.2 1 0.00543782 0.00469094 0.00155548 0.00854651 0.00134704 0.00588519 0.00182212 0.0195452 0.00214127 0.00859096 0.00244506 0.0249675 0.00301615 0.0184889 0.00401988 0.0284788 0.00364552 0.0255043 0.00355147 0.0378774
107 1 Mg -0.249021 88.3475 1.37288 1.2 1 0.00171482 0.0055241 0.00116674 0.00866332 0.00122987 0.00622137 0.00125875 0.019564 0.00177282 0.00902535 0.00194406 0.0248377 0.00165504 0.0195293 0.00271272 0.0272889 0.00332542 0.0257652 0.00418567 0.0374803
108 2 Si -1.99753 86.1235 1.76796 2.4 1 0.00215123 0.00539392 0.00119965 0.00944429 0.0021522 0.00646403 0.00168652 0.0196834 0.00164941 0.00880618 0.0021979 0.0240684 0.00288903 0.0188453 0.00365712 0.0274671 0.00308347 0.0256026 0.00353439 0.0376484
109 3 O 1.24588 85.8095 1.55663 -1.2 1 0.0026038 0.00527484 0.00121981 0.00882668 0.00143317 0.00608228 0.00103147 0.0200355 0.00252565 0.0087558 0.00242872 0.0250962 0.00280776 0.0184721 0.00372564 0.028275 0.00450711 0.0253725 0.00448215 0.037993
110 3 O -1.07592 89.9627 1.33172 -1.2 1 0.00226135 0.00542479 0.00139744 0.00902406 0.0010098 0.00686419 0.00130935 0.0201452 0.00198821 0.00840255 0.00194949 0.0253219 0.00313332 0.0184941 0.00378246 0.0262952 0.00344075 0.0257945 0.00434734 0.03772
111 3 O -1.28745 86.7451 0.533511 -1.2 1 0.00184216 0.00522822 0.000989844 0.00853235 0.0017705 0.00591258 0.00153318 0.0195338 0.00194468 0.00900042 0.00163709 0.0250162 0.0026649 0.0197509 0.00361425 0.027529 0.00312928 0.0252426 0.00395126 0.0371168
112 3 O -1.40362 86.83 2.99263 -1.2 1 0.00192428 0.00570318 0.00138064 0.00881697 0.0019304 0.00566499 0.00171955 0.0197527 0.00181012 0.00854893 0.00235146 0.024176 0.00251511 0.0191089 0.0025029 0.0280532 0.00297722 0.0255626 0.00322536 0.0376917
113 1 Mg -2.28645 90.477 -0.156689 1.2 1 0.00293538 0.00515732 0.00158651 0.00834928 0.00119383 0.006735 0.00132393 0.0199739 0.00150705 0.00876941 0.00139979 0.0258299 0.00251998 0.018317 0.00252498 0.0265153 0.00270642 0.0250048 0.00487003 0.037296
114 1 Mg 2.57835 93.4204 1.59846 1.2 1 0.00387642 0.00419567 0.00249259 0.0079938 0.00181418 0.00563215 0.00205004 0.0211886 0.00238785 0.00870869 0.00246018 0.0259178 0.00319678 0.0186591 0.0037535 0.0267293 0.00387907 0.0264308 0.00701955 0.0394499
115 2 Si -0.210573 91.2917 1.32933 2.4 1 0.00297112 0.0048214 0.00177713 0.00959106 0.00199381 0.00675107 0.00192184 0.0196215 0.00226785 0.00807521 0.00281917 0.0244582 0.00382176 0.0186984 0.00428721 0.0253645 0.00431745 0.0253544 0.00519515 0.0389952
116 3 O 1.29378 91.438 1.56273 -1.2 1 0.00285346 0.00439865 0.00206793 0.00916564 0.00185662 0.00606412 0.00191203 0.0184891 0.00293962 0.00770596 0.00198605 0.0246792 0.00242409 0.0181283 0.0033724 0.0264431 0.00287187 0.0252951 0.00539971 0.0385452
117 3 O -1.22095 95.0069 1.51214 -1.2 1 0.00432709 0.00400874 0.00233969 0.00819 0.00169282 0.00613527 0.00135414 0.0209902 0.00135912 0.00910567 0.00194163 0.0259838 0.00293651 0.0181997 0.00413007 0.0267286 0.00317649 0.0260576 0.0068987 0.039836
118 3 O -0.893078 92.1116 0.137578 -1.2 1 0.00327592 0.00450422 0.00176375 0.00794047 0.00168498 0.00622826 0.00164529 0.0209159 0.00230462 0.00864043 0.00218172 0.0252919 0.00393326 0.0188647 0.00415665 0.0274209 0.00446363 0.0259173 0.00580364 0.0394044
119 1 Mg -2.09551 100.572 2.96191 1.2 1 0.00375116 0.00468997 0.00149389 0.00758332 0.00202437 0.00589249 0.00146619 0.0214123 0.00185354 0.0107199 0.00191222 0.0258506 0.00317819 0.018522 0.00416567 0.0277932 0.00463476 0.025322 0.00437852 0.0377623