ITEM: TIMESTEP
86700
ITEM: NUMBER OF ATOMS
5600
ITEM: BOX BOUNDS xy xz yz pp pp pp
0	7.1235	0
0	201.985	2.3745
0	119.584	0
ITEM: ATOMS id type element xu yu zu q Q_1 Q_2 Q_3 Q_4 Q_5 Q_6 Q_7 Q_8 Q_9 Q_10 Q_11 Q_12 Q_13 Q_14 Q_15 Q_16 Q_17 Q_18 Q_19 Q_20 Q_21
1 1 Mg -1.67539 48.2953 -0.91979 1.2 1 0.230859 0.0787071 0.0154508 0.0264386 0.00431063 0.0158436 0.00449856 0.0186481 0.00616611 0.0229809 0.00661779 0.0258527 0.00841982 0.0266337 0.00820081 0.0247947 0.00838623 0.0214982 0.00883214 0.025982
2 1 Mg 2.70431 50.6879 1.94901 1.2 1 0.16241 0.0663918 0.00581535 0.0187238 0.00222228 0.0120637 0.00470268 0.0189731 0.00636066 0.0200048 0.00634629 0.0269282 0.00636954 0.0241181 0.0070115 0.0234005 0.00645745 0.0195559 0.00735864 0.0285389
3 2 Si 0.757198 49.6648 0.260726 2.4 1 0.193142 0.0725807 0.00856103 0.0217338 0.00301133 0.0128935 0.00414793 0.0178968 0.00668107 0.0200799 0.00698407 0.0250986 0.0064237 0.0255527 0.00795042 0.0239388 0.00678698 0.0195602 0.00852648 0.0272382
4 3 O 2.10781 49.0132 0.738883 -1.2 1 0.206088 0.0780077 0.0107806 0.0245613 0.00347591 0.0154493 0.00491049 0.0193507 0.00733621 0.022565 0.00724442 0.0268787 0.00706694 0.0268784 0.00743301 0.0252556 0.00702079 0.020862 0.00756952 0.0272512
5 3 O -1.58176 52.7578 1.61261 -1.2 1 0.1205 0.0518695 0.00172467 0.0136553 0.00238417 0.0106576 0.0044063 0.0192653 0.00426421 0.0180956 0.00549911 0.0265524 0.00545592 0.0211181 0.00640164 0.0226774 0.00492667 0.0192636 0.00656368 0.0294667
6 3 O 0.327367 48.8263 -0.971176 -1.2 1 0.211594 0.0757235 0.0124463 0.0238131 0.00290638 0.0135471 0.00350386 0.0180208 0.0062373 0.0230949 0.00704282 0.0254147 0.00614135 0.0270375 0.00811738 0.0245341 0.00659759 0.0198931 0.00761646 0.0252173
7 1 Mg -2.05963 58.4742 3.26778 1.2 1 0.0199933 0.0142614 0.00623754 0.00647056 0.00117503 0.00643898 0.00148498 0.0204734 0.00278455 0.0115007 0.00323019 0.0263829 0.00409854 0.0184163 0.00719737 0.0263693 0.00590716 0.02248 0.00712011 0.0344715
8 3 O -0.24835 50.0545 1.29793 -1.2 1 0.175735 0.0703808 0.00631312 0.0198558 0.00297586 0.0137213 0.00467799 0.0194671 0.00592964 0.0204203 0.00660657 0.0261031 0.00618223 0.0251205 0.00668763 0.0243481 0.006338 0.0196047 0.00753996 0.0272673
9 1 Mg -2.18925 55.5425 4.69042 1.2 1 0.068533 0.033566 0.00548621 0.00887653 0.00228535 0.00608472 0.00246312 0.0195648 0.00317234 0.0143897 0.00313386 0.0261896 0.00302615 0.0200601 0.00617199 0.0239602 0.00443902 0.0210893 0.00635329 0.0326844
10 2 Si 0.544614 57.4171 4.55244 2.4 1 0.0281498 0.0178069 0.00725891 0.00703141 0.00138059 0.00576539 0.00234499 0.0192325 0.00269051 0.0105033 0.0036504 0.0260311 0.00388159 0.0194453 0.0072475 0.0260233 0.00540012 0.0223228 0.006964 0.0358223
11 3 O -0.941838 57.5002 4.6773 -1.2 1 0.0257392 0.0166835 0.00736123 0.00668297 0.00155778 0.00587398 0.00253179 0.0198587 0.00338242 0.0108862 0.0021575 0.0254856 0.00353745 0.0188584 0.00590891 0.026492 0.00596898 0.0223958 0.00649245 0.0354972
12 3 O 1.32962 53.4736 4.53501 -1.2 1 0.108066 0.0471908 0.0025936 0.0130258 0.00268048 0.00811941 0.0036143 0.0197155 0.00396629 0.0169762 0.00347663 0.0266944 0.00460123 0.021415 0.00557315 0.022456 0.00447245 0.0196565 0.00642984 0.0307307
13 3 O 1.10703 56.86 3.15789 -1.2 1 0.0403357 0.023779 0.00833011 0.00684667 0.00142078 0.00584701 0.00311191 0.0200015 0.0027314 0.0123909 0.00372322 0.0256641 0.00463288 0.019277 0.00827695 0.0253709 0.00551449 0.021601 0.00706139 0.0338293
14 3 O 1.31794 56.7781 5.75944 -1.2 1 0.0415131 0.0231943 0.00745842 0.00640343 0.00181226 0.00610873 0.0020213 0.0208322 0.00249376 0.012273 0.00264898 0.0257885 0.00323034 0.02035 0.00596901 0.026098 0.00535741 0.0225493 0.00620858 0.0344402
15 1 Mg -0.0390555 53.3056 3.09956 1.2 1 0.113292 0.0494932 0.0021698 0.0131156 0.00203437 0.00926471 0.00357777 0.0191393 0.00360041 0.0173796 0.00403357 0.0265739 0.00417108 0.0211817 0.0064325 0.0223445 0.00499263 0.0192441 0.00625952 0.0299039
16 1 Mg 0.466917 49.835 3.3037 1.2 1 0.195282 0.0745281 0.00967915 0.0236494 0.00208305 0.0147448 0.00365171 0.0200163 0.00548655 0.0215279 0.00570239 0.0282697 0.00631002 0.0262732 0.00684086 0.0240247 0.00695993 0.0207398 0.00856405 0.0278744
17 2 Si 1.95017 51.9485 4.55316 2.4 1 0.148944 0.059554 0.00339906 0.0172866 0.00215669 0.0103248 0.00357227 0.0200004 0.00384011 0.0188211 0.00488301 0.0271011 0.00637195 0.024364 0.0067569 0.0230713 0.00589077 0.0198522 0.0077089 0.0292309
18 3 O -1.2796 51.9526 4.60931 -1.2 1 0.144144 0.0578687 0.00326286 0.017011 0.00202551 0.0100573 0.0037193 0.0194697 0.00396709 0.0183035 0.00426962 0.02694 0.00626739 0.0234836 0.00563078 0.023026 0.00490369 0.0187589 0.00711556 0.0296052
19 3 O 2.41629 49.2933 3.59122 -1.2 1 0.203381 0.0755273 0.0119072 0.024865 0.00216827 0.0157827 0.00384714 0.0199495 0.00572598 0.0220163 0.00581907 0.0285111 0.00799154 0.0269496 0.00732443 0.0241988 0.00789944 0.0218599 0.00736176 0.0274569
20 3 O 1.2909 51.4905 3.32661 -1.2 1 0.147512 0.0594278 0.00414827 0.0173509 0.00195257 0.0113666 0.00447149 0.0195426 0.00388089 0.0190436 0.00448974 0.0268035 0.00633782 0.0228458 0.00742183 0.0228214 0.0062339 0.019669 0.00759547 0.0287574
21 1 Mg -0.124104 53.4443 -0.0449795 1.2 1 0.104462 0.0480801 0.00288642 0.0115589 0.00251652 0.00780872 0.00378227 0.0182898 0.0033637 0.0168761 0.00586356 0.0251551 0.00499994 0.0211149 0.00667648 0.0232894 0.0046471 0.0186285 0.0070549 0.029416
22 3 O 1.02473 51.3284 5.90475 -1.2 1 0.152043 0.0592853 0.00518376 0.0181299 0.00227899 0.010474 0.00315923 0.0206313 0.00443259 0.0187986 0.00403414 0.0272239 0.00670956 0.0246129 0.00568436 0.0232064 0.00506194 0.0200316 0.00698021 0.029487
23 1 Mg -0.191248 56.2679 1.57566 1.2 1 0.050334 0.0282346 0.00667166 0.00691297 0.0016202 0.00654052 0.00284854 0.0198395 0.00337074 0.0141775 0.00450127 0.0254236 0.00453726 0.0191526 0.00851292 0.0237981 0.00645962 0.0199822 0.00800673 0.0314466
24 2 Si -2.06318 54.2626 1.50869 2.4 1 0.0911666 0.0425601 0.00374553 0.00989195 0.00223563 0.00803559 0.00380759 0.0184261 0.00325954 0.0158826 0.00548387 0.0254331 0.00486364 0.0202586 0.00725397 0.0226328 0.00553121 0.0184038 0.00683154 0.029902
25 3 O 1.1178 54.2006 1.49352 -1.2 1 0.0956964 0.0433091 0.00268518 0.0106824 0.0024585 0.00849306 0.00397174 0.0181697 0.00339756 0.0154016 0.00550464 0.0253539 0.00478767 0.0195633 0.00817077 0.0228977 0.00579664 0.0187243 0.00744148 0.0300757
26 3 O -1.03502 58.0669 1.64471 -1.2 1 0.0216757 0.0157919 0.00703956 0.00699073 0.00119217 0.00628352 0.00188222 0.0210009 0.00288785 0.0116286 0.00355411 0.0256597 0.00433078 0.0185436 0.00842747 0.0258022 0.00612005 0.0218547 0.00815876 0.0343994
27 3 O -1.379 55.0377 0.226285 -1.2 1 0.0729825 0.0373745 0.0051524 0.00880173 0.00311116 0.00645 0.00369953 0.0188553 0.00318428 0.0147162 0.00484355 0.0242698 0.00394074 0.0203423 0.00688735 0.0233136 0.00579298 0.0199511 0.00687831 0.0309961
28 3 O -1.48338 54.9432 2.8258 -1.2 1 0.0776019 0.0369964 0.00408175 0.0088402 0.00174658 0.00713473 0.00286663 0.0189225 0.00323449 0.0153342 0.00425458 0.0251414 0.00349964 0.0202756 0.0070756 0.0229863 0.00556078 0.0196891 0.00665948 0.030506
29 1 Mg -2.43869 58.5182 0.131409 1.2 1 0.0176853 0.0135813 0.00574597 0.0070866 0.00102485 0.00667328 0.00186665 0.0206502 0.00259695 0.0124614 0.00380382 0.026327 0.00438217 0.0185314 0.00785112 0.0258058 0.00537158 0.0219605 0.00684662 0.0342354
30 1 Mg 2.17869 61.5094 1.7195 1.2 1 0.00802451 0.00629358 0.00227207 0.00803826 0.00141745 0.00597922 0.00170085 0.0206062 0.00222546 0.0101647 0.00314901 0.0262017 0.00360419 0.0186758 0.00628999 0.0280668 0.00500854 0.0236604 0.00659725 0.0366859
31 2 Si -0.30942 59.6354 1.68121 2.4 1 0.0118199 0.00896402 0.00411235 0.00834666 0.00133573 0.00603602 0.00184182 0.0199146 0.00245321 0.0101851 0.0032705 0.0250767 0.00392577 0.0185972 0.00745065 0.0272584 0.00560546 0.0227989 0.00684012 0.0356663
32 3 O 1.30524 59.6728 1.56701 -1.2 1 0.0113162 0.00852442 0.00375674 0.00840651 0.00198071 0.00580402 0.00174482 0.0199149 0.00323097 0.00975024 0.00287904 0.0256602 0.00422066 0.0178548 0.00719457 0.0273987 0.00529452 0.022677 0.00716671 0.0359688
33 3 O -1.43593 63.2972 1.34184 -1.2 1 0.00783276 0.00595297 0.00180566 0.00858103 0.00203272 0.0059939 0.000925569 0.0218092 0.00232143 0.00979704 0.00262297 0.025803 0.00322001 0.018255 0.00613462 0.0278471 0.00479982 0.0243017 0.00568479 0.0370158
34 3 O -0.913138 60.2565 0.334711 -1.2 1 0.0106772 0.00859614 0.00379655 0.00794929 0.00170447 0.00603213 0.00205432 0.0206518 0.00293645 0.00971115 0.00310101 0.0252149 0.0040321 0.0192654 0.00732891 0.027367 0.00602637 0.0229188 0.00722653 0.035701
35 1 Mg -2.42152 69.1357 3.10025 1.2 1 0.00375801 0.00431245 0.000757025 0.00801028 0.000362956 0.00652169 0.00113033 0.0207004 0.00152016 0.0096094 0.00132817 0.0250961 0.00215994 0.0185341 0.00300616 0.0282234 0.00315693 0.0249673 0.00283276 0.0375776
36 3 O -0.988315 60.329 2.85076 -1.2 1 0.00959122 0.00763805 0.00288082 0.007462 0.00105783 0.00617802 0.00138941 0.0209108 0.00236236 0.010155 0.0025098 0.0249436 0.00298328 0.0195238 0.00610837 0.027643 0.00489573 0.0234765 0.00597504 0.0359701
37 1 Mg -2.24011 66.1939 4.5505 1.2 1 0.00323328 0.00461615 0.00181553 0.00811011 0.00072955 0.00569797 0.00149291 0.0201259 0.00275058 0.00924726 0.0019309 0.0252706 0.00247519 0.018791 0.00321024 0.029217 0.0031887 0.0249485 0.00327573 0.0376938
38 2 Si 0.495428 67.9267 4.69095 2.4 1 0.00235527 0.00366659 0.00127051 0.00868307 0.00206334 0.00532275 0.00151744 0.0194468 0.00223867 0.00842264 0.00284699 0.0236716 0.0024206 0.0184687 0.00376568 0.0286253 0.00360335 0.0245002 0.0035324 0.0382709
39 3 O -1.077 68.0195 4.55447 -1.2 1 0.00226676 0.00343297 0.00130107 0.00879963 0.00138791 0.0054291 0.00142613 0.0190988 0.00290482 0.0082295 0.00131738 0.0241717 0.00241131 0.0177213 0.00332117 0.0283588 0.00346117 0.0241325 0.00352002 0.037999
40 3 O 1.46821 64.4115 4.48849 -1.2 1 0.00410966 0.00516715 0.00112698 0.00828802 0.00119295 0.00605145 0.00131363 0.0214471 0.0013972 0.00934117 0.00211869 0.02553 0.00253956 0.0185212 0.00321056 0.0288077 0.00259966 0.0249235 0.00268326 0.0378481
41 3 O 0.99908 67.5706 3.22091 -1.2 1 0.00366186 0.00443826 0.000722392 0.00814721 0.00154032 0.00585472 0.00199224 0.0207716 0.00205599 0.00871641 0.00258238 0.0244243 0.00226995 0.018556 0.00381066 0.0286533 0.00400187 0.0248442 0.00315782 0.0375875
42 3 O 1.11819 67.121 5.77579 -1.2 1 0.00128183 0.0039751 0.00198834 0.00806707 0.00222122 0.00553959 0.00155882 0.0201238 0.00231576 0.00871548 0.00141557 0.0237178 0.0021973 0.0186724 0.00364949 0.0292415 0.00323163 0.0245446 0.00357235 0.037251
43 1 Mg -0.15703 64.199 3.12031 1.2 1 0.00608832 0.00507237 0.00148999 0.00782458 0.00124983 0.00634544 0.00115577 0.0213048 0.00204745 0.00951071 0.0022714 0.0256663 0.00280689 0.0184951 0.00398191 0.0287466 0.00345841 0.025129 0.00354848 0.0370462
44 1 Mg 0.0570629 61.2335 4.72614 1.2 1 0.00680335 0.00616623 0.00134915 0.00786526 0.00168476 0.00628884 0.00141289 0.0203255 0.00249414 0.00973794 0.00294639 0.0256152 0.00235255 0.0191142 0.00465511 0.0288912 0.00397253 0.024193 0.00401448 0.0367378
45 2 Si 2.08434 62.8913 4.50703 2.4 1 0.00586121 0.00507989 0.00159001 0.00861804 0.00136894 0.00613904 0.00148806 0.0205855 0.00208399 0.00892263 0.00225327 0.0246879 0.00260996 0.0184151 0.00497446 0.0282781 0.0035523 0.0243637 0.00376915 0.0374048
46 3 O -1.09218 62.9175 4.7008 -1.2 1 0.00505078 0.00472168 0.00143895 0.00873711 0.000863565 0.00627329 0.00147945 0.019564 0.00265231 0.0089696 0.00237675 0.0249708 0.00245391 0.0181729 0.00319183 0.0287485 0.00329358 0.0246589 0.0029435 0.0372485
47 3 O 1.25136 58.9844 4.68924 -1.2 1 0.0157774 0.0112554 0.00467431 0.00674802 0.00120834 0.00635769 0.00255036 0.0201959 0.00199994 0.010804 0.00274875 0.0259165 0.00295061 0.0187369 0.00561502 0.0276637 0.00469089 0.0232787 0.00560325 0.0361697
48 3 O 1.53228 62.0241 3.36206 -1.2 1 0.00700925 0.00531623 0.00133228 0.00810456 0.00141475 0.00610379 0.00198582 0.0206976 0.00235682 0.0090517 0.00227143 0.024849 0.00299898 0.0185293 0.00588685 0.028778 0.00428301 0.0242319 0.00469445 0.036769
49 1 Mg -0.409218 64.0089 -0.383972 1.2 1 0.00633661 0.00618096 0.00194095 0.00850557 0.00213594 0.00590307 0.00146788 0.0213541 0.00167088 0.00978803 0.00264458 0.0261071 0.00378137 0.0182552 0.004465 0.0281941 0.00459986 0.0234824 0.0057615 0.0363328
50 3 O 1.33967 62.1495 5.71247 -1.2 1 0.00558482 0.00532348 0.00124412 0.00831863 0.00160436 0.00594771 0.00185091 0.0202906 0.00237771 0.0092298 0.00213884 0.0252606 0.0023296 0.0189684 0.00443857 0.0294243 0.00314825 0.0245322 0.00303716 0.037826
51 1 Mg 0.00580938 66.8591 1.47679 1.2 1 0.00452855 0.00509044 0.000645602 0.00819913 0.000931099 0.00592017 0.00147099 0.0212482 0.00165901 0.00891932 0.00301794 0.0258034 0.00280591 0.0188563 0.00391993 0.0293822 0.00368575 0.0248431 0.00379528 0.0381342
52 2 Si -2.25671 64.9493 1.31885 2.4 1 0.00567127 0.00525959 0.00152731 0.00866954 0.00185639 0.00544352 0.0015829 0.0210396 0.00202441 0.00811784 0.00248122 0.0244518 0.0032631 0.0191297 0.00481963 0.0291821 0.00448944 0.0246492 0.00523244 0.037424
53 3 O 1.00368 64.9265 1.52982 -1.2 1 0.00570394 0.00463038 0.00164977 0.00824327 0.0014028 0.00542549 0.00128886 0.0203879 0.0019994 0.00835412 0.00246137 0.0247883 0.00328535 0.0186528 0.00533704 0.0282999 0.00433803 0.0241568 0.00538678 0.0374634
54 3 O -1.03769 68.6325 1.66741 -1.2 1 0.00454892 0.0049547 0.00110146 0.00854832 0.000927455 0.00649366 0.00138994 0.0208688 0.00153317 0.00948838 0.00166303 0.0254605 0.00251632 0.0188139 0.0035758 0.0277294 0.00367121 0.0247681 0.00296786 0.0377716
55 3 O -1.65721 65.5426 0.0184711 -1.2 1 0.00599861 0.00562866 0.00163551 0.00867527 0.00202991 0.00563325 0.0018822 0.0211923 0.00188177 0.00885227 0.00235565 0.0248982 0.00373367 0.0194999 0.00428656 0.0284792 0.00465061 0.024136 0.00574983 0.0367208
56 3 O -1.51637 65.6979 2.5258 -1.2 1 0.00493827 0.00476597 0.00116283 0.00796019 0.000800405 0.00555445 0.0017252 0.0209126 0.00182746 0.00855233 0.00195969 0.0242783 0.00326762 0.0189965 0.00442806 0.0290031 0.00343257 0.0247906 0.00345465 0.0372834
57 1 Mg -2.42457 69.2505 0.295599 1.2 1 0.00523606 0.00549075 0.00173517 0.00816773 0.000908422 0.00644003 0.00118603 0.0208794 0.00167328 0.00944929 0.00152852 0.0261412 0.0025025 0.0185507 0.00345673 0.027879 0.00294724 0.0248893 0.00274413 0.0368777
58 1 Mg 2.57343 71.9575 1.83342 1.2 1 0.00511619 0.00583844 0.00104745 0.0075943 0.00114198 0.00654003 0.00132746 0.0211051 0.00277899 0.0103312 0.00243541 0.0255719 0.00350751 0.0201708 0.00330866 0.0289732 0.00297311 0.0256687 0.00430865 0.0380707
59 2 Si -0.333711 70.0364 1.84088 2.4 1 0.00453054 0.00505046 0.000974586 0.0086296 0.00135283 0.00617634 0.00183225 0.0205153 0.00175029 0.00886918 0.00151472 0.024365 0.00269447 0.0191243 0.00321506 0.0274554 0.00339937 0.0245416 0.00294744 0.0379516
60 3 O 1.22248 69.9912 1.59088 -1.2 1 0.00485 0.00509307 0.00117454 0.00842411 0.00137297 0.00603058 0.00152952 0.0197378 0.00229669 0.00875792 0.00155833 0.0251762 0.00301228 0.0184631 0.00329159 0.0284021 0.00308745 0.0242101 0.00332734 0.0377471
61 3 O -1.50432 73.6521 1.78964 -1.2 1 0.00485428 0.00565762 0.000966753 0.0076985 0.00129103 0.00670487 0.00127449 0.0214194 0.00161328 0.010313 0.00232381 0.0251257 0.00294346 0.0194262 0.00332542 0.0270439 0.00287948 0.0245713 0.00439113 0.0377544
62 3 O -1.00052 70.9087 0.467433 -1.2 1 0.0048555 0.00571626 0.00127423 0.00787038 0.00106624 0.00644839 0.00162466 0.0210794 0.00169993 0.00891878 0.00154024 0.0249012 0.00245523 0.0197108 0.00345276 0.0288032 0.0023471 0.0255524 0.00294533 0.0377643
63 1 Mg -2.54373 79.5847 3.15335 1.2 1 0.00478382 0.00463751 0.00188689 0.00740251 0.00157491 0.00604837 0.00170965 0.0214754 0.00237166 0.00954708 0.00219376 0.0263412 0.00351298 0.0184158 0.00443267 0.0271717 0.00459793 0.0223157 0.00589579 0.03864
64 3 O -0.7059 70.6945 3.05721 -1.2 1 0.004016 0.00484749 0.000931951 0.00762692 0.000878905 0.00631886 0.000641057 0.0203892 0.00189406 0.00950193 0.00143269 0.0245227 0.00264212 0.0193695 0.00240129 0.0284265 0.00244636 0.0241722 0.00308546 0.0378305
65 1 Mg -2.34704 76.7167 4.74791 1.2 1 0.00488551 0.00493058 0.00212997 0.00702999 0.00209052 0.00623901 0.00155628 0.0200115 0.0020742 0.00990958 0.00320618 0.0250929 0.0036166 0.0196783 0.00506448 0.0276568 0.00551358 0.0236607 0.00612851 0.0388083
66 2 Si 0.287408 78.3062 4.79289 2.4 1 0.00551437 0.00419909 0.00238867 0.00788285 0.00226587 0.0054923 0.00263353 0.0199651 0.00188811 0.00898663 0.0019736 0.0250831 0.00345909 0.0193398 0.0044636 0.0276485 0.00445021 0.0226638 0.00522211 0.039978
67 3 O -1.26483 78.4387 4.82352 -1.2 1 0.00621148 0.00447684 0.00265015 0.00731624 0.00257825 0.00548624 0.00200991 0.0198861 0.00281856 0.00865891 0.00254187 0.0253074 0.00344072 0.0190971 0.00580562 0.0271423 0.00532397 0.022269 0.00702306 0.0390855
68 3 O 1.218 74.3665 4.71988 -1.2 1 0.00339412 0.00478735 0.00143002 0.00768619 0.00150459 0.00639843 0.00128021 0.0200664 0.00156954 0.00998581 0.00206738 0.0250283 0.00295509 0.0189251 0.00395556 0.0274565 0.00314911 0.023365 0.00537376 0.0384359
69 3 O 0.847984 77.5535 3.66039 -1.2 1 0.00564967 0.00468018 0.00145105 0.00765095 0.00243321 0.00604398 0.001898 0.0202839 0.00160734 0.00911996 0.00212344 0.0249619 0.00382531 0.0192685 0.00483748 0.0279623 0.00468849 0.0230897 0.00628731 0.0390166
70 3 O 1.0881 77.8256 6.16716 -1.2 1 0.00450316 0.00503238 0.00229316 0.00700423 0.00195182 0.00551558 0.00213622 0.0203001 0.00134425 0.00959193 0.00197857 0.0248013 0.00272286 0.0196832 0.00358435 0.0277454 0.00440383 0.0227623 0.00464858 0.0398749
71 1 Mg -0.315723 74.3486 3.39171 1.2 1 0.00436935 0.00575061 0.00145907 0.00706823 0.00177996 0.00652458 0.0010614 0.0206131 0.00199635 0.0100065 0.00181913 0.02553 0.00331196 0.0190141 0.00389017 0.0272488 0.00306714 0.0235238 0.0056034 0.037467
72 1 Mg -0.0684052 71.379 4.75864 1.2 1 0.00222651 0.00388281 0.00074855 0.00710498 0.00130918 0.00621928 0.000947127 0.0197985 0.0018095 0.0100434 0.00213059 0.0250469 0.00301956 0.0188899 0.00383546 0.028843 0.00290949 0.0237033 0.00444664 0.0375168
73 2 Si 2.05089 72.9361 4.62239 2.4 1 0.00276638 0.00443089 0.00106623 0.00732308 0.00217799 0.00607626 0.00165799 0.0193799 0.00120676 0.00921807 0.00189149 0.024022 0.00305723 0.0190721 0.0040883 0.0281532 0.00299493 0.0231581 0.00446422 0.0377847
74 3 O -1.15511 73.0562 4.66773 -1.2 1 0.00299363 0.00424726 0.00124088 0.00737579 0.0019227 0.00599381 0.00178387 0.0191042 0.00225309 0.00923343 0.00244841 0.0245606 0.00339431 0.0194609 0.00389312 0.028415 0.00331542 0.0224829 0.00513821 0.0375704
75 3 O 1.16211 69.4514 4.88339 -1.2 1 0.00141632 0.0032179 0.000849207 0.00796034 0.00120142 0.00661146 0.000771918 0.0205851 0.00159964 0.0100513 0.00143599 0.0248409 0.0021161 0.0180217 0.00313588 0.0276734 0.00299284 0.0246514 0.00327341 0.0377774
76 3 O 1.4211 72.2183 3.43609 -1.2 1 0.00395105 0.00475714 0.00126429 0.0071549 0.00143865 0.00637563 0.00118335 0.0201072 0.00154915 0.00935308 0.00176011 0.0238426 0.00309746 0.0200472 0.00315862 0.0286661 0.00264381 0.0241491 0.00441837 0.0378667
77 1 Mg -0.287959 74.3141 0.10111 1.2 1 0.00599387 0.00576001 0.00151748 0.00787528 0.00154475 0.00706987 0.000825686 0.021262 0.00136472 0.00988156 0.00163113 0.0262069 0.0031796 0.018901 0.0036485 0.027198 0.00275002 0.0252096 0.00411313 0.0377663
78 3 O 1.42719 72.1731 5.96379 -1.2 1 0.00138932 0.00373637 0.00117918 0.007115 0.00140371 0.00589968 0.000977629 0.0192037 0.00168531 0.00925245 0.00163514 0.0237355 0.00306795 0.018786 0.00433262 0.0281573 0.0031277 0.0227449 0.00448336 0.0371567
79 1 Mg -0.130389 77.0723 1.78427 1.2 1 0.00519818 0.00480406 0.00171867 0.00779208 0.00180876 0.00671237 0.00154648 0.0207232 0.00320079 0.00951804 0.00218195 0.0261956 0.00388991 0.0192176 0.00476355 0.0273134 0.00484798 0.0233387 0.00579992 0.0381199
80 2 Si -2.29829 75.2766 1.73559 2.4 1 0.00559358 0.00541996 0.00157673 0.00800073 0.00176981 0.00647398 0.00143226 0.0207466 0.00223979 0.00915863 0.00221322 0.0242169 0.00387539 0.0192459 0.00458227 0.0265919 0.00414695 0.0240131 0.00524918 0.0385156
81 3 O 0.790154 75.3621 1.69444 -1.2 1 0.0055256 0.00511209 0.00172009 0.00785326 0.00158192 0.00652566 0.00134822 0.0196409 0.00233373 0.00938852 0.00197543 0.0251673 0.00387982 0.0189163 0.00386212 0.0270831 0.00349588 0.0238354 0.00468785 0.0379237
82 3 O -1.07865 78.8962 1.86613 -1.2 1 0.00352824 0.00497129 0.00212454 0.00782502 0.00171936 0.00610498 0.00101512 0.0215403 0.00219661 0.010008 0.00293892 0.0264117 0.00337584 0.0186074 0.00400411 0.026716 0.0046299 0.0227028 0.00517894 0.0374494
83 3 O -1.69737 75.8433 0.488328 -1.2 1 0.00512516 0.0050084 0.00168195 0.00771294 0.0011342 0.0067267 0.00171558 0.0210536 0.00168906 0.00944371 0.00198278 0.0248331 0.00392977 0.0194156 0.00446917 0.0275949 0.00363219 0.0249164 0.00454437 0.0380829
84 3 O -1.56126 76.1592 2.88724 -1.2 1 0.0054191 0.00503377 0.00133548 0.0073205 0.00225822 0.00635122 0.00136005 0.0206049 0.0022639 0.00928624 0.00194218 0.0245423 0.00361564 0.0190983 0.00494664 0.0270305 0.00466818 0.0232873 0.00587459 0.0376793
85 1 Mg -2.4731 79.2261 0.0929715 1.2 1 0.00219289 0.00475477 0.00221039 0.00765943 0.0015628 0.00633624 0.00131668 0.0217918 0.00176378 0.00968488 0.00215335 0.0260912 0.00379141 0.0188261 0.00499068 0.0276038 0.00493983 0.0238352 0.00494407 0.0374127
86 1 Mg 1.87905 82.3905 1.69581 1.2 1 0.00138581 0.00549657 0.00184477 0.00653597 0.00171942 0.00586869 0.001567 0.0215692 0.00284768 0.010058 0.00231575 0.0271715 0.00409983 0.0188896 0.00549492 0.0277152 0.00518748 0.0221914 0.00597754 0.0375579
87 2 Si -0.600038 80.4329 1.74403 2.4 1 0.00240574 0.00528642 0.00244949 0.00815235 0.00159047 0.00530027 0.00168794 0.0208462 0.00283451 0.00897071 0.0040775 0.0261663 0.00333732 0.0190009 0.00614919 0.0272551 0.00568918 0.0225965 0.00606969 0.0383046
88 3 O 0.982919 80.4014 1.46193 -1.2 1 0.00209435 0.0052187 0.00251333 0.00790097 0.00136586 0.00570235 0.0016141 0.021234 0.00222461 0.00886849 0.00257816 0.0262487 0.00387662 0.018341 0.00494123 0.0274148 0.00550392 0.02306 0.00576505 0.0388581
89 3 O -1.37774 84.3714 1.63489 -1.2 1 0.00407444 0.00483374 0.00131177 0.0067406 0.0014285 0.00569515 0.00191677 0.0203917 0.0021703 0.0098272 0.0026234 0.0266493 0.00302478 0.0183174 0.00414779 0.0273843 0.00441868 0.0204634 0.004769 0.0361658
90 3 O -1.35949 80.971 0.600834 -1.2 1 0.00130366 0.00522071 0.00210971 0.00737845 0.0014511 0.00580759 0.00221683 0.022077 0.00271107 0.00893999 0.00306014 0.0261867 0.00354438 0.0198596 0.00527983 0.0288851 0.00531921 0.0234778 0.00489233 0.0376045
91 1 Mg -2.36511 90.499 2.87936 1.2 1 0.00779371 0.0065092 0.00148037 0.00665545 0.00178551 0.00547644 0.00163438 0.0191296 0.00226288 0.0105633 0.00237592 0.0255961 0.00241201 0.0192806 0.00312396 0.0284021 0.00286717 0.0213712 0.00374255 0.0351801
92 3 O -1.06809 81.0413 3.15179 -1.2 1 0.00361178 0.00478281 0.00238816 0.00715989 0.00194926 0.00549932 0.00138943 0.0215409 0.00221845 0.00915111 0.00334498 0.0259031 0.00350632 0.019471 0.00465756 0.0281614 0.00508447 0.0223611 0.00554177 0.0391826
93 1 Mg -2.52998 87.1114 4.50829 1.2 1 0.00528086 0.00742051 0.00148571 0.00682776 0.00156932 0.00532722 0.00134584 0.0204682 0.00242965 0.0109352 0.00248123 0.0263434 0.00269961 0.0191945 0.00371928 0.0279289 0.00383396 0.0217458 0.00461113 0.0362413
94 2 Si 0.389686 89.194 4.4654 2.4 1 0.00747505 0.00701159 0.0008542 0.0075059 0.00203445 0.00538225 0.00145965 0.019054 0.00203591 0.0107566 0.0024118 0.025389 0.00384436 0.0199317 0.00496777 0.0281379 0.00450496 0.0214862 0.00524826 0.0355726
95 3 O -1.20898 89.1374 4.30628 -1.2 1 0.00736155 0.00695306 0.00109389 0.00701811 0.00173275 0.00524824 0.00158316 0.0188362 0.00287616 0.0107515 0.00217751 0.0261462 0.00329991 0.0195316 0.00404407 0.028072 0.00458193 0.0207826 0.00527804 0.0354489
96 3 O 1.14837 85.002 4.7361 -1.2 1 0.00353121 0.0060958 0.00108703 0.00718543 0.00132205 0.00545143 0.00121631 0.020605 0.0021918 0.00970042 0.00218063 0.0267196 0.00246303 0.0180864 0.00392992 0.0285045 0.00373097 0.0209463 0.00490784 0.0377134
97 3 O 1.02775 88.3868 3.12486 -1.2 1 0.0069068 0.00632238 0.00103895 0.00656864 0.0014309 0.00559515 0.00150786 0.0198647 0.00226867 0.0104431 0.002229 0.0257568 0.00276481 0.0196177 0.00375699 0.0285807 0.00380289 0.0210179 0.00414898 0.0355986
98 3 O 1.00417 88.6485 5.68628 -1.2 1 0.00629936 0.00740794 0.000883933 0.00714836 0.00188732 0.00561677 0.00193889 0.0201403 0.00224698 0.0106873 0.00224608 0.0256894 0.00333759 0.0200042 0.00404926 0.0282386 0.00389955 0.0222736 0.00461832 0.0358354
99 1 Mg -0.0670089 84.9973 3.23725 1.2 1 0.00312873 0.00524715 0.00136786 0.0063775 0.00160323 0.00559628 0.00136163 0.0211065 0.0021934 0.0100092 0.00214876 0.0270359 0.00262931 0.0182523 0.00375254 0.0275533 0.00440682 0.0205233 0.00486771 0.0363001
100 1 Mg -0.262073 81.7459 4.8834 1.2 1 0.00508319 0.00470314 0.00152426 0.00683858 0.00140658 0.00536017 0.00164792 0.021632 0.00196405 0.00934611 0.00287426 0.0265779 0.00293604 0.0192484 0.00323676 0.0282506 0.00392121 0.0224694 0.0051637 0.0396161
101 2 Si 1.85455 83.634 4.71192 2.4 1 0.00402403 0.00531731 0.0011704 0.00722271 0.00175149 0.00508259 0.00199053 0.02127 0.00251994 0.0092421 0.00230761 0.0259778 0.00302538 0.0194363 0.00395855 0.0285397 0.00377729 0.0216962 0.00505287 0.0391559
102 3 O -1.3694 83.6915 4.73957 -1.2 1 0.00444006 0.00534369 0.00158473 0.00697169 0.00150452 0.00481581 0.00150486 0.0209289 0.00234925 0.00894203 0.00184736 0.0258081 0.00277415 0.0187159 0.00461797 0.0285692 0.00457067 0.021463 0.0056894 0.038898
103 3 O 0.973093 79.796 4.60796 -1.2 1 0.00579352 0.00422503 0.0019426 0.00736106 0.00194794 0.00570416 0.001957 0.0208981 0.00197029 0.00912844 0.00200604 0.0263363 0.00360879 0.0187548 0.00529087 0.0271815 0.00455526 0.0217187 0.00619988 0.0393034
104 3 O 1.26675 82.9532 3.39147 -1.2 1 0.0023134 0.00513955 0.00123544 0.00632154 0.00150061 0.00553211 0.00233064 0.0216751 0.00190672 0.00950827 0.00199932 0.0264509 0.00309401 0.019389 0.00395121 0.0276769 0.00430215 0.0213066 0.00498818 0.0380589
105 1 Mg -0.0515221 84.7761 0.321944 1.2 1 0.00513687 0.00448337 0.0012981 0.00645907 0.0016352 0.00579928 0.00173447 0.0201032 0.0024783 0.00988249 0.002588 0.0265883 0.00309851 0.0184524 0.00434131 0.0273976 0.00464766 0.0206704 0.00520253 0.0354053
106 3 O 1.06497 82.9058 6.09027 -1.2 1 0.0053379 0.00526233 0.001241 0.00626797 0.00114339 0.00534321 0.00156179 0.0213026 0.00220154 0.00913612 0.0021619 0.025976 0.00285739 0.0196134 0.00378369 0.0291437 0.00338647 0.0227937 0.00474202 0.0401106
107 1 Mg 0.20298 87.4861 1.45208 1.2 1 0.00661716 0.00436193 0.00170152 0.00598003 0.00150227 0.00548038 0.00231642 0.0191574 0.00259321 0.00991783 0.0021904 0.0259356 0.00235818 0.0194823 0.00315978 0.0278685 0.0039299 0.0199444 0.00371321 0.0353392
108 2 Si -2.13132 85.823 1.59862 2.4 1 0.00574241 0.00429369 0.00133848 0.00673886 0.00198489 0.00507583 0.00245135 0.019138 0.002258 0.00956004 0.00301326 0.0255661 0.00276478 0.0187374 0.00480447 0.0277905 0.00446691 0.0195648 0.00535774 0.0357927
109 3 O 1.13771 85.8368 1.61428 -1.2 1 0.00576496 0.00431678 0.00143519 0.00674626 0.00195332 0.00519168 0.00218255 0.0195403 0.00267397 0.00950104 0.00259839 0.0260489 0.00243013 0.0185755 0.00324401 0.0278573 0.00403134 0.0202025 0.00426314 0.0357227
110 3 O -0.960652 89.9378 1.49454 -1.2 1 0.0065112 0.00545265 0.00149637 0.00630042 0.00187911 0.00536787 0.00168065 0.0187557 0.00183343 0.00994001 0.00260823 0.0256066 0.0027976 0.0191657 0.00330016 0.0280242 0.00361038 0.0205186 0.00357911 0.0356014
111 3 O -1.47738 86.5249 0.50897 -1.2 1 0.00629299 0.0039788 0.00123727 0.00588662 0.00170547 0.00523939 0.00261819 0.0193028 0.00220763 0.00958965 0.00273165 0.0250732 0.00286264 0.0193028 0.00428585 0.0278102 0.00429905 0.0198732 0.0046951 0.0357114
112 3 O -1.49487 86.4636 3.005 -1.2 1 0.00615438 0.00566887 0.00170001 0.00675219 0.00196705 0.00525736 0.00227067 0.0197797 0.00229581 0.0097242 0.00254744 0.0259006 0.0026101 0.0190223 0.00378104 0.0278205 0.00379311 0.0204958 0.00460971 0.0358719
113 1 Mg -2.36647 90.0295 0.193054 1.2 1 0.00483557 0.00522693 0.00133135 0.00538026 0.00156266 0.0052355 0.00114943 0.0184952 0.00186276 0.0100651 0.00226817 0.0259992 0.00232721 0.0194084 0.00270499 0.0270349 0.00291472 0.0193546 0.00340127 0.0353049
114 1 Mg 2.57233 93.3382 1.75609 1.2 1 0.00687453 0.00700972 0.0015606 0.00668921 0.00216323 0.0060117 0.00189698 0.0191583 0.00236714 0.0107526 0.0027203 0.0248677 0.00343653 0.0198193 0.00415738 0.027701 0.00362782 0.022324 0.00380974 0.0363548
115 2 Si -0.291697 91.3415 1.48513 2.4 1 0.00627352 0.00582965 0.00144976 0.00663876 0.00165903 0.00465592 0.00163981 0.0178299 0.00194886 0.00937454 0.00272696 0.0241624 0.00302566 0.0196071 0.0031364 0.0275628 0.00333883 0.021049 0.00426239 0.0362193
116 3 O 1.30356 91.2897 1.27381 -1.2 1 0.00642102 0.00601362 0.00171085 0.00652457 0.00154088 0.00499496 0.00205907 0.0181142 0.00235435 0.00999896 0.00240716 0.024529 0.0031471 0.0197296 0.00305295 0.0277422 0.00393524 0.0205367 0.0042107 0.036095
117 3 O -1.36257 95.0283 1.71423 -1.2 1 0.00693865 0.00645546 0.00136171 0.00743378 0.00220932 0.0058095 0.00137308 0.0197756 0.00196365 0.0105855 0.00281867 0.0249612 0.00309994 0.0193973 0.00325505 0.0267595 0.00433492 0.0226132 0.00462041 0.0373845
118 3 O -0.983395 91.945 0.324588 -1.2 1 0.00410632 0.00621549 0.00127279 0.00557814 0.0014757 0.0050428 0.00108487 0.0189672 0.0020485 0.00974066 0.00255713 0.0246686 0.00258767 0.0195838 0.00266343 0.0274016 0.00323952 0.0206994 0.00306574 0.0357301
119 1 Mg -2.31102 100.85 3.02931 1.2 1 0.00687841 0.00685268 0.0014792 0.00887944 0.00135827 0.00651681 0.00146626 0.0209413 0.00237103 0.0125702 0.00156961 0.0253613 0.00274189 0.0193135 0.00333492 0.0257758 0.00466847 0.0235962 0.00341355 0.0362779