ITEM: TIMESTEP
58200
ITEM: NUMBER OF ATOMS
5600
ITEM: BOX BOUNDS xy xz yz pp pp pp
0	7.1235	0
0	201.985	2.3745
0	119.584	0
ITEM: ATOMS id type element xu yu zu q Q_1 Q_2 Q_3 Q_4 Q_5 Q_6 Q_7 Q_8 Q_9 Q_10 Q_11 Q_12 Q_13 Q_14 Q_15 Q_16 Q_17 Q_18 Q_19 Q_20 Q_21
1 1 Mg -1.85838 48.444 -0.676948 1.2 1 0.235146 0.0840959 0.0196743 0.0277702 0.00516754 0.0169893 0.00439767 0.0212487 0.00484944 0.02444 0.00715421 0.0285303 0.0097978 0.0294355 0.00853627 0.0253123 0.0105948 0.0242752 0.00947213 0.0293552
2 1 Mg 2.82087 50.0602 2.49093 1.2 1 0.192756 0.0711278 0.01143 0.0206579 0.00281058 0.0114118 0.00302122 0.0188823 0.0052554 0.020065 0.00551355 0.0231094 0.0056863 0.0247502 0.00606938 0.023874 0.00897013 0.0222772 0.00814685 0.0272579
3 2 Si 0.832275 50.1095 0.800332 2.4 1 0.196833 0.0739564 0.0124358 0.0223465 0.00408505 0.0120763 0.00342373 0.0188274 0.00494801 0.0207959 0.0056185 0.0250833 0.00655694 0.0263849 0.00573974 0.0243795 0.0093277 0.022405 0.00867369 0.0283254
4 3 O 2.0161 49.0863 0.9541 -1.2 1 0.217468 0.077567 0.0160645 0.0243248 0.00485417 0.0138856 0.00454279 0.0197856 0.00562791 0.0217897 0.00689484 0.0244714 0.00759581 0.0273384 0.00744728 0.0242387 0.0114901 0.022888 0.0100009 0.0270606
5 3 O -1.00624 52.8577 2.10055 -1.2 1 0.128877 0.0533696 0.00337815 0.0148096 0.00270519 0.00985361 0.0027053 0.0176129 0.00327556 0.0159078 0.00292679 0.0235261 0.004981 0.02076 0.00353424 0.0249241 0.00700761 0.0210574 0.00613744 0.0297937
6 3 O -0.085182 49.4657 -0.548012 -1.2 1 0.209545 0.0766771 0.0147985 0.0235794 0.00481417 0.014503 0.00439276 0.019969 0.00444192 0.0223043 0.00610558 0.0263052 0.00719923 0.0276149 0.00690874 0.0246193 0.00974746 0.0220549 0.00870263 0.0289012
7 1 Mg -1.99667 58.5927 3.69641 1.2 1 0.0147266 0.0136138 0.00565184 0.0070207 0.00142125 0.00707946 0.00207443 0.0195057 0.00324476 0.0104938 0.00258315 0.0251474 0.00392554 0.0183104 0.00411773 0.0288877 0.00464573 0.0225005 0.00457827 0.035988
8 3 O 0.0378771 50.0435 2.0185 -1.2 1 0.191402 0.0718051 0.0114876 0.0209313 0.00262332 0.0119822 0.00317308 0.0194864 0.00439639 0.0202343 0.00570913 0.02373 0.0056975 0.0251065 0.00569556 0.0240535 0.00898657 0.0223087 0.00815372 0.027502
9 1 Mg -1.79496 56.0486 4.90643 1.2 1 0.0638383 0.0328724 0.00478109 0.00970282 0.00182143 0.00672552 0.00237967 0.0173134 0.00255488 0.0131911 0.00255684 0.0239131 0.00368066 0.0181333 0.00375516 0.026761 0.003944 0.0218473 0.00483063 0.0326251
10 2 Si 0.611068 57.7469 5.28675 2.4 1 0.026455 0.0187219 0.00711804 0.00813439 0.00158333 0.00655724 0.00275667 0.0183307 0.00260704 0.00979088 0.00401806 0.0237976 0.00379109 0.0178538 0.00632034 0.028325 0.00489923 0.0226072 0.0053734 0.0351069
11 3 O -0.967731 57.9063 5.30231 -1.2 1 0.0224724 0.0166224 0.00700751 0.00786056 0.0011993 0.00673449 0.00226048 0.0182755 0.00283475 0.0101017 0.00344787 0.0245539 0.00451407 0.017547 0.00441778 0.0283458 0.00563545 0.0219994 0.00542602 0.0359417
12 3 O 1.6282 53.4553 5.05252 -1.2 1 0.12045 0.0502931 0.00250433 0.0145607 0.00180081 0.00877551 0.00336095 0.0171675 0.00229122 0.0152697 0.00358749 0.0229631 0.00316599 0.0195563 0.00424882 0.0239795 0.0043971 0.0200738 0.00588041 0.0301668
13 3 O 1.40925 57.0199 4.03266 -1.2 1 0.0347932 0.02423 0.00734982 0.00770283 0.00169352 0.00671924 0.00203044 0.0186094 0.00325168 0.0110728 0.00310261 0.0245429 0.00357645 0.0187679 0.00407791 0.0282016 0.00381048 0.0219798 0.00464274 0.0341674
14 3 O 1.32689 57.2345 6.55997 -1.2 1 0.0334932 0.0216462 0.00748891 0.00718903 0.00140147 0.00637228 0.0027264 0.0185317 0.00281347 0.0105101 0.00376595 0.0232442 0.00420164 0.0175549 0.00677573 0.0270934 0.00534987 0.0223441 0.0054023 0.0341092
15 1 Mg 0.604796 52.7667 3.19855 1.2 1 0.131641 0.0550443 0.00277043 0.0159339 0.0020054 0.0103389 0.00232711 0.0179244 0.00351751 0.0166717 0.00328794 0.0235002 0.00412895 0.0202554 0.00388251 0.0239862 0.00480431 0.0211429 0.00563864 0.0292922
16 1 Mg 0.62508 48.9526 3.67477 1.2 1 0.219457 0.0762008 0.0168402 0.0242361 0.00314229 0.0136676 0.00408594 0.0195163 0.004816 0.0208058 0.00433916 0.0233054 0.00690998 0.0259945 0.00681856 0.0229686 0.00928976 0.0232284 0.00870582 0.0273168
17 2 Si 2.48417 52.0982 4.98633 2.4 1 0.15092 0.0593496 0.00538406 0.0172912 0.00259097 0.00998956 0.00333584 0.0173702 0.00296981 0.0169873 0.00397579 0.0224409 0.00429477 0.0206869 0.00530412 0.0234675 0.0046546 0.0201973 0.0061168 0.0289331
18 3 O -0.814831 52.6199 4.8441 -1.2 1 0.135003 0.0552616 0.00325979 0.0152075 0.00222268 0.00879565 0.00297587 0.0175515 0.00340157 0.0165349 0.00304825 0.023634 0.0046667 0.0214546 0.00478587 0.0238157 0.00561349 0.0206627 0.00507079 0.0297419
19 3 O 2.50367 48.6546 3.88583 -1.2 1 0.225322 0.0786518 0.0165823 0.0252613 0.0036663 0.014292 0.00428995 0.0191258 0.00431796 0.0215335 0.00550984 0.022982 0.00750504 0.0251955 0.00780929 0.0228223 0.00949099 0.0226386 0.00873161 0.027243
20 3 O 1.92058 51.3886 3.65711 -1.2 1 0.160667 0.0616551 0.00697599 0.0170368 0.00332389 0.0102841 0.00377002 0.0180267 0.0029315 0.0176748 0.00339226 0.0231804 0.004817 0.0222618 0.00516639 0.0237852 0.00553881 0.021012 0.00626556 0.0285069
21 1 Mg 0.212531 53.2787 0.641071 1.2 1 0.11898 0.0525664 0.00252993 0.0148787 0.00200316 0.00993751 0.00219735 0.0179182 0.0035983 0.0168718 0.00329762 0.0252173 0.0045702 0.0206037 0.003972 0.0253243 0.00627675 0.0213426 0.00562633 0.0300817
22 3 O 1.984 51.1221 6.16036 -1.2 1 0.170124 0.0655295 0.00735313 0.0190675 0.00303052 0.0103937 0.00307811 0.0183432 0.00355107 0.0187323 0.00412841 0.0229019 0.00453578 0.0226383 0.00549065 0.0229767 0.00564377 0.0199074 0.00686395 0.0281354
23 1 Mg 0.524778 56.3414 2.25331 1.2 1 0.0440055 0.0290063 0.00703665 0.00812114 0.00172968 0.00747085 0.00139441 0.0178393 0.00449734 0.012118 0.00303393 0.0246375 0.0041149 0.0188214 0.00378324 0.0266982 0.00556606 0.0215185 0.0042712 0.0329043
24 2 Si -1.70516 54.2969 2.14521 2.4 1 0.0967167 0.0451909 0.0015369 0.0117217 0.00199518 0.0082238 0.00170881 0.0173154 0.00435106 0.0143677 0.00363572 0.0236752 0.00400756 0.0203923 0.00428791 0.0251567 0.00662064 0.0210879 0.00493937 0.0309573
25 3 O 1.4669 54.06 1.96174 -1.2 1 0.101046 0.0458976 0.00100583 0.0123518 0.00172067 0.00848498 0.001703 0.0169992 0.00376696 0.0151733 0.00344113 0.0236028 0.00467645 0.0194598 0.00408561 0.0254014 0.00607978 0.0211586 0.00580634 0.0302739
26 3 O -0.700268 58.1952 2.2747 -1.2 1 0.0157253 0.0155132 0.00656806 0.00696949 0.00142508 0.00665578 0.00174207 0.0194544 0.00358111 0.0108087 0.00293299 0.0253087 0.00418234 0.0190801 0.00447626 0.0289594 0.00530984 0.0220962 0.0047782 0.0360299
27 3 O -0.993233 54.825 0.776384 -1.2 1 0.0816581 0.0418183 0.00254409 0.0107569 0.0022362 0.00852505 0.00193877 0.0179198 0.00456378 0.0140696 0.00269117 0.0244391 0.00422153 0.0209559 0.00466112 0.0261257 0.00687198 0.0219581 0.00513175 0.0318947
28 3 O -1.17015 55.3869 3.19934 -1.2 1 0.0731823 0.0369206 0.00297477 0.00954931 0.00180971 0.00740527 0.00189739 0.0174977 0.00450738 0.0132404 0.00318514 0.0234507 0.00413413 0.0190812 0.00387382 0.0262387 0.00531259 0.0218171 0.00371163 0.0317496
29 1 Mg -2.13155 58.5819 0.777525 1.2 1 0.0143984 0.0153423 0.00649725 0.0065385 0.00140698 0.00716036 0.00178676 0.0202154 0.00351337 0.0113363 0.0025924 0.0255433 0.00432412 0.0194358 0.0048018 0.0287948 0.00492284 0.0235917 0.00439478 0.0363953
30 1 Mg 2.71577 61.8424 2.09427 1.2 1 0.00294984 0.00537396 0.000880631 0.0082694 0.00128417 0.00721954 0.00151799 0.0216862 0.00265828 0.0108357 0.00240424 0.0265097 0.00284525 0.0190809 0.00333203 0.0299823 0.00332121 0.023832 0.00520416 0.040509
31 2 Si 0.0224205 59.6109 2.2091 2.4 1 0.00560369 0.00797052 0.00289181 0.00795493 0.00184676 0.00726319 0.001256 0.0200426 0.00313009 0.0103749 0.00335829 0.0249297 0.00412351 0.0193359 0.00458802 0.0292341 0.0049833 0.0226818 0.00522829 0.0386522
32 3 O 1.46334 59.3959 2.1754 -1.2 1 0.00753375 0.0094283 0.00343085 0.00760179 0.00169348 0.00675116 0.00143438 0.0196512 0.00362164 0.00993507 0.00273046 0.0255184 0.00314528 0.0193338 0.00417916 0.0291466 0.00458797 0.0221671 0.00516083 0.0375457
33 3 O -1.06273 63.7312 1.96675 -1.2 1 0.00359971 0.00454156 0.000858802 0.00899088 0.000959932 0.00667754 0.00126301 0.0218538 0.00174719 0.0105789 0.00213889 0.0256822 0.00277821 0.0185968 0.00298174 0.0287131 0.0033481 0.0237066 0.00394345 0.0412997
34 3 O -0.674594 60.177 0.872787 -1.2 1 0.00323794 0.00685025 0.00199761 0.0077895 0.00138149 0.00737803 0.00213142 0.0205879 0.00312192 0.0099935 0.00253595 0.0259527 0.00425166 0.019523 0.00477852 0.0293591 0.00535238 0.0229531 0.00471316 0.0392047
35 1 Mg -2.27066 69.6797 3.2424 1.2 1 0.00521823 0.00480898 0.000836788 0.00856194 0.00152788 0.00576427 0.00117886 0.0221831 0.00118425 0.0119934 0.00198373 0.026937 0.00305348 0.0192031 0.00317415 0.030133 0.00364893 0.0259658 0.0043685 0.0428666
36 3 O -0.674945 60.4983 3.40724 -1.2 1 0.00575582 0.00651561 0.00147937 0.0071546 0.00158335 0.00686674 0.00155955 0.0207287 0.00293661 0.00993471 0.00297902 0.0255944 0.00423975 0.0185598 0.00445769 0.0296343 0.00510542 0.0228474 0.00582985 0.0392147
37 1 Mg -1.94847 66.5773 4.95474 1.2 1 0.00581789 0.0036244 0.00193097 0.00753693 0.00153185 0.00557908 0.00235496 0.0213246 0.00209063 0.0114145 0.00274487 0.0257084 0.00359999 0.0191581 0.00413376 0.0298702 0.00446385 0.0248651 0.00399372 0.0415154
38 2 Si 0.574156 68.5127 4.57597 2.4 1 0.00555146 0.00381506 0.00142089 0.00873032 0.00155605 0.00553569 0.00224116 0.0214657 0.00133244 0.0116558 0.00273184 0.0250436 0.0033368 0.0195783 0.00573702 0.029369 0.00522312 0.0254465 0.00509464 0.0427842
39 3 O -1.02855 68.4673 4.79316 -1.2 1 0.00513371 0.00373688 0.00171072 0.0083156 0.00160813 0.00543497 0.00209391 0.0210602 0.00201719 0.0112224 0.00218908 0.0254606 0.00323312 0.0187204 0.0033513 0.0299785 0.00519425 0.0251412 0.00400105 0.0426291
40 3 O 1.70756 64.7341 4.89375 -1.2 1 0.00576356 0.00388636 0.00212863 0.00822518 0.00121024 0.00664749 0.00158683 0.0220577 0.00185642 0.0111971 0.00266808 0.0257946 0.00345167 0.0185386 0.00425209 0.028839 0.00436915 0.0237154 0.00428313 0.0411709
41 3 O 1.23795 68.1089 3.30606 -1.2 1 0.00539132 0.00453819 0.0013735 0.00810828 0.00171687 0.00564755 0.00282239 0.022299 0.00172473 0.0118271 0.00242098 0.0256197 0.0029695 0.019732 0.00437653 0.0300262 0.00428074 0.0252419 0.00523383 0.0428909
42 3 O 1.09243 67.7332 5.96604 -1.2 1 0.00494143 0.00339123 0.00156131 0.00768391 0.00178691 0.00582167 0.00233529 0.0213075 0.00177269 0.0111982 0.00276357 0.0250638 0.00331672 0.0191649 0.00445022 0.0305031 0.00520252 0.0252977 0.00460962 0.0412697
43 1 Mg 0.293214 64.2374 3.42498 1.2 1 0.00520205 0.00449803 0.00168383 0.00838249 0.00101664 0.00687502 0.00127081 0.0219184 0.00151542 0.0107292 0.00215928 0.0265972 0.00252282 0.0181119 0.00227726 0.0289151 0.0027732 0.0236107 0.00387386 0.0412954
44 1 Mg 0.327092 61.06 5.16102 1.2 1 0.00700781 0.00501445 0.00191812 0.00751357 0.00151032 0.00669656 0.00242476 0.0208163 0.00266064 0.00989961 0.0034858 0.0254368 0.00420247 0.0179942 0.00507115 0.0291497 0.0042969 0.0228077 0.0062256 0.0387275
45 2 Si 2.34747 63.306 4.92303 2.4 1 0.00658896 0.0035235 0.0022002 0.00913988 0.00160582 0.00652814 0.00203805 0.0213033 0.00204793 0.00959445 0.00296973 0.0245951 0.00401439 0.0183819 0.005963 0.0286561 0.00551551 0.0232411 0.00652539 0.0415319
46 3 O -0.853362 63.4379 4.95573 -1.2 1 0.00610053 0.00371682 0.00229651 0.00893013 0.00129612 0.00611193 0.00131193 0.0208171 0.00324805 0.00984268 0.00282214 0.0250588 0.00379316 0.0182675 0.00365564 0.0292362 0.00408576 0.0229952 0.00522126 0.0408602
47 3 O 1.16202 59.2571 5.13158 -1.2 1 0.0113568 0.010186 0.00434053 0.00752761 0.0014318 0.00705768 0.00240258 0.0195454 0.00272989 0.0102265 0.00314323 0.0248862 0.00397681 0.0183823 0.0052405 0.0287212 0.00437272 0.0220474 0.0051794 0.0372263
48 3 O 1.75152 62.5692 3.60545 -1.2 1 0.00500797 0.00443896 0.00187933 0.00818478 0.00158755 0.00698847 0.00242203 0.0215073 0.00188204 0.00976716 0.00225092 0.0257259 0.00334186 0.0184678 0.00371903 0.0297881 0.00363845 0.02339 0.00546629 0.0410248
49 1 Mg 0.326573 64.2656 0.606949 1.2 1 0.00179641 0.00439117 0.000671145 0.00896993 0.00136967 0.00650458 0.00145786 0.0217865 0.00158477 0.0107177 0.00161821 0.0263289 0.00260612 0.0191132 0.00294046 0.0285994 0.00297051 0.0230328 0.00257795 0.0409737
50 3 O 1.55427 62.4182 6.18094 -1.2 1 0.00657929 0.00357452 0.00219687 0.00846509 0.0019532 0.00634021 0.00250175 0.0212683 0.00210095 0.0101991 0.00336881 0.0243512 0.0046872 0.0185427 0.00705093 0.0300592 0.00635799 0.02415 0.00643405 0.0398531
51 1 Mg 0.388949 67.1108 1.8071 1.2 1 0.00424098 0.00481612 0.000684195 0.00845082 0.00101836 0.00605406 0.00129469 0.0221531 0.00244973 0.0116387 0.00209247 0.0259608 0.00244831 0.0194866 0.00299122 0.0293644 0.00325821 0.0247597 0.00251335 0.041736
52 2 Si -1.75629 65.249 1.92733 2.4 1 0.00361127 0.00440232 0.000662429 0.00905525 0.00227849 0.00583 0.00213965 0.021309 0.00188378 0.0108215 0.00225276 0.0252331 0.00318724 0.0195324 0.00436582 0.0286156 0.00369816 0.0232757 0.00324799 0.0419677
53 3 O 1.41276 65.3127 1.99697 -1.2 1 0.00435572 0.00426052 0.000634329 0.00871653 0.00149933 0.00576095 0.00200878 0.0213551 0.00221241 0.0105663 0.00183085 0.0252203 0.00237907 0.0193472 0.00273943 0.0294472 0.00279864 0.0235881 0.0030237 0.0423825
54 3 O -0.88348 69.0095 1.61269 -1.2 1 0.00479307 0.0048934 0.000811118 0.00871089 0.00174479 0.00655729 0.00131691 0.0221112 0.00205476 0.0120057 0.00225498 0.0264373 0.00294181 0.0197979 0.00377902 0.0294285 0.00278901 0.0248767 0.00426204 0.0427084
55 3 O -1.16209 65.9063 0.599114 -1.2 1 0.00288029 0.00439462 0.000881694 0.00861616 0.00147917 0.0061829 0.00133616 0.021731 0.00201645 0.0108204 0.0015626 0.0249934 0.00303915 0.0198114 0.00305559 0.0291349 0.00314858 0.0236849 0.00220622 0.0411757
56 3 O -1.0108 65.9423 3.2411 -1.2 1 0.00463178 0.00424312 0.00119786 0.00812506 0.0021294 0.00581287 0.00190243 0.0218313 0.00182196 0.0114441 0.00221271 0.0252896 0.00283003 0.0193638 0.003416 0.0289155 0.00336576 0.0243854 0.00365058 0.0420941
57 1 Mg -2.3833 69.1273 0.331873 1.2 1 0.00392909 0.00468263 0.00121634 0.00846179 0.00124872 0.00662197 0.00138983 0.0216441 0.00137967 0.0123063 0.00153005 0.0270007 0.00240573 0.0198754 0.00249969 0.0295603 0.00222854 0.0245674 0.00255881 0.0416185
58 1 Mg 2.559 72.2072 1.58332 1.2 1 0.00506436 0.00525028 0.00121036 0.00836082 0.00167226 0.00543381 0.0009907 0.0217406 0.00205057 0.0119202 0.00244946 0.0274944 0.00283166 0.0203955 0.00386381 0.0300992 0.00509943 0.0256203 0.00489643 0.044541
59 2 Si -0.207339 70.3943 1.64739 2.4 1 0.00502234 0.00510541 0.000895587 0.00927964 0.00245595 0.00560487 0.00169134 0.0214729 0.00200025 0.0120881 0.00297625 0.0260419 0.00324214 0.0203236 0.00350517 0.0299282 0.00353435 0.0253515 0.00417218 0.0438767
60 3 O 1.31637 70.4531 1.69463 -1.2 1 0.00462131 0.00469264 0.000990915 0.00911487 0.00216955 0.00557576 0.00147727 0.0211022 0.00270993 0.0115679 0.00228859 0.0261087 0.00286547 0.0194508 0.00440398 0.029783 0.00394453 0.0249953 0.00533904 0.0430903
61 3 O -1.2143 74.3808 1.77395 -1.2 1 0.00482046 0.00429591 0.00137635 0.00853871 0.00187794 0.00602857 0.00100514 0.0219321 0.00235449 0.0107933 0.00207136 0.0288851 0.00279312 0.019229 0.00368253 0.03027 0.00398223 0.0256418 0.00512254 0.0449042
62 3 O -1.05278 71.2993 0.390779 -1.2 1 0.00454321 0.0048773 0.000897509 0.00863185 0.00209113 0.00584674 0.00168338 0.0217667 0.0021346 0.0118641 0.00264695 0.0267553 0.00255131 0.0205423 0.00359292 0.0300795 0.00412324 0.0246568 0.00390716 0.0429842
63 1 Mg -2.19486 79.9635 2.94873 1.2 1 0.00214316 0.00496578 0.00148407 0.00754697 0.00111975 0.0064407 0.00113051 0.0225818 0.00161138 0.00884302 0.00223015 0.0295714 0.00209381 0.0189152 0.00232043 0.0301909 0.00271869 0.0252806 0.00325971 0.0431036
64 3 O -0.865845 71.1098 2.98657 -1.2 1 0.0047732 0.00505752 0.000995153 0.0089533 0.00249366 0.00532593 0.00187985 0.0217252 0.00199495 0.0119981 0.00226269 0.0267033 0.00412331 0.0199144 0.00358906 0.0305909 0.0038688 0.0258934 0.0046868 0.044892
65 1 Mg -2.21411 77.0635 4.52315 1.2 1 0.00346302 0.00450928 0.00200155 0.00786401 0.00144989 0.00611165 0.0017526 0.0225557 0.00274246 0.00921925 0.00238765 0.0293276 0.0029465 0.0193783 0.00320364 0.0299645 0.00376509 0.0262883 0.00432483 0.0466446
66 2 Si 0.486875 79.2993 4.47254 2.4 1 0.00194956 0.00448763 0.00199195 0.00868239 0.0014217 0.0064737 0.00127815 0.0221198 0.00177343 0.00851376 0.00303318 0.0291888 0.00187393 0.0194419 0.00411166 0.0288777 0.00405066 0.0252278 0.00336872 0.0459974
67 3 O -1.01441 79.2779 4.4182 -1.2 1 0.00195165 0.00438162 0.00233726 0.00827819 0.00139296 0.00652894 0.00104532 0.0220692 0.00225491 0.00851018 0.00221799 0.0295871 0.00227801 0.0185482 0.00213176 0.0293142 0.00303487 0.0250562 0.00284827 0.0455969
68 3 O 1.5051 75.3676 4.44906 -1.2 1 0.00377489 0.00415634 0.00153737 0.00811434 0.00147513 0.00647027 0.00126641 0.0221434 0.00141975 0.0101233 0.00280558 0.0290718 0.00289204 0.0188046 0.00348786 0.0300887 0.00453856 0.0261958 0.00459371 0.0463344
69 3 O 1.21226 78.6845 3.2166 -1.2 1 0.00353924 0.00460186 0.00247884 0.00766626 0.00212417 0.0057221 0.00264371 0.0224636 0.00214756 0.00886402 0.00281657 0.0290277 0.00233718 0.0192844 0.00361993 0.0301583 0.00420349 0.0252972 0.00381529 0.0455408
70 3 O 1.12721 78.6732 5.78557 -1.2 1 0.0012929 0.00523837 0.00158559 0.00808362 0.00175573 0.00609062 0.00209712 0.0225747 0.00211225 0.00881934 0.00244739 0.0288112 0.00198042 0.0193663 0.00327289 0.0299947 0.0035719 0.02602 0.00328688 0.0457631
71 1 Mg 0.158335 75.0014 3.11152 1.2 1 0.00462233 0.00445068 0.00166265 0.00801964 0.00179182 0.00656714 0.00129774 0.021785 0.00191217 0.0103598 0.00218205 0.0292017 0.00296627 0.018537 0.00300114 0.0299163 0.00465093 0.0262791 0.00428032 0.0456554
72 1 Mg 0.105605 71.9057 4.72157 1.2 1 0.00485337 0.00500598 0.00147491 0.00870983 0.00137126 0.00536182 0.00210753 0.0214622 0.00196705 0.0122097 0.00255484 0.0275111 0.00353512 0.0198531 0.00461549 0.0305708 0.00433856 0.0259802 0.00466449 0.0442554
73 2 Si 2.13164 73.8798 4.55135 2.4 1 0.00443215 0.00419761 0.0016264 0.00939197 0.00173677 0.00589335 0.00203834 0.02079 0.00206865 0.0104868 0.00264395 0.027174 0.00316383 0.019877 0.00493839 0.0297461 0.00585249 0.0261122 0.00569768 0.0467665
74 3 O -1.01858 73.9785 4.61897 -1.2 1 0.00462025 0.00382704 0.00172111 0.00905403 0.00163024 0.00596735 0.00160935 0.0207337 0.00279904 0.0100156 0.00264659 0.0277328 0.0027487 0.0193622 0.00350796 0.0303367 0.00461025 0.0259315 0.00449314 0.0462055
75 3 O 1.04294 70.084 4.84008 -1.2 1 0.00459586 0.00479625 0.00130544 0.00865547 0.00117274 0.005917 0.00193653 0.0220908 0.00130297 0.0121945 0.0024556 0.0267289 0.00326001 0.0194304 0.00313302 0.0297852 0.00484001 0.0259604 0.00425712 0.0432981
76 3 O 1.48998 72.9659 3.42967 -1.2 1 0.00507025 0.00474582 0.00129132 0.00836549 0.00117409 0.00569103 0.00199922 0.0217683 0.00197237 0.0113581 0.00209251 0.0273152 0.00291731 0.0197802 0.00384804 0.0301233 0.00507288 0.0263631 0.00477329 0.0459064
77 1 Mg 0.272724 74.8063 0.181594 1.2 1 0.00482218 0.00446792 0.00147835 0.00869104 0.00113248 0.00605334 0.00106929 0.022065 0.00191607 0.0106649 0.00181856 0.0292873 0.00223208 0.0191794 0.0022889 0.0299463 0.00376157 0.0257093 0.004128 0.0436994
78 3 O 1.63909 73.3743 5.91316 -1.2 1 0.00335724 0.00422796 0.00154116 0.00836474 0.0018077 0.00572589 0.00239897 0.0213473 0.00202725 0.0109932 0.00228033 0.0274872 0.00289477 0.0196698 0.00430261 0.0306733 0.00501538 0.0263022 0.00505565 0.0450734
79 1 Mg 0.265158 77.8204 1.54921 1.2 1 0.00422846 0.00461705 0.00241133 0.00792706 0.00163114 0.00559828 0.00129092 0.0223701 0.00234701 0.00949393 0.00318255 0.0293225 0.00243375 0.0198794 0.00303843 0.0302659 0.00471409 0.0250838 0.00476242 0.044983
80 2 Si -1.78943 75.9014 1.6624 2.4 1 0.00543694 0.00395058 0.00199013 0.00932367 0.0026975 0.00551909 0.00211405 0.0215912 0.00251015 0.00956583 0.00298709 0.0283614 0.00315358 0.0199202 0.00412927 0.029924 0.00382192 0.0253369 0.00407266 0.0463913
81 3 O 1.44855 75.7088 1.61399 -1.2 1 0.00544588 0.00387387 0.00170594 0.00888727 0.00208365 0.00582227 0.00166943 0.0212377 0.00303948 0.00977318 0.00233106 0.0283904 0.00312422 0.0193812 0.00376124 0.0299942 0.00390941 0.0250693 0.00508845 0.0461179
82 3 O -0.857668 79.6601 1.567 -1.2 1 0.00335536 0.00464681 0.00158152 0.00808712 0.00145337 0.00653167 0.00107355 0.0225747 0.00195443 0.00889393 0.00168306 0.0291007 0.00330394 0.0191575 0.00400881 0.02971 0.00354592 0.0246905 0.0047581 0.0432359
83 3 O -1.03598 76.648 0.375974 -1.2 1 0.00503724 0.00452525 0.00176674 0.00832683 0.00216701 0.00519863 0.00174772 0.0220045 0.00208462 0.0100041 0.00199225 0.0284068 0.00275289 0.0202702 0.00340062 0.0312138 0.00404497 0.0254428 0.00466104 0.044697
84 3 O -1.04974 76.6852 2.78889 -1.2 1 0.00415386 0.00437528 0.00208787 0.00791993 0.00215727 0.00536915 0.00182622 0.0226228 0.00242333 0.00949386 0.0026983 0.0289113 0.00310042 0.0197227 0.003189 0.0308735 0.00372589 0.0257701 0.00421834 0.0466101
85 1 Mg -2.20438 80.0809 -0.0308875 1.2 1 0.00353501 0.00492318 0.00142404 0.00733041 0.00163861 0.00676555 0.00158356 0.022196 0.0016336 0.00940313 0.00239705 0.0282026 0.00243634 0.0192569 0.00312693 0.0297196 0.00310404 0.0244555 0.00390698 0.041495
86 1 Mg 2.45795 83.0869 1.65759 1.2 1 0.00134481 0.00427646 0.000856212 0.00697271 0.00105255 0.0066032 0.00130362 0.0219849 0.00157821 0.00918078 0.00293104 0.0277534 0.00231759 0.0194446 0.00384509 0.0295706 0.00333419 0.0244943 0.00329706 0.0393003
87 2 Si -0.128362 81.193 1.26916 2.4 1 0.00256453 0.00484465 0.00117405 0.00810642 0.00161106 0.00620534 0.00137705 0.0216833 0.00179591 0.00899128 0.00255944 0.0273289 0.00318568 0.019908 0.00369018 0.0291783 0.00297417 0.0240363 0.00423935 0.0417511
88 3 O 1.37002 81.0367 1.43713 -1.2 1 0.00227399 0.00456363 0.00064603 0.00813189 0.00135602 0.00630767 0.00154061 0.02177 0.00241202 0.00877535 0.00241295 0.0286223 0.00246774 0.0189644 0.0032325 0.0298349 0.00310671 0.0244934 0.00377474 0.0416752
89 3 O -1.27357 85.0378 1.55475 -1.2 1 0.00217359 0.00340233 0.00128303 0.00723617 0.00119763 0.0065122 0.00101875 0.0220146 0.00161675 0.00938967 0.00195285 0.027216 0.00223699 0.0191815 0.00324435 0.028964 0.00345964 0.0239997 0.0039028 0.0388449
90 3 O -0.738445 81.6978 -0.0339237 -1.2 1 0.00284279 0.00500689 0.00088379 0.00728964 0.00166879 0.00645917 0.00140091 0.0221351 0.00169773 0.0091453 0.00196459 0.0272409 0.00281126 0.020023 0.00332877 0.0299563 0.00309403 0.0247198 0.00422648 0.0405298
91 1 Mg -2.29741 90.6324 2.78679 1.2 1 0.00413458 0.00496746 0.00105337 0.00757821 0.00140516 0.00603784 0.00109953 0.0214435 0.00165555 0.00909978 0.00198126 0.0269634 0.00170411 0.0183145 0.00265868 0.0300479 0.00270794 0.023263 0.00283859 0.0387565
92 3 O -0.900126 81.8977 2.53737 -1.2 1 0.000718288 0.00464008 0.000755053 0.00756985 0.00133058 0.00627716 0.00137593 0.0219852 0.00171104 0.00870621 0.0022978 0.0278414 0.00218966 0.0193106 0.00278418 0.0299063 0.00274348 0.0244952 0.00363475 0.0417147
93 1 Mg -2.4339 87.5971 4.63538 1.2 1 0.00280666 0.00380348 0.00126827 0.00774181 0.00112598 0.00668138 0.00173503 0.0218158 0.00242652 0.00957138 0.00182962 0.0276863 0.00258414 0.0197811 0.00359677 0.0302401 0.0030929 0.025412 0.00361964 0.0394096
94 2 Si 0.36357 89.6446 4.47962 2.4 1 0.00428013 0.00405752 0.000905839 0.00832468 0.0015083 0.00622321 0.00217718 0.0215748 0.00181577 0.00942559 0.00176923 0.0271938 0.00218649 0.0194338 0.00425834 0.0296294 0.0040415 0.0240344 0.00417318 0.0404036
95 3 O -1.1413 89.9528 4.36732 -1.2 1 0.0038678 0.00450922 0.000988663 0.00778177 0.00110644 0.00647696 0.00170288 0.0215392 0.00183865 0.00949861 0.00197678 0.0275163 0.00191899 0.0188305 0.00230133 0.0296982 0.00329053 0.023915 0.00325233 0.0401711
96 3 O 1.49479 85.8455 4.49801 -1.2 1 0.00161866 0.00351801 0.000602231 0.00786761 0.00102405 0.00688657 0.00151505 0.0220739 0.00137624 0.00955685 0.0024201 0.0283202 0.00252307 0.019385 0.00339998 0.0296154 0.00350907 0.0250555 0.00302466 0.0394964
97 3 O 1.13528 88.973 3.0585 -1.2 1 0.00408148 0.00424312 0.00109888 0.00798444 0.00137217 0.00615408 0.0022852 0.0216296 0.00185796 0.0100321 0.00185501 0.0260517 0.00244732 0.0195813 0.00418863 0.0301911 0.0042277 0.0239354 0.00328564 0.0391424
98 3 O 1.04587 88.9103 5.69276 -1.2 1 0.00361565 0.00416057 0.000800028 0.0082477 0.00109893 0.00634086 0.00266542 0.0218216 0.00197418 0.00977043 0.0020062 0.0268822 0.00212681 0.0203226 0.00352937 0.0307347 0.00346929 0.0256648 0.00399638 0.0396129
99 1 Mg -0.124511 85.5314 3.20868 1.2 1 0.00191779 0.00339398 0.00105957 0.00727471 0.0010754 0.00671026 0.00107803 0.021751 0.00153968 0.00947741 0.00176768 0.028157 0.00189267 0.018926 0.00245125 0.0292205 0.00271854 0.0243417 0.00274817 0.03918
100 1 Mg 0.0111129 82.5748 4.30402 1.2 1 0.000845332 0.00457092 0.00112688 0.00763473 0.00068804 0.0060603 0.00127064 0.0218084 0.00226899 0.00920472 0.00289295 0.0288373 0.00196676 0.0196328 0.00289448 0.0293827 0.00304372 0.0247341 0.00298934 0.0414477
101 2 Si 2.05593 84.3591 4.61024 2.4 1 0.00212307 0.00402924 0.000477235 0.00827672 0.0015868 0.00620616 0.00163683 0.021464 0.00163964 0.00900896 0.00273707 0.0275365 0.00237823 0.0199315 0.00390449 0.02931 0.00384213 0.0248556 0.00273837 0.0410536
102 3 O -1.05405 84.413 4.56735 -1.2 1 0.00131173 0.00347732 0.00093515 0.00764574 0.00156065 0.0063517 0.00153506 0.021438 0.00262105 0.00880521 0.00219618 0.0279464 0.00200797 0.0189363 0.00235328 0.0293174 0.00334275 0.0245616 0.00217528 0.040758
103 3 O 1.1399 80.7511 4.49042 -1.2 1 0.00111479 0.00503469 0.00145186 0.00813639 0.00096777 0.00687507 0.00116683 0.0224622 0.00137525 0.00896381 0.00221496 0.0294014 0.00204098 0.0189502 0.00236933 0.029717 0.00289364 0.0254892 0.00282046 0.0436936
104 3 O 1.5509 83.7324 3.21474 -1.2 1 0.00106749 0.00383498 0.000745118 0.00737081 0.00143855 0.00655061 0.00225109 0.0218445 0.00227138 0.00881138 0.00235738 0.0275344 0.00210087 0.0196761 0.00328539 0.029061 0.00342607 0.0245316 0.00237018 0.0400997
105 1 Mg -0.0403143 85.3788 0.0256376 1.2 1 0.00304229 0.00362314 0.00122912 0.00685259 0.00127848 0.00618523 0.00110693 0.0217088 0.00184137 0.00948246 0.00210795 0.0264967 0.00255276 0.0192719 0.00274623 0.0298212 0.00369899 0.0233524 0.00404098 0.0371574
106 3 O 1.44867 83.7 5.80557 -1.2 1 0.00202431 0.00420791 0.00101605 0.00749362 0.00208 0.00666104 0.00227631 0.022517 0.00236745 0.00935572 0.00236432 0.0276307 0.00231995 0.0200459 0.00357038 0.0291858 0.00381379 0.0254748 0.00293011 0.0424872
107 1 Mg 0.348434 88.1315 1.34545 1.2 1 0.00315144 0.00365182 0.00150199 0.00773945 0.00130504 0.00591295 0.00104973 0.0207609 0.00183064 0.00978755 0.00157408 0.0264782 0.00202799 0.0191516 0.00276975 0.0300272 0.00343947 0.0232049 0.00326419 0.0374629
108 2 Si -2.00186 86.5396 1.42595 2.4 1 0.00272524 0.00278227 0.00170865 0.00798848 0.00188273 0.0061555 0.00177346 0.0209299 0.00196982 0.00914353 0.00251705 0.026238 0.00203209 0.0192312 0.00398432 0.030202 0.00351958 0.0237111 0.00350506 0.0381572
109 3 O 1.22012 86.3926 1.39864 -1.2 1 0.00254595 0.0028434 0.00119352 0.00779542 0.00140387 0.00594339 0.00142746 0.0201707 0.00252546 0.00897429 0.00182854 0.0263923 0.00272487 0.0189215 0.00293749 0.0295924 0.00414438 0.022862 0.00388575 0.0379897
110 3 O -0.72754 90.2043 1.34336 -1.2 1 0.00447982 0.004808 0.00151028 0.00732656 0.0017411 0.00611438 0.00108752 0.0217694 0.00231936 0.00971356 0.00233096 0.0264909 0.00199935 0.0190506 0.00346665 0.0293994 0.00370387 0.0228213 0.00417225 0.0381724
111 3 O -1.25712 86.94 0.0977154 -1.2 1 0.00314603 0.00314602 0.0012533 0.00727761 0.00208266 0.00579546 0.00182474 0.0214805 0.00193534 0.00920705 0.0024459 0.0254416 0.00251653 0.0195489 0.00285031 0.0300803 0.0032032 0.0232409 0.0033128 0.0370293
112 3 O -1.34339 87.2824 2.62672 -1.2 1 0.00302407 0.00325454 0.001552 0.00776798 0.00145529 0.0060376 0.000881299 0.0211541 0.00182741 0.0092565 0.00145762 0.0264325 0.00233935 0.019649 0.00281141 0.0303035 0.00282518 0.0237655 0.00308839 0.0386854
113 1 Mg -2.27714 90.7427 -0.367998 1.2 1 0.00276181 0.00432565 0.00120537 0.00714335 0.00177982 0.00591089 0.00149052 0.0205949 0.00175144 0.00933079 0.00182148 0.0257449 0.00205747 0.0188681 0.0026659 0.0300976 0.00290166 0.0224422 0.00351027 0.0368701
114 1 Mg 2.02653 93.8019 1.47745 1.2 1 0.00224431 0.00501195 0.00205393 0.0064114 0.00180224 0.0055838 0.00126581 0.0207826 0.00207827 0.0090421 0.00236962 0.0263617 0.00280156 0.0185546 0.0040278 0.030017 0.0042718 0.0217198 0.00478622 0.0382032
115 2 Si -0.299434 91.7681 1.41266 2.4 1 0.00416482 0.00453265 0.00189116 0.00740942 0.00277231 0.00562138 0.00150645 0.0207007 0.00206872 0.00872289 0.00267322 0.0257035 0.00268437 0.0188088 0.00315991 0.0295443 0.00297847 0.0218316 0.00432494 0.0384109
116 3 O 1.19003 91.7245 1.57278 -1.2 1 0.00433116 0.00478346 0.00137318 0.00755177 0.00282326 0.00524535 0.00157895 0.0199818 0.00288314 0.00848655 0.00195166 0.0256514 0.00264981 0.0188537 0.00362846 0.0300374 0.00385705 0.0215449 0.00525787 0.0384034
117 3 O -1.55156 95.428 1.33896 -1.2 1 0.00126878 0.00464458 0.0019137 0.0065114 0.0018019 0.00562908 0.0015421 0.0213337 0.00162059 0.00896986 0.00242717 0.0261963 0.00259129 0.0180171 0.00331855 0.0292886 0.00328546 0.0212094 0.00365386 0.0396812
118 3 O -0.935308 92.2657 -0.00593751 -1.2 1 0.00379759 0.00478761 0.00191973 0.00695916 0.00240562 0.00562781 0.00157315 0.0211935 0.00210395 0.00911001 0.00233288 0.0249122 0.00282758 0.0193257 0.00312211 0.03001 0.00300982 0.0224118 0.00451228 0.0381329
119 1 Mg -2.36237 101.318 3.05047 1.2 1 0.00256336 0.00406847 0.0015598 0.00676044 0.00135885 0.00655719 0.00120296 0.021303 0.00102513 0.0100261 0.00162561 0.0256919 0.00214383 0.0182249 0.002889 0.0280625 0.00351843 0.0215065 0.00311907 0.0398282