ITEM: TIMESTEP
90400
ITEM: NUMBER OF ATOMS
5600
ITEM: BOX BOUNDS xy xz yz pp pp pp
0	7.1235	0
0	201.985	2.3745
0	119.584	0
ITEM: ATOMS id type element xu yu zu q Q_1 Q_2 Q_3 Q_4 Q_5 Q_6 Q_7 Q_8 Q_9 Q_10 Q_11 Q_12 Q_13 Q_14 Q_15 Q_16 Q_17 Q_18 Q_19 Q_20 Q_21
1 1 Mg -2.09288 47.9577 -0.784492 1.2 1 0.22917 0.0743967 0.0160628 0.0242393 0.00486481 0.0141456 0.00309593 0.0187243 0.0045639 0.0227558 0.00526859 0.0255484 0.0080855 0.0226736 0.00742348 0.0202394 0.00727951 0.0208844 0.00751548 0.027408
2 1 Mg 2.73866 49.9896 2.24689 1.2 1 0.175852 0.0673523 0.00665587 0.0173129 0.00243714 0.00994036 0.00339639 0.0161991 0.0050151 0.0193493 0.00549178 0.0236906 0.00652481 0.0206594 0.00679312 0.0213325 0.00628237 0.0202732 0.00759172 0.0275261
3 2 Si 0.445259 49.497 0.31033 2.4 1 0.194874 0.0683964 0.0115871 0.0205456 0.0032827 0.0115874 0.00283992 0.0181587 0.00413156 0.0219133 0.00350073 0.0236464 0.00594407 0.0213101 0.00599092 0.0208687 0.00582664 0.0206071 0.00714097 0.027023
4 3 O 1.74165 48.6128 0.709482 -1.2 1 0.212458 0.074063 0.0124379 0.0224349 0.00393829 0.0122055 0.00344972 0.0180674 0.00628379 0.0218766 0.00426545 0.0241722 0.00678937 0.022605 0.00768625 0.0213536 0.0075214 0.021145 0.00792893 0.027829
5 3 O -1.50954 52.2265 1.33707 -1.2 1 0.127264 0.0518551 0.00272665 0.0131167 0.00114123 0.00864044 0.00221836 0.0160085 0.00322988 0.0177991 0.0044427 0.0235487 0.00537621 0.0198906 0.00438543 0.02345 0.00483219 0.0198267 0.00528099 0.0279268
6 3 O -0.402069 48.9409 -0.975816 -1.2 1 0.20734 0.0691849 0.0129093 0.0212502 0.00445865 0.0121352 0.00352103 0.0182248 0.00339197 0.021875 0.00458769 0.0241655 0.00668022 0.021775 0.00605391 0.0205123 0.00708633 0.0193001 0.00703803 0.0270751
7 1 Mg -2.91502 57.9698 3.04444 1.2 1 0.0130019 0.0138976 0.0051825 0.00622762 0.00129025 0.00518306 0.00194554 0.0182487 0.00290402 0.010907 0.00245554 0.0236588 0.00360785 0.0209238 0.00378479 0.0289561 0.00335547 0.0230585 0.00449357 0.0326368
8 3 O -0.213595 49.609 1.77205 -1.2 1 0.184221 0.0680606 0.00915013 0.0183138 0.00293374 0.0106006 0.00324144 0.0168186 0.00530757 0.0208978 0.00441391 0.0235883 0.0059386 0.021174 0.00654684 0.0210514 0.00649327 0.0207683 0.00720069 0.0269982
9 1 Mg -2.62721 55.0847 4.58293 1.2 1 0.0659534 0.0366392 0.00577721 0.0082406 0.0016714 0.00571688 0.00209823 0.0161056 0.002543 0.0130479 0.00225947 0.0226043 0.00336695 0.0201704 0.00375612 0.0257593 0.00421783 0.0219335 0.00546974 0.0283925
10 2 Si -0.148749 56.8813 4.57534 2.4 1 0.028078 0.0233447 0.00781577 0.00664276 0.00125863 0.00471338 0.00273594 0.0176156 0.00234741 0.0111169 0.00299071 0.0225653 0.0040363 0.0207787 0.00471732 0.0279056 0.00411413 0.02332 0.00511206 0.0301832
11 3 O -1.6632 57.0663 4.54341 -1.2 1 0.0227332 0.0208192 0.00768844 0.00658245 0.00127256 0.00473072 0.00267942 0.0175174 0.00292907 0.0108374 0.00205687 0.0237171 0.00371519 0.0208949 0.00370653 0.0287633 0.00392504 0.0231053 0.00515683 0.0315621
12 3 O 1.38707 53.0377 4.91698 -1.2 1 0.110283 0.0488016 0.00208872 0.0116487 0.00194197 0.00777031 0.00233511 0.0162076 0.00288667 0.0159348 0.00326336 0.0228935 0.00415443 0.0193965 0.00324252 0.0231233 0.00470871 0.020981 0.0050423 0.0264219
13 3 O 0.413538 56.3687 3.22235 -1.2 1 0.0338675 0.0243088 0.00753611 0.00621621 0.00135034 0.00507468 0.00185956 0.0177799 0.00220176 0.0118639 0.00224012 0.0227172 0.00403933 0.0206221 0.00443676 0.0276117 0.0032602 0.0230303 0.00518306 0.0302299
14 3 O 0.656491 56.3039 5.7729 -1.2 1 0.0358354 0.0270964 0.00794303 0.00685698 0.00140377 0.00482212 0.00219763 0.0174164 0.00281952 0.0108463 0.00237873 0.022601 0.00326908 0.0206618 0.00495011 0.0270775 0.00441772 0.0225321 0.00526824 0.0298814
15 1 Mg 0.153122 52.6238 3.34377 1.2 1 0.121254 0.0521427 0.00194987 0.0120349 0.00220514 0.00822219 0.00244404 0.0157781 0.00362788 0.0163044 0.00332825 0.0231669 0.00435021 0.0194491 0.00342826 0.022321 0.00477643 0.0200586 0.00545249 0.0265492
16 1 Mg 0.251755 48.6618 3.21206 1.2 1 0.216114 0.0760088 0.0136513 0.0215418 0.00392201 0.0131104 0.00368212 0.0169817 0.00679775 0.0216747 0.00568447 0.0237819 0.00746739 0.0220985 0.00732697 0.0196586 0.00835553 0.0218809 0.00834797 0.026464
17 2 Si 2.13157 51.5227 4.85525 2.4 1 0.145007 0.0592556 0.00290348 0.0141064 0.00308477 0.00893912 0.00284502 0.0150097 0.00296765 0.0164676 0.00412011 0.0224644 0.00498661 0.0202817 0.0036432 0.021627 0.00549324 0.0194199 0.00698428 0.0251782
18 3 O -1.1763 51.6212 4.84532 -1.2 1 0.138615 0.0577597 0.00283162 0.013082 0.00249023 0.00794163 0.0030904 0.014001 0.00357163 0.0160667 0.00384707 0.0221243 0.00525546 0.020533 0.00403322 0.0220513 0.00567797 0.0195605 0.00678038 0.025635
19 3 O 2.29166 48.4986 3.6183 -1.2 1 0.21711 0.0759966 0.0129815 0.0209571 0.00377157 0.0136926 0.00354295 0.0169204 0.0061651 0.0217291 0.00583449 0.0242343 0.00751993 0.0220516 0.00753809 0.0188089 0.00825941 0.02197 0.00789828 0.0269251
20 3 O 1.53387 51.318 3.37713 -1.2 1 0.145623 0.0587418 0.00410785 0.0133095 0.00246468 0.00897423 0.00251054 0.0153733 0.00323147 0.0174731 0.00460832 0.0233215 0.00626751 0.0198062 0.00570611 0.0227296 0.00592139 0.0196467 0.00666164 0.0262487
21 1 Mg -0.224422 53.3431 -0.0306063 1.2 1 0.0992376 0.0457152 0.00353704 0.0113141 0.00147838 0.00749105 0.00195819 0.0162822 0.00281313 0.0169179 0.00376202 0.0228669 0.004851 0.0193057 0.00390778 0.024155 0.00446787 0.0203516 0.00486042 0.0285509
22 3 O 1.4669 50.5239 5.93306 -1.2 1 0.163801 0.0651566 0.00551098 0.015677 0.00315384 0.0095625 0.00377629 0.0147874 0.00409928 0.0180711 0.00481596 0.0226101 0.00562629 0.0207313 0.00465861 0.0203853 0.00544364 0.0200202 0.00686675 0.023887
23 1 Mg -0.489184 55.4352 1.53161 1.2 1 0.0549175 0.0307168 0.00596103 0.00711585 0.00111567 0.00575055 0.00172599 0.0166723 0.00340701 0.0138607 0.00358751 0.0226635 0.00489975 0.0204708 0.00502891 0.0267883 0.00424742 0.0209358 0.00455534 0.0301438
24 2 Si -2.25103 53.4748 1.58836 2.4 1 0.104312 0.0452289 0.00221281 0.0108314 0.00162445 0.00748151 0.00204951 0.015709 0.00304298 0.0161784 0.00385729 0.0223562 0.00511529 0.0192358 0.00365706 0.0238113 0.00441693 0.019945 0.00488876 0.0277669
25 3 O 0.877281 53.671 1.54915 -1.2 1 0.100506 0.0444134 0.00248609 0.0106516 0.00145189 0.00751165 0.00235032 0.0154289 0.00309066 0.0157101 0.00395539 0.0224645 0.00441005 0.0191504 0.00414517 0.024305 0.00365638 0.0206328 0.00528604 0.0276631
26 3 O -1.51309 57.5317 1.80186 -1.2 1 0.0179739 0.016234 0.0063489 0.00582476 0.00140153 0.00513881 0.00180818 0.0183905 0.00320983 0.0113768 0.00280732 0.0236254 0.00416612 0.0209633 0.00427914 0.0286847 0.00404422 0.0230264 0.00499837 0.031978
27 3 O -1.63713 54.6354 0.442306 -1.2 1 0.0689604 0.0354835 0.00556577 0.00807335 0.00122947 0.0064064 0.00158374 0.0164293 0.00283141 0.0145546 0.00298366 0.0221661 0.00482864 0.0198382 0.00430176 0.025929 0.00381701 0.021127 0.00518705 0.028958
28 3 O -1.5821 54.2087 2.9472 -1.2 1 0.0814984 0.0395924 0.00424789 0.00839513 0.00155484 0.00623163 0.00226162 0.0160864 0.00311058 0.0142309 0.00253347 0.0227853 0.00409581 0.0196686 0.00377007 0.0252237 0.00411145 0.0211933 0.00554692 0.028489
29 1 Mg -2.59913 57.7007 0.341293 1.2 1 0.0167604 0.015585 0.00651732 0.00554788 0.00159689 0.00558668 0.00181196 0.0189693 0.00239429 0.011841 0.00292548 0.0228719 0.0042916 0.0208939 0.00504694 0.028281 0.00382947 0.0224586 0.00490807 0.0324203
30 1 Mg 1.95048 61.1573 2.02401 1.2 1 0.00221193 0.00473621 0.00222454 0.00712035 0.00111642 0.00569622 0.00113593 0.0199566 0.00248301 0.00972726 0.00259146 0.0242171 0.00292399 0.0212324 0.00296271 0.0292489 0.00364003 0.0235179 0.00341574 0.035319
31 2 Si -0.789857 58.9821 1.64963 2.4 1 0.00624974 0.00940917 0.0039324 0.00661933 0.00156874 0.00525124 0.00148756 0.0180712 0.00251779 0.0100543 0.00280387 0.0229906 0.00354907 0.0217368 0.00456296 0.028911 0.00417764 0.0225439 0.00501077 0.0339027
32 3 O 0.797897 58.7652 1.5716 -1.2 1 0.00778688 0.0105081 0.00438287 0.00572057 0.00143353 0.00529965 0.00148135 0.0189813 0.00291282 0.0107826 0.00300955 0.0231676 0.00393133 0.0214131 0.00342587 0.0290864 0.0038076 0.0226893 0.00461333 0.0337905
33 3 O -1.74626 62.9708 1.87448 -1.2 1 0.0030412 0.00399969 0.00176872 0.00804449 0.00150829 0.00560017 0.00197144 0.0209194 0.00169764 0.0102717 0.00252309 0.0244828 0.00327988 0.0207886 0.00397711 0.0283293 0.00373298 0.023121 0.00332488 0.0359295
34 3 O -1.32654 59.4901 0.235855 -1.2 1 0.00449175 0.00849054 0.00294871 0.00602681 0.00136471 0.00576111 0.0016508 0.0196868 0.00240668 0.0107094 0.00256646 0.0231607 0.0036465 0.0216631 0.0046167 0.0292584 0.00379035 0.0228082 0.00399208 0.0336118
35 1 Mg -2.5685 68.7774 3.46904 1.2 1 0.00485803 0.00639713 0.00108158 0.00857573 0.00129144 0.00654566 0.00155039 0.0221034 0.00162935 0.0108219 0.00178665 0.0269176 0.00222455 0.020342 0.00285732 0.0292718 0.00264123 0.0247047 0.00344098 0.0384041
36 3 O -1.31788 60.0079 2.81646 -1.2 1 0.00293809 0.00710185 0.00234226 0.00656439 0.0012702 0.00530352 0.00175695 0.0196645 0.00294861 0.00975361 0.00239852 0.0235255 0.00324696 0.0220781 0.00387056 0.0301395 0.00366031 0.0237338 0.00411045 0.0347263
37 1 Mg -2.48426 65.8048 4.65256 1.2 1 0.00198053 0.00532332 0.00104002 0.00769548 0.00110281 0.00565543 0.00162276 0.0214527 0.00237859 0.0103668 0.00229336 0.0257272 0.00207379 0.0213142 0.00353769 0.0299012 0.00372498 0.0242317 0.00313034 0.0387669
38 2 Si 0.0982101 67.7247 4.90788 2.4 1 0.00338503 0.00593084 0.00114637 0.00883604 0.00199001 0.00617861 0.0018829 0.0212235 0.00164531 0.0106932 0.00292448 0.0255766 0.00283809 0.0210241 0.0049319 0.0290469 0.00385714 0.0242871 0.00452157 0.0403037
39 3 O -1.44269 67.581 4.82488 -1.2 1 0.00338747 0.00592012 0.000942805 0.00819899 0.00234277 0.00553651 0.00223435 0.0208398 0.00272207 0.0105345 0.00193481 0.0256635 0.00191929 0.0212012 0.00277974 0.0300886 0.00335056 0.024158 0.00416103 0.0394767
40 3 O 1.18222 64.2699 4.76599 -1.2 1 0.00207377 0.0046367 0.00175669 0.00753004 0.00124353 0.00557599 0.000909408 0.0212338 0.00223399 0.00983138 0.00274123 0.0255137 0.00232707 0.0210957 0.00307959 0.0298607 0.00297612 0.0244452 0.00323858 0.0385206
41 3 O 0.704443 66.9378 3.71108 -1.2 1 0.00364676 0.00561474 0.00111638 0.00780893 0.00173376 0.00612337 0.00179441 0.0214215 0.0021047 0.0105342 0.00224456 0.0253469 0.00200246 0.0215103 0.00349821 0.0295169 0.00311492 0.0238248 0.00453158 0.0386996
42 3 O 0.628217 67.1166 6.33774 -1.2 1 0.00181262 0.00672173 0.0010392 0.00799777 0.00163375 0.00543083 0.00125766 0.0212577 0.00122007 0.0107187 0.00224828 0.0258908 0.00253493 0.0213709 0.00339585 0.0305389 0.00293859 0.0245282 0.00329052 0.0397522
43 1 Mg -0.359387 63.5994 3.37481 1.2 1 0.00247684 0.004053 0.00150227 0.00787521 0.00168394 0.00557756 0.0013944 0.0209291 0.00187836 0.0100155 0.00241322 0.0248937 0.00273433 0.0212687 0.002752 0.0299894 0.00308343 0.0240127 0.00298277 0.0374847
44 1 Mg -0.243461 60.4206 4.53862 1.2 1 0.00143464 0.0062994 0.00174093 0.00689098 0.00128203 0.00539167 0.00174238 0.0202712 0.00206079 0.00914402 0.00221448 0.0241823 0.00272094 0.0223036 0.00340687 0.0309988 0.00286733 0.0245212 0.00341789 0.0360914
45 2 Si 1.8694 62.6476 5.02853 2.4 1 0.00202231 0.00417557 0.00185321 0.00834773 0.00133303 0.00556966 0.00122479 0.0207157 0.00238382 0.00930824 0.002812 0.0247278 0.00240704 0.0220405 0.00293426 0.0311401 0.00288025 0.0251024 0.00333933 0.0385471
46 3 O -1.39732 62.6153 4.8066 -1.2 1 0.00224364 0.00431146 0.00163372 0.00803626 0.00108328 0.00525685 0.00128586 0.0206612 0.00219268 0.00903499 0.00185229 0.0245746 0.00305616 0.0214065 0.00287836 0.0305985 0.00355254 0.0244776 0.00327242 0.0383311
47 3 O 0.565565 58.6519 4.4365 -1.2 1 0.00830654 0.012424 0.00405344 0.00693864 0.00107113 0.00512177 0.00215556 0.0192605 0.00324453 0.00980005 0.00298129 0.0236979 0.00360681 0.0209768 0.00381619 0.0296565 0.0038553 0.0242952 0.00447566 0.0340087
48 3 O 1.1483 61.7047 3.72051 -1.2 1 0.0021094 0.00418926 0.00163648 0.0080707 0.00168992 0.00555594 0.00238314 0.0205574 0.00174922 0.00916667 0.00263281 0.024136 0.00248264 0.0222799 0.00348005 0.0307282 0.00336352 0.0242714 0.00359725 0.0365033
49 1 Mg -0.63903 63.3833 0.30106 1.2 1 0.00527323 0.00423606 0.00138061 0.0076849 0.00140663 0.00608687 0.00142856 0.0205497 0.00173717 0.0112034 0.00262473 0.0244864 0.003124 0.020085 0.00371326 0.0274352 0.00332828 0.0223407 0.00510566 0.034291
50 3 O 1.06335 62.0335 6.20949 -1.2 1 0.0022663 0.00547496 0.00188748 0.00786154 0.00151346 0.0053026 0.00110048 0.0209978 0.00211407 0.00940486 0.00186934 0.0252254 0.0021655 0.0219081 0.00229656 0.0318164 0.00262436 0.0261745 0.0032885 0.0387391
51 1 Mg -0.356151 66.4301 1.76217 1.2 1 0.00507296 0.00522276 0.00154327 0.00838269 0.00144506 0.00623089 0.00195687 0.0214957 0.00206169 0.0112643 0.00271526 0.0253417 0.00289617 0.0214109 0.00468518 0.0282934 0.00415347 0.023199 0.00590713 0.0370091
52 2 Si -2.47362 64.5493 1.90417 2.4 1 0.00407761 0.00409755 0.00171003 0.00854614 0.00250814 0.0054625 0.00248106 0.0205106 0.00225932 0.00999907 0.00258436 0.0235708 0.00315437 0.0215862 0.00406327 0.0279926 0.0042347 0.0227293 0.00473354 0.0373946
53 3 O 0.786235 64.2037 1.84936 -1.2 1 0.00383131 0.00369552 0.00169095 0.00832915 0.00186392 0.00554744 0.00187402 0.02026 0.00246019 0.010223 0.0027023 0.0239817 0.00214789 0.0209611 0.00414119 0.0281831 0.0037357 0.0223693 0.00433765 0.0357973
54 3 O -1.22892 68.2352 1.83333 -1.2 1 0.00482841 0.00587658 0.000844322 0.00874291 0.00106745 0.00637106 0.00150277 0.0223324 0.00173934 0.0111323 0.00251256 0.0261076 0.00184036 0.0201304 0.00362784 0.0284106 0.0034596 0.0235995 0.00379743 0.0371705
55 3 O -1.63867 65.1422 0.718433 -1.2 1 0.00545563 0.004032 0.000966097 0.00767523 0.00214837 0.00597354 0.00287624 0.0204579 0.00225883 0.0104929 0.0021441 0.0240667 0.00271586 0.0210557 0.00380571 0.0279794 0.00405613 0.0224805 0.00472825 0.0349953
56 3 O -1.70292 65.167 3.05065 -1.2 1 0.00320213 0.00457192 0.00143438 0.00788087 0.00219299 0.00566943 0.00177139 0.021082 0.00229653 0.0103039 0.00246444 0.0243644 0.00278024 0.0219107 0.0036667 0.0291141 0.00395961 0.0233561 0.00397997 0.0374351
57 1 Mg -2.55087 68.6967 0.392203 1.2 1 0.00608389 0.00653656 0.00132757 0.00865822 0.00123338 0.0064463 0.00172357 0.022238 0.00172599 0.0115434 0.00221864 0.0260215 0.00231026 0.0198764 0.00313018 0.027236 0.00304969 0.0236011 0.00352879 0.0356763
58 1 Mg 2.10035 71.5724 1.77273 1.2 1 0.00716433 0.00610955 0.00100988 0.00926454 0.00136809 0.00610332 0.00173708 0.0225768 0.00144456 0.0111145 0.00318696 0.0274818 0.00317526 0.0196418 0.00339814 0.0283508 0.00315911 0.0254397 0.00326429 0.038097
59 2 Si -0.538431 69.8241 2.1104 2.4 1 0.00653253 0.0057783 0.000918852 0.00933072 0.00209605 0.00608889 0.00274726 0.0219637 0.00188702 0.010517 0.00305145 0.0261404 0.00269822 0.0200785 0.00378795 0.02769 0.0035717 0.0241232 0.00345245 0.0393991
60 3 O 1.08101 69.5395 1.98282 -1.2 1 0.0062821 0.00584526 0.00086806 0.00938112 0.00133084 0.00638798 0.00210903 0.0212281 0.00240447 0.0108032 0.00265309 0.0266679 0.00246148 0.0194228 0.00341206 0.0273766 0.00314615 0.023763 0.00324084 0.0380245
61 3 O -1.46955 73.6412 1.97133 -1.2 1 0.0050451 0.00526279 0.00174461 0.00974826 0.00107548 0.00690349 0.00166275 0.0228831 0.00172475 0.0112166 0.00229415 0.02773 0.00269586 0.0196041 0.00247439 0.0265925 0.00187573 0.025698 0.00233299 0.0384101
62 3 O -1.09589 70.6215 0.846702 -1.2 1 0.00664022 0.0063108 0.00131866 0.0091322 0.0018882 0.00631392 0.00253456 0.0218174 0.00172421 0.0107787 0.00274828 0.0261941 0.00327885 0.0198381 0.00311409 0.0277466 0.00289564 0.0244221 0.00314785 0.0376899
63 1 Mg -2.19252 79.6686 3.45005 1.2 1 0.00508037 0.00600917 0.00155093 0.00960267 0.00160333 0.00769935 0.00149263 0.0216519 0.00129237 0.010507 0.00195671 0.0282399 0.00212117 0.0194641 0.00241404 0.0271258 0.00270759 0.0258062 0.00284451 0.0349544
64 3 O -1.34557 70.332 3.34515 -1.2 1 0.00577201 0.00642091 0.00122767 0.00900861 0.00185253 0.00599953 0.00255772 0.0224336 0.00184002 0.0108865 0.0030946 0.0263505 0.00247774 0.0201433 0.00366896 0.029087 0.00325356 0.0246113 0.00317161 0.0395366
65 1 Mg -2.47579 76.5115 4.79784 1.2 1 0.00450716 0.00543282 0.00158207 0.00947634 0.00137591 0.00726679 0.00194847 0.0223151 0.00274842 0.0115314 0.00224509 0.0282682 0.00251067 0.0201087 0.00288873 0.0275385 0.00355804 0.026329 0.0028413 0.0374406
66 2 Si 0.308538 78.4331 4.79494 2.4 1 0.00579349 0.00547812 0.00127713 0.0101332 0.00188457 0.00690541 0.00238681 0.0207923 0.00257947 0.0104181 0.00245319 0.0275483 0.00310987 0.0197395 0.00416605 0.0274125 0.00442344 0.0256462 0.00422567 0.0367686
67 3 O -1.22398 78.4999 4.89053 -1.2 1 0.00581231 0.0050696 0.00177188 0.00971773 0.00166543 0.00705489 0.00171469 0.0203344 0.00275795 0.0104455 0.00240769 0.0276884 0.00255703 0.0194125 0.00248574 0.0268461 0.00316955 0.0255108 0.00315626 0.0362875
68 3 O 1.3651 74.7334 4.86277 -1.2 1 0.00510772 0.00531097 0.00106517 0.00985458 0.00144562 0.00733581 0.00166776 0.0224883 0.00150259 0.0120897 0.00161579 0.0276994 0.00203976 0.0198712 0.00228472 0.0272796 0.00304898 0.0266724 0.00311558 0.0384961
69 3 O 0.993391 77.615 3.56839 -1.2 1 0.00410976 0.00525655 0.00191972 0.00978717 0.00138295 0.00707858 0.002352 0.0216667 0.00256993 0.0104031 0.00182813 0.0275498 0.0025632 0.0200399 0.00281354 0.0273542 0.00290387 0.025561 0.0029482 0.0366336
70 3 O 0.877478 77.7975 6.18231 -1.2 1 0.00633454 0.00519124 0.00117904 0.00935881 0.00162828 0.00709616 0.00148765 0.0217108 0.00208301 0.010953 0.00201342 0.0271809 0.00326219 0.0203264 0.00387697 0.0276286 0.00396273 0.0263553 0.00345698 0.0367198
71 1 Mg -0.407635 74.168 3.42555 1.2 1 0.00573916 0.00494456 0.00118456 0.00940158 0.00132533 0.00738748 0.00159007 0.0218327 0.00134312 0.0113262 0.00131108 0.0284413 0.00261571 0.018919 0.00300688 0.0273649 0.00260629 0.0258651 0.00344584 0.0378857
72 1 Mg -0.231951 71.1462 4.96727 1.2 1 0.00541217 0.00677633 0.000778485 0.00897821 0.00131017 0.00622065 0.00166893 0.022396 0.00207216 0.0117758 0.00308639 0.0276433 0.00244565 0.0205595 0.00306049 0.029634 0.003056 0.0255768 0.00282333 0.0393674
73 2 Si 1.85297 73.1061 4.82834 2.4 1 0.00581188 0.00539354 0.000853542 0.0101467 0.00218407 0.00642692 0.00180115 0.02186 0.00197569 0.0115887 0.00262608 0.0270182 0.00228531 0.0202475 0.00433747 0.0276676 0.00427047 0.0253018 0.00348887 0.0399464
74 3 O -1.2865 73.195 4.84844 -1.2 1 0.00588339 0.00504717 0.000849827 0.00973819 0.00151071 0.00627075 0.00139497 0.0215526 0.00237753 0.0114829 0.00187362 0.0271341 0.00273548 0.0195002 0.00311206 0.0273528 0.00342905 0.0246386 0.00332606 0.0388793
75 3 O 0.856763 69.0596 4.6597 -1.2 1 0.00508224 0.00645306 0.000793816 0.00875509 0.00145406 0.00618016 0.00166923 0.0219017 0.00145104 0.0108017 0.00221568 0.0263701 0.00270246 0.0201539 0.00333511 0.0290849 0.00266313 0.0247668 0.00322781 0.0397255
76 3 O 1.10174 72.4721 3.70318 -1.2 1 0.00618731 0.00569095 0.00172801 0.00943471 0.00213603 0.00655747 0.00291945 0.0225523 0.00259159 0.011266 0.00232259 0.026691 0.00296389 0.0207927 0.00401389 0.0281637 0.00354076 0.0250701 0.00364283 0.0385573
77 1 Mg -0.148755 73.7606 0.293299 1.2 1 0.00501684 0.00586289 0.00131231 0.0096118 0.00142813 0.00731065 0.00126011 0.0227042 0.00137637 0.0111889 0.00217246 0.0276389 0.00325714 0.0192597 0.00323319 0.0268474 0.00287428 0.0260241 0.00334957 0.0376937
78 3 O 1.09054 72.5605 6.19524 -1.2 1 0.00534775 0.00622328 0.00101033 0.00936558 0.00227436 0.00646725 0.00166617 0.0220702 0.00161143 0.0115641 0.00183397 0.0267583 0.00272692 0.0204835 0.00277086 0.0286812 0.00364753 0.0256247 0.00325941 0.039851
79 1 Mg 0.0898947 77.0725 1.94242 1.2 1 0.00244186 0.00510697 0.00170095 0.00976411 0.000982798 0.00761763 0.0015249 0.0220375 0.00224846 0.0109553 0.00180184 0.0282242 0.00235169 0.0203035 0.0028406 0.0278604 0.00294092 0.0265659 0.00319054 0.0367842
80 2 Si -2.11749 75.1125 1.70737 2.4 1 0.00408401 0.00480524 0.0013808 0.0104837 0.0017339 0.00650536 0.00216516 0.0220843 0.00172298 0.0107299 0.00246715 0.0275051 0.0029214 0.0199108 0.00389186 0.0267652 0.00337461 0.0261845 0.00391977 0.0381864
81 3 O 1.02055 75.0193 1.80404 -1.2 1 0.00377628 0.00436543 0.00125436 0.0105356 0.0012317 0.00668681 0.00168897 0.021623 0.00277223 0.0105225 0.00192618 0.0276751 0.00270955 0.0191783 0.00246149 0.0264166 0.00283343 0.0256727 0.00271038 0.0385213
82 3 O -1.08889 78.9386 2.03867 -1.2 1 0.00348957 0.00575572 0.00152662 0.0103103 0.00117008 0.00757073 0.00163861 0.0219744 0.00155752 0.0105854 0.00183009 0.0279958 0.00240909 0.0193184 0.00276343 0.0270074 0.00233707 0.02636 0.00264903 0.0357691
83 3 O -1.45917 75.4563 0.273747 -1.2 1 0.00247616 0.00539489 0.0021523 0.00964899 0.00194847 0.00728838 0.00299842 0.0232249 0.00166608 0.0109908 0.00231998 0.0272251 0.0026296 0.0207253 0.00382956 0.0267476 0.00283414 0.0263806 0.00340425 0.03725
84 3 O -1.44291 75.8446 2.96716 -1.2 1 0.00373055 0.00488072 0.00138855 0.0100659 0.002144 0.00685694 0.00180162 0.0214441 0.00182869 0.0105437 0.00170961 0.0277669 0.00324325 0.0197388 0.0037337 0.0269354 0.00345474 0.0258238 0.00302989 0.0379639
85 1 Mg -2.49815 79.476 0.326012 1.2 1 0.00245313 0.0056601 0.00120254 0.0104169 0.00137422 0.00744439 0.00123015 0.0223359 0.00165565 0.0102014 0.00244571 0.0275258 0.00251784 0.0202154 0.00343592 0.0270059 0.00346228 0.0261907 0.00318514 0.0345011
86 1 Mg 2.13281 82.4712 1.65168 1.2 1 0.0041121 0.00631015 0.000770937 0.00984626 0.00113168 0.00710581 0.00149806 0.0215777 0.00198074 0.0108848 0.00196933 0.0266752 0.00249851 0.0206936 0.00293975 0.0275755 0.00314122 0.0256483 0.00298862 0.0334125
87 2 Si -0.499149 80.3594 1.95181 2.4 1 0.00455052 0.00599823 0.00162703 0.0102874 0.00208267 0.00702518 0.00214697 0.0211386 0.00159221 0.00984657 0.00252812 0.0264566 0.00280948 0.0204298 0.00470118 0.0268309 0.00387428 0.0260189 0.00268717 0.0346028
88 3 O 1.04822 80.2671 1.89566 -1.2 1 0.00468812 0.00595759 0.00129455 0.0101962 0.00162544 0.00694488 0.00169869 0.0206209 0.00217607 0.0100959 0.00163119 0.0268504 0.00222444 0.0199345 0.00271033 0.0262268 0.00316293 0.0253079 0.00276425 0.034812
89 3 O -1.18795 84.219 1.57911 -1.2 1 0.00353773 0.00679731 0.00126769 0.00984944 0.000953433 0.00656873 0.00134415 0.0219656 0.00174592 0.0108677 0.00168727 0.0260844 0.00216144 0.0207058 0.00316394 0.0270811 0.00290065 0.0252306 0.00347118 0.0334556
90 3 O -1.23225 81.1674 0.619026 -1.2 1 0.00422952 0.00603616 0.000967938 0.00991232 0.00145098 0.00654454 0.00185492 0.0213326 0.00143296 0.0104162 0.00195562 0.0259565 0.00265637 0.0212725 0.00391437 0.0270048 0.00336246 0.0253148 0.00267151 0.0336927
91 1 Mg -2.365 89.9627 2.89811 1.2 1 0.00148149 0.00538159 0.00125249 0.00965184 0.0011775 0.0062965 0.00122141 0.0225491 0.00206048 0.0105948 0.00176313 0.0263049 0.00241249 0.0204917 0.00340738 0.0280357 0.00311603 0.0236385 0.00266106 0.034438
92 3 O -1.0285 81.4071 3.0338 -1.2 1 0.00497942 0.00678401 0.00139174 0.00955077 0.00144642 0.0068969 0.00118204 0.021584 0.00162367 0.00997785 0.00132544 0.0263348 0.00272572 0.0208094 0.00353794 0.0278152 0.0031325 0.0258079 0.00301021 0.0341513
93 1 Mg -2.18815 87.1081 4.36716 1.2 1 0.00183477 0.00612585 0.00131169 0.00925663 0.00115624 0.00610443 0.00174994 0.021632 0.00298421 0.0103936 0.00231365 0.0258788 0.0027479 0.0208585 0.00436634 0.0282888 0.00403942 0.0235034 0.00412103 0.0332559
94 2 Si 0.325869 89.0334 4.72838 2.4 1 0.00177449 0.00524518 0.00157193 0.00993268 0.00267693 0.00564012 0.00163458 0.0208929 0.00243784 0.010234 0.00275266 0.0248618 0.00265152 0.0212901 0.00418199 0.0282959 0.00480469 0.0218423 0.0037177 0.0332105
95 3 O -1.27524 89.0148 4.66936 -1.2 1 0.00222991 0.00524783 0.00129528 0.00952592 0.00216929 0.00564897 0.00151426 0.0211301 0.00204132 0.0102933 0.00188644 0.0255405 0.00237318 0.0205813 0.00309642 0.0283461 0.00387417 0.0216888 0.00345304 0.0337297
96 3 O 1.68839 85.3141 4.78553 -1.2 1 0.00343826 0.00632227 0.000388989 0.00882019 0.00113905 0.00653107 0.00110373 0.0218057 0.00143324 0.0112479 0.00234545 0.0263823 0.00221491 0.0204458 0.00271401 0.0273702 0.00377374 0.0236767 0.00305964 0.0336282
97 3 O 1.13134 88.2838 3.31879 -1.2 1 0.000804144 0.00570299 0.00103557 0.00969589 0.00263783 0.00613536 0.0020966 0.0216867 0.0023624 0.00978739 0.00220107 0.0251696 0.00276839 0.0217504 0.00415087 0.0282125 0.00411903 0.0232181 0.00415651 0.0342985
98 3 O 0.901993 88.3521 5.86539 -1.2 1 0.00338099 0.00572626 0.00106112 0.00890409 0.00269409 0.00631106 0.00137075 0.0219523 0.00245759 0.0109595 0.00223397 0.0251619 0.00250508 0.0214969 0.00358303 0.0282534 0.00450646 0.0226563 0.0039929 0.0321607
99 1 Mg 0.433232 85.0991 3.32699 1.2 1 0.00301272 0.00637662 0.000852776 0.00908348 0.00102407 0.00682227 0.0018173 0.0214998 0.00191454 0.010564 0.00212889 0.0264636 0.00231022 0.0203468 0.00429056 0.0276062 0.00390454 0.0242984 0.00386958 0.0327477
100 1 Mg 0.141886 81.8799 4.92798 1.2 1 0.00610764 0.0066762 0.0013659 0.0086758 0.0013342 0.00692572 0.00176661 0.0213423 0.00221815 0.0110163 0.00173119 0.0265457 0.00246412 0.0211967 0.00299248 0.0277159 0.00312993 0.0253761 0.0024778 0.0340806
101 2 Si 2.27935 83.6569 4.89091 2.4 1 0.00538929 0.0062969 0.00121003 0.00929761 0.00170094 0.0059645 0.00175068 0.0205594 0.00136406 0.0100253 0.00289371 0.025009 0.00292398 0.0215603 0.00313973 0.0276476 0.00358658 0.0237838 0.00305995 0.0331932
102 3 O -0.938033 83.9219 5.04547 -1.2 1 0.00508252 0.00599249 0.000844095 0.00910897 0.0017672 0.00636576 0.00149904 0.0206383 0.00191166 0.0101689 0.00157497 0.0257058 0.00191611 0.0201935 0.00256991 0.0277194 0.00321718 0.0235322 0.00271726 0.0327403
103 3 O 0.883869 79.8426 4.58615 -1.2 1 0.00570088 0.00627253 0.00165092 0.00947658 0.00172788 0.0076843 0.00201045 0.0218216 0.00193446 0.0112789 0.00231382 0.027887 0.0028169 0.0198224 0.00300048 0.0265433 0.00345394 0.0256775 0.00278909 0.0354115
104 3 O 1.64469 83.2404 3.51584 -1.2 1 0.00452796 0.00656311 0.00152994 0.00946942 0.00182265 0.0063624 0.00227602 0.0208804 0.00213141 0.00954052 0.00224142 0.0256164 0.0026118 0.021505 0.00369525 0.0277774 0.00338783 0.0243702 0.00285766 0.0338382
105 1 Mg 0.0461587 84.6259 0.125524 1.2 1 0.00348498 0.00617657 0.00125271 0.00957128 0.00100418 0.00683931 0.00140265 0.021298 0.00177154 0.0112655 0.0018925 0.0263665 0.00246412 0.0199263 0.0032041 0.0265594 0.00311298 0.0244595 0.0040447 0.0330759
106 3 O 1.53365 83.1292 6.11563 -1.2 1 0.00626644 0.00653385 0.00107456 0.00844822 0.00211022 0.00637023 0.00208185 0.0209248 0.00198084 0.0104035 0.00248818 0.0252833 0.00270546 0.0207697 0.00317303 0.0273941 0.00328357 0.023537 0.00274716 0.0331899
107 1 Mg 0.0423461 87.5077 1.80791 1.2 1 0.00178578 0.00621689 0.00145155 0.00957216 0.00157792 0.00601242 0.00138401 0.0219451 0.00267622 0.0106116 0.00341001 0.0257515 0.00291657 0.020802 0.00431496 0.0280644 0.00395805 0.023583 0.00457197 0.0343676
108 2 Si -1.86019 85.62 1.67065 2.4 1 0.00277077 0.00610717 0.00133797 0.00998275 0.00159337 0.00554169 0.00155032 0.0209547 0.00217602 0.00976173 0.00257414 0.0248405 0.00329276 0.0209576 0.00507027 0.0271459 0.00453888 0.0237329 0.00499013 0.0337798
109 3 O 1.4607 85.5795 1.64962 -1.2 1 0.0022314 0.00588183 0.00122178 0.0100045 0.00142187 0.00559797 0.00130072 0.0205088 0.00251538 0.00961413 0.00185311 0.0255602 0.00230419 0.0203826 0.00341144 0.0272074 0.00324886 0.0233305 0.00448506 0.0332889
110 3 O -1.24252 89.6409 1.38634 -1.2 1 0.00313229 0.00500452 0.0012953 0.00955289 0.00131355 0.00603908 0.00140607 0.0226742 0.00139163 0.0104686 0.00223614 0.0261451 0.00221482 0.0200773 0.00370392 0.0277649 0.00277534 0.0236243 0.00312208 0.0345045
111 3 O -1.45156 86.4817 0.352257 -1.2 1 0.00308119 0.00587188 0.00115555 0.00935992 0.00191342 0.00597432 0.00203099 0.0217336 0.00193938 0.0103131 0.00198971 0.0247907 0.00321511 0.0209782 0.004512 0.0278745 0.00421876 0.0236386 0.00472225 0.0335206
112 3 O -1.279 86.3257 2.85288 -1.2 1 0.00168184 0.00604909 0.00061649 0.00921149 0.001235 0.00637018 0.00214251 0.0219697 0.00199894 0.00982135 0.00230665 0.0253987 0.00258568 0.0211871 0.00390844 0.0276589 0.00375727 0.0240653 0.00430699 0.0337553
113 1 Mg -2.56718 90.1145 0.195932 1.2 1 0.00397419 0.00519285 0.00134317 0.00903314 0.00122452 0.00637792 0.00109576 0.022547 0.00154487 0.0109733 0.00199766 0.0267102 0.00253085 0.0194596 0.00336742 0.0270606 0.00281249 0.0239278 0.00349861 0.0343511
114 1 Mg 2.44468 93.0303 1.96597 1.2 1 0.00273578 0.00436633 0.00149748 0.00883341 0.00140249 0.00656637 0.00140834 0.0224717 0.00229871 0.0106215 0.00261231 0.0258742 0.00281676 0.0198873 0.00382535 0.0281628 0.00412825 0.0229805 0.0034319 0.0344921
115 2 Si -0.459549 91.1648 1.58575 2.4 1 0.00313016 0.00463501 0.00122547 0.0100258 0.00181556 0.00606087 0.00220408 0.0218992 0.00227448 0.00972856 0.002242 0.0253391 0.00238673 0.0205274 0.00379616 0.0281266 0.00341085 0.0234168 0.00284149 0.0354455
116 3 O 1.12913 90.8993 1.75976 -1.2 1 0.00268377 0.0044693 0.00139122 0.00951155 0.0013714 0.0057723 0.00126474 0.0219636 0.00212554 0.0104714 0.00168159 0.0259597 0.00268348 0.0199421 0.00387856 0.0270557 0.00412295 0.0224348 0.00301343 0.0344979
117 3 O -1.38921 94.9927 1.80184 -1.2 1 0.0019521 0.00502721 0.00126216 0.00896637 0.00162807 0.00657801 0.00149065 0.0220955 0.00212851 0.0106655 0.00303761 0.0261064 0.00303901 0.0195184 0.00519868 0.0276028 0.00346942 0.0230024 0.00416406 0.0338283
118 3 O -1.22142 92.0212 0.33849 -1.2 1 0.0032069 0.00475628 0.00129828 0.00867984 0.00215025 0.00611979 0.00276559 0.0228246 0.00284915 0.010134 0.00221618 0.0256409 0.00272143 0.0206018 0.00328734 0.0283204 0.00273351 0.0240803 0.00318644 0.0350465
119 1 Mg -2.05953 101.047 3.08313 1.2 1 0.00106721 0.00658925 0.00107412 0.00933074 0.00130991 0.00713738 0.00163197 0.0212278 0.0012097 0.0119105 0.00186479 0.0268544 0.00293304 0.0199399 0.00360603 0.0289529 0.00280931 0.0242932 0.00417854 0.0343912