ITEM: TIMESTEP
70000
ITEM: NUMBER OF ATOMS
5600
ITEM: BOX BOUNDS xy xz yz pp pp pp
0	7.1235	0
0	201.985	2.3745
0	119.584	0
ITEM: ATOMS id type element xu yu zu q Q_1 Q_2 Q_3 Q_4 Q_5 Q_6 Q_7 Q_8 Q_9 Q_10 Q_11 Q_12 Q_13 Q_14 Q_15 Q_16 Q_17 Q_18 Q_19 Q_20 Q_21
1 1 Mg -1.90305 48.3073 -1.40668 1.2 1 0.2278 0.0815165 0.0161987 0.0259629 0.00364839 0.0151329 0.0032529 0.0177613 0.00463786 0.0251243 0.00701782 0.0227573 0.00766987 0.0233193 0.00981924 0.0253021 0.00876268 0.0225319 0.0108886 0.029119
2 1 Mg 2.77333 50.4454 1.63804 1.2 1 0.167413 0.0683444 0.00496762 0.0179336 0.00215888 0.0109518 0.00248886 0.018098 0.00358065 0.0216843 0.00634568 0.0251234 0.00593572 0.0215214 0.00759996 0.0271881 0.00564038 0.0215265 0.00838762 0.0325986
3 2 Si 0.697075 49.6591 -0.157631 2.4 1 0.191638 0.0737268 0.00852963 0.0217862 0.00277006 0.012119 0.00274375 0.0185128 0.00359975 0.0226602 0.00695119 0.0237518 0.00600079 0.0217079 0.00749817 0.025661 0.00678471 0.0209535 0.00880684 0.0311035
4 3 O 2.04313 48.9116 0.0692519 -1.2 1 0.208067 0.0780427 0.0124869 0.0239798 0.00239338 0.0131774 0.0030471 0.018581 0.00450625 0.0239432 0.00672239 0.0241233 0.00651998 0.0235835 0.00863397 0.0268718 0.00770577 0.0223494 0.00986258 0.0308951
5 3 O -1.74748 52.5111 1.28849 -1.2 1 0.122387 0.0525511 0.00190792 0.0128567 0.00223694 0.0096041 0.00246733 0.0171379 0.00331328 0.0183816 0.00538999 0.0249228 0.00421393 0.0184007 0.00569007 0.0258087 0.00427287 0.0207424 0.0069497 0.0331452
6 3 O 0.0196388 48.9366 -1.30509 -1.2 1 0.205762 0.0753218 0.0125685 0.0227894 0.00318388 0.0135336 0.00243031 0.0181904 0.00342959 0.0242948 0.005893 0.0227484 0.00596202 0.0228166 0.00724891 0.0252823 0.00687679 0.0215019 0.00845213 0.0295986
7 1 Mg -2.49269 58.5192 2.67198 1.2 1 0.014362 0.0152552 0.00545544 0.00770812 0.0021318 0.00672032 0.00166553 0.0189623 0.00318684 0.0119755 0.00309206 0.0255874 0.00370235 0.0197749 0.0048669 0.0265793 0.00520328 0.0219934 0.00432475 0.035196
8 3 O -0.184215 49.8178 1.1083 -1.2 1 0.186225 0.0740641 0.00712384 0.0209028 0.00279034 0.0122005 0.00398432 0.0189951 0.00466628 0.0225944 0.00649625 0.0243095 0.0063537 0.0224417 0.00840247 0.0277189 0.00665219 0.0217788 0.00892723 0.0319885
9 1 Mg -2.50668 55.3663 4.63958 1.2 1 0.0645162 0.0347759 0.00541774 0.00926658 0.0026795 0.00628583 0.0014341 0.0181417 0.00303569 0.0154519 0.00375445 0.0257885 0.00461248 0.0190467 0.0045922 0.0253111 0.00577886 0.0216999 0.00573067 0.0346393
10 2 Si 0.285147 57.617 4.11787 2.4 1 0.0224853 0.0184418 0.00660827 0.00837243 0.00261063 0.00627715 0.00149281 0.0185964 0.00259598 0.0119257 0.00402242 0.0242842 0.00534584 0.0198165 0.00555949 0.0263719 0.005279 0.0223628 0.00491523 0.0353656
11 3 O -1.19203 57.3319 4.32133 -1.2 1 0.023478 0.0192648 0.00750304 0.00778022 0.00284358 0.00629336 0.00234472 0.0182208 0.00290364 0.0125311 0.00286557 0.0250431 0.00405614 0.0198567 0.00518354 0.0264984 0.00601645 0.0223135 0.00545514 0.0355436
12 3 O 0.880839 53.3756 4.48456 -1.2 1 0.107171 0.0489145 0.00291503 0.0125801 0.00227992 0.00743134 0.00171161 0.0180579 0.00344984 0.0189255 0.0033869 0.0260924 0.00452675 0.0199795 0.00406001 0.0249421 0.00587436 0.0213579 0.00590417 0.0335737
13 3 O 0.815305 56.9941 2.84097 -1.2 1 0.0327232 0.0240683 0.00783332 0.00781585 0.00180388 0.00604704 0.00216098 0.0188563 0.00267643 0.0126234 0.00346775 0.0251858 0.00481327 0.0186883 0.00504397 0.0261272 0.0053115 0.0221117 0.00504601 0.0356045
14 3 O 1.12489 56.6436 5.58556 -1.2 1 0.0382796 0.0258826 0.00800242 0.00797146 0.00264299 0.00627209 0.00164886 0.0192861 0.00228415 0.0145513 0.00250817 0.0251484 0.00495815 0.0199602 0.00514226 0.0260613 0.00609466 0.0220266 0.00578715 0.0340824
15 1 Mg -0.301601 52.9889 2.83906 1.2 1 0.116006 0.0511346 0.00257506 0.012422 0.00196463 0.00922298 0.00199951 0.0179328 0.00231798 0.0187377 0.00444542 0.0260217 0.00408264 0.0185219 0.00482126 0.0249609 0.00424548 0.0206069 0.00627112 0.0343507
16 1 Mg 0.349285 49.0703 2.84571 1.2 1 0.20603 0.0779948 0.0107456 0.0227245 0.00262526 0.0140987 0.00308197 0.0195904 0.00389437 0.0248346 0.00562029 0.027045 0.00612347 0.0235251 0.00897055 0.0280392 0.00878592 0.022897 0.0099724 0.0338261
17 2 Si 1.69636 51.9199 4.38728 2.4 1 0.14656 0.0601945 0.00326845 0.0156853 0.00243889 0.00964709 0.00241511 0.0184971 0.00286668 0.0210025 0.00416076 0.0259546 0.0044453 0.0214873 0.00508488 0.0258231 0.00576294 0.0205098 0.00612873 0.0338086
18 3 O -1.43991 52.0848 4.3528 -1.2 1 0.137314 0.0581284 0.00321517 0.0145721 0.00249587 0.0082091 0.00195975 0.0180288 0.00332139 0.0202368 0.00375554 0.0261947 0.00490475 0.0210541 0.00503215 0.0254885 0.00570741 0.0207399 0.00653772 0.0341934
19 3 O 2.59434 48.6271 3.04981 -1.2 1 0.213089 0.0814214 0.0111942 0.0242846 0.00265339 0.0155374 0.00350705 0.0195751 0.00405421 0.0259244 0.00549499 0.0279402 0.00699047 0.0233241 0.00876555 0.0275831 0.00819563 0.0229108 0.0093369 0.0346193
20 3 O 1.18437 51.3367 2.97393 -1.2 1 0.149122 0.0612433 0.00340451 0.0156248 0.00195935 0.00971429 0.00257788 0.0176613 0.00260587 0.0202545 0.00426019 0.0258675 0.00537917 0.0207491 0.00592062 0.0264246 0.00522766 0.0212101 0.00710599 0.0339403
21 1 Mg -0.283413 53.2917 -0.140987 1.2 1 0.104532 0.047658 0.00292302 0.0116971 0.0020245 0.00798689 0.00250103 0.016346 0.00244171 0.016795 0.00508281 0.0236527 0.00387177 0.018113 0.00430078 0.0245768 0.00401136 0.0199932 0.00636375 0.0310775
22 3 O 1.14141 51.214 5.72576 -1.2 1 0.154051 0.0602425 0.00499093 0.0155528 0.0033442 0.00895238 0.00244317 0.0189225 0.00373661 0.0218204 0.00432202 0.0265737 0.0061072 0.0228212 0.00451197 0.0259614 0.00606339 0.0206116 0.0067549 0.0326416
23 1 Mg -0.0792165 56.2123 1.36866 1.2 1 0.0474912 0.0292049 0.00708099 0.00785527 0.00144806 0.00655953 0.00175163 0.0174708 0.00401292 0.0131596 0.00538033 0.0252509 0.00472311 0.0178462 0.00554485 0.0255611 0.00530949 0.0208919 0.00529316 0.0345518
24 2 Si -2.44657 53.8984 1.46145 2.4 1 0.0999762 0.0457799 0.00284229 0.0109905 0.0020769 0.00822889 0.00240187 0.0172287 0.00278587 0.0165325 0.00471 0.0242796 0.00392321 0.0176943 0.00488651 0.0249989 0.00474466 0.0199634 0.00601998 0.0343075
25 3 O 0.776455 53.9963 1.31511 -1.2 1 0.0989694 0.0443935 0.00267109 0.0114757 0.00205348 0.00910381 0.00221743 0.0163951 0.00279908 0.0162184 0.00508207 0.0249029 0.00398298 0.017473 0.00531904 0.0250491 0.00422575 0.0199546 0.00657258 0.0333573
26 3 O -1.21652 57.9773 1.34367 -1.2 1 0.0202819 0.0185744 0.0073457 0.00712036 0.0016602 0.00608683 0.00165772 0.0197832 0.00353792 0.0117468 0.00382909 0.0252394 0.00322239 0.0182699 0.00438916 0.0258199 0.00541632 0.0215642 0.00472712 0.0354506
27 3 O -1.45418 54.9879 0.477275 -1.2 1 0.0709899 0.0370402 0.00496784 0.0091746 0.00202773 0.00717692 0.00243398 0.0174092 0.00255392 0.0146275 0.00490119 0.0239109 0.00398109 0.0174998 0.00418293 0.0251989 0.00457424 0.020909 0.00547824 0.0329973
28 3 O -1.85253 54.5037 2.8784 -1.2 1 0.0864375 0.0413587 0.00407916 0.00989641 0.0019657 0.00792176 0.00188177 0.0183398 0.00175385 0.0161471 0.00443094 0.0253453 0.00376103 0.0178441 0.00480821 0.0246532 0.00515301 0.0213501 0.00582109 0.0341653
29 1 Mg -2.55639 58.4212 -0.0276576 1.2 1 0.013688 0.0144067 0.00585816 0.00755459 0.00176537 0.0065023 0.00215051 0.0187651 0.00272993 0.0120239 0.00350134 0.0254758 0.00353906 0.0185511 0.00451096 0.0254327 0.00447661 0.0210918 0.00347864 0.0343467
30 1 Mg 2.25288 61.4944 1.07526 1.2 1 0.00171542 0.00716232 0.00104934 0.00971124 0.00115964 0.00736106 0.00100851 0.0197382 0.00265971 0.0117418 0.00182459 0.0268401 0.00267413 0.0206092 0.00332671 0.0275857 0.00319615 0.0221521 0.0034819 0.0355815
31 2 Si -0.540203 59.4187 1.22345 2.4 1 0.00757696 0.0113088 0.00344004 0.00879942 0.00148064 0.00623048 0.00154643 0.0182736 0.00240873 0.0109853 0.00356658 0.0253066 0.00279895 0.0202388 0.0046245 0.0262514 0.00509778 0.0211774 0.00395061 0.0354904
32 3 O 0.910043 59.4288 1.14418 -1.2 1 0.00774376 0.0111814 0.00350765 0.008319 0.00146322 0.00653073 0.00126434 0.0192896 0.00288503 0.0112927 0.00316815 0.0253577 0.00228734 0.0197971 0.00374799 0.0265661 0.00463683 0.0219203 0.00352799 0.0359576
33 3 O -1.44059 63.4263 1.10532 -1.2 1 0.00125261 0.00635877 0.00152207 0.0100862 0.000805384 0.00702089 0.00122219 0.0209903 0.00195381 0.0121951 0.00307716 0.0264207 0.00280344 0.0204201 0.0027817 0.02768 0.0032058 0.0219716 0.00370503 0.0359346
34 3 O -1.32546 60.2849 0.145692 -1.2 1 0.00486413 0.00917048 0.00263424 0.00862877 0.00115606 0.00703582 0.00134453 0.0187929 0.00273753 0.0112732 0.00303242 0.0254984 0.00249285 0.0205791 0.00336269 0.0267632 0.00432489 0.0213746 0.00328289 0.034751
35 1 Mg -2.30618 69.0546 2.84937 1.2 1 0.00113233 0.00511222 0.000986969 0.00915255 0.000898156 0.00766367 0.00151765 0.0224915 0.00169322 0.011902 0.00174938 0.0278204 0.00235177 0.0207107 0.00363261 0.0296441 0.00299432 0.0233528 0.00347076 0.0380502
36 3 O -1.22092 60.1433 2.46838 -1.2 1 0.00543688 0.00976951 0.00266361 0.00890851 0.00176516 0.00603328 0.00186822 0.0188883 0.00241004 0.01122 0.00237923 0.0249564 0.00314948 0.0205271 0.00366974 0.0268244 0.00400088 0.0217133 0.0037971 0.0348182
37 1 Mg -2.44665 65.936 4.29351 1.2 1 0.00142053 0.00548883 0.0018457 0.00909207 0.000953404 0.0068437 0.00156287 0.0216914 0.00266734 0.0122923 0.00363709 0.0263548 0.0029836 0.0205361 0.00409799 0.0281847 0.00320654 0.0223779 0.00456786 0.0363866
38 2 Si 0.419123 68.0461 4.25005 2.4 1 0.00177904 0.00494991 0.001167 0.00982225 0.0018261 0.0066219 0.00195523 0.0215094 0.00193388 0.0116424 0.00245676 0.0267552 0.00365524 0.0211873 0.00425335 0.0289238 0.00289178 0.0225663 0.00445313 0.038125
39 3 O -1.18421 68.1279 4.30013 -1.2 1 0.00175583 0.00487361 0.00104506 0.00951973 0.00125995 0.00647487 0.00176714 0.0211893 0.00266486 0.0114496 0.00298161 0.0266228 0.00240378 0.0209596 0.00225286 0.0286662 0.00214271 0.0225923 0.00437556 0.0374741
40 3 O 1.22584 64.2308 4.3248 -1.2 1 0.00148149 0.00590328 0.00112404 0.00934827 0.001436 0.00653245 0.00134904 0.0207456 0.0022519 0.0119051 0.00216086 0.0258136 0.00324765 0.0202591 0.00388092 0.0274664 0.00373156 0.0222675 0.00468311 0.0356092
41 3 O 1.09082 67.4598 2.92083 -1.2 1 0.0002157 0.00494672 0.00100178 0.00932493 0.00137909 0.00735047 0.00149425 0.021755 0.00174821 0.0121301 0.00144205 0.0265426 0.00296425 0.020803 0.00405161 0.0289363 0.00335682 0.0225744 0.00467191 0.0377163
42 3 O 1.0889 67.4973 5.59156 -1.2 1 0.00281376 0.00521116 0.000869456 0.00857953 0.00190362 0.00645893 0.00291183 0.0219887 0.00188949 0.0114404 0.00274371 0.0260183 0.0030292 0.021305 0.00327469 0.0287028 0.0031935 0.0233027 0.00428323 0.0369292
43 1 Mg 0.0274032 63.408 2.52788 1.2 1 0.00139211 0.00637855 0.00164508 0.00984568 0.00124711 0.00685856 0.00118255 0.0207774 0.00210738 0.0119903 0.00286312 0.026076 0.00298883 0.0207127 0.00272238 0.0276553 0.00237662 0.0220638 0.00403524 0.0352726
44 1 Mg 0.167493 60.8696 4.2689 1.2 1 0.00370433 0.00834267 0.00159567 0.00839152 0.00236056 0.00706568 0.00111122 0.019652 0.0021423 0.0123221 0.00213408 0.0249821 0.00357487 0.0205373 0.00388153 0.0273318 0.00448291 0.0225404 0.00472161 0.034163
45 2 Si 2.02655 62.6961 4.19814 2.4 1 0.00160271 0.00621085 0.00177243 0.00962266 0.00250013 0.00674886 0.00140209 0.0195701 0.00182889 0.0114711 0.00242557 0.0248249 0.00346659 0.0211352 0.0036336 0.0277262 0.00387066 0.0221037 0.00396956 0.0351482
46 3 O -1.13999 62.8297 4.31945 -1.2 1 0.0015701 0.00613997 0.00177731 0.00946381 0.0022954 0.00651704 0.00171519 0.0199034 0.00240422 0.0115509 0.00254446 0.0254876 0.00429706 0.0203702 0.00420249 0.0274808 0.00544471 0.0220596 0.00483134 0.0352452
47 3 O 0.942115 58.904 4.43279 -1.2 1 0.0129859 0.0137499 0.00458743 0.00811949 0.00299415 0.00693794 0.00203018 0.018801 0.00326996 0.0127538 0.00314758 0.0255071 0.00439036 0.0201015 0.00521417 0.0266704 0.00491742 0.0222489 0.00500468 0.0347629
48 3 O 1.35437 62.0337 2.8469 -1.2 1 0.00121076 0.0067247 0.00168933 0.00955723 0.00255056 0.00722128 0.00202641 0.0200407 0.00160867 0.0115121 0.00227776 0.0254649 0.00312167 0.0211582 0.0032624 0.0276937 0.00285446 0.0222213 0.0038919 0.0349327
49 1 Mg -0.0190764 64.0115 -0.149808 1.2 1 0.00177317 0.00558769 0.00135948 0.0098348 0.000857136 0.00757937 0.00135829 0.0212776 0.0016779 0.0121776 0.00205339 0.0271393 0.00250197 0.0207462 0.00296611 0.0289058 0.00273949 0.021956 0.00379362 0.0362732
50 3 O 1.51736 61.923 5.53803 -1.2 1 0.00269098 0.00669844 0.00138181 0.00868996 0.00220275 0.00700298 0.00164891 0.0196178 0.00217798 0.0118955 0.0023516 0.0251566 0.00323678 0.0211312 0.00311526 0.0275414 0.00389883 0.0221601 0.00425642 0.033977
51 1 Mg -0.0978811 66.9315 1.10813 1.2 1 0.000936171 0.00494931 0.00164209 0.0093293 0.000880601 0.00789389 0.0018844 0.0219304 0.00212288 0.0125251 0.00191857 0.0273612 0.00209039 0.0206131 0.00255515 0.028637 0.00285411 0.0225103 0.00356378 0.0374058
52 2 Si -2.12582 65.1213 1.31917 2.4 1 0.000677068 0.00509446 0.00137773 0.0100676 0.00097275 0.00714665 0.00169498 0.0212082 0.00220456 0.0117452 0.00245276 0.0257517 0.0025427 0.0209694 0.00246688 0.0284431 0.00208477 0.0218468 0.00363175 0.0365173
53 3 O 1.0256 64.7766 1.37975 -1.2 1 0.00101397 0.00491483 0.00133505 0.00993938 0.000924927 0.00694035 0.00195004 0.0206397 0.00307769 0.0116899 0.00245419 0.0263054 0.00219687 0.0211393 0.00284874 0.0289191 0.00278291 0.0214258 0.0036931 0.0362792
54 3 O -1.06141 68.9843 1.30659 -1.2 1 0.0014613 0.00495302 0.000776066 0.00976156 0.00120369 0.00725717 0.00134498 0.022381 0.00197373 0.0121468 0.00211092 0.0279875 0.00153062 0.0205443 0.00325723 0.0292751 0.00331971 0.0230099 0.00369353 0.0386537
55 3 O -1.48743 65.7005 0.0305913 -1.2 1 0.00152598 0.00502283 0.00108473 0.00976454 0.00111231 0.00788739 0.00180505 0.0218898 0.00240861 0.0116148 0.00169646 0.026531 0.00245983 0.0211322 0.00300311 0.0292593 0.00294929 0.0218934 0.00379283 0.0374759
56 3 O -1.48595 65.9763 2.48252 -1.2 1 0.000351933 0.00498113 0.00132526 0.00899936 0.000832663 0.00787356 0.00179498 0.0216507 0.00189462 0.0120438 0.00249919 0.0263038 0.00249442 0.0211204 0.0031906 0.0290874 0.00211488 0.0222766 0.00372177 0.0366684
57 1 Mg -2.42333 69.5526 -0.271051 1.2 1 0.00254771 0.00463787 0.00109364 0.0096468 0.00145735 0.00771797 0.00157999 0.0225906 0.00196709 0.0119961 0.00161553 0.0277083 0.00218203 0.0207759 0.00421282 0.0294069 0.00397089 0.0232031 0.00304743 0.0391115
58 1 Mg 2.358 72.5075 1.31112 1.2 1 0.0018005 0.00520145 0.00135815 0.00869267 0.00111164 0.00701 0.00131637 0.0233527 0.00200614 0.0121928 0.00217125 0.0279682 0.00266502 0.0206441 0.00383475 0.0301254 0.00403452 0.0249439 0.00390689 0.039739
59 2 Si -0.358532 70.4762 1.36679 2.4 1 0.00210046 0.00462896 0.000937 0.00992611 0.00231107 0.00692827 0.00179417 0.0225067 0.00176609 0.0117984 0.00183518 0.0276442 0.002356 0.0208106 0.00431964 0.0301179 0.00399049 0.0236251 0.00393976 0.039229
60 3 O 1.17443 70.3977 1.21818 -1.2 1 0.00229001 0.00470974 0.000782021 0.00975673 0.00190299 0.00660926 0.00142949 0.021962 0.00284467 0.0117298 0.00161386 0.0276093 0.00283201 0.0209065 0.00561276 0.0300387 0.00520426 0.0230253 0.00492703 0.0398567
61 3 O -1.35611 74.2302 1.59384 -1.2 1 0.00250643 0.00453509 0.000963104 0.00893702 0.00131066 0.00705693 0.00113516 0.0229079 0.00203101 0.0115535 0.00162193 0.0275581 0.00227196 0.0198697 0.00447913 0.0292522 0.00308932 0.0255371 0.00360153 0.0399659
62 3 O -1.26338 71.0924 0.0751647 -1.2 1 0.0030692 0.00480164 0.00118553 0.00881221 0.00189331 0.00683118 0.0012776 0.0229308 0.00197321 0.0120729 0.00195786 0.0269459 0.00290387 0.0211584 0.00499656 0.0296845 0.00511472 0.024129 0.00408549 0.0390948
63 1 Mg -2.31726 79.6777 3.14971 1.2 1 0.00306975 0.00469154 0.000949015 0.00800867 0.00124173 0.00705526 0.00109694 0.0212962 0.00205204 0.0103109 0.00173846 0.0267403 0.00219524 0.0183971 0.00222374 0.0267521 0.00264584 0.0258478 0.00260123 0.03739
64 3 O -1.14722 71.061 2.69318 -1.2 1 0.00153305 0.00449894 0.000988722 0.00896064 0.00137954 0.00735986 0.0014745 0.0228381 0.00198914 0.0116447 0.00188541 0.0271242 0.00177177 0.0210785 0.00287377 0.0307108 0.00297122 0.023953 0.00288892 0.0391201
65 1 Mg -2.09953 76.9588 4.59391 1.2 1 0.00397716 0.00399086 0.00152198 0.00821195 0.000969475 0.00693133 0.00132571 0.0213452 0.00193421 0.0105435 0.00154966 0.0270211 0.00256715 0.0195193 0.00407487 0.0286814 0.00340354 0.0253367 0.00293567 0.0385081
66 2 Si 0.425703 78.6316 4.60794 2.4 1 0.00412246 0.003984 0.00109277 0.00903106 0.00132887 0.00692689 0.00185694 0.0209165 0.00210533 0.0103217 0.00300135 0.0255002 0.00248604 0.0194471 0.00402134 0.0270283 0.00406664 0.0243704 0.00314883 0.038712
67 3 O -1.09098 78.7381 4.50297 -1.2 1 0.00413397 0.00392031 0.00142377 0.0087842 0.00112925 0.00668625 0.00183262 0.0202088 0.00294412 0.00999217 0.00187672 0.0259292 0.00254936 0.0187356 0.00327118 0.0271885 0.00294124 0.0245625 0.00250958 0.0381546
68 3 O 1.2924 74.9044 4.53762 -1.2 1 0.00192017 0.00416062 0.00118642 0.00909635 0.00120114 0.00716418 0.00165373 0.022366 0.00200413 0.0108259 0.00240419 0.0273435 0.00252572 0.019956 0.00309169 0.0292813 0.00266198 0.0254199 0.00335723 0.0397564
69 3 O 1.12069 77.8994 3.2018 -1.2 1 0.00343469 0.00436618 0.00128144 0.00846338 0.00110857 0.00691265 0.00144097 0.021503 0.00174366 0.010608 0.0025727 0.0260958 0.00276975 0.0193446 0.0030222 0.0278024 0.00362173 0.0257581 0.00275848 0.0386598
70 3 O 1.24459 77.9988 5.79798 -1.2 1 0.0042896 0.0041763 0.00094893 0.00827417 0.00117607 0.00707012 0.0015706 0.020886 0.00190472 0.0100357 0.00221136 0.0258082 0.0024846 0.0197911 0.0033607 0.027602 0.00354722 0.0242493 0.00292787 0.0372578
71 1 Mg -0.0113575 74.8133 3.0543 1.2 1 0.00211759 0.00449467 0.000771058 0.00893771 0.000927142 0.0072407 0.0012616 0.0226649 0.00156474 0.0112827 0.00169228 0.0274827 0.00228747 0.0195284 0.00294629 0.0292034 0.00220969 0.02578 0.00320078 0.0392941
72 1 Mg 0.00571422 71.4115 4.15363 1.2 1 0.0013818 0.00505455 0.000781408 0.00921162 0.000704495 0.00760036 0.00134349 0.0228217 0.00190543 0.0115506 0.0025091 0.0283376 0.00153435 0.0211003 0.00298296 0.0300036 0.00301837 0.0242057 0.00308541 0.039547
73 2 Si 1.99966 73.3237 4.31868 2.4 1 0.00153557 0.00437554 0.000752892 0.00978073 0.00155659 0.00689674 0.00143659 0.0222363 0.00199394 0.0110259 0.00254145 0.0266973 0.00226489 0.0208314 0.0034917 0.0294723 0.00261474 0.0255819 0.00284289 0.0403613
74 3 O -1.21863 73.5703 4.50963 -1.2 1 0.00136375 0.00441563 0.000850164 0.00997313 0.00113416 0.00684781 0.00164306 0.0221637 0.0026488 0.0108083 0.00222264 0.0271049 0.00249043 0.0201825 0.00345611 0.029461 0.00320418 0.0247075 0.00373787 0.0406077
75 3 O 0.938379 69.6743 4.19038 -1.2 1 0.00203211 0.00516973 0.000886636 0.00933157 0.00109932 0.00726829 0.00143932 0.0231565 0.00195522 0.0117359 0.00176635 0.0280252 0.00251222 0.0210575 0.00378228 0.0292079 0.00326833 0.0238415 0.0036565 0.0388459
76 3 O 1.28526 72.7597 2.97481 -1.2 1 0.00143579 0.00443976 0.00138759 0.00892825 0.00131527 0.00722309 0.00158216 0.0226966 0.00250424 0.0111386 0.00175963 0.027623 0.0022354 0.0208648 0.00315462 0.0298644 0.00262247 0.0248795 0.00267098 0.0399132
77 1 Mg 0.0874803 74.5845 -0.144728 1.2 1 0.00284077 0.00477914 0.00106467 0.00853303 0.0010926 0.00714264 0.00131634 0.0225631 0.00163131 0.0116352 0.0017425 0.0274442 0.00254035 0.0192306 0.0039518 0.0298942 0.00383192 0.0261175 0.00390905 0.0392618
78 3 O 1.22698 72.7208 5.61498 -1.2 1 0.00179351 0.00463826 0.000620606 0.00926177 0.00135935 0.0072776 0.00121127 0.0225545 0.00184873 0.0111612 0.00193874 0.0271467 0.00263447 0.0209696 0.00300072 0.0300365 0.00303795 0.024643 0.00365946 0.0403026
79 1 Mg -0.125838 77.5093 1.19396 1.2 1 0.00288199 0.00468059 0.0013142 0.00836736 0.000999706 0.0067312 0.00138611 0.022864 0.00197352 0.0113821 0.00191724 0.026982 0.00279715 0.019285 0.00402547 0.0291336 0.00411462 0.0272868 0.0041059 0.0389777
80 2 Si -2.16303 75.5383 1.58027 2.4 1 0.00233206 0.00414623 0.00114683 0.00918888 0.0021371 0.00666711 0.00170569 0.0220423 0.00178833 0.0113673 0.00159597 0.0261367 0.00279759 0.019944 0.00382455 0.0290329 0.00355599 0.0263199 0.00310542 0.040209
81 3 O 0.99607 75.3272 1.50102 -1.2 1 0.00243896 0.0039264 0.000987354 0.00904646 0.00168306 0.006733 0.00112791 0.0215725 0.0029562 0.0107967 0.00166881 0.0271265 0.00219066 0.0192494 0.00438263 0.0287246 0.00359293 0.025555 0.00380809 0.0397939
82 3 O -1.06692 79.353 1.42802 -1.2 1 0.00267757 0.00496036 0.000572991 0.00854011 0.00147355 0.00690285 0.00114978 0.0216257 0.00154612 0.0109393 0.00209701 0.0273761 0.00222394 0.0185397 0.00284865 0.0271216 0.00263603 0.026272 0.00388515 0.0382868
83 3 O -1.628 76.2695 0.151393 -1.2 1 0.00265252 0.0046677 0.00142115 0.00893014 0.0016783 0.00674698 0.00166015 0.0219648 0.00181853 0.011306 0.00175393 0.0264552 0.0032402 0.0195454 0.00395841 0.0293728 0.00426176 0.026069 0.00410346 0.0393339
84 3 O -1.54421 76.2873 2.83909 -1.2 1 0.00308335 0.00422664 0.00106446 0.00859619 0.00227491 0.0069815 0.00191606 0.0223625 0.0017739 0.0107712 0.00144133 0.026214 0.00251223 0.0194204 0.00343288 0.0285804 0.00340784 0.0263732 0.00341725 0.0390606
85 1 Mg -2.43741 79.8913 0.0260749 1.2 1 0.00182022 0.00533604 0.00100626 0.0082365 0.000798107 0.00673792 0.000981561 0.021582 0.00135068 0.0109384 0.00182204 0.0276068 0.00239517 0.018205 0.00275108 0.0274936 0.00323346 0.0261868 0.00392072 0.0378445
86 1 Mg 1.8342 82.8485 1.55394 1.2 1 0.00229231 0.00524161 0.000938363 0.00815061 0.000593851 0.00673289 0.00140325 0.0214868 0.00262779 0.0108049 0.00244394 0.0267469 0.00221797 0.0181106 0.00309063 0.0261871 0.00289465 0.025594 0.0035627 0.0374566
87 2 Si -0.457302 80.8233 1.62278 2.4 1 0.00213008 0.00494634 0.000926799 0.00873403 0.00166322 0.00628228 0.00141749 0.0204228 0.00164375 0.0104091 0.00274745 0.0260344 0.00234615 0.018508 0.00398107 0.0265522 0.00294534 0.0255868 0.00384782 0.0379
88 3 O 1.00976 80.7434 1.53641 -1.2 1 0.00249481 0.00475583 0.000701065 0.00876235 0.000873292 0.00642066 0.0010916 0.0203852 0.00232516 0.0104217 0.00195986 0.0260891 0.00258146 0.0179142 0.00307326 0.0263673 0.00341908 0.0256069 0.00428941 0.0384821
89 3 O -1.30052 84.4149 1.89405 -1.2 1 0.00285048 0.0052419 0.00133308 0.00854695 0.000571752 0.00683488 0.00121261 0.0219881 0.00140117 0.0112685 0.00214793 0.0268898 0.00229568 0.0185724 0.00348825 0.0263296 0.00320645 0.0256346 0.00348844 0.0379379
90 3 O -1.06939 81.5089 0.223788 -1.2 1 0.00150297 0.00501277 0.00113693 0.00794991 0.00134494 0.00653583 0.00202398 0.0218492 0.00209346 0.0107291 0.00199838 0.0260361 0.0021597 0.019363 0.00370264 0.0273085 0.0028644 0.0267623 0.00413904 0.0390858
91 1 Mg -2.28424 90.3897 3.16967 1.2 1 0.00307855 0.0052536 0.00129826 0.00820775 0.00121701 0.00673837 0.000765418 0.0217548 0.00147881 0.0115011 0.00193307 0.0269341 0.00250491 0.0186827 0.00224097 0.0276601 0.00259917 0.0246865 0.00365818 0.038587
92 3 O -1.11587 81.3631 2.92341 -1.2 1 0.00318927 0.00521685 0.000706048 0.00808532 0.00191068 0.00638956 0.00221126 0.0205502 0.0017177 0.0105561 0.00208034 0.0257798 0.00292786 0.0190718 0.00342266 0.026541 0.00343284 0.0254602 0.00395192 0.0370274
93 1 Mg -2.14646 87.312 4.93057 1.2 1 0.00465018 0.0052577 0.0016079 0.00847294 0.00169719 0.0067945 0.0012982 0.0206754 0.00257675 0.0112484 0.0022065 0.025397 0.00303243 0.0193581 0.00333942 0.0261786 0.00384286 0.0234662 0.00496824 0.0368561
94 2 Si 0.444979 89.2127 4.435 2.4 1 0.00431691 0.00431727 0.0016341 0.00922448 0.00224243 0.00635619 0.00165036 0.0201569 0.00233381 0.01084 0.00215231 0.025366 0.00303163 0.0189033 0.00360395 0.0271812 0.00319219 0.0242188 0.00445296 0.0387005
95 3 O -1.08027 89.3713 4.60576 -1.2 1 0.00475507 0.00427403 0.00201921 0.00914929 0.002146 0.00623843 0.0013602 0.0198319 0.00299146 0.0106462 0.00273354 0.0253344 0.00296361 0.0186021 0.00309356 0.0271681 0.00339972 0.0239878 0.00491153 0.038662
96 3 O 1.54829 85.6857 4.72172 -1.2 1 0.00391544 0.00534901 0.00143086 0.00882131 0.00117475 0.00702331 0.00106099 0.0211685 0.00214262 0.0115144 0.00239054 0.0259986 0.00317325 0.0186642 0.00409898 0.0257956 0.00357706 0.0235973 0.00507041 0.0367458
97 3 O 1.12088 88.388 3.27504 -1.2 1 0.00365913 0.00506209 0.00173622 0.00866435 0.00150041 0.00620725 0.00194796 0.0210483 0.00226015 0.0115244 0.00265346 0.0261337 0.00309903 0.019209 0.003131 0.0272683 0.00310826 0.0247513 0.00411155 0.0384229
98 3 O 1.12496 88.7003 5.89062 -1.2 1 0.00399357 0.0048405 0.00090341 0.00791125 0.00171496 0.00668299 0.0010522 0.0209023 0.00184801 0.0106262 0.00206444 0.0251276 0.00246061 0.0196212 0.00306636 0.0275209 0.00327981 0.0235162 0.00400341 0.0379371
99 1 Mg -0.0176238 85.3049 3.38167 1.2 1 0.00370688 0.00538933 0.0014431 0.00853731 0.00086987 0.00681621 0.00141841 0.0208786 0.002554 0.0110776 0.00236585 0.0262378 0.00292837 0.0180169 0.00355218 0.0268487 0.00377895 0.0245438 0.00479336 0.0367265
100 1 Mg -0.102632 82.1403 4.4683 1.2 1 0.00394434 0.00528169 0.00118148 0.00813517 0.000973851 0.00699602 0.00114425 0.0206684 0.00194029 0.0113455 0.00281034 0.0259337 0.00300222 0.0187884 0.0042797 0.0270087 0.00403125 0.0246709 0.00386868 0.0366503
101 2 Si 2.19023 84.1307 4.67191 2.4 1 0.0039461 0.00497819 0.0011713 0.00927963 0.00116021 0.00611135 0.00115392 0.0201389 0.00237992 0.0106545 0.00285185 0.0243107 0.00348154 0.0192203 0.00360141 0.0262045 0.00368941 0.0239592 0.00456539 0.037206
102 3 O -1.04652 84.0613 4.74338 -1.2 1 0.00372432 0.00518306 0.00139083 0.00887442 0.000955593 0.0059036 0.0012745 0.0201272 0.00274151 0.0105179 0.00218384 0.0250971 0.00339938 0.0187497 0.00410441 0.026068 0.00532489 0.0233164 0.00529988 0.0371683
103 3 O 1.0218 80.1179 4.53099 -1.2 1 0.00366848 0.00486616 0.000996664 0.00845206 0.000674853 0.0071223 0.00156997 0.0212328 0.00220298 0.0107743 0.00237045 0.0261135 0.00285798 0.0187267 0.0031756 0.0265851 0.00365546 0.0244625 0.00345346 0.0368459
104 3 O 1.41502 83.595 3.44294 -1.2 1 0.0034656 0.0050358 0.00110859 0.00837292 0.000949038 0.00688824 0.00134209 0.0209693 0.00214826 0.0107 0.00254703 0.0255551 0.00326105 0.018844 0.00334509 0.0265003 0.00399636 0.0245093 0.00424557 0.0375621
105 1 Mg -0.101772 84.9431 0.0435266 1.2 1 0.0017518 0.00469594 0.00117778 0.00865056 0.000600839 0.00673256 0.000981048 0.0218574 0.00157683 0.0105549 0.00189783 0.0278333 0.00206327 0.018056 0.0032329 0.0270971 0.00309061 0.026923 0.00322585 0.0388209
106 3 O 1.40628 83.4756 5.96418 -1.2 1 0.00360232 0.00474834 0.000671901 0.00830051 0.00190701 0.0065648 0.00148858 0.0204149 0.0017195 0.0106781 0.00201605 0.0246873 0.00352879 0.0191498 0.00268038 0.0259069 0.00413137 0.0232529 0.00402921 0.0364918
107 1 Mg -0.00470079 88.0777 1.57478 1.2 1 0.00287931 0.00517861 0.00178645 0.00838412 0.0012497 0.00619757 0.00099206 0.022194 0.0030817 0.0113015 0.00279301 0.0271208 0.00320616 0.0188352 0.0040127 0.0278155 0.00361069 0.0257997 0.00485996 0.0382106
108 2 Si -2.10711 85.8718 1.81097 2.4 1 0.00317773 0.00464393 0.00163418 0.00915824 0.00185409 0.00637696 0.00228967 0.0212253 0.00257586 0.0110411 0.00276583 0.0264553 0.0031575 0.0189214 0.00522404 0.0268699 0.00426326 0.0254762 0.00489622 0.0385433
109 3 O 1.12172 85.8798 1.64623 -1.2 1 0.00328939 0.00444699 0.00149634 0.00892978 0.00129447 0.00626164 0.00140613 0.0205283 0.00262547 0.0104403 0.00249966 0.0268441 0.00297612 0.0182255 0.00337524 0.0271821 0.00333662 0.0255307 0.00473299 0.0387588
110 3 O -0.907122 89.9254 1.57209 -1.2 1 0.002285 0.00502444 0.00112876 0.00880645 0.0010822 0.00683336 0.00132144 0.0220864 0.00162526 0.0119741 0.00266156 0.0272874 0.00270344 0.0193171 0.00309198 0.0277936 0.0028148 0.0252136 0.00400639 0.0385
111 3 O -1.48134 86.5762 0.432773 -1.2 1 0.00257937 0.00490501 0.00195714 0.00869963 0.00147832 0.00632399 0.00255616 0.0216222 0.00268733 0.0107324 0.00286007 0.0269066 0.00263946 0.0193107 0.00489941 0.0271439 0.00416042 0.025934 0.00501118 0.0387135
112 3 O -1.50391 86.6306 3.06596 -1.2 1 0.00400874 0.00491227 0.00171377 0.00823044 0.00199021 0.0064703 0.00206498 0.0215907 0.0022894 0.0109038 0.00233272 0.0259116 0.00371445 0.0186874 0.00486857 0.0273882 0.00349786 0.0246692 0.0042994 0.0379357
113 1 Mg -2.36254 90.0406 0.199391 1.2 1 0.00142823 0.00514484 0.00122465 0.00845176 0.000850768 0.00702066 0.00115662 0.0219433 0.00117038 0.0119021 0.00257134 0.027701 0.00205375 0.0190553 0.00297218 0.0275874 0.00256081 0.0248141 0.0033255 0.0377679
114 1 Mg 2.31439 93.2867 1.35055 1.2 1 0.00138103 0.00618377 0.00135496 0.00815524 0.00102154 0.00732787 0.00121293 0.0218555 0.00196478 0.0117584 0.00285515 0.0268455 0.00263909 0.0197082 0.00344614 0.0283773 0.00324351 0.0247618 0.00290573 0.0390363
115 2 Si -0.340531 91.427 1.51713 2.4 1 0.00195086 0.00511385 0.00130293 0.00904468 0.00181101 0.00673487 0.00195098 0.0212752 0.00149275 0.0116746 0.00233841 0.0263565 0.0021176 0.0199724 0.00379118 0.0280737 0.00387431 0.0246386 0.003352 0.0395843
116 3 O 1.18253 91.2177 1.59833 -1.2 1 0.00209396 0.00488261 0.000898591 0.00892182 0.00126688 0.0067005 0.00123978 0.0211874 0.00248638 0.0110785 0.00196404 0.0266312 0.00195741 0.0189124 0.00289502 0.0283474 0.00278517 0.0241211 0.00369851 0.039202
117 3 O -1.55966 95.1015 1.61959 -1.2 1 0.00196008 0.00684051 0.000683611 0.00802462 0.00109974 0.00711271 0.00142976 0.022795 0.00165481 0.0114539 0.00229951 0.0269333 0.0024862 0.0195077 0.00291592 0.0282103 0.00299457 0.0253297 0.0030333 0.039873
118 3 O -1.14305 92.0362 0.381535 -1.2 1 0.00129889 0.00587692 0.00111592 0.0082926 0.00157818 0.0069726 0.00175133 0.0218627 0.00163976 0.0115139 0.00233806 0.0264439 0.0023454 0.0205052 0.00274889 0.0284388 0.00252705 0.0250232 0.00263123 0.0389814
119 1 Mg -2.18749 100.693 3.11948 1.2 1 0.00338306 0.00592951 0.0018398 0.00784234 0.00175282 0.00609047 0.00134106 0.0218564 0.00179346 0.0110855 0.00142132 0.0263124 0.0020527 0.0190563 0.00241202 0.0277845 0.00285045 0.0264529 0.00382881 0.0382829