ITEM: TIMESTEP
33800
ITEM: NUMBER OF ATOMS
5600
ITEM: BOX BOUNDS xy xz yz pp pp pp
0	7.1235	0
0	201.985	2.3745
0	119.584	0
ITEM: ATOMS id type element xu yu zu q Q_1 Q_2 Q_3 Q_4 Q_5 Q_6 Q_7 Q_8 Q_9 Q_10 Q_11 Q_12 Q_13 Q_14 Q_15 Q_16 Q_17 Q_18 Q_19 Q_20 Q_21
1 1 Mg -1.79106 49.3684 -0.899296 1.2 1 0.233488 0.0759694 0.0164874 0.0257966 0.00547591 0.013733 0.00343054 0.0201527 0.00619 0.0242436 0.00738683 0.0264813 0.00770532 0.0243971 0.00822499 0.02642 0.008916 0.0207276 0.00878799 0.0329928
2 1 Mg 2.73866 51.3948 1.99494 1.2 1 0.173569 0.0638206 0.00560476 0.0196598 0.00274247 0.0106206 0.00314656 0.019135 0.00462883 0.0217045 0.00572201 0.0274335 0.00591263 0.0226246 0.00674475 0.0288537 0.00515298 0.0216355 0.00724242 0.0364206
3 2 Si 0.765579 50.8696 0.379842 2.4 1 0.19608 0.0696072 0.0100641 0.0220266 0.00386582 0.0113501 0.00355542 0.0198917 0.00508302 0.0232385 0.00574554 0.0271252 0.00715897 0.0232755 0.00582905 0.0275868 0.0067668 0.0202344 0.00665918 0.0347784
4 3 O 2.01279 50.0735 0.660946 -1.2 1 0.212315 0.0728682 0.0120421 0.0239134 0.00381014 0.012564 0.00302172 0.0198884 0.00577228 0.024099 0.00640027 0.0269807 0.0069401 0.0233011 0.00726326 0.0288219 0.00769055 0.021402 0.00754903 0.0353297
5 3 O -1.54034 53.5014 1.60189 -1.2 1 0.13057 0.051389 0.00183204 0.0149894 0.00247222 0.00854009 0.0029303 0.01892 0.00382244 0.0179309 0.00403421 0.0266345 0.00469283 0.0206299 0.00456385 0.0282953 0.00378697 0.0202894 0.0060235 0.037382
6 3 O 0.0339061 50.0483 -0.845463 -1.2 1 0.212922 0.073031 0.0129938 0.0236133 0.00456595 0.0126676 0.00340369 0.0193631 0.00527141 0.0236536 0.00747201 0.0264283 0.00608346 0.0236451 0.00700122 0.0262781 0.00747102 0.0192705 0.00677136 0.032905
7 1 Mg -2.56235 59.3443 3.22543 1.2 1 0.0176364 0.0133602 0.00565864 0.00608697 0.00122928 0.00462787 0.00165147 0.0216443 0.00290182 0.0100739 0.00216114 0.0273171 0.0024708 0.0193787 0.00435076 0.0307691 0.00507911 0.0224574 0.00551442 0.044004
8 3 O -0.198425 50.9215 1.56539 -1.2 1 0.18576 0.0670639 0.00786768 0.0212612 0.00312746 0.0115346 0.00342983 0.0192619 0.00558988 0.0227682 0.00540104 0.0267033 0.00548871 0.0226092 0.00604173 0.0290495 0.00602382 0.0208923 0.00623554 0.0351061
9 1 Mg -2.63261 56.4182 4.51573 1.2 1 0.0685832 0.0321325 0.00556845 0.00880514 0.00181131 0.00505513 0.00230591 0.0204584 0.00235731 0.0135433 0.0026972 0.0268214 0.00281849 0.0204745 0.00400469 0.0287964 0.00384611 0.0222273 0.00573102 0.0412836
10 2 Si -0.000314797 58.2137 4.75161 2.4 1 0.0360821 0.0214018 0.00712376 0.00706084 0.00165312 0.00488763 0.0022971 0.0219276 0.00220297 0.0104401 0.0030228 0.0259934 0.00279012 0.0203315 0.0045219 0.0295105 0.00427001 0.0227672 0.00534428 0.0440232
11 3 O -1.54946 58.3628 4.65763 -1.2 1 0.0278553 0.018807 0.00741336 0.00634864 0.00131352 0.00453929 0.00280464 0.0214349 0.00291505 0.00971163 0.00242152 0.0267768 0.00303764 0.0199072 0.0042668 0.0300111 0.00509788 0.0220925 0.00517076 0.043814
12 3 O 1.13789 54.5459 4.72927 -1.2 1 0.111213 0.0454541 0.00176918 0.0127484 0.00189509 0.00707895 0.00259143 0.0199491 0.00316468 0.0179187 0.00313759 0.0268659 0.00408542 0.0208108 0.00415416 0.0279039 0.00399838 0.0218917 0.00542273 0.0393038
13 3 O 0.77407 57.4119 3.46755 -1.2 1 0.0480388 0.0259423 0.00665997 0.00779463 0.00149181 0.00470782 0.00190723 0.0213027 0.00230664 0.0116741 0.0022943 0.026349 0.0024617 0.0197511 0.00477858 0.0295646 0.00416046 0.022102 0.00506779 0.0421613
14 3 O 0.786523 57.6324 5.9863 -1.2 1 0.0464531 0.0251009 0.00708805 0.00687426 0.00140066 0.00491145 0.002015 0.0215903 0.00189604 0.0111166 0.00259355 0.0265321 0.0032386 0.0200721 0.00515437 0.0297109 0.00424179 0.0225583 0.00546799 0.0434596
15 1 Mg -0.186132 53.8838 3.12964 1.2 1 0.122622 0.0494338 0.00161925 0.0141086 0.00188223 0.00818365 0.00274274 0.0194271 0.00312232 0.0182397 0.00396796 0.0271932 0.00390199 0.0205832 0.00481061 0.0282148 0.00325693 0.0205135 0.00597574 0.0380827
16 1 Mg 0.523548 50.4421 3.34885 1.2 1 0.202679 0.0711774 0.00879112 0.0235274 0.00373929 0.0128056 0.00352256 0.0200091 0.00590869 0.0253976 0.004919 0.0282757 0.00611276 0.0244419 0.00754754 0.0297778 0.00682465 0.0225345 0.00803159 0.037381
17 2 Si 1.94497 53.0659 4.72677 2.4 1 0.147967 0.055681 0.00318276 0.0166035 0.0028003 0.00995688 0.00296105 0.0198626 0.00314659 0.0206925 0.00409583 0.0271663 0.00512381 0.021499 0.00549916 0.0274959 0.00416117 0.0211119 0.00633297 0.0384214
18 3 O -1.30398 53.2911 4.71939 -1.2 1 0.133184 0.0519889 0.0011571 0.0145194 0.00211643 0.00757978 0.00277357 0.0197831 0.00324875 0.0193712 0.00313012 0.0277298 0.004646 0.021421 0.00461425 0.0279361 0.00460152 0.0210596 0.00650104 0.0393339
19 3 O 2.34791 49.8961 3.45606 -1.2 1 0.217091 0.0747255 0.0102071 0.024948 0.00425776 0.0138893 0.004171 0.0207801 0.00578297 0.0264486 0.00607529 0.0295735 0.00729373 0.0244668 0.00844605 0.0299837 0.00804917 0.02301 0.00828353 0.037875
20 3 O 1.3088 52.5063 3.39352 -1.2 1 0.150623 0.057321 0.00226378 0.0167764 0.00227069 0.00924203 0.00328824 0.0198868 0.00367314 0.020503 0.00395671 0.0271426 0.0046966 0.0214117 0.00579696 0.0284816 0.00412477 0.0212815 0.00666037 0.0386868
21 1 Mg -0.206876 53.9614 0.217147 1.2 1 0.120279 0.0488137 0.00172249 0.0142728 0.00226721 0.00866861 0.00291239 0.0189646 0.00298562 0.0182283 0.00392061 0.0264148 0.00441691 0.0203146 0.00368792 0.0279993 0.00323544 0.0198523 0.00586872 0.035805
22 3 O 1.32951 52.1218 5.84292 -1.2 1 0.164014 0.0607729 0.0054643 0.0181003 0.00312657 0.0104113 0.00305661 0.0195838 0.0038872 0.0223951 0.00422163 0.0277541 0.0056716 0.0233344 0.00612331 0.0281985 0.0052735 0.021443 0.00774928 0.0385841
23 1 Mg -0.213712 56.8749 1.71788 1.2 1 0.0581954 0.0297337 0.00590878 0.00862436 0.00178855 0.0059088 0.00166803 0.019812 0.00373904 0.0123301 0.00346168 0.0266708 0.00305258 0.02002 0.0050947 0.0295238 0.0046459 0.0211953 0.00554712 0.0411129
24 2 Si -2.21925 54.9738 1.7251 2.4 1 0.101955 0.0433742 0.00253518 0.0128535 0.00242797 0.00751203 0.00243772 0.01887 0.00403128 0.0158815 0.0038078 0.0261112 0.00263528 0.0201556 0.00398876 0.0284572 0.0038729 0.0201969 0.00531255 0.0391481
25 3 O 0.938885 54.893 1.62211 -1.2 1 0.103478 0.0424748 0.00188718 0.0123254 0.00214301 0.00801866 0.00273003 0.0185973 0.00327798 0.015495 0.0037393 0.0262513 0.00288513 0.0195789 0.00416327 0.0286499 0.00322038 0.0204892 0.00540798 0.0385392
26 3 O -1.10086 58.759 1.78451 -1.2 1 0.0235465 0.0167626 0.00680107 0.00622737 0.00152686 0.00507602 0.00148986 0.0220044 0.00373234 0.0100296 0.00237595 0.02701 0.00284693 0.019498 0.00496617 0.0309139 0.00571117 0.0225718 0.00625022 0.0443316
27 3 O -1.54146 55.7069 0.556155 -1.2 1 0.0792418 0.0367615 0.00405815 0.0100858 0.00255918 0.00645465 0.00172538 0.0192722 0.00287884 0.0140546 0.00368941 0.0259031 0.00236468 0.0203543 0.00449686 0.0292932 0.00397775 0.0215454 0.0060708 0.0396246
28 3 O -1.4794 55.5812 3.06547 -1.2 1 0.0857407 0.0373558 0.00376951 0.010228 0.00166846 0.00630884 0.0019221 0.019773 0.00307786 0.0148768 0.00287684 0.0266001 0.0023306 0.0201123 0.00365316 0.0289021 0.00432856 0.0215285 0.00535588 0.040188
29 1 Mg -2.4172 59.1265 0.404853 1.2 1 0.0185058 0.0144145 0.005772 0.0059771 0.00112892 0.00514216 0.0012363 0.0218235 0.0028739 0.00976981 0.00182604 0.0268919 0.00299284 0.0191632 0.00471247 0.0305861 0.00476618 0.0228093 0.00555226 0.0442903
30 1 Mg 2.26215 62.1382 1.82299 1.2 1 0.00403754 0.0038749 0.00155467 0.00580917 0.00127218 0.00553756 0.000928261 0.0221567 0.00294565 0.00874779 0.00232911 0.0269552 0.00268716 0.0195086 0.00322629 0.0321629 0.00412972 0.0233885 0.00434318 0.0475552
31 2 Si -0.490887 60.2401 1.61676 2.4 1 0.00975334 0.00851082 0.00393838 0.00641508 0.00150687 0.00558985 0.00101969 0.0214401 0.00282196 0.00912107 0.00294663 0.026075 0.0030907 0.0199056 0.00437196 0.0310615 0.00557423 0.0225198 0.00540559 0.046944
32 3 O 1.11184 60.2897 1.75181 -1.2 1 0.0117495 0.00965174 0.00442646 0.00626311 0.00162126 0.00500411 0.00130773 0.0214538 0.00324629 0.00856237 0.00199254 0.026286 0.0027661 0.0192044 0.00475628 0.0311848 0.00556934 0.0227304 0.00562885 0.0461135
33 3 O -1.49607 64.1618 1.83228 -1.2 1 0.00394566 0.00322461 0.00159579 0.00618378 0.00141486 0.00613942 0.00149102 0.0226228 0.00159844 0.00881272 0.0021617 0.027271 0.00339703 0.0186572 0.00369698 0.0311607 0.00374063 0.0232222 0.00442302 0.0493729
34 3 O -1.22596 60.9542 0.375464 -1.2 1 0.00799606 0.00725683 0.00320651 0.00577861 0.00126231 0.00589854 0.00128998 0.0224646 0.00315372 0.0088933 0.00197659 0.026318 0.00227948 0.0197012 0.00428027 0.0315253 0.00490714 0.0233548 0.00461495 0.046883
35 1 Mg -2.39956 69.6399 3.33801 1.2 1 0.000664934 0.00348178 0.000557911 0.00596884 0.000798808 0.00583148 0.00107644 0.0223391 0.00121721 0.00892522 0.0012395 0.0277791 0.0024185 0.0186018 0.00195471 0.0299346 0.0022162 0.0221023 0.00207494 0.0471766
36 3 O -1.1131 61.0544 2.91212 -1.2 1 0.00679718 0.00626725 0.00258175 0.00576488 0.00128957 0.00529194 0.00111005 0.0221742 0.00289613 0.0087206 0.00260004 0.0262407 0.00278615 0.020219 0.00346682 0.032031 0.00379537 0.0227291 0.00405615 0.0468084
37 1 Mg -2.66155 66.7098 4.70852 1.2 1 0.00250681 0.00378468 0.00151554 0.00642782 0.000891308 0.00574347 0.00149712 0.0223389 0.00123958 0.00880058 0.00206516 0.0267157 0.00158453 0.0194865 0.00280713 0.0305158 0.00264856 0.0227503 0.00232378 0.048497
38 2 Si 0.23607 68.5646 4.76068 2.4 1 0.0017641 0.00396369 0.00118224 0.00688991 0.00119562 0.00579367 0.00189312 0.0218609 0.00126285 0.00855545 0.00211338 0.0262172 0.00288903 0.0191267 0.00344057 0.0299215 0.00324255 0.0224144 0.00247162 0.0487091
39 3 O -1.2875 68.6703 4.69566 -1.2 1 0.00141592 0.00378177 0.00115841 0.00657915 0.00134323 0.00545907 0.00153581 0.0216197 0.00239922 0.0085478 0.00161652 0.0270789 0.00196535 0.0187724 0.00242606 0.0305408 0.00381554 0.0221047 0.00226761 0.0480429
40 3 O 1.263 64.9109 4.52151 -1.2 1 0.00188071 0.0036928 0.00108238 0.00606728 0.000777954 0.00603634 0.00114782 0.0229805 0.00125745 0.00923219 0.00200537 0.026924 0.00173905 0.0196367 0.00276605 0.0304064 0.00257541 0.0226874 0.00274554 0.0487019
41 3 O 0.903704 68.0475 3.36995 -1.2 1 0.000470793 0.00364113 0.000798998 0.00613524 0.00115854 0.00597818 0.00164155 0.0225881 0.00118039 0.00839014 0.00216651 0.0264498 0.00222922 0.0191423 0.00377148 0.0305818 0.00330107 0.0233782 0.0027708 0.0494427
42 3 O 0.99328 67.8717 5.97943 -1.2 1 0.00254187 0.00417175 0.00137032 0.00630474 0.00109196 0.0054024 0.00159984 0.0220494 0.0010919 0.00863184 0.0016373 0.0262446 0.00172521 0.0193928 0.00231097 0.0305648 0.00257515 0.0224684 0.00193873 0.0478731
43 1 Mg -0.113768 64.4346 3.20115 1.2 1 0.00239874 0.00303473 0.00116666 0.00572137 0.00110009 0.00611814 0.00105718 0.0228587 0.00108187 0.0092811 0.00147838 0.0272853 0.00216611 0.0194113 0.00178597 0.0310812 0.00203356 0.0228041 0.00283537 0.0485986
44 1 Mg -0.256885 61.5013 4.72885 1.2 1 0.00636562 0.0055641 0.00224703 0.00578932 0.000745997 0.00540239 0.00170412 0.022874 0.00151119 0.00949174 0.00261091 0.0266534 0.00270719 0.020413 0.00357886 0.0313884 0.00352998 0.0228722 0.00404821 0.0468696
45 2 Si 1.98587 63.4314 4.5744 2.4 1 0.00245534 0.00294026 0.00113461 0.00631161 0.000898963 0.00570814 0.00166675 0.0226379 0.00106954 0.00893574 0.00198429 0.0260649 0.00170614 0.0197148 0.00300627 0.031077 0.00273239 0.0225984 0.00236381 0.0485726
46 3 O -1.23611 63.4312 4.69068 -1.2 1 0.00295887 0.00335213 0.00150414 0.00618173 0.00102783 0.00517855 0.00159061 0.0220526 0.00199089 0.00861488 0.00177215 0.0268851 0.00238136 0.0196211 0.00270809 0.0313214 0.00383926 0.0222283 0.00291783 0.0478642
47 3 O 0.78831 59.708 4.67282 -1.2 1 0.0154477 0.0117044 0.00471039 0.00596579 0.00109012 0.00533083 0.00244083 0.0223023 0.00191659 0.00962136 0.00241902 0.0267285 0.00232709 0.0198863 0.00409794 0.0304029 0.00406857 0.0225947 0.00395805 0.0450113
48 3 O 1.34734 62.7713 3.38674 -1.2 1 0.0030084 0.00299723 0.00114579 0.00581502 0.0010784 0.00587233 0.00171245 0.0230236 0.00197741 0.00863394 0.00251601 0.0261278 0.00205132 0.0201801 0.00354313 0.0317052 0.0025736 0.0229867 0.00375147 0.0481468
49 1 Mg -0.0708712 64.5926 0.299989 1.2 1 0.00463564 0.00353384 0.00144222 0.00606417 0.00112843 0.00592365 0.000788298 0.0223779 0.00154638 0.0089571 0.00182442 0.0278028 0.0027827 0.0184058 0.00211354 0.0316427 0.00238932 0.0234886 0.00384678 0.0490837
50 3 O 1.21597 62.8911 6.00824 -1.2 1 0.00425199 0.00374261 0.00127383 0.00581229 0.000917224 0.0053782 0.00197521 0.0225922 0.00154053 0.00882035 0.00147814 0.0264734 0.00148158 0.0202144 0.0030519 0.0317839 0.00248633 0.0227786 0.00254444 0.0477296
51 1 Mg -0.202451 67.4743 1.78878 1.2 1 0.0025705 0.00351368 0.000897275 0.00621557 0.000867941 0.00619116 0.00114118 0.0226921 0.00177468 0.00891177 0.00206957 0.0272587 0.00248364 0.0192797 0.00287955 0.0307841 0.00272104 0.0235408 0.00318367 0.05005
52 2 Si -2.17735 65.5831 1.82524 2.4 1 0.00287076 0.00327811 0.00117125 0.0064996 0.00118369 0.00605653 0.00157099 0.0223925 0.00111147 0.00841733 0.00210367 0.0264527 0.0033938 0.0193199 0.00288131 0.0305962 0.00255721 0.0231474 0.00374162 0.0504709
53 3 O 0.981843 65.5141 1.75158 -1.2 1 0.00278553 0.00350781 0.0010943 0.00644798 0.0017292 0.00572826 0.00169131 0.0217534 0.00235698 0.00828989 0.00185981 0.027159 0.00301363 0.0186774 0.00268946 0.0309966 0.00276469 0.0230992 0.00390009 0.0498675
54 3 O -1.12453 69.2691 1.81392 -1.2 1 0.0016692 0.00351798 0.000876902 0.00617591 0.000962049 0.00636799 0.00126849 0.0228998 0.00108319 0.00858185 0.00169839 0.0266545 0.00235051 0.018986 0.00221896 0.0299215 0.00247232 0.0234086 0.00282103 0.0488567
55 3 O -1.39745 66.1957 0.547251 -1.2 1 0.00352923 0.00369442 0.00133948 0.00607332 0.00128032 0.00572884 0.00190007 0.0221438 0.00185543 0.00814886 0.00271513 0.0262891 0.00376945 0.0192162 0.00372054 0.0313859 0.00337546 0.0237619 0.00358061 0.0502616
56 3 O -1.47747 66.2463 3.08287 -1.2 1 0.00180287 0.00327688 0.000836723 0.00603257 0.00117342 0.00577609 0.00173866 0.0224976 0.00151067 0.00829779 0.00143157 0.0261842 0.00232781 0.0192223 0.00263838 0.0313956 0.00195236 0.0233106 0.00273364 0.049383
57 1 Mg -2.42439 69.6008 0.272113 1.2 1 0.00280868 0.00367212 0.000850734 0.00601303 0.000852832 0.00653555 0.00117598 0.0223581 0.00109957 0.00854179 0.00220835 0.0276917 0.00253167 0.0180341 0.00196988 0.030233 0.00302495 0.0238417 0.00285465 0.0484255
58 1 Mg 2.25102 72.5583 1.78304 1.2 1 0.00251171 0.00284938 0.00109262 0.00593243 0.000711243 0.00551806 0.0010748 0.022475 0.00189239 0.00914792 0.00142385 0.0273226 0.0028991 0.01927 0.00302381 0.031114 0.00291583 0.0233389 0.0027246 0.0479538
59 2 Si -0.381457 70.7447 1.80261 2.4 1 0.00195767 0.00304843 0.000558075 0.00697025 0.00106829 0.00614229 0.00188356 0.0220898 0.0014874 0.00852387 0.00243264 0.0260826 0.00217407 0.0192396 0.00331088 0.0300304 0.00331046 0.0228724 0.00337793 0.0490316
60 3 O 1.17544 70.5669 1.87943 -1.2 1 0.00152568 0.00339446 0.000784418 0.0064587 0.00100982 0.0059946 0.00182676 0.0218755 0.00142186 0.00828684 0.00160618 0.0265481 0.00270401 0.0181739 0.00231695 0.0306229 0.00246496 0.0228001 0.00270727 0.0481628
61 3 O -1.41439 74.395 1.598 -1.2 1 0.00265536 0.00279178 0.000508813 0.00663969 0.000945332 0.00585728 0.00101001 0.0234762 0.001381 0.008964 0.00284306 0.0274111 0.00292706 0.0189603 0.00370191 0.0303427 0.00329376 0.0232018 0.0031724 0.0479042
62 3 O -1.13153 71.4591 0.52443 -1.2 1 0.00321484 0.00311703 0.000619317 0.00602532 0.000892247 0.00567801 0.00120061 0.0225972 0.00212224 0.00811255 0.00217741 0.0261145 0.00285196 0.0188374 0.00249373 0.0308451 0.00311758 0.0237997 0.00291317 0.0487997
63 1 Mg -2.44496 80.0417 3.228 1.2 1 0.00123654 0.00356918 0.00104921 0.00579767 0.000883409 0.00530401 0.00105556 0.0241787 0.00112885 0.00903345 0.00120864 0.0276108 0.00160634 0.0196031 0.00158536 0.0320801 0.00202592 0.0238092 0.00208109 0.0478969
64 3 O -1.08753 71.4037 3.13326 -1.2 1 0.00154221 0.00325104 0.0011015 0.00619846 0.00125145 0.00566496 0.0020043 0.0226837 0.00158186 0.00858047 0.00216967 0.0266249 0.00222718 0.0190583 0.00249571 0.0306524 0.00254524 0.0227823 0.00235151 0.0477139
65 1 Mg -2.43402 77.2239 4.55897 1.2 1 0.000632259 0.0026025 0.00112706 0.0061775 0.00101038 0.00527524 0.00150142 0.0236916 0.00228892 0.00859041 0.00270614 0.0272837 0.00242772 0.0203225 0.0029107 0.031747 0.00248889 0.0235356 0.0025385 0.0482731
66 2 Si 0.261163 79.0385 4.72307 2.4 1 0.00107533 0.00268443 0.00107743 0.00704891 0.0013362 0.00555688 0.00207066 0.0233392 0.00145948 0.00817655 0.00207548 0.0264631 0.00259847 0.0206767 0.00351706 0.031525 0.00320355 0.0232188 0.00242704 0.0495109
67 3 O -1.30769 79.1568 4.68873 -1.2 1 0.000965642 0.00298516 0.00137956 0.00645641 0.00142363 0.00519584 0.0019017 0.0229123 0.00212425 0.00826197 0.00162497 0.0272885 0.00221815 0.0199688 0.00212153 0.0321811 0.00241591 0.0231254 0.00262637 0.0489277
68 3 O 1.36249 75.4196 4.53151 -1.2 1 0.00185482 0.00243228 0.000929723 0.00613874 0.000666093 0.00567451 0.00135185 0.0240018 0.00119224 0.00892099 0.00185747 0.0276433 0.00252108 0.019791 0.00305655 0.0312821 0.00241973 0.0230154 0.00338353 0.0476619
69 3 O 1.02921 78.4122 3.43398 -1.2 1 0.00129233 0.00287529 0.00152146 0.00597562 0.00127883 0.00524753 0.00187921 0.0234296 0.00120399 0.00836922 0.00161838 0.0263144 0.00214264 0.0198964 0.00231258 0.0320882 0.00200316 0.0236326 0.00185246 0.0481774
70 3 O 1.0447 78.4588 6.00139 -1.2 1 0.000295407 0.00274011 0.000855258 0.00570326 0.000972889 0.00547192 0.00166528 0.0241796 0.00131851 0.0083413 0.0015192 0.0269499 0.0020653 0.0209299 0.0027794 0.0322189 0.00234369 0.0239957 0.00228854 0.0492193
71 1 Mg -0.0639563 75.0606 3.0688 1.2 1 0.00208483 0.00246493 0.000591234 0.00609465 0.000602428 0.00573649 0.000839099 0.0231608 0.00102575 0.00879601 0.00168898 0.0277641 0.00214547 0.019073 0.00172056 0.030706 0.00186253 0.0230488 0.00208535 0.0472645
72 1 Mg 0.0267705 71.9665 4.66506 1.2 1 0.00237647 0.00297082 0.0010217 0.00640764 0.000781531 0.00552743 0.00152721 0.0227023 0.00204605 0.00914487 0.00252451 0.0269625 0.00212509 0.0199272 0.00297217 0.0304637 0.00325183 0.0221327 0.00275935 0.0473774
73 2 Si 1.92295 73.8402 4.62804 2.4 1 0.00192934 0.00275047 0.000903599 0.00690157 0.00149086 0.00565201 0.00215613 0.0227667 0.00111357 0.00865406 0.00181732 0.0264794 0.00254416 0.0200873 0.00352914 0.0308088 0.00321484 0.0224989 0.00238338 0.0483073
74 3 O -1.2602 73.975 4.53401 -1.2 1 0.00244779 0.00262673 0.000946504 0.00643795 0.00104202 0.0055026 0.00143906 0.0229485 0.00192363 0.00860278 0.0014694 0.0268903 0.00220443 0.0198665 0.00203613 0.0312503 0.00281511 0.0227195 0.0026535 0.0479066
75 3 O 0.961019 70.0228 4.81232 -1.2 1 0.0022873 0.00362705 0.00106061 0.00659421 0.0009534 0.00606391 0.00169947 0.0222905 0.00133194 0.00877245 0.00215841 0.0271895 0.00285256 0.018763 0.00323559 0.0300559 0.00348406 0.0218262 0.00267716 0.0475772
76 3 O 1.23524 73.0491 3.44017 -1.2 1 0.001588 0.00279716 0.000875707 0.00598806 0.00078427 0.00541047 0.00132102 0.0226431 0.00129906 0.00855859 0.00160085 0.0265749 0.0020967 0.0202103 0.00229631 0.0313057 0.00249125 0.0223128 0.00216944 0.0479057
77 1 Mg -0.145727 74.7741 -0.0277416 1.2 1 0.00345413 0.00357102 0.001373 0.00620425 0.00100391 0.00550644 0.000812808 0.0230894 0.00146205 0.00879933 0.00146116 0.0273688 0.002573 0.0188576 0.00270495 0.0307187 0.00268983 0.0237099 0.00329496 0.0477545
78 3 O 1.15445 73.4984 5.9858 -1.2 1 0.00329616 0.0031358 0.00132358 0.00622966 0.00156315 0.00560646 0.00293486 0.0231755 0.00153371 0.00868908 0.00194983 0.0263661 0.00240132 0.0200053 0.00305773 0.0311654 0.00306383 0.0228837 0.00247772 0.0482607
79 1 Mg 0.128513 77.7631 1.65744 1.2 1 0.00236119 0.0030053 0.000807308 0.00614308 0.00112695 0.00511099 0.000983346 0.0235882 0.00245983 0.00887222 0.0017768 0.0268188 0.00242894 0.0197034 0.00293533 0.0320958 0.00260049 0.0243188 0.00222292 0.0483266
80 2 Si -2.15674 75.8858 1.48797 2.4 1 0.00295016 0.00292347 0.000896607 0.00692531 0.00116983 0.00574376 0.00123742 0.0231829 0.00206904 0.00850637 0.00232685 0.0263744 0.00255678 0.0193203 0.00324956 0.0310309 0.00292958 0.023689 0.00279401 0.0490207
81 3 O 1.0096 75.7969 1.52638 -1.2 1 0.00279002 0.00307484 0.00107045 0.00653839 0.00082645 0.00549833 0.00057421 0.0229597 0.00239649 0.0082367 0.00171064 0.0268711 0.00193167 0.0187757 0.00250264 0.0310321 0.00224396 0.0234681 0.00196307 0.0483291
82 3 O -0.968482 79.529 1.69008 -1.2 1 0.00143438 0.00336905 0.00111833 0.00601149 0.000722746 0.00522913 0.000874893 0.0241493 0.00128776 0.00907465 0.00176581 0.0270018 0.00187125 0.0195307 0.00248784 0.0317616 0.00261929 0.0239593 0.00267455 0.0480097
83 3 O -1.53587 76.4688 0.241111 -1.2 1 0.00242989 0.003533 0.00146814 0.00608332 0.00104232 0.00507058 0.00133943 0.0236378 0.00161169 0.00829595 0.0025143 0.0263796 0.00239249 0.0194221 0.00319498 0.0317113 0.00312249 0.0243594 0.0030745 0.0485339
84 3 O -1.44136 76.6551 2.75923 -1.2 1 0.00208117 0.00288304 0.000887068 0.00636235 0.000921766 0.0053572 0.00101863 0.0231937 0.00160076 0.00829005 0.00180648 0.0264791 0.00235782 0.0199974 0.00234476 0.0317763 0.00200081 0.0237356 0.00212728 0.0485448
85 1 Mg -2.41183 79.9804 0.250497 1.2 1 0.00167992 0.00371746 0.00105974 0.0058957 0.00112906 0.00533618 0.00100134 0.0236081 0.00111485 0.00916987 0.00108338 0.0273739 0.00152425 0.0195235 0.00169765 0.0318981 0.00196963 0.023913 0.00204872 0.047412
86 1 Mg 2.13688 82.9982 1.6003 1.2 1 0.00192185 0.00458551 0.00123741 0.00585504 0.000827106 0.00487683 0.00138713 0.0240966 0.00182437 0.00927748 0.00199791 0.0272441 0.00213839 0.0202227 0.00291948 0.0323679 0.00287367 0.0241776 0.00330034 0.0476865
87 2 Si -0.387962 81.0063 1.63304 2.4 1 0.00137132 0.00392032 0.00113869 0.00654458 0.00129136 0.0051458 0.00135278 0.0233 0.00196422 0.00869319 0.00255275 0.0259611 0.00231585 0.0208522 0.0030559 0.032329 0.00332161 0.0236292 0.00301428 0.0484826
88 3 O 1.26097 80.9281 1.65916 -1.2 1 0.00131969 0.00398925 0.0011326 0.00623683 0.000881458 0.00490633 0.00142577 0.0234209 0.00201652 0.00858255 0.00151039 0.0264889 0.00198838 0.0196763 0.00189315 0.0324338 0.00227156 0.0236784 0.0023538 0.048223
89 3 O -1.45358 84.9008 1.66672 -1.2 1 0.00145604 0.00480821 0.000817681 0.00580116 0.000936273 0.00527951 0.00147165 0.0239354 0.00131774 0.00929724 0.00249323 0.0270579 0.00228061 0.0197582 0.00271019 0.0320221 0.0032261 0.0244572 0.00329557 0.0472217
90 3 O -1.14848 81.805 0.278235 -1.2 1 0.00187802 0.00426355 0.00108365 0.00529163 0.00124154 0.00514026 0.0013814 0.0239484 0.00178048 0.0090323 0.00157432 0.0261042 0.00127388 0.0201299 0.00226548 0.0327558 0.00301381 0.024912 0.00278264 0.0477788
91 1 Mg -2.42514 90.4304 2.85669 1.2 1 0.00140212 0.0040673 0.00112004 0.0058999 0.00119401 0.00529551 0.000818498 0.0237225 0.00120967 0.0094916 0.00130163 0.0286064 0.00226935 0.0199114 0.00264261 0.0334114 0.00208986 0.0241799 0.00307019 0.0470527
92 3 O -1.06092 81.7888 2.84832 -1.2 1 0.00128005 0.00435525 0.00117519 0.00571607 0.00127623 0.00521152 0.00138835 0.0241513 0.0018887 0.0088955 0.00178518 0.0262004 0.00206614 0.0206944 0.00282405 0.03284 0.00300212 0.0246108 0.00281049 0.0486178
93 1 Mg -2.36497 87.6514 4.5657 1.2 1 0.00127635 0.00408581 0.0010062 0.00566362 0.000555661 0.00556371 0.00167135 0.0237689 0.00170299 0.00919613 0.00259773 0.0273898 0.00200904 0.020612 0.00316265 0.0333637 0.00340867 0.0246191 0.00371145 0.0474792
94 2 Si 0.304853 89.4643 4.45201 2.4 1 0.00246949 0.00367579 0.000954451 0.0067797 0.000770676 0.00590363 0.00114207 0.02354 0.00151016 0.00929315 0.00233546 0.0267829 0.0029326 0.0209811 0.00375178 0.0329583 0.00367556 0.0241106 0.00324244 0.0487682
95 3 O -1.22134 89.5346 4.48898 -1.2 1 0.00220299 0.00373361 0.000975411 0.00607449 0.00110624 0.00514356 0.00111057 0.0231494 0.00225661 0.00909694 0.00125618 0.0278504 0.00210061 0.0200313 0.00231171 0.0333658 0.0040625 0.0240063 0.00285609 0.0482891
96 3 O 1.46419 85.7886 4.3833 -1.2 1 0.00169685 0.00437949 0.00147645 0.00578958 0.000750425 0.00567367 0.00145478 0.0242972 0.00109318 0.00923199 0.0021877 0.0277105 0.00269174 0.0200015 0.00350564 0.0323109 0.00303184 0.0242973 0.00322954 0.0479276
97 3 O 1.06698 88.8125 3.25456 -1.2 1 0.00173404 0.00403495 0.00118151 0.00575223 0.00109495 0.00521856 0.001298 0.0235269 0.00165957 0.00940772 0.00213735 0.0268164 0.00260157 0.0208268 0.00339012 0.0334085 0.00314426 0.024086 0.00283236 0.0475748
98 3 O 1.11301 88.9674 5.73829 -1.2 1 0.00218899 0.00392708 0.0010274 0.00590461 0.00135808 0.00590665 0.00155774 0.0234372 0.00133938 0.00908245 0.00199755 0.0275418 0.00255294 0.0207922 0.0030953 0.0334409 0.0032762 0.0244405 0.00337692 0.0481794
99 1 Mg -0.0180903 85.3496 2.88285 1.2 1 0.00113247 0.00439498 0.000992785 0.00554653 0.000726857 0.0053225 0.00137747 0.0234909 0.00106558 0.00924662 0.00189938 0.027659 0.00120951 0.0198498 0.00177953 0.0322915 0.0027992 0.024154 0.00252957 0.0468126
100 1 Mg 0.0613701 82.5091 4.60039 1.2 1 0.00151434 0.00441627 0.00134147 0.0063809 0.000717557 0.00503708 0.00167262 0.0240725 0.00157603 0.00916346 0.00228415 0.0270224 0.00218238 0.0205153 0.00288638 0.0328113 0.00294778 0.0247534 0.00273602 0.0490299
101 2 Si 2.08886 84.3081 4.45468 2.4 1 0.00126793 0.00488828 0.000975605 0.00653986 0.00113276 0.00533526 0.00180236 0.0239638 0.00128901 0.00860873 0.00211736 0.0263615 0.00218434 0.0205774 0.00310438 0.0323325 0.00328019 0.0243043 0.00354329 0.0491094
102 3 O -1.14385 84.3706 4.44758 -1.2 1 0.00156262 0.00445846 0.00127317 0.00619063 0.00119812 0.0050881 0.0019984 0.0232284 0.00199956 0.00854781 0.00186524 0.0270356 0.00216835 0.0200957 0.0017647 0.0323221 0.00318155 0.0236543 0.00365746 0.0478022
103 3 O 0.935978 80.621 4.74506 -1.2 1 0.00133266 0.0037521 0.00176773 0.00623732 0.000904831 0.00542303 0.00141367 0.0241394 0.00121342 0.00868809 0.00187281 0.0273124 0.00280291 0.0200935 0.00257706 0.0319788 0.00303757 0.0239687 0.00331026 0.049211
104 3 O 1.25106 83.516 3.31598 -1.2 1 0.00160162 0.00465292 0.00123863 0.00587164 0.00150843 0.00491504 0.00187599 0.0238622 0.00140638 0.00853714 0.00167157 0.0263303 0.00210571 0.0205736 0.0023067 0.0323567 0.0028839 0.0240268 0.00312698 0.0482812
105 1 Mg -0.109218 85.4197 0.161908 1.2 1 0.00113198 0.00522373 0.000796549 0.00539626 0.00105182 0.00486997 0.00105147 0.0237194 0.00102386 0.00963265 0.00125502 0.027611 0.00119537 0.0196358 0.00139422 0.0323137 0.00188084 0.0249603 0.00218491 0.0461215
106 3 O 1.37979 83.8825 5.76626 -1.2 1 0.00211841 0.00426708 0.00119306 0.00629228 0.00129141 0.00525635 0.00184763 0.0239686 0.0012685 0.00810469 0.00217609 0.0270856 0.00245641 0.0202209 0.00346623 0.0331801 0.00317972 0.0240979 0.00360715 0.0490679
107 1 Mg -0.139105 88.3092 1.49871 1.2 1 0.000907809 0.00481146 0.00090899 0.00578736 0.000933025 0.00492617 0.00114746 0.0236051 0.00220678 0.00967677 0.00229169 0.027278 0.00202984 0.0203459 0.0028795 0.0327709 0.00323076 0.0244221 0.00284365 0.0466892
108 2 Si -2.18732 86.3814 1.66883 2.4 1 0.000895511 0.00465672 0.000824626 0.00633318 0.000903301 0.00501264 0.00159949 0.0234625 0.00123451 0.00930915 0.00191201 0.0260986 0.00175264 0.0203476 0.00280151 0.0318999 0.00255544 0.0241797 0.00219852 0.0475102
109 3 O 1.04914 86.331 1.52619 -1.2 1 0.0011022 0.00477825 0.000920137 0.00603442 0.000922801 0.00452828 0.00135506 0.0227798 0.00204669 0.00892192 0.00123778 0.0265278 0.00149959 0.0199996 0.00236826 0.0328329 0.00327564 0.0242483 0.00240669 0.0470299
110 3 O -1.02124 90.0894 1.66102 -1.2 1 0.000920917 0.00423512 0.00111839 0.00589838 0.00126434 0.00542787 0.000795893 0.0239905 0.00170846 0.00972394 0.00137762 0.0279114 0.00230734 0.0201854 0.00284294 0.0329724 0.00300203 0.024363 0.00342668 0.046957
111 3 O -1.43274 87.1266 0.5253 -1.2 1 0.000774438 0.00472619 0.00119417 0.00569848 0.00121578 0.00457722 0.00151343 0.023254 0.00134121 0.00934094 0.00132753 0.0264197 0.00162703 0.0202616 0.00198082 0.0328211 0.00217545 0.0243446 0.00165409 0.0466802
112 3 O -1.41345 87.0917 2.91459 -1.2 1 0.000936697 0.00430193 0.000731388 0.00558165 0.000782533 0.00512165 0.00133153 0.023778 0.00151748 0.00907602 0.00220779 0.0263685 0.00168219 0.0202458 0.00240144 0.0331295 0.00240931 0.0244895 0.00204088 0.0476284
113 1 Mg -2.30103 90.7307 -0.0363972 1.2 1 0.000567031 0.00405623 0.0008616 0.00535891 0.00118063 0.00568746 0.00100598 0.0235518 0.00113766 0.0101907 0.000902214 0.0285897 0.00148119 0.0203242 0.00181509 0.0327711 0.0020328 0.0244322 0.0017457 0.0463346
114 1 Mg 2.27639 93.4801 1.59098 1.2 1 0.00120837 0.00354816 0.00125767 0.00533665 0.000974887 0.0050451 0.00130273 0.0240742 0.00207498 0.00979118 0.00216601 0.0288503 0.0019224 0.0209539 0.0029788 0.0340089 0.0031951 0.0244097 0.00354785 0.0494494
115 2 Si -0.322723 91.5929 1.5175 2.4 1 0.0012493 0.00364708 0.00136357 0.00601533 0.00183232 0.00521278 0.00187626 0.0238309 0.00166919 0.00971853 0.00201808 0.0273275 0.00248703 0.0210646 0.00298096 0.0332692 0.00282309 0.0241267 0.00312288 0.0489631
116 3 O 1.13212 91.4304 1.48503 -1.2 1 0.00083906 0.00383102 0.00128989 0.00583655 0.00117996 0.00534716 0.00107805 0.0243584 0.0022601 0.00977443 0.00166586 0.0279895 0.00229345 0.0205436 0.0026189 0.0333661 0.00223971 0.0242431 0.0029877 0.0482612
117 3 O -1.48356 95.3528 1.39963 -1.2 1 0.00126675 0.0033239 0.00116362 0.00569351 0.000948035 0.00550263 0.00102724 0.0242639 0.00148448 0.00908661 0.0021567 0.0289422 0.00237768 0.02032 0.00348591 0.0336386 0.00288883 0.0245821 0.00343328 0.0504057
118 3 O -1.04701 92.3078 0.25622 -1.2 1 0.000581761 0.00359791 0.000879508 0.00527062 0.00136064 0.00528471 0.00166068 0.0240932 0.00176358 0.0094995 0.00153145 0.0275099 0.002252 0.0213948 0.00234604 0.0339965 0.00283502 0.024685 0.00320801 0.0484242