ITEM: TIMESTEP
90100
ITEM: NUMBER OF ATOMS
5600
ITEM: BOX BOUNDS xy xz yz pp pp pp
0	7.1235	0
0	201.985	2.3745
0	119.584	0
ITEM: ATOMS id type element xu yu zu q Q_1 Q_2 Q_3 Q_4 Q_5 Q_6 Q_7 Q_8 Q_9 Q_10 Q_11 Q_12 Q_13 Q_14 Q_15 Q_16 Q_17 Q_18 Q_19 Q_20 Q_21
1 1 Mg -2.15673 47.6281 -1.1996 1.2 1 0.232099 0.0781773 0.018725 0.0261497 0.00492357 0.0151722 0.0043312 0.0206414 0.00353905 0.0243788 0.00511221 0.0337334 0.00907566 0.0281894 0.00731602 0.0266868 0.00896986 0.0243574 0.0101584 0.0292252
2 1 Mg 2.4267 50.0697 1.64328 1.2 1 0.174772 0.0634749 0.00963245 0.0194601 0.00279612 0.00897629 0.00234331 0.0180272 0.0047571 0.0194559 0.00506338 0.0263803 0.00502126 0.0236944 0.00568266 0.0261811 0.00613023 0.0226809 0.00780944 0.0291325
3 2 Si 0.355515 48.8902 0.243089 2.4 1 0.208358 0.0733459 0.0142611 0.0236755 0.00373095 0.0116336 0.00390396 0.0190957 0.00564877 0.0224127 0.00401527 0.0295301 0.00601525 0.0266268 0.00572655 0.0266315 0.00807218 0.022511 0.00909456 0.028501
4 3 O 1.38704 47.7449 0.486238 -1.2 1 0.232197 0.0798608 0.0188844 0.0274547 0.00419749 0.0134829 0.00381622 0.019404 0.00603938 0.0241866 0.00468216 0.0299807 0.00717167 0.0283058 0.00895416 0.0272342 0.00960911 0.0253166 0.00944327 0.0288589
5 3 O -1.89398 52.3425 1.38927 -1.2 1 0.131549 0.0493237 0.00373816 0.0143524 0.00198315 0.0081774 0.00180862 0.0177211 0.00310792 0.0169839 0.00345006 0.0262674 0.00385972 0.0210596 0.00398012 0.02573 0.00525004 0.0210824 0.00625287 0.0289061
6 3 O -0.628647 48.6167 -0.976775 -1.2 1 0.205659 0.0722391 0.0129246 0.0225834 0.00405687 0.0118256 0.00379021 0.0189248 0.00354283 0.0224426 0.00426893 0.0304093 0.0066132 0.0275863 0.00578539 0.0269329 0.00780696 0.0223514 0.00823895 0.0283847
7 1 Mg -2.72065 58.0625 3.5801 1.2 1 0.0173856 0.0122007 0.0037414 0.0072368 0.00158415 0.00573725 0.00156687 0.0182122 0.00311911 0.0115917 0.00281865 0.0246685 0.00341197 0.0201811 0.00553757 0.0284182 0.00508392 0.0216299 0.00337206 0.0296685
8 3 O -0.488917 49.4866 1.41518 -1.2 1 0.188228 0.0687727 0.0100098 0.0209815 0.00259683 0.00934002 0.00322919 0.0183555 0.00522635 0.0204598 0.00441212 0.0275 0.00468442 0.0254339 0.00550561 0.0262692 0.00674844 0.022338 0.00891571 0.0279371
9 1 Mg -2.90192 54.9532 4.6333 1.2 1 0.0697852 0.0336578 0.00572013 0.009025 0.00203443 0.0054044 0.00234691 0.0173169 0.00335908 0.0138672 0.00375832 0.0243249 0.00333724 0.020317 0.00599828 0.0256563 0.00479514 0.0203996 0.00506608 0.0291049
10 2 Si 0.0673017 57.1269 4.70773 2.4 1 0.0239165 0.0153596 0.00583575 0.00767472 0.00175591 0.00576617 0.0023531 0.0176486 0.00328254 0.0108119 0.00381997 0.0239907 0.00450791 0.020631 0.00862993 0.0279218 0.00701281 0.021441 0.00462976 0.0298783
11 3 O -1.48751 57.2048 4.76802 -1.2 1 0.0258444 0.0158453 0.00664403 0.00701063 0.00196977 0.00585145 0.00187083 0.0174857 0.00319229 0.0112259 0.00341043 0.0244758 0.00400173 0.0204152 0.00589327 0.027944 0.00628051 0.0210997 0.00373275 0.029897
12 3 O 0.986691 53.0786 4.84142 -1.2 1 0.107843 0.0468127 0.00304052 0.0130719 0.00192134 0.00669931 0.00217212 0.0172035 0.00422119 0.016161 0.00391118 0.0237419 0.00247865 0.0210021 0.00427603 0.0244646 0.00441218 0.020191 0.00448166 0.027944
13 3 O 0.741263 56.39 3.36136 -1.2 1 0.0380999 0.0217566 0.0064985 0.00758619 0.0014951 0.0047826 0.00171884 0.0184381 0.0026142 0.0124929 0.00366989 0.0246079 0.00374205 0.0199176 0.00649882 0.0274199 0.00467556 0.0212097 0.00409954 0.02919
14 3 O 0.583584 56.094 5.82059 -1.2 1 0.0480494 0.0255308 0.00679758 0.0071949 0.00239767 0.00598139 0.00184468 0.0178387 0.00307601 0.0124899 0.00345521 0.0232898 0.00409356 0.0202519 0.00659235 0.0261712 0.00640524 0.0197652 0.00456914 0.0284305
15 1 Mg -0.511865 52.8311 3.03361 1.2 1 0.119238 0.0478125 0.0013672 0.0133393 0.00177387 0.00793993 0.00166533 0.0174611 0.00345555 0.0168715 0.00345483 0.0253144 0.0025338 0.0205319 0.00351816 0.0242136 0.00387908 0.0199411 0.0046021 0.027966
16 1 Mg 0.116429 48.9896 3.16034 1.2 1 0.201841 0.0723708 0.0122872 0.0228982 0.00309682 0.0106679 0.00273929 0.0183493 0.00523534 0.0213064 0.00427902 0.0266621 0.00533808 0.0262239 0.0072855 0.0260628 0.00713206 0.0233225 0.00902604 0.0289557
17 2 Si 1.66672 51.6624 4.41863 2.4 1 0.143807 0.056415 0.00355885 0.0158776 0.00276419 0.00785037 0.00272288 0.017358 0.0034898 0.017693 0.00471632 0.0245146 0.00387295 0.022464 0.00481737 0.0242056 0.00431387 0.0201201 0.00554931 0.0279784
18 3 O -1.46731 51.8637 4.60446 -1.2 1 0.131755 0.0543322 0.00156507 0.0141037 0.0022688 0.00686059 0.00214124 0.0173096 0.0042421 0.0166385 0.00445194 0.0242428 0.00363728 0.022179 0.00484217 0.024379 0.00502779 0.0200481 0.00505516 0.0283402
19 3 O 2.18484 48.7223 3.25498 -1.2 1 0.206123 0.0731147 0.0126882 0.0228871 0.00332523 0.0109908 0.00265584 0.018607 0.00409536 0.0204858 0.00448294 0.0269866 0.00562649 0.0258383 0.00700593 0.0259667 0.00641121 0.023388 0.00755377 0.0294633
20 3 O 1.03343 51.2263 3.11579 -1.2 1 0.146475 0.0565198 0.00336306 0.0157026 0.00234797 0.00795678 0.00237277 0.0179101 0.00358358 0.0174969 0.00395011 0.0250602 0.00380183 0.0224795 0.0046505 0.0249462 0.00457964 0.0209835 0.00581632 0.0284539
21 1 Mg -0.466894 53.1869 -0.189383 1.2 1 0.10768 0.0443027 0.00170786 0.0129112 0.00167538 0.00702152 0.00211262 0.0181673 0.00319996 0.0166298 0.00351979 0.0266046 0.00398147 0.0204325 0.00363105 0.0258926 0.00475317 0.021091 0.00541498 0.0291215
22 3 O 1.14332 50.5101 5.64145 -1.2 1 0.162627 0.0643298 0.00414915 0.0178462 0.0028555 0.00908011 0.00307639 0.0181338 0.0046335 0.0189462 0.0051937 0.024573 0.00425425 0.0237653 0.00636196 0.0240299 0.00525142 0.020904 0.00679835 0.0279036
23 1 Mg -0.484721 55.5092 1.7174 1.2 1 0.0530802 0.0271806 0.00601518 0.00833015 0.0019898 0.00574771 0.00116443 0.0173171 0.00430332 0.0137485 0.00351364 0.0251359 0.00326048 0.0199197 0.00530251 0.0266294 0.00527616 0.0201824 0.0048777 0.0286932
24 2 Si -2.66182 53.84 1.46139 2.4 1 0.0963817 0.0397964 0.00138969 0.0111199 0.00179792 0.00641467 0.00201468 0.0169988 0.00363643 0.015321 0.00399769 0.0254268 0.0025927 0.0203142 0.00364309 0.0258712 0.00488811 0.0202659 0.00512694 0.0288271
25 3 O 0.615611 53.7884 1.80636 -1.2 1 0.0999684 0.0409714 0.00147731 0.0114982 0.00201367 0.00697556 0.0021143 0.01688 0.00335286 0.0148746 0.00343615 0.0252948 0.00295662 0.0202862 0.00418355 0.0259245 0.0042621 0.02085 0.00542099 0.0288748
26 3 O -1.54252 57.6979 1.86615 -1.2 1 0.0203064 0.0134765 0.00537508 0.0075395 0.0016937 0.0055084 0.00113472 0.0177873 0.00303725 0.0113666 0.00328759 0.0250516 0.00393855 0.0196595 0.00539963 0.0276089 0.00486577 0.0209649 0.00380852 0.0291939
27 3 O -1.79414 54.5766 0.519363 -1.2 1 0.07535 0.033693 0.00436444 0.00898653 0.00227268 0.00628227 0.00172696 0.0179848 0.00361457 0.0142843 0.00355945 0.0244255 0.00292287 0.0200561 0.00457026 0.0259134 0.00580629 0.0207313 0.00526097 0.0283068
28 3 O -1.86667 54.5427 2.98739 -1.2 1 0.0788342 0.0346098 0.00403111 0.00936985 0.00177257 0.00541702 0.00152388 0.0171056 0.00357623 0.0139586 0.00331266 0.0241049 0.00256288 0.0200516 0.0039714 0.0258416 0.00481591 0.0206782 0.00441451 0.0284142
29 1 Mg -3.06764 57.8263 0.542452 1.2 1 0.0206901 0.0139656 0.00478495 0.00776233 0.00209839 0.00576091 0.00107934 0.0184568 0.0032262 0.0116943 0.00305665 0.025008 0.0030601 0.0197318 0.0046648 0.026628 0.00457638 0.0209769 0.00455203 0.0288258
30 1 Mg 1.93349 60.7426 1.68058 1.2 1 0.00560322 0.00694253 0.00139761 0.00804223 0.00143325 0.00587097 0.00139448 0.0191419 0.00274904 0.0101475 0.00206317 0.025253 0.0019534 0.0211299 0.00340578 0.0304188 0.00347651 0.0231757 0.00329261 0.0330561
31 2 Si -0.756133 59.1279 2.00088 2.4 1 0.011521 0.00865478 0.00228532 0.00777052 0.00204806 0.00576377 0.00146288 0.0182653 0.00261462 0.0110816 0.00347456 0.0244944 0.00300863 0.020784 0.00399393 0.0289179 0.00387084 0.0223335 0.00333452 0.030962
32 3 O 0.771896 58.8941 1.93237 -1.2 1 0.0123371 0.0097571 0.00246418 0.0076372 0.00159062 0.00540408 0.00117867 0.0184653 0.00333804 0.0108815 0.00283859 0.0249105 0.00252101 0.0203384 0.00445308 0.028473 0.0036792 0.0220279 0.00313664 0.0309201
33 3 O -1.62276 62.811 1.65236 -1.2 1 0.00428499 0.00677544 0.00266184 0.00848718 0.000860886 0.00562716 0.00128372 0.0198509 0.00166269 0.0103613 0.00285736 0.0252523 0.00196401 0.0204852 0.00347017 0.0305975 0.00316667 0.0239896 0.00363064 0.0355181
34 3 O -1.32076 59.8867 0.737326 -1.2 1 0.00850839 0.00690011 0.0012441 0.0081959 0.00181176 0.00554939 0.00131786 0.018734 0.00270571 0.0107709 0.00286086 0.0241934 0.00217353 0.0206832 0.00378319 0.0294718 0.00393805 0.0227755 0.00360971 0.0312581
35 1 Mg -2.43567 68.8792 3.08178 1.2 1 0.00367979 0.00620335 0.00185315 0.00810996 0.00109382 0.00580764 0.00156256 0.0203263 0.00167225 0.00895051 0.0014954 0.0251613 0.00329137 0.0188409 0.0052501 0.0295731 0.00475646 0.024135 0.00556023 0.036282
36 3 O -1.26159 59.6067 3.37244 -1.2 1 0.00966012 0.00827364 0.00121066 0.00739332 0.00149401 0.0061767 0.00218983 0.0188824 0.00231971 0.0106877 0.0024873 0.0247646 0.00315259 0.0206 0.00405971 0.0297942 0.00389649 0.0228713 0.00318283 0.0316638
37 1 Mg -2.41622 65.7046 4.43819 1.2 1 0.00189051 0.00600328 0.00230752 0.00744939 0.00085288 0.00594627 0.00116575 0.0202331 0.00265796 0.00926122 0.00238486 0.0249224 0.00269678 0.0196538 0.0036351 0.0313306 0.00421998 0.0256705 0.00355462 0.0367187
38 2 Si 0.0154862 67.2886 4.73949 2.4 1 0.00147002 0.00602788 0.00215455 0.00813323 0.00238851 0.00603268 0.00161848 0.0191079 0.00233607 0.00907449 0.00254507 0.0247363 0.00269406 0.0189941 0.00412872 0.0306252 0.00444896 0.0251995 0.00473245 0.0366047
39 3 O -1.43419 67.7352 4.68838 -1.2 1 0.00224747 0.0059654 0.0017724 0.00817861 0.00211905 0.00592862 0.0010394 0.0189134 0.00256602 0.00864115 0.00201407 0.0251998 0.00279385 0.0187444 0.00408322 0.0301474 0.00425797 0.0250533 0.00464518 0.0373868
40 3 O 1.19396 64.1564 4.51147 -1.2 1 0.00356535 0.00664867 0.0020629 0.00743212 0.00121358 0.0059224 0.000915606 0.0201966 0.0015263 0.0100772 0.00196471 0.025312 0.00263435 0.0199916 0.00298114 0.0308552 0.00296275 0.0247844 0.00300289 0.0359554
41 3 O 0.787177 66.9888 3.40351 -1.2 1 0.00246336 0.00610636 0.00268401 0.00777168 0.00212432 0.00552179 0.00161266 0.0197744 0.00226578 0.00916928 0.0018443 0.0244722 0.00264054 0.0195266 0.00461021 0.0299224 0.0043178 0.0245906 0.00499427 0.0369491
42 3 O 0.843614 66.8937 5.96971 -1.2 1 0.00119356 0.00614448 0.00144041 0.00779156 0.00195929 0.00646946 0.00150269 0.0198632 0.00274375 0.00928747 0.00231948 0.0245072 0.00227455 0.0194086 0.00352416 0.0308835 0.00472923 0.0265296 0.00388502 0.0373839
43 1 Mg -0.412658 63.4765 3.12314 1.2 1 0.00372093 0.00660141 0.00234008 0.00759761 0.000947252 0.00584254 0.00123678 0.0193311 0.00193216 0.0100552 0.0017876 0.0260194 0.0018769 0.0196965 0.00274926 0.030949 0.00337412 0.0237247 0.00292665 0.034501
44 1 Mg -0.528252 60.6469 4.75698 1.2 1 0.0081251 0.00714593 0.00159384 0.00769504 0.000813633 0.0058717 0.00170572 0.0183977 0.00197201 0.0103155 0.00264273 0.0252741 0.00290304 0.0211489 0.00483249 0.030565 0.00398828 0.0223848 0.00333041 0.0326958
45 2 Si 1.60938 62.6719 4.49148 2.4 1 0.00485206 0.00636833 0.00176633 0.00854154 0.00125705 0.00574765 0.00127772 0.0181832 0.00221639 0.00973989 0.00192826 0.0247974 0.00232833 0.0204618 0.00450715 0.0302422 0.00399767 0.0232489 0.00398387 0.0351178
46 3 O -1.51799 62.7463 4.47259 -1.2 1 0.00412867 0.00642164 0.00202992 0.00784805 0.00102702 0.00569895 0.000779281 0.01902 0.0022701 0.00937743 0.00179465 0.0252679 0.00205851 0.0198691 0.00318957 0.031025 0.00370001 0.0236392 0.00344101 0.0346316
47 3 O 0.777891 58.5501 5.06704 -1.2 1 0.0154021 0.0112688 0.0034036 0.00707375 0.0011676 0.00618172 0.00213018 0.018288 0.00239497 0.0104481 0.00244387 0.0245989 0.00369292 0.0200953 0.00615066 0.0287656 0.00603066 0.0215843 0.00346031 0.0307706
48 3 O 1.03184 61.753 3.27603 -1.2 1 0.00576369 0.00669883 0.00192462 0.00840849 0.00136723 0.00584901 0.00170983 0.0186426 0.00149892 0.00994307 0.00170649 0.0244269 0.00248677 0.0212914 0.00412857 0.031221 0.00318712 0.0240081 0.00378021 0.0339496
49 1 Mg -0.191957 63.2175 -0.0225047 1.2 1 0.003788 0.00666117 0.00298879 0.00799423 0.00114168 0.00549225 0.00129223 0.0202182 0.00170146 0.010451 0.00199073 0.0256516 0.00205918 0.0206104 0.00285515 0.0299841 0.00338018 0.0230195 0.00275325 0.0347927
50 3 O 0.916134 61.983 5.72946 -1.2 1 0.00638237 0.00633602 0.0018034 0.00801164 0.00153294 0.00566028 0.00198648 0.0185877 0.00186907 0.00984466 0.00160002 0.024935 0.00248064 0.0203242 0.00517463 0.0311285 0.00430409 0.023537 0.00343446 0.0336728
51 1 Mg -0.0464968 66.3777 1.6224 1.2 1 0.00299783 0.00647872 0.00253136 0.00795533 0.00123818 0.00518244 0.00185787 0.0200412 0.00200605 0.00985038 0.0028135 0.0247112 0.00254247 0.020054 0.00459836 0.03062 0.00362595 0.0238703 0.00437441 0.0367905
52 2 Si -2.25096 64.2095 1.3877 2.4 1 0.00360306 0.00630778 0.00293712 0.00883993 0.000896274 0.00510615 0.00143394 0.0193333 0.00233272 0.00956691 0.002826 0.0241981 0.00265406 0.0207923 0.00374607 0.0304555 0.00379306 0.0236195 0.00371436 0.0362782
53 3 O 0.879635 64.1991 1.69409 -1.2 1 0.00370177 0.006351 0.00294925 0.00834791 0.000892189 0.00523824 0.00136131 0.019282 0.00250409 0.00947741 0.00191846 0.0250954 0.00222018 0.0203609 0.00330528 0.0310078 0.00278063 0.0233914 0.0032215 0.0361908
54 3 O -1.14174 68.2419 1.53732 -1.2 1 0.00323856 0.0060023 0.00201463 0.00834315 0.001168 0.00520815 0.0012473 0.0207219 0.00160824 0.00938142 0.00225122 0.0248163 0.00287587 0.0193979 0.00427105 0.0298316 0.00470302 0.0236101 0.00552573 0.0370204
55 3 O -1.5201 64.9242 0.179764 -1.2 1 0.00333184 0.00651953 0.00284992 0.00819781 0.00124718 0.00489353 0.00251249 0.020511 0.00223686 0.00994598 0.00238783 0.0243421 0.0030191 0.0209256 0.00425379 0.0300576 0.00423219 0.0232894 0.00390728 0.0366256
56 3 O -1.50363 65.1494 2.74505 -1.2 1 0.00285536 0.00610172 0.00276227 0.00760008 0.00122947 0.00569296 0.00156998 0.0199795 0.00208479 0.009438 0.00195347 0.024448 0.00248419 0.0202237 0.0030112 0.0314237 0.00374849 0.0246637 0.00308375 0.0360705
57 1 Mg -2.6688 68.5752 0.288051 1.2 1 0.00370983 0.00559733 0.00118235 0.00840144 0.00188598 0.00515939 0.00188968 0.0207932 0.0018911 0.0102998 0.00201793 0.0248912 0.0030651 0.0200107 0.00508932 0.0295394 0.00452802 0.0224097 0.00582983 0.0366245
58 1 Mg 2.19327 71.8209 1.52481 1.2 1 0.00484494 0.00504095 0.00226951 0.00857487 0.0023767 0.00555752 0.00158511 0.0206366 0.00201088 0.00960613 0.00277176 0.0252283 0.00392322 0.0192479 0.00587557 0.0284044 0.00412541 0.0219472 0.00570084 0.0355362
59 2 Si -0.531031 69.6744 1.55478 2.4 1 0.00459237 0.00536394 0.0020598 0.00900511 0.00200809 0.00527431 0.00189827 0.0196514 0.00162774 0.00936367 0.0025277 0.0243941 0.00375419 0.0194014 0.00661531 0.0281279 0.00572594 0.0224007 0.00634514 0.0367016
60 3 O 1.01598 69.6595 1.64418 -1.2 1 0.00455422 0.00522073 0.00207964 0.00831706 0.00186108 0.00517169 0.0016464 0.0195469 0.00195736 0.00917531 0.00220495 0.0248377 0.00341239 0.0195486 0.0051729 0.0293452 0.00513692 0.0227488 0.00534072 0.0369028
61 3 O -1.64775 73.5019 1.30474 -1.2 1 0.00402358 0.00427113 0.00180733 0.00939017 0.00150612 0.00588665 0.00158014 0.0207057 0.0013673 0.00953493 0.00235365 0.0251192 0.00284902 0.0188231 0.00403962 0.0277236 0.00359351 0.0210607 0.00484164 0.0343683
62 3 O -1.3803 70.5438 0.370962 -1.2 1 0.00408916 0.00486495 0.0019232 0.00889736 0.00153224 0.00491438 0.00164023 0.0203755 0.00170388 0.00939678 0.00185176 0.0240657 0.00324674 0.0200518 0.00532015 0.0293956 0.00427394 0.0219187 0.00546416 0.0361611
63 1 Mg -2.25904 79.4509 3.26 1.2 1 0.0049519 0.00353487 0.0018154 0.00906469 0.00149006 0.00591443 0.0012348 0.0208743 0.00145809 0.0095772 0.00170735 0.0248241 0.00315319 0.0185425 0.0053777 0.0259478 0.00466265 0.0224199 0.00384257 0.0311508
64 3 O -1.22495 70.371 2.76466 -1.2 1 0.00492201 0.00549409 0.00205995 0.00801233 0.00218646 0.00573547 0.00217741 0.0202952 0.00221087 0.00911037 0.00257438 0.0238593 0.00378307 0.0194598 0.00659372 0.0289154 0.00594116 0.0236707 0.00608735 0.0358684
65 1 Mg -2.31401 76.1395 4.55751 1.2 1 0.00610136 0.00461916 0.00153592 0.00879074 0.00225742 0.00616741 0.00140638 0.0207053 0.00157817 0.0096437 0.00287272 0.0245453 0.00371337 0.0184338 0.00642484 0.0260743 0.00641113 0.021731 0.0071255 0.0316208
66 2 Si 0.28079 78.0877 4.67797 2.4 1 0.0058842 0.0041759 0.00194393 0.00952512 0.00257053 0.00531659 0.00161623 0.0194009 0.00226156 0.00910593 0.00293126 0.0236429 0.00416379 0.0185836 0.00644544 0.0255088 0.00562027 0.0216926 0.00623083 0.0309107
67 3 O -1.16367 78.3973 4.89563 -1.2 1 0.00680266 0.00396385 0.00150743 0.00922724 0.00266878 0.00540606 0.00163163 0.0196171 0.00293381 0.00912058 0.00288775 0.0236174 0.00462098 0.0186416 0.00774473 0.025461 0.00598788 0.021833 0.00666384 0.0309343
68 3 O 1.09099 74.2961 4.65222 -1.2 1 0.00630419 0.00481229 0.00127408 0.00860177 0.00299197 0.00642203 0.00160795 0.019749 0.0021194 0.00932621 0.00220826 0.0247681 0.00378925 0.0182171 0.00698511 0.0258159 0.00528547 0.0214561 0.00700682 0.0320979
69 3 O 0.998735 77.4212 3.378 -1.2 1 0.0054019 0.00396932 0.00164618 0.00914868 0.0022838 0.00561235 0.00126714 0.0203856 0.001354 0.00923316 0.0018649 0.0239035 0.00364303 0.0191422 0.00565818 0.0267507 0.0053145 0.0221345 0.00549408 0.031976
70 3 O 0.898963 77.5079 5.84503 -1.2 1 0.00655471 0.00492964 0.00172982 0.00856902 0.00251651 0.00561915 0.00195364 0.0194785 0.00211549 0.00974258 0.00364203 0.0236733 0.0049207 0.0187578 0.00772187 0.0251693 0.0065992 0.0211883 0.0068851 0.0305382
71 1 Mg -0.244856 73.8691 3.12867 1.2 1 0.00545054 0.00468281 0.0015797 0.00850667 0.00266332 0.00626641 0.00161523 0.0202966 0.00174156 0.00969856 0.00236247 0.0252616 0.00328594 0.0181234 0.00608555 0.0266323 0.00434214 0.0215657 0.00626851 0.0326748
72 1 Mg -0.146442 70.9093 4.48273 1.2 1 0.00489708 0.00575698 0.00234874 0.00779894 0.00207571 0.00606199 0.0011618 0.0196826 0.0026222 0.00903088 0.00218102 0.0246618 0.0032981 0.018434 0.00638668 0.0277989 0.00542812 0.023435 0.00523292 0.0347493
73 2 Si 1.86705 72.772 4.59061 2.4 1 0.00602863 0.00474749 0.00164408 0.00871361 0.00337943 0.00612602 0.00191201 0.0190706 0.00211307 0.00859123 0.00240623 0.0234361 0.00391072 0.0186984 0.00609534 0.0264208 0.00505294 0.022475 0.00596854 0.0336207
74 3 O -1.49904 72.8976 4.59208 -1.2 1 0.00608752 0.00454224 0.00171187 0.00852237 0.00336992 0.0059349 0.00193225 0.0189234 0.00271629 0.00840255 0.00283254 0.0234254 0.00417041 0.0177165 0.00724992 0.0265236 0.006008 0.0223463 0.00634498 0.0330362
75 3 O 0.847077 68.9806 4.70565 -1.2 1 0.00380553 0.00617412 0.00185477 0.00807182 0.00157321 0.00607887 0.00138567 0.0201508 0.00217791 0.00939058 0.00226926 0.0249783 0.00289769 0.0184864 0.00472526 0.0287132 0.00393562 0.0246346 0.00486069 0.0362024
76 3 O 1.01477 72.2253 3.13242 -1.2 1 0.00535835 0.00486992 0.0023534 0.00836283 0.0035935 0.00609751 0.00219994 0.0206461 0.00179591 0.00905489 0.0024804 0.0241953 0.00353705 0.0201075 0.00603525 0.0278525 0.00492658 0.0225586 0.00630494 0.0346484
77 1 Mg -0.436462 74.0884 -0.10859 1.2 1 0.00370458 0.00387465 0.00153408 0.00949825 0.00101216 0.00574852 0.000860107 0.0204265 0.00177954 0.00955497 0.0019561 0.0258856 0.00230018 0.0190767 0.0037555 0.0290351 0.00269062 0.0209047 0.00448213 0.0347962
78 3 O 1.25057 71.941 5.65927 -1.2 1 0.00471379 0.00526297 0.00147305 0.00777673 0.00215777 0.00647819 0.00151537 0.0195146 0.00194298 0.00894227 0.00211289 0.0239236 0.00275678 0.0181349 0.0058373 0.0271219 0.00491502 0.0239206 0.00494466 0.0334452
79 1 Mg 0.0982406 77.0433 1.39809 1.2 1 0.00386333 0.00359184 0.00131157 0.0093508 0.000809031 0.00608675 0.00168919 0.0208621 0.00166488 0.00918958 0.00205781 0.0255016 0.0028365 0.018521 0.00426305 0.0265335 0.00341314 0.0220284 0.00448266 0.0328046
80 2 Si -2.27284 75.1286 1.68443 2.4 1 0.00395841 0.00395668 0.00132858 0.0100403 0.00126154 0.00551503 0.00150401 0.0203314 0.00166066 0.00877178 0.00249195 0.0241509 0.00282062 0.0189179 0.00444368 0.0273404 0.00376481 0.0215142 0.00537116 0.0338474
81 3 O 1.02034 75.038 1.43633 -1.2 1 0.00361923 0.00423553 0.00160051 0.0096832 0.00128214 0.00530442 0.00141209 0.0205442 0.00244272 0.00894495 0.00242647 0.0244865 0.00318935 0.0190933 0.00452226 0.0279337 0.00377654 0.0215034 0.00568769 0.0338565
82 3 O -1.04274 78.9366 1.83386 -1.2 1 0.00380664 0.00339225 0.00167149 0.00967315 0.0011858 0.00592867 0.00101467 0.0211964 0.00133136 0.00950781 0.00263052 0.0253485 0.00284778 0.0182174 0.00400148 0.0256643 0.00400903 0.0222307 0.00313731 0.0329268
83 3 O -1.16866 75.7872 0.42103 -1.2 1 0.00329449 0.00422646 0.00101406 0.00924672 0.00124668 0.00581048 0.00178326 0.021127 0.00177924 0.0089667 0.00225679 0.0249121 0.00272936 0.0194872 0.00393676 0.0279391 0.00354377 0.0215663 0.00473824 0.0343033
84 3 O -1.63299 75.5622 2.96357 -1.2 1 0.0044891 0.00437034 0.00126865 0.00889613 0.00203368 0.00587949 0.00186754 0.0200908 0.00195301 0.00928397 0.00244008 0.0247577 0.00381924 0.0190364 0.00605196 0.0266203 0.0047721 0.0212735 0.00619669 0.0322344
85 1 Mg -2.25888 79.3141 0.281161 1.2 1 0.00315157 0.00335206 0.000813419 0.0101293 0.000611314 0.00625771 0.000889236 0.0215616 0.00133178 0.00955769 0.00169914 0.0260579 0.00211739 0.0181136 0.00290375 0.0257949 0.00273728 0.0224113 0.0026633 0.0333634
86 1 Mg 2.00223 82.1888 1.80239 1.2 1 0.00507816 0.00434139 0.00137588 0.00963292 0.00161349 0.00633694 0.00224966 0.0210642 0.00226943 0.0102468 0.00225381 0.0263563 0.00266276 0.0193071 0.00432346 0.0267224 0.00357732 0.0233216 0.00411359 0.0315264
87 2 Si -0.32093 80.4049 1.65229 2.4 1 0.00449493 0.00280289 0.00166841 0.0102846 0.00135242 0.00530855 0.0016615 0.0206208 0.00137618 0.00924994 0.00232181 0.0253246 0.00307469 0.0195494 0.00491786 0.0261186 0.00400662 0.0233287 0.00340516 0.0331904
88 3 O 1.21858 80.2915 1.59213 -1.2 1 0.00364233 0.00326788 0.00165326 0.00991071 0.000885897 0.00566244 0.00160378 0.0207349 0.00197254 0.00942632 0.0019194 0.0254849 0.00326052 0.0190628 0.00381565 0.0256063 0.00372977 0.0227634 0.00278272 0.0330866
89 3 O -1.40864 84.3083 2.04299 -1.2 1 0.00415242 0.00421039 0.00104958 0.00987075 0.00138523 0.00672343 0.00198647 0.0214146 0.00208194 0.0112786 0.00251089 0.0258346 0.00248158 0.0190932 0.00344916 0.0249423 0.00330116 0.0223743 0.0042368 0.0314624
90 3 O -1.01981 81.0841 0.54378 -1.2 1 0.00305176 0.00371064 0.00115431 0.00965998 0.00189352 0.00572622 0.00217527 0.0213494 0.00165788 0.00988652 0.00234566 0.0252643 0.00320683 0.0190577 0.00370081 0.0253113 0.00358857 0.023825 0.00387486 0.0335051
91 1 Mg -2.18677 89.8264 3.26329 1.2 1 0.00360508 0.00482391 0.000545093 0.0107508 0.00159714 0.00722805 0.00179827 0.0205479 0.00206796 0.0109692 0.00196848 0.0266087 0.00258352 0.0184465 0.00373945 0.026689 0.0034317 0.0218592 0.00296828 0.0334695
92 3 O -0.951183 81.0448 2.95473 -1.2 1 0.00488442 0.00334198 0.00207758 0.00915298 0.00186543 0.00627464 0.00193246 0.0206349 0.00156903 0.00981268 0.00268929 0.0251655 0.00296308 0.0193739 0.00607033 0.0253605 0.00482169 0.022289 0.00421329 0.0313859
93 1 Mg -1.95439 87.0078 4.70234 1.2 1 0.004075 0.00478511 0.00131875 0.00947433 0.00159206 0.00728594 0.00150871 0.020603 0.00252787 0.0116627 0.00272479 0.0259928 0.0037978 0.0193995 0.00376963 0.0270329 0.0045903 0.021315 0.00414641 0.0309898
94 2 Si 0.497181 88.8538 4.7894 2.4 1 0.00374015 0.0038525 0.00121384 0.010768 0.00243915 0.00635955 0.00253702 0.0192761 0.0018733 0.01109 0.00253732 0.0255279 0.00377395 0.0193189 0.00529976 0.026244 0.00341835 0.020774 0.00387906 0.0328518
95 3 O -1.12851 88.9101 4.86774 -1.2 1 0.00373939 0.00397997 0.000758437 0.0104837 0.00229037 0.00653217 0.00214456 0.019723 0.00304927 0.0110101 0.00209711 0.0254859 0.00289702 0.0190615 0.00427573 0.0262619 0.00370722 0.0208174 0.00427201 0.0328609
96 3 O 1.45216 84.839 4.70468 -1.2 1 0.00474521 0.00391389 0.00102553 0.0100958 0.00174401 0.00731849 0.00149039 0.0206804 0.00222602 0.0110091 0.00235052 0.0256409 0.00374901 0.0192352 0.0048476 0.0270473 0.00452715 0.0211674 0.00516843 0.0295993
97 3 O 1.14531 88.3264 3.45002 -1.2 1 0.00390528 0.00440278 0.000777575 0.00975469 0.00242753 0.00655635 0.00253791 0.0207511 0.00274028 0.0116006 0.0021956 0.0254024 0.00393077 0.0194917 0.00426973 0.0254988 0.00444327 0.0216503 0.0041032 0.0328829
98 3 O 1.1132 88.22 6.10584 -1.2 1 0.00270024 0.00425739 0.00109941 0.00985292 0.00236799 0.00713193 0.00183097 0.0203069 0.00225682 0.0114533 0.00220383 0.0256834 0.00340511 0.0203011 0.00433726 0.0266734 0.00348134 0.0202948 0.00424102 0.0320636
99 1 Mg 0.125521 84.3935 3.35889 1.2 1 0.00490235 0.00415214 0.00108669 0.00957378 0.00193907 0.00721837 0.00174733 0.0211475 0.00192288 0.0109109 0.0022508 0.0258939 0.0033294 0.0194109 0.00406318 0.0263314 0.00419983 0.021966 0.00463302 0.0299651
100 1 Mg -0.112603 81.3691 4.55743 1.2 1 0.00574258 0.0031448 0.0020826 0.00836785 0.00188079 0.00648167 0.001209 0.0209527 0.00233916 0.0103731 0.00233513 0.0247714 0.00370125 0.0198772 0.00631838 0.0252747 0.00580278 0.0217061 0.00514874 0.0297472
101 2 Si 2.09207 83.4153 4.99762 2.4 1 0.00567497 0.00315843 0.001772 0.00967558 0.00286027 0.00625437 0.0021962 0.0202063 0.0020308 0.0104784 0.00292093 0.0248019 0.00477549 0.0197918 0.00513881 0.026666 0.00478459 0.0208091 0.00592962 0.029161
102 3 O -1.04219 83.6652 5.19456 -1.2 1 0.00598964 0.0034931 0.00184735 0.00955004 0.00236973 0.00649511 0.00162424 0.0205404 0.00314185 0.0103931 0.00260283 0.0251073 0.00469398 0.0198846 0.00645547 0.0263819 0.00620759 0.0207367 0.00631142 0.0294497
103 3 O 1.19875 79.5575 4.66825 -1.2 1 0.00643446 0.00343013 0.00179962 0.00913497 0.00187749 0.00608307 0.00157007 0.020314 0.00226202 0.00959021 0.0021785 0.0243424 0.003903 0.0190319 0.00682186 0.0250951 0.00569595 0.0218737 0.00578733 0.030145
104 3 O 1.59728 82.5284 3.69945 -1.2 1 0.00553871 0.0038379 0.0020149 0.00904393 0.00207163 0.0066884 0.00166047 0.0211908 0.00180561 0.010446 0.00218276 0.0250379 0.00343424 0.0199068 0.00487984 0.0262087 0.0048282 0.0222097 0.0049001 0.0300971
105 1 Mg 0.173583 84.8094 0.618608 1.2 1 0.00407249 0.00483308 0.0012605 0.0099976 0.0012246 0.00686925 0.00133994 0.0213467 0.00178346 0.0110938 0.00188168 0.0262733 0.00204036 0.018646 0.00345211 0.0246756 0.00332636 0.0226739 0.00456346 0.0314957
106 3 O 1.43403 82.9696 6.38635 -1.2 1 0.00584276 0.00378448 0.00229707 0.00931749 0.00287291 0.00680436 0.00171368 0.0206414 0.00201453 0.0109266 0.00230194 0.0250528 0.00491693 0.0206844 0.00492581 0.0267942 0.00508068 0.0206959 0.0059511 0.0293195
107 1 Mg 0.284786 87.7794 1.76869 1.2 1 0.00423186 0.00455195 0.00120499 0.00995376 0.0015848 0.00653572 0.00180901 0.0200415 0.00276579 0.0115255 0.00268938 0.0264215 0.00294627 0.0190229 0.00382876 0.0250188 0.00307999 0.0215056 0.00346155 0.0321691
108 2 Si -1.80605 85.7244 1.91665 2.4 1 0.00467683 0.00419661 0.00126627 0.0103234 0.00138125 0.00629179 0.0019428 0.0202653 0.00186547 0.0114538 0.00291392 0.0248824 0.0026922 0.0195088 0.00534382 0.0242312 0.00412111 0.0216284 0.00483123 0.0319087
109 3 O 1.24598 85.68 1.9852 -1.2 1 0.00460447 0.00446682 0.00167053 0.00990763 0.00156207 0.00614377 0.00180467 0.0203356 0.00220166 0.0110895 0.00213823 0.0251644 0.00285455 0.0189172 0.00313593 0.0247053 0.00386451 0.0214826 0.00422424 0.0308532
110 3 O -0.813015 89.5916 1.80706 -1.2 1 0.00329334 0.00486631 0.0010591 0.0102723 0.00140384 0.00671909 0.00126721 0.0206479 0.00201958 0.0113087 0.00235704 0.0264201 0.00279874 0.0188144 0.00328743 0.0259434 0.00339887 0.0216601 0.0032925 0.0340734
111 3 O -1.26637 86.2165 0.54926 -1.2 1 0.00418188 0.00438126 0.00184542 0.00986326 0.00194683 0.00635466 0.00250517 0.020568 0.0025002 0.0110754 0.00261983 0.0256152 0.00320691 0.0191526 0.00397338 0.0252659 0.00272185 0.0222188 0.00374795 0.0322432
112 3 O -1.14944 86.5278 2.96 -1.2 1 0.00501922 0.00481271 0.0017067 0.00953335 0.00147816 0.00690642 0.00183314 0.0205405 0.00201487 0.0115023 0.0024761 0.025395 0.00351518 0.0199227 0.00498963 0.0260341 0.00417733 0.0212408 0.00437198 0.0310399
113 1 Mg -2.24859 90.2822 0.237883 1.2 1 0.00253324 0.00462116 0.000711286 0.0101682 0.00160762 0.00679322 0.00128422 0.020348 0.00159661 0.0106931 0.00209002 0.0269141 0.00236277 0.0184716 0.00332528 0.0259443 0.00274285 0.0221127 0.00332866 0.0345026
114 1 Mg 2.48991 93.3541 1.78385 1.2 1 0.0028668 0.00541449 0.00155738 0.0098895 0.00119757 0.00671989 0.00215104 0.0202286 0.00218879 0.0105185 0.00238553 0.0265162 0.0019736 0.0195656 0.00324634 0.0273773 0.00323944 0.023388 0.00330857 0.035782
115 2 Si -0.242555 91.1933 1.74645 2.4 1 0.0032262 0.00462339 0.000974376 0.0111175 0.00199924 0.00597248 0.00188545 0.0197725 0.00179728 0.0101904 0.00195259 0.0265064 0.00253003 0.0193197 0.00397664 0.0270673 0.00400393 0.0216675 0.00400291 0.0359941
116 3 O 1.43246 91.0455 1.7071 -1.2 1 0.0031783 0.00447436 0.00109166 0.0109853 0.0019559 0.00591408 0.00140363 0.0195885 0.00309805 0.0104791 0.00235163 0.0265883 0.00241865 0.0192725 0.00390039 0.0272422 0.00256353 0.0220806 0.00328608 0.0353504
117 3 O -1.282 95.1002 1.65195 -1.2 1 0.00346611 0.00498821 0.00106629 0.00887194 0.00129302 0.00619942 0.00119862 0.0202172 0.00228538 0.00982943 0.00243018 0.0258374 0.00220509 0.0185416 0.00272906 0.0271939 0.00440667 0.0238487 0.00420781 0.0355784
118 3 O -0.903009 91.9176 0.268595 -1.2 1 0.00215864 0.00571624 0.000901985 0.00985433 0.0020258 0.00616978 0.00147582 0.0205462 0.00170893 0.0097159 0.00222988 0.0263529 0.00256492 0.0201542 0.00362626 0.0272332 0.00327769 0.023283 0.00374059 0.0358873
119 1 Mg -2.26943 100.979 3.28746 1.2 1 0.00338068 0.00521887 0.00097532 0.00798342 0.00132737 0.00694881 0.00200411 0.0205761 0.0012036 0.0103257 0.00213384 0.0254549 0.00222746 0.0175905 0.00311378 0.0276789 0.00343886 0.02515 0.0033478 0.032704