ITEM: TIMESTEP
60200
ITEM: NUMBER OF ATOMS
5600
ITEM: BOX BOUNDS xy xz yz pp pp pp
0	7.1235	0
0	201.985	2.3745
0	119.584	0
ITEM: ATOMS id type element xu yu zu q Q_1 Q_2 Q_3 Q_4 Q_5 Q_6 Q_7 Q_8 Q_9 Q_10 Q_11 Q_12 Q_13 Q_14 Q_15 Q_16 Q_17 Q_18 Q_19 Q_20 Q_21
1 1 Mg -1.3788 48.436 -1.00587 1.2 1 0.230639 0.0825635 0.0197962 0.0229479 0.00695857 0.0118481 0.00319936 0.0181198 0.00441128 0.0223228 0.00594655 0.0218257 0.00788245 0.0245119 0.00794565 0.0222698 0.00718174 0.0205416 0.00801644 0.0259212
2 1 Mg 3.54238 50.0727 2.38706 1.2 1 0.18317 0.0703407 0.0100365 0.0176699 0.00312829 0.00976447 0.00260742 0.0168549 0.00393025 0.0192996 0.00410795 0.0209971 0.00408088 0.0210787 0.0055275 0.0216819 0.00621265 0.0171589 0.00775067 0.0281746
3 2 Si 1.14622 49.9489 0.27977 2.4 1 0.195504 0.0733298 0.0122515 0.0190172 0.00481193 0.00966113 0.00200436 0.0170044 0.00386761 0.0204744 0.00436852 0.0211579 0.00612509 0.0228313 0.00515132 0.0220651 0.0053644 0.0182902 0.00693055 0.0254921
4 3 O 2.55659 49.4243 0.420416 -1.2 1 0.202757 0.0768123 0.013673 0.0198554 0.00450605 0.0100274 0.00226746 0.0165902 0.00456629 0.0202254 0.00464047 0.0204238 0.0059329 0.0233259 0.00575031 0.0216522 0.00593773 0.0181537 0.00710531 0.0256241
5 3 O -1.1733 52.661 1.57824 -1.2 1 0.129946 0.054125 0.00357262 0.0126419 0.00301195 0.00821449 0.00247906 0.0169649 0.00332542 0.0169972 0.00331487 0.0214655 0.00392379 0.0194497 0.00339024 0.022353 0.00525665 0.0178816 0.00567341 0.0275623
6 3 O 0.445236 49.0403 -0.898725 -1.2 1 0.211372 0.0800035 0.0150999 0.021211 0.00557765 0.0107733 0.00208241 0.0172196 0.00447299 0.0209095 0.00475953 0.0214529 0.00593843 0.0234631 0.00669411 0.0218401 0.00671988 0.0184871 0.00696325 0.0255405
7 1 Mg -2.36327 58.6074 3.21786 1.2 1 0.0124421 0.0149812 0.00557919 0.00763141 0.00187805 0.005632 0.00227683 0.0198335 0.00291551 0.0130778 0.00219786 0.0241915 0.00370536 0.0199013 0.00522412 0.0280623 0.00637012 0.0241334 0.00591345 0.0344088
8 3 O 0.39546 49.9272 1.68338 -1.2 1 0.192725 0.0723167 0.0110191 0.0184862 0.00390721 0.00957939 0.00244583 0.0169139 0.0037433 0.0202998 0.00437969 0.0209509 0.00396335 0.0225849 0.00536185 0.0216703 0.00520622 0.0178583 0.00717949 0.02653
9 1 Mg -2.05192 55.8787 4.36637 1.2 1 0.0616552 0.0343129 0.00396867 0.00929057 0.00230179 0.00671213 0.00194348 0.0190555 0.0030856 0.0155072 0.00240978 0.0226676 0.00363079 0.0194071 0.0045642 0.0254979 0.00591932 0.0222993 0.00545216 0.0309091
10 2 Si 0.47063 57.6478 4.64926 2.4 1 0.0222259 0.0189594 0.0066973 0.00843982 0.00211289 0.0059096 0.00267132 0.0196182 0.00320564 0.0125852 0.00301626 0.0229969 0.0034428 0.0208342 0.0054059 0.0273457 0.00591857 0.0239311 0.00556158 0.0342136
11 3 O -1.01087 57.5375 4.46507 -1.2 1 0.0248367 0.0206446 0.00694133 0.00814146 0.00200965 0.00556738 0.0026588 0.0193507 0.00341942 0.0126128 0.00291362 0.023073 0.00425373 0.0201599 0.00540837 0.0280749 0.00679093 0.0230978 0.00628557 0.0336692
12 3 O 1.93049 53.327 4.78069 -1.2 1 0.121089 0.0500256 0.00282566 0.0126527 0.00260256 0.00835414 0.0029546 0.0183518 0.00265272 0.0187057 0.00296336 0.0224877 0.00404448 0.0192738 0.00501275 0.0223941 0.00496944 0.0195491 0.00593788 0.0286934
13 3 O 1.09522 56.9057 3.32387 -1.2 1 0.0344893 0.025546 0.00686613 0.00841256 0.00209814 0.00562688 0.00213893 0.0191882 0.00252643 0.0134613 0.00276582 0.0230928 0.00319056 0.0202595 0.0046204 0.0268354 0.00494427 0.0226093 0.00551219 0.032551
14 3 O 1.05667 56.8257 5.88101 -1.2 1 0.0371863 0.0253762 0.00716154 0.00822315 0.00151312 0.00660835 0.00190363 0.0197266 0.00302803 0.0134005 0.00307528 0.0234827 0.00291518 0.020315 0.00423902 0.0270396 0.00525955 0.0236841 0.00540912 0.0330537
15 1 Mg 0.624563 52.9035 3.07724 1.2 1 0.12596 0.0538365 0.00222764 0.0130515 0.0022578 0.00854793 0.00297233 0.0171424 0.00262759 0.0179992 0.00353738 0.0217201 0.00411096 0.0186082 0.00355964 0.0219457 0.00471607 0.0181979 0.0059536 0.0281804
16 1 Mg 0.960803 48.8611 3.07849 1.2 1 0.212056 0.0756319 0.0146657 0.021188 0.00454818 0.0104238 0.00260079 0.0177088 0.0040197 0.0213946 0.00422137 0.0204286 0.00490525 0.0230088 0.00693348 0.0217987 0.00606869 0.0180329 0.00878816 0.0277442
17 2 Si 2.61368 51.8805 4.67175 2.4 1 0.158476 0.0598656 0.00695935 0.0162298 0.00308704 0.00898811 0.00321007 0.0167602 0.00287036 0.0194803 0.00354204 0.0219563 0.0047915 0.0195616 0.00526297 0.0216056 0.00495203 0.0178044 0.00664987 0.02792
18 3 O -0.6614 52.3021 4.53704 -1.2 1 0.137857 0.054686 0.00337064 0.0132739 0.00332151 0.00753533 0.0034445 0.0171229 0.00360803 0.0186955 0.00273189 0.0223302 0.0044444 0.0203914 0.00505696 0.0215629 0.00563732 0.018353 0.00575285 0.0283613
19 3 O 2.85109 48.0592 3.33518 -1.2 1 0.232346 0.0817088 0.0189935 0.0250197 0.00448549 0.0123178 0.00264955 0.0170443 0.00445986 0.0227971 0.00556411 0.022147 0.00683993 0.0220234 0.00778559 0.0218257 0.00661867 0.0192401 0.00956321 0.0283625
20 3 O 2.09812 51.0424 3.55832 -1.2 1 0.167042 0.0638039 0.00715755 0.0154619 0.00353946 0.00915501 0.00308078 0.0175822 0.00336791 0.0197518 0.0031088 0.022103 0.00421022 0.0209985 0.00633769 0.0216259 0.00478903 0.0177984 0.00645175 0.0278964
21 1 Mg 0.0644235 53.0629 -0.0358074 1.2 1 0.120273 0.0536923 0.00274243 0.0132471 0.00291786 0.00826501 0.0021215 0.0163081 0.00329734 0.0166849 0.00270784 0.0225226 0.00455331 0.0186819 0.00359923 0.0220296 0.00512926 0.018657 0.00568751 0.0268015
22 3 O 2.2233 50.9193 6.0182 -1.2 1 0.170587 0.0630884 0.0084685 0.0169931 0.0031258 0.0095572 0.00323161 0.0176236 0.00350305 0.021124 0.00402871 0.0226998 0.00505355 0.0209036 0.00592817 0.0216161 0.00546939 0.0180416 0.00721236 0.0275181
23 1 Mg -0.125021 56.378 1.774 1.2 1 0.0454409 0.0305593 0.00646072 0.00800584 0.00191579 0.00663049 0.00184627 0.0181072 0.00413569 0.0134084 0.00348051 0.0236247 0.00359477 0.0191878 0.00456577 0.0249353 0.00611542 0.0214281 0.00487032 0.0312003
24 2 Si -1.80266 54.0988 1.4972 2.4 1 0.105766 0.0481219 0.000978748 0.0114937 0.00212701 0.00700971 0.00215489 0.0172772 0.00374709 0.0161938 0.00250815 0.0216622 0.00337782 0.0188642 0.0039798 0.0222043 0.00566167 0.0186068 0.00557141 0.0280277
25 3 O 1.46915 54.0293 1.68062 -1.2 1 0.10439 0.0471813 0.000702463 0.0113002 0.00215769 0.00736044 0.00245295 0.0165395 0.00278087 0.0160901 0.00324032 0.0214988 0.00354458 0.0183142 0.00379428 0.0231342 0.00502509 0.0187655 0.00569874 0.0284542
26 3 O -1.05795 58.1703 1.53778 -1.2 1 0.0163809 0.017902 0.00690726 0.00757008 0.00179686 0.00574374 0.00176861 0.0195599 0.00343748 0.0123142 0.00281222 0.023766 0.00348618 0.0194786 0.00514231 0.0273098 0.00617868 0.0234092 0.00487606 0.0339311
27 3 O -1.20354 54.6884 0.247211 -1.2 1 0.0828313 0.0428275 0.00271333 0.00998938 0.00262302 0.00657711 0.00247407 0.016855 0.00385758 0.0147087 0.00280337 0.0220638 0.00314299 0.0191088 0.00404651 0.0231584 0.0060297 0.0201435 0.00535976 0.028945
28 3 O -1.36993 55.0888 2.69456 -1.2 1 0.0786215 0.0395644 0.00231878 0.0094861 0.00199579 0.00718854 0.0018133 0.017835 0.00371334 0.0152577 0.00327728 0.0225235 0.0031034 0.0186935 0.0038597 0.0240439 0.00597515 0.0209066 0.00518599 0.0295101
29 1 Mg -2.63321 58.4011 0.170737 1.2 1 0.014647 0.0168482 0.00645485 0.00681564 0.00151588 0.00576477 0.00222125 0.0192727 0.00332365 0.0127787 0.00219296 0.0245898 0.00354611 0.0187785 0.00417765 0.0270915 0.00549276 0.0234226 0.00503284 0.0344822
30 1 Mg 2.2686 61.4028 1.62319 1.2 1 0.00167377 0.00914281 0.00236644 0.00768869 0.00139167 0.00542677 0.00159844 0.0203442 0.00230169 0.0120901 0.00246446 0.0249647 0.0030188 0.0196901 0.00484852 0.0293423 0.00512561 0.0248636 0.00390555 0.0365636
31 2 Si -0.374226 59.7136 1.75527 2.4 1 0.00609985 0.0118985 0.00343722 0.00795476 0.00217224 0.00511089 0.00211807 0.0195851 0.00255087 0.0124266 0.00373266 0.0240379 0.00386277 0.0198374 0.00608513 0.0278894 0.00667076 0.0242708 0.00559508 0.0361202
32 3 O 1.24644 59.6216 1.72346 -1.2 1 0.00612867 0.0112468 0.00393287 0.00811617 0.0015625 0.0052537 0.00174808 0.0192999 0.00316831 0.0115558 0.00271503 0.0243453 0.00333484 0.0193311 0.0047804 0.028284 0.0063241 0.0242327 0.00466906 0.035935
33 3 O -1.49541 63.277 1.52347 -1.2 1 0.00176241 0.00808208 0.00132382 0.0084458 0.00120403 0.00595135 0.00161938 0.020996 0.00186901 0.011602 0.00206258 0.0257658 0.00255632 0.0193499 0.00367126 0.0288098 0.00373544 0.023958 0.00325479 0.0379589
34 3 O -0.962384 60.432 0.48026 -1.2 1 0.00389945 0.0102939 0.00260545 0.0073063 0.00161136 0.00574952 0.00240722 0.0203658 0.00308592 0.0113952 0.00204476 0.0245375 0.00331106 0.0195839 0.004576 0.0285097 0.00547814 0.0243391 0.00458368 0.0362354
35 1 Mg -2.30377 69.3211 3.1804 1.2 1 0.00262696 0.00499549 0.00131224 0.00830968 0.000735435 0.0071428 0.00127255 0.021292 0.00192383 0.00921342 0.00178179 0.0269373 0.00264591 0.0179255 0.00214765 0.0286652 0.00326159 0.0233389 0.00411213 0.0405639
36 3 O -0.886572 60.2175 3.14298 -1.2 1 0.00526713 0.0106198 0.00338282 0.00773829 0.00182977 0.00532617 0.00192357 0.0203889 0.00245923 0.0119075 0.00246055 0.0240104 0.00303865 0.0200499 0.00506455 0.0282571 0.0055991 0.0241717 0.0051608 0.0364222
37 1 Mg -2.27598 66.4009 4.53311 1.2 1 0.00372308 0.00619436 0.00108437 0.00818781 0.000910093 0.00618901 0.00140681 0.0211978 0.00180558 0.00969183 0.00195895 0.0262015 0.00279115 0.0199741 0.003083 0.0300229 0.00369906 0.0246044 0.00371368 0.0393792
38 2 Si 0.463212 68.4129 4.34788 2.4 1 0.00355865 0.00491948 0.000816726 0.00943296 0.00129261 0.00684107 0.00192141 0.0207465 0.00229807 0.0091462 0.00281329 0.0260302 0.00330153 0.0188083 0.00328399 0.0287879 0.00428273 0.0236885 0.00494749 0.0414972
39 3 O -1.16336 68.4519 4.59053 -1.2 1 0.00308199 0.00478521 0.000790069 0.00864486 0.000909025 0.00717613 0.00182279 0.0209173 0.00266881 0.00927733 0.00172975 0.0263517 0.00277166 0.0179484 0.00324932 0.0284507 0.00421277 0.0232474 0.00456903 0.040898
40 3 O 1.22099 64.2905 4.46861 -1.2 1 0.00370362 0.00691275 0.00143282 0.00842737 0.00102606 0.00588863 0.00163843 0.0210861 0.00190242 0.00981748 0.00241262 0.0258309 0.00271734 0.0192717 0.00373716 0.0288555 0.00361459 0.0242938 0.00357346 0.0388977
41 3 O 1.1087 67.6421 3.17601 -1.2 1 0.00223874 0.0061629 0.00140873 0.00796383 0.00181365 0.00635684 0.00199093 0.0216262 0.00225119 0.00967979 0.00195256 0.0256457 0.00335336 0.0196446 0.00285579 0.0287481 0.00401481 0.0241303 0.00475205 0.0401763
42 3 O 1.23002 67.6081 5.6476 -1.2 1 0.00407534 0.00519059 0.000719869 0.00830559 0.00125729 0.00633505 0.00281796 0.0213556 0.00159736 0.00935727 0.00236857 0.0263061 0.0027252 0.0193972 0.0023706 0.0296888 0.00401189 0.0240887 0.00418007 0.0400843
43 1 Mg -0.0243348 63.3864 2.84323 1.2 1 0.00232978 0.00810331 0.00190792 0.0078612 0.00129599 0.00616255 0.00181885 0.0209649 0.00184416 0.0115004 0.00208756 0.0257824 0.00249863 0.0191072 0.0029354 0.0287512 0.00359059 0.0242865 0.00298487 0.0373109
44 1 Mg -0.0359797 60.9293 4.88735 1.2 1 0.00483706 0.0081239 0.00232459 0.00716974 0.00189402 0.00583633 0.0018109 0.0209993 0.00199838 0.0118319 0.00293411 0.0251786 0.00250028 0.0202631 0.00325 0.0285977 0.00374122 0.0238616 0.00435365 0.0373169
45 2 Si 2.05294 62.8536 4.64913 2.4 1 0.00379213 0.00644928 0.00190707 0.00855694 0.0019532 0.00522811 0.00202893 0.0205698 0.00246056 0.0102786 0.00253368 0.0249999 0.00291106 0.0201824 0.00374399 0.0286605 0.00374319 0.0239352 0.00359947 0.038701
46 3 O -0.988996 62.8769 4.58402 -1.2 1 0.00384277 0.00665232 0.00145661 0.0081346 0.00181491 0.00534435 0.00214479 0.0201973 0.00248625 0.0102324 0.00208767 0.025241 0.00192685 0.0201335 0.00395576 0.029064 0.00377956 0.0240117 0.00433553 0.0386727
47 3 O 1.06744 59.1078 4.73167 -1.2 1 0.0106762 0.0128442 0.00474633 0.00776946 0.00207679 0.00583685 0.00256246 0.0205261 0.00264793 0.012225 0.00194469 0.0241894 0.00342885 0.0202714 0.00477546 0.0282205 0.0062755 0.0241013 0.00524197 0.0358534
48 3 O 1.5562 62.1051 3.27817 -1.2 1 0.0027323 0.00733135 0.00210874 0.00817683 0.00167393 0.00590895 0.00183813 0.0206921 0.0019722 0.0112066 0.00188727 0.02487 0.00290874 0.0198023 0.00332663 0.0294074 0.00397202 0.0246944 0.00404628 0.0369223
49 1 Mg -0.165513 63.8229 -0.0586826 1.2 1 0.00330532 0.00803363 0.000909731 0.00842423 0.00106843 0.00610317 0.00105325 0.020717 0.00154934 0.011652 0.00159786 0.0259529 0.00222556 0.018805 0.00329012 0.0288748 0.00291733 0.0236761 0.00276614 0.0379152
50 3 O 1.51181 62.1371 5.99264 -1.2 1 0.00391332 0.00628263 0.00163115 0.00775578 0.00177778 0.00571813 0.00272152 0.0209445 0.00167458 0.0109696 0.00165415 0.0256313 0.00231511 0.0203727 0.00255749 0.0300514 0.00356797 0.024117 0.00355752 0.0387696
51 1 Mg 0.0393769 67.0179 1.37309 1.2 1 0.00171848 0.00645069 0.00161678 0.00770789 0.000943797 0.00628356 0.00161803 0.0211696 0.00260986 0.0107141 0.00178406 0.0259123 0.00295469 0.0190101 0.00334441 0.0287565 0.00315047 0.0237839 0.00404423 0.0393112
52 2 Si -1.99312 64.8729 1.47475 2.4 1 0.00158819 0.00752397 0.00142824 0.0087959 0.00168533 0.00536116 0.00185233 0.0204479 0.00216923 0.0108071 0.00231785 0.0249309 0.00315387 0.0199343 0.0053844 0.028348 0.00448502 0.0233081 0.00437665 0.0388835
53 3 O 1.13013 64.8881 1.31911 -1.2 1 0.00175017 0.00727683 0.00181198 0.00838563 0.00159928 0.00573037 0.00129298 0.0208469 0.0030125 0.0109684 0.00168923 0.0251962 0.00279854 0.0193136 0.0026233 0.0286607 0.003737 0.0240176 0.00389884 0.0385413
54 3 O -1.1746 68.953 1.58364 -1.2 1 0.0029158 0.00552749 0.00132483 0.0083852 0.0013223 0.0067244 0.0011865 0.0214306 0.0020934 0.00963576 0.00160825 0.0264554 0.00305229 0.0184016 0.00382038 0.0292601 0.00295003 0.0237904 0.00445937 0.0407283
55 3 O -1.41645 65.4628 0.10063 -1.2 1 0.00342318 0.0075854 0.00160297 0.0079886 0.00165699 0.00592255 0.00123938 0.0213105 0.00213478 0.0111847 0.00147846 0.0256439 0.00316556 0.0198076 0.00323291 0.0293223 0.0034882 0.02365 0.00399181 0.0385378
56 3 O -1.36267 65.6788 2.74435 -1.2 1 0.00206484 0.00705069 0.00134674 0.00774517 0.00169012 0.00580176 0.00183665 0.0211654 0.0022721 0.0100974 0.00220887 0.0255817 0.00302842 0.0200625 0.00373418 0.0297272 0.00389793 0.0240225 0.00372788 0.0392243
57 1 Mg -2.25603 69.6067 0.107011 1.2 1 0.00333827 0.00573454 0.00126502 0.00797551 0.001279 0.00710004 0.00107045 0.0216946 0.00184177 0.0106378 0.00197097 0.0266114 0.00300343 0.018422 0.00414744 0.0288586 0.00362872 0.0235786 0.00439475 0.0395699
58 1 Mg 2.36399 72.3563 1.74032 1.2 1 0.00393093 0.00493941 0.00133797 0.00850745 0.00112585 0.00702649 0.00125845 0.0222322 0.00145896 0.00972664 0.00171654 0.0271263 0.00273804 0.0184196 0.003985 0.0304716 0.00347321 0.0246183 0.00490486 0.0430741
59 2 Si -0.348338 70.3671 1.6805 2.4 1 0.00383376 0.00502868 0.00142106 0.00911076 0.00199151 0.00640328 0.00159665 0.0208453 0.00206697 0.00943458 0.00213468 0.0257718 0.00407708 0.0188843 0.00444242 0.0297403 0.00370935 0.0234694 0.00511982 0.0420542
60 3 O 1.17664 70.1528 1.67291 -1.2 1 0.00384939 0.00494595 0.00143793 0.00853713 0.00190954 0.00672307 0.00149255 0.0212061 0.00260233 0.00935718 0.00158576 0.0260699 0.00285083 0.0185646 0.00410324 0.0294179 0.00437427 0.0234607 0.00569212 0.0419332
61 3 O -1.22927 74.1297 1.74539 -1.2 1 0.0041516 0.00476393 0.000674634 0.0083535 0.00128475 0.00702977 0.00107396 0.0226191 0.00175762 0.00962347 0.00175726 0.0269415 0.00338785 0.0183658 0.00420609 0.0306811 0.00316739 0.0250238 0.00561872 0.0431254
62 3 O -1.09618 71.1699 0.448261 -1.2 1 0.00383382 0.0054621 0.00172112 0.00804683 0.00168678 0.00661396 0.00161541 0.0220011 0.00209844 0.00990951 0.00159274 0.0263755 0.003621 0.0187382 0.00390529 0.0299072 0.00364841 0.0247145 0.00478449 0.0419502
63 1 Mg -2.14752 79.904 3.28095 1.2 1 0.00130871 0.00427054 0.000830217 0.00797968 0.00137939 0.00702337 0.00136948 0.0216498 0.00177715 0.00957893 0.00155235 0.026073 0.00227773 0.0191036 0.00249264 0.0309639 0.00271135 0.02408 0.00295946 0.0396991
64 3 O -0.971078 71.1425 2.90875 -1.2 1 0.00291345 0.00468709 0.000732342 0.00810054 0.00145237 0.00686611 0.00172264 0.021827 0.00177391 0.00931588 0.0016483 0.0257972 0.00304223 0.0188083 0.00352897 0.0304069 0.00284257 0.0240116 0.00395281 0.042378
65 1 Mg -2.13197 77.0179 4.70155 1.2 1 0.000836549 0.00424825 0.000709478 0.00809735 0.00117077 0.00653299 0.0016058 0.0209837 0.00267172 0.0105473 0.00221864 0.0263339 0.00306357 0.0192685 0.00345518 0.0307272 0.00294528 0.0233047 0.00421522 0.0406593
66 2 Si 0.596394 78.7955 4.70944 2.4 1 0.00166598 0.00345552 0.000748601 0.00887205 0.00227987 0.00662971 0.00207494 0.0210119 0.00243293 0.0102832 0.00333376 0.0252161 0.0034358 0.0199942 0.00378132 0.0306544 0.00364939 0.0240279 0.00469544 0.0405055
67 3 O -0.984941 79.0201 4.89119 -1.2 1 0.00188317 0.00366411 0.000657768 0.00837704 0.00205162 0.00667437 0.00139664 0.0205603 0.00277803 0.010201 0.00156081 0.0255558 0.00250806 0.0194149 0.00279791 0.0303635 0.00254788 0.0233923 0.00348517 0.0394525
68 3 O 1.4754 75.0787 4.64693 -1.2 1 0.00157205 0.00454129 0.00103002 0.00787576 0.00120888 0.00695988 0.00158251 0.0217112 0.00204963 0.0100427 0.00251507 0.0262258 0.00297453 0.0182791 0.00303271 0.0303012 0.00309402 0.0233981 0.00436378 0.0414869
69 3 O 1.37137 78.1764 3.37751 -1.2 1 0.000732941 0.00404081 0.000869717 0.00803249 0.00221623 0.006576 0.0020023 0.0222939 0.00291979 0.0097022 0.00243117 0.0254539 0.00315157 0.0195532 0.00313551 0.0315478 0.00323555 0.0245164 0.00457528 0.041377
70 3 O 1.13072 77.9693 6.00943 -1.2 1 0.00157088 0.00377926 0.000730513 0.00801739 0.00172459 0.00642078 0.00182911 0.0206652 0.00240464 0.0102795 0.00203371 0.0252399 0.00267178 0.0197623 0.00248464 0.0304756 0.00243011 0.0229148 0.0033476 0.038989
71 1 Mg 0.174474 74.3482 3.01225 1.2 1 0.00309666 0.00453574 0.000722398 0.00807796 0.00126028 0.00703981 0.00110155 0.0220163 0.00153118 0.00961872 0.00188738 0.0270503 0.00281203 0.0174438 0.00364563 0.0311122 0.00347542 0.0242884 0.00518469 0.042662
72 1 Mg 0.0629886 71.5741 4.59415 1.2 1 0.00324089 0.00473074 0.00094721 0.00800007 0.000751948 0.00701296 0.00118591 0.0218089 0.00199468 0.00961131 0.00182834 0.0266078 0.00242475 0.0182626 0.0026016 0.0304128 0.00410612 0.0236673 0.00299617 0.0419642
73 2 Si 2.15644 73.5918 4.64095 2.4 1 0.00288252 0.00465453 0.000747856 0.00888819 0.00137024 0.00658758 0.00136008 0.0213972 0.00187543 0.00993768 0.00238574 0.0251494 0.00262868 0.0189297 0.00416388 0.0302249 0.00436622 0.0230947 0.00401407 0.0428306
74 3 O -0.927685 73.685 4.6186 -1.2 1 0.00276223 0.00463446 0.000852488 0.00858718 0.00142933 0.00650203 0.00132229 0.0211004 0.00230621 0.00944861 0.00137178 0.0260335 0.00290714 0.0182313 0.00285177 0.0307552 0.00403818 0.0226847 0.00334093 0.0420471
75 3 O 1.08189 69.9113 4.46997 -1.2 1 0.00276568 0.00494194 0.000922165 0.00854096 0.000894404 0.0072118 0.00150333 0.0220971 0.0020863 0.0092075 0.00166858 0.0266839 0.00225763 0.0181344 0.00219539 0.0292285 0.00387149 0.0236251 0.00389305 0.0414571
76 3 O 1.4992 72.918 3.2642 -1.2 1 0.00341648 0.00471552 0.000775382 0.00828714 0.0015697 0.00676164 0.00166973 0.0220498 0.00178737 0.00943394 0.0017637 0.026123 0.0027817 0.0185179 0.0033194 0.0308406 0.00374948 0.0241033 0.00360324 0.0428882
77 1 Mg 0.00320234 74.6485 0.311266 1.2 1 0.00324281 0.00463845 0.000516197 0.00795506 0.00154053 0.00686501 0.00159522 0.0225906 0.00170427 0.00989133 0.00123359 0.027327 0.00296646 0.0181034 0.00302025 0.0308102 0.00263363 0.0252095 0.00486993 0.0423957
78 3 O 1.70925 72.7974 5.97693 -1.2 1 0.00208684 0.0050459 0.000599254 0.00796354 0.00157953 0.00662872 0.0016786 0.0213403 0.00215713 0.0100695 0.00178487 0.0255742 0.00243148 0.018561 0.00228107 0.0304456 0.00350456 0.022733 0.00313791 0.0417262
79 1 Mg 0.277721 77.6236 1.72536 1.2 1 0.00141481 0.00444652 0.000783387 0.0073636 0.00165857 0.00641641 0.00146379 0.0224746 0.00169851 0.00994958 0.00254045 0.0269356 0.00280104 0.0188331 0.00298031 0.0314861 0.00297497 0.024654 0.00535149 0.0424638
80 2 Si -1.86363 75.8887 1.84238 2.4 1 0.00273487 0.00472557 0.000674692 0.00856086 0.00202931 0.00651925 0.0018889 0.0221594 0.00193741 0.0100111 0.00230174 0.0261097 0.00341906 0.0190202 0.00381125 0.0310852 0.00325421 0.0250412 0.00550637 0.0439762
81 3 O 1.31778 75.5715 1.85845 -1.2 1 0.0027731 0.00436211 0.00076561 0.00855976 0.00172569 0.00657132 0.00163141 0.0216805 0.00236325 0.00956303 0.00191484 0.0265606 0.00314638 0.0184317 0.0036105 0.0311402 0.00320768 0.0245789 0.00606322 0.0430442
82 3 O -0.849662 79.4449 1.92143 -1.2 1 0.00145301 0.00458478 0.000823354 0.00791987 0.00192877 0.0072884 0.0016169 0.0227914 0.00158474 0.0100092 0.00161147 0.0267929 0.00233624 0.0187155 0.00343631 0.0304923 0.00260717 0.024618 0.00397559 0.0419987
83 3 O -1.08268 76.3967 0.560884 -1.2 1 0.00242583 0.00430086 0.000660356 0.0080374 0.00192529 0.00647618 0.00219935 0.022537 0.00219534 0.0101461 0.00187895 0.0266281 0.0028787 0.0189651 0.00292121 0.0311417 0.002651 0.0252868 0.00507169 0.043018
84 3 O -1.05844 76.3975 3.13901 -1.2 1 0.00198036 0.00466306 0.000998751 0.00808762 0.0016859 0.00656816 0.00248142 0.0219947 0.00179441 0.0102175 0.00227562 0.0253399 0.00371173 0.0192892 0.00377071 0.0315052 0.00304345 0.0245643 0.0054848 0.0424157
85 1 Mg -2.23991 80.1224 0.164742 1.2 1 0.00189788 0.0041875 0.000867338 0.0078881 0.00161708 0.00710307 0.00139077 0.0227825 0.00214727 0.00925962 0.00143932 0.0273724 0.00192427 0.0186486 0.00282559 0.0309109 0.00237046 0.0250241 0.00253754 0.0411819
86 1 Mg 2.69108 82.7312 1.75418 1.2 1 0.0021939 0.00488208 0.00186242 0.00743479 0.00174671 0.00679435 0.00175436 0.022174 0.00225794 0.0103929 0.00257978 0.0259141 0.00338793 0.0205341 0.00348481 0.0314405 0.00366118 0.0248103 0.00386195 0.0406837
87 2 Si -0.101055 80.9132 1.86583 2.4 1 0.0010007 0.00416493 0.00132087 0.00824878 0.00239105 0.00666116 0.00212486 0.0216084 0.00195958 0.00976368 0.00194355 0.0256839 0.00260531 0.0199719 0.00446291 0.0309504 0.00297961 0.0241269 0.00383986 0.0418034
88 3 O 1.37288 80.9197 1.63963 -1.2 1 0.00156532 0.00386565 0.00130935 0.00827897 0.00203984 0.00663959 0.00195944 0.0212591 0.00225299 0.00948868 0.00259205 0.0259374 0.002786 0.0197231 0.00260417 0.0306993 0.00287594 0.0240329 0.00382389 0.0416598
89 3 O -1.15716 84.5578 1.49254 -1.2 1 0.0028246 0.00570042 0.0015355 0.00826889 0.00174105 0.00730876 0.00177195 0.0220832 0.00157081 0.0102423 0.00257957 0.0259105 0.0030133 0.0200991 0.00267801 0.0304897 0.00223452 0.0245615 0.00471784 0.0409527
90 3 O -0.808522 81.5059 0.505358 -1.2 1 0.00139904 0.0041136 0.00110406 0.0075285 0.00223434 0.00613864 0.00180384 0.0220853 0.00174894 0.00933132 0.00169282 0.0259085 0.0022986 0.0199389 0.00380908 0.0314847 0.00266056 0.0243222 0.0033534 0.041886
91 1 Mg -2.16759 90.4723 3.26474 1.2 1 0.0037934 0.00562975 0.000905081 0.00768719 0.00122492 0.00763603 0.00158987 0.0206212 0.00148327 0.0127336 0.00238921 0.0262925 0.00178347 0.0212437 0.00243203 0.0316079 0.00299704 0.0255603 0.00323299 0.0400178
92 3 O -0.791867 81.5306 3.12978 -1.2 1 0.00214579 0.00477987 0.0018918 0.00812795 0.00216929 0.00640372 0.00250243 0.0216651 0.00144419 0.00993897 0.00137864 0.0251153 0.00236187 0.0206716 0.00338968 0.0312495 0.00280002 0.0240274 0.00299538 0.0402795
93 1 Mg -2.27395 87.3719 4.67732 1.2 1 0.00502118 0.00660111 0.00106114 0.00784584 0.00156535 0.0070477 0.00207325 0.0206878 0.00264707 0.0117126 0.00325239 0.0254961 0.00243949 0.0210406 0.00296882 0.0312356 0.00422871 0.0254668 0.00514909 0.0394979
94 2 Si 0.326908 89.5168 4.47392 2.4 1 0.00529316 0.00584917 0.00098231 0.0084169 0.00201222 0.00668642 0.00153862 0.0200124 0.00189091 0.0114143 0.0024884 0.0252267 0.00263563 0.0212295 0.00331985 0.0315658 0.00414079 0.0251249 0.00452247 0.0399301
95 3 O -1.21511 89.4702 4.62384 -1.2 1 0.00563438 0.00565121 0.00101901 0.00806845 0.00187189 0.00697673 0.0018296 0.0195996 0.00228497 0.0114187 0.00196653 0.02567 0.00250323 0.020833 0.0025383 0.031406 0.00304416 0.0255606 0.00474723 0.0401571
96 3 O 1.4613 85.6419 4.49791 -1.2 1 0.00470035 0.00680348 0.001841 0.00817551 0.00130956 0.00726308 0.00207396 0.0214483 0.00162691 0.0112249 0.00162197 0.0257504 0.00293776 0.0204126 0.00321682 0.0305606 0.00315428 0.0251355 0.00370384 0.0394339
97 3 O 1.03701 88.8383 3.31763 -1.2 1 0.00528355 0.00631335 0.00138387 0.00785245 0.00205368 0.00729186 0.00150073 0.0207161 0.00178673 0.0116457 0.00182364 0.0253498 0.00287784 0.0212605 0.00264342 0.031824 0.00382802 0.0251973 0.00482085 0.0399025
98 3 O 0.992702 88.549 5.93057 -1.2 1 0.00520049 0.00627805 0.00139232 0.00753741 0.00167922 0.00651082 0.00162199 0.020978 0.00191283 0.0118788 0.00226771 0.0260063 0.00269022 0.0214723 0.00331239 0.031777 0.00397855 0.0259714 0.004653 0.0395913
99 1 Mg 0.137874 85.314 3.03727 1.2 1 0.00325242 0.00616611 0.00167383 0.00813808 0.00151299 0.00725131 0.00170831 0.0212283 0.00116614 0.0105931 0.00175683 0.0259318 0.00266055 0.0199442 0.00215544 0.030689 0.00301852 0.0245109 0.00371946 0.0400092
100 1 Mg 0.1415 82.1938 4.70453 1.2 1 0.00298508 0.00493897 0.00161362 0.00815047 0.00156493 0.00634924 0.00155481 0.0212716 0.00260592 0.0104681 0.00185874 0.0256596 0.00213937 0.0204142 0.00332877 0.0307479 0.00334916 0.0239959 0.00292284 0.0385289
101 2 Si 2.14201 84.1319 4.52094 2.4 1 0.00325275 0.00596047 0.00185481 0.00891286 0.00156085 0.00671708 0.00241729 0.0207929 0.00199235 0.0106655 0.00239387 0.0247175 0.00313139 0.0205854 0.00441594 0.029884 0.00372362 0.0241199 0.00345575 0.0396515
102 3 O -1.05849 84.3771 4.54757 -1.2 1 0.00354748 0.00600959 0.00193814 0.00832031 0.00151043 0.00699932 0.00178001 0.0210936 0.00215057 0.0108562 0.00183381 0.0255714 0.00257095 0.0198788 0.00308002 0.030452 0.00322585 0.0248321 0.00360342 0.039348
103 3 O 1.29733 80.2926 4.77503 -1.2 1 0.00224699 0.00394134 0.000961571 0.00852428 0.00161392 0.00670042 0.0012782 0.0210374 0.0021289 0.0102479 0.0024038 0.025805 0.00322042 0.0193943 0.002709 0.0303685 0.00296177 0.0238092 0.00315028 0.0385971
104 3 O 1.56156 83.4039 3.27262 -1.2 1 0.00228033 0.00557671 0.0016438 0.00802229 0.00154317 0.00654819 0.00155463 0.0216437 0.00215554 0.0104467 0.00190663 0.0251883 0.00297283 0.020613 0.00318312 0.0307565 0.00338235 0.0247665 0.00313948 0.0403043
105 1 Mg 0.210714 85.0689 0.190954 1.2 1 0.00236039 0.00596612 0.00148869 0.00772865 0.00158077 0.00722021 0.0016993 0.0214043 0.00173113 0.010118 0.00253026 0.0257492 0.0030338 0.0207335 0.00282066 0.0306231 0.00299686 0.024024 0.00484573 0.0405192
106 3 O 1.43462 83.5412 5.70948 -1.2 1 0.00363852 0.00532102 0.00164418 0.00824523 0.00129233 0.00644312 0.00231903 0.0206027 0.00191441 0.0106107 0.00171301 0.0247862 0.00247532 0.0204854 0.00292795 0.0304737 0.0028706 0.0247187 0.00281723 0.0382424
107 1 Mg -0.0478592 88.0426 1.76348 1.2 1 0.00460813 0.00632353 0.001465 0.00796638 0.00110121 0.00670932 0.00187415 0.0211634 0.00156488 0.0118706 0.00202138 0.025447 0.00253804 0.0218729 0.00255979 0.0311825 0.00313897 0.0250819 0.00361794 0.0415982
108 2 Si -1.86695 86.0816 1.51979 2.4 1 0.00374206 0.00613885 0.00119661 0.00904308 0.00171433 0.00696866 0.00204823 0.0209622 0.00177241 0.0101772 0.00316826 0.0245593 0.00282214 0.0214206 0.00325801 0.0301576 0.00278541 0.0243664 0.00500213 0.0416864
109 3 O 1.35894 85.9606 1.59923 -1.2 1 0.00373969 0.00592633 0.00150011 0.00838114 0.00174026 0.00668062 0.0019164 0.020874 0.00236585 0.01033 0.00261213 0.0252066 0.00423081 0.0205649 0.00377778 0.0301922 0.00476008 0.0240938 0.00530549 0.0416021
110 3 O -1.05402 89.9313 1.89109 -1.2 1 0.00347991 0.00591924 0.00117706 0.00799212 0.00135266 0.00738642 0.00124581 0.0213099 0.00135937 0.0124818 0.00241142 0.0255381 0.00222276 0.0217138 0.00369374 0.0308856 0.00295247 0.0253153 0.00354038 0.040957
111 3 O -1.16804 86.6706 0.248116 -1.2 1 0.00325696 0.00685936 0.00139855 0.00815745 0.00167512 0.0067194 0.00199853 0.0217308 0.00183254 0.0109773 0.00277664 0.0250336 0.00285437 0.0220046 0.00303932 0.0310797 0.00303253 0.0247143 0.00470977 0.0420971
112 3 O -1.18158 86.681 2.87113 -1.2 1 0.00418002 0.0063498 0.00154909 0.00834969 0.00173674 0.00681668 0.00297911 0.0207602 0.00223171 0.0106629 0.00241721 0.0249938 0.00251772 0.0211812 0.00297133 0.0308004 0.00285795 0.0250138 0.0039967 0.0409213
113 1 Mg -2.26811 90.3503 0.186202 1.2 1 0.00336661 0.00539311 0.00111532 0.00824735 0.0016356 0.00681695 0.000982395 0.02068 0.00141276 0.0122374 0.00183409 0.0254014 0.00254892 0.0220773 0.00194977 0.03064 0.00347177 0.0241928 0.0033055 0.0399208
114 1 Mg 2.39031 93.4877 1.86371 1.2 1 0.00111263 0.00546856 0.00227458 0.0080656 0.00133711 0.00649118 0.0011679 0.0215234 0.00199997 0.0129563 0.002289 0.0260121 0.00242738 0.0227263 0.00339403 0.0324531 0.00368794 0.0257808 0.00449175 0.0405
115 2 Si -0.21051 91.4016 1.76412 2.4 1 0.00274366 0.00527089 0.000997245 0.00846018 0.00124712 0.00701055 0.00181836 0.0211515 0.00153197 0.012315 0.00235951 0.0247444 0.00199413 0.022423 0.0030656 0.0311225 0.0031762 0.0249787 0.00317444 0.0408946
116 3 O 1.30275 91.4841 1.88966 -1.2 1 0.00262939 0.00516406 0.00100883 0.00831766 0.00106874 0.00660562 0.00139788 0.0202852 0.00245289 0.0121362 0.0025767 0.025469 0.00247009 0.0221733 0.00372669 0.0319973 0.0036572 0.0249525 0.00387403 0.0406814
117 3 O -1.49665 95.4355 1.82936 -1.2 1 0.000966665 0.00524045 0.0025949 0.00815314 0.00191099 0.00628285 0.002049 0.0225142 0.00211538 0.0125694 0.00277047 0.0263757 0.00333655 0.0218831 0.004364 0.0318094 0.00413199 0.0258751 0.00494493 0.0412818
118 3 O -0.870229 91.9005 0.402032 -1.2 1 0.00253999 0.00515191 0.00166259 0.00826622 0.00144133 0.00673892 0.00205358 0.0208564 0.00159627 0.0124963 0.00217845 0.0249038 0.00244696 0.0224726 0.00263131 0.0315119 0.00332328 0.0248284 0.00324916 0.0403828
119 1 Mg -2.41808 101.274 3.38227 1.2 1 0.00427774 0.00773671 0.00164059 0.00702823 0.00198127 0.00546879 0.0017172 0.0235593 0.00135956 0.0109611 0.00173817 0.0284935 0.00271323 0.0212425 0.00356118 0.0322199 0.00295254 0.0252869 0.00402627 0.0447131