ITEM: TIMESTEP
16900
ITEM: NUMBER OF ATOMS
5600
ITEM: BOX BOUNDS xy xz yz pp pp pp
0	7.1235	0
0	201.985	2.3745
0	119.584	0
ITEM: ATOMS id type element xu yu zu q Q_1 Q_2 Q_3 Q_4 Q_5 Q_6 Q_7 Q_8 Q_9 Q_10 Q_11 Q_12 Q_13 Q_14 Q_15 Q_16 Q_17 Q_18 Q_19 Q_20 Q_21
1 1 Mg -1.71738 49.7138 -0.8135 1.2 1 0.234133 0.0821257 0.0205799 0.0276465 0.00583981 0.0157878 0.00460202 0.0191423 0.00656526 0.0255984 0.00610559 0.0290103 0.0104757 0.0252016 0.00705642 0.0247181 0.0105688 0.0195363 0.0113602 0.0303721
2 1 Mg 2.90169 50.8619 2.51645 1.2 1 0.197432 0.0717426 0.0116369 0.0216998 0.00303187 0.0118979 0.00282232 0.015851 0.00487637 0.0219762 0.0042937 0.0226106 0.00626696 0.022709 0.00538242 0.0241242 0.00910245 0.0178482 0.00878376 0.0281474
3 2 Si 0.776494 51.1695 0.416907 2.4 1 0.196037 0.073088 0.0139559 0.0226188 0.00414264 0.0121962 0.00278466 0.0167866 0.00537244 0.0221446 0.0049642 0.0261167 0.00790424 0.0233811 0.00501676 0.0247203 0.00908096 0.0176066 0.00963311 0.0306188
4 3 O 2.07653 50.2419 0.723178 -1.2 1 0.217531 0.0771913 0.0178936 0.02533 0.00505427 0.0134254 0.00347907 0.0170055 0.00646895 0.0237067 0.00532669 0.0250731 0.0083859 0.0243919 0.00701681 0.0244607 0.0103863 0.0191086 0.0105791 0.0291301
5 3 O -1.30569 53.7413 1.769 -1.2 1 0.134707 0.0523987 0.00443968 0.0140244 0.00256946 0.00923921 0.00227476 0.0160109 0.00395582 0.017498 0.00382465 0.0247118 0.00536132 0.0197297 0.00381779 0.0253591 0.00610824 0.0175314 0.00768489 0.0335687
6 3 O 0.0710337 50.4277 -0.788185 -1.2 1 0.206943 0.0782998 0.0145459 0.0245898 0.00428379 0.0137247 0.00404162 0.017984 0.0057443 0.0236142 0.00565048 0.0289371 0.00862753 0.0245461 0.00573161 0.0258633 0.00924799 0.018005 0.0105055 0.031827
7 1 Mg -2.40339 59.8802 3.1538 1.2 1 0.016368 0.0112165 0.00508785 0.00444321 0.0012122 0.00555645 0.00139907 0.0205629 0.00263841 0.00977997 0.00226054 0.0273145 0.00238669 0.0202184 0.00357075 0.0308187 0.00455276 0.0213897 0.00541858 0.0466389
8 3 O -0.129774 51.0657 1.73102 -1.2 1 0.191218 0.0703713 0.0118029 0.0212617 0.00290249 0.011636 0.00283784 0.0165863 0.00588079 0.0223485 0.00433623 0.0238407 0.00664431 0.0232887 0.00592313 0.0241955 0.00929763 0.0183334 0.00803961 0.0293056
9 1 Mg -2.38477 56.8083 4.45961 1.2 1 0.0715795 0.0326847 0.00429644 0.00738931 0.00164992 0.00639199 0.00211603 0.0172073 0.00199368 0.0133721 0.00201304 0.0238725 0.00277766 0.0196197 0.00463834 0.0268918 0.00411599 0.0193297 0.00644245 0.0377584
10 2 Si 0.304799 58.6779 4.62973 2.4 1 0.0273647 0.0171149 0.00715633 0.00513651 0.00152925 0.00583217 0.00300131 0.0189463 0.00231309 0.00949473 0.00318643 0.0249876 0.00318393 0.0199056 0.00576398 0.0294615 0.00435586 0.0212513 0.00632388 0.0442945
11 3 O -1.22359 58.8524 4.54136 -1.2 1 0.0254006 0.0158238 0.00686824 0.00437633 0.00150856 0.00557751 0.00207865 0.0197348 0.00283392 0.00975473 0.00234525 0.0263948 0.00290492 0.0193175 0.0046162 0.03005 0.00482885 0.0207656 0.00591882 0.0445429
12 3 O 1.59208 54.4046 4.74517 -1.2 1 0.123652 0.0472122 0.0035842 0.0121473 0.00197867 0.0087899 0.00349311 0.0157892 0.0022986 0.0173558 0.00328026 0.0226145 0.00367165 0.0208193 0.00395886 0.0239783 0.00387251 0.0174565 0.00671807 0.0327086
13 3 O 1.00756 57.9565 3.37161 -1.2 1 0.0401532 0.022963 0.00651582 0.00525148 0.00181287 0.00521017 0.00201384 0.019096 0.00271037 0.0110175 0.00240842 0.025595 0.0027425 0.0198714 0.00441981 0.0296688 0.00472924 0.0211177 0.00615014 0.0426126
14 3 O 0.965089 58.0666 5.90471 -1.2 1 0.0348955 0.0198637 0.00743776 0.00492335 0.00144123 0.00628799 0.00204466 0.0187717 0.00228973 0.00994973 0.0024467 0.0248404 0.00237577 0.0192335 0.00478768 0.0292034 0.00419357 0.0210182 0.00701764 0.0432232
15 1 Mg 0.234782 53.4884 2.92991 1.2 1 0.135517 0.054514 0.00253437 0.0140649 0.00201653 0.00984839 0.00280293 0.015585 0.0038071 0.0184476 0.00384709 0.0238278 0.00450495 0.0202607 0.00403419 0.0244533 0.00500511 0.0171449 0.00686887 0.0322408
16 1 Mg 0.672166 49.8625 3.15177 1.2 1 0.222915 0.0747529 0.0179525 0.0244943 0.00467727 0.0135666 0.0032838 0.016539 0.00493479 0.0237768 0.00415713 0.0223302 0.0071968 0.0243705 0.00618884 0.0237526 0.00963287 0.0191718 0.00877529 0.0273915
17 2 Si 2.36359 52.9953 4.70184 2.4 1 0.158076 0.0574595 0.00654368 0.0158772 0.00257755 0.010457 0.00386637 0.0146716 0.00306484 0.0188723 0.00390311 0.0217784 0.00407304 0.0209888 0.00441248 0.0234473 0.00360958 0.017002 0.00756346 0.0298275
18 3 O -0.900932 53.1823 4.71163 -1.2 1 0.147305 0.0550687 0.00496314 0.0144941 0.00252602 0.00932015 0.00297255 0.0146456 0.00325812 0.0185148 0.00336344 0.0227382 0.00440477 0.022345 0.00356075 0.023587 0.00509494 0.0170812 0.00681075 0.0306664
19 3 O 2.40339 49.1212 3.48683 -1.2 1 0.23683 0.0791003 0.0201686 0.027033 0.00485619 0.015453 0.00414242 0.0160287 0.00511267 0.0247052 0.00543723 0.0224822 0.00859272 0.0240501 0.0079427 0.0232268 0.00989377 0.0189415 0.00897946 0.0262455
20 3 O 1.811 52.1934 3.41651 -1.2 1 0.16936 0.0615185 0.00816966 0.0169198 0.00296525 0.0105857 0.00342255 0.0151768 0.00341651 0.0201545 0.00392684 0.0229526 0.00492336 0.0224664 0.00498711 0.0236569 0.00520748 0.0168525 0.00736922 0.0300963
21 1 Mg -0.0183185 54.4543 0.217509 1.2 1 0.119594 0.0508769 0.00261919 0.013342 0.00213878 0.00871149 0.00248025 0.0172056 0.00368933 0.0179988 0.00406858 0.0273532 0.00530757 0.0196636 0.00457093 0.0260108 0.00608371 0.018564 0.00765557 0.0360332
22 3 O 1.79568 51.8748 5.89272 -1.2 1 0.179029 0.0636133 0.00951379 0.0183012 0.00300134 0.0109364 0.00295634 0.0156317 0.00382662 0.021491 0.00491673 0.0224916 0.0046231 0.0227168 0.00468953 0.0235106 0.00449297 0.0167717 0.00759886 0.0283546
23 1 Mg -0.0943754 57.1971 1.71916 1.2 1 0.0535474 0.0290671 0.00602767 0.00638107 0.00207879 0.00576798 0.00177939 0.0180379 0.00451154 0.0122963 0.00409977 0.0264989 0.00293085 0.0195745 0.00470492 0.0287469 0.00583921 0.0199123 0.00667419 0.0412577
24 2 Si -2.08776 55.2064 1.81167 2.4 1 0.10395 0.0452239 0.00121883 0.0113006 0.0020158 0.00756953 0.00177519 0.0162655 0.0046323 0.0155062 0.00391453 0.025054 0.00402448 0.0197247 0.00479955 0.0261811 0.00622767 0.0176752 0.00693664 0.0364806
25 3 O 1.12703 55.0765 1.81729 -1.2 1 0.108059 0.0449385 0.00164355 0.0111763 0.00177597 0.00806318 0.00196877 0.0161657 0.00394578 0.0154168 0.00387271 0.0247517 0.0047308 0.0190883 0.0045424 0.0259058 0.00541744 0.0179921 0.00701275 0.0354749
26 3 O -1.08347 59.0874 1.75493 -1.2 1 0.0224946 0.0152992 0.006929 0.00466132 0.00138022 0.00540876 0.00110936 0.0208298 0.00362423 0.00951163 0.00328897 0.0275691 0.00301853 0.0199238 0.00488587 0.0310704 0.00611419 0.0223948 0.00678393 0.0469905
27 3 O -1.50185 55.9188 0.437638 -1.2 1 0.0854677 0.0404227 0.00318054 0.00948883 0.00270941 0.00651965 0.00197566 0.0176305 0.00457253 0.0138754 0.00412264 0.0264193 0.00428796 0.0191091 0.00465843 0.0279302 0.00651915 0.0194199 0.00696132 0.0392339
28 3 O -1.45265 56.0093 2.99606 -1.2 1 0.0841974 0.036705 0.00228532 0.0080494 0.00173797 0.00698931 0.00190107 0.0172699 0.00357686 0.0144195 0.00319894 0.0246529 0.00283121 0.0194718 0.00371403 0.0268871 0.0054241 0.0190249 0.00620371 0.0377959
29 1 Mg -2.54628 59.3814 0.26063 1.2 1 0.020274 0.0147567 0.00647171 0.00480201 0.0011321 0.00555742 0.00158357 0.0215217 0.00273475 0.0102424 0.00321854 0.028858 0.00283532 0.0200683 0.00402269 0.0310978 0.0052261 0.0231378 0.00515633 0.0475373
30 1 Mg 2.18408 62.4526 1.61905 1.2 1 0.00540864 0.00474005 0.0014816 0.00546667 0.00108046 0.00563846 0.00112119 0.0226714 0.00273472 0.00778592 0.00294642 0.0283587 0.00184145 0.0204059 0.00338381 0.0336332 0.00357645 0.0238353 0.00355104 0.051985
31 2 Si -0.403088 60.6524 1.63097 2.4 1 0.0114851 0.00786221 0.00358101 0.00569516 0.00124369 0.00619197 0.000840873 0.0214906 0.0024517 0.00825076 0.00299361 0.0270237 0.0027657 0.0205936 0.00403366 0.0320618 0.00507399 0.0230171 0.00497538 0.0504247
32 3 O 1.07802 60.5403 1.68897 -1.2 1 0.0112028 0.00772841 0.00356558 0.00522996 0.00118453 0.00585684 0.00124995 0.0214959 0.00300396 0.00791335 0.00266532 0.027246 0.00224412 0.0198139 0.00464913 0.0327228 0.00450448 0.0234451 0.00578315 0.0501518
33 3 O -1.4183 64.2773 1.51135 -1.2 1 0.00505593 0.00433855 0.0014123 0.00578103 0.000999174 0.00610712 0.000620765 0.0239579 0.00150313 0.00743343 0.00201192 0.0285962 0.00248846 0.0199604 0.00346316 0.0330699 0.00370508 0.0241017 0.00407922 0.0523927
34 3 O -1.09977 61.2401 0.374578 -1.2 1 0.00867879 0.0069084 0.0031554 0.00492564 0.000928241 0.00604159 0.000999794 0.0228985 0.00256416 0.00777622 0.00260123 0.0282309 0.00243632 0.0205326 0.00347769 0.0330349 0.00462231 0.0243924 0.00453629 0.0510028
35 1 Mg -2.44868 70.0081 3.20826 1.2 1 0.00381682 0.00266386 0.00117812 0.00603068 0.000902389 0.00621356 0.000810102 0.0241008 0.00102073 0.00775963 0.00108178 0.0297071 0.00186138 0.0201799 0.00161671 0.0331563 0.0014141 0.0239359 0.00258693 0.052687
36 3 O -1.08757 61.3551 2.85278 -1.2 1 0.00791717 0.00567752 0.00227851 0.00482436 0.000999552 0.00594129 0.000764547 0.0217189 0.00197655 0.00780714 0.00220218 0.0270657 0.00243749 0.0203496 0.00330852 0.0327618 0.00347507 0.0227689 0.00469947 0.0503832
37 1 Mg -2.37951 67.0958 4.65748 1.2 1 0.00370249 0.00298404 0.00155958 0.0058979 0.000822704 0.00571109 0.000890452 0.0238317 0.00210123 0.00792207 0.00222629 0.0286494 0.002151 0.021009 0.00316536 0.0338545 0.00304017 0.0236407 0.00278489 0.0535474
38 2 Si 0.281876 68.9105 4.74194 2.4 1 0.00408555 0.00264868 0.00113568 0.00621418 0.00112086 0.00602636 0.00114845 0.0235198 0.00153938 0.00752355 0.00242938 0.0281911 0.00271504 0.0207229 0.00304406 0.0332226 0.00245563 0.0228599 0.00313848 0.0540962
39 3 O -1.3155 68.9612 4.70233 -1.2 1 0.00388468 0.00274303 0.00106464 0.00588829 0.00127867 0.00580102 0.00113777 0.0230902 0.002241 0.00730037 0.00158159 0.0287081 0.00224479 0.020076 0.00199033 0.0336553 0.00272771 0.022882 0.00290956 0.0535021
40 3 O 1.40236 65.3154 4.69219 -1.2 1 0.00354274 0.00357105 0.00145294 0.00563894 0.00103314 0.00599041 0.000974818 0.0236167 0.00140074 0.00727553 0.00197867 0.0286156 0.00240457 0.0199721 0.00270482 0.033354 0.00239027 0.0230899 0.0029433 0.0527949
41 3 O 0.940101 68.3062 3.39982 -1.2 1 0.00386852 0.00305461 0.00151602 0.00593733 0.00135973 0.00566791 0.00132172 0.0236845 0.0015279 0.00734298 0.00174055 0.0282445 0.00212036 0.0206326 0.00258724 0.0338123 0.00191583 0.0239048 0.0018919 0.0535523
42 3 O 0.96423 68.1612 6.00051 -1.2 1 0.0036729 0.00241867 0.00103799 0.00558283 0.000932334 0.00599504 0.00105677 0.0240827 0.00166677 0.00748306 0.00159634 0.0280179 0.00222775 0.0206123 0.00245542 0.0337477 0.00218329 0.0233907 0.00256888 0.0539069
43 1 Mg 0.0690108 64.7476 3.05951 1.2 1 0.00462984 0.00412669 0.00152024 0.00550491 0.000870397 0.00586565 0.000734551 0.0233109 0.00132105 0.00756937 0.00145553 0.0288301 0.00172109 0.0198116 0.0023651 0.0332468 0.00236468 0.0231969 0.00284373 0.0520897
44 1 Mg -0.12165 61.9708 4.52682 1.2 1 0.00598509 0.00434556 0.00156263 0.00459625 0.00129551 0.00573283 0.00131197 0.0218702 0.00179684 0.00808256 0.00216929 0.0273908 0.00241309 0.0202023 0.00350118 0.0332336 0.00356353 0.0225742 0.00450153 0.0505812
45 2 Si 2.04819 63.7235 4.5289 2.4 1 0.00397185 0.00388532 0.00135506 0.00559588 0.00153517 0.0061736 0.00142199 0.0227702 0.00138318 0.00717317 0.00223048 0.0272036 0.00182801 0.020353 0.00327784 0.0333072 0.00246017 0.0229312 0.00290167 0.0531227
46 3 O -1.19682 63.8615 4.46977 -1.2 1 0.00407755 0.00410582 0.00146404 0.00548243 0.00114438 0.0057063 0.000966103 0.0225081 0.00248727 0.00714632 0.00192004 0.0278512 0.0018994 0.0198327 0.00223692 0.0336442 0.00267035 0.0227113 0.0026043 0.0524784
47 3 O 0.964562 60.1993 4.54714 -1.2 1 0.0134387 0.00927439 0.00419387 0.00428686 0.00122991 0.00574239 0.00184988 0.0206842 0.00191012 0.00872243 0.00230307 0.0266558 0.00204606 0.0199832 0.00337456 0.0314471 0.00338023 0.0215711 0.0040205 0.0473964
48 3 O 1.30154 63.1705 3.24813 -1.2 1 0.00492599 0.00420933 0.00131327 0.00522902 0.00134332 0.00551581 0.00163368 0.0224374 0.00130863 0.00721005 0.00219332 0.027386 0.00192583 0.0201715 0.00350688 0.0337206 0.00249399 0.0231681 0.00342647 0.0520641
49 1 Mg -0.0258681 64.7737 0.122826 1.2 1 0.00353346 0.00441308 0.000866966 0.00568977 0.00105564 0.00560174 0.000806413 0.0237502 0.00111692 0.00751568 0.00137979 0.0292995 0.00171965 0.0200119 0.00213456 0.0332867 0.00251698 0.0244547 0.00235624 0.0522152
50 3 O 1.22815 63.0697 5.69701 -1.2 1 0.00384394 0.00372041 0.00101168 0.00504375 0.00132503 0.00561463 0.00128528 0.0217235 0.00110328 0.00745984 0.00148226 0.0273879 0.00152068 0.0202683 0.00283576 0.0336776 0.00262575 0.0219266 0.00368597 0.0520415
51 1 Mg -0.0951814 67.7324 1.67821 1.2 1 0.00389987 0.00337746 0.00135191 0.00627165 0.00127102 0.00568512 0.00143808 0.0241269 0.00180653 0.0075139 0.0023146 0.029088 0.00234321 0.020724 0.00342533 0.0336787 0.00283518 0.0244341 0.00275742 0.0533536
52 2 Si -2.01672 65.7921 1.59295 2.4 1 0.00384386 0.00434273 0.00116132 0.00624241 0.00106045 0.00582323 0.00148863 0.0227816 0.00184667 0.00738407 0.00221429 0.0279253 0.00266213 0.0209903 0.00413274 0.0331075 0.00346835 0.0235333 0.00324543 0.0532341
53 3 O 1.11614 65.7962 1.57939 -1.2 1 0.00399628 0.00414802 0.00105695 0.00602835 0.0010274 0.00557571 0.0013002 0.0232739 0.00201751 0.00723931 0.0015637 0.0287198 0.00223699 0.0201714 0.00276418 0.0335112 0.0037338 0.0238895 0.00297819 0.0534426
54 3 O -1.11813 69.5275 1.67165 -1.2 1 0.0035961 0.00321814 0.00157398 0.00645056 0.000921201 0.00630964 0.000903804 0.0243698 0.00121656 0.00746474 0.00182642 0.0296994 0.00215984 0.020301 0.00359137 0.0330029 0.00331855 0.0241047 0.00301724 0.0532222
55 3 O -1.3035 66.4122 0.33146 -1.2 1 0.00334936 0.00414282 0.000822136 0.00593993 0.00114839 0.00578354 0.00201663 0.0241657 0.0021007 0.00765214 0.0021592 0.0277474 0.00250629 0.0206761 0.00362417 0.0334424 0.00315719 0.0249532 0.00268266 0.0533154
56 3 O -1.36638 66.4672 2.84105 -1.2 1 0.00418866 0.00372266 0.00121053 0.00558485 0.0010943 0.00578944 0.00146468 0.0238087 0.00168042 0.00744023 0.00159968 0.0280619 0.00202926 0.0208745 0.00306135 0.0339511 0.00287883 0.0242766 0.00301298 0.0533644
57 1 Mg -2.50143 69.893 0.178945 1.2 1 0.00323959 0.00336598 0.0010382 0.00631585 0.000735736 0.00619887 0.000600554 0.0244076 0.00104117 0.00798646 0.000966537 0.0302464 0.00141138 0.0202672 0.00175002 0.0331485 0.00187624 0.0245694 0.00183152 0.0526942
58 1 Mg 2.2731 72.6791 1.51419 1.2 1 0.00337231 0.0028199 0.00161668 0.00617209 0.000715836 0.00515822 0.00125175 0.0242088 0.00212826 0.0083012 0.00208451 0.0296746 0.00245618 0.0206712 0.00311599 0.0342909 0.00263804 0.0251158 0.00300445 0.0538808
59 2 Si -0.394444 70.9077 1.67684 2.4 1 0.00371187 0.00301258 0.00151764 0.00699113 0.000992854 0.00618071 0.00161571 0.0240422 0.00145143 0.0079139 0.0024665 0.0285643 0.00244174 0.0209261 0.00449636 0.0331625 0.00355045 0.023958 0.00292869 0.0548251
60 3 O 1.16168 70.882 1.68719 -1.2 1 0.00347186 0.00312963 0.00149569 0.00630038 0.000834487 0.00570028 0.000953776 0.0238313 0.0023507 0.00737303 0.00143544 0.0292113 0.00166031 0.0202346 0.00193119 0.0336344 0.0024343 0.0240916 0.00276466 0.0535234
61 3 O -1.39416 74.6144 1.63286 -1.2 1 0.00211167 0.00294341 0.00113702 0.00639158 0.000594713 0.00587137 0.00089618 0.0252379 0.000924278 0.00810749 0.00228838 0.0303501 0.00177301 0.0205285 0.00363391 0.0333768 0.00270344 0.0251014 0.00284952 0.0543436
62 3 O -1.12507 71.6101 0.453689 -1.2 1 0.00331215 0.00289718 0.00124017 0.00630373 0.000625756 0.00552159 0.00106016 0.024165 0.00124446 0.00789226 0.00137591 0.0289465 0.00236965 0.020707 0.00253291 0.0337771 0.00206383 0.0244047 0.00237386 0.0540317
63 1 Mg -2.34488 80.2797 3.10113 1.2 1 0.00184692 0.00426719 0.00121222 0.00598716 0.00111407 0.00519532 0.00108313 0.0249122 0.00125385 0.0085999 0.00174763 0.030761 0.00145032 0.0204499 0.00163987 0.0354058 0.00190248 0.0257273 0.00282717 0.053779
64 3 O -1.01167 71.5257 3.03194 -1.2 1 0.00342927 0.00244703 0.00103478 0.00619718 0.000988885 0.00568299 0.00175063 0.0245604 0.00125485 0.00806625 0.00202292 0.0286309 0.00223446 0.0207455 0.00343468 0.0337253 0.00285001 0.0243822 0.0036386 0.0543124
65 1 Mg -2.39131 77.4487 4.6393 1.2 1 0.00117127 0.00337563 0.00157813 0.00603241 0.000984722 0.00475237 0.00116703 0.0247364 0.00263088 0.00838105 0.00253591 0.0302841 0.00260242 0.0212058 0.00236689 0.0353992 0.00296009 0.0257155 0.00340524 0.0548165
66 2 Si 0.362569 79.2727 4.57722 2.4 1 0.00203976 0.00398928 0.00133601 0.00648381 0.001583 0.00534858 0.0020809 0.0248345 0.00153359 0.00822761 0.00294808 0.0295446 0.00209941 0.021363 0.00395472 0.0350065 0.00237282 0.0256661 0.0032022 0.0553567
67 3 O -1.18387 79.318 4.64625 -1.2 1 0.00238793 0.00369797 0.00125772 0.0063573 0.00154131 0.00529487 0.00166404 0.0245169 0.00221816 0.00798524 0.00192235 0.0300487 0.00241473 0.0204855 0.00185036 0.0352625 0.00281398 0.025521 0.00342678 0.0548325
68 3 O 1.37156 75.564 4.62421 -1.2 1 0.00196007 0.00297257 0.00099967 0.00624373 0.000624179 0.00565965 0.000913263 0.0249726 0.00149168 0.00799548 0.00203197 0.0302441 0.00249607 0.0201534 0.00341323 0.0339507 0.00269664 0.0249087 0.0031459 0.0542256
69 3 O 1.1006 78.5861 3.37754 -1.2 1 0.00169162 0.00350941 0.00111295 0.00576006 0.00151691 0.0051849 0.00189866 0.0255429 0.00183437 0.00866006 0.00245909 0.0290337 0.00257899 0.0213545 0.00347675 0.0355188 0.00264806 0.0264378 0.00324869 0.0550215
70 3 O 1.03503 78.5889 5.8622 -1.2 1 0.00235465 0.00333635 0.00157127 0.00600023 0.00148378 0.00529962 0.00182569 0.0250205 0.00170607 0.00864286 0.00191594 0.029303 0.0022433 0.0212569 0.00238304 0.0349533 0.00184305 0.0257129 0.0032934 0.054834
71 1 Mg 0.0678898 75.0609 3.07989 1.2 1 0.00193049 0.00278344 0.000884239 0.00601309 0.000679611 0.0056586 0.000720409 0.024844 0.001154 0.0081249 0.00122692 0.0303709 0.00141222 0.0202746 0.00131927 0.0336639 0.00135982 0.025124 0.00171473 0.053746
72 1 Mg -0.111064 72.1958 4.69964 1.2 1 0.00300639 0.00237158 0.0010811 0.00616206 0.000775434 0.00545365 0.00150597 0.0242837 0.00201623 0.00813998 0.00197846 0.0294901 0.00179571 0.0206629 0.00293243 0.0340785 0.00276823 0.0240438 0.00353651 0.0535989
73 2 Si 2.01958 74.0775 4.56666 2.4 1 0.00247549 0.00231907 0.00097398 0.00687418 0.000870444 0.00589276 0.00118577 0.024381 0.00157578 0.00805627 0.0021735 0.0284981 0.00209897 0.0207615 0.00308869 0.0336158 0.00243569 0.0241182 0.00266425 0.0551146
74 3 O -1.19745 74.0965 4.55603 -1.2 1 0.00251874 0.00265667 0.00082742 0.00631137 0.000963199 0.00533031 0.00101439 0.0237743 0.00218791 0.0075734 0.0014175 0.0296987 0.00193937 0.0202035 0.00187535 0.0341477 0.00232816 0.0239565 0.0025216 0.0541686
75 3 O 0.900554 70.3254 4.80726 -1.2 1 0.00418055 0.00218801 0.00120078 0.00611553 0.000847542 0.00619526 0.00120673 0.0244217 0.00160738 0.00764867 0.00136661 0.0291546 0.00239808 0.0204378 0.00240561 0.0330914 0.00193522 0.023393 0.00312852 0.0536444
76 3 O 1.29916 73.4537 3.28538 -1.2 1 0.0026995 0.00267859 0.00120584 0.00601002 0.000952151 0.00535232 0.00136554 0.0246421 0.00159953 0.00784777 0.00186943 0.0289757 0.00212654 0.0205636 0.00240784 0.0343518 0.00190595 0.024834 0.00243008 0.0541998
77 1 Mg -0.04474 74.9926 0.177205 1.2 1 0.00175999 0.00271938 0.000899283 0.00615762 0.000636515 0.00533223 0.000801603 0.0249214 0.000856381 0.008127 0.00141214 0.0306769 0.0010963 0.0202973 0.00168641 0.0337677 0.00135458 0.0254921 0.00166129 0.0537798
78 3 O 1.24952 73.4492 5.87933 -1.2 1 0.00235136 0.00207605 0.000688294 0.00591512 0.000890966 0.0055853 0.00155278 0.0246465 0.00180014 0.00807126 0.00156961 0.0287145 0.00206505 0.0206328 0.00284757 0.0340753 0.00210305 0.0240587 0.00244219 0.0544285
79 1 Mg 0.085086 77.9121 1.67061 1.2 1 0.00151154 0.00330559 0.00125409 0.00595682 0.00104337 0.0049084 0.00151032 0.0249102 0.00212869 0.00882032 0.00269617 0.0303102 0.00277264 0.0211606 0.00284234 0.0353947 0.00282845 0.0261377 0.00287474 0.0548847
80 2 Si -2.03739 76.1599 1.65278 2.4 1 0.00104163 0.00287734 0.000772864 0.00672671 0.00100252 0.00545714 0.00166643 0.0246509 0.00102458 0.00807787 0.00225342 0.0292743 0.00144129 0.0209168 0.00311563 0.0343182 0.00294326 0.0253076 0.00292539 0.0556802
81 3 O 1.13011 76.1555 1.63137 -1.2 1 0.00116258 0.00290573 0.00145849 0.00650714 0.000851308 0.00504431 0.00146695 0.0241788 0.00229009 0.00787393 0.00171391 0.029832 0.00247497 0.0204135 0.00200441 0.0346467 0.0032244 0.0250105 0.00325095 0.0550943
82 3 O -1.03274 79.765 1.59336 -1.2 1 0.00152787 0.00392508 0.00152481 0.00635523 0.00103266 0.00560673 0.00116277 0.0252677 0.00118571 0.00850424 0.00243897 0.0305134 0.00235249 0.0205686 0.00296452 0.0348043 0.0030627 0.0258092 0.00394932 0.0544354
83 3 O -1.38899 76.783 0.363254 -1.2 1 0.000986411 0.00323942 0.00111228 0.00609092 0.00111886 0.00512588 0.00171812 0.0252455 0.00150217 0.00845511 0.00244072 0.0296259 0.00222394 0.0213681 0.00297946 0.0350384 0.00251625 0.0258885 0.00306595 0.0550898
84 3 O -1.36959 76.803 2.90509 -1.2 1 0.000734313 0.00315517 0.000957091 0.00593035 0.00112682 0.00507459 0.00158841 0.0250141 0.00125663 0.0081194 0.00193173 0.0291752 0.00201642 0.0209563 0.00209891 0.0348777 0.00213968 0.0260551 0.00228025 0.0549581
85 1 Mg -2.3471 80.363 0.0641344 1.2 1 0.0015109 0.00420024 0.00134439 0.00606075 0.00115501 0.00582871 0.000929128 0.0246206 0.00111273 0.00878788 0.00181645 0.0310594 0.00164704 0.0207201 0.00186373 0.0351946 0.00221868 0.0256047 0.00295818 0.0533149
86 1 Mg 2.29917 83.0685 1.78357 1.2 1 0.00219256 0.0059172 0.000954596 0.00666273 0.000856663 0.00509836 0.00137102 0.0246638 0.0024069 0.00945137 0.00271706 0.0303552 0.0024165 0.0214558 0.00272788 0.0357688 0.00254675 0.0260504 0.00238823 0.0535018
87 2 Si -0.325117 81.2136 1.59453 2.4 1 0.00205029 0.00497483 0.00100973 0.00700426 0.0011589 0.00545762 0.00142795 0.0247145 0.00193623 0.00911097 0.00256072 0.0291155 0.00221171 0.0213324 0.00350803 0.0352387 0.00342451 0.0258421 0.00382995 0.0548169
88 3 O 1.2246 81.1408 1.62784 -1.2 1 0.00162494 0.00451195 0.000916921 0.00652938 0.00124551 0.0051938 0.00118589 0.024602 0.00201452 0.00875189 0.00201786 0.0304307 0.00146983 0.0205311 0.0021873 0.0354312 0.00205631 0.0255399 0.00312299 0.0541492
89 3 O -1.26686 84.94 1.82232 -1.2 1 0.00169696 0.00628515 0.00053162 0.00680999 0.000901081 0.00583 0.00138153 0.0257336 0.00114671 0.00931468 0.00171418 0.0303825 0.0017641 0.0206368 0.00193984 0.035371 0.00226272 0.0260039 0.00267381 0.0532842
90 3 O -1.06002 81.9471 0.365346 -1.2 1 0.00166419 0.00511829 0.00108861 0.00614796 0.000998614 0.00552071 0.00149737 0.0251915 0.00188179 0.00954697 0.0021646 0.0296856 0.00191851 0.0215922 0.00275867 0.0357952 0.00292028 0.0258636 0.0030022 0.0540167
91 1 Mg -2.32905 90.6932 3.34774 1.2 1 0.00326332 0.00300365 0.00234764 0.00691529 0.00111451 0.00580593 0.00128441 0.0252672 0.00124583 0.00911957 0.00206922 0.0305108 0.00198724 0.0203301 0.00156709 0.0341121 0.00213184 0.0252813 0.00329872 0.0524474
92 3 O -0.954672 81.897 2.95122 -1.2 1 0.00181277 0.00510165 0.00120721 0.00628486 0.001169 0.00511647 0.00185459 0.0247829 0.00162706 0.00904349 0.00200357 0.0296327 0.0020405 0.0210211 0.00192645 0.0359743 0.00268718 0.0260139 0.00284179 0.0540528
93 1 Mg -2.29271 87.7784 4.79941 1.2 1 0.00201467 0.0049929 0.00143515 0.00710671 0.000808462 0.00582001 0.00169686 0.0249243 0.00239077 0.00914298 0.00211084 0.0302937 0.00206723 0.0209648 0.00274275 0.0353493 0.00263601 0.0257368 0.0031414 0.0532807
94 2 Si 0.387553 89.7315 4.84808 2.4 1 0.00290175 0.00376623 0.00176649 0.00780913 0.00157574 0.00631588 0.00229907 0.0247269 0.00139511 0.00884681 0.0027032 0.0293717 0.00194711 0.0213369 0.00383717 0.0343755 0.00379238 0.0253039 0.00358152 0.0544302
95 3 O -1.19539 89.8043 4.83021 -1.2 1 0.00345145 0.00324613 0.00216248 0.00740533 0.00130873 0.00592831 0.00160815 0.024388 0.0022031 0.00867338 0.00233846 0.0302719 0.0021662 0.0204169 0.00210504 0.0346439 0.00245463 0.024927 0.00344678 0.0537212
96 3 O 1.40114 85.9729 4.73792 -1.2 1 0.00198394 0.00562376 0.000867573 0.00711591 0.00108449 0.0058486 0.00119497 0.0256782 0.00164117 0.00913599 0.00211086 0.0307195 0.00257425 0.0204001 0.00322585 0.0351771 0.00232105 0.0258611 0.00294499 0.0538064
97 3 O 1.06661 89.01 3.52784 -1.2 1 0.00240582 0.00377538 0.00215389 0.00684726 0.00174014 0.00563375 0.00236254 0.0255006 0.00204047 0.00935218 0.00224531 0.0293293 0.00163471 0.0216603 0.00236013 0.0350273 0.00253971 0.0256182 0.00244975 0.0533825
98 3 O 1.13812 89.0279 6.08902 -1.2 1 0.00259881 0.00394052 0.00134122 0.00681307 0.00168283 0.00622417 0.0022843 0.0251679 0.00159797 0.00914072 0.00236684 0.0293105 0.00186226 0.0209539 0.0032555 0.0353312 0.00318122 0.0259842 0.00302187 0.054354
99 1 Mg 0.0911502 85.5795 3.21788 1.2 1 0.00151543 0.00589845 0.00069156 0.00658138 0.000843126 0.00587092 0.000949041 0.0251936 0.00104924 0.00941366 0.00119623 0.0308661 0.00166136 0.0203684 0.00186046 0.0353299 0.00185757 0.0257155 0.0021062 0.052482
100 1 Mg -0.00159749 82.6984 4.6965 1.2 1 0.00114948 0.00530011 0.000782159 0.00641163 0.00121419 0.00519592 0.00126654 0.0247624 0.00245699 0.00975448 0.00267664 0.0303241 0.00216362 0.0212848 0.00299296 0.0359564 0.00253748 0.0263513 0.00303531 0.05432
101 2 Si 2.12295 84.502 4.65566 2.4 1 0.0019564 0.00553891 0.000594618 0.00725861 0.00170802 0.00588215 0.00171406 0.0248909 0.00149865 0.00910377 0.00243174 0.0295224 0.00275033 0.0209032 0.00393853 0.0354942 0.00292548 0.0258005 0.00246055 0.0551856
102 3 O -1.0641 84.5398 4.65225 -1.2 1 0.00187424 0.00551632 0.000696275 0.00702707 0.00132017 0.00560115 0.00141859 0.0244807 0.00238317 0.00867378 0.00172454 0.0302708 0.00159732 0.0202955 0.00213878 0.035623 0.00216502 0.0256206 0.00290419 0.0540248
103 3 O 1.10703 80.7853 4.59575 -1.2 1 0.00250414 0.00458144 0.00143634 0.00641864 0.00118881 0.00571066 0.00146883 0.025465 0.0015315 0.00866603 0.00232476 0.0305548 0.00208079 0.0207799 0.00325874 0.0348644 0.00239828 0.0259064 0.00349195 0.0540754
104 3 O 1.46651 83.7644 3.41218 -1.2 1 0.00160386 0.00564093 0.000635942 0.00643665 0.00133332 0.005415 0.00140879 0.0250959 0.00175643 0.0091907 0.00137532 0.0296096 0.00237618 0.0211108 0.00270002 0.0359516 0.00221231 0.0259243 0.00262449 0.0540767
105 1 Mg -0.0251916 85.2553 0.303878 1.2 1 0.00171179 0.00607206 0.000519286 0.00663866 0.000794405 0.00570846 0.000902376 0.0251773 0.00130826 0.00950482 0.00119852 0.0304356 0.00154127 0.0210445 0.00163392 0.0350952 0.00163124 0.0253253 0.00223404 0.052437
106 3 O 1.46866 83.8177 5.93258 -1.2 1 0.00201612 0.00543739 0.000432972 0.00657331 0.00154247 0.00550944 0.00148068 0.0249098 0.0014103 0.0091334 0.00167844 0.0298352 0.0024232 0.0208039 0.00306218 0.035479 0.00243602 0.0259871 0.0019499 0.0544353
107 1 Mg 0.104801 88.2655 1.7793 1.2 1 0.001858 0.00457837 0.00125754 0.00681516 0.000773579 0.00546255 0.000982056 0.0252564 0.00198527 0.0101682 0.00202039 0.0300043 0.0026427 0.021507 0.00263604 0.0354216 0.00308094 0.0254379 0.00308192 0.0528327
108 2 Si -2.00564 86.494 1.75687 2.4 1 0.00214637 0.00550618 0.00079505 0.00771392 0.000779019 0.00593459 0.00161627 0.0247487 0.00185902 0.00979834 0.00211851 0.0290691 0.00188361 0.0215116 0.0042344 0.0352818 0.00337867 0.0248593 0.00326302 0.0537543
109 3 O 1.23097 86.3773 1.7749 -1.2 1 0.00201372 0.00563475 0.000908065 0.00702799 0.000608204 0.00559099 0.00118122 0.0247965 0.00225172 0.00918148 0.00163666 0.0298735 0.00248517 0.0206858 0.00242906 0.035747 0.00306205 0.0252463 0.0028727 0.053156
110 3 O -0.98552 90.2154 1.7328 -1.2 1 0.00276625 0.00350537 0.00216466 0.00699665 0.00110121 0.0056975 0.0010384 0.0254716 0.00158851 0.00911886 0.00246731 0.0300075 0.00316664 0.0206763 0.00337809 0.0344815 0.00345294 0.0250229 0.00424884 0.052295
111 3 O -1.42149 87.1367 0.519704 -1.2 1 0.00137852 0.00500737 0.00107737 0.00684312 0.000887801 0.00567422 0.00140131 0.0251005 0.0015025 0.00990569 0.00148041 0.0292035 0.00190738 0.0213904 0.00205332 0.0355715 0.00222868 0.0248687 0.0023764 0.0527899
112 3 O -1.3141 87.2574 3.00776 -1.2 1 0.00178854 0.00493072 0.00120423 0.00676656 0.000642472 0.00562894 0.00140149 0.0250498 0.00141681 0.00927879 0.0016161 0.0293632 0.00212003 0.0215509 0.00224118 0.0356503 0.00242726 0.0253999 0.00237831 0.0533903
113 1 Mg -2.36531 90.6024 0.30036 1.2 1 0.00282202 0.00303448 0.00200251 0.00646202 0.00111081 0.00579309 0.000840474 0.025573 0.00107618 0.00942977 0.00194711 0.0300955 0.00236958 0.0206845 0.00256616 0.0345707 0.00281141 0.024976 0.00391669 0.051281
114 1 Mg 2.47473 93.5061 1.72385 1.2 1 0.00353325 0.00357399 0.00216118 0.0067561 0.00128801 0.00530005 0.00161358 0.0250976 0.00215403 0.00889119 0.00318719 0.0292754 0.00263361 0.0206692 0.00384605 0.0345131 0.00343029 0.0257294 0.00483861 0.0524517
115 2 Si -0.232694 91.7325 1.84322 2.4 1 0.00366732 0.00279488 0.00216283 0.00740769 0.00142729 0.00573265 0.00141783 0.0250913 0.00151367 0.0088479 0.00268804 0.0286494 0.00305732 0.0209889 0.00328102 0.034422 0.00329887 0.0252852 0.00412653 0.0534718
116 3 O 1.29136 91.5636 1.79655 -1.2 1 0.00328621 0.00303732 0.00204477 0.00711982 0.0012987 0.00560004 0.00121722 0.0247425 0.00241627 0.00859717 0.00235954 0.0295696 0.00227667 0.0205051 0.00280041 0.0343473 0.00271373 0.0250758 0.00439762 0.052952
117 3 O -1.30001 95.3803 1.81947 -1.2 1 0.00362915 0.0042538 0.00231264 0.00704428 0.0010619 0.00574728 0.00116953 0.0255818 0.00193107 0.0084814 0.00204833 0.029711 0.00280846 0.019752 0.00295799 0.0343866 0.002817 0.0261436 0.00477526 0.0525897
118 3 O -0.907163 92.5129 0.62759 -1.2 1 0.0035854 0.00317976 0.00222375 0.00646583 0.00109116 0.00539171 0.00122106 0.0249384 0.00161932 0.0091941 0.00203544 0.0289165 0.00317252 0.0211967 0.00323638 0.0350656 0.00318492 0.025308 0.00468194 0.0523132