ITEM: TIMESTEP
74700
ITEM: NUMBER OF ATOMS
5600
ITEM: BOX BOUNDS xy xz yz pp pp pp
0	7.1235	0
0	201.985	2.3745
0	119.584	0
ITEM: ATOMS id type element xu yu zu q Q_1 Q_2 Q_3 Q_4 Q_5 Q_6 Q_7 Q_8 Q_9 Q_10 Q_11 Q_12 Q_13 Q_14 Q_15 Q_16 Q_17 Q_18 Q_19 Q_20 Q_21
1 1 Mg -1.87711 48.2172 -1.26886 1.2 1 0.223514 0.0788877 0.0143769 0.0221413 0.00418286 0.0115293 0.0042281 0.019794 0.00483906 0.0201178 0.00563378 0.023846 0.00795872 0.0221832 0.00758378 0.0205207 0.00732846 0.0217792 0.00983918 0.0262051
2 1 Mg 2.70773 50.0322 1.96949 1.2 1 0.178942 0.0687293 0.00615228 0.0175527 0.00261919 0.00977891 0.00421569 0.0182909 0.00367493 0.017989 0.0058362 0.025593 0.00626155 0.0210261 0.00627513 0.0227811 0.00525639 0.0197426 0.00795809 0.0296135
3 2 Si 0.633873 49.8179 0.150242 2.4 1 0.189055 0.0704845 0.00853667 0.0180398 0.003808 0.00951186 0.00388459 0.020086 0.00441713 0.0196884 0.00469351 0.0249327 0.00755929 0.0223831 0.00578604 0.0211849 0.00689383 0.0199106 0.00767736 0.0275836
4 3 O 2.05244 49.0309 0.37928 -1.2 1 0.205435 0.0748759 0.0108558 0.0203884 0.00396577 0.0110477 0.00491031 0.0200153 0.00502514 0.0204417 0.00658109 0.0257519 0.00785984 0.0230034 0.00720913 0.0227473 0.00717008 0.0210694 0.0085441 0.028476
5 3 O -1.26936 52.3304 1.61052 -1.2 1 0.126993 0.0529519 0.0029695 0.0130198 0.00214274 0.00851029 0.00392323 0.0190926 0.00383685 0.0170016 0.00467498 0.0267973 0.00546908 0.0196757 0.00459904 0.0227815 0.00458409 0.0198742 0.00640031 0.0323481
6 3 O -0.0895526 49.3814 -1.18329 -1.2 1 0.198711 0.0720684 0.0104293 0.0188954 0.00387154 0.00982171 0.00364406 0.0203731 0.00403531 0.0199611 0.00482337 0.0239563 0.00686581 0.0223109 0.00585668 0.020209 0.00658132 0.0206859 0.00832713 0.0267802
7 1 Mg -2.35342 58.0579 3.16626 1.2 1 0.0122438 0.0175078 0.00603047 0.00779208 0.00240855 0.00635554 0.00156001 0.0206974 0.0036678 0.01358 0.00290696 0.0264593 0.00359521 0.0211896 0.00377251 0.027609 0.00557968 0.023777 0.00432241 0.0362411
8 3 O -0.093172 49.6 1.55938 -1.2 1 0.189614 0.0715358 0.00728279 0.0184241 0.00309181 0.0107458 0.00511536 0.0198517 0.00461894 0.0191436 0.00548628 0.0255732 0.00655582 0.0226097 0.00634252 0.0230605 0.00628554 0.0200652 0.00826766 0.0295968
9 1 Mg -2.58009 55.1166 4.68794 1.2 1 0.067469 0.0370828 0.0048465 0.00836944 0.00213397 0.00658169 0.00218483 0.0189374 0.00396512 0.0150945 0.00272209 0.0259331 0.00385205 0.0202027 0.00435585 0.0247946 0.00602356 0.0211831 0.00507817 0.0339066
10 2 Si 0.432226 57.203 4.86664 2.4 1 0.0238904 0.0217019 0.00678887 0.00848794 0.00267299 0.00605638 0.00242183 0.0195637 0.00407513 0.0126113 0.00358146 0.0251641 0.00500666 0.0207239 0.00613129 0.0267903 0.00642549 0.0228269 0.00506935 0.0358426
11 3 O -1.07807 57.2287 4.83148 -1.2 1 0.0237172 0.0219488 0.00685696 0.00813884 0.00275336 0.00610182 0.0023504 0.0190487 0.00444946 0.0126037 0.00308189 0.0255125 0.00457515 0.021121 0.00563368 0.0269202 0.00654614 0.0221015 0.00539358 0.0361078
12 3 O 1.32246 53.3077 4.67841 -1.2 1 0.109316 0.0482589 0.00171252 0.0111076 0.001939 0.00742956 0.00223606 0.0184147 0.00361605 0.0165907 0.00314317 0.0261004 0.00465529 0.0203559 0.00324894 0.0232674 0.0064209 0.019835 0.00546859 0.0322952
13 3 O 1.16458 56.4723 3.59963 -1.2 1 0.0393831 0.0291595 0.007545 0.00802506 0.00238127 0.00585214 0.00238037 0.0200068 0.00348914 0.0131686 0.00274589 0.0265652 0.0046249 0.0209145 0.00499284 0.0263555 0.00553984 0.0227079 0.00494332 0.0364555
14 3 O 1.04013 56.5734 6.14236 -1.2 1 0.0321535 0.0248419 0.0074005 0.00750073 0.00226543 0.00598668 0.0016532 0.0197988 0.00382058 0.0140314 0.00235192 0.0253616 0.00410822 0.0209555 0.00536244 0.0265508 0.00686018 0.0221914 0.00493892 0.0341804
15 1 Mg 0.0106992 52.5614 3.00181 1.2 1 0.119974 0.052459 0.0032207 0.0123772 0.00204945 0.00800707 0.00318928 0.0187402 0.00337247 0.0166107 0.00376392 0.0267398 0.00461489 0.0194707 0.00396769 0.0229528 0.00482045 0.0197209 0.00645773 0.0324698
16 1 Mg 0.245036 48.7221 3.38111 1.2 1 0.212187 0.0736317 0.0132024 0.0202384 0.00332666 0.0116538 0.00394458 0.0197876 0.00458672 0.0210974 0.00608379 0.0257987 0.0076596 0.0235428 0.00667205 0.0229337 0.00632262 0.0201103 0.00768113 0.0286729
17 2 Si 2.0185 51.6887 4.65907 2.4 1 0.148955 0.0579081 0.00418586 0.014347 0.00211752 0.00846175 0.00249735 0.0178515 0.00305031 0.0179901 0.00359322 0.0253179 0.0051904 0.0207688 0.0044132 0.0225052 0.00457168 0.0188906 0.00615215 0.0303117
18 3 O -1.20255 51.691 4.86409 -1.2 1 0.147826 0.0575437 0.00346793 0.0133608 0.00222194 0.00702007 0.00275996 0.017728 0.00353785 0.0179094 0.00405676 0.0255448 0.00541471 0.0229066 0.00369553 0.023226 0.00572502 0.0192992 0.00602456 0.0308329
19 3 O 2.42834 48.2694 3.36449 -1.2 1 0.224614 0.0761592 0.0143881 0.021347 0.00309117 0.0124589 0.00371806 0.020667 0.00499507 0.0222646 0.00614597 0.0261191 0.00830158 0.0220639 0.00766712 0.0227823 0.00654485 0.0205223 0.00806472 0.028126
20 3 O 1.62411 50.9742 3.45157 -1.2 1 0.155404 0.0614688 0.00412292 0.0144448 0.00218082 0.00834761 0.00296252 0.0186605 0.00364256 0.0182802 0.00369374 0.0261853 0.00523068 0.0210608 0.00425648 0.0229666 0.0050486 0.0195672 0.00665195 0.0303085
21 1 Mg -0.0741611 53.228 0.0892027 1.2 1 0.103924 0.0480059 0.00427831 0.0116596 0.00308249 0.00728575 0.00322893 0.0191055 0.00354746 0.0153994 0.00434724 0.0261 0.00380103 0.0191256 0.0039164 0.0222676 0.00448138 0.0198353 0.0065807 0.0315971
22 3 O 1.22164 50.9573 5.98043 -1.2 1 0.161632 0.0585113 0.00665097 0.0146802 0.00262988 0.00818336 0.00238607 0.0171052 0.00363417 0.0188699 0.00465465 0.0252466 0.00635831 0.0226916 0.00368786 0.022998 0.00524537 0.0186729 0.0065143 0.0293872
23 1 Mg 0.112065 55.9913 1.59973 1.2 1 0.0435468 0.0297112 0.00782662 0.00815592 0.00200888 0.00640182 0.00173108 0.0200254 0.00370985 0.0134374 0.00287394 0.0266546 0.0037792 0.0204449 0.00522547 0.0258848 0.00474746 0.0221017 0.00514887 0.0359332
24 2 Si -2.12433 54.0258 1.72726 2.4 1 0.0922436 0.0429897 0.00433462 0.0102066 0.00234234 0.00689977 0.00249039 0.0189452 0.00315451 0.0150222 0.00331389 0.0262992 0.00274062 0.0193989 0.00344914 0.0232186 0.00520555 0.0197802 0.00567618 0.0340238
25 3 O 1.14171 53.8157 1.76371 -1.2 1 0.0993949 0.044819 0.00395411 0.01099 0.00216126 0.00702511 0.00284354 0.0183121 0.00262734 0.014833 0.00380051 0.0263748 0.00353794 0.0186849 0.00506404 0.0234371 0.00404062 0.0201916 0.00616889 0.0335453
26 3 O -0.92125 57.7635 1.8707 -1.2 1 0.0171816 0.0195399 0.00746512 0.00800385 0.00161063 0.00608974 0.00125516 0.0209512 0.003424 0.0125711 0.00303702 0.0263412 0.00312076 0.0201968 0.00397179 0.0264907 0.0049089 0.0235263 0.00411645 0.0365393
27 3 O -1.47701 54.9818 0.5521 -1.2 1 0.0671636 0.0371958 0.00713844 0.00923617 0.00263864 0.00644167 0.00270294 0.0202633 0.00313973 0.013905 0.0034366 0.026056 0.00302679 0.0196241 0.0041977 0.0249027 0.00383002 0.0215935 0.00615309 0.0347535
28 3 O -1.4368 54.4449 3.1196 -1.2 1 0.0815536 0.0411121 0.00473155 0.00853514 0.00213953 0.0063204 0.00272403 0.0195341 0.00371674 0.0151704 0.00275204 0.0271092 0.00366221 0.0199352 0.00407193 0.0242297 0.00590623 0.0210004 0.00519433 0.0348203
29 1 Mg -2.20542 58.1867 0.0614431 1.2 1 0.0107372 0.0159013 0.00715265 0.0077229 0.000950378 0.00633663 0.00220014 0.0210127 0.00270901 0.0127137 0.00287248 0.0267329 0.00301801 0.0197852 0.00400561 0.026149 0.0037661 0.022946 0.00382614 0.0358299
30 1 Mg 2.65097 61.0394 1.69756 1.2 1 0.0039264 0.00663103 0.00266973 0.00901747 0.00106995 0.00647552 0.00166579 0.0210588 0.00304396 0.0124717 0.00294244 0.0264985 0.00245354 0.0211443 0.00356961 0.0278003 0.0032285 0.0239611 0.002634 0.0365725
31 2 Si -0.155797 59.2503 1.90454 2.4 1 0.00403674 0.0116779 0.00466951 0.00913735 0.00132641 0.00617956 0.00151062 0.020751 0.00255079 0.0120562 0.00267722 0.0253567 0.003084 0.0212789 0.00389783 0.0273354 0.00443894 0.0238561 0.00349034 0.0376817
32 3 O 1.37361 59.1788 1.75504 -1.2 1 0.0045637 0.0121709 0.00511887 0.00890317 0.00112119 0.00598202 0.00147746 0.0203822 0.00314854 0.0122752 0.00263062 0.0257068 0.00293451 0.0207594 0.00334048 0.0278634 0.0040022 0.0238371 0.00320414 0.0373942
33 3 O -1.29369 63.048 1.58608 -1.2 1 0.00464686 0.0047901 0.00175494 0.00983412 0.000724957 0.00657459 0.00130287 0.0217727 0.00214529 0.0132334 0.00258626 0.0267903 0.00214936 0.0209476 0.00274039 0.0286203 0.00320713 0.0235162 0.00337567 0.0372601
34 3 O -0.785507 59.9983 0.350015 -1.2 1 0.00120565 0.00946131 0.00396152 0.00897044 0.00118276 0.00648249 0.00218838 0.0210085 0.00256552 0.0123089 0.00283895 0.0258022 0.00233273 0.0212591 0.00337056 0.0281649 0.00306926 0.0237321 0.00302041 0.0366446
35 1 Mg -2.20281 69.0692 3.21405 1.2 1 0.00307002 0.00428659 0.000929447 0.0100146 0.00107097 0.00717673 0.00222072 0.0210401 0.00214816 0.0131893 0.00226196 0.0288634 0.002877 0.0213173 0.00291275 0.0296585 0.00371028 0.0250465 0.0036019 0.0364574
36 3 O -0.940684 60.0066 3.00179 -1.2 1 0.00112256 0.00951766 0.00348245 0.00873848 0.00175021 0.00654095 0.00174269 0.0209279 0.00284265 0.0124384 0.00336571 0.0249753 0.00367965 0.0212762 0.00477387 0.0281232 0.0050672 0.0240236 0.00426949 0.03636
37 1 Mg -2.32366 65.8116 4.44152 1.2 1 0.00445718 0.00394877 0.00136633 0.00912227 0.00113429 0.00700939 0.00168707 0.0212205 0.00248478 0.0137817 0.00199177 0.0263852 0.00252848 0.0210907 0.00311473 0.0291397 0.00408407 0.024749 0.00355412 0.0350693
38 2 Si 0.460993 68.0521 4.79426 2.4 1 0.00384278 0.00395567 0.00112732 0.0100405 0.00193971 0.00687587 0.00185562 0.0203869 0.00235157 0.0130481 0.00276044 0.0262071 0.00305057 0.0216467 0.00326701 0.0297347 0.00308621 0.024433 0.00315808 0.0354091
39 3 O -1.10848 68.1992 4.65275 -1.2 1 0.00389998 0.00420307 0.000963245 0.00968818 0.0017988 0.00660732 0.00209535 0.019843 0.00329139 0.0130782 0.00210047 0.0269051 0.00312767 0.021413 0.00284626 0.0294982 0.00353039 0.024004 0.00345165 0.0355048
40 3 O 1.51402 63.9807 4.48422 -1.2 1 0.00576399 0.00425889 0.00179996 0.00883856 0.00189848 0.00644819 0.00158624 0.0211815 0.00216806 0.013347 0.00275464 0.0260446 0.00364103 0.020903 0.00500581 0.0289651 0.00445131 0.0242742 0.00434862 0.0353342
41 3 O 1.00968 67.2279 3.47891 -1.2 1 0.00362153 0.00477844 0.00118705 0.0093201 0.00229062 0.0071107 0.00216201 0.0211871 0.002523 0.0132892 0.00266073 0.0268756 0.00295564 0.0217848 0.0034314 0.0306327 0.00340993 0.0245834 0.00316383 0.0360004
42 3 O 1.14466 67.4667 6.18977 -1.2 1 0.00365958 0.00419481 0.00140915 0.00886297 0.0015603 0.00696362 0.0017973 0.0206541 0.00233816 0.0133539 0.00239922 0.0262094 0.00315979 0.0215756 0.00284446 0.0297585 0.00324013 0.0251876 0.0035214 0.0349406
43 1 Mg 0.0382126 63.6937 3.07668 1.2 1 0.00521518 0.00444147 0.0014203 0.00898307 0.00104264 0.00640474 0.00109807 0.0218807 0.00196234 0.0133008 0.00258573 0.0261299 0.00280871 0.0210175 0.00342956 0.0292104 0.00353624 0.0245705 0.00366193 0.0366152
44 1 Mg -0.163159 60.9506 4.78734 1.2 1 0.00312454 0.00761793 0.0023293 0.00833575 0.00244742 0.00626197 0.0010056 0.0209636 0.00219696 0.013302 0.00336643 0.025884 0.00421745 0.0210892 0.00464892 0.0291044 0.00531049 0.0240446 0.00465537 0.0366127
45 2 Si 2.24107 62.4214 4.43272 2.4 1 0.00510279 0.00470837 0.0019217 0.00944297 0.0024678 0.00589216 0.00190696 0.0202544 0.00205668 0.0128087 0.00327425 0.024782 0.00360861 0.0211671 0.00459628 0.0289167 0.00490743 0.0238312 0.00465883 0.0364408
46 3 O -1.01694 62.477 4.38055 -1.2 1 0.00490336 0.00508253 0.0013741 0.00952594 0.00224486 0.00577093 0.00153859 0.0204726 0.00264407 0.0123706 0.00285807 0.0246158 0.00349387 0.0208546 0.00532409 0.029001 0.00544348 0.0238592 0.0055714 0.036521
47 3 O 1.13299 58.6893 4.56796 -1.2 1 0.00957839 0.0154706 0.00501062 0.00833619 0.00311815 0.00609452 0.00210016 0.0202787 0.00344387 0.0131742 0.00288481 0.0258749 0.00410296 0.0210825 0.00529839 0.0276181 0.00592198 0.0230083 0.00513164 0.0365497
48 3 O 1.40641 61.6013 3.38363 -1.2 1 0.0040926 0.00614413 0.00191287 0.00880779 0.00208404 0.00671009 0.00167739 0.0205165 0.00202496 0.012719 0.00292292 0.0254247 0.00368886 0.0215508 0.00379464 0.0281651 0.00403194 0.0237681 0.00372727 0.0366107
49 1 Mg 0.204737 63.4477 0.151155 1.2 1 0.00470126 0.00448949 0.0012312 0.00997445 0.000819641 0.00682795 0.00128208 0.0218184 0.00189864 0.0131386 0.00202402 0.027753 0.00283129 0.0207886 0.0032913 0.028791 0.0029805 0.0234679 0.00348625 0.0365323
50 3 O 1.56405 62.0791 5.93681 -1.2 1 0.00457306 0.0056873 0.0017701 0.00861731 0.00276379 0.00615652 0.00204437 0.0210682 0.00201617 0.0128752 0.00279178 0.0252433 0.0034784 0.0210457 0.00483581 0.0292653 0.0047453 0.0240246 0.0041292 0.0361934
51 1 Mg 0.033635 66.7939 1.74686 1.2 1 0.00361462 0.00435684 0.000851395 0.00959715 0.00106866 0.00723945 0.00172662 0.0218263 0.00184818 0.0135184 0.00255446 0.0283444 0.00304438 0.0217251 0.00311106 0.0298084 0.00362805 0.0247126 0.00365325 0.0368156
52 2 Si -1.82348 64.6001 1.71568 2.4 1 0.00462612 0.00367003 0.00120161 0.00993922 0.00111932 0.00648331 0.00189616 0.0211323 0.00175435 0.0130291 0.00222975 0.0264538 0.00250229 0.0216152 0.00420723 0.0287452 0.00381378 0.0236401 0.00382999 0.0369466
53 3 O 1.32878 64.5432 1.80823 -1.2 1 0.00459459 0.0038555 0.00133589 0.00978684 0.000990509 0.00620158 0.00151588 0.0208192 0.0023972 0.0131968 0.0029604 0.0266547 0.00339487 0.0217018 0.00304361 0.029105 0.0043896 0.023293 0.00349878 0.0365978
54 3 O -0.740555 68.8627 1.86757 -1.2 1 0.00226037 0.00411857 0.0012794 0.010248 0.0014447 0.00733784 0.00195363 0.0215116 0.00172405 0.0133567 0.00222032 0.0294417 0.00255899 0.0215906 0.0044935 0.0290426 0.00484804 0.0248897 0.00364694 0.0372763
55 3 O -1.35903 65.3533 0.301143 -1.2 1 0.0036905 0.00393755 0.00101461 0.00938516 0.00115195 0.00704025 0.00211418 0.0219497 0.0020092 0.0132637 0.00276371 0.0280612 0.00306542 0.0217039 0.00322744 0.0290508 0.00385114 0.0237566 0.00416846 0.0368852
56 3 O -1.05107 65.3909 2.81899 -1.2 1 0.00430369 0.00412109 0.00118178 0.00892045 0.00115712 0.0069476 0.00236687 0.0208618 0.00171822 0.013166 0.00252226 0.0266073 0.00286866 0.0218783 0.00414299 0.02964 0.00358104 0.023977 0.00329807 0.0357858
57 1 Mg -2.19134 69.2633 0.338216 1.2 1 0.00205735 0.00390012 0.00177714 0.0103292 0.00126783 0.00767597 0.00180833 0.0221445 0.00185006 0.0129336 0.00230533 0.0301156 0.00279614 0.0215672 0.0040931 0.0290061 0.00417564 0.0254005 0.00353113 0.037291
58 1 Mg 2.50865 72.1774 1.67288 1.2 1 0.00329928 0.00478438 0.00181529 0.0102039 0.000742976 0.00779702 0.00154202 0.0220463 0.00212597 0.0124706 0.00329633 0.0302254 0.00266035 0.0222756 0.00472277 0.0297156 0.00414083 0.0262356 0.00370863 0.0387168
59 2 Si -0.118224 70.3541 1.81408 2.4 1 0.00266952 0.00395453 0.00190595 0.0112367 0.00122859 0.00675548 0.0021803 0.0208019 0.00221511 0.0123101 0.00255337 0.0288184 0.00241109 0.0221805 0.00443156 0.0289229 0.00462039 0.0253663 0.00351794 0.0386935
60 3 O 1.37888 70.1831 1.78338 -1.2 1 0.00306735 0.00361102 0.00176229 0.0109159 0.000802749 0.00683096 0.00200271 0.0208052 0.00268523 0.0125758 0.00204623 0.029367 0.00199915 0.0220516 0.00349537 0.0295027 0.00406178 0.0256173 0.00476879 0.0387625
61 3 O -1.13317 73.8602 1.77108 -1.2 1 0.0036073 0.00582004 0.00166009 0.01026 0.0010132 0.0077048 0.00115443 0.0222881 0.00182908 0.0124487 0.001765 0.0288653 0.00216574 0.0216333 0.0027525 0.0292874 0.00249212 0.0258046 0.00314038 0.0384944
62 3 O -0.810557 70.9766 0.523285 -1.2 1 0.00282831 0.004313 0.00203617 0.0102303 0.00118901 0.00751827 0.00184308 0.0221549 0.00193204 0.0122336 0.00203534 0.02962 0.00218458 0.0227347 0.00354991 0.0294887 0.00376784 0.026121 0.00372574 0.0385723
63 1 Mg -2.53561 79.8513 3.39515 1.2 1 0.00366312 0.00615597 0.000782714 0.00902292 0.00181667 0.00677445 0.00161832 0.0226687 0.00214919 0.0100206 0.00213676 0.027956 0.00266732 0.0203324 0.00355291 0.0290417 0.00343971 0.0254333 0.00336549 0.0394819
64 3 O -0.734202 71.1111 3.17556 -1.2 1 0.00325641 0.00469193 0.00172132 0.0104566 0.000795706 0.00753607 0.00209154 0.0214423 0.0023988 0.0122247 0.00227098 0.0280514 0.00306878 0.0219661 0.00364125 0.0299357 0.00333852 0.0258012 0.00332092 0.0376694
65 1 Mg -2.49397 76.6684 4.87459 1.2 1 0.00460021 0.00677211 0.00091055 0.00928415 0.000873041 0.00695904 0.00201154 0.0222265 0.00195265 0.0108757 0.00256602 0.0277423 0.00262716 0.0205434 0.0025272 0.029583 0.00374387 0.026804 0.00285883 0.0385558
66 2 Si 0.405312 78.6676 4.84335 2.4 1 0.00453541 0.00655187 0.000911671 0.00981215 0.00090499 0.00618862 0.00263473 0.0218479 0.00165421 0.0104586 0.00239188 0.026657 0.00277876 0.0205085 0.00383718 0.0288031 0.00362681 0.0255345 0.00307783 0.0396907
67 3 O -1.15403 78.7161 4.91376 -1.2 1 0.00474269 0.00614595 0.00104661 0.00977012 0.00091097 0.00625546 0.00194149 0.0215418 0.00221051 0.0100907 0.00200939 0.0271625 0.00282388 0.0200948 0.0030352 0.0294125 0.00387812 0.0259043 0.0032944 0.0398389
68 3 O 1.39576 74.8109 4.73488 -1.2 1 0.00474812 0.0063029 0.00187856 0.00969115 0.00127014 0.00707958 0.00143201 0.0219919 0.00213225 0.0114282 0.00239701 0.0279341 0.00275357 0.02054 0.00361894 0.029036 0.00448376 0.0262587 0.00310248 0.0379481
69 3 O 1.06583 78.1253 3.4623 -1.2 1 0.0037431 0.00667465 0.000969465 0.00935475 0.00073526 0.00657696 0.00327106 0.0225767 0.00160119 0.0107084 0.00201726 0.0278017 0.00237285 0.0213025 0.00366973 0.0291712 0.00388284 0.0263657 0.00285156 0.0395641
70 3 O 1.27151 77.8546 6.04341 -1.2 1 0.00574092 0.00690236 0.00100117 0.00895311 0.000882752 0.00614098 0.00254566 0.0221554 0.00216586 0.010668 0.00194507 0.0265645 0.00345848 0.0205615 0.00338748 0.0301565 0.00333586 0.0260783 0.00335567 0.0384888
71 1 Mg 0.152066 74.3022 3.21749 1.2 1 0.00349358 0.00582519 0.00190939 0.00984611 0.0006932 0.00754819 0.00129397 0.02194 0.00200363 0.0118438 0.00200388 0.0285923 0.00218619 0.0211374 0.00307932 0.0292421 0.00419129 0.0259707 0.00294535 0.0380917
72 1 Mg 0.169398 71.6806 4.90909 1.2 1 0.0049875 0.00538241 0.00172751 0.0095866 0.00151223 0.00694126 0.00169085 0.0213629 0.00361078 0.0126849 0.00282338 0.0276623 0.00347926 0.0215804 0.00433743 0.0295185 0.00402234 0.0255646 0.00411367 0.0367202
73 2 Si 2.21688 73.3987 4.7805 2.4 1 0.00577492 0.00572639 0.00205236 0.0103538 0.00211309 0.00649406 0.00176518 0.0205693 0.00255929 0.0111691 0.00309561 0.0274585 0.00298078 0.0207235 0.00398802 0.0291131 0.00445698 0.0259064 0.00422668 0.0384462
74 3 O -1.01014 73.6924 4.70837 -1.2 1 0.00521482 0.00577343 0.00244252 0.00977385 0.00151077 0.0070357 0.00139546 0.0206763 0.00326136 0.0115636 0.00287816 0.0283477 0.00296382 0.0207472 0.0032594 0.0291336 0.00361608 0.0255697 0.0038638 0.0378788
75 3 O 1.15005 69.5074 4.70083 -1.2 1 0.00399368 0.00456629 0.00124886 0.0098402 0.00137846 0.00704322 0.0020594 0.0210251 0.00233558 0.0129841 0.00256833 0.0276402 0.00273465 0.0214815 0.00278606 0.0292409 0.00336311 0.0248042 0.00323604 0.0357348
76 3 O 1.57381 72.7533 3.37993 -1.2 1 0.00436393 0.00514402 0.00217853 0.0101047 0.00186674 0.00738467 0.00228719 0.0215118 0.00280077 0.0114939 0.00245959 0.0281845 0.00249884 0.0221144 0.00376562 0.0301147 0.00389109 0.0260772 0.00362511 0.0381887
77 1 Mg 0.216654 74.2548 0.239681 1.2 1 0.00437423 0.00563348 0.00198077 0.0097159 0.00132911 0.00776755 0.00116299 0.0225031 0.00159586 0.0118841 0.00138925 0.0292521 0.00198343 0.0215087 0.00230941 0.0295626 0.00213652 0.026369 0.00315782 0.0382307
78 3 O 1.4991 72.5553 5.98122 -1.2 1 0.00595745 0.00534369 0.00182461 0.00904599 0.00173698 0.0066987 0.00157159 0.0207758 0.00303613 0.0116368 0.00243894 0.0267585 0.00346528 0.0208812 0.00292078 0.0288307 0.00405238 0.0256492 0.00413074 0.0366739
79 1 Mg 0.0470151 77.2503 1.66434 1.2 1 0.0037412 0.00654673 0.0012593 0.0097304 0.00117574 0.00747403 0.00126682 0.0222979 0.00208365 0.0111116 0.00246862 0.0287591 0.00196649 0.0212926 0.00303868 0.029103 0.00343743 0.0265438 0.00283783 0.0389095
80 2 Si -1.85659 75.2924 1.74518 2.4 1 0.00358277 0.00620522 0.00175217 0.010615 0.00174816 0.0073261 0.0016061 0.0216471 0.00169999 0.0114345 0.00261795 0.027965 0.00239388 0.0224573 0.00366502 0.0290577 0.00323051 0.0260969 0.00353552 0.0390876
81 3 O 1.33897 75.3933 1.64713 -1.2 1 0.00414163 0.00630891 0.00171195 0.0101653 0.0013142 0.00758968 0.000811199 0.0219082 0.00186063 0.0109623 0.00201962 0.0283133 0.00210302 0.0213112 0.00226631 0.0293609 0.00337244 0.0260672 0.00295158 0.0392461
82 3 O -1.07902 79.4052 1.46937 -1.2 1 0.00390625 0.00603969 0.000863106 0.0096403 0.00142473 0.00721695 0.000919146 0.0225611 0.00187091 0.0102425 0.00264531 0.0284965 0.00276161 0.0200984 0.00275031 0.0278992 0.00347654 0.0251397 0.00319956 0.0393564
83 3 O -1.27527 75.9519 0.352632 -1.2 1 0.00439528 0.00637261 0.00141199 0.00971741 0.00216813 0.00790193 0.00173182 0.0223984 0.00175204 0.0110904 0.00224749 0.0282296 0.00251275 0.0221458 0.00305396 0.0289665 0.0030958 0.0262619 0.00350059 0.0391908
84 3 O -1.30859 76.1058 3.11956 -1.2 1 0.00382964 0.00632809 0.00146432 0.00954451 0.00158069 0.00743814 0.00186837 0.0217232 0.00231726 0.0109627 0.00258939 0.0276726 0.00228576 0.0216244 0.0028611 0.0295929 0.00438026 0.0262652 0.0030562 0.0385569
85 1 Mg -2.28992 80.0194 -0.051928 1.2 1 0.00295196 0.00586553 0.000834679 0.00958814 0.0022008 0.00742798 0.00117808 0.0224864 0.00280857 0.0101514 0.00207304 0.0282508 0.00208896 0.0202315 0.00347172 0.0283626 0.00334721 0.02529 0.00444794 0.0395762
86 1 Mg 2.10433 82.763 1.90885 1.2 1 0.00265914 0.0058122 0.00147357 0.00926828 0.00119786 0.00656332 0.00139311 0.0226134 0.0019645 0.00988296 0.00184152 0.0270666 0.00251477 0.0201487 0.00317067 0.0291665 0.00372075 0.0239369 0.00379553 0.0390437
87 2 Si -0.535008 81.0012 1.76693 2.4 1 0.00282904 0.00497802 0.00107765 0.00976095 0.00241648 0.00659175 0.001244 0.022166 0.00221605 0.00971086 0.00264043 0.0273689 0.00257887 0.0201289 0.00412461 0.0285021 0.00426632 0.0245575 0.00407259 0.039511
88 3 O 0.989945 80.9606 1.9643 -1.2 1 0.00275101 0.00520435 0.000901411 0.00979262 0.00224024 0.00600448 0.00135746 0.0216039 0.00309382 0.00945041 0.00204093 0.0267422 0.0030016 0.0205995 0.00327229 0.0289795 0.00400458 0.0241676 0.0034747 0.0395666
89 3 O -1.52605 84.6419 2.00533 -1.2 1 0.00221371 0.00590267 0.00146476 0.00987576 0.00135466 0.00656839 0.00135166 0.0230858 0.00170612 0.0101005 0.00225613 0.0266757 0.00279689 0.0203413 0.00326482 0.0288895 0.00286968 0.0234901 0.00409126 0.0380943
90 3 O -1.18605 81.5535 0.469481 -1.2 1 0.00245197 0.00525321 0.00143977 0.00954358 0.00190181 0.00673993 0.00166928 0.0227445 0.0023232 0.00988149 0.00291455 0.0268935 0.00298424 0.021041 0.00382269 0.0285041 0.0034284 0.0246208 0.00424007 0.0393923
91 1 Mg -2.41025 90.3986 3.22449 1.2 1 0.00221 0.00638268 0.0018033 0.00981642 0.00178218 0.00653022 0.00148524 0.023172 0.00202345 0.0120443 0.00249543 0.0271073 0.00242172 0.0220171 0.00308215 0.0295524 0.00386807 0.0239736 0.00430519 0.0386133
92 3 O -1.14521 81.6293 2.97398 -1.2 1 0.00352665 0.0056806 0.00134336 0.00908068 0.00207378 0.00616897 0.00135845 0.0225888 0.00264059 0.00990383 0.00303062 0.0268188 0.00369304 0.0209695 0.0036205 0.0289161 0.00312953 0.024016 0.00416055 0.0389294
93 1 Mg -2.57963 87.3547 4.95028 1.2 1 0.00251113 0.0082285 0.00214649 0.00984565 0.00194885 0.00612061 0.00177738 0.023774 0.00289731 0.0110563 0.0030243 0.0271026 0.0026416 0.0208646 0.00276301 0.0306344 0.00383741 0.0246792 0.00562177 0.0396353
94 2 Si 0.22576 89.4112 4.75203 2.4 1 0.00376834 0.00692266 0.00194522 0.0104999 0.00297333 0.00591325 0.00180411 0.0227305 0.00261096 0.0113764 0.00345025 0.0270687 0.00219392 0.0218435 0.00363073 0.030069 0.0042155 0.0239824 0.00481927 0.0402089
95 3 O -1.33457 89.4491 4.82306 -1.2 1 0.00384881 0.00720391 0.00189397 0.010252 0.00229008 0.00611517 0.00186116 0.0228416 0.003713 0.0110406 0.00221014 0.0269108 0.00238933 0.0215914 0.00403827 0.0300584 0.00427015 0.0239975 0.00486684 0.0398706
96 3 O 0.960103 85.403 5.00079 -1.2 1 0.00257846 0.00711734 0.00162328 0.00945146 0.00156712 0.0062684 0.00171107 0.0236836 0.0020345 0.00980476 0.00189221 0.0269449 0.00252129 0.0199308 0.00234136 0.0294975 0.0035437 0.0243909 0.00497594 0.0394906
97 3 O 0.967391 88.5581 3.53359 -1.2 1 0.0015043 0.00727188 0.00230324 0.00985498 0.00207033 0.00606018 0.00223606 0.0234767 0.00246655 0.0109482 0.00264532 0.0264035 0.00242075 0.0216997 0.00294883 0.0303223 0.00342777 0.0243029 0.00478149 0.0395278
98 3 O 0.88515 88.7001 5.99122 -1.2 1 0.00364492 0.00719343 0.00192545 0.00953933 0.00277045 0.00613583 0.00131811 0.0237345 0.00260747 0.0113141 0.00336053 0.0269889 0.00213198 0.0216799 0.0031442 0.0301517 0.00391104 0.0251609 0.00518375 0.0401217
99 1 Mg -0.355621 85.0688 3.56015 1.2 1 0.00223002 0.00679979 0.00205983 0.00952799 0.00193246 0.00649055 0.00137688 0.0232268 0.00163043 0.00988577 0.00199223 0.0266801 0.00259937 0.019589 0.00297394 0.0294082 0.00339736 0.0239196 0.0049208 0.0381827
100 1 Mg -0.157082 82.0279 4.79706 1.2 1 0.00465496 0.00658486 0.00151313 0.00854863 0.00225134 0.00593808 0.00265002 0.0232221 0.00207785 0.0102089 0.00241352 0.0274465 0.00287809 0.0199061 0.00301067 0.0297297 0.00364613 0.0248572 0.00405975 0.0399302
101 2 Si 1.79357 83.9632 5.11748 2.4 1 0.00352016 0.00662493 0.0016869 0.00944607 0.00210696 0.00533293 0.00291762 0.0221683 0.00190115 0.00949436 0.00166368 0.0266923 0.00285496 0.0196086 0.00479274 0.0293517 0.00480276 0.0239132 0.00501793 0.0400069
102 3 O -1.43278 83.96 5.09152 -1.2 1 0.00398502 0.00661141 0.00184951 0.00916465 0.00234269 0.00534434 0.00232539 0.022996 0.00242441 0.00937785 0.00219833 0.026301 0.00307993 0.0197762 0.00269989 0.030434 0.00424232 0.0241631 0.00541791 0.0401542
103 3 O 1.03518 80.2361 5.03685 -1.2 1 0.00490353 0.00670246 0.000972148 0.0087677 0.00153722 0.00653561 0.00228102 0.0233038 0.00164454 0.0108414 0.00172425 0.0278894 0.00272275 0.0197452 0.00370228 0.028996 0.00348384 0.0253862 0.00309762 0.039763
104 3 O 1.12877 83.3164 3.8019 -1.2 1 0.00254996 0.00600136 0.00145453 0.00903826 0.00159039 0.00600945 0.00303574 0.0227732 0.0015517 0.00940411 0.0016369 0.0261991 0.00250621 0.0201718 0.0036563 0.0294591 0.00355651 0.0243692 0.00403174 0.039244
105 1 Mg -0.19302 85.1091 0.328511 1.2 1 0.00196927 0.0054056 0.00181807 0.00989881 0.00136452 0.0065638 0.00109603 0.0229528 0.0016907 0.0100321 0.00272347 0.0263381 0.00281028 0.0207853 0.00307608 0.0291979 0.00341653 0.0237736 0.00477157 0.03792
106 3 O 1.19073 83.2024 6.38349 -1.2 1 0.00490693 0.00739614 0.00169386 0.00861114 0.00242528 0.00546503 0.00283291 0.0236822 0.00223452 0.0101919 0.00252126 0.026239 0.00350042 0.0206382 0.00475357 0.0300135 0.0050735 0.0246344 0.00526005 0.0403634
107 1 Mg -0.337591 88.0785 2.08853 1.2 1 0.000854391 0.00684479 0.00198918 0.00979605 0.00156775 0.00625821 0.00171642 0.0235473 0.00247521 0.0110867 0.00328369 0.0265965 0.00265459 0.0218377 0.00339735 0.0300049 0.00335591 0.0239125 0.00487121 0.0381066
108 2 Si -2.33335 86.0633 2.00928 2.4 1 0.00196062 0.00633934 0.00205445 0.010444 0.00211779 0.00579042 0.00211666 0.022852 0.00195555 0.00990586 0.00292032 0.0252498 0.00256817 0.0210745 0.00346043 0.0291302 0.0034909 0.0230665 0.00515211 0.0392088
109 3 O 0.867414 85.801 1.88179 -1.2 1 0.00228235 0.00594233 0.00210197 0.0103259 0.00211371 0.00613008 0.00173493 0.0220747 0.0027079 0.00982338 0.00236476 0.0262268 0.00245579 0.0203235 0.00323535 0.0292733 0.00339907 0.0230187 0.00476804 0.0383509
110 3 O -0.883479 89.9703 1.82801 -1.2 1 0.000511652 0.00645792 0.00199217 0.00985485 0.00127869 0.00646497 0.00179341 0.0233451 0.00158865 0.0121034 0.00236928 0.026754 0.00304864 0.0214892 0.00389606 0.0293524 0.00374077 0.0239885 0.00411223 0.038196
111 3 O -1.53311 86.8603 0.844246 -1.2 1 0.00214334 0.00594781 0.00203119 0.0100925 0.00199703 0.00623922 0.00221633 0.0226201 0.00186295 0.010356 0.0026085 0.0255066 0.00292785 0.0217698 0.00384347 0.0296586 0.00328284 0.0234787 0.00467789 0.0384277
112 3 O -1.63206 86.668 3.26365 -1.2 1 0.00160946 0.007068 0.0023274 0.0100407 0.00217838 0.00587826 0.0022112 0.0231366 0.00230485 0.0100337 0.00309851 0.0259988 0.00314604 0.0213785 0.00333087 0.0298982 0.00360876 0.0236775 0.00530934 0.038802
113 1 Mg -2.47432 90.1361 0.420391 1.2 1 0.000529993 0.00622138 0.00117402 0.00976933 0.00174354 0.00685845 0.00101384 0.0229576 0.00207546 0.0122741 0.00213796 0.0268669 0.00185754 0.0214898 0.00339967 0.0293749 0.00346102 0.0242947 0.00445466 0.0373295
114 1 Mg 2.30236 93.3785 1.63231 1.2 1 0.00350329 0.00555805 0.00157272 0.00973695 0.00165844 0.00730233 0.00201242 0.0219709 0.0022757 0.0129823 0.00290548 0.0262514 0.00241776 0.0232338 0.003213 0.0296574 0.00370971 0.0233026 0.00332713 0.0374787
115 2 Si -0.283834 91.4068 1.8874 2.4 1 0.00275572 0.00544434 0.00168166 0.0108904 0.00127264 0.00621383 0.00231501 0.0219794 0.00176191 0.0117256 0.00253149 0.025892 0.00279077 0.0222669 0.00482298 0.0296358 0.00448121 0.0231623 0.00407728 0.0386657
116 3 O 1.24298 91.2808 1.8747 -1.2 1 0.00203184 0.00518723 0.00148669 0.010681 0.00122162 0.00602409 0.00206921 0.0215632 0.002033 0.0116054 0.00211343 0.0263081 0.0022058 0.0215692 0.0030118 0.0298662 0.00373067 0.0235594 0.00334528 0.0382492
117 3 O -1.38908 95.3293 1.74752 -1.2 1 0.00397532 0.00506869 0.00171689 0.00949178 0.00102784 0.0070115 0.0020263 0.021329 0.00181953 0.0137619 0.00178559 0.0258876 0.00284385 0.0221103 0.00254801 0.0286414 0.00317352 0.0218735 0.00344891 0.035465
118 3 O -1.07609 92.0443 0.637911 -1.2 1 0.00183122 0.00571548 0.00125533 0.0102197 0.00132188 0.00683563 0.00245718 0.0222494 0.00220881 0.0120641 0.00225619 0.025456 0.00200216 0.0228011 0.00354834 0.0298353 0.00369764 0.0241125 0.0037372 0.0379581
119 1 Mg -2.59327 101.767 3.28119 1.2 1 0.00546574 0.00496682 0.00126529 0.00856193 0.00231511 0.00699785 0.00201216 0.0197255 0.00174349 0.01271 0.00199607 0.0257889 0.00269887 0.0201976 0.00285094 0.0268637 0.00345302 0.0194247 0.00451995 0.0340122