ITEM: TIMESTEP
69900
ITEM: NUMBER OF ATOMS
5600
ITEM: BOX BOUNDS xy xz yz pp pp pp
0	7.1235	0
0	201.985	2.3745
0	119.584	0
ITEM: ATOMS id type element xu yu zu q Q_1 Q_2 Q_3 Q_4 Q_5 Q_6 Q_7 Q_8 Q_9 Q_10 Q_11 Q_12 Q_13 Q_14 Q_15 Q_16 Q_17 Q_18 Q_19 Q_20 Q_21
1 1 Mg -1.93268 48.5438 -1.62852 1.2 1 0.215651 0.0805595 0.0130325 0.0243052 0.00288037 0.01231 0.0026675 0.0180209 0.00561639 0.0229933 0.00654758 0.0257015 0.00618406 0.0255361 0.00780951 0.0240636 0.00725176 0.017798 0.0103805 0.0264229
2 1 Mg 2.7167 50.16 1.59921 1.2 1 0.177137 0.072688 0.00683496 0.0199548 0.00204585 0.0092079 0.00346844 0.0196411 0.00518456 0.0214982 0.00480198 0.027458 0.00574062 0.0245167 0.00640796 0.0235527 0.00640631 0.018659 0.0087444 0.0275977
3 2 Si 0.70557 49.7456 -0.300356 2.4 1 0.191242 0.0751761 0.00844467 0.0213346 0.00238361 0.00940844 0.00313509 0.018931 0.00527601 0.0204284 0.00527762 0.0260757 0.00620645 0.024892 0.00766516 0.0231715 0.00620242 0.0170178 0.0087372 0.0271463
4 3 O 2.00559 49.1269 -0.0194973 -1.2 1 0.204048 0.0779185 0.0117406 0.0229442 0.00249938 0.0101253 0.00301424 0.0194137 0.00536693 0.0216244 0.00531485 0.0266145 0.00628094 0.0263181 0.00814502 0.0241184 0.00756272 0.0189952 0.00957929 0.027131
5 3 O -1.4659 52.5405 1.02456 -1.2 1 0.125425 0.0543397 0.00236888 0.0138905 0.00188423 0.00786267 0.00360754 0.0177843 0.00415545 0.0180089 0.00526731 0.0271765 0.00515876 0.0209967 0.00481901 0.02287 0.00499787 0.0178715 0.00711414 0.0281785
6 3 O -0.0657505 48.9705 -1.52986 -1.2 1 0.206543 0.0780739 0.0118443 0.022755 0.00307068 0.0104103 0.00224182 0.0187389 0.00532709 0.0223117 0.00564007 0.0253182 0.00600535 0.0256402 0.00734192 0.023898 0.00736293 0.0180609 0.00886661 0.0259504
7 1 Mg -2.16513 58.6739 2.69406 1.2 1 0.0156581 0.012786 0.00497815 0.00793662 0.00140009 0.0056054 0.00135699 0.0208769 0.00334726 0.0129538 0.00210791 0.0267616 0.0033826 0.0201381 0.00516165 0.028097 0.0057609 0.0247491 0.0040332 0.0349403
8 3 O -0.175979 49.8478 0.987042 -1.2 1 0.182282 0.0738075 0.00660481 0.0206244 0.00257032 0.00946274 0.00415657 0.0189895 0.00520556 0.0204087 0.00527978 0.0262238 0.00505108 0.0247966 0.00692801 0.0233615 0.00730318 0.0180154 0.00834887 0.0264839
9 1 Mg -2.36296 55.4357 4.34624 1.2 1 0.0639835 0.0352826 0.00563242 0.0100482 0.00215682 0.00554047 0.002137 0.0196457 0.00319172 0.0155484 0.00228584 0.0271183 0.00295779 0.0200429 0.00420016 0.0259522 0.00556682 0.0222757 0.00561249 0.0304695
10 2 Si 0.30929 57.2079 4.15457 2.4 1 0.0282279 0.0209963 0.00693983 0.00914862 0.00189583 0.00496325 0.00193663 0.0202161 0.00320386 0.0130289 0.00291521 0.0258808 0.00382556 0.0194905 0.00500191 0.0274095 0.00594788 0.0236841 0.00497291 0.0331386
11 3 O -1.33917 57.2749 4.23071 -1.2 1 0.0272253 0.0208882 0.0071282 0.00919595 0.00223777 0.00493542 0.00255117 0.0194923 0.00350746 0.0131024 0.00178412 0.0259784 0.00363586 0.0201969 0.00486963 0.0274044 0.00661191 0.023499 0.00563805 0.0331946
12 3 O 1.40556 53.3713 4.46939 -1.2 1 0.110714 0.0497269 0.00173941 0.0132789 0.00257631 0.00620932 0.00180028 0.0193959 0.00303557 0.0187957 0.00253763 0.0270647 0.00308901 0.0217841 0.00447701 0.0242966 0.00524713 0.0211871 0.00704392 0.0289452
13 3 O 0.889755 56.4129 2.9779 -1.2 1 0.0430674 0.0277315 0.00725651 0.00881238 0.00189824 0.0053613 0.00212755 0.0197243 0.00330179 0.0138229 0.0018723 0.026391 0.00299495 0.0197111 0.00475025 0.0259437 0.00573278 0.0223588 0.005225 0.0319725
14 3 O 1.02406 56.5123 5.55974 -1.2 1 0.0403359 0.026193 0.00755925 0.00895425 0.00258994 0.0058863 0.00195981 0.0203307 0.0026256 0.014779 0.00197812 0.0262632 0.0040451 0.0200368 0.00438289 0.0272093 0.005901 0.0236747 0.00527731 0.0311866
15 1 Mg 0.164891 53.1036 2.97096 1.2 1 0.11327 0.0514537 0.00256141 0.0124249 0.00226224 0.00682881 0.00261922 0.0187186 0.00339722 0.0180469 0.00316259 0.0274305 0.00419982 0.0209947 0.00458239 0.0236668 0.00432647 0.0192815 0.00703428 0.0289084
16 1 Mg 0.229934 49.6767 3.07753 1.2 1 0.196889 0.0760832 0.0109243 0.0219898 0.00277161 0.0112842 0.00262545 0.0204231 0.00559068 0.0237672 0.00397565 0.0286224 0.00642208 0.0266217 0.00713058 0.0243438 0.00734553 0.0204377 0.00939134 0.028774
17 2 Si 2.14433 52.0931 4.33702 2.4 1 0.142669 0.059008 0.00338875 0.0158892 0.0031917 0.00815187 0.00226261 0.0190939 0.00299398 0.019923 0.00386976 0.0277258 0.00425176 0.0228348 0.00561167 0.0239749 0.00541755 0.0205211 0.00712868 0.0284338
18 3 O -1.17921 52.0786 4.40089 -1.2 1 0.138423 0.0595204 0.0022836 0.0153447 0.00275065 0.0071377 0.0020924 0.0191991 0.00410403 0.019866 0.00308318 0.0278176 0.00399667 0.0234665 0.00509399 0.024225 0.00546228 0.020839 0.00733908 0.0293182
19 3 O 2.42594 48.4669 2.84363 -1.2 1 0.219376 0.0838721 0.0131407 0.0254908 0.00304768 0.0131622 0.00401089 0.0209409 0.0075083 0.0250748 0.00592298 0.0291141 0.00726356 0.0275791 0.00888642 0.0246787 0.00871038 0.0207032 0.0107915 0.0288299
20 3 O 1.52536 51.2672 3.02348 -1.2 1 0.149662 0.0634591 0.0029551 0.0159803 0.00217248 0.0072858 0.00221956 0.0191303 0.00387906 0.0203862 0.00345169 0.0275624 0.00488425 0.0238425 0.00566265 0.0238779 0.00592679 0.0196097 0.00782409 0.0279511
21 1 Mg -0.0220352 52.7561 -0.193056 1.2 1 0.11587 0.0519904 0.0027379 0.0131419 0.00146431 0.0067833 0.00310253 0.017559 0.00346254 0.0175261 0.00485395 0.025671 0.00449629 0.0207059 0.00515788 0.0227864 0.00422302 0.0171527 0.00626384 0.0274638
22 3 O 1.14048 51.1263 5.58256 -1.2 1 0.154982 0.0632989 0.00549201 0.0177757 0.00311393 0.00841071 0.00240262 0.0191822 0.00334642 0.0213953 0.00375479 0.027707 0.00510256 0.0243323 0.00539203 0.0245003 0.0052834 0.0209543 0.00745762 0.0286731
23 1 Mg 0.260897 56.1813 1.12304 1.2 1 0.0470076 0.0283354 0.00837417 0.00775944 0.00161539 0.00550839 0.00171474 0.0188312 0.00424433 0.0136999 0.0031431 0.0263458 0.00343737 0.0188834 0.00544103 0.0249425 0.00488366 0.0206539 0.00571442 0.0322524
24 2 Si -2.23555 53.9904 1.18764 2.4 1 0.101812 0.0466167 0.0030269 0.0118245 0.00185224 0.00650317 0.00273568 0.0176643 0.00351301 0.0163373 0.00436886 0.0260284 0.00388115 0.0199179 0.00422535 0.0228189 0.0046489 0.0179858 0.00640958 0.0289011
25 3 O 1.05198 53.8226 1.25678 -1.2 1 0.100126 0.0464558 0.00426923 0.0115333 0.00167572 0.00642832 0.00306293 0.0173032 0.00336163 0.0157857 0.00468934 0.0266416 0.00412891 0.0194648 0.00540961 0.0235694 0.00417143 0.0178104 0.00629166 0.0284014
26 3 O -0.721288 58.1281 1.16425 -1.2 1 0.0220141 0.0160444 0.00730458 0.00742185 0.00132942 0.0053754 0.00184944 0.0205627 0.00387658 0.0128894 0.00310524 0.0263353 0.00278795 0.019141 0.00488875 0.0265441 0.00565234 0.0233389 0.00519389 0.0348489
27 3 O -1.35705 55.0131 0.251593 -1.2 1 0.0747674 0.0379766 0.00541866 0.00926117 0.00201846 0.00579192 0.00259987 0.017981 0.00296444 0.0150017 0.00360527 0.0255452 0.00364078 0.0193753 0.00495515 0.0241734 0.00438533 0.0196211 0.00570123 0.0304865
28 3 O -1.68066 54.4334 2.67755 -1.2 1 0.0863963 0.0417892 0.0044171 0.0103636 0.0019523 0.00602949 0.00217029 0.0191204 0.00363256 0.0158551 0.00332104 0.0269694 0.00285212 0.0203903 0.00414512 0.0243824 0.00436382 0.0204756 0.00595536 0.0297312
29 1 Mg -2.13466 58.7978 -0.295534 1.2 1 0.0170885 0.0114184 0.00516651 0.00750408 0.0010333 0.00561579 0.0023468 0.0197242 0.00269624 0.011963 0.00205609 0.026178 0.00306931 0.0182946 0.00419658 0.0265599 0.00408339 0.0230064 0.00420124 0.0347404
30 1 Mg 2.63595 61.5928 0.979411 1.2 1 0.00848845 0.00619005 0.0013998 0.0090134 0.00142663 0.0057787 0.0016238 0.0217529 0.00195656 0.011567 0.00173466 0.0264734 0.00171853 0.0197858 0.00335314 0.0289603 0.00356187 0.0252242 0.00332794 0.0379956
31 2 Si -0.151857 59.6385 1.372 2.4 1 0.0121702 0.00821774 0.00309116 0.0092133 0.00142473 0.00530931 0.00111266 0.0201614 0.00241198 0.0115809 0.00162187 0.0254027 0.00262522 0.0196934 0.00413014 0.0279553 0.00465599 0.0241644 0.00348385 0.036289
32 3 O 1.52321 59.6353 1.35571 -1.2 1 0.012274 0.00799279 0.00269019 0.00883547 0.00157957 0.00527608 0.00128876 0.0200228 0.002862 0.0114671 0.00193601 0.0260511 0.00257855 0.0195622 0.00360175 0.0282294 0.00528275 0.0240921 0.00310196 0.0364351
33 3 O -1.38236 63.3837 1.32612 -1.2 1 0.00771976 0.00646145 0.00160995 0.00914952 0.00164386 0.00562966 0.00142276 0.0221911 0.00184329 0.0115442 0.00277546 0.0265996 0.00218468 0.0198458 0.00438667 0.0288179 0.00440998 0.026122 0.00431237 0.0394432
34 3 O -1.00539 60.362 0.13836 -1.2 1 0.0108962 0.00698978 0.00235858 0.00853276 0.00117104 0.00562427 0.00137134 0.0203201 0.00231158 0.0111352 0.0015593 0.0252699 0.00266316 0.019623 0.00356115 0.028276 0.00366356 0.0240975 0.0036272 0.036442
35 1 Mg -2.52555 69.0537 2.76843 1.2 1 0.00421282 0.0057276 0.00137787 0.00702818 0.00156312 0.0064274 0.00135501 0.0219898 0.00163277 0.0110559 0.00178489 0.0261486 0.00278734 0.0203295 0.00377668 0.027054 0.00331395 0.0264791 0.00542946 0.0365685
36 3 O -0.787548 60.2094 2.65221 -1.2 1 0.0105344 0.00771958 0.00260525 0.00812109 0.0009924 0.00512379 0.00242733 0.0215017 0.00243318 0.0118916 0.00247061 0.0258769 0.00313544 0.0205391 0.00367473 0.0287212 0.00490265 0.0250593 0.00321894 0.036783
37 1 Mg -2.18039 66.1164 4.20786 1.2 1 0.00631587 0.00656962 0.00104777 0.00767539 0.00112994 0.00558236 0.00209072 0.0219264 0.00295252 0.0112828 0.00397672 0.0263625 0.00310664 0.0211994 0.0057849 0.0272688 0.00500835 0.0257743 0.00595725 0.0374637
38 2 Si 0.354226 68.0505 4.32989 2.4 1 0.00489657 0.00597506 0.00133372 0.00805989 0.00201316 0.00536186 0.00227607 0.0211542 0.00186633 0.0110462 0.00352136 0.0253466 0.00356828 0.0216703 0.00592393 0.0268051 0.00458019 0.0256906 0.00647372 0.036903
39 3 O -1.26715 68.1981 4.20148 -1.2 1 0.00488677 0.00593602 0.00154597 0.00751985 0.00194212 0.00563741 0.00179862 0.0219533 0.00302873 0.0109228 0.00276851 0.0255888 0.00348835 0.0208851 0.00568261 0.0271166 0.00460641 0.0260823 0.00675216 0.0368616
40 3 O 1.48137 64.1841 4.21447 -1.2 1 0.0063654 0.00655643 0.0012149 0.0082756 0.00160481 0.00597589 0.0025975 0.0229584 0.00149553 0.0118529 0.00295762 0.0262597 0.00267434 0.021308 0.00523455 0.0277961 0.00507283 0.0256126 0.00619129 0.0384265
41 3 O 0.998067 67.5435 2.77271 -1.2 1 0.00561826 0.00647571 0.00146806 0.00684614 0.00209156 0.00565016 0.00176705 0.0222576 0.00187076 0.0105485 0.00281052 0.0254303 0.00332792 0.0215434 0.0048416 0.0276939 0.00389178 0.0268082 0.0059739 0.0382544
42 3 O 1.11895 67.3887 5.43624 -1.2 1 0.00564383 0.00646118 0.00136528 0.00779102 0.0021593 0.00578218 0.00292697 0.0218956 0.00201109 0.0113974 0.00323048 0.0250266 0.003296 0.0222126 0.00516179 0.027594 0.00499762 0.0260849 0.00634286 0.0361714
43 1 Mg -0.111018 63.976 2.87181 1.2 1 0.00675084 0.00636587 0.00110315 0.00832015 0.00112696 0.00616262 0.00231705 0.0224655 0.00137001 0.0116546 0.00258576 0.0265817 0.00191126 0.0205039 0.00424143 0.0285052 0.00421936 0.0264557 0.0048032 0.0385097
44 1 Mg 0.112257 60.8844 4.34743 1.2 1 0.0078841 0.00745753 0.00151635 0.00788673 0.00148804 0.0059244 0.00179133 0.0225163 0.00162215 0.0133201 0.00263338 0.0262961 0.00329454 0.0207742 0.00398038 0.0289079 0.00516747 0.0260013 0.00414756 0.0361889
45 2 Si 2.04699 62.7087 4.10861 2.4 1 0.00709401 0.00571145 0.00108483 0.00886342 0.0019221 0.00522483 0.00290585 0.0219864 0.00128264 0.0114719 0.00304538 0.0252 0.00249957 0.0209501 0.00492638 0.0287932 0.00466544 0.026195 0.00469647 0.0382243
46 3 O -1.12927 62.7636 4.18225 -1.2 1 0.00692262 0.00537262 0.00113605 0.00905958 0.00182892 0.0056827 0.00234842 0.021139 0.00219455 0.0113784 0.00318626 0.0256453 0.00307017 0.0206093 0.0052378 0.0285125 0.00537836 0.0254678 0.00526981 0.0376097
47 3 O 0.896848 58.7432 4.15636 -1.2 1 0.0152177 0.013426 0.00492522 0.00861995 0.00170868 0.00543749 0.00240121 0.0212027 0.00306578 0.0133462 0.00254212 0.0264204 0.00304364 0.0203607 0.00498321 0.0278163 0.00593825 0.0250782 0.00507165 0.0357866
48 3 O 1.56729 61.7972 2.97095 -1.2 1 0.00769808 0.00587781 0.00128407 0.00827202 0.00136625 0.00568597 0.00230747 0.0219386 0.00129986 0.0116239 0.00224368 0.0258885 0.00208681 0.021266 0.00401333 0.0296021 0.00438096 0.0259755 0.0040982 0.0381643
49 1 Mg -0.0635753 63.8111 -0.276983 1.2 1 0.00672436 0.00657294 0.00158262 0.00854514 0.00188269 0.00598769 0.00143882 0.0214499 0.00154796 0.01076 0.00148368 0.0273055 0.00174151 0.0193688 0.00354964 0.0290832 0.00394847 0.0260568 0.00403178 0.0403262
50 3 O 1.44374 62.0524 5.39421 -1.2 1 0.00655393 0.00565194 0.00102728 0.0086736 0.0017629 0.00585783 0.00275548 0.021863 0.00136412 0.0126318 0.00263279 0.0256959 0.00265874 0.0213304 0.00479409 0.028757 0.00463498 0.0254549 0.00451047 0.0363848
51 1 Mg 0.0514431 66.8175 1.2468 1.2 1 0.00536675 0.00698917 0.0017765 0.00703514 0.00100279 0.00598735 0.00169923 0.0222665 0.00252982 0.0105623 0.00268152 0.0268009 0.00273878 0.0208465 0.00423188 0.0286112 0.00361198 0.0269078 0.00531313 0.0394701
52 2 Si -2.09383 64.9226 1.32001 2.4 1 0.00713657 0.0067466 0.0011741 0.00847215 0.00188757 0.00570427 0.00224678 0.0214948 0.00193139 0.0105198 0.00288499 0.0258482 0.0030899 0.0205222 0.00482356 0.0286097 0.00406952 0.026503 0.00494111 0.039628
53 3 O 1.15183 64.8998 1.34079 -1.2 1 0.0066536 0.0069958 0.00159667 0.00810387 0.00196306 0.00529811 0.00197505 0.0208803 0.00291266 0.0104098 0.00243788 0.0263218 0.00247877 0.0200507 0.00423599 0.0289197 0.00374694 0.0262274 0.0044095 0.0401465
54 3 O -1.08416 68.491 1.20209 -1.2 1 0.00476768 0.00597416 0.001644 0.00728271 0.0011684 0.00612484 0.00141344 0.0220903 0.00181468 0.0101662 0.00209585 0.0263857 0.00268864 0.0205572 0.00341401 0.0281146 0.00261857 0.0267916 0.00475169 0.0386662
55 3 O -1.37428 65.3315 0.010743 -1.2 1 0.00619459 0.00700784 0.00192341 0.00786344 0.00210433 0.00568391 0.00139226 0.0219382 0.00172772 0.00998623 0.00152237 0.0265101 0.00247237 0.0204299 0.00353693 0.02957 0.0040297 0.0274392 0.00432349 0.0414273
56 3 O -1.36556 65.6168 2.44441 -1.2 1 0.0068963 0.00667239 0.0012204 0.00772209 0.00135952 0.00569551 0.00293035 0.0221572 0.00194081 0.0106385 0.00305649 0.0252161 0.00289459 0.0215242 0.00452795 0.0285872 0.00408941 0.0270508 0.00518951 0.0387683
57 1 Mg -2.50955 68.9937 -0.239328 1.2 1 0.00334613 0.00515325 0.00164406 0.00753383 0.00122526 0.00684634 0.0016483 0.0218097 0.00156834 0.010064 0.00199179 0.0277785 0.00262943 0.0196578 0.0030224 0.0288112 0.00247544 0.0269426 0.00409334 0.0391964
58 1 Mg 2.24091 72.028 1.5308 1.2 1 0.00397173 0.00509217 0.00111969 0.00753654 0.00139673 0.00620891 0.000938424 0.0214893 0.00172567 0.0105244 0.00221559 0.0261635 0.00290225 0.0203443 0.00388338 0.0277194 0.0035333 0.0263329 0.00417196 0.0357034
59 2 Si -0.401416 70.0689 1.26141 2.4 1 0.00453253 0.00475578 0.00152818 0.00844209 0.00104508 0.00604768 0.00123116 0.0210387 0.00191393 0.010075 0.00256919 0.0254803 0.00221406 0.0207469 0.00432186 0.0275602 0.00338783 0.0261312 0.00498087 0.0386822
60 3 O 1.10589 70.0356 1.26258 -1.2 1 0.00368718 0.00492571 0.00109392 0.0079694 0.00092552 0.00600866 0.00115331 0.0213216 0.00208464 0.0102672 0.00157372 0.0264384 0.00251282 0.0198853 0.00341869 0.028041 0.00358111 0.0265385 0.00463962 0.0382233
61 3 O -1.43512 74.2088 1.62839 -1.2 1 0.00315755 0.00398335 0.000974287 0.00781069 0.00130941 0.00637101 0.00140939 0.0209169 0.00196775 0.0105188 0.00241739 0.026058 0.00313998 0.0194491 0.00519743 0.0267576 0.00405135 0.0252997 0.00329257 0.0353308
62 3 O -1.13025 70.7453 -0.021208 -1.2 1 0.00337508 0.00518976 0.00159049 0.00720878 0.000903785 0.00602265 0.00132695 0.0222586 0.00200552 0.010332 0.00224493 0.026507 0.00311479 0.0210672 0.00361193 0.0290762 0.00313268 0.0269432 0.00407853 0.0389308
63 1 Mg -2.43671 79.8764 3.16729 1.2 1 0.00276567 0.00351838 0.000970891 0.00907704 0.000870862 0.00575827 0.000995936 0.0205075 0.00132842 0.0115691 0.00191487 0.0262137 0.00180955 0.0205419 0.00291407 0.0262156 0.00297007 0.0249282 0.0034496 0.0331147
64 3 O -1.27641 70.6669 2.46265 -1.2 1 0.00356142 0.00508483 0.00146102 0.00765616 0.00124845 0.00607178 0.00275744 0.0212254 0.00201116 0.0109632 0.00214862 0.0250692 0.00232421 0.0209095 0.00323924 0.0273946 0.00338416 0.0262996 0.00451029 0.0361187
65 1 Mg -2.75214 76.6581 4.67612 1.2 1 0.00428994 0.00503997 0.00116233 0.00818128 0.00206578 0.00559415 0.00114108 0.0212531 0.00208134 0.0117706 0.00202738 0.0251016 0.0026327 0.0206248 0.00441776 0.0258497 0.00560949 0.0242535 0.00447268 0.0328487
66 2 Si 0.308243 78.7927 4.57055 2.4 1 0.00273367 0.00381136 0.000824358 0.0100244 0.00230837 0.00530805 0.00140186 0.0196492 0.00205319 0.0111014 0.00231834 0.0253056 0.00286822 0.0212179 0.00369471 0.0253682 0.00355623 0.0244846 0.00336149 0.0333854
67 3 O -1.19445 79.0651 4.79551 -1.2 1 0.00316421 0.00341073 0.00103853 0.00939492 0.00174856 0.00530264 0.00129589 0.0203288 0.00234748 0.0111525 0.00189194 0.0260985 0.00239871 0.0207014 0.00359781 0.0257971 0.00342762 0.0240448 0.00314568 0.0334157
68 3 O 1.3571 74.8291 4.24922 -1.2 1 0.00412105 0.00548909 0.00126344 0.00819948 0.00188411 0.00585974 0.00128871 0.0208771 0.00152621 0.0111152 0.00236825 0.024576 0.00283968 0.0207166 0.00368767 0.0251888 0.00478853 0.0249699 0.00439622 0.0325779
69 3 O 0.879085 78.2483 3.2739 -1.2 1 0.00320791 0.00361592 0.000749306 0.00894653 0.00280536 0.00579236 0.00159235 0.0204866 0.00200941 0.0115166 0.00202029 0.0253983 0.00282481 0.0210547 0.00298153 0.0256863 0.00352557 0.0245056 0.00394164 0.0333455
70 3 O 0.956918 78.0712 5.78078 -1.2 1 0.00441195 0.004459 0.00113101 0.00903653 0.00228094 0.00525009 0.00150864 0.020867 0.0018346 0.0108572 0.00175802 0.0248183 0.00303688 0.021177 0.00357807 0.0259952 0.00422842 0.0250837 0.00337576 0.0332356
71 1 Mg 0.0732627 74.2092 2.71525 1.2 1 0.00339989 0.00478089 0.000814181 0.00758111 0.0017309 0.00627539 0.0013362 0.0205347 0.00236542 0.0108588 0.00253679 0.0255264 0.00270777 0.0195255 0.00323653 0.0259745 0.00389302 0.0250642 0.00380835 0.0336151
72 1 Mg -0.299712 71.5319 4.10253 1.2 1 0.00261696 0.00563633 0.00105509 0.00751826 0.00155493 0.00610315 0.00114296 0.0210663 0.00235363 0.0112001 0.00261641 0.0243848 0.00310412 0.0212974 0.00386421 0.0263925 0.00401373 0.0264987 0.00454951 0.0336925
73 2 Si 2.11248 73.4232 4.55341 2.4 1 0.00362304 0.00522945 0.00120339 0.00819978 0.00263435 0.00580654 0.00153644 0.0199969 0.00212491 0.0107013 0.00211002 0.0230868 0.00294407 0.0207821 0.00392979 0.0254735 0.00364291 0.025242 0.00403436 0.0333248
74 3 O -1.14968 73.3572 4.45255 -1.2 1 0.0035365 0.00512551 0.00117172 0.00800962 0.00205321 0.00559945 0.0012949 0.0203241 0.00229215 0.0104876 0.00161483 0.023672 0.00325937 0.0202085 0.00490196 0.0256447 0.00494527 0.0252675 0.00413372 0.0336693
75 3 O 0.8267 69.6207 4.26866 -1.2 1 0.00337077 0.00590584 0.00123332 0.00752101 0.00145231 0.00618509 0.00162186 0.0218454 0.00181554 0.0116423 0.00224792 0.0252428 0.00342911 0.0206294 0.00568255 0.0263229 0.00486014 0.0262807 0.0059766 0.0350827
76 3 O 1.3124 72.5033 3.29886 -1.2 1 0.00361452 0.00547128 0.00121299 0.00749133 0.00190247 0.00597976 0.00143595 0.0210561 0.00206556 0.0106844 0.00189107 0.0245848 0.00263278 0.0208109 0.00396622 0.0263405 0.00328921 0.0254012 0.00420709 0.033738
77 1 Mg -0.123868 74.581 -0.000818187 1.2 1 0.00352288 0.00341263 0.000773075 0.00751523 0.00167887 0.00625672 0.00131395 0.0216415 0.00166384 0.0109619 0.00158312 0.0270942 0.00218964 0.0192754 0.00376868 0.0274891 0.00352888 0.0252825 0.00264325 0.0362381
78 3 O 1.34326 72.9642 5.86194 -1.2 1 0.00225663 0.00583445 0.00157066 0.00748508 0.00278988 0.00581857 0.0018501 0.0214744 0.00260782 0.0115855 0.00187718 0.0236928 0.00299281 0.021367 0.00337121 0.0255445 0.0042427 0.0256502 0.00420387 0.0331744
79 1 Mg 0.254238 77.5511 1.53458 1.2 1 0.00314513 0.00358007 0.00123275 0.00834389 0.00159449 0.00611367 0.00136338 0.0207101 0.00228247 0.0120171 0.00208436 0.0263594 0.00295108 0.0204015 0.00339721 0.026461 0.00341478 0.0250145 0.00362145 0.0336761
80 2 Si -2.10099 75.652 1.59207 2.4 1 0.00373233 0.00339871 0.00132521 0.00800341 0.00184859 0.00571977 0.00218514 0.0206151 0.00188506 0.010308 0.00226577 0.0257328 0.00328145 0.0197914 0.00469015 0.026303 0.00433845 0.0248562 0.00319266 0.0349009
81 3 O 1.06075 75.3525 1.62824 -1.2 1 0.00344209 0.00346661 0.00110759 0.00805435 0.00175609 0.00563376 0.00106916 0.0205961 0.00224522 0.0105653 0.0023152 0.025807 0.00239086 0.0197193 0.00323742 0.0265392 0.00317961 0.0247851 0.00328053 0.0351919
82 3 O -0.877215 79.4314 1.26165 -1.2 1 0.00368567 0.00418831 0.00102807 0.00862939 0.00121921 0.00641956 0.00148498 0.0206859 0.00125251 0.0122747 0.0020355 0.0266095 0.00235523 0.0202929 0.00276771 0.0257471 0.0036512 0.0244635 0.00389731 0.0330227
83 3 O -1.55076 76.2003 0.191372 -1.2 1 0.00289081 0.00286384 0.00084463 0.00791882 0.00152848 0.00600907 0.0019725 0.0208128 0.00120233 0.0106336 0.0017384 0.0262546 0.00254152 0.0197364 0.00326301 0.0272814 0.00311602 0.0248449 0.00305573 0.0349087
84 3 O -1.63833 76.579 2.84385 -1.2 1 0.00384233 0.00375689 0.000883326 0.00793047 0.00151466 0.00595393 0.00149905 0.0205903 0.00151047 0.0107052 0.00181029 0.0255928 0.00361187 0.0206212 0.00428661 0.0263634 0.00421486 0.0243173 0.0031931 0.0340056
85 1 Mg -2.26924 79.8289 -0.187676 1.2 1 0.00438151 0.00413944 0.000897528 0.00845267 0.00146047 0.00644786 0.00164191 0.0201727 0.00201417 0.0121143 0.0021376 0.026846 0.002327 0.0199147 0.0028599 0.0267943 0.00344448 0.0244922 0.00399536 0.0333941
86 1 Mg 2.46031 82.9997 1.32755 1.2 1 0.00646473 0.0048332 0.00101568 0.00894507 0.0013141 0.00632985 0.00117479 0.0204084 0.00163036 0.0122823 0.00212591 0.0266561 0.00254306 0.020041 0.0032292 0.0260247 0.00438847 0.0246003 0.00411305 0.0332266
87 2 Si -0.302401 80.8391 1.3263 2.4 1 0.00524709 0.00379197 0.000944127 0.00950533 0.00206747 0.00567921 0.00197159 0.0198794 0.00180122 0.0112566 0.00218349 0.0261113 0.00244012 0.0204901 0.00328081 0.0259807 0.00405447 0.0240134 0.00404591 0.0333812
88 3 O 1.32099 80.7113 1.29353 -1.2 1 0.00517581 0.00386448 0.00097301 0.00935476 0.00159502 0.00566813 0.00165387 0.0194767 0.00145641 0.01143 0.00229372 0.0262527 0.00225672 0.0203448 0.00352162 0.0257443 0.00399443 0.0241091 0.00464237 0.0335318
89 3 O -1.48384 84.82 1.69366 -1.2 1 0.0067673 0.00502 0.00107161 0.00926117 0.00169066 0.0062616 0.00095593 0.0206876 0.00174379 0.0116216 0.0024091 0.0263793 0.00284283 0.0197725 0.00420163 0.0251003 0.00352585 0.0250791 0.0046742 0.0348159
90 3 O -1.03062 81.5831 0.138791 -1.2 1 0.00560849 0.00465571 0.000990909 0.00869821 0.00170808 0.00605614 0.00141499 0.0207006 0.00135745 0.0114218 0.00231095 0.0260348 0.00287158 0.0211646 0.00327093 0.0270739 0.00400679 0.0250224 0.00483287 0.0342275
91 1 Mg -2.41851 90.632 2.94583 1.2 1 0.00335246 0.00691436 0.000602289 0.00840059 0.0017627 0.00715211 0.0012139 0.0212423 0.0018519 0.0109325 0.00177853 0.0271553 0.00270282 0.0189531 0.0043072 0.0244862 0.00350198 0.0259765 0.00489769 0.0378246
92 3 O -0.817146 81.4785 2.8053 -1.2 1 0.00466484 0.00350755 0.00111784 0.00907505 0.00160954 0.00634713 0.00204051 0.0205093 0.00195274 0.0114643 0.00219939 0.0261118 0.00262653 0.0210785 0.00274711 0.0260038 0.00374339 0.0246509 0.00368694 0.0331822
93 1 Mg -2.57076 87.5921 4.50915 1.2 1 0.00464863 0.00662479 0.00107339 0.00869277 0.00122061 0.00680057 0.00194372 0.0211336 0.00163701 0.0121921 0.00230832 0.0263798 0.00291182 0.0202982 0.00484848 0.0253343 0.00377939 0.0268374 0.00382475 0.0356845
94 2 Si 0.214813 89.4554 4.66586 2.4 1 0.00442062 0.00612722 0.00069992 0.00925075 0.00138775 0.00673459 0.00239806 0.0205218 0.00178275 0.0107924 0.00245591 0.0256552 0.0027891 0.0197822 0.00591123 0.0241034 0.00429742 0.0256822 0.00439108 0.0375066
95 3 O -1.36489 89.4772 4.56099 -1.2 1 0.00382359 0.00595629 0.000601809 0.00912151 0.00130166 0.00676409 0.00204155 0.0205033 0.00174668 0.011141 0.00198202 0.0263122 0.00226915 0.0193822 0.00379072 0.0247997 0.00295135 0.0260591 0.00348292 0.0364341
96 3 O 1.62716 85.707 4.29757 -1.2 1 0.00401393 0.00572773 0.00129108 0.00891556 0.00132689 0.006571 0.0014433 0.0213752 0.00116167 0.0120077 0.00242863 0.0267928 0.00258063 0.0200487 0.00401758 0.0244925 0.00376203 0.0262722 0.00355637 0.035988
97 3 O 0.79438 88.7086 3.49147 -1.2 1 0.00487444 0.00638021 0.000748349 0.00872853 0.00135509 0.00662912 0.00229466 0.0205972 0.00175573 0.0110694 0.00230677 0.0257634 0.00299509 0.0200022 0.00547054 0.0246786 0.00460653 0.0262485 0.0053461 0.0364187
98 3 O 0.840185 88.8099 5.89404 -1.2 1 0.0041736 0.00676042 0.000452768 0.00864424 0.000974776 0.00681877 0.00213854 0.0215381 0.00166215 0.0110051 0.00165669 0.0257374 0.00262663 0.0206905 0.00459017 0.0248621 0.00327002 0.0263553 0.00355104 0.0361929
99 1 Mg 0.0484853 84.7435 2.83221 1.2 1 0.00579337 0.00518999 0.00127492 0.00899571 0.00148523 0.00677124 0.00188531 0.0204026 0.00243727 0.0119636 0.00254819 0.0269688 0.00251867 0.0197006 0.0046003 0.0251057 0.00417111 0.025161 0.00486594 0.0342673
100 1 Mg -0.107743 82.0954 4.79723 1.2 1 0.00189756 0.00360282 0.00117467 0.00930785 0.000937571 0.00589105 0.00140504 0.0205576 0.0019063 0.0117774 0.00202614 0.0267516 0.00209119 0.0207398 0.00300465 0.0258583 0.00324367 0.0251609 0.00297654 0.0339333
101 2 Si 2.27577 84.0673 4.55497 2.4 1 0.00452139 0.00406503 0.00121427 0.00967615 0.00133418 0.00568688 0.00199944 0.0201821 0.00204358 0.0105749 0.00194052 0.0263495 0.00195049 0.0206019 0.00434148 0.025601 0.00429671 0.0256086 0.00433453 0.0350964
102 3 O -0.898477 84.0013 4.66506 -1.2 1 0.00330006 0.00349001 0.00131782 0.00981997 0.000853176 0.00550685 0.00176911 0.0195105 0.00205242 0.0105932 0.00192513 0.0261446 0.00230125 0.020169 0.00278469 0.0248403 0.00321004 0.0246951 0.00309324 0.0348908
103 3 O 1.18528 80.3639 4.70884 -1.2 1 0.00209937 0.0035563 0.000950002 0.00927831 0.00107796 0.0060005 0.000984378 0.0212131 0.0020275 0.0117473 0.00202902 0.0261237 0.00251921 0.0207758 0.00374732 0.0253993 0.00302694 0.0247721 0.00296503 0.0339777
104 3 O 1.36885 83.3489 3.21525 -1.2 1 0.00532233 0.0042041 0.00131437 0.00908517 0.00132308 0.00634594 0.00175864 0.0204747 0.00237051 0.0113016 0.00227624 0.0264663 0.00232629 0.0209981 0.00337025 0.0258152 0.00365014 0.0249856 0.00355796 0.0341852
105 1 Mg 0.117807 85.2576 0.0228429 1.2 1 0.00608147 0.0054976 0.00107401 0.00851638 0.001314 0.00642285 0.00103198 0.0207028 0.00107536 0.0122857 0.00206446 0.02645 0.0027603 0.0189259 0.00281924 0.0255958 0.00345463 0.0253505 0.00352205 0.034998
106 3 O 1.54361 83.6194 5.87879 -1.2 1 0.00164686 0.00431409 0.00134907 0.00925885 0.00127923 0.00600963 0.00194647 0.0211691 0.00237676 0.010929 0.00216546 0.0258635 0.00293378 0.0213379 0.00316106 0.0254486 0.00286259 0.02539 0.0026961 0.0347471
107 1 Mg -0.100762 88.3889 1.66609 1.2 1 0.00429212 0.00626628 0.000820929 0.00839253 0.00170618 0.00699863 0.0013191 0.0211065 0.00231692 0.0121197 0.00238701 0.0265112 0.00218257 0.0192914 0.00414794 0.0245434 0.00453159 0.025854 0.00407466 0.0370184
108 2 Si -2.0803 86.4384 1.54699 2.4 1 0.00613664 0.00566284 0.00117653 0.00896407 0.00299188 0.00597426 0.00205157 0.019631 0.00246839 0.011461 0.00277865 0.0258445 0.0035262 0.0195188 0.00404727 0.0250327 0.0040338 0.0248502 0.00395174 0.0351385
109 3 O 1.06651 86.1983 1.43781 -1.2 1 0.00595233 0.00508055 0.00110696 0.00889062 0.00279047 0.00627731 0.0015516 0.0198485 0.00265519 0.0113139 0.00249594 0.0259439 0.00277227 0.0195162 0.00389805 0.0252269 0.00472683 0.024941 0.00520844 0.0354777
110 3 O -1.13072 90.0305 1.55638 -1.2 1 0.00286027 0.00680262 0.00101054 0.00835499 0.00162018 0.00664115 0.00153986 0.0210356 0.00185229 0.0108459 0.00185249 0.0264781 0.00256197 0.0185197 0.00460336 0.0245407 0.00395331 0.0257412 0.00492725 0.0383409
111 3 O -1.37989 86.877 0.137491 -1.2 1 0.00511688 0.00552408 0.00133202 0.00847943 0.00257725 0.00603079 0.00212481 0.0203507 0.00229455 0.0115366 0.0026118 0.0256168 0.00323973 0.0190634 0.00356842 0.0256242 0.00360979 0.0253539 0.00434365 0.0366326
112 3 O -1.5679 87.189 2.77197 -1.2 1 0.00572218 0.00608682 0.000986089 0.00812531 0.00187947 0.00663232 0.00125995 0.020785 0.00241748 0.0112867 0.00204306 0.0256478 0.00275322 0.020567 0.0043736 0.0250856 0.00481176 0.0258656 0.00482466 0.035799
113 1 Mg -2.41277 90.8789 -0.0686904 1.2 1 0.0018787 0.00705629 0.000745523 0.00790827 0.00171473 0.00685401 0.0019609 0.0211026 0.0018612 0.0106172 0.00212229 0.0270948 0.00271398 0.0174562 0.00346999 0.0252271 0.00384557 0.0258358 0.00409282 0.0389486
114 1 Mg 2.13903 93.7608 1.40555 1.2 1 0.00123334 0.00716217 0.00132813 0.00798092 0.0013257 0.00697569 0.00198956 0.0218453 0.00199619 0.0102628 0.00214486 0.027199 0.0033137 0.0184033 0.00438741 0.0262013 0.00467211 0.0263465 0.00507377 0.0405899
115 2 Si -0.386712 91.4297 1.65818 2.4 1 0.00185993 0.00709881 0.00120948 0.00890863 0.00247843 0.00635036 0.0014802 0.0208758 0.00252405 0.00989822 0.00237968 0.0258591 0.00312916 0.0187791 0.00442708 0.0243884 0.00403126 0.0252947 0.00525638 0.0396465
116 3 O 1.19483 91.4415 1.48929 -1.2 1 0.00241633 0.00682968 0.000900615 0.00830267 0.00249514 0.00618161 0.00173048 0.0204825 0.00249261 0.00944962 0.00189932 0.0261831 0.00290789 0.0183841 0.0042971 0.0249599 0.00388541 0.0251962 0.00482513 0.0393175
117 3 O -1.14009 95.3116 1.39407 -1.2 1 0.00101935 0.00545007 0.0017288 0.00809645 0.00121191 0.00691972 0.00162519 0.021679 0.00151345 0.00997517 0.00211019 0.0269816 0.00354648 0.0186424 0.0044959 0.0270091 0.00413788 0.0250576 0.00555326 0.0407459
118 3 O -1.0282 92.3363 0.399385 -1.2 1 0.00140034 0.00724238 0.00111695 0.00775107 0.00162559 0.00677256 0.00209161 0.0218318 0.00268141 0.00984526 0.00232785 0.0262796 0.00275526 0.0183423 0.00380561 0.0257284 0.00400445 0.025771 0.00463997 0.0403623
119 1 Mg -1.98478 101.399 2.91819 1.2 1 0.0029373 0.00565849 0.0013652 0.00845714 0.0017291 0.00567058 0.00210258 0.0220331 0.00156494 0.00984045 0.00189132 0.025885 0.00279995 0.0188043 0.00317734 0.0282938 0.00387209 0.0257782 0.00403776 0.0404865