ITEM: TIMESTEP
46000
ITEM: NUMBER OF ATOMS
5600
ITEM: BOX BOUNDS xy xz yz pp pp pp
0	7.1235	0
0	201.985	2.3745
0	119.584	0
ITEM: ATOMS id type element xu yu zu q Q_1 Q_2 Q_3 Q_4 Q_5 Q_6 Q_7 Q_8 Q_9 Q_10 Q_11 Q_12 Q_13 Q_14 Q_15 Q_16 Q_17 Q_18 Q_19 Q_20 Q_21
1 1 Mg -1.63731 48.5808 -1.23684 1.2 1 0.229205 0.0799872 0.018108 0.0239866 0.00569286 0.0138334 0.00297279 0.0174378 0.00487174 0.0210876 0.00648965 0.0240391 0.00928212 0.0227729 0.00782253 0.0218954 0.0085478 0.0201848 0.00953074 0.0271416
2 1 Mg 3.13041 49.9938 2.06039 1.2 1 0.190441 0.0698982 0.0105403 0.0192888 0.00234293 0.0111798 0.00275633 0.0156235 0.004245 0.0210302 0.00358422 0.0214858 0.00469914 0.0211368 0.00649696 0.0216692 0.00664103 0.0171598 0.00931261 0.0252913
3 2 Si 0.90452 50.2442 0.228008 2.4 1 0.191566 0.0717263 0.0115462 0.0199331 0.0039098 0.011038 0.00300386 0.0170781 0.00461044 0.0216165 0.00549654 0.0223657 0.0065059 0.0224403 0.0060095 0.0212399 0.00673995 0.0175831 0.00876512 0.0269212
4 3 O 2.12772 49.2915 0.224841 -1.2 1 0.211224 0.074745 0.0152997 0.0216279 0.00495023 0.0118586 0.00316209 0.0171176 0.0053421 0.0216059 0.00522086 0.0221294 0.0074482 0.0229422 0.00833014 0.0225137 0.00814229 0.0186729 0.00897787 0.0263887
5 3 O -1.06919 53.0667 1.56216 -1.2 1 0.120754 0.0495463 0.0017148 0.0122458 0.0017276 0.00894326 0.00206409 0.015207 0.00344794 0.0166683 0.0034973 0.0221602 0.00436262 0.0187533 0.0050124 0.0231397 0.0048409 0.0169442 0.00759034 0.0287768
6 3 O -0.0101574 49.5684 -0.87683 -1.2 1 0.205374 0.074689 0.0141286 0.0215528 0.00467346 0.0126729 0.00357506 0.016568 0.00416822 0.0207398 0.00535061 0.0223569 0.00760085 0.0215037 0.0061557 0.0213811 0.00744542 0.017934 0.00920866 0.0274364
7 1 Mg -2.42324 58.7226 2.81072 1.2 1 0.0164172 0.0126082 0.00498117 0.00638698 0.00117458 0.00706631 0.00204934 0.0186853 0.00337665 0.0112111 0.0029058 0.026003 0.00276673 0.0185401 0.00499089 0.0292092 0.00522768 0.0211279 0.0063668 0.0379313
8 3 O 0.176889 50.1631 1.6292 -1.2 1 0.190468 0.0706564 0.0108891 0.0192343 0.00301718 0.0106651 0.00177084 0.0166939 0.00449621 0.0211467 0.0047751 0.02177 0.00486992 0.0221745 0.00675511 0.0219724 0.00694723 0.0179257 0.00861778 0.0254863
9 1 Mg -2.12789 56.2616 4.31086 1.2 1 0.0632512 0.0315033 0.00427271 0.00755839 0.0018128 0.00705072 0.00259464 0.016794 0.00205694 0.0145908 0.00256128 0.0229664 0.00281142 0.0183735 0.00460887 0.0258415 0.004424 0.0188816 0.00649165 0.0310513
10 2 Si 0.310567 57.9599 4.47909 2.4 1 0.0258685 0.0171257 0.00626424 0.00654565 0.00129689 0.00693969 0.00284797 0.0187331 0.00349929 0.0112045 0.00302777 0.023859 0.00336258 0.01898 0.00644191 0.0278764 0.0056711 0.021737 0.00628832 0.0364455
11 3 O -1.20515 58.1431 4.42642 -1.2 1 0.0230543 0.0161879 0.00627472 0.00602916 0.00118894 0.0069052 0.00251271 0.0190149 0.00268564 0.0113057 0.0026584 0.025425 0.00316151 0.0192009 0.00514389 0.0286401 0.00511066 0.0211442 0.00571011 0.0370523
12 3 O 1.88114 53.4093 4.6085 -1.2 1 0.12403 0.0496585 0.0021042 0.0121168 0.00192774 0.00869387 0.00311852 0.0162677 0.00219544 0.0184068 0.00245064 0.0213857 0.00385292 0.0187495 0.00365774 0.0226417 0.00465652 0.0165703 0.00646676 0.0261969
13 3 O 1.02639 57.1644 3.16288 -1.2 1 0.033455 0.0218278 0.00638778 0.00634109 0.00165132 0.00637098 0.00243515 0.0184953 0.00285307 0.0124637 0.00299443 0.0244359 0.00328119 0.0187288 0.0055716 0.0275023 0.00518051 0.0203894 0.00716408 0.0353187
14 3 O 0.999135 57.189 5.69373 -1.2 1 0.0333989 0.020778 0.00725274 0.00611534 0.00125634 0.00673982 0.00250516 0.0185783 0.00304475 0.0116497 0.00285103 0.0233151 0.00303863 0.0187795 0.00630532 0.0277713 0.00531051 0.0211253 0.00678391 0.0346936
15 1 Mg 0.390673 52.53 2.80102 1.2 1 0.133232 0.0550832 0.000901579 0.0136851 0.00142865 0.00987577 0.00238427 0.0156198 0.00304561 0.0188517 0.00317899 0.0219189 0.00373762 0.0187307 0.00569162 0.0224649 0.00480051 0.0169687 0.0073477 0.0260926
16 1 Mg 0.955021 48.9789 3.15276 1.2 1 0.216916 0.0750419 0.0160277 0.023135 0.0037649 0.0119371 0.00277549 0.0162845 0.00444769 0.0230653 0.00458339 0.0216412 0.00594631 0.0226811 0.00719271 0.0222496 0.00745972 0.0192008 0.00801768 0.0243263
17 2 Si 2.63401 52.0697 4.48805 2.4 1 0.155512 0.0596845 0.00513124 0.0150912 0.0024369 0.00947286 0.0035409 0.0151448 0.00242356 0.0193623 0.00297573 0.0211916 0.00458618 0.0190528 0.00588928 0.0228204 0.00396713 0.016077 0.00792229 0.0247892
18 3 O -0.609693 52.0874 4.55385 -1.2 1 0.148643 0.0566811 0.00456498 0.013717 0.00231298 0.008327 0.00331793 0.0146671 0.00298595 0.0182069 0.00307877 0.0209172 0.0046393 0.0200964 0.00521514 0.0219044 0.00457038 0.0157959 0.00720581 0.0246491
19 3 O 2.64631 48.3537 3.22336 -1.2 1 0.231242 0.0795563 0.0181574 0.0257768 0.00345804 0.0137131 0.00369926 0.0155817 0.00473322 0.0236356 0.00472202 0.0223994 0.00681214 0.0223116 0.00884656 0.0210225 0.0074593 0.0196517 0.00864485 0.024256
20 3 O 2.06641 51.2116 3.18546 -1.2 1 0.162361 0.0612945 0.00583258 0.0150771 0.00235879 0.00975302 0.00309638 0.0159598 0.00256026 0.0203434 0.00315255 0.0217308 0.00491665 0.0199772 0.00625003 0.0217806 0.00448052 0.016411 0.00815251 0.025218
21 1 Mg -0.00872128 53.5979 -0.0387065 1.2 1 0.107121 0.0491489 0.00192814 0.0121222 0.00245628 0.00888823 0.00208387 0.0163767 0.00334173 0.0169375 0.00398379 0.023272 0.00445714 0.018738 0.0041124 0.0231531 0.00481384 0.0177533 0.00740082 0.0296622
22 3 O 2.12809 50.9039 5.65313 -1.2 1 0.173153 0.0639303 0.0080779 0.0162945 0.00286111 0.0102335 0.00322976 0.0160539 0.00358395 0.0211553 0.00401781 0.0216525 0.00510387 0.020856 0.00625116 0.0223646 0.00428511 0.0162199 0.00715953 0.0239598
23 1 Mg 0.10122 56.6255 1.45726 1.2 1 0.044061 0.0270009 0.00683155 0.0071266 0.00181653 0.00747558 0.00203852 0.0170141 0.00374619 0.0131527 0.00344253 0.024402 0.00366846 0.0189835 0.00614065 0.0257904 0.00571705 0.0187104 0.00735761 0.0344667
24 2 Si -1.79464 54.421 1.60383 2.4 1 0.0983518 0.0439107 0.00204184 0.0101357 0.00186264 0.00822348 0.00198421 0.015319 0.00349904 0.016258 0.0032094 0.0219344 0.00340998 0.0184211 0.00461093 0.0228886 0.00522988 0.0168495 0.00764525 0.0296167
25 3 O 1.33069 54.1677 1.56416 -1.2 1 0.103658 0.0447848 0.00125378 0.0105536 0.00165997 0.00887524 0.00208849 0.0150104 0.00301601 0.0163779 0.00349738 0.0220027 0.00389623 0.0184266 0.00497273 0.0231542 0.00432944 0.016926 0.00744816 0.0293632
26 3 O -0.96602 58.5166 1.44991 -1.2 1 0.0183266 0.0147979 0.00645959 0.00652956 0.0016742 0.00741375 0.00146815 0.0193596 0.00380097 0.010876 0.00313824 0.0256057 0.00278742 0.0196879 0.00505255 0.0293132 0.00569777 0.0220047 0.0071753 0.039028
27 3 O -1.47691 55.1396 0.169557 -1.2 1 0.0739285 0.0381626 0.00509067 0.00914117 0.0028202 0.00788722 0.00173826 0.0159241 0.00270687 0.0143069 0.00329743 0.0226366 0.00365986 0.0185122 0.00469286 0.0248757 0.00496602 0.0185953 0.00745291 0.0322165
28 3 O -1.27407 55.4253 2.73127 -1.2 1 0.076552 0.0363821 0.00330198 0.00776684 0.00190259 0.00756216 0.0020225 0.0166911 0.00329622 0.015405 0.00320851 0.0226831 0.00287191 0.0180485 0.00457179 0.0248434 0.00524276 0.0183349 0.00690053 0.0305276
29 1 Mg -2.37412 58.9498 0.120126 1.2 1 0.014239 0.0123173 0.00535776 0.00663551 0.00142125 0.00788733 0.0017777 0.0195875 0.00318453 0.0104569 0.00319465 0.0265724 0.00266158 0.018799 0.00501715 0.0298788 0.00495735 0.0237215 0.0065582 0.0408011
30 1 Mg 2.3588 61.9182 1.69175 1.2 1 0.00420414 0.00636515 0.00105257 0.00748077 0.00126133 0.00715862 0.00150854 0.0213602 0.00274151 0.00987505 0.00241423 0.0270037 0.00185041 0.0194818 0.00339036 0.0317775 0.00458328 0.0253772 0.00450839 0.0438308
31 2 Si -0.342089 59.9915 1.64026 2.4 1 0.00818381 0.00808969 0.00256368 0.00757262 0.00179458 0.006966 0.00148949 0.0196109 0.00311511 0.0103946 0.00311002 0.0262875 0.0024465 0.0199679 0.00373412 0.0308674 0.00472243 0.0234028 0.00530041 0.0413842
32 3 O 1.16073 59.6897 1.61249 -1.2 1 0.00949689 0.00890119 0.00321707 0.00724737 0.00143273 0.00730624 0.00183116 0.0197673 0.00368823 0.0100422 0.00230703 0.0262617 0.00265776 0.0191299 0.00439611 0.0309381 0.00450438 0.0233109 0.00566414 0.0419313
33 3 O -1.3222 63.5837 1.57782 -1.2 1 0.00343261 0.00558763 0.000915485 0.00795903 0.00131672 0.00691113 0.0014332 0.0217991 0.00203273 0.00995661 0.00201576 0.0278413 0.00214298 0.0188684 0.00286926 0.0327442 0.00361477 0.0260268 0.00331922 0.0450528
34 3 O -0.985232 60.6217 0.326604 -1.2 1 0.00600975 0.00742275 0.00251447 0.0068532 0.00162511 0.00711337 0.00168608 0.0209507 0.00319422 0.0100644 0.00255673 0.0268385 0.00181995 0.019477 0.00315248 0.0311632 0.00421055 0.0247106 0.0049503 0.0429596
35 1 Mg -2.17497 69.5895 2.93672 1.2 1 0.00368169 0.00443856 0.00107717 0.00726846 0.00171823 0.00675003 0.00183282 0.0225082 0.00174737 0.0103307 0.00226006 0.0276852 0.00240587 0.0198265 0.00346909 0.0331754 0.00369793 0.0263803 0.00453011 0.0453147
36 3 O -1.08207 60.5707 2.91459 -1.2 1 0.00708503 0.00763177 0.00180253 0.00677456 0.00138613 0.00704759 0.00194625 0.021077 0.00303581 0.010282 0.0027199 0.0259512 0.00226077 0.0195746 0.00382392 0.031223 0.00524174 0.0241856 0.00550822 0.0417077
37 1 Mg -2.21866 66.5444 4.31026 1.2 1 0.00421862 0.00482067 0.00109294 0.00680909 0.00169762 0.00612647 0.00210805 0.0226663 0.00197246 0.0101971 0.00250803 0.0277958 0.00372369 0.0199428 0.00528863 0.0326931 0.00495811 0.0261245 0.00479083 0.0456555
38 2 Si 0.349623 68.4501 4.50039 2.4 1 0.00374536 0.00414245 0.00109714 0.00780905 0.00205221 0.00658685 0.00193137 0.0225567 0.00199209 0.0098671 0.00355433 0.026082 0.00307905 0.0208716 0.00547821 0.031612 0.00596779 0.0260209 0.00559107 0.0468794
39 3 O -1.07879 68.6356 4.39027 -1.2 1 0.00369656 0.00394412 0.00123408 0.00720517 0.0018664 0.00640992 0.0015099 0.0227701 0.00207264 0.00998125 0.00206333 0.0269315 0.00298851 0.0199724 0.00314778 0.0324717 0.00483589 0.0262442 0.00503974 0.0462605
40 3 O 1.27233 64.7376 4.47726 -1.2 1 0.00374031 0.00548743 0.000971194 0.00725664 0.0015571 0.00654905 0.00164475 0.0226669 0.00111952 0.00939074 0.00295465 0.0280335 0.0032385 0.0186696 0.00464029 0.0317897 0.00520487 0.0252783 0.00454813 0.0451581
41 3 O 1.1519 67.6405 3.25685 -1.2 1 0.00399529 0.00449745 0.00118048 0.00677738 0.00144711 0.00649081 0.00242141 0.0228158 0.00251665 0.010118 0.00245591 0.0268105 0.0026007 0.0203414 0.00440439 0.0323433 0.00453634 0.0258595 0.00445164 0.0461837
42 3 O 0.962541 67.9537 5.81498 -1.2 1 0.00377493 0.0044888 0.00120154 0.00701421 0.00227208 0.0062343 0.00235455 0.0229541 0.00213522 0.00972908 0.00242954 0.0261342 0.00319067 0.0200453 0.00470001 0.0323032 0.0052262 0.0266769 0.00526832 0.045859
43 1 Mg -0.0758526 64.3178 3.05013 1.2 1 0.00374977 0.0054289 0.00088469 0.00737586 0.00165394 0.00705547 0.00131336 0.0220729 0.00167805 0.00972471 0.00220042 0.028265 0.00215312 0.0186607 0.00307304 0.0317056 0.00386456 0.0252985 0.003522 0.044582
44 1 Mg -0.0372793 61.3329 4.42196 1.2 1 0.00611978 0.00702631 0.00121632 0.00628895 0.00108195 0.0066352 0.00246412 0.0212253 0.00220124 0.0102357 0.002798 0.026887 0.00276723 0.019488 0.00477081 0.0318727 0.0051568 0.0241519 0.00535992 0.0423861
45 2 Si 1.92538 63.3439 4.43774 2.4 1 0.004653 0.00566437 0.000830441 0.00757693 0.00153798 0.0064439 0.00225605 0.0212737 0.00164019 0.00951823 0.00306098 0.0273738 0.00297588 0.0194324 0.00669654 0.0308499 0.00589043 0.0243288 0.00618597 0.0447137
46 3 O -1.25406 63.3014 4.47241 -1.2 1 0.0047672 0.00557368 0.000882771 0.00740288 0.00167331 0.00653463 0.00152319 0.0215126 0.00213434 0.00937269 0.00203287 0.0275022 0.00258558 0.0186046 0.00403262 0.0316094 0.00500036 0.0248095 0.0043854 0.0447697
47 3 O 1.1003 59.4403 4.61379 -1.2 1 0.0121869 0.0104836 0.00337288 0.00634219 0.000943979 0.00712534 0.00259931 0.019773 0.00249567 0.0104767 0.00287346 0.0260272 0.0024163 0.0190014 0.00548312 0.0295257 0.00518678 0.0220603 0.00527325 0.0398981
48 3 O 1.12249 62.5267 3.18956 -1.2 1 0.00469919 0.00601506 0.000931292 0.00743083 0.00171404 0.00677322 0.003 0.0219056 0.00178254 0.0101196 0.00251523 0.0264568 0.00255545 0.0194241 0.00477511 0.0328136 0.00486987 0.0257972 0.00460822 0.0443473
49 1 Mg -0.0798672 63.9612 0.120862 1.2 1 0.00229335 0.00505513 0.000998458 0.00790624 0.000855034 0.00699173 0.00159585 0.0221145 0.0015951 0.0100026 0.00148517 0.0281644 0.00174634 0.0188078 0.00257534 0.0326114 0.00265773 0.0264159 0.00298973 0.0453694
50 3 O 1.33786 62.7208 5.78688 -1.2 1 0.00560937 0.00620111 0.000802242 0.00677422 0.00201842 0.00607171 0.0029667 0.0222844 0.00158523 0.0095964 0.00286887 0.0267067 0.003197 0.0195759 0.00575638 0.0319837 0.00535099 0.0252306 0.00621422 0.0444427
51 1 Mg 0.396214 67.1315 1.63133 1.2 1 0.00370223 0.00465537 0.000870771 0.00730594 0.00118792 0.0065103 0.000884785 0.0224909 0.00179288 0.0105879 0.00224544 0.0282821 0.00235611 0.0198877 0.00312571 0.0324565 0.00346046 0.0264021 0.00403566 0.0466906
52 2 Si -1.89211 65.0656 1.40049 2.4 1 0.00319132 0.00484382 0.00115441 0.00812523 0.00222327 0.00639048 0.00199044 0.0218707 0.00222252 0.0106953 0.00232444 0.0274728 0.00218295 0.0197229 0.00344332 0.0327043 0.00317865 0.0261782 0.00326948 0.0465214
53 3 O 1.32217 64.9964 1.47644 -1.2 1 0.00330595 0.00479459 0.00117041 0.00791837 0.00145753 0.00671159 0.00151611 0.0219405 0.00228432 0.00999216 0.00186969 0.0275482 0.00238021 0.0186701 0.0031171 0.0328227 0.00314412 0.0261234 0.00378476 0.0459555
54 3 O -0.780115 68.8893 1.41818 -1.2 1 0.00367072 0.00476748 0.00122484 0.00751896 0.000977901 0.00691873 0.00127459 0.0232122 0.0014433 0.0106247 0.00210335 0.0277531 0.00264884 0.0198756 0.00430559 0.0327703 0.00322618 0.0268124 0.00407514 0.0462644
55 3 O -1.229 65.7208 0.106899 -1.2 1 0.00286143 0.00508288 0.00126846 0.00815008 0.00172752 0.00641248 0.00254953 0.022978 0.00208287 0.0113289 0.00260322 0.0271751 0.00252586 0.0201844 0.0035662 0.032895 0.00360359 0.0267919 0.00262338 0.0469582
56 3 O -1.16835 65.8884 2.69226 -1.2 1 0.00366527 0.00492632 0.000992495 0.00710675 0.00230526 0.00639707 0.00182429 0.022787 0.00251935 0.010231 0.00269071 0.0269678 0.00286219 0.0201177 0.00382197 0.0331194 0.00443941 0.0262666 0.00466905 0.0460882
57 1 Mg -2.15515 69.4059 -0.0690517 1.2 1 0.00381087 0.00560139 0.000717839 0.00759436 0.000620327 0.0069154 0.000994737 0.0228889 0.00121271 0.0111046 0.00173953 0.0283849 0.00151038 0.0197401 0.00214679 0.0330745 0.00286977 0.0267162 0.00304542 0.0459233
58 1 Mg 2.52872 72.2196 1.55331 1.2 1 0.00379419 0.00664676 0.00101846 0.00805938 0.00142159 0.00645626 0.00114116 0.0227531 0.00190594 0.011047 0.00265564 0.0265366 0.00265495 0.0212207 0.00338677 0.0339089 0.0038733 0.0268438 0.00444059 0.045565
59 2 Si -0.0900603 70.3963 1.37227 2.4 1 0.00370084 0.00555021 0.000843704 0.00855007 0.00185096 0.00699606 0.00175026 0.022538 0.00222364 0.0104234 0.00227255 0.0260105 0.0023509 0.0210122 0.00332295 0.0332187 0.00335373 0.0263479 0.00448096 0.047019
60 3 O 1.49887 70.2078 1.43327 -1.2 1 0.00375126 0.00516516 0.000652766 0.00814587 0.00175733 0.00651513 0.00179249 0.0219802 0.00253792 0.0102937 0.0023096 0.0272878 0.00215111 0.0202943 0.0037115 0.0333213 0.003185 0.0261966 0.00438096 0.0458122
61 3 O -1.30189 74.2718 1.64353 -1.2 1 0.00407747 0.00738459 0.000801061 0.00819556 0.00116681 0.00674853 0.00132072 0.0227015 0.00181776 0.0109033 0.00179863 0.0258765 0.00240921 0.020908 0.00331135 0.0330772 0.0042139 0.02657 0.00510248 0.045043
62 3 O -0.782725 71.1607 0.21798 -1.2 1 0.00398736 0.0062161 0.000973189 0.00810743 0.00125847 0.00642349 0.00139262 0.0230477 0.00142697 0.0111147 0.00187911 0.0265087 0.00250295 0.0209186 0.00315043 0.0342597 0.00357177 0.0267905 0.00398928 0.0460907
63 1 Mg -2.39509 79.6888 2.96216 1.2 1 0.00189879 0.00911332 0.000723875 0.00734811 0.000653616 0.00657308 0.000841919 0.0219879 0.00140385 0.012514 0.00117183 0.0258601 0.00160437 0.0208271 0.00202339 0.0330757 0.00284487 0.0274353 0.00236548 0.0422443
64 3 O -0.767699 71.0121 2.69774 -1.2 1 0.00376839 0.00546282 0.00106278 0.00766953 0.0019832 0.00626186 0.00169944 0.0225543 0.00188365 0.0102782 0.00187826 0.0262324 0.00284636 0.0211859 0.00308788 0.0342383 0.0037572 0.0263053 0.00464853 0.0457763
65 1 Mg -2.26359 77.0053 4.72901 1.2 1 0.00122898 0.00806021 0.00076519 0.00754659 0.000732749 0.00654074 0.0016681 0.0225907 0.00226968 0.0114537 0.00220776 0.0256823 0.00213559 0.0222695 0.00312658 0.0331331 0.00326807 0.0262797 0.00289082 0.0446803
66 2 Si 0.338024 78.9498 4.68386 2.4 1 0.00200741 0.00842923 0.000536189 0.00774343 0.00148688 0.00690526 0.00169969 0.0224853 0.00158045 0.0117787 0.00239448 0.0245455 0.00222616 0.0219845 0.00351828 0.0324716 0.00341213 0.0265104 0.00302592 0.0445074
67 3 O -1.28198 78.9638 4.6342 -1.2 1 0.00176899 0.00843071 0.000759841 0.00756468 0.00136073 0.00653482 0.00127892 0.0214345 0.00187796 0.0120339 0.00154108 0.0249513 0.00219605 0.0217552 0.00218221 0.0324303 0.00307537 0.0265086 0.00306058 0.0432992
68 3 O 1.57827 75.1957 4.49077 -1.2 1 0.0018205 0.00729749 0.00129871 0.00767286 0.00104851 0.00702141 0.00149195 0.0230193 0.00172062 0.011107 0.00227567 0.0256103 0.0026775 0.0211967 0.00239471 0.0326166 0.00319202 0.0265574 0.00335119 0.0450601
69 3 O 1.04747 78.1715 3.53428 -1.2 1 0.00185239 0.00891541 0.000886666 0.00749501 0.000911079 0.0065648 0.00171179 0.0225045 0.00200767 0.0112027 0.00224207 0.0247953 0.00214185 0.0220905 0.00234282 0.0337393 0.00331647 0.0271029 0.00286765 0.0433998
70 3 O 1.09992 78.3962 5.93952 -1.2 1 0.00106683 0.00781691 0.000916016 0.00710562 0.0014224 0.00699682 0.00130987 0.0224657 0.00188538 0.0116766 0.00213914 0.0246041 0.00215998 0.0218251 0.00241024 0.0329386 0.00274965 0.0267116 0.00271562 0.0447023
71 1 Mg 0.0914042 74.7237 3.05171 1.2 1 0.00333199 0.00741238 0.000785402 0.00754364 0.00120422 0.00670597 0.00147748 0.0228245 0.00178541 0.0111098 0.00203821 0.026263 0.00238601 0.0211943 0.0023072 0.0329977 0.00344193 0.026548 0.00368103 0.0445978
72 1 Mg 0.088274 71.8275 4.29974 1.2 1 0.00348809 0.00558072 0.00143746 0.00694131 0.00138572 0.00660438 0.00193139 0.0226945 0.00245256 0.0106064 0.00271419 0.0264454 0.00224506 0.0212272 0.00376913 0.0328553 0.00412523 0.0260867 0.00391611 0.0459498
73 2 Si 2.15997 73.6986 4.47003 2.4 1 0.0023378 0.00609544 0.00129285 0.00798405 0.0017774 0.00706714 0.00171084 0.0226363 0.0018895 0.0100766 0.0022772 0.0248783 0.00295601 0.0213806 0.00446786 0.032143 0.00434332 0.0261115 0.0043871 0.045708
74 3 O -0.95422 73.8512 4.44851 -1.2 1 0.00259743 0.00636455 0.00161704 0.00778509 0.0013525 0.00683978 0.00115423 0.0219463 0.0026883 0.0102229 0.00221783 0.0257135 0.00197079 0.0208695 0.00230408 0.032802 0.00369583 0.0262072 0.00385189 0.0452652
75 3 O 1.17831 69.8812 4.42667 -1.2 1 0.00306582 0.00446008 0.0012788 0.00698481 0.00171383 0.00696318 0.00153692 0.0232244 0.00155999 0.0102582 0.00295203 0.0269983 0.00256664 0.0202525 0.00363926 0.0328804 0.0048501 0.0262451 0.00496266 0.0464318
76 3 O 1.6197 72.8384 3.27886 -1.2 1 0.00334214 0.00629799 0.00111414 0.00766804 0.00137139 0.00663804 0.00180772 0.0222941 0.00197721 0.0103612 0.00193632 0.0254738 0.00223627 0.0215065 0.00302356 0.0334053 0.0037494 0.0260927 0.00337168 0.0456557
77 1 Mg 0.0331044 74.5146 0.0826851 1.2 1 0.00341331 0.00791895 0.000948842 0.00805907 0.00081776 0.00635371 0.00125273 0.0226758 0.00192433 0.0109711 0.00192108 0.0264653 0.00196498 0.0206633 0.00240381 0.033485 0.00354809 0.0269744 0.00362523 0.0448383
78 3 O 1.55397 72.985 5.73555 -1.2 1 0.00234665 0.00504463 0.00140076 0.00719977 0.00177252 0.00642678 0.00188128 0.022142 0.00151453 0.00964921 0.001935 0.0250054 0.00253351 0.0209687 0.00309024 0.0329467 0.0039251 0.0260115 0.00386044 0.0453886
79 1 Mg 0.182133 77.491 1.74423 1.2 1 0.00260279 0.00903717 0.000764288 0.0077974 0.00115876 0.00627117 0.00138548 0.0221334 0.00207965 0.0115795 0.0021479 0.0254293 0.00236782 0.0220225 0.00243707 0.033831 0.00366971 0.0270206 0.00304137 0.043657
80 2 Si -2.02728 75.8687 1.45175 2.4 1 0.00342956 0.00811286 0.000816728 0.0086156 0.00130541 0.00662188 0.00219577 0.021826 0.0018903 0.0106938 0.00257312 0.0249012 0.00255025 0.021483 0.00299687 0.0333429 0.00353802 0.0266895 0.00387852 0.0447168
81 3 O 1.25161 75.5015 1.53146 -1.2 1 0.00352267 0.00789516 0.000581337 0.00839368 0.00129166 0.00628978 0.00200197 0.0216199 0.00217144 0.0107463 0.00175087 0.0257549 0.00254941 0.0207352 0.00225111 0.033078 0.0038808 0.0263643 0.00404665 0.0448406
82 3 O -0.720706 79.3728 1.63668 -1.2 1 0.00201585 0.00914564 0.000980894 0.00756301 0.000922555 0.006654 0.00144431 0.0227513 0.00155424 0.0121551 0.00204683 0.0253265 0.00262164 0.0211615 0.00298762 0.0322957 0.00281283 0.0274475 0.00328598 0.0431524
83 3 O -1.36184 76.3027 0.0987772 -1.2 1 0.00291011 0.00834009 0.000790213 0.00812715 0.00121221 0.00629948 0.00220172 0.0223704 0.00223823 0.011054 0.00227449 0.0255158 0.00245005 0.0212163 0.00239243 0.0338828 0.00253372 0.0272004 0.00384418 0.0446529
84 3 O -1.31338 76.4782 2.63339 -1.2 1 0.00262609 0.00838788 0.000958493 0.0080377 0.00148824 0.00643189 0.0019847 0.0223901 0.0018958 0.0104915 0.00213173 0.0250277 0.00235085 0.0215287 0.00229641 0.0336795 0.00323429 0.0269775 0.0034395 0.0443845
85 1 Mg -2.17659 79.959 -0.0325697 1.2 1 0.00157476 0.00920896 0.000673272 0.00746133 0.000860322 0.00631479 0.00132174 0.0225778 0.00149339 0.0118031 0.00147759 0.0254494 0.00173227 0.0209798 0.00248384 0.0327392 0.00283864 0.0274135 0.00263384 0.0425665
86 1 Mg 2.50439 82.7442 1.82373 1.2 1 0.00236185 0.00925389 0.00136887 0.0072858 0.000661516 0.00600419 0.00131368 0.0220867 0.00204626 0.0118191 0.00168693 0.0242026 0.00265555 0.0214911 0.00323112 0.0328926 0.00308201 0.0276029 0.00209233 0.0422252
87 2 Si -0.0651193 80.8739 1.58083 2.4 1 0.00169955 0.00950617 0.00106626 0.00795371 0.00137295 0.00613831 0.0016252 0.0219956 0.00149616 0.0115904 0.00167402 0.0242279 0.00264224 0.0216189 0.00232317 0.0329672 0.00276753 0.0278231 0.00260448 0.0432536
88 3 O 1.46373 80.8757 1.58434 -1.2 1 0.00187523 0.00909214 0.00100828 0.00775487 0.00121071 0.00603753 0.00171152 0.0214098 0.00191018 0.011668 0.00181797 0.0249724 0.00180109 0.0213404 0.0021886 0.032625 0.00308954 0.0271435 0.00279528 0.0431347
89 3 O -1.16846 84.6393 1.99254 -1.2 1 0.00235956 0.00854655 0.0016364 0.00683746 0.000928862 0.00606598 0.00133273 0.0225778 0.00126714 0.0119942 0.00180332 0.0246157 0.00222747 0.0212149 0.00219641 0.0317586 0.00185636 0.0275022 0.00231236 0.042543
90 3 O -0.94208 81.4298 0.194936 -1.2 1 0.00122499 0.00935659 0.00128265 0.00742101 0.00168556 0.00595152 0.00194014 0.0224335 0.00140901 0.01171 0.00191757 0.0246299 0.00241451 0.0214985 0.00299907 0.0331476 0.00249036 0.0279608 0.00288343 0.0436246
91 1 Mg -2.29753 90.0745 3.42086 1.2 1 0.00367709 0.00593176 0.00199716 0.0059389 0.00186426 0.00535338 0.00128907 0.0226792 0.00162001 0.0103858 0.00266471 0.025711 0.00330738 0.0206698 0.00253075 0.0314941 0.00244441 0.0250458 0.0056538 0.0412082
92 3 O -0.78762 81.6176 2.80753 -1.2 1 0.00221682 0.00909569 0.000811506 0.00728093 0.000994799 0.00631357 0.00161459 0.0218222 0.00197811 0.0116784 0.00135221 0.0239532 0.00265754 0.0222294 0.0022607 0.0331333 0.00266496 0.0272278 0.00210978 0.0426923
93 1 Mg -2.13572 87.5745 4.83808 1.2 1 0.00353246 0.00670305 0.0018819 0.00627955 0.00173836 0.00547803 0.0015574 0.0222634 0.00192278 0.0110723 0.00258154 0.0244265 0.00274476 0.0218994 0.00277021 0.0325899 0.00269994 0.0257964 0.00409445 0.0410953
94 2 Si 0.336874 89.4402 5.12259 2.4 1 0.00460829 0.0052684 0.00241389 0.00677319 0.00191099 0.00543022 0.00157215 0.0222288 0.00166542 0.0100047 0.00256718 0.0237816 0.0027658 0.022174 0.00335859 0.0317835 0.0026119 0.0247393 0.00516574 0.0417377
95 3 O -1.15681 89.4888 5.00475 -1.2 1 0.00413461 0.00529256 0.00263227 0.00623478 0.00207987 0.00520709 0.00137458 0.0220132 0.00241798 0.00997466 0.00269038 0.0246886 0.00343244 0.0214797 0.00267781 0.0317487 0.00311098 0.0246652 0.00574593 0.0412507
96 3 O 1.56778 85.5925 4.86685 -1.2 1 0.00298991 0.00691881 0.00160028 0.00661139 0.000721096 0.00636024 0.00125623 0.0222147 0.0014838 0.0116252 0.00223363 0.0244384 0.00321052 0.0211408 0.00359378 0.0318924 0.00310809 0.0267417 0.00325409 0.041435
97 3 O 1.10514 88.6686 3.91 -1.2 1 0.00386267 0.00629127 0.00217355 0.00605718 0.00207394 0.00530339 0.00243749 0.0224466 0.00182335 0.0105094 0.00245522 0.0244526 0.00305581 0.0216946 0.00284255 0.0320709 0.00236033 0.0255453 0.00498122 0.0414177
98 3 O 1.1279 88.7521 6.36455 -1.2 1 0.00375811 0.0051439 0.00206503 0.00600885 0.0015779 0.00597244 0.00148983 0.0226577 0.00188729 0.0109495 0.00211862 0.0242077 0.00278733 0.0222063 0.00291312 0.0322646 0.0024146 0.0254447 0.00447579 0.0412899
99 1 Mg 0.102172 85.2935 3.42619 1.2 1 0.00255976 0.00743862 0.00156676 0.00657483 0.00106209 0.00598365 0.000766797 0.0215187 0.0016649 0.0118457 0.0014684 0.0250176 0.00203855 0.0212625 0.00206605 0.0315121 0.00221906 0.0264891 0.00237656 0.0413119
100 1 Mg -0.008929 82.3062 4.61209 1.2 1 0.00189361 0.00807669 0.00125757 0.006754 0.000827113 0.00653969 0.00143649 0.0218244 0.00123078 0.0126055 0.00185977 0.0244849 0.00218962 0.0221277 0.00290267 0.0328706 0.00216642 0.0271796 0.00234603 0.0417932
101 2 Si 2.19742 84.0218 4.80831 2.4 1 0.0019598 0.00754221 0.00168448 0.00710412 0.000949162 0.00680856 0.00219474 0.0215468 0.00169462 0.0115965 0.00224487 0.0233184 0.00287663 0.0217537 0.00299704 0.0319757 0.00364881 0.0268877 0.00209769 0.0416201
102 3 O -1.01075 84.2235 4.91741 -1.2 1 0.00233728 0.00727033 0.00117119 0.00686838 0.00068686 0.0063949 0.00138702 0.0213622 0.00243395 0.0117318 0.00179647 0.0240889 0.00193778 0.0210907 0.00303278 0.0323624 0.00222841 0.0264337 0.00221204 0.0414708
103 3 O 0.98387 80.5244 4.48007 -1.2 1 0.00202682 0.00853364 0.000754455 0.0070416 0.000677572 0.00670997 0.000861956 0.0225454 0.00110503 0.0122113 0.00180086 0.0249895 0.00187833 0.0214187 0.00253837 0.0327399 0.00271166 0.0269575 0.00315195 0.0432883
104 3 O 1.56069 83.4457 3.5844 -1.2 1 0.00241116 0.00813973 0.00150962 0.00666516 0.000858965 0.0064611 0.00198675 0.0222962 0.00143494 0.0118761 0.00119612 0.0240017 0.00287524 0.0222336 0.00270318 0.0327192 0.00293542 0.0270562 0.00189349 0.0413108
105 1 Mg 0.171325 84.913 0.474011 1.2 1 0.00231714 0.00817384 0.00125142 0.00679421 0.00110379 0.00591566 0.00110314 0.0222094 0.00112254 0.01154 0.00128617 0.0255114 0.00240275 0.0207948 0.00233038 0.032046 0.00245205 0.0271245 0.0019422 0.0428711
106 3 O 1.7442 83.2765 6.13399 -1.2 1 0.00179737 0.00757559 0.00131116 0.00650759 0.000591649 0.00678903 0.00147644 0.0218071 0.00144564 0.0120521 0.00144805 0.0240713 0.00228839 0.0220086 0.00238401 0.0326854 0.00259139 0.0264909 0.00211762 0.0415311
107 1 Mg 0.263249 87.9998 1.80778 1.2 1 0.00282161 0.00700529 0.00163424 0.00639282 0.00140616 0.00521924 0.00110279 0.0221562 0.00205454 0.0109132 0.0024598 0.0253089 0.00278188 0.0211495 0.00295239 0.0317243 0.00264964 0.0265035 0.00425667 0.0426323
108 2 Si -1.82525 86.115 1.84789 2.4 1 0.00238874 0.00780047 0.00114572 0.00704587 0.00213331 0.00576561 0.00132344 0.021412 0.00204597 0.0108282 0.00265073 0.0242378 0.00239206 0.0211849 0.00336423 0.0314665 0.00291707 0.026455 0.00296399 0.0423876
109 3 O 1.20192 86.0591 1.68788 -1.2 1 0.00252361 0.00747926 0.00138401 0.00696092 0.00176463 0.00562568 0.0017586 0.0211528 0.00198495 0.0109838 0.00203737 0.0247692 0.00257848 0.0204621 0.00240988 0.0319988 0.00287926 0.0265211 0.00336966 0.0425249
110 3 O -0.978732 89.8909 1.98419 -1.2 1 0.00289537 0.00634602 0.00203767 0.00627453 0.00175522 0.00587309 0.00124017 0.0227146 0.00185943 0.0105652 0.00298322 0.0258646 0.0036552 0.0205322 0.00304132 0.031255 0.0032002 0.025442 0.00537408 0.0427203
111 3 O -1.21611 86.6244 0.433594 -1.2 1 0.00216469 0.00741099 0.0011663 0.00681697 0.00194706 0.00547929 0.00164802 0.0216867 0.00157908 0.0107295 0.00219797 0.025088 0.0022797 0.020564 0.00251148 0.031983 0.0025682 0.0265417 0.00304433 0.0437989
112 3 O -1.17174 86.8966 3.11359 -1.2 1 0.00298361 0.00722519 0.00153917 0.00618715 0.00150357 0.00552779 0.00109951 0.0220351 0.00237218 0.010801 0.00220319 0.0243026 0.00228545 0.0216294 0.00271693 0.0325455 0.00265679 0.0265008 0.00319317 0.041246
113 1 Mg -2.19122 90.5293 0.438599 1.2 1 0.00189198 0.00624297 0.00162847 0.00633348 0.00195727 0.00572488 0.00144179 0.0231888 0.0015199 0.0106554 0.0021442 0.0269804 0.00290902 0.0201031 0.00283432 0.0310293 0.00271493 0.0260294 0.00483702 0.0439499
114 1 Mg 2.33171 93.2542 1.93806 1.2 1 0.00230407 0.00533747 0.00149622 0.00660884 0.00160371 0.0051714 0.00131075 0.0233184 0.00222533 0.0103168 0.00278081 0.0272378 0.00302043 0.0201968 0.00389741 0.0315075 0.00327573 0.0256517 0.00505176 0.0447435
115 2 Si -0.249298 91.3436 2.0328 2.4 1 0.00277037 0.00562696 0.00201634 0.00688076 0.00234759 0.00547506 0.00166223 0.0226223 0.00209093 0.0100496 0.00313497 0.0256449 0.00366099 0.0208757 0.0038818 0.0309791 0.00356639 0.0249298 0.00482059 0.04379
116 3 O 1.38286 91.2581 1.93776 -1.2 1 0.00313594 0.00573707 0.00202053 0.00650867 0.00204681 0.00521642 0.00131797 0.0223384 0.00289073 0.0099667 0.00248059 0.0258678 0.00351568 0.0206231 0.00283858 0.0315219 0.00310701 0.0245888 0.00564065 0.043662
117 3 O -1.34526 95.186 1.97542 -1.2 1 0.00182772 0.00501904 0.00115176 0.00696895 0.0010873 0.006214 0.00120204 0.023607 0.00144538 0.0102934 0.00211311 0.0277578 0.00249679 0.019746 0.00230858 0.0308871 0.00279123 0.025724 0.00364159 0.0458502
118 3 O -0.778226 92.0169 0.707084 -1.2 1 0.00169863 0.00538258 0.00204132 0.00689786 0.00197327 0.00501656 0.00172301 0.0228136 0.00198815 0.0097122 0.00233786 0.0262 0.00307268 0.0205317 0.00329215 0.0310914 0.0028356 0.0256196 0.00403198 0.0446884
119 1 Mg -2.34499 100.97 3.38129 1.2 1 0.000848475 0.00572256 0.00079459 0.00741661 0.00103114 0.00610627 0.00104927 0.0235856 0.0011008 0.0103339 0.00116427 0.0284392 0.00144919 0.0189626 0.00199789 0.0314408 0.00205198 0.0261443 0.00239224 0.0468836