ITEM: TIMESTEP
54800
ITEM: NUMBER OF ATOMS
5600
ITEM: BOX BOUNDS xy xz yz pp pp pp
0	7.1235	0
0	201.985	2.3745
0	119.584	0
ITEM: ATOMS id type element xu yu zu q Q_1 Q_2 Q_3 Q_4 Q_5 Q_6 Q_7 Q_8 Q_9 Q_10 Q_11 Q_12 Q_13 Q_14 Q_15 Q_16 Q_17 Q_18 Q_19 Q_20 Q_21
1 1 Mg -1.40092 48.1019 -1.14132 1.2 1 0.229688 0.0804927 0.0203905 0.0259364 0.00563821 0.0158917 0.00312846 0.0199331 0.0044622 0.0256173 0.00597367 0.0275697 0.00819996 0.0253961 0.00845504 0.0228495 0.00880334 0.020437 0.0102486 0.0264607
2 1 Mg 3.2092 50.6017 1.82096 1.2 1 0.16973 0.0640366 0.0097494 0.0186795 0.00452226 0.0115008 0.00208428 0.0187843 0.00579955 0.0219178 0.00589306 0.0275864 0.00675402 0.0241878 0.00749691 0.0265087 0.00934316 0.0199769 0.00914663 0.0305195
3 2 Si 1.2014 49.2709 0.0875991 2.4 1 0.202983 0.0746506 0.0142483 0.0227475 0.00485802 0.0127268 0.00194183 0.0185434 0.00523687 0.0238787 0.0049818 0.0266747 0.00642702 0.025621 0.0068299 0.0243573 0.00888627 0.0190074 0.0102101 0.0277016
4 3 O 2.11214 48.0409 0.1765 -1.2 1 0.232584 0.0822537 0.0219758 0.0270886 0.00624077 0.014787 0.00290201 0.0190358 0.00628327 0.0268467 0.0070006 0.0269132 0.00842423 0.0268691 0.0097499 0.0248947 0.0108693 0.0216398 0.010711 0.0270301
5 3 O -0.998268 52.6797 1.75606 -1.2 1 0.126127 0.0496334 0.00387344 0.0134584 0.0038184 0.00919101 0.00197878 0.018699 0.00427088 0.0190973 0.0035329 0.0270984 0.00581298 0.0224015 0.00513177 0.025692 0.00899021 0.0192625 0.00708038 0.0315696
6 3 O 0.35492 48.9388 -1.19728 -1.2 1 0.202078 0.0750513 0.0138068 0.0218515 0.00486312 0.0125878 0.00254734 0.0184392 0.00421276 0.0225823 0.00487266 0.0266037 0.00684731 0.0250405 0.00589026 0.0228227 0.00796505 0.0199113 0.0089002 0.0264965
7 1 Mg -2.18769 58.4718 3.27713 1.2 1 0.0175688 0.0118272 0.00356395 0.00741833 0.000984812 0.00700589 0.0019599 0.0214434 0.00311406 0.0125614 0.00244882 0.0276259 0.00274501 0.0218076 0.00422483 0.0301722 0.00499687 0.024136 0.00433239 0.0390741
8 3 O 0.245181 49.6352 1.22707 -1.2 1 0.191503 0.0716595 0.0117446 0.0212912 0.00517152 0.0112922 0.00292823 0.0182006 0.00510773 0.0231742 0.00577946 0.0265844 0.00659423 0.0258122 0.00653482 0.0251023 0.00941332 0.0193894 0.00937946 0.0289183
9 1 Mg -2.12002 55.6 4.71921 1.2 1 0.0673643 0.0327045 0.004344 0.00962829 0.00200782 0.00758789 0.00161469 0.0199045 0.00390508 0.0156402 0.0025013 0.0270701 0.00340884 0.0231661 0.00449397 0.0280489 0.00556992 0.0227723 0.00574015 0.0364824
10 2 Si 0.353758 57.3556 4.66362 2.4 1 0.0289229 0.0181264 0.00610264 0.00831683 0.0015688 0.00662259 0.00295655 0.0209163 0.00326246 0.0118936 0.00314282 0.0260996 0.00272096 0.0227469 0.00491889 0.0290347 0.00516556 0.0237201 0.0054549 0.0387352
11 3 O -1.23451 57.3838 4.60637 -1.2 1 0.0283806 0.0177085 0.00588435 0.00781259 0.00190268 0.0068775 0.00295218 0.0207366 0.00362658 0.0118975 0.00241516 0.0269669 0.00326635 0.0227684 0.00395185 0.0286281 0.0055735 0.0231828 0.00617565 0.0388128
12 3 O 1.39366 53.2278 4.84885 -1.2 1 0.114977 0.0485631 0.00110517 0.0141469 0.00278629 0.0095064 0.00164914 0.0185092 0.0050478 0.018868 0.0028777 0.0267465 0.00380261 0.0238663 0.00357919 0.0264939 0.00626973 0.0214693 0.00640229 0.0338929
13 3 O 1.11312 56.7052 3.41723 -1.2 1 0.0395198 0.0236011 0.00621089 0.00816936 0.00194936 0.00674962 0.0014516 0.0211764 0.00370638 0.0131937 0.00260952 0.026861 0.0030763 0.0221451 0.00451128 0.0286472 0.00559653 0.022932 0.00543056 0.0369995
14 3 O 1.14058 56.7167 5.99137 -1.2 1 0.0386263 0.0227966 0.00716011 0.00782223 0.00145728 0.00707892 0.00211838 0.0213651 0.00342276 0.0126758 0.00237749 0.0268052 0.00331985 0.0230547 0.00430324 0.028795 0.00473351 0.023034 0.00582011 0.0387464
15 1 Mg 0.227865 52.995 3.1797 1.2 1 0.119089 0.0490364 0.00159857 0.0139472 0.00373945 0.00992465 0.00190473 0.0182767 0.00527965 0.0191221 0.00338775 0.027338 0.00561357 0.0219749 0.00524187 0.0253538 0.00686568 0.0200898 0.00645175 0.0326947
16 1 Mg 0.906183 49.152 3.20352 1.2 1 0.212755 0.0741361 0.0163628 0.0237299 0.00437737 0.01468 0.0034563 0.019376 0.00475213 0.0242104 0.00516754 0.0269794 0.00663852 0.0265524 0.0064927 0.0271917 0.00980184 0.0209905 0.0089218 0.0320314
17 2 Si 2.20142 51.8408 4.65248 2.4 1 0.15121 0.0581136 0.00494905 0.0172628 0.0037334 0.0107879 0.00287071 0.0176796 0.00547322 0.0204239 0.00402319 0.026892 0.00610919 0.0241934 0.00504288 0.0263122 0.00624379 0.0201584 0.00708261 0.0327364
18 3 O -1.04093 52.1321 4.7359 -1.2 1 0.138477 0.0557636 0.00242549 0.0161602 0.00333449 0.00974908 0.0019607 0.0177775 0.00555278 0.020095 0.00318795 0.02623 0.00557688 0.0246814 0.00484897 0.0260266 0.00688403 0.0207066 0.00635232 0.0332622
19 3 O 2.85075 49.0319 3.28348 -1.2 1 0.20981 0.0746686 0.0156701 0.0237072 0.00465528 0.0145289 0.00297297 0.0190621 0.00507945 0.0246582 0.0048782 0.0275868 0.00684223 0.0263877 0.00706971 0.0269371 0.00953282 0.0208903 0.00831748 0.0316245
20 3 O 1.66428 51.3202 3.22283 -1.2 1 0.152081 0.0592176 0.00582945 0.0167431 0.00449919 0.0107045 0.00256762 0.0186058 0.00554291 0.0210202 0.00407813 0.0275442 0.0057423 0.0243624 0.00559651 0.0260662 0.0075669 0.0201286 0.00717924 0.0319813
21 1 Mg 0.377847 53.0918 0.273737 1.2 1 0.114763 0.0474619 0.0019524 0.0117741 0.00332773 0.00934164 0.00179412 0.019168 0.0045937 0.0190805 0.0036479 0.0270639 0.0054046 0.0213327 0.00528402 0.024722 0.0066297 0.0197423 0.00635146 0.0300932
22 3 O 1.90046 50.7759 5.81105 -1.2 1 0.168865 0.0643333 0.00702882 0.0193073 0.00373832 0.0120844 0.00212417 0.0189841 0.00533217 0.0225386 0.00330544 0.026394 0.00541976 0.0266402 0.00473454 0.0258625 0.00655706 0.0209549 0.00671975 0.032653
23 1 Mg 0.255673 55.9533 1.77879 1.2 1 0.0497224 0.0284931 0.00645436 0.00866214 0.00198852 0.00697918 0.0014336 0.0201406 0.00533736 0.0143294 0.00292438 0.0267878 0.00409498 0.0208771 0.005654 0.0274439 0.00695422 0.0222979 0.00571573 0.0347909
24 2 Si -1.84011 54.0515 1.82636 2.4 1 0.100508 0.0423428 0.00118004 0.0111522 0.00317378 0.00833801 0.00174877 0.0184165 0.00481021 0.0170431 0.00327582 0.0267525 0.00448266 0.0221437 0.00552469 0.0252097 0.00807712 0.0199229 0.00677809 0.0326335
25 3 O 1.41368 54.0716 1.90141 -1.2 1 0.100692 0.0430645 0.000682103 0.0117095 0.00335791 0.00823187 0.001649 0.0183313 0.00481189 0.0173553 0.00346859 0.0268758 0.00537109 0.02189 0.0055275 0.0262976 0.00787271 0.0205062 0.00657858 0.0324496
26 3 O -0.745726 58.0418 1.82212 -1.2 1 0.0236691 0.0161518 0.00551758 0.00754241 0.00135402 0.00657221 0.00158008 0.0209722 0.00408853 0.0127172 0.00286141 0.0275006 0.00311503 0.0210218 0.00506756 0.0291793 0.00628553 0.023398 0.00520934 0.0375778
27 3 O -0.969463 54.7972 0.48169 -1.2 1 0.0772193 0.0362028 0.0024467 0.00923019 0.00251911 0.0075569 0.00221352 0.0191147 0.00558174 0.0157241 0.00363958 0.0256535 0.00452621 0.0206891 0.00534947 0.02576 0.00720366 0.0212447 0.00625238 0.0316235
28 3 O -1.09553 54.7614 3.08449 -1.2 1 0.0819784 0.036948 0.00247017 0.0102567 0.00330002 0.00759534 0.00135868 0.0191189 0.00493286 0.0162032 0.0032522 0.0269402 0.00404471 0.0220474 0.00520029 0.0269703 0.00703014 0.0217523 0.00616701 0.0346465
29 1 Mg -2.21249 58.5193 0.343989 1.2 1 0.0205245 0.0141393 0.00392919 0.00762446 0.00142397 0.00637716 0.0012642 0.0213517 0.00379631 0.0126926 0.00193661 0.026977 0.00328499 0.0201173 0.00494683 0.0294417 0.00588634 0.0238478 0.00483301 0.0370843
30 1 Mg 2.39461 61.5788 1.65177 1.2 1 0.00899573 0.00777892 0.000861057 0.00753135 0.00168162 0.00569473 0.0021569 0.0220329 0.00291584 0.0109511 0.00233385 0.0268111 0.00244959 0.0204863 0.00313448 0.0307859 0.00388365 0.0254429 0.00376677 0.0419664
31 2 Si -0.22174 59.687 1.74231 2.4 1 0.013738 0.00925503 0.00173241 0.00830626 0.00149056 0.00567753 0.00192705 0.0214047 0.0027644 0.0119762 0.00266453 0.0263696 0.00285864 0.021131 0.0045032 0.0298015 0.00555022 0.0237859 0.00460415 0.0403992
32 3 O 1.4098 59.4274 1.68612 -1.2 1 0.0133371 0.00937777 0.00191549 0.00806046 0.0014086 0.00572986 0.00188351 0.0215481 0.00332544 0.0111845 0.00267146 0.0267519 0.00307008 0.0209744 0.00397225 0.0302656 0.00485052 0.0242952 0.00383672 0.0402161
33 3 O -1.10427 63.3444 1.80372 -1.2 1 0.00721254 0.00808216 0.000885082 0.00766008 0.0015141 0.00520771 0.00136082 0.0216795 0.00181817 0.0103435 0.00195166 0.0266382 0.00281201 0.0194079 0.00240624 0.0305941 0.00456715 0.0256586 0.00439125 0.0433406
34 3 O -0.913476 60.1706 0.438097 -1.2 1 0.0121783 0.00852188 0.00128322 0.00797179 0.00137412 0.00623793 0.0021391 0.0214794 0.00239883 0.0113686 0.00248852 0.026393 0.00303209 0.0207478 0.00443121 0.0301002 0.00513654 0.024545 0.00451428 0.0401427
35 1 Mg -2.04283 69.1983 3.22286 1.2 1 0.00485233 0.00728976 0.00237815 0.00734587 0.00205639 0.00529894 0.00116295 0.0219913 0.00172475 0.0102305 0.00179878 0.0272352 0.00252144 0.0189589 0.0029364 0.0308854 0.00302751 0.0252933 0.00397126 0.0422229
36 3 O -0.798711 60.4064 2.94467 -1.2 1 0.0114213 0.0091652 0.0012007 0.00794903 0.00117954 0.00625778 0.00183888 0.0217786 0.00246601 0.0110618 0.00232465 0.0263318 0.00309451 0.0215151 0.0036983 0.0309968 0.00461935 0.0244781 0.00378793 0.0410078
37 1 Mg -1.80739 66.4383 4.74539 1.2 1 0.00235878 0.007838 0.00180486 0.00728318 0.00145451 0.00517637 0.00140441 0.0213618 0.00251368 0.0107936 0.00230097 0.0267344 0.00289787 0.0194841 0.00336271 0.0303613 0.00438509 0.0252334 0.00453592 0.0425157
38 2 Si 0.510708 68.0365 4.84386 2.4 1 0.00427468 0.00624271 0.00249009 0.00816064 0.00292191 0.0046744 0.00151763 0.0207996 0.00176883 0.00988341 0.00243091 0.0256823 0.00258039 0.0191975 0.00434509 0.0302619 0.0038831 0.0247482 0.00512763 0.0428172
39 3 O -0.936176 68.2729 4.79011 -1.2 1 0.00466267 0.00659455 0.00235325 0.00800545 0.00268648 0.00423713 0.00168985 0.0207773 0.00216346 0.00952822 0.00182229 0.0252771 0.00279201 0.0186098 0.00433892 0.0302638 0.00371082 0.0245632 0.00553325 0.0428594
40 3 O 1.71299 64.3729 4.72408 -1.2 1 0.00374607 0.00812742 0.00172828 0.00737625 0.00162875 0.00545569 0.0020901 0.0222144 0.00169641 0.0111556 0.00211537 0.0264252 0.0024525 0.0195122 0.00387485 0.0295794 0.00297178 0.0252079 0.00374758 0.042981
41 3 O 1.23668 67.3378 3.57326 -1.2 1 0.00344073 0.00767546 0.00239873 0.00762733 0.0021747 0.00491308 0.00193901 0.0214421 0.0022381 0.0095847 0.00196281 0.0260097 0.00226559 0.0195256 0.00308196 0.0314288 0.00315051 0.0254318 0.00393543 0.043163
42 3 O 1.23728 67.5998 6.16282 -1.2 1 0.00414906 0.00636106 0.00232927 0.00760317 0.00278444 0.0052131 0.00172195 0.0217165 0.00192533 0.010108 0.00225009 0.0256107 0.00257531 0.0200004 0.00430766 0.0308128 0.00397948 0.0251243 0.00458525 0.0430929
43 1 Mg 0.277948 63.3973 3.16663 1.2 1 0.00617384 0.00814444 0.00122322 0.00756912 0.0017691 0.00509489 0.00214966 0.02174 0.0015431 0.0106413 0.0020891 0.0267638 0.00216858 0.0193991 0.00282796 0.0304801 0.00375761 0.0251295 0.00364195 0.0424506
44 1 Mg 0.180838 61.144 4.81356 1.2 1 0.00947386 0.00835066 0.00106845 0.00753776 0.00143794 0.00626332 0.00161494 0.0218054 0.00162164 0.0110271 0.00273471 0.0267766 0.00232023 0.0214036 0.00313762 0.0310301 0.00373808 0.0249191 0.00364669 0.0420696
45 2 Si 2.42536 62.8444 4.7143 2.4 1 0.00662264 0.00794127 0.00133003 0.00824701 0.00125426 0.00549158 0.00212267 0.0218706 0.00163676 0.0102279 0.00235294 0.0250244 0.00238606 0.0203503 0.00347642 0.030276 0.00284957 0.0254745 0.00315254 0.0431468
46 3 O -0.824043 63.0339 4.80595 -1.2 1 0.00585167 0.00762804 0.00153426 0.00775192 0.00137791 0.00511777 0.00217421 0.0214526 0.00242546 0.0105664 0.00217275 0.0263027 0.00282946 0.0198762 0.0035225 0.0304187 0.00386015 0.0248185 0.00379881 0.0428216
47 3 O 0.783016 59.0094 4.65605 -1.2 1 0.0171231 0.0126211 0.00307714 0.00705287 0.0012493 0.00721793 0.00239091 0.0219825 0.00268175 0.0125728 0.00280409 0.0274745 0.00273967 0.0217604 0.0037036 0.0299638 0.00468847 0.024272 0.00434763 0.0400772
48 3 O 1.56537 62.1362 3.37769 -1.2 1 0.0080919 0.00785234 0.00120194 0.00769866 0.00142681 0.00548081 0.00283422 0.0218506 0.00177836 0.010397 0.00266322 0.0264912 0.00219168 0.0204269 0.00284355 0.0311501 0.00372059 0.0253408 0.00341251 0.0430829
49 1 Mg 0.156468 63.8737 0.188261 1.2 1 0.00591643 0.00801862 0.00152512 0.00753709 0.00170891 0.00519407 0.00179476 0.0218756 0.0013 0.0104326 0.00160761 0.0273471 0.00271225 0.0192576 0.00257124 0.0300326 0.00381183 0.0251328 0.00427268 0.0424332
50 3 O 1.60695 62.2226 5.94262 -1.2 1 0.00698927 0.00787481 0.00157748 0.00777581 0.00158159 0.00603949 0.00199218 0.0217827 0.0017969 0.0106587 0.00200786 0.0258491 0.00231412 0.0209782 0.00387426 0.0307075 0.00334528 0.0253913 0.00306198 0.0425009
51 1 Mg 0.383833 66.697 1.9548 1.2 1 0.00238155 0.0083121 0.0018537 0.00729669 0.00186272 0.00468221 0.00216703 0.0220211 0.00193036 0.00995038 0.00242061 0.0266109 0.00298183 0.0193318 0.00319257 0.0318476 0.00353396 0.0260418 0.00414694 0.0434726
52 2 Si -1.81234 64.9576 1.91631 2.4 1 0.0038653 0.00792561 0.00137177 0.00824583 0.00208942 0.00470049 0.0022754 0.0209829 0.00153843 0.00961794 0.00209075 0.0257912 0.00336548 0.0196364 0.00450024 0.0300026 0.00451705 0.025368 0.00414325 0.0437066
53 3 O 1.4855 64.7858 1.86024 -1.2 1 0.00424836 0.00781783 0.00137053 0.00805233 0.00175234 0.0043326 0.00166717 0.0212248 0.00177529 0.00961355 0.00197122 0.025704 0.00306666 0.0190057 0.00303807 0.030667 0.00365781 0.0256267 0.0040988 0.0438208
54 3 O -0.818751 68.4988 1.82869 -1.2 1 0.00361825 0.00782627 0.00192517 0.00728318 0.00167323 0.00517399 0.00143093 0.0225833 0.00132848 0.0104878 0.00183007 0.0268645 0.00316823 0.0193087 0.00299046 0.0309351 0.00375798 0.0258266 0.00368979 0.0422957
55 3 O -1.1385 65.6085 0.6025 -1.2 1 0.00284292 0.00805421 0.001845 0.00770385 0.00196921 0.00475995 0.00263846 0.0213098 0.00181922 0.00925438 0.00162036 0.026138 0.00296706 0.0197298 0.00290143 0.0314718 0.00372703 0.0259713 0.00444447 0.0427146
56 3 O -1.01672 65.559 3.16618 -1.2 1 0.00271308 0.00823761 0.00163526 0.00726197 0.00200953 0.00461568 0.00220966 0.0223559 0.00182041 0.010094 0.00228745 0.0259088 0.00323926 0.0197264 0.00447945 0.0308727 0.0047881 0.0265313 0.00430594 0.0439411
57 1 Mg -2.26485 68.9531 0.271686 1.2 1 0.00433539 0.00761706 0.00149478 0.00710165 0.00214666 0.0059613 0.00086649 0.0222964 0.00150022 0.0106323 0.00158664 0.0269119 0.00232607 0.0189466 0.00245027 0.0312673 0.00352655 0.0262184 0.00418286 0.0417621
58 1 Mg 2.26887 72.1829 1.5984 1.2 1 0.00651943 0.0063608 0.00108824 0.0080404 0.00196479 0.00578708 0.00197536 0.022377 0.00216151 0.0110813 0.00245727 0.0279788 0.00238593 0.0201319 0.00384377 0.0312069 0.00269931 0.0252989 0.00413828 0.0413312
59 2 Si -0.236565 70.0601 1.77246 2.4 1 0.00575315 0.00715685 0.00119236 0.00813347 0.00206411 0.00500104 0.00280134 0.0217977 0.00216257 0.0102366 0.00248051 0.0267002 0.00331489 0.0198248 0.00579059 0.0304439 0.00448387 0.025601 0.00464576 0.0429101
60 3 O 1.29354 70.138 1.65392 -1.2 1 0.00562194 0.00668011 0.00158242 0.00795555 0.0021278 0.00510639 0.00174207 0.0212516 0.00292126 0.00946331 0.00158234 0.0266451 0.0021782 0.019148 0.00280974 0.0306751 0.00402391 0.0251728 0.00413542 0.042204
61 3 O -1.3161 74.1337 1.60379 -1.2 1 0.00440897 0.00524457 0.000857894 0.00871782 0.00150145 0.00640669 0.00138794 0.0226276 0.00176304 0.0113316 0.00220734 0.0280852 0.00210753 0.0199134 0.00401737 0.0303922 0.00363701 0.0249701 0.00333269 0.0412685
62 3 O -0.967979 70.7279 0.4986 -1.2 1 0.00643929 0.00676938 0.00108057 0.00773184 0.00209115 0.00558625 0.00304494 0.021978 0.00273346 0.0100078 0.00193242 0.0264951 0.00282179 0.0197576 0.00433693 0.0310663 0.00373057 0.0259586 0.00433262 0.041672
63 1 Mg -2.32841 80.1073 2.99203 1.2 1 0.00594775 0.00474795 0.00141438 0.00764115 0.00189795 0.00619972 0.00127001 0.0229515 0.00143852 0.0110903 0.00214444 0.0291452 0.00259332 0.0197333 0.00354161 0.0294429 0.00293295 0.0231332 0.00287703 0.0416946
64 3 O -0.893376 70.8646 2.97568 -1.2 1 0.00587234 0.00636041 0.00156875 0.00772928 0.00190906 0.00517119 0.00202333 0.0220408 0.0016537 0.0100203 0.00140274 0.0266714 0.00266531 0.0197497 0.00409188 0.0313367 0.00308378 0.0252062 0.00442135 0.0420409
65 1 Mg -2.24816 76.7907 4.55118 1.2 1 0.00340821 0.00372662 0.00129416 0.00868104 0.00138809 0.00658296 0.00127027 0.0217614 0.00223142 0.0115077 0.00202909 0.0284495 0.00237833 0.0201597 0.00370914 0.0296339 0.00338671 0.022777 0.00265106 0.0411915
66 2 Si 0.457604 78.8449 4.59891 2.4 1 0.00646169 0.00357738 0.00179691 0.00893277 0.0023342 0.00588551 0.0023906 0.0215536 0.00165525 0.0110105 0.00319724 0.027685 0.00276952 0.020267 0.00582264 0.0294432 0.00467194 0.0224255 0.00550869 0.0425113
67 3 O -1.08226 79.0432 4.56779 -1.2 1 0.00553679 0.00345495 0.00184053 0.00863499 0.00195235 0.00596517 0.00147235 0.021187 0.00269334 0.0107312 0.00199552 0.0283049 0.00292213 0.0198457 0.00302008 0.0298341 0.00294225 0.022285 0.00370183 0.0417951
68 3 O 1.5704 74.9317 4.66103 -1.2 1 0.00238679 0.00424161 0.00132009 0.0086566 0.0010968 0.00629502 0.00124166 0.0218539 0.00171515 0.0110942 0.00261507 0.0280812 0.00219618 0.0198478 0.00347471 0.0301053 0.00308041 0.0234558 0.00251209 0.0415341
69 3 O 1.032 78.187 3.30921 -1.2 1 0.00419659 0.00462241 0.00158966 0.00827045 0.00177629 0.00647323 0.00177814 0.022466 0.00154653 0.0110998 0.00249859 0.0280449 0.00232143 0.0205565 0.00331824 0.030103 0.00353617 0.0232622 0.00256388 0.0415383
70 3 O 1.25574 78.3602 5.91679 -1.2 1 0.00539133 0.00330865 0.00171424 0.00829367 0.00196236 0.00662053 0.00246243 0.0218184 0.00171736 0.0111725 0.00243356 0.0276952 0.00242256 0.0199757 0.00480819 0.0296525 0.00379231 0.0224611 0.00485556 0.0412374
71 1 Mg 0.127109 74.494 3.11344 1.2 1 0.0024584 0.00522497 0.00108189 0.00822689 0.00111042 0.00686997 0.00107593 0.0222664 0.00154477 0.0108534 0.00143903 0.0284749 0.00177257 0.0197255 0.00273629 0.0303446 0.00275989 0.0241889 0.00283785 0.0409977
72 1 Mg -0.00646139 71.2936 4.67974 1.2 1 0.00588779 0.00577675 0.00234854 0.00763423 0.00217145 0.00551156 0.000999114 0.0219277 0.00261339 0.0105173 0.00239461 0.027013 0.00218432 0.0199369 0.00395674 0.0305219 0.00340273 0.0243917 0.00510032 0.0416769
73 2 Si 2.208 73.2957 4.53948 2.4 1 0.00448039 0.00506117 0.00190278 0.00843371 0.00267333 0.00557196 0.00166064 0.020979 0.00196356 0.0109375 0.00251898 0.0270967 0.00214622 0.0201912 0.00397556 0.0300907 0.00354884 0.0236755 0.00478446 0.0410278
74 3 O -0.977857 73.4186 4.63192 -1.2 1 0.00473072 0.00482757 0.00165667 0.00849842 0.00217648 0.00547352 0.00115395 0.0206743 0.00250922 0.0110326 0.0020882 0.0271274 0.00189519 0.0200621 0.00395102 0.0305509 0.00363526 0.0235111 0.00439823 0.0417105
75 3 O 1.1947 69.5709 4.64777 -1.2 1 0.00592759 0.00645574 0.00259565 0.00783202 0.00244301 0.00502004 0.00129102 0.0215783 0.00198213 0.010349 0.00172704 0.0266646 0.00257731 0.0192447 0.00463864 0.0302436 0.00302883 0.0245818 0.00549022 0.0422356
76 3 O 1.49354 72.7782 3.34534 -1.2 1 0.00525551 0.00569861 0.00148695 0.00804235 0.00252483 0.00570032 0.00149562 0.0220779 0.00232414 0.010894 0.00265143 0.0268288 0.00233478 0.0203398 0.00382732 0.0304091 0.00340211 0.0245382 0.00385483 0.0421522
77 1 Mg 0.0933735 74.6769 0.140453 1.2 1 0.00586823 0.00520507 0.000689916 0.00823925 0.00145085 0.00654646 0.00159947 0.0223003 0.00227567 0.0114966 0.00193584 0.0283106 0.00233223 0.0201997 0.00370643 0.0309441 0.00311479 0.0249401 0.00375381 0.039663
78 3 O 1.43346 72.6813 5.89814 -1.2 1 0.00586734 0.00476994 0.00214328 0.00757083 0.00257792 0.00594412 0.00147601 0.0220094 0.0021822 0.0110627 0.00254733 0.0265772 0.00306848 0.0203392 0.00403903 0.0304803 0.00330625 0.0236241 0.00496847 0.0409675
79 1 Mg 0.226136 77.6613 1.59571 1.2 1 0.00167533 0.00586449 0.00159475 0.00822277 0.00105014 0.00659787 0.00167817 0.0222782 0.00239359 0.0117252 0.0020542 0.0282695 0.00218615 0.0203052 0.00355931 0.0304079 0.0035838 0.024026 0.00219124 0.0410916
80 2 Si -1.95288 75.6228 1.60709 2.4 1 0.00296054 0.00481917 0.000709554 0.0090517 0.00133659 0.00591687 0.00177849 0.0214923 0.00206199 0.0113053 0.00219542 0.0275864 0.00216298 0.0202713 0.00520196 0.0300287 0.00486031 0.0239028 0.00356816 0.0413597
81 3 O 1.18408 75.6677 1.62961 -1.2 1 0.00277814 0.00532128 0.000838817 0.00901338 0.000976238 0.00609965 0.00156319 0.021456 0.00227623 0.0111119 0.00153155 0.0273153 0.00245765 0.0202291 0.00268763 0.0305916 0.00327297 0.0241638 0.00255015 0.0412425
82 3 O -0.980883 79.435 1.32873 -1.2 1 0.00399914 0.00558762 0.000931951 0.00778667 0.00131945 0.00615962 0.00140258 0.0224622 0.00159204 0.0114273 0.0016762 0.0284457 0.00249088 0.0198654 0.00421232 0.0288404 0.0034405 0.0234809 0.00321452 0.0408232
83 3 O -1.21141 76.3631 0.535693 -1.2 1 0.0036138 0.00564006 0.000901163 0.00863457 0.00120589 0.00672084 0.0016974 0.0221099 0.00206383 0.0113762 0.00194132 0.0274061 0.00240378 0.0205092 0.00391145 0.0305751 0.00388676 0.0242366 0.00318244 0.0400539
84 3 O -1.29867 76.1528 3.04516 -1.2 1 0.000554024 0.00462146 0.000805967 0.00860789 0.00118936 0.00676751 0.00172824 0.0223412 0.0018875 0.0113828 0.00148336 0.0278732 0.00198745 0.0205722 0.00392108 0.0298357 0.00365639 0.0235701 0.00285338 0.0416276
85 1 Mg -2.3562 79.9422 -0.0924966 1.2 1 0.00305 0.00621227 0.00169256 0.00745499 0.00146852 0.00633148 0.00124849 0.0221736 0.00145742 0.0111182 0.00183518 0.0287901 0.00221046 0.0195912 0.00293582 0.0293994 0.00332904 0.023628 0.00226986 0.0396039
86 1 Mg 2.50889 82.8939 1.47563 1.2 1 0.00485445 0.00669093 0.00166539 0.00723426 0.00170682 0.00577958 0.00131408 0.0229742 0.00220628 0.0112303 0.00266752 0.0281676 0.00203479 0.020106 0.00402689 0.0296809 0.00365144 0.0233302 0.00346129 0.0415347
87 2 Si -0.225966 80.9409 1.39988 2.4 1 0.0051655 0.00563478 0.00172195 0.00840666 0.00198408 0.00529556 0.00134137 0.0218531 0.00177536 0.0110898 0.00214871 0.0279996 0.00281001 0.0202128 0.0038705 0.029264 0.00387006 0.022853 0.00277415 0.0419344
88 3 O 1.35925 81.0233 1.44655 -1.2 1 0.00570018 0.00560843 0.00170589 0.00790217 0.00213499 0.00505493 0.00159994 0.0216809 0.00242742 0.0107733 0.00235176 0.0280665 0.00225249 0.0197907 0.00381464 0.0296515 0.00378723 0.0227578 0.00363028 0.042105
89 3 O -1.28485 84.6162 1.32352 -1.2 1 0.00413682 0.00687192 0.00111927 0.00733949 0.00137696 0.0059051 0.00143649 0.0233783 0.0012545 0.0112929 0.00239458 0.0281302 0.0023025 0.0205866 0.00348508 0.0299748 0.00308242 0.0233121 0.0037448 0.0416645
90 3 O -0.88569 81.5685 0.0562073 -1.2 1 0.00367609 0.00601127 0.00183792 0.00746141 0.00177132 0.0055485 0.00157899 0.0225741 0.00196566 0.0112682 0.00164968 0.0276641 0.00245207 0.0204278 0.00261156 0.0295433 0.00355573 0.0234595 0.00270381 0.0408041
91 1 Mg -2.20841 90.4557 2.8792 1.2 1 0.00377665 0.00568587 0.00185896 0.00679556 0.00120532 0.00696233 0.000950977 0.0233908 0.00113779 0.0114718 0.0015438 0.0282362 0.00113481 0.020206 0.00231081 0.0303094 0.00217378 0.0242041 0.00250063 0.0414543
92 3 O -0.981854 81.6441 2.68534 -1.2 1 0.00541113 0.00571421 0.00183927 0.00734485 0.00203505 0.00585675 0.00178579 0.0223882 0.00222954 0.0106263 0.00243752 0.0282363 0.00317476 0.0200817 0.00348597 0.0297527 0.00333325 0.0227995 0.00311369 0.0418906
93 1 Mg -2.2171 87.4802 4.20272 1.2 1 0.0021772 0.00586035 0.00169115 0.00675184 0.00134891 0.00618792 0.00160407 0.0228229 0.00175088 0.011131 0.00271107 0.0273017 0.00235714 0.0205448 0.00343778 0.0306131 0.00314759 0.0236216 0.00399322 0.0426844
94 2 Si 0.377244 89.2876 4.19143 2.4 1 0.00301478 0.00501788 0.00174795 0.00733831 0.00125879 0.00648228 0.00116658 0.0228613 0.0012452 0.0111531 0.00237023 0.0266428 0.00179482 0.0209982 0.00275882 0.0305484 0.0025504 0.024073 0.00251875 0.0433837
95 3 O -1.1005 89.6007 4.38937 -1.2 1 0.00285962 0.00506886 0.00165227 0.00720172 0.00118455 0.00649876 0.00113916 0.023001 0.00192599 0.0109521 0.00178434 0.0275964 0.00165937 0.020239 0.00283673 0.0307418 0.0028265 0.0239297 0.00272706 0.0428056
96 3 O 1.65235 85.7707 4.23328 -1.2 1 0.00245105 0.00625167 0.00115846 0.00690084 0.00131531 0.00596644 0.00120836 0.0236131 0.000999997 0.0110489 0.00197593 0.0274891 0.00289253 0.0202943 0.0030062 0.0298635 0.00295609 0.0233987 0.00318835 0.0426431
97 3 O 1.1689 88.6875 2.84264 -1.2 1 0.00278701 0.00645805 0.0018384 0.00681033 0.0018194 0.00641352 0.00208285 0.0236031 0.00149498 0.0110562 0.00198896 0.0266735 0.0018039 0.021023 0.00279796 0.0309676 0.00251292 0.0243542 0.00297594 0.0428929
98 3 O 1.04414 88.6258 5.39525 -1.2 1 0.0017002 0.00530448 0.0013183 0.00698447 0.00150059 0.00649681 0.00152932 0.0226688 0.00152458 0.0108702 0.001679 0.0272089 0.00282423 0.0208853 0.00250691 0.0308574 0.00264258 0.0240319 0.00268817 0.0430084
99 1 Mg 0.0879745 85.0085 2.81696 1.2 1 0.00354385 0.00655482 0.00134438 0.00712896 0.0014937 0.00577053 0.00115237 0.0226387 0.00107173 0.0106208 0.00132183 0.027584 0.00205347 0.0195964 0.00289899 0.0301548 0.00247685 0.0234124 0.00307677 0.0418199
100 1 Mg 0.0976214 82.3647 4.30126 1.2 1 0.00638381 0.00551984 0.00184336 0.00747255 0.00219241 0.00609127 0.0016814 0.0222329 0.00186349 0.0107013 0.00221973 0.0283813 0.0031217 0.020033 0.00383812 0.0298401 0.00278947 0.0232504 0.00355404 0.0426043
101 2 Si 2.26522 84.3229 4.4879 2.4 1 0.00398101 0.00610342 0.00147253 0.00786392 0.00231007 0.00574097 0.00222052 0.0227262 0.00141583 0.0104511 0.00224976 0.0272877 0.00310783 0.0201842 0.00443678 0.0294015 0.00333357 0.0229733 0.00371308 0.0441491
102 3 O -0.870117 84.2279 4.46769 -1.2 1 0.00413039 0.0058355 0.00188454 0.00759773 0.00199457 0.00572103 0.00181099 0.0221603 0.00155932 0.0103833 0.00254129 0.0280144 0.00292241 0.0195865 0.00298594 0.0292991 0.00282231 0.0228223 0.00359962 0.0433825
103 3 O 1.05744 80.5967 4.50181 -1.2 1 0.00597625 0.00424775 0.00185774 0.00789646 0.00184145 0.00612864 0.00147668 0.0229138 0.00137805 0.011087 0.00235602 0.0282531 0.00269633 0.0196254 0.0031591 0.0291873 0.00281748 0.0230169 0.00349554 0.0425493
104 3 O 1.63613 83.5724 3.21931 -1.2 1 0.00479641 0.00586506 0.00138304 0.00736981 0.00199226 0.0056523 0.00215122 0.022407 0.00179817 0.01036 0.00208089 0.0273768 0.00250945 0.0197788 0.00346568 0.0297439 0.00265667 0.0229124 0.00304331 0.0429227
105 1 Mg 0.142725 84.984 -0.0981213 1.2 1 0.00288048 0.00682098 0.000940289 0.00729059 0.000928502 0.0061553 0.00123603 0.0231083 0.00118319 0.0113035 0.00140765 0.02802 0.00159553 0.0198194 0.00231489 0.0303493 0.00251058 0.0238601 0.0031565 0.041242
106 3 O 1.63817 83.7068 5.80105 -1.2 1 0.00435407 0.00594973 0.00218754 0.00726976 0.0024756 0.00581631 0.00214482 0.0227062 0.00179942 0.00989584 0.0022261 0.0271847 0.00274495 0.0194603 0.00474576 0.0300235 0.00335277 0.0232463 0.00472827 0.0439569
107 1 Mg 0.139867 88.0396 1.2464 1.2 1 0.00308637 0.00715406 0.00112765 0.00696885 0.000909074 0.00615444 0.00126247 0.0233168 0.00186805 0.0116089 0.00254608 0.0277283 0.00196765 0.0209472 0.00292494 0.0308782 0.00334865 0.024197 0.00368879 0.0421786
108 2 Si -1.83149 86.1462 1.36569 2.4 1 0.00347411 0.00693786 0.000638526 0.00779812 0.00153908 0.00586085 0.00192652 0.0227284 0.00133334 0.011514 0.00286107 0.0270624 0.00237251 0.0210089 0.00415663 0.0298569 0.00293678 0.023367 0.00299493 0.0429659
109 3 O 1.35262 86.0538 1.37255 -1.2 1 0.00308913 0.00731425 0.000618731 0.00754585 0.00183117 0.00549545 0.00160267 0.0223654 0.00228456 0.0110544 0.00178384 0.0274479 0.00279006 0.0206713 0.00341496 0.0297833 0.00389404 0.0229385 0.00389086 0.0422584
110 3 O -0.732485 89.939 1.44155 -1.2 1 0.00309561 0.00637618 0.00187168 0.00726333 0.00123437 0.00669015 0.00139534 0.0236493 0.000862675 0.0112092 0.00208679 0.0277363 0.00267064 0.020572 0.00373806 0.0303631 0.00302937 0.0241934 0.00276496 0.0421771
111 3 O -1.15832 86.8249 0.0679964 -1.2 1 0.00244525 0.0071564 0.000680659 0.0069521 0.00112554 0.00597943 0.00171421 0.0228482 0.000994362 0.011399 0.00198232 0.0272305 0.00203629 0.0207336 0.00303674 0.0303713 0.00250205 0.0240371 0.00283963 0.0426053
112 3 O -1.15638 86.7915 2.56615 -1.2 1 0.00272524 0.00675037 0.000851597 0.00712127 0.00180096 0.00616479 0.0021285 0.0226447 0.00219122 0.0112225 0.00186362 0.0266758 0.00218317 0.0209162 0.00346281 0.0307183 0.0032014 0.0234511 0.0028984 0.0428785
113 1 Mg -2.14065 90.1673 -0.0364427 1.2 1 0.00349066 0.00640223 0.00149484 0.00729593 0.00110697 0.00639137 0.00146172 0.023602 0.00122636 0.011064 0.00208179 0.0284697 0.0019671 0.0208206 0.00347501 0.0303309 0.00257933 0.0246672 0.00287325 0.0424276
114 1 Mg 2.37497 93.3399 1.34507 1.2 1 0.00402819 0.0054762 0.00164595 0.00711341 0.00097467 0.00657513 0.00151107 0.0234438 0.00209886 0.0111469 0.00289051 0.0279008 0.00257629 0.0211786 0.00420292 0.0303263 0.00296808 0.0253589 0.00354019 0.0423164
115 2 Si -0.0621167 91.5841 1.42074 2.4 1 0.00375416 0.00533205 0.00189231 0.00776615 0.00174434 0.00675782 0.00174176 0.0228987 0.00158835 0.0113241 0.00226421 0.0271462 0.00194157 0.0212769 0.00363791 0.030191 0.00349142 0.0244019 0.00317538 0.0427685
116 3 O 1.46246 91.4498 1.58269 -1.2 1 0.00381879 0.00545823 0.00171846 0.00755695 0.00132263 0.00650796 0.00143567 0.0222097 0.00212529 0.010989 0.00175256 0.0274291 0.00164458 0.0207979 0.00267689 0.0308106 0.00202749 0.0243311 0.00316326 0.0424854
117 3 O -1.13943 95.1181 1.24776 -1.2 1 0.00292429 0.00486556 0.00169092 0.00719176 0.00123713 0.00699652 0.00123121 0.0240552 0.00188872 0.0108517 0.00199708 0.0276379 0.00259531 0.0208557 0.00276859 0.0297322 0.00344448 0.0255202 0.00324336 0.0428257
118 3 O -0.824162 92.021 0.0608623 -1.2 1 0.00384336 0.00566254 0.00171903 0.0074434 0.00143651 0.00659181 0.00231037 0.0233846 0.00153937 0.010853 0.00258633 0.0275382 0.0028877 0.0213993 0.00504262 0.0306602 0.00373668 0.0248053 0.00340481 0.0428401
119 1 Mg -2.31815 100.723 2.94214 1.2 1 0.00203573 0.00575006 0.00124329 0.00767162 0.000941912 0.00706728 0.00136156 0.0238874 0.00120882 0.0117494 0.00122758 0.0282168 0.00187186 0.0210332 0.00291418 0.0297364 0.00248063 0.0263756 0.00240961 0.0414596