ITEM: TIMESTEP
16200
ITEM: NUMBER OF ATOMS
5600
ITEM: BOX BOUNDS xy xz yz pp pp pp
0	7.1235	0
0	201.985	2.3745
0	119.584	0
ITEM: ATOMS id type element xu yu zu q Q_1 Q_2 Q_3 Q_4 Q_5 Q_6 Q_7 Q_8 Q_9 Q_10 Q_11 Q_12 Q_13 Q_14 Q_15 Q_16 Q_17 Q_18 Q_19 Q_20 Q_21
1 1 Mg -1.57916 49.5171 -0.968845 1.2 1 0.238366 0.0822593 0.0207508 0.0265677 0.00608511 0.0139678 0.00492756 0.0209386 0.00419405 0.0249805 0.00610607 0.030217 0.0101342 0.0276508 0.00662624 0.0247609 0.00795092 0.0237237 0.0108461 0.0335597
2 1 Mg 3.0441 51.2513 2.27804 1.2 1 0.189103 0.0688773 0.0104101 0.0200685 0.00308036 0.00976141 0.00364767 0.017573 0.00340083 0.0192496 0.00454862 0.0259811 0.00604899 0.023772 0.00524615 0.0232066 0.00615335 0.0200457 0.00894007 0.031432
3 2 Si 0.889683 51.1759 0.263517 2.4 1 0.198762 0.0717937 0.013646 0.0214583 0.00450205 0.0115593 0.00335125 0.0194792 0.00416945 0.0213103 0.00377692 0.0279553 0.00807336 0.0254239 0.00475109 0.0243712 0.00707561 0.0205324 0.00950228 0.0334801
4 3 O 2.15508 50.2823 0.590482 -1.2 1 0.214166 0.0759899 0.015649 0.0236959 0.00477692 0.0110717 0.00383797 0.0188463 0.00475237 0.0216523 0.00471518 0.0266952 0.00882889 0.0257793 0.00596847 0.0235852 0.00779761 0.0213568 0.00971276 0.0318924
5 3 O -1.19076 53.7094 1.44277 -1.2 1 0.135158 0.0526972 0.00446435 0.0142924 0.0024282 0.00839709 0.0025623 0.0182789 0.00326135 0.0167959 0.00283755 0.026659 0.0050697 0.0219324 0.00296179 0.0249354 0.0058132 0.0194335 0.00742979 0.0346009
6 3 O 0.132015 50.4366 -0.900409 -1.2 1 0.209387 0.0759543 0.0148683 0.0229418 0.00498357 0.0121451 0.00417347 0.0200414 0.00420362 0.0232933 0.00513437 0.0292723 0.008423 0.0269313 0.00488988 0.0245366 0.00637894 0.0216608 0.00920949 0.0334196
7 1 Mg -2.34152 59.6138 2.90126 1.2 1 0.0155533 0.0127276 0.0048034 0.00655961 0.00124073 0.00672252 0.00145793 0.0218644 0.00239205 0.0107702 0.00213547 0.0288769 0.00292056 0.0206237 0.00347223 0.0307909 0.00418941 0.0236371 0.00510833 0.045193
8 3 O 0.191893 51.2196 1.63067 -1.2 1 0.185281 0.0681345 0.0104739 0.0199124 0.00289447 0.00979819 0.00356939 0.0187386 0.00371014 0.0205896 0.00437956 0.0265444 0.00664384 0.0243842 0.0050274 0.0238141 0.0067188 0.0208116 0.00853923 0.0319288
9 1 Mg -2.2361 56.5998 4.48592 1.2 1 0.073082 0.0344198 0.00419858 0.00907783 0.00212583 0.00637544 0.00183383 0.019315 0.00242663 0.0133532 0.00225713 0.0266908 0.00261312 0.0203832 0.00386522 0.0270023 0.00380016 0.0211191 0.00641793 0.0387523
10 2 Si 0.471091 58.5382 4.46613 2.4 1 0.0315256 0.0201164 0.0058846 0.00760646 0.00170332 0.00641501 0.00255189 0.0209655 0.00274853 0.0107973 0.00343265 0.0275557 0.00365444 0.0208262 0.00561412 0.0294734 0.00406414 0.022446 0.00578084 0.0429194
11 3 O -1.07536 58.5826 4.42756 -1.2 1 0.0287679 0.0192062 0.00670502 0.00687143 0.0016936 0.00594444 0.00231259 0.0209519 0.00284119 0.0105992 0.00179009 0.0281096 0.00342876 0.020389 0.00355317 0.0299436 0.00455256 0.0224635 0.00583299 0.0435241
12 3 O 1.73894 54.5891 4.71028 -1.2 1 0.119038 0.0472906 0.00221961 0.0126712 0.00190681 0.00766063 0.00274935 0.0193092 0.00196456 0.0166704 0.00335765 0.0267047 0.0036116 0.021525 0.00368527 0.0238274 0.00397114 0.0193038 0.00682992 0.0359775
13 3 O 1.07127 57.7313 3.18827 -1.2 1 0.0458608 0.026186 0.00621529 0.00746165 0.0019916 0.00596173 0.00170538 0.0211994 0.00223324 0.0121023 0.00228132 0.0273073 0.00266787 0.0208786 0.00392403 0.0286967 0.00419569 0.0220908 0.006146 0.0412682
14 3 O 1.07698 57.8163 5.76258 -1.2 1 0.0452493 0.0257922 0.00680149 0.00755769 0.00184947 0.0063626 0.00166333 0.0202603 0.00243157 0.011488 0.00214957 0.0276098 0.00281123 0.0201524 0.00461532 0.0287975 0.0036758 0.022018 0.00607752 0.0414915
15 1 Mg 0.314651 53.6667 2.76411 1.2 1 0.133277 0.0536665 0.00221169 0.0144374 0.00184549 0.00824377 0.00238218 0.0182472 0.00293593 0.0173481 0.00329569 0.0267011 0.00432667 0.0210749 0.00441138 0.0238897 0.00402941 0.0193062 0.00729429 0.0339078
16 1 Mg 0.960613 50.2976 3.0898 1.2 1 0.214442 0.0739511 0.0149617 0.0235436 0.00356096 0.0108909 0.00454743 0.0182047 0.00323641 0.0208082 0.00387663 0.0253246 0.00773221 0.0255226 0.0058762 0.0224944 0.00758455 0.020963 0.00999028 0.0309404
17 2 Si 2.45872 53.1341 4.76932 2.4 1 0.155321 0.0581695 0.00553594 0.0158194 0.00288492 0.00834058 0.0036444 0.0178131 0.00257561 0.0175734 0.00398844 0.025903 0.00487834 0.0214662 0.00476663 0.0230319 0.00410055 0.0183176 0.00804036 0.0333693
18 3 O -0.72343 53.3784 4.64791 -1.2 1 0.137821 0.0528047 0.00387081 0.0139304 0.00277155 0.00727259 0.00342957 0.0183326 0.00264848 0.0167411 0.00284857 0.0269305 0.00486776 0.0223637 0.00374202 0.0235861 0.00464965 0.01864 0.00704783 0.0346253
19 3 O 2.68225 49.4856 3.25165 -1.2 1 0.234732 0.078791 0.0183671 0.0256934 0.00454172 0.013012 0.0049102 0.0189842 0.00323323 0.0222336 0.00546907 0.0261843 0.00903942 0.0254566 0.00723353 0.0222083 0.00817122 0.0218604 0.0101616 0.0300813
20 3 O 1.93289 52.421 3.43284 -1.2 1 0.162539 0.0597096 0.00690412 0.0161513 0.00326163 0.00878126 0.00373611 0.0181568 0.00256334 0.0180776 0.00370914 0.0263084 0.00558464 0.0226678 0.00505495 0.0239183 0.00436814 0.0189333 0.00759077 0.0330732
21 1 Mg -0.0457922 54.4872 -0.142273 1.2 1 0.113696 0.0493712 0.00128517 0.0129204 0.00211918 0.00739077 0.00232259 0.018843 0.00385901 0.0168437 0.00323648 0.028014 0.00382823 0.0216644 0.00352586 0.0258824 0.00543075 0.0202379 0.00740966 0.0369493
22 3 O 1.90375 52.15 5.88814 -1.2 1 0.171333 0.0629867 0.00765097 0.0181185 0.00300561 0.0096241 0.00318135 0.0180479 0.00318786 0.0189289 0.00423805 0.0260994 0.00525312 0.0221628 0.00458917 0.0225261 0.00403219 0.0179431 0.00816713 0.0328286
23 1 Mg 0.034836 57.0769 1.65293 1.2 1 0.0540605 0.0299021 0.00603739 0.00741207 0.00189177 0.00623637 0.00167476 0.0195216 0.00406121 0.0125461 0.00246306 0.0277024 0.00258284 0.0206709 0.00397195 0.0280373 0.00536075 0.0207836 0.00671379 0.0405249
24 2 Si -1.97442 55.1447 1.66068 2.4 1 0.106273 0.0458457 0.00157897 0.0114596 0.00207449 0.00689046 0.00202351 0.0185562 0.00389559 0.0149095 0.00277937 0.0264735 0.00347429 0.0215423 0.00355266 0.0255985 0.00592276 0.0193524 0.00727566 0.0369434
25 3 O 1.22566 55.0062 1.51656 -1.2 1 0.11089 0.0464336 0.00155865 0.0120235 0.00185357 0.00736008 0.00228999 0.0183354 0.00339459 0.0153505 0.00265205 0.0265954 0.0039875 0.0211412 0.0036758 0.0257472 0.00496158 0.0198688 0.00684598 0.0359821
26 3 O -0.967367 59.1211 1.48324 -1.2 1 0.0233472 0.0171699 0.00641574 0.0062721 0.00164808 0.00626458 0.00133719 0.0214694 0.00345753 0.0109347 0.00245648 0.0289007 0.00380019 0.0207194 0.00434697 0.0309085 0.00606386 0.0231619 0.00598288 0.044538
27 3 O -1.31175 55.9084 0.340806 -1.2 1 0.0817831 0.038635 0.00325209 0.0089914 0.00213531 0.0063643 0.00180355 0.0193521 0.00388034 0.013756 0.00278953 0.0268611 0.00301738 0.0208938 0.003695 0.0277696 0.00610269 0.0205943 0.00664649 0.0387594
28 3 O -1.26611 55.7969 2.84332 -1.2 1 0.0872186 0.0393098 0.00292374 0.00937593 0.001836 0.00634218 0.00195655 0.019153 0.00415792 0.0139702 0.00217239 0.0266246 0.00275674 0.0209265 0.00342214 0.0264582 0.00550145 0.0206782 0.00696657 0.0379275
29 1 Mg -2.35998 59.6634 -0.0734292 1.2 1 0.0138114 0.0132883 0.00557304 0.00607947 0.00124683 0.00681221 0.00159859 0.0225564 0.00343478 0.0106841 0.00206233 0.0293134 0.00328034 0.0210449 0.00350213 0.0314844 0.00541014 0.0246776 0.00496511 0.0471153
30 1 Mg 2.33913 62.3421 1.67126 1.2 1 0.00166233 0.00518357 0.000823191 0.0070952 0.000657876 0.00706478 0.00123444 0.023144 0.00245934 0.0101859 0.00233678 0.0298417 0.00195232 0.0211172 0.00249974 0.0340137 0.00304012 0.0257593 0.003403 0.0505992
31 2 Si -0.325503 60.596 1.52425 2.4 1 0.00911925 0.00861324 0.00304495 0.00715636 0.0015341 0.00664717 0.000941111 0.0222122 0.00221836 0.010655 0.00266421 0.0283853 0.00340985 0.0211948 0.00297563 0.0323237 0.00506498 0.0244138 0.00453277 0.0480547
32 3 O 1.20867 60.4367 1.52975 -1.2 1 0.00913416 0.00925879 0.00347324 0.00692555 0.00145654 0.00643039 0.000979496 0.0217267 0.0027693 0.0101402 0.00220918 0.0287731 0.00312467 0.020797 0.00312608 0.0321886 0.0046205 0.0237555 0.00507004 0.0476576
33 3 O -1.26456 64.1772 1.68867 -1.2 1 0.00192793 0.00417724 0.000809922 0.00683899 0.000703241 0.00699725 0.00114898 0.023992 0.00142921 0.00945852 0.00232047 0.0301917 0.00208737 0.0202933 0.00243499 0.033917 0.00349829 0.0262234 0.00376891 0.0521834
34 3 O -0.980166 61.3198 0.266441 -1.2 1 0.00420692 0.00715386 0.00217362 0.00654501 0.000965283 0.0067541 0.000742769 0.023499 0.00243191 0.0103302 0.00254652 0.0287294 0.00297914 0.0216918 0.00271667 0.0330155 0.00479747 0.0254901 0.00362098 0.0495092
35 1 Mg -2.27465 69.9564 3.23076 1.2 1 0.00431062 0.00317995 0.00181893 0.00682288 0.00126197 0.00679128 0.00133859 0.0244242 0.0013808 0.00855868 0.00206409 0.0310352 0.0015279 0.0199936 0.00176252 0.0329703 0.00139931 0.0274396 0.00261154 0.0529004
36 3 O -1.00994 61.2953 2.8522 -1.2 1 0.00602237 0.00714184 0.00214531 0.0069893 0.00117488 0.00721577 0.00154483 0.0225775 0.00263792 0.0103382 0.00179426 0.0285219 0.00255228 0.021336 0.00306516 0.0329427 0.00381073 0.0246497 0.00462317 0.0480698
37 1 Mg -2.17232 67.0093 4.67384 1.2 1 0.0037451 0.00435036 0.00172736 0.00704114 0.00115891 0.00659268 0.00148088 0.0238474 0.00202667 0.00935682 0.00241264 0.0302424 0.00220248 0.0207795 0.00320208 0.03358 0.00323796 0.0265699 0.00362085 0.0522996
38 2 Si 0.376411 68.8627 4.76753 2.4 1 0.00446481 0.00306831 0.00184534 0.00789601 0.00157952 0.00719955 0.00168104 0.0239902 0.00221941 0.00875682 0.00293889 0.0293274 0.00237855 0.0210133 0.00345446 0.0328031 0.00342952 0.0267098 0.00407316 0.0538755
39 3 O -1.17372 68.8991 4.69928 -1.2 1 0.00455165 0.0031368 0.00190432 0.00735976 0.00151935 0.00656063 0.00146609 0.0234238 0.0027113 0.00826874 0.00216566 0.0303713 0.00225554 0.0199422 0.00235408 0.0333166 0.0027204 0.0264204 0.00396482 0.0533217
40 3 O 1.49747 65.1948 4.55617 -1.2 1 0.00313524 0.00497432 0.00121623 0.00711965 0.00106787 0.0072562 0.00111608 0.0241216 0.00137992 0.00944393 0.00237662 0.0303844 0.00221271 0.020601 0.00296149 0.0332336 0.0022814 0.026033 0.00270885 0.0516146
41 3 O 1.06322 68.2044 3.5271 -1.2 1 0.00396827 0.00361334 0.00192928 0.00706641 0.00135982 0.00648365 0.00203716 0.0238593 0.00217239 0.00884657 0.00268288 0.0296896 0.00201155 0.0207145 0.00278007 0.0333167 0.00216231 0.0265775 0.00265516 0.0529608
42 3 O 1.04255 68.1855 6.04308 -1.2 1 0.00398564 0.00335808 0.00184453 0.00684484 0.00152654 0.00672519 0.00162862 0.0245808 0.00202256 0.00912382 0.00240024 0.0293444 0.00234019 0.0208576 0.00270766 0.0333733 0.00238322 0.0270887 0.00336024 0.0529224
43 1 Mg 0.0203324 64.6733 3.16637 1.2 1 0.00234371 0.0049345 0.000990994 0.00679167 0.000758165 0.00716544 0.000906795 0.023788 0.00128545 0.0100092 0.00174624 0.0304168 0.0013292 0.0202468 0.00142575 0.033529 0.00197737 0.0259164 0.00201794 0.0510564
44 1 Mg 0.123554 61.8326 4.51325 1.2 1 0.00528193 0.00685432 0.00163567 0.00686746 0.00122375 0.00705611 0.00193358 0.0230157 0.00172032 0.0105431 0.00285171 0.0293331 0.00260099 0.0209712 0.0039369 0.0330802 0.00301023 0.0250475 0.00406546 0.0485756
45 2 Si 2.12533 63.7215 4.59977 2.4 1 0.00258026 0.0052874 0.000607965 0.00776836 0.00105846 0.00729037 0.00184218 0.0231265 0.00149345 0.00969615 0.00305939 0.0289624 0.00193367 0.0211006 0.00488851 0.0331589 0.00332283 0.0252979 0.00381377 0.0514735
46 3 O -1.0647 63.823 4.73283 -1.2 1 0.0022804 0.00530447 0.000349615 0.00741008 0.000995868 0.00716195 0.00112502 0.0231245 0.00170457 0.00935039 0.00156902 0.0298778 0.00156852 0.0202455 0.00231072 0.0336683 0.00230114 0.0253228 0.00302476 0.0511208
47 3 O 1.15265 59.9712 4.44849 -1.2 1 0.0149372 0.0129737 0.00452079 0.00702427 0.00109931 0.00678143 0.0021463 0.0218561 0.00251848 0.0104232 0.00214106 0.0286476 0.00238647 0.0207941 0.00366229 0.0307617 0.00378932 0.0235943 0.00411722 0.0454377
48 3 O 1.45423 62.9982 3.33827 -1.2 1 0.00222854 0.00512384 0.000497529 0.00704366 0.000720595 0.00718449 0.00208371 0.0235123 0.00122988 0.0101184 0.00165905 0.0288115 0.00200142 0.0212486 0.00333539 0.033987 0.00218927 0.0256934 0.00330567 0.0505184
49 1 Mg 0.0538086 64.7317 0.164555 1.2 1 0.00176798 0.00377079 0.00103993 0.00656811 0.000900661 0.00672772 0.000794459 0.0241347 0.00117382 0.00942433 0.00144953 0.0305526 0.00126693 0.0199792 0.00162657 0.033776 0.00218463 0.0264846 0.00194677 0.0520394
50 3 O 1.44847 63.079 5.92555 -1.2 1 0.00332358 0.00603022 0.00107263 0.00718791 0.00119869 0.00719976 0.00183552 0.0236924 0.00169886 0.0101926 0.00188712 0.02929 0.00187557 0.0211698 0.00399618 0.0335907 0.00266926 0.0252457 0.00355193 0.0507376
51 1 Mg 0.166815 67.5198 1.73864 1.2 1 0.00414785 0.00397339 0.00216484 0.00675747 0.00107399 0.00602367 0.00124757 0.0238569 0.00224106 0.00933699 0.00336241 0.0309869 0.00287103 0.0207215 0.00314188 0.0340255 0.0030085 0.0269522 0.00312731 0.0537336
52 2 Si -1.90588 65.6627 1.63937 2.4 1 0.00255237 0.00411337 0.00132684 0.00734999 0.00130415 0.00670335 0.00175471 0.0235555 0.0020073 0.00977602 0.00264041 0.0296187 0.00263813 0.0210908 0.00393134 0.0332342 0.00371741 0.0258635 0.00298231 0.0536408
53 3 O 1.27831 65.6021 1.6221 -1.2 1 0.00289191 0.00406292 0.00155777 0.00697728 0.00133791 0.00663615 0.00140991 0.0237053 0.00258153 0.00920998 0.00205112 0.0300895 0.00186066 0.0200793 0.00163781 0.0337272 0.00283025 0.0259075 0.00244406 0.053156
54 3 O -0.964607 69.2874 1.63525 -1.2 1 0.00424513 0.00335438 0.00217703 0.00685998 0.00116092 0.0067201 0.00138065 0.024931 0.00146968 0.00871487 0.00236567 0.0306275 0.00219832 0.0200931 0.0023456 0.033016 0.00205483 0.0272616 0.00236037 0.0536419
55 3 O -1.26382 66.3008 0.352656 -1.2 1 0.00280987 0.00360937 0.00209408 0.00670142 0.00142606 0.00629083 0.00233291 0.0244227 0.0022665 0.00967728 0.00280733 0.0294915 0.00288849 0.0206976 0.00343016 0.0341805 0.00297201 0.0267543 0.00254725 0.0536778
56 3 O -1.168 66.3297 2.85313 -1.2 1 0.00321116 0.00453465 0.00141441 0.00662648 0.00126675 0.00691537 0.00123325 0.0243898 0.00199252 0.00946753 0.00206271 0.0293902 0.00233474 0.0211219 0.00343045 0.033773 0.00335645 0.0269246 0.00277949 0.0526354
57 1 Mg -2.26308 69.8168 0.173165 1.2 1 0.00425172 0.00318359 0.00176389 0.00645885 0.00159699 0.00659502 0.00144046 0.0246521 0.00154087 0.00899642 0.00210249 0.0316001 0.00170155 0.0199535 0.0021649 0.0329022 0.00164324 0.0266435 0.00262221 0.052703
58 1 Mg 2.39626 72.7828 1.63148 1.2 1 0.0032181 0.00306702 0.0011147 0.0071908 0.0015431 0.00568083 0.00163229 0.024495 0.00201821 0.00919631 0.00229269 0.0309766 0.0021937 0.0205269 0.00312501 0.0330209 0.00210163 0.0269614 0.00247666 0.0531719
59 2 Si -0.229106 70.8349 1.74052 2.4 1 0.00418805 0.00271362 0.00129905 0.00781314 0.00128428 0.00630479 0.00169956 0.0241568 0.00169806 0.0088667 0.00245756 0.0299823 0.00236865 0.0205734 0.0042 0.0327712 0.00303876 0.0267416 0.00290648 0.0544096
60 3 O 1.30398 70.7338 1.70287 -1.2 1 0.00403108 0.00308768 0.00176555 0.00741524 0.00136313 0.00653433 0.00146764 0.0238153 0.00265854 0.00842848 0.00219001 0.0305455 0.00171746 0.0197054 0.00241798 0.0335426 0.00205695 0.0269043 0.00272112 0.0538477
61 3 O -1.2178 74.5692 1.76294 -1.2 1 0.00215567 0.00297833 0.00103128 0.00729275 0.00152286 0.00638718 0.000902463 0.0252594 0.00121317 0.00897932 0.00237268 0.0312075 0.0016216 0.0201968 0.00354265 0.0325274 0.00317301 0.0269482 0.00333487 0.053131
62 3 O -0.973447 71.5668 0.536084 -1.2 1 0.00370977 0.00270592 0.00104708 0.00708771 0.00139378 0.00577489 0.00200262 0.02421 0.00163669 0.00919893 0.00192676 0.03023 0.00214541 0.0206472 0.00317924 0.0331186 0.0024299 0.026471 0.00246786 0.0533269
63 1 Mg -2.28848 80.118 3.22093 1.2 1 0.000596313 0.0038494 0.00177997 0.00692416 0.00111069 0.00573709 0.00119521 0.0250884 0.00112649 0.00856997 0.00137573 0.0317588 0.0018956 0.0201192 0.00268714 0.032566 0.00304741 0.0259534 0.00324498 0.052924
64 3 O -0.917583 71.4582 3.03188 -1.2 1 0.00418908 0.00331973 0.00150288 0.00696874 0.00168384 0.00609347 0.00175315 0.0246483 0.00183566 0.0090798 0.00189786 0.0301344 0.00257627 0.0210032 0.00375741 0.0330125 0.00280438 0.0274405 0.00297744 0.0538909
65 1 Mg -2.20556 77.3659 4.75282 1.2 1 0.000984106 0.00427256 0.00115071 0.00686111 0.00106909 0.00514287 0.00100512 0.0250992 0.00149975 0.00864465 0.00206418 0.0312159 0.00203527 0.0205699 0.00330356 0.0332743 0.00374545 0.0271097 0.0043332 0.0538969
66 2 Si 0.425967 79.179 4.72008 2.4 1 0.00130908 0.00426743 0.00124494 0.00776883 0.00204678 0.00559924 0.00191779 0.0250746 0.00144918 0.00898344 0.00219783 0.0302898 0.00251665 0.0210544 0.00380777 0.0327965 0.00306409 0.0261903 0.0031283 0.0552072
67 3 O -1.09586 79.2673 4.77171 -1.2 1 0.00158326 0.00420534 0.00133963 0.00719984 0.00169364 0.00502309 0.00150994 0.0244375 0.00265209 0.00857798 0.00214724 0.0305458 0.00280443 0.0203765 0.00348934 0.0331744 0.00432582 0.0259843 0.00464823 0.0543517
68 3 O 1.56715 75.5654 4.69525 -1.2 1 0.00198027 0.00390485 0.00126811 0.00726077 0.00129137 0.00593968 0.000912575 0.0251368 0.00148522 0.00869298 0.00130966 0.0311488 0.00290136 0.0204979 0.00381231 0.0324475 0.00334881 0.0270374 0.00446687 0.053866
69 3 O 1.04498 78.4968 3.42272 -1.2 1 0.000624325 0.00407685 0.00124046 0.00715568 0.00159854 0.00526615 0.00138236 0.0250042 0.00154814 0.00954651 0.00166599 0.0300944 0.00191923 0.02109 0.00250895 0.0331175 0.00284359 0.0263323 0.00305051 0.0540729
70 3 O 1.14158 78.518 5.94436 -1.2 1 0.00171132 0.00449858 0.00139618 0.00670487 0.00184034 0.00495405 0.00136484 0.0250764 0.00171023 0.00900741 0.00164931 0.0303232 0.00237767 0.0214745 0.00268514 0.0330696 0.00299839 0.0265185 0.00332408 0.0544897
71 1 Mg 0.172588 75.0707 3.25862 1.2 1 0.00228481 0.00358276 0.000932723 0.007013 0.00138668 0.00589264 0.000916686 0.0249359 0.00131612 0.00898003 0.00106907 0.0311189 0.00174412 0.0199813 0.00209036 0.032689 0.00222279 0.026989 0.00285406 0.052989
72 1 Mg -0.0588174 72.2043 4.68623 1.2 1 0.00365711 0.00321108 0.00135942 0.0070942 0.0013472 0.00565722 0.00168948 0.0240833 0.00217744 0.00925684 0.00255919 0.0309481 0.00198055 0.0209977 0.00299323 0.0332844 0.0028689 0.0271647 0.00401637 0.0535204
73 2 Si 2.19679 74.0632 4.69827 2.4 1 0.00307969 0.00321398 0.00118146 0.00779009 0.00175333 0.00603016 0.00141116 0.0245454 0.00151921 0.00878819 0.0021529 0.0297556 0.00293095 0.0211679 0.00375017 0.0326531 0.00269688 0.0270945 0.00358716 0.0549323
74 3 O -0.976929 74.061 4.70123 -1.2 1 0.00267884 0.00326068 0.00087218 0.00747785 0.00194861 0.00572037 0.00162762 0.0238853 0.00284588 0.0082979 0.00190156 0.0305012 0.00257704 0.0204141 0.00371396 0.0328176 0.00336341 0.0265718 0.00508689 0.0540899
75 3 O 1.04656 70.3791 4.69494 -1.2 1 0.00449908 0.00290938 0.00167617 0.00720023 0.00127549 0.00696439 0.00111258 0.0245907 0.00173513 0.00844025 0.00220206 0.03074 0.00256144 0.020218 0.00354577 0.0325922 0.00265305 0.0272032 0.00437574 0.0535392
76 3 O 1.54316 73.4106 3.37501 -1.2 1 0.00334793 0.00338799 0.00111633 0.00696783 0.0021544 0.00568708 0.0020792 0.0251007 0.0016782 0.00894572 0.00188682 0.0298192 0.00299653 0.0208726 0.00261062 0.0331481 0.00255684 0.0274983 0.00352271 0.0535141
77 1 Mg 0.0853569 75.0175 0.26024 1.2 1 0.00154084 0.00314597 0.00124129 0.00670906 0.00124077 0.00580014 0.00089666 0.0252325 0.00103141 0.00920306 0.00133497 0.0312365 0.00113085 0.0196877 0.0019551 0.0326554 0.00181436 0.0263661 0.00183154 0.0521092
78 3 O 1.52582 73.4406 6.01555 -1.2 1 0.00326152 0.00339719 0.00101705 0.00709823 0.00211218 0.00558323 0.00190326 0.0246794 0.00145013 0.00867041 0.00165002 0.0302759 0.00316569 0.0209222 0.00322513 0.0331573 0.00278196 0.0271715 0.00419401 0.0544866
79 1 Mg 0.167676 77.9138 1.75476 1.2 1 0.000755478 0.00401891 0.00151495 0.00726583 0.00116675 0.00500989 0.00125085 0.0248305 0.00223498 0.00977717 0.00232098 0.0309343 0.00250501 0.0206314 0.00266755 0.0331912 0.00319668 0.0259288 0.00281717 0.0532205
80 2 Si -1.9141 75.9663 1.76256 2.4 1 0.00150014 0.00321052 0.000952694 0.00788232 0.00101425 0.00565189 0.00181878 0.0243361 0.00153818 0.00920753 0.0027739 0.0303463 0.00188916 0.0208686 0.00452197 0.0324796 0.00424576 0.0258785 0.00389855 0.0542074
81 3 O 1.26034 75.8716 1.78469 -1.2 1 0.00144409 0.00316483 0.000847113 0.00731139 0.00112453 0.00595125 0.000750175 0.0248052 0.00182065 0.00876562 0.00130699 0.0309038 0.00169974 0.0198211 0.00241132 0.0329731 0.00242462 0.026447 0.00273357 0.0536167
82 3 O -0.963955 79.8113 1.78364 -1.2 1 0.00131702 0.00358879 0.00131684 0.00736262 0.000719073 0.00560953 0.00122386 0.0248705 0.00124995 0.0087301 0.00172906 0.0308978 0.00231371 0.0199995 0.00308692 0.0331367 0.00341373 0.025407 0.00245891 0.0529942
83 3 O -1.32856 76.657 0.441412 -1.2 1 0.000980946 0.00357756 0.00193638 0.00710412 0.00120595 0.00511662 0.00240415 0.0249804 0.00215548 0.00947301 0.00183067 0.0301882 0.00230433 0.0202624 0.00259796 0.0335485 0.00284897 0.0260494 0.00261171 0.0534679
84 3 O -1.28558 76.7437 2.97312 -1.2 1 0.00139268 0.00371375 0.000971798 0.00700799 0.00100396 0.00530341 0.00150701 0.0251647 0.0018265 0.00896731 0.00142821 0.0302022 0.00195103 0.02067 0.0023617 0.0333044 0.00275382 0.0268117 0.0027186 0.053619
85 1 Mg -2.37676 80.3077 0.232875 1.2 1 0.00183243 0.00416965 0.00122443 0.0070319 0.000936119 0.00595441 0.000987522 0.0253403 0.00082714 0.00918636 0.0012044 0.0311464 0.00115618 0.0197353 0.00170433 0.033219 0.00203019 0.0255872 0.00167578 0.0521711
86 1 Mg 2.46649 83.1582 1.71214 1.2 1 0.00100206 0.00373899 0.00169907 0.00694389 0.000939039 0.00536088 0.00151177 0.0251522 0.0019831 0.00890561 0.00273621 0.0305813 0.00223376 0.0204138 0.00336283 0.0336673 0.00354613 0.0252147 0.00327084 0.0527837
87 2 Si -0.275039 81.3085 1.76559 2.4 1 0.000864794 0.00356873 0.00131306 0.00783502 0.000943633 0.00574523 0.00166746 0.0248345 0.00158523 0.00920465 0.00228146 0.0296268 0.00242663 0.02062 0.00408287 0.0329171 0.00456192 0.0251761 0.00349051 0.0542066
88 3 O 1.32207 81.1408 1.72185 -1.2 1 0.000975517 0.00353392 0.00173772 0.00734011 0.00102819 0.00553516 0.00159503 0.0247739 0.0022213 0.00878337 0.00193191 0.030615 0.00163563 0.0199279 0.00216164 0.0335416 0.00307528 0.0253131 0.00237244 0.0531787
89 3 O -1.30929 84.9791 1.68441 -1.2 1 0.00198107 0.0040758 0.00152936 0.00697106 0.000834857 0.00595078 0.000836908 0.0254714 0.000891955 0.00863615 0.00206987 0.0309358 0.00225819 0.0201193 0.00281886 0.0332561 0.00377311 0.0253116 0.00300608 0.0530842
90 3 O -0.949174 81.9284 0.435209 -1.2 1 0.0012284 0.00391156 0.00130446 0.00695389 0.0011016 0.00536557 0.00229098 0.0252351 0.00156616 0.00922475 0.00151107 0.0299997 0.00194807 0.0205571 0.00312364 0.0338798 0.00361672 0.0256898 0.00264082 0.0530314
91 1 Mg -2.29705 90.5882 3.14897 1.2 1 0.00135191 0.00523472 0.000615261 0.00594845 0.000756226 0.00584621 0.000757717 0.0246776 0.00100223 0.00843873 0.00149253 0.0311022 0.00155938 0.0201866 0.00183974 0.0333208 0.00205699 0.0249347 0.00217373 0.0532797
92 3 O -0.967807 81.9781 3.03504 -1.2 1 0.000750837 0.00356722 0.0019621 0.00668942 0.000964957 0.00528008 0.0015379 0.0249872 0.00177434 0.00933525 0.00215332 0.0300205 0.00276516 0.0208737 0.00371891 0.0333888 0.00437561 0.0252084 0.00343958 0.053448
93 1 Mg -2.24486 87.7459 4.74779 1.2 1 0.0022011 0.00395777 0.00110903 0.00680411 0.00061996 0.00546084 0.000948841 0.024592 0.0017923 0.00895367 0.00189419 0.0309216 0.00223435 0.0206887 0.00263253 0.0332635 0.00325151 0.0249039 0.00299078 0.0532019
94 2 Si 0.468568 89.5951 4.65502 2.4 1 0.00222523 0.00461246 0.00122049 0.00728091 0.00107839 0.00609018 0.00172888 0.0245016 0.00143381 0.00897763 0.00241603 0.0298293 0.00220302 0.0212152 0.00394257 0.0327971 0.00283266 0.0245212 0.0027762 0.0543408
95 3 O -1.11139 89.6851 4.68358 -1.2 1 0.00186968 0.00478153 0.0010729 0.00673233 0.000942126 0.00557799 0.00131805 0.0243301 0.00212027 0.00867152 0.00139582 0.0303854 0.00257868 0.0203881 0.00248243 0.0333697 0.00363038 0.0244816 0.00339931 0.0537696
96 3 O 1.33484 85.9156 4.78016 -1.2 1 0.00121783 0.00345815 0.0012208 0.00679507 0.000770976 0.00612156 0.00118582 0.0252638 0.00168856 0.00836569 0.00184036 0.0310638 0.00253685 0.0200131 0.00330356 0.0329685 0.00319963 0.0252755 0.00396838 0.0537183
97 3 O 1.1924 88.9871 3.42617 -1.2 1 0.00193651 0.00491902 0.00112932 0.00622746 0.000955484 0.0054484 0.00182985 0.025038 0.00199724 0.00917067 0.00241117 0.0299664 0.00206803 0.0211706 0.00356701 0.0335218 0.00277725 0.0249404 0.00285318 0.0542036
98 3 O 1.11958 88.9265 5.95587 -1.2 1 0.00123781 0.00411934 0.00128641 0.00658288 0.000837615 0.0052753 0.00116396 0.0247004 0.0013189 0.00919703 0.0018626 0.0298629 0.00191558 0.0213571 0.00237455 0.0332898 0.00256649 0.0248152 0.00289164 0.0533729
99 1 Mg 0.114229 85.3837 3.14659 1.2 1 0.00166261 0.0036974 0.00140022 0.00658617 0.000748563 0.00568514 0.000817061 0.0251174 0.000922928 0.00868403 0.00147101 0.0310741 0.00197008 0.0198571 0.00212416 0.0330514 0.00317858 0.0249593 0.00284853 0.0525152
100 1 Mg 0.134051 82.5144 4.77562 1.2 1 0.00113943 0.00406559 0.00180197 0.00644256 0.00109632 0.00501283 0.00095068 0.0250267 0.00177397 0.00888515 0.00266641 0.030928 0.00248644 0.0207616 0.00355037 0.0333736 0.00461933 0.0258751 0.00496635 0.0536774
101 2 Si 2.07552 84.3868 4.76871 2.4 1 0.00136192 0.00358535 0.00145381 0.00723111 0.00152986 0.00565717 0.00150884 0.024869 0.00154847 0.00866136 0.00249187 0.0301012 0.00258327 0.0207623 0.00367161 0.0327293 0.00309442 0.0248871 0.00356035 0.0542447
102 3 O -1.12199 84.5109 4.75178 -1.2 1 0.000661267 0.00349541 0.00136945 0.00690537 0.00129894 0.0052574 0.00164617 0.0244308 0.00244125 0.00850314 0.00226937 0.0303272 0.00283139 0.0200939 0.00298512 0.0334041 0.00411816 0.0247537 0.00415884 0.0538218
103 3 O 1.1248 80.6987 4.706 -1.2 1 0.00162174 0.00414665 0.0017524 0.00727694 0.00123717 0.00588356 0.00142155 0.0253157 0.0017588 0.00833829 0.00187452 0.0315637 0.00252811 0.0203618 0.00366968 0.0325361 0.00356104 0.0259539 0.00479073 0.0541385
104 3 O 1.37491 83.751 3.49168 -1.2 1 0.00133863 0.00358911 0.00146199 0.00664305 0.00161576 0.00495403 0.00173516 0.0247225 0.00156721 0.00901808 0.00194594 0.0299682 0.00261357 0.0208596 0.00308041 0.0334587 0.00314957 0.0247765 0.00345546 0.0534272
105 1 Mg -0.0139218 85.5303 0.233508 1.2 1 0.00184366 0.00460543 0.000942647 0.00671315 0.000721174 0.00581034 0.000744545 0.024931 0.000668001 0.00883199 0.00103245 0.0311938 0.0013549 0.0198729 0.00154197 0.0338099 0.00229258 0.0252978 0.0026412 0.0522347
106 3 O 1.48443 83.735 6.09087 -1.2 1 0.000845178 0.00402328 0.00118128 0.00670828 0.00173425 0.00515488 0.00150808 0.0252509 0.0016395 0.00915166 0.00195422 0.0301616 0.00233237 0.0211863 0.00283661 0.0334362 0.00307113 0.0254581 0.00362513 0.0544706
107 1 Mg 0.178823 88.4416 1.68339 1.2 1 0.00150535 0.00512505 0.000857538 0.00614028 0.000638483 0.00548286 0.00113226 0.0248127 0.00212307 0.00903758 0.00204358 0.0306532 0.00234108 0.0209012 0.00293255 0.0340742 0.00289757 0.0254501 0.00222158 0.0534532
108 2 Si -2.00178 86.4753 1.82924 2.4 1 0.00178995 0.00420876 0.00116558 0.00726238 0.00120495 0.00586196 0.00150028 0.0248614 0.00132542 0.00884937 0.00221971 0.0297611 0.00235795 0.020993 0.0038305 0.0331343 0.00380939 0.0248425 0.0031723 0.0540709
109 3 O 1.24182 86.4379 1.70546 -1.2 1 0.0017606 0.00426188 0.00128021 0.00697303 0.00102407 0.0056582 0.00137865 0.024507 0.00223595 0.00849548 0.00122734 0.030283 0.00248098 0.0201505 0.00227818 0.0336178 0.00410505 0.0247439 0.00305251 0.0535481
110 3 O -0.856904 90.1744 1.73619 -1.2 1 0.00108369 0.00545641 0.000693097 0.00622715 0.000640583 0.00582472 0.000862461 0.0250672 0.0013272 0.00856176 0.00187386 0.030581 0.00251807 0.0202877 0.003092 0.0333465 0.00286072 0.0252389 0.00244916 0.0539456
111 3 O -1.36123 87.2035 0.586415 -1.2 1 0.00155175 0.00488585 0.00123662 0.00646442 0.00164299 0.00529244 0.00187269 0.0250302 0.00187281 0.00894335 0.00178533 0.029884 0.00245247 0.0214923 0.00336736 0.0340849 0.00306236 0.0252717 0.00254515 0.0536113
112 3 O -1.32781 86.999 3.14854 -1.2 1 0.00200525 0.0039814 0.000841576 0.00648528 0.00135399 0.0053366 0.00155162 0.0250203 0.00132156 0.00877511 0.00203887 0.0298909 0.00240853 0.0208441 0.00281827 0.0335331 0.00316497 0.0250178 0.00246233 0.0536812
113 1 Mg -2.32953 90.743 0.18858 1.2 1 0.000502566 0.00554551 0.000567071 0.00609911 0.000754499 0.00548983 0.000583742 0.0245267 0.00123725 0.00873445 0.000899712 0.0311403 0.00127073 0.0202655 0.00175205 0.0334937 0.00174833 0.0251033 0.00227155 0.0531069
114 1 Mg 2.57671 93.5709 1.63639 1.2 1 0.00106855 0.00605955 0.00104277 0.00612237 0.00105402 0.00521335 0.0012676 0.024638 0.00243493 0.00877756 0.00207721 0.0299898 0.00232939 0.0206034 0.00342327 0.033954 0.00255904 0.025407 0.00254563 0.055137
115 2 Si -0.209246 91.6466 1.75522 2.4 1 0.00103129 0.00558627 0.000740139 0.00688326 0.00141852 0.00584492 0.00139996 0.0246038 0.00194148 0.00850414 0.00221181 0.0291503 0.00234544 0.0211041 0.00367332 0.0332762 0.00346241 0.0247776 0.00300304 0.0554456
116 3 O 1.32539 91.5762 1.74415 -1.2 1 0.00125533 0.00538856 0.000662181 0.00649959 0.00121984 0.00566333 0.0012621 0.0242452 0.00271918 0.00827601 0.00181483 0.0301309 0.00141254 0.0200816 0.00241478 0.0339663 0.00195521 0.0248237 0.00194972 0.0543438
117 3 O -1.1953 95.371 1.71166 -1.2 1 0.000434767 0.00592266 0.000791879 0.00644258 0.000951662 0.00575237 0.00115057 0.0252167 0.00139708 0.00839566 0.00200411 0.0303317 0.001743 0.0202883 0.00285942 0.0335504 0.00272776 0.0252135 0.00293161 0.0553659
118 3 O -0.916029 92.3822 0.547681 -1.2 1 0.000292599 0.00566827 0.000752214 0.00596988 0.00114257 0.00509078 0.00105298 0.024392 0.00164627 0.00833014 0.00142587 0.0293649 0.00203283 0.0209533 0.0025382 0.0341469 0.00253318 0.0250842 0.00221422 0.0545812