ITEM: TIMESTEP
9300
ITEM: NUMBER OF ATOMS
5600
ITEM: BOX BOUNDS xy xz yz pp pp pp
0	7.1235	0
0	201.985	2.3745
0	119.584	0
ITEM: ATOMS id type element xu yu zu q Q_1 Q_2 Q_3 Q_4 Q_5 Q_6 Q_7 Q_8 Q_9 Q_10 Q_11 Q_12 Q_13 Q_14 Q_15 Q_16 Q_17 Q_18 Q_19 Q_20 Q_21
1 1 Mg -1.47276 49.6065 -0.522063 1.2 1 0.232354 0.0829566 0.01935 0.0282105 0.00544691 0.0170541 0.00464368 0.0209018 0.00525168 0.0268466 0.00594752 0.0327638 0.0104323 0.0276799 0.00604249 0.0283611 0.00876185 0.0227029 0.0110441 0.0382011
2 1 Mg 3.1183 51.3559 2.61138 1.2 1 0.185106 0.071024 0.00999969 0.0212697 0.00318393 0.0119428 0.00298824 0.0176097 0.00400701 0.020856 0.00463805 0.0274861 0.00600326 0.0245009 0.0053143 0.0264443 0.00681442 0.0189386 0.00956142 0.0348299
3 2 Si 0.998471 51.1791 0.610898 2.4 1 0.196508 0.0746646 0.0118894 0.023267 0.00412221 0.0126476 0.00281558 0.0195314 0.00451983 0.0228795 0.0047802 0.0297924 0.00808464 0.0260209 0.00491896 0.0277303 0.00703206 0.0199811 0.0101425 0.0374234
4 3 O 2.36228 50.5135 0.939274 -1.2 1 0.20987 0.0782583 0.0148742 0.0251386 0.00452733 0.0133192 0.00340311 0.0188769 0.00502557 0.023271 0.00513061 0.028462 0.00868148 0.026565 0.00654756 0.0275072 0.00810017 0.0203996 0.0101327 0.0362939
5 3 O -1.12812 53.7734 1.94591 -1.2 1 0.133948 0.0542991 0.00435079 0.0148502 0.0027821 0.00980106 0.00243046 0.0183907 0.0033177 0.0170425 0.00347489 0.0281346 0.00485557 0.0216407 0.00294398 0.0267898 0.00559072 0.0192043 0.00764209 0.0387914
6 3 O 0.297551 50.3414 -0.552993 -1.2 1 0.213218 0.0793359 0.0155406 0.0259758 0.00497708 0.0145067 0.00374647 0.0196917 0.00468767 0.0248013 0.00581472 0.0312482 0.00841562 0.0271146 0.00541082 0.0279359 0.00747915 0.02098 0.00971538 0.0378635
7 1 Mg -2.30292 59.5991 3.24424 1.2 1 0.014573 0.0125351 0.00630457 0.00508863 0.00108062 0.00542196 0.00160397 0.0230332 0.00290362 0.00959299 0.00159952 0.0302385 0.00245231 0.0198434 0.00339062 0.0320792 0.00448238 0.0232708 0.00421137 0.0490731
8 3 O 0.169467 51.1749 1.96997 -1.2 1 0.185193 0.0713666 0.0106227 0.0215299 0.00315935 0.0119663 0.00308669 0.0182637 0.00478099 0.021921 0.00426839 0.0279367 0.00661064 0.0249485 0.00571188 0.0270751 0.00727323 0.0199258 0.00946503 0.0353874
9 1 Mg -2.2722 56.7452 4.71997 1.2 1 0.0696912 0.0346909 0.00418073 0.00830253 0.00118327 0.00618534 0.00217345 0.0197788 0.00295593 0.0125897 0.00223944 0.0278561 0.00240983 0.0199363 0.00347884 0.0284348 0.00425764 0.0210721 0.00587273 0.042006
10 2 Si 0.424323 58.6299 4.7963 2.4 1 0.0283485 0.0201382 0.00768506 0.00581632 0.000952425 0.00525353 0.00290006 0.022359 0.00330456 0.00943854 0.00348857 0.0283339 0.0029463 0.0207634 0.00486894 0.0299658 0.00486634 0.022193 0.00499823 0.0470949
11 3 O -1.14754 58.6905 4.77777 -1.2 1 0.0254165 0.0184559 0.00768554 0.00546729 0.000882397 0.00502603 0.00245182 0.0222967 0.00320764 0.00905689 0.00224614 0.0290159 0.00264117 0.0198775 0.00337524 0.0304932 0.0052516 0.0221046 0.00507487 0.0475965
12 3 O 1.70238 54.5606 5.06575 -1.2 1 0.116294 0.0492214 0.00192415 0.0126145 0.0018841 0.00896267 0.00253882 0.0191278 0.00273686 0.0164089 0.00311613 0.027167 0.00350219 0.0216167 0.00381891 0.02555 0.00432841 0.0187859 0.00683777 0.0389698
13 3 O 1.15919 57.9361 3.51405 -1.2 1 0.0420178 0.0261305 0.00699083 0.00647563 0.00115146 0.00509678 0.00220071 0.0221863 0.00311711 0.0107061 0.0019651 0.0282779 0.00228923 0.0202425 0.00408439 0.0298627 0.00428681 0.02223 0.00538947 0.045618
14 3 O 1.10451 57.95 6.03082 -1.2 1 0.0418582 0.0254156 0.0070344 0.00646184 0.000764586 0.00565417 0.00200901 0.0213628 0.00287719 0.0101107 0.00239761 0.0279382 0.00260154 0.0201976 0.00496554 0.0295699 0.00379344 0.0218138 0.00580282 0.0456258
15 1 Mg 0.389071 53.8401 3.37916 1.2 1 0.132655 0.0561013 0.00155216 0.0149285 0.00208195 0.00945965 0.00229922 0.0183408 0.00344711 0.0181377 0.00373934 0.0279084 0.00405646 0.0218858 0.00402586 0.0260627 0.00442855 0.0187898 0.00784012 0.0374245
16 1 Mg 0.923794 50.4259 3.59893 1.2 1 0.214902 0.0769956 0.0165428 0.0246153 0.00389374 0.0140916 0.003092 0.0184335 0.00407877 0.0231342 0.00410865 0.0273019 0.00756191 0.0261463 0.00567394 0.0267629 0.00805253 0.0194307 0.0102208 0.0341639
17 2 Si 2.44233 53.1326 5.07558 2.4 1 0.15664 0.0609581 0.00710463 0.0169389 0.00293862 0.0106646 0.00320318 0.0174235 0.00313305 0.0185751 0.00391015 0.0266949 0.00468206 0.0221093 0.00534239 0.025573 0.00445844 0.0176991 0.0086999 0.0358522
18 3 O -0.78275 53.325 4.97419 -1.2 1 0.143446 0.0571377 0.00461066 0.0152556 0.00295512 0.00913937 0.00319552 0.017508 0.00342377 0.0174908 0.00297153 0.0273989 0.0045294 0.0233297 0.00364173 0.0258182 0.00541771 0.0182986 0.00784753 0.0368453
19 3 O 2.69496 49.7089 3.69587 -1.2 1 0.227715 0.0806197 0.0188066 0.0265806 0.00424808 0.0159873 0.00354861 0.0182127 0.00404887 0.0241439 0.00499348 0.0275088 0.00921857 0.0267974 0.00715515 0.026577 0.00837102 0.0194712 0.0100547 0.033468
20 3 O 1.82851 52.4165 3.79448 -1.2 1 0.161426 0.0630327 0.00685937 0.0172824 0.00292051 0.0107651 0.00319059 0.017569 0.00264708 0.0191878 0.00347893 0.0272047 0.00459884 0.0238748 0.0049574 0.0258748 0.00496613 0.0184643 0.00840435 0.0362028
21 1 Mg 0.170638 54.4137 0.383735 1.2 1 0.118446 0.0519288 0.00125617 0.0144965 0.0023252 0.0088553 0.00280132 0.0195241 0.00342752 0.0178262 0.00355048 0.0300112 0.00487042 0.0212993 0.00413104 0.0269107 0.00518821 0.0199275 0.00743809 0.0407519
22 3 O 1.97773 52.1746 6.28096 -1.2 1 0.169996 0.0654477 0.00812701 0.0184653 0.00303472 0.0119531 0.00275009 0.0176428 0.00334269 0.0199754 0.00346267 0.0268199 0.00485156 0.0233304 0.0045237 0.0257949 0.00431142 0.0173004 0.00870411 0.0344087
23 1 Mg 0.201692 57.1726 1.92182 1.2 1 0.0526181 0.0302126 0.00642226 0.00738989 0.0011701 0.00569343 0.00192949 0.0207294 0.00480763 0.0116611 0.00351336 0.0289917 0.00250282 0.020274 0.00389479 0.0290964 0.00562332 0.0207128 0.00601188 0.0446575
24 2 Si -1.81666 55.2087 2.00157 2.4 1 0.106653 0.0476194 0.00066813 0.0122183 0.00188321 0.00772502 0.00200718 0.0188703 0.00444776 0.0151671 0.00371086 0.0279911 0.00363763 0.0215244 0.00366178 0.0272038 0.00614806 0.0190632 0.00683843 0.0408458
25 3 O 1.35827 55.0708 2.00796 -1.2 1 0.10746 0.047261 0.000985026 0.0121858 0.00166789 0.008085 0.00233238 0.0184311 0.00373668 0.0153071 0.00339234 0.0281948 0.00419188 0.0208786 0.0036917 0.0270598 0.00560785 0.0197283 0.00684155 0.0401925
26 3 O -0.999761 59.0756 1.80597 -1.2 1 0.0238598 0.0177649 0.00811071 0.00570109 0.00102599 0.00487671 0.00175089 0.0228403 0.00434237 0.00957651 0.00253434 0.0302294 0.00329542 0.0200149 0.00465258 0.0316972 0.00683828 0.023065 0.00587419 0.0488441
27 3 O -1.22566 55.9779 0.705768 -1.2 1 0.0826531 0.0400783 0.00334179 0.00991245 0.00168643 0.00630955 0.00204825 0.0201837 0.00443261 0.0135251 0.00335203 0.028706 0.00347532 0.0205487 0.00366757 0.0288535 0.00599246 0.0208443 0.00653123 0.0437023
28 3 O -1.15965 55.8841 3.27612 -1.2 1 0.0852795 0.0400495 0.00309888 0.00914336 0.00168169 0.00669689 0.00188128 0.0195366 0.00382133 0.0138907 0.00292377 0.0277216 0.00284445 0.0207775 0.00287523 0.0274296 0.00549705 0.0205747 0.00615991 0.0415197
29 1 Mg -2.40468 59.5804 0.478285 1.2 1 0.0166132 0.0144944 0.00677471 0.00526596 0.00108794 0.00508809 0.00165423 0.0236899 0.0032117 0.0098371 0.00196657 0.0302028 0.00278762 0.0205019 0.00370593 0.0316733 0.00515675 0.0240155 0.00449526 0.0499963
30 1 Mg 2.26281 62.4988 1.82988 1.2 1 0.00366814 0.00366423 0.00212379 0.005637 0.00100451 0.00503055 0.00122801 0.0249015 0.0025866 0.00851014 0.00248075 0.0306707 0.00222833 0.0206733 0.00305272 0.0344498 0.0035562 0.0247343 0.00295586 0.0539869
31 2 Si -0.332439 60.5991 1.85438 2.4 1 0.00900629 0.00827567 0.00448635 0.00580117 0.00114628 0.00572037 0.000970976 0.0235444 0.00256935 0.00911517 0.00236408 0.0293846 0.0031112 0.0208643 0.00396578 0.0325881 0.00504443 0.0236807 0.00419087 0.0522346
32 3 O 1.20001 60.5361 1.87953 -1.2 1 0.00882775 0.00839647 0.00474995 0.00558969 0.00106675 0.00515541 0.00107977 0.023851 0.00314652 0.00882081 0.00182572 0.0296028 0.00218317 0.0201333 0.00333268 0.0332182 0.00481709 0.0241116 0.00405774 0.0519385
33 3 O -1.34738 64.2629 1.83035 -1.2 1 0.00340889 0.00255242 0.0022259 0.00618188 0.00065571 0.00527938 0.00119536 0.0257049 0.00137154 0.00823908 0.001794 0.0308853 0.00262169 0.0203133 0.00295961 0.0341543 0.00356943 0.0245148 0.00333505 0.0549447
34 3 O -1.00973 61.2777 0.570608 -1.2 1 0.00620655 0.0067456 0.00373515 0.0052948 0.000866124 0.00526665 0.000870995 0.024509 0.00279209 0.00870678 0.00180252 0.0298825 0.00318503 0.0211841 0.00310385 0.0340027 0.00421715 0.0249577 0.00348823 0.0531594
35 1 Mg -2.33793 69.9279 3.14976 1.2 1 0.000628348 0.00323535 0.000569812 0.00582201 0.000734091 0.00519786 0.000667575 0.0259222 0.000696924 0.00842987 0.000801129 0.0312815 0.000736334 0.020796 0.00100877 0.0347464 0.0011987 0.0243483 0.00119057 0.0543804
36 3 O -1.02907 61.2855 3.11228 -1.2 1 0.00631323 0.00571684 0.00328299 0.00534544 0.000969272 0.00571198 0.000995205 0.02448 0.0022793 0.009 0.0013845 0.029305 0.00216817 0.0206831 0.00307629 0.0331677 0.00367685 0.0242749 0.00363475 0.0522169
37 1 Mg -2.29039 67.0846 4.7468 1.2 1 0.00263596 0.00234608 0.00209277 0.00597483 0.00064509 0.00502193 0.00141579 0.0254362 0.0022523 0.00860927 0.00174606 0.03084 0.00269365 0.0214915 0.00303705 0.0350969 0.00232535 0.0246682 0.00234819 0.0551449
38 2 Si 0.391728 68.9486 4.74329 2.4 1 0.00157616 0.00322319 0.00137233 0.00676836 0.00113122 0.00560639 0.00148669 0.025375 0.0013421 0.00849519 0.00226547 0.0298955 0.00184201 0.0216309 0.00336899 0.0349913 0.00244523 0.0242786 0.00227663 0.0558901
39 3 O -1.12693 69.0335 4.7417 -1.2 1 0.00161751 0.00306201 0.00138058 0.00619542 0.000920684 0.00501196 0.00113329 0.0249078 0.00235326 0.00828862 0.00122813 0.0303906 0.00163661 0.0211795 0.00163816 0.0353988 0.00241506 0.0240235 0.00225946 0.0556373
40 3 O 1.33856 65.2687 4.81809 -1.2 1 0.00321665 0.00165513 0.00236259 0.0062064 0.000899119 0.00558414 0.00132055 0.0258027 0.00155651 0.00825231 0.00277214 0.031093 0.00220661 0.0209861 0.00264062 0.0342168 0.00207449 0.0242628 0.00297343 0.0553896
41 3 O 1.09669 68.2748 3.46477 -1.2 1 0.00179426 0.00300299 0.00154907 0.00598488 0.00135365 0.00508085 0.00164802 0.0257509 0.00127827 0.00878898 0.00210152 0.0300097 0.00209929 0.0215675 0.00303407 0.0352635 0.001647 0.0243896 0.00190723 0.0556278
42 3 O 1.09649 68.3269 6.00051 -1.2 1 0.00193021 0.00282046 0.00133039 0.00611591 0.00115244 0.00533525 0.0013471 0.0256304 0.00158844 0.00862435 0.00192338 0.0297687 0.00197758 0.0217207 0.00217527 0.0356255 0.00183298 0.0248447 0.0018242 0.0552752
43 1 Mg 0.0293436 64.8246 3.27978 1.2 1 0.00321324 0.002262 0.00218307 0.0059423 0.00104194 0.00542205 0.00108991 0.0255921 0.00102071 0.00853998 0.001506 0.0315029 0.00179008 0.0204941 0.00160645 0.0338831 0.00177691 0.0242905 0.00203683 0.0543322
44 1 Mg -0.0878519 61.9648 4.84177 1.2 1 0.00536547 0.00406139 0.00276452 0.00561987 0.00134338 0.00551524 0.00164586 0.0245009 0.00161954 0.0089498 0.00238034 0.0304539 0.00264564 0.0206244 0.00365806 0.0336714 0.00329672 0.0239887 0.00377666 0.0527259
45 2 Si 2.02125 63.6998 4.75693 2.4 1 0.00303529 0.00194689 0.00198155 0.00665032 0.00160667 0.00564035 0.00159484 0.0248481 0.00139369 0.0082991 0.00278045 0.0298489 0.00214633 0.0210332 0.00394545 0.0340736 0.00205615 0.0242386 0.00312988 0.0558672
46 3 O -1.13312 63.8793 4.77861 -1.2 1 0.00319842 0.00166308 0.00196637 0.00630232 0.0012437 0.00523272 0.00121248 0.0249537 0.00228041 0.00801094 0.0015309 0.030754 0.00239632 0.0206534 0.00217154 0.0343968 0.0032269 0.0238451 0.00285773 0.0550263
47 3 O 1.03719 60.1004 4.76064 -1.2 1 0.0127213 0.0111131 0.00514032 0.00534348 0.00119748 0.00571351 0.00221663 0.0234455 0.00250849 0.0089995 0.00209029 0.0297486 0.00239555 0.0204571 0.00374835 0.0318002 0.00395319 0.0228846 0.00352537 0.049817
48 3 O 1.33331 63.1432 3.46764 -1.2 1 0.00366951 0.00242831 0.00176121 0.00591216 0.00176051 0.00541773 0.00186092 0.0254047 0.0014485 0.0083947 0.00187885 0.0298983 0.00186373 0.0207354 0.00290839 0.034301 0.00180265 0.0248689 0.00266718 0.0548918
49 1 Mg -0.0212404 64.6832 0.275374 1.2 1 0.00298849 0.00340158 0.00164268 0.00577528 0.000584707 0.00510929 0.00082528 0.0258541 0.00122308 0.00860924 0.00160396 0.0312281 0.00170276 0.0203512 0.001734 0.0343909 0.00235169 0.0246823 0.0020655 0.0543733
50 3 O 1.38341 62.9885 5.96852 -1.2 1 0.00359352 0.00221909 0.00153792 0.00583213 0.0015127 0.00564095 0.00177264 0.0248421 0.00117408 0.00870351 0.00158583 0.0300496 0.00211772 0.0214926 0.00304845 0.0339598 0.00206235 0.0240941 0.00303027 0.0543952
51 1 Mg 0.112526 67.7244 1.72135 1.2 1 0.00200808 0.00319133 0.00125323 0.00594984 0.000887204 0.00465866 0.00144447 0.0259376 0.0020013 0.0089869 0.00251838 0.0306799 0.0021606 0.0214784 0.00267413 0.0353676 0.00257547 0.0247206 0.00222224 0.05572
52 2 Si -2.01512 65.7968 1.80365 2.4 1 0.00300502 0.00271151 0.00196424 0.00650054 0.000748298 0.00525191 0.0017026 0.0254839 0.00143212 0.00852726 0.00181528 0.0298725 0.00245559 0.021121 0.00307619 0.0346282 0.00404123 0.0244046 0.0024033 0.056189
53 3 O 1.20644 65.7162 1.77657 -1.2 1 0.00292957 0.00273779 0.0018694 0.00613445 0.000924932 0.00478928 0.00124748 0.0254738 0.00218284 0.00836841 0.00204389 0.0307303 0.002522 0.020656 0.00197944 0.0348321 0.00295018 0.0241824 0.00289267 0.0557385
54 3 O -0.964355 69.456 1.69597 -1.2 1 0.000978474 0.00307503 0.00100222 0.00599868 0.000809037 0.0051478 0.0010101 0.02628 0.000932292 0.00843649 0.0018213 0.030803 0.0021217 0.0210325 0.00295832 0.034685 0.00272765 0.0243872 0.00268169 0.0556858
55 3 O -1.34624 66.4101 0.492071 -1.2 1 0.00279686 0.00317735 0.00155188 0.00566912 0.000954341 0.00476301 0.00182018 0.0258326 0.00146605 0.00863113 0.00176206 0.0298034 0.0024309 0.0212157 0.00251667 0.0352448 0.00300903 0.0246652 0.00219398 0.0555019
56 3 O -1.28771 66.4926 3.07653 -1.2 1 0.00281303 0.0024985 0.00213826 0.0058931 0.000547424 0.00496089 0.00142035 0.0258797 0.00117735 0.00861332 0.00162748 0.0300024 0.00236132 0.021522 0.00212191 0.035009 0.00238931 0.0247106 0.00201006 0.0555465
57 1 Mg -2.32456 69.9489 0.213415 1.2 1 0.00120101 0.00360001 0.000679885 0.00573168 0.00064767 0.00507461 0.000668896 0.0257413 0.000708788 0.00863555 0.000748746 0.0312252 0.000855191 0.0210448 0.00122515 0.0350062 0.00159144 0.0243419 0.00142279 0.0550742
58 1 Mg 2.31198 72.8022 1.61152 1.2 1 0.00106377 0.00329139 0.00113061 0.00603905 0.000860572 0.00445448 0.00112831 0.0255091 0.00215368 0.00882849 0.00197937 0.0302677 0.00231299 0.0218932 0.00268241 0.035648 0.0024621 0.0246192 0.00228832 0.0559954
59 2 Si -0.261372 70.997 1.74652 2.4 1 0.000352492 0.00320622 0.000579499 0.00634669 0.001201 0.00524848 0.00155332 0.0256743 0.00131706 0.00853008 0.00222756 0.0295869 0.00223617 0.0218938 0.00351865 0.0349959 0.00325013 0.0242815 0.0023719 0.0566928
60 3 O 1.28689 70.8184 1.71567 -1.2 1 0.000277773 0.00329326 0.00068507 0.00600793 0.000964122 0.00492898 0.00113696 0.0256437 0.00177069 0.00834408 0.00125513 0.0305053 0.00138596 0.020881 0.00217061 0.035213 0.00210881 0.0241942 0.00171108 0.0556876
61 3 O -1.25634 74.634 1.61726 -1.2 1 0.00122296 0.00306141 0.00113365 0.00647946 0.000764249 0.00488148 0.00125215 0.0258874 0.00105165 0.00834276 0.00210916 0.0306263 0.00203507 0.0208799 0.00323182 0.0349333 0.00306304 0.0243185 0.00351094 0.0553979
62 3 O -0.907457 71.6565 0.462173 -1.2 1 0.000431383 0.00347154 0.000899282 0.00584599 0.000736809 0.00470667 0.00131887 0.0256106 0.001502 0.00863207 0.0012956 0.0295791 0.00171852 0.0217295 0.00220772 0.0354468 0.00229347 0.024414 0.00238088 0.0560892
63 1 Mg -2.40006 80.341 3.07802 1.2 1 0.00289087 0.00213315 0.00158348 0.00644121 0.000676266 0.00447173 0.000918814 0.0253783 0.000973257 0.00864834 0.00101681 0.0308292 0.00127503 0.0203176 0.00139185 0.0342351 0.00186033 0.0244492 0.00184903 0.0548591
64 3 O -0.989535 71.6149 2.99638 -1.2 1 0.000853593 0.00321792 0.000904178 0.00576492 0.000989405 0.00487885 0.00152941 0.0260606 0.00134999 0.00879282 0.00184043 0.0296276 0.00232909 0.0220042 0.00340576 0.035426 0.00262058 0.0247145 0.00185333 0.056335
65 1 Mg -2.27828 77.416 4.62632 1.2 1 0.00190648 0.00261828 0.00108402 0.00623135 0.00101581 0.00422433 0.000984593 0.0252967 0.00211212 0.00880398 0.00264572 0.0304732 0.00187298 0.0209775 0.00282719 0.0352098 0.00305143 0.0248091 0.00334609 0.0554055
66 2 Si 0.371355 79.2911 4.61753 2.4 1 0.00239294 0.00248804 0.00102694 0.00715072 0.000998814 0.0046934 0.00151147 0.0252334 0.00133963 0.00856218 0.00215363 0.0295318 0.0017585 0.0210265 0.00311871 0.0344268 0.00250277 0.0245059 0.00225961 0.0567065
67 3 O -1.18604 79.3339 4.63668 -1.2 1 0.00203293 0.00226456 0.00105223 0.00679992 0.000705514 0.00431337 0.00141718 0.02484 0.00216324 0.00822028 0.00122576 0.0301144 0.00196914 0.0202546 0.00199338 0.0346972 0.00288349 0.0241604 0.00278031 0.0561147
68 3 O 1.44325 75.5462 4.65584 -1.2 1 0.0022983 0.0027726 0.00123457 0.00643212 0.0013509 0.00482611 0.00115063 0.0257983 0.00105003 0.00836192 0.00185272 0.0306368 0.00229964 0.02081 0.00388804 0.0346831 0.00237213 0.0242595 0.00305924 0.0557293
69 3 O 1.07381 78.601 3.31596 -1.2 1 0.00254891 0.0023199 0.00101442 0.00651162 0.00118889 0.00464624 0.00143279 0.0252762 0.00139108 0.00867116 0.00140036 0.029729 0.00173756 0.0214711 0.00234209 0.0347625 0.00181909 0.0243813 0.00231012 0.0561254
70 3 O 1.07679 78.6011 5.9102 -1.2 1 0.00206096 0.00238817 0.000872336 0.00643374 0.00129164 0.00450881 0.00134424 0.0255938 0.00166517 0.00872933 0.00164376 0.0297384 0.00170638 0.0212641 0.0023749 0.0345851 0.0017852 0.0246977 0.0020565 0.0559354
71 1 Mg 0.110616 75.1322 3.13326 1.2 1 0.00137204 0.00302056 0.000931932 0.00604664 0.000998539 0.0047684 0.000916531 0.0256964 0.000618455 0.00849292 0.00123542 0.0307826 0.00115635 0.0208398 0.0018296 0.0349216 0.0014232 0.024474 0.00227903 0.0548545
72 1 Mg 0.00154317 72.2512 4.67155 1.2 1 0.00074211 0.00324254 0.000947879 0.00612887 0.0011853 0.00467693 0.000890677 0.0255817 0.00216141 0.00865121 0.0021483 0.0303719 0.00211683 0.0215135 0.00304464 0.0356452 0.00262519 0.0251104 0.00248761 0.0555051
73 2 Si 2.14471 74.0674 4.62428 2.4 1 0.00204018 0.0032059 0.00100865 0.00683565 0.00170661 0.00538233 0.00145691 0.0253069 0.00132115 0.00842813 0.00235419 0.0293197 0.00261 0.0217316 0.00387733 0.0346079 0.00294405 0.0242645 0.00256748 0.0566167
74 3 O -1.05546 74.171 4.61197 -1.2 1 0.0016131 0.00334527 0.00118908 0.00629639 0.00172223 0.00471158 0.0014693 0.0248289 0.00224522 0.00819029 0.00182765 0.0301795 0.00220211 0.0209496 0.002553 0.0352678 0.00265846 0.0240835 0.00342878 0.055822
75 3 O 1.12441 70.4723 4.74811 -1.2 1 0.000828403 0.00339785 0.00112236 0.00648869 0.000802865 0.00532423 0.000760403 0.0259809 0.0010567 0.00816073 0.00159771 0.0308737 0.00158804 0.0210036 0.00259385 0.0347241 0.00241958 0.0244458 0.00288889 0.0553044
76 3 O 1.46541 73.4641 3.31911 -1.2 1 0.00131115 0.00303493 0.00101025 0.00580451 0.00135 0.00481975 0.00110004 0.0259375 0.00117285 0.00858145 0.00142307 0.0297428 0.00206252 0.0219438 0.00292855 0.0351276 0.00190798 0.0245548 0.00232162 0.0561828
77 1 Mg 0.0616188 75.0802 0.133943 1.2 1 0.00146378 0.00274238 0.00113487 0.00590552 0.000689938 0.00469829 0.000781748 0.0255578 0.00068758 0.00852895 0.000859073 0.0310722 0.00121025 0.0209698 0.00112659 0.0349687 0.000998368 0.0241195 0.00205029 0.0548062
78 3 O 1.45225 73.4301 5.90891 -1.2 1 0.0018459 0.00303909 0.00103523 0.00609286 0.00131268 0.00486931 0.00111886 0.0253732 0.00153502 0.00854689 0.00144035 0.0296915 0.00207462 0.0216534 0.00254228 0.0353629 0.00195922 0.0244293 0.00238056 0.0556503
79 1 Mg 0.127356 77.9385 1.66584 1.2 1 0.00270234 0.0021856 0.00128453 0.00636789 0.00066084 0.00431129 0.00141994 0.0253276 0.00207335 0.00884553 0.00203762 0.030232 0.00235831 0.0213872 0.00300949 0.0350904 0.00255741 0.0246373 0.00253571 0.0557712
80 2 Si -1.99461 76.1375 1.62122 2.4 1 0.00210057 0.00262197 0.00124375 0.00676383 0.000835882 0.00493306 0.00170599 0.0252599 0.00140789 0.00852719 0.00244412 0.0292971 0.00228212 0.0214993 0.00414041 0.0350181 0.00320613 0.0240243 0.003099 0.0565563
81 3 O 1.19156 76.0319 1.54184 -1.2 1 0.0017988 0.00289433 0.00114722 0.00616026 0.000824935 0.00440233 0.000836969 0.0251291 0.00192775 0.0081348 0.00126414 0.029994 0.0017723 0.0206847 0.00162565 0.0354257 0.00208052 0.0241318 0.00259446 0.05589
82 3 O -0.991342 79.8454 1.62176 -1.2 1 0.00302368 0.00197537 0.00187865 0.00667068 0.000731266 0.00468021 0.00116573 0.0252428 0.00139245 0.00828701 0.0017714 0.0304984 0.00206815 0.0204292 0.0029661 0.0342693 0.0034273 0.0242154 0.00338982 0.0553567
83 3 O -1.32841 76.8173 0.332847 -1.2 1 0.00217972 0.00224421 0.00136305 0.00575596 0.000799704 0.00477841 0.00145379 0.0258483 0.00132043 0.00869426 0.00155969 0.0291434 0.00210305 0.0213534 0.00258404 0.0354403 0.00215022 0.0247011 0.00230819 0.0560101
84 3 O -1.33834 76.8064 2.90019 -1.2 1 0.00202394 0.00250085 0.00108696 0.00619316 0.00101241 0.00465741 0.00142774 0.0255721 0.00114944 0.00868762 0.00149127 0.0293654 0.00197905 0.0211503 0.00256774 0.0352367 0.0020936 0.0246391 0.00253387 0.0557756
85 1 Mg -2.40566 80.175 0.185377 1.2 1 0.00319173 0.00150386 0.00165099 0.00618739 0.000766848 0.00504452 0.00107909 0.0249903 0.00115741 0.00856247 0.00118463 0.0308314 0.00124341 0.0204857 0.00155802 0.0341407 0.00163587 0.0240813 0.00188039 0.0545076
86 1 Mg 2.32621 83.1739 1.57862 1.2 1 0.00247582 0.00135335 0.00112555 0.00672265 0.00111045 0.00493095 0.00150798 0.0246233 0.00187626 0.00865997 0.00240438 0.0304147 0.00176106 0.0209055 0.00253005 0.0346252 0.00275244 0.02482 0.00250035 0.0553779
87 2 Si -0.304973 81.3662 1.59231 2.4 1 0.00287122 0.00177636 0.00143507 0.00699016 0.00104221 0.00501991 0.00139683 0.0250325 0.00109864 0.00868074 0.00154402 0.0292985 0.0015707 0.0210058 0.0025249 0.0342052 0.00293803 0.0243455 0.00209764 0.056511
88 3 O 1.28551 81.2592 1.60166 -1.2 1 0.00294564 0.00166817 0.00165397 0.00669453 0.00124175 0.00452028 0.00136345 0.0243282 0.00232983 0.00821701 0.00177217 0.0300998 0.00195087 0.0202667 0.00260351 0.0345048 0.00299604 0.0238807 0.00293951 0.0554021
89 3 O -1.37282 84.9845 1.62558 -1.2 1 0.00261539 0.00136444 0.00144306 0.00696097 0.00124244 0.00552656 0.00100265 0.0247641 0.00156589 0.00801656 0.00142151 0.0309272 0.00216973 0.0200583 0.00326323 0.0342418 0.00307113 0.0246409 0.00343647 0.0553695
90 3 O -1.0133 82.0196 0.377396 -1.2 1 0.00280807 0.00113942 0.00119465 0.00630107 0.00126599 0.00499808 0.00134198 0.024861 0.00164811 0.00864402 0.00140919 0.0294759 0.00181583 0.0212362 0.00239667 0.034317 0.00248626 0.0244427 0.00260006 0.0553397
91 1 Mg -2.35023 90.6414 3.12085 1.2 1 0.00164938 0.00182834 0.00105619 0.0069094 0.00106342 0.00625551 0.000668244 0.0242872 0.00102063 0.00794676 0.000753845 0.0316383 0.00119937 0.0203165 0.000998522 0.0342512 0.00154288 0.0260704 0.00135936 0.0561202
92 3 O -0.950636 81.8845 2.96233 -1.2 1 0.00272714 0.00198553 0.00158961 0.00648943 0.00125117 0.0045596 0.00164926 0.0251193 0.00137548 0.00862428 0.00149528 0.029526 0.00176399 0.0207567 0.00221503 0.0346072 0.00265224 0.0248693 0.00183064 0.0558616
93 1 Mg -2.27387 87.7968 4.69528 1.2 1 0.0027669 0.00179742 0.00112736 0.00699613 0.00110183 0.00528836 0.000977938 0.0244323 0.00199803 0.0083986 0.0017882 0.0311484 0.00257486 0.0209545 0.0025949 0.034978 0.00223051 0.0260805 0.00215178 0.0562314
94 2 Si 0.282142 89.6569 4.58867 2.4 1 0.00175122 0.0017035 0.000937249 0.00746811 0.000962491 0.00596207 0.00146147 0.023897 0.00165204 0.00816618 0.00246144 0.030368 0.00195476 0.0212205 0.00391 0.0343208 0.00356426 0.0254142 0.00254504 0.0577826
95 3 O -1.26471 89.7511 4.65273 -1.2 1 0.00154754 0.0016882 0.00100688 0.00719268 0.00098961 0.00575857 0.000769513 0.0239763 0.00219881 0.00748781 0.000941415 0.0312143 0.00155539 0.020208 0.00202158 0.0348526 0.00233847 0.02569 0.00190064 0.0569405
96 3 O 1.32163 85.9484 4.54888 -1.2 1 0.00199123 0.00174167 0.000728234 0.0073422 0.00117327 0.00567149 0.000892541 0.0248962 0.00105947 0.00803116 0.00215569 0.0311297 0.00169561 0.0204407 0.0030079 0.0341805 0.00242605 0.0254802 0.00280949 0.0559873
97 3 O 1.0385 89.0216 3.29768 -1.2 1 0.0018913 0.00148434 0.00124076 0.00689007 0.00108612 0.0056678 0.00155309 0.0244706 0.00151379 0.00828659 0.0013578 0.0302988 0.00225962 0.0210869 0.0030891 0.0346795 0.00219538 0.0258588 0.00190989 0.0567666
98 3 O 0.979196 89.0051 5.85143 -1.2 1 0.00165512 0.00169516 0.000836521 0.00674929 0.000788734 0.00543884 0.00126615 0.0244964 0.00141613 0.008166 0.00121322 0.0305253 0.00176209 0.0210145 0.00259962 0.0350816 0.00207891 0.026026 0.00157969 0.0566576
99 1 Mg -0.00117888 85.4452 3.03139 1.2 1 0.00242881 0.00164578 0.000872135 0.00680652 0.00131337 0.00541055 0.000642622 0.0245822 0.0010909 0.0082823 0.000968777 0.0312646 0.00144451 0.0201462 0.00139073 0.0342517 0.00147908 0.0252038 0.00154807 0.0549345
100 1 Mg -0.0736109 82.6649 4.63459 1.2 1 0.00234219 0.00201296 0.000918261 0.00682834 0.000959374 0.00448857 0.00100793 0.0245881 0.00225358 0.00880939 0.00202699 0.0307824 0.00203732 0.0208503 0.00275185 0.0347723 0.00293481 0.0251824 0.00214258 0.0557397
101 2 Si 2.02693 84.4509 4.57812 2.4 1 0.00192045 0.00189599 0.000935741 0.00762524 0.00111644 0.00539154 0.00155231 0.0245253 0.00140697 0.00852641 0.0026979 0.0297907 0.00176266 0.0210881 0.00380466 0.034177 0.00285226 0.0248573 0.00275359 0.0568054
102 3 O -1.14562 84.5269 4.57548 -1.2 1 0.00207833 0.00181591 0.000718073 0.00706754 0.00105095 0.00487019 0.00124996 0.0242102 0.00203095 0.00821598 0.000968608 0.0305312 0.00128683 0.0204715 0.00152836 0.034887 0.00197564 0.0248784 0.00228059 0.0564326
103 3 O 1.05859 80.7721 4.65733 -1.2 1 0.00231527 0.00210117 0.00107645 0.00698376 0.000866318 0.00481424 0.00100151 0.0253911 0.00125458 0.00838123 0.00212104 0.0308128 0.00199451 0.0205406 0.00325065 0.0341056 0.00187282 0.0247775 0.00303247 0.055874
104 3 O 1.38252 83.7386 3.33298 -1.2 1 0.00222039 0.00146336 0.00119342 0.00661452 0.00115513 0.00500571 0.00127087 0.0248242 0.00173006 0.00862253 0.0018292 0.0296713 0.00156081 0.0210977 0.00303963 0.0346083 0.00204413 0.024986 0.00211131 0.0559619
105 1 Mg -0.0274061 85.4168 0.0809264 1.2 1 0.00206371 0.00113978 0.0011587 0.0066921 0.000952408 0.00571882 0.000746769 0.0245348 0.00087756 0.00820133 0.00122899 0.0313785 0.00128002 0.0201512 0.00165521 0.0338219 0.00126937 0.0244425 0.00155744 0.054691
106 3 O 1.41083 83.8451 5.93068 -1.2 1 0.00103571 0.00202989 0.000709142 0.00671893 0.000953821 0.00498235 0.00154863 0.0250308 0.00117326 0.00857322 0.00165217 0.0298664 0.0017207 0.0210058 0.00274428 0.0346439 0.00190713 0.025617 0.00173401 0.0562667
107 1 Mg 0.108939 88.3058 1.60491 1.2 1 0.00181853 0.00115541 0.00152718 0.00701209 0.00138649 0.00551941 0.00127192 0.0242675 0.00211923 0.00820911 0.00215961 0.0311385 0.00222973 0.0208472 0.0030988 0.0346317 0.00253331 0.0258596 0.00281163 0.0562803
108 2 Si -2.04256 86.4721 1.61141 2.4 1 0.00258099 0.00137625 0.00132063 0.00734533 0.00157948 0.00578758 0.00151418 0.0240928 0.0011433 0.00800723 0.00201697 0.0302892 0.00263859 0.0206399 0.00353432 0.0344885 0.00301208 0.0249231 0.00218786 0.0565158
109 3 O 1.15216 86.3669 1.54967 -1.2 1 0.00215279 0.00123428 0.00143995 0.00699712 0.00142211 0.00547783 0.000933213 0.0237877 0.0024856 0.00771324 0.00194441 0.0309126 0.00197639 0.0202036 0.00249642 0.0345045 0.0024779 0.0246459 0.00290331 0.0560412
110 3 O -1.02108 90.1477 1.58494 -1.2 1 0.00152517 0.00165311 0.00117389 0.00716349 0.00120904 0.00635875 0.000906416 0.0239991 0.00127895 0.00756455 0.00147449 0.0315236 0.00204933 0.0203756 0.00305188 0.0339792 0.00267607 0.0254334 0.00292764 0.0564805
111 3 O -1.33401 87.1164 0.322083 -1.2 1 0.00203849 0.00100995 0.00128517 0.00657941 0.00130533 0.00576327 0.00128838 0.0245826 0.00137976 0.00807141 0.00156006 0.0300699 0.00232095 0.0208677 0.00267255 0.0344922 0.00258269 0.0256005 0.00240006 0.0559659
112 3 O -1.40903 87.1591 2.88166 -1.2 1 0.00246802 0.00146412 0.00137098 0.00689258 0.00181644 0.00527389 0.0012839 0.0239621 0.00134393 0.00830374 0.00133159 0.0303578 0.00237128 0.02074 0.00276791 0.034713 0.00197006 0.0251233 0.0017209 0.0561232
113 1 Mg -2.4308 90.559 0.0834493 1.2 1 0.00115289 0.00162523 0.0010095 0.00670121 0.00102212 0.00643891 0.000791499 0.0237109 0.000830366 0.00792461 0.000898141 0.0315681 0.00121518 0.0200478 0.00133089 0.0341097 0.00146926 0.0259026 0.00135518 0.0555749
114 1 Mg 2.21079 93.4152 1.50908 1.2 1 0.000678073 0.00206939 0.000439366 0.00676317 0.00109897 0.00618073 0.00115008 0.0237807 0.00230348 0.00810911 0.0018626 0.0311195 0.00207557 0.0211174 0.0028016 0.0347392 0.00293699 0.0263871 0.00255542 0.0564496
115 2 Si -0.327972 91.6002 1.56381 2.4 1 0.000957711 0.00192202 0.000941736 0.00736456 0.00123401 0.00668712 0.00139501 0.0237787 0.00146402 0.0077212 0.00167998 0.0303638 0.00173767 0.0213087 0.00302179 0.0341981 0.00260779 0.0259374 0.00170229 0.0577771
116 3 O 1.21468 91.5069 1.57334 -1.2 1 0.00106776 0.00194197 0.000585383 0.00695276 0.00128823 0.00614326 0.00117092 0.023587 0.0021485 0.00740383 0.00139741 0.0311238 0.00165672 0.0202827 0.0016775 0.0346764 0.00234799 0.0257611 0.00213635 0.0569584
117 3 O -1.39114 95.2405 1.58964 -1.2 1 0.000771941 0.00191818 0.000726667 0.00697224 0.00103882 0.00705128 0.000759172 0.0240765 0.00135572 0.00737255 0.00168218 0.0313179 0.00219114 0.0205747 0.00290861 0.0337895 0.00233915 0.0260875 0.00275391 0.056296
118 3 O -1.02987 92.3183 0.344519 -1.2 1 0.000655482 0.00186668 0.000377174 0.00666392 0.00110689 0.00625393 0.00134514 0.0238365 0.00157147 0.00848319 0.00147558 0.0300819 0.00182983 0.0214792 0.00268196 0.0347154 0.00193282 0.0261076 0.00166886 0.0564684