ITEM: TIMESTEP
44500
ITEM: NUMBER OF ATOMS
5600
ITEM: BOX BOUNDS xy xz yz pp pp pp
0	7.1235	0
0	201.985	2.3745
0	119.584	0
ITEM: ATOMS id type element xu yu zu q Q_1 Q_2 Q_3 Q_4 Q_5 Q_6 Q_7 Q_8 Q_9 Q_10 Q_11 Q_12 Q_13 Q_14 Q_15 Q_16 Q_17 Q_18 Q_19 Q_20 Q_21
1 1 Mg -1.72668 49.1833 -0.852238 1.2 1 0.219235 0.0760363 0.0140955 0.0229275 0.00469989 0.0104121 0.00309488 0.0175256 0.00563777 0.0203856 0.00378556 0.0230039 0.00576579 0.0220866 0.00627047 0.0210086 0.00722671 0.0184092 0.00710205 0.02483
2 1 Mg 3.14437 50.4192 2.52971 1.2 1 0.187282 0.0732618 0.00839125 0.0199654 0.00275557 0.00930426 0.0029017 0.0171809 0.00528526 0.017673 0.00356765 0.0223335 0.00506164 0.0214146 0.00564122 0.0233562 0.00724292 0.0164169 0.00564238 0.0259704
3 2 Si 0.979366 50.6736 0.586095 2.4 1 0.188297 0.0699976 0.00957987 0.0200077 0.00393273 0.00916619 0.002734 0.0170135 0.00466967 0.0179462 0.00328621 0.0224722 0.00501419 0.020715 0.00497842 0.0214327 0.00653909 0.0163627 0.00640869 0.0259052
4 3 O 2.27707 49.741 0.854946 -1.2 1 0.210561 0.0756686 0.012745 0.0227179 0.00448417 0.00981878 0.00333003 0.0172483 0.00574095 0.0186318 0.00386339 0.0223016 0.00584371 0.0217359 0.00636841 0.0226873 0.00815461 0.0175003 0.00664731 0.0254948
5 3 O -1.21823 53.1548 1.94584 -1.2 1 0.126896 0.0528938 0.00353545 0.0135175 0.00216514 0.00784652 0.00256528 0.017911 0.00365193 0.0149716 0.00282901 0.0238116 0.003744 0.0188101 0.00363993 0.0234866 0.0053949 0.0165599 0.00580304 0.0299218
6 3 O 0.138943 49.8554 -0.54426 -1.2 1 0.201998 0.0740662 0.0115993 0.0216715 0.00451339 0.010004 0.00299164 0.017135 0.00496331 0.0195999 0.00451378 0.0224103 0.00520126 0.020629 0.00552635 0.0205309 0.00638829 0.0165284 0.006484 0.0251029
7 1 Mg -2.23139 58.9648 3.28899 1.2 1 0.0149066 0.0143165 0.00617151 0.00675651 0.00112406 0.00619093 0.00128215 0.0231594 0.00337328 0.0112411 0.0019647 0.0271284 0.00247709 0.0213102 0.00363554 0.0316223 0.00445597 0.0230924 0.00367982 0.0401204
8 3 O 0.146032 50.7382 1.94973 -1.2 1 0.177472 0.068925 0.00808789 0.0189646 0.00285566 0.0088285 0.00238425 0.0179106 0.00522019 0.017966 0.00325565 0.0224447 0.00526741 0.0212736 0.00516737 0.0231783 0.00642682 0.0170853 0.00576965 0.0261668
9 1 Mg -2.4924 56.1668 4.75355 1.2 1 0.0659135 0.0346913 0.00431202 0.00857286 0.00120044 0.00610856 0.00214809 0.0207045 0.00319049 0.0131759 0.00155821 0.0246592 0.00323063 0.0200387 0.00385179 0.0272795 0.00452744 0.0211312 0.00482604 0.0336794
10 2 Si 0.300108 57.9512 4.71988 2.4 1 0.027208 0.0214512 0.00759939 0.00749665 0.00108997 0.00641989 0.00246523 0.0226292 0.00300496 0.0110184 0.00266392 0.0256077 0.00381988 0.0215532 0.00428988 0.0300145 0.00478837 0.0226681 0.00440067 0.0378209
11 3 O -1.2274 58.1912 4.77624 -1.2 1 0.0211508 0.0180394 0.00698563 0.00736988 0.00134035 0.00625165 0.00196082 0.0219136 0.0034245 0.0105809 0.00224724 0.0264242 0.00362133 0.0216788 0.00365163 0.0309289 0.00550879 0.022081 0.00462493 0.0381572
12 3 O 1.71605 53.7996 5.04516 -1.2 1 0.117335 0.0503971 0.00189334 0.012366 0.00166966 0.00696211 0.00262248 0.0188076 0.00305854 0.0150747 0.00239398 0.0235257 0.00363552 0.0204081 0.00317286 0.0243009 0.00444854 0.0172388 0.00513978 0.0291507
13 3 O 1.08862 57.2371 3.49574 -1.2 1 0.0410165 0.0272653 0.00700725 0.00758245 0.00112016 0.00618716 0.00190407 0.0223673 0.00320575 0.011615 0.00200206 0.0256396 0.00335298 0.020414 0.00331634 0.0291139 0.00476548 0.0215728 0.004368 0.0366581
14 3 O 0.939205 57.3434 5.97683 -1.2 1 0.0358615 0.0241901 0.00691071 0.00767684 0.00150681 0.00664583 0.00200955 0.0214169 0.00257908 0.011483 0.00224138 0.0254352 0.00294419 0.0208403 0.00359117 0.0298645 0.00502633 0.0223391 0.0042945 0.0368766
15 1 Mg 0.354551 52.9248 3.0146 1.2 1 0.129133 0.0560026 0.00316431 0.0142929 0.00164109 0.00783995 0.00265981 0.018437 0.004019 0.0159032 0.00319648 0.0230107 0.00427703 0.0191681 0.0043587 0.0232603 0.00416798 0.0166335 0.00582802 0.0286064
16 1 Mg 0.918352 49.7426 3.54825 1.2 1 0.208729 0.0761386 0.0132177 0.0228037 0.00370428 0.0106667 0.0030827 0.0182801 0.00584005 0.0195063 0.0036715 0.0233274 0.00614876 0.0231468 0.00643796 0.0243985 0.00718129 0.0173919 0.00649752 0.0254814
17 2 Si 2.50673 52.4531 4.94053 2.4 1 0.154388 0.0622168 0.00476017 0.0165741 0.00244643 0.00758452 0.00332013 0.0172877 0.00401319 0.0158428 0.0033061 0.0228693 0.00469324 0.0201669 0.00458912 0.0240577 0.00382468 0.0156954 0.00607875 0.0270081
18 3 O -0.626695 52.6542 4.71362 -1.2 1 0.135881 0.0567267 0.00229912 0.0135999 0.00233854 0.00649331 0.00330412 0.0176453 0.00394871 0.015311 0.00278589 0.0234697 0.0046235 0.0207848 0.00432991 0.0235697 0.00474384 0.0166761 0.0062147 0.027752
19 3 O 2.59585 48.8481 3.66633 -1.2 1 0.225679 0.0811201 0.0157742 0.0256305 0.00405396 0.0126801 0.0034759 0.0176487 0.00571616 0.0201613 0.00466447 0.0235912 0.00764918 0.0226493 0.00800763 0.0239948 0.00797619 0.0172599 0.00616369 0.0243282
20 3 O 1.95733 51.6872 3.6577 -1.2 1 0.155332 0.062503 0.00461207 0.0156383 0.00240996 0.00759357 0.00354748 0.018439 0.00419147 0.0165615 0.00337536 0.0227249 0.00482759 0.0205372 0.00560763 0.0231348 0.00413332 0.0155989 0.00622283 0.0267881
21 1 Mg -0.0150578 53.9561 0.2278 1.2 1 0.103754 0.0484501 0.00341831 0.0115355 0.0018105 0.00664554 0.00271131 0.0180722 0.00410244 0.0154417 0.00286619 0.0243158 0.00429556 0.0191046 0.00470086 0.0242471 0.00508636 0.0171925 0.00567317 0.0301307
22 3 O 2.0833 51.3972 6.10936 -1.2 1 0.162372 0.0645044 0.0056908 0.0169009 0.00282918 0.00824588 0.00301887 0.0173428 0.00381795 0.0172374 0.00320831 0.023183 0.0050174 0.0221963 0.00470843 0.0241278 0.00412982 0.0157804 0.00668958 0.0266838
23 1 Mg 0.0654074 56.4398 1.89356 1.2 1 0.0526083 0.030837 0.00629059 0.00730749 0.00113433 0.00611468 0.00211523 0.0203753 0.00435292 0.0123305 0.00317391 0.0257922 0.00371043 0.0192605 0.00471793 0.0271983 0.00509064 0.0192362 0.00514214 0.0353226
24 2 Si -1.94791 54.5778 1.90377 2.4 1 0.101758 0.0465873 0.00318908 0.0110314 0.00153401 0.00657209 0.00237714 0.018672 0.00392091 0.0135737 0.00316285 0.0235645 0.00339819 0.0186524 0.00428135 0.024098 0.00507661 0.0168739 0.00591808 0.031427
25 3 O 1.24051 54.6019 1.85828 -1.2 1 0.101805 0.0457689 0.0031168 0.0112444 0.00130476 0.00691342 0.00246552 0.0178962 0.00346635 0.0136436 0.00313709 0.023625 0.00333846 0.0185556 0.00440089 0.0242501 0.00409543 0.0172516 0.00562288 0.0309247
26 3 O -0.953014 58.5048 1.88042 -1.2 1 0.0199168 0.0163821 0.00716686 0.00625556 0.00136572 0.0058384 0.00171663 0.0233056 0.00360064 0.0110958 0.00263504 0.0273837 0.0024467 0.0207243 0.00430432 0.0309662 0.00546022 0.0220727 0.00502268 0.040216
27 3 O -1.30778 55.3352 0.608712 -1.2 1 0.0753365 0.0392068 0.00517247 0.00941807 0.0019398 0.00595984 0.00290077 0.0193792 0.00413685 0.0131995 0.0032397 0.0242727 0.00340889 0.0188484 0.00522358 0.026611 0.00492341 0.0184709 0.00499659 0.0332877
28 3 O -1.37223 55.4181 3.10233 -1.2 1 0.0821994 0.0400818 0.00354214 0.00912597 0.00118109 0.00664873 0.0021722 0.0200577 0.0040896 0.0134291 0.00243726 0.0241892 0.00258969 0.0196628 0.00370428 0.0259474 0.00472751 0.0193187 0.00523551 0.0323359
29 1 Mg -2.36331 59.1366 0.308494 1.2 1 0.0136222 0.011893 0.00536066 0.00580656 0.00135324 0.00609098 0.00155803 0.0237085 0.00239959 0.0116372 0.00262741 0.0276956 0.00206515 0.0205243 0.00378093 0.0313966 0.00417629 0.0232153 0.0046811 0.0413342
30 1 Mg 2.2721 62.0059 1.76729 1.2 1 0.00399449 0.00529321 0.00129584 0.00698496 0.000829038 0.00565427 0.00114709 0.0244167 0.00244413 0.0112135 0.00258201 0.0285949 0.00209915 0.0221881 0.00348411 0.0341523 0.00362734 0.0248532 0.00357163 0.0443681
31 2 Si -0.25651 60.031 1.86531 2.4 1 0.00987844 0.00935637 0.00406575 0.00699441 0.00138972 0.00600452 0.00125795 0.0238201 0.00250465 0.0107139 0.00306098 0.0269365 0.00237926 0.0223343 0.00358315 0.0324678 0.00444502 0.0232179 0.00407097 0.0434746
32 3 O 1.27809 59.9536 1.76818 -1.2 1 0.00847452 0.00883374 0.00383617 0.00658601 0.00129139 0.00577961 0.00119333 0.023786 0.00338779 0.0102823 0.00245297 0.0276277 0.00196657 0.0212856 0.00377447 0.0324644 0.00418166 0.0229399 0.00441086 0.0430248
33 3 O -1.34472 63.864 1.90871 -1.2 1 0.00485276 0.00441061 0.00123651 0.00712024 0.00143225 0.00567827 0.00130218 0.024304 0.00123244 0.0110075 0.00180813 0.0285743 0.00211419 0.0212041 0.00260224 0.03348 0.00295725 0.024878 0.00274252 0.0448571
34 3 O -0.97141 60.6301 0.487221 -1.2 1 0.00729962 0.00760705 0.00286338 0.00624466 0.0010491 0.00595901 0.00181054 0.0241877 0.002986 0.0108512 0.00176498 0.0278748 0.00222621 0.0223407 0.00308833 0.0330617 0.00410006 0.0240204 0.00371599 0.0429906
35 1 Mg -2.54989 69.2222 2.98743 1.2 1 0.0021861 0.00483421 0.000424767 0.00647384 0.000936702 0.00593048 0.00162575 0.023194 0.00130852 0.00997746 0.00168834 0.0280764 0.00192776 0.0202253 0.00267852 0.0323817 0.0025377 0.0249693 0.00266901 0.0454802
36 3 O -0.940987 60.7947 2.9947 -1.2 1 0.00681777 0.00752571 0.00294074 0.0070204 0.00122599 0.00606326 0.00162587 0.0242003 0.00231013 0.0106262 0.00228889 0.0275238 0.00229229 0.022281 0.00329176 0.0329733 0.00386373 0.0240521 0.00361625 0.0431302
37 1 Mg -2.61161 66.6141 4.75996 1.2 1 0.00445865 0.00460884 0.00118158 0.00701732 0.0012856 0.00592895 0.00120197 0.0232452 0.00127494 0.010522 0.00228178 0.0279642 0.00224303 0.0213808 0.00385428 0.0327875 0.00269695 0.02588 0.00284741 0.0451527
38 2 Si 0.217848 68.5973 4.72983 2.4 1 0.00371357 0.00438293 0.000965119 0.00778006 0.0017739 0.00586273 0.0015287 0.0225688 0.00183854 0.00968954 0.00226093 0.0267642 0.00247724 0.021233 0.00442204 0.0318966 0.0037136 0.0249636 0.00362395 0.0463901
39 3 O -1.31348 68.6358 4.73344 -1.2 1 0.00345067 0.00453531 0.000866046 0.00736865 0.00138838 0.00573987 0.00148266 0.0229134 0.00264478 0.0094003 0.00146198 0.0274834 0.00232791 0.0204047 0.00287974 0.0324188 0.00292762 0.0249811 0.00316925 0.0460028
40 3 O 1.15095 64.7147 4.83313 -1.2 1 0.00412084 0.00450779 0.00084013 0.00772728 0.001127 0.00591517 0.00087668 0.0235625 0.00116869 0.00984015 0.00217119 0.028422 0.00173115 0.0211712 0.00317048 0.0330558 0.0025501 0.0252208 0.00249786 0.0445719
41 3 O 0.741646 67.8346 3.48938 -1.2 1 0.00318418 0.00452267 0.00100139 0.00693525 0.00128297 0.00569905 0.00137961 0.0230568 0.00106291 0.00975175 0.00187275 0.026949 0.00228896 0.021006 0.00266838 0.0331182 0.00270521 0.0250812 0.00257854 0.0456555
42 3 O 0.859312 67.9558 5.99844 -1.2 1 0.00396158 0.00479337 0.00110319 0.00717766 0.00149725 0.0057073 0.00205062 0.023184 0.0013418 0.00919959 0.00188897 0.0273698 0.00272015 0.0214542 0.00358259 0.0321514 0.00334433 0.0255736 0.00287098 0.0461847
43 1 Mg 0.101389 64.2168 3.34416 1.2 1 0.0042839 0.00449365 0.0010367 0.00692572 0.00111517 0.0059676 0.00098917 0.0242113 0.000991837 0.0108137 0.00129477 0.0289362 0.00131606 0.0213317 0.00222034 0.033383 0.00200803 0.0253158 0.00240341 0.0437628
44 1 Mg -0.0508256 61.3215 4.65597 1.2 1 0.00462732 0.00632948 0.00206291 0.00732571 0.00117569 0.00609191 0.00158317 0.0241904 0.00148398 0.0106056 0.00196946 0.0284997 0.00220468 0.0221452 0.00346071 0.0328447 0.00333613 0.0241026 0.003725 0.0427965
45 2 Si 2.04227 63.2518 4.71808 2.4 1 0.00398648 0.0043767 0.00146012 0.00874984 0.00138539 0.00618875 0.00131395 0.0233845 0.00118471 0.010246 0.00220429 0.0273814 0.00133837 0.0222403 0.00327034 0.0324284 0.00262825 0.0246754 0.00307266 0.0447756
46 3 O -1.20052 63.3394 4.8186 -1.2 1 0.00384077 0.00432969 0.000963187 0.00805844 0.00104061 0.00575844 0.0010542 0.0234037 0.0021999 0.0101983 0.00169134 0.028672 0.00188966 0.0219303 0.00264306 0.0327221 0.00301846 0.0246808 0.00305 0.0445519
47 3 O 1.10702 59.5564 4.75162 -1.2 1 0.0123755 0.0126118 0.00500314 0.00728893 0.00102798 0.00614485 0.00140968 0.0228417 0.00267996 0.0104715 0.00167284 0.0275827 0.00276313 0.0217123 0.00351751 0.0316956 0.00428069 0.022541 0.004032 0.0396913
48 3 O 1.30375 62.537 3.54174 -1.2 1 0.00376538 0.00473907 0.000902224 0.00780293 0.00129978 0.00583913 0.00195837 0.0237163 0.00135242 0.010642 0.00169298 0.0279481 0.00146505 0.022491 0.00272718 0.0338764 0.00234222 0.0245503 0.00298313 0.0440003
49 1 Mg -0.146899 64.4877 0.26807 1.2 1 0.00419635 0.00451805 0.000966931 0.00681266 0.00073806 0.00588409 0.00109642 0.0246423 0.000977235 0.0111503 0.00149144 0.0286344 0.00125227 0.0209628 0.0018936 0.0332179 0.00245417 0.0251085 0.00206232 0.0441574
50 3 O 1.33055 62.5354 6.07189 -1.2 1 0.00401118 0.00509146 0.00131762 0.00770019 0.00120262 0.00642989 0.00139107 0.0239639 0.001381 0.0102542 0.00211378 0.0280385 0.00204689 0.0227068 0.00288843 0.033307 0.00313096 0.0252664 0.00286983 0.0435848
51 1 Mg 0.0180249 67.3659 1.77552 1.2 1 0.0026936 0.00506599 0.000512838 0.00640291 0.000893459 0.00547367 0.00175273 0.0238986 0.00249339 0.010649 0.00176212 0.0282149 0.00181973 0.0208281 0.00357099 0.0333997 0.00287456 0.025279 0.00218134 0.0450776
52 2 Si -2.14187 65.3543 1.84312 2.4 1 0.00379802 0.00438403 0.000772648 0.00769619 0.00155389 0.00536068 0.00191412 0.0234928 0.00146103 0.0109181 0.00204872 0.0276233 0.00226617 0.0213854 0.00335419 0.0330151 0.00335586 0.0247592 0.00222205 0.0457964
53 3 O 1.0482 65.2964 1.766 -1.2 1 0.00413434 0.00434183 0.000779983 0.00699643 0.00162065 0.00524488 0.0017263 0.0234342 0.00241219 0.0105776 0.001369 0.0278852 0.00206813 0.0211424 0.00245823 0.0330284 0.00283146 0.0249577 0.00244127 0.0453791
54 3 O -1.11068 69.0516 1.56255 -1.2 1 0.00196871 0.00509944 0.000942245 0.00627172 0.000865135 0.00569893 0.00148194 0.0237431 0.00129591 0.0100437 0.00241908 0.0280144 0.00210608 0.0202457 0.0028879 0.0323118 0.00276404 0.0251905 0.00257479 0.0458453
55 3 O -1.48368 65.9634 0.513964 -1.2 1 0.00358359 0.0046066 0.00100566 0.00670958 0.00164373 0.00513923 0.00187385 0.0237728 0.00181451 0.0109623 0.00207587 0.0272694 0.00202877 0.0215485 0.0032573 0.033407 0.00308317 0.0250989 0.00215314 0.0452204
56 3 O -1.77446 66.0033 3.18494 -1.2 1 0.00384866 0.00461709 0.00102316 0.00701 0.00119253 0.00556748 0.00125966 0.0236287 0.00161817 0.0105395 0.00173662 0.0274632 0.00191536 0.0215137 0.00272545 0.0332583 0.00242348 0.025243 0.00222697 0.0452193
57 1 Mg -2.46674 69.4762 0.360615 1.2 1 0.00207904 0.00521582 0.000692805 0.00575743 0.00105085 0.00558949 0.00132953 0.0237359 0.00100541 0.0106685 0.00189716 0.0285042 0.00140655 0.0200249 0.00213169 0.0325415 0.0023223 0.0254135 0.00229603 0.0447848
58 1 Mg 2.33288 72.5524 1.75393 1.2 1 0.0033851 0.00547912 0.000770785 0.00623483 0.00099959 0.00558881 0.00180239 0.0234409 0.00243627 0.0100787 0.002392 0.0276843 0.00228014 0.020251 0.00352446 0.0327654 0.00290356 0.0251077 0.00302482 0.0462278
59 2 Si -0.420891 70.6583 1.71922 2.4 1 0.00166682 0.00500871 0.00104302 0.00661913 0.0014615 0.00549605 0.00208053 0.0229757 0.00205257 0.0097885 0.00231344 0.026807 0.00218169 0.0206721 0.00398424 0.0326782 0.00375149 0.0249176 0.00280014 0.0461998
60 3 O 1.12341 70.3432 1.60772 -1.2 1 0.00196191 0.00500873 0.000905052 0.0063397 0.00137112 0.00539025 0.00183211 0.0230898 0.0018222 0.009811 0.00189852 0.0278677 0.00143153 0.0201205 0.00226576 0.03274 0.0029768 0.0249136 0.00251221 0.0458605
61 3 O -1.45206 74.3189 1.7284 -1.2 1 0.00433024 0.0050142 0.000833873 0.00641767 0.00139306 0.00585047 0.00196773 0.0237052 0.00193895 0.0103153 0.00229609 0.0282261 0.00259491 0.0194532 0.00448398 0.0318189 0.00411563 0.024489 0.00326906 0.0456813
62 3 O -0.936643 71.5957 0.595899 -1.2 1 0.00329411 0.00563444 0.00101662 0.00589013 0.00107487 0.00526433 0.00197495 0.0234929 0.00207298 0.00980833 0.00200026 0.026966 0.00227567 0.0202668 0.00286493 0.033495 0.00235841 0.0255711 0.00230393 0.0458714
63 1 Mg -2.31385 79.8889 3.34769 1.2 1 0.00309249 0.0041133 0.00149658 0.00682822 0.00174065 0.00571814 0.00159005 0.0231685 0.00201038 0.0112406 0.00202167 0.0274479 0.0030411 0.0193147 0.00477013 0.0301395 0.0038497 0.0244287 0.00507451 0.0425619
64 3 O -1.18096 71.2151 2.95894 -1.2 1 0.000978204 0.00492989 0.000683111 0.00617747 0.00171002 0.00553702 0.00219975 0.0229801 0.00239239 0.00973455 0.00177764 0.0272029 0.00208179 0.0206123 0.00362644 0.0326274 0.00313951 0.0248582 0.0023709 0.0463283
65 1 Mg -2.27547 77.1092 4.81841 1.2 1 0.00378509 0.00478768 0.00144085 0.00634779 0.00173626 0.00516234 0.00134123 0.0235674 0.00256456 0.0100401 0.00206867 0.0275348 0.00227404 0.0196241 0.0035505 0.0313134 0.00411928 0.0237569 0.0046718 0.0452466
66 2 Si 0.323762 78.8743 4.74665 2.4 1 0.00307458 0.00427159 0.0019474 0.00719754 0.00226895 0.00505614 0.00184427 0.0226338 0.00243396 0.0101321 0.00225093 0.0263332 0.00235142 0.0194964 0.00379889 0.0302649 0.00385733 0.0233381 0.00502685 0.0447108
67 3 O -1.24919 78.8836 4.82298 -1.2 1 0.00308422 0.00433683 0.00163625 0.00698687 0.00207692 0.00490706 0.00186099 0.02246 0.00280849 0.0105449 0.00199766 0.0269566 0.00267497 0.0193009 0.00423761 0.0305328 0.00473356 0.023051 0.00563717 0.0445898
68 3 O 1.20968 75.1947 4.83718 -1.2 1 0.00312146 0.00519708 0.00084987 0.00673419 0.00113701 0.00545101 0.00142643 0.0231714 0.00243082 0.00947142 0.00206157 0.0273902 0.00220051 0.0192033 0.00341403 0.0318409 0.00269406 0.023969 0.00379083 0.0464426
69 3 O 1.02777 78.3809 3.35174 -1.2 1 0.00379999 0.00420235 0.00213767 0.0068831 0.00201021 0.00542484 0.00175724 0.0229033 0.00218802 0.0109099 0.00202865 0.0264129 0.00247195 0.0196425 0.00350293 0.0315465 0.0029079 0.0240359 0.00447374 0.0446223
70 3 O 1.05419 78.2145 5.98387 -1.2 1 0.00254011 0.00470434 0.00161967 0.00645065 0.00166835 0.00465623 0.00149893 0.023692 0.00210362 0.01017 0.00185128 0.0267536 0.00261714 0.0198587 0.00309445 0.0306547 0.00344555 0.0235233 0.00478329 0.0457855
71 1 Mg -0.0769495 74.549 3.25803 1.2 1 0.00393207 0.00538052 0.000757323 0.00639831 0.00131576 0.00564314 0.00153833 0.0232667 0.00180003 0.0098877 0.00177431 0.0280578 0.00216785 0.0192122 0.00310862 0.0319332 0.00241061 0.0242055 0.00313808 0.0455492
72 1 Mg -0.138387 71.9066 4.64263 1.2 1 0.000790697 0.00520346 0.000985268 0.00652749 0.00107853 0.0053443 0.0015867 0.0229147 0.00132306 0.0100069 0.00217882 0.0279591 0.00187993 0.0205157 0.00342327 0.0331557 0.00349235 0.0248141 0.00317189 0.0459394
73 2 Si 1.89673 73.6986 4.77814 2.4 1 0.00178452 0.0048532 0.000718411 0.00726925 0.00136349 0.00566823 0.00149083 0.022865 0.00209512 0.00920354 0.00241777 0.0271677 0.00210408 0.0199865 0.00352244 0.0318812 0.00265834 0.024295 0.00355378 0.0469146
74 3 O -1.28259 73.6555 4.76151 -1.2 1 0.00202579 0.00489717 0.000526755 0.00683156 0.00131638 0.00508644 0.0019178 0.0222612 0.00238794 0.00899467 0.00162368 0.0273101 0.00207807 0.0197975 0.00252842 0.0322576 0.00314055 0.0237762 0.00377085 0.0463987
75 3 O 0.920249 70.0544 4.49474 -1.2 1 0.00148053 0.00483434 0.000946393 0.00673763 0.00156048 0.00585696 0.00142566 0.0240373 0.00154503 0.00960808 0.00174957 0.0275505 0.0023079 0.0201866 0.00267267 0.0321408 0.00290447 0.025268 0.00313834 0.0462896
76 3 O 1.33798 73.048 3.43075 -1.2 1 0.00203425 0.00503201 0.000509498 0.00624113 0.000973891 0.005403 0.00179506 0.0231463 0.00234134 0.0094573 0.0017745 0.0273235 0.00172342 0.020459 0.00289751 0.0323812 0.00214236 0.0247409 0.00300005 0.0465212
77 1 Mg -0.0691921 74.7266 0.272141 1.2 1 0.00503825 0.0051577 0.00102098 0.00616755 0.00132499 0.00574303 0.00146968 0.023632 0.0019702 0.0104643 0.00190986 0.0282242 0.00223271 0.0192829 0.00301947 0.0325331 0.00274221 0.0252992 0.00345746 0.0443177
78 3 O 1.27868 73.1209 6.07392 -1.2 1 0.00112965 0.00528266 0.00112415 0.00672695 0.00130191 0.00549654 0.00158032 0.0233765 0.00172117 0.00907326 0.00158898 0.0268964 0.00161546 0.0201496 0.00230864 0.0322998 0.00271928 0.0251538 0.00260183 0.0470914
79 1 Mg 0.136509 77.7132 1.55812 1.2 1 0.00496421 0.00424411 0.00198039 0.00697488 0.00169872 0.00542713 0.00218411 0.0231887 0.00264419 0.011438 0.00288351 0.0270521 0.00347603 0.0199922 0.00413197 0.0325321 0.00337734 0.0249157 0.00480395 0.0443263
80 2 Si -2.14161 75.8443 1.78931 2.4 1 0.00515361 0.00449684 0.00115528 0.00736052 0.00150767 0.00547164 0.00220792 0.0232038 0.00230973 0.0102173 0.00240541 0.0268761 0.00282155 0.0196545 0.00427295 0.0319259 0.00404783 0.0246191 0.00469979 0.0458863
81 3 O 0.988895 75.6322 1.82389 -1.2 1 0.00470336 0.00461319 0.00100707 0.00691477 0.00136726 0.00561776 0.00157876 0.0227694 0.00202656 0.0101359 0.00198138 0.0277761 0.00235 0.0191528 0.00349993 0.0319974 0.0030707 0.0245464 0.003445 0.045278
82 3 O -1.08104 79.4573 1.65245 -1.2 1 0.00341722 0.0042796 0.00162631 0.00732579 0.00156436 0.00595071 0.00166948 0.0234674 0.0017197 0.0110682 0.0022731 0.0270294 0.00277939 0.0191244 0.00374239 0.0305075 0.00456968 0.0248753 0.00457441 0.0431209
83 3 O -1.47311 76.5371 0.50717 -1.2 1 0.00482282 0.00462969 0.00146058 0.00672832 0.00140793 0.00517991 0.00267836 0.0231584 0.00239854 0.0103656 0.00224929 0.0265932 0.00295849 0.0198192 0.0037294 0.0323665 0.00330721 0.0247837 0.00408209 0.0444511
84 3 O -1.55761 76.4958 3.0572 -1.2 1 0.00489822 0.00440872 0.00139296 0.00652019 0.00174237 0.00531204 0.00186481 0.0230777 0.00190378 0.0100005 0.00189087 0.0270696 0.0029634 0.019349 0.00368612 0.0314726 0.00382802 0.0241072 0.00453415 0.0454547
85 1 Mg -2.33316 79.9014 0.235996 1.2 1 0.00311856 0.00493708 0.0020181 0.00744324 0.00167795 0.00623599 0.00177811 0.0236225 0.00192587 0.0119294 0.00176285 0.0271358 0.00240746 0.0196142 0.00328406 0.0310851 0.00340057 0.0251891 0.00443694 0.042027
86 1 Mg 2.26196 82.765 1.38686 1.2 1 0.00228955 0.0050831 0.000971655 0.00790045 0.00132299 0.00548726 0.00201251 0.0225926 0.00197066 0.0116319 0.00184235 0.0265021 0.00260241 0.0197963 0.00420759 0.0305027 0.00388207 0.0255707 0.00315582 0.0416622
87 2 Si -0.337011 80.97 1.58868 2.4 1 0.00239278 0.00486275 0.00164862 0.00799969 0.0019734 0.00586624 0.00240448 0.022882 0.00157351 0.0112747 0.00259294 0.0259856 0.003162 0.0200734 0.00524628 0.0306961 0.00482007 0.0252421 0.00477805 0.0430849
88 3 O 1.22946 80.8933 1.56196 -1.2 1 0.00261219 0.00435019 0.00166923 0.00770681 0.00182581 0.00591927 0.0016946 0.0221426 0.00231637 0.011614 0.00183567 0.0268049 0.00259964 0.0195576 0.00339503 0.0304704 0.00358945 0.0246618 0.00369064 0.0427989
89 3 O -1.17201 84.6961 1.47046 -1.2 1 0.00394084 0.00556636 0.00060072 0.00802874 0.00103033 0.00560384 0.00183211 0.0228019 0.00139133 0.0111729 0.00256665 0.0263498 0.00257149 0.0191843 0.00383896 0.0299807 0.0050014 0.0257994 0.00395301 0.0416438
90 3 O -1.10355 81.7025 0.412846 -1.2 1 0.00264843 0.00509373 0.00149438 0.00802324 0.00158336 0.00582118 0.0023925 0.0231886 0.00174598 0.011804 0.00213714 0.0255294 0.00246066 0.0202967 0.00411153 0.0310929 0.00438597 0.0257096 0.00367221 0.0418392
91 1 Mg -2.32354 90.2348 2.7805 1.2 1 0.00132192 0.00644445 0.000990881 0.00749387 0.00176883 0.00578927 0.0013471 0.0231222 0.00152973 0.0096385 0.00224435 0.0263255 0.00346833 0.0191211 0.0045337 0.0298061 0.00505919 0.0249017 0.00479439 0.044424
92 3 O -0.854895 81.4763 3.02783 -1.2 1 0.00257345 0.0045167 0.00161998 0.00727467 0.00170385 0.00551603 0.0018421 0.0232297 0.00175522 0.0109745 0.00185823 0.0262576 0.00296745 0.0196086 0.00467152 0.0303367 0.00417441 0.0250009 0.00427976 0.0427624
93 1 Mg -1.95913 87.4725 4.38078 1.2 1 0.00284949 0.00530566 0.000836387 0.00729579 0.00150491 0.00546454 0.00149975 0.0223328 0.00165516 0.0101671 0.00276264 0.0267024 0.00309415 0.0195356 0.003942 0.0296339 0.00509527 0.0249854 0.00491522 0.0433036
94 2 Si 0.600271 89.2623 4.13786 2.4 1 0.000953881 0.00559295 0.00116313 0.00805208 0.00258363 0.00545608 0.00230199 0.0217649 0.00216545 0.00909615 0.00222808 0.0261288 0.00374921 0.0194614 0.004779 0.0297424 0.00485093 0.0244788 0.00549714 0.0447666
95 3 O -1.04723 89.2756 4.05171 -1.2 1 0.00058686 0.00575617 0.000881311 0.00773502 0.00221735 0.00530142 0.0015717 0.0217853 0.00233193 0.0089035 0.0025645 0.0259492 0.00408608 0.019113 0.00482375 0.0298762 0.00596609 0.0240944 0.0059177 0.0442301
96 3 O 1.86329 85.6431 4.56832 -1.2 1 0.00260658 0.00448727 0.000995468 0.0072376 0.00149554 0.00585307 0.00173023 0.0230122 0.00122002 0.0102894 0.0014954 0.0263402 0.00264424 0.0193147 0.00408419 0.0286673 0.00413656 0.0248645 0.00452666 0.043302
97 3 O 1.32213 88.5301 2.95126 -1.2 1 0.00134702 0.0058118 0.000488789 0.00744 0.00191404 0.0055627 0.00183903 0.0226759 0.00222917 0.0100216 0.00227021 0.0254691 0.00327678 0.0198186 0.00423963 0.0296787 0.00499278 0.0247868 0.00474849 0.0435645
98 3 O 1.23162 88.7152 5.55738 -1.2 1 0.00183211 0.00533429 0.0013357 0.00741238 0.00187809 0.00562213 0.00179432 0.0224822 0.00155313 0.00904034 0.00194903 0.026172 0.0028961 0.0196213 0.00370702 0.0299826 0.0039912 0.0249748 0.00474066 0.0447214
99 1 Mg 0.185367 85.172 2.88011 1.2 1 0.00311606 0.00531229 0.000591784 0.00747144 0.00106601 0.00570389 0.00190631 0.0229862 0.00115706 0.0107586 0.00214698 0.0260913 0.00287363 0.0191922 0.004165 0.0295293 0.00449876 0.0257487 0.00399507 0.0417321
100 1 Mg 0.212523 82.3022 4.74153 1.2 1 0.00254974 0.00417592 0.00126472 0.00702589 0.00180381 0.00554468 0.00172104 0.0230136 0.00168076 0.0108069 0.00224508 0.0264401 0.00275597 0.0197259 0.00439871 0.0289345 0.00452909 0.0252824 0.00479771 0.042494
101 2 Si 2.30852 84.0442 4.43702 2.4 1 0.00316916 0.00473798 0.00108853 0.007915 0.00196278 0.00529248 0.00216284 0.0222749 0.00165129 0.0101759 0.00236381 0.0252258 0.00286836 0.0194113 0.0039765 0.029133 0.00420008 0.0250925 0.00428 0.0431458
102 3 O -0.864288 84.2228 4.39083 -1.2 1 0.00278164 0.00461092 0.00104835 0.00747514 0.00170937 0.00561135 0.00185471 0.0220706 0.00220147 0.0102677 0.00234188 0.0260129 0.00248567 0.0189913 0.00415903 0.0290165 0.00427118 0.0247998 0.00478533 0.0429585
103 3 O 1.23706 80.435 4.70671 -1.2 1 0.00238241 0.00408695 0.00171167 0.00700619 0.00181471 0.00557114 0.00169885 0.0231127 0.00196055 0.0106561 0.00180218 0.0266705 0.00294928 0.0192701 0.00405113 0.0293583 0.00340999 0.0241624 0.00492683 0.0432015
104 3 O 1.42775 83.6357 3.19137 -1.2 1 0.00297088 0.00494246 0.00112017 0.00766255 0.00205949 0.00524765 0.00259943 0.0222738 0.00156778 0.0108733 0.00281092 0.025416 0.0032438 0.0197217 0.00433151 0.0297261 0.00426581 0.0254561 0.00371942 0.0425504
105 1 Mg 0.0895536 84.9736 -0.104635 1.2 1 0.00367422 0.00575252 0.000634928 0.00774908 0.000788774 0.00612893 0.00167222 0.0233692 0.00153182 0.0114522 0.00186635 0.0266055 0.00257803 0.0193366 0.00281545 0.0306673 0.00374282 0.0263031 0.00398322 0.0413427
106 3 O 1.65635 83.4437 5.75042 -1.2 1 0.00268661 0.00461152 0.000616781 0.00709499 0.00167805 0.0052473 0.00203274 0.0229325 0.00128621 0.0104363 0.00163029 0.0258166 0.00267539 0.019671 0.00400074 0.0291117 0.00368923 0.0249224 0.00412205 0.0440023
107 1 Mg 0.191543 87.8947 1.25733 1.2 1 0.00206913 0.00663557 0.000808807 0.00774498 0.00103645 0.00539923 0.00200031 0.0223619 0.00217115 0.0103442 0.00192016 0.0263374 0.00251865 0.0200265 0.00315611 0.0304436 0.00493434 0.0250883 0.00401681 0.04273
108 2 Si -1.90449 86.2435 1.38526 2.4 1 0.00388229 0.0055604 0.000827167 0.00837688 0.00130741 0.00538348 0.00219745 0.0222383 0.00223363 0.0103778 0.00332539 0.0251981 0.00314348 0.0199023 0.00575508 0.029628 0.00619342 0.025087 0.00479318 0.0429738
109 3 O 1.31338 86.1399 1.35007 -1.2 1 0.00353542 0.00578585 0.000821512 0.00802155 0.00112052 0.00544661 0.00180539 0.022447 0.00219859 0.0102116 0.0017752 0.025977 0.00280909 0.0193909 0.00344132 0.0300642 0.00533968 0.0254865 0.00393048 0.0425429
110 3 O -0.956019 89.7983 1.22808 -1.2 1 0.000373691 0.00686437 0.00114756 0.00777282 0.00159278 0.00541859 0.0016859 0.0230772 0.0015879 0.0101818 0.00204377 0.02627 0.00359887 0.019881 0.0038699 0.0309214 0.00446158 0.025409 0.00432611 0.0442319
111 3 O -1.33456 86.7689 -0.0162553 -1.2 1 0.00390317 0.006294 0.00103073 0.00771856 0.00125667 0.00531367 0.00187037 0.0232041 0.00228442 0.0108952 0.00236514 0.0255701 0.00262169 0.0202451 0.00457625 0.0310728 0.0050321 0.0256659 0.00432354 0.0425419
112 3 O -1.14901 86.9112 2.55695 -1.2 1 0.00220588 0.00562287 0.000879146 0.00745427 0.00112281 0.00543699 0.00207581 0.0226191 0.00227216 0.0103014 0.00253509 0.0254934 0.00299373 0.0198559 0.00472372 0.0295024 0.00540483 0.0254074 0.00426021 0.0431075
113 1 Mg -2.52112 90.371 -0.0998542 1.2 1 0.00102993 0.00693897 0.00101534 0.00782886 0.0012003 0.00576835 0.00145496 0.0234013 0.0013215 0.0108806 0.00179826 0.0269781 0.00271372 0.0199164 0.00329392 0.0314881 0.00340248 0.0252202 0.0036673 0.044229
114 1 Mg 2.43025 93.4414 1.3893 1.2 1 0.00584708 0.00612743 0.00206064 0.00707673 0.00178659 0.00514123 0.00155662 0.0231541 0.00197221 0.0105253 0.00250716 0.0268929 0.0031531 0.0206518 0.00490507 0.0311563 0.00425927 0.0239852 0.00447625 0.0464721
115 2 Si -0.401465 91.4533 1.25933 2.4 1 0.0020128 0.00653025 0.00125321 0.00820554 0.00124148 0.00514065 0.00191289 0.0223698 0.00211048 0.00986196 0.00302586 0.0258983 0.00374564 0.0203913 0.00639079 0.0307466 0.00621285 0.0244806 0.00521272 0.0457478
116 3 O 1.09041 91.4313 1.25741 -1.2 1 0.0027214 0.00644437 0.0016266 0.00789645 0.00113013 0.00506652 0.00152416 0.0227267 0.0023316 0.00980668 0.00208944 0.0261742 0.00280592 0.0198573 0.00383796 0.0315567 0.00469065 0.0245707 0.00409087 0.0459949
117 3 O -1.44195 95.2201 1.22928 -1.2 1 0.0049533 0.00527622 0.00170901 0.00724031 0.00175511 0.0057993 0.00162774 0.0238193 0.00148437 0.0106785 0.00229666 0.0271643 0.00342964 0.0204991 0.00437683 0.0306756 0.00434749 0.0240864 0.00421393 0.0461049
118 3 O -1.06907 92.1933 0.129856 -1.2 1 0.00363554 0.00679311 0.00118395 0.00766859 0.000928173 0.00532976 0.00215635 0.0233452 0.0022108 0.0103522 0.00212454 0.0261238 0.00298137 0.0209266 0.00382744 0.0319698 0.00415273 0.024959 0.0034523 0.0456368
119 1 Mg -2.1823 100.926 2.92546 1.2 1 0.00446995 0.0039547 0.00115609 0.00717349 0.0010155 0.00589091 0.00158487 0.0225483 0.00165164 0.0105346 0.00172153 0.0270581 0.00180732 0.0187768 0.00226864 0.0305666 0.0035792 0.0238267 0.00301952 0.0412817