ITEM: TIMESTEP
30800
ITEM: NUMBER OF ATOMS
5600
ITEM: BOX BOUNDS xy xz yz pp pp pp
0	7.1235	0
0	201.985	2.3745
0	119.584	0
ITEM: ATOMS id type element xu yu zu q Q_1 Q_2 Q_3 Q_4 Q_5 Q_6 Q_7 Q_8 Q_9 Q_10 Q_11 Q_12 Q_13 Q_14 Q_15 Q_16 Q_17 Q_18 Q_19 Q_20 Q_21
1 1 Mg -1.79755 49.1009 -0.890548 1.2 1 0.23826 0.0779205 0.0200766 0.0262026 0.00539059 0.0168231 0.00433386 0.0216166 0.00432754 0.0252089 0.00577987 0.030804 0.0101957 0.0305419 0.00794668 0.0285941 0.00797671 0.0238644 0.00963641 0.0336211
2 1 Mg 2.69295 50.7983 2.24132 1.2 1 0.187402 0.0684332 0.00974304 0.0198171 0.00268091 0.0123592 0.00306589 0.0195577 0.00416654 0.0201773 0.00413256 0.0276954 0.00474197 0.0274355 0.00565208 0.0286825 0.00566569 0.0217183 0.0086083 0.0323532
3 2 Si 0.611509 50.5048 0.306623 2.4 1 0.205641 0.0711148 0.0153561 0.0226556 0.00432388 0.0134335 0.00319776 0.0206108 0.00556598 0.022269 0.00437045 0.0284979 0.00730111 0.0289709 0.00631998 0.0285168 0.00660784 0.0215221 0.00796539 0.0331971
4 3 O 1.93938 49.6512 0.549382 -1.2 1 0.218902 0.0741665 0.0170235 0.0238167 0.00490268 0.0138644 0.00328317 0.0203629 0.00546019 0.0228749 0.00474397 0.0280666 0.00796071 0.0302676 0.00721734 0.0291864 0.00748986 0.0227464 0.00814264 0.0318587
5 3 O -1.44683 53.357 1.67668 -1.2 1 0.13125 0.0521434 0.00339694 0.013705 0.00176897 0.00943298 0.00252947 0.0195857 0.00260767 0.0163828 0.00306134 0.0279876 0.00410285 0.0236244 0.00388355 0.0288862 0.00391073 0.0207073 0.007188 0.0353292
6 3 O -0.0777628 49.8413 -0.891996 -1.2 1 0.211872 0.0740182 0.014493 0.0234027 0.00403473 0.0147274 0.00319613 0.0203599 0.00435903 0.0228828 0.00546507 0.0296806 0.0075836 0.0287006 0.005749 0.0277166 0.00636548 0.0216522 0.00731917 0.0336094
7 1 Mg -2.49423 58.9953 3.35004 1.2 1 0.016372 0.0142746 0.00516696 0.00620883 0.00172434 0.00596678 0.00163334 0.0227207 0.00358646 0.0100873 0.0025034 0.028371 0.00213061 0.0202364 0.00430199 0.0320832 0.0044053 0.0244617 0.00401975 0.043531
8 3 O -0.287613 50.6028 1.53459 -1.2 1 0.18897 0.0678623 0.0114456 0.0202366 0.0027757 0.0123552 0.00316638 0.0208928 0.00509954 0.0218114 0.00412568 0.0277153 0.0051877 0.0282725 0.00558146 0.0295108 0.00608375 0.0218682 0.00801469 0.0323166
9 1 Mg -2.35794 56.2375 4.55255 1.2 1 0.0709666 0.0347511 0.00402496 0.00865892 0.00192112 0.00640493 0.00192045 0.020718 0.00224895 0.0133439 0.00229225 0.0268532 0.00242264 0.0213694 0.00420288 0.0291274 0.00417341 0.0224838 0.00609888 0.0378585
10 2 Si 0.181839 58.0105 4.77524 2.4 1 0.0287435 0.0203917 0.0069666 0.00701418 0.00183081 0.00594487 0.00267437 0.0219964 0.00311256 0.0100377 0.00367489 0.0267401 0.00246059 0.0207487 0.00571473 0.0303034 0.00483239 0.0232134 0.00526439 0.0413134
11 3 O -1.30538 58.0077 4.6785 -1.2 1 0.0299691 0.0211697 0.00722726 0.00695689 0.00171472 0.00529491 0.00209417 0.0214968 0.00323401 0.00952687 0.00273154 0.0267858 0.00297154 0.0201411 0.00426905 0.0308809 0.00557134 0.0226545 0.00507965 0.0414936
12 3 O 1.43734 54.1421 4.80353 -1.2 1 0.11252 0.0467694 0.00105384 0.0119135 0.00195577 0.00841962 0.00313013 0.0211039 0.00244751 0.0167877 0.00240301 0.0277005 0.00380611 0.0234006 0.00422501 0.0270635 0.00440649 0.0209864 0.00723992 0.0354652
13 3 O 0.906332 57.2964 3.48964 -1.2 1 0.0431917 0.0264462 0.00635345 0.00722439 0.00219058 0.00577793 0.00171539 0.0221793 0.0024948 0.0115875 0.0027794 0.0274719 0.00275662 0.0214334 0.00498116 0.0301748 0.00373375 0.0225845 0.00546719 0.040601
14 3 O 0.880129 57.4052 6.05477 -1.2 1 0.0402066 0.0249006 0.00695393 0.00677178 0.00147806 0.00621649 0.00214929 0.0224344 0.00250471 0.0114139 0.00235329 0.0268181 0.00253987 0.0209594 0.00481618 0.029886 0.00459672 0.0232311 0.00475232 0.0402019
15 1 Mg 0.110762 53.4455 3.06317 1.2 1 0.126875 0.0519673 0.00179231 0.0134706 0.00168991 0.00942876 0.002636 0.0199928 0.00260884 0.0173498 0.00282003 0.0283086 0.0036147 0.0234293 0.00525073 0.0279819 0.00358101 0.0202799 0.00757894 0.0345405
16 1 Mg 0.397072 50.0236 3.29786 1.2 1 0.213201 0.0740191 0.0141159 0.0234287 0.0031262 0.0139398 0.00360376 0.0200867 0.00474855 0.0231017 0.00388217 0.0281031 0.00601097 0.0290296 0.00625756 0.028512 0.00742073 0.0220469 0.00964888 0.0314569
17 2 Si 2.20641 52.6542 4.79097 2.4 1 0.156485 0.0585271 0.00629241 0.0160325 0.00275462 0.0100241 0.00361911 0.0197058 0.00324565 0.018844 0.00358781 0.0273668 0.0048096 0.0240472 0.00555213 0.0275346 0.00429556 0.0199657 0.00829431 0.0325974
18 3 O -1.00877 52.8019 4.72183 -1.2 1 0.143085 0.0554747 0.00427824 0.0143174 0.00267848 0.00901451 0.00340115 0.0195768 0.00330732 0.0177276 0.00288754 0.0280042 0.00503265 0.025261 0.00399507 0.0280443 0.00502148 0.0202927 0.00754323 0.0336356
19 3 O 2.28985 49.2682 3.42561 -1.2 1 0.224254 0.0763889 0.0158596 0.0246632 0.00304576 0.0155659 0.00369134 0.0204233 0.00413402 0.0236996 0.00407745 0.0290693 0.00690987 0.0287476 0.00645015 0.0284318 0.0074492 0.0217448 0.0086426 0.0316592
20 3 O 1.57623 52.0288 3.47988 -1.2 1 0.156899 0.0599735 0.00486459 0.0157921 0.00222753 0.0102624 0.00325785 0.0197744 0.00303812 0.0188076 0.00314462 0.0277342 0.0042756 0.0251979 0.00570277 0.0283691 0.00437171 0.0203488 0.00851237 0.0331155
21 1 Mg -0.176674 53.9084 0.126947 1.2 1 0.115676 0.0496866 0.00106662 0.0124496 0.00231343 0.00836598 0.00268299 0.0207092 0.00320345 0.0170348 0.00337352 0.0286897 0.00409153 0.0235388 0.0051983 0.0292512 0.00363975 0.0213434 0.00710188 0.0365724
22 3 O 1.76136 51.5547 5.95084 -1.2 1 0.169738 0.0621942 0.00845396 0.0173823 0.00326951 0.0112384 0.0038451 0.0195278 0.00306284 0.0203332 0.00353968 0.0273726 0.00591304 0.0256451 0.00517236 0.0268172 0.00516354 0.0198332 0.00792839 0.031518
23 1 Mg -0.0176947 56.6282 1.74857 1.2 1 0.0571198 0.0304618 0.00518837 0.00770116 0.0019203 0.00623547 0.00189497 0.021153 0.00331268 0.0122984 0.00321511 0.0280062 0.0028342 0.021813 0.00498392 0.0301716 0.00442835 0.0218876 0.00650559 0.0401823
24 2 Si -2.13456 54.8023 1.74398 2.4 1 0.103061 0.04462 0.00115907 0.0116465 0.00169177 0.00764463 0.00230022 0.0199798 0.00360953 0.0148129 0.00308199 0.0273025 0.00265186 0.0226593 0.00447356 0.029072 0.00404038 0.0207558 0.00617746 0.0373286
25 3 O 1.03784 54.7193 1.70837 -1.2 1 0.103988 0.0448062 0.0014112 0.0110217 0.001666 0.00801771 0.00258765 0.0200956 0.00313302 0.0151843 0.00305017 0.0276328 0.00312617 0.0224529 0.00475948 0.0292754 0.00337079 0.0207429 0.00709915 0.0366387
26 3 O -1.23921 58.6079 1.75322 -1.2 1 0.0210356 0.0168798 0.00693698 0.00611826 0.0019196 0.00557611 0.00183498 0.0225236 0.00382277 0.00948094 0.00269617 0.0287825 0.00320034 0.0199624 0.00529777 0.0323317 0.00506287 0.0234939 0.00579232 0.0440446
27 3 O -1.39944 55.5168 0.437287 -1.2 1 0.0789521 0.0383146 0.00376115 0.00883524 0.00232205 0.00672212 0.00205187 0.0210611 0.00279002 0.0136569 0.0025681 0.0275176 0.00272861 0.0224914 0.00461141 0.0299553 0.00422352 0.0218611 0.00655645 0.0392315
28 3 O -1.46842 55.5364 2.99067 -1.2 1 0.084559 0.038811 0.00260512 0.00940527 0.00198351 0.00687862 0.00182407 0.0205645 0.00319628 0.0140327 0.00269849 0.0273529 0.00191559 0.0219987 0.0040887 0.0294156 0.00429865 0.0218981 0.0061988 0.0376301
29 1 Mg -2.51855 59.0013 0.272893 1.2 1 0.0167245 0.0150065 0.00613117 0.00582592 0.00135859 0.00587412 0.00186599 0.023518 0.0029319 0.0103649 0.00242983 0.028906 0.00275258 0.0205966 0.00494328 0.0322973 0.00448929 0.0242141 0.00533222 0.045094
30 1 Mg 2.08936 62.1009 1.8101 1.2 1 0.00510425 0.00604242 0.00188428 0.00628809 0.00117479 0.00580149 0.00146507 0.0236804 0.00300156 0.00919173 0.00281093 0.0293948 0.0023654 0.0199306 0.00415541 0.0343259 0.00361421 0.0256462 0.00412664 0.0480077
31 2 Si -0.46445 60.0473 1.78667 2.4 1 0.0100347 0.0102375 0.00408053 0.00662943 0.00177695 0.00611206 0.000970639 0.0228393 0.00312974 0.00942231 0.0032219 0.0278777 0.00319031 0.0207569 0.00448849 0.0328282 0.00404648 0.024861 0.00437407 0.0467358
32 3 O 1.03852 59.974 1.81763 -1.2 1 0.00979798 0.0103316 0.00454171 0.00613617 0.00173301 0.00582036 0.00161915 0.023108 0.0036628 0.00911483 0.00288386 0.0284531 0.00246237 0.0200546 0.00515907 0.0330888 0.00414392 0.0246587 0.00454983 0.0464145
33 3 O -1.48004 63.9547 1.92176 -1.2 1 0.00562047 0.00504954 0.00243367 0.00711854 0.00113794 0.00639745 0.0012662 0.0239979 0.00205258 0.00889675 0.00252868 0.0287068 0.00252458 0.0192354 0.00331401 0.0331645 0.00306518 0.0255509 0.0046474 0.0487212
34 3 O -1.07296 60.8818 0.579288 -1.2 1 0.00658013 0.00791761 0.00325173 0.00616357 0.00151745 0.00610957 0.00107684 0.0235398 0.00279405 0.00920438 0.00242571 0.0283891 0.00318576 0.0208218 0.00397378 0.0334875 0.00338886 0.0255512 0.00439724 0.0477969
35 1 Mg -2.46916 69.3349 3.16664 1.2 1 0.00151064 0.00493084 0.000929266 0.00702672 0.000893179 0.00610316 0.00106643 0.022998 0.00166293 0.00995584 0.000997666 0.0279802 0.00136301 0.0193289 0.00200777 0.0331433 0.00207103 0.0252069 0.00319234 0.0476237
36 3 O -1.20297 60.7307 3.06734 -1.2 1 0.00673355 0.00844578 0.00299742 0.0061487 0.00157147 0.00569715 0.00145628 0.0234821 0.00265416 0.00930272 0.00280199 0.028081 0.00290933 0.0206147 0.00451958 0.0334596 0.00387807 0.0250373 0.00403913 0.046123
37 1 Mg -2.42151 66.6175 4.82219 1.2 1 0.00280996 0.00480636 0.00146164 0.00642159 0.00109837 0.00534522 0.00123136 0.0234093 0.00215147 0.00984406 0.00224652 0.0276923 0.0021466 0.0194311 0.00320329 0.0333755 0.00348638 0.0248005 0.00449535 0.0481271
38 2 Si 0.175123 68.3722 4.64849 2.4 1 0.00174406 0.00438642 0.00115935 0.00751712 0.00193969 0.00546294 0.00190618 0.0227981 0.00190377 0.00972291 0.00231202 0.0265973 0.00296427 0.0197878 0.00344706 0.03272 0.00344936 0.0247678 0.00421467 0.0492612
39 3 O -1.38846 68.4327 4.63717 -1.2 1 0.00127019 0.00427081 0.00115035 0.00697523 0.00146115 0.00516005 0.00159094 0.0225219 0.00296281 0.00954112 0.00195133 0.0269117 0.00207238 0.0191624 0.0034972 0.0325805 0.00353507 0.0242028 0.00467162 0.0482195
40 3 O 1.21007 64.7576 4.83875 -1.2 1 0.00284841 0.00500021 0.00203803 0.00616653 0.00118624 0.00579516 0.000871983 0.0241671 0.00192163 0.00900363 0.00168582 0.0282489 0.00283763 0.0190877 0.00325627 0.033162 0.00300804 0.0247045 0.00462795 0.047969
41 3 O 0.905293 67.6277 3.39043 -1.2 1 0.00263595 0.00471446 0.00103929 0.00685954 0.00137962 0.00549057 0.00160644 0.0232275 0.00161376 0.00966115 0.00179185 0.0265979 0.00203538 0.0195535 0.00218091 0.0337212 0.00266199 0.0256143 0.00340108 0.0487345
42 3 O 0.86525 67.7376 5.97697 -1.2 1 0.00192939 0.00438506 0.00158187 0.0064767 0.00202205 0.00511931 0.00153349 0.0235636 0.00160008 0.00975043 0.00135767 0.0270438 0.0028681 0.0195809 0.00268857 0.032712 0.00373161 0.0243016 0.00454083 0.048481
43 1 Mg -0.349809 64.3489 3.48431 1.2 1 0.00447911 0.00507452 0.00198636 0.00622102 0.00116837 0.00581213 0.000881808 0.0234547 0.00216071 0.00907936 0.00167991 0.0290849 0.0025736 0.0190515 0.00230663 0.0334915 0.00253945 0.0248192 0.00408064 0.0471148
44 1 Mg -0.221166 61.3779 4.72084 1.2 1 0.00598447 0.00689029 0.00277205 0.005998 0.0015643 0.00562597 0.0019015 0.0235844 0.00201132 0.00963658 0.00344581 0.0287272 0.0027022 0.0196104 0.00355348 0.0335659 0.00368819 0.0246215 0.00420355 0.0455761
45 2 Si 1.86085 63.3279 4.7879 2.4 1 0.00369977 0.00471349 0.0022892 0.0070203 0.00168006 0.00613033 0.00159015 0.0234466 0.00216961 0.00874698 0.00264155 0.0275439 0.00277047 0.0196653 0.00390829 0.0331871 0.00303432 0.0243631 0.00419447 0.047834
46 3 O -1.36414 63.2942 4.90163 -1.2 1 0.00390068 0.00511992 0.00207137 0.00657268 0.00130571 0.00575266 0.00147031 0.0234161 0.00245077 0.00869488 0.00226113 0.0280399 0.00262755 0.0189214 0.00326751 0.0336208 0.0035673 0.0245205 0.00397451 0.0477434
47 3 O 0.988545 59.4929 4.7016 -1.2 1 0.0136684 0.0128475 0.00481819 0.00646282 0.00161233 0.00598714 0.00223009 0.0226972 0.00299305 0.00965195 0.0025091 0.028124 0.00211368 0.0202286 0.00392 0.0318762 0.00414903 0.0237769 0.00332492 0.0435897
48 3 O 1.17263 62.5018 3.63496 -1.2 1 0.00468341 0.00535702 0.00199498 0.00678165 0.00149488 0.00575195 0.00224972 0.0231063 0.00195172 0.00894419 0.00250536 0.0279102 0.00282749 0.0197195 0.00420456 0.0343383 0.00316788 0.0246535 0.00378203 0.0475989
49 1 Mg -0.139106 64.2293 0.326783 1.2 1 0.00502816 0.00500578 0.00171538 0.00687229 0.00132719 0.00655964 0.00124622 0.0236451 0.00207921 0.00917374 0.00215843 0.0295284 0.00258593 0.0191365 0.00309422 0.0336974 0.00305835 0.0258714 0.00463106 0.0480707
50 3 O 1.17765 62.6253 6.19374 -1.2 1 0.00291798 0.00522397 0.00254633 0.00586123 0.00191917 0.00564298 0.00156326 0.0242862 0.00185312 0.00915578 0.00186131 0.0276736 0.00272416 0.019681 0.00334137 0.0332298 0.00349019 0.0245238 0.00413213 0.0465793
51 1 Mg -0.0201 67.1605 1.71945 1.2 1 0.00335251 0.00484734 0.00162506 0.00715263 0.00134917 0.00592047 0.00166528 0.0231859 0.00262331 0.0098035 0.0022092 0.0280667 0.00249138 0.0197657 0.00244717 0.0338143 0.00308494 0.0255343 0.00409767 0.0481888
52 2 Si -2.19459 65.4489 1.81071 2.4 1 0.00499668 0.00486703 0.00191715 0.00751949 0.00176514 0.00611332 0.00197838 0.023226 0.00204541 0.00918982 0.00210582 0.0276005 0.00292775 0.0194375 0.0031803 0.0333729 0.00311291 0.0251439 0.00480943 0.0489367
53 3 O 1.00557 65.2056 1.91221 -1.2 1 0.0045455 0.00471565 0.00189912 0.00716742 0.0016558 0.00584625 0.00147731 0.0225699 0.00251212 0.00897726 0.00178889 0.0282767 0.00314845 0.0191489 0.00257361 0.0337498 0.0037979 0.0247837 0.00466857 0.0487032
54 3 O -1.06178 69.0102 1.8406 -1.2 1 0.00212875 0.00491172 0.00136868 0.00766006 0.00100345 0.00638822 0.00112366 0.0236947 0.00148788 0.0101678 0.00226438 0.0278509 0.00242729 0.0195639 0.00315777 0.0326956 0.00235366 0.0253606 0.00354132 0.0483785
55 3 O -1.52685 66.0788 0.498044 -1.2 1 0.00455965 0.00468452 0.00215345 0.00721004 0.00146675 0.00599652 0.00196956 0.0232568 0.00209927 0.00946742 0.00250041 0.0277881 0.0028475 0.0196998 0.0027165 0.0339769 0.00285732 0.0256216 0.0046653 0.0494317
56 3 O -1.45523 65.9264 3.14494 -1.2 1 0.00375545 0.00468039 0.00157777 0.00671089 0.00154598 0.00578152 0.00144923 0.0235341 0.00164028 0.00963574 0.00188413 0.0274141 0.00281278 0.0193681 0.00296044 0.0340124 0.00303808 0.0251168 0.00456362 0.0486383
57 1 Mg -2.34334 69.5581 0.147597 1.2 1 0.00258565 0.00498035 0.00126374 0.00727044 0.0009608 0.00648306 0.000953411 0.0233575 0.000768603 0.00976425 0.00154663 0.0281891 0.00184994 0.0193267 0.00245115 0.0331145 0.00234885 0.0255479 0.00255672 0.0482686
58 1 Mg 2.21221 72.3142 1.61588 1.2 1 0.00181971 0.00519926 0.000926025 0.00748715 0.00081982 0.00598617 0.00155347 0.023417 0.00197638 0.0106961 0.00265516 0.0264639 0.00222746 0.0203534 0.00268237 0.0337621 0.00265529 0.0258926 0.00205289 0.0477586
59 2 Si -0.454677 70.538 1.86095 2.4 1 0.000949146 0.00465284 0.00092012 0.00821709 0.00118129 0.00582085 0.00142145 0.0229751 0.00150196 0.0103069 0.00193781 0.0261328 0.00201806 0.020175 0.00318111 0.0331007 0.00237523 0.0255245 0.00316059 0.0490875
60 3 O 1.1252 70.4576 1.71856 -1.2 1 0.00105614 0.00466421 0.000975422 0.00781985 0.000968176 0.00571359 0.00133489 0.022362 0.00206722 0.00989026 0.00181602 0.0269605 0.00183995 0.0193643 0.00203223 0.0336007 0.00246589 0.0251252 0.00263152 0.0484125
61 3 O -1.46768 74.162 1.6324 -1.2 1 0.00227052 0.00482357 0.00117676 0.00745431 0.000781856 0.00618284 0.00118291 0.0237514 0.00132579 0.0107753 0.00190901 0.0265475 0.00190839 0.0199338 0.00228127 0.0329492 0.00215901 0.0254417 0.00275535 0.047523
62 3 O -1.07969 71.0672 0.529118 -1.2 1 0.00118222 0.00519519 0.000889246 0.00757164 0.00134096 0.00594923 0.00229409 0.0230572 0.00188594 0.0100761 0.00237057 0.0264979 0.00250638 0.0203734 0.00293164 0.0337855 0.00251456 0.0256657 0.00252743 0.0489691
63 1 Mg -2.3112 80.1325 2.83483 1.2 1 0.00363284 0.00353084 0.00137433 0.00650894 0.00110104 0.00569491 0.000909886 0.0233201 0.00165084 0.0100629 0.00212864 0.0278441 0.00287155 0.0197748 0.00220524 0.0313718 0.00244851 0.0235973 0.00434437 0.0473569
64 3 O -1.23103 71.1585 3.10101 -1.2 1 0.00207156 0.00518328 0.0010384 0.00722336 0.00123021 0.00557391 0.00145866 0.023829 0.0015684 0.0108747 0.00201238 0.026 0.00187764 0.0202218 0.00370415 0.0332913 0.00309057 0.0255045 0.00367071 0.048642
65 1 Mg -2.53521 77.0995 4.42433 1.2 1 0.00408209 0.0037557 0.00144025 0.00695477 0.00122121 0.00497064 0.0011118 0.0235047 0.00240955 0.0106834 0.00257982 0.0270303 0.00279369 0.0201001 0.00360058 0.032177 0.00392382 0.0248369 0.00476732 0.0470622
66 2 Si 0.186898 78.9079 4.32907 2.4 1 0.00394329 0.003449 0.00184852 0.00744578 0.00194195 0.00485382 0.00178011 0.022797 0.00178412 0.00959721 0.00223028 0.0261355 0.00360762 0.0198634 0.00278421 0.031092 0.00298095 0.0242849 0.00551948 0.0482963
67 3 O -1.3781 79.0455 4.26169 -1.2 1 0.00402093 0.0036127 0.00175667 0.00708452 0.00164355 0.00483689 0.00131453 0.0228252 0.00259184 0.00940952 0.00202279 0.0267206 0.00334091 0.0196897 0.00332638 0.0314757 0.00364031 0.0241018 0.00599581 0.0476609
68 3 O 1.32234 75.1697 4.43916 -1.2 1 0.00435121 0.00421307 0.00133495 0.00730529 0.00157616 0.00562586 0.00136867 0.0237992 0.00210111 0.0103799 0.00224632 0.0270069 0.00286177 0.0198063 0.00394996 0.0318262 0.00299324 0.0250394 0.00476037 0.0468873
69 3 O 0.842519 78.1059 3.06365 -1.2 1 0.00401983 0.00377525 0.00153948 0.00667927 0.00107843 0.00524033 0.00102909 0.0233523 0.00212375 0.00980622 0.00230428 0.0262563 0.00277305 0.0201165 0.00261227 0.0324109 0.00278133 0.024427 0.0047947 0.0474451
70 3 O 0.798588 78.3216 5.66098 -1.2 1 0.00347691 0.00345936 0.00189805 0.00663574 0.00169001 0.00488766 0.0016856 0.0232129 0.00203189 0.00993041 0.00215869 0.0265764 0.00296938 0.0200632 0.00232249 0.0321492 0.00268575 0.0247598 0.00480066 0.0478511
71 1 Mg 0.113701 74.856 2.92982 1.2 1 0.00349856 0.00440734 0.00107276 0.00688218 0.000931901 0.00562896 0.0011525 0.0231022 0.0014728 0.0103093 0.00150487 0.0270188 0.00203722 0.019333 0.00221383 0.0325229 0.00253981 0.0245831 0.00350371 0.046515
72 1 Mg -0.374632 71.8241 4.83736 1.2 1 0.00305509 0.00500964 0.00107332 0.007037 0.00171108 0.00529182 0.000972806 0.0233823 0.00221577 0.0101806 0.00160086 0.0269535 0.00221786 0.0200091 0.00335439 0.0328017 0.00402121 0.025368 0.00441112 0.0477636
73 2 Si 1.86211 73.5883 4.35903 2.4 1 0.00397418 0.00419384 0.000914538 0.00797405 0.0023609 0.00501768 0.00220184 0.0224955 0.00186649 0.0103713 0.00207906 0.0258883 0.00245508 0.0200966 0.00343317 0.0322634 0.00292762 0.0247971 0.00406006 0.0479114
74 3 O -1.31818 73.5646 4.47657 -1.2 1 0.00409297 0.00423686 0.00102374 0.00763782 0.00247631 0.00493465 0.00201684 0.0225484 0.00275646 0.0102203 0.00152212 0.0262053 0.00266947 0.0194096 0.00376136 0.0326616 0.00371932 0.0246105 0.00541528 0.0476722
75 3 O 0.714959 69.8613 4.67293 -1.2 1 0.0023668 0.00468486 0.00116451 0.007067 0.00140595 0.00573782 0.00140779 0.0233073 0.00212235 0.010105 0.00151725 0.0275928 0.00263551 0.0192386 0.00378544 0.0323511 0.00350652 0.0251865 0.00480521 0.0482047
76 3 O 1.07326 72.9525 3.17194 -1.2 1 0.00254454 0.00492702 0.000744212 0.00724139 0.00164831 0.00550305 0.0019924 0.0234443 0.0020312 0.0107693 0.00175271 0.0259838 0.00237151 0.0207136 0.00278527 0.0333234 0.00268091 0.0253125 0.00340385 0.0478478
77 1 Mg -0.142503 74.7456 0.067335 1.2 1 0.00180063 0.00468077 0.000829929 0.00704678 0.000834579 0.00639003 0.000985226 0.0230757 0.00169272 0.0108776 0.00156704 0.0270808 0.00157141 0.0199922 0.00183521 0.0329676 0.00260656 0.0248624 0.00269487 0.0466496
78 3 O 1.17667 73.0533 5.78584 -1.2 1 0.0044927 0.00487612 0.00119943 0.00709103 0.00247687 0.00471727 0.00168007 0.0231153 0.00242692 0.0102552 0.00173267 0.0264114 0.00264615 0.0200574 0.00377224 0.0326917 0.00382286 0.0250716 0.00480779 0.0477757
79 1 Mg 0.0203374 77.5776 1.22422 1.2 1 0.00357818 0.00405783 0.00100451 0.00697219 0.000719009 0.00546036 0.00110271 0.0227963 0.00168469 0.0105583 0.0023706 0.0267902 0.00229371 0.0212295 0.00239412 0.0320713 0.00244223 0.0234527 0.0039326 0.0472743
80 2 Si -2.08323 75.7197 1.6289 2.4 1 0.00304042 0.00391952 0.000673378 0.00789535 0.00143137 0.00596901 0.00166026 0.0229527 0.00200375 0.0104488 0.0028433 0.0258703 0.00256022 0.0206866 0.00426941 0.0322046 0.00338096 0.0243608 0.00422272 0.0479892
81 3 O 1.17787 75.6143 1.44831 -1.2 1 0.00283425 0.0041965 0.000891025 0.00758534 0.000844722 0.00577736 0.00137611 0.0231183 0.00231988 0.01022 0.00185078 0.0260616 0.00209496 0.0198808 0.00215172 0.032964 0.00283001 0.0246073 0.00303333 0.0476612
82 3 O -1.05441 79.5281 1.4379 -1.2 1 0.00362502 0.00369614 0.00139301 0.00680866 0.0010295 0.00543768 0.00118183 0.0232799 0.00173798 0.00991474 0.00280777 0.0269949 0.00326158 0.0199756 0.00319368 0.0316887 0.00287352 0.0233987 0.00469392 0.0474838
83 3 O -1.35643 76.4068 0.281002 -1.2 1 0.00257923 0.00454623 0.000933876 0.00732432 0.00156566 0.00602561 0.00203328 0.023272 0.00203455 0.0101879 0.00211937 0.0258531 0.00238389 0.0212506 0.00275038 0.0336045 0.00279004 0.0248558 0.00418639 0.0474912
84 3 O -1.5605 76.244 2.92275 -1.2 1 0.00390193 0.00413555 0.00150067 0.00690277 0.0015426 0.00531593 0.0018837 0.0235975 0.00165704 0.0100974 0.00223515 0.0260417 0.00244497 0.0200866 0.00325741 0.0326637 0.00303128 0.0251751 0.00409351 0.047432
85 1 Mg -2.37108 80.0399 -0.0667472 1.2 1 0.00287772 0.00394495 0.00159113 0.00649635 0.00101128 0.00549953 0.00113969 0.0230635 0.00158631 0.0100115 0.00219616 0.0273451 0.00259868 0.0199841 0.00249407 0.032266 0.00194375 0.0237176 0.00469316 0.0463014
86 1 Mg 2.29411 83.0922 1.39307 1.2 1 0.00271739 0.00385176 0.00126558 0.00662475 0.00111743 0.0051777 0.00141294 0.0236727 0.00216261 0.00974944 0.00244179 0.0275238 0.00251307 0.0203172 0.00320408 0.0319929 0.00239114 0.0237791 0.00338945 0.0486478
87 2 Si -0.297732 81.0662 1.38411 2.4 1 0.00342996 0.00380962 0.00128301 0.0075436 0.00159522 0.00520208 0.00169587 0.0228905 0.00202792 0.00941516 0.00270972 0.0263549 0.0032475 0.0202917 0.00355829 0.0316574 0.00323931 0.0232944 0.00507191 0.0485606
88 3 O 1.20463 81.0082 1.38641 -1.2 1 0.00340692 0.0036846 0.00163656 0.00695245 0.00143622 0.00469767 0.00170349 0.0224448 0.00253981 0.00926224 0.00225638 0.0267396 0.00306588 0.0198742 0.00249182 0.0322166 0.00270553 0.0232353 0.00450086 0.0481636
89 3 O -1.42088 84.865 1.40812 -1.2 1 0.00264728 0.00383086 0.00115971 0.00662695 0.00103272 0.00524906 0.00135729 0.02396 0.00180915 0.00947998 0.00246762 0.0277802 0.00244473 0.0197675 0.00247299 0.031793 0.00273877 0.0240648 0.00361465 0.0493392
90 3 O -1.01655 81.6547 0.0767533 -1.2 1 0.00244359 0.00382141 0.00158959 0.00669563 0.00159397 0.00531111 0.00143231 0.0235769 0.00171508 0.00946638 0.00215886 0.02658 0.00297344 0.0203015 0.0031828 0.0323772 0.00215153 0.0236497 0.00388154 0.0477556
91 1 Mg -2.32638 90.5773 3.08738 1.2 1 0.0027653 0.00370052 0.00203657 0.00614191 0.0011975 0.00473763 0.000988129 0.0242563 0.00135377 0.00923302 0.00147783 0.028272 0.00272998 0.0193549 0.00314176 0.032937 0.00302354 0.0247149 0.00416455 0.0494075
92 3 O -0.990696 81.824 2.69666 -1.2 1 0.0035199 0.00359908 0.00118993 0.00661253 0.00119133 0.0054445 0.00149755 0.0235362 0.0015826 0.00934812 0.00228056 0.0265139 0.00345711 0.0203448 0.0031364 0.0318518 0.00300574 0.0240683 0.00432065 0.0487913
93 1 Mg -2.45737 87.5219 4.48886 1.2 1 0.00180627 0.00396709 0.000969053 0.00611138 0.000886472 0.00470273 0.0013094 0.0237046 0.00216411 0.00951803 0.00175394 0.0277588 0.00222472 0.0199588 0.00287353 0.0320565 0.00313173 0.0243649 0.00366971 0.0503565
94 2 Si 0.273047 89.4494 4.50304 2.4 1 0.00223355 0.00353057 0.00136872 0.00678952 0.00152419 0.00460599 0.00143302 0.0236654 0.00174251 0.00866271 0.00182715 0.0263771 0.00241612 0.020054 0.00348198 0.0322398 0.00229958 0.0245933 0.00374601 0.0513816
95 3 O -1.31727 89.6826 4.52467 -1.2 1 0.00248955 0.00357775 0.00141659 0.00663201 0.00197154 0.00437996 0.00159534 0.0232231 0.0018855 0.00853915 0.00171993 0.0274012 0.0029744 0.0190206 0.00308517 0.0328501 0.00316014 0.0242599 0.00425923 0.0503648
96 3 O 1.30205 85.7357 4.51435 -1.2 1 0.00160696 0.0037763 0.00104614 0.00665872 0.00113789 0.00519063 0.00152566 0.0237869 0.00146414 0.00934692 0.00181107 0.0277425 0.00182636 0.0196445 0.00258999 0.0316215 0.00198732 0.02419 0.00271871 0.0502
97 3 O 0.986504 88.7833 3.25556 -1.2 1 0.00180454 0.00346641 0.00132131 0.00633697 0.00142218 0.00471356 0.00168878 0.0236156 0.00192938 0.0092064 0.00151947 0.0271801 0.00199277 0.0200726 0.00361313 0.0329768 0.00217664 0.0243231 0.00289448 0.0503128
98 3 O 0.988498 88.7759 5.79377 -1.2 1 0.00187913 0.00385703 0.000831004 0.00619549 0.001454 0.0047959 0.00140336 0.0233814 0.0020549 0.00891288 0.00194966 0.0266094 0.00223176 0.0199999 0.0034676 0.032367 0.00239084 0.0243469 0.00308168 0.0516516
99 1 Mg -0.151047 85.2001 2.90589 1.2 1 0.00228271 0.00396545 0.00125677 0.00630458 0.000762999 0.00521114 0.000949591 0.0235917 0.00163703 0.00958009 0.00145453 0.0283176 0.00173224 0.0194098 0.00169897 0.031709 0.00223067 0.0238991 0.00253626 0.0490098
100 1 Mg -0.0413797 82.3012 4.51065 1.2 1 0.00415538 0.00353205 0.00128146 0.00648649 0.00132614 0.00509647 0.0013018 0.0234445 0.00252937 0.00978462 0.00269734 0.0274644 0.00319083 0.0200385 0.00288635 0.0314436 0.00261555 0.0245886 0.0047343 0.0493062
101 2 Si 1.97369 84.2187 4.41284 2.4 1 0.00297543 0.00345989 0.00132645 0.00729454 0.00191277 0.00495029 0.00171821 0.0231621 0.00172123 0.00946445 0.00237429 0.0273246 0.00247336 0.0202791 0.004098 0.0311353 0.00269258 0.023649 0.00317266 0.0506749
102 3 O -1.26098 84.2226 4.4207 -1.2 1 0.00337637 0.00343538 0.00142773 0.00683043 0.00172757 0.00441576 0.00153878 0.0227686 0.00274224 0.00926508 0.00247542 0.0274245 0.00233255 0.0193111 0.00208346 0.0317755 0.00256811 0.0238863 0.00362726 0.0502319
103 3 O 0.937687 80.369 4.31597 -1.2 1 0.00342145 0.00302824 0.00159336 0.00692287 0.00142406 0.00557641 0.00100603 0.0232613 0.00175331 0.00976681 0.00232324 0.0270815 0.00302617 0.0198039 0.00311442 0.0305992 0.00257042 0.0240032 0.00543215 0.0483944
104 3 O 1.24928 83.7184 3.04421 -1.2 1 0.00310652 0.00354366 0.00112889 0.00658021 0.00164882 0.00491422 0.00163502 0.0237889 0.00181367 0.00921676 0.00200238 0.0269505 0.00289531 0.020304 0.00306974 0.0323788 0.00269889 0.0243252 0.00366452 0.0499652
105 1 Mg 0.0187732 85.4232 -0.0224058 1.2 1 0.00131586 0.00415863 0.000514841 0.00650195 0.000772897 0.00506823 0.00104559 0.0233814 0.00115019 0.00950624 0.00103278 0.0284212 0.0013483 0.0197989 0.00142059 0.0325162 0.00146705 0.0239623 0.00212957 0.0483174
106 3 O 1.25271 83.5123 5.61436 -1.2 1 0.00417334 0.00357416 0.00163099 0.00648576 0.00138304 0.00479308 0.00133471 0.0235404 0.00188098 0.00921814 0.00206227 0.0268842 0.00217562 0.0202328 0.00245875 0.0319307 0.00205601 0.0249383 0.00352028 0.0500009
107 1 Mg 0.198763 88.1553 1.58542 1.2 1 0.00149918 0.00425635 0.00116685 0.00648677 0.00105821 0.00461173 0.00110044 0.0237934 0.00200501 0.0095227 0.00198337 0.0282672 0.0022086 0.0199029 0.00293298 0.0327434 0.00291202 0.0245294 0.00284197 0.049768
108 2 Si -2.03701 86.4609 1.49051 2.4 1 0.0013619 0.00404898 0.000308624 0.00750314 0.0013487 0.00508014 0.00187117 0.0233011 0.00161062 0.00923963 0.00253336 0.0270334 0.00231877 0.0202203 0.00356939 0.0320312 0.00385831 0.0241275 0.00283889 0.0504007
109 3 O 1.21504 86.4343 1.57017 -1.2 1 0.00142556 0.00394974 0.000765644 0.0070511 0.00130095 0.00439721 0.00166251 0.0232035 0.00196713 0.00920924 0.00111693 0.0271716 0.00213155 0.0199249 0.0019917 0.0324901 0.00288367 0.0239377 0.00313544 0.050339
110 3 O -0.976111 90.044 1.53494 -1.2 1 0.00227702 0.00396406 0.00178565 0.0063738 0.00115754 0.00495394 0.000810393 0.024604 0.00174487 0.00942347 0.00192813 0.0281304 0.00266826 0.0195375 0.00306761 0.0327663 0.00371332 0.0246226 0.00378137 0.0502213
111 3 O -1.28711 87.0818 0.267409 -1.2 1 0.00084994 0.00436038 0.000659309 0.00642162 0.00126326 0.00484248 0.00162358 0.0235969 0.00182862 0.00936297 0.00146097 0.0275825 0.00199643 0.0203712 0.00230848 0.0326978 0.00301904 0.0238974 0.00254342 0.0497631
112 3 O -1.24498 87.0845 2.84152 -1.2 1 0.00104826 0.00411896 0.00104046 0.00636053 0.0013162 0.00456463 0.00209347 0.0238665 0.00168276 0.00906953 0.00187191 0.0271257 0.00225968 0.0196792 0.00263879 0.0323984 0.00298772 0.0244791 0.00290385 0.0499508
113 1 Mg -2.4388 90.4824 0.0497007 1.2 1 0.00217729 0.00386634 0.00137045 0.00594682 0.00104027 0.005042 0.000833578 0.0243006 0.00134162 0.00940316 0.00165844 0.0286978 0.00234498 0.0192505 0.00204371 0.0332401 0.00271598 0.0246507 0.00367801 0.0495601
114 1 Mg 2.40062 93.5307 1.42554 1.2 1 0.00319136 0.00399194 0.0020741 0.00597724 0.00111141 0.00495627 0.000974759 0.024523 0.00135707 0.00935007 0.00241431 0.0282533 0.00252698 0.0197638 0.0034414 0.0335902 0.00332198 0.025413 0.0035264 0.0508044
115 2 Si -0.340957 91.6102 1.4875 2.4 1 0.00306966 0.00329574 0.00203578 0.00698411 0.00139248 0.00507101 0.00132068 0.0238605 0.00199325 0.00932883 0.00231711 0.0269772 0.00282521 0.0202047 0.00402555 0.0328304 0.00479406 0.024578 0.00472105 0.0514503
116 3 O 1.24741 91.5079 1.49363 -1.2 1 0.00281922 0.00361021 0.00216335 0.00633955 0.00146999 0.00461316 0.00101686 0.023832 0.00215949 0.00904496 0.0020712 0.0275748 0.0028887 0.01971 0.00290987 0.0333103 0.00382709 0.0243687 0.00431602 0.0505013
117 3 O -1.37927 95.245 1.45317 -1.2 1 0.00220828 0.00413115 0.00177262 0.00634641 0.000944775 0.00578256 0.00111923 0.024868 0.00117002 0.00939393 0.00271314 0.029106 0.00264414 0.0202108 0.00374772 0.0328941 0.0040514 0.0248379 0.00334244 0.0517137
118 3 O -1.01346 92.1587 0.174595 -1.2 1 0.00257825 0.00378139 0.00193776 0.00618448 0.00158895 0.00510062 0.00171562 0.0244285 0.00154292 0.00917904 0.00235408 0.0275072 0.00248821 0.0199915 0.00339629 0.0341458 0.00380741 0.0250402 0.00372749 0.0507854