ITEM: TIMESTEP
81000
ITEM: NUMBER OF ATOMS
5600
ITEM: BOX BOUNDS xy xz yz pp pp pp
0	7.1235	0
0	201.985	2.3745
0	119.584	0
ITEM: ATOMS id type element xu yu zu q Q_1 Q_2 Q_3 Q_4 Q_5 Q_6 Q_7 Q_8 Q_9 Q_10 Q_11 Q_12 Q_13 Q_14 Q_15 Q_16 Q_17 Q_18 Q_19 Q_20 Q_21
1 1 Mg -1.94058 47.1433 -0.476631 1.2 1 0.249223 0.0722112 0.0213555 0.0235968 0.00511863 0.0155829 0.00514482 0.0193005 0.00400398 0.0240417 0.00638788 0.0260833 0.00847574 0.0196119 0.0071417 0.0211146 0.00797133 0.0191139 0.00806853 0.0244397
2 1 Mg 3.02416 50.1721 2.2495 1.2 1 0.171516 0.0574027 0.0077416 0.0160138 0.00381165 0.0102779 0.00295726 0.0178433 0.00370238 0.0186906 0.0042835 0.0232372 0.00512147 0.0190286 0.00585913 0.019858 0.00581703 0.0147258 0.00546268 0.024591
3 2 Si 0.484247 48.7447 0.592014 2.4 1 0.207646 0.06498 0.0129197 0.0184727 0.00475178 0.0114447 0.003098 0.0174538 0.00402095 0.021281 0.00400381 0.0236127 0.00547725 0.0198735 0.00507508 0.0204455 0.00653816 0.0154147 0.00632076 0.0248164
4 3 O 1.66049 47.6667 0.882755 -1.2 1 0.233788 0.0692962 0.018347 0.0221406 0.00461416 0.0140492 0.00340061 0.0180778 0.00369037 0.0233087 0.00465691 0.0241305 0.00703305 0.0205833 0.0067715 0.0210205 0.00776854 0.0169029 0.00620557 0.0237179
5 3 O -1.60175 52.351 1.67114 -1.2 1 0.127695 0.0460485 0.00342068 0.0122694 0.0027866 0.00850525 0.0025418 0.0180263 0.0028673 0.0164502 0.00313784 0.0229798 0.00390575 0.0177274 0.00400495 0.0201903 0.00517045 0.0147688 0.00483947 0.0264388
6 3 O -0.362567 48.2178 -0.563635 -1.2 1 0.217906 0.0665496 0.0151707 0.0193674 0.00534068 0.0127659 0.00414341 0.0184384 0.00472678 0.0223774 0.00524754 0.0254236 0.00623606 0.0206379 0.00523595 0.0212479 0.00650269 0.0178673 0.00723402 0.0248098
7 1 Mg -2.44001 58.0409 3.51283 1.2 1 0.0145167 0.0121442 0.00486871 0.00660442 0.00190388 0.00635755 0.00177258 0.020145 0.00288445 0.0108386 0.00374521 0.0243387 0.00336355 0.0202124 0.00495842 0.0266327 0.00436214 0.0226491 0.00449489 0.0318965
8 3 O -0.224867 48.9356 1.9295 -1.2 1 0.202405 0.0656229 0.0111368 0.0193334 0.00416961 0.0113612 0.00372173 0.0179173 0.00336764 0.0199445 0.00440944 0.0230788 0.00512263 0.019562 0.00496697 0.0198213 0.0059442 0.0143424 0.00650606 0.0249643
9 1 Mg -2.58517 55.0589 5.14971 1.2 1 0.0644964 0.0312888 0.00541907 0.00806874 0.00253121 0.00619463 0.00265656 0.0179222 0.00344869 0.0124928 0.00501994 0.0231472 0.00371958 0.0194834 0.00674753 0.0222079 0.00478444 0.0190444 0.00616626 0.0285294
10 2 Si 0.176024 56.8943 4.95777 2.4 1 0.0260911 0.0179102 0.00638769 0.00707991 0.00234577 0.00557085 0.00284719 0.0189197 0.00205511 0.0103785 0.0045715 0.0233577 0.00499713 0.0202833 0.00723348 0.0256981 0.00480735 0.0220175 0.0061185 0.030422
11 3 O -1.36695 57.1947 4.97668 -1.2 1 0.0202422 0.0151102 0.00615631 0.00680811 0.00244612 0.00610181 0.00239417 0.0190521 0.00293029 0.00974886 0.00372763 0.0235605 0.00353205 0.0200216 0.00584429 0.0259984 0.00473356 0.0220491 0.00531791 0.0312508
12 3 O 0.883894 53.0908 4.83245 -1.2 1 0.106111 0.043304 0.00275333 0.0114188 0.00239944 0.00720538 0.00298307 0.0168796 0.00316508 0.0149577 0.00427034 0.0225253 0.00390491 0.0195409 0.00486881 0.0198661 0.0056197 0.0171348 0.00572005 0.0255331
13 3 O 0.817835 56.4363 3.56987 -1.2 1 0.0335107 0.0210605 0.00670806 0.0070401 0.00190485 0.0057649 0.00229192 0.0192088 0.00229956 0.0106858 0.0039795 0.022957 0.0038938 0.0198133 0.00597336 0.0247202 0.00443007 0.020403 0.00488345 0.0301065
14 3 O 0.726703 56.0562 6.04608 -1.2 1 0.0468064 0.0258138 0.00646435 0.00719759 0.0023466 0.00565914 0.00214166 0.0183996 0.0022181 0.0115006 0.00391772 0.0227047 0.00463051 0.0197062 0.00722241 0.0240173 0.00441046 0.0211076 0.00564524 0.0288856
15 1 Mg -0.40373 52.8927 3.35814 1.2 1 0.110628 0.0432287 0.00210043 0.0115952 0.00232752 0.00780496 0.0029388 0.0170171 0.00282073 0.0156797 0.00357907 0.0225925 0.00382274 0.0177713 0.00503151 0.0191672 0.00527902 0.0155375 0.00491476 0.0254813
16 1 Mg 0.519981 49.1269 3.63888 1.2 1 0.201643 0.0636539 0.0116397 0.0200803 0.00430196 0.0106406 0.00375189 0.0174957 0.00294706 0.019684 0.00363703 0.0227596 0.00520534 0.0210792 0.00567239 0.020038 0.00722848 0.0155145 0.00665938 0.0247746
17 2 Si 1.68069 51.7406 4.72924 2.4 1 0.141603 0.0502331 0.00318472 0.0145557 0.00261589 0.00774662 0.00324418 0.0161932 0.00304427 0.0159536 0.00404963 0.0215693 0.00471714 0.0195171 0.00630147 0.0191087 0.00552521 0.0162035 0.00575083 0.0251054
18 3 O -1.58572 51.984 4.77542 -1.2 1 0.128366 0.0490606 0.00173681 0.0131167 0.00260914 0.00760066 0.00327192 0.0157832 0.00332701 0.015505 0.00410796 0.02265 0.00414596 0.0196682 0.00495403 0.019407 0.00562962 0.0161097 0.00586074 0.0256606
19 3 O 2.51118 49.0427 4.03969 -1.2 1 0.20212 0.0613379 0.01217 0.0196908 0.00584226 0.0109546 0.00350723 0.0163602 0.00406492 0.0196427 0.00400949 0.0225309 0.00528907 0.0206308 0.0053966 0.0195628 0.00740325 0.0155195 0.0070606 0.0240283
20 3 O 0.967554 51.0375 3.43093 -1.2 1 0.151454 0.0516808 0.00508721 0.0143403 0.00373673 0.00840673 0.00380379 0.0172111 0.003081 0.0170611 0.00327724 0.022194 0.00471536 0.0192804 0.00548031 0.0191282 0.00666678 0.01459 0.00574068 0.0250025
21 1 Mg -0.292081 52.9484 0.299371 1.2 1 0.109613 0.0429132 0.00140593 0.0107004 0.00312314 0.00783562 0.00264575 0.0179203 0.00369133 0.0160083 0.00357136 0.0231672 0.00463843 0.0184978 0.0048102 0.0204745 0.00487042 0.0153704 0.00463856 0.0274437
22 3 O 1.16302 50.9027 6.00158 -1.2 1 0.156226 0.0560549 0.00445019 0.0162127 0.00243869 0.00862649 0.00364435 0.0162 0.0034034 0.017328 0.00453506 0.0222243 0.00519087 0.0203964 0.00592949 0.0193748 0.00630396 0.0175241 0.00626487 0.0246176
23 1 Mg -0.262968 55.7418 1.99439 1.2 1 0.0432394 0.0246299 0.00685038 0.00775315 0.00201561 0.00596199 0.00114438 0.0181827 0.00358267 0.0113091 0.00416815 0.0234596 0.00304927 0.0192442 0.00498089 0.0233605 0.00427849 0.0187272 0.00514033 0.0297559
24 2 Si -2.38314 53.8173 1.62335 2.4 1 0.0911559 0.036989 0.00242001 0.00960894 0.00238598 0.00688355 0.00222523 0.0175157 0.00300156 0.0136778 0.00335749 0.0228153 0.002716 0.0186682 0.00408133 0.0206969 0.00494495 0.0156267 0.00478845 0.0281254
25 3 O 0.904557 53.7873 1.8619 -1.2 1 0.0952738 0.0374471 0.00186483 0.0100966 0.00220622 0.00723314 0.00240746 0.0174634 0.00359055 0.014108 0.00370795 0.0229368 0.00386325 0.0179168 0.00460238 0.0207268 0.00378251 0.0158218 0.00472613 0.0272664
26 3 O -1.16338 57.6285 1.96785 -1.2 1 0.0168777 0.0134381 0.00587631 0.00705247 0.00203136 0.00564668 0.0015091 0.020057 0.00243713 0.0109227 0.0035921 0.0246173 0.00333449 0.0201199 0.004938 0.0263914 0.0047114 0.022603 0.00531083 0.0319721
27 3 O -1.40967 54.7523 0.525307 -1.2 1 0.06932 0.0310895 0.00402713 0.00802239 0.0025024 0.00641849 0.00237237 0.0191242 0.00388521 0.0131361 0.00324816 0.0222513 0.00382641 0.0185785 0.00289688 0.0225797 0.00475898 0.0179049 0.00492059 0.0290912
28 3 O -1.79996 54.4589 2.89384 -1.2 1 0.0733932 0.0332504 0.00394759 0.0087078 0.00206429 0.00648181 0.00256244 0.0175245 0.00325818 0.0133858 0.00382034 0.0226723 0.00315443 0.0189707 0.00466579 0.0217785 0.00400476 0.0179029 0.00518098 0.0271397
29 1 Mg -2.68729 58.1178 0.546993 1.2 1 0.0142755 0.0114256 0.00435287 0.00782366 0.00205492 0.00570806 0.001849 0.0193381 0.00249989 0.011418 0.00332323 0.0247686 0.0027158 0.0200928 0.00350879 0.0258946 0.00440271 0.0219499 0.00419905 0.0316516
30 1 Mg 1.90298 61.0562 1.8005 1.2 1 0.00478888 0.00487869 0.00126494 0.00928813 0.00173865 0.00572273 0.00125266 0.0201932 0.00267773 0.010107 0.00231472 0.0255436 0.00263145 0.0207364 0.00321648 0.0282134 0.00452596 0.0243552 0.00341374 0.0347223
31 2 Si -0.506287 59.0478 1.99377 2.4 1 0.00826059 0.0072396 0.00312784 0.0085144 0.00230149 0.00548044 0.000983474 0.0192446 0.00218057 0.00988818 0.00314648 0.0242052 0.00317762 0.0210294 0.00403334 0.0274367 0.00458001 0.0228118 0.00443578 0.0333105
32 3 O 0.970928 59.202 1.90634 -1.2 1 0.0073341 0.0062856 0.00319451 0.00876425 0.00241985 0.00511371 0.00134029 0.0192957 0.00223003 0.00947723 0.00310099 0.0243091 0.00335891 0.0205035 0.00483034 0.02781 0.00320654 0.0236578 0.0039702 0.0338701
33 3 O -1.54208 62.8507 1.75697 -1.2 1 0.00502111 0.00467618 0.00130875 0.0101279 0.00143786 0.00592142 0.00181417 0.0203174 0.00149192 0.0106071 0.00168451 0.0259386 0.00248296 0.0198792 0.00344775 0.0281792 0.00354183 0.0245786 0.00330532 0.0349918
34 3 O -1.3254 59.8288 0.885967 -1.2 1 0.00574576 0.00579439 0.00209517 0.00868624 0.00192031 0.00562881 0.00170376 0.0199411 0.00195548 0.00993187 0.00285795 0.0239729 0.00289744 0.0207833 0.00427071 0.0275538 0.00433551 0.0236632 0.00345894 0.0334608
35 1 Mg -2.62098 68.7463 3.10068 1.2 1 0.00482773 0.00558151 0.00121281 0.00969626 0.00179729 0.00708964 0.0016797 0.0197541 0.00168733 0.0118856 0.00203818 0.025668 0.00253903 0.0203415 0.00456981 0.0295741 0.00370136 0.0228165 0.00444195 0.035943
36 3 O -1.25644 59.7547 3.24102 -1.2 1 0.00679709 0.00730191 0.00273099 0.00806132 0.00194635 0.00615851 0.0012964 0.0203871 0.00247151 0.00993568 0.00313283 0.0242953 0.00297554 0.0216923 0.00438375 0.0274287 0.00460854 0.023471 0.00395617 0.0328683
37 1 Mg -2.65873 65.8958 4.85444 1.2 1 0.00328689 0.00426013 0.000878165 0.0103937 0.00142392 0.00653446 0.00222145 0.0194708 0.00150412 0.0109325 0.0022326 0.0255497 0.00245976 0.0206677 0.00410809 0.0290824 0.00281742 0.0236038 0.00313229 0.0358603
38 2 Si 0.0106923 67.8534 4.52855 2.4 1 0.00408226 0.00471216 0.00103866 0.0104473 0.00187838 0.00648046 0.00212037 0.0194304 0.00182269 0.0108924 0.00235974 0.0249715 0.00200882 0.0205444 0.00512906 0.0291842 0.00391287 0.0232302 0.00389197 0.0373983
39 3 O -1.5127 67.7669 4.63425 -1.2 1 0.00364664 0.00458181 0.0010328 0.010406 0.00167899 0.0063685 0.00201629 0.0191793 0.00218679 0.0112305 0.00249182 0.0254057 0.00187306 0.0202861 0.00344431 0.029294 0.00325348 0.0231465 0.00300787 0.0369934
40 3 O 1.20243 64.0299 4.80608 -1.2 1 0.00370362 0.00461415 0.00140491 0.0101257 0.00162888 0.00625916 0.00142568 0.0201453 0.00170848 0.0106014 0.00221397 0.0252098 0.00225897 0.020458 0.00380675 0.0290934 0.00345859 0.0244504 0.00323227 0.0348435
41 3 O 0.912058 67.0243 3.47486 -1.2 1 0.00444486 0.00503099 0.00145026 0.0101863 0.00185505 0.00622094 0.0024387 0.0194686 0.00145097 0.0105792 0.00266891 0.0249227 0.0024839 0.0208914 0.00534274 0.0293875 0.00359442 0.0233939 0.00455499 0.0361392
42 3 O 0.760054 67.2304 5.94277 -1.2 1 0.00226341 0.00505105 0.000774066 0.00985307 0.00202905 0.00694899 0.0025345 0.0199765 0.00160985 0.0114164 0.00229909 0.0250318 0.00171626 0.0207031 0.0038508 0.0297704 0.00277149 0.023555 0.00324988 0.0357606
43 1 Mg -0.246326 63.1949 3.33803 1.2 1 0.00463481 0.00469483 0.00136854 0.00996369 0.00136286 0.00607201 0.00209422 0.02041 0.00225158 0.0107018 0.00161835 0.0253436 0.00231181 0.0199779 0.00337204 0.0289619 0.00353065 0.0251159 0.00303388 0.0349771
44 1 Mg -0.420367 60.4365 4.90871 1.2 1 0.00612426 0.00671125 0.00209058 0.00830486 0.00172895 0.00606603 0.00186332 0.0200938 0.00210565 0.0105345 0.00288691 0.02458 0.00295184 0.0208899 0.0039797 0.0291699 0.00313009 0.0242104 0.00413757 0.0320562
45 2 Si 1.9183 62.5179 4.92543 2.4 1 0.00451095 0.00417721 0.00132188 0.0103566 0.00180422 0.00531546 0.00175865 0.018993 0.00215259 0.00941519 0.00244975 0.0237101 0.00270256 0.0211295 0.00406075 0.0289728 0.00413947 0.0242349 0.00357205 0.0346342
46 3 O -1.26079 62.6332 4.95479 -1.2 1 0.00467374 0.00447786 0.00165898 0.0101492 0.00161463 0.00544416 0.00161453 0.0190865 0.00248748 0.0101666 0.00167575 0.0251898 0.00286522 0.0206129 0.003212 0.0287904 0.00327037 0.0240403 0.00309416 0.0341126
47 3 O 0.797984 58.499 5.08012 -1.2 1 0.0128634 0.011956 0.00450619 0.00734216 0.00187865 0.00604716 0.00224355 0.0195906 0.00219516 0.0100656 0.00360487 0.0238012 0.00376022 0.0204146 0.00571851 0.0275498 0.00396278 0.0224392 0.00447392 0.0316449
48 3 O 1.15079 61.7129 3.68627 -1.2 1 0.00526962 0.00466199 0.00118114 0.00952027 0.0015904 0.00567508 0.00192903 0.0198864 0.00174846 0.00962083 0.0019374 0.0247221 0.00269948 0.0212377 0.00371734 0.0288915 0.00363124 0.0247238 0.00325538 0.0345216
49 1 Mg -0.137242 63.3975 0.369898 1.2 1 0.00453811 0.00482903 0.00104928 0.00985525 0.00137355 0.0062693 0.00171069 0.0206417 0.00171181 0.0108269 0.00173319 0.0266974 0.00203978 0.0192535 0.00362746 0.0277882 0.00376712 0.0246211 0.0039661 0.0349502
50 3 O 1.25447 61.8052 6.15723 -1.2 1 0.0042357 0.00510805 0.00158064 0.00972152 0.0016292 0.00581542 0.00177481 0.0198211 0.0021321 0.0105357 0.00240781 0.0243691 0.0022904 0.0213694 0.00349232 0.029837 0.00328121 0.0241695 0.00401626 0.0329263
51 1 Mg -0.284833 66.5855 1.93179 1.2 1 0.00462414 0.00552197 0.00163929 0.00965105 0.00140787 0.00620244 0.00141462 0.0204846 0.0024215 0.0113222 0.00245597 0.0257794 0.00255533 0.0202511 0.00424044 0.0287453 0.00387351 0.0235012 0.00437252 0.0361943
52 2 Si -2.17416 64.3512 1.76382 2.4 1 0.00492774 0.00431816 0.00138568 0.0106178 0.00167731 0.00570147 0.0020925 0.0198436 0.00189039 0.00999529 0.00254499 0.0248504 0.00318418 0.0199822 0.00437328 0.0280491 0.00403723 0.0241072 0.00355516 0.0357713
53 3 O 0.987608 64.2723 1.81476 -1.2 1 0.00439348 0.00383593 0.00130381 0.0106766 0.00152102 0.0054695 0.0020064 0.0191344 0.00215803 0.00989101 0.0016638 0.0252491 0.00256561 0.0198317 0.00343818 0.0278715 0.00409956 0.0236487 0.00429776 0.0356197
54 3 O -1.10187 68.4427 2.00326 -1.2 1 0.00562888 0.00581055 0.00158896 0.00995152 0.00201783 0.00691572 0.00188636 0.0201609 0.00171986 0.011544 0.00201873 0.0248076 0.00306614 0.0209643 0.00466121 0.0289762 0.00397441 0.0225715 0.00434104 0.0355652
55 3 O -1.62495 64.8521 0.427521 -1.2 1 0.0049096 0.00490565 0.00121789 0.00966832 0.00184487 0.0059867 0.00201092 0.0206454 0.00182838 0.0108013 0.00227402 0.0254774 0.00251176 0.0203854 0.00335583 0.0281624 0.00396795 0.0248174 0.00349148 0.0358421
56 3 O -1.66646 65.2163 2.97919 -1.2 1 0.00438129 0.00477269 0.00166576 0.0102326 0.00161224 0.00565352 0.00230546 0.0195495 0.00193321 0.0100686 0.00213568 0.0248571 0.00356806 0.0207287 0.0036269 0.0292947 0.00345474 0.023926 0.00389663 0.035731
57 1 Mg -2.43449 68.4359 0.251594 1.2 1 0.00568063 0.0062104 0.00164874 0.00907568 0.00143468 0.00655186 0.00226346 0.0202785 0.00188273 0.0120006 0.00216511 0.0254289 0.00232337 0.0206486 0.00416519 0.028384 0.00423521 0.0224188 0.00448682 0.0347211
58 1 Mg 1.87862 71.741 1.80714 1.2 1 0.0048321 0.00756749 0.00161973 0.00865055 0.00173866 0.00655347 0.00168546 0.0192458 0.00252319 0.012477 0.00180322 0.0235904 0.00228534 0.0222321 0.00311659 0.0309111 0.00454973 0.02298 0.00436853 0.034441
59 2 Si -0.419139 69.8519 1.6668 2.4 1 0.00569703 0.00657391 0.0015086 0.00996764 0.00261778 0.00615398 0.00224297 0.0189102 0.00211203 0.0112771 0.00231634 0.0232389 0.0024594 0.0211372 0.00365888 0.0297021 0.00396959 0.0227671 0.00469803 0.035621
60 3 O 1.08298 69.762 1.60109 -1.2 1 0.00625962 0.00653997 0.00131706 0.00959391 0.00226707 0.00602078 0.00226533 0.019011 0.00293934 0.0109772 0.00221394 0.0239045 0.00265728 0.0210202 0.00391139 0.030068 0.00452564 0.0224533 0.00542601 0.0356387
61 3 O -1.61746 74.14 1.47731 -1.2 1 0.00389603 0.00749257 0.00135225 0.00865097 0.00141194 0.00653667 0.00200588 0.019169 0.0021138 0.0127473 0.00233768 0.0234034 0.00303063 0.0217888 0.0035462 0.0309182 0.00315311 0.0232833 0.00395717 0.0340425
62 3 O -1.06486 70.5237 0.31421 -1.2 1 0.00663325 0.00721773 0.0016742 0.00934384 0.00225642 0.0063825 0.00289853 0.0192808 0.00164863 0.0120553 0.00237708 0.0242302 0.00250329 0.0217875 0.00321575 0.0297878 0.00355434 0.0227627 0.00468016 0.035225
63 1 Mg -2.38282 79.8684 2.94999 1.2 1 0.00627822 0.00741563 0.00133343 0.00939509 0.00123911 0.00647735 0.00148708 0.0207853 0.00204155 0.0121503 0.00230193 0.0256165 0.00273415 0.0206249 0.00233972 0.0306731 0.00315509 0.0252375 0.00419641 0.0365059
64 3 O -1.13553 70.826 2.82518 -1.2 1 0.00452378 0.00690351 0.00173044 0.00899069 0.00164589 0.00679961 0.00190228 0.0191619 0.00201728 0.0122554 0.002295 0.0238132 0.00240131 0.0217718 0.00397318 0.0305958 0.00338686 0.0227109 0.00461321 0.0350529
65 1 Mg -2.93917 76.2986 4.52536 1.2 1 0.00404206 0.00749944 0.00114573 0.00820585 0.000899604 0.00676344 0.00154077 0.020398 0.00221185 0.0128656 0.00219601 0.0243157 0.00280388 0.0220163 0.00313268 0.0321288 0.00274862 0.0246261 0.00321352 0.0353724
66 2 Si 0.067348 78.3541 4.24816 2.4 1 0.0063583 0.00678773 0.00137562 0.00908373 0.00144278 0.00639722 0.00181443 0.0196491 0.00236948 0.0119231 0.0023337 0.0244549 0.00282959 0.0219408 0.00363287 0.0321374 0.00400114 0.0249681 0.00404163 0.0360031
67 3 O -1.29525 78.7449 4.41949 -1.2 1 0.00681408 0.00693593 0.00117902 0.00900405 0.00133922 0.00617918 0.00145833 0.0201946 0.00258333 0.0122715 0.00228646 0.0250386 0.0028725 0.0209006 0.00329883 0.0318239 0.00293737 0.0248403 0.00350015 0.036548
68 3 O 1.08187 74.5424 4.64377 -1.2 1 0.00238475 0.00743547 0.00176982 0.00843276 0.00106306 0.00652937 0.00138471 0.020637 0.00179132 0.0126337 0.00204634 0.0242313 0.00240267 0.021075 0.00295086 0.0320455 0.00294009 0.0245345 0.00352605 0.0351827
69 3 O 0.739483 77.5349 3.03809 -1.2 1 0.00382926 0.007784 0.00112779 0.00857142 0.00127248 0.00683658 0.00187671 0.0203198 0.00201543 0.0123044 0.00207134 0.0242891 0.00254282 0.022236 0.00266425 0.0320081 0.00291145 0.0245703 0.00361146 0.0357421
70 3 O 0.799714 77.6022 5.57753 -1.2 1 0.00688813 0.0069012 0.00132527 0.00847649 0.00145257 0.00673904 0.00228191 0.0202721 0.0027363 0.0120909 0.00153627 0.0246433 0.00338964 0.0216989 0.00286529 0.0326386 0.00307665 0.0255624 0.00313898 0.0362354
71 1 Mg -0.551267 74.3631 3.31206 1.2 1 0.00167999 0.00766496 0.00182447 0.00805283 0.00115535 0.00631623 0.00128132 0.0196503 0.00175134 0.0123813 0.00227975 0.0243253 0.00187689 0.0212938 0.00285049 0.0317611 0.00305576 0.0236676 0.00283407 0.0345428
72 1 Mg -0.367286 71.2715 4.60842 1.2 1 0.00283121 0.00690632 0.00264891 0.00918639 0.00164521 0.00673009 0.00237104 0.0196917 0.00222099 0.0114571 0.00266656 0.024248 0.00265253 0.0206321 0.00410467 0.0317007 0.00344056 0.0235427 0.00322508 0.0356828
73 2 Si 1.70726 73.1161 4.56905 2.4 1 0.00114527 0.00692401 0.00294123 0.00971217 0.002152 0.00579005 0.0022079 0.0187933 0.00166041 0.0114012 0.00301294 0.0234957 0.00272405 0.0206346 0.00471541 0.0313165 0.00411342 0.0237376 0.00415996 0.0357127
74 3 O -1.44485 73.1627 4.65273 -1.2 1 0.00110696 0.00708536 0.00286116 0.00918185 0.00173573 0.0056176 0.00194072 0.0191051 0.00190904 0.0116403 0.00199825 0.0238222 0.00248142 0.0204027 0.00309525 0.0316631 0.00339117 0.0236988 0.00354825 0.0357448
75 3 O 0.682609 69.3245 4.47955 -1.2 1 0.00325132 0.00595729 0.00178967 0.00967985 0.00126416 0.0072402 0.0018592 0.0202163 0.00133585 0.0117213 0.00271586 0.0257603 0.00306674 0.0200046 0.00436631 0.0300828 0.00395746 0.0233971 0.00352706 0.0361107
76 3 O 1.1756 72.6175 3.17876 -1.2 1 0.00285802 0.00760675 0.002001 0.00857561 0.00211795 0.00644679 0.00293513 0.0197961 0.00180877 0.0120305 0.00291992 0.0232938 0.00226677 0.0220843 0.00437484 0.0312061 0.0045486 0.023496 0.00414327 0.0351227
77 1 Mg -0.0100514 74.2324 0.388613 1.2 1 0.00441542 0.0073844 0.00109901 0.00866168 0.00161173 0.006678 0.0017243 0.0190262 0.00218056 0.0129489 0.00196319 0.0239654 0.00287301 0.0223865 0.00404616 0.0316253 0.00357235 0.0231121 0.00401128 0.0335385
78 3 O 0.93338 72.3089 5.72676 -1.2 1 0.00194016 0.00637057 0.00262023 0.00908419 0.00225306 0.00662183 0.00248643 0.0195805 0.00196323 0.0111517 0.00277116 0.0240832 0.00240247 0.0209104 0.00372619 0.0320035 0.00332741 0.0238777 0.00324202 0.035527
79 1 Mg -0.339541 76.9574 1.45166 1.2 1 0.00211994 0.0076494 0.000645148 0.00853571 0.00108706 0.00674683 0.00165798 0.0194404 0.00196727 0.0125982 0.002156 0.0237623 0.00221306 0.0224182 0.0031672 0.0315778 0.0032898 0.0231931 0.00411743 0.034733
80 2 Si -2.39831 75.5988 1.74109 2.4 1 0.00200054 0.00748247 0.00108575 0.00886147 0.0018296 0.00650295 0.00194498 0.0186411 0.00230453 0.0119905 0.00236732 0.0231755 0.00276091 0.022435 0.00359308 0.0317972 0.00315707 0.0233898 0.00352191 0.0342786
81 3 O 0.912523 75.2855 1.69904 -1.2 1 0.00213321 0.00756152 0.000802345 0.00891207 0.00164132 0.00602717 0.00189714 0.0188156 0.00227291 0.0121044 0.00216659 0.0230065 0.00225204 0.0222404 0.00299418 0.0320802 0.00327984 0.0229345 0.00359268 0.0346453
82 3 O -1.1129 79.1392 1.58172 -1.2 1 0.00353193 0.00766691 0.0011708 0.00926129 0.00152931 0.00638484 0.00117911 0.0198523 0.00206145 0.0121265 0.00199262 0.0245449 0.00223335 0.021261 0.00248648 0.0301225 0.00339216 0.0238248 0.00462217 0.0357776
83 3 O -1.82055 76.326 0.469079 -1.2 1 0.00282896 0.00710913 0.000572117 0.00867544 0.00167193 0.00674569 0.00186568 0.0191578 0.00180722 0.0120762 0.00194092 0.023073 0.00263722 0.0228363 0.00323252 0.031818 0.00338245 0.0231583 0.00433377 0.0338127
84 3 O -1.59225 76.122 3.16124 -1.2 1 0.00262649 0.00757973 0.00123706 0.00819724 0.00100129 0.00671675 0.00110132 0.0198059 0.00217588 0.0125281 0.00217167 0.0241235 0.00243975 0.0221311 0.00305007 0.0321715 0.00282936 0.0238008 0.00264156 0.0351599
85 1 Mg -2.66061 79.2686 0.0762345 1.2 1 0.00240379 0.00769923 0.0012848 0.00894162 0.0017131 0.00682767 0.00160855 0.0189967 0.00196797 0.0120803 0.00212208 0.0247932 0.00273912 0.0207972 0.00460356 0.0297778 0.00462192 0.0225343 0.00549586 0.0343291
86 1 Mg 2.17411 82.5953 1.19966 1.2 1 0.00690976 0.00777885 0.00237079 0.00909366 0.0016785 0.00676601 0.00154299 0.0202189 0.00263436 0.0110716 0.0030225 0.0263533 0.00280842 0.0205275 0.00276035 0.0293755 0.00406312 0.0245045 0.00485094 0.0367322
87 2 Si -0.46738 80.5889 1.5498 2.4 1 0.00527121 0.00766212 0.00149717 0.00942488 0.00250656 0.00647262 0.00195108 0.0194953 0.00275903 0.0112307 0.00285197 0.0246329 0.00314652 0.0215605 0.00315939 0.0297021 0.00406943 0.0235897 0.00574329 0.0360814
88 3 O 1.10729 80.4811 1.48504 -1.2 1 0.00556816 0.00733161 0.00175254 0.00946815 0.00278434 0.00630284 0.0018786 0.0190439 0.00251115 0.0112185 0.00250342 0.0252149 0.00283134 0.021189 0.00262097 0.0299142 0.00433246 0.0233825 0.00566631 0.0361903
89 3 O -1.56301 84.3589 1.42841 -1.2 1 0.00755269 0.00711224 0.00281964 0.00894519 0.00196741 0.00715208 0.00119315 0.0216623 0.00207193 0.0112295 0.00315515 0.0267537 0.00315249 0.0193882 0.00347746 0.0281628 0.00316894 0.0248898 0.00430497 0.0375816
90 3 O -1.14868 81.213 0.174584 -1.2 1 0.00443727 0.00774656 0.00191644 0.00874992 0.00223885 0.00702915 0.00162573 0.0202143 0.00270665 0.0106998 0.00283491 0.0244051 0.002832 0.0213329 0.00234904 0.0295981 0.00433483 0.0235659 0.0054715 0.0359736
91 1 Mg -2.57906 89.7847 3.10727 1.2 1 0.00613535 0.0051787 0.00134987 0.0102451 0.00240168 0.0070788 0.00150478 0.0218694 0.00201155 0.0106593 0.00191615 0.0279798 0.00367283 0.0184837 0.00276588 0.0268998 0.00284592 0.0256518 0.0030153 0.037436
92 3 O -1.05624 81.365 2.75427 -1.2 1 0.00651993 0.00816173 0.00144275 0.00901587 0.00205399 0.00612759 0.0019485 0.0205923 0.00252215 0.0111173 0.00262357 0.0253827 0.0031683 0.021466 0.00285534 0.0310297 0.00313584 0.0247677 0.00465904 0.0374266
93 1 Mg -2.37306 86.9301 4.57534 1.2 1 0.0052848 0.00708905 0.00181832 0.00874665 0.00156095 0.00684294 0.00160155 0.0222328 0.00221668 0.0112487 0.002799 0.0282088 0.00235305 0.0189317 0.00328277 0.0277531 0.00386119 0.0251674 0.00342094 0.0382432
94 2 Si 0.194115 89.1377 4.68079 2.4 1 0.00477769 0.00540228 0.0017019 0.01015 0.00312717 0.00648486 0.00152795 0.0217547 0.00172211 0.0107534 0.00279817 0.0278705 0.00327107 0.019144 0.00475678 0.0274961 0.00288432 0.0252707 0.00384493 0.0382692
95 3 O -1.30004 89.1668 4.58343 -1.2 1 0.00529575 0.00521628 0.00133015 0.00975409 0.00288556 0.00631932 0.00134126 0.0223087 0.0024496 0.0107169 0.00227114 0.0273207 0.00300032 0.0183686 0.00442696 0.0275041 0.00338414 0.0252038 0.00509866 0.0386095
96 3 O 1.30829 85.321 4.39615 -1.2 1 0.00598974 0.00735659 0.00188229 0.00923183 0.00154867 0.00695831 0.00178075 0.021977 0.00158064 0.0111645 0.00287544 0.0278783 0.00317626 0.0186714 0.00521529 0.0282215 0.00294466 0.0255107 0.00416453 0.0385124
97 3 O 0.869301 88.3079 3.41276 -1.2 1 0.00618648 0.00594695 0.00146187 0.00951565 0.00272205 0.00641841 0.00240206 0.021738 0.00206202 0.0107909 0.00229836 0.0272605 0.00307883 0.019354 0.00437773 0.0273396 0.00273651 0.0256826 0.00318897 0.0378597
98 3 O 0.921189 88.4616 5.89864 -1.2 1 0.00423352 0.00629146 0.00165 0.00895559 0.00314519 0.00649538 0.00204022 0.0230395 0.00145946 0.0113558 0.00253985 0.0279701 0.00291219 0.0199726 0.00428987 0.0287888 0.00395117 0.0249688 0.00506399 0.0391322
99 1 Mg -0.123996 84.6115 2.88417 1.2 1 0.00716606 0.0075536 0.00257534 0.00858096 0.00177448 0.00754317 0.00128414 0.0212161 0.00190284 0.011048 0.00260456 0.0278636 0.00233989 0.018917 0.00302933 0.028439 0.00269824 0.0253617 0.0038619 0.03733
100 1 Mg -0.206443 81.7814 4.42988 1.2 1 0.00692594 0.00802017 0.00151449 0.00927534 0.00179154 0.00624935 0.00194676 0.021755 0.00293418 0.0118038 0.00302944 0.0263375 0.00334269 0.020443 0.00375579 0.031064 0.00372122 0.0256921 0.00439113 0.0383083
101 2 Si 1.98823 83.716 4.38537 2.4 1 0.00596945 0.00778771 0.00146326 0.0099228 0.0020829 0.00636733 0.00206203 0.0215418 0.00200909 0.0110907 0.00290986 0.0263049 0.00359924 0.0198824 0.00477045 0.029591 0.00380006 0.0254276 0.00474307 0.0395787
102 3 O -1.19176 83.8875 4.46367 -1.2 1 0.00659484 0.00731729 0.00150472 0.00971735 0.00192308 0.00614979 0.00157404 0.020619 0.00248777 0.0108554 0.00258036 0.0275143 0.00281442 0.01947 0.00388334 0.0294812 0.00310559 0.0252582 0.0046657 0.038927
103 3 O 0.966296 79.8925 4.38819 -1.2 1 0.00700249 0.00708517 0.00166779 0.00929913 0.0011258 0.00649747 0.00159303 0.0207298 0.00191061 0.0118682 0.00195595 0.0257075 0.00304434 0.0206999 0.00299728 0.030763 0.00308206 0.0250775 0.00398629 0.0372713
104 3 O 1.30082 83.0157 3.03659 -1.2 1 0.00669919 0.00854367 0.00179687 0.00888684 0.0017864 0.0066033 0.00142629 0.0217224 0.00210345 0.0111029 0.00251238 0.0259213 0.00264138 0.0203551 0.00334809 0.0305056 0.00284571 0.0255858 0.00407296 0.0376916
105 1 Mg 0.093794 85.2279 -0.107363 1.2 1 0.00777186 0.00595292 0.00295512 0.00907847 0.00205523 0.0068658 0.00151143 0.0205387 0.00258019 0.0107237 0.00295939 0.026608 0.00278411 0.0185267 0.00357786 0.0276757 0.00285664 0.0236537 0.00457243 0.0358982
106 3 O 1.39875 83.1203 5.70528 -1.2 1 0.00570628 0.00742967 0.00121461 0.00983373 0.00157415 0.00606974 0.00254201 0.0218536 0.00174028 0.0111223 0.00286429 0.0271496 0.00308473 0.0201695 0.00433172 0.0310234 0.00372575 0.0255991 0.00419993 0.0396492
107 1 Mg -0.165796 87.9442 1.54617 1.2 1 0.00793404 0.00584157 0.00216081 0.00931776 0.00133277 0.00697588 0.00147825 0.0215736 0.00238823 0.0111686 0.0029992 0.0273446 0.00251654 0.0183602 0.0035714 0.0269492 0.00360865 0.025199 0.00246243 0.0371028
108 2 Si -2.17858 85.9446 1.49152 2.4 1 0.00790703 0.00661617 0.00280581 0.00976946 0.00200579 0.00666773 0.00183231 0.0203352 0.00217488 0.0109495 0.00302417 0.0265361 0.00266069 0.0189723 0.00364621 0.0267139 0.00365914 0.0247564 0.00396991 0.0375594
109 3 O 1.00557 85.7756 1.50819 -1.2 1 0.00753776 0.00632148 0.00274215 0.00964989 0.00189625 0.00698423 0.00128179 0.0205699 0.00262463 0.0106737 0.00269659 0.0268402 0.00226666 0.0181308 0.00311321 0.0274584 0.00255756 0.0247734 0.00381185 0.0375002
110 3 O -1.13289 89.6595 1.76833 -1.2 1 0.00656285 0.0057722 0.00154476 0.0098755 0.00128031 0.00728515 0.00128177 0.0224852 0.00151917 0.0111655 0.00231396 0.0277959 0.00252167 0.0188647 0.00271686 0.0270549 0.00352693 0.0256896 0.00257206 0.0373552
111 3 O -1.47374 86.5021 0.147294 -1.2 1 0.00821116 0.00580238 0.00250019 0.00932237 0.0023445 0.00695517 0.00211884 0.0210761 0.00205353 0.0107537 0.00264039 0.0264824 0.00329626 0.0186116 0.00381261 0.0276186 0.00372694 0.0243857 0.0039419 0.0367237
112 3 O -1.40794 86.3133 2.86883 -1.2 1 0.00686962 0.00670993 0.00255683 0.00850006 0.00178279 0.00725653 0.00211726 0.0218287 0.00210443 0.0111431 0.00291261 0.0265797 0.00220588 0.0190313 0.00339482 0.027652 0.00353445 0.0257878 0.00304938 0.0377334
113 1 Mg -2.72542 90.3529 -0.172903 1.2 1 0.00870557 0.00561692 0.00202915 0.00939846 0.00136933 0.00714715 0.00164746 0.0217161 0.00187867 0.0109267 0.00259386 0.0273418 0.0032426 0.0187881 0.00299028 0.0273739 0.00407547 0.0250472 0.00278299 0.0364946
114 1 Mg 2.00273 93.346 1.52178 1.2 1 0.00528029 0.00569527 0.00170274 0.00920292 0.00188427 0.00706007 0.00158652 0.0228348 0.00143176 0.011734 0.00236921 0.0278598 0.00293286 0.0201281 0.002963 0.0285475 0.00287037 0.0262026 0.00385996 0.0364965
115 2 Si -0.698241 91.0754 1.55689 2.4 1 0.00681316 0.00462135 0.00220777 0.00997898 0.00183566 0.00702418 0.00175206 0.0217226 0.00215818 0.010999 0.00319948 0.0267546 0.00256794 0.019402 0.00353943 0.0271925 0.00442623 0.0256346 0.00386535 0.0371184
116 3 O 0.97017 90.9667 1.45129 -1.2 1 0.00683334 0.00473004 0.00204081 0.0100166 0.00148286 0.00694319 0.00143496 0.0208551 0.00254009 0.0107434 0.0022264 0.0272606 0.00287137 0.0186005 0.00282396 0.0272215 0.00358371 0.0248991 0.00302542 0.0371945
117 3 O -1.6288 95.1537 1.56715 -1.2 1 0.00421466 0.00545738 0.000969431 0.00980174 0.00175412 0.00687658 0.00155081 0.0224029 0.00179352 0.0118741 0.00224122 0.0275642 0.00268891 0.0202919 0.00289594 0.0291956 0.00378508 0.0260164 0.00345098 0.0362601
118 3 O -1.33324 91.7831 0.347884 -1.2 1 0.00823535 0.00551671 0.00185459 0.00924182 0.00230172 0.00672793 0.00307239 0.0220183 0.0023593 0.0111051 0.00289673 0.0266289 0.00288558 0.0201588 0.00378158 0.0286291 0.00457849 0.0256097 0.00330246 0.0370793
119 1 Mg -2.4133 100.798 2.94293 1.2 1 0.00284801 0.00451003 0.00129579 0.0109169 0.00167699 0.00722364 0.00148386 0.0214927 0.00177698 0.0126158 0.00216142 0.0276217 0.00253093 0.0199883 0.00334049 0.0279133 0.00351976 0.0246991 0.00379462 0.0344125