ITEM: TIMESTEP
8200
ITEM: NUMBER OF ATOMS
5600
ITEM: BOX BOUNDS xy xz yz pp pp pp
0	7.1235	0
0	201.985	2.3745
0	119.584	0
ITEM: ATOMS id type element xu yu zu q Q_1 Q_2 Q_3 Q_4 Q_5 Q_6 Q_7 Q_8 Q_9 Q_10 Q_11 Q_12 Q_13 Q_14 Q_15 Q_16 Q_17 Q_18 Q_19 Q_20 Q_21
1 1 Mg -1.68147 49.875 -0.434032 1.2 1 0.236402 0.0779245 0.0201209 0.0249507 0.00528844 0.0135232 0.00442304 0.0182401 0.00507936 0.0232879 0.00626074 0.0273885 0.0101254 0.0252774 0.00593715 0.0227735 0.00905749 0.0208001 0.0111614 0.0264761
2 1 Mg 2.9653 51.1028 2.78066 1.2 1 0.198896 0.0694781 0.0115424 0.0206015 0.00234505 0.00983765 0.0035948 0.015606 0.00337842 0.0200146 0.00431798 0.0225882 0.00632453 0.0234476 0.00471254 0.023248 0.0073624 0.0184319 0.00943852 0.0261722
3 2 Si 0.807668 51.5306 0.772294 2.4 1 0.193489 0.0685871 0.0122732 0.0199832 0.00304189 0.00982324 0.00318808 0.0163532 0.0048668 0.0200138 0.00494103 0.0253211 0.00704126 0.0239252 0.00378048 0.0244678 0.00739123 0.0190339 0.0100128 0.0275937
4 3 O 2.05413 50.5547 1.10938 -1.2 1 0.215884 0.0738033 0.0168688 0.02317 0.0042023 0.0114483 0.00384369 0.0160656 0.00497749 0.0211984 0.00486851 0.0249991 0.00817544 0.0244268 0.00604135 0.0226452 0.00821565 0.0197129 0.00960362 0.0258183
5 3 O -1.18675 54.1733 1.87255 -1.2 1 0.128897 0.048708 0.00320031 0.0123397 0.00202487 0.00713363 0.00264968 0.0162573 0.00310363 0.0149866 0.00334066 0.0249991 0.00491748 0.0205619 0.00376641 0.0264459 0.005276 0.0182476 0.00876309 0.0339954
6 3 O 0.0209002 50.8425 -0.421352 -1.2 1 0.20739 0.0737688 0.0138464 0.0222077 0.00377754 0.0121986 0.00385208 0.0177599 0.00422944 0.0218725 0.00580898 0.0276172 0.008155 0.024595 0.00436151 0.0238754 0.00734395 0.0198829 0.00990799 0.0284684
7 1 Mg -2.31832 59.8455 3.22678 1.2 1 0.0149857 0.0106487 0.00514226 0.00445901 0.000968497 0.00549036 0.00103681 0.0213372 0.00254646 0.00908858 0.00234808 0.0284517 0.00277451 0.0206116 0.00356292 0.0337534 0.00471113 0.0226509 0.00582565 0.0504889
8 3 O -0.0203044 51.4072 2.10179 -1.2 1 0.187636 0.0663524 0.0107253 0.0192936 0.00265104 0.00929109 0.00331023 0.0164711 0.00424476 0.0199888 0.00451405 0.0236203 0.00598356 0.0236421 0.00472462 0.0239071 0.00685834 0.0185878 0.0090161 0.0269997
9 1 Mg -2.31302 57.1176 4.7491 1.2 1 0.0688704 0.0302371 0.00416191 0.00692677 0.00106167 0.00500887 0.00228169 0.0179267 0.00129173 0.0119649 0.00198825 0.0253613 0.00307344 0.0203967 0.0047705 0.0300385 0.00347303 0.020251 0.00760987 0.0417722
10 2 Si 0.384971 58.9038 4.69447 2.4 1 0.0298414 0.0183909 0.00705908 0.0048033 0.00121075 0.00535531 0.00247867 0.02061 0.00248604 0.00881375 0.0038841 0.0265162 0.00251112 0.021016 0.00590962 0.0321365 0.00403649 0.0218859 0.00681105 0.0486511
11 3 O -1.16552 58.9948 4.73714 -1.2 1 0.0256532 0.0160606 0.00736904 0.00437122 0.00120261 0.00506042 0.00206968 0.0207923 0.00298034 0.00857288 0.00265401 0.0273684 0.0030306 0.020237 0.00467972 0.0326655 0.0048069 0.0216549 0.00664072 0.0491076
12 3 O 1.6172 54.7376 4.88699 -1.2 1 0.119905 0.045731 0.00253995 0.0113928 0.00170152 0.00652199 0.00383802 0.0174716 0.00219916 0.0156194 0.00325559 0.0240236 0.00369011 0.0215412 0.0042379 0.0255259 0.00413936 0.0180563 0.00807485 0.0353476
13 3 O 1.06839 58.1688 3.50092 -1.2 1 0.040254 0.0225962 0.00681406 0.00518868 0.00139531 0.00486054 0.00153941 0.0200597 0.00240334 0.00978804 0.00266363 0.0264598 0.00248913 0.0201326 0.00460908 0.0321282 0.00447522 0.0215577 0.00707479 0.0458752
14 3 O 1.09039 58.3106 6.04076 -1.2 1 0.0374715 0.0209599 0.00753306 0.00475247 0.00129871 0.00503634 0.0020731 0.0204197 0.00265769 0.00909491 0.00271251 0.0266369 0.00221737 0.020626 0.00541537 0.0320881 0.00391865 0.0218384 0.00774854 0.0476912
15 1 Mg 0.382287 53.7907 3.07565 1.2 1 0.135038 0.0525007 0.00275821 0.0135315 0.00125218 0.00759635 0.00284382 0.0160377 0.00273314 0.0159662 0.00334474 0.0242376 0.00441037 0.0209174 0.0047413 0.0252783 0.00431227 0.0172163 0.00848277 0.0325765
16 1 Mg 0.731509 49.9361 3.21507 1.2 1 0.2222 0.0727811 0.017911 0.0234798 0.00382408 0.0114144 0.00393396 0.0160682 0.00422421 0.0218809 0.00402488 0.0227474 0.00749374 0.0245957 0.00553503 0.0231003 0.00825786 0.0199639 0.00965747 0.0255105
17 2 Si 2.37997 53.2822 4.79274 2.4 1 0.156974 0.0569858 0.00601711 0.0155061 0.00236287 0.0079273 0.0041117 0.0154619 0.00274345 0.0170587 0.00411014 0.0229344 0.00422915 0.0213275 0.00506934 0.0244503 0.00386558 0.0172689 0.00854627 0.0305271
18 3 O -0.828587 53.4619 4.7868 -1.2 1 0.14932 0.0545681 0.00526129 0.0143709 0.00203657 0.0069361 0.00334763 0.0154617 0.0033059 0.0170209 0.00328004 0.024235 0.0044798 0.0233594 0.00340314 0.0248003 0.00491694 0.0173704 0.00792627 0.0316471
19 3 O 2.46387 49.3141 3.56785 -1.2 1 0.24048 0.0777014 0.0209172 0.0268524 0.00475338 0.0133806 0.00449645 0.0153375 0.00428861 0.0230483 0.00479743 0.0229911 0.00883815 0.0242343 0.00751738 0.0217157 0.00873476 0.0207206 0.00982601 0.0242626
20 3 O 1.92984 52.5553 3.47497 -1.2 1 0.165179 0.0590284 0.0076501 0.0161372 0.00263686 0.00835313 0.0037556 0.0159536 0.00254313 0.0180912 0.00355262 0.0238955 0.00496303 0.0224967 0.00482777 0.0243542 0.00511906 0.0179153 0.00877369 0.0303289
21 1 Mg 0.060438 54.7378 0.406092 1.2 1 0.119375 0.0477013 0.00221772 0.0122712 0.0018693 0.00724212 0.00292103 0.0174625 0.00314627 0.0158551 0.00406831 0.0269248 0.00438424 0.0202465 0.00459443 0.0266984 0.00496278 0.0184437 0.00879756 0.0351916
22 3 O 1.82446 52.2521 5.98051 -1.2 1 0.174117 0.0614433 0.00862605 0.0174185 0.00261169 0.00907827 0.00357939 0.0159238 0.00309268 0.0191816 0.00474919 0.0237002 0.00456314 0.0225901 0.00465799 0.0237594 0.00421507 0.0171521 0.0087382 0.0293116
23 1 Mg 0.0160471 57.4368 1.88515 1.2 1 0.0515684 0.0273245 0.00632966 0.0057918 0.00159631 0.00494718 0.00183407 0.0190108 0.00453741 0.0104345 0.0037671 0.0270751 0.00263682 0.0204406 0.00485602 0.0306813 0.0061205 0.0197851 0.00804132 0.0439572
24 2 Si -1.94832 55.5544 1.95033 2.4 1 0.103422 0.0428748 0.00114093 0.0103482 0.00152953 0.00624429 0.00201391 0.0169959 0.00391675 0.0137988 0.00362181 0.0253729 0.00365404 0.0210554 0.0040497 0.0273359 0.00581557 0.0180212 0.00819509 0.0373039
25 3 O 1.22666 55.417 1.93528 -1.2 1 0.106025 0.0423484 0.00110758 0.0102758 0.00143195 0.00644514 0.00238006 0.0171282 0.00345592 0.0139412 0.00333833 0.0252024 0.00399985 0.0200539 0.00440553 0.0273658 0.00523946 0.0182817 0.00813108 0.036498
26 3 O -0.945866 59.3252 1.86247 -1.2 1 0.0222803 0.0144986 0.00712959 0.00456424 0.00142727 0.00535815 0.00105399 0.0212176 0.00349043 0.00885087 0.00334011 0.0284075 0.00354631 0.020587 0.00436812 0.0335676 0.00577989 0.0226875 0.00719591 0.0500654
27 3 O -1.30812 56.278 0.654762 -1.2 1 0.0812672 0.036726 0.0031345 0.00814239 0.00230858 0.00539305 0.0018672 0.0182619 0.00410902 0.0120476 0.00358182 0.0260214 0.00325463 0.0203123 0.0045134 0.0297305 0.00532471 0.019505 0.00842729 0.0404783
28 3 O -1.36034 56.3481 3.14941 -1.2 1 0.0780947 0.0345315 0.00386664 0.00718906 0.00100755 0.00509567 0.00195923 0.018422 0.00331104 0.0126588 0.00294508 0.0257968 0.0024895 0.0204554 0.00342066 0.0291448 0.00559446 0.0196077 0.00755156 0.0405463
29 1 Mg -2.38255 59.8351 0.281095 1.2 1 0.0175551 0.0126645 0.00592684 0.00446994 0.00113042 0.00529925 0.00161748 0.0220714 0.00291955 0.00905315 0.00290819 0.0291247 0.0027636 0.0204652 0.00375705 0.0334297 0.00450576 0.0234812 0.00571315 0.0507858
30 1 Mg 2.32103 62.6711 1.7114 1.2 1 0.00340889 0.0033441 0.00173266 0.00571223 0.00129496 0.005927 0.000949846 0.0232522 0.00263402 0.00768651 0.00269181 0.0291508 0.00228164 0.0208807 0.00307722 0.0355495 0.00352315 0.0246104 0.00348427 0.0554605
31 2 Si -0.320732 60.8467 1.78135 2.4 1 0.0096198 0.00711584 0.00381074 0.00517416 0.00139802 0.0062868 0.000673802 0.0222693 0.00244076 0.00786496 0.00248585 0.0277962 0.0033397 0.0210047 0.00341828 0.0342968 0.00432425 0.0236554 0.00518842 0.0539831
32 3 O 1.20644 60.7189 1.76905 -1.2 1 0.0110651 0.00799617 0.00429028 0.00485151 0.00129614 0.00568959 0.0011655 0.0220202 0.00333405 0.00757864 0.00275381 0.0282874 0.00250874 0.0203553 0.00424882 0.0347452 0.00421663 0.0233989 0.0059741 0.0535841
33 3 O -1.3253 64.505 1.67824 -1.2 1 0.00290858 0.00258112 0.00175303 0.00633757 0.00100114 0.006283 0.000815935 0.0242484 0.00131225 0.00704892 0.00159543 0.029818 0.00235217 0.0203082 0.00326231 0.0344543 0.00374336 0.0246505 0.00385276 0.0556133
34 3 O -0.997846 61.4491 0.47057 -1.2 1 0.00739583 0.00560937 0.00333841 0.00485999 0.00112638 0.00611709 0.00102744 0.0232601 0.0027286 0.00744453 0.00182291 0.028844 0.00271157 0.0206847 0.00300869 0.0352548 0.00418237 0.0248547 0.00482002 0.0541371
35 1 Mg -2.40385 70.1183 3.19021 1.2 1 0.00154777 0.00232694 0.00104622 0.00621746 0.000630526 0.00671371 0.000845529 0.0237376 0.00108433 0.00760827 0.000845618 0.0303597 0.00109849 0.0205013 0.00106517 0.0338788 0.00101664 0.0246669 0.00184841 0.0547042
36 3 O -1.01803 61.5622 3.03066 -1.2 1 0.00556594 0.00470623 0.00232175 0.00481732 0.00120293 0.00601232 0.000791117 0.0224857 0.00246027 0.00763236 0.00181272 0.0279336 0.00269727 0.0207785 0.00294433 0.0350755 0.0035761 0.0240652 0.00444851 0.0541324
37 1 Mg -2.16469 67.2625 4.65899 1.2 1 0.00203317 0.00170003 0.000742483 0.00605774 0.000940294 0.00631633 0.00132403 0.0234126 0.0022376 0.00749398 0.00154156 0.0300751 0.00174871 0.0212899 0.00252513 0.0346725 0.00232473 0.024561 0.00248644 0.0564595
38 2 Si 0.372014 69.1282 4.69894 2.4 1 0.00230764 0.00238805 0.000771098 0.00660533 0.00149615 0.00697696 0.00154637 0.0232882 0.0012571 0.00716697 0.00229228 0.0288022 0.00218583 0.0216132 0.00321908 0.0339277 0.00234746 0.0242525 0.00252409 0.0568906
39 3 O -1.18545 69.1676 4.68317 -1.2 1 0.00203255 0.00245104 0.000887618 0.00616579 0.0014457 0.00655443 0.00144421 0.0227141 0.00240509 0.00706944 0.00171667 0.0293447 0.00198233 0.0207986 0.00234446 0.0345925 0.00289046 0.0242214 0.00327778 0.0563853
40 3 O 1.39168 65.5177 4.69765 -1.2 1 0.00236867 0.00188905 0.000819169 0.00628921 0.000845496 0.0065906 0.000867601 0.0238781 0.00151088 0.00703951 0.00225633 0.0298473 0.0022733 0.0206263 0.0031299 0.0345544 0.00208394 0.0245376 0.00303557 0.0566448
41 3 O 1.01399 68.4897 3.41926 -1.2 1 0.00188986 0.00211189 0.000807249 0.00600761 0.00138341 0.00626994 0.00134787 0.0233534 0.00129751 0.00737118 0.00137151 0.0291179 0.00151131 0.0209673 0.00201709 0.0347384 0.00154853 0.0245258 0.00173436 0.056008
42 3 O 1.04643 68.4376 6.00188 -1.2 1 0.00182849 0.00202855 0.000771058 0.00594637 0.0011229 0.00638598 0.00119918 0.0234661 0.00136544 0.00726029 0.00148893 0.0287285 0.00182339 0.0215488 0.00218107 0.0348492 0.00151733 0.0247792 0.00208811 0.056827
43 1 Mg -0.00856386 65.0132 3.24659 1.2 1 0.00233142 0.00214144 0.00138779 0.00602959 0.00109351 0.00626899 0.000734768 0.02373 0.00116951 0.00763744 0.0014192 0.0302932 0.00163135 0.0204397 0.00199588 0.0344062 0.00180083 0.0243653 0.00229321 0.055212
44 1 Mg -0.020299 62.2097 4.70244 1.2 1 0.0042068 0.00352882 0.00219893 0.00503952 0.00156523 0.00558517 0.00136733 0.0223165 0.00205588 0.00763189 0.00252516 0.0290416 0.00297642 0.0209469 0.00347223 0.035524 0.0035392 0.0238049 0.00414053 0.0554056
45 2 Si 2.04056 64.0057 4.66925 2.4 1 0.00188548 0.00254546 0.000949533 0.00628088 0.00159174 0.00674041 0.00183674 0.0230845 0.00167486 0.00692855 0.00216397 0.0285358 0.0020436 0.021016 0.00393276 0.0345979 0.00201744 0.0241956 0.003232 0.0577128
46 3 O -1.18329 64.1137 4.72272 -1.2 1 0.00210978 0.00228476 0.000853867 0.00597262 0.00113665 0.00628788 0.00100702 0.0231841 0.00220967 0.00675902 0.00145608 0.0293827 0.00175874 0.0205338 0.00211967 0.0349924 0.00251443 0.0241591 0.00248626 0.0570237
47 3 O 1.13572 60.4097 4.61655 -1.2 1 0.0130602 0.00929376 0.00425298 0.00456341 0.00107965 0.00577321 0.00160097 0.0216636 0.00195911 0.00804476 0.00251042 0.028131 0.00199054 0.020682 0.00380933 0.0338116 0.00341399 0.0225554 0.00492397 0.0516569
48 3 O 1.38109 63.3904 3.36702 -1.2 1 0.00267487 0.00270357 0.00124891 0.0056353 0.00158665 0.00601204 0.00174005 0.0230907 0.00167255 0.00711481 0.00155881 0.0286982 0.00193999 0.020676 0.00337491 0.0353178 0.00216293 0.024246 0.00307818 0.0564237
49 1 Mg 0.0241941 64.8937 0.269019 1.2 1 0.0028509 0.00212274 0.00130768 0.00614046 0.000628413 0.00603037 0.000989697 0.0240205 0.00128971 0.00741035 0.00103473 0.030426 0.0017174 0.020182 0.00213496 0.0343465 0.00198779 0.0245783 0.00235434 0.0544876
50 3 O 1.31085 63.2679 5.92344 -1.2 1 0.00259085 0.00267296 0.00104935 0.00530543 0.00113434 0.00605293 0.00123907 0.0228996 0.00126022 0.0072804 0.00142095 0.0286803 0.00185969 0.0213237 0.0031977 0.0351153 0.00214349 0.0238439 0.00318951 0.0569232
51 1 Mg 0.078046 67.819 1.75241 1.2 1 0.00252058 0.00183123 0.000863072 0.00628389 0.000790931 0.00607474 0.00114826 0.0236914 0.00245921 0.00789276 0.00261594 0.0300423 0.00251796 0.0212315 0.00258416 0.0348224 0.00304542 0.024995 0.00280245 0.0554746
52 2 Si -2.03116 65.9467 1.59396 2.4 1 0.00297973 0.00201323 0.00128945 0.00658675 0.000728575 0.00647227 0.0015464 0.0234388 0.00152882 0.0073483 0.00206609 0.0290994 0.00278487 0.0213758 0.00378731 0.0342408 0.00336373 0.0240071 0.0022723 0.056349
53 3 O 1.18084 65.892 1.64434 -1.2 1 0.00274328 0.00214222 0.00105069 0.00617888 0.000675718 0.0063303 0.000919898 0.0238259 0.0021101 0.00696878 0.0012209 0.0297527 0.00191759 0.0202129 0.00197669 0.034986 0.0027093 0.0245755 0.00258583 0.0560233
54 3 O -0.945209 69.699 1.62101 -1.2 1 0.00244079 0.00242297 0.00115802 0.00652139 0.000505057 0.00682407 0.000912858 0.0239953 0.00134419 0.00744229 0.00143675 0.0301101 0.00225413 0.0206141 0.00267688 0.0338612 0.00231346 0.0244162 0.00333238 0.0552947
55 3 O -1.38096 66.6542 0.349694 -1.2 1 0.00321532 0.00213624 0.00115639 0.00615932 0.000580383 0.00607643 0.00121114 0.0239158 0.00140125 0.00793035 0.0014714 0.0291476 0.00216512 0.0207172 0.00266146 0.0348355 0.0023311 0.0246934 0.00193547 0.0554166
56 3 O -1.34795 66.6409 2.90532 -1.2 1 0.00257426 0.00204477 0.00105713 0.00582646 0.00075927 0.00633798 0.00114518 0.0235483 0.00142805 0.00736186 0.00126694 0.029046 0.00199166 0.0210867 0.00220501 0.0351246 0.00256528 0.0247274 0.00210375 0.0562819
57 1 Mg -2.34652 70.1422 0.289187 1.2 1 0.00275545 0.00238563 0.00136098 0.00644024 0.000507155 0.00646535 0.000816045 0.0240974 0.0011898 0.00781247 0.000924311 0.030763 0.00140583 0.0203802 0.00141557 0.0340894 0.00118594 0.024506 0.00180616 0.0542256
58 1 Mg 2.25361 73.0764 1.63535 1.2 1 0.00139013 0.00222155 0.0016733 0.00666397 0.000405144 0.00598237 0.0012955 0.0239818 0.00181071 0.00773071 0.00216181 0.0303329 0.00201371 0.0210497 0.0029159 0.0347567 0.00264011 0.0247985 0.00290635 0.0552184
59 2 Si -0.266384 71.183 1.72569 2.4 1 0.00199139 0.00250631 0.00158073 0.00703208 0.000795035 0.00710688 0.00141915 0.0237369 0.00160942 0.00745141 0.0019064 0.0289816 0.00182919 0.0212499 0.00278484 0.0341425 0.00274646 0.0244829 0.00251654 0.0563026
60 3 O 1.29583 71.0841 1.6932 -1.2 1 0.00168785 0.00250808 0.00144161 0.00648272 0.00073181 0.00633047 0.00127777 0.0231381 0.00234154 0.00705211 0.00140629 0.0298897 0.00175858 0.0201565 0.00205431 0.0346778 0.0022547 0.0243796 0.00256259 0.0554328
61 3 O -1.36735 74.8335 1.68762 -1.2 1 0.00125628 0.00235581 0.00110791 0.00684113 0.00060815 0.00640167 0.000835397 0.0244128 0.0012812 0.00760732 0.00199353 0.0306457 0.00229901 0.0205253 0.00304792 0.0342518 0.0028949 0.0245747 0.00350253 0.0553941
62 3 O -1.00738 71.8836 0.474068 -1.2 1 0.00221932 0.00208175 0.00171713 0.00647063 0.00105945 0.00614086 0.00158659 0.0235978 0.00162139 0.007636 0.00159163 0.0294295 0.0021963 0.0207981 0.00217652 0.0347789 0.0017744 0.0244938 0.0020089 0.0552992
63 1 Mg -2.30741 80.3776 3.19502 1.2 1 0.00283812 0.00334814 0.00113315 0.00654585 0.000641702 0.0056032 0.000674718 0.0245551 0.000906929 0.0082147 0.000886363 0.0311279 0.00115102 0.0204102 0.00157663 0.0338603 0.00158345 0.0245864 0.00139036 0.0548797
64 3 O -0.893814 71.7483 3.07141 -1.2 1 0.00150607 0.00249758 0.00120101 0.00631947 0.00052791 0.00642137 0.00124046 0.023946 0.00151774 0.00761343 0.00147708 0.0291613 0.00183687 0.0213388 0.00215586 0.034637 0.00204563 0.0249772 0.00256904 0.0558537
65 1 Mg -2.22833 77.5012 4.68295 1.2 1 0.00208612 0.00288134 0.00113479 0.0063632 0.000715389 0.00563041 0.00130409 0.0243654 0.00196999 0.00821443 0.00216264 0.0303574 0.0016405 0.0210632 0.00300136 0.034949 0.0030284 0.0246957 0.00289149 0.0556672
66 2 Si 0.441115 79.3857 4.70366 2.4 1 0.00337519 0.00314394 0.00138022 0.00679075 0.00141503 0.0059779 0.00157841 0.0243296 0.00146479 0.00819922 0.00197243 0.0298366 0.00239121 0.0211057 0.0033363 0.0342288 0.00249679 0.0243979 0.0023981 0.0561909
67 3 O -1.1295 79.438 4.66066 -1.2 1 0.00274202 0.00317222 0.0009108 0.00648859 0.00125037 0.00546396 0.00141171 0.0237155 0.00229198 0.00817338 0.00162414 0.030401 0.00200593 0.0205591 0.00230965 0.0347107 0.00364616 0.0241995 0.00331795 0.0558841
68 3 O 1.44758 75.7323 4.69301 -1.2 1 0.00231264 0.00270798 0.00120564 0.0065679 0.000706713 0.0061726 0.000915505 0.0244911 0.00140367 0.00791922 0.00160916 0.0303601 0.00212079 0.0206013 0.00295974 0.0340591 0.00233856 0.0245469 0.00380226 0.0556103
69 3 O 1.1045 78.6995 3.38721 -1.2 1 0.00258028 0.00295735 0.000956279 0.00641227 0.00126304 0.00573993 0.0016002 0.0239302 0.00143844 0.00844254 0.0016141 0.0298053 0.00232955 0.0212034 0.00254475 0.0347993 0.00170242 0.0244734 0.00192022 0.0559212
70 3 O 1.13192 78.7098 5.92697 -1.2 1 0.0030821 0.00272784 0.00101039 0.00625029 0.00104589 0.00544569 0.000930243 0.0244313 0.0014684 0.00825012 0.00106777 0.0299732 0.00144708 0.0213003 0.00214892 0.0346422 0.00182144 0.0245955 0.00220278 0.055686
71 1 Mg 0.00540212 75.2971 3.21171 1.2 1 0.00138069 0.00287547 0.00101466 0.00629921 0.000717526 0.00631157 0.000760092 0.0242659 0.000862135 0.00824159 0.00092793 0.0305447 0.00126729 0.0203794 0.00106174 0.0342083 0.00120241 0.0249151 0.0022247 0.0547295
72 1 Mg -0.0357565 72.463 4.80578 1.2 1 0.00126962 0.00256551 0.00149309 0.00619845 0.000643234 0.00592395 0.00108811 0.0237909 0.00183035 0.00796023 0.001694 0.029476 0.00207023 0.0211867 0.00296738 0.0349355 0.00240382 0.0253747 0.00288923 0.0558241
73 2 Si 2.12739 74.2728 4.70201 2.4 1 0.00137569 0.00257763 0.00130456 0.00695339 0.00110415 0.00649911 0.00142831 0.0239218 0.00128475 0.00780594 0.00206243 0.0288645 0.00201462 0.0214993 0.00302945 0.0343012 0.00265124 0.0244856 0.00296384 0.0566948
74 3 O -1.09517 74.3022 4.75312 -1.2 1 0.00114648 0.00266577 0.000990743 0.00646942 0.00102871 0.00568409 0.00110697 0.0239466 0.00187899 0.00751938 0.00115376 0.0298996 0.00163367 0.0209944 0.00154907 0.0345764 0.002434 0.0243264 0.00280243 0.0557851
75 3 O 1.0501 70.5773 4.72254 -1.2 1 0.0017774 0.0026145 0.00148285 0.00644029 0.000873579 0.00674335 0.000960047 0.0236091 0.00136621 0.00747032 0.00165872 0.0299515 0.00162004 0.0207688 0.00258594 0.033804 0.0022762 0.0243809 0.00337956 0.0559188
76 3 O 1.43712 73.5927 3.45565 -1.2 1 0.0014421 0.00225738 0.00122938 0.00625639 0.000869975 0.00625183 0.00123725 0.023886 0.00137351 0.00774983 0.00135569 0.0291378 0.00187849 0.021485 0.00250309 0.034714 0.00181085 0.0247043 0.0024497 0.0558653
77 1 Mg -0.0231624 75.3357 0.182483 1.2 1 0.00103912 0.00247338 0.00129784 0.00665442 0.000737748 0.00626821 0.000785121 0.0240858 0.00127806 0.00790104 0.00131315 0.0311822 0.00154218 0.020202 0.00161267 0.0342716 0.00148695 0.0245965 0.00223249 0.0549045
78 3 O 1.42489 73.6248 6.0053 -1.2 1 0.00197045 0.0024265 0.000990028 0.00613537 0.00128593 0.00580633 0.00130373 0.0241088 0.00131982 0.00788204 0.00131532 0.029029 0.00197564 0.0214469 0.00235254 0.034878 0.00170233 0.0247119 0.00275389 0.056217
79 1 Mg 0.106219 78.1024 1.66757 1.2 1 0.00269396 0.00286926 0.000907847 0.00657288 0.000790786 0.0057854 0.00115696 0.0240935 0.0018532 0.00863639 0.0023756 0.0303634 0.00208584 0.0211781 0.00297599 0.0347456 0.00275885 0.0251045 0.00244861 0.0559423
80 2 Si -2.02926 76.3359 1.68142 2.4 1 0.00127938 0.00275091 0.000867394 0.00710621 0.000852885 0.00647092 0.00145991 0.0243321 0.00149951 0.00782507 0.00196272 0.0295538 0.00196929 0.0212367 0.00285075 0.0341072 0.00273966 0.0244763 0.00230358 0.056617
81 3 O 1.17629 76.228 1.70929 -1.2 1 0.00075706 0.0026559 0.000977711 0.00663935 0.00105759 0.00595769 0.00117936 0.0236645 0.00184589 0.00757284 0.00116668 0.0304636 0.00171379 0.0203748 0.00162309 0.0346636 0.00246933 0.0243381 0.00255133 0.0559416
82 3 O -1.0243 79.8919 1.64188 -1.2 1 0.00211634 0.00340317 0.00106811 0.00677683 0.00103735 0.00597032 0.000830975 0.0244127 0.000830625 0.00808167 0.00136302 0.0310495 0.00138973 0.0202501 0.00239687 0.0338112 0.00257673 0.0245278 0.00203512 0.0558084
83 3 O -1.39093 76.9884 0.387679 -1.2 1 0.000995501 0.0024892 0.00101249 0.00642716 0.000917555 0.00600553 0.00132413 0.0242332 0.00173499 0.00795672 0.00182498 0.0298191 0.00217557 0.021478 0.0028307 0.0348406 0.00241153 0.0247143 0.00222014 0.0565786
84 3 O -1.3009 76.9033 2.98709 -1.2 1 0.0017753 0.00293078 0.000858752 0.0063744 0.000865341 0.00592281 0.00135721 0.0241208 0.00153385 0.00788037 0.00147109 0.0297596 0.00204935 0.0210844 0.00269865 0.0347986 0.00246244 0.0244806 0.00221001 0.0557315
85 1 Mg -2.3325 80.3623 0.190449 1.2 1 0.001981 0.00332253 0.000873913 0.00648777 0.00122982 0.00602729 0.000819446 0.024315 0.0010168 0.00843788 0.000914198 0.0312312 0.000735345 0.0205028 0.00140586 0.0335017 0.00110404 0.0245365 0.00172762 0.0551474
86 1 Mg 2.32575 83.295 1.51489 1.2 1 0.00232545 0.00337317 0.00115904 0.00644469 0.000848904 0.00551318 0.00130067 0.0247439 0.00223238 0.00844439 0.00193814 0.030905 0.00234328 0.0211519 0.00309629 0.0340248 0.00229346 0.0252303 0.00235703 0.0554422
87 2 Si -0.28342 81.3647 1.65027 2.4 1 0.00225978 0.00350376 0.00122358 0.00690138 0.00112012 0.00624156 0.00134737 0.0243505 0.00136896 0.00802852 0.00185015 0.0299303 0.00146642 0.0213691 0.00338676 0.0337216 0.00296199 0.0247064 0.00259328 0.0568234
88 3 O 1.28226 81.2703 1.64553 -1.2 1 0.00230832 0.00321851 0.00110341 0.00668537 0.000906639 0.00600251 0.000972245 0.0244022 0.00186641 0.00802011 0.00120982 0.0308408 0.00124415 0.0204735 0.00178296 0.0338988 0.00172407 0.0246157 0.0018908 0.0557268
89 3 O -1.27545 85.0355 1.52358 -1.2 1 0.00136205 0.00333627 0.00158227 0.00657827 0.000525287 0.00586981 0.00115005 0.0247275 0.00149453 0.00827761 0.00190393 0.0312753 0.00177449 0.0205475 0.00274491 0.0334639 0.00258504 0.0248011 0.00287683 0.0553771
90 3 O -0.930407 81.9786 0.33769 -1.2 1 0.00184252 0.00331144 0.000977068 0.00644057 0.0012717 0.00578371 0.00175039 0.0241938 0.00127786 0.0079435 0.00140726 0.0299317 0.00180339 0.0209022 0.00268122 0.0343724 0.00222705 0.0250013 0.00248699 0.0556736
91 1 Mg -2.29339 90.7122 2.98546 1.2 1 0.00288304 0.00179493 0.000871601 0.00654272 0.000881476 0.00584091 0.000997889 0.0241676 0.00118109 0.00808199 0.00113051 0.0313519 0.00128549 0.0204362 0.00130828 0.0335063 0.00147465 0.0252094 0.0024535 0.0543955
92 3 O -0.953906 82.102 2.93321 -1.2 1 0.0022076 0.00317238 0.0012184 0.00645126 0.000783075 0.00554308 0.00144922 0.0245293 0.0014708 0.00881956 0.0013057 0.0299471 0.00219996 0.02112 0.00284453 0.0342371 0.00225255 0.0249648 0.00182664 0.055847
93 1 Mg -2.2467 87.9193 4.48453 1.2 1 0.00242252 0.00230726 0.00160211 0.00648308 0.000852553 0.00539824 0.0012075 0.0239472 0.00233793 0.00874956 0.00244156 0.0311593 0.00252655 0.0210578 0.00261375 0.0341333 0.00286261 0.0258004 0.00330589 0.0552837
94 2 Si 0.399844 89.711 4.48885 2.4 1 0.00254911 0.00189584 0.00150388 0.00692031 0.00085477 0.00615929 0.00167494 0.0243251 0.00157268 0.00821227 0.00172232 0.0301237 0.00165733 0.0210984 0.00323192 0.0336476 0.00261666 0.0254315 0.00337192 0.056329
95 3 O -1.16054 89.8216 4.4632 -1.2 1 0.00232705 0.00194687 0.00122958 0.00673648 0.000683263 0.00583689 0.00115348 0.0238881 0.0018502 0.00786747 0.00125844 0.0310493 0.00145925 0.0205315 0.00152209 0.0338228 0.00220676 0.0252009 0.00325205 0.0555483
96 3 O 1.50226 86.0784 4.5366 -1.2 1 0.000757895 0.00257416 0.00103621 0.00673412 0.000640334 0.00598077 0.000766747 0.0247029 0.00094727 0.00833155 0.00144356 0.0312978 0.00166875 0.0204235 0.00294654 0.0333558 0.00244693 0.0254486 0.00311795 0.0551794
97 3 O 1.11154 89.1185 3.23036 -1.2 1 0.00241918 0.00241153 0.00130678 0.00644011 0.000834818 0.00554663 0.00182393 0.0241047 0.0015819 0.00847687 0.00149081 0.0299117 0.00189092 0.0209333 0.00277078 0.0340795 0.00233822 0.02535 0.00306215 0.0556288
98 3 O 1.06781 89.0397 5.79046 -1.2 1 0.00209295 0.00178276 0.00134113 0.00657349 0.000576919 0.00576355 0.00131021 0.0241546 0.00163824 0.00852734 0.00115908 0.0301176 0.0016805 0.021405 0.00260139 0.0342242 0.00201904 0.0258594 0.00311095 0.0555033
99 1 Mg 0.142952 85.6041 3.07345 1.2 1 0.000754934 0.00327662 0.00102299 0.00635342 0.00051931 0.00580181 0.000950501 0.0247622 0.000700775 0.00853486 0.000907828 0.0313562 0.000929623 0.0204693 0.00111809 0.0332555 0.00159134 0.0251597 0.00199721 0.0546315
100 1 Mg 0.0538275 82.6999 4.64018 1.2 1 0.00203168 0.00303047 0.00134472 0.00653306 0.000791685 0.005171 0.00120963 0.0249959 0.00221243 0.00875525 0.00232994 0.0308447 0.00179615 0.0209322 0.00293768 0.0344324 0.00276006 0.0256242 0.00264243 0.0555131
101 2 Si 2.17109 84.5488 4.53756 2.4 1 0.00136748 0.00268771 0.00117494 0.0070115 0.0010959 0.00588085 0.00145741 0.0243146 0.00110907 0.00846425 0.001869 0.0302007 0.00202468 0.0212096 0.00348481 0.0335003 0.00282567 0.0249833 0.00241734 0.0561499
102 3 O -1.03212 84.6768 4.55635 -1.2 1 0.00106418 0.00276831 0.000733521 0.00662445 0.00111005 0.00570498 0.00128561 0.0244474 0.00173565 0.00818404 0.00123976 0.0310285 0.00153426 0.0202724 0.0018639 0.033652 0.00166452 0.0250697 0.00250025 0.0554184
103 3 O 1.13864 80.8813 4.64518 -1.2 1 0.00320581 0.00309101 0.00139252 0.00683085 0.000755971 0.00568922 0.00112087 0.0250533 0.00126534 0.00824278 0.00158884 0.0309398 0.00211764 0.0205223 0.0026437 0.033788 0.00179171 0.024755 0.00278794 0.055662
104 3 O 1.47186 83.8793 3.24186 -1.2 1 0.00143655 0.00326777 0.00113474 0.00640172 0.000994804 0.00550456 0.00112358 0.0246901 0.00108397 0.00856585 0.00107795 0.0300608 0.00171403 0.0212554 0.00196907 0.0341301 0.00187275 0.0253048 0.00210782 0.055454
105 1 Mg 0.112838 85.6685 -0.00883254 1.2 1 0.001503 0.00330648 0.000849516 0.00615401 0.000695125 0.00566723 0.000685403 0.0244292 0.00120372 0.00837119 0.000889799 0.0312802 0.00121912 0.0205591 0.00129281 0.033437 0.00117055 0.0248181 0.0017642 0.0544934
106 3 O 1.45679 83.8974 5.80509 -1.2 1 0.00198243 0.00239197 0.00109835 0.00630463 0.00117755 0.00549662 0.00114849 0.0247158 0.00132969 0.00863753 0.00123489 0.030396 0.00161441 0.0215126 0.00243982 0.0341149 0.00193116 0.0253629 0.0021794 0.0558109
107 1 Mg 0.249332 88.4772 1.47491 1.2 1 0.00232979 0.00265548 0.00125913 0.00650618 0.000957522 0.00548366 0.00126433 0.02458 0.00192297 0.00828738 0.00162536 0.0307619 0.00171984 0.021048 0.00282971 0.0336787 0.00259372 0.0251365 0.00326808 0.0550918
108 2 Si -1.93951 86.5426 1.56622 2.4 1 0.00225838 0.00322006 0.00105458 0.00691588 0.0011686 0.00600556 0.00159482 0.0241875 0.00168495 0.00828432 0.00244276 0.0301299 0.00185097 0.0212576 0.00331001 0.0334488 0.00288107 0.0245974 0.00275145 0.0558196
109 3 O 1.239 86.5012 1.54319 -1.2 1 0.00144562 0.00297346 0.00112758 0.00652542 0.00126009 0.00545017 0.00140971 0.0235943 0.00258397 0.00806663 0.00164466 0.0306394 0.00191376 0.0207499 0.00211442 0.0337605 0.00346492 0.0241952 0.00311529 0.0554678
110 3 O -0.912755 90.2619 1.5259 -1.2 1 0.00336681 0.0019217 0.00103985 0.00684924 0.00142419 0.0060733 0.00147523 0.0243497 0.00187482 0.00781138 0.00171752 0.0311173 0.00234348 0.020412 0.00307646 0.0335165 0.003071 0.0249214 0.00384266 0.0548941
111 3 O -1.31913 87.2339 0.284976 -1.2 1 0.00193428 0.00288913 0.000670527 0.00613777 0.00141424 0.00572032 0.00129444 0.0245911 0.00162032 0.00837311 0.00149265 0.0298801 0.00170268 0.0212258 0.00233659 0.0338874 0.00204697 0.0249992 0.00242237 0.0554266
112 3 O -1.3077 87.2154 2.82457 -1.2 1 0.00174979 0.00289898 0.00120543 0.00638258 0.00094857 0.00564071 0.00145401 0.0243632 0.00126973 0.00835024 0.001691 0.0303035 0.00194582 0.0211437 0.00237246 0.0337845 0.00206319 0.0253093 0.00238403 0.0552954
113 1 Mg -2.33774 90.8219 -0.044887 1.2 1 0.00303606 0.00187548 0.000740157 0.00669153 0.00123524 0.00585802 0.000977992 0.0241649 0.00135679 0.00825429 0.000778134 0.0313531 0.00114904 0.0205303 0.00155733 0.0333633 0.0016009 0.0247869 0.00227348 0.0543741
114 1 Mg 2.41836 93.6154 1.49439 1.2 1 0.00101685 0.00118336 0.000977558 0.00663568 0.00110681 0.00575866 0.00138126 0.023842 0.00164092 0.00779337 0.00216749 0.0309312 0.00204366 0.0206096 0.00308359 0.0342382 0.00312402 0.0253124 0.00283775 0.0551056
115 2 Si -0.242418 91.7496 1.48752 2.4 1 0.0024457 0.00141676 0.000832417 0.00713681 0.00146286 0.00643791 0.00143399 0.023918 0.00151562 0.00796164 0.00192123 0.0298076 0.0022707 0.0209794 0.00260296 0.0334942 0.0026033 0.0248344 0.00231202 0.056338
116 3 O 1.32981 91.6579 1.45729 -1.2 1 0.00225662 0.00170939 0.000531727 0.00671951 0.00157863 0.00566477 0.001262 0.0235917 0.0024237 0.00764052 0.00129918 0.0306233 0.00179827 0.0204747 0.00204331 0.0340495 0.00293406 0.0246547 0.00307676 0.0553368
117 3 O -1.33047 95.3944 1.46272 -1.2 1 0.000671228 0.0014964 0.000709642 0.00683406 0.00108908 0.0065575 0.000790252 0.0240249 0.00109654 0.0074923 0.00166619 0.031084 0.00195299 0.0200044 0.00252745 0.0335519 0.00260541 0.0251348 0.00261454 0.0553976
118 3 O -0.931782 92.3639 0.200637 -1.2 1 0.0021105 0.00136973 0.000607657 0.00674246 0.00169472 0.00581431 0.00163342 0.0238947 0.00151052 0.00807922 0.00139651 0.0302744 0.002165 0.0207013 0.00215703 0.0341152 0.00204163 0.0250551 0.00199292 0.0554694