ITEM: TIMESTEP
75200
ITEM: NUMBER OF ATOMS
5600
ITEM: BOX BOUNDS xy xz yz pp pp pp
0	7.1235	0
0	201.985	2.3745
0	119.584	0
ITEM: ATOMS id type element xu yu zu q Q_1 Q_2 Q_3 Q_4 Q_5 Q_6 Q_7 Q_8 Q_9 Q_10 Q_11 Q_12 Q_13 Q_14 Q_15 Q_16 Q_17 Q_18 Q_19 Q_20 Q_21
1 1 Mg -1.71479 48.3472 -1.21377 1.2 1 0.222794 0.0793657 0.0155408 0.0248571 0.00482562 0.010638 0.00172536 0.0171993 0.00504837 0.0219719 0.00483544 0.0222774 0.00687006 0.0218234 0.00782086 0.0238313 0.00793193 0.0179116 0.00813749 0.0268695
2 1 Mg 3.09723 49.9825 2.2124 1.2 1 0.182398 0.0735079 0.00798839 0.0190948 0.00224435 0.00790198 0.00373444 0.015115 0.00473709 0.0208602 0.00377173 0.0208324 0.00506652 0.0197722 0.00598498 0.022493 0.00808242 0.0166125 0.00661788 0.0243386
3 2 Si 1.04156 49.7847 0.308391 2.4 1 0.186729 0.0741722 0.0078309 0.0203669 0.00267067 0.0082421 0.00299548 0.0165776 0.00436385 0.0214459 0.00429359 0.0216543 0.0064627 0.0202499 0.0069778 0.0225539 0.00731729 0.016604 0.00757801 0.0244181
4 3 O 2.45471 49.101 0.58679 -1.2 1 0.202318 0.0786411 0.0109351 0.022687 0.00356584 0.00880053 0.00373687 0.0167551 0.00512186 0.022095 0.00543669 0.0222281 0.0072759 0.0210431 0.00782874 0.0231931 0.00788252 0.0167541 0.0068944 0.0248527
5 3 O -1.30794 52.446 1.78696 -1.2 1 0.122415 0.054525 0.00211921 0.0129669 0.00167678 0.00737693 0.00324573 0.0146982 0.0042234 0.0182239 0.00422154 0.0221096 0.00462597 0.0181732 0.0044003 0.0222366 0.00561967 0.0164665 0.0063016 0.0257725
6 3 O 0.371184 48.788 -0.81022 -1.2 1 0.207279 0.0773644 0.0123267 0.0231072 0.00364198 0.0100421 0.00235454 0.0174624 0.00508629 0.0223031 0.00556688 0.0219677 0.00717812 0.0204362 0.0076372 0.0226793 0.0078145 0.0171148 0.00703981 0.0257194
7 1 Mg -2.64017 58.6406 3.2659 1.2 1 0.0154932 0.0126857 0.00490924 0.00765303 0.00190913 0.00691523 0.00230991 0.0194436 0.00375671 0.0120524 0.00248993 0.0247426 0.00315291 0.019114 0.00367613 0.0270822 0.00510911 0.0225339 0.00642969 0.0344015
8 3 O 0.347142 49.9217 1.6776 -1.2 1 0.179703 0.074664 0.00718145 0.0187148 0.00263239 0.00793771 0.00455969 0.015505 0.00502407 0.021666 0.00487925 0.0215744 0.00574114 0.0207976 0.00670981 0.0230277 0.00750087 0.0169703 0.00636615 0.0245401
9 1 Mg -2.37113 55.7316 4.70893 1.2 1 0.0594933 0.0315407 0.00491859 0.00799078 0.00197389 0.00682301 0.00166819 0.0160399 0.00333276 0.0153173 0.00217769 0.0226261 0.003934 0.0187735 0.00356706 0.0253511 0.00513531 0.0213177 0.00622495 0.0282098
10 2 Si 0.166876 57.5729 4.71626 2.4 1 0.0228928 0.0159159 0.00670835 0.00772225 0.00260583 0.00689739 0.00307156 0.0177496 0.0040945 0.0124405 0.00248312 0.0232441 0.00362991 0.0191767 0.00464237 0.0268781 0.00489731 0.0224329 0.0067468 0.032328
11 3 O -1.37975 57.6391 4.76586 -1.2 1 0.0223859 0.0158079 0.00663471 0.00747159 0.00225918 0.00700121 0.0030671 0.0176244 0.00391047 0.0121358 0.00267548 0.0239926 0.00338421 0.0192464 0.00418982 0.0262776 0.00511198 0.0215262 0.00714846 0.0325184
12 3 O 1.54189 53.1902 4.49373 -1.2 1 0.112412 0.0497345 0.00202654 0.0119223 0.00201135 0.00739419 0.00172944 0.0144613 0.00366729 0.0187355 0.00243796 0.0220322 0.00417314 0.0186035 0.00362932 0.0224478 0.00566958 0.0185227 0.00528762 0.0253062
13 3 O 0.911764 56.9175 3.42364 -1.2 1 0.0334684 0.0223933 0.00707287 0.00690455 0.00221792 0.00658802 0.00247404 0.0176267 0.00329772 0.0130045 0.00260661 0.0233543 0.00428699 0.019205 0.00424172 0.0256697 0.00570138 0.0214 0.00698863 0.0309357
14 3 O 0.911877 56.8235 5.92403 -1.2 1 0.0345206 0.0212168 0.00757282 0.00732937 0.00195406 0.00722078 0.00230265 0.017472 0.00351863 0.0135409 0.00274151 0.0235541 0.0033966 0.0190119 0.00454129 0.0258909 0.00464192 0.0210148 0.00581194 0.0306888
15 1 Mg 0.217054 52.0863 3.31586 1.2 1 0.13026 0.0560634 0.00295793 0.0131003 0.00190356 0.00758676 0.00216128 0.0140985 0.00375853 0.0192167 0.00294497 0.0220596 0.00535363 0.0192171 0.00516357 0.022011 0.00616645 0.0174617 0.00579033 0.0248905
16 1 Mg 1.03295 49.0828 3.23653 1.2 1 0.20442 0.0764005 0.013073 0.0207648 0.00271355 0.00870947 0.00391863 0.0160058 0.00489455 0.0222255 0.00424344 0.0216355 0.00622847 0.0216994 0.00654473 0.022865 0.00877552 0.0174798 0.00667409 0.0250793
17 2 Si 2.29258 51.9522 4.74315 2.4 1 0.147033 0.057361 0.00517183 0.0143691 0.00275469 0.00723594 0.00293403 0.0142172 0.00382067 0.0197018 0.00320808 0.0218847 0.00576128 0.0192322 0.00514291 0.0230338 0.00593121 0.0176133 0.00607821 0.0241355
18 3 O -0.932037 52.1253 4.91477 -1.2 1 0.136902 0.0553687 0.00360054 0.013246 0.00283298 0.00677862 0.00235948 0.014348 0.00334714 0.0198945 0.00222696 0.0223472 0.00566538 0.019978 0.00427066 0.0223894 0.00658137 0.0176753 0.00596491 0.0252314
19 3 O 2.74537 48.3891 3.39251 -1.2 1 0.218968 0.0811543 0.0140643 0.0229027 0.00247225 0.00957467 0.00475201 0.0171334 0.00657497 0.0231774 0.00500068 0.0231984 0.00640941 0.0213982 0.0083083 0.0231276 0.00915629 0.0184009 0.00798412 0.0256304
20 3 O 1.8147 50.9075 3.70161 -1.2 1 0.161292 0.0634209 0.00600309 0.0152005 0.0026006 0.00757522 0.00257914 0.0143935 0.00385928 0.0207863 0.00297455 0.0222942 0.00536402 0.020154 0.00492196 0.0216937 0.00665596 0.017344 0.00558105 0.0243425
21 1 Mg -0.154667 52.9176 0.216768 1.2 1 0.118371 0.0524832 0.00181445 0.0127417 0.00168661 0.00705712 0.00326812 0.0153509 0.0036296 0.0179699 0.00375223 0.0216215 0.00497869 0.0179906 0.00402112 0.0222884 0.00440935 0.0159594 0.00704964 0.0248882
22 3 O 1.69051 51.432 6.19623 -1.2 1 0.153367 0.0572589 0.00572297 0.0143093 0.00301948 0.00743752 0.00271148 0.0141939 0.00403345 0.0195477 0.00295644 0.0221766 0.00580997 0.0202869 0.00494191 0.0231406 0.00651344 0.0181829 0.00609208 0.0247175
23 1 Mg -0.0757473 56.1478 1.64263 1.2 1 0.0466286 0.028698 0.00703234 0.00691886 0.00163433 0.00679673 0.00221475 0.0164341 0.00429572 0.0139481 0.00282332 0.0235509 0.0034753 0.0185296 0.00489633 0.0235502 0.00555283 0.018659 0.00701202 0.029408
24 2 Si -2.15607 53.9623 1.78566 2.4 1 0.0990759 0.0465845 0.00243 0.0106379 0.00158281 0.00680408 0.00248854 0.014938 0.00392503 0.0167446 0.0034497 0.0220531 0.00341236 0.0180436 0.00381875 0.0225146 0.00520983 0.0167572 0.00616714 0.0269514
25 3 O 1.16544 53.4132 1.60168 -1.2 1 0.10461 0.0485647 0.00190669 0.0115865 0.00171117 0.00774535 0.00390269 0.0148614 0.00425232 0.0176945 0.00394989 0.0220254 0.00438524 0.0182427 0.0046205 0.0225031 0.00521497 0.0170607 0.00685806 0.0259936
26 3 O -1.0839 58.2716 1.86242 -1.2 1 0.0173923 0.0140224 0.00601202 0.00767689 0.00155869 0.00690498 0.00180881 0.0194224 0.0034751 0.0116869 0.00275602 0.0246067 0.00314301 0.0184181 0.00426448 0.0255707 0.00557014 0.0213865 0.00733859 0.0346603
27 3 O -1.36177 54.8688 0.452954 -1.2 1 0.0690089 0.0375664 0.00567383 0.00796413 0.00264101 0.00676355 0.00287157 0.0157493 0.00336179 0.0152061 0.00322909 0.0218306 0.00363237 0.0195535 0.00363436 0.0230299 0.00544575 0.0178665 0.00636976 0.0275047
28 3 O -1.59651 54.9115 3.00616 -1.2 1 0.0778944 0.0388083 0.00375496 0.00852006 0.00213155 0.00690043 0.00185473 0.0156598 0.00395692 0.0156973 0.0026804 0.022374 0.00320413 0.0178458 0.0041511 0.023751 0.00525289 0.018766 0.0054332 0.0273178
29 1 Mg -2.62985 58.5761 0.230233 1.2 1 0.0143186 0.0119706 0.00480102 0.00720834 0.00137859 0.00725496 0.00178401 0.0202927 0.00300435 0.0121309 0.00268496 0.024944 0.0029809 0.0187087 0.00439586 0.0260155 0.00488478 0.0222476 0.00641911 0.0345674
30 1 Mg 2.39227 61.4647 1.79552 1.2 1 0.00487305 0.00611274 0.00165806 0.00925175 0.00134265 0.00664561 0.0012276 0.0218842 0.00222353 0.0102451 0.00338493 0.0267713 0.00267357 0.0187896 0.00317379 0.0278635 0.0041136 0.0242885 0.00419706 0.0394254
31 2 Si -0.472692 59.6373 1.67362 2.4 1 0.00901099 0.00830294 0.00232522 0.00886173 0.0017853 0.00700334 0.00145476 0.020476 0.00256544 0.0107154 0.00389276 0.0253295 0.00269486 0.0196449 0.00373868 0.0263531 0.00439783 0.0232812 0.0061392 0.0376823
32 3 O 1.17065 59.5562 1.62776 -1.2 1 0.00971918 0.00870272 0.00261757 0.00861492 0.00169729 0.00672355 0.00148774 0.0196426 0.00332396 0.0101774 0.00301814 0.0250344 0.00310851 0.0185527 0.00418218 0.0266117 0.00483002 0.0227231 0.00619057 0.0371139
33 3 O -1.68478 63.3861 1.62267 -1.2 1 0.00460174 0.0064311 0.000715694 0.00882291 0.00113064 0.00704933 0.00158356 0.0228524 0.00190571 0.0107441 0.0021495 0.0269879 0.00310369 0.0180958 0.00328634 0.0267441 0.00279513 0.024907 0.00311772 0.039483
34 3 O -1.06863 60.2951 0.367119 -1.2 1 0.00778447 0.00708603 0.00149086 0.00859024 0.00156996 0.0067894 0.00121292 0.0209146 0.0024721 0.0104043 0.00264151 0.0257063 0.001837 0.0198526 0.00295539 0.0273707 0.00344535 0.0236779 0.00499028 0.0374175
35 1 Mg -2.38112 68.9689 2.95666 1.2 1 0.00311605 0.0050207 0.000619268 0.00846794 0.00164626 0.00716947 0.00109914 0.0207968 0.00145177 0.00979058 0.00216036 0.0270673 0.00217527 0.0172992 0.00275851 0.0264001 0.00266985 0.0239591 0.00324661 0.0365916
36 3 O -1.20494 60.282 2.9469 -1.2 1 0.0064732 0.00717411 0.00140274 0.00816738 0.00201911 0.00754004 0.00137025 0.0215819 0.00267792 0.010569 0.00326768 0.025338 0.00304188 0.0191229 0.00317439 0.0272274 0.00474603 0.02422 0.00573673 0.0383653
37 1 Mg -2.23854 66.2 4.63605 1.2 1 0.00126946 0.0066245 0.00150912 0.00914758 0.00152981 0.00709196 0.00170058 0.0214371 0.00202135 0.00964384 0.00243338 0.0275046 0.00201898 0.0170731 0.00364204 0.0271619 0.00396145 0.0258918 0.00434939 0.0391094
38 2 Si 0.355835 68.0359 4.57373 2.4 1 0.00153416 0.00556793 0.00126533 0.00986147 0.00200483 0.00656144 0.0011088 0.0204757 0.00170515 0.0091202 0.00291783 0.0261035 0.00326145 0.0175433 0.00377273 0.0262467 0.00400038 0.0243336 0.00456269 0.0386995
39 3 O -1.16002 68.1144 4.5481 -1.2 1 0.00114291 0.00553333 0.00118537 0.00939828 0.00209598 0.00681673 0.00103863 0.0205688 0.00293396 0.00912621 0.00222142 0.0268012 0.00200057 0.017473 0.00372365 0.0267024 0.00453742 0.0250239 0.00490751 0.0389931
40 3 O 1.25112 64.3306 4.58428 -1.2 1 0.00245284 0.00643321 0.00161336 0.00867436 0.00201207 0.0072292 0.00132162 0.0221065 0.00219038 0.00975511 0.00200057 0.0276504 0.00235382 0.0177774 0.0037633 0.0271335 0.0034877 0.0259377 0.00393176 0.0402963
41 3 O 1.12208 67.4542 3.10934 -1.2 1 0.00210556 0.0057061 0.000819788 0.00919665 0.00252209 0.00670754 0.00134505 0.0210596 0.00152789 0.00916345 0.00237548 0.0257469 0.00299267 0.0173358 0.00334231 0.0259482 0.00358155 0.0242294 0.00385933 0.0381396
42 3 O 1.09492 67.1594 5.70835 -1.2 1 0.000352429 0.00579764 0.00120673 0.00908871 0.00193772 0.00710631 0.00104257 0.0214927 0.00196746 0.00910534 0.0026155 0.0267744 0.0030522 0.017359 0.00358493 0.0270755 0.00310066 0.0254567 0.00390055 0.0399546
43 1 Mg -0.25788 64.0854 3.09514 1.2 1 0.0036528 0.00665362 0.00106948 0.00863049 0.00151893 0.00712176 0.00147236 0.022588 0.0015333 0.00981122 0.001662 0.0271118 0.00236153 0.0175015 0.00297477 0.0273799 0.00280711 0.0254646 0.00357097 0.0394006
44 1 Mg -0.151323 60.8995 4.76177 1.2 1 0.00568155 0.00566289 0.00120853 0.00730064 0.0018449 0.00719904 0.00130601 0.0211927 0.00257153 0.0106147 0.00298775 0.0266496 0.00313934 0.0185507 0.00356963 0.0283497 0.00463287 0.024222 0.0051322 0.0382966
45 2 Si 1.8314 62.8536 4.51025 2.4 1 0.00384832 0.00562581 0.0016303 0.00927633 0.0019239 0.00663903 0.00146751 0.0210493 0.00220259 0.00984988 0.00266641 0.0265096 0.00272769 0.0183237 0.00418519 0.0276435 0.0038043 0.0246592 0.0038308 0.0406691
46 3 O -1.43566 62.8944 4.63945 -1.2 1 0.00352435 0.00565648 0.00183442 0.00921723 0.00186904 0.00686509 0.00122487 0.021361 0.0024871 0.00932594 0.0019627 0.0270244 0.00293033 0.0177694 0.00378394 0.0281699 0.00406601 0.0254796 0.00384962 0.0407353
47 3 O 0.876709 59.1223 4.82168 -1.2 1 0.0127723 0.0102637 0.00331818 0.00750626 0.00202291 0.00732018 0.00256522 0.0193928 0.00341088 0.0113834 0.00205991 0.0255762 0.00334754 0.0187929 0.00469496 0.027372 0.00453275 0.0227265 0.00600801 0.0354402
48 3 O 1.07838 62.1947 3.08786 -1.2 1 0.00421713 0.00620031 0.00185549 0.00904912 0.00185483 0.0067881 0.00254041 0.0217944 0.00236023 0.00959894 0.00278624 0.0263118 0.00251734 0.0188228 0.00421206 0.0280542 0.00382137 0.0252284 0.00353301 0.0396057
49 1 Mg -0.244543 64.0316 0.158095 1.2 1 0.00476919 0.00535385 0.000843153 0.00878869 0.00118653 0.00694532 0.00119302 0.0222739 0.00151745 0.01056 0.00198773 0.0266528 0.00242359 0.0180135 0.0029475 0.0264312 0.00322212 0.0243742 0.00321989 0.0382147
50 3 O 1.12314 62.0802 5.8691 -1.2 1 0.00455298 0.00539792 0.00127284 0.00792875 0.00166914 0.00699172 0.00139094 0.0216328 0.00194882 0.0100452 0.00184417 0.0265487 0.00276753 0.0190338 0.00277111 0.0288296 0.00364871 0.0252581 0.00405629 0.0404467
51 1 Mg 0.069781 66.9964 1.44976 1.2 1 0.00277845 0.00568116 0.00134184 0.00799528 0.00141084 0.00696546 0.00162659 0.0215939 0.00173613 0.0103715 0.00248045 0.0266258 0.00248276 0.0181171 0.00332884 0.0255499 0.00345705 0.0241467 0.00341068 0.0375044
52 2 Si -2.17679 64.9397 1.63768 2.4 1 0.00413406 0.00584296 0.000733421 0.0089472 0.00134087 0.00645336 0.00231195 0.0219783 0.00167393 0.00996204 0.00223127 0.0258773 0.00240357 0.0181093 0.00373731 0.025782 0.00293894 0.0243737 0.00376404 0.03881
53 3 O 0.949439 65.0843 1.57096 -1.2 1 0.0040147 0.00579145 0.00105828 0.00898597 0.00145032 0.00607867 0.00207509 0.0212122 0.00203469 0.00985895 0.00189367 0.0265865 0.00226207 0.0178637 0.00296945 0.0259986 0.00348578 0.0241235 0.00320303 0.0385583
54 3 O -0.839574 68.7108 1.40676 -1.2 1 0.00343195 0.00482019 0.00129691 0.0080598 0.00127119 0.00738245 0.00160976 0.0217618 0.00155906 0.0106838 0.00242094 0.0262073 0.00209767 0.0183239 0.00363817 0.0247212 0.00304592 0.0238108 0.00282493 0.0370357
55 3 O -1.42049 65.5736 0.354666 -1.2 1 0.00395197 0.00533345 0.00101565 0.00844795 0.00162152 0.00668295 0.00207199 0.0220151 0.0020157 0.0107894 0.00227062 0.0259921 0.00243977 0.0189046 0.00366658 0.0255311 0.00300038 0.0234477 0.00313251 0.0376638
56 3 O -1.39366 65.5158 2.97928 -1.2 1 0.00263891 0.00651484 0.000730888 0.00885691 0.00156778 0.00645652 0.00287978 0.0216586 0.00190262 0.00966013 0.00219025 0.0259071 0.00268171 0.0179459 0.00350919 0.0263753 0.00334913 0.024826 0.00408465 0.0385532
57 1 Mg -2.62343 69.2902 0.170427 1.2 1 0.00294649 0.00478857 0.00115472 0.00809563 0.000822858 0.00683788 0.00153079 0.0211381 0.00139267 0.0110321 0.0017362 0.0268009 0.00155136 0.0178631 0.00253644 0.0257931 0.0033105 0.0229926 0.00267418 0.0357769
58 1 Mg 2.44885 72.0282 1.7852 1.2 1 0.0042867 0.003946 0.0011822 0.00718375 0.00128902 0.00650966 0.00191336 0.0216458 0.00212394 0.0108587 0.00201018 0.0257897 0.00266992 0.0185907 0.00376711 0.0274507 0.00350622 0.0232121 0.00526683 0.0368004
59 2 Si -0.228642 70.2169 1.56031 2.4 1 0.0035178 0.00435332 0.00120072 0.00858349 0.00142716 0.00662354 0.00214915 0.0208707 0.00149463 0.0103463 0.00193541 0.0252054 0.0020644 0.0188838 0.00281913 0.0259194 0.00348631 0.0230547 0.00275091 0.0374259
60 3 O 1.38373 70.2459 1.73585 -1.2 1 0.00371783 0.00430973 0.00101459 0.00849083 0.00109793 0.00671204 0.00195317 0.02031 0.00207605 0.0100349 0.0021733 0.0259986 0.00272638 0.0179947 0.00283364 0.0261501 0.00305844 0.0226193 0.0038442 0.0363418
61 3 O -1.59288 73.8627 1.49995 -1.2 1 0.00429817 0.00432763 0.000910701 0.00672795 0.00166429 0.00645233 0.00195371 0.0214665 0.00196259 0.0117968 0.00219105 0.0264005 0.00340857 0.0187721 0.00434337 0.0282711 0.00334215 0.022979 0.00546776 0.0366322
62 3 O -0.873375 70.9483 0.381989 -1.2 1 0.00244339 0.00428854 0.00106013 0.0078305 0.0010826 0.00659504 0.00159897 0.0208902 0.00174506 0.0107109 0.00168382 0.0256737 0.0019787 0.019512 0.00298427 0.0270415 0.00316266 0.0228786 0.00312179 0.0366671
63 1 Mg -2.38027 80.2086 3.24067 1.2 1 0.00433436 0.00461709 0.000794234 0.00691997 0.00134031 0.00535277 0.00227395 0.0214175 0.00176431 0.0112511 0.00174053 0.0247904 0.0033351 0.0187772 0.00386668 0.0302539 0.00313975 0.0248277 0.00435352 0.037076
64 3 O -0.999997 70.652 2.816 -1.2 1 0.00448249 0.00461164 0.000922081 0.0080043 0.00132669 0.0067466 0.002975 0.0212398 0.00200459 0.0100748 0.00314808 0.0255154 0.00239445 0.0186218 0.00412168 0.0266073 0.00359361 0.023099 0.00397525 0.0369819
65 1 Mg -2.41314 77.0711 4.21123 1.2 1 0.00566538 0.00483845 0.00105364 0.00684139 0.0014088 0.0058559 0.00142697 0.020653 0.00281351 0.0110768 0.00251751 0.0252673 0.00339719 0.0194183 0.0038356 0.0296603 0.00454158 0.0244211 0.00474694 0.0361325
66 2 Si 0.283271 78.8232 4.30104 2.4 1 0.0054799 0.00461333 0.00122394 0.00727322 0.00207833 0.00512806 0.00203243 0.0207244 0.00174222 0.0102875 0.00284637 0.0234523 0.00368891 0.0191439 0.00364989 0.0291821 0.00404364 0.0245685 0.00467386 0.0365794
67 3 O -1.25199 78.8839 4.25163 -1.2 1 0.00557599 0.00495035 0.00117407 0.0070241 0.00159152 0.0053287 0.00133285 0.0206973 0.00255183 0.0109614 0.0020461 0.0245752 0.00324989 0.0186163 0.00364702 0.0295916 0.00345503 0.0245123 0.0049179 0.0361946
68 3 O 1.22539 74.9429 4.2609 -1.2 1 0.00562959 0.00437755 0.00109125 0.0069498 0.00161158 0.00659919 0.0016621 0.0218233 0.00199164 0.0110157 0.00207669 0.0255427 0.00320729 0.0188224 0.0037136 0.0287115 0.00342705 0.0246355 0.00525338 0.0360039
69 3 O 0.974893 77.9702 3.09887 -1.2 1 0.00478789 0.00524522 0.00120009 0.00657916 0.00166143 0.00569065 0.0012303 0.0215117 0.00215166 0.0110661 0.00215278 0.0244101 0.00319475 0.0194719 0.00339548 0.0302473 0.00373624 0.0245855 0.00477719 0.0368413
70 3 O 0.992578 78.1746 5.74961 -1.2 1 0.00572862 0.00458046 0.00105562 0.0069123 0.001944 0.00587586 0.00269018 0.0211011 0.0020159 0.0103605 0.00279872 0.0240062 0.00329065 0.0193894 0.00360182 0.0288921 0.00463981 0.0254071 0.00405218 0.035177
71 1 Mg -0.21987 74.2473 3.05205 1.2 1 0.00546981 0.00412945 0.0010541 0.00674772 0.00133379 0.00666759 0.0019116 0.0211683 0.0011677 0.0109855 0.00210939 0.026309 0.00290465 0.0184319 0.00321486 0.0285968 0.00306725 0.023815 0.00503371 0.0363699
72 1 Mg -0.247561 71.2462 4.54679 1.2 1 0.00459713 0.00481828 0.000827117 0.00791425 0.00121397 0.00733015 0.00167869 0.0215219 0.00206039 0.0102825 0.00250276 0.0268404 0.00243112 0.0186513 0.00321443 0.0272942 0.00417933 0.0238359 0.00505582 0.0365619
73 2 Si 1.91096 73.4878 4.61931 2.4 1 0.00547592 0.00367358 0.000954007 0.00798181 0.00190871 0.0070134 0.00192787 0.020628 0.00228782 0.0102121 0.00238972 0.0251782 0.00323536 0.0195661 0.00425331 0.0280096 0.00383715 0.0236618 0.00639001 0.0365287
74 3 O -1.30288 73.4678 4.49718 -1.2 1 0.00538838 0.00396394 0.00109362 0.00772961 0.00169739 0.00678528 0.00168677 0.020966 0.00240321 0.0103262 0.00217065 0.025647 0.00300138 0.0188316 0.00333913 0.0283763 0.00413365 0.0237664 0.00640305 0.0364224
75 3 O 1.16263 69.5605 4.42209 -1.2 1 0.00225695 0.0052887 0.0010102 0.0087427 0.0015657 0.00717291 0.00114772 0.0215907 0.00164327 0.00956866 0.00243121 0.0267878 0.00291745 0.0175853 0.00312851 0.0264096 0.00390676 0.024307 0.00463397 0.0377835
76 3 O 1.23513 72.6271 3.54618 -1.2 1 0.00567952 0.00428963 0.000901597 0.007179 0.00196452 0.00693001 0.00176121 0.0213698 0.00187027 0.0100899 0.00215432 0.0257461 0.00346451 0.0192366 0.00373561 0.0283792 0.00355923 0.0239449 0.00646117 0.0364797
77 1 Mg -0.202999 74.3667 0.0536517 1.2 1 0.00196797 0.0045021 0.0011891 0.00655464 0.00155787 0.0066678 0.00150588 0.0211067 0.0016748 0.0124774 0.00181487 0.0263547 0.00273786 0.0190688 0.00350654 0.0293435 0.00415781 0.0229932 0.00495294 0.0367917
78 3 O 1.29153 72.9439 6.03243 -1.2 1 0.00442794 0.00409366 0.00119573 0.00781992 0.00206441 0.00739805 0.00258773 0.0215419 0.0020682 0.0103117 0.00239636 0.0253512 0.00282495 0.0194347 0.00364843 0.0282245 0.00337546 0.0247256 0.00595829 0.0365027
79 1 Mg -0.0204784 77.3264 1.47094 1.2 1 0.00284799 0.00537527 0.00113312 0.00646913 0.00133485 0.00562747 0.00172885 0.0210679 0.0019604 0.0120664 0.00273139 0.0252649 0.00280278 0.0198208 0.00348974 0.0305883 0.00307995 0.0246194 0.00435862 0.0381042
80 2 Si -2.18657 75.4045 1.46581 2.4 1 0.00337162 0.00463989 0.00123268 0.00679866 0.00191665 0.00581997 0.00233868 0.021211 0.00163748 0.0111129 0.00186165 0.0248214 0.00243425 0.0196031 0.00348961 0.0298005 0.00351865 0.0241331 0.00425493 0.03856
81 3 O 1.03605 75.3524 1.56592 -1.2 1 0.00384575 0.00478872 0.00125015 0.00668876 0.00183256 0.00580336 0.00196847 0.0203083 0.00243896 0.0115747 0.00187393 0.0255161 0.00268108 0.019028 0.0037847 0.0295717 0.00381438 0.0232511 0.00468878 0.0373274
82 3 O -1.00644 79.2746 1.3848 -1.2 1 0.00286358 0.00511434 0.00057593 0.00696818 0.00143594 0.00552334 0.00197621 0.0218106 0.00136672 0.0117986 0.00162091 0.0254006 0.00348313 0.0192658 0.00421268 0.0302962 0.00363888 0.024782 0.00417299 0.0388968
83 3 O -1.44918 75.9404 0.13877 -1.2 1 0.00156471 0.00465578 0.000952002 0.0065027 0.00161792 0.00585142 0.00216133 0.0209603 0.00146294 0.0117792 0.00172771 0.0250711 0.00231094 0.0198159 0.00317693 0.0305329 0.00348595 0.0235439 0.00463112 0.0381421
84 3 O -1.37735 76.2283 2.61644 -1.2 1 0.00474864 0.0047384 0.00131284 0.00610247 0.00177579 0.00577 0.00260806 0.0208793 0.00198449 0.0108851 0.00215679 0.025313 0.00282877 0.0199646 0.00378771 0.0303889 0.00368424 0.0242187 0.0038978 0.036651
85 1 Mg -2.42241 79.5191 0.194266 1.2 1 0.00285686 0.00527344 0.000412673 0.00698066 0.00113829 0.00532069 0.00130871 0.0212644 0.00138121 0.0122197 0.00165086 0.0258076 0.00317792 0.0190911 0.00253285 0.0303188 0.00317834 0.0243928 0.00374331 0.0391735
86 1 Mg 2.41073 82.5162 1.78234 1.2 1 0.00375849 0.00493367 0.00100094 0.00730644 0.00127813 0.00529141 0.00212582 0.0211755 0.00214191 0.01157 0.00209091 0.0260041 0.00295361 0.0192301 0.00422738 0.0300221 0.00292182 0.0242712 0.00317488 0.0394175
87 2 Si -0.307556 80.7468 1.29524 2.4 1 0.00345512 0.00500832 0.000691259 0.00758915 0.0016811 0.0049762 0.00242335 0.0209219 0.00180466 0.0114146 0.00187613 0.0248306 0.00384137 0.0194926 0.00454241 0.0302877 0.00434796 0.0242711 0.00390434 0.0401087
88 3 O 1.24227 80.5586 1.55376 -1.2 1 0.00292012 0.00423035 0.000961881 0.0075004 0.00180342 0.00516047 0.0023431 0.0206823 0.00207904 0.0114523 0.0020436 0.0257842 0.00315823 0.0188318 0.00331585 0.0302315 0.00300633 0.024134 0.00391836 0.0393899
89 3 O -1.4255 84.5327 1.43288 -1.2 1 0.00388124 0.0049952 0.00117908 0.00790891 0.00108983 0.00612301 0.00145693 0.0214846 0.00173495 0.0121648 0.00215133 0.0267025 0.00285882 0.0188912 0.00314705 0.0282659 0.00371127 0.0243125 0.00316462 0.0389669
90 3 O -0.921833 81.4524 0.0853319 -1.2 1 0.00355972 0.00493494 0.000882236 0.00697929 0.00184283 0.00544387 0.00224134 0.0216346 0.00199309 0.0117018 0.0015064 0.0255843 0.00357252 0.0194231 0.00496299 0.0305237 0.00387766 0.0247284 0.0039091 0.0398511
91 1 Mg -2.37409 89.9346 3.03787 1.2 1 0.00268439 0.00440209 0.00113968 0.007672 0.00183004 0.00673786 0.0016261 0.0215416 0.00145922 0.012679 0.00171663 0.0278338 0.00283036 0.0202996 0.00308948 0.0289576 0.00406733 0.0239307 0.00354557 0.0392412
92 3 O -0.915079 81.4248 2.73046 -1.2 1 0.00346308 0.0047704 0.000781401 0.00685445 0.00168349 0.00555135 0.00241142 0.0218123 0.00162084 0.0112471 0.00162061 0.0245287 0.00314585 0.0193269 0.00364361 0.030081 0.00331731 0.0248231 0.00424526 0.0381048
93 1 Mg -2.39748 87.0288 4.53481 1.2 1 0.00372157 0.00522364 0.000877347 0.00751329 0.00122302 0.0063231 0.00194744 0.0213939 0.00200207 0.0121889 0.00281166 0.026342 0.00229837 0.0206168 0.00417137 0.027624 0.00496109 0.0246569 0.00406612 0.0376466
94 2 Si 0.241059 89.2221 4.54422 2.4 1 0.00340229 0.00455319 0.00114639 0.00829207 0.00276354 0.00650587 0.00176126 0.0207447 0.00184826 0.0119668 0.00240183 0.0259977 0.00340535 0.0206136 0.00399988 0.0272672 0.00485215 0.0235797 0.00385268 0.0385689
95 3 O -1.28586 89.1624 4.71761 -1.2 1 0.00373163 0.00463441 0.00118943 0.00784886 0.0020587 0.00623462 0.00163574 0.0205718 0.00234513 0.0115811 0.00209745 0.025928 0.00258208 0.0205803 0.00343204 0.0276809 0.00432091 0.0238176 0.00416109 0.0381254
96 3 O 1.27902 85.3182 4.37032 -1.2 1 0.00501809 0.00503736 0.00116301 0.00757751 0.00123165 0.00670229 0.00124381 0.0215645 0.0020326 0.0115412 0.00205804 0.0262312 0.00313786 0.01936 0.00373385 0.0270518 0.0045144 0.0246132 0.00395884 0.0374494
97 3 O 0.975132 88.4229 3.45507 -1.2 1 0.00352122 0.00475462 0.00145025 0.00744711 0.00187113 0.00653268 0.00157275 0.0215345 0.00207383 0.0119901 0.00177636 0.0264438 0.00281584 0.0208107 0.00338992 0.0286865 0.00415485 0.0242941 0.00440966 0.0383912
98 3 O 0.838918 88.7087 6.05357 -1.2 1 0.00349239 0.00456048 0.000639712 0.00753114 0.00229738 0.00653214 0.00184332 0.0213134 0.0012125 0.0115815 0.00188602 0.0258693 0.00335089 0.0202741 0.00390707 0.0273218 0.00443116 0.0241283 0.00363725 0.0377417
99 1 Mg -0.174509 84.715 2.98443 1.2 1 0.00412374 0.00465602 0.000796129 0.0077013 0.00114473 0.00648108 0.00109008 0.0211625 0.00162853 0.0114651 0.00146007 0.0265825 0.00264921 0.0190029 0.00267637 0.0280493 0.00344928 0.0240773 0.00273666 0.0380433
100 1 Mg -0.0393878 82.0144 4.6829 1.2 1 0.00448685 0.00485586 0.000949092 0.00727448 0.000958586 0.00599241 0.00102189 0.0209527 0.00190751 0.0113859 0.00195594 0.0251202 0.00317314 0.0191091 0.00396116 0.0292553 0.00442241 0.024716 0.00433564 0.0359114
101 2 Si 2.01224 83.717 4.64367 2.4 1 0.0045703 0.00444084 0.000899037 0.00808821 0.00176704 0.00611112 0.00153721 0.0202569 0.00202117 0.0106503 0.00158461 0.0247102 0.00307765 0.0196019 0.00401393 0.0284822 0.00435763 0.0243637 0.004305 0.0373833
102 3 O -1.23621 83.8822 4.49609 -1.2 1 0.00430256 0.00452295 0.000833241 0.00798331 0.00100247 0.00604176 0.00155901 0.0204676 0.00207452 0.0108255 0.00146882 0.0250544 0.0029345 0.0193547 0.00389963 0.0282193 0.0045407 0.0243525 0.00394462 0.0374478
103 3 O 0.908096 80.261 4.48612 -1.2 1 0.00484179 0.00472628 0.00128084 0.00730546 0.00137991 0.00612265 0.00169379 0.0216322 0.00166217 0.011391 0.00244861 0.0252026 0.00391176 0.0188337 0.00457317 0.0288428 0.00391538 0.0248177 0.00460171 0.0365589
104 3 O 1.45301 82.8864 3.42325 -1.2 1 0.00426847 0.00473328 0.000970975 0.0074505 0.000993741 0.00585303 0.00126208 0.0208533 0.00181158 0.0107048 0.00164868 0.0253672 0.00347134 0.0195261 0.00394398 0.0297266 0.00385033 0.0247146 0.00400345 0.0380142
105 1 Mg 0.124839 85.0369 0.0958038 1.2 1 0.00434367 0.00501061 0.000830558 0.00741554 0.00137988 0.00608004 0.00149979 0.0215958 0.00144605 0.0122789 0.00171072 0.0270517 0.00278756 0.019042 0.00359945 0.029474 0.00372358 0.0247003 0.00295401 0.03883
106 3 O 1.18088 83.2396 5.99418 -1.2 1 0.00371576 0.00496014 0.000739029 0.00706084 0.00137316 0.00616557 0.0012705 0.0211776 0.0016906 0.0109832 0.00189861 0.024335 0.0028921 0.0196025 0.00320924 0.0272513 0.00444336 0.0248689 0.00423944 0.0361551
107 1 Mg -0.0580969 87.9047 1.57712 1.2 1 0.00305103 0.00443634 0.00134032 0.00763489 0.00127709 0.00689894 0.00156704 0.0218961 0.00167071 0.0119357 0.00181223 0.0274036 0.00312942 0.0201657 0.00359872 0.0292803 0.00388356 0.0241878 0.00294007 0.0391123
108 2 Si -2.12313 85.9824 1.53643 2.4 1 0.00421431 0.00448707 0.00134162 0.00851325 0.00139563 0.00648318 0.0021732 0.0208139 0.00191587 0.0114818 0.00242189 0.0257168 0.00234458 0.0201893 0.0047778 0.0281245 0.00409585 0.0239888 0.00402012 0.039013
109 3 O 1.07513 85.7577 1.70527 -1.2 1 0.00366907 0.00429634 0.0010642 0.00810808 0.00092309 0.00606535 0.00158715 0.0205473 0.00212426 0.01153 0.00179928 0.0264116 0.0029498 0.0193572 0.002605 0.0286742 0.00384608 0.0237657 0.00274801 0.0388489
110 3 O -0.960008 89.6313 1.71599 -1.2 1 0.00227604 0.0043553 0.00145278 0.00794925 0.00161083 0.00688611 0.00201569 0.0221434 0.00200049 0.0125151 0.00275625 0.0275511 0.00388271 0.0203998 0.00411174 0.0287119 0.00416712 0.0238929 0.00323966 0.0399756
111 3 O -1.37665 86.7331 0.35547 -1.2 1 0.00429425 0.00468851 0.00145536 0.00772333 0.00120267 0.00624859 0.00220607 0.021339 0.00213407 0.0117457 0.00204919 0.0264771 0.00282804 0.0202813 0.00408355 0.0291883 0.00316234 0.0241771 0.00295299 0.0396789
112 3 O -1.4367 86.598 2.74052 -1.2 1 0.00355472 0.00487424 0.00149261 0.00756309 0.00118419 0.00629928 0.00245594 0.0210262 0.00184502 0.0114174 0.00233271 0.0256556 0.00249908 0.0207595 0.00386578 0.0284153 0.00335912 0.0238315 0.00313963 0.0379623
113 1 Mg -2.37667 90.4417 0.0877987 1.2 1 0.00230305 0.00460979 0.00101916 0.00810259 0.00154544 0.00713208 0.00144797 0.0223421 0.00155759 0.0120452 0.0012734 0.028083 0.00306577 0.0193553 0.00358888 0.0295343 0.00373315 0.0244723 0.00357765 0.0402381
114 1 Mg 2.43581 93.0258 1.52111 1.2 1 0.00256033 0.00476464 0.00102817 0.00855321 0.00183941 0.00668268 0.0013447 0.0216628 0.00167133 0.0124261 0.00167591 0.0274148 0.00292075 0.0204174 0.00358012 0.0298931 0.00365109 0.0241557 0.00309365 0.0405729
115 2 Si -0.305238 91.145 1.76588 2.4 1 0.00231181 0.00462073 0.00115848 0.00871776 0.00208956 0.00648233 0.00239568 0.0213674 0.00192685 0.011903 0.00242149 0.0273609 0.00333316 0.0200728 0.00509613 0.0289377 0.00526274 0.02393 0.00415168 0.0410985
116 3 O 1.25846 90.961 1.69467 -1.2 1 0.00211445 0.00413313 0.00108493 0.00843599 0.00168115 0.00644938 0.00132672 0.0212646 0.00255332 0.012093 0.00170184 0.0276371 0.00305672 0.0198201 0.00335891 0.0291555 0.00440224 0.0238166 0.00328422 0.0401344
117 3 O -1.34059 95.1164 1.71863 -1.2 1 0.00120157 0.00440496 0.00143834 0.00909843 0.0013736 0.00673288 0.00131505 0.0216518 0.00154403 0.0124856 0.00143494 0.0266653 0.00228992 0.0199176 0.00288442 0.0294185 0.00396137 0.0230591 0.00309282 0.0393524
118 3 O -0.996637 91.8169 0.515093 -1.2 1 0.00208252 0.00486358 0.00114976 0.00856387 0.00190507 0.00634646 0.00228574 0.0215762 0.00201177 0.0115543 0.00149403 0.0275374 0.00266211 0.0201724 0.00339279 0.0296528 0.00403039 0.0241784 0.00303194 0.0408447
119 1 Mg -2.27743 101.274 3.34019 1.2 1 0.0047591 0.00429959 0.0013364 0.00855116 0.00123342 0.00547937 0.000983945 0.020767 0.00166564 0.0114751 0.00195796 0.0256095 0.0028619 0.0198013 0.00343066 0.0291133 0.00371711 0.0224922 0.00360217 0.037262