ITEM: TIMESTEP
55400
ITEM: NUMBER OF ATOMS
5600
ITEM: BOX BOUNDS xy xz yz pp pp pp
0	7.1235	0
0	201.985	2.3745
0	119.584	0
ITEM: ATOMS id type element xu yu zu q Q_1 Q_2 Q_3 Q_4 Q_5 Q_6 Q_7 Q_8 Q_9 Q_10 Q_11 Q_12 Q_13 Q_14 Q_15 Q_16 Q_17 Q_18 Q_19 Q_20 Q_21
1 1 Mg -1.32877 48.3198 -0.962293 1.2 1 0.236158 0.0779176 0.0185106 0.0257358 0.00428903 0.014645 0.00353267 0.0179125 0.00466972 0.0244377 0.00556367 0.0237061 0.00800537 0.0215214 0.007284 0.0226686 0.00765992 0.0198166 0.0103088 0.0275338
2 1 Mg 2.97779 51.0355 2.10046 1.2 1 0.175164 0.0613584 0.00950415 0.0179435 0.0021266 0.0100326 0.00259151 0.0184515 0.00420696 0.0208163 0.00369432 0.0254676 0.00555022 0.0211456 0.00713031 0.0239787 0.00512742 0.0210577 0.00858608 0.0304263
3 2 Si 1.05904 49.7847 0.321018 2.4 1 0.207337 0.0696385 0.0142519 0.0212853 0.00330619 0.0122771 0.00293673 0.0170442 0.00459544 0.0225207 0.00475012 0.023848 0.00639472 0.0221929 0.00732332 0.0226881 0.00595433 0.0181904 0.0102979 0.0279477
4 3 O 2.13356 48.5679 0.511294 -1.2 1 0.235417 0.0764576 0.0200918 0.0259168 0.00412305 0.013841 0.00273616 0.0175845 0.00588614 0.0257016 0.00504411 0.0246943 0.00835972 0.0233111 0.00924049 0.0237845 0.00782835 0.0211575 0.00992805 0.0284234
5 3 O -1.20332 53.0269 1.69112 -1.2 1 0.128516 0.0480008 0.00395292 0.0123708 0.00185132 0.00867442 0.00169679 0.0178157 0.0027637 0.0169143 0.00266577 0.0250951 0.0043992 0.0188766 0.00370156 0.0240357 0.00493309 0.0194358 0.00688758 0.0316038
6 3 O 0.23204 49.3963 -0.897862 -1.2 1 0.207815 0.0709234 0.0130912 0.0211016 0.0034383 0.0117246 0.00375163 0.0172229 0.00388159 0.0218957 0.00458234 0.0231887 0.00707458 0.0226787 0.00646385 0.0226928 0.00625576 0.0186924 0.00955449 0.0269223
7 1 Mg -2.32135 58.773 3.10373 1.2 1 0.016395 0.0133137 0.00523369 0.00593549 0.00129638 0.00598265 0.00166415 0.0217965 0.00239484 0.010678 0.00238765 0.0278974 0.00209557 0.0195042 0.00368179 0.0287673 0.00381267 0.0250389 0.00443622 0.0404914
8 3 O -0.0202637 50.1701 1.47774 -1.2 1 0.193484 0.0675658 0.010348 0.0195293 0.00241091 0.00992684 0.00300721 0.0173024 0.00421992 0.0214364 0.00412328 0.0239284 0.00536864 0.0220351 0.005557 0.0231358 0.00582296 0.019016 0.00854565 0.0286275
9 1 Mg -2.35258 55.6906 4.90143 1.2 1 0.0677833 0.0329945 0.00558956 0.00767213 0.00237043 0.00649611 0.00233319 0.0193739 0.00299273 0.0139895 0.00386898 0.02688 0.00262962 0.0182938 0.00446989 0.0263076 0.00452936 0.0237695 0.00658065 0.0368081
10 2 Si 0.48507 57.6131 4.55268 2.4 1 0.0306112 0.0192716 0.00704659 0.00635036 0.000934466 0.00599504 0.00238506 0.020553 0.00230405 0.011053 0.00407004 0.0269909 0.00368005 0.019072 0.00552145 0.0276784 0.00389898 0.0243996 0.0057209 0.0393028
11 3 O -1.06951 57.6471 4.43528 -1.2 1 0.02498 0.0172643 0.00738418 0.00592278 0.00113165 0.00566851 0.00257613 0.019442 0.00281751 0.0103243 0.00297837 0.0269271 0.00221715 0.0189266 0.00412969 0.0283209 0.0049723 0.0236098 0.00491164 0.0394971
12 3 O 1.3224 54.1043 4.82059 -1.2 1 0.100453 0.0436903 0.00333833 0.0110416 0.00270766 0.00743277 0.00247484 0.0192094 0.00344794 0.0159024 0.00328941 0.0266945 0.00326759 0.0185192 0.00456973 0.0244749 0.00406841 0.0222544 0.00632207 0.0360715
13 3 O 1.19461 57.1606 3.22561 -1.2 1 0.0355472 0.0222626 0.00701479 0.00596932 0.0014487 0.00597176 0.00212813 0.0206547 0.00272373 0.011794 0.00304287 0.025947 0.00250515 0.0190498 0.00530768 0.0268246 0.00362623 0.0235241 0.00559736 0.0370922
14 3 O 1.04703 57.0849 5.87364 -1.2 1 0.0403667 0.0231905 0.00753604 0.00640974 0.00130438 0.00595853 0.00197744 0.020309 0.00248604 0.0116701 0.00280467 0.0271992 0.00363894 0.0188916 0.00448561 0.0280675 0.00389121 0.0244959 0.00519888 0.0388226
15 1 Mg 0.0490359 53.9014 3.40026 1.2 1 0.109736 0.0448664 0.00107568 0.0109738 0.0020101 0.00818565 0.00221911 0.0181661 0.00302029 0.0170085 0.00295501 0.0267211 0.00324545 0.018406 0.00350012 0.0234751 0.00398306 0.0209041 0.00647921 0.0331214
16 1 Mg 0.67788 49.8824 3.18754 1.2 1 0.20476 0.0690089 0.0126027 0.0216433 0.00182424 0.0117987 0.00307571 0.0185083 0.00425259 0.0218416 0.00431615 0.0254994 0.00555939 0.0216721 0.00678401 0.0234366 0.00558604 0.0208153 0.00985103 0.0314217
17 2 Si 2.00345 52.5594 4.5875 2.4 1 0.141691 0.0543703 0.00233129 0.0148982 0.00223044 0.00829652 0.00194244 0.0177721 0.00371825 0.0178703 0.00374674 0.026631 0.00459903 0.019529 0.00545175 0.0238534 0.00429972 0.0210906 0.00750696 0.0339093
18 3 O -1.23868 52.9214 4.76229 -1.2 1 0.128389 0.0508532 0.00139891 0.0128797 0.00248616 0.00793617 0.00204798 0.0184251 0.00402729 0.0170953 0.00340177 0.0269672 0.00401412 0.0189034 0.00533615 0.0239979 0.00409498 0.0217459 0.00737175 0.0345121
19 3 O 2.66577 49.4811 3.40108 -1.2 1 0.210302 0.0707756 0.0126784 0.0214969 0.00262049 0.01163 0.00333277 0.018616 0.00488526 0.0228208 0.00421319 0.026219 0.00657559 0.023066 0.00715629 0.023981 0.00626926 0.0213989 0.00927127 0.0312675
20 3 O 1.34863 51.9031 3.27559 -1.2 1 0.152671 0.0560739 0.00461919 0.0155644 0.00179199 0.00884306 0.00244285 0.0184176 0.00362211 0.0187881 0.00309725 0.0263288 0.00445009 0.0199665 0.00553727 0.0240145 0.00437757 0.020338 0.0074665 0.0323311
21 1 Mg -0.0296812 53.2754 0.174361 1.2 1 0.124704 0.0481634 0.00305308 0.0126106 0.00173579 0.00842236 0.00258912 0.0170408 0.00291337 0.0170638 0.00279133 0.0240174 0.00426591 0.018586 0.00460459 0.023477 0.00403789 0.0188508 0.00666169 0.02932
22 3 O 1.40574 51.6049 5.76414 -1.2 1 0.15906 0.0590341 0.00419176 0.0159811 0.00237102 0.00914952 0.00271549 0.0183848 0.00415262 0.0191868 0.00428405 0.0270447 0.00566315 0.0202234 0.00600132 0.0232225 0.0042466 0.0212003 0.00829772 0.0343475
23 1 Mg 0.178351 56.2423 1.5365 1.2 1 0.0530776 0.0285136 0.00584956 0.00709067 0.00156055 0.00675524 0.00117341 0.0187074 0.0038153 0.0123683 0.00317007 0.0253367 0.00205626 0.0184597 0.00405144 0.0254957 0.00476946 0.0212497 0.00616316 0.0346937
24 2 Si -1.89849 54.4715 1.64941 2.4 1 0.0993111 0.0413674 0.00167234 0.00964476 0.00162709 0.00696655 0.00199563 0.0178438 0.00343526 0.0154567 0.00269322 0.0244987 0.0029794 0.0190594 0.0038562 0.0236891 0.00568048 0.0186516 0.00630684 0.0325232
25 3 O 1.34152 54.3969 1.69956 -1.2 1 0.100742 0.0414266 0.00189592 0.0101546 0.0014698 0.0075939 0.00214062 0.0177023 0.00337201 0.0154328 0.00303856 0.0250303 0.00356867 0.0179759 0.00408362 0.0245318 0.00466618 0.0202056 0.00642677 0.0320352
26 3 O -0.944236 58.3277 1.54742 -1.2 1 0.018797 0.0148005 0.00607184 0.00540982 0.00112114 0.0058438 0.00154782 0.0209163 0.00291199 0.0102204 0.00296726 0.0270386 0.00246077 0.0193435 0.00401114 0.0279039 0.00533594 0.0237976 0.00554353 0.0383906
27 3 O -1.24655 55.29 0.388928 -1.2 1 0.075604 0.0350517 0.00390799 0.00729474 0.00187133 0.00661842 0.00166895 0.0183748 0.00351202 0.0136512 0.00331229 0.0230252 0.00265311 0.0184421 0.00316818 0.0251717 0.00597022 0.0204049 0.00644879 0.032242
28 3 O -1.35103 55.2648 2.9432 -1.2 1 0.0799221 0.0353587 0.00348158 0.00797544 0.00205164 0.00686446 0.00124951 0.018736 0.00323747 0.0143931 0.00269099 0.0253051 0.00256961 0.0187189 0.00363119 0.0254185 0.00434204 0.0216486 0.00573395 0.0347376
29 1 Mg -2.34245 58.6928 0.239373 1.2 1 0.0155099 0.0136656 0.00485018 0.00559137 0.00151151 0.00620462 0.00111932 0.0209147 0.00266881 0.0109861 0.00261586 0.0266026 0.0024272 0.0198155 0.00351713 0.0277953 0.00437044 0.0234022 0.00455289 0.0376732
30 1 Mg 2.39453 61.6296 1.83062 1.2 1 0.00438876 0.00588316 0.00189183 0.00767745 0.001333 0.00631238 0.00102484 0.0229355 0.00238626 0.0096952 0.00203841 0.0282041 0.002248 0.0202044 0.00309486 0.0299408 0.00319107 0.0263659 0.00309684 0.0428508
31 2 Si -0.241669 59.8162 1.59109 2.4 1 0.00757085 0.0082759 0.00329971 0.00705944 0.00162038 0.00640466 0.00120876 0.0215719 0.00220174 0.0098028 0.00229104 0.0272443 0.0019078 0.0204339 0.00352896 0.0288743 0.0040125 0.0246792 0.00411777 0.042076
32 3 O 1.38701 59.6109 1.73606 -1.2 1 0.00956138 0.00976727 0.00383039 0.00640439 0.00139286 0.00591812 0.00129909 0.0215148 0.00262426 0.00988692 0.00261036 0.0275008 0.00238723 0.0200545 0.00328687 0.0287363 0.00366467 0.0243974 0.00453195 0.0408183
33 3 O -1.48961 63.4239 1.74002 -1.2 1 0.00425992 0.00498111 0.0014109 0.00859564 0.000998992 0.00639077 0.00121858 0.0229555 0.00181878 0.00968804 0.0017601 0.0281619 0.0033032 0.0199379 0.0037466 0.0291443 0.00348201 0.0263599 0.00275922 0.0428566
34 3 O -1.00911 60.4726 0.349226 -1.2 1 0.00501673 0.00699553 0.00222584 0.00701685 0.00115109 0.00652753 0.00163887 0.0218646 0.00239096 0.00965381 0.00202458 0.0265608 0.00197969 0.0206655 0.00389683 0.0293597 0.00392474 0.0253264 0.00303796 0.0411709
35 1 Mg -2.48263 69.3026 3.20406 1.2 1 0.00159443 0.00385223 0.000933663 0.0085561 0.00161008 0.00632803 0.0016141 0.0227999 0.00130121 0.00977243 0.00144249 0.0288514 0.00284916 0.0196213 0.00347319 0.0277081 0.00407113 0.0259307 0.00323084 0.0431436
36 3 O -0.978246 60.5842 3.0196 -1.2 1 0.00593288 0.00792296 0.00252148 0.00705107 0.00159671 0.00626968 0.000976409 0.0222663 0.0021818 0.00995515 0.00211206 0.0273157 0.00231407 0.0206546 0.00333699 0.0297905 0.00380697 0.0261059 0.00349406 0.0417395
37 1 Mg -2.34702 66.1069 4.49159 1.2 1 0.0027806 0.00448921 0.000849197 0.00864559 0.00214909 0.00597841 0.00139684 0.0228163 0.00230494 0.00975863 0.00215612 0.0278302 0.00293691 0.0199546 0.00525029 0.0279944 0.00437259 0.0263806 0.00443295 0.0431694
38 2 Si 0.3081 67.9761 4.52455 2.4 1 0.00227866 0.00361849 0.00108243 0.0097105 0.00298161 0.00604882 0.00202661 0.0222524 0.0022803 0.00903597 0.00249949 0.0270593 0.00293811 0.0198728 0.00444787 0.0275597 0.00434803 0.0258689 0.00374111 0.0436969
39 3 O -1.30663 68.2088 4.55798 -1.2 1 0.00202785 0.00355665 0.000726911 0.00953152 0.00250107 0.00559413 0.00210976 0.0215552 0.00274361 0.00934601 0.00213997 0.02765 0.00255799 0.0196209 0.0039212 0.0273676 0.00402165 0.025375 0.00383286 0.043508
40 3 O 1.21371 64.5331 4.57269 -1.2 1 0.00252628 0.00503448 0.00117441 0.00878232 0.00186584 0.00644817 0.00131735 0.0229783 0.00210458 0.00967159 0.00196203 0.0274134 0.00277846 0.0199422 0.00510421 0.0281334 0.00374495 0.0264536 0.00439702 0.0429361
41 3 O 1.05449 67.5244 3.26894 -1.2 1 0.00276698 0.00405396 0.000588502 0.0091648 0.0023816 0.00594968 0.00177709 0.0222921 0.00208167 0.00920603 0.00198484 0.0273173 0.00290651 0.0202695 0.00391979 0.0281348 0.00373692 0.0260813 0.00322546 0.0435615
42 3 O 0.930581 67.2016 5.7247 -1.2 1 0.00152248 0.00402485 0.00120561 0.00866112 0.00205155 0.00582055 0.00137795 0.0228445 0.00134864 0.00933281 0.00205772 0.0269921 0.00275578 0.0201115 0.00354829 0.0280723 0.00368838 0.0263845 0.00371648 0.0428583
43 1 Mg -0.11093 64.0566 3.083 1.2 1 0.00370449 0.00513335 0.00121065 0.00851816 0.00179945 0.0066687 0.00100588 0.0225652 0.00185869 0.00994619 0.00178252 0.0283037 0.00269193 0.0198214 0.00375692 0.0287218 0.00376998 0.0263373 0.00319168 0.0420324
44 1 Mg 0.163613 61.1458 4.63028 1.2 1 0.00426846 0.0071003 0.00149225 0.00743915 0.00183241 0.00608102 0.00152114 0.0217141 0.00199222 0.00988732 0.00254324 0.0282971 0.00277467 0.020372 0.00293055 0.0295293 0.00384693 0.0256115 0.00353553 0.0413883
45 2 Si 1.99976 63.01 4.67458 2.4 1 0.00174667 0.00484928 0.00131235 0.00899582 0.00210096 0.00634135 0.0018152 0.0217776 0.00238039 0.00891449 0.00264714 0.0268362 0.00254736 0.0203219 0.00424077 0.0286005 0.00352672 0.0259727 0.00471576 0.0425312
46 3 O -1.17131 63.0309 4.78582 -1.2 1 0.00156251 0.00521505 0.000825403 0.00864182 0.00206543 0.00624202 0.00157594 0.0218507 0.0026792 0.00918005 0.00180973 0.0274109 0.00299617 0.01994 0.00386003 0.0289426 0.00480613 0.0263726 0.00458186 0.042269
47 3 O 1.17222 59.1912 4.634 -1.2 1 0.0128699 0.0119358 0.00393602 0.00641294 0.00129992 0.0061702 0.00280045 0.0212703 0.00221334 0.0100219 0.0031306 0.0276301 0.0034105 0.0196946 0.00471314 0.0279969 0.00423672 0.0249179 0.00414093 0.0404512
48 3 O 1.31331 62.3199 3.44085 -1.2 1 0.00277611 0.00483718 0.00121469 0.00845477 0.00234376 0.00625464 0.00205103 0.0220954 0.0020455 0.00921725 0.00190936 0.0277133 0.00225144 0.0202027 0.00372461 0.0292093 0.00373542 0.0263095 0.00448981 0.0425948
49 1 Mg -0.0458544 63.8446 -0.0337404 1.2 1 0.00515003 0.00449284 0.00170204 0.0083943 0.000773723 0.00662708 0.000831214 0.02244 0.00141625 0.0100069 0.0018819 0.0281276 0.00186704 0.0198999 0.0025488 0.0287754 0.00247127 0.0262518 0.00254322 0.0417946
50 3 O 1.50782 62.0157 5.94806 -1.2 1 0.0018555 0.00587605 0.0010065 0.00778964 0.00183027 0.00622746 0.00189849 0.0213566 0.00179494 0.00925016 0.00186818 0.0269572 0.00197259 0.0200838 0.00305579 0.0294104 0.00326102 0.0261488 0.00397716 0.0410812
51 1 Mg 0.0426427 67.001 1.46804 1.2 1 0.00406744 0.00379489 0.000753796 0.00885661 0.00119196 0.00622019 0.00167968 0.0221889 0.00208049 0.00985123 0.00181342 0.027949 0.0023661 0.020654 0.00409859 0.0279779 0.00343975 0.0263191 0.0032909 0.0422737
52 2 Si -2.1845 64.9975 1.54365 2.4 1 0.00501826 0.00398485 0.00134173 0.00939019 0.00141079 0.00641539 0.00176115 0.0223514 0.00192396 0.00937465 0.00176639 0.027179 0.00270865 0.0207843 0.00477542 0.0283212 0.0042227 0.0260964 0.0031517 0.0431431
53 3 O 1.1033 64.8809 1.50912 -1.2 1 0.00513292 0.00401763 0.00171869 0.00895178 0.00124121 0.00599928 0.00106103 0.0220057 0.00193517 0.00966694 0.00165461 0.0274388 0.00254165 0.0201745 0.00291658 0.0284797 0.00316814 0.0260205 0.00228221 0.0430432
54 3 O -0.94711 68.6852 1.50538 -1.2 1 0.00305123 0.00381864 0.000666466 0.00902296 0.00078841 0.00646158 0.00152566 0.0226571 0.00159916 0.0100475 0.00241586 0.0281581 0.00357116 0.0201964 0.00290957 0.0269584 0.00330858 0.0260532 0.00220478 0.0425675
55 3 O -1.27149 65.5839 0.389994 -1.2 1 0.00473396 0.00419129 0.00138282 0.00869143 0.000959695 0.00672175 0.00168979 0.0224024 0.00164986 0.00966759 0.00173432 0.0267563 0.00224212 0.0209269 0.00321775 0.0284068 0.00302537 0.0262627 0.00265584 0.042509
56 3 O -1.40658 65.6468 2.83039 -1.2 1 0.00352332 0.00414246 0.000959048 0.00889705 0.00156895 0.00649754 0.00200324 0.0223294 0.00180922 0.0094269 0.00175886 0.0271935 0.00304017 0.0211343 0.00404439 0.0288126 0.00396092 0.0262134 0.00312008 0.0431346
57 1 Mg -2.41736 69.0859 0.131391 1.2 1 0.0046037 0.00368929 0.000786318 0.00905019 0.000978915 0.00661853 0.0013002 0.0215851 0.00172125 0.00996816 0.00173798 0.0281422 0.0028037 0.0196794 0.00245951 0.0269645 0.00319696 0.0259161 0.00263647 0.0414295
58 1 Mg 2.57477 72.0833 1.46006 1.2 1 0.00146292 0.00380158 0.00095379 0.00888549 0.00125945 0.00612308 0.00187132 0.02244 0.00216846 0.0100804 0.00257638 0.0277665 0.00306643 0.0202085 0.0033374 0.0282708 0.00461989 0.0256153 0.00303642 0.042417
59 2 Si -0.252863 70.2037 1.54818 2.4 1 0.00234865 0.00367842 0.0006864 0.00966847 0.00149728 0.00644924 0.00178662 0.0220162 0.00148922 0.00929107 0.00247616 0.0268086 0.00318982 0.0205145 0.00389824 0.0270931 0.00527594 0.0254416 0.00336131 0.0433846
60 3 O 1.3298 70.228 1.66418 -1.2 1 0.00189556 0.00335492 0.000717595 0.00946137 0.00142484 0.00610357 0.00197979 0.0214089 0.00219207 0.00963124 0.00184385 0.0278929 0.00284846 0.0198778 0.00249986 0.0273187 0.00398105 0.0252411 0.00254532 0.0428998
61 3 O -1.16953 73.8774 1.37531 -1.2 1 0.00185699 0.00472067 0.00163532 0.00828311 0.00127262 0.00620541 0.00177848 0.0229147 0.0015721 0.0104472 0.00298316 0.0277282 0.00284024 0.0197566 0.00306731 0.028118 0.00460474 0.0253899 0.00396759 0.0429385
62 3 O -0.858645 70.9851 0.299885 -1.2 1 0.00259283 0.00431702 0.00116577 0.00882723 0.00126579 0.00617629 0.00164734 0.0221227 0.00188642 0.00972348 0.00195398 0.0270885 0.00279235 0.0203303 0.00248992 0.0278191 0.00363935 0.0254889 0.00228479 0.0418247
63 1 Mg -2.1639 79.6747 3.23693 1.2 1 0.00333968 0.0063788 0.00151282 0.00729143 0.00192736 0.00684378 0.00182112 0.0225572 0.00203983 0.00981832 0.00217394 0.0267174 0.00326213 0.0188457 0.00548967 0.0286702 0.00515943 0.0256398 0.00550884 0.0420193
64 3 O -0.783241 70.846 2.89826 -1.2 1 0.000407583 0.00347377 0.000938215 0.00870986 0.00151311 0.00633728 0.00242951 0.0230218 0.0019496 0.00929328 0.00258242 0.0274068 0.00368349 0.0203879 0.00465268 0.0280384 0.00545963 0.0258881 0.00394904 0.0437708
65 1 Mg -2.1975 76.7083 4.52156 1.2 1 0.00263547 0.00497389 0.0017295 0.00766947 0.00171996 0.00616719 0.00151686 0.0227861 0.00150727 0.00984551 0.00313401 0.027645 0.00278886 0.0193737 0.00432937 0.0293752 0.00520786 0.0269526 0.00575139 0.0438673
66 2 Si 0.417028 78.6157 4.54873 2.4 1 0.00288718 0.00576635 0.00174139 0.00823828 0.00169044 0.00634293 0.00215711 0.0222912 0.00221035 0.00884811 0.00255929 0.0258955 0.00280747 0.019573 0.005232 0.0290077 0.00490442 0.0259037 0.00489161 0.0437756
67 3 O -1.14632 78.5979 4.57419 -1.2 1 0.00288873 0.00591958 0.00138816 0.00798547 0.00194892 0.00648325 0.00219655 0.0220757 0.00228158 0.00897378 0.0023113 0.0269129 0.00279484 0.0187319 0.00421263 0.0290001 0.00446725 0.0255733 0.00489457 0.0428942
68 3 O 1.46824 74.8673 4.58721 -1.2 1 0.00287402 0.00392175 0.00151906 0.00825717 0.00175128 0.00660597 0.00231894 0.0227048 0.00235493 0.00974784 0.00255932 0.0279424 0.00320381 0.0194509 0.00492488 0.0278544 0.00495695 0.0258698 0.00584921 0.0442304
69 3 O 1.10626 77.8223 3.18569 -1.2 1 0.00307645 0.00543956 0.00188344 0.00760077 0.00180835 0.00610667 0.0019926 0.0223167 0.00192564 0.00923273 0.00308306 0.0257846 0.0030229 0.0198513 0.0040071 0.0293256 0.00483288 0.0255915 0.00468231 0.0428661
70 3 O 1.1715 77.7872 5.81891 -1.2 1 0.00233695 0.00531773 0.00174285 0.00812525 0.00170091 0.00600218 0.00173758 0.0231689 0.00228051 0.0091747 0.00247041 0.026719 0.00229092 0.0202837 0.00414842 0.0294249 0.00451768 0.0263463 0.00538478 0.0443625
71 1 Mg 0.25007 74.454 2.89354 1.2 1 0.00178743 0.00416732 0.0017854 0.00804723 0.00146866 0.00622156 0.00198802 0.0226425 0.00180989 0.0099876 0.00312562 0.0277344 0.00293768 0.0196538 0.00437251 0.0280189 0.00566406 0.0254562 0.00515869 0.0430128
72 1 Mg 0.136801 71.4764 4.56387 1.2 1 0.00166039 0.00371882 0.00124041 0.00815038 0.0016159 0.00577378 0.0015526 0.0230999 0.00218174 0.00965217 0.00283925 0.0286471 0.00293289 0.020515 0.0041305 0.0286914 0.00580143 0.0262966 0.00493742 0.044486
73 2 Si 2.20845 73.3851 4.61802 2.4 1 0.0025764 0.00334553 0.00130452 0.00903448 0.00232843 0.00621329 0.00231978 0.0223931 0.00194964 0.00910989 0.00258398 0.0278981 0.00268312 0.0199721 0.00397645 0.0278245 0.00431948 0.0256112 0.00480492 0.0451235
74 3 O -0.928895 73.3986 4.51206 -1.2 1 0.00198269 0.00329946 0.00102482 0.00870842 0.0021868 0.00597743 0.00253764 0.0223106 0.00304851 0.00905879 0.00320621 0.0277023 0.00295272 0.0194574 0.00447122 0.0281055 0.00489955 0.0257888 0.00618344 0.0444516
75 3 O 0.904404 69.5568 4.63674 -1.2 1 0.00196294 0.0040236 0.00141008 0.00920792 0.00212527 0.00642374 0.00173364 0.02311 0.00196568 0.00976673 0.00237941 0.0288473 0.00249901 0.0194829 0.0039588 0.0269539 0.00375629 0.0262379 0.00358319 0.0443196
76 3 O 1.56568 72.7674 3.25246 -1.2 1 0.000976137 0.0032752 0.00136758 0.00841518 0.00222145 0.00603257 0.00198761 0.0223994 0.00225417 0.00933242 0.00261559 0.0277532 0.00273147 0.0206607 0.00364174 0.0285515 0.005687 0.0257109 0.0051129 0.0438992
77 1 Mg 0.253046 74.5994 -0.0692944 1.2 1 0.00238777 0.00529464 0.00131577 0.00753812 0.00117912 0.00642179 0.00101959 0.0221064 0.00148683 0.0102762 0.00153147 0.0272941 0.00195316 0.0192048 0.00267502 0.0285717 0.00314463 0.0249971 0.00241386 0.0415763
78 3 O 1.66026 72.782 5.94812 -1.2 1 0.00293843 0.00400365 0.00129944 0.00845971 0.00161658 0.00561056 0.00184845 0.0230438 0.00140792 0.00940557 0.00238457 0.0276903 0.00282389 0.0204987 0.00293489 0.0282389 0.00416882 0.0260246 0.00427179 0.0451867
79 1 Mg 0.451133 77.3641 1.3544 1.2 1 0.00246127 0.00626122 0.00160678 0.00713629 0.00147146 0.0062916 0.00184892 0.0223681 0.00270601 0.0103182 0.00273629 0.0267468 0.00321317 0.019471 0.00467231 0.0290109 0.00501329 0.0251201 0.00455736 0.0415692
80 2 Si -1.81537 75.2407 1.51995 2.4 1 0.00239333 0.00488957 0.00182553 0.00823 0.00163501 0.0063062 0.00167655 0.0223484 0.00207236 0.0100633 0.00333061 0.0267106 0.00262239 0.0201881 0.00469444 0.027928 0.00572566 0.0249806 0.00496868 0.0428959
81 3 O 1.35418 75.299 1.46716 -1.2 1 0.0022741 0.00473459 0.00193143 0.0080638 0.00142427 0.00599573 0.00109016 0.0219085 0.00218155 0.00962829 0.0023147 0.0271205 0.00273308 0.0192751 0.00328938 0.0284929 0.00463543 0.0252137 0.00418643 0.042618
82 3 O -0.915451 79.1923 1.35144 -1.2 1 0.00258719 0.00662246 0.00117342 0.00733657 0.00182718 0.00690794 0.00120605 0.022833 0.00119047 0.0102228 0.00240697 0.0257905 0.00289343 0.0193657 0.00442836 0.0292589 0.00450838 0.0252692 0.00474123 0.0415649
83 3 O -1.18822 76.0737 0.329309 -1.2 1 0.00170543 0.00572965 0.00137111 0.00713717 0.00173018 0.00622205 0.00206609 0.0225516 0.00261221 0.0104172 0.00231578 0.0258183 0.00282171 0.0202208 0.00390746 0.0298348 0.00364442 0.0252767 0.00371253 0.0420367
84 3 O -1.1806 75.9351 2.8999 -1.2 1 0.0025217 0.00438796 0.0022796 0.007667 0.00199051 0.00596795 0.00248417 0.0227958 0.00208628 0.00949315 0.00319394 0.0262561 0.00324628 0.020039 0.00501824 0.0287179 0.00562385 0.0259415 0.00593613 0.042614
85 1 Mg -2.39968 79.3343 -0.056876 1.2 1 0.00159188 0.0067576 0.00124937 0.00775157 0.00185764 0.00675071 0.00109343 0.0220902 0.00160987 0.0107231 0.00162987 0.0262144 0.00239907 0.0190389 0.00398343 0.0294307 0.00424243 0.0249149 0.00492206 0.0404019
86 1 Mg 2.23639 82.4581 1.30965 1.2 1 0.00258712 0.00580566 0.00131138 0.00772182 0.00163597 0.00671227 0.00205571 0.0216284 0.00210986 0.0103557 0.00225485 0.0248011 0.00353808 0.0193122 0.00540854 0.0289735 0.00461629 0.0238939 0.0051436 0.0402338
87 2 Si -0.28394 80.5639 1.45641 2.4 1 0.00281514 0.00645389 0.00137894 0.00790783 0.00230351 0.00671217 0.00180453 0.0218411 0.00212208 0.0102125 0.0028797 0.0251018 0.00346787 0.0192614 0.00667987 0.0286458 0.00612721 0.0243405 0.00660874 0.0408192
88 3 O 1.2596 80.5487 1.34288 -1.2 1 0.00280787 0.0057487 0.00117961 0.00814887 0.00195433 0.00640418 0.00135048 0.0212365 0.00220091 0.00962728 0.00199565 0.025255 0.00291428 0.0192354 0.00498389 0.0295373 0.0051002 0.0240855 0.00509603 0.0407746
89 3 O -1.33692 84.2119 1.30542 -1.2 1 0.00302206 0.00532293 0.00150419 0.007524 0.00159702 0.00732792 0.00180391 0.0220301 0.00191456 0.0105902 0.0028196 0.0251364 0.00374079 0.0190039 0.0044348 0.0284123 0.00390069 0.023681 0.00483776 0.0405121
90 3 O -0.919386 81.4543 0.316533 -1.2 1 0.00161327 0.00583759 0.00109271 0.00769943 0.00176411 0.00653675 0.0022942 0.0222501 0.00267225 0.0099067 0.00215366 0.0244816 0.00305339 0.0197949 0.00511781 0.0297197 0.00444326 0.0246506 0.00489655 0.0403317
91 1 Mg -1.92817 90.0576 2.86318 1.2 1 0.00766174 0.00417421 0.0018086 0.00802633 0.00323797 0.00722364 0.0016997 0.0212961 0.00218596 0.00936674 0.00220818 0.0269836 0.00431717 0.0191465 0.0055832 0.0277037 0.00458174 0.022533 0.00495109 0.0413847
92 3 O -0.80045 81.0707 2.92789 -1.2 1 0.00299507 0.00654669 0.00138098 0.00750419 0.00267946 0.00662785 0.00219551 0.0224091 0.00199977 0.00954877 0.00277281 0.0250877 0.00385364 0.019127 0.00690845 0.0291113 0.00654126 0.0249904 0.00700025 0.0421058
93 1 Mg -2.25798 87.0697 4.27655 1.2 1 0.00567254 0.00472136 0.00265826 0.00762958 0.00183922 0.00731713 0.00180697 0.0215562 0.00322717 0.00888252 0.00263974 0.0261738 0.00452993 0.0194185 0.00496967 0.0282294 0.00564701 0.0235119 0.00619992 0.0407181
94 2 Si 0.684367 89.2863 4.31888 2.4 1 0.00690909 0.00388 0.002087 0.00872559 0.00354079 0.00765075 0.00170483 0.0212608 0.00286042 0.00909309 0.00312815 0.0260479 0.00452789 0.019714 0.00559121 0.0283036 0.00455486 0.022526 0.00566407 0.0417109
95 3 O -0.825377 89.21 4.28943 -1.2 1 0.00719621 0.0042803 0.00206427 0.00836906 0.00348495 0.007222 0.00175985 0.0211169 0.00326221 0.00865794 0.00217109 0.0261426 0.00454451 0.0194642 0.00614005 0.0281677 0.00534715 0.0228494 0.00639485 0.0420942
96 3 O 1.53764 85.3509 4.10122 -1.2 1 0.00480185 0.00511096 0.00314065 0.00773423 0.00197747 0.00734515 0.00183033 0.0217116 0.00204316 0.00869587 0.00286825 0.02583 0.00465222 0.0189805 0.00560237 0.0277576 0.00458886 0.0239404 0.00628654 0.041383
97 3 O 1.27383 88.6132 2.96902 -1.2 1 0.00692069 0.00460837 0.00208004 0.00784361 0.00347261 0.0070215 0.00172607 0.021508 0.00294717 0.00898814 0.00255398 0.0260825 0.00433664 0.0197853 0.00593903 0.0287653 0.00462275 0.0232237 0.00565332 0.0420937
98 3 O 1.42112 88.5677 5.43465 -1.2 1 0.00627329 0.0042985 0.00242752 0.00820332 0.00311977 0.0071013 0.00222865 0.0210856 0.0027239 0.0088394 0.00272155 0.0259954 0.00409516 0.0199213 0.00473107 0.0285605 0.00422848 0.0228561 0.00552755 0.0409388
99 1 Mg 0.0724539 84.892 2.77387 1.2 1 0.00407729 0.00556674 0.00218797 0.00742631 0.00163255 0.00708867 0.00178371 0.0213954 0.00205215 0.00971769 0.00239286 0.0258547 0.00429865 0.0188237 0.00499312 0.0279044 0.00452039 0.0235448 0.00599305 0.0407534
100 1 Mg 0.240858 81.9385 4.48615 1.2 1 0.00349521 0.0064686 0.00190511 0.0073961 0.00189906 0.00644674 0.00150648 0.022293 0.00197282 0.00926393 0.00291307 0.0258566 0.00358681 0.0190474 0.0053503 0.0288086 0.00534861 0.0252479 0.00591759 0.0423221
101 2 Si 2.29178 83.7897 4.33491 2.4 1 0.00387781 0.00557794 0.00265684 0.00809744 0.00186786 0.00648202 0.00152702 0.020942 0.00223281 0.00832535 0.00214483 0.0243677 0.00392648 0.0194267 0.00551528 0.0280514 0.0044859 0.024056 0.00539026 0.0422115
102 3 O -0.886709 83.9535 4.21409 -1.2 1 0.00413155 0.00572616 0.00255878 0.00824486 0.00162228 0.00644166 0.00168481 0.0206627 0.0028054 0.00843333 0.00283505 0.0247984 0.00391274 0.0189269 0.00546389 0.0283757 0.00509028 0.0239484 0.0057525 0.0415475
103 3 O 1.17426 80.0547 4.53594 -1.2 1 0.00302254 0.00646755 0.00142225 0.00782883 0.0017632 0.00692714 0.0014503 0.0224266 0.00207369 0.00923473 0.00162268 0.0263842 0.00317459 0.0187817 0.00518199 0.0288588 0.00504603 0.0258401 0.00578911 0.0426708
104 3 O 1.58681 83.002 3.16279 -1.2 1 0.00370958 0.00582994 0.0018935 0.00775246 0.00219951 0.00671868 0.00148926 0.0218159 0.00209754 0.00893104 0.00208525 0.024455 0.0041229 0.019237 0.0055369 0.0287009 0.00506975 0.0249433 0.006129 0.0415897
105 1 Mg -0.0812939 84.6046 -0.173583 1.2 1 0.00280083 0.00438159 0.00149181 0.00762097 0.00190613 0.00755452 0.00143185 0.0214896 0.00164566 0.0105011 0.00201488 0.0252132 0.0028344 0.018803 0.00345117 0.0289295 0.00274808 0.0238843 0.00394457 0.0401966
106 3 O 1.48169 83.1973 5.63662 -1.2 1 0.00304045 0.00606621 0.00260679 0.0073431 0.00199856 0.00661421 0.00222356 0.0217557 0.00237911 0.00848972 0.00229595 0.0249104 0.00347949 0.0199022 0.00470054 0.0282752 0.00400306 0.0246967 0.00428252 0.0425581
107 1 Mg 0.179911 87.6245 1.37734 1.2 1 0.00643184 0.0047896 0.00218496 0.00793881 0.00226099 0.00677872 0.00242238 0.021038 0.00226039 0.00950533 0.00231731 0.0256446 0.00388132 0.01991 0.00498352 0.0287089 0.0045908 0.0232436 0.00498683 0.0418707
108 2 Si -2.0078 85.8428 1.39819 2.4 1 0.00435071 0.00525893 0.00191314 0.00824832 0.00202812 0.00676382 0.00271296 0.0214255 0.00200625 0.00928476 0.00270882 0.0243873 0.00388729 0.0196124 0.00580146 0.0279887 0.00540244 0.0231479 0.00609506 0.0419766
109 3 O 1.2284 85.9436 1.36444 -1.2 1 0.00442826 0.00470078 0.0023085 0.00821001 0.00172609 0.0068242 0.00220447 0.0204303 0.00246622 0.00891475 0.00219963 0.0248087 0.00448971 0.0186895 0.00392292 0.0285997 0.00446438 0.0229676 0.00522984 0.0413776
110 3 O -0.711224 89.6904 1.26609 -1.2 1 0.00684852 0.00443113 0.00170126 0.00794311 0.00265077 0.00733659 0.00229252 0.0218182 0.00199009 0.00965171 0.00266654 0.0269407 0.00470851 0.0190791 0.00551994 0.0277286 0.00494249 0.0232752 0.00444486 0.0418282
111 3 O -1.21214 86.3695 0.0915418 -1.2 1 0.004667 0.00508544 0.00171954 0.00759362 0.00188417 0.00713335 0.00250572 0.0217423 0.00181203 0.0103646 0.00242171 0.0250658 0.00345753 0.0199802 0.00495656 0.028536 0.00433782 0.0233381 0.00468316 0.0415154
112 3 O -1.1829 86.4414 2.72734 -1.2 1 0.00516388 0.00517124 0.00267461 0.00796433 0.00184021 0.00695652 0.00356543 0.0211802 0.00240769 0.00886479 0.00286428 0.0249595 0.00424291 0.0191165 0.00569871 0.0278923 0.00517908 0.0235673 0.00542795 0.0414548
113 1 Mg -2.18257 90.2236 -0.295586 1.2 1 0.00678719 0.00441809 0.00144399 0.00793895 0.00228265 0.0072391 0.00176003 0.021722 0.00193506 0.0101161 0.00162701 0.0273805 0.00336048 0.0189352 0.00390579 0.0278076 0.00333596 0.0232323 0.00349761 0.0421761
114 1 Mg 2.48047 92.9889 1.41675 1.2 1 0.00737914 0.0036934 0.0018602 0.00750528 0.00293041 0.0066594 0.00217734 0.0222337 0.0019058 0.00991315 0.00269311 0.0280601 0.00422223 0.0199406 0.00509133 0.0287071 0.00433742 0.0225245 0.00424252 0.0413427
115 2 Si -0.0873253 91.1872 1.21562 2.4 1 0.00765398 0.00385639 0.00156572 0.0085059 0.00292795 0.00707211 0.0028531 0.0217056 0.00252433 0.00929542 0.00289659 0.0268773 0.004776 0.0198505 0.00653848 0.0273249 0.00575911 0.0228675 0.00514262 0.0429882
116 3 O 1.43571 91.0208 1.16344 -1.2 1 0.00731476 0.00366089 0.00141842 0.0083681 0.00259954 0.00717534 0.00225802 0.0209473 0.00257601 0.00942915 0.00224764 0.0272324 0.00401371 0.018971 0.0048092 0.0274016 0.00388217 0.0220275 0.00370539 0.0415625
117 3 O -1.24391 94.8109 1.42496 -1.2 1 0.00528873 0.00389581 0.00157519 0.0081784 0.00216691 0.00676948 0.00112376 0.0229428 0.00137504 0.00987923 0.00264802 0.0286143 0.00348644 0.0197727 0.00315952 0.0292673 0.00378904 0.022466 0.00405276 0.0409751
118 3 O -0.829973 91.8538 0.0211852 -1.2 1 0.00682111 0.00379888 0.00153299 0.00772618 0.00225165 0.00706353 0.00302012 0.0219948 0.00217754 0.00931372 0.00241959 0.0269061 0.00487497 0.0197762 0.00516697 0.0279686 0.0050905 0.0230953 0.00419641 0.0418377
119 1 Mg -2.43734 100.848 2.73235 1.2 1 0.00249119 0.00520893 0.00135688 0.00844056 0.00136317 0.00695963 0.00106492 0.0232248 0.00164536 0.0106635 0.00247381 0.0287782 0.0022516 0.0201259 0.00347162 0.0311046 0.00347112 0.0236093 0.00366464 0.0399518