ITEM: TIMESTEP
21100
ITEM: NUMBER OF ATOMS
5600
ITEM: BOX BOUNDS xy xz yz pp pp pp
0	7.1235	0
0	201.985	2.3745
0	119.584	0
ITEM: ATOMS id type element xu yu zu q Q_1 Q_2 Q_3 Q_4 Q_5 Q_6 Q_7 Q_8 Q_9 Q_10 Q_11 Q_12 Q_13 Q_14 Q_15 Q_16 Q_17 Q_18 Q_19 Q_20 Q_21
1 1 Mg -1.80482 49.5008 -0.716668 1.2 1 0.234149 0.0808828 0.0200173 0.0261595 0.00563554 0.0152861 0.00465661 0.0209875 0.00523227 0.0254458 0.00509801 0.0289811 0.00993713 0.0260994 0.00739505 0.0221126 0.00721479 0.0209498 0.010453 0.0292932
2 1 Mg 2.87619 50.8758 2.40764 1.2 1 0.192086 0.0699176 0.0105352 0.0197055 0.0024124 0.0106569 0.00328851 0.017419 0.00427422 0.0196747 0.00413885 0.0239125 0.00520788 0.0228555 0.00542767 0.0216735 0.00624049 0.0188937 0.00940591 0.0275521
3 2 Si 0.736383 51.127 0.563261 2.4 1 0.197411 0.0723005 0.0133355 0.0213537 0.00351236 0.0111526 0.00278879 0.0184109 0.0049601 0.0219029 0.00417285 0.0263644 0.00694338 0.024903 0.00517666 0.0223422 0.00660395 0.01944 0.00914311 0.0290595
4 3 O 2.03825 50.2134 0.789151 -1.2 1 0.212413 0.0752053 0.0160171 0.0232334 0.00412745 0.0122258 0.00297442 0.0181146 0.0056638 0.0226917 0.00407585 0.0255004 0.0074341 0.024583 0.00665636 0.0212854 0.00662104 0.0196355 0.00920159 0.0277842
5 3 O -1.18161 53.7718 1.7139 -1.2 1 0.129733 0.0502972 0.00425777 0.0129023 0.00199455 0.00899347 0.0026158 0.017884 0.00361359 0.0167889 0.00277764 0.0253546 0.00514722 0.0201894 0.00362592 0.0240972 0.00556949 0.0188215 0.00747373 0.0332893
6 3 O -0.113232 50.3765 -0.688571 -1.2 1 0.213158 0.0756075 0.0167178 0.0236284 0.00483952 0.0143945 0.0036313 0.0200356 0.00463328 0.0233891 0.00509287 0.0270309 0.0078562 0.0249628 0.00596259 0.0220614 0.00631111 0.0195217 0.00948046 0.0300005
7 1 Mg -2.32049 59.649 3.36362 1.2 1 0.0157933 0.0119901 0.00510689 0.00555161 0.00141789 0.0065614 0.00176462 0.0221931 0.00320234 0.0111425 0.00232237 0.0292701 0.00237321 0.0203687 0.00337126 0.0317752 0.00429818 0.0237837 0.0048211 0.0450159
8 3 O -0.0166812 51.0495 1.93236 -1.2 1 0.185797 0.0687304 0.0104734 0.019102 0.00217502 0.0105508 0.00293927 0.0183909 0.0049156 0.0208732 0.00360846 0.0250311 0.00534138 0.0233209 0.00522017 0.021099 0.00676461 0.0190826 0.00849982 0.0279619
9 1 Mg -2.23622 56.5646 4.83982 1.2 1 0.070009 0.0340641 0.00467689 0.00752754 0.00181699 0.00658523 0.00225481 0.0194221 0.00237481 0.0133401 0.00224202 0.0260695 0.00270874 0.0193816 0.00376126 0.0271538 0.00469588 0.0205264 0.00601539 0.0372387
10 2 Si 0.333703 58.4131 4.64468 2.4 1 0.0296346 0.020191 0.00727597 0.00596152 0.00160639 0.00589623 0.00287326 0.0214918 0.00294521 0.0109179 0.00333606 0.0269128 0.00234636 0.0204964 0.00469832 0.0296874 0.00424467 0.0226536 0.00558521 0.0425537
11 3 O -1.19349 58.5595 4.71572 -1.2 1 0.0257481 0.0179411 0.00720497 0.00551127 0.00151405 0.00564402 0.00261625 0.0210152 0.0032441 0.0102627 0.00282452 0.0276985 0.00312008 0.020261 0.00342194 0.0301461 0.00533448 0.0219918 0.00509834 0.0430498
12 3 O 1.7498 54.2075 4.98045 -1.2 1 0.118038 0.0484056 0.00222082 0.0119117 0.00129025 0.00815322 0.00323062 0.0189387 0.00268515 0.0163164 0.00291445 0.025024 0.0033707 0.0197544 0.00315999 0.0230181 0.00499839 0.0185169 0.00687641 0.0328671
13 3 O 1.07764 57.8286 3.41316 -1.2 1 0.0408829 0.0242504 0.00651077 0.0060957 0.00172979 0.00600586 0.00228969 0.0207979 0.00291258 0.0116445 0.00292281 0.0266868 0.00224119 0.0199713 0.00445925 0.0287036 0.00412669 0.0218098 0.00552296 0.0416164
14 3 O 0.992398 57.671 5.89132 -1.2 1 0.0400438 0.0247097 0.00721221 0.00596871 0.00170875 0.00600405 0.00259543 0.0210693 0.00290623 0.0109849 0.00236056 0.0270895 0.00240247 0.0198242 0.00336011 0.0289773 0.00403578 0.0218652 0.00541384 0.0410022
15 1 Mg 0.372857 53.3318 3.03996 1.2 1 0.135897 0.055349 0.00285263 0.0137444 0.00157077 0.00923628 0.00296012 0.017824 0.00339396 0.0172991 0.00319992 0.0245502 0.00450102 0.0203266 0.00393623 0.0224932 0.00487783 0.0181448 0.00712836 0.0316082
16 1 Mg 0.700488 49.9455 3.33554 1.2 1 0.217369 0.073904 0.0166962 0.0226419 0.00306446 0.0133176 0.00306955 0.0186602 0.00458145 0.0214871 0.00348659 0.024097 0.00667134 0.023854 0.00587995 0.0210398 0.00739884 0.0200977 0.00928564 0.0265746
17 2 Si 2.47593 52.8254 4.91678 2.4 1 0.154125 0.0587908 0.00584587 0.0148515 0.00218042 0.00961045 0.00388311 0.0174243 0.0032024 0.0171178 0.00361292 0.0237875 0.00441107 0.0197095 0.00442244 0.0220521 0.0051714 0.0177744 0.00785039 0.0293582
18 3 O -0.748143 53.1837 4.70873 -1.2 1 0.13851 0.0552387 0.00324766 0.0130701 0.00211701 0.00822157 0.00339943 0.017401 0.00352015 0.016482 0.00279182 0.0246381 0.00459807 0.0218158 0.0038819 0.0225839 0.00628244 0.0177782 0.00709611 0.0306919
19 3 O 2.46673 49.1628 3.50758 -1.2 1 0.232666 0.0788025 0.0183737 0.0251777 0.00375848 0.0143021 0.00398385 0.0186737 0.00417268 0.0223519 0.00483244 0.0241055 0.00760098 0.0237468 0.00667511 0.0201002 0.00756957 0.0208383 0.00942169 0.0257304
20 3 O 1.92906 52.0752 3.5069 -1.2 1 0.165007 0.061963 0.00725055 0.0152865 0.00258866 0.00963646 0.00356167 0.0183153 0.00359042 0.0186974 0.00338383 0.0247938 0.00473616 0.0217333 0.00449362 0.02206 0.00535085 0.0182213 0.00763456 0.0296865
21 1 Mg -0.0813749 54.3983 0.274697 1.2 1 0.113574 0.0487562 0.00154055 0.0124962 0.00189114 0.00890965 0.00269297 0.0184381 0.00336962 0.0174908 0.00334511 0.0273666 0.0041571 0.020136 0.00392347 0.0249191 0.00505451 0.0199684 0.00747269 0.0347905
22 3 O 1.94365 51.7287 6.00387 -1.2 1 0.16879 0.0633818 0.00681054 0.016795 0.00199592 0.0107392 0.00324637 0.017979 0.00351071 0.0180915 0.00402359 0.0240688 0.00459565 0.0205455 0.00425021 0.0212956 0.00513817 0.0174104 0.00725653 0.0284816
23 1 Mg 0.0534523 57.3105 1.70858 1.2 1 0.0477303 0.0279019 0.006935 0.00653498 0.00204937 0.00621785 0.00196854 0.0201128 0.00458771 0.012753 0.00362916 0.0273155 0.00264453 0.0199664 0.00474369 0.0279058 0.00558924 0.0212364 0.00628269 0.040198
24 2 Si -1.90099 55.1403 1.84158 2.4 1 0.103128 0.0445414 0.00107221 0.0109202 0.00164949 0.00733186 0.00194903 0.0182027 0.00417834 0.0151406 0.00329043 0.0256812 0.00331716 0.0201682 0.00392646 0.0247636 0.00541609 0.0191025 0.00672586 0.0353928
25 3 O 1.29831 54.9452 1.77801 -1.2 1 0.106454 0.0446289 0.00119112 0.0108467 0.00135188 0.00767534 0.00258485 0.0177706 0.00383864 0.0154523 0.00327099 0.0253792 0.00402019 0.0194979 0.0042486 0.02553 0.0049885 0.0191104 0.00702449 0.0346379
26 3 O -0.944503 59.1068 1.84498 -1.2 1 0.0201605 0.0146409 0.0066663 0.00559732 0.00175392 0.00605959 0.00153947 0.0218734 0.0038855 0.0106229 0.00307907 0.0288626 0.0032964 0.0203732 0.00425187 0.031302 0.00459185 0.0235903 0.00607947 0.0448663
27 3 O -1.35526 56.0819 0.521081 -1.2 1 0.0774573 0.0368157 0.00349021 0.00885342 0.00205184 0.00689813 0.0018413 0.0191206 0.00413833 0.0138603 0.00344693 0.0263943 0.00290671 0.0198204 0.00391089 0.0278041 0.00499641 0.0211241 0.00683217 0.0376579
28 3 O -1.31407 55.8993 3.1261 -1.2 1 0.0793995 0.0366374 0.00330729 0.00774889 0.00144775 0.0066159 0.0019651 0.0192751 0.00390005 0.0140826 0.00254892 0.0261118 0.00286575 0.0199432 0.00316359 0.0268292 0.00562854 0.020435 0.00603201 0.0370459
29 1 Mg -2.45981 59.4995 0.294383 1.2 1 0.0169576 0.0126584 0.00573571 0.00581086 0.00151547 0.00642542 0.00179828 0.0223463 0.00327495 0.0110034 0.00299884 0.0294964 0.00243966 0.0201514 0.00473855 0.0314367 0.00388974 0.0245606 0.00542215 0.0461441
30 1 Mg 2.35211 62.4902 1.68566 1.2 1 0.00513723 0.0046143 0.00126972 0.00695002 0.00200317 0.00643447 0.00181622 0.0239159 0.00233645 0.0103085 0.00256345 0.0298068 0.00202599 0.0208207 0.00370446 0.0345536 0.00349071 0.0257003 0.0046601 0.0503872
31 2 Si -0.370634 60.6272 1.76773 2.4 1 0.010416 0.00768424 0.0032913 0.00691228 0.00222073 0.00639907 0.00127073 0.0226998 0.00284901 0.011119 0.00277039 0.0285878 0.00207118 0.0209975 0.00400221 0.0327924 0.00352628 0.024643 0.00521987 0.0484521
32 3 O 1.24148 60.4669 1.82264 -1.2 1 0.0112619 0.00833775 0.00389457 0.00626168 0.001913 0.00598645 0.00148547 0.0224252 0.0032917 0.0104485 0.00216453 0.0292357 0.00223355 0.0206296 0.0048801 0.0331474 0.00373253 0.0241605 0.00586346 0.0481386
33 3 O -1.45254 64.3002 1.78411 -1.2 1 0.00497182 0.00418915 0.00183536 0.00734549 0.00207678 0.006145 0.00152247 0.0242274 0.00217433 0.00966793 0.00217372 0.0299286 0.00262819 0.0203418 0.0038915 0.0338718 0.00329142 0.0257043 0.00497775 0.0509169
34 3 O -0.995474 61.2655 0.451324 -1.2 1 0.0084461 0.00618883 0.00269498 0.00624725 0.00178135 0.00625285 0.00144774 0.0232994 0.00280863 0.00994673 0.00251416 0.0293422 0.00165837 0.0211199 0.00403767 0.0335083 0.00335582 0.0252343 0.00462661 0.0490064
35 1 Mg -2.33553 70.0683 3.11326 1.2 1 0.00203108 0.00477619 0.000778517 0.00681639 0.000982248 0.00611956 0.00098654 0.0243059 0.00116886 0.00969913 0.00147996 0.0293907 0.00138966 0.0209221 0.00187698 0.0334148 0.00190394 0.0258946 0.00204039 0.0515479
36 3 O -0.993823 61.3377 3.03136 -1.2 1 0.00746495 0.00610681 0.00223461 0.00644871 0.00187176 0.006246 0.00138378 0.023184 0.00256865 0.0110143 0.00191646 0.0290294 0.002612 0.0209933 0.00348016 0.0336375 0.00333165 0.0247126 0.00555635 0.0489455
37 1 Mg -2.25006 67.0407 4.66983 1.2 1 0.00331726 0.0048656 0.00109097 0.00685853 0.00107293 0.00577768 0.00135232 0.0242698 0.00211997 0.0106007 0.00189482 0.0293934 0.00249208 0.0216667 0.00345205 0.0344993 0.00254925 0.0259208 0.00293488 0.0515352
38 2 Si 0.373523 68.9313 4.67959 2.4 1 0.00181086 0.00487966 0.000576367 0.00760634 0.000964427 0.00643133 0.00190076 0.0237109 0.00147728 0.0101548 0.00275973 0.0282983 0.00245379 0.0218227 0.00433146 0.0341539 0.00346262 0.0255907 0.00360852 0.0522762
39 3 O -1.16752 69.0078 4.68223 -1.2 1 0.00197225 0.00479588 0.00093943 0.00721349 0.000671661 0.00606891 0.00134208 0.0234243 0.00187823 0.00982942 0.00123902 0.0288486 0.00156629 0.0210572 0.0021333 0.0341686 0.00243003 0.0255838 0.00260093 0.0512177
40 3 O 1.38179 65.1309 4.75558 -1.2 1 0.00290955 0.00476017 0.000500809 0.00725915 0.00113435 0.00624671 0.00137496 0.0246714 0.00137841 0.010175 0.00232285 0.029311 0.00200204 0.0214839 0.00308026 0.0339697 0.00252355 0.0256742 0.00285916 0.0509309
41 3 O 1.04311 68.2508 3.3835 -1.2 1 0.00299477 0.00466797 0.000817121 0.00689202 0.000910729 0.00617697 0.00193497 0.0243875 0.00175826 0.00995316 0.00211985 0.028341 0.00246414 0.021481 0.00356345 0.034731 0.00288851 0.026204 0.0028674 0.0522118
42 3 O 1.09744 68.145 5.91603 -1.2 1 0.00237796 0.00478686 0.000901467 0.00694208 0.00114542 0.00617388 0.00187525 0.0240619 0.00180712 0.0098806 0.0019704 0.0280854 0.00229092 0.0215085 0.00333486 0.0346284 0.00289496 0.02591 0.00356353 0.0511589
43 1 Mg -0.0596545 64.7414 3.28967 1.2 1 0.0039899 0.00496654 0.00110085 0.00682473 0.00152266 0.00620037 0.001202 0.0244178 0.00147664 0.0102424 0.0016908 0.0298444 0.00161739 0.020586 0.00262563 0.0341743 0.00232712 0.0258146 0.00333378 0.0499691
44 1 Mg 0.00620938 61.8248 4.78928 1.2 1 0.00624366 0.00582384 0.00173722 0.00619267 0.00190885 0.0063414 0.00191921 0.0232452 0.00184973 0.0106184 0.00246963 0.0296463 0.00225808 0.0209533 0.00322223 0.0336835 0.00319042 0.02486 0.00413263 0.0486612
45 2 Si 1.98209 63.6322 4.71375 2.4 1 0.00342564 0.00470848 0.000745062 0.00757012 0.00205235 0.00648837 0.0022502 0.0237186 0.00163775 0.0102101 0.00296049 0.0288592 0.00264642 0.0214893 0.00548278 0.0333358 0.00322286 0.0249896 0.0042104 0.0506988
46 3 O -1.19472 63.7141 4.73457 -1.2 1 0.00394586 0.00469845 0.000978901 0.00712012 0.00162523 0.00594522 0.001673 0.0232671 0.00200269 0.0101322 0.00191766 0.0290863 0.00178693 0.0209239 0.00224693 0.034533 0.00285709 0.0252638 0.00294349 0.0507754
47 3 O 1.04942 59.927 4.74008 -1.2 1 0.014314 0.0119484 0.00463648 0.00584169 0.00157505 0.00630928 0.0025476 0.0221634 0.00248989 0.0105676 0.00254953 0.0288678 0.00214159 0.0209258 0.00364263 0.0313571 0.00367026 0.023321 0.00406546 0.0457106
48 3 O 1.29622 63.0246 3.42525 -1.2 1 0.00431958 0.0047353 0.000904311 0.00670589 0.00191618 0.00626514 0.00265859 0.0239709 0.00154487 0.0102562 0.0021668 0.0286129 0.0023313 0.0216812 0.00427705 0.0345873 0.00276414 0.0255843 0.00376027 0.0504965
49 1 Mg -0.161984 64.7238 0.308126 1.2 1 0.00502166 0.00350608 0.0016935 0.0065566 0.00159019 0.00608232 0.00176235 0.0241291 0.00137238 0.00951784 0.00196362 0.0303006 0.00198588 0.0203435 0.002982 0.0339603 0.00265541 0.0251891 0.00398516 0.0510409
50 3 O 1.34278 62.9078 6.09288 -1.2 1 0.00425047 0.00496483 0.000719407 0.00681052 0.00195161 0.00645 0.00212083 0.024277 0.00167839 0.0107364 0.00176787 0.0287787 0.00200788 0.0220247 0.00404413 0.0342665 0.00271964 0.0255051 0.00354877 0.0499129
51 1 Mg -0.11008 67.5894 1.75514 1.2 1 0.0032704 0.00437173 0.00145745 0.00694067 0.00153283 0.00586453 0.00119557 0.0243884 0.00238055 0.0095866 0.00260366 0.0292426 0.00217237 0.021157 0.00376069 0.0344369 0.00346268 0.0260252 0.00415831 0.0520205
52 2 Si -2.14051 65.8057 1.78142 2.4 1 0.00447897 0.00426803 0.00141638 0.00756568 0.00204096 0.00598041 0.00162132 0.0240227 0.0017096 0.00972845 0.00219194 0.0284302 0.00277705 0.0210901 0.00343614 0.0344258 0.00328455 0.0256191 0.00354146 0.0525433
53 3 O 0.988124 65.7055 1.73982 -1.2 1 0.00454289 0.00431139 0.00140069 0.00719809 0.00196822 0.00573657 0.00190187 0.0234594 0.00254996 0.00973991 0.00179534 0.0292735 0.00228343 0.020728 0.00312288 0.0344517 0.00310439 0.0252877 0.00446164 0.0518181
54 3 O -1.0872 69.4818 1.72318 -1.2 1 0.00327931 0.00437439 0.00130121 0.00685944 0.00146344 0.00629316 0.00114193 0.0248298 0.00164819 0.0091986 0.00179113 0.0292218 0.00202753 0.0209387 0.00301967 0.0334509 0.00276498 0.0260805 0.00367116 0.0524421
55 3 O -1.45332 66.6136 0.524902 -1.2 1 0.00449436 0.00382963 0.00157508 0.00659576 0.00186264 0.0059917 0.00135206 0.0239838 0.00205422 0.00987386 0.0016302 0.028734 0.00312557 0.0213974 0.00358374 0.0346389 0.00328051 0.0251001 0.00430306 0.0524416
56 3 O -1.43162 66.3738 3.03647 -1.2 1 0.00390583 0.00482499 0.0011063 0.00691024 0.00169647 0.00579207 0.00183299 0.0243092 0.001621 0.0101132 0.00192014 0.028683 0.00288183 0.0213537 0.00350906 0.0345639 0.00269992 0.0258154 0.00289023 0.0517253
57 1 Mg -2.5428 69.8661 0.220567 1.2 1 0.0024 0.00403392 0.000922151 0.00646147 0.00168354 0.00640152 0.00133796 0.0244869 0.00139651 0.00934622 0.00198142 0.029599 0.00189851 0.0205916 0.00186583 0.0335374 0.00236563 0.0258545 0.0028244 0.0518762
58 1 Mg 2.30537 72.7791 1.76257 1.2 1 0.00082937 0.00515384 0.000847905 0.0066568 0.00126373 0.00581433 0.00142017 0.0244709 0.00202385 0.00974914 0.00220251 0.0287836 0.00217904 0.0215956 0.00311929 0.0337385 0.00386085 0.0266311 0.0029687 0.0515521
59 2 Si -0.361676 71.0135 1.73905 2.4 1 0.0020311 0.00470486 0.000845767 0.00720905 0.00177379 0.00627678 0.00173518 0.0241477 0.00189262 0.00933635 0.00253287 0.0281227 0.00228912 0.0217113 0.00344454 0.0335675 0.00318545 0.0258868 0.00265732 0.0523419
60 3 O 1.19341 70.9465 1.72522 -1.2 1 0.00179737 0.00484678 0.000691182 0.00688414 0.00157573 0.00576436 0.00160918 0.0236418 0.00233423 0.00913332 0.00155813 0.0288484 0.00215143 0.0209847 0.0020594 0.0340277 0.00391308 0.0255483 0.00325125 0.0521339
61 3 O -1.43504 74.5525 1.69019 -1.2 1 0.000987959 0.00562841 0.00123265 0.00657246 0.000817174 0.0061598 0.000846248 0.024611 0.00151111 0.00954849 0.00164645 0.029133 0.0019335 0.0209454 0.00256248 0.0324621 0.0028878 0.026344 0.00284155 0.0504799
62 3 O -1.17548 71.6221 0.474015 -1.2 1 0.0011643 0.00437463 0.000902292 0.00647774 0.00198825 0.00599446 0.00165761 0.0247361 0.00194969 0.0088151 0.00159437 0.0281507 0.00200203 0.0212879 0.0028737 0.0338101 0.00318056 0.026612 0.00289371 0.0519974
63 1 Mg -2.35834 80.3028 3.16499 1.2 1 0.00420463 0.00640703 0.00143833 0.00643243 0.00142128 0.00629892 0.000840413 0.0246529 0.00135616 0.00986123 0.00149853 0.0297831 0.00188418 0.0206231 0.00213037 0.0336721 0.00256897 0.0264232 0.00209682 0.0493793
64 3 O -0.964419 71.5985 3.0572 -1.2 1 0.000967122 0.00480575 0.000869437 0.00684059 0.00147464 0.00588451 0.00156039 0.0239525 0.00174256 0.00971567 0.00215614 0.0277751 0.00258136 0.0214635 0.00278993 0.0341993 0.00253686 0.0263937 0.00204422 0.0514579
65 1 Mg -2.17203 77.3952 4.69435 1.2 1 0.00244007 0.00594222 0.00150409 0.00664634 0.00111349 0.0057668 0.00127779 0.0241345 0.00197879 0.0100749 0.00236314 0.0294635 0.00200231 0.0216039 0.00319038 0.0339835 0.00340205 0.0267822 0.00352846 0.0503198
66 2 Si 0.367024 79.1404 4.64932 2.4 1 0.00332934 0.00574411 0.00169721 0.00724567 0.00169799 0.00646106 0.00147443 0.0242014 0.00159136 0.00998866 0.00245058 0.0283107 0.00283298 0.0214585 0.00309245 0.0336593 0.00354672 0.0263034 0.00278653 0.0510598
67 3 O -1.18271 79.242 4.71918 -1.2 1 0.00367465 0.00592999 0.00128834 0.00680809 0.00166834 0.00617751 0.00135777 0.0236763 0.0023351 0.00965013 0.00162458 0.0293388 0.00207176 0.0212185 0.00257689 0.0337212 0.00349163 0.0262785 0.00340003 0.0504451
68 3 O 1.35568 75.455 4.59532 -1.2 1 0.00204778 0.00571125 0.00126703 0.00698382 0.000544658 0.00620332 0.00105734 0.0244461 0.00135579 0.00949614 0.00158349 0.0295773 0.00212192 0.021049 0.0039428 0.0330676 0.00364306 0.0267208 0.00343713 0.0507441
69 3 O 0.989243 78.5311 3.35483 -1.2 1 0.00342213 0.00629915 0.00135029 0.00666353 0.00135016 0.0059046 0.00153749 0.0242181 0.0017548 0.0100133 0.00149273 0.0285865 0.00262882 0.0212873 0.00276955 0.0333356 0.00299054 0.0263905 0.00261998 0.0502226
70 3 O 1.07045 78.4039 5.86381 -1.2 1 0.00257608 0.00589695 0.00165475 0.00648885 0.00128991 0.00588194 0.00111722 0.0240271 0.00143578 0.00991746 0.00181896 0.0286497 0.00212053 0.021524 0.00225477 0.0342473 0.00278041 0.0265103 0.00315111 0.0497833
71 1 Mg 0.0249865 75.1913 3.1416 1.2 1 0.00153659 0.00609477 0.000965095 0.00633794 0.000612654 0.00615238 0.000805352 0.0243711 0.00104969 0.00977742 0.000897787 0.0296218 0.00120405 0.020845 0.00189144 0.0328029 0.00272932 0.0267501 0.00232496 0.0496269
72 1 Mg 0.0327646 72.2586 4.76563 1.2 1 0.000702869 0.0053927 0.000679285 0.00708207 0.000843281 0.00589546 0.00133997 0.0241045 0.00214531 0.00981448 0.00207127 0.0285043 0.002156 0.0217594 0.00273526 0.0340643 0.00305165 0.0265921 0.00269103 0.0508462
73 2 Si 2.12614 74.053 4.76091 2.4 1 0.00116002 0.0056642 0.00101858 0.00755996 0.000892408 0.00611333 0.00151813 0.0237541 0.00160619 0.00940212 0.00174376 0.0278855 0.00241963 0.0218223 0.00350187 0.0335353 0.00349947 0.0264368 0.00291178 0.051779
74 3 O -1.04772 74.1247 4.72126 -1.2 1 0.00118323 0.00561877 0.00078849 0.00701678 0.000804921 0.00605012 0.00128908 0.0238023 0.00158125 0.00952529 0.00116152 0.0292901 0.0017431 0.0210951 0.00235486 0.0335645 0.00277837 0.0263195 0.00277111 0.05111
75 3 O 1.12276 70.4764 4.68866 -1.2 1 0.000858413 0.0049126 0.000978961 0.00717191 0.000827581 0.0062968 0.00100244 0.024559 0.000924471 0.00994624 0.00208253 0.0290215 0.00186126 0.0211613 0.00285369 0.0339321 0.00279309 0.0263354 0.00253634 0.0513005
76 3 O 1.40398 73.3541 3.50623 -1.2 1 0.000237058 0.00527733 0.000929256 0.00663207 0.000928023 0.00595115 0.00144397 0.0240691 0.00113335 0.00969181 0.00151945 0.0281312 0.00224752 0.0213668 0.00248042 0.0341379 0.00288229 0.0265909 0.00206124 0.0513225
77 1 Mg -0.0454787 75.1081 0.0804745 1.2 1 0.00225767 0.00509173 0.000933092 0.00578634 0.000665905 0.00598032 0.00108322 0.0244833 0.00137488 0.0093264 0.000834178 0.0299333 0.00140165 0.0207635 0.00165277 0.0322833 0.00254534 0.0262848 0.00196929 0.049713
78 3 O 1.53261 73.4286 6.0912 -1.2 1 0.000289239 0.00546139 0.00104952 0.0071342 0.000876041 0.00601368 0.00182487 0.0240403 0.00180087 0.00971967 0.00174342 0.0280594 0.00220198 0.0221985 0.00325504 0.0342193 0.00295619 0.0264844 0.0027856 0.0509122
79 1 Mg 0.125485 77.9312 1.57878 1.2 1 0.00445072 0.00638793 0.00146113 0.00637073 0.000938535 0.00576198 0.00112701 0.0245569 0.00235936 0.00965669 0.00227382 0.0296284 0.00245651 0.020883 0.00319763 0.0328803 0.00306405 0.0265636 0.00290344 0.0500838
80 2 Si -2.0465 76.08 1.67697 2.4 1 0.00309713 0.00587086 0.0012712 0.00695509 0.00120866 0.00618357 0.00176289 0.0239832 0.00184105 0.00922951 0.00203588 0.0285014 0.00172775 0.021632 0.00302525 0.0324688 0.003071 0.0262438 0.00293044 0.0510823
81 3 O 1.1289 76.0907 1.63364 -1.2 1 0.00301797 0.00555152 0.00148153 0.00651729 0.00111999 0.00559523 0.00152004 0.0230984 0.00277897 0.00896145 0.00179144 0.0290033 0.00159019 0.0207557 0.00210045 0.0330768 0.00298539 0.0258402 0.00235076 0.0507071
82 3 O -0.946373 79.7454 1.63981 -1.2 1 0.00408658 0.00622576 0.00128811 0.00657022 0.00102004 0.00637457 0.00100435 0.024908 0.00138011 0.00984434 0.00173446 0.0295178 0.00190583 0.0206663 0.00227414 0.0327689 0.00229097 0.0261408 0.00235644 0.0498509
83 3 O -1.30036 76.7196 0.40522 -1.2 1 0.00314484 0.00582639 0.00138139 0.00603035 0.00154969 0.00554616 0.00198822 0.0246971 0.00177984 0.00929061 0.00183069 0.0286154 0.00179854 0.0210259 0.00334695 0.0329693 0.00289481 0.0264047 0.00243129 0.0503795
84 3 O -1.36462 76.8254 2.92617 -1.2 1 0.00309559 0.00612604 0.00120897 0.00643528 0.00112514 0.00570696 0.00168816 0.0236787 0.00179709 0.00948324 0.00167366 0.0284798 0.00180848 0.0214391 0.00261645 0.0336422 0.002617 0.0264073 0.00246225 0.0501434
85 1 Mg -2.3665 80.2823 0.182893 1.2 1 0.00371962 0.00612315 0.000792073 0.00652403 0.00099447 0.0063136 0.00119036 0.0246295 0.00130028 0.010205 0.00121122 0.0302991 0.0018253 0.0205088 0.00170702 0.0325466 0.00215708 0.0256838 0.00183818 0.0488666
86 1 Mg 2.25604 83.1981 1.48944 1.2 1 0.00396581 0.00639024 0.00124322 0.00660673 0.00143956 0.00640799 0.00190273 0.0248284 0.00281664 0.0109643 0.00229411 0.0298345 0.00307492 0.0213009 0.00298592 0.0336891 0.00264432 0.0259605 0.00306964 0.0493568
87 2 Si -0.288838 81.2397 1.70081 2.4 1 0.00398644 0.00599599 0.00142629 0.00727266 0.00171297 0.00623456 0.00190424 0.0245944 0.00197195 0.0101342 0.0022665 0.0288284 0.00156116 0.0213828 0.00355552 0.0331053 0.00317748 0.0259257 0.00296827 0.0507101
88 3 O 1.29221 81.011 1.69281 -1.2 1 0.00334335 0.00631127 0.000917578 0.00702057 0.00130752 0.00627432 0.00137012 0.024476 0.00210847 0.00980572 0.00181524 0.0297894 0.00194818 0.0204151 0.00234515 0.0331713 0.0026183 0.0257666 0.00224522 0.0497697
89 3 O -1.38062 85.0224 1.52947 -1.2 1 0.00272628 0.0066829 0.00105673 0.00697186 0.00135406 0.00665763 0.00126875 0.0250432 0.00128632 0.0106637 0.00204358 0.0296472 0.00277905 0.0207069 0.00282232 0.0331575 0.00213604 0.0256238 0.00384687 0.0495121
90 3 O -0.977929 81.8883 0.382479 -1.2 1 0.00370577 0.00605724 0.000771645 0.00653843 0.00145689 0.0062073 0.00192476 0.0248114 0.00214136 0.010002 0.00176218 0.0287196 0.00188453 0.0213746 0.00215359 0.0335286 0.00217517 0.026253 0.00199269 0.0495743
91 1 Mg -2.46925 90.7751 3.10518 1.2 1 0.00386028 0.00745917 0.000991268 0.00668085 0.00116897 0.00652081 0.00112794 0.0243734 0.00181791 0.0103373 0.0020877 0.0293146 0.00233988 0.0204495 0.00220481 0.0336816 0.00248149 0.0257592 0.00402968 0.0497888
92 3 O -0.913829 81.9255 2.91786 -1.2 1 0.00452351 0.00605162 0.00118015 0.00669745 0.00211045 0.00615202 0.00191682 0.0244512 0.00223886 0.0106514 0.00217333 0.0287688 0.00200866 0.0210926 0.00338727 0.0334083 0.00309644 0.0257213 0.00321414 0.0500051
93 1 Mg -2.27198 87.8144 4.60392 1.2 1 0.00537315 0.00740267 0.00137651 0.00624729 0.00162708 0.0057128 0.00153856 0.0241014 0.00257411 0.0109327 0.00223404 0.0289087 0.0029006 0.0212224 0.00333052 0.0341737 0.00323073 0.0253638 0.00375037 0.0496355
94 2 Si 0.307215 89.6673 4.60133 2.4 1 0.00502313 0.00685064 0.00146137 0.00707506 0.00178912 0.00628884 0.00226291 0.0240657 0.00220764 0.0105517 0.00264327 0.0281334 0.00217488 0.0210736 0.00365045 0.0335104 0.00312075 0.0252741 0.00362137 0.0506784
95 3 O -1.23234 89.6889 4.55316 -1.2 1 0.00508468 0.00700931 0.00150111 0.00684298 0.00172422 0.00589799 0.00209994 0.0232612 0.00329797 0.01042 0.00238146 0.0285715 0.00220509 0.0207255 0.00232889 0.034157 0.00295737 0.0249781 0.00388588 0.0501673
96 3 O 1.37182 85.893 4.5186 -1.2 1 0.00516196 0.00707826 0.00155307 0.0063609 0.00194351 0.00630028 0.00160708 0.0247424 0.00240757 0.0105066 0.0023225 0.0293186 0.00233804 0.0208182 0.00295506 0.0337168 0.0033872 0.0253502 0.00391375 0.0498966
97 3 O 1.00353 89.0198 3.35905 -1.2 1 0.0039801 0.00728397 0.00137124 0.00682318 0.00173258 0.00583536 0.00189739 0.0237192 0.00169949 0.0108881 0.00230478 0.0284143 0.00282053 0.0209103 0.00308726 0.0339529 0.00298233 0.0249651 0.00370274 0.0499274
98 3 O 1.09104 89.0837 5.9052 -1.2 1 0.00522404 0.00711505 0.00109618 0.00618984 0.0018647 0.00602166 0.00196433 0.0245321 0.00198486 0.010045 0.00249907 0.0277285 0.00247332 0.0212449 0.00396455 0.0345974 0.00332357 0.025989 0.00350207 0.0502161
99 1 Mg -0.00351365 85.5182 3.07561 1.2 1 0.00421405 0.00701391 0.00139421 0.00624796 0.00174411 0.00669982 0.00136847 0.0246944 0.0018479 0.0105738 0.00192033 0.029796 0.00218637 0.0203576 0.00210713 0.0335899 0.00265466 0.0255439 0.00363835 0.0485542
100 1 Mg -0.0554102 82.5565 4.6804 1.2 1 0.00391465 0.00670645 0.00126945 0.00633724 0.00199959 0.00618525 0.00115016 0.0244563 0.00173885 0.010531 0.00202016 0.0295292 0.00195595 0.0212955 0.0029313 0.0345212 0.00372359 0.0260368 0.0033977 0.0492868
101 2 Si 2.0578 84.3885 4.58684 2.4 1 0.0044225 0.00663717 0.00115265 0.00693808 0.00244136 0.0060807 0.00173041 0.0237996 0.00186586 0.0103143 0.0023555 0.0285125 0.00243822 0.021296 0.00365426 0.0340024 0.0037829 0.025206 0.00318736 0.0501699
102 3 O -1.11445 84.4296 4.69895 -1.2 1 0.00427971 0.00684884 0.0015196 0.00654448 0.00236126 0.00573243 0.00173072 0.023766 0.00253485 0.0102632 0.00165862 0.0286939 0.00285391 0.0209468 0.00284533 0.0342442 0.0040264 0.0248662 0.00396984 0.0499834
103 3 O 0.997958 80.6955 4.72738 -1.2 1 0.00387361 0.00629327 0.00126467 0.0066095 0.00165492 0.00663785 0.00110358 0.0246146 0.00174079 0.00983765 0.00196027 0.0296006 0.00295691 0.0208545 0.00361626 0.0335951 0.00400458 0.02608 0.00383087 0.0497882
104 3 O 1.4411 83.7339 3.28553 -1.2 1 0.00417884 0.00673057 0.00110393 0.00626528 0.00234988 0.00630587 0.00145615 0.0244955 0.00202411 0.0108629 0.00206417 0.0288751 0.0025025 0.0216386 0.00286434 0.0342091 0.00363243 0.0258138 0.0036997 0.049522
105 1 Mg -0.00987267 85.3573 0.072975 1.2 1 0.00174156 0.00658372 0.00122686 0.00679777 0.000912669 0.0068212 0.000769567 0.0247848 0.00114984 0.0105518 0.00142194 0.0303111 0.00173881 0.0203934 0.00186619 0.032809 0.00166713 0.0255196 0.00308317 0.0486621
106 3 O 1.37067 83.8692 5.85127 -1.2 1 0.00405544 0.00693448 0.00125774 0.00582146 0.00221426 0.00594976 0.00178917 0.0243869 0.00175751 0.0102389 0.00185137 0.0283622 0.00279311 0.0215807 0.00357268 0.0346208 0.00339587 0.0258339 0.00347216 0.0500918
107 1 Mg -0.0944302 88.5007 1.71157 1.2 1 0.00285624 0.00755825 0.00132105 0.00687734 0.00110598 0.00639406 0.00162981 0.024427 0.00218985 0.0110196 0.00236774 0.0292475 0.0023617 0.020945 0.003125 0.0333253 0.00283478 0.0253777 0.0037793 0.0495422
108 2 Si -2.08201 86.5188 1.55219 2.4 1 0.00309127 0.00702804 0.00130794 0.00757207 0.00152037 0.006493 0.00192728 0.0247086 0.00196097 0.0108495 0.00231728 0.0285606 0.00290263 0.0211053 0.00365515 0.0330653 0.0033472 0.0252082 0.00450987 0.0502929
109 3 O 1.08763 86.3788 1.65485 -1.2 1 0.00290772 0.0067051 0.00131592 0.00704827 0.00136851 0.00663621 0.00170686 0.0237326 0.00222496 0.0104431 0.00197555 0.0295909 0.00263251 0.0205192 0.00266643 0.0333267 0.0020539 0.0251028 0.0039339 0.0491413
110 3 O -1.11645 90.4252 1.55163 -1.2 1 0.00302858 0.0077459 0.000702115 0.00721203 0.000859744 0.00703968 0.00153573 0.0241707 0.0013401 0.0105169 0.00221271 0.0294821 0.00233345 0.0207242 0.00316178 0.0333125 0.00303909 0.0257443 0.00407446 0.0498674
111 3 O -1.4643 87.3152 0.349533 -1.2 1 0.001524 0.00742162 0.00121434 0.00690902 0.000975059 0.00615258 0.00205024 0.0243382 0.00210525 0.0108759 0.00169875 0.0291441 0.00251033 0.0209469 0.00277481 0.0337612 0.00281527 0.0249504 0.00348916 0.049471
112 3 O -1.42384 87.2123 2.88613 -1.2 1 0.0038463 0.00706718 0.00140196 0.00673386 0.00179195 0.00636302 0.00197294 0.024433 0.00149699 0.0108608 0.00175616 0.0287553 0.00330797 0.0211026 0.00345986 0.0339416 0.00308841 0.0251311 0.00452885 0.0493879
113 1 Mg -2.51802 90.7679 0.108392 1.2 1 0.00245862 0.00839574 0.000552058 0.00696709 0.000684608 0.00725196 0.000899012 0.0245707 0.000926635 0.0106663 0.00122748 0.030071 0.00175034 0.0201216 0.00183244 0.0333692 0.00199931 0.0259088 0.00261536 0.0495967
114 1 Mg 2.21748 93.7622 1.44469 1.2 1 0.00179319 0.00814213 0.000565145 0.00710967 0.000928957 0.00670373 0.00141825 0.0245807 0.00148829 0.0103963 0.00227635 0.0298105 0.00200052 0.0205935 0.00281815 0.0339237 0.00339252 0.0267105 0.00335328 0.0508522
115 2 Si -0.422997 91.8956 1.58641 2.4 1 0.00314357 0.00758514 0.000614099 0.00766546 0.0012989 0.00681006 0.00219518 0.0241086 0.00149984 0.0104713 0.00213094 0.0287509 0.00246641 0.0209491 0.00370537 0.0334264 0.0037199 0.0259213 0.00339062 0.0506733
116 3 O 1.1108 91.7993 1.5779 -1.2 1 0.00292118 0.00780658 0.000752235 0.00757139 0.00118582 0.00634495 0.00170921 0.0237297 0.00188576 0.0104948 0.00130965 0.0289793 0.00255112 0.0203861 0.00262873 0.0340273 0.00370489 0.0256731 0.00395523 0.0507959
117 3 O -1.48137 95.4933 1.43631 -1.2 1 0.00218535 0.00783097 0.00132417 0.00716956 0.000897213 0.00713733 0.00124351 0.0248014 0.00147537 0.00995384 0.0020917 0.0297603 0.0029708 0.0199501 0.00357993 0.0331892 0.0029121 0.0264741 0.00328434 0.0507688
118 3 O -1.16552 92.5658 0.279589 -1.2 1 0.00229497 0.00835746 0.00074563 0.00710982 0.00160614 0.00640158 0.00211351 0.0246618 0.00164045 0.0105269 0.00173106 0.0288846 0.00222398 0.0209673 0.00282388 0.0341885 0.00324117 0.0267826 0.00298999 0.0511091
119 1 Mg -2.45739 101.204 2.70023 1.2 1 0.00265664 0.00423995 0.00173433 0.00603152 0.00108468 0.00665302 0.00131665 0.0243147 0.00178428 0.00844388 0.00210285 0.0300975 0.00228602 0.0195549 0.00217901 0.0328956 0.00208864 0.025876 0.00408032 0.0506107