ITEM: TIMESTEP
17900
ITEM: NUMBER OF ATOMS
5600
ITEM: BOX BOUNDS xy xz yz pp pp pp
0	7.1235	0
0	201.985	2.3745
0	119.584	0
ITEM: ATOMS id type element xu yu zu q Q_1 Q_2 Q_3 Q_4 Q_5 Q_6 Q_7 Q_8 Q_9 Q_10 Q_11 Q_12 Q_13 Q_14 Q_15 Q_16 Q_17 Q_18 Q_19 Q_20 Q_21
1 1 Mg -1.55945 49.318 -0.919849 1.2 1 0.239361 0.0830806 0.0206041 0.0292634 0.00519145 0.0191904 0.00454458 0.0244322 0.00533424 0.029381 0.00505812 0.0365356 0.00913667 0.0288997 0.00832237 0.0313036 0.00875138 0.0245205 0.009861 0.0412112
2 1 Mg 2.85956 51.768 1.98425 1.2 1 0.176848 0.0680251 0.00830738 0.0212729 0.002846 0.0132272 0.00307425 0.0216156 0.00390445 0.0237111 0.00518506 0.0331361 0.00582188 0.0253716 0.00669901 0.0297382 0.00493716 0.0234826 0.00920624 0.0424136
3 2 Si 0.866373 50.8908 0.128283 2.4 1 0.200368 0.0746127 0.0130048 0.0235947 0.00415732 0.0146755 0.00325868 0.02233 0.00506105 0.0253308 0.00469174 0.0337791 0.00687823 0.0266243 0.00618649 0.0306299 0.00618978 0.0222567 0.00908975 0.041819
4 3 O 2.12809 50.1286 0.450322 -1.2 1 0.217648 0.079241 0.0160463 0.0265514 0.00389099 0.0165851 0.00379684 0.0229756 0.00604243 0.0281532 0.00516986 0.0351291 0.00723653 0.028399 0.00863414 0.0312829 0.00752469 0.023553 0.00894894 0.0409481
5 3 O -1.43403 53.6902 1.55313 -1.2 1 0.133399 0.0538094 0.00261453 0.0158623 0.00266262 0.0111204 0.00226468 0.0212896 0.00250981 0.0190348 0.00383644 0.0318627 0.00493033 0.0220578 0.00381236 0.0303105 0.00377954 0.0215898 0.00780772 0.0430923
6 3 O 0.107761 50.1119 -0.979822 -1.2 1 0.216629 0.0776404 0.0155555 0.0260197 0.00439796 0.0168378 0.00436462 0.0228026 0.00440921 0.0276114 0.00428482 0.0349529 0.0073136 0.0285744 0.00736733 0.0314111 0.00634382 0.0234293 0.00795137 0.0410831
7 1 Mg -2.46422 59.239 3.17552 1.2 1 0.021724 0.0157079 0.00696232 0.00661713 0.00143663 0.00599003 0.00193869 0.0235323 0.00312771 0.00994381 0.00294046 0.0302692 0.00259342 0.020319 0.00422531 0.0326745 0.00431055 0.0253755 0.00527047 0.0483523
8 3 O 0.0266345 51.2023 1.4565 -1.2 1 0.184408 0.0712758 0.00896119 0.0220199 0.00327515 0.0138751 0.00329362 0.0219567 0.00463703 0.0246653 0.00510712 0.0330615 0.00536226 0.0254547 0.00590616 0.0313059 0.00507413 0.0225919 0.00931325 0.0417599
9 1 Mg -2.28366 56.5267 4.58469 1.2 1 0.0733355 0.0351593 0.00543687 0.0101084 0.00215885 0.00653115 0.00231858 0.0219049 0.00222248 0.0141724 0.00316312 0.0302848 0.00326701 0.0207482 0.00423492 0.0301446 0.00313522 0.0235681 0.00639862 0.0460892
10 2 Si 0.355742 58.3698 4.72627 2.4 1 0.0357833 0.021278 0.00760587 0.00793537 0.0016207 0.00613309 0.00223405 0.0238221 0.00263366 0.0106447 0.00372295 0.0292822 0.0033259 0.0210144 0.00482856 0.0314685 0.00452768 0.0247339 0.00560968 0.048795
11 3 O -1.18763 58.4386 4.64426 -1.2 1 0.0294769 0.0190189 0.00752869 0.00732193 0.00136115 0.00608163 0.00228067 0.0230737 0.00245468 0.0101895 0.00257561 0.0298463 0.00307873 0.020326 0.0034135 0.0317587 0.00426223 0.0241577 0.00533775 0.0485787
12 3 O 1.42351 54.8105 4.72462 -1.2 1 0.108583 0.0466994 0.00192906 0.0137301 0.00243932 0.0086754 0.00243372 0.0219843 0.00243243 0.0182269 0.00363857 0.0309817 0.00422371 0.0218683 0.00379893 0.029029 0.00381052 0.022777 0.00649017 0.044237
13 3 O 1.00099 57.6892 3.33711 -1.2 1 0.0434336 0.0252973 0.00785532 0.00800088 0.00167463 0.005653 0.00230664 0.0238734 0.0022653 0.0115346 0.00312342 0.0294375 0.00356313 0.0213202 0.00524444 0.0315644 0.00362015 0.0242165 0.00610099 0.047417
14 3 O 1.13975 57.6735 5.93341 -1.2 1 0.046947 0.0259026 0.00788437 0.00820949 0.00155392 0.00557674 0.00233807 0.0235087 0.00267719 0.0120806 0.00280503 0.02999 0.00348442 0.0210688 0.00485261 0.0311671 0.00404035 0.0240435 0.0057063 0.0484189
15 1 Mg 0.0284471 54.1338 3.02679 1.2 1 0.122337 0.0509002 0.00135623 0.0148074 0.0023347 0.00973498 0.00241153 0.0215017 0.00232216 0.0189594 0.00345012 0.0319195 0.00447881 0.0223782 0.00407395 0.0296223 0.00348568 0.0218774 0.00718208 0.0433055
16 1 Mg 0.703274 50.5522 3.11795 1.2 1 0.206388 0.075652 0.012512 0.0251396 0.0031379 0.0150845 0.00354846 0.0218867 0.0048332 0.0259064 0.00471096 0.0335987 0.00670477 0.0270996 0.00715658 0.0304344 0.00682959 0.0236361 0.01022 0.043175
17 2 Si 2.06068 53.3119 4.61818 2.4 1 0.149969 0.0587505 0.0039343 0.017364 0.002762 0.0107121 0.00356869 0.0216114 0.00283332 0.0214442 0.00448761 0.0321602 0.00517578 0.0240589 0.00522616 0.0293068 0.00356478 0.0220546 0.00805716 0.0435446
18 3 O -1.13344 53.4889 4.53229 -1.2 1 0.133174 0.0544855 0.00155814 0.0155258 0.00266758 0.00932309 0.00280191 0.0219028 0.00291236 0.0201625 0.00377109 0.0325973 0.00474177 0.0229751 0.00421227 0.0291678 0.00400244 0.0218487 0.00795577 0.0442394
19 3 O 2.77484 50.1429 3.24261 -1.2 1 0.213951 0.0772572 0.0139313 0.0253204 0.00374162 0.0151917 0.00371035 0.0222341 0.00427716 0.0266841 0.00495517 0.033944 0.00805554 0.0281984 0.00699942 0.0310929 0.00683797 0.0242217 0.00921624 0.0431387
20 3 O 1.43807 52.5826 3.35155 -1.2 1 0.154096 0.0607412 0.00452854 0.0181069 0.00243168 0.011022 0.00376032 0.0216808 0.00259149 0.0216942 0.003425 0.0322249 0.00528713 0.0247269 0.00588681 0.0302836 0.00420657 0.0223898 0.0079169 0.0434291
21 1 Mg 0.0350119 54.0973 -0.0845874 1.2 1 0.125715 0.0525542 0.0024445 0.0155521 0.00283356 0.0104121 0.00246891 0.0214833 0.00295882 0.019093 0.00362668 0.0313524 0.00456296 0.0222111 0.00492729 0.0305934 0.00290973 0.0223235 0.00877478 0.0424244
22 3 O 1.36825 52.563 5.8846 -1.2 1 0.158726 0.0611905 0.00503974 0.0183041 0.0032848 0.0110124 0.00365724 0.0216634 0.00313821 0.022671 0.0041153 0.0323242 0.00584713 0.0240804 0.00522707 0.0293375 0.0039398 0.0216715 0.00874068 0.043641
23 1 Mg 0.0774987 57.081 1.6795 1.2 1 0.0578784 0.0304963 0.00672467 0.00902039 0.0022657 0.00679662 0.00181168 0.0219236 0.00364657 0.012489 0.00374334 0.0298318 0.0030866 0.0207428 0.00464555 0.0312092 0.00479198 0.023358 0.0077599 0.0457121
24 2 Si -2.12645 55.2068 1.53801 2.4 1 0.105338 0.0455941 0.00140499 0.0131268 0.00278961 0.0089901 0.00208935 0.0212874 0.00348433 0.0169164 0.00390417 0.0306883 0.00359835 0.0213494 0.00380369 0.0301342 0.00360219 0.0217507 0.00694983 0.0444048
25 3 O 1.06469 55.1152 1.62717 -1.2 1 0.104948 0.0451872 0.00179013 0.0132105 0.00256896 0.00917403 0.00223826 0.0206638 0.00278996 0.0160752 0.00377221 0.0305166 0.0034624 0.0208784 0.00449127 0.0301212 0.00313704 0.0219966 0.00765846 0.0437126
26 3 O -1.05467 59.0062 1.6006 -1.2 1 0.0252695 0.0177994 0.00804653 0.00729887 0.00174535 0.00614578 0.00191065 0.0236422 0.00341848 0.0101543 0.00260872 0.0302419 0.00373633 0.020582 0.00481618 0.0325928 0.00459251 0.0257609 0.00641408 0.0481503
27 3 O -1.41674 55.7647 0.234541 -1.2 1 0.0869062 0.0401266 0.00415441 0.011497 0.0023894 0.00762605 0.00160862 0.0218529 0.00219659 0.0151406 0.00297941 0.0298075 0.00381928 0.0213303 0.00356438 0.0303585 0.00384903 0.023307 0.00704178 0.0448387
28 3 O -1.45019 55.8894 2.80009 -1.2 1 0.0838865 0.0388902 0.00398179 0.0107156 0.00220609 0.00774591 0.00179373 0.0217048 0.00324249 0.0150938 0.00344482 0.0301082 0.00292026 0.0213033 0.00399531 0.0305386 0.00385146 0.0227852 0.0073792 0.0448883
29 1 Mg -2.31324 59.4205 0.133862 1.2 1 0.0196866 0.0157045 0.00669841 0.00693057 0.00125364 0.00649615 0.00187398 0.023591 0.00284561 0.0103887 0.00235047 0.0298095 0.00239371 0.0203389 0.00352636 0.0327596 0.00369362 0.0258466 0.00430379 0.0481518
30 1 Mg 2.41735 62.2163 1.81974 1.2 1 0.00408544 0.00584917 0.00187792 0.00693698 0.00126221 0.00643701 0.00191512 0.0241551 0.00308943 0.00903079 0.00248789 0.029831 0.00223951 0.0207772 0.00315048 0.0346588 0.00366073 0.0262124 0.00440221 0.0499078
31 2 Si -0.287089 60.4634 1.57842 2.4 1 0.0114805 0.0098324 0.00446789 0.00747455 0.00176701 0.0069762 0.00180483 0.0236689 0.00235836 0.00970055 0.00211173 0.0290518 0.00316944 0.0211481 0.00373326 0.0334729 0.00360626 0.0259128 0.00475321 0.0497257
32 3 O 1.2516 60.3493 1.69092 -1.2 1 0.0122151 0.01016 0.00469393 0.00682343 0.00175773 0.00619129 0.00187842 0.02342 0.0031001 0.00923615 0.00200917 0.0295253 0.00301054 0.020405 0.00413014 0.0336283 0.00392931 0.0255942 0.00605595 0.0490768
33 3 O -1.37371 64.0614 1.78981 -1.2 1 0.00339253 0.00454778 0.00239508 0.00717892 0.00148022 0.00625188 0.00200465 0.0249401 0.00255205 0.00848009 0.0026304 0.0301478 0.00315071 0.0199532 0.00313722 0.0339606 0.00268261 0.0255471 0.00518156 0.0512182
34 3 O -0.925434 61.1112 0.255525 -1.2 1 0.00675832 0.0078271 0.00318098 0.00690983 0.00131595 0.00683659 0.00159467 0.0241134 0.00243947 0.00960845 0.00204423 0.0290452 0.00269467 0.0210807 0.00307233 0.0336976 0.00270158 0.0260131 0.00353173 0.0497825
35 1 Mg -2.41388 69.6616 3.11259 1.2 1 0.00133382 0.0025139 0.000972929 0.00642872 0.00071572 0.00545168 0.000894881 0.025735 0.00102282 0.00848804 0.00121701 0.0304667 0.00123754 0.0203545 0.00142391 0.0340447 0.00206619 0.0256533 0.00172606 0.0525831
36 3 O -0.955302 61.1277 2.86554 -1.2 1 0.00852404 0.00808537 0.00341468 0.00667099 0.00160567 0.00635557 0.00216075 0.0239684 0.00300041 0.00925016 0.00178296 0.0293444 0.00276682 0.0213734 0.00353301 0.0340633 0.00345956 0.0254954 0.00534457 0.0495473
37 1 Mg -2.26964 66.8929 4.74944 1.2 1 0.00205971 0.00291705 0.00170644 0.00678226 0.00129973 0.0052242 0.00204463 0.0253127 0.00219999 0.00912301 0.00289147 0.0297678 0.00268156 0.020798 0.00333262 0.0345113 0.00293743 0.0257233 0.00427443 0.0525665
38 2 Si 0.339914 68.6888 4.57925 2.4 1 0.00212488 0.00222639 0.00157212 0.00767894 0.000953251 0.00543433 0.00160193 0.0251041 0.00178669 0.00899154 0.00235098 0.0289247 0.00268777 0.0213876 0.0039396 0.0339572 0.00363313 0.0249004 0.00374583 0.0539656
39 3 O -1.23282 68.7067 4.70403 -1.2 1 0.00250008 0.00254249 0.00152897 0.00723657 0.00113987 0.00491891 0.00156473 0.0245473 0.00263506 0.00862935 0.00196499 0.0296862 0.00273656 0.0203587 0.00229619 0.0341269 0.00348329 0.0246131 0.00341183 0.0530539
40 3 O 1.43802 65.0118 4.72512 -1.2 1 0.0027469 0.00356294 0.00223057 0.00721679 0.00138833 0.00578399 0.0018644 0.0251665 0.00178911 0.00857568 0.00249802 0.0299411 0.00316416 0.0200476 0.00281889 0.0336373 0.0031183 0.0251998 0.00469935 0.0516434
41 3 O 1.03323 68.036 3.35077 -1.2 1 0.00218109 0.0025763 0.00195004 0.00658622 0.000931121 0.00555889 0.00188476 0.0253581 0.00174685 0.00867127 0.00245609 0.0292117 0.00255653 0.0210897 0.00333361 0.0342514 0.00329325 0.0252428 0.00339251 0.0528795
42 3 O 1.05566 68.0903 5.83112 -1.2 1 0.00234993 0.00260979 0.00166815 0.006763 0.00140969 0.0051619 0.0015804 0.0255898 0.00169727 0.00912596 0.00158832 0.0291565 0.0028836 0.0210929 0.00301435 0.0338539 0.00311056 0.0249908 0.00395076 0.0526691
43 1 Mg -0.0675236 64.6981 3.31175 1.2 1 0.00277123 0.00409037 0.00201182 0.00683755 0.00137909 0.00598095 0.00180787 0.0249428 0.00211286 0.0086772 0.00202224 0.0303592 0.00262812 0.0198679 0.0021057 0.0339274 0.002647 0.0252025 0.00470232 0.0506296
44 1 Mg -0.160567 61.6421 4.62206 1.2 1 0.00654056 0.00672272 0.00299573 0.00633054 0.00153609 0.00583605 0.0027966 0.024161 0.00225096 0.00949031 0.00243921 0.0300397 0.00327417 0.0209517 0.00392554 0.0337553 0.00266892 0.0254394 0.00475844 0.0498917
45 2 Si 2.04047 63.5421 4.74059 2.4 1 0.00262067 0.00413041 0.00171925 0.00748146 0.00172358 0.00589556 0.00252755 0.0246074 0.00187805 0.00846958 0.00261136 0.0287938 0.00281181 0.0206273 0.00394475 0.0337251 0.00304639 0.0252421 0.00452078 0.051726
46 3 O -1.17993 63.6766 4.77945 -1.2 1 0.00278818 0.00405722 0.00160449 0.00713623 0.00154922 0.0054635 0.00186966 0.0247101 0.00201349 0.00834478 0.0018935 0.0296554 0.00264669 0.0199574 0.00242924 0.0340314 0.00310982 0.0250609 0.00471437 0.051228
47 3 O 1.02921 59.8478 4.75397 -1.2 1 0.0156641 0.0121458 0.00526665 0.00650113 0.00122611 0.00620096 0.00260097 0.0238925 0.00225731 0.00944061 0.00303278 0.0299013 0.0029788 0.0204864 0.00415147 0.0326325 0.00391402 0.0250699 0.0042555 0.0493023
48 3 O 1.31418 62.929 3.43061 -1.2 1 0.00359418 0.00477095 0.00135328 0.00702066 0.00154585 0.00608387 0.00262665 0.0246292 0.00189402 0.00840679 0.00198504 0.02907 0.0026572 0.0206842 0.00320076 0.0344619 0.00243045 0.0257626 0.0038041 0.0509629
49 1 Mg 0.06871 64.3905 0.320172 1.2 1 0.00267164 0.00449183 0.00213964 0.00694342 0.0012008 0.00613661 0.00162819 0.0246461 0.00186783 0.00855335 0.00226434 0.0304383 0.00257966 0.0200263 0.00197619 0.0341098 0.00234242 0.0258072 0.00426433 0.0509629
50 3 O 1.35927 62.8462 5.99038 -1.2 1 0.00281584 0.00451213 0.00147754 0.00670934 0.00188265 0.00571671 0.00244844 0.0248292 0.00216153 0.00907443 0.00178306 0.0289864 0.00293586 0.0212297 0.0030635 0.0338599 0.00212056 0.0251246 0.00408586 0.0512494
51 1 Mg 0.030877 67.3607 1.68677 1.2 1 0.0028349 0.00322399 0.00226985 0.0064452 0.00103502 0.0053731 0.00110196 0.0249958 0.00239109 0.00813497 0.00268002 0.0302906 0.0024795 0.0204298 0.00335947 0.0347076 0.00364808 0.025874 0.0046012 0.0527867
52 2 Si -2.0569 65.5523 1.72824 2.4 1 0.00325487 0.0040248 0.0024065 0.00740298 0.00171462 0.00605222 0.00195019 0.0245797 0.00250529 0.00830075 0.00275686 0.0290409 0.00319568 0.0205452 0.00356954 0.0341928 0.00307543 0.0253999 0.00513548 0.0529116
53 3 O 1.13142 65.4832 1.76837 -1.2 1 0.00344457 0.00387381 0.00226239 0.00710082 0.00176847 0.0057077 0.0021556 0.0242877 0.00283731 0.00831903 0.00245294 0.0301923 0.00300842 0.0201565 0.00248342 0.033995 0.00320088 0.0250237 0.005376 0.0521925
54 3 O -1.08984 69.1664 1.64871 -1.2 1 0.00179171 0.00277711 0.00142147 0.00666123 0.00122466 0.00554428 0.000918813 0.0255937 0.00159638 0.00792505 0.00186652 0.0303641 0.00223061 0.020306 0.00276885 0.0339828 0.0026262 0.025759 0.00361435 0.0530784
55 3 O -1.45063 66.172 0.429657 -1.2 1 0.00281833 0.00379272 0.00258803 0.00664068 0.00185408 0.00559614 0.00177293 0.0245371 0.00227359 0.00851838 0.0026909 0.0292983 0.00264273 0.0205674 0.00257977 0.0345904 0.00248198 0.0257916 0.00402681 0.0524667
56 3 O -1.30122 66.2174 2.99534 -1.2 1 0.00242103 0.00336642 0.00191222 0.00674298 0.00164131 0.00563741 0.00193714 0.0253203 0.00228798 0.00869065 0.00237753 0.0290712 0.00287079 0.0208964 0.00289834 0.0345891 0.00298998 0.0256904 0.0047882 0.0527433
57 1 Mg -2.45111 69.6657 0.213482 1.2 1 0.00183301 0.0027818 0.00124871 0.00621676 0.00112048 0.00567248 0.00103672 0.0255338 0.001161 0.00841869 0.00151502 0.0308831 0.00152453 0.0204827 0.00179738 0.0340407 0.00216566 0.0257157 0.00225503 0.0526028
58 1 Mg 2.28464 72.574 1.48954 1.2 1 0.000518227 0.00301822 0.000802903 0.00637497 0.00114779 0.00516567 0.00113369 0.0256639 0.00210844 0.00936131 0.00249425 0.0303288 0.00202213 0.0215945 0.00308999 0.0350519 0.00335064 0.0258761 0.0033084 0.0532135
59 2 Si -0.360643 70.7148 1.71549 2.4 1 0.0010167 0.00220197 0.000581062 0.00741389 0.00137749 0.00566987 0.00144328 0.0251708 0.00152355 0.00861653 0.00238901 0.0295258 0.00180358 0.0214783 0.00358968 0.0338302 0.00254462 0.0252495 0.00199308 0.0540239
60 3 O 1.15171 70.6364 1.66013 -1.2 1 0.000618294 0.00240926 0.00064992 0.0067878 0.00119229 0.0050929 0.00121792 0.0250745 0.0024985 0.00831424 0.00168543 0.0300628 0.00209565 0.0207297 0.00264022 0.03427 0.0034662 0.0248568 0.00280455 0.0535311
61 3 O -1.46609 74.3866 1.42608 -1.2 1 0.00123657 0.00319162 0.00108438 0.00638951 0.0012721 0.00551507 0.00109031 0.0264477 0.00132101 0.00923363 0.00185279 0.030541 0.00258531 0.0215115 0.00325969 0.0339638 0.00243907 0.0252667 0.00245867 0.052796
62 3 O -1.08821 71.3461 0.364239 -1.2 1 0.00109345 0.00280782 0.000959611 0.00630423 0.00146581 0.00532787 0.00163315 0.0259006 0.00164108 0.00851705 0.00158095 0.0296449 0.00172278 0.0216433 0.00256694 0.0344636 0.00225577 0.0258662 0.00210478 0.0536683
63 1 Mg -2.4913 80.1913 2.98111 1.2 1 0.00139779 0.0033364 0.00066527 0.006015 0.000999279 0.00533145 0.000995756 0.0253374 0.00118354 0.00920468 0.00122874 0.0308948 0.00109823 0.0213474 0.00155837 0.0332691 0.00172658 0.0246595 0.0023179 0.0516454
64 3 O -1.05729 71.3813 2.90235 -1.2 1 0.000326215 0.00273281 0.000306568 0.00663664 0.00110161 0.00520697 0.00122544 0.0258978 0.0016403 0.00924275 0.00129944 0.0296166 0.00111075 0.0217483 0.00200472 0.034666 0.0014659 0.0257105 0.00183345 0.0532282
65 1 Mg -2.41783 77.189 4.44358 1.2 1 0.00228091 0.00349963 0.00170402 0.00632105 0.00107397 0.00510364 0.00102323 0.0258574 0.00234276 0.00977472 0.00238271 0.029982 0.00197819 0.0221841 0.00283601 0.0343741 0.00243598 0.0251017 0.00372296 0.0524323
66 2 Si 0.241388 79.0884 4.44936 2.4 1 0.00212874 0.00318457 0.00137155 0.00704898 0.00142669 0.00530672 0.00140257 0.0248132 0.00197047 0.0091066 0.0026097 0.0290547 0.00254496 0.0221436 0.00401548 0.0334859 0.00347545 0.0244702 0.00371765 0.0534398
67 3 O -1.33241 79.1978 4.4701 -1.2 1 0.00220539 0.00306048 0.00136157 0.00654972 0.00150784 0.00499706 0.00150423 0.0249462 0.00261326 0.00894142 0.00238486 0.0295996 0.00227851 0.0215166 0.00238016 0.0339104 0.00264429 0.0244367 0.004063 0.0522836
68 3 O 1.38629 75.417 4.62489 -1.2 1 0.00224353 0.00346297 0.00176047 0.00664195 0.00100854 0.00545644 0.000896149 0.0261756 0.00160571 0.00946747 0.00232349 0.0302391 0.00229954 0.0214835 0.0027374 0.0337661 0.00276306 0.0249786 0.00411495 0.0521591
69 3 O 0.886628 78.3987 3.20729 -1.2 1 0.00192138 0.00354921 0.00113027 0.0059787 0.00123905 0.00480729 0.00151894 0.0250544 0.00193971 0.00920817 0.00168474 0.0295525 0.0017481 0.0220852 0.00245092 0.0341847 0.00229674 0.0244746 0.00367824 0.0530575
70 3 O 0.925881 78.4196 5.74276 -1.2 1 0.002566 0.0029916 0.00183841 0.00641142 0.00121637 0.00530275 0.000911871 0.0253178 0.0020182 0.00938594 0.00208096 0.0292972 0.00171067 0.0225194 0.0021966 0.0336158 0.00209306 0.0249277 0.00334395 0.0523421
71 1 Mg -0.0732148 74.9084 2.98163 1.2 1 0.00147307 0.00361703 0.00109603 0.00629292 0.00105698 0.00546198 0.000850246 0.0259739 0.00134265 0.00958475 0.00130105 0.0307917 0.00102917 0.0211921 0.00122754 0.0340507 0.00154062 0.0249882 0.00244754 0.0517948
72 1 Mg -0.168183 72.0441 4.56066 1.2 1 0.000607443 0.00317854 0.000849224 0.00663874 0.000904797 0.00459971 0.00127808 0.0261095 0.00169888 0.00965003 0.00199182 0.0302705 0.00186615 0.0213112 0.00290003 0.0345285 0.00306294 0.0253285 0.00274634 0.0525966
73 2 Si 2.02468 73.9076 4.49839 2.4 1 0.00169897 0.00299578 0.00113798 0.00747067 0.00135965 0.00550712 0.00131856 0.0256964 0.00159197 0.00959544 0.00221335 0.029051 0.00204513 0.0219604 0.00336513 0.0339228 0.00320486 0.0249537 0.00353936 0.0533533
74 3 O -1.20188 73.9892 4.49464 -1.2 1 0.00154524 0.00322075 0.00118288 0.007083 0.00165161 0.00509002 0.00145178 0.0253738 0.00204739 0.00934864 0.0014826 0.0300567 0.00209624 0.0212251 0.00171776 0.0339753 0.003205 0.0244717 0.00350293 0.0526442
75 3 O 0.966444 70.222 4.58875 -1.2 1 0.00183789 0.00274501 0.00117384 0.00690508 0.000821678 0.00513216 0.00107626 0.0261059 0.00127091 0.00909438 0.00194635 0.0301936 0.0023985 0.0205487 0.00329826 0.0334989 0.00334041 0.0252681 0.00325682 0.0529151
76 3 O 1.2879 73.2601 3.19891 -1.2 1 0.000586829 0.00296607 0.00079646 0.00658325 0.00131308 0.00511144 0.00152368 0.0263759 0.00148413 0.00952762 0.00167417 0.0294515 0.00155576 0.0218637 0.0023456 0.0345379 0.0029225 0.0253042 0.00324798 0.0532244
77 1 Mg -0.177409 74.9235 -0.0223586 1.2 1 0.000926769 0.00345635 0.000762441 0.00582089 0.00109946 0.00545635 0.00104286 0.0258066 0.00136038 0.00887265 0.00126728 0.0306234 0.00117127 0.0210545 0.00175358 0.0341205 0.00177985 0.0253184 0.00211079 0.0521421
78 3 O 1.40231 73.2077 5.77632 -1.2 1 0.00117146 0.0032625 0.0011617 0.00673559 0.00113461 0.00526148 0.00139522 0.0258686 0.00154762 0.00988949 0.00137537 0.0289593 0.00208991 0.0220542 0.00207608 0.0346218 0.00221984 0.0253726 0.00325544 0.0526754
79 1 Mg -0.08232 77.8117 1.53022 1.2 1 0.00137191 0.00393738 0.00101065 0.00616677 0.00118445 0.00474436 0.00122285 0.0257946 0.00208831 0.00966074 0.00226785 0.0299352 0.00201272 0.0222611 0.00336912 0.0341743 0.00251197 0.0251544 0.00311775 0.0528103
80 2 Si -2.11253 75.9006 1.55352 2.4 1 0.00136841 0.00371125 0.000923794 0.00696269 0.00159739 0.00506592 0.00165286 0.0254949 0.00170433 0.00914555 0.00239245 0.0293483 0.00210865 0.0221053 0.00361988 0.0341324 0.00316024 0.0246479 0.00320736 0.0538828
81 3 O 1.09935 75.8891 1.58153 -1.2 1 0.00140829 0.00372998 0.000992978 0.0063193 0.00153221 0.00463453 0.00145793 0.0251888 0.00268096 0.00908983 0.00219896 0.0296456 0.00192961 0.0214609 0.00255838 0.0346392 0.00265581 0.0247375 0.00342893 0.0532712
82 3 O -1.08175 79.6647 1.5233 -1.2 1 0.00146563 0.00377986 0.000917383 0.00644856 0.00110828 0.00512641 0.00125731 0.0256332 0.00148463 0.00927711 0.00194454 0.0303076 0.00219908 0.0213821 0.00300516 0.0332569 0.00351042 0.0244011 0.00330598 0.0525866
83 3 O -1.48987 76.6241 0.236916 -1.2 1 0.000969217 0.00395572 0.00106067 0.00579339 0.00129151 0.00483436 0.00157668 0.0256038 0.00157504 0.00927446 0.00127544 0.0293445 0.00184006 0.0221593 0.00228488 0.0347967 0.00217163 0.0251919 0.00257206 0.0529653
84 3 O -1.41789 76.5416 2.82297 -1.2 1 0.00174202 0.00343498 0.000946338 0.0061543 0.00162257 0.00490482 0.00208854 0.0254408 0.00149548 0.0092595 0.0018727 0.0291447 0.00253041 0.0219934 0.00256567 0.034921 0.00190957 0.025329 0.00305392 0.0529093
85 1 Mg -2.39576 80.0626 0.0282915 1.2 1 0.000573398 0.00429621 0.000631907 0.00586574 0.000885108 0.00498531 0.000999178 0.0255348 0.000726898 0.00968636 0.000943991 0.0306259 0.00127511 0.0213576 0.00187778 0.0334025 0.00198882 0.0246498 0.00205261 0.0520337
86 1 Mg 2.33245 83.0273 1.41046 1.2 1 0.000455898 0.00341373 0.000898921 0.0060853 0.000913092 0.00510445 0.00178817 0.0247978 0.00163996 0.00915464 0.00219744 0.0299944 0.00185935 0.0212957 0.00372582 0.0334415 0.00328711 0.0250461 0.00269098 0.0526849
87 2 Si -0.394617 81.1517 1.53867 2.4 1 0.000993174 0.00360367 0.000733747 0.0070122 0.00128223 0.00527005 0.00175688 0.0246352 0.0012758 0.0090491 0.00227454 0.0289221 0.00256053 0.0217608 0.00430207 0.0334139 0.00414387 0.0244713 0.00293758 0.0534514
88 3 O 1.17959 81.0618 1.58995 -1.2 1 0.00090966 0.00345327 0.000786917 0.00630165 0.00143626 0.0048558 0.0015746 0.0243435 0.00207048 0.00865567 0.00157028 0.0297004 0.001704 0.0212009 0.00208962 0.0335971 0.00284402 0.0241876 0.00193937 0.0526242
89 3 O -1.53227 84.8661 1.47714 -1.2 1 0.000862091 0.00332094 0.00131774 0.00604964 0.000953926 0.00600737 0.00181727 0.0244852 0.00129365 0.00843658 0.00258721 0.0303202 0.00234536 0.0202764 0.00326763 0.0327178 0.0041453 0.0251265 0.00311023 0.0529879
90 3 O -1.04636 81.823 0.272205 -1.2 1 0.000327749 0.00377587 0.000752677 0.0059387 0.00172062 0.00487841 0.00185652 0.0250258 0.00118954 0.00890696 0.00154333 0.0289666 0.00240837 0.0217554 0.00329207 0.0341289 0.00325551 0.0250515 0.00240417 0.0529783
91 1 Mg -2.2767 90.4993 2.95811 1.2 1 0.00198015 0.00355324 0.00102469 0.00547148 0.00123249 0.0062089 0.00164884 0.0235157 0.00153378 0.00806946 0.00152853 0.0302507 0.00204779 0.0191183 0.00253969 0.0324287 0.00315009 0.0259126 0.00390378 0.0514725
92 3 O -1.01593 81.8726 2.7813 -1.2 1 0.000662375 0.00295866 0.000685408 0.00599785 0.00139099 0.00512649 0.00214721 0.0247979 0.00134543 0.0090677 0.00149545 0.0291219 0.00197973 0.021459 0.00270336 0.0336698 0.00265262 0.024969 0.00230068 0.0526764
93 1 Mg -2.33581 87.534 4.4676 1.2 1 0.000642271 0.00307792 0.001595 0.00581309 0.00127718 0.00577527 0.00165095 0.0240614 0.00187272 0.00833944 0.00256674 0.030341 0.00201146 0.0197135 0.00345622 0.0329572 0.00387368 0.0263354 0.00429576 0.0521561
94 2 Si 0.41449 89.4968 4.44409 2.4 1 0.00188752 0.00323308 0.00114195 0.0067717 0.00151011 0.00630397 0.00166008 0.0228909 0.00202984 0.00818889 0.00263856 0.0294905 0.00235203 0.019869 0.0034572 0.032323 0.00299038 0.0258301 0.00370361 0.0529315
95 3 O -1.14511 89.5736 4.4449 -1.2 1 0.00199621 0.00354348 0.00103053 0.00619188 0.00136289 0.00608616 0.00164757 0.0226212 0.00241999 0.00772332 0.00206919 0.0298569 0.00257338 0.0191901 0.00358592 0.0325601 0.00392206 0.0256622 0.0048926 0.0523694
96 3 O 1.28927 85.8576 4.44234 -1.2 1 0.0007491 0.00250199 0.00102383 0.00622361 0.0011552 0.00624018 0.00157619 0.024333 0.00129117 0.00798171 0.00192473 0.0302438 0.00189479 0.0198766 0.0029674 0.0325326 0.00270694 0.0260077 0.0035978 0.0525691
97 3 O 1.03184 88.9178 3.11974 -1.2 1 0.00116655 0.00315212 0.00111154 0.00570439 0.00190616 0.00573028 0.00207964 0.0233906 0.0016646 0.0083093 0.00242367 0.0291406 0.00234204 0.0197978 0.00250463 0.033292 0.00292925 0.0261974 0.00368358 0.0525515
98 3 O 1.10525 88.8265 5.70005 -1.2 1 0.00157122 0.0033367 0.00096958 0.0059793 0.00143195 0.00610069 0.00179641 0.0234883 0.00164255 0.00839116 0.00168915 0.0295971 0.00220702 0.020044 0.00247873 0.0329907 0.00233452 0.0265003 0.003061 0.0526449
99 1 Mg -0.127445 85.354 2.8658 1.2 1 0.00051081 0.00297578 0.00112263 0.00592103 0.00101348 0.00605061 0.00177136 0.024089 0.00111977 0.0086221 0.00211558 0.0306346 0.00188851 0.0199596 0.00279454 0.0323347 0.00290148 0.0252299 0.00269621 0.0519302
100 1 Mg -0.0387624 82.4012 4.42271 1.2 1 0.00152389 0.00259326 0.000512497 0.00634979 0.00114853 0.00532973 0.00153361 0.0244972 0.00212602 0.00915245 0.00224647 0.0300317 0.00225018 0.0215184 0.00294167 0.0334654 0.00305097 0.0253641 0.00309915 0.0523925
101 2 Si 2.00691 84.3492 4.34314 2.4 1 0.00088037 0.00228113 0.000803429 0.0070868 0.000852022 0.00601462 0.00153523 0.0236118 0.00173208 0.0087152 0.00260357 0.0293237 0.00182567 0.0209587 0.00382603 0.0327641 0.00301294 0.0247404 0.00316964 0.0533476
102 3 O -1.17839 84.4381 4.38429 -1.2 1 0.000871617 0.00245899 0.000593896 0.00631057 0.000894749 0.00599654 0.00180676 0.0239152 0.00242131 0.00813835 0.00205013 0.0297112 0.00166381 0.019971 0.00256821 0.0333062 0.00227854 0.0253953 0.00314037 0.0528536
103 3 O 0.985614 80.5856 4.43819 -1.2 1 0.00184921 0.0027711 0.00108826 0.00668733 0.00112782 0.00548546 0.00116232 0.0253895 0.00151711 0.00916867 0.00203063 0.0301893 0.00222662 0.0214671 0.00292471 0.0331666 0.00207843 0.0246423 0.00324875 0.0524124
104 3 O 1.32701 83.6552 3.10927 -1.2 1 0.000600664 0.0026738 0.000970478 0.00612591 0.000821298 0.00533469 0.00168763 0.0243781 0.0014392 0.00870267 0.00188975 0.0291221 0.00213733 0.0211116 0.0025374 0.0337965 0.00239836 0.0255975 0.00256194 0.0529716
105 1 Mg 0.0472247 85.3756 -0.148513 1.2 1 0.00065691 0.00382155 0.00105523 0.00535423 0.000995659 0.0053327 0.00137093 0.0244919 0.00108225 0.0086757 0.00162572 0.0302665 0.00158727 0.0205426 0.00259591 0.0329573 0.00259417 0.0248845 0.00275143 0.0526378
106 3 O 1.31707 83.707 5.68055 -1.2 1 0.00152168 0.00260284 0.00112024 0.00623755 0.00139478 0.00584825 0.0015484 0.0238934 0.00178466 0.00878248 0.00161594 0.0293772 0.00172353 0.0208105 0.00268762 0.0334639 0.00230611 0.0255471 0.00242729 0.0529268
107 1 Mg 0.183246 88.2137 1.39832 1.2 1 0.000524101 0.00349359 0.00144118 0.00576021 0.00119737 0.00531049 0.00206661 0.0237404 0.00202349 0.0086621 0.00268355 0.030121 0.00259671 0.0202899 0.00363147 0.0332285 0.00343625 0.0258062 0.00333878 0.0527414
108 2 Si -2.04967 86.4106 1.4726 2.4 1 0.000948029 0.00316593 0.00154184 0.00625605 0.00115245 0.00597705 0.00196382 0.0240381 0.00143922 0.00865578 0.00255084 0.0289189 0.0020974 0.0206755 0.0035709 0.0328401 0.0037994 0.0254007 0.00339822 0.0537657
109 3 O 1.09092 86.3305 1.46524 -1.2 1 0.000550227 0.0032886 0.00134295 0.00602543 0.00125355 0.00534722 0.00186081 0.0232827 0.00237961 0.0083468 0.0019269 0.0296272 0.00199142 0.020039 0.00243509 0.0330183 0.00406957 0.0246938 0.00267609 0.053181
110 3 O -1.03042 89.9178 1.37336 -1.2 1 0.000934411 0.00353388 0.00122166 0.00571136 0.00106467 0.00614635 0.00185795 0.0241006 0.0012468 0.00828502 0.00207676 0.0300313 0.00237456 0.0196624 0.0035051 0.0325765 0.00384776 0.0258861 0.00363181 0.0523873
111 3 O -1.2664 87.0406 0.223649 -1.2 1 0.000891417 0.00414164 0.00135293 0.00570928 0.00113402 0.0052508 0.00221206 0.0237941 0.00196159 0.00889788 0.00236845 0.0289257 0.0021645 0.020838 0.00380078 0.033222 0.00400493 0.0252035 0.00332188 0.0531457
112 3 O -1.42417 86.9758 2.78695 -1.2 1 0.000300844 0.00303417 0.00124212 0.00558941 0.00140548 0.00557515 0.00235406 0.0244655 0.00151905 0.00849156 0.00229884 0.0291602 0.00207959 0.0204148 0.00368137 0.0328839 0.0038377 0.0260026 0.00351604 0.0527067
113 1 Mg -2.44848 90.3549 -0.192351 1.2 1 0.00053436 0.00414171 0.000913124 0.00524966 0.000857987 0.00602814 0.00140406 0.0236941 0.00122827 0.00867895 0.00159326 0.0303148 0.00153929 0.0196534 0.00220048 0.0331379 0.00256732 0.0254426 0.00263942 0.0519749
114 1 Mg 2.215 93.3693 1.21444 1.2 1 0.00246716 0.00371037 0.00146886 0.00570012 0.00135283 0.00604672 0.00208822 0.0234385 0.00239696 0.00822183 0.00200377 0.0296097 0.00269058 0.0201858 0.0035636 0.0330306 0.00344719 0.0252975 0.00351219 0.0530018
115 2 Si -0.375264 91.4008 1.38453 2.4 1 0.0015686 0.00367159 0.000882493 0.00616194 0.00115385 0.00620496 0.00204434 0.0229707 0.0015562 0.00839617 0.00257449 0.0291782 0.0026587 0.0203674 0.00542864 0.0321977 0.00528497 0.0247288 0.00455739 0.0533051
116 3 O 1.18339 91.241 1.27711 -1.2 1 0.0013686 0.00371142 0.00104411 0.00558864 0.00119564 0.00610666 0.00149716 0.0233609 0.00199162 0.00804581 0.00141269 0.0298094 0.00184024 0.0191983 0.00268369 0.0327231 0.00353253 0.0253096 0.00339325 0.0524298
117 3 O -1.45039 95.1234 1.36321 -1.2 1 0.00317492 0.00373077 0.00177798 0.00578839 0.00177083 0.00650149 0.00170755 0.0237339 0.00148254 0.00787031 0.00206495 0.029603 0.0029257 0.0191149 0.00351463 0.0328219 0.00433695 0.025187 0.00417627 0.0529213
118 3 O -1.0834 92.1579 0.136787 -1.2 1 0.00133335 0.00374394 0.000938928 0.00542748 0.00128164 0.00555219 0.00211269 0.0231375 0.00157768 0.00837222 0.00133063 0.0287795 0.00224206 0.02002 0.0033983 0.0339786 0.00403657 0.0253515 0.00304887 0.0532287