ITEM: TIMESTEP
82700
ITEM: NUMBER OF ATOMS
5600
ITEM: BOX BOUNDS xy xz yz pp pp pp
0	7.1235	0
0	201.985	2.3745
0	119.584	0
ITEM: ATOMS id type element xu yu zu q Q_1 Q_2 Q_3 Q_4 Q_5 Q_6 Q_7 Q_8 Q_9 Q_10 Q_11 Q_12 Q_13 Q_14 Q_15 Q_16 Q_17 Q_18 Q_19 Q_20 Q_21
1 1 Mg -1.40653 48.1336 -1.31338 1.2 1 0.229553 0.0786233 0.0171593 0.0248963 0.00337424 0.0168948 0.00580263 0.0214439 0.0057443 0.0260283 0.00571675 0.0267568 0.00801859 0.0264014 0.00897981 0.0241961 0.00853776 0.0224611 0.00684043 0.030159
2 1 Mg 3.52052 50.159 1.95736 1.2 1 0.176941 0.0682883 0.00805061 0.0194135 0.00178757 0.0119075 0.00366556 0.0205023 0.00434224 0.0218924 0.00379165 0.0254923 0.00503961 0.0234971 0.00564346 0.0232448 0.00536883 0.0213309 0.00605567 0.0317854
3 2 Si 1.14613 49.3534 -0.408202 2.4 1 0.20183 0.0731394 0.0114189 0.0217971 0.00343258 0.0130559 0.00429299 0.02026 0.00579698 0.0238107 0.00468074 0.0258222 0.00648792 0.0255207 0.00792377 0.0237291 0.00696398 0.0212471 0.0069496 0.0300658
4 3 O 2.31215 48.5621 0.214494 -1.2 1 0.211894 0.0771986 0.0136071 0.0233255 0.00245733 0.014809 0.00464685 0.0208451 0.00633386 0.0260527 0.00456157 0.026477 0.00666382 0.0270008 0.00775544 0.0243548 0.00853223 0.0225221 0.00699046 0.0308002
5 3 O -1.04069 52.499 1.40187 -1.2 1 0.125329 0.0509872 0.00246444 0.0132296 0.00125983 0.00915309 0.00283708 0.0200912 0.0038219 0.0184118 0.0034874 0.0244485 0.00422682 0.0211738 0.00426853 0.0227943 0.00510723 0.0193013 0.00507756 0.0303623
6 3 O 0.472037 48.4164 -1.70339 -1.2 1 0.226298 0.0762066 0.0179619 0.0233437 0.00315822 0.0158702 0.00433946 0.0210807 0.00564484 0.0259582 0.00536528 0.026983 0.00760806 0.0261172 0.00725329 0.0241476 0.00714375 0.0226097 0.00609228 0.0298114
7 1 Mg -2.19462 58.2499 3.08036 1.2 1 0.0162885 0.0129184 0.00591216 0.00467605 0.000838631 0.00539048 0.00180203 0.0203757 0.00271925 0.0126009 0.00266599 0.0227905 0.00389007 0.0198711 0.00460745 0.0233861 0.00442478 0.0208743 0.0033778 0.0293714
8 3 O 0.104097 49.6107 0.713773 -1.2 1 0.188767 0.0715 0.00874281 0.0202842 0.00244366 0.0124954 0.00364041 0.0212412 0.00536175 0.022541 0.00498826 0.0256018 0.00516768 0.0254258 0.00685878 0.0234441 0.00621509 0.0210272 0.00617066 0.0309099
9 1 Mg -1.95197 55.0061 4.10931 1.2 1 0.0739071 0.0373065 0.00465353 0.00964449 0.00167435 0.00484836 0.00240724 0.0208345 0.00308289 0.0153307 0.0031074 0.0240113 0.00436347 0.0192171 0.0048603 0.022009 0.00500865 0.0214496 0.0053027 0.0311328
10 2 Si 0.567222 57.1649 4.65228 2.4 1 0.0262329 0.0181504 0.007266 0.00564924 0.00156097 0.00535976 0.00242028 0.0208639 0.00326181 0.0119369 0.00306198 0.0228853 0.00468168 0.019335 0.00434733 0.0225321 0.00490361 0.0210656 0.004007 0.0314716
11 3 O -0.949555 57.1784 4.29297 -1.2 1 0.0255193 0.0178129 0.00763226 0.00569612 0.00153482 0.00547566 0.00237161 0.0204096 0.00348105 0.0116771 0.00356307 0.022767 0.00442387 0.0195526 0.00492903 0.0226014 0.0057495 0.0209284 0.00418038 0.0308893
12 3 O 1.37567 53.2998 4.09648 -1.2 1 0.110627 0.0483511 0.00212546 0.0130317 0.00197871 0.00731195 0.00292406 0.0201547 0.00289645 0.0181441 0.00392477 0.0251316 0.00522818 0.0202208 0.00402445 0.0217801 0.00386631 0.0207943 0.00479448 0.0315397
13 3 O 1.24247 56.5794 3.35038 -1.2 1 0.0339166 0.022068 0.00886607 0.0056783 0.00152429 0.00490691 0.00219402 0.0207062 0.00305731 0.0129521 0.00290276 0.0230491 0.00471216 0.0195849 0.00505968 0.0233148 0.00506007 0.0210534 0.00453393 0.0311116
14 3 O 0.966895 56.3257 5.80857 -1.2 1 0.0430572 0.0274607 0.00726171 0.00679511 0.00134054 0.00424908 0.0017244 0.0208835 0.00278938 0.012429 0.00253743 0.0234442 0.00367366 0.0193432 0.00508022 0.0226363 0.00484557 0.0218287 0.00422831 0.0321748
15 1 Mg 0.328203 53.0106 2.65118 1.2 1 0.115322 0.049248 0.00199754 0.0126996 0.00168031 0.00765734 0.00304283 0.0198747 0.00309637 0.0182036 0.0032214 0.0242091 0.00453442 0.0205044 0.00470782 0.0216919 0.00456149 0.0201112 0.00557207 0.0312051
16 1 Mg 1.32667 48.6562 2.15654 1.2 1 0.211837 0.0785156 0.0141017 0.0239166 0.002177 0.0153396 0.00430128 0.0220556 0.00596139 0.024962 0.00550677 0.0265087 0.00639516 0.0272431 0.00778335 0.0243044 0.00823546 0.02201 0.00702958 0.0329132
17 2 Si 2.0753 51.8274 4.16117 2.4 1 0.145508 0.0593639 0.00408331 0.0167181 0.00237795 0.0102963 0.00376537 0.0198873 0.00299448 0.0199159 0.00436014 0.0256042 0.00518304 0.0212484 0.00573721 0.0231432 0.00434104 0.0212665 0.00606197 0.0326118
18 3 O -1.10684 51.7423 4.16691 -1.2 1 0.147498 0.0593935 0.00502554 0.0165792 0.00180013 0.0109639 0.00393991 0.0203697 0.00373997 0.0197719 0.00375665 0.0256466 0.00485397 0.021516 0.00476473 0.0229685 0.00457633 0.0202428 0.00581599 0.0334665
19 3 O 3.04497 48.4862 2.81098 -1.2 1 0.219616 0.0816061 0.0164611 0.0256106 0.00229196 0.017209 0.00454656 0.0227104 0.00504438 0.0246603 0.00545553 0.0268198 0.00666329 0.026371 0.0077171 0.0250159 0.00790614 0.0225024 0.00733504 0.0340229
20 3 O 1.56917 51.116 2.79743 -1.2 1 0.15261 0.0610338 0.00464321 0.0166216 0.00174448 0.0111605 0.00326108 0.0205207 0.00342291 0.0205297 0.00332558 0.0250066 0.00473209 0.0227103 0.0053179 0.0231407 0.00467815 0.0207522 0.0059525 0.0315936
21 1 Mg 0.187775 52.8891 -0.272344 1.2 1 0.124928 0.0496123 0.00255328 0.0126299 0.00190467 0.00924608 0.00272019 0.0200453 0.00305042 0.0189501 0.00298772 0.0243575 0.00391657 0.0210051 0.00424696 0.022216 0.00401678 0.0195103 0.00539636 0.0287657
22 3 O 1.48905 50.9204 5.38866 -1.2 1 0.160092 0.0643873 0.00732569 0.0186282 0.00297642 0.0111711 0.00431877 0.0206638 0.0035936 0.0207799 0.00497298 0.0261343 0.00534048 0.0231368 0.00515273 0.0240321 0.00482665 0.0213993 0.00582537 0.0338466
23 1 Mg 0.498581 56.0209 1.67653 1.2 1 0.0475571 0.0263129 0.00712837 0.00642922 0.00113869 0.00492739 0.0018942 0.0198695 0.00349941 0.0132917 0.00308665 0.023002 0.00422891 0.0197666 0.00471986 0.0221277 0.00464327 0.0192319 0.0049634 0.0299844
24 2 Si -1.85306 53.9612 1.23156 2.4 1 0.100845 0.0429494 0.00171853 0.010582 0.000770986 0.00756261 0.00210685 0.0190911 0.00325075 0.0163339 0.00247176 0.0234126 0.00350625 0.0204267 0.00429067 0.0218443 0.00471271 0.0188607 0.0048567 0.0299167
25 3 O 1.52916 53.9972 1.41114 -1.2 1 0.102733 0.0433277 0.00181433 0.0110222 0.00128119 0.00741397 0.00248513 0.0190482 0.00269829 0.0159063 0.00324071 0.0232546 0.00331753 0.019562 0.00371852 0.0217237 0.00370066 0.0192885 0.00480314 0.0295687
26 3 O -0.852952 57.6514 1.27901 -1.2 1 0.0230762 0.0169769 0.0073082 0.00493365 0.000616814 0.00509984 0.0014291 0.0206086 0.00298695 0.0122636 0.00299428 0.022437 0.0037142 0.0200667 0.00410765 0.0232583 0.00451833 0.0206567 0.00378059 0.0298923
27 3 O -1.00355 54.3846 -0.0704604 -1.2 1 0.0876277 0.038515 0.00302379 0.00838466 0.00111679 0.00597857 0.0017802 0.0194983 0.00281082 0.0152997 0.00254689 0.0229235 0.00348675 0.0204312 0.00412642 0.0226735 0.00477496 0.0194141 0.00480547 0.0298005
28 3 O -1.02959 54.7972 2.40589 -1.2 1 0.0794976 0.0364944 0.00302638 0.00863414 0.00124074 0.00608196 0.00200857 0.0199338 0.00327518 0.0154039 0.00288987 0.0229251 0.0040881 0.0201116 0.00459885 0.0212069 0.00442138 0.0195875 0.00496525 0.0302376
29 1 Mg -2.04279 58.1797 -0.31964 1.2 1 0.0160379 0.0131597 0.00552309 0.00411941 0.00105057 0.00532562 0.00204445 0.0200021 0.00286886 0.0123841 0.00274212 0.0228123 0.00311447 0.0208897 0.00463278 0.0249116 0.00452433 0.0197982 0.00299363 0.0297049
30 1 Mg 2.66479 61.0386 1.50926 1.2 1 0.00304049 0.00626317 0.00102309 0.00436955 0.00106024 0.00522756 0.00142323 0.0200276 0.00273797 0.0122948 0.00202524 0.0220704 0.00197692 0.0199594 0.00372921 0.024574 0.00377402 0.0210716 0.00264101 0.0301138
31 2 Si -0.0213099 59.0836 1.35237 2.4 1 0.0108894 0.00991705 0.00345687 0.00468881 0.000922773 0.0053704 0.00142212 0.0196591 0.00222143 0.0115355 0.00269955 0.0216536 0.00368805 0.0208605 0.00444583 0.0241849 0.00414144 0.0206077 0.003321 0.0297794
32 3 O 1.45912 59.1963 1.21368 -1.2 1 0.00999902 0.00911826 0.0033985 0.00482226 0.000902153 0.00490786 0.00191869 0.0194968 0.00283822 0.0113041 0.00229805 0.0219098 0.00291145 0.0207455 0.00478682 0.0243371 0.00377439 0.0203 0.00324878 0.0302339
33 3 O -1.19248 63.0527 1.7329 -1.2 1 0.00127036 0.00601539 0.00126349 0.00534394 0.00119335 0.00511405 0.001557 0.0198118 0.00226211 0.0120505 0.00241871 0.0225748 0.00283846 0.0199509 0.003568 0.0246428 0.00336471 0.0207642 0.00336975 0.0307669
34 3 O -0.845797 59.9881 0.223534 -1.2 1 0.00611603 0.00746104 0.0020085 0.00449227 0.000860906 0.00542202 0.00160618 0.0199587 0.00242445 0.0111353 0.00236382 0.0219972 0.00270669 0.0208716 0.00406544 0.0240839 0.00406004 0.0202457 0.0029273 0.0298222
35 1 Mg -2.38198 68.8513 3.46182 1.2 1 0.00741453 0.0039049 0.00137315 0.00678146 0.00171608 0.00625336 0.00157407 0.0205092 0.00181096 0.0111851 0.00309919 0.0249905 0.0032823 0.0189952 0.00389917 0.0270642 0.0039462 0.0239875 0.00403039 0.0328384
36 3 O -0.399157 59.7278 2.75841 -1.2 1 0.00783738 0.00831332 0.00311825 0.00493965 0.000554891 0.00549989 0.00157337 0.0199437 0.00255085 0.0117902 0.00210538 0.0210904 0.00289304 0.0207067 0.00395199 0.0243899 0.00345784 0.0213495 0.00274397 0.0294444
37 1 Mg -2.29178 65.3208 4.77377 1.2 1 0.00544935 0.00754471 0.00152477 0.00646828 0.00195298 0.00605259 0.00143539 0.0192348 0.00176207 0.0120463 0.00250352 0.0230203 0.00272594 0.0201706 0.00332043 0.0250303 0.00455608 0.0220388 0.00487466 0.0316189
38 2 Si 0.271512 67.5845 4.79161 2.4 1 0.00765156 0.00573109 0.00141922 0.00715382 0.00331186 0.00580393 0.00228433 0.0197417 0.00202523 0.0112856 0.00299922 0.0234669 0.00373946 0.0193104 0.00385434 0.0265681 0.00422016 0.0226393 0.00554095 0.0323879
39 3 O -1.28153 67.8367 4.85305 -1.2 1 0.008467 0.0053021 0.00130859 0.00725171 0.0032795 0.00563459 0.00188608 0.0197031 0.00250309 0.0115849 0.00288942 0.0244293 0.00370952 0.0193435 0.00425696 0.0264972 0.004653 0.0229394 0.00610527 0.0326942
40 3 O 1.66885 63.3109 4.64896 -1.2 1 0.00253163 0.00773247 0.00158186 0.00654067 0.00104073 0.00563623 0.00101499 0.0191312 0.00147568 0.0118984 0.00188069 0.022044 0.0017941 0.0197752 0.00284747 0.0232899 0.00375979 0.021909 0.00342692 0.0315273
41 3 O 0.885357 67.2335 3.36558 -1.2 1 0.00694198 0.00511282 0.00136979 0.00677081 0.00204262 0.00596585 0.00241593 0.0190615 0.00199972 0.0109753 0.00308471 0.0234624 0.00333203 0.0195343 0.003801 0.0254598 0.00390318 0.0223236 0.00414864 0.0317776
42 3 O 0.977872 66.6364 5.85096 -1.2 1 0.00698916 0.00725245 0.00132274 0.0065411 0.00286154 0.00653899 0.00164026 0.0205005 0.00179002 0.0125376 0.00293283 0.0238297 0.00376193 0.0203571 0.00442871 0.026415 0.00435339 0.0232584 0.0061765 0.0322498
43 1 Mg 0.117729 63.2814 3.32794 1.2 1 0.0026579 0.00720341 0.00144858 0.00585307 0.00100618 0.00523555 0.00109666 0.0190553 0.00184995 0.0121065 0.00240191 0.0227957 0.00223248 0.0195385 0.00301237 0.023688 0.00344186 0.0209817 0.00309674 0.0304173
44 1 Mg 0.357745 60.3705 4.33055 1.2 1 0.00709948 0.00807737 0.0024315 0.0054051 0.00146427 0.00573281 0.00165787 0.0202678 0.00203389 0.0122358 0.00224775 0.0215817 0.00366281 0.0201549 0.0045543 0.023731 0.00312772 0.0216747 0.00327021 0.0302873
45 2 Si 2.51428 61.7979 4.75811 2.4 1 0.00337816 0.00722578 0.00142231 0.00658054 0.00165521 0.00535712 0.00146259 0.0191957 0.00169511 0.0113107 0.00208411 0.0212677 0.00251274 0.0200939 0.0032029 0.0235013 0.0039775 0.0219046 0.00359088 0.031089
46 3 O -0.700806 62.1676 4.73748 -1.2 1 0.00353543 0.00710466 0.00129447 0.00604553 0.00216771 0.0053751 0.00223328 0.0187903 0.0013923 0.011767 0.00201704 0.0217565 0.00255693 0.0199909 0.00282088 0.0239195 0.00340528 0.0215021 0.00348936 0.0314368
47 3 O 1.254 58.5512 4.59581 -1.2 1 0.0169013 0.0132074 0.00558179 0.00537759 0.00139363 0.00560213 0.00204899 0.0205804 0.00274896 0.0121166 0.00235136 0.0228431 0.00371263 0.0196272 0.00449317 0.022817 0.00424148 0.0208783 0.00299846 0.0311158
48 3 O 2.09562 61.1402 3.45608 -1.2 1 0.00390601 0.00709769 0.00157602 0.00513843 0.00111579 0.00547391 0.00128284 0.0199017 0.00197266 0.0117153 0.00191805 0.0216522 0.00231222 0.0202605 0.00307741 0.0245131 0.00302209 0.0210876 0.00318651 0.0305414
49 1 Mg 0.170024 63.5671 0.538707 1.2 1 0.00197174 0.005124 0.00139665 0.00529004 0.00164915 0.00450533 0.00134036 0.0192213 0.00222659 0.011581 0.00201414 0.0223382 0.0024806 0.0189873 0.00327993 0.0243018 0.00382662 0.0204849 0.00334329 0.0298555
50 3 O 1.98195 61.317 6.13796 -1.2 1 0.00535337 0.00757872 0.00161436 0.00605173 0.00155421 0.00606639 0.000945365 0.0193925 0.00233459 0.0117933 0.00266609 0.0221728 0.00313839 0.0202387 0.00368834 0.0247475 0.00374786 0.0225154 0.00350041 0.0315815
51 1 Mg 0.174446 66.5367 1.64401 1.2 1 0.0058347 0.00471993 0.00152278 0.00655428 0.00172132 0.00548642 0.00143531 0.0190319 0.00256563 0.0109542 0.00247929 0.0227824 0.00270889 0.0193981 0.00317257 0.0241657 0.00406218 0.0218873 0.00396191 0.0308884
52 2 Si -2.08456 64.6131 1.83421 2.4 1 0.00373855 0.00525136 0.00160053 0.00646255 0.00184877 0.00492709 0.00178693 0.0186846 0.00222362 0.010937 0.00268746 0.0213964 0.00260878 0.0197915 0.00365709 0.0234774 0.00385591 0.0210153 0.00396823 0.0315499
53 3 O 1.18877 64.3971 1.94925 -1.2 1 0.00307654 0.00576732 0.00132841 0.00630163 0.00152997 0.00479276 0.00164038 0.0188844 0.00294955 0.0115067 0.00226011 0.0217746 0.00241457 0.0195463 0.00323551 0.0237312 0.00404559 0.0211102 0.00369862 0.0302951
54 3 O -1.0102 68.4034 1.82625 -1.2 1 0.00615695 0.00338167 0.00169897 0.0076289 0.0011591 0.00607588 0.0012995 0.0200787 0.00196844 0.0107692 0.00279664 0.0241883 0.00296435 0.0188934 0.00337634 0.0255702 0.00408619 0.0240252 0.00415411 0.0326613
55 3 O -1.35285 65.3817 0.700391 -1.2 1 0.00418213 0.00479374 0.00135293 0.00609707 0.00151005 0.0050157 0.00121462 0.0185424 0.00214784 0.0105847 0.00253518 0.0218551 0.00263816 0.0189828 0.00392494 0.0240711 0.00377197 0.0211845 0.00398177 0.0305466
56 3 O -1.42048 65.151 3.1889 -1.2 1 0.00495071 0.00616239 0.00124894 0.00568609 0.00175489 0.00565243 0.0015805 0.0192757 0.00188071 0.0108508 0.00249005 0.0219295 0.0031494 0.020195 0.0033852 0.0248919 0.00398332 0.0219687 0.00417322 0.0306403
57 1 Mg -2.62455 68.8884 0.598006 1.2 1 0.00584122 0.00283135 0.00184983 0.00699155 0.00120726 0.00597716 0.00203322 0.0202788 0.00233674 0.0108831 0.0027018 0.0250711 0.00415842 0.0187192 0.00471707 0.0263229 0.00460436 0.0240064 0.00448878 0.0324494
58 1 Mg 1.94069 71.7875 1.70877 1.2 1 0.00546972 0.00263642 0.001048 0.00742582 0.00117125 0.00599802 0.00135857 0.0213071 0.00140937 0.0107872 0.00236503 0.0260595 0.00273214 0.0196015 0.00386176 0.0294413 0.00326251 0.0260436 0.00271878 0.0345919
59 2 Si -0.447293 69.9235 2.04001 2.4 1 0.00694039 0.00245339 0.00155242 0.00811841 0.00191434 0.00585991 0.0017591 0.0194493 0.00267661 0.0108167 0.0028869 0.0248693 0.00313288 0.02042 0.00342082 0.0272627 0.00399787 0.0251 0.00401558 0.0342608
60 3 O 1.10337 69.8498 2.05608 -1.2 1 0.0069596 0.00259414 0.00169661 0.00759763 0.00123158 0.00600044 0.00170016 0.0207082 0.00316546 0.0105922 0.00226029 0.0248796 0.00372043 0.0191164 0.00461646 0.0281939 0.00396627 0.0251659 0.00424114 0.0344634
61 3 O -1.0372 73.7222 1.8633 -1.2 1 0.004298 0.00283005 0.000999422 0.00783257 0.00135194 0.00621687 0.00148266 0.0225798 0.0015546 0.0113404 0.00132316 0.027612 0.00203204 0.0203137 0.00351548 0.0297832 0.00334528 0.0264177 0.00344319 0.0358486
62 3 O -1.13802 70.6565 0.781058 -1.2 1 0.00564956 0.00245435 0.00157644 0.00666118 0.0014202 0.00602378 0.00265026 0.0212657 0.00231954 0.011197 0.00252298 0.0248926 0.00320872 0.0203855 0.00404268 0.0278378 0.00364146 0.0254028 0.00442502 0.0334597
63 1 Mg -2.05566 79.5861 3.0256 1.2 1 0.00522802 0.00512866 0.000585505 0.00830254 0.00175095 0.0059034 0.00125682 0.0224585 0.00177226 0.0117092 0.00180395 0.0276897 0.00263372 0.0199597 0.00379267 0.0294643 0.0034891 0.0272339 0.0035986 0.0354756
64 3 O -1.182 70.3284 3.38025 -1.2 1 0.00678023 0.003185 0.00172807 0.00756486 0.00217729 0.00643945 0.00247386 0.0207226 0.00266882 0.0108382 0.00282623 0.0258075 0.00346515 0.0203353 0.00392288 0.0282245 0.00429648 0.0256623 0.00379389 0.0348191
65 1 Mg -2.09988 76.7606 4.73507 1.2 1 0.00435126 0.00446264 0.00127663 0.00770451 0.00175165 0.00594661 0.00224657 0.0222462 0.0028694 0.0118266 0.00216995 0.0278746 0.00280302 0.0207293 0.003663 0.0305427 0.00445334 0.0269243 0.00366054 0.0352709
66 2 Si 0.583534 78.3351 4.76247 2.4 1 0.00483333 0.00487861 0.00111259 0.00886607 0.00304696 0.00519995 0.00242162 0.0212775 0.00233461 0.0120558 0.00285302 0.026949 0.00307299 0.0199815 0.00425609 0.0290597 0.00359909 0.0264595 0.00401726 0.0356165
67 3 O -1.04046 78.5523 4.48743 -1.2 1 0.00485088 0.00461656 0.00122316 0.00834051 0.00267978 0.00501336 0.00193602 0.0215527 0.00337757 0.0120077 0.00232881 0.0270115 0.00351149 0.02002 0.00424749 0.029471 0.00443196 0.0259716 0.00376633 0.0353498
68 3 O 1.55778 74.5566 4.72619 -1.2 1 0.00438957 0.00392797 0.00109345 0.00789257 0.00186172 0.00609628 0.00190117 0.0224405 0.00223632 0.0113933 0.0022405 0.0283448 0.00254867 0.020791 0.00301199 0.0302991 0.00369002 0.0267432 0.00322771 0.0363313
69 3 O 1.14377 78.0394 3.175 -1.2 1 0.00500947 0.0039176 0.000566087 0.00825998 0.00270541 0.00526713 0.00220605 0.0223099 0.00199841 0.0116701 0.00266115 0.0269221 0.00273723 0.0205835 0.00371097 0.0295042 0.00326895 0.0272288 0.00361388 0.0366006
70 3 O 1.27669 77.567 5.94657 -1.2 1 0.00381697 0.00518473 0.00102627 0.00843044 0.00282945 0.0062617 0.00246455 0.0219759 0.00266674 0.0120013 0.00277203 0.0267636 0.00317206 0.0206908 0.00405444 0.0299298 0.00425365 0.0262826 0.00441355 0.0351852
71 1 Mg 0.25013 74.1382 3.15789 1.2 1 0.00485343 0.00331251 0.00123232 0.00789642 0.00148739 0.00613118 0.00145882 0.0229494 0.00165162 0.0108496 0.00139354 0.0278533 0.00196883 0.0206386 0.00249676 0.0302557 0.00304695 0.0270682 0.00284278 0.0363695
72 1 Mg -0.0947188 71.0473 4.91781 1.2 1 0.00698797 0.00433859 0.00126401 0.00732499 0.00185753 0.00612215 0.0018156 0.0211742 0.00207081 0.0112287 0.00260093 0.0269239 0.00276148 0.0208745 0.00331199 0.0297604 0.00487277 0.0257379 0.00392334 0.0347552
73 2 Si 2.12406 73.0832 5.02019 2.4 1 0.00545804 0.0039618 0.00165405 0.00792419 0.00251288 0.00538875 0.00229476 0.0208564 0.00211219 0.0104438 0.00222822 0.0269599 0.00206865 0.0211412 0.00408011 0.0300488 0.00415281 0.0260261 0.00348774 0.0359953
74 3 O -0.981359 73.0652 4.91464 -1.2 1 0.00563874 0.00387891 0.00132248 0.00765633 0.00266319 0.00578794 0.00164859 0.0212182 0.00296384 0.0104734 0.00216077 0.0271715 0.00243488 0.0203917 0.00348851 0.0298852 0.00460391 0.0256511 0.00404677 0.0357285
75 3 O 0.886395 69.1484 4.97885 -1.2 1 0.0078444 0.0049575 0.00154436 0.0073993 0.00263703 0.00616815 0.00165934 0.0208873 0.0022725 0.0116444 0.00264828 0.0257013 0.00358685 0.0196553 0.00517165 0.0271533 0.00464131 0.0234805 0.00582186 0.0342239
76 3 O 1.535 72.3356 3.68077 -1.2 1 0.0064043 0.00358809 0.00129886 0.00738543 0.00242695 0.00586698 0.00176141 0.0219955 0.00183884 0.0105061 0.00218889 0.026502 0.00244894 0.0209044 0.00340593 0.0299715 0.00355597 0.0267553 0.00300494 0.0360459
77 1 Mg 0.0394907 74.3358 0.0730026 1.2 1 0.00356763 0.00244927 0.00129785 0.00760086 0.00160008 0.00616201 0.00141715 0.0220872 0.001664 0.0115861 0.00225296 0.0273149 0.00321839 0.0200491 0.00359829 0.0289086 0.00379491 0.0253868 0.00329542 0.0350125
78 3 O 1.40183 72.2961 6.17478 -1.2 1 0.00608349 0.00476021 0.00166902 0.00766852 0.0027148 0.00634857 0.00210556 0.0209567 0.00215499 0.0108375 0.00268154 0.0268055 0.0026588 0.0219037 0.00386412 0.031237 0.00551292 0.0261471 0.00551336 0.0351222
79 1 Mg 0.345024 77.4778 1.58362 1.2 1 0.00507364 0.00362707 0.00106578 0.00779276 0.00151903 0.00552552 0.00156341 0.0224492 0.00169198 0.0119566 0.00216748 0.0279153 0.00220894 0.0210129 0.00292625 0.0300936 0.00321556 0.0264874 0.00347283 0.035898
80 2 Si -1.69469 75.1178 1.80276 2.4 1 0.00431398 0.00274217 0.00125459 0.00821501 0.00203333 0.00577957 0.00197555 0.0217417 0.00180902 0.0111325 0.00214916 0.0276751 0.0029407 0.0212383 0.00438918 0.0294046 0.00413684 0.0256811 0.00316121 0.0364154
81 3 O 1.36701 75.0565 1.75851 -1.2 1 0.00425409 0.00224802 0.00118526 0.00852491 0.00164769 0.00549498 0.00135724 0.0215018 0.00173906 0.0107598 0.0017478 0.0274885 0.00228305 0.0206472 0.00425004 0.0299977 0.00336619 0.0259058 0.00390214 0.0359355
82 3 O -0.669367 79.238 1.54984 -1.2 1 0.0052525 0.00412245 0.000666578 0.00879079 0.00145881 0.00567663 0.00162164 0.0225304 0.00138092 0.011759 0.00168164 0.0275288 0.00242825 0.0202672 0.00395309 0.028698 0.00425369 0.0264919 0.00364672 0.0361816
83 3 O -1.36823 75.9586 0.576546 -1.2 1 0.00449655 0.00282844 0.00151368 0.00762068 0.00220077 0.00523764 0.00154584 0.0219971 0.00168408 0.0116147 0.00147863 0.0270434 0.00285347 0.0215483 0.00368326 0.0305415 0.00403455 0.0260352 0.00358498 0.0355748
84 3 O -1.11073 76.0044 3.00404 -1.2 1 0.0048068 0.0036788 0.0011805 0.00756937 0.00148433 0.00548793 0.00209746 0.022796 0.00123013 0.0111257 0.0017553 0.0270718 0.00227404 0.0212159 0.00324942 0.0307755 0.00298434 0.0272892 0.00309505 0.0361483
85 1 Mg -2.20593 79.5479 0.138531 1.2 1 0.00447139 0.00406711 0.000573321 0.00826531 0.00163101 0.0059811 0.00131601 0.0225719 0.00168993 0.0120881 0.00158211 0.0280166 0.00219547 0.0202958 0.003114 0.0300009 0.00312815 0.0266866 0.00311923 0.0361613
86 1 Mg 2.31296 82.4037 1.3588 1.2 1 0.00618389 0.00510656 0.000799746 0.00835955 0.00155591 0.00508069 0.00134702 0.021696 0.00273017 0.0120807 0.00208395 0.0266165 0.00217095 0.021193 0.00385381 0.0293345 0.00310911 0.0265229 0.00297453 0.0355653
87 2 Si -0.0811085 80.6559 1.67475 2.4 1 0.0062602 0.00480103 0.00069113 0.00940392 0.00174477 0.00509661 0.00173608 0.0216991 0.00182719 0.0115256 0.00226757 0.0262584 0.00298624 0.0203677 0.00431448 0.0295152 0.0036568 0.0270314 0.00345891 0.0360491
88 3 O 1.50541 80.6154 1.6993 -1.2 1 0.00570757 0.00468946 0.000917593 0.00925758 0.00165538 0.00493336 0.0013662 0.0216158 0.00254329 0.0113774 0.0021475 0.0265509 0.00227281 0.0203549 0.00335906 0.0297042 0.0036597 0.026586 0.00301762 0.0362258
89 3 O -1.16496 84.4356 1.41291 -1.2 1 0.00677321 0.00517139 0.00121749 0.00869242 0.00163183 0.00530517 0.00176142 0.0226174 0.00146813 0.0122174 0.00234316 0.0267182 0.00229983 0.0206927 0.00365054 0.0275471 0.0032081 0.0257403 0.00423962 0.0346775
90 3 O -0.745343 81.5621 0.430435 -1.2 1 0.00550865 0.00475816 0.000839783 0.00860016 0.00160858 0.00540114 0.00139743 0.0224223 0.00219403 0.0117105 0.00170447 0.0260088 0.00236649 0.0213167 0.00339974 0.0298735 0.00279589 0.0269763 0.00255863 0.0361556
91 1 Mg -2.06543 90.1501 2.72818 1.2 1 0.00527127 0.00492407 0.00179747 0.00697689 0.000820016 0.00502315 0.00193717 0.0212532 0.00183377 0.0114838 0.00180726 0.0251716 0.00219984 0.0203798 0.00292254 0.0286029 0.00320619 0.0251737 0.00420871 0.0320781
92 3 O -0.705741 81.2788 3.0164 -1.2 1 0.00616204 0.00547532 0.000684503 0.00857127 0.00158221 0.00518027 0.00149687 0.0216751 0.00163081 0.0114278 0.00166192 0.0263582 0.002572 0.0205977 0.0040219 0.0294603 0.00354063 0.0274942 0.00367393 0.0356823
93 1 Mg -1.85175 87.1983 4.63684 1.2 1 0.00676382 0.00541259 0.00214625 0.00794138 0.00179127 0.00506472 0.00205633 0.0215236 0.00261934 0.0119384 0.0031344 0.0257203 0.00350146 0.0207147 0.00401172 0.0279291 0.00425772 0.0257103 0.00553942 0.032415
94 2 Si 0.64904 89.112 4.47626 2.4 1 0.00574921 0.00496525 0.00254356 0.00779381 0.00189891 0.00502559 0.00191443 0.0209866 0.00133525 0.0114108 0.00322274 0.0246878 0.00365727 0.021206 0.00410384 0.0275615 0.00415723 0.0252741 0.00520768 0.0325596
95 3 O -0.913692 89.1206 4.28711 -1.2 1 0.00617881 0.00482098 0.0027616 0.00780492 0.00192177 0.00504899 0.00157847 0.020967 0.00259309 0.0112453 0.00244444 0.024856 0.00364315 0.0204937 0.00430176 0.0279184 0.00384744 0.0254179 0.00574086 0.0323194
96 3 O 1.64709 85.1436 4.76916 -1.2 1 0.00605423 0.00563287 0.00174363 0.00878252 0.00198489 0.00556872 0.00145981 0.0215407 0.0014722 0.0124188 0.00234567 0.0260987 0.00348748 0.0201526 0.00442442 0.0271102 0.00382129 0.0256962 0.00542099 0.0329457
97 3 O 1.41721 88.159 3.15482 -1.2 1 0.00646747 0.0049359 0.00256685 0.00716303 0.00163858 0.0050424 0.00147002 0.0213647 0.00204216 0.0112604 0.0028313 0.0248502 0.00377335 0.021545 0.00380532 0.0283113 0.00393579 0.0254676 0.00556349 0.0328054
98 3 O 1.12926 88.4339 5.79008 -1.2 1 0.00521077 0.00589313 0.0028006 0.00793344 0.0017295 0.00528043 0.00245125 0.0213775 0.00209482 0.0112738 0.00256948 0.0250357 0.00300323 0.0218938 0.00359726 0.0280829 0.0039361 0.026121 0.00509095 0.0323376
99 1 Mg 0.0312073 84.7398 2.97734 1.2 1 0.00728635 0.00541234 0.0011641 0.00813043 0.00186129 0.00523236 0.00191745 0.022281 0.00150729 0.0119524 0.00205635 0.0259771 0.00300402 0.0201991 0.0039851 0.0279928 0.00360013 0.0264068 0.00467034 0.0330313
100 1 Mg 0.348821 81.6804 4.75615 1.2 1 0.00575533 0.00627392 0.000584451 0.00879676 0.00187878 0.00588872 0.0016745 0.0225178 0.00227677 0.0121085 0.00203962 0.0270473 0.00310862 0.0201882 0.00452999 0.0285956 0.00440318 0.0267654 0.00423062 0.0347805
101 2 Si 2.37789 83.721 4.5711 2.4 1 0.00644056 0.00586724 0.0010521 0.00961322 0.00212078 0.00524704 0.00176243 0.0211666 0.00271833 0.0115156 0.00291256 0.0256873 0.003323 0.0207684 0.00541364 0.0276825 0.00492639 0.0262754 0.00436315 0.0340092
102 3 O -0.890875 83.644 4.64038 -1.2 1 0.00612482 0.0056634 0.00117053 0.00919135 0.00209577 0.0050856 0.00114566 0.0210614 0.00269695 0.0116959 0.00212321 0.0261927 0.00219207 0.0204198 0.0044814 0.0285643 0.00374145 0.026275 0.00498554 0.0341391
103 3 O 1.15062 79.9478 4.86517 -1.2 1 0.00478154 0.0061052 0.00124161 0.0089805 0.00239986 0.00602952 0.00174792 0.0222871 0.00225818 0.0122781 0.00286811 0.0275874 0.00311931 0.0199344 0.00398293 0.0284977 0.00362832 0.0262904 0.00393481 0.0347933
104 3 O 1.79608 83.2033 3.18581 -1.2 1 0.00677459 0.00552929 0.000579121 0.00863504 0.0019463 0.00517648 0.000882776 0.0218932 0.00230932 0.0116131 0.00173307 0.026107 0.00290245 0.0209562 0.00435707 0.0284424 0.00383466 0.0266894 0.00425962 0.034861
105 1 Mg 0.247671 85.013 -0.0644407 1.2 1 0.00621053 0.00431812 0.00167175 0.00811482 0.00172372 0.00529813 0.00153151 0.02258 0.00117474 0.01174 0.00244431 0.0262377 0.00181484 0.020666 0.00305005 0.027996 0.0027315 0.0258287 0.0043004 0.0348299
106 3 O 1.6544 83.0158 5.68735 -1.2 1 0.00576904 0.00595045 0.000824734 0.00859475 0.00216597 0.00598289 0.00199308 0.0221051 0.00221896 0.0120849 0.00207839 0.0261514 0.00365619 0.0206353 0.0048341 0.0284675 0.00458738 0.0264486 0.00472463 0.0334197
107 1 Mg 0.387054 87.68 1.57988 1.2 1 0.00612004 0.00454395 0.00250931 0.00710523 0.00151179 0.00494754 0.00180072 0.0221618 0.00180133 0.0116037 0.00287966 0.025307 0.0027671 0.0207682 0.0039221 0.0282936 0.00373762 0.0255436 0.00597883 0.0326669
108 2 Si -1.72488 85.992 1.56363 2.4 1 0.00718676 0.00416855 0.00185503 0.00864208 0.00200952 0.0048795 0.00203729 0.021596 0.00159379 0.0110644 0.00268136 0.0257307 0.00238015 0.0209896 0.00418341 0.0280872 0.00356673 0.0257174 0.00565245 0.0339928
109 3 O 1.4024 85.6612 1.46217 -1.2 1 0.00691985 0.00453035 0.00156074 0.00805471 0.00182365 0.00497957 0.00191256 0.0216764 0.00221394 0.0111935 0.00204783 0.0261365 0.00306217 0.0207194 0.00361119 0.0279107 0.00359944 0.0254931 0.00504019 0.0341147
110 3 O -0.518714 89.8687 1.32142 -1.2 1 0.00541086 0.00421597 0.00185377 0.00712151 0.00129218 0.00527954 0.00162565 0.0213741 0.00192866 0.0118061 0.0024406 0.0252651 0.00297708 0.020998 0.00353248 0.0275489 0.00342579 0.0243343 0.00485613 0.0326836
111 3 O -1.19682 86.7527 0.357678 -1.2 1 0.00630678 0.00440353 0.00237623 0.00717747 0.00158579 0.00494951 0.0021266 0.0213683 0.00219049 0.011227 0.00269466 0.0254221 0.0026906 0.021822 0.00370487 0.0287204 0.00353238 0.0249146 0.00519226 0.0335053
112 3 O -1.08261 86.5315 2.90895 -1.2 1 0.00721671 0.0046232 0.0021431 0.00792554 0.00231223 0.00493455 0.00344438 0.0218359 0.00205954 0.0116074 0.00265685 0.0249064 0.00326059 0.0209273 0.00349154 0.0280056 0.00358618 0.0258597 0.0053473 0.0327565
113 1 Mg -2.22484 90.1595 -0.145512 1.2 1 0.00418586 0.00383677 0.00160805 0.0065164 0.000989411 0.00578868 0.00129143 0.0211877 0.00152673 0.011753 0.00206905 0.025239 0.00276022 0.0213827 0.00280528 0.0283323 0.00420115 0.0239763 0.00445193 0.0322413
114 1 Mg 2.41959 92.9753 1.73663 1.2 1 0.0022001 0.00546585 0.00105654 0.00630041 0.00072671 0.00533312 0.00151295 0.0206157 0.00227789 0.0117056 0.00254194 0.0246081 0.00301557 0.0221436 0.00377198 0.0297298 0.00418363 0.0245512 0.00413298 0.0329032
115 2 Si 0.0655702 91.2428 1.27217 2.4 1 0.00402414 0.00393538 0.00131811 0.00717239 0.0016016 0.00517721 0.00185966 0.0208489 0.00165653 0.011187 0.0024618 0.0241538 0.00277965 0.0217246 0.00306575 0.028523 0.00417569 0.0241417 0.00421075 0.0331952
116 3 O 1.56791 91.3382 1.38362 -1.2 1 0.00380393 0.00422997 0.00112598 0.0071225 0.00177353 0.00481217 0.00171042 0.020511 0.00185722 0.0110572 0.00207643 0.0244962 0.00250733 0.0214448 0.00251398 0.0290153 0.00402489 0.0238444 0.00415349 0.0330542
117 3 O -1.22741 95.0484 1.64354 -1.2 1 0.000886152 0.00651712 0.000724063 0.0065552 0.00111775 0.00531965 0.00183464 0.0214124 0.00170433 0.011678 0.00184668 0.0250633 0.00289547 0.0211417 0.00283916 0.0288931 0.00422527 0.0241887 0.00382376 0.034298
118 3 O -0.740622 91.8994 0.0558903 -1.2 1 0.0022841 0.00427383 0.0011103 0.0069324 0.00147501 0.00546973 0.00219951 0.0211396 0.00194216 0.0110668 0.00231681 0.0240284 0.0035906 0.0220146 0.00368832 0.027964 0.00478293 0.0236663 0.00434764 0.0332718
119 1 Mg -2.46243 100.637 3.01871 1.2 1 0.00690682 0.00575292 0.00132193 0.00731374 0.00203671 0.00638745 0.00196463 0.022337 0.00160961 0.0110474 0.00177773 0.0270322 0.00273856 0.0220414 0.00371155 0.030974 0.00301878 0.023997 0.00412655 0.0372541