ITEM: TIMESTEP
94300
ITEM: NUMBER OF ATOMS
5600
ITEM: BOX BOUNDS xy xz yz pp pp pp
0	7.1235	0
0	201.985	2.3745
0	119.584	0
ITEM: ATOMS id type element xu yu zu q Q_1 Q_2 Q_3 Q_4 Q_5 Q_6 Q_7 Q_8 Q_9 Q_10 Q_11 Q_12 Q_13 Q_14 Q_15 Q_16 Q_17 Q_18 Q_19 Q_20 Q_21
1 1 Mg -1.80819 46.8872 -0.881949 1.2 1 0.231436 0.0797969 0.0176782 0.0242324 0.00356425 0.0168792 0.00288383 0.0185409 0.00526933 0.0236297 0.00443795 0.025276 0.00757373 0.0248732 0.00776219 0.022307 0.00854098 0.018187 0.00813433 0.0242031
2 1 Mg 2.93436 49.0547 2.07833 1.2 1 0.184325 0.0689107 0.0102122 0.0168146 0.00306338 0.0107591 0.00297708 0.0167367 0.00474631 0.0200139 0.00409594 0.0225461 0.0059293 0.0232129 0.00684787 0.0221487 0.00710934 0.0163455 0.00609408 0.0235507
3 2 Si 0.748467 48.6926 0.137566 2.4 1 0.193516 0.0728032 0.0113315 0.0197178 0.00365667 0.0124756 0.00274471 0.0180022 0.0043394 0.0215621 0.00369673 0.0242542 0.00614733 0.0254717 0.00672746 0.0221824 0.00754228 0.017067 0.00625362 0.0239659
4 3 O 2.21317 48.0058 0.500397 -1.2 1 0.205166 0.0757599 0.013025 0.0211103 0.00410073 0.0143991 0.00282195 0.0178585 0.00465561 0.0217096 0.00440192 0.0242531 0.00714418 0.0248735 0.00764283 0.0227231 0.00820328 0.0174545 0.006629 0.0239637
5 3 O -1.43881 51.7247 1.53015 -1.2 1 0.12457 0.0511978 0.00278165 0.011812 0.00253964 0.00931194 0.00223156 0.0168112 0.00328947 0.0177766 0.00285249 0.0228397 0.00463362 0.0216831 0.00523365 0.0216651 0.00817045 0.0165672 0.00455464 0.0238282
6 3 O 0.137985 47.6224 -0.79801 -1.2 1 0.213759 0.0754849 0.0144016 0.0214367 0.00377776 0.0148659 0.00262204 0.018776 0.00450829 0.0224691 0.00530166 0.0240718 0.00656458 0.0244655 0.00768715 0.0224907 0.00860155 0.0173204 0.00623367 0.0237991
7 1 Mg -2.46777 57.1003 2.79536 1.2 1 0.0155929 0.0169332 0.00617174 0.00675345 0.0023109 0.00660642 0.00232717 0.0182979 0.00324096 0.0131631 0.00287946 0.0230614 0.00467651 0.0208529 0.00497736 0.0245244 0.00524336 0.0222231 0.00480766 0.0289493
8 3 O 0.00631393 49.0187 1.58002 -1.2 1 0.183 0.0689541 0.00968035 0.0173684 0.00286457 0.0110418 0.00310145 0.0173278 0.00390442 0.021273 0.00363312 0.0221129 0.00653218 0.0240941 0.00699529 0.0221344 0.00730106 0.0167925 0.00549088 0.0237389
9 1 Mg -2.4351 54.4433 4.30574 1.2 1 0.0627294 0.0355493 0.00555164 0.00785058 0.00222789 0.00638515 0.00217348 0.017867 0.0034517 0.0160471 0.00238331 0.0228591 0.00335693 0.022234 0.00475526 0.0228618 0.00541543 0.0201217 0.00533606 0.0254205
10 2 Si 0.381398 56.6992 4.56631 2.4 1 0.0185377 0.0185526 0.00615326 0.00692492 0.002289 0.00673494 0.00295066 0.0183771 0.0027961 0.0133619 0.0028121 0.022934 0.00413898 0.0208854 0.00486643 0.0244352 0.00480491 0.0220845 0.00428094 0.0278911
11 3 O -1.13812 56.6695 4.47171 -1.2 1 0.0171598 0.0178314 0.00630805 0.00670011 0.00232029 0.00651863 0.00305791 0.0177757 0.00338976 0.0129482 0.00258283 0.0230082 0.00436146 0.0211066 0.00434652 0.0248293 0.00536934 0.0222231 0.00534997 0.0280232
12 3 O 1.67592 52.5269 4.58445 -1.2 1 0.108655 0.0468352 0.00181589 0.0100595 0.00240985 0.00723471 0.00289535 0.0167852 0.00347133 0.0180277 0.00259942 0.0226642 0.00376665 0.0230285 0.00499141 0.0214798 0.00624362 0.0189234 0.00536512 0.023684
13 3 O 1.05001 55.5635 3.40759 -1.2 1 0.0370889 0.0270582 0.00678549 0.00655348 0.00201859 0.00684589 0.00176546 0.0182892 0.003396 0.0146994 0.00212044 0.0231073 0.00384211 0.0225623 0.00534755 0.0244014 0.00626136 0.0208955 0.00507938 0.0269241
14 3 O 1.05772 56.1377 6.01076 -1.2 1 0.0260687 0.0227522 0.00660569 0.00647883 0.00136076 0.00687095 0.00201254 0.0187308 0.00234813 0.0135343 0.00281293 0.0224968 0.00330285 0.0209078 0.00420792 0.0245221 0.00410167 0.0223697 0.00437567 0.0277066
15 1 Mg 0.241956 51.6057 2.79037 1.2 1 0.122258 0.0530723 0.00153012 0.0114725 0.00245516 0.00825097 0.00210974 0.016191 0.00300521 0.0185907 0.00310934 0.0229056 0.00418185 0.0216663 0.00561066 0.0211982 0.00592157 0.016965 0.00522096 0.0235962
16 1 Mg 0.763354 48.4584 3.50275 1.2 1 0.206335 0.0707845 0.0156146 0.0185243 0.00452592 0.0113082 0.00346426 0.0175437 0.00480686 0.0221703 0.00443988 0.0223959 0.00668994 0.0246455 0.00679412 0.0228238 0.00679557 0.0169063 0.00666666 0.0240388
17 2 Si 2.49128 50.9707 4.72972 2.4 1 0.149169 0.056978 0.00711309 0.0136074 0.00358776 0.00752985 0.00308879 0.0158571 0.00393733 0.0187156 0.00412163 0.0218252 0.00464626 0.0234276 0.00420931 0.0222213 0.00513299 0.0171558 0.00546085 0.0224406
18 3 O -0.840815 51.3233 4.32356 -1.2 1 0.13864 0.0543117 0.00486643 0.0123661 0.00319166 0.00726513 0.00246384 0.0156079 0.00356471 0.0182359 0.00305809 0.0223197 0.00445706 0.0237491 0.00444532 0.0219073 0.00628748 0.0171255 0.0051369 0.0233174
19 3 O 2.31652 47.4679 3.40243 -1.2 1 0.22785 0.0755926 0.0193505 0.0211983 0.00471023 0.0124392 0.00303599 0.0178796 0.00534497 0.0224249 0.00601885 0.0235003 0.00834258 0.0241544 0.00819529 0.0221885 0.00829938 0.0182321 0.00696017 0.0235789
20 3 O 1.87698 50.2105 3.41649 -1.2 1 0.158268 0.0620614 0.00701348 0.0139019 0.00303203 0.00867806 0.00280622 0.0160727 0.0040313 0.0196938 0.00377065 0.0225749 0.00478468 0.0237662 0.00595192 0.0225615 0.00667106 0.0170698 0.00575363 0.0231808
21 1 Mg -0.379879 52.3276 0.0199264 1.2 1 0.108324 0.0472912 0.00227617 0.0108924 0.00250338 0.00879592 0.00222627 0.0162501 0.0032815 0.0181066 0.00326921 0.0233862 0.00457508 0.0214724 0.0053633 0.0216892 0.00686289 0.0169558 0.00512876 0.024585
22 3 O 1.70228 50.2124 5.88297 -1.2 1 0.165342 0.0604123 0.00937556 0.014975 0.00305975 0.00761197 0.00317887 0.0157331 0.00445826 0.0193154 0.00411563 0.0219551 0.00484216 0.0237883 0.00429365 0.0223432 0.00506728 0.0179462 0.00537796 0.0225237
23 1 Mg 0.0928449 54.9347 1.53686 1.2 1 0.0503229 0.0299999 0.00688963 0.0066308 0.00222751 0.00653336 0.00227377 0.0164386 0.00351405 0.0149089 0.00242567 0.0232259 0.00391384 0.020907 0.00495557 0.0229957 0.00629427 0.0192032 0.00584639 0.0269249
24 2 Si -2.16139 53.0231 1.57936 2.4 1 0.0985192 0.044116 0.00254128 0.0094258 0.00235998 0.00721685 0.00224877 0.0162567 0.00293236 0.0166791 0.00220794 0.0225642 0.00417728 0.0220673 0.0054409 0.0216438 0.0076837 0.0174242 0.00573642 0.0251017
25 3 O 1.02547 53.0668 1.5142 -1.2 1 0.0975107 0.0433711 0.00295709 0.00963766 0.00225439 0.00776772 0.00227388 0.015759 0.00281368 0.0164568 0.00250029 0.0230216 0.00387874 0.0214675 0.00534308 0.0217956 0.00698722 0.017399 0.00520894 0.0243244
26 3 O -0.998375 57.0341 1.26219 -1.2 1 0.0176129 0.0176618 0.00703874 0.00649876 0.00184529 0.00674839 0.00165061 0.0187657 0.00391957 0.0136562 0.00272129 0.023973 0.00405265 0.0208526 0.00556213 0.0248105 0.00615705 0.0217661 0.00539643 0.0299561
27 3 O -1.52979 53.8461 0.0868187 -1.2 1 0.0745216 0.0375644 0.00532856 0.00775117 0.00270881 0.0062385 0.00217486 0.0166114 0.00337171 0.0155009 0.00250701 0.0229118 0.00471148 0.0213974 0.00556985 0.0223362 0.00788336 0.0176814 0.00539825 0.0263234
28 3 O -1.36901 53.8989 2.53612 -1.2 1 0.0797122 0.0382776 0.00270992 0.00796971 0.002429 0.00695277 0.0025397 0.0171231 0.00376008 0.0165029 0.0022021 0.0228671 0.00342058 0.0221861 0.0052314 0.0223974 0.0062472 0.0189974 0.00569914 0.0249083
29 1 Mg -2.53433 57.607 -0.1446 1.2 1 0.0130402 0.0143988 0.00541563 0.00748313 0.00188221 0.00679244 0.00172611 0.0190157 0.00359017 0.0131964 0.00250492 0.0250618 0.00447315 0.0212082 0.00606165 0.0254467 0.00660756 0.0226293 0.00541928 0.0312474
30 1 Mg 2.50521 60.4528 1.4563 1.2 1 0.00127461 0.00791011 0.00184224 0.00863101 0.00131963 0.00628105 0.00187141 0.0199076 0.00281269 0.0117683 0.00284128 0.025079 0.00410026 0.0206586 0.00573177 0.0259524 0.00557986 0.02328 0.00464387 0.0325354
31 2 Si -0.28675 58.4704 1.33934 2.4 1 0.00758316 0.01142 0.00408366 0.00796535 0.00173911 0.00607407 0.00171896 0.0187184 0.00227016 0.0123692 0.00335242 0.0233597 0.00500022 0.0211896 0.00649304 0.0251453 0.00674798 0.0222662 0.00540598 0.0312814
32 3 O 1.28054 58.4516 1.32373 -1.2 1 0.00653481 0.0110681 0.00385257 0.00799534 0.00176035 0.00606983 0.00155199 0.018449 0.00274296 0.0120335 0.00262879 0.0238001 0.00480027 0.0210769 0.00504983 0.0255441 0.00589432 0.0226534 0.00458679 0.0312563
33 3 O -1.36085 62.3842 1.49126 -1.2 1 0.00171121 0.00643135 0.00199293 0.0090745 0.00134518 0.00649441 0.00166326 0.0202275 0.00194891 0.0123019 0.00251608 0.0251984 0.0036494 0.0206023 0.00470439 0.0253314 0.00598148 0.0228382 0.00436426 0.0330084
34 3 O -0.959967 59.1964 0.139815 -1.2 1 0.00397425 0.00982721 0.00319463 0.0081916 0.00164168 0.0062692 0.00204846 0.0195819 0.00275315 0.0114264 0.00318396 0.0249621 0.00483337 0.0218406 0.005533 0.026654 0.00633668 0.0242723 0.00517778 0.0326542
35 1 Mg -2.16447 68.4306 3.01662 1.2 1 0.00226619 0.00485405 0.00103125 0.00982369 0.00197452 0.00630244 0.00140203 0.0199634 0.00129781 0.011817 0.00259612 0.0254974 0.00279005 0.0190031 0.00323716 0.0258765 0.00345811 0.0231701 0.004281 0.0337082
36 3 O -0.659231 59.244 2.62426 -1.2 1 0.00341312 0.00998323 0.00287226 0.00771917 0.00200741 0.00630557 0.00179828 0.0191699 0.00237531 0.0121767 0.0025746 0.0236468 0.00424123 0.0209279 0.00562158 0.0259726 0.0052599 0.0227346 0.00429136 0.0305562
37 1 Mg -1.96247 65.3965 4.37613 1.2 1 0.00102051 0.00451643 0.0015704 0.0100109 0.00176606 0.0066886 0.00169248 0.0199369 0.00157822 0.0113842 0.00284534 0.0244684 0.00332167 0.0206834 0.00350185 0.0263171 0.004836 0.0230219 0.00426581 0.0335039
38 2 Si 0.573302 67.1931 4.28588 2.4 1 0.00304778 0.00418222 0.00168616 0.0107379 0.00274864 0.00598201 0.00278786 0.0186824 0.00150059 0.0101408 0.00191769 0.0238124 0.00259819 0.0208311 0.00305834 0.026697 0.00379481 0.0230541 0.00383543 0.0337282
39 3 O -0.879164 67.4375 4.2823 -1.2 1 0.00298604 0.0039173 0.00140775 0.0113271 0.00227974 0.00594189 0.002006 0.0182699 0.00178825 0.0103834 0.00278578 0.0236839 0.0028437 0.0199223 0.00328884 0.0266065 0.00362207 0.0225432 0.00430926 0.0346196
40 3 O 1.74476 63.5046 4.24155 -1.2 1 0.00140485 0.00504431 0.00146392 0.00928822 0.00226668 0.00686107 0.000989514 0.0202428 0.00209737 0.011319 0.00273296 0.0243511 0.00345223 0.0207016 0.0054241 0.0255968 0.00518556 0.0227475 0.00445577 0.0328014
41 3 O 1.41596 66.7157 3.03967 -1.2 1 0.0017353 0.00440552 0.00180279 0.0103387 0.00214358 0.00610236 0.0022597 0.0188843 0.00209501 0.0116828 0.00318845 0.0245119 0.00310086 0.02074 0.00368478 0.0261941 0.00366318 0.0224556 0.00386192 0.0335163
42 3 O 1.34014 66.8314 5.60166 -1.2 1 0.00279126 0.00461429 0.000889408 0.0110176 0.00253074 0.00665527 0.00284828 0.0200424 0.00225953 0.0108861 0.00273357 0.0243377 0.00323106 0.0206029 0.00295548 0.0270787 0.00322239 0.0240328 0.00301094 0.0344215
43 1 Mg 0.20866 63.0748 3.16266 1.2 1 0.00168174 0.00547022 0.00186234 0.00928138 0.00183204 0.00671792 0.00169536 0.020105 0.00249809 0.0121916 0.00293694 0.025137 0.00359989 0.0202268 0.00463508 0.02587 0.0057494 0.0226286 0.00419768 0.0324282
44 1 Mg 0.551942 60.0247 4.09557 1.2 1 0.000865622 0.00916742 0.00240976 0.00751138 0.00266803 0.00688225 0.00141928 0.0197205 0.00201719 0.0124952 0.00335417 0.0240983 0.00387148 0.0207063 0.00433075 0.0268043 0.00445051 0.0237362 0.0041269 0.0300945
45 2 Si 2.41404 62.0633 4.49628 2.4 1 0.00147431 0.00642955 0.00212159 0.0096559 0.00310585 0.00615693 0.0018058 0.0189019 0.00255847 0.0104278 0.00314238 0.0233494 0.003495 0.0205924 0.00438257 0.0255118 0.00468493 0.0228137 0.00418761 0.0312803
46 3 O -0.812286 62.3928 4.49655 -1.2 1 0.00151205 0.00586241 0.00182093 0.00933843 0.00287138 0.00664425 0.00168991 0.0196035 0.00320453 0.0106589 0.0029701 0.0240201 0.00378183 0.0200363 0.00495232 0.0258417 0.00554186 0.0230047 0.00452935 0.0313405
47 3 O 1.18408 57.8645 4.24512 -1.2 1 0.00986282 0.0142943 0.00490842 0.00677255 0.00251027 0.00628992 0.00239693 0.0182507 0.0030078 0.0125206 0.00253746 0.0234486 0.00386349 0.0199665 0.00451006 0.0249538 0.00435141 0.02233 0.00443194 0.029099
48 3 O 1.8119 61.0753 3.34502 -1.2 1 0.000927055 0.00706382 0.0018662 0.00877013 0.0027275 0.00641338 0.00161912 0.019711 0.00197612 0.0110098 0.00240847 0.0241069 0.00353721 0.0207233 0.00468098 0.0263195 0.00518224 0.0230914 0.00446395 0.0311438
49 1 Mg -0.0870319 62.7267 -0.1076 1.2 1 0.00187204 0.00609574 0.00146791 0.00947641 0.00146959 0.00678524 0.00163492 0.0197034 0.00192826 0.0121002 0.00265001 0.0263707 0.00373564 0.0201589 0.00466435 0.0257661 0.00529765 0.0233056 0.00443162 0.0333036
50 3 O 1.83008 61.6453 5.89949 -1.2 1 0.00119971 0.00653253 0.001924 0.0090911 0.00295116 0.00691714 0.00193057 0.0198945 0.00221181 0.0110113 0.00315266 0.0241326 0.00253854 0.020507 0.00365831 0.0265374 0.00370707 0.0238861 0.00395173 0.031
51 1 Mg 0.318823 65.6177 1.1604 1.2 1 0.0020847 0.00468392 0.0020292 0.00978974 0.00151147 0.00571858 0.00174293 0.0188104 0.00274685 0.0111138 0.00316388 0.0251465 0.00343675 0.0211414 0.00482907 0.0260508 0.00527232 0.0220027 0.00520516 0.0341177
52 2 Si -1.81461 63.8686 1.46719 2.4 1 0.00226569 0.0048828 0.00205516 0.0102507 0.00155265 0.00604312 0.00186077 0.0192148 0.00180535 0.0109844 0.00352672 0.0244537 0.00362106 0.0207577 0.00544746 0.0257368 0.00667124 0.0228046 0.00513822 0.033575
53 3 O 1.40842 63.9344 1.63386 -1.2 1 0.00186705 0.00497084 0.00161616 0.00975681 0.00154968 0.00597643 0.00151834 0.0186712 0.00227333 0.0112875 0.00306822 0.0246503 0.00372575 0.020971 0.00456455 0.0256303 0.00604307 0.0224027 0.00410112 0.0333837
54 3 O -0.800872 68.1109 1.24127 -1.2 1 0.00186335 0.00480703 0.00105045 0.0101389 0.00168356 0.00582267 0.00133151 0.0193103 0.00157895 0.0117254 0.00285457 0.0256023 0.00341685 0.0192394 0.00362989 0.0258808 0.00404114 0.0222545 0.00409461 0.0340772
55 3 O -1.19202 64.6218 0.178605 -1.2 1 0.00215885 0.0048616 0.00224969 0.0096245 0.00164166 0.00637325 0.00182028 0.0191289 0.00215455 0.0111222 0.00359366 0.0252174 0.00312346 0.0209734 0.00500912 0.0260506 0.00532621 0.0225491 0.00494568 0.0336767
56 3 O -1.07876 64.5828 2.59707 -1.2 1 0.0017027 0.00457909 0.00155311 0.00949001 0.00187072 0.00637509 0.00222134 0.0199132 0.0023666 0.0112608 0.00308939 0.0242051 0.00388567 0.0214121 0.00452736 0.026637 0.00585598 0.022992 0.00402989 0.0334551
57 1 Mg -2.24473 67.9688 0.108963 1.2 1 0.00196438 0.00556548 0.00104954 0.00979604 0.00111546 0.0060401 0.00178897 0.0194971 0.0025032 0.0120107 0.00229366 0.0259153 0.00310965 0.0194782 0.00440897 0.0254342 0.00371365 0.0223295 0.00425898 0.0333803
58 1 Mg 2.58223 71.571 1.23393 1.2 1 0.00142479 0.00543441 0.00324045 0.00841701 0.00157498 0.00550874 0.00160745 0.0193379 0.00228964 0.0122903 0.00266784 0.0247643 0.00282371 0.0199264 0.00330349 0.0254793 0.00470362 0.0215516 0.00465942 0.0320042
59 2 Si -0.133212 69.6287 1.32432 2.4 1 0.00154934 0.00456067 0.00189505 0.00965457 0.002353 0.00506763 0.00162065 0.0187779 0.00164715 0.0107656 0.00316808 0.0240367 0.00371551 0.019484 0.00455088 0.0251464 0.00500911 0.0216288 0.00476532 0.0340264
60 3 O 1.29692 69.4781 1.3314 -1.2 1 0.00201851 0.00469106 0.00195039 0.00954593 0.00223692 0.00488555 0.00143986 0.0191005 0.00256038 0.0109721 0.00247469 0.0239406 0.00340909 0.0195319 0.00401049 0.0253961 0.00416557 0.0220715 0.00462223 0.0335052
61 3 O -1.01021 73.46 1.44859 -1.2 1 0.00109724 0.00487767 0.00230462 0.00881213 0.00158264 0.00567303 0.00134511 0.0189978 0.00209133 0.0122426 0.0025878 0.0242399 0.00216342 0.0194673 0.00377087 0.0243763 0.00445773 0.0212504 0.00420709 0.0320394
62 3 O -0.592229 70.5397 0.188193 -1.2 1 0.000769114 0.00495698 0.00267901 0.0083961 0.0016043 0.00524579 0.00116751 0.0190287 0.00145833 0.0116039 0.00233921 0.0247537 0.00354209 0.0203601 0.00336341 0.0250936 0.00416857 0.0209558 0.00446557 0.0317333
63 1 Mg -2.38841 79.3494 2.86313 1.2 1 0.00276705 0.00481043 0.00150675 0.0088698 0.00123976 0.00598117 0.00113917 0.0193798 0.00189209 0.0139624 0.00249959 0.0244621 0.00243939 0.0196287 0.00266188 0.0256818 0.00360199 0.0224783 0.0028052 0.0307557
64 3 O -0.854443 70.3767 2.69559 -1.2 1 0.00188551 0.00553769 0.00169803 0.00912905 0.00239311 0.00564065 0.00191637 0.0195861 0.00190424 0.0110897 0.00288174 0.0250017 0.00281918 0.0205145 0.00393125 0.026167 0.00427923 0.0226604 0.00460543 0.0341437
65 1 Mg -2.37042 76.3834 3.88328 1.2 1 0.00314315 0.00615414 0.00125089 0.00878255 0.000637056 0.0058988 0.00169255 0.0201307 0.00151309 0.0132792 0.00295912 0.025198 0.00247108 0.0203086 0.00325514 0.0264403 0.0042231 0.0235809 0.00286258 0.0330097
66 2 Si 0.29402 78.2994 4.45289 2.4 1 0.0045434 0.00501142 0.0018187 0.00947238 0.00193288 0.00530558 0.00188199 0.0193551 0.00162505 0.0125585 0.00315718 0.0231362 0.00242561 0.0204674 0.00374578 0.026229 0.00409421 0.0230696 0.00374706 0.032098
67 3 O -1.31934 78.3361 4.42789 -1.2 1 0.00427888 0.0050732 0.00163189 0.00906822 0.00155437 0.0050986 0.00156626 0.0191237 0.00236446 0.0126956 0.00247272 0.0238855 0.00272872 0.0198017 0.00321622 0.0261884 0.00425163 0.0229985 0.00324406 0.0322553
68 3 O 1.74477 74.4582 4.29513 -1.2 1 0.00228018 0.00593331 0.00136139 0.00960861 0.00154109 0.00574117 0.00167092 0.0206504 0.00174654 0.0129175 0.00248398 0.0251264 0.00144516 0.0204802 0.0029266 0.0258186 0.00370562 0.023846 0.00301323 0.0340234
69 3 O 1.03523 77.557 3.21612 -1.2 1 0.0032227 0.00538697 0.00199686 0.00879798 0.00150611 0.00552941 0.00186266 0.0195344 0.00198104 0.0130859 0.00206835 0.0240392 0.00183259 0.0206748 0.00323629 0.0260848 0.00387492 0.0224498 0.00333474 0.0318651
70 3 O 1.05186 77.5521 5.69928 -1.2 1 0.0054248 0.0056985 0.00179936 0.00860791 0.00136134 0.00567911 0.00171733 0.0204006 0.00195836 0.0122514 0.00291844 0.0240133 0.00289248 0.020682 0.00311138 0.0270896 0.00373921 0.0243702 0.00304394 0.0326135
71 1 Mg 0.403576 73.6067 2.69097 1.2 1 0.00171566 0.00567921 0.00187811 0.00897612 0.00165208 0.00571857 0.00203293 0.0196916 0.00208114 0.012595 0.00261368 0.0247856 0.00204154 0.0200836 0.00358873 0.0252313 0.00433701 0.0228131 0.0037054 0.0329111
72 1 Mg 0.194151 71.0617 4.32952 1.2 1 0.00266261 0.00578686 0.00155713 0.00902303 0.00102863 0.00547351 0.00215507 0.0205734 0.00305109 0.0119457 0.00374025 0.0249255 0.00262935 0.0206042 0.00382693 0.0266724 0.00374655 0.0238448 0.00488721 0.0349447
73 2 Si 2.29527 73.0836 4.07763 2.4 1 0.00138574 0.00557882 0.00156301 0.0100374 0.00228732 0.00536441 0.00220139 0.0200919 0.00200794 0.0116252 0.00272258 0.024647 0.00180622 0.0204113 0.00383156 0.0250761 0.0033511 0.0230561 0.00384806 0.0349762
74 3 O -1.01603 73.2163 4.27849 -1.2 1 0.00149094 0.00553485 0.00149407 0.00990669 0.00151395 0.00541136 0.00155822 0.0202396 0.00256619 0.0121364 0.00186113 0.0250885 0.00183874 0.0198235 0.0034349 0.0257885 0.00309233 0.0233941 0.00396472 0.0347217
75 3 O 1.13979 68.9479 4.32465 -1.2 1 0.00237414 0.00527661 0.00121866 0.0102179 0.00179091 0.00627468 0.00142919 0.0199618 0.00147565 0.0114479 0.00210324 0.024766 0.00242443 0.0202358 0.00245495 0.0264254 0.00339958 0.0235599 0.00386327 0.0341594
76 3 O 1.67145 72.2653 2.81071 -1.2 1 0.00179187 0.00542508 0.00191111 0.00866152 0.00200037 0.00527639 0.00220338 0.0199561 0.00188566 0.0118211 0.00215904 0.0247683 0.0021323 0.0202217 0.00398504 0.0254829 0.00432593 0.0221769 0.0043831 0.0333107
77 1 Mg -0.0390508 73.7318 -0.19563 1.2 1 0.00157143 0.00454545 0.00190542 0.00810415 0.00143105 0.00601976 0.00145871 0.0191383 0.00132534 0.0126005 0.00252615 0.0244094 0.00262937 0.0192668 0.00298398 0.0243619 0.00411654 0.0208957 0.0036992 0.0303613
78 3 O 1.59297 72.3203 5.38315 -1.2 1 0.00256513 0.00582797 0.00159591 0.00924201 0.00177824 0.00566775 0.00229325 0.0206345 0.00238223 0.0112447 0.00271525 0.0248707 0.00217633 0.0207528 0.0034491 0.0265562 0.0032782 0.0242098 0.00386707 0.0360221
79 1 Mg 0.4026 77.1022 1.58042 1.2 1 0.00242919 0.00568875 0.00159017 0.00875033 0.00102595 0.00612755 0.00150728 0.0200434 0.00154239 0.013215 0.00235785 0.024042 0.00228302 0.0207385 0.00333575 0.0252327 0.00410376 0.0222549 0.00301763 0.031796
80 2 Si -1.73923 74.8489 1.30898 2.4 1 0.00141017 0.00480006 0.00164864 0.00957955 0.00193848 0.00528876 0.00163346 0.0186882 0.00171052 0.011986 0.00284981 0.0240628 0.00245057 0.0197652 0.00437461 0.024761 0.00496926 0.0217484 0.00442672 0.032754
81 3 O 1.44276 74.9182 1.46991 -1.2 1 0.00165695 0.00529604 0.00137532 0.00970795 0.0018508 0.0050208 0.00160054 0.0181244 0.00199557 0.0117209 0.00198543 0.0241192 0.00260376 0.0199107 0.0039918 0.0247259 0.00559433 0.021444 0.00394051 0.0327897
82 3 O -0.724988 79.0287 1.47702 -1.2 1 0.00205165 0.00498451 0.0011004 0.00883472 0.00136634 0.006332 0.00134203 0.0196437 0.00187802 0.0131692 0.00227127 0.0237957 0.00293257 0.0202211 0.00332154 0.0247794 0.00438205 0.0218099 0.00304626 0.0318968
83 3 O -1.25537 75.3166 -0.156983 -1.2 1 0.00176408 0.00514348 0.00132177 0.00831511 0.00190619 0.00538068 0.00182599 0.0192203 0.00151848 0.012066 0.00194293 0.023754 0.00233879 0.0200839 0.00310473 0.025197 0.00435153 0.0215284 0.00366859 0.0309304
84 3 O -1.20695 75.736 2.47087 -1.2 1 0.00200262 0.00562547 0.00173295 0.00893627 0.00154164 0.00571893 0.00194382 0.0195698 0.00212493 0.0126485 0.00268851 0.0247197 0.00234204 0.0209877 0.00419045 0.0257784 0.00525822 0.0225273 0.00381355 0.0328031
85 1 Mg -2.36695 79.6407 -0.129776 1.2 1 0.00210319 0.00385143 0.00171332 0.00862338 0.00145501 0.00650467 0.00192948 0.0200164 0.00195049 0.0131772 0.00273765 0.0240133 0.00293795 0.0205448 0.00327077 0.0252743 0.00396535 0.0211821 0.00341397 0.0315763
86 1 Mg 2.18463 82.3004 1.58361 1.2 1 0.00141038 0.00450532 0.001813 0.00934534 0.00189756 0.0069986 0.00169054 0.0202539 0.00216379 0.0137887 0.00364654 0.0245002 0.00315937 0.0210252 0.003443 0.0270256 0.00333692 0.0219345 0.00294781 0.0308117
87 2 Si -0.217171 80.4784 1.28381 2.4 1 0.00193294 0.00400929 0.00120875 0.00962163 0.00164969 0.00634486 0.00235023 0.0197387 0.00223599 0.0133492 0.00233132 0.0235798 0.00321506 0.0212092 0.00384733 0.0260594 0.00416051 0.0223494 0.00267512 0.0322758
88 3 O 1.43023 80.2807 1.53 -1.2 1 0.00160635 0.00441473 0.00100806 0.00911062 0.00116637 0.00625427 0.00166952 0.0195714 0.00223936 0.0130161 0.00294082 0.0238845 0.00241236 0.0209348 0.00279939 0.0262755 0.00326183 0.0216061 0.00306671 0.031907
89 3 O -1.63805 84.3103 1.0981 -1.2 1 0.000578268 0.00477784 0.000651763 0.0097922 0.0011036 0.00693607 0.00142608 0.0201016 0.0021992 0.0135632 0.00279114 0.0254884 0.00269865 0.0203879 0.00346794 0.0260685 0.00287978 0.0206857 0.00301942 0.0302952
90 3 O -0.844039 81.1445 -0.00432961 -1.2 1 0.00174036 0.00336407 0.00115369 0.00903627 0.00165777 0.00676325 0.00197944 0.0195001 0.00263708 0.0124424 0.00293047 0.0239868 0.00246952 0.0216453 0.00399897 0.0267027 0.00377898 0.0211846 0.00353174 0.0315793
91 1 Mg -2.55362 89.9759 2.98606 1.2 1 0.00178675 0.0044566 0.0016755 0.00922219 0.00158694 0.00634417 0.00175997 0.0203191 0.00249364 0.0120601 0.00194941 0.024429 0.00353956 0.0181367 0.00502638 0.0250299 0.00408906 0.0226774 0.00511726 0.0284942
92 3 O -0.729039 81.3728 2.57366 -1.2 1 0.00209302 0.00467125 0.000929523 0.0090973 0.00129841 0.00682798 0.00169704 0.0204624 0.0018814 0.0135907 0.00272515 0.0237105 0.00280144 0.0211107 0.00259109 0.0267134 0.00266288 0.0218066 0.00277484 0.0303778
93 1 Mg -2.3025 87.0014 4.08654 1.2 1 0.00239418 0.00483223 0.00136248 0.00920368 0.00161544 0.00725596 0.00169844 0.0205291 0.00244722 0.0128385 0.0025938 0.0243843 0.00379182 0.0190027 0.00553655 0.025621 0.00513152 0.0227185 0.00400983 0.0290872
94 2 Si 0.231808 88.9895 4.11779 2.4 1 0.00139014 0.00412832 0.00177708 0.0100683 0.00152073 0.00601347 0.00205311 0.0197907 0.00202306 0.0119254 0.00222861 0.0241213 0.00476313 0.0187909 0.00655072 0.0255967 0.00636198 0.0231295 0.00490414 0.0287186
95 3 O -1.31474 88.9221 4.04278 -1.2 1 0.00116907 0.00388226 0.00179963 0.00991046 0.0014724 0.00573356 0.00182828 0.0190935 0.00244269 0.0117352 0.00186321 0.0244456 0.00313387 0.0184356 0.00498204 0.0254673 0.00440973 0.0224822 0.00436527 0.0280992
96 3 O 1.44776 85.2635 4.32271 -1.2 1 0.00231801 0.00545173 0.00173019 0.00943313 0.00169804 0.00707908 0.00185617 0.0206493 0.00145653 0.0136077 0.00272561 0.0246819 0.00320302 0.0198307 0.00415534 0.0262367 0.00467447 0.022807 0.00405634 0.0297544
97 3 O 1.07249 88.5136 2.87061 -1.2 1 0.000992777 0.00463744 0.00197658 0.00921769 0.00146555 0.00727439 0.00268241 0.020147 0.00221643 0.0120382 0.0021056 0.0243793 0.00345569 0.0193753 0.00577613 0.0251264 0.00473444 0.0215954 0.00499074 0.0285694
98 3 O 0.774229 88.1671 5.46504 -1.2 1 0.00227821 0.00487762 0.00183887 0.00916873 0.00165629 0.00633778 0.00211012 0.02032 0.00197734 0.0124206 0.00260432 0.0241813 0.00430101 0.018818 0.00583389 0.0252826 0.00553155 0.023482 0.00463885 0.0286727
99 1 Mg -0.0308089 84.5823 2.74508 1.2 1 0.00118414 0.00486864 0.00151906 0.00964758 0.001645 0.00700386 0.00175638 0.0199997 0.00215884 0.0133821 0.00257374 0.024748 0.00321822 0.0199263 0.0041763 0.0261495 0.00408904 0.0211926 0.0033854 0.0292831
100 1 Mg 0.0935938 81.7872 4.34085 1.2 1 0.00257454 0.0045408 0.00174134 0.00882849 0.0017742 0.0066531 0.00123098 0.0204699 0.00231917 0.0135873 0.00237082 0.0236979 0.00302592 0.0206729 0.00333711 0.0262712 0.00409912 0.0222449 0.00331209 0.0297335
101 2 Si 2.21516 83.8648 4.56594 2.4 1 0.00193909 0.00453615 0.00183886 0.0100792 0.00244118 0.00638845 0.00201932 0.0199403 0.00210002 0.0131543 0.00343411 0.023621 0.00368275 0.0206966 0.0050131 0.0262185 0.00550466 0.0224884 0.00457894 0.0295965
102 3 O -1.10103 83.763 4.29548 -1.2 1 0.00172081 0.00446124 0.0017325 0.00983305 0.00219465 0.00625136 0.00146458 0.0194051 0.0019585 0.0129905 0.00302232 0.0239972 0.00363245 0.0201714 0.00387088 0.0266656 0.00474332 0.0220139 0.00416257 0.0298354
103 3 O 0.931369 79.796 4.51073 -1.2 1 0.00381804 0.00437269 0.00115461 0.00858474 0.00164193 0.00560548 0.00129433 0.0201039 0.00197967 0.0139462 0.00306212 0.024023 0.00274671 0.0198742 0.00347049 0.0258501 0.00322521 0.0228347 0.00347886 0.030259
104 3 O 1.46562 83.0642 3.108 -1.2 1 0.00130733 0.0046989 0.00139815 0.00965205 0.00236911 0.00732991 0.00228907 0.0201301 0.00226351 0.0134939 0.00341105 0.0237633 0.00356405 0.0217246 0.00431119 0.0275326 0.00417147 0.0219819 0.00346596 0.0299103
105 1 Mg -0.233741 84.3275 -0.187136 1.2 1 0.000575819 0.00415449 0.000748049 0.0099685 0.00164574 0.00728607 0.0014181 0.0198878 0.0017062 0.0130166 0.00284975 0.0251899 0.00254095 0.0212095 0.00357127 0.0265305 0.00325007 0.0204389 0.00302832 0.0310861
106 3 O 1.76082 83.1074 5.8862 -1.2 1 0.00362992 0.00484967 0.00163449 0.00888279 0.00179661 0.00707388 0.00161604 0.0206291 0.00166174 0.0133504 0.00309004 0.023531 0.00278131 0.020715 0.00329872 0.0269006 0.00490074 0.0234663 0.00420493 0.0290389
107 1 Mg 0.00777891 87.8793 1.30119 1.2 1 0.00122624 0.00446953 0.00121602 0.00921773 0.00131131 0.0075854 0.00154553 0.0200296 0.00303147 0.0120516 0.00229428 0.0253806 0.00306665 0.0201331 0.00449747 0.0261135 0.00421326 0.0210305 0.00440119 0.0293197
108 2 Si -2.17246 85.982 1.10779 2.4 1 0.000985125 0.00418655 0.000684652 0.010387 0.00207375 0.00661036 0.0022027 0.0193576 0.00216411 0.0119291 0.00246601 0.024782 0.00315227 0.0207868 0.00372002 0.0262852 0.00382161 0.0205726 0.003728 0.0298813
109 3 O 1.07435 85.6965 1.25623 -1.2 1 0.00108968 0.00433791 0.00141272 0.0102008 0.00207599 0.00678487 0.0017799 0.0191009 0.00263454 0.0123486 0.0022256 0.0250736 0.00294118 0.0210896 0.00446839 0.0262318 0.00354119 0.0201429 0.00460603 0.0299665
110 3 O -1.20836 89.8276 1.33432 -1.2 1 0.00306864 0.004564 0.00177743 0.00935301 0.00154498 0.00661758 0.00153161 0.0195743 0.00291538 0.0114831 0.00206765 0.0247853 0.00302963 0.01915 0.00423442 0.0254254 0.00397444 0.0214475 0.00513698 0.028879
111 3 O -1.34539 86.521 -0.184626 -1.2 1 0.0015898 0.00462456 0.00143261 0.0101638 0.00178795 0.00780474 0.00207119 0.0196948 0.00245476 0.0121158 0.00199727 0.0248894 0.00251598 0.0215965 0.00413579 0.026799 0.00400795 0.0209923 0.00527543 0.0305164
112 3 O -1.4588 86.5998 2.25749 -1.2 1 0.000786946 0.00455296 0.00156325 0.00947887 0.00176667 0.00751551 0.00175158 0.0199635 0.00223182 0.0124624 0.00172069 0.0252275 0.00373316 0.0203039 0.00450798 0.0262649 0.00418239 0.02139 0.00402701 0.0292054
113 1 Mg -2.43259 90.3306 -0.150167 1.2 1 0.00350301 0.00510452 0.000908253 0.00957004 0.00161077 0.00724933 0.00113221 0.019381 0.00279738 0.0114889 0.00282262 0.0255526 0.00303963 0.0195374 0.00422531 0.0257408 0.00372908 0.0215494 0.0066993 0.0295241
114 1 Mg 2.20906 93.2501 1.21755 1.2 1 0.00354052 0.00472533 0.00129474 0.00863705 0.00139028 0.0067996 0.0013317 0.0199799 0.0024653 0.0115789 0.0022105 0.0245206 0.00385445 0.0183993 0.00431808 0.0247077 0.00382906 0.0222045 0.00453792 0.0284287
115 2 Si -0.41899 91.2606 1.52707 2.4 1 0.00309421 0.00442555 0.0014431 0.00978902 0.00179989 0.00611853 0.00169011 0.0184717 0.00251285 0.0114991 0.00246008 0.0245435 0.00337319 0.0190411 0.00501449 0.0252651 0.00357517 0.0217701 0.00572855 0.0287145
116 3 O 1.30781 91.2633 1.59444 -1.2 1 0.00351942 0.00459595 0.00123423 0.00975665 0.00136899 0.006205 0.0014193 0.0188537 0.00338817 0.0108909 0.00234747 0.0243836 0.00334237 0.0187077 0.00477652 0.0253314 0.00421138 0.0218499 0.00515907 0.0289881
117 3 O -1.51656 94.8582 1.35016 -1.2 1 0.00413926 0.00412985 0.000616411 0.00827719 0.0025046 0.0069758 0.00192489 0.0199716 0.00172275 0.0123137 0.00200629 0.0247022 0.00417204 0.0179766 0.00542758 0.0230135 0.00329677 0.0217493 0.00372701 0.0289729
118 3 O -0.922454 92.1562 0.353969 -1.2 1 0.00392255 0.00455514 0.000631168 0.00922552 0.00122707 0.0069741 0.00112906 0.0191721 0.00290134 0.0111183 0.00226126 0.0241646 0.0033909 0.0196085 0.00422821 0.0249806 0.00300581 0.0215273 0.00531303 0.0283289
119 1 Mg -2.31286 100.865 3.08456 1.2 1 0.00257687 0.0049704 0.000602723 0.00752523 0.0012238 0.0069316 0.00163082 0.0198254 0.00183586 0.0114855 0.0022532 0.0245145 0.00248243 0.0181936 0.00350065 0.0239626 0.00411388 0.0233496 0.00363148 0.030085