ITEM: TIMESTEP
77300
ITEM: NUMBER OF ATOMS
5600
ITEM: BOX BOUNDS xy xz yz pp pp pp
0	7.1235	0
0	201.985	2.3745
0	119.584	0
ITEM: ATOMS id type element xu yu zu q Q_1 Q_2 Q_3 Q_4 Q_5 Q_6 Q_7 Q_8 Q_9 Q_10 Q_11 Q_12 Q_13 Q_14 Q_15 Q_16 Q_17 Q_18 Q_19 Q_20 Q_21
1 1 Mg -1.66681 47.3055 -1.24207 1.2 1 0.24088 0.0770908 0.0221816 0.024468 0.0050289 0.014058 0.00321284 0.0187974 0.00446462 0.0223259 0.00528119 0.0302173 0.00858886 0.0251003 0.0075358 0.0253443 0.00906721 0.0219386 0.0101374 0.0277998
2 1 Mg 2.76829 49.7623 1.6481 1.2 1 0.178589 0.064885 0.0115521 0.017049 0.00306638 0.00821528 0.00319113 0.0168582 0.00345046 0.0176479 0.00397066 0.0271992 0.0053019 0.0236272 0.00613505 0.0242691 0.00683217 0.0209272 0.00809146 0.0276829
3 2 Si 0.693866 48.6409 0.287043 2.4 1 0.210907 0.0719929 0.0159867 0.0202269 0.00368754 0.009588 0.00382536 0.0167512 0.00410291 0.0196563 0.00425336 0.027963 0.00678218 0.0253377 0.00677071 0.0242404 0.00830379 0.0200012 0.00862134 0.0271647
4 3 O 1.61282 47.318 0.0768164 -1.2 1 0.238901 0.0772402 0.0218027 0.0240992 0.00450585 0.0119804 0.00415532 0.0174801 0.00459377 0.0211312 0.00527586 0.0286544 0.0082161 0.0257201 0.00821338 0.0246419 0.00973312 0.0220431 0.00953648 0.0274799
5 3 O -1.29434 51.9349 1.198 -1.2 1 0.127959 0.0510229 0.00385001 0.0133751 0.00247878 0.00816655 0.00217981 0.0170144 0.00289505 0.0152446 0.00189785 0.0269281 0.00515699 0.0205912 0.00385862 0.0235406 0.00610911 0.0206053 0.00607557 0.0282687
6 3 O -0.124706 48.6081 -0.997946 -1.2 1 0.20836 0.0706547 0.0151499 0.0201152 0.0044006 0.0105695 0.00382549 0.0179431 0.00445567 0.019772 0.00436547 0.0281499 0.00600634 0.0255881 0.00599294 0.0242746 0.00844235 0.0204837 0.00924739 0.0271245
7 1 Mg -2.30693 57.5302 3.0913 1.2 1 0.0157004 0.0157856 0.00536711 0.00789308 0.00181181 0.006416 0.00143018 0.018974 0.00288505 0.0108059 0.00267206 0.0255715 0.00465421 0.018679 0.00493909 0.0266846 0.00529241 0.0238241 0.00404372 0.0329175
8 3 O -0.096715 49.0665 1.55883 -1.2 1 0.193904 0.0700947 0.0118168 0.0185825 0.00233812 0.00842599 0.00405183 0.0162833 0.00424613 0.0183744 0.00348813 0.0276623 0.00624978 0.0245399 0.00620047 0.0239539 0.00806886 0.0196727 0.00757927 0.026878
9 1 Mg -2.30377 54.7328 4.76875 1.2 1 0.0682652 0.0365793 0.0052897 0.00993908 0.00211227 0.00587396 0.00206636 0.0168466 0.00335151 0.0120699 0.00199804 0.0261929 0.00400745 0.0184017 0.00410753 0.0252641 0.00575341 0.0217404 0.00474201 0.0285747
10 2 Si 0.397549 56.7691 4.36887 2.4 1 0.0213726 0.0185218 0.00711423 0.00862111 0.00198746 0.00648898 0.0019148 0.0179912 0.00331092 0.010171 0.00297404 0.0243655 0.00475981 0.0186115 0.00613811 0.025258 0.00653996 0.0229784 0.00402771 0.031637
11 3 O -1.1891 56.5759 4.52483 -1.2 1 0.0262125 0.0206665 0.0077103 0.00860381 0.00159229 0.00625815 0.00236975 0.0170693 0.00354225 0.00986901 0.00252945 0.024747 0.00413234 0.017553 0.0052265 0.0257997 0.00549269 0.0224129 0.00489401 0.0311798
12 3 O 1.27766 52.8901 4.69113 -1.2 1 0.10623 0.0484305 0.00154638 0.0130724 0.00198254 0.00750465 0.00201946 0.0168339 0.00337492 0.0141904 0.00217246 0.0264531 0.00387025 0.0201719 0.00431249 0.0238429 0.00471779 0.0214013 0.00581991 0.0273878
13 3 O 0.99105 56.1322 3.08719 -1.2 1 0.0355299 0.0244622 0.00679386 0.00814271 0.0019351 0.00557383 0.00190543 0.0180535 0.00286403 0.010803 0.00304496 0.0251083 0.00481598 0.0182838 0.00557294 0.0262948 0.00553639 0.023361 0.0042924 0.031302
14 3 O 1.00027 56.0637 5.80548 -1.2 1 0.0371263 0.026764 0.00807063 0.00853518 0.00116483 0.00628373 0.00205244 0.0178646 0.0028933 0.0109704 0.00271346 0.0252768 0.00412187 0.0191057 0.00583582 0.0255792 0.00544825 0.0226222 0.00501991 0.0295055
15 1 Mg 0.000705535 52.7344 3.3183 1.2 1 0.113474 0.0483292 0.00120156 0.012683 0.00202372 0.00747756 0.00227078 0.0168558 0.00339134 0.0137728 0.00208881 0.0264365 0.00452009 0.0195871 0.00445658 0.0237438 0.00472382 0.0209511 0.00569483 0.027438
16 1 Mg 0.42383 49.3431 3.25831 1.2 1 0.188892 0.0670983 0.0120713 0.0173365 0.00339946 0.00899482 0.00335761 0.016425 0.00278694 0.0173318 0.0033451 0.0278206 0.00587221 0.0231339 0.00623798 0.0242369 0.00610377 0.0201875 0.00778793 0.0270346
17 2 Si 2.14702 51.278 4.49711 2.4 1 0.150518 0.0579324 0.00532072 0.0154044 0.00268341 0.0076357 0.00262793 0.0158953 0.00310006 0.0157273 0.00264161 0.0266445 0.00450553 0.0217961 0.00521392 0.0244595 0.00444858 0.0201712 0.00630254 0.0269152
18 3 O -1.01072 51.5064 4.58947 -1.2 1 0.130687 0.0547282 0.00228215 0.0142872 0.00183339 0.00677572 0.0020039 0.0157152 0.00380095 0.014358 0.00221209 0.0264576 0.00420022 0.0211863 0.00392323 0.0241283 0.00542652 0.0207217 0.00594122 0.0268907
19 3 O 2.19337 48.5551 2.97337 -1.2 1 0.204415 0.0715619 0.0138171 0.0188872 0.00302836 0.00903291 0.00442386 0.0172009 0.00306027 0.0182796 0.00387638 0.0284614 0.00593172 0.0248937 0.00696878 0.0244681 0.0072953 0.02096 0.00847641 0.0284735
20 3 O 1.58641 51.0074 3.1373 -1.2 1 0.1482 0.0570776 0.00551577 0.0146346 0.00297007 0.00749086 0.00302536 0.0164872 0.00315286 0.014967 0.00259443 0.0264458 0.00441562 0.0210038 0.00562656 0.0240158 0.00466149 0.0207524 0.00669826 0.0277991
21 1 Mg -0.0774767 52.9403 -0.284103 1.2 1 0.108112 0.0458309 0.000763519 0.0116298 0.0020088 0.00679263 0.00211196 0.0170258 0.00314449 0.0147347 0.00294326 0.027186 0.0047527 0.0193016 0.00451223 0.0240324 0.00506859 0.0208691 0.00553242 0.0287455
22 3 O 1.49167 50.3294 5.516 -1.2 1 0.167027 0.0630488 0.00716593 0.0169043 0.00299134 0.00832869 0.00312644 0.0167982 0.0035597 0.0166064 0.003134 0.0278819 0.00402898 0.0229752 0.00513751 0.0239649 0.0043025 0.0203925 0.00648853 0.0268645
23 1 Mg -0.108039 55.2202 1.81469 1.2 1 0.0507917 0.030884 0.00662186 0.0085015 0.00190679 0.00581966 0.00131386 0.0174644 0.00389845 0.0117713 0.0023036 0.0260324 0.00463919 0.0183225 0.0045486 0.0245577 0.00532845 0.022516 0.00506484 0.031055
24 2 Si -2.18295 53.1479 1.56012 2.4 1 0.100542 0.0444485 0.000979368 0.0112159 0.00209248 0.0066688 0.00199363 0.0159048 0.00337127 0.01367 0.0020429 0.0260273 0.00494414 0.019508 0.00478119 0.0237689 0.00660752 0.0206497 0.00608414 0.0284226
25 3 O 1.08414 53.461 1.58529 -1.2 1 0.101684 0.0434134 0.000818408 0.0115019 0.00220346 0.0066476 0.00206544 0.0166007 0.00300227 0.0127485 0.00185936 0.0260239 0.00452228 0.019001 0.0044669 0.0241884 0.00541573 0.0211117 0.00517853 0.0287503
26 3 O -0.95112 57.1613 1.60883 -1.2 1 0.0198543 0.0175433 0.00676974 0.00772379 0.00159761 0.00606957 0.00128894 0.0187482 0.00279393 0.010432 0.00314233 0.0257913 0.0040937 0.0182424 0.00404939 0.0263606 0.00497331 0.0237654 0.00408849 0.0335541
27 3 O -1.42782 54.368 0.358523 -1.2 1 0.0729483 0.0359866 0.00471743 0.00884128 0.0020314 0.00575959 0.00171812 0.0170442 0.0033501 0.0117958 0.00259483 0.0253531 0.00474988 0.0190649 0.00424492 0.0244599 0.00615977 0.0223918 0.00600208 0.0298982
28 3 O -1.55511 53.7004 3.01279 -1.2 1 0.0918118 0.0416504 0.00231588 0.0105577 0.00186684 0.00629189 0.00185487 0.0168293 0.00376769 0.0124891 0.00247022 0.0261519 0.00451751 0.0187071 0.00446226 0.023895 0.00560692 0.0217896 0.00533362 0.0281508
29 1 Mg -2.46036 57.3547 0.242704 1.2 1 0.0170997 0.0164039 0.00561541 0.0076096 0.00172153 0.00536809 0.00190999 0.0190318 0.00228462 0.0104771 0.00234519 0.0264358 0.00395041 0.0188091 0.00315666 0.0267079 0.00399968 0.0238716 0.00436551 0.0352757
30 1 Mg 2.18624 60.692 1.30794 1.2 1 0.00190771 0.0070582 0.00141767 0.00923698 0.00130537 0.00659934 0.00139467 0.0204298 0.00220547 0.0103776 0.00199255 0.0263621 0.00333166 0.0199655 0.00338127 0.0288989 0.00343657 0.0244595 0.00341237 0.0385434
31 2 Si -0.391868 58.6084 1.51402 2.4 1 0.00797585 0.010666 0.0034395 0.0089459 0.00154295 0.00631656 0.00119251 0.0185542 0.00237437 0.0102466 0.00433926 0.0249515 0.00419557 0.0192336 0.00412591 0.0268166 0.00458633 0.0230377 0.0042291 0.0361967
32 3 O 1.189 58.5344 1.46856 -1.2 1 0.0079765 0.0108291 0.0036053 0.00857528 0.00146584 0.00622522 0.00161014 0.0192991 0.00303846 0.0103498 0.00262028 0.0257934 0.0036532 0.0187641 0.0032624 0.0275594 0.00459452 0.0235003 0.00356104 0.0363493
33 3 O -1.48439 62.7251 1.49673 -1.2 1 0.00265788 0.00663979 0.00090132 0.0095737 0.00118791 0.00709598 0.0012019 0.020683 0.0012994 0.0103886 0.00213876 0.0261954 0.00286829 0.0197232 0.00336695 0.0283832 0.00353287 0.0235128 0.00332009 0.0380978
34 3 O -1.12958 59.4116 0.345257 -1.2 1 0.00430508 0.00852447 0.00226008 0.0083431 0.0015416 0.00626368 0.00177644 0.0194932 0.0022327 0.0102185 0.00223226 0.0262014 0.00414038 0.0196421 0.0037902 0.0283095 0.00383427 0.0235731 0.00341936 0.0380231
35 1 Mg -2.51433 68.6527 2.55332 1.2 1 0.00485214 0.0059957 0.00218856 0.00835853 0.00166618 0.00589094 0.00202097 0.0202964 0.00198336 0.00990831 0.0022097 0.0250729 0.00288564 0.0189278 0.00308087 0.0275514 0.00363021 0.0222405 0.00609717 0.0353637
36 3 O -1.06396 59.2161 2.90957 -1.2 1 0.00598117 0.0102568 0.00302334 0.00850142 0.00172071 0.0066745 0.00190061 0.0192779 0.00304908 0.0103813 0.00290746 0.0252898 0.00414877 0.0196247 0.00480771 0.0279417 0.00524373 0.0241872 0.00360488 0.0354935
37 1 Mg -2.33696 65.6418 4.38806 1.2 1 0.0031493 0.00675788 0.00159438 0.00821213 0.00165459 0.00598373 0.0019423 0.0204401 0.00266577 0.0103773 0.00332741 0.0253315 0.00319859 0.0203301 0.0036134 0.0283728 0.0038493 0.0224588 0.00746056 0.0350269
38 2 Si 0.279207 67.5804 4.19938 2.4 1 0.00322064 0.00682007 0.00165416 0.00834197 0.00255374 0.00573151 0.00274459 0.0205278 0.00209464 0.0098675 0.00371112 0.0245003 0.00326736 0.0198556 0.00441038 0.0276153 0.00404716 0.0219256 0.00702119 0.0350422
39 3 O -1.25424 67.361 4.40134 -1.2 1 0.00372138 0.00639971 0.00192268 0.00837601 0.00226147 0.00550041 0.00220455 0.0193255 0.0029896 0.00956869 0.00266131 0.0239025 0.00361047 0.0196163 0.00409594 0.0269094 0.00437086 0.0214495 0.00725859 0.0341572
40 3 O 1.41493 63.4856 4.50666 -1.2 1 0.00286146 0.00676244 0.00165564 0.00985899 0.00140781 0.00711298 0.00157006 0.0198938 0.00224158 0.0105296 0.00236536 0.0259256 0.00299407 0.0191397 0.00340976 0.0276519 0.00376812 0.0233603 0.00583221 0.0358946
41 3 O 0.996207 67.0238 2.99799 -1.2 1 0.00362778 0.00673944 0.00204451 0.0080977 0.00267828 0.00576436 0.00222735 0.0205542 0.00233999 0.00995479 0.00290728 0.0248077 0.00358214 0.0199819 0.00387008 0.0280769 0.00468006 0.022168 0.00700019 0.0357649
42 3 O 0.861589 67.1418 5.6571 -1.2 1 0.0030642 0.00700326 0.00123477 0.00826698 0.00212604 0.00572388 0.00280202 0.0203521 0.00229616 0.0103979 0.00314939 0.0243015 0.00317654 0.0197955 0.00380287 0.0267736 0.00400112 0.02209 0.00658065 0.0343672
43 1 Mg -0.0330196 63.0099 2.93214 1.2 1 0.00274439 0.00662928 0.00116517 0.00971646 0.0012432 0.00724335 0.00103004 0.0203186 0.0014832 0.0102931 0.00187354 0.0265208 0.00228086 0.0192414 0.00251803 0.0278973 0.0028217 0.0235113 0.00427309 0.0368731
44 1 Mg -0.457942 59.9509 4.73649 1.2 1 0.00426682 0.00933769 0.00174278 0.00934621 0.00185371 0.00708598 0.00152538 0.0191252 0.00200221 0.0107408 0.00267413 0.0253463 0.00324319 0.01952 0.00357979 0.027382 0.00400173 0.0241083 0.00398905 0.0343748
45 2 Si 1.99077 61.9876 4.46574 2.4 1 0.00281484 0.00679256 0.00157564 0.0102503 0.00199954 0.00612068 0.00186162 0.0191945 0.00198296 0.0104091 0.002458 0.0250633 0.00281182 0.0199239 0.00372832 0.0278575 0.00373499 0.0235026 0.00442807 0.0363323
46 3 O -1.26125 61.9266 4.38415 -1.2 1 0.00260247 0.00726564 0.0013597 0.0104983 0.00198624 0.00611296 0.00125629 0.0197026 0.00240308 0.0104466 0.00227717 0.0253613 0.00324297 0.0198839 0.00381377 0.0283369 0.00395852 0.0235485 0.00489072 0.0367486
47 3 O 1.0585 58.1331 4.51986 -1.2 1 0.0119983 0.014032 0.00483167 0.00832857 0.00181432 0.0071295 0.0016854 0.0184837 0.00327054 0.0102684 0.00246264 0.025045 0.00453826 0.0187823 0.00573088 0.0266771 0.00515816 0.0236564 0.00378212 0.0331247
48 3 O 1.26894 61.4865 3.0698 -1.2 1 0.00278035 0.00683058 0.00128334 0.00999631 0.00191093 0.00631248 0.00156653 0.020141 0.00185777 0.0103267 0.00233146 0.0258466 0.00284326 0.0201068 0.00353913 0.0285737 0.00307543 0.0242188 0.00331493 0.0374941
49 1 Mg -0.199303 63.1818 0.0225475 1.2 1 0.0024554 0.00659236 0.00127829 0.00899408 0.000743976 0.00703766 0.00115145 0.0208101 0.00129409 0.0106714 0.00153608 0.0272521 0.00222828 0.0191915 0.00270314 0.02911 0.00277857 0.0240661 0.00323791 0.0385418
50 3 O 1.1073 61.2171 5.79598 -1.2 1 0.00326291 0.00754087 0.00190283 0.00999881 0.00213887 0.00661062 0.00234687 0.01967 0.00221524 0.0110831 0.0024316 0.0249396 0.00328404 0.0201017 0.00358904 0.0284618 0.0035008 0.0239511 0.00492555 0.0351857
51 1 Mg -0.143501 66.1428 1.25201 1.2 1 0.00372825 0.00686554 0.00195332 0.00850716 0.00138097 0.00601738 0.00213065 0.0208231 0.00244346 0.0105094 0.0029681 0.0257187 0.00275008 0.0203422 0.00310126 0.0289495 0.00263775 0.0232989 0.00618687 0.037282
52 2 Si -2.15105 63.9671 1.46637 2.4 1 0.00292709 0.00636968 0.00102824 0.00968465 0.00161966 0.00666354 0.0021151 0.0199228 0.00228578 0.0101235 0.0026419 0.0254545 0.00256316 0.0205391 0.00462885 0.0282353 0.00394707 0.0229537 0.00503612 0.0387899
53 3 O 0.976467 63.9138 1.50761 -1.2 1 0.00293838 0.00634763 0.00110544 0.00938376 0.000927809 0.00633783 0.00146545 0.0201337 0.00215916 0.00998373 0.00256821 0.025902 0.00306992 0.0196146 0.00317581 0.0285564 0.00325423 0.022933 0.00445161 0.0378991
54 3 O -1.02973 68.1048 1.36244 -1.2 1 0.0052708 0.00575883 0.00249035 0.00849264 0.00153377 0.00625781 0.00188223 0.021051 0.0023369 0.0101228 0.00258451 0.0250928 0.00325076 0.0192295 0.00364946 0.0273075 0.00385463 0.0229945 0.00662456 0.036963
55 3 O -1.68902 64.8611 0.269768 -1.2 1 0.00333465 0.00625307 0.0016022 0.00897901 0.00138038 0.00610108 0.00164873 0.0208614 0.00184513 0.0101116 0.00188795 0.0258585 0.00263311 0.0203764 0.00317692 0.029757 0.00279488 0.023396 0.00461585 0.0387892
56 3 O -1.37283 64.7092 2.80908 -1.2 1 0.00291829 0.00661399 0.00147643 0.00885087 0.00181857 0.00645587 0.00316306 0.0203613 0.00190265 0.00996834 0.00275751 0.0252746 0.00230553 0.0204038 0.00399957 0.0282931 0.00320175 0.0230746 0.00547275 0.0372031
57 1 Mg -2.36838 68.7651 -0.356635 1.2 1 0.00520178 0.00527539 0.00231067 0.0079807 0.00185711 0.00600579 0.00183875 0.0207 0.00252938 0.0100093 0.00305338 0.0256266 0.00329214 0.0195446 0.00300718 0.0273858 0.0031392 0.0225407 0.00555781 0.0367505
58 1 Mg 2.10888 71.4324 1.36676 1.2 1 0.00563704 0.00553386 0.00162323 0.00746705 0.00157297 0.00538565 0.00197456 0.0205489 0.00227655 0.0104188 0.00279459 0.0242889 0.00284241 0.0197816 0.00322998 0.0279027 0.00380095 0.0229046 0.00507062 0.0354471
59 2 Si -0.431985 69.7029 1.26046 2.4 1 0.00563957 0.00543965 0.00193256 0.00845715 0.00224018 0.00543451 0.00251992 0.0203116 0.00218051 0.00938037 0.0022616 0.0239105 0.00285097 0.0195779 0.00256931 0.0274231 0.00366067 0.0225852 0.00616038 0.0361522
60 3 O 1.14396 69.6756 1.04175 -1.2 1 0.00633989 0.0050599 0.0018017 0.00813678 0.00241697 0.0052681 0.00205983 0.0197124 0.00200384 0.00955934 0.00208851 0.0240783 0.00276512 0.0196577 0.00321902 0.0273733 0.00424445 0.0222332 0.00613786 0.0365672
61 3 O -1.60952 73.5117 1.43478 -1.2 1 0.00433458 0.00494892 0.000696885 0.00774092 0.00167028 0.00569831 0.00185674 0.0207518 0.001532 0.0108963 0.0016024 0.0239552 0.00214901 0.0189906 0.00381149 0.0272404 0.00405354 0.0233288 0.00372131 0.0345717
62 3 O -1.086 70.2626 0.00307157 -1.2 1 0.00525338 0.0050611 0.00212379 0.00747246 0.00233168 0.0053271 0.0023015 0.0203855 0.00226541 0.0101084 0.00228973 0.0245445 0.00275086 0.0199375 0.00356402 0.027424 0.00398364 0.0222427 0.0054272 0.0357403
63 1 Mg -2.39664 79.6123 3.25996 1.2 1 0.000638306 0.00591784 0.00190433 0.0081818 0.00158661 0.00582132 0.00149797 0.019124 0.00176845 0.0124359 0.00203542 0.0230042 0.00270155 0.0191124 0.00427422 0.0272203 0.00409256 0.0222217 0.00490291 0.0333995
64 3 O -1.17796 70.4101 2.43154 -1.2 1 0.00514625 0.00579584 0.00162939 0.00805621 0.00212203 0.00548716 0.00296703 0.0199498 0.00208764 0.00998022 0.00209894 0.024086 0.00244302 0.0203364 0.00314858 0.0281206 0.00295851 0.0228478 0.00541328 0.0355452
65 1 Mg -2.43442 76.1995 4.49473 1.2 1 0.00247942 0.0052294 0.00220773 0.00750452 0.00145726 0.00591982 0.00153029 0.0204495 0.00173046 0.0121061 0.00248945 0.0235677 0.00238515 0.019913 0.00406259 0.0284448 0.00327361 0.0235151 0.00492781 0.0333021
66 2 Si 0.300959 78.2365 4.73811 2.4 1 0.00238554 0.00585797 0.00194971 0.0086413 0.00210201 0.00544331 0.00148903 0.0187075 0.00201591 0.0117239 0.00286639 0.0221741 0.00260489 0.0199487 0.00488992 0.027545 0.00362018 0.0225098 0.00513646 0.033775
67 3 O -1.17335 78.3886 4.51102 -1.2 1 0.00189489 0.00595428 0.0016869 0.00818263 0.00184845 0.00536268 0.00151987 0.018905 0.00202582 0.0119073 0.00204259 0.0230071 0.00224657 0.0195402 0.00430185 0.0275852 0.00299461 0.0221405 0.00498507 0.0340294
68 3 O 1.66992 74.2609 4.8999 -1.2 1 0.00258891 0.00512493 0.00177089 0.00764062 0.00175692 0.00562308 0.00120142 0.0211615 0.00153632 0.0125392 0.00229379 0.023415 0.00181699 0.0193049 0.00276748 0.0273905 0.00331762 0.0231082 0.0043053 0.0334932
69 3 O 0.816452 77.268 3.56976 -1.2 1 0.00213252 0.00560071 0.00173562 0.00805541 0.00205358 0.00597488 0.00203284 0.0194765 0.00202133 0.0116517 0.00244148 0.023017 0.00273615 0.0199874 0.00502849 0.0285238 0.00407838 0.0233018 0.00461229 0.0333917
70 3 O 0.971172 77.4591 6.04451 -1.2 1 0.00308667 0.00577132 0.00207704 0.00753668 0.00206424 0.00624773 0.00142254 0.0200535 0.00163961 0.0118937 0.00239247 0.0231142 0.00251667 0.0206162 0.00351489 0.0284976 0.00385049 0.0226344 0.00541936 0.0342706
71 1 Mg -0.203603 73.4172 2.98943 1.2 1 0.00421663 0.00521137 0.000975501 0.00790667 0.00193985 0.00550644 0.00166388 0.0201971 0.00169682 0.0111857 0.00175805 0.0237494 0.0017123 0.0195645 0.00279132 0.02814 0.00298335 0.0234602 0.003481 0.0335155
72 1 Mg 0.0890456 70.9943 4.46616 1.2 1 0.00358511 0.00625757 0.00102696 0.00774789 0.00155605 0.00565574 0.00171761 0.0208844 0.00224147 0.0112095 0.00253858 0.0249851 0.00188044 0.0196829 0.00338642 0.0273798 0.00414248 0.0223322 0.00527454 0.0349352
73 2 Si 2.09166 72.8537 4.61234 2.4 1 0.00309811 0.00543293 0.00121666 0.0083397 0.00213968 0.00526122 0.00170579 0.0203781 0.00193458 0.0110898 0.00245709 0.0232818 0.00247793 0.0199914 0.00364494 0.027601 0.00353744 0.0223008 0.00408044 0.0340279
74 3 O -1.2248 72.9679 4.51803 -1.2 1 0.00325355 0.00547308 0.00133952 0.00825408 0.00187809 0.00508574 0.00161145 0.0198595 0.0023291 0.0110682 0.00154499 0.0235074 0.00203063 0.0197427 0.0033906 0.0272347 0.00324785 0.0222048 0.00423036 0.0345725
75 3 O 0.840584 69.165 3.93912 -1.2 1 0.00413082 0.00639454 0.0019564 0.00797067 0.00210831 0.00570528 0.00249622 0.0209354 0.00212594 0.0108172 0.00240782 0.0250789 0.00221891 0.0192612 0.00363085 0.0270644 0.00361397 0.0218916 0.00606037 0.0344457
76 3 O 1.46834 72.2486 3.23684 -1.2 1 0.00444509 0.00588555 0.00105903 0.00779656 0.00242873 0.00568115 0.00225769 0.0206395 0.00242999 0.0106123 0.00171254 0.0236106 0.00236508 0.0203129 0.00340476 0.0280464 0.00349141 0.0229148 0.00467816 0.0343999
77 1 Mg -0.295192 74.0085 -0.00730326 1.2 1 0.0034621 0.00456266 0.000850595 0.00723047 0.00154956 0.00566811 0.0012967 0.0208035 0.00139123 0.0110383 0.0019458 0.0244943 0.00204937 0.019328 0.00385654 0.0275026 0.00442717 0.0230897 0.00353903 0.0342201
78 3 O 1.21951 71.969 5.80598 -1.2 1 0.00241419 0.00591546 0.000737767 0.00791334 0.00221496 0.00575718 0.00217633 0.0212157 0.00193319 0.0116277 0.00217464 0.0244289 0.00262182 0.0204209 0.0040024 0.0270711 0.00406593 0.0227023 0.00494405 0.0347162
79 1 Mg -0.105447 76.6661 1.88213 1.2 1 0.00226902 0.00537315 0.00148875 0.00759317 0.00136244 0.00576509 0.00187435 0.0195558 0.00199447 0.0118561 0.00216018 0.0236089 0.00239864 0.0198731 0.00449622 0.0286047 0.00409679 0.0230543 0.00407957 0.0333761
80 2 Si -2.35513 74.8957 1.53023 2.4 1 0.00337163 0.00485428 0.000607756 0.00806505 0.00193132 0.00520461 0.00239786 0.0203704 0.00162919 0.011168 0.00216551 0.0228017 0.0025229 0.0200776 0.0039707 0.0278696 0.00425746 0.0230549 0.00375154 0.0341488
81 3 O 0.89793 74.6476 1.57504 -1.2 1 0.00340335 0.00455514 0.000914801 0.00800619 0.00171197 0.00526328 0.00205234 0.0195368 0.00167953 0.0107283 0.00170964 0.0234588 0.00198501 0.0190986 0.00337485 0.0279189 0.00330699 0.0227507 0.00338094 0.0337169
82 3 O -1.03404 78.8058 1.66095 -1.2 1 0.00050202 0.00563027 0.00165196 0.00837652 0.00151638 0.00560208 0.00194485 0.0195495 0.00187626 0.0127319 0.00226028 0.0230494 0.00199094 0.0187681 0.00387281 0.0267987 0.00452948 0.0220998 0.00478709 0.0330744
83 3 O -1.60111 75.4245 0.0881322 -1.2 1 0.00275383 0.00445679 0.000695411 0.00722328 0.00170291 0.00518933 0.00168069 0.0198364 0.00162759 0.0105406 0.00186449 0.0233642 0.00265204 0.0194202 0.00474042 0.0281244 0.00455661 0.0231548 0.00363056 0.0339217
84 3 O -1.66525 75.7582 2.6288 -1.2 1 0.00369589 0.00513912 0.0015031 0.00795427 0.00114324 0.0057943 0.0018676 0.020291 0.0016342 0.0111978 0.00156163 0.023216 0.00286816 0.0199358 0.00342035 0.0288812 0.00415088 0.023615 0.00360873 0.0337847
85 1 Mg -2.68764 78.8609 0.488228 1.2 1 0.00118443 0.00501394 0.00170051 0.00801508 0.0024424 0.00556343 0.00212314 0.0187859 0.00181166 0.0121395 0.00182408 0.0234593 0.0021758 0.0186228 0.00379 0.0270486 0.00406016 0.0219773 0.00441644 0.032858
86 1 Mg 2.38364 82.0735 1.63516 1.2 1 0.00343638 0.00645959 0.0019118 0.00861819 0.00173244 0.00649216 0.00201085 0.0186594 0.00223511 0.0127585 0.00259856 0.0232039 0.00298639 0.0197564 0.00446623 0.0270906 0.00475458 0.0210776 0.00422493 0.0336199
87 2 Si -0.483775 80.2587 1.62697 2.4 1 0.00107805 0.00581505 0.00192016 0.00889883 0.00190388 0.00559574 0.00235195 0.0180196 0.00230525 0.011668 0.00280957 0.0220225 0.00257633 0.0191502 0.00488922 0.0260541 0.00483634 0.0212661 0.00457246 0.0334837
88 3 O 1.23396 80.2133 1.87174 -1.2 1 0.000965434 0.00540995 0.00174039 0.00863213 0.00161832 0.00556438 0.00194236 0.0178092 0.00211197 0.0118151 0.00218827 0.0224827 0.0027791 0.0189158 0.00432895 0.0269839 0.00520052 0.0213015 0.00438598 0.0332241
89 3 O -1.61443 84.386 1.65523 -1.2 1 0.00368408 0.00650005 0.00239813 0.00941978 0.00157161 0.00706746 0.00179764 0.0192617 0.00201937 0.0128125 0.003086 0.0233484 0.00374621 0.0195185 0.00423696 0.0269859 0.00346293 0.0206659 0.00405104 0.0351705
90 3 O -1.04604 81.0453 0.405624 -1.2 1 0.00244324 0.0058417 0.00196448 0.00843525 0.00173109 0.00609038 0.00250306 0.018229 0.00224659 0.0115741 0.00269694 0.0220575 0.00298294 0.0197462 0.00382853 0.0272881 0.00421368 0.0209843 0.0039337 0.033082
91 1 Mg -2.56737 90.0416 3.07501 1.2 1 0.00282849 0.00342637 0.00148719 0.00974458 0.00137292 0.00748077 0.000906565 0.0191068 0.00154397 0.0119492 0.00177484 0.0253909 0.00222419 0.0206663 0.00346416 0.0271573 0.00340551 0.0213231 0.00294906 0.0355123
92 3 O -1.11303 80.9382 2.86875 -1.2 1 0.00157717 0.00651532 0.00182426 0.00860685 0.00130867 0.00639895 0.00184187 0.0186719 0.00220268 0.012394 0.00226146 0.0224733 0.00290397 0.0198666 0.00457928 0.0270887 0.00370413 0.0213251 0.00425152 0.0340378
93 1 Mg -2.58768 86.883 4.75121 1.2 1 0.00241003 0.00555595 0.00155957 0.00937675 0.00146851 0.00748884 0.00115 0.0193412 0.00174938 0.0128254 0.00229675 0.0245142 0.00201185 0.0215284 0.0033721 0.0276611 0.00437722 0.0203548 0.00280007 0.0367757
94 2 Si 0.127345 88.7364 4.51658 2.4 1 0.00211073 0.0038437 0.000911664 0.0104511 0.00149826 0.00696797 0.00140645 0.0186944 0.00126294 0.0117592 0.00227025 0.0241491 0.00228071 0.0214396 0.00271253 0.0282434 0.0033068 0.0215399 0.00268138 0.0374294
95 3 O -1.33773 89.0253 4.69897 -1.2 1 0.00200454 0.00345909 0.000830697 0.0105728 0.00131032 0.00648243 0.0012484 0.0180287 0.00224364 0.0118727 0.00218177 0.0245851 0.00211867 0.0212787 0.00309888 0.0279727 0.00270476 0.0208261 0.00337203 0.0370121
96 3 O 1.39387 85.1235 4.47114 -1.2 1 0.00331651 0.00620463 0.0018985 0.0095828 0.00143585 0.00720472 0.00123477 0.0199427 0.00161534 0.0132113 0.00219713 0.0237335 0.00200962 0.0205324 0.00296842 0.0275065 0.00338894 0.0207182 0.00313863 0.0364927
97 3 O 0.798859 88.2874 3.21323 -1.2 1 0.00341813 0.00475624 0.00100187 0.00938038 0.00137372 0.00724287 0.0015102 0.0188349 0.00163304 0.0117356 0.00195657 0.0243388 0.00297122 0.0214829 0.00394792 0.0284646 0.00423194 0.0209439 0.00355677 0.0369694
98 3 O 0.945838 87.9914 5.77146 -1.2 1 0.00147719 0.00450913 0.00121023 0.00952941 0.00119646 0.00760506 0.00113264 0.0194681 0.00158489 0.012061 0.00198262 0.0244328 0.00229347 0.0218228 0.00321589 0.0284816 0.00336525 0.0212058 0.00239255 0.0367832
99 1 Mg -0.153842 84.953 3.09384 1.2 1 0.00336775 0.00691116 0.00208874 0.00946314 0.00151032 0.00723855 0.00128916 0.0191226 0.00158612 0.013122 0.00186679 0.0239804 0.00251723 0.0199023 0.00327129 0.0270672 0.00368066 0.0202425 0.00372052 0.0356379
100 1 Mg -0.155128 81.7341 4.57643 1.2 1 0.00241945 0.00655237 0.00213628 0.0086064 0.00151558 0.00659998 0.00156102 0.0194616 0.00189127 0.0127316 0.00182433 0.0228275 0.002571 0.0204317 0.00308811 0.0277997 0.00366386 0.0213977 0.0038681 0.0350187
101 2 Si 1.97605 83.648 4.43935 2.4 1 0.00310097 0.00643068 0.00247295 0.00969956 0.00187144 0.00659979 0.00187417 0.0189263 0.00162967 0.0129087 0.0027188 0.0224514 0.00170742 0.0212132 0.00318405 0.0273141 0.00456313 0.0202898 0.00419572 0.0362207
102 3 O -1.1338 83.6513 4.46872 -1.2 1 0.00305228 0.0065241 0.00214276 0.00932529 0.00174684 0.00644497 0.00165319 0.0183459 0.0022072 0.0128435 0.00202559 0.0227127 0.00247397 0.0202794 0.00376679 0.0266797 0.00451517 0.019972 0.00373579 0.0358166
103 3 O 1.08582 79.6734 4.73721 -1.2 1 0.00178358 0.00656212 0.00173802 0.00801803 0.001744 0.00620779 0.0015758 0.020042 0.00179708 0.0126063 0.00231202 0.0229319 0.00326274 0.0198417 0.00465515 0.0277801 0.00317165 0.0224721 0.00446671 0.0345114
104 3 O 1.24468 82.7212 3.44342 -1.2 1 0.00304946 0.00684411 0.00212846 0.00877454 0.00193494 0.00679496 0.00228579 0.0188015 0.00221154 0.0126105 0.00257132 0.0223358 0.00222944 0.0204408 0.00425934 0.027717 0.00424668 0.0207846 0.00414335 0.0344327
105 1 Mg 0.0614297 84.3318 0.417259 1.2 1 0.00471485 0.00622339 0.00184878 0.00926309 0.0018421 0.00669475 0.00176546 0.018567 0.00220662 0.0124128 0.0022107 0.0234863 0.00304034 0.0196041 0.00318495 0.0271599 0.00382556 0.0201466 0.00393087 0.0344065
106 3 O 1.43531 83.0645 5.84956 -1.2 1 0.00322312 0.00626544 0.0022974 0.0086722 0.00251739 0.00693357 0.00202202 0.0195273 0.00165034 0.013101 0.00192154 0.0234563 0.00228992 0.0213302 0.00309108 0.0283477 0.0035326 0.0206378 0.00335284 0.0361132
107 1 Mg -0.26138 87.8802 1.48591 1.2 1 0.00416419 0.00537131 0.00128541 0.00959709 0.00147457 0.0074978 0.00161059 0.0194038 0.00168318 0.0127618 0.00216515 0.0244285 0.00230095 0.0206014 0.00309606 0.0272081 0.00319941 0.0210541 0.00359175 0.036578
108 2 Si -2.22544 85.964 1.76478 2.4 1 0.00446181 0.00653685 0.0016225 0.0102518 0.00205297 0.00679642 0.00183054 0.0181711 0.00168613 0.0121538 0.00264773 0.0231852 0.002665 0.0202913 0.0036 0.0264993 0.0031291 0.0199277 0.00423652 0.0364316
109 3 O 0.939185 85.6151 1.56847 -1.2 1 0.00448173 0.00612965 0.0019064 0.0101642 0.00224546 0.00658591 0.00189397 0.0184023 0.00281263 0.0127775 0.00266568 0.0233238 0.00200792 0.0203459 0.0025092 0.0270494 0.0032611 0.0202152 0.00427556 0.036231
110 3 O -1.2936 89.7241 1.71658 -1.2 1 0.00344336 0.00386065 0.00118444 0.010325 0.00184247 0.0072868 0.00138183 0.0189943 0.00151391 0.0125612 0.00210136 0.0247719 0.00213859 0.0212591 0.00310251 0.0269993 0.00337281 0.0212426 0.00346491 0.0361251
111 3 O -1.48263 86.6713 0.588678 -1.2 1 0.00459975 0.00611555 0.00173397 0.00935251 0.00173209 0.00726939 0.00158198 0.018853 0.001497 0.0122768 0.00213664 0.0237634 0.00286383 0.0203903 0.00325655 0.0272211 0.00308524 0.0206547 0.00429588 0.0357659
112 3 O -1.54303 86.4888 3.03082 -1.2 1 0.00358946 0.00624352 0.00129619 0.00940097 0.00162545 0.00711023 0.00129925 0.0192768 0.00171008 0.0125731 0.00177558 0.0239993 0.00228203 0.0211598 0.00312024 0.0285278 0.00316756 0.020727 0.00361143 0.0371112
113 1 Mg -2.41403 90.1213 0.155925 1.2 1 0.00378252 0.00370508 0.00119846 0.00988422 0.00165239 0.00748972 0.00121704 0.0188589 0.00149555 0.0129821 0.00184366 0.0253119 0.00177398 0.0208925 0.0031594 0.0267593 0.00316864 0.0209523 0.00348284 0.0351611
114 1 Mg 2.3177 93.1982 1.71831 1.2 1 0.00367368 0.00349723 0.00137267 0.00893112 0.00154283 0.00659875 0.00160542 0.0196659 0.00223481 0.0116408 0.0017623 0.0262162 0.00227799 0.0210008 0.00330846 0.0272514 0.00382082 0.022052 0.00363792 0.0349838
115 2 Si -0.523844 91.1663 1.74845 2.4 1 0.00378977 0.00283004 0.00129703 0.0105248 0.00294715 0.00682996 0.0017946 0.0183198 0.00160444 0.0117775 0.00199613 0.0249725 0.00212295 0.0213659 0.00414518 0.0268809 0.00379415 0.0215908 0.00432656 0.0355998
116 3 O 1.0215 91.0782 1.66772 -1.2 1 0.00355585 0.00324216 0.00161589 0.0100776 0.00210343 0.00652197 0.00144562 0.0184406 0.00267023 0.0118238 0.00178884 0.0249451 0.00253173 0.0212756 0.00357504 0.0271249 0.00366473 0.0212973 0.00377298 0.0356778
117 3 O -1.41563 95.1527 1.47163 -1.2 1 0.00465869 0.00416847 0.00134065 0.00873025 0.00197838 0.00611781 0.0014594 0.0200522 0.0020352 0.0109239 0.00284916 0.0259336 0.00273939 0.0197745 0.00375345 0.0269409 0.0036943 0.0223107 0.00343642 0.0355134
118 3 O -1.01157 91.855 0.427533 -1.2 1 0.00434468 0.00330457 0.00136845 0.00939767 0.00286836 0.00751784 0.00175119 0.0188562 0.00202063 0.0119616 0.00234604 0.025135 0.00232228 0.0218252 0.00340399 0.0276075 0.00358881 0.0215355 0.00438848 0.0343855
119 1 Mg -2.24619 100.838 3.07872 1.2 1 0.00239012 0.00572002 0.00141638 0.00765218 0.000963315 0.00546555 0.00103955 0.0206178 0.00183786 0.0100915 0.00172986 0.0261868 0.0025676 0.0174063 0.0034035 0.0265708 0.00375648 0.0230074 0.00283977 0.0370844