ITEM: TIMESTEP
87200
ITEM: NUMBER OF ATOMS
5600
ITEM: BOX BOUNDS xy xz yz pp pp pp
0	7.1235	0
0	201.985	2.3745
0	119.584	0
ITEM: ATOMS id type element xu yu zu q Q_1 Q_2 Q_3 Q_4 Q_5 Q_6 Q_7 Q_8 Q_9 Q_10 Q_11 Q_12 Q_13 Q_14 Q_15 Q_16 Q_17 Q_18 Q_19 Q_20 Q_21
1 1 Mg -1.55706 47.766 -1.06051 1.2 1 0.240961 0.0740625 0.0173777 0.0239519 0.00460544 0.0147871 0.00443998 0.0199063 0.00442844 0.0270877 0.00814302 0.0285417 0.0114968 0.0211355 0.0089398 0.0196796 0.00781905 0.020287 0.0110936 0.0281472
2 1 Mg 3.16169 50.5566 1.4907 1.2 1 0.160514 0.0569805 0.00565753 0.0142861 0.00200973 0.00895247 0.00326125 0.0176628 0.00412235 0.0221 0.00554098 0.0263999 0.00748949 0.0204308 0.00645352 0.020965 0.00534794 0.0186447 0.00828356 0.0265416
3 2 Si 0.988243 49.5 -0.00048781 2.4 1 0.197265 0.0656485 0.0107401 0.0171192 0.00316412 0.0101399 0.0040301 0.0183032 0.00444642 0.0234623 0.00697555 0.0276712 0.0093026 0.0218201 0.00722389 0.0213208 0.00658306 0.0185972 0.00998368 0.0274433
4 3 O 2.41822 48.8971 0.232289 -1.2 1 0.213862 0.067971 0.0133518 0.0201372 0.00316537 0.011873 0.00492489 0.0188909 0.00535265 0.0251448 0.00739282 0.0277311 0.0101006 0.0213774 0.00837714 0.0206967 0.00790537 0.0190956 0.0090538 0.0268336
5 3 O -1.17975 52.693 1.19211 -1.2 1 0.117674 0.0467204 0.00146132 0.0112341 0.00169011 0.00849406 0.00309064 0.0176523 0.00329316 0.0183798 0.00436457 0.0264649 0.00538562 0.0196526 0.00451717 0.0220659 0.00412895 0.0182279 0.00651587 0.0279065
6 3 O 0.163933 48.5344 -1.20905 -1.2 1 0.21215 0.0686445 0.0145222 0.020249 0.00342165 0.0134074 0.00392771 0.0192181 0.00502001 0.0246436 0.00649237 0.0269735 0.00979245 0.0199291 0.00752539 0.019041 0.00769155 0.0192663 0.00996276 0.0280317
7 1 Mg -2.30902 58.1087 2.71998 1.2 1 0.0110267 0.0133392 0.00524636 0.00726373 0.00236353 0.00719979 0.00173348 0.0204464 0.00309586 0.0123238 0.00376137 0.0270674 0.0036791 0.0223738 0.00438681 0.0273488 0.00428858 0.0218744 0.00391062 0.0312974
8 3 O -0.0669843 49.5625 1.26003 -1.2 1 0.187696 0.0630145 0.008361 0.0164368 0.0023525 0.00947221 0.00362838 0.018047 0.00457296 0.0234653 0.00700407 0.0277425 0.00770497 0.0222535 0.00712884 0.0217861 0.00613165 0.0182183 0.00839716 0.0261224
9 1 Mg -2.13503 55.1394 4.52757 1.2 1 0.0615473 0.0318276 0.00641593 0.0075829 0.0026609 0.00766982 0.00211294 0.018903 0.00313776 0.015806 0.00385198 0.0269376 0.00472814 0.0217698 0.00468904 0.0258779 0.00463412 0.0207698 0.00542033 0.0273695
10 2 Si 0.61586 57.0088 4.49607 2.4 1 0.0225157 0.0179922 0.00729425 0.00710705 0.00243349 0.00680945 0.00207961 0.0191098 0.00272092 0.0125912 0.00439163 0.0265801 0.00422005 0.0221055 0.00591872 0.0263959 0.00528229 0.0211901 0.00480495 0.0299488
11 3 O -0.995561 57.0728 4.52967 -1.2 1 0.0205039 0.0172066 0.00731304 0.00718446 0.00256909 0.00707407 0.00173104 0.0186622 0.00334575 0.0124555 0.00337278 0.0265231 0.00408081 0.0222254 0.00499054 0.0264556 0.005178 0.0211482 0.00467317 0.0301107
12 3 O 1.67377 52.9224 4.4983 -1.2 1 0.107342 0.043283 0.0020355 0.0109137 0.00251342 0.00751528 0.00248049 0.0181537 0.0035671 0.0187824 0.00317983 0.0273338 0.00406879 0.0215983 0.00397859 0.0239611 0.00441164 0.020263 0.00568943 0.026375
13 3 O 1.21207 56.5809 3.05572 -1.2 1 0.0269592 0.0212133 0.00765102 0.00675396 0.00229656 0.00753243 0.00234834 0.0203725 0.00252759 0.0132346 0.0036957 0.0265408 0.00499057 0.0224554 0.00607867 0.0262094 0.00586446 0.0216718 0.00496265 0.0302311
14 3 O 1.0689 55.9411 5.50517 -1.2 1 0.0400131 0.0249835 0.00725476 0.00680619 0.00289133 0.00766443 0.00166716 0.0196525 0.00251353 0.0146703 0.00369448 0.0270989 0.00399868 0.0221267 0.0051234 0.0260855 0.00419907 0.0212152 0.0040896 0.0272632
15 1 Mg 0.21472 53.0322 2.96355 1.2 1 0.110048 0.0449196 0.00178935 0.0104593 0.00213658 0.00803087 0.00249808 0.0180826 0.00241649 0.0185398 0.00335781 0.0268612 0.00454577 0.0206823 0.00516643 0.0228871 0.00434896 0.0186704 0.00654489 0.0272356
16 1 Mg 0.389758 48.582 2.75254 1.2 1 0.21151 0.0644504 0.0127571 0.0191971 0.00307529 0.011073 0.00358035 0.018513 0.00488581 0.0256194 0.00666224 0.0290455 0.00829015 0.0241941 0.00783047 0.0233938 0.00585458 0.0194949 0.00973531 0.0256269
17 2 Si 2.37169 51.4216 4.50904 2.4 1 0.150094 0.0524128 0.004979 0.0140479 0.00354584 0.00852724 0.00368639 0.0175582 0.00341457 0.0209126 0.00550437 0.0288586 0.00617969 0.0235173 0.00582677 0.0249364 0.00530722 0.0200871 0.00738226 0.0247165
18 3 O -0.893056 51.7442 4.49891 -1.2 1 0.136525 0.0493304 0.0033023 0.0125164 0.00269891 0.00768616 0.00291837 0.0169569 0.00386322 0.0199086 0.00448025 0.0283527 0.00525308 0.0234751 0.00477935 0.0246343 0.00496919 0.0196414 0.00615659 0.0251851
19 3 O 2.08075 47.6673 3.25317 -1.2 1 0.233706 0.0685059 0.0171343 0.0219795 0.00385504 0.0127551 0.00406675 0.0186387 0.00651489 0.0260847 0.00674271 0.0305222 0.00899494 0.0257576 0.00936144 0.0259677 0.00804511 0.0216531 0.0103591 0.0255734
20 3 O 1.97559 50.7358 3.06572 -1.2 1 0.156557 0.0548113 0.00495511 0.0141423 0.00204388 0.00858116 0.00311151 0.0169953 0.00305858 0.0217426 0.00436561 0.027906 0.00671682 0.0222384 0.00616346 0.0228636 0.00519607 0.0192179 0.00829867 0.0260897
21 1 Mg -0.117891 53.192 -0.277407 1.2 1 0.108158 0.0454917 0.00213689 0.0107281 0.0020354 0.00757735 0.0028486 0.0182798 0.00336068 0.01801 0.00475896 0.0264652 0.00494238 0.019514 0.00475885 0.0219808 0.00524362 0.0186482 0.00681211 0.0291108
22 3 O 1.60752 50.5545 5.69679 -1.2 1 0.167806 0.0568012 0.007223 0.0158776 0.00349633 0.00857335 0.00359802 0.0179581 0.00467144 0.021358 0.0052818 0.0295073 0.00595656 0.0247451 0.00506174 0.0262225 0.0049149 0.0203707 0.00693035 0.0244461
23 1 Mg 0.108634 55.6994 1.47102 1.2 1 0.0450674 0.0284254 0.00701916 0.00724829 0.00215918 0.00745657 0.00257077 0.0192976 0.00313464 0.0141706 0.00439758 0.026709 0.00479301 0.0216897 0.00599337 0.0249922 0.00529142 0.019224 0.00624519 0.0304049
24 2 Si -1.89655 54.2107 1.66331 2.4 1 0.0842385 0.0380567 0.00376914 0.00817632 0.00217407 0.00721109 0.00253494 0.0177441 0.00243128 0.0163536 0.00399948 0.0258091 0.00430581 0.0204775 0.0050901 0.0225424 0.00399726 0.0180218 0.00639358 0.0285088
25 3 O 1.30558 53.985 1.68466 -1.2 1 0.0924243 0.0395509 0.00245697 0.00921208 0.00195991 0.00738642 0.00315916 0.0171782 0.00286384 0.0169192 0.00447628 0.026 0.0048095 0.0199805 0.00603344 0.0230066 0.00421813 0.0182712 0.00646045 0.028107
26 3 O -0.924542 57.6398 1.28499 -1.2 1 0.0154064 0.0170807 0.00682848 0.0071456 0.00167221 0.00666869 0.00195289 0.0211425 0.00346905 0.0120964 0.00382385 0.0271669 0.00391538 0.0215034 0.0042795 0.0266596 0.00508906 0.0216994 0.00474099 0.0321646
27 3 O -1.30795 54.906 0.531573 -1.2 1 0.0651487 0.0334448 0.00524853 0.00752154 0.00194299 0.00700865 0.00181348 0.0182831 0.00279143 0.0145709 0.00430959 0.025186 0.00409553 0.0206157 0.00556481 0.0239295 0.00472334 0.0187203 0.00592718 0.0292511
28 3 O -1.31006 54.6525 3.01281 -1.2 1 0.0721998 0.0350828 0.00510155 0.00767951 0.00230942 0.00760062 0.00292856 0.0184622 0.00266264 0.0164643 0.00330177 0.0258282 0.00428606 0.0219446 0.00458543 0.0238971 0.00467709 0.0196248 0.00626657 0.0272322
29 1 Mg -2.20798 57.9592 -0.217751 1.2 1 0.0116947 0.0162223 0.006213 0.00708394 0.00193055 0.0069622 0.00213093 0.0210489 0.00299051 0.0121089 0.00380385 0.0274167 0.00309216 0.0210896 0.00405059 0.0270491 0.00471969 0.0229427 0.0040947 0.0337077
30 1 Mg 2.54772 61.0948 1.67489 1.2 1 0.0003547 0.00596064 0.00201818 0.00807087 0.00162055 0.00702576 0.00138459 0.0214985 0.00259137 0.0111022 0.00306308 0.0276639 0.00253738 0.0231194 0.00397689 0.029665 0.00399547 0.0248775 0.00356191 0.0340955
31 2 Si -0.284993 59.1408 1.53556 2.4 1 0.00463115 0.0109544 0.00407038 0.00836008 0.00218996 0.00676669 0.0016172 0.0204463 0.00266901 0.0108388 0.00390662 0.0260741 0.00376521 0.0226327 0.00363268 0.0280347 0.00439826 0.0228199 0.0042257 0.0338106
32 3 O 1.22683 58.9218 1.49072 -1.2 1 0.00345711 0.0105073 0.00416545 0.00797612 0.00205494 0.0065407 0.00228098 0.0204561 0.00331259 0.0108547 0.00371552 0.0267991 0.00351168 0.021965 0.0033911 0.0282604 0.00436959 0.0226032 0.00416033 0.033613
33 3 O -1.09083 62.9139 1.81258 -1.2 1 0.00310934 0.00385211 0.00124371 0.00912157 0.00151647 0.00656252 0.00166378 0.0205603 0.00182536 0.0109553 0.00236317 0.0267037 0.00222577 0.0219274 0.00348205 0.0288643 0.0030884 0.0240779 0.00345392 0.0341562
34 3 O -0.874123 60.1208 0.506491 -1.2 1 0.000980635 0.00790211 0.00288245 0.0087291 0.00184538 0.00694978 0.00188738 0.0214616 0.00258337 0.0103891 0.00344653 0.0266338 0.00314439 0.0219511 0.00320314 0.0293679 0.00484469 0.0245597 0.00409453 0.0356482
35 1 Mg -2.34351 69.0622 3.27286 1.2 1 0.00618275 0.00570063 0.00204899 0.00929697 0.00208158 0.00511565 0.00232666 0.0202662 0.00172282 0.0119414 0.00208639 0.0245766 0.00353294 0.0204348 0.0048789 0.0282371 0.00433442 0.0250592 0.00480981 0.0346718
36 3 O -0.704372 59.7463 3.00597 -1.2 1 0.00322821 0.00887914 0.00335802 0.00776304 0.00179816 0.00689565 0.00207154 0.0201855 0.00265487 0.0111607 0.00309374 0.0263972 0.00277723 0.0228599 0.00348212 0.0283495 0.00395222 0.0229601 0.00352215 0.0325164
37 1 Mg -2.07579 66.0608 4.74037 1.2 1 0.00595153 0.00460533 0.00177836 0.00835781 0.00218235 0.00544872 0.00307919 0.0198426 0.00228359 0.0113232 0.00279688 0.0244936 0.00320108 0.0220736 0.00430025 0.0288449 0.00398666 0.0252009 0.00534707 0.0326771
38 2 Si 0.396097 68.0688 4.81889 2.4 1 0.00656452 0.00514322 0.00167294 0.00948386 0.00266932 0.00516737 0.00304907 0.0195853 0.00185827 0.0114051 0.00224756 0.0230927 0.00328134 0.0216512 0.00572542 0.0276834 0.00574208 0.0246225 0.00614732 0.0332566
39 3 O -1.05486 67.9773 4.90246 -1.2 1 0.00621175 0.0048464 0.00221796 0.00883184 0.00235325 0.00519793 0.00300323 0.0191213 0.00210081 0.0116775 0.00273041 0.0235249 0.002892 0.021661 0.00347248 0.0277845 0.00436753 0.0245888 0.00485136 0.0333667
40 3 O 1.48594 63.903 4.72146 -1.2 1 0.00481985 0.0043461 0.00130979 0.00818579 0.00153618 0.00651863 0.00203321 0.0200766 0.0016074 0.0110891 0.00290432 0.0258603 0.00213294 0.0222191 0.00359768 0.028029 0.00340279 0.0246608 0.00391165 0.0331127
41 3 O 0.999905 67.5057 3.45635 -1.2 1 0.00629659 0.00533209 0.0015094 0.00883854 0.00231406 0.0053476 0.00355331 0.0205713 0.00197401 0.0117378 0.0025219 0.0239991 0.00348412 0.0212303 0.00525641 0.0286152 0.0047763 0.0250911 0.00514263 0.0334073
42 3 O 1.14019 67.0554 5.77555 -1.2 1 0.00587206 0.00486658 0.00218443 0.00833029 0.00248175 0.00571831 0.00331448 0.0197609 0.00125608 0.0117851 0.00216309 0.0234187 0.00284385 0.0224078 0.00449358 0.0282965 0.00465498 0.0247938 0.00490798 0.0324352
43 1 Mg 0.379544 63.6032 3.18175 1.2 1 0.00425002 0.0041029 0.00113475 0.00836962 0.00167073 0.00691218 0.00138675 0.0207691 0.0017247 0.0117294 0.00230363 0.0269465 0.00221662 0.0217297 0.00305387 0.0283545 0.0030105 0.0247556 0.0040219 0.0329488
44 1 Mg 0.303139 60.3107 4.56917 1.2 1 0.00346563 0.00758926 0.00323364 0.00723616 0.00141655 0.00718445 0.00145101 0.0208526 0.0023529 0.0118629 0.00316732 0.0272599 0.00290272 0.0229786 0.00398041 0.0287542 0.00378691 0.024339 0.00414083 0.0324965
45 2 Si 2.19181 62.3915 4.76002 2.4 1 0.00334973 0.00497565 0.00157205 0.00898238 0.00187442 0.00616847 0.00241441 0.0190596 0.00181954 0.0103291 0.00256029 0.0257681 0.00231652 0.0221675 0.00369212 0.0278535 0.00275749 0.0244457 0.00462519 0.0330659
46 3 O -0.973175 62.4902 4.73757 -1.2 1 0.0030445 0.00468723 0.00153228 0.00840301 0.00197191 0.00629606 0.00230032 0.0194331 0.00228708 0.0107399 0.00227396 0.0255829 0.00251622 0.022786 0.00286191 0.0284865 0.0031392 0.0246771 0.00388729 0.0329373
47 3 O 1.31614 58.5262 4.45658 -1.2 1 0.00938696 0.0111474 0.00503478 0.00743422 0.00183373 0.00688611 0.00205625 0.0197133 0.00322319 0.011748 0.00308997 0.0267155 0.00356466 0.0225867 0.00407304 0.0272136 0.00481939 0.0219215 0.00400343 0.0310413
48 3 O 1.70979 61.6793 3.50173 -1.2 1 0.00202347 0.00606096 0.00190669 0.00776628 0.00178646 0.00677402 0.00165151 0.0205629 0.00142659 0.0109055 0.00236987 0.0266204 0.00270947 0.0228471 0.00293007 0.0295409 0.00350027 0.0245815 0.00408623 0.0324899
49 1 Mg 0.156175 63.5494 0.219202 1.2 1 0.00304517 0.00386223 0.00118543 0.00952309 0.00159833 0.00629575 0.00188279 0.0217264 0.00178014 0.0112338 0.00187759 0.0273428 0.00213193 0.0213759 0.00338665 0.0292352 0.00344565 0.0245558 0.00346726 0.0351872
50 3 O 1.46639 61.8203 6.03446 -1.2 1 0.00387105 0.0057055 0.00181706 0.00765821 0.00151125 0.0067585 0.00202685 0.0196938 0.00186293 0.011177 0.0015099 0.025078 0.00246281 0.0224294 0.00267392 0.0288709 0.00310198 0.0248845 0.00391912 0.032177
51 1 Mg -0.054506 66.3842 1.81042 1.2 1 0.0064365 0.00518237 0.00130128 0.00889582 0.00221744 0.00574767 0.00178719 0.0203738 0.00274306 0.011791 0.00255716 0.0253892 0.0028137 0.0210295 0.00399494 0.0288136 0.00434063 0.0246334 0.0046932 0.0335277
52 2 Si -1.84467 64.3711 1.69094 2.4 1 0.00497935 0.00364184 0.000608846 0.00965574 0.00207831 0.00573054 0.0024716 0.0204677 0.00212097 0.0105511 0.00315697 0.0252528 0.00321262 0.0220901 0.00449053 0.0289973 0.00435378 0.0243463 0.00469939 0.0342071
53 3 O 1.3582 64.5492 1.77571 -1.2 1 0.00528825 0.00358201 0.000910754 0.00959733 0.00189766 0.00559601 0.00162432 0.0200792 0.00257917 0.0104261 0.0025728 0.0255221 0.00202481 0.0216845 0.00393027 0.028299 0.00376117 0.0238246 0.00487563 0.0336492
54 3 O -1.09576 68.5979 1.7688 -1.2 1 0.00702863 0.00576244 0.00166684 0.00931371 0.00282106 0.00534382 0.00180887 0.020637 0.00246184 0.0114267 0.00233913 0.0245232 0.00301957 0.0206929 0.00465795 0.0285891 0.00407105 0.0248765 0.00407802 0.0347958
55 3 O -1.17503 65.0151 0.35123 -1.2 1 0.00542592 0.00449917 0.00106462 0.00949065 0.00234757 0.00569896 0.00245468 0.0207605 0.00244748 0.0108188 0.00277713 0.0261668 0.00271931 0.0219017 0.00334213 0.0292358 0.00438407 0.0240996 0.00484996 0.0348834
56 3 O -1.32032 65.2979 2.81308 -1.2 1 0.0056013 0.00446916 0.00132909 0.0087748 0.00247736 0.00637906 0.00173905 0.019914 0.00240418 0.011147 0.00249243 0.0249485 0.00306883 0.0222225 0.00445719 0.0280703 0.00457416 0.0243966 0.00519863 0.0324353
57 1 Mg -2.43048 69.018 0.280523 1.2 1 0.00632508 0.00613388 0.00171437 0.00861555 0.00246499 0.00571901 0.00180885 0.0210233 0.00205368 0.0114416 0.00207475 0.0260633 0.00257422 0.020245 0.00372064 0.0291884 0.00352169 0.0242546 0.00379061 0.0349735
58 1 Mg 2.4466 71.9443 1.8262 1.2 1 0.00472 0.00622425 0.00171433 0.00842353 0.00191407 0.00555142 0.00138415 0.0208907 0.00273426 0.0113848 0.00225154 0.0248676 0.00310582 0.0207916 0.0036044 0.0282457 0.00425247 0.0243905 0.00452418 0.0355132
59 2 Si -0.273398 70.0302 1.92601 2.4 1 0.00687193 0.00561303 0.00208498 0.00890768 0.00324607 0.00480886 0.00210519 0.0200195 0.00254313 0.0108429 0.0028618 0.0239108 0.00371324 0.0214569 0.00423001 0.0287462 0.00448555 0.0245301 0.00426886 0.0352162
60 3 O 1.28599 70.0263 1.8413 -1.2 1 0.00681234 0.00589755 0.00206376 0.00885394 0.00312443 0.00484897 0.00185349 0.0200723 0.00310961 0.0106232 0.00194365 0.0242838 0.00346544 0.0213499 0.00443663 0.0296776 0.00525217 0.0243776 0.00507859 0.0355939
61 3 O -1.2143 73.9326 1.89556 -1.2 1 0.00345318 0.00533453 0.000821231 0.00905287 0.00176832 0.00560369 0.00174379 0.0206689 0.00220309 0.0114922 0.00250973 0.0244901 0.0031797 0.0201096 0.0031573 0.0277705 0.00369413 0.0239986 0.00420322 0.0363475
62 3 O -0.762523 70.9049 0.66793 -1.2 1 0.00544856 0.00635215 0.00217156 0.00825572 0.00192791 0.00559453 0.00140279 0.0211634 0.00233806 0.0103676 0.00184721 0.0245992 0.00325446 0.0212067 0.00428143 0.0291054 0.00366847 0.0246824 0.00433131 0.0354678
63 1 Mg -1.93423 79.5577 2.96511 1.2 1 0.000960883 0.00512768 0.00141357 0.00858957 0.00153823 0.00513949 0.00160629 0.0205839 0.00211754 0.011005 0.00236124 0.0258679 0.00286874 0.0193015 0.00442215 0.0272677 0.00441302 0.0227931 0.00526932 0.0364455
64 3 O -0.878703 70.6613 3.28604 -1.2 1 0.00590455 0.00596744 0.00184195 0.00851562 0.00245212 0.00519764 0.00199256 0.0203875 0.00198349 0.011454 0.00169866 0.0240607 0.00370387 0.0219352 0.00389134 0.0287362 0.00430687 0.02461 0.00458155 0.0355749
65 1 Mg -1.77711 76.7909 4.72147 1.2 1 0.000628624 0.00628153 0.00147958 0.00800739 0.00120534 0.00544856 0.00227489 0.0207618 0.00219476 0.0115519 0.00258604 0.0250108 0.00387077 0.0203395 0.00417042 0.0291466 0.00422556 0.023575 0.0041667 0.0359846
66 2 Si 0.663639 78.8413 4.52523 2.4 1 0.00177684 0.00472678 0.001555 0.00924004 0.00108815 0.00498381 0.00179326 0.0198587 0.00181728 0.0109477 0.00316373 0.0244444 0.00351807 0.0199715 0.00512405 0.0274443 0.00480115 0.0220606 0.00451884 0.0362546
67 3 O -0.835123 78.7826 4.52564 -1.2 1 0.00120605 0.00446549 0.00201017 0.00899911 0.00134055 0.00474973 0.00145982 0.0197353 0.00224983 0.0106204 0.00214251 0.0246932 0.0029948 0.0193637 0.00375232 0.0278859 0.004306 0.0219901 0.00415831 0.036392
68 3 O 1.79896 74.8313 4.50633 -1.2 1 0.000699292 0.00613825 0.0011334 0.00834403 0.00100274 0.00571318 0.00120509 0.020524 0.00142021 0.0118932 0.00225583 0.0246022 0.00336027 0.0200157 0.00405644 0.0282348 0.00419089 0.0236383 0.0027646 0.0361854
69 3 O 1.31393 78.0472 3.35865 -1.2 1 0.00126611 0.0055856 0.00159568 0.00856368 0.00122252 0.00537978 0.00187158 0.0207535 0.00172145 0.0109128 0.00252252 0.024635 0.00343336 0.0206758 0.00456217 0.02848 0.00424545 0.0233684 0.00401871 0.036715
70 3 O 1.31776 78.3407 6.06447 -1.2 1 0.00136491 0.0055969 0.00137718 0.00819788 0.0013566 0.00537689 0.00238019 0.0202401 0.00207958 0.0110466 0.0029603 0.0249448 0.00364954 0.0199859 0.0046185 0.0279243 0.00448582 0.0217971 0.00476909 0.0357923
71 1 Mg 0.23295 74.3699 3.23584 1.2 1 0.00158312 0.00588071 0.00109815 0.00818337 0.00123222 0.00602056 0.00104069 0.0205474 0.00199726 0.0120817 0.00175402 0.0246233 0.00328119 0.0203904 0.00388731 0.0281129 0.00407302 0.024333 0.0032372 0.0356578
72 1 Mg 0.278133 71.4942 5.0251 1.2 1 0.00504162 0.00573166 0.00188284 0.00849153 0.00177403 0.00514364 0.00241656 0.0204328 0.00194902 0.0124192 0.00243988 0.0237168 0.00334836 0.0215467 0.00527142 0.0295112 0.00535454 0.0246405 0.00423713 0.0360208
73 2 Si 2.49085 73.3197 4.74447 2.4 1 0.00296989 0.00563955 0.00172369 0.0085906 0.00152203 0.00502642 0.00169246 0.0201391 0.00155187 0.0117742 0.00201963 0.0233942 0.00354398 0.0208605 0.00493685 0.0283462 0.00522863 0.0242509 0.0036582 0.0369876
74 3 O -0.781606 73.4277 4.77426 -1.2 1 0.0023586 0.00585284 0.00128292 0.00838476 0.00147564 0.0048076 0.00133347 0.0198887 0.00164355 0.0116347 0.00210913 0.0239376 0.00284609 0.0205271 0.00320146 0.0284983 0.0045569 0.023939 0.00291273 0.0357215
75 3 O 1.26452 69.4109 5.04052 -1.2 1 0.00520262 0.00558748 0.00208732 0.00927409 0.00176317 0.00557443 0.00215581 0.0203183 0.00127294 0.0126991 0.00195544 0.0237493 0.00306156 0.0209468 0.00350362 0.0281348 0.0044758 0.0253708 0.00447119 0.0347073
76 3 O 1.74507 72.4176 3.57632 -1.2 1 0.00413458 0.00554596 0.00124266 0.00803228 0.00157844 0.00546513 0.00224909 0.0202051 0.00240141 0.0115313 0.00215073 0.0235799 0.00378726 0.021282 0.00441849 0.0286504 0.00495067 0.0246135 0.00431231 0.0353402
77 1 Mg 0.263648 74.1196 0.206401 1.2 1 0.00382534 0.00537358 0.00154877 0.00941959 0.00145786 0.00554952 0.00109672 0.0206897 0.00200323 0.0114845 0.00161962 0.0253804 0.00315573 0.0203434 0.00346283 0.0282367 0.00326712 0.0248388 0.00413628 0.0364541
78 3 O 1.73145 72.7007 5.95262 -1.2 1 0.00335779 0.00560211 0.00121608 0.00838613 0.00207838 0.0051277 0.00227149 0.0199499 0.00174231 0.0118126 0.00222116 0.0236745 0.00353201 0.0209911 0.0053993 0.0292574 0.00527014 0.0242234 0.00416393 0.0353186
79 1 Mg 0.0964381 77.3675 1.5324 1.2 1 0.00147463 0.00518695 0.0013622 0.00889799 0.00167188 0.00575081 0.00147204 0.0211761 0.00190436 0.0109859 0.00224594 0.0244842 0.00285186 0.0205052 0.00331297 0.0279978 0.00397544 0.02447 0.00406121 0.0368232
80 2 Si -1.83437 75.4149 1.84212 2.4 1 0.00222562 0.00513805 0.00125173 0.00975655 0.0022654 0.00501693 0.00204624 0.0201196 0.002235 0.0106122 0.00236355 0.0235105 0.00307909 0.0207077 0.00279954 0.0281395 0.00362601 0.0237975 0.00298543 0.0374127
81 3 O 1.37935 75.1333 1.56347 -1.2 1 0.00271228 0.00505019 0.00115343 0.00903976 0.0019981 0.00508878 0.00130323 0.0201602 0.00276691 0.0108493 0.00201641 0.0247195 0.00362272 0.0203797 0.00376964 0.0285255 0.00394121 0.0239511 0.00439578 0.0367273
82 3 O -0.615577 79.5446 1.6963 -1.2 1 0.000773819 0.00528592 0.00106577 0.00897209 0.00216127 0.0054877 0.00158631 0.0207306 0.00141686 0.0111602 0.00209039 0.0257362 0.00263869 0.0198752 0.00368314 0.0269834 0.0036103 0.0237876 0.00457184 0.0374155
83 3 O -1.09221 76.0642 0.571857 -1.2 1 0.00230095 0.00536613 0.00120904 0.0093342 0.00216978 0.00545703 0.00222218 0.0207329 0.00201848 0.0109349 0.00235064 0.0245223 0.00292849 0.0210593 0.0025944 0.0287826 0.00323401 0.0240848 0.00369118 0.0372917
84 3 O -1.13877 76.077 3.00442 -1.2 1 0.00124664 0.00577128 0.0015251 0.00862665 0.00247124 0.00492065 0.00265845 0.0201091 0.00288395 0.0109948 0.00210388 0.0244141 0.00338683 0.0205327 0.00403 0.0286845 0.00411284 0.0234272 0.00304528 0.0364295
85 1 Mg -2.07742 79.7882 0.176367 1.2 1 0.00105628 0.00509173 0.00125026 0.00896102 0.00152034 0.00577716 0.00133213 0.0210423 0.00124818 0.0106861 0.001774 0.0258679 0.00199089 0.0194338 0.002931 0.027577 0.00271412 0.0242328 0.00270173 0.0366812
86 1 Mg 2.75128 82.7697 1.76352 1.2 1 0.00202757 0.00563901 0.0013198 0.00909482 0.00142291 0.00495724 0.00165748 0.0206736 0.00143031 0.0119296 0.00265155 0.026318 0.00287512 0.019473 0.00440601 0.0271459 0.00458129 0.0242081 0.00432584 0.0364232
87 2 Si 0.0765346 80.852 1.72914 2.4 1 0.00138208 0.00526524 0.00169347 0.00975782 0.00264658 0.00491687 0.00195378 0.0200442 0.00175839 0.0105847 0.00238242 0.0249587 0.00223319 0.0197433 0.00423213 0.02705 0.00379765 0.0234512 0.00417076 0.03758
88 3 O 1.59921 80.7565 1.60024 -1.2 1 0.00120752 0.00483455 0.00142 0.00946513 0.00222024 0.00491592 0.00180226 0.0198383 0.00186139 0.0108943 0.00257581 0.0255776 0.00231801 0.0192317 0.00435607 0.0264655 0.00380621 0.0232017 0.00482064 0.0368253
89 3 O -0.892685 84.4496 1.56437 -1.2 1 0.00224418 0.00604353 0.000922508 0.00946455 0.00140385 0.00511928 0.000653883 0.0214125 0.00120769 0.0120001 0.00157619 0.0260251 0.00249847 0.0191514 0.00341544 0.0262703 0.00388149 0.02458 0.00385898 0.0368309
90 3 O -0.676617 81.6523 0.534485 -1.2 1 0.00219812 0.00543853 0.00156209 0.00912333 0.00165373 0.00527372 0.00127204 0.0204797 0.00144366 0.0113289 0.00216706 0.025098 0.0020102 0.0199516 0.0033518 0.0273751 0.00338518 0.024288 0.00354493 0.0364856
91 1 Mg -2.11178 90.6887 3.11798 1.2 1 0.00278351 0.00570837 0.00199125 0.00882688 0.00149433 0.00596557 0.00159516 0.0217208 0.00149626 0.0120756 0.00260445 0.0266734 0.00370225 0.0191268 0.00563419 0.0268432 0.00562226 0.0251223 0.00401572 0.036053
92 3 O -0.815038 81.5593 3.10011 -1.2 1 0.00173873 0.0051467 0.00151507 0.00914199 0.00262385 0.00503916 0.00149238 0.0207273 0.00178557 0.0107477 0.00239127 0.0250772 0.00300049 0.019233 0.00439896 0.0272576 0.00450828 0.02315 0.00456598 0.0363057
93 1 Mg -1.98249 87.5472 4.75271 1.2 1 0.00107774 0.00518312 0.00239648 0.00879677 0.00230289 0.00520914 0.00230435 0.0213883 0.00269803 0.0117367 0.00323008 0.026119 0.00484028 0.0192649 0.00678429 0.026132 0.00655477 0.0242137 0.00583337 0.0361671
94 2 Si 0.514115 89.5028 4.74823 2.4 1 0.00232154 0.00549507 0.00257401 0.0093601 0.00252093 0.00540946 0.00262305 0.0216816 0.00230155 0.0117711 0.00365343 0.0253687 0.00468786 0.019343 0.00742321 0.025089 0.00718486 0.0249809 0.00563019 0.0368175
95 3 O -1.06273 89.485 4.76294 -1.2 1 0.0018079 0.00509741 0.00229722 0.00916451 0.00185163 0.00538706 0.00206852 0.0206517 0.00194201 0.0116354 0.00294584 0.0260445 0.00470098 0.0188154 0.00586637 0.0250054 0.00664424 0.0242158 0.00450965 0.0361083
96 3 O 1.87395 85.6515 4.85826 -1.2 1 0.000798741 0.00532998 0.00100166 0.0089875 0.00224715 0.00537067 0.00202404 0.0213332 0.00121518 0.0123516 0.00329483 0.0261134 0.00420439 0.0192984 0.0056811 0.0247654 0.00638865 0.023594 0.00545848 0.0354531
97 3 O 1.25952 88.6822 3.43973 -1.2 1 0.00134729 0.00539366 0.00218038 0.00865296 0.00198185 0.00561569 0.002978 0.022164 0.00238766 0.0111597 0.00317548 0.0252514 0.00438903 0.0199124 0.00619181 0.0259586 0.0058472 0.0252587 0.00490823 0.0364634
98 3 O 1.20297 88.8186 5.98903 -1.2 1 0.00151023 0.00495672 0.00201725 0.00878518 0.00235986 0.00589826 0.00269253 0.0216032 0.00210288 0.0117685 0.00327171 0.0244136 0.00530788 0.0196764 0.00756408 0.0251461 0.00695516 0.0241698 0.00564161 0.0349559
99 1 Mg 0.345852 85.1834 3.07108 1.2 1 0.00126063 0.00571963 0.00127974 0.00916804 0.0018477 0.00503992 0.0012447 0.0213716 0.00149259 0.0120795 0.00208313 0.0266188 0.00309671 0.0188609 0.00440504 0.0260081 0.00463048 0.0244395 0.00413478 0.0363312
100 1 Mg 0.360932 82.1953 4.68825 1.2 1 0.00159895 0.00538601 0.0015716 0.00888407 0.00183758 0.00529545 0.00177156 0.0206916 0.00278869 0.0114869 0.00241394 0.0256487 0.00330839 0.0194867 0.00468122 0.0259198 0.00456939 0.0226623 0.00488041 0.035684
101 2 Si 2.5197 84.3427 4.65102 2.4 1 0.00174181 0.00570282 0.0012785 0.00959043 0.00219516 0.00500005 0.00213646 0.0208397 0.00135297 0.0111194 0.00337331 0.0252498 0.00354892 0.0195753 0.00575286 0.0250421 0.00609843 0.0233284 0.0056866 0.0360591
102 3 O -0.751355 84.4312 4.77292 -1.2 1 0.00160005 0.00522193 0.00128353 0.0092099 0.00205132 0.00488918 0.00162875 0.0201423 0.00195048 0.0112591 0.00231163 0.0259398 0.00371621 0.0191288 0.00521029 0.0248111 0.00572041 0.0226756 0.00508838 0.0355108
103 3 O 1.21452 80.3325 4.37475 -1.2 1 0.00206728 0.00496233 0.00176313 0.00875178 0.00127402 0.00535439 0.00134722 0.0207876 0.00157066 0.0112222 0.00319256 0.0257883 0.00340915 0.0191864 0.00422316 0.0269553 0.0043128 0.0224097 0.00436522 0.0363562
104 3 O 1.80907 83.6466 3.35419 -1.2 1 0.00165011 0.00571329 0.0012953 0.00900671 0.00189977 0.004909 0.00255606 0.0207884 0.00173097 0.0114007 0.00245512 0.0259367 0.00349729 0.0192275 0.00493687 0.0261151 0.00497131 0.0235098 0.00454459 0.035797
105 1 Mg 0.138431 85.0859 0.0181482 1.2 1 0.00334884 0.00611027 0.000841033 0.00949706 0.00106931 0.0051652 0.00128125 0.0206456 0.00104364 0.0112808 0.00142078 0.0259542 0.00177669 0.0193739 0.00289073 0.0269643 0.00295112 0.024663 0.00293507 0.0367784
106 3 O 1.66201 83.5124 5.87354 -1.2 1 0.00147855 0.00574776 0.0016278 0.00911686 0.00195687 0.005053 0.00238152 0.0203903 0.00197163 0.0110055 0.00262055 0.0252581 0.0037249 0.0197096 0.00540425 0.0257683 0.0060954 0.0227529 0.00567068 0.0357087
107 1 Mg 0.483016 88.2131 1.66151 1.2 1 0.00164522 0.00565113 0.0013 0.0084331 0.00160493 0.00533007 0.00129888 0.0213126 0.00195314 0.0113238 0.00223659 0.0268808 0.00261699 0.0193545 0.00396542 0.02724 0.00437032 0.0249239 0.00316793 0.0371278
108 2 Si -1.85573 85.9484 1.58939 2.4 1 0.00225381 0.00567225 0.000940055 0.00955245 0.00162075 0.00487127 0.00122687 0.0206235 0.00169228 0.0115453 0.00220012 0.0260736 0.00214545 0.0196795 0.00394892 0.0264621 0.00400719 0.0242824 0.00360905 0.0373863
109 3 O 1.47599 85.8827 1.52476 -1.2 1 0.00204389 0.00581573 0.00112392 0.00956163 0.00196067 0.00481242 0.00113882 0.0204352 0.0017869 0.0109633 0.00206671 0.0264247 0.00237094 0.0192929 0.00379325 0.0266807 0.0043367 0.0242868 0.00371783 0.0372648
110 3 O -0.624997 89.905 1.43985 -1.2 1 0.00173581 0.00572255 0.00171741 0.00905446 0.000986998 0.00577589 0.00145697 0.021869 0.00215803 0.0118744 0.0025196 0.0266774 0.00240988 0.0194932 0.00410058 0.0270143 0.00380138 0.0251309 0.00269915 0.0368024
111 3 O -1.05299 86.7288 0.163807 -1.2 1 0.00305691 0.0059825 0.000681683 0.00913529 0.00169874 0.0052055 0.00171216 0.020841 0.00171559 0.0111866 0.00196664 0.0258547 0.0021701 0.0199411 0.00382039 0.0269934 0.00372582 0.0247326 0.00234195 0.037053
112 3 O -1.0432 86.7709 2.69627 -1.2 1 0.000920894 0.00549707 0.00162929 0.00874801 0.00218733 0.00503934 0.00120133 0.0216299 0.00199564 0.0110576 0.00258375 0.026043 0.00315204 0.0202818 0.00495937 0.0267794 0.00538715 0.0246412 0.00493228 0.0366245
113 1 Mg -2.07165 90.2354 0.0985729 1.2 1 0.00288458 0.00569048 0.000807301 0.00891837 0.00208847 0.00580851 0.00195144 0.021524 0.00215129 0.0116736 0.00171309 0.0265433 0.0022987 0.0194045 0.0026775 0.0275638 0.00321383 0.0251692 0.00367137 0.0360677
114 1 Mg 2.65126 93.4162 1.37408 1.2 1 0.00488906 0.00529632 0.00101719 0.00979512 0.00167105 0.00648442 0.00171736 0.0215363 0.00206898 0.0123545 0.00199509 0.0261937 0.00231812 0.0207142 0.00398156 0.0275341 0.00425888 0.024647 0.00311168 0.0359206
115 2 Si 0.113341 91.6175 1.57746 2.4 1 0.00366395 0.00535043 0.00145163 0.00966966 0.00162369 0.00595797 0.0016706 0.0217209 0.00229034 0.0116775 0.00255004 0.0257402 0.00258431 0.0206861 0.00376014 0.0280293 0.00434916 0.024919 0.00277176 0.0367744
116 3 O 1.63001 91.3835 1.59196 -1.2 1 0.00317411 0.00544163 0.00149998 0.00966501 0.00146058 0.00541282 0.00146597 0.0206065 0.00328048 0.0110757 0.00223596 0.0256206 0.00254295 0.0202488 0.00374803 0.027261 0.00408204 0.0245471 0.00319396 0.0363059
117 3 O -1.08557 95.1612 1.53525 -1.2 1 0.0056651 0.0049054 0.00159614 0.00983402 0.00177234 0.00601656 0.00170119 0.0216478 0.00241306 0.0124176 0.0020873 0.0258342 0.00319185 0.0199091 0.0046747 0.0270589 0.00444524 0.0249059 0.00302979 0.0357993
118 3 O -0.664664 92.4331 0.423645 -1.2 1 0.00359803 0.00596452 0.00112811 0.00966368 0.00174665 0.00637921 0.00156981 0.0218772 0.00203105 0.0118446 0.00181099 0.0256865 0.00264309 0.0210846 0.00319028 0.0279519 0.00381473 0.0250523 0.00291601 0.0365907
119 1 Mg -2.06374 100.948 3.09082 1.2 1 0.00344829 0.00629802 0.00171172 0.00833338 0.00150653 0.00624875 0.00133711 0.0212269 0.00209474 0.0119036 0.00160054 0.0266468 0.00209274 0.0195435 0.00367046 0.0272675 0.00418355 0.0246417 0.00333865 0.0354668