ITEM: TIMESTEP
17300
ITEM: NUMBER OF ATOMS
5600
ITEM: BOX BOUNDS xy xz yz pp pp pp
0	7.1235	0
0	201.985	2.3745
0	119.584	0
ITEM: ATOMS id type element xu yu zu q Q_1 Q_2 Q_3 Q_4 Q_5 Q_6 Q_7 Q_8 Q_9 Q_10 Q_11 Q_12 Q_13 Q_14 Q_15 Q_16 Q_17 Q_18 Q_19 Q_20 Q_21
1 1 Mg -2.01349 49.5045 -0.932046 1.2 1 0.235739 0.079105 0.019027 0.0258836 0.00590875 0.0145947 0.0049662 0.0219623 0.00510755 0.0250255 0.00594413 0.0287242 0.00989341 0.0268469 0.00694156 0.0239373 0.00857522 0.022542 0.0108909 0.0309549
2 1 Mg 2.61157 50.9989 2.28517 1.2 1 0.195633 0.0684234 0.011407 0.0206216 0.00341239 0.00956346 0.00356513 0.0191527 0.00467686 0.0196733 0.00520318 0.0237838 0.00577701 0.0241258 0.00509451 0.0231811 0.00814606 0.0199631 0.0101515 0.0297593
3 2 Si 0.530564 51.2679 0.301038 2.4 1 0.195809 0.0690258 0.0132293 0.0211419 0.00454723 0.0108035 0.00321113 0.0202988 0.00492936 0.0212564 0.0041088 0.0257038 0.00715993 0.0256937 0.00515672 0.0244505 0.00785726 0.0200936 0.00947037 0.0315186
4 3 O 1.83514 50.2903 0.59664 -1.2 1 0.217417 0.0734661 0.016726 0.0236203 0.00526632 0.0117409 0.00357393 0.0199093 0.0053083 0.0221859 0.00495814 0.0248959 0.0078897 0.0261926 0.00702349 0.0231638 0.00872585 0.0205056 0.00962491 0.0298266
5 3 O -1.42962 53.7953 1.52808 -1.2 1 0.132415 0.0510608 0.0039224 0.0137613 0.00254548 0.00787034 0.00285283 0.0198862 0.00331103 0.0159148 0.00336657 0.0256916 0.0052842 0.0210875 0.00298612 0.0247671 0.00655788 0.0193473 0.007738 0.0348201
6 3 O -0.202711 50.5525 -0.84961 -1.2 1 0.209469 0.0737337 0.013645 0.0234696 0.00522127 0.0129189 0.00457634 0.0209282 0.00311369 0.0229691 0.0045669 0.0270661 0.00757576 0.0263548 0.00522927 0.023863 0.0070363 0.0209473 0.00929006 0.0316038
7 1 Mg -2.42179 59.5677 3.06131 1.2 1 0.0139337 0.0136682 0.00564776 0.00633316 0.00104462 0.00558827 0.00105234 0.0231419 0.00291068 0.0107269 0.00247254 0.0293551 0.00236853 0.0204422 0.00371755 0.0310907 0.00463957 0.0241049 0.00441502 0.0450491
8 3 O -0.266721 51.1632 1.63244 -1.2 1 0.187079 0.0667609 0.0107236 0.0201154 0.00331474 0.00966723 0.0032874 0.0199914 0.00451658 0.0207668 0.00486642 0.0251517 0.00590629 0.0243038 0.00553664 0.0236396 0.00789309 0.0204619 0.00915977 0.0304841
9 1 Mg -2.38857 56.6864 4.48708 1.2 1 0.0717775 0.03494 0.00422835 0.00859511 0.00183228 0.00587165 0.00198997 0.0202782 0.00251961 0.0130292 0.00233309 0.0265381 0.00275028 0.018571 0.00355793 0.0268061 0.00488447 0.0206908 0.0064007 0.0378924
10 2 Si 0.234421 58.5981 4.51861 2.4 1 0.0289848 0.020772 0.00692597 0.0069744 0.00140001 0.00537293 0.00268343 0.022263 0.00256865 0.0103081 0.00353087 0.027829 0.00290559 0.020139 0.00552523 0.0297205 0.00458655 0.0228084 0.00561969 0.0431534
11 3 O -1.27316 58.6724 4.50914 -1.2 1 0.025202 0.0192245 0.00703606 0.00644772 0.00112659 0.00517386 0.00208293 0.0219114 0.00319374 0.00985651 0.00263224 0.0283623 0.00353047 0.0196865 0.00410961 0.0300347 0.00486617 0.0224594 0.00505505 0.0435803
12 3 O 1.39829 54.4398 4.66992 -1.2 1 0.120141 0.0473958 0.00244195 0.0124533 0.00167983 0.007388 0.00275898 0.0198929 0.00269056 0.0153883 0.0030923 0.0253864 0.00347668 0.0197137 0.0031499 0.0240435 0.00498196 0.0185216 0.00739979 0.0350761
13 3 O 0.86218 57.8397 3.30656 -1.2 1 0.0424303 0.0262917 0.00626921 0.00745168 0.00182791 0.00534346 0.00145704 0.021736 0.00286727 0.0114084 0.00268973 0.027669 0.00245114 0.0206093 0.00399175 0.028824 0.00469405 0.0221342 0.00588039 0.041471
14 3 O 0.993606 57.9866 5.86161 -1.2 1 0.0373506 0.0233437 0.00700922 0.00679681 0.00137433 0.00566486 0.00187751 0.0215276 0.00226825 0.0102896 0.00226187 0.0276085 0.00245498 0.0194493 0.00462875 0.0295783 0.00338816 0.0225135 0.00531987 0.0419622
15 1 Mg 0.0691248 53.8003 2.93122 1.2 1 0.131096 0.0529892 0.00225139 0.0144089 0.00178708 0.00833221 0.00248895 0.0195384 0.00328389 0.0164822 0.00350231 0.0256848 0.00429424 0.020203 0.00378218 0.0240811 0.0049624 0.0184502 0.00803375 0.0338603
16 1 Mg 0.436639 50.0312 3.05636 1.2 1 0.219015 0.0720326 0.0162782 0.0231365 0.00446317 0.0115268 0.00394571 0.0200475 0.00450233 0.0209076 0.00408 0.0236322 0.00702888 0.0245416 0.00613087 0.0223913 0.00921446 0.0209469 0.0103865 0.0293689
17 2 Si 2.13105 52.9898 4.61153 2.4 1 0.159804 0.0582935 0.00639763 0.016114 0.00315139 0.00868901 0.00369092 0.0191584 0.00297447 0.0174656 0.00384839 0.0249189 0.00476382 0.0201838 0.00468206 0.0238072 0.00480884 0.0184512 0.00910225 0.0325578
18 3 O -1.09688 53.3421 4.67785 -1.2 1 0.143146 0.0546402 0.00349261 0.0141174 0.00229134 0.00714215 0.00281807 0.0192409 0.00375727 0.0167598 0.00280898 0.0254544 0.0045286 0.0220794 0.00294192 0.0237368 0.00640103 0.0184085 0.00833416 0.0337645
19 3 O 2.25165 49.2886 3.35806 -1.2 1 0.236975 0.075947 0.0195235 0.0256421 0.0052913 0.0127518 0.00485729 0.0198694 0.00420462 0.0226435 0.00500686 0.0243892 0.00903539 0.02437 0.00779869 0.0220676 0.0102565 0.0227442 0.0110663 0.0291478
20 3 O 1.62427 52.3042 3.29092 -1.2 1 0.164941 0.059377 0.0074653 0.0166146 0.00340227 0.00882035 0.00348607 0.0195941 0.00288882 0.0178046 0.00361544 0.0250425 0.0050093 0.022063 0.00425558 0.0234271 0.00564955 0.0189487 0.00892526 0.0321318
21 1 Mg -0.153938 54.5987 0.0603716 1.2 1 0.111057 0.048964 0.00119858 0.013393 0.00204106 0.00712955 0.0027162 0.0207144 0.00364853 0.0167082 0.00390193 0.0272668 0.0037767 0.0209447 0.00335134 0.0261243 0.00594418 0.0206862 0.00735064 0.0359115
22 3 O 1.73877 51.9759 5.86684 -1.2 1 0.173006 0.0618013 0.00797597 0.0174863 0.00326092 0.00976151 0.00293672 0.0192118 0.00299021 0.0182765 0.00395645 0.0246406 0.00470425 0.0213228 0.00453606 0.0227784 0.00478246 0.0179866 0.00889309 0.0315166
23 1 Mg -0.0543002 57.245 1.59733 1.2 1 0.0480673 0.0296627 0.00673312 0.0080735 0.00154021 0.00556194 0.00197925 0.0213972 0.00442264 0.0120478 0.00385851 0.028084 0.00275579 0.0204971 0.00479156 0.0282864 0.00612966 0.0213197 0.00645594 0.0412634
24 2 Si -2.20457 55.2496 1.62615 2.4 1 0.104576 0.0451762 0.00111011 0.011978 0.00174076 0.00656141 0.00216172 0.0203635 0.00433851 0.0147495 0.0034551 0.0262161 0.00372064 0.0215083 0.00336362 0.02569 0.00679764 0.0193963 0.00679928 0.0370942
25 3 O 0.99355 55.1672 1.71141 -1.2 1 0.105526 0.0447996 0.00118422 0.0122009 0.00156534 0.00703453 0.00198831 0.019276 0.00327652 0.014542 0.00332929 0.0258857 0.00402043 0.0201557 0.00331463 0.0260164 0.00619113 0.0196591 0.00678621 0.0360279
26 3 O -1.06617 59.1049 1.48368 -1.2 1 0.0190314 0.0174982 0.00733522 0.00658589 0.00125043 0.00557637 0.00101501 0.0232957 0.00350418 0.0106531 0.00280245 0.0294268 0.00285672 0.0205543 0.00408517 0.0312461 0.00546183 0.0240734 0.00578744 0.0450067
27 3 O -1.58567 56.0539 0.381198 -1.2 1 0.0783196 0.0387838 0.00337329 0.0101328 0.00178988 0.00583658 0.00168122 0.0207879 0.00392269 0.0134112 0.00299714 0.0265961 0.00332468 0.0207837 0.00309701 0.0276604 0.00616963 0.0208231 0.00611512 0.0389833
28 3 O -1.58599 56.0467 2.81267 -1.2 1 0.0807015 0.0378645 0.00279697 0.00928995 0.00146356 0.00640889 0.00187655 0.0210359 0.00422387 0.0136217 0.00323119 0.0267989 0.00284961 0.0199486 0.00313957 0.0266931 0.00606124 0.0206923 0.00631994 0.0381063
29 1 Mg -2.5078 59.5596 0.0121984 1.2 1 0.0140244 0.0149177 0.00608623 0.00657117 0.00112309 0.00579315 0.00132463 0.0238916 0.00320482 0.0109935 0.00284535 0.0299016 0.00218556 0.0207734 0.0037553 0.0311887 0.00503184 0.0253363 0.00461732 0.0464101
30 1 Mg 2.34143 62.4417 1.42196 1.2 1 0.00311864 0.00602279 0.0020549 0.00721078 0.00102448 0.00575474 0.00100401 0.0242631 0.00234842 0.00970621 0.0024762 0.0304913 0.0022787 0.0205332 0.00306644 0.0327191 0.00335876 0.026269 0.00364467 0.050149
31 2 Si -0.435653 60.5828 1.54981 2.4 1 0.00833181 0.0102687 0.00432454 0.00727175 0.00123687 0.00570077 0.00112278 0.0238263 0.00239658 0.01066 0.00265676 0.0291126 0.00278062 0.0214711 0.0038446 0.0316123 0.00506708 0.024654 0.00462442 0.0481738
32 3 O 1.13489 60.4221 1.54746 -1.2 1 0.00926148 0.0113027 0.00532559 0.00670722 0.00118027 0.00553126 0.00102879 0.0234427 0.00292371 0.0101392 0.00270589 0.0295572 0.00245168 0.020471 0.00384579 0.0317153 0.00453524 0.0245685 0.00499619 0.0476578
33 3 O -1.47877 64.2994 1.59971 -1.2 1 0.00404801 0.00468257 0.00156547 0.00757479 0.00115957 0.00589079 0.00115306 0.0249466 0.00161988 0.00922033 0.00179254 0.0307936 0.00228833 0.0198272 0.00321959 0.032261 0.00331751 0.0264689 0.00380081 0.0515895
34 3 O -1.15781 61.2615 0.292204 -1.2 1 0.00451897 0.00829064 0.00355855 0.00662763 0.00093373 0.00603927 0.00112189 0.0244627 0.00274286 0.010029 0.00225138 0.0297011 0.00204515 0.021476 0.00318464 0.0325522 0.00459601 0.0259618 0.00398864 0.04878
35 1 Mg -2.36917 70.0284 3.14535 1.2 1 0.00329738 0.00326499 0.00138817 0.00666745 0.00144738 0.00618725 0.000727504 0.0239473 0.00152663 0.0080909 0.00165017 0.0305452 0.00192351 0.0197191 0.00260006 0.031802 0.00225592 0.026103 0.00240814 0.0513084
36 3 O -1.1109 61.0929 2.88364 -1.2 1 0.00733475 0.00856934 0.00303324 0.00672482 0.00133152 0.00575303 0.00144147 0.0238521 0.00194246 0.0104889 0.00216782 0.0290529 0.00249012 0.0208317 0.00333555 0.0322936 0.00382348 0.0250586 0.00411435 0.0478743
37 1 Mg -2.42123 67.1304 4.61421 1.2 1 0.00580512 0.00305154 0.00142048 0.00685416 0.00175269 0.00560442 0.00127522 0.0239887 0.00212007 0.00895568 0.00229731 0.0302534 0.00305462 0.0204895 0.003623 0.0324662 0.00290723 0.0262798 0.00321389 0.0520756
38 2 Si 0.322049 69.0421 4.61848 2.4 1 0.00432742 0.00280042 0.00134013 0.00775814 0.00134661 0.00613103 0.00167865 0.0235582 0.00211481 0.00869424 0.00269453 0.0294028 0.00208683 0.0209894 0.0043197 0.0316678 0.00330657 0.0251731 0.00335579 0.0530797
39 3 O -1.25988 69.09 4.58311 -1.2 1 0.00377458 0.00291473 0.00128764 0.00711503 0.00132341 0.00633759 0.000700419 0.0240214 0.00218955 0.0080022 0.00133884 0.0299922 0.0019538 0.0197526 0.00201447 0.0320586 0.00234218 0.0257699 0.00211956 0.0525041
40 3 O 1.32128 65.2258 4.626 -1.2 1 0.00652101 0.00376442 0.00201741 0.00720965 0.00162607 0.00601469 0.00151745 0.0241221 0.00161832 0.00886067 0.00229969 0.0303736 0.00257224 0.0198469 0.00276584 0.0322628 0.00264998 0.0257274 0.00322731 0.0518999
41 3 O 1.04845 68.4322 3.33845 -1.2 1 0.00428446 0.00300861 0.00124841 0.00680811 0.00171584 0.00623403 0.00222504 0.0239739 0.00191494 0.00861264 0.00258897 0.029407 0.00226116 0.0204817 0.00314328 0.0323935 0.00284959 0.026448 0.002837 0.0524132
42 3 O 0.991024 68.4138 5.88862 -1.2 1 0.0046891 0.00250345 0.00156802 0.00677152 0.00152673 0.00573426 0.00193591 0.0244246 0.00191869 0.0083973 0.00205071 0.0292668 0.00220844 0.0207136 0.00338922 0.0325032 0.00300079 0.0260587 0.00334594 0.0528016
43 1 Mg 0.0346659 64.8061 3.10697 1.2 1 0.00543336 0.00452467 0.00132684 0.00710166 0.00132062 0.00589646 0.000834927 0.0243836 0.00129991 0.00922629 0.00179655 0.030309 0.00234538 0.0198151 0.00246478 0.0325053 0.00203261 0.0264748 0.00291207 0.0513874
44 1 Mg -0.207194 61.7811 4.57501 1.2 1 0.00791246 0.00673141 0.00282307 0.00651429 0.000951783 0.00554432 0.00165384 0.0235525 0.00210127 0.0103032 0.00291817 0.0298184 0.00260328 0.0198682 0.00388263 0.0325473 0.00305253 0.0249657 0.0040046 0.0486874
45 2 Si 2.03071 63.6632 4.55917 2.4 1 0.0067059 0.00482213 0.00215499 0.00786347 0.0012903 0.00590197 0.00175246 0.024038 0.00150374 0.00909919 0.00233473 0.0292104 0.00279569 0.0203459 0.00371969 0.0319117 0.00256263 0.0255503 0.00391798 0.051866
46 3 O -1.17681 63.7484 4.59026 -1.2 1 0.00677981 0.00466015 0.00221037 0.00749764 0.00104277 0.00552402 0.00163847 0.0231585 0.00223249 0.00888899 0.00181921 0.0302217 0.00255449 0.0196599 0.00223853 0.032729 0.00294755 0.0249821 0.00354552 0.0512571
47 3 O 0.972099 60.0754 4.53719 -1.2 1 0.0140644 0.0128158 0.00481746 0.00673154 0.00106967 0.00575311 0.00181551 0.0232876 0.0025986 0.010157 0.00234525 0.0290001 0.00228081 0.0206018 0.00460667 0.0307659 0.00343047 0.0238086 0.00351172 0.0462944
48 3 O 1.3685 63.095 3.24539 -1.2 1 0.00589493 0.00500115 0.00168805 0.00739516 0.00105211 0.00586396 0.00180338 0.024225 0.00162773 0.00942197 0.00194336 0.0293906 0.00277817 0.0207983 0.00382476 0.0326963 0.00235141 0.0261557 0.00360659 0.0506526
49 1 Mg -0.120833 64.7692 0.065894 1.2 1 0.0028669 0.00417807 0.000858587 0.007392 0.00109541 0.00606325 0.000864225 0.0249022 0.000909728 0.00914213 0.00115427 0.0308056 0.00189086 0.0198289 0.00192899 0.0322006 0.0016991 0.0270311 0.0019796 0.0511931
50 3 O 1.24597 63.0151 5.78233 -1.2 1 0.00727387 0.00495275 0.00178012 0.00679544 0.00108361 0.0055193 0.00159216 0.0237002 0.00151539 0.00940212 0.00132185 0.0293958 0.00263342 0.0199437 0.00378419 0.0329763 0.00280273 0.0249536 0.00377828 0.0508402
51 1 Mg 0.0201419 67.8225 1.5109 1.2 1 0.00442414 0.00342998 0.000931038 0.00706072 0.00180175 0.00579579 0.00120353 0.0245077 0.00210332 0.00910495 0.0023762 0.0304608 0.00217514 0.0205627 0.00340468 0.0324127 0.00339369 0.0265572 0.00360755 0.0522607
52 2 Si -2.12029 65.8071 1.64243 2.4 1 0.00470697 0.00402963 0.000951247 0.00780498 0.00185749 0.00591028 0.00155004 0.0241627 0.00138362 0.00914108 0.00223293 0.0294856 0.00294259 0.020841 0.00374521 0.0318536 0.00312788 0.026272 0.00231327 0.0528367
53 3 O 1.0407 65.7558 1.58003 -1.2 1 0.00447158 0.00399405 0.000867539 0.00760481 0.00187361 0.00587552 0.00131176 0.0236315 0.00239734 0.00888977 0.00190371 0.0303935 0.00243609 0.0202287 0.00298251 0.0321747 0.00291763 0.0261701 0.00368498 0.0523581
54 3 O -1.101 69.4023 1.55253 -1.2 1 0.00529931 0.00325053 0.00176364 0.00720142 0.00194999 0.00666491 0.00100688 0.0244983 0.00209887 0.00846892 0.00168003 0.0304993 0.00298743 0.0200255 0.00448864 0.0318307 0.00306952 0.0265466 0.00461214 0.0519286
55 3 O -1.51326 66.4212 0.296682 -1.2 1 0.00393873 0.00368565 0.00117458 0.00735618 0.00204379 0.00563466 0.0017414 0.0243945 0.00184684 0.00918209 0.00160649 0.0299639 0.00273504 0.0208123 0.00224498 0.0324671 0.00223377 0.026582 0.00279496 0.0525467
56 3 O -1.39571 66.5267 2.80105 -1.2 1 0.00512738 0.00383058 0.000968329 0.00694471 0.00210271 0.00550905 0.0014211 0.0243383 0.00177847 0.00905079 0.00162522 0.0293563 0.00307164 0.0208063 0.00318661 0.0322085 0.00268549 0.026428 0.00311624 0.0522672
57 1 Mg -2.54104 70.0547 0.0536622 1.2 1 0.00516952 0.00365982 0.00163585 0.00697102 0.00176407 0.00672605 0.00112091 0.0240385 0.00191849 0.0085746 0.00149367 0.0304812 0.00214942 0.0197637 0.00321232 0.0322721 0.0026422 0.0268792 0.00357714 0.0515054
58 1 Mg 2.23172 72.8401 1.43946 1.2 1 0.0030744 0.00411885 0.00195768 0.00680446 0.000994571 0.00617558 0.00133976 0.0239609 0.00295564 0.00821052 0.00238745 0.0298895 0.0025643 0.0201447 0.00372115 0.032935 0.00346841 0.0263336 0.0045988 0.0515556
59 2 Si -0.469834 70.9549 1.50034 2.4 1 0.00427261 0.00372443 0.00167202 0.00775799 0.00213134 0.00641032 0.00168739 0.0235842 0.0021055 0.00828768 0.00257158 0.0292248 0.00285458 0.0204855 0.00398619 0.0324792 0.00287571 0.0264413 0.00303121 0.0526678
60 3 O 1.09601 70.8833 1.5241 -1.2 1 0.00434664 0.00376599 0.00130191 0.00725356 0.00148038 0.00632112 0.00125726 0.0233097 0.00259623 0.00800474 0.00169328 0.0296111 0.0024462 0.0195378 0.00321669 0.0325896 0.00335822 0.026466 0.00381729 0.0525231
61 3 O -1.51108 74.7016 1.40911 -1.2 1 0.00293448 0.00388511 0.00187643 0.00694793 0.000942156 0.00658691 0.00126135 0.0243894 0.00183889 0.0082856 0.00227911 0.0304277 0.00243212 0.0198124 0.00366472 0.0329072 0.00254739 0.0257395 0.00420905 0.0520703
62 3 O -1.1777 71.604 0.227803 -1.2 1 0.0044837 0.00394752 0.00188973 0.00694745 0.00200825 0.00628567 0.00178058 0.0241663 0.00232354 0.00855029 0.00224334 0.028975 0.00296699 0.0208186 0.00394791 0.0331937 0.00288507 0.0266015 0.00425172 0.052431
63 1 Mg -2.54136 80.2521 3.18999 1.2 1 0.00267015 0.00316316 0.00104976 0.0066704 0.00103252 0.00598183 0.00130947 0.0247564 0.000927283 0.00854538 0.00152513 0.0307188 0.00138533 0.0201254 0.00237775 0.0347658 0.00264981 0.0253311 0.00221638 0.0524775
64 3 O -1.0787 71.6695 2.80048 -1.2 1 0.00243918 0.00340242 0.00146668 0.0068637 0.00174864 0.0058525 0.00151598 0.0236136 0.00157751 0.00815358 0.00177065 0.0291648 0.00237037 0.0203491 0.00306928 0.0330457 0.00238637 0.0262707 0.00298725 0.0521735
65 1 Mg -2.42935 77.4165 4.54683 1.2 1 0.00204083 0.00322517 0.00130165 0.00685126 0.00107308 0.00549741 0.00157175 0.0246475 0.00140382 0.00863298 0.00216979 0.0305418 0.00207363 0.0209631 0.00364544 0.0343404 0.00317832 0.025433 0.00277574 0.0525725
66 2 Si 0.211045 79.2061 4.57632 2.4 1 0.00204278 0.00322081 0.00114954 0.00744359 0.00123027 0.00606325 0.00152822 0.0248313 0.00111143 0.00832142 0.00158832 0.0294094 0.00216935 0.0209477 0.00356796 0.0344223 0.00427335 0.0252996 0.00252699 0.053837
67 3 O -1.34492 79.3245 4.61937 -1.2 1 0.00261102 0.00298812 0.0013033 0.00706876 0.00110126 0.00570199 0.00143336 0.0243011 0.00186416 0.00819411 0.00176111 0.0303264 0.00197229 0.0203152 0.00214217 0.0347502 0.0034618 0.0249562 0.00249613 0.0529396
68 3 O 1.22502 75.5532 4.49979 -1.2 1 0.00122091 0.00357836 0.00181991 0.00710554 0.000614279 0.00605548 0.00101957 0.024517 0.00124521 0.00787581 0.00183846 0.0306639 0.0020266 0.020147 0.00330093 0.0327665 0.0039401 0.0251606 0.00297433 0.0527393
69 3 O 0.868423 78.5052 3.29089 -1.2 1 0.00221982 0.00329147 0.00101195 0.0066325 0.00080939 0.00561167 0.00160177 0.0245275 0.001336 0.00866478 0.00137117 0.0294958 0.00207208 0.0212704 0.00310928 0.0347146 0.00337795 0.0252299 0.0023328 0.0531769
70 3 O 0.968845 78.5197 5.82436 -1.2 1 0.00219718 0.00334121 0.00116487 0.00682662 0.00123943 0.00570251 0.00185741 0.0245806 0.00139452 0.00854585 0.00154246 0.0295135 0.00254035 0.0210067 0.00336459 0.0340759 0.00352717 0.0253821 0.00234649 0.052489
71 1 Mg -0.0162053 74.9435 2.94042 1.2 1 0.00202046 0.00390738 0.00174534 0.00670152 0.000964687 0.00627576 0.0010617 0.0240863 0.00124659 0.00840505 0.00155323 0.0310383 0.00136737 0.0199604 0.00268296 0.0329611 0.00221309 0.0253414 0.00321895 0.0516412
72 1 Mg -0.0395984 72.2295 4.6584 1.2 1 0.00186981 0.00368633 0.00188961 0.00685433 0.000994 0.00577942 0.0015315 0.0240503 0.00195287 0.00824796 0.0028819 0.0302449 0.00257206 0.0202276 0.00368613 0.0321782 0.00337266 0.0259589 0.00292991 0.0523717
73 2 Si 1.9782 74.121 4.54388 2.4 1 0.00102587 0.00350881 0.0017401 0.00751621 0.000979357 0.00611158 0.00175126 0.0237486 0.00139483 0.00785961 0.00272298 0.0295167 0.00289003 0.0205303 0.00423831 0.0322089 0.0039408 0.0253044 0.00336454 0.0529493
74 3 O -1.20396 74.2235 4.50277 -1.2 1 0.000940816 0.00352527 0.0017881 0.00691565 0.00110512 0.00580382 0.00123636 0.023695 0.00206198 0.00780055 0.00155991 0.03024 0.00193984 0.0200073 0.00202866 0.0327354 0.0031908 0.025385 0.00254927 0.0529009
75 3 O 1.0317 70.4867 4.67233 -1.2 1 0.00235584 0.00322508 0.00121732 0.00706329 0.00117552 0.00651339 0.00120561 0.0244547 0.00125962 0.00800138 0.00213622 0.030389 0.00244622 0.0200306 0.00258361 0.0317547 0.00269582 0.0259981 0.00231378 0.0525687
76 3 O 1.29476 73.4147 3.28821 -1.2 1 0.00153604 0.00387181 0.00172785 0.00668397 0.000946048 0.00592113 0.00168621 0.0240778 0.00137907 0.00807897 0.00211058 0.0295408 0.00238813 0.0206459 0.00337843 0.0324143 0.00339342 0.0258866 0.0031246 0.0524096
77 1 Mg -0.142145 75.2287 -0.0786449 1.2 1 0.00323327 0.00400728 0.00173351 0.00635573 0.000872395 0.00669657 0.00117944 0.0241694 0.00161498 0.00852381 0.001522 0.0303202 0.00179407 0.0197422 0.00280897 0.0335597 0.00271411 0.0255342 0.00364251 0.0519606
78 3 O 1.32459 73.4315 5.78031 -1.2 1 0.000510462 0.00324457 0.00138335 0.00669821 0.000915844 0.00580784 0.00156571 0.0240658 0.00137539 0.00797645 0.00175298 0.0294691 0.00250086 0.0208101 0.00302732 0.0324003 0.00237443 0.0257017 0.00224732 0.0528334
79 1 Mg -0.0463602 77.9333 1.59872 1.2 1 0.00223286 0.00378927 0.00127762 0.00652057 0.000955822 0.00581905 0.00119843 0.0244262 0.0026744 0.00904522 0.00237567 0.0301793 0.00203134 0.0206236 0.00377751 0.0349162 0.00349453 0.025561 0.00352646 0.0529185
80 2 Si -2.16034 76.1358 1.5167 2.4 1 0.00242651 0.0037537 0.00176508 0.00710205 0.00117296 0.00617827 0.00157723 0.0239733 0.00199477 0.00868817 0.00265198 0.0291965 0.00232544 0.020638 0.00411283 0.0337896 0.0031575 0.0251469 0.00426784 0.0536987
81 3 O 0.9895 75.9753 1.4639 -1.2 1 0.00268399 0.00355427 0.00133924 0.00687368 0.00131072 0.00629664 0.00145099 0.0237544 0.0022568 0.00807814 0.00186327 0.0300684 0.00183162 0.0194489 0.00324896 0.0340352 0.00214521 0.025225 0.00376204 0.0524471
82 3 O -1.19465 79.8455 1.63783 -1.2 1 0.00247084 0.00343447 0.00110327 0.00685944 0.000887328 0.00643905 0.00139402 0.0249935 0.00163846 0.00853734 0.00184342 0.0302915 0.00170223 0.0202566 0.00299269 0.0350793 0.00248799 0.0255685 0.00344911 0.0535271
83 3 O -1.44405 76.8744 0.255266 -1.2 1 0.00250457 0.003569 0.00105428 0.00637998 0.00102649 0.00611768 0.00126052 0.024645 0.00198525 0.00911107 0.00137919 0.0293189 0.00195 0.0206328 0.00319905 0.0346782 0.00257237 0.0255522 0.00390465 0.0535437
84 3 O -1.49314 76.6968 2.85243 -1.2 1 0.00214215 0.00348958 0.0017356 0.00654836 0.00151725 0.00571605 0.00161481 0.0244126 0.00188191 0.00835554 0.00183596 0.0293862 0.00183515 0.0204104 0.00280168 0.0345249 0.00265528 0.0254298 0.00306661 0.0527963
85 1 Mg -2.5039 80.3571 0.216041 1.2 1 0.00235303 0.00338325 0.00113632 0.00632405 0.000779535 0.0063179 0.00116889 0.0246975 0.00102071 0.00873964 0.00130018 0.0306347 0.0016376 0.0199346 0.00248976 0.0351994 0.00234456 0.0256174 0.00233045 0.0529078
86 1 Mg 2.10264 83.1925 1.73034 1.2 1 0.00356906 0.00228122 0.0019221 0.00641372 0.000926346 0.00568898 0.000813245 0.0242927 0.00198694 0.00839694 0.00203982 0.0303075 0.00213586 0.0205698 0.00274904 0.0356393 0.00349471 0.0251894 0.00390819 0.0537591
87 2 Si -0.526164 81.3627 1.73282 2.4 1 0.00280907 0.00295438 0.00146713 0.00720838 0.00137424 0.00610609 0.00160633 0.024171 0.00176055 0.00855333 0.00261721 0.0297049 0.00239901 0.0204832 0.00359112 0.0356479 0.00272873 0.0249734 0.00303304 0.0539064
88 3 O 1.0218 81.2543 1.69172 -1.2 1 0.00237254 0.0027353 0.0017132 0.00682203 0.00120663 0.00585424 0.00140193 0.0239105 0.00262246 0.00841833 0.00167647 0.0302772 0.00193335 0.0201893 0.00245358 0.0356188 0.00369121 0.0246561 0.00327399 0.0536021
89 3 O -1.54163 85.007 1.77528 -1.2 1 0.00512009 0.00198885 0.00244627 0.0064076 0.00147593 0.00644531 0.0013835 0.0244221 0.00216226 0.00784347 0.00240867 0.0300779 0.00318562 0.020091 0.00375269 0.0350952 0.00364564 0.0254884 0.00544429 0.0537782
90 3 O -1.15088 82.0553 0.425861 -1.2 1 0.00254713 0.00256188 0.00178198 0.00657515 0.00113561 0.00623099 0.00122382 0.0244466 0.00163093 0.00898037 0.00201374 0.0295155 0.0020328 0.0210017 0.00233459 0.0356572 0.00251005 0.025428 0.0033814 0.0539443
91 1 Mg -2.39594 90.7468 3.20058 1.2 1 0.0030565 0.00336997 0.00106084 0.00588767 0.00112876 0.00701468 0.000903679 0.0230651 0.000905852 0.00777892 0.00146218 0.0296934 0.00137528 0.0194581 0.00156789 0.0342477 0.0016442 0.0263806 0.00242358 0.0540028
92 3 O -1.078 82.0241 2.99418 -1.2 1 0.00380107 0.00266193 0.00172216 0.00657998 0.00128845 0.0060067 0.00138875 0.0244049 0.00168345 0.00867474 0.00223514 0.0294236 0.00242316 0.0208397 0.00277607 0.0354066 0.00299294 0.0251167 0.00321394 0.0534247
93 1 Mg -2.29077 87.7294 4.72803 1.2 1 0.00507071 0.00282112 0.00190343 0.00640434 0.00149012 0.00697829 0.00159684 0.0234955 0.00217812 0.00821402 0.00243218 0.0292419 0.00301143 0.020436 0.00360057 0.0347395 0.00283002 0.0263254 0.00354409 0.0536257
94 2 Si 0.418262 89.6797 4.60426 2.4 1 0.00324449 0.00331773 0.00139208 0.00659651 0.00126657 0.00708304 0.00150063 0.0223937 0.00165263 0.00775749 0.00275347 0.0291695 0.00170154 0.0205107 0.00387092 0.0341378 0.00338983 0.0257413 0.00344018 0.0545216
95 3 O -1.12802 89.8432 4.68302 -1.2 1 0.00338796 0.00317549 0.00139335 0.00646898 0.00104438 0.00724377 0.000857057 0.0224966 0.00170298 0.00731028 0.00131946 0.0294791 0.0018507 0.0193702 0.0018555 0.0344753 0.00208251 0.0262099 0.00240367 0.0546211
96 3 O 1.3487 86.0588 4.78184 -1.2 1 0.00487323 0.00238417 0.00206456 0.00652655 0.00141785 0.00691655 0.000976948 0.0238222 0.00159558 0.00764757 0.00255866 0.0298343 0.00238276 0.0198485 0.00292352 0.0344577 0.00333507 0.0258805 0.00372458 0.0533697
97 3 O 1.03437 89.011 3.31809 -1.2 1 0.00407885 0.00308479 0.00184101 0.00581457 0.00153665 0.00664317 0.00169393 0.0231293 0.00191086 0.00782421 0.00259063 0.028478 0.00221066 0.0201097 0.00333694 0.0351937 0.00315165 0.0267177 0.00340269 0.0548806
98 3 O 1.09907 89.0099 5.81504 -1.2 1 0.00361628 0.00340158 0.00150183 0.00605192 0.00129256 0.007122 0.00144485 0.0231181 0.00142946 0.0079175 0.00190855 0.0289057 0.00164225 0.0201407 0.00282989 0.0346141 0.00280694 0.026727 0.00258715 0.0538846
99 1 Mg -0.0969515 85.5082 3.17917 1.2 1 0.00506177 0.00237316 0.00190511 0.00607928 0.00145826 0.00665839 0.000788547 0.0240938 0.00158423 0.0081018 0.00197308 0.0303868 0.00239159 0.0197941 0.0024297 0.0348666 0.0031071 0.0257627 0.00395726 0.0530944
100 1 Mg -0.0628874 82.6874 4.6482 1.2 1 0.00463915 0.00247073 0.00171305 0.00666605 0.00127735 0.00599963 0.00164171 0.0241997 0.0022147 0.00903007 0.00277717 0.0299675 0.00282992 0.0206524 0.00361247 0.0351196 0.00335017 0.0257173 0.0033708 0.0529518
101 2 Si 2.01366 84.4643 4.69015 2.4 1 0.00469588 0.0019413 0.00168264 0.00724897 0.00138098 0.00685318 0.00149393 0.0237433 0.00215034 0.00818639 0.00260601 0.0287123 0.00270605 0.0206609 0.00486179 0.0343799 0.00496551 0.0251183 0.00449204 0.0548058
102 3 O -1.18912 84.6141 4.74683 -1.2 1 0.00512338 0.00207591 0.00201946 0.0066234 0.00141493 0.00656918 0.000864957 0.0235882 0.00255816 0.00753241 0.00221851 0.0296345 0.00234417 0.0196755 0.00238508 0.0350115 0.00385714 0.0255065 0.00396485 0.0534983
103 3 O 0.904232 80.7304 4.63323 -1.2 1 0.00268964 0.00300763 0.0010155 0.00726161 0.00113743 0.00640026 0.00122765 0.0247955 0.000739578 0.0082715 0.00226277 0.0306978 0.00200598 0.0198397 0.00400762 0.0344862 0.0045587 0.0252953 0.00289551 0.0529559
104 3 O 1.29042 83.8621 3.44403 -1.2 1 0.00448213 0.00191944 0.00210724 0.00637498 0.00137585 0.00597735 0.00175078 0.0241786 0.00211615 0.00809584 0.00228258 0.029179 0.00243216 0.0202763 0.00328731 0.0356201 0.00368261 0.0254636 0.00379727 0.0540434
105 1 Mg -0.0789753 85.4511 0.281881 1.2 1 0.00471121 0.00192269 0.00216459 0.00624253 0.00146876 0.00638228 0.000981656 0.0239569 0.00149667 0.00813823 0.00192872 0.030275 0.00263955 0.0197139 0.00206434 0.0354078 0.00230321 0.0257307 0.00462566 0.0537434
106 3 O 1.27103 83.8253 5.9575 -1.2 1 0.00502126 0.00232356 0.0015721 0.00653721 0.00140848 0.00652789 0.00164617 0.0242101 0.00184724 0.0082304 0.00204722 0.0287616 0.002002 0.0201236 0.00322008 0.0349975 0.00385499 0.0259381 0.00314182 0.0529751
107 1 Mg -0.000376841 88.3119 1.59709 1.2 1 0.00420848 0.00284381 0.00160699 0.0058731 0.00171185 0.00606468 0.0011822 0.0232385 0.00180638 0.00794083 0.00253262 0.0294945 0.00236515 0.0204353 0.00267652 0.0355132 0.00351573 0.0261706 0.00429034 0.054234
108 2 Si -2.15978 86.498 1.76979 2.4 1 0.00515406 0.00235945 0.0021699 0.00669479 0.00185481 0.00664884 0.00167329 0.0236915 0.00178834 0.0077977 0.00258064 0.0286811 0.00307639 0.0205363 0.00289549 0.034793 0.00329842 0.0256036 0.00443741 0.0551221
109 3 O 1.04788 86.4117 1.75253 -1.2 1 0.00534615 0.00254134 0.00193775 0.00626857 0.00207221 0.00609401 0.00164554 0.0231871 0.00256642 0.00724193 0.00250671 0.0294374 0.00343996 0.0198202 0.00295703 0.0348786 0.00396883 0.0251765 0.00524571 0.0544348
110 3 O -1.01836 90.1031 1.63278 -1.2 1 0.00405281 0.0031077 0.00151959 0.00616046 0.00140163 0.00698619 0.000851506 0.0232869 0.00158552 0.00737233 0.00116276 0.029668 0.00253759 0.0195602 0.0028766 0.0345318 0.00277053 0.0263449 0.00404501 0.0546586
111 3 O -1.4015 87.1998 0.474001 -1.2 1 0.00511848 0.00264675 0.00200064 0.00595442 0.00187901 0.00614099 0.00158357 0.023683 0.00191071 0.00794418 0.00211479 0.0288493 0.00291492 0.0203647 0.00223467 0.0352506 0.00273281 0.0259768 0.00420124 0.0546684
112 3 O -1.3639 87.1215 3.04374 -1.2 1 0.00530075 0.00274511 0.00217657 0.00598222 0.00220506 0.00663274 0.00159571 0.0239303 0.00197173 0.00819069 0.00237491 0.0285476 0.00306835 0.0203726 0.00260608 0.0350506 0.00320608 0.026313 0.00408892 0.0544046
113 1 Mg -2.37194 90.6686 0.263985 1.2 1 0.00393334 0.00302681 0.00100532 0.00569149 0.00119717 0.0063465 0.000725548 0.0230236 0.00150286 0.00775557 0.00100602 0.0300676 0.00201974 0.0199387 0.00179814 0.0345331 0.00184752 0.0254531 0.00302093 0.0542328
114 1 Mg 2.42134 93.5054 1.58646 1.2 1 0.00229592 0.00279324 0.00151944 0.00562211 0.00112474 0.00634525 0.0010585 0.022935 0.00226414 0.00776147 0.00277267 0.0289966 0.00202167 0.0202054 0.00286052 0.034845 0.00307529 0.025825 0.00402467 0.0552908
115 2 Si -0.343407 91.5978 1.68359 2.4 1 0.00268353 0.00289769 0.00119877 0.00640147 0.00158267 0.00701623 0.00140956 0.0224515 0.00131941 0.00760052 0.0016241 0.0284435 0.00201485 0.0204039 0.00298854 0.0341527 0.0025061 0.0255873 0.00298614 0.0561343
116 3 O 1.16554 91.5643 1.67758 -1.2 1 0.00320539 0.00299777 0.0011003 0.00601897 0.00157612 0.00678343 0.00136994 0.0228479 0.00184082 0.00733045 0.00128499 0.0295938 0.00198405 0.0193876 0.00223961 0.0348461 0.00218553 0.0261168 0.0029751 0.0552229
117 3 O -1.4287 95.327 1.65197 -1.2 1 0.00202487 0.00290349 0.00147192 0.00599887 0.000815796 0.00678709 0.00107557 0.0232019 0.00154634 0.00700996 0.00165566 0.0291996 0.00214115 0.0194282 0.00244222 0.0340932 0.00216437 0.0252578 0.00406511 0.0553918
118 3 O -1.00138 92.2938 0.351325 -1.2 1 0.00327465 0.00285537 0.000822571 0.00556147 0.00146144 0.00636806 0.00155373 0.0231952 0.00126031 0.0078433 0.00145857 0.0287466 0.00231658 0.0204722 0.00248384 0.0349158 0.00222279 0.02549 0.00307394 0.0551425