ITEM: TIMESTEP
35600
ITEM: NUMBER OF ATOMS
5600
ITEM: BOX BOUNDS xy xz yz pp pp pp
0	7.1235	0
0	201.985	2.3745
0	119.584	0
ITEM: ATOMS id type element xu yu zu q Q_1 Q_2 Q_3 Q_4 Q_5 Q_6 Q_7 Q_8 Q_9 Q_10 Q_11 Q_12 Q_13 Q_14 Q_15 Q_16 Q_17 Q_18 Q_19 Q_20 Q_21
1 1 Mg -1.54128 49.2257 -0.952171 1.2 1 0.235488 0.0775152 0.0183074 0.0252123 0.00507532 0.0117921 0.00531058 0.0205146 0.00511359 0.0248544 0.00465393 0.0308991 0.0100474 0.0274648 0.00787971 0.0256428 0.00673102 0.0191981 0.0105673 0.0305447
2 1 Mg 3.09987 51.3203 1.88681 1.2 1 0.179204 0.0632965 0.00740579 0.0182408 0.00287264 0.00792108 0.00302047 0.0186739 0.00522452 0.0197169 0.00450452 0.0255843 0.00556967 0.0240538 0.00559406 0.0243873 0.00489601 0.0190121 0.0100407 0.02978
3 2 Si 0.906227 50.9451 0.387995 2.4 1 0.192649 0.0673659 0.0101224 0.0197101 0.00310708 0.00868143 0.00315396 0.0188974 0.00576236 0.0213155 0.00433142 0.0279296 0.00703637 0.0253234 0.00503562 0.0255008 0.0047718 0.0179541 0.0101436 0.0308522
4 3 O 2.3319 50.2508 0.526944 -1.2 1 0.209224 0.0716767 0.0125656 0.021579 0.00334668 0.00868558 0.0039154 0.0193082 0.00521491 0.0221116 0.00417739 0.0268655 0.0072967 0.0263333 0.00612739 0.0249533 0.00570305 0.0174714 0.00954664 0.0296838
5 3 O -1.17059 53.4213 1.57642 -1.2 1 0.133863 0.0499068 0.00282068 0.0133653 0.00152449 0.00761797 0.00265868 0.0185197 0.00343411 0.0162319 0.00321347 0.026279 0.0051181 0.0215783 0.00280185 0.0255397 0.00553809 0.0190949 0.00864493 0.0332677
6 3 O 0.113877 50.2987 -0.740793 -1.2 1 0.204144 0.0718425 0.0121681 0.0213231 0.00374183 0.0101993 0.00426572 0.01998 0.00443104 0.0232531 0.0042575 0.0292166 0.00741838 0.0260853 0.00526823 0.0252698 0.00543618 0.0183802 0.009387 0.0308682
7 1 Mg -2.11621 59.0577 3.17627 1.2 1 0.0170668 0.0130835 0.00463372 0.00609045 0.00108119 0.00631169 0.00152106 0.0215355 0.00313341 0.010136 0.00245758 0.0276541 0.0029998 0.0198013 0.00331729 0.0304839 0.00428988 0.0240547 0.00378334 0.0445515
8 3 O 0.129111 50.8007 1.7572 -1.2 1 0.191243 0.0663261 0.00865415 0.0193121 0.00312587 0.00760359 0.00393329 0.018471 0.00545714 0.0205736 0.00361624 0.0258156 0.00596249 0.0251886 0.00519048 0.0246438 0.00540124 0.0184589 0.00881996 0.0290003
9 1 Mg -2.06746 56.2229 4.65978 1.2 1 0.0726267 0.033461 0.00526553 0.00849036 0.00239115 0.00605778 0.002253 0.0196865 0.00235431 0.0123363 0.00281994 0.0259126 0.00319302 0.0191972 0.00356163 0.0277644 0.00409315 0.0221281 0.00675881 0.0378883
10 2 Si 0.437748 58.1998 4.64154 2.4 1 0.0323229 0.0194885 0.00590829 0.00763985 0.00149765 0.00641686 0.00219468 0.0214242 0.00234593 0.00942486 0.00320943 0.0262573 0.00275756 0.0199114 0.00468539 0.0296246 0.00455555 0.0231455 0.00533151 0.0430732
11 3 O -1.08591 58.2415 4.64203 -1.2 1 0.0290265 0.0187315 0.00640353 0.0065615 0.00134308 0.00585671 0.00213184 0.0210436 0.00307442 0.00952556 0.0029476 0.026599 0.00388733 0.0196291 0.00318078 0.0296545 0.00530311 0.0230016 0.00514633 0.0432732
12 3 O 1.67296 54.2186 4.82452 -1.2 1 0.120163 0.0460084 0.00122153 0.0122885 0.00222435 0.0072052 0.00266659 0.0194927 0.00285944 0.0151421 0.00309335 0.0255294 0.00431009 0.0205343 0.00342416 0.0247327 0.00422646 0.0197656 0.00772746 0.0339415
13 3 O 1.24618 57.4188 3.33439 -1.2 1 0.0442893 0.0244762 0.00598447 0.0069555 0.00143425 0.00596371 0.00233041 0.0213629 0.00217109 0.0107305 0.00320575 0.0260673 0.00292793 0.0203415 0.00451204 0.0293324 0.00405368 0.0233068 0.00613182 0.0416368
14 3 O 1.22723 57.5811 5.90338 -1.2 1 0.0398478 0.023459 0.00740761 0.00712439 0.00157452 0.00592952 0.00194476 0.0208853 0.00253626 0.0100894 0.00284077 0.0262283 0.00232135 0.0197683 0.0047404 0.0291928 0.00375106 0.0225368 0.00548038 0.0410276
15 1 Mg 0.317201 53.5376 3.09589 1.2 1 0.127895 0.0499572 0.000882194 0.0134015 0.00173799 0.00724639 0.00248807 0.0188372 0.00315805 0.0157173 0.00341258 0.0257332 0.00459728 0.0205119 0.00328598 0.0250049 0.0045179 0.0189966 0.00793429 0.0329826
16 1 Mg 0.767209 49.6179 3.08638 1.2 1 0.21864 0.0720852 0.0127979 0.0222606 0.00433712 0.00894207 0.00412699 0.0191253 0.00595544 0.0208987 0.00471189 0.024756 0.00757246 0.0255364 0.00606803 0.0232705 0.0066085 0.0188582 0.0100662 0.0271215
17 2 Si 2.47224 52.8762 4.77797 2.4 1 0.153098 0.0555903 0.00373138 0.0150887 0.0031308 0.00803525 0.00316184 0.0183014 0.00325743 0.0160178 0.00437131 0.0251262 0.00555123 0.0216937 0.00490559 0.0244015 0.00382666 0.0183434 0.00879378 0.0316102
18 3 O -0.785601 53.1559 4.77484 -1.2 1 0.134132 0.0513114 0.00149222 0.013362 0.00263339 0.00712832 0.00272024 0.0188162 0.00367592 0.0156002 0.00397065 0.0265376 0.00511412 0.0225596 0.00440547 0.0252516 0.00461779 0.0191978 0.00815127 0.0329131
19 3 O 2.39315 48.6916 3.22028 -1.2 1 0.236405 0.076622 0.0170065 0.0247635 0.0050312 0.00993029 0.00440155 0.0184621 0.00513496 0.0227973 0.00493172 0.0253518 0.00902849 0.0254946 0.00679261 0.022617 0.00748739 0.020585 0.0113527 0.0263513
20 3 O 1.93169 52.0633 3.33908 -1.2 1 0.164873 0.0587756 0.00507368 0.0162064 0.00319886 0.00806039 0.00297119 0.0188154 0.0032972 0.0172181 0.00395924 0.0255082 0.00586687 0.0226996 0.00428634 0.0239682 0.00444912 0.0184189 0.00917249 0.0307421
21 1 Mg 0.133475 54.0293 0.119192 1.2 1 0.12021 0.0480693 0.00116255 0.0129744 0.00174637 0.00721527 0.00250338 0.0193506 0.00316182 0.0167441 0.00340684 0.0273007 0.00423042 0.0209233 0.00303949 0.0257552 0.00464059 0.0198736 0.00844837 0.0347794
22 3 O 1.92105 51.7632 5.89805 -1.2 1 0.167711 0.061 0.00461618 0.0165457 0.00337257 0.00833206 0.0034617 0.0188426 0.00395691 0.0173422 0.00465322 0.0251769 0.00576361 0.023158 0.0045884 0.024023 0.00392421 0.0179778 0.00918642 0.0304759
23 1 Mg 0.0839153 56.8364 1.5049 1.2 1 0.0514123 0.0277494 0.00678663 0.00738934 0.00187169 0.00647068 0.00163905 0.0202342 0.00350274 0.0117977 0.00277022 0.0269038 0.00326917 0.0201361 0.00386659 0.02842 0.00561939 0.0222308 0.00641723 0.0404153
24 2 Si -1.91992 55.153 1.53963 2.4 1 0.0953363 0.040156 0.00310741 0.0105574 0.00192511 0.00696007 0.00185861 0.0188839 0.00348187 0.0137736 0.00310527 0.0262299 0.00402905 0.0209456 0.00289114 0.0269459 0.00561514 0.0201585 0.00681143 0.0365757
25 3 O 1.26665 54.9552 1.60561 -1.2 1 0.103666 0.0414139 0.00137616 0.0107809 0.00133351 0.00695435 0.00196602 0.0183771 0.00281471 0.0139031 0.00322332 0.0261022 0.00375517 0.020387 0.00289252 0.0271437 0.0048719 0.0200843 0.00736777 0.0359018
26 3 O -0.920175 58.6262 1.55879 -1.2 1 0.0245444 0.017005 0.00689749 0.00619886 0.00161381 0.00642761 0.00127627 0.0218609 0.0039585 0.0103964 0.0029078 0.0278871 0.00329583 0.0202125 0.00329699 0.0305524 0.00525424 0.0242612 0.0054912 0.0442231
27 3 O -1.22237 55.703 0.204906 -1.2 1 0.0789363 0.0360469 0.00444711 0.00896267 0.00217371 0.0065424 0.00164607 0.020034 0.00336773 0.0127503 0.00308615 0.0266795 0.00328087 0.0203068 0.00289547 0.0280291 0.00542472 0.0218711 0.00691345 0.0388957
28 3 O -1.29432 55.7535 2.79549 -1.2 1 0.0823898 0.0343999 0.00330611 0.00876734 0.00129192 0.00667922 0.00164307 0.0196406 0.00285457 0.0128444 0.00300611 0.0258545 0.00311547 0.020288 0.00311356 0.0274867 0.0052488 0.0214516 0.00740724 0.0374897
29 1 Mg -2.31353 59.0969 0.157923 1.2 1 0.0167133 0.0138624 0.00589532 0.00589839 0.00127519 0.00678382 0.00181266 0.0221526 0.00257639 0.0106938 0.00252915 0.0283332 0.00250726 0.0199824 0.00352513 0.0300066 0.00397572 0.0248511 0.00466838 0.0446605
30 1 Mg 2.47288 62.0899 1.67401 1.2 1 0.00176144 0.00479564 0.00184615 0.00694713 0.00118413 0.0067241 0.00131893 0.0231704 0.00280132 0.00935951 0.00280767 0.0281035 0.00259656 0.0203119 0.0040934 0.0312328 0.00344505 0.0258926 0.00270399 0.0472204
31 2 Si -0.227816 60.1596 1.65316 2.4 1 0.00726093 0.00795784 0.00310431 0.00704575 0.00127637 0.00719278 0.000652967 0.0220374 0.00241753 0.00951121 0.0030581 0.026999 0.00296428 0.020663 0.00302396 0.0306529 0.00421091 0.0247956 0.00318587 0.0474351
32 3 O 1.31245 60.0359 1.76274 -1.2 1 0.0106453 0.0101323 0.0039594 0.00624584 0.0014463 0.00630367 0.0012682 0.0220251 0.00327639 0.00953329 0.00271346 0.027668 0.00273446 0.0200152 0.00263272 0.0305509 0.00419342 0.0244658 0.00373481 0.0459952
33 3 O -1.37439 63.7977 1.77057 -1.2 1 0.00275385 0.00420949 0.00116809 0.00686891 0.00124556 0.00649342 0.00130616 0.0234694 0.00162594 0.00987716 0.00226004 0.0277823 0.00247102 0.0203597 0.00259066 0.0305992 0.00244826 0.0256928 0.00285492 0.0473779
34 3 O -0.968048 60.7658 0.401391 -1.2 1 0.00318242 0.00628228 0.00215465 0.00609442 0.00103147 0.00721987 0.000863734 0.0226179 0.00241076 0.00921228 0.00236653 0.0276693 0.00268448 0.0209946 0.00270513 0.0315516 0.0035643 0.0260985 0.00297 0.0478315
35 1 Mg -2.17692 69.4177 3.04956 1.2 1 0.00182256 0.00425378 0.00084894 0.00648025 0.000945558 0.00549098 0.000865339 0.0231755 0.00100022 0.0103434 0.0012359 0.0278849 0.00173145 0.0202279 0.00220986 0.0308616 0.00226048 0.0254444 0.00241122 0.0456469
36 3 O -0.882281 60.6935 2.95846 -1.2 1 0.00587887 0.00761468 0.0022354 0.00620727 0.00146618 0.00678312 0.00120415 0.0222486 0.00232185 0.00952135 0.00231367 0.0270197 0.00268847 0.020001 0.00306996 0.0308766 0.00361483 0.0247376 0.00288645 0.0468037
37 1 Mg -1.98119 66.7504 4.76273 1.2 1 0.00197733 0.00457554 0.00114652 0.00687287 0.00103838 0.00540745 0.00180804 0.0232062 0.00169787 0.0103281 0.00166554 0.0276049 0.0024559 0.0204816 0.00258635 0.0307597 0.00313886 0.0249603 0.00249779 0.0468954
38 2 Si 0.614104 68.5927 4.58848 2.4 1 0.00227792 0.00432337 0.000982947 0.00731156 0.00119622 0.00505309 0.0017986 0.0226259 0.00157577 0.0100715 0.00190902 0.0267477 0.00266418 0.0204455 0.00418001 0.0309595 0.00442227 0.0253922 0.00375017 0.0470893
39 3 O -1.01877 68.5532 4.49948 -1.2 1 0.00195334 0.00416351 0.00118838 0.00702744 0.00150539 0.00477616 0.00202497 0.0224673 0.00219611 0.0100589 0.0015168 0.0271257 0.00278019 0.0201458 0.00263429 0.0312724 0.00399794 0.0250509 0.00282986 0.0468069
40 3 O 1.55178 64.894 4.60499 -1.2 1 0.00306981 0.0050512 0.00132425 0.00658122 0.00132606 0.00590715 0.00144158 0.0232129 0.00174479 0.00993114 0.00173769 0.0277885 0.00254247 0.0198762 0.00348019 0.0306197 0.00358714 0.0250767 0.00360129 0.0476186
41 3 O 1.13698 68.0287 3.22028 -1.2 1 0.00296512 0.00442366 0.000984763 0.00623902 0.00172963 0.00530944 0.00184321 0.0236067 0.00148017 0.010468 0.00122976 0.0265615 0.00243307 0.0210769 0.00273894 0.0314804 0.00261401 0.025677 0.00235068 0.0467458
42 3 O 1.32622 67.8963 5.79141 -1.2 1 0.00121533 0.00470594 0.00166658 0.0065289 0.00131298 0.00522835 0.00200214 0.0233241 0.00161541 0.0103811 0.00119881 0.0268358 0.0025222 0.0206971 0.00395974 0.0311348 0.00496756 0.0250897 0.0038728 0.047185
43 1 Mg 0.00605424 64.5218 3.1799 1.2 1 0.00310482 0.00474864 0.00108426 0.00630562 0.00134066 0.00619899 0.000979208 0.0229221 0.00152101 0.0102488 0.00144747 0.0281613 0.00169311 0.0197025 0.00271807 0.0308287 0.0030111 0.0251782 0.00304291 0.0464908
44 1 Mg 0.152178 61.6165 4.45174 1.2 1 0.00235374 0.00607073 0.00118577 0.00596485 0.00103092 0.00640499 0.00156747 0.0225591 0.00117312 0.00963328 0.00268832 0.0281286 0.00207905 0.0203003 0.00295561 0.0311968 0.00320869 0.0247074 0.00245812 0.0475667
45 2 Si 2.14307 63.4477 4.55396 2.4 1 0.00185228 0.00498323 0.00153256 0.0070333 0.00142761 0.00613661 0.00225139 0.0227876 0.00157066 0.00940633 0.00243413 0.027096 0.00260195 0.0205532 0.00402973 0.0306671 0.00354225 0.0245419 0.00323747 0.0488133
46 3 O -1.01606 63.5 4.55249 -1.2 1 0.00188024 0.00487354 0.00136339 0.0068084 0.00150197 0.00577579 0.00175273 0.0224819 0.00204295 0.00895941 0.0018938 0.0275649 0.00198834 0.0198298 0.00262545 0.0310914 0.00306717 0.0247452 0.00303615 0.0477162
47 3 O 1.09195 59.6712 4.61869 -1.2 1 0.0119693 0.0112139 0.00329941 0.00612723 0.00085352 0.00640965 0.00219903 0.0221396 0.00232443 0.00949052 0.00183016 0.0274511 0.00247502 0.0200435 0.0035618 0.0305419 0.00368764 0.0238185 0.00329932 0.0457947
48 3 O 1.4555 62.697 3.35735 -1.2 1 0.00095117 0.00484114 0.000983912 0.00654339 0.00142218 0.0065465 0.00203541 0.0229804 0.00120037 0.00911764 0.00224254 0.0271381 0.00220773 0.0202293 0.00319015 0.0312933 0.0030179 0.0256683 0.00321428 0.0476492
49 1 Mg 0.0961687 64.21 0.164285 1.2 1 0.00359257 0.00379734 0.00165441 0.00655016 0.00143174 0.00667064 0.00101036 0.0231484 0.00163995 0.00974065 0.00120625 0.0283551 0.00191797 0.019872 0.00296012 0.0309034 0.00252675 0.0265548 0.00374679 0.0475622
50 3 O 1.51805 62.7614 5.89479 -1.2 1 0.000686805 0.00523599 0.00131431 0.00665596 0.00130603 0.00635843 0.00216001 0.0225518 0.00170177 0.00902816 0.00164478 0.0272584 0.00251319 0.0198687 0.00321755 0.0314889 0.00314474 0.0244522 0.0026186 0.0482573
51 1 Mg 0.130208 67.1977 1.67505 1.2 1 0.0040704 0.0047141 0.00153851 0.00593432 0.00157585 0.00551151 0.00112762 0.0231361 0.00223229 0.0112086 0.00154617 0.0274298 0.00284258 0.0212175 0.00355913 0.0317172 0.00315506 0.0262349 0.00311117 0.0464356
52 2 Si -1.9841 65.3158 1.59868 2.4 1 0.00386871 0.00428248 0.00141766 0.00680081 0.00153375 0.00630165 0.00149061 0.0226895 0.00199062 0.00991034 0.00198328 0.0271486 0.00219985 0.0211692 0.00425203 0.0303948 0.00369874 0.0252699 0.00416943 0.0476503
53 3 O 1.20099 65.2091 1.62871 -1.2 1 0.00331462 0.00441148 0.00154771 0.00666252 0.00154326 0.00624153 0.00136174 0.0228142 0.00235652 0.00962805 0.00134479 0.0276132 0.00233949 0.0202924 0.00260092 0.0312048 0.00319613 0.0255713 0.00358856 0.0470196
54 3 O -0.735705 69.1779 1.4023 -1.2 1 0.00194807 0.00443141 0.00113237 0.0066008 0.00115833 0.00609784 0.00132339 0.023789 0.00140706 0.0107838 0.00246373 0.0277863 0.0025222 0.0209085 0.00354308 0.0305023 0.00300131 0.0256238 0.00254037 0.0464239
55 3 O -1.24655 65.893 0.342126 -1.2 1 0.0037857 0.00455484 0.00157453 0.00617936 0.00165181 0.00590187 0.00209325 0.0232428 0.00205672 0.00995589 0.00178606 0.0275295 0.00266942 0.0209472 0.00386641 0.031305 0.00359928 0.0259965 0.00435683 0.0472769
56 3 O -1.29811 66.083 2.88424 -1.2 1 0.00309497 0.00457611 0.00121714 0.00609742 0.00141133 0.00548707 0.0019418 0.022828 0.00190063 0.0098284 0.0015779 0.0265819 0.00222167 0.0206286 0.00330015 0.031605 0.00309584 0.0252669 0.00313719 0.0468457
57 1 Mg -2.38842 69.5494 -0.0112069 1.2 1 0.00218362 0.00482717 0.00152556 0.00622799 0.00171887 0.00610433 0.000835905 0.0232554 0.000947689 0.0106282 0.00128438 0.0278943 0.00196132 0.0209476 0.00332423 0.0310386 0.00290649 0.025623 0.0028312 0.0452463
58 1 Mg 2.45379 72.4609 1.71522 1.2 1 0.00178377 0.0050962 0.000776041 0.00673888 0.00119817 0.00537426 0.00144667 0.0230848 0.0021204 0.0103885 0.00193897 0.027408 0.00212339 0.0211148 0.00347465 0.0313429 0.00365564 0.0259323 0.00334235 0.0456942
59 2 Si -0.0380749 70.677 1.73862 2.4 1 0.00142024 0.0048812 0.000863967 0.00731298 0.00164869 0.00555317 0.00162176 0.0231629 0.00156617 0.0103596 0.00213416 0.0266891 0.00193521 0.0212872 0.00309498 0.0309565 0.00367271 0.0257307 0.00281746 0.0465557
60 3 O 1.47778 70.5991 1.71274 -1.2 1 0.00131595 0.00468626 0.0010952 0.00694789 0.00120041 0.00514943 0.00102958 0.0227109 0.00245528 0.0104702 0.00150491 0.027246 0.00168641 0.0208108 0.00241449 0.0311549 0.00219505 0.0256178 0.00277096 0.0459698
61 3 O -1.11505 74.4719 1.56248 -1.2 1 0.00279717 0.00549987 0.00138492 0.00723987 0.00123862 0.00549672 0.00130747 0.0235931 0.00188802 0.0101913 0.0015511 0.0273492 0.00240355 0.0204684 0.00357032 0.0311921 0.00433078 0.0262118 0.00464296 0.0462362
62 3 O -0.733494 71.4656 0.442248 -1.2 1 0.00174514 0.00529359 0.000928755 0.00619871 0.00128458 0.00584531 0.000944068 0.0235586 0.00132252 0.0106588 0.00186596 0.0265511 0.00257167 0.0219331 0.00329878 0.0319398 0.00357635 0.0258107 0.00290599 0.0462281
63 1 Mg -2.21303 80.1231 2.90633 1.2 1 0.00410661 0.00588099 0.00180027 0.00797588 0.00153164 0.00614487 0.0016104 0.0234568 0.00131048 0.00982384 0.00191234 0.0285007 0.00306407 0.0197351 0.00327865 0.0312281 0.00366611 0.0267508 0.0045162 0.047274
64 3 O -0.791372 71.2057 2.99731 -1.2 1 0.00131309 0.00488952 0.00106754 0.00661678 0.00108758 0.00523064 0.00179554 0.0236992 0.00148434 0.0101906 0.00183024 0.0266875 0.00241004 0.0212095 0.00260725 0.0315231 0.00338082 0.0260894 0.00277081 0.0456992
65 1 Mg -1.87499 77.2846 4.65241 1.2 1 0.00262189 0.00555371 0.00138368 0.00822417 0.00155726 0.0058833 0.00146354 0.0237728 0.00231935 0.0099649 0.00230935 0.0280449 0.00363021 0.0197141 0.00478444 0.0313048 0.00508183 0.0266329 0.00520792 0.0466137
66 2 Si 0.588829 79.2446 4.59703 2.4 1 0.00327759 0.00553923 0.00179814 0.00916053 0.00179473 0.00599125 0.00214109 0.0231726 0.00192593 0.00938045 0.00308855 0.0280116 0.00328746 0.0204073 0.00631472 0.0307461 0.00618588 0.0264356 0.00622689 0.0482859
67 3 O -1.00276 79.2513 4.55687 -1.2 1 0.00347971 0.00565593 0.00191189 0.00901201 0.00150494 0.0060075 0.00180621 0.0233666 0.0022172 0.00950666 0.00205458 0.0281591 0.00332425 0.0190735 0.00352131 0.0316194 0.00481574 0.0271001 0.00450407 0.04797
68 3 O 1.6841 75.5755 4.51957 -1.2 1 0.00243941 0.00527325 0.000999 0.00749383 0.00123347 0.00550307 0.00162575 0.0241692 0.00159946 0.0105762 0.0022466 0.0279635 0.00351025 0.0198138 0.00449517 0.0306963 0.00424752 0.0259107 0.00469731 0.0458387
69 3 O 1.27587 78.6535 3.28006 -1.2 1 0.0036962 0.00610009 0.00201325 0.00801747 0.001844 0.00557777 0.00203608 0.0240946 0.00187328 0.0097155 0.00223058 0.0274141 0.00337879 0.0202459 0.00482296 0.0316115 0.00493167 0.0269477 0.00498459 0.0474701
70 3 O 1.22057 78.3724 5.85406 -1.2 1 0.00247813 0.00535105 0.00113383 0.00848345 0.00182692 0.00604823 0.00211141 0.023482 0.00214188 0.00958741 0.00210382 0.0276438 0.00336379 0.0199621 0.00480175 0.0318521 0.00510827 0.027101 0.00511551 0.0474156
71 1 Mg 0.256337 75.0089 3.00295 1.2 1 0.00227977 0.00569332 0.00109417 0.00696985 0.000952964 0.00573018 0.000967049 0.0237579 0.00163064 0.0108849 0.00139582 0.028059 0.00230918 0.0201869 0.00353254 0.0309784 0.00381566 0.0261456 0.00424258 0.0449526
72 1 Mg 0.237578 71.9819 4.50891 1.2 1 0.00126184 0.00491598 0.00052356 0.00681347 0.00127751 0.00501141 0.00153356 0.0231199 0.00260576 0.010985 0.00208608 0.0271745 0.00299136 0.0204684 0.00449327 0.0314252 0.00370175 0.026299 0.00389868 0.0451255
73 2 Si 2.37317 74.0113 4.55499 2.4 1 0.00162006 0.00516108 0.00111505 0.0081088 0.00134497 0.00554343 0.00157368 0.0234225 0.00176316 0.0100158 0.00178881 0.0264047 0.00280286 0.0203915 0.00480781 0.0304304 0.00466304 0.0259458 0.00472113 0.0465984
74 3 O -0.874685 74.0963 4.55435 -1.2 1 0.00157704 0.00497973 0.00115704 0.00776102 0.00130774 0.00527896 0.00140575 0.0224262 0.00267085 0.00982445 0.00154382 0.0275163 0.00221625 0.0195509 0.00339504 0.0309002 0.00384094 0.0251771 0.00444208 0.0452241
75 3 O 1.17752 70.1123 4.68314 -1.2 1 0.00185122 0.00445818 0.000914458 0.00693941 0.000794996 0.00560623 0.00114377 0.0236333 0.00118682 0.0102836 0.00189984 0.0277511 0.00276128 0.0199705 0.00324352 0.0305336 0.0038865 0.0257723 0.00344507 0.0459732
76 3 O 1.6747 73.3559 3.30951 -1.2 1 0.00173819 0.00511231 0.00144121 0.00695101 0.00143049 0.00529241 0.00132387 0.0235522 0.00163695 0.0098637 0.00130725 0.0265978 0.00223074 0.0206087 0.00383846 0.0317542 0.00389591 0.0264792 0.00400719 0.0453228
77 1 Mg 0.231271 74.8242 0.0568511 1.2 1 0.0028736 0.00551255 0.000882357 0.00677137 0.000844457 0.00547925 0.0010158 0.0233563 0.00104942 0.0103908 0.00116016 0.0272621 0.00149912 0.0205632 0.00214614 0.0319145 0.00292842 0.02626 0.0025573 0.0466186
78 3 O 1.62878 73.3848 5.86668 -1.2 1 0.00162588 0.00488438 0.00113303 0.00735853 0.00159706 0.00509318 0.00188356 0.0232919 0.00199084 0.00993175 0.0016512 0.0269726 0.00334441 0.0195375 0.00502116 0.0313419 0.00493797 0.0260492 0.00486041 0.0455855
79 1 Mg 0.209856 77.7571 1.6673 1.2 1 0.00384179 0.00626238 0.00163229 0.00747699 0.00118233 0.00542979 0.00117301 0.0236125 0.00177428 0.0103595 0.00253579 0.0274057 0.00304695 0.0204013 0.00348534 0.0320644 0.00456927 0.0266518 0.00439733 0.0472737
80 2 Si -1.81322 75.8678 1.45888 2.4 1 0.00286406 0.0054572 0.0012401 0.0077979 0.0014039 0.00540713 0.00191984 0.0234323 0.00185273 0.00996328 0.0022524 0.0264234 0.00254843 0.0215068 0.00338602 0.0311097 0.00376875 0.0258006 0.00354403 0.0473449
81 3 O 1.40724 75.7705 1.46355 -1.2 1 0.00304659 0.00563324 0.00125844 0.00723988 0.00152743 0.00510917 0.00152889 0.0227504 0.00219896 0.00967815 0.00153333 0.027067 0.00305314 0.0204376 0.00375819 0.0314347 0.00460554 0.0254765 0.00460354 0.0465167
82 3 O -0.864541 79.6257 1.58422 -1.2 1 0.00391444 0.00580515 0.00172154 0.00794756 0.00139272 0.00599201 0.00146632 0.0235205 0.00165752 0.00956456 0.00188813 0.0280262 0.00363525 0.0199593 0.00424166 0.0310923 0.0043155 0.0262774 0.00484405 0.047507
83 3 O -1.28922 76.5386 0.175904 -1.2 1 0.00371317 0.00545372 0.00121261 0.00695742 0.00136033 0.00552408 0.00170263 0.0232495 0.00144461 0.0098043 0.00177654 0.0264508 0.0021136 0.0208151 0.00258239 0.0321537 0.00309874 0.0262162 0.00329269 0.0473889
84 3 O -1.1238 76.6569 2.69766 -1.2 1 0.00309815 0.00580183 0.00155835 0.00735088 0.00128743 0.00559858 0.00156372 0.0235337 0.00183357 0.00982766 0.00201671 0.0271762 0.00284785 0.020858 0.00360375 0.0314217 0.00444331 0.0262188 0.00487652 0.0463539
85 1 Mg -2.26337 80.0785 0.0733736 1.2 1 0.0043753 0.00585794 0.00164422 0.0071337 0.00163118 0.00595563 0.00149916 0.0233713 0.00136095 0.00979695 0.00197585 0.0277098 0.00295061 0.0199089 0.00298997 0.0316179 0.00311769 0.0262167 0.00428662 0.0464711
86 1 Mg 2.30509 83.1482 1.60907 1.2 1 0.00474324 0.00553836 0.00103612 0.00792306 0.00148039 0.00599833 0.00178191 0.0232472 0.00167164 0.0102516 0.00308281 0.0280826 0.00352309 0.0205352 0.00401692 0.0318717 0.00369073 0.0266817 0.00401343 0.0466663
87 2 Si -0.227654 81.3018 1.54889 2.4 1 0.00473125 0.00540664 0.00166981 0.0083074 0.00195192 0.00592291 0.002028 0.022848 0.00163223 0.00945233 0.00234014 0.0269261 0.00337345 0.0203338 0.00355769 0.0315195 0.00380605 0.0264195 0.00470629 0.0477208
88 3 O 1.2936 81.2198 1.57606 -1.2 1 0.00473407 0.00538862 0.00159656 0.00823976 0.00198266 0.0056703 0.00187399 0.0225087 0.0023842 0.00966991 0.00269979 0.0273514 0.00348592 0.019914 0.003712 0.0320432 0.00382813 0.0261634 0.00538629 0.0476843
89 3 O -1.32369 84.7555 1.66844 -1.2 1 0.00380264 0.00535277 0.00066188 0.00853359 0.00135175 0.00672702 0.000906563 0.02342 0.000930503 0.0102758 0.00159789 0.028276 0.00232044 0.0201673 0.00302109 0.0310935 0.00278875 0.0268294 0.00323413 0.0464522
90 3 O -0.94235 81.7327 0.209612 -1.2 1 0.00444134 0.00519895 0.00125407 0.00790499 0.00198204 0.00567854 0.00172623 0.0230656 0.00151073 0.0101774 0.00191898 0.0268057 0.00372422 0.0206125 0.00376644 0.0320387 0.00299226 0.0260998 0.00487842 0.0473109
91 1 Mg -2.2556 90.6237 3.33191 1.2 1 0.00169053 0.00661486 0.000910104 0.00830503 0.000870898 0.00648915 0.000866725 0.0242542 0.00108421 0.00945144 0.000878588 0.0292828 0.00167094 0.0200153 0.00214405 0.0311146 0.00246849 0.0277774 0.00180115 0.046468
92 3 O -0.882392 81.9995 2.7523 -1.2 1 0.00423625 0.00578626 0.00152504 0.00822008 0.00157672 0.00624208 0.00179441 0.0231579 0.00176614 0.0097031 0.00213972 0.0274428 0.00289648 0.0205841 0.00332523 0.0315627 0.0032922 0.0268141 0.00405856 0.0471671
93 1 Mg -2.18835 87.6824 4.64636 1.2 1 0.00128605 0.00664361 0.000978105 0.00892368 0.00140063 0.00669939 0.00194945 0.0234421 0.00136061 0.0102293 0.00179749 0.0293699 0.00227381 0.0204763 0.00342083 0.0318826 0.00273994 0.0278391 0.0023384 0.0464272
94 2 Si 0.474612 89.4507 4.89544 2.4 1 0.00131986 0.00695928 0.000843885 0.00943393 0.000947349 0.00619754 0.001824 0.0235585 0.0013421 0.0099229 0.0022847 0.0286204 0.002259 0.0204112 0.00401388 0.0317875 0.00343045 0.0277013 0.00257331 0.0474178
95 3 O -1.11503 89.5895 4.774 -1.2 1 0.00131474 0.00655496 0.000929107 0.00931202 0.000699886 0.00608392 0.00144488 0.022995 0.00216168 0.00971305 0.00138996 0.0287422 0.0019699 0.0197945 0.002866 0.0317175 0.00314284 0.0270797 0.00292357 0.0469809
96 3 O 1.52483 85.8851 4.61201 -1.2 1 0.00227459 0.00607047 0.00138026 0.00906606 0.00119835 0.00725706 0.00143434 0.0240512 0.00123419 0.0103776 0.00224654 0.0289863 0.00238933 0.0200143 0.00348338 0.0309535 0.00298056 0.0277891 0.00251715 0.0467735
97 3 O 1.13698 88.761 3.66972 -1.2 1 0.00164816 0.00660262 0.000843623 0.00859639 0.00103898 0.0061877 0.00189322 0.0238437 0.00155407 0.00990953 0.0018055 0.0282216 0.00215842 0.0208952 0.00311539 0.0319528 0.00268923 0.0277873 0.00210456 0.0468083
98 3 O 1.04095 88.7961 6.2112 -1.2 1 0.000704049 0.00679052 0.000819289 0.00893487 0.000977392 0.00670803 0.00172574 0.0241325 0.00120732 0.0103132 0.00159269 0.0286889 0.00236335 0.0204748 0.00252765 0.0319624 0.00250977 0.0277332 0.00291045 0.0468366
99 1 Mg 0.16498 85.3897 3.25064 1.2 1 0.00303547 0.00571184 0.000868793 0.00857873 0.0011157 0.00705882 0.00103109 0.0234295 0.00089238 0.0103255 0.00169847 0.0290262 0.00208358 0.019732 0.00253673 0.0315479 0.00225558 0.027389 0.0013129 0.0459538
100 1 Mg 0.136519 82.6296 4.53309 1.2 1 0.00347564 0.00537922 0.00152933 0.00897179 0.00152171 0.00639366 0.00166661 0.0231143 0.00169099 0.0103274 0.00246735 0.028927 0.00287043 0.0198954 0.00458671 0.0322436 0.00365581 0.0277951 0.00322974 0.0474286
101 2 Si 2.22214 84.2683 4.71539 2.4 1 0.00274181 0.00519208 0.00129716 0.00955528 0.00144892 0.00668264 0.00172313 0.0229676 0.00122206 0.00989522 0.00275921 0.0277141 0.00285311 0.0200603 0.00429801 0.0316829 0.00404264 0.0273099 0.00336808 0.0474694
102 3 O -0.967607 84.4013 4.6783 -1.2 1 0.00238881 0.00544439 0.0012807 0.00922276 0.00150123 0.00690444 0.00112963 0.0229397 0.00150183 0.00979058 0.0018267 0.0284569 0.00223428 0.0193858 0.00264654 0.0317333 0.00294627 0.0273712 0.00184404 0.0471538
103 3 O 1.18107 80.669 4.56155 -1.2 1 0.00384407 0.00558221 0.00178589 0.00873858 0.00196108 0.00649429 0.0019883 0.0241595 0.00149142 0.00991197 0.00257093 0.0289126 0.00335967 0.019789 0.0040436 0.0312545 0.00399382 0.0278512 0.00424923 0.0480124
104 3 O 1.44698 83.6219 3.39186 -1.2 1 0.00370486 0.00563272 0.000874596 0.00856891 0.0014034 0.0066545 0.00188715 0.0235042 0.00151102 0.00983921 0.0020905 0.0271775 0.00326853 0.0205391 0.00382481 0.0319915 0.00335924 0.0274816 0.00208695 0.0466285
105 1 Mg 0.0708904 85.303 0.019425 1.2 1 0.00414365 0.0045289 0.000846129 0.00775922 0.00134333 0.00621897 0.000928407 0.023491 0.0013121 0.0102543 0.00169193 0.0276781 0.00266033 0.0202917 0.00210064 0.0317656 0.00218513 0.0260722 0.00302989 0.0461563
106 3 O 1.58806 83.6326 5.89553 -1.2 1 0.00226773 0.00517108 0.00145684 0.00920948 0.00148767 0.00653295 0.00193907 0.0232016 0.00145513 0.00978731 0.00233362 0.0281182 0.00287881 0.0194371 0.00420022 0.0315409 0.00386651 0.0277522 0.00397523 0.0471545
107 1 Mg 0.149945 88.1379 1.69617 1.2 1 0.00231823 0.00633976 0.00121604 0.00801092 0.0011904 0.00603901 0.0010505 0.0236804 0.00236505 0.010392 0.00214379 0.0285646 0.00272461 0.0205178 0.00291528 0.0324758 0.00287788 0.0274927 0.00243979 0.0462669
108 2 Si -2.00416 86.2195 1.51689 2.4 1 0.00321597 0.00541001 0.000931663 0.00894367 0.00170678 0.00626389 0.00137994 0.0232647 0.00162672 0.0102319 0.00128024 0.0275231 0.00214849 0.0205557 0.00329994 0.0313238 0.00282548 0.0265276 0.00269071 0.0470148
109 3 O 1.20456 86.0454 1.48221 -1.2 1 0.0030263 0.00521361 0.000927947 0.00856077 0.00140005 0.0060616 0.00120672 0.0233794 0.00178046 0.0097124 0.00148823 0.0281071 0.00217507 0.0197726 0.00232705 0.0321617 0.00262818 0.0267569 0.00278583 0.0468616
110 3 O -0.864432 89.9947 1.80366 -1.2 1 0.00190859 0.00619252 0.000603997 0.00844232 0.000884836 0.00622917 0.00103134 0.0243009 0.00148556 0.00972272 0.00158215 0.0292098 0.0025802 0.0201061 0.00311126 0.0313905 0.00278193 0.0273831 0.00247853 0.0465822
111 3 O -1.42338 86.7973 0.268904 -1.2 1 0.00370967 0.00498517 0.00140869 0.00795349 0.00190101 0.00594664 0.00141086 0.0235654 0.00187777 0.00998469 0.00126662 0.0273158 0.00221637 0.0203078 0.00275224 0.0323091 0.0028564 0.0264849 0.00330215 0.0469494
112 3 O -1.15846 86.9202 2.77939 -1.2 1 0.00207255 0.0062067 0.000818902 0.00875105 0.00176751 0.00654815 0.00208495 0.0233676 0.00153482 0.00997346 0.00172562 0.0279997 0.00195472 0.0204991 0.00348827 0.0320134 0.00323011 0.0274922 0.00220985 0.0466031
113 1 Mg -2.38692 90.2978 0.316835 1.2 1 0.00270227 0.00609114 0.00100148 0.00775665 0.00129924 0.00617388 0.000898205 0.0242317 0.00165764 0.00969768 0.0014853 0.0290615 0.00209861 0.0204079 0.0025615 0.031727 0.00253938 0.0271582 0.00281697 0.0463336
114 1 Mg 2.32641 93.3185 1.67367 1.2 1 0.00217156 0.00565442 0.00137466 0.00832483 0.00100584 0.00540763 0.00159703 0.0243983 0.0025265 0.010383 0.00222651 0.0295088 0.00247257 0.0207857 0.00374815 0.0309811 0.00302737 0.0267551 0.00304495 0.0466441
115 2 Si -0.267339 91.4439 1.78042 2.4 1 0.00188631 0.00577726 0.00140007 0.00933736 0.00165729 0.00566949 0.00154314 0.0238334 0.00202452 0.00958329 0.00222541 0.0281239 0.00294818 0.0206589 0.00505727 0.0311055 0.00369467 0.0268637 0.003368 0.0477226
116 3 O 1.36591 91.4421 1.79319 -1.2 1 0.00195965 0.00586429 0.00136127 0.00860183 0.00120463 0.0058104 0.00124502 0.0235394 0.00292429 0.0095332 0.00170337 0.0286594 0.00193051 0.0199035 0.00216871 0.0314914 0.00264714 0.0268897 0.00209135 0.0471061
117 3 O -1.24846 95.1653 1.64295 -1.2 1 0.000734562 0.00489507 0.00166203 0.00831095 0.00110507 0.00553166 0.00127826 0.0246408 0.00116217 0.0103687 0.00156729 0.0297138 0.00176398 0.0207794 0.00327805 0.0301617 0.00263412 0.0262388 0.00233952 0.0461646
118 3 O -0.944376 92.0513 0.476862 -1.2 1 0.00290266 0.00565366 0.00150737 0.00818364 0.00198032 0.0053029 0.00241321 0.0240782 0.00200128 0.00941145 0.0018416 0.0284727 0.00286005 0.0206311 0.00444183 0.0315696 0.00347786 0.026816 0.00437108 0.0473079
119 1 Mg -2.3145 101.125 3.29365 1.2 1 0.00307207 0.00433471 0.000716709 0.00799218 0.000729922 0.00606518 0.000647413 0.023644 0.00100161 0.00974594 0.0012293 0.0298813 0.00126657 0.0201667 0.00171311 0.0303006 0.00129079 0.0263498 0.00196159 0.0455877