ITEM: TIMESTEP
8000
ITEM: NUMBER OF ATOMS
756
ITEM: BOX BOUNDS pp pp pp
-4.8435403184 9.6870806369
-10.1864092633 20.3728185265
-6.0013959751 12.0027919502
ITEM: ATOMS id type x y z Coordination
1 1 -0.0458304 -10.2132 0.0460852 27
2 1 -0.191795 -7.33602 -4.61945 27
3 2 -2.82526 -9.24577 -4.57154 25
4 3 -1.20655 -9.22939 -4.49355 22
5 3 -3.81769 -5.6068 -4.59885 26
6 3 -3.46989 -8.53913 -5.77702 24
7 1 0.00299371 -10.0453 -2.96578 28
8 3 -3.51125 -8.56465 -3.31142 24
9 1 -4.7934 -2.86874 -1.60473 27
10 2 -2.12302 -1.05574 -1.48846 25
11 3 -3.74046 -0.967817 -1.49343 22
12 3 -1.05841 -4.65841 -1.41403 26
13 3 -1.4145 -1.67488 -2.77662 24
14 3 -1.40111 -1.70683 -0.236499 24
15 1 -2.5272 -5.18389 -3.04112 29
16 1 -2.59865 -7.92778 -1.6205 29
17 2 -0.397255 -6.11691 -1.46297 25
18 3 -3.61713 -5.99523 -1.58789 22
19 3 -1.42492 -9.66647 -1.54921 24
20 3 -1.06109 -6.7511 -2.79231 24
21 1 -2.39296 -5.19071 0.0545165 28
22 3 -1.10062 -6.7621 -0.205494 24
23 1 -2.42658 -2.51211 -4.39761 27
24 2 -4.50861 -4.17299 -4.6216 25
25 3 -1.25604 -4.2604 -4.50486 22
26 3 -3.30188 -0.627227 -4.50039 25
27 3 -3.81334 -3.46959 -5.87096 23
28 3 -3.90885 -3.49115 -3.29555 23
30 1 -0.264941 -7.33702 1.54954 27
31 2 -2.7849 -9.20788 1.37247 25
32 3 -1.2064 -9.28788 1.3411 22
33 3 -3.83848 -5.78304 1.44078 27
34 3 -3.58118 -8.54722 0.116726 24
36 3 -3.41563 -8.63654 2.71045 24
51 1 -2.29507 -2.39485 1.55712 28
52 2 -4.48915 -4.22155 1.43392 25
53 3 -1.25459 -4.25992 1.59399 22
54 3 -3.45365 -0.538146 1.51627 24
55 3 -3.74858 -3.52119 0.233272 24
56 3 -3.78793 -3.5733 2.71819 24
253 1 4.87909 -10.0454 -0.0938157 30
254 1 4.60156 -7.30384 -4.5371 27
255 2 2.03985 -9.23818 -4.46289 25
256 3 3.60015 -9.22947 -4.66655 23
257 3 1.05149 -5.65181 -4.55937 26
258 3 1.24514 -8.58342 -5.75843 23
259 1 4.87612 -10.1668 -3.11517 29
260 3 1.44204 -8.52973 -3.16724 24
261 1 0.138561 -2.77787 -1.50315 28
262 2 2.72092 -0.96687 -1.40577 25
263 3 1.17876 -0.92451 -1.51622 22
264 3 3.72429 -4.55524 -1.60544 25
265 3 3.43048 -1.6392 -2.71233 24
266 3 3.36629 -1.57662 -0.187716 24
267 1 2.47099 -5.07507 -3.10191 27
268 1 2.30027 -7.8503 -1.427 27
269 2 4.49167 -5.99774 -1.55976 25
270 3 1.1417 -5.98671 -1.50233 23
271 3 3.56335 -9.5729 -1.63157 25
272 3 3.79778 -6.65971 -2.80624 23
273 1 2.324 -5.1185 -0.084777 28
274 3 3.8728 -6.61607 -0.245133 24
275 1 2.46322 -2.13272 -4.49833 28
276 2 0.300971 -4.16777 -4.4738 25
277 3 3.58563 -4.15654 -4.59753 22
278 3 1.40713 -0.478803 -4.41591 25
279 3 1.0035 -3.55635 -5.77598 24
280 3 0.948822 -3.4876 -3.22195 24
282 1 4.83426 -7.34833 1.48511 28
283 2 2.1246 -9.08428 1.55025 25
284 3 3.69149 -9.21783 1.49129 22
285 3 1.00649 -5.62127 1.47541 25
286 3 1.54644 -8.38876 0.254239 24
288 3 1.34044 -8.49199 2.78377 22
303 1 2.41822 -2.23016 1.45051 27
304 2 0.328642 -4.12073 1.55856 25
305 3 3.60068 -4.2097 1.4261 22
306 3 1.44623 -0.436197 1.53658 25
307 3 0.947694 -3.38107 0.269739 23
308 3 1.07047 -3.4431 2.83379 22
505 1 9.64522 -10.1445 -0.0880858 28
506 1 9.56657 -7.41284 -4.60555 29
507 2 6.94135 -9.05711 -4.56046 25
508 3 8.47896 -9.26215 -4.55614 24
509 3 5.7617 -5.6381 -4.50463 24
510 3 6.27399 -8.40514 -5.84729 24
511 1 9.59559 -10.2665 -3.12899 29
512 3 6.25814 -8.51653 -3.247 24
513 1 4.95278 -2.73018 -1.57772 28
514 2 7.53361 -0.946638 -1.54443 25
515 3 6.02391 -0.810456 -1.39774 23
516 3 8.67819 -4.56428 -1.45674 25
517 3 8.2574 -1.64678 -2.79312 24
518 3 8.25903 -1.61358 -0.302569 24
519 1 7.27197 -4.99421 -3.07002 28
520 1 7.17439 -7.89464 -1.5 28
521 2 9.33049 -6.06249 -1.57443 25
522 3 6.08466 -5.9094 -1.54878 22
523 3 8.27545 -9.59574 -1.55601 26
524 3 8.63666 -6.7406 -2.77565 24
525 1 7.29165 -5.08243 -0.0593905 28
526 3 8.61716 -6.72278 -0.240526 24
527 1 7.13105 -2.25113 -4.51545 25
528 2 5.13165 -4.13491 -4.54909 25
529 3 8.4396 -4.3341 -4.56536 23
530 3 6.1675 -0.569748 -4.40249 25
531 3 5.86099 -3.5167 -5.82102 24
532 3 5.83462 -3.46209 -3.30811 24
534 1 9.45051 -7.35471 1.43741 30
535 2 6.9654 -9.22294 1.49608 25
536 3 8.4759 -9.38381 1.49315 23
537 3 5.95183 -5.56156 1.39446 26
538 3 6.26691 -8.48626 0.18218 24
540 3 6.24611 -8.4928 2.71233 24
555 1 7.35656 -2.28426 1.48495 28
556 2 5.15128 -4.1277 1.42951 25
557 3 8.50061 -4.20495 1.45411 23
558 3 6.28857 -0.400101 1.42732 24
559 3 5.84275 -3.38166 0.178343 24
560 3 5.90354 -3.45823 2.64902 24
85 1 -0.0226318 0.0699801 -0.0231864 28
86 1 -0.0932109 2.84812 -4.50483 28
87 2 -2.70221 0.933454 -4.51973 25
88 3 -1.16242 0.86143 -4.33227 23
89 3 -3.73659 4.61294 -4.43278 25
90 3 -3.39155 1.49304 -5.76525 24
91 1 0.0240053 -0.0154632 -2.91238 28
92 3 -3.43969 1.60935 -3.26324 24
93 1 -4.6895 7.46007 -1.52962 28
94 2 -2.01286 9.24141 -1.40839 25
95 3 -3.60642 9.31137 -1.4033 22
96 3 -0.903685 5.5937 -1.53042 25
97 3 -1.35473 8.49799 -2.74112 24
98 3 -1.29987 8.58525 -0.109243 24
99 1 -2.3762 5.07109 -2.98717 28
100 1 -2.38489 2.32106 -1.5233 27
101 2 -0.268257 4.06776 -1.49859 25
102 3 -3.591 4.13881 -1.48062 22
103 3 -1.47738 0.421491 -1.44401 24
104 3 -0.977201 3.35406 -2.71352 23
105 1 -2.48392 5.13473 -0.0202089 28
106 3 -0.940611 3.46513 -0.190916 24
107 1 -2.34443 7.85404 -4.48617 28
108 2 -4.45302 6.05032 -4.4826 25
109 3 -1.23208 5.95623 -4.4431 23
110 3 -3.47016 9.59385 -4.44638 25
111 3 -3.85739 6.74081 -5.78015 24
112 3 -3.72463 6.74268 -3.20208 23
114 1 -0.0497085 2.821 1.50252 28
115 2 -2.77448 0.96231 1.44243 25
116 3 -1.26288 0.922945 1.49769 23
117 3 -3.85032 4.68871 1.60139 24
118 3 -3.47088 1.6186 0.163889 24
120 3 -3.44814 1.59099 2.79187 24
135 1 -2.40507 7.95402 1.54296 27
136 2 -4.48052 6.16382 1.49274 25
137 3 -1.24398 6.03494 1.46613 23
138 3 -3.36097 9.69818 1.59425 25
139 3 -3.76689 6.71335 0.179038 24
140 3 -3.79386 6.85982 2.7513 22
337 1 4.80905 -0.0507077 0.136895 27
338 1 4.8242 2.81795 -4.38504 26
339 2 2.09148 0.996563 -4.37554 25
340 3 3.66329 0.92667 -4.41567 23
341 3 1.04078 4.56776 -4.43872 26
342 3 1.42102 1.73184 -5.70253 23
343 1 4.79715 0.0249537 -2.93947 28
344 3 1.38895 1.60754 -3.06113 24
345 1 0.104356 7.3274 -1.43767 28
346 2 2.78748 9.14738 -1.46248 25
347 3 1.26581 9.41701 -1.57404 24
348 3 3.88847 5.58388 -1.46385 24
349 3 3.48965 8.46728 -2.75759 23
350 3 3.46249 8.45267 -0.175285 24
351 1 2.44385 5.05873 -2.90244 28
352 1 2.34065 2.23078 -1.47476 28
353 2 4.56749 4.1085 -1.41177 25
354 3 1.30887 4.17119 -1.49829 22
355 3 3.37878 0.510057 -1.4512 25
356 3 3.9009 3.37079 -2.64593 22
357 1 2.4207 5.13928 -0.009735 28
358 3 3.85223 3.46919 -0.142279 24
359 1 2.43843 7.91985 -4.42728 26
360 2 0.310887 6.07306 -4.41069 25
361 3 3.58493 6.02288 -4.39488 23
362 3 1.39063 9.69491 -4.53917 24
363 3 1.04183 6.72942 -5.73691 24
364 3 1.06087 6.71783 -3.13499 24
366 1 4.87522 2.68047 1.53567 29
367 2 2.11639 1.05236 1.49099 25
368 3 3.70539 0.867484 1.55504 22
369 3 0.986614 4.58017 1.48438 24
370 3 1.37667 1.68363 0.265664 24
372 3 1.36737 1.65774 2.78745 23
387 1 2.46139 7.82647 1.56911 27
388 2 0.297719 6.10208 1.4956 25
389 3 3.55307 5.97416 1.54052 22
390 3 1.41961 9.65298 1.46775 25
391 3 1.07286 6.73806 0.228729 24
392 3 1.00078 6.69754 2.77275 24
589 1 9.67931 -0.0732662 -0.0919254 29
590 1 9.5779 2.78561 -4.3404 26
591 2 6.90048 0.890571 -4.49969 25
592 3 8.46571 0.782069 -4.51633 23
593 3 5.85257 4.62432 -4.47274 24
594 3 6.1756 1.51427 -5.75705 24
595 1 9.66409 -0.113496 -3.03111 28
596 3 6.21087 1.63559 -3.24973 23
597 1 5.10268 7.4196 -1.56776 28
598 2 7.6905 9.23669 -1.40306 25
599 3 6.10958 9.23097 -1.43615 22
600 3 8.71109 5.53957 -1.49101 24
601 3 8.25511 8.65755 -2.80337 24
602 3 8.39016 8.49326 -0.225867 24
603 1 7.19523 4.98152 -3.09608 27
604 1 7.31895 2.30747 -1.50568 27
605 2 9.39591 4.11036 -1.45121 25
606 3 6.12486 4.14552 -1.45384 22
607 3 8.31387 0.51724 -1.61848 25
608 3 8.70234 3.37759 -2.70364 24
609 1 7.21302 5.07285 0.0295639 28
610 3 8.72126 3.46576 -0.120001 24
611 1 7.34531 7.86292 -4.48077 28
612 2 5.1564 6.12237 -4.46296 25
613 3 8.5182 5.92418 -4.48119 23
614 3 6.30297 9.76524 -4.49412 25
615 3 5.78341 6.77487 -5.78002 24
616 3 5.9726 6.80792 -3.27447 23
618 1 9.55621 2.88406 1.61835 27
619 2 6.99028 1.03217 1.42242 25
620 3 8.56927 0.907736 1.45332 22
621 3 5.8528 4.60798 1.59076 25
622 3 6.41063 1.80063 0.180425 24
624 3 6.2507 1.71301 2.74589 24
639 1 7.2657 7.86698 1.42377 26
640 2 5.12195 6.08433 1.55738 25
641 3 8.44052 6.06445 1.60556 22
642 3 6.18979 9.66135 1.55321 25
643 3 5.84219 6.7767 0.245791 23
644 3 5.79791 6.74487 2.85569 24
169 1 0.0709868 10.2779 -0.0219929 28
170 1 -0.0291171 13.0687 -4.49022 26
171 2 -2.80905 11.1103 -4.43394 25
172 3 -1.19871 11.0538 -4.40631 23
173 3 -3.8072 14.7648 -4.66216 25
174 3 -3.483 11.8023 -5.73498 24
175 1 -0.032988 10.2631 -2.99619 27
176 3 -3.41462 11.8014 -3.1934 24
177 1 -4.6688 17.5873 -1.47029 27
178 2 -2.09782 19.4621 -1.4821 25
179 3 -3.67062 19.5386 -1.51893 22
180 3 -0.989075 15.8149 -1.55242 24
181 3 -1.43138 18.7571 -2.79551 24
182 3 -1.41684 18.7585 -0.228093 23
183 1 -2.42135 15.2063 -3.12182 28
184 1 -2.53985 12.5508 -1.54219 28
185 2 -0.340542 14.2909 -1.51934 25
186 3 -3.61772 14.3184 -1.58388 22
187 3 -1.36626 10.7224 -1.49548 24
188 3 -0.991116 13.598 -2.74897 22
189 1 -2.41982 15.314 -0.07614 27
190 3 -1.03689 13.6508 -0.227702 23
191 1 -2.34405 18.1199 -4.5746 27
192 2 -4.5657 16.2761 -4.62346 25
193 3 -1.14632 16.2219 -4.55576 23
194 3 -3.5103 19.8556 -4.59037 25
195 3 -3.80881 17.0599 -5.84515 23
196 3 -3.81886 16.8707 -3.26686 24
198 1 -0.119116 13.0998 1.5042 26
199 2 -2.7155 11.271 1.52047 25
200 3 -1.21049 11.2869 1.41102 23
201 3 -3.78121 14.7406 1.52745 25
202 3 -3.52422 11.8327 0.263416 24
204 3 -3.40535 11.8227 2.8396 24
219 1 -2.33172 18.1385 1.46837 27
220 2 -4.44393 16.2382 1.53363 25
221 3 -1.20396 16.2674 1.52109 23
222 3 -3.41966 19.8503 1.40663 25
223 3 -3.76214 16.8712 0.248063 24
224 3 -3.74442 16.9183 2.81575 24
421 1 4.85261 10.1227 -0.0425054 29
422 1 4.67868 13.0103 -4.47329 28
423 2 2.09954 11.2023 -4.4087 25
424 3 3.63828 11.0347 -4.3927 22
425 3 1.12379 14.784 -4.45867 26
426 3 1.28406 11.9017 -5.67081 23
427 1 4.88299 10.1901 -2.97412 29
428 3 1.39252 11.8724 -3.15994 23
429 1 0.0292712 17.6329 -1.50747 28
430 2 2.766 19.4728 -1.56157 25
431 3 1.25449 19.6684 -1.43592 23
432 3 3.79996 15.7609 -1.428 25
433 3 3.33785 18.8246 -2.84656 23
434 3 3.457 18.7937 -0.301262 24
435 1 2.37149 15.347 -2.93212 29
436 1 2.49978 12.4084 -1.318 26
437 2 4.49606 14.2918 -1.43708 25
438 3 1.20291 14.3528 -1.49368 22
439 3 3.56715 10.6387 -1.38898 24
440 3 3.8915 13.6592 -2.76198 24
441 1 2.38564 15.2185 0.107975 29
442 3 3.80721 13.5564 -0.202499 24
443 1 2.41343 18.1139 -4.4722 27
444 2 0.427627 16.2602 -4.4763 25
445 3 3.59672 16.174 -4.4979 23
446 3 1.33566 19.876 -4.51035 26
447 3 1.09065 16.8653 -5.81412 24
448 3 1.10778 17.0008 -3.20622 23
450 1 4.82282 13.0511 1.58187 27
451 2 2.14674 11.1383 1.59147 25
452 3 3.69744 11.0268 1.61585 22
453 3 0.950325 14.842 1.53384 24
454 3 1.59342 11.8835 0.306812 23
456 3 1.41788 11.8227 2.82315 24
471 1 2.50236 18.1324 1.44985 28
472 2 0.338177 16.2898 1.53948 25
473 3 3.68533 15.927 1.49606 24
474 3 1.41084 20.0368 1.50692 24
475 3 1.05883 17.0399 0.317174 23
476 3 1.16949 16.9394 2.81491 24
673 1 9.75989 10.2706 -0.0036889 29
674 1 9.57299 13.0623 -4.49854 27
675 2 6.98258 11.2311 -4.39489 25
676 3 8.52522 11.0781 -4.39344 22
677 3 5.81227 14.8712 -4.41926 24
678 3 6.32161 11.9213 -5.68674 24
679 1 9.72259 10.1156 -2.96352 29
680 3 6.26732 11.8057 -3.11897 24
681 1 4.891 17.5532 -1.4687 27
682 2 7.55098 19.4659 -1.5423 25
683 3 6.02163 19.5085 -1.56723 23
684 3 8.69372 15.8048 -1.50029 25
685 3 8.20631 18.7552 -2.79472 24
686 3 8.3232 18.8044 -0.217418 24
687 1 7.2729 15.3344 -2.99424 28
688 1 7.18817 12.5413 -1.46861 28
689 2 9.36931 14.3779 -1.52943 25
690 3 6.10785 14.4144 -1.51571 22
691 3 8.33613 10.743 -1.41074 25
692 3 8.65212 13.7509 -2.81109 24
693 1 7.29161 15.2178 -5.21036e-04 29
694 3 8.64547 13.6776 -0.259766 24
695 1 7.18112 18.0787 -4.49102 26
696 2 5.1401 16.3217 -4.37545 25
697 3 8.46294 16.1862 -4.60458 22
698 3 6.20891 20.0045 -4.57344 24
699 3 5.8098 16.8877 -5.73877 24
700 3 5.85209 17.055 -3.15478 24
702 1 9.63281 13.0343 1.4898 28
703 2 6.93417 11.1541 1.5505 25
704 3 8.46103 11.0776 1.54273 22
705 3 5.96589 14.7624 1.44219 26
706 3 6.21237 11.7406 0.250989 24
708 3 6.31992 11.8652 2.84162 24
723 1 7.33985 18.0212 1.52609 29
724 2 5.21709 16.1836 1.48825 25
725 3 8.52617 16.197 1.48867 22
726 3 6.23347 19.895 1.4883 25
727 3 5.8139 16.9369 0.208183 24
728 3 5.94813 16.8854 2.68382 24
29 1 -0.0682151 -10.2621 6.12255 27
35 1 0.0514871 -9.95498 3.09779 27
37 1 -4.85936 -2.84781 4.50794 27
38 2 -1.99807 -0.902272 4.48687 25
39 3 -3.51908 -0.942191 4.5743 23
40 3 -1.08214 -4.54577 4.42634 25
41 3 -1.33472 -1.54852 3.1633 24
42 3 -1.31322 -1.6202 5.75245 24
43 1 -2.56384 -5.23521 2.89719 27
44 1 -2.53826 -7.96534 4.42921 28
45 2 -0.387455 -6.11937 4.49857 25
46 3 -3.6745 -6.04048 4.44866 22
47 3 -1.41743 -9.69993 4.63352 25
48 3 -1.13644 -6.79449 3.24218 22
49 1 -2.45784 -5.08586 5.93884 28
50 3 -1.03129 -6.714 5.75493 23
57 1 -0.0326771 -10.1499 12.0443 29
58 1 -0.101683 -7.32393 7.4861 27
59 2 -2.83659 -9.23043 7.55061 25
60 3 -1.22265 -9.30639 7.53691 22
61 3 -3.8416 -5.5693 7.36194 24
62 3 -3.57033 -8.54728 6.2006 24
63 1 0.038175 -10.137 9.1181 27
64 3 -3.49099 -8.55249 8.81636 24
65 1 -4.77057 -2.79696 10.3113 26
66 2 -2.01298 -1.00783 10.4866 25
67 3 -3.57659 -0.956812 10.5574 22
68 3 -1.09764 -4.6379 10.4084 25
69 3 -1.34122 -1.66605 9.24583 24
70 3 -1.36442 -1.70664 11.7785 24
71 1 -2.51217 -5.13696 8.96037 29
72 1 -2.45657 -7.93682 10.4611 28
73 2 -0.407963 -6.12817 10.4272 25
74 3 -3.57937 -6.01947 10.4529 22
75 3 -1.32889 -9.70137 10.4718 25
76 3 -1.10475 -6.80639 9.19397 23
77 1 -2.44941 -5.14134 11.8918 28
78 3 -1.12661 -6.8499 11.7012 24
79 1 -2.42921 -2.29927 7.48431 27
80 2 -4.56112 -4.10988 7.39529 25
81 3 -1.22261 -4.13442 7.47557 22
82 3 -3.47806 -0.541948 7.52299 25
83 3 -3.82722 -3.40457 6.23127 23
84 3 -3.85838 -3.46696 8.73902 24
281 1 4.81505 -10.1707 5.89325 29
287 1 4.7514 -10.1626 2.85574 29
289 1 0.055136 -2.7559 4.42859 28
290 2 2.76888 -1.05388 4.47274 25
291 3 1.23249 -1.00111 4.47611 22
292 3 3.85098 -4.60425 4.48481 24
293 3 3.43775 -1.7552 3.19691 23
294 3 3.50435 -1.68993 5.74753 24
295 1 2.51376 -4.98967 3.01396 28
296 1 2.40163 -7.93638 4.48904 26
297 2 4.55749 -6.12831 4.51564 25
298 3 1.1927 -6.02011 4.4875 22
299 3 3.42601 -9.77606 4.29961 25
300 3 3.87926 -6.7064 3.22573 24
301 1 2.3971 -5.195 6.00113 28
302 3 3.79735 -6.81594 5.75467 23
309 1 4.88602 -9.9152 11.8647 28
310 1 4.87227 -7.40636 7.52113 27
311 2 2.08768 -9.16178 7.49466 25
312 3 3.64642 -9.21718 7.43909 22
313 3 0.948777 -5.5701 7.60341 24
314 3 1.42557 -8.55649 6.19155 24
315 1 4.85304 -10.2892 9.04438 29
316 3 1.47464 -8.53692 8.80863 24
317 1 0.0981394 -2.92823 10.5756 26
318 2 2.82014 -0.905376 10.4709 25
319 3 1.24929 -0.935869 10.5352 22
320 3 3.82036 -4.61595 10.4004 25
321 3 3.53798 -1.68595 9.29133 24
322 3 3.47509 -1.53677 11.7954 24
323 1 2.36072 -5.17701 8.99554 28
324 1 2.39099 -7.91924 10.5612 27
325 2 4.51637 -6.07028 10.4691 25
326 3 1.19051 -6.03742 10.4776 22
327 3 3.47922 -9.7293 10.4788 24
328 3 3.84247 -6.77106 9.23205 24
329 1 2.35109 -4.95012 11.8677 27
330 3 3.80481 -6.64195 11.7772 24
331 1 2.50432 -2.27164 7.50552 28
332 2 0.328731 -3.9773 7.48935 25
333 3 3.61185 -4.1631 7.46694 22
334 3 1.50946 -0.496339 7.50716 24
335 3 1.11925 -3.37091 6.241 23
336 3 1.09506 -3.43182 8.79055 23
533 1 9.74026 -10.1975 5.89504 28
539 1 9.73655 -10.3691 2.88807 28
541 1 4.95324 -2.81639 4.47571 27
542 2 7.57142 -1.00184 4.48322 25
543 3 6.01398 -0.893894 4.51349 22
544 3 8.68882 -4.57627 4.50595 24
545 3 8.21861 -1.70794 3.2214 24
546 3 8.32451 -1.75241 5.76465 24
547 1 7.25594 -5.02607 2.98189 28
548 1 7.27586 -7.9158 4.43018 27
549 2 9.3175 -6.08902 4.51988 25
550 3 6.09187 -5.96297 4.46058 23
551 3 8.29413 -9.68952 4.37902 26
552 3 8.56909 -6.70632 3.26049 24
553 1 7.2635 -4.97548 6.00151 28
554 3 8.60246 -6.73178 5.7916 24
561 1 9.66681 -10.1417 11.923 28
562 1 9.61897 -7.45849 7.4048 29
563 2 6.88919 -9.26738 7.37702 25
564 3 8.44501 -9.34354 7.41143 22
565 3 5.84508 -5.5899 7.42641 24
566 3 6.19969 -8.61186 6.10205 24
567 1 9.57733 -10.174 8.99106 27
568 3 6.24863 -8.5702 8.65393 24
569 1 4.93628 -2.78755 10.4493 28
570 2 7.55312 -0.993148 10.5193 25
571 3 5.98912 -0.904694 10.5151 22
572 3 8.65053 -4.63697 10.4392 24
573 3 8.28046 -1.68555 9.23671 24
574 3 8.12773 -1.66201 11.7908 24
575 1 7.26223 -5.03487 9.00715 28
576 1 7.17635 -7.90725 10.4331 26
577 2 9.35995 -6.04395 10.418 25
578 3 6.13005 -6.07414 10.4538 22
579 3 8.25089 -9.65787 10.4107 26
580 3 8.65395 -6.70627 9.13378 24
581 1 7.21852 -5.24299 12.0257 28
582 3 8.70418 -6.76928 11.7081 24
583 1 7.26178 -2.25544 7.50432 27
584 2 5.14767 -4.08742 7.52832 25
585 3 8.42209 -4.19106 7.49703 23
586 3 6.21504 -0.509092 7.5942 25
587 3 5.86848 -3.38265 6.24938 23
588 3 5.90156 -3.48574 8.77834 24
113 1 0.127251 -0.18337 5.95708 30
119 1 0.0362641 0.130284 3.01258 28
121 1 -4.78235 7.39239 4.47015 28
122 2 -2.12627 9.21616 4.4894 25
123 3 -3.73386 9.23178 4.51358 22
124 3 -0.931856 5.56975 4.70632 25
125 3 -1.40184 8.48081 3.22051 24
126 3 -1.36606 8.57027 5.84818 24
127 1 -2.42471 5.07739 2.9652 28
128 1 -2.452 2.29988 4.53319 27
129 2 -0.322492 4.05564 4.60603 25
130 3 -3.60224 4.2011 4.57106 22
131 3 -1.24651 0.550267 4.51835 26
132 3 -1.00278 3.48652 3.22142 24
133 1 -2.31805 4.99414 6.01824 28
134 3 -1.05157 3.34956 5.85798 23
141 1 0.152908 -0.0844042 12.0474 29
142 1 -0.138294 2.8051 7.50696 28
143 2 -2.74993 0.954223 7.43812 25
144 3 -1.2068 0.762336 7.55883 23
145 3 -3.77542 4.49763 7.50498 25
146 3 -3.39986 1.60522 6.15449 24
147 1 0.0175486 -0.154613 8.99226 27
148 3 -3.45104 1.65888 8.7529 23
149 1 -4.87122 7.30678 10.4849 28
150 2 -2.14136 9.21208 10.525 25
151 3 -3.72375 9.32697 10.6464 22
152 3 -1.09799 5.56124 10.4611 25
153 3 -1.49111 8.45955 9.29084 23
154 3 -1.32475 8.54883 11.7652 24
155 1 -2.4254 4.97848 8.97749 28
156 1 -2.53057 2.11241 10.5414 25
157 2 -0.420216 4.05534 10.5161 25
158 3 -3.63542 3.9873 10.56 22
159 3 -1.27143 0.463303 10.5949 25
160 3 -1.0578 3.42565 9.22078 24
161 1 -2.46502 5.15507 12.0382 28
162 3 -1.0719 3.43017 11.7564 24
163 1 -2.3833 7.77452 7.56311 29
164 2 -4.476 5.95911 7.48528 25
165 3 -1.24452 5.93161 7.5406 23
166 3 -3.42163 9.61128 7.69165 25
167 3 -3.82847 6.76712 6.27265 24
168 3 -3.83374 6.63152 8.75789 24
365 1 4.78371 -0.00471549 6.04122 28
371 1 4.87758 0.00629656 3.04639 28
373 1 0.0088964 7.33392 4.53378 28
374 2 2.75129 9.12813 4.56417 25
375 3 1.16755 9.25893 4.55724 22
376 3 3.75305 5.53997 4.50888 26
377 3 3.45234 8.45125 3.27714 24
378 3 3.46078 8.42958 5.81371 22
379 1 2.29982 4.97869 2.97234 29
380 1 2.36869 2.27973 4.47553 27
381 2 4.44885 4.10446 4.51454 25
382 3 1.21257 4.12937 4.55088 23
383 3 3.42269 0.425759 4.45169 25
384 3 3.75498 3.41464 3.26592 24
385 1 2.33469 4.98387 5.95177 28
386 3 3.83061 3.30475 5.75562 24
393 1 4.83727 0.0460382 12.0287 29
394 1 4.64316 2.8965 7.49167 28
395 2 2.08604 0.952952 7.51005 25
396 3 3.61816 0.912865 7.501 23
397 3 0.98447 4.69352 7.43413 24
398 3 1.42416 1.63522 6.21579 24
399 1 4.84508 -0.00842119 8.92359 28
400 3 1.43043 1.63895 8.78496 24
401 1 0.0495685 7.37122 10.4733 27
402 2 2.77319 9.22659 10.5653 25
403 3 1.17115 9.45467 10.3752 23
404 3 3.76608 5.5716 10.6111 24
405 3 3.464 8.61825 9.29092 24
406 3 3.37243 8.55133 11.8249 24
407 1 2.41052 5.21912 8.96258 29
408 1 2.31029 2.38735 10.4934 27
409 2 4.47803 4.16112 10.553 25
410 3 1.17978 4.17245 10.5159 22
411 3 3.44908 0.551216 10.4141 25
412 3 3.7848 3.62105 9.23368 24
413 1 2.30417 4.98443 11.9841 28
414 3 3.87147 3.46273 11.8035 24
415 1 2.50266 7.93191 7.4597 28
416 2 0.316722 6.12718 7.50183 25
417 3 3.54234 5.951 7.4516 22
418 3 1.41666 9.71881 7.33261 25
419 3 0.960065 6.82067 6.22017 23
420 3 1.03541 6.7535 8.77628 24
617 1 9.69971 -0.15716 5.98828 28
623 1 9.70992 -0.0544247 2.97091 29
625 1 4.87723 7.29329 4.61114 27
626 2 7.62275 9.30335 4.50072 25
627 3 6.0106 9.30808 4.50971 22
628 3 8.66939 5.64614 4.53205 25
629 3 8.23445 8.57951 3.23811 24
630 3 8.24338 8.60243 5.80857 24
631 1 7.32774 5.15673 3.09377 28
632 1 7.20005 2.29599 4.50747 28
633 2 9.37912 4.17193 4.51185 25
634 3 6.03065 4.24742 4.53114 22
635 3 8.34006 0.483428 4.41856 25
636 3 8.63153 3.44723 3.30995 23
637 1 7.28183 4.97733 6.02268 28
638 3 8.64328 3.50701 5.81046 24
645 1 9.81031 -0.146642 12.1622 28
646 1 9.44551 2.7681 7.52162 26
647 2 6.93852 0.921558 7.52564 25
648 3 8.50031 0.865438 7.42773 22
649 3 5.82872 4.58978 7.58083 25
650 3 6.29133 1.53749 6.23725 24
651 1 9.68847 0.0333846 9.02355 29
652 3 6.21105 1.66141 8.78961 24
653 1 4.94114 7.39543 10.472 27
654 2 7.56215 9.12614 10.5548 25
655 3 6.04121 9.29034 10.5102 23
656 3 8.58961 5.48744 10.6514 25
657 3 8.30678 8.49572 9.28235 24
658 3 8.28511 8.48504 11.8031 24
659 1 7.19494 5.03449 9.09468 28
660 1 7.13623 2.21352 10.5124 27
661 2 9.34679 3.95721 10.6068 25
662 3 6.08365 4.09516 10.5064 22
663 3 8.33382 0.456051 10.4416 25
664 3 8.63104 3.35611 9.31568 24
665 1 7.25446 5.09783 12.1 28
666 3 8.64818 3.33887 11.9065 24
667 1 7.3936 7.87277 7.46172 28
668 2 5.1103 6.09534 7.48436 25
669 3 8.44791 5.89577 7.48857 22
670 3 6.17919 9.64828 7.54069 26
671 3 5.82734 6.71724 6.21958 24
672 3 5.78452 6.72526 8.80649 24
197 1 0.0290648 10.1897 5.94459 27
203 1 0.0463212 10.1651 3.0041 28
205 1 -4.72811 17.5137 4.47929 28
206 2 -2.12896 19.3632 4.54944 25
207 3 -3.67609 19.4246 4.50096 22
208 3 -0.966027 15.8577 4.56193 25
209 3 -1.33086 18.7984 3.253 24
210 3 -1.47662 18.7327 5.82534 24
211 1 -2.35098 15.2825 2.95708 27
212 1 -2.47634 12.4688 4.61003 28
213 2 -0.269347 14.376 4.58209 25
214 3 -3.52811 14.4599 4.47792 22
215 3 -1.43494 10.6881 4.42434 24
216 3 -0.99139 13.6994 3.29673 23
217 1 -2.44545 15.3206 5.94379 27
218 3 -0.977422 13.6937 5.79623 24
225 1 -0.0274481 10.3589 12.0605 28
226 1 -0.111623 12.9961 7.53734 26
227 2 -2.78008 11.1052 7.58705 25
228 3 -1.21954 11.1029 7.52369 22
229 3 -3.76314 14.8424 7.5227 25
230 3 -3.46187 11.7711 6.2811 24
231 1 0.0289387 10.2134 8.91914 27
232 3 -3.44376 11.8398 8.78635 24
233 1 -4.86347 17.7478 10.4644 29
234 2 -2.09521 19.3427 10.4994 25
235 3 -3.65421 19.5304 10.4338 22
236 3 -0.979736 15.8277 10.4001 25
237 3 -1.2951 18.731 9.22603 23
238 3 -1.40878 18.8244 11.8224 24
239 1 -2.38326 15.2885 8.98198 28
240 1 -2.46569 12.4536 10.5168 28
241 2 -0.297553 14.3423 10.4525 25
242 3 -3.5497 14.444 10.4409 22
243 3 -1.4367 10.6621 10.5091 24
244 3 -0.978175 13.5698 9.25136 23
245 1 -2.40131 15.4368 11.909 27
246 3 -1.0807 13.7503 11.7864 24
247 1 -2.35235 18.0935 7.47259 29
248 2 -4.54235 16.3399 7.49024 25
249 3 -1.23449 16.2255 7.48701 22
250 3 -3.58147 19.8979 7.43964 25
251 3 -3.78541 16.9941 6.28292 23
252 3 -3.90395 16.9833 8.79128 24
449 1 4.82057 10.0527 6.07546 28
455 1 4.82753 10.143 3.06142 28
457 1 0.130436 17.6481 4.54795 28
458 2 2.73038 19.3229 4.32458 25
459 3 1.23336 19.4177 4.48189 24
460 3 3.86683 15.7118 4.49698 25
461 3 3.48676 18.6339 3.13677 23
462 3 3.44295 18.7428 5.70937 24
463 1 2.44922 15.238 3.05474 28
464 1 2.50255 12.5202 4.50041 26
465 2 4.6008 14.2896 4.61171 25
466 3 1.28023 14.4173 4.56471 22
467 3 3.45921 10.5554 4.52041 24
468 3 3.85305 13.5484 3.31339 24
469 1 2.50603 15.2243 6.04138 28
470 3 3.85142 13.6212 5.83902 23
477 1 4.82544 10.1798 12.0779 28
478 1 4.81502 12.9253 7.56674 28
479 2 2.03188 11.1797 7.48998 25
480 3 3.67207 11.0642 7.43311 22
481 3 1.056 14.8148 7.42546 25
482 3 1.44969 11.9055 6.179 23
483 1 4.86511 10.2526 9.11467 28
484 3 1.43458 11.9331 8.68937 24
485 1 0.145712 17.5718 10.5101 28
486 2 2.73599 19.306 10.4969 25
487 3 1.2453 19.4789 10.5291 23
488 3 3.8686 15.7914 10.412 24
489 3 3.47258 18.6229 9.1625 24
490 3 3.35331 18.6015 11.7646 23
491 1 2.44932 15.475 9.09492 27
492 1 2.36821 12.4433 10.5813 28
493 2 4.53683 14.3558 10.4984 25
494 3 1.30411 14.4114 10.422 22
495 3 3.52442 10.7037 10.5092 26
496 3 3.89322 13.581 9.31067 23
497 1 2.51274 15.2708 11.9272 29
498 3 3.87102 13.671 11.7783 24
499 1 2.53602 18.1372 7.35822 28
500 2 0.317983 16.3038 7.46841 25
501 3 3.66393 16.2014 7.48368 22
502 3 1.38165 19.9315 7.5081 25
503 3 0.985589 17.0564 6.24251 24
504 3 1.06349 16.8998 8.76422 24
701 1 9.69577 10.1693 6.0689 28
707 1 9.59832 10.3051 3.03847 28
709 1 4.97079 17.5778 4.46426 29
710 2 7.62129 19.3825 4.40733 25
711 3 5.99368 19.4985 4.37945 22
712 3 8.71519 15.7786 4.43691 26
713 3 8.30536 18.6888 3.18744 24
714 3 8.27122 18.6613 5.65657 24
715 1 7.29081 15.3559 2.91793 29
716 1 7.20589 12.5832 4.53241 29
717 2 9.43662 14.2795 4.49009 25
718 3 6.1606 14.4329 4.49577 22
719 3 8.32254 10.7731 4.57628 25
720 3 8.74709 13.6098 3.23303 24
721 1 7.29239 15.3378 5.98 28
722 3 8.73807 13.7163 5.80844 24
729 1 9.71629 10.2036 12.079 28
730 1 9.66938 13.0225 7.53168 28
731 2 6.91226 11.1836 7.50257 25
732 3 8.47822 11.0436 7.52222 22
733 3 5.89045 14.7948 7.52612 25
734 3 6.22769 11.7766 6.19624 24
735 1 9.63882 10.266 9.08142 29
736 3 6.28018 11.8004 8.80823 24
737 1 4.85502 17.601 10.4597 27
738 2 7.5239 19.452 10.4552 25
739 3 5.94443 19.4687 10.5035 22
740 3 8.63411 15.8401 10.4429 25
741 3 8.25333 18.7766 9.14582 24
742 3 8.25069 18.7582 11.6985 24
743 1 7.28042 15.3366 9.01287 28
744 1 7.3852 12.4526 10.5358 26
745 2 9.40526 14.3823 10.5393 25
746 3 6.08413 14.3881 10.4746 23
747 3 8.2886 10.6284 10.5516 24
748 3 8.74837 13.6394 9.22925 24
749 1 7.10022 15.1633 12.0787 28
750 3 8.71998 13.6967 11.8169 24
751 1 7.38534 18.0733 7.3768 28
752 2 5.26084 16.2655 7.54268 25
753 3 8.43943 16.1944 7.36817 22
754 3 6.19875 19.8067 7.45648 26
755 3 5.88018 16.912 6.15746 24
756 3 6.00101 16.9706 8.73437 23
