ITEM: TIMESTEP
5500
ITEM: NUMBER OF ATOMS
756
ITEM: BOX BOUNDS pp pp pp
-4.8435403184 9.6870806369
-10.1864092633 20.3728185265
-6.0013959751 12.0027919502
ITEM: ATOMS id type x y z Coordination
1 1 -0.138928 -10.1425 -0.0543722 29
2 1 -0.111631 -7.42296 -4.43201 28
3 2 -2.80569 -9.10093 -4.48317 25
4 3 -1.23896 -9.2122 -4.48032 22
5 3 -3.78746 -5.58662 -4.40057 24
6 3 -3.53932 -8.40005 -5.75825 23
7 1 -0.0457039 -10.2217 -3.04724 28
8 3 -3.49636 -8.50378 -3.1676 24
9 1 -4.80358 -2.84159 -1.39886 27
10 2 -2.19054 -0.962419 -1.54187 25
11 3 -3.71641 -0.98643 -1.52171 22
12 3 -1.07243 -4.55855 -1.51818 24
13 3 -1.44524 -1.67576 -2.7794 24
14 3 -1.40482 -1.6344 -0.292279 24
15 1 -2.42586 -5.01456 -2.94494 29
16 1 -2.41718 -7.95407 -1.43411 27
17 2 -0.409856 -6.01267 -1.48698 25
18 3 -3.60744 -5.93511 -1.46801 22
19 3 -1.45418 -9.69998 -1.60811 25
20 3 -1.08064 -6.75467 -2.72681 24
21 1 -2.38068 -4.98506 0.0109596 29
22 3 -1.03769 -6.70339 -0.136732 24
23 1 -2.25631 -2.28119 -4.6756 27
24 2 -4.48212 -4.05299 -4.40699 25
25 3 -1.28639 -4.13665 -4.50976 22
26 3 -3.52259 -0.51239 -4.4958 25
27 3 -3.83818 -3.48106 -5.75219 24
28 3 -3.91708 -3.37853 -3.10928 24
30 1 0.011267 -7.28496 1.55307 26
31 2 -2.81589 -9.21881 1.52138 25
32 3 -1.2929 -9.32119 1.47583 24
33 3 -3.7892 -5.57389 1.64546 24
34 3 -3.44504 -8.52948 0.219007 24
36 3 -3.55814 -8.5926 2.80841 23
51 1 -2.34827 -2.27839 1.51707 27
52 2 -4.44533 -4.12222 1.62479 25
53 3 -1.22668 -4.1732 1.52651 24
54 3 -3.47495 -0.542102 1.46023 25
55 3 -3.85029 -3.45517 0.324747 24
56 3 -3.72876 -3.43807 2.89242 23
253 1 4.79836 -10.1521 0.0100507 28
254 1 4.75485 -7.35855 -4.54603 28
255 2 2.06917 -9.25472 -4.44313 25
256 3 3.60294 -9.33373 -4.52059 22
257 3 0.989752 -5.58997 -4.51956 25
258 3 1.43159 -8.50989 -5.72064 24
259 1 4.77517 -10.1934 -2.92826 28
260 3 1.41137 -8.5139 -3.1548 24
261 1 0.0811175 -2.84903 -1.43988 27
262 2 2.71342 -0.878657 -1.39432 25
263 3 1.17052 -0.887874 -1.44308 22
264 3 3.75851 -4.51426 -1.50708 25
265 3 3.42971 -1.56574 -2.69318 24
266 3 3.44351 -1.56967 -0.160411 24
267 1 2.37961 -5.11023 -3.03602 29
268 1 2.3541 -7.90578 -1.45255 28
269 2 4.50262 -6.00623 -1.56279 25
270 3 1.13794 -6.01228 -1.54836 24
271 3 3.39145 -9.74018 -1.52823 24
272 3 3.75299 -6.68114 -2.82777 24
273 1 2.35622 -5.0506 -0.0186479 29
274 3 3.78326 -6.69028 -0.266969 24
275 1 2.57072 -2.29328 -4.44755 28
276 2 0.327448 -4.16516 -4.4616 25
277 3 3.56796 -4.11085 -4.49383 22
278 3 1.38261 -0.549597 -4.46207 25
279 3 0.925848 -3.52953 -5.80781 24
280 3 1.00745 -3.48682 -3.20044 24
282 1 4.75871 -7.3244 1.43822 27
283 2 2.05204 -9.24003 1.48092 25
284 3 3.61118 -9.1727 1.45512 22
285 3 1.05908 -5.53449 1.49467 25
286 3 1.35431 -8.53244 0.215804 24
288 3 1.31357 -8.56151 2.7412 24
303 1 2.51097 -2.18479 1.53618 27
304 2 0.353013 -4.07095 1.5535 25
305 3 3.60043 -4.17456 1.5276 22
306 3 1.38253 -0.539613 1.53003 26
307 3 1.05132 -3.43551 0.269494 24
308 3 1.03643 -3.4661 2.80799 24
505 1 9.64831 -10.2672 0.0355047 29
506 1 9.64592 -7.3446 -4.49601 26
507 2 6.88595 -9.18914 -4.46147 25
508 3 8.43781 -9.24471 -4.4577 22
509 3 5.88647 -5.56333 -4.46288 24
510 3 6.23934 -8.52798 -5.76044 24
511 1 9.65955 -10.0442 -2.93833 27
512 3 6.11727 -8.57983 -3.23725 24
513 1 4.82196 -2.78122 -1.44684 27
514 2 7.55032 -0.949752 -1.49453 25
515 3 6.00855 -0.800198 -1.4533 23
516 3 8.6714 -4.58627 -1.46952 24
517 3 8.12558 -1.65651 -2.79301 23
518 3 8.23783 -1.61804 -0.239383 24
519 1 7.23671 -4.91051 -2.85465 27
520 1 7.12005 -7.92699 -1.4466 26
521 2 9.37041 -6.03803 -1.44572 25
522 3 5.9784 -5.94237 -1.53752 23
523 3 8.23253 -9.6437 -1.40072 25
524 3 8.65958 -6.71241 -2.74468 24
525 1 7.2762 -4.98608 -0.0026032 28
526 3 8.67308 -6.70293 -0.157112 24
527 1 7.31386 -2.29895 -4.49185 27
528 2 5.19871 -4.01894 -4.52549 25
529 3 8.42002 -4.07327 -4.48757 22
530 3 6.1786 -0.537064 -4.56409 25
531 3 5.9372 -3.40667 -5.81848 24
532 3 5.83981 -3.36577 -3.19223 24
534 1 9.65027 -7.28643 1.46769 26
535 2 6.88923 -9.19048 1.52563 25
536 3 8.45368 -9.26832 1.4869 22
537 3 5.92053 -5.55037 1.58128 25
538 3 6.15896 -8.49534 0.300047 24
540 3 6.19408 -8.62578 2.80308 24
555 1 7.25919 -2.27102 1.51485 27
556 2 5.16721 -4.06672 1.56246 25
557 3 8.51708 -4.25256 1.59384 22
558 3 6.2941 -0.449301 1.51261 24
559 3 5.87293 -3.47666 0.219989 24
560 3 5.83839 -3.44862 2.80702 24
85 1 -0.0685117 0.0345446 -0.00661912 28
86 1 -0.100401 2.77764 -4.50425 28
87 2 -2.76742 0.921214 -4.39939 25
88 3 -1.20855 0.832909 -4.44859 23
89 3 -3.84521 4.61113 -4.49983 25
90 3 -3.34456 1.65984 -5.73102 23
91 1 -0.0215196 -0.0283983 -2.9876 28
92 3 -3.50271 1.58408 -3.17516 24
93 1 -4.67809 7.32173 -1.61699 27
94 2 -2.06211 9.19198 -1.45051 25
95 3 -3.66125 9.20746 -1.54311 22
96 3 -1.04723 5.59919 -1.41416 25
97 3 -1.28335 8.47186 -2.66572 23
98 3 -1.41821 8.54878 -0.137555 24
99 1 -2.38811 5.21799 -2.95354 28
100 1 -2.57994 2.27327 -1.54145 27
101 2 -0.365978 4.12059 -1.51673 25
102 3 -3.58109 4.05729 -1.49058 22
103 3 -1.46647 0.510599 -1.63095 25
104 3 -1.04286 3.53833 -2.86083 24
105 1 -2.42233 5.00592 0.0686272 27
106 3 -0.985827 3.41237 -0.208602 24
107 1 -2.25881 7.83296 -4.57664 28
108 2 -4.52738 6.08815 -4.58706 25
109 3 -1.17564 6.01747 -4.47604 22
110 3 -3.36813 9.61179 -4.67456 25
111 3 -3.70591 6.71998 -5.81077 23
112 3 -3.84057 6.68345 -3.29021 23
114 1 0.0629093 2.84589 1.43108 25
115 2 -2.73209 0.954908 1.45747 25
116 3 -1.19272 0.895002 1.51511 22
117 3 -3.80654 4.58221 1.52488 25
118 3 -3.37138 1.65341 0.214677 23
120 3 -3.46208 1.63787 2.74205 24
135 1 -2.3051 7.81005 1.48398 29
136 2 -4.52505 6.13131 1.51728 25
137 3 -1.19616 6.06974 1.56968 22
138 3 -3.40381 9.70022 1.58943 25
139 3 -3.73664 6.7516 0.252061 24
140 3 -3.74683 6.77264 2.81779 24
337 1 4.88645 0.0477972 0.0639239 28
338 1 4.85354 2.78714 -4.50088 26
339 2 2.08361 0.951174 -4.52763 25
340 3 3.63079 0.860197 -4.47329 22
341 3 1.09054 4.54577 -4.4721 25
342 3 1.39077 1.6363 -5.80756 24
343 1 4.8495 -0.107252 -3.07039 27
344 3 1.41023 1.62517 -3.30681 24
345 1 0.090061 7.36141 -1.45016 27
346 2 2.78153 9.14984 -1.48143 25
347 3 1.20969 9.22927 -1.38493 22
348 3 3.82092 5.59524 -1.48638 25
349 3 3.45525 8.58196 -2.79138 24
350 3 3.45974 8.44028 -0.243836 24
351 1 2.50263 5.05311 -2.99781 29
352 1 2.27148 2.27625 -1.41213 27
353 2 4.47537 4.12186 -1.47113 25
354 3 1.17004 4.12997 -1.4754 22
355 3 3.37561 0.617182 -1.45504 24
356 3 3.82626 3.50077 -2.81455 24
357 1 2.44426 5.1037 0.0480294 28
358 3 3.78587 3.43442 -0.223888 23
359 1 2.45566 7.93889 -4.52519 26
360 2 0.392234 6.02026 -4.49649 25
361 3 3.74552 6.00154 -4.46825 23
362 3 1.36729 9.76173 -4.46483 24
363 3 1.10021 6.74641 -5.69444 23
364 3 1.00361 6.63656 -3.18709 24
366 1 4.85526 2.86904 1.5845 26
367 2 2.03496 0.964701 1.51679 25
368 3 3.63888 1.00076 1.59169 22
369 3 1.11212 4.59774 1.56935 26
370 3 1.34999 1.62238 0.252665 24
372 3 1.34927 1.5736 2.78357 24
387 1 2.47549 7.8488 1.49377 28
388 2 0.372866 6.07088 1.55828 25
389 3 3.65556 5.98833 1.46636 23
390 3 1.48954 9.72868 1.64275 25
391 3 0.993177 6.66545 0.164763 24
392 3 1.07137 6.7492 2.79747 24
589 1 9.65063 0.184588 0.024991 27
590 1 9.60072 2.7568 -4.46078 28
591 2 6.8909 0.925206 -4.57846 25
592 3 8.48182 0.860898 -4.51249 22
593 3 5.95949 4.50956 -4.50434 26
594 3 6.15674 1.57653 -5.85561 24
595 1 9.55331 -0.141262 -3.12853 28
596 3 6.27329 1.60164 -3.30451 24
597 1 4.91512 7.38655 -1.464 26
598 2 7.62259 9.1346 -1.58777 25
599 3 6.04103 9.2685 -1.47426 23
600 3 8.80618 5.64466 -1.47243 25
601 3 8.36542 8.46024 -2.81527 23
602 3 8.33956 8.51787 -0.309537 24
603 1 7.31521 4.99702 -3.03867 29
604 1 7.15722 2.26614 -1.51763 29
605 2 9.38383 4.10684 -1.51756 25
606 3 6.06062 4.2042 -1.54231 23
607 3 8.31938 0.511048 -1.49457 25
608 3 8.63389 3.46694 -2.80462 24
609 1 7.24496 5.24426 -0.104463 28
610 3 8.71087 3.49477 -0.235302 24
611 1 7.50094 7.85514 -4.54267 26
612 2 5.28104 6.08841 -4.48339 25
613 3 8.45621 6.01066 -4.57833 23
614 3 6.33106 9.63777 -4.59762 25
615 3 5.972 6.72292 -5.75038 23
616 3 6.00137 6.65823 -3.15583 23
618 1 9.65599 2.90718 1.48938 27
619 2 6.9592 1.02718 1.55523 25
620 3 8.52899 0.937242 1.5657 22
621 3 5.95401 4.64883 1.43979 25
622 3 6.31547 1.71528 0.261798 23
624 3 6.24108 1.67717 2.79006 23
639 1 7.31973 7.88788 1.41614 28
640 2 5.19328 6.10211 1.45285 25
641 3 8.4988 6.08636 1.49651 22
642 3 6.24275 9.73749 1.5219 24
643 3 5.90965 6.80233 0.207795 23
644 3 5.91872 6.79336 2.70517 24
169 1 0.0288845 10.0376 0.0659864 27
170 1 0.0293885 13.0098 -4.51334 27
171 2 -2.76989 11.1804 -4.57014 25
172 3 -1.2174 11.1191 -4.54076 22
173 3 -3.86502 14.8371 -4.58566 24
174 3 -3.47515 11.9271 -5.73241 23
175 1 0.0254081 10.2438 -3.05997 28
176 3 -3.42202 11.7298 -3.19083 24
177 1 -4.75249 17.6309 -1.58377 29
178 2 -2.15613 19.431 -1.54052 25
179 3 -3.68879 19.5062 -1.52094 23
180 3 -0.989844 15.7661 -1.61751 25
181 3 -1.47503 18.693 -2.79313 24
182 3 -1.41884 18.7646 -0.293128 24
183 1 -2.4601 15.3908 -3.07135 29
184 1 -2.42848 12.4933 -1.46787 27
185 2 -0.319519 14.2748 -1.50101 25
186 3 -3.60719 14.3954 -1.44616 23
187 3 -1.36385 10.6312 -1.48896 24
188 3 -1.01422 13.535 -2.77155 22
189 1 -2.43084 15.4814 -0.135389 28
190 3 -1.01632 13.644 -0.201422 24
191 1 -2.29951 18.1376 -4.47509 28
192 2 -4.51805 16.3195 -4.55673 25
193 3 -1.14926 16.1868 -4.54473 22
194 3 -3.47504 19.9842 -4.50951 26
195 3 -3.8466 16.8939 -5.83727 24
196 3 -3.79675 16.9007 -3.26593 24
198 1 -0.0458945 12.9978 1.47467 27
199 2 -2.69544 11.1535 1.47407 25
200 3 -1.12061 11.1697 1.43946 22
201 3 -3.90367 14.8499 1.50089 24
202 3 -3.46089 11.709 0.14872 24
204 3 -3.42366 11.8566 2.74616 24
219 1 -2.3431 18.0988 1.43507 25
220 2 -4.53141 16.315 1.49731 25
221 3 -1.23424 16.2719 1.47691 23
222 3 -3.58564 19.8609 1.50457 25
223 3 -3.77246 17.0087 0.18565 23
224 3 -3.81345 16.9689 2.79649 24
421 1 4.95424 10.1541 -0.062189 28
422 1 4.83377 12.9489 -4.50994 27
423 2 2.09688 11.1793 -4.47226 25
424 3 3.66094 11.0948 -4.4586 23
425 3 1.1526 14.7395 -4.59263 25
426 3 1.46609 11.8646 -5.75454 24
427 1 4.92001 10.1062 -3.05549 28
428 3 1.3894 11.8639 -3.24478 23
429 1 0.0492307 17.5791 -1.50677 29
430 2 2.68905 19.4134 -1.48689 25
431 3 1.13884 19.4529 -1.47275 22
432 3 3.72043 15.807 -1.44824 25
433 3 3.39722 18.6596 -2.75659 24
434 3 3.35565 18.761 -0.197423 24
435 1 2.51747 15.2479 -3.02775 29
436 1 2.45802 12.5461 -1.41173 28
437 2 4.49992 14.3222 -1.47396 25
438 3 1.21745 14.3534 -1.55471 22
439 3 3.53472 10.698 -1.40947 24
440 3 3.85775 13.6433 -2.81117 24
441 1 2.38407 15.2553 0.119748 28
442 3 3.8451 13.6563 -0.199251 24
443 1 2.39396 18.1153 -4.49028 26
444 2 0.410619 16.2082 -4.57247 25
445 3 3.65427 16.1397 -4.50216 23
446 3 1.34372 19.8703 -4.42864 25
447 3 1.07836 16.9304 -5.86009 24
448 3 1.05679 16.9652 -3.33714 22
450 1 4.78579 13.0787 1.55999 26
451 2 2.18785 11.2317 1.52165 25
452 3 3.70664 11.1491 1.48867 22
453 3 1.00579 14.8289 1.51905 25
454 3 1.52667 11.8774 0.283508 23
456 3 1.43353 11.9521 2.78988 23
471 1 2.48748 18.1485 1.42556 28
472 2 0.294427 16.3324 1.53106 25
473 3 3.59365 16.2732 1.53952 22
474 3 1.30739 19.8644 1.44894 25
475 3 0.982692 16.9366 0.221615 24
476 3 0.969952 16.9318 2.82372 24
673 1 9.66086 10.0407 -0.00262424 29
674 1 9.71536 12.9328 -4.56813 28
675 2 7.01617 11.1654 -4.62098 25
676 3 8.57393 11.0583 -4.63378 22
677 3 5.83619 14.7598 -4.55876 24
678 3 6.29586 11.7204 -5.90615 24
679 1 9.71143 10.0936 -3.03951 28
680 3 6.32377 11.8817 -3.39692 23
681 1 4.88531 17.639 -1.46947 29
682 2 7.48313 19.4379 -1.43179 25
683 3 5.91668 19.5236 -1.43339 22
684 3 8.64006 15.7407 -1.53002 25
685 3 8.21075 18.8038 -2.71199 24
686 3 8.24076 18.7995 -0.21119 24
687 1 7.27721 15.248 -3.03008 28
688 1 7.27615 12.4725 -1.57075 26
689 2 9.37406 14.3012 -1.50756 25
690 3 6.04063 14.3542 -1.50876 23
691 3 8.30009 10.6833 -1.67243 25
692 3 8.70655 13.6639 -2.77693 24
693 1 7.27771 15.2891 -0.0937908 29
694 3 8.64516 13.619 -0.231753 23
695 1 7.30232 18.0977 -4.43916 28
696 2 5.17475 16.3078 -4.59269 25
697 3 8.42046 16.1878 -4.4751 23
698 3 6.1888 19.8416 -4.52454 26
699 3 5.86663 16.9449 -5.83501 24
700 3 5.84626 16.9702 -3.28781 24
702 1 9.59412 13.056 1.48515 27
703 2 6.97233 11.2193 1.45446 25
704 3 8.51663 11.098 1.45969 23
705 3 5.81449 14.8627 1.41632 24
706 3 6.38919 11.851 0.16119 24
708 3 6.21773 11.8471 2.76358 24
723 1 7.31989 18.1034 1.49985 27
724 2 5.15223 16.2735 1.45141 25
725 3 8.47644 16.2075 1.44449 23
726 3 6.20478 19.8695 1.48937 26
727 3 5.90008 17.001 0.174984 24
728 3 5.90963 16.9892 2.75965 24
29 1 0.00776644 -10.1198 5.97876 27
35 1 -0.0358832 -10.2789 2.94847 28
37 1 -4.82719 -2.90212 4.50142 28
38 2 -2.08568 -1.02745 4.5374 25
39 3 -3.72104 -0.896388 4.46961 22
40 3 -0.978859 -4.6286 4.47378 24
41 3 -1.33641 -1.63058 3.30781 24
42 3 -1.40222 -1.69946 5.75803 24
43 1 -2.37962 -5.15677 3.00439 28
44 1 -2.43599 -8.02547 4.55953 26
45 2 -0.305432 -6.11027 4.46063 25
46 3 -3.56625 -6.06075 4.57488 22
47 3 -1.43766 -9.77096 4.48631 24
48 3 -1.00861 -6.80442 3.25072 24
49 1 -2.45027 -5.06584 5.98592 27
50 3 -0.951584 -6.71016 5.80625 24
57 1 -0.0617076 -10.1292 12.0192 28
58 1 -0.0901842 -7.35091 7.49941 27
59 2 -2.78791 -9.15168 7.52786 25
60 3 -1.1737 -9.20226 7.53958 22
61 3 -3.79865 -5.63597 7.5631 24
62 3 -3.41523 -8.49186 6.23379 24
63 1 -0.0386929 -10.2264 8.98669 28
64 3 -3.48422 -8.52806 8.84449 24
65 1 -4.88362 -2.86808 10.6355 27
66 2 -2.077 -1.02757 10.486 25
67 3 -3.65068 -0.916802 10.5202 22
68 3 -1.07487 -4.64612 10.472 26
69 3 -1.39799 -1.64759 9.19227 24
70 3 -1.38021 -1.72029 11.7152 24
71 1 -2.39805 -5.10133 8.98386 28
72 1 -2.48562 -7.9768 10.6371 28
73 2 -0.310142 -6.1235 10.5755 25
74 3 -3.66201 -6.01717 10.4988 23
75 3 -1.40782 -9.80204 10.5483 24
76 3 -0.982676 -6.79253 9.32061 23
77 1 -2.43347 -5.2271 12.1321 28
78 3 -1.05211 -6.73552 11.8615 24
79 1 -2.37946 -2.31183 7.56581 27
80 2 -4.501 -4.11628 7.48666 25
81 3 -1.27075 -4.13538 7.49292 22
82 3 -3.45497 -0.515304 7.36295 25
83 3 -3.83822 -3.50351 6.20594 24
84 3 -3.77555 -3.49391 8.79001 24
281 1 4.67334 -10.0934 6.01673 29
287 1 4.82169 -10.1507 3.0639 29
289 1 0.160107 -2.81295 4.53918 29
290 2 2.7268 -0.942253 4.52392 25
291 3 1.16926 -0.815952 4.57392 22
292 3 3.80434 -4.53512 4.51031 24
293 3 3.4532 -1.5923 3.23929 24
294 3 3.43801 -1.56241 5.86 24
295 1 2.33495 -5.07887 3.04811 29
296 1 2.32692 -7.90281 4.4926 27
297 2 4.50086 -6.07535 4.51649 25
298 3 1.2743 -6.07857 4.465 22
299 3 3.50241 -9.62475 4.52943 25
300 3 3.86992 -6.74562 3.23578 24
301 1 2.42292 -5.01742 5.99344 28
302 3 3.80493 -6.7315 5.78135 24
309 1 4.85214 -10.2431 12.0004 28
310 1 4.85524 -7.3512 7.58614 26
311 2 2.0571 -9.15299 7.48569 25
312 3 3.63177 -9.20405 7.54111 22
313 3 1.05226 -5.64149 7.51031 25
314 3 1.3862 -8.56278 6.16787 24
315 1 4.7479 -9.97669 9.09314 27
316 3 1.37945 -8.5584 8.77093 24
317 1 0.043898 -2.79028 10.5687 29
318 2 2.73661 -1.05699 10.585 25
319 3 1.19373 -0.983855 10.559 23
320 3 3.79854 -4.57409 10.4339 25
321 3 3.41594 -1.68795 9.30068 23
322 3 3.44063 -1.74659 11.8776 24
323 1 2.33023 -5.22147 8.93089 28
324 1 2.30382 -7.91859 10.575 28
325 2 4.48139 -6.05223 10.5383 25
326 3 1.26352 -6.05418 10.567 22
327 3 3.43344 -9.73098 10.5589 25
328 3 3.78903 -6.80272 9.26843 24
329 1 2.35418 -5.01709 11.9822 28
330 3 3.84175 -6.67209 11.8462 24
331 1 2.55019 -2.31826 7.59876 28
332 2 0.333927 -4.08767 7.51264 25
333 3 3.56251 -4.21446 7.49964 22
334 3 1.3092 -0.581663 7.50305 26
335 3 1.06095 -3.44043 6.24053 24
336 3 1.0568 -3.51891 8.79036 24
533 1 9.66391 -10.1375 5.94969 28
539 1 9.69441 -10.3173 2.97912 29
541 1 4.93101 -2.79123 4.61742 28
542 2 7.60122 -1.07799 4.60638 25
543 3 6.03881 -0.893075 4.62303 23
544 3 8.69663 -4.63597 4.51858 24
545 3 8.21893 -1.78106 3.31531 22
546 3 8.29902 -1.6802 5.85892 24
547 1 7.33337 -5.11438 3.08489 28
548 1 7.03419 -7.93431 4.55104 28
549 2 9.41659 -6.25492 4.55281 25
550 3 6.04842 -6.00892 4.60936 22
551 3 8.23342 -9.70841 4.56041 24
552 3 8.62724 -6.80182 3.28943 23
553 1 7.29206 -5.15964 6.04141 28
554 3 8.67315 -6.73631 5.88185 24
561 1 9.63307 -10.2512 12.0762 29
562 1 9.67461 -7.31116 7.51325 26
563 2 6.92485 -9.23872 7.52719 25
564 3 8.46875 -9.30391 7.56861 22
565 3 5.80177 -5.59052 7.4929 25
566 3 6.21748 -8.57966 6.20175 24
567 1 9.69484 -10.1617 8.94273 28
568 3 6.25166 -8.52551 8.79096 24
569 1 4.85052 -2.85458 10.5272 28
570 2 7.58288 -1.03802 10.4901 25
571 3 6.02287 -0.92759 10.4998 22
572 3 8.64035 -4.608 10.4392 25
573 3 8.33088 -1.68047 9.21115 24
574 3 8.32069 -1.67769 11.7997 24
575 1 7.24686 -5.10117 8.96469 28
576 1 7.13675 -7.93436 10.5166 27
577 2 9.29737 -6.09641 10.4334 25
578 3 6.07857 -5.9384 10.4961 22
579 3 8.25271 -9.68864 10.5616 24
580 3 8.64927 -6.74585 9.20522 24
581 1 7.30611 -5.03585 12.0011 29
582 3 8.62941 -6.73856 11.7388 23
583 1 7.20965 -2.35811 7.53068 28
584 2 5.13962 -4.16431 7.51697 25
585 3 8.45143 -4.17633 7.50589 22
586 3 6.24501 -0.488337 7.43518 25
587 3 5.80447 -3.46113 6.31451 24
588 3 5.78096 -3.45212 8.8248 24
113 1 -0.00445391 0.00470516 6.08102 28
119 1 -0.094543 0.0516026 3.04628 28
121 1 -4.79678 7.42138 4.42883 27
122 2 -2.01982 9.20304 4.57105 25
123 3 -3.56679 9.27376 4.49512 22
124 3 -1.0299 5.6354 4.52316 25
125 3 -1.32938 8.52273 3.25997 24
126 3 -1.31275 8.54688 5.76958 24
127 1 -2.44777 5.11567 3.04469 28
128 1 -2.51569 2.25665 4.50343 28
129 2 -0.315024 4.05866 4.56943 25
130 3 -3.60239 4.16308 4.54353 23
131 3 -1.42494 0.525031 4.53279 25
132 3 -1.01507 3.50691 3.20239 24
133 1 -2.42237 5.21797 5.99479 29
134 3 -1.03744 3.47617 5.79074 24
141 1 3.7369e-04 -0.0904014 12.0027 28
142 1 -0.140796 2.78231 7.55132 29
143 2 -2.71476 0.940274 7.48218 25
144 3 -1.19602 0.962337 7.49474 22
145 3 -3.79255 4.58782 7.48938 25
146 3 -3.44213 1.63064 6.2732 24
147 1 -0.00638855 -0.00703452 9.05018 28
148 3 -3.4407 1.52118 8.82853 24
149 1 -4.6182 7.39093 10.5797 28
150 2 -2.0594 9.28322 10.494 25
151 3 -3.58549 9.26686 10.3715 23
152 3 -1.05137 5.60199 10.56 26
153 3 -1.31724 8.6459 9.23092 24
154 3 -1.34434 8.56026 11.8031 23
155 1 -2.41259 5.12666 8.97239 29
156 1 -2.5281 2.18885 10.5004 27
157 2 -0.378902 4.14645 10.5105 25
158 3 -3.60073 4.03687 10.5583 22
159 3 -1.39464 0.406246 10.4997 26
160 3 -1.03639 3.50519 9.20126 24
161 1 -2.50253 4.99548 12.0323 28
162 3 -0.979647 3.43363 11.8011 24
163 1 -2.27311 8.0141 7.52958 26
164 2 -4.46517 6.06753 7.50195 25
165 3 -1.22705 5.95928 7.60083 22
166 3 -3.36097 9.74412 7.40785 24
167 3 -3.73735 6.82337 6.26963 23
168 3 -3.83147 6.75868 8.80848 23
365 1 4.88 0.0558062 5.99628 28
371 1 4.88804 0.109207 3.10926 28
373 1 0.1254 7.3832 4.50176 29
374 2 2.73358 9.20438 4.51853 25
375 3 1.18972 9.27262 4.5926 23
376 3 3.8701 5.60049 4.51968 25
377 3 3.42881 8.49465 3.2786 22
378 3 3.50145 8.54501 5.80181 24
379 1 2.44479 5.06019 3.03644 28
380 1 2.28968 2.2242 4.52946 29
381 2 4.55214 4.16848 4.52574 25
382 3 1.22973 4.14781 4.52401 22
383 3 3.39405 0.49968 4.48936 24
384 3 3.88081 3.543 3.18817 24
385 1 2.41767 4.90262 6.01697 28
386 3 3.90647 3.44471 5.7802 24
393 1 4.7688 0.0687279 11.953 29
394 1 4.82788 2.70527 7.51244 27
395 2 2.10775 0.852296 7.50939 25
396 3 3.68289 0.854349 7.50024 22
397 3 1.07121 4.53819 7.54624 26
398 3 1.45643 1.65954 6.26741 24
399 1 4.8454 -0.0948483 8.94977 28
400 3 1.37023 1.48921 8.85124 24
401 1 0.111026 7.35299 10.5248 27
402 2 2.77017 9.21809 10.5074 25
403 3 1.2129 9.35786 10.524 23
404 3 3.88935 5.56039 10.5576 24
405 3 3.50955 8.45663 9.30188 23
406 3 3.43585 8.56576 11.7827 24
407 1 2.48661 5.12164 9.05626 28
408 1 2.30907 2.21822 10.5109 28
409 2 4.57825 4.05655 10.5133 25
410 3 1.24445 4.16717 10.5459 22
411 3 3.37787 0.381232 10.5595 24
412 3 3.82457 3.38931 9.27871 24
413 1 2.55975 5.00369 12.0205 29
414 3 3.90602 3.39286 11.7867 24
415 1 2.4736 7.82972 7.52036 28
416 2 0.361712 5.99589 7.49124 25
417 3 3.6783 5.9041 7.54863 22
418 3 1.4217 9.64087 7.51369 25
419 3 1.07553 6.68058 6.25776 24
420 3 1.01025 6.72044 8.76289 24
617 1 9.69983 -0.0253207 5.9788 29
623 1 9.64597 0.001727 2.9789 28
625 1 4.96455 7.3992 4.53579 28
626 2 7.65753 9.23464 4.38057 25
627 3 6.07748 9.27492 4.47185 22
628 3 8.70962 5.60979 4.46035 25
629 3 8.37101 8.58009 3.12697 24
630 3 8.3499 8.53532 5.74979 24
631 1 7.35296 5.01574 2.9863 29
632 1 7.14797 2.26649 4.52007 28
633 2 9.40215 4.11969 4.47884 25
634 3 6.11055 4.07949 4.47484 22
635 3 8.23682 0.456218 4.52361 25
636 3 8.70704 3.50049 3.21134 23
637 1 7.27295 4.99219 5.99631 28
638 3 8.69179 3.4405 5.76252 23
645 1 9.78744 0.0340135 11.9601 28
646 1 9.59994 2.83326 7.39672 28
647 2 6.96243 1.00442 7.42121 25
648 3 8.47104 0.939716 7.44055 23
649 3 5.92872 4.51714 7.54142 26
650 3 6.19257 1.67648 6.18237 24
651 1 9.67462 -0.104707 8.90377 27
652 3 6.24526 1.60706 8.70298 24
653 1 4.9813 7.42125 10.4543 29
654 2 7.64434 9.15911 10.3715 25
655 3 6.04047 9.24273 10.4942 22
656 3 8.83765 5.58409 10.3966 25
657 3 8.33824 8.56052 9.11084 24
658 3 8.41162 8.46845 11.6816 23
659 1 7.3666 4.99934 8.8613 27
660 1 7.20083 2.25229 10.4526 29
661 2 9.37448 4.02384 10.4407 25
662 3 6.14486 4.14118 10.4763 23
663 3 8.2369 0.468046 10.4406 24
664 3 8.56911 3.3765 9.11424 23
665 1 7.30844 5.09419 11.9087 28
666 3 8.62711 3.39493 11.7272 23
667 1 7.46909 7.87241 7.43686 28
668 2 5.21639 5.9784 7.54143 25
669 3 8.5253 5.99377 7.49019 24
670 3 6.31395 9.73249 7.47538 26
671 3 5.93782 6.58396 6.20184 24
672 3 5.92249 6.69871 8.74831 24
197 1 0.0232501 10.1474 6.03373 28
203 1 0.0576681 10.2429 3.01628 28
205 1 -4.83802 17.5806 4.58158 27
206 2 -2.17426 19.3376 4.50969 25
207 3 -3.73701 19.4753 4.50998 22
208 3 -1.05678 15.8416 4.48178 25
209 3 -1.46655 18.6966 3.23592 24
210 3 -1.4319 18.7116 5.82895 24
211 1 -2.5197 15.1765 2.9182 28
212 1 -2.47151 12.4771 4.45081 28
213 2 -0.378456 14.328 4.43641 25
214 3 -3.69467 14.4472 4.5403 24
215 3 -1.30507 10.7434 4.5374 26
216 3 -1.0784 13.7469 3.13433 24
217 1 -2.44041 15.2918 5.92228 28
218 3 -1.05814 13.6095 5.7252 24
225 1 -0.0194031 10.2966 11.9159 27
226 1 -0.0337037 12.9755 7.40567 28
227 2 -2.69705 11.2607 7.3872 25
228 3 -1.11258 11.1428 7.50321 22
229 3 -3.82227 14.7949 7.38983 25
230 3 -3.44808 11.8322 6.09644 24
231 1 -0.0201559 10.2783 8.97849 29
232 3 -3.42794 11.9502 8.68573 23
233 1 -4.82264 17.5923 10.4523 26
234 2 -2.14087 19.2851 10.5417 25
235 3 -3.69832 19.4063 10.6274 22
236 3 -1.0716 15.8469 10.4973 26
237 3 -1.49689 18.6186 9.26171 23
238 3 -1.42139 18.6959 11.8432 23
239 1 -2.42428 15.357 8.99448 28
240 1 -2.43902 12.5099 10.423 26
241 2 -0.321457 14.3436 10.4627 25
242 3 -3.54811 14.3238 10.4232 22
243 3 -1.44572 10.7796 10.512 24
244 3 -1.0595 13.7518 9.12018 24
245 1 -2.39217 15.3745 11.9151 27
246 3 -0.978376 13.6175 11.7208 24
247 1 -2.34134 18.0676 7.47814 29
248 2 -4.57884 16.2716 7.52168 25
249 3 -1.21141 16.2795 7.5492 22
250 3 -3.44744 19.9626 7.46125 25
251 3 -3.89005 16.9803 6.25571 23
252 3 -3.8762 17.0105 8.7561 24
449 1 4.78874 10.2399 5.94337 28
455 1 4.86105 10.2165 3.00973 28
457 1 0.13888 17.547 4.56768 27
458 2 2.73935 19.401 4.52417 25
459 3 1.18647 19.4768 4.43712 24
460 3 3.79923 15.8216 4.47476 24
461 3 3.42912 18.8408 3.21991 24
462 3 3.40904 18.6842 5.73582 23
463 1 2.39954 15.2798 2.96821 28
464 1 2.27147 12.4911 4.50942 29
465 2 4.4544 14.2974 4.50515 25
466 3 1.19821 14.3589 4.47545 22
467 3 3.41151 10.6681 4.4544 24
468 3 3.75386 13.6854 3.18158 24
469 1 2.34957 15.2977 5.92639 28
470 3 3.76645 13.5984 5.74753 23
477 1 4.82521 10.2184 12.0074 28
478 1 4.69975 12.9825 7.50811 28
479 2 2.12743 11.0908 7.53289 25
480 3 3.70741 11.0246 7.53134 22
481 3 1.02519 14.7633 7.38456 25
482 3 1.44194 11.8312 6.35217 24
483 1 4.89471 10.1766 9.00185 28
484 3 1.46008 11.7521 8.86085 24
485 1 0.142405 17.5863 10.4909 28
486 2 2.71419 19.3496 10.5698 25
487 3 1.11193 19.4776 10.5403 22
488 3 3.79637 15.7874 10.4807 25
489 3 3.3283 18.7521 9.27449 24
490 3 3.43529 18.6906 11.7806 24
491 1 2.47064 15.3239 8.99917 29
492 1 2.38458 12.4299 10.4417 28
493 2 4.52168 14.3224 10.4333 25
494 3 1.23658 14.3829 10.4878 22
495 3 3.47553 10.6607 10.4557 25
496 3 3.7782 13.6681 9.15125 24
497 1 2.49472 15.2236 11.9514 29
498 3 3.81155 13.6128 11.7339 24
499 1 2.42633 18.0902 7.52789 27
500 2 0.334145 16.2637 7.48055 25
501 3 3.60767 16.2132 7.52747 22
502 3 1.32298 19.8532 7.47968 26
503 3 1.0291 16.9431 6.2162 24
504 3 1.07252 16.9089 8.78838 24
701 1 9.77398 10.1926 5.95959 28
707 1 9.73062 10.2759 2.90626 28
709 1 4.94109 17.5542 4.45602 27
710 2 7.52422 19.3541 4.49302 25
711 3 5.95699 19.4687 4.5476 22
712 3 8.63105 15.8622 4.55422 24
713 3 8.25676 18.686 3.23471 24
714 3 8.19829 18.6835 5.78105 24
715 1 7.29037 15.2438 3.03122 29
716 1 7.1046 12.5278 4.53327 28
717 2 9.3289 14.3119 4.57171 25
718 3 6.08369 14.3633 4.42027 22
719 3 8.2889 10.6758 4.46704 25
720 3 8.67266 13.749 3.23364 24
721 1 7.27076 15.2988 6.01255 29
722 3 8.65127 13.5719 5.76967 24
729 1 9.69955 10.0926 11.9414 27
730 1 9.51858 12.9051 7.37556 28
731 2 6.92699 11.1794 7.46932 25
732 3 8.5428 11.112 7.44276 22
733 3 5.82445 14.8073 7.373 25
734 3 6.18498 11.8323 6.19107 24
735 1 9.76641 10.1797 8.94307 28
736 3 6.25159 11.8869 8.72768 24
737 1 4.93896 17.5908 10.4532 28
738 2 7.57394 19.3802 10.5145 25
739 3 6.03171 19.5089 10.5465 23
740 3 8.65669 15.7076 10.4472 24
741 3 8.26204 18.7089 9.27561 24
742 3 8.25982 18.6604 11.7773 23
743 1 7.26439 15.3648 9.00133 28
744 1 7.24346 12.4385 10.4312 27
745 2 9.37372 14.2898 10.4542 25
746 3 6.05954 14.3938 10.4172 24
747 3 8.36591 10.6565 10.3956 25
748 3 8.65611 13.6004 9.12252 24
749 1 7.22033 15.1948 11.9811 29
750 3 8.6509 13.6245 11.72 24
751 1 7.17088 18.1776 7.49108 27
752 2 5.17505 16.3242 7.45004 25
753 3 8.39961 16.152 7.49342 22
754 3 6.15275 19.9149 7.53201 25
755 3 5.86163 17.0144 6.22543 23
756 3 5.86658 16.9105 8.75803 24
