ITEM: TIMESTEP
500
ITEM: NUMBER OF ATOMS
756
ITEM: BOX BOUNDS pp pp pp
-4.8435403183999997e+00 9.6870806368999993e+00
-1.0186409263300000e+01 2.0372818526500001e+01
-6.0013959751000003e+00 1.2002791950200001e+01
ITEM: ATOMS id type x y z q2 q3 q4 q5 q6 q7 q8 q9 q10 q11 q12
1 1 -0.025861 -10.1729 0.0421423 0.183675  0.0356317  0.665899  0.0433588  0.483766  0.070438  0.593706  0.0792916  0.511593  0.09537  0.594196  
2 1 -0.0844285 -7.46119 -4.5149 0.0795397  0.253218  0.659839  0.298765  0.307428  0.362697  0.512104  0.406673  0.320758  0.363995  0.508583  
3 2 -2.68838 -9.22109 -4.54899 0.137744  0.653106  0.471972  0.252047  0.563264  0.529159  0.357422  0.481085  0.486619  0.467946  0.493829  
4 3 -1.15556 -9.30513 -4.58834 0.140644  0.466589  0.362232  0.318714  0.272366  0.318008  0.497472  0.389163  0.26112  0.409932  0.423102  
5 3 -3.81315 -5.57682 -4.50846 0.144441  0.385992  0.344092  0.226199  0.273764  0.281642  0.456443  0.372804  0.201359  0.40628  0.366479  
6 3 -3.37608 -8.49961 -5.80201 0.153349  0.405046  0.336565  0.285698  0.248834  0.313344  0.489471  0.35064  0.222536  0.389124  0.385683  
7 1 0.040158 -10.2547 -3.03966 0.176321  0.0278872  0.683346  0.0600316  0.474495  0.0518855  0.610379  0.0834623  0.506618  0.106016  0.607405  
8 3 -3.41671 -8.57765 -3.29314 0.144015  0.4405  0.337028  0.245125  0.283511  0.35084  0.476594  0.352482  0.262028  0.412145  0.38429  
9 1 -4.74089 -2.83979 -1.5476 0.0738823  0.262383  0.649277  0.321801  0.294068  0.373124  0.521998  0.409377  0.291408  0.357257  0.547974  
10 2 -2.05233 -1.01552 -1.46597 0.135595  0.655536  0.466512  0.250619  0.578047  0.528662  0.352189  0.483872  0.492472  0.447754  0.506917  
11 3 -3.5853 -0.99632 -1.50359 0.145317  0.446812  0.337032  0.315037  0.264672  0.27471  0.487371  0.400822  0.222573  0.415303  0.409774  
12 3 -1.01048 -4.57659 -1.48251 0.138012  0.402406  0.363119  0.214055  0.293128  0.302179  0.467093  0.372632  0.204166  0.397331  0.405969  
13 3 -1.35796 -1.65733 -2.78354 0.148549  0.428653  0.343278  0.277983  0.270609  0.328494  0.490784  0.348152  0.234099  0.407554  0.396722  
14 3 -1.30676 -1.65841 -0.194767 0.129789  0.406796  0.322506  0.276528  0.253489  0.330674  0.469169  0.340079  0.234213  0.383504  0.38427  
15 1 -2.39308 -5.06505 -3.00625 0.174494  0.0173588  0.679551  0.0254345  0.469354  0.0385558  0.611432  0.0390979  0.512129  0.0581055  0.604639  
16 1 -2.46233 -7.95795 -1.56947 0.0842422  0.264131  0.633383  0.331767  0.305631  0.365573  0.508529  0.393611  0.328069  0.354442  0.530772  
17 2 -0.335729 -6.08363 -1.49539 0.106679  0.670522  0.475022  0.18627  0.595859  0.55526  0.291015  0.488172  0.545553  0.401718  0.480354  
18 3 -3.55935 -6.00863 -1.50575 0.134756  0.453071  0.353307  0.292546  0.275526  0.334062  0.466381  0.390065  0.282461  0.374005  0.42535  
19 3 -1.39402 -9.71154 -1.57649 0.144949  0.41089  0.350298  0.218431  0.289207  0.3063  0.467283  0.378297  0.210674  0.403998  0.395011  
20 3 -0.988797 -6.73989 -2.77929 0.14311  0.418973  0.350488  0.264428  0.255477  0.327116  0.486523  0.345167  0.226901  0.406036  0.395128  
21 1 -2.43445 -5.0201 0.0358285 0.175032  0.0482546  0.674792  0.0515687  0.472462  0.0890723  0.600453  0.0912529  0.504157  0.133054  0.592902  
22 3 -0.993598 -6.73103 -0.19435 0.156816  0.408034  0.323983  0.279671  0.252323  0.316969  0.478442  0.344646  0.227638  0.399414  0.378236  
23 1 -2.24235 -2.29987 -4.49324 0.0776961  0.269039  0.640765  0.334351  0.281817  0.363339  0.52157  0.419381  0.265605  0.36121  0.548348  
24 2 -4.46938 -4.05371 -4.49794 0.114013  0.658838  0.466467  0.216727  0.582552  0.544423  0.319263  0.469302  0.527616  0.43109  0.477962  
25 3 -1.19793 -4.18291 -4.48579 0.134641  0.482257  0.367444  0.294708  0.285382  0.336158  0.481277  0.390787  0.272404  0.417  0.437426  
26 3 -3.42406 -0.473715 -4.52754 0.129522  0.39724  0.343654  0.201225  0.290504  0.310296  0.446045  0.370757  0.216047  0.398751  0.3702  
27 3 -3.81925 -3.4323 -5.8155 0.143987  0.388581  0.320505  0.279087  0.268688  0.283976  0.482578  0.334274  0.233139  0.375572  0.374361  
28 3 -3.79233 -3.44015 -3.22725 0.150055  0.424657  0.342013  0.281855  0.280662  0.319411  0.494266  0.354359  0.233884  0.400791  0.39767  
30 1 -0.0671467 -7.32244 1.46236 0.0750012  0.257413  0.651041  0.306837  0.303351  0.374575  0.515054  0.396123  0.308668  0.373969  0.523264  
31 2 -2.75032 -9.13058 1.54761 0.130593  0.648948  0.469037  0.25164  0.564204  0.53572  0.355793  0.457846  0.501262  0.472494  0.47192  
32 3 -1.16188 -9.22705 1.50742 0.139757  0.460599  0.351859  0.316377  0.266114  0.319258  0.487949  0.389278  0.265857  0.398126  0.4177  
33 3 -3.8285 -5.52972 1.53674 0.141247  0.402931  0.354504  0.219403  0.282997  0.295068  0.469542  0.376172  0.209368  0.400955  0.395654  
34 3 -3.42939 -8.4666 0.25228 0.147031  0.398475  0.337007  0.276406  0.237721  0.349738  0.468856  0.32306  0.258025  0.386551  0.371143  
36 3 -3.50604 -8.49798 2.77257 0.14382  0.435939  0.336577  0.268983  0.270875  0.342545  0.487043  0.362543  0.240584  0.403201  0.403137  
51 1 -2.32911 -2.21005 1.5578 0.0609636  0.275493  0.638485  0.321355  0.282473  0.396436  0.506752  0.401653  0.273185  0.398582  0.520341  
52 2 -4.52707 -4.07873 1.45732 0.116689  0.661541  0.471473  0.205664  0.573002  0.545162  0.32396  0.47736  0.521308  0.434178  0.477783  
53 3 -1.2614 -4.15375 1.50259 0.139482  0.470893  0.363924  0.322755  0.29263  0.319137  0.491563  0.400378  0.269657  0.405671  0.433486  
54 3 -3.46807 -0.523045 1.43699 0.139992  0.408528  0.363799  0.242987  0.297451  0.320261  0.465772  0.377355  0.234621  0.377933  0.405533  
55 3 -3.87237 -3.45238 0.156396 0.160824  0.39854  0.3347  0.287594  0.272536  0.302672  0.486555  0.3461  0.225598  0.38745  0.389121  
56 3 -3.83965 -3.37341 2.7217 0.14752  0.421255  0.344118  0.244094  0.262458  0.357538  0.456871  0.341749  0.270487  0.414499  0.368848  
253 1 4.84979 -10.156 0.0651798 0.171007  0.0445308  0.66929  0.0526829  0.466129  0.0924542  0.600961  0.0906644  0.496913  0.126965  0.591621  
254 1 4.80454 -7.3565 -4.45858 0.0704301  0.254293  0.644851  0.315264  0.29835  0.370969  0.513002  0.397051  0.303041  0.369962  0.526503  
255 2 2.13145 -9.15303 -4.45267 0.1394  0.64834  0.459  0.264882  0.567929  0.523414  0.361177  0.471793  0.485724  0.460943  0.500053  
256 3 3.69899 -9.27302 -4.46607 0.141953  0.465512  0.359736  0.316878  0.267912  0.321455  0.492208  0.388227  0.274875  0.408864  0.416771  
257 3 0.997757 -5.61939 -4.47727 0.142453  0.375034  0.372088  0.205279  0.277549  0.289809  0.478722  0.360022  0.199054  0.391582  0.388357  
258 3 1.42367 -8.5368 -5.75337 0.137302  0.428477  0.341361  0.267031  0.271632  0.327562  0.489693  0.349366  0.243729  0.403969  0.386942  
259 1 4.82667 -10.1753 -3.03352 0.179255  0.05137  0.677365  0.0532352  0.478833  0.0952205  0.597353  0.0976298  0.513301  0.131215  0.58689  
260 3 1.40739 -8.56367 -3.2139 0.133874  0.410325  0.32483  0.264174  0.24799  0.31347  0.485076  0.349478  0.226577  0.382862  0.391663  
261 1 0.0955331 -2.82574 -1.52148 0.0715632  0.236582  0.670716  0.278813  0.313538  0.359073  0.529346  0.387932  0.314401  0.381908  0.505094  
262 2 2.78504 -1.01576 -1.52366 0.126885  0.656111  0.465685  0.227174  0.579551  0.536502  0.33436  0.473059  0.512741  0.43627  0.492396  
263 3 1.21371 -0.943187 -1.52302 0.145034  0.451117  0.349065  0.308976  0.265082  0.300548  0.481954  0.398705  0.244421  0.410561  0.41441  
264 3 3.83996 -4.63471 -1.48514 0.12851  0.394537  0.357898  0.215643  0.272747  0.294091  0.467286  0.37128  0.191666  0.401202  0.390873  
265 3 3.51032 -1.64951 -2.79131 0.142215  0.419697  0.337666  0.275094  0.264051  0.321297  0.488432  0.351649  0.219587  0.393503  0.403951  
266 3 3.47445 -1.60478 -0.211904 0.132021  0.424198  0.320744  0.255659  0.266201  0.306441  0.474868  0.352426  0.216157  0.404407  0.395658  
267 1 2.40952 -5.14418 -2.9846 0.180004  0.0154155  0.675627  0.0240461  0.476797  0.030701  0.609529  0.0387925  0.510153  0.0496061  0.609912  
268 1 2.43817 -7.92708 -1.44353 0.0581308  0.225417  0.677224  0.275823  0.307816  0.354406  0.537638  0.394187  0.301021  0.383533  0.500168  
269 2 4.5084 -6.11694 -1.45396 0.107182  0.65888  0.472343  0.201706  0.581438  0.551502  0.308939  0.468932  0.530689  0.434847  0.464047  
270 3 1.20896 -6.06086 -1.4791 0.144162  0.451876  0.346653  0.315676  0.265291  0.274081  0.498762  0.396132  0.210918  0.423888  0.417769  
271 3 3.46712 -9.69728 -1.46032 0.14178  0.414437  0.363785  0.209551  0.28962  0.321587  0.460384  0.376615  0.216672  0.408893  0.405345  
272 3 3.79941 -6.80437 -2.71942 0.143365  0.423788  0.344396  0.272799  0.263011  0.350773  0.470537  0.347675  0.258784  0.396598  0.390616  
273 1 2.41731 -5.1288 0.0265897 0.171062  0.0190237  0.672329  0.0234606  0.457921  0.0250168  0.614523  0.027913  0.503828  0.0318812  0.603088  
274 3 3.85384 -6.80586 -0.163054 0.144276  0.39099  0.348058  0.283123  0.258219  0.302632  0.485001  0.345084  0.220652  0.384919  0.392842  
275 1 2.50667 -2.29865 -4.48941 0.0701755  0.25008  0.663835  0.284289  0.30822  0.378655  0.517082  0.390495  0.316721  0.384508  0.506252  
276 2 0.370681 -4.14118 -4.50846 0.115468  0.667369  0.475346  0.208548  0.57679  0.550168  0.321294  0.478396  0.527452  0.439239  0.474555  
277 3 3.66584 -4.22239 -4.4531 0.137831  0.446005  0.351488  0.309759  0.241462  0.297687  0.494425  0.37516  0.258541  0.406512  0.399235  
278 3 1.43716 -0.480426 -4.48036 0.142827  0.396388  0.353106  0.213217  0.274173  0.298468  0.458348  0.372223  0.208013  0.409901  0.377699  
279 3 1.07562 -3.43888 -5.75133 0.137744  0.424792  0.342665  0.258829  0.257917  0.328248  0.478515  0.355793  0.222101  0.408011  0.399428  
280 3 1.06853 -3.51834 -3.22815 0.143314  0.427177  0.328992  0.252164  0.263269  0.328378  0.47375  0.352418  0.219175  0.412643  0.395481  
282 1 4.82225 -7.41139 1.59687 0.0553864  0.241485  0.669547  0.269339  0.31225  0.368853  0.533601  0.365552  0.335219  0.379847  0.501753  
283 2 2.1036 -9.18932 1.56639 0.122219  0.654116  0.468514  0.234631  0.577665  0.539742  0.334934  0.471069  0.508576  0.450959  0.482627  
284 3 3.64853 -9.26581 1.57696 0.140022  0.460552  0.349387  0.341046  0.264672  0.276682  0.515997  0.392841  0.223963  0.420786  0.415939  
285 3 0.992925 -5.61501 1.53178 0.149082  0.406357  0.349261  0.231469  0.314021  0.300478  0.470657  0.373831  0.230695  0.392337  0.383892  
286 3 1.41337 -8.57482 0.232214 0.144129  0.415748  0.323625  0.25187  0.272686  0.306785  0.470972  0.356298  0.211851  0.401448  0.396007  
288 3 1.36556 -8.47162 2.78765 0.137185  0.404171  0.336639  0.271251  0.262945  0.328493  0.468354  0.358583  0.222894  0.381519  0.393427  
303 1 2.3604 -2.22877 1.46336 0.0676716  0.25581  0.655245  0.280377  0.317696  0.398506  0.500813  0.37185  0.350524  0.393036  0.48318  
304 2 0.2729 -4.10986 1.47738 0.153576  0.638432  0.463411  0.296386  0.552363  0.512509  0.392704  0.47269  0.445561  0.499338  0.509374  
305 3 3.63264 -4.2326 1.48568 0.150327  0.440172  0.337302  0.332433  0.247196  0.277101  0.502048  0.387154  0.222839  0.400744  0.406341  
306 3 1.32891 -0.494786 1.4472 0.140715  0.427904  0.360024  0.238006  0.288592  0.307744  0.480873  0.380919  0.212476  0.407244  0.419281  
307 3 1.06194 -3.51231 0.222234 0.126602  0.429438  0.337342  0.230627  0.280763  0.349384  0.463654  0.355766  0.231327  0.404106  0.393687  
308 3 1.02257 -3.42112 2.69468 0.145424  0.431541  0.321222  0.25427  0.267335  0.335896  0.469898  0.364053  0.233734  0.40415  0.394994  
505 1 9.76914 -10.1773 0.00253821 0.178811  0.0647036  0.673039  0.0761511  0.47663  0.105243  0.58827  0.139745  0.512859  0.144032  0.566277  
506 1 9.68007 -7.42544 -4.4469 0.0734444  0.25589  0.650977  0.315329  0.298822  0.367943  0.51277  0.413721  0.299921  0.366431  0.520076  
507 2 6.95155 -9.22598 -4.51301 0.125705  0.654961  0.467223  0.23585  0.574001  0.537887  0.337413  0.476065  0.502026  0.450524  0.491162  
508 3 8.53219 -9.35295 -4.51519 0.137304  0.44937  0.354455  0.324496  0.256502  0.296292  0.5019  0.380636  0.260492  0.399116  0.404888  
509 3 5.92799 -5.58109 -4.47697 0.137543  0.415343  0.355254  0.22784  0.290296  0.302174  0.467167  0.387318  0.201553  0.406497  0.40764  
510 3 6.22718 -8.53052 -5.79571 0.147341  0.417901  0.336541  0.282486  0.266153  0.312541  0.48653  0.365867  0.202174  0.399999  0.409368  
511 1 9.73988 -10.2194 -3.02154 0.179951  0.0297098  0.673103  0.033733  0.486764  0.0507309  0.598921  0.0608287  0.514374  0.0760996  0.603948  
512 3 6.28975 -8.57142 -3.22518 0.153812  0.415694  0.324388  0.263921  0.266697  0.312107  0.474123  0.358146  0.222256  0.407583  0.383878  
513 1 5.00041 -2.80855 -1.42659 0.0796711  0.265526  0.650445  0.307774  0.304588  0.379544  0.504857  0.40887  0.305235  0.385105  0.502899  
514 2 7.61333 -1.03051 -1.54144 0.141299  0.65064  0.461878  0.259984  0.571007  0.519098  0.356636  0.488071  0.48156  0.445159  0.518602  
515 3 6.04441 -0.930888 -1.5353 0.136672  0.461308  0.356426  0.306243  0.268721  0.317339  0.482213  0.385639  0.272617  0.403134  0.416052  
516 3 8.6658 -4.65946 -1.52645 0.12486  0.423189  0.365702  0.198734  0.289944  0.327552  0.452767  0.378514  0.23188  0.412659  0.395291  
517 3 8.3543 -1.61201 -2.83396 0.130254  0.428716  0.327997  0.260897  0.282099  0.322278  0.47649  0.35391  0.229142  0.398877  0.394643  
518 3 8.2777 -1.64517 -0.284426 0.140339  0.42917  0.341005  0.261336  0.256496  0.352133  0.483494  0.331392  0.253334  0.416438  0.372684  
519 1 7.26064 -5.0899 -2.97217 0.178188  0.0363831  0.682626  0.042797  0.475382  0.0583212  0.605723  0.0760368  0.520674  0.0883432  0.593083  
520 1 7.27797 -7.9549 -1.51521 0.065531  0.24291  0.667931  0.285503  0.306217  0.373144  0.521831  0.396111  0.301908  0.395947  0.498606  
521 2 9.40565 -6.10721 -1.49972 0.127856  0.652665  0.472971  0.239509  0.568181  0.534079  0.349574  0.476047  0.493053  0.464741  0.491403  
522 3 6.12816 -6.01369 -1.46756 0.134309  0.451204  0.349151  0.30988  0.253611  0.305452  0.488337  0.385046  0.248959  0.398694  0.416564  
523 3 8.33007 -9.72212 -1.41848 0.135038  0.412621  0.35438  0.205081  0.292811  0.328064  0.45509  0.374043  0.239317  0.391032  0.392075  
524 3 8.69861 -6.86816 -2.73363 0.157228  0.415285  0.33285  0.261931  0.26173  0.330084  0.464365  0.35832  0.260693  0.382798  0.391581  
525 1 7.34309 -5.15228 -0.00421778 0.178687  0.0578922  0.679196  0.0642745  0.471597  0.0952031  0.601623  0.121253  0.505937  0.131645  0.586791  
526 3 8.69473 -6.77337 -0.199455 0.143544  0.405231  0.339087  0.267886  0.253356  0.330885  0.479599  0.340003  0.227009  0.393807  0.3857  
527 1 7.30693 -2.24109 -4.50236 0.0697024  0.241453  0.661289  0.283051  0.312299  0.376054  0.514858  0.385785  0.319446  0.388663  0.495387  
528 2 5.23227 -4.07567 -4.43783 0.118066  0.660296  0.470283  0.218433  0.579955  0.545652  0.324295  0.471373  0.523805  0.441051  0.475931  
529 3 8.47108 -4.20312 -4.51945 0.143357  0.442552  0.346819  0.30872  0.239306  0.309081  0.488272  0.374365  0.261767  0.398587  0.395478  
530 3 6.22993 -0.437284 -4.53778 0.131679  0.418469  0.348289  0.202596  0.288595  0.322104  0.447131  0.377305  0.225729  0.416465  0.38479  
531 3 5.88134 -3.40766 -5.73849 0.155733  0.413481  0.345638  0.284511  0.255533  0.322346  0.498202  0.345019  0.230592  0.401112  0.38735  
532 3 5.91887 -3.46011 -3.1763 0.143833  0.415818  0.350293  0.282628  0.26804  0.329738  0.486025  0.344788  0.218638  0.408023  0.392968  
534 1 9.63888 -7.35989 1.58063 0.0787635  0.25004  0.652309  0.311871  0.308216  0.362179  0.51091  0.409821  0.31259  0.366426  0.508678  
535 2 7.00362 -9.2172 1.48936 0.129818  0.650143  0.466843  0.239944  0.571331  0.530607  0.343564  0.478671  0.493103  0.449922  0.497185  
536 3 8.54437 -9.27667 1.48061 0.142961  0.450976  0.340849  0.316178  0.265126  0.314285  0.488926  0.39629  0.245648  0.387155  0.41485  
537 3 5.88196 -5.58047 1.50765 0.134805  0.407493  0.349638  0.204269  0.287973  0.313242  0.449529  0.373081  0.217164  0.411086  0.382455  
538 3 6.28516 -8.60749 0.174768 0.139593  0.401458  0.322892  0.283988  0.276885  0.2779  0.492771  0.350738  0.205062  0.38572  0.381969  
540 3 6.27394 -8.51715 2.76382 0.147355  0.427419  0.347723  0.261158  0.285089  0.313324  0.482841  0.362182  0.226967  0.407807  0.408161  
555 1 7.36738 -2.30935 1.46787 0.0759845  0.25583  0.641056  0.323468  0.289962  0.366681  0.51012  0.408667  0.278837  0.375413  0.525391  
556 2 5.19193 -4.12478 1.4812 0.121005  0.662666  0.469129  0.225478  0.586504  0.544262  0.321923  0.48197  0.519664  0.434423  0.488669  
557 3 8.40757 -4.2051 1.45023 0.134937  0.470565  0.364668  0.28242  0.278505  0.354367  0.462994  0.383215  0.302318  0.39406  0.417212  
558 3 6.21023 -0.541105 1.42786 0.137391  0.387539  0.346625  0.236722  0.267847  0.277  0.484777  0.370665  0.189303  0.372048  0.403702  
559 3 5.87375 -3.47705 0.19376 0.15805  0.419123  0.32944  0.287421  0.264587  0.300959  0.503433  0.350944  0.209228  0.401786  0.399823  
560 3 5.86559 -3.47266 2.75514 0.146593  0.415911  0.332011  0.271649  0.262566  0.315721  0.486716  0.351588  0.219347  0.40475  0.389675  
85 1 0.0120537 0.041983 -0.0243539 0.171448  0.0403943  0.686413  0.0897676  0.465157  0.07411  0.608255  0.125895  0.502943  0.151251  0.588062  
86 1 -0.04956 2.86896 -4.53309 0.0629014  0.251217  0.661747  0.286519  0.304919  0.383849  0.51989  0.381717  0.308358  0.398347  0.50888  
87 2 -2.73218 1.00674 -4.53637 0.132185  0.651553  0.463466  0.253511  0.574829  0.528965  0.348043  0.477685  0.495724  0.44672  0.501258  
88 3 -1.17374 0.927658 -4.52558 0.140933  0.449591  0.3492  0.302181  0.260806  0.30596  0.479103  0.389815  0.25481  0.40103  0.42052  
89 3 -3.83413 4.59042 -4.50958 0.134005  0.415216  0.352999  0.223355  0.294284  0.298583  0.47344  0.379503  0.206538  0.401899  0.401505  
90 3 -3.49699 1.62082 -5.79672 0.127279  0.420936  0.322728  0.256139  0.264832  0.322297  0.481988  0.351072  0.22486  0.391678  0.392956  
91 1 0.00667695 -0.0347124 -3.00864 0.182826  0.0325981  0.680396  0.0464009  0.477993  0.0563315  0.605048  0.0756876  0.518913  0.0937022  0.595848  
92 3 -3.39668 1.62457 -3.20491 0.157215  0.414715  0.332958  0.279932  0.277776  0.298276  0.493894  0.346335  0.217776  0.401276  0.393859  
93 1 -4.83522 7.37113 -1.60559 0.060687  0.241462  0.668799  0.273782  0.318789  0.366266  0.528493  0.371218  0.340993  0.378558  0.495376  
94 2 -2.10075 9.15134 -1.50066 0.136039  0.649076  0.463206  0.262857  0.570378  0.528985  0.358437  0.468006  0.491784  0.465019  0.490573  
95 3 -3.67268 9.22844 -1.55817 0.141874  0.447227  0.349311  0.328644  0.262989  0.294358  0.494739  0.397295  0.244616  0.395574  0.41892  
96 3 -1.00277 5.61083 -1.54697 0.150753  0.380755  0.352797  0.236813  0.281066  0.267141  0.481151  0.368352  0.191185  0.38973  0.388411  
97 3 -1.36361 8.57479 -2.79991 0.130999  0.418778  0.313127  0.269397  0.267224  0.305041  0.486707  0.348352  0.204947  0.402668  0.38019  
98 3 -1.37755 8.47428 -0.277298 0.14407  0.437078  0.348036  0.25702  0.271481  0.347553  0.4648  0.365069  0.262833  0.400758  0.410004  
99 1 -2.4396 5.09479 -3.0066 0.169799  0.0256191  0.681927  0.0291707  0.461765  0.0503242  0.615631  0.0515656  0.507929  0.0687681  0.602825  
100 1 -2.48538 2.25486 -1.53486 0.0787518  0.262022  0.648349  0.326733  0.295814  0.365068  0.519007  0.418357  0.292571  0.359218  0.539285  
101 2 -0.349404 4.09715 -1.52624 0.114531  0.668879  0.468302  0.199238  0.584801  0.546944  0.305585  0.488374  0.535495  0.402622  0.488569  
102 3 -3.64942 4.14919 -1.51699 0.139276  0.463835  0.352221  0.316777  0.271127  0.288144  0.499182  0.391819  0.236982  0.425098  0.421167  
103 3 -1.34224 0.454594 -1.45909 0.133267  0.420545  0.362084  0.201658  0.288667  0.328106  0.457901  0.377199  0.223998  0.409936  0.39449  
104 3 -1.04126 3.50863 -2.84391 0.13795  0.42321  0.327466  0.272822  0.272686  0.301158  0.484761  0.356578  0.203684  0.411813  0.389277  
105 1 -2.46335 5.04117 -0.04279 0.171389  0.0431633  0.66632  0.0529403  0.463811  0.0873812  0.599317  0.0842048  0.499292  0.131587  0.585065  
106 3 -0.993378 3.43918 -0.234373 0.139871  0.403591  0.347523  0.275194  0.261336  0.315515  0.488329  0.339564  0.237294  0.39681  0.375463  
107 1 -2.32088 7.92142 -4.52016 0.0681768  0.264443  0.64121  0.320528  0.286215  0.380817  0.51619  0.399819  0.275605  0.375665  0.540207  
108 2 -4.54065 6.05925 -4.48826 0.12568  0.655513  0.470285  0.23669  0.568609  0.540822  0.345803  0.46805  0.504449  0.464904  0.477155  
109 3 -1.22957 5.97377 -4.49493 0.133746  0.452691  0.355217  0.308555  0.2581  0.30688  0.494353  0.379009  0.255125  0.402739  0.412599  
110 3 -3.4635 9.66432 -4.54148 0.126913  0.412046  0.357663  0.222616  0.297041  0.310399  0.462214  0.383282  0.211839  0.39968  0.395943  
111 3 -3.87896 6.74925 -5.75585 0.150517  0.404777  0.332126  0.260859  0.26273  0.320095  0.474587  0.349337  0.229586  0.398172  0.379323  
112 3 -3.79682 6.71834 -3.20564 0.145903  0.42677  0.325594  0.260823  0.26798  0.314064  0.476578  0.361755  0.217456  0.40315  0.408053  
114 1 -0.0643001 2.79065 1.58217 0.0648698  0.250377  0.656256  0.30358  0.29979  0.365894  0.520896  0.401557  0.301135  0.373231  0.51613  
115 2 -2.76501 0.970593 1.46984 0.118136  0.662234  0.472816  0.217405  0.578231  0.54775  0.324929  0.475322  0.52059  0.444818  0.475437  
116 3 -1.21045 0.894818 1.48977 0.140666  0.456438  0.357419  0.317074  0.267959  0.2913  0.498797  0.394004  0.237245  0.414658  0.423692  
117 3 -3.84709 4.55927 1.47406 0.141064  0.409723  0.358118  0.228651  0.294123  0.302443  0.468889  0.382099  0.199021  0.403792  0.41038  
118 3 -3.39346 1.69113 0.198227 0.161119  0.389217  0.335132  0.28603  0.26676  0.304736  0.473837  0.351357  0.234947  0.378578  0.373755  
120 3 -3.51304 1.62618 2.72465 0.139058  0.445562  0.340446  0.253432  0.271135  0.35872  0.466866  0.360671  0.252608  0.415622  0.398819  
135 1 -2.42199 7.88751 1.41423 0.0575025  0.249416  0.661689  0.293572  0.300865  0.377803  0.518905  0.396682  0.303451  0.386464  0.50472  
136 2 -4.55747 6.08493 1.47941 0.130938  0.648121  0.466814  0.250186  0.560628  0.536026  0.358239  0.456909  0.49672  0.476691  0.470435  
137 3 -1.2491 6.02805 1.51379 0.140814  0.443562  0.343671  0.320065  0.258794  0.298629  0.489307  0.397362  0.248145  0.394202  0.408222  
138 3 -3.45502 9.64061 1.49326 0.15341  0.39728  0.357547  0.2411  0.281101  0.287863  0.481473  0.373305  0.191299  0.400395  0.403259  
139 3 -3.82104 6.72738 0.22943 0.126908  0.413333  0.344509  0.241252  0.25946  0.349537  0.462404  0.339126  0.25098  0.396218  0.384003  
140 3 -3.87119 6.74326 2.75215 0.147709  0.404332  0.339021  0.27753  0.243813  0.335552  0.487994  0.336661  0.237565  0.393724  0.371761  
337 1 4.8258 0.0578661 -0.026766 0.16195  0.0326438  0.687061  0.0654158  0.455634  0.063147  0.613948  0.0953323  0.505937  0.116399  0.589482  
338 1 4.691 2.77464 -4.49686 0.0741155  0.254831  0.658251  0.309911  0.2974  0.36137  0.519607  0.419011  0.277835  0.375927  0.518887  
339 2 2.08668 1.03582 -4.54865 0.120963  0.655651  0.46526  0.217097  0.577068  0.536287  0.324539  0.475748  0.514719  0.425391  0.491927  
340 3 3.67474 0.97801 -4.55177 0.134749  0.467087  0.350924  0.286909  0.277464  0.335454  0.467107  0.398946  0.267857  0.392876  0.429153  
341 3 1.058 4.56533 -4.56242 0.143643  0.404668  0.353986  0.245948  0.284337  0.288721  0.487997  0.374199  0.206337  0.38309  0.408924  
342 3 1.39988 1.6368 -5.85505 0.129933  0.412311  0.343767  0.268292  0.263291  0.31067  0.486183  0.350862  0.198401  0.403531  0.401267  
343 1 4.86676 -0.033168 -3.00889 0.172687  0.0458809  0.681652  0.0703859  0.464188  0.083909  0.602778  0.10844  0.515251  0.141529  0.572743  
344 3 1.36855 1.66263 -3.26158 0.14182  0.423516  0.33418  0.264109  0.259094  0.340928  0.482236  0.339424  0.233747  0.411466  0.383658  
345 1 0.0894592 7.35861 -1.47688 0.0709718  0.258732  0.659052  0.303387  0.300485  0.374434  0.522669  0.399355  0.302997  0.372415  0.532205  
346 2 2.75759 9.1821 -1.40451 0.12886  0.654911  0.472279  0.238247  0.575066  0.535287  0.341152  0.477937  0.502204  0.456476  0.487218  
347 3 1.20378 9.24461 -1.42281 0.143577  0.456658  0.347586  0.325766  0.264211  0.292464  0.498211  0.393127  0.237001  0.410843  0.415375  
348 3 3.84755 5.55133 -1.48635 0.140406  0.396777  0.347973  0.204794  0.278192  0.300342  0.453613  0.371601  0.204492  0.413118  0.374492  
349 3 3.4543 8.51439 -2.67308 0.145651  0.433739  0.322717  0.239607  0.255519  0.352569  0.462465  0.343225  0.265058  0.40919  0.378396  
350 3 3.48079 8.52061 -0.159245 0.13969  0.397572  0.318346  0.280941  0.24691  0.306681  0.476641  0.348575  0.207956  0.376715  0.391633  
351 1 2.43584 5.08947 -3.02234 0.175779  0.0201451  0.677122  0.0279725  0.474072  0.0402359  0.608262  0.0500702  0.511103  0.0580526  0.606057  
352 1 2.28248 2.30269 -1.50356 0.0752447  0.264678  0.646885  0.331565  0.284154  0.361531  0.526127  0.417342  0.265905  0.360755  0.552753  
353 2 4.48844 4.07575 -1.45061 0.117711  0.661017  0.467282  0.222066  0.580592  0.542437  0.325419  0.474581  0.522108  0.432321  0.48454  
354 3 1.2077 4.15488 -1.5192 0.138695  0.463422  0.357929  0.290108  0.268888  0.320809  0.47991  0.390928  0.253522  0.412895  0.427306  
355 3 3.45287 0.547072 -1.51676 0.143594  0.381013  0.354867  0.230451  0.273674  0.274432  0.483057  0.368939  0.18435  0.381749  0.395508  
356 3 3.81649 3.47308 -2.78849 0.149144  0.41409  0.336074  0.274419  0.258551  0.316907  0.489059  0.340698  0.230801  0.405659  0.380393  
357 1 2.36334 5.07979 0.0327379 0.174339  0.0403226  0.67668  0.0480935  0.469351  0.0729582  0.606747  0.0905379  0.502084  0.0991269  0.598948  
358 3 3.7869 3.43633 -0.224615 0.13495  0.416377  0.338419  0.264741  0.263136  0.325318  0.483069  0.345139  0.239618  0.392104  0.395511  
359 1 2.47247 7.92376 -4.40907 0.072773  0.264418  0.639216  0.324033  0.294657  0.376512  0.513345  0.400963  0.299806  0.366925  0.53123  
360 2 0.336138 6.05127 -4.50714 0.109298  0.664941  0.475668  0.191377  0.582563  0.552888  0.302864  0.482411  0.533041  0.42268  0.475217  
361 3 3.59508 5.99693 -4.525 0.139039  0.467008  0.359267  0.308557  0.288224  0.309023  0.485196  0.402129  0.246934  0.412408  0.434412  
362 3 1.38259 9.69502 -4.45591 0.138361  0.414458  0.354019  0.223087  0.28888  0.310479  0.468414  0.382499  0.206246  0.403911  0.404377  
363 3 0.947128 6.75793 -5.77274 0.16332  0.393784  0.336579  0.277271  0.261428  0.324491  0.472944  0.342948  0.254325  0.390739  0.356638  
364 3 1.02953 6.70027 -3.22368 0.139423  0.423167  0.350892  0.256023  0.271539  0.33014  0.483145  0.350397  0.22626  0.410097  0.39518  
366 1 4.75659 2.79687 1.52006 0.0711307  0.239119  0.668248  0.283316  0.312293  0.362568  0.525302  0.392435  0.318886  0.37412  0.505621  
367 2 2.06176 1.00384 1.51388 0.116072  0.665419  0.473676  0.211237  0.584683  0.547109  0.314361  0.485335  0.525619  0.427903  0.485128  
368 3 3.61869 0.928822 1.49599 0.141213  0.459605  0.355026  0.310423  0.264682  0.298742  0.497066  0.389898  0.235395  0.414557  0.429251  
369 3 0.965701 4.58976 1.51825 0.147537  0.39618  0.365258  0.238035  0.282411  0.291201  0.478242  0.378471  0.199363  0.400559  0.396145  
370 3 1.40969 1.67124 0.229331 0.155952  0.411152  0.342499  0.282577  0.251918  0.335118  0.490612  0.339233  0.248316  0.397201  0.371776  
372 3 1.3853 1.68672 2.76875 0.14575  0.421763  0.341934  0.274059  0.276734  0.3181  0.47832  0.364886  0.229312  0.403122  0.396758  
387 1 2.47404 7.92243 1.54265 0.0713479  0.246216  0.665027  0.280694  0.312762  0.373722  0.51661  0.388154  0.318153  0.3956  0.490452  
388 2 0.309269 6.11234 1.45079 0.123682  0.65007  0.464067  0.235187  0.574125  0.538849  0.337678  0.460974  0.510593  0.451243  0.472578  
389 3 3.53973 6.00234 1.46367 0.133397  0.447151  0.344919  0.307314  0.249362  0.322342  0.48694  0.373906  0.270286  0.384862  0.398089  
390 3 1.38292 9.6741 1.51685 0.137909  0.390111  0.344883  0.215116  0.277152  0.290556  0.465747  0.367013  0.194837  0.394284  0.391191  
391 3 1.01449 6.74593 0.174005 0.157625  0.414486  0.330785  0.295366  0.261551  0.309165  0.492387  0.363493  0.207136  0.397165  0.39953  
392 3 1.05123 6.78482 2.74713 0.135647  0.44412  0.346239  0.256125  0.27262  0.351353  0.471938  0.35605  0.261591  0.403442  0.410375  
589 1 9.64948 0.00127715 0.0282464 0.172566  0.0655397  0.674782  0.0724134  0.463401  0.125854  0.59466  0.129388  0.496576  0.180174  0.572799  
590 1 9.60233 2.83494 -4.50891 0.0773009  0.2567  0.639096  0.325855  0.295657  0.366472  0.512394  0.401944  0.299717  0.360537  0.535482  
591 2 6.90216 1.02846 -4.53373 0.125887  0.653482  0.458905  0.239706  0.573508  0.532566  0.338602  0.473547  0.504256  0.438712  0.495857  
592 3 8.48698 0.883071 -4.48168 0.13369  0.452549  0.353374  0.306163  0.242491  0.321031  0.490502  0.365976  0.286286  0.396972  0.399153  
593 3 5.87883 4.53454 -4.5318 0.134745  0.393729  0.375594  0.227436  0.280631  0.303862  0.484426  0.368474  0.208323  0.376946  0.418523  
594 3 6.2414 1.63113 -5.82843 0.152409  0.413939  0.322105  0.293714  0.268081  0.295997  0.497893  0.350972  0.21799  0.400874  0.384744  
595 1 9.6966 -0.00317808 -3.03286 0.171644  0.0272717  0.683562  0.0282294  0.467616  0.0537778  0.614011  0.0527241  0.509757  0.0746904  0.605443  
596 3 6.17332 1.65512 -3.21771 0.138371  0.420435  0.328608  0.280934  0.255043  0.31506  0.488341  0.354181  0.215609  0.399142  0.402929  
597 1 4.93046 7.35284 -1.54 0.0813994  0.268601  0.642491  0.322823  0.300941  0.374639  0.507874  0.404603  0.311526  0.369985  0.524125  