ITEM: TIMESTEP
5500
ITEM: NUMBER OF ATOMS
357
ITEM: BOX BOUNDS pp pp pp
-14.54184 24.2364
80.0 135.0
35.0 90.0
ITEM: ATOMS id type x y z coord q2 q3 q4 q5 q6 q7 q8 q2_mono q3_mono q4_mono q5_mono q6_mono q7_mono q8_mono
4672 1 3.62519 107.35 56.4356 25.0 0.0394364 0.0289855 0.270529 0.0478838 0.179375 0.0415841 0.241654 0.0419482 0.0337356 0.0874825 0.0664376 0.299823 0.066206 0.2413
10337 1 22.4797 107.109 59.7525 27.0 0.0187231 0.0603675 0.222175 0.0351773 0.148224 0.0447305 0.213216 0.040744 0.0467295 0.0671642 0.0443766 0.315872 0.057233 0.274886
10183 3 21.4268 106.03 58.3325 26.0 0.0151033 0.0471974 0.204677 0.0344525 0.123301 0.0511844 0.164625 0.0177059 0.0175534 0.149263 0.0364398 0.333731 0.042547 0.187646
6055 1 8.97956 107.28 53.496 27.0 0.0205118 0.0355826 0.207 0.0386246 0.144771 0.0478616 0.202515 0.0387949 0.0270729 0.0813043 0.05904 0.265725 0.0741628 0.28403
10186 1 23.3945 107.189 53.839 28.0 0.0168028 0.0491993 0.260928 0.0350565 0.154647 0.0495151 0.207078 0.0413804 0.0251252 0.0884029 0.0536894 0.293777 0.0572661 0.281214
379 3 -13.4485 102.985 49.506 23.0 0.0231564 0.0472679 0.256607 0.032606 0.15848 0.0438118 0.243391 0.0219548 0.0180999 0.101163 0.0378822 0.383855 0.0546879 0.259362
383 3 -10.8753 103.685 50.8728 27.0 0.0250273 0.0834795 0.154871 0.0666259 0.176467 0.053155 0.243423 0.013843 0.0254538 0.108587 0.0389499 0.356928 0.0689846 0.222684
391 1 -10.0588 104.041 52.5905 26.0 0.0245241 0.137803 0.173497 0.0735985 0.135656 0.0862229 0.244161 0.03944 0.0320856 0.120701 0.0450462 0.274468 0.0547135 0.301018
392 2 -13.0808 106.202 52.139 24.0 0.0410016 0.10099 0.236647 0.0478116 0.172394 0.100357 0.223358 0.0436216 0.018174 0.310253 0.0315826 0.335834 0.0402805 0.210874
393 3 -11.4854 106.373 52.2381 23.0 0.0256668 0.0514675 0.209724 0.0224621 0.150151 0.0467192 0.185172 0.0264895 0.0253434 0.106969 0.0598636 0.333497 0.0553955 0.23698
394 3 -13.3117 102.514 52.7492 25.0 0.0287617 0.0322368 0.209925 0.0612516 0.173823 0.0418454 0.21277 0.0126907 0.0199774 0.109698 0.0518613 0.325537 0.0816157 0.200874
395 3 -13.581 105.622 50.7157 24.0 0.033734 0.0812748 0.14699 0.0324014 0.187519 0.0561882 0.22166 0.0143415 0.023573 0.12091 0.0531863 0.361943 0.059885 0.226399
1769 2 -8.28354 106.263 52.1424 25.0 0.0306687 0.0921862 0.224371 0.0566276 0.15707 0.0674606 0.235206 0.0449278 0.0164703 0.306372 0.0286987 0.33253 0.0373245 0.208329
1770 3 -6.73868 106.402 52.2203 23.0 0.0260678 0.0630814 0.187736 0.0324751 0.127861 0.0475369 0.199493 0.023574 0.0238891 0.107171 0.054209 0.332714 0.0495135 0.236217
1771 3 -8.48119 102.661 52.6453 25.0 0.0342766 0.0354919 0.161438 0.052802 0.165901 0.0292501 0.22443 0.0160167 0.0120645 0.113793 0.0449639 0.339834 0.0781051 0.212912
1772 3 -8.78062 105.544 50.8297 24.0 0.033245 0.0939489 0.121377 0.0457836 0.177559 0.0606032 0.228394 0.0128553 0.0241208 0.113777 0.0555436 0.371738 0.0609064 0.238729
1774 3 -8.85008 105.497 53.3753 23.0 0.0227159 0.0587266 0.20258 0.0658772 0.142455 0.0546561 0.183364 0.0133704 0.0240443 0.107059 0.0415548 0.297568 0.0583052 0.196156
3112 3 -0.948956 101.242 52.7997 24.0 0.0279 0.0645223 0.250646 0.0390204 0.159199 0.0508281 0.242536 0.0187937 0.0150765 0.0976811 0.0507244 0.375144 0.0493914 0.26108
3137 3 -1.14421 103.625 50.9277 26.0 0.0260364 0.0678225 0.160959 0.0531085 0.171116 0.0480003 0.232261 0.0162525 0.0283703 0.111326 0.0354482 0.355179 0.0658159 0.229874
3144 1 -0.634444 106.99 50.6574 27.0 0.0543048 0.0614017 0.246188 0.0413422 0.180796 0.0549447 0.240755 0.0310807 0.0376531 0.0813822 0.0515817 0.257813 0.0563705 0.29832
3145 1 -0.308004 104.015 52.6846 26.0 0.0314878 0.136954 0.152762 0.0628421 0.133832 0.0827731 0.20639 0.0366967 0.0306048 0.130285 0.0386859 0.267552 0.0534882 0.308904
3146 2 -3.46476 106.327 52.0278 25.0 0.0377136 0.125552 0.218281 0.0579409 0.171028 0.0756769 0.214415 0.0452066 0.0193673 0.301937 0.0312108 0.33438 0.041547 0.203049
3147 3 -1.90333 106.542 52.2311 23.0 0.0333129 0.0490893 0.201133 0.0254628 0.142798 0.0515597 0.185983 0.0234957 0.0253459 0.113033 0.0608651 0.330387 0.0525219 0.240022
3148 3 -3.6239 102.569 52.6898 24.0 0.0286806 0.0437252 0.18322 0.0542854 0.174022 0.0344766 0.218684 0.0147172 0.0201664 0.113667 0.049092 0.3368 0.077776 0.217344
3149 3 -3.93533 105.743 50.6703 24.0 0.0372507 0.0941734 0.139177 0.0384771 0.174777 0.049581 0.225158 0.0126689 0.0229383 0.108754 0.0529201 0.358642 0.054289 0.232892
4523 2 1.51436 106.213 52.0891 25.0 0.0309493 0.0767383 0.235631 0.0807389 0.155694 0.0601887 0.224702 0.0455282 0.0204333 0.302332 0.0328754 0.337668 0.0446839 0.202466
4524 3 3.04886 106.378 52.1516 23.0 0.0250168 0.0508147 0.200391 0.0243162 0.137895 0.0494157 0.210354 0.0218009 0.0255594 0.106814 0.060556 0.341998 0.0491754 0.246616
4525 3 1.16175 102.598 52.6761 24.0 0.0306255 0.0506584 0.18187 0.0604724 0.171858 0.0374181 0.229743 0.0142632 0.0209566 0.111688 0.04487 0.344289 0.0769798 0.217103
4526 3 0.945643 105.637 50.7633 24.0 0.0363778 0.0941046 0.149744 0.0448857 0.186255 0.059026 0.235588 0.0165053 0.0223533 0.114806 0.0587296 0.367995 0.0556384 0.244511
10151 3 21.6495 99.8419 59.7683 22.0 0.0262853 0.0885124 0.121129 0.0668476 0.144484 0.055701 0.219088 0.0120532 0.0267474 0.136012 0.0421091 0.334962 0.0546928 0.186309
8803 1 18.199 107.347 56.6074 25.0 0.0340404 0.0343931 0.251885 0.0553839 0.178106 0.0436265 0.219314 0.0387273 0.0388153 0.0854561 0.0665749 0.309089 0.0676508 0.240404
5900 2 6.29921 106.29 52.0975 25.0 0.0285507 0.0712071 0.23182 0.0779942 0.156788 0.0447714 0.228213 0.0477058 0.0197656 0.30058 0.0326082 0.337725 0.0435288 0.199599
5901 3 7.88981 106.372 52.2082 23.0 0.0322244 0.0476767 0.207985 0.0313726 0.14707 0.0510743 0.214821 0.0311757 0.0187045 0.114923 0.0574373 0.338284 0.0557995 0.242635
5903 3 5.70677 105.683 50.7421 24.0 0.0320993 0.0987355 0.126194 0.0449235 0.178396 0.0553673 0.240669 0.0148243 0.0190851 0.11184 0.0667768 0.367238 0.0620354 0.23962
7275 1 13.9379 106.858 50.5855 27.0 0.0511711 0.0825118 0.194059 0.0284867 0.162243 0.0617456 0.196237 0.0308042 0.0386332 0.0849335 0.0533255 0.272219 0.0628269 0.299081
7276 1 14.1922 104.005 52.6372 26.0 0.039278 0.110248 0.144492 0.0597173 0.128839 0.0632789 0.234071 0.0438284 0.0245345 0.101592 0.0355771 0.287893 0.0472253 0.298027
7277 2 11.1404 106.309 51.9427 25.0 0.0390714 0.128219 0.231396 0.0498762 0.171092 0.0766293 0.243192 0.0472379 0.020136 0.298837 0.0315308 0.336689 0.0434387 0.197428
7278 3 12.704 106.501 52.148 23.0 0.0277724 0.0528947 0.202616 0.0241802 0.142092 0.0434497 0.191861 0.0273394 0.0276812 0.125917 0.061683 0.336416 0.0462516 0.247102
7279 3 10.9239 102.702 52.6108 24.0 0.0339949 0.0469181 0.182671 0.058871 0.158983 0.0426742 0.241368 0.0142073 0.0189685 0.122479 0.0444221 0.344267 0.0800285 0.218352
7280 3 10.5042 105.646 50.7186 24.0 0.0369235 0.103981 0.130601 0.0339922 0.175766 0.0548687 0.24505 0.0160847 0.0198788 0.123146 0.0590019 0.369341 0.047506 0.244834
10180 1 23.0296 107.492 56.7229 25.0 0.0393102 0.0421238 0.27871 0.0408087 0.195396 0.0445544 0.240536 0.0407951 0.0437813 0.0825778 0.0631209 0.321498 0.0601214 0.236554
8654 2 16.0452 106.157 52.1722 25.0 0.0372676 0.0997773 0.232955 0.0848845 0.171623 0.0704763 0.226999 0.0465616 0.0174003 0.301134 0.0320281 0.335244 0.0381179 0.200446
8655 3 17.6057 106.202 52.3521 23.0 0.0245423 0.0633833 0.214704 0.0318883 0.15431 0.0515043 0.233568 0.0309829 0.0219051 0.10794 0.0477749 0.345771 0.0370688 0.242521
8656 3 15.694 102.544 52.6501 26.0 0.037986 0.0323046 0.162257 0.0554602 0.166159 0.0362679 0.240131 0.0154087 0.0105333 0.124192 0.0498205 0.346872 0.0783294 0.208281
8657 3 15.5188 105.551 50.8194 23.0 0.0411883 0.0846886 0.116101 0.0421783 0.176729 0.0586942 0.229203 0.0158549 0.0229269 0.127389 0.0532095 0.365211 0.0559641 0.23734
9997 3 23.2879 101.114 52.7781 23.0 0.0269408 0.0543541 0.23236 0.041044 0.161341 0.0332824 0.240807 0.0187272 0.0185538 0.101268 0.0411132 0.370719 0.040394 0.254514
10030 1 23.9856 103.933 52.7318 25.0 0.0387775 0.17539 0.134825 0.0830151 0.134989 0.0797488 0.224744 0.0425426 0.0252635 0.0962119 0.043869 0.296423 0.055208 0.29652
10032 3 22.3676 106.35 52.2809 23.0 0.0247155 0.0640206 0.204226 0.0348683 0.154527 0.0396518 0.21091 0.0276136 0.0220233 0.111347 0.0464661 0.346877 0.0454895 0.241494
10033 3 20.6567 102.552 52.6181 24.0 0.0350565 0.0384916 0.167444 0.045408 0.172828 0.039054 0.242385 0.0181373 0.0122382 0.125897 0.042091 0.359134 0.0691554 0.223721
510 3 -11.8761 97.3177 58.4721 23.0 0.0436466 0.0458537 0.171284 0.0310714 0.159015 0.0491208 0.238939 0.0129114 0.0224668 0.140412 0.0455566 0.381658 0.0529864 0.223811
513 1 -13.4848 97.237 57.2514 28.0 0.0298696 0.0606491 0.212625 0.0473801 0.161285 0.0386918 0.228967 0.0345861 0.0354172 0.096739 0.0362168 0.304249 0.0463966 0.317764
1890 1 -8.71164 97.0148 57.1938 30.0 0.0287012 0.0282347 0.171941 0.0250986 0.14907 0.0450033 0.246568 0.0375462 0.0324222 0.0884169 0.0318171 0.310691 0.0434258 0.319305
1893 3 -9.63564 95.8587 58.4676 24.0 0.028009 0.0558476 0.230632 0.0274594 0.142234 0.0545641 0.238714 0.0174229 0.0144073 0.125831 0.0410647 0.38326 0.0506117 0.242306
3270 3 -4.7125 95.8773 58.5861 23.0 0.027222 0.0530672 0.24231 0.033544 0.164553 0.0500705 0.249629 0.0211801 0.0145086 0.120133 0.035934 0.391551 0.0406811 0.248831
2053 3 -9.63228 98.2809 60.1568 25.0 0.0191971 0.0434738 0.154204 0.0475624 0.148584 0.0330382 0.237675 0.0141124 0.0161182 0.137206 0.0398514 0.336252 0.0504511 0.186914
6024 3 4.94988 95.9463 58.5595 24.0 0.0227438 0.0617058 0.234311 0.0399394 0.149801 0.0498514 0.239107 0.019417 0.0129642 0.123171 0.0308995 0.37783 0.0447829 0.229912
4807 3 0.202633 98.3583 60.2178 27.0 0.0177765 0.0584291 0.171462 0.0365733 0.153518 0.0368101 0.247145 0.0114792 0.0171663 0.133274 0.0480418 0.350265 0.0526586 0.198001
6184 3 4.91782 98.2798 60.1482 27.0 0.0207464 0.0451941 0.157466 0.0516331 0.143553 0.0308293 0.242938 0.00892594 0.0219843 0.135285 0.0465431 0.340898 0.0561701 0.18757
6018 3 7.50085 97.2273 58.4137 24.0 0.0458934 0.0430344 0.21178 0.022327 0.151983 0.0438621 0.240184 0.0148682 0.0193329 0.140953 0.0490094 0.361628 0.0569999 0.195525
6021 1 5.78069 97.2303 57.2543 30.0 0.0238841 0.0507685 0.15427 0.0319204 0.140285 0.0589892 0.221361 0.0392496 0.0317156 0.079133 0.0405082 0.309248 0.0425961 0.312455
6031 3 6.80223 97.8216 55.5857 24.0 0.028779 0.0482224 0.241005 0.028524 0.167445 0.0399735 0.247463 0.0222123 0.0106219 0.119405 0.0392615 0.377476 0.0361228 0.242554
7395 3 12.2952 97.3052 58.364 24.0 0.0381302 0.056292 0.222967 0.043488 0.153412 0.0521909 0.248634 0.0133765 0.0182448 0.136113 0.0596747 0.363038 0.0576903 0.20834
7559 3 12.5392 97.9756 61.5817 23.0 0.021242 0.049752 0.220565 0.035925 0.152506 0.0545239 0.246286 0.0155076 0.0246674 0.106951 0.0284212 0.331508 0.0513108 0.204382
7561 3 9.69623 98.2662 60.1199 24.0 0.0154387 0.0470448 0.163518 0.0432506 0.155798 0.0393988 0.234618 0.0111178 0.0240021 0.133814 0.0430838 0.326595 0.0613368 0.177311
8938 3 14.5016 98.3064 60.0128 23.0 0.011799 0.0613657 0.160757 0.0354072 0.140235 0.0342813 0.226704 0.00982277 0.0239672 0.138683 0.0506007 0.323596 0.0574761 0.184637
516 3 -14.4709 95.9078 58.4377 24.0 0.0250763 0.0411131 0.21989 0.0308113 0.152194 0.0423143 0.239793 0.0179868 0.0171938 0.126942 0.0325135 0.392247 0.0507057 0.241716
10149 3 22.0213 97.266 58.4265 23.0 0.0439308 0.0458645 0.179196 0.0332213 0.159138 0.0425062 0.24373 0.0122869 0.0221848 0.146346 0.048462 0.386642 0.0582521 0.224479
10152 1 20.4715 97.0728 57.1306 29.0 0.0317918 0.0177221 0.227392 0.0300066 0.152165 0.040277 0.247095 0.0385664 0.0329694 0.0891692 0.0393898 0.313658 0.0405423 0.318363
10154 2 22.7414 95.8073 58.4262 26.0 0.0148683 0.0587659 0.204641 0.0640621 0.134971 0.0779055 0.249334 0.0454747 0.0156948 0.297195 0.0453582 0.342699 0.0323526 0.201314
10315 3 19.4319 98.3676 60.1323 25.0 0.0142171 0.0632952 0.164862 0.0454453 0.132709 0.0351039 0.240136 0.00843875 0.01715 0.142835 0.0446249 0.345952 0.0486638 0.196467
676 3 -14.4344 98.2984 60.1031 25.0 0.0181163 0.0379321 0.154787 0.051846 0.149873 0.03436 0.239305 0.0115095 0.0176194 0.136928 0.0435613 0.348955 0.0543734 0.192873
1918 1 -6.06537 107.462 56.5988 24.0 0.0363485 0.0262912 0.261913 0.0471552 0.177931 0.0597811 0.238025 0.0403635 0.0335719 0.0779599 0.0632415 0.303408 0.0725537 0.236191
10184 3 21.3853 102.236 58.693 23.0 0.0321835 0.0274936 0.254001 0.044801 0.112507 0.0472144 0.172246 0.011219 0.0336503 0.18359 0.0485502 0.32438 0.0499342 0.187615
397 3 -13.5464 105.311 53.3172 23.0 0.0163361 0.0959659 0.175854 0.0734903 0.135701 0.0544946 0.160542 0.0144526 0.0160513 0.105972 0.046667 0.285323 0.0604197 0.182765
507 1 -10.7894 99.0421 58.8062 25.0 0.0423676 0.0784754 0.127836 0.0529779 0.145298 0.0553532 0.209853 0.0298885 0.0383636 0.12235 0.0391903 0.262609 0.0482206 0.250826
508 2 -13.2122 100.67 58.7339 22.0 0.00800489 0.103726 0.196083 0.0536287 0.11622 0.0649798 0.168314 0.041673 0.0206433 0.325485 0.0350689 0.312549 0.0358708 0.226998
509 3 -9.85831 100.894 58.7395 23.0 0.0230724 0.0484354 0.171511 0.0580266 0.111457 0.0414721 0.200628 0.0240382 0.0420989 0.167165 0.0532721 0.338092 0.0794974 0.189398
511 3 -12.761 100.209 57.2323 26.0 0.0248911 0.0814387 0.15542 0.0599806 0.148737 0.0590469 0.182599 0.0170971 0.0169804 0.136991 0.0796163 0.340289 0.0690236 0.191588
512 3 -12.3359 99.9396 59.7787 24.0 0.0257389 0.0760278 0.139599 0.0670551 0.14401 0.062944 0.219341 0.0133321 0.0268391 0.135452 0.0378932 0.329136 0.0566222 0.179284
521 1 -13.8267 99.7418 55.5829 29.0 0.0519369 0.0754339 0.169041 0.0581994 0.185745 0.0617311 0.213656 0.0517305 0.0237149 0.0949988 0.0490781 0.303649 0.0844509 0.295415
524 3 -10.2933 101.582 55.5927 26.0 0.0389252 0.0484983 0.141879 0.0369707 0.163958 0.0573124 0.182693 0.0136269 0.0325625 0.128212 0.0681826 0.330987 0.0783088 0.19254
526 3 -10.2597 98.635 56.8049 24.0 0.0411338 0.0695962 0.158849 0.0367805 0.184136 0.0381213 0.227649 0.0100241 0.0198422 0.147202 0.0707407 0.361114 0.0718798 0.219969
527 1 -11.8516 102.053 54.1784 27.0 0.018305 0.0730748 0.227037 0.0319917 0.155074 0.0531235 0.198647 0.0430708 0.0357913 0.132843 0.0403996 0.28571 0.0851042 0.29724
528 1 -12.3129 104.949 54.8532 26.0 0.0192554 0.137036 0.161819 0.0647164 0.124526 0.0514027 0.156645 0.0483465 0.0324581 0.0689521 0.0369964 0.305711 0.0390051 0.244626
529 2 -9.78691 103.219 55.7917 24.0 0.0276327 0.0595491 0.185267 0.0536879 0.133672 0.0578861 0.144727 0.0451562 0.0240333 0.338073 0.0370018 0.309079 0.0462192 0.242556
530 3 -13.1008 103.421 55.7765 24.0 0.0102968 0.04893 0.182937 0.0453804 0.139814 0.0485465 0.166822 0.0262118 0.0242384 0.123595 0.0479352 0.287771 0.0572496 0.166696
531 3 -12.2014 106.875 55.1503 22.0 0.0309436 0.0472823 0.267911 0.0259707 0.153228 0.0488165 0.19928 0.0187537 0.0286918 0.105029 0.0517516 0.304823 0.0611776 0.165319
532 3 -10.7375 103.79 54.6138 22.0 0.0152607 0.0881872 0.149379 0.051918 0.138292 0.0525662 0.178229 0.0199172 0.0229465 0.110212 0.0506804 0.286419 0.0610899 0.148929
533 1 -11.2456 101.452 57.3024 23.0 0.022435 0.0284446 0.199529 0.0405553 0.121185 0.0451226 0.178619 0.0316969 0.0461915 0.0849611 0.0617678 0.27253 0.071358 0.239518
534 3 -10.2654 103.286 57.416 25.0 0.0335155 0.0340178 0.147805 0.0823954 0.10148 0.0579558 0.145451 0.0153492 0.0289319 0.164851 0.0557081 0.31818 0.0497706 0.172332
542 1 -11.7597 104.194 58.5382 27.0 0.0315757 0.0897342 0.122263 0.0576128 0.0962072 0.0538692 0.144177 0.0444757 0.0313159 0.0733815 0.0552822 0.292295 0.0742996 0.207869
543 2 -14.1695 106.1 58.2435 26.0 0.025031 0.0593442 0.228459 0.0593597 0.117689 0.0479247 0.183058 0.0468614 0.0355125 0.342598 0.05202 0.320665 0.0518091 0.24618
544 3 -12.6156 106.078 58.163 27.0 0.00971316 0.0357232 0.211165 0.0417203 0.126868 0.0404086 0.173772 0.0197827 0.0107755 0.153826 0.0442283 0.342464 0.0558023 0.195631
545 3 -12.6213 102.206 58.6698 23.0 0.0296507 0.0368315 0.229427 0.0518475 0.113454 0.04779 0.157576 0.0151908 0.0373567 0.164647 0.0385572 0.316206 0.0557455 0.168378
548 3 -10.0597 105.379 59.3966 23.0 0.0183522 0.0752641 0.15564 0.0815491 0.126241 0.0430101 0.217786 0.01655 0.0304432 0.170822 0.0677076 0.356624 0.0661857 0.199564
675 3 -13.1001 101.823 61.5427 20.0 0.0372631 0.0485546 0.195331 0.032879 0.154853 0.0366233 0.219971 0.0171857 0.031478 0.136549 0.0524621 0.332255 0.0685321 0.195632
678 1 -14.3954 102.899 59.5956 23.0 0.0442001 0.0684975 0.210302 0.0619573 0.124522 0.0587127 0.213929 0.0247127 0.0317238 0.0944427 0.0574692 0.241732 0.0509157 0.219134
679 1 -14.2934 105.138 61.4455 28.0 0.0286344 0.118932 0.167631 0.0583383 0.131463 0.0873586 0.239892 0.0343155 0.0273187 0.071886 0.0344614 0.292494 0.0678343 0.278582
680 2 -12.2102 103.161 61.5296 24.0 0.0290747 0.0965033 0.247362 0.0380901 0.181133 0.0939707 0.238515 0.0452721 0.0184819 0.325012 0.0272049 0.322673 0.0406462 0.218703
681 3 -10.697 103.006 61.2721 23.0 0.022078 0.0687682 0.194373 0.0390594 0.120871 0.0531571 0.203226 0.0293074 0.0104776 0.188136 0.05428 0.354135 0.0578996 0.213973
683 3 -12.8321 104.113 60.354 23.0 0.0275961 0.0636506 0.127811 0.067084 0.140576 0.0680673 0.207746 0.00842493 0.025073 0.181172 0.0593421 0.347484 0.0677083 0.207046
698 1 -11.4412 107.177 59.7209 28.0 0.019334 0.0674475 0.229971 0.0344896 0.146729 0.0381116 0.243016 0.0367257 0.0339364 0.0736543 0.0315796 0.302088 0.0549999 0.258272
1738 3 -8.26221 100.443 53.8613 23.0 0.0242301 0.100108 0.133518 0.0402343 0.170259 0.0533993 0.243383 0.0125915 0.0168483 0.11523 0.0409017 0.362279 0.0637968 0.233592
1884 1 -5.97656 98.9157 58.7389 26.0 0.0412364 0.0739606 0.119585 0.0573562 0.157411 0.0616391 0.20899 0.0369669 0.02639 0.132604 0.044305 0.268284 0.0559589 0.265292
1885 2 -8.31425 100.692 58.6144 23.0 0.0198666 0.0606236 0.179755 0.0513754 0.114471 0.0704852 0.174604 0.0417583 0.0217608 0.320376 0.0352453 0.311765 0.0371866 0.218733
1886 3 -5.03113 100.854 58.8327 24.0 0.0277631 0.0642845 0.160183 0.057085 0.106431 0.0387613 0.208253 0.0238046 0.0271527 0.186364 0.0390871 0.343766 0.061577 0.197869
1888 3 -7.80544 100.269 57.1292 27.0 0.0210595 0.0795561 0.130682 0.0567072 0.148095 0.0473172 0.185663 0.0228075 0.0341791 0.148185 0.0857849 0.336346 0.081772 0.197961
1889 3 -7.58598 99.7836 59.6173 23.0 0.0261134 0.0700509 0.127046 0.0802237 0.125811 0.0451302 0.202499 0.0161427 0.0275639 0.140227 0.0588751 0.33108 0.0696904 0.187457
1898 1 -9.00585 99.8164 55.5493 27.0 0.049371 0.0878987 0.135831 0.0497165 0.163543 0.0527732 0.229443 0.0531194 0.0270256 0.0976595 0.0513678 0.301789 0.0858971 0.296573
1901 3 -5.37676 101.559 55.6562 25.0 0.0352945 0.0499237 0.164587 0.0457583 0.168652 0.029604 0.178013 0.0182239 0.035789 0.150214 0.0631693 0.339732 0.0868909 0.199648
1903 3 -5.41206 98.652 56.8067 25.0 0.0376587 0.0659937 0.154417 0.0408092 0.189404 0.0328394 0.232862 0.00846479 0.0134113 0.142952 0.0554681 0.371219 0.0526909 0.230935
1904 1 -6.97313 102.037 54.3135 25.0 0.0169346 0.0743192 0.183427 0.0398164 0.16278 0.0408982 0.196239 0.0359793 0.0429175 0.127348 0.0390543 0.278222 0.0830037 0.281882
1905 1 -7.5042 105.009 54.8167 24.0 0.0137391 0.137553 0.157969 0.0612831 0.115158 0.0535331 0.167294 0.0499914 0.0349268 0.0673949 0.039609 0.288826 0.0484567 0.241655
1906 2 -4.88265 103.113 55.9196 26.0 0.0260565 0.0556739 0.208425 0.0500632 0.136025 0.0489775 0.150158 0.0468803 0.0187257 0.329294 0.0255966 0.310727 0.0334446 0.225479
1907 3 -8.26346 103.347 55.5916 25.0 0.010869 0.0363274 0.182401 0.0425111 0.131117 0.0450398 0.176156 0.0232737 0.024831 0.127556 0.050329 0.297261 0.0701205 0.174974
1908 3 -7.30864 106.913 55.0547 21.0 0.0320797 0.0494151 0.246991 0.0365522 0.142521 0.0439766 0.213086 0.017719 0.024867 0.113789 0.0578736 0.309003 0.0606325 0.17366
1909 3 -5.74954 103.792 54.6584 20.0 0.0208608 0.0729075 0.142734 0.0513728 0.145743 0.0436516 0.159455 0.0160676 0.0220908 0.114728 0.052746 0.293134 0.0561089 0.161653
1910 1 -6.26204 101.467 57.3566 23.0 0.0346263 0.0428459 0.193069 0.0372022 0.137052 0.044748 0.166773 0.0297515 0.0442218 0.0895343 0.0635795 0.261619 0.0709051 0.245512
1911 3 -5.47412 103.327 57.4353 25.0 0.0440757 0.0542312 0.161985 0.090954 0.107334 0.0724712 0.167426 0.0186767 0.0278077 0.180029 0.0479553 0.32532 0.0520606 0.175808
1919 1 -6.94006 104.195 58.4762 27.0 0.0250243 0.080847 0.115144 0.0717337 0.103168 0.0690577 0.157734 0.0456758 0.0225534 0.0695926 0.0454049 0.275529 0.0795501 0.209068
1920 2 -9.2273 106.102 58.2082 27.0 0.0167773 0.0286034 0.193284 0.0734555 0.0922768 0.0515604 0.203294 0.0474847 0.0362369 0.340786 0.0483625 0.314409 0.051306 0.240011
1921 3 -7.70811 106.112 58.295 27.0 0.0136833 0.0440183 0.216644 0.0451798 0.122005 0.0534736 0.184252 0.0190036 0.0157232 0.155628 0.0380956 0.343691 0.0469907 0.199488
1922 3 -7.75429 102.215 58.5847 24.0 0.0308501 0.0287055 0.227878 0.0562672 0.119703 0.0582454 0.169607 0.0168205 0.0301874 0.184208 0.0350775 0.33376 0.052799 0.181992
1923 3 -9.66447 105.666 56.7276 23.0 0.0204071 0.0477765 0.194211 0.0619115 0.118798 0.067899 0.165597 0.017473 0.0303504 0.1127 0.0513869 0.297832 0.0563082 0.14989
1925 3 -5.25712 105.388 59.2689 22.0 0.0208176 0.0706706 0.145835 0.0934528 0.121 0.044311 0.209667 0.0148183 0.032964 0.16957 0.0740665 0.35342 0.0624625 0.190266
2052 3 -8.1423 101.708 61.416 21.0 0.0362366 0.0448172 0.187273 0.0340963 0.153214 0.0441525 0.208211 0.0196934 0.0252661 0.143908 0.0406253 0.331158 0.0564033 0.193631
2055 1 -9.65076 102.951 59.4089 24.0 0.0425556 0.0783941 0.195266 0.0658958 0.120581 0.0618633 0.210175 0.0326317 0.0493026 0.0784711 0.0732423 0.242201 0.069214 0.205382
2056 1 -9.39302 104.973 61.4558 29.0 0.0368583 0.116044 0.131154 0.0569575 0.158627 0.0752626 0.24008 0.029699 0.016795 0.0731238 0.0379405 0.284057 0.0631364 0.257503
2058 3 -5.84289 103.204 61.2914 23.0 0.0208077 0.063016 0.165707 0.0506084 0.134581 0.0495438 0.220386 0.0314108 0.0303611 0.176477 0.0645107 0.362174 0.0633964 0.229512
2060 3 -7.94438 104.043 60.2351 22.0 0.0229399 0.0554249 0.110294 0.0714775 0.138656 0.0677626 0.211189 0.00983094 0.0268737 0.187751 0.0583093 0.357309 0.075011 0.220103
2075 1 -6.59989 107.121 59.6933 28.0 0.0194221 0.0389651 0.226098 0.0376018 0.131176 0.0236287 0.244489 0.0370194 0.0335464 0.0682257 0.0351949 0.298527 0.0551407 0.253343
546 3 24.0885 105.795 56.7667 22.0 0.0188449 0.0591058 0.185261 0.047456 0.130176 0.0553483 0.147495 0.016602 0.0330947 0.106422 0.058106 0.300946 0.0651029 0.155161
10185 3 19.4595 105.774 56.7346 25.0 0.0227614 0.0521497 0.172589 0.0648614 0.126626 0.0620451 0.175951 0.0147319 0.0324439 0.109514 0.0610535 0.3097 0.0775722 0.164705
3151 3 -3.97757 105.445 53.2354 23.0 0.0192397 0.0773358 0.180769 0.0473354 0.132317 0.0476034 0.172617 0.0118823 0.0182202 0.107634 0.052767 0.288176 0.0668188 0.192947
4528 3 0.980194 105.382 53.2891 23.0 0.0261641 0.0810615 0.190991 0.0577187 0.143389 0.0466855 0.196134 0.0103518 0.0187811 0.109124 0.0464775 0.297574 0.0582589 0.1967
3300 3 -4.85608 105.875 56.6584 24.0 0.021168 0.0533385 0.184421 0.0550683 0.131732 0.0573786 0.158144 0.0191857 0.0295115 0.119265 0.0527488 0.296146 0.0575257 0.155744
3295 1 -1.29865 107.325 56.5867 25.0 0.0463526 0.0490099 0.301372 0.0487066 0.170148 0.064157 0.247879 0.0406374 0.0339422 0.0800122 0.0655599 0.302642 0.0676978 0.237769
3115 3 -3.43408 100.332 53.8714 23.0 0.0220977 0.103132 0.152555 0.0527509 0.174475 0.0529455 0.248204 0.0141083 0.0154321 0.114925 0.0494989 0.367071 0.0657797 0.231057
3261 1 -1.03738 99.0057 58.7645 24.0 0.0441652 0.103452 0.0937678 0.0540228 0.168537 0.0707349 0.213185 0.0377488 0.0237904 0.125465 0.0496611 0.263273 0.0539092 0.266409
3262 2 -3.47026 100.663 58.6915 24.0 0.012192 0.123042 0.165514 0.0340785 0.138618 0.0749417 0.178625 0.0407649 0.0219957 0.319856 0.0354192 0.311403 0.0418078 0.215881
3263 3 -0.148372 100.874 58.8425 22.0 0.0245094 0.0508646 0.15745 0.0600979 0.124551 0.0345233 0.204195 0.0198035 0.0380005 0.178574 0.0332852 0.340377 0.0738399 0.184539
3265 3 -3.02081 100.223 57.1829 24.0 0.0255264 0.0736584 0.132354 0.059525 0.168501 0.0558292 0.199919 0.0176619 0.0114384 0.146853 0.0803427 0.34942 0.0747395 0.200119
3266 3 -2.63113 99.7984 59.6624 22.0 0.0239232 0.0803218 0.12083 0.0636066 0.152256 0.0668968 0.216684 0.0113324 0.0258774 0.140883 0.0329794 0.332438 0.0571007 0.184216
3275 1 -4.14726 99.8251 55.625 29.0 0.043991 0.0779793 0.119164 0.0644764 0.171315 0.0489154 0.226304 0.0524815 0.0265453 0.0971103 0.0531604 0.299256 0.0790143 0.294028
3278 3 -0.638861 101.608 55.6582 25.0 0.0342377 0.0498587 0.160086 0.0498591 0.16512 0.031209 0.183544 0.0171948 0.037091 0.143782 0.0632191 0.345174 0.0869269 0.194625
3280 3 -0.602705 98.7369 56.7866 25.0 0.0442048 0.0641171 0.162603 0.0474663 0.192041 0.0415028 0.235424 0.00937513 0.0143225 0.139739 0.0572807 0.371755 0.0497162 0.227271
3281 1 -2.12297 102.01 54.2635 26.0 0.016426 0.0845345 0.190506 0.0418471 0.173757 0.0484378 0.202583 0.0386423 0.0351877 0.140693 0.0354629 0.275748 0.0984664 0.291274
3282 1 -2.71112 104.994 54.8832 22.0 0.0181664 0.117462 0.145316 0.0655698 0.135257 0.0593425 0.174972 0.0539619 0.037391 0.0789368 0.029881 0.298334 0.0484837 0.24249
3283 2 -0.152677 103.178 55.8666 25.0 0.0204046 0.0424153 0.200486 0.0719205 0.134466 0.058582 0.154712 0.0461676 0.0199007 0.331064 0.0235637 0.311102 0.0358422 0.225702
3284 3 -3.35426 103.28 55.7806 27.0 0.00943882 0.0681382 0.176242 0.0461248 0.138999 0.0564532 0.177203 0.0226537 0.0276183 0.135386 0.0481578 0.30057 0.065551 0.179058
3285 3 -2.50554 106.908 55.1176 21.0 0.034019 0.0349458 0.25336 0.0293517 0.13973 0.0471164 0.211903 0.01628 0.0254622 0.116505 0.0515785 0.308166 0.0594265 0.171567
3286 3 -0.98743 103.821 54.5713 22.0 0.0147099 0.0812047 0.149837 0.0521419 0.138097 0.0559481 0.174401 0.0174351 0.0257654 0.116638 0.0436564 0.302679 0.0494167 0.163678
3287 1 -1.4196 101.423 57.4559 23.0 0.0332965 0.0535713 0.171068 0.0387775 0.126127 0.0363182 0.173675 0.0313488 0.0459666 0.0941838 0.0564631 0.2602 0.074901 0.243915
3288 3 -0.574968 103.253 57.4983 25.0 0.0284358 0.035669 0.145108 0.0785522 0.10343 0.0572621 0.161022 0.0189627 0.0260399 0.176243 0.054132 0.322883 0.050017 0.167922
3296 1 -2.03868 104.222 58.4939 28.0 0.0236945 0.0809694 0.121306 0.0704728 0.103721 0.0675996 0.15428 0.043474 0.0402921 0.0955124 0.061899 0.290524 0.0742944 0.205544
3297 2 -4.39063 106.166 58.1314 27.0 0.0199898 0.0534369 0.210341 0.0689316 0.121162 0.0429938 0.182537 0.0471354 0.0363168 0.338363 0.0502926 0.313509 0.0523162 0.233348
3298 3 -2.84604 106.102 58.2124 27.0 0.0158094 0.0386325 0.22096 0.0429807 0.125377 0.0469641 0.17821 0.0167888 0.0170752 0.15657 0.0420129 0.343992 0.0555418 0.193589
3299 3 -2.88297 102.169 58.5872 25.0 0.0299971 0.0384412 0.213829 0.0531661 0.119614 0.0426576 0.17044 0.0131801 0.0400867 0.176351 0.0513209 0.331943 0.0681674 0.175195
3302 3 -0.469768 105.333 59.282 23.0 0.0195746 0.0730853 0.152661 0.0913498 0.123794 0.046081 0.201428 0.0165556 0.0331122 0.17148 0.0812328 0.346842 0.0681101 0.18312
3429 3 -3.38358 101.725 61.4638 21.0 0.0370292 0.0540253 0.181515 0.031253 0.167756 0.0546775 0.213902 0.0145443 0.0331176 0.142185 0.0483035 0.343646 0.0697689 0.210697
3432 1 -4.74258 103.06 59.4203 24.0 0.043319 0.0741948 0.188011 0.069092 0.125885 0.0645753 0.214971 0.0341894 0.0451304 0.0824174 0.0573292 0.238748 0.0879108 0.223322
3433 1 -4.49573 105.114 61.4179 27.0 0.0267803 0.111929 0.141825 0.0635733 0.146409 0.0775167 0.245259 0.0292038 0.0178246 0.073016 0.0376763 0.283599 0.0650563 0.255009
3434 2 -2.58322 103.143 61.4634 24.0 0.0257353 0.103767 0.20653 0.0413538 0.182595 0.0968298 0.236955 0.0432381 0.0173915 0.327546 0.033537 0.316576 0.0394485 0.217452
3435 3 -1.0535 103.1 61.3135 23.0 0.0213683 0.0581583 0.163488 0.0394116 0.119765 0.0396914 0.19994 0.02743 0.0182176 0.186079 0.0574695 0.350548 0.0613201 0.21366
3436 3 -3.30216 106.773 61.2305 27.0 0.0278727 0.0323826 0.202344 0.0428242 0.175905 0.0495047 0.248951 0.00856154 0.0245332 0.137233 0.0663387 0.386198 0.0642483 0.237028
3437 3 -3.16197 104.028 60.2366 22.0 0.0243059 0.0504214 0.111465 0.0749446 0.149217 0.068067 0.19605 0.00809502 0.0269245 0.184377 0.0580449 0.350722 0.0695527 0.2048
3452 1 -1.83215 107.215 59.5529 28.0 0.0122744 0.062122 0.205683 0.0392903 0.149278 0.040908 0.217826 0.0394037 0.0611276 0.0807293 0.0544439 0.297154 0.0722313 0.27033
4492 3 1.37176 100.366 53.8603 24.0 0.0249757 0.0970195 0.142256 0.044366 0.16795 0.0532441 0.22887 0.0135313 0.0165154 0.107993 0.0438522 0.360714 0.0664095 0.230344
4638 1 3.69074 99.0385 58.7349 26.0 0.0349856 0.0801991 0.11747 0.0571223 0.149526 0.0532483 0.198896 0.0323825 0.0402617 0.114647 0.0399457 0.256686 0.0403299 0.251355
4639 2 1.38604 100.739 58.6649 22.0 0.0227513 0.110775 0.186063 0.0443867 0.12581 0.0774356 0.182218 0.0402942 0.0206093 0.322834 0.0358704 0.314717 0.0391047 0.220721
4640 3 4.71368 100.947 58.7539 23.0 0.0247072 0.0742539 0.187279 0.0474568 0.117022 0.0552958 0.186709 0.0206278 0.0363168 0.181226 0.0368263 0.332517 0.0735425 0.183887
4642 3 1.83614 100.261 57.1665 25.0 0.0235574 0.0646452 0.148681 0.0614512 0.158717 0.0415522 0.200038 0.0211101 0.0252413 0.146922 0.0814459 0.339774 0.0765514 0.19345
4643 3 2.22904 99.9796 59.6833 24.0 0.0208705 0.0893397 0.121048 0.0657728 0.14826 0.0659246 0.221665 0.0154772 0.0268459 0.139839 0.035555 0.3322 0.0526653 0.179542
4652 1 0.670932 99.8412 55.5699 26.0 0.0460792 0.0889383 0.0930985 0.0644209 0.193237 0.0631295 0.215857 0.0497032 0.031081 0.117309 0.0658847 0.28356 0.080013 0.299777
4655 3 4.20896 101.575 55.5597 24.0 0.0368984 0.0501346 0.148229 0.0415605 0.16579 0.055382 0.184 0.0170998 0.0239063 0.131499 0.0543156 0.340152 0.0847148 0.197025
4657 3 4.2874 98.6988 56.815 23.0 0.0345118 0.0694021 0.152427 0.0619473 0.164715 0.0427691 0.205378 0.00816441 0.0103398 0.139484 0.0581167 0.363634 0.0525571 0.221747