ITEM: TIMESTEP
1500
ITEM: NUMBER OF ATOMS
320
ITEM: BOX BOUNDS pp pp pp
-14.54184 24.2364
80.0 135.0
35.0 90.0
ITEM: ATOMS id type x y z coord q2 q3 q4 q5 q6 q7 q8 q2_mono q3_mono q4_mono q5_mono q6_mono q7_mono q8_mono
8800 3 19.2375 107.499 58.3464 25.0 0.0276038 0.0461522 0.157982 0.0400451 0.168995 0.0334008 0.227191 0.0105919 0.0235547 0.112631 0.0662522 0.350256 0.0863245 0.200595
10180 1 23.2318 107.319 56.6101 26.0 0.0407499 0.0371623 0.212487 0.0443249 0.183601 0.0506892 0.227712 0.0369994 0.0422946 0.10062 0.0697064 0.311763 0.054799 0.261846
10181 1 22.1746 104.199 58.6374 27.0 0.0302528 0.0733924 0.123588 0.0545035 0.120679 0.0501593 0.175294 0.0320783 0.050333 0.111341 0.0508997 0.273107 0.0951088 0.21499
10172 1 22.6479 101.487 57.3921 23.0 0.0399758 0.0417793 0.225364 0.0501049 0.107815 0.0515191 0.192567 0.0269269 0.0675816 0.1119 0.0455049 0.265377 0.0669465 0.253148
1770 3 -6.58398 106.124 52.2922 22.0 0.0265803 0.052571 0.217611 0.0343386 0.158461 0.0337513 0.248759 0.0262793 0.0206439 0.110095 0.0492724 0.366353 0.0375452 0.248294
4524 3 3.15878 106.17 52.4181 23.0 0.0237055 0.0633553 0.174147 0.0395162 0.129653 0.0405388 0.244559 0.0260246 0.0190165 0.112718 0.0511102 0.353916 0.0422855 0.247436
4525 3 1.10053 102.524 52.6336 26.0 0.0319287 0.0309789 0.175146 0.0460763 0.175075 0.0408718 0.248229 0.010179 0.0159432 0.114638 0.0545453 0.363825 0.0840989 0.222179
5901 3 7.95171 106.194 52.2662 23.0 0.0246436 0.058055 0.205874 0.0268979 0.136226 0.0459944 0.230787 0.0280074 0.0204483 0.105281 0.0515464 0.356091 0.0441477 0.246435
5902 3 5.92192 102.54 52.6132 26.0 0.0325241 0.0278418 0.153793 0.049684 0.175634 0.0428714 0.245301 0.0143503 0.0149745 0.116993 0.0468737 0.357792 0.0742641 0.21519
7278 3 12.8011 106.227 52.2256 23.0 0.0258568 0.049434 0.211457 0.0290426 0.15537 0.0416402 0.231026 0.020627 0.0225538 0.112273 0.05563 0.366772 0.0482267 0.248106
10173 3 23.2528 103.393 57.15 22.0 0.0359222 0.0225842 0.174062 0.0455222 0.109825 0.0552389 0.197093 0.016325 0.0263764 0.153109 0.046332 0.288996 0.0711329 0.178894
674 3 -11.6675 97.873 61.667 23.0 0.0207127 0.0494023 0.216027 0.03864 0.133755 0.0512586 0.24508 0.013927 0.0242916 0.113907 0.0347052 0.368508 0.0585536 0.223954
1893 3 -9.70234 95.9218 58.6231 24.0 0.0258581 0.0570773 0.237956 0.0262852 0.147892 0.0508589 0.233066 0.0187226 0.0149689 0.122973 0.0308922 0.388174 0.0476423 0.236505
2053 3 -9.72245 98.3708 60.1409 25.0 0.0133162 0.0595679 0.151325 0.0440014 0.130068 0.0306275 0.224037 0.010076 0.0193117 0.144761 0.0365689 0.341813 0.0510178 0.188672
3270 3 -4.84205 95.9378 58.5755 23.0 0.0284365 0.0574959 0.238492 0.0286691 0.156813 0.0522011 0.23488 0.0185434 0.0147277 0.124556 0.0316054 0.389127 0.0513781 0.237586
3430 3 -4.86248 98.3708 60.128 25.0 0.0117606 0.0599108 0.152561 0.0409216 0.132536 0.0357839 0.230822 0.010913 0.0184596 0.144579 0.0377454 0.341603 0.048219 0.192634
3428 3 -1.9502 97.8352 61.7033 23.0 0.020473 0.0514336 0.217915 0.0362521 0.135368 0.0541613 0.245974 0.0135981 0.0270934 0.114501 0.0394375 0.366488 0.0578695 0.2215
4641 3 2.5154 97.2703 58.3855 23.0 0.0473008 0.0432574 0.222405 0.0345006 0.149348 0.0420493 0.247909 0.016098 0.0173413 0.142735 0.0555108 0.373023 0.0584143 0.2079
4647 3 0.0127787 95.8956 58.5655 24.0 0.0261936 0.0511475 0.22565 0.0340854 0.166603 0.0530107 0.233813 0.0187707 0.01472 0.120921 0.0297216 0.38306 0.0464154 0.230464
4654 3 1.84836 97.8247 55.5822 24.0 0.0307444 0.0510232 0.243705 0.0364135 0.16273 0.0503743 0.247868 0.0209292 0.00598917 0.122268 0.0437705 0.383714 0.0428919 0.247163
4805 3 2.88127 97.8337 61.6593 23.0 0.0223322 0.052364 0.213041 0.0421482 0.137688 0.0528212 0.245202 0.0140466 0.0265443 0.112772 0.0378763 0.367343 0.0581764 0.221176
4807 3 -0.0290313 98.3278 60.1418 25.0 0.0171909 0.0512581 0.139697 0.043518 0.136368 0.0298026 0.222477 0.00969221 0.0242699 0.140546 0.0436157 0.342511 0.0570295 0.187037
6024 3 4.81502 95.925 58.534 24.0 0.0250167 0.0601368 0.243505 0.0256565 0.156219 0.0538871 0.241298 0.0187831 0.0174457 0.119647 0.0240135 0.388111 0.0397187 0.233416
6184 3 4.79969 98.349 60.1056 25.0 0.0145555 0.0589428 0.155188 0.0420721 0.134324 0.0344198 0.225825 0.00962381 0.0204225 0.142587 0.0374606 0.342356 0.0522641 0.186203
7401 3 9.67893 95.8988 58.5245 24.0 0.0234044 0.0460101 0.227357 0.0338187 0.150937 0.0433139 0.24741 0.0188028 0.0145176 0.122196 0.0315506 0.39101 0.0471541 0.237046
7559 3 12.616 97.8233 61.6789 23.0 0.0217209 0.0523907 0.21455 0.0402569 0.138127 0.0540577 0.246609 0.0145129 0.0267252 0.115543 0.0420683 0.367444 0.0606424 0.22641
7561 3 9.63782 98.2395 60.0041 25.0 0.0220213 0.0460153 0.170639 0.0406542 0.13673 0.0447491 0.228722 0.0100316 0.0216891 0.141723 0.035131 0.340925 0.0501753 0.188745
8778 3 14.5775 95.8898 58.5336 24.0 0.027749 0.0544478 0.239908 0.0315626 0.150986 0.0506281 0.243214 0.0172975 0.015309 0.120945 0.0326009 0.387045 0.049462 0.238249
8938 3 14.5543 98.3288 60.0969 25.0 0.0123347 0.0559609 0.148717 0.039625 0.132481 0.0334057 0.229643 0.0105817 0.0201885 0.140338 0.0314634 0.34097 0.0483544 0.19154
516 3 -14.516 95.9094 58.6724 23.0 0.026263 0.0635745 0.230837 0.0359014 0.157159 0.059006 0.237748 0.0185232 0.0137549 0.120273 0.0333505 0.381853 0.0485432 0.230721
676 3 24.2088 98.3902 60.1381 24.0 0.014014 0.0591788 0.145057 0.0418396 0.130069 0.0366101 0.219478 0.00887319 0.0208102 0.140317 0.0378167 0.341591 0.0520939 0.190477
8772 3 17.0966 97.2696 58.4644 23.0 0.0461692 0.0421298 0.214972 0.0302771 0.138314 0.0374162 0.247081 0.0124182 0.0228565 0.140286 0.0466938 0.379687 0.0504047 0.221763
8777 2 17.8438 95.8117 58.5385 26.0 0.0230729 0.0622094 0.219383 0.0394846 0.137601 0.0468527 0.226862 0.0438866 0.0244293 0.295033 0.0503955 0.348809 0.0400288 0.207639
8936 3 17.4554 97.8659 61.7358 24.0 0.0214314 0.0416338 0.203996 0.0394176 0.137941 0.0500735 0.246203 0.0131407 0.0283048 0.115723 0.0354554 0.368767 0.0569011 0.22548
10145 3 19.4277 93.5271 56.9812 26.0 0.0200863 0.0533359 0.169152 0.0545276 0.162854 0.043312 0.247602 0.0140584 0.0146228 0.14121 0.0478257 0.393244 0.0458198 0.239647
10149 3 21.9822 97.2517 58.5123 23.0 0.0448622 0.0389983 0.204952 0.0374788 0.140756 0.0431236 0.238303 0.0130141 0.0245671 0.140988 0.0472292 0.374491 0.0512633 0.218214
10152 1 20.2394 97.252 57.2666 29.0 0.0259729 0.0277405 0.18746 0.0358848 0.14137 0.0416614 0.22594 0.0362741 0.0407887 0.0945253 0.0362256 0.303046 0.0487782 0.316779
10153 1 20.5168 94.0769 58.5489 25.0 0.0447387 0.119607 0.0897846 0.0640742 0.193836 0.101293 0.239523 0.0445926 0.0316937 0.0805381 0.0263588 0.327876 0.0503952 0.316626
10154 2 22.6975 95.7735 58.6289 25.0 0.0250207 0.0573817 0.257118 0.0540293 0.152532 0.071065 0.246395 0.0424884 0.0223562 0.296466 0.0520983 0.348602 0.0413231 0.211
10155 3 19.42 95.9535 58.5304 24.0 0.0251471 0.0641842 0.219542 0.0377395 0.14379 0.0536156 0.226513 0.0171937 0.0149111 0.128118 0.0273162 0.381648 0.0466685 0.23125
10157 3 21.9639 94.9466 57.5172 23.0 0.0249857 0.0875842 0.135208 0.0554216 0.166392 0.0497312 0.241587 0.00923447 0.0209397 0.135173 0.0359881 0.380141 0.0456776 0.234602
10309 1 20.9281 96.9944 60.1757 27.0 0.0427798 0.0361039 0.217985 0.0493652 0.134136 0.0330077 0.246812 0.0412336 0.0342118 0.10226 0.0430681 0.290614 0.048699 0.297216
10313 3 22.2786 97.808 61.659 23.0 0.0208172 0.0450114 0.21244 0.0320927 0.120419 0.0418793 0.247364 0.0125989 0.0257423 0.112761 0.0344883 0.369697 0.0569387 0.224604
10315 3 19.3634 98.3486 60.1266 25.0 0.0154285 0.0454497 0.143384 0.0528078 0.129902 0.0345862 0.226162 0.00950233 0.0213974 0.142374 0.0385868 0.341576 0.0504428 0.191682
1918 1 -5.92505 107.383 56.6 25.0 0.033051 0.0275389 0.25999 0.0323278 0.18488 0.0443008 0.225564 0.02905 0.0296473 0.0975478 0.0629584 0.30494 0.0466539 0.237406
541 1 -10.7189 107.332 56.6045 25.0 0.0352838 0.0322439 0.234039 0.0397541 0.192526 0.0507355 0.224989 0.0415009 0.0593428 0.102089 0.0697827 0.320178 0.0568555 0.25723
397 3 -13.6702 105.388 53.4931 24.0 0.0274511 0.0875103 0.171531 0.0603225 0.168557 0.0441407 0.245664 0.0113665 0.0249481 0.122515 0.0380344 0.338837 0.0660821 0.217149
507 1 -10.9748 99.0354 58.772 26.0 0.0383011 0.0883637 0.111891 0.0582951 0.145118 0.0549725 0.198749 0.0310999 0.0416646 0.113785 0.0371469 0.271056 0.0474961 0.255227
508 2 -13.2781 100.783 58.7158 22.0 0.0187286 0.0867426 0.212629 0.0346004 0.127417 0.0740302 0.191645 0.0402739 0.0196732 0.308913 0.0340262 0.338827 0.0416641 0.22284
509 3 -9.97664 100.984 58.8551 22.0 0.0320784 0.062079 0.188036 0.055582 0.113329 0.0583072 0.207503 0.0224373 0.0279591 0.172633 0.053369 0.310717 0.0547466 0.190012
511 3 -12.8681 100.252 57.2795 25.0 0.0200789 0.0733397 0.154512 0.060139 0.156372 0.0502127 0.206916 0.0232179 0.0194816 0.148039 0.0814788 0.345195 0.0733506 0.207933
512 3 -12.4547 99.9453 59.7556 22.0 0.0207241 0.0784762 0.135279 0.0760091 0.128318 0.0582277 0.202235 0.0149148 0.0297619 0.14373 0.0339473 0.323197 0.0504917 0.180621
521 1 -13.9501 99.8072 55.6057 26.0 0.0349498 0.105769 0.188463 0.0689439 0.155685 0.0608352 0.242602 0.0492498 0.0321387 0.121127 0.0467268 0.292986 0.0853504 0.300399
524 3 -10.5032 101.525 55.5549 25.0 0.0339394 0.0540071 0.150338 0.0398463 0.167268 0.0527693 0.210795 0.0183463 0.0371144 0.146357 0.0589646 0.343959 0.1016 0.210903
526 3 -10.3982 98.726 56.8551 25.0 0.036284 0.0709177 0.146292 0.042226 0.168687 0.0320852 0.222059 0.00913666 0.0154525 0.14666 0.0517966 0.373428 0.0498762 0.231234
527 1 -12.089 102.08 54.1965 26.0 0.0258041 0.0503156 0.224074 0.0329413 0.156048 0.038377 0.235447 0.0420496 0.0427344 0.135134 0.044528 0.287209 0.071606 0.298553
528 1 -12.6608 104.924 55.1886 25.0 0.0213919 0.143764 0.169177 0.0715915 0.127812 0.0746133 0.202699 0.0447002 0.0346957 0.105798 0.028972 0.308817 0.0443138 0.248012
529 2 -10.0071 103.12 55.7378 24.0 0.0345775 0.0359667 0.279904 0.0551205 0.11673 0.0378896 0.210112 0.0440548 0.0188002 0.317925 0.024512 0.334361 0.0337484 0.225105
530 3 -13.3768 103.13 55.5458 26.0 0.0326652 0.0446437 0.236064 0.0279484 0.141399 0.0417521 0.209121 0.0225882 0.0291228 0.122838 0.0539931 0.305623 0.0685218 0.196381
531 3 -11.974 106.739 55.1755 23.0 0.0295911 0.0487674 0.219073 0.0352219 0.163054 0.0577836 0.245057 0.0193786 0.0233623 0.110877 0.0543874 0.324333 0.0486759 0.193506
532 3 -10.8635 103.801 54.5561 22.0 0.0168483 0.0815171 0.188955 0.056508 0.139067 0.0460075 0.224548 0.0136101 0.0229966 0.117521 0.0641346 0.332115 0.0587047 0.198022
533 1 -11.2421 101.438 57.342 23.0 0.0389217 0.0586578 0.209466 0.0463602 0.113956 0.0496364 0.184658 0.0281036 0.0496622 0.111009 0.0490241 0.272036 0.0561931 0.252671
534 3 -10.5782 103.344 57.204 22.0 0.0409834 0.0482328 0.20123 0.0729683 0.104258 0.0554057 0.198385 0.015096 0.0296487 0.148367 0.0554395 0.286271 0.0783504 0.184625
542 1 -11.7063 104.224 58.614 26.0 0.0308678 0.0818773 0.111032 0.0825224 0.126878 0.0639403 0.175003 0.0329753 0.0446463 0.118386 0.054282 0.285947 0.0824417 0.225145
543 2 -13.9484 106.034 58.1914 28.0 0.0295587 0.0358828 0.178365 0.0840832 0.132922 0.0624191 0.21455 0.0432414 0.0338509 0.322256 0.0474858 0.341286 0.0425768 0.231132
544 3 -12.3837 106.115 58.3897 25.0 0.0155094 0.0512448 0.198445 0.0358054 0.144626 0.0500128 0.184112 0.0165015 0.0181963 0.131435 0.0374731 0.304473 0.0484052 0.180709
545 3 -12.7632 102.312 58.6096 25.0 0.0294867 0.0373426 0.198516 0.0386544 0.10379 0.0429581 0.173803 0.0131825 0.0251487 0.169902 0.0345293 0.284329 0.0393559 0.178876
546 3 -14.154 105.708 56.6782 22.0 0.0305316 0.0505883 0.141218 0.0665163 0.1444 0.048754 0.198146 0.0166694 0.0284648 0.121233 0.0609648 0.29569 0.0526031 0.174384
548 3 -9.90116 105.099 59.2986 22.0 0.0244312 0.0600125 0.108958 0.0752573 0.122509 0.0365442 0.198766 0.00993133 0.0188738 0.165977 0.051352 0.3108 0.0476993 0.183519
672 1 -12.5246 99.8812 61.7405 26.0 0.0530636 0.100705 0.0962094 0.0578907 0.141299 0.0741409 0.247187 0.0392024 0.0405662 0.0915909 0.0477725 0.273075 0.0626626 0.241008
675 3 -12.8896 101.874 61.6615 20.0 0.0356717 0.0377745 0.204172 0.0243485 0.137409 0.0401539 0.208517 0.0200505 0.0284103 0.147034 0.0533643 0.310807 0.0453103 0.193409
678 1 -14.2752 103.05 59.7606 22.0 0.0497179 0.0806874 0.250904 0.0532508 0.113791 0.0740077 0.23205 0.0278133 0.0357872 0.0863907 0.0425049 0.253422 0.0528231 0.230576
679 1 -14.0703 105.128 61.4396 26.0 0.0310359 0.118994 0.116563 0.0572386 0.146994 0.0651391 0.219672 0.0327689 0.0184433 0.0771477 0.0334887 0.294529 0.0546006 0.267966
681 3 -10.5208 103.163 61.4852 22.0 0.0196416 0.0549753 0.18099 0.0388475 0.122527 0.0398078 0.22129 0.0178471 0.0179551 0.18531 0.0607931 0.314821 0.0521729 0.202941
683 3 -12.5773 104.092 60.4332 21.0 0.0244282 0.0716365 0.140901 0.0801301 0.128269 0.0596704 0.211296 0.00601309 0.0288898 0.184721 0.064278 0.305162 0.075678 0.186181
698 1 -11.3912 107.289 59.7623 27.0 0.0126815 0.0242938 0.214628 0.0363883 0.137141 0.0424344 0.2385 0.0424792 0.0485393 0.072268 0.0431835 0.310066 0.0522974 0.27881
1774 3 -8.76394 105.333 53.4962 24.0 0.0223059 0.0903052 0.187211 0.0635067 0.169445 0.0447571 0.231897 0.0122756 0.0253149 0.121492 0.0437802 0.327461 0.0632474 0.212361
1884 1 -6.09772 99.0387 58.7431 25.0 0.0371487 0.0915494 0.111661 0.0534367 0.148206 0.0605276 0.206051 0.0285255 0.0419427 0.112623 0.0378612 0.270405 0.050415 0.252369
1885 2 -8.44353 100.721 58.7125 24.0 0.0184479 0.083659 0.209571 0.035041 0.125684 0.0685564 0.189927 0.0406762 0.021281 0.312145 0.0330424 0.333972 0.0434466 0.221171
1886 3 -5.14337 100.97 58.8856 23.0 0.0336536 0.0751235 0.185499 0.0515672 0.108922 0.0549941 0.207818 0.0227244 0.0282714 0.173966 0.0528655 0.317728 0.0560638 0.196438
1888 3 -8.02197 100.192 57.2606 25.0 0.0257748 0.068044 0.163517 0.0623093 0.153963 0.0450707 0.203798 0.0246494 0.0254107 0.151473 0.0933265 0.337175 0.0748681 0.206458
1889 3 -7.5946 99.898 59.725 22.0 0.0205979 0.0809006 0.13556 0.0727007 0.131211 0.0607779 0.214003 0.0140116 0.0287986 0.14469 0.0361743 0.323385 0.0501081 0.182282
1901 3 -5.60638 101.517 55.586 26.0 0.0357976 0.0525429 0.156795 0.0418701 0.166881 0.0423041 0.197454 0.0137015 0.0291642 0.134367 0.0578048 0.342505 0.0975133 0.208515
1903 3 -5.55299 98.7434 56.8301 25.0 0.0400787 0.0843118 0.178181 0.0400069 0.178375 0.0449633 0.233782 0.00872096 0.0143967 0.147689 0.0555149 0.373623 0.0521828 0.231511
1904 1 -7.18722 102.03 54.261 26.0 0.0202414 0.0645584 0.227199 0.0420854 0.157635 0.0387581 0.225649 0.0408892 0.0424823 0.133079 0.040864 0.284975 0.0775305 0.301801
1905 1 -7.73388 104.866 55.172 26.0 0.0189648 0.150804 0.157568 0.0785724 0.122886 0.0687356 0.19312 0.0431319 0.0366676 0.098789 0.0301098 0.310031 0.0482848 0.251107
1906 2 -5.09942 103.135 55.8391 24.0 0.0331927 0.0357736 0.26097 0.0607251 0.112809 0.0374095 0.184007 0.0451737 0.0176768 0.32049 0.0241465 0.332038 0.0323385 0.225334
1907 3 -8.44802 103.079 55.6129 25.0 0.0292668 0.0419179 0.229164 0.0281477 0.136667 0.0456135 0.204175 0.0223739 0.0337498 0.121933 0.0540213 0.298989 0.0699824 0.191961
1908 3 -7.1502 106.715 55.1647 23.0 0.0300747 0.0498756 0.2275 0.0299889 0.16452 0.054866 0.238704 0.0182589 0.0241303 0.109651 0.0506113 0.324461 0.0472046 0.186233
1909 3 -5.96998 103.784 54.6237 22.0 0.0147411 0.0838506 0.177537 0.0547966 0.136251 0.0406246 0.208048 0.0135418 0.0234475 0.112131 0.056554 0.323128 0.0549399 0.184279
1910 1 -6.42878 101.393 57.3438 23.0 0.0362848 0.0687815 0.210507 0.058664 0.119458 0.0503722 0.191313 0.0274682 0.065441 0.100556 0.0465332 0.267084 0.0699261 0.254527
1911 3 -5.6412 103.298 57.3347 23.0 0.0386574 0.0478492 0.19285 0.0747089 0.100892 0.0562485 0.189028 0.0187338 0.0326111 0.144095 0.0366708 0.296227 0.0500833 0.184331
1919 1 -6.92333 104.171 58.5935 27.0 0.0264246 0.0765024 0.13372 0.0795471 0.12032 0.057475 0.194402 0.0388056 0.0423247 0.0958951 0.0533824 0.281063 0.0717255 0.221979
1920 2 -9.13628 106.033 58.2018 28.0 0.0111228 0.0423742 0.209635 0.0677625 0.138525 0.0858609 0.191479 0.0440881 0.0342974 0.328644 0.048127 0.335652 0.047567 0.234931
1921 3 -7.56419 106.096 58.3449 25.0 0.0181386 0.0509178 0.202392 0.0362792 0.139801 0.054353 0.173039 0.0172052 0.0183575 0.129764 0.0366768 0.316605 0.052604 0.181229
1922 3 -7.90426 102.259 58.6111 25.0 0.0273716 0.0328809 0.22195 0.0459152 0.11142 0.0499111 0.178938 0.0122769 0.0251664 0.168583 0.032116 0.290887 0.0420291 0.185409
1923 3 -9.45029 105.691 56.7106 23.0 0.0242582 0.0529839 0.149109 0.0699471 0.146145 0.0536417 0.17671 0.0165431 0.0193996 0.116772 0.0513913 0.300963 0.0498106 0.17719
1925 3 -5.10886 105.152 59.322 23.0 0.0168859 0.0686363 0.12281 0.0804812 0.120213 0.0365161 0.195806 0.0106511 0.0158431 0.163722 0.0576034 0.324121 0.0559622 0.18414
2052 3 -8.06944 101.775 61.6433 20.0 0.0379969 0.0480943 0.1965 0.0274462 0.142658 0.0421562 0.210302 0.0208869 0.0262442 0.147925 0.0511386 0.31319 0.0433403 0.188844
2055 1 -9.48127 102.996 59.6927 23.0 0.043391 0.094781 0.232576 0.0492855 0.106589 0.0725334 0.234998 0.0211405 0.0382624 0.100348 0.0487031 0.237 0.0583397 0.23283
2056 1 -9.22847 105.103 61.413 26.0 0.0297257 0.133231 0.0814739 0.067184 0.153701 0.0733692 0.228039 0.0312746 0.017337 0.074571 0.0321294 0.28822 0.0518922 0.26745
2058 3 -5.68883 103.088 61.494 22.0 0.0206154 0.0558557 0.171434 0.0403394 0.120969 0.0394553 0.221517 0.0192775 0.0180518 0.187967 0.0595775 0.326055 0.0546036 0.210591
2060 3 -7.7589 104.029 60.4268 22.0 0.023231 0.0662361 0.13255 0.0824485 0.117941 0.0608432 0.210123 0.00686544 0.0293128 0.181469 0.0652388 0.317968 0.0779977 0.191532
2075 1 -6.58634 107.273 59.7354 28.0 0.0240797 0.0193992 0.216112 0.0343435 0.138377 0.0455474 0.241359 0.034668 0.0320263 0.075078 0.0293275 0.299606 0.0468966 0.261564
547 1 -10.331 106.807 53.8001 27.0 0.021804 0.0509882 0.22815 0.0395783 0.148181 0.0497808 0.240668 0.0387003 0.0249711 0.0777769 0.0511662 0.296268 0.0479139 0.301792
1924 1 -5.49738 106.918 53.7645 28.0 0.0194084 0.0453627 0.259913 0.0424193 0.156161 0.0430671 0.242518 0.0387189 0.024654 0.0806199 0.0480359 0.298996 0.0474602 0.297155
3295 1 -1.17278 107.219 56.6844 27.0 0.0343388 0.0285273 0.257222 0.042789 0.196644 0.0525539 0.24421 0.0355057 0.0498891 0.0923044 0.0648905 0.303584 0.0568543 0.249934
3151 3 -3.89305 105.35 53.4287 24.0 0.0209695 0.0908526 0.196541 0.0649673 0.168631 0.0481428 0.224541 0.0102675 0.0209018 0.108939 0.0446985 0.326566 0.0630004 0.206516
3261 1 -1.23569 99.0428 58.7455 26.0 0.0380688 0.0917875 0.108215 0.0583284 0.141755 0.0641785 0.202477 0.0273109 0.0431796 0.110162 0.039252 0.264711 0.0556748 0.251733
3262 2 -3.5937 100.714 58.7621 23.0 0.0137979 0.0685534 0.24706 0.0385133 0.13653 0.0900719 0.197043 0.0400989 0.0209613 0.311845 0.0342482 0.332249 0.0419299 0.221262
3263 3 -0.282102 100.991 58.8311 22.0 0.0328806 0.0638408 0.174623 0.0631528 0.106383 0.054721 0.204164 0.0222372 0.032699 0.17552 0.0498688 0.317696 0.0546539 0.19708
3265 3 -3.19931 100.161 57.3081 26.0 0.023716 0.0665708 0.166339 0.0658459 0.153218 0.0460619 0.201844 0.0233602 0.0264084 0.148892 0.0927292 0.338039 0.0768968 0.204196
3266 3 -2.72526 99.898 59.7592 22.0 0.0215877 0.0786721 0.137012 0.0714052 0.12782 0.0624 0.212892 0.013247 0.0300089 0.144617 0.0326429 0.322192 0.045266 0.180135
3275 1 -4.30541 99.8048 55.6502 26.0 0.0490105 0.101983 0.17326 0.0685967 0.19103 0.062442 0.239668 0.0562132 0.0300733 0.0798918 0.0466877 0.322285 0.0717792 0.298054
3278 3 -0.795229 101.468 55.5842 24.0 0.0344816 0.050919 0.164613 0.0393721 0.164457 0.0482548 0.203503 0.0150841 0.0286812 0.136548 0.0603933 0.353059 0.0975545 0.21025
3280 3 -0.695824 98.8085 56.8012 25.0 0.0361077 0.0663113 0.147478 0.0645136 0.177518 0.0465877 0.214424 0.00822942 0.0166941 0.145551 0.0592083 0.369149 0.054148 0.226803
3281 1 -2.33624 101.986 54.2323 27.0 0.0237425 0.0690438 0.232266 0.0405177 0.161935 0.0459436 0.228016 0.0405661 0.0365213 0.120466 0.0413133 0.280185 0.0789402 0.290324
3282 1 -2.83813 104.83 55.0299 26.0 0.0196199 0.148335 0.15874 0.0725036 0.126389 0.0623908 0.200672 0.0381612 0.0331112 0.098088 0.0295704 0.309101 0.0556841 0.238762
3283 2 -0.298719 103.028 55.7302 23.0 0.0375674 0.0403009 0.281418 0.0602025 0.117126 0.0375192 0.209083 0.0446019 0.0181142 0.321259 0.0259631 0.330146 0.0348425 0.226832
3284 3 -3.56572 103.081 55.6455 25.0 0.0264528 0.0404407 0.231098 0.0288403 0.140486 0.0492663 0.194698 0.0213596 0.0332897 0.114201 0.0535076 0.29952 0.0650604 0.187517
3286 3 -1.15234 103.737 54.5355 22.0 0.0144927 0.088484 0.175997 0.0517774 0.141583 0.0429638 0.222725 0.0139668 0.0222114 0.108326 0.0616421 0.330693 0.0551744 0.193765
3287 1 -1.65299 101.446 57.3521 23.0 0.0363409 0.0580111 0.214839 0.0427225 0.1072 0.0484214 0.181527 0.0227142 0.0669037 0.102033 0.0441888 0.257061 0.074516 0.24681
3288 3 -0.850597 103.287 57.2306 24.0 0.0409881 0.024039 0.177125 0.0687639 0.105074 0.055944 0.180278 0.0161713 0.0293002 0.152232 0.0519904 0.299978 0.0647106 0.187532
3296 1 -2.08416 104.157 58.5904 27.0 0.0318095 0.0818683 0.1204 0.0731765 0.112813 0.0523636 0.172369 0.0289736 0.0429426 0.082421 0.0453567 0.270543 0.0850593 0.209754
3297 2 -4.38466 106.026 58.1612 27.0 0.0118646 0.0383635 0.200646 0.078783 0.124397 0.0816149 0.16894 0.0443457 0.0349931 0.326618 0.0439933 0.336407 0.0504827 0.233145
3298 3 -2.80221 106.015 58.2745 25.0 0.0227741 0.0489106 0.198209 0.0365973 0.133233 0.0475375 0.175433 0.0197371 0.0179115 0.136756 0.0242385 0.313863 0.042791 0.182834
3299 3 -3.04268 102.247 58.6362 24.0 0.0338594 0.025672 0.248368 0.0433867 0.118026 0.0574639 0.181101 0.0136459 0.0231618 0.181416 0.0317572 0.298526 0.0393881 0.191949
3300 3 -4.73664 105.639 56.6853 24.0 0.0209165 0.0578592 0.159349 0.0637475 0.138085 0.0590834 0.165278 0.0156315 0.0193067 0.115835 0.0501306 0.305569 0.0564452 0.170984
3302 3 -0.322832 105.166 59.3077 22.0 0.020683 0.0717155 0.12272 0.0807839 0.128017 0.0348141 0.208881 0.0102153 0.0169788 0.176021 0.0515875 0.323635 0.0509534 0.187177
3426 1 -2.74993 99.8262 61.7888 26.0 0.0494969 0.107366 0.105107 0.0504708 0.139517 0.075044 0.242159 0.0328534 0.0381839 0.0747503 0.0432553 0.269585 0.0617453 0.228233
3429 3 -3.17565 101.78 61.6649 20.0 0.0353948 0.0381581 0.195007 0.0207966 0.138286 0.0383327 0.212607 0.0193029 0.0292583 0.150439 0.0541078 0.316476 0.0465775 0.195517
3432 1 -4.71487 103.068 59.5381 24.0 0.0397479 0.0901393 0.181449 0.0654814 0.111859 0.0696636 0.237517 0.0225124 0.0330808 0.0870221 0.0413155 0.240138 0.0520236 0.215506
3433 1 -4.47107 105.058 61.4402 27.0 0.0332993 0.120984 0.104279 0.0628982 0.159022 0.0728969 0.230664 0.0296997 0.0165403 0.0726355 0.0306267 0.285951 0.0495814 0.262665
3434 2 -2.42585 103.202 61.623 24.0 0.0305113 0.0768672 0.229425 0.0455291 0.157599 0.106498 0.241384 0.0433328 0.0218633 0.313665 0.0317104 0.339349 0.0478585 0.210736
3435 3 -0.865418 103.175 61.5091 21.0 0.0205883 0.0540967 0.177348 0.0394392 0.1228 0.0411992 0.223077 0.019344 0.018706 0.192419 0.0581172 0.323308 0.0529366 0.210699
3437 3 -2.96464 104.053 60.4165 22.0 0.0219986 0.0711622 0.133427 0.0834476 0.119476 0.0610445 0.216541 0.00736787 0.0279965 0.18738 0.0623131 0.321478 0.0782977 0.198907
3452 1 -1.76513 107.132 59.7715 28.0 0.0177976 0.0223148 0.224313 0.033462 0.136976 0.0410226 0.243495 0.0365543 0.0280342 0.0768188 0.0294827 0.300723 0.0477948 0.261174
4528 3 0.889764 105.399 53.5057 24.0 0.0252073 0.0798915 0.163143 0.0641997 0.157653 0.0544399 0.244637 0.00934572 0.0215923 0.115265 0.0432112 0.324828 0.066591 0.212938
4638 1 3.57114 99.0628 58.7309 26.0 0.0416525 0.0967083 0.096972 0.0558681 0.166173 0.0654969 0.197038 0.0272913 0.0458137 0.106765 0.0401557 0.26231 0.0630102 0.247292
4639 2 1.27026 100.758 58.6716 22.0 0.0269459 0.0689439 0.243402 0.0550175 0.126537 0.0803182 0.211785 0.0396589 0.0216419 0.313805 0.0333142 0.329652 0.0416835 0.223635
4640 3 4.56929 101.01 58.8349 22.0 0.0305668 0.0558433 0.1765 0.0574694 0.118027 0.0553846 0.206376 0.0237211 0.0312837 0.177519 0.0542724 0.320191 0.0601804 0.189717
4642 3 1.70234 100.259 57.2315 26.0 0.0242582 0.0667467 0.16581 0.0651761 0.153702 0.044208 0.203736 0.0225689 0.0268063 0.15 0.0901152 0.33533 0.0776791 0.199421
4643 3 2.06301 99.9419 59.7242 22.0 0.0212228 0.0772892 0.135649 0.0751401 0.138502 0.0568787 0.203633 0.0148371 0.028823 0.146576 0.0316281 0.324038 0.0489759 0.176174
4652 1 0.58237 99.8496 55.575 26.0 0.0476914 0.0900453 0.167401 0.0594831 0.180502 0.0593019 0.235874 0.0395186 0.0151918 0.115419 0.0389976 0.28396 0.0629327 0.283085
4655 3 4.10192 101.661 55.4977 24.0 0.0356651 0.061521 0.149259 0.0393707 0.166422 0.0477345 0.18859 0.0123243 0.0379835 0.133224 0.0609925 0.33574 0.0977046 0.194778
4657 3 4.11003 98.8562 56.7887 25.0 0.040022 0.0716336 0.15266 0.0437858 0.169589 0.0309528 0.215212 0.00740093 0.0142002 0.142348 0.057106 0.364635 0.0605643 0.2215
4658 1 2.52568 102.116 54.1882 26.0 0.0240121 0.0277162 0.21662 0.0327153 0.133894 0.0310838 0.228747 0.0386127 0.0368226 0.0948503 0.0337622 0.258842 0.0707167 0.259793
4659 1 1.71861 104.987 55.2688 25.0 0.0169823 0.122621 0.161856 0.0780836 0.114012 0.075336 0.201143 0.0381489 0.0362494 0.0901633 0.030252 0.262003 0.0485263 0.22799
4660 2 4.59358 103.243 55.7869 25.0 0.0222949 0.0543272 0.205508 0.0725419 0.124192 0.0647329 0.158204 0.0436063 0.0223502 0.319815 0.0386626 0.329119 0.0430259 0.227687
4661 3 1.23796 103.092 55.55 25.0 0.028616 0.0399407 0.226724 0.0301052 0.134481 0.0497483 0.203124 0.0215147 0.0390294 0.123176 0.0486092 0.3009 0.0688398 0.188094
4662 3 2.44102 106.798 55.2319 22.0 0.0261799 0.0416251 0.199343 0.0514722 0.154357 0.0661578 0.221511 0.0172298 0.0221515 0.118046 0.0468325 0.321873 0.0477356 0.185691
4663 3 3.74852 104.011 54.67 22.0 0.0145528 0.0652837 0.190721 0.0579982 0.126754 0.0321553 0.189073 0.0132835 0.0215392 0.120002 0.0626044 0.306241 0.0652525 0.164931
4664 1 3.31576 101.44 57.2912 23.0 0.0382387 0.053558 0.195823 0.0494039 0.11862 0.0476037 0.183079 0.0241973 0.0378271 0.0877335 0.0508197 0.252273 0.064605 0.224739
4665 3 4.05718 103.365 57.3078 22.0 0.0332946 0.0466441 0.186637 0.0788115 0.101399 0.0564913 0.186287 0.0190495 0.0369118 0.155584 0.0405682 0.300839 0.0521919 0.176656
4673 1 2.74839 104.229 58.5833 27.0 0.0292491 0.0749396 0.128462 0.0755305 0.118141 0.0530648 0.189408 0.0289507 0.0323221 0.12548 0.0502922 0.26047 0.0776228 0.20823
4674 2 0.483876 106.067 58.2134 25.0 0.0121387 0.0292886 0.201548 0.0855869 0.125892 0.077535 0.194563 0.0446193 0.0357688 0.323885 0.0470256 0.337693 0.047216 0.231163
4675 3 2.04607 106.105 58.3761 25.0 0.0140341 0.0536802 0.203766 0.0460299 0.136767 0.0512371 0.187139 0.0162065 0.0178573 0.145905 0.0383571 0.324141 0.0550906 0.186903
4676 3 1.82693 102.295 58.569 22.0 0.0316357 0.031588 0.251035 0.0466257 0.122204 0.0487985 0.184015 0.0132653 0.0256681 0.183049 0.0292058 0.297743 0.0445419 0.189601
4677 3 0.210461 105.653 56.7167 24.0 0.0249014 0.0508918 0.158026 0.0702497 0.142796 0.0626083 0.19184 0.0161398 0.0192188 0.122178 0.0473077 0.30771 0.0550025 0.174895
4679 3 4.49519 105.271 59.3192 23.0 0.0140872 0.0606025 0.127923 0.0868747 0.123345 0.0431369 0.204212 0.00939536 0.0185988 0.176525 0.0650642 0.335765 0.0592239 0.185706
4803 1 2.02702 99.8403 61.7592 25.0 0.0526202 0.0974046 0.094019 0.0624806 0.143649 0.0670678 0.245067 0.0357841 0.03799 0.0904747 0.0489034 0.267106 0.0667052 0.234596
4806 3 1.65378 101.825 61.6634 20.0 0.0355142 0.0357241 0.201584 0.0246222 0.14101 0.038765 0.202864 0.0205149 0.0289508 0.152372 0.0512557 0.313606 0.0469382 0.193181
4809 1 0.145257 103.044 59.6082 24.0 0.0410915 0.0986566 0.198966 0.0493454 0.11248 0.0753501 0.232178 0.0225109 0.0317693 0.0818024 0.0483444 0.246672 0.0503862 0.223997
4810 1 0.388158 105.055 61.5102 25.0 0.0291239 0.115702 0.118222 0.058634 0.144408 0.0654892 0.235208 0.0296787 0.0179106 0.0748839 0.0364053 0.285729 0.0538325 0.260695
4811 2 2.40169 103.245 61.6054 23.0 0.0221421 0.0924612 0.21038 0.0349356 0.150732 0.102129 0.237405 0.0430378 0.0214829 0.317271 0.0350249 0.334585 0.0453177 0.214575
4812 3 3.95925 103.192 61.446 21.0 0.0209006 0.0658252 0.196433 0.043194 0.120731 0.050896 0.205779 0.021057 0.0173208 0.195919 0.0609962 0.329655 0.0527714 0.212528
4814 3 1.82418 104.041 60.4027 21.0 0.0212 0.0693946 0.13584 0.0869618 0.122549 0.0627657 0.215744 0.00608148 0.0293804 0.192592 0.0723268 0.328664 0.0803276 0.201315
4829 1 3.10976 107.16 59.8288 27.0 0.0166883 0.0210444 0.214058 0.0291221 0.137086 0.0427068 0.236533 0.0381911 0.0346189 0.0793422 0.02825 0.290845 0.0575843 0.262669
4678 1 4.16733 106.172 54.3867 24.0 0.0375696 0.0448952 0.198537 0.044002 0.0981728 0.071486 0.205937 0.037673 0.0253082 0.0590404 0.0401693 0.245022 0.0481556 0.235657
7432 1 13.7281 107.265 53.6069 28.0 0.0190544 0.0386912 0.186711 0.0325046 0.159085 0.0401141 0.237774 0.0396359 0.0274444 0.0909581 0.0530036 0.289737 0.0600125 0.291125
5905 3 5.7674 105.364 53.3965 23.0 0.02181 0.0792252 0.147535 0.0612206 0.143814 0.0543465 0.191966 0.010524 0.0176408 0.111104 0.0476942 0.312937 0.0599757 0.200593
6015 1 8.40954 99.0114 58.6947 27.0 0.0362084 0.0938147 0.111118 0.0616677 0.145593 0.0608229 0.205863 0.0276594 0.0429884 0.104236 0.0406431 0.262666 0.0599662 0.247575
6016 2 6.1071 100.775 58.6862 22.0 0.015096 0.0832943 0.191255 0.0399538 0.141359 0.072378 0.187387 0.0411495 0.0197341 0.314797 0.0354062 0.327087 0.0406923 0.219515
6017 3 9.40411 100.931 58.9136 24.0 0.0339451 0.0674195 0.173469 0.0548786 0.118813 0.0468483 0.197676 0.0247505 0.0302657 0.158526 0.0557337 0.317389 0.0498953 0.194492
6019 3 6.51828 100.255 57.2257 26.0 0.0252696 0.0652129 0.149857 0.062288 0.155359 0.0479915 0.195451 0.0232168 0.0277801 0.150941 0.088848 0.33492 0.0805677 0.194406
6020 3 6.9376 99.906 59.6875 22.0 0.020893 0.0727246 0.126993 0.0766641 0.133851 0.060169 0.206735 0.0139726 0.030985 0.141309 0.0337172 0.32867 0.0483698 0.179359