ITEM: TIMESTEP
6000
ITEM: NUMBER OF ATOMS
756
ITEM: BOX BOUNDS pp pp pp
-4.8435403184 9.6870806369
-10.1864092633 20.3728185265
-6.0013959751 12.0027919502
ITEM: ATOMS id type x y z coord q2 q3 q4 q5 q6 q7 q8 q2_mono q3_mono q4_mono q5_mono q6_mono q7_mono q8_mono
1 1 -0.0427273 -10.2402 -0.0622221 29 0.0418135  0.0564577  0.34554  0.0214089  0.188356  0.0470146  0.353869  0.0478964  0.0221612  0.0586111  0.0181619  0.323284  0.0343621  0.329534  
2 1 -0.0647791 -7.43044 -4.60892 28 0.0505098  0.104544  0.14569  0.0583597  0.174659  0.0616129  0.350064  0.0520759  0.0200541  0.0542717  0.0181944  0.331022  0.0353437  0.32583  
3 2 -2.80952 -9.14554 -4.54095 25 0.0213439  0.113431  0.25311  0.0671624  0.177191  0.077515  0.329132  0.0500384  0.0123059  0.292465  0.0223519  0.352831  0.023793  0.174776  
4 3 -1.23613 -9.25894 -4.55477 22 0.017675  0.0479604  0.232417  0.032225  0.16981  0.0343621  0.313205  0.0225599  0.0115519  0.0935593  0.0214633  0.423031  0.0199412  0.287932  
5 3 -3.80281 -5.61288 -4.52498 25 0.0501318  0.0787906  0.20066  0.0340953  0.209131  0.0499839  0.331472  0.00821847  0.0157968  0.116809  0.0515045  0.420251  0.05832  0.265341  
6 3 -3.45431 -8.58104 -5.85092 24 0.0317633  0.0999321  0.141456  0.0445801  0.183792  0.0411721  0.316179  0.00615318  0.0144775  0.111414  0.0253415  0.422647  0.0295662  0.269354  
7 1 -0.0576261 -10.1007 -3.02221 28 0.0401584  0.0745725  0.326052  0.0349154  0.176232  0.0688151  0.366642  0.0459706  0.00641298  0.0618679  0.00643039  0.315708  0.0151883  0.327842  
8 3 -3.54232 -8.47722 -3.33371 23 0.033091  0.0934927  0.139496  0.0433196  0.192163  0.0445144  0.323808  0.00673703  0.0127996  0.110759  0.0209856  0.419275  0.0286744  0.265844  
9 1 -4.7456 -2.73828 -1.56904 29 0.0443013  0.119388  0.101477  0.0603084  0.190352  0.0779226  0.342358  0.0541652  0.0175575  0.0493202  0.0185452  0.332202  0.0379966  0.327007  
10 2 -2.11222 -1.06929 -1.47591 25 0.0134317  0.0976015  0.256067  0.0856135  0.189527  0.0760565  0.315333  0.0500994  0.0141148  0.297183  0.0202008  0.350476  0.0235676  0.18021  
11 3 -3.65665 -0.978388 -1.52085 22 0.0239331  0.0473663  0.231868  0.0352871  0.174117  0.0389755  0.309712  0.0165408  0.0134334  0.0956071  0.0200539  0.413581  0.0254385  0.279947  
12 3 -1.09484 -4.60866 -1.6015 25 0.048691  0.0770969  0.197619  0.0386699  0.213993  0.0454268  0.328075  0.00287015  0.018343  0.11023  0.0441484  0.422047  0.0517226  0.269623  
13 3 -1.4391 -1.71919 -2.81162 24 0.0301533  0.0851642  0.163713  0.0492133  0.196277  0.0475509  0.321786  0.00868375  0.0194434  0.105325  0.0345638  0.415156  0.0470825  0.263372  
14 3 -1.38732 -1.68232 -0.240922 24 0.0316783  0.0826666  0.165248  0.0551483  0.194144  0.0435419  0.319055  0.00662916  0.0128717  0.107739  0.0247647  0.414066  0.031934  0.263493  
15 1 -2.40466 -5.02842 -3.0447 28 0.0306892  0.0441245  0.342781  0.0206169  0.17812  0.036259  0.362989  0.0439689  0.0175136  0.0675669  0.0140415  0.319435  0.0295891  0.33043  
16 1 -2.56568 -7.82823 -1.53994 29 0.0342172  0.142004  0.131868  0.0622822  0.170208  0.0834637  0.332154  0.0538898  0.0168364  0.0489672  0.0206675  0.331665  0.0406642  0.327818  
17 2 -0.372189 -6.12952 -1.55915 25 0.0218622  0.108314  0.248833  0.0661306  0.177775  0.0737577  0.319249  0.0506802  0.0127408  0.292804  0.0212343  0.353208  0.0234022  0.176116  
18 3 -3.59927 -6.05156 -1.50098 22 0.0188702  0.0473587  0.232233  0.0271415  0.17093  0.0338356  0.318439  0.017136  0.00877353  0.0967523  0.0269539  0.419084  0.0268327  0.277402  
19 3 -1.35393 -9.63551 -1.5058 24 0.0508662  0.0769357  0.195242  0.038988  0.210513  0.0403793  0.329112  0.00556126  0.0157304  0.115331  0.0512751  0.421669  0.0567068  0.267307  
20 3 -1.06436 -6.76319 -2.79571 23 0.0311244  0.0867314  0.139855  0.0533441  0.191111  0.055785  0.33398  0.00487745  0.0198132  0.11562  0.0438908  0.41939  0.0438125  0.266097  
21 1 -2.41739 -5.04216 -0.101379 28 0.0559751  0.0118968  0.309364  0.0165254  0.204842  0.0283537  0.365254  0.0334416  0.00623287  0.0849911  0.00888419  0.299801  0.0102276  0.334015  
22 3 -1.0724 -6.76155 -0.285715 24 0.0326237  0.0886148  0.164544  0.0419496  0.192201  0.0436438  0.328795  0.00444585  0.0152902  0.110633  0.027611  0.419525  0.0362515  0.267166  
23 1 -2.36627 -2.30457 -4.50942 28 0.0505272  0.0982132  0.130795  0.0560326  0.180744  0.0661076  0.335566  0.0488833  0.0183872  0.0578691  0.0200297  0.324655  0.0376224  0.331392  
24 2 -4.57405 -4.11658 -4.48828 25 0.0223733  0.108758  0.253637  0.0671671  0.179812  0.073256  0.326537  0.0509388  0.0158874  0.296382  0.0237242  0.351993  0.0265609  0.179922  
25 3 -1.22602 -4.143 -4.49911 22 0.0210941  0.0478928  0.223994  0.0302484  0.17211  0.0309704  0.31249  0.0212897  0.0119993  0.0949896  0.0277762  0.420787  0.0402417  0.28353  
26 3 -3.44497 -0.488388 -4.55628 26 0.0400899  0.0553157  0.204201  0.0370346  0.206688  0.0327887  0.315163  0.00627881  0.0206672  0.108894  0.0484165  0.411423  0.0546454  0.266813  
27 3 -3.8648 -3.46763 -5.79052 24 0.0318128  0.0929583  0.138962  0.0455009  0.194814  0.0467478  0.322589  0.00366185  0.0204883  0.109526  0.0373488  0.417772  0.0460531  0.265643  
28 3 -3.84597 -3.4051 -3.2355 24 0.0334333  0.0925132  0.140655  0.0487783  0.195008  0.0522228  0.334277  0.00318854  0.0154003  0.10753  0.0265629  0.416019  0.0283113  0.264483  
30 1 -0.0480564 -7.33738 1.50656 27 0.0518779  0.114017  0.107788  0.0628205  0.209081  0.0803918  0.327181  0.0578962  0.019762  0.0545324  0.0145944  0.340264  0.0322332  0.327251  
31 2 -2.72697 -9.17968 1.54788 25 0.0232249  0.110109  0.257667  0.0702401  0.181125  0.0747309  0.328259  0.0495138  0.0134575  0.297992  0.0243637  0.349499  0.0253775  0.184157  
32 3 -1.17124 -9.29649 1.58231 22 0.0234605  0.060131  0.24586  0.0307612  0.174054  0.0401454  0.308884  0.0144345  0.00967508  0.0991144  0.017397  0.422013  0.027197  0.283281  
33 3 -3.83883 -5.60854 1.47718 25 0.0459747  0.0742621  0.203925  0.0392112  0.217308  0.0421977  0.321365  0.00752517  0.0134847  0.105669  0.0344407  0.41792  0.0412027  0.268378  
34 3 -3.4151 -8.61394 0.23739 24 0.0326562  0.0928322  0.166043  0.043469  0.191812  0.0401046  0.332975  0.00193574  0.0167566  0.10734  0.0294305  0.416594  0.0301623  0.268039  
36 3 -3.50787 -8.5614 2.77854 24 0.0318608  0.0897785  0.145253  0.051668  0.191745  0.0442822  0.326587  0.0065871  0.0216891  0.10511  0.0415418  0.42181  0.0507142  0.269443  
51 1 -2.39517 -2.25105 1.53948 26 0.051254  0.105394  0.111799  0.0622645  0.193752  0.0692141  0.321713  0.053149  0.0199145  0.0531383  0.0223009  0.33274  0.0337115  0.326177  
52 2 -4.48914 -4.13335 1.43046 25 0.0171184  0.0999968  0.280794  0.0703943  0.189639  0.0670855  0.324824  0.0500804  0.0125853  0.297356  0.0230898  0.349687  0.0245143  0.182518  
53 3 -1.28826 -4.13153 1.46765 22 0.0213822  0.046609  0.230765  0.0307143  0.177391  0.0321887  0.30202  0.0100464  0.0146851  0.0988399  0.0356397  0.414533  0.0401366  0.274039  
54 3 -3.37772 -0.509448 1.37642 25 0.0410996  0.0729274  0.173799  0.0363872  0.219944  0.0579481  0.321192  0.00611443  0.015937  0.114644  0.0500964  0.416929  0.0544607  0.265987  
55 3 -3.77162 -3.50212 0.105289 24 0.0284489  0.0875403  0.164976  0.0492961  0.199639  0.0485412  0.331513  0.00448926  0.015214  0.10611  0.0271282  0.413044  0.0336768  0.26362  
56 3 -3.8485 -3.49758 2.72281 24 0.0288034  0.0924327  0.169805  0.0395927  0.199722  0.0512026  0.308852  0.00336599  0.0156249  0.108686  0.0247898  0.409379  0.0263202  0.263795  
253 1 4.80482 -10.2439 0.055577 27 0.0391129  0.018117  0.28641  0.0267183  0.196986  0.0296524  0.329028  0.0450141  0.00779222  0.0599703  0.00778368  0.314065  0.0147105  0.331021  
254 1 4.7926 -7.44329 -4.53973 30 0.0513563  0.120471  0.115033  0.0619782  0.221013  0.0878354  0.343131  0.0613305  0.016096  0.0535536  0.0178737  0.344482  0.0335351  0.325923  
255 2 2.10142 -9.25754 -4.4641 25 0.0186292  0.108677  0.277182  0.0601178  0.184254  0.0740127  0.335002  0.0492413  0.0124884  0.294405  0.0229366  0.352196  0.0227172  0.178008  
256 3 3.67975 -9.24144 -4.5208 22 0.0183537  0.0478987  0.231182  0.0311368  0.180812  0.0359372  0.319591  0.0194419  0.00768032  0.0905768  0.0275214  0.420086  0.0355737  0.28545  
257 3 0.95694 -5.62899 -4.56976 25 0.0455008  0.0782338  0.197914  0.0386539  0.211503  0.0484579  0.332885  0.00658171  0.0161926  0.117061  0.0496251  0.421796  0.0557981  0.266958  
258 3 1.42232 -8.60495 -5.78479 24 0.0317103  0.094829  0.1664  0.0393931  0.190212  0.0451026  0.334894  0.00432344  0.0161246  0.110573  0.0250821  0.419622  0.0313163  0.266806  
259 1 4.81494 -10.064 -3.0192 28 0.0374791  0.0226812  0.290224  0.0258725  0.20968  0.025618  0.344089  0.0513601  0.0227463  0.0589338  0.0188744  0.323241  0.0335205  0.326792  
260 3 1.3851 -8.57145 -3.21321 24 0.0310389  0.0865258  0.164973  0.042797  0.190091  0.0426318  0.337088  0.00259074  0.0136063  0.109066  0.0373635  0.422596  0.0401333  0.268967  
261 1 0.112986 -2.80785 -1.58699 28 0.0517232  0.123954  0.109176  0.0505214  0.209288  0.0979324  0.322273  0.0548129  0.0205788  0.0483012  0.0187139  0.333999  0.0361665  0.32462  
262 2 2.86003 -0.998041 -1.57675 25 0.0210128  0.104589  0.27456  0.06881  0.180204  0.0661332  0.328394  0.050165  0.0126589  0.297845  0.0211541  0.350303  0.0202393  0.18075  
263 3 1.22056 -0.980719 -1.58357 22 0.0216704  0.0484749  0.226375  0.0240595  0.164098  0.0373723  0.305569  0.0245413  0.011092  0.0942549  0.0215777  0.421371  0.0315875  0.282248  
264 3 3.86139 -4.58642 -1.5314 25 0.0456091  0.0768791  0.200356  0.0350921  0.215958  0.047461  0.318717  0.00392306  0.018598  0.113876  0.0417344  0.422717  0.0441612  0.270096  
265 3 3.59665 -1.67797 -2.8206 23 0.0310795  0.0849936  0.161097  0.0531218  0.197253  0.0456347  0.321214  0.00551075  0.0141004  0.111958  0.0203858  0.417886  0.0272499  0.262448  
266 3 3.53241 -1.64033 -0.308799 24 0.0306362  0.0885024  0.162487  0.0428791  0.187451  0.0476716  0.321222  0.00738211  0.0127801  0.109683  0.0225048  0.419  0.0306554  0.263652  
267 1 2.56257 -5.08478 -2.97862 28 0.0460964  0.0300351  0.295807  0.0244126  0.182812  0.0251051  0.353115  0.0503652  0.0215957  0.0526999  0.0174665  0.325781  0.0382553  0.327522  
268 1 2.3168 -7.93305 -1.45241 28 0.045549  0.123863  0.0971336  0.0524002  0.182758  0.0793956  0.331267  0.0562925  0.020633  0.0474151  0.0197486  0.331506  0.0324815  0.326194  
269 2 4.51702 -6.09729 -1.53707 25 0.0186374  0.115628  0.252962  0.0617088  0.184368  0.0811946  0.313587  0.0491948  0.0131339  0.294189  0.0236001  0.353913  0.0214836  0.17762  
270 3 1.2301 -6.02558 -1.55438 22 0.0231818  0.0422589  0.224348  0.0342583  0.167456  0.0330021  0.313221  0.0167117  0.00800026  0.0991897  0.0215629  0.421266  0.0232168  0.279492  
271 3 3.46929 -9.63768 -1.49911 25 0.0394328  0.0583824  0.204617  0.0342454  0.210255  0.0361206  0.315684  0.00647414  0.0190818  0.111738  0.0677156  0.418338  0.0740572  0.266781  
272 3 3.78329 -6.73491 -2.79293 24 0.0328101  0.0915026  0.139058  0.0493326  0.197746  0.0500898  0.327655  0.00613599  0.0137779  0.108527  0.0223603  0.418458  0.0328668  0.26702  
273 1 2.40958 -5.03408 0.0302859 28 0.03298  0.0105204  0.339149  0.0141956  0.165952  0.0191688  0.343149  0.0482586  0.00523935  0.0749847  0.00821366  0.32776  0.0144002  0.328593  
274 3 3.83188 -6.72923 -0.258995 24 0.0309802  0.093643  0.144198  0.0472698  0.195784  0.0470617  0.319622  0.00900887  0.0139666  0.110907  0.0222238  0.421004  0.0362003  0.26854  
275 1 2.38005 -2.29681 -4.61383 27 0.050153  0.113536  0.110724  0.0645424  0.20719  0.0799438  0.32605  0.057861  0.0179203  0.0506265  0.0200917  0.339296  0.030867  0.32752  
276 2 0.330945 -4.119 -4.54933 25 0.016631  0.0892179  0.294879  0.0705505  0.189251  0.0668129  0.324916  0.0505624  0.00217644  0.297109  0.0062276  0.350623  0.00458119  0.180749  
277 3 3.57184 -4.14957 -4.53177 24 0.0199651  0.0456691  0.229663  0.0299375  0.174209  0.035646  0.308741  0.0156284  0.0116372  0.101789  0.0228077  0.419968  0.0247225  0.278599  
278 3 1.38438 -0.456152 -4.52894 25 0.0456353  0.0742537  0.19898  0.0349147  0.213132  0.0406496  0.323503  0.00786454  0.0214688  0.113874  0.0702284  0.417478  0.0741905  0.266055  
279 3 0.955307 -3.43475 -5.78963 24 0.0334566  0.0939768  0.143274  0.0486634  0.192264  0.0489638  0.322303  0.00534283  0.0171657  0.114651  0.0259221  0.417484  0.0405987  0.262493  
280 3 1.00763 -3.46241 -3.24579 24 0.0295902  0.0932575  0.161402  0.040851  0.191945  0.0480711  0.323828  0.0105174  0.0168546  0.110471  0.0352409  0.419428  0.0426499  0.26301  
282 1 4.7804 -7.34043 1.52358 27 0.043226  0.115841  0.101963  0.0607399  0.192203  0.0656248  0.317471  0.0532963  0.0214091  0.0513326  0.0196029  0.331416  0.0356367  0.327875  
283 2 2.05652 -9.19223 1.51634 25 0.0151874  0.0744333  0.273233  0.0667899  0.173174  0.0624986  0.309437  0.0497977  0.0157254  0.293576  0.0228117  0.353332  0.0253502  0.177764  
284 3 3.64285 -9.27957 1.53602 22 0.0268125  0.0492584  0.227871  0.0250634  0.174659  0.037267  0.295179  0.021774  0.00762916  0.0942285  0.0234065  0.419287  0.03354  0.285669  
285 3 1.07033 -5.58829 1.40682 25 0.0487861  0.0791918  0.197364  0.0312513  0.21331  0.0474808  0.321407  0.00489642  0.017318  0.111172  0.0439264  0.420634  0.0490945  0.270838  
286 3 1.41758 -8.48291 0.212052 24 0.030835  0.0935139  0.142136  0.0462904  0.191373  0.0508013  0.320429  0.0098304  0.0147821  0.110694  0.0374184  0.424348  0.0479123  0.271986  
288 3 1.37601 -8.55602 2.78854 24 0.0318418  0.0928037  0.162659  0.0402043  0.196705  0.0499175  0.327861  0.00534276  0.0136136  0.110459  0.0239446  0.421096  0.0346038  0.269085  
303 1 2.61217 -2.30619 1.4004 27 0.0369698  0.126738  0.164901  0.059628  0.163003  0.0662934  0.324541  0.052125  0.0212516  0.0533901  0.016072  0.334953  0.0349479  0.32525  
304 2 0.279857 -3.99637 1.45451 25 0.0207773  0.114867  0.254516  0.0648111  0.183927  0.0768075  0.315498  0.0494514  0.00246797  0.292828  0.00529126  0.352742  0.00593185  0.175987  
305 3 3.62794 -4.15995 1.51919 22 0.0254866  0.0485356  0.226794  0.0307846  0.17264  0.0314859  0.297508  0.0238648  0.010133  0.0915122  0.0171245  0.418689  0.0196241  0.28687  
306 3 1.44173 -0.575103 1.38433 25 0.0472128  0.0793803  0.199083  0.0402105  0.206756  0.0499997  0.318663  0.00817517  0.017301  0.112681  0.052899  0.418078  0.0606766  0.263844  
307 3 0.991581 -3.43557 0.217649 24 0.0343545  0.0961661  0.139041  0.0422539  0.188201  0.0496406  0.324781  0.00473784  0.0139698  0.112513  0.0273461  0.417879  0.0294343  0.264019  
308 3 0.957651 -3.43297 2.77577 24 0.0282009  0.0987598  0.160051  0.0421053  0.18589  0.0413965  0.312935  0.00551707  0.0192466  0.105667  0.0339306  0.415947  0.0384019  0.265727  
505 1 9.66991 -10.238 0.116295 27 0.0349902  0.0538328  0.349168  0.0278806  0.178509  0.0429202  0.363299  0.0407901  0.0198874  0.0666475  0.0157117  0.307621  0.0339115  0.33181  
506 1 9.55526 -7.27385 -4.56021 26 0.0531052  0.10536  0.109327  0.0552931  0.175553  0.0694377  0.335752  0.0442304  0.0222966  0.0639931  0.022284  0.313157  0.0448826  0.328357  
507 2 6.88285 -9.13155 -4.53743 25 0.0134353  0.0932089  0.281835  0.0716724  0.199213  0.0706319  0.321827  0.0507176  0.0136517  0.293545  0.0212463  0.353353  0.0210417  0.175292  
508 3 8.41446 -9.10905 -4.5354 23 0.0177615  0.048483  0.232626  0.027983  0.177549  0.038294  0.298502  0.0212316  0.00918321  0.0897272  0.0289292  0.414911  0.0266018  0.284171  
509 3 5.83694 -5.57112 -4.5166 25 0.0482026  0.083215  0.198932  0.0316752  0.220087  0.054912  0.331078  0.00477606  0.0149088  0.114443  0.0205322  0.423604  0.0288909  0.269861  
510 3 6.12302 -8.5011 -5.85607 24 0.0311299  0.095372  0.165814  0.0362094  0.205116  0.0449609  0.327302  0.00431362  0.0152727  0.106768  0.0215589  0.414157  0.0250542  0.267085  
511 1 9.57124 -10.1326 -3.09435 28 0.0299206  0.0203213  0.263788  0.0243523  0.162987  0.0365535  0.331167  0.0402753  0.0170541  0.0675967  0.0139093  0.306824  0.0342377  0.330398  
512 3 6.23276 -8.41664 -3.3007 23 0.0318091  0.0897684  0.149377  0.0570976  0.206578  0.0523596  0.324529  0.00692642  0.0146715  0.107486  0.0307474  0.416973  0.0385819  0.265178  
513 1 4.98023 -2.86923 -1.47449 27 0.0387194  0.136337  0.102895  0.0694228  0.181006  0.0868318  0.322447  0.0528204  0.0161733  0.0488506  0.0188723  0.330957  0.0393545  0.325418  
514 2 7.62062 -0.961104 -1.52643 25 0.0153443  0.0903199  0.248016  0.0640855  0.164371  0.0603272  0.313417  0.0518303  0.0113028  0.29612  0.0223198  0.350648  0.022695  0.179268  
515 3 6.02281 -0.870893 -1.5891 22 0.0228299  0.0483697  0.226863  0.0282562  0.174276  0.0380232  0.306668  0.0222206  0.0110095  0.0915797  0.0242014  0.420667  0.0293222  0.28246  
516 3 8.69546 -4.55261 -1.48715 25 0.0428238  0.0705422  0.175761  0.0393266  0.21856  0.0597638  0.32482  0.00700052  0.0174419  0.111402  0.0510483  0.420674  0.0586935  0.265216  
517 3 8.31839 -1.65838 -2.76608 24 0.032348  0.0958046  0.143542  0.0416856  0.199675  0.0468791  0.325478  0.00337741  0.0122043  0.108701  0.0231132  0.413197  0.0283785  0.263955  
518 3 8.35051 -1.56102 -0.233864 24 0.0348078  0.096713  0.14097  0.0443295  0.196355  0.0524065  0.330681  0.00447691  0.0128034  0.107508  0.024119  0.415944  0.0280455  0.264765  
519 1 7.18127 -5.15982 -3.14216 29 0.0367678  0.0433221  0.288106  0.0350722  0.182619  0.0435737  0.341367  0.03924  0.00959199  0.0669967  0.00813787  0.306904  0.0132749  0.331275  
520 1 7.19703 -7.87078 -1.57516 28 0.0509017  0.0955827  0.135811  0.0625227  0.184305  0.0525233  0.329108  0.0527267  0.0159388  0.0468652  0.0200036  0.329976  0.0417299  0.327406  
521 2 9.37891 -6.07718 -1.51114 25 0.019048  0.115834  0.257477  0.0665737  0.18204  0.0741059  0.327361  0.0494163  0.0119248  0.297284  0.0218617  0.351046  0.0180542  0.18196  
522 3 6.06579 -5.99387 -1.55329 23 0.0217794  0.0492552  0.229847  0.0332435  0.174778  0.037445  0.307215  0.0155521  0.0105183  0.100103  0.0213075  0.420026  0.0325893  0.277618  
523 3 8.24502 -9.67452 -1.45359 25 0.0418304  0.0710493  0.17498  0.0422196  0.215882  0.0527931  0.314099  0.00527816  0.0160639  0.10776  0.049238  0.417215  0.0520788  0.266138  
524 3 8.57476 -6.71171 -2.80843 24 0.0337504  0.0923679  0.142547  0.0514875  0.200204  0.0474858  0.320345  0.00476729  0.0122984  0.113489  0.0250839  0.414218  0.02807  0.260663  
525 1 7.28059 -5.11543 -0.0555827 28 0.0347483  0.00795628  0.338856  0.0155078  0.19021  0.0236402  0.343552  0.049902  0.00555313  0.0712221  0.0110386  0.327152  0.0180018  0.327631  
526 3 8.69164 -6.74401 -0.238037 24 0.0282642  0.0939276  0.147789  0.0448824  0.194729  0.0480864  0.317356  0.00718631  0.0155432  0.109083  0.0207761  0.415293  0.0301734  0.263583  
527 1 7.29679 -2.2234 -4.49105 26 0.0495447  0.121022  0.105943  0.0491886  0.192221  0.0745891  0.321909  0.053876  0.0204393  0.050238  0.0185553  0.331221  0.0333483  0.329354  
528 2 5.13182 -4.04253 -4.48607 25 0.021711  0.112961  0.282748  0.0596589  0.187189  0.0734155  0.330158  0.0504345  0.00256645  0.295073  0.00409359  0.352749  0.00623576  0.17687  
529 3 8.43254 -4.17305 -4.49854 22 0.0183506  0.0446735  0.231652  0.0302388  0.170985  0.0308863  0.312232  0.0129808  0.0102074  0.102162  0.0180471  0.422023  0.0310515  0.28065  
530 3 6.26777 -0.432521 -4.49396 24 0.0475625  0.078795  0.197351  0.0379479  0.219376  0.0460736  0.320241  0.00726373  0.0177825  0.111293  0.0460034  0.416982  0.0543874  0.266484  
531 3 5.83423 -3.44917 -5.78618 24 0.0349537  0.0895536  0.149043  0.0562951  0.200794  0.0501584  0.316916  0.00369716  0.0181066  0.110534  0.034647  0.419214  0.0437129  0.266949  
532 3 5.86113 -3.44122 -3.28826 24 0.0321913  0.0904722  0.170303  0.0413634  0.196718  0.0484844  0.321748  0.00419996  0.0141812  0.111045  0.0260827  0.416177  0.0282604  0.26563  
534 1 9.68862 -7.34293 1.4122 27 0.0447929  0.122029  0.107392  0.0564274  0.184226  0.0685813  0.328746  0.0482642  0.0199835  0.0617764  0.017416  0.324314  0.0357727  0.330872  
535 2 6.92739 -9.09005 1.49149 25 0.0238474  0.11525  0.257372  0.0656214  0.181719  0.0713059  0.321746  0.050832  0.0149822  0.294944  0.0240477  0.352914  0.0218317  0.177016  
536 3 8.44781 -9.28119 1.52483 22 0.0233839  0.0458619  0.234974  0.031626  0.169755  0.0291196  0.311237  0.0146331  0.0103987  0.0993596  0.0184781  0.419551  0.0264067  0.280171  
537 3 5.87748 -5.57991 1.43686 24 0.0466191  0.0780164  0.199089  0.0361805  0.211072  0.041923  0.315767  0.00673608  0.0223937  0.109815  0.0648534  0.416051  0.0683883  0.273016  
538 3 6.25096 -8.43952 0.230756 23 0.0332079  0.0882004  0.172711  0.0489851  0.195415  0.0458789  0.325462  0.00783059  0.0102206  0.110548  0.0221733  0.418212  0.0269918  0.26532  
540 3 6.12542 -8.49112 2.76315 24 0.0353225  0.0921968  0.145287  0.0480626  0.193281  0.050592  0.315764  0.00751369  0.0157546  0.112357  0.0326515  0.422915  0.0406317  0.266955  
555 1 7.46151 -2.2764 1.39574 28 0.0436083  0.127136  0.133036  0.0634339  0.17141  0.080266  0.336951  0.0531343  0.0177998  0.0503728  0.0194164  0.332056  0.0394271  0.327397  
556 2 5.22699 -4.10674 1.42983 25 0.0183231  0.108019  0.275201  0.0612095  0.180122  0.0717342  0.312463  0.0493734  0.00256698  0.295189  0.00526706  0.352556  0.00664336  0.178667  
557 3 8.45698 -4.11796 1.43099 22 0.0192528  0.0509021  0.225901  0.0265716  0.177273  0.0361223  0.301466  0.0231923  0.0103965  0.0884166  0.0236328  0.414347  0.0226153  0.286815  
558 3 6.2361 -0.516041 1.42713 26 0.0382749  0.0586284  0.178966  0.0296519  0.208243  0.0455649  0.328272  0.00656712  0.0190945  0.111729  0.0662619  0.419204  0.0728059  0.267012  
559 3 5.88924 -3.44182 0.190054 24 0.0305725  0.0937662  0.146522  0.043831  0.195068  0.0565723  0.315895  0.00790453  0.0100475  0.109562  0.0243734  0.420023  0.0294476  0.265354  
560 3 5.81909 -3.47583 2.71327 24 0.0276824  0.0937703  0.137218  0.0436625  0.19378  0.0495073  0.310913  0.00649189  0.0148726  0.109922  0.0229452  0.416716  0.0325185  0.266467  
85 1 -0.0393836 0.0217601 0.0479283 28 0.0607321  0.0597398  0.306422  0.0216224  0.178909  0.038309  0.363553  0.0403149  0.0195933  0.0667754  0.0179265  0.310064  0.0311994  0.330712  
86 1 0.000967949 2.82681 -4.4931 27 0.0430731  0.127609  0.105571  0.0495965  0.196317  0.0784995  0.319833  0.0562392  0.0182552  0.0622456  0.0155356  0.338699  0.0293859  0.328081  
87 2 -2.74631 0.994606 -4.52259 25 0.010637  0.0714602  0.296478  0.0688868  0.174966  0.0552811  0.317939  0.0499001  0.0127572  0.299879  0.0233405  0.348801  0.0241699  0.18417  
88 3 -1.18585 0.949747 -4.55301 23 0.0251235  0.0508032  0.231963  0.0242569  0.178273  0.0366685  0.306141  0.0225415  0.00890304  0.0921148  0.0274954  0.410707  0.0409923  0.281567  
89 3 -3.82218 4.58256 -4.47414 25 0.0462472  0.0765622  0.200542  0.0406932  0.214339  0.0432788  0.308613  0.00746151  0.0174066  0.11385  0.0522161  0.408151  0.0654579  0.25905  
90 3 -3.36817 1.70424 -5.82563 24 0.0276641  0.091271  0.13822  0.0523935  0.198901  0.0426947  0.308083  0.00645972  0.0118728  0.109363  0.0273069  0.408568  0.0392237  0.259396  
91 1 0.0990647 0.0683567 -3.02158 28 0.0324333  0.0215956  0.313422  0.0236631  0.175903  0.0346049  0.34908  0.0449827  0.00654357  0.0642561  0.0116313  0.316306  0.0152837  0.330301  
92 3 -3.3729 1.67148 -3.24347 24 0.0284045  0.0880644  0.165293  0.0438048  0.196695  0.0425954  0.314895  0.0037789  0.0121389  0.106747  0.0368352  0.406905  0.0418827  0.258554  
93 1 -4.69857 7.39604 -1.37206 28 0.0380551  0.140157  0.116352  0.0675788  0.173713  0.0702554  0.322466  0.05594  0.0219926  0.0503895  0.0167356  0.330059  0.0415808  0.324127  
94 2 -2.10602 9.25322 -1.44767 25 0.0172596  0.110434  0.255135  0.0654646  0.18561  0.0659408  0.303156  0.0503685  0.0131899  0.2912  0.0221281  0.353129  0.0237758  0.174126  
95 3 -3.66676 9.23383 -1.3714 23 0.0209294  0.0438403  0.223268  0.0353257  0.174754  0.0360243  0.299426  0.0160551  0.0113781  0.0966036  0.0235399  0.407325  0.0231917  0.276301  
96 3 -1.0036 5.58427 -1.46384 24 0.0361713  0.0519123  0.173179  0.0359248  0.213672  0.0390687  0.300609  0.00779925  0.0147957  0.110738  0.0533284  0.411085  0.0632658  0.259019  
97 3 -1.42979 8.56192 -2.74929 24 0.0278517  0.0841652  0.165429  0.0448568  0.201421  0.0514368  0.308181  0.0083919  0.0189579  0.108889  0.0461467  0.401783  0.045885  0.259415  
98 3 -1.4412 8.55508 -0.206972 24 0.024868  0.0749089  0.181862  0.0546602  0.200582  0.0464695  0.306395  0.00612392  0.0176132  0.110764  0.0322249  0.407364  0.0362549  0.260654  
99 1 -2.33426 5.18451 -2.98776 29 0.0406117  0.076466  0.31598  0.0391335  0.177624  0.0614535  0.330109  0.0332527  0.0103814  0.082526  0.0158729  0.296516  0.0162199  0.332086  
100 1 -2.53101 2.23151 -1.48955 27 0.0382008  0.139883  0.138056  0.0601418  0.17762  0.075588  0.323675  0.0550718  0.0212536  0.0499303  0.0164531  0.328622  0.0375389  0.326733  
101 2 -0.317261 4.07998 -1.56353 25 0.0203249  0.118134  0.229479  0.0688521  0.187485  0.0789122  0.292278  0.0513881  0.00467781  0.295229  0.00743687  0.350365  0.00760955  0.177242  
102 3 -3.54452 4.13358 -1.46568 22 0.0222849  0.0466514  0.22688  0.0326094  0.171405  0.0363335  0.299795  0.0171027  0.0122361  0.0944093  0.0270482  0.410922  0.026884  0.276694  
103 3 -1.38047 0.479634 -1.47765 24 0.0464195  0.0820651  0.202431  0.036872  0.216335  0.0474287  0.316465  0.00638756  0.0191668  0.1076  0.0655455  0.41293  0.07297  0.266321  
104 3 -1.03907 3.44026 -2.77566 24 0.0293545  0.0977786  0.139179  0.0443395  0.20388  0.0433611  0.301431  0.00616952  0.0167582  0.104344  0.0234809  0.406823  0.0335151  0.259421  
105 1 -2.32779 5.10048 -0.00473363 29 0.0303191  0.036547  0.278117  0.0423354  0.161001  0.0318992  0.324907  0.0444159  0.00771735  0.0620147  0.0149475  0.314249  0.0202286  0.32969  
106 3 -1.04325 3.54376 -0.247699 24 0.0318679  0.088539  0.166154  0.0487459  0.196277  0.0498026  0.321584  0.00334341  0.0124292  0.111185  0.0287949  0.415931  0.0292086  0.261488  
107 1 -2.32299 7.98118 -4.49359 27 0.0420902  0.116192  0.108077  0.0686233  0.186152  0.0723939  0.315714  0.0529139  0.0184559  0.0515117  0.0211146  0.333269  0.0367016  0.326191  
108 2 -4.49461 6.09252 -4.47895 25 0.0194705  0.105918  0.278955  0.0672922  0.184469  0.0650992  0.314368  0.0517375  0.00208042  0.295808  0.00611459  0.350987  0.00680495  0.180194  
109 3 -1.30235 6.09217 -4.57359 22 0.0235151  0.0452115  0.222857  0.0315118  0.180437  0.0313248  0.287853  0.0169199  0.00913151  0.0917143  0.0272331  0.401606  0.0256696  0.27241  
110 3 -3.34898 9.72062 -4.48938 24 0.0390292  0.0590439  0.200184  0.0311614  0.20803  0.0393737  0.318631  0.00868357  0.0165213  0.11361  0.0525238  0.409803  0.0631706  0.262248  
111 3 -3.86636 6.7592 -5.77808 24 0.0297101  0.0942554  0.142683  0.0426485  0.193817  0.0522518  0.306828  0.00618432  0.016706  0.112013  0.032074  0.407773  0.0362711  0.259658  
112 3 -3.84442 6.75915 -3.21547 24 0.0275702  0.0887569  0.160312  0.0427269  0.20152  0.0452891  0.310881  0.0064599  0.0174855  0.105964  0.0268  0.4049  0.0358034  0.258779  
114 1 -0.0879235 2.88379 1.48411 27 0.0369866  0.15086  0.0724675  0.0751876  0.185767  0.0797834  0.327392  0.0418971  0.0215517  0.059499  0.0201173  0.31533  0.0418458  0.328433  
115 2 -2.73099 0.931826 1.44277 25 0.0230608  0.114908  0.260574  0.06138  0.182109  0.0774597  0.312448  0.0499715  0.0109499  0.295296  0.0243091  0.350814  0.0231063  0.177679  
116 3 -1.1871 0.949284 1.46063 22 0.0215257  0.0503181  0.233529  0.0271233  0.172769  0.0337441  0.295391  0.0164456  0.00983391  0.0986109  0.0277782  0.416242  0.0284068  0.280398  
117 3 -3.79547 4.5232 1.54761 25 0.0413555  0.0739241  0.171575  0.035221  0.212238  0.0623098  0.325685  0.00757948  0.0159854  0.117113  0.0527628  0.420904  0.0561368  0.261954  
118 3 -3.43038 1.6277 0.218053 24 0.0357867  0.0966434  0.145952  0.0377157  0.192568  0.049464  0.322366  0.00533198  0.0127108  0.113146  0.0215233  0.413391  0.0320559  0.262361  
120 3 -3.45899 1.61254 2.6902 23 0.0338423  0.0955274  0.144607  0.0472182  0.196004  0.0476785  0.325819  0.00546017  0.0134536  0.115416  0.0246523  0.419085  0.0327803  0.265553  
135 1 -2.29483 7.91346 1.55246 28 0.0427014  0.124483  0.140797  0.0652624  0.1647  0.0738819  0.316055  0.0518626  0.0200187  0.0490036  0.017854  0.33202  0.0332486  0.326917  
136 2 -4.49585 6.05443 1.52969 25 0.0189305  0.117377  0.25937  0.0623246  0.181044  0.0693433  0.33038  0.0518682  0.0122196  0.293085  0.0239196  0.350875  0.0215474  0.176058  
137 3 -1.21058 5.97769 1.54347 22 0.022488  0.0466426  0.22602  0.0302539  0.168836  0.0351127  0.29985  0.0156715  0.0121526  0.0977466  0.0206553  0.419361  0.0288888  0.275045  
138 3 -3.41219 9.70835 1.60819 25 0.0473392  0.0766569  0.19511  0.0410968  0.210577  0.0407082  0.317849  0.00486213  0.0185827  0.110686  0.0529435  0.41462  0.05416  0.269662  
139 3 -3.79388 6.74598 0.340325 24 0.0319976  0.0960205  0.137564  0.0471827  0.195328  0.0446489  0.314324  0.00305854  0.0144256  0.108666  0.0233049  0.410551  0.0287989  0.260825  
140 3 -3.77196 6.6827 2.90107 24 0.0333564  0.093093  0.160071  0.0365288  0.188526  0.0400353  0.321759  0.00690782  0.0140587  0.11373  0.0244628  0.416998  0.0326547  0.261382  
337 1 4.88006 -0.0323309 -0.0701374 28 0.0357419  0.0568063  0.347835  0.0177495  0.184059  0.04925  0.355105  0.0505396  0.00525608  0.0664964  0.0115537  0.324755  0.01528  0.327203  
338 1 4.87266 2.7943 -4.52159 27 0.0529626  0.115538  0.1185  0.059383  0.211005  0.080897  0.343564  0.0526284  0.0188297  0.0522681  0.0167819  0.327585  0.033541  0.327999  