ITEM: TIMESTEP
10000
ITEM: NUMBER OF ATOMS
756
ITEM: BOX BOUNDS pp pp pp
-4.8435403183999997e+00 9.6870806368999993e+00
-1.0186409263300000e+01 2.0372818526500001e+01
-6.0013959751000003e+00 1.2002791950200001e+01
ITEM: ATOMS id type x y z q2 q3 q4 q5 q6 q7 q8 q9 q10 q11 q12
1 1 0.0258608 -10.143 -0.065729 0.155294  0.0530659  0.689783  0.0823283  0.449662  0.0905771  0.611983  0.130302  0.49836  0.145842  0.579011  
2 1 -0.143919 -7.33077 -4.61227 0.0926791  0.265371  0.615374  0.367603  0.2881  0.349962  0.499291  0.425075  0.298598  0.366055  0.508633  
3 2 -2.80483 -9.18178 -4.47135 0.133581  0.661193  0.461863  0.248182  0.571891  0.534907  0.352151  0.474241  0.506409  0.452084  0.489914  
4 3 -1.27222 -9.30923 -4.52587 0.160516  0.450778  0.346586  0.345831  0.243864  0.296675  0.50803  0.368384  0.29099  0.399827  0.378927  
5 3 -3.85787 -5.58743 -4.55204 0.135473  0.396409  0.36335  0.207157  0.267878  0.321252  0.461923  0.368086  0.21438  0.395204  0.391038  
6 3 -3.5342 -8.60361 -5.76574 0.135643  0.438225  0.32583  0.252623  0.270516  0.360416  0.465219  0.333406  0.268377  0.412332  0.370613  
7 1 0.0123761 -10.2438 -3.10061 0.157375  0.075236  0.663425  0.170659  0.429709  0.155673  0.584711  0.241385  0.428243  0.272982  0.539491  
8 3 -3.49711 -8.5357 -3.18516 0.140953  0.403791  0.319026  0.286349  0.246029  0.313214  0.475203  0.344774  0.221765  0.387082  0.384381  
9 1 -4.81934 -2.91157 -1.3934 0.0764855  0.256429  0.646511  0.288361  0.322552  0.395647  0.492674  0.375825  0.344722  0.402725  0.468586  
10 2 -2.05721 -0.958428 -1.46382 0.11905  0.651097  0.461839  0.221298  0.576034  0.545012  0.318107  0.464443  0.522745  0.433964  0.465807  
11 3 -3.61321 -0.854447 -1.47013 0.145332  0.440412  0.338593  0.308991  0.244721  0.301291  0.493401  0.376709  0.23849  0.394377  0.413149  
12 3 -1.19361 -4.6039 -1.41843 0.117432  0.41751  0.359628  0.225282  0.257822  0.309386  0.482952  0.361428  0.224571  0.389759  0.414909  
13 3 -1.40214 -1.6101 -2.88308 0.150483  0.395616  0.319725  0.314535  0.262789  0.257461  0.505751  0.351216  0.191475  0.392566  0.37555  
14 3 -1.30422 -1.64262 -0.205183 0.120445  0.43209  0.364762  0.264749  0.266265  0.342846  0.491805  0.357285  0.219514  0.412876  0.406811  
15 1 -2.46534 -5.15156 -2.91755 0.167407  0.0570975  0.694386  0.0609886  0.47358  0.103552  0.605083  0.110026  0.514666  0.151557  0.584605  
16 1 -2.49335 -7.9811 -1.42874 0.0644572  0.267753  0.640306  0.328223  0.291653  0.386931  0.498177  0.415962  0.286402  0.398472  0.503875  
17 2 -0.393641 -6.06162 -1.47267 0.13836  0.650537  0.466313  0.261043  0.567717  0.530197  0.358854  0.475383  0.48824  0.468105  0.489186  
18 3 -3.6593 -6.01166 -1.53935 0.143224  0.437054  0.345985  0.314415  0.243708  0.292037  0.49701  0.375003  0.254622  0.397263  0.394437  
19 3 -1.29758 -9.64792 -1.48198 0.137437  0.408885  0.340337  0.241692  0.267773  0.308472  0.478412  0.368166  0.212866  0.380788  0.40366  
20 3 -1.07416 -6.77427 -2.72412 0.128018  0.394094  0.355239  0.259476  0.251313  0.349211  0.475329  0.32296  0.236109  0.407305  0.362258  
21 1 -2.42069 -5.16155 0.0383398 0.161996  0.059887  0.697034  0.0794247  0.455188  0.106616  0.612016  0.133646  0.50382  0.154483  0.581603  
22 3 -1.11298 -6.76938 -0.154788 0.148303  0.428164  0.341905  0.291841  0.2724  0.339496  0.482574  0.359921  0.225265  0.413098  0.393588  
23 1 -2.43495 -2.24305 -4.49143 0.0609394  0.25983  0.666085  0.268055  0.304718  0.403611  0.516321  0.363071  0.319457  0.425356  0.49249  
24 2 -4.54097 -4.13957 -4.487 0.103691  0.667185  0.48096  0.17844  0.591286  0.553196  0.294134  0.481864  0.547051  0.411073  0.472242  
25 3 -1.34788 -4.25047 -4.46349 0.138797  0.448589  0.358147  0.28082  0.25818  0.324357  0.464241  0.374074  0.2814  0.397553  0.410439  
26 3 -3.49792 -0.53078 -4.46209 0.150564  0.427601  0.365613  0.219585  0.301425  0.343705  0.467219  0.391943  0.21835  0.40997  0.409945  
27 3 -3.90025 -3.36506 -5.68292 0.160324  0.431522  0.361887  0.272606  0.276666  0.357863  0.462813  0.352619  0.296596  0.411579  0.374412  
28 3 -3.87721 -3.54007 -3.124 0.138556  0.394108  0.320929  0.263216  0.25555  0.307963  0.46687  0.327718  0.217845  0.392176  0.375711  
30 1 -0.206995 -7.39226 1.53115 0.0738824  0.281119  0.630238  0.341617  0.275641  0.386605  0.500076  0.421746  0.256021  0.389591  0.522943  
31 2 -2.70972 -9.18342 1.53184 0.127276  0.651915  0.47499  0.224896  0.566665  0.533946  0.34521  0.474923  0.497829  0.459032  0.489211  
32 3 -1.18723 -9.2538 1.48688 0.135404  0.463164  0.357376  0.309197  0.269565  0.325057  0.485039  0.384355  0.279323  0.405062  0.41098  
33 3 -3.8508 -5.63012 1.40413 0.165176  0.403386  0.342502  0.241493  0.28018  0.298596  0.476788  0.380078  0.206239  0.403603  0.381776  
34 3 -3.45194 -8.52243 0.266873 0.14123  0.426779  0.326593  0.25728  0.265247  0.354222  0.462573  0.349479  0.253301  0.401628  0.38118  
36 3 -3.39962 -8.44338 2.83181 0.153798  0.37398  0.33834  0.293067  0.238086  0.326645  0.458817  0.361884  0.250831  0.3346  0.385425  
51 1 -2.32517 -2.36487 1.59289 0.0770614  0.249394  0.652332  0.291613  0.31145  0.373674  0.509058  0.386382  0.331863  0.367719  0.504673  
52 2 -4.4529 -4.21225 1.41864 0.105886  0.674859  0.48007  0.179335  0.585643  0.557005  0.302575  0.482605  0.546975  0.417498  0.470497  
53 3 -1.20008 -4.26645 1.64236 0.139568  0.452425  0.364879  0.299279  0.243755  0.318303  0.486919  0.371733  0.275985  0.407728  0.408717  
54 3 -3.35175 -0.552832 1.60002 0.143622  0.395125  0.350399  0.238057  0.278455  0.263913  0.485256  0.370999  0.196349  0.393932  0.39867  
55 3 -3.75778 -3.52845 0.218443 0.14095  0.43031  0.326489  0.277677  0.264596  0.317116  0.480904  0.362629  0.228828  0.397165  0.401199  
56 3 -3.80847 -3.60188 2.76102 0.146641  0.438224  0.344143  0.246669  0.28437  0.362103  0.463049  0.331521  0.294888  0.427084  0.342214  
253 1 4.84816 -10.1947 0.0131039 0.175284  0.0486635  0.681494  0.0553225  0.464437  0.0751582  0.609506  0.0988998  0.50607  0.112302  0.595272  
254 1 4.82102 -7.41845 -4.42089 0.064189  0.21825  0.689261  0.22462  0.315173  0.363447  0.546204  0.344813  0.318529  0.431833  0.464728  
255 2 2.12137 -9.13368 -4.44925 0.149965  0.620405  0.454464  0.303697  0.548713  0.506686  0.389973  0.451617  0.442594  0.500741  0.495056  
256 3 3.65293 -9.23221 -4.467 0.133611  0.454522  0.351382  0.335578  0.280049  0.282847  0.502705  0.409055  0.236952  0.412369  0.415387  
257 3 0.891258 -5.63043 -4.47011 0.154332  0.395408  0.352088  0.244926  0.2927  0.30902  0.46441  0.366868  0.227821  0.394704  0.37414  
258 3 1.33462 -8.45246 -5.76412 0.14174  0.415165  0.340817  0.272248  0.309107  0.300253  0.478104  0.362471  0.246845  0.381424  0.405177  
259 1 4.88919 -10.157 -3.00783 0.173292  0.038239  0.670797  0.0625346  0.468399  0.0807839  0.601403  0.106304  0.496439  0.12016  0.593791  
260 3 1.30247 -8.4999 -3.16747 0.125341  0.408556  0.311208  0.291885  0.252063  0.335167  0.478191  0.34992  0.242574  0.360976  0.385148  
261 1 -0.00248169 -2.77081 -1.4562 0.0777938  0.214244  0.671323  0.281436  0.322844  0.318293  0.538094  0.40014  0.316776  0.357174  0.495857  
262 2 2.75302 -0.997142 -1.4795 0.103271  0.671366  0.472835  0.183664  0.591027  0.556419  0.292543  0.482533  0.547087  0.405416  0.472685  
263 3 1.16113 -0.931138 -1.49159 0.14635  0.463158  0.355941  0.301985  0.274205  0.306716  0.487914  0.393603  0.236632  0.418488  0.432781  
264 3 3.71244 -4.50731 -1.50938 0.129011  0.388741  0.373641  0.265868  0.282237  0.300836  0.484982  0.37413  0.217958  0.346693  0.424511  
265 3 3.42354 -1.60643 -2.7592 0.137434  0.442091  0.32654  0.268253  0.272235  0.322665  0.479034  0.363603  0.251194  0.39874  0.410839  
266 3 3.39541 -1.6861 -0.174794 0.15661  0.384531  0.332458  0.307937  0.248513  0.323309  0.484753  0.323692  0.258137  0.376125  0.363921  
267 1 2.42764 -5.0097 -2.98902 0.171513  0.0867231  0.652284  0.0945532  0.447808  0.159732  0.576244  0.181711  0.472173  0.21556  0.539468  
268 1 2.31311 -7.95286 -1.48218 0.0584104  0.282272  0.635767  0.329345  0.284819  0.399053  0.503605  0.400432  0.296318  0.383402  0.531575  
269 2 4.41671 -6.01316 -1.45619 0.104306  0.66659  0.479392  0.178982  0.583796  0.553816  0.299481  0.478539  0.550164  0.419038  0.450946  
270 3 1.10848 -5.90776 -1.54349 0.154408  0.438476  0.35467  0.351039  0.242265  0.287865  0.517548  0.363022  0.2799  0.391725  0.389764  
271 3 3.44953 -9.60387 -1.53083 0.159963  0.384351  0.335841  0.260624  0.285228  0.26198  0.468472  0.387792  0.197688  0.38154  0.382717  
272 3 3.8492 -6.73744 -2.73745 0.166722  0.396627  0.330233  0.26789  0.240249  0.307681  0.465037  0.348525  0.234034  0.401542  0.380518  
273 1 2.33866 -5.07887 -0.129574 0.1479  0.0914725  0.68061  0.109419  0.433607  0.175809  0.588328  0.189952  0.473034  0.246592  0.532861  
274 3 3.68919 -6.73712 -0.241442 0.134256  0.43611  0.331291  0.295807  0.274004  0.317688  0.482582  0.379078  0.214492  0.406695  0.413079  
275 1 2.33252 -2.20182 -4.33253 0.0660184  0.271629  0.645979  0.274545  0.32038  0.418726  0.48641  0.357371  0.363869  0.422487  0.441516  
276 2 0.265135 -4.13777 -4.51509 0.103951  0.662226  0.473574  0.200253  0.582259  0.554599  0.306298  0.464726  0.543646  0.432837  0.45371  
277 3 3.50654 -4.08745 -4.50643 0.125854  0.44306  0.336371  0.305187  0.281731  0.313012  0.460595  0.410946  0.243541  0.358804  0.438421  
278 3 1.33721 -0.519548 -4.43973 0.15103  0.417713  0.352773  0.232106  0.305229  0.304003  0.471661  0.373113  0.215213  0.412815  0.397274  
279 3 0.947545 -3.50642 -5.77822 0.143763  0.368792  0.326258  0.283901  0.227599  0.336351  0.461692  0.321161  0.214647  0.385139  0.356712  
280 3 0.906556 -3.48399 -3.22368 0.136525  0.422595  0.351481  0.240757  0.29257  0.342606  0.458994  0.336025  0.259727  0.408678  0.382701  
282 1 4.67258 -7.40318 1.45983 0.0691748  0.285588  0.630601  0.320088  0.277683  0.40418  0.494867  0.409837  0.260449  0.405674  0.499137  
283 2 2.10541 -9.21089 1.49184 0.123845  0.652184  0.467935  0.223512  0.565151  0.537837  0.336249  0.469293  0.505476  0.450206  0.477388  
284 3 3.70066 -9.24287 1.54448 0.131683  0.483703  0.367349  0.291855  0.299529  0.347196  0.464804  0.405235  0.298989  0.398847  0.430703  
285 3 1.02836 -5.65755 1.65611 0.128767  0.388483  0.35898  0.226837  0.275696  0.308709  0.449354  0.373949  0.239161  0.360265  0.395915  
286 3 1.39033 -8.47065 0.226802 0.147002  0.410259  0.343395  0.267068  0.265291  0.352933  0.455083  0.341437  0.266337  0.395483  0.378113  
288 3 1.35417 -8.64987 2.77411 0.129392  0.442932  0.323353  0.267026  0.267292  0.310572  0.489832  0.36644  0.206849  0.414953  0.409092  
303 1 2.5638 -2.2235 1.5888 0.0746843  0.297613  0.618744  0.352506  0.277693  0.385115  0.518585  0.397236  0.28062  0.372208  0.54858  
304 2 0.357858 -4.13439 1.54178 0.102648  0.669432  0.48054  0.189731  0.579972  0.558256  0.308419  0.469318  0.549273  0.438495  0.442263  
305 3 3.66932 -4.207 1.46502 0.137005  0.445291  0.348382  0.296513  0.257962  0.284978  0.491466  0.381482  0.236996  0.41185  0.414843  
306 3 1.39324 -0.506588 1.56793 0.134763  0.413275  0.370249  0.203444  0.293424  0.335973  0.449253  0.393521  0.212296  0.407435  0.401463  
307 3 0.996767 -3.44585 0.240102 0.137874  0.420011  0.340958  0.259585  0.237479  0.356134  0.463737  0.335379  0.253632  0.408033  0.376414  
308 3 1.00809 -3.417 2.72662 0.146898  0.431582  0.327678  0.243743  0.265042  0.364089  0.445649  0.356611  0.277655  0.412919  0.361151  
505 1 9.72805 -10.3554 0.0331057 0.177043  0.0866247  0.641847  0.208333  0.451361  0.1853  0.548975  0.262933  0.413247  0.351836  0.502537  
506 1 9.50905 -7.38596 -4.50653 0.083149  0.271046  0.640777  0.324482  0.29457  0.382737  0.488935  0.425239  0.286759  0.392969  0.50043  
507 2 6.96926 -9.12684 -4.58397 0.128097  0.653591  0.462674  0.237476  0.56924  0.527574  0.342471  0.485406  0.504804  0.427212  0.499819  
508 3 8.48361 -9.33936 -4.61981 0.143325  0.442553  0.360392  0.283106  0.214073  0.34682  0.482754  0.329523  0.314553  0.40785  0.363305  
509 3 5.83205 -5.57273 -4.50275 0.130824  0.407285  0.386636  0.200456  0.299512  0.343991  0.455838  0.367409  0.23925  0.415081  0.389653  
510 3 6.29477 -8.41977 -5.76765 0.158657  0.391693  0.355949  0.307361  0.250679  0.336683  0.487997  0.330276  0.259066  0.381648  0.377639  
511 1 9.67179 -10.3089 -3.01989 0.163898  0.0763288  0.684242  0.139799  0.447809  0.127924  0.597125  0.210153  0.465217  0.236166  0.562305  
512 3 6.34885 -8.63938 -3.17712 0.162026  0.420115  0.347729  0.293228  0.314715  0.308918  0.478266  0.35259  0.292197  0.386649  0.360416  
513 1 5.02845 -2.76734 -1.51483 0.0680289  0.2731  0.620405  0.353133  0.266519  0.364872  0.510193  0.422971  0.234113  0.365392  0.536765  
514 2 7.60529 -0.978212 -1.45306 0.137939  0.648782  0.473012  0.252081  0.554555  0.531547  0.363719  0.466098  0.490089  0.478183  0.476719  
515 3 6.07674 -0.918917 -1.50814 0.13633  0.456074  0.357719  0.316578  0.278024  0.305545  0.493627  0.389968  0.268913  0.405086  0.403631  
516 3 8.59602 -4.69241 -1.49442 0.119203  0.434945  0.349555  0.202412  0.302622  0.342504  0.435265  0.376551  0.262827  0.397894  0.394018  
517 3 8.30087 -1.69024 -2.76442 0.126587  0.406943  0.335595  0.256374  0.223222  0.34028  0.462182  0.338753  0.230201  0.397322  0.379537  
518 3 8.37477 -1.65399 -0.220289 0.131698  0.422549  0.324205  0.241815  0.26575  0.347033  0.463858  0.348229  0.248359  0.39379  0.380815  
519 1 7.15013 -5.13058 -2.99038 0.18173  0.0745969  0.663604  0.0918404  0.480016  0.140666  0.574328  0.164747  0.494695  0.193306  0.562093  
520 1 7.17612 -7.99829 -1.49376 0.0837027  0.280967  0.634462  0.344937  0.28211  0.382267  0.500945  0.437647  0.252443  0.39283  0.518872  
521 2 9.33278 -6.13764 -1.59864 0.113301  0.661231  0.473287  0.213005  0.580833  0.5471  0.315772  0.479215  0.52625  0.432704  0.472829  
522 3 6.03235 -5.92199 -1.39464 0.140763  0.446609  0.373309  0.294563  0.250501  0.314983  0.477068  0.364582  0.27629  0.403765  0.414374  
523 3 8.39069 -9.6665 -1.48468 0.144279  0.374709  0.354805  0.263704  0.244469  0.294173  0.505379  0.365199  0.200666  0.356938  0.399842  
524 3 8.67953 -6.76311 -2.84195 0.151382  0.413955  0.350876  0.295744  0.278678  0.299975  0.503003  0.341815  0.21485  0.406543  0.401191  
525 1 7.33164 -5.09089 0.00450796 0.16958  0.0594969  0.694599  0.0865762  0.463058  0.108368  0.607878  0.143621  0.503645  0.171159  0.579574  
526 3 8.69935 -6.85534 -0.253868 0.148049  0.410926  0.327999  0.266114  0.237625  0.323493  0.474835  0.333387  0.252298  0.398094  0.378521  
527 1 7.29377 -2.32539 -4.59491 0.062747  0.234688  0.658167  0.307703  0.29437  0.349483  0.529767  0.411199  0.27035  0.369869  0.522145  
528 2 5.11611 -4.08814 -4.55022 0.111461  0.642021  0.468736  0.226003  0.576207  0.53767  0.319682  0.471204  0.503019  0.439968  0.482037  
529 3 8.42019 -4.17792 -4.47067 0.135068  0.443265  0.345692  0.308883  0.260588  0.299073  0.484448  0.396829  0.229251  0.389759  0.416588  
530 3 6.25579 -0.588418 -4.54542 0.148118  0.396189  0.348319  0.250731  0.301682  0.274975  0.488424  0.374646  0.196336  0.381868  0.404343  
531 3 5.8617 -3.44589 -5.87498 0.133254  0.409258  0.336569  0.303369  0.282991  0.291235  0.498145  0.35721  0.195464  0.396127  0.400171  
532 3 5.76369 -3.40646 -3.27305 0.16014  0.405335  0.350511  0.291958  0.240857  0.357926  0.485772  0.322177  0.28802  0.392796  0.35818  
534 1 9.68792 -7.37836 1.41498 0.0755497  0.251132  0.64852  0.320992  0.310197  0.349177  0.517387  0.402467  0.330008  0.352754  0.519029  
535 2 7.01948 -9.22392 1.47384 0.150577  0.632246  0.447403  0.293548  0.561122  0.500736  0.372454  0.489726  0.439591  0.455487  0.534835  
536 3 8.58421 -9.3258 1.52814 0.127106  0.43933  0.345372  0.311092  0.256195  0.328603  0.484753  0.381144  0.274601  0.355823  0.412287  
537 3 5.93052 -5.70144 1.51247 0.133095  0.369246  0.352916  0.246176  0.27305  0.284706  0.485863  0.360106  0.199646  0.345075  0.405515  
538 3 6.31211 -8.60632 0.169446 0.158089  0.410073  0.307247  0.279348  0.298225  0.301309  0.484245  0.348442  0.227298  0.395904  0.368747  
540 3 6.28523 -8.59575 2.73098 0.134471  0.414054  0.333877  0.260611  0.266841  0.331405  0.477952  0.340655  0.251733  0.395423  0.372264  
555 1 7.45333 -2.35911 1.57706 0.0764791  0.258409  0.643818  0.303177  0.297527  0.38284  0.50387  0.4009  0.288685  0.396698  0.493559  
556 2 5.21442 -4.16905 1.48022 0.136432  0.653569  0.476582  0.249979  0.567319  0.530579  0.359664  0.474587  0.498003  0.472459  0.480505  
557 3 8.46438 -4.23102 1.41086 0.137313  0.473895  0.373869  0.264516  0.296265  0.352224  0.443939  0.393642  0.291152  0.395576  0.445631  
558 3 6.26687 -0.456075 1.55586 0.123205  0.392867  0.340498  0.234084  0.281012  0.288668  0.456927  0.377196  0.218297  0.383173  0.378299  
559 3 6.0096 -3.47624 0.302412 0.122093  0.43202  0.330045  0.254639  0.264911  0.367879  0.454318  0.360025  0.265452  0.378972  0.394209  
560 3 5.88452 -3.4584 2.8117 0.158751  0.403289  0.320181  0.273593  0.262897  0.308852  0.476874  0.343806  0.241164  0.385365  0.36929  
85 1 0.0335181 -0.0645116 0.0363291 0.178953  0.0343003  0.686112  0.0570781  0.482903  0.0652847  0.597749  0.0840289  0.534436  0.111795  0.577006  
86 1 -0.129502 2.79418 -4.55848 0.0776331  0.256164  0.648352  0.315597  0.297429  0.36289  0.518338  0.41111  0.296031  0.361366  0.531917  
87 2 -2.82718 0.916407 -4.43612 0.121275  0.663301  0.465115  0.21839  0.591708  0.533025  0.310391  0.500859  0.525099  0.382771  0.510577  
88 3 -1.25153 0.943044 -4.45927 0.14426  0.458189  0.353564  0.302505  0.28106  0.295908  0.47474  0.405187  0.239713  0.414952  0.4284  
89 3 -3.82677 4.61869 -4.43066 0.148571  0.397479  0.343001  0.262651  0.295505  0.262655  0.473733  0.380404  0.201764  0.396341  0.378122  
90 3 -3.50315 1.43793 -5.80125 0.137197  0.420516  0.303553  0.25704  0.272986  0.317904  0.4451  0.358991  0.239534  0.401443  0.363952  
91 1 -0.0190463 -0.0319974 -2.99006 0.163242  0.0290186  0.693704  0.0362876  0.456242  0.0593836  0.620175  0.0644859  0.511433  0.0841663  0.600326  
92 3 -3.5013 1.67241 -3.1487 0.137628  0.402836  0.332526  0.288  0.261705  0.288817  0.482211  0.362353  0.221097  0.378091  0.392978  
93 1 -4.73123 7.41547 -1.51021 0.0870596  0.266538  0.641553  0.323984  0.295198  0.367292  0.512353  0.407423  0.305852  0.357096  0.535816  
94 2 -2.10179 9.22236 -1.50457 0.124992  0.649051  0.473517  0.238373  0.558673  0.538798  0.350424  0.46558  0.494182  0.472924  0.474395  
95 3 -3.68431 9.31798 -1.46296 0.124199  0.454939  0.363613  0.308253  0.269499  0.332782  0.48181  0.380087  0.288202  0.389671  0.408534  
96 3 -1.11212 5.61916 -1.43845 0.119038  0.428676  0.373381  0.191522  0.289591  0.372292  0.443857  0.3734  0.280865  0.387673  0.391946  
97 3 -1.36172 8.50248 -2.72227 0.150318  0.40904  0.34685  0.256254  0.241282  0.377369  0.472119  0.321373  0.28703  0.388887  0.381891  
98 3 -1.44733 8.54683 -0.222311 0.154628  0.405185  0.328383  0.275713  0.263823  0.321872  0.477901  0.342361  0.238816  0.394268  0.375883  
99 1 -2.40538 5.23144 -3.01041 0.17514  0.0706304  0.656695  0.131097  0.463477  0.135896  0.566643  0.202416  0.495388  0.210817  0.518781  
100 1 -2.34255 2.30869 -1.52014 0.0852973  0.214135  0.671841  0.274405  0.343643  0.342188  0.506281  0.408169  0.363261  0.374701  0.419527  
101 2 -0.344488 4.21616 -1.48229 0.127991  0.648698  0.473467  0.244558  0.571661  0.532883  0.347007  0.476208  0.490449  0.462493  0.48974  
102 3 -3.5871 4.14638 -1.57016 0.14599  0.435146  0.336412  0.306942  0.257668  0.293222  0.477169  0.394559  0.22968  0.399555  0.409697  
103 3 -1.40079 0.499451 -1.49038 0.150778  0.403296  0.358935  0.243009  0.274423  0.285777  0.486637  0.371136  0.204527  0.405581  0.398531  
104 3 -1.01888 3.53324 -2.81252 0.149033  0.403527  0.336477  0.274804  0.25595  0.322636  0.488168  0.343085  0.2184  0.391536  0.388181  
105 1 -2.40734 5.09891 0.0107127 0.169133  0.0440431  0.684789  0.0535609  0.463302  0.081738  0.605834  0.101179  0.517425  0.109925  0.576795  
106 3 -1.07757 3.44891 -0.182593 0.140265  0.410556  0.347113  0.278625  0.23928  0.320995  0.486795  0.354163  0.209704  0.394224  0.396844  
107 1 -2.25974 7.9977 -4.49081 0.0899588  0.270796  0.623032  0.352316  0.277444  0.35947  0.524986  0.391991  0.293806  0.34413  0.561577  
108 2 -4.48625 6.14402 -4.55914 0.127978  0.664945  0.466989  0.218435  0.581114  0.53806  0.328005  0.484405  0.521  0.424488  0.491617  
109 3 -1.23092 6.13232 -4.53666 0.156149  0.469484  0.345505  0.309877  0.307045  0.323296  0.449335  0.413942  0.289447  0.395179  0.410498  
110 3 -3.32623 9.6303 -4.42962 0.16826  0.363071  0.358771  0.258874  0.287745  0.247506  0.487787  0.376523  0.199105  0.376774  0.376957  
111 3 -3.8477 6.6705 -5.86088 0.164374  0.397883  0.300303  0.313659  0.260337  0.263799  0.497869  0.352048  0.200289  0.387019  0.372482  
112 3 -3.7438 6.83543 -3.31455 0.129369  0.439479  0.343603  0.240505  0.272011  0.365389  0.453458  0.349084  0.27756  0.403931  0.386062  
114 1 -0.0731945 2.79001 1.55179 0.0675421  0.255766  0.662397  0.278934  0.306832  0.386967  0.509898  0.384141  0.318732  0.399335  0.49786  
115 2 -2.63719 1.02782 1.52607 0.121611  0.638103  0.459017  0.244415  0.560563  0.528487  0.342878  0.459816  0.499679  0.448605  0.472319  
116 3 -1.07477 0.857146 1.55308 0.131579  0.444587  0.350122  0.264384  0.251791  0.366409  0.458357  0.357524  0.316412  0.383301  0.381781  
117 3 -3.75784 4.63624 1.48625 0.114229  0.420822  0.383649  0.19886  0.309675  0.34733  0.451755  0.366051  0.25205  0.401861  0.402853  
118 3 -3.26922 1.64961 0.190651 0.147948  0.381178  0.359275  0.268068  0.266688  0.301471  0.486608  0.33761  0.25423  0.373814  0.374738  
120 3 -3.40239 1.65322 2.77511 0.129685  0.428378  0.352646  0.2612  0.287544  0.359555  0.465966  0.343778  0.282838  0.394925  0.385946  
135 1 -2.37998 8.00491 1.49242 0.0608962  0.266565  0.645074  0.316172  0.293041  0.382973  0.522734  0.386383  0.307908  0.357819  0.551426  
136 2 -4.54929 6.07683 1.42354 0.133124  0.657265  0.472203  0.252258  0.571855  0.537114  0.351414  0.48006  0.497228  0.464906  0.48697  
137 3 -1.23582 6.12878 1.47736 0.136451  0.442866  0.334459  0.307795  0.267599  0.295478  0.477491  0.401885  0.232227  0.400794  0.404647  
138 3 -3.4497 9.678 1.55715 0.14778  0.416693  0.346987  0.24683  0.319221  0.304008  0.476852  0.380038  0.243262  0.3838  0.389627  
139 3 -3.89527 6.74124 0.175001 0.161473  0.406318  0.336324  0.282112  0.268754  0.312279  0.493513  0.335907  0.228232  0.393291  0.393566  
140 3 -3.84144 6.81022 2.72783 0.149411  0.412759  0.341292  0.259849  0.255063  0.340342  0.469512  0.336917  0.247583  0.402367  0.374954  
337 1 4.78467 0.111028 0.013725 0.17631  0.0726364  0.661366  0.123459  0.461444  0.131742  0.584056  0.179759  0.469955  0.224929  0.564428  
338 1 4.81218 2.78861 -4.52054 0.0717179  0.258794  0.627181  0.329518  0.30078  0.380141  0.491525  0.405973  0.319456  0.358792  0.506444  
339 2 2.05245 1.03019 -4.50458 0.128629  0.659807  0.458276  0.236175  0.587422  0.530323  0.328404  0.492832  0.507387  0.405802  0.522038  
340 3 3.60777 0.952517 -4.50286 0.137379  0.451009  0.346144  0.33007  0.268724  0.287747  0.499028  0.39924  0.2337  0.402746  0.410731  
341 3 0.980805 4.65606 -4.53515 0.143223  0.38989  0.346528  0.223522  0.284234  0.296108  0.461724  0.366268  0.208335  0.398482  0.369604  
342 3 1.36643 1.56192 -5.79011 0.142567  0.430567  0.345216  0.267172  0.292659  0.319717  0.493696  0.360998  0.23326  0.402075  0.399598  
343 1 4.80453 -0.0195818 -3.03137 0.170546  0.0503746  0.658273  0.0564939  0.464938  0.100138  0.594955  0.10059  0.487524  0.138913  0.586197  
344 3 1.41274 1.66436 -3.19496 0.142668  0.384839  0.329352  0.275482  0.223256  0.288849  0.490527  0.337983  0.212308  0.370148  0.393318  
345 1 0.0707052 7.45213 -1.49305 0.0623404  0.249374  0.65741  0.312214  0.287339  0.357716  0.53339  0.410524  0.265059  0.359734  0.550166  
346 2 2.77688 9.1067 -1.49385 0.128837  0.660834  0.460532  0.228649  0.587251  0.530135  0.325227  0.490515  0.517897  0.401165  0.512758  
347 3 1.22139 9.22263 -1.56226 0.140588  0.449771  0.354095  0.307905  0.262225  0.297447  0.480666  0.396379  0.249004  0.411171  0.410605  
348 3 3.83391 5.55486 -1.532 0.136694  0.413604  0.343044  0.201606  0.304153  0.321123  0.436787  0.374608  0.240504  0.409558  0.375035  
349 3 3.45816 8.60236 -2.82125 0.132017  0.433167  0.329967  0.262651  0.302545  0.32279  0.460561  0.363833  0.249073  0.406052  0.364637  
350 3 3.39473 8.42844 -0.246103 0.151905  0.403621  0.349164  0.295598  0.289537  0.332352  0.468744  0.341307  0.276502  0.39901  0.36233  
351 1 2.41237 5.12414 -3.0125 0.194303  0.0321147  0.659289  0.0341662  0.48602  0.0492891  0.598323  0.0659281  0.50299  0.0656082  0.609037  
352 1 2.36616 2.46051 -1.36006 0.0563265  0.243954  0.671591  0.265001  0.298789  0.374579  0.524681  0.384087  0.304743  0.419858  0.468631  
353 2 4.54242 4.01065 -1.44846 0.13292  0.651471  0.464645  0.227269  0.558382  0.527976  0.353909  0.482472  0.495096  0.436221  0.499103  
354 3 1.23972 4.18947 -1.45808 0.143984  0.477367  0.357604  0.337327  0.301608  0.300174  0.500528  0.411535  0.240643  0.424692  0.43067  
355 3 3.40561 0.49897 -1.45293 0.129605  0.386535  0.38802  0.184696  0.280788  0.333428  0.449104  0.348812  0.23854  0.412384  0.368927  
356 3 3.89602 3.41336 -2.71096 0.154764  0.38897  0.333565  0.287193  0.256581  0.329722  0.491877  0.323399  0.273426  0.36489  0.347692  
357 1 2.42711 5.15284 -0.0223939 0.170305  0.0409936  0.655492  0.0744495  0.461927  0.0730051  0.598557  0.104684  0.477626  0.135852  0.596109  
358 3 3.87247 3.46754 -0.160078 0.145107  0.404179  0.333183  0.305223  0.286992  0.287635  0.495749  0.339815  0.252948  0.387371  0.368272  
359 1 2.49908 7.88192 -4.57748 0.0715527  0.246316  0.650968  0.311714  0.29043  0.356428  0.516234  0.414535  0.27695  0.371078  0.518204  
360 2 0.322608 6.14866 -4.5992 0.127354  0.663672  0.471685  0.219034  0.582214  0.533107  0.334332  0.488673  0.516113  0.421627  0.502312  
361 3 3.60602 5.96878 -4.49247 0.145405  0.466923  0.367155  0.312379  0.258692  0.324861  0.489704  0.370036  0.30081  0.421915  0.39093  
362 3 1.3517 9.67686 -4.56887 0.135002  0.401971  0.353644  0.20183  0.298139  0.309445  0.46508  0.366153  0.232197  0.379607  0.399249  
363 3 0.975154 6.76495 -5.85608 0.149943  0.409978  0.34619  0.301529  0.292239  0.301107  0.506637  0.329025  0.257211  0.388664  0.382191  
364 3 1.07681 6.77261 -3.28957 0.133489  0.417113  0.328444  0.258601  0.252161  0.334424  0.465266  0.341111  0.237548  0.394994  0.390479  
366 1 4.78809 2.87656 1.63798 0.0795059  0.261495  0.645679  0.313352  0.308269  0.37472  0.508049  0.401958  0.307993  0.390647  0.501469  
367 2 2.04008 0.960728 1.50849 0.0907979  0.670724  0.48382  0.155686  0.592405  0.562971  0.274124  0.477534  0.564359  0.406095  0.449094  
368 3 3.67718 0.899519 1.53354 0.13648  0.459142  0.365896  0.309872  0.273229  0.308273  0.480129  0.385161  0.261892  0.408921  0.422546  
369 3 0.968723 4.64928 1.48541 0.137411  0.394771  0.356144  0.213286  0.278176  0.325138  0.427951  0.368106  0.236622  0.423424  0.341763  
370 3 1.38997 1.69171 0.286731 0.161995  0.413123  0.329156  0.286024  0.246978  0.298836  0.491459  0.371519  0.210684  0.387157  0.41443  
372 3 1.43093 1.65409 2.7865 0.164408  0.423804  0.322891  0.266734  0.255186  0.346759  0.459597  0.33523  0.268133  0.414538  0.367773  
387 1 2.53952 7.97106 1.58686 0.0866691  0.273215  0.598174  0.37987  0.283677  0.358073  0.498047  0.404605  0.300322  0.370234  0.509567  
388 2 0.325608 6.1509 1.48598 0.119619  0.651096  0.469086  0.231136  0.57669  0.539297  0.330977  0.465663  0.520238  0.438784  0.467388  
389 3 3.63428 5.96293 1.45372 0.139028  0.456536  0.35961  0.314639  0.283966  0.32068  0.483496  0.391451  0.276332  0.390147  0.421686  
390 3 1.42192 9.71002 1.4785 0.143679  0.389527  0.327302  0.250451  0.289414  0.269041  0.465256  0.37943  0.192071  0.387746  0.383909  
391 3 0.917383 6.82333 0.179061 0.162677  0.385464  0.336324  0.296451  0.261554  0.306653  0.47442  0.348297  0.248083  0.377592  0.373816  
392 3 1.13991 6.74267 2.74874 0.127687  0.451489  0.323588  0.248961  0.299369  0.366755  0.456939  0.369423  0.282123  0.391311  0.392133  
589 1 9.77325 0.0920713 -0.0149739 0.165707  0.0726745  0.67811  0.133455  0.452336  0.135447  0.593036  0.196671  0.465408  0.23338  0.56436  
590 1 9.59873 2.78385 -4.37216 0.0745579  0.2403  0.663546  0.257616  0.318779  0.385212  0.509574  0.364139  0.326324  0.427307  0.455119  
591 2 6.95653 0.903471 -4.54942 0.119424  0.65755  0.475635  0.222137  0.574926  0.541916  0.33291  0.472546  0.522937  0.444157  0.469788  
592 3 8.49883 0.790807 -4.49 0.147788  0.444448  0.353768  0.298784  0.254482  0.31929  0.483248  0.372455  0.278071  0.395538  0.404122  
593 3 5.89869 4.68114 -4.39023 0.114129  0.427868  0.334267  0.201582  0.265518  0.343975  0.43992  0.353976  0.258062  0.41654  0.359715  
594 3 6.27192 1.65282 -5.74294 0.16613  0.423313  0.365202  0.292458  0.309783  0.353533  0.483458  0.355175  0.273641  0.408424  0.379278  
595 1 9.62597 -0.0481273 -3.00672 0.152907  0.0667267  0.698558  0.0856459  0.442949  0.103353  0.614213  0.148305  0.499766  0.16014  0.573514  
596 3 6.27462 1.48843 -3.18801 0.163548  0.43193  0.33928  0.289529  0.283321  0.324212  0.488363  0.361305  0.267654  0.396773  0.368949  
597 1 4.92567 7.27025 -1.40684 0.0787495  0.293145  0.618144  0.341474  0.292383  0.401738  0.489828  0.399462  0.306817  0.400862  0.507346  