ITEM: TIMESTEP
5000
ITEM: NUMBER OF ATOMS
756
ITEM: BOX BOUNDS pp pp pp
-4.8435403183999997e+00 9.6870806368999993e+00
-1.0186409263300000e+01 2.0372818526500001e+01
-6.0013959751000003e+00 1.2002791950200001e+01
ITEM: ATOMS id type x y z q2 q3 q4 q5 q6 q7 q8 q9 q10 q11 q12
1 1 0.050327 -10.2953 0.0580478 0.181063  0.109105  0.649662  0.166073  0.456846  0.203471  0.553582  0.237798  0.442565  0.321974  0.510298  
2 1 -0.0315109 -7.36908 -4.55313 0.0854066  0.274476  0.636327  0.329431  0.295367  0.384482  0.489994  0.419306  0.295665  0.392651  0.50408  
3 2 -2.68254 -9.19211 -4.44983 0.117274  0.66185  0.475963  0.221269  0.563577  0.551659  0.345504  0.462018  0.519719  0.469682  0.450974  
4 3 -1.14611 -9.40808 -4.41438 0.145474  0.439786  0.361999  0.294106  0.2409  0.333318  0.477424  0.359335  0.300304  0.398876  0.364945  
5 3 -3.69992 -5.57193 -4.55201 0.126827  0.397573  0.339523  0.210171  0.272063  0.330462  0.452013  0.357491  0.245641  0.374918  0.377836  
6 3 -3.34348 -8.50806 -5.70919 0.152429  0.407958  0.364813  0.287687  0.273613  0.347651  0.48979  0.337715  0.274012  0.385123  0.384033  
7 1 -0.00885869 -10.2313 -2.91789 0.173917  0.0363382  0.675617  0.0388962  0.482097  0.0781306  0.599998  0.0645939  0.50625  0.109412  0.605501  
8 3 -3.35388 -8.48137 -3.17982 0.167844  0.373884  0.313476  0.294333  0.24129  0.27481  0.482681  0.347544  0.207316  0.373297  0.380276  
9 1 -4.73648 -2.86663 -1.59483 0.066607  0.276159  0.642925  0.319744  0.298471  0.37672  0.525127  0.390478  0.311174  0.365041  0.539911  
10 2 -1.98276 -0.943798 -1.49514 0.104025  0.662067  0.477814  0.193018  0.584794  0.555789  0.299935  0.471352  0.541223  0.430184  0.457084  
11 3 -3.5928 -0.951396 -1.5673 0.139571  0.453934  0.348601  0.327116  0.2777  0.273619  0.497511  0.395867  0.231286  0.42147  0.406007  
12 3 -0.995902 -4.65167 -1.43996 0.143408  0.409597  0.362153  0.225976  0.283302  0.312187  0.477393  0.372678  0.223633  0.395511  0.398608  
13 3 -1.35612 -1.59496 -2.80295 0.152228  0.413038  0.323423  0.261652  0.245709  0.326874  0.478784  0.340625  0.229794  0.411781  0.376484  
14 3 -1.28445 -1.66886 -0.25788 0.133461  0.429848  0.349853  0.268293  0.258654  0.354523  0.461138  0.368952  0.249027  0.392386  0.40723  
15 1 -2.3555 -5.18473 -2.99656 0.174845  0.0411342  0.673523  0.0743277  0.474746  0.0895087  0.595064  0.106759  0.505781  0.150371  0.583547  
16 1 -2.48207 -7.85869 -1.47861 0.062776  0.23952  0.66904  0.293151  0.29679  0.352854  0.536389  0.402412  0.290612  0.366518  0.528799  
17 2 -0.288751 -6.07849 -1.47449 0.129061  0.655188  0.475297  0.241341  0.568377  0.534039  0.351712  0.476174  0.500863  0.460839  0.481189  
18 3 -3.58268 -6.04666 -1.54017 0.136201  0.464685  0.360556  0.333888  0.269017  0.303099  0.504185  0.392921  0.262393  0.409986  0.416528  
19 3 -1.42277 -9.68116 -1.36553 0.145222  0.374753  0.341335  0.225787  0.268641  0.283742  0.468949  0.357283  0.211199  0.374202  0.383543  
20 3 -0.921143 -6.77483 -2.80603 0.155118  0.392038  0.344825  0.284005  0.272828  0.304592  0.479619  0.331936  0.261925  0.379565  0.370793  
21 1 -2.43103 -5.15656 -0.0368312 0.182346  0.0323152  0.670213  0.0400011  0.481914  0.0634657  0.600252  0.0647655  0.509121  0.0966343  0.601457  
22 3 -1.06748 -6.76131 -0.219092 0.143756  0.425107  0.333325  0.259618  0.274687  0.325401  0.477886  0.36047  0.247204  0.386218  0.400123  
23 1 -2.28034 -2.25324 -4.50743 0.0841769  0.270345  0.63494  0.326702  0.290417  0.372553  0.514788  0.399995  0.304104  0.354906  0.541742  
24 2 -4.47115 -4.12152 -4.48172 0.138931  0.65677  0.469048  0.254491  0.568435  0.527655  0.355747  0.48522  0.493683  0.453337  0.500283  
25 3 -1.18678 -4.18284 -4.5321 0.148839  0.463308  0.359324  0.310588  0.287477  0.318006  0.479424  0.399285  0.25744  0.405757  0.432576  
26 3 -3.34574 -0.549324 -4.56419 0.155491  0.397102  0.362394  0.238995  0.292107  0.289159  0.489469  0.377676  0.189149  0.403929  0.395026  
27 3 -3.87213 -3.47276 -5.78608 0.161281  0.414057  0.347053  0.27143  0.294726  0.325789  0.470732  0.348408  0.284347  0.39176  0.371539  
28 3 -3.74231 -3.51574 -3.20655 0.143845  0.438868  0.319198  0.265044  0.273922  0.320933  0.482575  0.363678  0.214695  0.409656  0.402925  
30 1 -0.0602711 -7.37542 1.48267 0.0618871  0.234082  0.674872  0.271987  0.308432  0.368517  0.530487  0.387487  0.303645  0.397573  0.494143  
31 2 -2.79867 -9.16574 1.50796 0.123209  0.64883  0.466562  0.237284  0.574726  0.536463  0.334772  0.468951  0.505754  0.447631  0.482415  
32 3 -1.21741 -9.24523 1.56098 0.137358  0.441176  0.341603  0.331134  0.254182  0.280745  0.498217  0.389202  0.245286  0.397534  0.401684  
33 3 -3.86618 -5.56875 1.42531 0.127437  0.400238  0.352117  0.191492  0.283209  0.313111  0.441725  0.369163  0.22154  0.404656  0.380994  
34 3 -3.53412 -8.50211 0.231507 0.138183  0.410808  0.339819  0.268092  0.255237  0.320445  0.481049  0.351504  0.226297  0.388724  0.402026  
36 3 -3.45805 -8.50441 2.82369 0.154025  0.384791  0.311645  0.300889  0.279155  0.255923  0.481905  0.350818  0.226091  0.356949  0.38996  
51 1 -2.38781 -2.29751 1.42965 0.0407546  0.240141  0.670668  0.263058  0.295867  0.382885  0.532961  0.365132  0.286287  0.415393  0.499489  
52 2 -4.55652 -4.09138 1.47033 0.11661  0.657958  0.47044  0.216074  0.577731  0.544176  0.323894  0.472697  0.517613  0.440139  0.480021  
53 3 -1.26271 -4.19332 1.55219 0.130892  0.457081  0.352929  0.314795  0.261111  0.326372  0.493656  0.388277  0.267168  0.393211  0.415166  
54 3 -3.48462 -0.576778 1.46802 0.139136  0.409742  0.358963  0.224718  0.298492  0.321291  0.455476  0.387096  0.213243  0.395657  0.403655  
55 3 -3.85755 -3.38419 0.209892 0.149063  0.401655  0.343452  0.26937  0.260803  0.338009  0.470094  0.33103  0.261352  0.392212  0.374022  
56 3 -3.88147 -3.47759 2.76903 0.140989  0.414695  0.327785  0.260318  0.269475  0.319229  0.47054  0.349569  0.239746  0.39179  0.388461  
253 1 4.80773 -10.2287 0.0113115 0.167674  0.0263063  0.691802  0.0620188  0.472451  0.0508389  0.611513  0.0888583  0.513878  0.108617  0.598939  
254 1 4.86049 -7.49023 -4.42783 0.0595111  0.212278  0.688783  0.242728  0.318376  0.341555  0.548238  0.363773  0.323144  0.394854  0.481007  
255 2 2.13734 -9.25377 -4.53221 0.149191  0.638713  0.461953  0.291693  0.554292  0.51585  0.381345  0.47054  0.461384  0.491621  0.493429  
256 3 3.67312 -9.43578 -4.49463 0.144244  0.455256  0.365963  0.329862  0.266456  0.300166  0.508971  0.381248  0.274364  0.407764  0.401371  
257 3 1.07483 -5.63548 -4.4987 0.138461  0.405758  0.359124  0.217255  0.286003  0.306944  0.476069  0.372683  0.214627  0.395017  0.396313  
258 3 1.43236 -8.50193 -5.74093 0.144272  0.416579  0.343076  0.260818  0.265819  0.331578  0.465352  0.361794  0.23952  0.402179  0.384837  
259 1 4.79966 -10.3381 -2.98797 0.169412  0.0521513  0.678682  0.0925746  0.468219  0.0962914  0.600126  0.138848  0.490843  0.166954  0.586551  
260 3 1.37965 -8.62009 -3.21169 0.143719  0.428065  0.314724  0.253251  0.265278  0.346794  0.477338  0.341692  0.249116  0.400416  0.370028  
261 1 0.123209 -2.84581 -1.55398 0.0954731  0.261907  0.633696  0.336128  0.304903  0.357539  0.504839  0.409735  0.317462  0.356678  0.525767  
262 2 2.79614 -1.02003 -1.55909 0.120843  0.659541  0.471219  0.214843  0.572284  0.545902  0.327716  0.470212  0.522611  0.441715  0.471222  
263 3 1.2146 -0.935278 -1.57626 0.139506  0.452347  0.354068  0.278091  0.266724  0.334124  0.464213  0.381491  0.27005  0.388286  0.431141  
264 3 3.84914 -4.60241 -1.44664 0.147382  0.387232  0.350866  0.234002  0.290259  0.285639  0.448885  0.379226  0.21386  0.402567  0.369366  
265 3 3.57429 -1.72503 -2.79175 0.131482  0.416451  0.331036  0.249506  0.2701  0.334903  0.450243  0.344242  0.252089  0.394275  0.386256  
266 3 3.38587 -1.62522 -0.234784 0.167247  0.402515  0.316438  0.286154  0.262601  0.296726  0.474304  0.338649  0.258989  0.397111  0.350104  
267 1 2.43432 -5.06454 -2.95594 0.172626  0.0444322  0.669437  0.0918066  0.45534  0.0940652  0.600219  0.130404  0.494302  0.160685  0.571419  
268 1 2.2983 -7.97578 -1.52442 0.0827387  0.267824  0.629636  0.340849  0.295735  0.367927  0.514271  0.398228  0.295114  0.373012  0.534021  
269 2 4.47612 -6.15094 -1.44061 0.113665  0.653677  0.466073  0.228704  0.579505  0.542906  0.324803  0.459487  0.525736  0.444654  0.469425  
270 3 1.26422 -6.09268 -1.514 0.144364  0.475545  0.361755  0.279585  0.318385  0.358171  0.43574  0.413241  0.303376  0.378946  0.444694  
271 3 3.48703 -9.75326 -1.49744 0.125617  0.41088  0.353123  0.230178  0.269119  0.301311  0.473543  0.37908  0.200185  0.398048  0.409483  
272 3 3.82545 -6.78572 -2.75125 0.143623  0.41411  0.322556  0.270187  0.246138  0.298144  0.483717  0.356377  0.192305  0.408272  0.400483  
273 1 2.30417 -5.07533 -0.0295915 0.191864  0.0924915  0.64929  0.123201  0.47692  0.172182  0.55028  0.218864  0.490327  0.226992  0.515651  
274 3 3.76936 -6.73947 -0.17371 0.146884  0.404932  0.322438  0.293074  0.276374  0.297581  0.498682  0.350283  0.204756  0.386943  0.389649  
275 1 2.57222 -2.31814 -4.58888 0.0685896  0.264926  0.652435  0.299836  0.299042  0.38609  0.506946  0.402119  0.296551  0.394103  0.498456  
276 2 0.352025 -4.15244 -4.52607 0.124218  0.662571  0.472836  0.223905  0.577847  0.540308  0.330512  0.488006  0.509857  0.438699  0.495475  
277 3 3.60889 -4.21433 -4.45624 0.131633  0.471397  0.365183  0.304653  0.280267  0.351482  0.479936  0.386131  0.296533  0.390242  0.423835  
278 3 1.44786 -0.601288 -4.53831 0.147226  0.371778  0.343349  0.259939  0.272925  0.269843  0.48717  0.370025  0.196104  0.358008  0.390736  
279 3 1.06633 -3.49709 -5.79972 0.146644  0.416498  0.320724  0.268575  0.255839  0.290688  0.487633  0.353605  0.199412  0.405753  0.394504  
280 3 1.02727 -3.46468 -3.23303 0.1572  0.421341  0.337427  0.277224  0.273899  0.333916  0.483686  0.341775  0.245076  0.406789  0.381703  
282 1 4.68926 -7.38921 1.48986 0.0718122  0.242559  0.660978  0.288818  0.306644  0.362463  0.51498  0.40003  0.303309  0.385169  0.494661  
283 2 2.09394 -9.17115 1.52622 0.127109  0.651229  0.470811  0.242351  0.559196  0.539809  0.356879  0.456128  0.503058  0.479797  0.462397  
284 3 3.63179 -9.32286 1.51724 0.13996  0.456879  0.359665  0.29426  0.248896  0.332292  0.490394  0.360875  0.287067  0.408529  0.400185  
285 3 0.995472 -5.52254 1.52332 0.127028  0.402248  0.347016  0.189524  0.2853  0.328111  0.431374  0.368605  0.235367  0.398592  0.380467  
286 3 1.36144 -8.48429 0.314979 0.142693  0.42019  0.338531  0.259836  0.256891  0.370186  0.462065  0.333663  0.277841  0.39621  0.373876  
288 3 1.39191 -8.49205 2.8632 0.154566  0.394565  0.341095  0.292976  0.262079  0.289016  0.49752  0.350949  0.19534  0.388655  0.396275  
303 1 2.50849 -2.20164 1.50261 0.0884697  0.278032  0.629579  0.329069  0.296281  0.397351  0.481056  0.410623  0.299692  0.400933  0.501641  
304 2 0.245569 -4.05831 1.59935 0.157832  0.6229  0.453158  0.315119  0.548807  0.496125  0.394648  0.465403  0.444237  0.49191  0.497892  
305 3 3.515 -4.21765 1.53712 0.134401  0.445393  0.35174  0.291532  0.239746  0.359485  0.470471  0.349061  0.322588  0.382429  0.374765  
306 3 1.38533 -0.422396 1.61274 0.12848  0.433969  0.380373  0.193992  0.305791  0.366467  0.448752  0.369346  0.286753  0.399567  0.386276  
307 3 1.01993 -3.46205 0.306039 0.134102  0.420438  0.344165  0.221294  0.266007  0.389752  0.451772  0.312285  0.287842  0.410204  0.353041  
308 3 1.013 -3.38815 2.84143 0.139763  0.396536  0.333952  0.261127  0.267186  0.319465  0.470165  0.352647  0.217805  0.378169  0.399052  
505 1 9.62789 -10.1845 0.00613394 0.182715  0.0132263  0.676832  0.040803  0.483347  0.0529066  0.600711  0.0527777  0.524063  0.0761699  0.593996  
506 1 9.65369 -7.40154 -4.5294 0.0478794  0.254357  0.655435  0.301456  0.280754  0.371304  0.536917  0.395642  0.258837  0.371458  0.549968  
507 2 6.90071 -9.21487 -4.52343 0.114737  0.660191  0.470785  0.211326  0.580548  0.549545  0.314225  0.470976  0.531418  0.434399  0.462055  
508 3 8.47588 -9.28743 -4.46488 0.137615  0.448031  0.340637  0.333055  0.274774  0.273552  0.503106  0.390769  0.236623  0.40508  0.392342  
509 3 5.97373 -5.62743 -4.4404 0.126967  0.399579  0.342389  0.191244  0.267186  0.314739  0.460652  0.360458  0.220261  0.378358  0.401762  
510 3 6.21682 -8.50512 -5.74371 0.140516  0.417294  0.357126  0.302941  0.246651  0.342289  0.495316  0.354322  0.241275  0.393956  0.39529  
511 1 9.69197 -10.3266 -3.07952 0.171305  0.0763135  0.648283  0.178719  0.441106  0.176237  0.566908  0.241427  0.424214  0.297237  0.525462  
512 3 6.22661 -8.57055 -3.2315 0.141456  0.404449  0.323489  0.261527  0.245112  0.305749  0.484177  0.344777  0.214271  0.390691  0.391038  
513 1 4.97347 -2.89356 -1.59005 0.081737  0.286831  0.627528  0.340103  0.295471  0.389729  0.497746  0.406522  0.305792  0.38847  0.516987  
514 2 7.58966 -1.00342 -1.49791 0.131924  0.645706  0.467364  0.250389  0.562859  0.530966  0.35414  0.472059  0.483069  0.468097  0.489701  
515 3 6.02141 -0.915958 -1.58576 0.134528  0.485357  0.369522  0.297042  0.294747  0.351515  0.4717  0.389358  0.302637  0.40821  0.433583  
516 3 8.6586 -4.6067 -1.49645 0.142694  0.391769  0.343983  0.228413  0.282315  0.290841  0.465701  0.371474  0.202687  0.391221  0.386477  
517 3 8.34192 -1.69266 -2.78644 0.147981  0.420322  0.337376  0.261736  0.278359  0.321944  0.475794  0.353539  0.21867  0.406554  0.405269  
518 3 8.26743 -1.67317 -0.251823 0.146188  0.4021  0.323584  0.281133  0.271705  0.292568  0.491628  0.35743  0.206746  0.388216  0.384721  
519 1 7.30592 -5.10743 -2.96736 0.166172  0.0164885  0.68972  0.027327  0.464209  0.038262  0.61651  0.0443235  0.51736  0.0572188  0.601104  
520 1 7.25493 -7.92343 -1.50078 0.057669  0.233641  0.672918  0.25495  0.315391  0.378726  0.527508  0.359823  0.328513  0.406372  0.48084  
521 2 9.36851 -6.15405 -1.52364 0.134835  0.646379  0.456637  0.26079  0.571983  0.5216  0.352586  0.473146  0.490113  0.445234  0.504796  
522 3 6.05424 -6.00112 -1.45813 0.137676  0.442565  0.351295  0.322609  0.242365  0.29061  0.499714  0.384822  0.247895  0.407447  0.396028  
523 3 8.29555 -9.71859 -1.53709 0.147688  0.396616  0.348454  0.236496  0.262703  0.302347  0.473362  0.37197  0.198736  0.401518  0.386812  
524 3 8.69102 -6.73664 -2.79725 0.137725  0.423019  0.332419  0.290546  0.275776  0.306727  0.491903  0.362897  0.20601  0.403433  0.391701  
525 1 7.20583 -5.12914 -0.0184489 0.174685  0.0397013  0.67743  0.0675289  0.47379  0.0749694  0.605629  0.101347  0.498508  0.124367  0.601361  
526 3 8.62755 -6.75569 -0.24937 0.138677  0.420931  0.342829  0.256803  0.283453  0.329702  0.479854  0.351369  0.236877  0.399087  0.39327  
527 1 7.46945 -2.35953 -4.47525 0.0723378  0.263761  0.651724  0.318304  0.288266  0.366312  0.521138  0.418666  0.271186  0.366087  0.536768  
528 2 5.18235 -4.11111 -4.52252 0.145255  0.637186  0.449637  0.278456  0.5653  0.505396  0.360226  0.489561  0.46179  0.438957  0.525349  
529 3 8.52455 -4.18995 -4.54736 0.139962  0.463854  0.360556  0.296383  0.269539  0.316697  0.480919  0.390079  0.268491  0.413322  0.420683  
530 3 6.26715 -0.542905 -4.47935 0.124687  0.395514  0.360217  0.213306  0.26892  0.309801  0.472463  0.363362  0.211147  0.385881  0.39603  
531 3 5.87581 -3.50824 -5.80146 0.140729  0.417304  0.334528  0.273027  0.271225  0.307247  0.499228  0.349367  0.221845  0.396095  0.394818  
532 3 5.93772 -3.49611 -3.18594 0.143018  0.434519  0.319351  0.270825  0.288743  0.313701  0.490464  0.356111  0.231747  0.402522  0.387259  
534 1 9.57353 -7.41107 1.48231 0.0646865  0.229262  0.674336  0.275975  0.304608  0.350602  0.538146  0.394472  0.295268  0.380971  0.506617  
535 2 6.83162 -9.16386 1.40466 0.109747  0.659402  0.470485  0.201314  0.582474  0.55154  0.308382  0.465222  0.536688  0.428764  0.462507  
536 3 8.43783 -9.25526 1.45835 0.138448  0.466543  0.362246  0.315794  0.27158  0.296913  0.4939  0.395331  0.249433  0.426405  0.42466  
537 3 5.83598 -5.52667 1.51032 0.112612  0.418227  0.35868  0.175619  0.285876  0.342632  0.432841  0.373152  0.246059  0.405649  0.386289  
538 3 6.136 -8.54168 0.128018 0.143693  0.408893  0.322364  0.297593  0.252074  0.290957  0.481182  0.36433  0.213978  0.383421  0.400579  
540 3 6.18273 -8.48568 2.72424 0.139172  0.412754  0.34818  0.261511  0.252834  0.349199  0.474862  0.33188  0.259142  0.393897  0.385292  
555 1 7.29316 -2.35437 1.46268 0.0586492  0.229693  0.675512  0.278852  0.301481  0.35075  0.538032  0.395748  0.290482  0.378856  0.512768  
556 2 5.09564 -4.07321 1.42904 0.128962  0.637743  0.473629  0.248614  0.549444  0.531955  0.363146  0.453966  0.492642  0.478898  0.457186  
557 3 8.40966 -4.18953 1.43164 0.133803  0.447784  0.347302  0.317027  0.255839  0.301053  0.497539  0.386829  0.24383  0.39671  0.405439  
558 3 6.23045 -0.487461 1.45649 0.125196  0.39448  0.353641  0.177  0.278642  0.334852  0.436852  0.363741  0.232479  0.385518  0.391528  
559 3 5.81499 -3.37768 0.173234 0.153197  0.392821  0.353932  0.30115  0.259778  0.335787  0.488058  0.334178  0.265599  0.37482  0.384077  
560 3 5.7994 -3.39189 2.73329 0.153407  0.427903  0.347654  0.274206  0.259206  0.350926  0.491422  0.331943  0.268541  0.40832  0.376271  
85 1 0.0736329 -0.088678 0.0303479 0.168354  0.0733723  0.667349  0.149614  0.464333  0.124114  0.571364  0.229951  0.476832  0.226995  0.536165  
86 1 -0.18188 2.76813 -4.55264 0.0879418  0.286989  0.626323  0.348647  0.273411  0.370664  0.525929  0.407107  0.276673  0.355687  0.561784  
87 2 -2.7358 0.916295 -4.5763 0.10412  0.666243  0.476929  0.183269  0.580817  0.553509  0.297671  0.480459  0.539368  0.417386  0.469799  
88 3 -1.12726 0.929113 -4.65294 0.123529  0.489445  0.37475  0.280017  0.318446  0.350681  0.451797  0.404135  0.309053  0.397832  0.442713  
89 3 -3.85145 4.58291 -4.46102 0.13793  0.394356  0.368424  0.21424  0.281438  0.30638  0.470199  0.37003  0.204163  0.408938  0.385445  
90 3 -3.46968 1.55112 -5.82291 0.137682  0.411339  0.316288  0.256614  0.23905  0.315604  0.467239  0.353112  0.197946  0.398505  0.400542  
91 1 0.032474 0.101777 -3.04721 0.164024  0.0771726  0.669959  0.132206  0.456274  0.146096  0.579389  0.193993  0.477595  0.241391  0.540263  
92 3 -3.38267 1.59881 -3.26794 0.145592  0.409588  0.345553  0.248358  0.251878  0.346849  0.463578  0.34376  0.259205  0.404202  0.363384  
93 1 -4.74432 7.31026 -1.53398 0.0542408  0.260859  0.655188  0.274932  0.295045  0.410303  0.503058  0.373241  0.283345  0.443421  0.469217  
94 2 -2.19339 9.17046 -1.49675 0.120024  0.645733  0.472392  0.233164  0.562425  0.539303  0.345703  0.453597  0.509025  0.467312  0.460914  
95 3 -3.74858 9.26731 -1.52004 0.139837  0.45506  0.350398  0.285695  0.26151  0.347909  0.462573  0.379173  0.300088  0.388648  0.400222  
96 3 -1.02318 5.44886 -1.53903 0.130188  0.426294  0.337335  0.233472  0.296329  0.309965  0.441492  0.387179  0.224988  0.423751  0.37485  
97 3 -1.51607 8.51672 -2.78792 0.153097  0.40394  0.356759  0.248899  0.271529  0.339712  0.476428  0.329354  0.2409  0.40164  0.385054  
98 3 -1.40765 8.51694 -0.20757 0.140268  0.420079  0.34635  0.256325  0.284745  0.336582  0.475177  0.353505  0.221938  0.403711  0.404377  
99 1 -2.42046 5.00165 -2.9459 0.177133  0.03986  0.675492  0.0424514  0.470166  0.0721321  0.603874  0.0771363  0.513139  0.107076  0.588795  
100 1 -2.46649 2.27661 -1.4641 0.0584134  0.230592  0.678975  0.272431  0.311317  0.339016  0.550515  0.385105  0.308491  0.366916  0.517716  
101 2 -0.323993 3.94732 -1.5516 0.136933  0.638075  0.463639  0.273157  0.551881  0.526144  0.383271  0.435394  0.487944  0.496893  0.462708  
102 3 -3.63171 4.165 -1.48407 0.143227  0.462431  0.356662  0.314802  0.269423  0.277719  0.500807  0.394767  0.220395  0.432211  0.41845  
103 3 -1.30556 0.554287 -1.51711 0.143889  0.380076  0.368059  0.240985  0.277822  0.294071  0.48388  0.374852  0.193923  0.359778  0.424752  
104 3 -1.08178 3.28078 -2.7775 0.142243  0.417597  0.358756  0.309261  0.260576  0.351729  0.498035  0.345952  0.271047  0.373919  0.408014  
105 1 -2.46251 5.02644 -0.0310671 0.184574  0.0247303  0.673742  0.0292562  0.479229  0.0509258  0.605329  0.0526436  0.511388  0.0659724  0.608026  
106 3 -1.02686 3.32043 -0.235593 0.143199  0.401983  0.334498  0.281636  0.267834  0.315794  0.486181  0.332879  0.244406  0.38216  0.380376  
107 1 -2.39916 7.8744 -4.53945 0.0813109  0.256454  0.658375  0.298897  0.319172  0.36412  0.515219  0.395933  0.347545  0.359324  0.50603  
108 2 -4.51178 6.04114 -4.39511 0.123802  0.652266  0.475696  0.249641  0.569342  0.541371  0.347983  0.466353  0.504284  0.473826  0.467559  
109 3 -1.21347 6.00174 -4.53401 0.152263  0.447755  0.344534  0.316282  0.256378  0.287922  0.482085  0.39643  0.241813  0.416004  0.402577  
110 3 -3.51648 9.76536 -4.53566 0.1352  0.411284  0.364147  0.209626  0.284488  0.312064  0.462194  0.374265  0.218557  0.419641  0.3786  
111 3 -3.84088 6.8 -5.66352 0.144796  0.406632  0.358883  0.238031  0.263008  0.3376  0.458343  0.350977  0.246007  0.399287  0.387493  
112 3 -3.73657 6.65265 -3.16967 0.135521  0.436777  0.31915  0.263782  0.264308  0.343732  0.472817  0.361356  0.239348  0.396855  0.393249  
114 1 -0.0735018 2.77252 1.55379 0.0491982  0.260083  0.65512  0.29671  0.294313  0.372165  0.534848  0.379819  0.301586  0.369081  0.536792  
115 2 -2.79034 0.931391 1.50527 0.128435  0.656241  0.462067  0.232782  0.585136  0.533021  0.323131  0.488833  0.508714  0.420223  0.503698  
116 3 -1.2404 0.872948 1.53944 0.141556  0.439573  0.34343  0.341615  0.256024  0.256865  0.518115  0.382206  0.218146  0.407149  0.400909  
117 3 -3.83367 4.6249 1.49933 0.130168  0.429617  0.360493  0.180483  0.298578  0.345266  0.443714  0.360002  0.255527  0.413937  0.386056  
118 3 -3.461 1.50826 0.184882 0.142192  0.419623  0.30797  0.271682  0.256036  0.320138  0.467224  0.362958  0.219779  0.401429  0.370503  
120 3 -3.51446 1.60705 2.78913 0.137101  0.441379  0.364256  0.28404  0.288317  0.323631  0.495343  0.378948  0.204041  0.420931  0.419714  
135 1 -2.32061 7.8229 1.5107 0.075846  0.257479  0.64811  0.314054  0.294503  0.366998  0.511062  0.411137  0.294268  0.368771  0.522125  
136 2 -4.56889 6.08649 1.42724 0.158037  0.635135  0.466112  0.306909  0.547836  0.514671  0.39666  0.457494  0.471908  0.492103  0.478884  
137 3 -1.21912 5.91118 1.49355 0.134777  0.431897  0.352431  0.32445  0.232343  0.303694  0.499391  0.362716  0.274488  0.386887  0.380758  
138 3 -3.46476 9.69984 1.44572 0.127125  0.396129  0.35952  0.202165  0.270919  0.300759  0.451595  0.375265  0.201776  0.412124  0.381524  
139 3 -3.74535 6.66296 0.194922 0.123999  0.433697  0.325609  0.259873  0.279476  0.349423  0.463067  0.346252  0.267198  0.395214  0.382371  
140 3 -3.89659 6.73594 2.73579 0.148607  0.414625  0.32592  0.265445  0.256602  0.321889  0.479309  0.33636  0.242543  0.405326  0.36653  
337 1 4.9097 -0.0431683 -0.142981 0.179898  0.0956438  0.654623  0.0954948  0.47453  0.18459  0.559615  0.165851  0.487791  0.250399  0.535128  
338 1 4.86637 2.84047 -4.41481 0.083985  0.261688  0.65337  0.286266  0.334507  0.375326  0.512834  0.364254  0.375694  0.365925  0.497586  
339 2 2.1463 0.877388 -4.60165 0.104812  0.662692  0.473188  0.190335  0.589965  0.549147  0.286294  0.492257  0.539257  0.391929  0.481408  
340 3 3.73232 0.867999 -4.51339 0.139374  0.450923  0.350322  0.300442  0.264431  0.308621  0.480573  0.384091  0.253511  0.400677  0.418792  
341 3 0.95506 4.57968 -4.48172 0.135777  0.396954  0.349217  0.224157  0.296159  0.311584  0.433057  0.382623  0.208086  0.428963  0.347019  
342 3 1.5597 1.57412 -5.8764 0.166954  0.382421  0.324348  0.280335  0.277012  0.293596  0.460209  0.335257  0.263658  0.369884  0.375595  
343 1 4.99418 -0.0407532 -3.01497 0.172877  0.0563761  0.684673  0.0663111  0.461545  0.100057  0.604749  0.12413  0.511233  0.135142  0.575211  
344 3 1.42568 1.54478 -3.25212 0.137142  0.41076  0.329957  0.251949  0.290396  0.308516  0.463145  0.338299  0.239169  0.401417  0.379697  
345 1 0.0437297 7.2656 -1.47827 0.0666859  0.277548  0.63734  0.296099  0.30464  0.420609  0.488334  0.366005  0.336311  0.40804  0.497374  
346 2 2.67522 9.31255 -1.42909 0.129712  0.638963  0.466934  0.256137  0.566759  0.524421  0.350263  0.480074  0.469595  0.464412  0.50304  
347 3 1.0947 9.36451 -1.481 0.129555  0.442457  0.351648  0.319669  0.266829  0.312164  0.489229  0.375662  0.28198  0.383014  0.402316  
348 3 3.78434 5.54722 -1.5318 0.140139  0.409261  0.363134  0.23537  0.281678  0.289764  0.488543  0.365198  0.205723  0.410103  0.404709  
349 3 3.43695 8.55731 -2.77596 0.141959  0.413969  0.338009  0.261686  0.261292  0.311661  0.498005  0.351529  0.205908  0.394482  0.399394  
350 3 3.3749 8.68149 -0.154157 0.137  0.409563  0.34613  0.259101  0.271157  0.305228  0.502914  0.344021  0.200086  0.401868  0.399604  
351 1 2.4253 4.99419 -3.00707 0.171868  0.0602777  0.672093  0.111601  0.453662  0.116146  0.597615  0.158832  0.478198  0.208707  0.571212  
352 1 2.38587 2.20642 -1.49646 0.0648981  0.262592  0.652141  0.291038  0.296276  0.390781  0.513485  0.379275  0.310566  0.384693  0.519049  
353 2 4.53866 4.09003 -1.52432 0.13028  0.654908  0.472055  0.243294  0.578505  0.527857  0.345377  0.489494  0.495731  0.441576  0.507629  
354 3 1.23382 4.14835 -1.53276 0.143491  0.46085  0.359403  0.325419  0.246037  0.317557  0.500864  0.370449  0.291889  0.415619  0.388332  
355 3 3.48319 0.471273 -1.53327 0.150612  0.39238  0.346742  0.233647  0.301793  0.27773  0.481017  0.372058  0.212039  0.387475  0.387229  
356 3 3.87504 3.50314 -2.86816 0.157587  0.423317  0.308195  0.282314  0.28909  0.269923  0.492461  0.364817  0.198702  0.409303  0.388803  
357 1 2.39865 5.01008 -0.0591465 0.182373  0.0564942  0.679262  0.0775666  0.478849  0.117662  0.582674  0.115886  0.532504  0.188041  0.544897  
358 3 3.83263 3.33795 -0.352694 0.141841  0.423858  0.358831  0.240082  0.276273  0.371233  0.448297  0.344312  0.284821  0.407747  0.37258  
359 1 2.44687 7.87523 -4.49468 0.0936559  0.235233  0.661662  0.30438  0.325791  0.340826  0.511589  0.419756  0.333075  0.359605  0.489844  
360 2 0.359382 6.09446 -4.50383 0.113905  0.660043  0.472719  0.202105  0.58477  0.547528  0.317706  0.46228  0.53794  0.435209  0.462517  
361 3 3.53686 5.93609 -4.53732 0.135206  0.463149  0.356455  0.285781  0.301014  0.341027  0.459145  0.396433  0.288812  0.374353  0.438214  
362 3 1.39091 9.76346 -4.47268 0.136051  0.415356  0.358641  0.20165  0.295011  0.320211  0.434164  0.377909  0.239375  0.419218  0.375272  
363 3 1.07317 6.72156 -5.78102 0.141637  0.40883  0.32732  0.28619  0.247965  0.29723  0.502499  0.352286  0.191005  0.391082  0.405136  
364 3 1.04969 6.76282 -3.18103 0.150114  0.406087  0.325672  0.299459  0.250345  0.315095  0.484581  0.347754  0.248291  0.369987  0.38715  
366 1 4.75607 2.83757 1.52519 0.0979097  0.261215  0.622244  0.346782  0.299508  0.348257  0.510376  0.399709  0.330588  0.327143  0.537418  
367 2 2.11831 1.00317 1.48053 0.129666  0.657117  0.473467  0.236215  0.570304  0.532  0.348271  0.485446  0.494052  0.453612  0.501385  
368 3 3.70441 0.938326 1.48173 0.128169  0.458233  0.359219  0.270654  0.285092  0.355771  0.444952  0.392127  0.299175  0.367392  0.433308  
369 3 1.09865 4.57985 1.49455 0.126799  0.416881  0.365221  0.19375  0.291473  0.339814  0.437598  0.388964  0.226556  0.402727  0.409274  
370 3 1.43254 1.55442 0.148023 0.147971  0.409251  0.30888  0.28872  0.257754  0.289219  0.488257  0.353946  0.208971  0.401635  0.374594  
372 3 1.41157 1.78935 2.67247 0.153746  0.425509  0.35672  0.260268  0.275616  0.361766  0.454176  0.352815  0.292807  0.401088  0.377321  
387 1 2.43536 7.92674 1.52661 0.0925328  0.240132  0.659008  0.290634  0.336631  0.359457  0.496766  0.401946  0.365344  0.370851  0.4631  
388 2 0.38553 6.06983 1.50874 0.119955  0.654592  0.467973  0.213825  0.573159  0.541611  0.325696  0.469214  0.518323  0.43732  0.478122  
389 3 3.56155 6.02116 1.59166 0.157134  0.447058  0.346515  0.294129  0.267987  0.330165  0.460946  0.389902  0.271199  0.382775  0.423807  
390 3 1.38988 9.72239 1.46487 0.148432  0.395897  0.344745  0.219465  0.285666  0.294104  0.453104  0.367293  0.217684  0.408826  0.3747  
391 3 1.13486 6.73808 0.179993 0.136854  0.427706  0.329822  0.275139  0.25629  0.34918  0.463305  0.351703  0.269383  0.382091  0.38115  
392 3 0.994268 6.72562 2.78194 0.16521  0.413757  0.343235  0.287382  0.254683  0.321315  0.490943  0.359661  0.228931  0.4103  0.383287  
589 1 9.72928 -0.132014 -0.118003 0.168524  0.0782959  0.665155  0.0973991  0.460078  0.166216  0.576996  0.157216  0.486864  0.233342  0.542534  
590 1 9.5826 2.76708 -4.44813 0.0892035  0.27132  0.646719  0.309969  0.307489  0.381258  0.502399  0.402381  0.325173  0.373494  0.51389  
591 2 7.02022 0.930215 -4.52583 0.129905  0.650017  0.473901  0.237695  0.56714  0.529953  0.345854  0.482208  0.487369  0.459397  0.497685  
592 3 8.57535 0.898617 -4.51326 0.137805  0.466801  0.355657  0.292072  0.288927  0.333854  0.466344  0.398276  0.275579  0.393357  0.433383  
593 3 5.87932 4.55557 -4.44599 0.143959  0.404466  0.350865  0.227485  0.290939  0.298889  0.483487  0.37431  0.213199  0.390468  0.400001  
594 3 6.2726 1.61252 -5.81228 0.139407  0.408948  0.340725  0.271794  0.264967  0.306593  0.498291  0.347422  0.194444  0.388513  0.407954  
595 1 9.71119 0.00746809 -2.97275 0.177638  0.0433375  0.663497  0.0881984  0.463845  0.0934115  0.596187  0.129757  0.488366  0.157595  0.581288  
596 3 6.3462 1.61381 -3.23745 0.143118  0.414939  0.347461  0.237973  0.255333  0.340841  0.459331  0.339573  0.23866  0.412514  0.383316  
597 1 4.78616 7.4286 -1.50354 0.0748153  0.225731  0.674065  0.284497  0.319102  0.355639  0.512569  0.419984  0.317351  0.384589  0.456605  