ITEM: TIMESTEP
1500
ITEM: NUMBER OF ATOMS
756
ITEM: BOX BOUNDS pp pp pp
-4.8435403183999997e+00 9.6870806368999993e+00
-1.0186409263300000e+01 2.0372818526500001e+01
-6.0013959751000003e+00 1.2002791950200001e+01
ITEM: ATOMS id type x y z q2 q3 q4 q5 q6 q7 q8 q9 q10 q11 q12
1 1 -0.0291249 -10.0037 -0.111894 0.173395  0.0950324  0.643289  0.197297  0.445407  0.18068  0.554137  0.263107  0.422219  0.328804  0.501681  
2 1 -0.140722 -7.24642 -4.53673 0.0914838  0.285319  0.605628  0.37862  0.27534  0.375742  0.498961  0.407684  0.286711  0.390751  0.523989  
3 2 -2.751 -9.20391 -4.45164 0.118349  0.662976  0.475879  0.20873  0.577165  0.542708  0.328305  0.482897  0.5223  0.430097  0.484027  
4 3 -1.17595 -9.26521 -4.4815 0.135387  0.447934  0.343775  0.265723  0.272078  0.348788  0.437185  0.386316  0.293704  0.356125  0.422308  
5 3 -3.8115 -5.61853 -4.50852 0.143647  0.406429  0.34529  0.243769  0.292244  0.302287  0.480921  0.372892  0.215291  0.386564  0.397899  
6 3 -3.35688 -8.58915 -5.77938 0.162514  0.414642  0.337506  0.27708  0.26982  0.319725  0.480693  0.339024  0.254497  0.405593  0.37375  
7 1 -0.0886926 -10.3059 -3.04605 0.168339  0.0899051  0.672903  0.121359  0.451944  0.13962  0.592114  0.188352  0.472827  0.229857  0.556449  
8 3 -3.45435 -8.53956 -3.22272 0.149319  0.434148  0.341074  0.265612  0.280655  0.329737  0.484043  0.357064  0.225625  0.412061  0.405468  
9 1 -4.81563 -2.80373 -1.51684 0.080178  0.236621  0.655916  0.306379  0.308249  0.348977  0.518637  0.409414  0.308571  0.357147  0.513559  
10 2 -2.07528 -1.03018 -1.52907 0.107266  0.669377  0.475671  0.186121  0.586054  0.555372  0.302823  0.478053  0.542261  0.421131  0.467975  
11 3 -3.66601 -0.920425 -1.5692 0.145018  0.466221  0.360806  0.309815  0.26903  0.314268  0.485492  0.389898  0.261847  0.415817  0.421817  
12 3 -1.05047 -4.59568 -1.53898 0.132712  0.423061  0.357315  0.226307  0.311879  0.316298  0.459771  0.390563  0.222669  0.402118  0.402265  
13 3 -1.41426 -1.70453 -2.75854 0.144669  0.410837  0.337445  0.268598  0.266516  0.323705  0.472583  0.345643  0.241005  0.398768  0.382036  
14 3 -1.43386 -1.7033 -0.2075 0.159779  0.395075  0.339401  0.289887  0.253525  0.325221  0.481572  0.331463  0.249911  0.385918  0.375092  
15 1 -2.43058 -5.01822 -2.9953 0.177287  0.0529985  0.666642  0.110767  0.461286  0.107046  0.598409  0.14747  0.473756  0.203233  0.582281  
16 1 -2.54314 -7.90321 -1.54574 0.0784296  0.274371  0.640429  0.335341  0.28983  0.368477  0.516762  0.411483  0.29606  0.357247  0.547703  
17 2 -0.335823 -6.1001 -1.49795 0.129877  0.644239  0.465436  0.262602  0.562282  0.533772  0.358555  0.456483  0.488644  0.483753  0.474325  
18 3 -3.6176 -5.95925 -1.565 0.141999  0.452112  0.355618  0.313727  0.253156  0.321091  0.489034  0.370412  0.289637  0.399684  0.390601  
19 3 -1.44937 -9.71232 -1.55959 0.13672  0.407499  0.363645  0.211995  0.290477  0.326705  0.44212  0.378119  0.237323  0.417872  0.363391  
20 3 -1.05342 -6.78693 -2.72835 0.14612  0.414551  0.325125  0.261849  0.254205  0.36578  0.463519  0.326139  0.269853  0.397459  0.36525  
21 1 -2.44418 -5.04691 -0.101568 0.171919  0.0590103  0.667026  0.0929448  0.46702  0.116163  0.592599  0.146137  0.483125  0.180608  0.577102  
22 3 -1.05728 -6.76549 -0.238711 0.145476  0.401186  0.320917  0.28906  0.255604  0.315455  0.482966  0.362413  0.21894  0.384175  0.383124  
23 1 -2.37965 -2.28094 -4.55937 0.0663709  0.256909  0.654218  0.285912  0.303299  0.383807  0.520525  0.375803  0.315004  0.381745  0.512408  
24 2 -4.59297 -4.14404 -4.54638 0.136885  0.645875  0.466823  0.268631  0.568788  0.521206  0.359238  0.483488  0.476312  0.463094  0.504941  
25 3 -1.25443 -4.16228 -4.46349 0.137058  0.467022  0.36634  0.322246  0.288509  0.305576  0.487746  0.403489  0.257726  0.416438  0.430608  
26 3 -3.4737 -0.511125 -4.51145 0.132276  0.405901  0.350258  0.218398  0.290293  0.304418  0.467812  0.376003  0.209957  0.396809  0.395248  
27 3 -3.86935 -3.42982 -5.78612 0.14926  0.423553  0.340542  0.270971  0.288854  0.33334  0.467959  0.355193  0.247006  0.407556  0.383752  
28 3 -3.89749 -3.51648 -3.24032 0.141805  0.41365  0.323394  0.245362  0.2816  0.318077  0.475292  0.341115  0.241249  0.39747  0.36894  
30 1 -0.134929 -7.37643 1.51401 0.0716061  0.254524  0.6439  0.335645  0.283215  0.341532  0.532308  0.423575  0.247888  0.354688  0.552539  
31 2 -2.79107 -9.20766 1.48 0.115325  0.669304  0.481979  0.206553  0.582156  0.550319  0.320878  0.481462  0.532176  0.441189  0.471179  
32 3 -1.2796 -9.24403 1.44555 0.15035  0.464461  0.359779  0.321762  0.28009  0.283171  0.498662  0.399958  0.232589  0.435891  0.419971  
33 3 -3.81842 -5.54636 1.54956 0.13564  0.423176  0.341979  0.197411  0.28987  0.332642  0.441294  0.380741  0.242398  0.399611  0.392802  
34 3 -3.43961 -8.41931 0.199554 0.155384  0.392598  0.343046  0.279096  0.243627  0.336693  0.463515  0.333891  0.261421  0.38277  0.364047  
36 3 -3.50212 -8.5445 2.72838 0.13948  0.429267  0.333494  0.249058  0.259134  0.367613  0.461093  0.338414  0.266929  0.400562  0.377175  
51 1 -2.3234 -2.27574 1.54328 0.0795864  0.269005  0.644312  0.322837  0.294592  0.376259  0.503567  0.423872  0.288607  0.376398  0.5111  
52 2 -4.52891 -4.09377 1.51406 0.12277  0.65561  0.472912  0.222015  0.567513  0.538999  0.340105  0.47432  0.505142  0.451755  0.485831  
53 3 -1.22164 -4.21962 1.39258 0.131024  0.443167  0.360706  0.284662  0.243739  0.32738  0.468924  0.371551  0.283447  0.392144  0.39874  
54 3 -3.45412 -0.484612 1.48605 0.131188  0.410198  0.368548  0.184415  0.297148  0.340882  0.44115  0.377567  0.228305  0.408671  0.389114  
55 3 -3.83836 -3.41021 0.258076 0.135543  0.4186  0.34277  0.253192  0.251661  0.359802  0.465524  0.326841  0.273718  0.402368  0.374044  
56 3 -3.83471 -3.4437 2.81263 0.151063  0.412364  0.329312  0.269417  0.274957  0.318271  0.475669  0.340924  0.240109  0.391229  0.392725  
253 1 4.80222 -10.1323 -0.0605588 0.180417  0.0509261  0.668129  0.117391  0.473443  0.104859  0.594601  0.153697  0.472595  0.208646  0.589807  
254 1 4.7631 -7.33132 -4.61705 0.0689564  0.267623  0.640991  0.309328  0.317415  0.37187  0.51447  0.377263  0.347648  0.357387  0.510983  
255 2 2.01219 -9.1449 -4.49846 0.113472  0.663154  0.474039  0.194256  0.591511  0.545681  0.305071  0.481852  0.537275  0.40939  0.483068  
256 3 3.60038 -9.21615 -4.59275 0.142714  0.438351  0.342886  0.310634  0.258362  0.296058  0.475766  0.387868  0.26528  0.389847  0.39981  
257 3 1.01368 -5.59146 -4.51241 0.143229  0.411218  0.350992  0.22699  0.291183  0.313293  0.46766  0.377572  0.217546  0.392464  0.404367  
258 3 1.31048 -8.545 -5.79225 0.121589  0.432319  0.33833  0.252038  0.256086  0.338916  0.477566  0.343768  0.225885  0.410142  0.397381  
259 1 4.83517 -10.2897 -3.02844 0.16789  0.0598994  0.66989  0.083932  0.45992  0.106559  0.595353  0.132786  0.494583  0.166119  0.571628  
260 3 1.40947 -8.44234 -3.229 0.166576  0.395123  0.30568  0.295259  0.25323  0.299379  0.465983  0.361427  0.236379  0.3794  0.376188  
261 1 0.0482151 -2.8591 -1.50325 0.0510091  0.244838  0.657335  0.286807  0.295442  0.377579  0.527081  0.378705  0.289019  0.385992  0.522609  
262 2 2.7907 -1.01126 -1.47848 0.129177  0.646479  0.46458  0.244774  0.573285  0.531056  0.343806  0.470843  0.494786  0.451376  0.494  
263 3 1.20726 -0.905805 -1.48097 0.129536  0.454167  0.352421  0.322405  0.265957  0.309571  0.498507  0.386708  0.25698  0.395373  0.41482  
264 3 3.78019 -4.68829 -1.44433 0.126333  0.431539  0.34494  0.198939  0.290597  0.333381  0.441492  0.376316  0.252802  0.403966  0.388385  
265 3 3.46573 -1.62052 -2.80373 0.141396  0.414831  0.327611  0.261521  0.246188  0.322255  0.480489  0.354564  0.198906  0.405776  0.394375  
266 3 3.52216 -1.68838 -0.249814 0.137963  0.435645  0.353107  0.235297  0.287589  0.35467  0.464192  0.362613  0.252067  0.408048  0.399372  
267 1 2.3931 -5.20033 -2.98088 0.175643  0.0492042  0.668294  0.0986979  0.478214  0.116854  0.585595  0.133546  0.494398  0.195238  0.574261  
268 1 2.38884 -7.91885 -1.61176 0.0581046  0.256521  0.652399  0.303142  0.298401  0.367935  0.517161  0.400626  0.311053  0.375722  0.507359  
269 2 4.53318 -6.11868 -1.44964 0.120971  0.658487  0.474446  0.214192  0.574687  0.542055  0.330687  0.481076  0.513114  0.439094  0.483327  
270 3 1.24771 -5.96211 -1.53647 0.132372  0.453934  0.358345  0.316673  0.264877  0.311956  0.496707  0.376879  0.28395  0.394497  0.405198  
271 3 3.42104 -9.72318 -1.51665 0.145845  0.405023  0.343938  0.232377  0.289283  0.303236  0.446804  0.383693  0.217461  0.407894  0.375955  
272 3 3.86905 -6.8103 -2.77769 0.146819  0.394434  0.357051  0.262413  0.282426  0.328663  0.470561  0.328382  0.26532  0.394247  0.36748  
273 1 2.41783 -5.09516 0.061987 0.167128  0.0512764  0.679868  0.0689384  0.461553  0.121447  0.596976  0.118958  0.505398  0.160737  0.566757  
274 3 3.86053 -6.80777 -0.16292 0.161149  0.383761  0.339487  0.295071  0.262554  0.318842  0.482072  0.330025  0.255796  0.366869  0.374343  
275 1 2.44743 -2.30007 -4.46668 0.0661432  0.230711  0.673984  0.255614  0.315893  0.369099  0.530366  0.362741  0.331215  0.395683  0.486498  
276 2 0.300854 -4.11122 -4.50585 0.132052  0.653022  0.467097  0.244844  0.574221  0.531737  0.346299  0.480851  0.490978  0.45373  0.501058  
277 3 3.58013 -4.19115 -4.50105 0.145949  0.453067  0.353386  0.314307  0.259349  0.309896  0.490057  0.388225  0.257997  0.39524  0.420747  
278 3 1.45009 -0.529165 -4.43649 0.152034  0.398285  0.357469  0.221005  0.284396  0.301836  0.465172  0.368642  0.220153  0.405005  0.37987  
279 3 0.977936 -3.43492 -5.77485 0.150422  0.412006  0.354727  0.273409  0.283643  0.343119  0.481396  0.333516  0.259689  0.404789  0.369888  
280 3 1.05851 -3.47126 -3.23365 0.131465  0.422244  0.322192  0.242141  0.254434  0.341619  0.45774  0.343179  0.248373  0.395663  0.385807  
282 1 4.76 -7.35217 1.55169 0.0893423  0.266011  0.647506  0.322009  0.308866  0.375479  0.494794  0.425172  0.323501  0.369604  0.498473  
283 2 2.02962 -9.14991 1.43034 0.106872  0.667928  0.473441  0.189074  0.583863  0.555399  0.306883  0.474624  0.541289  0.421692  0.467281  
284 3 3.58849 -9.29296 1.41743 0.144538  0.451608  0.357479  0.301824  0.249656  0.296105  0.490021  0.37811  0.257499  0.418424  0.403965  
285 3 1.0618 -5.65068 1.54366 0.140875  0.390306  0.367096  0.245367  0.28569  0.281264  0.481709  0.383126  0.183974  0.382663  0.416812  
286 3 1.33459 -8.43152 0.175842 0.130626  0.40488  0.363404  0.287205  0.269484  0.353251  0.45997  0.346824  0.278667  0.362512  0.401171  
288 3 1.42771 -8.51122 2.76563 0.156206  0.398539  0.319724  0.283667  0.255308  0.285742  0.487843  0.339089  0.23654  0.39389  0.361256  
303 1 2.54361 -2.29407 1.47553 0.080755  0.253091  0.657056  0.305012  0.306109  0.366875  0.521626  0.400099  0.313226  0.358346  0.531955  
304 2 0.38596 -4.10099 1.48634 0.113345  0.663598  0.474383  0.19228  0.579932  0.551693  0.313085  0.469268  0.539889  0.432962  0.456275  
305 3 3.60643 -4.07154 1.53001 0.141128  0.449658  0.343066  0.297774  0.284937  0.310209  0.460044  0.407831  0.25341  0.391972  0.415233  
306 3 1.53198 -0.490948 1.46566 0.150315  0.378851  0.358508  0.230459  0.291777  0.27822  0.472522  0.368135  0.208501  0.397538  0.377131  
307 3 1.09453 -3.45628 0.217044 0.137708  0.421547  0.326852  0.277733  0.26185  0.319568  0.469455  0.36294  0.22332  0.395004  0.397215  
308 3 0.999462 -3.43034 2.73631 0.1588  0.410071  0.340759  0.270447  0.235428  0.344442  0.481589  0.3279  0.256795  0.402886  0.369184  
505 1 9.64588 -10.2366 -0.0650739 0.169431  0.0308608  0.684181  0.0436426  0.469212  0.0583352  0.608395  0.0745478  0.515695  0.0915386  0.592727  
506 1 9.64031 -7.31702 -4.45132 0.0580241  0.266218  0.651697  0.290939  0.297331  0.401899  0.513212  0.374512  0.310148  0.393404  0.520872  
507 2 6.90545 -9.20959 -4.51023 0.108087  0.662748  0.47482  0.201761  0.582439  0.553982  0.310585  0.470222  0.535125  0.435848  0.462749  
508 3 8.48609 -9.30475 -4.48034 0.138626  0.443458  0.349343  0.318548  0.249108  0.289625  0.495637  0.381243  0.25002  0.402544  0.400781  
509 3 5.84217 -5.54248 -4.44929 0.133427  0.419708  0.363891  0.219927  0.284664  0.324594  0.470075  0.374375  0.226189  0.404453  0.401502  
510 3 6.20207 -8.51917 -5.77798 0.146065  0.438322  0.345914  0.257924  0.284302  0.339468  0.473667  0.358978  0.240923  0.415279  0.402533  
511 1 9.69579 -10.1996 -3.02099 0.187429  0.0275721  0.676825  0.0294718  0.478529  0.0536519  0.6077  0.051  0.514656  0.0811881  0.604921  
512 3 6.258 -8.53928 -3.22563 0.14761  0.393217  0.322138  0.285972  0.238465  0.328311  0.481113  0.330907  0.23277  0.386475  0.358891  
513 1 4.91015 -2.94509 -1.43299 0.0956333  0.289626  0.610413  0.359671  0.301731  0.38559  0.491888  0.39707  0.33427  0.372133  0.526345  
514 2 7.59246 -0.973862 -1.52827 0.115661  0.662336  0.472971  0.209012  0.579951  0.549008  0.319103  0.477437  0.524779  0.436557  0.473687  
515 3 6.04576 -0.910875 -1.53961 0.144458  0.448266  0.345965  0.299662  0.260205  0.312874  0.477055  0.383674  0.258049  0.39796  0.416864  
516 3 8.63638 -4.61794 -1.47788 0.133427  0.409559  0.352325  0.203233  0.295163  0.302129  0.464787  0.371377  0.220013  0.398053  0.39583  
517 3 8.31331 -1.61367 -2.81303 0.132724  0.414732  0.321869  0.268831  0.258357  0.312717  0.48022  0.351793  0.210388  0.394061  0.39311  
518 3 8.27804 -1.68024 -0.23326 0.155122  0.409924  0.348633  0.286274  0.269707  0.314542  0.497644  0.341703  0.239143  0.397627  0.38228  
519 1 7.21871 -5.07676 -3.02485 0.177221  0.0326699  0.679003  0.0322211  0.47514  0.0505468  0.609821  0.0548577  0.507838  0.0784366  0.610082  
520 1 7.17017 -7.97518 -1.47634 0.076654  0.271457  0.634182  0.326303  0.291071  0.386614  0.502011  0.40507  0.285514  0.383118  0.522494  
521 2 9.355 -6.09981 -1.55461 0.125544  0.658056  0.465131  0.233043  0.573617  0.536463  0.335114  0.481829  0.507146  0.437728  0.493484  
522 3 6.06177 -6.00548 -1.51142 0.13961  0.454212  0.35984  0.302832  0.268735  0.316467  0.479932  0.381767  0.27999  0.405906  0.403719  
523 3 8.3491 -9.75175 -1.58709 0.124601  0.419392  0.351571  0.196575  0.290399  0.337664  0.455745  0.368578  0.259424  0.385265  0.3886  
524 3 8.66357 -6.744 -2.79152 0.144572  0.426401  0.331115  0.26715  0.267457  0.332921  0.475683  0.35385  0.233186  0.403292  0.39409  
525 1 7.26038 -5.09898 -0.0496527 0.185402  0.0385277  0.667933  0.0423041  0.475445  0.0642567  0.606359  0.0770862  0.495425  0.0930773  0.611818  
526 3 8.68793 -6.73422 -0.222522 0.151785  0.407657  0.324934  0.267693  0.27161  0.31291  0.475712  0.347468  0.218851  0.400886  0.381039  
527 1 7.24464 -2.22391 -4.51866 0.0636579  0.257083  0.655925  0.299086  0.300993  0.382055  0.519154  0.388729  0.313096  0.376401  0.524379  
528 2 5.1231 -4.09385 -4.44744 0.122608  0.660136  0.473224  0.233529  0.575669  0.542242  0.337321  0.47775  0.508886  0.456795  0.483603  
529 3 8.37974 -4.169 -4.4805 0.142713  0.454428  0.35085  0.324604  0.277928  0.302719  0.494995  0.399326  0.247984  0.395906  0.426007  
530 3 6.23262 -0.547696 -4.47564 0.157359  0.397897  0.355459  0.269922  0.292609  0.265324  0.494691  0.382499  0.186337  0.393896  0.401906  
531 3 5.84925 -3.37664 -5.67866 0.128498  0.434104  0.35573  0.236268  0.260949  0.393066  0.445848  0.33469  0.285984  0.420911  0.366001  
532 3 5.78293 -3.40448 -3.16795 0.162435  0.390474  0.338784  0.287436  0.277571  0.324988  0.474021  0.33017  0.248362  0.383557  0.373958  
534 1 9.64436 -7.31384 1.50328 0.0672843  0.256199  0.645144  0.320641  0.298883  0.372322  0.512425  0.403948  0.308645  0.360425  0.530288  
535 2 6.88978 -9.20944 1.52105 0.137116  0.647344  0.466666  0.263003  0.57143  0.524343  0.361144  0.470508  0.49512  0.455096  0.495502  
536 3 8.44976 -9.29473 1.46018 0.139118  0.435758  0.343858  0.300589  0.251193  0.293568  0.478437  0.383656  0.258985  0.392596  0.410809  
537 3 5.78609 -5.58859 1.4877 0.160972  0.390761  0.368336  0.229466  0.284404  0.290076  0.469019  0.371345  0.216749  0.410071  0.378297  
538 3 6.25738 -8.6459 0.205799 0.149916  0.435838  0.324417  0.267959  0.289808  0.324327  0.468431  0.353152  0.261968  0.410575  0.367263  
540 3 6.12025 -8.51172 2.7764 0.129759  0.430042  0.347978  0.263261  0.26949  0.338619  0.476576  0.358912  0.25105  0.39559  0.403446  
555 1 7.42898 -2.31562 1.49326 0.0826103  0.269768  0.646267  0.321188  0.295697  0.372831  0.506537  0.415854  0.298803  0.367544  0.526028  
556 2 5.19193 -4.06355 1.51699 0.116212  0.662069  0.468895  0.203992  0.585736  0.543368  0.316262  0.475326  0.530381  0.41756  0.483287  
557 3 8.42998 -4.21209 1.4846 0.130479  0.459241  0.361562  0.299343  0.262764  0.329125  0.482181  0.367346  0.29629  0.403059  0.399782  
558 3 6.32879 -0.541947 1.4724 0.139125  0.392861  0.369384  0.200387  0.299998  0.307036  0.462452  0.371189  0.217151  0.397561  0.387878  
559 3 5.84858 -3.49731 0.249409 0.145401  0.438583  0.328849  0.263439  0.282951  0.343235  0.473299  0.340579  0.272012  0.416719  0.368203  
560 3 5.93333 -3.42509 2.79688 0.138647  0.422242  0.32326  0.279516  0.257845  0.308741  0.481348  0.354591  0.232071  0.387871  0.402018  
85 1 0.0149644 0.0242737 0.0177447 0.174828  0.0372825  0.665099  0.0511843  0.466327  0.0863146  0.602315  0.0844408  0.494048  0.11518  0.594606  
86 1 -0.130302 2.86934 -4.52758 0.0927667  0.280159  0.628715  0.340584  0.293414  0.391847  0.481777  0.427125  0.280384  0.40798  0.496343  
87 2 -2.75558 0.967846 -4.57673 0.128294  0.6494  0.473075  0.237045  0.560089  0.536608  0.350366  0.468333  0.496108  0.46963  0.474087  
88 3 -1.14695 0.862747 -4.48952 0.125603  0.449863  0.352668  0.276998  0.254682  0.344884  0.466568  0.355325  0.3043  0.381871  0.399947  
89 3 -3.84294 4.59261 -4.55685 0.147452  0.396621  0.361861  0.211114  0.280692  0.29988  0.472877  0.37017  0.198732  0.40773  0.390688  
90 3 -3.44757 1.62197 -5.83355 0.148115  0.413653  0.324725  0.280371  0.262565  0.295518  0.48835  0.354467  0.198587  0.407311  0.394248  
91 1 0.0478735 -0.0691128 -2.96498 0.17411  0.0317329  0.679716  0.0537388  0.469398  0.0678308  0.609045  0.0774426  0.503082  0.111926  0.603676  
92 3 -3.47206 1.65256 -3.31351 0.133255  0.419633  0.339891  0.229217  0.25418  0.360319  0.460799  0.32947  0.261847  0.405871  0.373522  
93 1 -4.79774 7.3379 -1.58209 0.0693144  0.25378  0.656129  0.27509  0.316961  0.391381  0.504951  0.366677  0.345147  0.405032  0.473517  
94 2 -2.05504 9.29174 -1.50246 0.114575  0.661962  0.475084  0.210436  0.581134  0.550239  0.316183  0.477457  0.525633  0.441172  0.471606  
95 3 -3.60208 9.42019 -1.48964 0.148118  0.431814  0.351733  0.330747  0.241562  0.284807  0.504482  0.373008  0.258509  0.391092  0.388257  
96 3 -1.00025 5.62049 -1.59081 0.127566  0.414959  0.367527  0.22274  0.2859  0.320165  0.457318  0.380189  0.227474  0.399603  0.398371  
97 3 -1.39763 8.59045 -2.77104 0.15617  0.426349  0.35448  0.277007  0.263301  0.339637  0.492375  0.347723  0.247847  0.410976  0.3842  
98 3 -1.36404 8.62168 -0.198306 0.128317  0.424946  0.365974  0.248575  0.279321  0.353484  0.477601  0.336081  0.265717  0.412268  0.374006  
99 1 -2.45098 5.13608 -3.01471 0.177989  0.0490982  0.67037  0.0692676  0.473425  0.0798431  0.598418  0.111031  0.503066  0.131054  0.587068  
100 1 -2.50604 2.30559 -1.45287 0.0637154  0.258423  0.647751  0.307926  0.290978  0.37221  0.52754  0.391916  0.283217  0.370242  0.536434  
101 2 -0.284843 4.15856 -1.54525 0.119165  0.654988  0.479679  0.231507  0.563482  0.550184  0.343949  0.451489  0.526239  0.471963  0.437822  
102 3 -3.62901 4.11754 -1.54326 0.140826  0.452511  0.34259  0.313782  0.27742  0.285596  0.487262  0.403559  0.231198  0.406614  0.41212  
103 3 -1.37584 0.474139 -1.53327 0.131155  0.40353  0.3534  0.221811  0.281509  0.307348  0.464923  0.371055  0.211686  0.400714  0.389017  
104 3 -1.02803 3.44264 -2.7996 0.15366  0.406678  0.328362  0.284547  0.267092  0.339617  0.489984  0.340501  0.241366  0.380421  0.380212  
105 1 -2.2711 5.10888 0.0139632 0.17201  0.0909785  0.668946  0.108917  0.458711  0.153579  0.575111  0.196325  0.49313  0.216202  0.531557  
106 3 -0.89933 3.48233 -0.243191 0.15807  0.416766  0.357955  0.269056  0.271504  0.340578  0.473382  0.345705  0.258898  0.402018  0.393175  
107 1 -2.28868 7.94118 -4.46171 0.0791095  0.269297  0.646841  0.315351  0.299862  0.377622  0.513784  0.400721  0.311566  0.363715  0.531534  
108 2 -4.52222 6.10458 -4.54732 0.136491  0.649746  0.464955  0.262528  0.569329  0.527768  0.362352  0.470848  0.488759  0.463629  0.495885  
109 3 -1.18074 6.04891 -4.56345 0.139163  0.447788  0.345279  0.317344  0.263559  0.291541  0.487596  0.394874  0.246944  0.400542  0.406772  
110 3 -3.39565 9.72078 -4.46397 0.139214  0.402926  0.365762  0.211948  0.291639  0.300449  0.470067  0.374184  0.204494  0.407649  0.398606  
111 3 -3.78353 6.76283 -5.8192 0.142824  0.41109  0.323486  0.272548  0.257665  0.332009  0.476739  0.343662  0.234979  0.388276  0.387474  
112 3 -3.7782 6.70081 -3.28398 0.12766  0.457789  0.335706  0.228739  0.286002  0.351256  0.457248  0.361747  0.26545  0.417138  0.40355  
114 1 -0.0416797 2.84295 1.4702 0.0833024  0.268613  0.641964  0.333605  0.290738  0.369175  0.518643  0.416286  0.293981  0.347901  0.551272  
115 2 -2.75406 0.991501 1.5192 0.123662  0.655872  0.469323  0.221278  0.581167  0.538339  0.325244  0.48135  0.510295  0.432589  0.494307  
116 3 -1.18992 0.951553 1.47711 0.1402  0.463428  0.352019  0.330118  0.279458  0.282974  0.499552  0.399226  0.238699  0.423077  0.414545  
117 3 -3.75639 4.6034 1.4346 0.136486  0.377762  0.354012  0.230309  0.264735  0.284121  0.471654  0.375353  0.184932  0.377688  0.397847  
118 3 -3.47159 1.6777 0.224346 0.150223  0.426228  0.33358  0.279729  0.259031  0.332887  0.484219  0.355469  0.238125  0.393699  0.407774  
120 3 -3.44668 1.63509 2.83514 0.15282  0.392876  0.31462  0.30329  0.24966  0.287969  0.501139  0.338263  0.208734  0.383275  0.380388  
135 1 -2.3522 7.96631 1.56884 0.0798985  0.244419  0.661667  0.278927  0.330563  0.370868  0.513384  0.372586  0.361892  0.376888  0.486922  
136 2 -4.39204 6.0744 1.41867 0.108278  0.665745  0.474158  0.190779  0.584125  0.553545  0.303348  0.471374  0.544471  0.423736  0.46237  
137 3 -1.2113 6.06663 1.52634 0.150714  0.454472  0.356746  0.292669  0.281109  0.313776  0.46776  0.397465  0.246488  0.398721  0.439594  
138 3 -3.40645 9.71283 1.52374 0.140127  0.414562  0.359005  0.221587  0.291734  0.308316  0.475474  0.372286  0.214217  0.405233  0.407959  
139 3 -3.70093 6.73512 0.14363 0.135151  0.395526  0.321563  0.288492  0.259621  0.299092  0.484171  0.349966  0.191434  0.383008  0.386863  
140 3 -3.742 6.726 2.73715 0.133734  0.433655  0.350311  0.254344  0.2564  0.364979  0.456734  0.343915  0.261485  0.422093  0.38182  
337 1 4.94111 -0.115603 -0.00443406 0.175235  0.0656078  0.673751  0.109192  0.465874  0.125264  0.590104  0.164861  0.489198  0.205844  0.565567  
338 1 4.75635 2.84421 -4.49631 0.0605363  0.251148  0.659035  0.295987  0.296723  0.378641  0.522806  0.395038  0.284216  0.39341  0.515546  
339 2 2.07017 0.996304 -4.5084 0.115938  0.664461  0.466561  0.210723  0.589008  0.544556  0.309104  0.483551  0.530846  0.411348  0.492714  
340 3 3.61694 0.942087 -4.53393 0.150028  0.465226  0.354452  0.308732  0.268052  0.30163  0.491486  0.392561  0.241615  0.425669  0.425113  
341 3 1.09252 4.6234 -4.45783 0.126445  0.393283  0.354635  0.225558  0.262155  0.296757  0.4729  0.361803  0.209113  0.385118  0.395206  
342 3 1.34229 1.55933 -5.84282 0.123943  0.423518  0.334655  0.265471  0.26851  0.314009  0.484586  0.351913  0.195464  0.410897  0.396351  
343 1 4.78626 0.00634484 -3.01883 0.163069  0.0558605  0.684918  0.0724229  0.453756  0.111904  0.602719  0.129001  0.510018  0.145257  0.564176  
344 3 1.41805 1.6408 -3.20018 0.146722  0.41975  0.326072  0.275866  0.249601  0.309335  0.486353  0.3496  0.205192  0.410336  0.391521  
345 1 0.0959939 7.442 -1.46466 0.080412  0.250492  0.638644  0.336599  0.288578  0.351696  0.515794  0.420076  0.282336  0.351865  0.534167  
346 2 2.79861 9.21492 -1.49082 0.12442  0.661262  0.469336  0.221799  0.580383  0.538643  0.329523  0.482234  0.514146  0.433113  0.493687  
347 3 1.23144 9.29426 -1.48448 0.14056  0.446523  0.350947  0.31407  0.268668  0.293694  0.486  0.391332  0.250121  0.403128  0.411485  
348 3 3.77602 5.59583 -1.45412 0.114502  0.425173  0.365216  0.202659  0.306318  0.350072  0.439809  0.381574  0.260991  0.389201  0.387592  
349 3 3.49335 8.5616 -2.80135 0.150827  0.415491  0.331968  0.280335  0.274085  0.306868  0.493726  0.352462  0.207756  0.401802  0.401297  
350 3 3.48262 8.55818 -0.22847 0.139864  0.402704  0.312129  0.255548  0.237802  0.325046  0.4615  0.334582  0.230805  0.389531  0.380929  
351 1 2.4145 5.20072 -2.96179 0.171816  0.0682952  0.679082  0.110167  0.462806  0.115841  0.594033  0.170457  0.49076  0.202722  0.565399  
352 1 2.3974 2.31888 -1.53586 0.0737548  0.238527  0.666995  0.286077  0.314025  0.361507  0.515439  0.405828  0.308472  0.391478  0.478633  
353 2 4.49211 4.14658 -1.487 0.116689  0.661921  0.476773  0.21125  0.58145  0.543824  0.319756  0.481969  0.523843  0.436265  0.48133  
354 3 1.25754 4.27916 -1.45009 0.148939  0.456842  0.356426  0.295595  0.261644  0.323908  0.475016  0.382857  0.286235  0.404874  0.405795  
355 3 3.52146 0.495602 -1.43571 0.136735  0.391115  0.356086  0.223136  0.255415  0.308085  0.469566  0.364918  0.215447  0.380164  0.403271  
356 3 3.80131 3.52834 -2.80502 0.142505  0.416623  0.322169  0.276003  0.254633  0.303446  0.487044  0.354422  0.199209  0.406671  0.390519  
357 1 2.40606 5.20056 -0.0297743 0.181546  0.0448793  0.66979  0.0949177  0.468522  0.0874726  0.601474  0.130319  0.484736  0.169717  0.592716  
358 3 3.8191 3.3569 -0.235643 0.158005  0.394958  0.322909  0.293141  0.239046  0.306224  0.47991  0.352048  0.235087  0.371322  0.380771  
359 1 2.56965 7.91027 -4.50823 0.0877039  0.268849  0.642406  0.339716  0.289597  0.35892  0.516526  0.427543  0.288577  0.351473  0.541386  
360 2 0.362226 6.12195 -4.53718 0.136263  0.652841  0.470606  0.253228  0.569007  0.528564  0.356518  0.480074  0.486444  0.46765  0.497182  
361 3 3.70979 5.96953 -4.47582 0.148613  0.453345  0.357652  0.311863  0.255233  0.285436  0.495326  0.381287  0.244576  0.423738  0.409188  
362 3 1.4488 9.76945 -4.45826 0.140009  0.395076  0.361955  0.193629  0.277921  0.317844  0.449493  0.372752  0.217514  0.406779  0.374956  
363 3 1.08177 6.78268 -5.78903 0.132456  0.417748  0.336013  0.26927  0.257347  0.322618  0.480976  0.351263  0.229768  0.391735  0.3951  
364 3 1.0868 6.80732 -3.2715 0.132679  0.420419  0.344908  0.250331  0.263508  0.355809  0.470916  0.335798  0.260665  0.39807  0.384038  
366 1 4.80083 2.73155 1.46885 0.0711047  0.255699  0.66294  0.290931  0.305475  0.374401  0.516372  0.396503  0.314361  0.378021  0.513091  
367 2 2.19775 0.9854 1.47353 0.126967  0.647443  0.468375  0.247855  0.558569  0.535744  0.354568  0.460445  0.491035  0.477085  0.476827  
368 3 3.76168 0.89198 1.47646 0.131451  0.470915  0.357346  0.295576  0.284551  0.347102  0.469159  0.396796  0.287746  0.390469  0.425541  
369 3 1.05371 4.70832 1.48284 0.125483  0.428883  0.36786  0.189773  0.289544  0.34486  0.450375  0.379962  0.24094  0.420974  0.385431  
370 3 1.45712 1.65625 0.190707 0.142606  0.40489  0.328029  0.259294  0.270079  0.307845  0.48613  0.351574  0.213854  0.384622  0.392113  
372 3 1.46014 1.65768 2.7259 0.145736  0.427573  0.345037  0.249506  0.285511  0.343298  0.461281  0.352048  0.255012  0.412249  0.38884  
387 1 2.48838 7.95112 1.55779 0.0537517  0.252761  0.6579  0.294253  0.290292  0.379901  0.528335  0.38869  0.283049  0.381796  0.530692  
388 2 0.355957 6.1005 1.55745 0.103366  0.673758  0.484  0.197733  0.586988  0.558427  0.307417  0.484011  0.539881  0.438137  0.466199  
389 3 3.64717 6.0198 1.46315 0.141271  0.463042  0.351212  0.328251  0.277422  0.291045  0.505387  0.401654  0.22423  0.413574  0.428672  
390 3 1.4214 9.71809 1.53138 0.12899  0.430335  0.371944  0.210668  0.318587  0.337757  0.45271  0.388274  0.237987  0.415662  0.397275  
391 3 0.970436 6.85358 0.292792 0.161391  0.403453  0.342008  0.262462  0.251481  0.346548  0.458457  0.334741  0.274399  0.404852  0.349218  
392 3 1.03157 6.8013 2.79207 0.150131  0.41111  0.328741  0.261017  0.271797  0.311781  0.462087  0.360835  0.238662  0.382859  0.401029  
589 1 9.74529 -0.0557999 -0.0466874 0.17848  0.0622485  0.664748  0.075496  0.470129  0.130526  0.580311  0.123107  0.511371  0.185382  0.551105  
590 1 9.61233 2.81324 -4.49373 0.0697226  0.260054  0.661096  0.300131  0.301202  0.377306  0.523239  0.398949  0.3069  0.370779  0.531693  
591 2 6.90504 0.992184 -4.46763 0.115311  0.659853  0.468976  0.206423  0.581141  0.548886  0.315049  0.470929  0.529154  0.431521  0.467544  
592 3 8.45907 0.923355 -4.48266 0.141108  0.45881  0.351907  0.305679  0.268586  0.297531  0.487774  0.396728  0.238744  0.418844  0.4227  
593 3 5.92548 4.5861 -4.57015 0.127527  0.418987  0.362599  0.224373  0.291981  0.317513  0.460709  0.386294  0.224691  0.391335  0.406617  
594 3 6.22615 1.64933 -5.79595 0.153694  0.407534  0.33362  0.292202  0.26529  0.308872  0.491378  0.345619  0.221156  0.401063  0.383272  
595 1 9.68483 0.0206729 -2.98288 0.17792  0.0405413  0.672718  0.0716079  0.466768  0.0771879  0.604918  0.107233  0.498147  0.132053  0.591081  
596 3 6.19818 1.66217 -3.22265 0.133406  0.422594  0.33971  0.271699  0.270234  0.322817  0.483749  0.351533  0.222608  0.401303  0.402321  
597 1 5.03487 7.33925 -1.5357 0.0689944  0.279294  0.634641  0.325954  0.279103  0.402609  0.493863  0.41678  0.252013  0.412675  0.504704  