ITEM: TIMESTEP
2000
ITEM: NUMBER OF ATOMS
13888
ITEM: BOX BOUNDS pp pp pp
45.0 100.0
50.0 105.0
-18.06819 30.11365
ITEM: ATOMS id type x y z coord q2 q3 q4 q5 q6 q7 q8 q2_mono q3_mono q4_mono q5_mono q6_mono q7_mono q8_mono
3 3 50.1325 50.3088 -14.8357 23 0.0297384  0.0346881  0.22165  0.0366267  0.116173  0.0482851  0.145532  0.0270778  0.0264284  0.0830281  0.0644569  0.188668  0.0503123  0.112541  
4 3 48.9138 51.4893 -12.1821 22 0.0186727  0.0491331  0.227659  0.0466811  0.118013  0.0343276  0.17605  0.0211637  0.032263  0.0917963  0.0913243  0.197191  0.0803017  0.136325  
6 3 52.8069 51.2236 -15.4963 24 0.0382149  0.0752602  0.200711  0.047541  0.0934934  0.0610504  0.127158  0.0155311  0.0360193  0.111641  0.0625392  0.201941  0.0702411  0.112348  
7 3 53.8706 51.0928 -13.1078 26 0.0364304  0.0370108  0.207515  0.028941  0.0986918  0.0465455  0.129418  0.0172804  0.040673  0.113175  0.0607552  0.156286  0.0676705  0.0979368  
19 1 45.2926 57.6168 -14.6099 27 0.0173083  0.0904167  0.174239  0.0552106  0.12323  0.0560705  0.184299  0.0430336  0.0534255  0.134093  0.0427808  0.192049  0.0742193  0.14808  
20 1 45.0859 56.6289 -17.6682 21 0.0299343  0.0410456  0.249607  0.0794792  0.114441  0.0679998  0.178652  0.0444901  0.0226984  0.124481  0.0526059  0.18151  0.0641015  0.151868  
21 1 46.923 55.2623 -13.0686 26 0.0234775  0.0819266  0.132232  0.0411997  0.14632  0.0807987  0.108117  0.0312487  0.0468993  0.110569  0.0566794  0.132068  0.0805113  0.157994  
23 1 45.689 53.0821 -15.828 21 0.0172532  0.0810708  0.179944  0.0692506  0.0938444  0.0758849  0.131996  0.0309873  0.0301375  0.0951631  0.0498996  0.109901  0.0515446  0.138255  
12674 1 71.6362 71.9031 25.3348 28 0.0411369  0.0485809  0.306036  0.0308136  0.208337  0.0602747  0.278625  0.0254625  0.0232374  0.0936444  0.0413424  0.281052  0.05667  0.313748  
25 2 47.2047 55.417 -16.1028 25 0.0188833  0.0657303  0.15408  0.0763276  0.155661  0.0741137  0.116029  0.0284762  0.0384868  0.22641  0.0648485  0.241285  0.0512411  0.171876  
27 3 46.204 51.6262 -12.5779 25 0.00596224  0.0636121  0.151654  0.041416  0.118036  0.0364262  0.11299  0.0132911  0.0294785  0.05478  0.0964382  0.179852  0.0752618  0.0992783  
28 3 46.5126 57.6049 -12.965 23 0.0249283  0.0656342  0.149  0.0608159  0.156741  0.0435418  0.176394  0.0165986  0.0326418  0.0824263  0.0613274  0.330881  0.0782305  0.166746  
29 3 47.2283 51.7164 -15.2114 22 0.029588  0.0559125  0.143612  0.04942  0.0850504  0.0567338  0.126756  0.0105802  0.00950656  0.0575317  0.0964071  0.174126  0.0592869  0.10992  
30 3 46.3533 56.7566 -16.0069 28 0.0148323  0.0599947  0.128375  0.0453467  0.144243  0.0680482  0.131655  0.0143564  0.0289964  0.0890928  0.092247  0.307695  0.0962441  0.150671  
31 3 46.5813 54.5947 -17.3225 23 0.0195481  0.0666788  0.139236  0.0479271  0.0861796  0.0437796  0.115103  0.0162847  0.0192383  0.0478605  0.0604668  0.236219  0.0564135  0.114669  
34 3 46.9893 54.4715 -14.8168 22 0.0234054  0.0605287  0.132136  0.0629246  0.115765  0.0537886  0.097335  0.0145302  0.0158513  0.0589701  0.0518729  0.251232  0.0528917  0.11512  
35 1 47.7275 52.6134 -13.4908 24 0.0334777  0.0461276  0.157901  0.0618661  0.0820393  0.0816267  0.097138  0.0400145  0.0419469  0.113497  0.0423926  0.112455  0.0680387  0.163462  
36 1 50.5856 58.3398 -14.899 24 0.024828  0.0663605  0.104978  0.0529886  0.170354  0.042702  0.163445  0.0413558  0.0335871  0.0578168  0.0439387  0.205008  0.0529194  0.213404  
37 1 49.9151 56.6538 -17.6301 30 0.0275963  0.0430508  0.1643  0.0526331  0.183708  0.0548815  0.140983  0.021268  0.0154039  0.0760361  0.0396916  0.134983  0.0704545  0.159915  
38 1 48.9881 51.2531 -16.1865 26 0.0220291  0.0566904  0.217769  0.0602307  0.132977  0.0499417  0.147719  0.0278573  0.0389596  0.098676  0.0438861  0.124128  0.0417852  0.165912  
39 1 52.4388 54.5989 -13.0563 26 0.0298928  0.0924726  0.104232  0.0816936  0.105135  0.0841889  0.165553  0.0366818  0.0418294  0.0675653  0.0358942  0.136811  0.0523128  0.159755  
41 1 49.5128 55.1095 -14.4638 24 0.0236058  0.070514  0.119766  0.0490099  0.143068  0.0835635  0.0767285  0.040641  0.0452881  0.0954577  0.0559451  0.128347  0.0668427  0.17415  
43 2 50.1154 53.1368 -11.9164 22 0.0506363  0.0795497  0.212852  0.0708121  0.106363  0.086851  0.183857  0.0276343  0.0531786  0.235237  0.0736622  0.180577  0.0779625  0.135848  
44 2 48.0874 57.8766 -13.1438 25 0.0276404  0.0945765  0.170968  0.0885986  0.158965  0.084336  0.211742  0.0286108  0.0324622  0.236813  0.0495815  0.251234  0.0676657  0.145261  
45 2 51.9086 55.5645 -16.1442 27 0.0147871  0.0740598  0.194886  0.101561  0.169672  0.0936244  0.180312  0.0302934  0.0410944  0.292045  0.0685333  0.24547  0.0630445  0.164849  
47 3 51.2671 52.4559 -12.7907 22 0.0439678  0.0335463  0.212442  0.0474076  0.0787218  0.05197  0.147657  0.021753  0.0285379  0.0785234  0.0649899  0.224285  0.0639791  0.125635  
48 3 51.121 57.7266 -12.9977 24 0.0268801  0.0778592  0.13444  0.0606345  0.174189  0.0430312  0.136377  0.0211371  0.025443  0.103262  0.0395252  0.367076  0.0495863  0.224361  
49 3 48.7251 55.6924 -16.2243 24 0.0229414  0.0448187  0.107474  0.0358914  0.162292  0.0555375  0.106136  0.0317802  0.0227455  0.0728183  0.0413972  0.296515  0.0656029  0.167462  
51 3 48.6077 56.3544 -13.1908 26 0.040334  0.0742014  0.178044  0.038351  0.185287  0.0623187  0.119511  0.0170681  0.0389908  0.0849407  0.0534484  0.324653  0.0794549  0.189769  
54 3 51.2113 56.9938 -16.097 26 0.0271127  0.052322  0.151619  0.0586423  0.191416  0.0552928  0.173166  0.0113352  0.0312892  0.106711  0.0915679  0.355245  0.0866885  0.214154  
55 3 49.1313 53.8442 -12.9052 23 0.0379778  0.0685591  0.11619  0.0574881  0.110025  0.0607457  0.116942  0.0190305  0.0151883  0.0684783  0.0734096  0.221036  0.0501474  0.121831  
56 3 48.6366 58.4751 -14.4768 27 0.0288034  0.0659381  0.0909814  0.040816  0.168308  0.0572566  0.156584  0.0147461  0.0296732  0.130468  0.0472855  0.36518  0.0445424  0.21128  
57 3 51.2583 54.8914 -17.5116 24 0.0226837  0.06427  0.11198  0.0539223  0.131452  0.0530767  0.175743  0.0162275  0.0290409  0.0898024  0.0561506  0.288842  0.074815  0.170707  
60 3 51.4036 54.7579 -14.8331 25 0.0220034  0.0889546  0.116347  0.0603216  0.150713  0.0644002  0.142978  0.0160578  0.0122018  0.0817999  0.064749  0.271006  0.0604546  0.156688  
61 3 48.6893 58.4585 -17.8278 24 0.0276947  0.0779247  0.102104  0.0725936  0.163138  0.0557943  0.177487  0.0152478  0.0310945  0.129364  0.0517518  0.363651  0.0520787  0.214318  
62 3 50.1397 52.8241 -16.3968 26 0.0386775  0.0721754  0.149831  0.0373338  0.0991254  0.0311348  0.133282  0.0188325  0.0214715  0.0660284  0.0560136  0.223753  0.0763493  0.128109  
63 1 51.6209 52.6397 -14.8316 28 0.0356539  0.0624768  0.138808  0.034329  0.100109  0.0574589  0.125041  0.0214346  0.0342207  0.0993737  0.0363397  0.134515  0.0587532  0.166969  
66 1 52.57 51.2951 -17.527 27 0.029466  0.0748697  0.23734  0.0492207  0.0992491  0.0738249  0.161194  0.0323386  0.0230689  0.115259  0.0462713  0.183166  0.0737881  0.148786  
72 2 52.6972 57.8069 -13.0083 25 0.0256766  0.0906035  0.218688  0.0993196  0.161628  0.0682835  0.213649  0.0422961  0.0290402  0.302994  0.0510625  0.315485  0.0361283  0.178866  
77 3 53.4662 55.7122 -16.0952 24 0.0211739  0.0407029  0.199505  0.0293085  0.178689  0.0542464  0.189962  0.0123228  0.0254244  0.0929807  0.0387353  0.362996  0.039822  0.226424  
79 3 53.3333 56.3043 -12.936 26 0.0197972  0.049464  0.156678  0.0294758  0.19786  0.056651  0.196048  0.00769792  0.0191458  0.0967981  0.0571128  0.361058  0.055398  0.217529  
83 3 53.7185 53.4826 -14.0733 22 0.0197527  0.0713109  0.137609  0.0576121  0.138598  0.0591551  0.133937  0.0174202  0.0247689  0.107919  0.0672786  0.278848  0.0924665  0.15414  
84 3 53.2113 58.3046 -14.4208 24 0.0115929  0.068077  0.128502  0.0478833  0.173538  0.0414709  0.237504  0.0106808  0.0171417  0.107927  0.038905  0.385189  0.0507132  0.235878  
89 3 53.3598 58.4998 -17.7983 24 0.0160925  0.0870156  0.140683  0.0744063  0.157622  0.0471464  0.221947  0.00901987  0.0161523  0.106442  0.0335219  0.381345  0.0542329  0.238674  
90 3 53.6434 53.1194 -17.5664 27 0.0128212  0.078704  0.142622  0.0451436  0.141151  0.0465882  0.122773  0.00796057  0.0288531  0.100485  0.0716846  0.239636  0.0563638  0.118613  
1756 1 45.0859 56.6289 -11.6454 21 0.029933  0.0410451  0.249603  0.079477  0.114439  0.0679995  0.178646  0.0444898  0.0226981  0.12448  0.0526061  0.181509  0.0641034  0.151867  
1767 3 46.5813 54.5947 -11.2997 23 0.0195461  0.0666783  0.139236  0.0479275  0.0861709  0.0437812  0.115099  0.0162849  0.0192372  0.0478606  0.0604676  0.236218  0.0564145  0.11467  
1773 1 49.9151 56.6538 -11.6074 30 0.027596  0.0430527  0.164296  0.0526337  0.183709  0.0548828  0.140978  0.0212677  0.0154041  0.0760354  0.039691  0.134985  0.0704544  0.159915  
1774 1 48.9881 51.2531 -10.1637 26 0.0220292  0.0566907  0.217764  0.060231  0.132974  0.0499387  0.14771  0.0278573  0.0389591  0.0986754  0.0438856  0.124125  0.0417852  0.165913  
1793 3 51.2583 54.8914 -11.4888 24 0.022683  0.0642706  0.111982  0.0539224  0.131448  0.0530775  0.17574  0.0162271  0.0290415  0.0898024  0.05615  0.288841  0.0748153  0.170712  
1797 3 48.6893 58.4585 -11.8051 24 0.0276949  0.0779244  0.1021  0.0725925  0.16314  0.0557931  0.177487  0.0152478  0.0310943  0.129366  0.0517523  0.363652  0.0520775  0.214318  
1798 3 50.1397 52.8241 -10.3741 26 0.0386762  0.0721772  0.14983  0.0373323  0.0991279  0.0311361  0.133277  0.0188324  0.0214712  0.0660286  0.0560136  0.223754  0.0763481  0.128111  
1802 1 52.57 51.2951 -11.5043 27 0.0294644  0.0748713  0.237343  0.0492199  0.0992495  0.0738188  0.161197  0.0323379  0.0230695  0.115258  0.0462708  0.183166  0.0737856  0.148783  
1825 3 53.3598 58.4998 -11.7756 24 0.0160928  0.0870166  0.140683  0.074405  0.157625  0.0471473  0.221946  0.00901992  0.0161527  0.106442  0.0335209  0.381344  0.0542332  0.238674  
1826 3 53.6434 53.1194 -11.5437 27 0.0128203  0.0787054  0.14262  0.0451399  0.141151  0.0465869  0.122777  0.00796105  0.0288526  0.100487  0.0716865  0.239636  0.0563636  0.118616  
1761 2 47.2047 55.417 -10.0801 25 0.0188827  0.0657319  0.154077  0.0763253  0.155658  0.074111  0.116036  0.0284764  0.0384867  0.22641  0.0648485  0.241286  0.0512407  0.171875  
13047 1 50.3064 50.2126 23.2508 26 0.0226786  0.0630657  0.250832  0.0637074  0.0907788  0.0643597  0.176847  0.0380151  0.0572594  0.0850602  0.0485215  0.124434  0.0918965  0.165794  
13032 1 47.5602 50.0367 29.7308 24 0.0119275  0.046332  0.163763  0.0522633  0.0972941  0.0564815  0.152978  0.0284933  0.0535215  0.0995876  0.0464806  0.16707  0.0701322  0.172823  
5 2 54.2615 50.5731 -15.3906 25 0.0401875  0.101556  0.215186  0.0632433  0.110676  0.0998701  0.137703  0.0393903  0.0638413  0.270519  0.0588231  0.184132  0.0719334  0.159521  
8 2 59.3668 50.5526 -15.543 25 0.0426601  0.0775984  0.226481  0.0776268  0.12245  0.0586261  0.192325  0.083553  0.0687139  0.296607  0.0520648  0.29232  0.0623889  0.24498  
9 3 57.8508 50.7398 -15.6636 25 0.0227991  0.0626194  0.212372  0.0374303  0.0950171  0.0714434  0.160274  0.0176779  0.0215371  0.164474  0.0494207  0.221944  0.0586499  0.177382  
10 3 58.2189 51.1334 -12.7797 21 0.037478  0.0339156  0.209267  0.0327577  0.137507  0.0468559  0.163361  0.0222418  0.0242318  0.15325  0.0568873  0.229699  0.0572364  0.167275  
12 3 62.4771 51.0363 -14.8687 26 0.0197404  0.0208758  0.137863  0.0255138  0.138524  0.0351716  0.193837  0.0207004  0.0182348  0.139333  0.0385628  0.333845  0.0634963  0.246869  
64 1 54.6861 56.799 -14.4156 28 0.057452  0.0158023  0.312772  0.0274868  0.200779  0.0340187  0.297515  0.0331987  0.0418084  0.0449345  0.0339032  0.245041  0.0647291  0.252114  
65 1 54.6747 56.7683 -17.3954 28 0.0306626  0.0241989  0.239452  0.0269217  0.177914  0.0390641  0.25782  0.0298805  0.0329416  0.076502  0.0345741  0.197019  0.0651909  0.240178  
67 1 56.9357 54.5859 -12.7894 28 0.0312912  0.109733  0.094162  0.0624692  0.200571  0.0831474  0.235618  0.0456812  0.0340476  0.053206  0.0412854  0.260387  0.0720389  0.228286  
69 1 54.578 53.9096 -15.8879 28 0.0486414  0.117214  0.117559  0.0534518  0.158121  0.0858361  0.160285  0.0296417  0.0291105  0.0771671  0.0493604  0.192403  0.073077  0.189072  
71 2 54.3208 52.6403 -12.9106 23 0.0239105  0.154855  0.213297  0.0385136  0.137799  0.0599754  0.14755  0.0354595  0.0369331  0.286736  0.0519665  0.226605  0.0657515  0.15203  
73 2 56.7133 55.7754 -15.8112 24 0.0331687  0.0385589  0.299205  0.0475156  0.1805  0.0453299  0.31261  0.0384549  0.0268771  0.328657  0.0702142  0.312075  0.0621088  0.203259  
75 3 55.8712 52.5198 -12.7063 23 0.0332991  0.0759596  0.206372  0.0540507  0.162607  0.038309  0.149942  0.0133012  0.0267907  0.13669  0.0692728  0.233921  0.0765529  0.151282  
76 3 55.824 57.6273 -12.8226 23 0.0253223  0.0455141  0.231079  0.0322377  0.184518  0.0232973  0.262677  0.0127485  0.0211605  0.0940624  0.0401879  0.399713  0.0507932  0.265677  
81 3 55.3599 51.767 -15.5654 25 0.0389445  0.0525774  0.18236  0.0481209  0.153931  0.0368105  0.145729  0.0142847  0.0282109  0.116056  0.0881928  0.237286  0.0618063  0.137968  
82 3 55.9998 57.2124 -15.8843 26 0.0344437  0.0545727  0.205203  0.0363384  0.185886  0.0371327  0.284455  0.00898137  0.0223302  0.106317  0.0426682  0.401948  0.0531756  0.255088  
85 3 56.0415 54.9965 -17.0529 24 0.037342  0.0810289  0.147501  0.0432139  0.200762  0.0370329  0.236329  0.0145388  0.0227903  0.111476  0.0530495  0.352364  0.0677655  0.199793  
88 3 56.0116 55.089 -14.538 25 0.032471  0.0642184  0.175676  0.0399237  0.191364  0.0338298  0.237145  0.0128157  0.0280807  0.112214  0.0501273  0.36239  0.0466975  0.216489  
91 1 56.9447 51.7757 -14.2491 24 0.03201  0.0399699  0.217096  0.0535917  0.143564  0.0417601  0.170029  0.0326061  0.0381146  0.100446  0.0603894  0.163744  0.0697393  0.161305  
92 1 59.4165 56.9087 -14.1505 28 0.0331389  0.019537  0.28523  0.032808  0.186649  0.0406579  0.249147  0.0364771  0.0163601  0.0677715  0.0258906  0.293487  0.0297013  0.302878  
93 1 59.4194 56.8875 -17.0979 27 0.0313952  0.0241657  0.249494  0.0563242  0.165384  0.0440263  0.285716  0.0354212  0.015611  0.0667297  0.02478  0.293702  0.0295071  0.301674  
94 1 56.8223 51.7317 -17.0717 28 0.0357363  0.0723625  0.191779  0.0596608  0.116609  0.0613794  0.167238  0.0405598  0.0435886  0.12095  0.0699421  0.184999  0.0844142  0.174394  
95 1 61.7072 54.6913 -12.5508 28 0.0224231  0.0820389  0.150252  0.056946  0.154504  0.0628194  0.183711  0.0371019  0.0349106  0.068597  0.0606473  0.189567  0.062256  0.258655  
97 1 59.2 53.9696 -15.5854 27 0.0377455  0.101405  0.155803  0.0428303  0.172009  0.0698331  0.204657  0.050107  0.0498805  0.0707308  0.0462645  0.259433  0.0708194  0.246678  
99 2 58.9111 52.5709 -12.5546 25 0.0255902  0.0745165  0.238735  0.0760952  0.158843  0.0854538  0.212632  0.0572911  0.088126  0.293529  0.0469913  0.294282  0.0786678  0.203806  
100 2 57.3779 57.7832 -12.7313 25 0.0168709  0.0829795  0.251749  0.0673333  0.165261  0.0508876  0.2794  0.046257  0.0131267  0.327101  0.0287702  0.335406  0.0272734  0.205815  
101 2 61.5255 55.6944 -15.6447 26 0.0248542  0.0496119  0.28076  0.0626847  0.16312  0.0717217  0.236728  0.0462881  0.0355162  0.31797  0.0326898  0.327245  0.0323798  0.205099  
103 3 60.4918 52.4052 -12.4874 24 0.025456  0.0648824  0.1688  0.0486309  0.146757  0.0602282  0.191255  0.0257015  0.0282326  0.12461  0.0539516  0.304667  0.0738214  0.228764  
104 3 60.6071 57.5563 -12.5844 24 0.0273785  0.0662927  0.223914  0.0323054  0.170166  0.0314211  0.24429  0.0142803  0.0151696  0.104603  0.0262666  0.392875  0.0302349  0.25984  
105 3 58.2719 55.8209 -15.6928 23 0.0205095  0.0376733  0.222902  0.0292776  0.164858  0.0402311  0.249986  0.0125075  0.0137408  0.0970545  0.0247011  0.37556  0.0362194  0.251316  
107 3 58.0628 56.2557 -12.664 26 0.0319626  0.0376418  0.199032  0.032061  0.201572  0.0385202  0.253079  0.00813225  0.0170455  0.109318  0.0325376  0.392397  0.0522634  0.251722  
109 3 60.0393 52.0076 -15.3077 24 0.0298006  0.0561591  0.133241  0.028153  0.182161  0.0554687  0.176895  0.0164098  0.0331118  0.120953  0.0819151  0.319459  0.0716402  0.221037  
110 3 60.8209 57.0987 -15.5392 26 0.0359943  0.0649276  0.217865  0.0342683  0.181477  0.0374457  0.255436  0.00983185  0.0194484  0.114814  0.066101  0.390525  0.0598216  0.24983  
111 3 58.3287 53.4143 -13.7817 24 0.025737  0.076448  0.133899  0.0498034  0.159088  0.0557359  0.207716  0.0141745  0.0389478  0.109516  0.0586146  0.315012  0.0615421  0.210688  
112 3 58.0509 58.3501 -14.0399 24 0.025517  0.096975  0.149159  0.0420114  0.192907  0.0392595  0.281199  0.00501496  0.0204605  0.104782  0.0416262  0.406777  0.0467576  0.256549  
113 3 60.8048 55.0203 -16.9069 26 0.0280697  0.0678105  0.161409  0.0507069  0.176356  0.0469416  0.210272  0.00785793  0.0252676  0.107389  0.0441156  0.354268  0.0724174  0.222949  
116 3 61.0068 54.7165 -14.4403 24 0.0179129  0.0596686  0.185567  0.0511142  0.160146  0.0463442  0.202241  0.00902183  0.0198727  0.114005  0.0396652  0.353654  0.0568358  0.222542  
117 3 58.0541 58.4152 -17.4776 24 0.0238216  0.0838536  0.153971  0.0551768  0.202408  0.0387976  0.276832  0.00666868  0.0196595  0.106929  0.0274055  0.406457  0.0418796  0.258917  
118 3 58.309 53.1569 -17.2345 24 0.0293039  0.0782618  0.141033  0.0377235  0.185615  0.0648442  0.206631  0.0125399  0.0342269  0.106242  0.0794118  0.314679  0.0701321  0.202918  
119 1 61.503 52.6973 -14.2019 25 0.0183466  0.0492091  0.16182  0.0500276  0.136294  0.0623691  0.191651  0.0201807  0.054783  0.109541  0.0485566  0.181189  0.0785698  0.227361  
122 1 61.4221 51.7118 -16.6994 30 0.0304036  0.0326425  0.150591  0.0338308  0.155599  0.0630527  0.179082  0.0354757  0.0556827  0.138707  0.0630358  0.167554  0.0802337  0.21433  
126 1 61.9365 59.1022 -15.572 28 0.0431963  0.135433  0.0920174  0.0649534  0.200652  0.0918347  0.236801  0.0546858  0.015957  0.0538171  0.0181068  0.328547  0.0267783  0.327804  
128 2 62.1449 57.8152 -12.5498 25 0.0199929  0.0942978  0.252077  0.0661135  0.178718  0.0519736  0.253108  0.0467208  0.0126951  0.324284  0.0170562  0.338969  0.0298615  0.208371  
135 3 62.8553 56.2638 -12.6063 26 0.0273153  0.0267903  0.217871  0.0413446  0.173801  0.0277599  0.19037  0.00711901  0.0303901  0.109075  0.0519461  0.373881  0.073898  0.243276  
140 3 62.804 58.4423 -13.8195 23 0.0291125  0.0720938  0.111094  0.0416316  0.199016  0.0441057  0.240347  0.00908459  0.0197478  0.116865  0.0324984  0.402447  0.0467946  0.249907  
145 3 62.8506 58.3218 -17.2561 24 0.0263787  0.0877527  0.13758  0.0363833  0.191379  0.0359797  0.249923  0.00794697  0.0209424  0.118083  0.0311359  0.403446  0.0470619  0.247527  
1801 1 54.6747 56.7683 -11.3727 28 0.0306631  0.024199  0.239454  0.0269209  0.177913  0.0390632  0.257816  0.0298801  0.0329401  0.0765038  0.034575  0.197019  0.0651914  0.240177  
1821 3 56.0415 54.9964 -11.0302 24 0.0373412  0.0810297  0.147503  0.0432128  0.200763  0.0370316  0.236326  0.0145381  0.0227904  0.111478  0.0530506  0.352365  0.0677651  0.199791  
1829 1 59.4194 56.8875 -11.0752 27 0.0313949  0.0241668  0.249494  0.0563235  0.165387  0.044027  0.285715  0.035421  0.0156121  0.0667299  0.0247787  0.293701  0.0295071  0.301673  
1830 1 56.8223 51.7317 -11.049 28 0.0357366  0.0723623  0.191778  0.0596646  0.116605  0.061381  0.167241  0.0405601  0.0435908  0.120949  0.0699435  0.184998  0.0844147  0.174391  
1849 3 60.8048 55.0203 -10.8842 26 0.0280679  0.0678102  0.161408  0.0507068  0.176358  0.0469424  0.210265  0.00785761  0.0252669  0.107388  0.0441165  0.354267  0.0724169  0.222948  
1853 3 58.0541 58.4152 -11.4549 24 0.0238236  0.0838533  0.153972  0.0551778  0.20241  0.0387977  0.27683  0.00666857  0.0196589  0.106929  0.0274059  0.406457  0.0418805  0.258918  
1854 3 58.309 53.1569 -11.2118 24 0.0293042  0.0782618  0.141034  0.0377254  0.185614  0.064842  0.206625  0.0125399  0.0342273  0.106243  0.0794108  0.314679  0.070132  0.202915  
1858 1 61.4221 51.7118 -10.6766 30 0.0304095  0.0326409  0.150594  0.0338278  0.155599  0.0630548  0.179085  0.0354753  0.0556836  0.13871  0.0630362  0.167554  0.0802336  0.21433  
1881 3 62.8506 58.3218 -11.2333 24 0.0263796  0.0877525  0.137581  0.0363789  0.191381  0.035983  0.249926  0.00794669  0.0209435  0.118082  0.0311369  0.403447  0.0470638  0.247531  
13 3 62.8337 50.9863 -11.8904 23 0.0325385  0.0453194  0.103444  0.0388104  0.169132  0.0529517  0.203603  0.0178257  0.019625  0.14295  0.0610744  0.341242  0.0720053  0.249035  
133 3 63.0981 55.785 -15.5662 23 0.0248249  0.0381377  0.199804  0.0312635  0.160429  0.0478212  0.203435  0.0165707  0.0258325  0.105764  0.0504666  0.369403  0.0652639  0.247264  
139 3 63.1176 53.3038 -13.1682 25 0.00737522  0.0580061  0.101684  0.0750683  0.154684  0.0614907  0.174582  0.00780759  0.0239082  0.1281  0.0393273  0.344008  0.061721  0.229459  
146 3 63.0114 53.1166 -16.6119 25 0.0193662  0.0455093  0.0782876  0.0483129  0.163019  0.0524474  0.170238  0.00768566  0.0245423  0.12863  0.0511348  0.345287  0.0653023  0.226746  
1882 3 63.0114 53.1166 -10.5892 25 0.0193655  0.0455089  0.078289  0.0483153  0.163021  0.0524482  0.170242  0.00768613  0.0245422  0.128628  0.0511351  0.345288  0.0653036  0.226744  
12165 3 62.8337 50.9863 -17.9131 23 0.032537  0.0453194  0.10344  0.0388075  0.169134  0.0529518  0.2036  0.0178258  0.0196246  0.142951  0.0610722  0.341243  0.0720036  0.249035  
11 2 63.9379 50.6628 -14.9314 26 0.0338101  0.0378632  0.123878  0.0830718  0.173618  0.0762328  0.218125  0.0738016  0.0398969  0.301091  0.0323333  0.332607  0.0511126  0.254411  
14 2 68.8713 50.7022 -14.9099 26 0.0386686  0.073865  0.181806  0.0487257  0.211402  0.0815421  0.180433  0.0725419  0.0602282  0.311113  0.0625083  0.352423  0.0618077  0.251745  
15 3 67.3568 50.7456 -14.9784 24 0.0223834  0.0549867  0.170784  0.045942  0.164355  0.0358739  0.185049  0.0208274  0.0220889  0.163903  0.0480085  0.327409  0.0589967  0.28844  
16 3 67.5588 50.8746 -11.927 22 0.0380051  0.0374239  0.165818  0.0279826  0.200406  0.0504603  0.161167  0.019847  0.0191294  0.169128  0.062467  0.325765  0.0457962  0.277875  
120 1 64.2276 57.1744 -14.2103 27 0.0317393  0.0448928  0.223571  0.0515844  0.176522  0.0476478  0.21391  0.0383838  0.0132811  0.105295  0.023288  0.253654  0.0601037  0.296323  
121 1 64.2039 56.7899 -17.1169 28 0.0393064  0.0682011  0.242668  0.0415266  0.184286  0.0674137  0.226361  0.0261842  0.0179451  0.0715743  0.0478209  0.251305  0.0468606  0.287957  
123 1 66.4877 54.6132 -12.6591 28 0.0329681  0.0924534  0.120679  0.0691286  0.150117  0.0570848  0.191551  0.0437296  0.0428218  0.116473  0.0552637  0.253842  0.0606997  0.262115  
125 1 63.9003 54.0046 -14.9112 26 0.0137519  0.098086  0.158306  0.0644189  0.132734  0.0561934  0.158886  0.0608576  0.0539424  0.103358  0.0544735  0.189815  0.0778729  0.260014  
127 2 63.5896 52.4305 -11.9285 26 0.0332493  0.101603  0.175169  0.084369  0.193959  0.0696869  0.209553  0.0595447  0.0400841  0.28789  0.0302223  0.322533  0.05737  0.220756  
129 2 66.3155 55.712 -15.6417 25 0.0455164  0.0347616  0.231704  0.046346  0.188463  0.0589991  0.220032  0.0516758  0.0400162  0.297579  0.0351602  0.327466  0.0369913  0.191186  
131 3 65.1431 52.2429 -11.8964 25 0.0166697  0.0524469  0.137509  0.067045  0.151212  0.0426927  0.181371  0.0159954  0.0339618  0.150293  0.0457784  0.335941  0.0551747  0.273971  
132 3 65.4154 57.4814 -12.5798 24 0.0210681  0.0416841  0.212276  0.0349397  0.184177  0.0423678  0.215981  0.0160906  0.0177175  0.107106  0.048077  0.395118  0.052748  0.258358  
137 3 64.8665 51.9443 -14.9114 25 0.0374  0.0741587  0.115847  0.0526047  0.181784  0.0578083  0.175789  0.011748  0.0343833  0.141304  0.0654299  0.361795  0.0712926  0.258345  
138 3 65.6005 57.0943 -15.6385 25 0.0429288  0.0775593  0.177063  0.0434093  0.190834  0.0568979  0.221393  0.0111215  0.0214124  0.116588  0.0823184  0.39345  0.0726848  0.251838  
141 3 65.707 54.8835 -16.9 26 0.0342534  0.050377  0.145882  0.0534087  0.184278  0.0511203  0.190008  0.00837996  0.0270128  0.116043  0.0478643  0.366327  0.057826  0.234213  
144 3 65.7119 54.7788 -14.4507 23 0.0246577  0.0670321  0.143864  0.0479239  0.161352  0.0492118  0.179731  0.0101945  0.0268021  0.116367  0.0455401  0.368019  0.0578543  0.236297  
147 1 66.1872 51.3452 -13.3983 27 0.0178909  0.0514503  0.153555  0.051463  0.162453  0.057138  0.182454  0.0305927  0.0351105  0.157386  0.0547758  0.16402  0.0521516  0.205173  
148 1 69.0941 57.1059 -14.0985 27 0.0386016  0.0654704  0.234849  0.062588  0.164936  0.0492843  0.199226  0.0357277  0.0242103  0.100108  0.0454661  0.264671  0.0573339  0.294627  
149 1 68.9961 56.7722 -17.0272 28 0.0393435  0.0565175  0.239639  0.041226  0.165236  0.0661787  0.198084  0.0318739  0.0120852  0.0681193  0.0668352  0.269518  0.0572039  0.281526  
150 1 65.9771 52.9202 -16.2078 24 0.028501  0.0868146  0.0517615  0.0359022  0.174098  0.0522207  0.176124  0.0399367  0.0368208  0.122675  0.0627064  0.18405  0.0611262  0.237793  
151 1 71.3846 54.7569 -12.5265 28 0.0271223  0.0872246  0.176416  0.0883456  0.15296  0.0653925  0.177008  0.0552831  0.031326  0.134346  0.0552168  0.292367  0.0431913  0.267432  
153 1 68.6412 53.9505 -14.8218 26 0.0234339  0.0995331  0.131184  0.0301328  0.174075  0.0654792  0.155737  0.0688752  0.0635659  0.135153  0.0688762  0.235996  0.0731647  0.246888  
155 2 68.2946 52.2986 -11.8892 26 0.0178309  0.126799  0.146741  0.058599  0.209132  0.0848217  0.187764  0.0600967  0.014497  0.293781  0.0293492  0.343087  0.0287316  0.21845  
156 2 66.9527 57.7341 -12.5653 25 0.014547  0.108091  0.21762  0.0650137  0.184211  0.0757525  0.231685  0.0476854  0.0137288  0.315597  0.0194089  0.335213  0.0366385  0.200345  
157 2 71.1081 55.6217 -15.4992 26 0.0380911  0.0205029  0.244273  0.0398231  0.168623  0.0606104  0.204412  0.0515772  0.0417351  0.294235  0.0399051  0.323963  0.0403017  0.185599  
159 3 69.8754 52.0448 -11.9089 24 0.0120304  0.0387733  0.112245  0.0598636  0.201622  0.0576924  0.140478  0.020498  0.0214092  0.144008  0.041231  0.334754  0.0393141  0.269394  
160 3 70.2539 57.4388 -12.4624 24 0.0277398  0.0597456  0.244313  0.0407311  0.174156  0.0446083  0.187009  0.0202682  0.0191123  0.100355  0.0513096  0.391196  0.0586362  0.251445  
161 3 67.8825 55.7456 -15.5175 23 0.0214654  0.0346711  0.186323  0.0334847  0.159072  0.0533467  0.179633  0.0224841  0.0247206  0.0946908  0.0733816  0.384832  0.076145  0.256088  
163 3 67.682 56.1795 -12.5539 26 0.029084  0.0318337  0.210588  0.0398488  0.185497  0.037916  0.170676  0.00771681  0.0348984  0.105277  0.0583713  0.388489  0.0787286  0.253904  
165 3 69.6639 52.0358 -14.8981 26 0.0421128  0.0734579  0.0960978  0.0395318  0.21652  0.076118  0.150673  0.0147903  0.0330764  0.144098  0.0761676  0.350907  0.0701486  0.270656  
166 3 70.4156 57.0181 -15.5721 25 0.0363328  0.0532341  0.20053  0.0369552  0.160548  0.0617553  0.202109  0.0107512  0.0266737  0.116207  0.079612  0.390632  0.0698544  0.242851  
167 3 67.7502 53.0866 -13.1621 23 0.0264581  0.064359  0.0752252  0.0566169  0.183634  0.0401918  0.163247  0.00935494  0.0326538  0.138509  0.0461864  0.356138  0.0463167  0.255608  
168 3 67.5699 58.2907 -13.8831 23 0.0262867  0.0857442  0.112244  0.0283294  0.180799  0.0392664  0.228477  0.00789521  0.0254606  0.116011  0.0426146  0.405273  0.0526646  0.249196  
169 3 70.5579 54.7495 -16.7555 24 0.027018  0.0382602  0.152713  0.0491257  0.182162  0.0478295  0.181031  0.0101891  0.0286257  0.118098  0.0450361  0.376924  0.0566529  0.233658  
172 3 70.4446 54.7914 -14.2491 24 0.0253368  0.0703473  0.188822  0.0510723  0.176565  0.0540989  0.164179  0.00720097  0.0265702  0.112367  0.0475521  0.377838  0.0545695  0.236126  
173 3 67.6685 58.3162 -17.3066 25 0.033838  0.0927311  0.138145  0.0356418  0.18363  0.0460993  0.24216  0.00755486  0.0225491  0.119488  0.0280251  0.403621  0.0370751  0.249926  
174 3 67.8824 53.0709 -16.6 25 0.0181893  0.0676353  0.070116  0.0437239  0.195155  0.0577124  0.182789  0.00711546  0.033049  0.135921  0.0467494  0.356512  0.0387708  0.25208  
175 1 71.111 51.875 -13.5085 24 0.0258347  0.0429566  0.101312  0.0693973  0.181509  0.0460376  0.137613  0.0412457  0.0385726  0.144149  0.0495805  0.207842  0.0763728  0.226442  
178 1 70.7968 52.8015 -16.3034 23 0.0179738  0.0598349  0.0821827  0.0527616  0.179608  0.0515842  0.130453  0.0325474  0.0250324  0.138658  0.0364657  0.227071  0.047549  0.241209  
180 1 71.5332 59.0991 -15.4091 27 0.0378786  0.152744  0.196577  0.0673643  0.180527  0.0899366  0.221119  0.0492497  0.0158325  0.0608914  0.020007  0.316031  0.0299467  0.322629  
182 2 71.7785 57.7939 -12.4201 26 0.0236476  0.0815792  0.214389  0.052608  0.175311  0.0731616  0.216056  0.0472762  0.0171486  0.317594  0.0292674  0.331993  0.0305574  0.20614  
1857 1 64.2039 56.7899 -11.0942 28 0.0393073  0.0682009  0.242671  0.0415247  0.184291  0.0674148  0.226366  0.0261851  0.0179461  0.0715766  0.0478213  0.251304  0.0468607  0.287959  
1877 3 65.707 54.8835 -10.8773 26 0.0342539  0.0503772  0.14588  0.0534117  0.184284  0.0511203  0.190009  0.00837992  0.0270128  0.116041  0.047864  0.366327  0.0578262  0.234212  
1885 1 68.9961 56.7722 -11.0045 28 0.0393431  0.0565188  0.239643  0.0412226  0.16524  0.0661789  0.198094  0.0318741  0.0120853  0.0681211  0.0668357  0.269518  0.0572038  0.281528  
1886 1 65.9771 52.9202 -10.1851 24 0.0285029  0.0868142  0.0517609  0.0359038  0.174107  0.0522224  0.176124  0.0399378  0.036821  0.122676  0.0627068  0.184051  0.0611277  0.237793  
1905 3 70.5579 54.7495 -10.7328 24 0.0270191  0.0382605  0.152715  0.0491276  0.182162  0.047828  0.181027  0.0101891  0.0286256  0.118097  0.045037  0.376921  0.0566532  0.233657  