ITEM: TIMESTEP
4000
ITEM: NUMBER OF ATOMS
13888
ITEM: BOX BOUNDS pp pp pp
45.0 100.0
50.0 105.0
-18.06819 30.11365
ITEM: ATOMS id type x y z coord q2 q3 q4 q5 q6 q7 q8 q2_mono q3_mono q4_mono q5_mono q6_mono q7_mono q8_mono
3 3 50.2901 50.2666 -14.6282 22 0.0125191  0.0394956  0.231066  0.0391972  0.155816  0.0610479  0.158182  0.0245436  0.0349047  0.0938913  0.0580104  0.227293  0.0621783  0.134755  
4 3 48.8472 51.0661 -11.6858 21 0.0138966  0.0457096  0.225243  0.0442065  0.127547  0.0554026  0.143272  0.0203697  0.0245561  0.101295  0.0742348  0.237323  0.0672295  0.146387  
6 3 52.8374 51.053 -15.3707 25 0.0384864  0.0897682  0.219871  0.0486828  0.137625  0.0608511  0.152635  0.0235795  0.0519284  0.108725  0.0771261  0.17802  0.0758739  0.126956  
7 3 54.0452 51.0854 -13.0455 26 0.0379255  0.0561471  0.239114  0.03361  0.0833205  0.0485899  0.142001  0.015143  0.0410299  0.108667  0.0568007  0.175046  0.0674909  0.115965  
19 1 45.3099 57.5975 -15.1781 27 0.0159464  0.0780409  0.193152  0.0668462  0.126468  0.0629454  0.197913  0.0422056  0.0291756  0.125873  0.0319591  0.154103  0.0774991  0.158639  
21 1 46.0189 54.8725 -13.892 25 0.0184857  0.0553111  0.154786  0.056731  0.118239  0.053184  0.136055  0.0462201  0.0451945  0.11001  0.059604  0.102341  0.104658  0.124397  
23 1 45.6964 52.5909 -15.6477 24 0.00980587  0.0914909  0.176729  0.0711423  0.115973  0.0563284  0.130267  0.0325488  0.0387986  0.135752  0.0514267  0.118495  0.0738829  0.132933  
25 2 47.2223 55.2371 -16.7627 24 0.0227355  0.0744168  0.177843  0.0757657  0.147911  0.0667537  0.137973  0.0371252  0.0540895  0.235679  0.0717855  0.202539  0.0717102  0.132374  
27 3 46.1854 51.5644 -12.0879 25 0.015077  0.051562  0.156919  0.0512393  0.1545  0.0598273  0.115731  0.010769  0.0334728  0.0669653  0.108824  0.19469  0.0969983  0.116799  
28 3 46.4329 57.5271 -13.4914 22 0.0381716  0.0350223  0.173665  0.0500232  0.158222  0.0421462  0.186139  0.0139372  0.0413602  0.0734998  0.0689408  0.318044  0.0829679  0.175797  
29 3 47.4779 51.3987 -14.6763 22 0.0238509  0.0473436  0.196524  0.0379994  0.143122  0.0617809  0.125295  0.0147611  0.0148969  0.0861439  0.101693  0.205096  0.0871308  0.124057  
30 3 46.4108 56.6292 -16.5183 26 0.0178616  0.0314657  0.155275  0.0429931  0.184897  0.0488427  0.182952  0.0150266  0.0393537  0.0855892  0.0995395  0.300876  0.110478  0.154939  
31 3 46.6178 54.6023 -18.0883 22 0.0210451  0.0736923  0.140422  0.0570644  0.141141  0.0608146  0.128836  0.016983  0.0193238  0.0673863  0.0679891  0.247164  0.0751267  0.115055  
34 3 46.8643 54.2279 -15.5363 23 0.0142043  0.0887429  0.13172  0.0637123  0.0989068  0.0644023  0.113168  0.0138304  0.0158497  0.0605394  0.0707217  0.230515  0.0738939  0.106725  
35 1 47.8704 52.3435 -12.8893 26 0.0383016  0.0421221  0.175486  0.066375  0.105053  0.0705668  0.136938  0.0465089  0.038085  0.132803  0.0420328  0.133035  0.0639735  0.137314  
36 1 50.4847 57.9822 -15.1401 24 0.0345622  0.0878575  0.063857  0.0399709  0.198051  0.056725  0.168394  0.0435075  0.0295891  0.0818014  0.0451909  0.17263  0.0526448  0.224937  
37 1 49.8837 56.5804 -18.0091 28 0.0288644  0.068021  0.113691  0.0472206  0.185286  0.0447399  0.130403  0.0222191  0.0498796  0.116452  0.0615028  0.125106  0.0807644  0.174197  
38 1 49.0873 51.3176 -15.793 25 0.0136017  0.0514854  0.200507  0.0548509  0.108415  0.0603516  0.120556  0.0297443  0.0574149  0.102045  0.0542166  0.172745  0.0572665  0.161015  
39 1 52.3699 54.8152 -13.2884 24 0.0358983  0.0901757  0.134582  0.079117  0.136725  0.0678037  0.16041  0.0398042  0.0278205  0.0681135  0.0422686  0.140497  0.0599385  0.146713  
41 1 49.336 54.6076 -14.7545 28 0.0240469  0.107863  0.104355  0.0746429  0.109752  0.0591854  0.109816  0.037508  0.0477887  0.101534  0.0644931  0.115076  0.0674226  0.158447  
43 2 50.4792 53.2039 -11.7231 25 0.0377341  0.102839  0.212943  0.0575199  0.144463  0.0702774  0.118683  0.0389688  0.0481289  0.250398  0.0738944  0.162015  0.0752938  0.111886  
44 2 48.0134 57.593 -13.6229 25 0.0344672  0.103206  0.158402  0.0725093  0.186999  0.0679502  0.194971  0.0278241  0.0315818  0.239006  0.0510076  0.22417  0.0647463  0.149783  
45 2 51.9396 55.5628 -16.2684 27 0.0409931  0.0809638  0.190531  0.0896038  0.17837  0.0806327  0.199371  0.0311145  0.0252995  0.30587  0.0887233  0.228429  0.0647153  0.173134  
47 3 51.3666 52.061 -12.447 22 0.0358189  0.0719441  0.242764  0.0570919  0.15016  0.0403985  0.153447  0.0174898  0.0339756  0.0958235  0.0720795  0.226573  0.0712574  0.118371  
48 3 51.1467 57.6753 -13.2879 24 0.0243889  0.0615579  0.152523  0.0570982  0.196363  0.060619  0.158437  0.00926029  0.0249002  0.0947806  0.0632567  0.356627  0.0637393  0.20748  
49 3 48.7689 55.4503 -16.6928 23 0.0227819  0.0329475  0.120137  0.0344688  0.158522  0.0633939  0.123147  0.0173834  0.0278237  0.0996868  0.0597486  0.305911  0.0748136  0.179857  
51 3 48.5959 56.1182 -13.6637 25 0.0443897  0.033509  0.177349  0.036865  0.197873  0.0593754  0.142629  0.0147244  0.0354949  0.0905864  0.0513537  0.317471  0.0636147  0.187378  
54 3 51.2655 56.9733 -16.5451 23 0.0388949  0.0435581  0.132879  0.0507669  0.204503  0.0515344  0.198726  0.0110083  0.0265253  0.103021  0.0724817  0.359762  0.0691996  0.201068  
55 3 49.446 53.5052 -12.9179 24 0.0298574  0.0669876  0.159132  0.0596182  0.114534  0.0546654  0.110709  0.0171845  0.0190865  0.0998119  0.0670795  0.254815  0.0536618  0.13871  
56 3 48.5654 58.2751 -14.9315 25 0.0249799  0.0696401  0.0757055  0.0431861  0.185408  0.0552528  0.181993  0.0154166  0.0289184  0.115952  0.0424077  0.358918  0.0468102  0.204899  
57 3 51.389 54.6382 -17.5808 25 0.0366531  0.0711095  0.122881  0.0552358  0.160942  0.0542675  0.155369  0.0101758  0.0371223  0.0968069  0.0776662  0.28536  0.0852251  0.163841  
60 3 51.3096 54.9941 -14.9111 26 0.0207731  0.0836691  0.134479  0.0505701  0.16346  0.0456249  0.148136  0.0113622  0.0292199  0.0890696  0.0760628  0.299245  0.0580724  0.166022  
61 3 48.6243 58.2689 -18.3183 24 0.0305966  0.0767717  0.0946501  0.0627482  0.187849  0.0706406  0.192206  0.0177722  0.0281475  0.116021  0.04176  0.360559  0.0498002  0.20554  
62 3 50.1986 52.8581 -16.2017 23 0.0421556  0.0593738  0.165269  0.0439048  0.112397  0.0632693  0.127061  0.0173039  0.0199085  0.0928016  0.0566781  0.250591  0.0452587  0.140513  
63 1 51.5562 52.2356 -14.5108 29 0.034076  0.0830937  0.152823  0.0585597  0.126763  0.0532263  0.117451  0.0139835  0.0251405  0.0757279  0.0547984  0.162321  0.0642176  0.143757  
66 1 52.7328 51.0191 -17.4261 25 0.0343508  0.0587352  0.249897  0.0396023  0.10198  0.0638285  0.150095  0.0218461  0.0274593  0.0895314  0.0577047  0.18481  0.0656831  0.123051  
72 2 52.7136 57.8706 -13.1082 25 0.0218342  0.0772473  0.202018  0.0817983  0.163595  0.0801052  0.239455  0.0422719  0.0280732  0.310068  0.0492461  0.297813  0.046104  0.184204  
77 3 53.4861 55.7163 -16.082 23 0.0255834  0.0285992  0.225385  0.0213974  0.171777  0.0569957  0.176862  0.0181913  0.0209154  0.101923  0.0593947  0.357372  0.0596855  0.215673  
79 3 53.3767 56.3678 -12.9796 25 0.0333138  0.0442448  0.183312  0.0275128  0.199462  0.0582833  0.187106  0.00640755  0.0169254  0.107989  0.0438417  0.361705  0.0595527  0.213282  
83 3 53.5513 53.4539 -13.9452 23 0.016465  0.0618958  0.138097  0.0613131  0.133997  0.0583364  0.128396  0.0117108  0.0280691  0.100227  0.0644689  0.237762  0.0842563  0.118277  
84 3 53.2826 58.3513 -14.5157 25 0.0204289  0.0563475  0.131903  0.043194  0.17634  0.0471505  0.219156  0.00777633  0.0172321  0.109913  0.0523406  0.383513  0.0476351  0.22307  
89 3 53.366 58.5618 -17.8898 21 0.0229576  0.104699  0.131321  0.0593408  0.164785  0.0596147  0.255646  0.0128256  0.023111  0.108249  0.0479698  0.393428  0.0612279  0.235389  
90 3 53.7099 53.0271 -17.4057 27 0.0200695  0.058368  0.1496  0.0433993  0.137123  0.0456761  0.117965  0.00732707  0.0158384  0.104069  0.0714017  0.237655  0.0655455  0.120167  
1767 3 46.6201 54.6042 -12.0685 22 0.0212928  0.073217  0.140746  0.0569868  0.140421  0.0601645  0.128946  0.0170175  0.0191045  0.0682233  0.0682001  0.247276  0.0755274  0.11577  
1773 1 49.8918 56.5746 -11.991 28 0.0292652  0.0681881  0.114303  0.0467176  0.185376  0.0446538  0.13005  0.0220976  0.0503775  0.11626  0.0611245  0.125677  0.0806289  0.175057  
1793 3 51.3866 54.6386 -11.5552 25 0.0396194  0.0806292  0.128255  0.0609566  0.164433  0.0554402  0.15481  0.0102515  0.0373881  0.0961824  0.0776529  0.284757  0.0849406  0.164244  
1797 3 48.6258 58.2614 -12.2937 24 0.0307351  0.0768622  0.0947072  0.0625273  0.187533  0.0706148  0.192741  0.0177408  0.0279009  0.115723  0.0416426  0.360763  0.0495592  0.205589  
1798 3 50.1984 52.855 -10.1761 23 0.0422926  0.0599272  0.16562  0.0438753  0.112267  0.0636606  0.128465  0.0172136  0.0200801  0.0933745  0.0570636  0.24965  0.0448776  0.140977  
1802 1 52.7304 51.0185 -11.4035 25 0.0342267  0.0586949  0.249751  0.0400579  0.102955  0.0639689  0.15127  0.0217828  0.0273975  0.0898666  0.0576696  0.184664  0.0656367  0.122962  
1825 3 53.3661 58.5584 -11.8793 21 0.0231011  0.104773  0.131631  0.0591422  0.164976  0.0604281  0.255711  0.01277  0.02313  0.107797  0.0482867  0.392668  0.0616515  0.234997  
1826 3 53.7052 53.0099 -11.377 26 0.0200817  0.0587275  0.150114  0.0433977  0.137977  0.0454575  0.119  0.00752737  0.0156125  0.103159  0.0716769  0.23688  0.0657107  0.120336  
1761 2 47.2223 55.2409 -10.7417 24 0.0224754  0.0741422  0.17847  0.0760127  0.147073  0.0662058  0.139171  0.0371326  0.0540678  0.235762  0.0718291  0.202295  0.0718148  0.132398  
42 1 47.8213 59.0333 -16.6356 26 0.0320636  0.135234  0.183958  0.0408522  0.190197  0.0772034  0.188486  0.0420082  0.0565798  0.100955  0.0566921  0.179715  0.0756552  0.20291  
1785 3 48.7692 55.4524 -10.671 23 0.0227896  0.0331355  0.119941  0.0347397  0.158595  0.062414  0.123527  0.0173613  0.0275445  0.0997478  0.0593916  0.305412  0.0748829  0.180386  
1790 3 51.2667 56.9735 -10.5201 23 0.0391674  0.0437016  0.131956  0.0507501  0.204598  0.0514904  0.199132  0.0108575  0.0264922  0.102446  0.0724926  0.358689  0.0694965  0.201094  
1778 1 47.818 59.0258 -10.6114 26 0.0320638  0.1352  0.183558  0.0406883  0.190179  0.0768931  0.188881  0.0422513  0.0563996  0.100867  0.0567009  0.180608  0.0750907  0.203526  
12195 2 50.4848 53.2062 -17.7479 25 0.037363  0.103481  0.212427  0.0575447  0.144442  0.0703838  0.116648  0.0389676  0.0482195  0.250457  0.0737952  0.161978  0.0753809  0.111996  
1733 3 45.2795 50.5991 -15.4385 25 0.0195848  0.0406595  0.142899  0.0440475  0.140039  0.0431689  0.121787  0.0143422  0.0239924  0.057588  0.0601411  0.16241  0.0756479  0.106808  
70 1 52.6999 59.2969 -16.1997 28 0.0164072  0.16295  0.171133  0.0550011  0.175789  0.0837758  0.217725  0.0528016  0.0307212  0.0729347  0.0340482  0.24602  0.0448083  0.279109  
1806 1 52.6864 59.2876 -10.1932 28 0.0221443  0.153707  0.16368  0.0579718  0.184371  0.0798657  0.210099  0.0530294  0.0310984  0.0723979  0.0345241  0.246281  0.0445988  0.280597  
1766 3 46.4082 56.63 -10.4966 26 0.0178764  0.0312876  0.15478  0.0431414  0.184613  0.0485182  0.182711  0.0150332  0.0391836  0.085422  0.0994633  0.300637  0.110421  0.155192  
12156 3 48.845 51.055 -17.7025 21 0.0097999  0.0376719  0.219637  0.0427312  0.134637  0.0559837  0.144342  0.0206109  0.0246714  0.10069  0.0736096  0.237114  0.0670226  0.146037  
10919 3 70.4951 72.7402 23.1664 25 0.0344743  0.0512853  0.250098  0.0405495  0.184223  0.0493639  0.249594  0.0195025  0.0261971  0.086065  0.0586681  0.370338  0.0650043  0.252433  
10915 2 68.9598 72.9433 23.137 24 0.0397713  0.0939375  0.302812  0.0641397  0.209608  0.0704337  0.277335  0.0491505  0.0224475  0.282594  0.0425242  0.326969  0.0351155  0.155607  
5 2 54.3446 50.5386 -15.2792 25 0.0476696  0.0853914  0.185392  0.0847312  0.105303  0.0935049  0.138745  0.0385831  0.0681167  0.28509  0.0641486  0.168416  0.0774987  0.182333  
8 2 59.2745 50.4612 -15.5523 25 0.0387906  0.0714615  0.240799  0.0705282  0.128423  0.0638298  0.216818  0.0747036  0.113022  0.302608  0.0661422  0.29433  0.071343  0.253142  
9 3 57.7653 50.7057 -15.6162 23 0.0305321  0.0652726  0.215013  0.0444859  0.105856  0.0780096  0.181067  0.0177808  0.0301131  0.156789  0.0571607  0.21799  0.0711577  0.188192  
10 3 58.0508 51.1463 -12.6806 24 0.0388096  0.0372922  0.20841  0.0310582  0.16467  0.0419977  0.173022  0.0197876  0.0224762  0.141653  0.0560363  0.222335  0.073281  0.169007  
12 3 62.4254 50.9265 -14.8553 25 0.0179409  0.0211369  0.13126  0.0243266  0.136299  0.0304583  0.191124  0.0216915  0.0183987  0.141881  0.0424662  0.344738  0.0563988  0.258864  
64 1 54.7216 56.8345 -14.5 28 0.0434847  0.0138278  0.298139  0.0422852  0.192378  0.0416544  0.249925  0.0292522  0.00786851  0.0715299  0.0311415  0.24443  0.0531935  0.275738  
65 1 54.695 56.8974 -17.4585 27 0.0313223  0.0793258  0.227276  0.0477659  0.180521  0.0517381  0.280872  0.0271134  0.031245  0.0736934  0.0481644  0.202597  0.0645096  0.257294  
67 1 56.9225 54.6254 -12.9422 26 0.031914  0.106483  0.115109  0.0589474  0.189376  0.0898881  0.222763  0.0350166  0.0304133  0.0587266  0.0345852  0.271298  0.0781588  0.231169  
69 1 54.5474 53.8774 -15.7694 27 0.048051  0.125552  0.115523  0.055385  0.162109  0.0891547  0.166262  0.0268226  0.036353  0.0611335  0.0505092  0.172274  0.0739541  0.162756  
71 2 54.3048 52.6679 -12.8008 24 0.021352  0.0608624  0.230368  0.0636676  0.156554  0.0820041  0.139376  0.041717  0.0597977  0.291468  0.0682237  0.184056  0.0732653  0.150002  
73 2 56.7315 55.7951 -15.9622 24 0.0314365  0.0639366  0.290727  0.0568399  0.175618  0.0620482  0.280562  0.039383  0.0279414  0.331749  0.0738581  0.298101  0.0596075  0.209085  
75 3 55.8729 52.7231 -12.709 21 0.0319856  0.0442223  0.186987  0.0697503  0.165012  0.0446718  0.151633  0.017278  0.0286178  0.12165  0.0755888  0.21542  0.0819863  0.143952  
76 3 55.8441 57.6868 -12.9472 23 0.0286994  0.0647707  0.232551  0.0355088  0.169309  0.0344689  0.253606  0.0204203  0.0174601  0.0952287  0.0403979  0.396232  0.0433154  0.266497  
81 3 55.3485 51.804 -15.4587 25 0.030608  0.055371  0.165586  0.0396723  0.118338  0.0479686  0.125381  0.013535  0.0295757  0.115178  0.104453  0.201444  0.0806571  0.130342  
82 3 56.0407 57.2515 -15.9348 26 0.0317434  0.0540029  0.196875  0.034592  0.186751  0.0339247  0.277002  0.00978103  0.0243233  0.111718  0.0736062  0.391835  0.0715961  0.248092  
85 3 56.0651 55.1517 -17.2501 25 0.0340955  0.0650477  0.173329  0.0468604  0.202065  0.0557951  0.235064  0.0115361  0.0230104  0.107717  0.0464009  0.331544  0.0574551  0.192874  
88 3 56.016 55.018 -14.7304 24 0.0267586  0.0792515  0.180412  0.0560811  0.165889  0.0535065  0.213744  0.0110141  0.023225  0.113313  0.0515258  0.328875  0.0584025  0.200476  
91 1 56.9334 51.856 -14.2098 24 0.0218995  0.0321098  0.199168  0.0594082  0.151009  0.0491235  0.148822  0.027839  0.0252095  0.0873324  0.0593359  0.169834  0.0802488  0.163013  
92 1 59.3832 57.0419 -14.4222 28 0.0274219  0.0493092  0.237677  0.0322204  0.162376  0.0412779  0.22011  0.0314829  0.0129523  0.0895191  0.026867  0.227542  0.0474897  0.302726  
93 1 59.451 56.815 -17.3577 27 0.053954  0.0643165  0.241129  0.0459753  0.193437  0.0656999  0.285668  0.0279012  0.0230231  0.0839374  0.0236447  0.258922  0.0438513  0.302625  
94 1 56.755 51.7941 -17.0176 25 0.0403709  0.0742832  0.188043  0.0699322  0.14494  0.0583184  0.165775  0.033194  0.0462886  0.127116  0.067593  0.19919  0.0939823  0.182784  
95 1 61.6575 54.7011 -12.7841 25 0.0226524  0.0844199  0.144341  0.0464798  0.149127  0.0612244  0.171299  0.0377985  0.0191017  0.0872591  0.056055  0.147757  0.0484397  0.263109  
97 1 59.2036 53.9654 -15.5507 26 0.0315859  0.117018  0.151742  0.0422672  0.1529  0.073985  0.183929  0.0533116  0.0534776  0.0648362  0.0509644  0.252778  0.0721435  0.251529  
99 2 58.862 52.528 -12.4753 25 0.0380332  0.051585  0.266375  0.0821819  0.167337  0.0965673  0.19433  0.0564667  0.0906173  0.294258  0.0529285  0.283888  0.0776933  0.209796  
100 2 57.3954 57.8262 -12.8295 25 0.0213487  0.0886969  0.291771  0.0808751  0.189861  0.0548353  0.294599  0.0475131  0.0146953  0.328141  0.0339701  0.331479  0.0289462  0.206181  
101 2 61.5317 55.6772 -15.8957 25 0.0309666  0.0502883  0.224632  0.0574569  0.183788  0.0794736  0.193999  0.0453528  0.0357668  0.321764  0.0326742  0.322277  0.0317129  0.212659  
103 3 60.431 52.2629 -12.4774 25 0.0260687  0.0641657  0.169167  0.050565  0.142582  0.0641997  0.181131  0.0272909  0.0312486  0.129904  0.048879  0.309721  0.0749397  0.239596  
104 3 60.6213 57.5551 -12.8449 23 0.0267422  0.067369  0.227062  0.0405146  0.159031  0.0404965  0.222092  0.0148737  0.00962895  0.103868  0.0278107  0.371202  0.0318512  0.247241  
105 3 58.2921 55.8288 -15.8231 23 0.0204255  0.0388615  0.213559  0.0347804  0.163563  0.0392627  0.230749  0.0150605  0.0148422  0.100362  0.038276  0.363508  0.0539732  0.25223  
107 3 58.0685 56.2988 -12.8923 26 0.0279238  0.0251682  0.239501  0.0310835  0.186185  0.02962  0.240111  0.0077343  0.0182275  0.103984  0.0475799  0.370907  0.0684202  0.246983  
109 3 59.9892 51.8979 -15.3369 26 0.0286632  0.0549606  0.13623  0.0262432  0.185618  0.0645032  0.176343  0.0180298  0.0387147  0.122283  0.0709844  0.32065  0.068501  0.229984  
110 3 60.8262 57.0895 -15.7616 27 0.0355884  0.0500449  0.192355  0.0443943  0.185219  0.0402854  0.236544  0.0102455  0.0115192  0.109323  0.0725435  0.369911  0.0630728  0.235646  
111 3 58.3929 53.4065 -13.7325 24 0.0222849  0.0697381  0.135333  0.0567889  0.147933  0.06571  0.182687  0.0125731  0.0323787  0.106703  0.0600063  0.293297  0.0654665  0.20326  
112 3 58.066 58.4933 -14.1024 24 0.0229727  0.0863946  0.161172  0.0510971  0.18158  0.0544296  0.266479  0.0105494  0.0189898  0.108424  0.027867  0.397477  0.0391195  0.254918  
113 3 60.7764 55.052 -17.1617 28 0.0268826  0.060105  0.136675  0.0522155  0.184069  0.0564818  0.197285  0.00680599  0.0237679  0.0978111  0.0449863  0.326056  0.0768412  0.208184  
116 3 61.0725 54.6329 -14.6942 25 0.0201698  0.0630415  0.168088  0.0465972  0.13055  0.0464082  0.171054  0.00968315  0.0194648  0.104685  0.0353198  0.331722  0.0604122  0.210991  
117 3 58.0772 58.3496 -17.5336 25 0.0258185  0.0989767  0.14938  0.0425392  0.192873  0.0411951  0.26385  0.00696912  0.0213403  0.108326  0.0319609  0.398112  0.0408201  0.249774  
118 3 58.292 53.1608 -17.1564 25 0.0267905  0.0688337  0.123275  0.0386968  0.190709  0.0595527  0.191788  0.0107675  0.0300907  0.103606  0.0791025  0.297328  0.0658306  0.19603  
119 1 61.4456 52.5753 -14.2097 26 0.0132144  0.0545575  0.141993  0.05706  0.139138  0.059595  0.177712  0.0234859  0.0666711  0.106994  0.0660318  0.161937  0.0911216  0.215858  
122 1 61.3879 51.5754 -16.6738 30 0.0125015  0.0374047  0.124128  0.0355775  0.13898  0.0476287  0.17151  0.0436419  0.0442132  0.158724  0.0678067  0.172794  0.0827113  0.207359  
126 1 61.9059 59.0935 -15.9038 28 0.0425209  0.127998  0.158678  0.0659142  0.186334  0.0889307  0.206719  0.0401312  0.00833291  0.0587839  0.0241465  0.256732  0.0303926  0.299885  
128 2 62.1744 57.7601 -12.8361 25 0.0271305  0.0811247  0.265099  0.0615195  0.198867  0.086584  0.246017  0.0463661  0.0139099  0.326194  0.0234764  0.333639  0.0331906  0.210554  
135 3 62.8241 56.2317 -12.9177 25 0.0288001  0.0367881  0.15885  0.0508412  0.177417  0.0357398  0.180334  0.00643322  0.0332855  0.0958174  0.0484066  0.350527  0.0744437  0.227914  
140 3 62.7818 58.503 -14.0702 23 0.0112393  0.0661075  0.124209  0.0396139  0.162875  0.0352523  0.210415  0.00921212  0.0218038  0.113651  0.0303507  0.377779  0.0473003  0.226896  
145 3 62.876 58.2848 -17.5334 25 0.0214122  0.083917  0.111794  0.0376302  0.190723  0.0358186  0.23737  0.00948692  0.0230166  0.115038  0.032138  0.379683  0.048672  0.220894  
1801 1 54.7032 56.8931 -11.4367 25 0.0314057  0.0795521  0.227498  0.0482039  0.180005  0.0505354  0.280174  0.0271936  0.0316584  0.0738799  0.0484926  0.202361  0.0648546  0.258201  
1821 3 56.0643 55.136 -11.2159 25 0.0366456  0.0649773  0.151987  0.0509111  0.20336  0.0552215  0.22696  0.0117309  0.0229987  0.10759  0.0466356  0.330974  0.0582193  0.192375  
1829 1 59.448 56.8093 -11.3359 27 0.054159  0.0640903  0.242726  0.0458785  0.192032  0.0672922  0.283202  0.0277579  0.0229194  0.0833487  0.0235763  0.258034  0.0437861  0.302946  
1830 1 56.7519 51.7882 -10.9918 26 0.0403764  0.0750277  0.188514  0.069364  0.145261  0.0589987  0.165842  0.03311  0.0459918  0.126707  0.0670975  0.199202  0.0944489  0.182156  
1849 3 60.773 55.0281 -11.1304 28 0.0274691  0.0605415  0.138293  0.0530688  0.1823  0.0580951  0.195763  0.0068839  0.023597  0.0983642  0.0452082  0.327268  0.0777349  0.208343  
1853 3 58.0832 58.3485 -11.5146 24 0.025631  0.0989719  0.149869  0.0424578  0.192571  0.0414374  0.263805  0.00655244  0.0215513  0.108346  0.0310362  0.39853  0.0399763  0.249957  
1854 3 58.2914 53.1412 -11.1348 24 0.0266976  0.068881  0.12342  0.038314  0.190984  0.0589755  0.191339  0.0106904  0.029966  0.103447  0.0783479  0.29738  0.0657292  0.196309  
1858 1 61.4003 51.5634 -10.6473 30 0.0129077  0.0368726  0.124167  0.0347545  0.138099  0.046939  0.169972  0.0432893  0.0444348  0.157757  0.0677527  0.172647  0.0825149  0.20791  
1881 3 62.8901 58.2871 -11.5052 25 0.0214897  0.083572  0.111679  0.0379028  0.189285  0.0357554  0.235146  0.00972477  0.0230059  0.114764  0.0336383  0.378247  0.0490551  0.22032  
13 3 62.7667 50.9004 -11.9059 22 0.030915  0.0435825  0.09613  0.0441414  0.16557  0.0478723  0.201012  0.0175269  0.0162658  0.145031  0.0808366  0.352682  0.0736731  0.260627  
133 3 63.0878 55.7802 -15.9035 24 0.0188726  0.0482204  0.140218  0.0422976  0.160834  0.0606312  0.193673  0.0174972  0.0257773  0.0928497  0.0504918  0.344872  0.0651888  0.230697  
139 3 63.0601 53.2499 -13.1641 25 0.0133926  0.0496115  0.0834331  0.0629153  0.144606  0.0519619  0.16396  0.00732382  0.0217783  0.119437  0.0338251  0.327834  0.0607463  0.225621  
146 3 62.9719 53.0119 -16.5802 25 0.0196368  0.041364  0.0569127  0.0529063  0.15277  0.0497344  0.165622  0.00788726  0.0234024  0.118185  0.045957  0.328041  0.0633317  0.225115  
1882 3 62.9795 53.0124 -10.5649 25 0.019546  0.0411144  0.0565769  0.0525686  0.152283  0.0514219  0.163618  0.0081171  0.0229553  0.119565  0.0467832  0.328976  0.0629511  0.225641  
12165 3 62.762 50.8954 -17.9218 22 0.0308351  0.0444477  0.0979868  0.0439605  0.164361  0.0475632  0.20132  0.0174472  0.0163262  0.144135  0.0805085  0.35168  0.0736915  0.25939  
98 1 57.1968 59.1497 -15.8877 27 0.038929  0.135391  0.135492  0.0626478  0.194266  0.0780069  0.26116  0.039442  0.015255  0.0587773  0.0327439  0.308908  0.0483987  0.310195  
11 2 63.8957 50.5878 -14.8758 26 0.0393336  0.0399529  0.154004  0.0814356  0.164686  0.0658105  0.206818  0.0717539  0.0407628  0.301086  0.0347944  0.33189  0.0528891  0.262125  
14 2 68.8275 50.6683 -14.94 26 0.0341773  0.0446464  0.173467  0.0412042  0.197182  0.0612137  0.187315  0.0704014  0.0603802  0.303583  0.0659874  0.347422  0.0643219  0.243023  
15 3 67.3149 50.6377 -14.9627 24 0.0223992  0.0520989  0.177013  0.0455567  0.164512  0.0374455  0.200251  0.020341  0.024464  0.162971  0.0673216  0.315213  0.0728022  0.284494  
16 3 67.5213 50.7998 -11.9175 22 0.0339348  0.0537602  0.167058  0.0365584  0.193715  0.0500284  0.171346  0.0200165  0.0132831  0.156337  0.050392  0.319072  0.0435263  0.268169  
120 1 64.4596 57.832 -14.719 24 0.0276725  0.0583958  0.0885253  0.0487697  0.177173  0.0481493  0.216976  0.0334982  0.0284723  0.130023  0.0334972  0.132626  0.0786043  0.292714  
121 1 64.2167 56.6564 -17.4961 28 0.0256098  0.0556911  0.15735  0.0495987  0.199827  0.0462773  0.214249  0.0326177  0.0127502  0.114521  0.0393142  0.160614  0.0520492  0.270999  
123 1 66.3753 54.5749 -12.9429 25 0.0303633  0.0724671  0.0784892  0.0619904  0.152735  0.0543792  0.191147  0.0461072  0.0290692  0.155418  0.0713239  0.216798  0.0682931  0.258192  
125 1 63.7388 54.1358 -14.8994 25 0.017409  0.0681273  0.0919092  0.0575906  0.137045  0.0559267  0.155809  0.0515791  0.0269923  0.112846  0.0510701  0.150695  0.0666948  0.26676  
127 2 63.5294 52.3535 -11.9262 25 0.0334325  0.100785  0.176837  0.0906468  0.186705  0.0679764  0.208217  0.0583237  0.043381  0.28729  0.0371118  0.316245  0.058862  0.224398  
129 2 66.2678 55.66 -15.9853 23 0.0307759  0.0167176  0.179014  0.0325418  0.189121  0.0722655  0.208626  0.049864  0.0401837  0.293809  0.0340318  0.321086  0.0391297  0.189561  
131 3 65.0739 52.1152 -11.8731 25 0.0059378  0.0399524  0.152872  0.0744031  0.164675  0.0523972  0.196584  0.0164571  0.0330098  0.148445  0.0461958  0.328033  0.0598747  0.27401  
132 3 65.4091 57.527 -12.9438 23 0.0199757  0.0409938  0.150002  0.0485983  0.186145  0.0368606  0.218156  0.0152722  0.0168786  0.0983415  0.0541879  0.369143  0.0577525  0.234253  
137 3 64.8321 51.8438 -14.8541 25 0.0319319  0.060839  0.125526  0.0480095  0.177859  0.0549906  0.173801  0.0118633  0.0364259  0.134476  0.0584092  0.35318  0.0703412  0.259453  
138 3 65.6466 57.0928 -16.041 24 0.0315931  0.0563735  0.101267  0.0404272  0.198254  0.0428834  0.215482  0.0105852  0.0193276  0.105611  0.0938224  0.367789  0.0827477  0.223788  
141 3 65.5822 54.8818 -17.2342 24 0.0177243  0.0444782  0.0979566  0.048925  0.172014  0.0335206  0.178271  0.00986054  0.0277071  0.104335  0.0409248  0.347332  0.0511072  0.224192  
144 3 65.6997 54.6801 -14.79 23 0.0212634  0.0631755  0.105278  0.0358173  0.177849  0.044802  0.183146  0.0115831  0.0261207  0.106913  0.039849  0.352786  0.0467724  0.223457  
147 1 66.1338 51.242 -13.3799 27 0.0217716  0.0470528  0.180799  0.051857  0.160529  0.0469981  0.210365  0.0292143  0.0388852  0.161665  0.0484002  0.172053  0.0506031  0.194102  
148 1 69.3901 57.9677 -14.5311 22 0.0243759  0.0562  0.069267  0.040658  0.189252  0.0412512  0.198189  0.0282702  0.0419991  0.110414  0.0464953  0.173125  0.0741858  0.277303  
149 1 68.9537 56.6422 -17.3727 26 0.0262763  0.0626697  0.131261  0.047276  0.192701  0.0579187  0.18985  0.0407585  0.0431941  0.138041  0.0697587  0.183696  0.0675478  0.27152  
150 1 65.8084 52.9576 -16.1767 25 0.0309837  0.0811591  0.0552534  0.0351624  0.193463  0.0622865  0.196862  0.0378971  0.0456544  0.138573  0.0530988  0.185775  0.0574948  0.23667  
151 1 71.2542 54.8114 -12.8807 26 0.0255686  0.0606269  0.121617  0.0730288  0.166018  0.0547135  0.18409  0.0475266  0.0302249  0.172644  0.0533273  0.242329  0.0796272  0.267634  
153 1 68.4916 53.9633 -14.8784 25 0.021105  0.0540512  0.0996028  0.0572068  0.18662  0.0487624  0.180449  0.046368  0.0442638  0.148385  0.0666885  0.209999  0.0584474  0.257775  
155 2 68.1668 52.2638 -11.8983 25 0.0161168  0.149942  0.183984  0.0810509  0.199016  0.0850578  0.204493  0.0614321  0.0300511  0.289688  0.0476006  0.337351  0.0448164  0.220218  
156 2 66.9761 57.6541 -12.9288 26 0.0171885  0.0797668  0.138044  0.0632657  0.203769  0.0589549  0.229127  0.0463709  0.0171685  0.314596  0.0233155  0.328395  0.0417391  0.196548  
157 2 71.0175 55.6767 -15.8276 25 0.029794  0.0207901  0.201495  0.0511702  0.174065  0.0641912  0.206527  0.0478154  0.0445369  0.281013  0.0367353  0.314946  0.0472857  0.167113  
159 3 69.7563 52.1137 -11.9422 24 0.0174868  0.0377435  0.121055  0.051906  0.193488  0.0485286  0.155477  0.0180744  0.0225414  0.141857  0.0563468  0.343042  0.0429476  0.275834  
160 3 70.221 57.5972 -12.7499 24 0.0228442  0.0489671  0.14875  0.0475021  0.189163  0.0308307  0.200627  0.0189408  0.0188249  0.0869112  0.0570087  0.375496  0.0612438  0.240862  
161 3 67.8258 55.6712 -15.8956 25 0.020473  0.0410705  0.112425  0.0392496  0.177453  0.0595629  0.18744  0.0160905  0.0262933  0.0865112  0.0644283  0.366004  0.0636269  0.244911  
163 3 67.5901 56.1384 -12.8147 24 0.0262255  0.0251546  0.140893  0.0399612  0.198335  0.0263196  0.17745  0.00715097  0.0402684  0.0909502  0.0542607  0.368227  0.075201  0.238212  
165 3 69.5894 52.0147 -14.9789 24 0.032051  0.0622105  0.112491  0.0383462  0.210432  0.0611178  0.146761  0.0178212  0.0233472  0.136964  0.0583225  0.348567  0.0541242  0.26521  
166 3 70.3915 57.1018 -15.8914 27 0.0331681  0.0803586  0.132931  0.0336637  0.194253  0.0430237  0.20506  0.00978169  0.0261264  0.10651  0.0912056  0.376964  0.0801737  0.226756  
167 3 67.6295 53.0284 -13.1964 23 0.0283393  0.0578363  0.0849841  0.0473886  0.18105  0.0338218  0.181062  0.00960735  0.0242743  0.134751  0.0476241  0.340446  0.0515395  0.250687  
168 3 67.5357 58.2774 -14.2578 22 0.0127407  0.056162  0.10141  0.0414392  0.188057  0.0474526  0.1995  0.0106638  0.0201908  0.108725  0.0539256  0.378311  0.0509721  0.219424  
169 3 70.4514 54.8855 -17.1314 24 0.0185132  0.0399663  0.117022  0.0474432  0.175398  0.0437721  0.185753  0.0127786  0.0251586  0.115184  0.0350871  0.36688  0.0474851  0.238772  
172 3 70.4353 54.7325 -14.6477 23 0.0128397  0.0628477  0.0853617  0.0576961  0.181501  0.0530351  0.175707  0.0126936  0.0234201  0.111767  0.034178  0.364338  0.0445026  0.232998  
173 3 67.7242 58.3857 -17.698 24 0.0292331  0.0754517  0.0771081  0.0560737  0.205976  0.0421716  0.221164  0.012923  0.0266672  0.108877  0.0415103  0.381629  0.0614121  0.219626  
174 3 67.7346 53.0011 -16.6144 25 0.0161413  0.0648123  0.0632033  0.0417514  0.183141  0.0425653  0.197833  0.00763423  0.0277873  0.13928  0.0361622  0.340529  0.0354759  0.254291  
175 1 70.9718 51.7082 -13.5549 27 0.027612  0.0507079  0.112402  0.0643703  0.174821  0.0517081  0.152209  0.0430202  0.0644994  0.149189  0.0611849  0.203238  0.104269  0.227421  
178 1 70.622 52.9764 -16.3681 24 0.0169079  0.063583  0.0536132  0.0499038  0.184611  0.0409728  0.144034  0.0347812  0.0334356  0.194273  0.0401136  0.229039  0.0396965  0.243094  