ITEM: TIMESTEP
9000
ITEM: NUMBER OF ATOMS
389
ITEM: BOX BOUNDS pp pp pp
-14.54184 24.2364
80.0 135.0
35.0 90.0
ITEM: ATOMS id type x y z coord q2 q3 q4 q5 q6 q7 q8 q2_mono q3_mono q4_mono q5_mono q6_mono q7_mono q8_mono
8810 3 19.2267 105.314 59.3962 24.0 0.0242118 0.0663082 0.143337 0.0721075 0.125058 0.0436549 0.20846 0.0108562 0.0120924 0.154952 0.0460176 0.330917 0.0496243 0.195399
10148 3 24.0662 101.164 58.8937 23.0 0.0214098 0.0393853 0.19094 0.0520447 0.126337 0.0516991 0.177773 0.0151782 0.0350966 0.187467 0.0396887 0.317936 0.0612007 0.191007
6046 3 9.63761 107.471 58.2149 24.0 0.0285069 0.0600675 0.252554 0.032042 0.170716 0.0369481 0.228401 0.0130607 0.0252 0.106538 0.0622349 0.346824 0.0756088 0.19625
8945 3 16.466 104.065 60.3089 22.0 0.0192744 0.0595872 0.106355 0.0705692 0.135735 0.0685054 0.204023 0.00660498 0.0239133 0.178345 0.0727831 0.320927 0.0789039 0.192609
10166 1 21.9589 102.21 54.1418 27.0 0.0200338 0.0522024 0.244249 0.0403423 0.151167 0.0525764 0.21875 0.0385819 0.0394036 0.155044 0.0384065 0.276357 0.0767684 0.291017
10165 3 23.7354 98.8179 56.8142 25.0 0.037159 0.0657398 0.141058 0.0508286 0.176944 0.0405042 0.178162 0.00947817 0.0163066 0.158306 0.0625422 0.374685 0.0522906 0.238667
4496 3 4.22855 96.0128 52.6908 22.0 0.0231512 0.0487222 0.225175 0.0271325 0.162723 0.0406458 0.239032 0.0229623 0.0144397 0.115221 0.0249107 0.387751 0.0292443 0.257687
391 1 -10.0668 104.084 52.6673 26.0 0.0391113 0.140487 0.125238 0.0801313 0.14558 0.0692216 0.2372 0.0422139 0.0221939 0.0981913 0.0519474 0.28455 0.0574756 0.291471
392 2 -13.1207 106.193 52.2149 24.0 0.0390813 0.0703303 0.218073 0.0613918 0.171775 0.0457807 0.249627 0.0469727 0.0160637 0.304115 0.0308806 0.335847 0.0372451 0.202095
393 3 -11.543 106.498 52.2004 22.0 0.0334561 0.0435666 0.210542 0.0256682 0.176673 0.0337024 0.216373 0.0280249 0.0308292 0.113701 0.0576749 0.360906 0.0470634 0.260917
394 3 -13.478 102.649 52.5996 27.0 0.0298863 0.0443283 0.197102 0.0457947 0.16438 0.0414698 0.22907 0.0136988 0.0179511 0.137468 0.0440424 0.373364 0.0725734 0.233135
1768 1 -5.08591 104.09 52.5655 25.0 0.0239172 0.123253 0.141151 0.0567392 0.16022 0.0691052 0.23568 0.043208 0.0284945 0.0975927 0.049672 0.276954 0.0647637 0.292324
1769 2 -8.27517 106.285 52.2464 25.0 0.0379367 0.0954522 0.242441 0.0610138 0.182294 0.0677103 0.235336 0.0457868 0.0229498 0.306287 0.0338602 0.337101 0.0458693 0.204188
1770 3 -6.75371 106.567 52.1972 24.0 0.0319609 0.0528155 0.203225 0.016179 0.148716 0.0419091 0.182957 0.0284451 0.0267287 0.107845 0.060716 0.338444 0.053166 0.246031
1771 3 -8.54053 102.624 52.7636 24.0 0.0277601 0.0442323 0.184771 0.0539437 0.176251 0.0372334 0.21657 0.0123124 0.0221884 0.103521 0.0489084 0.337238 0.0818663 0.213032
1772 3 -8.79517 105.53 50.9657 24.0 0.0384717 0.0979195 0.152604 0.0402147 0.182954 0.0445548 0.238573 0.015925 0.0161123 0.111787 0.0528872 0.369812 0.0496636 0.246918
397 3 -13.6658 105.447 53.4493 24.0 0.0259963 0.0881614 0.194026 0.0680228 0.167596 0.0334665 0.216252 0.0133746 0.0258079 0.121165 0.0414428 0.328637 0.0600861 0.226429
3145 1 -0.305439 104.175 52.5155 26.0 0.0193599 0.124788 0.156805 0.0483392 0.121634 0.0671244 0.245291 0.0392731 0.0240068 0.112138 0.0415143 0.286768 0.0503369 0.288192
3147 3 -1.80901 106.402 52.1502 23.0 0.0249567 0.0473449 0.20581 0.027147 0.147997 0.0466838 0.221717 0.0225837 0.0242433 0.120401 0.0598045 0.360664 0.0480576 0.246852
3148 3 -3.80595 102.536 52.5681 26.0 0.0295083 0.0475111 0.179808 0.0550832 0.184118 0.0408122 0.235025 0.0118305 0.0221383 0.10707 0.047706 0.357832 0.0726072 0.225621
4523 2 1.50977 106.366 52.164 24.0 0.0454039 0.12523 0.254222 0.067129 0.199414 0.0844035 0.241465 0.0496344 0.021646 0.291998 0.0313414 0.336708 0.0424927 0.190414
4524 3 3.04952 106.416 52.2925 23.0 0.0353794 0.0504131 0.207016 0.0311775 0.150082 0.0496313 0.225591 0.0251567 0.0271511 0.116682 0.0592543 0.346037 0.0456326 0.245787
4525 3 0.99313 102.607 52.5585 27.0 0.0210578 0.0294257 0.208459 0.0523296 0.153502 0.0361998 0.235192 0.0114298 0.0215231 0.118696 0.0423017 0.353094 0.0726049 0.219671
4526 3 0.966662 105.606 50.8824 24.0 0.0332869 0.106643 0.130408 0.0369741 0.181799 0.0491396 0.249564 0.0133452 0.0197703 0.123067 0.047711 0.383823 0.0581853 0.239974
7423 3 14.4036 107.415 58.3361 25.0 0.031435 0.0432286 0.196319 0.0378557 0.19388 0.046115 0.232459 0.0116045 0.0239009 0.108268 0.0565116 0.350417 0.084812 0.200536
5885 1 6.79753 104.753 49.1226 26.0 0.0428857 0.116174 0.118315 0.0659774 0.175472 0.0692925 0.242895 0.0412812 0.0144942 0.0883118 0.0157456 0.312646 0.0340443 0.312916
5898 1 9.07137 106.832 50.5991 28.0 0.0433336 0.0779116 0.213991 0.0240775 0.154569 0.0531041 0.23188 0.0331747 0.0291892 0.0855207 0.0456141 0.275188 0.0493044 0.295781
5899 1 9.23423 103.914 52.6952 27.0 0.0286336 0.118294 0.1473 0.0524483 0.150322 0.0695644 0.231855 0.0370689 0.0318473 0.119156 0.040204 0.262037 0.0562011 0.30131
5901 3 7.88103 106.332 52.2317 22.0 0.0291735 0.048272 0.210962 0.0283747 0.153073 0.0387249 0.212541 0.0225052 0.0237514 0.103336 0.0486388 0.347381 0.0433991 0.244518
5902 3 6.00464 102.572 52.7705 26.0 0.025774 0.0388588 0.174042 0.0477946 0.167219 0.0453153 0.233237 0.0192219 0.0158477 0.11586 0.0448665 0.33806 0.0670693 0.205992
7277 2 11.2054 106.068 52.1695 25.0 0.0305734 0.0967749 0.24094 0.0828702 0.17162 0.0457864 0.240753 0.044985 0.0178333 0.301081 0.031941 0.341818 0.0366789 0.198226
7278 3 12.7572 106.242 52.3304 23.0 0.0251732 0.0509963 0.21912 0.0306892 0.151664 0.0466975 0.234875 0.0262487 0.0241872 0.102885 0.0569452 0.3556 0.052802 0.254484
7279 3 10.7012 102.434 52.6377 27.0 0.0246899 0.0396714 0.191629 0.0525186 0.166686 0.0321364 0.233248 0.0135515 0.0183109 0.11232 0.0555011 0.354331 0.0777411 0.222499
7280 3 10.6448 105.462 50.815 24.0 0.0347632 0.0950665 0.129206 0.0492691 0.170374 0.049904 0.226836 0.00942544 0.0161839 0.113845 0.0511183 0.374896 0.0547187 0.239053
8655 3 17.5323 106.257 52.3472 23.0 0.0198358 0.0620023 0.201651 0.0388447 0.149364 0.0390505 0.228735 0.0232048 0.0218548 0.105331 0.0511885 0.358582 0.0390188 0.251555
8656 3 15.7135 102.609 52.6439 25.0 0.0329664 0.034858 0.164849 0.0584687 0.172338 0.0308943 0.240221 0.0196961 0.0163119 0.123554 0.0440318 0.351992 0.0705695 0.216847
10032 3 22.359 106.328 52.22 23.0 0.0163787 0.0579501 0.212314 0.0406673 0.160242 0.0350596 0.237627 0.0221213 0.0188868 0.120893 0.0524589 0.373356 0.0366068 0.255363
10035 1 23.6496 107.433 47.5624 27.0 0.02316 0.0573614 0.190336 0.0359599 0.157252 0.0484024 0.232211 0.0331214 0.0342577 0.0782962 0.0345787 0.269368 0.0654691 0.316835
510 3 -11.9203 97.2284 58.4194 24.0 0.0449684 0.0391052 0.190986 0.0278221 0.150685 0.0429116 0.220605 0.0154416 0.0188944 0.141627 0.050095 0.365269 0.0587995 0.209573
513 1 -13.5056 97.3308 57.278 29.0 0.0321804 0.0502482 0.160858 0.0480186 0.138221 0.0444728 0.193085 0.0392925 0.0227019 0.0796762 0.0357941 0.303491 0.03801 0.294673
515 2 -11.1496 95.7856 58.5107 26.0 0.0139497 0.0474299 0.228689 0.0757003 0.140572 0.068637 0.23957 0.0458882 0.0292637 0.306915 0.0589657 0.338938 0.0497747 0.212156
518 3 -11.8455 94.9077 57.3673 24.0 0.0301716 0.0864378 0.128803 0.0526291 0.168945 0.0546084 0.244163 0.00777721 0.023949 0.132601 0.0339569 0.379785 0.0491262 0.229927
522 2 -11.0365 97.952 55.5596 27.0 0.0224289 0.0831637 0.26729 0.0527745 0.165928 0.079586 0.237412 0.0435318 0.0318233 0.303492 0.0591795 0.329979 0.0684906 0.205921
523 3 -12.5682 97.7831 55.5285 24.0 0.0305267 0.0492274 0.219937 0.0346881 0.150651 0.055862 0.21127 0.023624 0.00976162 0.128796 0.0428835 0.379618 0.0386276 0.250967
674 3 -11.6139 97.9192 61.6748 23.0 0.0227402 0.0492536 0.215377 0.041433 0.146484 0.0502105 0.243384 0.014101 0.0222334 0.114967 0.0296983 0.363897 0.0542876 0.219706
1883 3 -9.46633 93.488 57.0058 24.0 0.0289147 0.0585605 0.167486 0.050294 0.164343 0.0619876 0.247027 0.0135858 0.0178946 0.131515 0.046017 0.386237 0.0509174 0.225517
1887 3 -7.03404 97.19 58.3344 23.0 0.0396356 0.0539704 0.2092 0.0385646 0.13241 0.0411881 0.232102 0.0113351 0.0224794 0.140645 0.0460017 0.361962 0.0614548 0.205017
1890 1 -8.63492 96.5293 56.9154 29.0 0.031991 0.0458302 0.195611 0.054832 0.159208 0.0528303 0.246118 0.0387677 0.0362972 0.0742495 0.0366103 0.301442 0.046305 0.303236
1893 3 -9.58585 95.8495 58.4967 24.0 0.0241111 0.0535125 0.232201 0.0333419 0.147941 0.057677 0.22281 0.0186341 0.0134841 0.125467 0.0212356 0.368046 0.0448656 0.217955
1900 3 -7.80673 97.7796 55.5698 24.0 0.031126 0.060671 0.226146 0.0430868 0.155425 0.060036 0.248707 0.0210217 0.0116986 0.117287 0.0429464 0.372904 0.0393001 0.240074
516 3 -14.4503 96.044 58.5121 24.0 0.022481 0.0460719 0.224576 0.0306932 0.166561 0.0424458 0.226965 0.0178737 0.0181758 0.125634 0.0402512 0.38589 0.0570246 0.234094
3270 3 -4.74269 95.8634 58.577 24.0 0.0211733 0.0563303 0.20927 0.0342468 0.14259 0.0472712 0.236408 0.0175632 0.0130146 0.117961 0.0362433 0.379587 0.0484794 0.222632
3264 3 -2.22105 97.2571 58.4164 23.0 0.0403151 0.0422488 0.212714 0.0380393 0.135344 0.0530062 0.226425 0.012809 0.019126 0.136755 0.0467641 0.373326 0.0607921 0.207371
3267 1 -4.02665 97.2321 57.3182 30.0 0.0307193 0.0371249 0.191369 0.0422072 0.11993 0.0619741 0.224934 0.0351745 0.0356516 0.0883838 0.0378594 0.292294 0.0456609 0.31026
3276 2 -1.41697 98.0219 55.7367 26.0 0.0316893 0.124719 0.237661 0.0520061 0.161473 0.0596519 0.229192 0.0439261 0.0303968 0.308391 0.0533716 0.323661 0.0661041 0.20906
3277 3 -3.00172 97.79 55.7379 23.0 0.0337134 0.0569796 0.231303 0.0359062 0.145545 0.0518563 0.227021 0.0210448 0.00908535 0.114883 0.0445824 0.379985 0.0471673 0.235999
3428 3 -1.88831 97.7032 61.6721 23.0 0.0213829 0.0357705 0.218516 0.033514 0.124194 0.0441814 0.238036 0.0145842 0.0259936 0.115006 0.0355761 0.372991 0.0638088 0.226906
4641 3 2.72866 97.2586 58.5327 22.0 0.0465318 0.0266659 0.220898 0.0393274 0.160148 0.0499119 0.241596 0.016225 0.0238256 0.141853 0.0607315 0.35117 0.0651255 0.206308
4644 1 1.00195 96.8003 56.9671 28.0 0.0273503 0.0505672 0.192757 0.0298349 0.150397 0.0368841 0.231009 0.0332136 0.0434765 0.0959967 0.032076 0.301197 0.0496344 0.306679
4647 3 0.0328318 95.9818 58.5078 24.0 0.0267918 0.0560993 0.245435 0.0365612 0.151756 0.0575335 0.232823 0.0200949 0.0167704 0.114865 0.0310107 0.384101 0.0416675 0.228975
4654 3 1.84688 97.9143 55.6315 23.0 0.0338145 0.0492163 0.239408 0.0344034 0.152713 0.0419655 0.223215 0.024528 0.00865489 0.122019 0.0553321 0.367529 0.0568403 0.242678
4807 3 0.0905697 98.3246 60.2138 27.0 0.020536 0.046978 0.180415 0.0449778 0.144249 0.0488672 0.228174 0.0141666 0.0255371 0.132189 0.0422396 0.328597 0.0643194 0.182797
6184 3 4.92131 98.4652 60.2489 25.0 0.0195177 0.048756 0.18166 0.0388743 0.142997 0.040949 0.24543 0.0127564 0.0218584 0.130153 0.0427029 0.334553 0.0563365 0.190424
6024 3 4.94925 95.9332 58.5857 24.0 0.0264873 0.0503429 0.233025 0.0306427 0.169279 0.0414866 0.240852 0.02153 0.0147344 0.123072 0.0214911 0.377214 0.0410122 0.239951
6021 1 5.91351 97.0128 57.1128 29.0 0.0273534 0.0374299 0.230296 0.0297291 0.169676 0.0275715 0.221338 0.0379186 0.0296954 0.088544 0.0352673 0.316152 0.0404452 0.311656
6031 3 6.78555 97.7715 55.5685 24.0 0.0346656 0.0478964 0.240995 0.0400676 0.156602 0.0591445 0.222565 0.0218137 0.0098974 0.126923 0.0478804 0.37021 0.0512093 0.246831
7395 3 12.365 97.2838 58.4963 21.0 0.0388964 0.0352162 0.198435 0.0370124 0.142354 0.0479096 0.244966 0.0148698 0.0224063 0.145612 0.0563755 0.369841 0.0545277 0.207366
7401 3 9.73969 95.9002 58.584 24.0 0.0268338 0.044398 0.226908 0.0332504 0.15595 0.0521056 0.248604 0.0190832 0.0149201 0.116141 0.0279686 0.384055 0.0439318 0.235124
7408 3 11.6763 97.8473 55.6875 24.0 0.025438 0.0359696 0.230472 0.0287392 0.150385 0.0388657 0.246035 0.0201141 0.0117228 0.116134 0.0415519 0.386561 0.0411729 0.247896
7559 3 12.6327 97.7858 61.5463 23.0 0.017999 0.0476914 0.233526 0.0323234 0.127171 0.0447146 0.230011 0.0175586 0.0266578 0.11973 0.0359368 0.352261 0.0560805 0.209301
8938 3 14.7288 98.3291 60.1775 26.0 0.0135474 0.0554721 0.166184 0.0463237 0.141283 0.0394699 0.219038 0.0101208 0.023863 0.141547 0.0445938 0.337313 0.0540714 0.182687
8778 3 14.532 95.8547 58.5158 23.0 0.0246909 0.0615098 0.254724 0.0306697 0.154316 0.052668 0.2265 0.0210862 0.0138172 0.127541 0.029886 0.39088 0.0400577 0.231336
8772 3 17.1908 97.3058 58.3971 23.0 0.0445413 0.0412508 0.245573 0.03225 0.146284 0.0376555 0.224616 0.0142858 0.0213902 0.15701 0.0564292 0.357361 0.0532742 0.193845
8775 1 15.6032 96.9852 57.0777 28.0 0.0325953 0.0390852 0.24308 0.0273907 0.146698 0.0437439 0.219869 0.0382319 0.0262367 0.0960636 0.0365524 0.315094 0.0375432 0.312013
8777 2 17.8815 95.8502 58.4049 25.0 0.0126802 0.08282 0.234452 0.0494696 0.151106 0.0679714 0.249702 0.0444334 0.0155376 0.291944 0.0362633 0.344998 0.0330071 0.200993
8780 3 17.0109 95.1058 57.3774 22.0 0.0267546 0.0988998 0.160683 0.0576328 0.173294 0.0574701 0.243715 0.00846655 0.0226121 0.148523 0.0254257 0.38753 0.03685 0.229217
8784 2 18.0267 98.0701 55.7394 26.0 0.0390117 0.0803771 0.281681 0.0671679 0.167437 0.0827323 0.234028 0.0432854 0.0290372 0.291449 0.0556242 0.334397 0.0676955 0.199653
8785 3 16.5152 97.8442 55.5411 23.0 0.0275166 0.0420509 0.244693 0.021965 0.167479 0.0354737 0.227826 0.0217011 0.0108429 0.1295 0.0480519 0.378838 0.0442882 0.236852
8936 3 17.4682 97.7831 61.632 23.0 0.0208871 0.050052 0.226692 0.0411128 0.134917 0.0551501 0.241838 0.0156028 0.029356 0.116472 0.0367489 0.368947 0.0637029 0.214381
10149 3 22.0792 97.3221 58.4419 22.0 0.0443388 0.0462162 0.178432 0.0437684 0.167304 0.0382125 0.23998 0.0158058 0.021426 0.157479 0.0501063 0.372821 0.053599 0.214938
10152 1 20.4305 96.7944 57.0597 28.0 0.0213438 0.0417668 0.261895 0.0305413 0.161211 0.0570189 0.231279 0.0354383 0.0378991 0.0955478 0.0345362 0.314341 0.0497489 0.307668
10155 3 19.5216 95.9021 58.477 24.0 0.0227754 0.0629949 0.245478 0.0277843 0.16134 0.0526572 0.239983 0.0228317 0.0133911 0.131546 0.0367583 0.373361 0.0394983 0.222792
10162 3 21.3819 97.7774 55.5805 25.0 0.0277957 0.0479333 0.250939 0.0202955 0.170706 0.0355105 0.23509 0.0214283 0.0119323 0.134691 0.0370291 0.379838 0.0286745 0.248048
10313 3 22.3445 97.8089 61.5918 23.0 0.0234795 0.0528422 0.221286 0.0374505 0.138265 0.0570833 0.248598 0.0133408 0.0288784 0.115133 0.0314354 0.379537 0.0551934 0.226213
3295 1 -1.15228 107.243 56.4949 25.0 0.0281885 0.0330717 0.282496 0.0453277 0.159993 0.0610571 0.245111 0.0314799 0.0317604 0.0846459 0.0609327 0.273125 0.0765736 0.247262
2053 3 -9.73196 98.3126 60.0648 24.0 0.0167528 0.0538214 0.164967 0.035663 0.144675 0.0346413 0.230553 0.0100941 0.0193891 0.13776 0.0461315 0.332747 0.054756 0.179123
3430 3 -4.72652 98.3774 60.1276 25.0 0.0207987 0.0395386 0.157218 0.0544239 0.13353 0.0362089 0.242557 0.00928256 0.0160376 0.138442 0.0389334 0.338003 0.0582984 0.180957
1774 3 -8.81998 105.436 53.4768 22.0 0.0192923 0.0958079 0.171551 0.0708341 0.142931 0.0541558 0.169246 0.0152832 0.0208919 0.0958266 0.0507939 0.298606 0.0688522 0.20481
361 3 -13.1657 100.442 53.7973 22.0 0.0244387 0.0976242 0.144393 0.0490236 0.156579 0.0589031 0.22783 0.017887 0.0143586 0.128962 0.0443979 0.385677 0.0520488 0.244122
507 1 -10.8643 99.0607 58.7264 26.0 0.0393859 0.0934152 0.0929107 0.0580482 0.15213 0.0550626 0.190786 0.0392034 0.0218979 0.118481 0.0498525 0.263284 0.0527238 0.248184
508 2 -13.2267 100.781 58.737 22.0 0.00954692 0.0642119 0.163779 0.0561789 0.137953 0.0675219 0.130593 0.0402611 0.0193367 0.314527 0.0358557 0.326395 0.0399144 0.221942
509 3 -9.87543 100.901 58.8153 24.0 0.0323345 0.0531795 0.151548 0.0602832 0.104031 0.0477174 0.199864 0.0236202 0.0455678 0.166071 0.0551267 0.329684 0.0776088 0.185634
511 3 -12.8639 100.271 57.1952 25.0 0.0244995 0.068487 0.150918 0.0684392 0.153525 0.0441367 0.166741 0.0258539 0.0188386 0.155706 0.0844841 0.337424 0.0755438 0.209527
512 3 -12.3579 99.8798 59.7036 24.0 0.0326093 0.07324 0.110769 0.0736754 0.146361 0.0552404 0.175979 0.0169544 0.0275688 0.14303 0.0365262 0.320517 0.0508089 0.175995
521 1 -14.0102 100.059 55.5338 27.0 0.0532179 0.0896353 0.145489 0.0568801 0.182147 0.0618191 0.198763 0.0420887 0.0264664 0.130875 0.0427692 0.278247 0.0706948 0.284896
524 3 -10.2655 101.562 55.681 25.0 0.0328655 0.0561693 0.167989 0.0419307 0.157597 0.0274077 0.179935 0.0210304 0.040088 0.146742 0.0605317 0.334387 0.0943879 0.200044
525 3 -10.4877 98.6377 54.2457 25.0 0.0288349 0.100465 0.160712 0.0362224 0.161613 0.0533476 0.243641 0.0109402 0.0156653 0.12199 0.0624998 0.381848 0.0660799 0.244282
526 3 -10.363 98.7418 56.7723 23.0 0.0387286 0.0718462 0.164236 0.0397534 0.172068 0.037311 0.195113 0.00913247 0.0128949 0.141474 0.0701629 0.354998 0.0599993 0.218172
527 1 -11.9034 102.124 54.3118 25.0 0.0135223 0.0646047 0.206125 0.0448728 0.172374 0.0389818 0.181241 0.0404724 0.0369263 0.129065 0.0439244 0.284216 0.0814145 0.287677
528 1 -12.5735 104.992 55.1378 25.0 0.0235141 0.137592 0.154522 0.0630514 0.118248 0.0537147 0.194118 0.039564 0.0319281 0.0981584 0.0445524 0.298663 0.0404989 0.240427
529 2 -9.90284 103.177 55.8533 25.0 0.0401728 0.0467588 0.253292 0.0711524 0.142099 0.0437925 0.176218 0.0441114 0.0215854 0.319575 0.0383641 0.326602 0.0513079 0.225165
530 3 -13.3325 103.12 55.3883 25.0 0.025084 0.0309387 0.223085 0.0325939 0.15318 0.036749 0.181572 0.0205109 0.0345489 0.129653 0.050078 0.301344 0.0648067 0.19551
531 3 -12.0297 106.833 55.1297 21.0 0.027378 0.0485493 0.241575 0.0310753 0.159974 0.0531377 0.230506 0.0158023 0.0320415 0.10238 0.0526104 0.311946 0.0548316 0.191845
532 3 -10.7751 103.8 54.6647 21.0 0.0109958 0.0822009 0.168428 0.0529296 0.136558 0.0398331 0.186802 0.0142181 0.0277626 0.108754 0.0583076 0.298562 0.0693156 0.164566
533 1 -11.195 101.259 57.3774 23.0 0.0405493 0.0580288 0.186502 0.0476325 0.114313 0.0454392 0.174033 0.0320546 0.0394995 0.0991065 0.0471962 0.269609 0.0594684 0.24798
534 3 -10.4331 103.372 57.3772 23.0 0.0473828 0.0465707 0.184315 0.0738673 0.118114 0.0675403 0.181523 0.0196683 0.0198957 0.164495 0.0420159 0.302639 0.0488045 0.167797
542 1 -11.7033 104.228 58.5822 27.0 0.0364735 0.076645 0.132697 0.0675335 0.107346 0.0621912 0.182345 0.0442223 0.0406935 0.0929347 0.0597326 0.293526 0.0829555 0.219327
543 2 -14.0052 106.131 58.2265 26.0 0.0198122 0.0540002 0.211765 0.0663071 0.114124 0.0467172 0.195375 0.0467414 0.0308454 0.328942 0.0490511 0.329912 0.0498089 0.231335
544 3 -12.3828 106.019 58.2699 25.0 0.0191357 0.0541153 0.217084 0.0347108 0.135862 0.0572435 0.189427 0.0155232 0.0224523 0.130611 0.0295198 0.309359 0.0304968 0.184008
545 3 -12.5859 102.278 58.6356 24.0 0.0430381 0.0164836 0.228233 0.0452785 0.0967413 0.0480995 0.159919 0.0109169 0.023933 0.1751 0.0367103 0.300787 0.0462084 0.181152
548 3 -10.0875 105.322 59.4173 22.0 0.0216398 0.0668042 0.121507 0.0822028 0.123439 0.0300602 0.186121 0.00797574 0.0248376 0.170793 0.0679803 0.336288 0.0699557 0.18773
672 1 -12.557 99.8949 61.7226 27.0 0.0432891 0.118614 0.0893731 0.0580933 0.163046 0.0764547 0.232523 0.0398589 0.0408419 0.0962621 0.0466295 0.25796 0.0577545 0.247466
675 3 -13.0389 101.784 61.6058 21.0 0.0377649 0.0489846 0.205284 0.0320703 0.153152 0.0606669 0.197146 0.0172109 0.034451 0.147629 0.0633688 0.32617 0.0691236 0.203083
678 1 -14.3789 103.079 59.6459 23.0 0.0428722 0.0930266 0.181624 0.0563704 0.114217 0.0640907 0.216634 0.029557 0.0500892 0.105823 0.0508812 0.234385 0.0809399 0.23467
679 1 -14.2255 105.1 61.3616 27.0 0.0285972 0.123706 0.0851113 0.0643509 0.157811 0.0789975 0.223868 0.0363972 0.0198189 0.0752441 0.0353917 0.290664 0.0615381 0.26954
680 2 -12.2109 103.173 61.5247 24.0 0.0324144 0.0847046 0.260311 0.0580259 0.182294 0.118734 0.231102 0.0423308 0.0201058 0.323612 0.0285457 0.328779 0.0432016 0.219848
681 3 -10.6972 102.989 61.3504 23.0 0.0227236 0.0626223 0.198804 0.0425247 0.115375 0.0465676 0.191696 0.0264277 0.0135754 0.192501 0.0627907 0.3392 0.0611149 0.210338
683 3 -12.7754 104.124 60.375 23.0 0.0241108 0.0551 0.118463 0.0709011 0.147955 0.0645864 0.193077 0.0137398 0.0205335 0.174279 0.0599772 0.328343 0.0714271 0.192376
698 1 -11.4679 107.1 59.83 27.0 0.0152043 0.0836446 0.218917 0.0396142 0.158864 0.0724563 0.228643 0.0429299 0.0446561 0.0598734 0.0506752 0.310081 0.0558013 0.276299
1884 1 -6.03963 98.9875 58.6567 26.0 0.0376561 0.0789194 0.117198 0.065705 0.125384 0.0708127 0.201167 0.0310617 0.0365541 0.116205 0.0387101 0.257395 0.0437723 0.237977
1885 2 -8.33275 100.731 58.6538 24.0 0.0273004 0.110095 0.209777 0.0366045 0.118116 0.0725648 0.190751 0.0403088 0.0295555 0.321823 0.0449194 0.324027 0.0517399 0.228494
1886 3 -5.09764 100.9 58.7736 23.0 0.0230204 0.0514273 0.160275 0.0555798 0.114565 0.0452891 0.195208 0.0217454 0.0456684 0.160685 0.0470573 0.325181 0.0796594 0.1786
1888 3 -7.8632 100.121 57.2647 26.0 0.0185887 0.0833208 0.14607 0.0500308 0.144752 0.0543883 0.192383 0.0201774 0.0192844 0.137565 0.0832453 0.33231 0.0691113 0.182552
1889 3 -7.45362 99.8281 59.7008 22.0 0.0200049 0.0758381 0.135511 0.0683765 0.12408 0.0531048 0.219503 0.012099 0.0302232 0.136523 0.0339853 0.322252 0.0561731 0.173409
1898 1 -9.04974 99.719 55.5707 27.0 0.0460678 0.0932978 0.147527 0.0598948 0.179745 0.0614457 0.224973 0.053299 0.0279588 0.0814991 0.056304 0.307748 0.0674489 0.284913
1901 3 -5.61463 101.603 55.5844 25.0 0.0380276 0.0434883 0.147061 0.0400667 0.166897 0.0558942 0.180132 0.0150368 0.0330425 0.119624 0.0695957 0.332885 0.0871697 0.191481
1903 3 -5.48534 98.7042 56.8039 25.0 0.0374538 0.0632237 0.143975 0.0755532 0.154387 0.0435857 0.204192 0.00826211 0.0169721 0.136204 0.0582687 0.358723 0.0562244 0.214563
1904 1 -7.07513 102.052 54.0722 28.0 0.0180961 0.0721309 0.224878 0.035339 0.153185 0.066166 0.208607 0.0411731 0.032963 0.139115 0.0349612 0.276092 0.0813944 0.29397
1905 1 -7.66874 104.977 54.9739 27.0 0.014135 0.147192 0.135573 0.0736777 0.136564 0.0805797 0.156907 0.0479564 0.0287055 0.0707275 0.0375169 0.28847 0.0411721 0.244263
1906 2 -5.08128 103.141 55.7699 24.0 0.0305347 0.0516437 0.191549 0.0714244 0.14335 0.0622084 0.142634 0.0455189 0.0249284 0.323033 0.0274276 0.318076 0.0440752 0.219907
1907 3 -8.33627 103.336 55.7379 26.0 0.0181739 0.0314202 0.189338 0.0323079 0.138483 0.0472608 0.169031 0.0244672 0.0299103 0.115647 0.0487686 0.2882 0.0682524 0.173638
1908 3 -7.32453 106.886 55.1526 21.0 0.0246912 0.0473731 0.238152 0.0377635 0.153545 0.0459227 0.178248 0.0200852 0.0276519 0.100355 0.061341 0.30492 0.0750582 0.172142
1909 3 -5.85624 103.849 54.5062 20.0 0.0106962 0.0872403 0.152933 0.0428545 0.15079 0.0475012 0.163401 0.0181694 0.0208739 0.104452 0.0543191 0.296203 0.067035 0.162051
1910 1 -6.38088 101.476 57.3474 23.0 0.0343129 0.053556 0.199811 0.0337784 0.120502 0.0448451 0.158505 0.0285612 0.0432158 0.0939147 0.0570638 0.27003 0.0696879 0.238667
1911 3 -5.64112 103.31 57.3951 25.0 0.0362888 0.0529641 0.163161 0.0824781 0.103207 0.061054 0.163034 0.0198104 0.0374193 0.149386 0.0485096 0.29912 0.0666518 0.166811
1919 1 -6.97007 104.265 58.5808 27.0 0.0240902 0.0802187 0.110144 0.0756398 0.110572 0.0620797 0.152557 0.0418661 0.0371578 0.0732209 0.0579794 0.28851 0.080354 0.216373
1920 2 -9.30575 106.182 58.2733 27.0 0.00907575 0.0460734 0.237743 0.0680372 0.1329 0.0647269 0.192873 0.0458705 0.021849 0.331182 0.035307 0.328837 0.0336672 0.232219
1921 3 -7.7221 106.208 58.3585 25.0 0.0135728 0.0354107 0.186819 0.0443555 0.121752 0.0513762 0.161875 0.0184755 0.0130282 0.150054 0.0361237 0.327183 0.0482394 0.181648
1922 3 -7.89308 102.269 58.6577 25.0 0.0324781 0.0348164 0.22617 0.0482952 0.11319 0.0382789 0.15669 0.0138869 0.0385252 0.17238 0.0381845 0.310122 0.0505402 0.18046
1923 3 -9.62278 105.886 56.7658 24.0 0.0189003 0.0531966 0.167515 0.0714016 0.138674 0.0477282 0.155039 0.0139272 0.0366489 0.095569 0.0560641 0.302189 0.0809603 0.159629
1925 3 -5.18438 105.3 59.1875 22.0 0.0160519 0.0772775 0.136179 0.0816003 0.10803 0.0431636 0.195471 0.0112668 0.0248685 0.179729 0.0660601 0.329045 0.060256 0.181827
2052 3 -8.19086 101.805 61.5674 20.0 0.0398441 0.0488353 0.190038 0.0236577 0.146991 0.0390734 0.22015 0.0166136 0.0341189 0.144565 0.0597418 0.328918 0.0736502 0.203576
2055 1 -9.58748 102.833 59.6406 22.0 0.050996 0.0786912 0.223298 0.0565301 0.108352 0.0630162 0.20781 0.0238533 0.0361379 0.104958 0.0477568 0.230131 0.0619996 0.228061
2056 1 -9.29964 105.093 61.3393 26.0 0.0343458 0.107124 0.108498 0.0719926 0.158561 0.0636089 0.209957 0.0393469 0.0332543 0.0725012 0.0294457 0.294228 0.0587452 0.278237
2057 2 -7.41122 103.127 61.5616 24.0 0.044189 0.0752572 0.288387 0.0483819 0.192016 0.0857392 0.247915 0.04475 0.0193568 0.325313 0.0313848 0.325858 0.0426603 0.218804
2058 3 -5.79931 103.104 61.3445 22.0 0.0216309 0.055642 0.168824 0.0385178 0.120483 0.03946 0.218896 0.0260506 0.0208067 0.189076 0.0633981 0.33025 0.0613405 0.207586
2059 3 -8.18087 106.768 61.3307 26.0 0.0277589 0.0273208 0.207237 0.0477926 0.155999 0.05638 0.248801 0.0101513 0.0219747 0.144814 0.0602625 0.389494 0.0637712 0.236062
2060 3 -7.96705 104.011 60.3693 24.0 0.0235669 0.0758841 0.138144 0.057631 0.12053 0.0599936 0.191991 0.00659655 0.0325815 0.188918 0.0636098 0.336281 0.0773387 0.207833
2075 1 -6.62009 107.453 59.5735 27.0 0.0186941 0.0488767 0.207079 0.0251212 0.153749 0.0465795 0.243688 0.0332608 0.0295675 0.0795649 0.0302726 0.295896 0.053909 0.256592
8942 2 16.9682 103.126 61.4936 25.0 0.0252687 0.0727898 0.269017 0.0548846 0.180051 0.101197 0.237448 0.0441356 0.0199861 0.318627 0.0329886 0.329675 0.0413437 0.214566
3300 3 -4.71063 105.707 56.6269 24.0 0.0180831 0.0480794 0.161013 0.0573478 0.135885 0.0510814 0.148196 0.0170232 0.022506 0.121315 0.0435092 0.29785 0.0464487 0.156663
3151 3 -3.8782 105.499 53.2299 24.0 0.0228758 0.0927541 0.20079 0.0603027 0.152258 0.0440674 0.201175 0.013112 0.0222624 0.108281 0.0440917 0.314181 0.0625807 0.205866
4528 3 0.960316 105.469 53.3565 23.0 0.0234905 0.100227 0.163832 0.051349 0.13916 0.027174 0.201864 0.0123148 0.0183599 0.119134 0.0395152 0.319836 0.0605333 0.208273
3115 3 -3.58194 100.388 53.8042 23.0 0.0268297 0.099118 0.136125 0.0380743 0.167146 0.0571895 0.235604 0.0144348 0.0169341 0.107665 0.0602419 0.370628 0.0757959 0.229923
3261 1 -1.05507 99.0331 58.7411 26.0 0.0356248 0.0978625 0.136301 0.0491501 0.144288 0.0660329 0.184563 0.0317617 0.0258457 0.132791 0.042013 0.265471 0.0475421 0.259114
3262 2 -3.50732 100.781 58.6819 24.0 0.00633287 0.0547046 0.143014 0.0570598 0.115581 0.0655567 0.167991 0.0424217 0.0206179 0.320177 0.0382611 0.316729 0.0338472 0.21952
3263 3 -0.169396 101.039 58.8088 24.0 0.0229343 0.0448615 0.149071 0.0615321 0.13543 0.0535684 0.191777 0.0194362 0.0389971 0.170644 0.0401272 0.310106 0.0715155 0.165722
3265 3 -3.14982 100.326 57.1531 27.0 0.0228052 0.0708796 0.144412 0.0613655 0.151164 0.0345048 0.168285 0.0217727 0.0249986 0.143534 0.0831526 0.327687 0.0769144 0.185794
3266 3 -2.50944 99.9728 59.5364 25.0 0.0336267 0.0647462 0.114067 0.0788104 0.120819 0.0462871 0.183706 0.0131082 0.0297588 0.136724 0.0339566 0.319393 0.05254 0.172496
3275 1 -4.26057 99.9089 55.5859 28.0 0.0443975 0.101397 0.132304 0.0578748 0.161341 0.0486164 0.218503 0.0499051 0.0266236 0.0949901 0.0569099 0.297438 0.0769295 0.285453
3278 3 -0.714522 101.584 55.4971 26.0 0.0373701 0.057199 0.139274 0.0439127 0.156084 0.0495094 0.185457 0.0149403 0.0218472 0.133018 0.0637903 0.335415 0.0946804 0.202332
3279 3 -0.801449 98.6806 54.374 26.0 0.0338608 0.0914754 0.153341 0.0447262 0.167647 0.0344926 0.235286 0.00858996 0.0147078 0.117357 0.0500462 0.383141 0.0589157 0.242765
3280 3 -0.650383 98.8615 56.8225 24.0 0.0371858 0.0580302 0.148871 0.0410862 0.159524 0.0332857 0.193658 0.00941319 0.0195395 0.150045 0.068356 0.347211 0.0634552 0.205392
3281 1 -2.26708 101.983 54.2265 27.0 0.0193396 0.0583734 0.225521 0.0371633 0.163578 0.0414429 0.202955 0.0328848 0.0337862 0.15316 0.0443999 0.274028 0.0876139 0.285525
3282 1 -2.82924 104.887 54.7758 24.0 0.0132326 0.100749 0.167536 0.0820379 0.12682 0.0476001 0.180456 0.0518064 0.0321391 0.0808982 0.0398227 0.291649 0.0536567 0.238454
3283 2 -0.241578 103.047 55.7542 25.0 0.0314194 0.0470233 0.218902 0.0685661 0.131309 0.0447034 0.179202 0.0473584 0.0168927 0.322759 0.0284127 0.315739 0.0316135 0.217285
3284 3 -3.53729 103.179 55.5759 26.0 0.0273652 0.0400177 0.209064 0.0345396 0.145442 0.0526789 0.185375 0.0194838 0.0284511 0.12669 0.0555172 0.293232 0.0646457 0.174547
3285 3 -2.45879 106.75 55.1916 22.0 0.0327546 0.0471668 0.233899 0.0341801 0.147885 0.0442533 0.220856 0.018563 0.0214124 0.116192 0.0423669 0.323303 0.0541567 0.178719
3286 3 -1.08965 103.731 54.5124 22.0 0.0126813 0.0797839 0.15144 0.0411539 0.148195 0.0416217 0.191586 0.017741 0.0272027 0.119799 0.0610495 0.31978 0.0525316 0.177424
3287 1 -1.54454 101.407 57.3747 23.0 0.0384282 0.0521893 0.164654 0.0406967 0.120389 0.057486 0.159515 0.025487 0.0615677 0.115175 0.0449322 0.255645 0.0705292 0.237042
3288 3 -0.716325 103.267 57.2527 24.0 0.037573 0.0348633 0.164205 0.0675485 0.10068 0.0687143 0.152369 0.0122137 0.0298209 0.154904 0.0475335 0.2909 0.0517684 0.161053
3296 1 -2.14459 104.217 58.4483 26.0 0.0295597 0.0848477 0.114709 0.064091 0.107905 0.0526117 0.161654 0.0382046 0.040657 0.0864883 0.0450928 0.284422 0.0747094 0.207798
3297 2 -4.39189 106.076 58.0958 27.0 0.0130999 0.0387259 0.209966 0.0889162 0.115526 0.0886901 0.174062 0.0462267 0.0216723 0.3275 0.0310268 0.325543 0.0363922 0.222482
3298 3 -2.84615 106.004 58.2522 27.0 0.0211521 0.063093 0.208545 0.051704 0.12067 0.066371 0.186887 0.0183902 0.016357 0.150697 0.0361369 0.321728 0.0472051 0.181738
3299 3 -2.99195 102.334 58.5975 23.0 0.0351983 0.0314462 0.212095 0.044621 0.117684 0.0672347 0.164387 0.0171087 0.0184938 0.174159 0.0420163 0.291268 0.0512797 0.169668
3302 3 -0.310226 105.471 59.2217 23.0 0.0164434 0.0757132 0.159288 0.0739882 0.111751 0.0347453 0.188383 0.0101272 0.0203338 0.16728 0.0644693 0.323321 0.0727367 0.177889