ITEM: TIMESTEP
7500
ITEM: NUMBER OF ATOMS
347
ITEM: BOX BOUNDS pp pp pp
-14.54184 24.2364
80.0 135.0
35.0 90.0
ITEM: ATOMS id type x y z coord q2 q3 q4 q5 q6 q7 q8 q2_mono q3_mono q4_mono q5_mono q6_mono q7_mono q8_mono
7432 1 13.6514 107.406 53.5949 27.0 0.0188006 0.0359085 0.209767 0.0376336 0.150844 0.0373723 0.200749 0.0388719 0.0276781 0.0875672 0.0502071 0.285371 0.0559483 0.28076
10173 3 23.5005 103.386 57.254 23.0 0.0431802 0.0490442 0.192934 0.0768526 0.119441 0.0674803 0.194807 0.0180619 0.0254523 0.159179 0.0390094 0.303505 0.0398357 0.166328
10181 1 22.2885 104.343 58.57 27.0 0.0273371 0.0712709 0.127121 0.0732288 0.116518 0.0653228 0.175256 0.0396617 0.0320514 0.0871211 0.0460106 0.276311 0.0763782 0.217776
8809 1 18.5912 107.429 53.7742 28.0 0.0178806 0.0561515 0.204694 0.0397608 0.171975 0.0476932 0.236383 0.0320327 0.040485 0.0880598 0.0490059 0.268255 0.062877 0.288365
6055 1 8.95255 107.363 53.6016 28.0 0.017011 0.0414425 0.186476 0.0473747 0.15286 0.0509516 0.217626 0.0393452 0.0286131 0.0870619 0.0657541 0.268662 0.0665031 0.28264
10163 3 23.7074 101.614 55.554 26.0 0.0285828 0.0510291 0.162765 0.0406125 0.149575 0.0348319 0.193818 0.0178687 0.0332912 0.146872 0.0635366 0.336319 0.0868181 0.193125
4496 3 4.22709 96.223 52.6731 24.0 0.0256475 0.0332643 0.22501 0.0192899 0.171447 0.0299041 0.249639 0.0211083 0.0148574 0.12431 0.020855 0.405605 0.0314144 0.270338
8610 1 17.4834 91.6781 48.3901 28.0 0.0314752 0.0307038 0.190806 0.051295 0.162298 0.0602828 0.24316 0.0507482 0.0260904 0.0618183 0.0600534 0.256499 0.0527145 0.260598
10167 1 21.2649 105.03 55.1986 25.0 0.0152285 0.144089 0.15355 0.0807646 0.11952 0.0652546 0.183071 0.0539107 0.0371401 0.0791711 0.0229099 0.294436 0.0390096 0.233486
392 2 -13.0363 106.328 52.1543 25.0 0.0343825 0.093337 0.210176 0.05154 0.151911 0.0636674 0.243142 0.0466286 0.0201924 0.307222 0.0304913 0.335134 0.0413741 0.202897
393 3 -11.4865 106.367 52.1754 24.0 0.0214505 0.0676239 0.195102 0.0274181 0.133004 0.0474206 0.208922 0.0276135 0.0198241 0.105991 0.0503339 0.355275 0.0404188 0.244452
394 3 -13.3463 102.563 52.6509 27.0 0.0327296 0.029292 0.16645 0.0509032 0.186684 0.0406923 0.228283 0.0180489 0.012469 0.118737 0.0417715 0.355473 0.0713778 0.210137
1767 1 -5.43913 106.933 50.5372 26.0 0.0571594 0.0555862 0.280609 0.031137 0.160153 0.0513956 0.233022 0.0315163 0.0379414 0.0735791 0.0632457 0.244135 0.0668856 0.29343
1769 2 -8.19234 106.3 52.0841 25.0 0.0323212 0.0690617 0.233752 0.0572907 0.171795 0.0646367 0.240445 0.0471822 0.0190412 0.305969 0.0300361 0.334319 0.0390153 0.201603
1770 3 -6.63294 106.48 52.1661 24.0 0.0276931 0.0512046 0.191865 0.0310161 0.131269 0.0573485 0.206016 0.0299639 0.0229127 0.11684 0.0612488 0.353845 0.0632249 0.245069
1771 3 -8.43691 102.619 52.6525 25.0 0.0335718 0.0480717 0.182995 0.0627591 0.175865 0.0399204 0.240289 0.0155971 0.0225114 0.117076 0.0423555 0.355116 0.0744869 0.211271
1772 3 -8.7975 105.592 50.8073 24.0 0.0350519 0.0905441 0.123966 0.0455166 0.177532 0.0594173 0.233229 0.0152392 0.0197878 0.118763 0.0561259 0.380417 0.0508318 0.242717
3146 2 -3.28113 106.212 52.0225 25.0 0.0300048 0.101782 0.243296 0.0759402 0.174589 0.0711387 0.24683 0.0483748 0.0177361 0.296847 0.032578 0.33494 0.0393129 0.194199
3147 3 -1.73875 106.47 52.1547 22.0 0.0295611 0.0489715 0.210219 0.0274578 0.154602 0.0540171 0.238134 0.0243682 0.0265882 0.102528 0.0621564 0.348435 0.0514318 0.242815
3148 3 -3.7017 102.75 52.6665 24.0 0.0300227 0.045593 0.17469 0.0517058 0.173959 0.0390076 0.233728 0.0204571 0.0144817 0.11853 0.0428423 0.346987 0.0770272 0.205964
3149 3 -3.79609 105.493 50.7884 24.0 0.0371531 0.0905658 0.116608 0.0528828 0.166784 0.0482647 0.239293 0.0120468 0.0219395 0.124333 0.04335 0.380107 0.0570744 0.248371
4489 3 3.91522 101.003 52.8094 24.0 0.02703 0.0371484 0.232341 0.0378178 0.161215 0.0355591 0.237229 0.0200221 0.0144445 0.111027 0.0456579 0.361423 0.0479029 0.247167
4514 3 3.7892 103.62 50.9489 25.0 0.0301133 0.0886304 0.156288 0.0493193 0.177817 0.0543984 0.245347 0.0158223 0.0196001 0.110531 0.0358398 0.342032 0.0618942 0.222803
4522 1 4.6414 104.027 52.8023 24.0 0.0295463 0.127058 0.142685 0.0521319 0.157048 0.0606827 0.209804 0.0396489 0.0239989 0.103534 0.0406459 0.276755 0.0583733 0.297294
4523 2 1.51978 106.447 52.1232 23.0 0.0403343 0.0873124 0.247863 0.0629945 0.171969 0.0592402 0.242447 0.0453638 0.0180659 0.297435 0.0357359 0.334675 0.0404678 0.196888
4524 3 3.03933 106.617 52.1823 24.0 0.022436 0.0554247 0.197595 0.0261353 0.15387 0.0487904 0.187002 0.0222248 0.0269565 0.118895 0.065875 0.328065 0.0571878 0.245761
4525 3 1.17997 102.643 52.8156 25.0 0.0254699 0.0312145 0.197166 0.0492988 0.164858 0.0471481 0.2341 0.014939 0.0205417 0.115772 0.0518399 0.329628 0.0759769 0.210571
10150 3 21.2793 100.229 57.1917 25.0 0.0219766 0.0718581 0.148 0.0652341 0.151904 0.0383855 0.196679 0.0232967 0.0215484 0.147262 0.0850374 0.33086 0.0796263 0.195579
5887 3 5.88625 102.898 49.5635 23.0 0.0254039 0.0468782 0.26138 0.0332639 0.15359 0.0482761 0.247857 0.0203767 0.0173397 0.103998 0.0415475 0.390087 0.0549995 0.265184
5899 1 9.4849 104.078 52.5521 26.0 0.0227177 0.152826 0.146717 0.0625881 0.1337 0.0743692 0.227593 0.0342604 0.0242166 0.109464 0.0358512 0.284959 0.0447361 0.295181
5900 2 6.40311 106.241 52.0753 24.0 0.0407206 0.0752129 0.236749 0.0789691 0.172961 0.0611259 0.211191 0.0456035 0.0196635 0.301158 0.0335018 0.336807 0.03971 0.200117
5901 3 7.97205 106.467 52.1403 23.0 0.0274233 0.0471315 0.20916 0.0332008 0.154609 0.0576378 0.210869 0.0202955 0.0237152 0.108644 0.0621315 0.338427 0.049448 0.243878
5902 3 5.99319 102.452 52.686 26.0 0.0257585 0.0314485 0.217697 0.0580578 0.163038 0.0410779 0.217578 0.0132744 0.0209702 0.114585 0.0490204 0.332319 0.0774322 0.209473
5903 3 5.85324 105.692 50.7584 24.0 0.0353366 0.0974249 0.142227 0.0412813 0.179174 0.0554175 0.220658 0.0122016 0.0224819 0.119299 0.0541194 0.36136 0.0630398 0.237987
7276 1 14.4667 103.932 52.6903 25.0 0.0258781 0.146445 0.147824 0.0579253 0.139292 0.0826075 0.226492 0.0428804 0.0260022 0.0970811 0.044153 0.288507 0.0513539 0.295146
7278 3 12.7281 106.431 52.154 24.0 0.0258925 0.0625079 0.203135 0.0311501 0.153173 0.0370865 0.213126 0.0238886 0.0226498 0.109074 0.0538495 0.342271 0.0457055 0.241811
7279 3 10.9366 102.624 52.6278 24.0 0.0347178 0.032196 0.166687 0.0569558 0.178585 0.0331224 0.222259 0.0175756 0.013608 0.115442 0.0410466 0.339712 0.0706758 0.213024
7280 3 10.6321 105.548 50.7998 25.0 0.0306902 0.0905535 0.135795 0.0398651 0.188513 0.0502754 0.241875 0.0140909 0.0168767 0.122559 0.034252 0.378982 0.0537248 0.242585
8655 3 17.6148 106.369 52.2997 22.0 0.0265763 0.0501194 0.21663 0.0327969 0.156917 0.0438109 0.226737 0.023036 0.0225812 0.11271 0.0553521 0.355793 0.0469862 0.246533
8656 3 15.8236 102.55 52.7218 25.0 0.0223901 0.0405507 0.183678 0.0608818 0.173557 0.0469803 0.23348 0.0132949 0.0207106 0.106599 0.0480237 0.343788 0.0755846 0.220085
8657 3 15.4546 105.572 50.8644 24.0 0.0351594 0.103802 0.131125 0.0432925 0.185866 0.0554837 0.243947 0.0123594 0.0214239 0.113295 0.0550069 0.367954 0.0482422 0.246894
10030 1 24.0351 104.162 52.5168 26.0 0.0337279 0.158161 0.135003 0.0770654 0.129338 0.0848239 0.229319 0.0421165 0.0248264 0.0858508 0.0401277 0.275333 0.05373 0.292266
10032 3 22.4084 106.451 52.4042 25.0 0.0314563 0.0519468 0.213547 0.0391654 0.151175 0.0427461 0.23053 0.0278366 0.0226134 0.104424 0.054334 0.364556 0.046131 0.246642
10033 3 20.4492 102.644 52.6367 27.0 0.0281053 0.0454639 0.183905 0.0517148 0.176241 0.0364849 0.24936 0.0128219 0.0184183 0.113802 0.0439171 0.366759 0.0774866 0.223715
1887 3 -6.95131 97.2792 58.2651 23.0 0.0456335 0.0441733 0.21765 0.0392636 0.157585 0.0408885 0.247469 0.0161001 0.0178129 0.141751 0.0538057 0.372288 0.0556339 0.209425
1890 1 -8.65725 97.0845 57.1811 30.0 0.0272607 0.0290459 0.175015 0.0279925 0.146638 0.0385602 0.246373 0.0354642 0.028694 0.08543 0.0359617 0.303136 0.0445745 0.319471
1893 3 -9.62753 95.9834 58.4611 24.0 0.0200032 0.0418062 0.222133 0.0251819 0.159972 0.0384741 0.241595 0.0174645 0.0143596 0.119257 0.0236869 0.388436 0.0421328 0.245129
676 3 -14.4307 98.5616 60.1833 26.0 0.0106343 0.0676106 0.157549 0.0373069 0.147919 0.0353173 0.244614 0.0125705 0.0182832 0.138238 0.0369568 0.350109 0.0449621 0.200081
2053 3 -9.6201 98.4394 60.1704 24.0 0.0148539 0.0560265 0.152355 0.0448425 0.151241 0.0438939 0.235196 0.00994535 0.0238437 0.136361 0.0456367 0.352575 0.0542356 0.199922
3270 3 -4.69915 95.8504 58.4959 23.0 0.0282305 0.0429899 0.226605 0.0327027 0.166819 0.048548 0.246972 0.0203991 0.0200667 0.116264 0.0394717 0.385744 0.0442304 0.237098
3267 1 -3.8192 96.8203 57.0626 28.0 0.0321147 0.0401442 0.232467 0.0290782 0.154051 0.052994 0.24554 0.0382099 0.0288771 0.0841777 0.0307728 0.31391 0.0447493 0.315883
4641 3 2.67987 97.1911 58.4839 23.0 0.0477994 0.036093 0.188023 0.0304498 0.160916 0.0479 0.23652 0.0124682 0.0195182 0.147306 0.05704 0.369843 0.06099 0.20931
4644 1 1.16232 97.0142 57.2128 30.0 0.0312303 0.0469493 0.186052 0.0316916 0.151881 0.0533778 0.233799 0.0352606 0.0309326 0.0926468 0.0352217 0.308424 0.0466599 0.318587
4647 3 0.126659 95.9453 58.4582 24.0 0.0273035 0.0453665 0.221161 0.0333775 0.161459 0.041734 0.245332 0.0200709 0.0141118 0.129887 0.0355667 0.394093 0.0487425 0.238293
4654 3 2.04535 97.8887 55.5473 25.0 0.0308069 0.0436115 0.254098 0.0260706 0.165849 0.0413483 0.229566 0.0203318 0.0106268 0.131841 0.0426824 0.391024 0.0357784 0.250797
6184 3 4.93678 98.2796 60.2193 26.0 0.0203436 0.0590898 0.166752 0.0350139 0.141396 0.04327 0.237755 0.0116983 0.020975 0.132719 0.0429225 0.339089 0.0531609 0.1819
3430 3 -4.87394 98.3562 60.0905 23.0 0.0179935 0.0521529 0.160679 0.0436578 0.139432 0.0352686 0.22952 0.00915712 0.0204485 0.138833 0.036608 0.337887 0.0529616 0.180957
7408 3 11.7053 97.8387 55.5494 23.0 0.0283464 0.0399311 0.246266 0.0337835 0.167032 0.0384457 0.247387 0.0217533 0.00980308 0.114474 0.0438178 0.385641 0.0445576 0.251464
7561 3 9.84535 98.3317 60.1632 24.0 0.0168426 0.0617419 0.170361 0.0451594 0.136109 0.0346987 0.241173 0.0108345 0.0158527 0.138204 0.0313209 0.340506 0.0477852 0.1881
8938 3 14.8245 98.3394 60.2033 26.0 0.0116904 0.0817522 0.176886 0.0311921 0.14407 0.0481018 0.24396 0.0111449 0.0174152 0.130697 0.0335856 0.334773 0.0472311 0.188251
8772 3 17.2971 97.2787 58.503 22.0 0.0413862 0.0473625 0.235377 0.0457989 0.144694 0.0449509 0.237533 0.0127973 0.020185 0.129326 0.0468531 0.370295 0.058733 0.214377
8775 1 15.6949 96.583 56.8477 28.0 0.0261561 0.05424 0.176814 0.03218 0.149191 0.0377083 0.23228 0.0332692 0.0357938 0.0930245 0.0355061 0.288332 0.0533238 0.312227
8785 3 16.5303 97.8518 55.5978 24.0 0.0300085 0.0593675 0.221523 0.0407253 0.149698 0.0544266 0.227993 0.0214497 0.0103576 0.114882 0.0475271 0.383458 0.0493725 0.24976
8936 3 17.5366 97.9343 61.6685 23.0 0.0155594 0.0543788 0.226255 0.0382811 0.136497 0.0573211 0.247038 0.0183146 0.0231726 0.103698 0.030563 0.353504 0.0546995 0.213746
10149 3 22.0615 97.396 58.4668 23.0 0.0469622 0.0398271 0.223615 0.033573 0.157969 0.0326691 0.246353 0.0135268 0.0226192 0.141151 0.0447996 0.373987 0.0565341 0.220663
10152 1 20.5152 96.9819 57.1506 28.0 0.0262669 0.00995125 0.225206 0.0167447 0.157997 0.0133113 0.241539 0.0358497 0.0324917 0.092562 0.0345286 0.297172 0.0466521 0.315918
10155 3 19.5095 95.9159 58.5955 23.0 0.0246892 0.0677972 0.240485 0.0390677 0.156123 0.0493275 0.234132 0.0202056 0.0181404 0.117401 0.0233813 0.384655 0.0435116 0.23974
10162 3 21.3916 97.9421 55.6022 23.0 0.0318091 0.0506616 0.235256 0.0325931 0.165143 0.0508222 0.236763 0.0201419 0.00729053 0.121584 0.0416679 0.377938 0.0398242 0.253959
10293 3 19.7147 96.4898 61.7401 25.0 0.0331246 0.0417983 0.170946 0.0395929 0.173178 0.0469499 0.245169 0.0108704 0.0145314 0.123446 0.0490061 0.381633 0.053904 0.227135
10313 3 22.321 97.9136 61.6569 23.0 0.0196851 0.0459402 0.21697 0.0341593 0.140311 0.0474003 0.246525 0.0147154 0.0224969 0.112398 0.0312144 0.352499 0.0472757 0.209664
10172 1 22.7849 101.489 57.3305 23.0 0.0367574 0.0492384 0.212661 0.0512809 0.105867 0.0441869 0.183201 0.0282129 0.0607977 0.104492 0.0468692 0.252745 0.0608877 0.246982
10147 2 20.8073 100.814 58.6044 25.0 0.0304777 0.0830531 0.207042 0.0393474 0.118371 0.0656832 0.179912 0.0401472 0.0212112 0.320261 0.0350782 0.324549 0.0422338 0.22909
1774 3 -8.62971 105.522 53.353 23.0 0.0228613 0.0865259 0.181473 0.0646354 0.143064 0.0462616 0.192744 0.0135929 0.0228223 0.105924 0.0484664 0.319712 0.0630283 0.200115
397 3 -13.5912 105.543 53.4713 24.0 0.0134156 0.10083 0.191976 0.0833089 0.157915 0.0504143 0.182039 0.0155971 0.0134772 0.108642 0.0402249 0.322063 0.0587774 0.202242
507 1 -10.8393 99.1395 58.7095 25.0 0.0432609 0.102152 0.0907778 0.0560445 0.168685 0.0941014 0.20851 0.032744 0.0387175 0.111385 0.04346 0.261011 0.0411594 0.246815
508 2 -13.0544 100.789 58.621 23.0 0.0208585 0.0760362 0.203241 0.0434467 0.125014 0.075866 0.20911 0.0419549 0.0207965 0.318329 0.0319629 0.322223 0.0418405 0.220957
509 3 -9.79377 101.015 58.6767 23.0 0.0254425 0.0789574 0.191411 0.0506852 0.119433 0.0710383 0.186924 0.0238399 0.0383325 0.187172 0.0370757 0.344855 0.0729234 0.19548
511 3 -12.6011 100.229 57.1266 27.0 0.0182117 0.0943145 0.138694 0.0597243 0.141251 0.0568054 0.205302 0.0183536 0.0153162 0.149497 0.0747335 0.359831 0.078148 0.20787
512 3 -12.2721 99.954 59.6726 23.0 0.019141 0.0867741 0.120287 0.0643424 0.134736 0.0762055 0.230888 0.0127516 0.0307495 0.143262 0.0371186 0.339457 0.0543115 0.196183
521 1 -13.8227 99.9423 55.5743 27.0 0.0470771 0.0798145 0.1134 0.0685051 0.180378 0.0614418 0.226669 0.0488676 0.0293381 0.114968 0.056034 0.282713 0.0754169 0.299409
524 3 -10.25 101.619 55.5491 24.0 0.0349238 0.0399274 0.177696 0.0452479 0.157481 0.0401738 0.192692 0.0165603 0.036541 0.150253 0.061411 0.350972 0.0883206 0.199538
526 3 -10.1978 98.6825 56.8611 25.0 0.0379387 0.0744607 0.143944 0.0453956 0.181816 0.0424197 0.243127 0.00886318 0.0119598 0.148056 0.0620626 0.38192 0.0545684 0.232369
527 1 -11.8376 102.075 54.2287 27.0 0.0235719 0.0416473 0.2368 0.0318959 0.149944 0.04322 0.205608 0.0434719 0.0379251 0.125236 0.040954 0.271893 0.0800371 0.289716
528 1 -12.3785 105.032 55.0425 24.0 0.011201 0.153349 0.14063 0.0751997 0.120844 0.061275 0.165805 0.0460327 0.0381691 0.0879704 0.0390272 0.288237 0.0472547 0.245161
529 2 -9.71993 103.278 55.7189 24.0 0.0407705 0.0736054 0.192143 0.0897185 0.160037 0.0709669 0.160503 0.0463557 0.0204219 0.331342 0.0318695 0.315445 0.0414433 0.22829
530 3 -13.1602 103.293 55.6467 26.0 0.026321 0.0388867 0.215926 0.0328383 0.138733 0.0518861 0.179041 0.0234665 0.0274534 0.125008 0.0447761 0.296966 0.0640162 0.175065
531 3 -12.0711 106.963 55.2071 22.0 0.0316518 0.0534308 0.238899 0.0417548 0.147539 0.0412912 0.195707 0.0197495 0.0291168 0.102835 0.0618634 0.3198 0.0665035 0.178399
532 3 -10.6514 103.927 54.5427 21.0 0.0166112 0.0872891 0.157994 0.0398286 0.130375 0.0532785 0.169934 0.0159958 0.0239461 0.116092 0.0501394 0.311533 0.0569074 0.170479
533 1 -11.1284 101.49 57.2009 23.0 0.0289985 0.0579098 0.209417 0.0387492 0.103123 0.0489262 0.171527 0.0316524 0.0425275 0.0941149 0.0534255 0.260066 0.0590956 0.241447
534 3 -10.3083 103.391 57.2362 23.0 0.0414756 0.0560977 0.173854 0.0814434 0.112832 0.0692909 0.178211 0.0203139 0.0236685 0.179649 0.0448811 0.31666 0.0493753 0.172923
542 1 -11.6511 104.304 58.4532 27.0 0.023955 0.0800024 0.118858 0.0696394 0.122892 0.0596307 0.156335 0.0435546 0.0251143 0.0859196 0.0510164 0.280875 0.0781376 0.21699
543 2 -14.0341 106.258 58.1622 27.0 0.0211283 0.075068 0.202979 0.0643031 0.13921 0.0663389 0.185575 0.0474474 0.0340041 0.339663 0.0530131 0.320937 0.0498593 0.241466
544 3 -12.4565 106.273 58.2596 24.0 0.0149156 0.0307882 0.22961 0.0333454 0.148008 0.0476542 0.195135 0.0173496 0.0162362 0.145076 0.0330899 0.330315 0.042631 0.191406
545 3 -12.4963 102.293 58.4939 24.0 0.0317066 0.0253659 0.22769 0.0484516 0.0968505 0.0453696 0.15425 0.00877249 0.0236512 0.174162 0.0433138 0.309438 0.0533814 0.179807
548 3 -10.0563 105.318 59.2664 23.0 0.0172537 0.075971 0.144312 0.0846425 0.126766 0.0377227 0.200986 0.0103976 0.0184991 0.175279 0.0611113 0.342029 0.0587893 0.190907
675 3 -12.9529 101.804 61.4281 21.0 0.0346099 0.051803 0.189713 0.0290874 0.166453 0.0414122 0.207718 0.0170027 0.0308834 0.148951 0.0415729 0.330665 0.0574326 0.20693
678 1 -14.4024 102.942 59.424 23.0 0.0429433 0.0812538 0.194823 0.0550759 0.121864 0.0644925 0.200174 0.0272394 0.0376886 0.0931718 0.050695 0.230213 0.0504963 0.225339
679 1 -14.2029 105.087 61.404 26.0 0.0361459 0.115479 0.125972 0.064976 0.16136 0.0680649 0.216594 0.0414906 0.0327335 0.0693912 0.0281672 0.28842 0.0561998 0.277633
680 2 -12.2625 103.244 61.4407 25.0 0.0248868 0.0750446 0.260785 0.0540362 0.180591 0.0960216 0.235389 0.0455304 0.0230827 0.321731 0.03114 0.327859 0.0421543 0.215657
681 3 -10.6661 103.163 61.2619 22.0 0.0233621 0.0592182 0.16789 0.0364019 0.121443 0.0397294 0.203485 0.0278779 0.01478 0.187344 0.0568165 0.336119 0.0600073 0.213416
683 3 -12.7897 104.096 60.2496 22.0 0.0223463 0.0613498 0.111609 0.064792 0.145633 0.0680137 0.196588 0.00853323 0.0264176 0.177163 0.0528313 0.326073 0.0692112 0.200677
698 1 -11.3852 107.272 59.6818 28.0 0.0167396 0.0255493 0.22973 0.0318152 0.144472 0.0352148 0.246004 0.0400233 0.0497862 0.07013 0.0526046 0.293453 0.0761218 0.284198
1884 1 -5.951 99.0143 58.577 25.0 0.0410952 0.0943997 0.114416 0.0555738 0.168825 0.06711 0.202695 0.0323549 0.0408569 0.115037 0.0458656 0.258105 0.0428605 0.242409
1885 2 -8.2259 100.786 58.6251 25.0 0.00864769 0.0484872 0.198962 0.0496062 0.120837 0.0643713 0.198534 0.0432473 0.0189482 0.32451 0.0372811 0.314229 0.0344325 0.223458
1886 3 -4.98255 100.969 58.7149 23.0 0.0250024 0.0610516 0.193531 0.0562461 0.113264 0.0593603 0.187273 0.020398 0.0404719 0.176224 0.034947 0.338114 0.067451 0.193497
1888 3 -7.79876 100.268 57.1071 24.0 0.0166595 0.0965054 0.137642 0.0550772 0.132412 0.0624772 0.196852 0.0184373 0.0195805 0.144174 0.0853781 0.349371 0.0778118 0.195831
1889 3 -7.45213 99.8837 59.6509 23.0 0.0290419 0.0693938 0.126398 0.0771466 0.128781 0.0568485 0.198526 0.0128427 0.0289157 0.14183 0.0350947 0.331485 0.0522468 0.183318
1898 1 -9.01373 99.8305 55.5478 25.0 0.0417574 0.0857155 0.146809 0.0444004 0.162699 0.0526621 0.23644 0.0511459 0.0293835 0.0914064 0.0529411 0.29008 0.0729507 0.291514
1901 3 -5.3495 101.613 55.474 24.0 0.0380508 0.0551059 0.146703 0.0356997 0.158197 0.0559321 0.180592 0.0195795 0.0179679 0.123571 0.0517204 0.345549 0.0800476 0.201084
1903 3 -5.30087 98.6942 56.7456 23.0 0.0322978 0.0819288 0.185845 0.0349683 0.161156 0.0424939 0.235808 0.00872681 0.0145447 0.144234 0.0623769 0.371403 0.0561947 0.221321
1904 1 -7.07993 102.213 54.2333 27.0 0.014815 0.0698678 0.204698 0.0447337 0.160932 0.0438672 0.191389 0.0391732 0.0354834 0.137997 0.0401112 0.260385 0.087977 0.289971
1905 1 -7.45088 105.046 54.8146 24.0 0.0127339 0.1414 0.136874 0.0673577 0.105271 0.0525214 0.175283 0.0541437 0.0412116 0.0591675 0.0395019 0.272911 0.0548425 0.240435
1906 2 -4.88222 103.192 55.7295 24.0 0.0328037 0.0401832 0.218061 0.0691185 0.115439 0.0558282 0.163247 0.0485246 0.0185023 0.330957 0.028437 0.311215 0.0313229 0.226153
1907 3 -8.14255 103.234 55.6626 26.0 0.0190965 0.0347241 0.186978 0.032805 0.132957 0.0468416 0.179007 0.0180905 0.0303506 0.127436 0.0528561 0.308116 0.0558567 0.181274
1908 3 -7.23242 106.91 55.19 22.0 0.0426433 0.0701856 0.230027 0.0371258 0.145873 0.0550505 0.210412 0.0171597 0.0258542 0.113143 0.0521021 0.315712 0.0554162 0.17236
1909 3 -5.76842 103.802 54.4688 20.0 0.019183 0.0654009 0.161706 0.0525099 0.148278 0.0413973 0.188958 0.0159743 0.0238308 0.115513 0.0602925 0.300156 0.0707661 0.164564
1910 1 -6.31435 101.503 57.0936 24.0 0.0341333 0.0585279 0.198738 0.0418766 0.0991833 0.0430286 0.16073 0.0315418 0.0593987 0.0977006 0.0531103 0.248949 0.071595 0.237143
1911 3 -5.48229 103.298 57.201 23.0 0.0397883 0.0440474 0.158675 0.0814797 0.0881253 0.0677615 0.153422 0.0160504 0.0287385 0.15792 0.050382 0.310676 0.0449492 0.172106
1919 1 -6.88933 104.227 58.4523 27.0 0.0259467 0.0885596 0.109571 0.0667154 0.103052 0.0528066 0.153229 0.0441432 0.0363435 0.0757835 0.049439 0.286064 0.0783943 0.211195
1920 2 -9.21045 106.137 58.024 27.0 0.0135119 0.0588137 0.200905 0.0708669 0.11742 0.0538497 0.192106 0.0481583 0.0373542 0.338318 0.0514483 0.320504 0.053487 0.23443
1921 3 -7.68345 106.129 58.0821 27.0 0.010874 0.0357825 0.209611 0.0344891 0.13291 0.0435256 0.18282 0.0256456 0.0192055 0.152084 0.0341292 0.330803 0.0477862 0.194348
1922 3 -7.67677 102.283 58.549 23.0 0.028262 0.0239683 0.228813 0.0446181 0.0989231 0.0383445 0.158274 0.0123821 0.0348238 0.188129 0.0477842 0.327042 0.0553406 0.18452
1923 3 -9.74321 105.777 56.6334 23.0 0.0237425 0.0668323 0.172058 0.0580803 0.132521 0.0540471 0.163997 0.020171 0.031996 0.112072 0.0514159 0.30101 0.0483273 0.155534
1925 3 -5.26085 105.44 59.2814 21.0 0.0199327 0.0770216 0.147691 0.0788466 0.13119 0.0421331 0.206438 0.00786859 0.027056 0.170845 0.0569919 0.34287 0.0535023 0.19605
2052 3 -8.10397 101.771 61.4451 21.0 0.0311534 0.0529685 0.193956 0.0276943 0.159412 0.0459626 0.206846 0.0160674 0.0313631 0.143798 0.0581285 0.333149 0.0663232 0.202768
2055 1 -9.49455 102.953 59.4386 24.0 0.0388425 0.0610169 0.198173 0.0569477 0.135267 0.0571409 0.201674 0.0254283 0.038129 0.0958191 0.0544369 0.226995 0.0570942 0.220018
2056 1 -9.42399 105.193 61.2499 26.0 0.0326998 0.113511 0.122204 0.0546241 0.16394 0.0707248 0.23082 0.0370577 0.0258284 0.0691623 0.0328618 0.284404 0.0697511 0.279984
2057 2 -7.3878 103.229 61.4477 24.0 0.0252269 0.0492347 0.273069 0.0711455 0.173633 0.0718932 0.227022 0.0452243 0.0193861 0.322157 0.0293785 0.323781 0.0398062 0.214505
2058 3 -5.78758 103.132 61.3047 21.0 0.0270497 0.0683569 0.190945 0.0329928 0.114979 0.0511889 0.18212 0.0255544 0.0160026 0.189794 0.064198 0.338965 0.0619989 0.212646
2060 3 -7.89516 104.127 60.2219 22.0 0.0221812 0.0569093 0.113449 0.0715688 0.138526 0.0644381 0.202656 0.00753292 0.0261629 0.181324 0.0562015 0.33214 0.0719803 0.204078
2075 1 -6.47216 107.213 59.6678 27.0 0.0181578 0.0296901 0.226034 0.0317011 0.138462 0.0384256 0.239504 0.0402618 0.028761 0.0718068 0.0305556 0.310792 0.0514172 0.257905
546 3 -14.4333 105.866 56.6776 23.0 0.0216319 0.0676402 0.158402 0.0685857 0.148641 0.0622586 0.167032 0.0162817 0.0263442 0.116429 0.0504887 0.307872 0.0593661 0.161779
3300 3 -4.68802 105.861 56.6929 25.0 0.0207172 0.052805 0.169118 0.0528418 0.125034 0.0633614 0.175102 0.0173658 0.0282243 0.114947 0.0603076 0.30667 0.0702156 0.157984
10168 2 24.0285 103.283 55.7278 25.0 0.0276583 0.0586533 0.252037 0.0584984 0.136483 0.0571892 0.192761 0.0457122 0.0213895 0.325773 0.0378697 0.322703 0.0503119 0.228652
3151 3 -3.86435 105.525 53.3326 23.0 0.0190446 0.0612315 0.18752 0.0595524 0.142545 0.048416 0.201112 0.0134662 0.0261462 0.110892 0.0572414 0.310005 0.0737376 0.201743
10036 3 20.3317 105.48 53.5336 24.0 0.0311444 0.0904121 0.165299 0.0503098 0.15665 0.0335658 0.237494 0.0126942 0.0193347 0.110268 0.0437563 0.331723 0.0638982 0.206137
4528 3 0.885055 105.601 53.2849 23.0 0.0234297 0.0908418 0.21512 0.0496219 0.172416 0.0478911 0.218403 0.0122477 0.0219182 0.0982957 0.0451836 0.295185 0.0730188 0.20404
3115 3 -3.33175 100.516 53.8819 22.0 0.0200541 0.109993 0.151048 0.0438328 0.160922 0.0550684 0.227284 0.0147719 0.014544 0.116656 0.0413165 0.370729 0.0662229 0.229693
3261 1 -1.04788 98.9923 58.7026 26.0 0.0375951 0.0827156 0.100785 0.0624944 0.161595 0.0693176 0.202246 0.0349096 0.0268763 0.136961 0.0496298 0.265378 0.0497802 0.254718
3262 2 -3.45299 100.679 58.6673 22.0 0.0155391 0.105064 0.190963 0.0341895 0.113231 0.0744246 0.185158 0.0418386 0.0206704 0.319132 0.0362969 0.3118 0.0389288 0.217282
3263 3 -0.16079 100.883 58.8851 24.0 0.0259546 0.0483242 0.175053 0.0594883 0.127527 0.0393626 0.197743 0.0236294 0.0426754 0.175093 0.0481099 0.34284 0.0733489 0.191645
3265 3 -2.97091 100.219 57.1777 28.0 0.0259176 0.0822762 0.14743 0.0608297 0.136998 0.0462053 0.17846 0.0205504 0.0191058 0.148709 0.0814212 0.348717 0.0764657 0.198538
3266 3 -2.64519 99.8201 59.6546 23.0 0.0194556 0.0761875 0.135946 0.0681801 0.131357 0.0649247 0.209289 0.0148255 0.0318463 0.139686 0.0341428 0.329679 0.0571656 0.177237
3275 1 -4.12698 99.8484 55.4823 27.0 0.0482106 0.0799145 0.107803 0.0510813 0.17374 0.0430483 0.198511 0.0547392 0.0325908 0.0833707 0.0557448 0.306788 0.0686631 0.28958
3278 3 -0.627884 101.623 55.7305 27.0 0.0337324 0.0494294 0.143589 0.0398861 0.164019 0.047654 0.168834 0.0219327 0.0380565 0.150805 0.0648531 0.334601 0.0877573 0.191592
3280 3 -0.487357 98.7859 56.8237 24.0 0.0384197 0.0652956 0.160236 0.0520072 0.162855 0.0440162 0.213969 0.00915779 0.0122737 0.158332 0.0631889 0.379034 0.0547212 0.228368
3281 1 -2.157 102.043 54.3273 25.0 0.0154028 0.0729987 0.184823 0.046277 0.179207 0.0471654 0.20284 0.0384062 0.0299678 0.145943 0.0413317 0.265822 0.089028 0.294961
3282 1 -2.65413 104.949 54.8301 25.0 0.0111376 0.126578 0.157778 0.0606087 0.133365 0.0519765 0.19793 0.0569663 0.0392833 0.0839626 0.0312319 0.279191 0.0491466 0.241208
3283 2 -0.164764 103.218 55.8673 25.0 0.0342547 0.0604148 0.218553 0.0783093 0.155859 0.0474793 0.181643 0.0466423 0.0296451 0.322338 0.0424463 0.31429 0.0510095 0.221229
3284 3 -3.38005 103.3 55.5992 24.0 0.0187484 0.0438789 0.192318 0.0369057 0.138104 0.0420668 0.178691 0.0202142 0.0306303 0.117635 0.0533082 0.290625 0.0623812 0.176538
3285 3 -2.20889 106.828 55.0416 22.0 0.0383604 0.0791501 0.245725 0.0363408 0.163404 0.0537473 0.248142 0.0192507 0.0261682 0.106544 0.0522118 0.313747 0.0549434 0.176526
3286 3 -1.02624 103.82 54.6348 21.0 0.0192743 0.0723486 0.148643 0.0459396 0.165313 0.0451144 0.200674 0.0159919 0.0268591 0.108209 0.0521897 0.298181 0.0601841 0.167732
3287 1 -1.4983 101.438 57.3577 23.0 0.0352691 0.0590961 0.191077 0.0398148 0.117997 0.0493267 0.152182 0.0285101 0.0436812 0.093803 0.0606151 0.256971 0.0663334 0.230853
3288 3 -0.737132 103.395 57.3645 23.0 0.0449349 0.0534828 0.168227 0.0785334 0.124097 0.0700651 0.162919 0.0202844 0.0228678 0.159373 0.0504442 0.301655 0.0441972 0.162273
3296 1 -2.05155 104.277 58.6115 27.0 0.0309385 0.0812694 0.116387 0.0700272 0.112027 0.0569041 0.146936 0.036824 0.0313385 0.0788408 0.0501224 0.287818 0.0863703 0.209613
3297 2 -4.32815 106.212 58.1734 26.0 0.0140084 0.0365696 0.183636 0.0613307 0.110244 0.0482342 0.186365 0.0462267 0.038959 0.331573 0.0477243 0.32019 0.0583549 0.227407
3298 3 -2.74358 106.187 58.2553 25.0 0.0118085 0.0435475 0.214924 0.0430768 0.134205 0.0545891 0.193235 0.0170966 0.0134862 0.138545 0.0355605 0.32816 0.0475842 0.189391
3299 3 -2.8284 102.246 58.652 23.0 0.0362582 0.0314461 0.237228 0.0500182 0.121228 0.0611447 0.147982 0.0216147 0.031535 0.179393 0.035262 0.320027 0.0477693 0.182307
3302 3 -0.382661 105.524 59.4044 22.0 0.0191701 0.0717791 0.150724 0.0833489 0.136504 0.0420135 0.193262 0.0137857 0.0366769 0.149067 0.0732884 0.342096 0.0637118 0.186102
3429 3 -3.30507 101.757 61.523 20.0 0.0349755 0.0530787 0.19008 0.033678 0.155469 0.0475005 0.203157 0.0165192 0.0354442 0.133219 0.0535047 0.328381 0.0685626 0.199442
3432 1 -4.7409 102.9 59.3787 23.0 0.0475362 0.0758421 0.20397 0.0582212 0.117986 0.0692636 0.203419 0.0314848 0.0432638 0.0804956 0.0633539 0.238834 0.0709521 0.203391
3433 1 -4.56977 105.122 61.4491 28.0 0.0319241 0.114511 0.119061 0.0580549 0.158577 0.0721836 0.232978 0.038495 0.0336099 0.0676747 0.0256422 0.290766 0.0637032 0.268982
3434 2 -2.57401 103.17 61.502 24.0 0.0407648 0.0743835 0.290644 0.0473697 0.1859 0.0759702 0.245303 0.0457434 0.0187331 0.325209 0.0312962 0.316832 0.0419289 0.215536
3435 3 -1.03036 103.097 61.2414 23.0 0.0288626 0.0560277 0.178319 0.0335961 0.121577 0.0442559 0.19242 0.0255224 0.0106908 0.183643 0.062348 0.345521 0.0596453 0.208462
3437 3 -3.14371 104.106 60.3588 22.0 0.0271257 0.0582655 0.119167 0.0702617 0.135812 0.0742494 0.192542 0.0087992 0.0272085 0.17068 0.0588503 0.332994 0.0689066 0.201296
3452 1 -1.66858 107.128 59.7977 27.0 0.019898 0.0282361 0.235642 0.027481 0.145885 0.0403207 0.249646 0.0413482 0.0479505 0.067664 0.0410092 0.306052 0.0680849 0.266908
4492 3 1.44274 100.481 53.8463 23.0 0.0262232 0.0906561 0.148389 0.0483039 0.170165 0.0521133 0.239719 0.0138531 0.0143496 0.130033 0.0412452 0.356461 0.0731323 0.219415
4638 1 3.82799 98.9398 58.8499 25.0 0.0354302 0.114764 0.12929 0.0493848 0.157019 0.0719233 0.211946 0.0374013 0.0289078 0.13521 0.0562644 0.258652 0.0584172 0.256523
4639 2 1.41495 100.601 58.6741 24.0 0.00906066 0.0977236 0.158332 0.0414261 0.153357 0.0696462 0.18145 0.040293 0.0219341 0.323125 0.03374 0.308015 0.0447186 0.224526
4640 3 4.79818 100.898 58.979 23.0 0.021663 0.0485427 0.1765 0.0509159 0.131335 0.0414896 0.20133 0.0240091 0.0423021 0.165526 0.0531935 0.338657 0.0828959 0.17858
4642 3 1.85846 100.255 57.1769 25.0 0.0193692 0.0823335 0.136226 0.0645468 0.154342 0.0583998 0.182215 0.0197448 0.0138366 0.1594 0.0737262 0.347637 0.0751625 0.19675
4643 3 2.2169 99.7713 59.7073 24.0 0.0310822 0.0736055 0.127642 0.068625 0.149678 0.0570678 0.203947 0.0125821 0.0278329 0.142776 0.0448966 0.329041 0.0608353 0.173787
4652 1 0.695673 99.9381 55.6078 28.0 0.0442017 0.081223 0.13215 0.0639794 0.169311 0.0488534 0.207692 0.0375817 0.0244685 0.10731 0.0480448 0.279426 0.0695485 0.277758
4655 3 4.25081 101.647 55.7381 25.0 0.0352608 0.057483 0.135512 0.0438162 0.15773 0.0430613 0.171962 0.0183743 0.0368618 0.150728 0.064788 0.331602 0.0875401 0.185299
4656 3 4.17155 98.6223 54.3105 25.0 0.0345005 0.0940067 0.172368 0.0534244 0.182208 0.0436679 0.248413 0.0106501 0.0137088 0.137041 0.0591105 0.387508 0.0634307 0.247846
4657 3 4.31043 98.7495 56.8578 24.0 0.0396579 0.0850926 0.165412 0.0476798 0.173571 0.0540067 0.215777 0.00779831 0.0126571 0.146292 0.0614999 0.363217 0.0508431 0.219825