ITEM: TIMESTEP
93200
ITEM: NUMBER OF ATOMS
5600
ITEM: BOX BOUNDS xy xz yz pp pp pp
0	7.1235	0
0	201.985	2.3745
0	119.584	0
ITEM: ATOMS id type element xu yu zu q Q_1 Q_2 Q_3 Q_4 Q_5 Q_6 Q_7 Q_8 Q_9 Q_10 Q_11 Q_12 Q_13 Q_14 Q_15 Q_16 Q_17 Q_18 Q_19 Q_20 Q_21
1 1 Mg -1.54527 47.5681 -1.49487 1.2 1 0.439895 0.0600218 0.103005 0.0542244 0.0578065 0.0581915 0.0612839 0.0609153 0.0776262 0.0855167 0.0757404 0.0838652 0.0967966 0.0901964 0.101211 0.107967 0.110546 0.087025 0.0905497 0.0980027
2 1 Mg 2.47666 50.148 1.34146 1.2 1 0.213402 0.110996 0.0327892 0.0418821 0.0437862 0.042208 0.0390731 0.0724756 0.0582923 0.048977 0.0784755 0.0509363 0.0771054 0.0924547 0.0808049 0.0736881 0.0879296 0.0978677 0.0867932 0.0748385
3 2 Si 0.523039 49.394 -0.719669 2.4 1 0.272619 0.112089 0.0324546 0.0462718 0.05005 0.0347428 0.0760175 0.0513561 0.0755383 0.0689837 0.0663661 0.0577775 0.0690765 0.0681849 0.106144 0.0737045 0.0879292 0.0744915 0.0564758 0.0900004
4 3 O 1.63923 48.1683 -0.598215 -1.2 1 0.394678 0.0792022 0.0785945 0.0666031 0.0411191 0.0661389 0.0475068 0.0776783 0.0542388 0.0687924 0.0591516 0.0744632 0.0692844 0.0669501 0.0877218 0.103605 0.0851184 0.0862786 0.0762202 0.0951823
5 3 O -1.35098 51.9806 0.9115 -1.2 1 0.104577 0.0501515 0.0519533 0.0220468 0.0324627 0.0370286 0.0502032 0.0477583 0.0609782 0.0565961 0.0550941 0.0615182 0.0528204 0.0737737 0.0825465 0.0815201 0.0701849 0.0798329 0.0575827 0.08184
6 3 O -0.366574 49.0605 -1.96496 -1.2 1 0.287442 0.123412 0.0323391 0.0774647 0.0264878 0.052718 0.0478503 0.0399425 0.075406 0.0712176 0.0710586 0.0981062 0.0869104 0.0764865 0.0981743 0.0810152 0.0565607 0.0905133 0.0745616 0.0928001
7 1 Mg -2.12664 57.6584 2.52412 1.2 1 0.0177532 0.0154852 0.0130773 0.0378093 0.021105 0.0370358 0.0387173 0.056517 0.0433845 0.0632995 0.0320805 0.0551974 0.0439051 0.0707155 0.047761 0.0954209 0.0658401 0.0806878 0.0583302 0.0671023
8 3 O -0.20682 49.4239 0.705867 -1.2 1 0.281193 0.122431 0.0405632 0.0343217 0.0337498 0.0458192 0.0741891 0.0650662 0.0686602 0.0761728 0.0642531 0.0617085 0.0506869 0.0746379 0.0886395 0.0705901 0.0830075 0.0908958 0.0857657 0.0973216
9 1 Mg -2.3134 54.5224 4.08021 1.2 1 0.0195415 0.0104441 0.0188224 0.025249 0.0216001 0.0329737 0.0336473 0.0439045 0.0430894 0.0585056 0.061629 0.0590338 0.058168 0.064933 0.075747 0.0570631 0.0805313 0.0797409 0.0687275 0.0707204
10 2 Si 0.57513 56.8937 4.11403 2.4 1 0.0238768 0.0243229 0.0248372 0.0351817 0.0333658 0.042121 0.0419383 0.0449395 0.0555684 0.0596656 0.0403468 0.0701831 0.0687076 0.0583314 0.0687341 0.0692094 0.0661363 0.0913332 0.0546167 0.0717408
11 3 O -1.08021 56.879 4.07573 -1.2 1 0.0229679 0.0362527 0.0154616 0.0212571 0.0346294 0.0360972 0.0415416 0.0713195 0.0394933 0.0559095 0.0485677 0.0762615 0.0505506 0.0819044 0.0723992 0.0690056 0.0629173 0.0694392 0.0660642 0.0704164
12 3 O 1.41871 52.9161 4.51368 -1.2 1 0.0465134 0.0429969 0.0391154 0.0269526 0.0324071 0.0379419 0.047128 0.0437658 0.0627464 0.0453543 0.0535503 0.0579889 0.07677 0.0704128 0.0856004 0.0679711 0.0754429 0.0685718 0.0518717 0.0713633
13 3 O 1.15287 56.0893 2.65817 -1.2 1 0.0307056 0.00554984 0.0267655 0.00980822 0.0182224 0.0239844 0.0507267 0.0548396 0.0426778 0.0487549 0.0599161 0.0472267 0.0627423 0.0733534 0.100169 0.0769189 0.077995 0.0669425 0.0464476 0.0782029
14 3 O 1.17185 56.3772 5.33906 -1.2 1 0.0122392 0.0140269 0.0222048 0.0244291 0.0232106 0.0327906 0.0535568 0.0392211 0.0471763 0.0390993 0.0458484 0.071068 0.0454267 0.0705931 0.0820002 0.0654553 0.0924279 0.0607232 0.0729322 0.050465
15 1 Mg -0.184726 52.2625 2.35911 1.2 1 0.0817697 0.0714027 0.0412651 0.018504 0.0253216 0.0259696 0.0509805 0.0606381 0.0473542 0.0501457 0.0502691 0.0596515 0.0551264 0.0671551 0.0601414 0.0775796 0.080175 0.0911025 0.0674634 0.0729436
16 1 Mg 0.554811 48.7929 2.35857 1.2 1 0.321521 0.114622 0.0365394 0.0645123 0.0481634 0.0613239 0.0652377 0.0532484 0.069562 0.0886367 0.0637668 0.0759699 0.04923 0.0711429 0.0965531 0.0861717 0.0865681 0.0879545 0.0691262 0.090245
17 2 Si 2.06636 51.4201 4.03093 2.4 1 0.109972 0.0902384 0.0486846 0.0277782 0.0294729 0.0469192 0.0516535 0.0426662 0.0604546 0.0707838 0.0653443 0.0731147 0.0717175 0.076894 0.0802197 0.0738988 0.0860726 0.0926211 0.0664071 0.0568283
18 3 O -1.19489 51.7262 3.85071 -1.2 1 0.120702 0.0791924 0.0500756 0.0286624 0.0392126 0.028581 0.0573855 0.0626585 0.0306473 0.0687212 0.0680089 0.0696642 0.055505 0.0713138 0.0779519 0.0865229 0.0769368 0.0748779 0.0669605 0.0768134
19 3 O 2.61223 48.262 2.22452 -1.2 1 0.388799 0.0844866 0.075237 0.0632913 0.0474318 0.0523379 0.0509752 0.0800417 0.0651925 0.0880943 0.0560956 0.0602049 0.0674689 0.0882408 0.110465 0.104614 0.0629133 0.0862521 0.0763742 0.0959085
20 3 O 1.52741 51.017 2.71394 -1.2 1 0.151256 0.100506 0.0263357 0.0278128 0.0291619 0.0408136 0.0408103 0.0669322 0.0709801 0.0597983 0.0560045 0.0700198 0.0778699 0.0708567 0.0837401 0.080213 0.0914463 0.0826557 0.0691658 0.0782804
21 1 Mg -0.0525112 52.6114 -0.66856 1.2 1 0.0648417 0.0470473 0.0430523 0.0271996 0.0228373 0.0343172 0.0312277 0.0560593 0.0513636 0.057916 0.0560159 0.0564912 0.0485118 0.0664513 0.0684477 0.0878338 0.0742606 0.0814906 0.0721626 0.0718449
22 3 O 1.39704 50.2736 5.19678 -1.2 1 0.207797 0.115413 0.0194565 0.0611527 0.0328237 0.0420701 0.0482676 0.067779 0.0578331 0.0460783 0.0701808 0.0587473 0.0587222 0.0882361 0.0811462 0.0647691 0.0830811 0.0882855 0.0750104 0.0729555
23 1 Mg 0.0246596 55.4199 1.14766 1.2 1 0.022504 0.0159846 0.0251519 0.0358282 0.0137576 0.0316722 0.0363421 0.0438735 0.0438104 0.0469056 0.0565069 0.0625036 0.0606368 0.062384 0.0705468 0.0861596 0.0742801 0.0776552 0.0799837 0.0845292
24 2 Si -2.07864 53.506 0.92818 2.4 1 0.021881 0.0231747 0.0292802 0.0246045 0.0299597 0.0436736 0.0475716 0.0511181 0.0540614 0.0563593 0.0638958 0.0549334 0.0848371 0.0612099 0.0649108 0.0748203 0.0745372 0.0622401 0.0556684 0.0744443
25 3 O 1.1768 53.2661 1.00563 -1.2 1 0.0331158 0.0391699 0.0295784 0.018704 0.0274542 0.0381456 0.0353866 0.058445 0.0561282 0.0559855 0.051709 0.0597989 0.0674935 0.0645347 0.0827927 0.0717961 0.0608372 0.0802013 0.0621394 0.0694213
26 3 O -0.929321 57.3351 1.00972 -1.2 1 0.027155 0.0319392 0.0186902 0.0276827 0.015814 0.0371327 0.0415471 0.0415006 0.0530945 0.0444412 0.0462567 0.0509922 0.0569387 0.0697262 0.100219 0.0811015 0.0704837 0.0644062 0.0639659 0.0663541
27 3 O -1.30149 54.4343 -0.184677 -1.2 1 0.0302973 0.0185527 0.0174778 0.0284531 0.0201212 0.0367365 0.0507976 0.0507337 0.0309752 0.0483362 0.0672796 0.0449291 0.0639874 0.0661793 0.0729621 0.0851117 0.0676516 0.0727713 0.0543582 0.0668789
28 3 O -1.2767 54.0419 2.4565 -1.2 1 0.0310995 0.024875 0.0264043 0.028283 0.0272302 0.0280277 0.0546871 0.0415462 0.0495806 0.0415827 0.0688031 0.0443535 0.0577925 0.0675643 0.109363 0.0533012 0.078347 0.0723972 0.0633777 0.0643581
29 1 Mg -2.17628 58.0617 -0.593314 1.2 1 0.0299714 0.0213533 0.0131762 0.0236927 0.0250597 0.0353105 0.0304377 0.0558652 0.0374249 0.0633355 0.0403896 0.0383841 0.043999 0.0653169 0.0463878 0.0870451 0.0744758 0.0966312 0.0642821 0.0768021
30 1 Mg 2.28544 60.6395 1.388 1.2 1 0.015381 0.0202711 0.025968 0.0371256 0.0207736 0.0355237 0.0351081 0.0331659 0.0543272 0.053639 0.0644015 0.0550786 0.0554552 0.0627518 0.0650418 0.0898933 0.059371 0.0948511 0.0659915 0.0744598
31 2 Si -0.20832 58.8136 1.167 2.4 1 0.0208321 0.0101067 0.0164457 0.0385146 0.0330221 0.0362877 0.0419998 0.0346209 0.0573456 0.0594957 0.0538655 0.0694408 0.0624896 0.0737266 0.0826486 0.0639405 0.0611463 0.0856504 0.0636606 0.0649741
32 3 O 1.30155 58.7905 1.15544 -1.2 1 0.0180783 0.011615 0.0140633 0.0332039 0.0307833 0.0309442 0.0369325 0.0694297 0.0451938 0.0664934 0.0370865 0.0700596 0.0519859 0.0685052 0.0711686 0.0695023 0.064116 0.0744234 0.0525358 0.0675645
33 3 O -1.39422 62.7519 1.62993 -1.2 1 0.00954195 0.0151082 0.0136976 0.0220065 0.0200927 0.0336268 0.0433533 0.0508397 0.0577065 0.0386184 0.0572936 0.0463049 0.0583077 0.0805325 0.0853186 0.0796696 0.0689653 0.0666688 0.0646162 0.0567504
34 3 O -0.952115 59.6571 -0.0496084 -1.2 1 0.0295905 0.020358 0.0221087 0.0199949 0.0273376 0.0316789 0.0408438 0.0502424 0.0378468 0.0569796 0.0552039 0.0468821 0.0580919 0.0725415 0.0851461 0.0693002 0.0695172 0.0672136 0.0601708 0.0662175
35 1 Mg -2.61299 68.0663 3.01591 1.2 1 0.00685818 0.0204891 0.0161636 0.0321206 0.0288353 0.030318 0.0356909 0.0518302 0.0542597 0.0554817 0.0528776 0.0517811 0.0562333 0.0523713 0.0666079 0.0740453 0.0869873 0.0744365 0.0698795 0.0677348
36 3 O -1.02833 59.4053 2.50334 -1.2 1 0.0218417 0.0231617 0.0258476 0.022292 0.0310919 0.028631 0.0495054 0.046081 0.0471206 0.0375679 0.0525852 0.0452757 0.0511584 0.0713552 0.0862407 0.067762 0.0805556 0.0567608 0.0643608 0.0616966
37 1 Mg -2.61575 65.1632 4.62393 1.2 1 0.0133258 0.016222 0.0250429 0.024365 0.0272613 0.0262833 0.0295218 0.0358444 0.0479798 0.0561649 0.0553759 0.0655291 0.0613448 0.0737893 0.0689624 0.0609271 0.0869204 0.0921767 0.0657607 0.0820179
38 2 Si 0.157987 67.2529 4.5692 2.4 1 0.0266195 0.0168842 0.0186825 0.021708 0.0430804 0.0331084 0.0338879 0.0405536 0.053329 0.0566772 0.0527922 0.0684897 0.0621448 0.072058 0.0763814 0.0706504 0.0647687 0.0665428 0.0679065 0.0668175
39 3 O -1.31696 67.6087 4.52176 -1.2 1 0.0250373 0.0275719 0.0131 0.019676 0.0301002 0.0310352 0.0346148 0.0831192 0.0454781 0.0490842 0.0376077 0.0588399 0.0624115 0.0709203 0.0719611 0.0669513 0.0552292 0.0653821 0.0581565 0.0672554
40 3 O 1.41021 63.4282 4.48356 -1.2 1 0.0201839 0.014845 0.0221632 0.0279517 0.0188839 0.0353559 0.0422239 0.0528973 0.0556311 0.0360222 0.0600791 0.0454216 0.0611058 0.0708516 0.0868817 0.0887214 0.0673569 0.0639626 0.0713877 0.0603741
41 3 O 0.752617 66.4539 3.26822 -1.2 1 0.042186 0.0145124 0.0221809 0.0156334 0.0321958 0.0360167 0.0457995 0.044518 0.0378702 0.0549178 0.0549271 0.0488636 0.0571148 0.0683457 0.0792344 0.0841172 0.0662602 0.0601607 0.0647173 0.0717715
42 3 O 0.807933 66.6724 5.77387 -1.2 1 0.0131755 0.0186748 0.0289218 0.0295736 0.0294018 0.0273134 0.0577648 0.0485601 0.0403035 0.0468158 0.0606358 0.0454698 0.0546732 0.0830992 0.0805299 0.0886529 0.0767257 0.0532854 0.0604505 0.0769863
43 1 Mg -0.0267362 63.2318 3.17341 1.2 1 0.00982677 0.0214382 0.0104281 0.0287588 0.020214 0.0335139 0.0207348 0.0594746 0.0298592 0.0759348 0.0425759 0.051669 0.0391369 0.0716447 0.0470202 0.097725 0.0562278 0.0935545 0.0568902 0.0735446
44 1 Mg -0.192023 60.1888 4.23962 1.2 1 0.0173926 0.0180831 0.0165451 0.0316653 0.0187149 0.0310087 0.0357339 0.0429766 0.049352 0.0519728 0.0704408 0.0661868 0.0654041 0.0730721 0.0640118 0.0786249 0.0669979 0.0896782 0.0808742 0.0769384
45 2 Si 2.07992 61.8534 4.5012 2.4 1 0.0082956 0.0239383 0.0179385 0.0327086 0.0364175 0.0333641 0.0464892 0.0408231 0.0654779 0.0558178 0.0618125 0.0681007 0.0719659 0.0707416 0.0674679 0.0706668 0.0600871 0.0794786 0.0655659 0.0627001
46 3 O -1.0772 62.2031 4.55772 -1.2 1 0.0309793 0.0278478 0.0163634 0.0187161 0.0203172 0.0223436 0.0325532 0.0716167 0.0485946 0.0644559 0.048285 0.0639377 0.0586778 0.0652421 0.0700249 0.0657552 0.0626017 0.0733832 0.0514139 0.0673419
47 3 O 1.11416 58.2614 4.02346 -1.2 1 0.0295979 0.015767 0.0173241 0.0176639 0.0214618 0.0368498 0.0428492 0.0454863 0.0568132 0.0446248 0.0457624 0.0505773 0.0642727 0.0705966 0.0926442 0.0788063 0.076598 0.0654123 0.0667222 0.0427695
48 3 O 1.38164 61.1494 3.23736 -1.2 1 0.00919564 0.0219738 0.025348 0.0278627 0.0375073 0.0251365 0.0505936 0.0428839 0.0380336 0.0446981 0.0579032 0.0404047 0.063447 0.0582397 0.0898829 0.0819072 0.0685574 0.0690833 0.0658057 0.05754
49 1 Mg 0.133416 63.3509 -0.0659352 1.2 1 0.0147157 0.0174648 0.0128396 0.02869 0.0165277 0.0408481 0.0202062 0.0550898 0.0302412 0.0815551 0.0292151 0.0552155 0.0338241 0.0749954 0.0367231 0.093563 0.0518245 0.102013 0.0581183 0.0795931
50 3 O 1.6309 61.2694 5.82376 -1.2 1 0.0445832 0.0295562 0.0145001 0.0183172 0.0350409 0.0274198 0.0512685 0.0485619 0.0372549 0.0588738 0.0611948 0.0446062 0.0551653 0.0800631 0.0710723 0.0858874 0.0721485 0.0692141 0.0608352 0.0682382
51 1 Mg -0.27235 66.2563 1.42387 1.2 1 0.0173157 0.0198466 0.0193566 0.0304582 0.0237458 0.0261104 0.0284742 0.0385861 0.0539961 0.0551268 0.0686053 0.0512014 0.0622914 0.0677436 0.0746876 0.0624416 0.0778094 0.0901713 0.0641582 0.0776573
52 2 Si -2.11953 64.1744 1.63842 2.4 1 0.01746 0.0100289 0.0195109 0.0314277 0.0358833 0.0323704 0.0426888 0.0354868 0.0476506 0.055439 0.0533021 0.0654019 0.0763239 0.0641092 0.0768104 0.0749748 0.0655044 0.0837991 0.0737224 0.0658752
53 3 O 1.14782 64.0937 1.56455 -1.2 1 0.0143121 0.0232651 0.0143546 0.0247667 0.025469 0.0297523 0.0315688 0.0743432 0.0377475 0.0631416 0.0402008 0.0643362 0.056265 0.0749169 0.0841106 0.0614613 0.0545285 0.067441 0.0592661 0.0619649
54 3 O -1.06092 68.0907 1.63681 -1.2 1 0.0111413 0.0195857 0.0229292 0.0306526 0.0220449 0.0333198 0.0482571 0.0512002 0.0571328 0.0350723 0.0494025 0.0540455 0.0631397 0.0852896 0.0912976 0.0658817 0.064943 0.0641128 0.0731376 0.0499377
55 3 O -1.37252 64.8338 0.318059 -1.2 1 0.0150437 0.01543 0.0284526 0.0228433 0.0253155 0.0242646 0.0470112 0.0440241 0.0338964 0.0487529 0.0576914 0.0492856 0.0575323 0.0735332 0.0868608 0.0723619 0.0808892 0.0594432 0.0783573 0.0578365
56 3 O -1.39281 64.7848 2.88925 -1.2 1 0.0228924 0.0353164 0.0226733 0.0233666 0.0376755 0.0264628 0.0570853 0.0533528 0.0493449 0.0436409 0.0589859 0.0433638 0.062854 0.0721668 0.0757627 0.0812372 0.066859 0.051333 0.0608273 0.0705691
57 1 Mg -2.35033 68.8339 -0.0522753 1.2 1 0.00911385 0.0127991 0.0240603 0.0281774 0.0175183 0.037609 0.0254089 0.0556736 0.0399576 0.0647882 0.030659 0.0465211 0.0308764 0.0592227 0.0504731 0.100573 0.0588027 0.103637 0.0525312 0.0843181
58 1 Mg 2.44118 71.6651 1.41618 1.2 1 0.020269 0.0130444 0.0194822 0.0278691 0.0197814 0.036103 0.0276696 0.0373206 0.0519558 0.0548872 0.0515058 0.0638938 0.0453461 0.060687 0.078961 0.0709072 0.0732715 0.0901088 0.0471874 0.083768
59 2 Si -0.390753 69.5514 1.77102 2.4 1 0.0170996 0.0106333 0.0313442 0.0238288 0.0396213 0.034586 0.0416621 0.0400959 0.0577212 0.0459837 0.052418 0.0480795 0.0667082 0.0509615 0.0696815 0.0707171 0.0676448 0.0794848 0.0767125 0.0509964
60 3 O 1.09673 69.3101 1.71868 -1.2 1 0.0134752 0.00859024 0.0251798 0.0195802 0.0350654 0.035394 0.0344301 0.0631273 0.0505654 0.050241 0.0445847 0.0692666 0.0602252 0.0555505 0.0744753 0.0619892 0.0623296 0.0712489 0.0624358 0.0591379
61 3 O -1.33554 73.6326 1.41271 -1.2 1 0.0237879 0.0261514 0.0149994 0.0273614 0.00978297 0.0283651 0.0398423 0.0481156 0.0549993 0.0377794 0.0544921 0.0482126 0.0519743 0.0802316 0.0927011 0.0607088 0.0814176 0.0577343 0.0743951 0.0606657
62 3 O -1.01761 70.294 0.349959 -1.2 1 0.0112831 0.0135012 0.018073 0.0267446 0.0291491 0.0356974 0.0493302 0.0396711 0.0403233 0.0503598 0.0632277 0.0519725 0.0650045 0.0607151 0.0911016 0.0760288 0.0824836 0.0531512 0.0653605 0.0647992
63 1 Mg -2.50199 79.4229 2.9879 1.2 1 0.00549527 0.0285181 0.0136848 0.0355106 0.0137032 0.026765 0.0123149 0.0558343 0.0234627 0.075768 0.0211321 0.0598189 0.0306741 0.0696333 0.0229281 0.102707 0.0233939 0.103336 0.0305445 0.0921037
64 3 O -1.1163 70.5041 2.73623 -1.2 1 0.0112353 0.0265219 0.026062 0.0296771 0.0283077 0.0290506 0.0430249 0.0446052 0.0381795 0.0463936 0.0678056 0.0376019 0.0573929 0.0662166 0.0874727 0.0760281 0.0792908 0.0678762 0.0658034 0.0710529
65 1 Mg -2.29958 76.7658 4.44886 1.2 1 0.00976575 0.0243255 0.0145146 0.0392127 0.0218887 0.0303598 0.0356121 0.0315271 0.055927 0.059892 0.0674357 0.0555161 0.0494472 0.0614099 0.0667359 0.0887445 0.0657034 0.0937076 0.0600817 0.088895
66 2 Si 0.26515 78.6021 4.549 2.4 1 0.00915234 0.0272755 0.0326256 0.0403241 0.0282368 0.0288613 0.0480849 0.0399598 0.0469932 0.0494318 0.055716 0.0664356 0.0686975 0.0695467 0.0752648 0.0655785 0.0667086 0.0821573 0.0607867 0.0662362
67 3 O -1.19573 78.539 4.39725 -1.2 1 0.0135868 0.0267146 0.0214961 0.0183492 0.0211685 0.0325963 0.0335359 0.0662898 0.0423371 0.0483124 0.0451145 0.0734756 0.0598537 0.0724 0.0792688 0.0725168 0.0624436 0.0732144 0.0565641 0.0780828
68 3 O 1.24398 74.7937 4.50785 -1.2 1 0.00847672 0.0143245 0.0181804 0.0262389 0.0257637 0.0365354 0.0379432 0.0466567 0.0527564 0.0469705 0.0337647 0.0507212 0.050068 0.0786973 0.099116 0.0590501 0.0783486 0.0725801 0.0488836 0.0655836
69 3 O 0.988641 77.8951 3.11379 -1.2 1 0.033922 0.0143774 0.0214061 0.0276905 0.0273423 0.0237552 0.045894 0.0468971 0.0427929 0.0359078 0.0516357 0.045161 0.0595181 0.0614603 0.0985751 0.0591479 0.0805332 0.0680153 0.0688894 0.0746177
70 3 O 0.939434 77.8958 5.75738 -1.2 1 0.0113597 0.0206287 0.0205585 0.0235405 0.0265204 0.018619 0.0559028 0.0443586 0.0605088 0.0425812 0.0508662 0.0530528 0.0618832 0.0601854 0.0922104 0.0692243 0.0827607 0.0638567 0.0713693 0.0689414
71 1 Mg -0.0230091 74.2826 3.04503 1.2 1 0.0172047 0.0185563 0.0163745 0.0300219 0.0138668 0.0343847 0.0314198 0.0561063 0.035832 0.0727328 0.0267029 0.0539557 0.0456393 0.0826397 0.0474676 0.0850053 0.0598825 0.100422 0.0582298 0.0698131
72 1 Mg 0.0960265 70.8632 4.54248 1.2 1 0.0167285 0.0138901 0.0280959 0.0294614 0.0178647 0.0419275 0.0318147 0.0376964 0.0498562 0.046511 0.0473339 0.0683422 0.0607606 0.059975 0.0725326 0.0644776 0.0748511 0.0878278 0.0570482 0.080062
73 2 Si 1.96163 73.1084 4.13503 2.4 1 0.00795657 0.0121092 0.0287856 0.0285683 0.0393143 0.0357427 0.0423038 0.0378707 0.055614 0.0502693 0.0604274 0.0621312 0.0799884 0.0521074 0.0776705 0.0642172 0.0732106 0.076622 0.0772112 0.052898
74 3 O -1.22714 73.2743 4.32234 -1.2 1 0.029851 0.0144616 0.020632 0.0261918 0.0341866 0.0298774 0.0307798 0.0692389 0.0432335 0.0517878 0.0468763 0.0755798 0.052669 0.0792314 0.0677715 0.0607833 0.0625051 0.0784332 0.0602515 0.0655463
75 3 O 0.862351 68.69 4.65899 -1.2 1 0.0165764 0.0297925 0.0150262 0.0367022 0.0276413 0.0310271 0.0364835 0.0503652 0.060049 0.0315758 0.055104 0.0409148 0.072093 0.074879 0.0908941 0.0641462 0.0667925 0.0650181 0.0670788 0.0534119
76 3 O 1.43099 72.5509 2.70468 -1.2 1 0.025188 0.0188502 0.0217521 0.0236979 0.036317 0.0353616 0.0449251 0.0449049 0.0488952 0.0526362 0.0628226 0.0453267 0.0564126 0.0660312 0.0880757 0.0613681 0.0809322 0.0633406 0.0705494 0.0610576
77 1 Mg -0.108189 74.243 -0.125743 1.2 1 0.0168676 0.0200422 0.0176474 0.0354542 0.0236933 0.0296344 0.0176949 0.058047 0.0346705 0.077069 0.0359918 0.0515628 0.0385341 0.0812907 0.0475991 0.0894619 0.0496756 0.100076 0.0455379 0.0841093
78 3 O 1.21237 72.3095 5.28237 -1.2 1 0.022775 0.0139664 0.0185577 0.0210858 0.028321 0.0264558 0.0400319 0.0484629 0.0352966 0.0419105 0.0586936 0.0531438 0.0571935 0.0665116 0.0904927 0.0650198 0.0854726 0.0664491 0.0695337 0.0502883
79 1 Mg -0.227642 77.3134 1.332 1.2 1 0.0352579 0.0170687 0.0120921 0.0298496 0.0170426 0.0233063 0.0254517 0.0361891 0.0460656 0.0438353 0.0555176 0.072047 0.0695963 0.059612 0.0736169 0.0594308 0.087399 0.0901782 0.0577398 0.0816209
80 2 Si -2.09258 75.0908 1.34303 2.4 1 0.020607 0.0191684 0.0244975 0.0303719 0.0394618 0.033638 0.0399552 0.0411441 0.0569035 0.0644361 0.0469426 0.0615059 0.0694806 0.0547969 0.0787292 0.0700019 0.0613934 0.0866435 0.0524174 0.0649875
81 3 O 1.15384 75.0926 1.35462 -1.2 1 0.0364859 0.021432 0.0204107 0.0245312 0.037031 0.031302 0.0293914 0.0686788 0.0399621 0.0618547 0.0475705 0.0706895 0.0609006 0.0717754 0.0776216 0.0714681 0.0443256 0.0657242 0.0723346 0.0695936
82 3 O -1.32202 79.1186 1.36713 -1.2 1 0.00407819 0.0214649 0.0222425 0.0225216 0.0180414 0.034353 0.0478976 0.0369892 0.048263 0.0409115 0.0468436 0.0496115 0.061497 0.069396 0.0950752 0.0701673 0.0865271 0.0467145 0.076099 0.0641883
83 3 O -1.59349 75.9283 0.120305 -1.2 1 0.0218788 0.0187364 0.02267 0.0228654 0.0275455 0.0300949 0.0377817 0.0405748 0.0327527 0.0549589 0.0565191 0.0399254 0.0599986 0.093742 0.063408 0.0855615 0.0797513 0.0599394 0.0757562 0.0641712
84 3 O -1.46663 75.7169 2.72663 -1.2 1 0.0187277 0.0236113 0.0231645 0.0216313 0.0411807 0.0262729 0.0512198 0.0438079 0.054864 0.0511011 0.0591067 0.0530513 0.067441 0.0690232 0.0833307 0.0739202 0.0737061 0.0632262 0.0686349 0.0752672
85 1 Mg -2.57362 79.5474 -0.332877 1.2 1 0.00854485 0.0153625 0.011553 0.0202168 0.0180677 0.034498 0.029867 0.0579265 0.0423241 0.0696155 0.0407903 0.0555546 0.0329529 0.0638352 0.0450854 0.0914441 0.0556772 0.0994826 0.0668891 0.0661336
86 1 Mg 2.33653 82.2671 1.81501 1.2 1 0.00429467 0.0216483 0.025382 0.0358859 0.0191263 0.034324 0.0329632 0.0344932 0.0472126 0.0540179 0.0595851 0.0423266 0.0584475 0.0741408 0.0643 0.0821406 0.0735481 0.0931338 0.0685043 0.0651486
87 2 Si -0.497653 80.5339 1.27157 2.4 1 0.0199573 0.0147597 0.0218153 0.020371 0.0312481 0.0328557 0.0415077 0.0320196 0.0506287 0.0473471 0.0561703 0.0553317 0.0675739 0.0603919 0.0667234 0.0803728 0.066307 0.0843818 0.063797 0.0533091
88 3 O 0.998037 80.425 1.50465 -1.2 1 0.0116755 0.021373 0.0258124 0.0227295 0.0309318 0.0354356 0.0287465 0.0727184 0.0432646 0.0498846 0.0484153 0.0684087 0.061193 0.0712677 0.078547 0.0705232 0.0740241 0.0611883 0.067195 0.0642873
89 3 O -1.41238 84.2408 1.48707 -1.2 1 0.0144328 0.0106341 0.0229774 0.0268677 0.0202495 0.0422979 0.0464797 0.044889 0.0548112 0.040732 0.0408885 0.0515999 0.0499756 0.064994 0.0959495 0.0629001 0.0822433 0.0608033 0.0624211 0.0632399
90 3 O -1.06653 81.2146 -0.150676 -1.2 1 0.00363044 0.0127821 0.0236035 0.0274619 0.023131 0.0211705 0.0476607 0.0558658 0.0518089 0.0543219 0.0468363 0.041501 0.0758384 0.05996 0.0817746 0.0872023 0.0706244 0.066681 0.0653714 0.0684505
91 1 Mg -2.45097 90.3061 3.20776 1.2 1 0.00591181 0.0308125 0.0123325 0.0311894 0.0232851 0.0362827 0.028205 0.0586975 0.025098 0.0833352 0.0252452 0.0462635 0.039102 0.0642039 0.0391245 0.093547 0.0470532 0.108516 0.0485856 0.0904073
92 3 O -1.1035 81.1219 2.66293 -1.2 1 0.0189017 0.0264379 0.0308881 0.0198203 0.0280326 0.0221907 0.0473065 0.0440466 0.0428343 0.0408044 0.0540232 0.0433099 0.059953 0.078358 0.0867515 0.0744998 0.0767424 0.0722697 0.0624212 0.0731552
93 1 Mg -2.80382 87.1135 4.63297 1.2 1 0.0254441 0.0213929 0.0153497 0.0277982 0.0269751 0.033447 0.0246802 0.0398499 0.0526974 0.0437134 0.0675157 0.0534306 0.0602236 0.0623281 0.0695704 0.0764401 0.0673895 0.0900903 0.0651906 0.0750796
94 2 Si 0.244306 89.1393 4.47005 2.4 1 0.0212888 0.0104517 0.0264825 0.0331597 0.0401238 0.036065 0.0456066 0.0323611 0.0493799 0.0517141 0.0581199 0.0668151 0.0747155 0.0613302 0.0710666 0.0728698 0.0588289 0.0779294 0.068109 0.0581544
95 3 O -1.25438 89.2802 4.50208 -1.2 1 0.0218467 0.0211703 0.0196719 0.0252052 0.0283302 0.0295142 0.030276 0.0692307 0.0411082 0.0616478 0.0440757 0.0726438 0.0573412 0.0686734 0.0821595 0.0707245 0.0626445 0.0736599 0.0561997 0.071913
96 3 O 1.15571 85.2294 4.59151 -1.2 1 0.017873 0.01523 0.0213493 0.0261701 0.0190892 0.024851 0.0426064 0.0434588 0.0418946 0.0455072 0.0500343 0.0483568 0.0560994 0.0681262 0.0960487 0.0685428 0.0793242 0.0578264 0.0656524 0.0618436
97 3 O 0.858105 88.4388 2.9966 -1.2 1 0.0268276 0.0163747 0.0240377 0.0280488 0.0319928 0.0254828 0.0493903 0.0477183 0.0492753 0.0472416 0.0690701 0.044104 0.0554335 0.0606471 0.0870872 0.0766286 0.0628252 0.0746174 0.0596696 0.0813298
98 3 O 0.949569 88.5067 5.6825 -1.2 1 0.0158272 0.01247 0.0189263 0.0217776 0.0410972 0.028485 0.0416002 0.0500208 0.038244 0.0454631 0.0553627 0.0531727 0.0546496 0.0800766 0.0876225 0.0636532 0.0780704 0.0570599 0.0707426 0.0674389
99 1 Mg -0.181595 84.6252 2.86483 1.2 1 0.0190607 0.0156001 0.0131294 0.0306371 0.0210869 0.0358867 0.029725 0.0592257 0.027384 0.065904 0.0254947 0.0542055 0.0312446 0.0760735 0.0441576 0.0972529 0.0545962 0.0912212 0.0492034 0.0781523
100 1 Mg -0.03387 81.8118 4.33163 1.2 1 0.0259296 0.00944416 0.0176232 0.028267 0.0166063 0.029764 0.0355991 0.0343381 0.0494788 0.0482703 0.0592015 0.0569231 0.0687184 0.0649216 0.0691879 0.0801771 0.0723886 0.0963599 0.0674901 0.0893596
101 2 Si 1.74189 83.7169 4.61663 2.4 1 0.0231359 0.0168903 0.0288521 0.0385859 0.0363362 0.0210479 0.0425006 0.0498634 0.0462867 0.0347128 0.0537912 0.0615501 0.0718388 0.0591519 0.0665938 0.0694926 0.0663395 0.0869212 0.0545253 0.0542996
102 3 O -1.53951 83.5652 4.40541 -1.2 1 0.0283399 0.0142015 0.0141785 0.0160746 0.0385639 0.0310828 0.0298055 0.0636949 0.0457866 0.0663251 0.0446091 0.0618797 0.0773302 0.0734422 0.0669639 0.0583178 0.0562201 0.0661003 0.0600571 0.0657933
103 3 O 0.99777 80.0391 4.51869 -1.2 1 0.0347894 0.0151855 0.0115169 0.0228778 0.0200566 0.0357679 0.0451575 0.0508895 0.0389394 0.0481192 0.0437999 0.0608105 0.0481032 0.0709726 0.0980143 0.0719729 0.082841 0.0604789 0.0663906 0.062098
104 3 O 1.161 83.1581 3.14055 -1.2 1 0.0191035 0.0184596 0.0256966 0.0202223 0.0305941 0.035835 0.0522682 0.0474219 0.0528713 0.0461475 0.0495372 0.0544198 0.0596366 0.0621785 0.0908444 0.0704068 0.085661 0.0580727 0.0673097 0.0701178
105 1 Mg -0.054223 84.5711 0.288311 1.2 1 0.0135819 0.01756 0.0221233 0.0327648 0.0203846 0.0414184 0.0201029 0.0580061 0.029931 0.0731724 0.0353074 0.0501342 0.0321872 0.0685782 0.0378197 0.0885188 0.0563279 0.101509 0.0545245 0.0760901
106 3 O 1.01743 82.9018 5.66567 -1.2 1 0.0316785 0.0250123 0.024497 0.0270657 0.0323502 0.0264695 0.0426698 0.0449232 0.0368181 0.0477997 0.0577848 0.0431353 0.0576118 0.0572501 0.103522 0.0746095 0.0681206 0.0691372 0.0705062 0.061286
107 1 Mg 0.100368 87.6246 1.40131 1.2 1 0.0235421 0.0138083 0.0163121 0.0329357 0.0259577 0.044917 0.0404245 0.0337727 0.0473086 0.0484573 0.0660027 0.0564534 0.056411 0.0737763 0.0777898 0.0823015 0.0732802 0.0773992 0.059812 0.0702292
108 2 Si -2.24415 85.6313 1.57492 2.4 1 0.0218965 0.024064 0.026899 0.0218388 0.0384384 0.0354453 0.0417551 0.0430965 0.0535259 0.0612326 0.060397 0.0604826 0.0701772 0.0610845 0.0750776 0.0669784 0.0802169 0.0850628 0.0675117 0.0606556
109 3 O 0.941718 85.6678 1.44229 -1.2 1 0.0163718 0.0294983 0.0226088 0.0267669 0.0318567 0.0345583 0.0297992 0.0643026 0.0440521 0.0568975 0.038701 0.0726225 0.0606926 0.0676128 0.0773691 0.0586548 0.0629828 0.0634112 0.0623977 0.0723083
110 3 O -1.10277 89.9953 1.75945 -1.2 1 0.0177441 0.0285229 0.0167851 0.0325569 0.0244396 0.0341712 0.0409682 0.0421844 0.0647459 0.0335922 0.0555737 0.0487233 0.0636662 0.0819007 0.0848323 0.0658656 0.0712371 0.0642766 0.0729424 0.0661489
111 3 O -1.59903 86.4632 0.37592 -1.2 1 0.0209825 0.0284793 0.0142547 0.0335604 0.019823 0.0359298 0.0469303 0.0504015 0.0374498 0.0447669 0.0598438 0.0504511 0.0587884 0.0690968 0.081833 0.0663947 0.0753867 0.0642517 0.0645518 0.0738798
112 3 O -1.70125 86.1381 3.09273 -1.2 1 0.0329853 0.0135023 0.0195448 0.0232422 0.0349847 0.0297881 0.0476926 0.0427326 0.0612061 0.046361 0.0510874 0.0556605 0.0546739 0.0711966 0.0760147 0.0815098 0.0809498 0.0661522 0.0617876 0.0801123
113 1 Mg -2.4239 90.2369 0.287848 1.2 1 0.0105834 0.0155012 0.0171691 0.0294923 0.0163689 0.0380808 0.0255012 0.0649283 0.0164572 0.0737797 0.0368757 0.0463105 0.0344342 0.0765326 0.03776 0.0971526 0.0441789 0.10678 0.0461567 0.0765532
114 1 Mg 2.58901 93.4123 1.60208 1.2 1 0.0201877 0.0173151 0.0159362 0.0254488 0.0111174 0.0382794 0.0312077 0.0410957 0.0433493 0.0444951 0.0514894 0.0637719 0.0657413 0.0675304 0.0721248 0.0602506 0.0843495 0.0906684 0.0671336 0.0853429
115 2 Si -0.317403 91.327 1.52372 2.4 1 0.0208442 0.022468 0.0236771 0.028266 0.0367492 0.0334313 0.0476114 0.0438164 0.0590233 0.0658663 0.043716 0.0691253 0.0690399 0.0496553 0.0697199 0.0708489 0.0691928 0.0834312 0.057268 0.0546998
116 3 O 1.28233 91.4087 1.6929 -1.2 1 0.0122985 0.0200761 0.0213828 0.0210763 0.0309365 0.030492 0.0229683 0.0730666 0.036251 0.0753925 0.0415026 0.0621598 0.065973 0.0679005 0.0777909 0.0625166 0.0632291 0.0537784 0.0704462 0.0650528
117 3 O -1.24944 95.0989 1.49617 -1.2 1 0.0169417 0.0212153 0.0280861 0.023913 0.0254567 0.0433406 0.0416389 0.0457088 0.0495776 0.0422054 0.0443003 0.0516701 0.0512891 0.0704718 0.0978573 0.073885 0.0708487 0.0539298 0.0664332 0.0613595
118 3 O -1.04161 91.9695 0.332154 -1.2 1 0.0301231 0.0167478 0.0246202 0.024169 0.042351 0.0326146 0.052095 0.0432079 0.0401737 0.0469763 0.0616695 0.0467499 0.0525702 0.0579694 0.080192 0.0796326 0.0612659 0.0672636 0.0592689 0.0730506
119 1 Mg -2.44669 100.739 3.01578 1.2 1 0.00273671 0.0203119 0.0109513 0.0334224 0.0149188 0.0386189 0.0110923 0.0635595 0.0349298 0.0694403 0.0299494 0.0469333 0.0344092 0.0762431 0.0352334 0.0963037 0.051622 0.10638 0.0555762 0.0810164
120 3 O -0.851794 92.4898 2.73723 -1.2 1 0.0210624 0.0207136 0.0240823 0.0188717 0.0345865 0.0419386 0.0436091 0.0429412 0.0420629 0.0484587 0.0564228 0.0545711 0.0514333 0.0569749 0.0827423 0.0775576 0.0725721 0.0618076 0.0693625 0.072265
121 1 Mg -2.20099 97.8199 4.63494 1.2 1 0.0220475 0.0205823 0.0217051 0.0202969 0.0267921 0.0325278 0.0314597 0.0452397 0.0465725 0.055792 0.0630824 0.0648687 0.0550821 0.0633633 0.0734216 0.0672081 0.0804898 0.0874296 0.0848945 0.0498173
122 2 Si 0.240733 99.6934 4.59199 2.4 1 0.0163945 0.0234921 0.0164886 0.0291379 0.046506 0.0344069 0.0380687 0.0361356 0.0573685 0.0709258 0.0511795 0.0747667 0.0779919 0.0679771 0.0870688 0.0797708 0.0562599 0.0766876 0.0598438 0.0703269
123 3 O -1.39871 99.787 4.49934 -1.2 1 0.0243283 0.0279123 0.0135267 0.0267595 0.0326991 0.0292297 0.0293507 0.0716311 0.0324784 0.0716568 0.0364766 0.0660472 0.0707253 0.0785665 0.070978 0.0691617 0.0733838 0.0701689 0.0685696 0.0585313
124 3 O 1.64868 96.1894 5.13304 -1.2 1 0.025753 0.032631 0.0228719 0.0217527 0.0316811 0.0402924 0.028063 0.0439644 0.0594127 0.0447746 0.0530178 0.0456543 0.0672946 0.0744686 0.0732802 0.0752348 0.0695483 0.0756363 0.0529468 0.0534043
125 3 O 0.905169 99.0598 3.15854 -1.2 1 0.0168844 0.0216691 0.0336758 0.0246429 0.0372307 0.0226422 0.0479106 0.0448436 0.0390252 0.0568407 0.062939 0.0434212 0.0610239 0.0691906 0.0855966 0.0788253 0.0730937 0.0572474 0.0549768 0.0765559