ITEM: TIMESTEP
24900
ITEM: NUMBER OF ATOMS
5600
ITEM: BOX BOUNDS xy xz yz pp pp pp
0	7.1235	0
0	201.985	2.3745
0	119.584	0
ITEM: ATOMS id type element xu yu zu q Q_1 Q_2 Q_3 Q_4 Q_5 Q_6 Q_7 Q_8 Q_9 Q_10 Q_11 Q_12 Q_13 Q_14 Q_15 Q_16 Q_17 Q_18 Q_19 Q_20 Q_21
1 1 Mg -1.65616 49.2637 -1.0032 1.2 1 0.444826 0.0668744 0.132255 0.0422081 0.0747136 0.0496976 0.044467 0.0441057 0.0662164 0.0647122 0.0893905 0.0888141 0.0868635 0.0997997 0.109845 0.106822 0.0818694 0.101859 0.106665 0.103218
2 1 Mg 2.90196 50.6605 2.30222 1.2 1 0.303729 0.114469 0.0410154 0.0500208 0.0481958 0.0410577 0.0694834 0.0622965 0.0647876 0.0730062 0.0734862 0.0628654 0.0945931 0.0717892 0.0832072 0.0858639 0.093256 0.0753126 0.08907 0.100552
3 2 Si 0.729368 50.9038 0.425028 2.4 1 0.269746 0.133039 0.0350276 0.0708874 0.0371568 0.0401712 0.0531839 0.0372033 0.0715212 0.0628888 0.0698699 0.0763043 0.0659859 0.0765848 0.0916111 0.0655966 0.0845432 0.068915 0.0901397 0.0779594
4 3 O 2.13753 50.0998 0.501775 -1.2 1 0.360426 0.109753 0.0702681 0.0611887 0.0359532 0.0517919 0.0521396 0.0608925 0.0634676 0.0790546 0.071339 0.0816081 0.0750621 0.0691003 0.0994535 0.0721179 0.0815241 0.058994 0.0845526 0.0866732
5 3 O -1.2503 53.6812 1.75813 -1.2 1 0.0961733 0.0509517 0.0461928 0.0222841 0.028126 0.0296896 0.0361126 0.0475281 0.0609357 0.0553498 0.061616 0.0521521 0.057039 0.0802131 0.0753691 0.0769734 0.0823173 0.0579137 0.0587489 0.0710359
6 3 O -0.0152814 50.336 -0.785957 -1.2 1 0.345377 0.116811 0.0592568 0.0705165 0.0222666 0.0511796 0.043306 0.0651093 0.0667681 0.0712677 0.0771384 0.090191 0.0748815 0.0939372 0.0911801 0.0897435 0.0782126 0.0724951 0.0893568 0.0832855
7 1 Mg -2.5696 59.5208 3.16493 1.2 1 0.0101228 0.0171501 0.00744493 0.0315977 0.0117929 0.035274 0.0156041 0.055276 0.0226927 0.0760992 0.0191155 0.0449036 0.0248291 0.0692342 0.0262872 0.101029 0.0324766 0.110141 0.0376337 0.0963082
8 3 O 0.00958522 50.6756 1.75982 -1.2 1 0.295753 0.136609 0.0513222 0.0521302 0.0389574 0.0452621 0.0587075 0.0666145 0.0684649 0.0924236 0.0821812 0.06812 0.0547931 0.071126 0.0855629 0.0790647 0.0829689 0.0951161 0.0753012 0.0896663
9 1 Mg -2.29194 56.7488 4.70121 1.2 1 0.0263232 0.0187901 0.0272314 0.0281198 0.0174477 0.0237241 0.0288748 0.0186392 0.0528662 0.061714 0.0703283 0.0488373 0.0514652 0.066098 0.0626229 0.0821739 0.0767889 0.0857956 0.0692158 0.0886279
10 2 Si 0.281074 58.4851 4.78546 2.4 1 0.020115 0.0160862 0.0244565 0.0241043 0.0342265 0.0364046 0.0353848 0.0490117 0.0597576 0.0466503 0.0541877 0.0688952 0.07586 0.0558203 0.0819473 0.0628842 0.0630309 0.0892088 0.061429 0.0581493
11 3 O -1.32099 58.6127 4.76553 -1.2 1 0.0355335 0.0179312 0.0197692 0.0287827 0.0296107 0.0294624 0.024878 0.0627208 0.0456445 0.0470838 0.0499111 0.0710348 0.0502612 0.0628972 0.0686749 0.0690994 0.0621354 0.073825 0.0615266 0.0860494
12 3 O 1.43075 54.1467 4.63712 -1.2 1 0.0661853 0.0401843 0.0414578 0.0332686 0.0301943 0.0328605 0.0296157 0.0373518 0.0588858 0.0558347 0.0723889 0.0405733 0.0598106 0.071111 0.0929814 0.0767673 0.0745736 0.0731146 0.0624353 0.070261
13 3 O 0.920152 57.8345 3.48663 -1.2 1 0.0260916 0.0122646 0.0293444 0.0206971 0.0182984 0.0304973 0.038523 0.0450008 0.0400267 0.0431134 0.0495192 0.0451263 0.0491613 0.0718132 0.0872288 0.0679683 0.0963638 0.0565654 0.0736763 0.0589846
14 3 O 0.930974 57.7799 6.00872 -1.2 1 0.0133681 0.0204096 0.0347969 0.0148085 0.021247 0.0194371 0.0485987 0.039848 0.0423698 0.0453921 0.0498341 0.0458926 0.0575982 0.0560684 0.0797739 0.0786141 0.073346 0.072288 0.0564028 0.0769035
15 1 Mg 0.300064 53.455 3.0174 1.2 1 0.0937509 0.07985 0.0340133 0.0300053 0.0291852 0.0322006 0.0374474 0.050859 0.0649742 0.0382126 0.0728225 0.0536861 0.0528192 0.0553485 0.062499 0.077188 0.0759306 0.07614 0.0727296 0.0702946
16 1 Mg 0.523669 49.1899 2.98538 1.2 1 0.450359 0.0535039 0.111868 0.051652 0.0499559 0.0644804 0.0647958 0.0407647 0.0781467 0.0898838 0.0785134 0.0737956 0.0596166 0.0696402 0.087398 0.0975398 0.0890163 0.101959 0.0925739 0.093214
17 2 Si 2.2812 52.7913 4.61201 2.4 1 0.104434 0.106945 0.0414557 0.0322325 0.0317527 0.0445199 0.0416153 0.0440953 0.072564 0.0702142 0.08642 0.0618502 0.0671601 0.0723825 0.0716761 0.0942785 0.0782637 0.0932072 0.0653043 0.0708664
18 3 O -0.949591 52.9099 4.63181 -1.2 1 0.107362 0.103672 0.0297509 0.0231348 0.0176966 0.0506328 0.025654 0.05637 0.061806 0.0830465 0.0578817 0.0808638 0.0782881 0.0739162 0.0898124 0.0711069 0.0766088 0.0629057 0.0865801 0.0618903
19 3 O 2.47724 48.8584 3.26375 -1.2 1 0.473333 0.0510729 0.133281 0.047664 0.0869892 0.0429907 0.0712739 0.0854275 0.0908072 0.0767623 0.0858625 0.0737448 0.0814073 0.0945888 0.0921916 0.0950686 0.0941224 0.103202 0.107653 0.0888712
20 3 O 1.77491 52.0317 3.34815 -1.2 1 0.189688 0.0994195 0.0275076 0.0248934 0.0322684 0.0562049 0.0336368 0.0671672 0.0514761 0.056825 0.0617865 0.0678879 0.0768354 0.079572 0.0812402 0.067448 0.0812191 0.0775659 0.0695779 0.0801543
21 1 Mg -0.0212278 54.2401 0.328557 1.2 1 0.0606049 0.0472029 0.0433663 0.028529 0.0248568 0.0226058 0.0227664 0.0588671 0.045828 0.0691043 0.0436957 0.0428324 0.0438799 0.0700244 0.0599374 0.0903569 0.0655411 0.085207 0.0610872 0.0810539
22 3 O 1.60205 51.8559 5.8875 -1.2 1 0.199726 0.109414 0.0205918 0.0447328 0.0327166 0.0378744 0.0421446 0.0598944 0.0512994 0.0670972 0.0689432 0.0844078 0.0618278 0.0915584 0.0697164 0.0659629 0.0701651 0.0716442 0.0653521 0.0702398
23 1 Mg -0.00579576 57.0784 1.73572 1.2 1 0.0183122 0.00481183 0.0171493 0.0235273 0.0135554 0.0267027 0.0274465 0.0419065 0.0365322 0.0530621 0.0575741 0.0589241 0.0628 0.0594699 0.0691252 0.0821372 0.0770255 0.0715835 0.0766941 0.0761066
24 2 Si -2.08569 55.1676 1.82015 2.4 1 0.0159667 0.0231041 0.0262348 0.0333949 0.0222302 0.0357073 0.0523782 0.0534892 0.0517743 0.06153 0.0631523 0.0565398 0.0694552 0.0497212 0.0525006 0.0631558 0.0777567 0.072822 0.0606891 0.0601009
25 3 O 1.06819 55.0789 1.85705 -1.2 1 0.0156337 0.0299706 0.0271563 0.0262094 0.0168632 0.0345341 0.0205957 0.0527184 0.0436063 0.0619539 0.0468189 0.0630269 0.0460592 0.0797194 0.0671119 0.0614354 0.0746799 0.0543418 0.0679552 0.0595203
26 3 O -1.12175 58.9356 1.70691 -1.2 1 0.0178798 0.0170023 0.0213414 0.0192679 0.0176049 0.0369358 0.0330248 0.0489659 0.0606578 0.0428711 0.0447629 0.0454202 0.050938 0.0716527 0.104288 0.0658135 0.0725908 0.0514589 0.0810388 0.0630414
27 3 O -1.48617 55.887 0.530524 -1.2 1 0.0188735 0.0146309 0.0187897 0.029183 0.0236188 0.0306313 0.0501317 0.0441483 0.0281544 0.0425707 0.069582 0.037843 0.0594734 0.0685406 0.0738747 0.0728878 0.0642651 0.0631279 0.0825686 0.0612212
28 3 O -1.53676 55.9518 3.03717 -1.2 1 0.0211276 0.0277181 0.0288004 0.0172899 0.0232311 0.0330075 0.046891 0.036756 0.0455818 0.048962 0.0618079 0.0546562 0.048445 0.0612904 0.0733107 0.0799987 0.055779 0.0757276 0.0603264 0.0818804
29 1 Mg -2.42364 59.3865 0.0513246 1.2 1 0.0225098 0.0229042 0.0203861 0.0309761 0.0132953 0.0373529 0.0218022 0.0579174 0.0197504 0.082306 0.0288203 0.0519952 0.0269849 0.0698888 0.0274997 0.0999424 0.0441491 0.108522 0.0423167 0.0874029
30 1 Mg 2.24308 62.2659 1.65961 1.2 1 0.017465 0.0181002 0.0165852 0.0299253 0.0168708 0.0248611 0.0233948 0.0256365 0.0419732 0.0597441 0.0529765 0.0539668 0.0625695 0.0620121 0.0627634 0.0781663 0.074456 0.100036 0.0623521 0.0911315
31 2 Si -0.493151 60.3733 1.61295 2.4 1 0.0225701 0.0135722 0.0203483 0.0358442 0.0327862 0.0335069 0.0408411 0.0386647 0.0545832 0.0516099 0.0499874 0.0714808 0.072974 0.0615247 0.0792024 0.0654042 0.0575123 0.0942065 0.0539999 0.0560137
32 3 O 1.13212 60.3263 1.55631 -1.2 1 0.023119 0.0130637 0.0299824 0.0300584 0.0252067 0.0235395 0.0219583 0.0672803 0.0406886 0.0521549 0.0445411 0.072829 0.0536838 0.0704505 0.0731659 0.0648803 0.0539905 0.0677987 0.0619385 0.0773921
33 3 O -1.4481 64.1228 1.63072 -1.2 1 0.00657463 0.0166845 0.0231232 0.0176439 0.0188814 0.0346377 0.0390131 0.0445455 0.047761 0.0462062 0.048024 0.0493928 0.0460024 0.0716627 0.102314 0.076638 0.0683143 0.0497642 0.0691523 0.068333
34 3 O -1.21458 61.0088 0.29091 -1.2 1 0.00507044 0.00548496 0.029632 0.0295156 0.025796 0.0171827 0.0504962 0.042271 0.044787 0.0455552 0.0522638 0.046317 0.0569537 0.0466904 0.0850851 0.0675603 0.0777036 0.0564383 0.0652209 0.0765319
35 1 Mg -2.44459 69.8848 3.14401 1.2 1 0.00545758 0.0106493 0.00731038 0.0325124 0.0101071 0.0376666 0.0105838 0.0576341 0.0147061 0.084063 0.0173618 0.0537041 0.0152844 0.0705944 0.0197165 0.0971714 0.0260466 0.116823 0.0309675 0.0959536
36 3 O -1.11957 61.1023 2.86841 -1.2 1 0.013081 0.00823927 0.0251341 0.018279 0.0207752 0.024249 0.0454087 0.0474896 0.0361436 0.0509304 0.0488822 0.0445909 0.0577817 0.067113 0.0867222 0.0648817 0.0761696 0.0627533 0.0710201 0.0620504
37 1 Mg -2.44223 66.9152 4.6669 1.2 1 0.017439 0.0122101 0.0185832 0.0280435 0.0105624 0.0261204 0.0252869 0.0388633 0.0380543 0.0596665 0.0526103 0.0540618 0.0612154 0.0655883 0.0626895 0.0714386 0.0758282 0.0985265 0.0753965 0.080115
38 2 Si 0.275498 68.7423 4.57437 2.4 1 0.0197987 0.0143054 0.0211681 0.0255204 0.0293071 0.0332433 0.0394831 0.044164 0.0490842 0.0500364 0.0498249 0.0628444 0.0709616 0.0537025 0.0652169 0.0766205 0.061328 0.0973063 0.0574086 0.0571905
39 3 O -1.32558 68.8512 4.63213 -1.2 1 0.0247984 0.0113325 0.0259593 0.0234162 0.022158 0.022368 0.0258842 0.0778899 0.035164 0.0581589 0.0408606 0.0708399 0.0580324 0.0696803 0.0690631 0.0608281 0.0538777 0.0684842 0.0662732 0.0683411
40 3 O 1.22171 65.1304 4.58033 -1.2 1 0.00426747 0.017955 0.0239573 0.0168058 0.0167653 0.0364018 0.036926 0.0457833 0.0540819 0.041345 0.0447503 0.0456459 0.0519139 0.0661014 0.107238 0.0706226 0.0720079 0.049077 0.0733001 0.0666793
41 3 O 0.997951 68.0019 3.38531 -1.2 1 0.0121609 0.0158903 0.0209891 0.0243589 0.026294 0.0183681 0.0433109 0.0414305 0.0383077 0.0522186 0.0552141 0.0372131 0.0622666 0.0464452 0.080728 0.0756454 0.0700569 0.069999 0.0585196 0.0626997
42 3 O 0.872479 68.252 5.972 -1.2 1 0.0179758 0.0112118 0.037449 0.0198284 0.0248771 0.022293 0.0476175 0.0415094 0.0336412 0.0473154 0.0546046 0.0377125 0.0511127 0.0654913 0.0845782 0.0734812 0.0731823 0.0616513 0.062135 0.0734826
43 1 Mg -0.251907 64.6249 3.20891 1.2 1 0.012824 0.0110652 0.0126124 0.0293111 0.0105091 0.0381653 0.013915 0.0574289 0.01532 0.0816394 0.0195217 0.052065 0.026943 0.0700772 0.0223259 0.101796 0.030006 0.113205 0.037698 0.0947434
44 1 Mg -0.223535 61.7784 4.60497 1.2 1 0.0173991 0.0217278 0.0180658 0.0309487 0.0143448 0.0252769 0.0240007 0.0325389 0.0440749 0.0602785 0.0605581 0.0570404 0.0600486 0.0636505 0.0621574 0.0840914 0.0695014 0.0985803 0.0691805 0.0851034
45 2 Si 1.86766 63.6611 4.62775 2.4 1 0.00654239 0.0114205 0.0236801 0.0320506 0.0337129 0.0310989 0.0424898 0.0370745 0.0506891 0.0516324 0.0539242 0.0681975 0.0682742 0.0611068 0.0793932 0.0690396 0.0638806 0.0974052 0.0551832 0.0546494
46 3 O -1.33638 63.7036 4.73352 -1.2 1 0.0219639 0.0129172 0.0196345 0.0287067 0.0263474 0.0256007 0.0321755 0.0683716 0.0432721 0.0517646 0.0482442 0.0696437 0.0551447 0.0621767 0.0723164 0.0679703 0.0590289 0.0703854 0.0627179 0.0753653
47 3 O 0.909426 59.9751 4.6873 -1.2 1 0.0176363 0.0247587 0.0178514 0.0116007 0.0148149 0.0430102 0.0341935 0.0484869 0.0469215 0.0469639 0.0400144 0.0495205 0.0473848 0.0690002 0.09697 0.0652774 0.0679703 0.056207 0.06332 0.0713428
48 3 O 1.19561 62.9826 3.26409 -1.2 1 0.0117268 0.0117326 0.0237163 0.0257037 0.0262496 0.0229233 0.0502164 0.0439001 0.0380535 0.0462548 0.0593284 0.0387578 0.0524544 0.0565236 0.0885954 0.0718934 0.0721263 0.0587808 0.0580019 0.0801226
49 1 Mg -0.0813411 64.541 0.195736 1.2 1 0.006569 0.0104434 0.00412974 0.0306679 0.00990335 0.0327318 0.00878421 0.0575261 0.0140937 0.0839208 0.0142729 0.054355 0.0186259 0.0701008 0.0190312 0.10071 0.0242374 0.115277 0.0275128 0.0978781
50 3 O 1.20749 62.9558 5.86862 -1.2 1 0.0219755 0.0151183 0.0256252 0.0174626 0.0239293 0.0133819 0.043305 0.0466618 0.03685 0.0450812 0.0483425 0.0469468 0.0538267 0.0642979 0.0876823 0.0736901 0.0790464 0.0644263 0.0631267 0.0689727
51 1 Mg 0.0683836 67.3927 1.55526 1.2 1 0.0226652 0.0157756 0.0232657 0.0284086 0.0201019 0.0251048 0.0218291 0.0298864 0.0409202 0.0648509 0.0608186 0.0515011 0.0585544 0.0680061 0.0587415 0.0863218 0.062702 0.0940697 0.0708689 0.0814347
52 2 Si -2.1471 65.6275 1.62164 2.4 1 0.0181989 0.0194067 0.022325 0.0292453 0.0300382 0.0320009 0.042297 0.0416722 0.0491406 0.0521097 0.0558184 0.0696593 0.0774877 0.0542674 0.0825318 0.0695938 0.0576595 0.0960971 0.061192 0.0584573
53 3 O 1.04039 65.5025 1.60498 -1.2 1 0.0200401 0.0175402 0.0153202 0.0313124 0.0270072 0.0249308 0.027506 0.0653757 0.0377103 0.0493664 0.0459089 0.0699884 0.0514297 0.06763 0.0716459 0.0651414 0.0524816 0.0779423 0.0570512 0.0825821
54 3 O -1.01963 69.2667 1.53936 -1.2 1 0.0188262 0.0264544 0.0227781 0.0129534 0.0244842 0.0296257 0.0277886 0.0410327 0.0525948 0.0437697 0.0452556 0.0447238 0.0482025 0.0681297 0.0959798 0.0733437 0.0746441 0.0569933 0.0671911 0.0693685
55 3 O -1.4761 66.2523 0.415899 -1.2 1 0.00765701 0.00948487 0.0206318 0.0208989 0.0198574 0.0170301 0.0515869 0.0399888 0.036071 0.0443694 0.0500227 0.0385834 0.0557063 0.0631872 0.086776 0.0673199 0.0803604 0.0629099 0.071104 0.0633363
56 3 O -1.52219 66.2791 2.90823 -1.2 1 0.0164812 0.0161642 0.0279716 0.0192583 0.0219299 0.0177441 0.0432839 0.0406078 0.0375704 0.044712 0.0531975 0.0369818 0.0559727 0.0684258 0.0781066 0.0789033 0.0747609 0.0576892 0.0694555 0.0695571
57 1 Mg -2.48613 69.8332 0.0933487 1.2 1 0.0133776 0.0158143 0.00832864 0.0383865 0.00981757 0.0336889 0.00677288 0.0591607 0.0122998 0.0783408 0.0136966 0.0502185 0.0165182 0.0756759 0.022751 0.108372 0.0184315 0.117302 0.0241223 0.0966205
58 1 Mg 2.25857 72.8016 1.5325 1.2 1 0.0169708 0.0146973 0.019471 0.0287345 0.0170987 0.0241678 0.0243824 0.0295545 0.0424907 0.0583792 0.052819 0.0627067 0.0587634 0.0616284 0.0648367 0.064314 0.078768 0.101197 0.06554 0.0805815
59 2 Si -0.439111 70.7124 1.59765 2.4 1 0.00298212 0.0102245 0.0218582 0.0326266 0.0327309 0.0364839 0.0435749 0.0412755 0.0502644 0.0562138 0.0484807 0.0647835 0.0738942 0.0650045 0.0835267 0.0594591 0.0610744 0.0907509 0.0555204 0.060636
60 3 O 1.11029 70.6265 1.65776 -1.2 1 0.0425978 0.0078283 0.0175418 0.0191022 0.0204994 0.0261537 0.0261867 0.0589492 0.0443836 0.047339 0.0448113 0.0697344 0.0427238 0.0699542 0.074582 0.0662121 0.0563712 0.077263 0.0490649 0.0819521
61 3 O -1.57486 74.6475 1.33339 -1.2 1 0.0177038 0.0172205 0.0187312 0.0308512 0.0173538 0.0333617 0.0323397 0.0396571 0.0583784 0.0406828 0.0532851 0.0407485 0.0622748 0.0731665 0.0924224 0.0762307 0.0678943 0.0569802 0.070052 0.0558397
62 3 O -1.11672 71.5247 0.372251 -1.2 1 0.00937175 0.00997797 0.027105 0.0212305 0.0250325 0.0190717 0.0442551 0.0428143 0.0348008 0.0447182 0.0549053 0.0417385 0.0537095 0.0633035 0.088641 0.0722211 0.0736704 0.0630874 0.0673412 0.0600795
63 1 Mg -2.5299 80.3716 2.91208 1.2 1 0.0122354 0.0126272 0.00694451 0.028327 0.0108769 0.0365885 0.0137669 0.0594259 0.0145832 0.0804066 0.024523 0.0517728 0.0188685 0.0685074 0.0200017 0.103504 0.0299134 0.11361 0.0287106 0.099038
64 3 O -1.08616 71.4003 2.8647 -1.2 1 0.0147001 0.0141771 0.0305321 0.0247657 0.0270689 0.0254221 0.0479002 0.0427052 0.0338741 0.0426253 0.0546804 0.0409595 0.0582012 0.0648068 0.0799017 0.0658384 0.0780789 0.0521575 0.06596 0.0723255
65 1 Mg -2.53292 77.3386 4.51758 1.2 1 0.0200277 0.0144644 0.0154745 0.0264566 0.0133907 0.0201158 0.0245961 0.0341352 0.0457372 0.0595779 0.0567072 0.0611754 0.0563028 0.0615477 0.0691491 0.0619102 0.0711413 0.104474 0.0602636 0.0908105
66 2 Si 0.157196 79.3993 4.40696 2.4 1 0.00279204 0.0126451 0.0180762 0.0322701 0.0314067 0.0365774 0.0438113 0.0404697 0.0496188 0.0642838 0.0531372 0.0587976 0.073096 0.0562879 0.0828235 0.065509 0.0658597 0.0894265 0.0553672 0.064809
67 3 O -1.40423 79.431 4.43405 -1.2 1 0.0314536 0.0183274 0.0127844 0.0198791 0.020834 0.0298113 0.0161475 0.0703257 0.0362412 0.0585127 0.0398173 0.0692063 0.0472402 0.068124 0.082167 0.0674719 0.0600249 0.0721401 0.0494335 0.0738432
68 3 O 1.23148 75.5131 4.46956 -1.2 1 0.0069401 0.0187787 0.0187214 0.0228622 0.0179801 0.03165 0.0326377 0.0446243 0.0590178 0.0428913 0.0443139 0.0490799 0.0483492 0.0695713 0.0981829 0.0779567 0.0748511 0.050459 0.066135 0.0597464
69 3 O 0.804322 78.6943 3.17926 -1.2 1 0.0270692 0.00942944 0.0253599 0.0263399 0.0253288 0.029033 0.0454757 0.0423434 0.035012 0.045939 0.0516486 0.0432324 0.0502354 0.0675468 0.0688838 0.0741606 0.0771824 0.0523742 0.0724396 0.0715025
70 3 O 0.877745 78.7048 5.71002 -1.2 1 0.0102915 0.00830946 0.0232543 0.0205533 0.0252367 0.0227693 0.0477104 0.0384351 0.0325547 0.0451291 0.055095 0.043471 0.0516388 0.0680682 0.0728682 0.0709813 0.0844252 0.0545078 0.0753945 0.0658858
71 1 Mg -0.26366 75.0755 3.08026 1.2 1 0.015701 0.0135312 0.0119819 0.0304534 0.0118339 0.0319746 0.0145281 0.0616419 0.0165676 0.0832506 0.0243432 0.04904 0.0262413 0.072713 0.0227705 0.100385 0.0323832 0.111023 0.043957 0.0897139
72 1 Mg -0.121777 72.0919 4.52519 1.2 1 0.022096 0.0184173 0.0161254 0.0297366 0.0137499 0.024457 0.0239554 0.0361543 0.0402758 0.0571952 0.0560631 0.0598879 0.0569002 0.0612645 0.0589192 0.071071 0.075107 0.0974941 0.0688251 0.0800781
73 2 Si 1.89475 74.1214 4.47346 2.4 1 0.0189238 0.0142914 0.022503 0.0287686 0.0297267 0.0349209 0.0421486 0.0430195 0.0550982 0.0533471 0.0463435 0.0666461 0.0663381 0.0609107 0.0725006 0.0592811 0.0563319 0.0964087 0.0582054 0.0577287
74 3 O -1.26348 74.1319 4.45738 -1.2 1 0.0134042 0.0299529 0.0180377 0.0205288 0.0218079 0.030966 0.0271326 0.0723032 0.0397858 0.0572136 0.043345 0.0723444 0.0556153 0.0708169 0.0745498 0.0683302 0.0556969 0.0729346 0.0563493 0.0792687
75 3 O 0.945153 70.2584 4.5563 -1.2 1 0.00748273 0.0218913 0.026771 0.0169934 0.0161946 0.0369452 0.0371988 0.0441924 0.0588802 0.0404998 0.0445418 0.0411763 0.0515525 0.069794 0.101921 0.0738095 0.0718892 0.0439058 0.0726228 0.0593974
76 3 O 1.29289 73.3475 3.26398 -1.2 1 0.00981037 0.0177204 0.0266136 0.0205874 0.0227461 0.0192157 0.0428475 0.0432406 0.0382547 0.0461438 0.0503399 0.0442787 0.0600143 0.0571903 0.0843128 0.0770155 0.0773065 0.0625079 0.0685932 0.0705036
77 1 Mg -0.0450847 74.9837 0.089949 1.2 1 0.0127072 0.0225693 0.00540784 0.030706 0.00561565 0.0363306 0.00782448 0.0604519 0.0119763 0.079842 0.0166636 0.0498462 0.0145682 0.0760143 0.01915 0.109942 0.0262651 0.11591 0.0278745 0.0832758
78 3 O 1.34063 73.4002 5.79644 -1.2 1 0.0093469 0.0101843 0.0251592 0.0181162 0.0201944 0.0202299 0.0528598 0.0440637 0.0392184 0.0503582 0.0546771 0.0409498 0.0518185 0.069914 0.0810183 0.0719079 0.0712427 0.0518013 0.0699907 0.0716617
79 1 Mg -0.124451 78.0205 1.38506 1.2 1 0.0204338 0.0118501 0.0168253 0.0304996 0.0182512 0.024546 0.0254252 0.0330904 0.040914 0.0570729 0.0571663 0.0594341 0.0619821 0.0668189 0.0688009 0.0676419 0.0782728 0.0995411 0.0736147 0.0735483
80 2 Si -2.19524 76.1585 1.44891 2.4 1 0.0111376 0.00918834 0.0198708 0.0276444 0.0344857 0.0332204 0.0427523 0.0411334 0.0486554 0.0521363 0.0515136 0.0674102 0.074179 0.0573667 0.0692029 0.0753944 0.062547 0.0972268 0.0579642 0.0523229
81 3 O 0.996774 76.0181 1.49345 -1.2 1 0.0170508 0.0138628 0.0194109 0.0269891 0.0200342 0.0277978 0.0250839 0.0814352 0.0395956 0.058899 0.0397441 0.0663795 0.0575605 0.067948 0.075773 0.0591873 0.0557295 0.0756105 0.0677594 0.0728449
82 3 O -1.05862 79.8025 1.4704 -1.2 1 0.00620591 0.0161772 0.0218199 0.0197298 0.0141514 0.0398223 0.0320058 0.0401369 0.0566965 0.0441301 0.0442566 0.0448942 0.0526972 0.0714161 0.101646 0.0752293 0.0676201 0.0549519 0.0771318 0.0611326
83 3 O -1.50858 76.8967 0.231742 -1.2 1 0.00715771 0.0108454 0.0329691 0.0163866 0.0197888 0.0224481 0.0430909 0.0432616 0.0357983 0.0495735 0.0556388 0.0393924 0.0514088 0.0626775 0.0847453 0.0785266 0.0669203 0.0677167 0.0676586 0.0591514
84 3 O -1.43864 76.739 2.79083 -1.2 1 0.0142587 0.00764435 0.0266538 0.0216526 0.0202686 0.0232775 0.0448518 0.0436272 0.0329434 0.0471567 0.0517475 0.0433493 0.0556874 0.0627297 0.091622 0.0671373 0.0753998 0.0647478 0.0594354 0.0701218
85 1 Mg -2.61997 80.2188 0.0450336 1.2 1 0.0115429 0.0162199 0.00780172 0.032632 0.00951717 0.0343166 0.0121603 0.0604472 0.0181398 0.0849896 0.0220738 0.0498734 0.0236041 0.0722363 0.0212418 0.104102 0.0354999 0.111928 0.0389512 0.0946474
86 1 Mg 2.21529 83.1895 1.39856 1.2 1 0.0302328 0.0156656 0.018518 0.0339119 0.0140195 0.0229482 0.031557 0.0414088 0.0405646 0.0612403 0.061622 0.054806 0.0569828 0.0687364 0.0650185 0.0715597 0.0710526 0.101029 0.0702991 0.0828545
87 2 Si -0.422586 81.371 1.48679 2.4 1 0.0183547 0.0108087 0.0241187 0.0300594 0.0319244 0.0278241 0.0421917 0.0420865 0.0437701 0.0578697 0.0528428 0.0666246 0.0665398 0.0504061 0.0799192 0.0699337 0.0619599 0.0918405 0.0602452 0.0626515
88 3 O 1.16577 81.292 1.4635 -1.2 1 0.0273948 0.0135305 0.0130706 0.0230564 0.0276572 0.0266412 0.0273888 0.0771549 0.0354301 0.060572 0.0357099 0.0657521 0.0558318 0.064678 0.0750049 0.067687 0.0561164 0.0718142 0.0680153 0.0672227
89 3 O -1.59447 84.9997 1.38468 -1.2 1 0.0193998 0.0270179 0.0185605 0.0260119 0.020623 0.0404304 0.0289391 0.0463126 0.0571829 0.0417665 0.0473222 0.050677 0.0519904 0.0658864 0.102406 0.0717035 0.0679045 0.0455748 0.0732734 0.0687086
90 3 O -1.08441 82.0086 0.205539 -1.2 1 0.00742228 0.0110373 0.0192722 0.0243981 0.021467 0.022082 0.0440687 0.0445633 0.0363336 0.0507816 0.0489229 0.0370147 0.0541423 0.0617916 0.0702141 0.077104 0.0722037 0.0610669 0.067522 0.0662239
91 1 Mg -2.1616 90.9288 2.9523 1.2 1 0.0122886 0.0103921 0.011444 0.0277994 0.0116541 0.0313337 0.0191542 0.0549097 0.0358444 0.079622 0.0328084 0.0430218 0.0384328 0.0669036 0.0394204 0.0928849 0.0592743 0.0963307 0.0555827 0.0827796
92 3 O -1.11433 81.9673 2.76352 -1.2 1 0.0146824 0.0230181 0.0235957 0.0252466 0.0172226 0.0194364 0.0403161 0.0498916 0.0379142 0.051817 0.0507959 0.046412 0.0553145 0.0573992 0.0858164 0.0676802 0.0760842 0.0650845 0.0655254 0.0678595
93 1 Mg -2.35176 87.8245 4.28369 1.2 1 0.0260536 0.0209599 0.0146326 0.0306954 0.0128748 0.0244874 0.0253944 0.0367547 0.0389817 0.0590454 0.0548242 0.0555055 0.0617613 0.0639619 0.0643407 0.079709 0.0695461 0.0965178 0.0652989 0.0767285
94 2 Si 0.364252 89.6194 4.32551 2.4 1 0.0113975 0.00907215 0.0226382 0.040219 0.0323385 0.0295896 0.0407131 0.0460664 0.0482442 0.0529584 0.0522 0.0693311 0.074097 0.0530449 0.0702217 0.073031 0.0593029 0.0939248 0.0599652 0.0511967
95 3 O -1.24675 89.7271 4.29349 -1.2 1 0.0219801 0.0168861 0.0126669 0.0196592 0.017251 0.0257822 0.0210666 0.0679508 0.0420829 0.066918 0.0384606 0.067256 0.0507917 0.0686148 0.077763 0.0630095 0.0564022 0.0717281 0.0597617 0.0697266
96 3 O 1.17726 85.9953 4.31741 -1.2 1 0.0116324 0.0269637 0.0180827 0.0230835 0.0140292 0.0328573 0.0329027 0.0451965 0.0493789 0.0494343 0.0465143 0.0520579 0.0522428 0.0730823 0.099371 0.0748544 0.0747347 0.0599797 0.0713199 0.0597085
97 3 O 0.939783 88.896 3.04903 -1.2 1 0.0212785 0.0261122 0.0197754 0.0162109 0.0237272 0.0324809 0.0370108 0.0429571 0.0369308 0.0550321 0.0544892 0.0465759 0.0523589 0.0660026 0.0827148 0.0766325 0.071995 0.0609201 0.06911 0.0632602
98 3 O 1.05386 89.0581 5.63422 -1.2 1 0.0092447 0.0164871 0.0277217 0.0153419 0.0245437 0.0223018 0.0479176 0.0482579 0.0372155 0.0430225 0.0509551 0.0360308 0.0580825 0.0691201 0.082216 0.0809031 0.0676874 0.0633837 0.0671821 0.0676526
99 1 Mg -0.161285 85.5939 2.86486 1.2 1 0.00965821 0.0158866 0.00710195 0.0289241 0.0103868 0.0390338 0.0187412 0.0546349 0.0152029 0.0799688 0.0196079 0.0508483 0.0264113 0.0761799 0.0291731 0.0982728 0.0519755 0.108879 0.041685 0.0955142
100 1 Mg -0.250681 82.758 4.48382 1.2 1 0.0153665 0.022627 0.0186707 0.022283 0.0139325 0.0238706 0.0273668 0.0322874 0.0417106 0.0655852 0.0611309 0.0534295 0.0666188 0.0667379 0.0632919 0.0913638 0.0633426 0.0969 0.0655523 0.0866249
101 2 Si 1.92615 84.4551 4.44666 2.4 1 0.0129482 0.019164 0.0150641 0.0345794 0.0312524 0.0304048 0.0448286 0.038459 0.0441171 0.0576427 0.0584065 0.0676206 0.0717732 0.0607343 0.0796613 0.0681356 0.0633171 0.0957117 0.0591989 0.0620323
102 3 O -1.30985 84.4834 4.54539 -1.2 1 0.0346687 0.0203241 0.0190976 0.0222209 0.0257835 0.0307472 0.0184362 0.0707432 0.0414174 0.0580701 0.0493518 0.07005 0.0657128 0.0682754 0.0664661 0.0665309 0.0581364 0.0683719 0.0694035 0.0711077
103 3 O 0.856849 80.8589 4.45312 -1.2 1 0.012015 0.0219221 0.0274947 0.0162478 0.0196042 0.0334043 0.0332196 0.0462476 0.0549475 0.044378 0.0444398 0.0476151 0.0497275 0.0695399 0.10325 0.0690496 0.0664339 0.0559051 0.0700968 0.0653562
104 3 O 1.21778 83.8489 3.20504 -1.2 1 0.010159 0.0162695 0.0306424 0.0212577 0.0223891 0.0161739 0.0514255 0.0413742 0.0438001 0.0419732 0.0565548 0.0405698 0.0552562 0.061587 0.0857211 0.0631417 0.0839384 0.0647898 0.07191 0.0721164
105 1 Mg -0.124118 85.3822 -0.133786 1.2 1 0.0104145 0.0168066 0.00777207 0.0338501 0.0121852 0.0410954 0.0143358 0.0644973 0.0189344 0.0773836 0.027159 0.0491798 0.0191564 0.0707243 0.0304079 0.103315 0.036876 0.11085 0.0399704 0.0876347
106 3 O 1.26772 83.8773 5.8135 -1.2 1 0.0213326 0.0237768 0.0277899 0.0224757 0.0274732 0.0209031 0.0498667 0.0425575 0.0433397 0.0419763 0.0581439 0.0390666 0.0585161 0.0581813 0.0914623 0.0708749 0.0802223 0.0659867 0.0672589 0.0747024
107 1 Mg -0.0286408 88.369 1.28075 1.2 1 0.0155754 0.00596797 0.0222981 0.024352 0.0143439 0.0247276 0.022855 0.0270963 0.0432393 0.0618305 0.0575742 0.0623811 0.0560494 0.0631317 0.0587253 0.079244 0.0826407 0.101234 0.0596025 0.0810993
108 2 Si -2.24197 86.545 1.40704 2.4 1 0.00518922 0.0179823 0.0189046 0.025333 0.0351051 0.0337239 0.0364319 0.0407885 0.0475214 0.0620726 0.0541078 0.0608991 0.0669587 0.0583705 0.0823288 0.061339 0.0662995 0.0907733 0.0603762 0.0642246
109 3 O 0.940822 86.4512 1.33405 -1.2 1 0.00802613 0.0172709 0.0122822 0.0234639 0.0296829 0.0252892 0.0221263 0.0794856 0.0440526 0.0567384 0.0382588 0.0739124 0.0506273 0.0650753 0.073075 0.0640961 0.0617279 0.0767989 0.0595546 0.0765794
110 3 O -0.80641 90.3478 1.21668 -1.2 1 0.0181233 0.0203275 0.0204043 0.0204381 0.024125 0.0335331 0.0290318 0.0442139 0.0613859 0.0420317 0.0543624 0.0454505 0.0563873 0.0770745 0.0952692 0.0809713 0.0690442 0.050579 0.0707846 0.0549603
111 3 O -1.57657 87.2566 0.182979 -1.2 1 0.00736307 0.0119728 0.0258709 0.0200145 0.0223197 0.0231668 0.0453862 0.0494636 0.0363387 0.0462367 0.0528739 0.0346236 0.0536294 0.0633663 0.066345 0.0887368 0.0637944 0.0588393 0.063698 0.070346
112 3 O -1.54415 87.187 2.67259 -1.2 1 0.013538 0.00986287 0.022622 0.0183554 0.0270662 0.0227865 0.0471946 0.0461325 0.0370315 0.0523928 0.0470322 0.0410421 0.0560322 0.0787704 0.0755703 0.0824954 0.0726066 0.0576219 0.0659217 0.0724033
113 1 Mg -2.17299 90.8578 -0.245619 1.2 1 0.0181142 0.00942834 0.0151961 0.0297739 0.0136646 0.0314764 0.0173973 0.0562402 0.0255392 0.0805331 0.0268797 0.047654 0.0269669 0.0682801 0.0368465 0.0933714 0.0499668 0.104839 0.0438506 0.0785363
114 1 Mg 2.53561 93.7527 1.14014 1.2 1 0.0125626 0.01133 0.015303 0.0226308 0.0136632 0.0184173 0.0197263 0.0380592 0.0466645 0.0561908 0.0563947 0.0593432 0.0589202 0.0647671 0.0647144 0.0603776 0.0817752 0.107227 0.0705408 0.0804325
115 2 Si -0.156989 91.8322 1.29176 2.4 1 0.0141872 0.00783538 0.0218575 0.0232873 0.0319169 0.0266379 0.0442068 0.0451951 0.0449346 0.0613715 0.0514105 0.0670689 0.0709353 0.0510964 0.078503 0.0708411 0.0659143 0.0855531 0.0633539 0.062682
116 3 O 1.44212 91.7361 1.25797 -1.2 1 0.0229517 0.0199317 0.0199884 0.0183555 0.0210557 0.029536 0.0253806 0.076831 0.036206 0.0637866 0.0364243 0.0605806 0.0548728 0.0719801 0.0777195 0.0624331 0.0527648 0.068648 0.0688643 0.0729349
117 3 O -1.23837 95.4722 1.20732 -1.2 1 0.010732 0.017861 0.0228683 0.0197817 0.0200879 0.0361842 0.0347255 0.0416233 0.0568824 0.0464671 0.0456078 0.0478329 0.0501286 0.0726165 0.106028 0.0746511 0.0666764 0.0522343 0.0713904 0.0659991
118 3 O -0.84882 92.5137 0.00151461 -1.2 1 0.0159401 0.0100798 0.0296351 0.0113488 0.0209804 0.0250082 0.0516025 0.0415212 0.0327807 0.0478382 0.0549139 0.0372627 0.0552305 0.0737719 0.0763511 0.077156 0.0693159 0.063045 0.0644867 0.0677715
119 1 Mg -2.35414 101.353 2.70527 1.2 1 0.0142876 0.0145801 0.0102161 0.0316249 0.0119355 0.0346911 0.0143434 0.0574001 0.0240135 0.0738453 0.0289948 0.0479101 0.0218348 0.0702529 0.0341552 0.0983811 0.0444781 0.110237 0.052516 0.080223
120 3 O -0.804638 92.407 2.59894 -1.2 1 0.0119892 0.019247 0.0181048 0.0270979 0.0220682 0.024015 0.0408328 0.0497861 0.0395491 0.0520009 0.0461818 0.0460724 0.0559898 0.0718816 0.0772514 0.070642 0.068504 0.0590187 0.0663954 0.074153
121 1 Mg -2.14678 98.2717 4.26271 1.2 1 0.014759 0.0161783 0.0216266 0.0313788 0.015543 0.021746 0.0233112 0.0306979 0.0386174 0.0596262 0.060243 0.0527447 0.0623425 0.0606556 0.0624981 0.0823358 0.0760987 0.0915409 0.0705391 0.0714113
122 2 Si 0.471295 100.228 4.131 2.4 1 0.0133611 0.0214776 0.0220007 0.0272636 0.0324391 0.0334416 0.0385018 0.0397492 0.0545756 0.0550114 0.0506265 0.0621769 0.0668516 0.0574642 0.0825325 0.0684509 0.0637476 0.0926673 0.0506522 0.0541966
123 3 O -1.09971 100.249 4.0279 -1.2 1 0.0176017 0.00880561 0.0156411 0.021925 0.0314808 0.0250387 0.0212302 0.0639364 0.0418905 0.0524536 0.0424874 0.0720459 0.0525463 0.0688754 0.0668927 0.0656342 0.0652932 0.0675007 0.067958 0.073404
124 3 O 1.54856 96.5068 4.24223 -1.2 1 0.0130719 0.0205361 0.0270193 0.0211363 0.0206524 0.0356498 0.0336559 0.0505228 0.051219 0.0445743 0.0467184 0.0466692 0.0496966 0.0683668 0.110698 0.070091 0.0686331 0.0484587 0.0682838 0.0701212
125 3 O 1.18922 99.633 2.89822 -1.2 1 0.0145665 0.0145283 0.0314454 0.0205979 0.0239791 0.0193567 0.043454 0.0427718 0.0420639 0.029785 0.0536853 0.0488389 0.0538228 0.0547815 0.088589 0.064751 0.0857068 0.0587814 0.0652669 0.0770963