ITEM: TIMESTEP
54600
ITEM: NUMBER OF ATOMS
5600
ITEM: BOX BOUNDS xy xz yz pp pp pp
0	7.1235	0
0	201.985	2.3745
0	119.584	0
ITEM: ATOMS id type element xu yu zu q Q_1 Q_2 Q_3 Q_4 Q_5 Q_6 Q_7 Q_8 Q_9 Q_10 Q_11 Q_12 Q_13 Q_14 Q_15 Q_16 Q_17 Q_18 Q_19 Q_20 Q_21
1 1 Mg -1.66811 48.162 -0.914125 1.2 1 0.465168 0.0442577 0.129669 0.0435878 0.0809962 0.0330863 0.0507443 0.0519713 0.0697662 0.0748399 0.0818614 0.0846068 0.0982295 0.108233 0.110459 0.100713 0.0808037 0.105304 0.104369 0.090013
2 1 Mg 3.03697 50.9211 1.96525 1.2 1 0.221365 0.108875 0.0365746 0.0440921 0.0369305 0.0356463 0.0406495 0.05463 0.0710637 0.0550586 0.081306 0.0620145 0.0731701 0.0689062 0.0840759 0.0735965 0.0822925 0.0891188 0.0801987 0.0775487
3 2 Si 0.911602 49.7204 0.304221 2.4 1 0.319045 0.0998104 0.0452485 0.0634904 0.040123 0.0472776 0.0716677 0.0582727 0.0804868 0.090933 0.0520441 0.0720264 0.0621645 0.0804392 0.0988025 0.0838294 0.0815311 0.07387 0.0680991 0.0821905
4 3 O 1.68142 48.3363 0.308371 -1.2 1 0.4635 0.0404545 0.106548 0.0424531 0.0741671 0.0686089 0.085256 0.065703 0.07608 0.0714238 0.0792123 0.0831566 0.0913166 0.0780645 0.0664235 0.0952789 0.115608 0.0854381 0.0855006 0.0848557
5 3 O -1.09663 52.8221 1.54191 -1.2 1 0.09935 0.055092 0.0442344 0.0261325 0.0313233 0.0253535 0.0390721 0.0542133 0.0753541 0.0557085 0.0597469 0.0556464 0.0693206 0.0694717 0.0834399 0.0813257 0.0809019 0.0651161 0.0543054 0.072925
6 3 O -0.176722 49.4012 -1.04636 -1.2 1 0.343531 0.11829 0.0793646 0.0544488 0.0241244 0.0600483 0.0389236 0.0424538 0.0586318 0.0787051 0.067013 0.0929776 0.098995 0.0906432 0.102998 0.0888824 0.0950462 0.0921177 0.0759007 0.0917012
7 1 Mg -2.02035 58.4527 3.42582 1.2 1 0.0151141 0.0241911 0.0129641 0.0320377 0.0221336 0.0388045 0.0138585 0.0573459 0.0196742 0.0739007 0.0288091 0.0555159 0.0319315 0.0698895 0.0342881 0.100204 0.0408773 0.108194 0.0449605 0.0874348
8 3 O 0.0469929 50.2436 1.56939 -1.2 1 0.2903 0.114488 0.0407628 0.0558974 0.0288372 0.0240217 0.0580251 0.0601436 0.0771569 0.0688895 0.0545105 0.0540561 0.067812 0.059649 0.0995908 0.0788022 0.0763797 0.0846264 0.0767091 0.0827017
9 1 Mg -2.00876 55.5177 4.78185 1.2 1 0.0170156 0.0134537 0.0194705 0.0290256 0.0155841 0.0313217 0.0322709 0.0315812 0.0435496 0.0579691 0.0565159 0.0649373 0.058289 0.0687923 0.0708262 0.0781825 0.0732206 0.0757243 0.069432 0.0683467
10 2 Si 0.638916 57.4095 4.94801 2.4 1 0.033414 0.0197611 0.0211418 0.0307872 0.0360397 0.0376199 0.0446029 0.0361457 0.0468062 0.0585074 0.0508349 0.079226 0.0672318 0.0585944 0.0823435 0.0756789 0.0590743 0.0929895 0.0608461 0.0579985
11 3 O -0.908705 57.4516 4.83426 -1.2 1 0.0266862 0.0269285 0.0257152 0.0257464 0.0291399 0.0211509 0.0294188 0.0730725 0.0319059 0.0599943 0.0372046 0.0699287 0.0672044 0.0657976 0.0751448 0.0603408 0.0561726 0.0718186 0.0705024 0.0627888
12 3 O 1.9339 53.7997 4.98374 -1.2 1 0.0742551 0.0396284 0.0297848 0.0209702 0.0248004 0.0366187 0.0362982 0.0404471 0.0602828 0.0508019 0.0645615 0.0435128 0.0740371 0.0772709 0.0729984 0.088428 0.065422 0.070992 0.066684 0.068089
13 3 O 1.23084 56.8388 3.75517 -1.2 1 0.0188607 0.0202232 0.0235736 0.0155113 0.0315423 0.0302007 0.0431012 0.0443305 0.0449184 0.052037 0.0421094 0.0389459 0.0693176 0.066799 0.0985875 0.073983 0.081351 0.069319 0.0589113 0.0750136
14 3 O 1.31751 56.7956 6.2851 -1.2 1 0.00863964 0.0108118 0.0205037 0.0211838 0.0232065 0.0296076 0.0467524 0.0442904 0.047833 0.0508688 0.054138 0.0305718 0.068227 0.0547891 0.0810211 0.0785122 0.0601438 0.0656237 0.0508508 0.0708407
15 1 Mg 0.374297 53.2491 3.15419 1.2 1 0.0838265 0.0567749 0.0384674 0.0240568 0.0169744 0.0347146 0.0287373 0.0607218 0.0383684 0.0719465 0.0401221 0.0667491 0.0470007 0.0646045 0.0440962 0.0912339 0.0580132 0.0819784 0.0636649 0.0685988
16 1 Mg 0.764845 49.9199 3.28993 1.2 1 0.306622 0.114933 0.0440214 0.0642598 0.0350943 0.0476198 0.0569426 0.0494998 0.0581615 0.0738229 0.0682791 0.0777775 0.0507839 0.0594494 0.105603 0.0683742 0.0747851 0.0888556 0.0824374 0.0887179
17 2 Si 2.54879 52.2978 4.71184 2.4 1 0.142776 0.0759289 0.0487846 0.0200121 0.0247592 0.0341722 0.048287 0.0488753 0.0485506 0.0617959 0.0853766 0.0715326 0.0894042 0.0667013 0.101706 0.0621146 0.0897518 0.0891035 0.064837 0.0715268
18 3 O -0.707201 52.5715 4.70559 -1.2 1 0.147858 0.0649715 0.0335802 0.0241122 0.0262645 0.0228591 0.0471585 0.0525765 0.0437056 0.0648237 0.0503507 0.0900524 0.0561016 0.0645093 0.0713941 0.0831849 0.0734141 0.0832497 0.0642133 0.0673192
19 3 O 2.42879 48.9858 3.05579 -1.2 1 0.402851 0.0750762 0.0844762 0.0555895 0.0510212 0.0498201 0.051453 0.0553802 0.0710183 0.0750604 0.0633752 0.0736868 0.0859437 0.0802747 0.119711 0.0838395 0.0909063 0.082449 0.0697341 0.0753016
20 3 O 1.98127 51.8112 3.38672 -1.2 1 0.162847 0.095756 0.0394993 0.0337961 0.0322459 0.0428902 0.0502738 0.0639537 0.0534916 0.0563411 0.0590993 0.0522104 0.0961061 0.0713331 0.089706 0.067907 0.0990934 0.0819903 0.0807445 0.0902137
21 1 Mg 0.224382 53.4471 0.10321 1.2 1 0.0547981 0.047078 0.0425744 0.0264087 0.026424 0.0283557 0.032122 0.0590072 0.0534575 0.0642225 0.047776 0.0532858 0.0498781 0.0693012 0.0725222 0.0846114 0.0714178 0.0774457 0.0692445 0.0739555
22 3 O 1.77782 51.4339 5.93489 -1.2 1 0.188529 0.108422 0.0287677 0.0329752 0.032303 0.0475 0.0448632 0.0664793 0.0415688 0.0671562 0.0717905 0.0590379 0.0752816 0.0750608 0.0887266 0.0799152 0.0656019 0.0945055 0.0478955 0.0722948
23 1 Mg 0.201787 56.3129 1.91506 1.2 1 0.020006 0.0214968 0.0179955 0.0240952 0.0154904 0.0220053 0.0295877 0.0414361 0.0440092 0.0482966 0.05355 0.0601987 0.0634228 0.0555073 0.0691802 0.067042 0.0827656 0.0876915 0.075986 0.0701544
24 2 Si -1.80446 54.3244 1.50572 2.4 1 0.0365873 0.0192731 0.0346799 0.0341411 0.0251781 0.0276452 0.0476871 0.0477137 0.0448245 0.058553 0.0592675 0.0562613 0.0791015 0.061899 0.0547075 0.0658662 0.0654969 0.0680954 0.0718943 0.0559327
25 3 O 1.47941 54.2377 1.69711 -1.2 1 0.0410309 0.019991 0.0354822 0.0245835 0.0167463 0.030089 0.0281708 0.0568961 0.0429541 0.0533889 0.0475154 0.0509238 0.0505985 0.0807287 0.0608396 0.0535078 0.0630294 0.0693311 0.0665496 0.0547189
26 3 O -0.884954 57.956 1.77555 -1.2 1 0.0156799 0.00528805 0.0225343 0.032307 0.0169635 0.0312128 0.0434326 0.0407873 0.0392548 0.0434825 0.0381862 0.0566361 0.049712 0.0763939 0.103048 0.068065 0.0687368 0.061264 0.0675471 0.0630157
27 3 O -1.17464 55.2048 0.338646 -1.2 1 0.0308597 0.027788 0.0216487 0.0305842 0.0223191 0.03462 0.0381272 0.0403281 0.039989 0.0517268 0.0602662 0.0423817 0.0578997 0.0570516 0.0856911 0.0788115 0.0479095 0.0624918 0.0593514 0.0711023
28 3 O -0.96085 54.8405 2.93638 -1.2 1 0.0232279 0.0133825 0.0280087 0.0295471 0.0291117 0.0293284 0.0596113 0.036419 0.0433407 0.0443441 0.0595671 0.0525807 0.0608006 0.0664063 0.0907917 0.0624273 0.0758954 0.0558776 0.0720744 0.0508908
29 1 Mg -2.09529 58.8661 0.220799 1.2 1 0.0180647 0.0164819 0.00868802 0.0268532 0.0266511 0.0363798 0.0182737 0.0478258 0.0494905 0.0653191 0.0431331 0.0476726 0.0439073 0.0614404 0.0536345 0.0863321 0.0673382 0.0947917 0.0593893 0.0751333
30 1 Mg 2.54114 61.3968 1.93636 1.2 1 0.014924 0.0172396 0.0284219 0.0320552 0.0190107 0.0237004 0.0177992 0.0262338 0.0461356 0.0555758 0.0545812 0.0553415 0.0573901 0.0593933 0.0613829 0.0827886 0.0760098 0.0906623 0.0672316 0.0839151
31 2 Si -0.182237 59.4314 1.84102 2.4 1 0.010335 0.0178055 0.023892 0.034832 0.0286464 0.0374979 0.042093 0.0393875 0.0604345 0.0639519 0.0505931 0.0632995 0.071015 0.0610477 0.0776609 0.0668279 0.0647845 0.0949041 0.0612152 0.0541844
32 3 O 1.42571 59.3499 1.85153 -1.2 1 0.022873 0.0393119 0.0234344 0.0296017 0.0257962 0.032425 0.0281529 0.0679468 0.0477618 0.0549422 0.0495904 0.0738371 0.0516195 0.0691508 0.0754299 0.0661404 0.0633588 0.0642869 0.0486181 0.0705705
33 3 O -1.07851 63.3808 1.97158 -1.2 1 0.00280502 0.0204605 0.0249799 0.0198667 0.01482 0.0282577 0.0392683 0.0379022 0.0525876 0.0412974 0.0498283 0.0524244 0.0560632 0.0740414 0.0896614 0.0832928 0.0800611 0.0514405 0.0606542 0.0596678
34 3 O -0.921659 60.3832 0.624699 -1.2 1 0.00970197 0.0278462 0.0287588 0.0227347 0.0254181 0.0226791 0.0424142 0.0464149 0.03862 0.0497338 0.0595191 0.0379876 0.0666829 0.0570308 0.0821043 0.0704109 0.063943 0.0723394 0.0607362 0.060715
35 1 Mg -2.3391 69.2824 3.2106 1.2 1 0.00978655 0.0141365 0.00878932 0.0328835 0.0148303 0.0326324 0.0163207 0.0635339 0.019222 0.0740619 0.019114 0.049125 0.023913 0.0708887 0.0249763 0.102751 0.0315277 0.110879 0.037869 0.084682
36 3 O -0.677835 60.125 3.20016 -1.2 1 0.0326802 0.0210553 0.0268299 0.0215818 0.0248909 0.0246733 0.0540857 0.0430622 0.041066 0.0434347 0.0597194 0.0388028 0.0495391 0.0709446 0.0782612 0.0792444 0.0735335 0.0608185 0.0682465 0.0735485
37 1 Mg -2.21322 66.2985 4.80627 1.2 1 0.0210062 0.00460348 0.0219338 0.0312705 0.0207689 0.0360172 0.0191252 0.0352899 0.0473882 0.0568444 0.0659606 0.049886 0.0547079 0.0662614 0.0673986 0.0785098 0.0679836 0.0927766 0.0652983 0.0725899
38 2 Si 0.370505 68.2955 4.56448 2.4 1 0.0131869 0.0136884 0.0342544 0.0272624 0.0309957 0.0320402 0.0411181 0.044512 0.0508305 0.052098 0.0588883 0.0643126 0.0811873 0.0557162 0.0902587 0.0583711 0.0696362 0.0899566 0.0587662 0.0624226
39 3 O -1.10834 68.3595 4.5188 -1.2 1 0.0113513 0.0130285 0.0213667 0.0222561 0.0273776 0.0227196 0.0276722 0.0698743 0.0368916 0.0474875 0.0503513 0.0709741 0.053462 0.0701615 0.0772218 0.0706753 0.0572331 0.0728684 0.0587742 0.0717938
40 3 O 1.57433 64.2829 4.66625 -1.2 1 0.0168404 0.0217237 0.0192359 0.0254065 0.0223863 0.0335946 0.0330851 0.0427754 0.0572733 0.0384851 0.0509199 0.0463638 0.0567504 0.071353 0.0938673 0.0584932 0.0782611 0.0548944 0.0703698 0.0565778
41 3 O 1.21101 67.6053 3.3519 -1.2 1 0.00614909 0.0220404 0.0253529 0.0251729 0.0199719 0.0246078 0.0498536 0.0433784 0.046251 0.040656 0.0671169 0.0456876 0.0541891 0.0530377 0.0947484 0.0683473 0.0755442 0.0688256 0.0601343 0.0657238
42 3 O 1.05 67.5414 5.87038 -1.2 1 0.0190181 0.0192409 0.0232455 0.0237089 0.0254258 0.0233093 0.0484815 0.0407046 0.0428863 0.0506813 0.057123 0.0468946 0.0588092 0.0767394 0.0848487 0.0722617 0.0752049 0.0587452 0.0677377 0.0665563
43 1 Mg 0.121015 64.0827 3.30266 1.2 1 0.0137604 0.0136263 0.0140623 0.0300737 0.0123447 0.0322102 0.0242827 0.0547848 0.0384534 0.0689209 0.0311597 0.0442263 0.030586 0.070233 0.0341025 0.0913604 0.0603936 0.10348 0.0579459 0.0794084
44 1 Mg 0.276826 60.6789 4.76659 1.2 1 0.0269355 0.0114249 0.019203 0.0224837 0.0117658 0.0248686 0.024529 0.0357672 0.040701 0.0530226 0.0569315 0.068553 0.0536896 0.0628464 0.0749407 0.0582606 0.0857192 0.102193 0.063072 0.0789585
45 2 Si 2.21504 62.7169 4.71439 2.4 1 0.0210965 0.012744 0.0220008 0.0244409 0.0363857 0.0235389 0.0365834 0.0445787 0.0535916 0.059875 0.0474947 0.0666444 0.0651997 0.0579203 0.0664222 0.0754839 0.0665022 0.0902394 0.0574603 0.0607469
46 3 O -1.00389 62.8139 4.79638 -1.2 1 0.0240953 0.0169135 0.0156522 0.0215286 0.0310638 0.0304029 0.0213029 0.0774566 0.0377658 0.0633711 0.0439994 0.0661036 0.0608607 0.0690697 0.0732251 0.0660124 0.0567021 0.0692002 0.0699097 0.074346
47 3 O 1.35031 58.9251 4.87273 -1.2 1 0.0136803 0.0126778 0.0234125 0.023844 0.014313 0.0381983 0.0405054 0.0392275 0.0491982 0.0423472 0.0482241 0.0478371 0.0562261 0.0745748 0.0956483 0.0743382 0.0770991 0.0503457 0.0778976 0.0532233
48 3 O 1.63395 61.8783 3.54954 -1.2 1 0.0250877 0.012526 0.0235054 0.0161848 0.0265755 0.0239293 0.0386493 0.0450288 0.0319705 0.0411447 0.0606 0.0402485 0.0482963 0.0669029 0.076947 0.078745 0.0655598 0.0698293 0.0574798 0.0677841
49 1 Mg 0.335354 63.4562 0.583245 1.2 1 0.00632196 0.0185788 0.0115309 0.0217624 0.0294004 0.0266125 0.0343894 0.0488356 0.0473356 0.0639987 0.0480613 0.0450786 0.0444076 0.0573897 0.0580475 0.0759647 0.0854543 0.0755011 0.0660285 0.0692143
50 3 O 1.52475 62.0972 6.08684 -1.2 1 0.0129257 0.0143702 0.030411 0.0226576 0.0288133 0.0249065 0.0463237 0.0367282 0.0332946 0.0409982 0.0638528 0.050284 0.0565269 0.0720904 0.0852784 0.0759945 0.0715907 0.0743833 0.0613179 0.0770282
51 1 Mg 0.166171 66.9384 1.82657 1.2 1 0.0149116 0.018891 0.0220531 0.0317352 0.0206452 0.0284295 0.0291724 0.0393976 0.042811 0.0569483 0.0616616 0.0590934 0.0590842 0.0648199 0.0691614 0.0675917 0.0777942 0.0855344 0.0640586 0.0655192
52 2 Si -1.943 64.922 1.80463 2.4 1 0.0210359 0.00556376 0.0186523 0.0249914 0.030499 0.033049 0.0373222 0.0390207 0.0553176 0.045241 0.0555606 0.059119 0.0734405 0.0613139 0.0804222 0.0706653 0.0621716 0.0852884 0.0656728 0.0541536
53 3 O 1.38745 64.6008 1.83953 -1.2 1 0.0235363 0.00793073 0.0266953 0.0199816 0.0281813 0.0230205 0.0332178 0.0632727 0.0468073 0.047009 0.0509335 0.0677198 0.051888 0.0649247 0.0747648 0.0631597 0.0546338 0.0781983 0.0511987 0.0778615
54 3 O -0.963599 68.6997 1.63596 -1.2 1 0.0164311 0.0220049 0.0184694 0.0273163 0.0122195 0.0311522 0.0459671 0.0441606 0.0657743 0.035862 0.0500154 0.0450263 0.0523319 0.0733149 0.103205 0.0603352 0.0719378 0.0464299 0.0700127 0.0507362
55 3 O -1.30021 65.6695 0.647044 -1.2 1 0.0132067 0.0173565 0.0309516 0.0250505 0.0258976 0.0244144 0.0444162 0.0497096 0.0376877 0.0422575 0.0621544 0.0479339 0.0566471 0.0626093 0.0774467 0.077323 0.0643365 0.0648223 0.0652425 0.0652524
56 3 O -1.20106 65.693 3.01225 -1.2 1 0.00619637 0.0218722 0.0220947 0.0191088 0.0233642 0.0312535 0.0447915 0.0433855 0.0310971 0.0517199 0.0598534 0.0425223 0.0685444 0.0638839 0.0837561 0.0717699 0.0714079 0.0611433 0.0672101 0.0616417
57 1 Mg -2.37409 68.887 0.295807 1.2 1 0.0188103 0.0206004 0.0170469 0.0310192 0.024611 0.0383813 0.024689 0.052922 0.0423392 0.0705194 0.0365664 0.0463782 0.0388142 0.0642657 0.0432163 0.091352 0.0711088 0.0897887 0.0620101 0.0707862
58 1 Mg 2.47056 72.1307 1.81029 1.2 1 0.0245309 0.0114103 0.0186929 0.0297384 0.0151351 0.0257458 0.0281364 0.0354428 0.0434428 0.0584542 0.0587353 0.0528329 0.0623417 0.0632858 0.0648473 0.0784555 0.065081 0.0934812 0.0638878 0.0832373
59 2 Si -0.261484 70.1341 1.56416 2.4 1 0.00267607 0.0197113 0.0205641 0.0368141 0.035906 0.0316121 0.0421456 0.0480673 0.0492859 0.0549376 0.0627892 0.0620039 0.0748773 0.0571731 0.076161 0.0730805 0.064615 0.0894776 0.0551863 0.0591955
60 3 O 1.26379 70.004 1.59574 -1.2 1 0.0205681 0.0200702 0.0176488 0.0180074 0.0249777 0.0289449 0.0304353 0.0738537 0.0449886 0.0561583 0.0415775 0.076418 0.0519242 0.0765675 0.0767522 0.0688788 0.0615696 0.0739899 0.0484389 0.0745743
61 3 O -1.15767 74.05 1.62436 -1.2 1 0.00998748 0.0249419 0.0156846 0.0225715 0.0219234 0.0332228 0.0414305 0.0401592 0.0489526 0.0455114 0.0495825 0.042593 0.0489969 0.072745 0.0974585 0.0693184 0.0741373 0.0532216 0.0678976 0.0527616
62 3 O -0.975681 70.793 0.300932 -1.2 1 0.0104259 0.0219928 0.0214234 0.025841 0.0301103 0.02098 0.0523451 0.0385482 0.0415059 0.0452233 0.0607119 0.0443466 0.051052 0.0493015 0.096636 0.0660869 0.0726149 0.0644601 0.0579249 0.0775777
63 1 Mg -2.17229 79.8397 3.01133 1.2 1 0.00512123 0.0200707 0.0110709 0.0317349 0.0113565 0.0324608 0.0104989 0.057378 0.0119398 0.0830779 0.0188989 0.0478194 0.0187724 0.0761842 0.0166591 0.0953543 0.0215567 0.118077 0.023953 0.0978265
64 3 O -0.954046 70.8829 2.82921 -1.2 1 0.00544203 0.0115686 0.0287274 0.0248177 0.0293394 0.0215534 0.0440693 0.0511398 0.0416416 0.0431205 0.0504702 0.0487779 0.0617813 0.0628859 0.0905684 0.0693821 0.0785696 0.0611044 0.0660142 0.0628987
65 1 Mg -2.19731 76.8456 4.4613 1.2 1 0.0217947 0.0141596 0.0167212 0.0291309 0.0147843 0.0275259 0.0263548 0.0338113 0.0404697 0.0628781 0.0592388 0.0557925 0.0627555 0.0657709 0.0616014 0.0729603 0.0715259 0.105173 0.0649688 0.0783163
66 2 Si 0.568353 78.8558 4.60162 2.4 1 0.00851494 0.0157533 0.0206745 0.0291221 0.0299056 0.0350321 0.0428031 0.0330168 0.0528859 0.0569552 0.0545422 0.0607421 0.0741336 0.0587044 0.0789025 0.063696 0.0650207 0.0856014 0.0533072 0.0635289
67 3 O -0.958567 79.0088 4.49126 -1.2 1 0.0214448 0.0220625 0.0150611 0.0246395 0.0264578 0.0268247 0.0338765 0.0684281 0.0464991 0.0418553 0.0429759 0.0727377 0.0478161 0.0675094 0.0804378 0.0715579 0.0633624 0.0776774 0.046283 0.0774953
68 3 O 1.54327 75.083 4.63964 -1.2 1 0.0150784 0.0199087 0.0205418 0.0182235 0.0255693 0.0409242 0.0382997 0.0401993 0.0472526 0.0454399 0.0453148 0.0442525 0.059595 0.0673575 0.102323 0.0769304 0.0781519 0.0492986 0.0720674 0.0557454
69 3 O 1.1644 78.2096 3.28819 -1.2 1 0.00555994 0.0224706 0.0233772 0.0203912 0.0302107 0.027356 0.0445071 0.0411961 0.0389818 0.0415698 0.0556192 0.0552676 0.0604718 0.0674021 0.0835265 0.0694835 0.0831972 0.061891 0.0688918 0.0712084
70 3 O 1.13334 78.0807 5.84084 -1.2 1 0.00815198 0.0112356 0.028988 0.0150536 0.0225955 0.0281145 0.0447567 0.0473725 0.0404359 0.0442605 0.0589442 0.0330782 0.0575186 0.0713207 0.0749537 0.0792476 0.0654165 0.0599875 0.0679649 0.0710133
71 1 Mg 0.256602 74.5851 3.11221 1.2 1 0.0143056 0.022886 0.0177432 0.0343683 0.012949 0.0256244 0.0145685 0.057693 0.0200359 0.0802581 0.0232777 0.0503748 0.0240466 0.0761819 0.0240421 0.097955 0.0288208 0.111507 0.0333134 0.0900995
72 1 Mg -0.16995 71.6806 4.42679 1.2 1 0.0206144 0.0174327 0.0174861 0.0322293 0.0185192 0.0216847 0.0294167 0.0328668 0.0476429 0.0563963 0.0666949 0.054695 0.0547646 0.0691632 0.0688019 0.088799 0.0697647 0.0757139 0.0822682 0.0690998
73 2 Si 2.1045 73.5961 4.6322 2.4 1 0.00621124 0.00865572 0.0263916 0.0270697 0.0282574 0.0413294 0.0382929 0.0380191 0.0572485 0.043059 0.0520007 0.0676471 0.0737464 0.0535348 0.0745094 0.066263 0.0676534 0.0911897 0.0523506 0.0540932
74 3 O -1.03798 73.5044 4.50171 -1.2 1 0.0144037 0.0108444 0.0192693 0.0253448 0.0255627 0.0307788 0.0232369 0.0655815 0.0447151 0.0601681 0.036696 0.0669408 0.0614189 0.0683827 0.0648998 0.0596403 0.0604883 0.0713248 0.0619478 0.0733242
75 3 O 1.00988 69.8144 4.58767 -1.2 1 0.0135466 0.0178865 0.0188337 0.0267053 0.0203063 0.0373105 0.0437815 0.0471082 0.0499082 0.0436976 0.04652 0.0473342 0.042563 0.0718719 0.106861 0.0707107 0.0691048 0.0518317 0.067215 0.0589204
76 3 O 1.46744 72.9856 3.24139 -1.2 1 0.0108081 0.0164652 0.0195192 0.0258896 0.0299925 0.0230695 0.0418978 0.0439917 0.0415816 0.0383831 0.0544958 0.0479942 0.0491428 0.0556685 0.0866716 0.0754448 0.0796097 0.0687901 0.0610858 0.0706572
77 1 Mg 0.306839 74.8618 0.0323712 1.2 1 0.0134702 0.0196139 0.0124655 0.0328639 0.0196124 0.0313284 0.0313824 0.0515929 0.0510761 0.0652249 0.0376187 0.0431163 0.0390247 0.0651406 0.0526224 0.0896249 0.0668956 0.0937757 0.0669701 0.0714191
78 3 O 1.52755 73.0182 5.89485 -1.2 1 0.00768855 0.00948932 0.0302977 0.0282528 0.0252318 0.0179366 0.045551 0.0509997 0.0397117 0.048296 0.0527097 0.0443487 0.0497926 0.0715269 0.081706 0.0726209 0.0788471 0.0621942 0.0729598 0.0625705
79 1 Mg 0.232276 77.3941 1.6002 1.2 1 0.0176552 0.0154696 0.0164401 0.0303229 0.0229227 0.025438 0.022428 0.0323355 0.0443072 0.0613636 0.0548018 0.0551662 0.0577678 0.0653416 0.0593256 0.0839762 0.0644351 0.100416 0.0599526 0.0826066
80 2 Si -1.84734 75.5511 1.63933 2.4 1 0.0204596 0.0151182 0.0256509 0.0283598 0.0347708 0.0318061 0.0400887 0.0422485 0.0576643 0.0487499 0.0516697 0.0638987 0.0657315 0.057286 0.0876204 0.0691017 0.0636534 0.0887664 0.0601927 0.0550362
81 3 O 1.37557 75.5198 1.864 -1.2 1 0.0257703 0.0142507 0.0283203 0.0234514 0.0266085 0.031332 0.0238108 0.0653838 0.0443345 0.0588445 0.0415152 0.0677056 0.0505215 0.0665168 0.0679349 0.0592424 0.0626228 0.0661769 0.0652287 0.0684749
82 3 O -0.807064 79.3482 1.58383 -1.2 1 0.00786498 0.0169839 0.0276783 0.0207302 0.0201304 0.0332722 0.0377089 0.0481372 0.0487986 0.0388387 0.0499298 0.0428455 0.0507701 0.069258 0.101257 0.0687769 0.0759762 0.0551088 0.075916 0.0626226
83 3 O -1.1491 76.2803 0.391229 -1.2 1 0.0060139 0.0169287 0.0258861 0.0207033 0.027991 0.0243136 0.0504964 0.0404646 0.0432039 0.0447098 0.050847 0.0510372 0.0608825 0.063142 0.0875966 0.0723421 0.0716666 0.0630128 0.0607973 0.0635647
84 3 O -1.04457 76.1512 2.9192 -1.2 1 0.0149833 0.00865055 0.0273744 0.0225678 0.0307078 0.0164796 0.0467315 0.0474809 0.0441913 0.0432358 0.0514486 0.0418865 0.053177 0.049596 0.0888912 0.0704153 0.0817542 0.0643747 0.0606222 0.0678279
85 1 Mg -2.16897 79.8673 -0.0713403 1.2 1 0.00498876 0.0154534 0.00433034 0.0348574 0.01093 0.0368172 0.0144814 0.0560605 0.016829 0.0748229 0.0232706 0.0526177 0.0218874 0.0715363 0.0214389 0.106652 0.0289608 0.11775 0.037834 0.0866129
86 1 Mg 2.82598 82.7859 1.42286 1.2 1 0.0164776 0.0107747 0.0207049 0.0277456 0.0232338 0.0285223 0.0276924 0.0370117 0.0510692 0.0560637 0.0530612 0.0560801 0.0628621 0.0710995 0.0698057 0.0665816 0.069756 0.106401 0.062234 0.0733274
87 2 Si -0.0608524 80.8047 1.46763 2.4 1 0.0111192 0.00837041 0.015367 0.0230844 0.0320761 0.0354005 0.0455529 0.0371235 0.0471088 0.0542366 0.0557205 0.060684 0.0778427 0.059654 0.0739464 0.0726083 0.0629 0.0926527 0.0541485 0.055835
88 3 O 1.48732 80.6617 1.51059 -1.2 1 0.0143721 0.00918646 0.0225782 0.0217181 0.0259529 0.0306488 0.0303576 0.0624005 0.0367367 0.0485809 0.0463649 0.0720766 0.0548457 0.0712649 0.0794276 0.0658305 0.0655317 0.0794258 0.0532105 0.077048
89 3 O -1.18247 84.5892 1.48027 -1.2 1 0.00587528 0.0170913 0.023247 0.0211085 0.0138414 0.0346096 0.0334771 0.0405806 0.0537715 0.0430266 0.049494 0.0481343 0.0534363 0.0630383 0.0971255 0.0711516 0.0665048 0.0529483 0.0704462 0.0580763
90 3 O -0.741962 81.5884 0.12757 -1.2 1 0.015852 0.0116208 0.0286681 0.0195136 0.0225642 0.0220325 0.0451232 0.0431321 0.0328669 0.0439075 0.0572645 0.0404381 0.0562131 0.0692989 0.0775084 0.0796015 0.0691906 0.072458 0.0611434 0.0742494
91 1 Mg -2.19829 90.5324 3.07997 1.2 1 0.019127 0.0106222 0.0189947 0.0296975 0.0143735 0.0363964 0.0215432 0.061161 0.030698 0.0736526 0.0293694 0.051992 0.0314966 0.0704484 0.0317874 0.100525 0.0460901 0.108904 0.0376025 0.0844728
92 3 O -0.723893 81.4723 2.6341 -1.2 1 0.00770565 0.0168313 0.0214959 0.0226671 0.0254382 0.0243397 0.0432478 0.0456066 0.0337663 0.0401511 0.0577141 0.0473248 0.0521849 0.064261 0.0801992 0.0699091 0.0855254 0.0584951 0.0667178 0.0671929
93 1 Mg -1.85284 87.3486 4.20633 1.2 1 0.0260114 0.0195149 0.0175773 0.0287008 0.0151632 0.0338073 0.0317998 0.0429663 0.0394033 0.0657113 0.0587541 0.0623403 0.0528222 0.072572 0.070092 0.0655086 0.0811575 0.0777192 0.0820645 0.0602436
94 2 Si 0.460668 89.45 4.49169 2.4 1 0.019299 0.0186359 0.019271 0.026832 0.0318979 0.0399794 0.0376508 0.0409758 0.0557265 0.0564744 0.0538428 0.0663076 0.0727618 0.0584027 0.0803056 0.0747464 0.0633445 0.0796614 0.0625658 0.0650757
95 3 O -1.09329 89.4371 4.4554 -1.2 1 0.0206643 0.020665 0.0139962 0.0223677 0.028692 0.0338176 0.0229904 0.0769709 0.0384147 0.0676946 0.0338646 0.0697936 0.061659 0.0736941 0.0668303 0.0684581 0.0606987 0.0670746 0.0663222 0.0678107
96 3 O 1.81944 85.4441 4.37542 -1.2 1 0.0126827 0.0120026 0.0222609 0.0263546 0.0220408 0.0332122 0.0360734 0.0399266 0.0592272 0.0402541 0.0466366 0.0397786 0.0631131 0.0729422 0.0905804 0.0727839 0.0690929 0.0558603 0.0756893 0.0571381
97 3 O 1.28722 88.8029 3.08 -1.2 1 0.00640734 0.00731556 0.0250186 0.0262707 0.0263513 0.0228013 0.0584596 0.0437791 0.0425157 0.0415234 0.0553053 0.0395699 0.0574021 0.0511574 0.0936443 0.078325 0.065491 0.062887 0.0589628 0.0641451
98 3 O 1.21558 88.87 5.78233 -1.2 1 0.0183522 0.0091062 0.0267225 0.0237919 0.0247098 0.0322284 0.0467916 0.0476741 0.0462476 0.0406341 0.060198 0.0432152 0.0523315 0.063197 0.0932026 0.0700586 0.0732931 0.0660553 0.0610672 0.0752769
99 1 Mg 0.325074 85.1851 2.84756 1.2 1 0.0182269 0.0101863 0.0217473 0.0301232 0.0129296 0.0338058 0.0158091 0.0606617 0.0195647 0.080364 0.020432 0.0536355 0.026577 0.0712359 0.0250871 0.103613 0.0311422 0.10874 0.0444117 0.092927
100 1 Mg 0.42941 82.1056 4.23635 1.2 1 0.0334906 0.0158446 0.0136176 0.0269446 0.018192 0.0292729 0.024791 0.0348448 0.0515506 0.0470123 0.0585057 0.0544138 0.0541541 0.0714987 0.074535 0.0572873 0.0853368 0.101093 0.0702609 0.0751177
101 2 Si 2.38629 84.0086 4.23677 2.4 1 0.0279922 0.0253357 0.0188117 0.0275947 0.0388394 0.0303803 0.0371937 0.0402467 0.0537424 0.0624016 0.0554903 0.0688642 0.0723117 0.0532144 0.0777567 0.0709092 0.0633587 0.0816235 0.0640006 0.0573006
102 3 O -0.784082 84.0675 4.23772 -1.2 1 0.0215045 0.0261947 0.0138056 0.0243863 0.0367627 0.0280094 0.0215437 0.0753254 0.044114 0.0639775 0.0344116 0.0685246 0.0531703 0.0700866 0.0768568 0.0636213 0.0522781 0.0641057 0.0645909 0.0620364
103 3 O 1.33554 80.3737 4.52294 -1.2 1 0.00470979 0.0128866 0.0200343 0.0207818 0.0248122 0.0348946 0.0269511 0.0436205 0.0438831 0.0472549 0.0417568 0.0557199 0.0472124 0.0692304 0.101097 0.0721917 0.0688225 0.0604557 0.0671994 0.061702
104 3 O 1.71857 83.3515 3.00942 -1.2 1 0.0168466 0.0133462 0.0217456 0.0217919 0.0239326 0.0271191 0.0473879 0.0524347 0.0353682 0.0502613 0.053061 0.0421102 0.0516822 0.0729365 0.0791438 0.0766764 0.0718749 0.062375 0.0618605 0.0721884
105 1 Mg 0.263004 85.3259 -0.153907 1.2 1 0.00790831 0.0156281 0.00921504 0.0274626 0.0159547 0.0382822 0.0162579 0.055713 0.0350932 0.076035 0.0249604 0.0495353 0.0300975 0.0678498 0.0395096 0.104627 0.0408703 0.0963541 0.0613101 0.0808122
106 3 O 1.61916 83.2604 5.57244 -1.2 1 0.0235217 0.0233484 0.022489 0.0215973 0.0301265 0.0241154 0.0477499 0.0314602 0.0405595 0.0507167 0.0588315 0.0406804 0.06149 0.0581665 0.0799747 0.0819045 0.0682354 0.0696086 0.0667933 0.061057
107 1 Mg 0.455016 88.2257 1.36215 1.2 1 0.017446 0.0155864 0.0220238 0.0266261 0.0160879 0.0292976 0.0219481 0.0356934 0.0371239 0.0628476 0.0533255 0.0642996 0.0506609 0.0523441 0.0651456 0.0601161 0.0822578 0.0732203 0.089354 0.0574258
108 2 Si -1.87909 86.1335 1.36134 2.4 1 0.0092975 0.0162825 0.022743 0.0377145 0.0360384 0.0331323 0.0416438 0.0357542 0.0530682 0.0636529 0.0494927 0.0647281 0.070858 0.0619315 0.0809078 0.0656401 0.0656529 0.0877016 0.0540246 0.0646998
109 3 O 1.28046 86.0788 1.25693 -1.2 1 0.00952153 0.0297213 0.0131582 0.0228396 0.0195239 0.0296952 0.0284067 0.0785373 0.0330887 0.06403 0.0348907 0.0691658 0.0597897 0.072657 0.0771869 0.0715126 0.0644512 0.0692834 0.0630951 0.0662694
110 3 O -0.913972 89.984 1.31607 -1.2 1 0.00715535 0.0224799 0.0204061 0.0248777 0.0213722 0.0392827 0.0417201 0.0406369 0.0441221 0.043941 0.0461129 0.0427873 0.0524248 0.0635573 0.0962194 0.0656646 0.0813785 0.0638864 0.068733 0.0544382
111 3 O -1.29006 86.791 0.123748 -1.2 1 0.0233473 0.0134748 0.0240622 0.0249101 0.0288434 0.0292488 0.0533598 0.0404989 0.0458629 0.048278 0.0554778 0.0372645 0.0508789 0.0704246 0.0636539 0.0809666 0.0709007 0.05394 0.0697634 0.0759431
112 3 O -1.08961 86.8774 2.56693 -1.2 1 0.0225479 0.0257911 0.0285066 0.0275855 0.0322756 0.0224999 0.0481163 0.0479667 0.0385424 0.0472797 0.0568981 0.0457651 0.0586186 0.063833 0.0979007 0.0721426 0.0697928 0.0571011 0.0647921 0.0667871
113 1 Mg -2.30508 90.326 0.0414676 1.2 1 0.0156214 0.0215428 0.0133562 0.0339524 0.018362 0.034244 0.0165701 0.0567724 0.027725 0.0760272 0.0261929 0.0458034 0.0271796 0.07604 0.0299867 0.0951499 0.0463173 0.104356 0.046172 0.0964498
114 1 Mg 2.60025 93.4888 1.53503 1.2 1 0.0208044 0.0110245 0.0168606 0.0307768 0.0178146 0.0310428 0.0298211 0.0329133 0.0502208 0.0548574 0.059069 0.0529018 0.0574481 0.0718555 0.0721795 0.066598 0.070663 0.0985494 0.0649742 0.0844882
115 2 Si -0.179027 91.4433 1.64549 2.4 1 0.0181794 0.0171182 0.0223701 0.0279871 0.0329385 0.0305227 0.0449579 0.0394177 0.0568376 0.052572 0.0504376 0.0572389 0.0796283 0.0532913 0.0661422 0.0641878 0.0690834 0.0934933 0.0623289 0.057415
116 3 O 1.39015 91.3166 1.46264 -1.2 1 0.0212211 0.0145508 0.0238808 0.0247343 0.0243617 0.0313848 0.0259367 0.0615329 0.0462863 0.0550287 0.046426 0.077903 0.0500322 0.0598246 0.0735495 0.0727745 0.0695868 0.0730056 0.0540534 0.0835565
117 3 O -1.28985 95.2657 1.7304 -1.2 1 0.00512782 0.0264967 0.017155 0.0290643 0.0167278 0.0347394 0.0279808 0.0421954 0.0602125 0.0455033 0.0451772 0.0468154 0.0629944 0.0618958 0.0904285 0.0809485 0.0583364 0.0643816 0.0688977 0.0552227
118 3 O -0.971105 92.2954 0.435079 -1.2 1 0.0143769 0.0141238 0.0259912 0.0249598 0.0354022 0.0296751 0.040025 0.0430943 0.0313834 0.0426501 0.0605771 0.0411483 0.0584477 0.0657066 0.0901606 0.0747712 0.0819912 0.0767796 0.0618665 0.0608318
119 1 Mg -2.43288 101.106 2.87126 1.2 1 0.0148894 0.0185314 0.0105585 0.0337497 0.0155546 0.037716 0.0196938 0.0615816 0.0186294 0.0743115 0.0220328 0.0556053 0.0271802 0.0662459 0.0334279 0.101893 0.0425069 0.109639 0.0443122 0.0852507
120 3 O -0.857471 92.0898 3.04298 -1.2 1 0.0282831 0.00542163 0.0194923 0.0303232 0.0194251 0.0286714 0.0513712 0.0465636 0.0516022 0.0505946 0.0546656 0.0440566 0.0585224 0.0559931 0.0862721 0.0727695 0.0689389 0.0638903 0.0591081 0.0761948
121 1 Mg -2.26042 98.2879 4.31049 1.2 1 0.00989938 0.0171845 0.0238803 0.0324673 0.0116814 0.0269064 0.025314 0.0342589 0.0429118 0.0570096 0.0589142 0.0508133 0.0553935 0.068006 0.0542644 0.0802497 0.0710297 0.0898726 0.0715537 0.0851419
122 2 Si 0.370155 99.938 4.47263 2.4 1 0.0167731 0.0232309 0.0175829 0.0278618 0.0287629 0.027574 0.0362555 0.0436965 0.0463669 0.0556524 0.0461002 0.0603683 0.0595717 0.0532738 0.0674119 0.0742354 0.0598654 0.0973288 0.0642324 0.0616092
123 3 O -1.19172 100.091 4.36065 -1.2 1 0.0146295 0.0163447 0.0166862 0.0241268 0.0213139 0.0219511 0.021712 0.0794715 0.0353665 0.0515309 0.0370902 0.0679731 0.0560958 0.0634017 0.0737801 0.0671586 0.0637709 0.0721852 0.0622492 0.0711299
124 3 O 1.61267 96.3091 4.41218 -1.2 1 0.0138431 0.0152369 0.0273452 0.0279431 0.0187754 0.0329096 0.0329925 0.0500958 0.0526652 0.0460367 0.0456898 0.0459908 0.0539364 0.0637152 0.105133 0.0664655 0.0702977 0.0528632 0.0703885 0.0660914
125 3 O 1.13956 99.5167 3.16419 -1.2 1 0.0209653 0.0149831 0.0264261 0.0231783 0.0314043 0.0189326 0.0506324 0.0478145 0.0372396 0.0373358 0.048343 0.0412278 0.0505457 0.0623235 0.086956 0.0717373 0.0803659 0.0564629 0.0611196 0.0705042