ITEM: TIMESTEP
27800
ITEM: NUMBER OF ATOMS
5600
ITEM: BOX BOUNDS xy xz yz pp pp pp
0	7.1235	0
0	201.985	2.3745
0	119.584	0
ITEM: ATOMS id type element xu yu zu q Q_1 Q_2 Q_3 Q_4 Q_5 Q_6 Q_7 Q_8 Q_9 Q_10 Q_11 Q_12 Q_13 Q_14 Q_15 Q_16 Q_17 Q_18 Q_19 Q_20 Q_21
1 1 Mg -1.47815 49.234 -0.471923 1.2 1 0.43426 0.0734591 0.129013 0.0473886 0.0595255 0.0533689 0.0455142 0.0553662 0.0768314 0.0569985 0.0797249 0.088285 0.0873988 0.102641 0.112477 0.0934379 0.0871345 0.105115 0.106734 0.0825682
2 1 Mg 3.20235 50.7835 2.85408 1.2 1 0.292828 0.127908 0.0329713 0.0654187 0.0355661 0.0285812 0.0697418 0.0517071 0.0601722 0.0718737 0.0702534 0.0796509 0.0797002 0.0766896 0.0877519 0.0864227 0.0924497 0.0738231 0.0900204 0.0746389
3 2 Si 1.03519 50.6627 0.89778 2.4 1 0.292814 0.128765 0.049753 0.075326 0.0406772 0.0357274 0.0547793 0.0371596 0.0805173 0.0722416 0.061388 0.0749606 0.066806 0.0777316 0.0855914 0.0813539 0.0929067 0.0679973 0.0786818 0.0762271
4 3 O 2.41906 49.9549 1.12818 -1.2 1 0.3621 0.121582 0.0856287 0.065841 0.0380347 0.057641 0.0628529 0.0689468 0.0516328 0.0755937 0.0640418 0.0801428 0.0923371 0.088572 0.0758519 0.0811658 0.0777683 0.0774918 0.0801612 0.0786135
5 3 O -1.11051 53.3392 2.18197 -1.2 1 0.113545 0.0706081 0.0490841 0.0255521 0.0291272 0.0313672 0.0419245 0.0492346 0.0544457 0.0584195 0.0521674 0.0585805 0.0528556 0.0691259 0.0794881 0.092809 0.0837476 0.0501538 0.0535494 0.0727949
6 3 O 0.364836 49.9377 -0.248146 -1.2 1 0.373131 0.104473 0.0778812 0.0677876 0.0212684 0.0627667 0.0281541 0.0680517 0.0791611 0.0760014 0.0785371 0.0811128 0.0886503 0.0905307 0.0963781 0.076875 0.0817575 0.0823243 0.0678372 0.0877329
7 1 Mg -2.13295 59.2564 3.62218 1.2 1 0.0106138 0.0144499 0.0203258 0.0255614 0.0106259 0.0357758 0.0186097 0.0622637 0.0287186 0.0752729 0.0206209 0.0485101 0.0331237 0.074746 0.0294563 0.0995674 0.0404545 0.115634 0.0458309 0.0818296
8 3 O 0.302946 50.8709 2.28135 -1.2 1 0.294225 0.121509 0.0512202 0.0529539 0.0329419 0.0327014 0.0691689 0.0672834 0.0662388 0.0896808 0.0697454 0.0731165 0.0604029 0.0576898 0.0896907 0.0881037 0.0762986 0.0788332 0.0757171 0.0821849
9 1 Mg -2.13625 56.2631 4.98923 1.2 1 0.0243955 0.0215966 0.0259674 0.0343214 0.0174102 0.0348697 0.0224523 0.0355762 0.0447639 0.0553556 0.0591599 0.0610649 0.0533112 0.0693257 0.0636664 0.0685761 0.0793621 0.0807962 0.0738673 0.068448
10 2 Si 0.534763 58.2175 5.04388 2.4 1 0.0180647 0.0222344 0.0240497 0.0321768 0.03696 0.0262968 0.0354805 0.0433538 0.0499728 0.0587395 0.0575122 0.0750285 0.0683551 0.0575135 0.0851981 0.068769 0.0681232 0.0943947 0.059651 0.0583642
11 3 O -0.964695 58.3272 4.99346 -1.2 1 0.0267787 0.0130391 0.0183195 0.0250351 0.0303833 0.0303953 0.030676 0.0692523 0.0423269 0.0565943 0.0437771 0.0723652 0.0576448 0.0583656 0.06459 0.0691076 0.0653884 0.0725499 0.0702611 0.0829703
12 3 O 1.8894 54.1963 5.23903 -1.2 1 0.0653831 0.0464867 0.0412216 0.0354568 0.0313743 0.0299214 0.0359909 0.0307191 0.0611091 0.0646028 0.06586 0.0436245 0.0587576 0.081813 0.0737631 0.0799188 0.0777106 0.0711188 0.0652464 0.0696628
13 3 O 1.21024 57.3542 3.95191 -1.2 1 0.00606346 0.0161905 0.0225978 0.0203489 0.028987 0.0263277 0.039741 0.0443991 0.0427497 0.0562142 0.0493479 0.0409405 0.0667879 0.0504191 0.0894143 0.0778724 0.0702781 0.0730706 0.0607167 0.0656554
14 3 O 1.25228 57.6697 6.4483 -1.2 1 0.0238027 0.0150797 0.0305469 0.0210733 0.0180857 0.0276389 0.0515111 0.0487198 0.0400111 0.0508724 0.0530709 0.0392772 0.0583674 0.0609347 0.0851282 0.0790007 0.0705891 0.0547721 0.0635179 0.0714695
15 1 Mg 0.584032 53.3706 3.39915 1.2 1 0.0948272 0.0852315 0.0406328 0.028327 0.0328085 0.0276289 0.0340536 0.0490965 0.0563436 0.0357219 0.0678779 0.0539585 0.0440611 0.0647953 0.0657774 0.0793247 0.0620923 0.0783813 0.0785579 0.082837
16 1 Mg 0.968599 50.12 3.96238 1.2 1 0.35723 0.103513 0.068616 0.0618162 0.0356068 0.0693037 0.0506919 0.0726722 0.0593861 0.0744309 0.0692379 0.0776596 0.0708622 0.0710895 0.0891154 0.08315 0.0698885 0.0916522 0.0871266 0.0806114
17 2 Si 2.56544 52.6824 5.37492 2.4 1 0.114971 0.111176 0.0440436 0.0355489 0.0266832 0.0420971 0.0346157 0.0512333 0.0781943 0.0629281 0.0875725 0.0693078 0.0654443 0.0601522 0.0738335 0.0801032 0.0855221 0.095516 0.0744241 0.0630847
18 3 O -0.598594 52.8177 5.19018 -1.2 1 0.114745 0.115107 0.0305603 0.0326246 0.0182119 0.0463362 0.0326211 0.0593804 0.0729993 0.0807057 0.0504864 0.0865531 0.0691524 0.0767106 0.0771769 0.0814419 0.0781605 0.0599003 0.0850892 0.0612519
19 3 O 2.76755 49.2029 3.98837 -1.2 1 0.45012 0.0574518 0.128548 0.0413887 0.0684224 0.0454707 0.0682213 0.0653317 0.0708343 0.0706435 0.0842954 0.0751259 0.0868228 0.0786655 0.0874675 0.0987581 0.0918539 0.0914443 0.0726526 0.0710243
20 3 O 2.05672 51.9356 4.0938 -1.2 1 0.2007 0.106194 0.0203884 0.0348948 0.0305099 0.0626819 0.0375793 0.0664934 0.0634557 0.0581747 0.0688482 0.0625072 0.0733445 0.0771645 0.0796399 0.0782687 0.0862257 0.0839565 0.0688924 0.0665431
21 1 Mg 0.0556992 53.9212 0.559952 1.2 1 0.0808634 0.0547327 0.0423711 0.0271951 0.0237315 0.0205394 0.0263992 0.065947 0.0463123 0.0539285 0.0501247 0.0572242 0.0443187 0.0722367 0.067299 0.0850041 0.0710365 0.0933753 0.0558119 0.0821038
22 3 O 2.0792 51.7999 6.58575 -1.2 1 0.207166 0.115941 0.0165986 0.0472029 0.0364292 0.0386933 0.0434931 0.0652856 0.0590647 0.0625747 0.0693666 0.0771348 0.0563345 0.100424 0.0744664 0.0707452 0.0708531 0.0708915 0.0727367 0.0679161
23 1 Mg 0.241683 56.7988 2.23591 1.2 1 0.0180833 0.0159716 0.0179484 0.0259057 0.0131805 0.026572 0.0342771 0.0419869 0.0429045 0.0513671 0.0584531 0.0551564 0.0624234 0.0635759 0.0657006 0.0818593 0.0702864 0.0758768 0.0748733 0.0729414
24 2 Si -1.81631 54.8407 2.13625 2.4 1 0.011512 0.03755 0.0433653 0.0283572 0.021453 0.0366706 0.0467958 0.0486024 0.0499548 0.0591671 0.0580982 0.0531382 0.0740984 0.0528778 0.0699942 0.0651923 0.0699901 0.0690598 0.068729 0.060899
25 3 O 1.38777 54.8259 2.16921 -1.2 1 0.0250371 0.0428856 0.038939 0.0198694 0.019698 0.0318667 0.0300785 0.0557105 0.0463285 0.0564361 0.0527716 0.0555746 0.0489494 0.082771 0.0668605 0.0525239 0.0653912 0.0749105 0.0621822 0.0684914
26 3 O -0.753001 58.6714 2.07433 -1.2 1 0.0138072 0.0242284 0.0177593 0.0222968 0.0155601 0.0285039 0.0357189 0.0452341 0.0519393 0.0494297 0.0513003 0.0472335 0.0604108 0.0688764 0.0956635 0.0671386 0.0757222 0.0513916 0.0797886 0.0673037
27 3 O -1.20738 55.4706 0.750578 -1.2 1 0.0124013 0.0389737 0.0277051 0.038955 0.0204862 0.0338658 0.0550768 0.0507777 0.0413716 0.0404716 0.0720926 0.0421149 0.0479641 0.0726296 0.0885831 0.0721052 0.0716719 0.0652965 0.0747862 0.0639534
28 3 O -1.11247 55.6322 3.30625 -1.2 1 0.0161503 0.023101 0.0322139 0.0336667 0.0247897 0.0247442 0.0428225 0.0441002 0.0395491 0.0406727 0.0643345 0.0480627 0.0519313 0.0690381 0.0830785 0.077072 0.0667017 0.060961 0.0686836 0.0654377
29 1 Mg -2.35247 59.238 0.410466 1.2 1 0.0147483 0.0321853 0.0194098 0.0320549 0.0119508 0.0297408 0.0207072 0.0550403 0.0219152 0.0849281 0.0258506 0.0516726 0.0279478 0.0707793 0.0320435 0.10263 0.035953 0.114547 0.0471102 0.0903684
30 1 Mg 2.36637 62.0949 1.81872 1.2 1 0.019662 0.0135753 0.0155958 0.0229663 0.0130986 0.0171568 0.0232792 0.0358321 0.0417299 0.0614922 0.0536435 0.0574925 0.0625373 0.0617635 0.0711381 0.0643413 0.079557 0.0937896 0.0784405 0.0699467
31 2 Si -0.146459 60.1872 2.028 2.4 1 0.0289134 0.0168807 0.0100485 0.0273281 0.0263811 0.0260063 0.0412851 0.0422359 0.0480546 0.0617562 0.0567281 0.0694951 0.0691144 0.0585467 0.0806009 0.0728249 0.0680182 0.0884644 0.0605956 0.0615902
32 3 O 1.43462 60.085 2.10856 -1.2 1 0.0210306 0.0150738 0.0174623 0.0285653 0.0261462 0.0266779 0.0252313 0.0729265 0.0368656 0.0589196 0.0462802 0.0667401 0.0472888 0.0677532 0.0735035 0.064593 0.0623819 0.0755183 0.0605241 0.0709221
33 3 O -1.40861 63.8489 1.77698 -1.2 1 0.0141089 0.0195601 0.0262005 0.0158792 0.0189098 0.0348644 0.0309916 0.0429451 0.064494 0.0437448 0.0414393 0.0440348 0.0520552 0.0676346 0.102671 0.0720019 0.0650489 0.0460922 0.0728299 0.0685054
34 3 O -0.822398 60.7788 0.718673 -1.2 1 0.0149118 0.0121924 0.0287374 0.0177816 0.020558 0.0217749 0.0428224 0.0398334 0.0385744 0.053469 0.0432607 0.0399387 0.0514212 0.070557 0.0768516 0.0691492 0.0856305 0.0605106 0.075581 0.0670561
35 1 Mg -2.38252 69.3157 3.28113 1.2 1 0.0128042 0.0211047 0.00714807 0.0311134 0.0160696 0.0355204 0.0169086 0.0604454 0.0196523 0.0747698 0.0308151 0.0439285 0.0216936 0.0653183 0.0338142 0.108289 0.0525807 0.0983824 0.0537584 0.081774
36 3 O -0.855127 60.8347 3.28553 -1.2 1 0.0103365 0.017815 0.0342618 0.0190217 0.0234336 0.0256289 0.0433188 0.0464684 0.0358825 0.0568498 0.0469482 0.0409922 0.0486401 0.0672098 0.0756909 0.07425 0.078638 0.059067 0.0603543 0.0722069
37 1 Mg -2.18643 66.7795 4.7681 1.2 1 0.0191934 0.0139144 0.0192561 0.0269034 0.0169554 0.0216547 0.0190356 0.0263699 0.0406471 0.0658618 0.0527278 0.0576804 0.0604554 0.0647833 0.0546918 0.0805216 0.0681577 0.102495 0.0675784 0.0917685
38 2 Si 0.348448 68.5646 4.79669 2.4 1 0.0190205 0.0193758 0.0154244 0.03268 0.0238845 0.027577 0.0421368 0.0411199 0.0449906 0.0653605 0.0557283 0.0640841 0.0657751 0.0602911 0.0841909 0.065255 0.0628392 0.086488 0.0616993 0.0691601
39 3 O -1.20494 68.5989 4.79526 -1.2 1 0.0227094 0.0222887 0.0185495 0.0184285 0.0188766 0.0242863 0.0255261 0.0732276 0.0377247 0.052966 0.0366165 0.0719475 0.0550877 0.0650738 0.0744932 0.0667829 0.0563263 0.0715944 0.0603421 0.0688481
40 3 O 1.56679 64.9076 4.83215 -1.2 1 0.0165833 0.0217456 0.0259035 0.0162213 0.0185876 0.0344533 0.0285496 0.0473334 0.0567843 0.0448358 0.045211 0.0456192 0.051724 0.0662857 0.105982 0.0687498 0.0582249 0.0569588 0.0665424 0.0614344
41 3 O 1.04129 67.8433 3.46205 -1.2 1 0.00847844 0.0099077 0.0340008 0.0208419 0.0258408 0.020949 0.048901 0.0467607 0.0449631 0.0506525 0.0514429 0.0370866 0.0520164 0.0674608 0.0766024 0.0738364 0.0677489 0.056946 0.0670778 0.0687042
42 3 O 1.15189 67.8699 5.93886 -1.2 1 0.0173715 0.0138601 0.023824 0.0171035 0.0206092 0.0197563 0.046037 0.0433449 0.0296263 0.0453108 0.0510058 0.0430197 0.0535743 0.0615199 0.0801121 0.0715537 0.0781929 0.067331 0.0733603 0.0606863
43 1 Mg 0.0241347 64.403 3.21861 1.2 1 0.0142643 0.0143941 0.0143514 0.0301919 0.00721511 0.0339165 0.0135053 0.0574055 0.0162221 0.0841901 0.0233504 0.0522303 0.0203234 0.0697815 0.0262197 0.102252 0.03801 0.106089 0.0430415 0.0909871
44 1 Mg 0.156167 61.5485 4.91686 1.2 1 0.00371819 0.0195544 0.0160556 0.0307437 0.0207346 0.0178233 0.023679 0.0283493 0.0397441 0.0677439 0.054293 0.0583769 0.0630637 0.0664642 0.057858 0.0767004 0.0660774 0.107755 0.0698113 0.0878059
45 2 Si 2.18892 63.419 4.67622 2.4 1 0.0235948 0.0111151 0.0132647 0.0297698 0.0277946 0.0314775 0.040104 0.0419977 0.0502338 0.052651 0.0516024 0.0598252 0.0699619 0.0568369 0.0794776 0.069839 0.0688753 0.08847 0.0584656 0.0536947
46 3 O -1.05428 63.5348 4.78329 -1.2 1 0.0286465 0.0123518 0.0116644 0.0174708 0.0184574 0.0290962 0.0274441 0.0612607 0.0389318 0.0494803 0.0421637 0.0671568 0.0515953 0.0671299 0.0685222 0.0679762 0.0597015 0.0732235 0.0619539 0.0791818
47 3 O 1.20579 59.7493 4.95845 -1.2 1 0.0183338 0.0187695 0.0224551 0.0162327 0.0191583 0.0376705 0.0324741 0.0446653 0.0516371 0.0454164 0.0401779 0.051566 0.0461083 0.0684477 0.101955 0.0636456 0.0689599 0.054969 0.0662513 0.0669171
48 3 O 1.39906 62.7986 3.47835 -1.2 1 0.020438 0.0112825 0.0295662 0.0227317 0.0233396 0.0211012 0.0491806 0.046232 0.0400201 0.0399745 0.0538989 0.0387995 0.0574148 0.0562703 0.0929539 0.0644534 0.0751271 0.0582219 0.0611873 0.0724887
49 1 Mg 0.038882 64.26 0.348651 1.2 1 0.00548808 0.0191383 0.00953805 0.0352976 0.004448 0.0364002 0.00866752 0.062963 0.00848556 0.0858482 0.0133359 0.0537481 0.0205092 0.0676756 0.0182412 0.110343 0.0200421 0.110235 0.0196556 0.093951
50 3 O 1.50289 62.7322 5.95234 -1.2 1 0.0172387 0.0135913 0.023668 0.0213347 0.0225146 0.0213001 0.0424782 0.0418446 0.0397468 0.0407782 0.0550097 0.0428583 0.0614865 0.0564263 0.0899727 0.0680654 0.0739491 0.0705134 0.0705282 0.0580602
51 1 Mg 0.145382 67.1934 1.92143 1.2 1 0.00746804 0.0124157 0.0185982 0.0277601 0.0150406 0.02058 0.0231338 0.0339598 0.0443007 0.0599195 0.0533528 0.055662 0.0603735 0.0638182 0.0638817 0.0696261 0.0767538 0.0953496 0.0766915 0.0765721
52 2 Si -2.03075 65.3585 1.71788 2.4 1 0.0182697 0.0143903 0.0196111 0.0292406 0.031093 0.0320419 0.0392202 0.0414376 0.0470591 0.0540441 0.0508233 0.0628593 0.0751322 0.0540074 0.0739318 0.0786569 0.0646438 0.0870578 0.0600226 0.0579212
53 3 O 1.15481 65.1813 1.75626 -1.2 1 0.02163 0.0132037 0.0186663 0.0225352 0.0197899 0.0250331 0.0221785 0.0737345 0.0350845 0.0543323 0.0448012 0.0670689 0.0493003 0.0653382 0.0788607 0.0693744 0.062516 0.0748184 0.0539699 0.0756255
54 3 O -0.999141 68.905 1.70606 -1.2 1 0.00777308 0.0182067 0.0220021 0.0192147 0.0224617 0.0377986 0.0313962 0.043186 0.0514781 0.0483781 0.034817 0.0533919 0.0502171 0.0628866 0.104031 0.0648322 0.0702089 0.0566918 0.0643319 0.0618722
55 3 O -1.35606 65.9468 0.368337 -1.2 1 0.0134036 0.00720646 0.0350312 0.0217606 0.0167707 0.0233326 0.0459886 0.0450202 0.0343399 0.0517998 0.0578603 0.0347212 0.0510659 0.0603024 0.0856673 0.0795698 0.0651168 0.0596186 0.0574727 0.0757999
56 3 O -1.24989 66.0029 2.95426 -1.2 1 0.0108047 0.00924346 0.0238559 0.0193938 0.0218955 0.0168016 0.0452994 0.0405144 0.0361592 0.0444655 0.0500331 0.0408399 0.0536016 0.0652422 0.0900217 0.0717419 0.077357 0.0642194 0.0715525 0.0635915
57 1 Mg -2.40303 69.3604 0.2642 1.2 1 0.010318 0.00728032 0.00748722 0.0258509 0.00914168 0.0364433 0.0117037 0.0537003 0.0158645 0.0828108 0.0154975 0.0490898 0.0161793 0.0735684 0.02493 0.100524 0.0303221 0.11235 0.0297172 0.099821
58 1 Mg 2.16874 72.1506 1.83575 1.2 1 0.016618 0.0181733 0.0216466 0.0311835 0.0158731 0.0212511 0.0302238 0.0307208 0.0438548 0.0582158 0.0685707 0.0559179 0.0584922 0.0639542 0.0594329 0.0983191 0.0596087 0.0911572 0.064823 0.0784691
59 2 Si -0.375453 70.4133 1.71393 2.4 1 0.0152312 0.013582 0.0213111 0.0343889 0.0282674 0.031751 0.0415787 0.0422649 0.0544796 0.0561662 0.0522096 0.068493 0.0707272 0.0650151 0.082599 0.0675504 0.0609634 0.0963331 0.0501707 0.0573498
60 3 O 1.18318 70.3584 1.68109 -1.2 1 0.0204401 0.0284201 0.0141595 0.0264923 0.0267348 0.0294966 0.0227762 0.0649768 0.0492574 0.0539163 0.0433503 0.0727442 0.053699 0.0678058 0.0742606 0.0628954 0.0595689 0.0714892 0.0574147 0.0811921
61 3 O -1.27913 74.1749 1.77023 -1.2 1 0.0099812 0.0222687 0.021474 0.0190918 0.0197733 0.0344761 0.0397197 0.0426195 0.0497139 0.0451273 0.0464749 0.0488847 0.0509224 0.0673052 0.105495 0.0709658 0.0719074 0.0573307 0.0698646 0.0589732
62 3 O -1.0648 71.1691 0.538731 -1.2 1 0.0065168 0.0192815 0.0250055 0.0171538 0.0191751 0.0244365 0.046592 0.0511875 0.0288824 0.0532095 0.0555048 0.0408343 0.0576681 0.0595198 0.088115 0.0677703 0.0739587 0.0700746 0.0683125 0.0587534
63 1 Mg -2.27598 79.806 3.04997 1.2 1 0.0120163 0.0132758 0.0126579 0.0331243 0.0149234 0.0330386 0.0094878 0.0590992 0.0214557 0.0808831 0.0176492 0.0511069 0.0205626 0.0660171 0.024247 0.105903 0.0369666 0.105884 0.0395088 0.0953409
64 3 O -1.03866 71.0283 3.08634 -1.2 1 0.0154207 0.0102386 0.0354831 0.025799 0.0266062 0.0202303 0.0483733 0.0482042 0.048715 0.0391472 0.051019 0.0444572 0.0511862 0.0657369 0.100159 0.0747143 0.0753437 0.0589646 0.0723726 0.0696997
65 1 Mg -2.26535 77.0325 4.7316 1.2 1 0.0119843 0.0158424 0.0203481 0.0270687 0.0170793 0.0259025 0.0258772 0.0334083 0.0437268 0.05845 0.0535853 0.0556382 0.064382 0.0656742 0.068805 0.0693303 0.0788991 0.090063 0.071364 0.078979
66 2 Si 0.330791 78.8764 4.60607 2.4 1 0.0138226 0.0185077 0.0147444 0.0305699 0.025422 0.0300328 0.0408226 0.0406434 0.0482173 0.0615491 0.0553712 0.0663426 0.0658949 0.0565518 0.0790822 0.0716239 0.0605771 0.0880628 0.0619358 0.0618816
67 3 O -1.18217 78.9786 4.55313 -1.2 1 0.0147798 0.0201968 0.0105367 0.0268699 0.0233329 0.028429 0.0222744 0.0758083 0.0365739 0.0551399 0.0382492 0.0665519 0.0606316 0.0683351 0.0746183 0.0680103 0.0567049 0.0720494 0.0638053 0.0652186
68 3 O 1.54434 75.214 4.7137 -1.2 1 0.0135199 0.0249771 0.026163 0.0179216 0.0215574 0.0356951 0.0299617 0.0445114 0.0591194 0.0424468 0.0491779 0.0395512 0.0534984 0.070584 0.10399 0.0760137 0.0661992 0.0455748 0.078088 0.0662459
69 3 O 1.03096 78.3068 3.26696 -1.2 1 0.0117143 0.030771 0.0204826 0.0224969 0.0232821 0.0163486 0.0463349 0.0486745 0.0412643 0.0482704 0.0499178 0.0460087 0.0559683 0.0622389 0.0850644 0.0712843 0.076069 0.0601999 0.0671836 0.0687962
70 3 O 1.11062 78.2894 5.85823 -1.2 1 0.0129044 0.00935654 0.0341008 0.0157938 0.0168618 0.0272365 0.0490664 0.0450609 0.0374104 0.04637 0.0549434 0.0364531 0.0525236 0.060611 0.0829903 0.081813 0.0766584 0.0591345 0.0637928 0.0718151
71 1 Mg 0.0405023 74.807 3.23342 1.2 1 0.0117891 0.0164614 0.00952775 0.0321207 0.0112018 0.0318214 0.0115638 0.0591092 0.0163698 0.0837231 0.0157805 0.0524806 0.0180061 0.0773832 0.022254 0.100434 0.0322707 0.110979 0.0335677 0.0870165
72 1 Mg -0.0478322 71.9158 4.45897 1.2 1 0.0199928 0.0153345 0.0178304 0.0323494 0.0129896 0.028521 0.0211453 0.037868 0.044351 0.0630798 0.0612501 0.0475359 0.0625609 0.0711827 0.0735836 0.0824204 0.0658189 0.0849142 0.0792786 0.0708753
73 2 Si 2.2383 73.6591 4.71057 2.4 1 0.0149184 0.0173793 0.016406 0.0288961 0.0252008 0.0299517 0.0378399 0.0389433 0.0456768 0.0606784 0.0556192 0.0620764 0.0659943 0.0595762 0.071269 0.0733863 0.0642609 0.0832168 0.060533 0.0565662
74 3 O -0.951566 73.8399 4.61895 -1.2 1 0.0151096 0.0137775 0.0155168 0.0256 0.0231356 0.0265621 0.0242342 0.0713901 0.041235 0.060016 0.0436299 0.0627872 0.0503397 0.0643377 0.0700257 0.0697673 0.0564784 0.0777087 0.05261 0.0753343
75 3 O 1.00315 70.0348 4.73761 -1.2 1 0.00902241 0.0212594 0.0229297 0.0157637 0.0193651 0.0365927 0.0342208 0.046553 0.0600489 0.0410861 0.0425727 0.0464421 0.0546805 0.0696028 0.0992302 0.0708751 0.0650125 0.0452299 0.0725237 0.06497
76 3 O 1.46885 72.9586 3.48028 -1.2 1 0.0137514 0.0119884 0.0252922 0.0176593 0.0221037 0.0186127 0.0439185 0.0474196 0.0366113 0.0524197 0.0521968 0.0364465 0.0562551 0.0603726 0.0759845 0.0783583 0.075552 0.0647126 0.0616736 0.0677034
77 1 Mg 0.0401695 74.7278 0.248258 1.2 1 0.0134546 0.0136018 0.00756693 0.0339167 0.0103892 0.032936 0.00864157 0.0600749 0.0135562 0.0805939 0.013207 0.0491448 0.0202355 0.0731175 0.020147 0.105364 0.025029 0.11257 0.0256708 0.0902358
78 3 O 1.61933 73.1958 6.04345 -1.2 1 0.0147553 0.0106665 0.0350614 0.0190786 0.0249803 0.0233795 0.0425992 0.0421289 0.0390237 0.0471172 0.0529244 0.0395742 0.0456222 0.0732686 0.0652112 0.077392 0.0718824 0.0631973 0.065354 0.0706867
79 1 Mg 0.0313814 77.7175 1.58882 1.2 1 0.00522422 0.00949827 0.0158865 0.0274546 0.0169333 0.0176592 0.0229679 0.0312073 0.0363741 0.0637686 0.0509649 0.0588744 0.0620481 0.0596502 0.0676916 0.0644762 0.0793482 0.0995198 0.0651125 0.0717747
80 2 Si -1.98321 75.6836 1.75099 2.4 1 0.0130882 0.0102546 0.0217772 0.0279322 0.0269126 0.0348477 0.0390879 0.0429397 0.0532913 0.0525631 0.0494049 0.0623526 0.0715334 0.0574001 0.0822731 0.0729521 0.0569697 0.0917568 0.0551525 0.0509644
81 3 O 1.22523 75.6063 1.67442 -1.2 1 0.0193815 0.0170256 0.016891 0.02096 0.0276234 0.0248762 0.0239029 0.0722979 0.0392535 0.0540184 0.0436628 0.0712073 0.0565249 0.0674262 0.0775751 0.0679647 0.0577358 0.0784557 0.0585054 0.0690079
82 3 O -0.951773 79.4515 1.44362 -1.2 1 0.0102745 0.0182942 0.0251511 0.0254889 0.0150488 0.0354793 0.033737 0.0436508 0.0552394 0.0444206 0.0497548 0.0447511 0.0568429 0.0702469 0.105422 0.0726441 0.0641644 0.053819 0.0760254 0.0603813
83 3 O -1.26694 76.2959 0.353602 -1.2 1 0.0118807 0.0150539 0.025267 0.0264215 0.0254075 0.0188538 0.0528003 0.0401502 0.0382813 0.0378624 0.0523948 0.0440252 0.0528089 0.0600951 0.0925593 0.0758341 0.072839 0.0588033 0.0654609 0.0707571
84 3 O -1.29609 76.4173 2.88729 -1.2 1 0.00663228 0.0212047 0.0263132 0.0189476 0.0159633 0.0221154 0.0469301 0.0445817 0.0354531 0.0528522 0.0539575 0.0457472 0.0591433 0.0678234 0.0858574 0.0669646 0.0797899 0.0659465 0.06702 0.0638377
85 1 Mg -2.44447 79.9454 -0.0531586 1.2 1 0.0090757 0.0190838 0.0116153 0.031725 0.0110626 0.037568 0.0133718 0.0620998 0.0181564 0.0822193 0.0129282 0.0548543 0.0172916 0.0703267 0.0215742 0.108806 0.0235487 0.108772 0.0360586 0.0917282
86 1 Mg 2.39981 82.8385 1.374 1.2 1 0.0240788 0.0133127 0.016678 0.0266358 0.0157583 0.0269221 0.024856 0.0331987 0.0456062 0.0592097 0.0552125 0.0503056 0.0601649 0.0651461 0.0662998 0.074221 0.0715777 0.102092 0.0625879 0.0878659
87 2 Si -0.261308 80.935 1.52734 2.4 1 0.00976742 0.00419429 0.0213192 0.0289152 0.0350032 0.0255753 0.0430954 0.0394114 0.0456458 0.0512641 0.0555578 0.0605378 0.0726161 0.0550529 0.0757504 0.070143 0.0633367 0.0947911 0.0522162 0.0546588
88 3 O 1.1988 80.8423 1.52 -1.2 1 0.0137551 0.0175581 0.0204011 0.0222323 0.022054 0.0273429 0.0261032 0.074251 0.0357999 0.0522986 0.042371 0.0692471 0.0530142 0.0687006 0.0745769 0.0717014 0.0635128 0.0753251 0.054571 0.0727119
89 3 O -1.41553 84.6838 1.47328 -1.2 1 0.00551581 0.0170545 0.0243927 0.0200794 0.0174649 0.0355117 0.0364415 0.0454444 0.0553957 0.04255 0.0436305 0.0428392 0.0522193 0.0704978 0.10276 0.0738078 0.0718831 0.0538012 0.0705964 0.0645901
90 3 O -0.923105 81.7352 0.240468 -1.2 1 0.00788461 0.0148612 0.0279561 0.0144698 0.0184178 0.0247351 0.0480117 0.0487235 0.0352143 0.0459585 0.0558844 0.0335166 0.0557736 0.069471 0.0688544 0.0780806 0.0742222 0.063986 0.0678668 0.0651354
91 1 Mg -2.40134 90.347 2.83926 1.2 1 0.00281481 0.0145506 0.0100257 0.0345058 0.00812249 0.0373368 0.00936527 0.0605819 0.0154985 0.0840151 0.0118362 0.0540918 0.0159711 0.0681796 0.0193278 0.104994 0.0268024 0.111063 0.0259623 0.0967084
92 3 O -1.04884 81.5678 2.82438 -1.2 1 0.0153752 0.0105475 0.034314 0.0265641 0.0273946 0.0199678 0.0464364 0.0464847 0.0381183 0.0441912 0.0556296 0.0417126 0.0569019 0.0542056 0.0954521 0.067974 0.0738368 0.0613476 0.0612062 0.0727332
93 1 Mg -2.14209 87.6168 4.38539 1.2 1 0.0234098 0.0183365 0.0236779 0.029368 0.0182355 0.0268346 0.0241463 0.0331449 0.0368954 0.0598151 0.0639958 0.0553102 0.0585576 0.0632 0.0674578 0.0866272 0.0756509 0.0823304 0.0764718 0.0751618
94 2 Si 0.324064 89.3893 4.31036 2.4 1 0.023889 0.0162015 0.0176099 0.0368669 0.0253688 0.03091 0.0394877 0.0414219 0.0494692 0.0579418 0.0544326 0.066333 0.0735946 0.0579433 0.075532 0.0749538 0.0623534 0.0939726 0.0560009 0.0628684
95 3 O -1.2352 89.4458 4.36056 -1.2 1 0.0165439 0.0211001 0.011606 0.0247425 0.0259491 0.0269202 0.0237929 0.0746713 0.0393881 0.0566921 0.0463413 0.0743414 0.0608299 0.0672133 0.0740584 0.0679034 0.0579332 0.0733569 0.0666629 0.0746646
96 3 O 1.51266 85.6504 4.31681 -1.2 1 0.0166596 0.0153248 0.023626 0.0239232 0.0188811 0.033198 0.0322017 0.0425491 0.062303 0.0401032 0.0463254 0.0356584 0.053778 0.0728646 0.101234 0.0781936 0.0710236 0.0475012 0.0732064 0.0636985
97 3 O 1.02738 88.8243 2.98469 -1.2 1 0.0159226 0.019847 0.0284907 0.0221454 0.0185089 0.0216827 0.04927 0.0451248 0.0462032 0.0434306 0.0514118 0.0448994 0.0514803 0.0529328 0.0866013 0.0729633 0.0762907 0.0608853 0.0642033 0.0741561
98 3 O 1.0564 88.7608 5.5528 -1.2 1 0.0112392 0.0107839 0.030633 0.0176206 0.0226314 0.0177484 0.0465437 0.0452269 0.0335002 0.0499738 0.0511224 0.0444462 0.0568395 0.0573828 0.0882108 0.0744497 0.0790443 0.0683378 0.0623423 0.0670733
99 1 Mg 0.0802349 85.2027 2.95905 1.2 1 0.0120641 0.0109655 0.00478069 0.0314244 0.00486367 0.0346888 0.00679615 0.0579409 0.0099489 0.0891209 0.012989 0.0506489 0.0118842 0.0739488 0.0186281 0.0988206 0.0231243 0.117008 0.0280985 0.0951425
100 1 Mg 0.0161215 82.3389 4.40542 1.2 1 0.0154187 0.012066 0.0145109 0.0269637 0.0174727 0.0269782 0.0246114 0.0337587 0.0428017 0.0643789 0.0613916 0.0574486 0.0610454 0.0704582 0.0698972 0.0779196 0.0637204 0.10056 0.0755525 0.083837
101 2 Si 2.09605 84.1405 4.35564 2.4 1 0.0167692 0.00929667 0.0184391 0.0358985 0.029706 0.0319613 0.0414818 0.038711 0.0504094 0.0533081 0.048845 0.0689301 0.0764815 0.0572181 0.0710936 0.0744106 0.0581762 0.0934456 0.061182 0.0545832
102 3 O -1.06752 84.2171 4.33615 -1.2 1 0.0128498 0.00935494 0.017341 0.0219988 0.017683 0.0240505 0.01934 0.0665309 0.0310352 0.0532714 0.038834 0.0666511 0.0635378 0.0653139 0.0700275 0.0669195 0.0549136 0.0682079 0.0629067 0.0662571
103 3 O 1.08881 80.4061 4.51772 -1.2 1 0.0160236 0.0184778 0.0196951 0.0224171 0.0166118 0.0328976 0.0374457 0.0487933 0.053276 0.043202 0.0467145 0.0480063 0.053586 0.069456 0.105793 0.0757648 0.0758506 0.0508067 0.0721911 0.0556908
104 3 O 1.43341 83.5055 3.04791 -1.2 1 0.0171794 0.0143675 0.0299065 0.0218391 0.0228343 0.0201044 0.0482611 0.0481343 0.0411723 0.0442618 0.056144 0.0403926 0.0533055 0.064127 0.0829968 0.0791443 0.0677747 0.0621832 0.0655809 0.0741409
105 1 Mg -0.0871826 85.0512 -0.0734245 1.2 1 0.0150477 0.0109276 0.0109769 0.0344625 0.00699212 0.0401421 0.0111578 0.0558495 0.0215309 0.0756625 0.0176659 0.0501696 0.0196956 0.0666642 0.0260575 0.105965 0.0360737 0.109556 0.0452444 0.0886126
106 3 O 1.43789 83.6383 5.73842 -1.2 1 0.017392 0.00807355 0.0304336 0.0229033 0.0231471 0.0247428 0.0445361 0.050106 0.0391576 0.0462546 0.052151 0.0457602 0.0495438 0.0701445 0.0867233 0.0731732 0.073632 0.0602111 0.0683305 0.0701191
107 1 Mg 0.0148783 88.0948 1.39235 1.2 1 0.0231993 0.021898 0.0193664 0.0356918 0.0163988 0.0305775 0.0220351 0.0347324 0.0347933 0.0601327 0.0592923 0.0490117 0.0649405 0.0646472 0.0620708 0.0833395 0.0687847 0.0955341 0.0669747 0.0780212
108 2 Si -1.9758 86.2173 1.42909 2.4 1 0.0147474 0.0199476 0.0169226 0.0277674 0.0316425 0.0293192 0.0398232 0.0437463 0.0558661 0.0461305 0.0495001 0.0659815 0.06801 0.0596167 0.0729921 0.0715685 0.061697 0.0938897 0.0498209 0.0562214
109 3 O 1.17532 86.1035 1.3278 -1.2 1 0.0307234 0.019929 0.0148818 0.0203551 0.0281777 0.0260942 0.0287548 0.0695063 0.0434799 0.0556194 0.0480865 0.0707536 0.051763 0.0698317 0.0747081 0.0661802 0.0598618 0.0716665 0.0596022 0.0758407
110 3 O -1.06003 89.9153 1.39624 -1.2 1 0.0122643 0.0218682 0.0297297 0.0187633 0.0178687 0.0381644 0.0331269 0.0405541 0.0498626 0.0414947 0.0463687 0.0452037 0.053442 0.0667578 0.103476 0.0661985 0.0714837 0.0524229 0.0717498 0.0607357
111 3 O -1.33291 86.7874 0.125361 -1.2 1 0.00682503 0.0157202 0.0256645 0.0252364 0.0242171 0.0217448 0.0517506 0.0431151 0.0398534 0.0419653 0.0544074 0.0502777 0.049163 0.0539682 0.0942365 0.066807 0.0732045 0.0566625 0.0624888 0.0716946
112 3 O -1.34642 87.0115 2.68074 -1.2 1 0.0157799 0.0259867 0.0257093 0.0174688 0.024668 0.0212323 0.0378115 0.0424182 0.0353885 0.0479828 0.0554872 0.04185 0.0577502 0.0544406 0.0840788 0.0723929 0.0699202 0.0690952 0.0645462 0.0615116
113 1 Mg -2.46839 90.3344 -0.101802 1.2 1 0.00629324 0.0139907 0.0108526 0.0310924 0.00781184 0.0381992 0.0126832 0.0567667 0.0175188 0.0829611 0.013728 0.0527301 0.0161406 0.07213 0.0160963 0.1038 0.031817 0.107702 0.0320825 0.0964812
114 1 Mg 2.1406 93.3657 1.33189 1.2 1 0.0140709 0.0136578 0.0224481 0.0289116 0.0174395 0.0269134 0.0240909 0.0314155 0.0413521 0.0591822 0.0613992 0.0524661 0.0537045 0.0630362 0.0660218 0.0803376 0.0754378 0.0845245 0.0770951 0.0787944
115 2 Si -0.363105 91.5103 1.3801 2.4 1 0.0136885 0.0106248 0.0204378 0.0227633 0.0302858 0.0305192 0.0354243 0.0447839 0.0486495 0.0542787 0.0540333 0.0632821 0.0698836 0.0516244 0.0723373 0.0741227 0.0626519 0.0931029 0.0550818 0.0612271
116 3 O 1.15283 91.5054 1.39344 -1.2 1 0.0174222 0.0187378 0.0134851 0.0241173 0.0250024 0.0269462 0.0186178 0.0744704 0.039078 0.0670094 0.0353836 0.069934 0.0601724 0.0659714 0.070302 0.056929 0.0616233 0.0668799 0.0595108 0.0712585
117 3 O -1.48045 95.2341 1.3362 -1.2 1 0.00747448 0.0197074 0.02045 0.0146417 0.0183419 0.0356354 0.0382504 0.0473975 0.0556947 0.0402728 0.0491874 0.0454862 0.0510224 0.0699699 0.105453 0.0759045 0.0730385 0.0529889 0.0732914 0.0592283
118 3 O -1.04955 92.1141 0.0726086 -1.2 1 0.0162747 0.0191968 0.034467 0.0196612 0.0230433 0.0208613 0.0477753 0.0397027 0.0444375 0.0464999 0.0544452 0.0443973 0.052739 0.0695241 0.0751111 0.0754174 0.0750863 0.0636049 0.0673048 0.0685998
119 1 Mg -2.59127 100.722 2.84794 1.2 1 0.0152747 0.0149909 0.0121126 0.0249635 0.0155195 0.034056 0.012178 0.0532861 0.0242461 0.0751929 0.0352276 0.0441018 0.0263422 0.0663225 0.0334012 0.0965571 0.0553243 0.100375 0.0587958 0.0778131
120 3 O -1.08388 92.1618 2.69608 -1.2 1 0.00799182 0.0126248 0.0224404 0.0239632 0.0228659 0.0210798 0.0477447 0.0482969 0.0356774 0.0405891 0.0555191 0.0387762 0.0553604 0.0554098 0.085596 0.0861537 0.0692418 0.0625119 0.0640706 0.0728741
121 1 Mg -2.44826 98.0816 4.31381 1.2 1 0.0195698 0.0158322 0.0215509 0.0286541 0.0197854 0.0238036 0.0170767 0.0328567 0.0412497 0.0653501 0.0525042 0.055445 0.0585495 0.062945 0.0651667 0.0789164 0.0711432 0.0964682 0.070088 0.0831266
122 2 Si 0.152551 99.9733 4.46972 2.4 1 0.0144159 0.0116765 0.0175823 0.0297665 0.0272126 0.0314817 0.0445653 0.0420627 0.0520411 0.0571394 0.0507935 0.0679294 0.0741689 0.0514934 0.0790602 0.0699256 0.063536 0.092343 0.0594335 0.0604357
123 3 O -1.46163 100.026 4.45981 -1.2 1 0.0270777 0.0135928 0.0232476 0.0232501 0.0253282 0.0254005 0.0173943 0.0656366 0.0352572 0.0574222 0.0409419 0.064127 0.0496399 0.068212 0.0732943 0.0625728 0.0586778 0.0701989 0.0640833 0.0739154
124 3 O 1.15768 96.1796 4.36087 -1.2 1 0.00567658 0.0166238 0.0253729 0.020467 0.0187142 0.0363071 0.0355343 0.0413382 0.0540303 0.0468475 0.0459999 0.0445615 0.0486711 0.0716339 0.104276 0.0768541 0.0700665 0.0531972 0.0735591 0.0593487
125 3 O 0.821423 99.2949 3.24853 -1.2 1 0.012653 0.0174819 0.0240916 0.0197199 0.0269086 0.0229133 0.0460023 0.0439097 0.0387291 0.0461487 0.0482386 0.0422802 0.0523987 0.0663173 0.0816327 0.0727114 0.0775619 0.0598347 0.073568 0.0600647