ITEM: TIMESTEP
53600
ITEM: NUMBER OF ATOMS
5600
ITEM: BOX BOUNDS xy xz yz pp pp pp
0	7.1235	0
0	201.985	2.3745
0	119.584	0
ITEM: ATOMS id type element xu yu zu q Q_1 Q_2 Q_3 Q_4 Q_5 Q_6 Q_7 Q_8 Q_9 Q_10 Q_11 Q_12 Q_13 Q_14 Q_15 Q_16 Q_17 Q_18 Q_19 Q_20 Q_21
1 1 Mg -1.52147 48.5729 -1.08012 1.2 1 0.477896 0.0493761 0.127956 0.0360098 0.0858239 0.0521213 0.0646023 0.0468616 0.0794631 0.0802523 0.0745357 0.0718947 0.0921671 0.0865861 0.0976489 0.104344 0.0984277 0.112304 0.107118 0.0933292
2 1 Mg 2.94048 51.5133 1.39541 1.2 1 0.222236 0.0939596 0.0393136 0.0374916 0.0333764 0.0493579 0.0295255 0.0606464 0.0603809 0.0541365 0.0806719 0.0549097 0.0663298 0.0679583 0.0775451 0.0878571 0.0801143 0.0866011 0.0760849 0.076688
3 2 Si 0.917086 50.0875 -0.137164 2.4 1 0.329983 0.0982828 0.033425 0.0723329 0.0388706 0.056337 0.0633185 0.0618554 0.0661317 0.08077 0.0566689 0.0682033 0.0565284 0.0832861 0.0916783 0.0689006 0.0835152 0.0859759 0.0861395 0.0702966
4 3 O 1.869 48.9133 0.244329 -1.2 1 0.446788 0.0499253 0.104682 0.0597085 0.0653769 0.0649827 0.0737814 0.0541361 0.072064 0.0574506 0.0822083 0.0716915 0.0751961 0.074437 0.0786906 0.100135 0.11064 0.087624 0.106854 0.0860814
5 3 O -1.28063 53.4356 1.10622 -1.2 1 0.0825311 0.0532117 0.0431814 0.0237044 0.023876 0.0325279 0.0389733 0.0489157 0.0704138 0.0549714 0.058074 0.0566834 0.0670775 0.0738786 0.0855409 0.0626719 0.0767113 0.0585129 0.0618752 0.0717749
6 3 O 0.135075 49.6343 -1.42161 -1.2 1 0.363973 0.101485 0.0712016 0.064914 0.0376869 0.0623798 0.0504744 0.0500255 0.0564844 0.0803382 0.058321 0.0741947 0.0974335 0.102757 0.100911 0.0824272 0.0707921 0.0644379 0.075323 0.0817868
7 1 Mg -2.26877 59.1019 3.03944 1.2 1 0.0193302 0.0188199 0.0191762 0.0213425 0.0161018 0.0226557 0.0284169 0.0486395 0.033076 0.0677858 0.0261197 0.0450321 0.0308835 0.0662869 0.0417815 0.0941337 0.0671541 0.0929444 0.0622655 0.0712477
8 3 O -0.242191 50.4682 0.975877 -1.2 1 0.301161 0.116836 0.0520916 0.0496946 0.0378477 0.043283 0.0787321 0.048157 0.102435 0.077605 0.0618592 0.0576572 0.0688967 0.0582294 0.100937 0.0799345 0.0695974 0.0764597 0.069258 0.0979678
9 1 Mg -2.1187 56.0187 4.24691 1.2 1 0.0226358 0.0159275 0.01655 0.0307205 0.0165473 0.0289819 0.0343551 0.0323206 0.0494763 0.0533049 0.0584814 0.0535134 0.0586246 0.0638411 0.0551022 0.084092 0.0673818 0.0844379 0.06531 0.0746938
10 2 Si 0.440651 57.7609 4.42432 2.4 1 0.0160004 0.0193745 0.0190237 0.0270485 0.0357497 0.0309639 0.0473445 0.0396712 0.0514687 0.0570079 0.0602807 0.0693645 0.0670325 0.0620239 0.0762543 0.0703906 0.0594189 0.0828737 0.0711349 0.0689455
11 3 O -1.16406 57.9794 4.52787 -1.2 1 0.0241226 0.0240745 0.0222954 0.020183 0.0181733 0.0201616 0.0287577 0.0721282 0.0433035 0.0605645 0.0411679 0.0616419 0.0543636 0.0660321 0.0758453 0.0613832 0.0679254 0.0706783 0.0630698 0.0670807
12 3 O 1.57328 54.1887 4.36251 -1.2 1 0.0514462 0.0498582 0.0312706 0.0192275 0.0286114 0.0411326 0.0393891 0.0420492 0.0531666 0.048266 0.053416 0.0551465 0.0620049 0.0776738 0.0824641 0.0850901 0.0626748 0.0623572 0.0623676 0.0635926
13 3 O 1.10075 56.9925 3.26876 -1.2 1 0.0113736 0.0159385 0.0174322 0.020308 0.0221586 0.0261018 0.0419199 0.0482811 0.0419699 0.0552137 0.0549099 0.0417455 0.053632 0.0726823 0.0861497 0.0777196 0.0713285 0.0617634 0.0560014 0.0667174
14 3 O 1.11918 57.1228 5.82284 -1.2 1 0.0103602 0.0234286 0.0157747 0.0170822 0.0233741 0.0385254 0.0448985 0.0484056 0.0519148 0.050337 0.0551096 0.0415127 0.0554858 0.0593764 0.0793831 0.0850807 0.0694951 0.0686629 0.0624675 0.0740681
15 1 Mg 0.146132 53.6189 2.45927 1.2 1 0.0757903 0.0628561 0.0520059 0.0268231 0.0147406 0.0323715 0.0351741 0.0466359 0.0431247 0.0636414 0.052583 0.0501615 0.051608 0.057694 0.06653 0.0871633 0.0744742 0.082883 0.0678727 0.0651813
16 1 Mg 0.716445 50.2161 2.72692 1.2 1 0.317753 0.11718 0.0285811 0.0742686 0.0493277 0.0560723 0.0641334 0.0464934 0.0629897 0.0745544 0.0570699 0.0866277 0.0599872 0.0724004 0.10544 0.0837262 0.0791485 0.0805156 0.0831027 0.0866853
17 2 Si 2.2305 52.7751 4.16353 2.4 1 0.109222 0.0892027 0.0464462 0.0333985 0.0173046 0.0301672 0.0458663 0.0528499 0.0519629 0.0699504 0.0678684 0.0779048 0.0730506 0.0831958 0.0768754 0.0786219 0.0671753 0.101039 0.0573652 0.0772153
18 3 O -0.992745 52.857 4.03837 -1.2 1 0.132179 0.0852331 0.0367736 0.0285824 0.0207001 0.0230076 0.0542715 0.051089 0.0335697 0.063244 0.0429306 0.0865773 0.0494806 0.0720452 0.0758908 0.0731179 0.0829636 0.0781569 0.0842508 0.0675689
19 3 O 2.51327 50.0056 2.85302 -1.2 1 0.340569 0.102916 0.0597136 0.0601536 0.0435771 0.0632353 0.048607 0.0637909 0.0752386 0.0626133 0.0431492 0.0692583 0.0685721 0.105135 0.0996226 0.0800633 0.0632676 0.0873597 0.084109 0.0912579
20 3 O 1.56222 52.3773 2.69837 -1.2 1 0.149877 0.0925667 0.0437226 0.0271911 0.0216855 0.0423123 0.0462356 0.0406803 0.0686218 0.0545482 0.0558008 0.0644355 0.0755481 0.0817593 0.074898 0.0731364 0.0891626 0.0735005 0.0877203 0.065605
21 1 Mg 0.101344 54.1468 -0.534369 1.2 1 0.0488767 0.0503874 0.0268442 0.0283871 0.0211957 0.0201306 0.0387469 0.0465218 0.0735783 0.0522565 0.0561369 0.0528203 0.061481 0.0566422 0.0808586 0.069104 0.0823165 0.0880579 0.0650714 0.0670123
22 3 O 1.40631 51.9077 5.23709 -1.2 1 0.165827 0.102814 0.0373865 0.0231247 0.0182382 0.0353433 0.0367143 0.0733184 0.0601921 0.0626358 0.0690406 0.0665053 0.065393 0.0623102 0.0870837 0.0685005 0.0918054 0.0757344 0.0642917 0.0806825
23 1 Mg 0.234689 56.7188 1.52912 1.2 1 0.0189766 0.0175579 0.0207465 0.0208396 0.0192334 0.018748 0.0241945 0.034867 0.0398847 0.0518112 0.0456052 0.0629399 0.0646517 0.0654296 0.0782127 0.054143 0.0860935 0.076306 0.0811702 0.067422
24 2 Si -1.90894 54.8616 1.12579 2.4 1 0.0241822 0.0276865 0.0233399 0.0317902 0.0208061 0.032909 0.0440601 0.0437171 0.052967 0.0630986 0.0613338 0.0654681 0.066483 0.0736714 0.0529244 0.0692957 0.076787 0.0707048 0.0619401 0.0620814
25 3 O 1.26334 54.6665 1.05047 -1.2 1 0.0292396 0.0370538 0.0327389 0.0198863 0.0181118 0.0320606 0.0296037 0.0600491 0.0424434 0.0634591 0.0484942 0.0474539 0.0646884 0.0606934 0.0707879 0.0636447 0.0759502 0.0600908 0.0692244 0.0556396
26 3 O -0.813964 58.4538 1.44789 -1.2 1 0.0165863 0.0225333 0.0217298 0.0109902 0.0201412 0.0329023 0.0336767 0.0412297 0.0520147 0.0467702 0.0449997 0.0456556 0.0561093 0.0749147 0.0851826 0.0738733 0.0669228 0.0573502 0.074976 0.0542288
27 3 O -1.1335 55.6215 -0.0330786 -1.2 1 0.0258315 0.02424 0.0206283 0.0210766 0.0184063 0.0395348 0.0399599 0.041362 0.0473165 0.0513399 0.0565018 0.0463351 0.0504958 0.0672659 0.0791812 0.0769717 0.0491881 0.0670208 0.0649938 0.0726146
28 3 O -1.27753 55.447 2.48118 -1.2 1 0.0195063 0.01725 0.0206128 0.0301142 0.0245114 0.0229611 0.0478382 0.0399759 0.047587 0.0483229 0.0584968 0.04769 0.0707426 0.061159 0.0780805 0.0789057 0.0620404 0.0676372 0.0692471 0.0664964
29 1 Mg -2.29096 58.6462 0.0808987 1.2 1 0.0175439 0.0139312 0.00786861 0.0232276 0.0193918 0.0341143 0.0273041 0.049046 0.0382586 0.067575 0.0365783 0.0429703 0.0363679 0.0558805 0.0443136 0.0871317 0.0800687 0.0976615 0.0610792 0.0861351
30 1 Mg 2.4994 61.9073 1.53343 1.2 1 0.0222501 0.0162754 0.0135772 0.0297768 0.0190062 0.0194649 0.0216707 0.0403554 0.0410957 0.0591738 0.0565611 0.0537101 0.0575936 0.0622989 0.062308 0.0651554 0.0771723 0.0957348 0.069074 0.078838
31 2 Si -0.158705 59.9383 1.258 2.4 1 0.0215087 0.0161324 0.0222346 0.0213672 0.0344548 0.0315928 0.0315881 0.0359177 0.0528984 0.0507827 0.0538802 0.0558048 0.0703745 0.059518 0.0698604 0.0675568 0.0676633 0.089456 0.0669949 0.0574138
32 3 O 1.35974 59.7938 1.49753 -1.2 1 0.029686 0.0231244 0.0127601 0.0253824 0.0234743 0.0308923 0.0210101 0.057303 0.0429917 0.0614829 0.048421 0.0723656 0.0473006 0.0685855 0.0750211 0.0669912 0.0611633 0.0673888 0.0516175 0.0844521
33 3 O -1.20226 63.6447 1.27773 -1.2 1 0.0174719 0.0232535 0.0166505 0.0255447 0.015813 0.0305369 0.0298205 0.0392166 0.0543136 0.0454162 0.0418786 0.0475624 0.0582842 0.0632939 0.0902562 0.0713497 0.0607887 0.0644937 0.0645844 0.0538667
34 3 O -0.927503 60.6718 0.17964 -1.2 1 0.0204856 0.026135 0.0215555 0.0234334 0.0145245 0.0193669 0.0489259 0.0414596 0.0341061 0.0436182 0.061266 0.0404367 0.0530239 0.0529088 0.0906073 0.0744694 0.0728038 0.0590822 0.0697462 0.0637558
35 1 Mg -2.2515 69.0537 3.00889 1.2 1 0.0181456 0.0245791 0.0175794 0.0272242 0.0254758 0.0303566 0.029511 0.0488729 0.0408149 0.0681536 0.0301524 0.0480284 0.0341043 0.0657713 0.0462418 0.0920082 0.0655343 0.0983069 0.0659082 0.0658275
36 3 O -0.934029 60.6653 2.6499 -1.2 1 0.0185521 0.00822894 0.0251857 0.0224499 0.0213303 0.0311571 0.0413187 0.0407614 0.0289608 0.0447403 0.0530689 0.040561 0.0610244 0.0573661 0.0891988 0.0712908 0.0710167 0.0691983 0.0686271 0.0629853
37 1 Mg -1.89086 66.4443 4.44135 1.2 1 0.0194465 0.0208999 0.0198924 0.0291807 0.0187444 0.0306724 0.027363 0.036973 0.0424484 0.0580848 0.0651565 0.0602668 0.0538601 0.0664647 0.0709908 0.0688557 0.0748385 0.0755139 0.0923943 0.0589732
38 2 Si 0.342421 68.4444 4.44285 2.4 1 0.0216628 0.0280329 0.021435 0.0300267 0.0291499 0.0295036 0.0388241 0.0386079 0.0481906 0.0620926 0.0555938 0.0667321 0.0631508 0.0545568 0.0864314 0.0691729 0.065997 0.0854202 0.055511 0.0681995
39 3 O -1.20806 68.3734 4.36346 -1.2 1 0.0219521 0.0166929 0.0272187 0.02788 0.024832 0.0271947 0.0267231 0.0717999 0.0353002 0.0547545 0.0419848 0.0704182 0.0557762 0.0708661 0.0760558 0.0655619 0.0628831 0.0754113 0.0621027 0.0622531
40 3 O 1.76666 64.6416 4.55521 -1.2 1 0.0114731 0.0205278 0.0246558 0.0201021 0.0181274 0.0371379 0.0340393 0.0421748 0.0546665 0.0433302 0.0545477 0.0423951 0.0556956 0.0688622 0.0952577 0.0770639 0.0642026 0.0483726 0.070733 0.0631395
41 3 O 1.09416 67.6394 3.1737 -1.2 1 0.02695 0.019272 0.0166419 0.0227417 0.0260159 0.0247324 0.0472631 0.0383704 0.0403183 0.0459171 0.0550545 0.0382389 0.0581409 0.0588291 0.0756668 0.074034 0.0720452 0.0628997 0.0568578 0.0697382
42 3 O 1.04315 67.7326 5.77585 -1.2 1 0.0292681 0.013321 0.0237044 0.0185702 0.0285343 0.0181755 0.0495395 0.0395971 0.0444805 0.0448104 0.0469245 0.0496923 0.0530567 0.0704579 0.0655884 0.0703197 0.0831918 0.0583833 0.076026 0.061015
43 1 Mg 0.291526 64.2759 2.88687 1.2 1 0.0216706 0.0101116 0.0167774 0.030556 0.0164442 0.0361222 0.0185514 0.0605026 0.02538 0.0808279 0.0206222 0.0440707 0.0236174 0.0685258 0.0327521 0.102008 0.0451189 0.105474 0.0413306 0.0833194
44 1 Mg 0.198481 61.1875 4.26129 1.2 1 0.0159711 0.0132419 0.0211107 0.0250684 0.0173595 0.0216792 0.0224969 0.0316908 0.0446427 0.0616075 0.0501706 0.0603603 0.0587451 0.0681265 0.0678466 0.0701788 0.0621674 0.0998238 0.0710191 0.0756071
45 2 Si 2.24603 63.084 4.5706 2.4 1 0.0116312 0.0136806 0.0240256 0.0257171 0.0349469 0.0349352 0.0404395 0.0358634 0.0496327 0.0569265 0.0556494 0.0559734 0.0794193 0.0559377 0.0786989 0.0674826 0.0635375 0.0850549 0.0671801 0.05831
46 3 O -0.908226 63.3906 4.4321 -1.2 1 0.0305575 0.00827914 0.0202944 0.0176827 0.0170451 0.0196909 0.0282257 0.057607 0.0434849 0.0472437 0.0463029 0.0665717 0.0440058 0.068126 0.076952 0.0686168 0.0597622 0.079202 0.0519441 0.0856228
47 3 O 1.14733 59.3451 4.36296 -1.2 1 0.00861939 0.0179702 0.0246654 0.0256901 0.0202503 0.0323823 0.0369651 0.047429 0.0463358 0.0430936 0.0526493 0.0455824 0.0532151 0.0687248 0.100551 0.0803684 0.0671278 0.0547396 0.0635636 0.0606388
48 3 O 1.53433 62.5322 3.23045 -1.2 1 0.0182589 0.0150032 0.0257916 0.0230081 0.0262424 0.0246619 0.0471461 0.0421164 0.0312297 0.034914 0.054201 0.0414357 0.0557738 0.0630818 0.0859302 0.0721743 0.0834285 0.0635276 0.0676482 0.0664828
49 1 Mg 0.343682 64.2978 0.0344008 1.2 1 0.0103839 0.016773 0.0182746 0.0316936 0.0125059 0.0340607 0.0249879 0.0548065 0.0278341 0.0697836 0.025692 0.0543462 0.0288859 0.0692056 0.0360158 0.102063 0.0435657 0.10541 0.0474654 0.0871704
50 3 O 1.64314 62.2649 5.68556 -1.2 1 0.00363928 0.0177774 0.0233732 0.0229718 0.0220693 0.0269192 0.0480394 0.0430188 0.0339698 0.0519382 0.0616787 0.0362 0.0610216 0.0747601 0.0727386 0.0805634 0.065705 0.0651161 0.0586984 0.0573178
51 1 Mg 0.0936641 66.9863 1.64348 1.2 1 0.0245847 0.0083429 0.0208683 0.0268061 0.0176202 0.0244884 0.0249356 0.0360254 0.0454692 0.0613855 0.0574624 0.0539479 0.0627853 0.0643432 0.0522736 0.0797124 0.0602551 0.11202 0.063833 0.0897144
52 2 Si -1.90439 65.0334 1.50831 2.4 1 0.0236847 0.0154531 0.0217926 0.0346481 0.029966 0.0302946 0.0426799 0.0399898 0.050477 0.0579911 0.0514984 0.0605125 0.0692667 0.060223 0.0777134 0.0658755 0.0718912 0.096536 0.0553734 0.0626409
53 3 O 1.29117 65.1153 1.45051 -1.2 1 0.0233229 0.0263947 0.0139466 0.0228298 0.025483 0.0301474 0.0285259 0.065356 0.0366298 0.051538 0.0447905 0.0631737 0.0623257 0.077464 0.0724294 0.0654742 0.057181 0.0757504 0.0593534 0.0802073
54 3 O -0.951857 68.798 1.68462 -1.2 1 0.00585409 0.0198451 0.0213542 0.0176976 0.0230084 0.0367733 0.0323069 0.0387319 0.0477025 0.0429769 0.0432459 0.0469409 0.0464506 0.0672333 0.100801 0.0698483 0.0711686 0.0580762 0.064849 0.0647631
55 3 O -1.16608 65.9141 0.279082 -1.2 1 0.0163611 0.0125714 0.0342478 0.0215779 0.0237652 0.0263877 0.0403889 0.0409006 0.0416159 0.048502 0.054288 0.0438965 0.0517953 0.0557391 0.0843673 0.0707149 0.0695015 0.0672095 0.0662058 0.0710356
56 3 O -1.18566 65.5946 2.76216 -1.2 1 0.00867047 0.00879372 0.0295004 0.0213053 0.0255063 0.0201754 0.0472239 0.0423064 0.0421457 0.0349256 0.0426294 0.051845 0.0586817 0.063667 0.0909875 0.0637785 0.0832437 0.0552631 0.0711982 0.0660663
57 1 Mg -2.51935 69.7606 -0.00217857 1.2 1 0.0142856 0.0152878 0.0164152 0.0311656 0.0175744 0.031938 0.0299249 0.0453699 0.0543141 0.0654204 0.0329747 0.0434338 0.0399134 0.0658768 0.0526619 0.0887075 0.0744499 0.0894038 0.0816623 0.0632713
58 1 Mg 2.37441 72.2338 1.66853 1.2 1 0.00860581 0.0124672 0.0148834 0.0341453 0.0164035 0.0227424 0.024231 0.029145 0.0408951 0.0593307 0.0608406 0.0531014 0.0605667 0.0650649 0.0589951 0.0902243 0.0691105 0.0914193 0.06634 0.0862389
59 2 Si -0.300921 70.3191 1.56089 2.4 1 0.0141401 0.0207166 0.0203365 0.0265961 0.0306486 0.0275057 0.0374253 0.0390537 0.0494303 0.0548978 0.0539653 0.0664213 0.0615166 0.0565731 0.0801791 0.0665678 0.0787174 0.0928999 0.0510422 0.065896
60 3 O 1.25607 70.284 1.55732 -1.2 1 0.033551 0.0101939 0.0222318 0.0266677 0.0269633 0.0255732 0.0227489 0.0605401 0.0388308 0.0531024 0.0395244 0.0695772 0.0553753 0.0603777 0.0758524 0.0651433 0.063875 0.0702896 0.0584026 0.0723018
61 3 O -1.3741 74.1821 1.81127 -1.2 1 0.00944215 0.0227452 0.0277224 0.0210692 0.0206152 0.0338591 0.0369412 0.0514346 0.0559742 0.0415035 0.0452203 0.052389 0.0543976 0.0658716 0.101265 0.0728858 0.0704001 0.0525093 0.0706195 0.0594741
62 3 O -0.92753 71.0519 0.180505 -1.2 1 0.0321476 0.0157641 0.0278432 0.0201072 0.0287439 0.027558 0.0392319 0.0428085 0.0457195 0.0515915 0.0501047 0.0417976 0.0583129 0.06183 0.0797213 0.0758342 0.0721019 0.0668941 0.0620669 0.0749735
63 1 Mg -2.31901 80.2015 3.41224 1.2 1 0.0184079 0.0241618 0.0192946 0.0306504 0.0194985 0.0284561 0.0269413 0.0462678 0.0456077 0.0667202 0.0345432 0.047157 0.0347539 0.0658994 0.0457937 0.0905595 0.067367 0.102275 0.0646246 0.0762575
64 3 O -0.97753 71.0211 2.90032 -1.2 1 0.0261693 0.0108727 0.0261938 0.0246217 0.0256645 0.01796 0.0482935 0.0488154 0.0369613 0.0462349 0.0556229 0.0387355 0.048442 0.0634129 0.0862539 0.0725866 0.0751448 0.0577076 0.0682012 0.0641561
65 1 Mg -2.19642 77.0048 4.62703 1.2 1 0.0230302 0.0158832 0.0195229 0.0394159 0.0191251 0.0288572 0.0282272 0.0344619 0.0379788 0.0601256 0.0686502 0.0496873 0.0606706 0.0728252 0.0694549 0.0818818 0.0706186 0.084581 0.0812433 0.0714459
66 2 Si 0.338992 78.8933 4.69094 2.4 1 0.0145031 0.00887248 0.0196127 0.0310412 0.0304183 0.0340614 0.0362393 0.0365004 0.0560667 0.047689 0.0494435 0.0660957 0.0731063 0.0534576 0.0723293 0.0658852 0.0628436 0.0990087 0.0626192 0.0577465
67 3 O -1.24342 78.9861 4.80406 -1.2 1 0.0145404 0.0246982 0.0114615 0.0219174 0.0266202 0.023548 0.0217573 0.0618598 0.0387585 0.0557669 0.0416092 0.0695657 0.0575716 0.072141 0.0753679 0.0615118 0.0614622 0.0668641 0.0581089 0.0716131
68 3 O 1.34907 74.9744 4.7689 -1.2 1 0.0119947 0.0205913 0.0197385 0.0222572 0.0217343 0.0329539 0.0357499 0.0425149 0.063733 0.0415431 0.0415972 0.038085 0.0581229 0.0744334 0.104253 0.0678814 0.071183 0.0548853 0.0777797 0.0570898
69 3 O 1.05117 78.2024 3.38318 -1.2 1 0.0076191 0.0239315 0.0237999 0.0275724 0.0234217 0.0200977 0.0415566 0.0467863 0.0320234 0.0491474 0.0607705 0.0435473 0.0601708 0.0483625 0.0968641 0.0802618 0.0692408 0.0637886 0.0600237 0.0667004
70 3 O 0.953695 78.2677 6.0998 -1.2 1 0.0210806 0.013931 0.0242027 0.0215692 0.0301031 0.025126 0.0436062 0.0480849 0.0387073 0.0431697 0.0582689 0.0407178 0.0491638 0.064185 0.0774605 0.0748813 0.0737727 0.056072 0.0602506 0.0657144
71 1 Mg -0.0322237 74.5804 3.34988 1.2 1 0.0108177 0.0105616 0.0167362 0.0276683 0.010661 0.039431 0.0165447 0.0598535 0.0211505 0.0786941 0.0321794 0.0542748 0.0249843 0.0681779 0.0304414 0.0977476 0.0412797 0.103934 0.0376766 0.078789
72 1 Mg -0.164892 71.7184 4.72719 1.2 1 0.0146061 0.0152884 0.0204093 0.0308975 0.0162503 0.0328838 0.0312405 0.0382401 0.0431721 0.0534571 0.067814 0.0602597 0.0634642 0.0654406 0.0694559 0.0865908 0.0690001 0.0826317 0.0812742 0.0635501
73 2 Si 1.99488 73.4077 4.65793 2.4 1 0.0167631 0.0107904 0.0163207 0.0300119 0.0376103 0.0394153 0.0296396 0.0456746 0.0549477 0.0487181 0.0497845 0.0698232 0.0659441 0.059704 0.0668657 0.0812043 0.0594111 0.0951274 0.0583464 0.0602749
74 3 O -1.24624 73.5014 4.7851 -1.2 1 0.0263605 0.025108 0.0168026 0.0163852 0.0309026 0.0266447 0.0259176 0.0651782 0.0421792 0.0571432 0.0501338 0.0645281 0.0687691 0.0698054 0.0720147 0.061252 0.0635423 0.065613 0.0631977 0.0634879
75 3 O 1.13045 69.8874 4.46971 -1.2 1 0.0133968 0.00863422 0.0210086 0.0160398 0.017536 0.0424065 0.0372926 0.0454557 0.0496057 0.0425019 0.0440638 0.0558545 0.052833 0.0658275 0.106895 0.0764612 0.0698799 0.0583319 0.073681 0.0637361
76 3 O 1.27461 72.9285 3.29055 -1.2 1 0.0192473 0.0145775 0.0264045 0.0241655 0.0272963 0.017444 0.0514538 0.0422978 0.0439639 0.0417162 0.0577596 0.036986 0.0449091 0.0526014 0.0859426 0.0714397 0.0634283 0.0689693 0.0576413 0.0673279
77 1 Mg -0.0990058 74.7963 0.304116 1.2 1 0.0168672 0.016131 0.00901505 0.035338 0.00750932 0.0393033 0.0212184 0.0554956 0.018888 0.0766997 0.0300027 0.0490128 0.0244321 0.0705456 0.0331142 0.104241 0.0546205 0.10069 0.0432613 0.0868662
78 3 O 1.31559 72.7937 5.95685 -1.2 1 0.00935695 0.018948 0.0308869 0.0202584 0.0240958 0.0252982 0.0447106 0.0457596 0.0345332 0.0512241 0.0554279 0.042035 0.0589371 0.0551205 0.0914604 0.0797934 0.0692039 0.0693784 0.0657058 0.0690271
79 1 Mg 0.1695 77.563 1.6059 1.2 1 0.0141023 0.0205042 0.0157774 0.034082 0.0156491 0.0224393 0.0217316 0.0323579 0.0436931 0.062046 0.0595543 0.0549814 0.0594102 0.0594857 0.0663532 0.0895293 0.0696118 0.0856084 0.0788781 0.0688459
80 2 Si -2.1091 75.7433 1.792 2.4 1 0.0139772 0.0066576 0.0195314 0.0346455 0.0346748 0.0280325 0.0410376 0.0407816 0.0467393 0.055052 0.0590265 0.0630385 0.0740361 0.0537721 0.0754955 0.0724356 0.0593422 0.0882567 0.067254 0.0600577
81 3 O 1.17828 75.6447 1.80105 -1.2 1 0.0113074 0.0117437 0.017011 0.0176075 0.0201298 0.0297085 0.0210097 0.0716613 0.0371326 0.0508439 0.040978 0.0662284 0.0622313 0.0677155 0.0776487 0.062306 0.0631335 0.0698997 0.0615977 0.0683788
82 3 O -0.965685 79.4315 1.74987 -1.2 1 0.0122107 0.0236489 0.021459 0.0159686 0.01701 0.0363635 0.0366953 0.0475712 0.0540137 0.0426581 0.0446327 0.0452084 0.0453587 0.0713953 0.100092 0.0795349 0.068959 0.0511066 0.0671598 0.0626639
83 3 O -1.40849 76.4583 0.486601 -1.2 1 0.0105576 0.0113878 0.0289254 0.0196438 0.0260574 0.020208 0.0521928 0.0477333 0.0377365 0.0442785 0.0538442 0.0359392 0.0564204 0.0617143 0.0836528 0.0767095 0.0658971 0.0731408 0.0644807 0.066622
84 3 O -1.38085 76.2316 3.02868 -1.2 1 0.00969427 0.0142132 0.0257027 0.0254626 0.0299025 0.0200449 0.0504509 0.0432865 0.0447825 0.0428454 0.0503324 0.0467398 0.054492 0.0599295 0.0850191 0.0730068 0.0809065 0.0545727 0.0631168 0.0719544
85 1 Mg -2.35252 79.9631 0.188734 1.2 1 0.019788 0.0217299 0.0110012 0.0368246 0.0124486 0.0332343 0.0152895 0.0549362 0.0141306 0.0773204 0.0156319 0.0498146 0.0164724 0.0741668 0.0186801 0.101718 0.0289197 0.114252 0.0317586 0.0872069
86 1 Mg 2.16426 82.9743 1.60613 1.2 1 0.0202907 0.019244 0.0230883 0.034339 0.0204196 0.0273609 0.0214014 0.0308922 0.0369194 0.057494 0.0536959 0.0632013 0.0562859 0.0582324 0.0725363 0.068716 0.0755122 0.084456 0.0865849 0.0660618
87 2 Si -0.300682 80.9372 1.65909 2.4 1 0.0188585 0.013586 0.0198373 0.0317865 0.034908 0.0347325 0.0460017 0.0417119 0.051967 0.0553197 0.0518935 0.0655773 0.0732912 0.0576081 0.0825522 0.0588575 0.05918 0.0928507 0.0603286 0.0649931
88 3 O 1.2556 80.8354 1.78529 -1.2 1 0.0212733 0.0185928 0.0120038 0.0268447 0.0280784 0.035201 0.0289919 0.0729483 0.0419837 0.0560452 0.041493 0.0694503 0.049378 0.065802 0.0812587 0.0691611 0.0573817 0.0759227 0.0576079 0.0698804
89 3 O -1.58611 84.766 1.61209 -1.2 1 0.0123934 0.0270793 0.0195542 0.0242285 0.0252239 0.0327712 0.0321104 0.0417894 0.0637742 0.043075 0.0482311 0.0405169 0.057703 0.0737058 0.0936108 0.0837671 0.065844 0.0540108 0.0714901 0.0589542
90 3 O -1.05531 81.6829 0.492492 -1.2 1 0.0122277 0.0138024 0.0260373 0.0181017 0.024456 0.0196003 0.0475404 0.0364977 0.0354301 0.0468399 0.0518119 0.0372163 0.0562904 0.0567658 0.0824117 0.0679912 0.0715214 0.0618028 0.064151 0.0653877
91 1 Mg -2.30231 90.4741 3.33635 1.2 1 0.0111145 0.0153717 0.0147535 0.0284114 0.0133059 0.0396742 0.00846843 0.0587581 0.0162536 0.0766444 0.0182195 0.0474402 0.0228366 0.0686877 0.0289337 0.108819 0.0243599 0.112317 0.0306979 0.0880403
92 3 O -0.883717 81.6449 3.07484 -1.2 1 0.0119616 0.0266176 0.0194969 0.0198501 0.0270274 0.0275576 0.0445955 0.0450608 0.0384335 0.0561874 0.0499684 0.0323933 0.0637407 0.0706797 0.07243 0.0820294 0.0770612 0.063721 0.061709 0.0737478
93 1 Mg -2.35214 87.4282 4.7177 1.2 1 0.00937155 0.0195594 0.0219688 0.0307382 0.0171435 0.0288066 0.0255391 0.0329537 0.0371343 0.0579739 0.056026 0.0634129 0.0631254 0.0648928 0.070086 0.0678734 0.0784252 0.0934021 0.0687277 0.0708562
94 2 Si 0.209151 89.2556 4.83867 2.4 1 0.0339113 0.0123117 0.0160933 0.0258378 0.0335768 0.0269522 0.0430096 0.0457722 0.046044 0.0556065 0.0589934 0.070422 0.0706182 0.0600637 0.0796635 0.0768201 0.0657822 0.0814287 0.0676962 0.0652903
95 3 O -1.2774 89.4673 4.78526 -1.2 1 0.011513 0.0215422 0.0121127 0.0212056 0.0212673 0.0255008 0.0257227 0.0756695 0.0412646 0.0583988 0.0387227 0.0687737 0.0606198 0.0693395 0.0758378 0.0683426 0.0541647 0.0753729 0.0584977 0.0721605
96 3 O 1.29199 85.6559 4.71413 -1.2 1 0.00750734 0.0147267 0.0244558 0.0208454 0.0200433 0.0363302 0.037123 0.046348 0.0469712 0.037017 0.0514816 0.044268 0.0516636 0.0750456 0.100288 0.0760549 0.0724032 0.0531398 0.0697226 0.0573103
97 3 O 0.909608 88.5102 3.58504 -1.2 1 0.0133343 0.0125513 0.0260084 0.0159104 0.0266621 0.0287125 0.038781 0.0419171 0.041767 0.0508075 0.054562 0.0417804 0.0653762 0.061654 0.0838563 0.0776817 0.0655924 0.0641662 0.0617505 0.0611962
98 3 O 0.900848 88.7783 6.1426 -1.2 1 0.0154723 0.0114504 0.0239267 0.0220278 0.0287348 0.0201179 0.0587012 0.0526457 0.0378454 0.0452016 0.05915 0.0428605 0.0574145 0.0740278 0.0866363 0.0797118 0.0699893 0.0671903 0.0681914 0.0656228
99 1 Mg -0.195292 85.1844 3.12039 1.2 1 0.0164202 0.0151397 0.0159518 0.0334449 0.0131226 0.0386765 0.0157826 0.0575015 0.0188245 0.0803769 0.0249104 0.0524386 0.0233723 0.0675579 0.0319406 0.105451 0.0393979 0.101212 0.0437696 0.0784135
100 1 Mg -0.145526 82.3272 4.97306 1.2 1 0.0211839 0.0215397 0.0178351 0.0353686 0.0195505 0.0300081 0.0243224 0.0363111 0.042606 0.0535833 0.0584273 0.0477573 0.0647182 0.0659133 0.0661007 0.0892199 0.068994 0.0855959 0.0784895 0.0705708
101 2 Si 2.01085 84.1712 4.53304 2.4 1 0.0129788 0.0141915 0.0205763 0.0320021 0.0308884 0.0260341 0.0418747 0.0392827 0.0504908 0.0539196 0.0615114 0.0574605 0.0741982 0.0547145 0.0768233 0.0772489 0.0683828 0.0841646 0.0638385 0.05355
102 3 O -1.23131 84.3703 4.6893 -1.2 1 0.0399703 0.0194632 0.0191035 0.0176777 0.0186917 0.0242171 0.0294769 0.0601046 0.0451526 0.0457677 0.0504034 0.0694005 0.0478718 0.0721527 0.07399 0.0692735 0.0656808 0.0766996 0.0498728 0.0745618
103 3 O 0.95176 80.524 4.79274 -1.2 1 0.0203661 0.0174309 0.0231077 0.0249022 0.0250717 0.038809 0.0299987 0.0404289 0.0555304 0.0491142 0.0337755 0.0494977 0.0510933 0.06925 0.106176 0.0671536 0.065278 0.055556 0.0634481 0.0615326
104 3 O 1.42581 83.3951 3.32033 -1.2 1 0.0239201 0.0211229 0.0243597 0.0153022 0.0197299 0.0332646 0.0425152 0.0504195 0.0362732 0.0477001 0.0541443 0.0357985 0.0579409 0.0757643 0.0665755 0.0789256 0.0740621 0.0667781 0.0709655 0.0668464
105 1 Mg -0.0688394 85.4495 0.151546 1.2 1 0.00789557 0.0286161 0.0149104 0.0244725 0.022309 0.0297231 0.020102 0.0537308 0.0351664 0.0747051 0.0298068 0.0470926 0.0269799 0.0731139 0.0395142 0.0953553 0.0635389 0.106683 0.0678686 0.078181
106 3 O 1.2943 83.3409 5.99098 -1.2 1 0.0216791 0.0258107 0.0287917 0.0129126 0.0229121 0.0245565 0.0440575 0.0400267 0.0343537 0.0489575 0.0551127 0.0407467 0.0526645 0.0583556 0.085194 0.0816365 0.0749869 0.0596286 0.0607013 0.0648922
107 1 Mg -0.0753386 88.3024 1.82004 1.2 1 0.0154358 0.0100255 0.025655 0.0302834 0.0168269 0.023065 0.0185435 0.0359236 0.0432605 0.0521013 0.0581157 0.0594068 0.0561009 0.058884 0.0682898 0.0591548 0.0817968 0.0960623 0.0666622 0.0752672
108 2 Si -2.17267 86.2644 1.59845 2.4 1 0.011934 0.0170137 0.0165975 0.0247579 0.0353015 0.0396438 0.0406639 0.0386923 0.0533076 0.0546587 0.0488107 0.0604829 0.0775264 0.0595567 0.0819124 0.0741097 0.057865 0.0815873 0.0652179 0.0550822
109 3 O 0.988205 86.1644 1.64299 -1.2 1 0.0166385 0.0218099 0.0106527 0.0179146 0.0222867 0.0360455 0.0232798 0.0704219 0.0340731 0.0626735 0.0349495 0.0697847 0.0596949 0.0687431 0.0747801 0.0662183 0.0616257 0.076317 0.0578336 0.0664722
110 3 O -1.06344 90.0266 2.03147 -1.2 1 0.0102419 0.0179165 0.0235973 0.0276962 0.0213895 0.0334296 0.0413315 0.0393994 0.0517244 0.0389793 0.0491041 0.0400308 0.0591369 0.0685586 0.0898989 0.0808005 0.0702288 0.0673493 0.0673285 0.0528259
111 3 O -1.52736 86.8245 0.292891 -1.2 1 0.0153332 0.0106881 0.0224013 0.0200513 0.0331583 0.0254298 0.0477471 0.0491697 0.0409489 0.0505875 0.0529416 0.041234 0.0617351 0.0708595 0.0809899 0.073054 0.0700682 0.0659215 0.0591867 0.076683
112 3 O -1.49664 86.7574 2.97323 -1.2 1 0.0168437 0.0147535 0.0292625 0.0244846 0.0297806 0.0280133 0.0547716 0.0426767 0.0397924 0.0436803 0.0536236 0.0456947 0.0545004 0.0786225 0.0798157 0.0777877 0.0808751 0.0573074 0.0677536 0.0613007
113 1 Mg -2.42879 90.5558 0.47345 1.2 1 0.0087454 0.016839 0.01478 0.0290604 0.00691709 0.0324467 0.0141029 0.0585 0.0167834 0.0797959 0.0233246 0.0470837 0.0275397 0.0695839 0.0283682 0.0966749 0.043184 0.109122 0.0438025 0.0881801
114 1 Mg 2.53601 93.5355 1.68379 1.2 1 0.0184869 0.0164064 0.0122794 0.024674 0.0192888 0.0249444 0.0276862 0.0377014 0.0477472 0.0536677 0.0585745 0.0569295 0.0622029 0.0705087 0.0724191 0.0629168 0.0786922 0.096358 0.0711428 0.0700832
115 2 Si -0.356479 91.4811 1.86808 2.4 1 0.0143816 0.015497 0.0208651 0.0269245 0.0313738 0.037563 0.0421768 0.0404138 0.0528543 0.0495278 0.054186 0.0687406 0.0765804 0.0579868 0.0788785 0.0684415 0.0613423 0.0904368 0.0527052 0.0474513
116 3 O 1.22015 91.4673 1.84228 -1.2 1 0.0226715 0.0176555 0.00655691 0.0194903 0.0281835 0.0365033 0.0315806 0.0698469 0.0422256 0.0665052 0.0385469 0.0682588 0.0590227 0.0755274 0.072621 0.0644021 0.0619985 0.0746081 0.0606508 0.0721736
117 3 O -1.33158 95.2431 1.75197 -1.2 1 0.00532134 0.0235463 0.0205912 0.0189748 0.0144644 0.0398879 0.0363376 0.0466957 0.0515022 0.0432532 0.0491867 0.0491146 0.0511596 0.0689674 0.100942 0.0772234 0.0672486 0.0554775 0.0754624 0.0552666
118 3 O -1.03735 92.1612 0.623252 -1.2 1 0.0102703 0.0197501 0.0249569 0.0256852 0.0214732 0.0244489 0.0417827 0.0460213 0.0385026 0.0453479 0.0488637 0.0559103 0.0579073 0.0607818 0.0910404 0.0716794 0.0805042 0.0574053 0.0717092 0.0700297
119 1 Mg -2.31982 100.641 3.47321 1.2 1 0.0179332 0.031552 0.0159746 0.0313903 0.0236288 0.036183 0.0221066 0.0592968 0.0353897 0.0633851 0.0411881 0.0420937 0.0347649 0.0575395 0.0616801 0.0929304 0.0708079 0.0905568 0.0713722 0.0667918
120 3 O -0.975322 92.191 3.15358 -1.2 1 0.0112169 0.0143488 0.0297537 0.017018 0.031941 0.0267052 0.0457713 0.0496128 0.033429 0.0459565 0.0606663 0.0460828 0.0561537 0.0668313 0.0841037 0.0767206 0.0702828 0.0608063 0.0595159 0.0782405
121 1 Mg -2.21831 98.143 4.92886 1.2 1 0.0242416 0.0113891 0.0201756 0.032775 0.0191929 0.0299609 0.0296785 0.0288657 0.0424105 0.0622203 0.0599086 0.0556584 0.0652661 0.0715048 0.0651935 0.0933415 0.0694859 0.0935677 0.0708883 0.0778636
122 2 Si 0.34041 99.9615 4.97907 2.4 1 0.0171188 0.0131081 0.023827 0.0281609 0.0346034 0.032601 0.0428227 0.0411049 0.050997 0.0526613 0.0503848 0.0748274 0.0630005 0.0572704 0.0882497 0.0685543 0.0592087 0.0909055 0.0647228 0.069045
123 3 O -1.26009 99.9784 4.96568 -1.2 1 0.028153 0.0173617 0.0149888 0.0245479 0.0276197 0.0319122 0.0304248 0.0751324 0.0355039 0.0646565 0.0311877 0.0681101 0.0506499 0.0738941 0.0738791 0.0641415 0.0528578 0.0775909 0.0728833 0.073375
124 3 O 1.61878 96.2093 4.74737 -1.2 1 0.0214495 0.0304612 0.0159504 0.0251277 0.027583 0.0339749 0.0305718 0.0446121 0.0574483 0.0483471 0.0433107 0.0477194 0.065494 0.0753365 0.0977382 0.0704917 0.0780102 0.0542768 0.0800715 0.0643689
125 3 O 0.997453 99.2071 3.71177 -1.2 1 0.00939182 0.0186662 0.0312564 0.0178412 0.0285561 0.0258372 0.0482229 0.0446792 0.0435792 0.0508938 0.05216 0.0334269 0.0621156 0.0697352 0.0795082 0.0689088 0.0766953 0.0640245 0.0666837 0.0657195