ITEM: TIMESTEP
34000
ITEM: NUMBER OF ATOMS
5600
ITEM: BOX BOUNDS xy xz yz pp pp pp
0	7.1235	0
0	201.985	2.3745
0	119.584	0
ITEM: ATOMS id type element xu yu zu q Q_1 Q_2 Q_3 Q_4 Q_5 Q_6 Q_7 Q_8 Q_9 Q_10 Q_11 Q_12 Q_13 Q_14 Q_15 Q_16 Q_17 Q_18 Q_19 Q_20 Q_21
1 1 Mg -1.78942 49.2579 -1.21484 1.2 1 0.432595 0.0797817 0.127328 0.0441898 0.0639699 0.0580484 0.0419502 0.0609568 0.09196 0.0681107 0.0738252 0.0924506 0.0880418 0.105498 0.125863 0.0888411 0.0783254 0.0968634 0.107023 0.101782
2 1 Mg 2.66821 50.851 2.10792 1.2 1 0.284323 0.122637 0.0332747 0.0579677 0.0452655 0.0239078 0.0784127 0.0553524 0.0722065 0.0804421 0.0577702 0.0920136 0.0774204 0.0859636 0.0746616 0.0802106 0.0902984 0.0844816 0.0905675 0.0744833
3 2 Si 0.614409 50.6503 0.11238 2.4 1 0.300104 0.12356 0.0532072 0.0681877 0.0428471 0.0389841 0.0584555 0.0560312 0.0724402 0.086535 0.0609239 0.0696218 0.0534999 0.0739864 0.0982969 0.0776928 0.0982743 0.066553 0.0711758 0.0827396
4 3 O 2.02654 49.9826 0.381336 -1.2 1 0.370876 0.10631 0.0800794 0.0555559 0.0304121 0.0627303 0.0395475 0.0567586 0.050695 0.0672965 0.0628608 0.0858577 0.0834094 0.0986109 0.0959525 0.08098 0.0688191 0.0586579 0.0731187 0.0890115
5 3 O -1.56546 53.1462 1.66624 -1.2 1 0.131819 0.0695592 0.0447305 0.0301774 0.0290156 0.0293897 0.047198 0.0546417 0.0630939 0.062397 0.0485719 0.0530733 0.047501 0.0699732 0.0800739 0.0963887 0.0816064 0.0528281 0.0459613 0.0846997
6 3 O 0.0126991 49.8672 -1.11427 -1.2 1 0.383977 0.0979848 0.0791974 0.0695151 0.0354771 0.0602983 0.0375684 0.0531122 0.083668 0.07638 0.0794201 0.0719953 0.116802 0.0753605 0.101599 0.0870138 0.0763652 0.0748223 0.0698144 0.0969675
7 1 Mg -2.45077 58.9913 3.27695 1.2 1 0.00800173 0.0168854 0.0106461 0.0327801 0.00997172 0.0345679 0.0101108 0.0619623 0.0144189 0.0835162 0.0126474 0.0528746 0.0189277 0.0752577 0.0190477 0.0995057 0.0292205 0.121454 0.0295053 0.0986592
8 3 O -0.256008 50.6245 1.48046 -1.2 1 0.318912 0.120051 0.0503164 0.0566185 0.0369463 0.0344873 0.0710343 0.0640833 0.0730067 0.0952195 0.0668171 0.0826119 0.0553513 0.0774349 0.0695746 0.0846998 0.0865008 0.089865 0.0729521 0.0892295
9 1 Mg -2.52781 55.9138 4.68072 1.2 1 0.011484 0.0215373 0.0130497 0.0298157 0.0184607 0.0315222 0.0194274 0.0374112 0.0374913 0.0577703 0.0568159 0.0591372 0.0602544 0.0669447 0.0727648 0.0653875 0.0746333 0.0841138 0.0824784 0.0757185
10 2 Si 0.267109 58.0157 4.80542 2.4 1 0.00389954 0.0100459 0.0223442 0.0386483 0.033805 0.0286503 0.0476622 0.0415008 0.0529394 0.0562296 0.0484713 0.0730251 0.0693686 0.0663031 0.0829846 0.0686033 0.0593535 0.100163 0.0556448 0.0586369
11 3 O -1.24905 57.9431 4.80429 -1.2 1 0.0200489 0.0338407 0.0201967 0.0190078 0.0347258 0.0301698 0.0288528 0.0811666 0.0386451 0.0658933 0.0411758 0.0676331 0.0661432 0.066211 0.0785082 0.0735395 0.0562773 0.06683 0.0731214 0.066761
12 3 O 1.10041 54.0438 4.71469 -1.2 1 0.0635254 0.0551556 0.0401354 0.0207881 0.023918 0.0341988 0.0303638 0.042679 0.0508888 0.0588844 0.0650743 0.0504324 0.0640324 0.0694008 0.0921394 0.0803469 0.082135 0.0586811 0.0774169 0.0582886
13 3 O 1.07311 57.2536 3.43965 -1.2 1 0.00555406 0.00994023 0.0255248 0.0215504 0.0240111 0.0252415 0.0499463 0.0477402 0.0382388 0.0454292 0.0538951 0.0450987 0.0555851 0.0520376 0.102206 0.0774117 0.0627845 0.0682941 0.0561772 0.0763262
14 3 O 0.920085 57.2988 5.97691 -1.2 1 0.0115983 0.0178314 0.0276852 0.0196855 0.0249516 0.0302843 0.0504932 0.0477159 0.0412687 0.0483348 0.0543294 0.0456161 0.0564351 0.0612153 0.0858689 0.0750677 0.0698401 0.0585585 0.0564562 0.0736672
15 1 Mg -0.191187 53.6245 3.22062 1.2 1 0.100809 0.0652632 0.0387446 0.0249481 0.0200477 0.0263311 0.0340417 0.0621746 0.0437391 0.0610624 0.0551724 0.0481651 0.0481314 0.0632527 0.0563832 0.0780749 0.0650271 0.0873395 0.073453 0.0947875
16 1 Mg 0.448476 50.2137 3.25872 1.2 1 0.3451 0.102867 0.0618772 0.0769224 0.0217177 0.0607529 0.0547451 0.0663984 0.047702 0.0811947 0.0604637 0.0858204 0.058182 0.0612384 0.0868186 0.0798927 0.0771099 0.0875301 0.0830497 0.0971529
17 2 Si 1.9156 52.6428 4.74085 2.4 1 0.133107 0.0957221 0.0431454 0.0333499 0.0230993 0.0398393 0.0395162 0.059173 0.0590409 0.0672447 0.0798723 0.0804536 0.0841184 0.069411 0.0851206 0.0808606 0.0828455 0.0860005 0.0886734 0.0646895
18 3 O -1.31023 52.8914 4.72556 -1.2 1 0.151172 0.0769707 0.0438616 0.0359399 0.0310578 0.0285745 0.0526304 0.0523007 0.0471846 0.0680514 0.0534598 0.0890025 0.0579621 0.0731508 0.0689126 0.0846858 0.0826413 0.0727941 0.0748574 0.0826089
19 3 O 2.11881 49.2486 3.18638 -1.2 1 0.453664 0.062521 0.109695 0.0426505 0.0617983 0.0475655 0.0688883 0.0623412 0.0787001 0.0719109 0.0677832 0.0726658 0.0852881 0.0694969 0.0967791 0.102357 0.0870736 0.102818 0.0742997 0.0642229
20 3 O 1.34474 51.9642 3.44908 -1.2 1 0.206754 0.0980864 0.0198091 0.0316152 0.0263277 0.0393142 0.044988 0.0755873 0.0561595 0.0601906 0.0677743 0.0578837 0.0829699 0.0692686 0.0806563 0.0812786 0.0902499 0.0860836 0.0733194 0.0666806
21 1 Mg -0.211112 53.8713 0.15509 1.2 1 0.0772906 0.0630074 0.0465942 0.0340564 0.0190474 0.0241155 0.0336546 0.0608618 0.0418747 0.0606475 0.0501408 0.0561028 0.0481239 0.0723776 0.0538352 0.0882395 0.0680963 0.0966281 0.0534895 0.0844462
22 3 O 1.50634 51.7259 6.06337 -1.2 1 0.222585 0.100958 0.0206068 0.0393205 0.0430805 0.0468318 0.0405752 0.0804101 0.0593357 0.0574289 0.0711937 0.072491 0.0645868 0.0930458 0.0745261 0.0825465 0.0709764 0.0869388 0.0818531 0.0585655
23 1 Mg 0.00650565 56.6141 1.82416 1.2 1 0.0211503 0.0143129 0.0175158 0.0244078 0.0186699 0.0306589 0.0288337 0.0375254 0.039972 0.0583917 0.061558 0.0519036 0.0662804 0.0598679 0.0663502 0.0852348 0.0661153 0.080152 0.0713371 0.0825775
24 2 Si -2.22962 54.5984 1.79855 2.4 1 0.0377299 0.047796 0.0380996 0.0310063 0.026491 0.0383292 0.0372536 0.0345409 0.0591467 0.058382 0.052102 0.0641662 0.0708187 0.0614102 0.0680777 0.0585776 0.0662124 0.0581269 0.0726505 0.0775421
25 3 O 0.904652 54.5249 1.71027 -1.2 1 0.0448308 0.0527948 0.0356805 0.0171371 0.0222429 0.0313265 0.0251667 0.0591508 0.0516301 0.0571013 0.0460308 0.0604426 0.0566939 0.0694108 0.0770107 0.0643757 0.0601166 0.0751484 0.0474833 0.0735649
26 3 O -0.96856 58.4213 1.81726 -1.2 1 0.0133712 0.0189273 0.0233234 0.0228315 0.0200908 0.0304158 0.039689 0.0447456 0.0471054 0.0469943 0.0461708 0.0496667 0.0529679 0.0721768 0.101047 0.0668909 0.0707313 0.0549836 0.0651343 0.0698664
27 3 O -1.60904 55.4087 0.464131 -1.2 1 0.0198084 0.0298157 0.0268092 0.0392423 0.0242539 0.0270031 0.0535497 0.0473881 0.0400125 0.04088 0.0638564 0.0505727 0.061464 0.083189 0.0661464 0.0706182 0.075731 0.0666506 0.0727075 0.0660234
28 3 O -1.53072 55.2227 3.09426 -1.2 1 0.0203086 0.0356309 0.0387805 0.0297159 0.0266908 0.030799 0.0457196 0.0423621 0.0476667 0.0400768 0.0615564 0.0525994 0.0557594 0.0776787 0.0914096 0.0554266 0.0733134 0.0647714 0.0620499 0.0669831
29 1 Mg -2.37285 59.0942 0.216203 1.2 1 0.0119612 0.0160711 0.0110088 0.0308108 0.0118107 0.0371138 0.0150793 0.0596269 0.0216518 0.0790435 0.0199056 0.0490512 0.0254268 0.0707168 0.0228594 0.104223 0.0296034 0.11553 0.0404774 0.0932791
30 1 Mg 2.4019 61.815 1.92525 1.2 1 0.00573956 0.0100592 0.025166 0.0327949 0.0156533 0.0226474 0.0284782 0.0288154 0.0560907 0.0604267 0.0564079 0.0578236 0.0551634 0.0632453 0.0511563 0.0806684 0.0742935 0.0952977 0.0681892 0.0835147
31 2 Si -0.318366 59.8724 1.77165 2.4 1 0.00850178 0.0199646 0.0245483 0.0307344 0.0245015 0.0380887 0.0435626 0.0346941 0.0546725 0.0602033 0.0493687 0.0659172 0.0729199 0.0630205 0.0854778 0.0594341 0.0639759 0.0875225 0.0560337 0.0601033
32 3 O 1.22812 59.8618 1.79749 -1.2 1 0.0394481 0.0147104 0.0250939 0.0230068 0.0200088 0.0283055 0.0254807 0.0586631 0.0375956 0.0535425 0.0393974 0.0663053 0.044496 0.0717525 0.072375 0.0716007 0.0549902 0.0762761 0.0475093 0.0794135
33 3 O -1.62136 63.8439 1.71176 -1.2 1 0.0219874 0.0273322 0.0233696 0.0196882 0.0230808 0.0321705 0.0330738 0.047328 0.0625157 0.0430295 0.0475742 0.0427005 0.0585247 0.0689583 0.100262 0.0745782 0.066943 0.0549077 0.075218 0.0610975
34 3 O -0.917643 60.6484 0.586331 -1.2 1 0.0133405 0.0106043 0.0295436 0.0210099 0.0324188 0.0213882 0.0518116 0.0482335 0.036727 0.0506842 0.0549061 0.042213 0.0497642 0.0800766 0.0626419 0.0775609 0.0792805 0.0544972 0.0734339 0.0616285
35 1 Mg -2.50932 69.5932 3.09609 1.2 1 0.0130773 0.0128485 0.0156033 0.0318134 0.00894796 0.0373671 0.0153647 0.0578415 0.0162509 0.0832252 0.0170189 0.051749 0.0233863 0.0680437 0.0270094 0.0997078 0.0344062 0.106505 0.0388232 0.0902345
36 3 O -0.984602 60.5106 3.0766 -1.2 1 0.0260945 0.0057357 0.0256743 0.0209136 0.0317521 0.0219053 0.048649 0.0437154 0.0398174 0.043631 0.0522189 0.0463931 0.0506679 0.0740905 0.0786938 0.0761953 0.0792488 0.0507381 0.0688649 0.0754743
37 1 Mg -2.2784 66.7052 4.68018 1.2 1 0.0238325 0.015586 0.0168422 0.0321443 0.0196066 0.0300126 0.0262863 0.0404629 0.040236 0.0602542 0.0653868 0.0560459 0.0625368 0.0702267 0.0733343 0.0847217 0.065187 0.0946594 0.0776038 0.0765792
38 2 Si 0.197636 68.5284 4.51499 2.4 1 0.0240157 0.0154699 0.0196366 0.0286448 0.0274972 0.031303 0.0399146 0.0462055 0.0533008 0.0628883 0.05826 0.0684254 0.0657633 0.0545737 0.0781397 0.0812745 0.066617 0.0860923 0.0607689 0.06259
39 3 O -1.35411 68.5068 4.45596 -1.2 1 0.0192504 0.0268322 0.0262882 0.0180593 0.0322714 0.0264563 0.0253419 0.0707232 0.0393089 0.0672025 0.0314068 0.0617558 0.063018 0.0729506 0.0782905 0.0620388 0.0696619 0.0582639 0.0689444 0.0556144
40 3 O 1.33447 64.7593 4.70155 -1.2 1 0.0174827 0.0133588 0.0240693 0.0270237 0.0187128 0.033257 0.0390744 0.0447537 0.0552556 0.0483482 0.0469789 0.0397528 0.0545337 0.0751716 0.105681 0.0635722 0.077766 0.054817 0.0821342 0.0534893
41 3 O 0.959356 67.9427 3.19511 -1.2 1 0.0172658 0.00856434 0.0326851 0.0246879 0.0297809 0.0271782 0.0502263 0.0508945 0.0427812 0.0485238 0.0533409 0.0411282 0.0522165 0.0574886 0.0839439 0.0824337 0.061659 0.0593714 0.0604821 0.0809837
42 3 O 0.916464 67.8538 5.70383 -1.2 1 0.0230622 0.0243886 0.0244111 0.0213379 0.0373793 0.0266108 0.043499 0.0401519 0.0431149 0.0434748 0.057323 0.0395494 0.0567301 0.0727672 0.0837509 0.0658936 0.0763007 0.0597455 0.0643057 0.064955
43 1 Mg -0.179058 64.1636 3.31734 1.2 1 0.0124624 0.0238111 0.00792245 0.0362797 0.00966799 0.0408225 0.0159636 0.0602128 0.0219319 0.0743965 0.0171045 0.04815 0.0299265 0.0674307 0.0352316 0.101574 0.0474038 0.104917 0.0469658 0.0858781
44 1 Mg -0.0263265 61.2599 4.81778 1.2 1 0.0207237 0.0138574 0.0156561 0.0297946 0.0158645 0.031371 0.0272632 0.0368385 0.0437286 0.0528642 0.0551727 0.0614069 0.0591719 0.0672443 0.0728485 0.0640005 0.0805411 0.0960261 0.069683 0.0837282
45 2 Si 2.01622 63.2227 4.80458 2.4 1 0.00986386 0.0128887 0.0177342 0.0288791 0.0358289 0.039341 0.0425907 0.0401737 0.0539887 0.0554913 0.0585497 0.0694901 0.0730929 0.0594653 0.0712407 0.0657387 0.0629133 0.0965075 0.0527969 0.0532319
46 3 O -1.21343 63.2236 4.79104 -1.2 1 0.0227539 0.022979 0.0143985 0.0192155 0.0331623 0.0305769 0.0218384 0.0682752 0.0430819 0.0668138 0.0428023 0.067778 0.0640438 0.0679623 0.0769854 0.0645398 0.0616938 0.065689 0.0668075 0.0748811
47 3 O 0.953829 59.4412 4.76354 -1.2 1 0.0109264 0.0111883 0.0214857 0.0269573 0.0114843 0.035762 0.0347467 0.0459354 0.0616558 0.045619 0.0432077 0.0474998 0.0526151 0.0732143 0.106233 0.0644238 0.0716604 0.0513098 0.0820322 0.0526838
48 3 O 1.30378 62.5287 3.55287 -1.2 1 0.0203463 0.014381 0.0273127 0.0258227 0.0312815 0.0238199 0.0478021 0.0481773 0.0415908 0.0461501 0.0559057 0.0470813 0.0555789 0.0689049 0.0923217 0.0724106 0.074164 0.0667947 0.0654465 0.0723211
49 1 Mg -0.0807673 64.3584 0.345504 1.2 1 0.0113121 0.0155582 0.00425626 0.0332251 0.00926908 0.0375538 0.0104478 0.0633077 0.0167271 0.0716516 0.0289492 0.0526959 0.0236315 0.0720134 0.0265747 0.107278 0.0326906 0.112119 0.0313349 0.076869
50 3 O 1.27936 62.6027 6.14616 -1.2 1 0.0146463 0.0208021 0.0228976 0.0250755 0.0256854 0.0220081 0.0485897 0.0507879 0.0335853 0.0494342 0.053654 0.0459871 0.0555738 0.0586748 0.085909 0.0781797 0.0713564 0.060507 0.056879 0.0765077
51 1 Mg 0.0412327 67.1776 1.48538 1.2 1 0.0219795 0.0129486 0.015546 0.0287171 0.0109149 0.0305561 0.029855 0.0324376 0.0457216 0.0529282 0.0664744 0.046575 0.0600545 0.0664749 0.0678297 0.0835204 0.0693385 0.0865078 0.0776718 0.0767715
52 2 Si -2.11995 65.3361 1.7377 2.4 1 0.00964085 0.0139937 0.0262455 0.0294577 0.0327538 0.0353447 0.0338525 0.0437292 0.0551657 0.0554757 0.0481851 0.0670875 0.0715672 0.0581068 0.0710584 0.0694119 0.0624679 0.091137 0.0597763 0.0652874
53 3 O 1.00261 65.3114 1.75684 -1.2 1 0.0148106 0.0183699 0.014638 0.0210605 0.0223068 0.0259902 0.0244118 0.0776455 0.0354917 0.0663104 0.0287074 0.0685421 0.0589722 0.0735332 0.0628201 0.0718687 0.0605267 0.0706387 0.063996 0.070049
54 3 O -0.96753 69.1381 1.55891 -1.2 1 0.00981154 0.0128629 0.0226084 0.0225389 0.0117023 0.0325745 0.0354741 0.0433769 0.0541117 0.0462541 0.0501013 0.0406097 0.0547085 0.0750431 0.100267 0.0722053 0.0686345 0.0591981 0.0737873 0.0518601
55 3 O -1.43492 66.0762 0.460745 -1.2 1 0.0166137 0.0124431 0.0304803 0.0156102 0.0224467 0.0237741 0.0512809 0.0437355 0.0364501 0.0448466 0.0530889 0.0339697 0.0518174 0.0587708 0.0841766 0.0800045 0.0671258 0.0575058 0.0600259 0.0634225
56 3 O -1.37045 65.8302 3.05154 -1.2 1 0.0146165 0.00558692 0.034311 0.0216575 0.0216239 0.0248427 0.0473176 0.04935 0.0449606 0.0415024 0.0538449 0.043922 0.0502083 0.0628184 0.0937535 0.0683847 0.0791535 0.0635199 0.0612512 0.0769793
57 1 Mg -2.23273 69.6931 0.0426859 1.2 1 0.0119738 0.0248254 0.0130325 0.0316348 0.0168042 0.0253406 0.0219476 0.0509312 0.0222192 0.0819061 0.0265164 0.0469098 0.0303561 0.0715629 0.035363 0.0964378 0.0508388 0.104269 0.0555379 0.0876957
58 1 Mg 2.41854 72.5948 1.58442 1.2 1 0.0165814 0.0189442 0.0155871 0.0289016 0.0151774 0.021553 0.0254325 0.0339307 0.0415625 0.0607204 0.0543529 0.0594135 0.0623979 0.0629401 0.0590054 0.0616729 0.0835111 0.1023 0.0666436 0.0815673
59 2 Si -0.311716 70.5053 1.65843 2.4 1 0.0109562 0.0223473 0.0174302 0.030507 0.0318245 0.0308185 0.0446602 0.0417402 0.0495423 0.0613212 0.051671 0.0675845 0.0704573 0.0539251 0.0789628 0.0578492 0.0623736 0.0903799 0.054759 0.0601679
60 3 O 1.1915 70.571 1.68784 -1.2 1 0.0306215 0.0247806 0.0130573 0.0263503 0.0306286 0.0348354 0.0221864 0.0768611 0.0390492 0.0672063 0.0421465 0.0675015 0.0580597 0.0712609 0.0749534 0.0678485 0.0509594 0.065677 0.0650644 0.0748534
61 3 O -1.11358 74.3802 1.75117 -1.2 1 0.0112547 0.0131416 0.0187312 0.023407 0.0182847 0.0328463 0.0446552 0.0398931 0.049566 0.0437095 0.043506 0.0503307 0.053322 0.0684757 0.106272 0.0680556 0.07877 0.0532342 0.0760146 0.0517348
62 3 O -0.941879 71.2906 0.495253 -1.2 1 0.0115358 0.0129048 0.0254492 0.0238046 0.0275526 0.023867 0.0476934 0.046238 0.0336499 0.0455803 0.0479547 0.0461886 0.0608513 0.068574 0.0792271 0.0785629 0.0659275 0.0642358 0.0728442 0.0661162
63 1 Mg -2.41156 80.0932 2.99588 1.2 1 0.00284716 0.0156104 0.0109072 0.0286649 0.0101369 0.0346845 0.0111479 0.0562808 0.0203894 0.0803474 0.0204798 0.0503735 0.0254979 0.071307 0.0218716 0.0981224 0.0375424 0.113992 0.0333432 0.0971115
64 3 O -1.06412 71.1392 3.03605 -1.2 1 0.0209579 0.0106595 0.025872 0.0230478 0.0266977 0.0240736 0.0501952 0.0413925 0.0416139 0.0387005 0.0540955 0.0460027 0.0576579 0.0544089 0.0958209 0.0701308 0.0746624 0.061995 0.0656782 0.0694562
65 1 Mg -2.41098 77.1479 4.60219 1.2 1 0.0254613 0.00936769 0.0153731 0.0330628 0.0137565 0.0293186 0.0246099 0.036157 0.0445656 0.0527369 0.0578983 0.0599186 0.0581703 0.0673304 0.0665411 0.0694767 0.0729835 0.105992 0.0633103 0.0812186
66 2 Si 0.267293 79.1553 4.67007 2.4 1 0.0316559 0.0161425 0.0191921 0.0222459 0.0339706 0.0281645 0.0398399 0.037596 0.0459265 0.0631209 0.0553065 0.0638003 0.0629421 0.0605779 0.0913537 0.0651049 0.0695682 0.0839146 0.0574762 0.0633356
67 3 O -1.20845 79.048 4.64593 -1.2 1 0.0224728 0.00861148 0.012453 0.0164463 0.0323496 0.0267786 0.0263371 0.0714631 0.0397242 0.0612445 0.0386484 0.0710188 0.0640182 0.0655712 0.0750497 0.0713526 0.0546742 0.0682465 0.072124 0.0683418
68 3 O 1.42086 75.3242 4.69292 -1.2 1 0.019688 0.0167369 0.0241433 0.0165801 0.0192148 0.0372245 0.0324059 0.0426706 0.0487914 0.0435945 0.0431918 0.0453275 0.0486431 0.0636661 0.100132 0.0669353 0.0720434 0.0497186 0.0715606 0.0649962
69 3 O 0.944914 78.5043 3.3231 -1.2 1 0.0272579 0.0125748 0.0251994 0.0273634 0.0274065 0.0212145 0.0500228 0.0443736 0.0379108 0.0503946 0.0473905 0.0485158 0.0564789 0.0689481 0.0765442 0.0806694 0.0753644 0.0587552 0.0620516 0.0811156
70 3 O 1.14072 78.3447 5.85918 -1.2 1 0.0170089 0.00934137 0.03151 0.0169771 0.0238593 0.0228687 0.0514545 0.042825 0.0397693 0.048135 0.0515605 0.0500753 0.0631108 0.0608038 0.0855677 0.0709388 0.0764121 0.0752822 0.0630238 0.0591842
71 1 Mg 0.210414 74.7378 3.26402 1.2 1 0.0141175 0.0109399 0.00930164 0.0341523 0.0132076 0.0337258 0.0150164 0.0574185 0.0201736 0.0761759 0.0340751 0.0516817 0.0299051 0.0632885 0.0256347 0.0952953 0.0547671 0.0987503 0.0558778 0.0818829
72 1 Mg 0.0383565 71.9958 4.5627 1.2 1 0.0100906 0.0103638 0.0238505 0.0299666 0.0192662 0.028953 0.022594 0.0309398 0.0505847 0.0584416 0.0545499 0.0557156 0.0540582 0.0674508 0.0617141 0.0789129 0.0696005 0.098313 0.0649801 0.0886664
73 2 Si 2.17053 73.8263 4.79059 2.4 1 0.0100528 0.0150909 0.0240728 0.0253018 0.0304896 0.0338076 0.0418151 0.0380259 0.0504468 0.0544794 0.0535029 0.0628294 0.0735191 0.0595295 0.0745315 0.0672416 0.0648661 0.0860285 0.0668396 0.0554016
74 3 O -1.01575 73.93 4.78866 -1.2 1 0.0183614 0.0243226 0.0186303 0.0157742 0.0184283 0.0331484 0.0211844 0.0684889 0.0446453 0.0530684 0.0357768 0.0730331 0.0534284 0.0702762 0.075024 0.0724642 0.0658715 0.0679717 0.0577168 0.0738125
75 3 O 0.953878 70.0352 4.54695 -1.2 1 0.0166027 0.0113401 0.0237922 0.0250183 0.0165049 0.0351216 0.0387076 0.0425636 0.0567165 0.044001 0.0511416 0.0421945 0.0576941 0.0753573 0.0997089 0.0763749 0.0634992 0.0484527 0.0745198 0.0552895
76 3 O 1.60016 73.2381 3.4605 -1.2 1 0.015428 0.0155386 0.0249641 0.0230923 0.0284535 0.0201522 0.0521549 0.0401533 0.0393972 0.0478093 0.0430715 0.0432732 0.0573567 0.0727951 0.0702767 0.0746155 0.0831962 0.0618127 0.0742194 0.0708383
77 1 Mg 0.08637 74.7737 0.236212 1.2 1 0.0100279 0.011845 0.00995011 0.0340003 0.00879611 0.0386651 0.0104182 0.0603564 0.0150799 0.0878087 0.0168248 0.0495968 0.0188574 0.0690258 0.0220737 0.101372 0.029349 0.114191 0.0303755 0.0911612
78 3 O 1.41886 73.2103 6.12961 -1.2 1 0.0119739 0.0124042 0.0267912 0.0191613 0.0249233 0.0229742 0.045608 0.0479824 0.0459092 0.0460081 0.0521812 0.0395973 0.0574618 0.0596058 0.0813168 0.0733554 0.0712645 0.0689383 0.0598518 0.0741485
79 1 Mg -0.0135225 77.638 1.67564 1.2 1 0.0109059 0.013779 0.0159944 0.0313721 0.0205709 0.0233399 0.0258996 0.0274263 0.0419013 0.0632945 0.0524125 0.0498092 0.0619421 0.0657951 0.0611621 0.088096 0.0630477 0.0999571 0.065874 0.0914806
80 2 Si -1.81804 75.7849 1.78937 2.4 1 0.0197102 0.0119297 0.0213356 0.0242045 0.0304972 0.0359347 0.0411228 0.0480581 0.0543637 0.0416653 0.0458558 0.0686596 0.0675985 0.062314 0.0708825 0.0681711 0.0686492 0.0884805 0.0500166 0.0452666
81 3 O 1.35123 75.7511 1.62227 -1.2 1 0.0339234 0.0135765 0.022639 0.0259146 0.0374004 0.0225077 0.0196192 0.0690601 0.0459915 0.0529105 0.04789 0.0703883 0.0585646 0.0664164 0.0740009 0.0611767 0.0698248 0.0713573 0.0571682 0.0710784
82 3 O -1.08408 79.6066 1.69786 -1.2 1 0.00718043 0.0156895 0.0209621 0.0234894 0.018773 0.0348306 0.0358408 0.0444043 0.059468 0.0432366 0.0392655 0.0436891 0.0504466 0.0688461 0.10493 0.0743382 0.0787915 0.0464507 0.0697257 0.058326
83 3 O -1.2108 76.5756 0.473123 -1.2 1 0.0182124 0.0121894 0.0311356 0.0291651 0.0283618 0.020847 0.0482977 0.0418342 0.0393121 0.0455581 0.0560428 0.045351 0.060424 0.0515996 0.0925355 0.0759468 0.0722961 0.0728206 0.0636433 0.0654641
84 3 O -1.12575 76.4288 3.03924 -1.2 1 0.0139293 0.0131029 0.0257663 0.025438 0.0228486 0.0180869 0.0539052 0.0471052 0.0365573 0.0407717 0.0521658 0.0466457 0.0506176 0.0462056 0.101191 0.0654823 0.0802888 0.0703062 0.0615783 0.0774744
85 1 Mg -2.51639 79.9815 0.0795118 1.2 1 0.0153473 0.0173245 0.00595964 0.0332936 0.00887735 0.0382737 0.012323 0.059721 0.0161698 0.0778126 0.025959 0.051634 0.0229785 0.0650636 0.0296441 0.0965123 0.0361614 0.108236 0.0379999 0.0812601
86 1 Mg 2.134 83.0313 1.5341 1.2 1 0.0249649 0.0105094 0.0167708 0.0276377 0.0147461 0.0250274 0.0274024 0.0359326 0.0437542 0.0550384 0.0608713 0.057837 0.0584275 0.0580337 0.0702327 0.0749578 0.0811081 0.0829053 0.0799246 0.061548
87 2 Si -0.452702 81.0615 1.64931 2.4 1 0.00652533 0.019153 0.0253266 0.0311931 0.0384211 0.0317372 0.0413959 0.0424609 0.0516541 0.0463858 0.0517325 0.0703052 0.0681616 0.0585026 0.0758597 0.0696943 0.0612908 0.100583 0.0561683 0.0526329
88 3 O 1.18897 81.1031 1.56275 -1.2 1 0.0276547 0.00864614 0.0127697 0.0187659 0.0291467 0.0338731 0.0221263 0.0682882 0.0410946 0.0612046 0.0414458 0.0723484 0.0570276 0.071861 0.0699455 0.0675209 0.0538268 0.0725991 0.0719131 0.0748646
89 3 O -1.38986 84.7915 1.53325 -1.2 1 0.00259256 0.0190928 0.0245971 0.0189581 0.0186513 0.0386939 0.0412665 0.048806 0.0518732 0.0420663 0.0415479 0.0450748 0.0451574 0.0704157 0.106671 0.0650251 0.0728647 0.0510969 0.07261 0.0695224
90 3 O -1.0839 81.5984 0.332027 -1.2 1 0.00813955 0.00803344 0.0287974 0.0219298 0.0284305 0.0201061 0.0483612 0.0450987 0.0418436 0.0390176 0.0499343 0.0475196 0.0485387 0.064023 0.0856062 0.0674172 0.0829024 0.057129 0.0670923 0.06063
91 1 Mg -2.44229 90.3962 2.9197 1.2 1 0.0174683 0.0203838 0.00977516 0.0254241 0.0155145 0.0357377 0.0159527 0.0569921 0.0178103 0.0758278 0.0353532 0.0478143 0.0307148 0.0671417 0.0309328 0.0990775 0.0503648 0.104661 0.0494348 0.0884373
92 3 O -1.15824 81.7146 2.94726 -1.2 1 0.0138159 0.0142836 0.036039 0.0252394 0.0289825 0.0227608 0.0514952 0.0424464 0.0481398 0.0423103 0.0537719 0.0469177 0.0545665 0.0490342 0.100072 0.0713908 0.0718165 0.0675388 0.0589488 0.0806985
93 1 Mg -2.20059 87.6599 4.61035 1.2 1 0.0169749 0.0141071 0.0181287 0.027619 0.0153434 0.0253971 0.0245702 0.0351446 0.0419253 0.0580642 0.0546994 0.0588809 0.0639093 0.0646631 0.0657009 0.0738445 0.0794262 0.0933699 0.077328 0.0709389
94 2 Si 0.297633 89.4838 4.38483 2.4 1 0.0123139 0.0115234 0.0186913 0.0257788 0.0281305 0.0258371 0.045939 0.0381765 0.0452249 0.0591621 0.0525935 0.0608209 0.0648899 0.0561561 0.0819248 0.0706452 0.0628905 0.0869695 0.0645135 0.063309
95 3 O -1.26798 89.5986 4.47435 -1.2 1 0.0252771 0.0177807 0.0107877 0.0203396 0.0218426 0.0334927 0.0285262 0.0703002 0.0432547 0.0637378 0.0342627 0.0654656 0.0520812 0.068288 0.0715161 0.0660948 0.0563695 0.0717989 0.0658725 0.0716377
96 3 O 1.37774 85.8854 4.48878 -1.2 1 0.00828687 0.0197761 0.0275221 0.0162833 0.0199108 0.0415854 0.0392585 0.0449051 0.0525162 0.0425781 0.0343863 0.0499928 0.0497963 0.0600831 0.108056 0.0636321 0.0720546 0.0531061 0.0726762 0.0676801
97 3 O 0.938408 88.9726 3.06497 -1.2 1 0.0182645 0.0109872 0.0157061 0.0257139 0.0336249 0.0243351 0.0468948 0.0479451 0.0387089 0.0451867 0.0494708 0.0414898 0.0519049 0.0699078 0.0736835 0.0737681 0.0716723 0.0634625 0.068769 0.0700164
98 3 O 1.06688 88.8046 5.64054 -1.2 1 0.0189706 0.0166311 0.0278319 0.0191357 0.027051 0.0263437 0.0459068 0.0401448 0.0316812 0.0514397 0.0500466 0.0421384 0.0548145 0.0570298 0.0838495 0.0770726 0.0739974 0.0645902 0.0635057 0.0605121
99 1 Mg -0.110184 85.2817 3.07852 1.2 1 0.0149671 0.0164514 0.0138338 0.0288338 0.0129843 0.0404731 0.0143756 0.0577636 0.018691 0.0780353 0.0205168 0.051872 0.0224258 0.0689287 0.0278297 0.103356 0.0363678 0.113192 0.0371072 0.0925828
100 1 Mg -0.0477282 82.4344 4.60989 1.2 1 0.00579108 0.0133493 0.0178174 0.0305471 0.022081 0.0282662 0.0269303 0.0305382 0.0376336 0.0658114 0.0537125 0.0597065 0.0594253 0.0683161 0.0671563 0.0735699 0.0699132 0.099653 0.0718341 0.0849778
101 2 Si 2.10234 84.3224 4.52829 2.4 1 0.00856704 0.0107569 0.0175179 0.0265109 0.0328948 0.0344721 0.0406852 0.0393674 0.0530217 0.0481614 0.0566065 0.0693635 0.0732473 0.0579072 0.0786712 0.0730325 0.0573194 0.0961997 0.0558855 0.0560592
102 3 O -1.11009 84.421 4.57724 -1.2 1 0.0216733 0.0243261 0.0164445 0.0164808 0.0284235 0.0308175 0.0279698 0.0740975 0.0435182 0.0583156 0.042464 0.0745924 0.0579091 0.068371 0.0765062 0.072851 0.0620114 0.0711912 0.0596181 0.0670517
103 3 O 0.977684 80.5519 4.7049 -1.2 1 0.0175796 0.0177084 0.0225252 0.0198141 0.0151649 0.0344053 0.0348955 0.043713 0.0582901 0.0415529 0.0468469 0.0434454 0.0548772 0.072284 0.0991813 0.0729002 0.0722774 0.0514303 0.0749828 0.0647102
104 3 O 1.25498 83.681 3.22598 -1.2 1 0.0121393 0.0134764 0.030111 0.0295282 0.0202124 0.0170521 0.0481008 0.04379 0.0355245 0.0405316 0.0558635 0.0407087 0.0540543 0.0477598 0.0907799 0.0687733 0.0719782 0.0690154 0.0613764 0.0711806
105 1 Mg -0.0848845 85.3864 -0.143724 1.2 1 0.00427563 0.0165878 0.00956054 0.0354767 0.0112984 0.0338187 0.0153545 0.0556146 0.0225122 0.0768604 0.0236264 0.0539338 0.0258494 0.0732231 0.0303006 0.103102 0.042405 0.110195 0.0464948 0.0880762
106 3 O 1.39481 83.6453 5.81068 -1.2 1 0.0155831 0.00885142 0.0412927 0.0205913 0.0204684 0.0309038 0.0499948 0.0453708 0.0373128 0.0487432 0.0467217 0.04082 0.0522429 0.065386 0.082628 0.0715373 0.0723852 0.0614652 0.0597011 0.0717752
107 1 Mg 0.196516 88.1566 1.29972 1.2 1 0.015036 0.0135828 0.0193843 0.0295279 0.0189443 0.0271287 0.0199582 0.0296054 0.0403083 0.0596117 0.0642077 0.0486008 0.0665496 0.0664674 0.0675359 0.0826665 0.0625185 0.0935327 0.0775635 0.073917
108 2 Si -2.09225 86.3464 1.52594 2.4 1 0.0139965 0.013647 0.0249285 0.0318653 0.0279433 0.0285236 0.039106 0.0402725 0.0497834 0.0556193 0.0570373 0.0681281 0.0713958 0.0592176 0.0765587 0.0721457 0.0607475 0.0930474 0.052817 0.0613977
109 3 O 1.1317 86.3157 1.57396 -1.2 1 0.0253623 0.0185688 0.0141787 0.0266279 0.023726 0.0270686 0.0234678 0.077537 0.0366735 0.0616336 0.039647 0.0693707 0.0551509 0.0644715 0.0752312 0.0674565 0.0572197 0.0672895 0.064126 0.0665774
110 3 O -1.01525 90.09 1.44207 -1.2 1 0.0180075 0.0165017 0.0293174 0.0163631 0.0173233 0.0362567 0.0369979 0.0496661 0.0561134 0.0442754 0.0428724 0.0492417 0.045769 0.0679928 0.10708 0.0748174 0.068487 0.0547291 0.0656053 0.058144
111 3 O -1.33283 86.9608 0.198432 -1.2 1 0.0152296 0.0173399 0.0319948 0.0236901 0.0227777 0.0212044 0.0503162 0.0377666 0.0377271 0.0429339 0.0549138 0.0451033 0.0569507 0.0665156 0.0836372 0.0696606 0.0817583 0.0609066 0.0726665 0.0649295
112 3 O -1.40789 86.9945 2.83195 -1.2 1 0.00290843 0.0143571 0.0311017 0.0255875 0.0241617 0.0210893 0.0511722 0.0502174 0.0435505 0.0511889 0.0485099 0.0381245 0.0531126 0.0684347 0.0772194 0.0786223 0.078143 0.0652344 0.067922 0.0776996
113 1 Mg -2.26235 90.5387 -0.0870639 1.2 1 0.0114094 0.0116875 0.00469436 0.0324299 0.0099073 0.0345037 0.0103259 0.057947 0.0113494 0.0826484 0.0155275 0.0541757 0.0165205 0.0709347 0.0149988 0.103806 0.0203342 0.110113 0.0304752 0.0882746
114 1 Mg 2.19985 93.3454 1.20191 1.2 1 0.0164981 0.0172475 0.0211897 0.0298133 0.0163504 0.0267395 0.0242049 0.0340248 0.0393678 0.0573438 0.0646429 0.0540544 0.060826 0.0631273 0.0662735 0.077548 0.0650828 0.0865106 0.0794169 0.0726833
115 2 Si -0.237905 91.5171 1.36524 2.4 1 0.0343978 0.0106294 0.0237985 0.0288534 0.0247217 0.029349 0.0463545 0.0360721 0.0482812 0.0603128 0.0569054 0.058364 0.0749946 0.0538735 0.0813054 0.0689739 0.0624296 0.0931259 0.0620773 0.0631727
116 3 O 1.24824 91.4811 1.38982 -1.2 1 0.013337 0.0248396 0.0141497 0.0269595 0.0216939 0.0266218 0.0177715 0.066686 0.0387623 0.0560195 0.0425121 0.0679735 0.0537911 0.0645399 0.0736037 0.0666841 0.0577857 0.072459 0.054624 0.0757054
117 3 O -1.21571 95.3583 1.24651 -1.2 1 0.0148244 0.0163896 0.0214081 0.0259313 0.0165847 0.0389743 0.0434099 0.041661 0.059599 0.0431969 0.0509645 0.044981 0.0530732 0.0770156 0.105485 0.0787841 0.0713303 0.0480141 0.0731021 0.0605709
118 3 O -0.94832 92.0797 0.00871635 -1.2 1 0.0236472 0.00629653 0.0353604 0.0220487 0.026166 0.0252475 0.0468107 0.0481775 0.0428576 0.0382548 0.0600515 0.0371558 0.0547024 0.0648115 0.0838226 0.0722167 0.0761967 0.0553499 0.0682141 0.066424
119 1 Mg -2.17327 101.129 2.77677 1.2 1 0.0118622 0.0123038 0.0079557 0.0309895 0.0168347 0.0365092 0.0125485 0.0574844 0.0188661 0.0771607 0.0240757 0.049423 0.0245563 0.0741956 0.0267071 0.101873 0.0359088 0.111003 0.0393175 0.0891417
120 3 O -0.720442 92.2879 2.6169 -1.2 1 0.0271086 0.0209383 0.0143234 0.0189943 0.0254104 0.0271559 0.0387515 0.0430308 0.0397265 0.0568685 0.0539487 0.040705 0.058226 0.0719053 0.0651001 0.0696028 0.078863 0.0687122 0.0718098 0.0606599
121 1 Mg -2.11135 98.1088 4.15205 1.2 1 0.0236608 0.020436 0.0220492 0.030373 0.0221042 0.0257232 0.0259883 0.0417033 0.0366769 0.0572596 0.0578713 0.051244 0.0563012 0.0654893 0.0694838 0.078641 0.0676502 0.0880508 0.0776891 0.0705049
122 2 Si 0.620006 99.763 4.3175 2.4 1 0.0182118 0.0132076 0.0207322 0.0251879 0.0243321 0.0327917 0.0392658 0.0501822 0.0520061 0.0434876 0.0446492 0.0674354 0.0670377 0.0579704 0.061878 0.0856282 0.0551536 0.0937635 0.0586612 0.0598501
123 3 O -0.95961 99.9391 4.30695 -1.2 1 0.0292644 0.011972 0.0146674 0.0194468 0.0236177 0.025469 0.0242188 0.0746253 0.035661 0.0602973 0.0492525 0.0679885 0.0622254 0.0678867 0.0702608 0.0621367 0.0575752 0.0661232 0.0665049 0.0595278
124 3 O 1.5371 96.2865 4.21711 -1.2 1 0.00898192 0.016951 0.0282495 0.0226705 0.0190881 0.0336123 0.0359406 0.0473706 0.0532935 0.0397865 0.0453483 0.0472093 0.0526738 0.0731998 0.103593 0.078713 0.0625179 0.052107 0.0742422 0.061453
125 3 O 1.28697 99.2511 2.97978 -1.2 1 0.00955671 0.0229602 0.0264855 0.0189514 0.0168201 0.0184697 0.045909 0.0461526 0.033665 0.0513277 0.0568231 0.0397188 0.0614298 0.0473589 0.0921956 0.074427 0.0715599 0.0707889 0.0618219 0.0667611