ITEM: TIMESTEP
71200
ITEM: NUMBER OF ATOMS
5600
ITEM: BOX BOUNDS xy xz yz pp pp pp
0	7.1235	0
0	201.985	2.3745
0	119.584	0
ITEM: ATOMS id type element xu yu zu q Q_1 Q_2 Q_3 Q_4 Q_5 Q_6 Q_7 Q_8 Q_9 Q_10 Q_11 Q_12 Q_13 Q_14 Q_15 Q_16 Q_17 Q_18 Q_19 Q_20 Q_21
1 1 Mg -1.79329 48.3378 -0.986963 1.2 1 0.407733 0.105179 0.124641 0.0546415 0.0651198 0.0610847 0.0519781 0.0524338 0.0855918 0.0699556 0.0763821 0.0880728 0.0961944 0.102327 0.110503 0.0859149 0.0902223 0.101508 0.0985295 0.0993514
2 1 Mg 2.73474 49.9195 1.85484 1.2 1 0.280939 0.113235 0.0203779 0.0657872 0.0436894 0.029669 0.0744547 0.0480136 0.0680135 0.0784736 0.0632333 0.0971623 0.071774 0.07492 0.0644439 0.0783233 0.079746 0.0931612 0.0809811 0.073665
3 2 Si 0.54003 49.696 0.0335029 2.4 1 0.27727 0.133193 0.0420148 0.0736988 0.0477227 0.0324803 0.0711454 0.0589025 0.0728302 0.0655559 0.0534424 0.0534085 0.0587099 0.0621705 0.0894514 0.0926039 0.105678 0.0730129 0.0762793 0.0754308
4 3 O 1.90795 48.9726 0.21941 -1.2 1 0.363662 0.112762 0.0912986 0.0718263 0.0239486 0.055917 0.0452735 0.0603209 0.0611799 0.0811257 0.0616969 0.0883819 0.075378 0.0959648 0.0954359 0.0817473 0.0825494 0.0662777 0.0804589 0.0903012
5 3 O -1.63635 52.3266 1.7451 -1.2 1 0.105812 0.0541995 0.0596404 0.0205759 0.0207157 0.0273041 0.047352 0.0420102 0.0541502 0.0565572 0.054159 0.0531631 0.0675228 0.0765776 0.0793107 0.0700248 0.0821828 0.0565345 0.0660899 0.076569
6 3 O 0.0179589 48.9875 -1.16465 -1.2 1 0.366089 0.108616 0.0731848 0.0759783 0.0439899 0.0531767 0.0388827 0.06622 0.076588 0.0686972 0.0623603 0.0828831 0.0922499 0.0755203 0.0877132 0.0758492 0.0637183 0.082035 0.0842179 0.0762465
7 1 Mg -2.67648 58.3138 2.98408 1.2 1 0.0199586 0.0194172 0.0107044 0.0338554 0.0163185 0.0371311 0.0143572 0.056855 0.0331642 0.0714207 0.0257216 0.0521585 0.0318655 0.064256 0.0347461 0.0975358 0.0466509 0.0943506 0.0515328 0.0720149
8 3 O -0.181683 49.6662 1.32884 -1.2 1 0.300091 0.13292 0.0455498 0.0573883 0.0400103 0.0493502 0.0668066 0.0724997 0.0756466 0.0875109 0.0631431 0.0613381 0.0511595 0.0686 0.0729402 0.0835364 0.0747393 0.0905073 0.0842533 0.0912455
9 1 Mg -2.65238 55.0831 4.54923 1.2 1 0.0186584 0.0148928 0.0160894 0.0242319 0.0185859 0.0284508 0.0275955 0.0364006 0.0504365 0.0484009 0.062024 0.0577854 0.0416941 0.0702017 0.0709408 0.07999 0.0653373 0.0852929 0.0626287 0.0851352
10 2 Si -0.0101333 57.1413 4.34966 2.4 1 0.0184524 0.0234732 0.0209925 0.0280268 0.0254255 0.0330593 0.0439554 0.0511552 0.0543459 0.0569398 0.0605007 0.0657703 0.0718132 0.0614355 0.0828834 0.0625972 0.0711701 0.0873346 0.0688321 0.059789
11 3 O -1.52456 57.0198 4.47548 -1.2 1 0.0239567 0.0311727 0.0177146 0.0167406 0.029938 0.031092 0.0252067 0.072339 0.0425654 0.0751478 0.0383356 0.0696233 0.0625408 0.0657049 0.0693619 0.0711013 0.0633795 0.0726344 0.0640605 0.0824771
12 3 O 1.13094 53.0745 4.48425 -1.2 1 0.0554845 0.0483787 0.0421687 0.0193265 0.0207936 0.0328727 0.0288505 0.0495311 0.0530536 0.0560158 0.0597923 0.0480667 0.062254 0.0694143 0.0894468 0.0715291 0.0723057 0.0670008 0.071615 0.0732201
13 3 O 0.775316 56.4872 3.05155 -1.2 1 0.0157475 0.0135871 0.0261568 0.0207513 0.0236169 0.0273066 0.0463052 0.0538665 0.0446988 0.0534006 0.060859 0.0466618 0.0541554 0.0719511 0.0963224 0.0757207 0.0624614 0.0642999 0.051335 0.0772778
14 3 O 0.757627 56.3209 5.71547 -1.2 1 0.0349292 0.0255177 0.0270318 0.0159432 0.0238585 0.0305557 0.0543169 0.039267 0.0382294 0.048045 0.0591126 0.0489714 0.0574385 0.0639636 0.0839756 0.0760393 0.0732388 0.0660882 0.0669987 0.0713796
15 1 Mg -0.373833 52.8016 3.17883 1.2 1 0.0737843 0.0569108 0.0465671 0.0273924 0.0228597 0.0439913 0.0344547 0.0582645 0.0427899 0.0666125 0.0440639 0.0471717 0.0506187 0.0588878 0.0604214 0.0893395 0.0696637 0.092096 0.0577494 0.0766674
16 1 Mg 0.317529 48.8442 3.0827 1.2 1 0.365228 0.110071 0.0714844 0.0800037 0.0389014 0.0619675 0.048233 0.0770024 0.0598801 0.0884906 0.0779194 0.0793984 0.0710113 0.0641461 0.0900926 0.0947234 0.0774166 0.0915736 0.0828609 0.0784093
17 2 Si 1.79734 51.4557 4.44504 2.4 1 0.13027 0.109656 0.0434512 0.0436596 0.0244684 0.0440223 0.0434206 0.0591598 0.0627984 0.0771271 0.0884747 0.0669542 0.087172 0.0751887 0.0813211 0.0863307 0.0712344 0.0926585 0.0805271 0.0616055
18 3 O -1.41176 51.7049 4.48488 -1.2 1 0.110448 0.118429 0.0419889 0.025595 0.0165317 0.0440193 0.0472768 0.0679622 0.065511 0.0701799 0.045819 0.097323 0.0706594 0.0708387 0.0922602 0.0942123 0.0753178 0.0678921 0.0838822 0.0627688
19 3 O 2.34667 48.3086 3.1477 -1.2 1 0.424739 0.0855141 0.121606 0.0452225 0.0633824 0.0567283 0.0664367 0.0765207 0.0769445 0.079369 0.0773972 0.0712191 0.0885678 0.0763628 0.0925661 0.116563 0.110658 0.0928847 0.0722901 0.0792112
20 3 O 1.13114 51.0257 3.2143 -1.2 1 0.183355 0.106878 0.0348814 0.0361187 0.0368991 0.0365492 0.047725 0.0616065 0.0561048 0.0638563 0.0630984 0.0681108 0.0793618 0.0730308 0.0888776 0.0811209 0.0839321 0.0785477 0.0682826 0.0851744
21 1 Mg -0.216012 52.9633 0.153232 1.2 1 0.0759089 0.0534663 0.0375927 0.0237549 0.0196502 0.0261342 0.0264529 0.0606908 0.0484855 0.0697228 0.0383138 0.057973 0.0543611 0.0744243 0.068129 0.0876629 0.0778045 0.0843122 0.058594 0.0801731
22 3 O 1.15237 50.6457 5.57353 -1.2 1 0.207439 0.114119 0.0214005 0.0392633 0.031341 0.0232099 0.0416723 0.0785826 0.0581283 0.0703356 0.0749085 0.0677924 0.0626785 0.0787496 0.093239 0.0619108 0.0864607 0.0738693 0.075085 0.0660316
23 1 Mg -0.286417 55.9246 1.36442 1.2 1 0.0123634 0.0137491 0.0207831 0.0261438 0.0237369 0.0330537 0.0325053 0.0390503 0.0445412 0.0495921 0.0640209 0.0686782 0.0651714 0.063922 0.0790416 0.0662501 0.084748 0.0788233 0.0721942 0.0788705
24 2 Si -2.25808 53.9239 1.62636 2.4 1 0.019788 0.0285463 0.0399628 0.0289023 0.0231509 0.0426068 0.0498488 0.0473814 0.0550165 0.0628107 0.0567254 0.0627282 0.0831296 0.0640923 0.0490931 0.0818279 0.0719176 0.0807101 0.0658831 0.0572011
25 3 O 0.941891 53.9234 1.48095 -1.2 1 0.00977955 0.0317984 0.0395392 0.0245759 0.0179554 0.0275031 0.0289822 0.0712781 0.0342861 0.0555581 0.0524015 0.0536722 0.0661603 0.0745856 0.0880806 0.052135 0.0741159 0.0538061 0.0669731 0.0690659
26 3 O -1.36247 57.7847 1.44767 -1.2 1 0.00570125 0.0160029 0.0149969 0.0214477 0.0162607 0.0320115 0.0422543 0.0424621 0.0529938 0.0404537 0.0561656 0.0469928 0.0537052 0.07538 0.0990586 0.0698525 0.0877217 0.0548507 0.0690804 0.0619429
27 3 O -1.56981 54.5808 0.394143 -1.2 1 0.0184153 0.0211164 0.0221301 0.0265316 0.0221273 0.0261058 0.052218 0.0427525 0.0324121 0.0354605 0.0575442 0.0440194 0.0615186 0.0804519 0.0760616 0.077289 0.0737697 0.0760333 0.0680901 0.0701309
28 3 O -1.67374 54.5926 2.91785 -1.2 1 0.00971735 0.00773148 0.0358314 0.0240961 0.0155276 0.028856 0.0468335 0.055461 0.0407442 0.0502762 0.0604262 0.0455584 0.0688516 0.0741122 0.0892623 0.0722889 0.0557834 0.0679423 0.0655623 0.0751576
29 1 Mg -2.54934 58.2385 0.0359712 1.2 1 0.0132253 0.0133035 0.014561 0.023194 0.00713043 0.0343483 0.0141877 0.0656166 0.0205538 0.0800517 0.0251677 0.0539245 0.0221562 0.0724318 0.0306015 0.10365 0.0282432 0.108074 0.0269643 0.0908719
30 1 Mg 2.00005 61.2808 1.49901 1.2 1 0.00564452 0.017929 0.0160784 0.0303063 0.0166302 0.0179042 0.031517 0.0410007 0.0425286 0.060407 0.059342 0.0629926 0.0587767 0.0639165 0.0674302 0.063552 0.0901785 0.0832084 0.0776421 0.0716083
31 2 Si -0.570378 59.1598 1.45786 2.4 1 0.0137467 0.0175899 0.0202976 0.0339354 0.0383812 0.0306369 0.0417372 0.0467951 0.055621 0.0605817 0.054192 0.0662684 0.0692753 0.0571751 0.0790058 0.0662886 0.062921 0.0888283 0.0675819 0.0616267
32 3 O 0.951705 59.2134 1.51725 -1.2 1 0.0258278 0.0243917 0.0195179 0.0213143 0.0227658 0.0303461 0.0309778 0.0752775 0.0431114 0.0690192 0.0425497 0.0737799 0.0658297 0.0749026 0.0776365 0.072377 0.0565281 0.0674837 0.0615045 0.0709009
33 3 O -1.54681 62.8013 1.46091 -1.2 1 0.0143641 0.0116737 0.0294917 0.0257623 0.0185193 0.0385486 0.0406878 0.0527808 0.0542491 0.0420523 0.0364172 0.0569899 0.0505198 0.0724338 0.104204 0.0666993 0.075447 0.0587396 0.0585034 0.0667006
34 3 O -1.21512 59.9618 0.105101 -1.2 1 0.0137569 0.0146882 0.0213095 0.0283171 0.0196281 0.0216148 0.0503362 0.0510249 0.0405056 0.0504718 0.057447 0.0400935 0.0548893 0.0544111 0.0895723 0.0844601 0.0697106 0.0589574 0.0548202 0.0751674
35 1 Mg -2.44406 69.163 2.87145 1.2 1 0.00988178 0.0136454 0.0100995 0.0293855 0.0172532 0.0359988 0.0244944 0.0553784 0.0398742 0.0611358 0.0482006 0.044281 0.0423074 0.0649398 0.0529696 0.0918326 0.0649904 0.10291 0.0676037 0.0767134
36 3 O -1.22217 59.8792 2.73187 -1.2 1 0.0181752 0.0211053 0.0295929 0.0248148 0.02868 0.0314401 0.0371089 0.0492811 0.0450667 0.0502717 0.0602682 0.0482286 0.0626937 0.0719548 0.0940516 0.0685834 0.0827324 0.0563532 0.0649781 0.0667971
37 1 Mg -2.78769 65.7601 4.45848 1.2 1 0.0190827 0.00533735 0.0167468 0.0268977 0.0193851 0.030165 0.0244412 0.0405247 0.0525789 0.0490928 0.0621658 0.060195 0.055575 0.0654208 0.0715317 0.0642184 0.0751096 0.10332 0.0568503 0.0826219
38 2 Si 0.110426 67.7257 4.33279 2.4 1 0.0181024 0.0237246 0.0251584 0.0280794 0.0416075 0.0387317 0.0387386 0.050248 0.0561657 0.0524276 0.0495387 0.0716595 0.0666757 0.0601556 0.0643352 0.0727456 0.0619925 0.0915467 0.0599445 0.0591661
39 3 O -1.431 67.7434 4.29163 -1.2 1 0.025151 0.0291021 0.0278184 0.0176825 0.0401949 0.0281317 0.0253061 0.0679285 0.0445099 0.0769599 0.037038 0.0725835 0.0599754 0.0686153 0.0745437 0.0701971 0.0618678 0.057298 0.0614136 0.0683556
40 3 O 1.10528 63.7944 4.7616 -1.2 1 0.0237613 0.0283267 0.0190339 0.0315006 0.0182093 0.0314874 0.0399946 0.0428015 0.0560875 0.0408238 0.0582126 0.0445728 0.0658709 0.0771743 0.0855732 0.0880056 0.0675161 0.0651008 0.062308 0.0586285
41 3 O 0.730744 66.9072 3.19457 -1.2 1 0.0148784 0.021167 0.0226286 0.0261427 0.0314363 0.0283932 0.0468199 0.0532018 0.0387394 0.0347775 0.064333 0.0369749 0.0622105 0.0708776 0.0799305 0.0789052 0.0680992 0.064453 0.0715568 0.0652457
42 3 O 0.76081 67.1822 5.70846 -1.2 1 0.00740475 0.0179435 0.0263189 0.0268756 0.0275811 0.0285335 0.0470631 0.0404721 0.0452201 0.0432853 0.0557948 0.0467471 0.0490558 0.0729623 0.0731875 0.0675352 0.0701174 0.0634759 0.0634701 0.0716236
43 1 Mg -0.203295 63.082 2.9296 1.2 1 0.0125268 0.011777 0.0164717 0.0312077 0.0177552 0.0344566 0.0270073 0.0477264 0.0493683 0.0623731 0.0434024 0.0447021 0.0501612 0.0594423 0.0570502 0.0873086 0.0748277 0.0869947 0.0661216 0.0647295
44 1 Mg -0.191456 60.4226 4.47463 1.2 1 0.0121323 0.0157093 0.0213933 0.0336565 0.0165308 0.0334853 0.0317901 0.0407897 0.0442145 0.0528744 0.056989 0.0636058 0.062795 0.0616054 0.0746484 0.0697878 0.0767731 0.0959985 0.0630167 0.0856938
45 2 Si 1.69936 62.2208 4.60655 2.4 1 0.00831021 0.0167175 0.0262741 0.0316733 0.0383552 0.0353446 0.0448733 0.0470504 0.0630441 0.0444057 0.0552888 0.0734231 0.0743996 0.0550823 0.0698453 0.0640157 0.0621445 0.0837098 0.0643415 0.0600454
46 3 O -1.37883 62.4227 4.47486 -1.2 1 0.0287247 0.0324946 0.0160048 0.0224807 0.033015 0.0355807 0.0259821 0.0768406 0.0413617 0.0681992 0.0429548 0.06798 0.0647364 0.070055 0.082078 0.0670017 0.0578541 0.0607241 0.0664405 0.0659477
47 3 O 0.670849 58.5509 4.47441 -1.2 1 0.0134065 0.020481 0.0265341 0.0234956 0.0183953 0.0351577 0.0429233 0.0485081 0.0540585 0.0421626 0.0544823 0.0439831 0.0567681 0.0735573 0.0972419 0.073106 0.069594 0.0574415 0.0710753 0.0614294
48 3 O 1.09473 61.6927 3.25772 -1.2 1 0.0137444 0.0134821 0.0242739 0.0191851 0.0344187 0.0244418 0.0409535 0.0463279 0.0452752 0.0504646 0.0505843 0.0422069 0.0692496 0.0645147 0.0872723 0.0758508 0.0684596 0.0617257 0.0635652 0.0721221
49 1 Mg -0.271635 63.3486 0.0904619 1.2 1 0.0141072 0.0251606 0.0139289 0.034631 0.015192 0.0319384 0.0262488 0.0590819 0.0265027 0.0750141 0.0168471 0.0505096 0.0227617 0.0768659 0.0364707 0.0987686 0.0455502 0.112216 0.0522161 0.0877686
50 3 O 1.01091 61.6051 5.85395 -1.2 1 0.00984374 0.0226841 0.0267265 0.0201157 0.0417836 0.0184014 0.0554357 0.0418825 0.0397207 0.044966 0.0633193 0.0346745 0.0578305 0.0538021 0.0921037 0.0776389 0.0708766 0.0678443 0.0591249 0.0692997
51 1 Mg -0.192168 66.3113 1.48487 1.2 1 0.0118586 0.0125063 0.0219057 0.036064 0.0183982 0.0319696 0.0330004 0.0291425 0.049518 0.054449 0.0602064 0.0612073 0.0608216 0.0656102 0.060696 0.0840391 0.0682245 0.0930124 0.0568351 0.0891528
52 2 Si -2.2164 64.4441 1.61425 2.4 1 0.0137609 0.0179747 0.0286408 0.0351127 0.0309126 0.0342114 0.0327437 0.0405715 0.0534188 0.0527774 0.0546277 0.0651246 0.0778804 0.0561013 0.0850257 0.0640194 0.0675512 0.0791171 0.0598548 0.0584812
53 3 O 0.987218 64.2357 1.60526 -1.2 1 0.0190025 0.0267388 0.0266125 0.0302723 0.0290789 0.0228956 0.0339898 0.0707369 0.0436472 0.0434012 0.0487532 0.0810838 0.0447767 0.0737488 0.0735792 0.0739861 0.0553228 0.0696686 0.0508943 0.0777411
54 3 O -1.04737 68.4271 1.38026 -1.2 1 0.00817835 0.0268007 0.0224131 0.0255905 0.0211005 0.0328124 0.0335803 0.0416757 0.0610897 0.0497717 0.0497882 0.0443523 0.0622271 0.0791392 0.0904235 0.0769048 0.0642953 0.061676 0.0724736 0.057158
55 3 O -1.53301 65.0956 0.298343 -1.2 1 0.0148931 0.0122873 0.0300012 0.0218829 0.0353364 0.0245571 0.0528998 0.0417482 0.0430041 0.0414579 0.0604937 0.0460315 0.0629792 0.0635358 0.0853228 0.0759644 0.0945063 0.055146 0.0660669 0.061283
56 3 O -1.63647 65.003 2.896 -1.2 1 0.0129319 0.0110771 0.0217524 0.026713 0.0303966 0.0223926 0.0478765 0.0482171 0.0367223 0.0471362 0.0570885 0.0511533 0.0492027 0.0676165 0.097197 0.0748506 0.0807318 0.0636076 0.0601987 0.0722161
57 1 Mg -2.43041 68.8305 -0.285412 1.2 1 0.0169426 0.0113213 0.0214581 0.0315316 0.020513 0.0353521 0.0142597 0.0562787 0.0270718 0.0755541 0.0316221 0.0545961 0.0300104 0.0732046 0.0343416 0.0906114 0.0544827 0.105857 0.0422993 0.0725643
58 1 Mg 2.28154 71.5836 1.34701 1.2 1 0.0246293 0.0187079 0.017526 0.0285543 0.0194346 0.0225504 0.0319076 0.034751 0.0531756 0.0604204 0.0603812 0.0554499 0.0632522 0.0673739 0.0552202 0.0832973 0.0697835 0.105549 0.0692903 0.0821406
59 2 Si -0.280852 69.8781 1.15791 2.4 1 0.023517 0.0220323 0.025065 0.0313727 0.032682 0.0321555 0.0353948 0.0401517 0.0536334 0.0704151 0.0592425 0.0567813 0.0697621 0.0517166 0.0947034 0.0651227 0.0599784 0.0724171 0.0695632 0.0683952
60 3 O 1.21904 69.8441 1.14582 -1.2 1 0.0145491 0.0146211 0.0287091 0.0147496 0.0292103 0.0331592 0.0213416 0.0735121 0.040405 0.0542893 0.0428193 0.0619092 0.0518208 0.0783924 0.0753335 0.06254 0.0661617 0.0633054 0.0626865 0.0580359
61 3 O -1.5791 73.8253 1.5082 -1.2 1 0.0164939 0.020394 0.0215913 0.0291727 0.0187259 0.0308874 0.039352 0.0482049 0.0683928 0.0389226 0.0527607 0.0480437 0.0608078 0.0712561 0.0982077 0.0596314 0.0664502 0.0641515 0.075855 0.0550506
62 3 O -1.00168 70.6315 -0.0398358 -1.2 1 0.00643287 0.0233054 0.0292846 0.0178431 0.022502 0.0170915 0.0454636 0.0509465 0.0381737 0.0568086 0.0634015 0.0409462 0.0569584 0.0709257 0.0695102 0.0803795 0.0784214 0.0683997 0.0586705 0.0672846
63 1 Mg -2.52057 79.4981 3.19806 1.2 1 0.0126312 0.0188648 0.00998741 0.0399894 0.0144831 0.0380325 0.0178173 0.0631596 0.0240183 0.0656976 0.0316284 0.0566518 0.0332824 0.0698392 0.0414117 0.111815 0.0507673 0.0957414 0.0507755 0.0768686
64 3 O -1.01216 70.628 2.54367 -1.2 1 0.0175335 0.0177777 0.0263397 0.0211388 0.0312117 0.0293873 0.0429245 0.0405678 0.0449884 0.0510398 0.0569717 0.0436129 0.0584341 0.0726301 0.0763713 0.0723539 0.0847937 0.0589847 0.0691553 0.0748671
65 1 Mg -2.71318 76.3683 4.56115 1.2 1 0.0257314 0.0213442 0.0238551 0.0271847 0.0243838 0.0347597 0.027767 0.0404686 0.0479741 0.0413466 0.0628561 0.0639975 0.0531801 0.0688315 0.0637483 0.0569491 0.0913283 0.0794823 0.0612649 0.0766536
66 2 Si 0.130073 78.4584 4.7517 2.4 1 0.0228638 0.0252629 0.0229936 0.0308932 0.0351083 0.0305318 0.0302111 0.0422229 0.0571596 0.0461618 0.0534197 0.0546762 0.0628189 0.0590746 0.0682828 0.0830813 0.0550014 0.0806766 0.0707204 0.0655666
67 3 O -1.32354 78.7192 4.50562 -1.2 1 0.0140926 0.0159169 0.0244257 0.0202792 0.0255638 0.0311115 0.0310157 0.0751331 0.0442296 0.0569858 0.0487639 0.0701712 0.0630806 0.0688857 0.0796506 0.0755258 0.0626481 0.0675387 0.0590981 0.072701
68 3 O 1.36573 74.485 4.35132 -1.2 1 0.0113244 0.0200288 0.00719672 0.0274273 0.0156337 0.0272991 0.0338778 0.0431439 0.0552193 0.0379972 0.0524345 0.0426348 0.063209 0.0745288 0.0856755 0.0652687 0.0773047 0.0619005 0.063594 0.0625168
69 3 O 0.762829 77.9062 3.36995 -1.2 1 0.00938768 0.00931032 0.0250156 0.023672 0.0383703 0.0293695 0.0510203 0.0424655 0.0405746 0.0436918 0.0563878 0.0503686 0.0553337 0.0669517 0.0800355 0.0901207 0.0725329 0.0516191 0.0648636 0.0585652
70 3 O 1.04552 77.7821 5.96407 -1.2 1 0.0184819 0.0185307 0.0264574 0.0216581 0.0224285 0.0154369 0.0415196 0.0417393 0.0380714 0.0491812 0.0682842 0.0373163 0.0552506 0.053671 0.0857379 0.086396 0.0720061 0.0712456 0.0608798 0.0718612
71 1 Mg -0.243934 73.7893 2.86374 1.2 1 0.0216423 0.0274437 0.0157391 0.0303512 0.0205497 0.0304332 0.0276183 0.0568411 0.052378 0.0607112 0.0482563 0.0497226 0.0429757 0.064253 0.0589824 0.0847635 0.0730585 0.0767544 0.060692 0.0640157
72 1 Mg -0.175097 70.9563 4.32871 1.2 1 0.0139302 0.0145469 0.0227359 0.0316612 0.0268597 0.0227725 0.0224046 0.0330091 0.0503532 0.0573141 0.0495457 0.07379 0.04848 0.0602328 0.074321 0.0505799 0.0928328 0.0846927 0.0656992 0.0628089
73 2 Si 2.03715 72.8169 4.39842 2.4 1 0.0336926 0.022679 0.026182 0.017624 0.0357614 0.0371423 0.0335269 0.04653 0.0560001 0.0612662 0.0445675 0.0665626 0.0565905 0.0697382 0.0595147 0.07897 0.0753596 0.0713935 0.0635839 0.0695973
74 3 O -1.27319 73.0241 4.34391 -1.2 1 0.0291397 0.0255728 0.019912 0.0174386 0.0325569 0.0296185 0.0276574 0.0841087 0.0373333 0.0679659 0.0382187 0.058801 0.061945 0.0693643 0.0767604 0.0605889 0.06134 0.0654476 0.0629706 0.0645937
75 3 O 0.755046 69.2245 4.13566 -1.2 1 0.00707646 0.0238821 0.0248113 0.0356015 0.0229526 0.0399099 0.0389739 0.0525292 0.0594702 0.0409787 0.0520551 0.0468974 0.0705621 0.0805979 0.0898835 0.0791759 0.0686415 0.0660803 0.0798712 0.0582622
76 3 O 1.44887 72.0902 3.22886 -1.2 1 0.0175611 0.0239003 0.026865 0.0215183 0.0196548 0.0309908 0.0414131 0.0472134 0.0478831 0.0546768 0.0528317 0.0394831 0.0547195 0.0662134 0.0695257 0.0780792 0.0641587 0.0672107 0.0611257 0.0643627
77 1 Mg -0.326498 74.5134 0.0774523 1.2 1 0.0168595 0.0263937 0.0166592 0.0313983 0.0316171 0.0330277 0.0275469 0.0553413 0.0401077 0.0719963 0.0464828 0.0440053 0.0360237 0.0660991 0.0527045 0.080879 0.071144 0.0902725 0.06683 0.0701816
78 3 O 1.2956 72.4211 5.74337 -1.2 1 0.00616002 0.0292479 0.0268695 0.0127825 0.0226659 0.0249391 0.0471461 0.0415915 0.0349847 0.0500263 0.0554476 0.0426847 0.0676789 0.0600681 0.0865897 0.0696612 0.0775117 0.0645965 0.0676069 0.0666388
79 1 Mg -0.186927 77.3935 1.78509 1.2 1 0.0168176 0.0118694 0.0206177 0.0216826 0.0212156 0.0336676 0.0262537 0.0415376 0.0479914 0.0543932 0.0612052 0.0591479 0.0654933 0.0654079 0.0896445 0.0540323 0.0749223 0.083298 0.0635061 0.068154
80 2 Si -2.35673 75.2967 1.60884 2.4 1 0.0158787 0.0146821 0.0150302 0.0199981 0.0325685 0.0344792 0.0399592 0.0487283 0.0545513 0.0622846 0.0613224 0.0607461 0.0651546 0.0526271 0.0693834 0.0852718 0.0632562 0.0911716 0.062219 0.0652187
81 3 O 0.849577 75.1926 1.50265 -1.2 1 0.00389014 0.0233083 0.0161427 0.0184634 0.0256419 0.0330622 0.0233672 0.0725693 0.0461741 0.0658974 0.0353396 0.0641808 0.0519995 0.07538 0.0717207 0.0660097 0.0642535 0.0605295 0.0594922 0.0576688
82 3 O -1.38225 79.2153 1.58302 -1.2 1 0.0181186 0.019761 0.0182275 0.0263703 0.0177029 0.026507 0.0468513 0.0437117 0.0527112 0.0363083 0.0500676 0.0517024 0.0559025 0.0737088 0.0929995 0.0704475 0.0841823 0.055799 0.0697102 0.050682
83 3 O -1.62481 75.9068 0.204635 -1.2 1 0.0154244 0.0189283 0.0217941 0.0257231 0.0321892 0.0285365 0.0477318 0.0510195 0.0445387 0.0465232 0.0612028 0.0511468 0.0566766 0.0808112 0.0824176 0.0780572 0.0645286 0.0647626 0.0660429 0.064212
84 3 O -1.5573 76.0994 2.85163 -1.2 1 0.0173456 0.0145031 0.0181101 0.019638 0.0332174 0.0233606 0.0460968 0.0426355 0.028274 0.0450176 0.0614535 0.0463907 0.0528486 0.0627368 0.066578 0.085455 0.0637691 0.0512716 0.0543853 0.0714305
85 1 Mg -2.70333 79.7066 0.0971131 1.2 1 0.0137306 0.0160028 0.0204131 0.0350212 0.0125032 0.0417993 0.0263527 0.0551102 0.0239816 0.0755322 0.0224007 0.0520463 0.032076 0.0666337 0.0362386 0.100794 0.0389724 0.110414 0.0528616 0.0863184
86 1 Mg 2.02308 82.9091 1.79391 1.2 1 0.0114182 0.00515457 0.0157732 0.0294867 0.0182134 0.026745 0.031611 0.0412146 0.0377725 0.0560504 0.0479318 0.0669798 0.0566429 0.0577072 0.0745056 0.0591276 0.0906988 0.0865954 0.0756087 0.0596854
87 2 Si -0.754876 80.726 1.76042 2.4 1 0.013231 0.0203156 0.020884 0.0219835 0.0353402 0.0399355 0.0378777 0.0508861 0.0614939 0.0366907 0.0497148 0.0648684 0.0750942 0.0619319 0.078259 0.0769018 0.0701897 0.0821619 0.0581219 0.0584369
88 3 O 0.838703 80.552 1.5722 -1.2 1 0.0246661 0.0246135 0.016882 0.0142999 0.027057 0.0373238 0.0350063 0.0717922 0.054112 0.0526376 0.0539122 0.0728765 0.0600245 0.0727362 0.0779635 0.0744902 0.0518066 0.074041 0.0611289 0.0821494
89 3 O -1.61904 84.6465 1.67572 -1.2 1 0.0150407 0.018383 0.0234776 0.021945 0.0178604 0.0384998 0.0394847 0.0391778 0.0584255 0.0402422 0.0530811 0.0404974 0.0498465 0.0751246 0.102718 0.0701676 0.0701612 0.0521483 0.0728836 0.0656789
90 3 O -1.53033 81.583 0.44846 -1.2 1 0.0220147 0.0302498 0.0249494 0.0299408 0.0321457 0.0277807 0.0434387 0.0379901 0.0351408 0.0554144 0.0617146 0.0441172 0.0623235 0.061187 0.0826775 0.0837677 0.0678244 0.0699053 0.0654487 0.0650874
91 1 Mg -2.62871 90.3649 3.14335 1.2 1 0.0118857 0.0145183 0.00932721 0.0334383 0.0149681 0.034417 0.0169327 0.063946 0.0160379 0.0787876 0.0273756 0.0470525 0.018387 0.0685888 0.0292797 0.107093 0.0323517 0.107404 0.0347112 0.0850951
92 3 O -1.13797 81.4327 3.05707 -1.2 1 0.015054 0.0197651 0.0301015 0.0238698 0.0307519 0.0237985 0.0430367 0.0434319 0.0466204 0.0492762 0.0616381 0.0432443 0.0527408 0.0690782 0.0816289 0.0791656 0.0730467 0.0641165 0.0594259 0.0670866
93 1 Mg -2.29606 87.5437 4.54445 1.2 1 0.012552 0.0183497 0.0206748 0.0336015 0.0259271 0.0366694 0.0312404 0.0389181 0.0452332 0.0594664 0.0644002 0.0557065 0.0606099 0.06882 0.0616617 0.0853449 0.0620114 0.0924365 0.0696482 0.0702713
94 2 Si 0.167305 89.4316 4.7874 2.4 1 0.0232529 0.022259 0.015563 0.0294872 0.0402599 0.0404012 0.0506317 0.0393502 0.0575031 0.0604232 0.0512339 0.0689372 0.0747952 0.0607483 0.0854294 0.0585491 0.0578246 0.0858527 0.0643927 0.0635461
95 3 O -1.44525 89.4298 4.68178 -1.2 1 0.0190576 0.0378856 0.0171736 0.0230117 0.0326731 0.0313225 0.0297326 0.0753658 0.0452755 0.0555093 0.0359514 0.0698111 0.0561962 0.0814739 0.0715618 0.0676825 0.0567054 0.0845163 0.0526965 0.0665251
96 3 O 1.3145 85.7465 4.46926 -1.2 1 0.017819 0.0205634 0.0148667 0.0312212 0.028 0.0401838 0.0356269 0.0437836 0.0537156 0.0495325 0.0440568 0.0432334 0.0645512 0.0674567 0.095205 0.0734319 0.0776324 0.0710883 0.0577356 0.064527
97 3 O 0.658796 88.9106 3.39498 -1.2 1 0.0251066 0.029669 0.0277418 0.021272 0.0334632 0.0227876 0.0575638 0.0447022 0.0527424 0.0459014 0.0437351 0.0605626 0.0556199 0.0740503 0.0712318 0.0746166 0.0809018 0.0656892 0.0669693 0.0713743
98 3 O 0.796944 88.6223 5.87774 -1.2 1 0.0157992 0.0174197 0.0199325 0.0236869 0.0315939 0.0251278 0.0483341 0.0459158 0.037642 0.0491676 0.0577125 0.0312543 0.0555994 0.0755715 0.0835564 0.0773058 0.0744746 0.0718152 0.0613144 0.0631759
99 1 Mg -0.0322485 85.1142 3.23918 1.2 1 0.0163175 0.0231372 0.017728 0.0410318 0.0178876 0.0357367 0.0237817 0.0548656 0.0242246 0.0746974 0.028433 0.0502612 0.0369316 0.0693963 0.0322346 0.100483 0.050913 0.107112 0.0535581 0.0792557
100 1 Mg 0.0586195 82.0718 4.58274 1.2 1 0.0267207 0.0206329 0.0210136 0.0331838 0.0203416 0.0350947 0.029462 0.038416 0.0560315 0.0502296 0.065057 0.0571065 0.0563961 0.0681278 0.0615772 0.0676166 0.0662983 0.0976874 0.0666004 0.0809727
101 2 Si 1.9605 84.2688 4.64728 2.4 1 0.0140257 0.0123817 0.0202161 0.0290804 0.0269109 0.0385368 0.0411619 0.0390205 0.0551853 0.0610102 0.0443587 0.0626664 0.0619782 0.0660723 0.0746807 0.0534514 0.0702202 0.0828796 0.0557863 0.0660127
102 3 O -1.1862 84.3673 4.63212 -1.2 1 0.0265505 0.0193027 0.015174 0.0237011 0.0255257 0.031668 0.0256434 0.0662399 0.038435 0.0539557 0.040925 0.0695979 0.0458476 0.0664251 0.0660684 0.0779829 0.0730129 0.0707693 0.0481699 0.0790836
103 3 O 0.955966 80.0316 4.54989 -1.2 1 0.012906 0.0121186 0.0130184 0.0263126 0.0169042 0.0339353 0.0457882 0.0416768 0.0541089 0.0389524 0.0537245 0.0466474 0.0637457 0.075047 0.0918895 0.0564264 0.0845217 0.0467105 0.0755779 0.0536704
104 3 O 1.22486 83.4132 3.46417 -1.2 1 0.0144917 0.00837106 0.0246102 0.0196346 0.0304228 0.0287911 0.0485028 0.0471185 0.0311285 0.0382743 0.0647149 0.0393281 0.0430998 0.0692308 0.0746105 0.0691977 0.0797346 0.0640673 0.0704756 0.0638793
105 1 Mg -0.595044 84.7975 0.105283 1.2 1 0.0266815 0.0139782 0.0186832 0.0315313 0.0154707 0.0366468 0.031341 0.053357 0.0339497 0.0707221 0.039056 0.0480601 0.0405511 0.0602777 0.0521472 0.0894144 0.0619515 0.0836248 0.0745918 0.0617031
106 3 O 1.37012 83.5654 5.95867 -1.2 1 0.0270092 0.0187339 0.0229311 0.0174625 0.0393546 0.030844 0.0504466 0.0496071 0.0413304 0.0453117 0.047744 0.0543554 0.0547365 0.0732366 0.0779106 0.0784196 0.0837926 0.0686646 0.066256 0.0689194
107 1 Mg -0.219275 88.039 1.72537 1.2 1 0.0108831 0.0063283 0.0220971 0.0294427 0.0184139 0.0281681 0.0270419 0.0351949 0.0459281 0.0598072 0.0567611 0.0572688 0.0622368 0.069549 0.0699974 0.0720228 0.0738756 0.0987258 0.0705262 0.0756242
108 2 Si -2.45927 86.0873 1.67696 2.4 1 0.0341856 0.0131017 0.0222438 0.0236181 0.0316212 0.0277714 0.0391108 0.0350718 0.0458099 0.0609281 0.062157 0.0632408 0.0656427 0.0622594 0.0814741 0.0745497 0.0690672 0.0887749 0.060415 0.0599361
109 3 O 0.811062 86.0971 1.72108 -1.2 1 0.0266034 0.0248562 0.0242203 0.0202128 0.027302 0.0267307 0.0253618 0.0817426 0.0348795 0.066192 0.0419765 0.0685954 0.0632459 0.0711315 0.0705767 0.0653873 0.0558197 0.0651601 0.0686353 0.069817
110 3 O -1.19632 89.9083 1.69062 -1.2 1 0.0148452 0.0179388 0.0253469 0.0278911 0.0216334 0.0403489 0.0347824 0.0466875 0.0533319 0.0419257 0.0444661 0.0466989 0.0594118 0.0662487 0.102014 0.0755978 0.0694855 0.0624263 0.078591 0.0525787
111 3 O -1.67902 86.5959 0.283382 -1.2 1 0.0163981 0.0156925 0.03088 0.0251947 0.0328583 0.0268259 0.0550392 0.0465633 0.0334551 0.0443416 0.0556853 0.0441287 0.0527573 0.070262 0.0791499 0.0771391 0.0743877 0.0516701 0.0609727 0.0751033
112 3 O -1.57376 86.8738 2.93809 -1.2 1 0.00927919 0.0218521 0.0227877 0.0164167 0.0265683 0.0251302 0.0491352 0.037405 0.0393897 0.0511663 0.0580368 0.0450714 0.0641059 0.0675526 0.0788759 0.0808967 0.0762729 0.068464 0.0707882 0.0598435
113 1 Mg -2.66419 90.3531 -0.0415889 1.2 1 0.00739074 0.0232056 0.0192684 0.0335752 0.0137521 0.0411955 0.0248686 0.0563458 0.0235852 0.0684589 0.0358749 0.0595287 0.0302055 0.0594404 0.0339667 0.10052 0.052639 0.0972817 0.0501574 0.0770661
114 1 Mg 2.31886 93.2142 1.6227 1.2 1 0.0218131 0.0137253 0.0217495 0.0277014 0.0177693 0.0296435 0.0259089 0.0357791 0.0508983 0.0607456 0.0614019 0.0517964 0.0565179 0.0664229 0.0646398 0.0768927 0.0704391 0.0989367 0.0628724 0.0916567
115 2 Si -0.600864 91.2726 1.59763 2.4 1 0.0177979 0.00642601 0.0202529 0.0345057 0.0374691 0.0362711 0.0417577 0.0389916 0.0603129 0.0510768 0.0478271 0.0716453 0.0748519 0.0555083 0.0742919 0.067861 0.0628423 0.0863724 0.0631211 0.0543233
116 3 O 1.0528 91.1435 1.5961 -1.2 1 0.0276519 0.0165441 0.0163856 0.0195944 0.0273812 0.0318743 0.032652 0.0625546 0.0354045 0.0543283 0.0415465 0.0712433 0.0484962 0.0655859 0.0871915 0.0718054 0.0702573 0.0706744 0.0563091 0.0677529
117 3 O -1.63081 95.1787 1.94836 -1.2 1 0.00911327 0.0267333 0.0221296 0.0291044 0.0256246 0.033069 0.0357691 0.0459635 0.0600184 0.0469322 0.0574131 0.046187 0.0625931 0.0756987 0.086047 0.0793038 0.0607827 0.0632176 0.0777045 0.0576634
118 3 O -1.07298 91.905 0.205757 -1.2 1 0.0125673 0.0184674 0.028312 0.0208793 0.0305058 0.0260304 0.0466072 0.043304 0.0371077 0.0552624 0.0517772 0.0435848 0.0664727 0.0696516 0.0824134 0.0779608 0.079836 0.0731513 0.0559002 0.0757237
119 1 Mg -2.49407 101.248 3.19541 1.2 1 0.00728413 0.0268685 0.0129189 0.0329659 0.0169972 0.0403026 0.0159771 0.0633477 0.0276899 0.0717319 0.0269245 0.0529342 0.0297325 0.0719521 0.038809 0.102164 0.035858 0.113908 0.0495644 0.0785367
120 3 O -1.18005 92.1344 2.82298 -1.2 1 0.007532 0.00730107 0.0319344 0.0199298 0.0312479 0.0256401 0.047763 0.0489363 0.0392049 0.0392602 0.0576739 0.0408329 0.0597731 0.0654412 0.0820084 0.07473 0.0750292 0.0721409 0.0628026 0.0677889
121 1 Mg -2.46656 97.957 4.65365 1.2 1 0.0119411 0.00886248 0.0211567 0.0360713 0.0244426 0.0308869 0.0280219 0.0367934 0.0494782 0.0528253 0.0527956 0.064746 0.0665607 0.0681976 0.0732734 0.063756 0.0857729 0.084538 0.064611 0.0725707
122 2 Si 0.260901 100.054 4.51097 2.4 1 0.0119004 0.017932 0.0293255 0.0359033 0.0366293 0.0294578 0.0380761 0.0464102 0.0530996 0.0536583 0.0610167 0.0651704 0.0806616 0.0538557 0.0734405 0.0616689 0.0693468 0.0883235 0.0628097 0.0606087
123 3 O -1.26596 100.334 4.64399 -1.2 1 0.00944511 0.0225331 0.02093 0.017717 0.025168 0.027922 0.0350001 0.0688632 0.0475196 0.051776 0.0564743 0.0727067 0.0492296 0.0690545 0.0767892 0.0774654 0.0577215 0.0838313 0.0548491 0.0917464
124 3 O 1.43321 96.0413 4.37327 -1.2 1 0.0155893 0.0201863 0.0138642 0.0303032 0.0210144 0.0386636 0.0384082 0.0424066 0.0598459 0.0343416 0.0421836 0.0368969 0.0742402 0.0670929 0.0846753 0.0815521 0.064863 0.0627964 0.0615892 0.0661258
125 3 O 0.794528 99.486 3.16956 -1.2 1 0.0127043 0.0108047 0.0230736 0.0256956 0.0263051 0.0265935 0.0421987 0.0486498 0.0499813 0.0539512 0.0574191 0.0452628 0.0567527 0.0648249 0.0850649 0.0748812 0.0763251 0.0652288 0.0631375 0.070491