ITEM: TIMESTEP
48600
ITEM: NUMBER OF ATOMS
5600
ITEM: BOX BOUNDS xy xz yz pp pp pp
0	7.1235	0
0	201.985	2.3745
0	119.584	0
ITEM: ATOMS id type element xu yu zu q Q_1 Q_2 Q_3 Q_4 Q_5 Q_6 Q_7 Q_8 Q_9 Q_10 Q_11 Q_12 Q_13 Q_14 Q_15 Q_16 Q_17 Q_18 Q_19 Q_20 Q_21
1 1 Mg -1.83895 48.9429 -0.656536 1.2 1 0.425164 0.0824283 0.117598 0.0528408 0.0657614 0.0458724 0.0378444 0.0441379 0.0619133 0.0714239 0.0909911 0.0738025 0.105189 0.0885838 0.0968406 0.117171 0.0970406 0.0888678 0.0770273 0.0808505
2 1 Mg 2.98563 50.175 2.55128 1.2 1 0.299314 0.121088 0.0466563 0.0560713 0.0420545 0.0484721 0.0476542 0.0544538 0.062042 0.0699287 0.074039 0.0489241 0.0818048 0.0781809 0.0959493 0.0971348 0.092432 0.0680967 0.092231 0.0856203
3 2 Si 0.569554 50.7045 0.452061 2.4 1 0.255336 0.128324 0.0399969 0.0466938 0.0430968 0.0305933 0.0529289 0.0495259 0.0701162 0.0689686 0.0766305 0.0541169 0.0685239 0.0654937 0.0796583 0.0748422 0.0769767 0.0756255 0.0914156 0.091788
4 3 O 1.70001 49.6206 1.02788 -1.2 1 0.364582 0.101826 0.0677681 0.0650597 0.0414635 0.0570708 0.0552804 0.069148 0.0581429 0.0783823 0.0809445 0.049556 0.0808556 0.0752133 0.0903537 0.082218 0.0858176 0.0851505 0.0859227 0.0823359
5 3 O -1.51942 53.4724 1.59137 -1.2 1 0.0693275 0.0522259 0.0511546 0.022697 0.0283848 0.0333168 0.0328122 0.0479373 0.0714786 0.0504233 0.0528361 0.0603497 0.0768939 0.0649644 0.0893476 0.0595963 0.077142 0.0601518 0.0602914 0.0689072
6 3 O -0.184929 49.7786 -0.614405 -1.2 1 0.354851 0.106148 0.0569039 0.0726291 0.0260184 0.0690021 0.0441279 0.0688298 0.0681226 0.0762628 0.0813377 0.0832969 0.0642387 0.0950051 0.0906375 0.0841694 0.0812026 0.0729232 0.0867486 0.0769106
7 1 Mg -2.83634 59.1153 3.09991 1.2 1 0.018085 0.0157916 0.0130603 0.0279587 0.00999917 0.0357796 0.0216645 0.0530874 0.0342463 0.0770808 0.0343309 0.0425294 0.0383412 0.0601057 0.0371013 0.0967717 0.0555609 0.104036 0.0570522 0.0849982
8 3 O -0.203567 50.8977 1.67132 -1.2 1 0.24456 0.123137 0.0408718 0.0403619 0.0300312 0.031497 0.0594483 0.0479932 0.0832666 0.0727025 0.0634233 0.068428 0.0578024 0.0651415 0.0925969 0.0711213 0.0841088 0.0706292 0.0756807 0.0874274
9 1 Mg -2.74973 56.0263 4.67893 1.2 1 0.021838 0.0224546 0.0216848 0.0299605 0.0200229 0.0261325 0.021328 0.0347481 0.0528875 0.0551514 0.056128 0.0655871 0.0492636 0.070803 0.0568581 0.0619334 0.0798147 0.0859865 0.0630952 0.078284
10 2 Si -0.0530863 58.2007 4.87403 2.4 1 0.0290542 0.0191127 0.0212418 0.0251556 0.0265056 0.0310782 0.0300256 0.0374847 0.0520852 0.0667693 0.0615168 0.0568277 0.0667694 0.0429966 0.0815505 0.0560442 0.0828061 0.0606088 0.0705492 0.0654325
11 3 O -1.60377 58.4118 4.8964 -1.2 1 0.031633 0.018785 0.0159945 0.0249094 0.0180972 0.0274267 0.0314006 0.068474 0.046827 0.0520509 0.0401214 0.0703319 0.0508926 0.0652786 0.0663237 0.0726016 0.0685961 0.0750486 0.0728668 0.0732363
12 3 O 1.43095 53.6647 4.56996 -1.2 1 0.0655944 0.0337954 0.0433104 0.034183 0.0348199 0.0260714 0.0327306 0.0360884 0.0627318 0.059233 0.0832 0.0420542 0.0566699 0.0754063 0.0975553 0.0699649 0.0721557 0.0674875 0.0661459 0.0593325
13 3 O 0.591668 57.4267 3.59671 -1.2 1 0.0156749 0.0160712 0.0242783 0.0224062 0.021581 0.0346411 0.0390408 0.0457231 0.0370391 0.0526598 0.0532819 0.0380882 0.0543078 0.0853614 0.0702961 0.0746902 0.0817877 0.0605965 0.0828925 0.0606525
14 3 O 0.67424 57.482 6.13527 -1.2 1 0.0286155 0.0196406 0.0335547 0.0199668 0.0218527 0.0344739 0.0504215 0.0454346 0.0462737 0.0428264 0.0675427 0.0444816 0.0536729 0.0611625 0.0788627 0.076028 0.0800855 0.0555285 0.0651823 0.0690044
15 1 Mg 0.354898 53.0895 2.82053 1.2 1 0.084471 0.0715307 0.0324363 0.0202145 0.0251458 0.0272055 0.0403022 0.0407292 0.0587013 0.0400324 0.0742762 0.0622807 0.052861 0.0588209 0.0589493 0.0836273 0.0853785 0.0757732 0.0711204 0.0593261
16 1 Mg 0.745849 49.2484 2.83898 1.2 1 0.399972 0.081508 0.0769308 0.0594419 0.0383573 0.0638326 0.0501261 0.0636528 0.0802588 0.0814946 0.0635654 0.0776853 0.0743359 0.0696911 0.0859622 0.108835 0.0849618 0.0730772 0.0910559 0.0928837
17 2 Si 2.20273 52.3306 4.57762 2.4 1 0.104261 0.095855 0.0491375 0.0322585 0.0291412 0.0362305 0.0337773 0.0484707 0.0697651 0.0605608 0.0735699 0.0582039 0.0809685 0.0694309 0.0680974 0.0911607 0.0726464 0.0852452 0.0685416 0.0684268
18 3 O -1.0031 52.6185 4.56001 -1.2 1 0.0983655 0.0918545 0.0322316 0.0188374 0.018997 0.0472393 0.0359955 0.0618623 0.0644659 0.0832463 0.0508889 0.0763826 0.0727084 0.0671487 0.0782457 0.0802344 0.0786225 0.0704848 0.0911556 0.052544
19 3 O 2.49172 48.3384 3.07964 -1.2 1 0.483494 0.0398688 0.122667 0.0473811 0.105584 0.057802 0.0660391 0.0703509 0.0877949 0.0808808 0.0891993 0.0807658 0.0813748 0.0885728 0.0831269 0.103845 0.096502 0.10107 0.107694 0.0875325
20 3 O 1.86466 51.6276 3.20701 -1.2 1 0.175886 0.0988003 0.0282427 0.0259786 0.0393969 0.0568981 0.0359117 0.0601558 0.0600153 0.0526723 0.0585368 0.070517 0.0830433 0.0722984 0.0806142 0.0679804 0.0787415 0.0717802 0.0740833 0.0857696
21 1 Mg -0.362084 54.0033 0.103125 1.2 1 0.0563192 0.0472479 0.0399795 0.0277464 0.0154599 0.0284891 0.033627 0.0565329 0.0525112 0.0679896 0.0444101 0.070193 0.0557682 0.0596103 0.0707681 0.0810467 0.0753156 0.0769298 0.0680588 0.0748554
22 3 O 1.75702 51.1784 5.67013 -1.2 1 0.205239 0.114091 0.034681 0.0379159 0.0431009 0.0305992 0.0503017 0.0550776 0.0698013 0.0627939 0.0734709 0.0762546 0.0664653 0.0770118 0.0706656 0.0688658 0.0740946 0.0747109 0.0604097 0.0796289
23 1 Mg -0.0677059 56.8272 1.85238 1.2 1 0.015035 0.0164058 0.0205769 0.0228783 0.0158008 0.0279762 0.0294355 0.0371894 0.0387753 0.0526273 0.0612818 0.0610761 0.0549731 0.0625637 0.0643928 0.0648568 0.075756 0.0767184 0.0719406 0.0628354
24 2 Si -2.18655 54.9294 1.63046 2.4 1 0.0232529 0.0199406 0.0309422 0.0264964 0.0193122 0.0328759 0.0486795 0.0597261 0.0555338 0.0600909 0.0639667 0.0632991 0.0689047 0.0491871 0.0607232 0.0691124 0.0758797 0.078365 0.0662558 0.0619275
25 3 O 0.929268 54.8473 1.70391 -1.2 1 0.0150851 0.0210201 0.0274027 0.0212596 0.0176662 0.0278666 0.0257429 0.061109 0.0485249 0.058711 0.0504614 0.0573883 0.0568668 0.0707801 0.0656688 0.0536077 0.0702694 0.0655682 0.0728682 0.0629393
26 3 O -1.11049 58.6193 1.65051 -1.2 1 0.0123949 0.0220663 0.0227548 0.0233679 0.0156322 0.0337952 0.0421987 0.0487031 0.0646876 0.0386141 0.0490217 0.0480493 0.056675 0.0779846 0.0904965 0.0792211 0.0635156 0.0575583 0.0718547 0.060068
27 3 O -1.46684 55.553 0.340217 -1.2 1 0.0134896 0.0139336 0.0223364 0.0275397 0.0198637 0.0393424 0.049208 0.0446201 0.0293144 0.0434655 0.0724822 0.0423322 0.0595757 0.0580146 0.0795898 0.0691413 0.0658415 0.0670731 0.0720283 0.0733246
28 3 O -1.85238 55.9061 2.88472 -1.2 1 0.0173353 0.0200848 0.0190264 0.0161017 0.0237445 0.0271578 0.0329633 0.0374826 0.050773 0.0611953 0.0475302 0.0605064 0.0615058 0.0571985 0.0685372 0.0677602 0.0672603 0.0656747 0.081114 0.0691322
29 1 Mg -2.50449 58.8475 0.0777598 1.2 1 0.0101604 0.0240182 0.0112669 0.0344086 0.0157164 0.0401746 0.0164236 0.0631881 0.0253391 0.0718163 0.0313338 0.0486134 0.0290618 0.0610193 0.0389947 0.106568 0.0523295 0.0977691 0.0527559 0.0836511
30 1 Mg 2.01873 61.8235 1.61118 1.2 1 0.0267965 0.015099 0.0182656 0.0299964 0.0188775 0.0260997 0.0237434 0.0362688 0.0394192 0.0631345 0.0627573 0.0506695 0.0651821 0.0719841 0.0682681 0.0837992 0.0604147 0.100146 0.0762162 0.0818364
31 2 Si -0.513236 60.095 1.61296 2.4 1 0.0178972 0.0156793 0.0232343 0.0338334 0.0329614 0.0304282 0.0424918 0.0439292 0.0488319 0.059772 0.0560173 0.0678488 0.0733656 0.0575396 0.082393 0.0687745 0.0585504 0.0941258 0.0698292 0.0697695
32 3 O 1.03595 59.958 1.52794 -1.2 1 0.0302939 0.0238833 0.0243013 0.0237353 0.0218483 0.0254759 0.0233639 0.0735917 0.034786 0.0546544 0.0515532 0.0694789 0.0502235 0.0708735 0.0762943 0.0640636 0.0510434 0.0729939 0.0640129 0.0790432
33 3 O -1.69839 63.7389 1.53907 -1.2 1 0.0185795 0.0153671 0.0216464 0.028199 0.0212308 0.0304234 0.0338301 0.0430765 0.0519328 0.0497309 0.0490271 0.0461498 0.058322 0.0721493 0.102017 0.0730519 0.063868 0.0505358 0.0708379 0.0631947
34 3 O -1.27554 60.6914 0.271211 -1.2 1 0.00706978 0.0176034 0.0402098 0.0234726 0.0198996 0.0153579 0.0456353 0.04052 0.0341796 0.0454568 0.0559703 0.0352112 0.0609845 0.0579163 0.088856 0.0674054 0.0725626 0.0695322 0.0581143 0.0732632
35 1 Mg -2.60487 69.6552 2.98583 1.2 1 0.00626482 0.0111844 0.0110522 0.0348856 0.00929898 0.0352059 0.0201981 0.0547627 0.0271685 0.0751419 0.0328672 0.0478601 0.0330461 0.0634827 0.039446 0.092847 0.0510007 0.110122 0.0509161 0.0780987
36 3 O -1.25373 60.8484 2.85162 -1.2 1 0.0251366 0.0238621 0.0264974 0.0145059 0.0237324 0.0215891 0.0353902 0.0411795 0.0391043 0.0570799 0.054789 0.0470689 0.0577979 0.0623508 0.0764719 0.066021 0.0761479 0.0765918 0.0780932 0.0574109
37 1 Mg -2.40417 66.4714 4.53588 1.2 1 0.0207174 0.0119459 0.0145178 0.0332641 0.0159949 0.0262295 0.0334742 0.0379497 0.0409351 0.059612 0.0648945 0.0617634 0.0621562 0.0671324 0.0745032 0.0731801 0.0702006 0.0929506 0.0824974 0.0688987
38 2 Si 0.174813 68.4302 4.44229 2.4 1 0.0231238 0.0143252 0.0177737 0.0308171 0.0301865 0.0318007 0.0434896 0.0369926 0.0492732 0.0503075 0.0515458 0.0650553 0.0662938 0.0601995 0.0703959 0.0690423 0.0639962 0.0994553 0.0492447 0.0575242
39 3 O -1.35427 68.4868 4.64546 -1.2 1 0.0244995 0.0102115 0.0154215 0.0241631 0.0277339 0.0236265 0.0237692 0.0691281 0.039254 0.0566036 0.0481564 0.0691967 0.0597101 0.0614825 0.07055 0.0641483 0.0664384 0.0747608 0.0657226 0.0690361
40 3 O 1.26168 64.6641 4.53423 -1.2 1 0.0152022 0.0134169 0.0214676 0.0176303 0.0176644 0.0326047 0.037022 0.0425821 0.0571496 0.039879 0.0467874 0.0437617 0.0589945 0.0669471 0.100289 0.0837593 0.0634772 0.0482868 0.0734072 0.0628076
41 3 O 0.871331 67.8837 3.11992 -1.2 1 0.0158391 0.0107296 0.0277828 0.0254971 0.0309125 0.0250553 0.0518373 0.0480551 0.0422773 0.0432205 0.0522914 0.0444241 0.0527924 0.0694332 0.088972 0.0707769 0.0761138 0.0657355 0.0605448 0.071516
42 3 O 0.90092 67.8214 5.73596 -1.2 1 0.00581692 0.0203443 0.0257196 0.0244903 0.0248926 0.0217239 0.0476711 0.0435961 0.0319056 0.0450909 0.0468658 0.0431483 0.0536644 0.0692527 0.0817396 0.0667544 0.084276 0.0627172 0.0649844 0.06449
43 1 Mg -0.181971 64.1772 3.06781 1.2 1 0.00874467 0.0170557 0.0156308 0.0266515 0.0105166 0.0339581 0.0125336 0.0581818 0.014624 0.0860196 0.0216711 0.0514214 0.021505 0.0707278 0.0214053 0.104838 0.0311844 0.11263 0.0331839 0.0874362
44 1 Mg -0.300244 61.4492 4.68689 1.2 1 0.0134667 0.024894 0.0194614 0.0325625 0.019607 0.0215055 0.0272059 0.0303188 0.0445815 0.0617442 0.0540285 0.0531917 0.0599686 0.0682045 0.0599945 0.0853579 0.064563 0.0963557 0.0684598 0.0765989
45 2 Si 1.85807 63.0678 4.4733 2.4 1 0.0264477 0.0191697 0.0156253 0.027871 0.0284513 0.0326264 0.0349978 0.0470535 0.0487671 0.0603866 0.057294 0.0695734 0.0657008 0.0601327 0.0702193 0.0870908 0.0599901 0.080171 0.0724081 0.0549808
46 3 O -1.37182 63.2237 4.62252 -1.2 1 0.0238732 0.0250801 0.0225091 0.024277 0.0154893 0.0227795 0.022738 0.0766323 0.0355779 0.0609167 0.0352381 0.0737422 0.0585536 0.0705826 0.0702957 0.0633379 0.0635404 0.0782448 0.0626426 0.0608884
47 3 O 0.683534 59.6477 4.58562 -1.2 1 0.0298319 0.0231357 0.0298016 0.0181268 0.0215639 0.037875 0.0360763 0.04959 0.0563592 0.0440124 0.0470328 0.0503206 0.0492083 0.0712093 0.0998702 0.067764 0.0690423 0.0573013 0.0587234 0.0700492
48 3 O 1.13038 62.3146 3.24008 -1.2 1 0.0135727 0.0183658 0.0218091 0.0221449 0.021492 0.0279042 0.0341646 0.045958 0.0462106 0.0664588 0.0515649 0.0361459 0.0624841 0.0599208 0.0713671 0.0745861 0.0719092 0.0646007 0.061592 0.0617707
49 1 Mg -0.1737 64.0751 0.119959 1.2 1 0.0130202 0.0191435 0.0183216 0.0302357 0.0173513 0.0306822 0.0212376 0.0508608 0.0192676 0.0802912 0.0237071 0.0511068 0.0258382 0.0690676 0.0362082 0.105503 0.044102 0.109655 0.0465035 0.0897905
50 3 O 1.10058 62.6728 5.91981 -1.2 1 0.023842 0.013845 0.0289683 0.0158132 0.0216128 0.0202537 0.0476161 0.0434479 0.0364194 0.0420787 0.0582571 0.0348864 0.052942 0.0566677 0.0955802 0.0635034 0.0760099 0.0623068 0.0703838 0.0623626
51 1 Mg -0.370349 66.9845 1.47107 1.2 1 0.0131236 0.0148407 0.0177928 0.0346619 0.0176893 0.0319719 0.0307297 0.0377267 0.0594083 0.0549078 0.0540453 0.0569566 0.0634463 0.0621464 0.0663328 0.0759061 0.0593438 0.107586 0.0707638 0.0844683
52 2 Si -2.33656 65.2494 1.58645 2.4 1 0.010926 0.021203 0.0168795 0.0257493 0.0359386 0.0301725 0.0396787 0.0370189 0.0506125 0.0621251 0.055364 0.0654405 0.0661176 0.0634818 0.0782315 0.0715362 0.0687463 0.0878732 0.0606171 0.0606151
53 3 O 0.879098 65.0006 1.7182 -1.2 1 0.0212856 0.0181754 0.022294 0.0138067 0.0190786 0.0275546 0.0239442 0.0583399 0.0475875 0.0519715 0.0430019 0.0675067 0.0466662 0.0669636 0.0700475 0.0724986 0.065154 0.0745736 0.0517683 0.0762062
54 3 O -1.28379 68.9591 1.58379 -1.2 1 0.00850998 0.0223772 0.0198884 0.0132547 0.0195701 0.0368073 0.0376876 0.0460485 0.0512071 0.0448559 0.0403921 0.0522563 0.052147 0.0617916 0.0999862 0.0681047 0.074363 0.0598865 0.0632666 0.0550388
55 3 O -1.69264 65.8977 0.288236 -1.2 1 0.0215926 0.00690478 0.0226075 0.0233662 0.0290829 0.0288069 0.0513407 0.0461742 0.0382982 0.0468416 0.0516565 0.0409771 0.0488616 0.0816964 0.070489 0.0767533 0.0791697 0.0572589 0.063416 0.0712853
56 3 O -1.47325 65.8655 2.80841 -1.2 1 0.0146876 0.0140044 0.0290985 0.0195579 0.0191504 0.0244091 0.0415874 0.0442291 0.0312052 0.0444343 0.0535729 0.0398608 0.0470554 0.0594018 0.0924769 0.0691942 0.0789938 0.0676355 0.0732015 0.0637989
57 1 Mg -2.62116 69.4784 0.00812736 1.2 1 0.0147415 0.0184443 0.00703132 0.0277772 0.0106046 0.0376416 0.0133286 0.0628063 0.0133513 0.0818963 0.0216449 0.0544751 0.0184155 0.073319 0.0202672 0.102407 0.0271734 0.107819 0.0317596 0.0958912
58 1 Mg 2.07936 72.4729 1.59472 1.2 1 0.0239748 0.00860181 0.0173971 0.028882 0.0202518 0.0245772 0.0276859 0.0356685 0.041131 0.0590588 0.0553158 0.0617135 0.0585189 0.0623393 0.0716492 0.0722159 0.0757767 0.0907479 0.0697352 0.077535
59 2 Si -0.541527 70.3676 1.33087 2.4 1 0.023523 0.0110215 0.0218555 0.0317459 0.034854 0.0367286 0.0416858 0.0380301 0.0564294 0.0553442 0.0492 0.0560814 0.0720995 0.0525355 0.0813095 0.0635771 0.0713371 0.0877499 0.0635043 0.0646119
60 3 O 1.00665 70.3055 1.45836 -1.2 1 0.0226027 0.00745224 0.0216565 0.0213918 0.0243863 0.0324856 0.0303535 0.0696365 0.0433646 0.0548524 0.0379297 0.0724756 0.0470958 0.0698775 0.0777895 0.0718399 0.0641028 0.0761656 0.0557579 0.0838209
61 3 O -1.6203 74.299 1.56165 -1.2 1 0.0121444 0.0213992 0.0204031 0.0217004 0.0200124 0.0348892 0.038376 0.0448706 0.0561903 0.0420539 0.0449666 0.0398944 0.0494042 0.0674194 0.101312 0.0716801 0.0746337 0.0460831 0.0718861 0.0611757
62 3 O -1.10889 70.9994 0.0296904 -1.2 1 0.0166866 0.00824965 0.0230376 0.0229033 0.0325527 0.0229712 0.0464431 0.0426844 0.04771 0.0532349 0.0526591 0.0451255 0.0544556 0.0678653 0.0815418 0.0760841 0.0781312 0.0662467 0.0595425 0.0741062
63 1 Mg -2.37618 80.0112 3.01754 1.2 1 0.0145846 0.0154894 0.00810919 0.029545 0.0145556 0.0302905 0.0158228 0.0593194 0.0139554 0.0859523 0.0170242 0.0497602 0.0201238 0.0711512 0.0259789 0.100717 0.0327699 0.111978 0.0365664 0.0978089
64 3 O -1.33508 71.2514 2.61328 -1.2 1 0.00658885 0.0157543 0.0167454 0.0242653 0.0251988 0.0284457 0.0478677 0.043588 0.0355067 0.0450774 0.0539425 0.041223 0.064967 0.05142 0.095206 0.0669117 0.0745708 0.0652245 0.0643153 0.0604858
65 1 Mg -2.51734 77.0879 4.55721 1.2 1 0.00825749 0.0198776 0.0195823 0.0323244 0.0195757 0.0242105 0.0286865 0.0267386 0.0462361 0.0606182 0.0540124 0.0550295 0.0596141 0.0663827 0.0660079 0.0765913 0.067756 0.0941512 0.068926 0.0900429
66 2 Si 0.138639 78.9553 4.41301 2.4 1 0.0152408 0.0188557 0.023415 0.0276377 0.0286781 0.030131 0.0365791 0.043003 0.048153 0.0526402 0.0492788 0.0696646 0.0704664 0.053404 0.0777818 0.072864 0.0648933 0.0882337 0.0668408 0.0576245
67 3 O -1.4897 79.0042 4.34962 -1.2 1 0.0227868 0.0177109 0.0287798 0.0165376 0.0176363 0.0249841 0.0197694 0.0611229 0.0383267 0.0603104 0.0357122 0.0661111 0.0526402 0.0716783 0.0722357 0.0632413 0.0598862 0.063381 0.0607362 0.0695581
68 3 O 1.14764 75.2508 4.57792 -1.2 1 0.0137724 0.0182225 0.024932 0.0189031 0.0205167 0.0328564 0.0351785 0.0477966 0.0523845 0.0459325 0.0464177 0.0574104 0.0498553 0.0674892 0.0995707 0.0696572 0.0751458 0.0503247 0.0648509 0.0581145
69 3 O 0.912698 78.3338 3.17564 -1.2 1 0.0187011 0.0163929 0.0208631 0.0214978 0.0241852 0.0215466 0.0475679 0.0427664 0.0351958 0.03724 0.0589404 0.0395021 0.0567208 0.0454616 0.0952763 0.0694181 0.0710082 0.0681415 0.0567689 0.0802656
70 3 O 0.938968 78.4131 5.77138 -1.2 1 0.0214586 0.0108285 0.0310647 0.0190767 0.0234579 0.0225469 0.0466063 0.0428238 0.0387555 0.0372574 0.0537476 0.0475515 0.0514948 0.066949 0.0912076 0.0701137 0.0747178 0.0560192 0.066934 0.068246
71 1 Mg -0.282086 74.6686 3.09795 1.2 1 0.00393827 0.0108887 0.0105418 0.0368835 0.0140904 0.0422423 0.0157715 0.0606258 0.0195113 0.0826603 0.019782 0.0522736 0.022067 0.0724446 0.0231637 0.0964224 0.0316625 0.110034 0.0392189 0.0910086
72 1 Mg -0.348786 71.617 4.4837 1.2 1 0.018899 0.0104539 0.0185328 0.0308323 0.0137165 0.0262514 0.030386 0.0413487 0.0421777 0.0553481 0.0484738 0.0664589 0.055982 0.0564762 0.0684834 0.0591119 0.0848057 0.0791363 0.0870582 0.058883
73 2 Si 1.79069 73.6291 4.59171 2.4 1 0.0206107 0.0198014 0.0260567 0.0281236 0.0320716 0.032688 0.0409757 0.0485548 0.0547531 0.0475196 0.0485516 0.0657836 0.0721922 0.0543187 0.0724449 0.0708766 0.0630998 0.0928677 0.0603945 0.055284
74 3 O -1.44037 73.6645 4.49874 -1.2 1 0.0177273 0.0187429 0.0154276 0.0210529 0.0255702 0.0314242 0.0213532 0.0768462 0.0408798 0.0623059 0.0447197 0.0674373 0.0669067 0.0729785 0.07049 0.0596163 0.0612717 0.0688587 0.0609879 0.0637071
75 3 O 0.706216 70.0206 4.47954 -1.2 1 0.00444659 0.0252162 0.0246705 0.019112 0.0198662 0.0366384 0.0356989 0.0457628 0.0544243 0.0416614 0.046203 0.0446978 0.0551944 0.0699894 0.105532 0.076909 0.0673249 0.0558007 0.0690036 0.0660169
76 3 O 1.08556 72.9857 3.34415 -1.2 1 0.018336 0.0114782 0.0314758 0.022519 0.02131 0.0197311 0.0465402 0.0452763 0.0386758 0.0436717 0.0523179 0.0433246 0.062884 0.0520279 0.0962713 0.0704346 0.0744773 0.0663115 0.061431 0.0666363
77 1 Mg -0.280057 74.8637 0.0122126 1.2 1 0.00842259 0.0152018 0.0104262 0.0349552 0.0134938 0.0337751 0.0142878 0.0593105 0.0200515 0.0752255 0.0231605 0.053968 0.0258958 0.0682687 0.0263929 0.100707 0.0330655 0.110423 0.040853 0.089623
78 3 O 1.23422 72.8897 5.82458 -1.2 1 0.00359116 0.0119837 0.0254659 0.0226858 0.0159067 0.0294458 0.046028 0.0425617 0.0387324 0.0601235 0.0539096 0.0415167 0.0550696 0.0596687 0.0814588 0.0798506 0.0695635 0.0601477 0.0608127 0.0643784
79 1 Mg -0.0527594 77.7212 1.58382 1.2 1 0.0255272 0.0171702 0.0168597 0.0340148 0.0169181 0.0312168 0.0187316 0.0365724 0.0397275 0.0582408 0.0616684 0.0597097 0.0582311 0.0648099 0.0642898 0.0767605 0.0743916 0.0886767 0.0779648 0.0745238
80 2 Si -2.17064 75.768 1.63626 2.4 1 0.0228853 0.00804242 0.0199118 0.0295092 0.0343441 0.0314488 0.0447461 0.0424344 0.0575772 0.0511888 0.046786 0.0651417 0.0775457 0.053543 0.0713613 0.0718339 0.0622397 0.0943803 0.0532293 0.0533674
81 3 O 0.965647 75.5878 1.58257 -1.2 1 0.0197794 0.0204233 0.011498 0.0276747 0.0287788 0.0298917 0.0258646 0.0738236 0.0456116 0.0503567 0.0463275 0.074536 0.0511658 0.068022 0.0755084 0.0668869 0.0586153 0.0782005 0.0576541 0.0840199
82 3 O -1.09098 79.5966 1.47221 -1.2 1 0.0121467 0.0154106 0.0199616 0.017356 0.0173788 0.0323538 0.0333012 0.0409788 0.0587718 0.0405247 0.049479 0.0376274 0.0558941 0.0709527 0.0959382 0.0777396 0.0705334 0.0541695 0.0764176 0.0584946
83 3 O -1.66613 76.5444 0.374572 -1.2 1 0.00293671 0.00910055 0.0278258 0.0223987 0.0251406 0.0263617 0.0440979 0.0450469 0.0439485 0.0491941 0.0523645 0.0354829 0.0638923 0.072338 0.0791701 0.0772716 0.0716749 0.0650173 0.0650091 0.0621485
84 3 O -1.55366 76.2455 2.98956 -1.2 1 0.014162 0.0192342 0.0286233 0.0170495 0.0233764 0.0187896 0.0505503 0.0438247 0.0372527 0.0423627 0.0546374 0.0436977 0.0552927 0.0576344 0.0894039 0.0744285 0.0731103 0.0659664 0.065246 0.0738968
85 1 Mg -2.58829 80.1899 0.14197 1.2 1 0.0186243 0.00689311 0.0163647 0.0278537 0.0142602 0.0420336 0.0178693 0.0528802 0.0256173 0.08024 0.021819 0.0502523 0.0214373 0.0685687 0.0307855 0.0992843 0.0400625 0.103626 0.0416618 0.0863427
86 1 Mg 2.28925 82.7817 1.48153 1.2 1 0.0109892 0.016342 0.0194132 0.0225626 0.0159646 0.0229 0.0222729 0.0304072 0.047736 0.0625843 0.0514003 0.0569227 0.0611204 0.0674316 0.0607339 0.0878571 0.061578 0.108226 0.059684 0.0807258
87 2 Si -0.408884 81.1698 1.53025 2.4 1 0.0177316 0.0202369 0.0135107 0.0256454 0.0295776 0.0344577 0.0430007 0.0429627 0.048498 0.0549669 0.0540449 0.0692706 0.0685792 0.0607562 0.0759957 0.0760408 0.0542689 0.0853391 0.0604069 0.0522989
88 3 O 1.13299 80.9999 1.53386 -1.2 1 0.0241213 0.0148476 0.0212581 0.0280179 0.0229369 0.0283169 0.022325 0.0810585 0.0370967 0.0604274 0.0408827 0.0611796 0.0542412 0.068098 0.0746359 0.0604669 0.0512107 0.069328 0.0646836 0.0676419
89 3 O -1.35287 84.6068 1.53582 -1.2 1 0.0188459 0.0188035 0.0233877 0.0148095 0.0243104 0.0351487 0.034917 0.0510152 0.043753 0.0436368 0.039507 0.0596599 0.0472052 0.0613218 0.107184 0.0704601 0.0710808 0.058564 0.068404 0.0672787
90 3 O -1.07957 81.7344 0.276471 -1.2 1 0.00796445 0.0148788 0.0285155 0.0230513 0.024539 0.0248124 0.0502403 0.0436138 0.0347411 0.0467748 0.056507 0.0433471 0.0531982 0.0693316 0.069916 0.0707778 0.0707511 0.0604775 0.0731374 0.0735379
91 1 Mg -2.36819 90.5318 3.20681 1.2 1 0.0148689 0.0116527 0.0186493 0.0294592 0.0114742 0.0356416 0.0165753 0.0549213 0.0308321 0.0802003 0.0313971 0.0528074 0.0334645 0.0709779 0.0326264 0.0969557 0.0508798 0.0981044 0.0642924 0.0781209
92 3 O -1.17402 81.7803 2.87261 -1.2 1 0.026681 0.0252172 0.0279638 0.0121941 0.0146458 0.0234457 0.0434206 0.0452517 0.0392826 0.0392436 0.0565941 0.0327551 0.0521589 0.053642 0.0884209 0.0753465 0.063454 0.0641939 0.0544754 0.0828792
93 1 Mg -2.5607 87.5071 4.48906 1.2 1 0.0212882 0.00874692 0.0179386 0.0305476 0.0140877 0.0281952 0.0244398 0.0313882 0.047451 0.06026 0.0548212 0.0535836 0.0567186 0.0676993 0.0623891 0.0774078 0.0723426 0.105014 0.0588914 0.0971953
94 2 Si 0.234362 89.4903 4.53281 2.4 1 0.00545017 0.020918 0.0286481 0.031552 0.0318175 0.0362763 0.0406468 0.0410816 0.0540543 0.0521195 0.0482486 0.0684572 0.0649566 0.0615232 0.0860399 0.0637165 0.0615808 0.092733 0.0526976 0.0531785
95 3 O -1.31798 89.5194 4.58438 -1.2 1 0.0165812 0.0165604 0.0102284 0.0257999 0.0182741 0.0209015 0.0371144 0.0707392 0.0400848 0.0464321 0.0418481 0.0739181 0.0510204 0.0616576 0.0767348 0.0686507 0.0583189 0.0763712 0.0549125 0.0824139
96 3 O 1.27778 85.6836 4.5403 -1.2 1 0.0105119 0.0229722 0.0233279 0.0233469 0.0179643 0.0359991 0.030744 0.0463916 0.0513131 0.0454872 0.0439382 0.0517246 0.0454059 0.0627094 0.107709 0.0709603 0.065029 0.0549682 0.0726177 0.0775234
97 3 O 0.966698 88.7104 3.33506 -1.2 1 0.0102093 0.0204104 0.0310608 0.022831 0.0208418 0.0215353 0.0413634 0.0429385 0.0357844 0.0457224 0.051196 0.0446112 0.0593021 0.0575458 0.0915472 0.0605725 0.0828656 0.0647183 0.0653181 0.0590984
98 3 O 0.915934 88.7867 5.89234 -1.2 1 0.0257403 0.0181161 0.0292461 0.0227718 0.0335553 0.02285 0.054405 0.0443099 0.0426085 0.0457169 0.0533641 0.0491724 0.0558604 0.0668428 0.0825138 0.0769241 0.0762928 0.0569642 0.067063 0.0765278
99 1 Mg 0.0188203 85.1741 2.94425 1.2 1 0.00850388 0.0135733 0.017725 0.0308459 0.00907351 0.0334628 0.0137614 0.0541511 0.0162404 0.0834113 0.0195772 0.0498392 0.022236 0.0708639 0.0243353 0.0959999 0.0239624 0.117326 0.0349957 0.0984828
100 1 Mg -0.127851 82.3012 4.53777 1.2 1 0.0152097 0.019623 0.0213032 0.0320416 0.0210183 0.0210074 0.0203307 0.0250173 0.0422594 0.0650848 0.0481703 0.0534364 0.0694052 0.0682091 0.0567507 0.0830689 0.0732078 0.104187 0.0605734 0.0923566
101 2 Si 2.04348 84.1888 4.49913 2.4 1 0.0227485 0.0166582 0.0181836 0.0281528 0.030966 0.0263524 0.0416954 0.044176 0.0451518 0.0645277 0.0555054 0.0575081 0.0656134 0.0540691 0.0808072 0.0623999 0.065086 0.0878145 0.0579625 0.0617581
102 3 O -1.20311 84.3926 4.5681 -1.2 1 0.024437 0.0146194 0.0264423 0.0221854 0.0192302 0.0262943 0.0313804 0.0670108 0.0369291 0.0492121 0.0435078 0.0687783 0.0471299 0.0678768 0.0804724 0.0715558 0.0662092 0.0756386 0.0461906 0.0847758
103 3 O 0.824075 80.4629 4.47432 -1.2 1 0.0115007 0.0131417 0.0273261 0.0186534 0.0201854 0.032453 0.0325573 0.0422565 0.0495823 0.0461439 0.0463444 0.044936 0.0582674 0.0695498 0.100851 0.0707852 0.0667499 0.0508643 0.073863 0.0623905
104 3 O 1.30412 83.5477 3.17617 -1.2 1 0.00978883 0.0196548 0.0232968 0.0198892 0.0229728 0.0195874 0.0553805 0.0441769 0.0372156 0.0405395 0.053173 0.0409465 0.0549507 0.0629223 0.083429 0.0719941 0.0790902 0.0584905 0.0701095 0.0774721
105 1 Mg -0.0974807 85.2958 -0.134068 1.2 1 0.0170024 0.00607924 0.0104353 0.026503 0.0135273 0.0395477 0.0192519 0.0552938 0.028874 0.0765898 0.0249599 0.0510255 0.0274881 0.0692767 0.0284571 0.101183 0.04024 0.104776 0.0486036 0.0858774
106 3 O 1.37402 83.2956 5.72978 -1.2 1 0.00747141 0.011736 0.0350803 0.0122066 0.0213521 0.0247146 0.0403574 0.0406115 0.034064 0.0510557 0.0566206 0.0307655 0.0552713 0.0728617 0.0696783 0.0761387 0.0682188 0.0726973 0.0654995 0.0688455
107 1 Mg -0.114832 88.0435 1.63679 1.2 1 0.0165259 0.0076877 0.0165389 0.0347424 0.013909 0.0217397 0.019233 0.033046 0.0434445 0.0633887 0.0556638 0.0502269 0.0581324 0.0617499 0.0553627 0.0819714 0.067007 0.0967315 0.0680962 0.0810167
108 2 Si -2.12029 86.1344 1.49476 2.4 1 0.0179657 0.0106894 0.018112 0.033145 0.0319618 0.0307343 0.0467167 0.0403051 0.0482762 0.0599973 0.0535493 0.0614578 0.0693665 0.0587639 0.0857949 0.065561 0.0595478 0.0938186 0.0571709 0.0589531
109 3 O 1.10407 86.0535 1.38035 -1.2 1 0.0240334 0.0123171 0.00846713 0.0228879 0.029414 0.0307509 0.0303004 0.0648074 0.0439283 0.0512004 0.0427964 0.0657986 0.0518845 0.06485 0.0693555 0.069679 0.0631651 0.0775758 0.0553022 0.0746338
110 3 O -1.12426 89.9095 1.55211 -1.2 1 0.0151356 0.0250829 0.0214099 0.018545 0.0213612 0.0303785 0.0357055 0.0446255 0.0471801 0.0489047 0.0420468 0.0466202 0.0507529 0.0651454 0.0985187 0.071904 0.0662497 0.0622894 0.0700133 0.0607452
111 3 O -1.46695 86.9223 0.257915 -1.2 1 0.0099106 0.0146838 0.0276714 0.0230749 0.0205441 0.0231134 0.0472187 0.0443159 0.0310321 0.0488907 0.0522743 0.0380035 0.0545274 0.0601522 0.0779748 0.0713735 0.0674802 0.0643508 0.065317 0.0684508
112 3 O -1.43995 86.8466 2.69917 -1.2 1 0.0114077 0.0187126 0.0210164 0.0263085 0.0283565 0.0164502 0.0529967 0.0454135 0.0379322 0.0460748 0.0553097 0.0388161 0.0568181 0.0622264 0.0936436 0.0698787 0.0740729 0.062004 0.0698762 0.0691748
113 1 Mg -2.53498 90.568 0.0350477 1.2 1 0.0142234 0.015753 0.00934013 0.0382986 0.00785083 0.0396905 0.0189597 0.0614547 0.0228338 0.0734572 0.0199218 0.050667 0.0252491 0.0660076 0.0298893 0.103455 0.0395585 0.109258 0.0345184 0.0857458
114 1 Mg 2.27569 93.2561 1.30955 1.2 1 0.0159046 0.0203924 0.0200796 0.0354532 0.0140877 0.0293431 0.0247359 0.0321561 0.0456522 0.0569062 0.0591349 0.0454669 0.0600938 0.0653141 0.0694076 0.0865776 0.0678754 0.0924597 0.067828 0.0824568
115 2 Si -0.614797 91.3916 1.41072 2.4 1 0.0251608 0.0222329 0.0174493 0.033537 0.0314401 0.034127 0.0427235 0.0463928 0.0538502 0.046339 0.0462681 0.0653081 0.0663731 0.0598634 0.0637787 0.0623403 0.0623412 0.0943243 0.0538954 0.0532417
116 3 O 1.07816 91.388 1.52477 -1.2 1 0.0123598 0.0330756 0.0137618 0.0296303 0.0226116 0.035566 0.0302953 0.0715096 0.0423626 0.0550965 0.0388704 0.0681014 0.0576973 0.0652114 0.0739597 0.0675821 0.0617562 0.0745156 0.0625555 0.0640481
117 3 O -1.44878 95.2044 1.2805 -1.2 1 0.0074017 0.0111083 0.0260202 0.0249153 0.0160924 0.03005 0.0426631 0.0466314 0.0536742 0.045081 0.051994 0.0471229 0.0553043 0.0759307 0.0995483 0.0790353 0.0691135 0.0514499 0.0675626 0.059675
118 3 O -1.08514 92.0698 0.162085 -1.2 1 0.0207521 0.0222397 0.0252314 0.0245848 0.0238968 0.0194659 0.0574255 0.0355484 0.0398357 0.0380086 0.0545243 0.036134 0.0548311 0.0604551 0.0817522 0.0720767 0.0752975 0.0612793 0.0703392 0.0779095
119 1 Mg -2.45323 100.945 2.90304 1.2 1 0.020699 0.0154117 0.010193 0.0302885 0.0111349 0.0374662 0.0174317 0.0577719 0.014063 0.0840123 0.0230986 0.0484675 0.0198051 0.0742811 0.021879 0.102832 0.0268462 0.111693 0.0301978 0.0827075
120 3 O -1.18436 92.0778 2.73057 -1.2 1 0.0163472 0.0124237 0.0251211 0.0201137 0.0320683 0.0254615 0.0489343 0.0498879 0.0408024 0.0525371 0.0521338 0.0481178 0.0622143 0.0688113 0.0894161 0.0626181 0.0725701 0.0658576 0.0609898 0.0717325
121 1 Mg -2.76871 97.8748 4.23607 1.2 1 0.0240965 0.00659286 0.00955087 0.0310152 0.0181675 0.0305018 0.0328951 0.0369107 0.0530808 0.0444435 0.0653681 0.0543919 0.0574064 0.0739169 0.0721166 0.0584971 0.0815122 0.0946866 0.0689401 0.0795807
122 2 Si 0.139939 99.8269 4.2962 2.4 1 0.00548015 0.00739067 0.0215504 0.0230256 0.034533 0.0350455 0.0417669 0.0442323 0.0528337 0.0532611 0.047176 0.0752137 0.0693726 0.0557369 0.0727205 0.0779475 0.0698611 0.087773 0.0602054 0.0593564
123 3 O -1.37288 99.7974 4.39562 -1.2 1 0.0253283 0.0119618 0.0103636 0.021746 0.0282905 0.0274275 0.0198582 0.0784045 0.0305534 0.0682594 0.0352179 0.0628096 0.0648446 0.0670103 0.0679794 0.0627918 0.0612526 0.0636092 0.0716418 0.0637685
124 3 O 1.24453 95.9898 4.3868 -1.2 1 0.0206411 0.0160663 0.0193573 0.0248652 0.0149795 0.0297424 0.0328646 0.0468748 0.0629382 0.0417439 0.0462055 0.0375663 0.060417 0.0749315 0.0991902 0.0705015 0.0695452 0.0532686 0.0764062 0.0540714
125 3 O 0.786853 99.1149 2.95473 -1.2 1 0.0133322 0.0275297 0.0246226 0.0218277 0.0255169 0.0280632 0.0417425 0.0456808 0.0388661 0.0563788 0.0571553 0.039841 0.0586801 0.0561678 0.0791086 0.0772782 0.0712657 0.0617787 0.0604538 0.0724258