ITEM: TIMESTEP
74400
ITEM: NUMBER OF ATOMS
5600
ITEM: BOX BOUNDS xy xz yz pp pp pp
0	7.1235	0
0	201.985	2.3745
0	119.584	0
ITEM: ATOMS id type element xu yu zu q Q_1 Q_2 Q_3 Q_4 Q_5 Q_6 Q_7 Q_8 Q_9 Q_10 Q_11 Q_12 Q_13 Q_14 Q_15 Q_16 Q_17 Q_18 Q_19 Q_20 Q_21
1 1 Mg -1.62384 47.9193 -0.780182 1.2 1 0.441975 0.0686135 0.122187 0.0513089 0.074796 0.0542126 0.0515958 0.051363 0.0748452 0.0642245 0.0760018 0.0796046 0.0889648 0.101061 0.0950371 0.0929729 0.0968354 0.10918 0.110125 0.113394
2 1 Mg 3.06604 49.6151 2.34572 1.2 1 0.291751 0.115836 0.0260568 0.0588976 0.0523232 0.0488215 0.0771265 0.0592751 0.0833435 0.0814354 0.0778536 0.0675682 0.0686842 0.0677032 0.0985787 0.07565 0.0910678 0.072522 0.0716571 0.0714437
3 2 Si 0.816573 49.6108 0.347702 2.4 1 0.276395 0.121417 0.0369923 0.0594901 0.0545031 0.0482971 0.0726415 0.045039 0.0756717 0.0663908 0.0636971 0.0541041 0.0747987 0.0733001 0.105707 0.0708022 0.0881205 0.0773295 0.0769005 0.0976234
4 3 O 2.22569 49.0138 0.676573 -1.2 1 0.343126 0.115832 0.0622017 0.0573098 0.0408894 0.0609464 0.0629348 0.0714444 0.0621182 0.0781604 0.0684141 0.0908319 0.0916807 0.0762959 0.0913294 0.0736215 0.0841943 0.0795465 0.0852618 0.0822568
5 3 O -1.29467 52.5029 1.42794 -1.2 1 0.104764 0.0565269 0.043166 0.0342041 0.0401271 0.0401937 0.0530083 0.0498531 0.0588058 0.0582979 0.0544129 0.0521797 0.0564003 0.0729761 0.082249 0.0710034 0.0893522 0.0549208 0.0581625 0.0748649
6 3 O 0.112453 48.6327 -0.845615 -1.2 1 0.374462 0.101247 0.074039 0.0661567 0.0447389 0.0903147 0.0421417 0.0713002 0.0798676 0.0839919 0.0751294 0.0697671 0.0914074 0.0792489 0.0878991 0.0913431 0.0849143 0.0843294 0.079953 0.0970305
7 1 Mg -2.73176 58.3509 3.17938 1.2 1 0.0298183 0.0177117 0.0135727 0.042024 0.019491 0.0342824 0.0164513 0.056685 0.0305569 0.0650665 0.0376159 0.0490435 0.0421318 0.0721791 0.0444991 0.0919138 0.0642978 0.0994639 0.0574316 0.0754153
8 3 O 0.0779702 49.4342 1.77135 -1.2 1 0.306137 0.137118 0.0578237 0.0626907 0.039019 0.0557634 0.0603741 0.0686323 0.0642561 0.092481 0.0831945 0.0718475 0.0498408 0.0753632 0.0859928 0.0757588 0.0775035 0.0858535 0.100709 0.0885146
9 1 Mg -2.52324 55.2925 4.34438 1.2 1 0.0108723 0.0211126 0.0141144 0.0266091 0.0212869 0.0326058 0.0209057 0.037387 0.0528143 0.0504711 0.0590319 0.0640327 0.054958 0.0633002 0.0739252 0.0729027 0.0679858 0.0863327 0.058647 0.0750844
10 2 Si 0.195648 57.5259 4.74735 2.4 1 0.00827973 0.0211466 0.0273884 0.0239208 0.0261148 0.0319453 0.0422376 0.0531237 0.0559258 0.0613151 0.0565135 0.0631458 0.0633919 0.0535258 0.0887882 0.0669886 0.0664423 0.0664739 0.0666954 0.0628854
11 3 O -1.39665 57.4688 4.62898 -1.2 1 0.0117083 0.0377481 0.0157941 0.0181388 0.0288376 0.0334567 0.0304985 0.0839946 0.0417777 0.0629003 0.0379553 0.0751931 0.0605258 0.0706777 0.0694733 0.0742457 0.0556005 0.0766669 0.0605474 0.069172
12 3 O 1.47878 53.448 4.27433 -1.2 1 0.0558114 0.0338044 0.0352979 0.0210236 0.0285284 0.0349203 0.0354702 0.0330924 0.069922 0.0523675 0.0608889 0.0583853 0.070049 0.0725919 0.0755984 0.083948 0.0765431 0.0708314 0.0643255 0.0538906
13 3 O 0.902969 56.6578 3.41146 -1.2 1 0.0310041 0.00919143 0.0186511 0.0264739 0.0295969 0.0281134 0.0452399 0.0426328 0.0480805 0.0535418 0.0559514 0.0402401 0.0512969 0.0633534 0.0788941 0.0846392 0.0705929 0.0515198 0.0605524 0.0690275
14 3 O 0.8304 56.7468 5.89289 -1.2 1 0.0265838 0.0168092 0.0308561 0.0207076 0.0199352 0.0276926 0.0595485 0.0472937 0.0433758 0.056997 0.0559371 0.0487776 0.0627246 0.0770256 0.0624142 0.0746777 0.0783298 0.0623868 0.0690764 0.0686292
15 1 Mg -0.0444436 52.8748 2.83431 1.2 1 0.0742534 0.0674195 0.0380458 0.0293885 0.0300351 0.0300633 0.0273719 0.0550737 0.0365697 0.0757638 0.0457197 0.0552222 0.0533767 0.0678555 0.0667344 0.0799502 0.0749438 0.0912803 0.070872 0.0753456
16 1 Mg 0.907943 48.5206 3.43034 1.2 1 0.39953 0.080167 0.079826 0.0600289 0.0314336 0.080968 0.0571828 0.0661245 0.095874 0.0715658 0.0794904 0.0716397 0.0730338 0.0998749 0.102335 0.0909717 0.082901 0.0869529 0.0910633 0.0750401
17 2 Si 2.27534 51.9224 4.55381 2.4 1 0.101607 0.0821341 0.0510183 0.0288131 0.0225574 0.0346387 0.0385924 0.0683734 0.0566717 0.0688474 0.0843407 0.0672141 0.0854324 0.0660111 0.0858289 0.0746255 0.0769998 0.081504 0.0770676 0.0782926
18 3 O -0.892941 52.3426 4.53718 -1.2 1 0.100131 0.0791052 0.0288911 0.0311761 0.0247848 0.0273948 0.0573443 0.0640828 0.0466772 0.0719101 0.064215 0.0710656 0.056867 0.085591 0.0617872 0.0682622 0.0791516 0.0606533 0.0778702 0.0776815
19 3 O 2.72075 48.0051 3.50229 -1.2 1 0.451446 0.0546235 0.116316 0.0635415 0.0937175 0.0498825 0.0660168 0.0655304 0.0738904 0.0745107 0.0868507 0.0873278 0.107945 0.0999021 0.0990532 0.108697 0.0865383 0.0824581 0.0815833 0.08788
20 3 O 2.11839 50.6896 3.67916 -1.2 1 0.200763 0.107005 0.0278057 0.0264561 0.0468781 0.0479153 0.0553907 0.0560604 0.0692651 0.0674716 0.0701614 0.0743548 0.0682692 0.0856709 0.0649906 0.0828903 0.081294 0.0877732 0.0788152 0.0614728
21 1 Mg -0.388649 52.8126 -0.227981 1.2 1 0.0733627 0.0578667 0.053873 0.039615 0.02824 0.0308977 0.0423189 0.0656891 0.0399345 0.050588 0.0652169 0.0583432 0.0645259 0.0691165 0.0589607 0.0822794 0.0633637 0.0753689 0.0763188 0.0814838
22 3 O 1.67174 51.4253 6.03162 -1.2 1 0.152773 0.0837736 0.0365502 0.0206765 0.0159269 0.0435766 0.0532864 0.0726503 0.0511773 0.0603021 0.0749809 0.0509714 0.0799247 0.066994 0.0932136 0.0710354 0.0711101 0.0661977 0.0761287 0.0749009
23 1 Mg 0.0150971 55.9504 1.6724 1.2 1 0.02796 0.0133733 0.0183381 0.0273919 0.0244523 0.0349145 0.0301763 0.0463295 0.0419194 0.0567199 0.0646881 0.0552251 0.0733789 0.0745211 0.0779822 0.0783143 0.0672607 0.0859429 0.0763298 0.0755835
24 2 Si -2.22354 53.8433 1.19392 2.4 1 0.0284001 0.0332803 0.0337445 0.0252898 0.0314435 0.0344121 0.0558204 0.0446119 0.0586963 0.0673345 0.0597522 0.0615638 0.0757525 0.0562642 0.0793547 0.0699915 0.0718825 0.063535 0.0641116 0.0577304
25 3 O 1.06123 53.8355 1.55942 -1.2 1 0.0228058 0.0360868 0.0341029 0.0182109 0.0239714 0.042466 0.0222684 0.05978 0.0527564 0.0487274 0.0689096 0.0541227 0.0588681 0.0702875 0.0740487 0.0642846 0.0703397 0.0787097 0.048252 0.0713225
26 3 O -1.22122 57.9618 1.78463 -1.2 1 0.0221204 0.018812 0.0210048 0.0299171 0.0218995 0.0395242 0.0371688 0.0339975 0.0594502 0.045198 0.047477 0.0443469 0.061605 0.0768749 0.0903652 0.0769339 0.0780888 0.0609792 0.0665054 0.0570649
27 3 O -1.65695 54.6335 -0.0566394 -1.2 1 0.0395726 0.0218519 0.0286036 0.0206322 0.0247663 0.0244345 0.0478833 0.0549735 0.0473489 0.050248 0.0722487 0.0453482 0.0559068 0.0696217 0.0694046 0.0771341 0.0729986 0.0759329 0.0591628 0.0785875
28 3 O -1.52524 54.7919 2.43727 -1.2 1 0.0159421 0.0248122 0.029762 0.0288321 0.0324294 0.0217299 0.055572 0.0535221 0.04041 0.0519926 0.0647032 0.0621849 0.061255 0.0756616 0.0597498 0.0757311 0.076242 0.0716601 0.0627508 0.0617431
29 1 Mg -2.57464 58.0375 0.403232 1.2 1 0.0146638 0.0246372 0.0196889 0.0268535 0.022342 0.0409804 0.0285856 0.0484836 0.0476937 0.0579209 0.0386871 0.0455354 0.0403516 0.0541613 0.0504293 0.0909714 0.0750918 0.0892846 0.0780281 0.0660504
30 1 Mg 1.93791 61.3351 1.72075 1.2 1 0.016064 0.0101348 0.0172209 0.0346027 0.0204024 0.0332216 0.0296508 0.0399811 0.0377935 0.0558867 0.0759004 0.045316 0.0579486 0.0699652 0.0792212 0.0846988 0.0686374 0.0746323 0.0728366 0.0699917
31 2 Si -0.677273 59.518 1.53185 2.4 1 0.0177755 0.0293479 0.023723 0.0263914 0.0321659 0.0317015 0.0319375 0.0524009 0.0600966 0.0426491 0.0494551 0.0651214 0.0639283 0.0577649 0.0709953 0.0714663 0.0687393 0.0948047 0.0647841 0.0575459
32 3 O 0.951692 59.4099 1.656 -1.2 1 0.0337168 0.0157606 0.0175927 0.0208398 0.033284 0.0299858 0.0277602 0.0610823 0.032969 0.0671355 0.0484838 0.0699607 0.0516604 0.0709334 0.0631933 0.0635996 0.0711684 0.0612915 0.0685894 0.073812
33 3 O -1.60051 63.3106 1.80848 -1.2 1 0.0147424 0.0107193 0.0235117 0.0306211 0.0128529 0.0393726 0.0350961 0.0392236 0.0665418 0.0438785 0.041261 0.0453042 0.0509391 0.0696927 0.091937 0.049506 0.0800188 0.0598136 0.0653638 0.0522015
34 3 O -1.21745 59.8345 0.174723 -1.2 1 0.0177742 0.0248688 0.028565 0.0209548 0.0272254 0.0214558 0.0460619 0.0438747 0.054651 0.0532703 0.0502134 0.0444444 0.0622913 0.0661668 0.077195 0.0742678 0.0779477 0.0859276 0.0538909 0.0670573
35 1 Mg -2.63571 69.2548 3.06935 1.2 1 0.0152331 0.00988127 0.0236357 0.0296728 0.0180259 0.0277161 0.0189091 0.050968 0.0232514 0.0807109 0.0252704 0.0552791 0.0311426 0.0704808 0.0371357 0.0988832 0.046175 0.106165 0.0470385 0.080364
36 3 O -1.31377 60.3884 2.70513 -1.2 1 0.0152295 0.0265758 0.0300475 0.0209879 0.0332107 0.0291471 0.0396692 0.0381164 0.0417452 0.0435343 0.0666151 0.0441565 0.0648035 0.0609262 0.0779043 0.0870974 0.0660751 0.0851315 0.057856 0.0543527
37 1 Mg -2.43048 66.4344 4.69445 1.2 1 0.0029995 0.0227576 0.0228013 0.0317152 0.0185104 0.0278681 0.0221209 0.0308222 0.0438928 0.0622303 0.0667383 0.051207 0.0540445 0.0601712 0.0643737 0.097471 0.0639166 0.0878256 0.0562698 0.0848426
38 2 Si 0.197128 68.2954 4.54065 2.4 1 0.00482774 0.0183537 0.0244482 0.0332074 0.0305649 0.0321536 0.04241 0.0420538 0.0469892 0.0575972 0.0619344 0.0595681 0.0722628 0.0662226 0.0812588 0.0644885 0.0654368 0.0925993 0.0527091 0.05774
39 3 O -1.32111 68.3586 4.53433 -1.2 1 0.0198454 0.0182547 0.0172195 0.0265395 0.0287266 0.028043 0.0207568 0.0626846 0.0466818 0.0542916 0.0482609 0.0741115 0.0458966 0.0594496 0.0729184 0.0769016 0.0630847 0.0695697 0.0575871 0.0796982
40 3 O 1.09471 64.3092 4.63782 -1.2 1 0.0151767 0.0181801 0.021699 0.0203976 0.0195855 0.0299813 0.0386746 0.0305967 0.0472549 0.0385853 0.0583338 0.0490099 0.0510096 0.0701029 0.0912713 0.0694283 0.0831598 0.050063 0.0711618 0.0501712
41 3 O 0.816435 67.6271 3.32107 -1.2 1 0.0208683 0.0103764 0.0202428 0.0249337 0.0285084 0.028145 0.0433696 0.0426572 0.0392447 0.0525836 0.0573787 0.0466905 0.0533122 0.0651857 0.0808766 0.0709452 0.0707321 0.0595379 0.0600287 0.0791846
42 3 O 1.03029 67.6288 5.83719 -1.2 1 0.00954267 0.0130289 0.0236004 0.0166879 0.025298 0.0201834 0.0422972 0.0430581 0.0429424 0.040869 0.0553081 0.0527019 0.0520724 0.0602492 0.0825012 0.0602153 0.0861871 0.0593026 0.0699217 0.0680603
43 1 Mg -0.139062 63.9507 3.13799 1.2 1 0.0144293 0.00520992 0.0136844 0.0279148 0.0191155 0.0337617 0.0193676 0.0552386 0.0273674 0.0741581 0.0267167 0.0520374 0.0293316 0.0725979 0.0461573 0.0947 0.0478867 0.0958698 0.03296 0.0836908
44 1 Mg -0.465123 60.9395 4.50695 1.2 1 0.0050618 0.0147357 0.0231168 0.034771 0.0180767 0.0327641 0.0381018 0.0326935 0.044418 0.0517791 0.0713752 0.0593016 0.0564345 0.0605216 0.066777 0.0873215 0.0724834 0.0655641 0.0727745 0.0600967
45 2 Si 1.79148 62.7702 4.46657 2.4 1 0.0142179 0.0223625 0.0194162 0.0333442 0.0372744 0.030942 0.0332502 0.0479197 0.0586039 0.0470899 0.0545555 0.0615717 0.0651176 0.0555996 0.0690011 0.0711597 0.0669149 0.0896269 0.0596809 0.0620399
46 3 O -1.23914 62.7369 4.69898 -1.2 1 0.0154747 0.0166271 0.0129162 0.0226989 0.0272678 0.0304258 0.0243916 0.0691344 0.0436469 0.0674435 0.0324328 0.0641867 0.0568314 0.0779512 0.0631947 0.0566866 0.0569926 0.0676663 0.0565501 0.0740072
47 3 O 0.775272 58.9417 4.59475 -1.2 1 0.0138375 0.0117811 0.0165162 0.0223676 0.0116937 0.0321465 0.0392756 0.0463491 0.0530151 0.0456075 0.0561553 0.0410808 0.0531374 0.0798673 0.0933815 0.07926 0.0684555 0.0644222 0.0704633 0.0591578
48 3 O 0.972876 62.2776 3.22875 -1.2 1 0.00991862 0.0137733 0.0190854 0.0226032 0.0295173 0.0232835 0.0440879 0.0366165 0.0506352 0.0424728 0.0528637 0.044652 0.054993 0.0450546 0.0901838 0.0663819 0.071865 0.0752847 0.0650411 0.0554069
49 1 Mg -0.113537 63.5532 0.435324 1.2 1 0.0213294 0.0171551 0.0120478 0.0308695 0.0174007 0.042378 0.0223067 0.0568938 0.0291078 0.0753477 0.0294527 0.0570142 0.0281238 0.0561126 0.0413111 0.0909219 0.0524072 0.0996836 0.0571919 0.0700565
50 3 O 1.40035 62.1062 5.74808 -1.2 1 0.0208919 0.0235271 0.0265109 0.0255203 0.0363549 0.0235158 0.0428286 0.0549595 0.0458757 0.0545186 0.0570856 0.0384735 0.0555572 0.0623197 0.0735222 0.0670128 0.0735097 0.0653388 0.0677971 0.0577914
51 1 Mg -0.095118 66.7943 1.6949 1.2 1 0.0153814 0.0114291 0.0131774 0.0332815 0.0124546 0.0289776 0.0210915 0.0379167 0.0364687 0.0468658 0.063301 0.0574233 0.0498848 0.0687005 0.0760539 0.0766593 0.077332 0.0761123 0.0693371 0.0764748
52 2 Si -2.14732 64.9592 1.76172 2.4 1 0.0264189 0.0117134 0.0289126 0.0238663 0.0339907 0.0304741 0.0360119 0.0530049 0.0624543 0.0524849 0.0575404 0.0663353 0.0615033 0.0589925 0.0464082 0.0746937 0.0664596 0.0950614 0.0528199 0.0560562
53 3 O 0.952337 64.8806 1.65525 -1.2 1 0.0287121 0.0125107 0.0293734 0.0210349 0.0268464 0.0223854 0.0190611 0.0572377 0.050984 0.0777872 0.0319003 0.0729393 0.0559497 0.0588315 0.0810191 0.0613344 0.0614143 0.0581652 0.0613011 0.073902
54 3 O -1.29784 68.6406 1.61981 -1.2 1 0.0109392 0.0116725 0.0211061 0.0284722 0.023281 0.0368227 0.0327819 0.0359898 0.0438347 0.0453392 0.0528608 0.0480851 0.0524721 0.0685762 0.0985643 0.0673067 0.0779618 0.0617907 0.0714296 0.0634829
55 3 O -1.56441 65.6938 0.460823 -1.2 1 0.00558141 0.0232524 0.0209246 0.0243846 0.0322591 0.0254906 0.0399854 0.0409729 0.0361468 0.054205 0.0574643 0.0414669 0.0578166 0.0513211 0.0831075 0.073872 0.0740139 0.0646046 0.072586 0.0606794
56 3 O -1.38917 65.4915 3.10242 -1.2 1 0.0090251 0.0122419 0.0225114 0.0286935 0.0252352 0.0231157 0.0464369 0.0445008 0.0440694 0.0445624 0.0584791 0.0431965 0.0538478 0.0543074 0.0849333 0.0734172 0.0674662 0.0633358 0.0527578 0.07656
57 1 Mg -2.47668 68.9685 0.162633 1.2 1 0.0162771 0.0108512 0.015338 0.0331535 0.0121603 0.0381612 0.013552 0.0496814 0.0238166 0.0851772 0.0278273 0.0447044 0.0300747 0.0666546 0.029475 0.0945313 0.0403408 0.111508 0.0476297 0.0975746
58 1 Mg 2.09388 72.2446 1.80367 1.2 1 0.0109888 0.00852989 0.0204103 0.0364904 0.0136767 0.0258905 0.0242832 0.0319614 0.0309751 0.0554413 0.0561414 0.060677 0.0526102 0.0559853 0.0673693 0.066043 0.0927478 0.0762071 0.0779963 0.0576053
59 2 Si -0.649525 70.1888 1.63998 2.4 1 0.0125265 0.0257018 0.024179 0.0224764 0.0358305 0.0349487 0.0445733 0.0516487 0.0565974 0.0416257 0.0433442 0.071055 0.0683768 0.0593864 0.075094 0.0783076 0.0609285 0.092455 0.0568375 0.0573597
60 3 O 0.919623 70.2255 1.77197 -1.2 1 0.0177113 0.0252546 0.0148404 0.0240413 0.0375526 0.025881 0.0307718 0.075397 0.037265 0.0619834 0.0420014 0.0648161 0.0689981 0.0664698 0.0744772 0.058371 0.0560668 0.0653272 0.0692934 0.0738606
61 3 O -1.37688 74.011 1.84856 -1.2 1 0.018986 0.0186422 0.0228321 0.0227677 0.0213495 0.0323545 0.0453372 0.0458477 0.0460637 0.0408488 0.0484899 0.0478343 0.0518593 0.0683662 0.0939974 0.0703912 0.0851422 0.0556575 0.0777918 0.0578104
62 3 O -1.28054 70.733 0.259595 -1.2 1 0.0185458 0.00948615 0.0249054 0.0175793 0.0270622 0.0207825 0.0436378 0.0412376 0.0509023 0.0482064 0.0504855 0.0417196 0.0579949 0.0516595 0.0911193 0.0751093 0.0699865 0.064063 0.0512818 0.0871125
63 1 Mg -2.51048 79.8534 3.19173 1.2 1 0.0154969 0.0200206 0.0167027 0.0301635 0.01583 0.0412073 0.0200894 0.052623 0.0189255 0.079098 0.0241583 0.0506476 0.0233394 0.0673033 0.0281238 0.0966656 0.0393455 0.109777 0.0370058 0.0857518
64 3 O -1.30486 70.9971 2.86394 -1.2 1 0.0164205 0.0177406 0.020269 0.019856 0.0274684 0.0237529 0.0469872 0.0417309 0.0355067 0.051836 0.0538414 0.051204 0.0660981 0.0495576 0.087907 0.0765687 0.0588114 0.0809385 0.0561772 0.0559498
65 1 Mg -2.67071 76.8571 4.82545 1.2 1 0.0297101 0.0134299 0.0116786 0.0285682 0.0153186 0.0347948 0.0272126 0.038122 0.0456517 0.0473895 0.0515596 0.0512004 0.0575803 0.071585 0.0749642 0.0624346 0.0651394 0.0992048 0.0709936 0.0792518
66 2 Si 0.274642 78.6964 4.70467 2.4 1 0.0225395 0.0168435 0.0161088 0.0286574 0.0280906 0.0322789 0.0370308 0.0452973 0.0461879 0.0511822 0.0571361 0.0684555 0.0703771 0.0574845 0.0622724 0.0798023 0.0609696 0.0929529 0.0540683 0.0630746
67 3 O -1.28432 78.6689 4.73966 -1.2 1 0.0297694 0.00797959 0.0157131 0.0176096 0.0302869 0.0290413 0.0171241 0.0604025 0.0398425 0.0710103 0.0430628 0.07033 0.0675107 0.0623609 0.0668609 0.0672812 0.0622336 0.0613866 0.0575796 0.0738109
68 3 O 1.24014 75.0896 4.86884 -1.2 1 0.00912635 0.0209853 0.0179951 0.015014 0.0183638 0.0369329 0.0368717 0.044531 0.0448416 0.0459125 0.0430372 0.0567423 0.0526314 0.0671848 0.0930326 0.0733021 0.073352 0.0604821 0.0630837 0.0615126
69 3 O 0.966365 78.1518 3.45229 -1.2 1 0.0144632 0.0141698 0.0275473 0.01672 0.0296525 0.0261383 0.05133 0.0406787 0.027815 0.0424848 0.0458632 0.0468348 0.0460534 0.0655064 0.0861321 0.0660152 0.0801549 0.0552545 0.061184 0.0735987
70 3 O 1.10949 78.1665 6.13024 -1.2 1 0.0169519 0.0121775 0.0206163 0.0276725 0.028776 0.0190752 0.0550735 0.0536277 0.0450314 0.0453909 0.0506689 0.0419893 0.053865 0.0571096 0.0981981 0.0703481 0.0704643 0.0692554 0.0586155 0.0891215
71 1 Mg 0.000546765 74.6349 3.40548 1.2 1 0.0173264 0.0130853 0.0149145 0.0296672 0.0154348 0.0333033 0.0208827 0.048904 0.0343168 0.0693724 0.0271799 0.0492472 0.035764 0.0616019 0.0313509 0.0964882 0.0607088 0.0980017 0.0570663 0.0807676
72 1 Mg -0.333184 71.639 4.64366 1.2 1 0.0225 0.0101032 0.0248594 0.0366358 0.0225484 0.0310997 0.0249266 0.0378938 0.0421099 0.0558979 0.0624868 0.0485014 0.0539642 0.069181 0.0634442 0.0779079 0.0751076 0.0742463 0.0814091 0.0736995
73 2 Si 1.90323 73.4995 4.86792 2.4 1 0.00946649 0.0190747 0.0309105 0.024646 0.0354682 0.035383 0.0407643 0.0449422 0.05551 0.0471708 0.05796 0.0652631 0.0690802 0.0538588 0.0740892 0.0678727 0.0653615 0.0910691 0.0644804 0.0645505
74 3 O -1.29162 73.5075 4.87141 -1.2 1 0.0195671 0.0171804 0.0182018 0.0238457 0.0284778 0.0319268 0.0223194 0.070943 0.0505288 0.0555624 0.0387786 0.0717809 0.0599764 0.0699415 0.0741586 0.0657736 0.0626193 0.0596717 0.0642209 0.0674682
75 3 O 1.09286 69.8377 4.5784 -1.2 1 0.00589796 0.0157615 0.019461 0.019353 0.0332691 0.0346384 0.0389919 0.0392711 0.0331422 0.051972 0.0455094 0.0545325 0.0458226 0.0658329 0.0954244 0.0664305 0.0797393 0.0624018 0.0541053 0.0663317
76 3 O 1.23559 72.8169 3.6182 -1.2 1 0.0150283 0.017212 0.0316109 0.0230541 0.0308211 0.0208016 0.0456764 0.0482607 0.0408261 0.0453216 0.0526923 0.0431354 0.059954 0.0628998 0.0867774 0.0741587 0.0792699 0.0589923 0.063628 0.063105
77 1 Mg -0.122946 74.3757 0.386965 1.2 1 0.00680525 0.0138021 0.0112891 0.0258499 0.0108978 0.0324465 0.0155835 0.0474694 0.0114918 0.0855455 0.0148538 0.0517668 0.0142505 0.0630458 0.0193568 0.103326 0.0304276 0.110965 0.0267146 0.0931652
78 3 O 1.1031 72.7946 6.08444 -1.2 1 0.0131352 0.0117511 0.0234045 0.0260256 0.0288242 0.0137988 0.0495412 0.0417993 0.0501643 0.0473987 0.0513855 0.0431033 0.0682087 0.0434951 0.0943933 0.0734057 0.0661796 0.0718715 0.0455795 0.0771096
79 1 Mg -0.0524127 77.6088 1.82922 1.2 1 0.00744379 0.00939255 0.0225723 0.031101 0.0201279 0.0233004 0.0287586 0.0373987 0.036627 0.0560166 0.0581594 0.0591236 0.0517803 0.053846 0.0703033 0.0549738 0.0877762 0.0832929 0.0619453 0.0694939
80 2 Si -2.00573 75.5229 1.74318 2.4 1 0.0225468 0.0227366 0.0246511 0.0258537 0.030065 0.0342183 0.0355745 0.0500662 0.0542935 0.0433201 0.05269 0.0587767 0.0674098 0.0591012 0.0715033 0.0789701 0.0567379 0.0959298 0.0523828 0.0478632
81 3 O 1.19666 75.3304 1.7918 -1.2 1 0.0179228 0.0213686 0.0209707 0.0235487 0.0269292 0.0333015 0.0278899 0.0650624 0.0405573 0.0510734 0.047954 0.0728826 0.0529986 0.0624136 0.0795074 0.0692025 0.0709363 0.0633492 0.0614231 0.0751739
82 3 O -1.18177 79.3047 1.90426 -1.2 1 0.00553618 0.0117863 0.0228016 0.0233034 0.0135159 0.0364695 0.0368037 0.0419066 0.0483239 0.0372457 0.0483898 0.0432777 0.0543797 0.0727724 0.0925929 0.0684163 0.0792984 0.052995 0.0710677 0.0581659
83 3 O -1.31105 76.1258 0.591479 -1.2 1 0.00401742 0.0279612 0.0221583 0.0217459 0.0260089 0.0151204 0.0454289 0.0402827 0.028831 0.0438032 0.0491282 0.0410612 0.0622214 0.0555123 0.094445 0.0714715 0.0824304 0.0733183 0.0610785 0.0700368
84 3 O -1.34273 76.0925 2.89889 -1.2 1 0.02188 0.0149431 0.0281623 0.0205926 0.0342765 0.0269761 0.0529337 0.0478581 0.0346441 0.0465467 0.0513312 0.0465664 0.0482619 0.0601001 0.0889502 0.0737365 0.0744302 0.060702 0.0567515 0.0619642
85 1 Mg -2.12899 79.9149 0.130177 1.2 1 0.00921851 0.0142852 0.0142602 0.0343705 0.02776 0.0367599 0.0277533 0.0563316 0.0379924 0.0680955 0.0471744 0.0522969 0.0397126 0.0649627 0.0534538 0.0796783 0.0732781 0.0818912 0.0684336 0.0709456
86 1 Mg 2.14105 82.6587 1.75702 1.2 1 0.018697 0.0143895 0.0200331 0.0309915 0.0201514 0.037509 0.0328382 0.0342388 0.0495321 0.0535997 0.0695436 0.0581602 0.0509383 0.0619421 0.0625682 0.089898 0.0752944 0.0800822 0.0732536 0.0759621
87 2 Si -0.550532 80.8399 1.79176 2.4 1 0.012726 0.0175579 0.0203157 0.018349 0.0320175 0.0357313 0.0434584 0.0474312 0.0610264 0.0404627 0.0462842 0.0718121 0.0743997 0.0549311 0.0715397 0.0691666 0.0696196 0.0946714 0.0537782 0.0580588
88 3 O 1.11082 80.9512 1.77429 -1.2 1 0.0229005 0.0183303 0.017883 0.0164127 0.033642 0.0320352 0.0254474 0.0722351 0.0343091 0.0736071 0.0344028 0.0660648 0.068428 0.0708244 0.0764659 0.0692158 0.0619005 0.0610183 0.056897 0.0640406
89 3 O -1.56748 84.7585 1.4217 -1.2 1 0.00430233 0.0202676 0.0206047 0.0295272 0.0209167 0.0398754 0.0386483 0.0469576 0.0565666 0.0406903 0.0585887 0.0410752 0.0638774 0.0768233 0.0872956 0.0826851 0.0692788 0.0679472 0.0664159 0.053542
90 3 O -0.910354 81.4882 0.417485 -1.2 1 0.0317374 0.0194928 0.0273927 0.0168926 0.0287614 0.0257124 0.0463444 0.0437864 0.0537458 0.0561725 0.0545317 0.0390628 0.0575223 0.0710381 0.0695528 0.081624 0.063869 0.0651387 0.0636789 0.0805608
91 1 Mg -2.7333 90.5297 3.28985 1.2 1 0.0231223 0.0143859 0.0140602 0.0360777 0.00744332 0.041732 0.0226445 0.0592064 0.0203592 0.076544 0.0283774 0.0451119 0.0257233 0.0683713 0.0279985 0.102112 0.0383556 0.104345 0.0436437 0.0880824
92 3 O -1.20778 81.5333 3.00594 -1.2 1 0.0142006 0.0117459 0.0249881 0.0166031 0.0256623 0.0171972 0.0540998 0.0470585 0.0415932 0.0461161 0.0640229 0.0461048 0.0632486 0.0584719 0.0892674 0.0752792 0.0753145 0.0732483 0.0603317 0.0713251
93 1 Mg -2.52789 87.3579 4.60437 1.2 1 0.0141525 0.00517667 0.016784 0.0238803 0.0157765 0.0256979 0.0236442 0.0351495 0.0411019 0.054001 0.0574638 0.0619187 0.0575703 0.0604982 0.0721552 0.0580341 0.085083 0.0828202 0.0694475 0.0767068
94 2 Si 0.180824 89.4718 4.69469 2.4 1 0.0170194 0.0177478 0.0205309 0.0297053 0.0324869 0.0333275 0.0343262 0.0360371 0.0585541 0.0472603 0.0520207 0.072033 0.0746066 0.0523393 0.0739254 0.0682824 0.0639151 0.0910803 0.0533035 0.0545927
95 3 O -1.4023 89.7538 4.69561 -1.2 1 0.0258945 0.00836547 0.0242307 0.0276369 0.0245645 0.0288698 0.0280203 0.0601041 0.0484729 0.0472353 0.0509904 0.0717003 0.0489774 0.0556478 0.0722332 0.0729804 0.0681591 0.076297 0.0499386 0.0797651
96 3 O 1.0094 85.5488 4.71359 -1.2 1 0.0137792 0.0198998 0.0183286 0.0232117 0.0154241 0.0300116 0.0454191 0.0438299 0.0554079 0.0398343 0.0514019 0.0531113 0.0538282 0.0682908 0.103469 0.0621518 0.0813254 0.0442331 0.0725264 0.0558225
97 3 O 0.792694 88.9209 3.38308 -1.2 1 0.0161275 0.0128992 0.0284595 0.0218924 0.0256225 0.0183703 0.0520053 0.0450557 0.0398782 0.0459825 0.0527976 0.0480354 0.0546749 0.0722628 0.092088 0.0771801 0.0708811 0.0534046 0.0676176 0.0739189
98 3 O 0.761395 88.7619 5.89826 -1.2 1 0.0147444 0.0205856 0.030388 0.0225982 0.026301 0.0208438 0.0401163 0.0416289 0.0363269 0.0488957 0.0606922 0.0441997 0.0557294 0.0732483 0.0814939 0.0766108 0.0735228 0.0673262 0.0700186 0.0600507
99 1 Mg -0.2388 85.2372 3.09203 1.2 1 0.0122174 0.0233952 0.0100822 0.0333705 0.00971475 0.0398252 0.0122214 0.0616116 0.0179629 0.0730993 0.0244249 0.0551367 0.0176673 0.0684923 0.0278652 0.107551 0.0405713 0.0986371 0.0386852 0.0831394
100 1 Mg -0.201114 82.3064 4.80259 1.2 1 0.0255265 0.00804277 0.0195278 0.0261965 0.0150679 0.0355467 0.0352779 0.0329083 0.0428801 0.0613359 0.0565137 0.0515266 0.0646606 0.0619299 0.0697316 0.0853864 0.0643255 0.0945889 0.0754367 0.0752801
101 2 Si 1.87207 83.9918 4.54576 2.4 1 0.012652 0.0177178 0.00994265 0.0280902 0.0340404 0.0341697 0.0372941 0.0472588 0.0634693 0.0450892 0.0579677 0.0592945 0.06906 0.0562686 0.0696082 0.0781966 0.0656213 0.0867257 0.0659674 0.0557484
102 3 O -1.35983 84.2243 4.56892 -1.2 1 0.0278335 0.0264355 0.0209557 0.0158905 0.0262895 0.0331512 0.0256864 0.0750254 0.0400344 0.0592118 0.0421862 0.073382 0.0542955 0.0722109 0.0799421 0.062797 0.0591556 0.0729568 0.0583768 0.0740367
103 3 O 0.847872 80.2938 4.66616 -1.2 1 0.00376858 0.0213617 0.0254126 0.028103 0.0179828 0.0348763 0.0359838 0.0426686 0.0592952 0.0465268 0.0478072 0.039461 0.0579937 0.0691706 0.102128 0.0605823 0.0747756 0.0495709 0.0797943 0.0574659
104 3 O 1.21985 83.467 3.27981 -1.2 1 0.0150816 0.0257822 0.0248709 0.0208227 0.0302594 0.0241954 0.0501632 0.0491392 0.0403803 0.0445838 0.0668077 0.0421503 0.0615754 0.0603407 0.0914993 0.0720254 0.071923 0.0637523 0.0556653 0.0772457
105 1 Mg 0.0687444 84.8973 0.15113 1.2 1 0.0134822 0.00717206 0.011805 0.028354 0.0183269 0.0387973 0.019089 0.0518772 0.0338726 0.0727257 0.0397132 0.0484107 0.0396202 0.0604725 0.0420891 0.0875237 0.0533243 0.105707 0.0646893 0.0759812
106 3 O 1.20968 83.2568 5.84383 -1.2 1 0.0169452 0.0186307 0.0266451 0.0148695 0.0346883 0.023637 0.0496247 0.0419267 0.0390869 0.0464987 0.0620106 0.0387679 0.0559487 0.0651371 0.0759122 0.0812648 0.0630923 0.0717777 0.0638107 0.0574573
107 1 Mg -0.21105 88.3483 1.63154 1.2 1 0.028299 0.00736889 0.0220598 0.0216496 0.0147946 0.0256559 0.0250808 0.0396405 0.0414112 0.0485334 0.0525868 0.059945 0.0542398 0.0630497 0.070608 0.0514236 0.0848356 0.0949711 0.0648409 0.0781689
108 2 Si -2.24377 86.33 1.40231 2.4 1 0.0191374 0.0209247 0.014326 0.0246414 0.0345707 0.0346009 0.0407205 0.0454564 0.0644946 0.0525578 0.0607559 0.0580452 0.0730219 0.0535324 0.0621712 0.0826809 0.0668074 0.0821642 0.0610695 0.054982
109 3 O 0.981811 86.2483 1.64832 -1.2 1 0.0209489 0.0271925 0.0115425 0.0173197 0.031719 0.0225258 0.0266674 0.0734945 0.0449528 0.070322 0.0388152 0.0666182 0.0547275 0.0679552 0.0818858 0.0663625 0.0626009 0.0653086 0.0703544 0.0691824
110 3 O -1.28164 90.0069 1.82221 -1.2 1 0.0194203 0.0177328 0.0170228 0.0257912 0.0187194 0.0351581 0.0392774 0.047361 0.0472603 0.0467265 0.0446081 0.0508126 0.0499809 0.0740236 0.104206 0.0688344 0.0748622 0.0507015 0.0683511 0.0600372
111 3 O -1.50063 87.269 0.389405 -1.2 1 0.0338232 0.0222344 0.0225885 0.0163693 0.0275506 0.0261919 0.0400906 0.0368754 0.0363255 0.0488695 0.0599465 0.0479897 0.0551934 0.066942 0.0770522 0.0782698 0.0653832 0.0612187 0.0727187 0.0532438
112 3 O -1.61466 86.8875 2.86323 -1.2 1 0.00917465 0.0206137 0.0292564 0.0225297 0.0283399 0.0232518 0.0477232 0.047081 0.0345223 0.0450059 0.0626382 0.0434683 0.0542071 0.0758552 0.081106 0.0802639 0.0696699 0.0644955 0.0587758 0.0691037
113 1 Mg -2.56133 90.3537 0.300004 1.2 1 0.0180475 0.00951569 0.0128171 0.0307626 0.0137945 0.031199 0.0206678 0.0524673 0.0328095 0.0751372 0.0262751 0.0499448 0.0315143 0.0666596 0.0330914 0.099382 0.0539811 0.112863 0.0576402 0.0870044
114 1 Mg 2.11012 93.5339 1.82704 1.2 1 0.0163355 0.0174875 0.0177966 0.0302938 0.0218557 0.0289823 0.0236731 0.0337355 0.0430027 0.058348 0.0599973 0.0545238 0.0561321 0.0626412 0.058938 0.0727043 0.0775574 0.0905248 0.0645894 0.0827318
115 2 Si -0.568766 91.5096 1.71695 2.4 1 0.00786743 0.013399 0.0268093 0.0257005 0.0361568 0.0304626 0.0462023 0.0345839 0.0459059 0.0496295 0.0524997 0.0629253 0.069795 0.0629132 0.0838397 0.0630792 0.0660878 0.0996274 0.0470257 0.0605248
116 3 O 0.923614 91.4964 1.79988 -1.2 1 0.0274144 0.0257978 0.0187237 0.0225995 0.0319271 0.0314293 0.0256582 0.0778997 0.0350743 0.0517086 0.0451599 0.0751151 0.0617229 0.0689874 0.0750662 0.0731398 0.0550608 0.0659472 0.063519 0.0801579
117 3 O -1.61601 95.2299 1.50986 -1.2 1 0.00930096 0.017804 0.0266866 0.0321512 0.0222753 0.0313 0.0358334 0.0478987 0.0458475 0.0494893 0.0454356 0.0480481 0.0534684 0.0713508 0.0906772 0.0757685 0.0643723 0.0641329 0.0658789 0.0583404
118 3 O -1.35813 92.239 0.450547 -1.2 1 0.0206571 0.018542 0.0264653 0.0190034 0.0309341 0.0214218 0.0485367 0.0432147 0.0457635 0.0432213 0.0569221 0.0508385 0.0556274 0.0554068 0.0979159 0.0609421 0.0742543 0.0606808 0.0714831 0.058968
119 1 Mg -2.81988 101.147 2.93871 1.2 1 0.00877017 0.0145269 0.0195486 0.0258203 0.0187531 0.0386835 0.0204081 0.0636267 0.0234969 0.0835597 0.0234635 0.0522523 0.0384933 0.0683151 0.0314195 0.0937666 0.0532826 0.105846 0.0497932 0.090897
120 3 O -1.2721 92.0689 2.94231 -1.2 1 0.00640457 0.0192451 0.0276132 0.0277336 0.0305612 0.0266455 0.0523656 0.0464381 0.0371673 0.0426007 0.0459745 0.0516841 0.0612667 0.0590471 0.0899724 0.0721139 0.0838653 0.0505454 0.068733 0.0688603
121 1 Mg -2.70755 98.0451 4.73254 1.2 1 0.0180092 0.0092212 0.0137739 0.0336718 0.0210176 0.028379 0.0257824 0.0306849 0.0468709 0.055447 0.057619 0.0592589 0.0564244 0.0668576 0.0726438 0.0710453 0.0784039 0.0924971 0.0665218 0.0875237
122 2 Si 0.0557922 100.095 4.63041 2.4 1 0.0179341 0.00688205 0.0235928 0.0276011 0.0313918 0.0296918 0.0375178 0.0371423 0.0606696 0.0506467 0.0465685 0.0714041 0.0695851 0.0596574 0.0787172 0.0685426 0.0683981 0.0877055 0.0571684 0.0550491
123 3 O -1.58136 100.145 4.77978 -1.2 1 0.02613 0.0254031 0.0280118 0.0201775 0.0265627 0.0279891 0.0276866 0.0593179 0.0434456 0.060664 0.0476172 0.0682859 0.0496956 0.0728501 0.0738845 0.0729596 0.0671742 0.0685363 0.0549117 0.078465
124 3 O 1.0288 96.2316 4.92162 -1.2 1 0.0135856 0.0140678 0.0226839 0.0240677 0.0183208 0.0387139 0.0420062 0.0447793 0.054647 0.0437967 0.0466579 0.0468311 0.0529956 0.0665993 0.09323 0.0757898 0.0696023 0.0622876 0.0726214 0.0523335
125 3 O 0.597391 99.4605 3.33457 -1.2 1 0.0138257 0.0188638 0.0262075 0.0199508 0.0295331 0.0199195 0.046249 0.0467553 0.0411804 0.0468964 0.0469341 0.0508356 0.0583717 0.0896997 0.0862447 0.0711534 0.0846739 0.0630674 0.0627797 0.0651248