ITEM: TIMESTEP
48200
ITEM: NUMBER OF ATOMS
5600
ITEM: BOX BOUNDS xy xz yz pp pp pp
0	7.1235	0
0	201.985	2.3745
0	119.584	0
ITEM: ATOMS id type element xu yu zu q Q_1 Q_2 Q_3 Q_4 Q_5 Q_6 Q_7 Q_8 Q_9 Q_10 Q_11 Q_12 Q_13 Q_14 Q_15 Q_16 Q_17 Q_18 Q_19 Q_20 Q_21
1 1 Mg -1.84018 48.9827 -0.862521 1.2 1 0.428596 0.0823984 0.116295 0.0535961 0.0747565 0.0483368 0.0355766 0.0473533 0.0764735 0.0755746 0.0907592 0.0768233 0.0937656 0.087874 0.114526 0.0997163 0.0875542 0.0978519 0.11236 0.108916
2 1 Mg 2.85 50.5981 2.63912 1.2 1 0.297179 0.106473 0.0395997 0.0481452 0.0475961 0.0331384 0.0716512 0.0480903 0.0567799 0.072246 0.0645554 0.0577899 0.0772303 0.0877822 0.0958408 0.100862 0.0821435 0.0664957 0.075029 0.0795249
3 2 Si 0.573805 50.6808 0.489135 2.4 1 0.262214 0.125408 0.0406907 0.0538046 0.054799 0.0428808 0.0617224 0.0393721 0.0710897 0.0711013 0.0760016 0.0676698 0.073568 0.0745688 0.111091 0.0595897 0.0843971 0.0745414 0.0825372 0.0977164
4 3 O 1.97455 49.8483 0.755001 -1.2 1 0.362738 0.0966267 0.0639324 0.0588504 0.036245 0.0493714 0.0603881 0.0669744 0.0584195 0.0780388 0.0771496 0.0752823 0.102247 0.077067 0.088585 0.0823437 0.0868836 0.0708773 0.0812531 0.0709803
5 3 O -1.35266 53.4211 1.69159 -1.2 1 0.108323 0.0507072 0.0397835 0.0188834 0.0317859 0.0350342 0.04548 0.0420081 0.0594819 0.0548751 0.0609753 0.0491208 0.0618384 0.0694204 0.0714952 0.0820091 0.0752357 0.0527561 0.068654 0.0665678
6 3 O -0.100312 49.8226 -0.611721 -1.2 1 0.361416 0.109732 0.0608817 0.0723192 0.0297431 0.0754313 0.0422568 0.0737041 0.0843132 0.079426 0.0683578 0.074261 0.0758721 0.0984768 0.0866694 0.0843219 0.0881445 0.0825762 0.0817485 0.0766643
7 1 Mg -2.43986 58.97 3.2484 1.2 1 0.014073 0.0122276 0.014651 0.0294032 0.0175081 0.038911 0.01714 0.0635637 0.021694 0.0715884 0.0322283 0.047284 0.027308 0.0687339 0.036978 0.0944914 0.0577894 0.112497 0.0433738 0.0813545
8 3 O -0.131346 50.5154 1.89185 -1.2 1 0.288125 0.135472 0.0583899 0.0390333 0.0387977 0.0455143 0.0648125 0.0639432 0.0689858 0.0796063 0.0625704 0.0686927 0.0613318 0.0654385 0.0917256 0.0806406 0.0738222 0.0886286 0.0824775 0.101216
9 1 Mg -2.37537 56.0696 4.56059 1.2 1 0.0102309 0.00963501 0.0290804 0.0268435 0.0183213 0.0376129 0.0200272 0.0342324 0.0489175 0.0520815 0.0595911 0.0571375 0.0488002 0.0749969 0.0659646 0.0627442 0.0807736 0.0848021 0.0699459 0.0643823
10 2 Si 0.146987 58.0477 4.75132 2.4 1 0.00926809 0.0170624 0.0258743 0.0273583 0.0407665 0.0307561 0.0459974 0.0396037 0.0492447 0.0518871 0.055089 0.0680698 0.0721947 0.0578507 0.0833006 0.0660474 0.0696531 0.0869568 0.0639527 0.060467
11 3 O -1.33231 58.1828 4.74861 -1.2 1 0.00626094 0.0154227 0.0199409 0.0227497 0.0208432 0.0218704 0.0273537 0.0727841 0.0362152 0.0573944 0.0359462 0.0637833 0.0652798 0.0634871 0.0719437 0.0703597 0.0624443 0.0795504 0.062609 0.0663153
12 3 O 1.69271 53.958 4.89391 -1.2 1 0.0653953 0.0451936 0.03388 0.0305128 0.0256219 0.0353362 0.0343571 0.0342749 0.0667093 0.0695773 0.0739142 0.0534907 0.0584883 0.0855483 0.0767505 0.0775946 0.0713723 0.0850689 0.0697334 0.076131
13 3 O 0.787704 57.2871 3.43508 -1.2 1 0.00791048 0.0200126 0.0179451 0.0196165 0.0205252 0.0288924 0.0391924 0.0512306 0.0339676 0.0568506 0.0531573 0.0325798 0.059969 0.0680598 0.0750793 0.0850241 0.0611659 0.0590603 0.0582459 0.0690374
14 3 O 0.903825 57.3576 5.93234 -1.2 1 0.0252932 0.022231 0.0249925 0.0126252 0.0198735 0.0278744 0.0513431 0.039095 0.0331078 0.0570505 0.0526472 0.0479554 0.0618162 0.0594385 0.0769609 0.0825806 0.0696287 0.0588015 0.0638301 0.0678828
15 1 Mg 0.299541 53.4327 3.16289 1.2 1 0.0743223 0.0754792 0.0330931 0.033444 0.0318538 0.0287105 0.0368008 0.0595271 0.0494432 0.0504043 0.0742837 0.0514882 0.0473609 0.0650405 0.0551515 0.0734791 0.0817274 0.0697067 0.0754115 0.068867
16 1 Mg 0.661282 49.2038 3.27354 1.2 1 0.430891 0.0563511 0.106482 0.0470099 0.0511011 0.0617014 0.0565776 0.0534614 0.0889243 0.0766717 0.0760543 0.0771234 0.0641677 0.0666541 0.0844746 0.0906932 0.0934016 0.0862544 0.0771111 0.0880928
17 2 Si 2.40997 52.5328 4.78555 2.4 1 0.113211 0.0986711 0.0393955 0.036397 0.0251757 0.0455687 0.0469954 0.0520196 0.070686 0.0617507 0.0846993 0.0639478 0.0750141 0.0788101 0.0728364 0.0948807 0.0737595 0.0901389 0.0710501 0.0682756
18 3 O -0.866373 52.8722 4.65349 -1.2 1 0.118341 0.0830277 0.0260819 0.0233571 0.0199101 0.0351634 0.0484295 0.0540253 0.0554593 0.0690366 0.0538078 0.0753887 0.0649783 0.0699675 0.075823 0.0809392 0.0752297 0.0666313 0.0845084 0.0550138
19 3 O 2.56926 48.647 3.40299 -1.2 1 0.480304 0.0433555 0.119065 0.0460099 0.085361 0.0440867 0.0685965 0.0981401 0.0873621 0.0714031 0.0850276 0.0727537 0.0754605 0.0935647 0.0972362 0.0893168 0.107967 0.116804 0.0999336 0.0933371
20 3 O 1.63894 51.7883 3.34839 -1.2 1 0.191424 0.103133 0.0217531 0.038989 0.0254496 0.0531662 0.034089 0.0655469 0.0501455 0.0570665 0.076139 0.0765793 0.061513 0.0783728 0.0738108 0.0674527 0.0815291 0.0685471 0.0682331 0.0836939
21 1 Mg -0.221596 54.0054 0.102249 1.2 1 0.0772299 0.0456998 0.0376784 0.0260801 0.0229865 0.0284943 0.0325448 0.0588174 0.0489275 0.0606787 0.0468531 0.054228 0.0584036 0.062997 0.0692942 0.0820684 0.0729896 0.0808466 0.0686747 0.0741828
22 3 O 1.83245 51.5843 5.89774 -1.2 1 0.208457 0.103154 0.0251725 0.0438361 0.0341698 0.0418835 0.0517711 0.0648085 0.0643326 0.0585567 0.0681911 0.0826425 0.0627056 0.0862353 0.0698463 0.0713002 0.0716133 0.0770751 0.0693155 0.076398
23 1 Mg -0.177912 56.9568 1.62383 1.2 1 0.0166473 0.0108711 0.0244827 0.0269929 0.013013 0.0304925 0.0285854 0.039459 0.0398604 0.0494909 0.0545038 0.059753 0.0539872 0.068507 0.0625638 0.0687 0.0791225 0.0862592 0.0699253 0.070751
24 2 Si -2.05823 54.7569 1.83697 2.4 1 0.0257527 0.027171 0.029632 0.0222692 0.0211423 0.0427663 0.0478297 0.052387 0.0520882 0.0600874 0.0539257 0.0587716 0.0772773 0.0446982 0.0543032 0.0717913 0.0761664 0.0725497 0.0690395 0.0559411
25 3 O 1.15707 54.5935 1.68478 -1.2 1 0.0250849 0.0407843 0.0346393 0.0106366 0.0269923 0.0301382 0.0267196 0.0522488 0.0575574 0.0518351 0.0681869 0.0562322 0.0479148 0.0708957 0.0752948 0.0685969 0.0606047 0.0736954 0.0448986 0.0757265
26 3 O -1.07257 58.7883 1.80333 -1.2 1 0.0153679 0.0241803 0.0185966 0.0216358 0.0174057 0.0358696 0.0374113 0.0404907 0.0608332 0.0341608 0.0479515 0.0363981 0.0480137 0.0742864 0.0965138 0.0636748 0.0718197 0.0502895 0.0788987 0.0619725
27 3 O -1.60168 55.5742 0.48719 -1.2 1 0.0262756 0.0220037 0.0186342 0.0218602 0.0225594 0.0337732 0.048352 0.039212 0.0291523 0.0505886 0.0640749 0.0479912 0.057664 0.0679993 0.0730085 0.0807441 0.0666849 0.0667999 0.0766009 0.0680332
28 3 O -1.36667 55.6396 3.00649 -1.2 1 0.015728 0.0150731 0.0250366 0.029053 0.0198297 0.0254608 0.0497289 0.0421853 0.0394065 0.0424704 0.0688875 0.0501194 0.0568728 0.0703353 0.0794708 0.0781821 0.0559953 0.0690536 0.0654194 0.0667177
29 1 Mg -2.34767 59.2369 0.387109 1.2 1 0.0218912 0.0166785 0.0128415 0.0215463 0.016778 0.028059 0.0185465 0.0551416 0.0169745 0.0760809 0.0322837 0.0475461 0.0284666 0.0725003 0.0292996 0.0944043 0.0422846 0.110172 0.0410602 0.0854596
30 1 Mg 2.22208 62.0477 1.80987 1.2 1 0.01259 0.00929935 0.0199118 0.0297764 0.0205858 0.025825 0.0268807 0.0281386 0.0458011 0.0610829 0.0588286 0.0510029 0.0651947 0.0681566 0.0626982 0.0850124 0.0730245 0.0942478 0.0665276 0.0821563
31 2 Si -0.282505 60.203 1.86637 2.4 1 0.00358275 0.0135814 0.0130421 0.0274326 0.037258 0.0309777 0.0468713 0.0356583 0.0512155 0.0615615 0.0565047 0.0655051 0.0632154 0.0608919 0.0789227 0.0658636 0.0630874 0.0833353 0.0625181 0.0618567
32 3 O 1.2521 60.186 1.9308 -1.2 1 0.0227973 0.0263727 0.0217666 0.0243226 0.0243548 0.0276482 0.0188319 0.078536 0.040358 0.0572625 0.0337666 0.0661238 0.0545642 0.073291 0.064544 0.0593565 0.0550593 0.072205 0.0702238 0.0683841
33 3 O -1.66163 63.9617 2.08568 -1.2 1 0.00336437 0.0190276 0.0151469 0.0312312 0.0209805 0.0363771 0.0299706 0.045416 0.0563019 0.0451978 0.0472156 0.0387429 0.0642027 0.0689385 0.0895578 0.0809965 0.0649151 0.0641969 0.0714572 0.0560434
34 3 O -1.03299 60.8851 0.520713 -1.2 1 0.0142039 0.0128189 0.0346043 0.0274822 0.0222996 0.0192336 0.043519 0.0493943 0.0418073 0.0468796 0.0538494 0.0387242 0.0552593 0.0742216 0.0770781 0.0813557 0.073852 0.0583449 0.0674684 0.0627737
35 1 Mg -2.3128 69.5208 3.35129 1.2 1 0.0114311 0.0181873 0.0151595 0.0339837 0.0126201 0.037054 0.0135837 0.0616474 0.0312447 0.070579 0.0234145 0.0470989 0.0308156 0.0650835 0.0426537 0.0946426 0.0532316 0.104638 0.0560477 0.0832297
36 3 O -1.0892 61.0267 3.07186 -1.2 1 0.00584765 0.0180367 0.0251142 0.0196873 0.0255807 0.0294188 0.0500336 0.036454 0.0371683 0.0498086 0.0545916 0.0423491 0.0543421 0.0548712 0.0777367 0.0778239 0.0668147 0.0748088 0.0637908 0.06892
37 1 Mg -2.24205 66.7407 4.88935 1.2 1 0.0309206 0.0103379 0.0196347 0.0255414 0.016544 0.0297474 0.0243803 0.0386814 0.0435177 0.0582599 0.0640791 0.0554362 0.0531762 0.0598442 0.0684954 0.0730563 0.0771317 0.0832835 0.080553 0.0678016
38 2 Si 0.314919 68.714 4.79144 2.4 1 0.00624991 0.00869498 0.0222676 0.0337336 0.0374327 0.0306082 0.0431762 0.0460139 0.0576861 0.0542565 0.0473103 0.0656674 0.0664886 0.0556068 0.0762632 0.0704529 0.0627999 0.0942158 0.0527609 0.056369
39 3 O -1.22539 68.7827 4.76412 -1.2 1 0.0200603 0.0174714 0.0248176 0.0241699 0.0267561 0.0301933 0.0302581 0.0784141 0.0457977 0.0528145 0.0440031 0.069472 0.0566168 0.0645504 0.0748851 0.0651949 0.0623854 0.0756446 0.0549739 0.0707046
40 3 O 1.24481 64.8578 4.75641 -1.2 1 0.0135933 0.0220439 0.0231365 0.0161062 0.0168534 0.0340004 0.0410594 0.0434679 0.0583915 0.0408928 0.0478655 0.0388524 0.0515963 0.0708884 0.101172 0.0678324 0.0749713 0.0504982 0.0813468 0.0634361
41 3 O 1.11639 67.9729 3.58957 -1.2 1 0.00994616 0.0155319 0.026875 0.0233561 0.0290903 0.0282185 0.0553396 0.0472535 0.0356199 0.0436307 0.0577911 0.0452239 0.0605438 0.0581325 0.0945957 0.0611608 0.0661866 0.0720919 0.0563785 0.0657158
42 3 O 0.778141 68.1266 6.1452 -1.2 1 0.0154999 0.0115128 0.0351594 0.0204465 0.0307223 0.0228118 0.045912 0.0398105 0.0474466 0.0518351 0.0474846 0.0385487 0.0539849 0.0707712 0.0648404 0.0768663 0.0813827 0.0650788 0.0715603 0.082996
43 1 Mg -0.137434 64.3964 3.46671 1.2 1 0.0115123 0.0252493 0.0101654 0.0292136 0.0100302 0.0370405 0.0161932 0.0594557 0.0163122 0.0763174 0.0213786 0.0457089 0.0258652 0.0681784 0.0304384 0.104562 0.0428226 0.112409 0.0390914 0.0901675
44 1 Mg -0.051415 61.4361 4.55264 1.2 1 0.0209537 0.0287871 0.0200176 0.0328653 0.0165831 0.028939 0.0256237 0.0326022 0.0431464 0.0615145 0.0547092 0.0504341 0.0593634 0.067484 0.070447 0.0659688 0.0782963 0.0968428 0.0686628 0.0715506
45 2 Si 1.95872 63.3502 4.71057 2.4 1 0.0293312 0.0067386 0.0230317 0.0260867 0.0331168 0.0302456 0.0414163 0.0428374 0.0444521 0.0482537 0.0495962 0.0611009 0.0742738 0.0562116 0.0760746 0.0787851 0.0622232 0.0950568 0.0634801 0.0515882
46 3 O -1.31797 63.4422 4.83966 -1.2 1 0.0295855 0.0084637 0.0174306 0.0200196 0.0280148 0.0300014 0.0236148 0.0697097 0.0428104 0.0550964 0.042914 0.066562 0.0585474 0.0646155 0.0741141 0.0633013 0.0697943 0.0671135 0.0655112 0.0773758
47 3 O 0.858208 59.5471 4.58069 -1.2 1 0.0215287 0.0189583 0.0203731 0.0248833 0.0125364 0.0403284 0.0315916 0.0427677 0.0568331 0.0416362 0.0477317 0.0416863 0.0619441 0.0720903 0.0886218 0.0789935 0.0657771 0.0539063 0.0830624 0.0592764
48 3 O 1.25308 62.6968 3.50011 -1.2 1 0.00919217 0.013992 0.0252781 0.0220784 0.0233594 0.0171824 0.046396 0.0435022 0.0419547 0.04589 0.0545631 0.0456162 0.0528658 0.0559661 0.0836475 0.0716504 0.071556 0.0683497 0.0654814 0.0714186
49 1 Mg -0.0740405 64.5091 0.421421 1.2 1 0.00589075 0.0100534 0.00778189 0.0304091 0.0109575 0.0368817 0.0122719 0.0609319 0.0152723 0.0826963 0.0204417 0.053071 0.0181223 0.0693245 0.0177207 0.106771 0.0245157 0.102948 0.0271626 0.0986387
50 3 O 1.36827 62.7198 6.14068 -1.2 1 0.0125804 0.0198093 0.0201513 0.0235363 0.0225806 0.0268166 0.0534663 0.0489458 0.0362085 0.0497923 0.0529926 0.0431781 0.0573949 0.0679139 0.0798491 0.078023 0.0712412 0.0655468 0.0637198 0.0803181
51 1 Mg -0.0797258 67.4109 1.78443 1.2 1 0.0151622 0.011487 0.02196 0.0279023 0.0139584 0.0252133 0.0257445 0.0325128 0.0445126 0.0601804 0.0533469 0.0611917 0.0585523 0.0643107 0.064718 0.064116 0.0736457 0.107854 0.0646886 0.0922383
52 2 Si -2.15044 65.5198 1.86013 2.4 1 0.0189901 0.0143572 0.0146033 0.0296397 0.0347684 0.0293609 0.0443689 0.0413569 0.0528099 0.0631876 0.0493206 0.0644627 0.0728796 0.0519922 0.0762225 0.0680796 0.066524 0.0983979 0.0584355 0.0633507
53 3 O 0.989956 65.4444 1.85812 -1.2 1 0.02259 0.0210124 0.0185433 0.0171259 0.0179202 0.029522 0.0230852 0.0709962 0.0382754 0.0578607 0.0332873 0.0722713 0.055834 0.0727116 0.0709646 0.0680912 0.0629855 0.0736397 0.0643259 0.0699717
54 3 O -1.05377 69.2495 1.84195 -1.2 1 0.011926 0.0151381 0.0224891 0.0239318 0.0187889 0.0381423 0.0371024 0.0416709 0.052071 0.0429758 0.0449078 0.0453879 0.0503963 0.0731417 0.0965072 0.0748708 0.0744684 0.0474766 0.0649741 0.0680536
55 3 O -1.50784 66.0179 0.546858 -1.2 1 0.0185905 0.00792451 0.0227644 0.0268631 0.0303526 0.02124 0.0498758 0.0409408 0.0397517 0.0389176 0.0559694 0.0420118 0.0517857 0.0666031 0.0864168 0.0682505 0.0821466 0.0615988 0.0713444 0.0606598
56 3 O -1.47505 66.3443 3.09281 -1.2 1 0.00545296 0.0190424 0.0191864 0.0171153 0.0334821 0.0244182 0.0498937 0.036626 0.0385534 0.0433188 0.0611106 0.0344171 0.0579851 0.0645923 0.0743619 0.0765359 0.0601093 0.0664536 0.0661403 0.0631832
57 1 Mg -2.57707 69.6458 0.452815 1.2 1 0.0101884 0.00756043 0.0137881 0.0345272 0.0113528 0.03949 0.0200561 0.0570313 0.031883 0.0721837 0.0234566 0.045244 0.0295812 0.0714772 0.0292439 0.100292 0.0407861 0.107876 0.0547875 0.0799194
58 1 Mg 2.33671 72.7377 1.70576 1.2 1 0.0154327 0.0101731 0.0181014 0.0285664 0.0161973 0.0312753 0.0244304 0.0379526 0.0427466 0.0497875 0.0542809 0.0517103 0.0571182 0.0706761 0.0691763 0.0693189 0.0710859 0.0963409 0.0721864 0.0791458
59 2 Si -0.438213 70.8033 1.85868 2.4 1 0.0236584 0.0179833 0.0201093 0.0219416 0.0375017 0.0297349 0.0383639 0.0403078 0.0524488 0.0471244 0.0567488 0.070245 0.0731792 0.060411 0.0703031 0.0729802 0.0641884 0.0884305 0.0596569 0.0582511
60 3 O 1.16801 70.5764 1.83356 -1.2 1 0.0240776 0.0212395 0.0179961 0.0200547 0.0227208 0.0248369 0.0268859 0.0676057 0.0509266 0.0531658 0.0423028 0.0789891 0.0543706 0.0649084 0.0804686 0.0719609 0.0619646 0.073223 0.0529142 0.0831347
61 3 O -1.5963 74.5819 1.76149 -1.2 1 0.0178573 0.0193327 0.02323 0.0274446 0.0174883 0.0354047 0.0334922 0.0460384 0.0545995 0.0367702 0.0486886 0.0474869 0.0571256 0.0670369 0.0974112 0.0685426 0.0710302 0.0548574 0.0625229 0.0592392
62 3 O -1.13223 71.4821 0.438 -1.2 1 0.0282883 0.0133545 0.0267626 0.0236529 0.0247371 0.0229901 0.0485413 0.039479 0.037741 0.0471287 0.0657 0.0356975 0.0492622 0.0615979 0.0806412 0.0789004 0.0728124 0.058875 0.0477205 0.0633549
63 1 Mg -2.51804 80.1832 3.08378 1.2 1 0.0181785 0.0144764 0.011755 0.0312202 0.0125146 0.0372379 0.0132838 0.0564769 0.0142905 0.080671 0.0260157 0.0492649 0.0269911 0.0687033 0.0321253 0.0996027 0.0453852 0.105855 0.0413187 0.087787
64 3 O -1.13763 71.5494 3.01687 -1.2 1 0.0227192 0.0144198 0.0242248 0.0176471 0.0263005 0.0244196 0.0417358 0.036799 0.0363834 0.0516661 0.0490018 0.0401112 0.0618255 0.0618138 0.08646 0.0744602 0.0817302 0.0681415 0.0672435 0.0664425
65 1 Mg -2.32398 77.4154 4.92421 1.2 1 0.0172016 0.0175554 0.0149751 0.0268968 0.020508 0.0263498 0.0307942 0.0348178 0.0439454 0.0626932 0.056581 0.0479209 0.067498 0.0631611 0.0717541 0.0800679 0.0721243 0.0884271 0.0794871 0.0716052
66 2 Si 0.196737 79.3152 4.47053 2.4 1 0.0110378 0.015211 0.0302983 0.0270044 0.029156 0.0302505 0.0353837 0.0402388 0.048753 0.0512106 0.0533529 0.0552151 0.0730582 0.0573361 0.0834283 0.068059 0.0670872 0.0891791 0.0697391 0.0488528
67 3 O -1.26214 79.3017 4.45359 -1.2 1 0.0251686 0.00966612 0.0218137 0.0195955 0.0262145 0.0256456 0.0219541 0.0626931 0.0422293 0.0551906 0.0369175 0.0647703 0.06021 0.0693389 0.0729406 0.0622041 0.0713344 0.0697726 0.0659314 0.0533159
68 3 O 1.37951 75.6692 4.86124 -1.2 1 0.014326 0.0206428 0.0206749 0.0251995 0.0197623 0.0311252 0.0327843 0.0452346 0.0517438 0.0546228 0.0444349 0.0450404 0.0522798 0.073301 0.0983528 0.0721587 0.0728448 0.0618884 0.0597271 0.0630618
69 3 O 1.0113 78.7474 3.1753 -1.2 1 0.015634 0.0122603 0.0242277 0.0265191 0.0288935 0.0205267 0.0463166 0.0477851 0.0465828 0.0416331 0.0537892 0.0400901 0.0529277 0.0589891 0.0958181 0.0700474 0.0671327 0.0636129 0.0548497 0.0775723
70 3 O 0.933314 78.5725 5.71842 -1.2 1 0.00578389 0.00876824 0.0247009 0.028645 0.0275026 0.0228242 0.047099 0.0422526 0.0400332 0.0427269 0.0490641 0.0422001 0.0605834 0.0555265 0.0852926 0.0683223 0.0814801 0.0675193 0.0640909 0.0675195
71 1 Mg -0.146533 74.9935 3.30132 1.2 1 0.00632026 0.0211573 0.00651405 0.0313728 0.00997487 0.0387508 0.0117596 0.0596391 0.0167616 0.0850547 0.0197663 0.0559587 0.0235454 0.0731063 0.0222498 0.0981511 0.0344638 0.108889 0.0313197 0.0966663
72 1 Mg -0.133156 71.9172 4.75639 1.2 1 0.0107895 0.00969649 0.0192667 0.0322903 0.0162975 0.0238152 0.0245313 0.0350123 0.0386916 0.0569565 0.0551748 0.0645444 0.0603317 0.0557938 0.0713678 0.0618852 0.0805864 0.0823223 0.0760319 0.068191
73 2 Si 1.91958 74.0891 4.64229 2.4 1 0.0110881 0.0157114 0.024381 0.0343191 0.0328539 0.0299185 0.0396857 0.0483592 0.0542103 0.0516348 0.0513729 0.0673181 0.0790785 0.0532407 0.0748554 0.0690147 0.0587754 0.0927776 0.0501168 0.0568512
74 3 O -1.31119 74.2037 4.72113 -1.2 1 0.0256825 0.0127627 0.0186782 0.0277431 0.0317015 0.025061 0.0299777 0.0711375 0.049616 0.0512297 0.0460378 0.0725512 0.0477349 0.0671551 0.0769661 0.0672623 0.0574628 0.0718989 0.0575998 0.079867
75 3 O 1.05158 70.3194 4.81627 -1.2 1 0.0114471 0.0253852 0.0234648 0.0188655 0.0212081 0.0321478 0.0401928 0.0473318 0.0447476 0.0472251 0.0413842 0.05049 0.0461674 0.0641093 0.102044 0.0676509 0.0765082 0.0623996 0.0637103 0.0614147
76 3 O 1.19833 73.5402 3.3719 -1.2 1 0.013284 0.0159061 0.028666 0.0240102 0.0297101 0.0272273 0.052623 0.0390642 0.0436311 0.0404795 0.0560035 0.0464211 0.0605459 0.0511896 0.088764 0.0702523 0.0749779 0.0706176 0.0733086 0.0657699
77 1 Mg -0.267497 75.1658 0.266761 1.2 1 0.0227919 0.0113832 0.011973 0.0325377 0.0107082 0.031333 0.00989378 0.0580402 0.0202324 0.0726219 0.0307387 0.0471179 0.0285977 0.0714039 0.0336324 0.105209 0.0539784 0.0987621 0.0532452 0.0791623
78 3 O 1.27725 73.3292 5.83079 -1.2 1 0.0148232 0.0118933 0.0293691 0.0290412 0.0337666 0.0256267 0.0461191 0.0470409 0.031637 0.0458004 0.04913 0.0437149 0.0550038 0.0630294 0.082247 0.0721473 0.0711046 0.0593615 0.0660604 0.0594032
79 1 Mg -0.0897427 78.0239 1.48397 1.2 1 0.016679 0.0146505 0.0140398 0.0279402 0.0197728 0.0296118 0.0191856 0.0373488 0.0468656 0.0499581 0.0578827 0.0589582 0.0626735 0.0648685 0.0736703 0.0762877 0.0788988 0.0885042 0.0722815 0.079248
80 2 Si -2.28874 76.1404 1.89764 2.4 1 0.0103136 0.0150083 0.0212382 0.0325973 0.0343354 0.0259895 0.0349795 0.0406628 0.0540516 0.0610279 0.0512831 0.0579044 0.0687932 0.0532525 0.0672842 0.0862865 0.0680204 0.0792124 0.0717545 0.0591621
81 3 O 0.855239 76.0211 1.77838 -1.2 1 0.0151876 0.0179441 0.0136302 0.0166892 0.0278754 0.0291157 0.021579 0.0731972 0.0346106 0.0613751 0.0385415 0.0594117 0.0631395 0.0661224 0.0755332 0.0655129 0.0599732 0.0686257 0.0671737 0.0673448
82 3 O -1.20622 79.9254 1.54602 -1.2 1 0.00910274 0.00867253 0.022876 0.0178611 0.0151436 0.0330574 0.0386187 0.0429278 0.0559225 0.042561 0.0443722 0.043929 0.0504234 0.0722963 0.101181 0.0703037 0.0778528 0.0525054 0.0707997 0.0531244
83 3 O -1.81512 76.9393 0.636641 -1.2 1 0.0167054 0.0172332 0.0212626 0.0154362 0.0333397 0.03251 0.0449134 0.0457823 0.0393353 0.060476 0.0515852 0.040838 0.052652 0.068135 0.0708127 0.0750313 0.0716482 0.067896 0.0653036 0.0719296
84 3 O -1.5567 76.7416 3.16258 -1.2 1 0.00225793 0.0204774 0.0197019 0.0137075 0.0272061 0.0258206 0.0430619 0.0459431 0.0409412 0.0509042 0.0553331 0.0366952 0.0628467 0.069611 0.0825624 0.0815137 0.0740611 0.0730894 0.0593727 0.0698601
85 1 Mg -2.47464 80.4391 0.0096231 1.2 1 0.0143693 0.0187742 0.00854968 0.0347565 0.00896591 0.0339353 0.0207648 0.062659 0.0228649 0.0793809 0.0249823 0.0487322 0.0229247 0.0674964 0.0291235 0.100793 0.04802 0.105557 0.052438 0.0821867
86 1 Mg 2.24196 83.1378 1.72822 1.2 1 0.0255052 0.0149299 0.0155839 0.02856 0.0120055 0.0251075 0.028271 0.0385213 0.0410951 0.0605619 0.0579391 0.0532706 0.0618238 0.0665953 0.0625646 0.0749206 0.0736487 0.101751 0.072268 0.0761861
87 2 Si -0.448986 81.4372 1.4408 2.4 1 0.0103755 0.0152268 0.0163935 0.0318705 0.0353569 0.0281178 0.0382375 0.0455368 0.0518247 0.0534043 0.0517136 0.0665705 0.0715371 0.0543185 0.0651197 0.0749734 0.0608007 0.0984556 0.0595451 0.0562632
88 3 O 1.12318 81.3736 1.45187 -1.2 1 0.0315054 0.0170655 0.0106857 0.0238498 0.0291043 0.0207391 0.0268241 0.0649735 0.0433428 0.0621563 0.0385773 0.0643845 0.0662734 0.0662812 0.0680644 0.0604801 0.0611456 0.0617917 0.0714797 0.0579843
89 3 O -1.27388 85.0096 1.57608 -1.2 1 0.0119975 0.0129976 0.0242542 0.022418 0.0204532 0.0372424 0.0343868 0.0407693 0.0520547 0.0438783 0.041298 0.0522376 0.0549351 0.0665819 0.105595 0.0753438 0.0734496 0.054914 0.0730082 0.0597228
90 3 O -1.14752 82.0755 0.0871566 -1.2 1 0.00943988 0.0138938 0.0279108 0.0198883 0.0186725 0.0201115 0.0493489 0.0475256 0.0404383 0.0432796 0.054054 0.0392728 0.0567946 0.0522323 0.0882599 0.0746904 0.0647034 0.0627817 0.0573329 0.0776836
91 1 Mg -2.53779 90.7802 2.812 1.2 1 0.00861867 0.0151856 0.0138674 0.0301658 0.0102321 0.0353081 0.0152616 0.0585173 0.0247998 0.0803963 0.0280094 0.0509883 0.0312332 0.0656946 0.0349151 0.104166 0.042448 0.104788 0.042811 0.0847417
92 3 O -1.06831 81.9536 2.77775 -1.2 1 0.0154562 0.0107934 0.0288085 0.0188933 0.0256826 0.0224892 0.0428097 0.0413712 0.0369358 0.0405313 0.0480632 0.0437405 0.0576067 0.0601683 0.0896918 0.0652605 0.0800395 0.0581675 0.0674845 0.0715282
93 1 Mg -2.38283 87.7392 4.37188 1.2 1 0.0182114 0.0113464 0.0180583 0.0313587 0.00955995 0.0216784 0.0235419 0.0381082 0.0391501 0.0594122 0.0595844 0.0598691 0.054521 0.0643186 0.0625188 0.0661448 0.0733557 0.0986474 0.0757753 0.0835341
94 2 Si 0.239557 89.66 4.46823 2.4 1 0.0176274 0.0198382 0.0222839 0.0315651 0.0302077 0.029981 0.0375975 0.0398121 0.0437831 0.059389 0.0550992 0.0604129 0.0625617 0.0573364 0.0822821 0.0659254 0.0665096 0.0908487 0.0536163 0.0686802
95 3 O -1.36313 89.7039 4.41012 -1.2 1 0.0210832 0.0143843 0.00904647 0.0207824 0.0203817 0.0197788 0.0226883 0.0636762 0.0391119 0.0653672 0.0326518 0.0665499 0.0520855 0.0665757 0.0697565 0.0662402 0.057394 0.0692432 0.0622156 0.0819313
96 3 O 1.38128 85.9576 4.54112 -1.2 1 0.0078778 0.0213677 0.023885 0.015891 0.0199041 0.0364258 0.0325664 0.0460649 0.0585478 0.0427049 0.0437791 0.044438 0.0518193 0.0648276 0.106418 0.0720802 0.0641885 0.0496007 0.0683239 0.0677352
97 3 O 0.982384 88.9847 3.20249 -1.2 1 0.00606764 0.0213851 0.0282741 0.0208807 0.021587 0.0260859 0.0408062 0.0383712 0.0271952 0.0485762 0.0521012 0.0387785 0.054607 0.0528408 0.0834733 0.0740771 0.0771949 0.0624469 0.0660565 0.0635272
98 3 O 1.0275 89.1055 5.71346 -1.2 1 0.0225998 0.0123145 0.0303133 0.0201934 0.024712 0.0190444 0.0422331 0.0392916 0.0382594 0.033349 0.0584241 0.041477 0.0494616 0.0597221 0.0889196 0.0670258 0.079817 0.0560495 0.0721762 0.0582928
99 1 Mg 0.105629 85.5297 3.03014 1.2 1 0.0119566 0.0142377 0.00809045 0.0308282 0.00588753 0.0320211 0.0150026 0.0568969 0.0203291 0.0815817 0.0226865 0.0479784 0.0211717 0.0717701 0.0274623 0.10119 0.0340232 0.108908 0.0334299 0.0941427
100 1 Mg -0.156182 82.6707 4.48817 1.2 1 0.00885797 0.00706597 0.0198192 0.0308713 0.0229645 0.02435 0.0220661 0.027868 0.0409067 0.0592095 0.0645679 0.0566003 0.0608186 0.0679064 0.0591097 0.0886248 0.0720696 0.0959783 0.0669676 0.0812999
101 2 Si 2.09653 84.5725 4.68404 2.4 1 0.0124023 0.0138453 0.0195606 0.0246617 0.0260174 0.0275926 0.035307 0.0438197 0.0506268 0.0649366 0.053812 0.0591018 0.0556541 0.0580603 0.0869736 0.0677083 0.0740505 0.0830922 0.0626964 0.062028
102 3 O -1.14563 84.5705 4.58371 -1.2 1 0.0215483 0.0180702 0.0145335 0.0248154 0.0193265 0.0275049 0.0286297 0.0698583 0.0421042 0.0562977 0.0342052 0.068194 0.0559144 0.0628441 0.0727679 0.0674879 0.0610229 0.070116 0.0600397 0.0788382
103 3 O 0.891934 80.7901 4.69265 -1.2 1 0.0130883 0.0182453 0.032222 0.0179119 0.0172641 0.0298801 0.0344697 0.0469119 0.0546165 0.041707 0.0469232 0.0405302 0.053418 0.0657371 0.103456 0.0705016 0.0645003 0.0516197 0.0653372 0.0571745
104 3 O 1.33631 83.7641 3.38254 -1.2 1 0.0180828 0.0168619 0.0243169 0.0162966 0.0180621 0.0248968 0.0422278 0.0480463 0.0403002 0.0524764 0.0497065 0.0460253 0.0541761 0.0667727 0.0873283 0.0673014 0.0736607 0.0623827 0.0630825 0.0634356
105 1 Mg 0.086726 85.3774 -0.0416148 1.2 1 0.00802321 0.0201392 0.00821291 0.024417 0.0115816 0.0327852 0.0121261 0.0552883 0.0177531 0.0840711 0.0247673 0.0520844 0.0238324 0.0663531 0.0282003 0.0919144 0.0426023 0.108594 0.0327053 0.0864815
106 3 O 1.27011 84.0578 6.07598 -1.2 1 0.0171608 0.0188341 0.0329337 0.0230724 0.0299015 0.0305431 0.0483052 0.040186 0.0589463 0.0434935 0.0474646 0.046246 0.0559654 0.0520388 0.0852156 0.0699473 0.0682411 0.069673 0.0775558 0.07189
107 1 Mg 0.293261 88.3518 1.4291 1.2 1 0.0214312 0.0166294 0.0228828 0.0406818 0.0215495 0.0258074 0.0260078 0.0435568 0.0367612 0.0569967 0.0680641 0.0503191 0.0551191 0.0680428 0.0704377 0.0798367 0.0752794 0.0710072 0.0832091 0.0648744
108 2 Si -1.87142 86.4699 1.48927 2.4 1 0.02184 0.0157249 0.0193693 0.0394856 0.0277917 0.0289551 0.038926 0.0402998 0.0540735 0.0485436 0.0473028 0.0783397 0.0747463 0.0624988 0.0717776 0.0702361 0.0683519 0.100122 0.0600215 0.0562865
109 3 O 1.27999 86.4458 1.54825 -1.2 1 0.0242331 0.00940757 0.0175112 0.0258567 0.0221509 0.0213548 0.0260971 0.0624949 0.0398989 0.0480399 0.0472477 0.0716005 0.0620393 0.0668125 0.0688237 0.065902 0.0644876 0.0709382 0.064495 0.0701229
110 3 O -0.917042 90.2834 1.37628 -1.2 1 0.0123795 0.0236645 0.0203102 0.022501 0.0197472 0.0328549 0.0331968 0.0394313 0.058572 0.0440641 0.0460439 0.0371658 0.0584623 0.0700874 0.0963609 0.0648574 0.0703857 0.0481844 0.072162 0.0618702
111 3 O -1.19211 87.0975 0.225911 -1.2 1 0.0108223 0.0189371 0.0291576 0.0332216 0.0279537 0.0199301 0.042737 0.0368675 0.043803 0.0466289 0.0538035 0.0382418 0.060149 0.0459303 0.0890988 0.0665295 0.0690785 0.0629538 0.064174 0.0665512
112 3 O -1.32555 87.0865 2.8738 -1.2 1 0.00732811 0.0247618 0.0339069 0.0201455 0.0182499 0.02172 0.0360745 0.0472993 0.0401367 0.0469733 0.0493077 0.0439076 0.0484212 0.0564349 0.0861832 0.0668623 0.0716801 0.0645924 0.0609392 0.0721
113 1 Mg -2.33833 90.5433 0.0713 1.2 1 0.0224283 0.0154877 0.0141945 0.0305695 0.00908489 0.0297938 0.0161262 0.052234 0.0224505 0.0794629 0.0229929 0.0558395 0.0253227 0.0767724 0.0285258 0.102962 0.044382 0.104698 0.0434157 0.079449
114 1 Mg 2.1526 93.5899 1.32483 1.2 1 0.0203283 0.0134527 0.0205847 0.0318131 0.0186077 0.0215537 0.0241921 0.0383867 0.0354987 0.0613149 0.0607268 0.0535939 0.05808 0.0629505 0.0717613 0.0662492 0.0755878 0.0865523 0.083827 0.0650475
115 2 Si -0.412757 91.755 1.49489 2.4 1 0.017519 0.0147051 0.0163285 0.033074 0.0245303 0.0341975 0.0382962 0.0409657 0.0504274 0.0534824 0.0517092 0.0627777 0.0684772 0.0610383 0.0684347 0.0814833 0.0555752 0.093048 0.060694 0.0569074
116 3 O 1.13643 91.615 1.46789 -1.2 1 0.0221652 0.0126473 0.0155421 0.0267528 0.0258311 0.0259368 0.0238167 0.0653033 0.0424608 0.0572965 0.0423186 0.0668545 0.0564825 0.0567717 0.0624948 0.0587142 0.0621894 0.0649792 0.0629506 0.0707619
117 3 O -1.44562 95.3894 1.49069 -1.2 1 0.0151843 0.0183305 0.0227656 0.0233959 0.0193236 0.0343044 0.0333689 0.0501526 0.0551106 0.0431138 0.0464798 0.0426315 0.0534721 0.0654442 0.103496 0.0735482 0.0674691 0.052564 0.0745893 0.0622569
118 3 O -1.10081 92.4904 0.218785 -1.2 1 0.0217222 0.00933561 0.0311468 0.0142744 0.0244255 0.0177486 0.0420788 0.0423491 0.0357695 0.0503124 0.055738 0.0357829 0.0586259 0.0511727 0.0809291 0.0795227 0.0698442 0.0707038 0.0642266 0.060776
119 1 Mg -2.35988 101.17 3.06534 1.2 1 0.010723 0.0130434 0.0131845 0.0252089 0.00967556 0.0360982 0.0211478 0.0567066 0.0237907 0.0772501 0.0228111 0.045085 0.0239283 0.0683598 0.0305675 0.105189 0.0463192 0.104026 0.0535689 0.0790264
120 3 O -1.12197 92.279 2.71983 -1.2 1 0.0204353 0.00694801 0.0258958 0.0190273 0.0226148 0.0194873 0.0454721 0.0425353 0.0388929 0.0489096 0.0500547 0.0404176 0.0546879 0.061698 0.0791934 0.069428 0.0716058 0.0650947 0.0615246 0.0648346
121 1 Mg -2.16937 98.1627 4.35136 1.2 1 0.0358719 0.0126866 0.0178361 0.0313961 0.0145795 0.0279927 0.0243772 0.0369124 0.0418248 0.0515403 0.0620445 0.0544086 0.0589374 0.0568061 0.0672994 0.0863187 0.072774 0.0835683 0.0805138 0.0733403
122 2 Si 0.395546 100.134 4.47578 2.4 1 0.00869852 0.014258 0.0256848 0.0282123 0.0343554 0.0253285 0.0431917 0.0443774 0.0528598 0.0554878 0.055467 0.0690412 0.073362 0.0658833 0.0872002 0.0694008 0.0651305 0.089309 0.057438 0.0558894
123 3 O -1.07284 100.168 4.41581 -1.2 1 0.0139901 0.0147353 0.0220738 0.0181164 0.025851 0.0274185 0.0343269 0.0721376 0.0391807 0.0534583 0.0393742 0.0770496 0.0613643 0.0708554 0.0810774 0.0693684 0.0522024 0.0766707 0.0559889 0.0759637
124 3 O 1.44023 96.281 4.34459 -1.2 1 0.0114004 0.0175091 0.0269079 0.0177056 0.0147189 0.036333 0.0359229 0.0412178 0.058781 0.0455395 0.0437899 0.0427222 0.0495268 0.0670742 0.103061 0.0733783 0.0702284 0.0447023 0.0728267 0.0657441
125 3 O 1.00974 99.4255 3.1927 -1.2 1 0.023778 0.0224009 0.0255209 0.0256397 0.0281497 0.0273637 0.0379951 0.0482886 0.042049 0.0500068 0.0492301 0.0484556 0.0551064 0.0616421 0.0811038 0.0695915 0.0834946 0.0503314 0.0675423 0.065472