ITEM: TIMESTEP
93700
ITEM: NUMBER OF ATOMS
5600
ITEM: BOX BOUNDS xy xz yz pp pp pp
0	7.1235	0
0	201.985	2.3745
0	119.584	0
ITEM: ATOMS id type element xu yu zu q Q_1 Q_2 Q_3 Q_4 Q_5 Q_6 Q_7 Q_8 Q_9 Q_10 Q_11 Q_12 Q_13 Q_14 Q_15 Q_16 Q_17 Q_18 Q_19 Q_20 Q_21
1 1 Mg -1.67199 47.1398 -1.04262 1.2 1 0.491768 0.019793 0.133773 0.0405469 0.0808565 0.038081 0.0559903 0.0529032 0.070317 0.0732727 0.080108 0.0810551 0.0845836 0.0948421 0.108627 0.099441 0.0910861 0.106585 0.105464 0.0919484
2 1 Mg 2.58716 50.1691 1.6173 1.2 1 0.209389 0.105725 0.0466488 0.0336709 0.045971 0.0313448 0.0358339 0.0724342 0.0643715 0.0515027 0.0880617 0.0496502 0.0838189 0.0751058 0.0811582 0.0734103 0.0892437 0.0970901 0.0910031 0.0608117
3 2 Si 0.655086 48.9409 -0.136645 2.4 1 0.310033 0.10758 0.0435975 0.0721666 0.0348439 0.0562884 0.0637762 0.0646798 0.0803632 0.0873605 0.0463309 0.0706728 0.0656269 0.0860926 0.0930272 0.0692279 0.083125 0.0688752 0.0738423 0.0864845
4 3 O 1.44882 47.5099 0.311096 -1.2 1 0.460268 0.0306093 0.0933467 0.057615 0.0758743 0.0539215 0.0810006 0.056266 0.0730694 0.062838 0.0805541 0.0711707 0.0847122 0.0703262 0.0807845 0.104082 0.114186 0.0830006 0.0822555 0.0952953
5 3 O -1.11984 52.0516 1.18248 -1.2 1 0.0904378 0.0598725 0.0439855 0.0213235 0.0302402 0.0319542 0.0441287 0.0498727 0.0619804 0.0547408 0.0622388 0.0686343 0.068811 0.0752322 0.0760889 0.0664194 0.085766 0.0690001 0.0669993 0.0672038
6 3 O -0.333435 48.4761 -1.41414 -1.2 1 0.348185 0.112752 0.0730266 0.0669025 0.0364395 0.0636995 0.0429922 0.0488893 0.0535477 0.0710452 0.0538414 0.0981415 0.102666 0.0925164 0.0971205 0.075316 0.0936992 0.0768653 0.0719822 0.0878583
7 1 Mg -2.00107 57.7396 2.69303 1.2 1 0.0084322 0.0132019 0.0192804 0.0388398 0.0230732 0.0380909 0.0243969 0.0547859 0.0263402 0.0758446 0.0378443 0.0550905 0.0423397 0.0624944 0.0444178 0.10496 0.0549667 0.0903512 0.0601511 0.0819413
8 3 O -0.316706 49.2127 1.10636 -1.2 1 0.290705 0.131743 0.0545855 0.0503502 0.025508 0.0363459 0.0651736 0.04351 0.090789 0.0794985 0.062674 0.0602791 0.0575702 0.0663337 0.0936925 0.0882971 0.063351 0.0695369 0.0700765 0.0921647
9 1 Mg -2.12686 54.7793 4.11474 1.2 1 0.0246171 0.0200995 0.0150291 0.0282708 0.0164794 0.0354832 0.0385077 0.0401528 0.0507204 0.0506327 0.053014 0.0582898 0.0529632 0.0709842 0.0666033 0.0719636 0.0802067 0.0790333 0.0741548 0.073445
10 2 Si 0.615145 56.5174 4.22806 2.4 1 0.0157769 0.016298 0.0162449 0.0372515 0.029527 0.0333414 0.0502658 0.0440776 0.0598036 0.0580119 0.055071 0.0734218 0.0813149 0.0453587 0.0838951 0.0671973 0.0584695 0.081011 0.0654661 0.0625716
11 3 O -1.08546 56.7945 4.22578 -1.2 1 0.0295727 0.0314311 0.0155336 0.0190929 0.024931 0.0278679 0.0362295 0.0814906 0.0464651 0.0608503 0.0463236 0.0714182 0.052001 0.073062 0.0837036 0.0786991 0.0590582 0.0746022 0.0561664 0.0629898
12 3 O 1.58544 53.1163 4.36606 -1.2 1 0.0454928 0.0449962 0.0332999 0.0207085 0.0274326 0.036811 0.0344577 0.0453759 0.0552487 0.0551055 0.0463856 0.0637222 0.0619759 0.0933881 0.0847131 0.0795799 0.0649135 0.0653312 0.0569618 0.0753864
13 3 O 1.37641 55.8405 2.81871 -1.2 1 0.0240895 0.016894 0.0233308 0.0185659 0.0288902 0.0282314 0.0470221 0.0477822 0.0383384 0.0494555 0.0624895 0.0404772 0.0640953 0.064752 0.102138 0.0738897 0.081064 0.0705191 0.0639856 0.0572268
14 3 O 1.09063 55.88 5.51242 -1.2 1 0.0258529 0.0212239 0.023373 0.0245786 0.0233459 0.033896 0.0560582 0.044421 0.0427222 0.0614171 0.0584112 0.0432469 0.0630971 0.0740537 0.0699079 0.079222 0.0819887 0.0562187 0.0580514 0.0670151
15 1 Mg 0.0572767 52.7608 2.64924 1.2 1 0.0450843 0.0610794 0.0417761 0.0383469 0.0129919 0.0326379 0.0347769 0.0498622 0.0572327 0.0549932 0.0457937 0.0541535 0.062302 0.0460483 0.0667959 0.0802084 0.0976386 0.0707888 0.0697677 0.0708615
16 1 Mg 0.247292 49.1068 2.97737 1.2 1 0.296393 0.130525 0.0277313 0.0714104 0.0311092 0.0497842 0.0455424 0.0377278 0.0563172 0.0701158 0.0655389 0.066887 0.0585375 0.0578221 0.100978 0.0852852 0.0873902 0.0752909 0.08535 0.079647
17 2 Si 2.07027 51.557 4.26919 2.4 1 0.097905 0.094367 0.0593157 0.0348913 0.0176619 0.0324102 0.0434256 0.0584227 0.0496977 0.0696841 0.0673193 0.0733563 0.0665462 0.0811816 0.0662139 0.0802309 0.075202 0.0992647 0.0570751 0.07036
18 3 O -0.96273 51.5957 4.28295 -1.2 1 0.120959 0.0924406 0.0447098 0.0363475 0.0253746 0.0293362 0.0509755 0.0448695 0.0499858 0.0648819 0.0503033 0.0974316 0.0418015 0.08241 0.0598786 0.0853065 0.0827473 0.0789784 0.0772438 0.0627017
19 3 O 2.18305 48.6721 2.78899 -1.2 1 0.345681 0.113812 0.0588239 0.0681369 0.0428737 0.0555077 0.0377891 0.0578566 0.0742948 0.0554066 0.0574035 0.0693826 0.0852226 0.0955141 0.0987847 0.0809708 0.0677774 0.0883392 0.0851401 0.0860748
20 3 O 1.4221 51.1108 2.88244 -1.2 1 0.153207 0.0951163 0.0419363 0.0148346 0.0272973 0.0317676 0.0473351 0.0400913 0.0611162 0.0496204 0.0645765 0.0508306 0.0647008 0.0880825 0.0704195 0.0809502 0.0840171 0.0758579 0.06361 0.0679179
21 1 Mg 0.0116352 52.5489 -0.673425 1.2 1 0.0541739 0.054425 0.0377393 0.011847 0.0301884 0.0279893 0.040594 0.0568264 0.0528992 0.0545641 0.058431 0.0563789 0.0552467 0.0758889 0.0709142 0.0762377 0.076151 0.0771381 0.0604613 0.080924
22 3 O 1.38525 50.7035 5.30716 -1.2 1 0.158332 0.106726 0.0502874 0.0164754 0.0249562 0.0477472 0.0530893 0.0761225 0.0594422 0.0536184 0.0652776 0.065666 0.0712242 0.0691099 0.0783623 0.0716014 0.0954064 0.0724048 0.0610581 0.072662
23 1 Mg 0.288742 55.2199 0.820654 1.2 1 0.0162216 0.0135817 0.0188982 0.030071 0.0268778 0.0366704 0.0310874 0.042324 0.0419674 0.0647805 0.0624543 0.0498615 0.0580162 0.0586299 0.0738679 0.08245 0.071412 0.0790389 0.07348 0.0666572
24 2 Si -2.01881 53.3955 0.992351 2.4 1 0.0182311 0.03254 0.0333298 0.0333788 0.0279128 0.0371945 0.0463753 0.0469317 0.0522719 0.0592908 0.0712951 0.0629477 0.0694723 0.0667897 0.0728495 0.0642538 0.0715237 0.0713921 0.0750165 0.0614078
25 3 O 1.27318 53.2159 0.910649 -1.2 1 0.0177347 0.0394876 0.0282791 0.0273059 0.0206717 0.0301703 0.0362519 0.0618831 0.0581712 0.0476048 0.0514021 0.05186 0.0582887 0.0775051 0.0643571 0.0794952 0.0530853 0.0579832 0.0693552 0.0486572
26 3 O -0.827494 57.1946 0.862657 -1.2 1 0.017882 0.0248371 0.021943 0.0274837 0.0201785 0.0413936 0.0359533 0.0401031 0.0576835 0.0501605 0.0582394 0.0496829 0.0686171 0.0730083 0.0818928 0.0887457 0.0668542 0.0758105 0.0523073 0.0649307
27 3 O -1.25644 54.0236 -0.202949 -1.2 1 0.0113148 0.0220576 0.0286104 0.0304443 0.0272412 0.0387712 0.056282 0.0440588 0.0505497 0.0556633 0.0525497 0.0592315 0.0608067 0.0644414 0.0953682 0.0630059 0.07261 0.0567915 0.053653 0.0736997
28 3 O -1.13606 54.2281 2.22212 -1.2 1 0.0225234 0.0249323 0.0254933 0.0409972 0.0257624 0.0255226 0.053401 0.050255 0.0414452 0.0516259 0.0602551 0.0465369 0.0672215 0.074733 0.0793309 0.0846765 0.0667817 0.0616225 0.0763992 0.0694669
29 1 Mg -2.17536 57.8227 -0.565888 1.2 1 0.0111102 0.0234631 0.0228259 0.0269316 0.0232435 0.0405579 0.0159169 0.0659637 0.0274357 0.0691467 0.0289479 0.0494637 0.0375503 0.0741252 0.0533909 0.0926577 0.0598951 0.0900961 0.0550141 0.0753399
30 1 Mg 2.57048 60.8493 1.18687 1.2 1 0.0154146 0.0103944 0.0178213 0.0404987 0.0170592 0.0334733 0.0256172 0.0343117 0.0478871 0.0543104 0.0612487 0.052772 0.0542918 0.0621856 0.077069 0.0674866 0.0676657 0.0903219 0.0623699 0.085204
31 2 Si -0.105843 58.7213 0.960921 2.4 1 0.0099533 0.0145256 0.0195412 0.0282647 0.0273149 0.0368101 0.0365166 0.0408738 0.0561623 0.0630393 0.0502397 0.0547192 0.0713419 0.0653878 0.0820283 0.0682746 0.0618324 0.0751064 0.0695765 0.0558335
32 3 O 1.42163 58.5969 0.811477 -1.2 1 0.00753843 0.00883803 0.0153612 0.0229701 0.0239521 0.0267543 0.031982 0.0747774 0.0554252 0.0643355 0.0405734 0.0736918 0.054839 0.0672921 0.0790197 0.0817262 0.0658879 0.0832891 0.0698166 0.0520968
33 3 O -1.26978 62.881 1.66803 -1.2 1 0.0173503 0.0209538 0.0270463 0.0200986 0.023074 0.0275206 0.0478751 0.0443133 0.0596257 0.0332818 0.0538233 0.0367884 0.0701471 0.0715271 0.0921726 0.0796785 0.064064 0.067244 0.0665781 0.0475756
34 3 O -0.87618 59.6932 -0.162425 -1.2 1 0.0164364 0.0237501 0.020571 0.0237817 0.038158 0.0303698 0.0466581 0.0507941 0.0342115 0.0531418 0.0647318 0.049178 0.0560724 0.0759779 0.069486 0.0716423 0.0675456 0.0627907 0.067249 0.0655645
35 1 Mg -1.9933 68.418 3.05139 1.2 1 0.0180491 0.0252666 0.0210248 0.0287522 0.0133677 0.0350153 0.0198347 0.0631498 0.028223 0.0728806 0.0328489 0.0591509 0.0356561 0.0668015 0.0325446 0.095421 0.0556103 0.106617 0.0522539 0.077689
36 3 O -0.803537 59.4691 2.37017 -1.2 1 0.00555265 0.0259206 0.0202372 0.0323801 0.0253018 0.0301837 0.0553929 0.0425994 0.0332505 0.0477106 0.0523351 0.0441415 0.0633819 0.0747855 0.088533 0.0723566 0.0748174 0.0550907 0.0763698 0.0612237
37 1 Mg -2.34687 65.4056 4.62608 1.2 1 0.008727 0.00852775 0.0198778 0.0301386 0.022003 0.0320966 0.0291037 0.044516 0.0476698 0.0477115 0.0618704 0.0490608 0.0554127 0.0613481 0.0771551 0.062147 0.0756177 0.092709 0.0749694 0.0810572
38 2 Si 0.503998 67.1962 4.45943 2.4 1 0.0218622 0.0211242 0.0167405 0.0227364 0.0383564 0.0271256 0.0413914 0.0478194 0.0576065 0.059944 0.0502504 0.0632282 0.0665955 0.0629797 0.0697311 0.0811561 0.0684888 0.0798397 0.0707392 0.0701721
39 3 O -0.991188 67.3369 4.35834 -1.2 1 0.0128149 0.0283965 0.023089 0.0210209 0.0254956 0.0320143 0.0266829 0.0774443 0.0406438 0.0659335 0.0397854 0.0657871 0.0644178 0.071556 0.0732243 0.0682006 0.0628919 0.0599992 0.0670596 0.0515483
40 3 O 1.49535 63.3941 4.51478 -1.2 1 0.0134668 0.0175603 0.0222894 0.0254361 0.0139896 0.0331552 0.0448188 0.0464233 0.0531277 0.0334243 0.05306 0.0529033 0.058459 0.0752697 0.100467 0.0681665 0.0773621 0.0593309 0.0679657 0.0601833
41 3 O 1.28698 66.4201 3.34355 -1.2 1 0.0148888 0.0191351 0.0230552 0.0190402 0.0335004 0.0353172 0.0398981 0.0399236 0.0411696 0.0510604 0.0607177 0.0434673 0.0560237 0.0534698 0.0847701 0.0730912 0.0699415 0.0798754 0.0573521 0.056808
42 3 O 1.2565 66.8369 5.83663 -1.2 1 0.0127247 0.0180847 0.0309764 0.0219014 0.0340537 0.0263609 0.058154 0.0377066 0.0534637 0.0362907 0.0473562 0.0443256 0.0644527 0.0586401 0.0806318 0.0660943 0.0740766 0.07143 0.0658194 0.0719334
43 1 Mg 0.154968 63.1146 3.06463 1.2 1 0.0214801 0.0229774 0.0164241 0.0304869 0.0177951 0.0461381 0.0199607 0.0609203 0.0211695 0.0781311 0.0246113 0.0611579 0.0291165 0.0708923 0.0341702 0.107539 0.048979 0.099537 0.0436031 0.0781577
44 1 Mg 0.0598546 59.9125 4.2637 1.2 1 0.0153051 0.0041718 0.0153895 0.0288887 0.0144263 0.0255732 0.03287 0.0405774 0.0406402 0.0583891 0.0497262 0.0786108 0.0569519 0.0741483 0.080329 0.0664902 0.0861885 0.0736985 0.0814876 0.0642937
45 2 Si 2.25486 61.7827 4.48146 2.4 1 0.0262323 0.0188945 0.028954 0.0346588 0.0260122 0.0315371 0.0414468 0.046363 0.0530741 0.0481474 0.060886 0.0721062 0.0584818 0.0596479 0.0626198 0.0801844 0.0720028 0.0953688 0.0614388 0.0759648
46 3 O -1.05962 61.9346 4.41095 -1.2 1 0.0110474 0.0162635 0.0145671 0.0192744 0.0187559 0.0280245 0.0205967 0.0699947 0.0435099 0.0707447 0.0418679 0.0661237 0.0624465 0.0691541 0.0876143 0.0576451 0.0594096 0.0639462 0.0590483 0.0626219
47 3 O 1.16806 58.0357 4.25828 -1.2 1 0.0059952 0.0161839 0.0212366 0.0314755 0.013684 0.0317212 0.0399583 0.0450233 0.0607409 0.0367439 0.0590812 0.0526759 0.0646391 0.074708 0.102354 0.0840904 0.0688168 0.0534627 0.0746533 0.0584548
48 3 O 1.29659 61.3029 3.09828 -1.2 1 0.0222586 0.0155474 0.025817 0.0234991 0.0380429 0.02364 0.0513047 0.0471168 0.0387632 0.0483773 0.0670924 0.041771 0.0621257 0.0498289 0.096405 0.0757562 0.0688163 0.0654369 0.0509387 0.066953
49 1 Mg 0.11976 63.0895 0.157578 1.2 1 0.00733766 0.0276393 0.0196612 0.0417265 0.0239245 0.0315073 0.0297489 0.0556749 0.0333164 0.0650802 0.0411026 0.0628297 0.040277 0.0657041 0.0461901 0.0970005 0.0660246 0.0859066 0.0638599 0.0867536
50 3 O 1.6864 61.0288 5.69977 -1.2 1 0.0249751 0.0282604 0.0266304 0.0285393 0.0239008 0.0307368 0.0416834 0.0500541 0.0374268 0.0516781 0.0622119 0.0432173 0.0622521 0.0733049 0.0780643 0.0858732 0.0662451 0.05764 0.0583582 0.0680108
51 1 Mg 0.150657 66.3398 1.39857 1.2 1 0.00855862 0.00653861 0.0147676 0.0280802 0.0201612 0.0304087 0.0269636 0.0348202 0.0495651 0.055503 0.0538257 0.064211 0.0600513 0.0698922 0.0861729 0.065983 0.0750955 0.0880417 0.0735935 0.0646529
52 2 Si -1.81956 64.4417 1.70232 2.4 1 0.0373544 0.0209792 0.0178405 0.0327628 0.0379624 0.034178 0.0342769 0.0480761 0.0580437 0.0568759 0.058161 0.0686471 0.076189 0.0537409 0.0632957 0.0747926 0.0649261 0.0828032 0.069341 0.0586539
53 3 O 1.33572 64.3903 1.45507 -1.2 1 0.0446529 0.0166092 0.0111379 0.0188755 0.0361566 0.0293937 0.0234869 0.0713516 0.0403101 0.0750261 0.0412476 0.0575659 0.0686125 0.0700637 0.0654758 0.0610445 0.0575231 0.0593529 0.0697954 0.0697637
54 3 O -0.695243 68.2236 1.62754 -1.2 1 0.0163256 0.021185 0.0245885 0.0254527 0.018661 0.032672 0.0330162 0.0435515 0.0577191 0.0402708 0.0580877 0.0361062 0.0657183 0.0723713 0.0951229 0.0742556 0.0663178 0.0570927 0.0776351 0.0597667
55 3 O -1.12411 65.1682 0.477745 -1.2 1 0.00766059 0.0193924 0.0250996 0.0241515 0.0392614 0.0250481 0.0370567 0.0359139 0.0464073 0.043384 0.0587367 0.0345313 0.0547536 0.0585132 0.0842223 0.0903762 0.0638982 0.077982 0.0659617 0.0610683
56 3 O -1.22003 64.9009 3.14893 -1.2 1 0.0300999 0.0209382 0.0202206 0.0246651 0.0221599 0.0310455 0.0475855 0.0501059 0.0463693 0.050512 0.0515349 0.0398492 0.0616338 0.0602116 0.0872784 0.084017 0.0643306 0.0639043 0.061306 0.0678291
57 1 Mg -2.3217 68.7444 -0.0183123 1.2 1 0.00889502 0.0252039 0.0217083 0.0366747 0.0151123 0.0436596 0.0226192 0.0573798 0.0297306 0.0810229 0.0347191 0.0526892 0.0381522 0.0628405 0.0426239 0.103941 0.0372772 0.0984236 0.0608511 0.0791618
58 1 Mg 2.26762 71.3482 1.32286 1.2 1 0.0169087 0.0155448 0.0239011 0.028271 0.0268823 0.0201848 0.0415596 0.0304601 0.050733 0.0651179 0.0626369 0.0558047 0.0520526 0.059056 0.0667462 0.0846941 0.069648 0.0930765 0.06312 0.0728223
59 2 Si -0.0388497 69.6724 1.70162 2.4 1 0.0158146 0.0203234 0.0126941 0.0266976 0.0416077 0.037997 0.0425025 0.039645 0.0485868 0.0579547 0.0730811 0.0636204 0.0801616 0.0582948 0.0690391 0.0877378 0.0698763 0.081302 0.0754694 0.0605945
60 3 O 1.52352 69.456 1.49768 -1.2 1 0.0162514 0.0289162 0.0358437 0.0301221 0.0201345 0.0253276 0.030451 0.0705162 0.0470677 0.0642418 0.0450506 0.0670511 0.0526486 0.0674131 0.0754259 0.0683273 0.0768032 0.0705257 0.0573525 0.0678135
61 3 O -1.4134 73.6364 1.32474 -1.2 1 0.00784522 0.0302721 0.0169528 0.0258169 0.02102 0.0310064 0.0386799 0.0456439 0.0619995 0.0410023 0.0586429 0.0500257 0.0590004 0.0758158 0.0823781 0.0823538 0.0767568 0.0582501 0.0789896 0.0531651
62 3 O -0.771434 70.3271 0.296385 -1.2 1 0.0270167 0.0208386 0.0383097 0.00900049 0.0298846 0.0278737 0.0506691 0.0458407 0.0554971 0.0475445 0.0581392 0.0440783 0.0541704 0.0728326 0.0772946 0.0812782 0.0823362 0.0738429 0.0742427 0.0705469
63 1 Mg -2.50763 79.437 3.09066 1.2 1 0.0150836 0.0178894 0.0173526 0.0286723 0.0207767 0.0296829 0.0353152 0.0531295 0.036794 0.0684058 0.0374341 0.0510173 0.0438952 0.0660671 0.0407416 0.0996696 0.0665424 0.0890043 0.0654291 0.0754409
64 3 O -0.680995 70.3611 2.93204 -1.2 1 0.0173071 0.0243298 0.0228677 0.0188291 0.0271667 0.0354366 0.0364496 0.0507577 0.045465 0.0514395 0.0610817 0.0333061 0.066873 0.0673548 0.069138 0.083498 0.0664165 0.0575207 0.0583341 0.0713888
65 1 Mg -2.21613 76.4511 4.26529 1.2 1 0.016185 0.0296239 0.0156226 0.0335138 0.0216837 0.0280847 0.0344847 0.0277629 0.042025 0.0589354 0.0622806 0.0517652 0.0571095 0.0665443 0.071247 0.0827048 0.0678458 0.0908927 0.0548865 0.0708383
66 2 Si 0.328356 78.0887 4.50337 2.4 1 0.0243723 0.0155912 0.0116729 0.0230047 0.0321654 0.0351562 0.0413862 0.0469891 0.0547367 0.0565627 0.0515417 0.0667733 0.0689729 0.0578024 0.0694174 0.0713212 0.0693089 0.0862361 0.0731741 0.0659161
67 3 O -1.23681 78.1795 4.32343 -1.2 1 0.0266862 0.0262632 0.0198801 0.0230324 0.0293239 0.0413426 0.0242931 0.0767484 0.0427847 0.0600778 0.0377961 0.057566 0.0578506 0.0787576 0.0661083 0.0505393 0.0668338 0.064954 0.0626353 0.0580209
68 3 O 1.67751 74.3203 4.14482 -1.2 1 0.0093649 0.0302979 0.0224062 0.028955 0.0314567 0.0359347 0.0416462 0.0469848 0.0595423 0.0403171 0.0464287 0.0444552 0.0708247 0.0751782 0.0782196 0.0843317 0.0749747 0.0607168 0.0576749 0.0630709
69 3 O 1.18755 77.4716 3.18741 -1.2 1 0.0176571 0.028463 0.0224706 0.0153662 0.0247296 0.0193031 0.0410771 0.0459918 0.0563366 0.0435446 0.0573038 0.0416156 0.0604079 0.0552088 0.0887126 0.0705085 0.0698234 0.0783844 0.0646005 0.0748399
70 3 O 0.737351 77.3922 5.95853 -1.2 1 0.0255645 0.0327692 0.0218323 0.0214182 0.0245221 0.0398752 0.0489287 0.041748 0.0506206 0.0507859 0.0590265 0.0430545 0.0556349 0.0769106 0.0603314 0.080713 0.0730488 0.0703356 0.0742754 0.0645105
71 1 Mg 0.00822088 74.1684 2.94752 1.2 1 0.00934523 0.0206464 0.0175061 0.0321024 0.0202964 0.0363437 0.0252584 0.0567849 0.0321812 0.064595 0.0427994 0.0412127 0.0421952 0.0661348 0.0429389 0.0894367 0.0740328 0.097022 0.0574919 0.0728837
72 1 Mg 0.763872 70.7076 4.57051 1.2 1 0.0309988 0.0221365 0.0156493 0.0303866 0.0264981 0.0345771 0.031256 0.0374527 0.048372 0.0479693 0.0612238 0.0542293 0.0621176 0.070878 0.0612226 0.0682839 0.0747943 0.0853652 0.0825296 0.0600781
73 2 Si 2.25689 72.7794 4.31211 2.4 1 0.0261957 0.0222471 0.025328 0.0226861 0.0409855 0.0315767 0.0336706 0.0484155 0.0488308 0.0559023 0.0570833 0.0666896 0.076276 0.065732 0.0643694 0.0724826 0.0744852 0.085312 0.0707925 0.0579433
74 3 O -0.851889 73.1292 4.3269 -1.2 1 0.0173976 0.0199023 0.0160119 0.00899289 0.0258814 0.0299236 0.0314131 0.0594917 0.0510701 0.0618397 0.0562142 0.0598431 0.0548181 0.0717201 0.0660619 0.0723928 0.0729466 0.0836906 0.0452072 0.0748768
75 3 O 1.27938 68.7456 4.18677 -1.2 1 0.0260457 0.0204725 0.0192953 0.0376028 0.0144997 0.0257956 0.0349424 0.0432787 0.0596231 0.0380305 0.0454716 0.0390649 0.0676566 0.0722522 0.0867008 0.0722786 0.0731117 0.0616436 0.0606739 0.0606024
76 3 O 1.72949 71.9698 3.10326 -1.2 1 0.027589 0.0334524 0.0204497 0.0200799 0.021987 0.0364674 0.0379301 0.0486625 0.038249 0.0510949 0.0647337 0.0485728 0.0502308 0.0792584 0.0696157 0.0811628 0.0704357 0.0704689 0.0705157 0.0633799
77 1 Mg 0.10396 73.2396 0.181475 1.2 1 0.0285978 0.012315 0.0171116 0.0141743 0.0290573 0.0191521 0.0394004 0.0501886 0.0616343 0.0486051 0.0490662 0.042177 0.0519774 0.0539584 0.0774304 0.0645496 0.0880274 0.0818161 0.0724439 0.0654144
78 3 O 1.85943 72.0183 5.64326 -1.2 1 0.0163934 0.0164798 0.0175506 0.0231561 0.0306409 0.0426041 0.0478536 0.0370288 0.0317551 0.0489193 0.0569051 0.0510317 0.0468206 0.0877708 0.0639597 0.0781446 0.0734552 0.0633205 0.0755668 0.0791093
79 1 Mg 0.105843 77.1013 1.57133 1.2 1 0.0186106 0.0115498 0.0136824 0.0293032 0.0130067 0.0287607 0.0278199 0.0287371 0.041985 0.060569 0.0565748 0.0666862 0.0631886 0.0711187 0.078718 0.0625761 0.0874706 0.0879515 0.0680733 0.0568439
80 2 Si -2.07607 75.1384 1.299 2.4 1 0.0103777 0.0148174 0.0253497 0.0334245 0.0339256 0.0230924 0.0400199 0.0378495 0.042797 0.053293 0.0508818 0.0577562 0.0659672 0.0676493 0.0841762 0.065853 0.069516 0.0856673 0.070992 0.069707
81 3 O 1.17048 74.688 1.44088 -1.2 1 0.0235688 0.01744 0.025194 0.015622 0.0216164 0.0218798 0.0320021 0.0686748 0.0478624 0.0491857 0.0420523 0.0564568 0.0500384 0.0809469 0.0733733 0.0709288 0.0548816 0.0803432 0.0406428 0.080765
82 3 O -0.759347 78.8529 1.41203 -1.2 1 0.0309915 0.00635662 0.0174519 0.0306576 0.0144909 0.0340699 0.0406936 0.0443049 0.0529623 0.0522851 0.0516457 0.0456993 0.0630678 0.0780373 0.0955996 0.0678036 0.0765541 0.0556008 0.0677712 0.0516391
83 3 O -1.39115 75.7473 -0.0227682 -1.2 1 0.0299597 0.0219198 0.0213136 0.0208816 0.0208886 0.0256704 0.0521752 0.0533704 0.0467617 0.0397866 0.0702846 0.0325422 0.0534232 0.0701109 0.0794126 0.0791988 0.0734248 0.0519467 0.0568947 0.075835
84 3 O -1.43508 75.9782 2.52348 -1.2 1 0.0179379 0.0162534 0.0277382 0.0193038 0.0277318 0.0315026 0.0287227 0.0411569 0.0320097 0.0471872 0.0595275 0.0542638 0.0591131 0.05956 0.0765551 0.0680379 0.0747616 0.072967 0.0724766 0.0709429
85 1 Mg -2.3243 79.3815 -0.0914656 1.2 1 0.0203765 0.0141173 0.0161614 0.0256122 0.0117964 0.0339699 0.0159008 0.0563055 0.0284779 0.0745673 0.0250012 0.0527236 0.0381581 0.0688994 0.0391972 0.104453 0.0400832 0.111774 0.0387832 0.0800802
86 1 Mg 2.64731 82.2793 1.15819 1.2 1 0.0201828 0.0157885 0.016988 0.0355186 0.0261116 0.0330427 0.0271233 0.0400808 0.0528736 0.0519055 0.0484751 0.0635095 0.0547447 0.0700495 0.0770182 0.0718076 0.0686199 0.0864174 0.071105 0.0739776
87 2 Si -0.133249 80.3462 1.46593 2.4 1 0.0154043 0.0195577 0.0220551 0.0313209 0.0348146 0.0300168 0.0423469 0.0399427 0.0506943 0.0625291 0.0558723 0.0644867 0.0772482 0.0653587 0.0707522 0.0805321 0.0737813 0.0836277 0.0726386 0.0707133
88 3 O 1.37756 80.219 1.49025 -1.2 1 0.0226781 0.0210042 0.0183937 0.024081 0.0245487 0.0332155 0.0235611 0.0647382 0.0423345 0.0597997 0.0415059 0.0727661 0.0503315 0.071432 0.0706081 0.0708695 0.0699378 0.0716875 0.0544228 0.0643902
89 3 O -1.20339 84.1607 1.14646 -1.2 1 0.0148789 0.0185692 0.019825 0.0261102 0.0213741 0.0407769 0.0389291 0.0442768 0.0521482 0.0457637 0.0480848 0.0526182 0.0606617 0.0723476 0.0916069 0.074926 0.0748616 0.0622208 0.0689392 0.0566709
90 3 O -0.83783 81.0362 0.36793 -1.2 1 0.00692703 0.0165996 0.024771 0.0233503 0.0342554 0.0244804 0.047017 0.0425342 0.044745 0.0438913 0.0512622 0.0483425 0.0548497 0.0733802 0.0783209 0.0710245 0.0858627 0.064943 0.0638104 0.068866
91 1 Mg -2.33988 89.9549 2.90777 1.2 1 0.01229 0.0214708 0.00484144 0.0426731 0.0212719 0.0375684 0.0175539 0.0586611 0.0200428 0.0759968 0.0228588 0.0483679 0.0180412 0.0776024 0.0259999 0.10467 0.0322197 0.109242 0.032186 0.0946948
92 3 O -0.717651 81.0502 2.99121 -1.2 1 0.0252396 0.0227867 0.0155884 0.0315745 0.0284769 0.029001 0.0439308 0.0545829 0.0433195 0.053841 0.0476913 0.036205 0.0654198 0.0793423 0.0732428 0.0961121 0.078121 0.0667369 0.0594855 0.0673631
93 1 Mg -2.32345 86.9199 4.33815 1.2 1 0.0148899 0.0128974 0.0145967 0.0343284 0.0139892 0.0312538 0.0297165 0.0391344 0.0437197 0.0556526 0.0627305 0.0648893 0.0617717 0.0627423 0.0767002 0.0726178 0.0628817 0.0897213 0.0659457 0.0737855
94 2 Si 0.389954 88.8992 4.4655 2.4 1 0.00991985 0.0148082 0.0238121 0.0332526 0.037942 0.0302931 0.0379087 0.0500119 0.0569545 0.0533296 0.053899 0.0713204 0.0820387 0.0616197 0.0790265 0.0757423 0.0599073 0.0878972 0.055687 0.056515
95 3 O -1.25669 89.106 4.39773 -1.2 1 0.0140182 0.0221434 0.0256096 0.0236245 0.0196991 0.0288745 0.0371676 0.0731151 0.0345789 0.0602346 0.0472144 0.0698931 0.052859 0.0788347 0.0782086 0.0687753 0.0589903 0.0830121 0.0551182 0.0778899
96 3 O 1.4468 85.0214 4.41281 -1.2 1 0.0169456 0.0186101 0.0236004 0.0289885 0.016902 0.0375623 0.0419652 0.0411783 0.0650566 0.0381464 0.0522155 0.0413444 0.0560874 0.0667396 0.0985242 0.0691581 0.0769431 0.055073 0.0645938 0.0546044
97 3 O 1.07548 88.212 3.37313 -1.2 1 0.0113793 0.0196412 0.0285923 0.0263657 0.030882 0.0264271 0.0448825 0.047201 0.0429281 0.0453745 0.0552126 0.0420701 0.0634711 0.077477 0.0845605 0.0694692 0.0816207 0.0772781 0.0609009 0.070155
98 3 O 1.13968 88.4166 5.85014 -1.2 1 0.0216147 0.00981214 0.0263608 0.0265015 0.0277388 0.0287966 0.0557113 0.051717 0.0479242 0.0383157 0.0670592 0.0407753 0.0519721 0.0629491 0.100463 0.0718197 0.0792653 0.0659094 0.0608109 0.0720554
99 1 Mg -0.0265437 84.6892 2.86268 1.2 1 0.0167284 0.0173551 0.00822921 0.03539 0.00820048 0.0431436 0.0154848 0.0628899 0.0236896 0.0828119 0.0258158 0.0521799 0.0309214 0.0710343 0.0254496 0.0979799 0.0405764 0.105154 0.043291 0.0863098
100 1 Mg 0.203216 81.459 4.69312 1.2 1 0.0172335 0.0114635 0.0253192 0.0212602 0.0226442 0.0367752 0.0264616 0.038155 0.0572319 0.0540282 0.054081 0.0610262 0.0662493 0.0683155 0.0715092 0.0691694 0.0833568 0.0865505 0.071748 0.070366
101 2 Si 2.13561 83.5941 4.18714 2.4 1 0.0174506 0.0239795 0.0193794 0.030456 0.0349761 0.0287734 0.0371362 0.04454 0.0531048 0.0568836 0.0586212 0.0555306 0.0713829 0.0612753 0.077573 0.0618051 0.0738866 0.0767711 0.0677391 0.0568119
102 3 O -1.02996 83.7589 4.31752 -1.2 1 0.0214205 0.0171458 0.0134436 0.0303591 0.0278851 0.0315286 0.0340777 0.0677467 0.0388221 0.065652 0.0423139 0.0706963 0.0534454 0.0677158 0.0802918 0.0607744 0.0651418 0.075327 0.0507169 0.0748563
103 3 O 0.952653 79.5489 4.67466 -1.2 1 0.00846155 0.0151345 0.0118037 0.0237735 0.0231528 0.0321089 0.0446993 0.0455828 0.056851 0.0343343 0.0651386 0.0422863 0.0688549 0.0754382 0.0852365 0.0787709 0.0683817 0.0587942 0.0718826 0.0575276
104 3 O 1.49313 83.0498 2.78113 -1.2 1 0.0198178 0.0122132 0.015668 0.0149563 0.0352676 0.028142 0.0488146 0.0464223 0.0615413 0.054125 0.0553021 0.0364166 0.0625582 0.0695216 0.0828042 0.0710597 0.0733981 0.0589411 0.0720409 0.0700407
105 1 Mg 0.0974848 84.5687 -0.0509712 1.2 1 0.0180666 0.0186657 0.0155532 0.0313149 0.0173589 0.037592 0.0246492 0.0594841 0.0252269 0.0728217 0.0375436 0.0487519 0.0317791 0.0785961 0.0364241 0.095419 0.0384578 0.100974 0.0503422 0.0834567
106 3 O 1.48327 82.7065 5.42097 -1.2 1 0.00968531 0.0208464 0.0273495 0.0292261 0.0325272 0.0287745 0.040866 0.0472003 0.038717 0.046296 0.0530853 0.0420737 0.0624801 0.0599686 0.076517 0.0802317 0.0802491 0.0745076 0.062551 0.070461
107 1 Mg 0.18945 87.6342 1.12187 1.2 1 0.0133793 0.0171741 0.0173399 0.0314264 0.0170246 0.0309139 0.0319885 0.0357263 0.0491275 0.0553047 0.0608893 0.0578986 0.0607764 0.060768 0.0664039 0.0775448 0.0749263 0.0785103 0.0726982 0.0774468
108 2 Si -1.9296 85.5653 1.3196 2.4 1 0.0173737 0.0233565 0.0303982 0.0336388 0.0346284 0.0387543 0.0425091 0.0449816 0.0546533 0.0609472 0.0510836 0.0690531 0.0693976 0.0542673 0.0749139 0.058104 0.0625107 0.0965045 0.0598455 0.0677664
109 3 O 1.17107 85.6326 1.29811 -1.2 1 0.016989 0.03448 0.0134984 0.0237316 0.0277714 0.0296597 0.0265158 0.078586 0.0370149 0.0600814 0.0374607 0.0707508 0.056523 0.0757716 0.0716175 0.069346 0.0589561 0.0711855 0.0598032 0.06435
110 3 O -0.963019 89.5156 1.14878 -1.2 1 0.0180821 0.0230381 0.0223461 0.0201114 0.0158942 0.037329 0.0430075 0.0439568 0.0504281 0.04439 0.0568208 0.0491104 0.0544048 0.0755335 0.0904341 0.0757647 0.0726606 0.0576302 0.0735477 0.0529008
111 3 O -1.49871 86.3435 0.0105559 -1.2 1 0.0140158 0.0110159 0.0321715 0.0214043 0.0296093 0.0184535 0.0551505 0.0489213 0.0443267 0.0533357 0.0578754 0.0465732 0.0533176 0.0753752 0.0633117 0.0773356 0.0729457 0.0562552 0.0675086 0.0690322
112 3 O -1.30513 86.2911 2.57288 -1.2 1 0.0181256 0.028897 0.0287982 0.0220887 0.028365 0.0210474 0.0513958 0.0437799 0.0423989 0.0462068 0.0622503 0.0520319 0.0647509 0.0620355 0.0946564 0.0653287 0.0856193 0.0583554 0.0688525 0.0666222
113 1 Mg -2.23993 89.9813 -0.397811 1.2 1 0.0164268 0.016276 0.0231106 0.0243033 0.0191088 0.042962 0.0208823 0.0640931 0.0276072 0.0757544 0.0321948 0.0472816 0.0408147 0.0690194 0.0404941 0.0960807 0.0531138 0.104245 0.0402123 0.0859328
114 1 Mg 2.38396 93.0816 1.56101 1.2 1 0.0157082 0.0150615 0.022249 0.032151 0.0158014 0.033683 0.0280537 0.0413851 0.0503275 0.0596286 0.0645896 0.0568964 0.0564185 0.0658314 0.0689975 0.0718581 0.0699885 0.0917386 0.0668526 0.0661668
115 2 Si -0.192729 90.9723 1.34588 2.4 1 0.0259747 0.0266342 0.0259046 0.0331022 0.0332204 0.0327537 0.0454105 0.0508306 0.0468828 0.0695091 0.0492883 0.0556151 0.0725547 0.0623267 0.0832694 0.0594261 0.0693983 0.0898512 0.0596853 0.0621808
116 3 O 1.43099 90.8944 1.56751 -1.2 1 0.0110006 0.0219797 0.0369305 0.0196628 0.0351732 0.0259387 0.0296511 0.0768492 0.0399618 0.0680607 0.0417148 0.0585442 0.0551334 0.0643277 0.0805009 0.0747911 0.0573781 0.07644 0.055432 0.0702811
117 3 O -1.31697 95.0854 1.1898 -1.2 1 0.0105913 0.0177512 0.0257065 0.0236919 0.0212388 0.0326213 0.0437159 0.042401 0.0621867 0.038695 0.0560062 0.041415 0.0631844 0.0753645 0.0862262 0.0698082 0.0777698 0.0681473 0.0672194 0.0632522
118 3 O -0.630574 91.6982 -0.0279903 -1.2 1 0.00538577 0.017529 0.0251636 0.0163522 0.03707 0.0292187 0.0634798 0.0568897 0.0519205 0.0517624 0.0562996 0.0467174 0.0587764 0.0799001 0.0619773 0.080667 0.0724263 0.0657702 0.06027 0.0739848
119 1 Mg -2.36339 100.857 3.05987 1.2 1 0.00748506 0.020022 0.0226858 0.0374653 0.0243267 0.0417614 0.0227603 0.0645228 0.0309442 0.0741173 0.0347105 0.0547208 0.0312152 0.0629828 0.0485912 0.0978233 0.0545547 0.0911135 0.0667279 0.0713477
120 3 O -0.945202 91.8439 2.44666 -1.2 1 0.0134816 0.023515 0.0337688 0.0230322 0.0314936 0.0313743 0.0469444 0.0408667 0.0386785 0.0463919 0.0674106 0.045481 0.0609197 0.0777945 0.0754788 0.0756953 0.0825606 0.0675471 0.0687522 0.0600634
121 1 Mg -2.53207 97.7041 4.24443 1.2 1 0.0121131 0.0278292 0.0183367 0.0306711 0.0173643 0.0411482 0.0333949 0.0381371 0.050238 0.0460905 0.0576036 0.0639773 0.0562081 0.066256 0.0817962 0.0652133 0.0768451 0.0796871 0.0719034 0.0730017
122 2 Si 0.206241 99.6988 4.5551 2.4 1 0.0103851 0.0138517 0.0238724 0.0300745 0.0424665 0.0421532 0.0289626 0.0481815 0.0585543 0.0490924 0.0558724 0.0716808 0.0656276 0.0560141 0.0723836 0.0879257 0.0584709 0.0753271 0.0618414 0.0654922
123 3 O -1.38135 99.9993 4.63044 -1.2 1 0.0135309 0.0171967 0.0350739 0.0241953 0.0293207 0.0357357 0.0292608 0.0677581 0.047418 0.0707118 0.0418081 0.0688923 0.0470665 0.0790294 0.0773232 0.0762568 0.0714103 0.0666379 0.0595585 0.0688735
124 3 O 1.36039 95.6994 4.35064 -1.2 1 0.0164096 0.0208374 0.0135198 0.0311217 0.0212822 0.0370032 0.046988 0.0464902 0.0680532 0.0395285 0.0590272 0.0458224 0.0560756 0.0758292 0.0936108 0.0732018 0.0786436 0.0569179 0.0700757 0.0622345
125 3 O 0.886398 99.1661 3.10094 -1.2 1 0.0175802 0.0136307 0.0312366 0.0248254 0.0314014 0.0284764 0.0479787 0.0403925 0.0350672 0.0503873 0.0621476 0.0452916 0.0541386 0.0689634 0.0909235 0.0777415 0.0772834 0.0566814 0.0673147 0.0774802