ITEM: TIMESTEP
47400
ITEM: NUMBER OF ATOMS
5600
ITEM: BOX BOUNDS xy xz yz pp pp pp
0	7.1235	0
0	201.985	2.3745
0	119.584	0
ITEM: ATOMS id type element xu yu zu q Q_1 Q_2 Q_3 Q_4 Q_5 Q_6 Q_7 Q_8 Q_9 Q_10 Q_11 Q_12 Q_13 Q_14 Q_15 Q_16 Q_17 Q_18 Q_19 Q_20 Q_21
1 1 Mg -1.76518 48.8496 -0.653037 1.2 1 0.449758 0.064225 0.129912 0.0399501 0.0830901 0.0466281 0.0440922 0.0558514 0.0645891 0.0685907 0.0925734 0.0974138 0.0937821 0.0931971 0.0999532 0.11281 0.0933942 0.10842 0.102215 0.105787
2 1 Mg 3.04468 50.8381 2.41521 1.2 1 0.24911 0.137442 0.0182998 0.0490915 0.0497432 0.0395083 0.0764615 0.0563458 0.066487 0.0813226 0.06377 0.074722 0.0679115 0.0738917 0.0809741 0.0888629 0.0808203 0.0806721 0.0912339 0.0718213
3 2 Si 0.717919 50.6727 0.471085 2.4 1 0.26628 0.125624 0.0368578 0.0605468 0.0421126 0.0383641 0.0648564 0.0422532 0.0726512 0.0751619 0.0660244 0.056082 0.0550838 0.0753953 0.0960416 0.0696799 0.0904038 0.0674059 0.0744481 0.0827336
4 3 O 1.98293 49.7182 0.854865 -1.2 1 0.372907 0.0987969 0.0743744 0.0694236 0.0436329 0.0613702 0.046939 0.0839924 0.0578089 0.0794788 0.0687977 0.0823687 0.0791331 0.0867631 0.093211 0.073667 0.0847519 0.0765088 0.0731734 0.076963
5 3 O -1.39734 53.5056 2.08316 -1.2 1 0.0897865 0.0488061 0.0496392 0.0265757 0.0358863 0.0307679 0.0440466 0.0505617 0.0604258 0.0596244 0.0558413 0.0551292 0.061601 0.0667509 0.0852476 0.0762186 0.0749569 0.0620811 0.060757 0.0822364
6 3 O -0.0907341 49.8804 -0.572322 -1.2 1 0.354054 0.112619 0.0663985 0.0711388 0.0313047 0.0730741 0.0422817 0.0661227 0.0707629 0.079463 0.0667085 0.0830512 0.0834041 0.0851957 0.0878439 0.0748772 0.0952429 0.0678575 0.0705827 0.0851492
7 1 Mg -2.43476 59.4014 3.3863 1.2 1 0.0121027 0.022803 0.0156901 0.0280355 0.0112965 0.0346159 0.0253386 0.0588096 0.0268473 0.0729929 0.0224391 0.0513038 0.0181706 0.0724015 0.0302642 0.0957583 0.0458569 0.11217 0.0469688 0.0894468
8 3 O -0.0673045 50.9577 1.79391 -1.2 1 0.254882 0.12687 0.0421188 0.0496682 0.0338701 0.0303496 0.0722098 0.0597171 0.071397 0.0755521 0.0644946 0.058486 0.0633081 0.0552862 0.103645 0.0709636 0.0788881 0.0750409 0.0706983 0.0886175
9 1 Mg -2.34922 56.5473 4.81958 1.2 1 0.00377135 0.0106874 0.0258945 0.0265079 0.0160074 0.0212124 0.0302107 0.0241142 0.0626093 0.0604895 0.0604565 0.0512265 0.0568736 0.0695564 0.0499598 0.0831986 0.0747417 0.0853117 0.0587745 0.0890285
10 2 Si 0.312783 58.4097 4.88501 2.4 1 0.027572 0.0119944 0.0300956 0.0313273 0.0347441 0.0362328 0.0377002 0.0427925 0.0513933 0.0612675 0.0599293 0.06779 0.0743176 0.0628254 0.0859793 0.0585302 0.0669006 0.0886306 0.0623697 0.069265
11 3 O -1.32753 58.485 4.81387 -1.2 1 0.0259186 0.00775732 0.0199541 0.0203411 0.0195908 0.0244681 0.0211281 0.0745602 0.0400796 0.0587542 0.0369975 0.0690484 0.0551004 0.0726222 0.0697778 0.0725171 0.0484794 0.0790398 0.0545843 0.0914105
12 3 O 1.66495 53.98 5.06772 -1.2 1 0.0710545 0.036584 0.0390567 0.0285464 0.0283551 0.0301721 0.0335775 0.039851 0.0657591 0.0658854 0.065724 0.0545981 0.0611741 0.0712425 0.0823568 0.0763169 0.0650804 0.0780802 0.0678888 0.0675319
13 3 O 1.02213 57.6192 3.64528 -1.2 1 0.0116569 0.0172804 0.0211286 0.0220254 0.022214 0.0307387 0.0416483 0.0385 0.038707 0.0563487 0.0529823 0.0457661 0.0533909 0.0658392 0.0876097 0.0766128 0.0806295 0.0603528 0.0672021 0.065578
14 3 O 1.08245 57.7363 6.14106 -1.2 1 0.0360626 0.0172555 0.0299374 0.0244111 0.0194471 0.0293656 0.057044 0.0432422 0.0432156 0.0425796 0.0550882 0.0488193 0.0466294 0.0617771 0.0851949 0.074033 0.0805159 0.0632335 0.062395 0.0697495
15 1 Mg 0.184268 53.3244 3.15383 1.2 1 0.0860309 0.0686603 0.040102 0.0218766 0.030616 0.0271029 0.0455099 0.0541008 0.0714749 0.0395015 0.0703425 0.0544702 0.0508457 0.0639978 0.0618295 0.0769698 0.0788124 0.0740558 0.0689292 0.0885258
16 1 Mg 0.708465 49.6862 3.25934 1.2 1 0.377561 0.0908141 0.0668348 0.0721954 0.0293379 0.0694253 0.0506081 0.0752917 0.0729589 0.081122 0.0814718 0.0757158 0.0617456 0.0655182 0.0925902 0.0869156 0.0742381 0.0791555 0.0898073 0.0761545
17 2 Si 2.38369 52.5309 4.99188 2.4 1 0.112322 0.0968227 0.050092 0.0350921 0.0374419 0.0469093 0.0385823 0.0501195 0.0740096 0.0632141 0.0801471 0.0705362 0.0686484 0.0720122 0.0744113 0.0844258 0.0708556 0.0847168 0.0724299 0.0790404
18 3 O -0.819017 52.8542 4.98923 -1.2 1 0.104231 0.0921185 0.0400835 0.0273774 0.027115 0.0490853 0.0459187 0.0575823 0.0617055 0.0747412 0.0524094 0.07735 0.0709756 0.0680227 0.0814494 0.0769241 0.0780402 0.077421 0.0765301 0.0585381
19 3 O 2.5888 49.0923 3.46026 -1.2 1 0.430488 0.074523 0.109604 0.0582041 0.0676376 0.0513364 0.0637227 0.0778979 0.0753648 0.0808272 0.0848622 0.0744154 0.0957769 0.0914952 0.0982343 0.105079 0.0913747 0.103783 0.079561 0.0628486
20 3 O 1.70445 51.8975 3.57672 -1.2 1 0.178999 0.1017 0.0215935 0.0397892 0.0266912 0.0541721 0.0332044 0.07296 0.0465357 0.066222 0.0747105 0.0696537 0.073002 0.0643033 0.0828108 0.0800616 0.0853254 0.0742316 0.0714165 0.0810321
21 1 Mg -0.093935 53.979 0.398321 1.2 1 0.0621549 0.044805 0.0505384 0.0244839 0.0257901 0.0246546 0.0259255 0.0629972 0.0485506 0.0701472 0.0438032 0.0528919 0.0450388 0.0727462 0.0650388 0.0854508 0.0653414 0.0762738 0.0627322 0.0807104
22 3 O 1.73528 51.5597 6.10246 -1.2 1 0.212343 0.10572 0.0171893 0.0461081 0.0380601 0.0407326 0.0497352 0.0607433 0.0602403 0.0600778 0.0694888 0.0757139 0.0620007 0.0845704 0.0690045 0.0658322 0.0820879 0.0745265 0.0732345 0.0432468
23 1 Mg 0.0486098 56.798 1.94927 1.2 1 0.0252464 0.0160646 0.0224406 0.028005 0.01432 0.0323844 0.025225 0.0366929 0.0421637 0.0508364 0.070273 0.0581825 0.0599399 0.0676612 0.070075 0.0854838 0.0643298 0.0768059 0.0710502 0.0783105
24 2 Si -2.03319 54.9561 2.04772 2.4 1 0.00772209 0.0219638 0.0292908 0.0308424 0.0242244 0.0321017 0.0490285 0.0471679 0.0505751 0.0629938 0.0607975 0.0530305 0.0738304 0.0571992 0.055861 0.064884 0.0776924 0.0712365 0.0678124 0.0628957
25 3 O 1.20062 54.8005 1.84541 -1.2 1 0.0160014 0.033585 0.0269151 0.0207601 0.0204607 0.034925 0.0303149 0.0579091 0.0512842 0.0523019 0.0575209 0.0566318 0.0547828 0.0773474 0.0704374 0.0573409 0.0715589 0.0750653 0.0526565 0.0694179
26 3 O -0.761575 58.8218 1.9793 -1.2 1 0.0182667 0.0141162 0.0156323 0.0352646 0.0221022 0.0294013 0.0375643 0.040697 0.0626286 0.0502463 0.042602 0.0429412 0.0631019 0.0752199 0.087558 0.070432 0.06848 0.063485 0.0763853 0.0564548
27 3 O -1.3644 55.6225 0.666577 -1.2 1 0.00857237 0.0221964 0.0255542 0.030993 0.0295849 0.0292661 0.0468204 0.0449971 0.0314425 0.0428502 0.0628173 0.0405431 0.0658331 0.0679759 0.0774071 0.0714142 0.0786121 0.0674743 0.0748121 0.0590338
28 3 O -1.30287 55.8118 3.14929 -1.2 1 0.00454254 0.0173956 0.0247289 0.0221837 0.0205346 0.0238381 0.0475665 0.0530341 0.037362 0.042521 0.0652262 0.0460508 0.0501596 0.0580306 0.0877369 0.0831406 0.052224 0.0656482 0.0644651 0.0727956
29 1 Mg -2.30719 59.1117 0.491739 1.2 1 0.0173029 0.0149074 0.0150603 0.030503 0.019968 0.0361861 0.022791 0.0518681 0.0293792 0.0770745 0.0306418 0.0472116 0.0308696 0.0693122 0.039479 0.0969929 0.0479896 0.10244 0.0562977 0.0779732
30 1 Mg 2.30645 62.053 1.74048 1.2 1 0.0248333 0.00786293 0.0201378 0.031219 0.0152909 0.0287755 0.0263763 0.0310552 0.0459509 0.0589166 0.0564578 0.0509252 0.0570672 0.0654576 0.0646924 0.0894342 0.0579839 0.0980643 0.0615716 0.0897309
31 2 Si -0.277618 60.3697 1.78822 2.4 1 0.020157 0.0196378 0.022813 0.032858 0.0387869 0.0348688 0.0363697 0.0432038 0.0568864 0.0575237 0.055884 0.0685434 0.0720257 0.056663 0.0773193 0.0701996 0.0606845 0.0946037 0.0618229 0.0621455
32 3 O 1.23552 60.3602 1.909 -1.2 1 0.0322526 0.0256846 0.0185358 0.0243081 0.0329191 0.0303585 0.0245038 0.076859 0.0374093 0.0631941 0.0420954 0.0638605 0.0600877 0.0737683 0.073879 0.0640168 0.0566714 0.0704567 0.0709786 0.0688972
33 3 O -1.23101 64.025 1.76905 -1.2 1 0.0184387 0.0102051 0.0251716 0.0165611 0.0204688 0.0323541 0.036046 0.0431343 0.0479364 0.0423575 0.03811 0.0485712 0.0417531 0.0681715 0.107503 0.056635 0.0837613 0.0556203 0.0729438 0.0627105
34 3 O -1.02139 60.9159 0.473941 -1.2 1 0.0172454 0.0159297 0.0329264 0.0249474 0.0237898 0.01773 0.0412417 0.0468968 0.0409862 0.0400936 0.0573034 0.0408732 0.0500639 0.0590679 0.0874441 0.0741726 0.0727588 0.0643112 0.0654756 0.071629
35 1 Mg -2.53895 69.789 3.07992 1.2 1 0.0146216 0.0217606 0.0121449 0.0291018 0.00597649 0.0360849 0.0137976 0.05492 0.023344 0.0775757 0.0162295 0.0552587 0.0252166 0.0679988 0.0262421 0.10302 0.0327427 0.111771 0.0333227 0.0957561
36 3 O -1.05272 61.0393 3.03757 -1.2 1 0.0191683 0.0168987 0.0281744 0.0206061 0.025091 0.0266322 0.0497911 0.0385435 0.0423292 0.0449214 0.0541499 0.040892 0.0567431 0.0612316 0.092224 0.0714439 0.0751201 0.0669962 0.0635225 0.0642768
37 1 Mg -2.35392 67.0512 4.53524 1.2 1 0.00699625 0.0150385 0.0202046 0.0239387 0.0193079 0.0237248 0.0225261 0.0255855 0.0484306 0.065782 0.0547785 0.0486789 0.05691 0.0680704 0.0555453 0.0897568 0.062832 0.105313 0.0586849 0.0934712
38 2 Si 0.261796 68.8467 4.54334 2.4 1 0.0121912 0.012207 0.0257351 0.0306119 0.0255325 0.0368326 0.0411168 0.0339086 0.0511351 0.0631204 0.0523952 0.0566063 0.0676779 0.0624927 0.0873728 0.0648218 0.0643433 0.0877724 0.054179 0.0670633
39 3 O -1.27682 68.8313 4.53601 -1.2 1 0.0242463 0.00622686 0.0148823 0.0243736 0.0164138 0.0281695 0.0291809 0.0593863 0.0361027 0.0509079 0.0411492 0.065744 0.0501991 0.0652792 0.0677141 0.0689066 0.054793 0.0740992 0.0562732 0.0838129
40 3 O 1.33981 65.2003 4.57247 -1.2 1 0.0104737 0.0180652 0.0244084 0.012671 0.0249492 0.0371021 0.0281787 0.0434809 0.0491465 0.0483896 0.0419015 0.0528406 0.0467169 0.0626158 0.105119 0.0655032 0.0727056 0.0588921 0.0644669 0.0673762
41 3 O 0.988729 68.3085 3.20092 -1.2 1 0.0223861 0.013827 0.0293028 0.016785 0.0239918 0.0219678 0.0395257 0.0436057 0.0445659 0.0340382 0.0525583 0.0376375 0.0525718 0.0582131 0.0819203 0.0704261 0.076273 0.0693113 0.0703264 0.0741956
42 3 O 0.994786 68.053 5.7681 -1.2 1 0.0125179 0.0133513 0.0262109 0.0246119 0.0212201 0.0193067 0.0395255 0.0423986 0.0405422 0.0474982 0.0532023 0.0400039 0.0589395 0.0620126 0.0802885 0.0697826 0.0792073 0.0731651 0.0715574 0.0654365
43 1 Mg -0.0934844 64.776 3.31302 1.2 1 0.0206027 0.0151254 0.0152792 0.0270719 0.018581 0.0345197 0.0182686 0.0496002 0.0345197 0.0770359 0.0305222 0.0404878 0.0319904 0.0740495 0.0383312 0.0918032 0.0587264 0.108699 0.0693081 0.082976
44 1 Mg -0.0242572 61.6327 4.77592 1.2 1 0.0134671 0.0223926 0.0152036 0.0324315 0.0150519 0.0254638 0.0236159 0.0310316 0.0390651 0.0625849 0.0611974 0.0510818 0.0684394 0.060096 0.0652948 0.0810151 0.0718153 0.0933211 0.0618986 0.0775404
45 2 Si 2.12643 63.7632 4.61821 2.4 1 0.039691 0.0170724 0.0207668 0.0284727 0.0192587 0.0331016 0.0421064 0.0341195 0.0486461 0.068205 0.0504148 0.0544982 0.0620287 0.057641 0.0874056 0.0644751 0.0733836 0.0843417 0.0633202 0.0643789
46 3 O -1.10578 63.6601 4.83285 -1.2 1 0.0338561 0.00646154 0.0186343 0.0258375 0.0247307 0.0193297 0.0197984 0.0656604 0.0395148 0.0531494 0.0443384 0.0678141 0.0484153 0.0672467 0.0731551 0.0627332 0.0587962 0.0729839 0.0565865 0.078234
47 3 O 1.04732 59.9473 4.8349 -1.2 1 0.0180389 0.0158883 0.0220791 0.0180212 0.0241893 0.037784 0.0424935 0.0491255 0.047921 0.0520455 0.0424314 0.0525716 0.0476037 0.0699322 0.103503 0.0663717 0.0732961 0.0554988 0.0688361 0.0576848
48 3 O 1.52875 63.0031 3.4046 -1.2 1 0.0308565 0.00913922 0.0293627 0.024354 0.0300233 0.022945 0.0491617 0.0442943 0.0423421 0.0439971 0.057949 0.036874 0.0525201 0.0751696 0.0661183 0.0748511 0.0774623 0.0608868 0.0653502 0.0724695
49 1 Mg 0.089829 64.3832 0.198296 1.2 1 0.0258354 0.0121292 0.0135882 0.0297158 0.0132242 0.0387806 0.0139581 0.0573034 0.0223519 0.078078 0.0266918 0.0523535 0.0291452 0.07307 0.030048 0.0961112 0.0429188 0.109029 0.056648 0.0847241
50 3 O 1.41246 63.1295 5.96451 -1.2 1 0.0219854 0.00768299 0.0298286 0.0198993 0.029923 0.0209006 0.0453432 0.0443649 0.0393537 0.0386135 0.054549 0.0515191 0.043821 0.0708249 0.0786409 0.0717781 0.0759685 0.0518558 0.075163 0.0718422
51 1 Mg 0.0275502 67.4791 1.50189 1.2 1 0.0195063 0.0221833 0.0145661 0.0313444 0.018981 0.0269026 0.0254359 0.0369743 0.0344263 0.060203 0.055487 0.0559806 0.0631178 0.0647972 0.0664039 0.0733267 0.0776834 0.0951982 0.0799372 0.0712775
52 2 Si -2.00968 65.5572 1.69236 2.4 1 0.0251478 0.0122198 0.0196624 0.0288595 0.0347695 0.0263777 0.0447237 0.0416255 0.0459088 0.0559782 0.0496383 0.0652015 0.0672914 0.0599813 0.0745817 0.0739492 0.0598774 0.0994935 0.0562818 0.0637491
53 3 O 1.13106 65.5605 1.75071 -1.2 1 0.0407783 0.011443 0.0169868 0.0208341 0.0262733 0.0284934 0.023743 0.0675326 0.0380109 0.0584572 0.0397903 0.0754685 0.0592681 0.064541 0.0720347 0.0680909 0.061037 0.0685962 0.0703931 0.0663167
54 3 O -0.968513 69.1466 1.63304 -1.2 1 0.00950455 0.0225721 0.02347 0.0164301 0.020349 0.0353346 0.0291425 0.0429378 0.0557594 0.0466181 0.0379291 0.0488948 0.0508835 0.0655599 0.107325 0.0609838 0.0674681 0.0530441 0.066779 0.0680132
55 3 O -1.41715 66.2825 0.348913 -1.2 1 0.0249836 0.00870655 0.0224855 0.0187583 0.0233554 0.0306962 0.0420255 0.0388869 0.0321334 0.0507243 0.0535327 0.039462 0.0585087 0.064782 0.079758 0.0739966 0.0752001 0.0607788 0.0653243 0.0654587
56 3 O -1.5034 66.2889 2.97347 -1.2 1 0.0207117 0.00813143 0.0217356 0.0193898 0.0243379 0.0240333 0.0445575 0.0476742 0.0369356 0.0528369 0.0521563 0.040696 0.0520501 0.068496 0.0696991 0.0724373 0.0728559 0.0618476 0.0655083 0.0775312
57 1 Mg -2.18153 69.6971 0.141508 1.2 1 0.0160325 0.0169532 0.00839142 0.0305763 0.0100461 0.0362403 0.0198559 0.057536 0.0222525 0.0745834 0.0290047 0.04953 0.0307073 0.0711113 0.0329558 0.0917984 0.0482551 0.107175 0.0541965 0.0801193
58 1 Mg 2.14595 72.454 1.36449 1.2 1 0.00107694 0.00797816 0.0167282 0.0300388 0.0189521 0.0304067 0.029026 0.0319967 0.0409626 0.0619263 0.0598145 0.0520095 0.0591541 0.0642723 0.0610401 0.0932282 0.0635112 0.0960446 0.0795566 0.0741013
59 2 Si -0.364898 70.6487 1.61853 2.4 1 0.0227569 0.021016 0.0123055 0.0294988 0.0230631 0.032375 0.0395724 0.0315544 0.0565342 0.0518246 0.0570867 0.0649583 0.0681057 0.0579497 0.0861891 0.0702326 0.0660164 0.0843478 0.0590779 0.0639985
60 3 O 1.15349 70.7384 1.4311 -1.2 1 0.0212676 0.0143629 0.0229749 0.0237552 0.0360022 0.0189869 0.0242595 0.0632531 0.0406742 0.0548266 0.0408095 0.0608016 0.0591507 0.066032 0.0723716 0.0602906 0.0624558 0.0670529 0.0709821 0.068428
61 3 O -1.62989 74.4456 1.48139 -1.2 1 0.0202171 0.0250509 0.0230266 0.0176999 0.0186572 0.0362377 0.0277299 0.0450939 0.0596484 0.0391761 0.0484231 0.0430756 0.0522354 0.0687377 0.0999278 0.0740142 0.0604779 0.0474408 0.0798209 0.0665606
62 3 O -1.19907 71.4605 0.343893 -1.2 1 0.011577 0.0229647 0.0298623 0.0214476 0.0218229 0.0155584 0.0435229 0.0449994 0.0357078 0.0453366 0.0491196 0.0408425 0.0567593 0.0481483 0.0885804 0.0697026 0.0784821 0.0663432 0.0668731 0.0615622
63 1 Mg -2.55498 80.1886 3.1225 1.2 1 0.00977103 0.0121569 0.0121187 0.0359485 0.00880038 0.036649 0.0129792 0.0617327 0.0199906 0.0806295 0.0193336 0.0484231 0.0209485 0.0686615 0.0270501 0.113096 0.0314696 0.101754 0.0373708 0.0955077
64 3 O -1.12898 71.2552 2.93561 -1.2 1 0.020323 0.0096152 0.0344453 0.0172625 0.0237719 0.0181454 0.0394494 0.0422454 0.0403233 0.0339162 0.0556533 0.0421184 0.0540961 0.0573778 0.0852171 0.0698069 0.0859808 0.0663644 0.0734876 0.0701
65 1 Mg -2.46513 77.2597 4.69518 1.2 1 0.0217694 0.0125126 0.0177925 0.0296556 0.0142641 0.0267974 0.0290093 0.0324264 0.0432949 0.0611563 0.0516554 0.0530857 0.0611331 0.0678184 0.0608259 0.0769467 0.0688735 0.10892 0.0634574 0.084271
66 2 Si 0.393176 79.1003 4.72065 2.4 1 0.0301983 0.0101399 0.0195093 0.0343281 0.0300035 0.0351204 0.0382092 0.0472334 0.0507805 0.0497158 0.0433707 0.0606662 0.0804263 0.0568372 0.0737858 0.0653602 0.0692126 0.0965445 0.06383 0.0527767
67 3 O -1.23093 79.258 4.68089 -1.2 1 0.021276 0.00859945 0.0111878 0.0217956 0.0219461 0.0272979 0.0315526 0.0712494 0.0486246 0.0518598 0.053969 0.0616273 0.0550657 0.0630551 0.0660801 0.0621789 0.0565288 0.0744037 0.0612147 0.0791819
68 3 O 1.27354 75.2816 4.47865 -1.2 1 0.00814661 0.0152258 0.0196184 0.0256451 0.0184503 0.0326696 0.0406721 0.0436313 0.0627144 0.0361534 0.0424353 0.0435758 0.0531043 0.0710422 0.104973 0.0747764 0.0711033 0.0441405 0.0746597 0.0616423
69 3 O 1.00998 78.5203 3.29407 -1.2 1 0.0218639 0.00892592 0.0277401 0.0315356 0.0259434 0.0228217 0.0491572 0.0392021 0.0377324 0.0409998 0.0482396 0.0394999 0.0453397 0.060867 0.0909523 0.0645668 0.0774861 0.0598242 0.0678506 0.0692301
70 3 O 1.1726 78.3193 5.85983 -1.2 1 0.0154339 0.0154215 0.0238515 0.0204514 0.0259751 0.0223095 0.0489075 0.0456774 0.0425961 0.0482177 0.0540054 0.0412586 0.0569635 0.0552295 0.0858097 0.0634191 0.0755889 0.0681558 0.0607304 0.0656722
71 1 Mg -0.343797 75.0747 3.12843 1.2 1 0.0253817 0.0107808 0.00924998 0.0314697 0.0160778 0.0366869 0.0244095 0.0537652 0.0309919 0.0769581 0.0418719 0.0438107 0.040793 0.0641349 0.0374802 0.0896739 0.0609995 0.102144 0.0663591 0.0685114
72 1 Mg 0.00987724 72.0058 4.59329 1.2 1 0.0245881 0.00892743 0.0137152 0.030058 0.0149443 0.0217496 0.0289186 0.0306468 0.0431758 0.0570102 0.0441313 0.0532871 0.0655602 0.0679724 0.0638358 0.0729088 0.0670861 0.110439 0.0668736 0.0804004
73 2 Si 1.90039 73.8755 4.46846 2.4 1 0.0230968 0.0149867 0.0204996 0.0370501 0.0329009 0.0227232 0.0371889 0.0448221 0.0492963 0.0496217 0.0530086 0.0654307 0.0668365 0.0627856 0.0728154 0.0704057 0.0647601 0.095747 0.064138 0.0522564
74 3 O -1.30909 74.0811 4.55054 -1.2 1 0.023004 0.0158298 0.0215918 0.0277855 0.025072 0.0289659 0.0323459 0.0635795 0.0473991 0.049157 0.04503 0.0734688 0.04683 0.0588059 0.0814749 0.0659937 0.0651967 0.0798355 0.0551764 0.0809474
75 3 O 0.86974 70.267 4.60566 -1.2 1 0.0132499 0.0148567 0.0248325 0.0205848 0.0164426 0.0331948 0.0261486 0.0451732 0.0615287 0.0451118 0.0356587 0.0450504 0.0513401 0.0664692 0.102498 0.0607247 0.0720315 0.0506391 0.0644914 0.0702546
76 3 O 1.2006 73.1194 3.26034 -1.2 1 0.0262892 0.0179576 0.0274744 0.0176108 0.0233742 0.0174637 0.0386028 0.0442566 0.0326137 0.0545532 0.0525933 0.0451521 0.052934 0.0496538 0.0853235 0.0686429 0.0725904 0.0677532 0.0636706 0.0711729
77 1 Mg -0.246243 74.7946 -0.0382819 1.2 1 0.00895977 0.0143513 0.013547 0.035968 0.0128546 0.0366247 0.0156515 0.0616512 0.026193 0.083907 0.0234882 0.0482728 0.0222135 0.0701881 0.0279153 0.101493 0.0429434 0.100987 0.0418573 0.0889728
78 3 O 1.13539 73.2653 5.82556 -1.2 1 0.011918 0.0221239 0.0309148 0.0260807 0.0306602 0.0243737 0.0430029 0.0404639 0.0359835 0.0371969 0.0499441 0.0402548 0.0551935 0.0544756 0.0944211 0.0648704 0.0780198 0.0638335 0.0666236 0.067283
79 1 Mg -0.140184 77.8167 1.57135 1.2 1 0.00897202 0.010784 0.0205098 0.0302817 0.0185978 0.0227159 0.0227989 0.0315496 0.0449552 0.0643115 0.053858 0.0593719 0.0590778 0.0653645 0.0681764 0.0696299 0.0764953 0.101137 0.0748767 0.0825912
80 2 Si -2.30911 75.8751 1.47966 2.4 1 0.0143718 0.0131921 0.0221045 0.0239404 0.0273751 0.0309274 0.0424544 0.0296296 0.0478213 0.0652851 0.0506632 0.0631058 0.0581089 0.0581415 0.0810475 0.0664831 0.0666887 0.0868207 0.0585652 0.0644107
81 3 O 0.887419 75.7578 1.58635 -1.2 1 0.0312301 0.00783102 0.0122859 0.0221677 0.0190679 0.0263574 0.0235012 0.0714387 0.0386087 0.0538923 0.0432813 0.0604557 0.0496182 0.0661581 0.0787075 0.0659615 0.0566363 0.0785606 0.0535298 0.0754507
82 3 O -1.00252 79.6495 1.46483 -1.2 1 0.00952069 0.0163757 0.020918 0.0184819 0.0213221 0.0340822 0.0340052 0.0409824 0.0573515 0.0424661 0.0428984 0.0473196 0.0563529 0.0647408 0.0965878 0.0768664 0.0655429 0.0547378 0.0762362 0.055999
83 3 O -1.53022 76.5259 0.16328 -1.2 1 0.0207319 0.0111711 0.0297942 0.0190678 0.0247974 0.0273089 0.0469312 0.04953 0.0337846 0.0433417 0.0556031 0.0378729 0.0472254 0.0684127 0.0830385 0.0739772 0.0737774 0.0615843 0.0641183 0.0740124
84 3 O -1.57243 76.6511 2.78652 -1.2 1 0.0175534 0.0172531 0.0229724 0.0231195 0.0237963 0.0217211 0.0434299 0.0452626 0.0305099 0.0432894 0.0547733 0.0444047 0.0515863 0.0718549 0.0731268 0.0753975 0.0718879 0.0669531 0.0680345 0.0647527
85 1 Mg -2.65292 80.2202 0.0432885 1.2 1 0.01381 0.023127 0.0143636 0.0295219 0.00971394 0.0356894 0.0165563 0.05865 0.0220671 0.0791797 0.0222258 0.0494111 0.0284399 0.0678797 0.0281089 0.102435 0.0471424 0.0997587 0.0510409 0.0866112
86 1 Mg 2.3479 82.9902 1.55663 1.2 1 0.0195374 0.0149964 0.0162756 0.0275899 0.0167531 0.0268798 0.0263132 0.0320657 0.0451543 0.0583857 0.0500199 0.0567048 0.0582046 0.0649186 0.0596584 0.0680224 0.0714554 0.112109 0.0627945 0.0909273
87 2 Si -0.389089 81.1699 1.55993 2.4 1 0.00882799 0.00712649 0.018052 0.0390742 0.0246068 0.0244486 0.0438864 0.0425307 0.0477013 0.0596967 0.0483303 0.065892 0.0682118 0.0577324 0.0833081 0.0657834 0.0606694 0.0892209 0.0622993 0.0709997
88 3 O 1.18156 81.142 1.70483 -1.2 1 0.0283691 0.0198657 0.0218634 0.0200782 0.0249107 0.025134 0.0277234 0.069375 0.0409624 0.0628093 0.0392447 0.0643208 0.0601971 0.0683071 0.0744094 0.0630148 0.0648825 0.0663497 0.0707007 0.0706612
89 3 O -1.50919 84.7744 1.51621 -1.2 1 0.0107647 0.0153729 0.031837 0.0260258 0.0172073 0.0350386 0.0349318 0.0418687 0.0554932 0.0454032 0.0489545 0.0449992 0.0542539 0.0703689 0.109206 0.0728673 0.0626921 0.0517833 0.0706759 0.0672147
90 3 O -1.0847 81.8201 0.260646 -1.2 1 0.0230583 0.0150204 0.0200177 0.015884 0.0223995 0.0292941 0.0409318 0.04679 0.039286 0.0483554 0.0489173 0.0373244 0.0554341 0.0642574 0.0789311 0.0727622 0.0784342 0.06741 0.064402 0.0726549
91 1 Mg -2.56596 90.5897 2.73275 1.2 1 0.00567432 0.0142437 0.0110903 0.0225229 0.0129193 0.0380388 0.0170367 0.0607735 0.0219196 0.0756736 0.0332912 0.045749 0.0311596 0.0661856 0.0364611 0.095047 0.0505532 0.103684 0.0463888 0.0857227
92 3 O -1.11331 81.747 2.80464 -1.2 1 0.0134952 0.0198532 0.0351304 0.0225477 0.0249634 0.0191913 0.043419 0.0478521 0.0383313 0.0484539 0.0531397 0.0446769 0.0582613 0.0553629 0.0856763 0.0691491 0.0735718 0.0565185 0.0691983 0.0681776
93 1 Mg -2.36923 87.6446 4.48341 1.2 1 0.0183394 0.0182851 0.020027 0.0291018 0.0147288 0.0214775 0.0227814 0.0324249 0.0428731 0.0590023 0.0526516 0.0518124 0.0571003 0.0640278 0.0599259 0.0793473 0.0713363 0.0962702 0.0680428 0.0879993
94 2 Si 0.253892 89.441 4.35577 2.4 1 0.00334689 0.0147155 0.0184692 0.0274347 0.02721 0.0360629 0.0399487 0.0390156 0.0486179 0.0528426 0.0547287 0.060266 0.0712045 0.0537408 0.0742046 0.0691812 0.0558933 0.0917315 0.0648184 0.0603075
95 3 O -1.25737 89.5336 4.38684 -1.2 1 0.0284681 0.0122769 0.0128991 0.0205772 0.0188035 0.0274578 0.0211218 0.076258 0.0433675 0.0573262 0.0440372 0.0767143 0.0589755 0.0666164 0.0689721 0.0644767 0.0565784 0.070304 0.0634787 0.0775077
96 3 O 1.43732 85.8172 4.54257 -1.2 1 0.0150332 0.0187637 0.0235022 0.0193721 0.0235077 0.0301533 0.0344568 0.0456399 0.0565881 0.0426659 0.043225 0.0506321 0.0496058 0.0727174 0.101139 0.0778999 0.074477 0.0537949 0.0648672 0.0738983
97 3 O 1.00815 88.7428 3.1121 -1.2 1 0.014248 0.00642194 0.0201811 0.0228996 0.0240022 0.0289551 0.0460146 0.0414975 0.0423252 0.0456666 0.056499 0.0389659 0.0596935 0.0543381 0.0821218 0.074217 0.0692976 0.062655 0.0598173 0.0744176
98 3 O 1.0002 88.8128 5.72618 -1.2 1 0.0120796 0.0131758 0.0246539 0.026103 0.0269712 0.0165009 0.0445171 0.0438628 0.0392269 0.0469336 0.0562007 0.0447783 0.0565444 0.0622425 0.0871881 0.0730825 0.0709768 0.0644766 0.0675052 0.0609128
99 1 Mg -0.118359 85.2622 2.97868 1.2 1 0.00660921 0.0209041 0.0101818 0.035972 0.00904693 0.0398901 0.0114624 0.0576177 0.0129038 0.0832755 0.0143559 0.0513998 0.0158128 0.0712299 0.02417 0.104159 0.0207555 0.115877 0.0242365 0.0968065
100 1 Mg -0.108583 82.5115 4.55387 1.2 1 0.0162455 0.0127161 0.0194093 0.0288403 0.0164557 0.0227798 0.0247695 0.0339751 0.0419833 0.0653063 0.0583046 0.0541714 0.0647754 0.0662377 0.0583964 0.0826297 0.0663122 0.104151 0.067294 0.0886363
101 2 Si 1.993 84.346 4.60231 2.4 1 0.00842601 0.0175929 0.0201747 0.0377815 0.02652 0.0275162 0.0457234 0.0377466 0.0564114 0.0558143 0.0541603 0.0695476 0.0749746 0.0654959 0.084815 0.0650361 0.0603973 0.0884417 0.0538761 0.0617283
102 3 O -1.16094 84.5103 4.46864 -1.2 1 0.0304133 0.0106866 0.0204832 0.0196526 0.0189209 0.0273047 0.0261741 0.065441 0.0443016 0.0530941 0.0441307 0.0705885 0.0492777 0.0690371 0.0789144 0.0697713 0.059639 0.0845061 0.0467814 0.0827962
103 3 O 0.874222 80.6768 4.84555 -1.2 1 0.0130863 0.0205728 0.018974 0.0321609 0.0184727 0.0314057 0.0293009 0.0430322 0.0552548 0.0476106 0.0473678 0.0378473 0.0638132 0.0693517 0.0927174 0.0810066 0.0602727 0.0648484 0.0638005 0.0587641
104 3 O 1.28043 83.6377 3.32469 -1.2 1 0.0112494 0.0185642 0.0242258 0.0218137 0.0237252 0.0179922 0.0468578 0.0490571 0.0337283 0.0511013 0.0500281 0.0471924 0.0596081 0.0733502 0.0881988 0.0665325 0.0799866 0.0581399 0.0704716 0.0658094
105 1 Mg -0.220073 84.9415 0.0738476 1.2 1 0.00804042 0.0233226 0.0163367 0.0327868 0.0141372 0.0329324 0.0176017 0.0460123 0.0381581 0.0714966 0.0327762 0.0500661 0.0324834 0.0542141 0.0461484 0.0943176 0.0651578 0.0976157 0.0631524 0.0742513
106 3 O 1.34814 83.7165 5.94981 -1.2 1 0.0159138 0.0216537 0.0192778 0.0238808 0.0275087 0.0202048 0.0491429 0.0470023 0.0451761 0.039158 0.0560903 0.0402502 0.0497189 0.0622954 0.0864979 0.0712075 0.0700742 0.0535395 0.0704811 0.0773177
107 1 Mg -0.196839 88.1895 1.5614 1.2 1 0.0195646 0.0161184 0.0203709 0.0308846 0.0172971 0.0278358 0.0258396 0.0358898 0.0469535 0.0626868 0.0542694 0.0522993 0.0625972 0.0718408 0.0644464 0.071703 0.0656771 0.102899 0.0685571 0.0835237
108 2 Si -2.22308 86.3175 1.46459 2.4 1 0.0188587 0.014809 0.0237366 0.0172949 0.0301967 0.0256843 0.0305941 0.0381667 0.039065 0.0558058 0.0553555 0.0643346 0.0626587 0.0577273 0.0659998 0.0694485 0.0685221 0.0969593 0.0541921 0.0610564
109 3 O 1.02678 86.1126 1.54444 -1.2 1 0.0314683 0.0103914 0.02234 0.0194251 0.0206577 0.0256073 0.0219633 0.0633027 0.0442184 0.0553195 0.039759 0.0640832 0.054673 0.0548803 0.0769732 0.0643923 0.0678896 0.077497 0.053215 0.0739975
110 3 O -1.14295 89.9126 1.34956 -1.2 1 0.010623 0.0160433 0.0247597 0.0164756 0.0209784 0.0313416 0.0347337 0.0436435 0.0485324 0.0484482 0.0375421 0.0453728 0.0546076 0.064294 0.0964589 0.07482 0.073065 0.0585788 0.0684118 0.0637648
111 3 O -1.52003 86.8579 0.120062 -1.2 1 0.0199825 0.0125527 0.0303726 0.025457 0.030717 0.0211388 0.0506265 0.0491512 0.0363552 0.0434218 0.0535058 0.0426486 0.0521398 0.0731709 0.0859688 0.0802015 0.0670923 0.0590893 0.0690198 0.0783908
112 3 O -1.51905 87.0546 2.73873 -1.2 1 0.0120493 0.00660057 0.0220193 0.0192476 0.0279808 0.0207791 0.0370598 0.0554014 0.0327218 0.0492587 0.0548025 0.0414271 0.0561389 0.0678145 0.0750442 0.0751138 0.0689853 0.0674592 0.0645797 0.0662762
113 1 Mg -2.53296 90.5035 -0.101402 1.2 1 0.00935585 0.0167561 0.0145309 0.0293598 0.00960079 0.035162 0.0154923 0.0584632 0.0184573 0.0779799 0.0162479 0.0484631 0.0208397 0.0693991 0.0250284 0.101461 0.0287959 0.110195 0.031016 0.0923678
114 1 Mg 1.9403 93.4414 1.53144 1.2 1 0.0254181 0.0106632 0.0229392 0.0351519 0.0155901 0.0266899 0.026011 0.0352481 0.0394923 0.056135 0.0656226 0.0600914 0.0553197 0.0585569 0.0662474 0.0883901 0.0738839 0.0795503 0.074222 0.0621644
115 2 Si -0.534668 91.5147 1.40401 2.4 1 0.0149931 0.0122187 0.021086 0.0266958 0.0351738 0.0277766 0.039646 0.0421411 0.0537978 0.0467542 0.0454268 0.0656347 0.0623288 0.0597821 0.084922 0.0662594 0.0604885 0.092354 0.0633955 0.0594581
116 3 O 0.926606 91.4253 1.41043 -1.2 1 0.0155337 0.0170681 0.0182112 0.0202048 0.0231897 0.0277866 0.0249795 0.0724125 0.047876 0.0546514 0.032951 0.0732928 0.0665019 0.0651575 0.0832537 0.0709844 0.0624282 0.079115 0.0526133 0.073358
117 3 O -1.58045 95.3585 1.49101 -1.2 1 0.0107454 0.0233952 0.0204595 0.0241716 0.0171116 0.0369384 0.0371682 0.0401399 0.0613895 0.0339481 0.0469308 0.0417894 0.0481453 0.0670258 0.099066 0.0711673 0.0789373 0.0457163 0.0754728 0.060108
118 3 O -1.32007 92.0263 0.117356 -1.2 1 0.00690855 0.0111219 0.0290015 0.0214098 0.0284631 0.0173942 0.0473251 0.0419117 0.0420283 0.040948 0.0514262 0.0495691 0.0553081 0.0448996 0.097464 0.0678529 0.0748949 0.0682393 0.0636688 0.0777655
119 1 Mg -2.57798 101.182 2.77405 1.2 1 0.00538447 0.00986897 0.0192034 0.0317375 0.0165022 0.0407022 0.0178078 0.0613967 0.0213725 0.0770585 0.0287901 0.0463986 0.0387716 0.0638898 0.0332008 0.0925104 0.0551979 0.102422 0.0506639 0.0818209
120 3 O -1.26285 92.1397 2.68731 -1.2 1 0.0117213 0.0178367 0.0333695 0.0254396 0.0288068 0.026063 0.0486656 0.0447375 0.0442958 0.0382524 0.0539229 0.0450018 0.0507791 0.0542751 0.0955555 0.0687635 0.0734057 0.0575877 0.0631557 0.0664753
121 1 Mg -2.49408 98.3528 4.54717 1.2 1 0.0125376 0.0120106 0.0255346 0.0288741 0.0137563 0.0319972 0.0289044 0.0277964 0.0495735 0.0592916 0.0581435 0.0486274 0.06254 0.063071 0.0566578 0.0904597 0.0549071 0.100547 0.0590577 0.0892554
122 2 Si 0.0844762 100.088 4.19147 2.4 1 0.0127988 0.0198796 0.0270018 0.0323442 0.024756 0.0286937 0.0420633 0.0433283 0.0429052 0.0568107 0.0592566 0.0509918 0.0686182 0.0541182 0.079707 0.05963 0.0670336 0.0800931 0.0734779 0.0589171
123 3 O -1.45193 100.18 4.25954 -1.2 1 0.0268829 0.0203329 0.0201599 0.0207284 0.0266678 0.032265 0.0281743 0.0636856 0.0442904 0.05793 0.0410977 0.0653166 0.0524368 0.072235 0.0695866 0.0604656 0.0595012 0.0743621 0.0593165 0.066893
124 3 O 1.35424 96.3128 4.54407 -1.2 1 0.00999205 0.0212209 0.0221809 0.0252439 0.0231603 0.0263273 0.0318173 0.0480531 0.0584614 0.0438542 0.0462107 0.0512244 0.0524852 0.073773 0.0956308 0.0702289 0.071029 0.0596601 0.0743063 0.0537574
125 3 O 0.903608 99.5936 2.89113 -1.2 1 0.0196339 0.0185918 0.0187933 0.0243218 0.0347617 0.0208517 0.0465769 0.0479764 0.04652 0.0374699 0.0600864 0.0437419 0.0540353 0.0543566 0.0908612 0.0674365 0.0772646 0.0648124 0.0619119 0.0803433