ITEM: TIMESTEP
55600
ITEM: NUMBER OF ATOMS
5600
ITEM: BOX BOUNDS xy xz yz pp pp pp
0	7.1235	0
0	201.985	2.3745
0	119.584	0
ITEM: ATOMS id type element xu yu zu q Q_1 Q_2 Q_3 Q_4 Q_5 Q_6 Q_7 Q_8 Q_9 Q_10 Q_11 Q_12 Q_13 Q_14 Q_15 Q_16 Q_17 Q_18 Q_19 Q_20 Q_21
1 1 Mg -1.75007 48.4877 -0.586836 1.2 1 0.47583 0.0310726 0.121448 0.0338301 0.0752826 0.0454164 0.0562117 0.0571101 0.0698858 0.0787778 0.0743947 0.0718427 0.0920307 0.0818857 0.0862493 0.108842 0.105213 0.093406 0.094597 0.095884
2 1 Mg 2.81718 51.0226 1.88105 1.2 1 0.23395 0.108492 0.0376458 0.0497589 0.0356077 0.0423458 0.0590914 0.0516292 0.0669508 0.0630229 0.0773872 0.0722585 0.0837983 0.0616072 0.0789015 0.0705363 0.080368 0.0889785 0.0965516 0.0720545
3 2 Si 0.522095 50.0081 0.233939 2.4 1 0.314422 0.111002 0.044258 0.0644356 0.0401926 0.0578608 0.0616031 0.066345 0.0498347 0.0777574 0.0572993 0.0653561 0.0593892 0.0802592 0.0806337 0.0899095 0.0848928 0.0841215 0.0851965 0.0872002
4 3 O 1.54864 48.8782 0.601594 -1.2 1 0.434928 0.06492 0.109404 0.0529817 0.065315 0.0611535 0.0659702 0.0544411 0.0686712 0.0637297 0.0757662 0.0769116 0.0663196 0.0747316 0.0739493 0.10642 0.0935284 0.0837519 0.107602 0.0889332
5 3 O -1.38219 53.3417 1.46773 -1.2 1 0.0787097 0.0557648 0.0461581 0.0185244 0.0214825 0.0340965 0.0324741 0.0427896 0.0692943 0.0514516 0.0539244 0.0482621 0.0758828 0.0629231 0.0727646 0.0616312 0.0716457 0.0672335 0.0734611 0.0671735
6 3 O -0.348859 49.7406 -0.975238 -1.2 1 0.346777 0.110798 0.0789422 0.0539272 0.0231775 0.0571184 0.0436994 0.0465372 0.0469047 0.0759768 0.0679765 0.0633867 0.0927291 0.0940032 0.0806416 0.0906364 0.0782207 0.0813779 0.0634772 0.076418
7 1 Mg -2.38353 58.5664 3.19572 1.2 1 0.0159068 0.0228727 0.0120444 0.0268597 0.0200116 0.0425918 0.0202863 0.0697346 0.0316772 0.0682165 0.0361882 0.0540514 0.0292022 0.0605734 0.0404902 0.0913205 0.0652173 0.0980149 0.0629626 0.0774894
8 3 O -0.300383 50.3843 1.39839 -1.2 1 0.293314 0.127222 0.0488608 0.0450178 0.0346669 0.0382267 0.0546402 0.0536938 0.0727449 0.0824008 0.0727785 0.0533834 0.0620207 0.0763934 0.0901699 0.0777665 0.079345 0.0697036 0.0809138 0.0834569
9 1 Mg -2.06443 55.9948 4.66411 1.2 1 0.0139853 0.0214637 0.0219739 0.0227358 0.0200383 0.0335556 0.0371049 0.0312533 0.0514448 0.0453515 0.0643438 0.0600217 0.0603123 0.0633252 0.06115 0.0886709 0.0666133 0.0794538 0.0617889 0.0817423
10 2 Si 0.482406 57.6004 4.64667 2.4 1 0.0185245 0.0161796 0.0189233 0.0261703 0.0314147 0.0360614 0.0437982 0.0470468 0.0608572 0.0643305 0.0480226 0.0643866 0.0583874 0.0622909 0.0837658 0.0713893 0.0457223 0.0880804 0.0708837 0.0649535
11 3 O -1.02972 57.6976 4.58714 -1.2 1 0.0338843 0.0396589 0.0155559 0.0231215 0.0330736 0.0283509 0.0264532 0.0777137 0.0391949 0.069536 0.0353118 0.0707732 0.0682606 0.077424 0.0695375 0.0701865 0.0543887 0.0678687 0.0626883 0.067753
12 3 O 1.57839 54.1075 4.52735 -1.2 1 0.0528157 0.0451246 0.032061 0.0196911 0.022712 0.0389546 0.0359043 0.0471412 0.0575386 0.0485791 0.0620224 0.0508848 0.0672657 0.0695018 0.0868012 0.0806737 0.0735523 0.0684453 0.0752945 0.066991
13 3 O 1.13907 57.2204 3.15071 -1.2 1 0.013631 0.0116084 0.0351123 0.0139851 0.0126045 0.0260918 0.0535801 0.0459882 0.0536833 0.046057 0.0573775 0.0443534 0.0559428 0.0572898 0.0993922 0.0739705 0.0655244 0.0707388 0.0618406 0.0737723
14 3 O 1.24304 56.8452 5.7312 -1.2 1 0.0309363 0.0134611 0.0277354 0.0168406 0.0365425 0.0322306 0.0431483 0.0472295 0.0407861 0.051031 0.0620231 0.0465993 0.055244 0.0523825 0.0851968 0.0782578 0.0595703 0.0723286 0.0534988 0.0634547
15 1 Mg 0.132338 53.6662 2.84819 1.2 1 0.0634619 0.0538239 0.0422036 0.0231265 0.0149077 0.0334699 0.0259103 0.0614714 0.04297 0.0749484 0.0455838 0.0555889 0.0430344 0.059334 0.0571623 0.0742087 0.0725982 0.0872863 0.065597 0.0723819
16 1 Mg 0.820894 50.0279 2.90681 1.2 1 0.323027 0.111366 0.0382345 0.0783994 0.0290003 0.0501104 0.057812 0.0463794 0.071304 0.0790162 0.0594691 0.0841629 0.0526956 0.0868634 0.0892041 0.0727689 0.0738643 0.0826022 0.076401 0.0751619
17 2 Si 2.28155 52.7301 4.36627 2.4 1 0.109446 0.0786064 0.0524419 0.0257831 0.015088 0.036685 0.0416028 0.0410608 0.0569748 0.0788069 0.0724857 0.0613759 0.0740476 0.0738676 0.0786423 0.0712927 0.0710233 0.0866432 0.0768549 0.0640816
18 3 O -0.98733 52.6312 4.41367 -1.2 1 0.12839 0.0922127 0.0376925 0.0169358 0.0205374 0.03546 0.0449237 0.0578653 0.0512201 0.0615687 0.0325884 0.0858744 0.055262 0.0823723 0.0805033 0.0886246 0.0739358 0.0776635 0.0786058 0.0671861
19 3 O 2.74904 49.6009 3.23221 -1.2 1 0.357906 0.107069 0.0750805 0.0744167 0.0223413 0.0592883 0.0391084 0.0720859 0.073955 0.0925388 0.0549234 0.0713789 0.0601624 0.0869819 0.110506 0.10015 0.0736276 0.0729675 0.0923805 0.104478
20 3 O 1.5178 52.17 2.9941 -1.2 1 0.159903 0.0901589 0.0281014 0.0209824 0.0197868 0.0358888 0.0574651 0.0391894 0.0679201 0.0567623 0.0674384 0.0550576 0.0728581 0.0654311 0.0681455 0.0608871 0.0817067 0.0680589 0.0821549 0.0805
21 1 Mg 0.0426125 53.6904 0.120729 1.2 1 0.0592916 0.0424278 0.0451796 0.0345688 0.0243554 0.0279362 0.029662 0.0611386 0.0461118 0.0757366 0.0392249 0.0581548 0.0504066 0.0608661 0.0705818 0.0883054 0.0720926 0.0816501 0.0678875 0.0795206
22 3 O 1.46068 51.8053 5.54501 -1.2 1 0.182447 0.0960363 0.0293352 0.0278688 0.0325174 0.0408316 0.036154 0.0723561 0.0680089 0.0627464 0.051932 0.055349 0.0666657 0.0647909 0.0845229 0.0676561 0.0849681 0.0735262 0.0707607 0.0790401
23 1 Mg 0.0588259 56.7035 1.44615 1.2 1 0.0095432 0.00598416 0.0178052 0.029093 0.0239087 0.025754 0.0278555 0.0434063 0.0379537 0.0527319 0.0662098 0.0692214 0.0572381 0.0679129 0.0730126 0.0661856 0.0955407 0.073974 0.0660871 0.0680626
24 2 Si -1.97182 54.8383 1.55925 2.4 1 0.0224022 0.0249323 0.0285805 0.028338 0.019594 0.0369753 0.0424545 0.0431356 0.0560876 0.065339 0.0577241 0.0677141 0.0791927 0.0687167 0.0466918 0.0687016 0.0783092 0.0746751 0.0636964 0.0682305
25 3 O 1.23749 54.8325 1.32448 -1.2 1 0.0128917 0.0289134 0.0308201 0.019904 0.016815 0.0257061 0.028358 0.0554288 0.0437376 0.0621079 0.0523297 0.0593305 0.0621853 0.0747961 0.0552643 0.054182 0.0665354 0.0674113 0.0790519 0.0521399
26 3 O -1.07726 58.4203 1.65838 -1.2 1 0.0170377 0.00464946 0.0189318 0.0260822 0.0146766 0.0360947 0.0363118 0.0454334 0.0544391 0.0410488 0.0452264 0.0470299 0.0604349 0.0735464 0.0980752 0.060219 0.0764229 0.0556329 0.0776016 0.0480002
27 3 O -1.41436 55.6141 0.130209 -1.2 1 0.0153317 0.0057982 0.0285975 0.0313638 0.0234399 0.0389082 0.0412485 0.0495015 0.0461029 0.0523105 0.0570969 0.0465971 0.0666889 0.0548413 0.0745021 0.0782009 0.051051 0.0663735 0.0698735 0.0745964
28 3 O -1.26929 55.1929 2.88653 -1.2 1 0.0159657 0.0213557 0.0270235 0.023494 0.0137705 0.0201984 0.0509298 0.0430738 0.0425932 0.0420113 0.0595475 0.0542685 0.0593452 0.0670345 0.0875487 0.079812 0.0681 0.0757224 0.0659857 0.0761677
29 1 Mg -2.55816 58.7861 0.290876 1.2 1 0.0289061 0.0162062 0.0126037 0.0348324 0.0199985 0.0346256 0.020216 0.0526075 0.0255967 0.0821714 0.0310056 0.0446876 0.0330516 0.0752419 0.0366104 0.0948434 0.0535058 0.1107 0.0573192 0.082017
30 1 Mg 2.2404 61.8473 1.64279 1.2 1 0.0225798 0.015771 0.0194461 0.031484 0.015646 0.0245037 0.0306415 0.0350705 0.0385334 0.0585166 0.0598378 0.0601895 0.0586765 0.068953 0.0718988 0.0740023 0.0743368 0.0924521 0.0807502 0.0751936
31 2 Si -0.375539 59.8853 1.75832 2.4 1 0.00877213 0.0180022 0.0206533 0.0339693 0.0350747 0.0288819 0.0414244 0.0459035 0.051562 0.0512244 0.0563568 0.0622738 0.0715193 0.0494126 0.0719678 0.0756446 0.0672019 0.0951562 0.0722957 0.059842
32 3 O 1.12585 59.8967 1.67334 -1.2 1 0.0163428 0.0156095 0.0172553 0.015623 0.0361546 0.0319185 0.0203334 0.0701949 0.0445409 0.0655316 0.0394192 0.0720355 0.064687 0.0693893 0.0770676 0.0565937 0.0648181 0.0695574 0.0660167 0.0768828
33 3 O -1.36751 63.8474 1.69916 -1.2 1 0.0151298 0.0105487 0.0216619 0.0340014 0.0233561 0.0427649 0.0374555 0.035717 0.0596366 0.0340703 0.0522231 0.0527648 0.0560354 0.077168 0.0994271 0.0754318 0.0740419 0.0581586 0.082584 0.0547835
34 3 O -1.11422 60.7133 0.651264 -1.2 1 0.0144492 0.0238656 0.0371932 0.0242742 0.0202723 0.0264697 0.0386514 0.0544903 0.0416437 0.0421156 0.0597826 0.043856 0.0571371 0.0606237 0.0769337 0.0685443 0.0813779 0.0779682 0.0649275 0.0667154
35 1 Mg -2.2262 69.6759 3.2938 1.2 1 0.0136809 0.0171371 0.0132665 0.0301029 0.013676 0.036977 0.0223072 0.0534126 0.0419091 0.0674752 0.0353209 0.0523332 0.0311852 0.0640158 0.0431909 0.094421 0.0641055 0.0923072 0.0722979 0.070864
36 3 O -0.927725 60.3796 3.23355 -1.2 1 0.02919 0.013672 0.0312742 0.0228564 0.0296792 0.0282839 0.0471335 0.0462267 0.0501932 0.0473755 0.0570784 0.0408784 0.0505182 0.0679212 0.0940722 0.0794339 0.0759395 0.0651356 0.0653483 0.077568
37 1 Mg -2.11701 66.4811 4.76063 1.2 1 0.010035 0.0237514 0.0278141 0.0335149 0.025692 0.0279279 0.0326446 0.0376527 0.0410713 0.0576693 0.0626079 0.0570372 0.0574885 0.063753 0.0656392 0.0785921 0.0702836 0.0874805 0.073816 0.0717345
38 2 Si 0.502149 68.4725 4.64708 2.4 1 0.0212549 0.013595 0.0291725 0.0302359 0.0343732 0.0241182 0.0463121 0.0457315 0.0518604 0.0494878 0.052092 0.0681237 0.0634676 0.0556547 0.0810201 0.0746367 0.0730897 0.0959911 0.0578108 0.0498499
39 3 O -1.06497 68.571 4.75601 -1.2 1 0.0220429 0.0194822 0.0193478 0.0205877 0.0269776 0.0296818 0.0249933 0.0740065 0.0476579 0.0457614 0.0376251 0.0747474 0.0531481 0.0706901 0.078451 0.0741627 0.0579087 0.0744966 0.0462317 0.0752553
40 3 O 1.505 64.5044 4.66327 -1.2 1 0.0154056 0.0170396 0.0204465 0.0393013 0.0173507 0.0379729 0.0399219 0.0376487 0.0646135 0.0384721 0.0526684 0.046268 0.0525589 0.0780204 0.103094 0.0661561 0.0787135 0.0525792 0.0777402 0.0599188
41 3 O 1.00765 67.7402 3.35202 -1.2 1 0.0196004 0.024684 0.0272698 0.025028 0.030922 0.0197852 0.0434426 0.0423142 0.0464191 0.0510486 0.0545783 0.0435602 0.0538283 0.0654002 0.075727 0.0775059 0.076352 0.0592393 0.0666664 0.0705296
42 3 O 1.23781 67.7726 5.85418 -1.2 1 0.0239267 0.00800175 0.030607 0.0298984 0.0287851 0.0252294 0.046845 0.0474728 0.0381417 0.0394336 0.0514312 0.0434103 0.0585733 0.0565473 0.083988 0.0661117 0.0877508 0.0668039 0.0641219 0.0635075
43 1 Mg 0.0912977 64.1735 3.09437 1.2 1 0.00893886 0.0229415 0.0111541 0.0337671 0.0100893 0.0372169 0.0129315 0.0611837 0.0155532 0.0859047 0.0245952 0.0532146 0.0250305 0.075861 0.0224963 0.104325 0.0275039 0.105627 0.0280894 0.0913569
44 1 Mg 0.191589 61.1143 4.73639 1.2 1 0.0228309 0.00561796 0.0169687 0.0346207 0.0132912 0.0301922 0.020976 0.0380038 0.0436676 0.051989 0.0611563 0.0546787 0.0610503 0.062681 0.0789419 0.0721701 0.0739148 0.0934914 0.0684797 0.0788593
45 2 Si 2.22808 63.0458 4.63373 2.4 1 0.0244543 0.0160023 0.0184083 0.0334023 0.0359556 0.0306895 0.0403739 0.0469078 0.0536302 0.059971 0.055805 0.0730046 0.0687545 0.0619284 0.0731385 0.0807267 0.0612945 0.0877225 0.0585423 0.0630321
46 3 O -0.918763 63.1534 4.66584 -1.2 1 0.00967856 0.0178051 0.0194461 0.0229154 0.0364237 0.0316665 0.026421 0.0779579 0.0389976 0.0618677 0.0356003 0.0705914 0.0562302 0.0664849 0.0787855 0.0735554 0.0653546 0.0776963 0.0689248 0.0651745
47 3 O 1.28993 59.206 4.74491 -1.2 1 0.00760261 0.0113683 0.0215648 0.0187721 0.0231144 0.0267308 0.0379952 0.0426605 0.0511586 0.0473759 0.0445865 0.051067 0.0545361 0.0699567 0.0984306 0.0655778 0.0859425 0.0622178 0.0634672 0.0611225
48 3 O 1.74589 62.402 3.30158 -1.2 1 0.0152028 0.00857991 0.0295493 0.0205406 0.0240504 0.0269374 0.0521325 0.0509703 0.0372203 0.0567262 0.0488525 0.045538 0.0540569 0.090238 0.0616577 0.0855921 0.0787156 0.073003 0.0692223 0.0624931
49 1 Mg -0.19874 64.1492 0.11052 1.2 1 0.0139479 0.0115866 0.0137586 0.0306245 0.0137441 0.0428532 0.0173181 0.0642054 0.0218419 0.0789619 0.0240044 0.0499574 0.0295 0.0706068 0.0278536 0.100487 0.0410709 0.112042 0.0497637 0.0808791
50 3 O 1.56549 62.2784 5.95694 -1.2 1 0.0284365 0.0118831 0.0255959 0.0194632 0.0392506 0.0263653 0.0459959 0.0453449 0.0417557 0.0484416 0.0610453 0.0426854 0.0558808 0.06897 0.0756002 0.0832293 0.0669087 0.0589731 0.0624772 0.063698
51 1 Mg 0.270071 67.1456 1.75187 1.2 1 0.0332424 0.0162944 0.0184004 0.0248466 0.0151786 0.0306688 0.022235 0.0338157 0.0382265 0.0549667 0.0578786 0.0653153 0.0584289 0.0633586 0.0782542 0.0644021 0.0780946 0.0743827 0.0864102 0.0659434
52 2 Si -2.10719 65.3783 1.71743 2.4 1 0.0128017 0.0149396 0.0205972 0.0237246 0.0330464 0.0316368 0.0403759 0.0429264 0.0472487 0.0559291 0.0522559 0.0720607 0.0569864 0.0602114 0.0654324 0.0833796 0.0677175 0.088955 0.0613629 0.0647661
53 3 O 1.05105 65.083 1.66159 -1.2 1 0.0199986 0.0192323 0.0135122 0.0280128 0.0287928 0.0339649 0.0288112 0.0671265 0.0415618 0.054927 0.0387989 0.0684544 0.0601559 0.0649545 0.0752946 0.067703 0.0637328 0.0806334 0.0659786 0.0721858
54 3 O -0.890023 69.0041 1.82264 -1.2 1 0.0190706 0.016762 0.01865 0.0271669 0.0169684 0.0353658 0.0366803 0.0448093 0.0545603 0.0504397 0.0511232 0.0466915 0.0578223 0.0744822 0.0958242 0.0795588 0.0726952 0.0521133 0.0714868 0.0597023
55 3 O -1.54255 65.8738 0.393549 -1.2 1 0.0315564 0.0205899 0.0241652 0.0207383 0.0318776 0.0288421 0.0461694 0.0394337 0.0359771 0.0549857 0.0482479 0.0391541 0.0580742 0.0729006 0.0700501 0.0845978 0.0653711 0.0696908 0.0620995 0.0721382
56 3 O -1.43342 65.9675 3.03245 -1.2 1 0.0291826 0.0159296 0.0300554 0.0158066 0.0310793 0.0231977 0.0412574 0.039785 0.0374485 0.0552365 0.0529753 0.0415081 0.0540416 0.07146 0.0757676 0.0769725 0.0789307 0.0675902 0.064033 0.0641629
57 1 Mg -2.34515 69.4999 0.372843 1.2 1 0.0135636 0.0152602 0.0184164 0.0304157 0.0133706 0.0377284 0.0133959 0.0556886 0.0179825 0.081692 0.0272733 0.0506303 0.0244519 0.0643903 0.0285298 0.0964017 0.0490638 0.0982534 0.0424306 0.0881912
58 1 Mg 2.34916 72.4376 1.71912 1.2 1 0.0177293 0.0165581 0.0242282 0.0308673 0.018152 0.022564 0.0294454 0.0362885 0.039023 0.0550603 0.0568299 0.0617094 0.0553869 0.0648404 0.0774882 0.0551595 0.0768482 0.0832866 0.0819086 0.0664707
59 2 Si -0.127735 70.4925 1.87205 2.4 1 0.0140635 0.0181418 0.0203702 0.0318323 0.0280747 0.0241396 0.0400604 0.038743 0.0399555 0.0586769 0.0544127 0.0601986 0.0684235 0.0540021 0.080199 0.0813506 0.0662071 0.0820505 0.0582239 0.0590971
60 3 O 1.31206 70.4939 1.82873 -1.2 1 0.0237149 0.0192822 0.0159393 0.0220097 0.0282927 0.0253809 0.0228041 0.0739825 0.033637 0.0606584 0.0432799 0.0648844 0.0629821 0.0625343 0.0750067 0.0611624 0.0622641 0.0624709 0.0712852 0.0567188
61 3 O -1.36167 74.2727 1.79046 -1.2 1 0.0216174 0.028074 0.0260607 0.0246004 0.0212188 0.0277613 0.0310754 0.0458635 0.0709554 0.0394428 0.0470893 0.0395653 0.0602525 0.0689451 0.094594 0.0815973 0.0613852 0.0552536 0.0666965 0.0619429
62 3 O -0.829321 71.1334 0.577835 -1.2 1 0.0248751 0.0178755 0.0229736 0.0171787 0.0259358 0.0239552 0.0411622 0.0426287 0.0412219 0.0529924 0.0483627 0.0430692 0.0565831 0.0674764 0.0740812 0.0687853 0.0817529 0.0684979 0.0698621 0.0677169
63 1 Mg -2.11516 80.2182 3.02294 1.2 1 0.00833632 0.0139192 0.0119059 0.0305204 0.0203202 0.0304968 0.0305168 0.050195 0.0426495 0.0628154 0.0483063 0.04147 0.0478747 0.0632427 0.0526944 0.0893977 0.076033 0.0820004 0.0660277 0.0691268
64 3 O -0.818859 70.9788 3.21262 -1.2 1 0.0139546 0.0147012 0.016536 0.0223208 0.0320506 0.0281397 0.0451739 0.0431344 0.049716 0.0519515 0.0471413 0.0419762 0.0589683 0.0682796 0.0739985 0.0818377 0.0646702 0.0607978 0.0713293 0.0779706
65 1 Mg -2.01923 77.0573 4.45548 1.2 1 0.0303734 0.00746775 0.0146142 0.0282183 0.0163528 0.0202378 0.0265423 0.024319 0.0515155 0.0591594 0.065446 0.0511471 0.0584425 0.0624136 0.0501017 0.0864031 0.0679877 0.0933294 0.0665389 0.0875146
66 2 Si 0.677241 78.9116 4.38271 2.4 1 0.0144267 0.0179323 0.0310683 0.0357574 0.032673 0.0266263 0.0428409 0.0392819 0.0495806 0.0501873 0.0495575 0.0683195 0.0692363 0.059161 0.0803432 0.0716452 0.0712044 0.097282 0.0535383 0.0524582
67 3 O -0.802735 79.0108 4.39198 -1.2 1 0.015789 0.0146181 0.0261353 0.0145164 0.0237724 0.0261992 0.0264847 0.0653091 0.050734 0.0489645 0.0521561 0.0767835 0.047087 0.0675027 0.0693373 0.0646971 0.0554132 0.0706273 0.0495605 0.0739525
68 3 O 1.3928 75.1042 4.50889 -1.2 1 0.015828 0.0221322 0.0159832 0.0177942 0.0172098 0.0294436 0.0409591 0.044407 0.047883 0.0498001 0.0455172 0.0533881 0.0527261 0.0727954 0.0962669 0.0651917 0.0805515 0.0641187 0.0693168 0.0550263
69 3 O 1.21376 78.1854 3.08879 -1.2 1 0.020973 0.0228836 0.0260978 0.0211972 0.0217964 0.0328614 0.0466254 0.0531773 0.0421795 0.0517529 0.0579182 0.0494308 0.0528304 0.0573731 0.0858204 0.0703374 0.0755178 0.0619197 0.0640683 0.0737236
70 3 O 1.29637 78.3459 5.67788 -1.2 1 0.0102008 0.0102481 0.0278366 0.0165904 0.0257789 0.0163288 0.0441874 0.0469432 0.0432783 0.0434087 0.0485933 0.0515215 0.0538548 0.0713102 0.0874271 0.0640113 0.0890028 0.0511586 0.0756399 0.05252
71 1 Mg 0.0814961 74.562 3.13331 1.2 1 0.00488931 0.0165999 0.00637036 0.0297715 0.0122046 0.0343378 0.011268 0.0590417 0.0140654 0.0834141 0.0162486 0.0545411 0.0251167 0.0711737 0.0205301 0.102148 0.0287485 0.111093 0.0247946 0.0971846
72 1 Mg 0.103597 71.5325 4.90865 1.2 1 0.00870975 0.0165754 0.0119043 0.0308525 0.0212025 0.0192275 0.029636 0.0360871 0.0423223 0.0546298 0.0563187 0.051746 0.0717022 0.06987 0.0699665 0.0608281 0.0849646 0.089248 0.0738631 0.0615528
73 2 Si 2.02509 73.4228 4.67232 2.4 1 0.0165133 0.0213963 0.0185283 0.0225574 0.0305649 0.0373467 0.03282 0.0452795 0.059409 0.0443454 0.0472848 0.0737323 0.0697184 0.0647019 0.0749557 0.0689408 0.068173 0.0885661 0.0556771 0.0538333
74 3 O -1.13922 73.6141 4.58557 -1.2 1 0.0308229 0.0249823 0.0228682 0.0200182 0.0260681 0.0233841 0.0290065 0.0626097 0.0501459 0.0590667 0.0486494 0.068806 0.0598389 0.0717176 0.0799958 0.0631899 0.0637019 0.0654764 0.0617382 0.069722
75 3 O 1.23549 70.0144 4.7951 -1.2 1 0.0123008 0.013097 0.0256013 0.0221698 0.0158548 0.0375974 0.0325216 0.0518524 0.0431274 0.0448974 0.0440579 0.0575893 0.0474794 0.0679437 0.107623 0.0656266 0.0696982 0.0639705 0.060417 0.0645338
76 3 O 1.32164 72.7895 3.37525 -1.2 1 0.0126184 0.0147408 0.0206281 0.0193634 0.0238626 0.0163636 0.0443145 0.045178 0.0389159 0.0497767 0.0430275 0.0441969 0.0554248 0.0562116 0.0924841 0.0690418 0.0806989 0.0634407 0.0695292 0.065255
77 1 Mg 0.149209 74.5707 0.160013 1.2 1 0.0124511 0.0137659 0.0087856 0.023196 0.0101578 0.0404191 0.0116163 0.0612354 0.0160117 0.0823605 0.0140112 0.0585249 0.0161024 0.0666414 0.0193165 0.106486 0.0264598 0.105958 0.0301953 0.087185
78 3 O 1.34632 72.8252 5.9771 -1.2 1 0.00578216 0.0202041 0.0258189 0.026214 0.0219504 0.0251298 0.0450395 0.0403354 0.0351431 0.0457171 0.0523077 0.0424453 0.0597089 0.0503826 0.091418 0.074125 0.0679336 0.0722874 0.0643052 0.0717235
79 1 Mg 0.134015 77.41 1.54829 1.2 1 0.0116587 0.0227762 0.0137129 0.0312879 0.0122647 0.0198506 0.0238944 0.0385112 0.0451466 0.0560465 0.0623898 0.051851 0.0556675 0.0646612 0.0611698 0.0832367 0.0699959 0.0971923 0.0578248 0.0919889
80 2 Si -1.85845 75.7928 1.63739 2.4 1 0.0224683 0.0164697 0.0197485 0.0248317 0.0260936 0.0377047 0.034023 0.0439811 0.0562719 0.0540763 0.0484978 0.0572641 0.0604406 0.0608068 0.0575043 0.0809547 0.052394 0.0925032 0.0583715 0.0588441
81 3 O 1.33341 75.5766 1.46675 -1.2 1 0.015303 0.0164533 0.0202576 0.0203731 0.030345 0.0297611 0.021196 0.071113 0.0470818 0.0562418 0.0457361 0.0647878 0.0606382 0.0611022 0.0712922 0.0688707 0.0624753 0.0622806 0.0624846 0.0626097
82 3 O -0.971843 79.4134 1.47641 -1.2 1 0.011187 0.0158986 0.0207824 0.0215665 0.0184515 0.0256022 0.0370261 0.0438218 0.0567155 0.043538 0.0476494 0.0540275 0.0475652 0.0720733 0.10649 0.0667995 0.0804545 0.0493006 0.0669712 0.0564315
83 3 O -1.15766 76.1274 0.217051 -1.2 1 0.0132096 0.0227608 0.0251134 0.0173989 0.0169503 0.025229 0.0497176 0.0423047 0.0346332 0.0370457 0.0585292 0.0423335 0.0479493 0.0390191 0.0891042 0.0660599 0.0732902 0.0706486 0.0651433 0.0679021
84 3 O -1.03497 76.5142 2.88664 -1.2 1 0.016646 0.0133134 0.0229942 0.0189942 0.0234552 0.0204275 0.0427641 0.0441292 0.0332833 0.0495766 0.0521941 0.0316286 0.060438 0.0499756 0.076807 0.0746163 0.0721637 0.0704941 0.0580519 0.0579385
85 1 Mg -2.26204 80.0937 -0.0168114 1.2 1 0.0146312 0.0287286 0.0258732 0.0322115 0.017071 0.036919 0.0253603 0.049774 0.0378056 0.0732895 0.0405228 0.0450978 0.0357078 0.0766036 0.0517225 0.0932732 0.0642335 0.0976448 0.0613795 0.0750513
86 1 Mg 2.385 83.007 1.28018 1.2 1 0.0133547 0.00793223 0.0220461 0.0272939 0.0153247 0.0225976 0.0290414 0.0378637 0.0493164 0.0664576 0.0496284 0.0624472 0.0548522 0.0654429 0.0719998 0.05065 0.0926182 0.0784639 0.0809139 0.0614806
87 2 Si -0.138169 80.9186 1.4163 2.4 1 0.0142703 0.0180124 0.019801 0.0293085 0.0301156 0.0384487 0.0443956 0.0460136 0.058883 0.0473027 0.0471693 0.070976 0.0700584 0.06254 0.0849324 0.0675916 0.0602264 0.0895248 0.0700804 0.065647
88 3 O 1.42275 80.8576 1.44351 -1.2 1 0.0291394 0.034007 0.0133258 0.0206645 0.0274056 0.0439277 0.0290535 0.0828805 0.0401185 0.0651473 0.0348899 0.0701061 0.0574063 0.0750609 0.0822741 0.0598281 0.0559843 0.0708665 0.0549926 0.066295
89 3 O -1.30896 84.5632 1.51839 -1.2 1 0.0172347 0.0277557 0.0185574 0.0275852 0.0231878 0.0315959 0.0332303 0.0494256 0.0548394 0.0427786 0.0425545 0.0513222 0.0657781 0.076086 0.0962453 0.0650122 0.0780778 0.0628963 0.0718237 0.060011
90 3 O -0.754226 81.5203 0.116003 -1.2 1 0.0220454 0.017442 0.0278147 0.023974 0.0254 0.0243824 0.0537153 0.0488813 0.0395929 0.0486481 0.0547998 0.0407429 0.0636548 0.0663853 0.085867 0.0765918 0.0668279 0.0582296 0.0635785 0.0687101
91 1 Mg -2.20669 90.5638 3.10743 1.2 1 0.0130895 0.0140517 0.0143332 0.0270048 0.0174432 0.0330059 0.0251139 0.0535029 0.0311122 0.0753818 0.0277915 0.053691 0.0301959 0.0702154 0.0419284 0.10024 0.0517089 0.10438 0.0611885 0.07723
92 3 O -0.858304 81.6503 2.7013 -1.2 1 0.0101028 0.0180211 0.0257471 0.0157464 0.0213139 0.0271378 0.0491357 0.0470204 0.0421448 0.0474348 0.0494868 0.0431998 0.0597041 0.0636949 0.0838942 0.0777802 0.064864 0.0653762 0.0641319 0.0701502
93 1 Mg -2.00701 87.5835 4.4987 1.2 1 0.0264974 0.01832 0.0195434 0.0310335 0.0140942 0.0352891 0.0313608 0.0314974 0.0454845 0.0577009 0.0629217 0.0583676 0.0675843 0.0646673 0.0651383 0.0914801 0.0663233 0.0911576 0.0648328 0.0838189
94 2 Si 0.384053 89.4107 4.46327 2.4 1 0.00725257 0.0227353 0.0205538 0.03327 0.0308549 0.0299339 0.0448175 0.0429721 0.0401938 0.0727849 0.0566761 0.0632191 0.064424 0.0544002 0.0849972 0.0563894 0.0672854 0.0813102 0.0645263 0.0726337
95 3 O -1.20617 89.4126 4.40452 -1.2 1 0.0107696 0.0253377 0.0219661 0.0240768 0.0170302 0.0240984 0.0212264 0.0739534 0.0436485 0.0590114 0.0335232 0.0735274 0.0479988 0.0694141 0.0754029 0.0634029 0.0568961 0.0758477 0.0607231 0.0727491
96 3 O 1.64498 85.5444 4.53168 -1.2 1 0.00714356 0.017984 0.0232181 0.0245867 0.0177521 0.0346688 0.0396645 0.0482775 0.0588085 0.0421917 0.0560994 0.0439378 0.0519802 0.0693672 0.101042 0.086213 0.0684158 0.0502518 0.0704802 0.0554167
97 3 O 1.15152 88.7078 3.24766 -1.2 1 0.0162974 0.00806311 0.0238072 0.0268068 0.032779 0.0261705 0.0443461 0.0548277 0.0380334 0.0497986 0.0502032 0.0395939 0.0535711 0.0674893 0.0833736 0.0728047 0.0783184 0.0568019 0.0731639 0.0640334
98 3 O 1.084 88.7674 5.681 -1.2 1 0.0139503 0.0110131 0.032115 0.0164616 0.0372288 0.0234269 0.0498305 0.0396505 0.0433375 0.0550883 0.0484027 0.0428222 0.0532109 0.0761361 0.0655562 0.078358 0.081472 0.0591035 0.0703022 0.0683142
99 1 Mg 0.351738 85.2557 3.09972 1.2 1 0.0238312 0.0185605 0.0190492 0.0245057 0.0192292 0.0256133 0.0204796 0.0554014 0.0385325 0.0783414 0.0286481 0.0470877 0.0332989 0.0774983 0.0331478 0.103266 0.0544898 0.104867 0.0532048 0.079493
100 1 Mg 0.275819 82.1543 4.15003 1.2 1 0.0157483 0.00846157 0.0230833 0.0264546 0.0179199 0.0313456 0.0325964 0.0358965 0.0512494 0.0545949 0.051607 0.0532911 0.0645337 0.0722132 0.0624928 0.0674128 0.078089 0.0926443 0.076896 0.0642382
101 2 Si 2.42986 83.9664 4.60606 2.4 1 0.0114085 0.0158583 0.0191872 0.0359522 0.0267648 0.0284482 0.0418643 0.0449694 0.0423468 0.0560793 0.0589108 0.0668387 0.0782189 0.0534076 0.0819039 0.0756996 0.0591035 0.0732438 0.0698044 0.0550833
102 3 O -0.738104 84.2638 4.50328 -1.2 1 0.0184552 0.0198126 0.0161518 0.023304 0.0165937 0.0258943 0.0284845 0.0755188 0.0371127 0.0607793 0.0421963 0.065866 0.0459684 0.0758767 0.0804885 0.069538 0.0573967 0.0801348 0.0555773 0.0676058
103 3 O 1.46976 80.3692 4.44727 -1.2 1 0.00981385 0.0166388 0.0213681 0.0203016 0.0200982 0.0288172 0.0432028 0.0510341 0.0460702 0.0495028 0.0433257 0.0507438 0.0510754 0.0696125 0.104094 0.0679034 0.073041 0.0571512 0.0641017 0.0519477
104 3 O 1.71816 83.3802 3.3812 -1.2 1 0.0309344 0.010374 0.0206074 0.0165653 0.0287131 0.0233366 0.0453197 0.045364 0.037578 0.0418248 0.052572 0.040641 0.0588285 0.0758772 0.0785161 0.0797314 0.0813322 0.0701209 0.0609106 0.0728963
105 1 Mg 0.1832 85.2855 -0.0993797 1.2 1 0.00507278 0.00824581 0.00977645 0.0295927 0.00834186 0.035372 0.0189106 0.0567794 0.030239 0.0765496 0.0177475 0.0461885 0.0264694 0.0739812 0.0341229 0.100776 0.0470119 0.106868 0.0475114 0.0839199
106 3 O 1.80165 83.461 5.90229 -1.2 1 0.0132251 0.00927346 0.0241251 0.0212528 0.0233675 0.0232276 0.0502294 0.0513044 0.0429368 0.0536608 0.0659621 0.0355343 0.0529179 0.0715908 0.0837 0.0812812 0.0717351 0.0595923 0.0668663 0.0735359
107 1 Mg 0.00954392 88.1092 1.49747 1.2 1 0.013409 0.0147981 0.0201034 0.0286727 0.0246043 0.0258682 0.0333023 0.0363758 0.0485413 0.0531471 0.059852 0.0577875 0.0564401 0.0674697 0.0687022 0.0678515 0.072581 0.109936 0.0596358 0.082887
108 2 Si -1.87116 86.131 1.46319 2.4 1 0.0148151 0.00835811 0.0220956 0.0223814 0.0286967 0.0299925 0.0445127 0.0403684 0.0491634 0.0482084 0.0474327 0.0630151 0.0682266 0.0706278 0.0844647 0.0636411 0.0611972 0.0887038 0.0585051 0.0559933
109 3 O 1.41603 86.0292 1.43456 -1.2 1 0.0233494 0.0231941 0.0169869 0.0205167 0.0286052 0.0302569 0.0335966 0.0706024 0.032621 0.0505012 0.0449915 0.0687545 0.0581635 0.0696332 0.078254 0.0693777 0.0590857 0.0830976 0.0522432 0.0734305
110 3 O -0.78974 89.9437 1.36158 -1.2 1 0.0125135 0.0218461 0.02137 0.0333155 0.0130685 0.0381222 0.0296279 0.0452278 0.0600646 0.0393919 0.0452816 0.0447602 0.0573193 0.0724631 0.101624 0.0643859 0.0688358 0.0522372 0.0785333 0.0586987
111 3 O -1.03721 86.8085 0.251102 -1.2 1 0.00657589 0.0104514 0.0324173 0.026231 0.0290036 0.0283139 0.0486922 0.0429877 0.0304096 0.0451729 0.0564872 0.047556 0.055711 0.0573288 0.0947244 0.0659202 0.0737144 0.0705687 0.0637488 0.061916
112 3 O -1.06043 86.8693 2.68792 -1.2 1 0.0109817 0.0207608 0.0316712 0.0264981 0.0259335 0.0159399 0.0512543 0.0432907 0.0315933 0.0447585 0.0473878 0.044465 0.0600308 0.0617903 0.0847384 0.0688851 0.0742542 0.0628941 0.0580442 0.0652395
113 1 Mg -2.10376 90.2875 -0.081194 1.2 1 0.0102389 0.0192609 0.0157861 0.0365725 0.00789007 0.040923 0.0163546 0.055487 0.0241569 0.0776619 0.0167226 0.0470288 0.0239965 0.0715437 0.0339894 0.0987128 0.0393991 0.109652 0.0466882 0.0840236
114 1 Mg 2.47519 93.4529 1.39928 1.2 1 0.0263931 0.0172246 0.0162337 0.0295394 0.0198315 0.0282117 0.0245051 0.0384074 0.0412797 0.058761 0.0535561 0.0631541 0.0553351 0.0655937 0.0708815 0.0633854 0.0847041 0.0861737 0.0734769 0.0767647
115 2 Si -0.0853401 91.4604 1.49009 2.4 1 0.0241846 0.0210976 0.0217298 0.0230658 0.0353861 0.0308214 0.0355633 0.0373778 0.0468291 0.0670973 0.0580957 0.0615342 0.061393 0.059961 0.0690055 0.0702976 0.067362 0.0955181 0.0520705 0.0690225
116 3 O 1.43955 91.4221 1.35658 -1.2 1 0.030864 0.0294997 0.00909601 0.0218061 0.0355721 0.0324036 0.0216778 0.0780664 0.0330746 0.0633871 0.0431823 0.0666992 0.0648401 0.0651022 0.0747394 0.0638723 0.0561542 0.0773999 0.0677282 0.0742865
117 3 O -1.25026 95.3268 1.44697 -1.2 1 0.018456 0.0178442 0.0133732 0.0325084 0.0167449 0.0370331 0.0383031 0.0420839 0.062395 0.0373036 0.0533949 0.0432159 0.0555083 0.0762737 0.10142 0.0671622 0.0725095 0.0537479 0.0849806 0.0528733
118 3 O -1.00835 92.0523 0.200527 -1.2 1 0.00939993 0.019845 0.0300889 0.0231415 0.0325989 0.0238392 0.0455856 0.0450312 0.0335805 0.0422811 0.0534331 0.0435808 0.0568293 0.0633327 0.0929698 0.0670754 0.0731769 0.0639945 0.0650948 0.0655287
119 1 Mg -2.32509 100.903 2.94745 1.2 1 0.00702682 0.0269294 0.0142089 0.0330688 0.0134852 0.0406998 0.0146656 0.0646858 0.0186899 0.0806919 0.0168389 0.0546168 0.0221003 0.0720363 0.0232315 0.102238 0.0309064 0.113439 0.0294766 0.0971543
120 3 O -0.67957 92.1871 2.7819 -1.2 1 0.0149497 0.0178545 0.0254933 0.0207507 0.0225865 0.0253154 0.040157 0.0436668 0.039203 0.0552366 0.052506 0.0398314 0.0565084 0.0668419 0.0651327 0.0798156 0.0722842 0.0615846 0.070089 0.0677766
121 1 Mg -2.06778 98.0713 4.51351 1.2 1 0.019865 0.0152665 0.0230769 0.033001 0.0199034 0.0336387 0.0261402 0.0377285 0.045559 0.0621453 0.060227 0.0491371 0.0635932 0.0687298 0.0681971 0.0872133 0.0647384 0.0902731 0.0737898 0.0808103
122 2 Si 0.340175 99.8678 4.20591 2.4 1 0.030881 0.0134254 0.0192715 0.0274161 0.0316629 0.0245702 0.0420177 0.04378 0.0458124 0.0550706 0.05734 0.0563822 0.0659116 0.0574422 0.0739262 0.0731422 0.0710861 0.0831124 0.0611049 0.0542434
123 3 O -1.16034 99.8841 4.42349 -1.2 1 0.0232291 0.0157105 0.0235809 0.0225069 0.0358643 0.02632 0.0288889 0.0692487 0.0299069 0.0550962 0.0403506 0.0606951 0.0529974 0.0644785 0.065213 0.0599235 0.0565982 0.0775517 0.0643849 0.0743785
124 3 O 1.75459 96.1583 4.35474 -1.2 1 0.0168072 0.00775 0.025079 0.0233172 0.0187853 0.0359567 0.0312775 0.047944 0.0582497 0.0487555 0.0516445 0.0478664 0.0578364 0.0693744 0.0975531 0.0768528 0.0649541 0.0501453 0.069882 0.0650599
125 3 O 1.07997 99.3595 3.00803 -1.2 1 0.0115484 0.0143815 0.0327728 0.0226159 0.026298 0.0186837 0.0452105 0.0495141 0.0439719 0.0437198 0.0532344 0.0402417 0.0559867 0.0672589 0.0818372 0.0657959 0.0759735 0.0638443 0.0583209 0.0693157