ITEM: TIMESTEP
17600
ITEM: NUMBER OF ATOMS
5600
ITEM: BOX BOUNDS xy xz yz pp pp pp
0	7.1235	0
0	201.985	2.3745
0	119.584	0
ITEM: ATOMS id type element xu yu zu q Q_1 Q_2 Q_3 Q_4 Q_5 Q_6 Q_7 Q_8 Q_9 Q_10 Q_11 Q_12 Q_13 Q_14 Q_15 Q_16 Q_17 Q_18 Q_19 Q_20 Q_21
1 1 Mg -1.77754 49.37 -1.03256 1.2 1 0.471411 0.0463155 0.148116 0.0350261 0.0837281 0.0498783 0.047181 0.0491465 0.0639713 0.0690091 0.0676998 0.0869994 0.0914623 0.102543 0.113092 0.114692 0.0912629 0.0950464 0.0857876 0.105201
2 1 Mg 2.99651 51.5136 2.06393 1.2 1 0.278492 0.1072 0.0219418 0.0662687 0.0385768 0.0190081 0.0671459 0.0520074 0.0740393 0.0835167 0.0553847 0.0787142 0.0626055 0.074389 0.0767638 0.0772464 0.0774181 0.0812706 0.086788 0.079157
3 2 Si 0.765659 51.0169 0.196647 2.4 1 0.304921 0.126439 0.0490076 0.0676302 0.0362119 0.0478613 0.062434 0.0488263 0.0828023 0.0849641 0.0532815 0.0700877 0.0552072 0.0666945 0.0897453 0.0638747 0.102274 0.0841023 0.072012 0.0907946
4 3 O 2.18739 50.386 0.454341 -1.2 1 0.367178 0.112191 0.0782962 0.0715631 0.0315669 0.0646159 0.0407582 0.0830944 0.0555254 0.0912901 0.063933 0.0749823 0.0877791 0.0871121 0.0958377 0.0698614 0.0870841 0.0784896 0.0922392 0.106512
5 3 O -1.43864 53.7196 1.45027 -1.2 1 0.118743 0.0697193 0.0435972 0.0285242 0.0217666 0.0300367 0.0410083 0.0473186 0.0616331 0.0589161 0.0484317 0.0525485 0.0556036 0.0666027 0.0800369 0.0892688 0.0819956 0.0481056 0.0655214 0.0817365
6 3 O 0.0694465 50.1574 -0.941594 -1.2 1 0.406469 0.0771485 0.0879743 0.0672149 0.0474707 0.0670666 0.0485018 0.0652156 0.0852421 0.0796473 0.0809435 0.0771001 0.0919304 0.0914194 0.0951292 0.0940069 0.0867218 0.0902993 0.0671795 0.0889565
7 1 Mg -2.47616 59.3211 3.03954 1.2 1 0.0176253 0.0161504 0.00684384 0.0307606 0.01111 0.035492 0.0143783 0.0567086 0.0212176 0.0763147 0.0244132 0.0512323 0.0211518 0.0651581 0.0275733 0.0980847 0.04923 0.107743 0.0533328 0.0884131
8 3 O 0.0558919 51.1718 1.60227 -1.2 1 0.314436 0.115344 0.0461945 0.0582517 0.0369102 0.0359637 0.0557071 0.0688243 0.0737077 0.0873484 0.0638789 0.0754964 0.0591512 0.0593643 0.0759662 0.0900753 0.0823477 0.0847271 0.0722805 0.0858144
9 1 Mg -2.39578 56.5851 4.64047 1.2 1 0.0142635 0.0204033 0.02048 0.0243766 0.0200621 0.0281723 0.0206313 0.0254533 0.0394855 0.0636439 0.0556879 0.0584191 0.0561422 0.0675273 0.0630262 0.0733717 0.0717613 0.0933975 0.0727028 0.0768935
10 2 Si 0.330771 58.4864 4.64188 2.4 1 0.0233194 0.0106138 0.0241292 0.0311241 0.0281992 0.0295234 0.0439049 0.0387924 0.0520124 0.0586539 0.0471817 0.0699105 0.066073 0.0579718 0.0921508 0.0650089 0.0531369 0.094715 0.0594247 0.0611789
11 3 O -1.23067 58.6263 4.60384 -1.2 1 0.028838 0.0179078 0.0194142 0.021136 0.025186 0.0251947 0.0251582 0.0717095 0.0409757 0.0542872 0.042949 0.0719906 0.0522734 0.0579288 0.0748846 0.0711207 0.0567571 0.0769312 0.0548788 0.08582
12 3 O 1.44914 54.7448 4.70573 -1.2 1 0.0655027 0.0570167 0.0359859 0.0250869 0.0216885 0.0317399 0.0373842 0.0375179 0.0553722 0.0575746 0.0625804 0.0428268 0.0594172 0.0694135 0.0864333 0.0785407 0.0713264 0.062066 0.0751919 0.072404
13 3 O 0.937852 57.738 3.34341 -1.2 1 0.00728989 0.0144905 0.0213022 0.016789 0.0185752 0.026571 0.0443038 0.0477021 0.0357789 0.0518347 0.0467369 0.0416231 0.0621279 0.0646443 0.0854455 0.0792656 0.0652177 0.0664065 0.0584428 0.0744583
14 3 O 1.01385 57.7802 5.8736 -1.2 1 0.0133967 0.0102733 0.0291506 0.0132088 0.0206303 0.0243621 0.0504342 0.0449479 0.0359063 0.0537276 0.0510404 0.0428347 0.0550408 0.0597012 0.0815777 0.0778589 0.0672358 0.0632914 0.0614768 0.0668696
15 1 Mg 0.0915327 54.242 3.13803 1.2 1 0.0841411 0.0623928 0.0445898 0.0329342 0.0203948 0.0289535 0.0265496 0.0637517 0.0387084 0.0736116 0.0486264 0.0557071 0.0437524 0.064508 0.0472475 0.0833601 0.0615686 0.0904964 0.0642769 0.0842952
16 1 Mg 0.802986 50.6358 3.26206 1.2 1 0.355715 0.102983 0.0570362 0.0811272 0.0255111 0.0604817 0.0551933 0.0626563 0.0465786 0.0775539 0.0591606 0.0782464 0.054232 0.0638745 0.0778977 0.0853482 0.0792305 0.088595 0.0894739 0.086365
17 2 Si 2.20332 53.2858 4.60403 2.4 1 0.119764 0.0980022 0.0494629 0.0362484 0.0190691 0.0335577 0.0372056 0.0604364 0.0652268 0.0782647 0.0781398 0.0827892 0.076225 0.0761061 0.0795455 0.0802052 0.0733072 0.0901302 0.0721782 0.0796335
18 3 O -0.983012 53.4192 4.6099 -1.2 1 0.147448 0.082696 0.0346337 0.0208144 0.0159279 0.0335159 0.0489672 0.0574466 0.0487821 0.0751832 0.0384003 0.090514 0.0568909 0.0778224 0.0809332 0.0867431 0.0812227 0.0691274 0.0777898 0.0639097
19 3 O 2.57579 49.9687 3.34082 -1.2 1 0.421171 0.0742493 0.0961309 0.0595855 0.0538481 0.0594012 0.0616391 0.0762263 0.0616268 0.0870204 0.0714371 0.0598615 0.0763809 0.0688214 0.0941603 0.0860398 0.0939685 0.0860481 0.0611921 0.0939271
20 3 O 1.6722 52.6536 3.32736 -1.2 1 0.198636 0.0911214 0.0258106 0.031666 0.026101 0.0404192 0.0469113 0.0714747 0.0505859 0.0601202 0.0567902 0.0524037 0.0807989 0.0706092 0.0757024 0.0730764 0.0983462 0.0836514 0.0773418 0.0774598
21 1 Mg -0.185514 54.3544 0.071542 1.2 1 0.0757222 0.0653027 0.0459579 0.0332747 0.0264352 0.0188143 0.0333718 0.0633788 0.0461263 0.061142 0.0414464 0.0580629 0.0470814 0.0659349 0.0620018 0.0862534 0.070286 0.0962465 0.0542888 0.0855199
22 3 O 1.50505 52.4444 5.85006 -1.2 1 0.192156 0.106948 0.0260093 0.0362681 0.0353403 0.0391513 0.0360512 0.0843609 0.0573963 0.0621853 0.0603459 0.061173 0.0755545 0.082443 0.0798841 0.0756329 0.0784217 0.0820437 0.0741802 0.0579004
23 1 Mg -0.0551959 57.1694 1.64659 1.2 1 0.0119163 0.0101201 0.0164653 0.0248504 0.0164538 0.0243094 0.030579 0.0396231 0.0415425 0.0569726 0.0522533 0.0547279 0.0679008 0.0621871 0.0666287 0.0766393 0.0763588 0.0793251 0.0719527 0.0895971
24 2 Si -2.15148 55.2444 1.5475 2.4 1 0.0296923 0.0347376 0.0313695 0.0238935 0.0106022 0.0392305 0.0505005 0.0416211 0.0594664 0.0591074 0.0571163 0.0630354 0.0751442 0.0550516 0.0714521 0.0527562 0.0660472 0.0672368 0.0709111 0.0697909
25 3 O 1.07934 55.196 1.58618 -1.2 1 0.0387477 0.0395193 0.0352313 0.0184908 0.0194969 0.034013 0.0280864 0.0579315 0.0475221 0.0517088 0.0593711 0.0581273 0.0548113 0.0752874 0.0704333 0.0576031 0.0581698 0.06785 0.0585256 0.0719218
26 3 O -1.104 58.9561 1.60772 -1.2 1 0.00256522 0.016876 0.023153 0.0156823 0.0153938 0.0280298 0.0367455 0.0478659 0.0567325 0.0444592 0.0345993 0.0494366 0.0461034 0.0651716 0.106525 0.0685171 0.071592 0.0455386 0.0660159 0.0667062
27 3 O -1.50284 55.9897 0.302239 -1.2 1 0.0237016 0.0289834 0.0267812 0.0268574 0.0202849 0.0304938 0.052311 0.0449631 0.0357613 0.0400901 0.0678106 0.0422001 0.0539586 0.0667164 0.0769051 0.0732059 0.0678285 0.0681322 0.0784657 0.0640944
28 3 O -1.41321 55.9133 2.77665 -1.2 1 0.0186539 0.0266412 0.036427 0.0232801 0.0254966 0.0201347 0.0471439 0.0386854 0.0427318 0.040775 0.0614453 0.0494185 0.0505021 0.072744 0.0773885 0.0730574 0.0712203 0.06342 0.0765424 0.0623422
29 1 Mg -2.50932 59.3657 0.130853 1.2 1 0.0185711 0.0174006 0.012096 0.0288457 0.0101519 0.0373055 0.0106998 0.0602001 0.0139305 0.084568 0.0162847 0.0519989 0.0120766 0.0710793 0.0211595 0.097868 0.0345324 0.109791 0.0393107 0.0948887
30 1 Mg 2.21552 62.2884 1.56622 1.2 1 0.01094 0.00907106 0.0186929 0.0265929 0.0109688 0.0216907 0.0224122 0.0292554 0.0423504 0.061751 0.0627955 0.0491283 0.0609459 0.0639032 0.059813 0.0867542 0.0643745 0.0956142 0.0675246 0.0884496
31 2 Si -0.460053 60.418 1.58352 2.4 1 0.0189736 0.0129724 0.0177673 0.0319707 0.0298351 0.0369616 0.0390899 0.0388027 0.0544076 0.0519964 0.050276 0.0677995 0.0684709 0.0632224 0.0806077 0.0675399 0.0578158 0.0927128 0.053579 0.0548774
32 3 O 1.06656 60.2955 1.62802 -1.2 1 0.0257604 0.0110389 0.015527 0.0242714 0.0254645 0.026072 0.026539 0.0655726 0.0427234 0.0459431 0.04173 0.0725279 0.0475213 0.0680614 0.0721496 0.0648795 0.0563949 0.0765418 0.054363 0.0779591
33 3 O -1.48785 64.1608 1.59884 -1.2 1 0.00651782 0.0220599 0.0228849 0.0164746 0.0194389 0.0340115 0.0329466 0.0419011 0.0497247 0.0428045 0.0445138 0.0455421 0.0492918 0.0682242 0.101475 0.0685026 0.0722222 0.0511011 0.0673752 0.067742
34 3 O -1.13419 61.125 0.335018 -1.2 1 0.00916992 0.00998278 0.0316589 0.0163107 0.0205776 0.0164628 0.0447042 0.0436545 0.0301407 0.046841 0.0541658 0.0427727 0.053225 0.0572144 0.0852958 0.0684195 0.0746113 0.0590736 0.0681356 0.0630011
35 1 Mg -2.38903 69.8798 3.1703 1.2 1 0.0124676 0.0151595 0.0100088 0.0337575 0.00932776 0.0342181 0.00858584 0.0584379 0.0113019 0.0800566 0.0131231 0.0539582 0.0106555 0.0718513 0.0135846 0.105614 0.0189775 0.11596 0.018184 0.0995567
36 3 O -1.19185 61.0531 2.90047 -1.2 1 0.0204696 0.012775 0.0304551 0.0229087 0.0257036 0.0216321 0.051988 0.0403795 0.03651 0.0377757 0.0577614 0.042555 0.0541607 0.0565941 0.0990635 0.0653094 0.0752941 0.0626413 0.0680114 0.0687512
37 1 Mg -2.2857 66.8766 4.63115 1.2 1 0.0219551 0.0190114 0.0182856 0.0317011 0.0130126 0.0264024 0.0244206 0.0429825 0.0379973 0.0582481 0.0568725 0.0576663 0.0557249 0.0611607 0.0621275 0.0702315 0.0796378 0.0897383 0.0748414 0.0742089
38 2 Si 0.335426 68.8332 4.60831 2.4 1 0.0175428 0.0169849 0.0193097 0.0378859 0.0304258 0.0296715 0.0381601 0.0384749 0.0509796 0.0575129 0.0530811 0.0635698 0.0754876 0.0566409 0.0816711 0.0717492 0.0572335 0.0913634 0.0577535 0.0580809
39 3 O -1.18175 68.9099 4.67426 -1.2 1 0.0169282 0.00890641 0.0177031 0.0241651 0.0214793 0.0263529 0.0226347 0.0652997 0.0391302 0.0502766 0.0429767 0.0695289 0.056256 0.0664337 0.0707474 0.0653115 0.056998 0.0696196 0.0605466 0.0738227
40 3 O 1.53092 65.0663 4.5505 -1.2 1 0.0191797 0.0202359 0.0237526 0.0198951 0.0201258 0.0336826 0.0285972 0.0412474 0.0642667 0.0409918 0.0462017 0.0414083 0.0555026 0.0703211 0.0981597 0.0763961 0.0653942 0.048122 0.0721074 0.0651917
41 3 O 0.987619 68.1407 3.35115 -1.2 1 0.012321 0.00770582 0.0287691 0.0197205 0.0255475 0.0212858 0.0448844 0.0377322 0.0406641 0.0481996 0.0532236 0.0409411 0.0542248 0.0577718 0.0808051 0.0713575 0.0703089 0.0592061 0.0658438 0.0653374
42 3 O 1.08521 68.2274 5.87211 -1.2 1 0.00723246 0.0212551 0.0249395 0.021664 0.0219365 0.0203499 0.0440139 0.0439853 0.0359426 0.0413098 0.0546783 0.0426211 0.0550722 0.0533407 0.0920723 0.0629243 0.0766338 0.0620513 0.0682974 0.0696581
43 1 Mg -0.016517 64.7437 3.16077 1.2 1 0.00977874 0.0171008 0.00973727 0.0351772 0.00834165 0.0339311 0.00802264 0.0568609 0.0133038 0.0845975 0.016708 0.0535177 0.0174625 0.0725454 0.0219252 0.105906 0.02606 0.110889 0.029337 0.0969661
44 1 Mg -0.118932 61.6532 4.54538 1.2 1 0.022441 0.0138579 0.0147101 0.0293739 0.0121071 0.0229064 0.0243683 0.0398553 0.0379442 0.055284 0.0585647 0.0596439 0.0554109 0.0593889 0.0717574 0.0605851 0.0827384 0.0897418 0.0811311 0.0660807
45 2 Si 2.07477 63.541 4.57742 2.4 1 0.0213389 0.0123397 0.0149896 0.0291239 0.0293165 0.0270035 0.040027 0.0433952 0.0488547 0.0599333 0.0561659 0.0634628 0.0658753 0.0557862 0.0686165 0.0781815 0.0591623 0.0970115 0.0563809 0.058898
46 3 O -1.1499 63.6897 4.59141 -1.2 1 0.0145755 0.0164202 0.0144885 0.0253457 0.0214231 0.0216348 0.0212605 0.0745837 0.0340501 0.0548475 0.0414327 0.0677833 0.0579185 0.061162 0.0676487 0.0642556 0.0568311 0.0707155 0.0643085 0.069971
47 3 O 1.0499 59.9618 4.65107 -1.2 1 0.00569384 0.0218322 0.0265182 0.0162357 0.0175015 0.0339743 0.0364254 0.0486651 0.0524436 0.0448652 0.0420738 0.0532722 0.044412 0.0659308 0.108746 0.0673697 0.0691585 0.0546043 0.0745343 0.0629371
48 3 O 1.29258 62.896 3.31479 -1.2 1 0.0125158 0.0157268 0.0244864 0.0174438 0.023506 0.0185566 0.0443098 0.0469305 0.0296212 0.0494219 0.0496419 0.0395178 0.0564849 0.0529867 0.0829661 0.0716311 0.0723129 0.061903 0.0626657 0.0655445
49 1 Mg -0.0969012 64.7406 0.0381808 1.2 1 0.00987702 0.00776148 0.00879156 0.0279498 0.00891398 0.0326813 0.0107867 0.0554639 0.0182522 0.0832457 0.0186214 0.0504409 0.0162811 0.070364 0.0193246 0.104022 0.0265567 0.108555 0.0286426 0.0946119
50 3 O 1.37042 62.9615 5.86021 -1.2 1 0.00827574 0.0142867 0.0291941 0.0232454 0.0213108 0.0257537 0.0508355 0.0413417 0.0377857 0.048213 0.0497625 0.0386856 0.0539856 0.0595179 0.078419 0.0722 0.0664018 0.0597623 0.064293 0.0624027
51 1 Mg 0.115332 67.6479 1.63132 1.2 1 0.0240297 0.0146626 0.0181158 0.0343912 0.0183535 0.0210295 0.0236037 0.0345227 0.0373326 0.0597163 0.0558116 0.0602679 0.0546226 0.06057 0.0691793 0.063513 0.0841042 0.0857534 0.082293 0.0680633
52 2 Si -2.1002 65.6757 1.5826 2.4 1 0.0184608 0.0109841 0.0156692 0.028726 0.0289272 0.0324625 0.0446556 0.040333 0.0461917 0.0512038 0.0489134 0.0627863 0.0699395 0.0554588 0.0753992 0.0688562 0.0613484 0.0978881 0.0539518 0.0577072
53 3 O 1.11366 65.6328 1.60129 -1.2 1 0.0167252 0.00860461 0.0167984 0.027227 0.0184906 0.0275646 0.0245766 0.0689364 0.0409487 0.0546038 0.0428998 0.0660234 0.0518594 0.0670304 0.0668116 0.0639928 0.0572973 0.0705937 0.0628353 0.07748
54 3 O -1.15618 69.3339 1.73018 -1.2 1 0.0077002 0.0139664 0.0222719 0.0161723 0.0219753 0.03247 0.0376592 0.0460364 0.0446913 0.0473838 0.0378415 0.0465668 0.0464753 0.0634184 0.106715 0.0702349 0.0746831 0.0575285 0.0685847 0.0642926
55 3 O -1.43066 66.3851 0.332005 -1.2 1 0.0107846 0.00670226 0.0223349 0.0214807 0.0176691 0.0273647 0.0412148 0.0404439 0.0336774 0.0446343 0.0529913 0.0406165 0.0523795 0.051461 0.0793984 0.0722967 0.0698409 0.0628748 0.0619564 0.0742028
56 3 O -1.34747 66.3564 2.88173 -1.2 1 0.00416506 0.0172447 0.0315027 0.0131515 0.0175491 0.0181661 0.0456303 0.0408122 0.0362997 0.0473219 0.0458982 0.0388665 0.0539522 0.0591019 0.0818343 0.0700628 0.0730006 0.0598789 0.0634558 0.0660167
57 1 Mg -2.40022 69.8891 0.122628 1.2 1 0.0110728 0.0110748 0.00982872 0.0260409 0.00972087 0.0344645 0.00832675 0.0583485 0.0115778 0.0823957 0.013656 0.0490707 0.018833 0.0734865 0.0177083 0.0990303 0.0177861 0.119421 0.0196268 0.100453
58 1 Mg 2.29013 72.7221 1.59002 1.2 1 0.0152905 0.0209089 0.0177129 0.0271182 0.0144059 0.0234909 0.0212444 0.0321309 0.0403251 0.0607092 0.0556289 0.0575859 0.0631119 0.060767 0.0591004 0.0740907 0.0709004 0.10341 0.0679394 0.0824772
59 2 Si -0.493621 70.8148 1.76165 2.4 1 0.020551 0.0149461 0.02013 0.0350158 0.0326721 0.0286092 0.0424761 0.0423362 0.0537978 0.0506622 0.0513507 0.0627497 0.0749997 0.0595228 0.077869 0.0685686 0.0615229 0.0921257 0.0556695 0.0540213
60 3 O 1.051 70.789 1.67919 -1.2 1 0.013517 0.0109011 0.018405 0.0272827 0.0239919 0.0274843 0.0253637 0.0704343 0.0486295 0.0519307 0.0443407 0.0690868 0.0615764 0.0628937 0.0720742 0.0668751 0.0587704 0.0683715 0.0604616 0.070619
61 3 O -1.31379 74.5078 1.65447 -1.2 1 0.0111857 0.023434 0.0224618 0.0161228 0.0214636 0.0341588 0.0347963 0.0441481 0.0528755 0.0443173 0.0397418 0.0495042 0.0477836 0.0629041 0.104055 0.0654397 0.0731314 0.055121 0.0689955 0.061051
62 3 O -1.14399 71.4537 0.467288 -1.2 1 0.00756189 0.0150198 0.0270373 0.0260679 0.026877 0.0200288 0.0464077 0.0404656 0.0379087 0.040727 0.0496108 0.0446599 0.0567778 0.0607457 0.0911024 0.0639772 0.0805581 0.0551321 0.0714674 0.0705115
63 1 Mg -2.41889 80.1535 3.11776 1.2 1 0.0121598 0.0200501 0.00739255 0.0285769 0.00884166 0.0332997 0.00823127 0.0595363 0.0129876 0.082306 0.012421 0.0525674 0.0114204 0.0742551 0.0195835 0.104816 0.019381 0.117885 0.0246589 0.0967019
64 3 O -1.10579 71.47 3.03759 -1.2 1 0.015589 0.0130598 0.0343147 0.013574 0.0222911 0.0218368 0.0413693 0.0435545 0.0423015 0.0471536 0.0565561 0.0421059 0.0528288 0.0476296 0.0918866 0.0724742 0.0714149 0.0595405 0.0656642 0.0842729
65 1 Mg -2.34115 77.2732 4.60022 1.2 1 0.0227629 0.0170048 0.0154429 0.0298702 0.0146416 0.022711 0.0259787 0.0326609 0.0378683 0.0548027 0.0527813 0.0614376 0.0601398 0.0663497 0.0664263 0.0732445 0.0772424 0.0974187 0.0729188 0.0812598
66 2 Si 0.20607 79.0359 4.53394 2.4 1 0.0195589 0.0158441 0.0184788 0.0258247 0.0264009 0.0241178 0.0368366 0.040788 0.045386 0.0598947 0.0557066 0.065575 0.0648541 0.0556747 0.0696587 0.0736912 0.0623207 0.0931981 0.0583248 0.0635456
67 3 O -1.3436 79.1163 4.51274 -1.2 1 0.0217318 0.00941274 0.0112586 0.0225245 0.0251161 0.0246381 0.0199673 0.0722977 0.0360906 0.060109 0.0319395 0.0697554 0.0592512 0.0642676 0.0647465 0.0643646 0.0614171 0.07145 0.0680187 0.0628526
68 3 O 1.3771 75.488 4.62015 -1.2 1 0.0125596 0.0208857 0.0258579 0.0116245 0.0197057 0.03618 0.0321324 0.0487881 0.0566794 0.042783 0.0400874 0.0486044 0.0466445 0.066727 0.106813 0.0667089 0.0708468 0.046269 0.0741404 0.0657169
69 3 O 0.95008 78.3561 3.30178 -1.2 1 0.0106031 0.0181992 0.0250644 0.0151144 0.0154915 0.0174684 0.0422091 0.0434538 0.0353876 0.0495643 0.0518587 0.0364943 0.0556031 0.05486 0.0835086 0.0807911 0.0710634 0.0652697 0.0638264 0.0702926
70 3 O 0.936792 78.4407 5.86703 -1.2 1 0.0191714 0.00858598 0.0268942 0.0165173 0.0238722 0.0207466 0.043269 0.0389686 0.0347398 0.046158 0.0591063 0.0344695 0.0523184 0.06171 0.079738 0.0823638 0.0718947 0.0615113 0.0634652 0.0768848
71 1 Mg 0.0449633 75.0486 3.15739 1.2 1 0.00649068 0.0207448 0.0088823 0.0276998 0.0103675 0.0311355 0.0143529 0.058549 0.0134278 0.0830908 0.0154513 0.0493305 0.0106579 0.0695735 0.0204639 0.102802 0.0210313 0.119271 0.0265191 0.0970846
72 1 Mg 0.056803 72.1886 4.57952 1.2 1 0.025357 0.0138148 0.0142751 0.029159 0.0142403 0.0245834 0.0254284 0.0308224 0.0420751 0.0577303 0.0565575 0.0559958 0.0579317 0.0682624 0.0603093 0.0777051 0.0661973 0.110119 0.0611249 0.0909848
73 2 Si 2.11812 74.0256 4.69144 2.4 1 0.0140837 0.0157175 0.0183904 0.0194825 0.0256721 0.0306435 0.0437142 0.0385707 0.0460774 0.059285 0.0538412 0.0620262 0.0677712 0.0588014 0.0800869 0.0627833 0.0648643 0.0917534 0.0607067 0.0610046
74 3 O -1.09119 74.0468 4.58256 -1.2 1 0.0168165 0.0190965 0.010339 0.0153417 0.0202187 0.0247001 0.0217907 0.0633543 0.0327225 0.0537346 0.0376799 0.0659135 0.0545935 0.061345 0.0682593 0.0662305 0.0574947 0.0725323 0.0611815 0.0707459
75 3 O 1.02825 70.4166 4.58511 -1.2 1 0.0124912 0.014742 0.0209544 0.015108 0.0228234 0.0358667 0.0265773 0.04127 0.0472107 0.0472317 0.0333731 0.0533905 0.0490942 0.062333 0.104107 0.0620848 0.0731657 0.0565319 0.0657555 0.0711447
76 3 O 1.41743 73.3522 3.39215 -1.2 1 0.0165736 0.0119743 0.0235072 0.0178712 0.0227642 0.0183162 0.0429189 0.0372545 0.0333126 0.0452915 0.0530304 0.0383068 0.0532097 0.0620107 0.0788825 0.0679221 0.0770112 0.0605675 0.0699668 0.0675672
77 1 Mg -0.00113861 74.8435 0.221313 1.2 1 0.0160064 0.0115935 0.00993049 0.0300813 0.0126547 0.0327403 0.0139455 0.0557793 0.0230318 0.0782485 0.0255682 0.0524195 0.02155 0.068219 0.029956 0.0928874 0.0480581 0.107439 0.0571976 0.0792422
78 3 O 1.35818 73.3158 5.92619 -1.2 1 0.00882259 0.0161082 0.0190652 0.0218175 0.0191896 0.0221075 0.04843 0.0370099 0.0392068 0.0395208 0.0579845 0.0380501 0.0529251 0.0534887 0.0800699 0.0676807 0.068372 0.0602349 0.0606276 0.0790157
79 1 Mg 0.00968155 77.8892 1.48363 1.2 1 0.0196504 0.0139441 0.0170719 0.0263803 0.0117137 0.0214958 0.0252393 0.0340099 0.0412893 0.0596208 0.0550619 0.0492352 0.0628112 0.0620375 0.060529 0.0734982 0.0750063 0.0996289 0.0721589 0.0750687
80 2 Si -2.02215 75.9493 1.6337 2.4 1 0.0186104 0.0112388 0.0171503 0.0353551 0.0244142 0.0303975 0.0412053 0.0351833 0.049658 0.0596868 0.0561872 0.0633322 0.0728972 0.0639506 0.0771144 0.071107 0.0617034 0.0913808 0.05077 0.0515717
81 3 O 1.15933 75.8009 1.59124 -1.2 1 0.0307604 0.00851922 0.0167506 0.0232779 0.0224283 0.0269525 0.024728 0.0636457 0.0407408 0.0442647 0.0464011 0.063398 0.0413865 0.0660993 0.0707141 0.0664514 0.0615737 0.0740929 0.050613 0.0852658
82 3 O -1.02431 79.5621 1.62221 -1.2 1 0.0157418 0.0204727 0.0239306 0.0118868 0.0247 0.0328158 0.0274346 0.0461026 0.044439 0.0504909 0.0346049 0.0502246 0.0528919 0.0671903 0.102575 0.0659789 0.0696703 0.0625961 0.0634114 0.0693476
83 3 O -1.41065 76.6894 0.372648 -1.2 1 0.0178163 0.0137184 0.0268427 0.0188721 0.0194039 0.0233401 0.0377056 0.0380965 0.0363479 0.0427755 0.051966 0.0352755 0.0527811 0.0585582 0.0811549 0.0722778 0.0779686 0.0659862 0.0688095 0.0705473
84 3 O -1.41236 76.6653 2.94356 -1.2 1 0.00994712 0.0169203 0.03219 0.0158502 0.0147575 0.0209048 0.0391317 0.0443301 0.0321947 0.0478463 0.0563843 0.0398607 0.0557979 0.0643966 0.0823274 0.0691143 0.0763072 0.0609015 0.0659719 0.0705858
85 1 Mg -2.46907 80.1859 0.123653 1.2 1 0.00708979 0.0130434 0.00813329 0.0325207 0.00852235 0.0313154 0.00958803 0.0581029 0.0129767 0.0786119 0.0145943 0.0509842 0.0199665 0.0715285 0.0209305 0.103104 0.0243502 0.11467 0.0258408 0.0980547
86 1 Mg 2.29526 83.0771 1.50105 1.2 1 0.0173572 0.0144599 0.0192041 0.0275483 0.0127979 0.0176452 0.0236493 0.0322412 0.0387146 0.0569246 0.0512301 0.0577223 0.0592157 0.058466 0.0630174 0.0663987 0.0770104 0.09953 0.0728801 0.0746858
87 2 Si -0.401585 81.1303 1.68838 2.4 1 0.014856 0.0198685 0.0240851 0.0254107 0.0287558 0.027731 0.0404072 0.0434191 0.0503598 0.054049 0.0538089 0.0633304 0.0712725 0.0556203 0.0796291 0.0728269 0.063916 0.0963112 0.0554906 0.0568005
88 3 O 1.12883 81.1049 1.68116 -1.2 1 0.0229242 0.0114385 0.0234716 0.0302635 0.0187397 0.0228146 0.0217696 0.0682504 0.0439335 0.0533581 0.0369837 0.068877 0.0499769 0.0623618 0.0701659 0.0647742 0.0623767 0.0685912 0.0693299 0.0648479
89 3 O -1.40041 84.8139 1.53901 -1.2 1 0.0165352 0.0220878 0.0266966 0.0126368 0.0193151 0.0354798 0.0316359 0.0443918 0.0542286 0.0421703 0.0372849 0.0466663 0.0482414 0.0637012 0.106022 0.0633639 0.0721328 0.0496534 0.0711896 0.0628728
90 3 O -1.05552 81.7475 0.350704 -1.2 1 0.00703974 0.00803843 0.0270164 0.0188183 0.0182276 0.0202814 0.0389164 0.0377247 0.0353626 0.0408114 0.0492683 0.0433484 0.0495849 0.0611481 0.0838732 0.0702958 0.0826313 0.0560001 0.0761417 0.0625108
91 1 Mg -2.395 90.5906 3.05715 1.2 1 0.0167876 0.0189937 0.00604896 0.0349741 0.0056633 0.0354687 0.00804247 0.0578075 0.0146758 0.0799899 0.0159169 0.0518331 0.0171335 0.0735946 0.0190985 0.106211 0.0283556 0.1095 0.0337639 0.0898613
92 3 O -1.09861 81.8768 2.85783 -1.2 1 0.00758764 0.0150773 0.0305799 0.018168 0.0157093 0.0205541 0.0464065 0.042408 0.0302256 0.0509371 0.049791 0.0365091 0.0566666 0.0539854 0.0882569 0.0723989 0.0711158 0.0606426 0.057983 0.0758085
93 1 Mg -2.33886 87.6258 4.37214 1.2 1 0.0168685 0.0141184 0.0185744 0.0282184 0.0151462 0.0242786 0.0269221 0.033706 0.0380004 0.0584602 0.0557329 0.0552558 0.0625244 0.0642655 0.0631922 0.0759293 0.0773269 0.0918792 0.0712013 0.0779916
94 2 Si 0.312059 89.471 4.59044 2.4 1 0.0138206 0.0144663 0.0179896 0.0396228 0.0260684 0.0309135 0.0394681 0.0378788 0.0504875 0.0511299 0.0531146 0.0671984 0.0748233 0.0579608 0.0705778 0.0729449 0.0533676 0.0952507 0.0598855 0.0530806
95 3 O -1.23515 89.5219 4.51857 -1.2 1 0.0192207 0.0173607 0.0183552 0.0217074 0.02051 0.0255248 0.0211683 0.0713268 0.0416376 0.0535335 0.042301 0.0794364 0.0613739 0.0678459 0.0693921 0.0690263 0.0603509 0.0721317 0.0636887 0.0678772
96 3 O 1.30054 85.8424 4.42366 -1.2 1 0.0124192 0.0185266 0.0275388 0.0199275 0.0252694 0.0330105 0.0334493 0.0464374 0.0492588 0.0451814 0.0401569 0.0476137 0.0501444 0.0696414 0.108406 0.073338 0.0694071 0.0546579 0.0720045 0.064674
97 3 O 0.98879 88.8597 3.22673 -1.2 1 0.0140458 0.00765828 0.0322912 0.0207801 0.017982 0.0217662 0.0487961 0.0421009 0.0349198 0.0418647 0.048831 0.0372494 0.0536067 0.0583176 0.0918477 0.0675022 0.0797234 0.0565844 0.0692897 0.070367
98 3 O 0.920169 88.7936 5.85269 -1.2 1 0.0147135 0.0154989 0.0233059 0.0217737 0.0237659 0.025935 0.0487141 0.0485117 0.0385908 0.0520432 0.0494819 0.0415852 0.0554465 0.0662705 0.0856109 0.0740268 0.074932 0.0631947 0.0672997 0.0723701
99 1 Mg -0.0274319 85.1994 2.91072 1.2 1 0.0146274 0.0125745 0.00512264 0.0295809 0.0104266 0.0298964 0.0163949 0.0565497 0.0201001 0.0791305 0.0165314 0.0495898 0.0225091 0.0725519 0.0262269 0.100648 0.0359546 0.113918 0.0412706 0.088492
100 1 Mg 0.0465495 82.3446 4.49233 1.2 1 0.0200643 0.0148882 0.0182121 0.0275788 0.0145153 0.0201509 0.027822 0.0309765 0.0425505 0.0578782 0.0529873 0.0582554 0.0607348 0.0662278 0.061607 0.0581626 0.0760791 0.109504 0.0668504 0.0858341
101 2 Si 1.95666 84.3903 4.44743 2.4 1 0.0217522 0.0156092 0.017515 0.0343734 0.0256169 0.028844 0.0416846 0.0441912 0.0482238 0.0551334 0.053592 0.0626881 0.0714176 0.0614492 0.0809475 0.0674355 0.0633148 0.0907009 0.055691 0.0559206
102 3 O -1.24454 84.4115 4.42916 -1.2 1 0.0217362 0.00780683 0.0221169 0.0226398 0.025823 0.0279053 0.0266239 0.0609094 0.0386619 0.0510865 0.0441678 0.070017 0.051688 0.0668452 0.0710813 0.0714657 0.0565984 0.068835 0.0607409 0.0736839
103 3 O 0.87343 80.5827 4.54074 -1.2 1 0.0133731 0.0122784 0.0272737 0.0192014 0.0144261 0.0342481 0.0363905 0.0459571 0.0576229 0.0355735 0.0441438 0.0443282 0.0537931 0.0705148 0.102746 0.0708095 0.0676603 0.045007 0.0740907 0.063883
104 3 O 1.2767 83.6472 3.19199 -1.2 1 0.0143816 0.00451659 0.0320495 0.0164208 0.0208942 0.0192166 0.0444908 0.0384761 0.0339514 0.0460314 0.0557518 0.0426136 0.0502047 0.0606113 0.081899 0.0700683 0.0745048 0.0600161 0.058609 0.0736287
105 1 Mg -0.091743 85.3089 -0.0870676 1.2 1 0.00504446 0.0158626 0.01308 0.0302814 0.00823184 0.0373206 0.0126772 0.0588621 0.016542 0.0843036 0.0134039 0.0519818 0.0203022 0.0690256 0.0215104 0.10128 0.0260332 0.109467 0.031829 0.0963662
106 3 O 1.17968 83.7006 5.74698 -1.2 1 0.00627005 0.00888618 0.0294362 0.0211486 0.0232048 0.0166295 0.0464585 0.0362584 0.0333924 0.0385182 0.052441 0.0396525 0.0554371 0.0518664 0.0895876 0.057691 0.0794748 0.0693824 0.0668326 0.0690529
107 1 Mg 0.0163614 88.2191 1.57228 1.2 1 0.016592 0.0120624 0.0201724 0.0247977 0.0170898 0.024307 0.0271621 0.0320259 0.0406244 0.0581461 0.0583126 0.061749 0.0619632 0.0635814 0.0693198 0.0695425 0.0732608 0.0970451 0.0782009 0.0795621
108 2 Si -2.04136 86.3164 1.46128 2.4 1 0.0193631 0.0188645 0.0240075 0.0290481 0.0324309 0.02909 0.0363638 0.0421598 0.053635 0.0489456 0.049495 0.0669789 0.0651099 0.057763 0.0756088 0.0727599 0.0642181 0.0936427 0.0548648 0.0553858
109 3 O 1.14143 86.1923 1.36769 -1.2 1 0.0219309 0.0118077 0.0294802 0.0185077 0.0220414 0.0242118 0.0273163 0.0635941 0.0353641 0.0485155 0.0447527 0.070882 0.0560317 0.064914 0.0761349 0.0677176 0.0668372 0.0694456 0.0647884 0.064447
110 3 O -1.09881 89.9948 1.49695 -1.2 1 0.0112268 0.0171953 0.0250416 0.0172034 0.0192386 0.0346593 0.0294074 0.0441714 0.0508606 0.0430406 0.0375283 0.0518242 0.0479985 0.0655128 0.102698 0.0644324 0.0742123 0.0485466 0.0703327 0.0641313
111 3 O -1.41502 86.9357 0.0916791 -1.2 1 0.00902953 0.015023 0.0328648 0.0186507 0.0158018 0.0240956 0.0391209 0.0466857 0.036513 0.0497075 0.0534154 0.0363872 0.0532325 0.0589486 0.0851998 0.0779199 0.0724144 0.0629507 0.0530131 0.0818467
112 3 O -1.37832 87.0615 2.67429 -1.2 1 0.0169295 0.0199528 0.0256507 0.0256549 0.0252708 0.0194385 0.044357 0.0364933 0.0370228 0.0411246 0.0543171 0.0417745 0.0578933 0.0558112 0.0898728 0.0700109 0.0734834 0.0692663 0.066927 0.061831
113 1 Mg -2.37949 90.5438 0.0238425 1.2 1 0.010544 0.0148357 0.00863902 0.0285478 0.00624262 0.036788 0.0111437 0.0592 0.0145456 0.0863783 0.015902 0.0542076 0.0189762 0.0710683 0.0137949 0.101843 0.0282514 0.112154 0.0319849 0.0977925
114 1 Mg 2.18743 93.4474 1.6508 1.2 1 0.0243153 0.00927316 0.0188029 0.0300836 0.0145598 0.0250664 0.0257779 0.0349389 0.0389006 0.0520924 0.0624277 0.0592863 0.0557305 0.0589979 0.0730584 0.0717737 0.0840329 0.0848979 0.0718018 0.0732316
115 2 Si -0.419252 91.4912 1.49738 2.4 1 0.0179734 0.0104687 0.0242257 0.0253735 0.0336222 0.0336711 0.0422832 0.0445334 0.0570228 0.0472002 0.0503204 0.067933 0.0714918 0.0562102 0.077065 0.0741098 0.0604383 0.0971872 0.0551733 0.0523754
116 3 O 1.16627 91.4529 1.5889 -1.2 1 0.0188387 0.0164881 0.0154503 0.0243263 0.0246593 0.0287049 0.0268637 0.070002 0.0367692 0.0482228 0.0434403 0.0671453 0.0586956 0.0669256 0.0739478 0.068906 0.0607554 0.0702803 0.0585997 0.0734608
117 3 O -1.43918 95.2912 1.49283 -1.2 1 0.00387241 0.0189692 0.0256409 0.0219558 0.0182553 0.0318213 0.0326344 0.0468919 0.0567988 0.0392735 0.0406984 0.0455624 0.0494662 0.0726627 0.100406 0.0738906 0.0742201 0.0465398 0.0746189 0.0582532
118 3 O -1.12855 92.1792 0.264149 -1.2 1 0.00656615 0.0270192 0.0255306 0.0152421 0.0177821 0.0183031 0.0446075 0.044109 0.033385 0.045573 0.0521751 0.0451094 0.0590853 0.0460235 0.0949556 0.0689521 0.0776254 0.0654465 0.065197 0.0683436
119 1 Mg -2.43101 100.884 3.02833 1.2 1 0.00752002 0.0146158 0.00471899 0.0325644 0.00502616 0.0366421 0.00708564 0.0594198 0.0105028 0.088845 0.010667 0.0586793 0.0102706 0.0688828 0.0126934 0.104107 0.0113016 0.10718 0.0151909 0.101226
120 3 O -1.03819 92.1815 2.81179 -1.2 1 0.0125023 0.0116576 0.0245377 0.0174262 0.0270827 0.0187306 0.0487453 0.0453953 0.0372851 0.0438906 0.0533688 0.0399503 0.0538469 0.0692882 0.0809398 0.0814811 0.0731266 0.0606989 0.0637326 0.0703039
121 1 Mg -2.40422 98.0061 4.60534 1.2 1 0.0133073 0.0197626 0.0209248 0.0284722 0.0194514 0.0224763 0.0210872 0.0296514 0.0386449 0.0636118 0.0516104 0.0580345 0.0641134 0.0641648 0.0603806 0.0701363 0.0796924 0.0975533 0.0718984 0.0779779
122 2 Si 0.218169 99.8937 4.53275 2.4 1 0.012492 0.0162543 0.0221675 0.0276884 0.0323345 0.0303456 0.0421218 0.0408212 0.0486247 0.054188 0.0493211 0.0654728 0.0708841 0.0563796 0.0767194 0.0697585 0.0607429 0.096001 0.0584136 0.0595829
123 3 O -1.3572 99.9816 4.57709 -1.2 1 0.019508 0.0129569 0.0138024 0.022728 0.0218118 0.0266691 0.0243381 0.0690474 0.034515 0.0548547 0.0395275 0.0658658 0.0523771 0.066794 0.0652165 0.0656203 0.0533636 0.0695445 0.0601777 0.071138
124 3 O 1.25023 96.2351 4.55923 -1.2 1 0.00806887 0.0102113 0.0310474 0.0204889 0.0193804 0.0342484 0.0386092 0.0467883 0.0503053 0.040581 0.0472913 0.0473987 0.0496064 0.0699163 0.108237 0.0742863 0.0693292 0.0545325 0.0752327 0.0594305
125 3 O 0.782855 99.2334 3.25881 -1.2 1 0.008147 0.0137483 0.0231206 0.0151209 0.0237235 0.0197653 0.0447879 0.047011 0.0372934 0.0536259 0.0518702 0.0353785 0.054601 0.0787431 0.0726491 0.0745888 0.0792482 0.0563208 0.0667035 0.0698157