ITEM: TIMESTEP
43400
ITEM: NUMBER OF ATOMS
5600
ITEM: BOX BOUNDS xy xz yz pp pp pp
0	7.1235	0
0	201.985	2.3745
0	119.584	0
ITEM: ATOMS id type element xu yu zu q Q_1 Q_2 Q_3 Q_4 Q_5 Q_6 Q_7 Q_8 Q_9 Q_10 Q_11 Q_12 Q_13 Q_14 Q_15 Q_16 Q_17 Q_18 Q_19 Q_20 Q_21
1 1 Mg -1.9316 49.2774 -0.860224 1.2 1 0.433819 0.077176 0.124338 0.0472081 0.0665615 0.0527872 0.0556002 0.0514061 0.0853682 0.0768372 0.0800062 0.0851226 0.100548 0.0979216 0.107204 0.0924513 0.103629 0.109265 0.106483 0.0837733
2 1 Mg 2.61648 50.6621 2.25416 1.2 1 0.290901 0.129729 0.0408684 0.0578182 0.0465115 0.0543114 0.0659051 0.0709259 0.0591861 0.0686138 0.0687509 0.0878377 0.0847315 0.0824781 0.0879297 0.0783922 0.0842679 0.0874447 0.0825812 0.0835256
3 2 Si 0.517704 50.7955 0.378795 2.4 1 0.273857 0.128632 0.0407587 0.0717668 0.0461389 0.0373732 0.0657784 0.042745 0.0809948 0.0636147 0.0874951 0.0729164 0.0561075 0.0633779 0.0846779 0.0782448 0.077605 0.0723774 0.0838721 0.0832356
4 3 O 1.72122 49.8129 0.66863 -1.2 1 0.385349 0.0948006 0.084953 0.0671924 0.0336248 0.0641726 0.0476982 0.0757369 0.0542114 0.0754991 0.0635248 0.0784186 0.062785 0.0703803 0.0868983 0.0806579 0.0896204 0.0747103 0.0642626 0.074379
5 3 O -1.18027 53.5938 1.76121 -1.2 1 0.0909404 0.0572745 0.049719 0.0115255 0.0263152 0.0236171 0.0384397 0.0440513 0.0566703 0.0581667 0.0537116 0.0498586 0.0558495 0.0734482 0.0710821 0.0835116 0.0759903 0.0657641 0.0629171 0.0695623
6 3 O -0.229582 50.2361 -0.843601 -1.2 1 0.344963 0.113074 0.0507597 0.0790527 0.0261513 0.0583562 0.049188 0.0585394 0.0657789 0.0693778 0.0792777 0.0894053 0.076326 0.098615 0.0911388 0.0767863 0.0843303 0.0793505 0.0754045 0.0869167
7 1 Mg -2.2519 59.3897 3.17089 1.2 1 0.0144999 0.0149147 0.0193564 0.0283212 0.0136668 0.0336794 0.0175618 0.0616266 0.0318761 0.0786128 0.0276545 0.0410204 0.0303614 0.0699796 0.0381435 0.0986264 0.046405 0.103266 0.0479475 0.0885125
8 3 O -0.332261 50.8008 1.69825 -1.2 1 0.291289 0.122695 0.032961 0.053494 0.03885 0.0380988 0.0706021 0.0682101 0.0715466 0.0959018 0.0583701 0.0619506 0.055896 0.0664311 0.0981285 0.0660775 0.0766696 0.0736798 0.0700292 0.0918213
9 1 Mg -2.32389 56.5386 4.67765 1.2 1 0.0160064 0.0152274 0.0284034 0.0295375 0.0163534 0.021999 0.0259719 0.0248339 0.0534487 0.0600113 0.061274 0.0498471 0.0506306 0.0619091 0.0515803 0.0810691 0.0771421 0.0891042 0.0679788 0.0843769
10 2 Si 0.34229 58.3734 4.66816 2.4 1 0.0182851 0.0190012 0.023508 0.0404489 0.0289594 0.0296726 0.0348585 0.0477031 0.0581729 0.0635054 0.0548607 0.0725456 0.0740305 0.0622418 0.086989 0.0620421 0.0690662 0.0868982 0.055329 0.0665355
11 3 O -1.21639 58.2821 4.66681 -1.2 1 0.0257444 0.0394666 0.0160851 0.020538 0.0257721 0.0291599 0.0270867 0.0787391 0.0373781 0.062217 0.0436132 0.0710231 0.0650014 0.0689701 0.0722805 0.0747484 0.052279 0.0641167 0.0665745 0.076543
12 3 O 1.51217 54.1103 4.56952 -1.2 1 0.0673773 0.0440229 0.0295971 0.0303914 0.0222682 0.0340894 0.0337851 0.03074 0.0569953 0.0613241 0.0719018 0.0393274 0.0574414 0.0664607 0.0844234 0.0742628 0.0802244 0.0693234 0.0685352 0.0660399
13 3 O 0.970136 57.6796 3.41345 -1.2 1 0.00896514 0.010554 0.0341603 0.0163752 0.0262596 0.0203295 0.0445945 0.0468071 0.0402682 0.051626 0.0611873 0.0481531 0.0478331 0.0619656 0.0850718 0.086695 0.0817479 0.0574001 0.0735817 0.0600727
14 3 O 1.15784 57.522 5.87948 -1.2 1 0.0321864 0.0227168 0.0290976 0.0180422 0.0330039 0.0334709 0.0442536 0.0446095 0.0536504 0.0517896 0.0543718 0.0490102 0.0576962 0.0547324 0.0788103 0.0754464 0.0703369 0.0709012 0.0618581 0.0596052
15 1 Mg 0.243804 53.3978 2.98519 1.2 1 0.0979196 0.0737208 0.0300671 0.0307007 0.0308536 0.0311706 0.0364301 0.0515635 0.0660826 0.0438308 0.0702587 0.0534749 0.0475642 0.0607661 0.0621406 0.0836597 0.0621845 0.0766419 0.0738928 0.0821796
16 1 Mg 0.579631 50.0574 3.37947 1.2 1 0.348302 0.102041 0.0598346 0.0824498 0.034121 0.0628783 0.0468755 0.0644342 0.0702866 0.0814507 0.0742045 0.0697468 0.0652287 0.0713157 0.102247 0.0918202 0.0828028 0.0798248 0.0730435 0.0842506
17 2 Si 2.1863 52.5534 4.64411 2.4 1 0.123585 0.0992588 0.045426 0.0362559 0.0294812 0.0432906 0.0320797 0.0467839 0.0714391 0.0610742 0.073148 0.0617049 0.0613856 0.065978 0.0755724 0.0952211 0.0711778 0.100713 0.0733796 0.0753927
18 3 O -1.00392 52.6503 4.54244 -1.2 1 0.125239 0.0994027 0.0392734 0.0286097 0.0269059 0.0465279 0.0316907 0.0530862 0.0628133 0.0817064 0.0495308 0.0760012 0.0692074 0.0756452 0.0822894 0.0783623 0.0780944 0.0624463 0.0814872 0.0624954
19 3 O 2.29682 49.1327 3.49196 -1.2 1 0.437882 0.0652033 0.117513 0.054377 0.0728349 0.0399501 0.0649449 0.0689593 0.0752746 0.081563 0.0729407 0.0626324 0.0918856 0.0837632 0.0759923 0.0974994 0.113086 0.0932913 0.0788007 0.0736451
20 3 O 1.56066 51.813 3.32072 -1.2 1 0.194143 0.108977 0.0252107 0.032199 0.0336653 0.0455466 0.034326 0.0597675 0.052559 0.0587419 0.0693724 0.0710204 0.066286 0.071684 0.0821597 0.0841821 0.0857567 0.071605 0.0636296 0.0723541
21 1 Mg 0.022217 54.1158 0.112578 1.2 1 0.0794351 0.0486327 0.0280491 0.0264508 0.0194527 0.0214982 0.0268856 0.0544561 0.0542958 0.0652762 0.0484723 0.0472091 0.0442046 0.05567 0.0657348 0.0814769 0.082951 0.0843156 0.0739392 0.0722829
22 3 O 1.71809 51.5331 5.87807 -1.2 1 0.218672 0.100978 0.0248604 0.0472859 0.0489616 0.0340648 0.0593821 0.0555746 0.0629609 0.0561779 0.0607777 0.0817114 0.0586349 0.0845293 0.0746981 0.0736702 0.0791424 0.0640173 0.0677483 0.0707411
23 1 Mg 0.0549386 56.8633 1.75362 1.2 1 0.02785 0.018149 0.0226406 0.029104 0.0151103 0.0295149 0.031354 0.0368364 0.0376576 0.0516499 0.0679466 0.0615318 0.0587435 0.0705022 0.0742387 0.0832863 0.0682609 0.0784142 0.0786551 0.0823227
24 2 Si -1.9883 55.0477 1.77052 2.4 1 0.033643 0.026097 0.0308278 0.0282895 0.0163399 0.0325451 0.0422189 0.0505919 0.0475369 0.0521392 0.0566022 0.0484321 0.0736313 0.0597957 0.0483885 0.0643673 0.0770998 0.0722231 0.0610424 0.0572962
25 3 O 1.29109 54.8231 1.56723 -1.2 1 0.0321092 0.0315797 0.0276047 0.0297442 0.0234759 0.0313209 0.0278323 0.0630906 0.0483976 0.0471963 0.058865 0.0551766 0.0445491 0.0750085 0.0675245 0.0638938 0.0689189 0.0759983 0.0542681 0.0592745
26 3 O -0.962478 58.6885 1.78905 -1.2 1 0.019589 0.0192964 0.0214428 0.035433 0.0141809 0.0283948 0.0353426 0.0433874 0.0533301 0.0455479 0.0439592 0.0449514 0.0554782 0.0745375 0.095235 0.0724058 0.0645082 0.0623235 0.0733112 0.0700066
27 3 O -1.27262 55.6452 0.398433 -1.2 1 0.0179974 0.0235403 0.0209732 0.0295057 0.0284856 0.0355001 0.0496377 0.0386384 0.0273427 0.0382865 0.0611063 0.0435361 0.0649536 0.0565401 0.0883995 0.0704436 0.0797301 0.0743059 0.0711415 0.0722473
28 3 O -1.41733 55.7637 3.06103 -1.2 1 0.0202705 0.0326899 0.0199998 0.0255987 0.0149476 0.0252988 0.0487427 0.0459235 0.045061 0.0488415 0.06132 0.0501187 0.045029 0.0599006 0.0822025 0.0806931 0.0577678 0.0725582 0.0535185 0.0758089
29 1 Mg -2.31496 59.1796 0.156497 1.2 1 0.0110742 0.0280797 0.0170541 0.026934 0.0162118 0.03134 0.0150445 0.0527527 0.0170696 0.0846682 0.0242034 0.0487654 0.0226161 0.0747436 0.0261661 0.101579 0.0350234 0.106531 0.0426895 0.0933358
30 1 Mg 2.30762 62.065 1.60304 1.2 1 0.0123541 0.0208483 0.0199792 0.0335413 0.0140792 0.0262202 0.0263055 0.0349501 0.0435025 0.0650496 0.0614129 0.0522542 0.0577254 0.0646017 0.05165 0.0925397 0.0670197 0.0941035 0.0618601 0.0834962
31 2 Si -0.311918 60.3128 1.68058 2.4 1 0.00736628 0.0190863 0.0130323 0.0272112 0.0319711 0.0385626 0.0357418 0.0450036 0.0566364 0.0589426 0.0572043 0.0608764 0.0767333 0.0616505 0.0824867 0.0714249 0.0590395 0.0843632 0.0540664 0.0597445
32 3 O 1.2497 60.1747 1.68908 -1.2 1 0.0263851 0.0339509 0.0172004 0.0205691 0.0241536 0.0251499 0.022231 0.0765988 0.0398973 0.0592127 0.0389467 0.0707167 0.0595449 0.0647102 0.0864308 0.0582788 0.0536324 0.0739774 0.0528377 0.0689595
33 3 O -1.5182 64.0824 1.61376 -1.2 1 0.0205232 0.0222932 0.0243643 0.0210423 0.0181945 0.0310724 0.0335972 0.0475656 0.0621542 0.0389416 0.0455626 0.0417489 0.0558694 0.0724172 0.100002 0.0812992 0.06818 0.0553797 0.0751974 0.0570822
34 3 O -1.08174 60.9089 0.447724 -1.2 1 0.0195961 0.0261434 0.0292363 0.024108 0.0265334 0.0206406 0.0452901 0.0504666 0.0420652 0.0459672 0.0603121 0.0448445 0.0523888 0.0701148 0.0845328 0.0706642 0.0766103 0.0622146 0.0681713 0.0657637
35 1 Mg -2.43186 70.1416 3.07889 1.2 1 0.0103598 0.0247291 0.0209172 0.0314998 0.0217937 0.0357841 0.0285339 0.054725 0.0385792 0.0743912 0.0274185 0.0544209 0.0267811 0.0701445 0.045165 0.099297 0.0649801 0.0958827 0.0708515 0.0759352
36 3 O -1.03674 60.9738 2.91896 -1.2 1 0.0161694 0.0264762 0.0293758 0.0235039 0.0222378 0.0287675 0.0474357 0.0491139 0.0437379 0.0448968 0.0578717 0.0450571 0.0551886 0.0659436 0.0815085 0.0762417 0.0719662 0.0690133 0.0646874 0.0715951
37 1 Mg -2.21288 66.8257 4.54795 1.2 1 0.016598 0.0110763 0.019094 0.0296816 0.0170474 0.0276765 0.0304507 0.0382638 0.0345805 0.0625193 0.0580672 0.0656789 0.0586273 0.066842 0.0737952 0.0727906 0.0735324 0.0830985 0.0769925 0.0693519
38 2 Si 0.473768 68.8747 4.40771 2.4 1 0.021402 0.0104321 0.0261956 0.0353858 0.0331111 0.0318846 0.03649 0.0434477 0.0531441 0.0446949 0.0555531 0.0702241 0.0784842 0.0569558 0.0759475 0.0685253 0.0660095 0.092487 0.0545289 0.049778
39 3 O -1.12302 68.9497 4.50384 -1.2 1 0.0446511 0.0164653 0.0113456 0.0211994 0.0209053 0.0332127 0.0291709 0.0600923 0.0385929 0.0519238 0.0444903 0.07087 0.0547428 0.0733091 0.0724487 0.0657869 0.0584896 0.0754732 0.063003 0.0706151
40 3 O 1.47288 65.0084 4.50763 -1.2 1 0.0169949 0.0213946 0.0265258 0.02219 0.0206544 0.0337799 0.0380724 0.0445887 0.0619732 0.0388783 0.0473466 0.0400602 0.0544849 0.0644878 0.101207 0.0755819 0.0689962 0.0533273 0.0701904 0.0656342
41 3 O 1.07552 68.2227 3.1862 -1.2 1 0.0229664 0.0109362 0.0303102 0.0256339 0.0325225 0.0220542 0.0481698 0.0529361 0.0415909 0.0427388 0.0598049 0.0415274 0.0575065 0.0603085 0.097116 0.0679906 0.0701874 0.0539622 0.0631631 0.0677497
42 3 O 1.10884 68.2683 5.71566 -1.2 1 0.0161557 0.0155371 0.0282887 0.0228787 0.0281821 0.0214882 0.0477554 0.0438405 0.0350474 0.0445198 0.0549163 0.0463709 0.0551091 0.0680777 0.0951479 0.0675324 0.0857142 0.0569489 0.0726484 0.0546461
43 1 Mg 0.0479822 64.5213 3.09411 1.2 1 0.0112951 0.0250677 0.00663556 0.0312264 0.00537215 0.0377122 0.0117529 0.0633533 0.0110391 0.0838981 0.0150937 0.0520719 0.0143987 0.0762169 0.0263745 0.109222 0.023078 0.108193 0.0290009 0.0942733
44 1 Mg -0.189738 61.7401 4.61842 1.2 1 0.0318601 0.0199414 0.0154584 0.0312653 0.0176582 0.0243521 0.0272345 0.0333972 0.0418133 0.0581845 0.0688167 0.050442 0.0562723 0.067586 0.0637087 0.0897239 0.06173 0.0921251 0.0691041 0.0804312
45 2 Si 2.01737 63.4439 4.5679 2.4 1 0.00965264 0.0133736 0.0162684 0.0382565 0.0299302 0.0328738 0.0376168 0.040947 0.0560677 0.0522905 0.0560413 0.0636454 0.0786265 0.0559369 0.0658742 0.0755482 0.058537 0.0924724 0.0627769 0.0496043
46 3 O -1.19207 63.6536 4.66988 -1.2 1 0.0261236 0.0133459 0.0221587 0.0247967 0.0215911 0.0224853 0.0239392 0.0722432 0.042998 0.0604499 0.0535364 0.0688798 0.0501812 0.0650512 0.0769318 0.0678938 0.0631103 0.0749277 0.0589507 0.075257
47 3 O 0.840974 59.891 4.57688 -1.2 1 0.010068 0.0233123 0.0114239 0.0151261 0.0179181 0.0371136 0.0346942 0.0462258 0.0493731 0.0559295 0.0439193 0.0490933 0.0569692 0.0738507 0.10118 0.063242 0.0703296 0.059481 0.0620523 0.0653743
48 3 O 1.27449 62.6861 3.24656 -1.2 1 0.0245482 0.0129914 0.0223847 0.0174437 0.0279582 0.0223069 0.0398443 0.0427447 0.0373463 0.0503466 0.0598202 0.0375074 0.0621535 0.056074 0.0814481 0.0805759 0.0666146 0.071772 0.0603759 0.0654196
49 1 Mg 0.0328301 64.571 0.0339559 1.2 1 0.0101602 0.0162278 0.0108065 0.0312903 0.00876766 0.0420629 0.0124352 0.0603154 0.0204932 0.0786872 0.0179454 0.0464468 0.0156058 0.0702533 0.0218175 0.108455 0.0247558 0.112787 0.0327092 0.0866893
50 3 O 1.30515 62.9205 5.91325 -1.2 1 0.0187327 0.015479 0.0213827 0.020977 0.0175735 0.0265051 0.0465134 0.0467877 0.0341296 0.0452678 0.0592611 0.0356504 0.0497533 0.0586754 0.0828446 0.071744 0.0669417 0.0637005 0.0578907 0.073945
51 1 Mg -0.0499484 67.6238 1.58195 1.2 1 0.0235449 0.00529032 0.0128478 0.0251558 0.0168812 0.0263379 0.0292909 0.0382575 0.044884 0.0534601 0.0534284 0.0695164 0.0528262 0.0639187 0.075149 0.0586033 0.0801614 0.0944062 0.0686053 0.0835328
52 2 Si -1.97385 65.6059 1.51945 2.4 1 0.00711179 0.009522 0.0230447 0.0283323 0.031806 0.0383038 0.0401275 0.047754 0.0578667 0.042882 0.0434173 0.0737459 0.0745771 0.0533242 0.0700487 0.0638463 0.0626479 0.094486 0.0639857 0.0598218
53 3 O 1.04752 65.6475 1.54978 -1.2 1 0.0155978 0.0188368 0.0162422 0.0193999 0.0347563 0.032302 0.0231977 0.0715615 0.0442076 0.0677454 0.0283827 0.0659281 0.0629266 0.0718316 0.0672618 0.0744866 0.0550604 0.0629826 0.0714787 0.0683773
54 3 O -1.09076 69.3437 1.56361 -1.2 1 0.0158333 0.0184174 0.0265744 0.0249919 0.0203072 0.0336529 0.0356583 0.0463372 0.0507501 0.0440533 0.0423063 0.0532476 0.0514807 0.0722748 0.108476 0.0678418 0.0788616 0.0501402 0.0739736 0.0610529
55 3 O -1.37147 66.1587 0.182172 -1.2 1 0.0120894 0.0157922 0.0210705 0.0273175 0.0230658 0.0211353 0.0508818 0.0450608 0.0398299 0.0458717 0.0489547 0.0471042 0.0567549 0.0594043 0.0910475 0.0686024 0.0788632 0.0638683 0.0592811 0.0712628
56 3 O -1.39636 66.3184 2.79148 -1.2 1 0.0140401 0.0222796 0.0267494 0.0173468 0.0223125 0.0196986 0.0468316 0.0463689 0.0350944 0.0518773 0.0518248 0.0422084 0.0560305 0.0601136 0.0847774 0.0752675 0.0753477 0.0634433 0.0675416 0.0608038
57 1 Mg -2.30618 69.667 -0.0690799 1.2 1 0.0131102 0.0161018 0.0202862 0.0363062 0.0127913 0.043175 0.0151903 0.0514841 0.0232679 0.0770765 0.0264224 0.050582 0.0244874 0.0690986 0.0250155 0.0995201 0.0440747 0.106433 0.0432429 0.0948153
58 1 Mg 2.25008 72.8264 1.47517 1.2 1 0.0241119 0.0142441 0.0182069 0.0275514 0.0172463 0.0219412 0.0259871 0.0376563 0.0387627 0.0557927 0.0571176 0.0602556 0.061921 0.0607246 0.0704784 0.0698743 0.0852805 0.0906086 0.0728557 0.0684824
59 2 Si -0.388443 70.8666 1.60954 2.4 1 0.0234832 0.0110533 0.0171233 0.0310848 0.0279797 0.0320184 0.0431529 0.0399054 0.0498301 0.0490075 0.0516069 0.0683441 0.0708894 0.0613635 0.0727121 0.0762247 0.0616865 0.092456 0.0552945 0.0560336
60 3 O 1.16721 70.8675 1.63216 -1.2 1 0.028572 0.026791 0.0262684 0.0223594 0.0279378 0.0313438 0.026442 0.0720289 0.0343273 0.0586736 0.0418323 0.0710853 0.0628199 0.0668455 0.0743697 0.0653927 0.0615638 0.063199 0.064322 0.0616931
61 3 O -1.35343 74.5159 1.63816 -1.2 1 0.0116246 0.0237639 0.0226381 0.0174823 0.020104 0.0364624 0.0336747 0.0501665 0.0471736 0.0441842 0.0377504 0.047781 0.0524441 0.0638416 0.102181 0.0680177 0.066591 0.0607393 0.0701659 0.0582237
62 3 O -0.943419 71.5275 0.258453 -1.2 1 0.0137006 0.0163696 0.0301478 0.0209995 0.0245051 0.0278237 0.05253 0.046493 0.0355482 0.0547507 0.0524533 0.0392861 0.0544699 0.0792673 0.0805725 0.0733405 0.0773375 0.0560339 0.0642259 0.0705011
63 1 Mg -2.32756 80.2788 3.22613 1.2 1 0.0062267 0.012884 0.00894302 0.0305198 0.00936279 0.03543 0.0137527 0.0611073 0.0121152 0.0777872 0.01707 0.0510681 0.0164625 0.0721804 0.0226624 0.10952 0.0292654 0.113196 0.026797 0.0914885
64 3 O -0.999936 71.5822 2.93686 -1.2 1 0.0141316 0.0163362 0.0384097 0.0194242 0.0246597 0.0218823 0.048285 0.0543933 0.0425868 0.0490964 0.0518493 0.0432275 0.057537 0.061892 0.0857193 0.0758256 0.0687761 0.0674938 0.0662125 0.070116
65 1 Mg -2.34177 77.2369 4.76695 1.2 1 0.0217305 0.01382 0.0199417 0.0299864 0.0138913 0.0193859 0.0287272 0.0407458 0.048569 0.0552895 0.0497946 0.0576686 0.0591165 0.0613149 0.0647472 0.0632816 0.0804679 0.10394 0.0604749 0.074411
66 2 Si 0.362721 79.2324 4.74357 2.4 1 0.017463 0.00627525 0.0148044 0.0383223 0.0222936 0.0307278 0.0417597 0.0408293 0.0499235 0.058748 0.0550814 0.0620002 0.0695876 0.0619266 0.0823426 0.0649539 0.058814 0.0897192 0.0606573 0.0579505
67 3 O -1.14647 79.2474 4.82028 -1.2 1 0.0379825 0.0160459 0.0149797 0.0187287 0.0212734 0.0313807 0.0220164 0.0729033 0.0432164 0.0606317 0.0458156 0.073195 0.0563991 0.0669219 0.0756504 0.0656395 0.0561454 0.0662746 0.0666367 0.0669906
68 3 O 1.3792 75.5242 4.55678 -1.2 1 0.00872641 0.0101851 0.0246842 0.0182093 0.0186469 0.0338919 0.0330103 0.0472299 0.0505963 0.0438069 0.0456784 0.0481164 0.0557697 0.0700801 0.101223 0.0715954 0.0702474 0.0527716 0.0721952 0.0658075
69 3 O 1.07607 78.5017 3.47543 -1.2 1 0.00712807 0.00900894 0.026712 0.0234893 0.020138 0.0271464 0.0496935 0.0412291 0.0346557 0.045656 0.0562504 0.0387589 0.0520059 0.0588809 0.0822297 0.0675295 0.073774 0.0615051 0.0635983 0.0683086
70 3 O 1.11262 78.5139 6.00225 -1.2 1 0.00524113 0.0112939 0.0270868 0.0189581 0.0144078 0.016512 0.0453294 0.0494915 0.0319936 0.0533147 0.0486174 0.0488651 0.0535867 0.0553682 0.0886161 0.0655574 0.0819219 0.0686568 0.0655414 0.0695848
71 1 Mg 0.102519 74.978 2.96691 1.2 1 0.0130567 0.0200215 0.0112013 0.0336061 0.010688 0.0314518 0.014192 0.0603011 0.0208942 0.0820711 0.0244905 0.0539066 0.021607 0.0695047 0.0301567 0.10087 0.0404055 0.103922 0.0402466 0.0829925
72 1 Mg 0.0246927 72.2873 4.59593 1.2 1 0.0153489 0.0155126 0.0206842 0.0295961 0.0185353 0.0243657 0.0260955 0.0251529 0.0469456 0.0604763 0.0515618 0.0551038 0.0607087 0.06967 0.0572184 0.0831912 0.0622017 0.105537 0.0673166 0.0956049
73 2 Si 2.05265 73.9709 4.61696 2.4 1 0.0156156 0.0136348 0.0196305 0.039737 0.0264826 0.031158 0.046355 0.0397385 0.0515284 0.0500067 0.0482106 0.073399 0.0731442 0.0590424 0.0775661 0.0736205 0.0613328 0.0941557 0.0623757 0.0591818
74 3 O -1.11434 74.0458 4.61832 -1.2 1 0.0154928 0.0202793 0.0161497 0.020938 0.0185362 0.0291445 0.0244438 0.0674135 0.034377 0.0487937 0.0429426 0.0727991 0.0641131 0.0672001 0.0619698 0.0737103 0.0583398 0.0710995 0.0592545 0.0662231
75 3 O 1.04325 70.4455 4.57735 -1.2 1 0.0151171 0.0157883 0.026973 0.0172202 0.0273923 0.0323795 0.034216 0.047178 0.0459945 0.0511951 0.0395233 0.0572888 0.049595 0.0642281 0.107162 0.0658183 0.0733694 0.0571513 0.0631007 0.0655823
76 3 O 1.30512 73.4815 3.22186 -1.2 1 0.0183899 0.012111 0.0275327 0.0252058 0.0303515 0.0178646 0.0534416 0.0454208 0.0452738 0.0404027 0.0475125 0.0477362 0.061599 0.0614235 0.0921806 0.0734199 0.0810971 0.0594941 0.0610704 0.0651027
77 1 Mg -0.0490235 75.2549 0.0141523 1.2 1 0.0136137 0.00825862 0.0124276 0.0228466 0.0151914 0.0331472 0.0217774 0.0533379 0.034448 0.0759728 0.032917 0.04744 0.0276669 0.06409 0.0337707 0.0970046 0.053708 0.0993044 0.0554389 0.0783141
78 3 O 1.4072 73.3726 5.8522 -1.2 1 0.00623479 0.00392675 0.0256375 0.0198923 0.0187915 0.0262727 0.0468172 0.036996 0.0384815 0.0441671 0.0512647 0.0368611 0.0579295 0.0632789 0.0873185 0.0638779 0.0820214 0.0611387 0.0662049 0.0639602
79 1 Mg 0.0997085 78.0042 1.86207 1.2 1 0.00785926 0.0112496 0.0234765 0.0290835 0.0159887 0.021983 0.0309687 0.0353027 0.043576 0.0634011 0.0538438 0.056355 0.062363 0.0653188 0.0697176 0.0712471 0.0757847 0.086759 0.087449 0.0707455
80 2 Si -1.98217 76.0411 1.55368 2.4 1 0.0218836 0.00932788 0.0205644 0.0317252 0.0293969 0.0332259 0.0405065 0.0458314 0.0520104 0.0488777 0.0472503 0.0656086 0.0730246 0.0572809 0.0754135 0.072532 0.0637761 0.0941468 0.0585225 0.0505852
81 3 O 1.15853 75.8917 1.48046 -1.2 1 0.0238308 0.0278068 0.0155027 0.0263977 0.0148361 0.0324053 0.0269047 0.0596226 0.0379407 0.0500202 0.0417733 0.0712908 0.0513957 0.0602114 0.0726418 0.0622419 0.0730787 0.0664233 0.057424 0.0644937
82 3 O -1.0682 79.8031 1.83874 -1.2 1 0.0188655 0.0179559 0.0243911 0.0252009 0.0213074 0.0348615 0.0374116 0.0444015 0.0500348 0.0435224 0.045694 0.046425 0.060507 0.0705248 0.10295 0.0783564 0.0694983 0.0506815 0.0767691 0.0543722
83 3 O -1.48932 76.6846 0.321538 -1.2 1 0.00877504 0.0377169 0.0259938 0.0225564 0.0231403 0.0274269 0.0349494 0.0474346 0.0372065 0.0475594 0.0478133 0.0485015 0.059773 0.0658073 0.0793072 0.0773558 0.0840661 0.066386 0.0624842 0.0704137
84 3 O -1.25778 76.7743 2.88807 -1.2 1 0.00917937 0.0170112 0.0259206 0.0205043 0.0205039 0.025032 0.0467041 0.0434 0.0344022 0.0418609 0.0540427 0.0323094 0.0563921 0.0526471 0.093597 0.0703084 0.0726416 0.0707442 0.0570538 0.0652254
85 1 Mg -2.53946 80.117 0.122257 1.2 1 0.0140777 0.0158482 0.0108412 0.0200978 0.00563543 0.037561 0.0139526 0.0587325 0.0155888 0.084548 0.0216744 0.0559305 0.0262979 0.0684551 0.0281966 0.0972074 0.0467819 0.105204 0.0411035 0.088924
86 1 Mg 2.13599 83.1992 1.78391 1.2 1 0.0242943 0.0126428 0.0189666 0.0312643 0.0222931 0.028143 0.0324536 0.0392695 0.0384641 0.0641224 0.0585748 0.0634545 0.0584724 0.0676125 0.0735843 0.0740134 0.0759954 0.0854741 0.0812867 0.0652014
87 2 Si -0.456994 81.3642 1.62727 2.4 1 0.0150948 0.0153391 0.0212694 0.033853 0.0302951 0.0392454 0.033059 0.0445739 0.0549637 0.0510704 0.0542678 0.0660121 0.0753168 0.0595266 0.0673045 0.0730961 0.0602883 0.0922352 0.0624574 0.0497896
88 3 O 1.11024 81.2458 1.72682 -1.2 1 0.0225253 0.022316 0.0125953 0.0235064 0.0293278 0.0328495 0.0190422 0.0746309 0.0434715 0.0644015 0.0398675 0.0737993 0.0655808 0.0715643 0.0749971 0.0599251 0.0660595 0.0654437 0.0653255 0.0619009
89 3 O -1.53294 84.9849 1.88248 -1.2 1 0.0162122 0.0235454 0.0219945 0.0215565 0.0196427 0.0331956 0.0310465 0.040815 0.0601572 0.0444198 0.0413345 0.0405607 0.0490391 0.0697306 0.0969381 0.0723725 0.0693872 0.05256 0.0738298 0.06243
90 3 O -1.16768 81.9336 0.411946 -1.2 1 0.0023171 0.0217134 0.0287716 0.0219974 0.0205538 0.0257022 0.0464775 0.0515566 0.038994 0.0520088 0.0504726 0.0450216 0.0682379 0.0563363 0.094552 0.0623013 0.0744885 0.066682 0.0612433 0.0732322
91 1 Mg -2.32654 90.986 3.27837 1.2 1 0.00972388 0.0192753 0.00658911 0.0300953 0.0112342 0.0324749 0.0068491 0.055785 0.0182753 0.0801842 0.0198155 0.0516965 0.0236203 0.0736986 0.0287255 0.0983714 0.0510718 0.106228 0.0467406 0.0960486
92 3 O -1.07212 82.0092 2.93105 -1.2 1 0.0117997 0.017538 0.0195174 0.023602 0.0277603 0.0242727 0.0489654 0.0490709 0.0362362 0.0457091 0.0572453 0.0432679 0.0612364 0.0566824 0.0887482 0.0795008 0.0763891 0.0682743 0.0663695 0.0634701
93 1 Mg -2.30389 87.8536 4.89345 1.2 1 0.0148765 0.0139438 0.018849 0.0316413 0.0148998 0.0244809 0.0216481 0.0319097 0.0400349 0.0591079 0.0549328 0.0571628 0.0624774 0.0620989 0.065215 0.0767106 0.0777659 0.088715 0.074519 0.0826964
94 2 Si 0.315864 89.8431 4.80126 2.4 1 0.0270706 0.013031 0.0213052 0.0277399 0.0293965 0.0235642 0.0397393 0.0389776 0.0438044 0.0547274 0.0563977 0.0620398 0.0739386 0.0559729 0.0782232 0.0673193 0.0657776 0.0931721 0.0478953 0.0564036
95 3 O -1.16739 89.8598 4.8807 -1.2 1 0.0200977 0.0241756 0.0195859 0.0226499 0.0248315 0.026884 0.020997 0.0735236 0.0397032 0.056334 0.0411393 0.0690526 0.0561714 0.0718906 0.0787045 0.0653243 0.0544414 0.0731875 0.0496036 0.0787913
96 3 O 1.3214 85.9698 4.762 -1.2 1 0.00891259 0.0207548 0.0218331 0.0222654 0.0159936 0.0350851 0.0434974 0.0473588 0.0580058 0.0393272 0.0448 0.0443335 0.0563422 0.0698353 0.109152 0.0763498 0.0724995 0.0519554 0.0732729 0.0481766
97 3 O 0.906948 89.1558 3.42498 -1.2 1 0.0278532 0.0188798 0.0253447 0.0244444 0.0326851 0.01928 0.0548853 0.0460112 0.0407469 0.0533981 0.0572935 0.0428703 0.0547774 0.0795162 0.0772604 0.0824548 0.0776363 0.0582623 0.0680413 0.076282
98 3 O 1.09703 89.1081 6.00635 -1.2 1 0.0244986 0.0157169 0.0333456 0.0215835 0.024158 0.0239183 0.0527396 0.0447813 0.0352676 0.0389434 0.0581646 0.0447124 0.0532049 0.0645641 0.0854082 0.0788617 0.0714938 0.0637872 0.0665267 0.0669262
99 1 Mg -0.0801459 85.5894 3.30287 1.2 1 0.0108495 0.0129046 0.0129824 0.0306004 0.0136801 0.0364002 0.0148129 0.0560403 0.0160299 0.0741741 0.018991 0.0507543 0.0216447 0.069509 0.0280823 0.101155 0.0341691 0.105219 0.0319182 0.0893812
100 1 Mg -0.131533 82.6367 4.7894 1.2 1 0.019266 0.0155218 0.0210254 0.0313334 0.0214962 0.027036 0.031131 0.0286872 0.0433396 0.0602685 0.0589015 0.0588518 0.0616222 0.0681703 0.0625219 0.0809769 0.071069 0.0933773 0.0739027 0.079462
101 2 Si 1.93657 84.4813 4.86309 2.4 1 0.0155897 0.0201637 0.0287383 0.0255913 0.0309453 0.0396412 0.0404905 0.0408178 0.0547264 0.0461605 0.0472077 0.0643903 0.071178 0.0534901 0.0794888 0.0672926 0.061219 0.0960202 0.0535848 0.0586474
102 3 O -1.17804 84.4996 4.88598 -1.2 1 0.0165647 0.0182006 0.0217868 0.0188443 0.0191891 0.026 0.0216095 0.07136 0.0388354 0.0533193 0.0389264 0.0704542 0.058591 0.0716852 0.0697508 0.0620505 0.061357 0.0744068 0.063779 0.0595517
103 3 O 1.07915 80.8079 4.64755 -1.2 1 0.00804838 0.0208572 0.02389 0.0205641 0.0243654 0.0326211 0.034905 0.0481108 0.0426523 0.0504636 0.045605 0.0509104 0.0510178 0.0669616 0.10241 0.0686628 0.071186 0.0576702 0.0731026 0.0639259
104 3 O 1.22262 83.832 3.58882 -1.2 1 0.0150795 0.0105434 0.0233754 0.0228704 0.0252364 0.0181759 0.0534282 0.03919 0.0382933 0.0454072 0.0543043 0.0434163 0.0556048 0.0632627 0.0934352 0.0691265 0.0795591 0.0643236 0.0660499 0.0621727
105 1 Mg 0.00224792 85.4276 0.353638 1.2 1 0.0190481 0.0193155 0.00833016 0.0333448 0.0138591 0.0368136 0.0137983 0.0652149 0.0219161 0.0831383 0.019115 0.0530134 0.0192298 0.0736664 0.0220615 0.107435 0.0301923 0.118006 0.0405572 0.090358
106 3 O 1.41059 83.8477 6.20383 -1.2 1 0.0205246 0.014329 0.0290746 0.0260743 0.0259095 0.0264919 0.0458365 0.0495803 0.0432641 0.04596 0.0558962 0.0412648 0.0559836 0.0599573 0.0880819 0.0747723 0.0678702 0.062971 0.0575014 0.0780671
107 1 Mg -0.0814024 88.522 1.73168 1.2 1 0.0180598 0.0113689 0.0220796 0.0297961 0.0164847 0.0296928 0.0267542 0.0342864 0.048718 0.054845 0.060919 0.0597379 0.0597953 0.0650966 0.0654734 0.0649289 0.0787102 0.103646 0.0630693 0.0815635
108 2 Si -2.0939 86.5107 1.82072 2.4 1 0.0154869 0.00839943 0.0210249 0.0240772 0.0341139 0.0364151 0.0365473 0.0381969 0.0523933 0.0515476 0.0480618 0.0629921 0.0764331 0.0589323 0.0808523 0.0658863 0.057759 0.0854634 0.0621013 0.0512018
109 3 O 1.1279 86.3504 1.78173 -1.2 1 0.0181844 0.0224634 0.0168328 0.0182473 0.0210533 0.0270287 0.0276416 0.0737699 0.0378893 0.0479583 0.040001 0.0801519 0.0523295 0.0724684 0.0803702 0.0745221 0.0579432 0.0739538 0.04337 0.0747881
110 3 O -0.905053 90.3666 2.0391 -1.2 1 0.0108464 0.0182234 0.0207512 0.030044 0.0133535 0.0381318 0.0338766 0.0409112 0.0534251 0.0403758 0.0526224 0.0396119 0.0598737 0.0741752 0.0926188 0.0759214 0.0745443 0.0619268 0.0708041 0.0566423
111 3 O -1.3128 87.1288 0.513979 -1.2 1 0.0190592 0.0169117 0.0299217 0.025534 0.0241311 0.0249831 0.0517992 0.0417584 0.0370368 0.0342786 0.055574 0.0433017 0.0601811 0.056927 0.0906339 0.0668925 0.0854518 0.0659358 0.0600854 0.0700073
112 3 O -1.49597 87.2566 3.10669 -1.2 1 0.00819778 0.0212351 0.0237709 0.0242751 0.0279223 0.0267188 0.0507667 0.0444334 0.0383643 0.0498289 0.0554739 0.0401361 0.0557657 0.0757031 0.0678266 0.0813786 0.0769641 0.0605964 0.0620598 0.0711747
113 1 Mg -2.31124 90.8684 0.365952 1.2 1 0.0073787 0.017755 0.0092133 0.0347845 0.0133219 0.035721 0.00918915 0.0654042 0.0162696 0.0813842 0.0188792 0.0481366 0.0182946 0.0761485 0.0262637 0.102546 0.0267254 0.113801 0.0370252 0.0876382
114 1 Mg 2.49084 93.8733 1.7828 1.2 1 0.0347527 0.00936489 0.0111192 0.028238 0.0173011 0.027749 0.0253945 0.0379446 0.0493784 0.050223 0.0574716 0.0580235 0.0515311 0.0670219 0.075307 0.061006 0.0813936 0.0987833 0.0623982 0.0839614
115 2 Si -0.115292 91.89 1.96429 2.4 1 0.0192261 0.0212838 0.0168034 0.0305141 0.0351322 0.029478 0.0420467 0.0442829 0.0519435 0.0605495 0.052953 0.0672258 0.0729206 0.0572604 0.0783193 0.0729777 0.0724656 0.0748366 0.0690578 0.0583048
116 3 O 1.44904 91.8768 1.70448 -1.2 1 0.0212828 0.0189462 0.0194497 0.0238113 0.0280496 0.0372674 0.0239793 0.0784608 0.0430598 0.0614112 0.0393374 0.0628749 0.0608211 0.075598 0.0694888 0.0636077 0.0578625 0.0720613 0.0671971 0.075368
117 3 O -1.35987 95.6711 1.59648 -1.2 1 0.00821512 0.0152661 0.0213352 0.0267558 0.0137685 0.0397162 0.0358056 0.0442585 0.0582572 0.0449149 0.0427001 0.0430115 0.0596045 0.0696896 0.0958064 0.076286 0.0722631 0.0522592 0.0723536 0.059519
118 3 O -0.804152 92.4458 0.61897 -1.2 1 0.0214447 0.0232443 0.0275366 0.0225162 0.0371572 0.0233918 0.0467373 0.0435567 0.0387877 0.0498563 0.0506707 0.0505135 0.0488404 0.0725869 0.0679973 0.0761216 0.0889879 0.0649041 0.0663417 0.0651396
119 1 Mg -2.30036 101.504 3.15712 1.2 1 0.00700925 0.0162249 0.00647203 0.0332209 0.0121642 0.0365604 0.0136822 0.0533881 0.0209975 0.0760856 0.023539 0.0528114 0.0202444 0.0701356 0.0274073 0.0996512 0.0527373 0.106107 0.0422569 0.0893949
120 3 O -0.9632 92.6453 3.09349 -1.2 1 0.0149024 0.0127204 0.0212368 0.0165556 0.0298085 0.0256356 0.0486573 0.0477288 0.0340874 0.0482408 0.0523084 0.0421585 0.0558774 0.0665969 0.0901894 0.0759024 0.0778321 0.0590859 0.0642804 0.0665541
121 1 Mg -2.13136 98.4294 4.75886 1.2 1 0.0184829 0.0153017 0.0197762 0.0302527 0.0187606 0.0279321 0.0236179 0.0349907 0.0388945 0.0606657 0.0628478 0.0548132 0.0587354 0.0642527 0.0619334 0.0772695 0.0721122 0.091896 0.0740385 0.0716116
122 2 Si 0.408471 100.377 4.64186 2.4 1 0.0166738 0.0102934 0.0260215 0.0326321 0.0281085 0.0305246 0.0360043 0.0453733 0.0530488 0.0626681 0.0540916 0.0661438 0.0723429 0.0548097 0.0806439 0.0686031 0.0568403 0.0952598 0.0494477 0.060159
123 3 O -1.14793 100.36 4.61177 -1.2 1 0.0194486 0.0188616 0.0235386 0.0254069 0.0262283 0.0229066 0.0214272 0.0710257 0.0444435 0.0608389 0.0356865 0.0690773 0.0544471 0.0732981 0.0741573 0.0614154 0.0601316 0.0703267 0.0624237 0.0710566
124 3 O 1.31894 96.6285 4.77806 -1.2 1 0.00719042 0.0185551 0.0250715 0.0162404 0.0193269 0.037332 0.0363513 0.0438499 0.050339 0.0464177 0.0462825 0.0466366 0.0451898 0.0678725 0.103761 0.0665956 0.0739905 0.0618967 0.0700951 0.0638254
125 3 O 1.19817 99.755 3.32476 -1.2 1 0.0153943 0.0079953 0.0293771 0.0252565 0.0254269 0.0181763 0.0445198 0.0463988 0.0351871 0.0457826 0.0550403 0.0436904 0.0562236 0.0524379 0.0979503 0.0704389 0.0724609 0.0614194 0.0611267 0.0757749