ITEM: TIMESTEP
84200
ITEM: NUMBER OF ATOMS
5600
ITEM: BOX BOUNDS xy xz yz pp pp pp
0	7.1235	0
0	201.985	2.3745
0	119.584	0
ITEM: ATOMS id type element xu yu zu q Q_1 Q_2 Q_3 Q_4 Q_5 Q_6 Q_7 Q_8 Q_9 Q_10 Q_11 Q_12 Q_13 Q_14 Q_15 Q_16 Q_17 Q_18 Q_19 Q_20 Q_21
1 1 Mg -1.39984 47.4902 -1.59401 1.2 1 0.46749 0.0430423 0.134092 0.0254888 0.0689497 0.057965 0.0614417 0.0598005 0.0851368 0.0571371 0.0715772 0.095458 0.0898292 0.0993509 0.110983 0.0996239 0.0855699 0.107546 0.108178 0.105994
2 1 Mg 3.09103 49.2674 1.75045 1.2 1 0.281488 0.117677 0.0280435 0.0680305 0.0420019 0.0336966 0.0723585 0.0520825 0.0707799 0.0725003 0.0618177 0.0787497 0.0704728 0.0736098 0.0805396 0.0807511 0.0751251 0.0777721 0.0857856 0.0739569
3 2 Si 1.10052 49.1938 -0.411556 2.4 1 0.285104 0.131092 0.0454173 0.0609343 0.0365182 0.0344259 0.063071 0.0474934 0.0936639 0.0758505 0.0555003 0.0414007 0.0642896 0.0774897 0.0919455 0.0904305 0.0902524 0.0675809 0.0574623 0.079144
4 3 O 2.46699 48.6341 -0.146653 -1.2 1 0.339719 0.123685 0.0640518 0.0702768 0.0265785 0.0607565 0.0441822 0.064708 0.0592772 0.0811581 0.0618056 0.0972278 0.0767643 0.0960576 0.0828579 0.0462388 0.0793519 0.101338 0.0896533 0.0933819
5 3 O -1.29245 51.523 1.33782 -1.2 1 0.129692 0.06518 0.0478013 0.0339558 0.0287104 0.0351446 0.0590957 0.0461574 0.0526643 0.0619783 0.0420476 0.059786 0.054445 0.0725581 0.073276 0.0934308 0.0789198 0.0533965 0.0586814 0.0856323
6 3 O 0.424524 48.3145 -1.49432 -1.2 1 0.384598 0.095323 0.0837209 0.0678762 0.0375227 0.068225 0.0412523 0.0830338 0.0784419 0.0852139 0.0824664 0.080357 0.079101 0.0697934 0.0913026 0.090545 0.0829843 0.0798905 0.076314 0.0891188
7 1 Mg -2.28654 57.5535 2.88755 1.2 1 0.00789289 0.0147481 0.0120681 0.0343952 0.0127018 0.0444447 0.0212686 0.0631588 0.0300533 0.0666215 0.0245491 0.0519795 0.0291532 0.0746664 0.0388963 0.100098 0.0455917 0.109775 0.0507911 0.074296
8 3 O 0.46916 48.8166 1.0497 -1.2 1 0.322849 0.137683 0.0767111 0.0479157 0.0321842 0.0529101 0.0593392 0.0736565 0.0638741 0.0854856 0.0740414 0.0715085 0.0582676 0.0634062 0.06571 0.088856 0.0914904 0.0734656 0.0890768 0.0905619
9 1 Mg -2.31429 54.349 4.13188 1.2 1 0.0195759 0.0146206 0.00767596 0.0341457 0.0235408 0.0331008 0.0222231 0.037989 0.0458594 0.0557554 0.0553127 0.0603953 0.0608657 0.0703989 0.0663559 0.0637112 0.0725342 0.0823708 0.0784843 0.0718556
10 2 Si 0.469255 56.4092 4.30422 2.4 1 0.0122052 0.0243711 0.0252921 0.0347604 0.0335528 0.0291681 0.0414265 0.0527682 0.0572107 0.0679647 0.0569927 0.0724048 0.0759381 0.0574988 0.079042 0.0700804 0.0631149 0.0862362 0.0632063 0.064255
11 3 O -1.15359 56.4921 4.10649 -1.2 1 0.0108458 0.032524 0.0187247 0.015744 0.0235619 0.0295665 0.0329844 0.0782725 0.0450067 0.0603032 0.0470542 0.0693049 0.0614285 0.0652209 0.0757215 0.0718337 0.0596228 0.0669031 0.0709851 0.0805423
12 3 O 1.43369 52.481 4.22408 -1.2 1 0.0659944 0.0488167 0.0405162 0.0219345 0.0282909 0.0388542 0.0383361 0.0469433 0.0594883 0.0558298 0.0601895 0.0466394 0.0614692 0.0632972 0.0776628 0.091085 0.0739553 0.0586857 0.0715003 0.0624518
13 3 O 1.00287 55.7373 2.98022 -1.2 1 0.00411794 0.0283951 0.0199823 0.0193106 0.0300402 0.0328573 0.0484715 0.0547576 0.0442622 0.0482844 0.0574892 0.0470789 0.0520548 0.0657759 0.0783064 0.0865926 0.0667636 0.0556435 0.0582077 0.074651
14 3 O 1.21244 55.453 5.3902 -1.2 1 0.0159707 0.00978614 0.0315431 0.0220513 0.015728 0.0282808 0.0318175 0.0446909 0.0391289 0.0482996 0.0624435 0.04307 0.0571184 0.0640816 0.0830919 0.0786447 0.063349 0.0736984 0.06185 0.0649085
15 1 Mg -0.0466952 52.0528 2.85183 1.2 1 0.0799424 0.0609349 0.0489475 0.0249626 0.0340268 0.0355972 0.0424625 0.0617228 0.0452926 0.0595681 0.0588992 0.0487996 0.0491815 0.0639217 0.0645713 0.0743711 0.0634529 0.0772369 0.077395 0.0854621
16 1 Mg 0.909879 48.1987 2.78735 1.2 1 0.377005 0.10019 0.0759478 0.0753833 0.0371942 0.0653343 0.0574366 0.0781089 0.0632585 0.0679126 0.0685799 0.063429 0.0616439 0.0689185 0.0930159 0.0840113 0.0724076 0.089896 0.0869656 0.0842365
17 2 Si 2.30373 51.1059 4.41128 2.4 1 0.114256 0.0896877 0.0480577 0.0335186 0.0192332 0.0392968 0.0362062 0.0590973 0.0502534 0.065861 0.0754862 0.0749062 0.0858645 0.0549781 0.08559 0.0550933 0.0808376 0.0897913 0.0803747 0.0738372
18 3 O -1.01069 51.3939 4.27241 -1.2 1 0.140528 0.0684308 0.040758 0.0249524 0.0220189 0.0283142 0.0545259 0.0479579 0.0408537 0.071935 0.050482 0.0717828 0.043118 0.0632676 0.0746167 0.0920971 0.0707116 0.0832104 0.0632386 0.0760264
19 3 O 2.8494 47.4344 2.73006 -1.2 1 0.458456 0.0444405 0.115555 0.0563259 0.0815495 0.0508624 0.0858354 0.0724916 0.0708649 0.0498102 0.0748696 0.0720165 0.0980739 0.101993 0.0889609 0.103465 0.0823906 0.0811973 0.0910352 0.0931702
20 3 O 1.90153 50.1591 3.19632 -1.2 1 0.20654 0.106044 0.0249775 0.0230767 0.0395984 0.0489215 0.0434212 0.0720183 0.0699952 0.0516145 0.0711281 0.0588372 0.0682687 0.0824102 0.057576 0.072288 0.0967793 0.0987567 0.0779844 0.0698408
21 1 Mg 0.00422815 52.4424 -0.567155 1.2 1 0.0570449 0.0649759 0.0463092 0.0325043 0.0305043 0.0259344 0.0359379 0.0573012 0.0622744 0.059033 0.046636 0.0537318 0.0717754 0.0703922 0.0583215 0.0737433 0.0833168 0.0893368 0.0755391 0.0702563
22 3 O 1.51089 50.5436 5.62909 -1.2 1 0.180876 0.0832223 0.0399872 0.0297058 0.0300568 0.0425466 0.0511949 0.0503731 0.0569318 0.068038 0.0597577 0.0573323 0.0613947 0.063489 0.100342 0.071817 0.0819903 0.0620894 0.0709122 0.0781656
23 1 Mg 0.0390191 54.6565 1.37336 1.2 1 0.0166947 0.0168093 0.015784 0.0302269 0.0189463 0.031794 0.0436087 0.0396234 0.0450066 0.0503141 0.0584917 0.0631497 0.0574424 0.0618466 0.0613356 0.0982401 0.0598971 0.0786928 0.0687544 0.0789441
24 2 Si -1.99936 52.8733 1.02789 2.4 1 0.0407827 0.0496846 0.0369783 0.0301463 0.0164128 0.0439038 0.0425168 0.0499537 0.0639281 0.050246 0.054123 0.0581806 0.0606325 0.0693672 0.0671459 0.0589805 0.0711852 0.0672731 0.0702616 0.0738505
25 3 O 1.07806 52.761 1.12586 -1.2 1 0.0443062 0.0628732 0.0379347 0.0200095 0.0233627 0.0355281 0.035064 0.0495211 0.0591693 0.0512267 0.0410687 0.0510496 0.0644524 0.0628976 0.0785195 0.0755069 0.0678732 0.0619476 0.067379 0.0635076
26 3 O -0.876497 56.9441 1.29676 -1.2 1 0.0189243 0.0148377 0.0312113 0.0253962 0.0203896 0.0267257 0.0391425 0.0498842 0.0495761 0.0388408 0.0504924 0.0502181 0.0501754 0.068534 0.0960425 0.0750407 0.0715025 0.0645622 0.069864 0.0567173
27 3 O -1.22004 53.8127 -0.0179531 -1.2 1 0.0141524 0.0245145 0.0418194 0.0336365 0.0272409 0.0373188 0.0476265 0.0579901 0.0420985 0.0392621 0.0645072 0.0500498 0.0504905 0.0665504 0.0819532 0.0719791 0.0837593 0.0616906 0.0784484 0.0687559
28 3 O -1.49297 53.6948 2.39443 -1.2 1 0.0157119 0.029403 0.0437115 0.0221112 0.0282623 0.0227553 0.0510946 0.0505586 0.0489641 0.0499717 0.0551013 0.0518083 0.0542017 0.0702384 0.064855 0.0730084 0.0843079 0.057233 0.0774625 0.0690886
29 1 Mg -2.21604 57.0677 -0.021349 1.2 1 0.0209466 0.0233172 0.0187418 0.0237644 0.0307894 0.0388129 0.0330307 0.0446135 0.052107 0.0632512 0.0391676 0.0405258 0.0492868 0.0601969 0.0565797 0.083391 0.0780593 0.0745011 0.0799354 0.0703642
30 1 Mg 2.34342 60.4262 1.37672 1.2 1 0.00467022 0.009937 0.0200185 0.0401312 0.0167958 0.0309301 0.0294346 0.0324046 0.0474467 0.0568584 0.0631681 0.0505896 0.0534571 0.0622764 0.0636111 0.0859368 0.0742333 0.0821959 0.0592651 0.0867463
31 2 Si -0.172579 58.4719 1.32682 2.4 1 0.0120483 0.00725148 0.025016 0.0199509 0.0359392 0.0355777 0.0388375 0.0355951 0.049946 0.0524195 0.0542205 0.0647025 0.0716664 0.0549669 0.0829702 0.057206 0.0674735 0.0812457 0.0610277 0.0569787
32 3 O 1.25959 58.2888 1.26845 -1.2 1 0.0186766 0.0141682 0.0162345 0.0216874 0.0209234 0.0369068 0.0333404 0.063048 0.0370245 0.0486534 0.0399109 0.076358 0.0509396 0.0724338 0.068908 0.0699258 0.063157 0.0794321 0.0502261 0.0712017
33 3 O -1.43389 62.4318 1.66548 -1.2 1 0.00880744 0.0217978 0.013697 0.0275936 0.0203011 0.0300855 0.0357903 0.045725 0.0566618 0.0452478 0.0490948 0.0492714 0.0683964 0.0773933 0.0825343 0.077348 0.0682089 0.0645066 0.0665572 0.0533178
34 3 O -0.796367 59.1131 0.120503 -1.2 1 0.0256843 0.0117539 0.0329926 0.0190301 0.0369473 0.0274026 0.0525095 0.0528485 0.0366243 0.033152 0.0618207 0.0383083 0.0530189 0.0763925 0.0761909 0.0837991 0.0711813 0.0596511 0.0799458 0.0699391
35 1 Mg -2.43842 68.3914 2.97696 1.2 1 0.00873065 0.0160788 0.0096932 0.0327243 0.0127092 0.0321761 0.0161522 0.0645386 0.0199174 0.0745578 0.0280366 0.0628951 0.0325792 0.0756633 0.0304543 0.106703 0.0369035 0.102986 0.0339096 0.0803919
36 3 O -0.886423 59.1314 2.64881 -1.2 1 0.0254283 0.0188077 0.0292428 0.0226905 0.0312568 0.0318929 0.0490838 0.0512497 0.0465268 0.0485065 0.0568746 0.04804 0.0541706 0.0720812 0.0827647 0.0844595 0.0780619 0.0612001 0.0656938 0.0690881
37 1 Mg -2.12152 65.2462 4.77578 1.2 1 0.0180802 0.0146799 0.0233536 0.0277118 0.0230561 0.0296028 0.0328039 0.0460062 0.0413494 0.0596363 0.0642138 0.0541253 0.0581382 0.0678106 0.0787945 0.0710348 0.0696563 0.081108 0.0786922 0.058761
38 2 Si 0.354073 67.2317 4.52038 2.4 1 0.00938405 0.00640548 0.0242841 0.0319395 0.030229 0.0347683 0.0355617 0.0471742 0.0568178 0.0585774 0.0550954 0.0658295 0.0835757 0.063205 0.0725367 0.0719953 0.0636689 0.0791549 0.0616044 0.0566888
39 3 O -1.2064 67.4571 4.47119 -1.2 1 0.0272284 0.0228853 0.0211849 0.0177197 0.0176164 0.0266664 0.0341827 0.0733904 0.0369554 0.0623346 0.04965 0.0712594 0.051553 0.0743765 0.0701602 0.0712999 0.061681 0.0727899 0.0479093 0.0676512
40 3 O 1.42403 63.3999 4.45112 -1.2 1 0.0146908 0.0185622 0.0176445 0.0311655 0.0195101 0.0348491 0.0412118 0.0456672 0.0520824 0.0456074 0.0555497 0.0458945 0.0530443 0.0786928 0.0989049 0.0680145 0.0692169 0.0588422 0.0653777 0.053702
41 3 O 0.846007 66.5813 3.19484 -1.2 1 0.0227333 0.0141924 0.0217699 0.0208752 0.0280367 0.027041 0.0518263 0.0537699 0.0331601 0.0409348 0.0581362 0.0452115 0.051026 0.0744561 0.0691045 0.0880662 0.0801459 0.058103 0.0626993 0.065294
42 3 O 1.09639 66.3325 5.68693 -1.2 1 0.00555589 0.0241551 0.0296268 0.0230253 0.0261051 0.0306612 0.0466395 0.0436076 0.0377117 0.0466443 0.063677 0.0349534 0.0576452 0.0669797 0.0854899 0.0723933 0.0780359 0.0744834 0.0651525 0.0525892
43 1 Mg -0.116812 63.147 2.99367 1.2 1 0.00670599 0.0200055 0.0141606 0.0301037 0.0236175 0.0376192 0.0254346 0.055749 0.0421516 0.0620469 0.0416389 0.0481833 0.0454016 0.076875 0.0585349 0.0916159 0.0712892 0.0863063 0.056218 0.0694613
44 1 Mg 0.172554 59.8768 4.18041 1.2 1 0.0177713 0.0170527 0.0151532 0.0270849 0.0217874 0.0342627 0.0290954 0.0344986 0.0510297 0.0519186 0.0654879 0.0466743 0.0596796 0.0690706 0.0658344 0.0700753 0.0678585 0.0917341 0.0598135 0.0792199
45 2 Si 2.23478 61.7112 4.28537 2.4 1 0.0073525 0.0162827 0.0250289 0.0335162 0.0355227 0.0266016 0.038433 0.0445655 0.0533905 0.0553453 0.0598857 0.0655473 0.0748212 0.0636162 0.0809241 0.0759899 0.0594191 0.0832766 0.0676922 0.057948
46 3 O -1.09069 62.0163 4.26301 -1.2 1 0.0256293 0.0168621 0.0289582 0.019428 0.0272832 0.0308058 0.0301154 0.0758578 0.0465095 0.0552474 0.0463871 0.0693275 0.0508519 0.0708288 0.0796842 0.0769722 0.0557757 0.0688395 0.0493127 0.0731032
47 3 O 1.06731 57.9303 4.34321 -1.2 1 0.0198067 0.0166937 0.0118435 0.0268627 0.0171004 0.0323539 0.0378521 0.0481053 0.0608908 0.0451831 0.0514479 0.048426 0.0602751 0.0779747 0.09391 0.0705107 0.0730363 0.0561665 0.0723168 0.0593852
48 3 O 1.62291 60.9312 3.1792 -1.2 1 0.0227332 0.0160304 0.0306869 0.0203973 0.0249817 0.02489 0.0418387 0.0458957 0.0380946 0.0452828 0.0624649 0.0439315 0.0550225 0.0783629 0.0645735 0.0848326 0.0740532 0.0684169 0.0640038 0.0629001
49 1 Mg -0.0976053 63.1163 -0.0974517 1.2 1 0.0088575 0.019332 0.0123778 0.0367105 0.023209 0.0421182 0.0293467 0.0588486 0.0422646 0.0685897 0.0335309 0.0563066 0.0359186 0.0653828 0.0506214 0.0956214 0.05237 0.103697 0.0558452 0.0724548
50 3 O 1.28641 61.0858 5.64738 -1.2 1 0.0161118 0.0242161 0.0258586 0.0241478 0.0310426 0.0239779 0.0484245 0.0429205 0.0476153 0.0429347 0.0684729 0.0374334 0.0644195 0.0643352 0.102461 0.0626326 0.0803815 0.0723587 0.0623581 0.0611312
51 1 Mg -0.263047 66.1236 1.31041 1.2 1 0.0158156 0.0137412 0.0204813 0.0266285 0.0199605 0.0361293 0.0301599 0.0322404 0.045319 0.048893 0.0628517 0.0623848 0.0641996 0.0649297 0.0706893 0.0703549 0.0839536 0.0855977 0.0617136 0.0813083
52 2 Si -2.12073 64.0197 1.45725 2.4 1 0.0113099 0.0217146 0.0147786 0.024776 0.0343059 0.0375386 0.0398853 0.0465625 0.0580694 0.0604299 0.043093 0.0686416 0.0750241 0.0612431 0.0715525 0.0672822 0.0667006 0.0811931 0.0622053 0.0637338
53 3 O 1.06671 63.9849 1.559 -1.2 1 0.0159994 0.0320314 0.0148752 0.0168259 0.0301554 0.0381913 0.0236099 0.0832786 0.0368592 0.0634493 0.0417204 0.0679224 0.0596196 0.0836607 0.0752025 0.0698833 0.0596861 0.0595916 0.0590076 0.0632322
54 3 O -1.00973 67.8757 1.34984 -1.2 1 0.00506405 0.0222797 0.025967 0.0283303 0.012121 0.031255 0.0392243 0.0496416 0.0585078 0.0341583 0.0514223 0.0498252 0.0688737 0.0730799 0.0896412 0.0775621 0.0743257 0.0608086 0.0689274 0.0575162
55 3 O -1.37203 64.4999 0.0873909 -1.2 1 0.0151442 0.0102585 0.0260048 0.0145172 0.0314907 0.0322905 0.0541161 0.038976 0.0534853 0.0360108 0.0614353 0.0473644 0.0581901 0.0678859 0.0903858 0.0669385 0.0754488 0.0593778 0.0623282 0.0681741
56 3 O -1.4244 64.7315 2.66735 -1.2 1 0.0119583 0.0216973 0.0234793 0.018286 0.0255402 0.0228183 0.0500005 0.0461542 0.036219 0.0436308 0.0673077 0.0404967 0.0651407 0.0778176 0.0792673 0.0884735 0.0725473 0.0652348 0.0567416 0.0680562
57 1 Mg -2.33827 68.1452 -0.183707 1.2 1 0.016989 0.0155903 0.0301799 0.0309347 0.0254537 0.0379067 0.0204964 0.0621241 0.0379892 0.078191 0.0331503 0.0530241 0.0386775 0.0674567 0.0487723 0.0896378 0.0647399 0.0920303 0.0542795 0.0723081
58 1 Mg 2.58055 71.3985 1.76179 1.2 1 0.0269921 0.0165838 0.019295 0.0311483 0.0216654 0.0317535 0.0296428 0.0389346 0.0540571 0.0448037 0.0557639 0.0641067 0.0542199 0.0697703 0.0724382 0.0740467 0.066315 0.0951175 0.0746301 0.0877711
59 2 Si -0.315231 69.434 1.53744 2.4 1 0.0126071 0.0213521 0.0217815 0.0353694 0.0283338 0.0329963 0.0388657 0.0452584 0.0532721 0.0529438 0.0578086 0.0631722 0.0877207 0.0541614 0.0719399 0.0734199 0.0606208 0.0787846 0.067324 0.0590503
60 3 O 1.28171 69.3679 1.63401 -1.2 1 0.0190875 0.035641 0.0177713 0.0242893 0.0220282 0.0333181 0.0238691 0.0742241 0.0418894 0.0712222 0.0421366 0.0758035 0.0589758 0.079607 0.0756054 0.0716788 0.0653795 0.0580238 0.0559731 0.0630607
61 3 O -1.21443 73.1542 1.71138 -1.2 1 0.00869975 0.0169013 0.0222656 0.0185161 0.0159745 0.0358562 0.0425719 0.0542562 0.0467656 0.0421853 0.0450221 0.0606821 0.0433841 0.0689809 0.1006 0.0753203 0.073612 0.0521278 0.0598585 0.0604538
62 3 O -0.854353 70.1974 0.304123 -1.2 1 0.0182171 0.0194284 0.0222373 0.0285264 0.0329214 0.038336 0.0473294 0.0471049 0.0405693 0.0576197 0.0656133 0.0350255 0.0629608 0.0855562 0.0734769 0.0701738 0.0703901 0.0583909 0.0594103 0.0638752
63 1 Mg -2.25537 79.1259 3.32596 1.2 1 0.012832 0.0153028 0.00975233 0.0346546 0.0202354 0.0395258 0.0152321 0.0558291 0.0216338 0.075105 0.0288962 0.0477761 0.0330227 0.0712067 0.0324753 0.101802 0.0421513 0.110651 0.040652 0.0818966
64 3 O -0.89865 70.1162 2.84185 -1.2 1 0.0171227 0.0147376 0.0192301 0.0255947 0.0336786 0.0222473 0.0534354 0.0476549 0.0447275 0.047695 0.0627081 0.0466079 0.0587034 0.0715595 0.0803865 0.0893947 0.0753976 0.0670579 0.0574672 0.0703028
65 1 Mg -2.29467 76.1702 4.70211 1.2 1 0.013032 0.0133386 0.0150139 0.0329447 0.0165927 0.0349051 0.0219057 0.0447224 0.048522 0.0607025 0.0606419 0.0557641 0.0542483 0.0624217 0.0703142 0.0765121 0.0609564 0.0897297 0.0689203 0.0768375
66 2 Si 0.34622 78.2169 4.90715 2.4 1 0.0113108 0.0139539 0.017875 0.0258737 0.0458531 0.0321061 0.0486975 0.0365516 0.0534333 0.0610501 0.058603 0.0616966 0.0773422 0.0479707 0.0739589 0.0649974 0.0676266 0.0874178 0.0627064 0.0572039
67 3 O -1.16294 78.159 4.74515 -1.2 1 0.0181351 0.0189213 0.016988 0.0217939 0.0228204 0.0244796 0.0283589 0.0688375 0.0367677 0.0598333 0.0386121 0.064831 0.0591839 0.0706256 0.0702832 0.0601302 0.0575603 0.0737084 0.0647639 0.0648434
68 3 O 1.58077 74.1451 4.46283 -1.2 1 0.0173653 0.0232177 0.0132657 0.0290105 0.0243708 0.035975 0.0372467 0.044683 0.0524402 0.0430176 0.0561326 0.0409544 0.0651483 0.0706635 0.094198 0.0830819 0.0713814 0.0596835 0.0718667 0.0562111
69 3 O 1.06481 77.4021 3.54106 -1.2 1 0.0168231 0.0168704 0.0257918 0.0249194 0.0325514 0.0305543 0.0451123 0.043017 0.0373976 0.04564 0.0593095 0.0378242 0.0575753 0.0657712 0.0848567 0.0877061 0.0810744 0.0675574 0.0625839 0.0583384
70 3 O 0.965858 77.325 5.99272 -1.2 1 0.0162667 0.0228889 0.0177169 0.0223335 0.0252638 0.0348716 0.0396747 0.0522705 0.0363316 0.0474608 0.0627834 0.0393536 0.0518047 0.0787427 0.0674699 0.0863299 0.0635962 0.0637389 0.0713434 0.0623028
71 1 Mg 0.130292 73.4414 2.93606 1.2 1 0.0131288 0.0131752 0.020601 0.0340708 0.0194282 0.0344331 0.0314157 0.0555062 0.05015 0.0642864 0.0405157 0.0449285 0.0439314 0.0710562 0.0510987 0.0860145 0.0662147 0.0805365 0.0678645 0.0725284
72 1 Mg -0.140457 70.5125 4.63536 1.2 1 0.0162887 0.0117076 0.0183278 0.0275507 0.0238461 0.0256663 0.0301651 0.0325399 0.0466117 0.0657276 0.0614252 0.076018 0.0588746 0.0607851 0.0852536 0.0603416 0.0732775 0.079853 0.0788844 0.0698103
73 2 Si 2.04491 72.6905 4.74162 2.4 1 0.0222067 0.00829893 0.016043 0.0340536 0.0381954 0.0365665 0.0449183 0.0342978 0.052609 0.0508465 0.0424 0.0666459 0.0747182 0.0539857 0.0889857 0.0533166 0.0662607 0.0833977 0.0610142 0.0584264
74 3 O -1.0919 72.8744 4.60126 -1.2 1 0.0166111 0.0222441 0.0238361 0.0235984 0.0279158 0.0345521 0.0350167 0.0662014 0.038086 0.0551748 0.0449091 0.0727224 0.0511958 0.07688 0.0793611 0.0697672 0.0644114 0.0817669 0.0543518 0.0713306
75 3 O 0.918267 68.7133 4.69431 -1.2 1 0.0119834 0.0166548 0.020288 0.0331261 0.0219771 0.0301636 0.0432887 0.053876 0.0635445 0.0377732 0.0557722 0.0428663 0.0630342 0.0748928 0.098808 0.0831046 0.0712628 0.0570103 0.0721855 0.0590833
76 3 O 1.40596 71.9793 3.48444 -1.2 1 0.00492299 0.0260582 0.0283931 0.0246176 0.0317611 0.0273989 0.0482112 0.0495029 0.0419853 0.0448729 0.0567476 0.0421458 0.063897 0.0646917 0.0884339 0.0828393 0.0707465 0.0666381 0.0598138 0.0623533
77 1 Mg -0.0096361 73.8239 0.193766 1.2 1 0.0178333 0.0193095 0.00465674 0.0326078 0.0147343 0.0394044 0.0137896 0.0600606 0.0199408 0.0756711 0.0224929 0.0516498 0.0231342 0.0727079 0.0310488 0.102794 0.0402675 0.102338 0.0399624 0.0806804
78 3 O 1.45423 72.1252 6.11124 -1.2 1 0.00576038 0.0166478 0.0258588 0.0238338 0.0311661 0.0274748 0.0415209 0.0430951 0.0482242 0.0525323 0.0608146 0.0468012 0.0573857 0.0688643 0.0877835 0.0718677 0.0748389 0.0676004 0.0652988 0.0690485
79 1 Mg 0.23392 76.8642 1.81751 1.2 1 0.013072 0.0111941 0.0185472 0.0324285 0.018544 0.0353844 0.028193 0.0349663 0.0425775 0.0619027 0.0627604 0.0570279 0.0562848 0.0633333 0.0660585 0.0695517 0.0757099 0.0880637 0.0745748 0.0649012
80 2 Si -1.95422 74.8183 1.80409 2.4 1 0.0184045 0.0207655 0.0182037 0.0226654 0.0361733 0.0325174 0.0391436 0.0443748 0.0566643 0.052312 0.0556332 0.0593086 0.075586 0.0573394 0.0814063 0.065626 0.0577946 0.0787154 0.0566035 0.0502406
81 3 O 1.29303 74.5295 1.64883 -1.2 1 0.0273308 0.0235332 0.0196006 0.0189747 0.0244235 0.0287146 0.0401109 0.0716003 0.0486337 0.0471889 0.052491 0.0711905 0.0460225 0.0701627 0.0726145 0.0691098 0.0593448 0.0791545 0.0455198 0.0746001
82 3 O -0.821161 78.7378 1.60008 -1.2 1 0.0130377 0.0190498 0.0114115 0.0343411 0.0242787 0.0345246 0.0342611 0.0420053 0.0615882 0.0403742 0.0481021 0.0373621 0.056436 0.0724821 0.0926519 0.0722638 0.0856646 0.0528115 0.0675592 0.0589446
83 3 O -1.24158 75.3742 0.455893 -1.2 1 0.016856 0.0173737 0.0290687 0.0206682 0.0355099 0.0254914 0.055373 0.0475769 0.0401168 0.040482 0.0625497 0.056174 0.0547497 0.0620793 0.0929549 0.0720658 0.0815713 0.0637567 0.0626924 0.066184
84 3 O -1.30848 75.6771 2.90047 -1.2 1 0.00589353 0.0206454 0.0200532 0.0263664 0.0300523 0.0245064 0.043839 0.0392557 0.0441586 0.0452881 0.0678799 0.0442987 0.0605175 0.0675289 0.0822774 0.0757253 0.0653364 0.0613761 0.066411 0.0539432
85 1 Mg -2.30977 79.1478 0.387134 1.2 1 0.0163841 0.0211988 0.0154871 0.0433779 0.0255233 0.0364463 0.0206157 0.0661286 0.0259248 0.0732385 0.033958 0.0480435 0.0356335 0.0671587 0.0405885 0.0963232 0.0483007 0.106244 0.0463369 0.0809004
86 1 Mg 2.63932 82.3612 1.93339 1.2 1 0.0200832 0.0115615 0.0151125 0.024349 0.0163672 0.0322458 0.0218316 0.0382695 0.0431271 0.0484468 0.0610857 0.0543637 0.0573459 0.061586 0.0748189 0.0615384 0.0799976 0.0862632 0.0716227 0.0668346
87 2 Si -0.228694 80.1608 1.75094 2.4 1 0.00904204 0.0142745 0.0215267 0.0298123 0.0398224 0.0322568 0.0393839 0.0447197 0.051624 0.0590719 0.0520228 0.0681757 0.0790347 0.0586746 0.074251 0.0717696 0.0611982 0.0849594 0.0500296 0.0574668
88 3 O 1.36713 80.0068 1.76224 -1.2 1 0.0226343 0.0181664 0.0195111 0.023496 0.0212431 0.0269607 0.0340325 0.073393 0.0379919 0.0613143 0.0499904 0.0792821 0.0384432 0.0728364 0.0803113 0.0686532 0.0693556 0.0722479 0.0561154 0.0747438
89 3 O -1.28383 84.3667 1.70143 -1.2 1 0.0205556 0.0158118 0.0178049 0.0241716 0.020456 0.0319165 0.0432357 0.0351058 0.0549096 0.0445009 0.0551076 0.0430865 0.0582099 0.0748345 0.08841 0.0584404 0.0794279 0.059266 0.0669154 0.0523064
90 3 O -0.6352 81.1513 0.507161 -1.2 1 0.0178008 0.0114042 0.0214804 0.0206504 0.0187613 0.0256711 0.0367883 0.043879 0.0339573 0.0462311 0.0616331 0.043605 0.0537821 0.08086 0.0663272 0.0792982 0.0664636 0.0696679 0.06742 0.0718066
91 1 Mg -2.19995 90.1172 3.4444 1.2 1 0.00456 0.00768272 0.0136331 0.0288808 0.0129928 0.041016 0.024063 0.0557275 0.0299473 0.069873 0.0441755 0.0456523 0.04603 0.0702225 0.0524439 0.0923845 0.0649516 0.0879282 0.0591953 0.0589664
92 3 O -0.891152 80.7382 3.06602 -1.2 1 0.0119423 0.0112796 0.0208148 0.0210573 0.0290817 0.0261181 0.0491583 0.0398015 0.049354 0.0419393 0.055424 0.0541547 0.0514039 0.0634141 0.090785 0.0691265 0.0788213 0.0772047 0.0672585 0.0640841
93 1 Mg -2.04365 86.911 4.62502 1.2 1 0.0205717 0.00763963 0.0279237 0.0239531 0.0205176 0.0334078 0.0259362 0.0328085 0.0436674 0.0553215 0.0617373 0.0602635 0.0529802 0.0629376 0.0732717 0.0732758 0.0752136 0.0798133 0.0792182 0.0547413
94 2 Si 0.430023 88.8666 4.86293 2.4 1 0.0187734 0.0118608 0.0219433 0.0233839 0.0329923 0.0416997 0.0325583 0.044494 0.0629238 0.0583417 0.0660216 0.0582648 0.071729 0.0543608 0.056455 0.0685126 0.0795931 0.0947722 0.0708887 0.0563534
95 3 O -1.09456 88.9574 4.59101 -1.2 1 0.0298692 0.0200269 0.0146354 0.020756 0.0309585 0.0387678 0.0278045 0.0646624 0.0441351 0.0771028 0.0489781 0.0596155 0.0564895 0.078096 0.0690017 0.0629541 0.0529772 0.0539079 0.0717414 0.0692059
96 3 O 1.70232 84.951 4.6897 -1.2 1 0.0145818 0.0191363 0.0191216 0.0282727 0.023842 0.0293715 0.0350657 0.0477325 0.0715979 0.0386707 0.0519603 0.0473407 0.0599378 0.0694705 0.0883231 0.0826417 0.0631255 0.0552103 0.0651888 0.0561877
97 3 O 1.17848 87.95 3.90892 -1.2 1 0.0205721 0.0229127 0.0257919 0.0178431 0.0290177 0.0327054 0.0380134 0.0515485 0.0492902 0.0508114 0.0570284 0.0514616 0.0538943 0.0567335 0.0704334 0.0841548 0.0644197 0.0788843 0.0554354 0.0690361
98 3 O 0.923186 88.4899 6.27932 -1.2 1 0.00917631 0.01386 0.021508 0.0128473 0.0234839 0.030311 0.0483544 0.0438729 0.0492883 0.0534849 0.0552748 0.0357555 0.0641398 0.0564334 0.0882781 0.0670375 0.0792647 0.0640913 0.0604099 0.0665632
99 1 Mg 0.448836 84.4666 2.87129 1.2 1 0.0100315 0.0130425 0.0163716 0.0232538 0.027286 0.0354463 0.0362715 0.055859 0.0399017 0.0750788 0.041769 0.0471419 0.0510675 0.0580125 0.0645487 0.0730807 0.0814398 0.076757 0.0674997 0.0679206
100 1 Mg 0.0711059 81.7526 4.44356 1.2 1 0.0238434 0.0194403 0.0156889 0.0300387 0.0269153 0.0286487 0.024528 0.0396467 0.0468342 0.058447 0.0646933 0.0497647 0.0662319 0.0598275 0.0680133 0.0808235 0.0726948 0.086461 0.0642505 0.067355
101 2 Si 2.21413 83.4457 4.71284 2.4 1 0.0191938 0.00889788 0.0154508 0.0163351 0.0351773 0.037451 0.0332001 0.0538297 0.0592093 0.0586573 0.0554609 0.0635309 0.076904 0.057919 0.0746422 0.0639265 0.0715682 0.0846321 0.0720055 0.0629963
102 3 O -0.872047 83.5312 4.72851 -1.2 1 0.0189274 0.0214456 0.00894311 0.0213427 0.0254103 0.0299317 0.0198017 0.0716748 0.04094 0.0747502 0.0247128 0.0632454 0.0613584 0.0750384 0.0725074 0.067929 0.0654847 0.0602186 0.0617756 0.0728506
103 3 O 0.988597 79.6862 4.62835 -1.2 1 0.016934 0.0221687 0.0209148 0.0333963 0.0175422 0.0365698 0.0404512 0.0418308 0.0617538 0.046427 0.0532688 0.040322 0.0579353 0.0710376 0.0971148 0.0666568 0.0636118 0.0643673 0.0696072 0.0557563
104 3 O 1.63717 82.958 3.29172 -1.2 1 0.0106233 0.0167254 0.0223657 0.0167159 0.0265176 0.0316736 0.0455299 0.0456456 0.0393684 0.0492545 0.056922 0.0345326 0.0586131 0.0678012 0.0695364 0.077402 0.071598 0.0680244 0.070956 0.0805744
105 1 Mg 0.277611 84.4543 0.316077 1.2 1 0.00950638 0.0160009 0.0143244 0.0306541 0.0214784 0.0357484 0.0208887 0.0510374 0.0315281 0.0675261 0.0397664 0.0596959 0.0319798 0.0581857 0.0438494 0.0901774 0.0590489 0.101662 0.0537351 0.0773916
106 3 O 1.69609 82.401 5.77604 -1.2 1 0.0110974 0.0220811 0.0186621 0.0227568 0.0254555 0.0262898 0.0344991 0.0429373 0.0433394 0.0564341 0.0616085 0.0546253 0.0528157 0.0547915 0.071341 0.0820922 0.0612262 0.0706049 0.0678912 0.0756402
107 1 Mg 0.172533 87.7758 1.96363 1.2 1 0.010348 0.0176567 0.014003 0.0251729 0.0207707 0.0344469 0.0333875 0.0382547 0.0365326 0.0566461 0.0600713 0.0589161 0.0667387 0.0627935 0.0678506 0.0684422 0.0725632 0.0840707 0.0831945 0.0552191
108 2 Si -1.84142 85.9345 1.69318 2.4 1 0.0127586 0.0197523 0.0140578 0.028465 0.0306196 0.031816 0.0234067 0.0501208 0.0636762 0.0491753 0.0555513 0.0645328 0.0588437 0.0541543 0.0643323 0.0782371 0.0592478 0.0973775 0.0668063 0.0674719
109 3 O 1.37869 85.8341 1.58812 -1.2 1 0.0332856 0.0150178 0.0231511 0.0174343 0.0291764 0.0310553 0.0233088 0.0624362 0.0476462 0.0735596 0.0411955 0.0629704 0.0552808 0.0714654 0.0736595 0.0512627 0.0681016 0.0582868 0.0590295 0.0596242
110 3 O -1.03098 89.6459 1.76845 -1.2 1 0.020501 0.0240066 0.0227758 0.027951 0.0212982 0.0294418 0.044408 0.044559 0.0624808 0.0457893 0.0567402 0.049704 0.0477575 0.0740642 0.0988911 0.073386 0.0696231 0.0698326 0.0682616 0.0507679
111 3 O -0.949924 86.4549 0.434832 -1.2 1 0.0205877 0.0218862 0.0267941 0.025456 0.031472 0.0174193 0.0463727 0.041456 0.040823 0.0478484 0.0601705 0.038906 0.0589065 0.0479458 0.0912419 0.0738529 0.0572261 0.0810885 0.0638188 0.0625614
112 3 O -1.11312 86.5092 2.99235 -1.2 1 0.011089 0.0172642 0.0233789 0.0184122 0.0228911 0.0234216 0.0456182 0.0431252 0.0425139 0.0451188 0.062724 0.0431801 0.053046 0.0520315 0.095725 0.0724487 0.0621559 0.0720678 0.0601069 0.0711507
113 1 Mg -2.36269 89.9214 0.344737 1.2 1 0.0284411 0.0183743 0.0169688 0.0271876 0.0120857 0.0294237 0.0228701 0.0537543 0.0308305 0.0826892 0.0302982 0.0545242 0.0287044 0.0737667 0.028073 0.0946073 0.0578786 0.0953679 0.0605517 0.0800272
114 1 Mg 2.41045 93.0699 1.45029 1.2 1 0.0190028 0.0135206 0.016746 0.0223279 0.0142246 0.022667 0.0240054 0.0398051 0.0458765 0.0568637 0.0546984 0.0538976 0.0576486 0.055057 0.0825771 0.0708151 0.069126 0.0914018 0.0671466 0.0668462
115 2 Si -0.270021 91.0741 1.89787 2.4 1 0.0118069 0.0149788 0.0220452 0.0297865 0.0337701 0.0387293 0.0424241 0.0457846 0.0542649 0.0581371 0.0659628 0.0522433 0.0758965 0.0502692 0.0744628 0.0741471 0.064446 0.0885435 0.0613476 0.0598213
116 3 O 1.31985 91.0371 1.86566 -1.2 1 0.0132657 0.0235002 0.0185163 0.0171096 0.0282809 0.0346265 0.0216006 0.0734444 0.0456976 0.0646844 0.0450605 0.0702493 0.0465202 0.0720952 0.0695699 0.0621459 0.0748486 0.0675384 0.0726318 0.0682142
117 3 O -1.22164 94.9341 1.41955 -1.2 1 0.0130414 0.0237666 0.0213916 0.0207631 0.0181909 0.0357847 0.0469401 0.0444037 0.0445694 0.0475318 0.058096 0.0603648 0.047741 0.0754321 0.0886435 0.0798618 0.0719678 0.0633334 0.0684964 0.0670106
118 3 O -0.885123 91.9356 0.811896 -1.2 1 0.0243388 0.025624 0.018834 0.0245072 0.033344 0.032763 0.0349551 0.0521229 0.0465048 0.0428063 0.0610684 0.0494102 0.0659383 0.0634261 0.0740455 0.0723034 0.0892018 0.0704064 0.0599043 0.0648945
119 1 Mg -1.99538 100.328 2.88739 1.2 1 0.0125887 0.0236548 0.025047 0.0232896 0.0214958 0.0261705 0.031301 0.0511398 0.0572337 0.0524032 0.0441781 0.0470039 0.0370331 0.0552716 0.0678626 0.0835293 0.081195 0.0775259 0.0792287 0.0539692
120 3 O -0.892236 91.6874 3.28051 -1.2 1 0.0238138 0.00682577 0.0191223 0.027784 0.0347869 0.0262262 0.0475874 0.0445897 0.0484033 0.049695 0.0620138 0.0475775 0.0617944 0.065368 0.0823023 0.0698957 0.0783342 0.065139 0.0561876 0.0718026
121 1 Mg -2.22781 97.766 4.35336 1.2 1 0.0238339 0.00833473 0.0199878 0.0334143 0.0200853 0.0298103 0.0344874 0.0382089 0.0451074 0.0518066 0.0528016 0.07191 0.0561523 0.0650148 0.0719227 0.0683011 0.0857105 0.0898702 0.0661135 0.0832896
122 2 Si 0.674014 99.6161 4.45927 2.4 1 0.0165816 0.00997542 0.0179387 0.0318646 0.0253326 0.0352612 0.0395078 0.0456743 0.0597106 0.0528626 0.0456205 0.0655137 0.0782475 0.0582796 0.0682982 0.0690485 0.0625158 0.0791909 0.0626722 0.0578843
123 3 O -0.974071 99.7041 4.32439 -1.2 1 0.0245563 0.0274607 0.017291 0.0206836 0.0248927 0.0360505 0.0284552 0.0741023 0.0423206 0.0594331 0.0384115 0.0656767 0.0679549 0.0760023 0.077633 0.0675158 0.0625578 0.0672584 0.0602588 0.0550836
124 3 O 1.5503 95.8208 4.31417 -1.2 1 0.0174847 0.00784808 0.0305823 0.0374609 0.0150926 0.0295698 0.0440662 0.0486029 0.0616722 0.0331917 0.0597174 0.0522643 0.0665278 0.0773907 0.0884436 0.0827905 0.0705028 0.0612982 0.0760512 0.0533028
125 3 O 1.27158 98.8593 3.16938 -1.2 1 0.0159459 0.0209049 0.024439 0.0241363 0.0249651 0.0277839 0.0415647 0.0465135 0.0405005 0.047424 0.057856 0.0512524 0.0640707 0.0592162 0.0798229 0.0828993 0.0651262 0.0624705 0.0749127 0.069724