ITEM: TIMESTEP
83000
ITEM: NUMBER OF ATOMS
5600
ITEM: BOX BOUNDS xy xz yz pp pp pp
0	7.1235	0
0	201.985	2.3745
0	119.584	0
ITEM: ATOMS id type element xu yu zu q Q_1 Q_2 Q_3 Q_4 Q_5 Q_6 Q_7 Q_8 Q_9 Q_10 Q_11 Q_12 Q_13 Q_14 Q_15 Q_16 Q_17 Q_18 Q_19 Q_20 Q_21
1 1 Mg -1.51319 48.0936 -1.16801 1.2 1 0.441799 0.0659198 0.12176 0.0596064 0.0784759 0.0436523 0.0515632 0.0525041 0.0731524 0.082789 0.0872938 0.0914984 0.0875375 0.0833416 0.0956653 0.0943449 0.117869 0.119504 0.0914027 0.0918196
2 1 Mg 2.98105 50.7258 1.69408 1.2 1 0.212947 0.101131 0.0402448 0.0471175 0.0418609 0.0400912 0.0342313 0.0675785 0.059033 0.0564274 0.0675688 0.0681416 0.0625835 0.0699935 0.0843756 0.0776881 0.087765 0.0960922 0.0794984 0.0713711
3 2 Si 0.885398 49.4827 -0.016499 2.4 1 0.309577 0.112467 0.0417407 0.0682888 0.04292 0.050935 0.067134 0.0587561 0.0646176 0.0880639 0.04454 0.0743711 0.0619538 0.0716538 0.0749065 0.0778403 0.101586 0.0909018 0.0816838 0.0728645
4 3 O 1.81383 48.2882 0.361505 -1.2 1 0.43663 0.0595406 0.0938468 0.0679938 0.0553943 0.0857981 0.0690321 0.0793126 0.0744229 0.0663045 0.0618281 0.0598547 0.0775437 0.0915003 0.0819479 0.094308 0.0955286 0.0637731 0.0910888 0.0938888
5 3 O -1.41284 52.7027 1.10922 -1.2 1 0.0786791 0.0488647 0.0449659 0.018307 0.0221708 0.0313635 0.0486622 0.0506123 0.0743392 0.0611233 0.0489676 0.0537521 0.0717676 0.0768612 0.0839966 0.0631529 0.0720678 0.053642 0.0664485 0.0708519
6 3 O 0.115818 48.7847 -1.39531 -1.2 1 0.377078 0.0988507 0.0709175 0.0677338 0.0286046 0.0651854 0.0448251 0.0490293 0.0494633 0.0813638 0.0748513 0.0904847 0.0964951 0.0983672 0.0932125 0.0874873 0.090857 0.0712394 0.0807178 0.081496
7 1 Mg -2.21701 58.0216 2.8014 1.2 1 0.0154738 0.0252892 0.013868 0.0315145 0.0171774 0.0390341 0.0194763 0.0646141 0.0332392 0.0735975 0.0382888 0.0578091 0.0320488 0.0735808 0.0364676 0.102237 0.0379428 0.0996798 0.0516348 0.0848601
8 3 O -0.310799 49.9665 0.636246 -1.2 1 0.271124 0.113819 0.0266261 0.0500516 0.0375469 0.0457329 0.0608176 0.0554179 0.0781842 0.0875859 0.077936 0.0685274 0.0710465 0.089796 0.0784815 0.0781726 0.0752371 0.0901717 0.0809332 0.0882114
9 1 Mg -2.23493 55.1083 4.2354 1.2 1 0.00908156 0.0109898 0.0134285 0.0343703 0.0176646 0.0299444 0.0319821 0.036732 0.0503636 0.0584984 0.0565447 0.0598173 0.0565687 0.058678 0.0552215 0.0706107 0.0748735 0.0967645 0.0659778 0.0850457
10 2 Si 0.574852 57.1163 4.39905 2.4 1 0.0278677 0.0147277 0.026302 0.0390922 0.0147586 0.0297181 0.056692 0.0446204 0.0553846 0.063817 0.0442513 0.0692343 0.0798807 0.0560635 0.0858286 0.0550512 0.0532359 0.0817191 0.0643132 0.0648777
11 3 O -0.97344 57.1045 4.44048 -1.2 1 0.0243423 0.0428953 0.0157542 0.0214212 0.0268098 0.034819 0.0309205 0.0736826 0.0519678 0.0674278 0.0374338 0.0735731 0.0584947 0.0747117 0.0684005 0.06949 0.0592738 0.0818381 0.0606301 0.0727304
12 3 O 1.4847 53.3766 4.27269 -1.2 1 0.047667 0.045097 0.0305798 0.0225271 0.0269235 0.0377774 0.031281 0.0484462 0.0612604 0.0519314 0.0587959 0.0517728 0.0640467 0.0743673 0.0841385 0.0882925 0.0657076 0.0675346 0.0794114 0.0769498
13 3 O 1.11106 56.4315 3.22791 -1.2 1 0.0172427 0.02689 0.0274617 0.014547 0.0279282 0.0367244 0.0475518 0.0479494 0.0457238 0.0588107 0.0537204 0.0538495 0.0626387 0.0727276 0.0913499 0.0791855 0.0742564 0.0686358 0.073858 0.0687524
14 3 O 1.13084 56.5012 5.80606 -1.2 1 0.0106757 0.0159977 0.0259197 0.0147493 0.0388058 0.0296964 0.0601208 0.0505852 0.04863 0.0456431 0.0635048 0.0473642 0.0565711 0.0752563 0.076091 0.0764036 0.0711537 0.0640717 0.0728928 0.0604792
15 1 Mg 0.285914 52.9584 2.60828 1.2 1 0.0741686 0.0520948 0.0375978 0.0355921 0.0223643 0.0387641 0.03376 0.0684947 0.0485498 0.0646832 0.0428468 0.065972 0.0446691 0.0545695 0.0581739 0.0863382 0.0720788 0.0847368 0.0638109 0.0647741
16 1 Mg 0.614347 49.3531 2.77485 1.2 1 0.317302 0.114227 0.0408145 0.083746 0.0522097 0.0518695 0.0670552 0.0492103 0.0831941 0.0756161 0.0697119 0.085176 0.0569885 0.0637899 0.0849078 0.103192 0.0844537 0.0853696 0.0876988 0.0853749
17 2 Si 2.11183 51.8476 4.24368 2.4 1 0.114713 0.0834758 0.0541354 0.0308511 0.0169452 0.0375434 0.0380149 0.0469592 0.055868 0.0682822 0.0765017 0.0784933 0.071256 0.081974 0.0813355 0.0686044 0.0594286 0.0988424 0.0674546 0.0630287
18 3 O -1.08054 52.1183 4.31874 -1.2 1 0.121845 0.0804653 0.047666 0.0321191 0.021055 0.0306032 0.0638161 0.0523279 0.0390824 0.0700401 0.0546214 0.0784707 0.0601346 0.0697326 0.0854135 0.0845337 0.0821526 0.0846866 0.0789554 0.0804672
19 3 O 3.37044 49.3362 2.87708 -1.2 1 0.323287 0.122565 0.0523621 0.05629 0.0446796 0.0517326 0.0548858 0.0676172 0.0799881 0.0575131 0.0668583 0.0567225 0.0768324 0.0843268 0.0925869 0.0968383 0.0923283 0.0838972 0.0664186 0.114914
20 3 O 1.47686 51.2435 2.86376 -1.2 1 0.173721 0.0846512 0.049956 0.029792 0.0276897 0.0475988 0.0482279 0.0624736 0.0613551 0.0640419 0.0605799 0.0629907 0.076839 0.0774889 0.0873798 0.0689347 0.0827612 0.0839596 0.088269 0.0813898
21 1 Mg 0.233514 53.1866 -0.409398 1.2 1 0.0645375 0.0378211 0.0342791 0.0233464 0.0259167 0.0252284 0.0318875 0.0589883 0.0576885 0.063795 0.0457719 0.0574835 0.0612442 0.0668469 0.0704908 0.0804708 0.0802927 0.0827394 0.0732201 0.0702989
22 3 O 1.41911 50.9389 5.30247 -1.2 1 0.185655 0.100319 0.0291005 0.0281301 0.0266817 0.0411681 0.0401803 0.0772636 0.0606081 0.0535026 0.049526 0.0647372 0.0692061 0.0747855 0.0744243 0.0786325 0.0796743 0.0800144 0.0643743 0.0748393
23 1 Mg 0.0752034 55.8045 1.32975 1.2 1 0.0117128 0.0120078 0.0167404 0.0234928 0.0208815 0.0322256 0.0296821 0.0387522 0.0472567 0.0477627 0.0646469 0.0556004 0.0590354 0.0749843 0.0703476 0.0747481 0.0750948 0.0891848 0.0675244 0.0777899
24 2 Si -2.06764 54.1704 1.06448 2.4 1 0.0278671 0.0155003 0.0184534 0.0275891 0.0219805 0.0245462 0.0467562 0.0444966 0.0530637 0.0604088 0.0565626 0.0639871 0.0565636 0.0728371 0.0664979 0.0746142 0.0611898 0.0690437 0.0718567 0.0662099
25 3 O 1.1872 53.8201 1.20587 -1.2 1 0.0289293 0.03088 0.020913 0.0307415 0.0151077 0.035131 0.0319311 0.0593436 0.0510757 0.0531212 0.0532179 0.047674 0.0622014 0.0526223 0.0737445 0.0619204 0.0648083 0.068996 0.0713925 0.0668166
26 3 O -0.661185 57.7414 1.16739 -1.2 1 0.0174519 0.0241149 0.0211968 0.042786 0.0227256 0.0319219 0.0360131 0.0448011 0.0586679 0.0367069 0.0485149 0.0426603 0.068628 0.0739246 0.0971683 0.0742963 0.0776541 0.0720922 0.0659954 0.04727
27 3 O -1.22854 54.8555 -0.127832 -1.2 1 0.0238763 0.0254463 0.0199628 0.0326111 0.0208715 0.0321086 0.045487 0.0500782 0.0360422 0.0642044 0.0592709 0.0508391 0.0553663 0.0698608 0.0742804 0.0915162 0.0627997 0.0739377 0.0736595 0.0661956
28 3 O -1.28402 54.7043 2.50672 -1.2 1 0.0328009 0.0170989 0.0276333 0.0248468 0.0245572 0.0222104 0.0465958 0.0492319 0.0474035 0.048854 0.0587451 0.0497482 0.0714912 0.0603481 0.0737497 0.0827629 0.0689283 0.0637211 0.0675548 0.0772011
29 1 Mg -2.17496 58.3951 -0.178734 1.2 1 0.00531899 0.0196208 0.0128951 0.0367448 0.0151551 0.039975 0.0182028 0.0552182 0.0348588 0.0730981 0.0361901 0.044775 0.0308527 0.0731123 0.0366596 0.095865 0.0510959 0.099677 0.0555995 0.0870835
30 1 Mg 2.70566 61.4799 1.44891 1.2 1 0.0119045 0.014017 0.01399 0.0276489 0.0276473 0.0270974 0.0260572 0.032932 0.0470229 0.0541769 0.0562639 0.0704105 0.0638588 0.0575357 0.0812438 0.0516389 0.0855193 0.0921445 0.0710019 0.0666374
31 2 Si -0.115328 59.2335 1.3592 2.4 1 0.0214109 0.00668503 0.0276921 0.0381371 0.0405881 0.0291918 0.0403622 0.0325148 0.048789 0.0477317 0.0519122 0.0702758 0.0809544 0.0638467 0.0715444 0.0642256 0.0671701 0.0884165 0.0621628 0.0516499
32 3 O 1.38725 58.992 1.53401 -1.2 1 0.0197509 0.0184488 0.0156952 0.0266152 0.0303669 0.0304864 0.0330212 0.0572272 0.0470744 0.0492216 0.0528981 0.0663602 0.0491768 0.0631327 0.080266 0.0626093 0.0663101 0.0778761 0.0495722 0.0693738
33 3 O -0.946882 63.2331 1.50888 -1.2 1 0.0232817 0.0124363 0.0183224 0.0283787 0.0202292 0.0327874 0.040808 0.0432873 0.0667792 0.032431 0.0570397 0.0484266 0.0541727 0.0801759 0.107147 0.0677433 0.0787004 0.0549399 0.0736452 0.055069
34 3 O -0.911571 59.9423 0.14646 -1.2 1 0.00931229 0.00870598 0.0185427 0.0308446 0.024567 0.0272699 0.0441017 0.0478115 0.0368549 0.0396798 0.0590986 0.0430523 0.0634449 0.061999 0.0945756 0.0642312 0.0706961 0.0682388 0.0678476 0.0716472
35 1 Mg -2.29766 68.6035 2.92103 1.2 1 0.0098022 0.0174393 0.0120646 0.0367526 0.018668 0.0427385 0.0269803 0.057114 0.0245856 0.0738551 0.0370086 0.0424044 0.0380099 0.0671203 0.049758 0.085965 0.0599915 0.0990855 0.0551594 0.0753203
36 3 O -0.583238 59.9608 2.78266 -1.2 1 0.0296946 0.0218732 0.0203569 0.0270732 0.0354281 0.037517 0.0464092 0.0393408 0.040788 0.0485102 0.0548304 0.0405351 0.0619099 0.0791807 0.0703762 0.076229 0.0676537 0.0602758 0.0636934 0.0674239
37 1 Mg -1.89269 65.9472 4.58664 1.2 1 0.0145922 0.0232296 0.0244717 0.0291436 0.0172598 0.0367096 0.0319678 0.0438295 0.0565919 0.0567953 0.0741717 0.0550566 0.065872 0.0710939 0.0613886 0.0775032 0.0588163 0.0949153 0.0665061 0.0892535
38 2 Si 0.513647 67.8565 4.49056 2.4 1 0.0119483 0.0217217 0.0227417 0.0256218 0.0332922 0.0321627 0.0480967 0.0414729 0.0612701 0.0548089 0.0498371 0.0660208 0.062093 0.0598954 0.0841534 0.0402285 0.0637895 0.0822904 0.0602906 0.0741313
39 3 O -0.998838 67.9978 4.4414 -1.2 1 0.018494 0.0327179 0.0250674 0.0262042 0.0236421 0.0305777 0.0408286 0.0709731 0.0445183 0.0499825 0.0457044 0.069035 0.0502998 0.0819291 0.0706537 0.0665843 0.0546365 0.0755792 0.0553489 0.0753475
40 3 O 2.14425 63.7926 4.58364 -1.2 1 0.00464235 0.0164943 0.0190604 0.0361574 0.0263387 0.0374007 0.0346558 0.0475144 0.0689267 0.0438469 0.0497176 0.0498718 0.0589243 0.0811774 0.0829846 0.0851413 0.064563 0.054375 0.0668458 0.0545315
41 3 O 1.01866 67.0579 3.24381 -1.2 1 0.0223906 0.0300962 0.0226294 0.0193845 0.0287011 0.0307605 0.0565395 0.0398959 0.0415527 0.059306 0.0537352 0.0487842 0.0651993 0.069881 0.0672336 0.0761363 0.0862775 0.0739814 0.0672035 0.0696512
42 3 O 1.51078 67.1331 5.66533 -1.2 1 0.0129979 0.0230939 0.0296626 0.0297288 0.0255997 0.0253817 0.0503994 0.0387063 0.0408093 0.0356298 0.0523683 0.0463365 0.0599434 0.0554056 0.0896231 0.0569191 0.0921051 0.0615849 0.069508 0.0646345
43 1 Mg 0.587572 63.3623 2.98596 1.2 1 0.0140845 0.0199468 0.0168172 0.0286265 0.0123206 0.0412962 0.0211066 0.057513 0.025835 0.0743535 0.0360628 0.0523226 0.0460285 0.0694383 0.0446811 0.0900728 0.0684157 0.0911451 0.0569757 0.0784263
44 1 Mg 0.72253 60.4133 4.47015 1.2 1 0.0163927 0.0204759 0.0156137 0.0360351 0.016117 0.0424827 0.0328687 0.037821 0.0595359 0.0393483 0.0617647 0.0694139 0.0632797 0.071291 0.0690901 0.0659996 0.0837031 0.099386 0.0668616 0.074441
45 2 Si 2.72362 62.2686 4.65193 2.4 1 0.0155939 0.0180842 0.0173844 0.0173426 0.034709 0.0377417 0.0476803 0.0465586 0.0536828 0.0707402 0.0493679 0.066962 0.0735284 0.0652925 0.0675657 0.0688694 0.0776957 0.0686713 0.0668149 0.0620424
46 3 O -0.510629 62.4625 4.66081 -1.2 1 0.0312267 0.0135188 0.0233552 0.0198849 0.0282884 0.036025 0.029047 0.0793213 0.0368463 0.0602651 0.0452907 0.0567945 0.0550949 0.0708551 0.0708449 0.0692857 0.0581897 0.0656924 0.0664771 0.0707207
47 3 O 1.3151 58.624 4.36573 -1.2 1 0.00780832 0.0142105 0.0305727 0.0246341 0.021061 0.0331068 0.040464 0.048601 0.0551097 0.0434208 0.0548667 0.0619031 0.0532279 0.0716144 0.102562 0.0772187 0.0789275 0.060653 0.0624891 0.0587717
48 3 O 1.91135 61.7958 3.21147 -1.2 1 0.00692771 0.0167141 0.0222524 0.0149407 0.032969 0.0293014 0.046637 0.0419305 0.0313379 0.0576863 0.0499534 0.0365698 0.0517398 0.0923014 0.0686973 0.0834785 0.0729796 0.0612858 0.0616299 0.0743164
49 1 Mg 0.415813 63.5084 0.0641576 1.2 1 0.0192129 0.0118134 0.00993304 0.0323229 0.0125756 0.0398907 0.0235243 0.0721513 0.0271412 0.07811 0.0300205 0.050646 0.0261665 0.0624208 0.0360841 0.0972134 0.0454478 0.104374 0.0481669 0.084186
50 3 O 1.87817 61.4616 5.65089 -1.2 1 0.0171374 0.023365 0.026615 0.0251513 0.0270051 0.0276441 0.0560436 0.0462212 0.0350946 0.0386415 0.0573055 0.0510508 0.0631178 0.0684647 0.0678734 0.0865944 0.0641516 0.0634668 0.0674155 0.0685423
51 1 Mg 0.375864 66.5379 1.59993 1.2 1 0.0101325 0.0191704 0.0116562 0.0230789 0.0227075 0.0289235 0.0342386 0.0386583 0.046708 0.0670166 0.0513283 0.0573892 0.0703117 0.0717637 0.0636911 0.0665194 0.0769083 0.0941987 0.0691037 0.0693239
52 2 Si -1.71707 64.7006 1.49818 2.4 1 0.0271925 0.0182885 0.0261675 0.0224749 0.0307902 0.0361428 0.0407776 0.0407522 0.0452557 0.0523593 0.0641433 0.068945 0.0659185 0.0696178 0.0707994 0.0789589 0.060145 0.0882147 0.0648019 0.059705
53 3 O 1.52948 64.332 1.48682 -1.2 1 0.014736 0.0202347 0.023894 0.0189162 0.0270585 0.0247457 0.0348878 0.0727799 0.0428554 0.0515632 0.0547284 0.0663832 0.0559976 0.0641951 0.0784553 0.0703598 0.0585565 0.0854085 0.0570263 0.0795272
54 3 O -0.827842 68.1513 1.41598 -1.2 1 0.00682391 0.0190417 0.030139 0.0214734 0.0220402 0.0366237 0.040123 0.0515488 0.0483795 0.04864 0.0328467 0.0557806 0.0490399 0.0746745 0.0953082 0.0658343 0.0740556 0.0719832 0.0563865 0.0561705
55 3 O -0.993858 65.1781 0.145702 -1.2 1 0.0100007 0.016173 0.0203357 0.0219543 0.0269247 0.032921 0.0522577 0.0475449 0.0333724 0.0435915 0.0583597 0.0440313 0.0617422 0.0600929 0.0965826 0.0752104 0.0781132 0.0616755 0.0618615 0.0687636
56 3 O -1.05246 65.4258 2.72535 -1.2 1 0.0179853 0.0203105 0.0292234 0.0164349 0.0241948 0.0281647 0.0388466 0.046603 0.0402371 0.0493807 0.0537815 0.0463261 0.0571594 0.0603298 0.0770094 0.0755405 0.0717967 0.0705323 0.0851094 0.0686272
57 1 Mg -2.04828 68.9931 0.0704549 1.2 1 0.0105543 0.0285667 0.023263 0.0358715 0.0193614 0.0324455 0.0217174 0.0535641 0.0346999 0.0833172 0.0304091 0.0433978 0.0252977 0.0823755 0.0291742 0.0974461 0.0476601 0.109726 0.0557018 0.0861826
58 1 Mg 2.86896 71.8416 1.68251 1.2 1 0.0171664 0.00607659 0.0167569 0.0301404 0.0187635 0.0232636 0.0271938 0.0433464 0.0508207 0.0534064 0.061253 0.0581806 0.0566662 0.0585048 0.0779741 0.0677377 0.0668814 0.0982367 0.0596525 0.0816381
59 2 Si -0.0323125 69.5613 1.65998 2.4 1 0.0112385 0.0127153 0.0366046 0.0384703 0.0402292 0.030498 0.0467331 0.0391405 0.0478269 0.0583427 0.0443765 0.0629579 0.0656213 0.0694993 0.0772367 0.0683788 0.0696514 0.0880575 0.0544556 0.0587507
60 3 O 1.4311 69.3629 1.42739 -1.2 1 0.0312402 0.0171542 0.023731 0.0224815 0.0346859 0.0267216 0.037539 0.060297 0.0497762 0.0411867 0.0475694 0.0664245 0.0451759 0.0568564 0.0728724 0.0753293 0.070971 0.0708115 0.0632896 0.0649093
61 3 O -0.912002 73.6553 1.44775 -1.2 1 0.0060578 0.0261734 0.0209031 0.0227185 0.0298427 0.0336454 0.0490882 0.0445934 0.0494707 0.0441888 0.0511306 0.0513256 0.0549531 0.0687546 0.0895649 0.0734793 0.0734174 0.0584141 0.0743854 0.0558026
62 3 O -0.667474 70.5302 0.421712 -1.2 1 0.0292989 0.0257075 0.0285887 0.0291264 0.0351934 0.0343103 0.0460284 0.0420973 0.0334258 0.0443533 0.0625169 0.0448793 0.0571644 0.0610627 0.0758498 0.0750712 0.0803043 0.078465 0.0693941 0.0646324
63 1 Mg -2.51688 79.7105 3.27013 1.2 1 0.0150685 0.0198688 0.010109 0.024873 0.0157606 0.0372646 0.0253706 0.0594852 0.0377682 0.0726796 0.0258922 0.0473567 0.0370607 0.0623437 0.0421767 0.088697 0.0555459 0.0982169 0.0592354 0.0744406
64 3 O -0.771129 70.2143 2.8502 -1.2 1 0.019329 0.00902855 0.022021 0.0300769 0.0367197 0.0312735 0.0475143 0.0457294 0.0419871 0.0429416 0.0531298 0.0537418 0.0462417 0.0690382 0.0895853 0.0754229 0.0746349 0.0629577 0.0741731 0.0666257
65 1 Mg -2.04979 77.021 4.71705 1.2 1 0.0118201 0.0308891 0.0152205 0.0421389 0.0181585 0.0372084 0.0410639 0.0315628 0.0385827 0.0660681 0.0696567 0.0590359 0.0581996 0.0714339 0.068306 0.0919185 0.0728522 0.0808288 0.0618243 0.0793348
66 2 Si 0.284989 78.5982 4.62752 2.4 1 0.024525 0.0180257 0.0220945 0.0211257 0.0355602 0.0294304 0.0324384 0.0459715 0.0525793 0.0592132 0.0562814 0.0701215 0.060163 0.06251 0.0820178 0.0534059 0.0679588 0.0838497 0.0652513 0.0609951
67 3 O -1.28687 78.7525 4.55175 -1.2 1 0.010022 0.0218114 0.00445525 0.0214471 0.0231618 0.0313344 0.0272314 0.0690334 0.0537743 0.0554748 0.0353224 0.0730411 0.055564 0.0639212 0.0711512 0.074162 0.0638641 0.0832352 0.0543385 0.0801723
68 3 O 2.02204 74.4465 4.91363 -1.2 1 0.0209224 0.0389365 0.019256 0.0379551 0.0347803 0.0391698 0.0400382 0.0502173 0.0605527 0.043445 0.0593666 0.0490892 0.0654664 0.0751692 0.0912048 0.0780297 0.0729294 0.0621661 0.0706227 0.0615467
69 3 O 1.09088 77.9893 3.32382 -1.2 1 0.0293746 0.0252921 0.0252075 0.0208027 0.0305782 0.0326859 0.0453276 0.0491072 0.0422766 0.0424717 0.0534857 0.0429261 0.0541421 0.0575583 0.073935 0.0778189 0.0825798 0.0592759 0.0614578 0.0722232
70 3 O 1.06843 77.9165 5.90139 -1.2 1 0.0211757 0.00884343 0.0286022 0.0173491 0.0291538 0.0233781 0.0555055 0.0505095 0.0376099 0.0407739 0.0623167 0.0554366 0.0503365 0.0713656 0.0806143 0.0821497 0.0739164 0.0552795 0.0711004 0.0662135
71 1 Mg 0.452921 74.5315 3.45125 1.2 1 0.0144801 0.0117883 0.024371 0.0356014 0.0196284 0.0319818 0.0353195 0.0460808 0.053724 0.0541171 0.0426409 0.0527989 0.040301 0.0639389 0.0615964 0.0779617 0.0803731 0.0717346 0.0802486 0.0662752
72 1 Mg 0.489254 71.0232 4.51494 1.2 1 0.0279168 0.0117233 0.0252267 0.0356658 0.0103461 0.0443769 0.0282795 0.0373075 0.0477377 0.0473808 0.0548805 0.067148 0.0523479 0.0725394 0.075483 0.0594557 0.0802071 0.0869939 0.0651486 0.0811372
73 2 Si 2.60151 72.9482 4.76869 2.4 1 0.0326759 0.0154818 0.016312 0.0355183 0.0399597 0.0396241 0.0379435 0.0422824 0.0499652 0.0716803 0.0573429 0.0615021 0.0691883 0.058429 0.0658069 0.0696695 0.0654966 0.0752144 0.0730138 0.0656915
74 3 O -0.582018 73.0089 4.7371 -1.2 1 0.0126185 0.0227934 0.0227869 0.0284774 0.0322176 0.0301178 0.0214664 0.06869 0.0404326 0.0755749 0.0317642 0.0555454 0.0585609 0.0737252 0.0699398 0.0753548 0.0594766 0.064456 0.082155 0.0628671
75 3 O 1.1855 69.3439 4.31483 -1.2 1 0.0167359 0.0184359 0.0151182 0.0191083 0.033962 0.0359004 0.0422871 0.0556583 0.0513506 0.0451383 0.0496869 0.0563432 0.0561957 0.0706405 0.0873275 0.071677 0.0729568 0.0672701 0.0668543 0.0541074
76 3 O 2.06175 72.2122 3.46171 -1.2 1 0.0224126 0.0146078 0.0363716 0.0275638 0.035201 0.0242485 0.0443434 0.0519113 0.0462121 0.0509211 0.0505927 0.0456248 0.0519865 0.0747688 0.0787495 0.0865683 0.0686472 0.0554035 0.0712256 0.0723812
77 1 Mg 0.409803 74.1359 0.392456 1.2 1 0.0134518 0.018709 0.0150042 0.0348425 0.0185098 0.0387973 0.0248516 0.0618802 0.0319287 0.069151 0.0347872 0.0364834 0.0421515 0.0686558 0.0470808 0.0861171 0.0669215 0.0869721 0.0593585 0.0832091
78 3 O 1.78757 72.2893 6.00919 -1.2 1 0.0219061 0.01832 0.0223822 0.0161753 0.0370863 0.0298306 0.0580212 0.041515 0.0391299 0.0474038 0.060406 0.0467056 0.0531759 0.0760167 0.0744108 0.0762915 0.0641966 0.0608225 0.0544647 0.0664372
79 1 Mg 0.478196 77.111 1.72059 1.2 1 0.0224147 0.024558 0.0235895 0.0392792 0.0258505 0.0235414 0.036836 0.0332086 0.0510386 0.0530849 0.0710649 0.0616213 0.0523469 0.0646772 0.069894 0.0809222 0.0764425 0.0779432 0.0743482 0.0633669
80 2 Si -1.5203 75.0162 1.74438 2.4 1 0.0135332 0.0187039 0.0332875 0.0395031 0.0402021 0.0319873 0.0414713 0.0532298 0.0570581 0.0528751 0.0487688 0.0712397 0.063763 0.0655328 0.0766907 0.0620247 0.0715461 0.0906508 0.0482072 0.0706527
81 3 O 1.65561 74.9214 1.71299 -1.2 1 0.0365781 0.0216052 0.0201805 0.0309827 0.0250362 0.0368941 0.0372584 0.062228 0.0594302 0.0608125 0.0517645 0.073094 0.0447855 0.0639772 0.0777982 0.0752537 0.0664511 0.0822449 0.0609212 0.0775261
82 3 O -1.14885 79.3251 1.70271 -1.2 1 0.00995218 0.0216085 0.0198612 0.0260106 0.0127078 0.0320913 0.0470762 0.0386169 0.0606964 0.0434433 0.0571287 0.0477332 0.0481999 0.0684617 0.0955726 0.0664564 0.0795707 0.0512903 0.0818509 0.0669271
83 3 O -0.901465 75.8416 0.394554 -1.2 1 0.01845 0.0206754 0.0254863 0.0185269 0.032072 0.0219719 0.0528311 0.0459262 0.0462689 0.0507678 0.0589726 0.0471125 0.0580263 0.0632404 0.101134 0.059667 0.0659518 0.0624454 0.0623825 0.0611914
84 3 O -0.972778 75.8384 2.96408 -1.2 1 0.0109331 0.0250435 0.0192658 0.0266167 0.0385842 0.0294269 0.0382076 0.0519437 0.0438713 0.0514084 0.0510987 0.0607462 0.0586236 0.0562014 0.101778 0.0634585 0.0732532 0.0807521 0.069107 0.0677494
85 1 Mg -2.43849 79.5672 0.0912244 1.2 1 0.0193881 0.0192678 0.0216735 0.0371777 0.0228616 0.0441152 0.0184929 0.0688189 0.0229405 0.0765689 0.0209245 0.0536373 0.0294441 0.0786122 0.0343553 0.108742 0.0345148 0.105123 0.0403027 0.0844264
86 1 Mg 2.14041 82.4706 1.45377 1.2 1 0.0226881 0.0186482 0.0198387 0.0334469 0.0190981 0.0275658 0.0293772 0.0350142 0.0406366 0.0579783 0.0573041 0.050627 0.061054 0.0635077 0.0653407 0.0898483 0.0673547 0.0839725 0.0777961 0.0764714
87 2 Si -0.312759 80.6939 1.64076 2.4 1 0.0240486 0.0180722 0.0318336 0.0246076 0.035388 0.0380526 0.0323568 0.0491808 0.0516418 0.0552237 0.0547506 0.0533367 0.0616056 0.0587319 0.076186 0.0768603 0.0534395 0.0924187 0.0653774 0.066945
88 3 O 1.06997 80.5341 1.68886 -1.2 1 0.0306666 0.0269145 0.0163532 0.0175997 0.0276786 0.0323669 0.0230771 0.0820817 0.0502195 0.0536169 0.0472541 0.0691229 0.062185 0.0586045 0.0844288 0.0661046 0.0623964 0.0726181 0.0507331 0.0758184
89 3 O -1.71359 84.4341 1.35118 -1.2 1 0.0170613 0.0172042 0.0195815 0.0372054 0.0213229 0.0340011 0.0326435 0.0428748 0.058218 0.043657 0.0469875 0.0335929 0.0645389 0.0715338 0.0888121 0.0785352 0.0705523 0.0505923 0.0771339 0.065206
90 3 O -1.00731 81.3685 0.431691 -1.2 1 0.0190665 0.0201595 0.0320137 0.019606 0.0208755 0.0193569 0.0488732 0.0477178 0.0369659 0.0497962 0.0500932 0.0469572 0.0559189 0.0524164 0.0804168 0.0792374 0.0699076 0.0637962 0.065127 0.0612784
91 1 Mg -2.572 90.2487 2.95573 1.2 1 0.00819497 0.0149728 0.019389 0.0336642 0.0199738 0.0451692 0.020316 0.0595729 0.0217059 0.0766841 0.028801 0.0574227 0.0305582 0.0618582 0.0334123 0.0987532 0.0475099 0.0980723 0.0440105 0.0745604
92 3 O -1.16061 81.6099 2.92771 -1.2 1 0.0324851 0.0191413 0.0270947 0.0206118 0.0228753 0.0237358 0.0432862 0.0538381 0.0455036 0.0538427 0.0562594 0.0399786 0.060431 0.0677392 0.0780312 0.0865093 0.0649739 0.0747952 0.0614427 0.0468314
93 1 Mg -2.32767 87.3688 4.6353 1.2 1 0.0310892 0.0119785 0.0184075 0.027304 0.0227731 0.0329931 0.0282332 0.0305427 0.0462608 0.0599292 0.0625367 0.0507732 0.0526675 0.0626757 0.0673675 0.0848284 0.0628493 0.0911444 0.0720113 0.0836245
94 2 Si 0.238607 89.1642 4.57199 2.4 1 0.0221182 0.0103692 0.0233775 0.0321349 0.0349155 0.0367175 0.0457648 0.044215 0.059341 0.0598226 0.0463571 0.0657847 0.0754564 0.0589473 0.0775325 0.0697714 0.0602057 0.0915509 0.0622805 0.0507036
95 3 O -1.39094 89.2014 4.63554 -1.2 1 0.0297402 0.0250417 0.0153547 0.0253325 0.0232542 0.0318551 0.0278409 0.0788208 0.0344464 0.0622058 0.0407862 0.0680634 0.0575034 0.0757268 0.0751602 0.0710859 0.0557408 0.0694984 0.0583737 0.0737524
96 3 O 1.29049 85.2119 4.66821 -1.2 1 0.0168879 0.00970951 0.0252472 0.0220428 0.0198938 0.0318474 0.0366021 0.041558 0.0632998 0.0438907 0.0512585 0.04758 0.0524372 0.0713309 0.0958366 0.0787072 0.071672 0.0519906 0.0797689 0.0664068
97 3 O 0.985395 88.5659 3.18431 -1.2 1 0.0138852 0.0230811 0.023138 0.0225475 0.0314797 0.0268881 0.0469244 0.0414642 0.0494515 0.0386492 0.0626344 0.0405997 0.0549103 0.0546283 0.0938218 0.078096 0.0676249 0.062399 0.0628363 0.0774562
98 3 O 1.03287 88.4205 5.73362 -1.2 1 0.0245659 0.023354 0.0248592 0.0182676 0.0309593 0.0252932 0.0484794 0.0413954 0.0420804 0.039646 0.0566308 0.0449253 0.0585295 0.0667771 0.0892337 0.0778015 0.0778022 0.0729422 0.0571773 0.0612218
99 1 Mg -0.247597 84.7039 3.37435 1.2 1 0.012997 0.0167549 0.0181265 0.0253657 0.0128566 0.0383049 0.0244405 0.0578602 0.0341315 0.0800248 0.0342658 0.0469368 0.0391584 0.0680717 0.0432817 0.0965644 0.059757 0.100275 0.0568042 0.0747961
100 1 Mg -0.188225 81.9018 4.62111 1.2 1 0.0192278 0.0250464 0.0120503 0.0289922 0.0175797 0.0336383 0.0286209 0.0381085 0.0404823 0.065276 0.0541554 0.0586092 0.0630429 0.0644176 0.0727513 0.083063 0.0604204 0.0857817 0.0811769 0.0690022
101 2 Si 1.97813 83.6177 4.61128 2.4 1 0.016758 0.0142878 0.0242649 0.0273457 0.0327336 0.0292943 0.0364156 0.0444481 0.0524387 0.0565122 0.0577352 0.0722384 0.0615931 0.0697872 0.0748627 0.081099 0.0555036 0.0832775 0.071313 0.0600495
102 3 O -1.31587 83.8461 4.6985 -1.2 1 0.0224648 0.0240697 0.0236881 0.0249107 0.0230606 0.027549 0.0252632 0.069393 0.0382085 0.0519573 0.0446666 0.068335 0.065576 0.0686429 0.0766097 0.064993 0.0590826 0.080708 0.0595782 0.0586712
103 3 O 0.871343 80.1039 4.61841 -1.2 1 0.0203646 0.0167473 0.0301365 0.0195102 0.0205918 0.0422488 0.0367236 0.050709 0.0608854 0.0493832 0.0506266 0.0489886 0.0597948 0.068847 0.101317 0.077547 0.0630999 0.0548108 0.0706434 0.0629025
104 3 O 1.2378 83.1872 3.37143 -1.2 1 0.0178473 0.0197598 0.0245325 0.0231326 0.0254506 0.0238879 0.0524381 0.0529664 0.0478235 0.0488187 0.0567468 0.0393709 0.063956 0.0663832 0.0973545 0.0698781 0.0783481 0.0671198 0.069864 0.0682583
105 1 Mg -0.0594847 85.0427 0.0792779 1.2 1 0.0105674 0.0139545 0.00899169 0.0345405 0.0145059 0.0365828 0.0153633 0.0587781 0.0184469 0.0732132 0.02268 0.0492334 0.026939 0.0731889 0.0340889 0.100694 0.0453833 0.10285 0.0394002 0.089654
106 3 O 1.17327 82.8903 5.81059 -1.2 1 0.0105093 0.022594 0.0225439 0.0176298 0.0275628 0.027815 0.0414053 0.054638 0.0446412 0.0526662 0.061822 0.0355403 0.0507028 0.0547875 0.070807 0.0795552 0.0630335 0.0621893 0.0626913 0.0546176
107 1 Mg -0.0619928 87.9344 1.60764 1.2 1 0.0104927 0.0168454 0.0154086 0.0352065 0.0241357 0.0288838 0.0279831 0.0356699 0.0422451 0.0618041 0.0579314 0.0579677 0.0582006 0.0716662 0.0706341 0.0739754 0.0782468 0.0903732 0.0766304 0.0767003
108 2 Si -2.12837 86.1279 1.60385 2.4 1 0.0247723 0.0225817 0.0150317 0.0166082 0.0299477 0.0348408 0.0315658 0.0445848 0.0555554 0.0529775 0.0437872 0.0722906 0.0638349 0.0584177 0.0563006 0.0787789 0.0604704 0.100922 0.049015 0.06143
109 3 O 0.984908 86.0496 1.7227 -1.2 1 0.0197906 0.0298338 0.0175334 0.018551 0.0292673 0.0257604 0.0223464 0.0770364 0.0389821 0.0694414 0.0365626 0.064137 0.0678424 0.0679021 0.0810357 0.0656272 0.0623225 0.0574838 0.0726776 0.0720267
110 3 O -1.19314 89.9641 1.67359 -1.2 1 0.0106157 0.0172193 0.0309309 0.025336 0.0151618 0.0310745 0.0371545 0.0461982 0.0567357 0.0409175 0.0530189 0.0400772 0.0605604 0.0828161 0.0966012 0.0656284 0.0849742 0.049616 0.0745774 0.0505371
111 3 O -1.43999 86.7528 0.188979 -1.2 1 0.0132992 0.0147877 0.0240385 0.0276363 0.0201184 0.0236233 0.04504 0.0570831 0.043159 0.0439455 0.0538852 0.0355948 0.0562732 0.072966 0.0909872 0.0789048 0.0641428 0.0720488 0.0516361 0.0657007
112 3 O -1.46382 86.5746 2.89258 -1.2 1 0.0126289 0.0105935 0.0309693 0.0263734 0.023678 0.0281877 0.0407914 0.0518591 0.0355307 0.0422339 0.0498595 0.0475342 0.0492973 0.0647368 0.0935859 0.064353 0.0726277 0.0656683 0.0591109 0.0801179
113 1 Mg -2.66213 90.6598 0.147584 1.2 1 0.0197988 0.0200794 0.0269791 0.0268764 0.0200191 0.0322901 0.0299931 0.0594933 0.0475382 0.0644588 0.03912 0.0509385 0.038827 0.0625888 0.054104 0.097867 0.0735065 0.0790362 0.075175 0.0581235
114 1 Mg 2.4631 93.5512 1.6108 1.2 1 0.0111696 0.0137877 0.0150301 0.0300395 0.0217143 0.027013 0.0321042 0.0411344 0.0514572 0.0525908 0.0519376 0.0630154 0.0601685 0.0584244 0.0817674 0.0566747 0.0800318 0.0897236 0.0729303 0.0809771
115 2 Si -0.536192 91.4291 1.76577 2.4 1 0.0203144 0.0186541 0.0162677 0.0367861 0.0343857 0.0426627 0.0366719 0.0452943 0.0621878 0.050359 0.050356 0.0712057 0.0763281 0.0570429 0.0792865 0.0678677 0.0723824 0.0869819 0.064476 0.0524931
116 3 O 1.01414 91.3889 1.68316 -1.2 1 0.0334472 0.0226385 0.0204198 0.0163149 0.0301771 0.0333396 0.0225244 0.077599 0.0480339 0.0682654 0.0379277 0.0681802 0.0675359 0.0604052 0.0832352 0.0584575 0.0548815 0.0666231 0.0627942 0.0609753
117 3 O -1.40485 95.3806 1.56021 -1.2 1 0.0133096 0.0150503 0.0196401 0.0366335 0.0133091 0.0358162 0.0387658 0.0436244 0.0583283 0.0321596 0.0527897 0.0470634 0.0620961 0.0792909 0.099486 0.0772924 0.0662038 0.0523564 0.0815839 0.0582516
118 3 O -1.31224 92.3074 0.475072 -1.2 1 0.0178427 0.014542 0.0265309 0.0217336 0.026331 0.0377414 0.0404195 0.0413875 0.0350568 0.0567618 0.0565882 0.0493628 0.0659463 0.0643373 0.0836991 0.0856332 0.0554512 0.0747129 0.0508618 0.0592054
119 1 Mg -2.23162 100.804 2.90194 1.2 1 0.00671511 0.0215382 0.0110594 0.0323518 0.016435 0.0344165 0.0260468 0.0565032 0.0224054 0.0765453 0.0270462 0.0627302 0.0223615 0.0777086 0.0379102 0.102539 0.0547306 0.0980509 0.0482776 0.0828788
120 3 O -1.22244 92.1824 3.09546 -1.2 1 0.0262459 0.023957 0.0186255 0.0193346 0.023029 0.0259475 0.0360472 0.0477883 0.0394871 0.0510693 0.0608711 0.0341771 0.0568017 0.0504768 0.0847566 0.0906742 0.0598539 0.062038 0.0581143 0.0692043
121 1 Mg -2.29101 97.9947 4.54287 1.2 1 0.0175376 0.0255114 0.020222 0.0370428 0.0144471 0.0259908 0.0327305 0.0346023 0.0507446 0.0582924 0.0552435 0.0549369 0.0593831 0.06246 0.0596015 0.0853882 0.0605506 0.0912775 0.0662999 0.090771
122 2 Si 0.525917 99.7403 4.52154 2.4 1 0.0131466 0.0245217 0.0224609 0.0342282 0.0358387 0.0314722 0.041696 0.0507942 0.0555486 0.0540456 0.048067 0.0664528 0.0644884 0.057278 0.0814462 0.0709776 0.0570942 0.0882465 0.0601578 0.0617717
123 3 O -1.04018 99.9567 4.62025 -1.2 1 0.0230122 0.025038 0.0172249 0.0220547 0.0265209 0.0278718 0.0358384 0.0732574 0.0434788 0.0534657 0.0564392 0.0666197 0.0589752 0.0674357 0.0696386 0.0741845 0.0587246 0.0806348 0.0546185 0.0536424
124 3 O 1.32494 96.1007 4.51955 -1.2 1 0.0135627 0.0222397 0.0265268 0.0298656 0.0218447 0.0383632 0.0411802 0.0450924 0.050023 0.0384491 0.0456936 0.0558202 0.0608936 0.0714479 0.101093 0.077374 0.0763592 0.0612956 0.0736239 0.0662068
125 3 O 1.24568 99.1621 3.27183 -1.2 1 0.0176763 0.00927199 0.0323343 0.0228387 0.0223652 0.0274417 0.0513147 0.0441863 0.0403655 0.0377612 0.0623853 0.0361901 0.0606202 0.0617765 0.101067 0.0690506 0.0823701 0.0673823 0.0606622 0.0683747