ITEM: TIMESTEP
98200
ITEM: NUMBER OF ATOMS
5600
ITEM: BOX BOUNDS xy xz yz pp pp pp
0	7.1235	0
0	201.985	2.3745
0	119.584	0
ITEM: ATOMS id type element xu yu zu q Q_1 Q_2 Q_3 Q_4 Q_5 Q_6 Q_7 Q_8 Q_9 Q_10 Q_11 Q_12 Q_13 Q_14 Q_15 Q_16 Q_17 Q_18 Q_19 Q_20 Q_21
1 1 Mg -0.603756 46.6677 -1.23773 1.2 1 0.473622 0.0442374 0.135232 0.0555041 0.0857609 0.0498703 0.0855169 0.0457595 0.0819604 0.0695427 0.066692 0.0655106 0.0868944 0.106908 0.108167 0.104352 0.103338 0.104334 0.0870676 0.110347
2 1 Mg 3.81257 48.8088 1.38113 1.2 1 0.253212 0.133429 0.0351953 0.0463339 0.0584079 0.0493115 0.0810965 0.0684573 0.0731914 0.0986191 0.0581901 0.0876828 0.0688019 0.0561586 0.0856631 0.0863555 0.0789938 0.0903267 0.0950715 0.0860056
3 2 Si 1.74783 48.1391 -0.0265339 2.4 1 0.317873 0.117246 0.0403019 0.0764777 0.0432896 0.0622629 0.0680634 0.0823239 0.0638704 0.0896861 0.0553233 0.0933744 0.0798289 0.0718671 0.0906225 0.0769014 0.0940278 0.091748 0.0830583 0.0812789
4 3 O 3.26598 47.3649 0.158426 -1.2 1 0.40598 0.0830939 0.0906788 0.0710565 0.0526901 0.0742637 0.0476987 0.0854845 0.0679542 0.092269 0.100624 0.076448 0.0721361 0.0745868 0.0911664 0.107996 0.111387 0.0823488 0.0836287 0.0900463
5 3 O -1.10102 51.3094 1.62163 -1.2 1 0.105996 0.0447909 0.0532418 0.0289624 0.0368539 0.0263046 0.0603801 0.0391078 0.0594474 0.0627595 0.0706053 0.063344 0.0714228 0.0635278 0.0713482 0.0681699 0.0818088 0.0669439 0.065208 0.0691068
6 3 O 1.21353 47.4616 -1.23317 -1.2 1 0.402554 0.0776903 0.0706374 0.0757834 0.0569929 0.0862911 0.0649706 0.0688302 0.066675 0.0838951 0.0670326 0.0743853 0.0905931 0.0953677 0.10564 0.0967928 0.0903679 0.0749482 0.0691508 0.0796474
7 1 Mg -1.76284 57.8566 3.30352 1.2 1 0.0205277 0.00900709 0.0222427 0.026027 0.0226033 0.0401574 0.0256128 0.055238 0.047719 0.0641942 0.0355983 0.0477017 0.0411683 0.0664217 0.0544448 0.0905043 0.056255 0.0963681 0.0768588 0.0773766
8 3 O 0.860745 48.1055 1.15207 -1.2 1 0.331748 0.119185 0.0450234 0.072023 0.055858 0.0556933 0.0764451 0.0687063 0.079715 0.0835327 0.0785861 0.0726051 0.0611935 0.0717815 0.0894032 0.0756701 0.0820425 0.0924424 0.0837417 0.0712063
9 1 Mg -1.75119 54.6538 4.56248 1.2 1 0.0175314 0.0202474 0.0268049 0.0324215 0.0193748 0.0334585 0.0324922 0.0314241 0.0512961 0.0498352 0.0720119 0.059714 0.0661234 0.0651148 0.0618801 0.0771302 0.0611774 0.0957166 0.0619832 0.0758615
10 2 Si 0.970829 56.4082 4.39705 2.4 1 0.0230074 0.037576 0.0286269 0.0242006 0.0547258 0.0242995 0.0321645 0.0483037 0.0487135 0.0426706 0.059953 0.065461 0.0758775 0.0582654 0.0741374 0.0802689 0.0592968 0.0908508 0.0597293 0.0667838
11 3 O -0.503115 56.7599 4.48148 -1.2 1 0.0161476 0.0211847 0.0219784 0.020161 0.0245887 0.0306247 0.0291353 0.0669162 0.0513525 0.0442775 0.0450742 0.0763734 0.0611335 0.0719657 0.0681008 0.075014 0.0662077 0.0841383 0.0628786 0.0739659
12 3 O 2.44648 52.3748 4.68708 -1.2 1 0.0598009 0.0303837 0.0476361 0.0237743 0.026257 0.0334061 0.0391455 0.0406214 0.06617 0.0622742 0.0531671 0.0643218 0.062809 0.0892054 0.0657454 0.0708316 0.0683619 0.0762835 0.0725641 0.0688406
13 3 O 1.33745 55.8018 3.10347 -1.2 1 0.0274855 0.00575602 0.031435 0.0231238 0.0375317 0.0366056 0.0359649 0.0493588 0.0528283 0.069501 0.0594675 0.051373 0.0437001 0.0843993 0.0715408 0.08588 0.0627431 0.0715375 0.0542215 0.067874
14 3 O 1.73942 55.8295 5.76046 -1.2 1 0.0226974 0.0240336 0.0389818 0.0226223 0.0220574 0.030287 0.0495456 0.049288 0.0404758 0.0473025 0.0618408 0.035759 0.0486371 0.0679386 0.0895878 0.0718559 0.0738175 0.0622683 0.0674077 0.0678252
15 1 Mg 0.614006 51.1648 2.69824 1.2 1 0.115261 0.0643901 0.0523358 0.0254083 0.0253607 0.0484923 0.0465838 0.054454 0.0751472 0.0393565 0.0484531 0.0614799 0.0513847 0.0576008 0.0707598 0.081697 0.0857542 0.0874716 0.0909424 0.0779399
16 1 Mg 1.33751 47.7919 3.19494 1.2 1 0.375655 0.10279 0.0744218 0.0681498 0.0377215 0.0892263 0.0521307 0.0976302 0.0685879 0.11374 0.0626773 0.0873893 0.0703582 0.0777702 0.066084 0.105552 0.0888391 0.119621 0.0743804 0.115685
17 2 Si 2.96461 50.6169 4.53486 2.4 1 0.124346 0.103611 0.0491227 0.0393724 0.0339202 0.0492004 0.0425524 0.0418386 0.0758624 0.0689793 0.0937287 0.058792 0.0683934 0.0678055 0.0859832 0.0736281 0.081261 0.094902 0.0805286 0.0701736
18 3 O -0.210316 50.957 4.58992 -1.2 1 0.112725 0.100409 0.0378512 0.0243073 0.0256145 0.0389569 0.0340065 0.0677964 0.0669096 0.0790333 0.0584628 0.0741779 0.0718008 0.0716702 0.0751299 0.0809823 0.0809382 0.0788702 0.0832618 0.0524197
19 3 O 3.69004 47.8356 3.25406 -1.2 1 0.363062 0.11959 0.0826152 0.0659205 0.0382383 0.0694632 0.0685703 0.100498 0.0501431 0.0909677 0.064296 0.093704 0.0496152 0.0978768 0.0914199 0.105209 0.101598 0.0914768 0.0869103 0.114797
20 3 O 2.23071 49.8935 3.24428 -1.2 1 0.190652 0.113262 0.021057 0.0377492 0.0280388 0.0581311 0.0375864 0.0740691 0.0520963 0.0764303 0.0646005 0.0601981 0.0815459 0.0682587 0.0791532 0.0832903 0.076798 0.0815749 0.0886069 0.0910773
21 1 Mg 0.395192 52.2202 -0.0300254 1.2 1 0.0568048 0.0398956 0.0414111 0.0197926 0.0288139 0.031073 0.0440337 0.0611957 0.0566293 0.0530557 0.0505089 0.0583777 0.0525577 0.0521749 0.0735291 0.0876224 0.070007 0.0828078 0.0742594 0.0747013
22 3 O 2.09392 49.9588 5.95526 -1.2 1 0.195184 0.114215 0.0227459 0.0539532 0.03853 0.03074 0.0370385 0.0752826 0.0517904 0.0654507 0.0511185 0.0652801 0.0588033 0.0565383 0.076507 0.0755695 0.0675502 0.0618178 0.0711666 0.0835459
23 1 Mg 0.466993 54.9326 1.48983 1.2 1 0.0212253 0.0220083 0.0212355 0.0286154 0.0226624 0.0314379 0.0396852 0.0324492 0.0495302 0.0578189 0.0621047 0.0601722 0.055958 0.0714668 0.0765541 0.0856184 0.0664889 0.0805195 0.0622014 0.0783666
24 2 Si -1.46783 52.9433 1.5971 2.4 1 0.020899 0.0120302 0.0371645 0.0292395 0.0389565 0.0411689 0.0413401 0.0563359 0.0529332 0.0554242 0.0632256 0.050241 0.0832397 0.0502581 0.0653043 0.0606891 0.0673591 0.0839776 0.0679092 0.0748176
25 3 O 1.50464 52.7983 1.60252 -1.2 1 0.0326598 0.0211457 0.0388912 0.0215191 0.0209298 0.0447701 0.0257379 0.0564483 0.0592652 0.0508297 0.0572384 0.0550242 0.0539197 0.0696134 0.0678761 0.0856782 0.073044 0.0696276 0.0502127 0.0867547
26 3 O -0.603613 57.18 1.74191 -1.2 1 0.0233243 0.0192632 0.0150123 0.0235975 0.0175717 0.0292473 0.0439854 0.0513574 0.0478387 0.0464538 0.0561412 0.061076 0.054143 0.0763812 0.069945 0.0731489 0.0898747 0.0622744 0.0748254 0.060654
27 3 O -0.921387 53.6795 0.0571202 -1.2 1 0.0352624 0.013385 0.0221148 0.0288563 0.0340319 0.0313102 0.0384652 0.0483839 0.0485067 0.0471205 0.0747207 0.0519035 0.045984 0.067622 0.0897037 0.0575902 0.0785569 0.0699126 0.0603732 0.0754978
28 3 O -0.920106 53.9406 2.65285 -1.2 1 0.00822641 0.018699 0.0252466 0.0363516 0.025856 0.0257925 0.0387669 0.0525815 0.0389183 0.0441638 0.0583983 0.048957 0.0597806 0.0771126 0.0583861 0.0740878 0.0866119 0.0748599 0.0739156 0.0636482
29 1 Mg -1.82237 57.9259 0.456525 1.2 1 0.0166236 0.029758 0.0186815 0.041281 0.015516 0.0391981 0.0258775 0.0647651 0.0417799 0.060091 0.0491104 0.0477988 0.0425811 0.0707951 0.0601107 0.0950154 0.0636244 0.0852397 0.0563985 0.0745264
30 1 Mg 2.65739 60.6968 1.4134 1.2 1 0.0117446 0.0205003 0.0222467 0.0286827 0.0181303 0.0357091 0.0328668 0.035962 0.0500598 0.0590245 0.068081 0.0563297 0.0630394 0.0640918 0.0728529 0.0807109 0.074646 0.0823801 0.0705307 0.0841651
31 2 Si 0.174776 58.6457 1.7097 2.4 1 0.0285861 0.0184081 0.018026 0.0290547 0.0444399 0.0320698 0.0422974 0.0434497 0.0603747 0.0668919 0.0476292 0.0595595 0.0615763 0.0612057 0.0780179 0.0667848 0.0715919 0.0718582 0.0735561 0.0641129
32 3 O 1.73262 58.7314 1.78177 -1.2 1 0.015837 0.0301614 0.0183594 0.0286519 0.0361392 0.0307008 0.0332913 0.0697289 0.0396803 0.06869 0.0387418 0.0645081 0.0580089 0.0775677 0.0758488 0.0727629 0.0656002 0.0732137 0.0550458 0.0643929
33 3 O -0.998255 62.7427 1.53297 -1.2 1 0.0114285 0.0256422 0.0209567 0.0340224 0.0249116 0.0330537 0.0461623 0.0431621 0.057995 0.0404412 0.0563764 0.0453913 0.063298 0.0778242 0.0812773 0.0739278 0.0788897 0.0649881 0.0663168 0.0566929
34 3 O -0.44196 59.4889 0.505485 -1.2 1 0.0295159 0.0258585 0.0228525 0.0267059 0.0350363 0.0272591 0.0525673 0.0416684 0.0510612 0.0553771 0.0657023 0.0513632 0.0626502 0.0580144 0.0825189 0.070154 0.0820691 0.0676263 0.057656 0.0735565
35 1 Mg -1.99066 68.7598 3.08806 1.2 1 0.0170858 0.0247935 0.0218152 0.0290523 0.0210268 0.0345296 0.019559 0.0567843 0.0288684 0.0721927 0.038635 0.0456306 0.0312453 0.0677579 0.040096 0.0915328 0.0391956 0.102879 0.0434009 0.0755682
36 3 O -0.210041 59.3582 3.05297 -1.2 1 0.0190194 0.0217647 0.0279976 0.0255625 0.0259993 0.0275511 0.0456162 0.0465863 0.0528944 0.0620833 0.0586706 0.0589332 0.0497684 0.0722441 0.0700694 0.0818408 0.0682064 0.0683261 0.063344 0.0729804
37 1 Mg -2.27235 65.6229 4.49466 1.2 1 0.0194577 0.0199119 0.0165329 0.031003 0.0138454 0.041805 0.028052 0.0307095 0.047472 0.0551095 0.0677416 0.0531262 0.0509937 0.0641895 0.0718978 0.0730543 0.0784843 0.0939247 0.0552333 0.0870614
38 2 Si 0.404483 67.4734 4.38011 2.4 1 0.0227251 0.0152838 0.0161668 0.0138319 0.0410064 0.0332518 0.0317653 0.0481114 0.051953 0.0653724 0.0525517 0.0612727 0.0671694 0.0630341 0.0695705 0.0726565 0.0792752 0.0831065 0.0668078 0.0703316
39 3 O -1.12634 67.5661 4.35196 -1.2 1 0.0207179 0.0195072 0.0138702 0.0203051 0.0292576 0.0301957 0.0187572 0.0754275 0.0299255 0.0653505 0.0386008 0.0678014 0.0645956 0.0667905 0.0689583 0.0680465 0.0680845 0.069957 0.0583013 0.0564878
40 3 O 1.70633 63.526 4.6088 -1.2 1 0.00625127 0.0296162 0.0197772 0.0329055 0.0203089 0.0231265 0.0444276 0.0379814 0.0612671 0.0434222 0.0556964 0.0426887 0.0639231 0.0838758 0.0831594 0.0684678 0.0724009 0.0664327 0.0800479 0.0546018
41 3 O 1.27085 66.9045 3.18459 -1.2 1 0.00865543 0.0137286 0.0215716 0.0239107 0.033512 0.0249134 0.0500432 0.0512131 0.0451879 0.0402632 0.0647686 0.0459504 0.0642252 0.0576327 0.0892537 0.0698314 0.0762704 0.0631811 0.0541203 0.0802934
42 3 O 0.891918 66.9353 5.80431 -1.2 1 0.025709 0.00895062 0.0361382 0.0161168 0.0331992 0.0257784 0.0567535 0.0471779 0.0496219 0.0502992 0.0495942 0.0438663 0.0543082 0.0822181 0.059745 0.087545 0.0711374 0.0541899 0.0641421 0.0733845
43 1 Mg 0.362851 63.2025 2.96675 1.2 1 0.00681799 0.0184543 0.00890944 0.041169 0.0119868 0.0429952 0.0116638 0.0624845 0.0238522 0.070967 0.0198132 0.0515965 0.0251847 0.0655689 0.0362246 0.101981 0.0381068 0.100685 0.0382642 0.0875803
44 1 Mg 0.655373 59.9325 4.70124 1.2 1 0.0223862 0.011817 0.0286112 0.0333076 0.0192764 0.0343558 0.0397054 0.0387895 0.0497325 0.0502349 0.0621197 0.0580873 0.0611981 0.0689347 0.0745849 0.0622184 0.0688812 0.0892853 0.063385 0.081837
45 2 Si 2.35398 62.0943 4.49874 2.4 1 0.0296982 0.0152351 0.0182993 0.0218314 0.036462 0.0413826 0.0420093 0.0471828 0.0474496 0.0527317 0.0483029 0.0727795 0.0787762 0.0532685 0.0782182 0.0619938 0.0634065 0.0922233 0.0729594 0.0596452
46 3 O -0.86164 62.0767 4.38316 -1.2 1 0.0206795 0.0292365 0.0220185 0.0244568 0.0324881 0.0283651 0.0299529 0.0758053 0.0489213 0.0726396 0.0412366 0.0710851 0.0708745 0.0775683 0.0851702 0.0616124 0.0633711 0.0656481 0.0606514 0.0599609
47 3 O 1.72544 58.0712 4.61802 -1.2 1 0.0193703 0.0138903 0.021267 0.0285274 0.020325 0.0395609 0.0488894 0.0398732 0.0459399 0.0492297 0.0556788 0.046356 0.0580433 0.0801227 0.0888354 0.0724667 0.0901655 0.0519149 0.0711313 0.0598285
48 3 O 1.74027 61.375 3.2057 -1.2 1 0.0206781 0.0203303 0.0168666 0.0211479 0.0390841 0.0255207 0.0417757 0.0511973 0.0421731 0.0457132 0.0668086 0.0475935 0.0607685 0.0593004 0.0936293 0.0696696 0.0707073 0.0603007 0.0656495 0.0856466
49 1 Mg 0.353264 63.0347 0.120099 1.2 1 0.0118147 0.0156698 0.012358 0.0379215 0.0202431 0.0309778 0.0322978 0.0636623 0.030503 0.0673289 0.0287663 0.0500047 0.0305322 0.0627526 0.0392028 0.101793 0.0472676 0.103261 0.0469847 0.0713785
50 3 O 1.69406 61.233 5.65786 -1.2 1 0.0115588 0.0173702 0.0206894 0.0249158 0.033507 0.0206887 0.0487652 0.0473619 0.0418284 0.0471236 0.0671899 0.0412835 0.060212 0.0676436 0.0955004 0.0682365 0.0640255 0.0695747 0.0695463 0.0639232
51 1 Mg 0.190047 66.2088 1.3706 1.2 1 0.0211264 0.0101764 0.0161592 0.0329629 0.0137189 0.0326604 0.0251077 0.0395733 0.0481793 0.0464012 0.0623006 0.0553833 0.0614144 0.0640074 0.0698006 0.0821536 0.070589 0.0872694 0.0677668 0.087014
52 2 Si -1.59369 64.2519 1.42451 2.4 1 0.00835417 0.0114042 0.0326782 0.0326879 0.0402415 0.0362598 0.0467391 0.0516331 0.0572597 0.04885 0.0581051 0.0683882 0.0781531 0.0491042 0.0666641 0.0627737 0.0616562 0.0794463 0.067651 0.0602451
53 3 O 1.64052 64.133 1.42397 -1.2 1 0.0232229 0.0168812 0.0155546 0.0203339 0.0327923 0.0313998 0.0317495 0.0734137 0.0471412 0.0587065 0.0471972 0.0694123 0.0508354 0.0829299 0.0760416 0.0690963 0.056401 0.0826204 0.0549175 0.0748157
54 3 O -0.760951 68.214 1.62565 -1.2 1 0.00971528 0.0218527 0.0166211 0.0286036 0.019861 0.0315234 0.0413684 0.0393916 0.0551126 0.0342269 0.0561346 0.0452464 0.0517008 0.0749873 0.0964138 0.0702111 0.0771794 0.0550826 0.0736147 0.0593093
55 3 O -0.826606 64.8621 0.107547 -1.2 1 0.0134273 0.0206833 0.0198327 0.0143898 0.0291143 0.0195149 0.0563478 0.0429871 0.0491563 0.0404457 0.0648715 0.0384054 0.0477573 0.0457493 0.0969889 0.0631968 0.0796197 0.0686636 0.053839 0.0729265
56 3 O -0.915506 64.8323 2.97937 -1.2 1 0.00985644 0.0198183 0.0149206 0.0185541 0.0314887 0.0259234 0.0480769 0.0435438 0.0542602 0.0443063 0.0668013 0.0452946 0.0579303 0.0526609 0.108481 0.0656724 0.0651234 0.0779859 0.0717088 0.0869019
57 1 Mg -2.04008 68.6182 0.134246 1.2 1 0.0104312 0.0138871 0.0146591 0.0452392 0.0145405 0.0361519 0.0168221 0.0655718 0.0224138 0.0733098 0.0257547 0.055499 0.0267434 0.0788011 0.0298351 0.104265 0.0430654 0.104528 0.0465682 0.0807041
58 1 Mg 2.81224 71.7775 1.2719 1.2 1 0.0311652 0.0183413 0.0157814 0.03326 0.0182507 0.0372272 0.0202866 0.0333838 0.0587989 0.048145 0.0535364 0.0510674 0.0587499 0.0633473 0.0594039 0.0622104 0.0826692 0.086058 0.0680919 0.0739563
59 2 Si 0.0631619 69.6537 1.73108 2.4 1 0.0112004 0.0213884 0.0206828 0.0278746 0.0410228 0.0351273 0.0318659 0.0405289 0.0528351 0.0621265 0.0558205 0.0563838 0.0696687 0.0609595 0.082219 0.0795172 0.0680737 0.0690654 0.0609852 0.0570318
60 3 O 1.58438 69.3937 1.58037 -1.2 1 0.0143781 0.0290007 0.0202763 0.0235458 0.0250451 0.030694 0.0425469 0.0759058 0.0417963 0.0446951 0.0483367 0.0600366 0.0545237 0.0735073 0.0663075 0.0710403 0.0773386 0.0770039 0.0554879 0.076014
61 3 O -1.3991 73.6213 1.70248 -1.2 1 0.0187593 0.0304172 0.0217383 0.029255 0.0267817 0.0238226 0.0327106 0.0427777 0.0690293 0.0368904 0.0454828 0.0451824 0.0608324 0.0639427 0.0904225 0.0653109 0.0686346 0.0592546 0.0627691 0.0528244
62 3 O -0.697367 70.4774 0.543189 -1.2 1 0.0126147 0.0183871 0.0231733 0.0210874 0.0285115 0.0291468 0.0403261 0.0450641 0.0392036 0.0455419 0.0568335 0.0453958 0.0609619 0.064385 0.0782777 0.0851468 0.0811011 0.070406 0.0681697 0.0691089
63 1 Mg -2.3907 79.299 3.1564 1.2 1 0.03318 0.008756 0.0122982 0.0319997 0.0165642 0.0395377 0.0182784 0.0649559 0.0274158 0.0698924 0.0379616 0.0575211 0.0379414 0.06009 0.0363404 0.0982722 0.0577299 0.100548 0.048551 0.0845339
64 3 O -0.676268 70.4771 3.0969 -1.2 1 0.0164024 0.0203908 0.031808 0.0172087 0.0215675 0.0294106 0.042447 0.0484928 0.0442011 0.0545213 0.0647382 0.0462964 0.0616603 0.0631471 0.071147 0.0820222 0.060328 0.0660704 0.0661677 0.0721552
65 1 Mg -2.09284 76.1833 4.53739 1.2 1 0.0144902 0.016806 0.0224243 0.0257097 0.0165952 0.0262791 0.0304711 0.0330752 0.0481945 0.0609984 0.0498618 0.0650136 0.0542037 0.0594912 0.0764824 0.0631779 0.0835268 0.0694377 0.0792005 0.0486067
66 2 Si 0.438205 78.1597 4.69562 2.4 1 0.0100384 0.014015 0.0231688 0.0394149 0.0347696 0.0353177 0.0400106 0.0370372 0.0649316 0.0519704 0.0527874 0.0706059 0.0616166 0.0635557 0.0589156 0.0819036 0.0620957 0.0862466 0.0573998 0.0651671
67 3 O -1.17277 78.3908 4.5474 -1.2 1 0.0043133 0.0256917 0.0155207 0.0159403 0.0198631 0.0331752 0.0207594 0.0813278 0.0378886 0.0637423 0.0401346 0.0710315 0.0628786 0.0663047 0.07941 0.0599436 0.0696168 0.0620311 0.0524695 0.0597957
68 3 O 1.65108 74.4498 4.54043 -1.2 1 0.0210148 0.0268375 0.0201041 0.0286097 0.0199541 0.0324936 0.0371062 0.0429986 0.0611566 0.0434804 0.0542495 0.0380576 0.0556216 0.0679468 0.085848 0.0802032 0.0679966 0.0686362 0.0716138 0.0590669
69 3 O 1.06265 77.7104 3.31622 -1.2 1 0.0246269 0.00911707 0.0183827 0.0250679 0.0305218 0.0260543 0.0412889 0.0433828 0.041414 0.0499971 0.050787 0.0353955 0.0602438 0.0599056 0.075015 0.0821813 0.0777574 0.0522654 0.0645746 0.0651656
70 3 O 0.986686 77.3722 5.89485 -1.2 1 0.0180862 0.0201675 0.033359 0.0195043 0.0255649 0.0318533 0.0480815 0.0421838 0.0373565 0.0680538 0.0613929 0.0342051 0.0541043 0.0690182 0.0679415 0.0882306 0.065824 0.0629542 0.0656317 0.057553
71 1 Mg 0.12315 73.9488 2.89726 1.2 1 0.0144527 0.024192 0.0194738 0.0321603 0.0192856 0.0226592 0.0196005 0.0494884 0.026688 0.0694854 0.0327496 0.0520312 0.0298267 0.0759779 0.0397976 0.0989131 0.0592442 0.0917064 0.0595393 0.0768312
72 1 Mg 0.213769 71.1151 4.75585 1.2 1 0.0216185 0.0215634 0.0161959 0.0294722 0.0164628 0.0310562 0.0362554 0.0393658 0.0552829 0.0557511 0.066507 0.0474971 0.0624641 0.0743728 0.0627044 0.0791649 0.0661776 0.103877 0.0672214 0.0727763
73 2 Si 2.22358 72.7918 4.55869 2.4 1 0.0197373 0.0130457 0.0236735 0.0251348 0.0313407 0.0402447 0.0359082 0.0471445 0.0597825 0.0494563 0.0531557 0.0692719 0.0743949 0.0585582 0.0706715 0.0706601 0.0674325 0.0870047 0.0672137 0.0597279
74 3 O -0.847771 73.015 4.62025 -1.2 1 0.021119 0.0287497 0.00968722 0.0255605 0.0156257 0.0282279 0.0271482 0.0650609 0.0421311 0.0671564 0.039902 0.0670868 0.0543655 0.0680338 0.0744468 0.0689183 0.0573926 0.070404 0.0522063 0.0866175
75 3 O 1.07429 69.0168 4.44839 -1.2 1 0.0102701 0.00948605 0.0216656 0.0339355 0.0200855 0.0367642 0.0371247 0.041055 0.0594661 0.0408718 0.0624839 0.0378531 0.0671098 0.0708135 0.0956951 0.0621309 0.0640005 0.063113 0.0753062 0.0459051
76 3 O 1.61669 72.1482 3.17926 -1.2 1 0.00344835 0.0385967 0.0174484 0.0235491 0.0273867 0.0288476 0.041149 0.0498394 0.0444889 0.0515253 0.0607053 0.0466746 0.0579231 0.0686287 0.0783444 0.075736 0.070532 0.0708361 0.0612486 0.0796576
77 1 Mg 0.110639 74.2361 -0.166982 1.2 1 0.0244668 0.0195503 0.0169465 0.0250003 0.0201616 0.0298987 0.0319525 0.0595465 0.0379172 0.0644877 0.0390673 0.0434233 0.034402 0.0710433 0.0516968 0.0946077 0.0699116 0.0873805 0.0596356 0.0720693
78 3 O 1.42347 72.3008 6.06073 -1.2 1 0.00998415 0.0105894 0.0282827 0.0251534 0.0167627 0.0316409 0.04956 0.0419671 0.0443975 0.034864 0.0613813 0.0408995 0.0567798 0.0478946 0.0953037 0.0672286 0.0750829 0.0742163 0.06435 0.0780731
79 1 Mg 0.00451068 77.6693 1.74053 1.2 1 0.0173687 0.022434 0.0221081 0.0244709 0.0327045 0.0200246 0.024873 0.0392486 0.0420842 0.0564828 0.0581684 0.0640307 0.0702414 0.0579531 0.0772249 0.0522442 0.0942671 0.0870898 0.0537641 0.0589294
80 2 Si -1.77951 75.1647 1.55614 2.4 1 0.015469 0.0149248 0.0195223 0.0264281 0.0444407 0.0358773 0.0403936 0.0527185 0.06108 0.0442357 0.0502132 0.0640494 0.0769041 0.0579024 0.0700927 0.0653257 0.0623657 0.0917657 0.0601868 0.0608969
81 3 O 1.42252 75.0709 1.4449 -1.2 1 0.0208568 0.0197313 0.0236686 0.0160315 0.03284 0.0209919 0.0285825 0.0718811 0.0429737 0.0593596 0.0470538 0.0758014 0.0579262 0.0711799 0.0751196 0.0709128 0.0666299 0.0654211 0.0548499 0.065671
82 3 O -1.20855 79.1635 1.74101 -1.2 1 0.0168625 0.0195335 0.0168291 0.0302022 0.0201627 0.0288532 0.0475374 0.0411438 0.0510567 0.0406755 0.0539004 0.055956 0.0460267 0.0714524 0.09466 0.0614876 0.0866156 0.0536868 0.0706146 0.0611408
83 3 O -1.22013 75.8169 0.228197 -1.2 1 0.0141934 0.0235645 0.0377403 0.0256752 0.0296413 0.0335855 0.05551 0.0403454 0.043754 0.0423395 0.0550412 0.044783 0.0619461 0.0683945 0.0822822 0.0704307 0.080798 0.0680586 0.0513512 0.07933
84 3 O -1.15573 75.9946 2.77516 -1.2 1 0.0154867 0.0145488 0.0219011 0.0286245 0.0310012 0.0240621 0.0439704 0.0336572 0.0405972 0.0449694 0.0558375 0.0415457 0.0604877 0.0674498 0.0891691 0.0679871 0.078666 0.059906 0.059294 0.0678121
85 1 Mg -2.51712 79.7372 0.198122 1.2 1 0.0214769 0.0214605 0.0250576 0.0356846 0.0200353 0.0348828 0.0206866 0.0569154 0.0335001 0.0662793 0.0227227 0.0553419 0.0428651 0.0664294 0.0398351 0.0984659 0.0626895 0.100225 0.0525188 0.0701535
86 1 Mg 2.07223 82.6861 1.60569 1.2 1 0.0133773 0.0114791 0.0146674 0.0345429 0.0221399 0.0310514 0.0271168 0.0416065 0.0371775 0.064803 0.0586697 0.0600986 0.0602619 0.0634681 0.0840028 0.0698648 0.0790935 0.0694095 0.0876826 0.0560026
87 2 Si -0.523066 80.6536 1.81215 2.4 1 0.0189893 0.0133042 0.0238733 0.0288619 0.0365508 0.0343468 0.0356864 0.0559674 0.05093 0.0433713 0.0468954 0.0653732 0.0722253 0.0510977 0.0667582 0.0823469 0.0712902 0.0909726 0.0550488 0.0585198
88 3 O 1.05464 80.5751 1.88317 -1.2 1 0.0197982 0.0152594 0.017095 0.018302 0.0223331 0.0308828 0.0340345 0.0741925 0.0355076 0.0607734 0.042892 0.0750844 0.0624757 0.0708261 0.0692625 0.0597794 0.0730367 0.0633321 0.0592928 0.0642815
89 3 O -1.58508 84.4859 1.89794 -1.2 1 0.0156037 0.0198151 0.0179503 0.0274978 0.0249859 0.033798 0.0346472 0.0406065 0.0557481 0.0433955 0.0535164 0.0398496 0.0563195 0.0726968 0.0912641 0.0671593 0.0609246 0.0529308 0.0691854 0.0612561
90 3 O -1.04207 81.4236 0.566428 -1.2 1 0.0117258 0.0156894 0.0278725 0.0258518 0.0370445 0.0240889 0.0333818 0.0450312 0.046286 0.0500605 0.0605762 0.0406831 0.0642457 0.0575897 0.0797403 0.0804053 0.0741652 0.0737713 0.065042 0.0756513
91 1 Mg -2.39669 90.1658 3.64106 1.2 1 0.0105771 0.00951273 0.020053 0.0308887 0.0197364 0.0373829 0.0229146 0.0542089 0.0336172 0.0648441 0.0377429 0.0511958 0.0352534 0.0680198 0.0525334 0.0904091 0.0680186 0.0920438 0.0632957 0.0663272
92 3 O -1.2363 81.069 3.19093 -1.2 1 0.0133798 0.00254517 0.0226035 0.0233333 0.0259481 0.0243687 0.050246 0.0444234 0.045054 0.0427042 0.051959 0.0402483 0.0484048 0.0547783 0.104305 0.0740504 0.0754453 0.0709027 0.061605 0.0663764
93 1 Mg -2.5423 86.953 4.86 1.2 1 0.0194654 0.00532194 0.0179411 0.0222742 0.017732 0.0265865 0.0286939 0.038467 0.0441947 0.0487169 0.0525338 0.0584223 0.0615637 0.0667432 0.0742119 0.0557203 0.0850175 0.0926294 0.0606635 0.0750809
94 2 Si 0.311563 89.0729 4.85176 2.4 1 0.0101985 0.0128279 0.0236521 0.032298 0.0387444 0.0334495 0.0418598 0.0467326 0.0539294 0.0514214 0.0616167 0.0707313 0.0843995 0.0521732 0.0699509 0.0713818 0.0689348 0.0867566 0.0638592 0.049872
95 3 O -1.24745 89.1733 4.93349 -1.2 1 0.0241388 0.019887 0.0199909 0.0217646 0.026707 0.0332067 0.0251233 0.0578429 0.0416142 0.0656355 0.0603826 0.0638973 0.0485485 0.0730713 0.0734037 0.0711706 0.0616211 0.0582173 0.0639032 0.0798361
96 3 O 1.21695 85.1931 4.6804 -1.2 1 0.0132909 0.0126529 0.0179282 0.0245372 0.0161826 0.0305103 0.0412959 0.0450438 0.0610297 0.037752 0.0494207 0.0472594 0.0598472 0.0807383 0.0921771 0.0607215 0.0777308 0.0563699 0.0636942 0.0531657
97 3 O 0.977796 88.4706 3.49781 -1.2 1 0.0202091 0.0295069 0.0223561 0.0247227 0.0330188 0.0304055 0.0430817 0.0474319 0.0389079 0.0458545 0.0666086 0.0454832 0.0541358 0.0705849 0.0933184 0.0584159 0.0822798 0.0618492 0.0609754 0.0677404
98 3 O 0.970532 88.3205 6.14326 -1.2 1 0.0153735 0.0130443 0.033068 0.0200518 0.0283984 0.0243674 0.0457949 0.0443973 0.0361253 0.0354908 0.0603206 0.034813 0.0597743 0.0600016 0.0795523 0.0750264 0.0714324 0.0613281 0.0568523 0.0719331
99 1 Mg -0.0793904 84.8105 3.1137 1.2 1 0.0126883 0.0101392 0.00911093 0.0397255 0.0146294 0.0338296 0.0221721 0.0610385 0.0293761 0.0689915 0.0280227 0.0629555 0.027909 0.0659061 0.0348557 0.0987952 0.0446747 0.100726 0.0462147 0.0767987
100 1 Mg -0.0159483 81.4674 4.88835 1.2 1 0.0178251 0.0164642 0.0239663 0.028426 0.0224219 0.0212664 0.026656 0.0346527 0.0394694 0.0535406 0.0504474 0.0624485 0.0561901 0.0553777 0.0847951 0.055921 0.0812036 0.0851158 0.075216 0.0605788
101 2 Si 1.96489 83.6043 4.64601 2.4 1 0.027187 0.015015 0.0234104 0.0260794 0.0330515 0.0250202 0.0349875 0.048052 0.0516453 0.0515764 0.0577692 0.0631764 0.067241 0.0700208 0.0725461 0.0881617 0.0675153 0.0886846 0.061675 0.0606569
102 3 O -1.33779 83.8622 4.62 -1.2 1 0.0311166 0.0227602 0.0179926 0.0238965 0.0281179 0.025711 0.025169 0.0668714 0.0430586 0.0586129 0.052944 0.0719758 0.0542689 0.0612174 0.0755104 0.068453 0.0640833 0.0788041 0.0609166 0.0659429
103 3 O 1.16815 79.7538 4.93034 -1.2 1 0.013424 0.0202693 0.0182094 0.0285138 0.0198492 0.029111 0.0390528 0.038843 0.0577266 0.0410046 0.0535646 0.045492 0.0535167 0.0669796 0.0968327 0.0705827 0.071527 0.0600951 0.0735672 0.051683
104 3 O 1.2823 83.1642 3.23327 -1.2 1 0.013459 0.0138486 0.0191214 0.0214885 0.0313325 0.0195808 0.0459066 0.044249 0.0332906 0.0473684 0.0597855 0.0382402 0.065302 0.0583222 0.0938203 0.0801296 0.0695478 0.0738926 0.0546942 0.0785708
105 1 Mg 0.00277445 85.057 0.346463 1.2 1 0.00991668 0.0142079 0.011284 0.0391457 0.0102162 0.04068 0.0178507 0.0510441 0.0232535 0.0736723 0.0290527 0.0512974 0.0311766 0.0703991 0.0337409 0.105755 0.0419656 0.105386 0.0488948 0.0879482
106 3 O 1.26527 82.8649 5.84495 -1.2 1 0.0183316 0.0223157 0.0225986 0.0240931 0.0274995 0.0283983 0.0402842 0.0364148 0.0395532 0.0486569 0.0637742 0.043793 0.0585889 0.0650747 0.0815028 0.0772574 0.062567 0.0779447 0.0618983 0.0618937
107 1 Mg -0.194695 87.9012 1.85462 1.2 1 0.0222443 0.00867391 0.0254057 0.0327918 0.0203281 0.0318349 0.0290311 0.0333073 0.0515911 0.0512443 0.0501993 0.0578268 0.0572421 0.0698485 0.0653044 0.0633008 0.0768916 0.097083 0.0583748 0.076368
108 2 Si -2.24935 86.0466 2.15109 2.4 1 0.0131648 0.0116612 0.0132662 0.0291448 0.0348162 0.0261482 0.0356174 0.0436377 0.0529611 0.0513573 0.06393 0.0473635 0.0687893 0.0602664 0.0702572 0.0906275 0.0699286 0.0733347 0.0701236 0.0576865
109 3 O 1.04999 85.791 1.91946 -1.2 1 0.00999833 0.0174076 0.0165763 0.0285526 0.032377 0.0299593 0.0233737 0.0684017 0.0429048 0.0507789 0.044136 0.0630005 0.0581129 0.0609906 0.0715254 0.0653302 0.0559321 0.0718648 0.0623456 0.0631975
110 3 O -0.792719 89.8366 1.71189 -1.2 1 0.0276658 0.0327017 0.0113354 0.0281274 0.0313095 0.0340112 0.0345502 0.0548461 0.053253 0.0419359 0.0474151 0.046031 0.0657667 0.0812842 0.0916093 0.0755747 0.0725278 0.0572436 0.0728721 0.0634614
111 3 O -1.55087 86.8323 0.732806 -1.2 1 0.021375 0.0235348 0.0272993 0.0251127 0.0285227 0.0348435 0.0417366 0.0394299 0.0425051 0.0542063 0.0548304 0.048717 0.0640337 0.0678878 0.0835982 0.0922851 0.0600564 0.0712 0.0681588 0.0770647
112 3 O -1.4026 86.6124 3.15309 -1.2 1 0.0148213 0.0166881 0.0332495 0.0170591 0.0297984 0.0271798 0.0496189 0.0441365 0.0425961 0.0465388 0.0617144 0.0390614 0.0560978 0.0659135 0.0839991 0.0793477 0.076481 0.0585217 0.0588536 0.0643309
113 1 Mg -2.23046 90.2684 0.397386 1.2 1 0.0133902 0.0190545 0.013965 0.0370242 0.0110677 0.0419361 0.020029 0.0525481 0.0222573 0.0706889 0.0274442 0.0501823 0.0303797 0.0663149 0.033111 0.0999058 0.0516626 0.0920526 0.0518044 0.0857205
114 1 Mg 2.48477 93.2116 1.50281 1.2 1 0.0194953 0.0273625 0.0157378 0.0263946 0.0269122 0.0298784 0.0291134 0.0417905 0.0512217 0.0492498 0.0591301 0.0587439 0.0530711 0.0730327 0.0763117 0.0688257 0.0858939 0.0803545 0.0603103 0.0701088
115 2 Si -0.224128 91.3592 2.00318 2.4 1 0.0227663 0.0179354 0.0201527 0.0277258 0.0301772 0.0323506 0.0386302 0.041293 0.0468342 0.0610962 0.0559459 0.0538388 0.0687752 0.0612037 0.0665486 0.0843299 0.0591587 0.0706818 0.0718838 0.0585194
116 3 O 1.31086 91.1695 1.98382 -1.2 1 0.0269996 0.0288136 0.00923924 0.0228365 0.0279961 0.0348143 0.0271441 0.0674917 0.0465864 0.0597575 0.0340877 0.0667994 0.0551488 0.0684491 0.0803221 0.0571151 0.0747486 0.0575271 0.0681718 0.0574671
117 3 O -1.32217 94.9632 1.58481 -1.2 1 0.00782114 0.014632 0.026047 0.0240022 0.0214425 0.0331989 0.0378444 0.0498659 0.0486275 0.0430825 0.0514375 0.0549662 0.0498199 0.0723152 0.0956975 0.0733677 0.0738435 0.0665047 0.0619347 0.0578492
118 3 O -0.811118 92.0453 0.666847 -1.2 1 0.0187593 0.0198244 0.0311072 0.0141985 0.0354448 0.0271992 0.0560461 0.0416887 0.0401051 0.048597 0.0524919 0.0405213 0.0545648 0.0709214 0.0773854 0.0785717 0.0708171 0.0612933 0.0610052 0.0755144
119 1 Mg -2.34337 101.413 3.12625 1.2 1 0.012424 0.020399 0.0169806 0.0225971 0.0325159 0.0264916 0.0283724 0.0464559 0.0577046 0.0516665 0.0444809 0.042011 0.0445676 0.0596888 0.0653191 0.0693296 0.0908333 0.0766092 0.0764201 0.0735003
120 3 O -0.968874 91.9525 3.23392 -1.2 1 0.00940354 0.0218138 0.0238467 0.018634 0.029303 0.0202611 0.0367142 0.0450191 0.0427413 0.0502236 0.053752 0.037638 0.0680969 0.0604914 0.0789923 0.0712191 0.0774705 0.0706245 0.0595006 0.0756943
121 1 Mg -2.44107 97.7488 4.88278 1.2 1 0.0193296 0.0105334 0.0168881 0.0283558 0.0187044 0.0314501 0.0288503 0.0373505 0.0462972 0.0463936 0.0527929 0.0512537 0.0579278 0.0667894 0.0741902 0.0625569 0.0802846 0.0775461 0.0642788 0.0697634
122 2 Si 0.48437 99.7312 4.60156 2.4 1 0.024599 0.0129892 0.0288831 0.0195741 0.0341011 0.0354618 0.039472 0.0409144 0.0506948 0.0389711 0.0527544 0.0618806 0.0596962 0.0532705 0.0711427 0.0708134 0.0602187 0.0904804 0.0643207 0.059624
123 3 O -1.16108 99.8256 4.77068 -1.2 1 0.0298822 0.0195394 0.0234273 0.0171402 0.022422 0.0284997 0.025993 0.0634104 0.0403201 0.0603052 0.0424119 0.0720972 0.0536893 0.0727916 0.0687532 0.0687134 0.0579401 0.0691085 0.0614104 0.0808826
124 3 O 1.45765 95.9726 4.56615 -1.2 1 0.0189199 0.0206783 0.0205218 0.0234075 0.0170315 0.0300944 0.0390514 0.0567013 0.0508569 0.039366 0.0451848 0.0412053 0.052788 0.0725111 0.0897588 0.0690811 0.0638017 0.0625213 0.061892 0.0683232
125 3 O 0.99048 99.0611 3.24953 -1.2 1 0.0161231 0.0251002 0.0223642 0.023263 0.0170981 0.0278159 0.0528771 0.0384201 0.0512842 0.049587 0.0561329 0.0442703 0.0603603 0.0553188 0.0809494 0.068123 0.0695799 0.0490723 0.0694099 0.0753633