ITEM: TIMESTEP
98700
ITEM: NUMBER OF ATOMS
5600
ITEM: BOX BOUNDS xy xz yz pp pp pp
0	7.1235	0
0	201.985	2.3745
0	119.584	0
ITEM: ATOMS id type element xu yu zu q Q_1 Q_2 Q_3 Q_4 Q_5 Q_6 Q_7 Q_8 Q_9 Q_10 Q_11 Q_12 Q_13 Q_14 Q_15 Q_16 Q_17 Q_18 Q_19 Q_20 Q_21
1 1 Mg -1.56569 47.5707 -2.1332 1.2 1 0.448924 0.052831 0.0967866 0.0539421 0.0456107 0.0626066 0.0561603 0.0497956 0.0680595 0.0649514 0.0587263 0.0884175 0.109007 0.0987577 0.128351 0.102759 0.0913828 0.0957551 0.105016 0.0885614
2 1 Mg 3.0589 49.8326 1.2735 1.2 1 0.246815 0.112817 0.0287605 0.0634704 0.0222909 0.0486 0.0485451 0.0642426 0.056512 0.0732599 0.062463 0.0788714 0.0660178 0.0859673 0.0909256 0.0622387 0.0894649 0.0840985 0.0768659 0.0631435
3 2 Si 0.893803 48.6254 -0.559413 2.4 1 0.333888 0.111279 0.0655433 0.0822231 0.0575126 0.074226 0.0630164 0.0766671 0.0629832 0.0760302 0.0725856 0.0752694 0.0628617 0.0627662 0.0841159 0.0682751 0.0743228 0.0841777 0.100126 0.0901705
4 3 O 1.59913 47.323 -0.690471 -1.2 1 0.482122 0.0486155 0.0832307 0.06588 0.0757393 0.0688632 0.0941621 0.0825737 0.0752303 0.0771308 0.0757091 0.0793554 0.089167 0.0783546 0.0815108 0.0835892 0.0970358 0.114061 0.104298 0.0784369
5 3 O -1.3151 51.9432 0.79365 -1.2 1 0.107524 0.0599502 0.0405467 0.0347808 0.0343085 0.0326976 0.0467956 0.055257 0.0684138 0.0577658 0.0583365 0.0604018 0.0721011 0.0727219 0.0908964 0.0714528 0.0723325 0.0731106 0.0617554 0.0770394
6 3 O -0.0611621 48.7263 -1.86555 -1.2 1 0.334186 0.0951617 0.030287 0.0754313 0.0278583 0.0588967 0.0444661 0.0543839 0.0594008 0.0673263 0.064344 0.0958953 0.0824411 0.0923927 0.0779352 0.0795804 0.0748691 0.0733008 0.0854534 0.0941421
7 1 Mg -2.41256 57.4474 2.90645 1.2 1 0.0312937 0.0195665 0.0230516 0.024901 0.0123568 0.0297798 0.023765 0.0560385 0.0255381 0.0754797 0.025174 0.0607719 0.0287775 0.0687518 0.0326063 0.105452 0.0419534 0.0997391 0.0474439 0.0844477
8 3 O -0.0945701 48.8846 0.564327 -1.2 1 0.310734 0.143909 0.0701749 0.0620979 0.0554987 0.0550993 0.0759579 0.0591049 0.0795726 0.0772188 0.0784644 0.0645979 0.0643998 0.0732992 0.0922751 0.0563852 0.0825354 0.0796656 0.0699047 0.0935369
9 1 Mg -2.69786 54.456 4.1046 1.2 1 0.0155566 0.0157793 0.0126114 0.0368355 0.0272703 0.0313309 0.0357257 0.0421688 0.0568285 0.0532109 0.0751226 0.0578192 0.0658125 0.0659142 0.0585437 0.0707435 0.0728459 0.0879274 0.0781946 0.0734419
10 2 Si 0.388361 56.4133 4.38276 2.4 1 0.0136898 0.0186507 0.0309463 0.0387991 0.0213997 0.0291661 0.048134 0.0497032 0.0488907 0.0546737 0.055278 0.0777618 0.0894344 0.0696263 0.0785001 0.0622256 0.0576946 0.082383 0.061598 0.0706797
11 3 O -1.10431 56.5244 4.41045 -1.2 1 0.037663 0.0172837 0.0350374 0.0220983 0.0199475 0.0229826 0.0356507 0.0732434 0.0450197 0.0569453 0.0575891 0.0709907 0.0605955 0.0727767 0.0759281 0.0718387 0.0627808 0.0656229 0.0605533 0.0705716
12 3 O 1.09857 52.5769 4.2162 -1.2 1 0.0565299 0.0532441 0.0463926 0.015183 0.0229908 0.0335133 0.0493975 0.0357387 0.0590051 0.0500693 0.0518781 0.0504771 0.0770005 0.0831672 0.0776886 0.0797654 0.0762647 0.0572252 0.0688541 0.0745175
13 3 O 0.976881 55.8079 2.99192 -1.2 1 0.0237203 0.0257246 0.0196028 0.0171699 0.026757 0.0265792 0.0547391 0.0574485 0.0419227 0.0489311 0.0634909 0.0497855 0.0623725 0.0726719 0.0863145 0.0818899 0.0623979 0.0596883 0.0599759 0.0685793
14 3 O 0.963076 55.6965 5.55144 -1.2 1 0.0285388 0.0256676 0.0228062 0.0208143 0.0233611 0.0260419 0.0566575 0.0509262 0.0443109 0.0486039 0.0570126 0.0538354 0.0687064 0.0593357 0.0918594 0.063141 0.0850523 0.0602053 0.0711607 0.080149
15 1 Mg 0.153599 52.3354 2.54173 1.2 1 0.0716282 0.0569849 0.0424168 0.0431743 0.0155711 0.03404 0.0358567 0.0665514 0.0382969 0.0746724 0.0410311 0.0699928 0.0613522 0.063994 0.0583221 0.08574 0.0712718 0.092828 0.0709377 0.0647894
16 1 Mg 0.450391 49.0549 2.68963 1.2 1 0.302987 0.119466 0.0266532 0.069899 0.0423853 0.0436373 0.0646673 0.0578145 0.0693598 0.0637384 0.0693368 0.0717798 0.083323 0.0728985 0.0820738 0.0822045 0.0899517 0.0811162 0.0864493 0.0779313
17 2 Si 1.8193 51.026 4.02407 2.4 1 0.128764 0.0919281 0.0539839 0.0334552 0.0255021 0.0520868 0.0381216 0.0430011 0.0597917 0.063729 0.0754623 0.0754148 0.081945 0.0673981 0.077053 0.0786065 0.0690449 0.103687 0.0744373 0.0612259
18 3 O -1.46093 51.4674 3.98588 -1.2 1 0.12444 0.0811562 0.0503558 0.0322519 0.0227022 0.0279122 0.057867 0.0572101 0.0395368 0.0710522 0.0593524 0.0845353 0.0675949 0.0488718 0.082023 0.0935623 0.0761167 0.0818517 0.0707335 0.090859
19 3 O 2.78471 48.7604 2.68286 -1.2 1 0.338992 0.116431 0.0675237 0.0499898 0.0369566 0.0626727 0.047994 0.0747192 0.0664884 0.0695753 0.0618036 0.0644074 0.078749 0.117278 0.0951139 0.0823987 0.0819509 0.0948555 0.092124 0.0856484
20 3 O 1.25591 50.7829 2.60511 -1.2 1 0.171486 0.0919385 0.0536614 0.02323 0.0305968 0.0318939 0.0506621 0.0469746 0.0611208 0.0548268 0.0490763 0.0622123 0.0618079 0.100852 0.0932302 0.0716949 0.0805831 0.0774307 0.0753539 0.0806545
21 1 Mg 0.118044 52.7744 -0.818963 1.2 1 0.0618844 0.0441022 0.0266401 0.0259822 0.0414663 0.0358519 0.0345303 0.0443164 0.0722172 0.0505384 0.0495753 0.0555766 0.0603331 0.0652236 0.0719487 0.0683964 0.0912129 0.0852018 0.0705502 0.0648991
22 3 O 0.810231 50.164 5.08704 -1.2 1 0.204037 0.112388 0.0281177 0.0452412 0.0315063 0.0391224 0.0389875 0.0715581 0.077818 0.0614758 0.0578771 0.0690628 0.0660972 0.0687357 0.0794819 0.0903387 0.0799291 0.0734062 0.072593 0.0590706
23 1 Mg -0.0218818 55.4348 1.17326 1.2 1 0.0204636 0.0183142 0.0181303 0.0304799 0.0286053 0.0263472 0.0365382 0.0428142 0.0424931 0.0490213 0.056005 0.0612209 0.063149 0.0628179 0.0682356 0.0635876 0.0925996 0.0809201 0.053389 0.0913743
24 2 Si -1.99506 53.3914 0.975497 2.4 1 0.042713 0.0323374 0.0282159 0.0353804 0.0267029 0.0408365 0.0483027 0.0472283 0.0533269 0.0547693 0.0545002 0.0593834 0.0698043 0.0694613 0.0631205 0.064582 0.0764523 0.0776265 0.0619235 0.0719558
25 3 O 1.25579 53.4201 1.0739 -1.2 1 0.0321725 0.0250108 0.0336338 0.0342932 0.0224336 0.0366987 0.0367607 0.0577427 0.0319668 0.0550607 0.0484425 0.0653397 0.0537002 0.0713471 0.0740126 0.0572747 0.0704303 0.0628321 0.0656818 0.0600715
26 3 O -1.11742 57.0593 1.1945 -1.2 1 0.0160475 0.0106853 0.0182612 0.0209262 0.0187488 0.0381812 0.0445739 0.0350117 0.0442801 0.0410368 0.0493942 0.0512415 0.0631807 0.069167 0.0853689 0.0752731 0.0748309 0.0668134 0.074661 0.0655152
27 3 O -1.08948 53.9947 -0.280596 -1.2 1 0.0305353 0.0390819 0.0260512 0.0412085 0.0335193 0.038568 0.0574184 0.0370697 0.0469057 0.0529033 0.0504205 0.0561669 0.0684148 0.0582285 0.0849857 0.071927 0.0764002 0.0552289 0.0631949 0.080971
28 3 O -1.35216 53.8641 2.49909 -1.2 1 0.0100818 0.021457 0.0291403 0.031033 0.0322216 0.0238087 0.0510572 0.0404587 0.0461392 0.0394116 0.0639917 0.0563811 0.0719302 0.0705963 0.0642443 0.0823259 0.0589741 0.0804566 0.0652141 0.063725
29 1 Mg -2.09576 57.173 -0.428528 1.2 1 0.0207109 0.0114432 0.0237584 0.0253845 0.0249133 0.0341098 0.0220014 0.0583994 0.0518432 0.0557331 0.0437781 0.0444271 0.0506541 0.0559106 0.0621662 0.0796747 0.092009 0.0749533 0.0641639 0.0695692
30 1 Mg 2.11337 60.2913 1.62772 1.2 1 0.0110743 0.0207348 0.0231676 0.0376641 0.0242934 0.0349243 0.0368493 0.0335082 0.0478787 0.0524855 0.0707276 0.0526882 0.0539023 0.0732329 0.0654206 0.0844425 0.0616769 0.0902526 0.0767766 0.080042
31 2 Si -0.469715 58.4524 1.3503 2.4 1 0.020962 0.0108477 0.029201 0.0254805 0.0395381 0.0297125 0.0387044 0.0385419 0.054585 0.0438568 0.0594725 0.0625782 0.0776986 0.0693767 0.0738471 0.0674782 0.0662853 0.0887381 0.0633428 0.0567191
32 3 O 1.01943 58.4722 1.63555 -1.2 1 0.011616 0.0157703 0.0208402 0.0185852 0.0245276 0.0320794 0.0304535 0.0653092 0.0456905 0.061499 0.052379 0.0667933 0.0709831 0.0633981 0.0709011 0.0730584 0.0649375 0.06759 0.0601965 0.0759567
33 3 O -1.34206 62.4399 2.07632 -1.2 1 0.0252947 0.0235574 0.0225463 0.0278898 0.0228341 0.0462246 0.0386502 0.0440579 0.0608004 0.0438136 0.0487087 0.0473993 0.0639571 0.0776342 0.0864427 0.0759662 0.0834744 0.0551828 0.0674591 0.0578975
34 3 O -1.16495 59.2144 0.274622 -1.2 1 0.0120117 0.0152697 0.0310958 0.0166142 0.0360785 0.0255022 0.0501369 0.0482997 0.0454459 0.0390416 0.0701368 0.0459979 0.066177 0.0616367 0.0992096 0.0663971 0.0797746 0.0598733 0.0651894 0.0707595
35 1 Mg -2.20119 68.8886 3.76464 1.2 1 0.0173045 0.0168144 0.0129111 0.0189388 0.0298649 0.0334384 0.0409483 0.0419768 0.0645864 0.0473025 0.058608 0.0475501 0.0474595 0.0474724 0.0687296 0.0722306 0.0912249 0.0716954 0.0729394 0.0712866
36 3 O -1.09204 59.1058 2.81551 -1.2 1 0.0144606 0.0165737 0.0362061 0.0224968 0.0255752 0.0183188 0.0496681 0.0436134 0.0434698 0.0343396 0.0520506 0.0501124 0.0633047 0.0569194 0.0839546 0.0656493 0.0871429 0.0631551 0.0629518 0.0663361
37 1 Mg -2.47547 65.1623 4.8437 1.2 1 0.0249567 0.0130054 0.0157265 0.029515 0.0232348 0.0385167 0.029533 0.0396035 0.0488748 0.0493009 0.0554628 0.0635062 0.0507441 0.0658293 0.0746915 0.0681378 0.0785051 0.0827254 0.0626867 0.0795113
38 2 Si 0.356295 66.9829 4.95661 2.4 1 0.0106573 0.0199531 0.0238471 0.0224592 0.0431467 0.037856 0.0378437 0.0529714 0.067387 0.0483902 0.0545423 0.0595831 0.0665233 0.0561144 0.0680305 0.0722888 0.0722125 0.0811654 0.0622099 0.0670866
39 3 O -1.37964 67.3074 4.9239 -1.2 1 0.0178589 0.0232898 0.019668 0.0259024 0.026827 0.0447451 0.0270246 0.0740788 0.0473931 0.0742135 0.0410523 0.0601539 0.0642893 0.0686434 0.0683432 0.0770546 0.0615002 0.0660829 0.0659073 0.070167
40 3 O 1.34028 62.9699 5.10036 -1.2 1 0.0136831 0.0210449 0.01462 0.0391505 0.0235532 0.0312734 0.0494797 0.0409667 0.0635412 0.0333348 0.0559614 0.0483933 0.0706835 0.0783313 0.0913783 0.0711378 0.0699869 0.0749639 0.0640649 0.0694187
41 3 O 0.921193 66.2762 3.77045 -1.2 1 0.0138816 0.0152839 0.0229488 0.0252808 0.0340895 0.0321167 0.0474132 0.0386792 0.0353283 0.0466022 0.0611845 0.0471793 0.0607132 0.0646015 0.068226 0.0860468 0.0630052 0.0645192 0.0636588 0.0672609
42 3 O 0.975268 66.2894 6.16703 -1.2 1 0.0142043 0.0353639 0.0228222 0.0247692 0.037347 0.0324951 0.043936 0.0486267 0.0371312 0.0443061 0.064748 0.0466858 0.053965 0.0674729 0.0775185 0.0780024 0.0709506 0.0561635 0.069776 0.0738091
43 1 Mg 0.134077 62.5769 3.46502 1.2 1 0.0161235 0.0124819 0.0136836 0.040855 0.0185295 0.0412863 0.0219145 0.060686 0.0332541 0.0725401 0.046407 0.0420481 0.0410044 0.079259 0.0544446 0.09263 0.0554493 0.0920343 0.0633547 0.0724346
44 1 Mg -0.278524 59.6421 4.77145 1.2 1 0.0191371 0.021862 0.0186196 0.0223875 0.0169205 0.0348332 0.0352037 0.0423937 0.0468731 0.0473195 0.0608902 0.0755011 0.0550105 0.0654494 0.0683804 0.0761488 0.0822167 0.0813088 0.0802199 0.0565831
45 2 Si 1.98479 61.4707 4.87163 2.4 1 0.0126302 0.0231039 0.0208241 0.032531 0.0442179 0.028403 0.0443014 0.0513087 0.0540715 0.0601486 0.053871 0.0752825 0.0710104 0.0649728 0.0685361 0.0726028 0.0655361 0.0847204 0.0599623 0.0687161
46 3 O -1.14718 61.516 4.73697 -1.2 1 0.0220317 0.0210893 0.0194677 0.0241178 0.0276029 0.0334081 0.023436 0.071784 0.0441855 0.0720005 0.0369617 0.0661958 0.0801127 0.0686266 0.070571 0.0582112 0.0685472 0.0704389 0.0740454 0.0617941
47 3 O 1.02747 57.9935 4.58987 -1.2 1 0.0194599 0.0175586 0.0260701 0.0174052 0.0211434 0.0308436 0.0418117 0.045514 0.0547432 0.0482232 0.0449285 0.056042 0.0604227 0.0732223 0.102347 0.0660389 0.0720318 0.0616022 0.0467201 0.0609258
48 3 O 1.38306 60.9849 3.46748 -1.2 1 0.016216 0.02465 0.0224489 0.0214543 0.0350501 0.0217021 0.0501012 0.0521334 0.0467595 0.0508945 0.0555004 0.0501248 0.0570334 0.0811605 0.0727603 0.0706818 0.0669025 0.0688991 0.0671543 0.0690872
49 1 Mg 0.132375 62.4657 0.514608 1.2 1 0.013073 0.0275666 0.0123574 0.0255677 0.0180568 0.042041 0.0297145 0.0505025 0.0638274 0.0729982 0.0417906 0.0630301 0.0475985 0.0634005 0.0651295 0.0855051 0.0747104 0.0915825 0.073534 0.0612197
50 3 O 1.39676 60.8765 6.06673 -1.2 1 0.00627483 0.0199043 0.0234723 0.0245168 0.0340271 0.0208094 0.0405358 0.0527434 0.0402756 0.0541251 0.0596307 0.0391086 0.0623834 0.0620532 0.0902673 0.0730972 0.0717563 0.0662972 0.073328 0.0713585
51 1 Mg -0.101687 66.112 2.15791 1.2 1 0.0135184 0.0127383 0.0209577 0.0225709 0.0205229 0.039192 0.0351403 0.0404016 0.0477106 0.0571004 0.051393 0.0639011 0.0582389 0.0669287 0.0718744 0.0636577 0.0782717 0.088668 0.0682685 0.0581523
52 2 Si -2.15403 63.8589 1.84437 2.4 1 0.0208051 0.012355 0.0253185 0.0277324 0.0385887 0.033408 0.0407322 0.0448528 0.0523894 0.0585706 0.0647279 0.0646325 0.0844788 0.0514007 0.0742584 0.0673253 0.0712548 0.0831273 0.0618701 0.062622
53 3 O 1.15091 63.6152 2.03615 -1.2 1 0.0293541 0.012504 0.0264906 0.0159411 0.0267924 0.0289033 0.0287046 0.0691336 0.0486557 0.0520685 0.0548249 0.0690413 0.0503282 0.067455 0.0701842 0.0756499 0.0507782 0.0799616 0.0524479 0.0802461
54 3 O -1.01324 68.0301 2.00605 -1.2 1 0.0252898 0.0280843 0.0165065 0.0323541 0.0266783 0.028276 0.0421303 0.0472715 0.0568185 0.0356373 0.0581817 0.0417107 0.0630936 0.0862063 0.0851341 0.0648671 0.0744818 0.0543691 0.0771803 0.0573664
55 3 O -1.53854 64.5985 0.569604 -1.2 1 0.0144202 0.00819793 0.0264628 0.0296208 0.0298301 0.0278397 0.0530696 0.0494492 0.0415863 0.0491833 0.0578371 0.050537 0.0570793 0.0717491 0.0831213 0.0663866 0.0835868 0.0591705 0.063725 0.0688551
56 3 O -1.63272 64.8881 3.0905 -1.2 1 0.0194361 0.0163084 0.027618 0.0251517 0.0267785 0.0427224 0.0389706 0.042713 0.0347335 0.063044 0.0655374 0.0495457 0.0595932 0.0660484 0.0794954 0.0770974 0.0532753 0.0635369 0.0651389 0.0731483
57 1 Mg -2.52148 68.1005 0.779935 1.2 1 0.0173809 0.0221292 0.0212058 0.0296732 0.0231314 0.0386881 0.0335969 0.0579202 0.0484638 0.0620404 0.0475704 0.0551031 0.0403831 0.0655184 0.0592876 0.08215 0.077688 0.0806518 0.0719041 0.0711336
58 1 Mg 2.8198 71.5996 1.85912 1.2 1 0.0190745 0.014094 0.025043 0.0295983 0.0315464 0.0289039 0.0297512 0.0364277 0.0508973 0.0428988 0.0586931 0.0572811 0.0629377 0.0712505 0.0626699 0.0620329 0.0783017 0.0886994 0.0619249 0.0802027
59 2 Si -0.273277 69.546 2.09473 2.4 1 0.0219176 0.0254165 0.0199727 0.0280395 0.0398148 0.0400024 0.0304675 0.0452657 0.0549494 0.0584509 0.0571091 0.0728567 0.0756259 0.0547169 0.0719039 0.0734391 0.0668435 0.0810538 0.0692774 0.0548833
60 3 O 1.31579 69.313 2.16386 -1.2 1 0.0195017 0.0303027 0.0135008 0.0193814 0.0260547 0.031579 0.0288394 0.0797276 0.0452149 0.0642383 0.0405907 0.0699116 0.0615765 0.0739378 0.0806029 0.0527152 0.0574596 0.063587 0.0703273 0.0659765
61 3 O -1.23272 73.4541 1.78391 -1.2 1 0.00860664 0.0177989 0.0187174 0.0299783 0.0270802 0.0272837 0.0422094 0.0467378 0.055262 0.036063 0.0504087 0.0543347 0.0641041 0.08151 0.0884594 0.0701485 0.0709856 0.0600107 0.0773129 0.0521793
62 3 O -0.911571 70.4441 0.813594 -1.2 1 0.032824 0.0259106 0.0216784 0.0254105 0.0246652 0.0272063 0.0443523 0.0402372 0.042999 0.0443722 0.0652856 0.0437753 0.0484079 0.0649809 0.0806306 0.0799174 0.0702008 0.0694166 0.0729961 0.0751741
63 1 Mg -2.12247 79.18 3.25046 1.2 1 0.0146565 0.0194933 0.015227 0.0318931 0.0147845 0.0526324 0.0125544 0.0716126 0.0257037 0.0771498 0.0246696 0.0506552 0.0360963 0.0653165 0.0379149 0.0968681 0.0428059 0.0998104 0.0613988 0.071453
64 3 O -0.871076 70.4079 3.27334 -1.2 1 0.0289511 0.0231279 0.0232705 0.0193857 0.0313271 0.0381222 0.040408 0.0477401 0.039804 0.051529 0.0607403 0.0505773 0.0575086 0.0769722 0.0688717 0.0770119 0.0566395 0.0593421 0.0675092 0.0691596
65 1 Mg -2.13579 76.1552 4.75274 1.2 1 0.00910785 0.0191352 0.0275955 0.0372159 0.0302448 0.032886 0.0380236 0.0377364 0.0417527 0.0606403 0.0599363 0.0540544 0.0610386 0.0596776 0.0563882 0.076733 0.0768068 0.0879934 0.0709203 0.0742372
66 2 Si 0.758601 78.1081 4.67109 2.4 1 0.011821 0.0173247 0.0284991 0.0251186 0.0377 0.0439955 0.0392298 0.0482319 0.0542374 0.0369813 0.0433392 0.0674581 0.0737231 0.0604701 0.0682992 0.0706098 0.0616603 0.0783714 0.0618025 0.0643353
67 3 O -0.932114 78.2019 4.5986 -1.2 1 0.0372454 0.0111362 0.0315062 0.0217538 0.0213486 0.0311664 0.0303308 0.072699 0.0384706 0.064219 0.05065 0.0788263 0.0520537 0.0727143 0.0845458 0.0683684 0.0652768 0.0643315 0.0529127 0.0788296
68 3 O 1.67087 74.1603 4.53312 -1.2 1 0.0120267 0.0205208 0.0239237 0.0266489 0.0113435 0.0340324 0.03215 0.0440826 0.0572348 0.0396345 0.0496149 0.0404361 0.0689239 0.0772826 0.0831829 0.0773652 0.0654694 0.0599962 0.0599238 0.0646134
69 3 O 1.31438 77.4409 3.27964 -1.2 1 0.011685 0.0282453 0.027618 0.0314809 0.0311269 0.0209564 0.0391827 0.0395799 0.0517779 0.0411944 0.0641262 0.0419675 0.0662614 0.0505051 0.0945232 0.0747073 0.0732205 0.079964 0.0605564 0.0762279
70 3 O 1.35912 77.3823 5.88302 -1.2 1 0.0154482 0.0146214 0.0335646 0.0230289 0.0268172 0.0274638 0.0442288 0.0441275 0.0393313 0.0460842 0.0561853 0.039541 0.063543 0.0546641 0.0825271 0.0687917 0.0701994 0.0729782 0.0571649 0.0600133
71 1 Mg 0.400897 73.2545 2.99918 1.2 1 0.0153953 0.0188181 0.00691461 0.0270686 0.0317386 0.0305388 0.0343359 0.0485163 0.0629499 0.0506818 0.0532062 0.0440273 0.0538545 0.0564843 0.0631494 0.0746363 0.0866781 0.0806693 0.080051 0.0580198
72 1 Mg 0.387748 70.7355 4.77625 1.2 1 0.021158 0.0160024 0.0210243 0.0302606 0.0220957 0.0314082 0.032457 0.0332718 0.0529475 0.0504533 0.0556432 0.0569689 0.0595437 0.071238 0.0636818 0.0606744 0.0833347 0.0940643 0.0624106 0.081176
73 2 Si 2.43374 72.6095 4.83479 2.4 1 0.0247363 0.0158585 0.0204208 0.0211634 0.0250478 0.0268116 0.0339873 0.0449189 0.0506696 0.068123 0.0552683 0.0702694 0.0643465 0.0547074 0.0639091 0.0660411 0.078069 0.0892593 0.0634875 0.0703754
74 3 O -0.808298 72.5988 4.8983 -1.2 1 0.0164908 0.0233156 0.0135076 0.0171216 0.0303583 0.0323027 0.0288687 0.0718726 0.0335412 0.0779057 0.0342104 0.0615068 0.0535497 0.072892 0.0756191 0.0652585 0.0661072 0.049492 0.0690579 0.0668577
75 3 O 0.888985 68.6101 4.98265 -1.2 1 0.00984884 0.0197749 0.0245954 0.0346686 0.0278319 0.0287308 0.0344054 0.0423954 0.0722299 0.0408249 0.0489203 0.042454 0.0639948 0.0893217 0.0810938 0.0689765 0.0688382 0.0632485 0.0710711 0.0493489
76 3 O 1.62967 71.7636 3.59525 -1.2 1 0.0184591 0.0292608 0.0167216 0.0185131 0.0321447 0.0341291 0.0537606 0.0429557 0.0426981 0.0485044 0.0640804 0.0422088 0.0575219 0.0720807 0.0754459 0.0772067 0.0683363 0.0649712 0.0606866 0.0768447
77 1 Mg -0.0596693 74.0357 0.365441 1.2 1 0.00721915 0.0207236 0.0139314 0.0281964 0.0240032 0.0321149 0.0216676 0.0705311 0.028281 0.0621653 0.0314558 0.0515686 0.0321005 0.0765099 0.0474489 0.102509 0.0599858 0.105393 0.0596389 0.0715002
78 3 O 1.64382 72.2065 6.211 -1.2 1 0.0315428 0.0256979 0.0186957 0.0157472 0.0331986 0.0267631 0.0488678 0.0428957 0.0449928 0.0496329 0.0676131 0.044901 0.0468929 0.0778806 0.0757857 0.0744576 0.0802855 0.0664493 0.0630772 0.0725049
79 1 Mg -0.254331 76.6996 1.81069 1.2 1 0.022631 0.0098291 0.01138 0.0340873 0.0197146 0.0409167 0.0379029 0.0362253 0.0565811 0.0423055 0.0561307 0.0685621 0.0628542 0.0669451 0.0639193 0.0672556 0.0680025 0.103499 0.0607546 0.074636
80 2 Si -2.012 75.0875 1.93978 2.4 1 0.02182 0.0194678 0.0270034 0.0243348 0.0270993 0.0384972 0.0354445 0.0453537 0.061556 0.0389966 0.0475077 0.0636144 0.0675005 0.0696884 0.0764516 0.0723734 0.0541298 0.0799343 0.0671877 0.0626935
81 3 O 1.15911 74.6499 1.91497 -1.2 1 0.0226245 0.0302847 0.018307 0.019963 0.0252053 0.0294193 0.0324613 0.0615595 0.0417918 0.0572944 0.0453988 0.0673236 0.0559535 0.0716813 0.0753461 0.0747833 0.0595504 0.079835 0.0585517 0.0676939
82 3 O -0.657947 78.8949 1.59436 -1.2 1 0.018838 0.0293639 0.0206724 0.0329583 0.0202807 0.0346975 0.0276271 0.0436466 0.0654489 0.0441356 0.045638 0.0374653 0.0620238 0.0769996 0.0926198 0.071001 0.0683246 0.0596518 0.0756951 0.0595923
83 3 O -1.58125 75.581 0.587587 -1.2 1 0.0223143 0.0183639 0.0198352 0.0281724 0.0382876 0.027478 0.0482252 0.0361559 0.0455494 0.0530182 0.0538599 0.0446385 0.059769 0.0699464 0.0659745 0.0795365 0.0682726 0.0584709 0.0703686 0.0746084
84 3 O -1.17567 75.603 3.1198 -1.2 1 0.012128 0.0180705 0.0249365 0.0267617 0.026519 0.0228886 0.0375672 0.047829 0.0341719 0.0490963 0.068084 0.0442361 0.0645815 0.0553001 0.0945203 0.0725511 0.0775504 0.0640119 0.060162 0.0680798
85 1 Mg -2.54179 79.1118 0.189123 1.2 1 0.0062016 0.0333312 0.020348 0.0410512 0.0148145 0.0416013 0.0159117 0.0620908 0.019775 0.0759547 0.0250076 0.0512371 0.037656 0.0734952 0.03633 0.0999525 0.0392634 0.109188 0.043223 0.0887612
86 1 Mg 2.4207 82.2172 1.66904 1.2 1 0.0276714 0.0192659 0.0111115 0.0373028 0.016052 0.0300664 0.0258025 0.0333248 0.0514752 0.056714 0.0669883 0.0602553 0.0560956 0.0713711 0.0661073 0.0746638 0.0732085 0.0964855 0.061225 0.0788323
87 2 Si -0.288533 80.3243 1.69941 2.4 1 0.0160973 0.0173367 0.0174468 0.0281621 0.0378218 0.0341751 0.0379542 0.0553108 0.0609726 0.0586808 0.0463293 0.0687285 0.0745254 0.0581324 0.0633954 0.0721957 0.075384 0.092263 0.0740492 0.0636664
88 3 O 1.38401 80.3454 1.7469 -1.2 1 0.0245348 0.0180402 0.0143914 0.0223205 0.0382766 0.0273762 0.0283439 0.0722434 0.0467446 0.0717421 0.0291508 0.0616464 0.0588077 0.0742286 0.0634237 0.0712148 0.0701061 0.0692076 0.0686618 0.0710482
89 3 O -1.56164 84.3225 1.61063 -1.2 1 0.024095 0.0259458 0.0214842 0.0352855 0.0152008 0.0380072 0.0343344 0.0418199 0.0595426 0.0413182 0.0575719 0.053887 0.0554961 0.0754856 0.0923902 0.075709 0.065195 0.0639091 0.0803974 0.0571776
90 3 O -1.0102 81.1545 0.67651 -1.2 1 0.00992361 0.0171468 0.0240763 0.0275307 0.0264753 0.0339834 0.0544032 0.0422768 0.036171 0.0459036 0.0560081 0.0488374 0.0621951 0.0681064 0.0708068 0.0737435 0.0754491 0.0748796 0.0626495 0.0586991
91 1 Mg -2.3944 90.0082 2.83666 1.2 1 0.0278031 0.0176784 0.0210179 0.0284347 0.0196941 0.0296763 0.0212857 0.0561943 0.0347534 0.0827139 0.0276933 0.0426976 0.0306259 0.0713674 0.0438622 0.0918475 0.0520359 0.0965423 0.0671589 0.0702123
92 3 O -0.765984 80.65 3.1565 -1.2 1 0.025217 0.0147714 0.0271377 0.0186015 0.0391784 0.0307079 0.0518412 0.0506185 0.0559813 0.049732 0.0475341 0.0461486 0.0534949 0.0744737 0.0722522 0.0779855 0.0721891 0.0722884 0.0585482 0.0730536
93 1 Mg -2.39866 87.0865 4.54063 1.2 1 0.0294773 0.00650147 0.0200126 0.0357449 0.0138293 0.0343424 0.0224615 0.0417393 0.0507121 0.0543155 0.0644037 0.063739 0.0561542 0.0658349 0.0685019 0.0781527 0.0631203 0.0925849 0.0664662 0.0782661
94 2 Si 0.438485 88.9233 4.59908 2.4 1 0.0286915 0.0132894 0.0272886 0.0262172 0.0395394 0.0347247 0.0381507 0.0528078 0.0582968 0.0455631 0.0612593 0.0616206 0.0616843 0.0652392 0.0619346 0.0747035 0.0684051 0.0952396 0.0543077 0.065968
95 3 O -1.16289 89.2127 4.52404 -1.2 1 0.0169764 0.00929921 0.016955 0.017926 0.0188521 0.0358767 0.0251011 0.0793642 0.0437672 0.0614518 0.0526915 0.066529 0.0556998 0.0649966 0.0804145 0.0639102 0.0637704 0.0784852 0.0588401 0.0764102
96 3 O 1.42815 84.9789 4.39996 -1.2 1 0.0150827 0.0280234 0.0144225 0.028392 0.0105067 0.0281091 0.0365958 0.0396067 0.0613947 0.0474753 0.0515159 0.0432783 0.0634917 0.0657957 0.0946845 0.0696091 0.0809068 0.0613466 0.0653946 0.0594841
97 3 O 1.17554 88.2715 3.35074 -1.2 1 0.0127344 0.0335322 0.0237115 0.0217922 0.0295263 0.0340425 0.0474658 0.0438943 0.0410702 0.0357979 0.0600087 0.0446737 0.0600673 0.0766079 0.0778138 0.0693371 0.0761202 0.0712104 0.0583709 0.0630135
98 3 O 0.854032 88.0894 5.85007 -1.2 1 0.0291579 0.0193604 0.0200321 0.0230194 0.0244386 0.0282537 0.0342027 0.0450762 0.0422484 0.0496664 0.0622216 0.0450606 0.0583318 0.072442 0.0722753 0.0882155 0.0687027 0.0697156 0.0646302 0.0716998
99 1 Mg 0.0800198 84.4264 2.89799 1.2 1 0.0193892 0.0250461 0.0195127 0.0310581 0.02272 0.0326237 0.0279843 0.0568142 0.0510623 0.0659371 0.0408651 0.0551115 0.0347805 0.065333 0.0436296 0.0931839 0.063095 0.0881559 0.074948 0.0731759
100 1 Mg 0.102176 81.7528 4.60139 1.2 1 0.0243976 0.0126413 0.0166209 0.0356286 0.0183987 0.0233657 0.0303068 0.0365278 0.0494325 0.0523457 0.061635 0.0558044 0.0569965 0.0595747 0.0667884 0.076147 0.068772 0.0961174 0.0611399 0.0914231
101 2 Si 2.0083 83.5846 4.48982 2.4 1 0.0320549 0.0133811 0.0219957 0.0305897 0.0340132 0.0348886 0.038448 0.0449482 0.0609917 0.0552246 0.0486175 0.0657913 0.0719858 0.0605591 0.073879 0.0646519 0.0678311 0.0877527 0.0627857 0.0624302
102 3 O -1.19925 83.389 4.444 -1.2 1 0.0210163 0.0169932 0.0212482 0.0211937 0.0254093 0.0320109 0.0313379 0.0720127 0.0467324 0.079367 0.0377876 0.0556803 0.0673941 0.0737875 0.0768264 0.0585423 0.0672813 0.0647085 0.0692339 0.0598461
103 3 O 1.36483 79.5042 4.84582 -1.2 1 0.0129203 0.021018 0.0167091 0.0210239 0.0193219 0.0294255 0.0543538 0.0381576 0.0555382 0.0445194 0.0559382 0.0400644 0.0597356 0.0741989 0.0873123 0.0661618 0.0851959 0.0590487 0.0664046 0.0530985
104 3 O 1.24037 82.8718 3.22306 -1.2 1 0.0187374 0.0198323 0.0311066 0.0239605 0.0262498 0.0206673 0.0473387 0.051198 0.0436044 0.0470569 0.0606098 0.0412401 0.057674 0.0569865 0.0972446 0.0845963 0.0678577 0.0705154 0.0516558 0.0797487
105 1 Mg -0.235364 84.7025 0.283845 1.2 1 0.0277589 0.0173802 0.0161229 0.0257549 0.0204706 0.0394032 0.0320427 0.0699019 0.0252863 0.0609344 0.036347 0.0461315 0.0442844 0.072037 0.0438675 0.105067 0.0555452 0.0959743 0.0596372 0.0660415
106 3 O 1.54574 82.9748 5.97956 -1.2 1 0.00587461 0.022352 0.0211537 0.0214049 0.033765 0.0249767 0.0558411 0.0396701 0.0456616 0.0493502 0.0558214 0.0544794 0.0523994 0.0742059 0.0705914 0.0743938 0.0762965 0.0671801 0.0651649 0.0619101
107 1 Mg 0.337599 87.7418 1.60479 1.2 1 0.0240344 0.0098317 0.0241946 0.0297249 0.0253299 0.0371935 0.0317693 0.0341063 0.041799 0.0573464 0.0680054 0.0658823 0.0514871 0.0722446 0.0706246 0.085036 0.0708722 0.0723559 0.075639 0.0525014
108 2 Si -2.0567 85.9197 1.69161 2.4 1 0.0289217 0.0220007 0.0221448 0.0201234 0.033524 0.0441315 0.0353902 0.0505871 0.0577912 0.0498136 0.0580394 0.0780877 0.0675072 0.0610193 0.0689349 0.0728437 0.0783473 0.0822753 0.0607446 0.0630729
109 3 O 1.22777 85.8473 1.52278 -1.2 1 0.0242014 0.0151452 0.0164968 0.0174997 0.0324002 0.0262308 0.0225361 0.0696089 0.0391647 0.0707164 0.0422991 0.0642695 0.064453 0.0699613 0.0779484 0.0625177 0.0655912 0.0578123 0.0645261 0.0706077
110 3 O -0.92028 89.778 1.48539 -1.2 1 0.00942844 0.0195779 0.0121081 0.0296784 0.0189241 0.0343064 0.0389295 0.0413499 0.0650844 0.0414806 0.051275 0.0384212 0.0497494 0.0788545 0.0840098 0.0770974 0.0794035 0.0538424 0.0759653 0.0478201
111 3 O -1.23905 86.4758 0.509863 -1.2 1 0.0350215 0.0293411 0.0248353 0.0219197 0.028055 0.0241103 0.0452964 0.0440745 0.0410582 0.0481196 0.0591334 0.0446988 0.0648727 0.0611835 0.0780923 0.0781463 0.0767725 0.06282 0.0654818 0.0664552
112 3 O -1.47219 86.5075 2.87116 -1.2 1 0.0150698 0.0223068 0.0159458 0.0202205 0.0307105 0.0273755 0.0412088 0.0472998 0.0361218 0.0537357 0.0620493 0.0399224 0.0504429 0.0747843 0.0776732 0.0849623 0.0591724 0.0610016 0.0715447 0.0694547
113 1 Mg -2.16155 90.3198 0.109871 1.2 1 0.013988 0.0329034 0.0106997 0.0332461 0.0234458 0.0379353 0.0196166 0.0636869 0.0274255 0.0668571 0.0327228 0.0493123 0.0369351 0.0698309 0.0394737 0.0904304 0.0652448 0.101698 0.0508198 0.0798886
114 1 Mg 2.67771 93.1951 1.74267 1.2 1 0.0233231 0.0126555 0.012966 0.0314911 0.0177097 0.0349193 0.0278622 0.0358871 0.0493162 0.0406796 0.0553533 0.0613972 0.0554019 0.0629196 0.0665543 0.0624418 0.0686915 0.0928519 0.0598349 0.0775406
115 2 Si -0.108057 91.2832 1.38219 2.4 1 0.0248067 0.0259369 0.0106608 0.0196544 0.0380015 0.0363834 0.0368566 0.0478849 0.055205 0.0689362 0.0644334 0.0657706 0.0645272 0.050511 0.0729199 0.0827747 0.0711789 0.0706537 0.0686046 0.0660577
116 3 O 1.4026 91.1775 1.43027 -1.2 1 0.0140878 0.0316915 0.0184467 0.0214318 0.0293486 0.0274259 0.0273891 0.0763809 0.0420847 0.0618019 0.0385278 0.0705022 0.0609895 0.0723254 0.0769669 0.0667911 0.0677341 0.0746043 0.0622791 0.0688068
117 3 O -1.37204 94.9905 1.80762 -1.2 1 0.00893719 0.0169079 0.0189096 0.0296291 0.0243169 0.0365314 0.0363001 0.0449113 0.0489235 0.0432058 0.0465556 0.051616 0.0480074 0.0696112 0.0909554 0.0740142 0.0765883 0.055697 0.062294 0.0620076
118 3 O -0.553678 92.0357 0.0970909 -1.2 1 0.00742578 0.0177189 0.0292354 0.0179359 0.0199705 0.0302066 0.0401259 0.0504497 0.0423071 0.062182 0.0555326 0.0445204 0.0569994 0.0741587 0.0606884 0.0787653 0.0615329 0.0670342 0.0607972 0.075052
119 1 Mg -2.36552 101.161 3.30007 1.2 1 0.0191252 0.0131873 0.021276 0.0342242 0.0272622 0.0395509 0.0301575 0.0560055 0.0440296 0.071734 0.0401017 0.051066 0.0416728 0.0664357 0.0439339 0.100995 0.0640966 0.0868305 0.0646114 0.0743042
120 3 O -0.935626 91.8643 2.5818 -1.2 1 0.0226338 0.0101965 0.0287859 0.0175001 0.0300236 0.022519 0.0485138 0.0398591 0.0381501 0.041107 0.0673813 0.048622 0.0575987 0.0640856 0.0858663 0.0679374 0.0852207 0.0610133 0.0585167 0.0683028
121 1 Mg -2.37746 97.91 4.5339 1.2 1 0.0237888 0.00800149 0.0139448 0.0242143 0.0182636 0.0275344 0.028306 0.0337996 0.0466772 0.0565545 0.0619816 0.0579641 0.0543722 0.0680886 0.0632531 0.0773272 0.0727114 0.0853663 0.0715457 0.0732536
122 2 Si 0.293141 99.8983 4.46777 2.4 1 0.0183025 0.0120659 0.0199015 0.0329008 0.031169 0.038243 0.0359246 0.0513306 0.054573 0.045364 0.0536449 0.0722142 0.0783985 0.0574842 0.0744905 0.064242 0.0674807 0.0963273 0.0573939 0.0677679
123 3 O -1.28689 99.939 4.43966 -1.2 1 0.0204227 0.0220859 0.0137998 0.020839 0.0269754 0.0373272 0.0259798 0.0783984 0.0518266 0.0622954 0.0360004 0.0819401 0.0558144 0.0702223 0.0757056 0.065724 0.0654635 0.0655657 0.0615108 0.0767048
124 3 O 1.27992 95.8239 4.4899 -1.2 1 0.00936832 0.0161879 0.014082 0.0300488 0.0219333 0.0266638 0.0420989 0.0368079 0.0672001 0.0372084 0.0524987 0.0373965 0.0572306 0.0738014 0.0872805 0.0689081 0.0815873 0.0503795 0.0645189 0.0574884
125 3 O 1.04084 99.3254 3.20046 -1.2 1 0.0231884 0.0263034 0.0210851 0.0310427 0.0238546 0.0225966 0.0491008 0.0459437 0.0434803 0.0461148 0.0641451 0.046076 0.0522625 0.0500532 0.0927765 0.0665037 0.0698435 0.0794219 0.0551964 0.0614682