ITEM: TIMESTEP
41800
ITEM: NUMBER OF ATOMS
5600
ITEM: BOX BOUNDS xy xz yz pp pp pp
0	7.1235	0
0	201.985	2.3745
0	119.584	0
ITEM: ATOMS id type element xu yu zu q Q_1 Q_2 Q_3 Q_4 Q_5 Q_6 Q_7 Q_8 Q_9 Q_10 Q_11 Q_12 Q_13 Q_14 Q_15 Q_16 Q_17 Q_18 Q_19 Q_20 Q_21
1 1 Mg -1.56671 48.954 -0.773325 1.2 1 0.437566 0.0757817 0.127748 0.0422407 0.0669908 0.0530713 0.0474396 0.0573073 0.0738435 0.0791513 0.0850366 0.081301 0.0949918 0.102057 0.104571 0.101486 0.0916641 0.104136 0.100569 0.0967586
2 1 Mg 2.99905 50.4152 2.42448 1.2 1 0.284769 0.125912 0.0435549 0.0467099 0.0513779 0.0414251 0.0705933 0.0604789 0.0560224 0.0704538 0.0622765 0.0703412 0.0839906 0.0802655 0.0919764 0.0878825 0.0916469 0.0870634 0.0807542 0.0839747
3 2 Si 0.877237 50.5486 0.484784 2.4 1 0.265614 0.124256 0.0375052 0.0574571 0.0541405 0.0409755 0.0679805 0.0493291 0.0814813 0.061886 0.0729111 0.0634898 0.0650737 0.0849597 0.101428 0.063337 0.0831532 0.0771657 0.0964344 0.0912432
4 3 O 2.14439 49.5197 0.687435 -1.2 1 0.382873 0.094359 0.080132 0.0621999 0.0399316 0.0660993 0.0400391 0.0762224 0.0607711 0.0886295 0.075811 0.0765174 0.0702876 0.089867 0.0919421 0.0899307 0.0741427 0.0909525 0.0632995 0.0779374
5 3 O -0.956194 53.083 1.61861 -1.2 1 0.108873 0.0526043 0.0478942 0.0243071 0.0336594 0.0281414 0.0423519 0.0539231 0.0615543 0.0588942 0.048207 0.0651655 0.0502496 0.0739517 0.0776396 0.0717495 0.0846005 0.0643092 0.0649669 0.0562743
6 3 O 0.0669147 49.8271 -0.669209 -1.2 1 0.351176 0.118854 0.0636042 0.0692119 0.0248374 0.0739311 0.0486539 0.0648701 0.0684388 0.0721693 0.0634479 0.0837372 0.071031 0.0849353 0.0911395 0.0931206 0.0970113 0.0750228 0.0815339 0.0760525
7 1 Mg -2.21152 59.2549 3.36759 1.2 1 0.00689343 0.0188025 0.0146476 0.0379538 0.0148732 0.0375031 0.0249808 0.0567923 0.0300341 0.0726793 0.0271152 0.0507182 0.025209 0.0771574 0.0373643 0.097106 0.0432122 0.100285 0.0595438 0.0810329
8 3 O 0.18681 50.5094 1.85645 -1.2 1 0.270977 0.1452 0.0530989 0.0417204 0.0383671 0.0342215 0.0717795 0.0646454 0.071629 0.0908338 0.0701834 0.0639729 0.0531898 0.0709307 0.0895938 0.0695327 0.0783468 0.0896805 0.0746607 0.0823002
9 1 Mg -2.10345 56.0088 4.74662 1.2 1 0.0178913 0.00971074 0.0185992 0.0256246 0.0199989 0.0332469 0.0247957 0.0360172 0.0458797 0.0522666 0.0595823 0.0604334 0.0477004 0.0713309 0.0726433 0.0764033 0.0756973 0.0748365 0.0755416 0.0724384
10 2 Si 0.478353 58.0549 4.87107 2.4 1 0.0126201 0.0173573 0.0242242 0.0277031 0.035988 0.0347348 0.0354986 0.0437423 0.0496167 0.0615173 0.0589354 0.0718924 0.0764886 0.0511441 0.0866184 0.0597276 0.0648013 0.0854623 0.062161 0.0588566
11 3 O -1.04889 58.1071 4.91552 -1.2 1 0.02572 0.0288779 0.0225789 0.0146981 0.0307103 0.0228837 0.0307001 0.0742662 0.0417515 0.0685556 0.0376554 0.0727936 0.0603847 0.0621941 0.0752606 0.0662887 0.0624059 0.0750378 0.0652279 0.0730139
12 3 O 1.82229 54.0563 4.99003 -1.2 1 0.052109 0.0465333 0.032831 0.0273437 0.0262576 0.033553 0.0299965 0.0402749 0.0640194 0.0504168 0.0640724 0.0557331 0.0740806 0.0704411 0.0821209 0.0758426 0.072231 0.0642999 0.0685617 0.06732
13 3 O 1.26465 57.3558 3.57762 -1.2 1 0.00991264 0.0120555 0.0213149 0.0226362 0.0259425 0.0212685 0.0477279 0.0426931 0.041781 0.0511599 0.0555818 0.0376283 0.0563329 0.0605425 0.0992026 0.0779812 0.0716089 0.0621986 0.0723776 0.063375
14 3 O 1.1766 57.428 6.22853 -1.2 1 0.0214562 0.0176422 0.0302256 0.0193728 0.0329911 0.0296304 0.0530303 0.0455595 0.0503593 0.0507736 0.0533157 0.0429439 0.0551312 0.0718647 0.0803027 0.0788584 0.0722086 0.0574854 0.0639919 0.0735949
15 1 Mg 0.374753 53.0914 3.06449 1.2 1 0.097236 0.0867342 0.0270648 0.0172196 0.0209588 0.0272024 0.0447512 0.0489506 0.0664504 0.0419149 0.0653031 0.0504264 0.0516058 0.0615653 0.0622486 0.0700369 0.0793132 0.0741083 0.0769631 0.0831027
16 1 Mg 0.793034 49.0076 3.13917 1.2 1 0.442541 0.0539102 0.105803 0.0590507 0.0474978 0.06652 0.0642985 0.0565494 0.087436 0.0917336 0.0730059 0.06648 0.0638045 0.0781965 0.0802427 0.089771 0.0862548 0.0919016 0.0847234 0.101428
17 2 Si 2.54176 52.5164 4.82997 2.4 1 0.0984034 0.104432 0.0430471 0.0310377 0.0279527 0.041044 0.0335344 0.0405801 0.0708954 0.066253 0.0920091 0.065197 0.0764885 0.0771223 0.0802246 0.0844342 0.0885867 0.0860482 0.0717292 0.0620673
18 3 O -0.622459 52.8092 4.87933 -1.2 1 0.109533 0.087431 0.0340234 0.0286398 0.0199299 0.030592 0.0484555 0.063677 0.0628197 0.0776367 0.050794 0.0861669 0.0603393 0.0741155 0.0770145 0.0740804 0.0701739 0.0834299 0.0808858 0.0638413
19 3 O 2.67499 48.6528 3.37947 -1.2 1 0.466632 0.0485614 0.117236 0.0489935 0.0773914 0.0438541 0.0777632 0.0944375 0.0827017 0.0748936 0.0878777 0.0729623 0.0914897 0.0887332 0.0923397 0.0958955 0.105325 0.109899 0.0938096 0.0682769
20 3 O 2.03974 51.9006 3.41305 -1.2 1 0.182503 0.0892519 0.0251338 0.0224768 0.0220863 0.0536505 0.0373406 0.0810211 0.0579659 0.0653473 0.0534558 0.0605406 0.0858887 0.0762528 0.0798748 0.0722299 0.0898773 0.0745801 0.0731111 0.0702732
21 1 Mg 0.340298 53.8366 0.259102 1.2 1 0.0687461 0.0494833 0.0357177 0.0296197 0.0162533 0.0237599 0.028848 0.0476879 0.0470795 0.0712154 0.0451042 0.0486833 0.0436699 0.0671174 0.0607943 0.0874308 0.0837568 0.0829428 0.0665256 0.0820064
22 3 O 2.07847 51.4795 6.02204 -1.2 1 0.204321 0.108845 0.0152132 0.0362635 0.0423307 0.0457579 0.0523015 0.0645708 0.0616702 0.0560066 0.0647701 0.0851265 0.0660357 0.095647 0.0666522 0.0711826 0.0697117 0.0751365 0.0688611 0.0687675
23 1 Mg 0.0417931 56.6652 1.81928 1.2 1 0.020515 0.0156293 0.0148153 0.0295194 0.0153956 0.030367 0.0332293 0.0388613 0.0441493 0.0501586 0.0615792 0.0613951 0.0597723 0.0650359 0.0731333 0.0780695 0.0686969 0.0863392 0.0750516 0.0784811
24 2 Si -1.76247 54.5598 1.79307 2.4 1 0.0174505 0.0216666 0.034801 0.0308049 0.0164714 0.0449689 0.0442886 0.0498675 0.0531737 0.0656047 0.053394 0.0594696 0.0727492 0.0440401 0.0564505 0.0671658 0.0707801 0.0662035 0.0613455 0.0668017
25 3 O 1.37612 54.3811 1.85855 -1.2 1 0.0332364 0.0429401 0.030805 0.0152421 0.0237564 0.0347528 0.0254422 0.0535195 0.0536951 0.0572491 0.0588078 0.0582719 0.0572783 0.0700495 0.0731199 0.0653333 0.0710858 0.0694352 0.0464158 0.0654591
26 3 O -0.826337 58.6611 1.69305 -1.2 1 0.0129221 0.0250577 0.0199133 0.0271994 0.0175354 0.0306772 0.0406024 0.0473137 0.05636 0.0373849 0.0550196 0.0454472 0.0600372 0.0735052 0.102498 0.0684913 0.0741466 0.0540433 0.0747166 0.0603941
27 3 O -1.21397 55.4788 0.557125 -1.2 1 0.0149953 0.0257541 0.0225194 0.0329075 0.0291667 0.0313798 0.0596169 0.050166 0.0308368 0.0459671 0.0738916 0.0368154 0.0616669 0.0718403 0.0810065 0.0725279 0.0697348 0.0667083 0.0678745 0.0605633
28 3 O -1.11918 55.3692 3.01031 -1.2 1 0.0170653 0.028625 0.0242675 0.0322081 0.0265753 0.0227589 0.0488777 0.0419405 0.0406034 0.037311 0.0653073 0.0468064 0.0517083 0.0695723 0.0881912 0.0744121 0.0715827 0.066473 0.0761829 0.063653
29 1 Mg -2.21878 59.1119 0.235096 1.2 1 0.0209573 0.0265895 0.0096468 0.0293869 0.0124264 0.0411989 0.0164987 0.0643019 0.0176494 0.0813495 0.0190861 0.0547744 0.0245674 0.0751398 0.0239393 0.102976 0.0260048 0.111409 0.0299734 0.0903863
30 1 Mg 2.34887 61.9334 1.60091 1.2 1 0.0300361 0.0181613 0.0213513 0.0342316 0.01592 0.0285147 0.0284079 0.0406396 0.0447794 0.0591333 0.0621135 0.057198 0.0648182 0.0641157 0.0639592 0.0766021 0.0749128 0.0861247 0.0825958 0.0683533
31 2 Si -0.116406 60.0985 1.75279 2.4 1 0.00500033 0.0171761 0.0149908 0.0427615 0.0351629 0.0279267 0.0397963 0.039705 0.0529476 0.056576 0.0547155 0.0712046 0.070292 0.0603204 0.0794099 0.0656896 0.0581479 0.090692 0.0605403 0.0615513
32 3 O 1.41743 60.1002 1.79049 -1.2 1 0.029612 0.0281497 0.0197192 0.0229748 0.027076 0.0316577 0.0272901 0.0771452 0.0355032 0.0664715 0.0364152 0.0678424 0.0613064 0.0706941 0.0723893 0.0657931 0.0560551 0.0749578 0.0615389 0.0633168
33 3 O -1.23894 63.6513 1.7715 -1.2 1 0.0161652 0.0194639 0.0242136 0.025452 0.0160109 0.0358065 0.0339675 0.0528666 0.0485276 0.0451466 0.042749 0.0520508 0.0533064 0.070279 0.106724 0.0732282 0.0659853 0.0603047 0.0627537 0.0693838
34 3 O -0.869534 60.8153 0.378035 -1.2 1 0.0104061 0.0129529 0.0300329 0.0251645 0.0255064 0.0216467 0.0496754 0.0454658 0.0408462 0.0547599 0.0544083 0.0421773 0.0588099 0.056128 0.0853437 0.0719249 0.0710425 0.0625949 0.0620158 0.0705491
35 1 Mg -2.22958 69.3377 3.07407 1.2 1 0.00964987 0.0184472 0.00755483 0.0258182 0.00985668 0.0326765 0.0127938 0.0628595 0.0225428 0.0813571 0.0214375 0.0553714 0.0198458 0.0715147 0.031256 0.100939 0.0500448 0.100426 0.0424926 0.0939247
36 3 O -0.767136 60.7263 3.08781 -1.2 1 0.00674137 0.0125801 0.0407486 0.0270757 0.0238204 0.0310133 0.0449933 0.0546129 0.0476525 0.0531924 0.045647 0.0459635 0.055719 0.0702006 0.0792329 0.0738284 0.0746661 0.0613867 0.064597 0.0734247
37 1 Mg -2.11022 66.7269 4.78879 1.2 1 0.0151794 0.014995 0.0223824 0.0265093 0.0232643 0.0292597 0.02467 0.0318766 0.0419397 0.0565633 0.057831 0.0590151 0.0628193 0.0683116 0.0628324 0.0844218 0.0719257 0.0949588 0.0699665 0.0911088
38 2 Si 0.515851 68.449 4.66447 2.4 1 0.00226708 0.0121673 0.0258008 0.0419542 0.0274064 0.0327924 0.0429682 0.0396434 0.048371 0.0588568 0.0590568 0.0631302 0.0695244 0.0600525 0.0752114 0.071619 0.0533569 0.0899264 0.0638144 0.0603982
39 3 O -1.05991 68.4442 4.68741 -1.2 1 0.0295885 0.0194457 0.0138247 0.0190347 0.0233874 0.0323687 0.02108 0.0716669 0.0415766 0.0638084 0.0405606 0.0717923 0.0650135 0.0690643 0.0693253 0.068195 0.0567155 0.0649845 0.0663453 0.0695715
40 3 O 1.65832 64.8551 4.84472 -1.2 1 0.014092 0.0119359 0.0248439 0.0270156 0.0204245 0.0368548 0.0332428 0.0471433 0.0520044 0.0467406 0.0468829 0.0461746 0.0522953 0.072003 0.109074 0.0799658 0.065546 0.0544163 0.0706109 0.0688136
41 3 O 1.16242 67.7339 3.37833 -1.2 1 0.016874 0.0129497 0.0232871 0.0206961 0.0258634 0.0194925 0.0433855 0.0509687 0.0444661 0.0526824 0.0528926 0.0355878 0.0612089 0.0654844 0.0820262 0.0772595 0.0797859 0.0739727 0.0622283 0.0694031
42 3 O 1.17464 67.7822 5.92939 -1.2 1 0.0207836 0.0127759 0.0301345 0.022364 0.0236056 0.0211277 0.0489351 0.0391946 0.0388984 0.0454925 0.0538763 0.0366796 0.0589322 0.0613484 0.0859736 0.0795629 0.0728768 0.0616487 0.0582376 0.076348
43 1 Mg 0.280037 64.3772 3.41766 1.2 1 0.00279193 0.0110345 0.00800196 0.0255934 0.0094605 0.0337963 0.0170047 0.0575437 0.026748 0.0824154 0.0267905 0.0470454 0.0280352 0.0710206 0.0269986 0.10093 0.047573 0.106936 0.0497205 0.0859746
44 1 Mg 0.246279 61.5604 4.83828 1.2 1 0.0142232 0.0171167 0.0190877 0.0349601 0.0205784 0.0313067 0.0294447 0.0304909 0.0490886 0.0607415 0.0641731 0.0578403 0.0638598 0.0654944 0.0597299 0.0882088 0.0617399 0.103199 0.056788 0.0964625
45 2 Si 2.36689 63.2496 4.83275 2.4 1 0.0147304 0.0138616 0.0138006 0.0291737 0.0261107 0.0282472 0.0435818 0.0445199 0.0416846 0.0629198 0.0524468 0.0699737 0.0689093 0.055973 0.0724638 0.0595738 0.0655399 0.0843759 0.0607815 0.0636821
46 3 O -0.796736 63.341 4.82391 -1.2 1 0.0166911 0.0220123 0.0113053 0.0238329 0.0223696 0.0302697 0.025657 0.0718484 0.0342229 0.0567728 0.0313845 0.0685308 0.059907 0.0737728 0.0806838 0.0694225 0.0573264 0.0723397 0.054999 0.0678194
47 3 O 1.15522 59.5721 4.90761 -1.2 1 0.0129351 0.0182488 0.0201486 0.028104 0.0188035 0.0412015 0.0387965 0.0478994 0.056978 0.0452713 0.0469765 0.0486512 0.0525255 0.0674847 0.103552 0.079374 0.0677717 0.0566211 0.0708398 0.0607702
48 3 O 1.75628 62.7364 3.54955 -1.2 1 0.0121921 0.0132885 0.019726 0.0248687 0.0347166 0.0162134 0.0505418 0.0449792 0.0479557 0.0485422 0.0493701 0.0389149 0.0531875 0.0816133 0.072715 0.0845392 0.0822238 0.0646967 0.0746653 0.0718938
49 1 Mg 0.0764182 64.3935 0.0690514 1.2 1 0.00664425 0.013453 0.0113548 0.0281754 0.0190205 0.0304185 0.0232329 0.0542054 0.0296652 0.0780738 0.0303875 0.0507494 0.0324087 0.0717689 0.0363848 0.0940124 0.0517564 0.105916 0.0533446 0.0743581
50 3 O 1.66088 62.739 6.08873 -1.2 1 0.0185827 0.019188 0.0320735 0.0275248 0.0264127 0.0243954 0.0502182 0.0537631 0.0363071 0.0447587 0.0565386 0.0436836 0.0491883 0.0740371 0.0732085 0.0765235 0.0809745 0.0542604 0.0686544 0.0665859
51 1 Mg 0.454576 67.2317 1.50675 1.2 1 0.0188571 0.0156531 0.0274899 0.0338896 0.021645 0.0250452 0.0248229 0.0363584 0.043214 0.0578943 0.0577785 0.0538024 0.0577368 0.0558746 0.0671135 0.0679567 0.0769884 0.085261 0.0854598 0.0573198
52 2 Si -1.87267 65.1759 1.79044 2.4 1 0.012748 0.0110394 0.0189028 0.0398104 0.0254923 0.0281455 0.0436897 0.0398603 0.0491246 0.0602935 0.0519951 0.0645107 0.0680365 0.0662014 0.0800617 0.0618254 0.0684832 0.0877917 0.0617705 0.06502
53 3 O 1.3326 65.1717 1.63684 -1.2 1 0.0296597 0.00821391 0.0189513 0.0244945 0.0220182 0.0289767 0.0264978 0.0694895 0.0389038 0.0568328 0.0446154 0.0690799 0.0515068 0.0685043 0.0725974 0.0677405 0.0619849 0.0788183 0.0490623 0.0701507
54 3 O -0.878255 68.8262 1.63663 -1.2 1 0.00621236 0.0153686 0.0225093 0.0163369 0.0266857 0.0390424 0.0374498 0.046251 0.0436444 0.0492576 0.0405753 0.0620983 0.0481945 0.0638961 0.0996366 0.0660145 0.070562 0.0635236 0.0600767 0.0731908
55 3 O -1.1441 65.9809 0.543206 -1.2 1 0.0125743 0.0150362 0.0217011 0.0284054 0.031078 0.0242321 0.0482275 0.0420411 0.0367789 0.0493905 0.050768 0.040784 0.062271 0.0621779 0.0810752 0.0767742 0.0750734 0.0624554 0.0666296 0.0678831
56 3 O -1.23762 65.7346 3.07363 -1.2 1 0.00960822 0.00938291 0.0335417 0.0198507 0.0235865 0.0231377 0.0461251 0.0413928 0.0459872 0.0452384 0.0516838 0.0469799 0.0607418 0.0646199 0.0747133 0.0746693 0.073817 0.0566829 0.0709013 0.0680987
57 1 Mg -2.17555 69.3728 0.302279 1.2 1 0.00478244 0.0245942 0.0111797 0.0339108 0.0101672 0.035545 0.0185708 0.0567886 0.0221612 0.0755792 0.0286986 0.0508832 0.0285438 0.0713127 0.0290218 0.102176 0.0512683 0.10089 0.0520727 0.0886781
58 1 Mg 2.34174 72.1565 1.43842 1.2 1 0.0107825 0.0182806 0.0175551 0.0286898 0.0148451 0.0257718 0.0221317 0.0300146 0.0476059 0.0580025 0.0706542 0.0497561 0.0579363 0.0597474 0.0593217 0.0936628 0.0627685 0.0896331 0.0664118 0.0784216
59 2 Si -0.117181 70.3914 1.71813 2.4 1 0.00614198 0.018568 0.0241528 0.0326819 0.0274409 0.0335251 0.0389272 0.0370224 0.0522682 0.0599175 0.0541882 0.0597451 0.0758217 0.0613232 0.0846025 0.0666597 0.0584364 0.0844401 0.0645907 0.0555159
60 3 O 1.403 70.2317 1.65164 -1.2 1 0.02271 0.0188632 0.0210789 0.0263352 0.0218254 0.0212512 0.0251834 0.0641054 0.0504647 0.0444095 0.0422298 0.0728816 0.0430373 0.0618985 0.069836 0.0672538 0.0604403 0.0769319 0.0492405 0.0826432
61 3 O -1.28897 74.2432 1.53518 -1.2 1 0.00201934 0.0250571 0.0257664 0.0148819 0.0182488 0.0311433 0.0356183 0.0465493 0.0537016 0.0443946 0.0454234 0.0439833 0.0432378 0.0679863 0.102779 0.0691397 0.0712786 0.0548901 0.0655641 0.0656951
62 3 O -0.874446 71.1228 0.389936 -1.2 1 0.0132135 0.017187 0.030033 0.0215647 0.0242901 0.0251095 0.0519906 0.0422377 0.0403695 0.040993 0.0596051 0.0347599 0.0539636 0.063073 0.0785871 0.0830275 0.073493 0.0627912 0.0651131 0.0635924
63 1 Mg -2.47243 80.1684 2.86166 1.2 1 0.00627685 0.00919778 0.0179762 0.027749 0.0130786 0.0361551 0.012383 0.063111 0.0224767 0.0765882 0.0241641 0.0492236 0.0282231 0.0726261 0.0319812 0.102367 0.0415098 0.110844 0.0379235 0.0918384
64 3 O -0.871844 70.9523 2.89108 -1.2 1 0.0164776 0.0114612 0.0280593 0.0223964 0.0218826 0.0237688 0.0451724 0.0518209 0.0406937 0.0439744 0.0584938 0.0494087 0.0534311 0.0664372 0.0895401 0.0677878 0.0881779 0.0572798 0.0779466 0.0598358
65 1 Mg -2.23407 77.0418 4.53861 1.2 1 0.0113097 0.0119229 0.0228159 0.0301998 0.0162661 0.0254061 0.0225824 0.0312642 0.038468 0.0541228 0.050984 0.0599827 0.0508119 0.0592125 0.0642479 0.0729788 0.0860888 0.0803682 0.0759251 0.0688778
66 2 Si 0.363546 78.9807 4.51135 2.4 1 0.0101194 0.00578444 0.0187477 0.0403907 0.0293159 0.0325318 0.0368785 0.0399144 0.0522695 0.0519672 0.0552484 0.062654 0.0759609 0.053018 0.0777028 0.0701589 0.0635804 0.0864947 0.058952 0.0550145
67 3 O -1.2269 79.1445 4.49682 -1.2 1 0.0317421 0.0116518 0.0139736 0.0179112 0.0171959 0.0310377 0.0293293 0.0679481 0.0402947 0.0521881 0.0433342 0.0680551 0.0538155 0.0666758 0.0710503 0.0697905 0.0613816 0.0741683 0.0533763 0.0809775
68 3 O 1.4272 75.0738 4.47045 -1.2 1 0.00874688 0.0187157 0.022351 0.0256599 0.017448 0.0318781 0.0365853 0.0465292 0.0604286 0.0370944 0.048981 0.0420964 0.0572068 0.0739179 0.0983984 0.0694351 0.0745051 0.05139 0.077062 0.0614915
69 3 O 1.01283 78.3369 3.21113 -1.2 1 0.0137234 0.0143498 0.0222222 0.0199524 0.0209224 0.0154673 0.0420953 0.0501148 0.0386975 0.0398222 0.0555656 0.0376092 0.052282 0.0607538 0.0871263 0.0726038 0.0755885 0.0610875 0.0621406 0.068043
70 3 O 1.05107 78.3512 5.81206 -1.2 1 0.0124887 0.0290534 0.0258841 0.0169652 0.0239705 0.0222219 0.0439398 0.0450513 0.0413782 0.0433774 0.052934 0.040902 0.0549668 0.059683 0.0891338 0.0761578 0.0766291 0.0636398 0.0629025 0.0658979
71 1 Mg 0.0562807 74.7341 2.94956 1.2 1 0.00675832 0.0199671 0.0106941 0.0336894 0.00912782 0.0340873 0.0140413 0.0568469 0.0136446 0.0800445 0.0179623 0.0499623 0.0214609 0.0773125 0.0228573 0.0984449 0.0338496 0.111348 0.0320587 0.0847738
72 1 Mg 0.0403567 71.7197 4.42117 1.2 1 0.0311117 0.0201958 0.0110348 0.0334439 0.0148895 0.026041 0.0229991 0.0374749 0.0411061 0.0511319 0.0615085 0.0559592 0.0625738 0.0735214 0.076514 0.0702551 0.075938 0.0873391 0.0811997 0.0628039
73 2 Si 2.11911 73.6263 4.49109 2.4 1 0.0297226 0.0160041 0.0219145 0.0216843 0.0287645 0.0317616 0.0410459 0.0437852 0.0501153 0.0502336 0.0516215 0.067437 0.0669953 0.0559145 0.0700121 0.0805054 0.0629922 0.0945863 0.0575337 0.059422
74 3 O -1.10889 73.6207 4.33763 -1.2 1 0.0315063 0.0137207 0.0141214 0.0214232 0.0271458 0.0272688 0.0255911 0.0773481 0.0384841 0.0610528 0.0441202 0.0647084 0.0636768 0.0717207 0.0718589 0.0591196 0.0656855 0.0580011 0.0765183 0.0636271
75 3 O 1.26626 69.8892 4.62185 -1.2 1 0.00855999 0.0195613 0.021116 0.0264351 0.0140321 0.0333006 0.0424382 0.0459401 0.05588 0.0405189 0.0431924 0.0519621 0.0543135 0.0721953 0.10817 0.0691101 0.0758267 0.0500099 0.0735646 0.0625688
76 3 O 1.47066 72.8685 3.23274 -1.2 1 0.0297207 0.0218965 0.0235207 0.0105746 0.0185334 0.0261981 0.0373855 0.0416177 0.030574 0.0485437 0.0597183 0.0368547 0.0603261 0.0562409 0.0802281 0.0783059 0.0715671 0.0674333 0.0672265 0.071362
77 1 Mg 0.0519775 74.8949 -0.0807916 1.2 1 0.0148906 0.0212693 0.01049 0.0363608 0.0191046 0.0260979 0.0230375 0.0500611 0.0272007 0.0805713 0.0231095 0.0458518 0.0200134 0.0782868 0.0306332 0.0994469 0.0509993 0.107281 0.0568733 0.0781005
78 3 O 1.50239 73.0527 5.83461 -1.2 1 0.00619956 0.0263718 0.0288505 0.0212055 0.0246684 0.0210571 0.0533287 0.040864 0.0363802 0.0464323 0.0618448 0.0379855 0.0548464 0.0776155 0.080076 0.0730253 0.0738578 0.0662727 0.0657263 0.0662191
79 1 Mg 0.00897316 77.7755 1.61667 1.2 1 0.0216345 0.0101622 0.0129673 0.0315646 0.0176223 0.026196 0.0229879 0.037143 0.0450442 0.056926 0.0582795 0.0579853 0.0591751 0.0663256 0.0749166 0.0697177 0.0765379 0.0947291 0.0685566 0.0809468
80 2 Si -2.01721 75.7499 1.57669 2.4 1 0.0139132 0.0149201 0.0210222 0.0236526 0.0312119 0.033437 0.0420085 0.0432561 0.0516635 0.0488465 0.0548358 0.0647411 0.0741688 0.0517532 0.0793261 0.0725322 0.0623167 0.0950044 0.0560932 0.0493292
81 3 O 1.22334 75.6498 1.4429 -1.2 1 0.0212587 0.0163927 0.016318 0.0190464 0.0267142 0.025944 0.0295199 0.0757044 0.0389964 0.0489123 0.0452239 0.0685553 0.0487292 0.0747318 0.077078 0.0690647 0.0624143 0.0763998 0.0594257 0.0701456
82 3 O -1.07014 79.5408 1.43569 -1.2 1 0.0171582 0.0222255 0.0184427 0.0196373 0.0140993 0.0339946 0.0386436 0.0448131 0.0539646 0.0416773 0.0409018 0.0473789 0.0531289 0.0743398 0.101663 0.0704105 0.0771734 0.0547863 0.0730489 0.0592722
83 3 O -1.35045 76.5528 0.245373 -1.2 1 0.0128431 0.0103625 0.0268976 0.0177354 0.021414 0.022616 0.0466129 0.0463172 0.02692 0.0504685 0.0506542 0.0476439 0.0594224 0.0651331 0.0871874 0.0772112 0.0714868 0.0691155 0.061134 0.0671973
84 3 O -1.4451 76.3975 2.85923 -1.2 1 0.00532046 0.00972596 0.0269665 0.0250405 0.028506 0.0194185 0.046067 0.0399301 0.0370409 0.0479869 0.0546917 0.0433101 0.053899 0.0749492 0.0759444 0.0745579 0.0792144 0.0536496 0.0636549 0.06624
85 1 Mg -2.3049 80.1132 -0.153252 1.2 1 0.00356625 0.0223958 0.0191191 0.0230527 0.0130329 0.0378166 0.0194752 0.058941 0.0290069 0.0781692 0.0257442 0.0505052 0.0332098 0.0715236 0.0343585 0.0991976 0.0467517 0.106162 0.0519284 0.0864712
86 1 Mg 2.17807 82.9307 1.50692 1.2 1 0.0168623 0.0152501 0.0243456 0.034544 0.0178608 0.0339 0.0204947 0.0334098 0.0448447 0.0574802 0.0611551 0.0534624 0.0574099 0.0648849 0.0607227 0.090172 0.0709642 0.0813282 0.0771485 0.0755775
87 2 Si -0.36795 81.0768 1.4337 2.4 1 0.0245681 0.0143528 0.020021 0.0276834 0.0331742 0.0322849 0.0375315 0.040416 0.0469887 0.0563674 0.0534131 0.065641 0.070449 0.0540118 0.0796784 0.0726979 0.0586613 0.0851611 0.0601321 0.0616307
88 3 O 1.185 81.0002 1.37457 -1.2 1 0.0266987 0.0277423 0.0241459 0.0240596 0.0277006 0.0280584 0.0243199 0.072702 0.0396314 0.0558333 0.0393842 0.0706614 0.0598657 0.0683085 0.0757584 0.0607459 0.0662702 0.0710837 0.062505 0.063291
89 3 O -1.5742 84.7445 1.56906 -1.2 1 0.0120066 0.0214194 0.024799 0.0203685 0.0215229 0.0364257 0.0336605 0.0481027 0.0515978 0.0447629 0.0485109 0.0447793 0.0523877 0.0684852 0.101558 0.0702374 0.0696843 0.0527029 0.0741376 0.0685982
90 3 O -1.05121 81.8037 0.223859 -1.2 1 0.0090142 0.00972807 0.028858 0.0218161 0.0229461 0.0174119 0.0485138 0.0433245 0.0341498 0.050063 0.0558878 0.0388234 0.0617191 0.0556784 0.0830309 0.0801971 0.0764083 0.0638134 0.0636742 0.0781018
91 1 Mg -2.387 90.6548 2.96369 1.2 1 0.00810685 0.0173046 0.0119913 0.0376243 0.00900376 0.0375998 0.00789967 0.0615213 0.0164821 0.0804453 0.0239433 0.0514545 0.0165697 0.0721058 0.0240364 0.109215 0.0332452 0.11426 0.0293525 0.0930168
92 3 O -0.965018 81.7331 2.70884 -1.2 1 0.0135337 0.0269183 0.024595 0.0227448 0.0249737 0.0264521 0.0432134 0.0445108 0.0418511 0.0464457 0.0529239 0.0440078 0.0567015 0.0692591 0.0780075 0.0785341 0.0692182 0.0647234 0.0709966 0.06617
93 1 Mg -2.45471 87.7478 4.5563 1.2 1 0.0233835 0.012245 0.0228232 0.0226806 0.0116009 0.0295974 0.0211432 0.0330715 0.0494931 0.060867 0.0513268 0.0525569 0.0572971 0.0664044 0.0623152 0.0797707 0.0609984 0.107046 0.0575202 0.0929979
94 2 Si 0.342161 89.633 4.47324 2.4 1 0.00774058 0.00968617 0.0182066 0.0302823 0.032616 0.0356799 0.0439936 0.0389811 0.0550563 0.0573423 0.0540715 0.0637149 0.0750874 0.0615373 0.0715757 0.0638809 0.0625041 0.0965801 0.0583345 0.062295
95 3 O -1.222 89.7687 4.49908 -1.2 1 0.0189954 0.0166933 0.0204587 0.0253519 0.0348158 0.0338575 0.0234853 0.0710094 0.0472101 0.0562669 0.0487043 0.0700833 0.053626 0.0675429 0.0732764 0.0724308 0.0662058 0.0775344 0.0482484 0.0775945
96 3 O 1.30777 85.794 4.57098 -1.2 1 0.00651603 0.0115083 0.0206405 0.0255527 0.0219432 0.0303811 0.0377485 0.043442 0.0475224 0.0423282 0.0420515 0.0490328 0.0489154 0.0727373 0.102821 0.0749554 0.0778804 0.0475264 0.0723717 0.0669781
97 3 O 1.04235 88.7945 3.27971 -1.2 1 0.00512523 0.00967857 0.0222043 0.0213345 0.030751 0.019579 0.0447131 0.0484086 0.0362012 0.0456481 0.0542454 0.0413085 0.0576916 0.0635892 0.0818203 0.0710563 0.0697299 0.06655 0.0593009 0.0697306
98 3 O 0.986032 88.9057 5.77585 -1.2 1 0.00994562 0.0220542 0.0221689 0.0218661 0.0272612 0.017223 0.0444544 0.0411116 0.0353466 0.0455201 0.0552286 0.0391477 0.0494508 0.0664341 0.0813391 0.0718314 0.0776627 0.0631811 0.0696653 0.0681636
99 1 Mg -0.091901 85.1757 3.01313 1.2 1 0.00862754 0.0208894 0.0149209 0.0382414 0.0101942 0.0361113 0.0225476 0.0546962 0.0234567 0.0789323 0.0197891 0.0525767 0.0199032 0.0766838 0.0343024 0.101542 0.0357598 0.114168 0.0436815 0.088685
100 1 Mg 0.13869 82.3329 4.38413 1.2 1 0.015285 0.0148009 0.0186794 0.0298929 0.0185208 0.0291096 0.0273974 0.039671 0.0495584 0.0524717 0.0565097 0.0577621 0.0606354 0.0636864 0.0682066 0.066445 0.0698319 0.101809 0.0618165 0.0816909
101 2 Si 2.00414 84.3594 4.57312 2.4 1 0.0205856 0.00974115 0.0290664 0.0261882 0.0388902 0.0262019 0.0464476 0.0394058 0.0508185 0.0499165 0.0483162 0.0627866 0.0689189 0.0605397 0.0811327 0.0675104 0.0633184 0.0899357 0.0562441 0.0543865
102 3 O -1.27033 84.4899 4.44468 -1.2 1 0.0191006 0.00854161 0.0288614 0.0201627 0.0264171 0.03268 0.0353946 0.0689011 0.0481373 0.0403899 0.0459493 0.0663048 0.056984 0.0592345 0.0785377 0.0707213 0.0590165 0.0790153 0.0501893 0.0810807
103 3 O 1.0004 80.5816 4.38087 -1.2 1 0.0154836 0.0259124 0.0224982 0.0209959 0.0204336 0.0367054 0.0411262 0.0478225 0.0446427 0.0434232 0.0471642 0.0473538 0.0539425 0.0696299 0.10439 0.0782151 0.0685066 0.0549135 0.0681042 0.0620037
104 3 O 1.34461 83.5553 3.35042 -1.2 1 0.00896567 0.0157375 0.0273096 0.0178905 0.0271457 0.0202452 0.0427508 0.0382042 0.0342812 0.0501713 0.0523367 0.0440465 0.0618653 0.0605841 0.0840234 0.0711666 0.0766962 0.063331 0.0698826 0.0625597
105 1 Mg -0.250319 85.3985 0.0133637 1.2 1 0.0153531 0.0163382 0.0106961 0.0309913 0.0107291 0.0368433 0.0219312 0.0582072 0.0279672 0.079371 0.0287223 0.0437958 0.0334593 0.067568 0.0252964 0.0925921 0.0547473 0.109228 0.0577965 0.0850101
106 3 O 1.36723 83.4835 5.76326 -1.2 1 0.00821881 0.0152624 0.0249729 0.0222902 0.0298867 0.0218323 0.0448207 0.0461227 0.0366377 0.0486201 0.0634765 0.042247 0.0590064 0.0572274 0.0840273 0.0799835 0.0601164 0.0658883 0.0630571 0.06477
107 1 Mg -0.0716733 88.248 1.71247 1.2 1 0.0173112 0.00932935 0.0187674 0.0306078 0.0199916 0.0278753 0.0241951 0.0330998 0.0451678 0.0576235 0.0551114 0.058022 0.0572781 0.0686186 0.0657654 0.0715021 0.0747812 0.094351 0.0682106 0.0811452
108 2 Si -2.20373 86.288 1.69599 2.4 1 0.0085357 0.0116057 0.0148268 0.0209958 0.0326579 0.0276625 0.0426991 0.0368909 0.0492837 0.0625996 0.0542689 0.064143 0.0705718 0.0547276 0.083249 0.068083 0.0676193 0.0821414 0.0555802 0.0575901
109 3 O 1.01135 86.1318 1.62499 -1.2 1 0.022996 0.0263224 0.0157644 0.0213137 0.0265133 0.0283821 0.0270735 0.0638781 0.0410315 0.0503573 0.0425509 0.0704014 0.0544724 0.0651675 0.077015 0.0718561 0.0631174 0.079627 0.0531194 0.0795505
110 3 O -0.92492 90.0709 1.60615 -1.2 1 0.0123267 0.0137278 0.0208966 0.020567 0.0186282 0.0381669 0.0355693 0.0441615 0.0524339 0.043707 0.0473932 0.044333 0.0540327 0.069402 0.103163 0.0744369 0.0677199 0.0553443 0.0759541 0.0621521
111 3 O -1.51572 86.9749 0.341356 -1.2 1 0.0148868 0.0216941 0.0266074 0.0236229 0.0275706 0.0211189 0.0472904 0.0446904 0.0350557 0.0491154 0.0554808 0.045182 0.0496313 0.072807 0.0787142 0.0737406 0.0724609 0.0660252 0.0704573 0.0693239
112 3 O -1.44569 87.0366 2.82285 -1.2 1 0.01694 0.0177327 0.019649 0.0282068 0.0263969 0.0239662 0.0505765 0.0518484 0.0353076 0.0414889 0.0549969 0.0432737 0.0523353 0.0692871 0.0799889 0.0815484 0.0716115 0.0623668 0.0661742 0.0722832
113 1 Mg -2.41614 90.7111 0.0657748 1.2 1 0.0117265 0.014055 0.0125758 0.0331355 0.00955215 0.040038 0.0165849 0.0606295 0.0214304 0.0815473 0.0171701 0.0477529 0.0232624 0.0676114 0.0207627 0.103048 0.0403817 0.111266 0.0435338 0.0977208
114 1 Mg 2.41067 93.4735 1.64925 1.2 1 0.0157753 0.0167092 0.019564 0.0289367 0.0156065 0.0317947 0.0285895 0.0353071 0.0461779 0.0584339 0.0536901 0.0575467 0.0587489 0.0686813 0.0639542 0.077982 0.0716357 0.0973348 0.0681921 0.0876836
115 2 Si -0.262017 91.6093 1.56137 2.4 1 0.00721014 0.010922 0.0153958 0.0322442 0.0315274 0.0341506 0.0430645 0.0330562 0.0528887 0.0582142 0.0488771 0.0689112 0.0760296 0.0577697 0.0828206 0.0683723 0.0663523 0.0875133 0.0597876 0.0668453
116 3 O 1.28183 91.5032 1.58079 -1.2 1 0.010419 0.0132837 0.0220511 0.0217098 0.0201755 0.0305782 0.0293974 0.0700279 0.0362982 0.0549336 0.0394717 0.0668157 0.054729 0.0666745 0.0701735 0.0735316 0.0589523 0.0749296 0.059193 0.075964
117 3 O -1.49256 95.2875 1.59145 -1.2 1 0.00772632 0.020023 0.0209719 0.0201681 0.0162204 0.0335879 0.0314346 0.0443651 0.0527435 0.0481027 0.0434129 0.0470283 0.0548998 0.0703709 0.0996178 0.0782226 0.0646556 0.0541436 0.0706703 0.0673903
118 3 O -0.952298 92.2723 0.224965 -1.2 1 0.00873192 0.0111184 0.0204386 0.0167568 0.0173104 0.0287182 0.0482357 0.0494915 0.0408958 0.045935 0.0542974 0.0359666 0.0581247 0.0693041 0.0816784 0.0781725 0.0668332 0.065325 0.0651908 0.0751063
119 1 Mg -2.39668 101.244 2.99266 1.2 1 0.0210695 0.0191234 0.00868949 0.032455 0.0163543 0.0341259 0.0171736 0.0540617 0.0285956 0.0733184 0.0304078 0.0452904 0.0275016 0.0657436 0.036146 0.0982892 0.056448 0.103613 0.0570711 0.0740531
120 3 O -0.89197 92.2947 2.80767 -1.2 1 0.02272 0.0117712 0.0226249 0.0212842 0.035026 0.0217562 0.0444509 0.041305 0.0373331 0.0585894 0.0503311 0.0417981 0.0563212 0.0719901 0.0766773 0.0822162 0.0733711 0.063431 0.0645654 0.0719127
121 1 Mg -2.23149 98.0717 4.41767 1.2 1 0.0209017 0.0104609 0.0166419 0.0263362 0.00817089 0.0219627 0.0239974 0.0372118 0.0403512 0.0600352 0.0574945 0.0615925 0.061562 0.0618054 0.0662728 0.0657353 0.0757033 0.0928853 0.0781789 0.0736909
122 2 Si 0.375666 100.096 4.6153 2.4 1 0.0244421 0.0193907 0.0200769 0.0313427 0.0235183 0.0301349 0.0387924 0.038443 0.0483649 0.0636701 0.0546128 0.0603859 0.0656978 0.0604443 0.0800967 0.0736006 0.0627824 0.0928836 0.0561802 0.058215
123 3 O -1.29665 100.1 4.53684 -1.2 1 0.0328945 0.00759065 0.0177412 0.0199058 0.0160655 0.0277955 0.0185066 0.0603556 0.0382132 0.0576619 0.045664 0.0664932 0.0476416 0.0702307 0.0764811 0.0628176 0.0587629 0.0745507 0.0583761 0.0774876
124 3 O 1.2527 96.3767 4.44765 -1.2 1 0.00901033 0.0136894 0.0271643 0.019783 0.0182982 0.038231 0.0377868 0.0425629 0.0518586 0.0433207 0.0390317 0.0514117 0.0494343 0.067292 0.105837 0.0646645 0.0721952 0.053715 0.0634179 0.0622349
125 3 O 0.944865 99.4279 3.33473 -1.2 1 0.0243685 0.010509 0.0260139 0.0196536 0.0339655 0.0160683 0.0449125 0.0429086 0.0400993 0.0381176 0.0488862 0.0424658 0.0512593 0.0682671 0.0711527 0.0676092 0.0848179 0.0591877 0.0760404 0.0694932