ITEM: TIMESTEP
97700
ITEM: NUMBER OF ATOMS
5600
ITEM: BOX BOUNDS xy xz yz pp pp pp
0	7.1235	0
0	201.985	2.3745
0	119.584	0
ITEM: ATOMS id type element xu yu zu q Q_1 Q_2 Q_3 Q_4 Q_5 Q_6 Q_7 Q_8 Q_9 Q_10 Q_11 Q_12 Q_13 Q_14 Q_15 Q_16 Q_17 Q_18 Q_19 Q_20 Q_21
1 1 Mg -1.11223 47.3606 -1.433 1.2 1 0.452281 0.0644109 0.120816 0.0437041 0.0787692 0.0501169 0.0549033 0.0590497 0.0686034 0.07024 0.0528478 0.0759455 0.0661813 0.0965265 0.109153 0.104107 0.089809 0.0951561 0.0991619 0.101823
2 1 Mg 3.37209 49.906 1.90035 1.2 1 0.266064 0.107683 0.0374378 0.0701885 0.0360097 0.0463907 0.0675647 0.052595 0.0626637 0.0726999 0.0834056 0.0836761 0.0705878 0.0818432 0.0689867 0.0719011 0.0891451 0.0782837 0.0911422 0.0860007
3 2 Si 1.39195 49.1318 -0.0306943 2.4 1 0.301803 0.129169 0.0400733 0.0712907 0.0519611 0.0549098 0.0626018 0.0695509 0.0572585 0.0601772 0.0641039 0.0744894 0.0929319 0.0739029 0.082432 0.0773366 0.0769561 0.0869515 0.0809848 0.0900121
4 3 O 2.72207 48.2991 0.109454 -1.2 1 0.382258 0.108484 0.0821047 0.0793896 0.0524966 0.06811 0.0455977 0.0679565 0.0600706 0.0837471 0.0679492 0.0835065 0.0708607 0.0844149 0.0902244 0.0959037 0.0837115 0.0757892 0.081604 0.097737
5 3 O -1.07327 52.1334 1.71973 -1.2 1 0.110055 0.0663354 0.0408895 0.0339339 0.0321457 0.0416387 0.0557097 0.0551967 0.0654253 0.0637647 0.0571917 0.0629175 0.063984 0.0729311 0.0892806 0.0892097 0.0639444 0.0605615 0.064797 0.0750719
6 3 O 0.669501 48.3824 -1.15529 -1.2 1 0.368492 0.101234 0.0569575 0.0813387 0.0393435 0.0753779 0.0465159 0.0685183 0.0684644 0.0730994 0.0732408 0.0820207 0.0988108 0.0982552 0.0834574 0.0778064 0.100057 0.0805186 0.0751132 0.0937339
7 1 Mg -1.90623 57.199 3.15688 1.2 1 0.0218131 0.0100774 0.0160381 0.0221133 0.0274761 0.0180923 0.0367085 0.0583775 0.0563487 0.0634828 0.0530499 0.0446655 0.0466256 0.0578958 0.0636396 0.0799809 0.0862171 0.0798749 0.0781005 0.0724254
8 3 O 0.397704 49.4002 1.1985 -1.2 1 0.304305 0.125006 0.0435848 0.0798396 0.0341451 0.0445148 0.0694509 0.0570088 0.0941074 0.0807188 0.0723594 0.0667178 0.0669596 0.0757256 0.0729702 0.0813658 0.0899695 0.0767019 0.0887293 0.0966094
9 1 Mg -1.92353 54.8783 4.86857 1.2 1 0.0303302 0.0223884 0.0213173 0.0309449 0.021379 0.0295763 0.0313027 0.0400877 0.0459195 0.050309 0.0524047 0.0542291 0.0504196 0.0724804 0.0604174 0.081245 0.0532605 0.10251 0.0785748 0.0709112
10 2 Si 0.750845 56.5552 4.80817 2.4 1 0.0300353 0.0176321 0.0225129 0.0356265 0.0188811 0.0305514 0.0515426 0.0411908 0.0519489 0.0775194 0.0460489 0.0628196 0.0722179 0.0582309 0.0832524 0.0607041 0.0670031 0.0738167 0.0745991 0.0878285
11 3 O -0.880057 56.4861 4.70195 -1.2 1 0.0167583 0.0334288 0.0232521 0.0265317 0.0112724 0.0310181 0.0330087 0.0808668 0.0373029 0.0731841 0.0428305 0.0497199 0.067102 0.07568 0.0746971 0.0694413 0.0695299 0.0677881 0.0758838 0.0607495
12 3 O 1.82801 52.9024 4.69627 -1.2 1 0.0648749 0.0473491 0.0495897 0.0288852 0.0261359 0.0344185 0.0382009 0.044053 0.05785 0.0564956 0.0504767 0.0500335 0.0652791 0.0766607 0.0798208 0.0684294 0.0733873 0.0617436 0.0873589 0.078544
13 3 O 1.49468 55.7435 3.62415 -1.2 1 0.0259279 0.0286703 0.0266743 0.021494 0.0280989 0.0333817 0.0377306 0.0538124 0.0460644 0.056307 0.0510055 0.0522465 0.0578861 0.0732542 0.075901 0.0769497 0.0586176 0.0664705 0.0671736 0.0695649
14 3 O 1.44865 55.819 6.2616 -1.2 1 0.0249717 0.0259121 0.0182519 0.0262066 0.026184 0.0343067 0.045766 0.0522314 0.0372535 0.0541313 0.0607932 0.0519503 0.0387685 0.0691187 0.0674018 0.0709293 0.0708013 0.0665762 0.0733785 0.0788427
15 1 Mg 0.306928 52.326 3.09919 1.2 1 0.0856491 0.0678743 0.0473496 0.0315217 0.02259 0.0345654 0.0425595 0.0511801 0.0445431 0.0618377 0.0565494 0.0548007 0.0612551 0.0584458 0.0515099 0.0881409 0.0748902 0.0878743 0.0669406 0.0810314
16 1 Mg 0.719068 49.1891 3.19283 1.2 1 0.33104 0.107755 0.0349778 0.0715162 0.0498708 0.0566148 0.0586539 0.0579243 0.0681685 0.0816705 0.0630126 0.0793099 0.0775513 0.0597605 0.0671904 0.0918031 0.0943053 0.0914658 0.0775806 0.0697186
17 2 Si 2.48854 51.4143 4.62944 2.4 1 0.141851 0.0875824 0.0557444 0.0297097 0.0302173 0.0457967 0.0363722 0.0427419 0.0590467 0.0658053 0.0744323 0.0761745 0.0771892 0.0776475 0.0736423 0.076911 0.0663474 0.0900346 0.0959294 0.0708225
18 3 O -0.803474 51.8315 4.4722 -1.2 1 0.139114 0.0811062 0.0401049 0.0256448 0.0267399 0.0362387 0.0482503 0.048375 0.0488466 0.0659822 0.0600937 0.0736131 0.0585903 0.0653181 0.0852273 0.0922304 0.0870691 0.0682714 0.0656488 0.0702389
19 3 O 3.7614 48.866 3.72562 -1.2 1 0.370199 0.0909446 0.0658837 0.0610728 0.0453281 0.0549242 0.0563261 0.0745688 0.0741589 0.08001 0.0568647 0.0692572 0.0833929 0.0881815 0.0834824 0.0901809 0.0904724 0.0914943 0.088818 0.080026
20 3 O 1.93082 50.7353 3.18935 -1.2 1 0.203334 0.0983376 0.0342669 0.0234608 0.0283164 0.042892 0.0497392 0.0870363 0.0511124 0.0760081 0.056921 0.0489176 0.0757593 0.0772342 0.0919825 0.0606725 0.0792004 0.0900201 0.0710406 0.091121
21 1 Mg 0.0718391 52.839 -0.206427 1.2 1 0.0634295 0.056802 0.0352636 0.0312846 0.0371054 0.0269295 0.0306621 0.0557094 0.0548779 0.059316 0.0575375 0.050058 0.0644173 0.0647934 0.064038 0.071012 0.0706934 0.0821988 0.0786361 0.0876631
22 3 O 1.47256 50.652 5.76692 -1.2 1 0.211118 0.09366 0.0306622 0.0248103 0.0513823 0.0337871 0.0399315 0.0553072 0.0572425 0.0503401 0.0479441 0.0569098 0.0636471 0.0733562 0.0887998 0.0837261 0.0774942 0.0788839 0.0779416 0.0733522
23 1 Mg 0.392089 55.2332 1.7775 1.2 1 0.0142701 0.0296619 0.0215087 0.0240099 0.0205927 0.0284959 0.0389066 0.0393574 0.0441363 0.0574337 0.0600333 0.0615506 0.0701389 0.0645241 0.0565828 0.0900131 0.0566229 0.0923941 0.0599699 0.0754348
24 2 Si -1.88343 53.4779 1.66999 2.4 1 0.0322468 0.0443364 0.0260159 0.037331 0.0272445 0.0455136 0.0528739 0.0375845 0.0604616 0.0717622 0.0552245 0.06413 0.0649676 0.058176 0.0784647 0.060843 0.0859093 0.0912948 0.0629554 0.0788913
25 3 O 1.35003 53.422 1.49429 -1.2 1 0.0305867 0.0569462 0.0336954 0.0334412 0.0277115 0.0464718 0.0349884 0.0676999 0.0583947 0.058012 0.045411 0.0497855 0.0705143 0.0646407 0.0730148 0.0640087 0.0816486 0.0765366 0.0710165 0.0608419
26 3 O -0.372177 57.1062 1.8808 -1.2 1 0.0217328 0.00852349 0.0235118 0.0212394 0.0234661 0.0246432 0.0424768 0.0508661 0.0456928 0.063419 0.0387233 0.0598203 0.0599532 0.0724059 0.089135 0.0811258 0.0792426 0.0698822 0.0717153 0.0589789
27 3 O -1.28141 54.1622 0.200928 -1.2 1 0.0259159 0.0429931 0.0286345 0.0277459 0.0276939 0.0360747 0.0522727 0.0544645 0.0420726 0.0693396 0.0638853 0.057187 0.0593322 0.0752856 0.0624884 0.0754863 0.0827648 0.0617777 0.0766162 0.0556335
28 3 O -1.10216 54.435 2.7631 -1.2 1 0.0118613 0.0261897 0.0303807 0.0304809 0.0257135 0.0248493 0.0475152 0.0569846 0.047758 0.054201 0.0652863 0.0541765 0.0650123 0.058695 0.0752984 0.0641907 0.0607332 0.0813732 0.0697242 0.0694876
29 1 Mg -2.12245 57.5214 0.204655 1.2 1 0.0154469 0.0207861 0.0109505 0.0332838 0.0317443 0.0345726 0.0264968 0.052636 0.0303784 0.0713314 0.0463692 0.0438752 0.0354809 0.0660156 0.0477388 0.0846446 0.0558667 0.0907171 0.0657346 0.0834014
30 1 Mg 3.32212 60.9149 2.57853 1.2 1 0.0301284 0.045194 0.0317735 0.0250793 0.0335729 0.0436543 0.0315266 0.041866 0.0479814 0.0482015 0.0641194 0.0574077 0.0570816 0.0705889 0.0682362 0.0648728 0.0893959 0.069674 0.05681 0.0686573
31 2 Si -0.0229727 58.5745 1.94674 2.4 1 0.0115935 0.0130101 0.0358686 0.0285372 0.0348567 0.0355536 0.0400889 0.046502 0.04855 0.054781 0.0500701 0.0581484 0.0653903 0.0762982 0.0717122 0.0759026 0.054628 0.102795 0.0633888 0.0611194
32 3 O 1.81957 58.4182 2.16175 -1.2 1 0.0376872 0.0176809 0.0340983 0.0197551 0.0274787 0.026695 0.0335065 0.0698018 0.0494528 0.0596479 0.0453958 0.0614849 0.0435783 0.0745122 0.0656448 0.0623705 0.073447 0.067834 0.0722295 0.0624049
33 3 O -0.911196 62.7215 2.23449 -1.2 1 0.0217465 0.0350747 0.0351978 0.0366684 0.0181339 0.0279286 0.0377983 0.0574622 0.0621375 0.0384215 0.0545491 0.0438857 0.0580489 0.0773007 0.0840866 0.0820124 0.0776744 0.0722915 0.0736801 0.0571171
34 3 O -0.618294 59.3554 0.764541 -1.2 1 0.0300814 0.0301399 0.0257531 0.0294789 0.0371618 0.0321206 0.0466209 0.0434567 0.0392543 0.0502116 0.0621535 0.0561305 0.0475032 0.061275 0.0805484 0.0716142 0.0941383 0.0664584 0.0676607 0.0646362
35 1 Mg -1.73839 68.2395 3.50659 1.2 1 0.0153483 0.0258786 0.0143415 0.0306588 0.0196987 0.0339834 0.0251252 0.0662378 0.0382588 0.0624127 0.0319952 0.0502338 0.0419099 0.0678095 0.0584638 0.0864578 0.0703757 0.0949199 0.0550131 0.0775626
36 3 O -0.343466 59.251 3.30935 -1.2 1 0.0482388 0.0117407 0.0250637 0.0296917 0.0368 0.026033 0.0506889 0.0360928 0.0496252 0.0470843 0.0591976 0.0517175 0.0438447 0.0674094 0.074221 0.073854 0.0731084 0.058229 0.0650391 0.0654841
37 1 Mg -1.81262 65.5044 5.20765 1.2 1 0.037931 0.0211738 0.0106688 0.0269023 0.0217366 0.0348075 0.0335296 0.0461381 0.0568734 0.0557415 0.062974 0.0453915 0.0633033 0.0677486 0.079425 0.0781575 0.0777338 0.085703 0.0607106 0.0748484
38 2 Si 0.996967 67.3291 4.87434 2.4 1 0.0184178 0.0157066 0.0223287 0.0318413 0.037665 0.0388129 0.0401183 0.0413781 0.0580687 0.0547282 0.0491992 0.0669885 0.0751037 0.060574 0.0713497 0.0717935 0.070408 0.0873814 0.064484 0.0635515
39 3 O -0.584875 67.3189 4.94302 -1.2 1 0.0199816 0.0173008 0.0224794 0.0173532 0.0281125 0.0324436 0.0285214 0.0701921 0.0376095 0.0614241 0.0413894 0.0694844 0.0592889 0.0781925 0.0739329 0.071027 0.0641157 0.0686948 0.0732498 0.0683269
40 3 O 2.05765 63.5262 5.17367 -1.2 1 0.0192784 0.0185918 0.0264164 0.0305186 0.021595 0.0368972 0.0368073 0.0368106 0.0646896 0.0483303 0.0551357 0.0443431 0.0555996 0.0846144 0.0899024 0.0797949 0.0770772 0.0496975 0.0821911 0.0608247
41 3 O 1.62599 66.4443 3.49929 -1.2 1 0.0161572 0.0223671 0.0180744 0.0248404 0.0376271 0.0252744 0.0467459 0.0533863 0.0562588 0.0456832 0.0467827 0.0471855 0.0619308 0.0626378 0.0863191 0.0834272 0.06087 0.0772562 0.0668495 0.0633208
42 3 O 1.87426 66.8329 6.21996 -1.2 1 0.0227596 0.00952668 0.0337805 0.0239552 0.0275738 0.0236773 0.0582652 0.0409384 0.0471503 0.0379891 0.0586924 0.0517718 0.0584592 0.0484703 0.090182 0.0709987 0.0819933 0.0733375 0.0749485 0.0664567
43 1 Mg 0.559787 63.1683 3.62337 1.2 1 0.0419667 0.0370979 0.00734099 0.0322082 0.0233819 0.0370618 0.0193468 0.0603061 0.0300367 0.0742942 0.0268741 0.052451 0.0352315 0.076096 0.0414025 0.0958374 0.0624982 0.103607 0.0497088 0.0806836
44 1 Mg 1.0704 59.7378 4.92699 1.2 1 0.0265009 0.0252567 0.0182027 0.0158536 0.0216269 0.0302592 0.0224231 0.0434934 0.0532238 0.0430659 0.0528418 0.0655526 0.0655009 0.0697014 0.0548305 0.0761305 0.0763822 0.0909485 0.0638586 0.076955
45 2 Si 2.68344 62.0229 5.14681 2.4 1 0.0323347 0.0144707 0.0255761 0.0237877 0.0401134 0.0347471 0.0443538 0.040494 0.0509733 0.0497941 0.0601505 0.0695374 0.0759505 0.0458381 0.078961 0.074916 0.07851 0.0858611 0.0591593 0.0560603
46 3 O -0.487697 61.7979 5.03353 -1.2 1 0.0315435 0.0322337 0.0264907 0.0205508 0.0379513 0.0286468 0.0251248 0.0684176 0.0356639 0.0823859 0.0448209 0.053651 0.0559864 0.0735688 0.0754042 0.0598654 0.0618083 0.0585415 0.0720404 0.0797598
47 3 O 1.52528 57.8104 5.04908 -1.2 1 0.00770433 0.0198041 0.0224127 0.0240121 0.0196304 0.0249936 0.042 0.0435574 0.0609224 0.0347246 0.0515341 0.0438763 0.0631046 0.0720111 0.0889466 0.0664262 0.0794887 0.0626935 0.0748649 0.0466311
48 3 O 2.0278 61.3443 3.99098 -1.2 1 0.0302092 0.0288888 0.0299998 0.0209892 0.0420808 0.0259446 0.0465827 0.0474347 0.0302933 0.0512413 0.0486947 0.0496535 0.0500763 0.0661527 0.0753314 0.0683263 0.0869551 0.0728998 0.0604746 0.0670914
49 1 Mg 0.296205 63.1859 0.676772 1.2 1 0.0154384 0.019732 0.0262964 0.0450753 0.0227455 0.0313245 0.0260299 0.0629845 0.0327212 0.0643061 0.0359219 0.0505293 0.0369904 0.0673742 0.0592538 0.0992658 0.0632273 0.0897004 0.0730382 0.0815861
50 3 O 1.88325 61.422 6.56055 -1.2 1 0.015681 0.0128215 0.0214536 0.022819 0.0268876 0.0295863 0.049533 0.0424582 0.0602102 0.0407392 0.057807 0.0375738 0.0556916 0.0569528 0.0947378 0.0690069 0.0823151 0.0689251 0.0688872 0.0781576
51 1 Mg 0.401759 66.174 1.91638 1.2 1 0.02477 0.0273489 0.0203365 0.0342932 0.0130968 0.0337537 0.0374328 0.042723 0.0471779 0.0548437 0.0522973 0.0510491 0.0592137 0.0649653 0.0678336 0.0778963 0.0577654 0.0877114 0.0627387 0.0799643
52 2 Si -1.64866 64.3383 2.34444 2.4 1 0.0285681 0.0287162 0.0262627 0.0316855 0.0338133 0.0379045 0.0430205 0.0480899 0.0620553 0.062758 0.0577951 0.0474698 0.0547516 0.0548665 0.073071 0.0883139 0.0596408 0.0710001 0.0741021 0.0635835
53 3 O 1.54106 64.142 2.16363 -1.2 1 0.0296485 0.0219243 0.0214296 0.0224039 0.0300188 0.032586 0.0299972 0.0854616 0.0453799 0.056323 0.0330407 0.0643465 0.0564973 0.0696218 0.0840269 0.0669448 0.0701538 0.0732692 0.0676469 0.0511729
54 3 O -0.754422 67.8999 1.95898 -1.2 1 0.0145022 0.01921 0.0262101 0.0236597 0.0208315 0.0375089 0.0372467 0.0449488 0.0470096 0.0492614 0.0347228 0.064081 0.0545014 0.0581536 0.0967013 0.0714896 0.0793125 0.0763904 0.0639045 0.0587635
55 3 O -0.930085 65.0647 1.05497 -1.2 1 0.0205483 0.0211972 0.0278788 0.0156625 0.0313316 0.0236997 0.0501339 0.0473343 0.0386251 0.0429708 0.0578487 0.0482887 0.0619878 0.0597551 0.0852779 0.0813902 0.0715047 0.0807783 0.0661042 0.0756691
56 3 O -0.980004 64.907 3.56851 -1.2 1 0.0248762 0.0210071 0.0272581 0.0174249 0.0296506 0.0242203 0.0514346 0.0644263 0.0541333 0.0509026 0.055934 0.0451323 0.0625183 0.0755487 0.0722298 0.0713417 0.0710286 0.0655493 0.0665082 0.0688771
57 1 Mg -1.90954 68.2621 0.356106 1.2 1 0.0150801 0.0197619 0.0155009 0.0301544 0.0175672 0.0366303 0.0318219 0.053135 0.0463804 0.0662238 0.0355472 0.0518516 0.0288374 0.0691394 0.0443726 0.104507 0.0612886 0.0857365 0.0745887 0.0700561
58 1 Mg 2.59244 71.5929 1.71097 1.2 1 0.0276839 0.0176687 0.0288276 0.0343835 0.026355 0.0289356 0.0271254 0.0371446 0.0466181 0.0510041 0.052198 0.0633822 0.050907 0.0662824 0.0663348 0.0753718 0.0750147 0.078793 0.0665325 0.0706262
59 2 Si -0.166351 69.3563 1.93234 2.4 1 0.0206233 0.0150994 0.023481 0.035894 0.0337517 0.0331023 0.042221 0.056186 0.0559498 0.0493605 0.0372479 0.0767756 0.0570139 0.0646651 0.0681711 0.0775907 0.0512021 0.0847073 0.0611339 0.0618799
60 3 O 1.37264 69.3719 1.89721 -1.2 1 0.0270992 0.0250165 0.0173736 0.0146196 0.0254419 0.0355938 0.0310393 0.06742 0.05845 0.0628972 0.045898 0.079924 0.0614889 0.0760557 0.0718877 0.0751925 0.0552551 0.0698995 0.0567044 0.0701958
61 3 O -0.953997 73.566 1.65398 -1.2 1 0.0129108 0.0180838 0.0147378 0.03949 0.0227086 0.0396564 0.0365343 0.0254983 0.0621873 0.0408454 0.0549759 0.0351839 0.0553689 0.0729649 0.0941905 0.0601145 0.0837997 0.0586993 0.0740145 0.0550977
62 3 O -0.90701 70.0174 0.603498 -1.2 1 0.0193508 0.0121175 0.0339584 0.0321614 0.0345018 0.0274304 0.0522702 0.0430208 0.041708 0.0469371 0.0511489 0.0511439 0.0488497 0.0575267 0.0899857 0.0606442 0.0723437 0.0583998 0.0637774 0.068524
63 1 Mg -2.05303 79.4218 3.13936 1.2 1 0.0130482 0.0133192 0.0123069 0.0353983 0.0129831 0.0360042 0.019596 0.067257 0.0261413 0.0732239 0.0249632 0.0599123 0.0317286 0.0693154 0.0362137 0.0929043 0.0462439 0.0974781 0.0510102 0.0827924
64 3 O -0.788408 70.4329 3.00024 -1.2 1 0.0201217 0.0235606 0.0332515 0.0296872 0.025648 0.0304855 0.0374947 0.0416834 0.0531222 0.0465534 0.0633891 0.0434341 0.0659153 0.0634305 0.092582 0.068793 0.0799878 0.0668316 0.0643831 0.0501664
65 1 Mg -1.495 76.2336 4.87459 1.2 1 0.0204105 0.0165905 0.0219725 0.0275289 0.0237113 0.0337839 0.0317671 0.036247 0.0461677 0.0568059 0.0643388 0.0641396 0.0559855 0.0667034 0.0685793 0.0748963 0.0736737 0.0716401 0.078888 0.0579708
66 2 Si 0.808617 78.245 4.68761 2.4 1 0.0125971 0.0134124 0.0168904 0.0310204 0.0450612 0.035866 0.0450525 0.0436814 0.061714 0.049834 0.0469488 0.0681953 0.0807006 0.0590304 0.083003 0.0743292 0.0680664 0.0805459 0.0621864 0.0576761
67 3 O -0.810831 78.5672 4.63148 -1.2 1 0.0244405 0.0265575 0.0259852 0.0277257 0.0224734 0.0273358 0.0364301 0.0654996 0.046481 0.0503842 0.049958 0.0716623 0.0546814 0.0689744 0.0737416 0.078872 0.062285 0.0802598 0.0498499 0.0679066
68 3 O 2.02419 74.4549 4.64638 -1.2 1 0.0143117 0.0191219 0.017368 0.0190902 0.0236928 0.0383224 0.0428549 0.0514511 0.0570741 0.0497464 0.0476029 0.0474851 0.0565082 0.0709234 0.0903648 0.0815777 0.0791303 0.0592714 0.0586889 0.0504048
69 3 O 1.44492 77.685 3.36223 -1.2 1 0.0186609 0.0166996 0.0147048 0.0243737 0.0327288 0.0238917 0.047346 0.0450394 0.0399816 0.0524443 0.0628928 0.0549729 0.0544339 0.066112 0.0989024 0.0716878 0.0725711 0.0574901 0.0625685 0.0711588
70 3 O 1.42695 77.3583 5.80936 -1.2 1 0.0223238 0.0180548 0.0247017 0.0244036 0.0246358 0.034785 0.0420222 0.0474332 0.041431 0.0530587 0.0630397 0.0423711 0.066986 0.0653988 0.0782858 0.087059 0.067998 0.0758682 0.0701159 0.0643202
71 1 Mg 0.554823 74.1058 3.02535 1.2 1 0.0105366 0.0100716 0.0124898 0.0357958 0.0222718 0.0399301 0.0275329 0.0575551 0.0324062 0.0700829 0.0352869 0.0503121 0.0396863 0.0650201 0.0451878 0.0902535 0.0682507 0.0908006 0.0483473 0.0773795
72 1 Mg 0.392883 70.9857 4.51661 1.2 1 0.0188537 0.00749 0.0213045 0.0373072 0.014773 0.0392101 0.0368264 0.0410285 0.0477154 0.0443082 0.0737012 0.0603015 0.0461461 0.0638921 0.0596141 0.0804395 0.0719192 0.0864702 0.0714713 0.0763002
73 2 Si 2.56522 73.0398 4.53845 2.4 1 0.0109391 0.0119731 0.0167897 0.0381117 0.0266492 0.0390318 0.0433634 0.0516661 0.0620486 0.0614521 0.0513223 0.0725616 0.0664104 0.0646032 0.0722649 0.0565277 0.0640406 0.0758512 0.0691989 0.0693242
74 3 O -0.640821 72.8687 4.596 -1.2 1 0.0179098 0.0284292 0.0125979 0.0265481 0.0312991 0.0256898 0.0303836 0.0664134 0.0425514 0.0704921 0.0360262 0.0676146 0.061698 0.0728764 0.0654053 0.0696563 0.0605269 0.0755224 0.0700978 0.0781076
75 3 O 1.41487 68.7386 4.57284 -1.2 1 0.0141564 0.0254955 0.0213334 0.0205898 0.0235588 0.0314879 0.0413399 0.0476114 0.0545117 0.0418121 0.0478672 0.0474919 0.0583589 0.0664204 0.0730019 0.0746858 0.083172 0.0639108 0.0708646 0.0537688
76 3 O 1.76254 72.4715 3.22704 -1.2 1 0.0195875 0.0131625 0.0284902 0.0255101 0.0263572 0.0253436 0.0574582 0.0405833 0.0476557 0.0385467 0.0523107 0.0544372 0.0496407 0.0553718 0.0779433 0.0747784 0.0724566 0.0679814 0.0653433 0.0658692
77 1 Mg 0.283223 73.4195 0.114472 1.2 1 0.0151683 0.0254358 0.0259443 0.0263515 0.024228 0.0347936 0.0330328 0.0470984 0.0498785 0.0531649 0.0542008 0.0433046 0.0494367 0.0583117 0.0661204 0.0865428 0.0764002 0.0777393 0.0716157 0.0515905
78 3 O 2.0273 72.1134 5.67124 -1.2 1 0.0180884 0.0193825 0.0216637 0.0229068 0.0389765 0.0273882 0.047578 0.0459352 0.0434722 0.0543245 0.0578057 0.0546105 0.0653786 0.067055 0.0844947 0.0742035 0.0830892 0.0635704 0.0598992 0.0643788
79 1 Mg 0.28107 77.0472 1.67411 1.2 1 0.0125669 0.0175774 0.0211947 0.0278734 0.018179 0.0346066 0.0268842 0.0355689 0.0486686 0.0484868 0.0626253 0.0543022 0.0538508 0.0722675 0.0700099 0.0741297 0.0765037 0.0897131 0.0656864 0.0707316
80 2 Si -1.56719 75.0759 1.70319 2.4 1 0.0350298 0.017862 0.0135166 0.0226311 0.0380012 0.0455996 0.0294159 0.0449238 0.0654583 0.0479814 0.0518225 0.0707958 0.071846 0.0538955 0.0627349 0.0854045 0.0630452 0.0924795 0.055168 0.0630952
81 3 O 1.59646 75.1158 1.68967 -1.2 1 0.0189081 0.0226498 0.00990893 0.0211169 0.0366617 0.0348974 0.0178906 0.0686512 0.0405975 0.0757538 0.0382129 0.0691434 0.0641237 0.0715413 0.0732991 0.0639837 0.054378 0.0588455 0.0600002 0.0687945
82 3 O -0.779346 78.9489 1.87982 -1.2 1 0.00627196 0.0155923 0.0147142 0.0284373 0.0193952 0.0363547 0.0411636 0.0429575 0.0497624 0.0437146 0.047707 0.0467057 0.0655346 0.0735725 0.0832965 0.0731687 0.086766 0.0536898 0.0678753 0.054839
83 3 O -1.14932 75.7643 0.473285 -1.2 1 0.0267886 0.0301441 0.0160334 0.0351581 0.0216009 0.0285898 0.0431086 0.0478234 0.038748 0.0507564 0.0557413 0.0436405 0.0486971 0.0776068 0.070494 0.0793197 0.0677427 0.079156 0.0531622 0.071259
84 3 O -0.887419 75.7868 3.00432 -1.2 1 0.00875684 0.0218659 0.0266787 0.029836 0.0307294 0.0256533 0.0408394 0.0413549 0.0446239 0.0472593 0.0643377 0.0371812 0.0710641 0.0646299 0.0815967 0.0806309 0.0766723 0.0685961 0.0507969 0.061709
85 1 Mg -1.87733 79.2297 0.224738 1.2 1 0.0214404 0.0285487 0.0140615 0.0293729 0.0243953 0.0368702 0.0291489 0.0575339 0.0301828 0.0821596 0.0205923 0.0538008 0.0314325 0.0729744 0.0360592 0.0983918 0.0435875 0.10143 0.0553351 0.0946726
86 1 Mg 2.84491 82.6201 1.69812 1.2 1 0.0292517 0.0112495 0.0162979 0.0271832 0.0235049 0.0366154 0.0280498 0.0440534 0.043272 0.0509316 0.0549977 0.0607482 0.0547865 0.0630135 0.0794869 0.0656088 0.0857204 0.0797696 0.0657479 0.0828652
87 2 Si 0.052306 80.4818 1.65338 2.4 1 0.00534523 0.0137555 0.0242956 0.0328489 0.039988 0.0333762 0.0443762 0.0422893 0.055481 0.0553558 0.0590824 0.0723466 0.0779451 0.0550421 0.0685205 0.0692458 0.0712407 0.0763936 0.0653359 0.0622799
88 3 O 1.58476 80.4688 1.56498 -1.2 1 0.0181951 0.0271872 0.0204874 0.0171634 0.0333189 0.0327223 0.0268432 0.0771045 0.031143 0.0733191 0.0470679 0.0705485 0.0640689 0.075156 0.0799134 0.061642 0.0576397 0.0554059 0.05578 0.0665133
89 3 O -0.916683 84.498 1.83878 -1.2 1 0.020652 0.0298213 0.0179693 0.0327442 0.0151838 0.0387008 0.045369 0.0481202 0.0538187 0.0409643 0.055809 0.0542663 0.0571098 0.0699454 0.0977383 0.0661291 0.0807846 0.0533263 0.0616731 0.0524021
90 3 O -0.580445 81.2049 0.376218 -1.2 1 0.0357369 0.0186785 0.027486 0.0244953 0.0280175 0.0234066 0.0528548 0.0422755 0.0409621 0.0515756 0.0631343 0.04612 0.0633374 0.0667946 0.0883073 0.0837473 0.0755969 0.0695178 0.0581051 0.0741933
91 1 Mg -2.26662 90.4659 3.38131 1.2 1 0.0269215 0.0224974 0.0154697 0.0240559 0.0240196 0.032604 0.0362808 0.0591059 0.0412342 0.0736767 0.025329 0.0565784 0.0353576 0.0668927 0.0392063 0.100235 0.060987 0.100518 0.0643481 0.0658227
92 3 O -0.396467 81.1525 2.90561 -1.2 1 0.0196275 0.0250759 0.0209721 0.0303352 0.033959 0.0316249 0.0446816 0.0532803 0.0488797 0.0462178 0.0635513 0.0379641 0.0516733 0.0782804 0.0652696 0.081972 0.0766066 0.0704232 0.0601778 0.077588
93 1 Mg -2.09598 87.3233 4.73801 1.2 1 0.0126387 0.011367 0.0180503 0.037591 0.016754 0.0254071 0.0316168 0.0400496 0.0462451 0.0546804 0.0701138 0.0600385 0.0612351 0.0646837 0.067403 0.0792907 0.0757182 0.0920641 0.0525861 0.0831241
94 2 Si 0.571614 89.3372 4.88998 2.4 1 0.0173052 0.0186042 0.0249119 0.0240887 0.0251824 0.0286636 0.0409783 0.0413754 0.0464309 0.0568753 0.0666543 0.066669 0.0784181 0.0521637 0.0861393 0.0681117 0.076013 0.075559 0.0641413 0.0619699
95 3 O -0.922257 89.257 4.79723 -1.2 1 0.0116936 0.0185083 0.0251643 0.0186711 0.0228817 0.0315255 0.0326142 0.0657857 0.0400722 0.064719 0.0396131 0.0717881 0.0681962 0.0696776 0.0831108 0.0685094 0.0723365 0.0633576 0.061116 0.0746854
96 3 O 1.86571 85.3388 4.5996 -1.2 1 0.0175069 0.029301 0.0242137 0.0311716 0.0198507 0.0365537 0.0392201 0.0501358 0.0512131 0.0505954 0.0530745 0.0524942 0.0604066 0.0863165 0.0930292 0.0617373 0.0767842 0.0682431 0.0629827 0.0508866
97 3 O 1.34485 88.7788 3.67416 -1.2 1 0.0294585 0.0241285 0.0207977 0.0239407 0.0267131 0.0233867 0.0571613 0.0374892 0.0401434 0.0516197 0.0447319 0.0673941 0.0579861 0.0722006 0.0855056 0.060273 0.098987 0.056274 0.0719701 0.0543769
98 3 O 1.24938 88.6514 6.32318 -1.2 1 0.0271912 0.0175762 0.0229195 0.0264454 0.036503 0.0299773 0.0474055 0.0532334 0.0488951 0.0564878 0.0643168 0.0410098 0.0637491 0.066358 0.0801375 0.0698062 0.0699467 0.076099 0.069251 0.0753942
99 1 Mg 0.568536 84.5445 3.13153 1.2 1 0.033291 0.019878 0.0110619 0.0299472 0.0226331 0.0276863 0.0284099 0.0577636 0.0407054 0.0672171 0.0420931 0.0475726 0.0433533 0.0725905 0.0570944 0.0808594 0.0714536 0.0879532 0.0516041 0.0739403
100 1 Mg 0.530919 81.4828 4.59268 1.2 1 0.0199738 0.0185309 0.0189367 0.0232203 0.0175564 0.0268197 0.0242734 0.0353201 0.0466396 0.0484092 0.0551962 0.0685859 0.0634076 0.0620679 0.0797893 0.0565544 0.0900204 0.0837466 0.0613793 0.0803222
101 2 Si 2.43606 83.7789 4.69593 2.4 1 0.0194203 0.0211262 0.0262352 0.0257197 0.0449636 0.0362277 0.0395273 0.0459107 0.066006 0.0467253 0.0568728 0.0670569 0.0762337 0.0645317 0.0690074 0.0671595 0.0719567 0.0803742 0.0721627 0.0654561
102 3 O -0.741052 83.8416 4.44449 -1.2 1 0.0215179 0.0154258 0.0209958 0.023714 0.0283136 0.0321518 0.0298991 0.0639092 0.0402159 0.0665642 0.0454026 0.0670888 0.0539816 0.0669575 0.0800762 0.0634158 0.0590735 0.064271 0.0613272 0.0716688
103 3 O 1.37984 79.799 4.72966 -1.2 1 0.018696 0.0112634 0.0135781 0.0378083 0.0193386 0.0315503 0.0346381 0.041145 0.0513033 0.044413 0.0625566 0.0500957 0.0588036 0.075024 0.0909817 0.072121 0.0734421 0.057146 0.0787566 0.0690184
104 3 O 1.87975 83.105 3.42392 -1.2 1 0.0188928 0.0203061 0.0279012 0.0240043 0.0303537 0.0355918 0.048763 0.0366539 0.0401444 0.0542959 0.0648389 0.0439012 0.0551812 0.0811167 0.0761497 0.0787853 0.0762785 0.0673465 0.0660792 0.0681364
105 1 Mg 0.26871 84.9706 0.492236 1.2 1 0.0309085 0.017003 0.019792 0.0295512 0.0211101 0.0415591 0.026742 0.0574399 0.0366155 0.0637882 0.0478857 0.0525881 0.0324137 0.0668671 0.0414401 0.0971593 0.0686636 0.086872 0.0502649 0.0694809
106 3 O 1.76648 83.0856 5.99074 -1.2 1 0.0129004 0.0234883 0.0191426 0.0251284 0.028943 0.0302601 0.0483361 0.0471937 0.0503961 0.0367493 0.0682185 0.0400843 0.0550121 0.0647601 0.0998176 0.0730862 0.0757918 0.0570458 0.0606336 0.0734363
107 1 Mg 0.492108 87.9346 1.79679 1.2 1 0.0231041 0.00512626 0.0213429 0.0307418 0.0169812 0.0404194 0.0412155 0.0331936 0.032917 0.05196 0.0583339 0.0634893 0.0656678 0.0692978 0.0637794 0.0771233 0.0689148 0.0814736 0.0777955 0.0683015
108 2 Si -1.7712 86.1251 1.84572 2.4 1 0.0154447 0.00807835 0.0259401 0.0415855 0.0400058 0.0336497 0.0357073 0.0438192 0.0557364 0.0598639 0.0657059 0.0690626 0.0667561 0.0635377 0.0679296 0.0769812 0.0654554 0.0817041 0.058545 0.0583895
109 3 O 1.48628 85.9156 1.86984 -1.2 1 0.0267577 0.016617 0.0163613 0.0190888 0.0293892 0.0342072 0.0215523 0.0747486 0.0553987 0.0633471 0.041731 0.06393 0.0660793 0.0741624 0.078188 0.0676034 0.0615613 0.0801879 0.0613245 0.0711684
110 3 O -0.899185 89.7942 1.78589 -1.2 1 0.0310493 0.0251502 0.0216957 0.0212447 0.0186986 0.0367961 0.0491968 0.0431076 0.0516571 0.0523087 0.0452501 0.048896 0.0540902 0.073531 0.107322 0.0709652 0.0757461 0.0568287 0.0545259 0.0571375
111 3 O -1.37635 86.7768 0.413711 -1.2 1 0.0238817 0.0222812 0.0167872 0.0205814 0.0371995 0.0318799 0.039743 0.044641 0.0469501 0.0544083 0.0595999 0.0500619 0.051165 0.077774 0.0659827 0.0848393 0.0771606 0.0647794 0.0622472 0.0602779
112 3 O -1.0887 86.9609 2.92465 -1.2 1 0.0198591 0.0272397 0.0321658 0.0237759 0.0327888 0.0314076 0.0402969 0.0499368 0.0346291 0.055561 0.0654897 0.0507656 0.0552143 0.0770902 0.0780981 0.0823831 0.0635387 0.0625534 0.0634843 0.0555442
113 1 Mg -2.1374 89.8336 0.431735 1.2 1 0.0165968 0.0113315 0.0222369 0.0308301 0.0267118 0.0318327 0.0270423 0.039621 0.0544353 0.0557109 0.0450645 0.0426205 0.04952 0.056543 0.0728994 0.0847437 0.0871489 0.0783913 0.0641014 0.0614776
114 1 Mg 2.1313 93.1701 1.60925 1.2 1 0.0174825 0.0214449 0.026538 0.0288875 0.0269943 0.0339076 0.0329959 0.0399142 0.0450585 0.052467 0.0701461 0.0578488 0.0582075 0.0666691 0.0784126 0.0769929 0.0740002 0.0886477 0.0763307 0.0563977
115 2 Si -0.16582 91.3048 1.98691 2.4 1 0.0287057 0.0181545 0.0367628 0.0252089 0.0287673 0.0285565 0.0399998 0.0422401 0.0396727 0.0582374 0.0628606 0.0621376 0.0659185 0.0652103 0.0743584 0.0612126 0.0832054 0.079289 0.0611284 0.0588741
116 3 O 1.30817 91.3767 1.7835 -1.2 1 0.0353559 0.0343517 0.0260699 0.0195031 0.0343506 0.0292583 0.0284284 0.0646725 0.0461081 0.0614287 0.0397007 0.0646464 0.0712603 0.0714251 0.0670766 0.0639541 0.0631342 0.074473 0.0666043 0.0802187
117 3 O -1.20006 95.149 1.72971 -1.2 1 0.00609761 0.023828 0.0296473 0.0369305 0.0205192 0.041487 0.0376634 0.0408681 0.0576962 0.0496062 0.0440065 0.0371582 0.0581508 0.0658855 0.102681 0.0622282 0.0688052 0.0518102 0.0725302 0.069253
118 3 O -0.73821 92.0348 0.605948 -1.2 1 0.0159479 0.0281172 0.0228305 0.0241602 0.031826 0.0158522 0.0401583 0.045891 0.0447672 0.0466781 0.0604104 0.0518837 0.0551699 0.059919 0.080386 0.070464 0.0872288 0.0637116 0.0817866 0.0609698
119 1 Mg -2.28013 100.63 2.91707 1.2 1 0.017882 0.00772 0.0200966 0.0295069 0.0170584 0.0394347 0.0277806 0.0514562 0.0531183 0.0690577 0.0295999 0.0545566 0.0429804 0.0572716 0.0543976 0.0847733 0.0729168 0.0861191 0.0673984 0.0798719
120 3 O -0.814857 91.6976 3.26629 -1.2 1 0.0305188 0.0150357 0.031062 0.0178406 0.0250602 0.0231765 0.0422126 0.0398515 0.0460013 0.0420757 0.0475886 0.0569235 0.055199 0.0617136 0.0787677 0.0602109 0.0849499 0.0766754 0.0613093 0.0651441
121 1 Mg -2.20031 98.0143 4.61396 1.2 1 0.0342024 0.00985571 0.0264593 0.0298716 0.0206702 0.0263918 0.0221791 0.0298839 0.0452763 0.0548425 0.0593934 0.0579705 0.0552916 0.060065 0.0674698 0.079369 0.0828054 0.0827729 0.0664495 0.0938205
122 2 Si 0.353094 100.056 4.63968 2.4 1 0.0252206 0.0265063 0.0274627 0.0231623 0.0295965 0.0358361 0.0458235 0.0430377 0.0567567 0.0641429 0.0475043 0.0599485 0.0687096 0.0578389 0.0773989 0.061342 0.0736992 0.0883655 0.0556522 0.0640854
123 3 O -1.24074 99.9734 4.54944 -1.2 1 0.0323334 0.0215788 0.0281918 0.0215278 0.0298707 0.0330217 0.0305821 0.0676727 0.033783 0.064834 0.0394485 0.0594712 0.0555638 0.0644062 0.076289 0.0710924 0.0646295 0.066637 0.0677783 0.0837183
124 3 O 1.57082 95.7978 4.59799 -1.2 1 0.012064 0.0245678 0.0241557 0.0191335 0.0177633 0.0272345 0.0351426 0.0430289 0.0648858 0.0408957 0.0493672 0.0421643 0.058122 0.0707394 0.0902513 0.0705881 0.0736971 0.063402 0.0725874 0.0583841
125 3 O 1.06456 99.4509 3.3902 -1.2 1 0.0230181 0.016243 0.0217626 0.025189 0.0310639 0.0215943 0.0484376 0.0441807 0.0488396 0.0499493 0.0434173 0.0517387 0.0502389 0.0639744 0.0832268 0.0687036 0.0851921 0.0692578 0.0745378 0.0589433