ITEM: TIMESTEP
59900
ITEM: NUMBER OF ATOMS
5600
ITEM: BOX BOUNDS xy xz yz pp pp pp
0	7.1235	0
0	201.985	2.3745
0	119.584	0
ITEM: ATOMS id type element xu yu zu q Q_1 Q_2 Q_3 Q_4 Q_5 Q_6 Q_7 Q_8 Q_9 Q_10 Q_11 Q_12 Q_13 Q_14 Q_15 Q_16 Q_17 Q_18 Q_19 Q_20 Q_21
1 1 Mg -1.53245 48.3899 -0.883083 1.2 1 0.441847 0.0717146 0.12887 0.0411273 0.073528 0.0360522 0.0387977 0.0399679 0.0842804 0.0892444 0.0735181 0.0935481 0.0910497 0.109272 0.0996326 0.091954 0.0939224 0.0973989 0.0919662 0.0938169
2 1 Mg 3.06339 49.7381 2.27369 1.2 1 0.302201 0.109994 0.0311642 0.0497692 0.0539968 0.0416712 0.0717594 0.0712175 0.0713155 0.0701672 0.0770711 0.0697642 0.0909965 0.0741479 0.0929451 0.0824405 0.105098 0.0734218 0.0745777 0.0870821
3 2 Si 1.01923 49.8829 0.411813 2.4 1 0.283918 0.129747 0.0261972 0.06125 0.0438182 0.040627 0.0576758 0.0442278 0.0708209 0.0716591 0.0649322 0.0654667 0.0786579 0.0786444 0.0905452 0.0741717 0.0830727 0.0786821 0.0830752 0.0737101
4 3 O 2.39186 49.1368 0.592464 -1.2 1 0.370432 0.0994561 0.0748753 0.0689369 0.0367664 0.0617316 0.0512755 0.0799428 0.0517148 0.0788238 0.0824641 0.0835086 0.083061 0.0852059 0.0842278 0.0853171 0.0873486 0.0732073 0.0782522 0.0803647
5 3 O -1.14761 52.7809 1.75586 -1.2 1 0.0922711 0.0488096 0.053667 0.0209353 0.0291633 0.0283719 0.0454305 0.0474659 0.0663347 0.0610853 0.0571331 0.0544346 0.0533665 0.0624995 0.0730976 0.0785868 0.0825216 0.058058 0.0638963 0.0692651
6 3 O 0.181764 49.2054 -0.729699 -1.2 1 0.370893 0.103066 0.0675653 0.0778359 0.0297443 0.0664422 0.041557 0.0814757 0.0782127 0.07587 0.0792635 0.0804247 0.0902645 0.0867844 0.0904237 0.079889 0.0872308 0.0750818 0.0698504 0.0824629
7 1 Mg -2.11348 58.609 3.06972 1.2 1 0.00797201 0.00486023 0.0234553 0.0281528 0.0113037 0.0310914 0.0153856 0.0526679 0.0286456 0.0772604 0.0185306 0.0361681 0.0288243 0.0737928 0.0318121 0.100499 0.03272 0.110574 0.0301033 0.0936937
8 3 O 0.105717 49.7797 1.69009 -1.2 1 0.304074 0.119698 0.0489763 0.0498347 0.0508675 0.0498939 0.0558065 0.0704624 0.0725499 0.0991897 0.0723046 0.0849926 0.0599664 0.0799253 0.0753672 0.084925 0.075123 0.0874767 0.0811524 0.0945201
9 1 Mg -2.09123 55.9812 4.53097 1.2 1 0.0152659 0.0199809 0.0231395 0.0349919 0.017246 0.0251166 0.0258845 0.0227152 0.060036 0.0576234 0.066564 0.0523377 0.0610664 0.0640811 0.0501012 0.0844424 0.0771952 0.0927532 0.0651452 0.0896425
10 2 Si 0.647946 57.802 4.48092 2.4 1 0.0150072 0.021889 0.0268453 0.0283797 0.034943 0.0376734 0.0423043 0.0544398 0.0567716 0.0533496 0.0476641 0.074245 0.0659984 0.0765214 0.0724112 0.060983 0.0620736 0.0853639 0.0555456 0.0752498
11 3 O -1.06052 57.9032 4.58657 -1.2 1 0.0168497 0.014016 0.0113058 0.0237164 0.0172193 0.027951 0.0293744 0.0708446 0.0403494 0.0451315 0.0448211 0.0736679 0.0467152 0.078962 0.0733954 0.0677998 0.0627457 0.0832377 0.0529352 0.0827901
12 3 O 1.70407 53.1738 4.85829 -1.2 1 0.0733618 0.0475338 0.0308286 0.0276206 0.0396677 0.0312771 0.0336802 0.0400365 0.0593717 0.0658374 0.0654279 0.0500201 0.0572422 0.0628448 0.0849802 0.0807452 0.0596626 0.0738687 0.0592887 0.0652433
13 3 O 1.16095 57.006 3.30289 -1.2 1 0.0122484 0.0239872 0.0265756 0.0217364 0.0235925 0.0312032 0.0404297 0.0444599 0.0410684 0.0518165 0.0546157 0.0497016 0.0516747 0.0717439 0.0720223 0.0795653 0.0835704 0.0817774 0.0687737 0.0749538
14 3 O 1.34754 57.1519 5.77556 -1.2 1 0.0233816 0.0192207 0.0355262 0.0227951 0.0298605 0.0339376 0.0542291 0.0367144 0.0497412 0.0384399 0.0501559 0.0533859 0.0434977 0.0653027 0.0868702 0.0594775 0.0918712 0.0683476 0.0738895 0.0682358
15 1 Mg 0.496502 52.5432 3.13388 1.2 1 0.103691 0.0734672 0.0308152 0.0248851 0.0302855 0.0288348 0.0307827 0.0542959 0.0645205 0.0394869 0.0661958 0.054629 0.0498106 0.0629117 0.0577744 0.0842885 0.0715662 0.0859605 0.0661186 0.0802925
16 1 Mg 0.479627 48.4186 3.05172 1.2 1 0.427722 0.0751066 0.111075 0.0496543 0.0448652 0.0688782 0.060484 0.0709569 0.0927035 0.0874756 0.0812278 0.0841232 0.049179 0.0803476 0.0843137 0.107906 0.08302 0.0962839 0.0803578 0.0861895
17 2 Si 2.5372 51.8095 4.68345 2.4 1 0.116226 0.093886 0.0400903 0.0304884 0.0387904 0.0425204 0.0400254 0.0400535 0.0694274 0.063815 0.0766613 0.0657637 0.0778955 0.06967 0.0785943 0.0953063 0.0796009 0.0823505 0.0697403 0.0668438
18 3 O -0.707272 52.1533 4.64074 -1.2 1 0.113961 0.0750116 0.0336324 0.0168001 0.0286404 0.0403346 0.0438322 0.0617655 0.0640335 0.0722427 0.0586644 0.0678052 0.0658216 0.0667839 0.0791327 0.0691892 0.0785998 0.073579 0.0891195 0.0629146
19 3 O 2.6094 48.0522 3.29638 -1.2 1 0.457267 0.0594622 0.119656 0.059816 0.082359 0.0402499 0.076849 0.10075 0.0902113 0.0878944 0.0912753 0.0725922 0.0831898 0.0854425 0.0950812 0.0937846 0.102966 0.095976 0.0840069 0.0777235
20 3 O 1.91562 51.2538 3.3602 -1.2 1 0.191678 0.0798458 0.0288549 0.0301473 0.0202133 0.0553034 0.0354014 0.0671541 0.054903 0.0678677 0.0601407 0.0801395 0.0716127 0.0744119 0.0816632 0.0812248 0.0918207 0.0704656 0.0685851 0.0841215
21 1 Mg -0.0158728 53.382 0.300055 1.2 1 0.075139 0.0426443 0.0369369 0.0337406 0.02166 0.0272345 0.0309297 0.068265 0.0402516 0.0610941 0.044379 0.0591343 0.0453012 0.0709854 0.0670124 0.0887534 0.0616566 0.0964201 0.0599127 0.07785
22 3 O 1.97178 50.6257 5.78811 -1.2 1 0.215731 0.110643 0.017362 0.0394894 0.0380701 0.0355039 0.053035 0.0704548 0.0674268 0.0557531 0.074859 0.0857004 0.0656185 0.0715172 0.073561 0.0666145 0.0745163 0.0781424 0.0685863 0.0714419
23 1 Mg 0.468453 56.1905 1.61539 1.2 1 0.0163178 0.0208994 0.0240682 0.0260667 0.0193689 0.0324112 0.0347057 0.0356782 0.0443335 0.0491402 0.0699696 0.0593563 0.0614011 0.0690469 0.0785521 0.0766936 0.0770118 0.0724447 0.064936 0.0694512
24 2 Si -1.86475 54.118 1.8868 2.4 1 0.0240911 0.0308033 0.0321794 0.020811 0.0269168 0.0394985 0.0488014 0.0546014 0.0547729 0.0645874 0.0559932 0.0514428 0.0561707 0.0563027 0.0616416 0.0688637 0.0644964 0.067463 0.0704364 0.0571551
25 3 O 1.38702 54.0357 1.92015 -1.2 1 0.0375441 0.0241604 0.0327229 0.0198873 0.0185071 0.035746 0.0286281 0.0550959 0.0546745 0.0618249 0.0448637 0.0606544 0.0522028 0.0723235 0.0637435 0.0698624 0.0743933 0.0660602 0.0609387 0.0579713
26 3 O -0.632901 58.1002 1.65117 -1.2 1 0.0107482 0.00825393 0.0266012 0.0300153 0.0190132 0.0358246 0.0389391 0.0457489 0.0534723 0.0476043 0.0509029 0.0394781 0.0549773 0.077471 0.0954807 0.0645521 0.0701724 0.0540001 0.0679704 0.058132
27 3 O -1.13949 54.9313 0.6147 -1.2 1 0.017437 0.0226664 0.0217417 0.0247448 0.0296758 0.0265338 0.0478533 0.0467467 0.0317162 0.0446679 0.0660568 0.0403731 0.0661667 0.0631577 0.0739103 0.0678389 0.0676388 0.0637009 0.0766857 0.0675192
28 3 O -1.43868 55.1499 3.0334 -1.2 1 0.00946198 0.0218826 0.0287673 0.0250254 0.0221315 0.0415013 0.0373865 0.0473384 0.0378238 0.060433 0.051407 0.0509423 0.0494136 0.0692298 0.0597542 0.0779224 0.0656164 0.0765871 0.0634308 0.0779397
29 1 Mg -2.23801 58.3324 0.313521 1.2 1 0.0265086 0.0203282 0.0170135 0.0294789 0.0228701 0.0343583 0.0339207 0.0534553 0.0447984 0.0747334 0.04051 0.0489331 0.0410173 0.0618027 0.0490665 0.0862696 0.0646339 0.0955404 0.0655804 0.0783127
30 1 Mg 2.79246 61.6628 1.74829 1.2 1 0.0145327 0.00924839 0.0169118 0.0223792 0.0250666 0.0186133 0.023952 0.0301778 0.0469362 0.0596355 0.0511626 0.0553734 0.0585952 0.0664381 0.0670407 0.0668574 0.0686145 0.103821 0.0665274 0.0665386
31 2 Si -0.0198124 59.7239 1.35588 2.4 1 0.0224244 0.00830033 0.0317797 0.0239439 0.0308318 0.0287565 0.0351475 0.0470746 0.0488757 0.0437976 0.0544253 0.0529379 0.0785925 0.0542609 0.0760989 0.0784373 0.0708128 0.080466 0.0637168 0.0476931
32 3 O 1.46376 59.5918 1.59286 -1.2 1 0.0274068 0.0220123 0.0286206 0.0258175 0.026768 0.0193131 0.024326 0.0662878 0.0365273 0.0562923 0.0328873 0.06271 0.0620525 0.0669495 0.0766979 0.05473 0.0525004 0.0735602 0.0593807 0.0739586
33 3 O -1.08783 63.5275 1.50422 -1.2 1 0.0177198 0.0194409 0.0165546 0.0141485 0.0203367 0.0297891 0.0315534 0.0426671 0.0550403 0.0413604 0.0445079 0.0394385 0.0605679 0.0694589 0.0925826 0.0708904 0.0755828 0.0614205 0.0777539 0.0544023
34 3 O -0.84384 60.3013 0.123069 -1.2 1 0.0151758 0.00664048 0.0270961 0.0218415 0.0308207 0.023785 0.0476097 0.0487182 0.0429212 0.0473994 0.0619998 0.0380176 0.051154 0.0479311 0.0944077 0.0690024 0.0757542 0.0568571 0.0616852 0.0687596
35 1 Mg -2.065 69.1572 3.01515 1.2 1 0.0161163 0.0133276 0.0120525 0.0350746 0.0103116 0.037655 0.0182902 0.0597518 0.0243044 0.0832415 0.0269046 0.0543434 0.0266886 0.0714727 0.0237737 0.100092 0.0350296 0.102091 0.0419204 0.0893895
36 3 O -0.726827 60.3722 2.67174 -1.2 1 0.0114697 0.0113824 0.0261829 0.0178652 0.0276322 0.0218452 0.0419182 0.0479674 0.0307163 0.0449379 0.0504055 0.043869 0.0540704 0.0680877 0.0882713 0.0672893 0.076771 0.0730305 0.0697284 0.0591662
37 1 Mg -1.95091 66.366 4.56429 1.2 1 0.0138806 0.01663 0.027171 0.0270923 0.0191304 0.0264391 0.0230412 0.0276237 0.0403289 0.0592821 0.0584957 0.0527434 0.0585469 0.0609476 0.0595326 0.0911052 0.0740335 0.0849418 0.071142 0.0798471
38 2 Si 0.697329 68.213 4.64317 2.4 1 0.013341 0.0158174 0.0189498 0.0291563 0.0307041 0.0369713 0.0395303 0.0442182 0.0581816 0.0469408 0.0479494 0.063719 0.0605402 0.0607101 0.0695851 0.0725968 0.0661676 0.0985382 0.0559496 0.0532378
39 3 O -0.862962 68.0876 4.5194 -1.2 1 0.0261711 0.0122219 0.0186988 0.0209713 0.0248396 0.032828 0.0317484 0.071828 0.0457466 0.0555238 0.042643 0.0696409 0.0656402 0.0601276 0.0680354 0.0630529 0.0632806 0.0593472 0.0689291 0.0600027
40 3 O 1.74873 64.4015 4.56146 -1.2 1 0.0160685 0.0130686 0.0265338 0.0215572 0.0189127 0.0300956 0.0382885 0.0477682 0.052174 0.0441423 0.0495748 0.0420723 0.0503465 0.0707949 0.102586 0.0849566 0.0680256 0.048306 0.0786364 0.0740171
41 3 O 1.31533 67.444 3.29831 -1.2 1 0.0209088 0.0171129 0.0291771 0.0171532 0.025617 0.0243812 0.0485749 0.0440213 0.0402305 0.0523679 0.0502104 0.0444603 0.0594573 0.0552529 0.0886457 0.0804448 0.069292 0.0702456 0.0578843 0.0736777
42 3 O 1.30997 67.5285 5.96766 -1.2 1 0.0132768 0.0156049 0.0321173 0.0194581 0.0239997 0.0246666 0.0503337 0.0462792 0.0366705 0.0480459 0.055423 0.0445296 0.0615673 0.0550259 0.0829049 0.0684712 0.0716775 0.0658596 0.0625277 0.0651701
43 1 Mg 0.211958 64.1586 3.18046 1.2 1 0.0147596 0.0263088 0.0143201 0.0275113 0.0166523 0.0283758 0.015701 0.0519468 0.0323317 0.0750308 0.0288484 0.046894 0.0319744 0.0671548 0.0316406 0.104575 0.0512694 0.0972789 0.0543945 0.0856939
44 1 Mg 0.123368 61.0559 4.45629 1.2 1 0.0143778 0.015658 0.0138515 0.025905 0.0166791 0.0197193 0.0254892 0.0360238 0.0464119 0.063619 0.060926 0.0495996 0.0580759 0.0665557 0.068087 0.0829021 0.0618221 0.0928914 0.0750721 0.0726818
45 2 Si 2.45062 62.9496 4.63782 2.4 1 0.0175376 0.0162256 0.0152986 0.0188347 0.0249896 0.0324822 0.0391247 0.0426861 0.0486738 0.0586975 0.0591538 0.0559725 0.0732942 0.0484674 0.084574 0.0651099 0.0634062 0.0823622 0.0680027 0.0562118
46 3 O -0.788575 63.1446 4.71655 -1.2 1 0.0233144 0.00732652 0.0228106 0.0254317 0.0222231 0.0260084 0.0229244 0.0669241 0.0410945 0.0525734 0.0493419 0.0662076 0.0419603 0.0645554 0.0763122 0.063706 0.0549563 0.0792302 0.0544351 0.0815834
47 3 O 1.17683 59.2872 4.37409 -1.2 1 0.011248 0.0169865 0.0173156 0.0173727 0.0229546 0.036562 0.0347969 0.0545779 0.0556672 0.0523934 0.0398075 0.0478314 0.0523736 0.0705687 0.0947379 0.0739024 0.0738949 0.0566086 0.0640021 0.0663051
48 3 O 1.68327 62.1918 3.40467 -1.2 1 0.0123032 0.0132612 0.0229317 0.0238448 0.0241629 0.0222284 0.0496971 0.0443723 0.035467 0.0505171 0.0480749 0.0426739 0.0530046 0.058093 0.0807336 0.0791675 0.0722815 0.0606722 0.0640174 0.0677171
49 1 Mg 0.267678 64.0491 0.135983 1.2 1 0.00431221 0.0275078 0.00490734 0.0348158 0.0122318 0.0371717 0.0168667 0.0635362 0.0168314 0.0817137 0.0202235 0.0560227 0.0169591 0.0683733 0.0252966 0.103173 0.028119 0.108669 0.039751 0.0964247
50 3 O 1.59161 62.2278 5.95839 -1.2 1 0.0138898 0.011189 0.0224253 0.0218399 0.0272067 0.0259945 0.045127 0.0502563 0.0387634 0.0418033 0.0608061 0.0371842 0.0542916 0.0566682 0.0868162 0.0777021 0.0686262 0.0616279 0.056372 0.0694729
51 1 Mg 0.310588 66.7702 1.5849 1.2 1 0.0121177 0.0184959 0.0144162 0.0306978 0.0157572 0.0212397 0.026502 0.0280017 0.0465316 0.0648999 0.0564108 0.0550041 0.0664933 0.0650454 0.0546835 0.091339 0.072822 0.0969517 0.068061 0.081943
52 2 Si -1.80379 65.031 1.61154 2.4 1 0.0236441 0.0199473 0.0147921 0.0312773 0.0328119 0.0352213 0.0369731 0.0450678 0.0517664 0.0598878 0.051211 0.070416 0.0610918 0.0596829 0.0813092 0.0722615 0.0583711 0.0909826 0.0576809 0.0571294
53 3 O 1.41179 65.0187 1.63177 -1.2 1 0.0315065 0.017877 0.0175661 0.0160233 0.0330068 0.0296656 0.0220556 0.0654015 0.0445125 0.0602018 0.0410998 0.0649352 0.0599091 0.069152 0.0692956 0.068958 0.0535958 0.0707465 0.0697323 0.0689944
54 3 O -0.917407 68.7411 1.48322 -1.2 1 0.0164606 0.0154522 0.0249164 0.0207768 0.0155079 0.0360042 0.0356294 0.0442625 0.0521615 0.0492 0.0449958 0.0521104 0.0516628 0.0626287 0.101877 0.0761231 0.0805427 0.0605189 0.0638263 0.0535232
55 3 O -1.04737 65.587 0.236451 -1.2 1 0.0203821 0.0150607 0.02837 0.0223636 0.028793 0.0206614 0.0520359 0.0463527 0.0390307 0.0449628 0.0561216 0.0437076 0.0507772 0.0560273 0.0982242 0.07428 0.0665064 0.0710047 0.0658805 0.0687096
56 3 O -1.0525 65.6262 2.90663 -1.2 1 0.00966679 0.0137437 0.0275698 0.0236936 0.0234654 0.023081 0.0463559 0.0508635 0.0402889 0.0464631 0.0502742 0.0539898 0.0522648 0.0622337 0.0887921 0.070618 0.0694535 0.0664861 0.0618397 0.0760441
57 1 Mg -2.28285 69.3629 0.04926 1.2 1 0.0166267 0.0182339 0.0115054 0.0330702 0.0118165 0.0400118 0.0218924 0.0620392 0.0335327 0.0742919 0.0231122 0.0457446 0.0324658 0.0669329 0.0380312 0.098871 0.0431439 0.104053 0.0571402 0.0827272
58 1 Mg 2.34017 72.3613 1.60849 1.2 1 0.0088787 0.0124448 0.0198541 0.0354523 0.0263162 0.0238206 0.0276131 0.0341614 0.0373697 0.0601697 0.0521702 0.0691 0.052752 0.0594783 0.0729899 0.0567683 0.0850429 0.0793189 0.078587 0.055932
59 2 Si -0.248334 70.3386 1.73376 2.4 1 0.0178291 0.0127695 0.0226673 0.0207501 0.029592 0.0394126 0.0399001 0.0488441 0.0613216 0.0481484 0.0487695 0.0617948 0.0649373 0.0596928 0.0722581 0.0772028 0.0683718 0.0935561 0.0548855 0.0561998
60 3 O 1.34201 70.2568 1.6434 -1.2 1 0.0229728 0.0223922 0.0176087 0.0221738 0.0280091 0.0305236 0.0259916 0.0710952 0.0421657 0.0700951 0.0437769 0.0728618 0.0680189 0.0671893 0.0698975 0.0641269 0.069165 0.0704523 0.0696256 0.0610544
61 3 O -1.29035 74.0491 1.64338 -1.2 1 0.00562169 0.018268 0.0288405 0.0259363 0.0198179 0.0319049 0.0362348 0.0476262 0.0562704 0.0330523 0.0476848 0.0456905 0.0490648 0.0663487 0.104984 0.0737236 0.0718951 0.0498651 0.0764431 0.0644419
62 3 O -0.96625 71.1288 0.633172 -1.2 1 0.0128152 0.0153024 0.0309022 0.03168 0.0272162 0.0276145 0.0457778 0.0463516 0.047747 0.0472284 0.0569139 0.0473244 0.061123 0.0566033 0.0802565 0.0793991 0.0674965 0.0816699 0.0536375 0.053394
63 1 Mg -2.10715 79.8746 3.07213 1.2 1 0.0197471 0.022033 0.0161146 0.0337477 0.0137028 0.040607 0.0212196 0.0515284 0.0260574 0.0764006 0.0348889 0.0527582 0.0304783 0.0738317 0.0280842 0.0975175 0.046648 0.0997829 0.0458289 0.0760562
64 3 O -0.889057 70.6903 3.18249 -1.2 1 0.00732618 0.0113764 0.0260833 0.0198625 0.0274191 0.0183205 0.0430635 0.0472549 0.0452099 0.0423394 0.0528873 0.0376521 0.0512597 0.0603778 0.0883478 0.0647896 0.0669494 0.0662128 0.0637357 0.0673602
65 1 Mg -2.14364 76.8922 4.55221 1.2 1 0.015771 0.0191823 0.019394 0.0306655 0.0137204 0.0306509 0.0311285 0.0327148 0.0439365 0.0548956 0.0631624 0.0604565 0.0541725 0.0589445 0.0700493 0.0880747 0.0735761 0.0867835 0.0657845 0.076859
66 2 Si 0.596466 78.8159 4.51588 2.4 1 0.00857293 0.023782 0.0260186 0.0305391 0.037713 0.0396441 0.0457513 0.0536612 0.0616307 0.048599 0.0479639 0.072714 0.0794555 0.048047 0.0688757 0.0613543 0.0668178 0.0896575 0.0613602 0.0546649
67 3 O -0.959184 78.7915 4.44375 -1.2 1 0.0138878 0.0214081 0.0155491 0.0212 0.0255049 0.029807 0.0303991 0.070105 0.047234 0.0622049 0.0485149 0.0765289 0.0609765 0.0715031 0.0828187 0.0609544 0.0613129 0.0597709 0.0531332 0.0739045
68 3 O 1.44127 74.8578 4.6414 -1.2 1 0.0197109 0.0215865 0.0202392 0.0238922 0.0182371 0.0295506 0.0413792 0.0445415 0.065257 0.0385702 0.051986 0.0433649 0.0540307 0.0770027 0.102932 0.0657787 0.0802837 0.0421072 0.0738126 0.0544542
69 3 O 1.27802 78.1608 3.26807 -1.2 1 0.00593425 0.0217098 0.028606 0.0261404 0.0298274 0.0268774 0.0458267 0.0516813 0.0368726 0.0476391 0.0582682 0.0458983 0.059096 0.0548617 0.103728 0.0745254 0.073809 0.060463 0.0611294 0.0691791
70 3 O 1.19798 77.9587 5.71733 -1.2 1 0.0171639 0.0169948 0.0237586 0.028086 0.026172 0.0229861 0.046655 0.0432884 0.0423854 0.0478483 0.0594447 0.0409839 0.0613532 0.0589472 0.0905506 0.0816372 0.068706 0.069816 0.0616125 0.0584733
71 1 Mg -0.0342164 74.4921 3.17942 1.2 1 0.0142262 0.012236 0.00662182 0.034948 0.0136307 0.0299667 0.020704 0.0554222 0.0254826 0.0863883 0.0232539 0.0517831 0.0274602 0.0663745 0.0302541 0.0945264 0.0399831 0.104003 0.0355691 0.086187
72 1 Mg 0.242579 71.4101 4.80591 1.2 1 0.0261793 0.00915536 0.0116242 0.0321399 0.0131779 0.0229083 0.0247122 0.0413684 0.0460851 0.0493234 0.0654518 0.0561508 0.0594491 0.0619032 0.0653688 0.0672792 0.077433 0.0911738 0.074333 0.0713989
73 2 Si 2.09118 73.418 4.72507 2.4 1 0.0237116 0.0102439 0.0201744 0.0333101 0.0312566 0.0312423 0.0416297 0.0398414 0.0507881 0.0537553 0.0553902 0.066651 0.0734535 0.0565095 0.0718694 0.0690424 0.0629518 0.0887931 0.055831 0.0538419
74 3 O -1.06298 73.687 4.64478 -1.2 1 0.0130097 0.0239171 0.01585 0.0247918 0.0279691 0.0299597 0.0321007 0.0739932 0.0446397 0.0475399 0.0530595 0.0746542 0.057871 0.0631741 0.083472 0.0731971 0.0645431 0.0783629 0.0588334 0.078013
75 3 O 1.46757 69.5852 4.62895 -1.2 1 0.0139774 0.00931338 0.0154219 0.0206822 0.0145785 0.0323848 0.0355102 0.0378213 0.0514096 0.0410157 0.0412497 0.0505243 0.0478936 0.0697572 0.0958624 0.062983 0.0804573 0.0467113 0.0707082 0.0587779
76 3 O 1.32769 72.7992 3.28396 -1.2 1 0.0168656 0.0121307 0.0244731 0.0203805 0.0287224 0.0158527 0.0460517 0.0492626 0.0315429 0.0536904 0.0551569 0.0471465 0.0567219 0.0485904 0.102904 0.0644458 0.0759034 0.075245 0.0591931 0.0710614
77 1 Mg -0.0579213 74.6325 0.0902984 1.2 1 0.0170858 0.0214941 0.0142025 0.0318885 0.0150195 0.0427286 0.0120944 0.0581077 0.022941 0.0784436 0.0262302 0.0436648 0.0326441 0.0657148 0.0327433 0.101347 0.0484741 0.105167 0.0463053 0.0812956
78 3 O 1.43957 72.6961 5.97915 -1.2 1 0.0187678 0.0293014 0.0218587 0.0200801 0.0277739 0.0190102 0.0452883 0.0430561 0.03258 0.0479002 0.0612398 0.052473 0.0575598 0.048005 0.0909716 0.0743552 0.069355 0.065114 0.0586058 0.0710335
79 1 Mg 0.033032 77.4433 1.61862 1.2 1 0.0135409 0.0191136 0.0151986 0.0326073 0.0160763 0.0244299 0.0279366 0.0314969 0.0455795 0.0614296 0.0636858 0.0613188 0.0513765 0.0641244 0.0632621 0.0815576 0.0650935 0.0991619 0.0677358 0.0842554
80 2 Si -1.97502 75.4529 1.68879 2.4 1 0.0218727 0.0158589 0.0275347 0.0292694 0.0343932 0.0321763 0.0405629 0.0392829 0.0532409 0.0519068 0.0485193 0.0709299 0.0689702 0.0623992 0.0847074 0.0653288 0.0647354 0.0885178 0.0552307 0.0503909
81 3 O 1.30635 75.3232 1.58235 -1.2 1 0.0075815 0.0172823 0.0304566 0.0216483 0.0316072 0.0283021 0.0391314 0.0700369 0.0474489 0.0416171 0.0519476 0.0737343 0.0558731 0.0659506 0.0779702 0.0714597 0.0653821 0.0737514 0.0482838 0.0773074
82 3 O -0.8845 79.4612 1.62149 -1.2 1 0.0155612 0.0162031 0.0135006 0.0299008 0.0194525 0.034951 0.0398604 0.042518 0.0575066 0.0448681 0.0473778 0.047636 0.0620442 0.0685924 0.0996641 0.0774943 0.0751825 0.0519225 0.0725492 0.0577329
83 3 O -1.25277 76.2513 0.451624 -1.2 1 0.0132773 0.0146555 0.0305575 0.0231295 0.0305863 0.0213247 0.0556313 0.0469349 0.0382186 0.0422808 0.0511107 0.0451325 0.0593331 0.0704556 0.081473 0.0761813 0.0821644 0.0635089 0.0589555 0.070022
84 3 O -1.27317 76.3429 2.80503 -1.2 1 0.0152129 0.0240592 0.0295599 0.0223645 0.0254776 0.0295839 0.0448132 0.0453306 0.0332329 0.0428591 0.0650106 0.0380902 0.063276 0.0678913 0.0766518 0.0740932 0.0729238 0.0651631 0.0633476 0.0520785
85 1 Mg -2.13672 79.9478 0.182654 1.2 1 0.0117222 0.010335 0.0106963 0.0370347 0.0133612 0.0420787 0.0189579 0.0620797 0.0167181 0.0777074 0.0217478 0.0584561 0.0240072 0.0685588 0.0292477 0.097311 0.0489159 0.0961306 0.042367 0.0896637
86 1 Mg 2.25455 82.8661 1.78007 1.2 1 0.0141097 0.0080656 0.0150107 0.0352215 0.0181383 0.0269514 0.0283706 0.0374422 0.0470577 0.0534909 0.067935 0.0610094 0.0531651 0.0669878 0.0677895 0.0893883 0.0738965 0.0777764 0.069901 0.0734961
87 2 Si -0.217586 81.0594 1.78318 2.4 1 0.021159 0.0273566 0.0139535 0.0264032 0.0353652 0.0266652 0.0343374 0.0472657 0.0553889 0.0640368 0.0536519 0.0716855 0.0648936 0.062243 0.0691409 0.0786742 0.0687517 0.0776245 0.0591696 0.0673785
88 3 O 1.29506 80.968 1.70796 -1.2 1 0.0261462 0.0185589 0.0221449 0.0226851 0.0226956 0.0371097 0.0246429 0.0760874 0.0400491 0.0721999 0.041363 0.0727989 0.0641332 0.0775122 0.07474 0.0673736 0.0549246 0.0652762 0.066818 0.0763561
89 3 O -1.4305 84.8149 1.87199 -1.2 1 0.0099175 0.011105 0.0189937 0.0233549 0.0172751 0.0331507 0.0383172 0.0413675 0.0481587 0.0396061 0.0556113 0.043139 0.0548889 0.075809 0.0917048 0.0715464 0.0745899 0.0551777 0.0776986 0.0547429
90 3 O -0.877573 81.5813 0.309442 -1.2 1 0.0199349 0.0161154 0.0214853 0.0277783 0.0295827 0.0193072 0.0523298 0.0490142 0.0467623 0.0559804 0.0537887 0.0440156 0.0549697 0.0749229 0.0854731 0.0847823 0.0704372 0.0641443 0.0566246 0.0821806
91 1 Mg -2.43443 90.7788 3.31186 1.2 1 0.00862082 0.0177507 0.0109332 0.0327145 0.0115172 0.039365 0.0157678 0.0589679 0.0321715 0.0776944 0.0204228 0.0447723 0.0227115 0.069054 0.0266483 0.0952217 0.0474858 0.105366 0.0622856 0.0838182
92 3 O -1.12779 81.537 2.97088 -1.2 1 0.00986601 0.0126828 0.0347263 0.0251826 0.0331562 0.0254558 0.0501945 0.0438414 0.0398154 0.040142 0.0610595 0.0467782 0.0563677 0.0499544 0.0990883 0.0731714 0.0804295 0.0613833 0.0563493 0.0618224
93 1 Mg -2.53268 87.604 4.84819 1.2 1 0.0165369 0.00914092 0.023082 0.0324433 0.0234458 0.0297023 0.0230617 0.0325957 0.0440462 0.0553949 0.0534375 0.0544028 0.0618799 0.0631796 0.0613609 0.067317 0.0715618 0.107059 0.0575979 0.081475
94 2 Si 0.286358 89.5289 4.723 2.4 1 0.0141874 0.0143233 0.0197943 0.0265239 0.0374301 0.0333312 0.0374279 0.0416638 0.0573589 0.0506644 0.048829 0.0663439 0.0707541 0.0563618 0.0796328 0.0682652 0.0606019 0.0840485 0.0634867 0.0514563
95 3 O -1.24758 89.72 4.823 -1.2 1 0.0198181 0.0196643 0.0192942 0.0231216 0.0283852 0.0289108 0.0259673 0.0645568 0.0397875 0.0521703 0.0511639 0.0729376 0.0474582 0.0673124 0.0784381 0.0705565 0.0619135 0.0759946 0.0510589 0.0757679
96 3 O 1.5883 85.578 4.8486 -1.2 1 0.0100571 0.0139712 0.0292071 0.0281768 0.0246457 0.0269657 0.0346942 0.0408688 0.0690095 0.0386831 0.0475778 0.0417686 0.0598866 0.0753981 0.0944637 0.0668049 0.0735115 0.0550492 0.0749739 0.0568428
97 3 O 0.916586 88.7282 3.50916 -1.2 1 0.0079393 0.0234464 0.0237219 0.0163481 0.0219559 0.0278056 0.0381223 0.0467739 0.0366913 0.0544793 0.0564008 0.0378732 0.0667225 0.065988 0.0769792 0.0771228 0.0652219 0.0653317 0.0573988 0.0684608
98 3 O 0.963748 88.8578 5.99922 -1.2 1 0.0101654 0.0131091 0.0284418 0.0219502 0.025081 0.0198326 0.0492313 0.0467195 0.037535 0.0428194 0.0590727 0.0381097 0.0511558 0.0685712 0.0848425 0.0745147 0.0837265 0.0539772 0.068724 0.0587449
99 1 Mg -0.120535 85.6176 3.54776 1.2 1 0.00944277 0.0226619 0.0112437 0.0259871 0.0248437 0.02693 0.0314544 0.0429128 0.0557213 0.0668359 0.0443668 0.0461858 0.0412684 0.0643915 0.0571846 0.0856386 0.0778621 0.0799244 0.0793565 0.065983
100 1 Mg -0.0477918 82.253 4.61402 1.2 1 0.0150232 0.0140249 0.0192872 0.031584 0.0107342 0.0344084 0.0326919 0.0364718 0.0419566 0.0573972 0.0679937 0.0496858 0.0552504 0.0717177 0.0791869 0.074096 0.0685795 0.0832267 0.0752639 0.0711732
101 2 Si 2.027 84.039 4.83508 2.4 1 0.0195124 0.018447 0.0151416 0.0211699 0.0364157 0.0360339 0.0326881 0.0508428 0.0612183 0.0497834 0.053125 0.0678908 0.069549 0.0581335 0.0596882 0.078351 0.0648753 0.0984426 0.0591978 0.0554387
102 3 O -1.06242 84.1935 4.98216 -1.2 1 0.0200264 0.0130546 0.0268512 0.0158194 0.0235915 0.0255996 0.0258396 0.0667663 0.0418182 0.0663623 0.0367304 0.0607584 0.0571276 0.0672358 0.0757799 0.0581312 0.0743623 0.0657689 0.0683992 0.0515606
103 3 O 1.08807 80.1941 4.53092 -1.2 1 0.0143366 0.0168385 0.0194228 0.0306877 0.0121673 0.0263406 0.0498416 0.0491355 0.0620273 0.0431663 0.0539611 0.0498222 0.0588069 0.0799207 0.0930635 0.0664872 0.0761731 0.0643276 0.0762355 0.0465991
104 3 O 1.37353 83.5087 3.56117 -1.2 1 0.0125465 0.0150688 0.0247608 0.0265297 0.0296471 0.0261357 0.0431698 0.0416241 0.0403134 0.0366556 0.0563065 0.0393494 0.0536159 0.0699797 0.091442 0.0654372 0.0758575 0.0588025 0.0624487 0.0701378
105 1 Mg -0.20027 85.3868 0.383392 1.2 1 0.0216966 0.0148845 0.0101072 0.0356179 0.0142515 0.0382474 0.0120331 0.0652134 0.0209907 0.0794753 0.0263948 0.0529068 0.0255221 0.063327 0.03891 0.100083 0.0520073 0.0922584 0.0504375 0.0878803
106 3 O 1.40506 83.3452 6.02711 -1.2 1 0.017164 0.0160417 0.0189916 0.020531 0.0281624 0.0276644 0.0443712 0.0461397 0.0330958 0.0520157 0.0562752 0.0387596 0.0580659 0.0601309 0.0816773 0.0810212 0.0673863 0.0696574 0.0663392 0.075614
107 1 Mg -0.111453 88.2009 1.9224 1.2 1 0.0112189 0.021165 0.0127092 0.0276633 0.0143009 0.0255697 0.025418 0.0394108 0.0526941 0.0662499 0.061019 0.0547051 0.0591448 0.0680115 0.0681942 0.0753731 0.0706427 0.0988433 0.0586506 0.0945569
108 2 Si -2.18079 86.2553 1.86403 2.4 1 0.0198348 0.0117937 0.0214251 0.0337149 0.032563 0.0343476 0.0433336 0.0402038 0.0615864 0.0589685 0.0499142 0.0646408 0.0689754 0.055278 0.0831888 0.0681804 0.0660122 0.0814227 0.0657742 0.0554763
109 3 O 1.01937 86.2966 2.03642 -1.2 1 0.0253221 0.0168742 0.025289 0.0220435 0.0322444 0.0303386 0.0224413 0.0724052 0.0422938 0.0643722 0.0410959 0.0590146 0.0556051 0.0706041 0.0756765 0.0653898 0.0542005 0.0570284 0.0790677 0.0689288
110 3 O -1.12603 90.2145 1.83168 -1.2 1 0.00701663 0.00975163 0.0234533 0.0187925 0.0156321 0.026303 0.0416156 0.0508559 0.0606332 0.0407065 0.0472794 0.0458339 0.0498285 0.0738297 0.100126 0.0698612 0.0764898 0.0556287 0.075281 0.0523227
111 3 O -1.57718 87.044 0.635628 -1.2 1 0.0191943 0.0152415 0.021517 0.0200525 0.0336134 0.0171449 0.0516923 0.0409775 0.0467245 0.0474226 0.0570693 0.0457469 0.0577718 0.0665062 0.0718294 0.0735675 0.0774107 0.0663203 0.0693964 0.0682039
112 3 O -1.49723 86.9826 3.13605 -1.2 1 0.00551734 0.0132775 0.0298756 0.0239068 0.0298798 0.0302689 0.0532899 0.0472719 0.0339421 0.0473385 0.0573588 0.0480026 0.0568803 0.0761825 0.0793175 0.0779826 0.0780608 0.0598686 0.0650298 0.0700383
113 1 Mg -2.47007 90.4539 0.411109 1.2 1 0.018208 0.0120454 0.0163995 0.0307281 0.0200558 0.0280724 0.025306 0.0520732 0.0272576 0.0796021 0.0305331 0.051584 0.0254051 0.0733186 0.0278361 0.104714 0.0521878 0.105743 0.0564234 0.0852868
114 1 Mg 2.32258 93.5147 1.59561 1.2 1 0.0178398 0.0144456 0.0185725 0.0292277 0.0151984 0.0273702 0.0300515 0.0347658 0.0435264 0.0574902 0.0576149 0.0537474 0.0697636 0.064866 0.0628735 0.0723742 0.0780208 0.0916272 0.0709906 0.0824673
115 2 Si -0.408121 91.5507 1.76514 2.4 1 0.0194975 0.0155801 0.0202701 0.0316711 0.0253915 0.035608 0.0493555 0.0442266 0.0557782 0.0554975 0.0494731 0.0709817 0.0682614 0.0667635 0.0864953 0.0591156 0.059516 0.0938884 0.0567825 0.0571864
116 3 O 1.14666 91.444 1.80606 -1.2 1 0.0267344 0.0204428 0.0214432 0.0282256 0.0233773 0.0322637 0.0281121 0.0674863 0.0380805 0.0510066 0.0449951 0.0717697 0.054882 0.0728596 0.073291 0.0682647 0.052914 0.0785097 0.0498382 0.081446
117 3 O -1.43922 95.4058 1.76668 -1.2 1 0.0142504 0.0202382 0.0246621 0.0276311 0.017894 0.0322495 0.0312956 0.0440096 0.0625415 0.0448153 0.0416789 0.0458209 0.0598036 0.0706795 0.102039 0.0705811 0.0708724 0.0480238 0.0718676 0.0558817
118 3 O -1.21574 92.3093 0.496964 -1.2 1 0.0279903 0.0157126 0.0321653 0.0196789 0.0253956 0.0187847 0.0463741 0.044327 0.0394796 0.0392711 0.052272 0.0402432 0.0582512 0.0514927 0.0953419 0.0616855 0.0667428 0.0615262 0.0719397 0.0688583
119 1 Mg -2.31089 101.062 3.50315 1.2 1 0.0194328 0.00926899 0.0189007 0.0254094 0.0146905 0.0333134 0.0109232 0.0601001 0.022848 0.081271 0.0220398 0.049791 0.0306555 0.0710884 0.0391101 0.0912006 0.0407453 0.112149 0.0434053 0.0933904
120 3 O -1.12905 92.2982 3.00164 -1.2 1 0.0059567 0.0209073 0.0273292 0.0255887 0.0254181 0.0213074 0.0503496 0.0475337 0.0313161 0.0442961 0.0598184 0.0455316 0.0563063 0.0557167 0.0870372 0.0681016 0.067655 0.0645108 0.0706066 0.0620734
121 1 Mg -2.1955 98.1757 4.78224 1.2 1 0.0224938 0.0138663 0.0168073 0.0259 0.0117962 0.0299223 0.0307855 0.0371697 0.0419103 0.060318 0.059312 0.0560086 0.0654434 0.0625237 0.0679864 0.09125 0.0749547 0.0811532 0.0784177 0.0694056
122 2 Si 0.335966 100.008 5.14018 2.4 1 0.02792 0.00895747 0.0207757 0.0249695 0.034341 0.0306916 0.0458748 0.0409395 0.0536897 0.0508448 0.0548696 0.0571571 0.07132 0.0521983 0.0760646 0.0709305 0.0709958 0.0854153 0.0695883 0.0502643
123 3 O -1.24258 100.034 5.00495 -1.2 1 0.0205647 0.0112822 0.0160468 0.0243325 0.0248833 0.0263881 0.0224647 0.0710207 0.0445243 0.0547652 0.0408859 0.0750095 0.0594572 0.0633453 0.0676929 0.0606474 0.0626635 0.0717093 0.06208 0.0704504
124 3 O 1.32331 96.2621 4.79925 -1.2 1 0.0154334 0.0196515 0.0217406 0.0194794 0.020922 0.0370152 0.0322103 0.0448773 0.0574088 0.04388 0.0411848 0.0488748 0.04995 0.0641431 0.100711 0.0790952 0.0697924 0.0514838 0.0721295 0.0660954
125 3 O 1.01431 99.3412 3.77834 -1.2 1 0.0318054 0.0128663 0.0227299 0.0251518 0.0286509 0.0165018 0.0508178 0.0426984 0.0397187 0.040883 0.0521038 0.0401032 0.049976 0.0652221 0.0873474 0.0681289 0.0845048 0.0704151 0.0690324 0.0641775