ITEM: TIMESTEP
29800
ITEM: NUMBER OF ATOMS
5600
ITEM: BOX BOUNDS xy xz yz pp pp pp
0	7.1235	0
0	201.985	2.3745
0	119.584	0
ITEM: ATOMS id type element xu yu zu q Q_1 Q_2 Q_3 Q_4 Q_5 Q_6 Q_7 Q_8 Q_9 Q_10 Q_11 Q_12 Q_13 Q_14 Q_15 Q_16 Q_17 Q_18 Q_19 Q_20 Q_21
1 1 Mg -1.57884 49.6293 -1.32884 1.2 1 0.403635 0.10633 0.117336 0.0479084 0.0610687 0.0595859 0.0444283 0.05809 0.0915586 0.0632264 0.0877924 0.0848833 0.0934038 0.101941 0.107558 0.0730883 0.0985575 0.116071 0.108411 0.0844621
2 1 Mg 3.11679 50.8262 2.0487 1.2 1 0.300234 0.11543 0.0328801 0.052523 0.048417 0.0388238 0.0738913 0.0627882 0.0760301 0.0789273 0.0704404 0.0652365 0.075739 0.0700777 0.0957191 0.0863994 0.0940315 0.0847837 0.0877224 0.0875105
3 2 Si 0.931477 51.0258 0.0260066 2.4 1 0.29339 0.118401 0.0383991 0.0531302 0.0451778 0.0261103 0.0652844 0.045903 0.0840891 0.0712761 0.0637207 0.0585916 0.0741597 0.0707899 0.0951879 0.0815184 0.0883292 0.0742037 0.0759544 0.08594
4 3 O 2.26559 50.4119 0.250963 -1.2 1 0.334403 0.129302 0.0727003 0.060037 0.0372393 0.0573613 0.0568918 0.0580101 0.0610716 0.0655066 0.0691334 0.0968 0.0752795 0.0867766 0.0849728 0.0815587 0.068046 0.0677202 0.0756211 0.0753276
5 3 O -1.36294 53.7338 1.53944 -1.2 1 0.104665 0.0626173 0.0417926 0.0264433 0.0324646 0.0313882 0.0477599 0.0406111 0.0639199 0.0590243 0.0563078 0.0473977 0.0535164 0.0618718 0.0858371 0.0809337 0.076305 0.0593494 0.0523545 0.0900152
6 3 O 0.229222 50.1883 -1.04507 -1.2 1 0.366411 0.107794 0.0619796 0.0747119 0.0205151 0.066216 0.0365209 0.0681878 0.0915163 0.076878 0.0729192 0.0851994 0.086089 0.0869769 0.0824209 0.0765056 0.0829822 0.0880359 0.0668123 0.0939285
7 1 Mg -2.41673 59.4147 3.20614 1.2 1 0.00764008 0.0198069 0.0101396 0.0317784 0.0114063 0.0353755 0.0233894 0.0591106 0.0251679 0.0672052 0.0222812 0.048846 0.0171113 0.0658734 0.0264677 0.100549 0.0372674 0.113678 0.0354835 0.0895683
8 3 O 0.149516 50.7742 1.39383 -1.2 1 0.301132 0.139204 0.0494327 0.0546431 0.0415624 0.0496384 0.0596177 0.0718109 0.0650139 0.0898681 0.0848981 0.0746341 0.0480297 0.0696628 0.0904036 0.0859609 0.0717867 0.082141 0.0907757 0.0958867
9 1 Mg -2.28779 56.5665 4.46008 1.2 1 0.0181104 0.0121668 0.0220834 0.0260029 0.0199039 0.0338938 0.0238279 0.0247546 0.0459451 0.0547405 0.0673255 0.0482218 0.0556108 0.0719043 0.0689474 0.0799773 0.0752654 0.0884529 0.0607376 0.0807756
10 2 Si 0.308862 58.4262 4.52193 2.4 1 0.0156164 0.0181602 0.0247851 0.0208564 0.0386103 0.0312629 0.0362034 0.0463576 0.0489417 0.0613971 0.058914 0.0674256 0.071713 0.0571724 0.0815616 0.0617367 0.0641059 0.0915795 0.0637679 0.0545404
11 3 O -1.24071 58.57 4.61801 -1.2 1 0.0303044 0.0177008 0.0246812 0.0236322 0.0232269 0.018533 0.0212878 0.0654196 0.0429351 0.0515562 0.0438592 0.0746414 0.0504547 0.0616711 0.0673836 0.0661594 0.060367 0.0786204 0.0547229 0.0921733
12 3 O 1.709 54.2787 4.27703 -1.2 1 0.0740183 0.0354846 0.0353091 0.0378228 0.0318156 0.0288201 0.0295454 0.0325029 0.0660567 0.0600027 0.0730289 0.0325688 0.0611124 0.0740381 0.0782472 0.0699237 0.0833747 0.0609234 0.0681741 0.0554142
13 3 O 1.04029 57.8579 3.1992 -1.2 1 0.0213187 0.0283608 0.0229664 0.01915 0.0270241 0.0272754 0.0443775 0.0408099 0.0475853 0.0501854 0.0529115 0.0440242 0.0469263 0.0572071 0.0875249 0.0739945 0.0798391 0.064141 0.0619556 0.0687235
14 3 O 0.97399 57.5493 5.67598 -1.2 1 0.00647011 0.0267029 0.0215698 0.0174679 0.0276924 0.0329027 0.0403108 0.0426145 0.0412175 0.0538085 0.0555779 0.047238 0.0647192 0.0618668 0.0749492 0.0810342 0.0786662 0.0720751 0.057503 0.0695689
15 1 Mg 0.310853 53.7249 2.86573 1.2 1 0.0964261 0.0738551 0.031394 0.0322825 0.0217334 0.0296297 0.0389236 0.0618298 0.0603225 0.0512206 0.0760699 0.0454653 0.0538957 0.0566011 0.0595531 0.0717657 0.0689189 0.0788562 0.0788571 0.0765015
16 1 Mg 0.922552 49.8099 2.86439 1.2 1 0.394246 0.0894684 0.0919519 0.066819 0.0479493 0.0759862 0.0586293 0.0601485 0.074688 0.0707302 0.0773898 0.0669441 0.0772243 0.0743283 0.0946741 0.0916563 0.0884491 0.0688572 0.0833441 0.0795887
17 2 Si 2.47993 52.8075 4.43505 2.4 1 0.121406 0.0982409 0.0360252 0.0331246 0.0283759 0.0411765 0.0462759 0.0535027 0.0776146 0.0642136 0.0804737 0.0578647 0.0769799 0.0678231 0.065037 0.0855596 0.0883811 0.076873 0.0743765 0.0694103
18 3 O -0.750341 53.066 4.44229 -1.2 1 0.136812 0.0789844 0.0236979 0.0306577 0.0121557 0.043186 0.046105 0.0570833 0.0614758 0.0674442 0.0539289 0.0731781 0.0598041 0.0794314 0.0714004 0.0732195 0.0721959 0.0645302 0.086688 0.0628655
19 3 O 2.72985 49.0834 3.04925 -1.2 1 0.478306 0.047009 0.117397 0.0404161 0.0783019 0.0377648 0.0756411 0.0834953 0.0772988 0.0612821 0.0830603 0.0763143 0.0771427 0.0768946 0.0927964 0.0995926 0.0974836 0.100772 0.086237 0.0758105
20 3 O 1.9042 51.9254 3.12011 -1.2 1 0.216268 0.099294 0.0197874 0.0407743 0.0174284 0.0600079 0.0446226 0.0642661 0.0611945 0.0473334 0.0703285 0.0701091 0.071457 0.0778634 0.0764903 0.0730204 0.0853234 0.0734432 0.068021 0.0840385
21 1 Mg -0.174217 54.2726 0.109136 1.2 1 0.0803707 0.0622547 0.0370718 0.0309203 0.0222529 0.0256517 0.0250408 0.0557613 0.0422289 0.0546949 0.0523447 0.0534644 0.0518959 0.0660094 0.0666053 0.0666614 0.0690033 0.0987781 0.0531145 0.0799858
22 3 O 2.039 51.915 5.68755 -1.2 1 0.208978 0.101479 0.0145749 0.0346816 0.0360778 0.0422998 0.0460195 0.0708084 0.0581504 0.0548893 0.0672165 0.0806293 0.0663542 0.0793369 0.0587563 0.0770576 0.067405 0.0730358 0.0769002 0.0795216
23 1 Mg 0.0582759 57.0161 1.63754 1.2 1 0.0171137 0.00995117 0.0160722 0.0222724 0.0129025 0.0330728 0.0338143 0.0396193 0.0389618 0.0550852 0.063057 0.0561602 0.064924 0.070166 0.0741846 0.086054 0.0621602 0.0729712 0.0717734 0.0810613
24 2 Si -2.05392 55.142 1.64935 2.4 1 0.0193913 0.0300362 0.0292042 0.0264219 0.0204922 0.0399122 0.0478439 0.048787 0.0584425 0.065302 0.0553395 0.0602287 0.066153 0.0576669 0.0544274 0.067416 0.0721095 0.0647711 0.0646051 0.0616001
25 3 O 1.13618 55.0055 1.61982 -1.2 1 0.0108958 0.0448581 0.0333367 0.0170109 0.0177366 0.0324344 0.0269742 0.0594073 0.049611 0.0607771 0.056784 0.0540349 0.0576938 0.0733418 0.0762064 0.0708169 0.0698504 0.0627373 0.05606 0.0669188
26 3 O -1.11152 59.0061 1.61342 -1.2 1 0.00764114 0.0195669 0.020777 0.0216081 0.0214456 0.0344346 0.0376027 0.04548 0.0550075 0.0480092 0.045271 0.0482188 0.0488405 0.0752421 0.100297 0.0721024 0.0752826 0.0475553 0.0713896 0.0601772
27 3 O -1.48169 55.974 0.324344 -1.2 1 0.0292314 0.0273486 0.0192278 0.0248847 0.0231385 0.0344245 0.0560801 0.0472908 0.0332517 0.0430192 0.0719199 0.0383769 0.0540495 0.0679805 0.0705476 0.0802813 0.0694174 0.0677012 0.0693351 0.0676159
28 3 O -1.33907 55.9658 2.87131 -1.2 1 0.015944 0.0283507 0.0241013 0.0225386 0.012969 0.0263474 0.049859 0.0495808 0.0353211 0.0480953 0.0666061 0.0481498 0.0493205 0.062134 0.0789774 0.0803399 0.0551026 0.074639 0.0671158 0.0756533
29 1 Mg -2.49388 59.3476 0.188989 1.2 1 0.0154789 0.0134346 0.0133731 0.0206077 0.0160872 0.0382425 0.0142612 0.0555172 0.0248508 0.0839544 0.028293 0.047662 0.0237778 0.0685368 0.0273162 0.10216 0.0303746 0.106985 0.045134 0.0925434
30 1 Mg 2.1928 62.3523 1.65154 1.2 1 0.0150521 0.0159143 0.0169129 0.0337954 0.0201882 0.0295965 0.0226822 0.0326815 0.0371317 0.0620927 0.0575493 0.0549948 0.0581849 0.0678294 0.0644287 0.0824617 0.0714774 0.0847064 0.0729445 0.0879419
31 2 Si -0.373796 60.4716 1.56827 2.4 1 0.0132888 0.0097296 0.0199956 0.0296782 0.0334273 0.0336202 0.0434748 0.0447328 0.0493628 0.0539411 0.0549116 0.0658364 0.0726618 0.0501018 0.0786818 0.068018 0.0598982 0.0947292 0.0576573 0.0643296
32 3 O 1.19347 60.4442 1.58399 -1.2 1 0.0203203 0.010566 0.0194674 0.0217563 0.0217236 0.0320541 0.017023 0.0635872 0.0341536 0.0579452 0.0396001 0.0677999 0.0564862 0.0639531 0.0670207 0.0611793 0.0548333 0.067886 0.0635743 0.0775984
33 3 O -1.38708 64.1697 1.81086 -1.2 1 0.0091724 0.0134477 0.0243825 0.0227427 0.020795 0.0375933 0.0380877 0.0457457 0.0522079 0.0441636 0.0430022 0.0469039 0.0525116 0.0712549 0.102468 0.0698838 0.0716035 0.0575635 0.0685306 0.0612288
34 3 O -1.06171 61.0252 0.262125 -1.2 1 0.0122516 0.0122354 0.0316385 0.0208358 0.023432 0.0172365 0.0410707 0.0482856 0.0446232 0.041713 0.0508312 0.0469441 0.054761 0.0563693 0.0926047 0.0663534 0.0776802 0.061951 0.0619302 0.0727822
35 1 Mg -2.40135 69.9202 3.12243 1.2 1 0.00355999 0.0210568 0.00662153 0.0279326 0.00773369 0.0382037 0.00921681 0.0580643 0.0159651 0.0887013 0.0164773 0.0511172 0.0174707 0.074061 0.0166026 0.105724 0.0263982 0.116232 0.029028 0.0939374
36 3 O -1.01478 61.1989 2.89831 -1.2 1 0.00707579 0.00746532 0.0339562 0.0127705 0.017956 0.0247518 0.0483483 0.04127 0.0320575 0.0475108 0.0563336 0.0372244 0.0549647 0.0620355 0.0741896 0.0758465 0.0732511 0.0685894 0.0646854 0.0655711
37 1 Mg -2.31089 66.9231 4.6764 1.2 1 0.0127803 0.0128559 0.0199099 0.0318008 0.0161879 0.0268572 0.0229394 0.034639 0.0393333 0.0614059 0.0608438 0.0559289 0.0586135 0.0635945 0.0704363 0.069858 0.0788092 0.0913775 0.072878 0.075213
38 2 Si 0.276943 68.9093 4.57038 2.4 1 0.0166484 0.0119883 0.0214413 0.036932 0.0334853 0.0313124 0.0411419 0.0418377 0.054693 0.0559704 0.0541441 0.0687573 0.0731925 0.0566968 0.0808703 0.0745631 0.059276 0.0885462 0.0603881 0.046341
39 3 O -1.30995 68.9967 4.63007 -1.2 1 0.0240589 0.0238747 0.012049 0.0249382 0.0247665 0.0244721 0.0281656 0.0768915 0.0419193 0.0583327 0.0397981 0.0697375 0.0514108 0.0677434 0.0756492 0.0728502 0.0595194 0.0696883 0.0583091 0.0752582
40 3 O 1.35592 65.1276 4.79129 -1.2 1 0.00841984 0.0160959 0.0226881 0.0220071 0.0179051 0.0344267 0.0303311 0.0432167 0.0568221 0.0458459 0.0474219 0.0452089 0.0503417 0.0726504 0.100162 0.0789716 0.0675298 0.0503409 0.0710028 0.0644853
41 3 O 0.966428 68.3551 3.30512 -1.2 1 0.00787864 0.00842035 0.0289078 0.0273604 0.029702 0.0205076 0.0476653 0.0488693 0.0414069 0.0531152 0.0506319 0.0451655 0.0572122 0.0639934 0.0876853 0.0706735 0.0707361 0.0608205 0.0602416 0.0738557
42 3 O 0.968446 68.2013 5.84804 -1.2 1 0.013521 0.0172891 0.0234499 0.0219429 0.0273645 0.0196246 0.048625 0.045344 0.0391155 0.0447124 0.0505962 0.0432883 0.0473498 0.0712005 0.0847197 0.0776126 0.0767469 0.0626923 0.0607103 0.0669314
43 1 Mg -0.165824 64.6664 3.31407 1.2 1 0.0104911 0.0119341 0.0158504 0.0355469 0.0122665 0.0385334 0.0144236 0.0589343 0.0206869 0.0789408 0.0226809 0.0456714 0.0263867 0.0674044 0.0290917 0.0992705 0.0425837 0.108411 0.0422207 0.0912419
44 1 Mg -0.234978 61.6808 4.74579 1.2 1 0.0233688 0.0175325 0.0205743 0.0310505 0.0187762 0.0268911 0.0277309 0.0318166 0.0363458 0.0592965 0.0612906 0.0569465 0.0543903 0.0610563 0.0675997 0.0772466 0.0760434 0.0788696 0.0826094 0.0646671
45 2 Si 1.96532 63.6745 4.72704 2.4 1 0.0170335 0.0126229 0.0212291 0.0396593 0.033763 0.0291696 0.0408522 0.0443493 0.0539268 0.0538472 0.050315 0.0735207 0.0758549 0.0497551 0.0759648 0.0708996 0.064481 0.0915053 0.0535028 0.0566891
46 3 O -1.25425 63.7325 4.70247 -1.2 1 0.025391 0.0194439 0.0207191 0.0213028 0.0244192 0.0279127 0.0315755 0.0708219 0.0337618 0.0497179 0.0455062 0.0722586 0.0567683 0.071727 0.0677576 0.0661145 0.0585924 0.0735536 0.0525033 0.0758272
47 3 O 0.946743 59.9559 4.69068 -1.2 1 0.0141691 0.0184108 0.0219129 0.0144679 0.0148866 0.0454952 0.0329283 0.0434707 0.054481 0.0466882 0.0408486 0.0428529 0.0496399 0.0704182 0.0982483 0.0646401 0.0721004 0.0579251 0.0646716 0.0636174
48 3 O 1.37567 63.0266 3.40359 -1.2 1 0.0141517 0.00573733 0.0212956 0.0218555 0.0264352 0.0168466 0.0505626 0.0469295 0.036875 0.0477571 0.0517395 0.0422561 0.0555395 0.067925 0.0845507 0.0690821 0.0744611 0.0570214 0.0662123 0.0650831
49 1 Mg -0.0149536 64.7344 0.417946 1.2 1 0.00859156 0.0146813 0.00821303 0.0302661 0.00670859 0.0281958 0.0151704 0.055282 0.0215865 0.0799058 0.0271757 0.0489117 0.0292473 0.0689614 0.0263551 0.0968354 0.0469452 0.104823 0.0453769 0.090022
50 3 O 1.33145 62.9597 5.97201 -1.2 1 0.00432414 0.00853544 0.0241226 0.0267831 0.0292148 0.0184846 0.0534221 0.0428837 0.0384196 0.0473576 0.0560761 0.0427745 0.0601263 0.0546157 0.0907118 0.075298 0.075057 0.0577784 0.0633028 0.0733669
51 1 Mg 0.0484083 67.7122 1.65246 1.2 1 0.0181438 0.01772 0.0197182 0.0296576 0.0222333 0.0297575 0.0243405 0.0363142 0.0399553 0.05407 0.0569133 0.0625264 0.0539132 0.0644389 0.0735386 0.0677524 0.0772685 0.0841939 0.0784164 0.0781586
52 2 Si -2.01577 65.7022 1.75545 2.4 1 0.0127608 0.0164558 0.0218992 0.0316497 0.0363822 0.0307439 0.0436442 0.0423407 0.0532018 0.0473486 0.0494244 0.0710286 0.0702842 0.0587044 0.0729383 0.0725231 0.0648679 0.0939216 0.053093 0.0540842
53 3 O 1.16093 65.6697 1.73615 -1.2 1 0.0122038 0.0179585 0.00880119 0.0226861 0.0319786 0.0250274 0.0239327 0.0718474 0.0353318 0.054921 0.0456062 0.0716357 0.0614864 0.063446 0.0766898 0.0707132 0.0591012 0.0696866 0.0661328 0.0719797
54 3 O -1.01301 69.5749 1.77788 -1.2 1 0.0123294 0.0110427 0.0251617 0.0248224 0.0184631 0.0344322 0.0359478 0.0434547 0.058704 0.0394453 0.0462818 0.0477301 0.0543767 0.0699547 0.0993939 0.0717307 0.0724238 0.0549677 0.0717295 0.056106
55 3 O -1.37738 66.2916 0.502086 -1.2 1 0.0151426 0.0161001 0.0271592 0.0206703 0.0261289 0.0195137 0.0454143 0.0448839 0.035424 0.0376267 0.0527292 0.04532 0.0517826 0.0627017 0.0880217 0.0661635 0.0863158 0.0581404 0.0679724 0.0636442
56 3 O -1.32183 66.4029 3.0798 -1.2 1 0.0209747 0.0164052 0.021742 0.0246736 0.0295708 0.0174718 0.0495408 0.0471977 0.0441784 0.047344 0.0558318 0.0408484 0.0555947 0.0545738 0.0928266 0.0702182 0.0679841 0.0682445 0.05319 0.079857
57 1 Mg -2.3194 70.1078 0.271097 1.2 1 0.0217769 0.016777 0.00297393 0.0355131 0.0113837 0.034165 0.0133396 0.0600888 0.0160881 0.0819197 0.0242485 0.04995 0.0219092 0.0711427 0.0304794 0.0997992 0.0371406 0.10214 0.0467729 0.0818757
58 1 Mg 2.19108 73.1035 1.675 1.2 1 0.0168207 0.0105409 0.0167269 0.0257522 0.0161772 0.0203994 0.03137 0.0350082 0.0370737 0.0585448 0.053678 0.0739877 0.0500477 0.0547371 0.0750211 0.0535547 0.0947197 0.072883 0.0815761 0.0585989
59 2 Si -0.32895 71.1042 1.72541 2.4 1 0.017502 0.00941995 0.0131223 0.0339815 0.028958 0.0351218 0.0426207 0.0417867 0.0573329 0.0577582 0.0551444 0.0723538 0.068588 0.0569303 0.0712111 0.07981 0.0621736 0.0955811 0.0534158 0.0599061
60 3 O 1.22877 71.0594 1.75944 -1.2 1 0.0221686 0.0124296 0.0117005 0.0278935 0.0246092 0.0244151 0.0272319 0.0784111 0.0366479 0.0675955 0.0327495 0.0665676 0.065886 0.0629922 0.0757931 0.0651839 0.0613039 0.0731277 0.0696889 0.0635862
61 3 O -1.26789 74.848 1.6058 -1.2 1 0.00943204 0.00838189 0.0267007 0.0228197 0.0147895 0.0339446 0.0361743 0.042593 0.0559894 0.039571 0.0461627 0.0530428 0.0472801 0.0705225 0.102506 0.0740855 0.075288 0.0458332 0.0809374 0.0608285
62 3 O -0.969016 71.6648 0.3616 -1.2 1 0.00953816 0.0161055 0.0381715 0.0125816 0.0200938 0.0202792 0.0448617 0.0450716 0.0378059 0.0467504 0.0561728 0.0377223 0.0504158 0.0675641 0.0778866 0.080697 0.0689291 0.0572736 0.0622214 0.0682262
63 1 Mg -2.3126 80.4375 3.10537 1.2 1 0.00873231 0.0160237 0.00468004 0.0327153 0.00769033 0.037139 0.0122496 0.0588511 0.0154367 0.0828678 0.0172832 0.0490687 0.0180031 0.0681835 0.0238295 0.107019 0.0310362 0.10844 0.0324233 0.0963585
64 3 O -1.10019 71.7105 2.90365 -1.2 1 0.0109441 0.0150908 0.0268002 0.01832 0.0243572 0.0201431 0.0467625 0.0491216 0.0357781 0.0523906 0.0491333 0.044596 0.0618618 0.0574314 0.0934502 0.0760911 0.0729065 0.0708224 0.0662898 0.0635196
65 1 Mg -2.27292 77.5864 4.79471 1.2 1 0.016953 0.017024 0.0203743 0.0268217 0.0137066 0.0276822 0.0259517 0.0339525 0.0458669 0.0636517 0.0534672 0.0508998 0.0658744 0.0640551 0.0617455 0.0832688 0.0637133 0.103555 0.0665558 0.0868093
66 2 Si 0.527012 79.4157 4.61109 2.4 1 0.012578 0.0219098 0.0243764 0.039069 0.0313497 0.0315144 0.0442445 0.0392151 0.0513735 0.0582423 0.0502846 0.0695031 0.0702153 0.0668189 0.0810258 0.0668472 0.0623363 0.0947841 0.0575394 0.0532343
67 3 O -1.11246 79.3925 4.63775 -1.2 1 0.0258063 0.0164422 0.0133031 0.0158417 0.019212 0.0296366 0.0252198 0.0578434 0.0397168 0.0572248 0.0418932 0.0704378 0.0501982 0.0683522 0.0731767 0.0688336 0.0615144 0.0746744 0.0586791 0.064684
68 3 O 1.38543 75.7646 4.66967 -1.2 1 0.0133965 0.0208205 0.0290206 0.0171183 0.0239796 0.0365761 0.0338322 0.0473801 0.0489988 0.0464777 0.0387865 0.0529529 0.0508644 0.0611429 0.104646 0.0718214 0.0703704 0.0577643 0.0635085 0.0698573
69 3 O 1.12245 78.6947 3.36922 -1.2 1 0.0082171 0.0263783 0.0266172 0.0228129 0.021639 0.0225873 0.0432478 0.0480643 0.0349818 0.0491942 0.0561211 0.039222 0.0556617 0.0544292 0.0899848 0.0652895 0.0794535 0.0637526 0.0690213 0.0703013
70 3 O 1.02403 78.7366 5.97381 -1.2 1 0.0164422 0.0191783 0.0277521 0.0242519 0.0305516 0.0231878 0.0516117 0.0409876 0.0439032 0.0453444 0.0552534 0.0407768 0.0623434 0.0713613 0.0741946 0.0738186 0.0793939 0.0593357 0.0770275 0.0699541
71 1 Mg -0.00403384 75.3036 3.27728 1.2 1 0.0134007 0.0183056 0.00902141 0.0292068 0.0107667 0.0322883 0.0127128 0.0597746 0.0212571 0.0825761 0.018584 0.0514623 0.0238541 0.0724077 0.0278058 0.102205 0.0427464 0.107924 0.0440182 0.0926575
72 1 Mg -0.251424 72.3092 4.83153 1.2 1 0.019412 0.0102723 0.0153949 0.0292236 0.017443 0.028654 0.0238559 0.0325929 0.0395559 0.0596075 0.063409 0.0531628 0.0615603 0.0667526 0.0733601 0.0826843 0.0690418 0.0839805 0.0782636 0.0709954
73 2 Si 2.00484 74.2012 4.65482 2.4 1 0.00866695 0.00668208 0.0221591 0.0313464 0.030212 0.0334485 0.0349198 0.0417583 0.0520311 0.0540526 0.0519636 0.0680461 0.0644357 0.0596542 0.0782713 0.0729929 0.0602812 0.0931808 0.0575281 0.0564968
74 3 O -1.13595 74.2276 4.74831 -1.2 1 0.0250763 0.013553 0.0148922 0.0223539 0.026297 0.0286488 0.0206055 0.070067 0.0437014 0.0578004 0.0356404 0.0691979 0.0529028 0.0713682 0.0661603 0.0685174 0.0618662 0.0754791 0.0553308 0.075
75 3 O 0.975148 70.4225 4.64286 -1.2 1 0.0108301 0.0134263 0.0270783 0.0226068 0.0188934 0.0368521 0.0358491 0.0444282 0.0517891 0.0466515 0.0441828 0.0448361 0.0472724 0.0660443 0.108699 0.0738906 0.0672162 0.0492071 0.068394 0.0638819
76 3 O 1.38584 73.5644 3.39533 -1.2 1 0.0275869 0.00558794 0.0360319 0.0214905 0.0236859 0.017276 0.0439066 0.0508662 0.0405244 0.0434368 0.0532988 0.037589 0.0551184 0.0710396 0.0812148 0.0696551 0.0746084 0.0609097 0.0638222 0.066679
77 1 Mg -0.00355491 75.312 0.0809379 1.2 1 0.0103097 0.0160438 0.00716014 0.0291932 0.0124138 0.0373815 0.0134022 0.0563657 0.016952 0.0834905 0.0163036 0.0546235 0.0215945 0.0678062 0.0202067 0.102434 0.0336318 0.107825 0.03359 0.0958579
78 3 O 1.2474 73.6213 5.97577 -1.2 1 0.0172072 0.0150317 0.0316386 0.023409 0.0290147 0.0168641 0.0469441 0.0464087 0.0395896 0.0415246 0.0547483 0.0436529 0.0502444 0.057685 0.0936239 0.0690015 0.0796192 0.0552443 0.0709862 0.0644293
79 1 Mg 0.0262319 78.0896 1.64378 1.2 1 0.0142684 0.0195284 0.0158548 0.029514 0.0150466 0.0243877 0.0224472 0.0278694 0.0412907 0.0631535 0.0507587 0.0597711 0.0634968 0.0679249 0.0623252 0.0743763 0.0749079 0.104051 0.0653365 0.0876432
80 2 Si -2.02121 76.2959 1.63176 2.4 1 0.0254297 0.0166402 0.0186297 0.023642 0.0282232 0.0335241 0.0446991 0.0412662 0.0488967 0.0520287 0.0486407 0.0674581 0.0652614 0.0536112 0.080155 0.0702246 0.0521959 0.0913807 0.0593777 0.0579147
81 3 O 1.08674 76.1757 1.67853 -1.2 1 0.0296315 0.0150703 0.0099491 0.0220774 0.0252524 0.0231646 0.0238426 0.0684294 0.0352455 0.0615035 0.0365841 0.0694142 0.0501887 0.060377 0.0774983 0.0672633 0.0547152 0.0731499 0.0662652 0.0742008
82 3 O -0.914925 79.8896 1.60757 -1.2 1 0.00605895 0.0167728 0.0247776 0.0194774 0.0193663 0.0353986 0.0310058 0.0463353 0.0576119 0.047059 0.0455021 0.0495856 0.0508545 0.069325 0.10571 0.0725867 0.0629375 0.0496174 0.0718105 0.0689457
83 3 O -1.44552 76.9249 0.334454 -1.2 1 0.00869704 0.0151004 0.0278943 0.0168334 0.0275153 0.0169315 0.0488916 0.0382197 0.0410811 0.0542741 0.0520485 0.0365884 0.0553706 0.0662251 0.0752641 0.0767699 0.0758947 0.0622866 0.0634275 0.0726
84 3 O -1.30694 77.0154 2.90313 -1.2 1 0.0222051 0.0148624 0.0265363 0.0125621 0.0277222 0.0179485 0.0448008 0.0456727 0.0351536 0.0505546 0.055919 0.0370486 0.056782 0.0564763 0.0821539 0.0744745 0.0699819 0.0709746 0.0607685 0.0633036
85 1 Mg -2.16263 80.2871 0.150886 1.2 1 0.0172218 0.0163486 0.0123088 0.02855 0.0111 0.039795 0.0142098 0.0583604 0.023258 0.0812476 0.0202316 0.0501651 0.0260824 0.0692915 0.0306627 0.100446 0.038789 0.107164 0.0420036 0.0884752
86 1 Mg 2.39902 83.2713 1.59448 1.2 1 0.0191434 0.0122288 0.0197397 0.0251559 0.0106888 0.0278779 0.0257902 0.0405956 0.0418743 0.0603264 0.0557798 0.0618152 0.0564478 0.0658786 0.0671541 0.0723905 0.0675945 0.096407 0.0695002 0.0790012
87 2 Si -0.132615 81.4556 1.67639 2.4 1 0.0150077 0.0160416 0.0200576 0.0257621 0.0246113 0.0243778 0.0416452 0.0436927 0.043152 0.0660263 0.0542081 0.0600887 0.0656309 0.0502731 0.0714711 0.0669127 0.062492 0.0863126 0.0625123 0.0641563
88 3 O 1.40153 81.3169 1.64215 -1.2 1 0.0219931 0.0113175 0.0129874 0.02526 0.0235378 0.03193 0.030646 0.073975 0.0395543 0.0618586 0.0361131 0.0662766 0.0495773 0.0619108 0.0788072 0.0636278 0.0561505 0.0768801 0.0561278 0.0709568
89 3 O -1.32614 85.039 1.56022 -1.2 1 0.00961001 0.0214356 0.0258387 0.0233752 0.0244607 0.0327809 0.03396 0.0446189 0.0477994 0.0423305 0.0485293 0.0435147 0.0552168 0.0677425 0.101345 0.0824438 0.0645836 0.0540184 0.0744357 0.0617348
90 3 O -0.833295 82.0426 0.360015 -1.2 1 0.00544711 0.0213014 0.0225198 0.0174641 0.029537 0.0223485 0.0504181 0.0425564 0.0375935 0.0505531 0.0521577 0.0350561 0.0479918 0.0694886 0.0706845 0.077039 0.0700282 0.0546705 0.0645289 0.0759372
91 1 Mg -2.34328 90.6917 3.23948 1.2 1 0.0120653 0.0166094 0.00910652 0.0294296 0.0100345 0.0389242 0.0115547 0.0593531 0.0151168 0.0814071 0.0213174 0.0481191 0.0203898 0.0733904 0.0241789 0.0992337 0.030461 0.113414 0.0312324 0.0874899
92 3 O -0.794006 81.9519 2.9298 -1.2 1 0.0185112 0.0131719 0.0254727 0.0200143 0.0282922 0.024538 0.0446271 0.0404267 0.0409096 0.0435735 0.0519518 0.041604 0.051002 0.0653611 0.0712221 0.068696 0.0708935 0.0608226 0.0742682 0.0623767
93 1 Mg -2.19684 87.787 4.71584 1.2 1 0.0142952 0.0182763 0.020439 0.0269203 0.0162999 0.0280775 0.0235134 0.0348746 0.0398434 0.062387 0.0511496 0.0564316 0.0609596 0.0620841 0.0630955 0.0766202 0.0841657 0.0933893 0.0720737 0.0757214
94 2 Si 0.443456 89.6773 4.75616 2.4 1 0.0211137 0.0137356 0.0181625 0.0302205 0.0297286 0.0316011 0.0439765 0.0403915 0.0523198 0.0596092 0.0532578 0.0657947 0.0766181 0.0560048 0.0769987 0.0702723 0.0622567 0.098403 0.0525327 0.0622336
95 3 O -1.16544 89.7031 4.73394 -1.2 1 0.0153044 0.0110361 0.016351 0.0242159 0.0256855 0.0278513 0.0223752 0.0778408 0.0390969 0.0589495 0.0377758 0.0666528 0.05897 0.0659857 0.0768579 0.06301 0.0536406 0.0717463 0.0678 0.0680768
96 3 O 1.60806 85.935 4.88597 -1.2 1 0.0179687 0.0173244 0.0240066 0.0194357 0.022111 0.0318002 0.0326206 0.0428242 0.050353 0.0440731 0.0511212 0.0430868 0.060919 0.0696689 0.0945933 0.0787812 0.0644981 0.055863 0.0744971 0.0585126
97 3 O 1.10397 88.8859 3.5503 -1.2 1 0.0125845 0.00950737 0.0296427 0.0182391 0.0237384 0.0294187 0.0446294 0.0420064 0.0304753 0.0535846 0.0548341 0.035668 0.057822 0.0640388 0.077641 0.0775365 0.069656 0.0737553 0.0608972 0.0599887
98 3 O 1.06919 89.003 6.09836 -1.2 1 0.0120618 0.0115605 0.0324419 0.0228695 0.0222172 0.021643 0.051091 0.047827 0.045774 0.049501 0.0464456 0.04157 0.0533379 0.0677407 0.0787998 0.0743461 0.0709529 0.0626191 0.066725 0.0699283
99 1 Mg 0.151412 85.4011 3.14294 1.2 1 0.0140647 0.01519 0.00871292 0.0290014 0.0156546 0.0364442 0.0165833 0.0547067 0.0210426 0.0768067 0.0219915 0.0447483 0.0216294 0.0666118 0.0240769 0.105975 0.0333307 0.109005 0.042991 0.0915036
100 1 Mg -0.0631672 82.5276 4.74435 1.2 1 0.0211561 0.01507 0.0162568 0.0271517 0.0100559 0.0258012 0.0289348 0.0362816 0.0365534 0.0594477 0.0554988 0.061693 0.0598797 0.062936 0.0669546 0.0636486 0.082882 0.0904226 0.0800276 0.0684867
101 2 Si 2.18536 84.4303 4.84462 2.4 1 0.0145324 0.0213082 0.0141124 0.035824 0.02835 0.029667 0.0429645 0.0373692 0.0452508 0.0562839 0.0541052 0.0655904 0.0734368 0.0534954 0.0738297 0.0722092 0.0606355 0.0946665 0.0596395 0.0636198
102 3 O -0.935601 84.4927 4.74694 -1.2 1 0.014882 0.0152402 0.0160738 0.0275562 0.0258006 0.0265898 0.0251862 0.0719673 0.0390474 0.0636265 0.041526 0.0621935 0.0532825 0.0681006 0.0699406 0.0611515 0.0539405 0.0765847 0.0696342 0.0733041
103 3 O 1.21336 80.8516 4.63774 -1.2 1 0.0113153 0.0130865 0.0246669 0.0177447 0.0246473 0.0349429 0.0368512 0.0494591 0.0468292 0.0486762 0.0396202 0.05481 0.0481376 0.0677142 0.10639 0.0689504 0.0663601 0.0640434 0.0653752 0.0570034
104 3 O 1.51966 83.8238 3.49551 -1.2 1 0.00985302 0.0092224 0.0213169 0.0244011 0.0205474 0.0237472 0.046367 0.0413312 0.0379324 0.0434222 0.0439466 0.0419636 0.0565912 0.0715429 0.0790365 0.0733519 0.0815696 0.0617298 0.0671078 0.0685444
105 1 Mg -0.0653959 85.7243 -0.00320706 1.2 1 0.0156693 0.0115933 0.0213961 0.0234588 0.0129372 0.0320165 0.0170168 0.0538622 0.0307949 0.0740006 0.029546 0.0444112 0.0337333 0.0624389 0.0379191 0.0973093 0.0553721 0.100791 0.0655006 0.0776885
106 3 O 1.49671 83.7096 6.01517 -1.2 1 0.0107876 0.0106188 0.0271682 0.0181246 0.0257677 0.0230965 0.0413678 0.0474225 0.0330798 0.0507102 0.0550869 0.0365125 0.0514165 0.0586307 0.086946 0.0739972 0.0685348 0.0615621 0.0641929 0.0726816
107 1 Mg -0.000586 88.469 1.81003 1.2 1 0.0248535 0.0124906 0.0187456 0.0284255 0.016106 0.0262057 0.0270178 0.0337699 0.0467091 0.0598546 0.0504184 0.0609846 0.0593954 0.0688252 0.0665248 0.0664092 0.0701402 0.110215 0.0631601 0.0946915
108 2 Si -1.97984 86.5347 1.68294 2.4 1 0.014802 0.0131738 0.0178446 0.0247899 0.0320884 0.0349793 0.0415568 0.0406627 0.0500701 0.0514198 0.0511023 0.0619682 0.0708805 0.0565753 0.0820208 0.0613329 0.0607645 0.0918029 0.0579771 0.0586677
109 3 O 1.19331 86.4347 1.73912 -1.2 1 0.0212548 0.00830258 0.0185112 0.0195336 0.0256332 0.0304767 0.0266626 0.0697254 0.0367424 0.0553803 0.0381309 0.0683082 0.0503158 0.0656683 0.0791659 0.0702529 0.0568813 0.0734835 0.054977 0.0790391
110 3 O -0.919674 90.3829 1.87142 -1.2 1 0.00657458 0.0103013 0.0232361 0.0231683 0.0150353 0.0322402 0.0358378 0.0476477 0.060439 0.0420534 0.0498182 0.0429001 0.0512685 0.0715543 0.102132 0.0696858 0.0691261 0.0460708 0.0812411 0.0645061
111 3 O -1.32691 87.3399 0.398169 -1.2 1 0.0253484 0.0198021 0.0234379 0.0149305 0.0197428 0.0219539 0.0425051 0.0439267 0.0347029 0.0496797 0.0542096 0.0367553 0.057084 0.0625805 0.0801899 0.0696082 0.0695923 0.0643761 0.0563215 0.0738612
112 3 O -1.2598 87.1259 2.89051 -1.2 1 0.00829723 0.0110657 0.0306813 0.0221459 0.0259428 0.0183025 0.0453466 0.0393196 0.0368012 0.0349072 0.0515144 0.0437201 0.053111 0.0644637 0.0844235 0.059402 0.0863309 0.0590359 0.071922 0.0591435
113 1 Mg -2.32034 90.8407 0.420139 1.2 1 0.00878713 0.0174082 0.00976358 0.0264205 0.00787593 0.0361553 0.0107433 0.0602342 0.0138203 0.0850949 0.0184638 0.0492189 0.0212655 0.0725393 0.0204424 0.10182 0.0265586 0.115146 0.0297941 0.0969262
114 1 Mg 2.26139 93.6098 1.87141 1.2 1 0.0227873 0.0178847 0.0237225 0.0332516 0.0226873 0.02936 0.0242686 0.0335849 0.0424795 0.058423 0.0602044 0.0580458 0.0599551 0.0676467 0.0635851 0.0951053 0.070557 0.0814347 0.0729343 0.0714967
115 2 Si -0.202723 91.8717 1.88828 2.4 1 0.0189225 0.0207518 0.0223976 0.0245382 0.0298969 0.0251348 0.0382644 0.0442317 0.0489609 0.0588274 0.0564613 0.0681038 0.0625427 0.0574102 0.0725279 0.07166 0.0639326 0.0915625 0.0610109 0.0635813
116 3 O 1.35698 91.7507 1.87442 -1.2 1 0.0187528 0.0165107 0.01177 0.0259353 0.024495 0.0277614 0.0248926 0.080413 0.0325358 0.0652465 0.0404672 0.0685536 0.0615194 0.0674833 0.0707124 0.0624808 0.0547588 0.0727127 0.062715 0.0729632
117 3 O -1.38595 95.5084 1.98078 -1.2 1 0.00667592 0.0189742 0.0233812 0.0283327 0.0188442 0.0373526 0.036712 0.0470429 0.0562548 0.0411194 0.0500191 0.039588 0.0547933 0.069477 0.100978 0.0698172 0.0690762 0.0515559 0.0763585 0.056276
118 3 O -0.851308 92.6238 0.644075 -1.2 1 0.0122256 0.00765848 0.0276336 0.0161731 0.0171694 0.0207383 0.0397681 0.0467615 0.0397249 0.0519954 0.0496403 0.0341287 0.0598384 0.0580505 0.0779032 0.0772634 0.0711213 0.0708901 0.0659871 0.0667361
119 1 Mg -2.30742 101.182 3.19594 1.2 1 0.0126612 0.0163024 0.00671632 0.027716 0.00501611 0.0374391 0.00923527 0.0571791 0.0190324 0.086864 0.0204811 0.0523311 0.0179821 0.0662783 0.0218793 0.0992777 0.0274094 0.109741 0.0370009 0.0961314
120 3 O -0.882742 92.4927 3.15607 -1.2 1 0.0212819 0.0172388 0.0235625 0.0224998 0.0228219 0.0305074 0.0478749 0.0427439 0.0327438 0.051544 0.0605496 0.0396882 0.0528278 0.0620127 0.0729762 0.0780612 0.0681961 0.0598174 0.0599287 0.0718395
121 1 Mg -2.22466 98.3276 4.93089 1.2 1 0.0171344 0.0117601 0.0177298 0.0263089 0.0131753 0.026962 0.0281922 0.0314168 0.0445424 0.06003 0.0544072 0.0533266 0.0587838 0.0719093 0.0647147 0.0802254 0.0649066 0.0989326 0.0683494 0.0914759
122 2 Si 0.453523 100.207 4.72447 2.4 1 0.00981859 0.018792 0.0212197 0.0274803 0.0251254 0.0325087 0.0372611 0.0393943 0.052594 0.0543479 0.0487653 0.0595271 0.0619189 0.0547267 0.0766643 0.074789 0.0651811 0.0910802 0.0620511 0.0517451
123 3 O -1.10892 100.288 4.84284 -1.2 1 0.0170168 0.0159085 0.0134441 0.0222273 0.0188298 0.0350337 0.0253822 0.0661087 0.0430775 0.0586133 0.0429986 0.0689592 0.0553293 0.0635457 0.0748182 0.0734202 0.0671762 0.064972 0.0538573 0.0803434
124 3 O 1.41359 96.2894 4.9395 -1.2 1 0.0163211 0.0211666 0.01989 0.0201345 0.0180001 0.0333589 0.0375523 0.0417563 0.0584456 0.0400119 0.0487992 0.0473032 0.0513508 0.0721425 0.0982039 0.0687284 0.0746466 0.0486637 0.0762036 0.0561276
125 3 O 1.16797 99.623 3.42592 -1.2 1 0.00936244 0.0122047 0.0262684 0.0247463 0.0267238 0.0286821 0.0421022 0.0462205 0.0424664 0.0417462 0.0553686 0.0407708 0.0516979 0.0523209 0.0898451 0.0722772 0.0731352 0.0583978 0.054336 0.085623