ITEM: TIMESTEP
47800
ITEM: NUMBER OF ATOMS
5600
ITEM: BOX BOUNDS xy xz yz pp pp pp
0	7.1235	0
0	201.985	2.3745
0	119.584	0
ITEM: ATOMS id type element xu yu zu q Q_1 Q_2 Q_3 Q_4 Q_5 Q_6 Q_7 Q_8 Q_9 Q_10 Q_11 Q_12 Q_13 Q_14 Q_15 Q_16 Q_17 Q_18 Q_19 Q_20 Q_21
1 1 Mg -1.85848 49.0804 -0.857833 1.2 1 0.419952 0.0983966 0.12613 0.0458839 0.0709604 0.0553198 0.0465859 0.0576293 0.0814365 0.065221 0.0736638 0.0719282 0.0845829 0.100488 0.118104 0.0783008 0.0908918 0.107145 0.115208 0.0895587
2 1 Mg 2.81752 50.8215 2.59231 1.2 1 0.270148 0.13664 0.0394457 0.054907 0.0496095 0.0311132 0.0798193 0.0585115 0.0676488 0.0756136 0.0642701 0.0770996 0.0709575 0.0790482 0.0814673 0.081835 0.086762 0.0642805 0.0942833 0.0796194
3 2 Si 0.511993 50.375 0.577325 2.4 1 0.30363 0.12737 0.0296575 0.0813969 0.0374842 0.0501766 0.0524534 0.0492633 0.0739339 0.0866799 0.0581227 0.0776521 0.063565 0.0852885 0.101181 0.0781388 0.0756266 0.0830883 0.0670869 0.0980161
4 3 O 2.05024 49.8857 0.742789 -1.2 1 0.354654 0.117599 0.0750924 0.0702454 0.0291419 0.0617472 0.0425615 0.0596203 0.0539712 0.0644662 0.0650964 0.0972462 0.0843894 0.0887531 0.0963609 0.083672 0.0706621 0.0728249 0.0779045 0.0826767
5 3 O -1.5052 53.4007 2.10862 -1.2 1 0.109417 0.0593216 0.0508831 0.0313747 0.0274332 0.0222022 0.0458588 0.0414364 0.0622677 0.0593464 0.0552338 0.0528925 0.0516692 0.0669807 0.0720764 0.0878315 0.0826146 0.0578178 0.0568019 0.0744867
6 3 O -0.0769822 49.7543 -0.661252 -1.2 1 0.378677 0.10167 0.0753971 0.0648462 0.0356872 0.0619031 0.0315979 0.0586839 0.0865162 0.0701791 0.0682878 0.0869503 0.10255 0.0781131 0.0889948 0.0849496 0.0755762 0.0888393 0.0712218 0.104991
7 1 Mg -2.47624 59.5917 3.6954 1.2 1 0.0174966 0.0202563 0.0133577 0.0256163 0.0228952 0.025757 0.0322472 0.0565077 0.0448491 0.0685144 0.0416123 0.0440128 0.0373933 0.0601016 0.056786 0.0821556 0.0700236 0.0861736 0.0693294 0.0703651
8 3 O -0.170441 50.5017 2.04455 -1.2 1 0.29805 0.146637 0.0565971 0.0532059 0.038993 0.0445418 0.0641698 0.0694503 0.0716103 0.0878904 0.0762953 0.0695597 0.0644212 0.0705053 0.0948214 0.0812542 0.0846427 0.0819955 0.0880888 0.0766561
9 1 Mg -2.57434 56.317 5.00413 1.2 1 0.022481 0.0155142 0.0241997 0.0275118 0.0231477 0.0364393 0.0187475 0.0319297 0.0497731 0.0578678 0.0587334 0.0604563 0.0475706 0.0710293 0.059302 0.0652842 0.0778655 0.0833668 0.0736565 0.0821996
10 2 Si 0.176566 58.3498 5.01961 2.4 1 0.0388794 0.0248167 0.0271474 0.0245409 0.0400264 0.0308791 0.0372919 0.0419989 0.0535767 0.0579727 0.0488521 0.0720079 0.0772134 0.0542477 0.0790752 0.0633509 0.072995 0.0849701 0.0665508 0.0566532
11 3 O -1.37231 58.5361 5.08232 -1.2 1 0.0309504 0.0179679 0.0222647 0.0224159 0.0247152 0.0278868 0.0328687 0.0706442 0.0445531 0.0504091 0.0539688 0.0726267 0.0508021 0.0642382 0.0691636 0.0724567 0.061288 0.0671649 0.0536564 0.0848703
12 3 O 1.537 54.0835 5.08639 -1.2 1 0.0724158 0.0407141 0.0398988 0.0280943 0.0281731 0.0279569 0.0354779 0.0356583 0.0623426 0.0669038 0.0723123 0.0387246 0.0592564 0.0826833 0.0700708 0.0738333 0.0667633 0.0706529 0.0663275 0.0609808
13 3 O 0.726682 57.6233 3.72321 -1.2 1 0.0223618 0.0154555 0.0223049 0.0287683 0.0197463 0.0317972 0.0408765 0.0430276 0.0325996 0.0622855 0.0527958 0.0415547 0.0543915 0.0749705 0.0852275 0.0779222 0.0739337 0.0594567 0.062393 0.0663742
14 3 O 0.792639 57.5987 6.27563 -1.2 1 0.0288262 0.0131447 0.0231088 0.0201307 0.0252968 0.033447 0.0490285 0.0388864 0.0389668 0.0524231 0.0597793 0.0461513 0.0627517 0.0647439 0.0767441 0.0840821 0.0668857 0.0584655 0.0625285 0.0746435
15 1 Mg 0.042645 53.269 3.37934 1.2 1 0.111265 0.0707399 0.0347065 0.0314168 0.0237181 0.0299875 0.0414096 0.0487663 0.0661455 0.0409257 0.0710697 0.0515116 0.0507859 0.0577366 0.0702419 0.0729944 0.0709027 0.0812468 0.0709004 0.0919862
16 1 Mg 0.645375 49.9273 3.70556 1.2 1 0.365865 0.101642 0.0699317 0.059393 0.0396274 0.0647871 0.0479158 0.0680583 0.0665006 0.0785699 0.0728558 0.0779269 0.0667116 0.060889 0.103132 0.0881921 0.0830514 0.0809214 0.0910256 0.0789139
17 2 Si 2.2076 52.6274 5.04047 2.4 1 0.118707 0.102496 0.0455675 0.039893 0.0286721 0.0498645 0.0497159 0.0518652 0.0768396 0.0612002 0.0804986 0.0631806 0.0747923 0.0791936 0.0738915 0.0894473 0.0798485 0.100823 0.0646516 0.0695105
18 3 O -1.00723 52.9218 4.89151 -1.2 1 0.112427 0.0973733 0.0397097 0.0303896 0.0260831 0.0456894 0.0430645 0.0646605 0.0622442 0.0702059 0.0551243 0.0785494 0.0783223 0.0768503 0.0768451 0.063288 0.0797272 0.0694064 0.0767382 0.0586922
19 3 O 2.29845 48.9603 3.44426 -1.2 1 0.471287 0.0465833 0.125098 0.0429647 0.0808496 0.0328825 0.0760798 0.0796126 0.0745245 0.065638 0.07106 0.0768341 0.0820069 0.0708913 0.0922776 0.11063 0.0903475 0.08737 0.101742 0.0872547
20 3 O 1.54996 51.8109 3.76696 -1.2 1 0.204888 0.103239 0.0205128 0.0310911 0.0347647 0.0495334 0.0393256 0.0720215 0.0522102 0.0466965 0.0678277 0.0604387 0.0673848 0.0776628 0.0862078 0.0753215 0.0786084 0.0797285 0.0832894 0.0716084
21 1 Mg -0.29234 54.0252 0.515078 1.2 1 0.0558246 0.0623876 0.0540337 0.0288383 0.0357075 0.0255364 0.0311743 0.0549485 0.0484717 0.0533729 0.051537 0.0480973 0.0497899 0.0662679 0.0553097 0.0828262 0.0685455 0.0886874 0.0586485 0.0734529
22 3 O 1.89902 51.6875 6.30249 -1.2 1 0.215867 0.113157 0.0251815 0.048553 0.0432682 0.0394649 0.0533306 0.0528875 0.0644119 0.0669928 0.0660141 0.0725785 0.0811108 0.0866756 0.0754598 0.0628181 0.0612237 0.0816163 0.0624298 0.0856284
23 1 Mg -0.440399 57.0963 2.22252 1.2 1 0.0210081 0.0346636 0.0221643 0.0232934 0.013934 0.0342988 0.0292984 0.044367 0.0443583 0.0405585 0.064166 0.0593135 0.060498 0.0686457 0.0634618 0.0652912 0.0861012 0.0790688 0.0645844 0.0703592
24 2 Si -2.28015 54.91 2.07815 2.4 1 0.0272278 0.0253215 0.0310736 0.0223441 0.0249495 0.0422471 0.0459523 0.0444309 0.0454698 0.0574547 0.0565306 0.0477741 0.0731103 0.0561685 0.056824 0.063854 0.075686 0.0640044 0.0673352 0.061876
25 3 O 1.01417 54.683 2.07695 -1.2 1 0.0273726 0.0332691 0.0382842 0.0186326 0.0217675 0.029787 0.0261549 0.058275 0.0515287 0.0497577 0.0605169 0.0540182 0.058871 0.0612474 0.0749581 0.0701173 0.0701543 0.0657745 0.0464108 0.0658319
26 3 O -1.28699 58.9747 2.16576 -1.2 1 0.012555 0.0201866 0.0150957 0.0295991 0.0177136 0.0292594 0.0360001 0.044018 0.0578077 0.0420902 0.0530142 0.0458019 0.0575354 0.0731453 0.0898449 0.0741663 0.0743667 0.0546921 0.0739398 0.0545874
27 3 O -1.66453 55.6359 0.816554 -1.2 1 0.0230699 0.0249359 0.0239055 0.0280076 0.025509 0.0369952 0.0463282 0.0414133 0.0244985 0.0480209 0.0649306 0.0450463 0.0594269 0.0769599 0.0658586 0.0784453 0.0735183 0.0668418 0.0791501 0.054207
28 3 O -1.62483 55.7004 3.26603 -1.2 1 0.0163159 0.0295591 0.0203282 0.0272593 0.0193386 0.0245469 0.0527086 0.0401979 0.0348682 0.0393281 0.0668104 0.0498354 0.0468023 0.070571 0.0724383 0.0772943 0.0610564 0.0642305 0.066888 0.0696587
29 1 Mg -2.58595 59.4311 0.556048 1.2 1 0.00789365 0.0139622 0.0183239 0.0268556 0.011358 0.0328462 0.0198986 0.0583456 0.0243032 0.0844246 0.0230127 0.0582108 0.0248863 0.0691185 0.0355404 0.103673 0.0382234 0.104198 0.0412071 0.0841689
30 1 Mg 2.39049 62.3066 1.8037 1.2 1 0.0180774 0.0174731 0.0204365 0.0321057 0.0165201 0.0290169 0.0246464 0.0364512 0.050225 0.0532164 0.0543421 0.0511935 0.0587725 0.0641798 0.0696725 0.0634571 0.0716667 0.101962 0.0659988 0.086111
31 2 Si -0.450275 60.4187 2.07237 2.4 1 0.0133543 0.0237176 0.0121504 0.0348148 0.033946 0.0288603 0.0445307 0.0429448 0.0560407 0.0575043 0.0512514 0.0646105 0.0678501 0.0603426 0.0770489 0.0790941 0.0645283 0.086445 0.0643556 0.0636409
32 3 O 1.08558 60.2925 1.97695 -1.2 1 0.0243533 0.0339248 0.0173847 0.0227591 0.023776 0.0299675 0.0250572 0.0846279 0.037237 0.0576176 0.0320555 0.0703452 0.060861 0.0698619 0.0825229 0.0659141 0.0591427 0.0690431 0.0597035 0.0588891
33 3 O -1.38212 64.0923 1.79372 -1.2 1 0.00514493 0.014978 0.0305906 0.0150259 0.0155229 0.0339166 0.0405725 0.0392919 0.0498354 0.0457506 0.0440274 0.0505936 0.045773 0.0725793 0.0958536 0.0660169 0.0797596 0.0606445 0.0687721 0.0571985
34 3 O -1.18902 61.0608 0.722485 -1.2 1 0.0179169 0.0261592 0.0325927 0.0217718 0.0263785 0.0184119 0.042039 0.0367275 0.0388604 0.050818 0.0594793 0.0419926 0.0603379 0.0606151 0.0867454 0.0776301 0.07221 0.0663952 0.0652284 0.0642215
35 1 Mg -2.6709 69.8727 2.99857 1.2 1 0.0165262 0.0118139 0.0132995 0.0298004 0.0174724 0.0361488 0.0170615 0.0541583 0.0223445 0.0720797 0.0275334 0.0460015 0.0328334 0.064773 0.0435309 0.100558 0.0538098 0.0990223 0.0462415 0.0838937
36 3 O -1.08333 61.1053 3.22064 -1.2 1 0.0235752 0.0155164 0.0248171 0.0217132 0.0251374 0.0333922 0.0479503 0.0479616 0.0354321 0.048714 0.0599083 0.0435366 0.0574475 0.0691309 0.074192 0.0748023 0.0650143 0.0565229 0.0589292 0.0703977
37 1 Mg -2.43201 67.1445 4.58225 1.2 1 0.0178926 0.0155528 0.0185286 0.0298663 0.0155154 0.0260437 0.0224944 0.0275688 0.0509917 0.0645305 0.0609276 0.0462601 0.0546524 0.062442 0.0491666 0.0879125 0.0692027 0.0943302 0.0647434 0.0826412
38 2 Si 0.148519 68.9195 4.6871 2.4 1 0.00727799 0.0141572 0.0252175 0.0302485 0.0235059 0.0346824 0.0390217 0.0378387 0.0575806 0.0578661 0.0491425 0.0589771 0.0686226 0.0646067 0.0909152 0.0633191 0.0613198 0.0884439 0.056613 0.0564973
39 3 O -1.37572 68.9741 4.52674 -1.2 1 0.0216607 0.0158617 0.0172791 0.0240878 0.01817 0.0239243 0.0288529 0.0634935 0.0467851 0.0483027 0.0437215 0.0689704 0.0503979 0.0626587 0.0733427 0.0674138 0.0653011 0.0752661 0.0584224 0.0786766
40 3 O 1.48474 65.1612 4.83362 -1.2 1 0.0175721 0.0254376 0.0253707 0.021372 0.0156949 0.0343164 0.0320869 0.0448378 0.0521579 0.0445681 0.0481279 0.0481751 0.0558816 0.0670831 0.0974773 0.0717837 0.0713398 0.0552682 0.0696782 0.0614298
41 3 O 0.928895 68.2835 3.43491 -1.2 1 0.0230008 0.0118866 0.0229018 0.0297084 0.0251111 0.0235129 0.0476738 0.0463705 0.0380773 0.0444538 0.0505054 0.0469706 0.0516786 0.0624549 0.0829481 0.0700432 0.0753506 0.0562344 0.0695194 0.0677116
42 3 O 1.03742 68.2336 5.89598 -1.2 1 0.0146604 0.010224 0.0236944 0.0222423 0.028891 0.0210786 0.0506218 0.0442028 0.0344404 0.0378345 0.0593058 0.0410651 0.0530453 0.0643619 0.0875358 0.0652792 0.0846364 0.0647845 0.0600575 0.0600042
43 1 Mg -0.104304 64.6177 3.25209 1.2 1 0.0127384 0.0140637 0.0120914 0.0278062 0.00852842 0.0381206 0.0178992 0.0559372 0.0169151 0.0799936 0.0156862 0.0517729 0.018263 0.0795299 0.0220611 0.0981754 0.0321295 0.113282 0.0338955 0.0966645
44 1 Mg -0.188864 61.5507 4.8489 1.2 1 0.0130859 0.0238838 0.0168745 0.0347231 0.0195933 0.019937 0.0246577 0.0340761 0.0437293 0.0603399 0.0602515 0.0601173 0.0588884 0.066795 0.0620997 0.063155 0.0808751 0.0945645 0.0673079 0.0785237
45 2 Si 1.99867 63.5207 4.84577 2.4 1 0.0298553 0.0128924 0.0219235 0.0221209 0.0295941 0.029835 0.0355951 0.0451699 0.0511755 0.0607498 0.0531287 0.066251 0.0741771 0.0505849 0.0766787 0.0693804 0.0623263 0.092922 0.0645126 0.0620561
46 3 O -1.1858 63.466 4.71646 -1.2 1 0.0255573 0.0170791 0.01446 0.0236636 0.0249178 0.0233714 0.0189426 0.0721503 0.0423008 0.0616733 0.0346881 0.0634597 0.0566105 0.0731047 0.0613367 0.0641984 0.0597271 0.0648082 0.0745326 0.0674611
47 3 O 0.817145 59.7923 5.02486 -1.2 1 0.0155314 0.0146058 0.0220992 0.0184035 0.0182139 0.0415291 0.0349845 0.043331 0.0493894 0.0421232 0.0452971 0.0447832 0.0489968 0.0794216 0.0969337 0.0720732 0.0719156 0.0452043 0.0780728 0.0632768
48 3 O 1.28431 62.8103 3.60803 -1.2 1 0.0169437 0.00815317 0.028563 0.0216733 0.0251972 0.0197926 0.0455476 0.0423799 0.0420265 0.0492034 0.0445171 0.0415032 0.060653 0.0689344 0.0825463 0.0721609 0.0697728 0.0724077 0.0550816 0.0683048
49 1 Mg -0.0142707 64.45 0.344304 1.2 1 0.0113635 0.0129336 0.00799969 0.0254565 0.0109557 0.0323991 0.0112537 0.0600514 0.017406 0.0724918 0.0240173 0.0499683 0.0222031 0.069195 0.0277363 0.0975246 0.0355272 0.108212 0.0440248 0.0802093
50 3 O 1.30453 63.0427 6.14312 -1.2 1 0.0179574 0.0147366 0.0315595 0.0195346 0.0226624 0.01691 0.0417684 0.0370182 0.0381583 0.0430697 0.0547497 0.0487934 0.051229 0.0734916 0.0817939 0.0753036 0.0755841 0.0638598 0.07284 0.0691662
51 1 Mg -0.0683826 67.5781 1.74619 1.2 1 0.0130123 0.0151896 0.0163908 0.0319623 0.0188664 0.0231502 0.028448 0.03377 0.0376488 0.0604239 0.0562565 0.053269 0.0659536 0.0643799 0.0684027 0.0751713 0.0832841 0.0909641 0.0741417 0.0756019
52 2 Si -2.05753 65.5743 1.76417 2.4 1 0.00944818 0.0135316 0.0238129 0.0246251 0.0297755 0.0320829 0.0384797 0.0451278 0.0559204 0.0473817 0.0518116 0.0704723 0.0716335 0.0565895 0.072202 0.0689566 0.0583861 0.0947052 0.0461441 0.0538499
53 3 O 1.15112 65.5021 1.7679 -1.2 1 0.0171898 0.0161288 0.0156765 0.0176065 0.0204373 0.0304379 0.0236636 0.0708723 0.0423687 0.0579726 0.0463926 0.0726896 0.0587409 0.0614478 0.0770712 0.0627593 0.0597639 0.0723588 0.0603506 0.0814427
54 3 O -1.24826 69.4478 1.58675 -1.2 1 0.0105198 0.0215037 0.0181274 0.0219982 0.0133087 0.030901 0.0394788 0.0444469 0.0604052 0.0402512 0.0445897 0.047418 0.0522904 0.0721436 0.107064 0.0651825 0.0748364 0.0479045 0.0762983 0.0559314
55 3 O -1.48133 66.2506 0.479401 -1.2 1 0.00681128 0.0211572 0.0204095 0.0276888 0.0287283 0.0178683 0.0536676 0.0428357 0.0386246 0.0479932 0.0543625 0.046721 0.0529034 0.0649226 0.0813237 0.0708614 0.0718115 0.062923 0.0684361 0.0673036
56 3 O -1.4078 66.397 3.01746 -1.2 1 0.0261042 0.0165757 0.0208145 0.0192672 0.0227799 0.0218903 0.0330542 0.045286 0.0352895 0.0514073 0.0515611 0.0448069 0.0574487 0.0514797 0.0866638 0.0720534 0.0682972 0.0666046 0.0637274 0.0726327
57 1 Mg -2.42626 69.7837 0.0467025 1.2 1 0.0128506 0.0184306 0.00978261 0.0337466 0.0109425 0.0358405 0.012852 0.0576507 0.017576 0.0807741 0.0206561 0.0580892 0.0207957 0.0694377 0.0247919 0.105874 0.0330709 0.108137 0.0365805 0.0857628
58 1 Mg 2.05236 72.705 1.54111 1.2 1 0.0209001 0.0211185 0.0199533 0.0291908 0.0185405 0.0289396 0.023639 0.0342029 0.0361924 0.0598669 0.0531653 0.0610215 0.0621276 0.0655083 0.0621831 0.084405 0.0732971 0.0824911 0.0835958 0.0728247
59 2 Si -0.515866 70.9056 1.52381 2.4 1 0.0181132 0.0165089 0.011709 0.0285766 0.031027 0.0357568 0.041887 0.0465732 0.0476103 0.0535851 0.0509339 0.0639409 0.0682097 0.0586056 0.0716402 0.0822858 0.0532736 0.0940287 0.0575449 0.0573538
60 3 O 0.983604 70.8335 1.48619 -1.2 1 0.0222265 0.020934 0.0238403 0.0205858 0.0223966 0.0202683 0.0246407 0.0691188 0.0422035 0.0495262 0.0461632 0.0706261 0.0638871 0.0654303 0.0709733 0.066043 0.061374 0.0669352 0.0708448 0.057828
61 3 O -1.53082 74.4882 1.51746 -1.2 1 0.0126361 0.0190339 0.0262101 0.0167541 0.0211014 0.0340817 0.0319974 0.0471848 0.0499523 0.0454267 0.038673 0.0483034 0.0521945 0.0675881 0.102362 0.0761796 0.0689251 0.0596186 0.0716107 0.065472
62 3 O -1.23157 71.5773 0.224882 -1.2 1 0.0153213 0.0110626 0.038233 0.0206948 0.027358 0.0248159 0.051702 0.0408555 0.0396278 0.0489539 0.055304 0.0402681 0.0556666 0.0512436 0.0821702 0.0773542 0.0595789 0.0698513 0.0582335 0.0769417
63 1 Mg -2.45865 80.1895 3.19548 1.2 1 0.0174405 0.0190009 0.0103895 0.0382749 0.00820833 0.0418093 0.00982853 0.058155 0.0176203 0.0819992 0.0247723 0.0503646 0.0229714 0.0662509 0.0308225 0.103013 0.0359214 0.0985685 0.0415841 0.0937759
64 3 O -1.14397 71.6528 2.75556 -1.2 1 0.0143942 0.0145628 0.0241349 0.0239183 0.0309867 0.0194705 0.0486903 0.0453172 0.0388501 0.0534598 0.0523736 0.0353651 0.0515325 0.0641747 0.087692 0.0807788 0.0673978 0.0731999 0.0668791 0.0665461
65 1 Mg -2.28968 77.3676 4.65572 1.2 1 0.0239701 0.0157368 0.0204742 0.0270626 0.0139991 0.0257198 0.0242843 0.03747 0.0379332 0.058686 0.0616779 0.0505312 0.0568961 0.0589302 0.0644942 0.0784242 0.0758916 0.0892714 0.0724743 0.0795613
66 2 Si 0.282367 79.3044 4.65236 2.4 1 0.00737535 0.0125033 0.0161278 0.0445135 0.0369043 0.0319225 0.0426599 0.0416536 0.0558677 0.0578807 0.0551224 0.0684321 0.076032 0.0621856 0.086546 0.063177 0.0561326 0.0931325 0.0592532 0.0625817
67 3 O -1.31098 79.4441 4.61582 -1.2 1 0.0236606 0.024645 0.0150471 0.0165512 0.0121511 0.0305694 0.027865 0.0710523 0.0358412 0.0532072 0.0391082 0.0734636 0.0513196 0.0767595 0.0807173 0.0773037 0.0565641 0.0766567 0.0431641 0.0828007
68 3 O 1.29939 75.5274 4.55611 -1.2 1 0.0107156 0.0199642 0.0245807 0.0152488 0.0216196 0.0306037 0.0379166 0.0418931 0.0574811 0.0478507 0.0448907 0.0455746 0.0482843 0.0709975 0.108328 0.0774104 0.0706341 0.0497293 0.0684794 0.061081
69 3 O 0.868962 78.5402 3.33857 -1.2 1 0.0155438 0.0141693 0.0258468 0.0202097 0.0268546 0.0311027 0.0445341 0.0440549 0.0334005 0.0534334 0.0492294 0.0370042 0.0546046 0.0702786 0.0758877 0.0722984 0.0757823 0.0580437 0.0685723 0.0643633
70 3 O 1.08728 78.6055 5.81105 -1.2 1 0.0166503 0.0149253 0.0264495 0.0165573 0.0240303 0.0262062 0.0517088 0.0479495 0.0369215 0.044296 0.051392 0.0488581 0.0602973 0.0636874 0.0911994 0.0665661 0.0772708 0.0623206 0.0650338 0.0631749
71 1 Mg -0.112415 75.0901 3.11073 1.2 1 0.00303397 0.0148367 0.0054721 0.0306112 0.0101488 0.0366406 0.00898633 0.055807 0.0139002 0.0807896 0.0157874 0.0504909 0.0171649 0.0724529 0.0192328 0.10402 0.0249104 0.110887 0.0298014 0.0999938
72 1 Mg -0.239451 72.0578 4.68981 1.2 1 0.019696 0.0166241 0.0164568 0.0332921 0.0114674 0.0191363 0.0254645 0.0362565 0.0374848 0.0523716 0.0500494 0.0603726 0.0606005 0.0563882 0.067137 0.0674251 0.0765427 0.0875204 0.0788622 0.062084
73 2 Si 1.88408 74.0284 4.5819 2.4 1 0.0125379 0.00850317 0.0239151 0.0384755 0.0279767 0.0256956 0.0385101 0.0361652 0.0519996 0.0488511 0.0495041 0.0675522 0.0704194 0.0560056 0.0853122 0.0678737 0.0591454 0.0876161 0.0573187 0.0570409
74 3 O -1.40698 74.0906 4.73777 -1.2 1 0.0185198 0.00711459 0.0198635 0.022785 0.0262239 0.025078 0.0271769 0.0674243 0.041845 0.0466349 0.046263 0.0660444 0.0630084 0.0586052 0.0707104 0.0700828 0.0647627 0.0759951 0.0648237 0.0649107
75 3 O 0.796527 70.5548 4.71836 -1.2 1 0.0145791 0.0227924 0.0203015 0.0182386 0.025159 0.0300157 0.0273731 0.0490525 0.0507531 0.0447811 0.0372757 0.0585218 0.0460879 0.0675383 0.106004 0.062145 0.0728146 0.0559313 0.0560622 0.076473
76 3 O 1.25214 73.4101 3.23061 -1.2 1 0.0190169 0.023283 0.0268523 0.0228111 0.0223419 0.0190595 0.0483681 0.0486645 0.0379038 0.0497139 0.0524778 0.0442563 0.0590797 0.0698461 0.0848982 0.0763823 0.0764422 0.0545615 0.0673194 0.0691066
77 1 Mg -0.0782471 75.034 0.136425 1.2 1 0.00978909 0.0160128 0.014082 0.0272387 0.0109886 0.031662 0.0079509 0.0588974 0.01172 0.0805576 0.014555 0.048587 0.0187564 0.0757605 0.0170582 0.106064 0.0184969 0.119118 0.0239441 0.100115
78 3 O 1.05528 73.3855 5.97082 -1.2 1 0.00364498 0.0121108 0.0346558 0.023258 0.0302746 0.0202775 0.0471413 0.0413798 0.0376036 0.0485174 0.0600366 0.0365455 0.0557163 0.048003 0.0882053 0.0654798 0.0664182 0.0667311 0.0601661 0.0634147
79 1 Mg -0.0275979 78.0548 1.57273 1.2 1 0.0157685 0.0128789 0.0168395 0.0306485 0.0151842 0.0303814 0.0279802 0.0316978 0.0388764 0.0556926 0.0505673 0.0676889 0.0574017 0.0632641 0.0723069 0.061654 0.0797659 0.0911541 0.0718018 0.0857096
80 2 Si -2.13233 76.0206 1.56647 2.4 1 0.0143699 0.015198 0.0213259 0.0181376 0.0319528 0.0358804 0.0398473 0.0403279 0.0545192 0.0486575 0.0446785 0.0699073 0.0662623 0.0578663 0.0796489 0.0613505 0.0570468 0.102058 0.0562672 0.0544302
81 3 O 1.01002 75.9352 1.54431 -1.2 1 0.0209499 0.022546 0.0132033 0.0221676 0.0234543 0.030306 0.0310556 0.075056 0.0377562 0.0474256 0.0426688 0.0728377 0.0594853 0.0621219 0.0795562 0.072867 0.055978 0.0738285 0.059305 0.0771927
82 3 O -1.20766 79.8918 1.65128 -1.2 1 0.00741158 0.0171394 0.0217814 0.0269391 0.0183442 0.0361631 0.0362767 0.0417903 0.0502688 0.0414266 0.040045 0.0521916 0.0466954 0.0686316 0.10347 0.0772325 0.0775801 0.0466506 0.0715443 0.0558061
83 3 O -1.35572 76.8021 0.382415 -1.2 1 0.00826564 0.0213876 0.0299091 0.0177127 0.0203618 0.0162226 0.0545194 0.0429866 0.0306225 0.0440792 0.0480889 0.0427752 0.0550876 0.056874 0.090584 0.0710468 0.0741777 0.0723811 0.0622008 0.0643174
84 3 O -1.44325 76.638 2.86418 -1.2 1 0.019185 0.0137131 0.0335935 0.0264443 0.0252798 0.0226145 0.0472654 0.0475284 0.0399069 0.0446767 0.0466764 0.0459018 0.0543042 0.0679273 0.0901745 0.075465 0.0794496 0.0560863 0.0691015 0.0661371
85 1 Mg -2.39186 80.2968 0.054733 1.2 1 0.00388225 0.018634 0.00430762 0.0354948 0.00653216 0.0368368 0.0117343 0.0593549 0.0151091 0.0833979 0.0137534 0.0481549 0.0158252 0.0720844 0.0214454 0.101595 0.0210185 0.113745 0.0245786 0.0974981
86 1 Mg 2.28146 83.1577 1.43969 1.2 1 0.0221204 0.0176 0.0216778 0.02653 0.0165159 0.0365676 0.0316068 0.032442 0.0441236 0.0591655 0.0637319 0.0490199 0.0627662 0.0651599 0.0716886 0.0840298 0.0697774 0.0915073 0.0742209 0.0837577
87 2 Si -0.45319 81.289 1.63167 2.4 1 0.0129021 0.0173589 0.0228043 0.0199248 0.0287581 0.0429578 0.0397312 0.0434457 0.0542631 0.0437355 0.0443315 0.0664673 0.0656427 0.0596156 0.0733732 0.0658891 0.0591895 0.105068 0.0518136 0.0506618
88 3 O 1.13136 81.2565 1.59255 -1.2 1 0.0147783 0.020341 0.0212427 0.0201072 0.0277656 0.028975 0.0282782 0.0782377 0.0402207 0.0534684 0.0434054 0.0759479 0.0611999 0.0695991 0.0772312 0.0695142 0.0601056 0.0683545 0.0598764 0.0644605
89 3 O -1.22528 85.0739 1.68534 -1.2 1 0.00652027 0.0134368 0.0232301 0.0265735 0.0257718 0.0347555 0.0367845 0.039961 0.0442626 0.044668 0.0386229 0.0481445 0.0533419 0.0702726 0.099062 0.0736491 0.0730739 0.0631873 0.0668126 0.0521219
90 3 O -0.998942 82.0363 0.401849 -1.2 1 0.0171124 0.0136168 0.0255367 0.0240993 0.0278565 0.0172423 0.0468821 0.0412102 0.0406946 0.0454313 0.0492557 0.0442114 0.0623336 0.0642193 0.0893553 0.073234 0.0764682 0.0677965 0.0656471 0.0658295
91 1 Mg -2.34871 90.7152 2.96912 1.2 1 0.0102686 0.0159862 0.00827147 0.0340523 0.0132822 0.0368079 0.00872194 0.0565286 0.0173629 0.0779652 0.0216887 0.0570063 0.0191539 0.0693189 0.0193314 0.100952 0.0353103 0.112292 0.0401681 0.0889112
92 3 O -1.12591 81.8741 2.99682 -1.2 1 0.0164757 0.0201061 0.0300463 0.0248246 0.030417 0.0171501 0.0540829 0.0439991 0.0458965 0.042679 0.0546263 0.0421121 0.056594 0.0500897 0.0982244 0.0711091 0.0654179 0.0660999 0.0569938 0.076588
93 1 Mg -2.22646 87.8383 4.5135 1.2 1 0.0228185 0.0119925 0.0160363 0.0275171 0.0162879 0.0260949 0.0273918 0.0336358 0.0438981 0.0575697 0.0511828 0.0624371 0.0596441 0.0630999 0.0773067 0.0653842 0.0682416 0.0965657 0.0663623 0.0780507
94 2 Si 0.459653 89.8562 4.6132 2.4 1 0.0101878 0.0129855 0.0204408 0.0319893 0.0321861 0.0347324 0.0410415 0.0403921 0.0539405 0.0493113 0.0537452 0.0673443 0.0669592 0.0554356 0.0840931 0.0709869 0.0634226 0.0998353 0.0606525 0.0483481
95 3 O -1.03973 89.9984 4.60549 -1.2 1 0.0151393 0.0161164 0.022151 0.0218601 0.0279709 0.031798 0.0326478 0.0640435 0.0491632 0.0534049 0.0489357 0.0701596 0.0522936 0.0670116 0.0759906 0.0644285 0.0664069 0.0690987 0.0592638 0.0757962
96 3 O 1.41762 86.0381 4.5168 -1.2 1 0.0185542 0.0144696 0.02261 0.0210083 0.021749 0.0382733 0.039419 0.0401534 0.0494122 0.0430523 0.0495342 0.0484161 0.0486425 0.0696622 0.10618 0.0731915 0.0768905 0.04762 0.0820001 0.0635734
97 3 O 1.1922 89.2287 3.34455 -1.2 1 0.0154503 0.0170012 0.0310544 0.0259776 0.034118 0.0204501 0.050866 0.0426741 0.0328923 0.0397011 0.0531576 0.0445025 0.0512771 0.0631691 0.0927768 0.0719467 0.0758841 0.0597462 0.066585 0.0676187
98 3 O 1.28623 89.2006 5.86771 -1.2 1 0.0194605 0.00998557 0.0265692 0.0268649 0.0286515 0.0171896 0.0453132 0.0436445 0.0371193 0.0416169 0.0572359 0.0391734 0.0588832 0.0481067 0.0929653 0.0641289 0.0654688 0.0714072 0.0568829 0.0760944
99 1 Mg 0.156853 85.4841 2.95628 1.2 1 0.0168127 0.0206645 0.0150576 0.0325791 0.0151576 0.0340864 0.0190578 0.0513391 0.0204359 0.084387 0.0261877 0.0492709 0.0234878 0.0696213 0.0310701 0.095725 0.0464353 0.112329 0.0418133 0.0895806
100 1 Mg -0.0633897 82.6066 4.69594 1.2 1 0.0253099 0.0145322 0.0178473 0.0310674 0.0169727 0.0310738 0.0199339 0.0359247 0.0421717 0.0569389 0.058169 0.0610166 0.0559757 0.0623225 0.0694494 0.0784122 0.0736669 0.0908675 0.0714968 0.0749695
101 2 Si 2.15182 84.4724 4.58539 2.4 1 0.0238427 0.0112383 0.015936 0.0284258 0.0288759 0.0330158 0.041663 0.0416737 0.0528906 0.058436 0.0586847 0.0594806 0.067166 0.0581358 0.078712 0.0750466 0.0611751 0.0825917 0.0567618 0.0585672
102 3 O -1.04992 84.7129 4.48891 -1.2 1 0.0179135 0.0266155 0.0173503 0.0206897 0.0184145 0.0330112 0.0271335 0.0689629 0.0394012 0.0517605 0.0471989 0.0729693 0.0525503 0.0634745 0.0697692 0.0741558 0.0631117 0.0763973 0.0512249 0.0710608
103 3 O 0.969382 80.7394 4.67953 -1.2 1 0.017234 0.0178784 0.0286583 0.0208819 0.022921 0.0349525 0.0327358 0.045981 0.0478392 0.0437921 0.0522974 0.0453535 0.0504931 0.0717351 0.104538 0.077192 0.0728357 0.0502495 0.0723185 0.0653979
104 3 O 1.48868 83.8754 3.22506 -1.2 1 0.0117211 0.0140456 0.020686 0.02761 0.0287188 0.020754 0.0432254 0.0485311 0.0341824 0.0534343 0.052618 0.0387784 0.0577996 0.0706614 0.0778101 0.0763863 0.0774577 0.0544852 0.0618757 0.068162
105 1 Mg 0.0676557 85.5248 0.0269535 1.2 1 0.00744191 0.0171556 0.00789375 0.0322877 0.00726332 0.0376047 0.0109241 0.0587116 0.00931781 0.0851186 0.0161908 0.0484299 0.0173298 0.0717324 0.0180505 0.103331 0.0241576 0.110758 0.0197878 0.1049
106 3 O 1.4381 83.881 5.74908 -1.2 1 0.0139142 0.0129027 0.0213764 0.0270033 0.0324759 0.0231454 0.0544344 0.0461691 0.0394069 0.0494475 0.056923 0.0478676 0.0551645 0.0677373 0.0874246 0.0710486 0.0739702 0.0555391 0.0670833 0.0666414
107 1 Mg 0.136348 88.5822 1.66625 1.2 1 0.0140337 0.0124186 0.0172417 0.0245157 0.0165774 0.0330545 0.0288277 0.0379821 0.0408398 0.0580299 0.0610523 0.0553688 0.0587342 0.0635996 0.0703864 0.0715962 0.0774163 0.086367 0.0777006 0.0749287
108 2 Si -1.89133 86.5623 1.56759 2.4 1 0.0156904 0.0138679 0.0202258 0.0252444 0.032811 0.0357146 0.0424062 0.0459426 0.0536492 0.0488496 0.0492983 0.0663338 0.0765458 0.0497455 0.0698549 0.0698138 0.0637684 0.0967162 0.0550249 0.0524325
109 3 O 1.30684 86.6177 1.65459 -1.2 1 0.022153 0.00868264 0.0118055 0.0155811 0.0260893 0.0252095 0.0272901 0.0610958 0.0424895 0.0576166 0.0424822 0.0692422 0.0684684 0.0652845 0.0653949 0.0594886 0.0618216 0.0676292 0.0680971 0.062518
110 3 O -1.03286 90.318 1.51892 -1.2 1 0.00712864 0.0136865 0.0199597 0.0181445 0.0208857 0.0379535 0.0378024 0.044702 0.0542334 0.0407907 0.0415356 0.0521289 0.0443986 0.0658899 0.1051 0.068299 0.0755414 0.0426002 0.074812 0.0638987
111 3 O -1.26172 87.0731 0.192769 -1.2 1 0.0106983 0.0139788 0.0340674 0.0292026 0.0313168 0.0178025 0.0506481 0.0442052 0.0401042 0.0424486 0.0517821 0.04521 0.0597367 0.063361 0.0931243 0.0751506 0.0842261 0.0650992 0.0667636 0.0692905
112 3 O -1.25287 87.435 2.78561 -1.2 1 0.0211644 0.0146151 0.0308005 0.0189975 0.0281568 0.0231321 0.0454788 0.0429727 0.0378393 0.0494777 0.060982 0.0366024 0.0607636 0.0545011 0.0797359 0.0746438 0.0679803 0.0682576 0.0612576 0.0590829
113 1 Mg -2.31989 90.7664 0.0859942 1.2 1 0.00826277 0.0165044 0.00874589 0.0335451 0.0129187 0.0365013 0.0107034 0.0573898 0.0212571 0.0799088 0.0186911 0.0522834 0.0188612 0.0671324 0.0178612 0.10069 0.0310974 0.111737 0.0376459 0.089506
114 1 Mg 2.28939 93.721 1.43816 1.2 1 0.0312683 0.0131105 0.0175406 0.0290204 0.0127232 0.0250827 0.0305428 0.0347124 0.0407468 0.0523739 0.055597 0.0596918 0.062842 0.0602942 0.064545 0.0703152 0.0760697 0.0939786 0.0722167 0.0837474
115 2 Si -0.352236 91.731 1.47306 2.4 1 0.00914914 0.0171931 0.0237797 0.0292903 0.0337533 0.0266868 0.0424675 0.046843 0.0527177 0.0532118 0.0490291 0.0618172 0.0654971 0.0642995 0.0803831 0.0699959 0.0499689 0.0852068 0.0616347 0.0546699
116 3 O 1.15766 91.4894 1.38186 -1.2 1 0.0254928 0.00801099 0.0259682 0.0236741 0.0249276 0.0262014 0.033732 0.0638244 0.0524321 0.0402015 0.0472987 0.0728713 0.045246 0.0640325 0.0740657 0.0719393 0.0645813 0.0765989 0.0554479 0.0829932
117 3 O -1.5189 95.4704 1.37797 -1.2 1 0.00845451 0.013097 0.0265389 0.0199578 0.0161619 0.0333051 0.0311535 0.0427472 0.0561947 0.0422656 0.0463287 0.0441201 0.0534692 0.073435 0.099934 0.0694828 0.0690285 0.045323 0.0661208 0.0754617
118 3 O -1.01686 92.4986 0.22631 -1.2 1 0.0190434 0.00805233 0.0237334 0.0165568 0.0169346 0.0222172 0.0419463 0.0445374 0.0343388 0.0511261 0.0565553 0.0418584 0.0613253 0.048886 0.075365 0.06838 0.073416 0.0643137 0.0697825 0.0617713
119 1 Mg -2.27196 100.998 2.64056 1.2 1 0.0112534 0.0136841 0.0112888 0.0300238 0.0115582 0.0298524 0.0237787 0.0540729 0.0348688 0.0689306 0.0247792 0.052211 0.0304438 0.0639251 0.0418786 0.100881 0.0566381 0.0906605 0.0575888 0.0741589
120 3 O -1.05049 92.5245 2.7211 -1.2 1 0.0122366 0.0130908 0.0335067 0.0220267 0.0259642 0.028202 0.045783 0.0413795 0.0386883 0.0445691 0.054367 0.0389493 0.0615562 0.0574278 0.0874914 0.0710319 0.0749277 0.0595874 0.0591016 0.0695278
121 1 Mg -2.31448 98.3973 4.24244 1.2 1 0.0225258 0.0139952 0.018041 0.0330901 0.022243 0.0230607 0.0224662 0.0349454 0.0434317 0.0621836 0.0557528 0.0556265 0.0658861 0.063034 0.0603923 0.0769551 0.0677083 0.104642 0.0653669 0.0870519
122 2 Si 0.395127 100.19 4.28821 2.4 1 0.0114689 0.0184679 0.0230556 0.0422187 0.0242222 0.0271548 0.0397738 0.0405741 0.0498266 0.0558578 0.0505935 0.0619853 0.0697988 0.0562511 0.0826158 0.0674523 0.0576871 0.0898278 0.0616523 0.0646744
123 3 O -1.11904 100.216 4.28099 -1.2 1 0.0165899 0.0211176 0.0127261 0.0220135 0.0191985 0.0316666 0.0237115 0.0738038 0.03723 0.0503372 0.0440468 0.0670821 0.0585646 0.0678387 0.0662408 0.0671918 0.0536258 0.0671098 0.0580668 0.0709977
124 3 O 1.45334 96.5334 4.29475 -1.2 1 0.00682115 0.0254757 0.0309475 0.0121058 0.0182711 0.0310165 0.0333219 0.0429531 0.0543103 0.0474273 0.044511 0.0445769 0.0549195 0.0684812 0.103637 0.0709601 0.0706108 0.0586592 0.0678013 0.0623647
125 3 O 1.06415 99.4702 3.04185 -1.2 1 0.00779098 0.0243871 0.0197029 0.0283726 0.0278589 0.0259139 0.0527477 0.042124 0.0415074 0.0524128 0.0509777 0.0500369 0.0588473 0.057516 0.0898719 0.0731672 0.0684552 0.055932 0.0637394 0.0636656