ITEM: TIMESTEP
58900
ITEM: NUMBER OF ATOMS
5600
ITEM: BOX BOUNDS xy xz yz pp pp pp
0	7.1235	0
0	201.985	2.3745
0	119.584	0
ITEM: ATOMS id type element xu yu zu q Q_1 Q_2 Q_3 Q_4 Q_5 Q_6 Q_7 Q_8 Q_9 Q_10 Q_11 Q_12 Q_13 Q_14 Q_15 Q_16 Q_17 Q_18 Q_19 Q_20 Q_21
1 1 Mg -1.40445 48.3585 -1.17567 1.2 1 0.437953 0.0683016 0.128477 0.05204 0.0673717 0.0384041 0.0397459 0.0421505 0.0586925 0.0754436 0.0814568 0.0985428 0.0918168 0.0828259 0.120875 0.109672 0.0943727 0.0971752 0.0937621 0.0922195
2 1 Mg 3.01725 49.6073 2.23402 1.2 1 0.292777 0.129281 0.0398107 0.0682787 0.0329202 0.0505829 0.0717187 0.0734307 0.072244 0.0794123 0.0763234 0.077881 0.0834079 0.0697615 0.0819456 0.0836092 0.0861971 0.102704 0.076755 0.0847977
3 2 Si 0.933249 49.9857 0.173034 2.4 1 0.266194 0.135616 0.0333488 0.0655128 0.0391357 0.0419108 0.062284 0.0473313 0.0589733 0.0697691 0.0734145 0.0665868 0.0701691 0.0721272 0.0949134 0.0769837 0.0721345 0.0657544 0.0861309 0.0756378
4 3 O 2.22691 49.0107 0.367153 -1.2 1 0.371516 0.103062 0.0843363 0.0563264 0.0322099 0.0421228 0.0431791 0.0657 0.0614112 0.0876738 0.0682814 0.0837973 0.0805567 0.0653096 0.0859433 0.086144 0.0892387 0.0714013 0.0721934 0.0814289
5 3 O -1.04034 52.9225 2.09248 -1.2 1 0.0713693 0.0401615 0.0592138 0.0298812 0.0259805 0.0267049 0.0463133 0.0526508 0.0521797 0.0546136 0.0615965 0.0579106 0.0563058 0.0683413 0.0734586 0.0915582 0.078304 0.0691581 0.0678832 0.0614781
6 3 O 0.0940819 49.4485 -0.947305 -1.2 1 0.327348 0.122916 0.0625223 0.0654346 0.0260671 0.0517561 0.0413512 0.057475 0.0808704 0.0745195 0.0680659 0.0837115 0.0919924 0.0898406 0.0913773 0.0799484 0.0800515 0.0790939 0.066242 0.0955267
7 1 Mg -2.33258 58.6583 3.45507 1.2 1 0.0173965 0.0176242 0.0113831 0.0367368 0.0140588 0.0393438 0.0203605 0.0634188 0.0239874 0.0639302 0.0245755 0.0460481 0.0283489 0.0830716 0.0307738 0.104194 0.0392431 0.104406 0.0403443 0.0815461
8 3 O 0.0563639 49.9867 1.65719 -1.2 1 0.259371 0.143745 0.0373242 0.0487454 0.0399725 0.0402112 0.0703768 0.0762647 0.0708861 0.08218 0.0852913 0.0596149 0.0794073 0.0631584 0.0907835 0.0786588 0.0861454 0.0944788 0.0868799 0.0899907
9 1 Mg -2.27134 55.5305 4.64077 1.2 1 0.0156143 0.0303023 0.0249881 0.0282412 0.0208065 0.0272481 0.0300564 0.0347487 0.0516147 0.0501133 0.0592414 0.0677234 0.0534626 0.0741185 0.066382 0.0531623 0.0810668 0.0791735 0.0707222 0.0809746
10 2 Si 0.456 57.7046 4.95756 2.4 1 0.0212014 0.0239027 0.0341509 0.0205726 0.0372632 0.0358579 0.0337372 0.0464561 0.053196 0.0486639 0.0571827 0.068501 0.0745692 0.0563924 0.0752443 0.0710811 0.0818129 0.0831723 0.0678078 0.0606512
11 3 O -0.971882 57.8327 4.65583 -1.2 1 0.00834977 0.0209499 0.0193396 0.0153938 0.0239288 0.0202985 0.0304068 0.0699333 0.0440733 0.0493357 0.0500952 0.074561 0.0626091 0.0682164 0.073726 0.0686831 0.0639053 0.0638509 0.0754504 0.0774385
12 3 O 1.9251 53.0637 4.93881 -1.2 1 0.0515817 0.036768 0.0569831 0.0233513 0.0373723 0.0347215 0.0373147 0.0421582 0.0724155 0.0626766 0.059421 0.0548638 0.0624025 0.0793757 0.0779008 0.0932362 0.0748854 0.0681179 0.0651764 0.0710703
13 3 O 1.31015 56.9539 3.87366 -1.2 1 0.0308597 0.00840901 0.0344313 0.0195099 0.0319111 0.0292393 0.0361982 0.0401162 0.0423043 0.0523887 0.048294 0.0433356 0.060661 0.0609257 0.0881569 0.0727379 0.0982833 0.0686026 0.0606221 0.0577363
14 3 O 1.19668 57.1512 6.30862 -1.2 1 0.0187117 0.0264834 0.0324523 0.0165558 0.0212276 0.025081 0.0515318 0.036408 0.0425018 0.0524504 0.057651 0.0510341 0.0508919 0.0720582 0.0912388 0.0732736 0.0744038 0.0695271 0.068766 0.0689503
15 1 Mg 0.033428 51.6769 2.91207 1.2 1 0.136606 0.0910284 0.0507023 0.0227766 0.0374826 0.0380649 0.0545807 0.0646899 0.0648575 0.0606651 0.0488466 0.0751981 0.0622155 0.0642151 0.0696889 0.0798443 0.0802028 0.0714199 0.0861786 0.086027
16 1 Mg 0.857033 48.6153 3.00946 1.2 1 0.408485 0.0787108 0.0895025 0.0538719 0.0300246 0.0634323 0.0633454 0.0679347 0.0781913 0.0844699 0.0908104 0.0727044 0.0599956 0.0669083 0.0895723 0.0938576 0.0904953 0.0807489 0.0984091 0.0954565
17 2 Si 2.60205 51.653 4.6978 2.4 1 0.124561 0.0986206 0.0484695 0.0354644 0.0302189 0.0522037 0.0293415 0.0379522 0.0777943 0.0680031 0.0836664 0.0638315 0.0605851 0.0824147 0.0857053 0.0833303 0.0788008 0.0839579 0.0718877 0.0774634
18 3 O -0.503327 51.8003 4.75852 -1.2 1 0.121736 0.099446 0.0383379 0.0239736 0.0302785 0.0550777 0.0298727 0.0518047 0.0628543 0.0793408 0.0672032 0.0736152 0.0784232 0.0687091 0.0857535 0.0731558 0.0794167 0.0745658 0.0695996 0.0705453
19 3 O 2.71066 47.9311 3.02064 -1.2 1 0.470618 0.052259 0.138579 0.0329257 0.0852019 0.0424765 0.0610112 0.0806415 0.0803785 0.0608194 0.0895536 0.0905223 0.090198 0.103136 0.0856985 0.100761 0.0961573 0.108889 0.105774 0.0797843
20 3 O 2.10885 50.9037 3.40459 -1.2 1 0.189094 0.1208 0.0284646 0.0388136 0.0304923 0.0501871 0.0468355 0.0551111 0.0461308 0.053072 0.0820844 0.0785865 0.0701296 0.0636385 0.0700306 0.078933 0.092939 0.0819484 0.0710345 0.0735451
21 1 Mg 0.40438 53.3268 0.362814 1.2 1 0.0624706 0.0283855 0.0481935 0.0366257 0.0255175 0.0253001 0.0235844 0.0512804 0.0563239 0.072905 0.0449637 0.0530953 0.0599886 0.0584692 0.0610866 0.0872043 0.0651156 0.0636122 0.0760668 0.0649407
22 3 O 2.00783 50.692 6.01174 -1.2 1 0.207532 0.123231 0.0213153 0.0440377 0.0387775 0.0382637 0.0429838 0.0532405 0.0577334 0.0500421 0.0626227 0.0735102 0.0712776 0.0773697 0.0764072 0.0614866 0.0917796 0.0732912 0.0803171 0.0551194
23 1 Mg 0.273066 56.203 2.07855 1.2 1 0.0281565 0.0116435 0.0262694 0.023624 0.0141466 0.0233424 0.0350988 0.0304689 0.0437229 0.040107 0.0730365 0.0515548 0.0560982 0.0629193 0.0743254 0.0851676 0.087762 0.0662756 0.0662102 0.0801803
24 2 Si -1.65692 54.2174 1.99489 2.4 1 0.0132515 0.0186057 0.0282673 0.0302243 0.0211127 0.0376285 0.0471819 0.05361 0.0530654 0.06702 0.0509982 0.0504367 0.0793157 0.0484673 0.0511928 0.0674424 0.0697731 0.0791725 0.0682294 0.0714928
25 3 O 1.47149 54.2523 1.73109 -1.2 1 0.0176374 0.0163079 0.0271856 0.0245967 0.028255 0.0324584 0.0235836 0.0542384 0.041046 0.0592923 0.0496032 0.0640859 0.0487624 0.0719794 0.075212 0.0638236 0.0648302 0.0726905 0.0569976 0.0573258
26 3 O -0.897827 58.1688 1.83091 -1.2 1 0.019601 0.0189848 0.017378 0.0256238 0.0148612 0.0309044 0.0467564 0.0459522 0.0595802 0.0447978 0.0515402 0.0496398 0.0553618 0.0707064 0.0981259 0.0738119 0.0735312 0.0537163 0.0600987 0.0626536
27 3 O -0.958199 54.9683 0.702377 -1.2 1 0.0188981 0.0243929 0.0196185 0.0279866 0.0276969 0.0276716 0.0442721 0.0389515 0.0425136 0.0446222 0.0662674 0.0490722 0.0627154 0.0563898 0.0854271 0.0666924 0.0731183 0.0696927 0.0692129 0.0723708
28 3 O -1.19638 55.1838 3.10174 -1.2 1 0.0191495 0.0317436 0.0328932 0.0223999 0.0251196 0.0340728 0.0421491 0.0355093 0.0482864 0.0528955 0.0575167 0.0467033 0.0550502 0.0736771 0.0826549 0.0822656 0.0510089 0.0806179 0.0621054 0.0690703
29 1 Mg -2.31636 58.6026 0.58808 1.2 1 0.0289078 0.0315604 0.0239073 0.0304727 0.0201731 0.0386548 0.0206527 0.0660447 0.0286194 0.063852 0.029714 0.0456219 0.0342127 0.0674173 0.0379993 0.0997619 0.0486937 0.103449 0.060538 0.0782114
30 1 Mg 2.12092 61.5453 1.96533 1.2 1 0.011246 0.0175227 0.0281043 0.0316406 0.0211834 0.0297922 0.0347178 0.0435933 0.0400207 0.0622046 0.0695142 0.0519053 0.0563753 0.0605384 0.0668592 0.0880786 0.0718372 0.0817909 0.0732408 0.0623334
31 2 Si -0.287305 59.7047 1.9872 2.4 1 0.0150502 0.019114 0.0260508 0.0284732 0.0328101 0.0298644 0.0459911 0.0440045 0.0602317 0.0513402 0.0546726 0.0668181 0.0728443 0.0601292 0.0874086 0.0625827 0.0599571 0.0930726 0.0562489 0.0592023
32 3 O 1.19102 59.7212 2.05535 -1.2 1 0.0352495 0.0239629 0.0263087 0.0194289 0.0246085 0.0264837 0.0284781 0.0867814 0.0512938 0.0572421 0.0465568 0.062454 0.0600739 0.0737606 0.0732085 0.0628917 0.0532877 0.0714336 0.0663091 0.0788259
33 3 O -1.32303 63.6267 1.99619 -1.2 1 0.00684717 0.0223275 0.0232688 0.0260533 0.0203075 0.0328045 0.0448522 0.0467859 0.0569451 0.0349222 0.0515812 0.0290119 0.0576847 0.0771904 0.0945475 0.0749125 0.0774733 0.0450745 0.078384 0.0595776
34 3 O -0.96243 60.4106 0.74666 -1.2 1 0.0129805 0.020326 0.0236172 0.0273569 0.0218798 0.0182218 0.0536732 0.0517956 0.0394523 0.0448775 0.05836 0.0402696 0.0466492 0.0647245 0.0909029 0.0656758 0.0782703 0.0716695 0.0655098 0.0671481
35 1 Mg -2.20912 69.094 3.33267 1.2 1 0.0131235 0.0175909 0.015317 0.038792 0.0106867 0.0428363 0.0174913 0.058569 0.0279599 0.0785787 0.025016 0.0553558 0.023508 0.0659408 0.0341878 0.10546 0.0468407 0.0990168 0.0527004 0.077138
36 3 O -1.07832 60.2856 3.19888 -1.2 1 0.00842311 0.0218927 0.0266502 0.0251124 0.032271 0.0194216 0.0438092 0.0525941 0.0507981 0.0474023 0.0524661 0.0467429 0.0523823 0.0564777 0.101118 0.0659878 0.0972252 0.0570045 0.0750012 0.0711758
37 1 Mg -2.29725 66.4008 5.01789 1.2 1 0.0198436 0.00784577 0.017235 0.0306686 0.0179904 0.0292618 0.0221162 0.0307724 0.049439 0.0575924 0.0575996 0.0515086 0.0718164 0.0604759 0.0696431 0.0758629 0.062451 0.0974327 0.0714895 0.0871376
38 2 Si 0.414109 68.2341 4.73516 2.4 1 0.015688 0.0215551 0.020893 0.0327055 0.0337783 0.0328345 0.0429522 0.0387572 0.052772 0.0499678 0.0464075 0.0640966 0.0688185 0.0597075 0.0768319 0.0696422 0.0640065 0.0888277 0.062396 0.0596363
39 3 O -1.1441 68.5105 4.74943 -1.2 1 0.0201052 0.0170346 0.0198239 0.0298146 0.0271035 0.0291272 0.0311523 0.0666619 0.0478563 0.0431269 0.0447574 0.0706465 0.0469307 0.063513 0.0791918 0.0676993 0.0656456 0.0736957 0.0407445 0.0741843
40 3 O 1.34322 64.4176 4.92579 -1.2 1 0.01342 0.018817 0.0232197 0.0237831 0.0158343 0.0349642 0.0441452 0.0430073 0.0543204 0.0340836 0.0505286 0.049524 0.0497512 0.0760211 0.106145 0.0736632 0.0774345 0.0485038 0.0699615 0.0600671
41 3 O 0.974217 67.59 3.46745 -1.2 1 0.00760352 0.0132321 0.0320914 0.0208445 0.0256611 0.0218909 0.050733 0.0455268 0.0399226 0.0515801 0.0524708 0.0436491 0.0627865 0.0702994 0.0778525 0.0771905 0.0753755 0.0627755 0.0683177 0.0685953
42 3 O 1.0024 67.5195 6.07782 -1.2 1 0.0138269 0.026047 0.0309469 0.0240964 0.0224628 0.0202613 0.0503573 0.0440828 0.0454451 0.0501221 0.0545678 0.0419279 0.0593612 0.0699779 0.0823889 0.0807907 0.078345 0.0577585 0.0771103 0.070454
43 1 Mg -0.0573204 64.2011 3.37134 1.2 1 0.0144067 0.0164917 0.0127069 0.0277302 0.0138974 0.0380761 0.0171092 0.0553587 0.0320994 0.0755252 0.0307295 0.0441645 0.0302203 0.0705095 0.0423781 0.0906803 0.0477433 0.0985249 0.0562122 0.076283
44 1 Mg -0.104995 61.2876 4.6812 1.2 1 0.0218421 0.0268068 0.0192846 0.0395602 0.0210371 0.0311239 0.0285027 0.0383772 0.0526477 0.0578991 0.0636735 0.0487506 0.0620081 0.0624491 0.0719677 0.0922894 0.0687775 0.0882649 0.0765757 0.0719064
45 2 Si 2.11598 63.1159 4.86083 2.4 1 0.00801579 0.0154355 0.0120024 0.0308928 0.0238072 0.0320505 0.0527101 0.0491662 0.0501272 0.0673423 0.0494102 0.064382 0.0675386 0.0630116 0.0757336 0.0608008 0.0680725 0.0875129 0.0642257 0.0652345
46 3 O -1.01353 63.0685 4.91758 -1.2 1 0.0176386 0.0244404 0.0135316 0.0199131 0.024274 0.0283933 0.0249503 0.0617756 0.0376491 0.0603738 0.0373224 0.0668932 0.055394 0.0764168 0.0748249 0.0646045 0.0619744 0.0717767 0.0486765 0.0706824
47 3 O 1.07131 59.2637 4.95724 -1.2 1 0.0141895 0.0192599 0.019991 0.0249549 0.0193318 0.0355553 0.0468655 0.0505636 0.0570183 0.0517189 0.0456007 0.0461188 0.0618857 0.0732005 0.0993798 0.0648104 0.0694453 0.0652635 0.0706253 0.0620018
48 3 O 1.42109 62.2557 3.68495 -1.2 1 0.0152421 0.0286923 0.0253335 0.0249611 0.0312124 0.0244656 0.0383352 0.0442142 0.0361949 0.0487925 0.0555463 0.0461003 0.0593781 0.0503432 0.0824068 0.0726658 0.0728907 0.0569121 0.0735064 0.0651669
49 1 Mg 0.0646322 64.0023 0.42997 1.2 1 0.00894294 0.0216103 0.0067402 0.035983 0.0126492 0.0363565 0.0119723 0.0600802 0.020307 0.0781084 0.0145614 0.0514315 0.0168726 0.0813213 0.0247566 0.100813 0.0362005 0.114281 0.0300823 0.0789516
50 3 O 1.47669 62.3256 6.1792 -1.2 1 0.014678 0.015466 0.0287948 0.0162 0.0256358 0.027972 0.0464913 0.0492162 0.0412565 0.0535274 0.048626 0.0354812 0.056254 0.0634905 0.0741713 0.0693798 0.0770424 0.0586712 0.0693879 0.0660289
51 1 Mg 0.245986 67.0985 1.5539 1.2 1 0.0147023 0.00849088 0.0243169 0.0345327 0.0256213 0.0343222 0.0298181 0.0452541 0.0434008 0.0525568 0.0639511 0.0496973 0.0615472 0.0676759 0.0762287 0.0678334 0.0804375 0.0808872 0.087184 0.0542831
52 2 Si -1.96238 65.2222 1.79225 2.4 1 0.0289909 0.00867087 0.0143405 0.0247917 0.0332741 0.0339635 0.0436463 0.0422542 0.0507723 0.0550458 0.0447208 0.0712741 0.0714816 0.0604697 0.0718661 0.0793653 0.061973 0.0851604 0.0618222 0.0621246
53 3 O 1.2082 65.0836 1.79638 -1.2 1 0.0310102 0.014 0.0200691 0.0229044 0.0324878 0.0284307 0.029394 0.0694836 0.0363953 0.0605969 0.0402145 0.0658506 0.0617838 0.0697642 0.0661518 0.0677296 0.064999 0.0683911 0.0704587 0.05469
54 3 O -0.89724 68.8011 1.85021 -1.2 1 0.0107346 0.0101619 0.0273427 0.028934 0.0188957 0.0410444 0.0336717 0.0458279 0.0555413 0.0405217 0.0503013 0.0464866 0.053825 0.0751389 0.105909 0.0674761 0.0642921 0.0538446 0.0757532 0.0607442
55 3 O -1.187 65.8217 0.6855 -1.2 1 0.0140941 0.0243109 0.0315266 0.0232211 0.0279433 0.0277469 0.0456597 0.0424421 0.0319367 0.0407302 0.0591641 0.0371534 0.0522979 0.0581657 0.0906259 0.0677198 0.0724266 0.073112 0.0672821 0.060158
56 3 O -1.36841 65.8458 3.26557 -1.2 1 0.00287776 0.0256838 0.0186026 0.0220327 0.0266276 0.0278057 0.0419582 0.0482358 0.038802 0.0543925 0.0512991 0.0403711 0.0566309 0.0646227 0.0868708 0.079483 0.0714191 0.0683703 0.0603583 0.0674444
57 1 Mg -2.28628 69.5825 0.383127 1.2 1 0.0192427 0.023718 0.0132196 0.0250366 0.0250649 0.0410664 0.0250741 0.0598007 0.0307825 0.0702185 0.0326737 0.0448124 0.0289868 0.0657802 0.0553585 0.0991883 0.0696097 0.0985954 0.0666165 0.0758796
58 1 Mg 2.35332 72.0815 1.91495 1.2 1 0.0218961 0.0201316 0.0217563 0.0298726 0.0154837 0.0280725 0.0297124 0.0361074 0.0381984 0.0599891 0.0597967 0.0636021 0.0611222 0.0687002 0.0631033 0.0845888 0.0684652 0.0959716 0.0669028 0.086065
59 2 Si -0.169583 70.2747 1.84543 2.4 1 0.00709161 0.0124212 0.0241587 0.0275891 0.0339247 0.0297684 0.0452668 0.030833 0.0479872 0.0601681 0.0569893 0.0641472 0.0709528 0.069275 0.0830045 0.0704577 0.0692765 0.0867577 0.0630525 0.06322
60 3 O 1.31029 70.1384 1.84466 -1.2 1 0.0120887 0.02809 0.0128351 0.0294612 0.0272704 0.0336316 0.0317237 0.071091 0.0469014 0.0505413 0.0384401 0.0725834 0.0582172 0.0695267 0.0780395 0.0706082 0.0632144 0.0781751 0.0510004 0.0750641
61 3 O -1.35713 74.0374 2.03934 -1.2 1 0.0123473 0.0193658 0.023725 0.0289888 0.0170425 0.0421883 0.0366151 0.0368209 0.0554128 0.0450924 0.0485353 0.0380751 0.0600272 0.0722692 0.0923279 0.0810632 0.0748033 0.0624558 0.0688166 0.0561487
62 3 O -0.916639 70.9028 0.505652 -1.2 1 0.0202557 0.0152021 0.0237622 0.0282918 0.0391482 0.0221589 0.049194 0.0519281 0.0497399 0.0414726 0.0534886 0.0432958 0.0610288 0.0736233 0.0804786 0.0803639 0.0821097 0.0589952 0.0634602 0.070417
63 1 Mg -2.27016 80.1161 3.33917 1.2 1 0.00862021 0.0189092 0.019265 0.0289816 0.0151925 0.0262333 0.0254396 0.0543352 0.043223 0.0735067 0.0288942 0.0506195 0.0346682 0.0644408 0.0427804 0.0912751 0.0620615 0.100076 0.0572297 0.077713
64 3 O -0.911704 71.0248 3.03391 -1.2 1 0.00457708 0.0180494 0.0192537 0.0296768 0.0289289 0.0271344 0.0483967 0.0425341 0.0350543 0.0443887 0.0546822 0.0426469 0.060557 0.063887 0.0796333 0.0791956 0.077662 0.0605724 0.0650659 0.0687683
65 1 Mg -2.05322 76.8341 4.95762 1.2 1 0.0170169 0.0105302 0.0197945 0.0266871 0.016019 0.0295417 0.0280627 0.0416029 0.0447682 0.0588221 0.0657156 0.0550349 0.0571354 0.0653942 0.072874 0.078214 0.074438 0.0760166 0.0750752 0.0629043
66 2 Si 0.427497 78.8307 4.67773 2.4 1 0.015469 0.0170727 0.0204096 0.0323869 0.03387 0.0319094 0.0414324 0.0382104 0.0525187 0.0558312 0.0510007 0.0635324 0.073195 0.0534839 0.0710018 0.0744945 0.0670722 0.0894402 0.0577734 0.0554943
67 3 O -1.14811 78.9157 4.78024 -1.2 1 0.0237935 0.0272209 0.0195202 0.0179306 0.0120191 0.0321907 0.018323 0.0696189 0.0401589 0.0614392 0.0352543 0.0721908 0.0525135 0.0795752 0.0755138 0.0647409 0.0615171 0.072991 0.048574 0.0795032
68 3 O 1.38459 75.0321 4.76989 -1.2 1 0.0129134 0.0171304 0.0205659 0.0184746 0.0185823 0.031335 0.045945 0.0494361 0.0514184 0.0462956 0.0439688 0.048524 0.0508026 0.0693697 0.102692 0.0708504 0.0755153 0.0542992 0.0658917 0.051079
69 3 O 1.05819 78.1597 3.36136 -1.2 1 0.0250822 0.0125822 0.0231489 0.0272207 0.0253761 0.0334091 0.0471572 0.0476928 0.0429232 0.0495669 0.0597658 0.0419856 0.0507575 0.0641117 0.0866247 0.0756917 0.0696692 0.058439 0.0638844 0.074683
70 3 O 1.04044 78.0434 5.91511 -1.2 1 0.0187995 0.0079374 0.0207558 0.0256068 0.0339546 0.0255268 0.0489299 0.043701 0.0379541 0.0485157 0.0565998 0.04624 0.0583218 0.0637805 0.0776644 0.0784904 0.0681168 0.0614173 0.0567447 0.0681031
71 1 Mg -0.0820955 74.4848 3.4403 1.2 1 0.0125916 0.0170392 0.0154177 0.0328848 0.0141689 0.0393408 0.0204087 0.063492 0.025222 0.0763799 0.0212642 0.0477061 0.0302046 0.0691759 0.0312993 0.0953259 0.0441625 0.111105 0.0429017 0.0864354
72 1 Mg -0.182988 71.547 4.78487 1.2 1 0.0208501 0.0146264 0.0178627 0.0309586 0.0173271 0.0227203 0.0274688 0.0389498 0.0360011 0.0607394 0.0647772 0.061943 0.0560996 0.0639052 0.0682391 0.0760095 0.0800096 0.0828889 0.0737299 0.0698962
73 2 Si 2.08507 73.6111 4.7226 2.4 1 0.0156128 0.0128238 0.0280165 0.0422129 0.0311492 0.0344575 0.0405401 0.0448015 0.0555532 0.0592045 0.0531123 0.0714605 0.0674087 0.0606092 0.0829633 0.0657731 0.0627309 0.0913252 0.0617198 0.0567399
74 3 O -1.06772 73.475 4.82709 -1.2 1 0.0427561 0.0222424 0.0201457 0.0231604 0.0352447 0.0316979 0.0214985 0.0736914 0.0401393 0.0675185 0.0410088 0.0658949 0.0617421 0.0656205 0.075553 0.0626483 0.0464902 0.0692262 0.0676297 0.077812
75 3 O 1.18012 69.7802 4.91466 -1.2 1 0.0153838 0.00622502 0.026463 0.0263787 0.0231005 0.0360806 0.036393 0.0415852 0.0476753 0.0432973 0.0474377 0.0526952 0.046653 0.0715376 0.101314 0.071511 0.0753685 0.0670118 0.0673117 0.064042
76 3 O 1.29447 72.8011 3.54825 -1.2 1 0.0184548 0.0201449 0.0308498 0.0146575 0.0245114 0.0219101 0.042298 0.0441972 0.0442607 0.0486545 0.0515856 0.0486481 0.0532943 0.0514769 0.0913073 0.0632121 0.0792804 0.0693906 0.0654605 0.0701213
77 1 Mg 0.0732974 74.4993 0.533126 1.2 1 0.00150683 0.0126276 0.00800995 0.0333937 0.0144358 0.0417362 0.0200471 0.056338 0.0236645 0.0736514 0.0269046 0.0507525 0.0292732 0.0683686 0.0368723 0.104639 0.0567451 0.0946679 0.046838 0.0848126
78 3 O 1.50787 73.0231 6.14931 -1.2 1 0.0149532 0.0102939 0.0170686 0.0278804 0.0350425 0.0127739 0.0498204 0.0453211 0.0491504 0.0514618 0.0414842 0.0571305 0.0553353 0.0659802 0.0771986 0.0732064 0.0815154 0.0543944 0.0696619 0.072255
79 1 Mg 0.166261 77.5103 1.8869 1.2 1 0.0170069 0.0126865 0.0218201 0.0340775 0.0153584 0.0293295 0.0298391 0.0315149 0.0356977 0.0570796 0.0581962 0.0621048 0.0554594 0.0700922 0.0732432 0.0759258 0.07573 0.0913685 0.074435 0.0752612
80 2 Si -1.95119 75.6324 1.83857 2.4 1 0.0194445 0.00935441 0.0176607 0.0252994 0.0350715 0.0379584 0.0370603 0.0414499 0.0536617 0.0523746 0.048386 0.0700278 0.0747096 0.05526 0.0696873 0.0697643 0.0653335 0.0913146 0.0584605 0.0622796
81 3 O 1.18917 75.6288 1.86947 -1.2 1 0.034202 0.0110025 0.0151646 0.0267766 0.0360753 0.025496 0.0202135 0.0738218 0.0404057 0.07277 0.0340032 0.0656329 0.0649892 0.065903 0.0709223 0.0608432 0.0586947 0.0588181 0.0688924 0.0653441
82 3 O -0.882376 79.4875 1.93027 -1.2 1 0.00955278 0.0109384 0.0172395 0.0284788 0.0128589 0.0289279 0.0371319 0.0515932 0.054603 0.0392722 0.0517959 0.0401317 0.0617888 0.067956 0.0894045 0.0778948 0.0838317 0.0547529 0.0715112 0.0555779
83 3 O -1.37253 76.2248 0.567245 -1.2 1 0.0150209 0.0154144 0.0191201 0.0209433 0.028977 0.0175623 0.0452221 0.0439665 0.0409291 0.0451855 0.0522509 0.0458588 0.0490754 0.0725201 0.0810106 0.0801285 0.077236 0.0649292 0.0657199 0.0666882
84 3 O -1.29665 76.1726 3.20547 -1.2 1 0.00609478 0.0204638 0.0330523 0.0210645 0.0365731 0.0211108 0.048472 0.044913 0.0417345 0.0478703 0.0544397 0.0485414 0.0588311 0.0708001 0.0855827 0.0788907 0.0810182 0.0639456 0.0615123 0.0725453
85 1 Mg -2.35103 79.4983 0.391884 1.2 1 0.0191399 0.0279293 0.0173258 0.0281254 0.0211125 0.0340129 0.0278139 0.0522565 0.0465208 0.0688693 0.0463976 0.0442908 0.0372426 0.0650286 0.0494675 0.0889992 0.0607844 0.0938372 0.0668153 0.0712304
86 1 Mg 2.49903 82.777 1.60778 1.2 1 0.00750806 0.0198602 0.017884 0.0315205 0.0170016 0.0249473 0.0241007 0.0362751 0.04723 0.0618939 0.0542022 0.0580926 0.0635681 0.0717776 0.0693367 0.0746658 0.0753949 0.0950583 0.0747066 0.0762149
87 2 Si -0.155303 80.9481 1.71664 2.4 1 0.0211571 0.0229259 0.0219801 0.0317367 0.0294584 0.0295567 0.0369828 0.0461314 0.052374 0.0616039 0.0527763 0.0668906 0.0654818 0.0513292 0.071419 0.0714713 0.0616107 0.0948104 0.0627582 0.059156
88 3 O 1.47704 80.8919 1.75005 -1.2 1 0.0297187 0.0162565 0.0076143 0.0196496 0.0291597 0.0309636 0.0198737 0.0722021 0.0410867 0.0746921 0.0389181 0.0635335 0.05304 0.0732743 0.0701555 0.0611163 0.0495062 0.0666991 0.0699996 0.0672879
89 3 O -1.30173 84.6584 1.64795 -1.2 1 0.0154051 0.0222937 0.0266442 0.0282265 0.0189713 0.0357258 0.039422 0.0516578 0.0563788 0.0365407 0.0504478 0.0470779 0.0604723 0.0700616 0.100218 0.0809029 0.0667763 0.0606654 0.0751678 0.0569527
90 3 O -0.722117 81.5909 0.440374 -1.2 1 0.0279662 0.0268694 0.0234235 0.0221364 0.0279529 0.0251877 0.0441426 0.0448375 0.0418401 0.0452205 0.0550652 0.0452555 0.0531849 0.0699887 0.0696548 0.0910949 0.0706684 0.0685566 0.0635806 0.0631372
91 1 Mg -2.2526 90.7295 3.17158 1.2 1 0.0206506 0.0215419 0.0195086 0.0319553 0.024209 0.0330368 0.0308074 0.055434 0.0447969 0.0689158 0.0375018 0.0577634 0.0430201 0.0696034 0.0505128 0.0984513 0.0763536 0.083318 0.0689738 0.0770788
92 3 O -0.697528 81.7757 3.04211 -1.2 1 0.0176024 0.0262311 0.0218687 0.0230398 0.0282621 0.03424 0.0455656 0.0483187 0.0463853 0.0532237 0.0553156 0.0419869 0.0542018 0.0756569 0.0676165 0.0755901 0.0779331 0.0579321 0.0665074 0.0744381
93 1 Mg -2.07471 87.3841 4.54355 1.2 1 0.0364137 0.00988427 0.0115412 0.0273389 0.013592 0.0241207 0.0302533 0.0364787 0.039275 0.0533012 0.0584301 0.0638967 0.0561757 0.0651403 0.0756725 0.0701285 0.0745612 0.0900786 0.0733593 0.0742486
94 2 Si 0.529262 89.4365 4.57038 2.4 1 0.0160884 0.0121058 0.0214685 0.034086 0.0330207 0.0313371 0.0388726 0.0420762 0.0532771 0.0557301 0.0546411 0.0671639 0.0736526 0.0624009 0.0808965 0.0630786 0.057358 0.0804589 0.0599535 0.0531153
95 3 O -1.07028 89.7168 4.63176 -1.2 1 0.0169686 0.0128628 0.0210888 0.022736 0.0211615 0.0320865 0.0294477 0.0588302 0.0475315 0.0509825 0.0498433 0.0726044 0.0513026 0.0735433 0.0683813 0.0786258 0.0639177 0.0875703 0.0470338 0.0774975
96 3 O 1.6855 85.5843 4.64519 -1.2 1 0.0176515 0.0166551 0.0214861 0.0362504 0.0231916 0.0323248 0.039349 0.0477144 0.0575159 0.0424454 0.0461764 0.0416486 0.054871 0.07129 0.105428 0.0678742 0.0654408 0.0484743 0.0737136 0.0610686
97 3 O 1.12695 88.562 3.26362 -1.2 1 0.0176246 0.0281864 0.0245241 0.0211144 0.0332488 0.033187 0.0328838 0.0482702 0.0319782 0.0561079 0.0568509 0.0406873 0.0558046 0.0683189 0.0870073 0.0782188 0.0716877 0.0617993 0.0697161 0.0589133
98 3 O 1.1737 88.8375 5.77754 -1.2 1 0.00657745 0.0137784 0.0207913 0.029779 0.0332865 0.0196776 0.0577584 0.0435018 0.029301 0.0431393 0.0545872 0.0457569 0.0563081 0.072316 0.0825971 0.0658511 0.0876261 0.0585376 0.0717634 0.0630096
99 1 Mg 0.1044 84.9369 3.04335 1.2 1 0.0232339 0.033077 0.0173287 0.0300173 0.0162964 0.0421397 0.0291341 0.0557497 0.0252009 0.0739294 0.0275076 0.0521477 0.0273003 0.0685605 0.0374571 0.101466 0.0462394 0.106801 0.0442697 0.0869819
100 1 Mg 0.307526 82.2116 4.70415 1.2 1 0.0200167 0.0215043 0.017687 0.032262 0.011536 0.0235831 0.0242055 0.0322278 0.0531557 0.0622568 0.0564898 0.0516255 0.0579348 0.0692541 0.0588363 0.0692805 0.0672769 0.107865 0.0603862 0.0893529
101 2 Si 2.4088 84.1608 4.56351 2.4 1 0.0219862 0.0194485 0.0190024 0.0333409 0.0320129 0.0309738 0.039153 0.0297604 0.0481629 0.0701147 0.0586081 0.0657461 0.0674041 0.0608372 0.0847273 0.0570342 0.0713721 0.0785353 0.0615986 0.0714058
102 3 O -0.82161 84.1592 4.6298 -1.2 1 0.0202851 0.0364128 0.0143734 0.0276792 0.0280953 0.0326042 0.0252494 0.0800928 0.0345946 0.0614589 0.035594 0.0715116 0.0512079 0.0743617 0.0758204 0.0761096 0.0531013 0.074193 0.0542857 0.0736416
103 3 O 1.07353 80.308 4.71627 -1.2 1 0.0126709 0.0106899 0.0267625 0.0275555 0.0191045 0.032376 0.0370981 0.0486187 0.0517921 0.0450175 0.054203 0.0511242 0.0585176 0.0757887 0.0963374 0.0674918 0.0692888 0.0504981 0.0725418 0.0603657
104 3 O 1.61735 83.4432 3.34231 -1.2 1 0.0159924 0.0177398 0.0250332 0.0154469 0.0166699 0.027427 0.0438122 0.0411824 0.0424987 0.0538334 0.047682 0.0503442 0.0604431 0.0650804 0.0782107 0.0721277 0.0826026 0.0593674 0.0703525 0.0738075
105 1 Mg 0.0771176 85.214 0.0465516 1.2 1 0.0162086 0.0123364 0.00566117 0.0297909 0.0143116 0.0397591 0.0168092 0.0632351 0.0205199 0.080005 0.0273811 0.0477113 0.0279978 0.0718613 0.0302328 0.107786 0.0411584 0.109236 0.0407303 0.0819417
106 3 O 1.61845 83.3745 5.84398 -1.2 1 0.0160213 0.0249317 0.0216037 0.0225951 0.0358496 0.0216919 0.0444513 0.0473584 0.0426608 0.0455239 0.0568714 0.0337629 0.0602532 0.0697609 0.071843 0.0895681 0.0723221 0.0633414 0.0589863 0.0672227
107 1 Mg 0.0947333 88.0054 1.47368 1.2 1 0.0107592 0.0202507 0.0136457 0.0324089 0.0185824 0.0289438 0.0265717 0.044931 0.0490027 0.0618082 0.055816 0.0639355 0.0630734 0.0634835 0.0730606 0.0761481 0.0649093 0.104076 0.0622547 0.0900865
108 2 Si -1.99551 86.239 1.53717 2.4 1 0.00468874 0.0136972 0.0201875 0.0384453 0.034661 0.031027 0.0443667 0.0452584 0.0467676 0.061753 0.0565559 0.0672161 0.0687598 0.0634973 0.0783601 0.0695623 0.0670418 0.0869597 0.062399 0.0697529
109 3 O 1.149 86.098 1.49256 -1.2 1 0.0148409 0.0244239 0.0216067 0.0217726 0.0224121 0.0282162 0.02328 0.078951 0.0340538 0.0654095 0.0365899 0.0567305 0.058607 0.0661036 0.0806541 0.068595 0.0546741 0.0771235 0.0621759 0.0635638
110 3 O -0.770427 89.9074 1.35274 -1.2 1 0.0140769 0.022831 0.0236497 0.0250838 0.0203736 0.0337212 0.0394087 0.0478888 0.0539209 0.0361904 0.0546343 0.0524135 0.0604425 0.0639615 0.10329 0.0817851 0.0696803 0.0637797 0.0658506 0.062612
111 3 O -1.20983 87.0125 0.339544 -1.2 1 0.0154504 0.0243166 0.02013 0.02675 0.0245556 0.0263099 0.0432288 0.0486823 0.0379942 0.051277 0.0532908 0.0394163 0.0544765 0.0660355 0.075985 0.0759687 0.068516 0.0754244 0.0626935 0.0638282
112 3 O -1.27925 86.7757 2.87649 -1.2 1 0.0282604 0.0244462 0.0282156 0.0240834 0.0305662 0.020897 0.0521697 0.0501796 0.0399392 0.0456846 0.05232 0.0359254 0.0515711 0.0822094 0.0825991 0.0805421 0.0768794 0.0656586 0.0661833 0.0694404
113 1 Mg -2.36277 90.5002 -0.157705 1.2 1 0.0036491 0.0180555 0.015383 0.0387821 0.0118909 0.0375591 0.0191253 0.0559989 0.0234482 0.0815008 0.0179551 0.0483353 0.0292865 0.0729872 0.0321796 0.109296 0.0383498 0.0996052 0.0455526 0.0820549
114 1 Mg 2.11024 93.3767 1.22657 1.2 1 0.0158637 0.0117189 0.0204617 0.0289046 0.0249435 0.0254869 0.0341677 0.0345646 0.0448484 0.0555638 0.0696112 0.0642551 0.049259 0.0727713 0.0747151 0.0717929 0.0721731 0.0826431 0.0879613 0.0629489
115 2 Si -0.123447 91.3607 1.51059 2.4 1 0.012947 0.012838 0.0121509 0.0360408 0.0357592 0.0285758 0.0421292 0.0412552 0.0495459 0.0579427 0.0530567 0.0739301 0.0599974 0.0687948 0.0861594 0.0606442 0.0709983 0.090889 0.0615282 0.0652408
116 3 O 1.38841 91.247 1.46522 -1.2 1 0.0127272 0.0282937 0.0119823 0.0273702 0.0192192 0.0326738 0.0363553 0.0678425 0.0422899 0.0574445 0.0277194 0.075026 0.0535392 0.0765562 0.0824854 0.0697869 0.0736906 0.0776284 0.0494817 0.0762131
117 3 O -1.23628 95.3528 1.34766 -1.2 1 0.00838798 0.0158096 0.016829 0.0234278 0.0246073 0.0326496 0.0437874 0.0435549 0.0579099 0.0381125 0.0465545 0.0447855 0.0555979 0.0785839 0.10455 0.0698967 0.0747619 0.0502404 0.0788238 0.0604587
118 3 O -1.01992 92.071 0.114414 -1.2 1 0.00623979 0.0186648 0.0267065 0.0262369 0.0290295 0.0297428 0.0573296 0.0523733 0.0391759 0.0444377 0.0526749 0.0418771 0.0542741 0.0556575 0.0979179 0.0669827 0.074483 0.0631874 0.065954 0.0606068
119 1 Mg -2.28564 101.003 2.82065 1.2 1 0.00797205 0.0153974 0.0114695 0.0308445 0.011879 0.0365021 0.0110874 0.0559773 0.0224859 0.0807965 0.0181818 0.0585628 0.0204189 0.0753221 0.0183524 0.107564 0.032174 0.112819 0.034169 0.0938171
120 3 O -0.767785 92.0832 2.80897 -1.2 1 0.0148733 0.0206078 0.0253328 0.0206177 0.0331523 0.0206234 0.0456726 0.046936 0.0395123 0.0557982 0.0474415 0.0588512 0.0581465 0.0768199 0.0842168 0.078963 0.0704292 0.0628099 0.0601587 0.0667297
121 1 Mg -2.154 98.1658 4.32362 1.2 1 0.00707932 0.0132606 0.0175039 0.0306961 0.023433 0.0251027 0.025018 0.0253301 0.0487435 0.0598187 0.0599869 0.0570688 0.0594579 0.0615935 0.0586191 0.0955233 0.0712617 0.0892937 0.0603145 0.0827302
122 2 Si 0.417132 100.218 4.35602 2.4 1 0.0154057 0.0190658 0.0234539 0.0293653 0.0226522 0.0253152 0.0369822 0.0379447 0.0475204 0.0717335 0.0522869 0.0589045 0.0554128 0.0617069 0.0835554 0.0553572 0.0749117 0.0864885 0.0606411 0.0668609
123 3 O -1.12889 100.176 4.29712 -1.2 1 0.0252159 0.0158708 0.0239367 0.0236814 0.0201278 0.0273271 0.0255435 0.066128 0.0393305 0.0486159 0.0412054 0.067107 0.0469072 0.0706004 0.0740366 0.0666337 0.0549291 0.0797058 0.0447704 0.0808341
124 3 O 1.64747 96.2675 4.26993 -1.2 1 0.0140382 0.0172078 0.0315255 0.0180355 0.0146736 0.03521 0.0318188 0.0454432 0.059094 0.0421049 0.0513956 0.0447856 0.0537005 0.0705005 0.106495 0.0729331 0.0642602 0.0483997 0.0687628 0.0610819
125 3 O 1.127 99.4167 3.07298 -1.2 1 0.0205848 0.0100932 0.0353645 0.02549 0.0276371 0.0235349 0.0425419 0.0531458 0.0423797 0.0450329 0.0505093 0.0435168 0.0486178 0.06146 0.0803578 0.0728042 0.0853411 0.0519513 0.0728098 0.0708622