ITEM: TIMESTEP
42900
ITEM: NUMBER OF ATOMS
5600
ITEM: BOX BOUNDS xy xz yz pp pp pp
0	7.1235	0
0	201.985	2.3745
0	119.584	0
ITEM: ATOMS id type element xu yu zu q Q_1 Q_2 Q_3 Q_4 Q_5 Q_6 Q_7 Q_8 Q_9 Q_10 Q_11 Q_12 Q_13 Q_14 Q_15 Q_16 Q_17 Q_18 Q_19 Q_20 Q_21
1 1 Mg -1.95135 48.8431 -1.57802 1.2 1 0.442616 0.0735522 0.128199 0.0571844 0.0772229 0.0501147 0.0550098 0.0579345 0.070308 0.0688654 0.0757454 0.0947665 0.102397 0.0860551 0.107032 0.102906 0.0792355 0.108924 0.118998 0.0986243
2 1 Mg 2.59368 50.2573 1.8695 1.2 1 0.290863 0.132645 0.0428702 0.0511794 0.0566268 0.059286 0.071461 0.0646214 0.0561061 0.0734959 0.0718925 0.0842793 0.0920827 0.0893793 0.0732811 0.0826081 0.0793698 0.0982608 0.0720238 0.0767651
3 2 Si 0.59823 50.187 -0.101169 2.4 1 0.308812 0.10982 0.0450532 0.0686666 0.04768 0.0450272 0.0677194 0.0476694 0.0694444 0.0738531 0.064905 0.0921682 0.0546951 0.0690293 0.103157 0.0615168 0.0958835 0.0815867 0.0719403 0.0843428
4 3 O 1.95469 49.4005 -0.0151738 -1.2 1 0.381785 0.10101 0.0809066 0.0711088 0.0388702 0.0650777 0.0425725 0.0656019 0.0528851 0.0853658 0.0660743 0.0882752 0.0807021 0.0791098 0.104547 0.0882731 0.0778518 0.0696969 0.0736785 0.0831389
5 3 O -1.13745 53.1074 1.5051 -1.2 1 0.105695 0.0514178 0.0446189 0.0242502 0.0316931 0.0271946 0.047514 0.0486536 0.0611605 0.0605701 0.0602583 0.0538207 0.0546944 0.0790201 0.0658438 0.0830961 0.0792821 0.056853 0.0670897 0.066388
6 3 O -0.23104 49.5586 -1.35037 -1.2 1 0.369113 0.112442 0.0769926 0.0716108 0.0262096 0.0778948 0.0397935 0.0604991 0.0642879 0.0822756 0.0660629 0.082978 0.100374 0.0938127 0.0902472 0.0780194 0.0915273 0.0697417 0.082214 0.0820672
7 1 Mg -2.12625 58.7487 2.94829 1.2 1 0.027153 0.0158215 0.0127396 0.0401479 0.0100294 0.0433163 0.0128137 0.0646769 0.0185671 0.0685036 0.0249651 0.0539527 0.0275577 0.0642484 0.0329257 0.101975 0.0355292 0.106157 0.05145 0.0831928
8 3 O -0.13671 50.1135 1.29531 -1.2 1 0.30278 0.142763 0.0532885 0.057834 0.0299174 0.03847 0.0694445 0.0749443 0.072462 0.0924938 0.0789283 0.0708329 0.0528956 0.0739916 0.0946638 0.0998143 0.0939329 0.0822969 0.077602 0.0872355
9 1 Mg -2.19377 55.7788 4.21911 1.2 1 0.00905601 0.0165757 0.0142671 0.0304354 0.0166079 0.0338681 0.0182862 0.0372498 0.0456154 0.0578823 0.0612939 0.0540431 0.0515601 0.0714696 0.0786932 0.0669932 0.0759376 0.0734422 0.0815361 0.0640382
10 2 Si 0.511498 57.9031 4.52008 2.4 1 0.0139659 0.0321138 0.0236796 0.022454 0.0237252 0.0301929 0.0380241 0.0481185 0.0504506 0.053851 0.0501869 0.0682999 0.0684556 0.0570438 0.0871392 0.0766728 0.0615039 0.0893935 0.0537376 0.0664908
11 3 O -1.06061 58.0078 4.41184 -1.2 1 0.0197719 0.0363412 0.0239811 0.0262512 0.0249612 0.0301314 0.0301223 0.0748821 0.0416322 0.0498723 0.0454433 0.0735271 0.0566767 0.0616096 0.0728726 0.0744195 0.0596225 0.0729833 0.0547404 0.082798
12 3 O 1.61815 53.7425 4.62156 -1.2 1 0.0679261 0.038429 0.0402295 0.0284562 0.031128 0.0367684 0.0404893 0.0454358 0.0554044 0.0610336 0.0654157 0.0577453 0.0651049 0.0734002 0.0924519 0.0894123 0.0694119 0.0658649 0.0589625 0.0693794
13 3 O 1.21585 57.2163 3.17188 -1.2 1 0.0279177 0.0105447 0.0226017 0.0243291 0.0210125 0.0232374 0.0475969 0.0368163 0.0424671 0.0412613 0.0496162 0.0472278 0.0620392 0.0492835 0.0957644 0.0716874 0.0821722 0.061692 0.0675386 0.0688684
14 3 O 1.16596 57.1964 5.85409 -1.2 1 0.0266539 0.0220035 0.0257485 0.0173158 0.0209626 0.0241482 0.0484493 0.0443602 0.046731 0.0509213 0.0513898 0.0421119 0.0665325 0.0590745 0.079909 0.0763389 0.0749337 0.0653338 0.0614697 0.0750623
15 1 Mg 0.341802 53.3372 2.88881 1.2 1 0.0865548 0.0608966 0.0375314 0.0357379 0.0283494 0.029291 0.0341003 0.0578177 0.0360443 0.0615904 0.0655686 0.0484605 0.055628 0.0705676 0.052908 0.0874088 0.07171 0.0732991 0.0830292 0.0620565
16 1 Mg 0.49682 49.1447 2.92676 1.2 1 0.408484 0.0847824 0.110018 0.0561554 0.0510033 0.0697414 0.0544625 0.0569784 0.0766239 0.0755814 0.0808148 0.0708401 0.0758333 0.0759874 0.0862335 0.0944862 0.073516 0.0791856 0.0862782 0.0851018
17 2 Si 2.51208 52.3453 4.3989 2.4 1 0.123157 0.0923829 0.041533 0.0275762 0.0288255 0.0495038 0.0354918 0.0459491 0.0582591 0.0653159 0.0834323 0.0684676 0.0806414 0.0889004 0.0797828 0.0977809 0.0829143 0.0918881 0.0721124 0.0727832
18 3 O -0.791044 52.5551 4.42517 -1.2 1 0.125875 0.0890126 0.0311641 0.0172047 0.018321 0.0447732 0.0380029 0.0607206 0.0642258 0.070873 0.0513845 0.0905124 0.0679975 0.0677604 0.0807189 0.0698658 0.082641 0.0686327 0.079242 0.068337
19 3 O 2.35683 48.7701 3.01626 -1.2 1 0.443294 0.0692898 0.112477 0.0653015 0.0819952 0.0475441 0.075455 0.0868881 0.0846745 0.0821213 0.0738299 0.0787183 0.0949012 0.082256 0.0949459 0.105134 0.102658 0.0916682 0.0764177 0.068842
20 3 O 1.92523 51.6556 3.07478 -1.2 1 0.187486 0.0978819 0.0273052 0.0305741 0.0308087 0.0567817 0.0342142 0.0742922 0.0499638 0.0592512 0.0622054 0.0722484 0.0804301 0.0796885 0.0770023 0.0731459 0.0860254 0.0786413 0.0686741 0.0758753
21 1 Mg 0.0867882 53.5693 -0.0142239 1.2 1 0.0748011 0.0480181 0.0446161 0.0273994 0.0226321 0.0301392 0.0307352 0.0605553 0.0445609 0.0680938 0.0440162 0.0565693 0.0444659 0.0705137 0.0549964 0.087326 0.0570375 0.0784487 0.0609325 0.071815
22 3 O 1.97746 51.2893 5.56396 -1.2 1 0.221336 0.101645 0.0223915 0.0447488 0.0481782 0.0388558 0.0542475 0.0716144 0.0636097 0.0625015 0.066292 0.0784368 0.0682976 0.0905459 0.0799265 0.066693 0.0806686 0.0787804 0.0814609 0.0810341
23 1 Mg 0.225217 56.4576 1.46322 1.2 1 0.0277707 0.0136936 0.0241215 0.0246965 0.0218665 0.0279498 0.0360723 0.0407982 0.0435847 0.0488342 0.0651803 0.0490658 0.0643727 0.0577854 0.0678922 0.0725934 0.0749808 0.0788637 0.0792604 0.0783791
24 2 Si -1.78582 54.5274 1.42922 2.4 1 0.022518 0.032257 0.0324366 0.0276151 0.0225962 0.0379716 0.0484742 0.0490764 0.0532949 0.0647295 0.0505836 0.0627799 0.0868055 0.0442816 0.0516794 0.0540881 0.0708233 0.0679301 0.0671987 0.0645909
25 3 O 1.28776 54.4336 1.59035 -1.2 1 0.0341834 0.0379399 0.0266558 0.0238089 0.018056 0.0387825 0.0219373 0.0542879 0.0431818 0.0581622 0.059735 0.0606219 0.0455739 0.0828321 0.0760487 0.0534553 0.0645739 0.0725835 0.0580658 0.0605711
26 3 O -0.860799 58.2854 1.40659 -1.2 1 0.0220719 0.0178428 0.0221681 0.0201386 0.0202996 0.0387821 0.0297562 0.0401632 0.0577032 0.0435686 0.042842 0.0421804 0.0535123 0.068895 0.0948795 0.0674106 0.0703784 0.0556208 0.0632513 0.0667168
27 3 O -1.27491 55.1668 0.117427 -1.2 1 0.0194811 0.0197119 0.0167977 0.0343887 0.0166281 0.0360593 0.0544034 0.0433193 0.0329327 0.0379751 0.0670257 0.0449744 0.0588562 0.0607644 0.0967155 0.0519196 0.0736979 0.0611054 0.0619715 0.0743765
28 3 O -1.26236 55.4132 2.62467 -1.2 1 0.0323897 0.0290865 0.0265884 0.0187898 0.0208403 0.0290796 0.0475593 0.0450377 0.0360202 0.0459496 0.0642306 0.0513042 0.0478443 0.0722645 0.075031 0.0800061 0.0609087 0.0628603 0.0699738 0.0587302
29 1 Mg -2.51769 58.6333 0.0505464 1.2 1 0.0210499 0.0266736 0.0121431 0.0276463 0.0192118 0.0330912 0.022063 0.0502153 0.0275891 0.0791167 0.0339283 0.0528144 0.027681 0.0613934 0.03138 0.0917341 0.0508549 0.102422 0.0534848 0.0837932
30 1 Mg 2.42981 61.6839 1.46837 1.2 1 0.0186951 0.0181815 0.0162312 0.0322527 0.011944 0.0283641 0.0185914 0.0309312 0.0474723 0.0588311 0.0658741 0.0423508 0.0595707 0.0683797 0.0583801 0.0744986 0.0692718 0.10387 0.0586881 0.0804734
31 2 Si -0.273031 59.7833 1.45895 2.4 1 0.0116182 0.00885451 0.0187054 0.0233382 0.02586 0.0316637 0.0367574 0.0362992 0.0481796 0.0590175 0.0531639 0.0611111 0.0674016 0.0541883 0.075301 0.0632994 0.0670579 0.0864391 0.0549407 0.0538949
32 3 O 1.32718 59.7157 1.53544 -1.2 1 0.0201093 0.0289729 0.0162133 0.0286433 0.0259841 0.0262558 0.029302 0.0764349 0.0403468 0.0539118 0.0418826 0.0694394 0.0513261 0.0668941 0.0715586 0.0684294 0.0614575 0.0740141 0.0527505 0.070201
33 3 O -1.52259 63.5892 1.38032 -1.2 1 0.00814828 0.0190155 0.0220691 0.021304 0.0175468 0.0316163 0.0309872 0.0413395 0.0591293 0.0441375 0.0519021 0.0434362 0.0540381 0.065051 0.093894 0.0714457 0.0711875 0.0500489 0.0716738 0.0544831
34 3 O -1.00853 60.5183 0.337986 -1.2 1 0.00944153 0.0188549 0.0308724 0.0168294 0.0251247 0.0176099 0.0495439 0.0478217 0.0330663 0.0422403 0.0539438 0.0421998 0.0493103 0.0708421 0.07663 0.072813 0.0862544 0.0628302 0.0731895 0.0579007
35 1 Mg -2.26859 69.6341 3.22883 1.2 1 0.0151614 0.0171983 0.00839873 0.0315332 0.0267454 0.0313479 0.0346849 0.0579592 0.0333377 0.0675391 0.0425182 0.0488593 0.0373864 0.0667062 0.0493854 0.092258 0.0599938 0.0992768 0.0585181 0.0796065
36 3 O -0.966313 60.4343 2.79041 -1.2 1 0.0146832 0.02299 0.0285478 0.0231071 0.0229816 0.0261672 0.048431 0.0454421 0.0414195 0.0475277 0.0504099 0.0408766 0.0541976 0.0675787 0.0800391 0.0758111 0.0749638 0.0609252 0.0603442 0.0682263
37 1 Mg -2.21594 66.6088 4.34993 1.2 1 0.0309704 0.0127273 0.0215849 0.0343878 0.0175175 0.0322035 0.0288299 0.0343031 0.0475624 0.0528791 0.0681 0.0505466 0.0555332 0.0678963 0.0698602 0.081601 0.0512291 0.0873993 0.0729724 0.0765801
38 2 Si 0.20329 68.1865 4.68947 2.4 1 0.0254248 0.0196566 0.0195273 0.0222048 0.0331007 0.0349208 0.0356038 0.0467061 0.052979 0.0548357 0.0565395 0.0574915 0.0608437 0.0542859 0.0588985 0.0852182 0.0645741 0.0797624 0.0718855 0.0685633
39 3 O -1.34204 68.4468 4.69846 -1.2 1 0.0167062 0.0147715 0.023521 0.0262018 0.0211791 0.0264806 0.0257259 0.0691383 0.0413468 0.061564 0.044296 0.0641262 0.0608019 0.0621938 0.0707159 0.0618527 0.0649141 0.0677729 0.0661189 0.0539645
40 3 O 1.40453 64.4272 4.40682 -1.2 1 0.0209979 0.0177051 0.014647 0.0254156 0.021626 0.0313335 0.033757 0.0455028 0.0588225 0.0428438 0.0529298 0.0438636 0.0616236 0.0769712 0.0892755 0.0575676 0.0876641 0.0652035 0.0727888 0.0492433
41 3 O 0.803761 67.3354 3.46012 -1.2 1 0.0163217 0.0280643 0.0265114 0.0131666 0.0298082 0.0318619 0.0444684 0.0414931 0.0402747 0.0529709 0.0595704 0.0466365 0.0509286 0.0513278 0.0768648 0.0804433 0.0655254 0.0668365 0.0664931 0.0604655
42 3 O 1.01702 67.861 6.07914 -1.2 1 0.00921181 0.0171711 0.027747 0.0191291 0.0231464 0.0191801 0.0429006 0.0456101 0.0433148 0.0448576 0.0536313 0.0361051 0.0665843 0.0513652 0.0827359 0.070045 0.065712 0.0745257 0.0644512 0.0743618
43 1 Mg -0.0367493 63.8396 2.84953 1.2 1 0.0171415 0.0177605 0.0161509 0.0258298 0.0187389 0.0329536 0.0232763 0.055716 0.0354023 0.078656 0.0346328 0.0497244 0.0302606 0.0693194 0.0497304 0.0939703 0.0591209 0.0921878 0.0622751 0.0672472
44 1 Mg 0.0293007 60.9573 4.42053 1.2 1 0.0239446 0.0156579 0.0199075 0.0242901 0.0191626 0.0238613 0.0241823 0.034997 0.0417882 0.055647 0.0554624 0.0663565 0.0582685 0.051812 0.0761495 0.0480444 0.0865201 0.0940436 0.0720813 0.0683827
45 2 Si 2.00714 62.9391 4.35089 2.4 1 0.0418473 0.0245455 0.0170136 0.0283179 0.0293204 0.035739 0.0389595 0.0433798 0.0600335 0.0571996 0.046435 0.0735908 0.0714256 0.0579629 0.0660509 0.0783373 0.0608821 0.0880456 0.0627964 0.0610211
46 3 O -1.21686 62.9554 4.30331 -1.2 1 0.0279053 0.0122331 0.0203767 0.0233339 0.0316705 0.0239982 0.0252493 0.0650966 0.0452355 0.06475 0.0402314 0.0588815 0.0647144 0.0719137 0.0740278 0.0622478 0.0593969 0.0620478 0.0705782 0.0603476
47 3 O 1.19553 59.3321 4.42484 -1.2 1 0.00910231 0.0206736 0.0160669 0.0144219 0.0169671 0.0332422 0.0448509 0.0418039 0.052273 0.0401226 0.0487961 0.0422564 0.0503197 0.0776289 0.0940154 0.0748237 0.0757809 0.0514996 0.0750987 0.0554255
48 3 O 1.31823 62.3283 3.08981 -1.2 1 0.00888767 0.0238832 0.0281341 0.0210969 0.0283974 0.0232125 0.0488044 0.0480457 0.0315913 0.0482724 0.0524706 0.0452744 0.0526838 0.0562382 0.0901522 0.0798629 0.0684798 0.0653311 0.0600011 0.0780682
49 1 Mg -0.214583 64.1715 0.152265 1.2 1 0.0180347 0.0153155 0.00791758 0.0286011 0.0134263 0.0335628 0.0222987 0.0592522 0.0154787 0.0748228 0.027072 0.0554771 0.0228779 0.0723331 0.029852 0.100633 0.0387592 0.104618 0.0420866 0.081273
50 3 O 1.35656 62.1699 5.60083 -1.2 1 0.0287565 0.0207428 0.0201256 0.0209773 0.0324816 0.0284805 0.0361432 0.0317814 0.0403618 0.056075 0.0558769 0.0442142 0.0572868 0.056127 0.0917169 0.0728403 0.0582457 0.0672836 0.0708312 0.0638098
51 1 Mg -0.174474 67.0356 1.63007 1.2 1 0.0168427 0.0163605 0.0237713 0.0308791 0.0155693 0.0257041 0.023319 0.0344284 0.0464173 0.0568903 0.0549178 0.0525488 0.0571677 0.0538061 0.0651488 0.0716786 0.0738873 0.092422 0.0661245 0.0812636
52 2 Si -2.20566 65.1191 1.4607 2.4 1 0.0128125 0.0111278 0.0259725 0.0288179 0.0295388 0.0297338 0.0319292 0.0464251 0.0550983 0.0608273 0.0539579 0.0598959 0.0659001 0.0553888 0.0828992 0.0668145 0.0714284 0.0828578 0.0550223 0.0537059
53 3 O 1.01244 65.0912 1.4112 -1.2 1 0.0228988 0.0179727 0.0104057 0.0203337 0.0266762 0.0232696 0.0319236 0.0744427 0.0415015 0.0616779 0.0287886 0.0717544 0.0500682 0.077652 0.069538 0.0568105 0.0624536 0.0727449 0.050324 0.0658206
54 3 O -1.06824 68.9843 1.79851 -1.2 1 0.0116766 0.0184023 0.0163952 0.0210721 0.0134959 0.0324977 0.0345183 0.0433131 0.0579584 0.0435221 0.0483873 0.0412168 0.0561223 0.0668372 0.0876046 0.0833232 0.0655006 0.0626057 0.0630408 0.0500491
55 3 O -1.47707 65.8566 0.239413 -1.2 1 0.0188639 0.00795073 0.0200223 0.0209266 0.0270502 0.0235697 0.0418307 0.0499163 0.0380902 0.0426211 0.0565382 0.0403598 0.0511593 0.054931 0.0835051 0.0838161 0.0745857 0.0591944 0.065487 0.0656729
56 3 O -1.57037 65.8512 2.74557 -1.2 1 0.0179814 0.0201324 0.0291688 0.0202154 0.021453 0.0326225 0.0416188 0.0489106 0.0409114 0.0484131 0.055572 0.045064 0.049278 0.0739408 0.0740109 0.0813236 0.0748395 0.05542 0.0634415 0.07138
57 1 Mg -2.43296 69.4442 0.0330834 1.2 1 0.01349 0.0145805 0.00617796 0.0356876 0.0135598 0.0398587 0.014306 0.0573257 0.0140467 0.0792322 0.0213078 0.0540407 0.0185087 0.0690778 0.0299314 0.103745 0.0273705 0.101292 0.0269415 0.0928915
58 1 Mg 2.0637 72.1929 1.6979 1.2 1 0.015935 0.0165691 0.0190337 0.0299712 0.0164781 0.0304547 0.0335796 0.034408 0.046733 0.0575592 0.0680007 0.0465938 0.0601652 0.0658013 0.0595066 0.0865651 0.069604 0.0920595 0.070092 0.0767165
59 2 Si -0.387575 70.3686 1.50773 2.4 1 0.0112758 0.0149015 0.0239075 0.0388997 0.0232376 0.0328466 0.0406399 0.0408939 0.053981 0.0586768 0.0526505 0.0638185 0.0687247 0.0534786 0.0807588 0.0590237 0.058993 0.0937762 0.0654074 0.0684072
60 3 O 1.14459 70.412 1.46586 -1.2 1 0.0309249 0.0301472 0.019432 0.0245161 0.0291776 0.0305084 0.0198414 0.0776468 0.044209 0.0651369 0.0355146 0.0678897 0.0495944 0.0775634 0.0706203 0.0661964 0.0590316 0.0674241 0.0612257 0.0691449
61 3 O -1.45959 74.2907 1.73453 -1.2 1 0.0156566 0.0120578 0.0216658 0.0261146 0.0200739 0.0344357 0.0392415 0.0436953 0.0544799 0.0419406 0.0541724 0.0439909 0.0561651 0.0820346 0.0956386 0.0764906 0.0721574 0.049296 0.074794 0.0625215
62 3 O -1.09964 70.9038 0.222591 -1.2 1 0.0116002 0.0166027 0.0284291 0.0213161 0.029253 0.0243389 0.0446056 0.0472356 0.052044 0.0441608 0.0496073 0.0514164 0.05779 0.0582334 0.0899125 0.0758584 0.0678061 0.074198 0.0702959 0.0614435
63 1 Mg -2.60853 79.8781 3.06826 1.2 1 0.0237927 0.0199898 0.0164945 0.0336034 0.0209759 0.0347464 0.0219136 0.0530879 0.0264213 0.0749774 0.032699 0.0468303 0.0294838 0.0688535 0.0384776 0.0954023 0.0605944 0.100491 0.0623834 0.0748161
64 3 O -1.04031 71.273 2.79874 -1.2 1 0.014013 0.0152897 0.0213374 0.0152275 0.0255949 0.0224165 0.0470257 0.0414262 0.0390414 0.0463728 0.0605162 0.0389536 0.0619573 0.0621039 0.0798604 0.0684588 0.0649937 0.0709729 0.0653603 0.0627204
65 1 Mg -2.6752 77.047 4.7222 1.2 1 0.0199258 0.0134581 0.0255287 0.0258503 0.0197529 0.0324212 0.0295576 0.0394714 0.0497795 0.0435356 0.0547698 0.0562039 0.0622423 0.0658293 0.0656025 0.0665318 0.0742027 0.102765 0.0660508 0.0782461
66 2 Si 0.126652 79.0113 4.68687 2.4 1 0.0134065 0.0268572 0.0208808 0.0306777 0.0371448 0.0303689 0.0391571 0.044984 0.0513263 0.0558491 0.0535124 0.0719941 0.0761048 0.0586704 0.0815602 0.0710452 0.071099 0.0861078 0.0613212 0.0581823
67 3 O -1.39552 79.1345 4.70293 -1.2 1 0.0117708 0.0347683 0.0145453 0.0243495 0.0281877 0.0358316 0.0279367 0.082726 0.0471418 0.0584211 0.0409221 0.070256 0.0586235 0.0686997 0.082828 0.0725454 0.0551563 0.0713593 0.0577111 0.0767677
68 3 O 1.18923 75.0918 4.43979 -1.2 1 0.00499729 0.018008 0.0194442 0.0194 0.0173054 0.0305539 0.0365744 0.0389274 0.0548599 0.0386934 0.0433974 0.0414167 0.0570155 0.0716726 0.094825 0.0685942 0.078027 0.058833 0.067944 0.0541881
69 3 O 0.932911 78.3949 3.36543 -1.2 1 0.00744426 0.0172848 0.0245153 0.0261694 0.0255961 0.0251568 0.0506694 0.0495068 0.0359285 0.0398384 0.0556173 0.0431754 0.0500082 0.0680453 0.0848357 0.0773588 0.0793637 0.0597577 0.0592073 0.077942
70 3 O 0.981297 78.3431 5.90965 -1.2 1 0.0135414 0.0201131 0.0243429 0.024189 0.0272921 0.0220647 0.0533535 0.0417604 0.0334358 0.0455585 0.0537065 0.0417006 0.0550651 0.0667937 0.0893833 0.0699565 0.0805916 0.0685346 0.0683709 0.0688536
71 1 Mg -0.0615952 74.4028 3.08046 1.2 1 0.0169825 0.0190389 0.0225014 0.0329433 0.0157915 0.0379505 0.0246222 0.0483084 0.0386181 0.071084 0.036321 0.0516652 0.0393568 0.0614888 0.0549396 0.0931266 0.0717105 0.086894 0.0690371 0.0813955
72 1 Mg -0.185149 71.6204 4.49156 1.2 1 0.0169193 0.0153721 0.0198782 0.0322319 0.0235623 0.0202787 0.0267166 0.0332834 0.0354793 0.0610625 0.0452015 0.0692023 0.0555046 0.0575157 0.0729009 0.0643422 0.0867534 0.0845049 0.0720636 0.0687782
73 2 Si 1.95491 73.6785 4.71699 2.4 1 0.0147754 0.0193247 0.021616 0.0334228 0.0299512 0.0303942 0.0379924 0.0390219 0.0554223 0.0608932 0.0477866 0.0638135 0.0701209 0.0587684 0.0739787 0.0777414 0.0638273 0.0928273 0.060817 0.0638753
74 3 O -1.2381 73.8357 4.69326 -1.2 1 0.017567 0.0243108 0.0153585 0.0240186 0.0256753 0.0350111 0.0353515 0.0718196 0.0409224 0.0571144 0.0390791 0.070026 0.0612618 0.0686872 0.0797502 0.06894 0.0578238 0.0804072 0.0586161 0.0748296
75 3 O 0.845203 69.7292 4.36877 -1.2 1 0.0104641 0.0176714 0.0225862 0.0280111 0.0120674 0.038781 0.034541 0.0437714 0.0628871 0.0358455 0.0498738 0.0425528 0.0561229 0.0751282 0.0842803 0.0658965 0.0748385 0.0479736 0.0784156 0.058227
76 3 O 1.30765 72.7754 3.43431 -1.2 1 0.0145714 0.0219845 0.0221818 0.0173712 0.0310915 0.0279012 0.0419014 0.0389767 0.0448401 0.0487074 0.0604284 0.0405925 0.0599355 0.0595975 0.0783643 0.0823811 0.0537841 0.0719783 0.0635428 0.064513
77 1 Mg -0.0882244 74.6193 0.109067 1.2 1 0.0104893 0.0149564 0.0141421 0.0285398 0.0114833 0.0306703 0.0145817 0.0612167 0.0200559 0.0800763 0.0259997 0.0473771 0.0222901 0.0746781 0.0254251 0.100058 0.0394011 0.106227 0.0394625 0.0905097
78 3 O 1.41682 73.114 6.03458 -1.2 1 0.0100538 0.0184069 0.0257098 0.0219614 0.0285533 0.0205997 0.0445628 0.0490771 0.0392904 0.0610153 0.0541223 0.0467482 0.0548799 0.0739802 0.0823584 0.0781886 0.074711 0.0660689 0.061301 0.0681386
79 1 Mg -0.133056 77.5648 1.76214 1.2 1 0.02236 0.0110545 0.0194231 0.0282207 0.0151059 0.028184 0.0263454 0.0339302 0.046947 0.0574409 0.0649553 0.050753 0.0576767 0.0679153 0.0659254 0.0818654 0.0647339 0.102683 0.0600274 0.0893448
80 2 Si -2.06621 75.6768 1.79465 2.4 1 0.0138424 0.00749871 0.0224245 0.0271865 0.0348739 0.0304197 0.0458348 0.0442545 0.0549802 0.0523298 0.0532903 0.054612 0.0791573 0.0574457 0.0701493 0.0687104 0.063934 0.0910599 0.0567484 0.0565027
81 3 O 1.09579 75.6567 1.6888 -1.2 1 0.016451 0.0303682 0.0197715 0.0195844 0.0263662 0.0231657 0.0278027 0.0729046 0.0438861 0.058115 0.0488348 0.0760322 0.0492051 0.0771419 0.0793784 0.0681607 0.058255 0.0732234 0.0512295 0.0787204
82 3 O -1.20468 79.5406 1.57831 -1.2 1 0.0115737 0.0202729 0.0227787 0.0241672 0.016341 0.0320974 0.0420076 0.0411353 0.0520387 0.0388617 0.0471938 0.0402334 0.058051 0.0717582 0.102141 0.0636971 0.0751413 0.0497455 0.0692783 0.0531068
83 3 O -1.40769 76.4413 0.408224 -1.2 1 0.0101324 0.0160584 0.0270942 0.0244469 0.0221346 0.0222883 0.0481834 0.0436886 0.0340414 0.0450035 0.0574173 0.0450043 0.0551791 0.0628666 0.0936519 0.0725679 0.0823616 0.0586561 0.0668596 0.0680613
84 3 O -1.47989 76.4578 2.98614 -1.2 1 0.0173009 0.0097689 0.0268691 0.0195678 0.0274626 0.0216972 0.0559353 0.05379 0.0335924 0.0414822 0.0625219 0.0447425 0.0494062 0.0755296 0.0852983 0.0770895 0.0696174 0.0610635 0.0675415 0.0694925
85 1 Mg -2.39922 79.992 0.104327 1.2 1 0.0128127 0.0193998 0.0125036 0.0299039 0.012037 0.0393893 0.0231754 0.0603551 0.0176691 0.0707171 0.0226415 0.0469588 0.0232859 0.0690977 0.030896 0.102645 0.0386143 0.109232 0.0372868 0.0962404
86 1 Mg 2.33615 82.9918 1.87188 1.2 1 0.0163976 0.0110749 0.0217915 0.0268663 0.0183342 0.0308521 0.0329568 0.0355986 0.0438941 0.0573829 0.0563983 0.0545518 0.0633615 0.0661407 0.0634129 0.0799015 0.0688111 0.0961853 0.0693646 0.0811777
87 2 Si -0.441882 80.9703 1.6908 2.4 1 0.00683849 0.00635989 0.0347797 0.0250922 0.039025 0.0263522 0.0411217 0.0425983 0.0473095 0.0484743 0.0542122 0.0629763 0.0674179 0.0611033 0.0824339 0.0702958 0.0645304 0.0971669 0.0523695 0.0554537
88 3 O 1.01245 80.9518 1.77629 -1.2 1 0.0143074 0.0214183 0.0286764 0.0161886 0.0274571 0.0255714 0.0365014 0.0703847 0.0353533 0.0449321 0.0413005 0.0786639 0.0610974 0.078481 0.0835794 0.0697536 0.0521668 0.0717103 0.0524212 0.0709923
89 3 O -1.50056 84.832 1.78777 -1.2 1 0.01014 0.010192 0.0210097 0.0249919 0.0125155 0.0369735 0.0413133 0.0444477 0.0501041 0.0436339 0.0510335 0.0410796 0.0507707 0.0698547 0.100435 0.0637 0.0715487 0.050605 0.0734821 0.0573923
90 3 O -1.1849 81.8091 0.482552 -1.2 1 0.0258222 0.0120835 0.0309282 0.0283098 0.027437 0.0226954 0.0557996 0.0413268 0.0400118 0.0453823 0.0596687 0.0415849 0.0596839 0.0612979 0.0932265 0.0717673 0.0756504 0.0701375 0.0576396 0.0662969
91 1 Mg -2.36391 90.3895 2.95288 1.2 1 0.0131319 0.0148127 0.0115104 0.0326576 0.0255717 0.0289637 0.0378227 0.0537279 0.0443111 0.0710697 0.0430914 0.0540108 0.0422855 0.0636481 0.0588069 0.0896137 0.0747182 0.0910826 0.0653793 0.0706186
92 3 O -1.30144 81.5677 2.9962 -1.2 1 0.0148932 0.0176726 0.025516 0.024466 0.0264031 0.0197025 0.040535 0.0452798 0.0450469 0.0416026 0.0537856 0.0483358 0.0532734 0.0521306 0.101974 0.0624118 0.0781593 0.0685422 0.0639219 0.0686374
93 1 Mg -2.13818 87.6911 4.54958 1.2 1 0.0181099 0.0126774 0.022929 0.0318209 0.0175386 0.022719 0.0168585 0.0397386 0.0366724 0.0667209 0.0580174 0.0532904 0.0573675 0.0618467 0.0615881 0.0762786 0.0833296 0.0808778 0.0801101 0.074129
94 2 Si 0.443649 89.7324 4.61757 2.4 1 0.013437 0.0142466 0.0186374 0.0348141 0.0317689 0.0355109 0.0427066 0.0427544 0.0503146 0.0583151 0.0536533 0.0582135 0.0759129 0.0587816 0.0775081 0.0618362 0.0721256 0.0965095 0.0482621 0.0575666
95 3 O -1.14608 89.7965 4.63993 -1.2 1 0.0299893 0.0133439 0.0243727 0.0208493 0.0253505 0.0298571 0.0312213 0.0687977 0.0376588 0.0548448 0.0458631 0.0652439 0.0481915 0.0732665 0.0758894 0.0699208 0.0574794 0.0746505 0.0604496 0.0803613
96 3 O 1.42388 85.9508 4.61898 -1.2 1 0.00654124 0.0157912 0.0276385 0.0251651 0.0200032 0.033496 0.0411367 0.041118 0.050616 0.0441456 0.0506102 0.0433026 0.0546334 0.0678973 0.105306 0.0714938 0.0742312 0.0574252 0.0739168 0.0652099
97 3 O 0.966005 89.039 3.33368 -1.2 1 0.0145386 0.0125774 0.0249223 0.0229575 0.0303271 0.0290474 0.0519955 0.0449669 0.0450068 0.0492443 0.0552 0.0474563 0.0580374 0.0655985 0.0829135 0.0780423 0.0692796 0.0516329 0.0659125 0.075792
98 3 O 1.216 88.8922 5.77604 -1.2 1 0.0220651 0.0170779 0.0278059 0.0190263 0.0276181 0.0227796 0.043333 0.0437003 0.0390586 0.0439952 0.0527112 0.0410902 0.0586543 0.0658967 0.0991529 0.0633695 0.0716288 0.07446 0.0591711 0.0590113
99 1 Mg -0.13798 85.3264 3.22032 1.2 1 0.00867542 0.0149048 0.0175477 0.0309148 0.0125275 0.0352225 0.0135885 0.059475 0.0265727 0.0703757 0.0164274 0.0476373 0.0251654 0.0758602 0.0242869 0.0954612 0.0414499 0.117426 0.0320737 0.0898828
100 1 Mg -0.151837 82.3531 4.56008 1.2 1 0.0068677 0.0197844 0.0163212 0.0352612 0.0149724 0.033243 0.0284908 0.0351737 0.0415099 0.0573734 0.0643597 0.0559826 0.0582552 0.0647738 0.0755229 0.0776413 0.0761504 0.0852694 0.0736716 0.0690262
101 2 Si 1.95817 84.3505 4.7148 2.4 1 0.0150998 0.0123805 0.0242938 0.0322206 0.0386745 0.027943 0.0404073 0.0415889 0.0541977 0.04799 0.0456657 0.0729357 0.0686516 0.0579655 0.0733716 0.074395 0.0625582 0.0957668 0.0569815 0.0543433
102 3 O -1.24907 84.4213 4.55116 -1.2 1 0.0180963 0.0136671 0.0196474 0.0166057 0.0320609 0.0307793 0.0290998 0.0656532 0.0400404 0.0568356 0.0449093 0.0715784 0.0635745 0.0685506 0.0695833 0.0674046 0.0661956 0.0738398 0.0680162 0.0750242
103 3 O 0.745524 80.5162 4.63158 -1.2 1 0.0118682 0.0182018 0.0189994 0.0314629 0.0213936 0.0365983 0.038303 0.0431788 0.0612132 0.0422763 0.0485578 0.0417828 0.0537742 0.0764647 0.099694 0.0721513 0.0723505 0.0489223 0.0736798 0.0679654
104 3 O 1.18882 83.7261 3.3842 -1.2 1 0.014244 0.0167173 0.0371183 0.0272317 0.0237964 0.0213799 0.0518921 0.0458111 0.0345923 0.0467481 0.0508675 0.0475629 0.0569314 0.0578274 0.0938468 0.0672317 0.0780908 0.0703565 0.0658214 0.066874
105 1 Mg -0.0807988 85.4029 0.156629 1.2 1 0.0100102 0.012408 0.0119852 0.0254635 0.0117316 0.0369733 0.0174464 0.0623919 0.0223666 0.0847486 0.0204724 0.0553568 0.0232743 0.0713149 0.0213088 0.104883 0.0259965 0.11326 0.0387883 0.0985186
106 3 O 1.28029 83.9093 6.03083 -1.2 1 0.022386 0.00579147 0.0308855 0.0274323 0.0279108 0.0242726 0.0464877 0.0475168 0.0456409 0.0409662 0.0486536 0.0481311 0.0486599 0.0657679 0.0879758 0.0657634 0.0779872 0.0670481 0.071313 0.0688634
107 1 Mg 0.0174392 88.1874 1.86056 1.2 1 0.0242379 0.0119219 0.0152088 0.0277856 0.0166448 0.0288931 0.0238003 0.0300092 0.0437343 0.0582229 0.0582436 0.0495395 0.0593172 0.0701648 0.0641076 0.0888321 0.0703955 0.0937709 0.0614246 0.0901217
108 2 Si -2.18453 86.2086 1.67611 2.4 1 0.0191159 0.0112635 0.0206381 0.0307171 0.0279929 0.0304119 0.0390579 0.0414772 0.0495132 0.0687827 0.055113 0.0683398 0.0628439 0.0626778 0.0768264 0.0640379 0.0740796 0.0804471 0.0527222 0.0674142
109 3 O 1.05539 86.2619 1.7315 -1.2 1 0.0107049 0.0183594 0.00984626 0.0247145 0.021841 0.0285848 0.025897 0.0758436 0.0383922 0.0526954 0.0400478 0.0719554 0.0594731 0.0678407 0.0705976 0.0752479 0.0569302 0.0792705 0.0607639 0.0824386
110 3 O -0.983879 90.1323 1.64177 -1.2 1 0.0106247 0.0184591 0.030004 0.0246217 0.0191081 0.0389564 0.0328181 0.0407415 0.0502181 0.0400007 0.0444196 0.0461592 0.0579762 0.0625439 0.0985366 0.070289 0.0737725 0.0486392 0.0675105 0.0539657
111 3 O -1.57156 86.9203 0.307504 -1.2 1 0.0185287 0.0142984 0.0208199 0.0187951 0.0288025 0.0214051 0.0401715 0.0469647 0.0439755 0.0535817 0.0474222 0.0428563 0.0586338 0.0719712 0.0679007 0.0762579 0.0852956 0.0607534 0.0664565 0.0837071
112 3 O -1.48185 87.1284 2.85523 -1.2 1 0.0177132 0.0154849 0.0224773 0.0256958 0.0293717 0.0255014 0.0476907 0.0491862 0.0451781 0.0457636 0.0526818 0.035427 0.0541862 0.0794016 0.0747278 0.0826532 0.0732794 0.0757974 0.0628551 0.0679866
113 1 Mg -2.21992 90.5853 0.155438 1.2 1 0.0151195 0.0103147 0.0156098 0.0340517 0.0125296 0.0443505 0.0184419 0.0575792 0.0220023 0.0774691 0.0243408 0.0519607 0.0247252 0.070019 0.0275354 0.0974301 0.0365596 0.11097 0.0427939 0.0875144
114 1 Mg 2.37264 93.5936 1.85611 1.2 1 0.0144849 0.0119884 0.0156659 0.0312853 0.0180514 0.027942 0.0260368 0.0291479 0.0375805 0.0540927 0.0510708 0.0620896 0.0564654 0.0645874 0.0654446 0.0726972 0.0773402 0.0904514 0.0724572 0.0809477
115 2 Si -0.288306 91.7362 1.77401 2.4 1 0.0187225 0.012539 0.0203132 0.0282377 0.0376965 0.0362127 0.0375804 0.0402801 0.0547704 0.0521282 0.0494521 0.0669754 0.0743327 0.0541341 0.0761079 0.071716 0.0664808 0.0899741 0.0642444 0.0568624
116 3 O 1.23978 91.5981 1.79832 -1.2 1 0.0142585 0.022695 0.0161602 0.0206069 0.0298592 0.0270765 0.0271697 0.0737215 0.0375515 0.0586762 0.0432627 0.0726458 0.0536898 0.0731307 0.0737162 0.0670719 0.0570102 0.0697651 0.058425 0.0680985
117 3 O -1.31116 95.297 2.01097 -1.2 1 0.00901296 0.0185727 0.0222209 0.024549 0.021925 0.0355754 0.0353646 0.0511376 0.0481007 0.046452 0.0406992 0.0503408 0.0563249 0.0645894 0.098995 0.0805716 0.0618796 0.0707683 0.0659218 0.0628143
118 3 O -0.87273 92.4713 0.489907 -1.2 1 0.00813722 0.0174849 0.0218309 0.0205806 0.0227679 0.0340159 0.0422262 0.040907 0.0321528 0.0562975 0.0575657 0.0341832 0.0646541 0.0696407 0.0784805 0.0776363 0.0652974 0.0664292 0.0597731 0.0633123
119 1 Mg -2.37976 101.025 3.19191 1.2 1 0.0190177 0.00902686 0.0100944 0.0279525 0.00886777 0.0362082 0.0121242 0.0573061 0.0173983 0.0827841 0.0158355 0.0484544 0.0154399 0.0645045 0.0204367 0.0990783 0.0231227 0.118138 0.0333691 0.098479
120 3 O -0.872109 92.3545 3.01993 -1.2 1 0.0147275 0.0150766 0.0297722 0.0149445 0.0265947 0.021409 0.0483225 0.0439324 0.0414742 0.0465286 0.0553458 0.0403645 0.0537335 0.069179 0.0807839 0.0799624 0.0739393 0.0634018 0.0592581 0.0657359
121 1 Mg -2.23581 98.3245 4.8873 1.2 1 0.0168784 0.0150659 0.0166419 0.0294475 0.0150432 0.0249046 0.0282566 0.0302802 0.0404111 0.059766 0.0538188 0.0535976 0.0680883 0.0683125 0.0595363 0.0844965 0.0663968 0.0975407 0.0643178 0.083346
122 2 Si 0.374526 100.067 4.6345 2.4 1 0.0174764 0.0167403 0.0195909 0.0291533 0.0313635 0.0318666 0.0460316 0.0356326 0.0476701 0.0543601 0.0543361 0.0674653 0.0707409 0.0560217 0.0764315 0.0775453 0.0612775 0.0906417 0.0628239 0.0599433
123 3 O -1.19137 100.188 4.69921 -1.2 1 0.0211131 0.0149147 0.0226153 0.0237252 0.0259366 0.0288215 0.0258191 0.0692809 0.0405116 0.0474901 0.043983 0.0726676 0.0560868 0.060855 0.0731996 0.0687996 0.064047 0.0763539 0.0612884 0.0769837
124 3 O 1.42157 96.5525 4.81018 -1.2 1 0.00656193 0.0179379 0.0219262 0.0174498 0.0222301 0.0316084 0.0322385 0.0503312 0.0498125 0.0483359 0.0361668 0.0526738 0.0429709 0.0681674 0.104505 0.0648276 0.0677132 0.0584321 0.0616717 0.0685593
125 3 O 1.09996 99.511 3.34682 -1.2 1 0.0226588 0.0190089 0.0263553 0.0215773 0.0236768 0.0169413 0.0437262 0.044992 0.0437178 0.0338884 0.0581677 0.0365237 0.0590176 0.050526 0.0898703 0.0659911 0.0813247 0.0629675 0.0632385 0.0813439