ITEM: TIMESTEP
8200
ITEM: NUMBER OF ATOMS
5600
ITEM: BOX BOUNDS xy xz yz pp pp pp
0	7.1235	0
0	201.985	2.3745
0	119.584	0
ITEM: ATOMS id type element xu yu zu q Q_1 Q_2 Q_3 Q_4 Q_5 Q_6 Q_7 Q_8 Q_9 Q_10 Q_11 Q_12 Q_13 Q_14 Q_15 Q_16 Q_17 Q_18 Q_19 Q_20 Q_21
1 1 Mg -1.68147 49.875 -0.434032 1.2 1 0.424319 0.0868108 0.12497 0.0456217 0.0619254 0.0473253 0.0401914 0.0485079 0.0729947 0.0741683 0.0875524 0.0748654 0.100814 0.0968339 0.0946902 0.10198 0.0995738 0.106263 0.0823976 0.0837824
2 1 Mg 2.9653 51.1028 2.78066 1.2 1 0.299545 0.128667 0.0513098 0.0538298 0.0426823 0.0547066 0.0522859 0.0551291 0.0653903 0.0663407 0.0631332 0.0580665 0.0816046 0.076493 0.0837076 0.104579 0.0850316 0.0763426 0.0907868 0.0878204
3 2 Si 0.807668 51.5306 0.772294 2.4 1 0.260416 0.133223 0.0311485 0.0543369 0.045603 0.0295981 0.0533513 0.0397235 0.0642809 0.065753 0.0775391 0.0620925 0.0589972 0.0741044 0.0822632 0.0696885 0.0680963 0.076894 0.100554 0.0775298
4 3 O 2.05413 50.5547 1.10938 -1.2 1 0.357964 0.114202 0.0787596 0.0679387 0.0450359 0.0616993 0.0527431 0.069754 0.0583767 0.0740491 0.0721985 0.0617 0.0811044 0.0732858 0.0907421 0.0746526 0.0874624 0.0738073 0.0637109 0.0725491
5 3 O -1.18675 54.1733 1.87255 -1.2 1 0.0945312 0.052422 0.0479088 0.019583 0.0280458 0.0266805 0.0344355 0.0440343 0.0663982 0.0486975 0.058219 0.0535109 0.0638699 0.068833 0.0799982 0.073027 0.0880552 0.0604212 0.0605424 0.0746503
6 3 O 0.0209002 50.8425 -0.421352 -1.2 1 0.335633 0.12811 0.0569818 0.0748249 0.0181916 0.0491178 0.0425889 0.0596128 0.0593141 0.0677921 0.0768234 0.0918453 0.0696898 0.0881298 0.0834622 0.0942407 0.075211 0.0803682 0.0828765 0.0813494
7 1 Mg -2.31832 59.8455 3.22678 1.2 1 0.0134491 0.01875 0.00772324 0.0307981 0.0078895 0.034436 0.0117818 0.0553275 0.0156887 0.0775115 0.0192908 0.0453883 0.0133388 0.0742678 0.0186053 0.0980369 0.0188077 0.120129 0.0193746 0.103203
8 3 O -0.0203044 51.4072 2.10179 -1.2 1 0.282863 0.12607 0.0456594 0.0475438 0.0395723 0.0332313 0.0704722 0.0496258 0.0693219 0.0844851 0.0717173 0.0617384 0.0592684 0.0592657 0.0921115 0.0746699 0.074413 0.0827326 0.0714225 0.0808869
9 1 Mg -2.31302 57.1176 4.7491 1.2 1 0.0127006 0.0108951 0.0299965 0.0274724 0.0158555 0.0249712 0.0260097 0.0233235 0.0535236 0.0580543 0.0598433 0.0510916 0.0513103 0.0616074 0.0551501 0.0783373 0.0783158 0.0919896 0.0627871 0.0910285
10 2 Si 0.384971 58.9038 4.69447 2.4 1 0.0201185 0.0128007 0.026896 0.0238926 0.0347595 0.0325395 0.0351531 0.0427764 0.0520697 0.0536809 0.0544964 0.0668434 0.0705617 0.0580209 0.0860167 0.0659742 0.0606557 0.0956483 0.0660909 0.0570909
11 3 O -1.16552 58.9948 4.73714 -1.2 1 0.033429 0.00637875 0.0127559 0.0297525 0.0285003 0.0298436 0.028189 0.0653198 0.0412827 0.0442725 0.0491638 0.0671008 0.0485443 0.0619293 0.067141 0.0676131 0.061579 0.0683857 0.0642486 0.0846386
12 3 O 1.6172 54.7376 4.88699 -1.2 1 0.0589174 0.0431934 0.0338671 0.0368308 0.0303702 0.0283769 0.0290505 0.0359915 0.0583977 0.0575274 0.0720113 0.0462289 0.0587259 0.0693163 0.0869311 0.0724346 0.0675085 0.0693288 0.0627947 0.0681423
13 3 O 1.06839 58.1688 3.50092 -1.2 1 0.0138229 0.00601809 0.0213186 0.0176547 0.0200894 0.020645 0.046057 0.0441292 0.0357303 0.0474108 0.0557784 0.0391199 0.0541469 0.0591954 0.0872979 0.0738268 0.0791548 0.0654239 0.0631162 0.0698682
14 3 O 1.09039 58.3106 6.04076 -1.2 1 0.0186077 0.022786 0.0257311 0.0156862 0.0205254 0.0213766 0.0464286 0.0347143 0.0468877 0.0404422 0.0520796 0.0429046 0.0576504 0.0553941 0.0825875 0.0650374 0.0815288 0.0629144 0.0650825 0.0776969
15 1 Mg 0.382287 53.7907 3.07565 1.2 1 0.111461 0.0722532 0.0317641 0.0198106 0.0278442 0.032545 0.0389936 0.0411223 0.0664495 0.0398283 0.0653878 0.0568339 0.0494365 0.0629028 0.0622251 0.0724266 0.0853279 0.0842576 0.0669301 0.0743108
16 1 Mg 0.731509 49.9361 3.21507 1.2 1 0.430929 0.0631848 0.0950507 0.0527437 0.0450765 0.0635157 0.0588891 0.0588912 0.0787251 0.0766521 0.0745001 0.0672932 0.064685 0.0649884 0.0885477 0.0935982 0.102147 0.098199 0.0789047 0.0854567
17 2 Si 2.37997 53.2822 4.79274 2.4 1 0.110584 0.0999403 0.0387851 0.0329254 0.0293558 0.0383725 0.0303567 0.0415066 0.0729682 0.0664919 0.0722838 0.0609813 0.0752121 0.072119 0.068427 0.0930757 0.078053 0.0935513 0.0692318 0.0681656
18 3 O -0.828587 53.4619 4.7868 -1.2 1 0.112166 0.0886697 0.0366442 0.0244717 0.0203458 0.0439708 0.0357486 0.0558137 0.0577185 0.0798391 0.0613007 0.0787773 0.0670259 0.0690835 0.0837046 0.074261 0.0793107 0.0669546 0.0915145 0.0597945
19 3 O 2.46387 49.3141 3.56785 -1.2 1 0.487467 0.0401708 0.123332 0.0432152 0.0913901 0.0456029 0.0698299 0.0807726 0.0889998 0.0711882 0.0910494 0.0810424 0.0817422 0.0920782 0.0930487 0.0995645 0.108889 0.126203 0.109907 0.0709022
20 3 O 1.92984 52.5553 3.47497 -1.2 1 0.1869 0.0978941 0.0255034 0.027993 0.0223006 0.0515768 0.0320108 0.0631021 0.0579821 0.0566671 0.0557734 0.0760598 0.0716975 0.0762875 0.0827564 0.0644205 0.0808409 0.071782 0.0669677 0.0795404
21 1 Mg 0.060438 54.7378 0.406092 1.2 1 0.0588586 0.0494984 0.0443149 0.0355338 0.0211418 0.0260417 0.0270175 0.0496751 0.0491106 0.0653534 0.044396 0.0529764 0.0427516 0.0625508 0.0631895 0.0823317 0.082142 0.0833288 0.0662154 0.077157
22 3 O 1.82446 52.2521 5.98051 -1.2 1 0.207448 0.10882 0.0254719 0.0466365 0.0380946 0.0348935 0.0431132 0.0576261 0.0574965 0.0601645 0.0674799 0.0830313 0.0639349 0.0856716 0.0658429 0.0647361 0.074006 0.0699771 0.056334 0.0764454
23 1 Mg 0.0160471 57.4368 1.88515 1.2 1 0.0135519 0.00879736 0.0151354 0.0263077 0.0125484 0.0306733 0.0306952 0.0329744 0.0415278 0.0538428 0.0588085 0.0551426 0.0607812 0.0654884 0.0652832 0.0818231 0.0722781 0.08143 0.0736065 0.086462
24 2 Si -1.94832 55.5544 1.95033 2.4 1 0.0158692 0.0225941 0.0328811 0.0359123 0.0177596 0.036429 0.0437916 0.0510457 0.0495868 0.0611758 0.0547528 0.0546837 0.0695848 0.0482245 0.0529917 0.067782 0.0796709 0.0657371 0.0666665 0.0526998
25 3 O 1.22666 55.417 1.93528 -1.2 1 0.0259423 0.0356551 0.0356643 0.0230295 0.0156936 0.0345161 0.0245626 0.049062 0.049177 0.0537434 0.0538152 0.0588761 0.0504159 0.0751792 0.0730325 0.0613996 0.0696538 0.0637916 0.0567442 0.0626478
26 3 O -0.945866 59.3252 1.86247 -1.2 1 0.0180618 0.0143424 0.0207118 0.0226782 0.0191797 0.0308631 0.0324016 0.0453894 0.0522556 0.0451079 0.0397416 0.046678 0.0513278 0.0744393 0.0970319 0.0713685 0.0735841 0.0532439 0.0778143 0.0686136
27 3 O -1.30812 56.278 0.654762 -1.2 1 0.0139053 0.0163069 0.0207064 0.0340251 0.0238833 0.029301 0.048637 0.041308 0.0339894 0.0423252 0.0645127 0.0376733 0.0612013 0.0597549 0.0752244 0.0718181 0.0677738 0.0653733 0.0811714 0.066907
28 3 O -1.36034 56.3481 3.14941 -1.2 1 0.0335798 0.0271774 0.0200687 0.017287 0.0267895 0.0259447 0.0446579 0.0363326 0.042848 0.0477287 0.0633985 0.0494411 0.044292 0.0623144 0.0722361 0.0746494 0.0570885 0.0700187 0.0635677 0.0839666
29 1 Mg -2.38255 59.8351 0.281095 1.2 1 0.0107719 0.0138255 0.00559082 0.0279398 0.00541108 0.033282 0.00848374 0.0562007 0.0109137 0.0836675 0.0118434 0.0493679 0.0179594 0.0668051 0.0146979 0.101174 0.0169239 0.115109 0.0215675 0.100781
30 1 Mg 2.32103 62.6711 1.7114 1.2 1 0.0127955 0.0124177 0.0220569 0.0270799 0.0180377 0.019121 0.020563 0.0277118 0.0434788 0.0574308 0.051185 0.0549086 0.057789 0.0588317 0.0557591 0.0785837 0.0765138 0.0942185 0.0713974 0.0871957
31 2 Si -0.320732 60.8467 1.78135 2.4 1 0.030709 0.0139757 0.0091262 0.0292685 0.0296564 0.0262215 0.0374169 0.0424913 0.051779 0.0556045 0.0520111 0.0643664 0.0719457 0.0521635 0.0727994 0.0742674 0.0585817 0.0898496 0.0544715 0.0591705
32 3 O 1.20644 60.7189 1.76905 -1.2 1 0.0221752 0.018832 0.0199866 0.033667 0.0246213 0.0210934 0.0248343 0.070596 0.0391789 0.0448755 0.0439428 0.0713105 0.0520211 0.0637278 0.0723983 0.0677191 0.0526509 0.0740232 0.0593919 0.0798752
33 3 O -1.3253 64.505 1.67824 -1.2 1 0.0245455 0.018918 0.0216972 0.0129348 0.0225647 0.0358941 0.0295695 0.0449451 0.0524262 0.0435267 0.0385679 0.049528 0.048266 0.0634119 0.102429 0.0678339 0.0690314 0.0501621 0.0738903 0.062796
34 3 O -0.997846 61.4491 0.47057 -1.2 1 0.00839795 0.00973883 0.0308513 0.0156958 0.0188242 0.0181323 0.04382 0.043174 0.0379841 0.0466541 0.0516275 0.0416769 0.0513078 0.0602387 0.0837932 0.0723603 0.0779036 0.0551462 0.065919 0.0765855
35 1 Mg -2.40385 70.1183 3.19021 1.2 1 0.00587744 0.0160049 0.00738938 0.0347949 0.00458789 0.0387995 0.00709893 0.061276 0.00840021 0.0865014 0.0107588 0.0552156 0.0118599 0.0711764 0.0153581 0.106468 0.0151527 0.109719 0.0187322 0.0991446
36 3 O -1.01803 61.5622 3.03066 -1.2 1 0.019035 0.00903691 0.024681 0.0186018 0.0223024 0.0255302 0.0409589 0.0397374 0.0380827 0.0501498 0.0535895 0.0391646 0.0515848 0.0530331 0.0828842 0.0693612 0.0738073 0.061772 0.0646366 0.0713978
37 1 Mg -2.16469 67.2625 4.65899 1.2 1 0.0217796 0.0145681 0.0213447 0.033254 0.0132923 0.0224121 0.016669 0.034635 0.0371962 0.0559889 0.0619639 0.0563307 0.0573845 0.0583827 0.0608113 0.0781333 0.0776621 0.0913522 0.0817268 0.0706707
38 2 Si 0.372014 69.1282 4.69894 2.4 1 0.0211095 0.0141525 0.0181499 0.035053 0.027692 0.029735 0.0437272 0.0412751 0.0457215 0.0574211 0.0512873 0.0656595 0.0712303 0.0555896 0.078908 0.0716825 0.0596463 0.0894719 0.0560369 0.0602934
39 3 O -1.18545 69.1676 4.68317 -1.2 1 0.0232981 0.00485155 0.0113839 0.0275091 0.0281341 0.023766 0.0213265 0.074232 0.0345235 0.0596125 0.0405785 0.068251 0.0540968 0.0633154 0.070976 0.064851 0.052888 0.0737649 0.0648042 0.0697837
40 3 O 1.39168 65.5177 4.69765 -1.2 1 0.0135449 0.0199908 0.0253695 0.0110418 0.0230636 0.0338899 0.0292411 0.0436444 0.0508541 0.0473272 0.0375133 0.0430095 0.050203 0.0685043 0.102835 0.0673088 0.0676852 0.0580384 0.0723188 0.0701745
41 3 O 1.01399 68.4897 3.41926 -1.2 1 0.00941582 0.0111658 0.0303622 0.018626 0.0213584 0.0245623 0.0445978 0.039439 0.032641 0.0470206 0.0539316 0.0406541 0.0539447 0.056914 0.0824301 0.0690939 0.0727001 0.0597429 0.0705638 0.0717324
42 3 O 1.04643 68.4376 6.00188 -1.2 1 0.022321 0.0119157 0.0214351 0.0162113 0.0184841 0.0207542 0.0438319 0.0392872 0.0373842 0.0488537 0.0531868 0.0403594 0.0509548 0.0576088 0.0827947 0.067481 0.0681929 0.060996 0.0635126 0.0717123
43 1 Mg -0.00856386 65.0132 3.24659 1.2 1 0.00554054 0.0158932 0.00662479 0.0332003 0.009623 0.0370868 0.00809943 0.0559233 0.0115734 0.0831103 0.0107627 0.0500354 0.0176851 0.067608 0.0129987 0.102789 0.0189985 0.115314 0.0239371 0.101669
44 1 Mg -0.020299 62.2097 4.70244 1.2 1 0.0131275 0.0197226 0.0205044 0.0320836 0.0189142 0.0160828 0.0215943 0.0240193 0.04456 0.0625101 0.0519131 0.0578752 0.0616301 0.0647313 0.0525551 0.083431 0.0654416 0.109805 0.064156 0.0894885
45 2 Si 2.04056 64.0057 4.66925 2.4 1 0.0287797 0.00941685 0.0151509 0.0305115 0.0283055 0.0271561 0.0464072 0.0422822 0.0470037 0.0549521 0.0535145 0.0618118 0.0715581 0.056391 0.0756869 0.0694301 0.059345 0.0960506 0.0562502 0.0566355
46 3 O -1.18329 64.1137 4.72272 -1.2 1 0.0173397 0.00873278 0.016222 0.0297278 0.0232173 0.0214804 0.0265652 0.0633683 0.0433956 0.0470353 0.0495133 0.0697103 0.0476228 0.0634073 0.069439 0.0652198 0.0586849 0.0720226 0.0604157 0.0794344
47 3 O 1.13572 60.4097 4.61655 -1.2 1 0.00878286 0.0133774 0.0236111 0.013799 0.0207843 0.0367948 0.0333544 0.0446966 0.0452707 0.0478247 0.037325 0.0512904 0.0454303 0.0643762 0.0997693 0.0657485 0.070495 0.0615941 0.0671307 0.0712171
48 3 O 1.38109 63.3904 3.36702 -1.2 1 0.00508318 0.0113193 0.0281881 0.0212734 0.0193012 0.0216881 0.0498137 0.0395719 0.0348944 0.0429981 0.0532868 0.0409153 0.0509408 0.0638985 0.0818456 0.0723886 0.0740424 0.0574488 0.0648598 0.0766529
49 1 Mg 0.0241941 64.8937 0.269019 1.2 1 0.0140915 0.0130865 0.00769603 0.0326392 0.0110833 0.0332573 0.0101166 0.0579645 0.0172745 0.083443 0.0153136 0.0508864 0.0200071 0.0678308 0.0147621 0.101679 0.0262319 0.113031 0.0365035 0.0942072
50 3 O 1.31085 63.2679 5.92344 -1.2 1 0.0147466 0.0103228 0.0258259 0.0184218 0.023392 0.0167682 0.0391142 0.0415588 0.0362019 0.0482597 0.0525442 0.0414907 0.0548125 0.0526546 0.0879299 0.06805 0.0721929 0.0643364 0.0666512 0.0682495
51 1 Mg 0.078046 67.819 1.75241 1.2 1 0.0128038 0.00975289 0.0173104 0.0274537 0.0149793 0.0190917 0.0209333 0.0292819 0.0425655 0.0638552 0.0530442 0.0559553 0.0595864 0.0662861 0.0576543 0.0793813 0.0718668 0.0997603 0.0718709 0.0845372
52 2 Si -2.03116 65.9467 1.59396 2.4 1 0.0168868 0.0118761 0.0240673 0.0333718 0.0304806 0.0282556 0.0412045 0.0406948 0.0482744 0.0539807 0.0527963 0.061159 0.0739983 0.0558994 0.0820245 0.0673693 0.0630338 0.0912347 0.0573292 0.0535632
53 3 O 1.18084 65.892 1.64434 -1.2 1 0.02492 0.0130121 0.0126581 0.0259246 0.0193472 0.0234289 0.0236207 0.0605432 0.0344352 0.0439134 0.0398091 0.0667746 0.0526893 0.0669274 0.0666857 0.0645107 0.0549911 0.072554 0.0576697 0.0775866
54 3 O -0.945209 69.699 1.62101 -1.2 1 0.0180962 0.023592 0.0196616 0.0250956 0.0156259 0.0361337 0.0309749 0.0412475 0.0591697 0.0426468 0.0474446 0.0441172 0.0513791 0.0697656 0.103111 0.072447 0.0667257 0.0495035 0.0724913 0.061526
55 3 O -1.38096 66.6542 0.349694 -1.2 1 0.00178706 0.0263605 0.0227012 0.0176085 0.0133547 0.020331 0.0425659 0.0420503 0.0337735 0.0430955 0.0588528 0.0334346 0.0534279 0.0536967 0.0807105 0.0698895 0.0718406 0.0631424 0.0645384 0.0728866
56 3 O -1.34795 66.6409 2.90532 -1.2 1 0.00889816 0.0120992 0.0262455 0.0206134 0.0183929 0.0191092 0.0427475 0.0386042 0.0332899 0.0433046 0.0515502 0.0408857 0.0540483 0.059588 0.0818761 0.0642443 0.0804454 0.0613406 0.0722535 0.0638593
57 1 Mg -2.34652 70.1422 0.289187 1.2 1 0.00646867 0.0204784 0.0123056 0.0337667 0.00740182 0.0337516 0.00745599 0.0585459 0.00991894 0.0825401 0.0122886 0.0500603 0.0134855 0.0747634 0.0182115 0.104803 0.0172652 0.116853 0.0244616 0.0966081
58 1 Mg 2.25361 73.0764 1.63535 1.2 1 0.0182391 0.0155956 0.0169258 0.0288551 0.0121991 0.0195586 0.0219082 0.0322598 0.035379 0.0580126 0.0546958 0.0616175 0.0600247 0.0564864 0.0663127 0.0701649 0.0841872 0.0884243 0.0780232 0.0654535
59 2 Si -0.266384 71.183 1.72569 2.4 1 0.0214538 0.0164302 0.0145345 0.0294363 0.0273003 0.0285696 0.043407 0.0413205 0.0450497 0.0610252 0.0550707 0.0633723 0.0705202 0.0534584 0.0778844 0.0715271 0.0585123 0.0932651 0.0567851 0.059347
60 3 O 1.29583 71.0841 1.6932 -1.2 1 0.0169008 0.0153244 0.00529264 0.0244195 0.0193078 0.0231765 0.0221689 0.0659439 0.0314726 0.0528291 0.0408782 0.0638445 0.0512914 0.0625676 0.0662122 0.0629892 0.0514714 0.0769559 0.0606194 0.0799748
61 3 O -1.36735 74.8335 1.68762 -1.2 1 0.0176605 0.0200058 0.0248531 0.01426 0.0204144 0.0360986 0.0309083 0.0439712 0.0559885 0.0423161 0.0414142 0.0437096 0.0521214 0.0667383 0.104201 0.0756834 0.0672833 0.0504986 0.0740083 0.0640657
62 3 O -1.00738 71.8836 0.474068 -1.2 1 0.0117725 0.0152533 0.0197373 0.0187652 0.0207193 0.0228204 0.0454691 0.041076 0.0367846 0.0495538 0.05234 0.0385451 0.0517403 0.0570687 0.0805811 0.072944 0.0726278 0.062731 0.0651772 0.0653191
63 1 Mg -2.30741 80.3776 3.19502 1.2 1 0.00414109 0.0183575 0.00905012 0.0322716 0.00642986 0.0339143 0.00961062 0.0603347 0.00943739 0.0832941 0.0114954 0.0513267 0.013018 0.0700341 0.0157525 0.106905 0.0185005 0.114159 0.0207521 0.0986925
64 3 O -0.893814 71.7483 3.07141 -1.2 1 0.0113096 0.0137759 0.0280435 0.0187506 0.0189912 0.0224742 0.0432553 0.0471904 0.0369374 0.0530295 0.0507758 0.0401428 0.0531478 0.0672392 0.0763002 0.0715975 0.0742865 0.0547091 0.0651278 0.0725012
65 1 Mg -2.22833 77.5012 4.68295 1.2 1 0.0227996 0.0189273 0.0179192 0.0277913 0.01213 0.0200919 0.0244905 0.0337862 0.0356587 0.0552071 0.0537076 0.0582355 0.0616547 0.0593588 0.0622016 0.071513 0.080947 0.0971215 0.0735553 0.0742733
66 2 Si 0.441115 79.3857 4.70366 2.4 1 0.0215351 0.0131013 0.0199364 0.0327847 0.0268203 0.0293806 0.0433534 0.0414799 0.0492715 0.0529003 0.0520105 0.0639465 0.0717472 0.0564566 0.0753533 0.0706636 0.0556704 0.0962602 0.0570951 0.0537425
67 3 O -1.1295 79.438 4.66066 -1.2 1 0.0197165 0.00736405 0.0117761 0.0235919 0.0298135 0.0213375 0.0215336 0.0727875 0.0370205 0.0561751 0.0430775 0.0713716 0.0552624 0.0642447 0.0683784 0.0665174 0.0518835 0.0716312 0.0667235 0.0674819
68 3 O 1.44758 75.7323 4.69301 -1.2 1 0.0215037 0.0189493 0.0260888 0.0145695 0.0185339 0.0360969 0.032243 0.0446956 0.0563893 0.0407371 0.0404474 0.0459052 0.0507656 0.0648799 0.104816 0.0675664 0.0663395 0.0489881 0.0757403 0.0640939
69 3 O 1.1045 78.6995 3.38721 -1.2 1 0.0149282 0.0206724 0.0198731 0.0201214 0.018506 0.0171299 0.0430697 0.0380933 0.0371619 0.0445135 0.053697 0.040667 0.0544798 0.0527716 0.0885164 0.0681624 0.0744587 0.0618038 0.0684364 0.0703874
70 3 O 1.13192 78.7098 5.92697 -1.2 1 0.014591 0.0079604 0.0284296 0.0180064 0.0239296 0.0216974 0.0472246 0.0394992 0.0346752 0.0469556 0.0564104 0.0386435 0.054594 0.0592452 0.0825894 0.0706293 0.072446 0.0642674 0.0664565 0.067521
71 1 Mg 0.00540212 75.2971 3.21171 1.2 1 0.00448005 0.0148412 0.0045758 0.0305597 0.00440897 0.0360498 0.00526882 0.0578193 0.00756676 0.0878169 0.00813095 0.0549933 0.0104387 0.0704187 0.0131839 0.100429 0.0113456 0.113515 0.0147647 0.103438
72 1 Mg -0.0357565 72.463 4.80578 1.2 1 0.0101697 0.00945672 0.0181672 0.0266593 0.0142883 0.0192886 0.0206394 0.0287397 0.0422418 0.0613082 0.0579972 0.0563812 0.0569033 0.0634264 0.0580374 0.0815399 0.0713995 0.0978051 0.0757193 0.0830244
73 2 Si 2.12739 74.2728 4.70201 2.4 1 0.0201602 0.0111853 0.0160112 0.0292613 0.0275644 0.0305595 0.04124 0.0420104 0.0462818 0.0547147 0.0543283 0.0609258 0.0708266 0.0560513 0.0767698 0.0733028 0.0578161 0.0933752 0.0556676 0.0591007
74 3 O -1.09517 74.3022 4.75312 -1.2 1 0.0098996 0.00666186 0.0136526 0.0272872 0.0239826 0.0254149 0.0230201 0.0681263 0.0395272 0.0546621 0.0433776 0.068431 0.0531179 0.0637116 0.0652203 0.0642333 0.054756 0.068923 0.0650684 0.0714129
75 3 O 1.0501 70.5773 4.72254 -1.2 1 0.00393257 0.0172375 0.0246726 0.0150708 0.0155116 0.0374158 0.0364444 0.0453017 0.0543939 0.0415629 0.0468315 0.0436792 0.0493748 0.0709667 0.106762 0.0749873 0.0695812 0.0480233 0.0745044 0.0633736
76 3 O 1.43712 73.5927 3.45565 -1.2 1 0.00503586 0.0101282 0.021525 0.0213013 0.0181737 0.0185414 0.0428455 0.0446542 0.0308209 0.0469011 0.0506982 0.0373139 0.0531252 0.0614988 0.0810129 0.07328 0.0781938 0.0639871 0.0676567 0.0664075
77 1 Mg -0.0231624 75.3357 0.182483 1.2 1 0.00595266 0.0166962 0.0132862 0.0332834 0.00872333 0.0351115 0.0108542 0.0580295 0.0136681 0.0792017 0.0145827 0.0546101 0.0138334 0.0671505 0.0152355 0.106923 0.0209854 0.11545 0.0237351 0.097703
78 3 O 1.42489 73.6248 6.0053 -1.2 1 0.0120621 0.00633572 0.0327317 0.0130494 0.0137398 0.0210763 0.0409359 0.0406338 0.0349752 0.0443862 0.0529964 0.0366032 0.0542156 0.0549342 0.0799145 0.0736352 0.0731369 0.0619159 0.065123 0.0728746
79 1 Mg 0.106219 78.1024 1.66757 1.2 1 0.00679317 0.0161438 0.0183074 0.0251446 0.0124727 0.0211998 0.0158766 0.0300405 0.0401323 0.0669034 0.053644 0.0558119 0.0631556 0.067052 0.0568039 0.0784808 0.0719456 0.105426 0.0679992 0.081525
80 2 Si -2.02926 76.3359 1.68142 2.4 1 0.0236055 0.0193941 0.0144788 0.026332 0.0235988 0.0264504 0.041406 0.0409672 0.0433601 0.058682 0.0548169 0.0646409 0.0664593 0.0539397 0.0767937 0.0734561 0.0568576 0.0943622 0.0561115 0.0608403
81 3 O 1.17629 76.228 1.70929 -1.2 1 0.0206104 0.0121664 0.00921471 0.0277504 0.0209359 0.0190795 0.0193493 0.0676792 0.037407 0.0500861 0.042157 0.0680307 0.0500583 0.0616524 0.0710421 0.0687082 0.0544571 0.0722308 0.0625786 0.0730586
82 3 O -1.0243 79.8919 1.64188 -1.2 1 0.0162699 0.0170882 0.0265555 0.0148572 0.0194251 0.0358896 0.0309551 0.0441365 0.0527669 0.0438877 0.0371929 0.0497313 0.0466263 0.0615402 0.108911 0.0645925 0.0721579 0.0535626 0.0697895 0.0657334
83 3 O -1.39093 76.9884 0.387679 -1.2 1 0.0122996 0.00925749 0.0318513 0.0171433 0.020798 0.0215694 0.0406775 0.0410298 0.0364252 0.0513101 0.0529115 0.033002 0.0516008 0.0605529 0.0781242 0.0743987 0.0692988 0.0609379 0.0646777 0.0685573
84 3 O -1.3009 76.9033 2.98709 -1.2 1 0.00719958 0.0110091 0.0309934 0.0198089 0.0144808 0.0200401 0.0447073 0.0380025 0.0330796 0.0434392 0.0504446 0.0398255 0.0528237 0.0607482 0.0831384 0.0645786 0.0771276 0.0592547 0.0689018 0.068669
85 1 Mg -2.3325 80.3623 0.190449 1.2 1 0.00757836 0.0135192 0.01034 0.0318735 0.00845445 0.0353299 0.0101254 0.0576305 0.0114208 0.0836312 0.00900411 0.0523861 0.0126161 0.0707718 0.0125188 0.103056 0.0163121 0.112645 0.0210007 0.0986535
86 1 Mg 2.32575 83.295 1.51489 1.2 1 0.0163833 0.013122 0.0173016 0.0247043 0.0109157 0.018805 0.0263974 0.0337916 0.0412373 0.0619689 0.0581747 0.0588788 0.0596501 0.0608576 0.0646895 0.0725241 0.0744049 0.0974309 0.0732853 0.0762206
87 2 Si -0.28342 81.3647 1.65027 2.4 1 0.0166249 0.0152344 0.0188794 0.03175 0.0274052 0.0309845 0.0436399 0.0412715 0.0474751 0.0530186 0.0541251 0.0650151 0.0731694 0.0592144 0.0810661 0.0714227 0.0583724 0.0936399 0.0556806 0.055818
88 3 O 1.28226 81.2703 1.64553 -1.2 1 0.0331348 0.00609327 0.0099857 0.0236097 0.016889 0.0244382 0.0235552 0.0642823 0.0407959 0.0517389 0.0415106 0.0687425 0.0470639 0.0668819 0.0761742 0.0667831 0.0594816 0.0734222 0.0533521 0.0777789
89 3 O -1.27545 85.0355 1.52358 -1.2 1 0.00612519 0.0200166 0.0262542 0.0135018 0.0202745 0.0339857 0.0310048 0.0451829 0.0517883 0.044926 0.0389573 0.047242 0.0452772 0.0686106 0.104312 0.0692659 0.0714066 0.056047 0.0699882 0.0653293
90 3 O -0.930407 81.9786 0.33769 -1.2 1 0.0228239 0.0115179 0.0278048 0.0237114 0.0229421 0.0195257 0.0462732 0.0420454 0.0369886 0.0398041 0.0534071 0.0412614 0.0518516 0.066283 0.0825219 0.070878 0.0794351 0.0544927 0.0683511 0.0699833
91 1 Mg -2.29339 90.7122 2.98546 1.2 1 0.00533523 0.0221899 0.00479327 0.0341211 0.00585848 0.0342915 0.00633669 0.0598789 0.00781958 0.0834375 0.00808183 0.0521553 0.00726489 0.0714581 0.00761528 0.105491 0.00917695 0.117727 0.0135297 0.0994661
92 3 O -0.953906 82.102 2.93321 -1.2 1 0.0101285 0.02067 0.031205 0.0212063 0.0118238 0.0223926 0.0432653 0.0407837 0.0311066 0.0465244 0.0544094 0.0397937 0.0526126 0.053299 0.0884641 0.0731561 0.0748362 0.0610365 0.0614906 0.0735096
93 1 Mg -2.2467 87.9193 4.48453 1.2 1 0.00439429 0.0124058 0.0181779 0.0292494 0.0205155 0.022713 0.0206879 0.0273669 0.0412477 0.0683563 0.0525672 0.0553682 0.0620228 0.070383 0.0579292 0.0824915 0.0675219 0.104739 0.0689107 0.088738
94 2 Si 0.399844 89.711 4.48885 2.4 1 0.0250428 0.014655 0.0143466 0.0280651 0.0279777 0.027377 0.044873 0.0389758 0.0443124 0.0529711 0.0530114 0.068571 0.0669139 0.0582787 0.0780601 0.0690205 0.057531 0.092612 0.0581437 0.0575831
95 3 O -1.16054 89.8216 4.4632 -1.2 1 0.0293173 0.0120915 0.0132958 0.0247693 0.0146567 0.025851 0.0214854 0.0655802 0.040812 0.0523436 0.038681 0.0676231 0.0487227 0.0627966 0.0688789 0.0662679 0.0564612 0.0737246 0.0563704 0.0779538
96 3 O 1.50226 86.0784 4.5366 -1.2 1 0.0116696 0.0177653 0.0255774 0.0150792 0.0193883 0.0353025 0.029181 0.0444115 0.0558299 0.0417599 0.0410857 0.0473331 0.0484865 0.0685036 0.103952 0.0697286 0.0692344 0.0500119 0.0728401 0.0680982
97 3 O 1.11154 89.1185 3.23036 -1.2 1 0.00952829 0.00757597 0.0281014 0.0246893 0.0196529 0.0183916 0.0460592 0.0375699 0.0319657 0.0399331 0.0511137 0.0419741 0.0512165 0.0589252 0.083934 0.0666611 0.0822317 0.0573071 0.0683589 0.0728027
98 3 O 1.06781 89.0397 5.79046 -1.2 1 0.0107562 0.00729671 0.0262774 0.0193619 0.020966 0.0207762 0.0427436 0.042305 0.0342744 0.0512843 0.0502369 0.040444 0.0524331 0.0634235 0.0799831 0.0714923 0.0760778 0.0609911 0.0665359 0.0682003
99 1 Mg 0.142952 85.6041 3.07345 1.2 1 0.00912284 0.0179982 0.00511488 0.0312693 0.00583031 0.0350345 0.0072052 0.0606979 0.00915528 0.0868321 0.00891703 0.0521229 0.0122867 0.0737749 0.0105587 0.101128 0.0132894 0.115387 0.0172898 0.10081
100 1 Mg 0.0538275 82.6999 4.64018 1.2 1 0.022218 0.0116032 0.0147035 0.0276605 0.0110679 0.018178 0.0252474 0.0315868 0.041143 0.0585783 0.0533773 0.0609298 0.0579342 0.0617886 0.0626525 0.0701766 0.0736104 0.106267 0.0707545 0.0853793
101 2 Si 2.17109 84.5488 4.53756 2.4 1 0.0174861 0.0100144 0.0199175 0.0308911 0.0275824 0.0298889 0.0428555 0.039929 0.0481986 0.0536197 0.0519665 0.0614019 0.0734281 0.0550121 0.0769993 0.0693091 0.0589046 0.0880168 0.0590591 0.0569031
102 3 O -1.03212 84.6768 4.55635 -1.2 1 0.029944 0.0122314 0.00914017 0.0232225 0.0176921 0.028071 0.0253587 0.0694307 0.0409265 0.0556074 0.0357967 0.0664851 0.052218 0.0626627 0.0699249 0.0630577 0.0583764 0.0724148 0.0537164 0.0728321
103 3 O 1.13864 80.8813 4.64518 -1.2 1 0.0139515 0.0232367 0.0270503 0.0155485 0.0195921 0.0326394 0.0305809 0.0443262 0.0512753 0.0424368 0.040072 0.0512684 0.0472466 0.0657496 0.106523 0.0676467 0.0740734 0.0467619 0.0730722 0.0638394
104 3 O 1.47186 83.8793 3.24186 -1.2 1 0.00729775 0.0113343 0.0287362 0.0157217 0.022047 0.0192633 0.0431612 0.0447123 0.0358003 0.0474281 0.0536333 0.0379453 0.052645 0.0580091 0.0854719 0.0725389 0.0761563 0.0614015 0.0606667 0.0717455
105 1 Mg 0.112838 85.6685 -0.00883254 1.2 1 0.0146325 0.0154969 0.00762946 0.0327542 0.00935999 0.0339622 0.00906306 0.0594293 0.0185661 0.0779304 0.015081 0.0483916 0.013228 0.0729358 0.0219051 0.106523 0.0251962 0.113937 0.0386013 0.0933179
106 3 O 1.45679 83.8974 5.80509 -1.2 1 0.00631847 0.0107767 0.0312606 0.0180944 0.0213311 0.0177316 0.045594 0.0388072 0.0358447 0.0469473 0.0506699 0.0391284 0.053452 0.0605965 0.0835431 0.0679342 0.071953 0.060378 0.0696792 0.0629527
107 1 Mg 0.249332 88.4772 1.47491 1.2 1 0.0310195 0.0149541 0.0166394 0.031307 0.0209726 0.018549 0.023915 0.0326689 0.0372579 0.0599904 0.0553263 0.0595953 0.0586693 0.0583805 0.0625856 0.0700123 0.07921 0.0920327 0.0813057 0.0701983
108 2 Si -1.93951 86.5426 1.56622 2.4 1 0.0173545 0.014065 0.0200887 0.0332627 0.0298068 0.029057 0.0428067 0.0406649 0.0484651 0.0523719 0.0494829 0.0700981 0.070474 0.0594802 0.0783612 0.06754 0.0576544 0.0944955 0.0531189 0.0594252
109 3 O 1.239 86.5012 1.54319 -1.2 1 0.0278521 0.00550799 0.0160824 0.024047 0.0242411 0.0227635 0.0226417 0.0708396 0.0361122 0.0543603 0.043417 0.0723441 0.0505661 0.0655988 0.0710842 0.0639854 0.0546038 0.0724428 0.0604941 0.0759752
110 3 O -0.912755 90.2619 1.5259 -1.2 1 0.0129372 0.0211594 0.028481 0.0134272 0.0188884 0.0358865 0.0329398 0.0463821 0.0563757 0.0429824 0.0418269 0.04261 0.0495616 0.067748 0.105702 0.0687642 0.0680043 0.0485136 0.0762889 0.0618933
111 3 O -1.31913 87.2339 0.284976 -1.2 1 0.0111985 0.00998571 0.0236739 0.022627 0.0238622 0.0208777 0.0430776 0.0388717 0.0367675 0.0503546 0.0496515 0.0433321 0.0561958 0.0594492 0.0776915 0.0682749 0.0749255 0.0589446 0.0681248 0.0713834
112 3 O -1.3077 87.2154 2.82457 -1.2 1 0.0048606 0.0147028 0.0328915 0.0173172 0.0150845 0.0188936 0.0424929 0.0434458 0.034521 0.0459978 0.0502682 0.0398226 0.051201 0.0633758 0.0803464 0.0666828 0.0789552 0.0577247 0.0680712 0.073693
113 1 Mg -2.33774 90.8219 -0.044887 1.2 1 0.0105936 0.0188385 0.00551978 0.030667 0.00763134 0.0311591 0.00855267 0.0573454 0.015681 0.0810295 0.0140187 0.0510937 0.0147242 0.0699557 0.016857 0.104936 0.0254865 0.11369 0.0333254 0.094124
114 1 Mg 2.41836 93.6154 1.49439 1.2 1 0.0128535 0.0128734 0.013438 0.026398 0.0128171 0.0133632 0.0219327 0.0271267 0.0407728 0.0628407 0.0525042 0.0587571 0.0582355 0.0632698 0.0603628 0.0660104 0.073614 0.108688 0.0699932 0.0834808
115 2 Si -0.242418 91.7496 1.48752 2.4 1 0.0239034 0.0141621 0.0146489 0.0273811 0.0275495 0.0286392 0.0402841 0.0394316 0.044935 0.0561567 0.0533916 0.0629546 0.0705727 0.0579954 0.0744751 0.071777 0.0586129 0.0949512 0.0561087 0.0587643
116 3 O 1.32981 91.6579 1.45729 -1.2 1 0.0109282 0.00895797 0.0187081 0.0286205 0.0237165 0.0237083 0.0212541 0.0647432 0.036893 0.0524357 0.0425426 0.0687463 0.0512916 0.0603565 0.0682509 0.0654952 0.0538065 0.0733282 0.0657694 0.0746319
117 3 O -1.33047 95.3944 1.46272 -1.2 1 0.017528 0.0213177 0.0232198 0.0107608 0.0189926 0.0332523 0.0300676 0.0446442 0.05395 0.0438766 0.0400164 0.045343 0.0499254 0.0676173 0.103541 0.0699408 0.0678627 0.0481168 0.0723227 0.0669971
118 3 O -0.931782 92.3639 0.200637 -1.2 1 0.00459683 0.0101802 0.0281724 0.0200305 0.0159126 0.0216446 0.0436081 0.038727 0.0329437 0.0465583 0.0512137 0.0393406 0.0499768 0.0655382 0.0744528 0.0701282 0.0742342 0.0611707 0.0659508 0.0690473
119 1 Mg -2.29409 100.944 2.88884 1.2 1 0.00791143 0.0134662 0.0096147 0.0308555 0.00857233 0.0330053 0.00942014 0.0578435 0.0145992 0.0835281 0.0101805 0.05054 0.0139156 0.0703487 0.0146208 0.103698 0.0230849 0.112389 0.0305715 0.100852
120 3 O -1.01741 92.4268 2.71342 -1.2 1 0.0133002 0.00754219 0.0229982 0.019567 0.0190733 0.0241784 0.0406666 0.0353964 0.0322519 0.0447611 0.0541025 0.038677 0.0524712 0.0503266 0.0861792 0.0680138 0.0783269 0.0660907 0.066892 0.0689471
121 1 Mg -2.22041 98.0915 4.52648 1.2 1 0.0254626 0.0172903 0.0170885 0.0274752 0.0114836 0.0196279 0.0232165 0.0332851 0.0383461 0.0568417 0.0528835 0.0589986 0.0595183 0.060399 0.0624103 0.0695892 0.0791115 0.0986777 0.0770252 0.0788431
122 2 Si 0.330913 99.9704 4.50772 2.4 1 0.0216849 0.0157479 0.013552 0.0298735 0.0261801 0.0270158 0.0445206 0.0387958 0.0435998 0.0604617 0.0556822 0.0629825 0.0691494 0.0524061 0.0796598 0.0698294 0.0587892 0.093189 0.0560583 0.062885
123 3 O -1.21372 99.9994 4.46105 -1.2 1 0.0198641 0.012001 0.00940714 0.020497 0.0229503 0.0240811 0.020957 0.0722892 0.0350024 0.0598626 0.0401393 0.0675886 0.0514915 0.0604144 0.0685131 0.0653491 0.054917 0.066741 0.0645874 0.0700004
124 3 O 1.39002 96.3026 4.46607 -1.2 1 0.0106403 0.0165337 0.0258312 0.0144434 0.0161292 0.0357249 0.0364685 0.0460303 0.0545888 0.0430145 0.0409394 0.0466814 0.0494599 0.0650222 0.108075 0.0724755 0.0659853 0.0507637 0.0765271 0.0592244
125 3 O 1.04016 99.2955 3.18388 -1.2 1 0.0128335 0.00881505 0.0247911 0.0187393 0.0198573 0.0198083 0.0432822 0.0426742 0.0325216 0.0491769 0.052005 0.0397741 0.054888 0.0616917 0.080134 0.0712431 0.0710504 0.061432 0.0663058 0.0690868