ITEM: TIMESTEP
20600
ITEM: NUMBER OF ATOMS
5600
ITEM: BOX BOUNDS xy xz yz pp pp pp
0	7.1235	0
0	201.985	2.3745
0	119.584	0
ITEM: ATOMS id type element xu yu zu q Q_1 Q_2 Q_3 Q_4 Q_5 Q_6 Q_7 Q_8 Q_9 Q_10 Q_11 Q_12 Q_13 Q_14 Q_15 Q_16 Q_17 Q_18 Q_19 Q_20 Q_21
1 1 Mg -1.71428 49.5704 -0.740163 1.2 1 0.446341 0.0681579 0.135947 0.0374249 0.0767758 0.0396645 0.0448436 0.0476697 0.0628312 0.0683916 0.0841697 0.0809277 0.0902939 0.106327 0.10094 0.112853 0.0898349 0.0974837 0.0984194 0.102376
2 1 Mg 3.02711 51.0109 2.41374 1.2 1 0.301249 0.124991 0.0441826 0.0516932 0.0442562 0.0444938 0.0669958 0.0582027 0.0560821 0.0731761 0.068609 0.0685524 0.0713032 0.0617743 0.0925231 0.0866516 0.0876553 0.089554 0.0769847 0.0983461
3 2 Si 0.794231 51.3178 0.48476 2.4 1 0.267272 0.138761 0.0384354 0.0458164 0.0443374 0.0344952 0.0597105 0.0480355 0.0851411 0.0690971 0.0770068 0.0589422 0.0729894 0.0779586 0.0923772 0.0695848 0.0840522 0.0767299 0.0917688 0.0877531
4 3 O 2.17383 50.4187 0.761293 -1.2 1 0.356937 0.116008 0.0767823 0.0667784 0.0367465 0.0591768 0.0543209 0.0774524 0.0550686 0.0851951 0.0694939 0.0646879 0.083131 0.0812821 0.0831887 0.0838207 0.0808621 0.0779349 0.0772451 0.0842413
5 3 O -1.25983 53.949 1.73002 -1.2 1 0.102201 0.0600974 0.0460901 0.0175404 0.0230248 0.029516 0.0383233 0.0522383 0.0599918 0.0516472 0.0610476 0.0516175 0.0547392 0.0594569 0.0699506 0.0768457 0.0872073 0.0541586 0.0601302 0.0702396
6 3 O 0.0730934 50.4747 -0.668218 -1.2 1 0.371738 0.0999309 0.069464 0.0626813 0.0182737 0.0723431 0.0355915 0.0743017 0.0767169 0.0756889 0.0804675 0.087027 0.0700046 0.0880706 0.091666 0.0829443 0.0968958 0.0730909 0.0822977 0.0793361
7 1 Mg -2.51837 59.7329 3.15993 1.2 1 0.00949583 0.0150539 0.0132918 0.0257875 0.00996486 0.0362514 0.0191819 0.0625227 0.0238835 0.0735513 0.018795 0.0492172 0.024427 0.0677681 0.0286388 0.0952248 0.0364572 0.115979 0.0369118 0.0911208
8 3 O 0.0300808 51.3682 1.77596 -1.2 1 0.281847 0.113865 0.0346267 0.0495543 0.0362698 0.0340422 0.0608502 0.0618356 0.0762302 0.0891373 0.0713329 0.0784251 0.0593362 0.0674589 0.0928568 0.0684122 0.0775124 0.0790621 0.0683277 0.0884692
9 1 Mg -2.35304 56.8454 4.74107 1.2 1 0.0161071 0.0217137 0.0272824 0.0239701 0.0201947 0.0284256 0.0220793 0.0239597 0.0533921 0.0599463 0.0587043 0.0560834 0.0503386 0.0679171 0.0565964 0.0708203 0.0768708 0.0949633 0.0547386 0.0826207
10 2 Si 0.224741 58.6594 4.57032 2.4 1 0.0213693 0.0183443 0.021431 0.0248019 0.0336321 0.0260318 0.0342185 0.0489091 0.0440951 0.0585775 0.0613916 0.0635849 0.0688109 0.0509771 0.0839489 0.0675855 0.0674369 0.0857295 0.068468 0.055067
11 3 O -1.26859 58.7414 4.60476 -1.2 1 0.00748734 0.0251199 0.0159402 0.0273409 0.0244273 0.0253535 0.0258735 0.0756918 0.0412989 0.0479464 0.0401326 0.0693947 0.0568114 0.0616499 0.0728334 0.0783912 0.0645132 0.0729116 0.0649128 0.0797886
12 3 O 1.79679 54.5763 4.78011 -1.2 1 0.0622097 0.0425927 0.0365134 0.0376362 0.0368256 0.0253728 0.038103 0.0315171 0.0583738 0.0613637 0.0690223 0.0419444 0.0574705 0.076617 0.0781219 0.0782593 0.0711543 0.0632942 0.0595359 0.0692444
13 3 O 0.884458 58.0854 3.27841 -1.2 1 0.0211795 0.0201793 0.0270772 0.0172704 0.0161647 0.0265527 0.042795 0.0465217 0.0392174 0.0569914 0.0543625 0.0440448 0.0445296 0.0696039 0.0832309 0.0827193 0.0722542 0.065281 0.0578344 0.0818279
14 3 O 1.0269 58.0744 5.88841 -1.2 1 0.0272569 0.02206 0.0192059 0.0223082 0.0194928 0.0264196 0.0491852 0.0352488 0.0413418 0.0448504 0.0458098 0.0498986 0.0459577 0.0683065 0.0772982 0.0713936 0.0858545 0.0577198 0.0628885 0.0721969
15 1 Mg 0.361741 53.6482 2.94841 1.2 1 0.107195 0.0826333 0.0318857 0.0250836 0.0354958 0.0283739 0.0384688 0.0482142 0.0650682 0.0400443 0.063451 0.0613557 0.0462814 0.0574812 0.06048 0.0692408 0.065371 0.0870915 0.0693395 0.08372
16 1 Mg 1.00866 50.2323 3.25177 1.2 1 0.37121 0.102005 0.0757786 0.0724655 0.0410141 0.065885 0.0524232 0.0676513 0.0691473 0.0793413 0.0752858 0.079561 0.0678935 0.0720417 0.100679 0.0998577 0.0814591 0.0747898 0.0844649 0.0787616
17 2 Si 2.56731 53.0852 4.74177 2.4 1 0.107607 0.100726 0.0428097 0.0333213 0.0310885 0.0390906 0.0463883 0.0518091 0.0732501 0.0659783 0.0725603 0.0684624 0.0773598 0.0729525 0.0686943 0.092224 0.0852669 0.0935436 0.0665988 0.0667056
18 3 O -0.650426 53.2397 4.61959 -1.2 1 0.117745 0.0992713 0.0278372 0.0277929 0.023712 0.0481845 0.0395563 0.0496292 0.0634708 0.0784858 0.0476954 0.0774136 0.0715423 0.0743227 0.0732134 0.0808691 0.0790284 0.0628079 0.0877224 0.0535355
19 3 O 2.71282 49.3958 3.44455 -1.2 1 0.463361 0.0492556 0.117996 0.0487987 0.0780545 0.0372003 0.0673468 0.0794051 0.0717932 0.0778596 0.0915286 0.0679103 0.0813527 0.0951451 0.0942952 0.0995522 0.099524 0.093662 0.0792152 0.0747094
20 3 O 2.0138 52.3368 3.48804 -1.2 1 0.189249 0.108651 0.0178658 0.0241096 0.0170167 0.0617852 0.0347913 0.068618 0.0582584 0.0574733 0.0652184 0.0718323 0.075805 0.0768018 0.0806673 0.0778224 0.0825272 0.0744849 0.0627016 0.0760695
21 1 Mg -0.0619878 54.5698 0.275972 1.2 1 0.0710651 0.0561843 0.0397306 0.0353826 0.0200593 0.0212579 0.0301145 0.0524745 0.0503041 0.0627881 0.0449826 0.0492937 0.0460779 0.0653607 0.0698882 0.0765314 0.0754466 0.0958008 0.0589589 0.0792311
22 3 O 2.16612 51.9126 5.95088 -1.2 1 0.234601 0.100886 0.0270376 0.0425234 0.039979 0.0369949 0.0582874 0.0500312 0.0625843 0.0588476 0.0728104 0.0783901 0.0702112 0.0846154 0.0770134 0.07133 0.0649597 0.0765582 0.0644491 0.0663683
23 1 Mg -0.165423 57.3488 1.74152 1.2 1 0.0141301 0.0133897 0.0145858 0.0267656 0.0133529 0.0293092 0.0295615 0.0347683 0.039851 0.0547204 0.0568299 0.0545904 0.0638387 0.0658899 0.0702429 0.0746172 0.0738795 0.0897985 0.0680055 0.0817653
24 2 Si -2.06685 55.278 1.85551 2.4 1 0.0210538 0.0238817 0.0373541 0.0301747 0.0215866 0.0370803 0.0461544 0.0534046 0.0509777 0.0690487 0.0512163 0.0529162 0.0667144 0.0514207 0.0572179 0.068469 0.0728013 0.0592062 0.0714302 0.0586577
25 3 O 1.17147 55.0741 1.8401 -1.2 1 0.0294291 0.042388 0.0370073 0.020261 0.0220167 0.0340456 0.0282277 0.0544782 0.0506896 0.0567051 0.0540928 0.0495585 0.0615664 0.0659877 0.074644 0.0633261 0.0685767 0.0763736 0.0424389 0.0592833
26 3 O -1.05322 59.2293 1.56809 -1.2 1 0.0172323 0.0241368 0.0179179 0.0304446 0.0147209 0.0330287 0.0346428 0.0418287 0.0519037 0.0450579 0.04548 0.0440294 0.059524 0.0720925 0.090716 0.0667949 0.0689348 0.0628657 0.0837426 0.0588672
27 3 O -1.53578 56.2058 0.59725 -1.2 1 0.0293509 0.0117896 0.0199004 0.028367 0.0215455 0.0316944 0.0490519 0.0427309 0.032064 0.0442667 0.0669505 0.0443075 0.0600855 0.0639843 0.0696028 0.0717775 0.0624794 0.068118 0.0836341 0.0636553
28 3 O -1.43527 56.2362 3.09342 -1.2 1 0.0217172 0.0295926 0.0205327 0.0203476 0.0173635 0.0271795 0.0416993 0.0491492 0.0419917 0.0450921 0.0619975 0.0564606 0.0429932 0.0681978 0.0759235 0.0780816 0.0540181 0.0730589 0.0593945 0.0803051
29 1 Mg -2.45944 59.9012 0.202188 1.2 1 0.00953932 0.0248107 0.0138427 0.0244966 0.0164989 0.0337977 0.0197859 0.05532 0.03154 0.0772693 0.0318534 0.049897 0.0299705 0.0720696 0.033492 0.0987851 0.0460871 0.10788 0.0466471 0.0877094
30 1 Mg 2.28936 62.6055 1.72275 1.2 1 0.0187058 0.0158178 0.0208745 0.0272553 0.014195 0.0235457 0.0254131 0.0322863 0.0405209 0.0595606 0.054096 0.0521691 0.06108 0.0674512 0.063967 0.0703191 0.0735262 0.105243 0.0669936 0.0850572
31 2 Si -0.44637 60.7941 1.70103 2.4 1 0.0225845 0.0103339 0.00909049 0.0275532 0.0346975 0.0358 0.040453 0.0435009 0.0529553 0.0510298 0.0538016 0.0658902 0.0756174 0.0556772 0.072864 0.0716263 0.0620018 0.0940077 0.0589545 0.0577428
32 3 O 1.15174 60.668 1.64461 -1.2 1 0.0187127 0.0158626 0.02658 0.0299297 0.0151878 0.027989 0.0246149 0.071879 0.0352834 0.0546934 0.0453846 0.0674278 0.0607698 0.0670905 0.0715386 0.0646677 0.0570513 0.0709514 0.0646299 0.0713629
33 3 O -1.48078 64.4873 1.82191 -1.2 1 0.0221313 0.0180962 0.0220626 0.021392 0.0153911 0.0314357 0.0350572 0.0496052 0.0587205 0.0414822 0.0466504 0.0478366 0.0577512 0.069912 0.0984603 0.0742838 0.0626801 0.0509758 0.0782314 0.0537557
34 3 O -1.17278 61.438 0.40452 -1.2 1 0.00939057 0.016114 0.02364 0.0262847 0.0207556 0.0167275 0.0443913 0.0437086 0.035916 0.0476046 0.0549783 0.0426283 0.0545282 0.0536966 0.0851411 0.0724511 0.0730331 0.0614621 0.0589021 0.074843
35 1 Mg -2.46128 70.1074 3.20545 1.2 1 0.00330108 0.0216289 0.00711491 0.033333 0.00746746 0.0377033 0.00783882 0.0594014 0.00783798 0.0882083 0.0148343 0.0545605 0.0137483 0.0690292 0.0144125 0.107649 0.012752 0.112234 0.0188505 0.100707
36 3 O -1.19312 61.3801 2.94817 -1.2 1 0.0113672 0.0146625 0.0277658 0.0169584 0.0214093 0.0198301 0.0463821 0.0353081 0.0428753 0.0415664 0.0555088 0.0394861 0.0521156 0.05069 0.0898312 0.0611876 0.0678674 0.0668211 0.0618378 0.0751206
37 1 Mg -2.39794 67.1634 4.82938 1.2 1 0.00846834 0.0186374 0.0223083 0.028832 0.016795 0.0226852 0.0242828 0.0287285 0.0424113 0.0624951 0.0572825 0.0545288 0.0617559 0.0635175 0.0636618 0.0740119 0.0740254 0.100287 0.0648378 0.0812471
38 2 Si 0.332504 69.0148 4.70146 2.4 1 0.0212445 0.010681 0.0191265 0.0269779 0.0250786 0.0356109 0.0386821 0.0434899 0.0500835 0.0492455 0.0511715 0.0602757 0.0689009 0.0585728 0.0729845 0.0722857 0.0591662 0.0951411 0.0638342 0.0480883
39 3 O -1.19745 69.1245 4.70771 -1.2 1 0.00929446 0.00888149 0.0177172 0.0227888 0.0228788 0.0318922 0.0284138 0.0660111 0.0423823 0.0492167 0.0399091 0.0725705 0.0567317 0.0622096 0.0723763 0.0648992 0.0648635 0.0669563 0.0592938 0.066005
40 3 O 1.36664 65.3244 4.69987 -1.2 1 0.0105284 0.0223853 0.0242033 0.0158957 0.0170625 0.0285557 0.0312478 0.0484819 0.0551388 0.0424986 0.0451998 0.0453346 0.0537415 0.068258 0.100439 0.0733921 0.0696355 0.0470607 0.070956 0.0629066
41 3 O 1.0538 68.3874 3.41818 -1.2 1 0.0146171 0.0153053 0.0243156 0.0157391 0.0205742 0.0204255 0.0465628 0.0384198 0.0388386 0.04302 0.057683 0.0391393 0.0582911 0.0480885 0.0909921 0.066567 0.0695923 0.0671149 0.0564469 0.071888
42 3 O 1.03972 68.2812 5.96676 -1.2 1 0.0155626 0.0114403 0.0224271 0.0178426 0.020535 0.0233109 0.0436897 0.0420804 0.0354715 0.0469193 0.0531501 0.0344431 0.0539422 0.056783 0.0825405 0.0764302 0.0665482 0.0673865 0.0602678 0.0640666
43 1 Mg -0.0420005 64.646 3.19888 1.2 1 0.0105549 0.0209806 0.0100337 0.0203934 0.015985 0.0343684 0.0145082 0.0546925 0.0328196 0.0753474 0.0341569 0.050068 0.0295969 0.0676562 0.0369686 0.092133 0.0620435 0.102155 0.0601618 0.0864789
44 1 Mg -0.0611209 61.9405 4.7611 1.2 1 0.0156148 0.0208846 0.0193541 0.0332315 0.0186294 0.0211432 0.0245818 0.037139 0.0421424 0.0628513 0.0548379 0.0534359 0.0602174 0.0634662 0.0586139 0.069418 0.0747838 0.0983256 0.0681822 0.0804144
45 2 Si 2.04704 63.7978 4.6287 2.4 1 0.0209702 0.0180887 0.0218424 0.0322238 0.023646 0.0227715 0.0364544 0.0356742 0.045954 0.0562886 0.0527632 0.0631255 0.0667936 0.0544394 0.0790784 0.071406 0.0578604 0.0841375 0.0651568 0.0578599
46 3 O -1.21012 63.8897 4.66277 -1.2 1 0.0288675 0.0105589 0.0143075 0.0201964 0.0269804 0.0241636 0.0229321 0.0739989 0.0398114 0.0544127 0.0399616 0.068265 0.0618556 0.0615938 0.0762408 0.0643593 0.0542591 0.0678998 0.0626535 0.0688058
47 3 O 0.886787 60.1945 4.5992 -1.2 1 0.0123445 0.0194396 0.0236425 0.0156209 0.011432 0.0435104 0.0333178 0.0462709 0.0525585 0.0480103 0.0441414 0.0420579 0.0510835 0.0677974 0.103394 0.0758985 0.0679851 0.0449247 0.0735735 0.0709848
48 3 O 1.28484 63.2047 3.38065 -1.2 1 0.00767655 0.012559 0.0280744 0.0212304 0.0244526 0.0231226 0.048576 0.0464513 0.0434292 0.0514253 0.0539124 0.045991 0.0602486 0.0570282 0.0845513 0.0729146 0.0737787 0.0547364 0.061202 0.070003
49 1 Mg -0.101423 64.8904 0.281844 1.2 1 0.00317738 0.0136017 0.00681702 0.0342654 0.0149929 0.0338054 0.0116877 0.0579893 0.0126909 0.0788669 0.0120189 0.051566 0.0173317 0.071615 0.0168386 0.107248 0.0172637 0.116679 0.0195554 0.0927832
50 3 O 1.42723 63.1434 5.85313 -1.2 1 0.0086162 0.00827196 0.0203485 0.0233682 0.0218692 0.023094 0.0433291 0.0443683 0.0392121 0.0522475 0.0476765 0.0393893 0.0539482 0.0608999 0.0797802 0.0781419 0.0711742 0.0577759 0.0686746 0.0668236
51 1 Mg -0.117623 67.7897 1.72431 1.2 1 0.0232028 0.0110902 0.0157987 0.0263387 0.0115069 0.0219361 0.0234758 0.0323195 0.0421208 0.0597036 0.0536342 0.0597859 0.0583274 0.0663895 0.0624323 0.072314 0.0719683 0.103825 0.0678913 0.0844968
52 2 Si -2.15675 66.0283 1.78363 2.4 1 0.0160963 0.0108581 0.0230623 0.0234003 0.0275367 0.0304436 0.0349916 0.045648 0.0502004 0.0553783 0.054185 0.059917 0.0677528 0.0565118 0.0671207 0.0744872 0.0623931 0.0946769 0.0604381 0.0545804
53 3 O 1.0344 65.8647 1.70036 -1.2 1 0.0125973 0.00731916 0.0152103 0.0199047 0.0228671 0.0284762 0.0264549 0.0685317 0.0466367 0.0567411 0.042972 0.0679195 0.0580622 0.0627736 0.0687039 0.0610727 0.0543129 0.0692627 0.0601555 0.0716645
54 3 O -1.109 69.7228 1.74586 -1.2 1 0.00922834 0.0169728 0.0234124 0.0199624 0.0133219 0.0346615 0.0388133 0.0483442 0.0577658 0.0404158 0.0447015 0.0451899 0.054384 0.067105 0.102071 0.072527 0.0738389 0.048042 0.0729523 0.0563083
55 3 O -1.48428 66.674 0.542159 -1.2 1 0.0154369 0.012123 0.0213085 0.0242633 0.0213796 0.0250722 0.0411455 0.0437233 0.0410697 0.0534631 0.0487119 0.0457973 0.0570036 0.0539404 0.0806718 0.0800523 0.0688476 0.067235 0.0663635 0.0659043
56 3 O -1.4206 66.634 3.09417 -1.2 1 0.0119543 0.0215525 0.0255655 0.0181136 0.0174133 0.020549 0.0434685 0.0502564 0.039794 0.0501511 0.05378 0.04034 0.0527264 0.0552325 0.0879668 0.0762586 0.0723215 0.0609433 0.0586967 0.0738527
57 1 Mg -2.47421 70.2468 0.259141 1.2 1 0.0112028 0.0165178 0.00560537 0.0356246 0.00927038 0.0345734 0.0132965 0.0596219 0.0135101 0.0807581 0.018081 0.0508304 0.0187757 0.0704306 0.024287 0.101085 0.0307132 0.111171 0.0338371 0.087572
58 1 Mg 2.20981 73.0558 1.55842 1.2 1 0.0169203 0.0122184 0.0173417 0.0290982 0.0103716 0.022377 0.0241525 0.0366493 0.0413804 0.0573205 0.0546436 0.0569148 0.0633688 0.0561335 0.0696441 0.0703955 0.0800401 0.0909669 0.0769206 0.0643266
59 2 Si -0.397795 71.1832 1.85653 2.4 1 0.0185787 0.0186232 0.0166144 0.0382265 0.0273567 0.0241042 0.0391508 0.0423688 0.0458608 0.0573828 0.0593386 0.0622002 0.0643724 0.0534656 0.0741616 0.0771905 0.0608142 0.0888035 0.0605245 0.0598246
60 3 O 1.12366 71.1582 1.76766 -1.2 1 0.0247094 0.0118498 0.0108947 0.0207252 0.0240987 0.0254456 0.0253761 0.0723961 0.0373318 0.0577896 0.0395921 0.0697514 0.0576015 0.0649062 0.0642912 0.0655256 0.0604973 0.0692964 0.0690998 0.0598199
61 3 O -1.37394 74.7787 1.66436 -1.2 1 0.0114956 0.0179109 0.0247707 0.0119773 0.0155992 0.0370212 0.0348219 0.048742 0.0523469 0.0440614 0.0405928 0.0494027 0.0472006 0.0622107 0.106975 0.0618253 0.0730355 0.0508019 0.0711502 0.0623535
62 3 O -1.05727 71.9362 0.576883 -1.2 1 0.0192319 0.0172759 0.0276044 0.0165821 0.0225265 0.0252513 0.0405581 0.0355006 0.0421043 0.0486359 0.0502459 0.0360889 0.0572389 0.0590366 0.0838236 0.0728044 0.0692024 0.0712905 0.0650501 0.0614343
63 1 Mg -2.42238 80.3244 3.20911 1.2 1 0.00856586 0.011851 0.00748615 0.0279505 0.00443656 0.0319979 0.00718328 0.0589786 0.00962499 0.084644 0.0123763 0.0514802 0.012417 0.0722362 0.0170072 0.100437 0.0167706 0.114684 0.018346 0.103092
64 3 O -1.0114 71.7501 3.13354 -1.2 1 0.0137904 0.0110219 0.0331088 0.019307 0.0166472 0.0264133 0.0417434 0.0413092 0.0395027 0.0552938 0.0480356 0.0392477 0.0536883 0.0664483 0.0810983 0.0782964 0.0789825 0.066231 0.0577822 0.0767683
65 1 Mg -2.37451 77.4431 4.73069 1.2 1 0.0142019 0.0149339 0.0157479 0.0289709 0.014566 0.017192 0.027291 0.0324775 0.0391653 0.0615383 0.0524313 0.0582119 0.0634057 0.0623702 0.0605072 0.0753896 0.0708868 0.103853 0.0724721 0.0777093
66 2 Si 0.317511 79.3779 4.6209 2.4 1 0.0118791 0.0174289 0.0190732 0.0375354 0.0224901 0.0296624 0.0440008 0.0342936 0.0506106 0.0592905 0.0543374 0.062154 0.0657144 0.0646287 0.0833281 0.0694852 0.0593873 0.0907909 0.0532429 0.0540322
67 3 O -1.22182 79.4004 4.68348 -1.2 1 0.022907 0.0183411 0.0128667 0.023954 0.0254869 0.0234036 0.0275994 0.0675787 0.0396966 0.0493873 0.0470672 0.0693641 0.0560375 0.0663564 0.0721106 0.070175 0.0530259 0.0724011 0.0644599 0.0739673
68 3 O 1.34898 75.7218 4.6729 -1.2 1 0.0226141 0.0205607 0.0255219 0.0151655 0.0212544 0.0312539 0.0252302 0.0455211 0.0538017 0.0425528 0.0386124 0.0469389 0.052587 0.0671955 0.108257 0.0636566 0.0669144 0.0561371 0.0684046 0.0634221
69 3 O 1.04264 78.7009 3.30458 -1.2 1 0.0111687 0.0246845 0.026102 0.0178109 0.0157278 0.0177731 0.0440781 0.0424605 0.0377149 0.0392876 0.0553352 0.0404624 0.0519189 0.0506404 0.0937478 0.0669916 0.0756979 0.0592428 0.059847 0.0795957
70 3 O 1.01906 78.6031 5.85921 -1.2 1 0.00730318 0.0141038 0.0255396 0.0170664 0.0210468 0.02328 0.0391549 0.0426554 0.0364518 0.0476321 0.0484529 0.0407195 0.0546777 0.0613233 0.0846787 0.070226 0.0738508 0.0655229 0.0735582 0.0631896
71 1 Mg -0.0751297 75.2548 3.08838 1.2 1 0.007244 0.0200798 0.00752937 0.0282069 0.0108919 0.0328594 0.0157677 0.0593321 0.015906 0.0883845 0.0171691 0.0552336 0.0156961 0.06907 0.0183358 0.102094 0.0343158 0.11179 0.0294246 0.101633
72 1 Mg -0.11679 72.3229 4.91876 1.2 1 0.00684062 0.0121961 0.0211021 0.0223707 0.0135802 0.0211206 0.0264902 0.033056 0.0418532 0.0593547 0.0570792 0.0549599 0.0613558 0.0617096 0.0639404 0.0728306 0.0715766 0.0968453 0.0778066 0.0703686
73 2 Si 1.98528 74.1336 4.56882 2.4 1 0.015137 0.0136899 0.0189653 0.0358882 0.023082 0.0291562 0.0342887 0.0405258 0.0482211 0.0511799 0.0527257 0.0650746 0.0666351 0.0603384 0.0684654 0.0826217 0.0646919 0.0923111 0.0611522 0.0571105
74 3 O -1.22522 74.1912 4.66732 -1.2 1 0.0186673 0.0140249 0.012903 0.027483 0.0246757 0.0267045 0.0249337 0.0586906 0.0396502 0.0588125 0.037777 0.0653137 0.0560501 0.0610987 0.0567942 0.0626592 0.0656257 0.0671319 0.0673301 0.0636491
75 3 O 0.963534 70.4696 4.75899 -1.2 1 0.015714 0.0184365 0.0279449 0.0174351 0.0191909 0.0327647 0.0327772 0.0465864 0.0571241 0.0423171 0.041466 0.0451405 0.053653 0.0638428 0.106483 0.0671668 0.0721701 0.0506171 0.0792845 0.0619455
76 3 O 1.31542 73.6267 3.21017 -1.2 1 0.0136203 0.0170198 0.0322328 0.0151454 0.0209388 0.019434 0.036836 0.0462173 0.0449644 0.0441877 0.0544136 0.0346544 0.0514772 0.0580236 0.0809389 0.0751366 0.0731378 0.0644628 0.0627029 0.0776174
77 1 Mg -0.0975569 75.3775 0.0970788 1.2 1 0.00657806 0.0122305 0.0110549 0.024143 0.0138083 0.0342464 0.0113571 0.0530852 0.0203237 0.0771049 0.0173323 0.0546213 0.0176156 0.0663589 0.0230161 0.100604 0.039079 0.109767 0.0435787 0.0858934
78 3 O 1.26689 73.4899 5.86249 -1.2 1 0.0116109 0.00901584 0.0310593 0.0209785 0.0212954 0.0207702 0.0365631 0.0381433 0.0404414 0.0405721 0.0515158 0.0353924 0.0504895 0.0529715 0.0883175 0.0742213 0.074211 0.0687174 0.0700428 0.0645685
79 1 Mg 0.033858 78.0273 1.63081 1.2 1 0.0212536 0.0163135 0.0163265 0.0254727 0.0128178 0.0230541 0.0225867 0.031338 0.0405423 0.0604073 0.0542548 0.060252 0.0622169 0.0640826 0.0575903 0.0764261 0.0728502 0.0993626 0.0680969 0.0923356
80 2 Si -2.16564 76.1795 1.64448 2.4 1 0.0215242 0.0119211 0.0230561 0.020972 0.0220598 0.023646 0.0452213 0.0367421 0.0457323 0.0666407 0.0542258 0.0637272 0.0585494 0.0553145 0.0785764 0.0617137 0.0621095 0.0927591 0.0598867 0.0686759
81 3 O 1.04493 76.1409 1.69439 -1.2 1 0.0239493 0.00982273 0.00683793 0.0245082 0.0162346 0.0251848 0.0187684 0.0673523 0.0389699 0.0565938 0.0387804 0.0702941 0.0517603 0.0616062 0.0701278 0.0668565 0.0569034 0.0694381 0.055194 0.0776173
82 3 O -1.08437 79.8341 1.61107 -1.2 1 0.0152404 0.0168757 0.0261583 0.017395 0.0198222 0.0285681 0.029818 0.0425386 0.0494151 0.047157 0.037181 0.0539072 0.0436061 0.0618505 0.108756 0.0631799 0.0686801 0.0553607 0.0722584 0.0681955
83 3 O -1.46072 76.9039 0.422597 -1.2 1 0.012438 0.00766603 0.0313692 0.0190494 0.0198557 0.0247191 0.0415982 0.0470455 0.0414852 0.0470312 0.0484336 0.0385666 0.0517045 0.0651195 0.0788801 0.0728929 0.0718934 0.0616066 0.0703993 0.0696103
84 3 O -1.47448 76.833 3.0065 -1.2 1 0.00215051 0.0180834 0.0280242 0.0183484 0.0169743 0.0226025 0.0400906 0.0469756 0.0418799 0.0523566 0.0480966 0.0401468 0.0541191 0.0659476 0.0832016 0.0698021 0.0789472 0.0609931 0.0670263 0.0713522
85 1 Mg -2.4427 80.3748 0.115305 1.2 1 0.00791509 0.0128224 0.00498206 0.0366135 0.004963 0.0359869 0.0121843 0.0572669 0.00770573 0.0816582 0.0130042 0.0522751 0.0146409 0.0717233 0.0138151 0.106181 0.0187757 0.116884 0.0167538 0.0973815
86 1 Mg 2.37022 83.3038 1.55088 1.2 1 0.0138591 0.00752414 0.0153376 0.0296923 0.0140708 0.0180292 0.0261064 0.0357949 0.0420597 0.0588514 0.0539666 0.0599988 0.0598081 0.0570201 0.0610962 0.0687494 0.0734831 0.104032 0.0702324 0.0824762
87 2 Si -0.3615 81.2931 1.67654 2.4 1 0.0282036 0.0244748 0.0190498 0.025945 0.0233373 0.0287661 0.0419455 0.0403976 0.0490558 0.0555652 0.0487946 0.0629489 0.0619956 0.0631363 0.0859027 0.0723795 0.0587627 0.0931289 0.0496181 0.057455
88 3 O 1.16129 81.2236 1.71036 -1.2 1 0.0408013 0.00988795 0.0149022 0.0232133 0.0224373 0.0255355 0.0257661 0.0695346 0.0414423 0.0498375 0.0453618 0.0713515 0.0472861 0.0636537 0.0790999 0.0670522 0.0610359 0.0690405 0.0581609 0.0800097
89 3 O -1.30178 85.078 1.51226 -1.2 1 0.0188505 0.0229303 0.0223576 0.0208022 0.0174514 0.0321178 0.035713 0.0447008 0.0530582 0.0430841 0.0429474 0.0456065 0.0548918 0.0714768 0.10387 0.0744655 0.0689531 0.0536416 0.0741787 0.0605207
90 3 O -1.08863 82.0809 0.424109 -1.2 1 0.00582149 0.0119332 0.0292612 0.0226735 0.0205898 0.0245681 0.044975 0.0365549 0.0337114 0.0423182 0.0560257 0.0379406 0.0484367 0.0565352 0.0856438 0.0644465 0.068222 0.062751 0.0678172 0.0629237
91 1 Mg -2.46357 90.6864 3.19318 1.2 1 0.0135583 0.0207643 0.00536546 0.0301033 0.00865154 0.0359907 0.00930314 0.0602653 0.0132346 0.0851589 0.0127896 0.0530099 0.0156183 0.0708361 0.0205159 0.104262 0.0241326 0.113945 0.0322489 0.0911017
92 3 O -1.07074 81.9811 3.03155 -1.2 1 0.00959885 0.0170863 0.0363904 0.0135367 0.0214355 0.0237282 0.0417186 0.0484165 0.0388479 0.0482321 0.0498373 0.042521 0.0531484 0.0557845 0.0892102 0.0697371 0.0771574 0.0610552 0.0607322 0.0817156
93 1 Mg -2.35144 87.7728 4.70067 1.2 1 0.0112579 0.0145952 0.0156314 0.0285241 0.0214364 0.0207248 0.0194585 0.0257487 0.0416802 0.0659883 0.049986 0.0606548 0.0637183 0.0657722 0.0619454 0.0801722 0.0729783 0.103413 0.0696204 0.0839056
94 2 Si 0.279639 89.5648 4.5938 2.4 1 0.0201462 0.0194053 0.0139733 0.0317628 0.0217144 0.0303862 0.0425282 0.0386902 0.047769 0.0599095 0.057856 0.064278 0.0702094 0.0559268 0.075424 0.0693327 0.062472 0.0894453 0.058441 0.0583917
95 3 O -1.31217 89.6556 4.61778 -1.2 1 0.0219303 0.0130972 0.0200998 0.0235289 0.0170646 0.0258754 0.0188905 0.0769127 0.0368426 0.0575618 0.0393236 0.0722998 0.0561497 0.0619457 0.0772274 0.0668679 0.0565482 0.0680076 0.0578275 0.0682161
96 3 O 1.31755 85.9699 4.70784 -1.2 1 0.00838572 0.0175083 0.0236091 0.0201384 0.0200647 0.0368947 0.036149 0.0467306 0.0478179 0.0444518 0.0428417 0.0509373 0.0494848 0.0627193 0.107481 0.0780285 0.0661267 0.0555773 0.0701529 0.0680811
97 3 O 0.972173 88.9396 3.35521 -1.2 1 0.00884915 0.0127105 0.0320896 0.0137936 0.0190735 0.0158231 0.0470956 0.045149 0.0374156 0.0496825 0.0514786 0.040214 0.052721 0.0635994 0.0828414 0.0771362 0.0735272 0.0602132 0.0594852 0.0692979
98 3 O 0.925385 88.8589 5.89156 -1.2 1 0.0193475 0.0107681 0.0257262 0.0163816 0.0233369 0.0222936 0.0428275 0.0445512 0.0378394 0.0520601 0.0471735 0.0368894 0.0594893 0.0644429 0.0804011 0.0809792 0.0715901 0.0639928 0.066981 0.0721783
99 1 Mg 0.00116188 85.6865 3.09585 1.2 1 0.0152903 0.0210275 0.010344 0.0313741 0.00909001 0.0355741 0.0141683 0.0547082 0.0205552 0.0768569 0.0248694 0.0508081 0.0204886 0.0664716 0.0302979 0.101697 0.0520973 0.0996933 0.0498239 0.0890185
100 1 Mg -0.23386 82.6949 4.68073 1.2 1 0.0216283 0.00978856 0.0183095 0.0266131 0.0167615 0.0236219 0.0244275 0.0316506 0.0476372 0.0605127 0.0617583 0.0547524 0.0612305 0.0694283 0.062574 0.0816765 0.0683179 0.0950755 0.0734724 0.0820542
101 2 Si 2.02588 84.4341 4.68592 2.4 1 0.00961155 0.0123351 0.023539 0.0342232 0.0255957 0.0320177 0.0408653 0.0370105 0.0525111 0.0541282 0.048782 0.0640295 0.0693549 0.0563189 0.0777117 0.0706372 0.060976 0.0923499 0.0626042 0.0539048
102 3 O -1.12665 84.5916 4.5233 -1.2 1 0.026091 0.00506692 0.0184582 0.0265003 0.0177659 0.024964 0.0238607 0.0655552 0.0448756 0.0517682 0.0446248 0.0633097 0.0479876 0.062815 0.0752913 0.0624706 0.0627228 0.0733266 0.0578616 0.075301
103 3 O 1.0492 80.8456 4.66548 -1.2 1 0.0112171 0.0213215 0.0264399 0.0134399 0.0189335 0.0314011 0.030852 0.0473041 0.0517099 0.0485465 0.0365779 0.0519743 0.0445631 0.0623448 0.112137 0.0637741 0.0695433 0.0555933 0.0663081 0.0676564
104 3 O 1.39187 83.9347 3.30206 -1.2 1 0.0142752 0.01116 0.0341199 0.0178465 0.0195106 0.0232183 0.0417423 0.0493377 0.033724 0.0431709 0.0537711 0.0399122 0.0534496 0.061456 0.0884533 0.0728673 0.0826736 0.0575344 0.064717 0.0696617
105 1 Mg 0.0315416 85.6115 0.0604774 1.2 1 0.0141966 0.0170895 0.011803 0.0314592 0.00916567 0.0342993 0.00931709 0.0555768 0.0173696 0.0839167 0.0135406 0.0523928 0.0170193 0.0700705 0.0201088 0.103778 0.0289658 0.111736 0.0350031 0.0917758
106 3 O 1.31692 83.6406 5.85063 -1.2 1 0.00747854 0.0108904 0.0247629 0.0175959 0.0228597 0.0217931 0.0410316 0.0445474 0.0401723 0.0506049 0.0481517 0.0392693 0.0601314 0.0537734 0.083975 0.077738 0.070919 0.0727218 0.0640495 0.0598402
107 1 Mg 0.0336978 88.3238 1.61507 1.2 1 0.0144096 0.0181725 0.0200999 0.0253817 0.0163671 0.0219995 0.0179386 0.0287649 0.0426628 0.0646291 0.0471258 0.0555452 0.0620972 0.0663429 0.0554693 0.0811835 0.0715219 0.105575 0.0696044 0.0859701
108 2 Si -1.9762 86.5482 1.5539 2.4 1 0.0249124 0.0138079 0.0145449 0.036344 0.025585 0.0333412 0.0398283 0.0441766 0.0508293 0.049628 0.0497648 0.062562 0.074776 0.0588882 0.076236 0.0703684 0.0588578 0.093344 0.0587955 0.0499952
109 3 O 1.19092 86.4543 1.59364 -1.2 1 0.0252843 0.0112316 0.0169114 0.0245508 0.0252973 0.0217496 0.0231908 0.066189 0.0363091 0.0516362 0.0446371 0.0693057 0.0516877 0.0593969 0.0691637 0.0679315 0.0562994 0.0698725 0.0648901 0.0682832
110 3 O -0.96853 90.1822 1.76372 -1.2 1 0.00859868 0.0201024 0.0225099 0.0204854 0.0158514 0.0339007 0.0309345 0.0421517 0.0555108 0.0483868 0.0445589 0.0409818 0.0580312 0.0750476 0.10121 0.0704448 0.0658564 0.053209 0.0750167 0.0665773
111 3 O -1.24649 87.2564 0.339151 -1.2 1 0.0191948 0.0154683 0.0244436 0.0186755 0.0290291 0.0177665 0.044316 0.0436652 0.0369407 0.0462736 0.0533761 0.0340786 0.0548508 0.0513201 0.0873555 0.0676561 0.0706645 0.0656538 0.0595322 0.0723031
112 3 O -1.38532 87.2204 2.90136 -1.2 1 0.0166444 0.0160954 0.0269273 0.0133682 0.0206677 0.0210605 0.0396666 0.041278 0.0343577 0.0506886 0.0502758 0.040581 0.056269 0.0601158 0.0889978 0.071746 0.0750088 0.0695678 0.0641628 0.0694076
113 1 Mg -2.4257 90.6523 0.341926 1.2 1 0.0066557 0.014673 0.0115475 0.0274858 0.00928759 0.0343617 0.0135558 0.0557705 0.0193549 0.0830538 0.0231378 0.0505384 0.0273404 0.0680912 0.028235 0.0992244 0.0342751 0.107754 0.0370789 0.0951599
114 1 Mg 2.16617 93.4337 1.73136 1.2 1 0.0220212 0.020493 0.0199932 0.0283907 0.0182126 0.0241604 0.0196708 0.0321459 0.041293 0.0616946 0.0634488 0.0573649 0.0598463 0.0671504 0.0641451 0.0837304 0.0721966 0.0864692 0.0797689 0.0748642
115 2 Si -0.359205 91.6852 1.78015 2.4 1 0.0190008 0.0136506 0.0175454 0.0258752 0.0270971 0.0304149 0.0455146 0.0420829 0.0534 0.0501182 0.053127 0.0673797 0.0733638 0.0614617 0.0713842 0.0719247 0.0577045 0.096112 0.0619354 0.0559289
116 3 O 1.20535 91.593 1.73602 -1.2 1 0.0238847 0.00979187 0.0161688 0.0258719 0.0234463 0.0301662 0.0249085 0.066985 0.0439061 0.0595211 0.0455777 0.0701085 0.0575732 0.0618956 0.0673834 0.0628111 0.0590297 0.0683511 0.0638077 0.0715909
117 3 O -1.3021 95.3636 1.68496 -1.2 1 0.0130435 0.0169519 0.0291416 0.0175684 0.0190949 0.0344409 0.0328489 0.0451434 0.0547194 0.0481327 0.0411762 0.0463602 0.050666 0.0685293 0.105976 0.0686683 0.0680531 0.0551234 0.0770745 0.0578518
118 3 O -0.984293 92.3172 0.419932 -1.2 1 0.00919585 0.0185302 0.0270639 0.0183567 0.017002 0.0239684 0.0456767 0.0493406 0.0388398 0.0512509 0.0493572 0.0398067 0.0532931 0.0652472 0.0865172 0.0747572 0.0722971 0.0615514 0.0631035 0.0710779
119 1 Mg -2.42784 100.848 3.26048 1.2 1 0.0141646 0.0232285 0.00925127 0.0341559 0.010106 0.0343908 0.0103733 0.0572848 0.0134499 0.0801294 0.0282075 0.0513121 0.0218379 0.0680258 0.0297901 0.0990549 0.0420257 0.103182 0.046656 0.0946154
120 3 O -1.11133 92.3637 2.97209 -1.2 1 0.0103679 0.00972317 0.0338844 0.0160358 0.0254134 0.0213547 0.0466466 0.046806 0.0351749 0.0479958 0.052821 0.031731 0.0585133 0.0504777 0.0895494 0.0694638 0.0724095 0.0680196 0.0604262 0.0681169
121 1 Mg -2.17729 98.1107 4.79958 1.2 1 0.016788 0.00927004 0.0224504 0.032726 0.0164286 0.0203998 0.0196718 0.0343992 0.0414839 0.0580923 0.0657404 0.0589389 0.0535974 0.0627754 0.0633457 0.0795657 0.0789996 0.0846744 0.0780446 0.0719763
122 2 Si 0.327769 99.9717 4.72345 2.4 1 0.0147032 0.0155859 0.018794 0.0295083 0.0257645 0.0352168 0.0443202 0.0398819 0.0518893 0.0544681 0.0491392 0.0669472 0.0696848 0.0602476 0.0815026 0.0674163 0.0603354 0.0921423 0.0575377 0.0646708
123 3 O -1.24274 100.006 4.76564 -1.2 1 0.0195304 0.0169253 0.0192913 0.0281205 0.0217234 0.0256654 0.0272362 0.0669544 0.0342342 0.0490584 0.0392841 0.0638182 0.0595114 0.0666867 0.0660428 0.0670591 0.0597827 0.0747442 0.0588351 0.0735105
124 3 O 1.4606 96.2766 4.70404 -1.2 1 0.0125793 0.0228442 0.0256772 0.0146909 0.0208221 0.0339377 0.0299093 0.043563 0.0604812 0.0420392 0.0449954 0.0460918 0.0520597 0.068463 0.103012 0.0738775 0.0668743 0.0498643 0.0728329 0.0633223
125 3 O 0.98315 99.4047 3.42486 -1.2 1 0.0091225 0.00984063 0.0286691 0.0191161 0.0206332 0.0164574 0.0467187 0.048888 0.0420809 0.0446508 0.0444218 0.040572 0.0503472 0.0694267 0.0851263 0.0679295 0.0803443 0.0576831 0.0782821 0.0662212