ITEM: TIMESTEP
56000
ITEM: NUMBER OF ATOMS
5600
ITEM: BOX BOUNDS xy xz yz pp pp pp
0	7.1235	0
0	201.985	2.3745
0	119.584	0
ITEM: ATOMS id type element xu yu zu q Q_1 Q_2 Q_3 Q_4 Q_5 Q_6 Q_7 Q_8 Q_9 Q_10 Q_11 Q_12 Q_13 Q_14 Q_15 Q_16 Q_17 Q_18 Q_19 Q_20 Q_21
1 1 Mg -1.69462 48.1179 -0.817735 1.2 1 0.474761 0.0386921 0.134725 0.0296818 0.0711169 0.0401158 0.0562254 0.0543217 0.0564362 0.0818496 0.0810865 0.0688306 0.0983755 0.0914434 0.115134 0.10822 0.104764 0.109495 0.0968894 0.0959702
2 1 Mg 2.65536 50.6048 1.93055 1.2 1 0.252565 0.107036 0.042815 0.0464666 0.0380767 0.0300592 0.0520109 0.0509307 0.0664019 0.0579982 0.0890304 0.0652848 0.072382 0.0817047 0.0742653 0.0788451 0.0818156 0.0827693 0.107648 0.0799805
3 2 Si 0.681876 49.8559 0.135971 2.4 1 0.304336 0.101055 0.0423772 0.0608079 0.0378799 0.0386165 0.0639803 0.0550439 0.0676749 0.0860038 0.0570374 0.0614216 0.0704006 0.0765139 0.0855623 0.0689115 0.0755182 0.0842263 0.0796462 0.0915281
4 3 O 1.79481 48.8444 0.466688 -1.2 1 0.395374 0.0987565 0.106336 0.0602811 0.0462919 0.0647475 0.0405551 0.0680137 0.0591022 0.0748402 0.0840188 0.0815708 0.0709509 0.0716475 0.0951005 0.0987939 0.0814862 0.0809418 0.074329 0.0741178
5 3 O -1.37564 52.8089 1.63587 -1.2 1 0.103859 0.0501049 0.0421031 0.0257212 0.0264587 0.0339449 0.0485078 0.0490439 0.0624604 0.0609743 0.056737 0.0540864 0.0685494 0.0750764 0.080733 0.0805718 0.0789349 0.0638163 0.0567278 0.0780877
6 3 O -0.166146 49.3005 -1.0514 -1.2 1 0.357887 0.100567 0.0728239 0.0568204 0.0336331 0.0578891 0.0441257 0.0477067 0.0633453 0.0715416 0.0677496 0.0760225 0.106998 0.104278 0.0897012 0.0925616 0.0715127 0.0795852 0.0842542 0.081117
7 1 Mg -2.37068 58.5508 3.23533 1.2 1 0.0202857 0.017012 0.0119306 0.0327705 0.00785879 0.0381801 0.0208441 0.0654466 0.0243797 0.0741115 0.0305469 0.0520218 0.0257358 0.0687742 0.0276755 0.106401 0.0445446 0.101815 0.0401782 0.095573
8 3 O -0.246789 49.976 1.4333 -1.2 1 0.30686 0.116185 0.0479728 0.0489104 0.0284865 0.038901 0.068735 0.052213 0.0732526 0.097295 0.0585803 0.0448507 0.0618375 0.0762214 0.0875923 0.0671858 0.0891291 0.0802963 0.0792257 0.0884637
9 1 Mg -2.16154 55.6985 4.70932 1.2 1 0.0116222 0.0172007 0.0167265 0.0261186 0.021824 0.0349269 0.0273044 0.0349625 0.0424269 0.0554179 0.0665839 0.0544783 0.0489624 0.0682692 0.0660326 0.0805081 0.0693517 0.0793569 0.0728069 0.0805035
10 2 Si 0.453754 57.697 4.71797 2.4 1 0.00399252 0.0238104 0.0192124 0.0326626 0.037245 0.0331345 0.045622 0.0448859 0.0671706 0.052305 0.0532101 0.0707959 0.0727028 0.0568383 0.0842237 0.0656608 0.0656684 0.0889258 0.0598061 0.0637277
11 3 O -1.09421 57.8092 4.50242 -1.2 1 0.0157775 0.0323927 0.0223105 0.0189394 0.0338423 0.0302504 0.0329842 0.0828946 0.0455542 0.0568163 0.046068 0.0710285 0.0585016 0.0664629 0.0784209 0.0708282 0.0547859 0.0758577 0.058427 0.0808137
12 3 O 1.40827 53.5408 4.69974 -1.2 1 0.0656891 0.0399378 0.043191 0.0207688 0.0264666 0.0332742 0.0395413 0.0426954 0.0556214 0.0562579 0.0676638 0.0427208 0.0679745 0.0711149 0.0858526 0.0765904 0.0745105 0.060454 0.0677006 0.065556
13 3 O 1.12105 56.8977 3.47914 -1.2 1 0.00873222 0.0183766 0.0227537 0.0162662 0.0277683 0.0267743 0.0577343 0.0432707 0.0396291 0.0504827 0.0500268 0.0403548 0.0616126 0.0649808 0.0817424 0.0778942 0.0748525 0.0613547 0.0569272 0.0689312
14 3 O 1.07841 57.0098 6.04722 -1.2 1 0.0114187 0.01045 0.0195308 0.0178021 0.0240138 0.0347763 0.0435254 0.0511081 0.0480259 0.0514422 0.0613196 0.0483559 0.0576912 0.0664017 0.0772234 0.0863977 0.0680903 0.0702668 0.057982 0.0731177
15 1 Mg 0.157597 53.3788 3.18931 1.2 1 0.0713582 0.0508829 0.0483515 0.0288995 0.0142521 0.0305944 0.0299159 0.0658639 0.0453958 0.0697507 0.0408153 0.0584232 0.0493739 0.0719214 0.0476457 0.0834833 0.0621678 0.0970974 0.0523168 0.0753384
16 1 Mg 0.499406 49.5421 3.20775 1.2 1 0.331728 0.11749 0.0486507 0.0693425 0.0320502 0.0626065 0.0682689 0.0630426 0.0686867 0.0810942 0.0527438 0.0903789 0.0498161 0.0660809 0.091672 0.095582 0.068809 0.0967193 0.0837256 0.0759789
17 2 Si 2.16013 52.2023 4.70879 2.4 1 0.125027 0.0886947 0.0467857 0.0287248 0.027838 0.0438116 0.0445153 0.0610586 0.0647492 0.0658422 0.0748125 0.0838601 0.0804803 0.0710526 0.0914155 0.0794323 0.0893671 0.075337 0.0608692 0.080013
18 3 O -1.07343 52.1177 4.72551 -1.2 1 0.138495 0.106512 0.0296611 0.0252109 0.0158271 0.0435075 0.0400431 0.051539 0.0680957 0.0752076 0.0416844 0.0914221 0.0687165 0.0715506 0.0835537 0.0794748 0.0750921 0.0608515 0.0837769 0.0661296
19 3 O 2.30534 48.8821 3.37912 -1.2 1 0.398545 0.09206 0.0995278 0.0531023 0.0442172 0.0592017 0.0489615 0.0773393 0.0671876 0.0826093 0.0597507 0.0796408 0.0739192 0.0729637 0.109368 0.0909495 0.0939677 0.0853732 0.0835736 0.0842955
20 3 O 1.62177 51.4978 3.41476 -1.2 1 0.186777 0.0964591 0.0355933 0.0319283 0.036408 0.0408119 0.0468647 0.0743508 0.0469907 0.0656452 0.0742822 0.0630909 0.0838576 0.0743309 0.0842801 0.072063 0.0863048 0.0861102 0.0780973 0.0798712
21 1 Mg -0.0300344 53.3222 0.2088 1.2 1 0.0564833 0.0557138 0.0462285 0.0334408 0.0316653 0.0258846 0.0348067 0.0613295 0.0375762 0.0721823 0.0443294 0.0497549 0.0426943 0.0695643 0.0614429 0.0915574 0.0656203 0.0871588 0.0568683 0.0707324
22 3 O 1.50829 51.5978 6.0072 -1.2 1 0.182565 0.0929404 0.026241 0.0215688 0.0229145 0.030149 0.0400928 0.0727417 0.04845 0.0643872 0.0657087 0.0518339 0.0719781 0.0782378 0.0859628 0.0810602 0.0789001 0.0730387 0.0738042 0.0854319
23 1 Mg 0.111021 56.6034 1.84098 1.2 1 0.0107254 0.0116998 0.0230779 0.0265675 0.0311438 0.026721 0.0294831 0.037513 0.0495663 0.0561261 0.0511834 0.0832907 0.0605543 0.0594214 0.0756264 0.0522607 0.093785 0.0812936 0.0680396 0.0606341
24 2 Si -1.93045 54.3646 1.74492 2.4 1 0.0259732 0.026242 0.0288879 0.0266673 0.0290262 0.0376135 0.0466769 0.0385494 0.0596498 0.0651848 0.0553734 0.0653618 0.101116 0.0508904 0.0475724 0.0560008 0.081699 0.0819816 0.0704865 0.0635597
25 3 O 1.14612 54.2799 1.86729 -1.2 1 0.0134839 0.0372896 0.0335579 0.0218725 0.0215686 0.0392016 0.025796 0.0647711 0.0487214 0.0625363 0.0553251 0.0606986 0.0592604 0.0772543 0.0664554 0.0554663 0.0664495 0.0600835 0.0602415 0.0703322
26 3 O -0.98593 58.4394 1.65577 -1.2 1 0.0162999 0.0242875 0.0220536 0.0259063 0.0178279 0.0319124 0.041912 0.0424309 0.0648275 0.0294377 0.0575279 0.0431626 0.0599026 0.0767194 0.0929746 0.0782185 0.0804871 0.0495961 0.0722816 0.0576955
27 3 O -1.44707 54.9511 0.433579 -1.2 1 0.0168337 0.029355 0.0187111 0.0251239 0.0247563 0.0311996 0.050886 0.0524521 0.0408346 0.0434919 0.0634066 0.0470353 0.0588866 0.0813741 0.0718587 0.0724748 0.0603135 0.0525622 0.0716545 0.064334
28 3 O -1.25777 54.9922 2.98422 -1.2 1 0.0171772 0.0219745 0.0260101 0.0236095 0.0254734 0.0268267 0.054912 0.0369633 0.0386882 0.039747 0.0663301 0.0563467 0.060395 0.0691338 0.0917732 0.0749746 0.0691389 0.0586707 0.0636334 0.0684059
29 1 Mg -2.44258 58.4191 0.317239 1.2 1 0.0124695 0.019664 0.0169827 0.0325348 0.0183089 0.0406259 0.0208437 0.0546 0.033484 0.0740556 0.0375551 0.0484329 0.030456 0.0753662 0.0428282 0.0904113 0.0561415 0.106541 0.0555138 0.0880521
30 1 Mg 2.62574 61.7302 1.83189 1.2 1 0.0238225 0.0120342 0.0194761 0.0301932 0.0118463 0.0377683 0.0271207 0.0410148 0.0456112 0.0486695 0.0593251 0.0514649 0.0544734 0.0663514 0.0711447 0.0638621 0.075866 0.0947203 0.0661886 0.0778579
31 2 Si -0.309837 59.8497 1.57594 2.4 1 0.0175387 0.017007 0.018953 0.0255782 0.0337689 0.0380758 0.0345483 0.0531111 0.060355 0.0466006 0.0549375 0.0643258 0.0722754 0.057405 0.0599543 0.0825665 0.0690019 0.0907206 0.0557806 0.0538163
32 3 O 1.33776 59.5727 1.5334 -1.2 1 0.0128385 0.0280689 0.0199792 0.0181267 0.0297623 0.0298649 0.0311324 0.0747808 0.0452254 0.0609537 0.0417919 0.0728591 0.0629946 0.0656429 0.0776684 0.0637009 0.0708721 0.0693164 0.0619847 0.0769126
33 3 O -1.23506 63.7332 1.73085 -1.2 1 0.018329 0.023089 0.0120967 0.0282749 0.0171395 0.035936 0.0396328 0.0406224 0.058544 0.0326034 0.0543489 0.0450523 0.0576767 0.0760125 0.0960816 0.0704671 0.0733428 0.051286 0.0788076 0.0618941
34 3 O -0.937885 60.7251 0.499917 -1.2 1 0.0244301 0.0115857 0.0250735 0.0144744 0.0294794 0.0357345 0.0396252 0.0452531 0.0391612 0.0512254 0.0595479 0.0495609 0.0633137 0.0635057 0.0733415 0.0845816 0.0655513 0.0758747 0.0649548 0.0618045
35 1 Mg -2.10551 69.6865 3.10621 1.2 1 0.0211883 0.0186547 0.0184887 0.0320482 0.0218933 0.0305887 0.0226337 0.0546793 0.0362885 0.0707435 0.0386553 0.0460962 0.0312804 0.0606428 0.0518821 0.0989276 0.0587221 0.0967134 0.0551414 0.0882448
36 3 O -0.820323 60.3625 3.00796 -1.2 1 0.0137092 0.0110445 0.0241696 0.024683 0.0268702 0.0188393 0.0579022 0.0503774 0.0333001 0.0496399 0.0554159 0.0397899 0.0507325 0.0715309 0.0876112 0.0809098 0.0733235 0.0629086 0.0633369 0.0682883
37 1 Mg -2.10789 66.5017 4.64577 1.2 1 0.023284 0.0242539 0.0147304 0.0305349 0.0181386 0.0291246 0.0257592 0.0409778 0.0442503 0.0598107 0.0636544 0.0544037 0.0592486 0.0622314 0.0627688 0.0741768 0.0711522 0.0932963 0.0657804 0.0704292
38 2 Si 0.51846 68.328 4.45095 2.4 1 0.0161715 0.0177839 0.023676 0.0226788 0.036113 0.0385229 0.0349118 0.0428691 0.0533001 0.0503048 0.0560225 0.0572327 0.0713097 0.0574529 0.0623909 0.0692154 0.0673454 0.0935756 0.0645326 0.0623741
39 3 O -1.09558 68.4979 4.40846 -1.2 1 0.0194944 0.00965636 0.0132058 0.0179026 0.0253671 0.0363322 0.0224648 0.0676296 0.0389755 0.0661336 0.0411361 0.0651169 0.0514558 0.0711605 0.0659007 0.0617711 0.0635759 0.0708625 0.0735383 0.080069
40 3 O 1.40349 64.534 4.66413 -1.2 1 0.00870169 0.0196169 0.0211398 0.0259222 0.0126638 0.0339039 0.0458748 0.0391847 0.0598112 0.0390124 0.0538232 0.0481409 0.0482052 0.0782892 0.10103 0.0584777 0.0831378 0.0481015 0.0745916 0.0524616
41 3 O 1.30873 67.5794 3.26868 -1.2 1 0.00348999 0.0215101 0.0247515 0.0211085 0.0331079 0.0221678 0.0465835 0.0394838 0.0440599 0.0449053 0.0611002 0.0456715 0.0551194 0.0490726 0.0898575 0.0717282 0.0743183 0.074617 0.0520586 0.0678085
42 3 O 1.03708 67.6857 5.79373 -1.2 1 0.00958557 0.0152992 0.0219618 0.0240706 0.027504 0.0313676 0.0390242 0.0450002 0.0367707 0.0386007 0.0611868 0.0364295 0.0557462 0.0693954 0.0690771 0.0725767 0.0741391 0.0594903 0.0665252 0.0734647
43 1 Mg 0.0655011 64.0501 3.14121 1.2 1 0.0145459 0.0191996 0.0174242 0.0366973 0.0077026 0.0425294 0.0173754 0.0663504 0.0219704 0.0750212 0.0223621 0.058296 0.0229266 0.0705547 0.0277493 0.104911 0.0309097 0.10729 0.0346264 0.0832067
44 1 Mg 0.266863 61.035 4.55443 1.2 1 0.0250071 0.0102274 0.0222261 0.0277291 0.0158676 0.0295568 0.0185453 0.04254 0.0414847 0.0502501 0.0572876 0.0536614 0.0576883 0.0600476 0.0750226 0.0612688 0.0748064 0.0904431 0.0560374 0.080183
45 2 Si 2.18465 63.0708 4.72679 2.4 1 0.0202868 0.0132811 0.0298022 0.0244842 0.0403087 0.0294758 0.0376751 0.0453622 0.0505025 0.0461951 0.0595279 0.0633022 0.0786378 0.0549368 0.0770465 0.0810008 0.0641615 0.0873015 0.0592561 0.0518224
46 3 O -1.07069 63.2586 4.71012 -1.2 1 0.0211846 0.0110496 0.0246147 0.0188052 0.0220306 0.0241119 0.0241181 0.0672224 0.0400452 0.0557984 0.0471017 0.0729055 0.0462178 0.0635729 0.0826781 0.0641228 0.0657208 0.0684583 0.0529145 0.0786538
47 3 O 1.06079 59.1825 4.67446 -1.2 1 0.0200693 0.0176616 0.015503 0.0286432 0.0169251 0.0338411 0.0373103 0.0449215 0.0625868 0.0424591 0.0534422 0.0418745 0.0541014 0.0725443 0.0915766 0.0663775 0.0719141 0.0580694 0.070215 0.05815
48 3 O 1.49706 62.3905 3.24773 -1.2 1 0.0154215 0.0131155 0.0299357 0.0264387 0.0278293 0.0234675 0.0486604 0.0459849 0.0419203 0.0468266 0.0624682 0.0455864 0.0575331 0.0745222 0.0863665 0.085486 0.0733317 0.0681716 0.0628216 0.0713361
49 1 Mg -0.0503509 63.899 0.0588266 1.2 1 0.0123356 0.0197487 0.0133082 0.0348275 0.0136257 0.0444049 0.0148391 0.0599414 0.0265717 0.0756792 0.0240827 0.0490669 0.0312269 0.0695761 0.0297068 0.10664 0.0397825 0.109004 0.0427316 0.0934415
50 3 O 1.46117 62.3242 5.89752 -1.2 1 0.0122451 0.0165638 0.0235219 0.0284073 0.0302944 0.0240217 0.0466272 0.0444929 0.0348058 0.0487557 0.0655145 0.0475428 0.0666433 0.0498336 0.0925437 0.0744967 0.0693725 0.0705722 0.0675327 0.0657995
51 1 Mg 0.178796 67.0015 1.8172 1.2 1 0.0160416 0.0178861 0.0197672 0.0316686 0.0156904 0.0313096 0.0295768 0.0319854 0.0447287 0.0561197 0.064576 0.0521404 0.0602543 0.0676616 0.0626115 0.0767856 0.0753158 0.0983438 0.0678919 0.0753389
52 2 Si -1.92013 65.1594 1.75294 2.4 1 0.0281833 0.0119923 0.0162019 0.0243154 0.035304 0.0384676 0.0352953 0.0459422 0.0584439 0.0503397 0.0610339 0.0665535 0.0767906 0.0569299 0.0771559 0.0710734 0.063132 0.086086 0.0696402 0.0602506
53 3 O 1.24677 65.1227 1.6142 -1.2 1 0.0467077 0.0243455 0.0176076 0.021907 0.0311708 0.0245128 0.0210319 0.0802891 0.0417178 0.0708707 0.0318584 0.0703621 0.0666496 0.0720826 0.0759644 0.0589861 0.0623953 0.058249 0.0634749 0.0710057
54 3 O -0.653162 69.1218 1.59796 -1.2 1 0.0207129 0.0147468 0.0186497 0.020529 0.0200241 0.0310205 0.0368168 0.0436928 0.065221 0.0416622 0.0470391 0.0411285 0.0628747 0.0718934 0.0946043 0.063493 0.0758328 0.0596166 0.074207 0.0502928
55 3 O -1.31622 65.8686 0.502773 -1.2 1 0.0167523 0.0173625 0.0253359 0.0222009 0.0295795 0.0280667 0.0570795 0.0455754 0.0368222 0.0514469 0.0571958 0.0436941 0.0673549 0.071254 0.0786376 0.085143 0.069213 0.0726429 0.0639516 0.0707708
56 3 O -1.22902 65.8825 3.13323 -1.2 1 0.0116494 0.0268229 0.0303935 0.0211068 0.0280338 0.0224626 0.0438111 0.0426572 0.0519744 0.0457972 0.0683476 0.0324566 0.0574757 0.0563933 0.0792213 0.077991 0.0710191 0.0625347 0.0591934 0.0761088
57 1 Mg -2.278 69.1591 0.15003 1.2 1 0.0237769 0.0158614 0.0200323 0.0205836 0.0165019 0.0358518 0.02236 0.058094 0.0407071 0.073547 0.0351337 0.0466092 0.034391 0.072416 0.0433158 0.0926919 0.0434227 0.104009 0.0501782 0.0862879
58 1 Mg 2.64055 72.3129 1.67247 1.2 1 0.0338164 0.0110686 0.0124407 0.0256197 0.0136737 0.0282585 0.0213273 0.0395596 0.0472045 0.0555857 0.0532764 0.0548818 0.0542654 0.0718774 0.0700862 0.070257 0.0698395 0.104715 0.0623594 0.0890586
59 2 Si -0.0755315 70.5185 1.58569 2.4 1 0.0280887 0.010546 0.0146449 0.0252672 0.0301519 0.030096 0.0351941 0.0474782 0.0505289 0.0652211 0.0465646 0.0610834 0.0712644 0.0569535 0.0739987 0.0679713 0.0679552 0.0733177 0.0675332 0.0585667
60 3 O 1.52264 70.402 1.54196 -1.2 1 0.0391198 0.0176467 0.0107705 0.023798 0.0235566 0.0286031 0.0258101 0.0792825 0.0441203 0.0658217 0.0393315 0.0635449 0.0603256 0.0705467 0.069709 0.0653528 0.0534049 0.0677141 0.0612958 0.074221
61 3 O -1.04063 74.2102 1.76196 -1.2 1 0.0145716 0.0141445 0.0212939 0.0174589 0.0241165 0.0331975 0.040199 0.0440422 0.0478171 0.0499714 0.0309305 0.0571374 0.0459977 0.0596936 0.0988277 0.0650087 0.0739246 0.0618317 0.0690036 0.0638678
62 3 O -0.8313 71.2766 0.366911 -1.2 1 0.0299936 0.0120921 0.0269565 0.0170733 0.0247613 0.0293808 0.0406451 0.042184 0.0307582 0.0517822 0.0553339 0.048124 0.0488723 0.0591531 0.0727777 0.0825838 0.0698282 0.0653201 0.0554834 0.0794595
63 1 Mg -2.45169 79.8909 3.07071 1.2 1 0.00309737 0.023016 0.0121827 0.0345667 0.00836362 0.040673 0.00726305 0.0639525 0.0182282 0.0718447 0.019313 0.0526011 0.016575 0.0695816 0.0193321 0.108846 0.0330166 0.111514 0.0334418 0.0846138
64 3 O -0.672835 71.3202 2.84861 -1.2 1 0.0151343 0.0208858 0.0172897 0.0120844 0.0243145 0.0309662 0.0488754 0.0470083 0.0366191 0.0555213 0.053529 0.0381587 0.0459915 0.0731761 0.0649757 0.076943 0.0635474 0.0590637 0.0740362 0.0673293
65 1 Mg -2.40533 77.0197 4.54156 1.2 1 0.0287906 0.0142959 0.0172674 0.0288425 0.0169622 0.0296621 0.0200994 0.0309635 0.0453145 0.0559645 0.0548232 0.0578079 0.0528508 0.0694795 0.0582952 0.0595096 0.0856014 0.100241 0.0610891 0.088249
66 2 Si 0.247197 78.8819 4.56615 2.4 1 0.0320934 0.0159792 0.0122702 0.0242356 0.0277693 0.0223087 0.0382528 0.0480794 0.0466888 0.0653868 0.0524411 0.0645015 0.0660821 0.0493182 0.0674549 0.0714982 0.0667365 0.084601 0.063143 0.0632279
67 3 O -1.32536 78.7797 4.68613 -1.2 1 0.0305784 0.0137981 0.0141261 0.0212034 0.0322846 0.0242409 0.0268612 0.0733866 0.0466124 0.0665055 0.0320164 0.0628125 0.0629253 0.0677881 0.0641204 0.0673282 0.0640862 0.0566094 0.0755662 0.0676124
68 3 O 1.53383 75.1588 4.65719 -1.2 1 0.0168678 0.0100162 0.0306262 0.02569 0.0198371 0.0343196 0.033792 0.0391018 0.0548675 0.037832 0.0547207 0.040631 0.0547307 0.0741808 0.0960087 0.073626 0.0681464 0.050455 0.0778578 0.0606376
69 3 O 0.937983 78.3216 3.30247 -1.2 1 0.011835 0.010879 0.0257199 0.0216636 0.0257653 0.0187366 0.0518759 0.0390139 0.0409311 0.046331 0.0489077 0.0402594 0.0531866 0.0618484 0.0765614 0.0751846 0.0766229 0.0569927 0.070836 0.0742793
70 3 O 0.96469 78.2968 5.82015 -1.2 1 0.0232866 0.00925626 0.0206019 0.0159262 0.0236683 0.0130525 0.0480306 0.045299 0.0362885 0.0481204 0.0482771 0.0380954 0.0510805 0.0699515 0.0825791 0.0770462 0.0743054 0.0609231 0.0688794 0.0709802
71 1 Mg 0.186853 74.7967 3.14067 1.2 1 0.0173308 0.0152681 0.0122309 0.0307912 0.00914504 0.0377469 0.0213845 0.0614573 0.0197135 0.0779351 0.0185458 0.0495713 0.0252962 0.0739293 0.0257736 0.101655 0.0384502 0.109951 0.0420002 0.0873162
72 1 Mg 0.345478 71.7292 4.50215 1.2 1 0.00532155 0.00947262 0.0209046 0.0240953 0.0224431 0.0281338 0.0246351 0.036148 0.0497133 0.0549641 0.055613 0.0585741 0.0586051 0.0630388 0.0665135 0.056714 0.0687686 0.0996959 0.0595767 0.0859106
73 2 Si 2.14389 73.6877 4.59737 2.4 1 0.0163776 0.0161477 0.0266959 0.0267147 0.0387506 0.0300007 0.0446904 0.0452154 0.055197 0.0474413 0.0481668 0.0667325 0.0698608 0.0494692 0.0649481 0.0713446 0.0635901 0.0921542 0.0599851 0.05487
74 3 O -1.05921 73.905 4.43782 -1.2 1 0.0332533 0.028603 0.0154072 0.0204302 0.0267349 0.0287946 0.035853 0.0626025 0.0422547 0.0542478 0.0494519 0.0646893 0.0496923 0.0622526 0.0812719 0.0735851 0.0573051 0.0752825 0.0591359 0.0764148
75 3 O 1.10089 69.9111 4.45586 -1.2 1 0.023715 0.0286421 0.0221899 0.0277367 0.023746 0.0326605 0.0322447 0.0371763 0.0549638 0.0400928 0.0525037 0.0465145 0.0621032 0.0705276 0.0808737 0.0753327 0.0708324 0.0578181 0.0708148 0.0604542
76 3 O 1.63408 72.9073 3.33316 -1.2 1 0.0144448 0.0167726 0.0280708 0.0188672 0.0204363 0.0289102 0.0438983 0.0458489 0.0404263 0.0453552 0.0559304 0.0381168 0.0570869 0.0692851 0.0650146 0.0723896 0.0580203 0.0629128 0.0722461 0.0647817
77 1 Mg 0.00759766 74.8524 0.223397 1.2 1 0.00884617 0.0176967 0.00707474 0.0320418 0.0173353 0.0374881 0.018239 0.0627383 0.0221758 0.0687252 0.024796 0.0529312 0.0230377 0.0591944 0.0338114 0.0906449 0.0469638 0.111718 0.0514904 0.0940804
78 3 O 1.44439 73.0016 5.77625 -1.2 1 0.0145258 0.0234965 0.0241251 0.0241769 0.0298291 0.0256344 0.0468081 0.0360734 0.0361388 0.0464111 0.0617842 0.0427859 0.0680612 0.054369 0.0900454 0.0767633 0.0740505 0.0590489 0.0668525 0.0634047
79 1 Mg 0.156921 77.3839 1.64171 1.2 1 0.0222225 0.0207184 0.0184533 0.0326911 0.0182528 0.0270649 0.0284206 0.0338001 0.0472784 0.0611387 0.0675555 0.0542771 0.0600622 0.0681043 0.0591285 0.0970406 0.0633218 0.0994237 0.0590768 0.0903533
80 2 Si -1.86455 75.5319 1.78502 2.4 1 0.0163736 0.0229798 0.0276495 0.032095 0.030365 0.0334734 0.0494856 0.0465108 0.0525699 0.056578 0.0454335 0.0704351 0.0650191 0.0652588 0.07605 0.0579441 0.064918 0.0918596 0.0580039 0.0590503
81 3 O 1.37599 75.573 1.90187 -1.2 1 0.0252601 0.0210461 0.0188482 0.0205886 0.034553 0.0302392 0.038804 0.0615869 0.0457751 0.0530409 0.0510393 0.0651541 0.0588408 0.0755246 0.067381 0.0616915 0.0686641 0.0795351 0.0651637 0.0763586
82 3 O -1.03888 79.3838 1.59519 -1.2 1 0.0196258 0.0222351 0.0219344 0.0208946 0.0269114 0.0386299 0.0345329 0.0375834 0.0551473 0.0459441 0.04359 0.0398463 0.0568972 0.069351 0.101661 0.0591338 0.0740227 0.0595544 0.0785918 0.0686774
83 3 O -1.27851 76.2201 0.446142 -1.2 1 0.0141669 0.0197448 0.0215839 0.0262111 0.0342748 0.020163 0.0419404 0.043225 0.0451484 0.0364255 0.05477 0.0506049 0.0561145 0.060968 0.0874821 0.0579639 0.0781018 0.0569276 0.0769237 0.0741395
84 3 O -1.27263 76.507 2.9049 -1.2 1 0.00896221 0.0196631 0.0282224 0.0194662 0.0241523 0.0178678 0.0499642 0.0477006 0.0363013 0.0507017 0.0550779 0.0414894 0.0578197 0.0633724 0.0861396 0.0654691 0.0699727 0.0691398 0.070318 0.0707455
85 1 Mg -2.5786 79.7717 0.308415 1.2 1 0.0205489 0.0126964 0.0225193 0.0318553 0.0209252 0.035144 0.0288464 0.0482091 0.0315905 0.07607 0.0275801 0.0475614 0.0317283 0.0718612 0.0393539 0.0954289 0.056061 0.103654 0.0557288 0.0827327
86 1 Mg 2.21085 82.7738 1.47504 1.2 1 0.0168582 0.0142284 0.0210225 0.0317338 0.0149539 0.0287022 0.0253022 0.026292 0.0447888 0.0605081 0.0587801 0.0508214 0.0555073 0.0657824 0.0699055 0.0872016 0.066385 0.0890965 0.070416 0.0774943
87 2 Si -0.441065 80.9755 1.77177 2.4 1 0.0197723 0.00827503 0.0235696 0.0207472 0.0332723 0.0264174 0.0342305 0.0461253 0.0489727 0.0485115 0.0601165 0.0607628 0.0708148 0.0546554 0.0786006 0.0789624 0.072126 0.0865005 0.0561365 0.0559175
88 3 O 1.03183 80.876 1.68604 -1.2 1 0.0248935 0.0089182 0.0236539 0.017852 0.0283928 0.0276251 0.0258338 0.065376 0.0410902 0.0564706 0.0462248 0.0680641 0.0574988 0.0620361 0.0739553 0.0611542 0.0713446 0.0668375 0.0656685 0.0683924
89 3 O -1.55081 84.9065 1.4682 -1.2 1 0.0207769 0.0119998 0.0205951 0.0245954 0.0179753 0.0320701 0.0416989 0.044252 0.0614817 0.0397976 0.0543425 0.0405899 0.0546953 0.0748596 0.099531 0.0737728 0.0722855 0.0599551 0.0731172 0.0574971
90 3 O -1.14187 81.7806 0.532261 -1.2 1 0.0153529 0.0131326 0.0258194 0.0202713 0.0256627 0.0254811 0.0410197 0.0401513 0.0412264 0.0488311 0.055172 0.0439597 0.0559513 0.0582171 0.0817558 0.0743136 0.06857 0.0715539 0.0642683 0.0520084
91 1 Mg -2.47584 90.5903 3.12211 1.2 1 0.0106009 0.0157923 0.0116814 0.0328518 0.0110793 0.0267946 0.0140883 0.0586911 0.0136793 0.0781061 0.0189253 0.0565386 0.0280939 0.0741324 0.029694 0.107447 0.0361983 0.105922 0.0348085 0.0840218
92 3 O -1.118 81.5893 2.97873 -1.2 1 0.016481 0.0110954 0.0225637 0.0301841 0.0261576 0.0213606 0.04746 0.0492309 0.0387079 0.0473201 0.0605301 0.0395169 0.0500887 0.0567295 0.0835165 0.0752887 0.0688163 0.0663023 0.0590033 0.0850721
93 1 Mg -2.24632 87.5523 4.40556 1.2 1 0.0198228 0.0110705 0.0229841 0.0288664 0.022431 0.0224869 0.0267548 0.0323803 0.0415221 0.0577986 0.0556403 0.0535158 0.0605552 0.068349 0.0638989 0.0731449 0.0740659 0.08319 0.0752936 0.0630733
94 2 Si 0.189708 89.5429 4.77218 2.4 1 0.0234304 0.0236856 0.0235902 0.0307625 0.0328309 0.0245996 0.0372447 0.0409898 0.0531876 0.0560642 0.054792 0.0623712 0.0680666 0.0572576 0.0891864 0.0714638 0.0661932 0.0780694 0.0648064 0.0561889
95 3 O -1.29327 89.6575 4.70462 -1.2 1 0.0111093 0.0326707 0.0158582 0.0256065 0.0238039 0.0292698 0.0220636 0.0650725 0.0425957 0.0490644 0.0400268 0.0682361 0.0558632 0.0655035 0.0783161 0.0696456 0.0634803 0.0761353 0.0506895 0.0683635
96 3 O 1.22487 85.7169 4.29979 -1.2 1 0.00609902 0.0242036 0.0172001 0.0250848 0.0204955 0.0394347 0.0388727 0.0395725 0.0497527 0.0459924 0.0431674 0.0411759 0.0552889 0.0696962 0.0918286 0.0811239 0.0666762 0.0628835 0.0713619 0.0594602
97 3 O 0.855006 88.9178 3.47589 -1.2 1 0.0124409 0.0169388 0.0298152 0.0193515 0.0288413 0.0257785 0.0458238 0.0364651 0.0465344 0.0460776 0.0491571 0.0430386 0.0549157 0.0729896 0.0732498 0.0697055 0.0797558 0.0609854 0.0705437 0.0642032
98 3 O 0.874168 88.8502 6.08821 -1.2 1 0.00733279 0.0185108 0.0259593 0.0279239 0.0269293 0.0238538 0.0410359 0.0543108 0.042827 0.0549574 0.0530219 0.0406287 0.056865 0.0768791 0.0814116 0.0838183 0.0755487 0.0631252 0.0568379 0.0751888
99 1 Mg 0.00861726 85.318 2.87704 1.2 1 0.0109727 0.0189878 0.0170723 0.0333097 0.0110326 0.0374939 0.0153435 0.0643811 0.0187162 0.0777173 0.0267909 0.0485463 0.0322536 0.0652776 0.0394544 0.0990603 0.0447324 0.0971953 0.0555731 0.0784169
100 1 Mg -0.239809 82.3763 4.50151 1.2 1 0.0285219 0.0208239 0.0255816 0.0345248 0.0182605 0.0249471 0.0252239 0.0311884 0.0420297 0.0523539 0.0640192 0.0533089 0.0559552 0.0630428 0.0647793 0.0882323 0.0661801 0.0822923 0.0688244 0.0813752
101 2 Si 1.96549 84.1712 4.36914 2.4 1 0.0140485 0.013647 0.0304616 0.0333346 0.0268918 0.0385575 0.0345101 0.0396049 0.0585747 0.0569622 0.0517116 0.0619318 0.0631015 0.0536956 0.0750216 0.0677924 0.0635315 0.0865655 0.0621421 0.0522292
102 3 O -1.20043 84.1842 4.46253 -1.2 1 0.0320798 0.0150547 0.0229295 0.0216992 0.0289339 0.0301462 0.0180531 0.0685894 0.0420704 0.0625581 0.0416284 0.0665061 0.0590456 0.0665979 0.0737486 0.063734 0.0649774 0.0628843 0.0686633 0.0760468
103 3 O 0.926902 80.4083 4.51145 -1.2 1 0.0126356 0.0239055 0.0235665 0.0137847 0.0109287 0.0331357 0.0381756 0.0460635 0.0591219 0.0423362 0.0443884 0.0367 0.0546709 0.0687679 0.0927555 0.0693652 0.0706034 0.0477373 0.0746415 0.0581664
104 3 O 1.28873 83.6653 3.04721 -1.2 1 0.0231498 0.0101353 0.0278256 0.0216283 0.0287137 0.0200678 0.0442436 0.0469715 0.0364342 0.0491953 0.0539793 0.0440517 0.0484804 0.0581181 0.0841186 0.0700101 0.0744641 0.066322 0.0591402 0.0814969
105 1 Mg -0.246294 85.2574 -0.183129 1.2 1 0.0121858 0.0133203 0.0130136 0.0234585 0.011978 0.0404433 0.0194513 0.0565415 0.0276167 0.0782508 0.0331944 0.0505762 0.0379537 0.0656279 0.0364431 0.101642 0.0605437 0.0988281 0.0538869 0.0759249
106 3 O 1.27958 83.5129 5.60286 -1.2 1 0.0198513 0.0194686 0.0331155 0.0231457 0.03056 0.0221809 0.0377374 0.0415713 0.04459 0.0431691 0.0542554 0.0449953 0.0566923 0.0597441 0.0884018 0.0673917 0.0769628 0.067422 0.0625317 0.0640256
107 1 Mg 0.0910125 88.2911 1.72913 1.2 1 0.00916123 0.0105728 0.0181192 0.0223398 0.0194201 0.0242602 0.0279385 0.0345486 0.0435572 0.0590662 0.0533622 0.0630332 0.0586837 0.066053 0.0678847 0.0707738 0.0818791 0.0898892 0.0764594 0.0558446
108 2 Si -2.24722 86.3967 1.40497 2.4 1 0.0181434 0.0202539 0.0217961 0.0273721 0.0333814 0.0281112 0.0393953 0.0424126 0.0521424 0.0567204 0.0608004 0.0620573 0.0720723 0.0632983 0.0784313 0.0802245 0.0648136 0.0803377 0.0724188 0.063637
109 3 O 1.0272 86.3393 1.42495 -1.2 1 0.0184464 0.0128969 0.0154626 0.0220809 0.0232303 0.0295216 0.0182363 0.0728113 0.0452728 0.0668718 0.0332257 0.0674872 0.0650841 0.0705153 0.0781558 0.0559234 0.0677146 0.0616559 0.0704077 0.0629778
110 3 O -1.20217 89.9812 1.82295 -1.2 1 0.00878529 0.0124791 0.019325 0.0164234 0.0234945 0.0336417 0.0460855 0.0451393 0.0449889 0.0477654 0.0489627 0.0577103 0.0469263 0.0681891 0.0976826 0.0722326 0.0745883 0.0681759 0.0626554 0.0573465
111 3 O -1.34509 87.0243 0.0912337 -1.2 1 0.0118653 0.020898 0.0237247 0.0162086 0.0209108 0.0252925 0.0458579 0.0472303 0.0420642 0.0464004 0.0536904 0.0401897 0.0630085 0.0480641 0.0917913 0.0727864 0.0763889 0.0619012 0.0580337 0.0800289
112 3 O -1.53041 87.1239 2.56024 -1.2 1 0.00889126 0.0154334 0.0283411 0.024989 0.0285292 0.0257702 0.0427425 0.0416044 0.0425493 0.0448178 0.0520663 0.037109 0.0512612 0.0567029 0.0846301 0.0799363 0.0684359 0.0775051 0.0564058 0.0616534
113 1 Mg -2.40032 90.5697 0.0905817 1.2 1 0.0190919 0.0177101 0.0114699 0.0345613 0.0153823 0.0378259 0.013859 0.0554245 0.0174006 0.0829036 0.0304537 0.0523506 0.0208695 0.0659885 0.0255072 0.106543 0.0348524 0.106375 0.0431164 0.0946604
114 1 Mg 2.39697 93.375 1.9231 1.2 1 0.00577682 0.0113297 0.0251163 0.0272946 0.0194371 0.0209416 0.0261483 0.0281054 0.047334 0.0563538 0.0517566 0.0541256 0.059257 0.0547714 0.0648159 0.076399 0.0740982 0.0957637 0.0693981 0.0791908
115 2 Si -0.307165 91.3357 1.84721 2.4 1 0.0199257 0.0207359 0.0300691 0.0277963 0.0237993 0.0312224 0.0464585 0.0359769 0.0475055 0.0605149 0.04755 0.0632574 0.0644341 0.0595678 0.0916924 0.0630201 0.0719699 0.0805873 0.0561837 0.0570961
116 3 O 1.19108 91.4494 1.69302 -1.2 1 0.01992 0.024592 0.0110117 0.017241 0.0215911 0.0305753 0.0247549 0.068631 0.0372946 0.053829 0.0415312 0.0651414 0.0587446 0.0678843 0.0793788 0.0646362 0.0603666 0.0780426 0.0558838 0.0601408
117 3 O -1.4488 95.2444 1.8653 -1.2 1 0.00813276 0.0168459 0.0271121 0.0284385 0.021914 0.0297847 0.0369091 0.051877 0.0502935 0.0409175 0.048694 0.0533761 0.0520544 0.0749447 0.0951685 0.0783374 0.0597214 0.0662427 0.0674687 0.0514369
118 3 O -1.02195 92.1445 0.463145 -1.2 1 0.0128717 0.0182417 0.0236121 0.0225373 0.0286966 0.0224046 0.0457047 0.045249 0.0391652 0.0401636 0.0516294 0.0503901 0.0679409 0.0632356 0.0866951 0.0649146 0.0917504 0.0704652 0.0671725 0.0728089
119 1 Mg -2.38851 100.952 3.28159 1.2 1 0.00632766 0.0107653 0.00945576 0.0331462 0.0144207 0.0340042 0.0161577 0.0631818 0.0207653 0.0809932 0.0186731 0.0510226 0.0230513 0.0797294 0.023192 0.09949 0.031637 0.104505 0.0372428 0.0976338
120 3 O -1.00353 92.2333 2.99656 -1.2 1 0.0145009 0.00645048 0.0223775 0.0198964 0.022642 0.0225346 0.0479635 0.0460143 0.0363741 0.0489597 0.0553273 0.0335678 0.0618446 0.0661324 0.0781773 0.0819647 0.0812323 0.0638658 0.0641957 0.0725025
121 1 Mg -2.40038 98.2014 4.99977 1.2 1 0.0242034 0.013906 0.0265033 0.027793 0.0204297 0.0311096 0.0298497 0.0255589 0.0478322 0.0600397 0.0552707 0.06016 0.0573251 0.0611452 0.064343 0.0769502 0.0693948 0.0885289 0.0659112 0.0770531
122 2 Si 0.104432 99.8421 4.7649 2.4 1 0.0226078 0.0195881 0.0128283 0.0219537 0.0254948 0.0330367 0.0340677 0.0478671 0.0514099 0.0633828 0.0541384 0.0660033 0.0627839 0.0667975 0.0698809 0.0761616 0.0579633 0.0768106 0.0742359 0.0612661
123 3 O -1.43691 100.126 4.7714 -1.2 1 0.0232692 0.027442 0.0196762 0.0212208 0.0204469 0.0298811 0.0252816 0.0797239 0.0438648 0.0541902 0.0403296 0.0682323 0.0522318 0.0732761 0.0778483 0.0681854 0.0691179 0.0791745 0.0543625 0.0705804
124 3 O 1.47604 96.2675 5.09083 -1.2 1 0.0107594 0.0305258 0.025183 0.0264439 0.0209888 0.0319102 0.036811 0.0520986 0.0605887 0.0392024 0.0441899 0.0410552 0.065023 0.0719838 0.0897742 0.0832155 0.0660429 0.0603828 0.067665 0.0529398
125 3 O 0.658532 99.3523 3.39937 -1.2 1 0.01678 0.0234137 0.023843 0.0221712 0.0330701 0.0185579 0.0429592 0.0428354 0.0421289 0.0608924 0.0486141 0.0404673 0.0616331 0.086777 0.0560889 0.0855532 0.0821834 0.0647318 0.0647131 0.0639589