ITEM: TIMESTEP
88800
ITEM: NUMBER OF ATOMS
5600
ITEM: BOX BOUNDS xy xz yz pp pp pp
0	7.1235	0
0	201.985	2.3745
0	119.584	0
ITEM: ATOMS id type element xu yu zu q Q_1 Q_2 Q_3 Q_4 Q_5 Q_6 Q_7 Q_8 Q_9 Q_10 Q_11 Q_12 Q_13 Q_14 Q_15 Q_16 Q_17 Q_18 Q_19 Q_20 Q_21
1 1 Mg -1.55326 46.7733 -0.635913 1.2 1 0.510694 0.034572 0.127119 0.0198315 0.0827542 0.0435324 0.0640955 0.0604314 0.0794903 0.0818191 0.0814501 0.081291 0.0749593 0.0886721 0.115369 0.117149 0.0925791 0.0905469 0.0905177 0.0937591
2 1 Mg 2.62419 49.821 2.35026 1.2 1 0.219162 0.110937 0.0401134 0.041224 0.0493352 0.0371945 0.0524787 0.0609605 0.0688148 0.0543121 0.0823267 0.0564949 0.0725034 0.071228 0.0860169 0.0860104 0.0887656 0.0824908 0.0858487 0.0743597
3 2 Si 0.61843 48.7452 0.456406 2.4 1 0.303447 0.111781 0.0382841 0.0580519 0.0528975 0.0579035 0.0776009 0.0661093 0.05572 0.0867979 0.0599052 0.0857637 0.0729293 0.0862739 0.098748 0.0623234 0.0809991 0.0819756 0.0877647 0.102747
4 3 O 1.68825 47.4509 0.514938 -1.2 1 0.444761 0.0544768 0.0970137 0.0570304 0.063665 0.0580672 0.0683852 0.0669575 0.0806645 0.0856237 0.0773654 0.0640897 0.0882114 0.071178 0.0854052 0.110595 0.0897411 0.0812004 0.104431 0.0779832
5 3 O -1.42542 51.9433 2.00898 -1.2 1 0.0868169 0.0534473 0.042313 0.0196252 0.0293325 0.0322332 0.0455839 0.0540553 0.0683232 0.056783 0.0539209 0.0542153 0.0738215 0.0713252 0.0844692 0.0652789 0.0703756 0.0593433 0.0590364 0.0794076
6 3 O -0.135287 48.2258 -0.920673 -1.2 1 0.363477 0.096326 0.0815601 0.0584611 0.0390093 0.055891 0.0405094 0.0506168 0.0683789 0.0780089 0.0604394 0.0752633 0.102901 0.101115 0.115965 0.098192 0.0715343 0.0705577 0.0859993 0.0852686
7 1 Mg -2.53043 57.5487 3.54948 1.2 1 0.0185201 0.0122225 0.0144171 0.0276418 0.0110343 0.0392759 0.0185912 0.0547643 0.030161 0.071833 0.0244783 0.0585797 0.0275808 0.0753502 0.0312912 0.103862 0.0501164 0.103847 0.0481151 0.0784444
8 3 O -0.278364 49.0088 1.71545 -1.2 1 0.293652 0.122876 0.0517863 0.0492429 0.0372467 0.0362557 0.0792862 0.0552555 0.078264 0.0745857 0.0645478 0.0492511 0.0585193 0.0718844 0.0958831 0.0781099 0.0960471 0.0786918 0.0804134 0.0801492
9 1 Mg -2.46601 54.3604 5.00334 1.2 1 0.0162902 0.0254815 0.0104523 0.0311877 0.0254425 0.0332967 0.0277926 0.0445293 0.047804 0.0538678 0.0564025 0.0703749 0.0541759 0.0668081 0.0585753 0.0684929 0.0728178 0.0911009 0.0534285 0.0834992
10 2 Si 0.155732 56.3621 4.90058 2.4 1 0.00643452 0.024714 0.0266826 0.0330307 0.032606 0.0294864 0.042939 0.0421447 0.0596445 0.0576609 0.0484278 0.0627835 0.0631717 0.0596797 0.0837311 0.070446 0.0647933 0.0833114 0.0665801 0.0637299
11 3 O -1.37712 56.6048 5.06179 -1.2 1 0.0299892 0.0334461 0.0222737 0.0178859 0.0202383 0.0273868 0.0360347 0.0697556 0.040344 0.0479641 0.0377309 0.0683398 0.0547612 0.0682117 0.0708983 0.0825075 0.0638213 0.0706024 0.0503881 0.0795885
12 3 O 1.33432 52.65 5.02766 -1.2 1 0.0749757 0.0419321 0.034317 0.0171421 0.0232337 0.0461845 0.0439784 0.032888 0.0557173 0.0484208 0.0614338 0.0514712 0.0599622 0.0658651 0.0854868 0.0849424 0.0668043 0.0540206 0.0677633 0.0664146
13 3 O 0.738967 55.9864 3.63543 -1.2 1 0.0139359 0.0206965 0.0256318 0.0185572 0.0196913 0.0288444 0.0473202 0.0407453 0.0526365 0.0453651 0.0507029 0.0468663 0.0575463 0.0709692 0.0766326 0.0828149 0.0732759 0.0631233 0.0644583 0.0680819
14 3 O 0.942965 55.5345 6.09736 -1.2 1 0.0232201 0.02342 0.0234018 0.0126468 0.0274539 0.0388176 0.0455256 0.0429898 0.0307748 0.0539175 0.0501992 0.0428604 0.0619968 0.0675906 0.0809533 0.0858646 0.0705872 0.0676464 0.0541038 0.0718335
15 1 Mg -0.150607 52.373 3.47907 1.2 1 0.0689364 0.054878 0.0416596 0.028597 0.0221572 0.0379633 0.0288233 0.0646789 0.048858 0.0714538 0.0407158 0.0597263 0.052252 0.0671948 0.0600847 0.078298 0.0776282 0.0818561 0.0654999 0.0650957
16 1 Mg 0.698152 48.6836 3.54247 1.2 1 0.312624 0.123883 0.0319803 0.079607 0.0334009 0.0457933 0.0625617 0.0457161 0.059407 0.0766968 0.0635187 0.0828957 0.0521995 0.0826536 0.105009 0.0726674 0.0917495 0.0865305 0.0805982 0.0850783
17 2 Si 2.20289 51.2795 4.94885 2.4 1 0.135628 0.0651204 0.0510559 0.015209 0.0114078 0.0295559 0.0544377 0.0577739 0.0469739 0.0717645 0.0710264 0.0674356 0.0815672 0.0672347 0.105021 0.0638582 0.0915142 0.0899623 0.0636728 0.0798976
18 3 O -1.06483 51.3266 4.90065 -1.2 1 0.144736 0.0689477 0.0345539 0.0196644 0.0161128 0.0281238 0.0488501 0.0598893 0.0504785 0.0692002 0.0386418 0.0896751 0.0518176 0.088362 0.072439 0.0817717 0.0731645 0.0742882 0.0700154 0.0638641
19 3 O 2.57665 48.1297 3.51876 -1.2 1 0.380031 0.0895004 0.0725694 0.0571005 0.0389915 0.0671486 0.0714 0.0691811 0.0707377 0.0793595 0.0536775 0.0780118 0.0842159 0.0869011 0.0993726 0.11754 0.0987994 0.0752465 0.0739989 0.0872269
20 3 O 1.47039 50.5736 3.73301 -1.2 1 0.179761 0.0906329 0.0268205 0.0193014 0.0327047 0.0426241 0.0480505 0.0659554 0.0545501 0.0654815 0.0707022 0.0567557 0.0847392 0.065179 0.0749612 0.074723 0.0854487 0.0778058 0.0670426 0.0825145
21 1 Mg -0.265205 52.6558 0.645396 1.2 1 0.0632048 0.0499128 0.0278353 0.0293701 0.0240448 0.025467 0.037027 0.059258 0.0540633 0.0570544 0.0596403 0.0396061 0.0554949 0.0583278 0.0806145 0.0694569 0.0801972 0.0792021 0.0674863 0.0548516
22 3 O 1.28638 50.321 6.26783 -1.2 1 0.196119 0.0799264 0.0335279 0.0230623 0.0252671 0.0396132 0.0416385 0.0734752 0.0521504 0.0681789 0.0569649 0.0583563 0.0691248 0.0678032 0.0925185 0.0817849 0.0773459 0.0814671 0.074442 0.0661923
23 1 Mg 0.179885 55.392 1.67804 1.2 1 0.021037 0.0127468 0.0215056 0.0238366 0.0258328 0.0346268 0.0393355 0.0560284 0.037821 0.0591486 0.064317 0.0615356 0.0643511 0.0692436 0.070883 0.07055 0.0868823 0.0780863 0.0714143 0.062674
24 2 Si -2.12548 53.4797 2.12206 2.4 1 0.0312185 0.0281887 0.0262424 0.0293732 0.0226633 0.0353537 0.0532909 0.0490074 0.0572459 0.0628393 0.0484064 0.0672354 0.0758728 0.0744036 0.0543962 0.0724481 0.0673364 0.082007 0.06766 0.0660815
25 3 O 1.10905 53.4739 2.03902 -1.2 1 0.0372413 0.031855 0.0227782 0.0174363 0.0153417 0.0325949 0.040445 0.0622426 0.0283932 0.0671759 0.0477516 0.054332 0.0636209 0.0762337 0.0730785 0.0453739 0.0652716 0.0631301 0.0589962 0.0810197
26 3 O -1.35923 56.8019 2.06704 -1.2 1 0.0131507 0.0139781 0.0207212 0.0182551 0.0215103 0.0280899 0.044285 0.0520475 0.0329151 0.0414653 0.0390418 0.0660928 0.0480909 0.0752666 0.0944236 0.0715568 0.0616578 0.0674476 0.0620818 0.0621223
27 3 O -1.5465 54.1262 0.778746 -1.2 1 0.0368227 0.0210636 0.0228372 0.0251622 0.0280704 0.0338323 0.0501763 0.036627 0.0449415 0.0432081 0.0573391 0.0433605 0.0684511 0.0620021 0.0733279 0.0745957 0.0585492 0.0595182 0.0672434 0.0730117
28 3 O -1.41281 53.9814 3.6498 -1.2 1 0.0340458 0.0208104 0.0251574 0.0158819 0.0153632 0.0250834 0.0506306 0.0469545 0.0674116 0.0465667 0.0614274 0.0460239 0.0677233 0.0521965 0.084984 0.0740992 0.0595954 0.0660118 0.0683463 0.079962
29 1 Mg -2.34168 57.6203 0.533256 1.2 1 0.0162997 0.0120139 0.0188483 0.0321469 0.0208889 0.0407756 0.0135855 0.0621212 0.0252953 0.0749754 0.0356427 0.0479998 0.0313754 0.0661128 0.0359962 0.101762 0.0567033 0.0945832 0.0508886 0.0830841
30 1 Mg 2.29228 60.3591 2.01276 1.2 1 0.0115441 0.0231837 0.021944 0.0274905 0.0226918 0.0363355 0.0393545 0.0325611 0.0402718 0.0654344 0.0628874 0.0565041 0.0586899 0.0648898 0.071439 0.0755959 0.0505787 0.0947116 0.0801433 0.0806904
31 2 Si -0.459017 58.3702 2.13635 2.4 1 0.0243694 0.0185543 0.0238916 0.0194833 0.0253469 0.0350552 0.0530493 0.0389636 0.0557064 0.055036 0.0577153 0.0634443 0.07694 0.0697142 0.0814473 0.0634636 0.0606602 0.0902936 0.0627141 0.057532
32 3 O 1.04191 58.4402 2.04548 -1.2 1 0.0134006 0.0274692 0.0144615 0.021301 0.0256598 0.0358336 0.0387781 0.067615 0.0443457 0.0550915 0.0481687 0.0700493 0.0638992 0.0716925 0.0754274 0.0735534 0.0596108 0.0725363 0.0690432 0.0704248
33 3 O -1.54202 62.3465 1.98717 -1.2 1 0.0053877 0.0222108 0.0250712 0.0300023 0.0180157 0.031882 0.0396915 0.0528707 0.060742 0.0400526 0.0517306 0.0580423 0.0601132 0.0723076 0.0944743 0.0775961 0.0700565 0.0637678 0.0765691 0.06066
34 3 O -1.18569 59.1647 0.937809 -1.2 1 0.0109231 0.0290087 0.0171726 0.0287357 0.0313262 0.0248665 0.0540964 0.0462694 0.0335854 0.0412285 0.065953 0.0468434 0.0538173 0.0630758 0.0867587 0.0703528 0.0771015 0.0722107 0.0615912 0.0607967
35 1 Mg -2.42301 68.0413 3.38727 1.2 1 0.0177826 0.0113591 0.00871596 0.0425942 0.0181064 0.0389094 0.024192 0.0620374 0.0362577 0.0721648 0.0338119 0.0426351 0.0391853 0.0571123 0.0388249 0.0938372 0.052901 0.097882 0.0630868 0.083081
36 3 O -1.10835 59.0742 3.3683 -1.2 1 0.0189082 0.0154211 0.0248437 0.0269538 0.0223825 0.0284822 0.0435315 0.0455094 0.0418564 0.0461943 0.0582474 0.0470928 0.0637328 0.0652002 0.0860307 0.074444 0.0714374 0.0685095 0.0618389 0.0677617
37 1 Mg -2.60732 65.0225 5.31203 1.2 1 0.014485 0.0208657 0.0216742 0.0311246 0.0303401 0.0265293 0.034075 0.0390907 0.0611265 0.0567184 0.0617775 0.0488233 0.0726055 0.0688984 0.0719669 0.0622472 0.0829668 0.084233 0.0756214 0.0675913
38 2 Si 0.500174 67.1795 4.98712 2.4 1 0.0274517 0.00994369 0.0312788 0.0274504 0.0344693 0.0386827 0.046344 0.0415249 0.0553618 0.049121 0.0485554 0.0629286 0.0763453 0.0506654 0.075668 0.0718434 0.0647665 0.079558 0.0611013 0.0627918
39 3 O -1.11063 67.5303 4.92846 -1.2 1 0.0330545 0.0180604 0.013602 0.0118326 0.0212473 0.0266997 0.0403332 0.0587408 0.0506599 0.0507815 0.0526581 0.0626137 0.043895 0.0682325 0.0749987 0.064003 0.0633705 0.0683377 0.0517 0.0716844
40 3 O 1.36075 63.1517 4.7667 -1.2 1 0.0260973 0.026905 0.0179477 0.032262 0.0170355 0.0257611 0.0400824 0.0491321 0.0554623 0.038169 0.0480785 0.0432793 0.0704235 0.0822935 0.0861178 0.0764231 0.0702576 0.0736531 0.0616474 0.0485952
41 3 O 1.03388 66.2249 3.80243 -1.2 1 0.0142338 0.0119092 0.0207048 0.0289187 0.0247833 0.0423595 0.0420619 0.0426535 0.0365922 0.0461931 0.0638943 0.0398327 0.0521552 0.0800629 0.07727 0.0681538 0.0624627 0.0700662 0.0714583 0.0705545
42 3 O 0.919617 66.4454 6.28201 -1.2 1 0.0207549 0.016791 0.0208481 0.0220657 0.034842 0.0275651 0.0459018 0.0395581 0.0373632 0.0437942 0.0664763 0.0423227 0.0607466 0.0794231 0.0669277 0.0884049 0.0611318 0.0630726 0.0633676 0.069805
43 1 Mg -0.160883 62.7951 3.48903 1.2 1 0.0142658 0.022379 0.0108664 0.0300854 0.0146306 0.0352124 0.0227535 0.0608573 0.0218637 0.0735866 0.024317 0.0534239 0.0201729 0.0760205 0.0321931 0.0979628 0.0499694 0.104801 0.0521539 0.0832832
44 1 Mg 0.101018 59.7384 5.2516 1.2 1 0.0283853 0.015887 0.0150571 0.028235 0.021903 0.0304791 0.0311468 0.0430969 0.0558366 0.0490554 0.0509326 0.0530772 0.0651845 0.0693358 0.0666628 0.0652315 0.0780419 0.0953064 0.0728594 0.0694813
45 2 Si 1.95383 61.6393 4.86441 2.4 1 0.0248673 0.0121112 0.0285412 0.0252045 0.0343738 0.032547 0.0373145 0.0516782 0.0465972 0.0525042 0.0537203 0.0656341 0.0670676 0.0623071 0.0731726 0.0730219 0.0577411 0.0899548 0.0643705 0.0569365
46 3 O -1.31037 61.6575 4.89233 -1.2 1 0.0307616 0.0118135 0.0218441 0.01834 0.0337143 0.0354149 0.0249227 0.0572282 0.047524 0.0609089 0.0379064 0.0660061 0.068674 0.0761097 0.062817 0.059137 0.0627228 0.0674825 0.0711386 0.0535938
47 3 O 0.73135 57.8607 5.03117 -1.2 1 0.0141062 0.0172091 0.0171515 0.0259114 0.0202104 0.0321087 0.0348124 0.0504076 0.0654973 0.0402482 0.0447593 0.0440245 0.0606024 0.0651916 0.0989767 0.0743519 0.0680382 0.0479477 0.0631903 0.0660752
48 3 O 1.22858 60.7393 3.76983 -1.2 1 0.0184918 0.0190592 0.0328724 0.0177632 0.0256588 0.0350488 0.032427 0.0455898 0.0444704 0.0454279 0.062018 0.0440638 0.058406 0.0611614 0.0843883 0.0774144 0.0810743 0.070744 0.0672677 0.0534659
49 1 Mg 0.0720137 62.9436 0.420546 1.2 1 0.0260596 0.0224253 0.0110458 0.0278496 0.0134084 0.0369045 0.017063 0.0656605 0.0197245 0.0734796 0.0211023 0.0559833 0.021291 0.0814366 0.0340317 0.0942979 0.0377696 0.107393 0.0421875 0.0840561
50 3 O 1.21539 61.1235 6.1147 -1.2 1 0.0271352 0.0126272 0.0280116 0.022022 0.0339708 0.0258751 0.0449082 0.0438121 0.0355985 0.045584 0.0546092 0.0462278 0.0484553 0.066442 0.0894202 0.0696167 0.0804822 0.0640632 0.0625045 0.0664735
51 1 Mg 0.192365 65.9299 1.91232 1.2 1 0.0134633 0.0107131 0.0228207 0.0293388 0.0199742 0.0305466 0.0263065 0.0396281 0.0536661 0.0553103 0.0587875 0.0631593 0.0510492 0.0593892 0.069964 0.0614325 0.0880531 0.0845106 0.0611218 0.0785997
52 2 Si -2.08822 63.8846 1.95979 2.4 1 0.012217 0.0148239 0.0191549 0.0331872 0.0376857 0.0300527 0.0370065 0.0412768 0.0544547 0.0684361 0.05572 0.0601357 0.0822776 0.0513307 0.074524 0.0621255 0.0646793 0.0785945 0.0654052 0.0687224
53 3 O 1.08749 63.8307 1.88427 -1.2 1 0.0151176 0.0226125 0.0115644 0.0246686 0.0259101 0.0343211 0.024734 0.0759425 0.0420397 0.0750742 0.0372149 0.0685074 0.060135 0.0729348 0.0687915 0.0755934 0.0644221 0.0754426 0.0527884 0.0694282
54 3 O -0.503483 67.9311 2.01333 -1.2 1 0.0199032 0.0281529 0.0214887 0.0340149 0.0250619 0.0350515 0.0401501 0.0440969 0.0742044 0.0418285 0.0492268 0.0356492 0.0660501 0.0797746 0.0872561 0.0738399 0.0740955 0.0611311 0.068531 0.0565197
55 3 O -1.25261 64.6067 0.769211 -1.2 1 0.0229989 0.00771028 0.024469 0.0205745 0.0257142 0.0303552 0.0573692 0.0503125 0.0321712 0.0488622 0.0659938 0.043355 0.0561711 0.0615873 0.0777937 0.0824616 0.0789935 0.0580021 0.0593936 0.0593134
56 3 O -1.49084 64.473 3.34559 -1.2 1 0.0127206 0.0256398 0.0200384 0.0269282 0.0379064 0.0318968 0.0485517 0.0438093 0.0424382 0.0593101 0.0592755 0.0547425 0.0537609 0.0799855 0.0693265 0.0826106 0.0721155 0.0491156 0.0713154 0.0758355
57 1 Mg -1.96249 68.6106 0.52124 1.2 1 0.0137094 0.029362 0.00842841 0.0298231 0.025104 0.0366366 0.0276042 0.0616118 0.0409699 0.0626063 0.0450574 0.0397681 0.0367461 0.0683155 0.0568157 0.0933523 0.0639491 0.0912045 0.0585277 0.0702121
58 1 Mg 2.96789 71.323 1.83584 1.2 1 0.0354513 0.0134347 0.0196097 0.0192027 0.0147104 0.0331072 0.0265592 0.0435039 0.0514054 0.0489392 0.0576818 0.0552557 0.0522044 0.0708301 0.0685731 0.0668696 0.0819011 0.0988994 0.0669311 0.0728445
59 2 Si 0.0517023 69.3533 2.06145 2.4 1 0.0307282 0.0113615 0.0198286 0.028051 0.0384151 0.0322457 0.0405941 0.0493235 0.0557243 0.0617308 0.0538202 0.0646567 0.0726168 0.0538748 0.0650784 0.0722766 0.073741 0.0764437 0.0683265 0.05549
60 3 O 1.66518 69.2326 1.87603 -1.2 1 0.0252054 0.0240322 0.0206656 0.0187305 0.0314388 0.0320861 0.0295034 0.0788135 0.040629 0.0682935 0.0445845 0.0596944 0.0529719 0.0793208 0.0644129 0.0689494 0.0495959 0.0691748 0.0653329 0.0753671
61 3 O -0.968731 73.2781 2.15958 -1.2 1 0.0189258 0.0249718 0.0194673 0.0262454 0.0210882 0.027115 0.0377383 0.0462294 0.0565537 0.0384571 0.0514696 0.0499672 0.0666715 0.0712973 0.0879109 0.0695204 0.0682631 0.0685546 0.0646921 0.0542419
62 3 O -0.60362 70.0989 0.823898 -1.2 1 0.0135113 0.0147226 0.0255542 0.0211588 0.0366519 0.0251388 0.0438128 0.045873 0.0349048 0.0416341 0.0585908 0.0422987 0.0535349 0.0686284 0.075129 0.0778493 0.0674364 0.0677014 0.0717643 0.0684604
63 1 Mg -1.96957 78.8826 3.20519 1.2 1 0.0379721 0.0200707 0.0132451 0.0313835 0.017601 0.0376399 0.0265378 0.0646324 0.0213767 0.080291 0.024899 0.0502699 0.0300847 0.0801456 0.0283918 0.110083 0.0370186 0.10679 0.0324393 0.0894118
64 3 O -0.554631 70.237 3.31105 -1.2 1 0.0241743 0.0253811 0.0212155 0.0125934 0.0238693 0.0330937 0.0437104 0.047985 0.035035 0.0444788 0.0600848 0.0334079 0.0604509 0.0691509 0.0749247 0.0747379 0.0579947 0.0579371 0.0654296 0.0692652
65 1 Mg -2.19896 75.7 4.69713 1.2 1 0.0281779 0.0148225 0.0201712 0.022055 0.0183748 0.0305106 0.0290471 0.0360832 0.0535405 0.0531305 0.0523305 0.0584725 0.0564547 0.0654063 0.077883 0.0556197 0.0771755 0.0905491 0.0511252 0.069521
66 2 Si 0.699302 77.5014 4.83623 2.4 1 0.0389192 0.027814 0.0270675 0.0338929 0.0380095 0.0399806 0.0307815 0.0465574 0.0607211 0.0555121 0.0587251 0.0749025 0.0519517 0.0666977 0.0626388 0.0777965 0.0607168 0.0847584 0.0598245 0.0683772
67 3 O -0.856297 77.9156 4.83581 -1.2 1 0.0299116 0.0279543 0.0177177 0.018558 0.0271244 0.0272555 0.0259925 0.0799607 0.0510522 0.0648114 0.0436793 0.0546308 0.0659341 0.068958 0.0732863 0.0642542 0.0556857 0.0691725 0.0683495 0.0658534
68 3 O 1.65691 73.9652 4.57888 -1.2 1 0.022535 0.0270702 0.0169488 0.0268149 0.0101887 0.0298502 0.0407093 0.0463475 0.051885 0.0364478 0.0504723 0.0477843 0.0636179 0.06949 0.0870577 0.0726963 0.0792415 0.0578529 0.0683313 0.0619063
69 3 O 1.30792 76.9303 3.60484 -1.2 1 0.0324517 0.033631 0.0184676 0.0146816 0.0261076 0.0297465 0.0388321 0.0446169 0.0414631 0.0490216 0.0558889 0.0484575 0.0545302 0.0732083 0.083902 0.0757413 0.0659373 0.0711002 0.0609595 0.0766237
70 3 O 1.57321 77.0088 6.11493 -1.2 1 0.00574016 0.0238498 0.0149511 0.0321808 0.0313652 0.0211947 0.0429758 0.0385728 0.0346509 0.0432765 0.0647854 0.033985 0.0518007 0.0568257 0.0875811 0.0812554 0.0781671 0.062942 0.0586132 0.0737206
71 1 Mg 0.437389 73.3689 3.20928 1.2 1 0.0182075 0.0271597 0.014341 0.0246559 0.0174345 0.0433821 0.023065 0.0527585 0.0337116 0.0729362 0.0350166 0.0579113 0.0322124 0.0712539 0.0442424 0.0944547 0.05561 0.10836 0.0545062 0.0829676
72 1 Mg 0.283533 70.564 4.95106 1.2 1 0.0201905 0.0162444 0.0262243 0.029308 0.013962 0.0346651 0.033204 0.0376279 0.0494728 0.0552264 0.0581675 0.0593234 0.0597502 0.0701899 0.0702627 0.071595 0.0772736 0.0886362 0.0670548 0.0770399
73 2 Si 2.37963 72.388 4.73181 2.4 1 0.03216 0.0353797 0.0182962 0.0213409 0.0318242 0.0383166 0.0370686 0.041257 0.0598487 0.0676136 0.0562722 0.0751736 0.0641963 0.0658597 0.0698071 0.0744074 0.0643357 0.0768077 0.0687593 0.0627893
74 3 O -0.766336 72.5413 4.85516 -1.2 1 0.0229634 0.0401886 0.00871529 0.0268711 0.0245836 0.0354071 0.0281433 0.0809732 0.0380632 0.0603931 0.0381991 0.0761063 0.0635071 0.0624911 0.0724258 0.0668403 0.0569777 0.0715859 0.0683249 0.0678039
75 3 O 1.19683 68.5675 4.89955 -1.2 1 0.00886603 0.0173998 0.0316968 0.0332594 0.0211925 0.0339633 0.0386647 0.0416305 0.0585945 0.0382812 0.0527343 0.0510377 0.0621147 0.0768327 0.0915584 0.0788005 0.0812119 0.0517391 0.0637687 0.0614069
76 3 O 1.76422 71.8316 3.48467 -1.2 1 0.021811 0.0204874 0.0279467 0.0193988 0.0310497 0.0262813 0.056705 0.0480116 0.0469313 0.0555034 0.0601411 0.0395589 0.0632728 0.0737534 0.0852476 0.0822156 0.0734385 0.0535839 0.056389 0.0776917
77 1 Mg 0.473162 74.0754 0.239344 1.2 1 0.00439576 0.0209831 0.0120718 0.0223646 0.0194422 0.0264083 0.0323254 0.0459516 0.0547796 0.0606199 0.0426501 0.042152 0.0420615 0.0562681 0.0566432 0.0793509 0.0900072 0.0812117 0.0758291 0.0635936
78 3 O 1.77471 71.6083 6.00478 -1.2 1 0.0255052 0.0331466 0.0244517 0.0179126 0.0309611 0.0253162 0.0417845 0.0485975 0.0467713 0.0432827 0.0643013 0.0336721 0.0609664 0.0577049 0.0733326 0.087374 0.0762998 0.0695166 0.0612593 0.0669862
79 1 Mg 0.344412 76.6002 1.98933 1.2 1 0.0110443 0.024418 0.0221817 0.0363896 0.0218 0.029727 0.0293476 0.036799 0.048877 0.0593693 0.0585564 0.0492401 0.0652417 0.0664294 0.0635157 0.0635567 0.0817115 0.0920782 0.0725939 0.0703991
80 2 Si -1.69185 74.7387 1.95129 2.4 1 0.0193481 0.0208283 0.0374787 0.0170126 0.0335493 0.0303973 0.0414875 0.0456373 0.0510673 0.0536361 0.0560406 0.0596597 0.0637851 0.0577235 0.0712495 0.0690147 0.0650209 0.101039 0.0600779 0.0653466
81 3 O 1.56405 74.5491 1.85391 -1.2 1 0.023403 0.0262622 0.0152979 0.0196455 0.0252437 0.0311185 0.0291813 0.0785439 0.0409531 0.0563351 0.0334594 0.0674133 0.0606111 0.0665744 0.0765208 0.0548786 0.0602608 0.0651133 0.0585577 0.0674294
82 3 O -0.574476 78.4703 1.55992 -1.2 1 0.0173428 0.0205352 0.0212429 0.0282385 0.0256319 0.0416631 0.0401645 0.0440791 0.0527867 0.0442863 0.0504746 0.0438967 0.0660106 0.0667887 0.0947462 0.0696013 0.0728665 0.062652 0.0793974 0.0604029
83 3 O -1.01001 75.3793 0.630299 -1.2 1 0.0121435 0.0191285 0.0231085 0.0209323 0.0235521 0.0264449 0.0460181 0.0501659 0.0396435 0.048854 0.0536866 0.0406822 0.0688473 0.0650002 0.081461 0.0933482 0.0691107 0.0662244 0.0653352 0.058348
84 3 O -1.14658 75.6173 3.00464 -1.2 1 0.0330987 0.0343238 0.0344167 0.0160208 0.0325057 0.0287612 0.0383863 0.0510451 0.0434639 0.0521913 0.0582194 0.0412996 0.0552479 0.0693544 0.0756107 0.0749611 0.0644636 0.0627674 0.0664571 0.0704022
85 1 Mg -1.77835 78.9835 0.149456 1.2 1 0.0231522 0.0121539 0.0258178 0.0348081 0.0178842 0.0406427 0.0249015 0.0573141 0.0236391 0.06907 0.0330092 0.0473241 0.0368758 0.0666644 0.0370805 0.0968082 0.0501789 0.0991304 0.0386516 0.0782196
86 1 Mg 2.8573 81.9887 1.62475 1.2 1 0.0142707 0.0120314 0.015925 0.0338401 0.0178585 0.0337876 0.032645 0.0306011 0.0496761 0.0590298 0.0599812 0.0695479 0.0442057 0.0604497 0.0710539 0.0771504 0.0711726 0.0916077 0.0508352 0.0929095
87 2 Si 0.120032 79.9341 1.67156 2.4 1 0.0184789 0.019697 0.0270096 0.0287389 0.0334124 0.0375968 0.0402326 0.0444627 0.0464152 0.0544613 0.0420232 0.0704415 0.0731944 0.0579647 0.0809602 0.0697434 0.0588956 0.0869562 0.0605991 0.0655715
88 3 O 1.6542 79.9183 1.70184 -1.2 1 0.0244024 0.00988477 0.0279036 0.0178052 0.0322277 0.0314727 0.026643 0.0757809 0.0350539 0.0634255 0.0420425 0.067531 0.053049 0.069916 0.0754069 0.0668166 0.0610685 0.0745224 0.0620484 0.0737853
89 3 O -1.16613 84.0656 1.58795 -1.2 1 0.0139712 0.0231267 0.0162944 0.0360606 0.0172878 0.0269732 0.0367034 0.0429093 0.0567032 0.0496498 0.0589966 0.0457104 0.0643039 0.0744708 0.0876795 0.072878 0.0754053 0.0615033 0.0748185 0.0518604
90 3 O -0.58365 80.6029 0.396485 -1.2 1 0.0208004 0.012228 0.0311515 0.0308536 0.0354251 0.0324776 0.0535146 0.0492393 0.0451227 0.0533709 0.0554808 0.0465942 0.0464949 0.0613938 0.0785623 0.078702 0.0633825 0.0628305 0.0631281 0.0756325
91 1 Mg -2.25617 89.8489 2.88031 1.2 1 0.00778039 0.0189785 0.0116585 0.0310689 0.018277 0.0428618 0.0184544 0.0631601 0.0216066 0.0746876 0.0265131 0.0441349 0.034982 0.0760332 0.0362567 0.0910703 0.0547466 0.106261 0.0455691 0.0858315
92 3 O -0.547611 80.4862 3.09583 -1.2 1 0.0133034 0.0258041 0.0167257 0.0186926 0.0440881 0.0207169 0.0515838 0.0500996 0.0526672 0.0395075 0.0591457 0.0572496 0.0508968 0.0833967 0.0868086 0.067901 0.0742115 0.0709578 0.0682568 0.0766598
93 1 Mg -2.1501 86.9459 4.66064 1.2 1 0.0138286 0.0235559 0.0256393 0.0346712 0.0156672 0.0235814 0.0312217 0.0344333 0.0499886 0.0632256 0.069409 0.058013 0.0622327 0.0697441 0.0627797 0.0742483 0.0704918 0.0959153 0.0642732 0.0783238
94 2 Si 0.477333 88.7483 4.48903 2.4 1 0.0081286 0.0335263 0.0224796 0.0228715 0.031707 0.0408283 0.0365069 0.0458926 0.0529098 0.0630084 0.0560939 0.0639023 0.0625448 0.071671 0.0809606 0.0680502 0.057717 0.079826 0.0735089 0.0720501
95 3 O -1.14747 88.9611 4.5285 -1.2 1 0.0112053 0.0453368 0.0149763 0.0301946 0.0249335 0.0316006 0.0315109 0.0663424 0.0428428 0.0661668 0.0392267 0.0781699 0.0588411 0.077197 0.0677249 0.0763535 0.060845 0.0719299 0.0621857 0.0642106
96 3 O 1.88531 85.1694 4.65728 -1.2 1 0.0086857 0.0308073 0.0215058 0.0237609 0.0297575 0.0364325 0.0360194 0.0517046 0.0449217 0.0485435 0.0556833 0.049969 0.0572034 0.0682052 0.0950554 0.0669276 0.076472 0.0623197 0.0661907 0.0561318
97 3 O 1.49874 88.1236 3.31642 -1.2 1 0.0197508 0.0287756 0.0251776 0.0317942 0.0347775 0.0223469 0.0509898 0.0409976 0.0356142 0.0440317 0.058683 0.0474625 0.062094 0.0569693 0.0853542 0.063435 0.073284 0.0687638 0.055739 0.0536533
98 3 O 1.14229 88.3755 5.88057 -1.2 1 0.0283943 0.0185208 0.0336005 0.0153257 0.031826 0.0307811 0.0511211 0.0411783 0.0420799 0.0527908 0.0539282 0.0504059 0.055536 0.0823159 0.0760517 0.0774078 0.0766424 0.0631294 0.0648751 0.0618826
99 1 Mg 0.591777 84.4764 3.33259 1.2 1 0.0244549 0.0160469 0.00983666 0.0383585 0.0177914 0.0358485 0.0318211 0.0575256 0.0218118 0.0683612 0.0310932 0.0487962 0.0369153 0.0701719 0.0453646 0.0952047 0.0552115 0.0870475 0.0565165 0.0716467
100 1 Mg 0.543119 81.3177 4.73598 1.2 1 0.012661 0.0194295 0.0244529 0.028828 0.0178587 0.0261899 0.0279689 0.0401325 0.052069 0.0521796 0.0679652 0.0621507 0.0494828 0.0581054 0.0757721 0.0733673 0.0744422 0.0886645 0.0541914 0.0892862
101 2 Si 2.56652 83.4262 4.79915 2.4 1 0.00868563 0.013138 0.0215685 0.0329775 0.0381487 0.0381881 0.0402664 0.042727 0.0601293 0.0630352 0.0490488 0.0555753 0.0716603 0.0605664 0.0693224 0.0697996 0.066008 0.0751384 0.0664038 0.0558918
102 3 O -0.630483 83.5385 4.51285 -1.2 1 0.0156253 0.0207212 0.0229706 0.0281543 0.0275136 0.028239 0.0268492 0.0680688 0.0489446 0.0748712 0.0395258 0.0629607 0.0523077 0.0757858 0.0678778 0.069714 0.067016 0.0637355 0.0484382 0.0750175
103 3 O 1.34996 79.3621 4.79515 -1.2 1 0.0198695 0.0283969 0.0169736 0.0333558 0.0160464 0.0289425 0.0446241 0.0454061 0.0586634 0.0446851 0.0616987 0.0413451 0.0638558 0.0756559 0.0940155 0.0727925 0.0731382 0.0659255 0.0768141 0.0485816
104 3 O 1.82322 82.5224 3.58631 -1.2 1 0.0129978 0.0198737 0.0277752 0.0301724 0.0435774 0.0310786 0.0464853 0.0522493 0.0372816 0.0343277 0.0618843 0.0425082 0.0565929 0.0598568 0.0785825 0.0795024 0.0744684 0.0672709 0.0587127 0.067885
105 1 Mg 0.443547 84.8452 -0.260863 1.2 1 0.0112177 0.017838 0.00974 0.0296495 0.0320753 0.0325587 0.0392169 0.0499166 0.0617818 0.0576414 0.0428706 0.0540503 0.0425678 0.0549268 0.0651718 0.0863324 0.0826683 0.063356 0.0762458 0.0673803
106 3 O 1.90499 83.1003 6.15111 -1.2 1 0.0173749 0.0177188 0.0198611 0.0227441 0.0371445 0.0291678 0.0511366 0.0433511 0.054197 0.0452684 0.0526959 0.0523632 0.0471799 0.0752885 0.0771538 0.0733974 0.0720411 0.0687447 0.0651118 0.0680053
107 1 Mg 0.331473 87.6858 1.40902 1.2 1 0.013465 0.026064 0.0217295 0.0257394 0.0256009 0.0301929 0.035267 0.0350158 0.0481636 0.0613268 0.0515225 0.0643503 0.0595958 0.0572509 0.0686273 0.0595581 0.090817 0.0929443 0.0660968 0.0686601
108 2 Si -1.64799 85.6809 1.6072 2.4 1 0.0215379 0.0179098 0.0177207 0.0371893 0.0420162 0.0422969 0.0351154 0.0406965 0.0605445 0.0598602 0.0591892 0.0642922 0.0785974 0.0537232 0.072966 0.0677668 0.0589418 0.090906 0.064958 0.0680002
109 3 O 1.45799 85.609 1.42001 -1.2 1 0.0272317 0.0210121 0.0129121 0.0188565 0.0318522 0.0310436 0.0312027 0.0670166 0.0480045 0.0682928 0.033592 0.0613465 0.0580722 0.077709 0.0745053 0.0593969 0.0569271 0.0720139 0.0658646 0.0627317
110 3 O -0.622508 89.5178 1.77495 -1.2 1 0.0112485 0.0172467 0.0272391 0.0241884 0.0196302 0.0264423 0.0367181 0.0503147 0.0608239 0.0381281 0.0508119 0.0474056 0.0685807 0.0717203 0.088273 0.0671592 0.0687487 0.0587566 0.0663594 0.052666
111 3 O -1.07073 86.474 0.311986 -1.2 1 0.0248536 0.0267961 0.0251338 0.0253747 0.0372145 0.0377903 0.0336597 0.0417119 0.0410559 0.0547627 0.0534927 0.0470496 0.0570898 0.0742596 0.0701053 0.0773658 0.0639653 0.056765 0.0693951 0.0610222
112 3 O -0.832375 86.2096 2.83816 -1.2 1 0.0264383 0.0248602 0.0313309 0.0379696 0.0308386 0.0289615 0.0520664 0.0480495 0.0464606 0.0425456 0.0626558 0.0487021 0.0562757 0.0645492 0.0920405 0.0634 0.0757255 0.0642042 0.06234 0.0630446
113 1 Mg -2.24828 89.8732 -0.415649 1.2 1 0.0290859 0.0123192 0.0217837 0.0358227 0.0348802 0.0316703 0.0332753 0.057709 0.0323996 0.059871 0.0422495 0.0548288 0.0413224 0.0705568 0.0628414 0.0841766 0.0780447 0.0564381 0.069815 0.0653701
114 1 Mg 2.70602 92.8412 1.54186 1.2 1 0.0102366 0.0191211 0.0216657 0.036952 0.0212533 0.0224574 0.0330435 0.0274757 0.0527528 0.0661824 0.0552409 0.0566562 0.059723 0.062664 0.0653017 0.0748378 0.0712336 0.104019 0.0575137 0.0810015
115 2 Si -0.100899 90.9654 1.53563 2.4 1 0.0179002 0.0205189 0.0251242 0.0292171 0.0343874 0.0427466 0.035265 0.0422155 0.0542449 0.0581606 0.044983 0.0661253 0.0797614 0.0561557 0.078161 0.0597497 0.0560766 0.0940277 0.0712852 0.0586354
116 3 O 1.45788 90.8289 1.57162 -1.2 1 0.0144034 0.0266042 0.0174642 0.0224418 0.0264484 0.0304196 0.0333496 0.0767403 0.0484246 0.0559186 0.0463778 0.0727397 0.0548624 0.0681579 0.0700274 0.0661491 0.0587224 0.0762253 0.0646495 0.0664231
117 3 O -1.04321 95.0327 1.29149 -1.2 1 0.0115071 0.0280998 0.0170234 0.0310373 0.0330135 0.0307543 0.0442598 0.0495836 0.0523562 0.038676 0.0544094 0.047974 0.0612863 0.0801561 0.0865089 0.0724547 0.0758406 0.0578394 0.0676596 0.0614696
118 3 O -0.816597 91.3393 0.0885789 -1.2 1 0.0122594 0.0165377 0.032728 0.0221176 0.0293593 0.0300379 0.0529496 0.0439193 0.0492464 0.0380806 0.0499021 0.0574152 0.0502406 0.0619331 0.0968394 0.0741281 0.0805232 0.0697041 0.0680462 0.0649456
119 1 Mg -2.15776 101.195 2.9889 1.2 1 0.0272943 0.0300978 0.0168437 0.0361416 0.0215123 0.0322715 0.0250836 0.0563525 0.0414192 0.0621741 0.0488676 0.0368892 0.0407591 0.0657522 0.0654776 0.0857045 0.0769104 0.07492 0.0634933 0.0717131
120 3 O -0.634702 91.8784 2.60538 -1.2 1 0.0332096 0.0271834 0.0178193 0.0160177 0.0225643 0.0315737 0.0397766 0.0561116 0.0467897 0.0417198 0.0535034 0.0440615 0.0519218 0.0779732 0.0824726 0.0757258 0.0741922 0.082351 0.0578807 0.0638035
121 1 Mg -2.30946 97.5588 4.38389 1.2 1 0.0112787 0.0152014 0.0196095 0.0315806 0.0177982 0.0310647 0.0275657 0.0419657 0.0477939 0.0576137 0.0587558 0.0559216 0.0556676 0.0630054 0.0637528 0.0716783 0.0850783 0.0863165 0.0664142 0.0722941
122 2 Si 0.399069 99.6133 4.54894 2.4 1 0.0103578 0.0142446 0.0268604 0.0295114 0.0384033 0.038362 0.0325792 0.044973 0.0518048 0.0492855 0.0562115 0.0650272 0.0741027 0.0584536 0.0749768 0.0665724 0.0699946 0.0741357 0.0635645 0.0568072
123 3 O -1.05577 99.8252 4.45591 -1.2 1 0.0176099 0.0272106 0.0280665 0.0134691 0.0239352 0.0254977 0.0370183 0.0687162 0.0383638 0.0678553 0.040521 0.0729687 0.0554243 0.0647667 0.0677246 0.0726855 0.0595049 0.0654592 0.0543277 0.076481
124 3 O 1.70088 95.6005 4.42325 -1.2 1 0.0170668 0.0298627 0.0161626 0.0262192 0.0202095 0.029473 0.0396733 0.0491789 0.0623888 0.0378095 0.0529786 0.0453538 0.0718312 0.0754046 0.0908369 0.0660453 0.0767839 0.0636024 0.0605314 0.0610345
125 3 O 1.24833 98.7465 3.22082 -1.2 1 0.0143323 0.0128984 0.0274783 0.0257313 0.0318346 0.0286789 0.0437614 0.0410583 0.032946 0.0531685 0.0575217 0.0391938 0.065269 0.0551599 0.0714692 0.0804513 0.0667218 0.0692508 0.062609 0.0539424