ITEM: TIMESTEP
53700
ITEM: NUMBER OF ATOMS
5600
ITEM: BOX BOUNDS xy xz yz pp pp pp
0	7.1235	0
0	201.985	2.3745
0	119.584	0
ITEM: ATOMS id type element xu yu zu q Q_1 Q_2 Q_3 Q_4 Q_5 Q_6 Q_7 Q_8 Q_9 Q_10 Q_11 Q_12 Q_13 Q_14 Q_15 Q_16 Q_17 Q_18 Q_19 Q_20 Q_21
1 1 Mg -1.39735 48.3312 -1.46874 1.2 1 0.500661 0.0228575 0.132326 0.0423026 0.081316 0.0362499 0.0523303 0.0506653 0.0657176 0.0798652 0.0740041 0.0767513 0.0963229 0.096751 0.114626 0.10373 0.0820652 0.0986834 0.105411 0.0979913
2 1 Mg 3.06582 51.1906 1.48484 1.2 1 0.233383 0.106139 0.0440603 0.047506 0.0367934 0.0357241 0.0467522 0.0501927 0.0650397 0.0610254 0.0740204 0.0678424 0.0684244 0.0654443 0.0772013 0.0749134 0.0759965 0.0883352 0.0905477 0.0717206
3 2 Si 0.995627 49.9203 -0.110776 2.4 1 0.337047 0.103512 0.056364 0.0701938 0.0428766 0.0640814 0.0535142 0.0783943 0.0570702 0.0841037 0.0596181 0.077274 0.0594031 0.0791999 0.101649 0.0859386 0.0872283 0.0842317 0.0789965 0.0797257
4 3 O 1.88234 48.6593 -0.250928 -1.2 1 0.472541 0.0275245 0.108218 0.0414093 0.0831243 0.0464624 0.0763403 0.0695695 0.0823753 0.0682652 0.0761343 0.0710241 0.0915413 0.0864318 0.0627196 0.0898468 0.102474 0.0980716 0.101663 0.0931039
5 3 O -1.33991 53.4318 1.29711 -1.2 1 0.0951651 0.0541328 0.0451924 0.0264686 0.0264505 0.0304999 0.0428894 0.0438485 0.0647565 0.0507531 0.0577577 0.0531709 0.0581968 0.0688803 0.0875249 0.0635312 0.0737115 0.0716563 0.0667657 0.0736525
6 3 O -0.097759 49.7528 -1.30904 -1.2 1 0.351928 0.107992 0.0795128 0.0603748 0.0336202 0.0598307 0.031386 0.0423731 0.0546978 0.0820312 0.0629156 0.0798516 0.101143 0.100906 0.0869986 0.087377 0.0881448 0.0700764 0.0669989 0.0900764
7 1 Mg -2.297 58.7853 2.9644 1.2 1 0.0114409 0.0153353 0.015209 0.0303959 0.0234244 0.0356788 0.0182189 0.05769 0.0220397 0.0781373 0.0302818 0.0528653 0.0263221 0.063655 0.0377036 0.0969434 0.0469688 0.101923 0.0528366 0.0907625
8 3 O 0.0953399 50.2396 1.19518 -1.2 1 0.309562 0.142387 0.0615439 0.0567002 0.0208624 0.0428712 0.0622744 0.051888 0.0674132 0.0763859 0.0642134 0.0641095 0.0555591 0.0610151 0.100491 0.0803791 0.0772258 0.0932775 0.0895163 0.0756325
9 1 Mg -2.023 56.1506 4.48347 1.2 1 0.0169232 0.0238287 0.020504 0.021928 0.0204005 0.0286853 0.0292922 0.0240811 0.0432193 0.05986 0.0660716 0.0581308 0.0495167 0.0626023 0.0616875 0.0815432 0.0691887 0.0831988 0.0661089 0.0770739
10 2 Si 0.46283 57.9069 4.44176 2.4 1 0.00860599 0.0219839 0.0260231 0.0409825 0.0258166 0.0290277 0.0472471 0.0416984 0.0546991 0.0611299 0.0513546 0.0723225 0.0713306 0.057447 0.0800251 0.0660309 0.0638762 0.0862307 0.0615036 0.0739215
11 3 O -1.06934 58.0442 4.41736 -1.2 1 0.037177 0.0217539 0.0140481 0.0205134 0.021249 0.0311642 0.0182261 0.0699072 0.0403414 0.0584944 0.0451847 0.0637331 0.0582842 0.0652645 0.0725488 0.0760061 0.060817 0.0728812 0.0503186 0.0782062
12 3 O 1.44456 54.3433 4.34485 -1.2 1 0.0740263 0.030641 0.0326542 0.0243338 0.031081 0.0290742 0.0337777 0.0366117 0.0423897 0.0500055 0.059329 0.0582597 0.0707061 0.0683204 0.0811884 0.0734989 0.0750702 0.06225 0.0730557 0.0671358
13 3 O 1.00185 57.2265 3.09197 -1.2 1 0.0224549 0.0151113 0.0198265 0.0114406 0.028431 0.0339027 0.0463182 0.0478871 0.0479586 0.0486522 0.0479834 0.0445807 0.056256 0.0714619 0.078372 0.0741955 0.0639062 0.0710159 0.0635873 0.0724774
14 3 O 1.32646 57.2315 5.59105 -1.2 1 0.0057834 0.0116235 0.0210202 0.0189346 0.0180287 0.0240355 0.0531648 0.0431713 0.0403409 0.0446549 0.0562541 0.0478856 0.0513993 0.0483492 0.090346 0.070526 0.0694754 0.0585398 0.0638961 0.0643326
15 1 Mg -0.0567326 54.1149 2.87153 1.2 1 0.0638379 0.0464738 0.0367124 0.0310006 0.0194391 0.0322046 0.0300301 0.0464626 0.0576663 0.0605927 0.0503749 0.0588202 0.0540454 0.0504296 0.0679269 0.0867622 0.0743779 0.0897528 0.077601 0.0644374
16 1 Mg 0.712445 50.3615 3.05755 1.2 1 0.28813 0.12637 0.0291907 0.0767518 0.0444167 0.0403082 0.0489075 0.0416394 0.0550744 0.0724628 0.0602399 0.0669416 0.0694361 0.0603908 0.0987565 0.0670265 0.0891263 0.0772863 0.0844958 0.0814473
17 2 Si 2.14506 52.8037 4.1834 2.4 1 0.117431 0.076892 0.0567157 0.0284144 0.0161389 0.0333609 0.0427586 0.0554296 0.0434332 0.078408 0.0708408 0.0797862 0.0617057 0.0765696 0.0686192 0.0859476 0.07183 0.0873629 0.0709459 0.0740364
18 3 O -1.05269 52.8643 4.34017 -1.2 1 0.143123 0.0684547 0.0524065 0.0355322 0.0147093 0.0177661 0.0457524 0.0396638 0.0493671 0.0675129 0.0504 0.0824115 0.0477674 0.0709333 0.063208 0.0795538 0.0716564 0.0777852 0.0855271 0.0764624
19 3 O 2.54643 49.6299 3.02491 -1.2 1 0.356391 0.11415 0.0638995 0.0803289 0.0280546 0.057863 0.0534647 0.0683681 0.0738053 0.065648 0.0596109 0.0654368 0.0711035 0.0847283 0.107026 0.0886301 0.0948074 0.0874741 0.0878295 0.0847644
20 3 O 1.42285 52.286 2.79605 -1.2 1 0.157377 0.0898762 0.0427505 0.0175603 0.0250643 0.0322488 0.054049 0.0334006 0.0653488 0.0555033 0.0640098 0.0478818 0.0679764 0.0760423 0.0701722 0.0764548 0.0792804 0.0701137 0.0959432 0.0791299
21 1 Mg 0.140798 53.643 -0.123625 1.2 1 0.0750088 0.0598382 0.0404694 0.0321733 0.0316695 0.0297132 0.0439603 0.0642279 0.0373165 0.0694418 0.0510824 0.0511811 0.0517887 0.0711786 0.0540114 0.0878992 0.0796445 0.0828101 0.0609957 0.072593
22 3 O 1.53335 51.9573 5.32661 -1.2 1 0.176395 0.0939539 0.0339034 0.0180268 0.0317017 0.0309189 0.0376453 0.0668738 0.05973 0.0531962 0.0580026 0.0619343 0.0687383 0.0526889 0.0832185 0.0678875 0.0888197 0.0738705 0.0724368 0.0772584
23 1 Mg 0.133005 56.7987 1.48992 1.2 1 0.0309479 0.0144682 0.0143946 0.0236766 0.0217047 0.0206803 0.0262143 0.0420051 0.0353293 0.0565903 0.0514909 0.0634968 0.0600027 0.0750315 0.0751555 0.0614801 0.0932276 0.0870518 0.064709 0.0807615
24 2 Si -2.08135 54.8479 1.24917 2.4 1 0.0382004 0.0229263 0.0334198 0.0403503 0.0139635 0.0309326 0.0427386 0.0435128 0.044001 0.0704884 0.0615567 0.0567701 0.0637657 0.0678461 0.0662419 0.0610778 0.0742323 0.0775112 0.0602527 0.0726819
25 3 O 1.17525 54.8688 1.33247 -1.2 1 0.0440309 0.0148003 0.0247738 0.0309298 0.0167182 0.0298945 0.0329913 0.0637379 0.0386269 0.0622368 0.0474098 0.0498027 0.0593061 0.0687853 0.0722865 0.0612675 0.062231 0.0644907 0.0734193 0.0673168
26 3 O -0.955762 58.4696 1.42652 -1.2 1 0.0168539 0.0169903 0.0214177 0.0203624 0.0188909 0.0369046 0.0325 0.0407424 0.0479576 0.0486146 0.0385933 0.0516707 0.055424 0.0724549 0.0961257 0.0726326 0.0710177 0.0638328 0.0712329 0.0601928
27 3 O -1.29559 55.5681 -0.0992001 -1.2 1 0.029961 0.0224231 0.0278737 0.0263158 0.0215814 0.0310533 0.0386383 0.0435304 0.0399401 0.0461537 0.0568604 0.0432834 0.0509903 0.0571634 0.0751724 0.084783 0.0550358 0.0697231 0.0627074 0.0836141
28 3 O -1.38667 55.5791 2.67551 -1.2 1 0.0259331 0.0116586 0.0253184 0.0271639 0.0202964 0.024217 0.0491627 0.0418462 0.0403016 0.0492095 0.0524146 0.0519393 0.070395 0.0715988 0.0680263 0.0787941 0.0650986 0.0662929 0.0703821 0.0787692
29 1 Mg -2.27246 59.1367 0.0115718 1.2 1 0.0263739 0.0168306 0.015602 0.028549 0.0217523 0.0390717 0.0132864 0.0541843 0.0307682 0.0752837 0.0234787 0.0446738 0.0307562 0.0684406 0.0365287 0.0931028 0.0527543 0.104761 0.064014 0.0932515
30 1 Mg 2.32869 61.8308 1.45949 1.2 1 0.023863 0.0149218 0.021184 0.028022 0.0196841 0.0246936 0.020659 0.0321021 0.0338847 0.0579151 0.0619625 0.0524462 0.0591437 0.0649894 0.0682817 0.0806063 0.0744902 0.0911523 0.0749141 0.0690789
31 2 Si -0.21817 60.0616 1.78759 2.4 1 0.0170357 0.0223428 0.0228471 0.0270621 0.0362573 0.0291402 0.0417792 0.0322416 0.0565607 0.0514609 0.0567789 0.0521474 0.062981 0.0602855 0.0700429 0.0811515 0.0702455 0.0843855 0.0664284 0.0540524
32 3 O 1.31506 59.7887 1.62864 -1.2 1 0.03506 0.0319291 0.0274028 0.0174445 0.0309485 0.0229245 0.0255819 0.0550327 0.0495164 0.0462034 0.0419044 0.0661496 0.0545934 0.065849 0.077829 0.0621767 0.0653045 0.0742352 0.0656777 0.0761435
33 3 O -1.26344 63.7962 1.69712 -1.2 1 0.0207036 0.0194498 0.0299107 0.0212247 0.0165886 0.0367903 0.0329423 0.0393012 0.0619341 0.0387082 0.0497272 0.0438131 0.0581654 0.0655942 0.0931353 0.0834644 0.0568619 0.0517224 0.0726866 0.0580548
34 3 O -0.881583 60.8903 0.529993 -1.2 1 0.0316491 0.0236009 0.0300684 0.0216892 0.0276444 0.03462 0.0273301 0.0434255 0.0413741 0.0463369 0.0524371 0.0389991 0.0629693 0.0612143 0.0832772 0.0715552 0.0664233 0.0939218 0.0583114 0.0700085
35 1 Mg -2.19878 69.5911 3.3175 1.2 1 0.0127932 0.0126499 0.0145864 0.0251054 0.0164735 0.03916 0.0256467 0.0567259 0.0387085 0.0698384 0.0304161 0.0510038 0.0327218 0.0675879 0.0347841 0.0987254 0.0556543 0.109129 0.0671577 0.0773678
36 3 O -0.887548 60.5368 3.04678 -1.2 1 0.0366117 0.015144 0.0203489 0.0191946 0.0242674 0.0200394 0.0421523 0.0429528 0.0529643 0.0472038 0.0554486 0.0371694 0.055061 0.0526541 0.0899226 0.0720734 0.0671129 0.0595796 0.0637762 0.0721259
37 1 Mg -1.94064 66.4617 4.49329 1.2 1 0.0304462 0.0245113 0.0171911 0.0269138 0.0156578 0.0253924 0.0290331 0.0348571 0.0333342 0.0593231 0.0605807 0.058596 0.05978 0.0697739 0.0719187 0.0782884 0.0729086 0.0826339 0.0728611 0.0664452
38 2 Si 0.509382 68.297 4.61953 2.4 1 0.0236817 0.0183578 0.0241511 0.027502 0.0331462 0.0380002 0.0331632 0.0529918 0.0497183 0.0598347 0.0599 0.0661351 0.0642492 0.0534879 0.0688644 0.0721161 0.0749385 0.0979558 0.0557857 0.0638577
39 3 O -1.02723 68.5006 4.64564 -1.2 1 0.0181227 0.0120612 0.0237237 0.0301218 0.0208811 0.0330964 0.0251624 0.0713712 0.0422573 0.0587298 0.0402636 0.0673121 0.0525122 0.0686831 0.068792 0.0627898 0.0619809 0.0757295 0.0606586 0.0826179
40 3 O 1.54595 64.4524 4.45181 -1.2 1 0.0239231 0.0103879 0.0176488 0.0262428 0.0144788 0.0397357 0.0384588 0.0387175 0.0602311 0.0376749 0.0519286 0.0486025 0.0538552 0.0758381 0.104965 0.0652051 0.0726925 0.0495453 0.0862229 0.0562465
41 3 O 1.24055 67.9452 3.23702 -1.2 1 0.00353778 0.00420659 0.0295494 0.0210492 0.025874 0.020887 0.0486273 0.0413856 0.0511314 0.0361416 0.0489857 0.0524538 0.0577695 0.0579313 0.0872206 0.061852 0.0816124 0.0707266 0.0731571 0.0647674
42 3 O 1.06836 67.364 5.65663 -1.2 1 0.0225625 0.0304429 0.0230794 0.0125382 0.0276539 0.0391493 0.0270344 0.0489892 0.0369595 0.0556672 0.0611032 0.0464785 0.0601985 0.0582766 0.0669537 0.0752125 0.0693942 0.0680273 0.0605819 0.0700792
43 1 Mg 0.243053 64.0922 3.01449 1.2 1 0.0122365 0.0181258 0.009095 0.0290151 0.0110017 0.0348605 0.0102809 0.0615888 0.0141933 0.0842117 0.0110507 0.0465596 0.0184285 0.0728853 0.0197542 0.105746 0.0282705 0.118774 0.0337619 0.0924656
44 1 Mg 0.0915813 61.2447 4.62195 1.2 1 0.020795 0.021501 0.0189218 0.0328794 0.0170448 0.0288287 0.0178918 0.0308914 0.040624 0.0564689 0.0579309 0.0518569 0.0614372 0.0712892 0.0682553 0.0855041 0.0762512 0.084694 0.0720817 0.0763969
45 2 Si 2.3075 62.9554 4.43816 2.4 1 0.0271184 0.0115903 0.0116829 0.0242211 0.033241 0.0275351 0.0378542 0.0407544 0.0471731 0.0610754 0.0547007 0.0617932 0.0664465 0.0540514 0.0711715 0.0877227 0.0645036 0.0812925 0.0690638 0.0645574
46 3 O -0.898265 63.1582 4.45907 -1.2 1 0.0296861 0.00393503 0.0135327 0.0229641 0.0294355 0.0228911 0.0224372 0.067859 0.0379949 0.0540829 0.0414805 0.0680933 0.0585328 0.0609124 0.071705 0.0701536 0.0618034 0.0754793 0.0705821 0.069402
47 3 O 1.16104 59.3771 4.42123 -1.2 1 0.0180477 0.0117265 0.0261608 0.019318 0.018372 0.0377042 0.0387867 0.0454502 0.0503123 0.0444295 0.0487463 0.0503659 0.0544955 0.0703088 0.0986187 0.0757422 0.0662375 0.0519852 0.0706089 0.0592065
48 3 O 1.63497 62.3043 3.18825 -1.2 1 0.0127723 0.0166335 0.0286645 0.0223961 0.0211962 0.0229173 0.0423603 0.0418172 0.0367096 0.0599607 0.0572911 0.0281345 0.0574262 0.0676288 0.0725959 0.0822401 0.0765165 0.0693965 0.0618618 0.0671049
49 1 Mg 0.165104 64.0394 0.331239 1.2 1 0.00841815 0.0126335 0.0174627 0.0247554 0.0190919 0.0355462 0.0268892 0.0431763 0.032115 0.0753021 0.0357888 0.0499147 0.0309382 0.06859 0.0374371 0.0999139 0.0612766 0.0918829 0.0608887 0.0720895
50 3 O 1.71769 62.3698 5.84618 -1.2 1 0.0158371 0.0219045 0.0207419 0.0193867 0.0333377 0.0239152 0.0453436 0.038159 0.0444319 0.0517678 0.0458766 0.0357536 0.0579245 0.0650493 0.0667001 0.0753958 0.0665727 0.0706653 0.0670012 0.0792775
51 1 Mg 0.320681 67.0286 1.7308 1.2 1 0.020009 0.0174295 0.0190189 0.0278496 0.0165661 0.0327871 0.0273375 0.033709 0.0387365 0.0583008 0.0593108 0.0558172 0.0579875 0.0657772 0.0679454 0.0803491 0.0682877 0.0863299 0.0730686 0.0674461
52 2 Si -1.97222 65.2418 1.61633 2.4 1 0.0175234 0.0110955 0.0228374 0.0335399 0.0292363 0.0223961 0.0365668 0.0391928 0.043443 0.0566596 0.0595856 0.0689567 0.0655982 0.0604912 0.0787516 0.0752177 0.0586037 0.0889232 0.0629732 0.0637709
53 3 O 1.3013 65.1388 1.62508 -1.2 1 0.024665 0.00671557 0.0166914 0.0254818 0.0217649 0.0245058 0.0267041 0.0659426 0.0439277 0.054322 0.0382352 0.063332 0.0545262 0.067555 0.0681429 0.0604826 0.0592359 0.0728622 0.0609834 0.0743153
54 3 O -0.738697 68.9123 1.62552 -1.2 1 0.0207141 0.0207729 0.0199796 0.0277033 0.0162047 0.0409785 0.0380355 0.0476842 0.0571773 0.0364811 0.0480811 0.0458878 0.050803 0.0695087 0.0978715 0.07089 0.0701159 0.0484622 0.0623787 0.059216
55 3 O -1.24425 65.812 0.318063 -1.2 1 0.0184893 0.0122889 0.0276179 0.0211515 0.0306074 0.0236882 0.0415946 0.0528297 0.0383474 0.0404537 0.0536369 0.0418776 0.0527781 0.0741454 0.0833213 0.0789021 0.0752256 0.0535421 0.053863 0.0710411
56 3 O -1.21516 65.8919 2.8284 -1.2 1 0.0122616 0.0102876 0.023147 0.0172773 0.0254638 0.0199114 0.0479413 0.0448798 0.035915 0.0497357 0.0547876 0.0429601 0.0585959 0.0573352 0.0748538 0.0752374 0.0795831 0.0625248 0.0707839 0.0592968
57 1 Mg -2.21775 69.0817 0.197019 1.2 1 0.0104182 0.028059 0.0246712 0.0298645 0.0235799 0.0317769 0.0235152 0.0449238 0.0424614 0.0657584 0.0408487 0.0461932 0.0432982 0.0629266 0.0559644 0.0931411 0.0639078 0.0875878 0.0689206 0.0653562
58 1 Mg 2.66646 72.3399 1.7244 1.2 1 0.0238534 0.0120266 0.0144009 0.0293303 0.0194261 0.0277928 0.0251927 0.032267 0.0483975 0.0539917 0.0564563 0.0590294 0.055693 0.0701939 0.0571843 0.0670783 0.0795616 0.10409 0.0567523 0.0856998
59 2 Si -0.119488 70.3684 1.65655 2.4 1 0.0176664 0.00843783 0.0219997 0.0315983 0.0320169 0.0333001 0.0440724 0.0378856 0.0494618 0.0606333 0.0576672 0.0672831 0.0722218 0.0535425 0.071626 0.0558812 0.0719331 0.0901816 0.061919 0.061044
60 3 O 1.46504 70.4362 1.77749 -1.2 1 0.0293719 0.015729 0.0200466 0.0258057 0.0229174 0.024869 0.0210881 0.0706484 0.0371855 0.0690207 0.0392013 0.070071 0.0535347 0.0699565 0.0688868 0.0611095 0.0577832 0.0670489 0.0659657 0.0789661
61 3 O -1.31291 74.29 1.86267 -1.2 1 0.0215693 0.0146602 0.0253956 0.0292741 0.0147454 0.0323679 0.0384108 0.0414331 0.0571678 0.0345946 0.056815 0.0382131 0.0622918 0.0717281 0.0959766 0.0660056 0.0713952 0.0562671 0.0750689 0.060242
62 3 O -0.646759 71.124 0.424707 -1.2 1 0.0274201 0.00882182 0.0234318 0.0187917 0.0217333 0.0293378 0.050092 0.0434 0.0356979 0.0545371 0.0472213 0.0412278 0.055567 0.0806765 0.0701875 0.0800619 0.0800561 0.0665834 0.0645984 0.0705517
63 1 Mg -2.68562 79.7756 3.23934 1.2 1 0.0187122 0.0219897 0.0155247 0.0262619 0.0191032 0.0397403 0.0189857 0.0603402 0.0273208 0.0710617 0.0364086 0.0465523 0.0398026 0.0620582 0.0372603 0.0895897 0.0653793 0.0986612 0.0629678 0.0758076
64 3 O -0.754 70.9543 3.01648 -1.2 1 0.0189825 0.00835852 0.0263814 0.0199675 0.0261186 0.021432 0.0539594 0.0441062 0.0477735 0.0471624 0.0526458 0.0475513 0.0584312 0.0665992 0.0789117 0.0754392 0.0810385 0.0548819 0.0667301 0.0705275
65 1 Mg -2.55034 77.0072 4.64518 1.2 1 0.0143511 0.0115332 0.0255652 0.0319491 0.0248027 0.0265096 0.0253784 0.0321023 0.0553628 0.0529797 0.0533037 0.0596398 0.0553697 0.0691092 0.0566122 0.0615133 0.0814759 0.101999 0.0639049 0.0749498
66 2 Si 0.122834 78.8787 4.74613 2.4 1 0.0206769 0.0156731 0.0222202 0.0275075 0.0369078 0.0318295 0.0451097 0.0366265 0.0510797 0.0564333 0.0476954 0.0648885 0.0663887 0.0545567 0.0795386 0.0592049 0.0626067 0.0799735 0.0672742 0.0568126
67 3 O -1.38449 79.1181 4.60343 -1.2 1 0.00952361 0.0155592 0.0202835 0.026329 0.0214817 0.0351169 0.0334843 0.0724216 0.0382667 0.0421928 0.0415482 0.0642651 0.0564103 0.0642384 0.0679816 0.0674661 0.0575074 0.0752291 0.0613431 0.0750441
68 3 O 1.45526 74.9641 4.78257 -1.2 1 0.0130239 0.0144947 0.0187711 0.0247916 0.0205105 0.0288402 0.0381916 0.0464688 0.0628227 0.0323103 0.0567669 0.0368448 0.0604389 0.0765468 0.0848238 0.0670518 0.0705342 0.059617 0.0787252 0.0553132
69 3 O 0.869346 78.1682 3.39937 -1.2 1 0.00925254 0.014892 0.0236832 0.0184853 0.0198328 0.0242798 0.0515083 0.045421 0.0345191 0.0433275 0.0510652 0.0420457 0.0620417 0.0594452 0.0748538 0.0809017 0.0666978 0.058854 0.0682988 0.070672
70 3 O 0.83457 78.1935 5.87368 -1.2 1 0.0130446 0.0142913 0.0255444 0.0207318 0.0337266 0.0188482 0.0454677 0.0446291 0.0367783 0.0474101 0.0494852 0.0424703 0.0595507 0.0648846 0.0787604 0.0766626 0.0812478 0.0653501 0.0663221 0.0665219
71 1 Mg 0.0556422 74.7687 3.32811 1.2 1 0.00894576 0.0217234 0.010016 0.0301544 0.0103241 0.0331268 0.0220825 0.0605741 0.0222342 0.0844481 0.020229 0.0508634 0.0256969 0.0721835 0.0245868 0.100783 0.0334442 0.108036 0.0337202 0.0841296
72 1 Mg 0.185658 71.779 4.80198 1.2 1 0.0112059 0.0157346 0.0231855 0.027212 0.0203065 0.0314257 0.0235969 0.0377355 0.047387 0.0563467 0.0549735 0.0542245 0.061947 0.0656947 0.0681089 0.0825938 0.0680622 0.0936894 0.0629246 0.0762913
73 2 Si 2.23617 73.5271 4.60467 2.4 1 0.0223351 0.0131063 0.0178358 0.0282063 0.0269818 0.0335989 0.0465739 0.0370679 0.0493074 0.0532236 0.0591402 0.0588667 0.0805542 0.0605265 0.0692427 0.07763 0.0650649 0.0842459 0.0675478 0.0562976
74 3 O -1.00491 73.6782 4.78548 -1.2 1 0.0270597 0.0175926 0.020738 0.0177871 0.0189651 0.0279527 0.0294323 0.070655 0.0380136 0.0585846 0.0479245 0.0618499 0.0547414 0.0726311 0.0817402 0.0693861 0.0542334 0.0712831 0.0655159 0.070853
75 3 O 1.2735 69.7622 4.95102 -1.2 1 0.00584313 0.0197743 0.017362 0.02828 0.0144886 0.0340566 0.0414863 0.0400446 0.0554595 0.0401217 0.0485578 0.0501418 0.0606886 0.0737301 0.0836161 0.0768359 0.0757324 0.0618763 0.0695589 0.0490058
76 3 O 1.48399 72.9362 3.37833 -1.2 1 0.0187489 0.0140663 0.0264081 0.0161093 0.0240593 0.0229762 0.0517511 0.044627 0.0390128 0.0468115 0.0615099 0.0374433 0.0633966 0.0617129 0.0822138 0.0652746 0.074173 0.0578549 0.0623631 0.0767283
77 1 Mg 0.11814 74.541 0.379762 1.2 1 0.0240268 0.0142686 0.0195955 0.0260775 0.0137074 0.0262811 0.0222338 0.04987 0.0259234 0.0831453 0.0323513 0.0489174 0.0208454 0.0746702 0.0407831 0.0957822 0.0512144 0.104716 0.0475959 0.0827837
78 3 O 1.58618 72.8404 5.89882 -1.2 1 0.0222301 0.020175 0.0121694 0.0240524 0.0298897 0.0307057 0.0463185 0.0448483 0.0391694 0.0452416 0.0533157 0.0397031 0.059698 0.0699491 0.0698228 0.0722025 0.0720111 0.0544248 0.0823679 0.0711768
79 1 Mg -0.242121 77.7029 1.81571 1.2 1 0.021786 0.0133982 0.0242534 0.0171522 0.0203817 0.0260815 0.0277304 0.0341968 0.0506846 0.057316 0.044903 0.0636715 0.064453 0.0638948 0.0660059 0.0574475 0.0753383 0.110511 0.0619702 0.0794708
80 2 Si -2.04745 75.758 1.87645 2.4 1 0.0300722 0.0181791 0.0239068 0.0336412 0.0351338 0.0354283 0.0373124 0.0468119 0.0490493 0.0602363 0.050903 0.0688192 0.0777988 0.0572515 0.0699871 0.0679916 0.0654394 0.083117 0.065245 0.0524334
81 3 O 1.10736 75.62 1.88469 -1.2 1 0.033108 0.0169484 0.0286186 0.0158115 0.0306135 0.0219576 0.0228505 0.072548 0.0442681 0.0610796 0.0444312 0.0629548 0.0510328 0.0714271 0.0789225 0.0625201 0.0524714 0.0619714 0.0595264 0.0739261
82 3 O -1.24259 79.5347 1.92973 -1.2 1 0.00586597 0.0277749 0.0218732 0.0264943 0.0142937 0.0306773 0.0391663 0.0423617 0.0534212 0.0365695 0.049058 0.0479925 0.0596364 0.0746802 0.090332 0.0726974 0.0761897 0.0593286 0.0729192 0.0565041
83 3 O -1.43886 76.3705 0.531786 -1.2 1 0.0254938 0.0250738 0.0300614 0.0254837 0.0263945 0.0214171 0.0496944 0.0471825 0.0428115 0.0433535 0.0548357 0.0475336 0.0551371 0.0781471 0.0784269 0.0725848 0.0752939 0.0661472 0.065738 0.0755484
84 3 O -1.44482 76.5008 3.10418 -1.2 1 0.0122375 0.0147752 0.0249981 0.0178902 0.0227355 0.0266417 0.0549385 0.0430711 0.0349602 0.0444836 0.061099 0.0404789 0.0548376 0.0700515 0.0729722 0.0760375 0.0679994 0.0678764 0.0641157 0.074499
85 1 Mg -2.54531 80.1033 0.350771 1.2 1 0.00954623 0.0116545 0.00618999 0.0337177 0.0138131 0.0410994 0.0125505 0.0634973 0.025531 0.0763922 0.0219027 0.0485602 0.0260741 0.0613308 0.0339672 0.0991159 0.0429149 0.105785 0.0466041 0.0855806
86 1 Mg 2.16234 82.7944 1.92112 1.2 1 0.0159778 0.0164568 0.0173798 0.0341826 0.0181962 0.0295816 0.0298108 0.0281607 0.0493098 0.0614887 0.0564087 0.050031 0.060271 0.0682139 0.0651576 0.0835771 0.0654552 0.0877871 0.0736917 0.0809328
87 2 Si -0.538454 81.0519 1.84505 2.4 1 0.0128742 0.0222722 0.0208805 0.0258469 0.0359809 0.0378689 0.0384468 0.0430123 0.0584471 0.0472581 0.0502087 0.0663936 0.0690834 0.0608115 0.0652035 0.0728183 0.0649718 0.0943475 0.0589985 0.0534703
88 3 O 0.963115 80.8517 1.71615 -1.2 1 0.0316198 0.0152804 0.0217857 0.0225108 0.0290719 0.0277102 0.0341734 0.0652529 0.049412 0.0525984 0.0588063 0.0657091 0.0560886 0.0664795 0.0674448 0.0656073 0.0662986 0.0761925 0.0564872 0.0730911
89 3 O -1.39456 84.6105 1.87154 -1.2 1 0.0111179 0.024209 0.0152545 0.0227147 0.0260379 0.039308 0.0317083 0.0434265 0.0512171 0.0465392 0.0373484 0.0533198 0.0541131 0.0663182 0.100613 0.0659385 0.0713644 0.0600061 0.0688391 0.0610442
90 3 O -1.26588 81.709 0.629448 -1.2 1 0.00848087 0.0134079 0.0265718 0.021575 0.0258654 0.0224321 0.0467206 0.0478916 0.0326822 0.0462881 0.0517184 0.0431524 0.0573524 0.0502432 0.101466 0.0752917 0.0700135 0.0668587 0.0713212 0.05658
91 1 Mg -2.4271 90.6253 3.26539 1.2 1 0.0186043 0.0171789 0.00811951 0.0303315 0.00728044 0.0344198 0.00886535 0.0588695 0.0177625 0.0797512 0.0212186 0.0484989 0.0207112 0.069234 0.0319334 0.105907 0.0384198 0.105896 0.0449967 0.0829957
92 3 O -1.07228 81.7467 3.06761 -1.2 1 0.0141 0.0130874 0.0266843 0.0282385 0.0283821 0.0212661 0.045198 0.0408849 0.0413862 0.0472928 0.0529771 0.0422196 0.0608078 0.0576223 0.0883655 0.0723014 0.0692533 0.0626551 0.0669271 0.0719828
93 1 Mg -2.22824 87.7326 4.76901 1.2 1 0.0154527 0.0223859 0.0148083 0.0341549 0.01653 0.0270022 0.028659 0.0403853 0.0506294 0.0602766 0.0701964 0.0550515 0.0592817 0.0659852 0.064164 0.0889489 0.0604181 0.0897843 0.0699157 0.0829215
94 2 Si 0.292737 89.4925 4.7409 2.4 1 0.0125567 0.0178212 0.015186 0.0362001 0.0359156 0.035433 0.0387145 0.0373922 0.0471649 0.0617886 0.0511084 0.0661587 0.0779173 0.0478504 0.0766815 0.0679532 0.0661976 0.0908238 0.0550774 0.0650884
95 3 O -1.35085 89.5837 4.66309 -1.2 1 0.0200107 0.0200549 0.0229188 0.021005 0.0329048 0.0247212 0.0273933 0.0664353 0.0392838 0.0562635 0.0412172 0.0661004 0.052396 0.0705006 0.072101 0.0620648 0.0573395 0.0738346 0.0592714 0.0751188
96 3 O 1.41526 85.7518 4.563 -1.2 1 0.0125762 0.017537 0.0247999 0.0275368 0.0246526 0.0358463 0.0402723 0.0496477 0.05823 0.0438699 0.0465214 0.0418527 0.0549057 0.0726056 0.103167 0.0759835 0.0708528 0.0544708 0.0795146 0.0650105
97 3 O 0.949556 88.9258 3.43569 -1.2 1 0.0176238 0.0213391 0.0363022 0.0259444 0.0267329 0.0225043 0.0530363 0.0460649 0.0436389 0.0429415 0.058147 0.0375502 0.0480288 0.0653411 0.0808523 0.0755651 0.0823596 0.0682365 0.068646 0.0672244
98 3 O 0.832599 88.8493 6.07146 -1.2 1 0.013698 0.0221856 0.0175303 0.0277443 0.0284304 0.0238821 0.0434429 0.0567042 0.0363109 0.0461721 0.0638717 0.0482421 0.054029 0.0718198 0.0756789 0.0732158 0.0803906 0.0628977 0.0654272 0.0712443
99 1 Mg 0.0169598 85.1283 3.15029 1.2 1 0.00928265 0.0104841 0.0209806 0.0338705 0.0148057 0.0356291 0.0196952 0.058402 0.0261271 0.0793646 0.021799 0.0422552 0.0285142 0.0747483 0.0228878 0.0963589 0.0349892 0.116889 0.0463761 0.0923841
100 1 Mg -0.0967406 82.3413 4.9434 1.2 1 0.00880096 0.0168357 0.0191553 0.0386062 0.0169398 0.0325133 0.0262092 0.0319646 0.0516718 0.0598651 0.0658618 0.0470045 0.0602076 0.0630812 0.0668334 0.0813561 0.0661732 0.0902151 0.0636153 0.0739999
101 2 Si 2.03826 84.3443 4.74599 2.4 1 0.0136482 0.0142849 0.0225778 0.03172 0.0325224 0.0388133 0.0403351 0.0398942 0.0548191 0.0588045 0.046891 0.0697853 0.0680291 0.0617626 0.0811208 0.0567918 0.0691113 0.0871452 0.0499884 0.0649227
102 3 O -1.07782 84.3779 4.77485 -1.2 1 0.0214591 0.0145795 0.0105669 0.0225296 0.0259082 0.0246595 0.0250817 0.0635042 0.0408255 0.0527413 0.0335008 0.0715529 0.0527833 0.076187 0.0749175 0.0703439 0.0619915 0.0775044 0.0479975 0.0803399
103 3 O 0.750642 80.2894 4.68898 -1.2 1 0.0127039 0.0164521 0.0171757 0.0226471 0.0227566 0.027555 0.0319487 0.0471909 0.066177 0.0372896 0.0529157 0.0419408 0.0581043 0.0752766 0.0863176 0.0751811 0.072107 0.0480378 0.0838351 0.0533011
104 3 O 1.31579 83.716 3.59358 -1.2 1 0.0156838 0.0120802 0.0366539 0.0228867 0.0319456 0.0266604 0.0538834 0.0434652 0.0332701 0.0383794 0.052551 0.0468529 0.0455484 0.0720799 0.0755548 0.0654472 0.0872701 0.0497844 0.0710946 0.0605347
105 1 Mg 0.0594327 85.1551 0.274479 1.2 1 0.010761 0.0151432 0.0123082 0.0335639 0.0149005 0.0389496 0.0164907 0.0610181 0.0197953 0.084606 0.0228709 0.0548487 0.0203382 0.0679086 0.0245554 0.0941374 0.0419429 0.108083 0.0407362 0.0893009
106 3 O 1.41395 83.652 6.01994 -1.2 1 0.0157053 0.0126431 0.0218269 0.025552 0.0405238 0.0208591 0.0467403 0.0413373 0.0438527 0.0574297 0.0417859 0.053624 0.0453584 0.0675338 0.0769324 0.0720585 0.0828078 0.0535648 0.0720543 0.0728709
107 1 Mg 0.0897937 88.1291 1.73432 1.2 1 0.0263841 0.0148716 0.017858 0.0318065 0.020377 0.0325061 0.0270209 0.0306994 0.0405738 0.0635702 0.0633007 0.0567954 0.0609747 0.0613922 0.0659668 0.079065 0.0739988 0.0849165 0.0713698 0.0758947
108 2 Si -1.98 86.1156 1.78915 2.4 1 0.013736 0.0189793 0.0242673 0.0378976 0.0363791 0.0317455 0.0384278 0.0480612 0.0583335 0.0633964 0.0471801 0.0747532 0.0704444 0.0597722 0.0710548 0.0701081 0.0591408 0.100299 0.0493211 0.0589076
109 3 O 1.22453 86.0732 1.75239 -1.2 1 0.0293233 0.0165444 0.0173709 0.0170733 0.0313785 0.0285371 0.0337216 0.0614416 0.0480745 0.0546202 0.0479854 0.075245 0.0500016 0.0721319 0.0734507 0.0628632 0.0600922 0.0741582 0.0588078 0.0754398
110 3 O -0.800146 90.1167 1.61067 -1.2 1 0.0175921 0.0171162 0.0204688 0.0271339 0.0207449 0.0345617 0.0347451 0.0395203 0.0642836 0.042825 0.0479854 0.0445827 0.0580982 0.0752001 0.0896323 0.0763491 0.0717084 0.0558209 0.0721062 0.0603302
111 3 O -1.27221 86.7122 0.442026 -1.2 1 0.0184032 0.0150815 0.0242026 0.0231279 0.028808 0.0237696 0.0500957 0.0432499 0.0428369 0.0384651 0.0507972 0.0504159 0.0507454 0.0467667 0.0925063 0.0576175 0.0803888 0.0629969 0.066465 0.0684781
112 3 O -1.39828 87.053 2.94609 -1.2 1 0.0118077 0.0193458 0.028579 0.0218421 0.0217665 0.0283255 0.0388781 0.0480826 0.0419957 0.0543951 0.0567932 0.0451704 0.0676444 0.0589158 0.0814561 0.074018 0.0732922 0.0760138 0.0646709 0.0499841
113 1 Mg -2.52372 90.2151 0.465559 1.2 1 0.00466219 0.0201261 0.0168377 0.0279828 0.0221127 0.028226 0.0275704 0.0432065 0.0386354 0.0758214 0.0364025 0.050135 0.040907 0.0616074 0.0398258 0.0914914 0.0658878 0.0959774 0.0633567 0.0800807
114 1 Mg 2.26676 93.4385 1.72075 1.2 1 0.0163514 0.0106483 0.0192069 0.0296742 0.0148641 0.02805 0.0280104 0.0359306 0.0399203 0.0577574 0.0547678 0.0590569 0.063229 0.0613725 0.0721955 0.0701895 0.0684948 0.0924537 0.0848917 0.0684601
115 2 Si -0.334809 91.6539 1.62953 2.4 1 0.0224374 0.0179604 0.0144499 0.0298014 0.0307551 0.0316153 0.0382136 0.0471912 0.0504468 0.0551509 0.0625438 0.0614444 0.0668607 0.0606652 0.0671019 0.0797419 0.0591277 0.0935533 0.057866 0.0611468
116 3 O 1.24591 91.5645 1.77923 -1.2 1 0.0113623 0.0170448 0.0107649 0.0206465 0.0247685 0.0278839 0.0171937 0.0672411 0.0417391 0.0659034 0.036071 0.0633172 0.0607693 0.0649912 0.0706739 0.0677677 0.0598405 0.0679105 0.0673403 0.0610326
117 3 O -1.28173 95.1336 1.82881 -1.2 1 0.00768129 0.0169806 0.024092 0.0184494 0.021658 0.0404979 0.0398109 0.0455621 0.0447915 0.0492517 0.040526 0.0500014 0.0480751 0.0641757 0.1096 0.0637555 0.0792873 0.0546099 0.0670234 0.0664148
118 3 O -1.12133 92.2763 0.417437 -1.2 1 0.0211051 0.0217833 0.028577 0.0186209 0.0274378 0.0185126 0.0462451 0.0457682 0.043017 0.049451 0.0510434 0.0365571 0.0482786 0.0489435 0.0930288 0.0689671 0.0712739 0.0648559 0.0615405 0.0689943
119 1 Mg -2.36054 101.228 3.32121 1.2 1 0.0172465 0.0228117 0.0117016 0.0319363 0.0119815 0.0324334 0.0151279 0.05065 0.0297451 0.0830687 0.026756 0.0486564 0.0257074 0.064757 0.0342286 0.0972922 0.0543546 0.100111 0.0621437 0.0778959
120 3 O -0.963111 92.1921 3.11395 -1.2 1 0.0164656 0.0207866 0.0257427 0.0158079 0.0315238 0.0253885 0.0448165 0.043085 0.0516235 0.0488442 0.0534502 0.0377122 0.0574369 0.0759011 0.072095 0.0757839 0.0685353 0.0687857 0.0630099 0.0726655
121 1 Mg -2.33798 98.0316 4.8125 1.2 1 0.0190842 0.0103923 0.0190992 0.0272503 0.0113637 0.0304328 0.0302897 0.0354969 0.0355163 0.061004 0.0589605 0.0544841 0.0586833 0.0650699 0.0785716 0.0712359 0.0675752 0.09444 0.0813157 0.0731675
122 2 Si 0.29235 100.014 4.70753 2.4 1 0.018607 0.0132274 0.0230197 0.0314354 0.0335008 0.0246249 0.0372368 0.0350531 0.0456688 0.0487766 0.0584085 0.0615276 0.068633 0.0668663 0.080751 0.0725912 0.0681561 0.0939145 0.0491149 0.0543029
123 3 O -1.13079 100.19 4.62546 -1.2 1 0.018044 0.0174398 0.0266364 0.0215457 0.0260419 0.0238756 0.0280192 0.0615752 0.0476171 0.0449991 0.046583 0.0681999 0.0532427 0.0616658 0.0778235 0.0703543 0.0687054 0.063036 0.0542355 0.0802408
124 3 O 1.3022 96.1514 4.70746 -1.2 1 0.014151 0.0148633 0.0172369 0.0256129 0.0172034 0.0343747 0.0349323 0.0398261 0.0552278 0.0435936 0.0485528 0.0432693 0.0556795 0.0704053 0.0997029 0.0761694 0.074104 0.048185 0.0702472 0.0538384
125 3 O 1.17738 99.3224 3.55547 -1.2 1 0.00912682 0.0184606 0.0275284 0.0270502 0.0241 0.025399 0.0400377 0.0453638 0.0269235 0.0449653 0.0503402 0.0469038 0.049577 0.0557052 0.0975475 0.063359 0.0829375 0.0729997 0.0640884 0.0666384