ITEM: TIMESTEP
90400
ITEM: NUMBER OF ATOMS
5600
ITEM: BOX BOUNDS xy xz yz pp pp pp
0	7.1235	0
0	201.985	2.3745
0	119.584	0
ITEM: ATOMS id type element xu yu zu q Q_1 Q_2 Q_3 Q_4 Q_5 Q_6 Q_7 Q_8 Q_9 Q_10 Q_11 Q_12 Q_13 Q_14 Q_15 Q_16 Q_17 Q_18 Q_19 Q_20 Q_21
1 1 Mg -2.09288 47.9577 -0.784492 1.2 1 0.441858 0.0646995 0.111516 0.0505647 0.0738963 0.0558406 0.0395766 0.0566773 0.0646175 0.0823041 0.0780491 0.0859424 0.103797 0.0853915 0.103779 0.0935148 0.087231 0.120414 0.114672 0.0894779
2 1 Mg 2.73866 49.9896 2.24689 1.2 1 0.273056 0.108425 0.0294083 0.0555458 0.0436509 0.0255033 0.0615857 0.0585199 0.0624985 0.0704881 0.0659193 0.0793808 0.077973 0.0725544 0.0738024 0.0748545 0.0642497 0.0886189 0.0953972 0.0830316
3 2 Si 0.445259 49.497 0.31033 2.4 1 0.298646 0.107866 0.0315103 0.0584576 0.0521679 0.0323814 0.0679252 0.0459009 0.0726385 0.0682329 0.0678741 0.0643248 0.0682047 0.0735927 0.0799166 0.0728224 0.0910919 0.0896282 0.0743544 0.0796755
4 3 O 1.74165 48.6128 0.709482 -1.2 1 0.391504 0.089286 0.0809514 0.0717206 0.0463355 0.0634491 0.0477968 0.069108 0.0597173 0.0916637 0.066371 0.0731799 0.0735884 0.0931347 0.0951341 0.0891109 0.0957 0.0823559 0.0778864 0.0736164
5 3 O -1.50954 52.2265 1.33707 -1.2 1 0.117642 0.0578991 0.048356 0.0386488 0.021451 0.0275351 0.03331 0.0458548 0.0585663 0.0481686 0.0514272 0.0576178 0.0704235 0.068002 0.0746831 0.0692734 0.0797593 0.069005 0.0587428 0.0619542
6 3 O -0.402069 48.9409 -0.975816 -1.2 1 0.340093 0.112648 0.0433221 0.0729051 0.036206 0.0618623 0.0484876 0.0579914 0.0736073 0.0709179 0.0601229 0.0974786 0.1017 0.0839551 0.0711227 0.0706939 0.0840072 0.0775744 0.0770572 0.0925288
7 1 Mg -2.91502 57.9698 3.04444 1.2 1 0.0195261 0.0156898 0.0221654 0.0224605 0.0212234 0.0359964 0.0187373 0.0615613 0.025352 0.062686 0.032108 0.0457078 0.0337288 0.0747612 0.0569156 0.0886428 0.0665108 0.101328 0.0579966 0.0767922
8 3 O -0.213595 49.609 1.77205 -1.2 1 0.302783 0.123435 0.0481137 0.0514059 0.0457664 0.0378141 0.0609258 0.0748117 0.0693246 0.0874266 0.0652844 0.0617552 0.0593237 0.0621093 0.0739927 0.0893259 0.0718049 0.0911658 0.0891426 0.0864816
9 1 Mg -2.62721 55.0847 4.58293 1.2 1 0.0246606 0.037566 0.0168143 0.0222527 0.0164394 0.0357574 0.0249801 0.0270653 0.0483886 0.0514142 0.0716182 0.0647854 0.0538717 0.0837251 0.0578074 0.0875679 0.0834722 0.0766613 0.0716142 0.0684338
10 2 Si -0.148749 56.8813 4.57534 2.4 1 0.0279807 0.024691 0.0171865 0.0291845 0.0368154 0.0285941 0.029993 0.0340489 0.0605777 0.0729389 0.0495591 0.0647485 0.06055 0.0643577 0.0755441 0.0660492 0.0638026 0.0792317 0.0684856 0.0654761
11 3 O -1.6632 57.0663 4.54341 -1.2 1 0.0123746 0.0291844 0.018109 0.0286663 0.0281234 0.0237228 0.0252354 0.0786544 0.0439102 0.0582457 0.0340572 0.0624375 0.0678274 0.06627 0.0713665 0.0684437 0.0643913 0.0737281 0.0637726 0.0701718
12 3 O 1.38707 53.0377 4.91698 -1.2 1 0.0687885 0.052696 0.0359056 0.0347909 0.0373531 0.0311821 0.0394187 0.0387441 0.0576437 0.0533664 0.0688514 0.037183 0.0587709 0.0778865 0.0777095 0.0775915 0.0643229 0.079372 0.0568244 0.0761783
13 3 O 0.413538 56.3687 3.22235 -1.2 1 0.018905 0.0243918 0.0246546 0.0180627 0.0280574 0.0301608 0.0405917 0.05399 0.0442211 0.0600685 0.0483044 0.0446071 0.0569966 0.0815451 0.0679293 0.083621 0.0663018 0.0648609 0.0639404 0.0778705
14 3 O 0.656491 56.3039 5.7729 -1.2 1 0.0265201 0.0360028 0.026757 0.0208137 0.022163 0.0327114 0.0410705 0.0416157 0.0451565 0.0487892 0.0542172 0.0479874 0.0640155 0.0625987 0.083074 0.0772545 0.0768565 0.0657816 0.0661843 0.0612278
15 1 Mg 0.153122 52.6238 3.34377 1.2 1 0.0815516 0.0652515 0.0547234 0.039023 0.0335491 0.0272626 0.0287996 0.0655883 0.0492647 0.0547029 0.051558 0.0536526 0.0463116 0.0643303 0.0550546 0.0761896 0.0666611 0.0708708 0.0888722 0.0734867
16 1 Mg 0.251755 48.6618 3.21206 1.2 1 0.381081 0.106525 0.090768 0.0632418 0.0373844 0.0694229 0.0449657 0.0738882 0.060871 0.0866117 0.0751284 0.0752584 0.0582332 0.0741867 0.0852225 0.103962 0.0946122 0.0802788 0.0949654 0.0969758
17 2 Si 2.13157 51.5227 4.85525 2.4 1 0.139797 0.110097 0.0273854 0.0313185 0.0222959 0.0400216 0.0411385 0.0507844 0.0541913 0.0562951 0.0705755 0.0746558 0.0692839 0.0663092 0.0754807 0.0828954 0.0831308 0.0897132 0.0613449 0.0816003
18 3 O -1.1763 51.6212 4.84532 -1.2 1 0.145671 0.10825 0.0219364 0.0235406 0.015158 0.0455243 0.0257033 0.0471529 0.0682351 0.0731904 0.0421461 0.0801652 0.0703372 0.0720613 0.0704983 0.0746913 0.0844009 0.0575212 0.0861948 0.0609681
19 3 O 2.29166 48.4986 3.6183 -1.2 1 0.400322 0.0984422 0.112535 0.0596967 0.0451954 0.0585397 0.0512159 0.0677702 0.0745671 0.0849727 0.056661 0.0807624 0.0840007 0.0710732 0.0908673 0.100799 0.0693089 0.0822817 0.079965 0.0875542
20 3 O 1.53387 51.318 3.37713 -1.2 1 0.169779 0.100305 0.0315042 0.0252516 0.033341 0.0378931 0.0461136 0.0475619 0.0558895 0.0577749 0.0607748 0.0587904 0.0798689 0.0681726 0.0689167 0.0634449 0.101079 0.0863411 0.0693371 0.0769315
21 1 Mg -0.224422 53.3431 -0.0306063 1.2 1 0.0528131 0.0537758 0.0193111 0.0197057 0.0184688 0.0261022 0.0284532 0.036841 0.0588676 0.0580657 0.049749 0.0482957 0.0640933 0.050657 0.0817775 0.0710741 0.0903616 0.0872428 0.0618161 0.0607546
22 3 O 1.4669 50.5239 5.93306 -1.2 1 0.226373 0.113289 0.0260898 0.0391563 0.0286791 0.031526 0.0460275 0.0661709 0.0702036 0.0499065 0.0583223 0.0638334 0.0502899 0.0830137 0.0828502 0.068498 0.0813276 0.075037 0.0741527 0.0845758
23 1 Mg -0.489184 55.4352 1.53161 1.2 1 0.0220759 0.0167382 0.0240322 0.0239745 0.021243 0.0228735 0.0345378 0.0287046 0.0471404 0.0528758 0.0691264 0.0547739 0.045437 0.0743691 0.0642515 0.0945504 0.0617867 0.0904451 0.073061 0.0725992
24 2 Si -2.25103 53.4748 1.58836 2.4 1 0.0373491 0.0390221 0.0374488 0.0307933 0.0166802 0.0396773 0.0427394 0.0567146 0.0545264 0.0567397 0.049472 0.0575918 0.0804227 0.0463896 0.0596017 0.0625567 0.0755247 0.0684431 0.0819672 0.0703493
25 3 O 0.877281 53.671 1.54915 -1.2 1 0.0261594 0.0505536 0.0299406 0.0280289 0.0171289 0.0413626 0.0263417 0.053504 0.045946 0.0592549 0.0543763 0.0513838 0.0458746 0.0706745 0.0811169 0.05952 0.0636458 0.077553 0.0625591 0.0747423
26 3 O -1.51309 57.5317 1.80186 -1.2 1 0.0150686 0.0118684 0.031597 0.0293143 0.0202475 0.0304254 0.0377781 0.0424329 0.0486521 0.048042 0.0384967 0.0587414 0.0470087 0.0758202 0.0876099 0.0737784 0.0808127 0.0589959 0.0662623 0.0605022
27 3 O -1.63713 54.6354 0.442306 -1.2 1 0.0300274 0.0167224 0.0281112 0.0201976 0.0219517 0.0365025 0.0486496 0.0510519 0.0353802 0.0396546 0.0663681 0.0485066 0.0671363 0.0708223 0.0775614 0.0774953 0.0661631 0.068766 0.0646581 0.0628282
28 3 O -1.5821 54.2087 2.9472 -1.2 1 0.0254509 0.0372243 0.0315535 0.0258976 0.0285641 0.024415 0.0474284 0.04741 0.053374 0.0393386 0.0545817 0.0607657 0.0548314 0.0619525 0.0780482 0.072478 0.073615 0.0692208 0.066166 0.0621023
29 1 Mg -2.59913 57.7007 0.341293 1.2 1 0.0163939 0.0202534 0.0256278 0.0325479 0.0195868 0.0342791 0.0322108 0.0518502 0.0428249 0.063903 0.0339673 0.0535665 0.038913 0.0674977 0.0561779 0.0889218 0.0609921 0.104787 0.0641832 0.0762095
30 1 Mg 1.95048 61.1573 2.02401 1.2 1 0.0144588 0.0164169 0.0180367 0.0288287 0.0154505 0.0301991 0.0235862 0.0417659 0.0413461 0.0579343 0.0540383 0.0559145 0.0645938 0.0652413 0.0791422 0.0671698 0.0724864 0.0885927 0.0730775 0.0723252
31 2 Si -0.789857 58.9821 1.64963 2.4 1 0.0126499 0.0197337 0.0315694 0.0184293 0.0347612 0.0316826 0.0396319 0.0510937 0.0581072 0.0526321 0.0533857 0.0577095 0.0711677 0.054663 0.0748241 0.0708033 0.0773673 0.0960809 0.0581471 0.0688371
32 3 O 0.797897 58.7652 1.5716 -1.2 1 0.0211054 0.0178723 0.0261851 0.0236498 0.0265316 0.0348463 0.0322125 0.0630912 0.0461578 0.054367 0.0478271 0.0739484 0.0563528 0.069926 0.0725427 0.0666281 0.0684132 0.0814396 0.0597236 0.0739811
33 3 O -1.74626 62.9708 1.87448 -1.2 1 0.0208784 0.0165638 0.0164196 0.0266949 0.0214859 0.0332231 0.0444354 0.0423064 0.0478896 0.0438107 0.0593898 0.046599 0.0554323 0.0764429 0.100058 0.0805484 0.0797198 0.0486372 0.0759995 0.0625799
34 3 O -1.32654 59.4901 0.235855 -1.2 1 0.0251025 0.0164939 0.0188111 0.0262833 0.0295079 0.0253847 0.0434527 0.046611 0.0472566 0.046837 0.057984 0.0461556 0.051664 0.0578467 0.0939988 0.067292 0.0655916 0.0662006 0.060605 0.0772646
35 1 Mg -2.5685 68.7774 3.46904 1.2 1 0.0195868 0.0237265 0.0156011 0.0307257 0.0156385 0.0371264 0.0180039 0.0595176 0.0187171 0.0810235 0.0260244 0.050229 0.0198923 0.0732376 0.0282709 0.0934477 0.0380187 0.107447 0.0315485 0.0813657
36 3 O -1.31788 60.0079 2.81646 -1.2 1 0.0135238 0.0273731 0.0260976 0.021487 0.022393 0.0299581 0.040161 0.0484089 0.0334707 0.0480167 0.0608543 0.0445462 0.0582145 0.060193 0.0800321 0.0814912 0.0617141 0.0711873 0.0651068 0.061662
37 1 Mg -2.48426 65.8048 4.65256 1.2 1 0.014807 0.0232938 0.0174948 0.0344791 0.0201458 0.0343564 0.0244749 0.0370681 0.0378692 0.0657017 0.0593211 0.0599064 0.0641378 0.066 0.0666896 0.0804332 0.0748523 0.0886077 0.0756195 0.0688024
38 2 Si 0.0982101 67.7247 4.90788 2.4 1 0.0103803 0.0184248 0.0200637 0.0323688 0.0289761 0.0382691 0.0423365 0.0463661 0.0569134 0.0538034 0.0545355 0.0676583 0.0803908 0.0526256 0.0642832 0.0696846 0.0714771 0.0937164 0.0621598 0.0628042
39 3 O -1.44269 67.581 4.82488 -1.2 1 0.0445215 0.0125144 0.00985621 0.0177512 0.0331022 0.0235804 0.017617 0.0659346 0.0399498 0.0723984 0.0407334 0.0600764 0.0666843 0.0683128 0.0651481 0.0602138 0.055578 0.059535 0.0656786 0.0715353
40 3 O 1.18222 64.2699 4.76599 -1.2 1 0.0163203 0.011022 0.0169903 0.0237476 0.021607 0.0400241 0.0326045 0.0541487 0.0398013 0.0570329 0.0411622 0.0565393 0.0501299 0.0755672 0.100559 0.0539676 0.066605 0.0725858 0.0554355 0.0654911
41 3 O 0.704443 66.9378 3.71108 -1.2 1 0.00882384 0.0223349 0.0319445 0.0168311 0.0277346 0.0204879 0.0508208 0.0446361 0.0444503 0.051293 0.0532106 0.0411339 0.0644714 0.0653674 0.0844123 0.0850659 0.0687451 0.0761371 0.0666937 0.0626754
42 3 O 0.628217 67.1166 6.33774 -1.2 1 0.0118166 0.0108272 0.0244641 0.0229414 0.0201017 0.022223 0.0508231 0.0497253 0.0460781 0.0510957 0.0561988 0.0401893 0.0628984 0.0734405 0.0796586 0.0781944 0.0666745 0.065758 0.0606892 0.0773853
43 1 Mg -0.359387 63.5994 3.37481 1.2 1 0.0146162 0.0176518 0.0143429 0.0360501 0.0182245 0.0272211 0.019737 0.0564354 0.0255986 0.0755613 0.0219463 0.0467538 0.0282615 0.0791261 0.0319455 0.108653 0.041601 0.114887 0.037801 0.0879365
44 1 Mg -0.243461 60.4206 4.53862 1.2 1 0.00814276 0.010324 0.0207861 0.0301948 0.0226897 0.0297506 0.0210545 0.029201 0.046536 0.0517984 0.0510102 0.0662521 0.0502855 0.0625539 0.0720324 0.064417 0.0675301 0.0933655 0.0633076 0.0770524
45 2 Si 1.8694 62.6476 5.02853 2.4 1 0.00596643 0.0134078 0.0250399 0.022983 0.030839 0.0250082 0.0379708 0.0385692 0.0476438 0.056397 0.0648384 0.0615866 0.0727108 0.0520101 0.0830792 0.0702778 0.0795038 0.0723196 0.062555 0.0540984
46 3 O -1.39732 62.6153 4.8066 -1.2 1 0.0166373 0.00898079 0.0245598 0.0216449 0.0357322 0.0254931 0.0295882 0.0692415 0.0421134 0.0487546 0.0436082 0.069072 0.0529296 0.0604775 0.0751451 0.0610025 0.0690038 0.0732282 0.0524973 0.0713718
47 3 O 0.565565 58.6519 4.4365 -1.2 1 0.0177967 0.0210697 0.0209433 0.0265345 0.0227456 0.043376 0.0312368 0.0421356 0.0466304 0.0503307 0.0453913 0.0471347 0.0540485 0.0652483 0.0886425 0.083502 0.0770192 0.0617932 0.0629428 0.058786
48 3 O 1.1483 61.7047 3.72051 -1.2 1 0.00877386 0.0194749 0.016613 0.0258022 0.0337259 0.0243801 0.0471775 0.0435312 0.0453171 0.0492132 0.0574739 0.0500363 0.0643632 0.0653739 0.0774869 0.075788 0.0891913 0.0632406 0.0593636 0.06107
49 1 Mg -0.63903 63.3833 0.30106 1.2 1 0.0231578 0.0187074 0.0177286 0.0326158 0.0193622 0.0413592 0.0180479 0.0607934 0.0341422 0.0676294 0.0366417 0.0439476 0.0423421 0.0638308 0.0553207 0.081847 0.0650937 0.0938652 0.0715373 0.0736133
50 3 O 1.06335 62.0335 6.20949 -1.2 1 0.0251666 0.0151092 0.0282425 0.0172775 0.0235619 0.0244754 0.0423917 0.0430601 0.0390018 0.0430206 0.051645 0.0432557 0.0574572 0.0686997 0.0852547 0.0788531 0.0774919 0.0693721 0.0641518 0.077231
51 1 Mg -0.356151 66.4301 1.76217 1.2 1 0.0187226 0.0221814 0.0235286 0.031032 0.0122562 0.0322826 0.0271688 0.038606 0.0433361 0.0517857 0.0555409 0.0557262 0.0562336 0.0661621 0.070309 0.071399 0.0743773 0.090068 0.0639465 0.0772417
52 2 Si -2.47362 64.5493 1.90417 2.4 1 0.00749572 0.0158985 0.0241336 0.0323205 0.0403398 0.0269009 0.0408228 0.0412332 0.0480714 0.0531936 0.0587862 0.0653137 0.0728046 0.0633576 0.0950357 0.0726379 0.058876 0.0680793 0.0639194 0.0552389
53 3 O 0.786235 64.2037 1.84936 -1.2 1 0.0151732 0.0172173 0.0223063 0.0216648 0.0244214 0.0274175 0.0351664 0.0712818 0.0467445 0.046497 0.0390468 0.0664208 0.0562751 0.0750025 0.0686664 0.0718139 0.0530932 0.0778554 0.0377836 0.0842815
54 3 O -1.22892 68.2352 1.83333 -1.2 1 0.0248481 0.0206435 0.0291051 0.0183336 0.0247687 0.0338258 0.0351691 0.05061 0.0480726 0.0433667 0.0484726 0.045844 0.0520111 0.0700387 0.0950814 0.0736825 0.0719121 0.0569599 0.0588393 0.060986
55 3 O -1.63867 65.1422 0.718433 -1.2 1 0.0264317 0.0214552 0.0313137 0.022214 0.0360299 0.0209366 0.0473756 0.032666 0.036778 0.0458454 0.0546922 0.0441447 0.0586274 0.0564285 0.0883155 0.0619925 0.0850073 0.0638735 0.0644953 0.0656115
56 3 O -1.70292 65.167 3.05065 -1.2 1 0.00525952 0.0236151 0.0283686 0.0167198 0.0320681 0.0196884 0.0518444 0.0509469 0.0342997 0.0506895 0.0540638 0.0438433 0.059373 0.0763399 0.0748689 0.0746576 0.0760024 0.0599406 0.0647746 0.0691324
57 1 Mg -2.55087 68.6967 0.392203 1.2 1 0.0108126 0.017615 0.0107066 0.0315434 0.011443 0.0320469 0.0173071 0.0603538 0.0201234 0.0844394 0.0187312 0.0464826 0.0216988 0.073125 0.0268657 0.100647 0.0320946 0.109116 0.0442231 0.0887174
58 1 Mg 2.10035 71.5724 1.77273 1.2 1 0.0220125 0.019647 0.0184353 0.0339104 0.0202295 0.0362827 0.0313399 0.036766 0.0484546 0.0636462 0.0677222 0.05671 0.0718109 0.0672644 0.0670876 0.0931911 0.0628468 0.0937285 0.0678682 0.0849132
59 2 Si -0.538431 69.8241 2.1104 2.4 1 0.0163204 0.0135325 0.0162032 0.0355707 0.0342137 0.0314446 0.0449819 0.0438016 0.0616856 0.0495745 0.0577214 0.0628121 0.0736483 0.0543181 0.0737866 0.0732299 0.0642618 0.07802 0.0588761 0.047526
60 3 O 1.08101 69.5395 1.98282 -1.2 1 0.0274039 0.01912 0.0177218 0.0182637 0.0227028 0.0289124 0.0356177 0.0672175 0.0430114 0.0540724 0.0479604 0.0659952 0.0513809 0.0746866 0.0750763 0.0748872 0.0653571 0.0755081 0.0535206 0.0814023
61 3 O -1.46955 73.6412 1.97133 -1.2 1 0.0190028 0.0216519 0.0236185 0.029114 0.0156472 0.0365824 0.0439913 0.0440211 0.0584132 0.0479592 0.045795 0.0470785 0.0593556 0.068925 0.107384 0.0784946 0.0683552 0.0548083 0.0755585 0.0588114
62 3 O -1.09589 70.6215 0.846702 -1.2 1 0.0286825 0.0161752 0.0251804 0.0283694 0.0312769 0.0314038 0.0376269 0.0457846 0.0466904 0.04641 0.0513302 0.0424071 0.063848 0.0709012 0.0774878 0.0714336 0.0674859 0.0824841 0.0565911 0.0648003
63 1 Mg -2.19252 79.6686 3.45005 1.2 1 0.0167547 0.0243977 0.0178792 0.0249731 0.0226028 0.0353171 0.028361 0.0540688 0.0383196 0.0746134 0.0387566 0.0397878 0.0391253 0.0638321 0.0352208 0.100324 0.0625192 0.100043 0.0650255 0.0727774
64 3 O -1.34557 70.332 3.34515 -1.2 1 0.022262 0.0167295 0.0249532 0.0232702 0.0282979 0.026361 0.0552347 0.0496111 0.0438711 0.0405703 0.0644381 0.0351633 0.0588207 0.0494746 0.0932906 0.0717483 0.0668776 0.0643032 0.060919 0.0753667
65 1 Mg -2.47579 76.5115 4.79784 1.2 1 0.0261515 0.0201836 0.0188077 0.0381478 0.0222475 0.0309942 0.0245941 0.0320834 0.0490123 0.0543811 0.0564164 0.0599234 0.0581816 0.0635544 0.069384 0.0791925 0.0684375 0.0945526 0.0719782 0.087934
66 2 Si 0.308538 78.4331 4.79494 2.4 1 0.00694997 0.0183405 0.0210964 0.0318475 0.0372721 0.034035 0.0413284 0.0440066 0.0618078 0.0500976 0.0491213 0.0721692 0.0712488 0.0595163 0.0782662 0.0600937 0.0634211 0.0928584 0.065584 0.0587138
67 3 O -1.22398 78.4999 4.89053 -1.2 1 0.0222272 0.028356 0.0170695 0.0198499 0.0240581 0.0274202 0.0299715 0.0774881 0.0396066 0.0690893 0.0374961 0.0706318 0.0521056 0.0718023 0.0814177 0.0759641 0.0616644 0.0726202 0.0474183 0.0627909
68 3 O 1.3651 74.7334 4.86277 -1.2 1 0.0182338 0.0175545 0.0241681 0.0281325 0.0227232 0.0371859 0.0367767 0.0436702 0.0504038 0.0565752 0.0436729 0.0499277 0.0557162 0.0707306 0.0966497 0.0717601 0.0700298 0.0661669 0.0671136 0.0568091
69 3 O 0.993391 77.615 3.56839 -1.2 1 0.0173695 0.0278253 0.0240455 0.0309657 0.0350417 0.0285848 0.0552842 0.0462547 0.0376333 0.0414094 0.0619331 0.0465136 0.0549023 0.0692548 0.0887346 0.0773749 0.0669749 0.0537828 0.0618693 0.0627529
70 3 O 0.877478 77.7975 6.18231 -1.2 1 0.0154612 0.0151085 0.0303905 0.0208257 0.037419 0.0271996 0.052778 0.0528616 0.0401631 0.052412 0.0497027 0.0481343 0.0531993 0.0813697 0.0827403 0.0683226 0.072657 0.0648372 0.0649153 0.0629485
71 1 Mg -0.407635 74.168 3.42555 1.2 1 0.0261665 0.00786912 0.0180405 0.0303947 0.0218241 0.0300009 0.0201161 0.0644723 0.0268963 0.072846 0.0389746 0.0456341 0.0445296 0.064641 0.0389899 0.086402 0.0581204 0.101548 0.0654936 0.0687
72 1 Mg -0.231951 71.1462 4.96727 1.2 1 0.0248006 0.0173706 0.0194111 0.030022 0.0154485 0.0350818 0.0348513 0.0339322 0.0534007 0.0527338 0.0658335 0.0489536 0.0540386 0.0642284 0.0695175 0.0764791 0.074785 0.0905678 0.0699102 0.0802329
73 2 Si 1.85297 73.1061 4.82834 2.4 1 0.0128367 0.0141045 0.0207519 0.0378604 0.0336026 0.0365176 0.0380469 0.0455769 0.0546929 0.053335 0.0466284 0.069341 0.0746393 0.057652 0.0816988 0.0614575 0.0562078 0.0998091 0.0611268 0.0676317
74 3 O -1.2865 73.195 4.84844 -1.2 1 0.0204672 0.0291812 0.0183245 0.0269804 0.0250537 0.0313885 0.0242231 0.0701859 0.0353214 0.0660008 0.0433204 0.0806612 0.0541345 0.0660974 0.0815352 0.0702498 0.0632379 0.0718779 0.0454945 0.0818598
75 3 O 0.856763 69.0596 4.6597 -1.2 1 0.0136949 0.00966033 0.0103224 0.0341997 0.0173532 0.032011 0.0426536 0.0424511 0.0613093 0.0394412 0.0517138 0.0422226 0.0597673 0.0733605 0.0925014 0.0670312 0.0754655 0.0519858 0.0588699 0.056248
76 3 O 1.10174 72.4721 3.70318 -1.2 1 0.0157477 0.00885773 0.022769 0.0285091 0.0351896 0.0248889 0.0516793 0.0511301 0.0376592 0.0373516 0.0518552 0.0543675 0.0546586 0.0569038 0.0868975 0.0618074 0.0887878 0.0542183 0.0602785 0.0679061
77 1 Mg -0.148755 73.7606 0.293299 1.2 1 0.00764013 0.0236726 0.0165421 0.0323033 0.0232294 0.0432393 0.0311914 0.0518222 0.0368643 0.0799201 0.0362236 0.0573458 0.0311996 0.06939 0.038295 0.0986492 0.0504106 0.0882167 0.0619062 0.0791251
78 3 O 1.09054 72.5605 6.19524 -1.2 1 0.0147413 0.0147566 0.0296547 0.0237691 0.0308064 0.0225857 0.0547201 0.0464772 0.0422884 0.0394872 0.0501991 0.0540591 0.0570609 0.0615233 0.105013 0.0688097 0.082555 0.0667109 0.064598 0.0666799
79 1 Mg 0.0898947 77.0725 1.94242 1.2 1 0.0133206 0.0154079 0.025337 0.0334339 0.0218344 0.0334734 0.0368735 0.0343578 0.0475611 0.0640763 0.0520169 0.066186 0.0566735 0.0631704 0.0765398 0.0729052 0.0652137 0.0857661 0.0757461 0.073494
80 2 Si -2.11749 75.1125 1.70737 2.4 1 0.012661 0.015854 0.0160432 0.0298021 0.0324476 0.0376163 0.0448825 0.0456075 0.0519476 0.0509869 0.0478398 0.0631916 0.0754599 0.0573475 0.0751326 0.0671974 0.0641093 0.0973035 0.0705566 0.0670992
81 3 O 1.02055 75.0193 1.80404 -1.2 1 0.01621 0.0297909 0.0169964 0.0264504 0.0254464 0.0286577 0.0283083 0.0738589 0.043429 0.0663842 0.028554 0.0783465 0.0581655 0.0659713 0.071943 0.0728012 0.0701512 0.0728455 0.0592632 0.0555339
82 3 O -1.08889 78.9386 2.03867 -1.2 1 0.0160058 0.0221906 0.0206451 0.0210001 0.0225712 0.0338612 0.0439179 0.0420184 0.0428512 0.0416336 0.0468132 0.0450089 0.0576021 0.0691322 0.0898944 0.0777829 0.072994 0.0696051 0.0690581 0.0644467
83 3 O -1.45917 75.4563 0.273747 -1.2 1 0.0139327 0.018436 0.0329359 0.0214527 0.0345407 0.0221354 0.0537558 0.0504953 0.0471786 0.0445012 0.0544498 0.0508941 0.0557626 0.0698619 0.0886295 0.0698381 0.0671172 0.0687663 0.0640784 0.0693317
84 3 O -1.44291 75.8446 2.96716 -1.2 1 0.0195186 0.0197118 0.0253377 0.0314331 0.0334242 0.0273001 0.061029 0.0482281 0.0361412 0.0480534 0.0495621 0.0446078 0.059667 0.0631297 0.0931171 0.0774868 0.0789816 0.0638761 0.0481166 0.0563925
85 1 Mg -2.49815 79.476 0.326012 1.2 1 0.0105362 0.0261604 0.0216782 0.0338594 0.0235984 0.0375526 0.0103243 0.0602399 0.0254397 0.0830291 0.0271665 0.0487088 0.0300343 0.0701358 0.0314566 0.100384 0.034005 0.106537 0.0424629 0.0879324
86 1 Mg 2.13281 82.4712 1.65168 1.2 1 0.0249188 0.0119137 0.0256024 0.0330867 0.021671 0.0379916 0.0396138 0.0416774 0.0452478 0.0527023 0.0674936 0.0620893 0.0536329 0.0644701 0.0681385 0.0680718 0.0740618 0.0810015 0.0841627 0.0677198
87 2 Si -0.499149 80.3594 1.95181 2.4 1 0.0291463 0.0203289 0.0236922 0.0369759 0.0369373 0.0447295 0.0442684 0.0530855 0.0625918 0.0543506 0.0461086 0.0713744 0.0718371 0.0595657 0.0827866 0.0645293 0.0643389 0.0853245 0.0582158 0.0585304
88 3 O 1.04822 80.2671 1.89566 -1.2 1 0.0198241 0.0262067 0.029383 0.0202678 0.0321634 0.0305643 0.039472 0.074001 0.0511649 0.0576866 0.0442968 0.0751425 0.0536572 0.0760856 0.0834953 0.0656995 0.0615397 0.076734 0.0476046 0.0767223
89 3 O -1.18795 84.219 1.57911 -1.2 1 0.00580672 0.0191389 0.02197 0.0232974 0.0240804 0.0365022 0.0423723 0.0490108 0.0556722 0.0447185 0.0433526 0.0486527 0.0518273 0.0795962 0.0988916 0.0737934 0.0755517 0.0640468 0.0619392 0.0606295
90 3 O -1.23225 81.1674 0.619026 -1.2 1 0.0334442 0.0201478 0.0251509 0.0196973 0.0362303 0.0278059 0.0428801 0.0359427 0.0358821 0.0435126 0.0538536 0.0456356 0.0652291 0.0631467 0.0962402 0.0688028 0.0759512 0.0637391 0.0612056 0.0681133
91 1 Mg -2.365 89.9627 2.89811 1.2 1 0.0142752 0.0214437 0.016455 0.0270941 0.0195655 0.0329224 0.0314945 0.0631872 0.0417755 0.0739284 0.0331433 0.0495027 0.0471372 0.0748936 0.0580764 0.0881958 0.0767329 0.0914205 0.0656175 0.0761232
92 3 O -1.0285 81.4071 3.0338 -1.2 1 0.0148772 0.0135146 0.0303681 0.0168588 0.0284893 0.0288238 0.050799 0.0440208 0.0375597 0.0526319 0.0676838 0.0381537 0.0644042 0.0733784 0.0844041 0.0774199 0.0648859 0.0698864 0.0678835 0.0558876
93 1 Mg -2.18815 87.1081 4.36716 1.2 1 0.0186181 0.01061 0.015311 0.0359462 0.0190366 0.0309088 0.034843 0.0450811 0.0473096 0.052584 0.065555 0.0441302 0.0619634 0.0695394 0.0659486 0.0794529 0.0748012 0.0752969 0.0837252 0.0637171
94 2 Si 0.325869 89.0334 4.72838 2.4 1 0.0198253 0.0132933 0.0125711 0.0361841 0.0263301 0.0375701 0.0497769 0.0430492 0.0483168 0.061265 0.0526732 0.0780073 0.0589934 0.0640809 0.0808308 0.063429 0.0690693 0.0878907 0.0707194 0.0630527
95 3 O -1.27524 89.0148 4.66936 -1.2 1 0.0205857 0.0213661 0.0165637 0.024014 0.0269326 0.0315419 0.029445 0.0843964 0.0337241 0.0565914 0.0355873 0.0726078 0.0590238 0.07765 0.0697042 0.0696397 0.0667506 0.0695154 0.0667465 0.0680745
96 3 O 1.68839 85.3141 4.78553 -1.2 1 0.0157331 0.0234687 0.018096 0.0294622 0.017928 0.044042 0.037087 0.0446106 0.0650661 0.0450706 0.0502834 0.0482782 0.0585374 0.0709523 0.106632 0.0718089 0.0653292 0.0438708 0.0659946 0.0610871
97 3 O 1.13134 88.2838 3.31879 -1.2 1 0.00814207 0.0236413 0.0264288 0.0249487 0.0298465 0.0302611 0.0602635 0.0467077 0.0479612 0.0466227 0.0582433 0.0469973 0.0669993 0.0634527 0.0919276 0.0795675 0.0736261 0.0625332 0.0620197 0.0756301
98 3 O 0.901993 88.3521 5.86539 -1.2 1 0.015911 0.0203092 0.022538 0.0270758 0.0260459 0.0254505 0.0521233 0.0595601 0.0488385 0.0485005 0.048644 0.0402444 0.0588708 0.0831545 0.0688066 0.0680311 0.0953534 0.0637932 0.0644571 0.0696208
99 1 Mg 0.433232 85.0991 3.32699 1.2 1 0.00664763 0.0217949 0.0262595 0.0305385 0.0245119 0.0409183 0.0385802 0.0580589 0.0557144 0.0660073 0.0444513 0.0553267 0.0404761 0.0579178 0.0628565 0.0945034 0.0789612 0.0850095 0.0740681 0.0581965
100 1 Mg 0.141886 81.8799 4.92798 1.2 1 0.0186651 0.0149862 0.0222931 0.0293878 0.0197609 0.0345158 0.0284359 0.0377332 0.051712 0.0477746 0.0568441 0.0618757 0.0590955 0.0679532 0.0620047 0.0707798 0.0815225 0.0906181 0.0697574 0.0771978
101 2 Si 2.27935 83.6569 4.89091 2.4 1 0.0134869 0.0142352 0.0202337 0.0273999 0.0356336 0.0311518 0.0334095 0.0462097 0.0490434 0.0635624 0.0547027 0.0657298 0.068816 0.0608193 0.0794513 0.0668927 0.0667837 0.0839929 0.0653622 0.0582661
102 3 O -0.938033 83.9219 5.04547 -1.2 1 0.0307827 0.0245045 0.0233729 0.0166696 0.0267651 0.0247909 0.0319235 0.0645673 0.0530167 0.051373 0.0486628 0.0581648 0.0577954 0.0731196 0.0735503 0.0624861 0.0717097 0.0593899 0.070367 0.0577042
103 3 O 0.883869 79.8426 4.58615 -1.2 1 0.00944164 0.0155967 0.0159881 0.0274503 0.0280869 0.0354138 0.0378337 0.0496881 0.0660811 0.0436626 0.0526303 0.0408788 0.0626359 0.0754836 0.098112 0.0730166 0.0685608 0.0610276 0.0667234 0.053479
104 3 O 1.64469 83.2404 3.51584 -1.2 1 0.0123533 0.0131961 0.0225679 0.027985 0.0379901 0.0232206 0.054037 0.0491919 0.0421814 0.044006 0.055546 0.0484327 0.0483589 0.0879637 0.0690307 0.0834678 0.0682338 0.0585205 0.0738349 0.0639298
105 1 Mg 0.0461587 84.6259 0.125524 1.2 1 0.0117974 0.0187926 0.0181785 0.038136 0.0187366 0.0342048 0.0210971 0.0537479 0.0274766 0.0780181 0.0320833 0.0454276 0.0355634 0.0711975 0.0329001 0.100957 0.0481499 0.0978224 0.0496616 0.0797612
106 3 O 1.53365 83.1292 6.11563 -1.2 1 0.0150623 0.0179947 0.0273176 0.0271123 0.0333249 0.0305752 0.0479432 0.0485159 0.0385825 0.0522104 0.0580764 0.0401441 0.0549479 0.071031 0.080484 0.0882963 0.0639379 0.0579838 0.0669319 0.0693853
107 1 Mg 0.0423461 87.5077 1.80791 1.2 1 0.0316694 0.0251798 0.0137687 0.0317439 0.0171543 0.0363816 0.0405103 0.0339299 0.0542597 0.0563179 0.0643206 0.0548676 0.0617632 0.0594708 0.0611468 0.0864049 0.0622831 0.0979916 0.0585152 0.0934467
108 2 Si -1.86019 85.62 1.67065 2.4 1 0.015694 0.0187418 0.0323958 0.0359138 0.0366928 0.0314523 0.0437391 0.0489041 0.0507039 0.0545372 0.0400075 0.0661061 0.0674887 0.0743316 0.0749217 0.0653102 0.0572695 0.0983257 0.0514863 0.0597681
109 3 O 1.4607 85.5795 1.64962 -1.2 1 0.0216316 0.0174834 0.0308345 0.0193283 0.022579 0.0368196 0.0384774 0.0646737 0.0586426 0.0491378 0.0506264 0.076739 0.0564294 0.0669757 0.084273 0.0707705 0.0600037 0.079703 0.0505767 0.072756
110 3 O -1.24252 89.6409 1.38634 -1.2 1 0.0172789 0.0214738 0.020607 0.0215483 0.0212167 0.0345047 0.0413888 0.0428961 0.0448169 0.0484909 0.049452 0.0474452 0.0501321 0.0772956 0.0820865 0.0782713 0.0684471 0.0626167 0.069343 0.047867
111 3 O -1.45156 86.4817 0.352257 -1.2 1 0.0141707 0.0174741 0.0200656 0.0331953 0.0368054 0.0138746 0.0526882 0.0538937 0.0465535 0.0429901 0.0595871 0.0424835 0.060342 0.0667489 0.0789971 0.080595 0.0731706 0.0657451 0.0649479 0.0728255
112 3 O -1.279 86.3257 2.85288 -1.2 1 0.0172064 0.0198422 0.0247533 0.0212345 0.0327107 0.0270526 0.052569 0.0566153 0.0494289 0.0463536 0.0572952 0.0559957 0.0611079 0.0687325 0.0955524 0.0676031 0.0890191 0.0520482 0.078665 0.0616775
113 1 Mg -2.56718 90.1145 0.195932 1.2 1 0.0216215 0.00577472 0.0108724 0.0323798 0.0202647 0.0362558 0.0147111 0.0529521 0.0229492 0.0777679 0.0193744 0.048394 0.0354611 0.0634707 0.0328252 0.0984546 0.0504543 0.0979374 0.0501633 0.0699815
114 1 Mg 2.44468 93.0303 1.96597 1.2 1 0.0158553 0.00994263 0.0113098 0.0330233 0.0183709 0.0394588 0.0389762 0.0366589 0.0496109 0.0512892 0.0600101 0.0571908 0.0589979 0.0690273 0.0652224 0.0794927 0.0727761 0.080342 0.071186 0.0726643
115 2 Si -0.459549 91.1648 1.58575 2.4 1 0.0173165 0.0130026 0.0279023 0.0387015 0.0322222 0.0335491 0.038093 0.049151 0.0591802 0.0476345 0.0543399 0.0662757 0.0744618 0.0625707 0.0787552 0.0703208 0.0644601 0.0919407 0.0701956 0.050921
116 3 O 1.12913 90.8993 1.75976 -1.2 1 0.0272446 0.0117173 0.0254824 0.0231891 0.0264678 0.0298528 0.03593 0.0736179 0.0517291 0.0470444 0.0490075 0.0687612 0.0505834 0.0644495 0.0754109 0.0761081 0.0597501 0.0776723 0.0544143 0.0695325
117 3 O -1.38921 94.9927 1.80184 -1.2 1 0.0271196 0.0172431 0.021269 0.0360466 0.0190299 0.0341382 0.0302636 0.0436299 0.0657715 0.0400534 0.0474035 0.0448321 0.0598247 0.0765182 0.0996188 0.0799527 0.0619481 0.0580802 0.0683039 0.0618384
118 3 O -1.22142 92.0212 0.33849 -1.2 1 0.0164248 0.0262481 0.0282301 0.0254251 0.0194552 0.0342323 0.0446039 0.0496983 0.0417193 0.0605173 0.0687973 0.0469176 0.0576092 0.0487598 0.0935125 0.0715109 0.0598877 0.0776788 0.068008 0.0550956
119 1 Mg -2.05953 101.047 3.08313 1.2 1 0.0165097 0.0232433 0.0167868 0.0353499 0.024109 0.043368 0.0233496 0.0590499 0.0339725 0.0714366 0.0402398 0.0498631 0.0370627 0.0644261 0.0463642 0.0890257 0.0635747 0.0927671 0.0605888 0.0790187
120 3 O -1.13381 91.8283 2.81341 -1.2 1 0.0105252 0.0111515 0.0227027 0.0210385 0.0278099 0.0221759 0.0501408 0.0507847 0.0402563 0.0454522 0.0601136 0.0437893 0.0520627 0.0485225 0.0990641 0.0698777 0.0795888 0.0550068 0.0662079 0.0728091
121 1 Mg -2.12979 97.877 4.75459 1.2 1 0.00949102 0.0146169 0.0189617 0.0318043 0.0184252 0.0397816 0.027602 0.0341628 0.0437857 0.0535182 0.0620333 0.0543564 0.0569141 0.0649024 0.0770325 0.0863901 0.0613008 0.082848 0.0706029 0.0799376
122 2 Si 0.527928 99.787 4.34964 2.4 1 0.0227387 0.0213092 0.0352838 0.023697 0.0373378 0.0288893 0.0329114 0.038927 0.0500876 0.0502464 0.0586698 0.055069 0.0678941 0.0570974 0.0759668 0.0775677 0.0683581 0.0880651 0.0657868 0.0468509
123 3 O -0.964662 99.9543 4.5161 -1.2 1 0.0191359 0.0252466 0.0293812 0.0235371 0.0290206 0.0268597 0.0310932 0.0686 0.0436048 0.0591601 0.0599029 0.0756917 0.055093 0.0643781 0.082421 0.0645318 0.055488 0.0774112 0.0532326 0.0687819
124 3 O 1.38051 95.8726 4.95216 -1.2 1 0.0148991 0.0232411 0.0118376 0.0216065 0.0247556 0.0345452 0.0474409 0.0507962 0.0514892 0.0471385 0.0553835 0.046509 0.0527886 0.0765988 0.0867151 0.0798324 0.0784209 0.058041 0.0588419 0.0530579
125 3 O 1.23165 99.2703 2.99319 -1.2 1 0.0151697 0.00830331 0.0168743 0.0224554 0.0286654 0.0196245 0.0467397 0.0419335 0.0572976 0.0499276 0.0567656 0.0385153 0.0647176 0.0554802 0.0997514 0.0785874 0.0680189 0.075895 0.054894 0.0725179