ITEM: TIMESTEP
64000
ITEM: NUMBER OF ATOMS
5600
ITEM: BOX BOUNDS xy xz yz pp pp pp
0	7.1235	0
0	201.985	2.3745
0	119.584	0
ITEM: ATOMS id type element xu yu zu q Q_1 Q_2 Q_3 Q_4 Q_5 Q_6 Q_7 Q_8 Q_9 Q_10 Q_11 Q_12 Q_13 Q_14 Q_15 Q_16 Q_17 Q_18 Q_19 Q_20 Q_21
1 1 Mg -1.47494 47.802 -1.69701 1.2 1 0.492087 0.0206284 0.136825 0.0432063 0.0885197 0.0395121 0.0489079 0.0503115 0.058587 0.0775325 0.075801 0.0702709 0.0876571 0.0992901 0.106414 0.107389 0.093104 0.099066 0.113808 0.108001
2 1 Mg 3.13855 50.8631 1.13113 1.2 1 0.199102 0.113094 0.053557 0.0447574 0.0414912 0.0442914 0.0427307 0.0675841 0.0700802 0.0536763 0.0893746 0.0569823 0.0557794 0.0759996 0.0763468 0.0863132 0.0666174 0.075688 0.0751355 0.0695774
3 2 Si 1.21256 49.3155 -0.553467 2.4 1 0.333632 0.111136 0.0583902 0.0704745 0.0363375 0.0656154 0.0558216 0.0815111 0.0691197 0.062982 0.0613989 0.0803601 0.0593423 0.0758904 0.0779978 0.0911353 0.0730544 0.0759535 0.0760867 0.0847436
4 3 O 2.20397 48.1208 -0.221675 -1.2 1 0.45634 0.045927 0.114864 0.0462799 0.0807471 0.0509572 0.0893504 0.0570981 0.0824733 0.0671357 0.0720046 0.0694006 0.0878598 0.0874126 0.079449 0.0768567 0.0914293 0.101573 0.101061 0.0857943
5 3 O -1.22319 52.8667 0.892653 -1.2 1 0.0954307 0.034475 0.0475716 0.0152396 0.0302071 0.0371906 0.0464506 0.0477184 0.0728716 0.0569115 0.0610434 0.058075 0.0596109 0.0581524 0.0924068 0.0770433 0.0684461 0.0631845 0.0769551 0.0749765
6 3 O 0.422438 48.8134 -1.83786 -1.2 1 0.388743 0.0945855 0.100827 0.0429368 0.056359 0.0668788 0.0413145 0.0376063 0.05314 0.0676318 0.0585766 0.0695963 0.101082 0.108115 0.09473 0.0994973 0.0832878 0.0884173 0.0883547 0.0853638
7 1 Mg -2.13858 58.5955 2.82592 1.2 1 0.0143106 0.00974016 0.0166979 0.0373057 0.0242079 0.0339382 0.0165248 0.0597718 0.0194654 0.0759901 0.0196574 0.0578056 0.0340615 0.0768753 0.0363143 0.0995504 0.040706 0.10575 0.0485012 0.0865806
8 3 O 0.0075596 49.7837 0.468862 -1.2 1 0.2881 0.136966 0.0346362 0.0575674 0.0355804 0.0421854 0.0625261 0.0654076 0.0756063 0.0893088 0.0763575 0.0666982 0.0680192 0.061925 0.0877462 0.0941825 0.0777798 0.0710741 0.0868435 0.0950209
9 1 Mg -1.97207 55.5275 4.07743 1.2 1 0.0198407 0.0165617 0.0186284 0.0347268 0.023176 0.0411557 0.027024 0.038465 0.0496344 0.0467356 0.0715458 0.0705802 0.0396917 0.0630026 0.0665749 0.0743902 0.0733938 0.0574276 0.0801589 0.0765532
10 2 Si 0.510513 57.6319 4.28007 2.4 1 0.0349367 0.0234386 0.0239899 0.0382672 0.0438218 0.0317999 0.0416373 0.0427895 0.0551742 0.0657794 0.0526805 0.0757338 0.0714801 0.0534911 0.0817008 0.0762154 0.0624732 0.100062 0.0472144 0.0683823
11 3 O -1.0779 57.7779 4.28749 -1.2 1 0.0313651 0.0287557 0.0222924 0.0239957 0.0265988 0.0341273 0.0315409 0.0744765 0.0383369 0.0643479 0.0513316 0.0679851 0.0645798 0.0610892 0.0747323 0.0735936 0.0650344 0.0734088 0.0511289 0.072887
12 3 O 1.31175 53.4635 3.89312 -1.2 1 0.0588634 0.0332206 0.0472111 0.0202569 0.0269267 0.0313912 0.0369589 0.0414991 0.0607534 0.0506929 0.0702007 0.0607451 0.0548917 0.078857 0.0847073 0.0746865 0.0806978 0.063021 0.0757353 0.060856
13 3 O 0.957466 56.6433 3.08699 -1.2 1 0.0310221 0.0301893 0.0236439 0.0221535 0.0279593 0.0397464 0.0432188 0.0517 0.048371 0.0524951 0.0635101 0.0404257 0.0625295 0.0698976 0.0722123 0.0716731 0.0675009 0.0636019 0.0675713 0.0646357
14 3 O 1.13132 57.079 5.69897 -1.2 1 0.0369024 0.0263732 0.0313797 0.020349 0.0387982 0.0256442 0.0538958 0.0475098 0.0424415 0.0463043 0.0572142 0.0412296 0.0520861 0.0682802 0.0749966 0.090116 0.0745446 0.0750829 0.0658482 0.0719264
15 1 Mg 0.0736728 53.1599 2.41108 1.2 1 0.0760564 0.0467145 0.0454729 0.0259886 0.0303905 0.0347794 0.0314427 0.0597265 0.0500487 0.0675944 0.0466628 0.0550465 0.0643659 0.0512642 0.0663148 0.0675323 0.0811157 0.0902287 0.0646863 0.0666155
16 1 Mg 0.729907 49.6696 2.39301 1.2 1 0.29969 0.124994 0.0346832 0.0735151 0.0491795 0.0632175 0.0701442 0.0364773 0.0796367 0.077732 0.0655985 0.076203 0.0702575 0.0664549 0.0899029 0.0897318 0.0744834 0.0950975 0.0832851 0.0790372
17 2 Si 2.06305 52.1237 3.90007 2.4 1 0.0900822 0.0973874 0.0605948 0.0242149 0.0250276 0.0429526 0.0452145 0.0655291 0.0646002 0.0824779 0.0638919 0.0837872 0.0663453 0.0874362 0.058459 0.079585 0.0701396 0.0787263 0.0738281 0.0674791
18 3 O -1.15785 52.3447 3.88543 -1.2 1 0.101926 0.088188 0.0544829 0.0311026 0.0265954 0.0290054 0.0585643 0.0604639 0.0470976 0.0770848 0.0532567 0.0962029 0.0633561 0.0703652 0.0777665 0.0782955 0.0842508 0.0794566 0.0840239 0.0773478
19 3 O 2.92605 49.5288 2.45295 -1.2 1 0.317764 0.116137 0.0499611 0.0622743 0.049726 0.0828094 0.075911 0.0647776 0.0781255 0.0638678 0.0535763 0.0695897 0.0804023 0.0996283 0.0877407 0.086878 0.0696394 0.0905868 0.0810015 0.102459
20 3 O 1.41275 51.4879 2.52772 -1.2 1 0.158234 0.0991995 0.0434565 0.0318001 0.0250112 0.0497986 0.0471974 0.0605136 0.0621783 0.066729 0.0626329 0.0661728 0.0760202 0.0811098 0.068233 0.0884867 0.0828545 0.0796516 0.0645312 0.0923979
21 1 Mg 0.164351 53.9678 -1.03183 1.2 1 0.0342132 0.0280614 0.0358933 0.0214457 0.0312761 0.036169 0.0431844 0.045556 0.0603821 0.0502451 0.04796 0.0631053 0.0766092 0.053802 0.0733169 0.0689998 0.1002 0.0745101 0.0588293 0.0786051
22 3 O 1.61046 51.2057 5.12891 -1.2 1 0.187516 0.0969169 0.0281378 0.0202304 0.0171181 0.052067 0.0396377 0.0801967 0.0620215 0.0729169 0.0768306 0.0628214 0.0730926 0.0746555 0.0779268 0.0813871 0.0891095 0.0782195 0.0759896 0.0761706
23 1 Mg 0.286599 56.1795 1.40974 1.2 1 0.0194332 0.00843112 0.0207312 0.0301477 0.0228272 0.0333043 0.0349827 0.0356497 0.0469374 0.0504933 0.0637386 0.0523248 0.0566345 0.0716066 0.076476 0.0900539 0.0653867 0.0783232 0.0656956 0.0711965
24 2 Si -1.8688 54.2249 1.00662 2.4 1 0.0149653 0.0122291 0.0348108 0.0407659 0.0290094 0.0378115 0.0409901 0.0504037 0.0583781 0.0644318 0.0571799 0.0693848 0.0709509 0.0711652 0.0486764 0.067021 0.0625502 0.0814309 0.0809772 0.066998
25 3 O 1.23311 54.2509 0.890094 -1.2 1 0.0107705 0.0302267 0.0263147 0.023995 0.0201432 0.0403167 0.0272238 0.0594724 0.0532166 0.0568597 0.043599 0.071233 0.044651 0.0641945 0.0722256 0.0690948 0.082483 0.0549375 0.0689271 0.073032
26 3 O -0.845295 58.2803 1.52099 -1.2 1 0.0300968 0.0187319 0.0224911 0.0198352 0.0221954 0.0376929 0.0480391 0.0396917 0.0503656 0.0501038 0.0512748 0.0562255 0.0581287 0.0854486 0.0812897 0.0829827 0.069777 0.0639023 0.0849505 0.0599879
27 3 O -1.28112 55.1103 -0.170049 -1.2 1 0.0329805 0.0202592 0.0213127 0.0251571 0.032437 0.0370221 0.043374 0.047236 0.0445975 0.058059 0.0701936 0.056561 0.0520838 0.0737063 0.0787372 0.0776666 0.0590092 0.0604573 0.0773028 0.0684608
28 3 O -1.3634 54.8597 2.38986 -1.2 1 0.0252095 0.0189029 0.0199827 0.0332148 0.0318714 0.0235174 0.0591233 0.040184 0.047932 0.0411542 0.064093 0.0611185 0.0667171 0.0653834 0.0667693 0.0780572 0.0794491 0.0658795 0.0664682 0.0628817
29 1 Mg -2.13553 58.8878 -0.346202 1.2 1 0.0256213 0.0199929 0.0148096 0.0262824 0.0223213 0.0349229 0.0219415 0.0551329 0.0339404 0.0652192 0.034836 0.0445042 0.0399155 0.0674691 0.0409743 0.0967201 0.059824 0.103128 0.0655144 0.0884379
30 1 Mg 2.56157 61.532 1.3001 1.2 1 0.0261339 0.0162785 0.0200147 0.033651 0.0157036 0.0295196 0.0217391 0.0258387 0.0431042 0.0506249 0.0560073 0.0537356 0.0635683 0.0674902 0.0589309 0.0782855 0.0648488 0.102704 0.0647184 0.0937786
31 2 Si -0.0686872 59.7443 1.4819 2.4 1 0.0376995 0.0154601 0.0245571 0.0261254 0.0341111 0.0275944 0.0396333 0.032767 0.0480951 0.0570355 0.0544473 0.0580917 0.0741018 0.0578576 0.0825827 0.0634226 0.0653168 0.0748062 0.0638317 0.0605093
32 3 O 1.41843 59.5601 1.31459 -1.2 1 0.0335494 0.0215984 0.0164739 0.028968 0.0289783 0.0278609 0.0265169 0.0692627 0.0469495 0.0539558 0.0408897 0.0715925 0.0538392 0.0706791 0.0823153 0.0720169 0.0501106 0.0834664 0.0530135 0.0810373
33 3 O -1.34673 63.5729 1.4501 -1.2 1 0.0110334 0.0163516 0.0244255 0.01568 0.0201981 0.0305724 0.0335366 0.0446607 0.0533179 0.0395793 0.0438257 0.0357131 0.0569544 0.0688341 0.0912965 0.0741548 0.0700515 0.0536308 0.0744506 0.0569772
34 3 O -0.848597 60.3437 0.118229 -1.2 1 0.00808642 0.0138752 0.0360961 0.0169419 0.0252598 0.0196694 0.0431583 0.0417605 0.0454501 0.0480578 0.0495404 0.0489205 0.0527328 0.0686479 0.0789735 0.0641236 0.075943 0.0550254 0.0690256 0.0702484
35 1 Mg -2.11235 69.0863 3.09789 1.2 1 0.00962448 0.0148479 0.0179038 0.0258255 0.0153687 0.0355596 0.0242537 0.0556881 0.027877 0.0768136 0.0362734 0.042838 0.0371582 0.0683901 0.0415073 0.0938562 0.0590794 0.103945 0.0573684 0.0888764
36 3 O -0.716391 60.3767 2.74326 -1.2 1 0.016473 0.0244517 0.0215523 0.0184047 0.0317532 0.0236243 0.046652 0.0453797 0.0337113 0.0513806 0.055271 0.0429967 0.0496795 0.0661823 0.0720524 0.0759662 0.0727588 0.0605846 0.0699965 0.0683344
37 1 Mg -2.19446 66.2807 4.49877 1.2 1 0.0210919 0.0131114 0.0236007 0.0328916 0.0153477 0.0251152 0.0220046 0.0341535 0.0435272 0.063371 0.0618151 0.050522 0.0634453 0.0621012 0.0605608 0.0764308 0.072449 0.100144 0.0580325 0.0880917
38 2 Si 0.320636 68.2121 4.44272 2.4 1 0.0140368 0.00836271 0.021185 0.0201949 0.0283371 0.0302331 0.0432443 0.0394247 0.0437468 0.0635965 0.0496377 0.0602203 0.0717778 0.0568023 0.0775801 0.0592649 0.0753223 0.0967244 0.0588429 0.069152
39 3 O -1.2651 68.1649 4.4696 -1.2 1 0.0129587 0.011721 0.00710079 0.0323056 0.0232308 0.0249912 0.0189226 0.0725166 0.03512 0.059643 0.0364659 0.0643685 0.0485308 0.0664675 0.0711519 0.0616169 0.0579323 0.0677444 0.0592719 0.087743
40 3 O 1.36445 64.4963 4.42036 -1.2 1 0.0195505 0.0244766 0.0287942 0.0166828 0.0192831 0.0316313 0.0301837 0.0415791 0.0525261 0.0447248 0.0401404 0.0487327 0.0474492 0.0634936 0.100268 0.0621104 0.0765712 0.0499833 0.0646296 0.0672357
41 3 O 1.04932 67.7101 2.98506 -1.2 1 0.0169806 0.0255822 0.0261334 0.0198185 0.0284439 0.0250688 0.0383018 0.0466622 0.0497079 0.0343959 0.0527502 0.043013 0.0544815 0.0583767 0.0794423 0.0678798 0.0711766 0.0653971 0.0733796 0.079752
42 3 O 1.00215 67.4404 5.61848 -1.2 1 0.00936988 0.00533456 0.0210366 0.0179653 0.0232801 0.0250318 0.0465107 0.0428182 0.032694 0.0487896 0.053316 0.0466997 0.0530706 0.0745195 0.073727 0.0684822 0.0773755 0.0603845 0.0733473 0.06245
43 1 Mg -0.0651346 63.9277 2.99162 1.2 1 0.0192362 0.0129203 0.0117372 0.0223131 0.0128849 0.0303994 0.0152587 0.0522415 0.0231713 0.0770229 0.0177169 0.0452078 0.0328034 0.0624911 0.0333279 0.0931826 0.0393026 0.111352 0.0438931 0.0844156
44 1 Mg 0.0639864 60.8703 4.47557 1.2 1 0.00664435 0.0252788 0.021189 0.0367664 0.0233117 0.0340815 0.020764 0.0382345 0.0371735 0.0599116 0.0576549 0.0528388 0.0562348 0.0602539 0.0716409 0.0704325 0.0777246 0.0820725 0.0789993 0.0576503
45 2 Si 2.11593 62.8838 4.32881 2.4 1 0.00832071 0.0135239 0.021745 0.0310494 0.0316131 0.0297521 0.0381764 0.0497924 0.053706 0.0485988 0.0530524 0.0604607 0.070682 0.0518315 0.0721099 0.07611 0.0588761 0.100423 0.0635042 0.0537767
46 3 O -0.902115 62.8107 4.47689 -1.2 1 0.0154247 0.0229526 0.0207656 0.0258038 0.032924 0.0252594 0.0157096 0.0648895 0.0419683 0.0725882 0.0339609 0.0538305 0.0531389 0.0771241 0.0714626 0.0645014 0.0524946 0.056176 0.0718889 0.073925
47 3 O 1.15385 59.0699 4.12849 -1.2 1 0.0148601 0.0169952 0.0252387 0.0390878 0.0124167 0.0386403 0.0309219 0.0416283 0.0565137 0.0442862 0.0498672 0.0498884 0.0556307 0.0760354 0.0971775 0.0673161 0.0692125 0.059054 0.0782802 0.054668
48 3 O 1.46072 62.2938 3.01677 -1.2 1 0.0121528 0.024961 0.0198855 0.0221937 0.0195728 0.0236942 0.0483031 0.0468755 0.0423037 0.0454799 0.0532807 0.0449515 0.0523604 0.0559556 0.0838487 0.0717488 0.0726434 0.0536484 0.0662743 0.0747264
49 1 Mg 0.0880439 63.818 0.0116336 1.2 1 0.016685 0.00963094 0.0152218 0.028098 0.0145534 0.0349596 0.021129 0.0513351 0.0338949 0.0772103 0.0319491 0.0476011 0.0325563 0.0630286 0.0282157 0.0963248 0.0443384 0.0980899 0.0481497 0.0840642
50 3 O 1.36094 62.1819 5.53982 -1.2 1 0.021147 0.0141364 0.0324756 0.0218422 0.0273093 0.0209063 0.044816 0.0375639 0.0400974 0.0460216 0.05655 0.0455927 0.0537595 0.0486404 0.0903853 0.0704121 0.0733289 0.0708902 0.0679979 0.0618138
51 1 Mg 0.0986947 66.7464 1.43637 1.2 1 0.01821 0.00972779 0.0195449 0.029912 0.0110287 0.0296936 0.0285045 0.0351287 0.039323 0.0636321 0.0599339 0.0504622 0.0591405 0.0722615 0.0650028 0.086391 0.0613089 0.10185 0.0678701 0.0921943
52 2 Si -1.93066 65.1017 1.32516 2.4 1 0.0202924 0.015191 0.0179003 0.0315323 0.0324509 0.0306317 0.0396389 0.0437063 0.0495504 0.0480095 0.0467886 0.0569612 0.0662003 0.0526808 0.0696461 0.0725018 0.0609775 0.0953611 0.0587417 0.0639951
53 3 O 1.30481 64.941 1.37523 -1.2 1 0.0239038 0.00480891 0.0203651 0.0215337 0.0188607 0.0261542 0.0279458 0.0705086 0.0342934 0.0540962 0.0460893 0.0663853 0.0563485 0.068539 0.0685816 0.0597078 0.0614802 0.0737644 0.0535256 0.0708897
54 3 O -1.08857 68.7604 1.40727 -1.2 1 0.0126437 0.0236977 0.0160513 0.0175278 0.0113457 0.0347105 0.0380085 0.0395133 0.057196 0.039225 0.0472339 0.0444738 0.0527246 0.0745119 0.102426 0.0659472 0.075418 0.0499969 0.0742469 0.0556497
55 3 O -1.21835 65.7685 0.107585 -1.2 1 0.0159318 0.0113987 0.0335764 0.0207024 0.015746 0.0224734 0.0446049 0.0396827 0.0410976 0.0482611 0.0554765 0.0397845 0.0545007 0.0524064 0.0847767 0.0775441 0.0626598 0.0679909 0.056281 0.0680112
56 3 O -1.19974 65.7752 2.73503 -1.2 1 0.00136719 0.0270708 0.0234634 0.0193416 0.0164161 0.019837 0.0411807 0.0424024 0.0348603 0.0461377 0.0550315 0.0353818 0.0578332 0.0537057 0.0832386 0.0701742 0.0762843 0.0684492 0.0605483 0.0708196
57 1 Mg -2.5308 69.036 -0.0716702 1.2 1 0.0172273 0.0143916 0.0135998 0.0255923 0.0149681 0.0343703 0.0193398 0.0536849 0.0235121 0.0787891 0.0324162 0.0462705 0.0294666 0.0694233 0.0291232 0.0930312 0.0497075 0.109474 0.0482349 0.0805472
58 1 Mg 2.3807 72.0869 1.42977 1.2 1 0.0230198 0.0215076 0.0157138 0.0283979 0.0198582 0.0237336 0.0294538 0.0356779 0.0402265 0.0634072 0.054449 0.0585611 0.0665359 0.0695493 0.0658032 0.0675859 0.0789007 0.0999505 0.0670123 0.0799156
59 2 Si -0.38628 70.2303 1.41411 2.4 1 0.0162055 0.0283917 0.0226205 0.0284647 0.0280716 0.0275301 0.0363545 0.046593 0.0382145 0.058536 0.0599056 0.0633451 0.0680126 0.0584583 0.0720281 0.0763237 0.0639052 0.0954842 0.0535876 0.062585
60 3 O 1.22104 70.1578 1.31383 -1.2 1 0.0233116 0.0141251 0.0130305 0.023009 0.0222839 0.0243169 0.0228989 0.0656603 0.0385481 0.0602377 0.0391764 0.068623 0.0572434 0.0601717 0.0680222 0.0594131 0.0602624 0.0699959 0.07247 0.0747818
61 3 O -1.43369 73.8539 1.33159 -1.2 1 0.0097223 0.0173044 0.0239104 0.0205351 0.0157996 0.038716 0.0329727 0.0394481 0.0568449 0.0435778 0.0457097 0.0378191 0.0550199 0.0683201 0.0965044 0.0786033 0.0703969 0.0461054 0.0786092 0.0590463
62 3 O -0.997282 70.8475 0.139935 -1.2 1 0.0122753 0.0182397 0.0301275 0.0125781 0.0215652 0.0197211 0.0353544 0.0433023 0.037578 0.0512885 0.0540208 0.0450299 0.0497321 0.0630601 0.0720435 0.0694621 0.0778253 0.0667085 0.0667826 0.0692738
63 1 Mg -2.22438 79.298 3.0387 1.2 1 0.00463965 0.0208917 0.0175685 0.0328585 0.0182633 0.0306232 0.030804 0.0573254 0.037882 0.0693868 0.0366817 0.0501651 0.037876 0.0622975 0.0523153 0.0982415 0.0569073 0.105331 0.0652189 0.0679124
64 3 O -0.961749 70.7387 2.82784 -1.2 1 0.00943161 0.0183722 0.0253978 0.0257966 0.0254589 0.0198161 0.0488533 0.041458 0.039671 0.0504174 0.0530009 0.0462021 0.0585659 0.0610399 0.0803597 0.071526 0.0725458 0.0637281 0.0672438 0.0793074
65 1 Mg -2.275 76.6467 4.49488 1.2 1 0.0198774 0.0147838 0.0174288 0.0289701 0.0153304 0.028205 0.0262961 0.0336583 0.0434397 0.0584764 0.0571431 0.0539896 0.0671912 0.0661445 0.0680832 0.0797599 0.0701415 0.0950308 0.0710623 0.0922839
66 2 Si 0.46024 78.5821 4.65599 2.4 1 0.023305 0.0103583 0.0190985 0.0392511 0.0323128 0.0318025 0.0354103 0.0409057 0.0527029 0.0594685 0.0535043 0.0631802 0.0745524 0.0589272 0.074914 0.0656883 0.062189 0.0842747 0.0539003 0.059348
67 3 O -1.10624 78.6635 4.71618 -1.2 1 0.0339638 0.0233112 0.0184883 0.0255184 0.0199755 0.0313354 0.0315053 0.0828075 0.0371677 0.0568291 0.0413848 0.0736481 0.0539486 0.0718298 0.0739554 0.0679385 0.0529151 0.0799666 0.054816 0.0708323
68 3 O 1.54964 74.8052 4.4323 -1.2 1 0.00404175 0.0163971 0.022385 0.0309124 0.0204721 0.0344902 0.0338862 0.0491971 0.0550655 0.0448932 0.0434705 0.0494299 0.0599833 0.067508 0.100976 0.0712286 0.0697418 0.060337 0.0694323 0.0617939
69 3 O 1.01 77.8067 3.31967 -1.2 1 0.0205314 0.0177803 0.0345744 0.0188847 0.027225 0.027597 0.0507325 0.0412814 0.0370035 0.053974 0.0605392 0.0410922 0.0545339 0.0782333 0.0698436 0.0741613 0.0770151 0.0584931 0.0751986 0.06402
70 3 O 1.1352 77.8104 5.79766 -1.2 1 0.0120172 0.0139941 0.0260892 0.0157788 0.0269637 0.0182429 0.0411764 0.0498312 0.0323892 0.048882 0.0545914 0.0487473 0.0575834 0.0718753 0.0861522 0.0792635 0.0777119 0.0635121 0.067565 0.0707912
71 1 Mg -0.0547319 74.3012 2.75915 1.2 1 0.0230781 0.0114642 0.020721 0.0299015 0.0134652 0.0359821 0.0235861 0.0564996 0.0238389 0.0717072 0.0336334 0.0548875 0.0223412 0.0685182 0.0327914 0.0982024 0.0548676 0.102851 0.0453363 0.0727813
72 1 Mg 0.0859473 71.5484 4.50752 1.2 1 0.0165521 0.0154861 0.0179616 0.0290822 0.0172106 0.0204232 0.019954 0.0246066 0.0468714 0.0640132 0.0504516 0.0510179 0.05904 0.0677466 0.054746 0.0852563 0.0651654 0.104847 0.0621996 0.0992507
73 2 Si 2.15847 73.3782 4.49781 2.4 1 0.0143372 0.00957989 0.0190177 0.0317048 0.0198366 0.0330479 0.0442841 0.0417636 0.0462149 0.0559181 0.056558 0.0578944 0.0708423 0.0574778 0.0812943 0.0640588 0.0677312 0.0913247 0.0569319 0.0603903
74 3 O -1.02125 73.3274 4.48723 -1.2 1 0.0159459 0.0143621 0.0225272 0.0281027 0.0198281 0.0288523 0.0267439 0.0705484 0.0343565 0.0521691 0.0380501 0.0682097 0.0539755 0.0693471 0.0697146 0.0690368 0.0599271 0.0782089 0.0603191 0.0764771
75 3 O 0.969151 69.7303 4.58716 -1.2 1 0.0128557 0.0116998 0.0189521 0.0210828 0.0236861 0.0326207 0.0282592 0.0442355 0.0514282 0.053449 0.0403764 0.0495087 0.0539259 0.0702226 0.0906403 0.0730978 0.0657298 0.0638673 0.060262 0.0673976
76 3 O 1.37218 72.7017 3.19433 -1.2 1 0.0173101 0.0156913 0.032694 0.0144047 0.0221853 0.0205603 0.0427103 0.0429452 0.0357679 0.0462764 0.0506021 0.0410563 0.0525062 0.0607711 0.0814751 0.0663937 0.0800407 0.0602878 0.0686567 0.0690102
77 1 Mg -0.0255281 74.3812 -0.0508053 1.2 1 0.0227673 0.0142747 0.00828121 0.0278356 0.0138858 0.0441498 0.0137825 0.0603273 0.0208719 0.0786735 0.0219866 0.0550513 0.0251938 0.0671269 0.0259936 0.100764 0.0299174 0.117858 0.0334764 0.101154
78 3 O 1.41438 72.735 5.79347 -1.2 1 0.00997154 0.0113063 0.0392187 0.024802 0.0259271 0.0226143 0.0457542 0.0386323 0.0449884 0.0390104 0.0474601 0.0484734 0.0576272 0.0648374 0.08149 0.0671505 0.0812135 0.0617468 0.0669881 0.0771316
79 1 Mg 0.029311 77.2559 1.66539 1.2 1 0.0155983 0.0102278 0.0237823 0.0242469 0.0226546 0.0305126 0.0224113 0.0293689 0.0441106 0.0645859 0.0493139 0.0565801 0.0580706 0.0723789 0.0672952 0.0704137 0.0728581 0.100127 0.0533829 0.0802207
80 2 Si -2.14143 75.2739 1.38302 2.4 1 0.0242302 0.01376 0.0106082 0.0197756 0.0365884 0.0276153 0.0398779 0.0407168 0.0438541 0.0641461 0.0590624 0.0646819 0.072876 0.0453998 0.0827209 0.0685997 0.0775315 0.0879579 0.0683062 0.0619799
81 3 O 1.0392 75.2545 1.53411 -1.2 1 0.0186826 0.0243429 0.0115253 0.0221627 0.0269323 0.0282416 0.0151476 0.077843 0.0344386 0.0553119 0.0350947 0.0706484 0.0537044 0.0635966 0.0794257 0.0730164 0.0609756 0.0727904 0.0604741 0.0703266
82 3 O -0.893477 79.1643 1.58288 -1.2 1 0.00903127 0.0143821 0.0309208 0.0303461 0.0181812 0.0369476 0.042459 0.0494417 0.0534276 0.0415694 0.0527413 0.0439739 0.0540921 0.0719707 0.096541 0.0857929 0.0743736 0.0525856 0.0714068 0.0627667
83 3 O -1.56547 75.9624 -0.0777344 -1.2 1 0.0334229 0.0144153 0.0301497 0.0161443 0.0256074 0.0309779 0.0473938 0.0473368 0.0579975 0.0547827 0.0540227 0.0361352 0.0644718 0.0705596 0.0641791 0.0856027 0.0676513 0.0615104 0.0611058 0.0792559
84 3 O -1.51841 75.9636 2.71696 -1.2 1 0.0271384 0.0180283 0.0215546 0.0294729 0.0327349 0.0334691 0.0483688 0.0453096 0.0475283 0.0597015 0.0509199 0.046979 0.0538275 0.083628 0.0688957 0.0763873 0.079157 0.0669166 0.0691204 0.0688175
85 1 Mg -2.2166 79.3525 0.069724 1.2 1 0.0220847 0.019554 0.0104288 0.0344687 0.0193223 0.0401273 0.0178455 0.0621311 0.0356191 0.0673932 0.0232655 0.0477384 0.0221369 0.0699688 0.0398732 0.0977496 0.0534577 0.104116 0.0531128 0.082204
86 1 Mg 2.61765 82.7901 1.82964 1.2 1 0.0192849 0.0146386 0.017113 0.0218899 0.02084 0.0339218 0.0324257 0.0389897 0.0479051 0.0548176 0.0541669 0.067521 0.0675553 0.0701328 0.0751202 0.0632072 0.0863707 0.0845006 0.0777762 0.0731931
87 2 Si -0.143588 80.6559 1.61622 2.4 1 0.0090773 0.011279 0.0256583 0.0278518 0.035861 0.0353587 0.040922 0.043288 0.0485639 0.052157 0.0611384 0.065361 0.0854987 0.0543464 0.0731306 0.0709417 0.0643812 0.0824924 0.0729645 0.0579903
88 3 O 1.40872 80.4437 1.71556 -1.2 1 0.0256293 0.0152554 0.0208378 0.020817 0.0251056 0.0278545 0.0234789 0.0641225 0.0404733 0.0673904 0.0482247 0.0725009 0.0412301 0.0716863 0.0753288 0.0658205 0.0606085 0.0769074 0.0528133 0.0790741
89 3 O -1.22914 84.4397 1.58961 -1.2 1 0.00818935 0.0161713 0.020358 0.0194042 0.0199621 0.035933 0.043684 0.0472242 0.0609739 0.0439184 0.0441467 0.0519901 0.0599216 0.0675351 0.0958654 0.0753556 0.0711626 0.0617981 0.0662989 0.052174
90 3 O -0.724639 81.4187 0.341673 -1.2 1 0.0136359 0.0150795 0.0241258 0.0211834 0.0314925 0.0371912 0.0474802 0.0475151 0.0304322 0.0515264 0.0569672 0.0465379 0.0535793 0.0862035 0.0663997 0.0742358 0.0748631 0.0603157 0.0595803 0.0729495
91 1 Mg -2.27336 90.1721 3.04133 1.2 1 0.0126458 0.00900334 0.0204269 0.0305922 0.0143075 0.0384122 0.02457 0.0585836 0.0271935 0.0762797 0.0256772 0.0434831 0.0284659 0.0703219 0.0260973 0.0940286 0.0496258 0.100165 0.0611612 0.0852989
92 3 O -0.803686 81.3076 2.90332 -1.2 1 0.0158516 0.0197814 0.0261529 0.0193126 0.0351393 0.0193839 0.0527851 0.0430932 0.0290272 0.0422436 0.0564903 0.0453059 0.0557431 0.072702 0.0817991 0.0852367 0.0666685 0.065062 0.0710979 0.0670275
93 1 Mg -2.36081 87.4236 4.95509 1.2 1 0.0204988 0.0144779 0.0144125 0.0349756 0.0216305 0.0381058 0.0313536 0.0408694 0.0520622 0.0622853 0.0596993 0.0461077 0.0628166 0.0752763 0.0677624 0.0761225 0.0634314 0.0983091 0.0782295 0.0808928
94 2 Si 0.482521 89.1855 4.76792 2.4 1 0.0108521 0.0117845 0.0273732 0.0349346 0.029618 0.034771 0.0397179 0.0459672 0.053791 0.0461226 0.0520486 0.0677154 0.0791462 0.0519163 0.0686258 0.0621044 0.0636359 0.0920105 0.0608576 0.0567223
95 3 O -1.0945 89.3833 4.64193 -1.2 1 0.0228703 0.0315129 0.0282942 0.0185689 0.0220915 0.0273485 0.0347189 0.0759964 0.0362028 0.0598493 0.047044 0.072596 0.0508666 0.073906 0.0736426 0.0692313 0.0627085 0.0746848 0.0502887 0.0747024
96 3 O 1.36195 85.604 4.611 -1.2 1 0.016932 0.0233435 0.0267272 0.026748 0.0260979 0.0347292 0.0390927 0.0560621 0.0504655 0.0462058 0.04248 0.0575217 0.0523793 0.0797889 0.0899342 0.0653534 0.0722547 0.0671037 0.0613801 0.0547117
97 3 O 1.09373 88.3554 3.58045 -1.2 1 0.00330529 0.0188335 0.0263788 0.0239755 0.0301569 0.0285743 0.0539195 0.0454182 0.042889 0.0460286 0.0611783 0.039925 0.0717016 0.065948 0.073806 0.0824677 0.061596 0.0819417 0.0643091 0.0630547
98 3 O 1.10968 88.6555 6.10069 -1.2 1 0.0102213 0.0220305 0.0298956 0.0266171 0.0281509 0.0216288 0.0505545 0.0396941 0.0415437 0.0435323 0.0548245 0.0400095 0.059299 0.0508193 0.0939256 0.0692269 0.0747688 0.0672534 0.0605761 0.0756702
99 1 Mg 0.0237184 84.9978 3.07659 1.2 1 0.0180051 0.0129528 0.0107028 0.0371874 0.00651118 0.0376621 0.0206177 0.0605168 0.0213027 0.0765396 0.0298212 0.0511478 0.0278729 0.0721905 0.0307894 0.0945418 0.0380553 0.110703 0.0530845 0.0855625
100 1 Mg 0.36732 81.8606 4.58862 1.2 1 0.0269222 0.0216467 0.0113131 0.0239167 0.0208784 0.0325947 0.021712 0.0371038 0.0538647 0.0433029 0.0610817 0.0588397 0.0629139 0.0657244 0.0756959 0.0665272 0.0818597 0.0915243 0.0598563 0.0801875
101 2 Si 2.07842 84.1239 4.77276 2.4 1 0.0291212 0.0158906 0.0349351 0.0350785 0.0424149 0.033892 0.0426309 0.0442882 0.052379 0.0541062 0.0546147 0.0671686 0.0648779 0.066208 0.0696379 0.0635589 0.0635071 0.0975917 0.0577774 0.0648953
102 3 O -1.13591 84.2685 4.77246 -1.2 1 0.0228299 0.0139915 0.0172594 0.0273229 0.0302612 0.0349551 0.0309434 0.0605897 0.0440285 0.0538876 0.0521421 0.0768459 0.0444235 0.0602029 0.0782859 0.0653935 0.0672505 0.0739243 0.0482725 0.0765391
103 3 O 1.1437 79.9563 4.50854 -1.2 1 0.0110688 0.0237992 0.0154755 0.0261069 0.0149796 0.0280101 0.0443206 0.0440269 0.0526131 0.0374275 0.0564494 0.04678 0.0598716 0.0797347 0.0934143 0.0696964 0.0769675 0.0538496 0.0650948 0.0538428
104 3 O 1.36865 83.5858 3.43695 -1.2 1 0.0133805 0.0136018 0.0248186 0.0215837 0.0384419 0.0275234 0.0464194 0.0440938 0.0417003 0.0434504 0.0501791 0.0587039 0.0454691 0.0645207 0.0963435 0.0667537 0.0843271 0.0655283 0.0739563 0.0537252
105 1 Mg 0.264118 84.7656 0.281361 1.2 1 0.00941321 0.020566 0.0203079 0.0249937 0.0221356 0.0409179 0.0185466 0.0569173 0.0202261 0.0714341 0.0282279 0.048058 0.0345037 0.0700001 0.0478693 0.0960887 0.0620976 0.0983742 0.0505985 0.0772567
106 3 O 1.52346 83.3832 5.9952 -1.2 1 0.01684 0.0311363 0.0218879 0.0281106 0.0290262 0.0261416 0.0477331 0.0474798 0.0393429 0.0409709 0.0624887 0.0484187 0.0562136 0.0784968 0.0886695 0.0696377 0.0807482 0.0679372 0.0563816 0.0769634
107 1 Mg 0.220386 87.79 1.74807 1.2 1 0.026674 0.0161296 0.0175361 0.0298858 0.0156829 0.0296459 0.0329133 0.0442295 0.0438997 0.0632635 0.0635815 0.0544261 0.0672917 0.0675583 0.0573399 0.087505 0.0599352 0.0871851 0.0689267 0.086622
108 2 Si -2.05042 86.0796 1.866 2.4 1 0.0181843 0.0225617 0.0180604 0.0312249 0.0333584 0.0296037 0.0391233 0.0432544 0.0523229 0.0594372 0.0596275 0.0651658 0.0768741 0.0579341 0.0807094 0.0640183 0.0644239 0.0747554 0.0717461 0.0637507
109 3 O 1.16979 85.9061 1.68952 -1.2 1 0.0197292 0.0293679 0.0132936 0.0237471 0.0270633 0.0344548 0.0314801 0.0828352 0.0385108 0.0638577 0.040966 0.0634226 0.0519014 0.0737938 0.0738489 0.0683023 0.0571595 0.0804916 0.0541092 0.0653514
110 3 O -0.611637 89.5266 1.69404 -1.2 1 0.0144013 0.0245157 0.0206248 0.021486 0.0303157 0.0352893 0.0352636 0.0549443 0.0474313 0.0467735 0.0412527 0.0632547 0.0596257 0.0750187 0.102075 0.0651104 0.0855755 0.060373 0.0548819 0.0740879
111 3 O -1.44047 86.7482 0.50765 -1.2 1 0.0189171 0.0198443 0.0221185 0.0217734 0.0337111 0.0311761 0.0453962 0.0440306 0.0371007 0.0659468 0.0517462 0.04761 0.0491799 0.0692916 0.0732435 0.0675998 0.0823924 0.067088 0.0605447 0.0633805
112 3 O -1.23805 86.7222 3.11708 -1.2 1 0.0184806 0.0331974 0.022628 0.0269124 0.0269763 0.0243183 0.0453259 0.044347 0.0451844 0.0443381 0.065572 0.034154 0.0667754 0.0628163 0.0751067 0.0827078 0.0718565 0.0667248 0.0623374 0.0677146
113 1 Mg -2.25578 90.1918 -0.0520209 1.2 1 0.018598 0.0144922 0.014138 0.0391854 0.0174294 0.0401929 0.0212666 0.0602497 0.0335607 0.0633491 0.0298522 0.0410978 0.0381463 0.0663548 0.044324 0.0939667 0.0575852 0.104017 0.0556569 0.0787237
114 1 Mg 2.40257 93.0948 1.69881 1.2 1 0.0356051 0.00895634 0.0166176 0.0286097 0.023092 0.0264919 0.0282658 0.03255 0.0488155 0.0630648 0.0664821 0.0520393 0.0557131 0.0644127 0.0698583 0.0846208 0.0634774 0.106129 0.0665163 0.0840166
115 2 Si -0.25631 91.0669 1.57455 2.4 1 0.00941522 0.0164381 0.0205783 0.0419686 0.0343796 0.0301414 0.0436596 0.0339358 0.058491 0.0594597 0.0478392 0.0665446 0.071436 0.0628805 0.07893 0.0637632 0.0684246 0.0918139 0.0643399 0.0630588
116 3 O 1.29889 91.2479 1.65106 -1.2 1 0.0311565 0.014554 0.0133686 0.0236368 0.0325222 0.0329025 0.0222736 0.0681763 0.0405843 0.0592707 0.0449458 0.0625779 0.0473427 0.0758208 0.0699698 0.0637783 0.0590935 0.0810784 0.0597719 0.0782998
117 3 O -1.49165 95.0882 1.75846 -1.2 1 0.0129581 0.0229085 0.0192806 0.0323994 0.0207808 0.0342989 0.0364946 0.0437163 0.0575672 0.045204 0.0524003 0.0438102 0.0638275 0.0709219 0.0947171 0.0783496 0.0737366 0.0577776 0.0738578 0.0687092
118 3 O -0.949484 91.8194 0.404428 -1.2 1 0.0190081 0.00797683 0.0311051 0.0244125 0.0255537 0.0276126 0.0497533 0.0499113 0.0362308 0.0384622 0.0526376 0.0475677 0.0541566 0.0645561 0.0819396 0.0708085 0.0811712 0.0597064 0.0620861 0.0729184
119 1 Mg -2.20789 100.712 3.20266 1.2 1 0.0112557 0.0223883 0.0131423 0.0357798 0.018254 0.0343284 0.0256419 0.0588891 0.0356695 0.0668761 0.0230108 0.0455645 0.0370419 0.0712151 0.0500033 0.0972624 0.0558965 0.108998 0.0578915 0.0771201
120 3 O -0.83416 91.8717 2.93491 -1.2 1 0.0265077 0.0172624 0.025388 0.0246991 0.0332614 0.0233589 0.0472884 0.0439542 0.0487885 0.0446228 0.0534871 0.0479609 0.0488429 0.074629 0.0762824 0.0731332 0.0824278 0.0660695 0.0741019 0.067571
121 1 Mg -2.07263 97.9619 4.6127 1.2 1 0.011892 0.0114432 0.0193639 0.0293042 0.020284 0.0389425 0.0254949 0.0392382 0.0461931 0.0624712 0.0652684 0.0584368 0.0608641 0.0695412 0.0798015 0.0736164 0.0674704 0.0919158 0.0715217 0.063117
122 2 Si 0.477477 99.9537 4.77675 2.4 1 0.0137299 0.0109047 0.0261519 0.0338672 0.0374105 0.0388487 0.0399577 0.0439875 0.0562726 0.0479578 0.0517314 0.0691547 0.0724464 0.0620523 0.0719202 0.0659694 0.0642543 0.0859985 0.0605523 0.0644884
123 3 O -1.14774 100.098 4.71998 -1.2 1 0.00974226 0.020933 0.0300503 0.0201605 0.0190724 0.0278423 0.0353885 0.0717848 0.0337611 0.0608236 0.0446923 0.0752844 0.0483227 0.0790464 0.0759481 0.0644465 0.0627055 0.0767125 0.053259 0.0802972
124 3 O 1.75066 96.1697 4.73117 -1.2 1 0.0091625 0.0236624 0.0168398 0.0191355 0.0262959 0.0348846 0.0335683 0.0406286 0.05459 0.0502905 0.0502014 0.0388677 0.0617941 0.0664174 0.0997054 0.0669039 0.0651412 0.0579893 0.0664639 0.061183
125 3 O 1.17661 99.1546 3.60217 -1.2 1 0.0160608 0.019679 0.0325392 0.0228184 0.0300323 0.0313071 0.0419026 0.0460356 0.0441525 0.0441584 0.0612526 0.0470073 0.0622714 0.0696385 0.0762454 0.066466 0.0796263 0.0718502 0.0728273 0.0588505