ITEM: TIMESTEP
19600
ITEM: NUMBER OF ATOMS
5600
ITEM: BOX BOUNDS xy xz yz pp pp pp
0	7.1235	0
0	201.985	2.3745
0	119.584	0
ITEM: ATOMS id type element xu yu zu q Q_1 Q_2 Q_3 Q_4 Q_5 Q_6 Q_7 Q_8 Q_9 Q_10 Q_11 Q_12 Q_13 Q_14 Q_15 Q_16 Q_17 Q_18 Q_19 Q_20 Q_21
1 1 Mg -1.3286 49.4653 -1.28775 1.2 1 0.454046 0.0610828 0.140366 0.032188 0.0717675 0.055483 0.0532258 0.0510055 0.0812522 0.0673105 0.0741049 0.0907599 0.0975216 0.0995106 0.113165 0.10443 0.0839461 0.102661 0.0964251 0.112033
2 1 Mg 3.15508 51.5029 1.60498 1.2 1 0.272869 0.114885 0.0255018 0.0601318 0.0413964 0.0210245 0.060656 0.0503976 0.0777954 0.079359 0.0656208 0.0876927 0.0651721 0.0808837 0.0739646 0.0756172 0.0792535 0.0762966 0.0850251 0.0894205
3 2 Si 1.05842 51.0712 -0.0973153 2.4 1 0.293952 0.126259 0.0377477 0.0708871 0.0462195 0.0396447 0.0593833 0.0574434 0.0844661 0.0675164 0.0598151 0.0571945 0.0567779 0.0640419 0.0817092 0.0883934 0.0934355 0.0695143 0.0816053 0.0854696
4 3 O 2.46577 50.4432 0.0878916 -1.2 1 0.361229 0.111617 0.0747345 0.0589377 0.028145 0.0674088 0.0502502 0.0708104 0.0587459 0.0768564 0.052179 0.0933672 0.0809904 0.0879206 0.100128 0.0782144 0.0724521 0.0699836 0.0953959 0.0872934
5 3 O -1.13392 53.6634 1.28213 -1.2 1 0.123962 0.0617988 0.0468671 0.029899 0.0263376 0.0289849 0.0472597 0.050354 0.0589643 0.0634372 0.0419625 0.0515416 0.0504151 0.076348 0.0803084 0.087325 0.0860585 0.0498711 0.0559904 0.0810179
6 3 O 0.478843 50.215 -1.32587 -1.2 1 0.381596 0.10529 0.0887889 0.0686258 0.0410281 0.0646367 0.0423601 0.0658469 0.0767943 0.0751066 0.0772827 0.0612723 0.101689 0.083546 0.0939287 0.0928477 0.0620422 0.068749 0.0749472 0.0913132
7 1 Mg -2.06198 59.6121 2.85723 1.2 1 0.0131984 0.0146952 0.01107 0.0317422 0.0135877 0.0347372 0.0149871 0.0599419 0.0220663 0.07105 0.0302018 0.0491856 0.0235387 0.0681974 0.0304148 0.0997097 0.0404102 0.110939 0.0468611 0.0838755
8 3 O 0.187924 51.0484 1.18508 -1.2 1 0.321651 0.118472 0.0587599 0.0568585 0.0305687 0.0297808 0.0645335 0.0630144 0.0689615 0.0893087 0.0584345 0.0700235 0.0593562 0.0706557 0.0704468 0.0826511 0.0859441 0.092708 0.068556 0.0892584
9 1 Mg -2.16053 56.5555 4.17208 1.2 1 0.0157154 0.0190105 0.0160414 0.0268309 0.0170977 0.0283779 0.0247065 0.0302244 0.0421089 0.0580645 0.0581506 0.0522656 0.0526683 0.0680981 0.0661639 0.0747131 0.067222 0.0804515 0.0796646 0.0771361
10 2 Si 0.563349 58.5305 4.32719 2.4 1 0.0101815 0.0209793 0.0215368 0.0266665 0.0356269 0.0287493 0.0427061 0.037785 0.0505613 0.0562372 0.0520292 0.0666366 0.0730099 0.057597 0.0835842 0.0745096 0.0610487 0.0960189 0.0525481 0.0573439
11 3 O -0.939828 58.6556 4.30919 -1.2 1 0.021497 0.0211235 0.0167961 0.031276 0.0269322 0.026129 0.0288913 0.0656018 0.0392436 0.0550796 0.0518515 0.0753878 0.0515656 0.0654846 0.0718412 0.0688782 0.0629667 0.0738482 0.0587163 0.0805542
12 3 O 1.61448 54.7504 4.18066 -1.2 1 0.0620307 0.0444402 0.0429293 0.0222456 0.0269792 0.032311 0.0374541 0.0431435 0.0544758 0.0523257 0.0607648 0.0420462 0.0655359 0.0711677 0.0862589 0.0739885 0.0728189 0.06103 0.0819355 0.0587965
13 3 O 1.11375 57.6974 3.01665 -1.2 1 0.014179 0.0137505 0.0250603 0.0192539 0.0220972 0.0306722 0.0436573 0.0517528 0.0401766 0.0474549 0.0551807 0.0356723 0.0561893 0.0654141 0.0785582 0.0879443 0.0593824 0.0712499 0.0564176 0.0725905
14 3 O 1.17225 57.9014 5.61851 -1.2 1 0.0107653 0.02162 0.0245164 0.0238891 0.0136547 0.0272532 0.0533661 0.0513113 0.0382561 0.0520131 0.0520552 0.0513466 0.0565011 0.0676227 0.0852665 0.0713177 0.0767833 0.0635662 0.0598403 0.0708629
15 1 Mg 0.262385 54.2077 2.7596 1.2 1 0.0927485 0.0622427 0.0413065 0.0298735 0.0159045 0.0301129 0.0284655 0.0587786 0.0409882 0.0656753 0.0441416 0.0509671 0.0485547 0.0663007 0.0487151 0.0845848 0.0555484 0.102259 0.0583055 0.0870154
16 1 Mg 0.884201 50.4885 2.89545 1.2 1 0.366811 0.100387 0.0703391 0.071883 0.0253069 0.063401 0.0563966 0.0726572 0.0503992 0.07538 0.0592329 0.0778505 0.0599836 0.0678963 0.0880447 0.0851895 0.070228 0.0892786 0.0906605 0.0953418
17 2 Si 2.31094 53.2712 4.29426 2.4 1 0.125108 0.096872 0.0491302 0.0336282 0.0195322 0.0326721 0.0408638 0.0588372 0.0636905 0.0749098 0.0749134 0.0918312 0.0780499 0.0665774 0.0876329 0.0868865 0.0735371 0.0958212 0.0637318 0.0777584
18 3 O -0.892195 53.296 4.36876 -1.2 1 0.152771 0.0950189 0.0336285 0.0301067 0.016706 0.0335922 0.0420586 0.0609775 0.0618737 0.0708711 0.045521 0.0970083 0.0569908 0.0837672 0.0785595 0.080314 0.0791156 0.0768159 0.0765586 0.0594608
19 3 O 2.66089 49.6653 2.8598 -1.2 1 0.450781 0.0550768 0.124918 0.0364056 0.0668544 0.0465156 0.0636228 0.0716532 0.0689253 0.0704186 0.0686784 0.0653753 0.0866417 0.0798477 0.0933822 0.0911796 0.0765218 0.0894025 0.0781363 0.0805659
20 3 O 1.83843 52.4892 3.08943 -1.2 1 0.195722 0.110419 0.0205874 0.0422845 0.0306026 0.0493762 0.0420853 0.081374 0.0551282 0.0607483 0.0685037 0.0551646 0.0831409 0.0880199 0.0766094 0.0674756 0.093347 0.085646 0.0679157 0.0712144
21 1 Mg 0.14089 54.2587 -0.222834 1.2 1 0.0708427 0.0618359 0.0505591 0.0302655 0.0279653 0.0196917 0.0318475 0.0656817 0.0482146 0.0654603 0.0382586 0.0553161 0.0438595 0.0648817 0.0486227 0.0884763 0.0700588 0.0955118 0.0580308 0.0877227
22 3 O 1.50318 52.7347 5.60132 -1.2 1 0.189381 0.0940628 0.0261644 0.0296111 0.0326067 0.0286641 0.0385697 0.0606287 0.0491776 0.0665438 0.0518176 0.062336 0.0683715 0.0680482 0.0880199 0.0780887 0.0775322 0.0697363 0.0729479 0.073571
23 1 Mg 0.158696 57.1578 1.42207 1.2 1 0.00413436 0.0103855 0.0231148 0.0221139 0.0192082 0.027562 0.032025 0.0415673 0.0432226 0.0583539 0.0587328 0.0532638 0.06853 0.061728 0.0695249 0.0801411 0.073405 0.079502 0.067989 0.0827149
24 2 Si -1.84036 55.1821 1.19443 2.4 1 0.0287639 0.0402686 0.0343571 0.0319273 0.0246105 0.036899 0.0426541 0.0397995 0.0554605 0.0580986 0.0563586 0.0614023 0.0840407 0.0499624 0.0665706 0.0603549 0.0794783 0.0655435 0.0730927 0.0617999
25 3 O 1.3338 55.0806 1.27299 -1.2 1 0.0243398 0.0557974 0.0354685 0.0205655 0.0196584 0.030157 0.0270379 0.0575961 0.0479179 0.0507736 0.0473807 0.0610323 0.0608807 0.0786108 0.0775719 0.0623379 0.061974 0.0697367 0.048947 0.0738777
26 3 O -0.766751 58.9864 1.39303 -1.2 1 0.0115906 0.0203361 0.0187242 0.0243182 0.00930734 0.0314546 0.037196 0.0474974 0.0491815 0.0454623 0.0449527 0.0480303 0.0546163 0.0715907 0.0991247 0.0700577 0.070495 0.0488508 0.0746702 0.0617636
27 3 O -1.21618 55.8007 -0.0501971 -1.2 1 0.0182494 0.0348829 0.0289692 0.0371983 0.0159797 0.030201 0.0462124 0.0508737 0.0427317 0.036743 0.0649905 0.051437 0.0550669 0.0595563 0.0862511 0.0601254 0.0731103 0.0733913 0.0679106 0.0686179
28 3 O -1.14332 55.8686 2.49157 -1.2 1 0.0239765 0.0265205 0.0243302 0.026994 0.0279339 0.026365 0.0530211 0.0412323 0.0386365 0.0355785 0.0639146 0.0550394 0.0586346 0.0753468 0.0861833 0.0693305 0.0762711 0.0587741 0.0767142 0.0582602
29 1 Mg -2.3136 59.3173 -0.0919839 1.2 1 0.0183992 0.0205828 0.0170168 0.0273532 0.0127152 0.0408153 0.0153832 0.0567399 0.019616 0.0844473 0.02556 0.0489861 0.0210241 0.0748374 0.0227352 0.0938402 0.0401928 0.110715 0.0424604 0.0953821
30 1 Mg 2.41918 62.3293 1.53124 1.2 1 0.0195288 0.0154484 0.0187425 0.0320183 0.0136186 0.0252171 0.0207467 0.0338647 0.0397674 0.0617585 0.0597124 0.0521944 0.0639914 0.0630312 0.0656221 0.0806862 0.0725087 0.0931438 0.0707979 0.0816238
31 2 Si -0.100909 60.4521 1.33741 2.4 1 0.0108056 0.018205 0.019166 0.0333135 0.0276744 0.0257138 0.040264 0.0436747 0.0483388 0.0609482 0.0540418 0.064398 0.0692267 0.052433 0.0775166 0.065676 0.0623364 0.0908517 0.0559836 0.0636433
32 3 O 1.42819 60.4036 1.34155 -1.2 1 0.00906642 0.0168851 0.0192612 0.0278701 0.0240321 0.0329769 0.0273265 0.0699302 0.0407124 0.0577274 0.0399695 0.0688499 0.0512239 0.07351 0.0646375 0.066336 0.0543026 0.0769091 0.0567573 0.0724774
33 3 O -1.28288 64.2248 1.43824 -1.2 1 0.0144899 0.0191018 0.0277953 0.0157466 0.0203994 0.0361117 0.0351771 0.0476848 0.0551841 0.0426526 0.0475241 0.046027 0.0489758 0.0704016 0.105026 0.0731856 0.0690285 0.0545096 0.0772845 0.0585798
34 3 O -0.798141 61.0822 0.133563 -1.2 1 0.00583657 0.0160245 0.0287662 0.0185625 0.0230945 0.0185361 0.0476779 0.0445904 0.0338193 0.0477299 0.0543493 0.043182 0.0511072 0.0741098 0.0775265 0.0723965 0.0830509 0.05811 0.0714319 0.0710549
35 1 Mg -2.40722 70.0078 2.93647 1.2 1 0.00904081 0.0132 0.00798277 0.0356191 0.00770235 0.035244 0.00791505 0.0570466 0.0162876 0.0796951 0.0125871 0.046786 0.0154316 0.0712618 0.0211578 0.108113 0.0297717 0.110777 0.0319405 0.0974918
36 3 O -0.748695 61.112 2.70971 -1.2 1 0.0115108 0.0199977 0.0240202 0.0134967 0.0276867 0.0242872 0.0493793 0.0369588 0.0386717 0.0427651 0.0552847 0.0395154 0.052292 0.0663638 0.0692636 0.0802188 0.0697386 0.0554142 0.0689634 0.0718429
37 1 Mg -2.29693 67.134 4.35646 1.2 1 0.0162873 0.0129005 0.0199873 0.0293878 0.0172985 0.0250712 0.0243282 0.0308254 0.048167 0.0620129 0.0575447 0.0508025 0.0610379 0.0699821 0.0596888 0.0862075 0.0633679 0.102752 0.0580759 0.0933434
38 2 Si 0.327307 68.9669 4.54675 2.4 1 0.0172438 0.0160573 0.0192504 0.0365429 0.0255428 0.0265534 0.0397157 0.0410266 0.0490228 0.0625233 0.0547873 0.0591345 0.0674803 0.0577941 0.078206 0.0683424 0.0647871 0.0848717 0.0641774 0.0597616
39 3 O -1.23971 69.0214 4.43151 -1.2 1 0.0135225 0.0213978 0.00994072 0.0213233 0.0137881 0.0296706 0.0219268 0.0753575 0.0384941 0.0575854 0.0351178 0.070234 0.0597268 0.0673068 0.0753295 0.0719437 0.0618177 0.0737397 0.0567464 0.0739945
40 3 O 1.40171 65.1724 4.42296 -1.2 1 0.00400851 0.0117935 0.0252125 0.02074 0.0196337 0.0336987 0.0368738 0.0454694 0.0526937 0.0433314 0.0429539 0.0481204 0.0499682 0.0647376 0.103687 0.0732606 0.0757782 0.0503069 0.0716993 0.0582523
41 3 O 0.968212 68.1995 3.24557 -1.2 1 0.0195234 0.0130416 0.0253247 0.0218294 0.0279667 0.0165688 0.0448092 0.043986 0.0377023 0.0448358 0.0526683 0.0413012 0.0542429 0.0638089 0.0724643 0.0805091 0.0719186 0.0674418 0.0698193 0.0686622
42 3 O 1.19837 68.38 5.76159 -1.2 1 0.0226446 0.0134817 0.0266015 0.0211805 0.0220805 0.0184028 0.0480356 0.0435677 0.0403959 0.036232 0.0556965 0.0428564 0.0512558 0.0528034 0.0902231 0.06542 0.0812853 0.0658419 0.060522 0.071337
43 1 Mg 0.065483 64.7191 3.00492 1.2 1 0.00525964 0.0119163 0.00779844 0.0355948 0.00906231 0.0364163 0.0086228 0.0595373 0.0108459 0.0813647 0.0119744 0.0495431 0.0172319 0.071277 0.0224017 0.104247 0.0262928 0.111352 0.0271727 0.0932429
44 1 Mg 0.148328 61.7261 4.39527 1.2 1 0.0245275 0.0147992 0.01639 0.0345757 0.0135863 0.0288147 0.0297931 0.0343169 0.0420212 0.0575354 0.0554927 0.0571882 0.0620797 0.0647884 0.0725131 0.0645479 0.0793846 0.0991009 0.0677399 0.0765018
45 2 Si 2.17518 63.644 4.44404 2.4 1 0.017216 0.0125367 0.0215415 0.031745 0.0317619 0.0310131 0.0411588 0.0402423 0.0508703 0.0521741 0.0530022 0.0642905 0.074284 0.0498285 0.071421 0.0760121 0.0597574 0.0943439 0.0631422 0.049358
46 3 O -1.02272 63.7802 4.38752 -1.2 1 0.0230561 0.0220812 0.0166179 0.0245058 0.0252179 0.0301668 0.0230055 0.0673972 0.040627 0.0548082 0.0452843 0.064714 0.0530142 0.0651938 0.0672367 0.0641352 0.0552631 0.0678313 0.0586483 0.0768241
47 3 O 1.27804 59.9812 4.24963 -1.2 1 0.00248837 0.0192715 0.0176648 0.0245359 0.0199847 0.041055 0.041763 0.0415748 0.0493666 0.0424535 0.0465785 0.049461 0.0504094 0.071382 0.102866 0.0720534 0.0782461 0.050877 0.0687189 0.0601147
48 3 O 1.54972 62.9735 3.14602 -1.2 1 0.0108213 0.0138657 0.0245414 0.0192385 0.0279684 0.0183797 0.0470911 0.0400498 0.0365765 0.0450577 0.0547788 0.0428108 0.0550818 0.0667476 0.0822929 0.0747194 0.0691467 0.0613075 0.0631572 0.0643577
49 1 Mg 0.178086 64.7448 -0.211008 1.2 1 0.010962 0.0120789 0.0121525 0.0292656 0.00574051 0.0339041 0.0155853 0.0567444 0.023547 0.0793035 0.0276624 0.0511465 0.0196105 0.0667757 0.0307802 0.0994108 0.0373109 0.109823 0.0469208 0.08902
50 3 O 1.52302 63.0705 5.79779 -1.2 1 0.0212336 0.0225008 0.0283673 0.0140468 0.0181552 0.0226701 0.0406823 0.0431142 0.0411565 0.0430144 0.0589303 0.0376396 0.0542982 0.0525441 0.0899215 0.0695945 0.0717669 0.058008 0.059616 0.0800725
51 1 Mg 0.0588006 67.5499 1.47844 1.2 1 0.0130868 0.0128452 0.0192229 0.0280959 0.0163924 0.0247137 0.0211708 0.0309776 0.0430143 0.0652132 0.0528526 0.0561392 0.061075 0.0651369 0.0621651 0.0780886 0.0671549 0.107444 0.0644683 0.0922109
52 2 Si -1.92237 65.638 1.43023 2.4 1 0.0111842 0.0149335 0.020259 0.0265123 0.0281569 0.0355638 0.0453777 0.0434337 0.0514059 0.0524632 0.0482106 0.0621725 0.0700893 0.0586166 0.0792768 0.0624061 0.0559926 0.100206 0.0535196 0.0604338
53 3 O 1.25447 65.5702 1.44283 -1.2 1 0.0288032 0.0145897 0.0119657 0.0212026 0.0247656 0.0328967 0.0223026 0.070755 0.0405481 0.0576664 0.04668 0.0679108 0.0508113 0.0680888 0.0747114 0.0688856 0.0544778 0.0736308 0.0530074 0.0773036
54 3 O -1.00315 69.4311 1.54519 -1.2 1 0.00942848 0.0203769 0.0212737 0.0207812 0.0199803 0.0381961 0.0360925 0.0409771 0.0544801 0.0432169 0.0416616 0.0488454 0.0536918 0.0698205 0.102951 0.074006 0.072803 0.0556188 0.0770225 0.0626902
55 3 O -1.2453 66.376 0.121322 -1.2 1 0.00653434 0.0114376 0.0303271 0.0221583 0.0173817 0.0225638 0.0445821 0.0401483 0.034787 0.0466719 0.0537225 0.0407696 0.0561282 0.0527671 0.0904474 0.0685316 0.0713897 0.0619158 0.0619869 0.0736784
56 3 O -1.26444 66.3301 2.70944 -1.2 1 0.0180311 0.0182118 0.0313615 0.0200346 0.02633 0.0175023 0.0491502 0.045799 0.0420038 0.0416588 0.0529985 0.0459234 0.0491373 0.0654471 0.082377 0.0729635 0.073857 0.0545256 0.0663485 0.073749
57 1 Mg -2.32695 69.9016 -0.179319 1.2 1 0.0113869 0.0135084 0.0160265 0.0319636 0.0135399 0.0388015 0.0109343 0.0577663 0.0188298 0.0872336 0.020315 0.0522051 0.0197587 0.0715538 0.018085 0.0979095 0.0264565 0.110718 0.0352822 0.0996058
58 1 Mg 2.35527 72.7657 1.45237 1.2 1 0.0174985 0.014599 0.0200017 0.0299894 0.0160158 0.0265442 0.0226227 0.0303879 0.0396734 0.0634863 0.0485243 0.055931 0.0613176 0.0660322 0.061702 0.0827905 0.0743644 0.0952241 0.0692361 0.0897231
59 2 Si -0.294872 70.868 1.41193 2.4 1 0.0169602 0.0155564 0.0160985 0.0266466 0.0258866 0.0281288 0.0395242 0.0438028 0.0489347 0.0580046 0.0502811 0.0643207 0.0667201 0.0582644 0.0767884 0.0710709 0.0582109 0.0972322 0.0529454 0.0582715
60 3 O 1.2773 70.7714 1.46236 -1.2 1 0.0236483 0.0144392 0.016059 0.02553 0.0210374 0.0308671 0.0268314 0.0700185 0.0383393 0.0531142 0.0429011 0.0686788 0.0535455 0.0633759 0.0747544 0.0703866 0.0638615 0.0735774 0.0576838 0.0783187
61 3 O -1.35534 74.662 1.43965 -1.2 1 0.0157084 0.022193 0.0247916 0.0169108 0.0147041 0.0315252 0.0309822 0.0469071 0.0565845 0.0445147 0.0415528 0.0436374 0.0532989 0.0672118 0.101077 0.0732607 0.0703335 0.0473167 0.0718219 0.062762
62 3 O -0.984952 71.5571 0.164171 -1.2 1 0.00822184 0.0143744 0.0292569 0.0214277 0.0234276 0.021036 0.0453023 0.0468121 0.0351403 0.0485824 0.05069 0.0455907 0.0559841 0.0627839 0.0873004 0.0726843 0.0777553 0.0611553 0.0600624 0.0776578
63 1 Mg -2.33998 80.2743 2.94783 1.2 1 0.0122729 0.0142114 0.00343526 0.0344099 0.00583398 0.0367207 0.00692703 0.0573544 0.0139521 0.0784855 0.0116077 0.0525733 0.0142848 0.0688841 0.0171695 0.108659 0.0258378 0.111749 0.0271471 0.0951475
64 3 O -0.960224 71.6792 2.65226 -1.2 1 0.016087 0.00900726 0.0280618 0.0134011 0.0253515 0.0198289 0.0427086 0.0463581 0.0329764 0.0466203 0.051799 0.0422388 0.0517471 0.0601815 0.0830569 0.080836 0.0682526 0.070155 0.0684062 0.0613507
65 1 Mg -2.23326 77.4175 4.55659 1.2 1 0.0148127 0.0187219 0.0196061 0.0327157 0.0155513 0.0236804 0.0228724 0.0339368 0.0385026 0.062019 0.0580196 0.0544081 0.0545157 0.0622769 0.0592697 0.0757862 0.077964 0.0916942 0.0711997 0.0723152
66 2 Si 0.339203 79.3181 4.52063 2.4 1 0.0135907 0.0117167 0.0132721 0.0369951 0.0248067 0.0290088 0.040152 0.0437124 0.0483647 0.0577666 0.0524333 0.062155 0.071748 0.0536175 0.0810711 0.07455 0.0603657 0.0933488 0.0543176 0.0575173
67 3 O -1.20553 79.3279 4.61804 -1.2 1 0.0206593 0.0131239 0.0211781 0.0246916 0.0221425 0.0240357 0.0198807 0.0706729 0.0410374 0.0585311 0.0387819 0.0699346 0.0534995 0.0663431 0.0675202 0.0599826 0.0612496 0.0687336 0.0684461 0.0645218
68 3 O 1.48833 75.6171 4.45195 -1.2 1 0.0177962 0.0187957 0.0259778 0.0171708 0.0180863 0.0346091 0.03448 0.0456948 0.0564219 0.0440511 0.0451714 0.0414512 0.0524408 0.069335 0.104174 0.0731143 0.0689121 0.0484313 0.0738252 0.0671683
69 3 O 1.07192 78.719 3.23811 -1.2 1 0.0172415 0.0146142 0.0301098 0.0191501 0.0252597 0.019146 0.0469509 0.0422867 0.0376455 0.04147 0.0503448 0.043566 0.0551623 0.064736 0.0835736 0.0725292 0.0759692 0.0578479 0.0667346 0.0695988
70 3 O 1.10312 78.6142 5.75236 -1.2 1 0.00710044 0.0174008 0.0259313 0.0215093 0.0200262 0.0197389 0.0473638 0.0454118 0.0365363 0.0467874 0.0531868 0.040615 0.0550275 0.0502304 0.0918647 0.069057 0.0734062 0.062916 0.0641715 0.0668177
71 1 Mg 0.119228 75.1203 2.83427 1.2 1 0.0077111 0.011388 0.0113395 0.0267064 0.0108363 0.0361419 0.0126357 0.0579794 0.0155394 0.0810973 0.0208622 0.0468388 0.0202058 0.0697729 0.0260472 0.101617 0.0360581 0.112487 0.0300614 0.0886905
72 1 Mg 0.0769061 72.3206 4.47081 1.2 1 0.00791809 0.00992426 0.0206264 0.0262433 0.0182755 0.0215334 0.0216694 0.0275066 0.0424236 0.0663249 0.0494315 0.0540354 0.0601621 0.0653206 0.0581639 0.0796058 0.0649103 0.107479 0.0615258 0.08623
73 2 Si 2.09142 74.1108 4.41401 2.4 1 0.0147223 0.015932 0.0186112 0.0354319 0.0284605 0.0313761 0.0432139 0.0405834 0.0500181 0.0577716 0.0594214 0.064882 0.0749772 0.057875 0.0804681 0.0700381 0.0592723 0.0928507 0.0551711 0.0556187
74 3 O -1.15311 74.2065 4.4326 -1.2 1 0.0278901 0.0154933 0.0150375 0.0260583 0.0219013 0.0234076 0.0218303 0.0707717 0.0392499 0.0528178 0.0493213 0.0674629 0.0540964 0.0667343 0.0712064 0.0700031 0.056808 0.0760191 0.0578374 0.0743263
75 3 O 1.05539 70.4767 4.46623 -1.2 1 0.0082845 0.0209813 0.0244743 0.0158912 0.0200197 0.0332488 0.0330394 0.0464065 0.0519788 0.0459101 0.0438136 0.0459839 0.0498889 0.0663474 0.105416 0.0725949 0.069053 0.0517866 0.0714263 0.0667388
76 3 O 1.34969 73.41 3.15364 -1.2 1 0.0198204 0.0122983 0.0324928 0.0213465 0.0196124 0.0223493 0.0418026 0.0431904 0.0350178 0.0439263 0.0520147 0.0392499 0.0563333 0.0592983 0.0842134 0.0720149 0.0707441 0.060109 0.0606604 0.0763085
77 1 Mg 0.0875495 75.0715 0.0145888 1.2 1 0.0103488 0.0179007 0.00889485 0.0268237 0.00912461 0.0337614 0.011207 0.0567265 0.0157089 0.0841021 0.019104 0.0489504 0.0179887 0.0686319 0.0203817 0.100869 0.0249916 0.114134 0.0306888 0.0969999
78 3 O 1.30086 73.4833 5.69953 -1.2 1 0.0103427 0.0266648 0.0302908 0.0208381 0.0207267 0.0165273 0.0491932 0.044791 0.0409922 0.0400454 0.0543163 0.0414177 0.0498097 0.0528897 0.0954816 0.0607173 0.0763752 0.0653752 0.0640045 0.0677433
79 1 Mg 0.18634 78.023 1.5826 1.2 1 0.0206127 0.0133752 0.0172766 0.0289624 0.0132807 0.0282344 0.0231708 0.0370313 0.0392141 0.0600509 0.0560276 0.0562712 0.0622172 0.0618762 0.0706175 0.0768922 0.0739009 0.0861115 0.0774489 0.0726411
80 2 Si -2.00251 76.188 1.41094 2.4 1 0.0159853 0.0183524 0.0170834 0.0348065 0.027509 0.0287851 0.0392739 0.0432218 0.048409 0.0536618 0.0540759 0.0678784 0.0711869 0.0500208 0.0695325 0.0783388 0.0560879 0.0951208 0.0597762 0.0560357
81 3 O 1.19208 76.1429 1.48549 -1.2 1 0.0279052 0.0111399 0.0166973 0.0243603 0.0258426 0.0220671 0.0246656 0.0699801 0.0358957 0.0560933 0.0390412 0.0678088 0.0603242 0.0656328 0.0699639 0.0633054 0.0575696 0.0674362 0.0686612 0.0664896
82 3 O -0.991767 79.8076 1.54501 -1.2 1 0.0163058 0.0179979 0.0229144 0.017833 0.0214729 0.0355478 0.0343185 0.0473182 0.0493036 0.0464254 0.0466699 0.0464579 0.0470706 0.0712792 0.104772 0.0711235 0.0720444 0.0505695 0.0757699 0.0613712
83 3 O -1.29851 76.6961 0.0373177 -1.2 1 0.0092836 0.0187989 0.0245419 0.0203585 0.0171991 0.0218909 0.0400282 0.0505956 0.0433559 0.0432281 0.0548632 0.0388789 0.0543773 0.0529514 0.094998 0.0704491 0.0679525 0.061787 0.0615147 0.0790884
84 3 O -1.31366 76.9294 2.60127 -1.2 1 0.00845395 0.0162635 0.0264092 0.0233638 0.0281346 0.0192763 0.049978 0.0403156 0.038198 0.0499969 0.0566564 0.0395832 0.0541005 0.0587236 0.0810726 0.082073 0.0658165 0.0718872 0.0635846 0.0628634
85 1 Mg -2.37309 80.3925 0.0302633 1.2 1 0.00992218 0.0131249 0.00941912 0.0263234 0.00618389 0.0335835 0.00909855 0.0552108 0.0165517 0.0868871 0.0175516 0.0503724 0.0184002 0.0746267 0.0189669 0.0979359 0.0273827 0.116818 0.0322474 0.0979495
86 1 Mg 2.50278 83.1998 1.71117 1.2 1 0.017774 0.0122015 0.022053 0.0262141 0.0156541 0.0246082 0.0203889 0.0298285 0.0482374 0.0574838 0.054742 0.0512776 0.05613 0.062167 0.0613414 0.0651487 0.0734836 0.10451 0.0609685 0.0900168
87 2 Si -0.2433 81.2238 1.51173 2.4 1 0.00766968 0.0180127 0.0228354 0.0306945 0.0273895 0.033502 0.0384249 0.0437262 0.0478605 0.0649405 0.0552861 0.0618734 0.071117 0.0566495 0.0831134 0.0662645 0.064843 0.08457 0.0557535 0.0643
88 3 O 1.28722 81.2032 1.47132 -1.2 1 0.0261655 0.0111587 0.0106458 0.0255998 0.0216265 0.0327774 0.0240868 0.0636671 0.0440404 0.0585546 0.0354425 0.0702282 0.0571418 0.0645436 0.0733661 0.0646062 0.0627256 0.0725941 0.0554091 0.0723517
89 3 O -1.41461 85.0365 1.68104 -1.2 1 0.00613197 0.0168508 0.0246428 0.0183116 0.0196845 0.031511 0.0367969 0.0462276 0.0498818 0.0479433 0.0493207 0.0445545 0.0507081 0.0735333 0.101692 0.0747172 0.0670421 0.0517065 0.0694536 0.062152
90 3 O -0.940492 81.9688 0.322889 -1.2 1 0.00691187 0.0133264 0.0224661 0.0190654 0.0227253 0.0189168 0.0409386 0.0474827 0.0354664 0.0454073 0.0534177 0.044843 0.0602551 0.061958 0.0833751 0.0672539 0.0817173 0.0608671 0.061044 0.0730417
91 1 Mg -2.4888 90.8569 3.33411 1.2 1 0.00851859 0.015111 0.0110684 0.0324076 0.010677 0.0372896 0.0192405 0.06083 0.0206672 0.076695 0.0180277 0.0513882 0.0193911 0.0663957 0.0243308 0.106508 0.029284 0.108598 0.0400104 0.0846703
92 3 O -0.96134 81.9134 2.80579 -1.2 1 0.0082814 0.016931 0.0278278 0.0217446 0.0250783 0.0216038 0.0497136 0.0385684 0.0365967 0.0423953 0.0560536 0.0393249 0.0472705 0.0670915 0.0760842 0.0786459 0.0760931 0.0524985 0.0744012 0.0704249
93 1 Mg -2.23576 87.8611 4.61994 1.2 1 0.0214964 0.0122835 0.0206789 0.0247729 0.0141592 0.0265271 0.0241906 0.0306139 0.0408558 0.0593185 0.0598544 0.0572659 0.0582036 0.0639428 0.069192 0.0735327 0.0751552 0.0931869 0.0774309 0.0683403
94 2 Si 0.234092 89.6977 4.73401 2.4 1 0.0212398 0.0174754 0.0193281 0.0329116 0.0265448 0.0266107 0.0404991 0.0420996 0.0457333 0.0581518 0.0563885 0.0666664 0.0704366 0.0530934 0.0756773 0.0707068 0.0647109 0.0918386 0.0613897 0.0647443
95 3 O -1.3566 89.7441 4.78285 -1.2 1 0.0262308 0.0193654 0.0156581 0.0152647 0.0250207 0.0285802 0.0210079 0.0657153 0.0358783 0.0691205 0.0344161 0.0703858 0.0533157 0.0706332 0.0709223 0.0671536 0.0630066 0.0671602 0.0695603 0.0708355
96 3 O 1.33068 86.05 4.66522 -1.2 1 0.012581 0.0168669 0.0283253 0.016083 0.0170702 0.0381498 0.0354877 0.0477295 0.0559748 0.0455709 0.0463181 0.046771 0.0462481 0.0707049 0.102851 0.0676704 0.0727529 0.0516442 0.0695382 0.0603122
97 3 O 0.914678 89.0364 3.491 -1.2 1 0.00716512 0.01315 0.0266802 0.0206682 0.0237332 0.0181885 0.0462884 0.0395985 0.0381263 0.043805 0.0532072 0.0376159 0.052821 0.0647518 0.0792221 0.082395 0.0667725 0.0559858 0.0651577 0.0671491
98 3 O 0.967848 89.1458 5.99052 -1.2 1 0.0114807 0.0106232 0.0268749 0.0227214 0.0183045 0.022358 0.0459278 0.0414513 0.0319787 0.0426656 0.0523595 0.038855 0.0536412 0.0651883 0.0865538 0.064367 0.0803637 0.0574731 0.0619061 0.0714403
99 1 Mg 0.0519546 85.6602 3.1689 1.2 1 0.0193807 0.0127877 0.00560123 0.0337049 0.00784475 0.0330145 0.0106903 0.0560489 0.0195924 0.077029 0.0139836 0.0469479 0.0147658 0.0735096 0.0216745 0.106821 0.0303226 0.115187 0.0402689 0.08449
100 1 Mg 0.0129503 82.5566 4.46875 1.2 1 0.0193956 0.0102306 0.0172554 0.0248914 0.0140988 0.0197923 0.0243393 0.0316572 0.0452557 0.0551767 0.0559358 0.0572475 0.0597043 0.0633063 0.0660537 0.0651724 0.0756111 0.099752 0.0728923 0.0731252
101 2 Si 2.05713 84.5609 4.67563 2.4 1 0.0270587 0.017873 0.0261569 0.0282714 0.0240899 0.0239593 0.0364173 0.0420221 0.0467237 0.0599106 0.057127 0.0631246 0.0743089 0.0525402 0.0752037 0.0671483 0.0628021 0.0874511 0.0598219 0.0525658
102 3 O -1.16997 84.7198 4.60125 -1.2 1 0.0270945 0.0230989 0.0145372 0.02137 0.0238842 0.0236228 0.0224376 0.0642159 0.0384041 0.0521548 0.0486451 0.0694804 0.0486557 0.0653749 0.0775852 0.0666547 0.0562373 0.0741617 0.0548199 0.0795162
103 3 O 1.00631 80.8085 4.61815 -1.2 1 0.00964319 0.0164842 0.0226008 0.0160861 0.018209 0.0337213 0.034292 0.0460059 0.0526619 0.0386866 0.0434963 0.0437373 0.0527405 0.0673274 0.10178 0.0755894 0.0668996 0.0500119 0.0672688 0.0577085
104 3 O 1.45017 83.7325 3.41231 -1.2 1 0.00886325 0.0104481 0.0240546 0.0234485 0.0203563 0.0258551 0.0387382 0.0432026 0.0314589 0.0542903 0.0571825 0.0368321 0.0585067 0.0713405 0.0755636 0.077938 0.0660634 0.0691296 0.064955 0.0634808
105 1 Mg -0.0228179 85.2893 0.316417 1.2 1 0.0164149 0.0119931 0.0119188 0.0247231 0.0111732 0.0326549 0.0208906 0.0525423 0.0356167 0.0740573 0.0324213 0.0462696 0.0314902 0.0630454 0.03987 0.0962813 0.0558052 0.101077 0.0578485 0.0809255
106 3 O 1.3459 83.9221 5.93706 -1.2 1 0.0117089 0.0129542 0.0245327 0.0207097 0.0182827 0.02203 0.0504656 0.0479496 0.0316501 0.0413932 0.058336 0.0414689 0.0578237 0.0566865 0.0953075 0.0683693 0.0759646 0.0597509 0.0618264 0.0741723
107 1 Mg -0.055034 88.4532 1.74648 1.2 1 0.0201004 0.0173354 0.0168586 0.027924 0.0183475 0.0251852 0.0244867 0.0353059 0.0433032 0.0596254 0.0529826 0.0595323 0.066875 0.0652733 0.065237 0.0735905 0.069756 0.0996272 0.0684068 0.0847129
108 2 Si -2.08097 86.5787 1.62423 2.4 1 0.01198 0.0158188 0.0215494 0.0379629 0.0281369 0.0274294 0.039859 0.043801 0.0504393 0.0558227 0.0561425 0.0614079 0.0776335 0.0528083 0.0739464 0.0678532 0.0619628 0.0943606 0.0542003 0.0530699
109 3 O 1.09043 86.4389 1.66632 -1.2 1 0.016533 0.0169185 0.01107 0.0199654 0.0168859 0.0299584 0.025378 0.0710878 0.0357092 0.0518053 0.046245 0.0690701 0.0552968 0.0718261 0.071982 0.0701478 0.050685 0.0763823 0.0546859 0.0776728
110 3 O -1.13208 90.3536 1.69808 -1.2 1 0.0101243 0.0188104 0.0228193 0.0178417 0.0184561 0.0324121 0.0373979 0.0449598 0.0555785 0.0407887 0.0470321 0.0418044 0.0551451 0.0737781 0.102877 0.0743916 0.0685481 0.0496407 0.0761016 0.0506743
111 3 O -1.46604 87.2402 0.359578 -1.2 1 0.013634 0.021706 0.0264399 0.0200657 0.0214385 0.0220245 0.0432986 0.0491489 0.0345192 0.0528313 0.0548385 0.0420912 0.0526099 0.0642889 0.0917298 0.0754404 0.0735004 0.0548661 0.0630045 0.0705416
112 3 O -1.41755 87.2469 2.91621 -1.2 1 0.0159621 0.0145442 0.0298742 0.0153123 0.0179732 0.0294203 0.0419377 0.0446076 0.0346915 0.0461602 0.0547459 0.036572 0.054481 0.0611905 0.0804106 0.0744983 0.0703201 0.0593068 0.0682272 0.0657553
113 1 Mg -2.52809 90.5993 0.368753 1.2 1 0.0120989 0.00685786 0.0123715 0.0240325 0.0163533 0.0330936 0.0161984 0.0531528 0.0300987 0.0805873 0.0291812 0.0469289 0.0297286 0.068525 0.0299433 0.0975739 0.0450003 0.111616 0.0516022 0.0876148
114 1 Mg 2.16726 93.6732 1.71922 1.2 1 0.0246302 0.0186045 0.0168998 0.0292147 0.0156919 0.0181152 0.0279481 0.0335292 0.0376496 0.0597917 0.0519849 0.0609249 0.0615253 0.0618181 0.0654496 0.0715187 0.080475 0.0925458 0.0787243 0.0659429
115 2 Si -0.431792 91.8135 1.79484 2.4 1 0.0121161 0.0103746 0.0162353 0.0340524 0.0257848 0.025914 0.040075 0.0444951 0.0458533 0.0557865 0.0539178 0.0679862 0.0696063 0.0540384 0.0769049 0.0766686 0.0610502 0.0900801 0.0580144 0.0563116
116 3 O 1.15246 91.7448 1.69871 -1.2 1 0.0221071 0.00787694 0.0136041 0.0239183 0.017569 0.0250048 0.0219497 0.0686511 0.03507 0.0586535 0.0395079 0.0660354 0.0538435 0.064848 0.0622735 0.0634392 0.0551089 0.0733858 0.0632432 0.0677547
117 3 O -1.41325 95.381 1.77196 -1.2 1 0.0219515 0.0142789 0.0268333 0.0182572 0.0250907 0.0357652 0.0322193 0.0465563 0.0530235 0.0435329 0.0403 0.0500182 0.0528576 0.0647134 0.109999 0.0647041 0.0706505 0.0528818 0.0703074 0.0644025
118 3 O -1.09301 92.4376 0.515948 -1.2 1 0.0106895 0.0126378 0.0300055 0.017078 0.0175141 0.0207322 0.0437031 0.0412244 0.0353153 0.0500844 0.0488672 0.0422169 0.0542326 0.0578156 0.0863233 0.0650683 0.0798537 0.0626639 0.0685171 0.0611508
119 1 Mg -2.39958 101.24 3.2999 1.2 1 0.0146878 0.0165544 0.00786877 0.0298905 0.0110445 0.038187 0.0126984 0.0592336 0.022816 0.0802355 0.0237737 0.0473241 0.0217804 0.0716983 0.0282355 0.102808 0.0357786 0.111792 0.0484853 0.0883331
120 3 O -1.06208 92.3813 3.08146 -1.2 1 0.0137624 0.0138061 0.0322941 0.0189954 0.0170527 0.0281785 0.0440954 0.0448479 0.0374103 0.051443 0.0503294 0.0392609 0.0505871 0.0609307 0.0786449 0.0694798 0.0756747 0.0594017 0.0692574 0.0695195
121 1 Mg -2.29597 98.1795 4.68426 1.2 1 0.0275062 0.0157182 0.0180211 0.030955 0.00956155 0.0224218 0.0222349 0.0340559 0.0360304 0.0538568 0.056741 0.0579462 0.0618135 0.0570001 0.0646949 0.078565 0.0766811 0.089259 0.0764104 0.0731103
122 2 Si 0.238291 100.04 4.79284 2.4 1 0.0276703 0.0114755 0.0182244 0.0296956 0.0275341 0.0277547 0.0444441 0.0384367 0.0416086 0.0582159 0.0581476 0.0633987 0.071205 0.0563538 0.0804298 0.0696932 0.059307 0.091755 0.0554148 0.0589626
123 3 O -1.23177 100.11 4.77703 -1.2 1 0.0263026 0.0119132 0.0129561 0.0221664 0.0230189 0.0233362 0.0232673 0.0691208 0.0410194 0.0534944 0.046099 0.0688561 0.0554361 0.0630299 0.0704023 0.0657883 0.0546598 0.0757032 0.0619887 0.0765689
124 3 O 1.36698 96.3499 4.63232 -1.2 1 0.00345141 0.0204715 0.0247535 0.016523 0.0152853 0.0357749 0.035654 0.045132 0.0539507 0.0434597 0.0457455 0.041765 0.0540629 0.0703287 0.0987511 0.0793109 0.0639895 0.0499376 0.0732354 0.067264
125 3 O 0.910637 99.2254 3.61887 -1.2 1 0.0165877 0.0176062 0.02742 0.0122406 0.020889 0.0261494 0.0380877 0.0398962 0.0383667 0.0562635 0.0519805 0.0398872 0.0534597 0.0561728 0.0814589 0.0737019 0.0693439 0.0767744 0.0652559 0.0601548