ITEM: TIMESTEP
82300
ITEM: NUMBER OF ATOMS
5600
ITEM: BOX BOUNDS xy xz yz pp pp pp
0	7.1235	0
0	201.985	2.3745
0	119.584	0
ITEM: ATOMS id type element xu yu zu q Q_1 Q_2 Q_3 Q_4 Q_5 Q_6 Q_7 Q_8 Q_9 Q_10 Q_11 Q_12 Q_13 Q_14 Q_15 Q_16 Q_17 Q_18 Q_19 Q_20 Q_21
1 1 Mg -1.77979 48.0738 -1.63113 1.2 1 0.463127 0.0450644 0.126858 0.0330281 0.0772322 0.0394599 0.0501496 0.0616957 0.0734211 0.0790667 0.0827726 0.0872263 0.0882488 0.0890994 0.104207 0.0931407 0.0917194 0.113305 0.103676 0.09824
2 1 Mg 2.81348 50.5117 1.78132 1.2 1 0.24809 0.108899 0.039136 0.052985 0.0360072 0.0405826 0.0435104 0.0660743 0.059145 0.0561327 0.0849332 0.0592634 0.0887967 0.0780038 0.076192 0.071747 0.0832715 0.0901064 0.0843686 0.0897376
3 2 Si 0.767195 49.5625 0.155841 2.4 1 0.316027 0.111233 0.0386141 0.0786434 0.0534042 0.0501395 0.0713271 0.0620634 0.0775728 0.0820613 0.0627223 0.089274 0.0617379 0.0729924 0.0845241 0.0797119 0.0876315 0.074863 0.077561 0.0918128
4 3 O 1.95146 48.6371 0.254891 -1.2 1 0.422864 0.0662212 0.0928699 0.0531422 0.0437501 0.0722621 0.036264 0.0707399 0.0681719 0.0565767 0.0552459 0.074883 0.0646775 0.070489 0.0939206 0.0917729 0.0908631 0.0874011 0.0809519 0.0759752
5 3 O -1.2297 52.4736 1.52234 -1.2 1 0.107561 0.064515 0.0518881 0.0216957 0.0248111 0.0389074 0.0480288 0.0478428 0.061593 0.0639649 0.0445315 0.0523319 0.0698544 0.0743962 0.0906621 0.068953 0.0903705 0.0578993 0.0624009 0.0760758
6 3 O -0.100517 49.0797 -1.18592 -1.2 1 0.36294 0.108416 0.0741402 0.0597109 0.0299844 0.0631291 0.044438 0.05198 0.0734095 0.0859892 0.0720134 0.0853935 0.1046 0.0977876 0.0906295 0.0786963 0.0769136 0.076791 0.0859664 0.0873588
7 1 Mg -2.06628 58.3916 3.29208 1.2 1 0.0212747 0.0232545 0.0155847 0.0239703 0.0156682 0.0304037 0.0287276 0.05413 0.0427651 0.0701964 0.0413956 0.048439 0.0336924 0.0681942 0.0436427 0.0906445 0.0724222 0.0904491 0.0656512 0.0711595
8 3 O -0.0258181 49.5729 1.41262 -1.2 1 0.32064 0.134125 0.0685508 0.0540539 0.0302785 0.0442665 0.0832317 0.0518401 0.0864781 0.0957065 0.0657438 0.0608063 0.0549944 0.0626841 0.0896117 0.0704883 0.0788231 0.076462 0.072007 0.0823395
9 1 Mg -2.13723 55.2594 4.65241 1.2 1 0.0241814 0.013882 0.0136337 0.0330283 0.0174472 0.0297197 0.0292643 0.0329585 0.0471675 0.0525266 0.0599205 0.0543771 0.0565458 0.054643 0.0571779 0.0815065 0.071542 0.0879275 0.0691033 0.0834893
10 2 Si 0.674466 57.1817 4.58171 2.4 1 0.0240832 0.0221911 0.0226583 0.0381151 0.0323037 0.031877 0.0431447 0.0542555 0.0564063 0.0532913 0.0504521 0.0700971 0.0689494 0.0539369 0.077703 0.0639449 0.0756045 0.0952685 0.0548379 0.0537766
11 3 O -0.94445 57.1061 4.7785 -1.2 1 0.0153389 0.0408147 0.0116125 0.0192148 0.0289013 0.0304059 0.0381376 0.0764629 0.0482156 0.0655558 0.0382009 0.073969 0.0685527 0.0651421 0.0768448 0.0656963 0.0544955 0.0647378 0.0611304 0.0802978
12 3 O 1.25041 53.3187 4.65632 -1.2 1 0.0550542 0.0507845 0.0446756 0.0183913 0.0243368 0.0328601 0.0370674 0.0338102 0.0553913 0.0527167 0.067619 0.0534651 0.0672122 0.0696969 0.0785658 0.0727245 0.080798 0.0767906 0.0653503 0.0665378
13 3 O 1.46728 56.7494 3.33967 -1.2 1 0.017671 0.0107466 0.0373286 0.0133221 0.0190332 0.0200943 0.0522446 0.0487796 0.0513314 0.0447414 0.0476444 0.0538746 0.0542824 0.0613424 0.0866767 0.0655619 0.0746847 0.0739202 0.0641799 0.0567634
14 3 O 1.28729 56.1807 5.76123 -1.2 1 0.0193465 0.0202701 0.0215987 0.0180998 0.0320744 0.0357139 0.0431701 0.042712 0.035804 0.057231 0.0529244 0.0427509 0.0622824 0.0500425 0.0861093 0.07827 0.0662948 0.0714185 0.0546111 0.0623989
15 1 Mg 0.0953752 52.9821 2.94531 1.2 1 0.0691853 0.0536365 0.0576284 0.0245144 0.0181434 0.032106 0.0357986 0.051149 0.0480085 0.0610491 0.0382684 0.0599288 0.0531637 0.0589252 0.0566324 0.0860863 0.0781438 0.0951425 0.0655433 0.0706667
16 1 Mg 0.0611246 49.4077 3.38932 1.2 1 0.336601 0.103815 0.0444888 0.0745474 0.0350325 0.0459963 0.0663955 0.0717768 0.067985 0.0655191 0.0703649 0.0801394 0.0856997 0.0886786 0.0616498 0.0838701 0.0696271 0.10843 0.0748852 0.0828257
17 2 Si 1.94971 51.7525 4.4272 2.4 1 0.138184 0.0966549 0.0391396 0.0364998 0.0331254 0.035778 0.0294356 0.0505091 0.0688827 0.0653515 0.0645234 0.0737193 0.0831642 0.064681 0.0836471 0.0785428 0.0791927 0.0703438 0.0784884 0.0596445
18 3 O -1.4068 51.8794 4.82401 -1.2 1 0.12586 0.0937878 0.0485704 0.0315085 0.0258459 0.0309239 0.0524956 0.0397942 0.056999 0.0766543 0.0483412 0.0932251 0.0614756 0.0530984 0.0655708 0.0995829 0.06766 0.0848229 0.0720411 0.0855436
19 3 O 2.71446 49.0979 3.44254 -1.2 1 0.373543 0.0967806 0.0792886 0.0507978 0.041971 0.0619016 0.0528752 0.0807942 0.0735086 0.0751574 0.048131 0.0738781 0.0693348 0.105496 0.099246 0.0811313 0.0963173 0.0736264 0.0885629 0.0846153
20 3 O 1.49227 51.3915 3.03785 -1.2 1 0.178103 0.0999085 0.040438 0.0365739 0.0292541 0.0404058 0.0595252 0.0538824 0.0582653 0.0664293 0.0575671 0.0517129 0.0764828 0.0703072 0.077362 0.0570375 0.0783886 0.0674021 0.0761454 0.0784867
21 1 Mg -0.0892252 52.5864 0.119024 1.2 1 0.0992058 0.0674799 0.0489182 0.0308865 0.0144342 0.0275012 0.06072 0.0673556 0.0595133 0.0597568 0.0722677 0.0509078 0.0525911 0.0592723 0.0716259 0.0743197 0.0669286 0.0757593 0.0810333 0.0727637
22 3 O 1.1791 50.6996 5.58824 -1.2 1 0.203526 0.11256 0.0222907 0.0555816 0.0275497 0.0306385 0.0461678 0.0800923 0.0628058 0.0624616 0.0585343 0.0617063 0.0637868 0.0694794 0.0819402 0.0789611 0.0848813 0.102653 0.0870944 0.0639959
23 1 Mg 0.527614 55.9925 1.79081 1.2 1 0.0248522 0.0180032 0.0221232 0.0321637 0.0140572 0.0383838 0.0362335 0.0459071 0.0424752 0.0600282 0.0601631 0.0787818 0.0465332 0.0690066 0.0791589 0.0672659 0.0810208 0.0691456 0.0757325 0.0610831
24 2 Si -1.92365 54.0695 1.60396 2.4 1 0.0365685 0.0303272 0.0352548 0.0331043 0.0287242 0.0308511 0.0464503 0.046488 0.0583189 0.0673643 0.0605314 0.0587523 0.0817516 0.066382 0.0565411 0.0695712 0.0819373 0.0838241 0.0651125 0.0803563
25 3 O 1.10986 54.0318 1.72512 -1.2 1 0.0223453 0.0303961 0.0407069 0.0302679 0.0178908 0.0312706 0.0346891 0.0597761 0.0440283 0.0656026 0.0442152 0.0578661 0.0599153 0.0766354 0.0776418 0.0449965 0.0720786 0.0710591 0.0667465 0.0598133
26 3 O -0.768083 57.7492 1.87427 -1.2 1 0.00866512 0.0170135 0.0220189 0.020875 0.0165059 0.038574 0.0475328 0.0455495 0.0530809 0.0400748 0.0477257 0.0533702 0.0581972 0.0749451 0.104677 0.0830361 0.0789865 0.0580267 0.0695416 0.0524981
27 3 O -1.4732 54.3091 0.142639 -1.2 1 0.0198195 0.0332439 0.0241405 0.030855 0.0223591 0.0374036 0.0475069 0.054082 0.0468717 0.0448732 0.0593851 0.0474442 0.0664725 0.0809335 0.0732957 0.0712725 0.079119 0.073528 0.0675 0.0676077
28 3 O -1.19537 54.6362 2.95459 -1.2 1 0.0170836 0.0150285 0.0195487 0.0381849 0.0231807 0.0239821 0.0599175 0.0373724 0.0502338 0.0482773 0.0520941 0.053827 0.0575647 0.0714911 0.0799665 0.0810846 0.0633132 0.0751348 0.0632865 0.0598325
29 1 Mg -2.18282 57.9663 0.300134 1.2 1 0.0193988 0.0198876 0.0139021 0.0312792 0.0192713 0.0331857 0.026683 0.0517515 0.0424942 0.0758939 0.0282574 0.052062 0.0294418 0.0634433 0.0351758 0.100943 0.0467998 0.104298 0.0610181 0.0781108
30 1 Mg 2.59876 61.2798 1.89695 1.2 1 0.026695 0.013763 0.0205974 0.0228109 0.0114475 0.0293778 0.0280539 0.0425555 0.0431514 0.053541 0.0633243 0.0706721 0.0570958 0.0645837 0.0717967 0.0654925 0.0832447 0.0874199 0.0683862 0.0819914
31 2 Si -0.00747306 59.1339 1.7875 2.4 1 0.0197992 0.0203879 0.0193607 0.0243595 0.033431 0.0344339 0.0414926 0.0368734 0.0472418 0.0570041 0.0606954 0.0782435 0.0731477 0.0465161 0.0884386 0.0641809 0.0745584 0.0809743 0.0541014 0.0526715
32 3 O 1.4753 59.2615 1.79192 -1.2 1 0.0228576 0.022842 0.0137888 0.0224528 0.0376524 0.0282065 0.0238399 0.0586328 0.0285287 0.0566108 0.0334876 0.0661574 0.0726593 0.0621045 0.0796752 0.0659929 0.0527586 0.0621721 0.0624545 0.0697474
33 3 O -1.27295 62.9535 1.74496 -1.2 1 0.0167645 0.018115 0.0208907 0.021052 0.0224402 0.0323074 0.0301487 0.0450227 0.0563786 0.0421857 0.0444818 0.053378 0.0555308 0.0660225 0.105427 0.0761316 0.0646802 0.0604761 0.0654324 0.0580661
34 3 O -0.777835 59.72 0.406409 -1.2 1 0.0179584 0.0211721 0.0275684 0.0228621 0.0331133 0.0275001 0.0539759 0.0529978 0.0441916 0.0463044 0.0510291 0.0586989 0.0521929 0.0816375 0.0831889 0.0722841 0.0845839 0.0572123 0.0652066 0.0642088
35 1 Mg -2.14724 68.6682 3.334 1.2 1 0.0116555 0.0132648 0.00748639 0.0360602 0.00953531 0.0348368 0.0126075 0.0605334 0.0201303 0.0761316 0.0241937 0.0510679 0.0246317 0.0691196 0.0274414 0.107594 0.0310807 0.103933 0.0339262 0.0845323
36 3 O -0.697336 59.7465 3.19048 -1.2 1 0.00270096 0.0141632 0.0263665 0.0262869 0.0358333 0.0205109 0.0548052 0.0581918 0.0406263 0.0443068 0.0473411 0.0491456 0.0605165 0.0747893 0.0834423 0.0865318 0.0694527 0.0688884 0.0607407 0.0733276
37 1 Mg -2.03201 65.6583 4.72464 1.2 1 0.0116623 0.0246035 0.0190095 0.033805 0.0161521 0.023258 0.03041 0.0415033 0.0388087 0.0625799 0.062499 0.0591736 0.0606447 0.0655355 0.0693576 0.0674103 0.0847531 0.0856146 0.0691232 0.0667813
38 2 Si 0.718281 67.6173 4.99104 2.4 1 0.0196115 0.0244768 0.0192719 0.0311661 0.0417474 0.027121 0.0431662 0.0517679 0.060909 0.0523122 0.0460759 0.0666615 0.0683171 0.0546696 0.0743136 0.0645219 0.0708475 0.093337 0.0572013 0.0637026
39 3 O -0.905052 67.74 4.8214 -1.2 1 0.0110434 0.0245419 0.0234021 0.0193339 0.029152 0.0261735 0.0247286 0.0695729 0.0468527 0.0577994 0.0503737 0.071543 0.0624196 0.0639885 0.0668206 0.0632708 0.0578816 0.0693395 0.0593336 0.0753836
40 3 O 1.41344 64.0231 4.93169 -1.2 1 0.0102203 0.0185192 0.0289085 0.0209125 0.019733 0.0333557 0.0428906 0.0378594 0.0498619 0.043457 0.0475893 0.0498358 0.0568736 0.0672266 0.095887 0.0643558 0.0799366 0.0599081 0.0645645 0.0614499
41 3 O 1.24407 66.7849 3.76863 -1.2 1 0.0165074 0.0220954 0.0256509 0.0151796 0.0344593 0.0254103 0.0476339 0.0475495 0.0387848 0.0442753 0.0582793 0.0379221 0.0661392 0.0709937 0.082856 0.076317 0.064862 0.0773914 0.0522758 0.0630378
42 3 O 1.25212 67.1744 6.37525 -1.2 1 0.0331916 0.0254883 0.0209993 0.0253698 0.0307519 0.0242282 0.0543642 0.047233 0.0470283 0.0396739 0.0565393 0.0420363 0.0680417 0.0516835 0.0947271 0.0651255 0.0762217 0.0735383 0.0597645 0.0749875
43 1 Mg 0.0540165 63.4262 3.40951 1.2 1 0.0106391 0.0115454 0.0143578 0.0294918 0.0110411 0.029868 0.0144777 0.0575005 0.0220481 0.0835028 0.0229111 0.0459154 0.029493 0.0689604 0.0296128 0.0975504 0.0379701 0.106913 0.0351058 0.0916814
44 1 Mg 0.0789045 60.4915 4.92976 1.2 1 0.0212954 0.0211724 0.0118472 0.0316752 0.0192515 0.0335102 0.032377 0.0329682 0.0413633 0.0601206 0.0563353 0.0545633 0.0521838 0.0661435 0.0793983 0.0766795 0.0693183 0.0842382 0.0724047 0.0788136
45 2 Si 2.01705 62.5467 4.85944 2.4 1 0.00686128 0.0238088 0.0261843 0.0315588 0.0348807 0.0255861 0.0420708 0.0536742 0.0591764 0.0464835 0.0461383 0.0801707 0.0677696 0.0627912 0.063853 0.0677343 0.0677245 0.0927788 0.0530658 0.0586224
46 3 O -1.11623 62.6503 4.78399 -1.2 1 0.0280053 0.0104854 0.0226902 0.0218912 0.0313924 0.0327337 0.0287728 0.0613933 0.0501089 0.0514476 0.0542004 0.0792481 0.0503657 0.0561688 0.0788006 0.0608371 0.0641511 0.0733359 0.0505162 0.0826224
47 3 O 1.32817 58.6143 4.93837 -1.2 1 0.00895254 0.0121365 0.0205355 0.0271015 0.0193086 0.0402566 0.0439043 0.0380351 0.0564758 0.0547606 0.0397221 0.0496027 0.056806 0.0797631 0.0933744 0.0672595 0.0713539 0.0667312 0.0663848 0.0462364
48 3 O 1.49045 61.8922 3.60788 -1.2 1 0.0081186 0.0118141 0.0246195 0.0252406 0.0317015 0.0210096 0.0483135 0.0512724 0.0354059 0.0496153 0.0465098 0.0552339 0.0521906 0.0658932 0.0958761 0.0650957 0.085596 0.0586155 0.0731358 0.0673914
49 1 Mg 0.081503 63.7019 0.106302 1.2 1 0.0168459 0.0107485 0.0125806 0.0248953 0.0232767 0.0354104 0.021708 0.0460262 0.0348397 0.068727 0.0373843 0.0575542 0.0367961 0.0669137 0.0421359 0.100578 0.0627571 0.0949343 0.0648304 0.0772417
50 3 O 1.42358 61.7918 6.18957 -1.2 1 0.0170235 0.0162388 0.0355577 0.0314827 0.0252639 0.0259845 0.0584665 0.0473406 0.0410008 0.0454145 0.0529356 0.0414067 0.0603402 0.0511662 0.0976302 0.0674541 0.0771361 0.0670361 0.0576706 0.0809837
51 1 Mg 0.207155 66.5378 1.81479 1.2 1 0.0139545 0.02176 0.0185202 0.0294332 0.0198083 0.0196812 0.0237075 0.0312366 0.0395201 0.0551089 0.0546318 0.0643291 0.0560806 0.0570218 0.0697986 0.0546186 0.0851911 0.0944687 0.0678935 0.0790227
52 2 Si -1.88649 64.5407 1.82711 2.4 1 0.0126091 0.0215281 0.0230473 0.0321818 0.0283797 0.0354011 0.0403204 0.0397351 0.0549548 0.0575342 0.0526475 0.0682336 0.0651654 0.0579687 0.093589 0.0650719 0.0629012 0.0906801 0.0627064 0.0615463
53 3 O 1.31768 64.4389 1.85484 -1.2 1 0.0259353 0.0249709 0.0148948 0.0298608 0.0315836 0.0261268 0.0255899 0.0766375 0.0379228 0.0608352 0.0387271 0.0685421 0.0589596 0.0677473 0.0765526 0.070213 0.0533999 0.0722923 0.0600166 0.0674804
54 3 O -0.916083 68.3192 1.81757 -1.2 1 0.00704074 0.0144752 0.032126 0.0244471 0.0199746 0.0355044 0.0421817 0.0424197 0.0573387 0.0359197 0.0496081 0.0530672 0.0503661 0.0683937 0.101971 0.0790323 0.0688038 0.0571694 0.0701989 0.0564335
55 3 O -1.08089 65.1263 0.416542 -1.2 1 0.0199649 0.0273827 0.0311093 0.0207198 0.0315189 0.0255675 0.04508 0.0439424 0.0467153 0.054096 0.046651 0.0458072 0.0671787 0.0582319 0.0976113 0.0684103 0.0707871 0.0602391 0.0613957 0.0725992
56 3 O -1.10118 65.1321 3.07499 -1.2 1 0.0210719 0.0178708 0.0296131 0.0206268 0.0326791 0.0229118 0.0533589 0.0431354 0.0377544 0.0436638 0.0595763 0.0495019 0.0595653 0.0711262 0.0964067 0.0650672 0.0729673 0.0547139 0.0617615 0.0722928
57 1 Mg -2.44837 68.4658 0.303096 1.2 1 0.0267603 0.0146871 0.020862 0.0281055 0.0136111 0.0340613 0.0243886 0.0561333 0.0258586 0.0752327 0.0393751 0.0492594 0.0361275 0.0654155 0.0436176 0.0907919 0.0668172 0.0908055 0.0639894 0.0730588
58 1 Mg 2.53245 71.8144 1.68416 1.2 1 0.0255204 0.0183578 0.0269633 0.0234968 0.0238309 0.0284205 0.0305108 0.038148 0.0422153 0.0571343 0.0530774 0.0624138 0.052558 0.0600921 0.0721379 0.0609947 0.0803486 0.0968775 0.0639992 0.063819
59 2 Si -0.123582 69.7632 2.01067 2.4 1 0.0176077 0.0157097 0.021626 0.0331411 0.0380237 0.0292214 0.0403146 0.0340879 0.0511855 0.0452136 0.0646972 0.0598105 0.0681077 0.0626202 0.0802732 0.0767428 0.0627918 0.0786947 0.0653942 0.0546831
60 3 O 1.30071 69.4207 1.85974 -1.2 1 0.0235929 0.0127461 0.0249299 0.0164834 0.0262991 0.0294673 0.0330736 0.0597793 0.0500027 0.0436973 0.0546883 0.0693456 0.045416 0.0631758 0.0823342 0.0766949 0.0630258 0.0826265 0.054512 0.083969
61 3 O -1.18479 73.4476 1.60817 -1.2 1 0.0102047 0.0271583 0.0215346 0.0260456 0.0212813 0.0350583 0.0403523 0.0445395 0.049382 0.0398335 0.0450297 0.0396591 0.0554761 0.08009 0.0949787 0.0714154 0.0655679 0.0621357 0.0636513 0.0586636
62 3 O -0.859577 70.6226 0.761296 -1.2 1 0.0107841 0.0166805 0.0232356 0.0234234 0.0223903 0.03052 0.0333273 0.0412018 0.0362938 0.0447865 0.0535195 0.0491263 0.0569634 0.0571835 0.0839074 0.0664217 0.0738113 0.0774423 0.0653216 0.0614159
63 1 Mg -2.28685 79.4868 3.58427 1.2 1 0.0170238 0.00902453 0.0108057 0.0262097 0.018135 0.0405968 0.0259906 0.0577982 0.0363708 0.0654787 0.0397683 0.0535128 0.0330188 0.0689721 0.0436773 0.0938328 0.0656746 0.090253 0.0625199 0.058809
64 3 O -0.873026 70.3062 3.2558 -1.2 1 0.0136953 0.0181023 0.0299821 0.0232637 0.0335228 0.01733 0.0452961 0.0435169 0.0435855 0.047441 0.0523167 0.0412751 0.0596067 0.0520072 0.0925055 0.0687465 0.0746637 0.0664768 0.0586072 0.0678948
65 1 Mg -2.12412 76.4406 4.87135 1.2 1 0.0202373 0.0176369 0.0211729 0.0343397 0.0207278 0.0294493 0.0308003 0.0417652 0.038652 0.0463348 0.0496613 0.0609533 0.0589884 0.070421 0.0669514 0.0742762 0.0810503 0.0795564 0.0641012 0.075183
66 2 Si 0.398045 78.0911 4.98211 2.4 1 0.00739334 0.0290665 0.023622 0.0322299 0.0291553 0.033716 0.0284388 0.0518944 0.0631591 0.0615247 0.0613026 0.0652102 0.0441934 0.0641568 0.051885 0.0807705 0.0591543 0.0772819 0.0694119 0.0686055
67 3 O -1.21835 78.1755 4.68574 -1.2 1 0.014327 0.0361762 0.0118346 0.0227355 0.0222701 0.0281594 0.031712 0.0728038 0.0473593 0.0765051 0.0382765 0.0550908 0.0632992 0.081808 0.0710483 0.0657619 0.0583601 0.0597966 0.0647257 0.0656496
68 3 O 1.56195 74.6199 4.59391 -1.2 1 0.00723624 0.0204969 0.024143 0.0266261 0.0197789 0.0354408 0.0443702 0.0481219 0.0504226 0.0513349 0.0551702 0.0492624 0.0494667 0.0758457 0.0909586 0.0754213 0.0604293 0.0693976 0.0725179 0.0543849
69 3 O 1.17574 77.5571 3.53644 -1.2 1 0.00625183 0.0221258 0.0205443 0.0227205 0.0283021 0.0275993 0.0449696 0.0377895 0.0431925 0.0501228 0.0630859 0.0461663 0.0640851 0.0531278 0.0807183 0.0800968 0.0707535 0.0555679 0.059656 0.073087
70 3 O 1.10028 77.1848 6.09778 -1.2 1 0.0115187 0.020864 0.0246767 0.0208909 0.0304474 0.0343499 0.0246301 0.041779 0.0382144 0.0609195 0.0569274 0.056125 0.051575 0.0547587 0.0760409 0.0740771 0.0727941 0.0587298 0.0785068 0.0683381
71 1 Mg 0.245677 74.1949 3.24141 1.2 1 0.0111782 0.0171181 0.0209928 0.0381414 0.0149762 0.0365575 0.0174698 0.0541023 0.0322671 0.0780946 0.0326611 0.0516285 0.0303548 0.0573398 0.0496459 0.0920831 0.0536683 0.0999306 0.0646102 0.079691
72 1 Mg 0.241904 70.9787 5.08128 1.2 1 0.0223643 0.0222661 0.0191423 0.0287873 0.0162411 0.0367307 0.0249508 0.0381537 0.0461389 0.0487249 0.0635184 0.0527152 0.061395 0.0703313 0.068754 0.0711289 0.0749263 0.0901446 0.0716815 0.0701879
73 2 Si 2.36054 73.1724 4.74034 2.4 1 0.0109212 0.0177897 0.0223799 0.0347616 0.0257731 0.0309834 0.0385395 0.0429938 0.0467942 0.0725317 0.0612016 0.0584431 0.0693703 0.0607877 0.0816138 0.061687 0.0715055 0.0819734 0.0661477 0.0724342
74 3 O -0.771585 73.0457 4.70068 -1.2 1 0.0204402 0.0311722 0.0105324 0.0173979 0.0236938 0.0274027 0.0233354 0.0673099 0.0421553 0.0618227 0.0372132 0.0644116 0.059168 0.0698679 0.0823948 0.0654816 0.0589604 0.0713304 0.0592225 0.0642589
75 3 O 1.39507 69.1135 4.83333 -1.2 1 0.0155333 0.0190928 0.0195892 0.024816 0.0138619 0.0348669 0.0417608 0.0443051 0.0549373 0.040472 0.0434494 0.0528537 0.0559136 0.0698652 0.101202 0.0631511 0.0772966 0.0443966 0.0633811 0.0543661
76 3 O 1.7074 72.4766 3.3813 -1.2 1 0.0115549 0.0208334 0.0229306 0.0210284 0.0319856 0.0200336 0.053968 0.0421098 0.044088 0.0475308 0.0542965 0.0487405 0.0573841 0.0754215 0.0721327 0.0771999 0.0900881 0.0765449 0.0745587 0.0619005
77 1 Mg 0.160131 73.9089 0.029843 1.2 1 0.0177129 0.0320107 0.0181497 0.0294757 0.0151811 0.0393891 0.0221217 0.0524878 0.0279173 0.0748263 0.0385898 0.0485143 0.0380844 0.0650514 0.0453795 0.0930909 0.0624252 0.0939962 0.05733 0.0645395
78 3 O 1.75126 72.4798 6.09222 -1.2 1 0.0203081 0.0160281 0.0294211 0.0215818 0.032995 0.0296708 0.0462166 0.0404615 0.0521774 0.0470008 0.0421175 0.0511951 0.0574173 0.0816719 0.0704125 0.067201 0.0812574 0.0663378 0.0787907 0.0683067
79 1 Mg 0.0261943 77.0208 1.76746 1.2 1 0.0156705 0.0221811 0.0111577 0.0320031 0.0183805 0.0255013 0.0312964 0.0352988 0.0551075 0.0564003 0.0716333 0.0511984 0.0597821 0.0659264 0.0706633 0.0731748 0.0758179 0.0986125 0.045017 0.0930084
80 2 Si -1.94064 74.8668 1.65422 2.4 1 0.0184026 0.0180676 0.0204572 0.025121 0.0332027 0.0254715 0.0425064 0.0356579 0.0417576 0.0558376 0.0622406 0.0658626 0.0716233 0.0588261 0.0864196 0.0625434 0.0800245 0.0830785 0.0554751 0.0590388
81 3 O 1.31155 74.8109 1.6486 -1.2 1 0.00994223 0.0268775 0.0188313 0.0203157 0.0295766 0.0289589 0.0302598 0.0714657 0.037414 0.0527201 0.0369309 0.0863458 0.0479304 0.0644017 0.0909519 0.0691211 0.0675103 0.072908 0.0442149 0.0753483
82 3 O -0.793451 79.0497 1.91284 -1.2 1 0.0230297 0.0267482 0.017833 0.0290349 0.0206924 0.0321465 0.0364758 0.049034 0.0606151 0.0373154 0.0541181 0.0458025 0.0614963 0.0697792 0.0854476 0.0768473 0.0826236 0.0563867 0.0636385 0.0622174
83 3 O -1.27167 75.4811 0.408464 -1.2 1 0.0162144 0.0175323 0.0267547 0.0244024 0.0373313 0.0252551 0.0449362 0.0385702 0.036769 0.0506864 0.0518236 0.0438032 0.0611769 0.0718096 0.0738805 0.0726359 0.0770706 0.0542295 0.0554885 0.0772001
84 3 O -1.26338 75.7279 2.98075 -1.2 1 0.0155653 0.0146774 0.0285345 0.0133796 0.0292106 0.0241289 0.0508144 0.0387522 0.0406862 0.0484827 0.0547231 0.0484843 0.0677366 0.0807493 0.0661492 0.0724229 0.0843991 0.0524152 0.0682125 0.0580065
85 1 Mg -2.32444 78.7119 0.826648 1.2 1 0.0150411 0.0141103 0.0146536 0.023168 0.0339017 0.0318896 0.0337473 0.0382925 0.0568273 0.0444582 0.0541718 0.0504777 0.0471208 0.0477004 0.0781281 0.0686086 0.094075 0.0801778 0.0693763 0.0758743
86 1 Mg 2.25569 82.3019 1.71576 1.2 1 0.0224327 0.0162537 0.0173671 0.039678 0.0184914 0.0286089 0.0358012 0.03403 0.0499873 0.0489954 0.065061 0.0466211 0.0570262 0.0639249 0.0660691 0.081803 0.0627455 0.0848454 0.0740321 0.0618667
87 2 Si -0.403174 80.5783 2.09472 2.4 1 0.0226353 0.00828523 0.0193045 0.024483 0.0381728 0.0364082 0.0317893 0.0476242 0.0624273 0.0445787 0.0473535 0.0552297 0.0720785 0.0497017 0.062906 0.0668584 0.0662887 0.0843933 0.0796081 0.0676002
88 3 O 1.1472 80.517 2.3455 -1.2 1 0.0206078 0.0206288 0.021731 0.0179587 0.032887 0.0285705 0.0344485 0.0570358 0.0550221 0.0641259 0.0461876 0.0588285 0.0567783 0.073754 0.0630119 0.0577141 0.0750372 0.0642414 0.0679951 0.0494892
89 3 O -1.45828 84.2887 1.85252 -1.2 1 0.0120079 0.0225006 0.0194003 0.0232341 0.0222393 0.0266545 0.0367992 0.0465204 0.0551033 0.0500219 0.0509289 0.0420583 0.0575638 0.0727616 0.088109 0.0645323 0.0713964 0.0588528 0.0680035 0.0624766
90 3 O -1.06085 81.2689 0.89516 -1.2 1 0.0162504 0.0197506 0.0177092 0.0284668 0.0270595 0.0222935 0.0259907 0.0347208 0.0450012 0.0405682 0.0513363 0.0363332 0.0550536 0.055013 0.0930752 0.0735462 0.0702666 0.0660392 0.0629214 0.0646091
91 1 Mg -2.17141 90.4226 3.32805 1.2 1 0.0137342 0.0226065 0.0147253 0.0277921 0.0245675 0.0326734 0.0161803 0.0612503 0.0297372 0.065311 0.0430656 0.0501812 0.0274277 0.0681469 0.0493476 0.0910454 0.0665097 0.0879157 0.0626416 0.0698169
92 3 O -0.863204 80.9782 3.5754 -1.2 1 0.0140053 0.0207828 0.0228346 0.0242798 0.0218838 0.029936 0.052951 0.0387546 0.0579458 0.0507423 0.0568659 0.0385801 0.0523194 0.04797 0.0881275 0.0563496 0.0753351 0.0648488 0.0674285 0.0634908
93 1 Mg -2.21338 87.1361 4.73328 1.2 1 0.015932 0.00783907 0.0186368 0.0375432 0.0257644 0.0223473 0.0246894 0.0291092 0.041319 0.0577786 0.0589743 0.05603 0.0565053 0.0593268 0.0498969 0.0703384 0.0782461 0.0932439 0.0616572 0.0688493
94 2 Si 0.442539 89.2201 4.98497 2.4 1 0.0303763 0.0180294 0.0285136 0.0172337 0.0373301 0.0254044 0.0352717 0.0511582 0.0474725 0.0633815 0.0514159 0.0525461 0.073254 0.053196 0.082872 0.0643093 0.0646209 0.0805303 0.0579275 0.0609622
95 3 O -1.0579 89.3811 4.827 -1.2 1 0.015255 0.0209008 0.0206003 0.0230085 0.0217011 0.0170732 0.0323912 0.0677112 0.0429244 0.0470003 0.0450257 0.0742219 0.0494509 0.0695775 0.0688135 0.0723453 0.0529707 0.0818909 0.0592972 0.0806238
96 3 O 1.7152 85.3403 4.72271 -1.2 1 0.0195139 0.0185018 0.0241024 0.0338638 0.023381 0.0395498 0.0346213 0.035364 0.0555019 0.0457499 0.0489387 0.032815 0.0543919 0.0666783 0.0936641 0.0602986 0.0707254 0.0507533 0.0713737 0.0616725
97 3 O 1.02205 88.4011 3.76013 -1.2 1 0.0224204 0.0193819 0.0278 0.0206277 0.0344878 0.0312871 0.0419429 0.0469315 0.0445234 0.0474475 0.0538845 0.0475268 0.0558173 0.0610522 0.0716017 0.0793065 0.0744794 0.0630639 0.0726841 0.0714828
98 3 O 1.21714 88.6166 6.18139 -1.2 1 0.0314363 0.0128622 0.0256054 0.0138872 0.0239206 0.0356713 0.0484749 0.0437649 0.0398025 0.0437512 0.0516133 0.048736 0.0513658 0.0523093 0.0929376 0.0643819 0.0817371 0.0623212 0.0667016 0.0753911
99 1 Mg 0.175433 84.9729 3.32172 1.2 1 0.0228084 0.0246185 0.0121326 0.0346527 0.0176651 0.0287881 0.0139466 0.0627299 0.0337692 0.0729974 0.0253965 0.0481074 0.0363313 0.0661631 0.0416567 0.0964095 0.043019 0.100972 0.0398803 0.0845481
100 1 Mg 0.497929 81.732 4.7763 1.2 1 0.021678 0.0167619 0.0230498 0.0193322 0.0283948 0.033679 0.0308713 0.0403836 0.0571608 0.0530802 0.0635779 0.0472211 0.0585537 0.0705393 0.0534004 0.0595921 0.0669032 0.0902814 0.0620384 0.0708996
101 2 Si 2.40954 83.9424 4.70264 2.4 1 0.00862265 0.012231 0.0298076 0.027949 0.0319965 0.0261298 0.0317021 0.0384725 0.0503679 0.0639125 0.054055 0.0641614 0.0664312 0.0565128 0.0723458 0.0845901 0.0672668 0.0755575 0.0653997 0.0550802
102 3 O -0.87451 83.9675 4.53086 -1.2 1 0.0105377 0.0118288 0.0303029 0.023096 0.0297646 0.0236103 0.0331975 0.0707215 0.0483927 0.0494114 0.0374354 0.0684768 0.0514946 0.0521764 0.0732078 0.0728848 0.0624125 0.0700984 0.0630326 0.0627382
103 3 O 1.11567 79.5339 5.13437 -1.2 1 0.0212518 0.0324804 0.0122499 0.0270301 0.0223293 0.0312365 0.0400888 0.0436691 0.0623436 0.0438466 0.0598652 0.0450805 0.0602296 0.0681734 0.071004 0.073827 0.0638208 0.0722398 0.06326 0.0430569
104 3 O 1.59026 82.9681 3.76604 -1.2 1 0.0209298 0.0106464 0.022435 0.022776 0.0274936 0.0259157 0.0433136 0.044478 0.0433915 0.0395607 0.0608073 0.0480417 0.0557117 0.0654533 0.0859821 0.0829104 0.084667 0.0803146 0.0768046 0.0618033
105 1 Mg -0.127944 85.1628 0.285294 1.2 1 0.0228875 0.0103553 0.0153057 0.0198457 0.0257954 0.0320525 0.0285735 0.0481554 0.054649 0.058676 0.0484807 0.0409769 0.0446229 0.0582238 0.0601362 0.07988 0.0764923 0.0935759 0.0729386 0.0590143
106 3 O 1.64817 83.2513 6.14566 -1.2 1 0.0241222 0.0141172 0.0223721 0.0282643 0.0248843 0.0299095 0.0447441 0.0434984 0.0454103 0.0489121 0.0511669 0.0450246 0.0542546 0.069938 0.082288 0.0712146 0.072076 0.0536673 0.0619365 0.0775224
107 1 Mg 0.155615 87.7354 2.09576 1.2 1 0.0146047 0.0218504 0.0236481 0.0331595 0.0212682 0.024961 0.0195762 0.0366069 0.0511881 0.0509292 0.0617829 0.046925 0.0586374 0.0651592 0.0743886 0.0732575 0.060477 0.0895655 0.0716128 0.0720606
108 2 Si -2.03383 85.8594 1.73204 2.4 1 0.0192684 0.0320922 0.0210112 0.030051 0.0319642 0.0263218 0.0386113 0.0477591 0.0564622 0.0608663 0.0522997 0.0549431 0.0747634 0.0596561 0.0753276 0.080988 0.0654895 0.0820817 0.0687006 0.0539221
109 3 O 1.24455 85.7652 1.74353 -1.2 1 0.0103902 0.0188981 0.0171471 0.0250236 0.0299893 0.0278474 0.030488 0.0783286 0.0427065 0.0532458 0.0443158 0.0550705 0.0578578 0.0586223 0.0750851 0.063969 0.0686984 0.0702569 0.0569576 0.0629772
110 3 O -0.968195 89.7922 1.91452 -1.2 1 0.0216098 0.0166755 0.0193881 0.0204686 0.0230655 0.0321372 0.0379069 0.0398343 0.0549803 0.0450072 0.053045 0.0456229 0.051959 0.0747346 0.0860955 0.076925 0.0777176 0.05099 0.0703677 0.0642481
111 3 O -1.37226 86.636 0.507732 -1.2 1 0.0261573 0.0222533 0.0227061 0.0162136 0.0264838 0.0341297 0.0421518 0.0403324 0.0412941 0.0556496 0.0556123 0.0431997 0.0576057 0.0636366 0.070508 0.081331 0.069617 0.063053 0.0583727 0.0795933
112 3 O -1.18277 86.4986 2.99871 -1.2 1 0.0144769 0.0125868 0.0326079 0.0261545 0.0268651 0.0195327 0.0519236 0.0399936 0.0339142 0.0414678 0.0589992 0.0388915 0.0506393 0.0663127 0.0856475 0.0716661 0.0816905 0.0626133 0.0665059 0.0685389
113 1 Mg -2.16639 89.6702 0.382639 1.2 1 0.00996769 0.0180935 0.0203922 0.0266498 0.021404 0.0361144 0.0393395 0.0441671 0.0551732 0.0657905 0.0406633 0.046594 0.0439182 0.0627682 0.0611633 0.0869019 0.0834056 0.0866208 0.0707157 0.0667889
114 1 Mg 2.08123 92.8574 1.9417 1.2 1 0.0144601 0.0241097 0.0266948 0.0305993 0.0315487 0.0352487 0.0372846 0.0301838 0.0472535 0.0545063 0.0676426 0.0637488 0.0473215 0.0613651 0.0634278 0.0885342 0.0559229 0.0787708 0.0687601 0.0637472
115 2 Si -0.22052 91.2849 1.8731 2.4 1 0.0256899 0.0130439 0.0184776 0.0314317 0.0327604 0.0369691 0.0395565 0.0444654 0.0552482 0.0579778 0.0599579 0.0667972 0.0592071 0.0621945 0.0680442 0.0801965 0.0593744 0.0889363 0.0636729 0.0683984
116 3 O 1.38281 91.2136 1.88253 -1.2 1 0.0259111 0.0253663 0.0135942 0.0196418 0.0297358 0.0307124 0.0203101 0.0772474 0.0375004 0.0686659 0.0309002 0.0639324 0.0593841 0.0771532 0.0729849 0.0703271 0.0630217 0.0653414 0.0664777 0.0604851
117 3 O -1.39526 95.1345 1.75317 -1.2 1 0.017833 0.0214134 0.0218268 0.0281071 0.0210957 0.0375549 0.0484054 0.046888 0.0618208 0.0370504 0.0568819 0.0385101 0.05048 0.0814972 0.0853176 0.0739902 0.0741796 0.0675357 0.0774951 0.0518087
118 3 O -0.882096 92.0177 0.590057 -1.2 1 0.0305418 0.0192363 0.0253728 0.0180773 0.0337084 0.0229295 0.0406279 0.0449496 0.0418151 0.0458784 0.0614909 0.0348668 0.0667442 0.0571265 0.0827161 0.0830796 0.0687722 0.0610278 0.067782 0.0607253
119 1 Mg -2.19171 100.857 3.14947 1.2 1 0.0182295 0.0284272 0.00812321 0.0337932 0.0168583 0.0429363 0.0121163 0.0592205 0.0193142 0.0803836 0.0250575 0.0511949 0.0220467 0.0656372 0.0254326 0.109981 0.0276264 0.104491 0.0431944 0.0914641
120 3 O -0.883995 91.9238 3.06317 -1.2 1 0.0270999 0.015195 0.0216116 0.0188921 0.0241259 0.030076 0.0515073 0.0458513 0.0374008 0.0455747 0.0558949 0.0379411 0.0550599 0.0615908 0.0740856 0.076119 0.0597461 0.0698639 0.0608947 0.0672797
121 1 Mg -2.2071 98.071 4.80036 1.2 1 0.0237995 0.00949551 0.0210667 0.0298394 0.0213191 0.0340744 0.0313657 0.0282355 0.051165 0.0522675 0.0645034 0.0520583 0.064134 0.0633259 0.0657638 0.0855147 0.0659544 0.0907145 0.0512354 0.0808321
122 2 Si 0.568973 100.125 4.61455 2.4 1 0.0160452 0.0133031 0.0225573 0.0368936 0.0254307 0.0320852 0.0441096 0.0451592 0.0539695 0.0657415 0.0531641 0.0668234 0.0718832 0.0710418 0.0683471 0.0583044 0.0653969 0.088068 0.0588725 0.0723719
123 3 O -1.09887 100.107 4.74665 -1.2 1 0.0269343 0.0191559 0.0191239 0.0150438 0.0216993 0.0273584 0.0307578 0.0609026 0.0416108 0.0568998 0.0491485 0.0675378 0.0375483 0.0781725 0.0721557 0.0719132 0.0550245 0.0739192 0.0535234 0.0895847
124 3 O 1.5659 95.9937 4.58889 -1.2 1 0.0179787 0.0190186 0.0189044 0.0234645 0.0187814 0.0306202 0.0356225 0.0431505 0.0640699 0.0413953 0.0522239 0.0447441 0.0596599 0.0716695 0.0852112 0.0802061 0.0774991 0.059283 0.0607068 0.0543342
125 3 O 1.11488 99.3728 3.16632 -1.2 1 0.0190973 0.0137523 0.022666 0.0215718 0.0323384 0.0271939 0.0486566 0.0429978 0.0587858 0.0445022 0.0611899 0.0420537 0.0615294 0.0560371 0.0864263 0.0614235 0.0736224 0.0712262 0.0694918 0.0666386