ITEM: TIMESTEP
64900
ITEM: NUMBER OF ATOMS
5600
ITEM: BOX BOUNDS xy xz yz pp pp pp
0	7.1235	0
0	201.985	2.3745
0	119.584	0
ITEM: ATOMS id type element xu yu zu q Q_1 Q_2 Q_3 Q_4 Q_5 Q_6 Q_7 Q_8 Q_9 Q_10 Q_11 Q_12 Q_13 Q_14 Q_15 Q_16 Q_17 Q_18 Q_19 Q_20 Q_21
1 1 Mg -1.29114 48.6657 -0.215307 1.2 1 0.440118 0.0677683 0.124682 0.03823 0.0632204 0.0573819 0.0528178 0.0571836 0.0898489 0.0728696 0.0767775 0.0758229 0.0853266 0.0954589 0.0915628 0.0862136 0.0886275 0.0966405 0.0994861 0.107546
2 1 Mg 3.17412 50.1315 2.98386 1.2 1 0.298646 0.109193 0.0450293 0.0487084 0.0524525 0.0394675 0.0619628 0.0563912 0.0705935 0.0830179 0.0613655 0.0651722 0.069433 0.0748462 0.0833183 0.0808855 0.0847728 0.0768171 0.0877175 0.0646521
3 2 Si 1.09941 50.0487 0.933693 2.4 1 0.29662 0.128083 0.0462348 0.0547143 0.0349823 0.0354711 0.0515708 0.0552008 0.0670281 0.0871618 0.0695 0.067157 0.0645072 0.0687049 0.0855849 0.067554 0.0846963 0.0646749 0.0886707 0.0904284
4 3 O 2.35992 49.3697 1.39324 -1.2 1 0.368611 0.10887 0.075906 0.0653174 0.0359663 0.0545709 0.0403318 0.0659105 0.0616938 0.0763842 0.0700056 0.0557202 0.0834005 0.0828372 0.0960606 0.0881267 0.0802686 0.0665377 0.0758985 0.0730978
5 3 O -1.15187 52.6176 1.97422 -1.2 1 0.114553 0.0712198 0.0490624 0.023954 0.0218349 0.0261389 0.0349663 0.0498927 0.0605682 0.0651697 0.043538 0.0498564 0.0492922 0.0654542 0.0792174 0.0841067 0.0910104 0.0501854 0.0554292 0.0694285
6 3 O 0.633855 49.3439 -0.374072 -1.2 1 0.377947 0.0947576 0.0684598 0.0685465 0.0215845 0.0635414 0.0460117 0.0744108 0.0718657 0.0802607 0.0938854 0.0673398 0.085623 0.089348 0.0906711 0.0854336 0.0728246 0.0786989 0.0819213 0.089409
7 1 Mg -2.34609 58.335 3.31391 1.2 1 0.0168496 0.0188196 0.0120566 0.0281117 0.0140873 0.0376792 0.0186732 0.0627249 0.0341362 0.076546 0.0271402 0.0476767 0.0280821 0.0696936 0.0441032 0.097086 0.0549144 0.105905 0.0568482 0.0929909
8 3 O 0.107175 49.988 2.03912 -1.2 1 0.305216 0.130787 0.0544829 0.0438502 0.0397209 0.0398151 0.0683501 0.0640613 0.0688138 0.0898499 0.064692 0.0814035 0.0466246 0.0856983 0.0807194 0.0765426 0.0853516 0.075773 0.0762769 0.0938545
9 1 Mg -2.41778 55.4061 4.97106 1.2 1 0.0235613 0.0289073 0.0141706 0.0280375 0.0298075 0.0311162 0.0195254 0.0418228 0.0496626 0.0566465 0.064291 0.0548408 0.0468618 0.0667359 0.0626965 0.0521558 0.0717626 0.0913876 0.0710435 0.0729129
10 2 Si 0.37319 57.4814 4.83053 2.4 1 0.0176376 0.0207229 0.0244441 0.0285648 0.0334817 0.0352035 0.0452307 0.0454265 0.0623957 0.0709853 0.0475659 0.0670884 0.069739 0.0531411 0.0772108 0.0680115 0.0693277 0.0884595 0.0616073 0.0653573
11 3 O -1.29411 57.517 4.93946 -1.2 1 0.00841178 0.0354665 0.00756381 0.0219701 0.0305472 0.0234746 0.0280883 0.079978 0.0353922 0.0646711 0.0439059 0.0665583 0.0601626 0.0605771 0.0772006 0.0738918 0.0582197 0.0659915 0.0693312 0.0756052
12 3 O 1.42448 53.5952 4.88619 -1.2 1 0.0487272 0.0467278 0.0346639 0.0228775 0.018342 0.0324743 0.0349536 0.0375136 0.0556745 0.0528749 0.0645102 0.0478471 0.0704535 0.0630266 0.0780003 0.0848367 0.0780864 0.0508153 0.0760749 0.0562292
13 3 O 0.964292 56.6882 3.48416 -1.2 1 0.0172277 0.0226346 0.0111176 0.0193204 0.0220659 0.0337116 0.0440345 0.0494089 0.036662 0.0573491 0.0535005 0.0292735 0.0578603 0.0645537 0.0731376 0.0819051 0.0593414 0.0620316 0.0602941 0.0791924
14 3 O 0.984177 56.6634 5.99737 -1.2 1 0.0137479 0.0128919 0.0268588 0.0127558 0.0283491 0.0355417 0.0376947 0.0528651 0.0444694 0.055876 0.0576386 0.051044 0.058366 0.0716106 0.0841525 0.0752373 0.0744006 0.0697083 0.0767483 0.0736479
15 1 Mg 0.196017 53.0434 3.48971 1.2 1 0.085188 0.059852 0.0378442 0.0316029 0.0368144 0.0368054 0.0266196 0.062884 0.0372595 0.0598231 0.0587368 0.0478733 0.0439489 0.0588521 0.0549486 0.0660888 0.0728442 0.0995064 0.0635684 0.0817557
16 1 Mg 1.02261 49.0018 3.63797 1.2 1 0.390572 0.090657 0.0835101 0.0642139 0.0365712 0.0513959 0.0498663 0.0659632 0.070114 0.065235 0.0788652 0.0681427 0.0622302 0.0755944 0.0934948 0.0977116 0.0832799 0.0779361 0.0727686 0.0879164
17 2 Si 2.21674 52.1437 5.06654 2.4 1 0.107918 0.0887919 0.0472942 0.0310862 0.0172159 0.0363644 0.0322034 0.0589523 0.0667169 0.074638 0.0702503 0.07574 0.0711848 0.0601181 0.0688592 0.0815868 0.0811412 0.0888696 0.0764594 0.0755581
18 3 O -0.945401 52.1096 5.18797 -1.2 1 0.119127 0.100679 0.0396594 0.0261086 0.0168068 0.0317762 0.043231 0.0562209 0.0626973 0.0656514 0.0499711 0.0880569 0.0627087 0.0836549 0.0778094 0.0832727 0.0749862 0.0678461 0.0703968 0.0674595
19 3 O 2.70335 48.0674 3.67397 -1.2 1 0.486958 0.0428523 0.118603 0.0383825 0.0860647 0.0392028 0.0707505 0.0784923 0.0751407 0.0803672 0.0822068 0.0713542 0.0878021 0.0914975 0.0791574 0.100581 0.118531 0.113851 0.101637 0.0861452
20 3 O 1.70489 51.198 3.8428 -1.2 1 0.197485 0.0987046 0.0208376 0.0395371 0.024842 0.0496514 0.0369739 0.0679001 0.0613732 0.0578717 0.0729921 0.0584324 0.0806627 0.0692803 0.0948738 0.0772774 0.0731999 0.0766574 0.0783236 0.0791136
21 1 Mg 0.284416 53.1571 0.6648 1.2 1 0.0750824 0.0681031 0.0492373 0.0305414 0.015593 0.0295586 0.037604 0.0509951 0.0516839 0.0558579 0.0513605 0.0501266 0.0406485 0.0680422 0.0486332 0.0861545 0.0653317 0.0958169 0.067796 0.0714433
22 3 O 1.64522 51.5252 6.41786 -1.2 1 0.165641 0.0888753 0.0333774 0.0314869 0.0202775 0.0333119 0.0481378 0.0663291 0.0533 0.0645205 0.061086 0.0516234 0.0725116 0.0683108 0.0882337 0.0621332 0.0759094 0.07208 0.0775956 0.0764126
23 1 Mg 0.148242 56.0641 1.81178 1.2 1 0.0146437 0.00673004 0.0186106 0.0247915 0.0206012 0.0345753 0.0312861 0.0325917 0.0458795 0.057249 0.0672184 0.0461832 0.0604043 0.0600134 0.0656758 0.0848689 0.0486845 0.090272 0.0699879 0.0822706
24 2 Si -1.70612 54.1485 1.96778 2.4 1 0.0164872 0.0431605 0.0393279 0.030997 0.0260057 0.0407147 0.0389313 0.0458614 0.0672601 0.050818 0.0417527 0.0625319 0.0797317 0.048974 0.0671922 0.0526627 0.0638172 0.0753483 0.0779396 0.0604595
25 3 O 1.44612 54.0811 2.12213 -1.2 1 0.0319804 0.0398455 0.038005 0.0203355 0.0164999 0.0320562 0.0293865 0.0645018 0.0504457 0.0610178 0.0576954 0.0595049 0.0531301 0.0830015 0.0776435 0.0525381 0.0682815 0.0727232 0.0614626 0.0657815
26 3 O -1.05691 58.2242 1.82006 -1.2 1 0.0151819 0.0314362 0.0179718 0.0252694 0.0175474 0.0323719 0.0373901 0.0433773 0.0631551 0.0412216 0.0468163 0.0406417 0.0516923 0.0750831 0.0960206 0.0691569 0.0691799 0.0556139 0.0822972 0.0542096
27 3 O -1.12086 54.8126 0.676627 -1.2 1 0.0145082 0.0278762 0.0241148 0.0302657 0.023607 0.0245264 0.0539413 0.0519048 0.0367479 0.0460672 0.0611951 0.0491759 0.0585711 0.0547544 0.0963767 0.061666 0.0753482 0.0618314 0.0768821 0.069474
28 3 O -1.09788 54.8211 3.15553 -1.2 1 0.0174782 0.0214445 0.0319556 0.0308566 0.0243409 0.0306465 0.0608436 0.0431241 0.039876 0.0447446 0.0653329 0.0526823 0.0569615 0.0627843 0.0821449 0.0651896 0.0765304 0.0645208 0.0733698 0.0635487
29 1 Mg -2.47174 58.3411 0.314609 1.2 1 0.0206029 0.0156883 0.0128725 0.028454 0.0213806 0.0339701 0.018449 0.0591541 0.0321988 0.0665245 0.0469648 0.0510011 0.0370616 0.0645051 0.0421468 0.0868773 0.0692995 0.0968228 0.0692286 0.0684219
30 1 Mg 2.62593 61.6205 2.12031 1.2 1 0.0211603 0.0197013 0.0161676 0.0342806 0.0265506 0.0375852 0.027413 0.0423358 0.0524533 0.0507405 0.0563242 0.0428483 0.0556316 0.0669334 0.0642036 0.0596434 0.0781913 0.0884703 0.063836 0.0634521
31 2 Si -0.392481 59.7106 1.78092 2.4 1 0.0208672 0.0132396 0.0159719 0.0349918 0.0391712 0.0291581 0.0354821 0.0453308 0.0547388 0.0478331 0.0559042 0.0615763 0.0672376 0.0489895 0.0645162 0.0827437 0.0629161 0.0980899 0.0701336 0.0550159
32 3 O 1.15771 59.5743 1.92728 -1.2 1 0.0335639 0.0202227 0.0143205 0.0198324 0.0358175 0.0227549 0.024271 0.0736592 0.0394573 0.066843 0.0499117 0.0649226 0.0560644 0.0629279 0.0753904 0.0582913 0.0637245 0.0628714 0.0594946 0.0745221
33 3 O -1.25968 63.4736 1.80525 -1.2 1 0.012348 0.0279388 0.0243992 0.024812 0.0202804 0.0317626 0.0370977 0.0403259 0.0679263 0.0391269 0.0437308 0.0369538 0.0543948 0.0739045 0.0970334 0.0595707 0.0708764 0.0427912 0.073939 0.0563741
34 3 O -1.0824 60.3613 0.541631 -1.2 1 0.0115723 0.0174843 0.030243 0.0222548 0.0261031 0.018175 0.0523818 0.0439065 0.0326158 0.0497477 0.0576881 0.0403764 0.0532645 0.0441533 0.0882815 0.076381 0.0672957 0.0764357 0.0621325 0.0731679
35 1 Mg -2.19596 69.2867 3.3747 1.2 1 0.011317 0.0204802 0.0138566 0.0367373 0.0103089 0.0407817 0.0157198 0.0597354 0.02113 0.0729361 0.017136 0.0469447 0.022289 0.0681447 0.0271566 0.104137 0.0292912 0.11512 0.0369455 0.0839684
36 3 O -0.987201 60.3158 3.13747 -1.2 1 0.0207827 0.0262547 0.0317589 0.0192348 0.0195627 0.0200921 0.0453499 0.0437911 0.0382167 0.041641 0.0616584 0.0399064 0.0546923 0.0582961 0.0827238 0.0704106 0.0663134 0.0690142 0.0549883 0.0714845
37 1 Mg -2.14497 66.2822 4.91922 1.2 1 0.0361383 0.013963 0.0188968 0.0330264 0.015047 0.0315401 0.0261672 0.0376196 0.0478249 0.0561036 0.0666482 0.0585442 0.0576858 0.0628729 0.0699128 0.0799663 0.065833 0.0914996 0.0679427 0.0758234
38 2 Si 0.427686 68.1003 4.79088 2.4 1 0.0207722 0.0213793 0.0135236 0.0250239 0.0363279 0.0387162 0.0354002 0.0385562 0.058375 0.0617996 0.0595442 0.068383 0.0689076 0.0589503 0.0719562 0.074467 0.0589036 0.0875808 0.0621022 0.0661567
39 3 O -1.17358 68.1409 4.83189 -1.2 1 0.0213844 0.0258111 0.00977959 0.0243498 0.0339494 0.0243161 0.0213261 0.0723985 0.0346722 0.0718687 0.0349595 0.0657677 0.0568812 0.0703202 0.0741937 0.0659343 0.0595038 0.0620707 0.0702954 0.0700196
40 3 O 1.56054 64.2479 4.90064 -1.2 1 0.0164059 0.0111626 0.02308 0.0317407 0.0155705 0.0340878 0.0358666 0.038346 0.0512815 0.0422069 0.0609511 0.0369641 0.0577635 0.072653 0.0945258 0.0738544 0.0742414 0.0549807 0.0824806 0.060024
41 3 O 1.11194 67.5268 3.52186 -1.2 1 0.0102092 0.0126428 0.0273086 0.0241323 0.0284099 0.0220366 0.0576593 0.0493088 0.0428081 0.0448495 0.0642097 0.043004 0.05201 0.0695832 0.0812047 0.0806611 0.0637536 0.0610715 0.0668464 0.064521
42 3 O 1.19167 67.5359 6.12985 -1.2 1 0.012857 0.00904987 0.0252256 0.0203598 0.0261175 0.0254276 0.0507118 0.0425491 0.0378966 0.0452542 0.0563374 0.0471838 0.0539802 0.0631566 0.0776701 0.0730705 0.0708816 0.0610793 0.0584205 0.0755938
43 1 Mg 0.038925 63.867 3.24837 1.2 1 0.0252925 0.0128469 0.00658484 0.0268675 0.0109817 0.0417864 0.0140378 0.0642087 0.0235271 0.0780854 0.0271734 0.0526284 0.0244932 0.0662034 0.0233367 0.104304 0.0346316 0.110853 0.0304289 0.0888057
44 1 Mg 0.128001 60.852 4.68011 1.2 1 0.0133239 0.0147644 0.0213117 0.0338523 0.0163257 0.0342399 0.0207502 0.0373367 0.0477181 0.0543954 0.0629464 0.049043 0.0589181 0.0673354 0.0696164 0.0734712 0.0737344 0.0925005 0.0669352 0.0736124
45 2 Si 2.10812 62.6746 4.88687 2.4 1 0.025598 0.0113881 0.0179371 0.0155825 0.0404375 0.0414959 0.0369236 0.0481568 0.0560053 0.0456714 0.0490601 0.0705385 0.0707913 0.0660821 0.0709902 0.079067 0.065142 0.0897277 0.0586149 0.060717
46 3 O -1.11693 62.9098 4.75962 -1.2 1 0.0171236 0.0249269 0.0164298 0.0164817 0.0313635 0.0293351 0.0289704 0.0723771 0.0466737 0.0599124 0.0536809 0.0732624 0.0586266 0.0677397 0.0791992 0.0695383 0.0588095 0.0705453 0.0552484 0.0797965
47 3 O 0.901537 58.9184 4.83605 -1.2 1 0.021341 0.0207707 0.0226909 0.0187565 0.0162877 0.0349281 0.0319574 0.0410562 0.062788 0.0408931 0.0523927 0.0358995 0.0555839 0.0765384 0.0802277 0.0719924 0.0648064 0.0575797 0.0791451 0.061638
48 3 O 1.41429 62.124 3.52144 -1.2 1 0.014983 0.0182956 0.0312734 0.0237598 0.0264243 0.0232301 0.0483977 0.0419241 0.0364362 0.0416431 0.0576475 0.0411872 0.0551516 0.0689442 0.0844606 0.0744766 0.0743705 0.0601184 0.0605092 0.068822
49 1 Mg 0.0777701 63.6124 0.433542 1.2 1 0.00450303 0.0305725 0.0180274 0.0281104 0.0189963 0.0321573 0.0247443 0.0526638 0.0364637 0.0729842 0.0361246 0.056099 0.0271357 0.0640108 0.0384473 0.0941568 0.0561869 0.100353 0.0569304 0.0748102
50 3 O 1.47894 61.9141 6.07702 -1.2 1 0.0172804 0.0332211 0.0270397 0.0171212 0.0230684 0.0275336 0.0390472 0.0399391 0.0408178 0.050814 0.0639952 0.0379812 0.0629856 0.0552323 0.076006 0.086637 0.0668009 0.069578 0.0609695 0.0668507
51 1 Mg -0.0797883 66.7772 1.7906 1.2 1 0.0293176 0.00799371 0.0198524 0.0301137 0.0162944 0.0374038 0.0285985 0.0382738 0.0535948 0.0477334 0.0546079 0.0492787 0.0547123 0.0663841 0.068229 0.0697966 0.0694156 0.0985345 0.0678768 0.0824388
52 2 Si -1.90943 64.994 1.9362 2.4 1 0.0165365 0.0234322 0.0157291 0.0260773 0.0337392 0.0356534 0.0364923 0.0493253 0.064673 0.0513869 0.0517117 0.0696153 0.0696391 0.051215 0.067804 0.0737523 0.068414 0.0913916 0.0618639 0.05344
53 3 O 1.2853 64.8246 1.92236 -1.2 1 0.0189421 0.0247884 0.0159401 0.0156526 0.0246655 0.0263785 0.0262966 0.0780585 0.0453813 0.0563563 0.0428589 0.0718502 0.0561233 0.0593459 0.0796369 0.0692918 0.0649349 0.0712275 0.0554068 0.0678185
54 3 O -0.982033 68.761 1.95698 -1.2 1 0.00837138 0.0182387 0.0207237 0.0267197 0.0176589 0.0335205 0.044935 0.041605 0.0459363 0.0408679 0.0489103 0.0503388 0.0520032 0.0733866 0.101502 0.0763909 0.0793242 0.0531849 0.0690907 0.0584401
55 3 O -1.44116 65.6541 0.502281 -1.2 1 0.0114076 0.0151948 0.0274393 0.0232304 0.0311571 0.024068 0.0487936 0.0475283 0.0394252 0.0566311 0.0537047 0.0388931 0.0477882 0.0794432 0.0694942 0.0862809 0.0651065 0.0698508 0.0651209 0.0655645
56 3 O -1.17279 65.5337 3.22655 -1.2 1 0.0102254 0.0256815 0.0207975 0.022517 0.0241886 0.0238636 0.0485615 0.0468159 0.0458969 0.0407405 0.054307 0.0446779 0.051917 0.0550148 0.0966511 0.0719697 0.0767625 0.0608193 0.0517075 0.0722199
57 1 Mg -2.19604 69.0332 0.418608 1.2 1 0.0202077 0.0144587 0.0109428 0.0347775 0.012992 0.0342316 0.0145195 0.0544166 0.0309795 0.0789967 0.0298974 0.0453518 0.0199799 0.0694297 0.0278811 0.0998062 0.0462102 0.102766 0.0635033 0.0856544
58 1 Mg 2.53447 72.017 1.68602 1.2 1 0.0188433 0.0119571 0.0118048 0.0350746 0.0199181 0.0300796 0.0294704 0.0328504 0.0473577 0.0612415 0.0594781 0.0479838 0.06632 0.06732 0.0610278 0.093549 0.059939 0.102118 0.0632559 0.0765907
59 2 Si -0.227617 70.1869 2.05533 2.4 1 0.0147406 0.0211221 0.0159357 0.033857 0.0325392 0.0327727 0.0401817 0.0454524 0.0563259 0.0513371 0.0521257 0.0653104 0.0713398 0.0672191 0.0823831 0.0636778 0.0579258 0.0796277 0.0629884 0.049512
60 3 O 1.34965 70.0773 1.90227 -1.2 1 0.0162964 0.0280891 0.026909 0.0186171 0.0251604 0.0279364 0.0357342 0.0748072 0.0440767 0.0525 0.0394545 0.0771054 0.0467615 0.0782385 0.0816093 0.069961 0.0570192 0.0759464 0.0491806 0.0790893
61 3 O -1.32807 73.9929 1.85499 -1.2 1 0.0166942 0.0195517 0.0201269 0.0187195 0.0132617 0.033794 0.0292236 0.0438438 0.0559062 0.0483162 0.0445507 0.0452589 0.0582721 0.0685881 0.098079 0.0652427 0.0688796 0.0571125 0.0595086 0.0621114
62 3 O -0.812941 70.9211 0.652396 -1.2 1 0.0145062 0.0129941 0.0252137 0.0218777 0.0268526 0.0252134 0.051397 0.0432588 0.0325291 0.0497956 0.0520997 0.0417446 0.0601983 0.0765131 0.0838916 0.0652028 0.0769633 0.0597876 0.0747112 0.0608321
63 1 Mg -2.28381 79.5277 3.10026 1.2 1 0.032699 0.0238462 0.0196157 0.0250817 0.0131173 0.0278812 0.0250476 0.0491165 0.0451331 0.0613981 0.0367891 0.0387573 0.0411077 0.064458 0.044692 0.0938492 0.0694428 0.0861634 0.0752982 0.0707076
64 3 O -0.879759 71.0286 3.23421 -1.2 1 0.0194598 0.0191769 0.0250052 0.0242081 0.0253386 0.0219585 0.0510458 0.0511586 0.0412583 0.0440448 0.0660222 0.0443244 0.0531715 0.0513613 0.0828074 0.0749383 0.0673315 0.0741564 0.0590838 0.0797143
65 1 Mg -2.29586 76.7851 4.9505 1.2 1 0.0158302 0.0177235 0.0235689 0.0283867 0.0211045 0.0237007 0.0216179 0.0379536 0.0471425 0.0529774 0.0576741 0.0530051 0.0621024 0.0630278 0.0705328 0.0588048 0.0696019 0.105958 0.0641904 0.0731511
66 2 Si 0.520195 78.8157 4.89911 2.4 1 0.0271837 0.0207047 0.0284469 0.0304127 0.0294189 0.0244541 0.0338127 0.0424297 0.0536899 0.0533725 0.0509396 0.0598344 0.0631378 0.0600297 0.0752101 0.0731244 0.0586294 0.0937976 0.0604128 0.0507028
67 3 O -0.967894 78.9759 4.64512 -1.2 1 0.0335394 0.0243007 0.0253875 0.0222748 0.0295533 0.025317 0.0326143 0.0792018 0.0481646 0.0454767 0.0520466 0.0625123 0.0570387 0.0627443 0.0769743 0.0617604 0.063336 0.0593289 0.0554613 0.0789379
68 3 O 1.42104 75.0042 4.75173 -1.2 1 0.00798299 0.0220791 0.0196661 0.0191518 0.0147126 0.0369666 0.0397429 0.0424776 0.0495249 0.0414271 0.0495842 0.0475321 0.0422898 0.0668576 0.10133 0.0758748 0.0766351 0.0563122 0.0653935 0.06802
69 3 O 1.28279 77.9599 3.69665 -1.2 1 0.0207945 0.0188211 0.018735 0.0245796 0.031799 0.023967 0.0477086 0.0430222 0.0367081 0.047797 0.052406 0.045928 0.0585562 0.0587578 0.0842376 0.0738076 0.068837 0.0745034 0.0548205 0.0644588
70 3 O 1.42775 78.3095 6.1506 -1.2 1 0.0174337 0.0320701 0.020121 0.0324855 0.0291866 0.0233471 0.0501904 0.0320542 0.0445538 0.0437248 0.0592511 0.0401624 0.0562017 0.0435808 0.093645 0.0605818 0.0773763 0.0682045 0.0634874 0.0755947
71 1 Mg 0.203738 74.5258 3.14137 1.2 1 0.00865172 0.0106367 0.0114913 0.0317119 0.0134646 0.0297386 0.0192528 0.0593139 0.0199313 0.0760486 0.026181 0.054132 0.0234955 0.0773535 0.0320752 0.106382 0.0398603 0.100931 0.0399669 0.088121
72 1 Mg -0.0937072 71.8936 4.78327 1.2 1 0.0168955 0.0172229 0.0129239 0.0292045 0.0203568 0.0294542 0.0338704 0.0376393 0.0424296 0.0574757 0.0604788 0.053931 0.0573637 0.0716282 0.0637599 0.099597 0.0545285 0.0882557 0.0690575 0.0834977
73 2 Si 2.20936 73.5051 4.75861 2.4 1 0.0170294 0.00580833 0.01779 0.0274175 0.0330068 0.0363704 0.0405755 0.0381519 0.0502943 0.045581 0.0537125 0.0677805 0.0724632 0.0581981 0.0769651 0.0726893 0.0628187 0.099208 0.0626144 0.0586569
74 3 O -1.01241 73.6242 4.76654 -1.2 1 0.0201237 0.0207932 0.0270581 0.0187327 0.0249071 0.0291408 0.0292127 0.0691028 0.0397403 0.0515283 0.0494179 0.0717707 0.063143 0.0646231 0.0698798 0.0718168 0.0650214 0.0716961 0.0572035 0.0746304
75 3 O 0.951762 69.6568 4.70102 -1.2 1 0.0216204 0.0229516 0.0199828 0.0276525 0.0247409 0.0363429 0.034762 0.0430817 0.0661427 0.0386751 0.0516638 0.0399095 0.0620346 0.0776464 0.0903475 0.0753961 0.0686704 0.061108 0.0789919 0.0588538
76 3 O 1.55118 72.779 3.43871 -1.2 1 0.0157681 0.00978922 0.0257397 0.0180593 0.0206371 0.0154942 0.0437479 0.0440243 0.0369007 0.0444058 0.0549208 0.0375924 0.0563735 0.0545477 0.0742264 0.0799115 0.0748469 0.0725513 0.0601759 0.0775463
77 1 Mg 0.0516526 74.4802 0.385563 1.2 1 0.0121542 0.018691 0.0108865 0.0337259 0.0102369 0.038449 0.0153944 0.0614961 0.0163266 0.086366 0.0288852 0.0532295 0.0282412 0.0785031 0.0228984 0.105028 0.0374867 0.103594 0.0405698 0.0901902
78 3 O 1.61811 72.7856 6.1255 -1.2 1 0.0130917 0.0291585 0.0230628 0.0184047 0.020522 0.0234106 0.0383607 0.0454298 0.0373603 0.0449999 0.0604754 0.0380716 0.0586027 0.0637592 0.0743658 0.0747187 0.0640063 0.0780151 0.0651502 0.0712816
79 1 Mg 0.363339 77.3143 2.09494 1.2 1 0.012961 0.0154329 0.0222727 0.0303471 0.0189962 0.0327168 0.0283889 0.0282303 0.049055 0.0536463 0.0603811 0.050932 0.067204 0.0707985 0.060346 0.0889735 0.0672183 0.0869051 0.0662083 0.0661994
80 2 Si -1.94379 75.4967 1.67598 2.4 1 0.00853561 0.0232026 0.0157406 0.0284355 0.0289417 0.0353851 0.0401459 0.0384236 0.0523668 0.0638751 0.0595088 0.0583176 0.0752712 0.061998 0.0731948 0.0682155 0.0654359 0.0823084 0.0648245 0.0586036
81 3 O 1.21306 75.4288 1.84106 -1.2 1 0.0186245 0.0231387 0.0177043 0.0193974 0.0213561 0.0273194 0.0225896 0.0692604 0.0412116 0.0579061 0.0451179 0.0631937 0.0556079 0.0722149 0.0677761 0.0641171 0.0599283 0.0817224 0.0547551 0.0664708
82 3 O -0.919254 79.1336 1.86099 -1.2 1 0.0144932 0.0212833 0.0142337 0.022648 0.024835 0.0349309 0.034618 0.0455289 0.0404485 0.0518457 0.0419414 0.0531257 0.0472378 0.0626965 0.101992 0.0666015 0.0707944 0.0624068 0.0556158 0.0559692
83 3 O -1.12994 76.0934 0.417939 -1.2 1 0.0229926 0.0147949 0.0237478 0.0218948 0.02625 0.0218064 0.0454007 0.0495447 0.0444142 0.0452094 0.0593105 0.0447418 0.0507347 0.0542912 0.0912539 0.0707545 0.0647451 0.0597179 0.061454 0.0809168
84 3 O -1.21779 76.2435 2.91259 -1.2 1 0.0191193 0.0129352 0.0236701 0.0168752 0.0286662 0.0224034 0.0440702 0.0485548 0.0412647 0.0445354 0.05013 0.0443456 0.0462108 0.0648835 0.0846833 0.073756 0.065204 0.07233 0.0677532 0.06897
85 1 Mg -2.41774 80.0218 0.151666 1.2 1 0.0157099 0.00828301 0.0147781 0.0283213 0.0149984 0.0272577 0.0352271 0.0510646 0.048139 0.0667723 0.0330124 0.047173 0.0322357 0.0646778 0.0469048 0.0951329 0.0662424 0.102061 0.0601418 0.0828041
86 1 Mg 2.62384 82.8126 1.67765 1.2 1 0.0171979 0.0166738 0.0164695 0.036105 0.0220138 0.0343204 0.0287829 0.0360332 0.0471579 0.0521858 0.062536 0.0550313 0.0527243 0.0680738 0.058765 0.0697046 0.074298 0.0900725 0.0635115 0.0809085
87 2 Si -0.240262 80.7326 1.68925 2.4 1 0.01284 0.0180853 0.0283823 0.0216776 0.0345249 0.0269814 0.0400956 0.0431329 0.0517279 0.0459611 0.0502362 0.0542016 0.0663741 0.0574202 0.079372 0.0693955 0.0745644 0.0875777 0.0569831 0.0613883
88 3 O 1.24391 80.6044 1.66884 -1.2 1 0.0175609 0.0130123 0.0231774 0.0212837 0.0230364 0.0275016 0.0284141 0.0626827 0.0454819 0.0437474 0.0449092 0.0695135 0.0544059 0.0558848 0.0786388 0.0686738 0.0586291 0.0731854 0.0620432 0.070756
89 3 O -1.41425 84.741 1.63189 -1.2 1 0.0135592 0.0249677 0.0276147 0.0230213 0.0183121 0.0359911 0.0366842 0.0407781 0.0590126 0.0347465 0.0560895 0.036784 0.0609444 0.06993 0.0941051 0.0750366 0.0604497 0.0541031 0.0761021 0.0580045
90 3 O -1.04047 81.4024 0.406097 -1.2 1 0.0231832 0.00966731 0.0308716 0.028468 0.0332889 0.0249087 0.0456675 0.0454459 0.0389569 0.0443218 0.0495014 0.0399066 0.0643115 0.052968 0.0907745 0.0673533 0.074442 0.0619788 0.0574616 0.0620989
91 1 Mg -2.404 90.6751 3.60288 1.2 1 0.0218403 0.0224126 0.016875 0.0292058 0.0147782 0.0359203 0.0325594 0.0605874 0.0310611 0.0646867 0.0331893 0.0503709 0.0373431 0.0702252 0.0475829 0.0946393 0.0686178 0.0926101 0.0612298 0.0643875
92 3 O -0.860695 81.5014 2.84792 -1.2 1 0.0274663 0.0083101 0.0175464 0.025567 0.0248888 0.0228623 0.0511376 0.0438741 0.0398416 0.0443806 0.0630467 0.0467804 0.0543526 0.0636757 0.0847041 0.0761074 0.0901303 0.0543806 0.0624446 0.0634916
93 1 Mg -2.21794 87.6177 4.68065 1.2 1 0.0060211 0.0101225 0.0207407 0.027112 0.0219856 0.0261077 0.031851 0.0312285 0.0424149 0.0573088 0.0630348 0.0506474 0.0562047 0.0638075 0.0721854 0.0842499 0.0686604 0.0918158 0.0671926 0.0702641
94 2 Si 0.390597 89.5849 4.99881 2.4 1 0.02208 0.0191339 0.0214555 0.022336 0.0252843 0.0310407 0.0380907 0.0465626 0.0540702 0.0569825 0.050828 0.0604502 0.0640657 0.0618388 0.074555 0.0781627 0.0626145 0.0837305 0.0761674 0.0533058
95 3 O -1.20087 89.4525 4.95574 -1.2 1 0.00731805 0.0280431 0.0193483 0.0211261 0.0220458 0.0338274 0.0290327 0.0685212 0.0407299 0.0706046 0.0276751 0.0714738 0.0679869 0.0762759 0.0770347 0.0653759 0.0691301 0.0492324 0.0700523 0.063275
96 3 O 1.51149 85.5228 5.00679 -1.2 1 0.019376 0.02774 0.0242758 0.0201822 0.021244 0.0312936 0.0421863 0.0438871 0.0650895 0.0369811 0.0522478 0.0385144 0.0605072 0.0718983 0.0765598 0.077049 0.0734571 0.0667957 0.0628996 0.0579676
97 3 O 1.08195 89.0216 3.81903 -1.2 1 0.00997549 0.0196619 0.0171412 0.0182802 0.0344811 0.0230762 0.0522833 0.0476371 0.0376528 0.0442214 0.0545162 0.0458345 0.0456931 0.0651589 0.0968198 0.0718959 0.0853256 0.0539512 0.0737669 0.0558632
98 3 O 1.16191 88.8585 6.20836 -1.2 1 0.0138126 0.0195125 0.0168708 0.0221885 0.0265722 0.0270097 0.0460072 0.048486 0.040295 0.0410282 0.059288 0.0493853 0.063697 0.0492709 0.0848985 0.078922 0.0696016 0.061802 0.0555046 0.0764124
99 1 Mg -0.127129 85.0687 3.32354 1.2 1 0.016877 0.014329 0.0185252 0.0385839 0.0172136 0.0404686 0.0173957 0.0647434 0.0315618 0.0796271 0.026044 0.0544677 0.0350586 0.0726468 0.0336918 0.106404 0.0445246 0.0964658 0.0467249 0.0731546
100 1 Mg -0.0522918 82.1243 4.60649 1.2 1 0.0264218 0.0195283 0.0207304 0.0355983 0.0168961 0.0338316 0.0317712 0.0477596 0.0472555 0.0568759 0.052592 0.0613309 0.0612768 0.0669502 0.0743981 0.0697952 0.0801402 0.0704448 0.0847517 0.0609536
101 2 Si 2.0895 83.9149 4.81859 2.4 1 0.0161217 0.0109585 0.0204444 0.0240015 0.0353521 0.0387323 0.033436 0.0526509 0.0586221 0.0480479 0.0589126 0.0688846 0.0690127 0.0591237 0.0571931 0.0736784 0.0516965 0.0892177 0.0707866 0.0566156
102 3 O -1.05439 84.1636 4.72213 -1.2 1 0.0306943 0.0210087 0.0117093 0.0211938 0.0253811 0.0294523 0.0279978 0.0770944 0.0408762 0.0644501 0.0458394 0.0569639 0.0604105 0.0615496 0.0784621 0.0532761 0.0576764 0.0759047 0.0574484 0.0702148
103 3 O 1.09144 80.4105 4.72146 -1.2 1 0.0226674 0.0239623 0.0183717 0.0262592 0.0218192 0.032106 0.0360682 0.0482513 0.0619675 0.0461989 0.0408376 0.0475817 0.0580008 0.0678138 0.1092 0.0628901 0.0633904 0.055077 0.0710987 0.0670128
104 3 O 1.38866 83.4482 3.48756 -1.2 1 0.0134102 0.00757095 0.0253023 0.0249876 0.0290718 0.0203642 0.054596 0.045937 0.0373478 0.0466872 0.0578215 0.0350346 0.054486 0.0709811 0.0908354 0.0758901 0.0762765 0.0655946 0.0656162 0.0567381
105 1 Mg 0.240773 84.8147 0.229491 1.2 1 0.013738 0.0134052 0.0124068 0.0384524 0.019714 0.0339735 0.025627 0.0558127 0.0404858 0.0642234 0.042239 0.0449538 0.0389317 0.055483 0.051207 0.0898247 0.0728096 0.0910033 0.0612493 0.0745526
106 3 O 1.47261 83.2799 6.0992 -1.2 1 0.0280935 0.0259591 0.0331868 0.0137608 0.024787 0.0298166 0.0387873 0.0514948 0.0383245 0.0534308 0.0591694 0.0439456 0.0573935 0.0476696 0.0882542 0.0722593 0.0673797 0.0702939 0.0740125 0.0657087
107 1 Mg 0.102474 88.2677 2.13199 1.2 1 0.0104815 0.0171331 0.0186778 0.0316526 0.0226958 0.0322701 0.0266055 0.0433358 0.0420292 0.0592626 0.0575696 0.0537442 0.0588997 0.0616005 0.0769345 0.0778398 0.0760181 0.0750617 0.0792567 0.066091
108 2 Si -2.01892 86.2687 1.66539 2.4 1 0.0133046 0.0156577 0.0152547 0.0325946 0.0352435 0.041379 0.0356001 0.0474564 0.0540885 0.0465399 0.0550576 0.0657632 0.0643116 0.0614551 0.0644146 0.0827692 0.0653969 0.0901907 0.0603174 0.0519831
109 3 O 1.07695 86.3783 1.81692 -1.2 1 0.0146528 0.0160198 0.0137999 0.0145229 0.0299287 0.0350189 0.0210508 0.0717474 0.040248 0.0764008 0.0296759 0.0584478 0.0648811 0.0785594 0.0701119 0.0691565 0.072297 0.059112 0.0646091 0.0643414
110 3 O -1.07875 90.0349 2.07117 -1.2 1 0.0204219 0.0129124 0.0106015 0.0245031 0.0149339 0.0315278 0.0344258 0.0416309 0.0479041 0.0470161 0.0540971 0.0382357 0.0530535 0.073833 0.0916742 0.0826379 0.0722301 0.0596636 0.0692128 0.0626033
111 3 O -1.38196 87.0668 0.485607 -1.2 1 0.0150836 0.0161405 0.0291603 0.0279327 0.0276542 0.0252738 0.0429438 0.0524108 0.042588 0.0569095 0.0637849 0.0428508 0.0605767 0.062342 0.0842743 0.0795852 0.0613096 0.0655598 0.0644376 0.0586093
112 3 O -1.38444 86.8425 3.02987 -1.2 1 0.0169626 0.0187523 0.0244655 0.0248813 0.029496 0.0283726 0.0542182 0.0429081 0.0391103 0.0443891 0.0475439 0.04233 0.0528711 0.0708724 0.0762394 0.0801135 0.0742469 0.0668326 0.0601713 0.0719487
113 1 Mg -2.51276 90.5546 0.490281 1.2 1 0.00695364 0.0136625 0.0152066 0.0308386 0.0165352 0.0435328 0.0169501 0.0604354 0.0206489 0.0779236 0.0263915 0.0523889 0.0346166 0.0675645 0.0359641 0.0972976 0.053039 0.101128 0.0533038 0.0808442
114 1 Mg 1.80209 93.4622 1.50964 1.2 1 0.0221496 0.0134238 0.0261307 0.0323168 0.0244545 0.0242416 0.0279936 0.0409325 0.0473624 0.053884 0.0599847 0.0534221 0.0566506 0.0610601 0.072308 0.0683944 0.0860569 0.0756974 0.0857144 0.0496289
115 2 Si -0.462987 91.594 1.98857 2.4 1 0.0107972 0.0274307 0.0218014 0.0350275 0.0379668 0.0332859 0.0417928 0.0412134 0.0552151 0.0527365 0.056144 0.0609677 0.070527 0.0635371 0.082979 0.0701443 0.0603416 0.0768097 0.0607114 0.049829
116 3 O 1.1124 91.4578 1.98224 -1.2 1 0.020001 0.0374165 0.0163455 0.0250864 0.0244131 0.033788 0.0288454 0.0632813 0.0407588 0.0573263 0.0436948 0.0773884 0.0579657 0.0747779 0.0765662 0.0617009 0.0608012 0.0773405 0.059328 0.0628768
117 3 O -1.73382 95.2929 1.71321 -1.2 1 0.0221787 0.0288249 0.0265683 0.0247784 0.0169127 0.0343943 0.033873 0.0469733 0.0493812 0.0410158 0.0482504 0.0399579 0.0596111 0.0719881 0.0971251 0.0714629 0.0698261 0.0531047 0.0651077 0.0678487
118 3 O -1.07377 92.1244 0.580713 -1.2 1 0.0125116 0.0217313 0.0259861 0.0206659 0.0262337 0.0254371 0.0434471 0.0432883 0.0389001 0.0562295 0.0455758 0.0420889 0.051359 0.0694792 0.0755795 0.0667104 0.0817123 0.0660004 0.0710211 0.0593042
119 1 Mg -2.45289 101.162 2.99582 1.2 1 0.00650488 0.0115729 0.0106435 0.0343751 0.0136558 0.0354188 0.0154243 0.0586846 0.0216356 0.0756 0.0257328 0.0443718 0.0223253 0.0669837 0.0366731 0.103926 0.0417172 0.11096 0.0525943 0.0905826
120 3 O -1.04985 92.2819 3.21751 -1.2 1 0.0212031 0.0266437 0.0256367 0.0260142 0.0207021 0.0258072 0.0444901 0.0470399 0.0498596 0.0471916 0.0562062 0.0455079 0.0526586 0.0593836 0.0784654 0.0817714 0.0861485 0.0577633 0.0626458 0.0762015
121 1 Mg -2.29917 98.3452 4.79106 1.2 1 0.0295753 0.0090133 0.0223254 0.0281738 0.0222225 0.029795 0.0299021 0.0377868 0.0395605 0.0558024 0.0630666 0.0490512 0.0707822 0.0622268 0.0672734 0.0823219 0.0710301 0.0959862 0.0666749 0.0678436
122 2 Si 0.245129 100.143 4.30581 2.4 1 0.021002 0.018958 0.0156027 0.0421381 0.0315117 0.0278753 0.039659 0.0438308 0.0530547 0.0661668 0.0639342 0.0647012 0.0745796 0.0623623 0.0816113 0.0696772 0.0646446 0.0793552 0.0627712 0.0607832
123 3 O -1.25493 100.226 4.35137 -1.2 1 0.0222164 0.0186973 0.0135037 0.0236143 0.0221295 0.0261615 0.022698 0.0735421 0.0460392 0.0531354 0.042535 0.0683769 0.054679 0.0717112 0.0649454 0.0638276 0.0665932 0.0758781 0.0615442 0.0750834
124 3 O 1.57872 96.3074 4.89638 -1.2 1 0.0209889 0.0173015 0.0179524 0.0269924 0.0209267 0.0329877 0.0355666 0.0393277 0.0583349 0.0466805 0.0465852 0.0382868 0.063826 0.0689988 0.0897719 0.0796127 0.0740412 0.0524882 0.0708498 0.0497304
125 3 O 0.940687 99.409 3.15725 -1.2 1 0.0160292 0.0186443 0.0275744 0.0256799 0.0225846 0.0195538 0.0514908 0.0482291 0.0388737 0.0497287 0.0526429 0.0423556 0.0565518 0.0638174 0.0850044 0.0748767 0.0718345 0.0622994 0.0751148 0.0688824