ITEM: TIMESTEP
48100
ITEM: NUMBER OF ATOMS
5600
ITEM: BOX BOUNDS xy xz yz pp pp pp
0	7.1235	0
0	201.985	2.3745
0	119.584	0
ITEM: ATOMS id type element xu yu zu q Q_1 Q_2 Q_3 Q_4 Q_5 Q_6 Q_7 Q_8 Q_9 Q_10 Q_11 Q_12 Q_13 Q_14 Q_15 Q_16 Q_17 Q_18 Q_19 Q_20 Q_21
1 1 Mg -1.94274 49.275 -0.841807 1.2 1 0.413444 0.100319 0.122441 0.0428137 0.0613625 0.0452336 0.0402101 0.0587167 0.0792972 0.0580337 0.0872307 0.0924812 0.0879862 0.0899544 0.116913 0.074927 0.0981652 0.113348 0.10981 0.0828359
2 1 Mg 2.70518 50.5212 2.42184 1.2 1 0.286841 0.136038 0.0444867 0.0597687 0.043757 0.0503365 0.0718789 0.0545839 0.0579207 0.0742491 0.0680544 0.067376 0.0829724 0.063648 0.0954164 0.0816 0.0910905 0.0837871 0.0896472 0.0901512
3 2 Si 0.541711 50.6719 0.493321 2.4 1 0.268537 0.137331 0.033185 0.0714061 0.0415603 0.0422428 0.0475875 0.0423434 0.0667996 0.0646097 0.0749759 0.0692425 0.064124 0.0846646 0.101975 0.0873453 0.0868995 0.0673248 0.0758356 0.0879707
4 3 O 1.84499 49.7749 0.711975 -1.2 1 0.366958 0.107905 0.0782191 0.071139 0.0283257 0.0526087 0.0468055 0.056964 0.0524598 0.0701411 0.0591658 0.0762625 0.0766325 0.0843593 0.080492 0.0927919 0.0870103 0.0746125 0.07913 0.074114
5 3 O -1.46591 53.4414 1.93791 -1.2 1 0.0994604 0.0506311 0.0532017 0.0263511 0.0269131 0.0335176 0.0447979 0.0406838 0.0579242 0.0543687 0.0610122 0.0497245 0.0675986 0.0691874 0.0810988 0.0755424 0.0724738 0.0643922 0.0574286 0.080639
6 3 O -0.148789 50.0581 -0.753426 -1.2 1 0.326439 0.14483 0.0554038 0.0832876 0.0247382 0.067952 0.0323006 0.0674847 0.0717969 0.0673156 0.0661711 0.100122 0.0930665 0.0939233 0.07477 0.0879532 0.0658583 0.0843223 0.0891137 0.0926746
7 1 Mg -2.45197 59.3064 3.19036 1.2 1 0.011845 0.0151476 0.00690606 0.0346414 0.0138069 0.0347451 0.0142578 0.0613944 0.0260269 0.0750822 0.0236221 0.0487081 0.0256001 0.0705857 0.0394849 0.0938259 0.0472874 0.0978218 0.0551519 0.0921598
8 3 O -0.316638 50.6475 1.79916 -1.2 1 0.283008 0.141785 0.0524129 0.0471072 0.0419369 0.0385972 0.0685525 0.0613362 0.0732817 0.0762052 0.067975 0.0728462 0.0673461 0.0755878 0.0856573 0.0696496 0.0780684 0.0829773 0.0819274 0.0989412
9 1 Mg -2.42158 56.2357 4.75794 1.2 1 0.026064 0.0127103 0.0216267 0.0308839 0.0155634 0.0319898 0.0223661 0.0350503 0.0476536 0.0591394 0.0641906 0.053137 0.0525421 0.0699186 0.0626196 0.0702488 0.0741616 0.0841267 0.0689265 0.0836485
10 2 Si 0.299308 58.2421 4.62442 2.4 1 0.00688208 0.0304888 0.0255944 0.0240785 0.0418303 0.0411551 0.0368239 0.0451077 0.0537334 0.0498176 0.0557043 0.0617916 0.0680084 0.0614189 0.0844444 0.0642235 0.0654607 0.0822423 0.066722 0.0661575
11 3 O -1.28229 58.4613 4.66613 -1.2 1 0.0326342 0.0245694 0.0162289 0.0278686 0.0241414 0.0238452 0.0281704 0.0675715 0.0508487 0.0394125 0.0417997 0.0773874 0.0518423 0.0681267 0.0727519 0.06683 0.0591544 0.0770667 0.0591061 0.0805198
12 3 O 1.48865 53.8883 5.06635 -1.2 1 0.0623603 0.043277 0.0418451 0.0352827 0.0295436 0.0407276 0.0378222 0.0387122 0.0678309 0.0568452 0.0636813 0.043487 0.0676612 0.0772452 0.0837156 0.068962 0.0721156 0.0749962 0.0528479 0.0531488
13 3 O 0.884281 57.6 3.38842 -1.2 1 0.0137358 0.00767954 0.0313675 0.0159107 0.0225379 0.0198098 0.0414912 0.0482208 0.0408201 0.0607159 0.0582457 0.0451893 0.0585225 0.0574815 0.0931734 0.0764481 0.0723734 0.070184 0.0539651 0.0769513
14 3 O 0.92427 57.6024 5.98466 -1.2 1 0.0217963 0.0311685 0.0229067 0.0202294 0.0227563 0.0268403 0.0566492 0.0314057 0.0405129 0.0382817 0.048438 0.0554799 0.0548607 0.0708264 0.0740486 0.0642253 0.0960958 0.055855 0.0736906 0.0625802
15 1 Mg -0.0377817 52.9732 3.25789 1.2 1 0.121397 0.0752597 0.0375896 0.0258462 0.0269322 0.0319428 0.0423376 0.0425502 0.0645943 0.0483787 0.0565017 0.0545567 0.0638818 0.0580634 0.0714891 0.0754798 0.0718601 0.0791486 0.0680023 0.0813863
16 1 Mg 0.475738 49.2 3.13095 1.2 1 0.441655 0.0572922 0.111798 0.0503793 0.0496001 0.059462 0.0632969 0.0601262 0.0878414 0.0877161 0.0734094 0.0629458 0.0621894 0.077667 0.0804334 0.0950248 0.0870094 0.0815212 0.0865065 0.102321
17 2 Si 2.19262 52.5067 4.95329 2.4 1 0.109058 0.107246 0.0420996 0.034333 0.0275907 0.045573 0.0353078 0.0398256 0.0733601 0.0671617 0.0800703 0.0650672 0.0727182 0.0731391 0.068377 0.0900062 0.0816316 0.0905224 0.0705197 0.0777088
18 3 O -0.924459 52.6 4.95494 -1.2 1 0.11795 0.104449 0.030248 0.0220723 0.0183742 0.0484694 0.0264669 0.0574619 0.06066 0.0859267 0.0561356 0.0834007 0.0729254 0.0691448 0.0854617 0.0714946 0.0828492 0.068554 0.075044 0.0634777
19 3 O 2.39062 48.7046 3.49227 -1.2 1 0.475198 0.0463192 0.131557 0.0452477 0.0956282 0.0335225 0.0790333 0.0812508 0.0917623 0.0682866 0.0880077 0.0823214 0.0792328 0.0994872 0.0948403 0.0987632 0.100779 0.119181 0.10258 0.0701652
20 3 O 1.64972 51.8548 3.66613 -1.2 1 0.187441 0.102636 0.0223474 0.0277924 0.0261969 0.0610085 0.0287977 0.0680534 0.0541393 0.0637319 0.0643768 0.0728344 0.0695447 0.0740701 0.0860566 0.0841788 0.086771 0.0735293 0.0765008 0.074764
21 1 Mg -0.35001 54.066 0.320726 1.2 1 0.060996 0.0391583 0.0558627 0.0278754 0.0244112 0.0175027 0.0312734 0.0535159 0.0527543 0.0557472 0.0499648 0.0506912 0.0520861 0.0673404 0.0707375 0.0800782 0.0876512 0.0788459 0.0648217 0.0672879
22 3 O 1.68319 51.5034 6.14336 -1.2 1 0.209396 0.110744 0.0214347 0.0404746 0.0383197 0.0453232 0.0446389 0.0626892 0.0573029 0.0520529 0.0710871 0.0776271 0.0705043 0.0895439 0.0782533 0.0560826 0.0770275 0.0707124 0.0762745 0.0656211
23 1 Mg 0.035408 56.6661 1.76416 1.2 1 0.0278523 0.0186032 0.017393 0.0213741 0.0199479 0.030113 0.0305772 0.0276377 0.0403999 0.0511317 0.0625081 0.0517732 0.059756 0.0624408 0.0760981 0.0874382 0.057506 0.0777212 0.0671922 0.0737295
24 2 Si -2.10433 54.8624 2.09417 2.4 1 0.0149769 0.0219532 0.0284309 0.0310557 0.0146625 0.0459616 0.0399701 0.0600932 0.049424 0.0516655 0.0519992 0.0636465 0.0715142 0.0482819 0.0595446 0.0677532 0.0760571 0.0662414 0.0675773 0.0648765
25 3 O 1.02136 54.801 2.19504 -1.2 1 0.0170803 0.0277932 0.0385804 0.0233414 0.0167359 0.0357395 0.0291837 0.0611966 0.0468209 0.0579514 0.0302788 0.0672126 0.0475286 0.0836785 0.0677646 0.0646259 0.0815514 0.0595945 0.0638122 0.0557523
26 3 O -1.09229 58.727 1.76434 -1.2 1 0.0131793 0.0170399 0.0277827 0.0195514 0.0229043 0.0330945 0.0362962 0.048029 0.0536835 0.0455636 0.0570103 0.0455254 0.0486303 0.0755486 0.0978628 0.0666174 0.0772761 0.0565827 0.077278 0.0652168
27 3 O -1.53516 55.5733 0.790992 -1.2 1 0.0117577 0.0129716 0.0304206 0.0275356 0.0235276 0.0371953 0.0547645 0.0418857 0.0331718 0.0463335 0.0642707 0.0443239 0.059948 0.0712688 0.0674451 0.0728468 0.0654679 0.0753217 0.0714099 0.0695782
28 3 O -1.39933 55.5398 3.32894 -1.2 1 0.0083952 0.0300808 0.0270579 0.0277984 0.0203353 0.0292473 0.0387611 0.046516 0.0482096 0.0431976 0.0609152 0.0445556 0.0495202 0.0566321 0.0937445 0.0602437 0.0680262 0.0738953 0.0648555 0.0783867
29 1 Mg -2.41068 59.2144 0.26939 1.2 1 0.0285795 0.0225913 0.0175468 0.0324788 0.0139577 0.034724 0.0156617 0.0588426 0.017651 0.0844078 0.0219542 0.049085 0.0246741 0.0744539 0.0343793 0.101527 0.0349527 0.108992 0.0367622 0.0864147
30 1 Mg 2.23698 62.0447 1.65007 1.2 1 0.0206367 0.0126498 0.0175655 0.035361 0.0165888 0.0291376 0.0240648 0.0392554 0.0454199 0.0618652 0.0683924 0.0492378 0.0630024 0.0659723 0.0671039 0.0858122 0.0656797 0.0892831 0.0628865 0.0935826
31 2 Si -0.342347 60.1605 1.85363 2.4 1 0.00947159 0.0180671 0.0197917 0.0332457 0.0331532 0.0306787 0.0402288 0.0424626 0.0532064 0.0597482 0.0556168 0.0666266 0.0705483 0.0651503 0.0825288 0.0662726 0.0649018 0.0840966 0.0556108 0.0615802
32 3 O 1.18329 60.1498 1.68642 -1.2 1 0.023792 0.0181285 0.0265148 0.0206046 0.0340756 0.0326067 0.0290345 0.0638889 0.042218 0.0608976 0.0457806 0.0688598 0.051313 0.0752455 0.0689473 0.0696342 0.0630738 0.0766944 0.0669793 0.0764687
33 3 O -1.48334 63.906 1.81291 -1.2 1 0.00975944 0.0156573 0.0171532 0.026607 0.0210284 0.0372947 0.0322967 0.0428565 0.0557537 0.0517512 0.0435494 0.0535915 0.054336 0.0685776 0.0972421 0.0666606 0.0718002 0.0577692 0.0691487 0.0638791
34 3 O -0.99761 60.9003 0.575639 -1.2 1 0.0166267 0.00685836 0.0237559 0.0291636 0.033336 0.0197653 0.045013 0.0409664 0.037454 0.0507985 0.0570601 0.0495599 0.0542886 0.0681001 0.0728045 0.0751057 0.0797193 0.0560577 0.0689798 0.077003
35 1 Mg -2.12354 70.0384 3.46287 1.2 1 0.0222685 0.00853271 0.0169503 0.0169704 0.0231647 0.0331379 0.0181132 0.0570656 0.0432837 0.0708419 0.0399897 0.0415875 0.0401315 0.0639119 0.0462714 0.0818115 0.0752901 0.0999259 0.0736725 0.0682441
36 3 O -1.1122 60.8437 3.07031 -1.2 1 0.00787215 0.0160343 0.0243232 0.0238863 0.0268159 0.0228194 0.0396947 0.0532909 0.0437616 0.0431135 0.057781 0.0445439 0.0521472 0.0622343 0.0945242 0.0689332 0.0793892 0.0599073 0.063278 0.0701264
37 1 Mg -2.57309 66.7815 4.76566 1.2 1 0.019594 0.0100373 0.0161561 0.0284487 0.0153632 0.0242086 0.0251254 0.0338063 0.0487792 0.0545029 0.0600452 0.0594594 0.0566086 0.0702681 0.070411 0.0567862 0.0732767 0.104627 0.0596172 0.0861753
38 2 Si 0.32267 68.7399 4.75967 2.4 1 0.00734751 0.0122045 0.028047 0.021431 0.0369936 0.0299657 0.0351142 0.0532047 0.0512985 0.0493952 0.0440122 0.0629234 0.0705049 0.0486379 0.0623399 0.0758564 0.0613398 0.0946695 0.0607672 0.0572096
39 3 O -1.24658 68.8644 4.69757 -1.2 1 0.0156035 0.0210469 0.0178231 0.0231911 0.0188016 0.0261592 0.0247606 0.0707014 0.0381356 0.0537647 0.0439501 0.0751056 0.058294 0.067345 0.0677858 0.0647145 0.0676246 0.0681052 0.0585753 0.0764286
40 3 O 1.40931 64.7802 4.87095 -1.2 1 0.0188653 0.0186134 0.0145979 0.0270256 0.0236719 0.034643 0.0342372 0.0418113 0.0679866 0.0364368 0.0523007 0.0457465 0.0586396 0.073896 0.0886175 0.0751331 0.0700747 0.0596288 0.069441 0.0615162
41 3 O 0.955251 67.8899 3.59264 -1.2 1 0.010163 0.0138968 0.023725 0.0192981 0.0247714 0.0201982 0.0397207 0.0371752 0.0267636 0.0546628 0.0561141 0.0375548 0.0609357 0.0514197 0.0752632 0.0736552 0.0678684 0.0764468 0.0627486 0.0561952
42 3 O 0.889014 68.2179 6.0139 -1.2 1 0.0216782 0.0105991 0.0275525 0.0283835 0.0266059 0.0225066 0.0464039 0.0434165 0.0350362 0.0465423 0.0523573 0.045029 0.0486304 0.0678166 0.0791526 0.0769064 0.0801694 0.0568614 0.0686192 0.064595
43 1 Mg -0.0419955 64.3823 3.24953 1.2 1 0.00686904 0.011649 0.0110197 0.0367717 0.0140827 0.0353306 0.0149134 0.0609181 0.0231531 0.079207 0.0149738 0.0504437 0.0191136 0.0704351 0.0261508 0.100817 0.0369068 0.105283 0.0422552 0.0925804
44 1 Mg -0.230367 61.4446 4.88005 1.2 1 0.0169586 0.0144259 0.0194621 0.0301931 0.0157737 0.0278027 0.0256443 0.0422338 0.0439297 0.0574091 0.0604142 0.0623692 0.0536282 0.0584311 0.0658631 0.0676972 0.0780439 0.0840313 0.0735617 0.0610468
45 2 Si 2.00987 63.3389 4.74621 2.4 1 0.0140478 0.0202452 0.0107923 0.0266087 0.0390628 0.0358668 0.0426889 0.0428585 0.058664 0.0606004 0.0546585 0.0702377 0.067645 0.0504602 0.0721983 0.0761878 0.0633759 0.085157 0.0572893 0.0641234
46 3 O -1.05302 63.4546 4.75038 -1.2 1 0.0114029 0.0194088 0.0233208 0.0276115 0.0198272 0.0241408 0.0245175 0.0756871 0.0329752 0.0721456 0.0335261 0.068563 0.0583619 0.0696614 0.0777758 0.0580025 0.0622091 0.0679929 0.06387 0.0730652
47 3 O 1.03583 59.6893 4.7327 -1.2 1 0.00296413 0.0189509 0.0184147 0.0197017 0.0166512 0.0404778 0.0410715 0.0478261 0.0510821 0.0421175 0.0535887 0.0473156 0.0518519 0.0679798 0.099078 0.0677069 0.0783671 0.0539526 0.0661726 0.0626243
48 3 O 1.40277 62.9117 3.37806 -1.2 1 0.0182112 0.00446342 0.0291207 0.0214763 0.0284047 0.0212494 0.0428391 0.0420681 0.0521281 0.0497838 0.0389812 0.0438428 0.0570711 0.0633098 0.0744815 0.07345 0.0744441 0.0681417 0.0663024 0.0779772
49 1 Mg -0.0776719 64.482 0.46038 1.2 1 0.00852496 0.0128983 0.0102382 0.0385632 0.00766717 0.040107 0.0139889 0.0618585 0.0199201 0.0739393 0.0195352 0.0498091 0.0210385 0.079174 0.0198508 0.104358 0.029241 0.10811 0.042493 0.0896429
50 3 O 1.34562 62.5044 5.92578 -1.2 1 0.0186004 0.0181242 0.0234966 0.0237173 0.0208841 0.0300985 0.0323885 0.0384695 0.0397463 0.0491438 0.0603051 0.0382428 0.0552402 0.0510555 0.0784601 0.0799725 0.0602078 0.0699829 0.067804 0.0625719
51 1 Mg 0.0510167 67.5192 1.78611 1.2 1 0.0162721 0.0122715 0.0214634 0.0326891 0.0198674 0.0248463 0.0203517 0.0280311 0.0435341 0.0579554 0.0557018 0.0645348 0.0513784 0.0553111 0.0672897 0.070585 0.0786333 0.0893131 0.0722255 0.0723705
52 2 Si -2.06678 65.4425 1.87682 2.4 1 0.0067832 0.0113775 0.0212386 0.0407928 0.0322638 0.0322215 0.0394768 0.0447265 0.0565492 0.0567577 0.0542898 0.0629293 0.0752597 0.0590693 0.0741111 0.0660494 0.0627525 0.0881483 0.0584511 0.0624072
53 3 O 1.10039 65.4972 1.71807 -1.2 1 0.0199915 0.0126299 0.0112417 0.0229527 0.0319686 0.0292366 0.0276405 0.0665088 0.0483978 0.0639234 0.040762 0.0635653 0.0518507 0.0704427 0.0698276 0.0567107 0.0554777 0.0668922 0.0605984 0.0779199
54 3 O -0.948442 69.4845 1.92671 -1.2 1 0.0208298 0.0153448 0.0162341 0.0211868 0.0172921 0.0253938 0.0353312 0.0455582 0.0613637 0.0394267 0.0607536 0.0383573 0.057362 0.0742503 0.0941258 0.070515 0.0755283 0.0538318 0.075618 0.0568867
55 3 O -1.47102 66.2235 0.730025 -1.2 1 0.0156719 0.00950512 0.0267881 0.0209214 0.0314964 0.0179617 0.0430966 0.0478346 0.0405654 0.0437301 0.0523753 0.0361081 0.0541732 0.0579648 0.0768634 0.0757423 0.0754764 0.0691169 0.0669698 0.0598841
56 3 O -1.30567 66.1298 3.09085 -1.2 1 0.0129984 0.0110817 0.0320669 0.0237868 0.0259506 0.0278174 0.0442115 0.045536 0.0412711 0.0400198 0.0533886 0.0451165 0.0623549 0.0519491 0.100762 0.0684147 0.0765042 0.0626383 0.0614683 0.0607159
57 1 Mg -2.49597 69.9467 0.410227 1.2 1 0.0123328 0.0156919 0.0099204 0.0384872 0.00825873 0.0373489 0.018777 0.0545732 0.0221248 0.0810221 0.0152166 0.0495124 0.02385 0.070517 0.0302817 0.106349 0.032885 0.101182 0.042447 0.0819755
58 1 Mg 2.23147 72.7633 1.87033 1.2 1 0.0280032 0.0189081 0.0189243 0.0256717 0.0192986 0.0251634 0.0244888 0.0314021 0.0397716 0.0584479 0.0635811 0.0601311 0.0604077 0.062005 0.0649918 0.0744217 0.0740207 0.0944876 0.078789 0.0665194
59 2 Si -0.262061 70.9696 1.91705 2.4 1 0.0233809 0.0141535 0.020368 0.0341512 0.0308522 0.0253578 0.0455345 0.0443016 0.0478174 0.0589512 0.0543053 0.0685555 0.0704848 0.0642004 0.0766794 0.0822564 0.0644848 0.0772641 0.0625453 0.0587779
60 3 O 1.22169 70.7971 2.02132 -1.2 1 0.0125684 0.0182996 0.0178312 0.019777 0.0270251 0.0236986 0.0252005 0.0707617 0.0371741 0.0548896 0.0378547 0.0681047 0.0625111 0.063284 0.076498 0.0617357 0.0621646 0.0765134 0.067469 0.0641311
61 3 O -1.37416 74.4541 1.79512 -1.2 1 0.0104521 0.0198458 0.0210478 0.0140883 0.0246786 0.0354618 0.0343964 0.0452231 0.043841 0.0512059 0.0442154 0.0539046 0.0518943 0.0666303 0.0984765 0.0720048 0.0722805 0.0639338 0.0669408 0.0569551
62 3 O -0.948515 71.6235 0.679854 -1.2 1 0.0202089 0.0163286 0.0232252 0.0193257 0.0266633 0.0212135 0.0438901 0.0399954 0.0390666 0.053762 0.0554866 0.0400092 0.0531687 0.0758067 0.079539 0.0796318 0.0698104 0.066216 0.0663764 0.0632857
63 1 Mg -2.40207 80.3035 3.07102 1.2 1 0.00896486 0.0145613 0.0104075 0.0280331 0.00983357 0.0324423 0.0177631 0.0570194 0.0167092 0.0821063 0.0232737 0.0467438 0.0210244 0.0703263 0.0260347 0.0998691 0.0290382 0.113596 0.0305827 0.0921476
64 3 O -0.984762 71.645 3.11909 -1.2 1 0.0169119 0.0135498 0.0189767 0.016024 0.0191758 0.0236152 0.0424731 0.0391826 0.0359088 0.0490629 0.0577047 0.0414145 0.0562227 0.0633047 0.0736464 0.073597 0.065314 0.063096 0.0660094 0.0650184
65 1 Mg -2.49398 77.2738 4.71419 1.2 1 0.0242858 0.0126437 0.0141857 0.0261392 0.0185311 0.0262347 0.0245882 0.0354436 0.0488351 0.0531399 0.0560251 0.0540008 0.0576326 0.0674906 0.0657545 0.0577909 0.0777463 0.10007 0.0612223 0.0799565
66 2 Si 0.322443 79.174 4.53327 2.4 1 0.0253878 0.0183187 0.0159387 0.0296565 0.0293431 0.029016 0.03564 0.0448363 0.0538636 0.0575861 0.0512888 0.0623712 0.0690698 0.0498447 0.075564 0.0757333 0.0587707 0.0890636 0.0747173 0.0543879
67 3 O -1.23895 79.3191 4.65387 -1.2 1 0.0250177 0.014562 0.014668 0.0205965 0.0207681 0.0297031 0.0213718 0.0716287 0.0456307 0.0583002 0.0367109 0.067388 0.0545237 0.0643956 0.0691465 0.0636326 0.0608514 0.071171 0.062589 0.0684933
68 3 O 1.46809 75.452 4.9022 -1.2 1 0.0155948 0.0196606 0.0192179 0.0248535 0.0111937 0.0332944 0.0273848 0.0361844 0.0589314 0.0441369 0.0486299 0.0456073 0.0591003 0.0715254 0.0903643 0.0749971 0.0662216 0.051508 0.0761046 0.0557922
69 3 O 1.22316 78.5884 3.35053 -1.2 1 0.017766 0.0233763 0.0208444 0.0242263 0.0205352 0.0221832 0.0413264 0.0368731 0.0370373 0.0438134 0.0574401 0.0420692 0.0613655 0.0417628 0.0901019 0.0689105 0.0694552 0.0715798 0.0523424 0.0705606
70 3 O 0.995087 78.5572 5.86628 -1.2 1 0.0158805 0.010838 0.0219252 0.0238614 0.0294636 0.0197991 0.0537075 0.0417062 0.0385448 0.0475548 0.053327 0.0404122 0.051924 0.0695963 0.0856548 0.0789623 0.0684595 0.0543254 0.0594097 0.0558654
71 1 Mg 0.00843305 75.1589 3.33772 1.2 1 0.00576538 0.0092762 0.0118899 0.0313061 0.0118904 0.0334004 0.0120318 0.0538252 0.0237517 0.0805219 0.0213673 0.0531008 0.0214069 0.0687154 0.0211024 0.105278 0.0370161 0.109438 0.0418168 0.0951527
72 1 Mg -0.0862122 72.0716 4.89543 1.2 1 0.0179858 0.0144619 0.0203492 0.0251067 0.0171588 0.0222115 0.0231487 0.0328908 0.04194 0.0566373 0.0527269 0.0607914 0.0575426 0.0607702 0.0602292 0.0638176 0.078144 0.0954114 0.07508 0.0745069
73 2 Si 2.09765 73.9289 4.90123 2.4 1 0.0186733 0.0145917 0.00988325 0.0256573 0.0300907 0.0287271 0.0389857 0.0464792 0.0476966 0.0598445 0.0541183 0.0667288 0.0679499 0.0526744 0.0735768 0.0767898 0.063502 0.0819513 0.0604746 0.0598811
74 3 O -1.06032 74.0583 4.88052 -1.2 1 0.0196702 0.0259317 0.0153074 0.0202602 0.0202043 0.0316575 0.0173854 0.0812791 0.0341594 0.0674443 0.0396148 0.0665268 0.0570714 0.0672555 0.0802382 0.0702423 0.0622468 0.0649739 0.0602569 0.0672768
75 3 O 0.982441 70.4273 4.71012 -1.2 1 0.0184715 0.0119168 0.022981 0.0164104 0.0258603 0.0350135 0.0299358 0.0437559 0.0481482 0.0471259 0.0382523 0.0475385 0.0530879 0.0668537 0.0958308 0.0614179 0.0712371 0.0584165 0.0624756 0.063869
76 3 O 1.37126 73.3281 3.60957 -1.2 1 0.0140241 0.0170648 0.0279098 0.0173312 0.0219416 0.0227917 0.0409474 0.0506391 0.0375485 0.0459881 0.0506212 0.0383426 0.0565012 0.0669311 0.0821428 0.0763821 0.0743582 0.0640451 0.0658776 0.0719255
77 1 Mg -0.0516684 75.0092 0.373346 1.2 1 0.0130633 0.0156133 0.0120904 0.0276867 0.0158112 0.0321049 0.0148895 0.0606045 0.0169131 0.0785513 0.0151308 0.0526282 0.0174891 0.0733967 0.0243314 0.11017 0.0300451 0.105515 0.0304194 0.0877949
78 3 O 1.45891 73.2969 6.1502 -1.2 1 0.00995712 0.0180178 0.0295789 0.0156687 0.0183356 0.0286489 0.0466505 0.0418799 0.0337695 0.0496448 0.056398 0.0359683 0.0509733 0.0677027 0.069063 0.0799584 0.0749047 0.051487 0.0608048 0.079688
79 1 Mg 0.195589 77.9759 1.72541 1.2 1 0.02698 0.0152831 0.0205094 0.0356168 0.0213782 0.0294181 0.0285734 0.0317453 0.0402508 0.0592477 0.06338 0.0548368 0.0621791 0.0653249 0.0672864 0.0757502 0.0698675 0.0858794 0.0793862 0.0727922
80 2 Si -1.90275 76.0664 1.8994 2.4 1 0.0206191 0.01472 0.0252964 0.0224495 0.0267499 0.0363467 0.0373657 0.048569 0.0561876 0.0481502 0.0456553 0.0680344 0.0784574 0.0636275 0.0778254 0.0709303 0.0574453 0.0954857 0.0625129 0.0569985
81 3 O 1.21091 75.9866 1.90581 -1.2 1 0.0291094 0.0209159 0.019792 0.0170637 0.014943 0.0310463 0.0263543 0.0665139 0.0434583 0.0556381 0.0442707 0.0713653 0.0540559 0.0679757 0.0738128 0.0706606 0.0635224 0.0777832 0.0640113 0.0771208
82 3 O -0.998802 79.9168 1.69975 -1.2 1 0.0114161 0.0121688 0.0268023 0.020948 0.01757 0.029081 0.0373353 0.0488792 0.0627224 0.0363356 0.0497292 0.0413247 0.0490932 0.0709614 0.103333 0.0727508 0.0736346 0.0470755 0.0695603 0.0594377
83 3 O -1.34252 76.6824 0.562758 -1.2 1 0.0128146 0.0139739 0.0253905 0.0241845 0.0231778 0.0162456 0.0528724 0.041221 0.0425469 0.0426825 0.0546992 0.0425699 0.0513998 0.0659423 0.0874195 0.0721772 0.0798424 0.0563632 0.0762639 0.0612699
84 3 O -1.17007 76.7457 3.02696 -1.2 1 0.0095454 0.0133679 0.0309294 0.0266781 0.0215353 0.0227531 0.0474901 0.0396694 0.0380103 0.0457772 0.0542394 0.0448941 0.0557494 0.0384761 0.0964904 0.0661257 0.0747568 0.0736732 0.0529003 0.0723303
85 1 Mg -2.40781 80.307 0.185175 1.2 1 0.0040246 0.0177132 0.00458212 0.0335237 0.00425029 0.032896 0.00663784 0.060897 0.00926383 0.0776214 0.0110862 0.0547469 0.0128736 0.0743546 0.0156256 0.105893 0.0151684 0.113334 0.0208389 0.0804791
86 1 Mg 2.48383 83.2256 1.38451 1.2 1 0.0236945 0.00987846 0.0170594 0.0238908 0.0170396 0.0229209 0.0235684 0.0321853 0.0501356 0.0537753 0.0504121 0.0473799 0.0629141 0.0638889 0.0650437 0.0650501 0.0769775 0.0980952 0.0667156 0.0749763
87 2 Si -0.27755 81.3882 1.62761 2.4 1 0.0183258 0.0120813 0.0223551 0.0295808 0.0325945 0.0338944 0.0421395 0.0390449 0.0461813 0.0569412 0.0634957 0.0575119 0.0764558 0.0581385 0.0739195 0.0732552 0.0618789 0.0883176 0.059836 0.050715
88 3 O 1.19965 81.2161 1.62964 -1.2 1 0.0297538 0.0142803 0.0292339 0.0220423 0.0265212 0.0250933 0.0157027 0.068139 0.0342524 0.0537841 0.0499095 0.0679741 0.0494391 0.0660167 0.076159 0.0644319 0.0578613 0.0728341 0.0522058 0.0697118
89 3 O -1.45238 85.0679 1.54109 -1.2 1 0.0183689 0.0191157 0.02673 0.016397 0.0197891 0.0366935 0.0352954 0.048301 0.0563508 0.0420154 0.0470575 0.0453758 0.0554515 0.0659426 0.0994653 0.0739346 0.0647878 0.0543802 0.0712978 0.0641533
90 3 O -1.07714 82.0527 0.36323 -1.2 1 0.012281 0.0146942 0.0244261 0.0288429 0.0226603 0.023209 0.0513538 0.040835 0.0380966 0.0397471 0.0573565 0.0391432 0.0577916 0.0639387 0.0841651 0.0818649 0.0711992 0.0641626 0.060718 0.0685802
91 1 Mg -2.4051 90.719 2.90457 1.2 1 0.0064085 0.0134582 0.00470048 0.0320855 0.00883668 0.0384535 0.0100451 0.0625241 0.00943163 0.0878634 0.0142183 0.0552109 0.0158254 0.0695607 0.0165997 0.10037 0.0200419 0.11589 0.0174228 0.105639
92 3 O -0.871084 82.1007 2.92055 -1.2 1 0.0327326 0.015738 0.0221393 0.0188669 0.0256771 0.0266264 0.0414259 0.0480495 0.0394525 0.0570427 0.0539909 0.0437286 0.0554297 0.070233 0.078163 0.0766673 0.075005 0.0612653 0.0651293 0.0736132
93 1 Mg -2.07415 87.7381 4.55514 1.2 1 0.0206253 0.0118269 0.0183351 0.0326832 0.0191722 0.0257833 0.0288626 0.0392983 0.0361837 0.063589 0.0573124 0.0649854 0.0568559 0.0641009 0.0677322 0.0684047 0.0878904 0.077844 0.0836809 0.0521325
94 2 Si 0.369113 89.7315 4.38538 2.4 1 0.016685 0.0181972 0.0190334 0.0292645 0.0300564 0.0296885 0.04514 0.0424759 0.0527097 0.0520374 0.0534665 0.0702015 0.0690876 0.0553019 0.0771651 0.0773376 0.0595594 0.095491 0.0573144 0.0596637
95 3 O -1.17782 89.657 4.35858 -1.2 1 0.0211341 0.0123421 0.0214967 0.0227928 0.0208309 0.0277141 0.0239792 0.0689016 0.0422927 0.0563293 0.0348288 0.0713971 0.0627232 0.0711597 0.0598839 0.0613843 0.0648861 0.0670815 0.0683485 0.0574518
96 3 O 1.44372 85.8622 4.61302 -1.2 1 0.0187833 0.0144617 0.0265644 0.0242721 0.0181968 0.0370894 0.0345031 0.040764 0.0656543 0.0389077 0.0502412 0.0373086 0.0504378 0.0773547 0.0991742 0.0764671 0.0669225 0.0481479 0.081392 0.0602276
97 3 O 1.01559 89.1594 3.02427 -1.2 1 0.020816 0.0185675 0.0299518 0.0243014 0.0268601 0.0212526 0.0438963 0.0474384 0.0485962 0.0450938 0.0531886 0.0422839 0.0570097 0.0584036 0.0862466 0.075569 0.0765022 0.0592774 0.0631767 0.0798983
98 3 O 1.0286 89.028 5.58338 -1.2 1 0.0115675 0.0186282 0.0281601 0.028151 0.0222846 0.0232794 0.0476271 0.0398958 0.0370507 0.0461128 0.0481831 0.0359608 0.060304 0.053261 0.0886014 0.0674323 0.0745148 0.0670418 0.0671817 0.0673677
99 1 Mg 0.0167767 85.5686 3.05792 1.2 1 0.00620466 0.0152865 0.00508101 0.0272151 0.00513125 0.0342071 0.00667738 0.0578919 0.0124905 0.0889548 0.0160349 0.0535374 0.0155013 0.0710566 0.0175373 0.100895 0.0181624 0.115994 0.0252339 0.102852
100 1 Mg 0.152941 82.6602 4.78875 1.2 1 0.0199683 0.0124857 0.0236795 0.0264908 0.0142665 0.0277101 0.0254075 0.0352069 0.0485387 0.0624802 0.0529235 0.0483524 0.0600841 0.0697765 0.0617018 0.0675704 0.0726995 0.10304 0.0672985 0.0794629
101 2 Si 2.18545 84.4118 4.53615 2.4 1 0.0180844 0.0203957 0.01229 0.0246243 0.0262377 0.0282098 0.0407846 0.041964 0.043013 0.0613048 0.0586341 0.0655118 0.0722112 0.0570403 0.0678273 0.0780945 0.062007 0.0825315 0.0645889 0.0523002
102 3 O -1.04122 84.7063 4.50222 -1.2 1 0.0186861 0.0224678 0.018277 0.021629 0.0271067 0.0264716 0.0257999 0.0700024 0.0394807 0.0539589 0.0441851 0.0661599 0.0499347 0.0652984 0.08266 0.0642633 0.0635736 0.0728787 0.0501473 0.0707296
103 3 O 0.922858 80.7832 4.72302 -1.2 1 0.0167187 0.0178763 0.0210155 0.0228181 0.0268483 0.0308087 0.0328635 0.0463028 0.0563468 0.0458174 0.0375157 0.0471883 0.0569985 0.0701171 0.102683 0.0703009 0.0627923 0.0520914 0.072303 0.0589062
104 3 O 1.50628 83.91 3.17682 -1.2 1 0.0110371 0.0126585 0.0185449 0.0271717 0.0261974 0.0237496 0.0522781 0.045892 0.037422 0.0533419 0.0521669 0.0420876 0.0577775 0.0773725 0.0742986 0.0741952 0.0724127 0.0700003 0.0697765 0.0715343
105 1 Mg -0.0965247 85.4944 0.0486146 1.2 1 0.0134307 0.0100675 0.00731744 0.0350007 0.010416 0.0320737 0.0119902 0.0597068 0.0178386 0.0817553 0.0144785 0.0492004 0.0195638 0.069715 0.0228887 0.106475 0.0248022 0.114046 0.0292131 0.0933877
106 3 O 1.37194 83.8051 5.871 -1.2 1 0.00907496 0.0128027 0.0258407 0.022154 0.0238775 0.0199814 0.0509847 0.0447498 0.0338234 0.0411439 0.0590913 0.0356899 0.0527376 0.0634156 0.07943 0.0828445 0.0693732 0.061028 0.0630878 0.0692339
107 1 Mg -0.0832292 88.4132 1.39353 1.2 1 0.0139122 0.0100154 0.0155811 0.029564 0.0172379 0.0296076 0.0242282 0.0365814 0.0445809 0.0624741 0.058408 0.0495809 0.0685494 0.070129 0.0594214 0.074927 0.0721174 0.108783 0.0598272 0.0865859
108 2 Si -2.16172 86.4505 1.59626 2.4 1 0.0144481 0.0184662 0.0267047 0.0296171 0.0338921 0.0257037 0.044995 0.0376935 0.0415877 0.0600418 0.055626 0.0646545 0.0635683 0.0659259 0.0824664 0.059679 0.0672122 0.0792695 0.0664096 0.0640578
109 3 O 1.09068 86.4072 1.54398 -1.2 1 0.0120116 0.0210812 0.0145786 0.0171454 0.0211044 0.0331922 0.0256055 0.0660029 0.0405791 0.0480074 0.0376182 0.0695522 0.0526741 0.0705707 0.0755379 0.0698203 0.0605469 0.0777434 0.056022 0.0776179
110 3 O -1.06388 90.3212 1.29274 -1.2 1 0.017353 0.0152091 0.0216021 0.0210935 0.017908 0.0382498 0.0362437 0.0379958 0.0557835 0.0462424 0.0447585 0.0457608 0.0525928 0.0691137 0.0999067 0.070383 0.0715747 0.0522418 0.072156 0.0600687
111 3 O -1.59356 87.2102 0.269399 -1.2 1 0.00828535 0.0102475 0.0259095 0.0182812 0.0264128 0.027998 0.0475937 0.045471 0.0395128 0.0513991 0.0535011 0.0342841 0.0493788 0.0762947 0.0601744 0.0787672 0.0695366 0.0543243 0.0684763 0.0682537
112 3 O -1.31592 87.1544 2.77798 -1.2 1 0.00226186 0.0165098 0.0255791 0.0218613 0.0278598 0.0215744 0.0512374 0.0438374 0.0300798 0.0435507 0.0543502 0.048376 0.0583456 0.0582213 0.0952449 0.0642767 0.0815192 0.0637811 0.0662921 0.072276
113 1 Mg -2.36073 90.7632 -0.0870236 1.2 1 0.00652354 0.0154851 0.00730764 0.0352256 0.00896456 0.0321808 0.00993346 0.0597192 0.0096835 0.0800395 0.011831 0.0551649 0.0121618 0.0695237 0.0123365 0.106037 0.0168161 0.117226 0.0198185 0.0948319
114 1 Mg 2.44382 93.6879 1.3606 1.2 1 0.0176628 0.013947 0.019642 0.0283115 0.0155163 0.0244284 0.0271781 0.0387714 0.0435228 0.0534044 0.0478489 0.0588615 0.0608909 0.0621575 0.0630909 0.0633328 0.0797433 0.103059 0.0705405 0.0862032
115 2 Si -0.359152 91.6769 1.31298 2.4 1 0.0179187 0.0135061 0.020041 0.0332219 0.0291216 0.0356576 0.0452082 0.0420631 0.0546265 0.0548778 0.0518449 0.0656452 0.0681007 0.061244 0.0801824 0.069062 0.0658181 0.0916674 0.0578969 0.057233
116 3 O 1.31007 91.6983 1.3512 -1.2 1 0.0239112 0.0137354 0.0279074 0.0210893 0.0157109 0.0294442 0.0227628 0.0700442 0.034416 0.0598497 0.0418227 0.0707049 0.0520129 0.0670892 0.0715919 0.0707418 0.0545034 0.0691877 0.0593787 0.0735535
117 3 O -1.40146 95.3833 1.26852 -1.2 1 0.0129682 0.0205625 0.0195985 0.0153948 0.0217857 0.0340326 0.0330698 0.0460375 0.0477441 0.0449009 0.0397574 0.0456993 0.0536897 0.0707726 0.099449 0.0710988 0.0693699 0.0552591 0.0698322 0.0672616
118 3 O -0.981199 92.4376 0.112449 -1.2 1 0.0205845 0.00685213 0.0268021 0.0164182 0.0200082 0.024662 0.0476159 0.0390592 0.0314441 0.0484432 0.0582863 0.0371199 0.0515164 0.0630283 0.0765422 0.0712669 0.0732346 0.0572604 0.0681155 0.0714105
119 1 Mg -2.25875 101.052 2.92432 1.2 1 0.00667235 0.0203034 0.0158765 0.0371807 0.00918836 0.0373668 0.00725212 0.0599056 0.017762 0.0791085 0.0180417 0.0523677 0.0279916 0.0735753 0.0251386 0.104043 0.0372254 0.105843 0.0423208 0.0964441
120 3 O -0.920673 92.4076 2.73786 -1.2 1 0.00692849 0.014162 0.0236702 0.0223145 0.0313539 0.0232144 0.04311 0.0441423 0.0387121 0.0448257 0.0528975 0.038449 0.0543808 0.0655295 0.0825121 0.0726035 0.0739095 0.0682832 0.0556866 0.0801458
121 1 Mg -2.23974 98.2219 4.40217 1.2 1 0.0258399 0.0191317 0.0198641 0.0332282 0.0176726 0.021849 0.0207987 0.0319429 0.044821 0.0674781 0.0587883 0.0523748 0.0638301 0.0628289 0.0560944 0.0788442 0.0644214 0.10032 0.0666394 0.0813666
122 2 Si 0.408637 100.171 4.38451 2.4 1 0.0103243 0.0128837 0.022295 0.0256519 0.0232565 0.031712 0.042878 0.0405415 0.0473954 0.0538451 0.047565 0.0648168 0.0735071 0.0555414 0.0817002 0.0535902 0.0591959 0.0867558 0.0505878 0.0662764
123 3 O -1.2147 100.246 4.43048 -1.2 1 0.0272145 0.0268184 0.0200899 0.017845 0.02166 0.0287882 0.0287648 0.0730031 0.0380773 0.0598238 0.0367331 0.065935 0.0491376 0.0821399 0.076959 0.0676731 0.0510159 0.0804115 0.0464868 0.0747151
124 3 O 1.4148 96.4696 4.22031 -1.2 1 0.0109316 0.0203855 0.0245962 0.0173807 0.0220869 0.0337865 0.0315753 0.0410177 0.0500824 0.0457338 0.0443038 0.0448493 0.0527679 0.0629663 0.0964207 0.075247 0.065814 0.0592172 0.0719382 0.0560973
125 3 O 1.05134 99.4382 3.20423 -1.2 1 0.0124088 0.0123216 0.0333679 0.018205 0.0276252 0.0230922 0.0469671 0.0401553 0.0343971 0.0482683 0.0549261 0.0391465 0.0546678 0.0634748 0.078522 0.0690989 0.0813787 0.0631285 0.0704317 0.0627237