ITEM: TIMESTEP
2400
ITEM: NUMBER OF ATOMS
5600
ITEM: BOX BOUNDS xy xz yz pp pp pp
0	7.1235	0
0	201.985	2.3745
0	119.584	0
ITEM: ATOMS id type element xu yu zu q Q_1 Q_2 Q_3 Q_4 Q_5 Q_6 Q_7 Q_8 Q_9 Q_10 Q_11 Q_12 Q_13 Q_14 Q_15 Q_16 Q_17 Q_18 Q_19 Q_20 Q_21
1 1 Mg -1.63056 49.8142 -0.755441 1.2 1 0.457654 0.0609766 0.140675 0.0342665 0.0785929 0.0489559 0.049592 0.0470749 0.0707128 0.0729822 0.0719628 0.0880965 0.0976901 0.100263 0.107523 0.109816 0.0950352 0.101203 0.094004 0.111802
2 1 Mg 2.9648 51.929 2.1946 1.2 1 0.265361 0.114217 0.0340925 0.0605858 0.0373421 0.0264816 0.0630436 0.0491089 0.0784371 0.0727832 0.0693217 0.0756411 0.0699412 0.0704726 0.0690067 0.081743 0.0747752 0.0834618 0.0882881 0.0780042
3 2 Si 0.832478 51.4123 0.416687 2.4 1 0.301085 0.126475 0.0520468 0.0677222 0.0396905 0.0336761 0.0598904 0.0464325 0.0815631 0.0789281 0.0603252 0.06668 0.0573571 0.0579726 0.0829482 0.0683241 0.0940705 0.0765084 0.0737157 0.0898303
4 3 O 2.21032 50.6865 0.682508 -1.2 1 0.374799 0.107677 0.0827468 0.0669594 0.0272116 0.0655152 0.035818 0.0802175 0.0511847 0.0849633 0.061056 0.0798838 0.0893127 0.0896721 0.0957956 0.0770591 0.0770649 0.0710649 0.075753 0.0899245
5 3 O -1.29225 54.0692 1.72134 -1.2 1 0.11053 0.0690862 0.0499571 0.0202173 0.0209908 0.0239098 0.039935 0.0487056 0.0648409 0.0603498 0.0434118 0.0458859 0.051059 0.0657676 0.0757298 0.0867557 0.0877908 0.0508793 0.0579557 0.0828468
6 3 O 0.124776 50.6272 -0.719679 -1.2 1 0.387182 0.0996078 0.0921074 0.0574251 0.0396588 0.0576515 0.0365358 0.0652387 0.0726942 0.0831739 0.0715762 0.0749082 0.0867072 0.0894157 0.0950536 0.0802917 0.0773802 0.0755595 0.0738897 0.08609
7 1 Mg -2.34144 59.7468 3.17529 1.2 1 0.00555047 0.015447 0.00219464 0.0313827 0.00319778 0.0334157 0.00447276 0.0602721 0.00516889 0.0795133 0.00638473 0.0523171 0.00640926 0.0699267 0.00854912 0.109078 0.013525 0.116611 0.0141818 0.0993016
8 3 O 0.0181494 51.4282 1.73042 -1.2 1 0.326134 0.112213 0.0561883 0.0576911 0.0309823 0.028862 0.0604201 0.0590943 0.0739585 0.0884452 0.0580279 0.0676828 0.0526631 0.0644064 0.0809647 0.0788987 0.0781729 0.0820348 0.0688169 0.0849963
9 1 Mg -2.21952 56.8987 4.71036 1.2 1 0.00797462 0.0214312 0.0138809 0.0264752 0.0173727 0.0259493 0.0229927 0.0301343 0.04174 0.0582013 0.0606808 0.0577335 0.0525992 0.0701874 0.0604426 0.0779085 0.0694827 0.0888733 0.0747923 0.0845728
10 2 Si 0.413132 58.7446 4.69716 2.4 1 0.0250235 0.0145319 0.017126 0.0230756 0.0272027 0.0267005 0.0424787 0.0412688 0.0494887 0.0587702 0.0521951 0.0683503 0.0670368 0.0546123 0.0850739 0.0684167 0.0579369 0.0967168 0.0557196 0.061538
11 3 O -1.12532 58.8306 4.67286 -1.2 1 0.0186737 0.00838003 0.0198565 0.0278171 0.0316557 0.0251193 0.0215049 0.0731543 0.0363725 0.0563131 0.0410998 0.0666859 0.055918 0.0621421 0.0711447 0.0722313 0.0598003 0.0686263 0.0668716 0.0765665
12 3 O 1.47472 55.0852 4.66782 -1.2 1 0.0601909 0.048929 0.0360853 0.0215533 0.0244131 0.0328051 0.0318029 0.0411088 0.0518202 0.0540606 0.0564188 0.0441342 0.0611015 0.069395 0.0880998 0.0745594 0.0680139 0.0607662 0.0777904 0.0653616
13 3 O 1.07123 58.1018 3.38823 -1.2 1 0.013156 0.0156908 0.0294372 0.014211 0.0182519 0.0283522 0.0442047 0.0444104 0.0363634 0.0465053 0.0487401 0.0384904 0.0576207 0.059691 0.085094 0.0775554 0.0653668 0.0617239 0.0591762 0.0759862
14 3 O 1.13264 58.086 5.97832 -1.2 1 0.00610544 0.0102499 0.019161 0.0184895 0.0176354 0.0235007 0.0450212 0.0426878 0.0347796 0.0491166 0.0511181 0.0416087 0.0528353 0.0613489 0.0882163 0.0744028 0.0683279 0.0658722 0.0567357 0.0716016
15 1 Mg 0.0994333 54.4598 3.21078 1.2 1 0.0960858 0.0717627 0.0412739 0.0271955 0.018544 0.0281646 0.0291708 0.0585147 0.0364085 0.0689872 0.0480994 0.0484941 0.0446088 0.060699 0.0479985 0.0812136 0.0650812 0.0970639 0.0603167 0.0845809
16 1 Mg 0.768205 50.9112 3.40083 1.2 1 0.365153 0.0948437 0.0573341 0.0819809 0.0268335 0.0643839 0.0547929 0.0701878 0.0503923 0.0800254 0.062395 0.0785134 0.0571808 0.0666887 0.0817263 0.0865415 0.0751287 0.0894141 0.0783747 0.0899167
17 2 Si 2.19859 53.6432 4.69704 2.4 1 0.112643 0.10208 0.0501028 0.036662 0.0213408 0.0357319 0.0374986 0.0565962 0.0686046 0.0770209 0.0805934 0.0843967 0.0735999 0.0767522 0.0835502 0.081138 0.0671892 0.0891309 0.0657587 0.0775096
18 3 O -0.999465 53.6949 4.71863 -1.2 1 0.160753 0.0749333 0.0392878 0.0218519 0.0205252 0.0276014 0.0460954 0.0497786 0.0442907 0.0706151 0.0367881 0.0898992 0.0522974 0.0780969 0.0742252 0.0865363 0.0828246 0.0649917 0.0802947 0.0700777
19 3 O 2.61079 50.2627 3.49098 -1.2 1 0.428742 0.0714807 0.103199 0.0572927 0.0569573 0.0525525 0.0546501 0.0716163 0.0643391 0.082677 0.0671626 0.0670922 0.070855 0.0726419 0.101671 0.092832 0.0909591 0.0902556 0.0631255 0.0925876
20 3 O 1.60784 52.8798 3.44053 -1.2 1 0.201882 0.097821 0.0204575 0.0292137 0.019594 0.0389677 0.0441164 0.0679821 0.0516914 0.0625296 0.061859 0.0576702 0.0843466 0.0685976 0.0841137 0.0696095 0.0861943 0.0794245 0.0663527 0.0889873
21 1 Mg -0.012253 54.6772 0.223884 1.2 1 0.0673985 0.062972 0.0479491 0.035412 0.0244071 0.0200453 0.0349596 0.0645198 0.0479066 0.0634406 0.0385427 0.0564597 0.0462874 0.0613056 0.0589237 0.0875676 0.0691455 0.0964679 0.0609207 0.0861339
22 3 O 1.48563 52.913 5.94775 -1.2 1 0.193643 0.0960314 0.0284025 0.0279703 0.0265452 0.0344806 0.0374167 0.0730613 0.0523293 0.0689289 0.0553423 0.0622273 0.0671109 0.0743818 0.0887889 0.0714938 0.0815336 0.0778289 0.0736152 0.0759627
23 1 Mg 0.086518 57.4829 1.72199 1.2 1 0.00850469 0.0188558 0.0158659 0.0236279 0.0131198 0.0202432 0.0311155 0.041519 0.0393929 0.054984 0.0548752 0.0532822 0.0629048 0.0592952 0.0641864 0.0753903 0.080304 0.0827798 0.0734774 0.0821735
24 2 Si -1.9842 55.5311 1.73536 2.4 1 0.0277409 0.0394503 0.0327142 0.0287241 0.0168955 0.0356895 0.0425489 0.0403663 0.0593836 0.0590098 0.0548358 0.0681551 0.0821366 0.0503912 0.0713808 0.0606534 0.0736499 0.0679408 0.0723206 0.0608314
25 3 O 1.19184 55.4698 1.72894 -1.2 1 0.0327188 0.0434204 0.0349643 0.0255919 0.0150901 0.0316907 0.0221631 0.0575092 0.0453576 0.0528152 0.051406 0.0583855 0.0572084 0.0748474 0.0690099 0.0560448 0.0588033 0.0668127 0.058811 0.0748528
26 3 O -0.992767 59.2343 1.66972 -1.2 1 0.0159363 0.0217209 0.0210782 0.0141747 0.016654 0.0313073 0.034052 0.0439576 0.0452834 0.0477134 0.0352377 0.0473295 0.0500129 0.0665151 0.100937 0.0642684 0.0719414 0.0582259 0.0765365 0.0633768
27 3 O -1.36169 56.1909 0.418221 -1.2 1 0.0206274 0.0244563 0.0195837 0.0375304 0.0249901 0.0303991 0.0501911 0.0435372 0.0374594 0.0384456 0.0614193 0.0529237 0.0529518 0.0615358 0.0844916 0.065521 0.0690558 0.0655387 0.0720545 0.0708198
28 3 O -1.28353 56.2267 2.96519 -1.2 1 0.0203613 0.0191517 0.0297287 0.0242807 0.0152949 0.0240457 0.0494389 0.0424021 0.0401899 0.0372339 0.0601865 0.0526684 0.0573531 0.0729739 0.0824726 0.0709923 0.0626467 0.0658375 0.0725922 0.0672855
29 1 Mg -2.35514 59.7555 0.207877 1.2 1 0.00738963 0.0179725 0.00703778 0.0282558 0.00747107 0.0335597 0.00546897 0.0585293 0.00989821 0.0857248 0.00688622 0.052701 0.010051 0.0720308 0.00872951 0.101908 0.0111875 0.117947 0.0125983 0.107427
30 1 Mg 2.34596 62.6438 1.696 1.2 1 0.0207131 0.0131819 0.0197083 0.0289023 0.0126793 0.0185372 0.0226175 0.0297395 0.0393268 0.0563079 0.0526388 0.0561033 0.0589268 0.057312 0.0595898 0.072493 0.0783576 0.0995615 0.0697157 0.0826921
31 2 Si -0.338536 60.743 1.74605 2.4 1 0.0139049 0.0118354 0.0187553 0.0274081 0.0316149 0.0334392 0.0421138 0.0386603 0.049681 0.0492014 0.0511364 0.0678633 0.0718663 0.0597499 0.0781644 0.067216 0.0590481 0.0977313 0.0545716 0.0514391
32 3 O 1.22235 60.6484 1.7391 -1.2 1 0.0229747 0.0154261 0.0138451 0.0283903 0.0220602 0.0231616 0.0217093 0.0645495 0.0408194 0.0493265 0.043186 0.0682778 0.0489819 0.0638506 0.0680014 0.0655067 0.0546767 0.0723804 0.0592938 0.0806335
33 3 O -1.32807 64.4378 1.69547 -1.2 1 0.0138783 0.0199699 0.0234989 0.014536 0.0207678 0.0355687 0.0319178 0.0436969 0.0534239 0.0445432 0.04028 0.0443198 0.0484867 0.0662556 0.105557 0.0696237 0.069992 0.0481292 0.0730576 0.0665966
34 3 O -1.04468 61.4301 0.465939 -1.2 1 0.00610813 0.0153366 0.0283747 0.0207843 0.0192703 0.0205785 0.0436315 0.0394727 0.0331403 0.0463583 0.0530048 0.0408185 0.0521091 0.0586714 0.0858937 0.0657298 0.0753855 0.060015 0.0679477 0.0668257
35 1 Mg -2.30183 70.091 3.18871 1.2 1 0.00373918 0.0187521 0.00502222 0.0317501 0.00552694 0.0367946 0.00605413 0.0617464 0.00723836 0.083659 0.00640578 0.0534574 0.00807173 0.0731583 0.00747203 0.107051 0.01057 0.117272 0.0134949 0.100174
36 3 O -1.00618 61.4093 2.98937 -1.2 1 0.00428236 0.0170699 0.0266391 0.0229434 0.0205675 0.0189066 0.0434114 0.0388914 0.0348339 0.043761 0.0548271 0.0388741 0.0526286 0.0533327 0.0857163 0.0676088 0.0728011 0.0597927 0.0642871 0.0741091
37 1 Mg -2.23643 67.2282 4.66116 1.2 1 0.0138076 0.0118461 0.0151932 0.0261112 0.0131232 0.0180701 0.0191455 0.028957 0.0394184 0.0641434 0.0524893 0.0585606 0.0584974 0.0627034 0.0581621 0.0750102 0.0735266 0.102329 0.071193 0.0828251
38 2 Si 0.407697 69.0657 4.67201 2.4 1 0.0231233 0.0096544 0.0164151 0.0291442 0.0279921 0.0303136 0.0427536 0.0404646 0.0479972 0.0533786 0.0526457 0.0633213 0.0722517 0.0577474 0.0756239 0.0727614 0.0566538 0.0933231 0.0572211 0.0564871
39 3 O -1.14839 69.1689 4.66859 -1.2 1 0.0135479 0.0152598 0.0133054 0.0308692 0.0216075 0.0253089 0.0216614 0.0684326 0.0401793 0.0523648 0.0430363 0.0692924 0.0528864 0.0618658 0.0692861 0.0643042 0.0553599 0.073766 0.0608439 0.07789
40 3 O 1.46088 65.4213 4.67475 -1.2 1 0.0155212 0.0216317 0.0266002 0.0122707 0.0201389 0.0337343 0.0289602 0.0449533 0.0524801 0.0447225 0.0411407 0.0452191 0.049239 0.0670653 0.103939 0.068792 0.0680207 0.0507315 0.0727517 0.0664076
41 3 O 1.1096 68.3999 3.40703 -1.2 1 0.0103841 0.0149607 0.0255916 0.0223954 0.0198968 0.0188649 0.0424996 0.0368734 0.035594 0.044787 0.0550717 0.0391107 0.0510954 0.0519993 0.0851881 0.0701051 0.0708847 0.0603601 0.0663756 0.0696679
42 3 O 1.10753 68.4186 5.93609 -1.2 1 0.00662515 0.00920974 0.0249124 0.0190689 0.0169897 0.0203804 0.0443905 0.0399167 0.0342029 0.0460116 0.0533513 0.039287 0.0509993 0.0618092 0.0806628 0.0681332 0.0730246 0.0604993 0.0651126 0.0696742
43 1 Mg 0.0740996 64.8909 3.16566 1.2 1 0.00260258 0.0198836 0.00376636 0.0344252 0.00529236 0.033731 0.00612247 0.0549276 0.00854663 0.0827743 0.00606618 0.0500505 0.00999752 0.0717056 0.00651551 0.104198 0.0137649 0.116941 0.0162818 0.101416
44 1 Mg 0.0158023 62.0616 4.63664 1.2 1 0.0115465 0.014853 0.0170542 0.0282981 0.0142063 0.0218055 0.0202441 0.0312252 0.0382581 0.0628405 0.0549018 0.0566675 0.0605477 0.0661728 0.0603346 0.0768067 0.0742654 0.100808 0.072426 0.0828023
45 2 Si 2.11085 63.92 4.6941 2.4 1 0.020014 0.010988 0.0177336 0.0299184 0.0314699 0.0304716 0.0415678 0.0421036 0.0484896 0.0534664 0.052602 0.0657894 0.0717293 0.0559788 0.0798455 0.0737023 0.0567781 0.0936301 0.0567701 0.0568675
46 3 O -1.07749 63.9989 4.6652 -1.2 1 0.0120582 0.0159273 0.0167467 0.0257993 0.0238327 0.0234925 0.0219741 0.0631499 0.0358229 0.0486521 0.0445137 0.069129 0.0505765 0.0619069 0.0671693 0.0655144 0.0526805 0.0730243 0.0624661 0.0795688
47 3 O 1.07255 60.2344 4.69219 -1.2 1 0.00624693 0.0155055 0.0263692 0.016931 0.0146147 0.0376465 0.0354578 0.0433101 0.0562506 0.0425294 0.0431216 0.0456891 0.0492081 0.0693625 0.10703 0.0724535 0.0682073 0.0482983 0.0762057 0.0635285
48 3 O 1.40796 63.2392 3.45361 -1.2 1 0.0113462 0.00922008 0.0245763 0.0189583 0.0216498 0.0166379 0.0436222 0.0413286 0.0289804 0.0416985 0.0520834 0.0379017 0.0510136 0.0613622 0.08495 0.0691912 0.0761222 0.0619962 0.0697874 0.0652256
49 1 Mg 0.0115918 64.9261 0.19141 1.2 1 0.0099965 0.0166364 0.00775379 0.0325532 0.00591292 0.035319 0.00694899 0.0606927 0.00852307 0.0818297 0.00827378 0.0518647 0.00750998 0.0711481 0.00808682 0.107986 0.00991426 0.11624 0.00958876 0.0999308
50 3 O 1.44148 63.258 5.98816 -1.2 1 0.00936522 0.0159741 0.0286598 0.0203914 0.018766 0.0220162 0.0412241 0.0406011 0.0347995 0.0467705 0.0542174 0.0391911 0.0493384 0.0533717 0.0848608 0.0703734 0.0725925 0.0584962 0.0630575 0.073244
51 1 Mg 0.127297 67.7614 1.69905 1.2 1 0.0137721 0.00817515 0.0179245 0.0252435 0.00801182 0.0182464 0.017701 0.0326585 0.0408534 0.0631342 0.0571754 0.0534221 0.0573184 0.0627805 0.0564323 0.0807238 0.071132 0.100074 0.0718107 0.0817287
52 2 Si -1.99902 65.9357 1.69579 2.4 1 0.0249479 0.0111468 0.0164537 0.0303298 0.0283097 0.0299417 0.0422043 0.0401773 0.0473625 0.0533245 0.0532961 0.064848 0.0712986 0.0579265 0.0764544 0.0731528 0.0567606 0.0956938 0.0554615 0.0553012
53 3 O 1.18939 65.8536 1.69345 -1.2 1 0.0139098 0.00852642 0.0116988 0.0301359 0.0251058 0.0222501 0.0229351 0.0688986 0.0372057 0.0520934 0.0436692 0.0699251 0.0524927 0.0628075 0.069118 0.0671095 0.0529436 0.0733229 0.0620949 0.0786852
54 3 O -0.987452 69.5636 1.69266 -1.2 1 0.0131129 0.0185353 0.0245002 0.0139576 0.0203695 0.0365254 0.0304933 0.0456773 0.0528318 0.0443906 0.0379164 0.0479281 0.0480674 0.0634948 0.107341 0.065429 0.0712659 0.0516803 0.073354 0.0677998
55 3 O -1.33633 66.5589 0.384295 -1.2 1 0.0112924 0.00839744 0.0320262 0.0196265 0.0199176 0.0189321 0.0424993 0.0445586 0.0367755 0.0499395 0.0524729 0.0385051 0.050018 0.0575392 0.0849571 0.071965 0.0716359 0.0581791 0.0647767 0.0745209
56 3 O -1.28767 66.6007 2.93878 -1.2 1 0.00739961 0.0110586 0.0282301 0.0209139 0.0170919 0.0182998 0.0445847 0.0437783 0.0327379 0.0470629 0.0517159 0.0403461 0.0506844 0.0625602 0.0871474 0.0669629 0.0778804 0.0613819 0.0664341 0.0690234
57 1 Mg -2.40641 70.0739 0.215873 1.2 1 0.00873511 0.0183375 0.00915263 0.0316944 0.00723098 0.0332392 0.00745026 0.0570946 0.00801686 0.0838347 0.00833381 0.0514213 0.0119468 0.0729419 0.0119386 0.102442 0.0120291 0.116198 0.0130345 0.103129
58 1 Mg 2.2887 72.9506 1.64928 1.2 1 0.009957 0.0107752 0.0164844 0.02532 0.0111617 0.0208071 0.0172079 0.030845 0.0383663 0.0653018 0.0554468 0.0565431 0.0579977 0.0650194 0.0586119 0.078108 0.0744609 0.0967093 0.0747384 0.0800109
59 2 Si -0.305425 71.0905 1.69354 2.4 1 0.0228476 0.0116579 0.015634 0.0305593 0.0277854 0.0300643 0.0416185 0.0390287 0.0463474 0.0559042 0.0524921 0.0619528 0.072542 0.0558561 0.0771365 0.0729583 0.0579961 0.0926553 0.0562402 0.0571423
60 3 O 1.25043 70.9954 1.67781 -1.2 1 0.0200567 0.0144223 0.0136499 0.029243 0.0203811 0.0228118 0.0201561 0.0650246 0.0376388 0.0495027 0.0437646 0.0662233 0.0512411 0.0621831 0.0690103 0.0652018 0.053867 0.0733411 0.0603661 0.0803889
61 3 O -1.39688 74.762 1.65662 -1.2 1 0.0091319 0.0229192 0.0256055 0.0122551 0.0178204 0.0344555 0.030961 0.0460475 0.0565046 0.0432072 0.0419435 0.0423353 0.0494875 0.0686587 0.105907 0.0725437 0.0678461 0.0447538 0.0736369 0.0643998
62 3 O -1.02166 71.7565 0.429891 -1.2 1 0.0108377 0.0120454 0.0238177 0.0185038 0.0213283 0.0169757 0.0445269 0.0420264 0.0333694 0.0449248 0.0517204 0.0389542 0.0500869 0.062008 0.0839566 0.0715466 0.0775811 0.0622616 0.0687681 0.0653553
63 1 Mg -2.32624 80.3875 3.04975 1.2 1 0.0092479 0.017668 0.00683359 0.0341674 0.00566755 0.0353084 0.00813963 0.0596468 0.0094808 0.0833199 0.00793029 0.0516469 0.00902118 0.0700161 0.00970684 0.106376 0.012582 0.114878 0.0122194 0.0999792
64 3 O -0.941327 71.7326 2.98025 -1.2 1 0.00276926 0.015353 0.0295251 0.0228657 0.0175199 0.0213431 0.0413794 0.0405958 0.0372735 0.0480428 0.053145 0.0377748 0.0478757 0.060354 0.0779506 0.0707745 0.0745851 0.0566683 0.064509 0.0747282
65 1 Mg -2.26579 77.5405 4.64169 1.2 1 0.0195258 0.0129709 0.0182625 0.026104 0.012099 0.0172528 0.0214388 0.0292475 0.0418629 0.0585609 0.05519 0.0572646 0.0576085 0.0587424 0.057688 0.0745753 0.074266 0.103504 0.0709631 0.0845173
66 2 Si 0.375111 79.404 4.55198 2.4 1 0.0223308 0.0134499 0.0152566 0.0296606 0.0271783 0.0306888 0.0446342 0.0387461 0.0481989 0.0526646 0.0522176 0.0662615 0.0696975 0.0594028 0.077767 0.0695285 0.0581277 0.0948212 0.0537151 0.0568475
67 3 O -1.17792 79.4327 4.57753 -1.2 1 0.0169577 0.00549795 0.0140517 0.0268199 0.0243156 0.0264922 0.024981 0.0700672 0.0377937 0.0537971 0.0434484 0.0685218 0.0539554 0.0659953 0.0673636 0.0657145 0.0536552 0.0724779 0.062439 0.0726918
68 3 O 1.39925 75.7361 4.59706 -1.2 1 0.0108813 0.0172566 0.0269018 0.0145219 0.0206293 0.03399 0.031538 0.0446529 0.054496 0.0444155 0.039225 0.045876 0.0472385 0.0664746 0.106553 0.0680903 0.0698756 0.0519974 0.0742486 0.0655858
69 3 O 1.02844 78.7688 3.25215 -1.2 1 0.00734717 0.0128349 0.0339063 0.0176094 0.0197971 0.0209347 0.0443538 0.0431337 0.0343633 0.0489152 0.053066 0.0382082 0.0516385 0.0591127 0.0823419 0.0713568 0.0763424 0.0573679 0.0631884 0.0742537
70 3 O 1.06792 78.6843 5.83505 -1.2 1 0.0100871 0.0140473 0.0229262 0.0193642 0.0211111 0.0180898 0.0440595 0.0404491 0.0341154 0.047255 0.0522739 0.03773 0.0520281 0.0599885 0.0827052 0.0707942 0.0756241 0.0614032 0.0663571 0.0684553
71 1 Mg 0.0266573 75.2394 3.12273 1.2 1 0.00541222 0.015696 0.00475149 0.0294772 0.00622775 0.0336568 0.0053265 0.0560733 0.00580868 0.0863529 0.00576137 0.0526234 0.00541938 0.0704847 0.0061953 0.101346 0.00604816 0.116034 0.00918906 0.104313
72 1 Mg -0.0145535 72.4094 4.66187 1.2 1 0.017892 0.0154523 0.0176595 0.0278934 0.012257 0.0209132 0.0203996 0.0306652 0.0396559 0.0637659 0.0553932 0.054447 0.0600558 0.0650986 0.0590673 0.0792936 0.0704707 0.103065 0.070234 0.0878434
73 2 Si 2.07866 74.2819 4.59983 2.4 1 0.0221675 0.0122377 0.0168732 0.0381971 0.0266524 0.0285093 0.0423549 0.0392347 0.0477405 0.0549653 0.0530719 0.0664574 0.0728974 0.0606165 0.0782181 0.0669791 0.0591146 0.0922191 0.0557259 0.0571717
74 3 O -1.12734 74.3168 4.63662 -1.2 1 0.0156071 0.0119409 0.0118644 0.0270151 0.0263967 0.022593 0.0223298 0.0645863 0.0391697 0.0529371 0.0438902 0.0704325 0.0490951 0.0647082 0.0672389 0.0655475 0.0524109 0.0725231 0.0615508 0.078642
75 3 O 1.07142 70.5888 4.6433 -1.2 1 0.0142628 0.0159701 0.0245723 0.0126372 0.021424 0.0333293 0.0303479 0.0434564 0.0540724 0.0449437 0.0389968 0.0461265 0.0480995 0.0668895 0.104673 0.0678888 0.0707854 0.0522228 0.0741894 0.0652195
76 3 O 1.40934 73.5853 3.33969 -1.2 1 0.00461803 0.0125625 0.0269366 0.0201416 0.0159823 0.0191392 0.0434659 0.0439546 0.0323265 0.0445806 0.0536169 0.0375589 0.0507314 0.0635659 0.0816828 0.0658051 0.0774215 0.0609598 0.0680024 0.072432
77 1 Mg -0.0386655 75.1945 0.173372 1.2 1 0.00652115 0.0170208 0.00180262 0.0351596 0.00201181 0.0342947 0.003562 0.0601229 0.00617198 0.0813794 0.00642124 0.0499816 0.0054809 0.0708677 0.00878258 0.107099 0.0109472 0.116043 0.014759 0.095915
78 3 O 1.38725 73.5938 5.89803 -1.2 1 0.00346512 0.00882055 0.0258367 0.0219288 0.0214403 0.0207945 0.0437913 0.0389712 0.0350824 0.0449309 0.0520515 0.0405016 0.0563284 0.0536113 0.0840139 0.0682335 0.0733165 0.0599155 0.0652606 0.0736488
79 1 Mg 0.0798439 78.0778 1.55268 1.2 1 0.0114063 0.0112632 0.0162989 0.0271665 0.0149101 0.020054 0.0203302 0.0282494 0.0414999 0.062637 0.0563253 0.0574168 0.0597985 0.0630465 0.0587538 0.0791443 0.0719573 0.100167 0.0728237 0.0822247
80 2 Si -2.04273 76.2563 1.64137 2.4 1 0.0188808 0.0106294 0.0158484 0.034806 0.0271394 0.030279 0.0415964 0.0394471 0.0486784 0.0543099 0.0516767 0.0667405 0.0728714 0.0573648 0.0776967 0.0745601 0.0584805 0.0900339 0.0566733 0.0558056
81 3 O 1.15498 76.1741 1.6046 -1.2 1 0.0224354 0.0101203 0.0170012 0.0272841 0.0240892 0.0188675 0.0197696 0.068612 0.0368624 0.050782 0.0429738 0.0675192 0.0526909 0.0638346 0.0678108 0.0645772 0.0527169 0.0724989 0.0616315 0.0745474
82 3 O -1.02666 79.8887 1.55749 -1.2 1 0.0128053 0.0186911 0.0245966 0.0155571 0.0200919 0.0371358 0.0309804 0.0460396 0.0536386 0.047193 0.0379635 0.0496771 0.0476813 0.0646439 0.108005 0.0692032 0.0684396 0.0531619 0.0747232 0.0646164
83 3 O -1.37083 76.9128 0.339947 -1.2 1 0.00400737 0.0121628 0.0295127 0.0219887 0.0211728 0.0212477 0.0442184 0.0409835 0.0332307 0.0446727 0.0536956 0.0392783 0.0532698 0.0532039 0.0827588 0.0704549 0.0726187 0.0585656 0.065271 0.0707218
84 3 O -1.36752 76.9215 2.90444 -1.2 1 0.00811953 0.0109989 0.0284324 0.019387 0.0154832 0.0188165 0.0424018 0.0430579 0.0341324 0.0455303 0.0530175 0.0361079 0.0512995 0.062599 0.0816604 0.0673858 0.0779829 0.0616562 0.0656321 0.0704841
85 1 Mg -2.38716 80.4302 0.0974441 1.2 1 0.00448273 0.0151885 0.0100495 0.031589 0.00912399 0.034712 0.00727881 0.0576816 0.00765164 0.0841291 0.0103923 0.0506233 0.010332 0.0712116 0.0150049 0.102101 0.0195052 0.115512 0.0160757 0.102339
86 1 Mg 2.33467 83.2476 1.54772 1.2 1 0.0166104 0.0162598 0.0154633 0.0279688 0.0143465 0.0197669 0.0229458 0.0278494 0.0392157 0.0615208 0.0515724 0.0606943 0.0598789 0.0632526 0.0602202 0.073701 0.0729328 0.104903 0.0690979 0.0856411
87 2 Si -0.32884 81.3627 1.54213 2.4 1 0.0200548 0.0145552 0.0183398 0.037989 0.0276145 0.0297749 0.0424559 0.0390981 0.0476386 0.0559363 0.0519084 0.0662698 0.0732814 0.0581858 0.0792765 0.0674703 0.0576743 0.0928971 0.0568272 0.0577672
88 3 O 1.22975 81.312 1.5698 -1.2 1 0.0174951 0.0105686 0.0117018 0.0299472 0.0216225 0.0235955 0.0233668 0.0685305 0.0342888 0.050392 0.0461734 0.066273 0.0511198 0.062368 0.0708273 0.0664365 0.0518138 0.0758569 0.0573472 0.0790376
89 3 O -1.36287 85.0404 1.57674 -1.2 1 0.0101062 0.0203361 0.0265125 0.0158895 0.019625 0.0350872 0.0315955 0.0447386 0.0516346 0.0459818 0.0412046 0.0469668 0.0483866 0.0685515 0.104168 0.0710275 0.0664327 0.0542257 0.0735788 0.0664859
90 3 O -1.0297 82.0248 0.276022 -1.2 1 0.00871655 0.0133467 0.032716 0.0192985 0.0172187 0.0219413 0.0440844 0.0418844 0.0356372 0.0439965 0.0538509 0.0392481 0.0519473 0.0604514 0.0821491 0.0688007 0.0759659 0.0604824 0.0679226 0.0710452
91 1 Mg -2.3771 90.6764 2.98426 1.2 1 0.0107176 0.0166444 0.00992556 0.0322728 0.00762235 0.0338401 0.00901607 0.0588209 0.00822835 0.0848699 0.00826109 0.0513289 0.00920351 0.0717357 0.0110582 0.104563 0.0114232 0.115437 0.0130386 0.101607
92 3 O -0.971784 82.0526 2.83491 -1.2 1 0.00529985 0.0101488 0.0316909 0.016788 0.0197259 0.020136 0.0429868 0.0408184 0.0329221 0.0465903 0.0524435 0.0412103 0.0525253 0.0607801 0.0801641 0.0675268 0.0749254 0.0585047 0.0690311 0.0713213
93 1 Mg -2.28112 87.8865 4.5616 1.2 1 0.0104372 0.0139643 0.0150872 0.0271887 0.0149262 0.0222747 0.0187821 0.0284392 0.0421678 0.0665341 0.0525768 0.0557038 0.0628409 0.0676698 0.0589053 0.0815757 0.0695703 0.102547 0.0678574 0.0882044
94 2 Si 0.358777 89.6831 4.49941 2.4 1 0.0229425 0.0107003 0.0170049 0.0296166 0.0278606 0.0306154 0.043609 0.0396659 0.0471218 0.0536818 0.0525724 0.0635799 0.0726782 0.0572035 0.0758871 0.0704532 0.0568701 0.0928866 0.0578035 0.0571764
95 3 O -1.20827 89.7649 4.47903 -1.2 1 0.0151268 0.0103905 0.0169828 0.0299801 0.0236685 0.0199755 0.018692 0.0682995 0.0383157 0.0535526 0.0423449 0.0687123 0.0505454 0.0645505 0.0682546 0.0661133 0.0536656 0.0738218 0.0599573 0.0768645
96 3 O 1.38088 86.0603 4.57067 -1.2 1 0.0114788 0.0221093 0.0240072 0.0112078 0.0190674 0.0345263 0.0319039 0.0460765 0.0513937 0.0448431 0.040575 0.0483063 0.0465805 0.0649352 0.106022 0.0700034 0.0699175 0.0508689 0.0707973 0.0665868
97 3 O 1.02599 89.0221 3.21182 -1.2 1 0.0110674 0.005185 0.0278179 0.0177449 0.0201437 0.0179996 0.0427108 0.0412408 0.0328845 0.0491125 0.052894 0.039415 0.0524063 0.0593524 0.0823148 0.0704951 0.0733257 0.0604262 0.0647932 0.0721933
98 3 O 1.05485 89.0318 5.74626 -1.2 1 0.00994001 0.0151746 0.0259975 0.0173403 0.018216 0.0171179 0.0445536 0.0394605 0.033775 0.0427662 0.0528637 0.0390691 0.0491597 0.0614938 0.0809002 0.0693735 0.0774586 0.0599134 0.0680155 0.0675086
99 1 Mg 0.0376263 85.5597 3.05535 1.2 1 0.00772552 0.0169357 0.00560376 0.0327555 0.00566951 0.0345504 0.00844778 0.0564171 0.00715156 0.0842309 0.006899 0.0529724 0.00867055 0.0720696 0.00943178 0.102791 0.00997494 0.116846 0.0116707 0.103817
100 1 Mg -0.0380596 82.684 4.55034 1.2 1 0.0124698 0.0113087 0.0145075 0.0279137 0.0147201 0.0151884 0.0226406 0.0284216 0.0414558 0.0617823 0.0547941 0.060543 0.0584572 0.061875 0.0609974 0.0762028 0.0737367 0.102299 0.0716445 0.0808146
101 2 Si 2.07685 84.563 4.55646 2.4 1 0.0225306 0.0134208 0.0198293 0.0264075 0.0304697 0.0312024 0.042755 0.0402809 0.0492173 0.0528961 0.051275 0.064895 0.070931 0.0574496 0.0802965 0.0684415 0.0566419 0.0936723 0.0559948 0.0566687
102 3 O -1.11932 84.6361 4.54532 -1.2 1 0.0227862 0.0117738 0.0156289 0.0280949 0.0219384 0.023234 0.0210923 0.0644896 0.0379391 0.0505589 0.0436826 0.0666842 0.0502124 0.0655051 0.0681428 0.0647404 0.0512927 0.073997 0.0606336 0.0797448
103 3 O 1.06681 80.8669 4.59363 -1.2 1 0.013952 0.018595 0.0254066 0.0143821 0.0201353 0.0349466 0.0323024 0.0455198 0.0538776 0.0430018 0.0394979 0.0452701 0.0479338 0.0650422 0.107495 0.0692466 0.0703769 0.0506772 0.0744014 0.0632829
104 3 O 1.38846 83.8729 3.31199 -1.2 1 0.0117106 0.0152948 0.0233856 0.0171527 0.0203632 0.0168836 0.0449385 0.0409297 0.0319286 0.0435155 0.052713 0.0395206 0.0504721 0.0605673 0.0849141 0.068441 0.0781308 0.0596005 0.0688333 0.0680248
105 1 Mg 0.0266446 85.519 0.0702558 1.2 1 0.00765033 0.0176572 0.0067906 0.032806 0.00603347 0.0345691 0.00811467 0.0604414 0.00758003 0.0824267 0.00860593 0.0504788 0.00779238 0.070633 0.0113164 0.108146 0.0116985 0.115852 0.0106044 0.0999881
106 3 O 1.41495 83.9062 5.84474 -1.2 1 0.00447177 0.00441591 0.0332825 0.0159358 0.0169269 0.0207139 0.043424 0.0406711 0.034507 0.0485052 0.0544365 0.0369264 0.0521652 0.0590144 0.0844113 0.0713042 0.0734338 0.0585726 0.0653231 0.0726501
107 1 Mg 0.0508356 88.425 1.53007 1.2 1 0.0169787 0.0156395 0.0175148 0.0287209 0.0115546 0.0217423 0.0206335 0.0306294 0.0378012 0.0606934 0.0534225 0.0596825 0.0602556 0.0628737 0.059805 0.0730539 0.0754344 0.102327 0.0678935 0.0850658
108 2 Si -2.03877 86.5249 1.59779 2.4 1 0.019644 0.0119247 0.0154107 0.0345806 0.0271443 0.0292853 0.0413184 0.0408353 0.0474848 0.0563085 0.0528128 0.0639256 0.0740106 0.0573829 0.0807219 0.0698947 0.0600665 0.0889733 0.0558799 0.0558694
109 3 O 1.1525 86.4146 1.56577 -1.2 1 0.0189101 0.00878153 0.0143537 0.0280875 0.0182429 0.0239362 0.0241995 0.0682423 0.0379579 0.0504674 0.0465361 0.0666757 0.0485628 0.0617731 0.0716109 0.0648382 0.052606 0.0759976 0.0565605 0.0842612
110 3 O -0.989829 90.2234 1.5034 -1.2 1 0.00647817 0.0193779 0.0273742 0.0128016 0.0181293 0.0337957 0.032234 0.0460706 0.0586326 0.0419122 0.0431105 0.0446317 0.048175 0.0677536 0.107059 0.0718954 0.067476 0.045605 0.0729863 0.0654535
111 3 O -1.37126 87.2027 0.322128 -1.2 1 0.0109219 0.00964213 0.0307165 0.0145783 0.0196721 0.0205903 0.0440021 0.0408829 0.0308584 0.0456766 0.0530726 0.0415045 0.0519809 0.0609446 0.0819555 0.0692987 0.0748074 0.0592589 0.0740694 0.0655898
112 3 O -1.36172 87.2103 2.8558 -1.2 1 0.00844867 0.0113753 0.0238979 0.0196329 0.0173731 0.0191286 0.0414545 0.0433277 0.0338032 0.0464557 0.0543885 0.0380148 0.0523338 0.0594784 0.0807841 0.0690298 0.0745366 0.0588375 0.0640128 0.0755008
113 1 Mg -2.40532 90.7193 -0.00888886 1.2 1 0.00672774 0.0210114 0.00115899 0.0359679 0.00228721 0.0355188 0.00367574 0.0576891 0.00702592 0.0833096 0.00460305 0.0522806 0.00673352 0.0695648 0.00734767 0.107148 0.00958293 0.114677 0.015395 0.10051
114 1 Mg 2.31334 93.5151 1.5119 1.2 1 0.00685481 0.0130148 0.0155214 0.0270498 0.0172381 0.0233131 0.0196264 0.0294042 0.0401645 0.0683407 0.054888 0.0551015 0.0625907 0.0679592 0.0601339 0.0846085 0.0682715 0.101973 0.0679563 0.0860828
115 2 Si -0.31471 91.7005 1.47641 2.4 1 0.017981 0.0125192 0.0160665 0.0342306 0.0265251 0.0302446 0.0429032 0.0388363 0.0479124 0.0548991 0.0534574 0.0651654 0.0723874 0.0589597 0.0761425 0.0689421 0.0598236 0.0934642 0.0560424 0.0548471
116 3 O 1.24666 91.6047 1.46705 -1.2 1 0.0243799 0.0109141 0.0144399 0.0281411 0.018686 0.0246666 0.0220518 0.0685933 0.0364487 0.0543985 0.0426097 0.0659277 0.050322 0.0620465 0.0685122 0.0631809 0.0543113 0.0740561 0.0577424 0.0818859
117 3 O -1.36224 95.3826 1.52515 -1.2 1 0.0120008 0.0230518 0.0250086 0.0114024 0.0173748 0.0350714 0.0327759 0.0464416 0.0552342 0.0432199 0.0437729 0.0448312 0.048919 0.0669034 0.104737 0.0719554 0.0694221 0.0492344 0.0726838 0.0658363
118 3 O -1.01113 92.3507 0.20451 -1.2 1 0.0114781 0.00747064 0.0305479 0.0175705 0.0177047 0.0222378 0.0431507 0.0439202 0.0332784 0.0468708 0.0537045 0.0390085 0.0526776 0.0578455 0.080298 0.0704429 0.075663 0.0589001 0.063034 0.073758
119 1 Mg -2.3715 101.006 2.96904 1.2 1 0.00455328 0.0183838 0.00570951 0.0345798 0.00573106 0.0339874 0.00483205 0.0613911 0.00587154 0.0814807 0.00611052 0.0523249 0.00657042 0.0710275 0.00650682 0.105696 0.00644613 0.116822 0.00767746 0.0996803
120 3 O -0.96343 92.3855 2.73743 -1.2 1 0.00910728 0.00474698 0.0296657 0.0117552 0.0166507 0.020732 0.0418835 0.0426654 0.0336768 0.0464517 0.0517592 0.0379144 0.0542406 0.0613282 0.0822406 0.0704542 0.0737093 0.0601021 0.0698581 0.0684318
121 1 Mg -2.31584 98.1752 4.47366 1.2 1 0.00792064 0.0140872 0.01536 0.0277876 0.0189493 0.0201235 0.0212188 0.0271574 0.040249 0.0666632 0.0504206 0.0585571 0.0636074 0.0675447 0.0612343 0.0766035 0.0712979 0.105522 0.0681041 0.0865435
122 2 Si 0.334217 100 4.5219 2.4 1 0.0238305 0.0139135 0.0112444 0.0303753 0.025829 0.0302686 0.0438563 0.0393081 0.0463588 0.0556535 0.056616 0.0650894 0.0720553 0.0551181 0.0783533 0.0703929 0.0573263 0.0931879 0.0583684 0.0575891
123 3 O -1.21987 100.091 4.5016 -1.2 1 0.0222024 0.0140189 0.0147974 0.0270986 0.0196436 0.0246664 0.020438 0.0660553 0.0376163 0.0544882 0.0414199 0.0665589 0.0494945 0.0615662 0.0660345 0.063583 0.0527183 0.0732396 0.0599216 0.0772752
124 3 O 1.41189 96.3645 4.45829 -1.2 1 0.00823092 0.0204246 0.0268163 0.0127432 0.0172578 0.0353227 0.0318706 0.0468195 0.0565311 0.0433458 0.0403818 0.0461949 0.0480427 0.0666601 0.107725 0.0699253 0.0680754 0.0481398 0.071235 0.0681714
125 3 O 1.01746 99.335 3.21028 -1.2 1 0.00355198 0.0114837 0.0261002 0.020401 0.0166796 0.0188168 0.043407 0.0398385 0.0345198 0.0462224 0.051745 0.0376517 0.0514766 0.062477 0.0805737 0.0706188 0.0742047 0.0620528 0.0684538 0.0678387