ITEM: TIMESTEP
98600
ITEM: NUMBER OF ATOMS
5600
ITEM: BOX BOUNDS xy xz yz pp pp pp
0	7.1235	0
0	201.985	2.3745
0	119.584	0
ITEM: ATOMS id type element xu yu zu q Q_1 Q_2 Q_3 Q_4 Q_5 Q_6 Q_7 Q_8 Q_9 Q_10 Q_11 Q_12 Q_13 Q_14 Q_15 Q_16 Q_17 Q_18 Q_19 Q_20 Q_21
1 1 Mg -1.20908 46.4642 -2.00933 1.2 1 0.520122 0.0516752 0.128616 0.0606904 0.107022 0.0669056 0.0698713 0.0762313 0.0617416 0.0787061 0.0822867 0.0774929 0.0651499 0.0900193 0.120179 0.117095 0.0933677 0.0961201 0.0989195 0.112377
2 1 Mg 2.84643 49.4947 0.932431 1.2 1 0.266855 0.0899661 0.0428742 0.0504079 0.0440911 0.0547385 0.0602709 0.0590962 0.0708994 0.0618552 0.0836216 0.0688885 0.0856178 0.0859926 0.0707125 0.0828225 0.0616442 0.0798671 0.102074 0.0812874
3 2 Si 1.23602 48.118 -0.777062 2.4 1 0.362714 0.0785596 0.0512094 0.0869217 0.0410516 0.0765928 0.0518902 0.0831739 0.0764663 0.0851852 0.075684 0.0831525 0.085688 0.084388 0.093826 0.0819722 0.0955918 0.0795029 0.0892637 0.0893572
4 3 O 2.17518 47.0986 -0.412204 -1.2 1 0.476792 0.0484784 0.0912137 0.0697856 0.0876105 0.0599715 0.0821934 0.0703909 0.0835754 0.0738576 0.0776139 0.0760059 0.0937989 0.0925529 0.0996678 0.107199 0.0977829 0.0893352 0.0837899 0.0891943
5 3 O -1.36144 51.5662 0.782274 -1.2 1 0.126049 0.0405595 0.0376504 0.0281424 0.0352008 0.0486144 0.0541664 0.0530303 0.0550335 0.0630976 0.0595791 0.0591149 0.0612281 0.0777032 0.0861666 0.0703587 0.0548995 0.0744635 0.0726419 0.0806803
6 3 O 0.453614 47.5088 -2.01622 -1.2 1 0.404445 0.0770601 0.0930345 0.0607815 0.0749558 0.0803947 0.058588 0.0470513 0.081753 0.0695117 0.0779102 0.0638686 0.074571 0.0893426 0.115028 0.109003 0.104659 0.0883583 0.0730567 0.0917732
7 1 Mg -2.13003 57.0081 2.64405 1.2 1 0.0180366 0.0205092 0.0174848 0.0246691 0.0304553 0.0248164 0.0360275 0.05657 0.0684741 0.0590835 0.0379325 0.0465985 0.0484902 0.0672446 0.0743272 0.0759131 0.0936453 0.0642077 0.0908522 0.0706052
8 3 O 0.291573 48.8166 0.185369 -1.2 1 0.292241 0.116567 0.0537189 0.0619369 0.0633812 0.0392545 0.0797653 0.0701462 0.0710885 0.0721114 0.0672477 0.0638005 0.0540971 0.0955292 0.0889517 0.0854637 0.0937803 0.0828211 0.0771514 0.0757828
9 1 Mg -2.2451 54.2418 4.31492 1.2 1 0.00632579 0.021849 0.0162072 0.025697 0.0291781 0.0335809 0.0327046 0.0440596 0.0410791 0.053049 0.0586279 0.0712377 0.0605832 0.0569655 0.0708128 0.0645846 0.0823358 0.0869176 0.0620146 0.0758325
10 2 Si 0.433475 56.2244 4.47329 2.4 1 0.0109187 0.0199414 0.0301987 0.0304133 0.0368325 0.0350373 0.0405952 0.052246 0.0634423 0.0595866 0.0544356 0.0763124 0.059705 0.0627292 0.0621869 0.0819401 0.056687 0.0841318 0.0739144 0.0713725
11 3 O -1.24573 56.2978 4.33016 -1.2 1 0.00938557 0.0242912 0.0226993 0.0155983 0.027544 0.0314017 0.0213195 0.0784801 0.0390453 0.0786693 0.0328315 0.0710665 0.065434 0.0703086 0.0655079 0.0749187 0.0650654 0.0714459 0.055102 0.0651469
12 3 O 1.42958 52.6728 4.49311 -1.2 1 0.0781935 0.0355654 0.0364713 0.0162567 0.0262828 0.0480896 0.0487831 0.043185 0.0567712 0.0567902 0.0531236 0.0528257 0.0699429 0.0798053 0.0778753 0.0806334 0.0638712 0.0625743 0.0647304 0.0742613
13 3 O 0.998069 55.3105 3.18821 -1.2 1 0.0160813 0.0215213 0.0225492 0.0211242 0.0193051 0.0442759 0.0451272 0.0504549 0.0457417 0.0545645 0.0525071 0.0514088 0.0580017 0.0792195 0.0755338 0.0661731 0.071212 0.0645787 0.0639577 0.0640851
14 3 O 0.887294 55.6681 5.68246 -1.2 1 0.0193684 0.017352 0.0248638 0.0234829 0.0222233 0.0337088 0.0500899 0.0477664 0.0435835 0.0491885 0.0490959 0.0423838 0.0503378 0.0695901 0.0723626 0.0810097 0.0698667 0.0518616 0.0691984 0.0712779
15 1 Mg 0.0929733 52.7692 3.05286 1.2 1 0.0655774 0.0424825 0.0292027 0.0254172 0.0325676 0.0384159 0.0433797 0.0274825 0.064459 0.0702957 0.0525692 0.062564 0.0690248 0.0608195 0.0760114 0.0683097 0.0939939 0.0997125 0.0719528 0.0621852
16 1 Mg 0.769581 48.7943 2.29833 1.2 1 0.312458 0.115276 0.0305583 0.0655159 0.0580133 0.0516068 0.0582001 0.0690035 0.0897482 0.0635696 0.0710032 0.0769982 0.0621852 0.062406 0.08023 0.0853454 0.0911598 0.0880192 0.0727988 0.0766195
17 2 Si 2.01048 51.2184 4.13852 2.4 1 0.109224 0.094514 0.0470373 0.0302143 0.0259852 0.0375555 0.0426013 0.0635093 0.0476261 0.0701838 0.0684412 0.0763652 0.0769106 0.0859431 0.0772473 0.0724732 0.0544435 0.113665 0.0769682 0.0902989
18 3 O -1.14044 51.3444 4.19412 -1.2 1 0.129307 0.0781042 0.0454684 0.0394484 0.0254808 0.0371012 0.0578878 0.0571149 0.046391 0.0745825 0.0484041 0.101645 0.0607821 0.0745621 0.0809331 0.0875387 0.0809806 0.0898656 0.0713221 0.0878411
19 3 O 3.02587 48.5541 2.57069 -1.2 1 0.333535 0.121086 0.0614951 0.0570064 0.0297007 0.0666703 0.0538429 0.0665721 0.0717472 0.0639327 0.0701254 0.0718993 0.0861778 0.0894236 0.0829842 0.0893692 0.0919434 0.0880297 0.0935201 0.0910545
20 3 O 1.13147 50.9772 2.8638 -1.2 1 0.157964 0.0727855 0.0464317 0.0296093 0.0211148 0.0328424 0.0571997 0.039741 0.0671452 0.0508392 0.0775715 0.0659163 0.0708428 0.07361 0.0709968 0.0684348 0.0908002 0.0850387 0.0880066 0.0632823
21 1 Mg 0.305806 51.8907 -0.396286 1.2 1 0.0848879 0.0707698 0.0236982 0.0363956 0.0243574 0.0323446 0.0429579 0.0588449 0.0441564 0.0472184 0.0575023 0.0507933 0.0605893 0.0806466 0.0555363 0.0776896 0.0750934 0.0761571 0.0697724 0.0755071
22 3 O 1.59021 50.1152 5.14775 -1.2 1 0.209018 0.105145 0.0362936 0.0320014 0.0364347 0.0504927 0.0488272 0.0720678 0.0595308 0.0647741 0.0615417 0.0611806 0.0737654 0.079134 0.0721552 0.0680672 0.0778369 0.0821092 0.0710365 0.0936751
23 1 Mg 0.297206 55.2194 1.40041 1.2 1 0.0197568 0.0124013 0.0200708 0.0300671 0.0234902 0.030957 0.0324683 0.0352914 0.0419214 0.0675248 0.0625541 0.0507087 0.0631482 0.0693553 0.0837425 0.0689971 0.0709775 0.0855182 0.0717628 0.0641277
24 2 Si -2.02135 53.0871 0.902354 2.4 1 0.0581076 0.0243876 0.0293025 0.0349402 0.0323985 0.0444023 0.0375172 0.0590518 0.0544208 0.0695255 0.05499 0.0576285 0.0691366 0.0674422 0.0649018 0.0715501 0.0753085 0.074581 0.081724 0.0725228
25 3 O 1.21202 53.1754 0.901248 -1.2 1 0.0414556 0.0245004 0.0287038 0.0325344 0.0344753 0.0349082 0.0352529 0.0602226 0.0514407 0.0707031 0.0380211 0.0723254 0.0576926 0.0742006 0.0697871 0.0622227 0.0792226 0.0703976 0.0549023 0.0623386
26 3 O -0.658673 57.0805 1.59717 -1.2 1 0.0379358 0.0193335 0.0217324 0.0264077 0.0224355 0.0318619 0.0420795 0.0491973 0.0573014 0.0430367 0.0541011 0.0543427 0.0666386 0.0688729 0.0944119 0.0744511 0.0798313 0.0595491 0.0595613 0.0583124
27 3 O -1.19969 53.8579 -0.220003 -1.2 1 0.0202101 0.0301375 0.0228285 0.0277687 0.0214931 0.0302778 0.0398145 0.0544675 0.0444463 0.0609687 0.0652405 0.0519186 0.0541705 0.0682363 0.0875519 0.0679093 0.0785192 0.0744198 0.0698786 0.0769678
28 3 O -1.36314 53.7498 2.36705 -1.2 1 0.0235343 0.0267941 0.0333027 0.0327574 0.0276011 0.0390324 0.0656918 0.036829 0.0493898 0.0434508 0.0620703 0.0608369 0.0701936 0.0679195 0.0666899 0.0746368 0.0721571 0.0589304 0.0838211 0.0713792
29 1 Mg -2.09363 57.7373 -0.0620426 1.2 1 0.0157759 0.0149529 0.0173552 0.0238922 0.0212916 0.0378513 0.0200829 0.0617771 0.0399849 0.0698422 0.0380308 0.057153 0.0400354 0.0641541 0.0383207 0.0993459 0.0564105 0.0997205 0.0588969 0.0730477
30 1 Mg 2.52239 60.6649 1.7969 1.2 1 0.0147533 0.0156281 0.0278333 0.0256363 0.0155155 0.0316002 0.0295094 0.0382316 0.0483417 0.0529112 0.0600307 0.0628528 0.0558637 0.0646088 0.0729225 0.0581963 0.0769867 0.089074 0.0563356 0.0828351
31 2 Si -0.0628418 58.5872 1.56821 2.4 1 0.0161614 0.0244974 0.0245046 0.0286701 0.0349632 0.0327967 0.0329164 0.0542991 0.0532219 0.0651122 0.0545717 0.0596372 0.0688668 0.0571873 0.0753478 0.0614369 0.0695463 0.0799581 0.0633102 0.0683981
32 3 O 1.66547 58.414 1.60577 -1.2 1 0.0104022 0.0234551 0.022509 0.0286123 0.0231213 0.0351912 0.0237131 0.0703789 0.0560172 0.0557841 0.0425881 0.0525092 0.0498139 0.0809936 0.0526671 0.0748162 0.0647138 0.0725757 0.0555934 0.077878
33 3 O -1.58364 62.6892 1.80513 -1.2 1 0.0131966 0.0227244 0.013769 0.0359673 0.021451 0.0398545 0.0383833 0.043704 0.0668054 0.0406803 0.0554996 0.0452614 0.058683 0.0690096 0.0900909 0.0761176 0.0606884 0.0700999 0.0665484 0.0590362
34 3 O -0.634338 59.0809 0.109343 -1.2 1 0.0236588 0.0275107 0.0231216 0.0215374 0.0319757 0.0303926 0.0479739 0.0398258 0.056817 0.0564716 0.0515627 0.0518978 0.0629282 0.0777811 0.0703671 0.0799632 0.0783092 0.0763576 0.0669296 0.0695046
35 1 Mg -2.18748 67.8735 3.34699 1.2 1 0.0094135 0.0154333 0.0201489 0.0234652 0.0279631 0.032181 0.0359607 0.0420017 0.0620056 0.0552965 0.0392773 0.0469314 0.0478791 0.0545783 0.0660367 0.084181 0.0739541 0.083894 0.0693468 0.0669343
36 3 O -0.740337 59.3561 2.63433 -1.2 1 0.0150584 0.0214278 0.0283412 0.0302579 0.0303919 0.029359 0.0528152 0.0579768 0.045489 0.0551695 0.0564018 0.0530029 0.0532085 0.0666522 0.0791673 0.0781062 0.0694168 0.0629431 0.0686823 0.0690227
37 1 Mg -2.18412 65.2372 5.04317 1.2 1 0.0192731 0.0185409 0.0175624 0.0351524 0.0209374 0.0311173 0.0261153 0.0450866 0.0462368 0.0555797 0.0621829 0.0564917 0.0561506 0.0671639 0.0771747 0.0769017 0.0731325 0.0802197 0.084696 0.0650125
38 2 Si 0.556495 67.1439 4.85831 2.4 1 0.0253637 0.0186276 0.0159602 0.0318063 0.041425 0.0294271 0.0400174 0.0508267 0.0658347 0.0481344 0.045828 0.0680214 0.0659252 0.0603902 0.0577806 0.081712 0.0752727 0.092069 0.0524445 0.0581435
39 3 O -0.946442 66.9257 4.94952 -1.2 1 0.0269443 0.0154725 0.0175148 0.0242999 0.0373061 0.0316546 0.0298865 0.0646376 0.0368173 0.0737474 0.0398674 0.0478185 0.0705203 0.0632442 0.0636447 0.069989 0.0580731 0.0776286 0.06732 0.0663507
40 3 O 1.3724 63.3142 4.88329 -1.2 1 0.00710655 0.0067186 0.018794 0.0219254 0.0119439 0.0411655 0.0401966 0.0351859 0.0601554 0.0470909 0.0555313 0.0466087 0.0651534 0.0810104 0.0858869 0.0648962 0.0798937 0.0609635 0.0727359 0.0497856
41 3 O 1.01373 66.4919 3.56498 -1.2 1 0.0112273 0.0293069 0.0185422 0.0240401 0.0312441 0.028451 0.0383314 0.0522864 0.0517589 0.0518466 0.0542635 0.0368553 0.0646238 0.0742813 0.0770635 0.0785365 0.0692295 0.0533898 0.0663762 0.07662
42 3 O 1.28535 66.4121 6.12377 -1.2 1 0.0201367 0.00765831 0.0350296 0.0168771 0.0282992 0.0210998 0.0487718 0.042613 0.0383604 0.0496915 0.0506304 0.0570544 0.0625984 0.0591303 0.0894816 0.0754562 0.0685076 0.0785332 0.0650588 0.0649295
43 1 Mg -0.223144 62.7694 3.33336 1.2 1 0.0101286 0.0166003 0.0332819 0.0394319 0.011817 0.031352 0.0295687 0.0648541 0.0354358 0.0670884 0.0394891 0.0620314 0.0474211 0.0682973 0.0542365 0.100408 0.0592081 0.0959915 0.0536793 0.0566327
44 1 Mg -0.0178154 59.5644 4.36061 1.2 1 0.00521249 0.0151724 0.0219825 0.0286162 0.0240815 0.0306206 0.0301201 0.0396182 0.0453971 0.0591639 0.0486052 0.0638363 0.0626602 0.0638697 0.0875531 0.0533743 0.0807438 0.0837781 0.0721289 0.0520487
45 2 Si 2.08491 61.8416 4.73689 2.4 1 0.0141603 0.0107384 0.0231814 0.0330898 0.0355469 0.0371207 0.0294952 0.0425079 0.0567693 0.0609975 0.0540403 0.0678194 0.0686363 0.0657297 0.065862 0.0772675 0.0687567 0.0916092 0.0576698 0.0653206
46 3 O -1.16405 61.8745 4.90521 -1.2 1 0.0394508 0.0271595 0.018919 0.0242511 0.0367474 0.0281232 0.0280461 0.0647927 0.0477615 0.0696368 0.0404404 0.0678207 0.0652036 0.0687865 0.0742221 0.0645806 0.0640591 0.0644608 0.0678424 0.0659131
47 3 O 1.03053 57.7489 4.37934 -1.2 1 0.0120653 0.0201968 0.0200583 0.0312103 0.0175665 0.0325831 0.0400051 0.0405359 0.0591822 0.0449311 0.0548401 0.0475494 0.0655498 0.074484 0.091786 0.0699478 0.0690961 0.0605666 0.0664565 0.0573448
48 3 O 1.4256 60.9163 3.58947 -1.2 1 0.0140304 0.030802 0.0287908 0.0336715 0.0269123 0.0284019 0.0453144 0.0454833 0.0431052 0.0550031 0.0592907 0.0495484 0.0554792 0.0650486 0.0836355 0.0854101 0.0700834 0.0600339 0.0589308 0.0571047
49 1 Mg -0.463142 63.2763 0.364941 1.2 1 0.012725 0.0214009 0.02241 0.0273267 0.0351869 0.0348023 0.034324 0.0582269 0.0453367 0.0562846 0.0467642 0.0366986 0.0573871 0.0507244 0.0718259 0.0715192 0.0938855 0.0794156 0.0668736 0.0547903
50 3 O 1.37325 61.2698 6.29386 -1.2 1 0.0193156 0.0184804 0.0198051 0.0261258 0.0261216 0.0173863 0.0512757 0.0467362 0.0488106 0.0581031 0.0627125 0.0363382 0.0576253 0.0675311 0.0930442 0.072671 0.0785679 0.0686239 0.0660268 0.0720718
51 1 Mg 0.490955 66.1668 1.84894 1.2 1 0.0180638 0.0210049 0.0232555 0.0254565 0.0121049 0.037458 0.029919 0.0296889 0.0448396 0.0626418 0.0631856 0.0663792 0.0480375 0.0663512 0.0769463 0.0752033 0.072344 0.0611818 0.0751507 0.0509328
52 2 Si -2.17855 64.1112 2.08744 2.4 1 0.0249862 0.0215264 0.0165625 0.0236268 0.0274969 0.0323019 0.0367973 0.0509947 0.0635097 0.0677868 0.0474116 0.0551627 0.0641007 0.0666249 0.0825305 0.0672578 0.0606026 0.0692734 0.066539 0.060149
53 3 O 0.930735 64.0555 1.9629 -1.2 1 0.0128186 0.0239681 0.0124509 0.0209051 0.0267626 0.0275051 0.0239385 0.0785997 0.0481727 0.0613867 0.0299065 0.0646081 0.0676203 0.0810881 0.0611427 0.0828621 0.0666327 0.0641104 0.0623554 0.0630011
54 3 O -0.895158 67.8443 1.95513 -1.2 1 0.0144743 0.0240125 0.0219247 0.0223845 0.0174745 0.0401793 0.0461934 0.0476249 0.0508718 0.0476446 0.0484489 0.0426443 0.0539775 0.0614869 0.0904113 0.079728 0.068539 0.0629406 0.0633629 0.0540731
55 3 O -1.48749 64.924 0.84365 -1.2 1 0.0195964 0.029209 0.0213208 0.0203174 0.0359608 0.0355918 0.0397088 0.0372012 0.0398096 0.0514069 0.0585211 0.0424532 0.0520478 0.0637141 0.07888 0.0772593 0.0582662 0.0665158 0.0500294 0.0679755
56 3 O -1.41305 64.5978 3.28035 -1.2 1 0.0164395 0.0105933 0.0260151 0.0176289 0.0287197 0.0249187 0.0495497 0.0470731 0.0346552 0.04147 0.0534486 0.0421618 0.0417367 0.0700434 0.0778006 0.0807454 0.0651652 0.0636794 0.0610775 0.0719963
57 1 Mg -2.11017 68.7464 0.417543 1.2 1 0.0048658 0.0185723 0.0152408 0.0316122 0.0320158 0.0343447 0.0258625 0.0508895 0.0370174 0.0666688 0.0491279 0.0435497 0.0477211 0.0556402 0.0571382 0.10328 0.0719673 0.0766099 0.0643799 0.0554141
58 1 Mg 1.85556 71.5432 1.57214 1.2 1 0.0118629 0.0127018 0.0222083 0.0326953 0.028877 0.0314371 0.0334778 0.0460986 0.0494005 0.0589215 0.0575146 0.0515504 0.0443942 0.0677505 0.0803628 0.0681262 0.0769563 0.0738006 0.0766242 0.0593363
59 2 Si -0.306319 69.516 2.3212 2.4 1 0.019975 0.018523 0.0220351 0.0265225 0.020792 0.0299075 0.0423916 0.0449377 0.0615161 0.0455157 0.0539484 0.0501421 0.0571782 0.0650922 0.0795097 0.0787812 0.0732642 0.0781727 0.0751194 0.0616107
60 3 O 1.24532 69.5189 2.19185 -1.2 1 0.020681 0.0158469 0.0195283 0.0203577 0.0231846 0.0281489 0.0281121 0.065794 0.0518626 0.0661937 0.0316864 0.0730634 0.0582963 0.067198 0.0725835 0.063531 0.0718469 0.0603116 0.070853 0.0651744
61 3 O -1.20764 73.1286 1.65188 -1.2 1 0.0211017 0.0208492 0.0228734 0.0198897 0.0234545 0.0385315 0.0346216 0.0451521 0.0456342 0.0458478 0.0524498 0.0516526 0.0499055 0.0654343 0.0936044 0.0739602 0.0721338 0.0658293 0.0608623 0.0601297
62 3 O -1.0154 70.2645 1.00664 -1.2 1 0.0246992 0.00724724 0.0206115 0.0207872 0.0325032 0.0227664 0.0395261 0.039441 0.0504973 0.0444621 0.0578537 0.0531504 0.0629664 0.0562764 0.0769212 0.077449 0.0791332 0.0599936 0.0479141 0.0727077
63 1 Mg -2.50325 78.6784 3.06948 1.2 1 0.00674298 0.0175433 0.0136666 0.0289596 0.0293299 0.0362352 0.0307776 0.0491718 0.0466393 0.0578165 0.0519149 0.0528334 0.04908 0.0628774 0.0573172 0.0853688 0.0793227 0.0845489 0.0747041 0.0667686
64 3 O -1.01781 69.8323 3.68919 -1.2 1 0.0170152 0.0121384 0.0138572 0.0266773 0.0247027 0.0223335 0.0507152 0.0377159 0.0640617 0.0510518 0.0455901 0.0416106 0.0602982 0.0742752 0.0866486 0.063373 0.0880367 0.0694616 0.0833956 0.0634719
65 1 Mg -2.08913 76.2001 4.67434 1.2 1 0.0238434 0.0154501 0.0161723 0.0364287 0.015746 0.0283999 0.0280387 0.0416078 0.0410832 0.062158 0.0679108 0.0609541 0.0516873 0.0683818 0.0634784 0.0903809 0.0680803 0.0921556 0.0749992 0.0807325
66 2 Si 0.320027 78.1078 4.87381 2.4 1 0.0259486 0.0182463 0.0185813 0.031035 0.0385678 0.0331225 0.0393559 0.0363656 0.0523675 0.0611936 0.0607057 0.0681425 0.063701 0.0650681 0.0826246 0.0708117 0.0701363 0.0779397 0.0672245 0.0632519
67 3 O -1.12219 78.1194 4.63428 -1.2 1 0.0170764 0.0240997 0.0177524 0.0194995 0.0311789 0.0262118 0.0271954 0.0694005 0.0401161 0.0602857 0.0384208 0.065424 0.066043 0.0687025 0.0785946 0.065709 0.05741 0.0705033 0.0670222 0.0775376
68 3 O 1.68012 74.2211 4.80665 -1.2 1 0.030399 0.00981733 0.0227791 0.0298647 0.0186837 0.0323359 0.0332308 0.0430652 0.0555201 0.0468505 0.0507559 0.045033 0.0497123 0.0712972 0.0985872 0.0724537 0.0765884 0.0618624 0.0728656 0.0563835
69 3 O 1.15862 77.1883 3.4421 -1.2 1 0.0284167 0.0136076 0.0306405 0.0159769 0.0258508 0.0294103 0.0415732 0.0473277 0.0409722 0.0547493 0.0532196 0.0477364 0.0531648 0.0638514 0.0813937 0.0773734 0.0561772 0.075642 0.0623152 0.0568573
70 3 O 1.0586 77.4938 6.15938 -1.2 1 0.0222309 0.0158815 0.0259454 0.0270321 0.0285747 0.0257985 0.0468723 0.0506852 0.0449696 0.050652 0.0596389 0.0449034 0.0551041 0.0702028 0.0769242 0.0788371 0.0759676 0.0704916 0.0629428 0.0743784
71 1 Mg 0.0385719 73.9437 3.24661 1.2 1 0.0079276 0.0103746 0.0165956 0.0394795 0.0187556 0.0379431 0.0209222 0.0588683 0.0414627 0.0702398 0.0465838 0.0452932 0.0406984 0.0705621 0.0504086 0.102806 0.0542556 0.0899853 0.061761 0.0808044
72 1 Mg 0.267511 70.5663 4.91063 1.2 1 0.0177651 0.0153278 0.0211177 0.0318615 0.0203055 0.0379007 0.0281828 0.0398837 0.0424942 0.0479158 0.0596774 0.0595774 0.045408 0.0623963 0.0772396 0.0724946 0.0814319 0.0766516 0.0648066 0.0664999
73 2 Si 2.295 72.6588 4.69601 2.4 1 0.029408 0.022085 0.0253559 0.0270427 0.0286468 0.0410005 0.037327 0.045766 0.0650886 0.0517044 0.0544367 0.0644983 0.0692528 0.0694641 0.081314 0.0677224 0.0650976 0.0809138 0.0650455 0.0638348
74 3 O -0.897495 72.9327 4.68072 -1.2 1 0.0196203 0.0221093 0.0193103 0.024152 0.0246502 0.0262962 0.0311282 0.066618 0.0496836 0.0582603 0.0484553 0.0738431 0.061343 0.0671083 0.0709605 0.0745741 0.0671799 0.0762897 0.047531 0.08319
75 3 O 1.18196 68.6021 4.88678 -1.2 1 0.0236704 0.0336589 0.0191266 0.0272313 0.0168798 0.028788 0.0379669 0.0452006 0.0571496 0.0411001 0.0497099 0.0445601 0.0659951 0.0771428 0.0851816 0.0445718 0.0982775 0.0566175 0.0673023 0.0556934
76 3 O 1.5417 72.0698 3.36217 -1.2 1 0.018002 0.0195833 0.0212795 0.0292726 0.0256434 0.0191616 0.0508267 0.055281 0.0329087 0.0472943 0.0517451 0.0454942 0.061614 0.0730341 0.0979853 0.0711747 0.0749722 0.0712937 0.059627 0.0681027
77 1 Mg 0.249223 73.7482 0.223548 1.2 1 0.0197411 0.0057795 0.0164787 0.028525 0.017386 0.0443226 0.0201569 0.0547409 0.0416167 0.0740853 0.027481 0.0446681 0.0429063 0.064995 0.0388839 0.108128 0.0480794 0.0971806 0.0429754 0.0817903
78 3 O 1.48393 71.8953 5.94955 -1.2 1 0.01296 0.0176793 0.0228312 0.0261812 0.0367592 0.027929 0.0497982 0.0429415 0.0314952 0.0443962 0.0584984 0.0489998 0.0563324 0.055361 0.0902434 0.0830231 0.0705932 0.0676232 0.0699494 0.0587002
79 1 Mg 0.167866 76.5546 2.05801 1.2 1 0.0217462 0.0225805 0.0209503 0.0341335 0.0256095 0.0312148 0.0346194 0.0374644 0.0525391 0.0562221 0.0543954 0.0429294 0.0604834 0.06911 0.0670102 0.0775985 0.0762159 0.084228 0.0699774 0.066675
80 2 Si -1.82841 74.7166 1.55215 2.4 1 0.0169127 0.0252227 0.0298401 0.0307236 0.0298494 0.0359144 0.0493685 0.0399749 0.0638774 0.0554993 0.0478594 0.0718674 0.0675253 0.0686577 0.0807534 0.0619023 0.0712008 0.0890992 0.056675 0.0682656
81 3 O 1.39338 74.6815 1.57119 -1.2 1 0.0339187 0.0195661 0.0233757 0.0232387 0.0322995 0.0300329 0.0282876 0.059298 0.0491403 0.0531571 0.0464147 0.0675059 0.0526733 0.0718341 0.0732685 0.0668921 0.0663293 0.0729682 0.0544234 0.0705337
82 3 O -0.853922 78.3956 1.77323 -1.2 1 0.0220092 0.0263747 0.0168337 0.0201874 0.0238983 0.0355519 0.0354827 0.0460863 0.052358 0.0518037 0.039904 0.052928 0.049106 0.0635005 0.0978881 0.0582993 0.0684282 0.0630885 0.0578749 0.0654726
83 3 O -1.2062 75.4818 0.35951 -1.2 1 0.0049693 0.0202383 0.0346505 0.0233544 0.0233745 0.0228337 0.0549032 0.0370303 0.0399023 0.0488416 0.0704921 0.0465097 0.057958 0.0642439 0.0862882 0.0705126 0.0667859 0.0693266 0.0629589 0.0680565
84 3 O -1.16509 75.4393 2.89823 -1.2 1 0.0233203 0.0190505 0.0219952 0.0224169 0.0312583 0.0230983 0.0455575 0.0550037 0.0526283 0.0429406 0.0522247 0.0498431 0.0665756 0.0701132 0.0904899 0.0611002 0.0767194 0.0663802 0.0670383 0.0808162
85 1 Mg -2.17057 78.8912 -0.0963489 1.2 1 0.0282083 0.0192168 0.0256937 0.0297499 0.0224941 0.0266651 0.0291287 0.0507909 0.0373027 0.0653219 0.0309065 0.0396844 0.0365257 0.0693068 0.0545985 0.0873212 0.083159 0.0877286 0.0628459 0.0796108
86 1 Mg 2.46775 81.9129 1.65857 1.2 1 0.0180554 0.0175361 0.0145534 0.0387885 0.0157473 0.0275913 0.0368893 0.0267458 0.0511289 0.057663 0.0640437 0.0624194 0.0575372 0.0604026 0.0588484 0.0955458 0.0751777 0.0963056 0.0472004 0.0926141
87 2 Si -0.35349 80.0592 1.74739 2.4 1 0.0119742 0.0156884 0.0296557 0.0273095 0.0275885 0.0363431 0.0354808 0.0523349 0.057703 0.0504164 0.047762 0.0679788 0.06358 0.0586586 0.0803649 0.0592048 0.0678004 0.100395 0.0509383 0.0573419
88 3 O 1.23781 80.0914 1.60331 -1.2 1 0.00824098 0.0229941 0.00998404 0.0146427 0.0207681 0.0319926 0.0288446 0.0740922 0.0379848 0.0615416 0.0399834 0.0766758 0.0652279 0.0692056 0.0822213 0.0768127 0.0655666 0.0774019 0.048666 0.0817951
89 3 O -1.51506 84.2832 1.66661 -1.2 1 0.0272811 0.0307888 0.0198317 0.0295795 0.0241306 0.0258277 0.0339315 0.0458877 0.068519 0.0387388 0.0585512 0.0463806 0.0551613 0.0720458 0.0977845 0.0821173 0.0753304 0.0662224 0.0649758 0.060854
90 3 O -0.875697 80.5263 0.370438 -1.2 1 0.0334051 0.0267169 0.0294441 0.0124289 0.0315296 0.0248725 0.0509074 0.0379782 0.0473689 0.0453387 0.0457979 0.0586508 0.0561826 0.0718101 0.0629028 0.0723388 0.0836167 0.0650864 0.0713177 0.0652518
91 1 Mg -2.12604 90.0467 3.20589 1.2 1 0.0207973 0.0150846 0.0169496 0.0265201 0.0251319 0.0434456 0.020979 0.0689488 0.0369538 0.0726511 0.0368872 0.0498685 0.0502834 0.0672273 0.060645 0.0898709 0.0620307 0.0830408 0.0539766 0.077936
92 3 O -1.0219 80.7608 3.00508 -1.2 1 0.0217773 0.0210305 0.020983 0.025532 0.0350682 0.0174803 0.0493599 0.0558331 0.0463838 0.0444867 0.0552791 0.0477446 0.0437413 0.0605467 0.0968102 0.0710749 0.0832698 0.0623337 0.0760854 0.0624982
93 1 Mg -2.34947 86.8491 4.9655 1.2 1 0.0163797 0.0275008 0.0172282 0.0270577 0.0192268 0.0336033 0.0299123 0.0435811 0.0389528 0.0517671 0.0479841 0.0520344 0.0556369 0.0647951 0.0775669 0.07248 0.0775223 0.0817811 0.0688262 0.0629716
94 2 Si 0.405821 88.9478 4.34203 2.4 1 0.0115046 0.0200122 0.0329028 0.0323252 0.0387722 0.0269775 0.0371591 0.0470351 0.056031 0.0468816 0.0570037 0.0596231 0.0805765 0.059105 0.0791712 0.0745451 0.064508 0.0881951 0.0749257 0.0469626
95 3 O -1.06722 89.1409 4.55382 -1.2 1 0.0208762 0.0261076 0.0298894 0.0249236 0.0299316 0.0304321 0.0392464 0.0753152 0.0482935 0.0593447 0.0498965 0.0693974 0.0606988 0.0722567 0.0756832 0.0707242 0.0565572 0.0762026 0.0545824 0.0740666
96 3 O 1.28913 85.1338 4.93262 -1.2 1 0.0241589 0.0190488 0.022035 0.0254845 0.0176137 0.0347578 0.0430528 0.0369102 0.0469238 0.0497491 0.0536816 0.041539 0.0570803 0.0812887 0.0919387 0.0819951 0.0704991 0.0498552 0.0678323 0.067789
97 3 O 0.93027 88.1143 2.94833 -1.2 1 0.0235491 0.0219424 0.0123788 0.0334965 0.0317272 0.0250688 0.0419557 0.0451329 0.0585968 0.0568861 0.0593652 0.04983 0.0601505 0.0644956 0.0969895 0.0812116 0.0729638 0.0610847 0.0699169 0.0688606
98 3 O 0.978614 88.3793 5.72292 -1.2 1 0.0185342 0.0139599 0.0339181 0.0237572 0.0399858 0.0203856 0.0480469 0.0469911 0.0443866 0.0407136 0.0513025 0.0453511 0.0637143 0.0714502 0.0856653 0.0680536 0.0870492 0.0632481 0.0631986 0.0658083
99 1 Mg -0.143085 84.8223 3.14201 1.2 1 0.0138528 0.0218792 0.0105513 0.0430143 0.0236491 0.0386332 0.0238502 0.0661283 0.0375216 0.0699325 0.0332626 0.0478739 0.0313804 0.0780538 0.0522023 0.10099 0.0605381 0.0953362 0.0649271 0.0853055
100 1 Mg 0.0316498 81.6973 4.59297 1.2 1 0.0216653 0.0271666 0.0205135 0.0312487 0.0210769 0.0387533 0.0307451 0.04554 0.0439529 0.0587208 0.0610615 0.0517548 0.0579282 0.0738407 0.0626755 0.0896253 0.0637263 0.095046 0.0634161 0.070309
101 2 Si 2.00186 83.5164 4.82142 2.4 1 0.00835363 0.0204996 0.0203296 0.0322366 0.0358002 0.0355115 0.0406195 0.0460921 0.0575558 0.0522065 0.052354 0.0676946 0.0696462 0.0630195 0.0756868 0.0705495 0.0640025 0.0924363 0.0654757 0.0605672
102 3 O -1.17981 83.618 4.72842 -1.2 1 0.0294127 0.0256865 0.0163597 0.0212049 0.0246332 0.0348709 0.0279688 0.0680611 0.0480207 0.067049 0.0422605 0.0725669 0.0627679 0.0718111 0.0824321 0.0651066 0.0550156 0.0753938 0.0680867 0.0727809
103 3 O 0.877858 79.5709 4.67817 -1.2 1 0.0114593 0.0223349 0.0172753 0.0320293 0.021155 0.0314397 0.0361211 0.0383724 0.0558565 0.0495048 0.06154 0.0363786 0.0727822 0.0691108 0.0924274 0.0774536 0.0769159 0.0577457 0.0764188 0.0512429
104 3 O 1.46197 82.8734 3.47787 -1.2 1 0.0128857 0.0186883 0.0215643 0.0376935 0.0385141 0.0229365 0.0478929 0.056399 0.0404348 0.0521238 0.0508327 0.0497425 0.0574532 0.0806172 0.079618 0.0751442 0.0828644 0.0569886 0.0692612 0.0645616
105 1 Mg -0.10647 84.5763 0.0617057 1.2 1 0.0288632 0.0246449 0.00868519 0.0323757 0.0183398 0.0425055 0.0179538 0.0645374 0.0187485 0.0811094 0.02545 0.0523169 0.0329875 0.0733016 0.030048 0.103617 0.0354111 0.105862 0.0373012 0.0671075
106 3 O 1.24029 82.7868 6.00726 -1.2 1 0.0104951 0.0174778 0.0268413 0.0228633 0.0298059 0.0299938 0.0438406 0.0532858 0.0393333 0.056613 0.0548817 0.045287 0.0590054 0.0645633 0.0860249 0.0639514 0.0654508 0.0770865 0.0593285 0.0542414
107 1 Mg -0.0383967 87.8924 1.39217 1.2 1 0.0297727 0.00997035 0.0279738 0.0234424 0.0186692 0.0330853 0.029864 0.0413883 0.0428609 0.0494494 0.0549087 0.0603612 0.0533122 0.0575158 0.0819876 0.0583194 0.0791828 0.0790122 0.0717838 0.0642164
108 2 Si -2.16519 85.8211 1.53602 2.4 1 0.013881 0.0169836 0.0212987 0.0369689 0.0369714 0.0357045 0.0418291 0.0511657 0.0524188 0.0563693 0.0512687 0.0678372 0.0720631 0.0557696 0.0747498 0.0743451 0.0726913 0.0880365 0.0678506 0.0719905
109 3 O 0.926465 85.6785 1.5282 -1.2 1 0.0167536 0.0187466 0.0158155 0.0315354 0.0270261 0.0280019 0.0252665 0.082659 0.038707 0.063203 0.0294871 0.0602358 0.0641102 0.0764942 0.0757666 0.0736766 0.0683379 0.0678928 0.0691332 0.069421
110 3 O -1.07982 89.6863 1.5119 -1.2 1 0.017796 0.0145579 0.0251895 0.0222133 0.0188819 0.0358516 0.0420681 0.0390366 0.0563174 0.0413604 0.0522767 0.0552975 0.0640433 0.0707119 0.0978715 0.0705548 0.0756176 0.0621456 0.0727706 0.053726
111 3 O -1.50128 86.3884 0.263057 -1.2 1 0.0111812 0.028131 0.0361868 0.0275998 0.0388587 0.0282396 0.0535392 0.0420527 0.0464509 0.0450596 0.0622718 0.0372412 0.050519 0.0713848 0.0786484 0.0907774 0.0714656 0.0655029 0.0604115 0.0755298
112 3 O -1.53392 86.4318 3.15693 -1.2 1 0.00939959 0.0194865 0.0317426 0.0198022 0.0242354 0.0237264 0.0474943 0.0500046 0.0461114 0.0477744 0.0591328 0.0466662 0.0637277 0.0839765 0.0791536 0.0855853 0.0709707 0.0749348 0.0592217 0.0760646
113 1 Mg -2.65325 89.9064 0.115418 1.2 1 0.0173979 0.0218878 0.0166749 0.0334799 0.0236318 0.0366188 0.0232242 0.0644618 0.0304239 0.0658997 0.0408049 0.0360508 0.0404637 0.0646136 0.0569204 0.100533 0.0723398 0.0819054 0.0660133 0.0734561
114 1 Mg 2.0709 92.9784 1.66335 1.2 1 0.00565927 0.0240035 0.0177781 0.0245683 0.025744 0.0317645 0.0406499 0.02875 0.0487597 0.0593126 0.0768021 0.0531238 0.0559306 0.064211 0.0589273 0.0855102 0.0574439 0.0988526 0.0661816 0.069648
115 2 Si -0.470582 91.3245 1.57882 2.4 1 0.0145034 0.0108533 0.0189092 0.0218837 0.0316199 0.040248 0.031539 0.0454723 0.0651873 0.0453256 0.0544176 0.0731656 0.0656191 0.0682767 0.069496 0.0766677 0.0587099 0.0857632 0.0581405 0.0638395
116 3 O 1.2128 91.0078 1.66929 -1.2 1 0.0264858 0.0308745 0.0159837 0.020622 0.0217664 0.0339884 0.0307423 0.0771592 0.0550386 0.0663977 0.0515816 0.0732859 0.0550714 0.0751444 0.0833961 0.079831 0.0560497 0.0705351 0.0542554 0.0748164
117 3 O -1.26656 95.3057 1.62476 -1.2 1 0.0117139 0.0229041 0.0156623 0.021973 0.0229916 0.0284105 0.0429479 0.0439792 0.0636023 0.0413161 0.0563134 0.041407 0.0524972 0.0731884 0.0913238 0.0787103 0.083826 0.0602994 0.0645093 0.0653009
118 3 O -0.98641 92.0324 0.400556 -1.2 1 0.0295117 0.0198939 0.025928 0.0187159 0.029257 0.0307546 0.0499169 0.0453731 0.0353416 0.0430697 0.0714887 0.0458709 0.0586947 0.0781723 0.0766676 0.0878475 0.0690676 0.0769951 0.061079 0.0541885
119 1 Mg -2.6236 100.824 3.25576 1.2 1 0.0171953 0.0246539 0.020686 0.0353735 0.0215347 0.0423306 0.0226137 0.0539713 0.0303077 0.0684088 0.037187 0.0470369 0.0362509 0.0689302 0.04425 0.0910368 0.0592679 0.104183 0.0600797 0.0754877
120 3 O -1.19662 91.8227 2.85097 -1.2 1 0.00792076 0.0154024 0.0241555 0.0197431 0.0348687 0.032591 0.0526883 0.0508515 0.0400219 0.0434713 0.0649144 0.0456626 0.052183 0.057218 0.088739 0.0757949 0.0766333 0.0618991 0.0761896 0.0548504
121 1 Mg -2.47376 97.9727 4.93868 1.2 1 0.0145052 0.0177713 0.0278802 0.0365947 0.0266056 0.0359913 0.0300805 0.0444849 0.0508775 0.0495387 0.06826 0.0647824 0.0609486 0.0632483 0.060307 0.0803257 0.0705565 0.0848893 0.0684081 0.0724461
122 2 Si 0.176458 99.9874 4.85949 2.4 1 0.0130684 0.0188124 0.0246085 0.0364289 0.0338759 0.0372446 0.0368987 0.0378369 0.0589964 0.0533458 0.0562192 0.07415 0.0796835 0.0616614 0.0817225 0.0556196 0.0726233 0.0815225 0.0602388 0.0625207
123 3 O -1.4263 99.9041 4.76642 -1.2 1 0.0207426 0.0340492 0.015852 0.0208024 0.0266754 0.0315883 0.0282859 0.0665022 0.0347329 0.0722509 0.0339813 0.07016 0.0575779 0.0743972 0.0782313 0.0673212 0.0588209 0.0635331 0.0545632 0.0679035
124 3 O 1.43603 95.887 4.8695 -1.2 1 0.0263005 0.030532 0.0143619 0.0289118 0.0174988 0.0458166 0.0351238 0.0448138 0.0588015 0.0358548 0.0570523 0.0440008 0.0649726 0.0671689 0.0882264 0.0730851 0.0676113 0.0706247 0.0706739 0.0558769
125 3 O 0.845222 99.1516 3.55981 -1.2 1 0.0307748 0.0140444 0.029034 0.0197334 0.026945 0.0297791 0.048154 0.0486 0.0417072 0.0472067 0.0635314 0.0410907 0.0636153 0.0648594 0.0882989 0.0848038 0.076656 0.0680653 0.0528157 0.0635931