ITEM: TIMESTEP
18000
ITEM: NUMBER OF ATOMS
5600
ITEM: BOX BOUNDS xy xz yz pp pp pp
0	7.1235	0
0	201.985	2.3745
0	119.584	0
ITEM: ATOMS id type element xu yu zu q Q_1 Q_2 Q_3 Q_4 Q_5 Q_6 Q_7 Q_8 Q_9 Q_10 Q_11 Q_12 Q_13 Q_14 Q_15 Q_16 Q_17 Q_18 Q_19 Q_20 Q_21
1 1 Mg -1.51799 49.2348 -0.771731 1.2 1 0.460648 0.055431 0.144629 0.0328162 0.0793383 0.054668 0.0582025 0.0442683 0.076167 0.0606056 0.0709532 0.0939444 0.093036 0.0937862 0.113113 0.112908 0.0842468 0.0890229 0.0967199 0.109546
2 1 Mg 2.98825 51.4495 2.18265 1.2 1 0.280669 0.10044 0.0175044 0.0587382 0.0366992 0.0246715 0.0659377 0.0458797 0.075218 0.0843439 0.0573424 0.0747584 0.0701811 0.0786448 0.0687052 0.0774321 0.0624623 0.0910373 0.0845148 0.081985
3 2 Si 0.883043 50.875 0.364768 2.4 1 0.308851 0.120644 0.0437459 0.0700974 0.0392302 0.0347862 0.0631183 0.0547816 0.0847659 0.0792152 0.0588819 0.0648814 0.0645417 0.0677877 0.0785387 0.0707174 0.0944758 0.0814525 0.0692413 0.0845908
4 3 O 2.31688 50.1581 0.606835 -1.2 1 0.369719 0.119967 0.0935953 0.0673165 0.0266519 0.0645438 0.0333359 0.0801218 0.0541864 0.0929283 0.0537275 0.0824862 0.0750949 0.0850989 0.106092 0.0847946 0.078189 0.0655916 0.082352 0.101116
5 3 O -1.27472 53.5606 1.53074 -1.2 1 0.121877 0.0703285 0.0423274 0.0194694 0.0188482 0.030434 0.0421102 0.0445288 0.0630096 0.0624348 0.0465573 0.0507114 0.0569264 0.0646728 0.0868941 0.0730824 0.0974736 0.056495 0.0641544 0.0789629
6 3 O 0.206094 50.096 -0.789373 -1.2 1 0.38447 0.0971543 0.0855075 0.0612757 0.0360637 0.06423 0.034393 0.0626191 0.0686156 0.0811543 0.0656717 0.0800402 0.103441 0.0942649 0.0962617 0.0933509 0.0667945 0.0694122 0.0821319 0.0863899
7 1 Mg -2.36467 59.3324 3.10406 1.2 1 0.0114846 0.0132515 0.010446 0.0331903 0.00834656 0.0344961 0.0088275 0.0608991 0.00947243 0.0815135 0.013244 0.0533864 0.0119396 0.070698 0.015812 0.103615 0.0207288 0.119911 0.0226867 0.0988401
8 3 O 0.103477 50.8356 1.71768 -1.2 1 0.327292 0.125382 0.0527112 0.0631968 0.0366187 0.0432218 0.0580101 0.0589995 0.0861433 0.0994112 0.0738338 0.0633721 0.0575011 0.0578443 0.0840277 0.0775944 0.0740813 0.0803019 0.0733935 0.100941
9 1 Mg -2.43585 56.4184 4.51011 1.2 1 0.0183476 0.0207283 0.0127029 0.0319114 0.01062 0.0274616 0.022437 0.0334492 0.0457576 0.0551645 0.0641736 0.0493507 0.0552895 0.06433 0.0544922 0.0723588 0.0720303 0.099955 0.0673065 0.0816274
10 2 Si 0.292377 58.272 4.65088 2.4 1 0.0210172 0.0147758 0.0168647 0.0280703 0.0281446 0.0304228 0.0468131 0.0383467 0.0500366 0.0613162 0.054221 0.0653612 0.0667427 0.0568506 0.0846079 0.0615678 0.0605475 0.0936163 0.0567948 0.064313
11 3 O -1.24364 58.4199 4.59154 -1.2 1 0.0211564 0.0124901 0.0174039 0.0228465 0.0304743 0.0271407 0.0181709 0.066385 0.0345704 0.0575619 0.0444501 0.0679223 0.0565224 0.0651867 0.0743478 0.0763779 0.0615545 0.0763447 0.0544669 0.0791651
12 3 O 1.28949 54.7771 4.66128 -1.2 1 0.0662854 0.0402421 0.0418323 0.0209093 0.0259921 0.0339487 0.026328 0.041851 0.0524063 0.052835 0.0523087 0.0585392 0.0554468 0.0644561 0.0925313 0.0649003 0.0695837 0.0680967 0.0632394 0.0778206
13 3 O 1.00971 57.7108 3.3511 -1.2 1 0.0133069 0.00922972 0.0281073 0.0212111 0.0145753 0.0297387 0.0482255 0.0505297 0.0387947 0.0466925 0.0485906 0.0518408 0.0512474 0.0666904 0.0859887 0.0787335 0.0660598 0.0543163 0.0650407 0.075271
14 3 O 1.01157 57.6209 5.89865 -1.2 1 0.0179494 0.0127746 0.0236543 0.0133042 0.0249454 0.0267076 0.049946 0.0465907 0.0373232 0.0507912 0.0567511 0.0449085 0.0473539 0.0659569 0.0874297 0.0785958 0.0686622 0.059335 0.0603024 0.067691
15 1 Mg 0.0493078 54.2099 3.16701 1.2 1 0.0715599 0.0683887 0.0461266 0.0298828 0.019629 0.027764 0.0247316 0.0598083 0.0413086 0.0707174 0.0398423 0.0515014 0.0447829 0.0570266 0.0564105 0.0840628 0.0609864 0.10778 0.0568749 0.0917583
16 1 Mg 0.761802 50.6881 3.49565 1.2 1 0.336873 0.119182 0.0527026 0.0770848 0.0325697 0.0558518 0.056293 0.0676222 0.0539516 0.0770089 0.0568228 0.0716399 0.0640379 0.0761379 0.0813365 0.0784198 0.0863233 0.0915785 0.0803081 0.0893659
17 2 Si 2.02463 53.3692 4.61843 2.4 1 0.120314 0.0829529 0.0614159 0.0351668 0.0149496 0.0282042 0.0409738 0.0491687 0.0588051 0.0891061 0.0754798 0.0820808 0.0623616 0.0887605 0.0853492 0.0831941 0.0739003 0.0880309 0.0699167 0.068179
18 3 O -1.1729 53.249 4.58157 -1.2 1 0.143686 0.10439 0.0415262 0.0246184 0.0159143 0.0224057 0.0443611 0.0578071 0.0483326 0.0724678 0.0329088 0.0928686 0.0559968 0.0806984 0.0737049 0.0904472 0.0931647 0.0632505 0.0777017 0.082017
19 3 O 2.66284 50.1809 3.66825 -1.2 1 0.386614 0.0999682 0.0884015 0.0595017 0.033013 0.0622287 0.0498598 0.0854309 0.0624128 0.0871981 0.0550188 0.0583587 0.0603796 0.0820578 0.102423 0.0943227 0.0914563 0.0731248 0.0804466 0.08285
20 3 O 1.43424 52.6238 3.35 -1.2 1 0.190576 0.097022 0.0240037 0.0175331 0.0277088 0.0384747 0.0483049 0.0535989 0.0537586 0.0660809 0.0493675 0.0634537 0.0735805 0.069303 0.0733856 0.0667326 0.0953274 0.0742869 0.0722067 0.0901206
21 1 Mg 0.0406651 54.1517 0.00572521 1.2 1 0.081055 0.0653736 0.0361365 0.0336009 0.0213683 0.0241877 0.0320956 0.0604134 0.0482862 0.0666603 0.0407108 0.0549961 0.0562374 0.0616605 0.0533477 0.0890587 0.0780358 0.088907 0.0719142 0.0821981
22 3 O 1.28477 52.5786 5.88114 -1.2 1 0.190032 0.0930377 0.0283184 0.0211913 0.0324206 0.028584 0.0352083 0.0627923 0.0611324 0.0604075 0.0526592 0.0707499 0.0620872 0.075997 0.086402 0.0730155 0.0824713 0.0811379 0.0740774 0.0925427
23 1 Mg 0.122244 56.9275 1.67215 1.2 1 0.0171527 0.0134556 0.0177819 0.0262218 0.0184106 0.029511 0.0272573 0.0455448 0.0367674 0.058634 0.0568853 0.0493782 0.0680813 0.0623852 0.0705897 0.085648 0.0719994 0.0780943 0.0747686 0.0884988
24 2 Si -2.04981 55.05 1.64603 2.4 1 0.0358029 0.0451584 0.0304666 0.0317194 0.0181448 0.0391645 0.0467903 0.0404631 0.0647122 0.0615836 0.0561673 0.0662502 0.0785449 0.0534575 0.0731603 0.0610762 0.0772612 0.076983 0.0726893 0.0645396
25 3 O 1.17449 55.0768 1.73213 -1.2 1 0.0381488 0.0357655 0.0413983 0.0306873 0.0152161 0.0279208 0.0289282 0.0612687 0.0400566 0.0540123 0.0558827 0.0558747 0.0589338 0.0729031 0.0709394 0.0565005 0.0626777 0.0563594 0.0711328 0.0724106
26 3 O -1.02628 58.7891 1.64217 -1.2 1 0.0119119 0.0188062 0.0262433 0.0194116 0.0226312 0.0328005 0.0353102 0.04595 0.0510129 0.0477678 0.0410035 0.0448251 0.0519188 0.0715635 0.104145 0.0696802 0.0717511 0.0525025 0.0815764 0.0593215
27 3 O -1.39343 55.7776 0.343226 -1.2 1 0.0360795 0.020269 0.0301519 0.0258347 0.0237545 0.0229374 0.0500483 0.0398487 0.0391824 0.0409491 0.0676597 0.0436399 0.0597651 0.0566018 0.0886666 0.0723058 0.0632249 0.0679511 0.0725784 0.0780701
28 3 O -1.39944 55.6888 2.98782 -1.2 1 0.0236642 0.0374957 0.0307707 0.0255034 0.0157863 0.0232429 0.0537093 0.0489242 0.048905 0.0418205 0.0588886 0.0601676 0.063119 0.0756548 0.081161 0.0729466 0.072526 0.069235 0.0707582 0.0712673
29 1 Mg -2.45757 59.0978 0.162669 1.2 1 0.0129254 0.0167965 0.00783305 0.0269889 0.0124641 0.0371137 0.016509 0.0574277 0.0196102 0.086982 0.0247053 0.0483819 0.0242885 0.0698812 0.0257823 0.100413 0.0402111 0.111055 0.0447792 0.093922
30 1 Mg 2.35976 62.0327 1.6909 1.2 1 0.00971105 0.0123842 0.0184062 0.030102 0.0158333 0.0253735 0.0230688 0.0323505 0.0396167 0.0617584 0.0516598 0.0535088 0.0600069 0.0675168 0.0576275 0.0913639 0.06074 0.103056 0.0620283 0.0926678
31 2 Si -0.358646 60.2222 1.56577 2.4 1 0.0138451 0.0155396 0.019115 0.0362386 0.027636 0.032745 0.0437285 0.0396394 0.049329 0.0577236 0.0508095 0.0629241 0.0678571 0.0600109 0.0816839 0.0706018 0.0562303 0.0912471 0.0574983 0.0572972
32 3 O 1.20394 60.1819 1.6462 -1.2 1 0.0245631 0.00852659 0.0107842 0.0256567 0.02536 0.0288546 0.0265571 0.066867 0.0361445 0.0559813 0.0463855 0.0654953 0.0525256 0.0631676 0.0701814 0.0638588 0.0502954 0.0777432 0.0591745 0.0825742
33 3 O -1.38584 63.9349 1.53983 -1.2 1 0.0109114 0.0153842 0.0238661 0.0166388 0.0209853 0.0307661 0.0322303 0.0436467 0.0524665 0.0428933 0.0430653 0.0448382 0.0489179 0.0668386 0.105083 0.0698768 0.0703083 0.0561214 0.0706704 0.0643202
34 3 O -1.06778 60.8398 0.214908 -1.2 1 0.0131578 0.0207567 0.0285756 0.0173091 0.0164949 0.0278682 0.0412564 0.044072 0.0410312 0.0394393 0.0605735 0.0392347 0.0497259 0.05065 0.0898909 0.0681558 0.0746507 0.0606388 0.0644356 0.0811697
35 1 Mg -2.28928 69.8608 3.13185 1.2 1 0.0109459 0.0116541 0.00790752 0.0275596 0.0161423 0.0351432 0.0143965 0.0593331 0.0187208 0.0749421 0.0211101 0.0498276 0.0242142 0.0703483 0.0237669 0.0979634 0.0425103 0.110669 0.0425822 0.0864617
36 3 O -1.05226 60.968 2.82534 -1.2 1 0.0164505 0.0108563 0.0270722 0.0243896 0.0300006 0.0230089 0.0441651 0.044688 0.0369037 0.0406107 0.0542198 0.0407861 0.0548906 0.059224 0.0887285 0.0691891 0.0748949 0.0645384 0.0678477 0.0714999
37 1 Mg -2.24425 66.9015 4.57606 1.2 1 0.00972943 0.0111609 0.0147605 0.0271845 0.0174094 0.024762 0.0212845 0.0313549 0.0429778 0.0675686 0.0554857 0.0566825 0.0623096 0.068118 0.0647661 0.0867442 0.066851 0.0986666 0.0689032 0.0849679
38 2 Si 0.374435 68.6604 4.64815 2.4 1 0.0144347 0.0134698 0.0163695 0.0367611 0.0276609 0.0300799 0.0417518 0.0384374 0.0455197 0.0555579 0.0575176 0.0662911 0.0716425 0.055751 0.0760523 0.0723623 0.0566886 0.0927613 0.0598041 0.0586395
39 3 O -1.13337 68.7723 4.62432 -1.2 1 0.0237953 0.0214729 0.0135289 0.0195606 0.0242107 0.0286517 0.0219794 0.0651278 0.0408019 0.0602118 0.0446253 0.0686101 0.057281 0.0661663 0.0705422 0.0642096 0.0605635 0.0754885 0.0553895 0.0730914
40 3 O 1.44752 65.0217 4.47945 -1.2 1 0.0144976 0.0196506 0.0236069 0.0217202 0.0143932 0.0380982 0.0326713 0.045337 0.0571817 0.0460643 0.049526 0.045547 0.0579159 0.0676875 0.103667 0.0761364 0.064514 0.0545091 0.0756576 0.0635843
41 3 O 1.06138 68.0699 3.31979 -1.2 1 0.0298472 0.00405393 0.0294836 0.0243051 0.0215407 0.0172628 0.0479845 0.0423552 0.0343088 0.0388423 0.0557537 0.0394391 0.0544284 0.0641465 0.0885515 0.072595 0.0832518 0.058519 0.0673221 0.0685308
42 3 O 1.01482 68.0627 5.94316 -1.2 1 0.0166407 0.00571934 0.032552 0.0198873 0.019265 0.0205773 0.0432978 0.0504531 0.0399355 0.0505753 0.0525266 0.0346961 0.0556624 0.0727612 0.0795701 0.0735571 0.0740238 0.0640156 0.0670012 0.069976
43 1 Mg 0.0446601 64.4877 3.01765 1.2 1 0.00247181 0.0134234 0.0077492 0.0317565 0.00716433 0.0310293 0.0106236 0.0604899 0.0128459 0.0822658 0.0136185 0.048096 0.0156372 0.0734715 0.0177363 0.1028 0.0211016 0.112554 0.0261301 0.095175
44 1 Mg -0.047755 61.6194 4.62495 1.2 1 0.0191408 0.0142327 0.0185342 0.0302344 0.0180749 0.0230284 0.0255495 0.0307962 0.0406014 0.0638446 0.0531592 0.0560918 0.0637562 0.0659042 0.0663553 0.0765101 0.070737 0.0992179 0.0705346 0.0830309
45 2 Si 2.10281 63.5783 4.58865 2.4 1 0.00434085 0.0132082 0.0215287 0.0401055 0.0298443 0.0276766 0.041243 0.0428034 0.0515405 0.0600298 0.0511103 0.070749 0.0707723 0.0555743 0.0781497 0.0661484 0.0620897 0.0948649 0.0494306 0.0642489
46 3 O -1.06025 63.6001 4.67931 -1.2 1 0.0186785 0.0159904 0.0152362 0.0212314 0.0258604 0.0264442 0.01972 0.0747996 0.0404429 0.0638578 0.0447962 0.0705638 0.0514568 0.0662803 0.0757369 0.0665857 0.060901 0.073838 0.0597852 0.0774392
47 3 O 0.956678 59.8138 4.70841 -1.2 1 0.012348 0.0177062 0.0274833 0.0226245 0.0200476 0.0337757 0.035272 0.0502644 0.0568477 0.0427558 0.0445119 0.0431829 0.0535471 0.0664896 0.108311 0.0771272 0.0659659 0.0560042 0.0683405 0.0593085
48 3 O 1.4948 62.8027 3.32234 -1.2 1 0.0023254 0.0147551 0.023444 0.0170893 0.0190641 0.0244023 0.046094 0.0416531 0.0357085 0.0507447 0.0505875 0.0412648 0.056978 0.0704755 0.0689508 0.0704327 0.0753045 0.065903 0.0691678 0.0694046
49 1 Mg -0.0886106 64.5681 -0.0470768 1.2 1 0.0186604 0.0162641 0.00842998 0.0290602 0.0118251 0.033559 0.017555 0.0521477 0.0263228 0.0809637 0.0250289 0.0458319 0.0239138 0.0676688 0.0320281 0.0981613 0.0408614 0.10751 0.0496237 0.0889439
50 3 O 1.36997 62.9349 5.93855 -1.2 1 0.0199454 0.0069932 0.0316132 0.0293087 0.0213072 0.0191214 0.0504128 0.0470371 0.041605 0.0448098 0.0535872 0.0446971 0.0518208 0.061664 0.089464 0.0720531 0.0760041 0.0601605 0.0641075 0.0743615
51 1 Mg 0.0317986 67.3339 1.63084 1.2 1 0.00768053 0.0138068 0.0204491 0.0296301 0.0152492 0.0244582 0.0208044 0.0293071 0.042278 0.0681758 0.0545328 0.0508849 0.0603404 0.0630619 0.0582962 0.0835826 0.0667934 0.101947 0.0617308 0.0886819
52 2 Si -2.06162 65.4646 1.5895 2.4 1 0.00642532 0.0126111 0.0212196 0.037203 0.0279677 0.0329745 0.0399828 0.0371911 0.0523028 0.0555186 0.0485479 0.0686233 0.0664085 0.0578999 0.0843678 0.0583916 0.0603139 0.095987 0.0558206 0.0609934
53 3 O 1.12346 65.4312 1.60671 -1.2 1 0.0168353 0.0184589 0.0141517 0.0298396 0.0200528 0.0277967 0.0224335 0.0714047 0.0377942 0.0593419 0.0386652 0.0673455 0.051736 0.0653638 0.0711661 0.0684867 0.054391 0.0733635 0.055463 0.074533
54 3 O -0.984304 69.2081 1.58543 -1.2 1 0.00622617 0.023584 0.0264026 0.0130352 0.0177187 0.0325231 0.0335659 0.0468714 0.0533706 0.0420016 0.0427119 0.0456981 0.0478896 0.0685172 0.10346 0.0714754 0.0704423 0.0513901 0.0764585 0.0650324
55 3 O -1.38186 66.0799 0.272113 -1.2 1 0.0115425 0.0214331 0.0296558 0.0294077 0.025322 0.0235371 0.0513015 0.04784 0.0406257 0.0495946 0.0491692 0.0472213 0.0561143 0.0636996 0.0846264 0.0724446 0.0743009 0.0574141 0.0668285 0.0786296
56 3 O -1.34359 66.173 2.8447 -1.2 1 0.00505219 0.00761549 0.0235217 0.0164526 0.0250819 0.01693 0.045491 0.0456153 0.0390091 0.0439153 0.0496191 0.0396003 0.0535288 0.0616574 0.0801719 0.0692256 0.0732442 0.0648546 0.0686309 0.0650865
57 1 Mg -2.35475 69.7497 0.0535284 1.2 1 0.0140662 0.0135944 0.0147084 0.0263584 0.0102689 0.0333484 0.013169 0.054576 0.0198312 0.0837828 0.023515 0.0511038 0.0185874 0.071435 0.019831 0.103292 0.0254807 0.11283 0.02918 0.0910271
58 1 Mg 2.34107 72.5477 1.59679 1.2 1 0.0118438 0.0123951 0.0151628 0.0247712 0.0228856 0.0233278 0.0226946 0.0287898 0.0435587 0.0658812 0.0561066 0.0573612 0.0619182 0.0681374 0.0619159 0.0772588 0.0734631 0.105326 0.0617468 0.087179
59 2 Si -0.285859 70.7239 1.60973 2.4 1 0.0293279 0.0154574 0.0125281 0.0275035 0.0253181 0.0264722 0.0428031 0.040805 0.0439415 0.0577939 0.0566959 0.0659581 0.0694425 0.0557207 0.0755549 0.0672852 0.0582739 0.0906997 0.0605342 0.0587322
60 3 O 1.2833 70.6772 1.56167 -1.2 1 0.0256089 0.0127674 0.0136947 0.0281336 0.0193238 0.0247542 0.022126 0.0747667 0.0365492 0.0594609 0.0387721 0.0699275 0.0538512 0.0670415 0.0754757 0.067917 0.0564418 0.0724278 0.0626057 0.0730408
61 3 O -1.50956 74.458 1.67715 -1.2 1 0.0131005 0.0162454 0.0219298 0.0268513 0.0180809 0.0332722 0.0300122 0.0434145 0.0614034 0.0396897 0.0478356 0.0403453 0.0555956 0.0704517 0.101158 0.0764707 0.0654004 0.0490182 0.0706364 0.0633404
62 3 O -0.991431 71.3664 0.39146 -1.2 1 0.0110309 0.013377 0.021718 0.0134068 0.0195155 0.0211449 0.0470026 0.0421641 0.0323621 0.0457272 0.0504945 0.0389755 0.0546532 0.0650633 0.0793706 0.0685804 0.0783887 0.059795 0.0658684 0.0692551
63 1 Mg -2.49499 80.0985 2.93888 1.2 1 0.00683036 0.0154328 0.0095395 0.0353503 0.00677649 0.0359571 0.00877525 0.0580849 0.0112297 0.0807583 0.0151474 0.0515279 0.0140591 0.0676302 0.0192991 0.108994 0.0229084 0.114492 0.024182 0.101775
64 3 O -0.959554 71.3918 2.88957 -1.2 1 0.00362265 0.00508514 0.0252829 0.0202407 0.020892 0.0177584 0.0452162 0.0423633 0.0381238 0.0472513 0.0498495 0.0416026 0.0555826 0.0612156 0.076396 0.0764868 0.0761797 0.0536887 0.0645009 0.0752558
65 1 Mg -2.38201 77.2285 4.55679 1.2 1 0.0113211 0.0163267 0.0180597 0.0293563 0.0162397 0.0197084 0.0216013 0.0254707 0.0399482 0.0656541 0.0487516 0.0588489 0.0613037 0.0663151 0.061375 0.074853 0.0705762 0.105016 0.0661979 0.090535
66 2 Si 0.297035 79.1166 4.51903 2.4 1 0.0224629 0.0090291 0.0163984 0.0318358 0.0277157 0.0294741 0.0444626 0.0404978 0.047708 0.0540006 0.0543682 0.0653765 0.0727549 0.0544168 0.0809601 0.0657106 0.0571346 0.096079 0.0571131 0.0589601
67 3 O -1.2584 79.225 4.52964 -1.2 1 0.0199243 0.0149993 0.0111645 0.02063 0.0245499 0.0223886 0.0249214 0.0691102 0.0363771 0.04483 0.0465048 0.0699055 0.0477181 0.0658702 0.0772334 0.0717684 0.0516457 0.0756538 0.055493 0.079132
68 3 O 1.40115 75.4694 4.47323 -1.2 1 0.00575863 0.018003 0.0266676 0.0137553 0.01683 0.0310695 0.0283414 0.044403 0.0518337 0.0458332 0.0415567 0.0479737 0.0461319 0.0730337 0.102538 0.0702855 0.0631898 0.0567177 0.068291 0.0670497
69 3 O 1.00261 78.4069 3.19843 -1.2 1 0.00825881 0.0132063 0.0219165 0.0191239 0.0165079 0.0178976 0.047357 0.0391917 0.0358842 0.0436905 0.0499836 0.0403059 0.0598373 0.056138 0.081863 0.0684951 0.0703201 0.0662652 0.0618206 0.0679042
70 3 O 1.03592 78.4716 5.80699 -1.2 1 0.00600697 0.0162345 0.0323492 0.0176931 0.0172604 0.0175764 0.0432284 0.0426778 0.0334785 0.0446289 0.0505149 0.0400034 0.0535748 0.0598457 0.0814389 0.0661693 0.0790876 0.0650092 0.06512 0.0677901
71 1 Mg -0.0175854 74.7189 2.91063 1.2 1 0.0229701 0.0134855 0.0141949 0.0277935 0.0182817 0.0344865 0.0168243 0.0525873 0.0312688 0.0777728 0.0274868 0.0487191 0.0280581 0.0723919 0.0319433 0.0977147 0.0496545 0.105322 0.0514548 0.085922
72 1 Mg -0.0637603 72.0166 4.54536 1.2 1 0.0173066 0.0193997 0.0185631 0.0279491 0.0210973 0.0191477 0.0235197 0.0293172 0.0416219 0.0603055 0.0540103 0.0599233 0.0629182 0.0601102 0.0612295 0.0730294 0.0760145 0.101889 0.0693881 0.0722939
73 2 Si 2.08855 73.9367 4.50073 2.4 1 0.0100264 0.0165034 0.0212848 0.0287387 0.0276936 0.0295226 0.0436325 0.041177 0.0533094 0.0538833 0.0504921 0.0643401 0.0686015 0.059048 0.0834087 0.0645037 0.0626409 0.095523 0.0529226 0.0593292
74 3 O -1.04515 73.9618 4.4754 -1.2 1 0.0234177 0.0162241 0.0145257 0.0201958 0.0196486 0.0285365 0.024359 0.071015 0.0326719 0.0574676 0.0370999 0.0665741 0.05127 0.0678864 0.0799134 0.0677272 0.0514027 0.0715881 0.0638601 0.0751497
75 3 O 1.1838 70.2435 4.62952 -1.2 1 0.0118971 0.017319 0.0242847 0.017947 0.018549 0.0399985 0.0397543 0.045389 0.0470385 0.0449243 0.0418579 0.0525558 0.0473491 0.0640691 0.106132 0.068816 0.0758427 0.0607782 0.0739433 0.0576608
76 3 O 1.41748 73.2237 3.3179 -1.2 1 0.0046807 0.00741808 0.0277946 0.0164231 0.0250333 0.0257217 0.0453647 0.0432645 0.0349168 0.0492063 0.0535997 0.0449222 0.0563358 0.0678457 0.0815816 0.0703501 0.0711497 0.0531515 0.0693483 0.06579
77 1 Mg -0.171682 74.8269 0.0675434 1.2 1 0.0145249 0.0133619 0.0107782 0.0310831 0.0073375 0.0366741 0.0109427 0.0575838 0.0161729 0.0818521 0.0155389 0.049301 0.0184904 0.0684912 0.0223477 0.109257 0.0249563 0.114122 0.0357549 0.0892855
78 3 O 1.45759 73.2907 5.83289 -1.2 1 0.00474953 0.0186779 0.0214682 0.0206836 0.0260874 0.0202462 0.0521372 0.0425695 0.0351239 0.048584 0.0498629 0.0412815 0.0555707 0.0649296 0.0821053 0.0761068 0.0747709 0.0509288 0.0682542 0.0736387
79 1 Mg -0.00114309 77.7899 1.55236 1.2 1 0.0155995 0.014671 0.0165525 0.0243189 0.00968862 0.0271286 0.0187049 0.034437 0.0386298 0.0650458 0.0539024 0.0563796 0.0642434 0.0689092 0.0617 0.076392 0.0710777 0.101348 0.0716463 0.0791047
80 2 Si -2.11619 75.985 1.60041 2.4 1 0.0136789 0.0173106 0.0182323 0.0356481 0.0301074 0.0299579 0.0404298 0.039322 0.0498816 0.0578466 0.0555847 0.0645295 0.0724101 0.0548321 0.0718946 0.0754817 0.0613027 0.0944574 0.0570955 0.0591691
81 3 O 1.04504 75.8523 1.58143 -1.2 1 0.0234125 0.0137234 0.0113512 0.0226502 0.0290791 0.0211244 0.024984 0.0745974 0.0383432 0.0576031 0.0401357 0.0657 0.0508486 0.0626433 0.07292 0.0608376 0.0529899 0.0708568 0.0651378 0.0734665
82 3 O -1.09878 79.5076 1.48183 -1.2 1 0.0127211 0.0191899 0.0244752 0.0140299 0.0227971 0.0370307 0.0321336 0.0439637 0.0499875 0.0478745 0.0384335 0.0505884 0.0489303 0.0623418 0.105482 0.0675774 0.0733796 0.054489 0.0682248 0.0653313
83 3 O -1.46595 76.5631 0.269422 -1.2 1 0.0121497 0.0139207 0.0165582 0.0233123 0.0201389 0.0222218 0.0482947 0.0430114 0.0322362 0.0476309 0.0572855 0.0420826 0.0553439 0.0584554 0.0801727 0.0751472 0.0679772 0.0569545 0.0706674 0.0656948
84 3 O -1.47378 76.7732 2.77189 -1.2 1 0.00226411 0.0113784 0.0272725 0.0159203 0.0253365 0.0223913 0.0446176 0.0463393 0.0347646 0.0495666 0.0580664 0.0298241 0.0517933 0.0644622 0.0787415 0.0800704 0.0706211 0.0694672 0.0634498 0.0608614
85 1 Mg -2.45608 79.9847 0.0100698 1.2 1 0.0120678 0.00957519 0.00849843 0.029235 0.00696189 0.0335306 0.00650105 0.0592375 0.0101085 0.0824784 0.0153225 0.0480505 0.0155128 0.0702369 0.0223046 0.1016 0.0261169 0.11174 0.0346711 0.0975062
86 1 Mg 2.22621 82.9974 1.49232 1.2 1 0.0125593 0.0167398 0.0185722 0.0327412 0.015454 0.0277534 0.0208368 0.0311788 0.037064 0.0610813 0.0587763 0.0532755 0.0597312 0.0638993 0.0643247 0.0741689 0.0682188 0.0970138 0.0712066 0.086826
87 2 Si -0.440317 81.0443 1.48441 2.4 1 0.0146962 0.0123581 0.0182824 0.0297599 0.0312959 0.0346769 0.0400516 0.0367079 0.0543917 0.0500033 0.0500794 0.0696581 0.0701857 0.0598565 0.0790274 0.0643512 0.0614034 0.0942267 0.0542099 0.057775
88 3 O 1.12705 80.935 1.41705 -1.2 1 0.0381663 0.0117321 0.0216224 0.0208677 0.0237502 0.0283079 0.0222995 0.0627956 0.0428927 0.0520021 0.0428633 0.0713495 0.0493125 0.065092 0.0735656 0.0687566 0.0628067 0.0723046 0.0559386 0.0787669
89 3 O -1.39442 84.7456 1.45855 -1.2 1 0.00919494 0.0241235 0.0207335 0.00949473 0.0230666 0.0337732 0.0326239 0.03999 0.0441042 0.0491915 0.0410509 0.0491818 0.0455077 0.0663267 0.100814 0.065928 0.0749431 0.0574456 0.0669118 0.0686066
90 3 O -1.11542 81.7396 0.170028 -1.2 1 0.0166795 0.0111795 0.0278369 0.0223042 0.0219378 0.0196368 0.0462271 0.0413796 0.0346752 0.0417956 0.0554824 0.0421506 0.0519532 0.0577222 0.0842701 0.0700324 0.0728726 0.0620585 0.0644156 0.0732953
91 1 Mg -2.45172 90.5641 2.902 1.2 1 0.010877 0.0209534 0.00585819 0.0322607 0.00544855 0.0377997 0.00738576 0.0606109 0.0114758 0.0849695 0.0103512 0.0539207 0.0129041 0.0741487 0.0114805 0.105769 0.0158668 0.114691 0.0185256 0.0918478
92 3 O -1.11311 81.6711 2.78553 -1.2 1 0.0158132 0.0148105 0.0223806 0.0282749 0.0258291 0.0197126 0.045631 0.0451495 0.0400318 0.038261 0.0495872 0.0428701 0.0531076 0.0593701 0.0877148 0.0666465 0.07452 0.057613 0.0644008 0.0734691
93 1 Mg -2.24543 87.6581 4.38804 1.2 1 0.0229932 0.0199609 0.018944 0.0354289 0.019634 0.0310775 0.0223127 0.0341796 0.0377734 0.060043 0.0598303 0.0534659 0.0628024 0.0681751 0.0694506 0.0823619 0.0695435 0.0864012 0.0770182 0.0758174
94 2 Si 0.250523 89.4917 4.35669 2.4 1 0.0100639 0.0151882 0.0173693 0.031853 0.0372958 0.0309947 0.041976 0.0402865 0.048426 0.0596329 0.057679 0.0648135 0.0718355 0.054201 0.0817765 0.0737154 0.0636248 0.0904579 0.0613507 0.0621097
95 3 O -1.28752 89.6158 4.40828 -1.2 1 0.0133512 0.00973563 0.0154284 0.0250708 0.0223704 0.030975 0.0240111 0.0745813 0.0389464 0.0561492 0.0401003 0.0658966 0.056716 0.0718182 0.0694211 0.067111 0.0590297 0.076038 0.0623172 0.0771888
96 3 O 1.39174 85.8219 4.35193 -1.2 1 0.016277 0.0202644 0.0191588 0.0273295 0.0178782 0.0397546 0.0381911 0.0437217 0.0515125 0.0435491 0.0492023 0.0467354 0.0523937 0.0689375 0.102902 0.0724216 0.0713619 0.0523008 0.0734945 0.0596511
97 3 O 0.996891 88.7893 3.13445 -1.2 1 0.00269313 0.0150811 0.0245966 0.0248639 0.0235662 0.0187859 0.0469772 0.0447715 0.0378047 0.0464811 0.056175 0.0388197 0.0572506 0.0560567 0.0858322 0.0807859 0.0683748 0.0624772 0.0614516 0.069795
98 3 O 0.914829 88.7724 5.6547 -1.2 1 0.017387 0.0162767 0.0293207 0.0131598 0.0233003 0.0217821 0.0471354 0.0465444 0.0345302 0.0522958 0.054423 0.0366976 0.0536268 0.0746772 0.0714239 0.0833623 0.0709987 0.0631472 0.0653193 0.0636832
99 1 Mg -0.000816883 85.2946 2.87143 1.2 1 0.014705 0.012706 0.0113918 0.0307648 0.00844198 0.03377 0.0137514 0.0574765 0.0170326 0.0825005 0.0170518 0.0542958 0.0187514 0.0734451 0.0171576 0.102923 0.0271611 0.11569 0.0257746 0.0991189
100 1 Mg -0.246787 82.3432 4.46632 1.2 1 0.018161 0.013073 0.0224497 0.0291582 0.0168577 0.0221524 0.0268076 0.0338552 0.0372963 0.054169 0.0613575 0.0618906 0.0556701 0.0588957 0.0674907 0.0683511 0.0818663 0.0827787 0.0826473 0.0660407
101 2 Si 2.08754 84.2709 4.48677 2.4 1 0.0174805 0.0160891 0.012988 0.032966 0.0300157 0.0289558 0.0456387 0.0361831 0.0454084 0.0576272 0.0562995 0.0631595 0.0707655 0.0558738 0.0778259 0.0699677 0.0587897 0.0876751 0.0573185 0.0624703
102 3 O -1.11147 84.4282 4.47749 -1.2 1 0.0197366 0.0069657 0.0143214 0.0265102 0.0215413 0.026523 0.0217619 0.0705605 0.0431946 0.0594348 0.0447844 0.067734 0.0513485 0.0660109 0.0714088 0.0663639 0.0596317 0.0756832 0.0523302 0.0782557
103 3 O 0.914375 80.6331 4.54759 -1.2 1 0.0105884 0.0250481 0.0215983 0.0158623 0.0215183 0.0344752 0.0313382 0.0456744 0.0521157 0.0477068 0.0384057 0.0486542 0.0489462 0.0675803 0.104953 0.0707428 0.065935 0.0541146 0.0663403 0.0655642
104 3 O 1.34924 83.5498 3.20018 -1.2 1 0.0139081 0.0166819 0.0282044 0.020927 0.0236533 0.0218444 0.0442324 0.0466578 0.0325921 0.054102 0.0505735 0.0393625 0.0544364 0.0630687 0.0842226 0.0762558 0.0710007 0.0605028 0.0614183 0.0654546
105 1 Mg -0.157953 85.2947 -0.0461367 1.2 1 0.00731648 0.01316 0.0048963 0.0380176 0.0077187 0.0373614 0.00894666 0.059989 0.0111045 0.0775181 0.0125207 0.0484752 0.0150758 0.0714233 0.0179471 0.107479 0.0165147 0.114275 0.0207732 0.0991661
106 3 O 1.38926 83.6771 5.76136 -1.2 1 0.013664 0.013749 0.0212159 0.0218611 0.0271921 0.0190702 0.0481779 0.0419233 0.0331962 0.0513834 0.0507215 0.0415184 0.0522734 0.0668153 0.0824755 0.0738864 0.070367 0.0555622 0.0727614 0.0657997
107 1 Mg -0.0015339 88.1774 1.38186 1.2 1 0.0164332 0.0162601 0.0192633 0.0299389 0.0158055 0.0228754 0.0241718 0.0279361 0.0406837 0.0609099 0.0554021 0.0549944 0.0609191 0.0611124 0.0626589 0.0851333 0.069428 0.0951949 0.0657376 0.0885861
108 2 Si -2.08208 86.2876 1.50317 2.4 1 0.0196715 0.0103548 0.0251264 0.0321526 0.0341517 0.0283612 0.0410584 0.0398631 0.0475221 0.0477902 0.0524752 0.0673992 0.0738035 0.0612077 0.0853878 0.0665086 0.0588148 0.0930998 0.0539861 0.0566967
109 3 O 1.17354 86.2441 1.40087 -1.2 1 0.0231395 0.0240165 0.0144405 0.0193247 0.028395 0.0295286 0.0241557 0.0717345 0.0444053 0.0518961 0.0400315 0.0716684 0.062048 0.0630513 0.0758346 0.0704052 0.0568566 0.076349 0.0564957 0.0747331
110 3 O -1.07725 90.0789 1.42001 -1.2 1 0.0131164 0.0218787 0.0249059 0.0141107 0.0188422 0.0305955 0.036656 0.0500549 0.0539048 0.0412735 0.0449794 0.0458391 0.0463435 0.0674835 0.105074 0.0751265 0.0728957 0.0473966 0.0705361 0.0595305
111 3 O -1.38515 86.9217 0.190864 -1.2 1 0.0197268 0.0135823 0.0290269 0.0271713 0.0255223 0.0208391 0.0526051 0.0437486 0.0381473 0.0422365 0.0513476 0.0469119 0.0536881 0.0615129 0.0905949 0.0756466 0.0800115 0.056893 0.0706049 0.0704285
112 3 O -1.34438 86.939 2.69493 -1.2 1 0.0151411 0.00584697 0.0295297 0.0237623 0.0245787 0.0134273 0.0504859 0.0441389 0.0396077 0.0425093 0.0549496 0.0445028 0.0518281 0.0604781 0.0909468 0.0652045 0.079505 0.0579411 0.0671605 0.068151
113 1 Mg -2.39545 90.6346 -0.15079 1.2 1 0.0143844 0.0172247 0.00585407 0.0345496 0.00981469 0.0329822 0.010968 0.0588986 0.0160331 0.0825366 0.0154849 0.0511717 0.0157356 0.0722837 0.0203139 0.102548 0.0256551 0.111826 0.0347556 0.0952189
114 1 Mg 2.24448 93.5459 1.45991 1.2 1 0.0218157 0.0162314 0.0170438 0.033549 0.0156099 0.0210907 0.022495 0.0366314 0.0360567 0.0571607 0.0547847 0.062207 0.0588976 0.0566783 0.0608091 0.0688386 0.0847885 0.0900844 0.0759894 0.0686812
115 2 Si -0.401139 91.567 1.41422 2.4 1 0.0137516 0.0123023 0.0218856 0.0346591 0.0309034 0.031908 0.0417664 0.042235 0.0494082 0.0556945 0.0495109 0.0670963 0.0737377 0.0547038 0.0786663 0.0687959 0.0599401 0.0906659 0.0509803 0.0590663
116 3 O 1.14984 91.4736 1.40378 -1.2 1 0.0187543 0.0154912 0.0154883 0.0250948 0.0234006 0.0246951 0.0285191 0.0767427 0.0348408 0.0542743 0.0451936 0.0684726 0.0561196 0.0669672 0.0769876 0.0696872 0.0554896 0.0756379 0.0559868 0.0732158
117 3 O -1.37574 95.2526 1.33261 -1.2 1 0.00837792 0.0200585 0.0226511 0.0155001 0.0185504 0.0364297 0.0340064 0.0447775 0.051021 0.0429115 0.0390614 0.0449225 0.0497338 0.0640266 0.1042 0.0685417 0.0689142 0.0515226 0.0716839 0.0605389
118 3 O -1.04417 92.3087 0.117243 -1.2 1 0.0118746 0.0183532 0.0271957 0.0160489 0.0191842 0.0201094 0.0458309 0.0462381 0.0325546 0.0530205 0.0529175 0.0399555 0.0563669 0.0670238 0.0821645 0.0749359 0.0739949 0.0672804 0.0650613 0.0671074
119 1 Mg -2.37846 100.961 2.84017 1.2 1 0.00782988 0.0116864 0.0101157 0.0337922 0.00798965 0.0346025 0.00597202 0.0593513 0.00777839 0.0811143 0.0126108 0.0524165 0.0123943 0.0714013 0.0188928 0.106942 0.0176354 0.113051 0.0215639 0.0940036
120 3 O -1.00944 92.2096 2.73117 -1.2 1 0.00982257 0.0076657 0.0261407 0.0220046 0.0210031 0.0253311 0.0459121 0.0455356 0.0349097 0.048552 0.0555439 0.0421333 0.0531212 0.0605334 0.0841848 0.0715157 0.0730681 0.0521965 0.0691148 0.0737532
121 1 Mg -2.19724 98.2046 4.2215 1.2 1 0.0140586 0.0133785 0.0180209 0.0252478 0.0201 0.0246923 0.0225519 0.0281996 0.0414581 0.0625362 0.0611163 0.0514437 0.0603037 0.0640539 0.0581737 0.091267 0.0627779 0.0967242 0.0719527 0.0832413
122 2 Si 0.337427 99.984 4.35374 2.4 1 0.0198721 0.0145502 0.0186504 0.0270039 0.0255401 0.0308255 0.0393276 0.042739 0.0488768 0.057484 0.0533227 0.0636822 0.0643421 0.0594012 0.0832085 0.0693795 0.0623768 0.0904865 0.0521656 0.0610909
123 3 O -1.19561 99.9752 4.25473 -1.2 1 0.0178568 0.0108241 0.0149582 0.026033 0.0244891 0.0212342 0.0206289 0.0657332 0.0372148 0.0522998 0.0425651 0.0637115 0.0521078 0.0646745 0.0637693 0.0672985 0.0503045 0.0728838 0.0600254 0.0701483
124 3 O 1.3726 96.2886 4.42371 -1.2 1 0.0177097 0.0199959 0.0228506 0.0199167 0.0237658 0.0352043 0.0320813 0.0475285 0.0493179 0.0435785 0.0374955 0.0496038 0.0500563 0.0650641 0.101246 0.0687427 0.0715711 0.0547224 0.0719962 0.0679473
125 3 O 1.04968 99.3293 3.10177 -1.2 1 0.00690237 0.0136164 0.027147 0.024541 0.0255953 0.0181135 0.0470204 0.0382167 0.037951 0.0428539 0.0492448 0.0434395 0.0532502 0.0587074 0.0876177 0.071146 0.0797632 0.0559502 0.0727757 0.073663