ITEM: TIMESTEP
46000
ITEM: NUMBER OF ATOMS
5600
ITEM: BOX BOUNDS xy xz yz pp pp pp
0	7.1235	0
0	201.985	2.3745
0	119.584	0
ITEM: ATOMS id type element xu yu zu q Q_1 Q_2 Q_3 Q_4 Q_5 Q_6 Q_7 Q_8 Q_9 Q_10 Q_11 Q_12 Q_13 Q_14 Q_15 Q_16 Q_17 Q_18 Q_19 Q_20 Q_21
1 1 Mg -1.63731 48.5808 -1.23684 1.2 1 0.429399 0.0866918 0.12314 0.0418429 0.068162 0.0514624 0.0420286 0.0605065 0.0754744 0.0761405 0.0856611 0.0884114 0.0856339 0.0856347 0.125165 0.0865583 0.0841147 0.104737 0.108806 0.0937826
2 1 Mg 3.13041 49.9938 2.06039 1.2 1 0.297628 0.124156 0.041503 0.0607512 0.0430382 0.0367677 0.0732236 0.0723151 0.067262 0.081224 0.0683457 0.0748849 0.0804249 0.0703468 0.085673 0.0937361 0.088668 0.0717875 0.0760031 0.0930313
3 2 Si 0.90452 50.2442 0.228008 2.4 1 0.26064 0.142068 0.0307795 0.0600232 0.04666 0.0329527 0.0601499 0.0422895 0.083603 0.0565412 0.0776577 0.0615905 0.0863345 0.0811365 0.10016 0.075441 0.0774051 0.0758225 0.0823578 0.0729866
4 3 O 2.12772 49.2915 0.224841 -1.2 1 0.362685 0.112146 0.0849017 0.0712288 0.0332063 0.0421935 0.0484807 0.0554041 0.0627096 0.076873 0.0688445 0.0858619 0.0699963 0.0800188 0.093849 0.0904927 0.0760924 0.0642776 0.0921586 0.0822677
5 3 O -1.06919 53.0667 1.56216 -1.2 1 0.0987626 0.0507687 0.0473935 0.0196929 0.029349 0.0347948 0.0407022 0.0566076 0.0554194 0.0495317 0.0664889 0.0529028 0.0594124 0.0677203 0.0716864 0.085099 0.0818849 0.0702222 0.0568221 0.0771238
6 3 O -0.0101574 49.5684 -0.87683 -1.2 1 0.336398 0.131504 0.0557724 0.0765553 0.0246342 0.0653699 0.0346614 0.0634164 0.0897004 0.0766675 0.0801159 0.100917 0.085077 0.0909284 0.0839982 0.0863378 0.085621 0.0662387 0.0822345 0.0778371
7 1 Mg -2.42324 58.7226 2.81072 1.2 1 0.0187394 0.0229774 0.0242568 0.026169 0.0240866 0.0324451 0.0267816 0.0588846 0.0289987 0.0701987 0.0382644 0.0508479 0.0365661 0.0661448 0.0344138 0.0870792 0.0660677 0.100087 0.059099 0.0775603
8 3 O 0.176889 50.1631 1.6292 -1.2 1 0.266924 0.154977 0.0511264 0.0521225 0.0367371 0.0448299 0.0600552 0.0655055 0.0736924 0.0937033 0.0654554 0.0667187 0.0615184 0.0750643 0.0848676 0.0852123 0.0774363 0.0835095 0.0774958 0.0906924
9 1 Mg -2.12789 56.2616 4.31086 1.2 1 0.0219318 0.0191847 0.0376796 0.0326147 0.02702 0.0287157 0.0275413 0.0279229 0.0547225 0.0510014 0.0696259 0.0423166 0.0595101 0.0648916 0.0644493 0.0816663 0.0805693 0.0760413 0.0648569 0.0709709
10 2 Si 0.310567 57.9599 4.47909 2.4 1 0.0123704 0.0296779 0.0266148 0.0301007 0.0345766 0.0316314 0.0379005 0.0453945 0.0584156 0.0561524 0.0614262 0.0695798 0.0630495 0.0584848 0.0836312 0.0676382 0.0727281 0.0849619 0.0724321 0.0614094
11 3 O -1.20515 58.1431 4.42642 -1.2 1 0.0342457 0.0138553 0.0199749 0.0355548 0.0189248 0.0227718 0.0308041 0.0684197 0.051339 0.0461912 0.0408416 0.0669096 0.0510087 0.0616542 0.0667432 0.0663558 0.0648823 0.0657613 0.0574818 0.0866763
12 3 O 1.88114 53.4093 4.6085 -1.2 1 0.0568123 0.0362509 0.0431109 0.0312788 0.0309149 0.0394074 0.0390986 0.0317719 0.0681974 0.0723084 0.0642672 0.0534333 0.0483406 0.0876062 0.0746766 0.0771563 0.0708886 0.0781254 0.0643086 0.0678212
13 3 O 1.02639 57.1644 3.16288 -1.2 1 0.0285194 0.0244144 0.0332284 0.0132767 0.0246965 0.029464 0.0460969 0.0478212 0.0437306 0.0502452 0.0523258 0.0381326 0.0624443 0.0593456 0.0749199 0.0908974 0.0827294 0.0683052 0.062334 0.0651987
14 3 O 0.999135 57.189 5.69373 -1.2 1 0.0310477 0.0372573 0.0217735 0.0169144 0.0179221 0.0313327 0.0452975 0.0454551 0.0368321 0.0482188 0.0577824 0.0447705 0.0558264 0.0721642 0.0772193 0.0859694 0.079753 0.0713305 0.0614047 0.0689635
15 1 Mg 0.390673 52.53 2.80102 1.2 1 0.112744 0.083765 0.0378884 0.0303376 0.0288126 0.0264043 0.0478053 0.0454947 0.0641129 0.0430114 0.0564431 0.0574263 0.0501343 0.0593767 0.0697002 0.073325 0.0665739 0.0941346 0.0689605 0.0757162
16 1 Mg 0.955021 48.9789 3.15276 1.2 1 0.39475 0.0830598 0.0930993 0.0657011 0.0489617 0.0724513 0.0623607 0.0581849 0.0796657 0.0875348 0.0757961 0.0831868 0.0690062 0.0709312 0.096095 0.0961934 0.102204 0.08293 0.0904654 0.0823587
17 2 Si 2.63401 52.0697 4.48805 2.4 1 0.109631 0.105196 0.0483773 0.0353118 0.0364007 0.0445552 0.0309058 0.0497895 0.0690623 0.0712432 0.0777679 0.0614822 0.0638076 0.0763167 0.0697703 0.106282 0.0784937 0.092113 0.0607631 0.0767538
18 3 O -0.609693 52.0874 4.55385 -1.2 1 0.126455 0.0981683 0.0374802 0.0222334 0.0250221 0.0582706 0.029202 0.0492705 0.0614684 0.0805407 0.0688544 0.0760753 0.073964 0.0784927 0.0803038 0.07512 0.077096 0.0619677 0.0754838 0.0609481
19 3 O 2.64631 48.3537 3.22336 -1.2 1 0.459906 0.0570847 0.121777 0.058685 0.0897935 0.0344401 0.066525 0.0898361 0.0875943 0.0714392 0.0806534 0.0829445 0.0896229 0.0916696 0.0810877 0.0816828 0.0928261 0.0949686 0.0871611 0.0837536
20 3 O 2.06641 51.2116 3.18546 -1.2 1 0.197661 0.107762 0.0224242 0.0305021 0.0224906 0.058052 0.045248 0.06747 0.054406 0.0679796 0.0644991 0.0725797 0.0708539 0.0753995 0.0747694 0.0833642 0.0725249 0.0851044 0.0674596 0.0680865
21 1 Mg -0.00872128 53.5979 -0.0387065 1.2 1 0.0722421 0.0430583 0.0512307 0.0229406 0.0248849 0.022846 0.025407 0.0565364 0.0550782 0.0674789 0.0531504 0.051051 0.0550263 0.0660538 0.0667947 0.0700475 0.0695505 0.0865096 0.0682978 0.0715539
22 3 O 2.12809 50.9039 5.65313 -1.2 1 0.21901 0.112355 0.0353318 0.0383794 0.0420318 0.0361631 0.0545184 0.0577195 0.0747278 0.0551673 0.0819978 0.0783202 0.0825731 0.0804162 0.0787157 0.0657236 0.074388 0.0821357 0.0829264 0.0625166
23 1 Mg 0.10122 56.6255 1.45726 1.2 1 0.019911 0.0131021 0.0320417 0.0272781 0.0202099 0.0342313 0.0317102 0.0373861 0.03297 0.0551737 0.0594007 0.0611107 0.0568435 0.0650849 0.0743067 0.0710419 0.0859492 0.075814 0.0735253 0.0690565
24 2 Si -1.79464 54.421 1.60383 2.4 1 0.0131799 0.0211038 0.0407372 0.0341081 0.0253186 0.0377811 0.0481955 0.0580971 0.0558053 0.0541748 0.0500325 0.0565936 0.0764494 0.0601494 0.0576532 0.0700211 0.0707097 0.0724096 0.0727589 0.0647558
25 3 O 1.33069 54.1677 1.56416 -1.2 1 0.0307187 0.0370274 0.0424026 0.0173263 0.0305328 0.0361631 0.0283086 0.0515391 0.0554296 0.0576288 0.0561166 0.0521066 0.0517589 0.0767855 0.0758993 0.0686075 0.0637947 0.0680552 0.0406789 0.0575946
26 3 O -0.96602 58.5166 1.44991 -1.2 1 0.0134161 0.0186328 0.0225734 0.0235102 0.0196384 0.0336865 0.0421517 0.0459408 0.0661624 0.0333246 0.0458091 0.0451769 0.0612479 0.0767362 0.0895927 0.076871 0.076293 0.0484402 0.071964 0.0601303
27 3 O -1.47691 55.1396 0.169557 -1.2 1 0.0252631 0.019419 0.0194628 0.0355142 0.0248569 0.0427356 0.0495617 0.0431205 0.0343627 0.0457076 0.0698433 0.0380548 0.0552165 0.0773375 0.0658237 0.0682803 0.0796216 0.0636135 0.0703277 0.0624894
28 3 O -1.27407 55.4253 2.73127 -1.2 1 0.00369965 0.0275881 0.0311027 0.03148 0.0201656 0.0333671 0.0533058 0.0462367 0.0388551 0.0466816 0.0586329 0.0517428 0.0533774 0.0601081 0.0831412 0.0846859 0.0541059 0.0718306 0.0698098 0.0743647
29 1 Mg -2.37412 58.9498 0.120126 1.2 1 0.0150561 0.0385115 0.0294544 0.0327215 0.0203711 0.0312968 0.0197294 0.0539148 0.0249006 0.0799871 0.0327521 0.0462669 0.023677 0.06967 0.0404207 0.0999581 0.0445478 0.109973 0.0432324 0.0947374
30 1 Mg 2.3588 61.9182 1.69175 1.2 1 0.0149742 0.0102108 0.0208123 0.0322265 0.0200061 0.0300893 0.0285467 0.0388211 0.0402154 0.0602802 0.0538038 0.05614 0.0608821 0.0671889 0.0721604 0.0612977 0.0765577 0.0791627 0.0796823 0.0729078
31 2 Si -0.342089 59.9915 1.64026 2.4 1 0.0168506 0.0158365 0.0281197 0.0242103 0.0393061 0.0331161 0.0387527 0.0437072 0.0470923 0.050745 0.0561121 0.06071 0.0696615 0.0538277 0.0673408 0.077929 0.0631293 0.0842798 0.0564583 0.0551809
32 3 O 1.16073 59.6897 1.61249 -1.2 1 0.0295065 0.0290605 0.0208976 0.0259925 0.0323759 0.0282383 0.0302621 0.0761512 0.0412169 0.0468787 0.0408038 0.069679 0.0528343 0.0628847 0.0734517 0.0687585 0.0598853 0.0781332 0.0566041 0.0778586
33 3 O -1.3222 63.5837 1.57782 -1.2 1 0.0269331 0.0143626 0.0206616 0.0268327 0.0205665 0.0393922 0.0359211 0.0363074 0.0462273 0.041483 0.0418447 0.0504638 0.0539219 0.0669985 0.104918 0.0727191 0.0711679 0.0491218 0.0692742 0.0656206
34 3 O -0.985232 60.6217 0.326604 -1.2 1 0.0189946 0.010662 0.0208266 0.0242112 0.0273256 0.0299192 0.0419333 0.0405108 0.0332639 0.0573433 0.0524545 0.0438928 0.055424 0.0708461 0.0791953 0.0736012 0.0760654 0.0656741 0.0658561 0.0632233
35 1 Mg -2.17497 69.5895 2.93672 1.2 1 0.008749 0.0170792 0.0105737 0.0311692 0.019952 0.0353206 0.0170579 0.0551174 0.0190514 0.0809038 0.0309982 0.0488311 0.0229483 0.0706606 0.037595 0.101286 0.0542478 0.101581 0.0529993 0.0904567
36 3 O -1.08207 60.5707 2.91459 -1.2 1 0.014643 0.0160102 0.0239078 0.0267676 0.0249175 0.0228975 0.0472676 0.0496635 0.0422251 0.0475172 0.0587417 0.041509 0.0521731 0.0507908 0.0983173 0.0794633 0.0727039 0.0669966 0.0551286 0.0703653
37 1 Mg -2.21866 66.5444 4.31026 1.2 1 0.0193831 0.0158305 0.0176392 0.0358014 0.0110748 0.0281385 0.0232614 0.0338065 0.0430801 0.0553239 0.054306 0.0528483 0.0585807 0.059186 0.0603524 0.0727641 0.0753122 0.0939116 0.0722689 0.0829568
38 2 Si 0.349623 68.4501 4.50039 2.4 1 0.0131922 0.00806303 0.0224726 0.0317993 0.0284331 0.0241852 0.0456888 0.0408181 0.0396696 0.0588732 0.0556001 0.0537462 0.0749599 0.0539617 0.0836229 0.0747368 0.0668474 0.0860796 0.0545695 0.0665385
39 3 O -1.07879 68.6356 4.39027 -1.2 1 0.022104 0.0100903 0.0236115 0.0222748 0.023779 0.0298066 0.0295669 0.066353 0.0421073 0.0491573 0.0482938 0.0633692 0.0499486 0.0644055 0.0731618 0.0698726 0.0578569 0.078978 0.0452889 0.0862796
40 3 O 1.27233 64.7376 4.47726 -1.2 1 0.00706744 0.00705871 0.0223899 0.0184539 0.0262403 0.0392931 0.047041 0.0379265 0.0461806 0.0438994 0.0440862 0.051174 0.0502983 0.0631971 0.106197 0.074944 0.0790557 0.0515731 0.0641831 0.0604408
41 3 O 1.1519 67.6405 3.25685 -1.2 1 0.0125843 0.0193162 0.0286509 0.0242842 0.0271794 0.0170581 0.0498662 0.0408862 0.0383527 0.0455475 0.0539263 0.0397993 0.0600298 0.0569828 0.0841006 0.0764836 0.0659184 0.0641012 0.0659638 0.0678525
42 3 O 0.962541 67.9537 5.81498 -1.2 1 0.0253084 0.0109548 0.026815 0.0237809 0.0283046 0.0239736 0.0496159 0.0443445 0.040885 0.047573 0.0534672 0.041238 0.0596895 0.0714614 0.0735022 0.0747593 0.0730485 0.0636282 0.0672306 0.0724786
43 1 Mg -0.0758526 64.3178 3.05013 1.2 1 0.00789555 0.01139 0.0103312 0.0282662 0.0204001 0.0315247 0.0172223 0.0570812 0.0259763 0.0703686 0.0285654 0.0460069 0.030151 0.071248 0.0347414 0.0981575 0.0585144 0.105145 0.0562288 0.0726389
44 1 Mg -0.0372793 61.3329 4.42196 1.2 1 0.00280923 0.0250521 0.0154514 0.0326902 0.0171946 0.0256942 0.0247879 0.0318168 0.0384904 0.0548259 0.0610754 0.0486954 0.0610704 0.0625665 0.0644804 0.0842111 0.0698585 0.0935827 0.066751 0.0824852
45 2 Si 1.92538 63.3439 4.43774 2.4 1 0.002105 0.0127223 0.0234042 0.0351132 0.027927 0.0350487 0.0385188 0.0405735 0.0610159 0.0503375 0.0530173 0.071252 0.0587355 0.0765141 0.0777308 0.0662308 0.0601743 0.0936052 0.0477066 0.061685
46 3 O -1.25406 63.3014 4.47241 -1.2 1 0.0219743 0.00630334 0.0165587 0.0273322 0.0252382 0.0243667 0.0217392 0.0676013 0.0524984 0.0502317 0.0340046 0.0759391 0.0586495 0.0679867 0.0756197 0.0671932 0.0556194 0.0742664 0.0604784 0.0811969
47 3 O 1.1003 59.4403 4.61379 -1.2 1 0.0210205 0.0206008 0.0202034 0.0161799 0.0213937 0.0350641 0.0450263 0.0462018 0.0514931 0.0398694 0.0472848 0.0515094 0.0511983 0.076821 0.0928223 0.0754513 0.0679496 0.0563969 0.0663085 0.0649599
48 3 O 1.12249 62.5267 3.18956 -1.2 1 0.0171778 0.0133291 0.0290433 0.0203393 0.0268748 0.0153517 0.0463658 0.0391397 0.0372159 0.0412197 0.053258 0.0422125 0.0558517 0.0515528 0.0962481 0.0694386 0.0760923 0.0669802 0.0658857 0.0663842
49 1 Mg -0.0798672 63.9612 0.120862 1.2 1 0.0148867 0.0138875 0.013739 0.0317806 0.0122923 0.0408808 0.022795 0.0588813 0.027878 0.0737298 0.0220027 0.0526798 0.0228292 0.0643833 0.0276151 0.103266 0.0363474 0.107179 0.0402601 0.085587
50 3 O 1.33786 62.7208 5.78688 -1.2 1 0.0122177 0.00968285 0.0291898 0.0262194 0.0280952 0.0204118 0.0529819 0.0426709 0.0453667 0.0473705 0.0496121 0.0479164 0.0566777 0.0664073 0.0955131 0.0609563 0.0807798 0.0634715 0.0662126 0.0676297
51 1 Mg 0.396214 67.1315 1.63133 1.2 1 0.0211467 0.0134061 0.0166732 0.0261707 0.0199353 0.0298336 0.0260071 0.0399091 0.0413414 0.0594619 0.0620435 0.0603501 0.05493 0.0661504 0.0764074 0.0787094 0.0765834 0.0750838 0.0804796 0.0556746
52 2 Si -1.89211 65.0656 1.40049 2.4 1 0.0159222 0.0142817 0.0213476 0.023652 0.0408147 0.0383779 0.0446487 0.0451639 0.0542609 0.0429564 0.0498058 0.070866 0.0689282 0.0612915 0.0816991 0.0706618 0.0659018 0.0967302 0.0587256 0.0629526
53 3 O 1.32217 64.9964 1.47644 -1.2 1 0.0141112 0.0190533 0.0183903 0.021724 0.0239669 0.0336742 0.0347199 0.0640054 0.0497582 0.0568873 0.0402114 0.0756676 0.0580496 0.0653118 0.0723073 0.0717149 0.0650617 0.0718946 0.0532166 0.0743003
54 3 O -0.780115 68.8893 1.41818 -1.2 1 0.0230712 0.0164716 0.0207693 0.0242892 0.0188543 0.0352471 0.0364816 0.0435207 0.0501047 0.0406259 0.0551655 0.0416579 0.0557008 0.0767782 0.0966073 0.0762168 0.0766245 0.0521958 0.0751852 0.0669783
55 3 O -1.229 65.7208 0.106899 -1.2 1 0.0065767 0.0152742 0.0268666 0.0306934 0.0297961 0.0278349 0.0412611 0.0469076 0.0406832 0.0522216 0.0526557 0.0427025 0.0603103 0.0497203 0.0945254 0.0764817 0.0642723 0.0693666 0.06193 0.075659
56 3 O -1.16835 65.8884 2.69226 -1.2 1 0.0150447 0.0107555 0.0259337 0.0272165 0.0300309 0.0240063 0.0466071 0.0390621 0.0355506 0.0424855 0.0558297 0.0386336 0.0615808 0.0529402 0.0833524 0.070428 0.070205 0.0666661 0.0580242 0.0596405
57 1 Mg -2.15515 69.4059 -0.0690517 1.2 1 0.0107105 0.0122091 0.0164825 0.0323709 0.0155193 0.0416755 0.0132926 0.053239 0.0161285 0.0770888 0.0257109 0.0481578 0.0312312 0.0695624 0.0322707 0.100468 0.0421603 0.107064 0.0433209 0.0914601
58 1 Mg 2.52872 72.2196 1.55331 1.2 1 0.0218068 0.0134855 0.0195603 0.0280755 0.0157649 0.0282943 0.0214667 0.0277723 0.0422947 0.0599959 0.0535088 0.0562109 0.0594906 0.065309 0.067112 0.0785563 0.0675365 0.102355 0.0604362 0.0846357
59 2 Si -0.0900603 70.3963 1.37227 2.4 1 0.0181395 0.0193222 0.00995361 0.0310909 0.0311821 0.0300214 0.0487987 0.0347594 0.0513805 0.0625677 0.0535659 0.0663667 0.0704925 0.0614306 0.0875034 0.0786999 0.0582265 0.0722164 0.0652785 0.0550826
60 3 O 1.49887 70.2078 1.43327 -1.2 1 0.0287238 0.0246219 0.0229555 0.0216102 0.023235 0.0254828 0.0307228 0.0642394 0.0413335 0.0551955 0.0404513 0.0733283 0.0520409 0.0734842 0.0772957 0.070839 0.0584307 0.0775694 0.0468621 0.0786454
61 3 O -1.30189 74.2718 1.64353 -1.2 1 0.0169524 0.0254827 0.018061 0.018919 0.0136433 0.0338207 0.0335035 0.0461934 0.0560494 0.0432045 0.051189 0.0415202 0.0573494 0.0714211 0.0897464 0.078933 0.0695385 0.0555319 0.0747216 0.0627943
62 3 O -0.782725 71.1607 0.21798 -1.2 1 0.0226789 0.0269861 0.0258754 0.0227502 0.0270534 0.0273706 0.0358136 0.0443625 0.0314344 0.0558286 0.0562623 0.0377141 0.0615907 0.0679802 0.0795296 0.07155 0.0742327 0.064789 0.0673502 0.064352
63 1 Mg -2.39509 79.6888 2.96216 1.2 1 0.00776583 0.0161821 0.0147684 0.0260687 0.0199886 0.0336853 0.0206052 0.0581698 0.033751 0.0675423 0.0360716 0.0373288 0.0307986 0.0657302 0.0415247 0.096972 0.0545496 0.0972144 0.0656956 0.0729902
64 3 O -0.767699 71.0121 2.69774 -1.2 1 0.0106123 0.0128831 0.0207752 0.0214143 0.0339667 0.021993 0.0526382 0.0420626 0.0430839 0.0459845 0.05151 0.0449884 0.0467345 0.076716 0.0697287 0.0819176 0.0800865 0.0480893 0.0703484 0.0654645
65 1 Mg -2.26359 77.0053 4.72901 1.2 1 0.0242635 0.0143508 0.0179793 0.0328437 0.0206134 0.0219106 0.0237528 0.0321622 0.0530059 0.0639722 0.0543859 0.0487377 0.0578405 0.0637126 0.0596335 0.0724316 0.0646023 0.100144 0.0667966 0.069467
66 2 Si 0.338024 78.9498 4.68386 2.4 1 0.0113344 0.00976834 0.0186394 0.0311922 0.0289819 0.0320083 0.0424888 0.0447258 0.0442009 0.064576 0.053141 0.0614023 0.0731633 0.0510298 0.0832843 0.0599184 0.0709174 0.0857682 0.0618269 0.0717074
67 3 O -1.28198 78.9638 4.6342 -1.2 1 0.023036 0.0189103 0.0209909 0.0215424 0.0192011 0.0279964 0.0178818 0.0710528 0.0373438 0.0637305 0.0340692 0.0553556 0.0464339 0.0778659 0.0751165 0.0650884 0.0537112 0.0721741 0.0527876 0.0799967
68 3 O 1.57827 75.1957 4.49077 -1.2 1 0.011365 0.0212052 0.0230148 0.0256218 0.0187676 0.0360493 0.0344181 0.046725 0.0552516 0.0485434 0.0513477 0.0488633 0.0547753 0.0682947 0.097948 0.0680603 0.0705513 0.0597778 0.0697181 0.0681298
69 3 O 1.04747 78.1715 3.53428 -1.2 1 0.0139123 0.0152178 0.02586 0.0212915 0.0350952 0.0241037 0.0409852 0.0447985 0.0404399 0.0494453 0.054072 0.0380979 0.0585775 0.0640853 0.0651906 0.0785489 0.0789426 0.0659457 0.0662515 0.0616984
70 3 O 1.09992 78.3962 5.93952 -1.2 1 0.0107846 0.0181363 0.0186876 0.0238514 0.0284052 0.0191615 0.0485869 0.0414575 0.042602 0.0438415 0.0530961 0.0415347 0.0556397 0.0631078 0.0777169 0.0668571 0.0785979 0.0595034 0.072703 0.0699097
71 1 Mg 0.0914042 74.7237 3.05171 1.2 1 0.0130693 0.0147316 0.00639466 0.0370586 0.00787975 0.0347902 0.0104898 0.0602732 0.016093 0.0788862 0.0166316 0.048686 0.017401 0.0742655 0.0247331 0.10365 0.026468 0.107724 0.031015 0.0852685
72 1 Mg 0.088274 71.8275 4.29974 1.2 1 0.0182074 0.0150875 0.0190783 0.0304811 0.0180542 0.0298502 0.0201492 0.0363229 0.0456104 0.0628936 0.059524 0.0482675 0.0657359 0.0723213 0.0669879 0.0793221 0.0672949 0.0967751 0.0725215 0.0816013
73 2 Si 2.15997 73.6986 4.47003 2.4 1 0.0200076 0.0195372 0.0184779 0.0300598 0.0319156 0.0309316 0.0414959 0.0447155 0.0543501 0.0595218 0.0490915 0.0645959 0.0683103 0.0547332 0.0734648 0.0657239 0.0637179 0.094463 0.0582153 0.0614349
74 3 O -0.95422 73.8512 4.44851 -1.2 1 0.0170913 0.0222311 0.0147986 0.020617 0.0234637 0.0316989 0.0273464 0.0644264 0.0402918 0.0563728 0.045179 0.0638964 0.0456728 0.0681754 0.0764865 0.0713028 0.063897 0.0795133 0.0465526 0.0826093
75 3 O 1.17831 69.8812 4.42667 -1.2 1 0.0116918 0.0164844 0.0227445 0.0167701 0.0181506 0.0379898 0.0390109 0.0406827 0.0524724 0.0435454 0.0526932 0.0473923 0.0513145 0.0709681 0.0991006 0.0797504 0.0686681 0.0556422 0.0664229 0.0533672
76 3 O 1.6197 72.8384 3.27886 -1.2 1 0.0178465 0.0172736 0.027882 0.0233346 0.024992 0.0238326 0.0474736 0.0522259 0.0335882 0.0432056 0.0580646 0.0378899 0.0510596 0.0751137 0.0692143 0.0842213 0.0630972 0.0595261 0.0719329 0.0662109
77 1 Mg 0.0331044 74.5146 0.0826851 1.2 1 0.00880732 0.0119181 0.0102884 0.0269845 0.011739 0.0390484 0.01584 0.0591022 0.0228454 0.0832357 0.0189061 0.0563441 0.0207554 0.07031 0.0317602 0.0988455 0.0386576 0.109212 0.0434252 0.0933192
78 3 O 1.55397 72.985 5.73555 -1.2 1 0.00649254 0.019778 0.0266998 0.0200315 0.0254672 0.0261622 0.0471431 0.0424374 0.0340618 0.0487962 0.056796 0.0457914 0.0533388 0.0791448 0.0774549 0.0715786 0.0792575 0.0578018 0.0706688 0.0654856
79 1 Mg 0.182133 77.491 1.74423 1.2 1 0.0150135 0.0131385 0.0252108 0.0261366 0.0187491 0.0237312 0.0266042 0.0270038 0.0428946 0.0574918 0.0506369 0.0564368 0.0710227 0.0673366 0.067041 0.079144 0.0734441 0.0940596 0.0618713 0.0832742
80 2 Si -2.02728 75.8687 1.45175 2.4 1 0.0210226 0.0146471 0.0216601 0.0262881 0.0273613 0.0287266 0.0366873 0.0384123 0.0468437 0.056528 0.0541814 0.0594459 0.0653983 0.0635412 0.0717583 0.0793939 0.0619021 0.0836038 0.0648354 0.0603366
81 3 O 1.25161 75.5015 1.53146 -1.2 1 0.015199 0.0191745 0.0148351 0.016816 0.0141975 0.0271538 0.0306234 0.0661807 0.0412756 0.0472524 0.041434 0.0642098 0.0577538 0.0678745 0.0708312 0.0723188 0.0560876 0.0784467 0.0540919 0.0748096
82 3 O -0.720706 79.3728 1.63668 -1.2 1 0.0126533 0.00873354 0.025375 0.0251476 0.0215647 0.0356978 0.0331754 0.0457983 0.0563465 0.0433531 0.0408162 0.0468646 0.057774 0.0661628 0.0919769 0.0724014 0.0750917 0.0532169 0.0668866 0.0633478
83 3 O -1.36184 76.3027 0.0987772 -1.2 1 0.00507669 0.0229657 0.0270744 0.0227309 0.014421 0.0271018 0.0395474 0.0470413 0.0431764 0.0548676 0.0531484 0.0396558 0.0537302 0.0686224 0.0841425 0.0830663 0.0679955 0.061726 0.0686822 0.0733503
84 3 O -1.31338 76.4782 2.63339 -1.2 1 0.0122068 0.00710299 0.0337484 0.0197485 0.0269405 0.0193262 0.0430241 0.0467673 0.0409883 0.0427908 0.0498275 0.0375044 0.0494789 0.0561162 0.0820473 0.0819341 0.0651216 0.0784255 0.061559 0.0710952
85 1 Mg -2.17659 79.959 -0.0325697 1.2 1 0.01805 0.0104642 0.00958973 0.0253887 0.0203061 0.0327485 0.015818 0.0528373 0.0308587 0.0783618 0.0308543 0.0495116 0.0338482 0.06128 0.0373322 0.103973 0.0463091 0.103233 0.0455954 0.0855319
86 1 Mg 2.50439 82.7442 1.82373 1.2 1 0.0236939 0.0178086 0.0185299 0.0266031 0.016865 0.0288937 0.0276667 0.034915 0.0473782 0.0568018 0.0558094 0.0531557 0.0593178 0.0679706 0.0663868 0.0768979 0.061611 0.0998295 0.0684777 0.0783533
87 2 Si -0.0651193 80.8739 1.58083 2.4 1 0.0247829 0.0156567 0.0155102 0.0287737 0.0287549 0.0242945 0.0390198 0.044684 0.0404153 0.0626941 0.057041 0.0596858 0.0647105 0.0512412 0.0794106 0.0738997 0.0725337 0.0828938 0.0653528 0.0690536
88 3 O 1.46373 80.8757 1.58434 -1.2 1 0.0123584 0.0184889 0.0101674 0.0253225 0.019108 0.0265796 0.0271162 0.0705139 0.0424182 0.0644353 0.036441 0.0663508 0.0506153 0.0690738 0.0732757 0.0625406 0.0703429 0.0660958 0.064025 0.0600373
89 3 O -1.16846 84.6393 1.99254 -1.2 1 0.0137807 0.0251281 0.0199796 0.0183147 0.0188044 0.035452 0.043138 0.0393378 0.050282 0.0450504 0.0494814 0.0460626 0.0558649 0.0693475 0.0915109 0.0688738 0.0769172 0.0538678 0.072042 0.0512453
90 3 O -0.94208 81.4298 0.194936 -1.2 1 0.0110954 0.0221654 0.0225595 0.0178795 0.021587 0.0205377 0.0419134 0.0440228 0.0453821 0.0402933 0.0548245 0.0325829 0.0597187 0.0522351 0.0861701 0.0726391 0.0755326 0.0645723 0.0584464 0.0827727
91 1 Mg -2.29753 90.0745 3.42086 1.2 1 0.0139755 0.0251618 0.00913965 0.0293822 0.0194709 0.0392665 0.0207745 0.0515757 0.0351574 0.0664863 0.0349903 0.0450167 0.0332464 0.0605342 0.0416156 0.0972748 0.0583541 0.100011 0.0625633 0.0723086
92 3 O -0.78762 81.6176 2.80753 -1.2 1 0.0152738 0.0147693 0.0230203 0.0274404 0.0270121 0.0234283 0.0432824 0.0376004 0.0366907 0.0481443 0.0541259 0.03896 0.0512718 0.0651358 0.0716322 0.0797868 0.0720497 0.0635623 0.0665955 0.0621116
93 1 Mg -2.13572 87.5745 4.83808 1.2 1 0.026416 0.0124118 0.0141348 0.0285458 0.0151403 0.0245564 0.021418 0.0321522 0.047205 0.0634079 0.059523 0.0527263 0.0545613 0.0658725 0.0677974 0.0849456 0.0625449 0.0985796 0.0598634 0.0897573
94 2 Si 0.336874 89.4402 5.12259 2.4 1 0.00982784 0.0163187 0.0208018 0.0275547 0.0283452 0.0261807 0.0451969 0.0348582 0.0476834 0.0584181 0.059065 0.0581264 0.0675176 0.0552816 0.076351 0.0600437 0.0719701 0.0795388 0.0693307 0.060306
95 3 O -1.15681 89.4888 5.00475 -1.2 1 0.0143038 0.0197215 0.0142526 0.0204255 0.0272235 0.0341586 0.0290885 0.0727069 0.041243 0.0597115 0.0379795 0.0645876 0.0476426 0.0652929 0.0710383 0.0685581 0.0605415 0.0776117 0.0494695 0.0686266
96 3 O 1.56778 85.5925 4.86685 -1.2 1 0.00662556 0.0140667 0.0212174 0.0193296 0.0188461 0.0315896 0.0330243 0.0441194 0.055639 0.0439151 0.0503604 0.0481529 0.0508387 0.0696762 0.0944358 0.0814451 0.0804161 0.0527155 0.067211 0.0685077
97 3 O 1.10514 88.6686 3.91 -1.2 1 0.00714376 0.0132036 0.027704 0.0271453 0.0357473 0.0228117 0.0485922 0.0409516 0.0462346 0.0439678 0.054793 0.0443647 0.057713 0.0645269 0.0776841 0.07115 0.0871059 0.0587123 0.0697731 0.0656081
98 3 O 1.1279 88.7521 6.36455 -1.2 1 0.0146588 0.0197554 0.0251545 0.0165314 0.0195945 0.025947 0.0503726 0.0480295 0.0411872 0.0465403 0.054109 0.036209 0.0596899 0.0597653 0.0795607 0.0768316 0.0777624 0.0597967 0.0642363 0.0739383
99 1 Mg 0.102172 85.2935 3.42619 1.2 1 0.00822333 0.0286441 0.0160084 0.0242462 0.0221952 0.0290918 0.0246474 0.0549428 0.025896 0.0712559 0.0345177 0.0464234 0.0262306 0.0679693 0.0404885 0.0983442 0.0586584 0.0923238 0.0562525 0.0666428
100 1 Mg -0.008929 82.3062 4.61209 1.2 1 0.0193358 0.017842 0.0180496 0.0245517 0.0177665 0.0303272 0.0291883 0.0276878 0.0414845 0.0548341 0.0618023 0.056192 0.0734751 0.0666398 0.0636831 0.086618 0.0679518 0.0922209 0.0596538 0.0754731
101 2 Si 2.19742 84.0218 4.80831 2.4 1 0.0161492 0.011878 0.0204526 0.0348646 0.0334185 0.0233689 0.0410013 0.04555 0.047667 0.0589519 0.0538873 0.0639703 0.0706747 0.0523515 0.0702493 0.0748926 0.0586336 0.0871916 0.0613155 0.0560374
102 3 O -1.01075 84.2235 4.91741 -1.2 1 0.0205591 0.0238908 0.0174021 0.0237594 0.0149177 0.0280485 0.0268941 0.0628787 0.0411448 0.0521942 0.0449773 0.0728457 0.0506911 0.0731127 0.0720345 0.0593041 0.0635405 0.0857754 0.059683 0.0750941
103 3 O 0.98387 80.5244 4.48007 -1.2 1 0.0138074 0.0207472 0.0172266 0.0239254 0.0214879 0.0322268 0.0302051 0.0449948 0.0525685 0.0528486 0.0472555 0.043779 0.0533571 0.0747978 0.0943813 0.0720311 0.0718965 0.0567571 0.0580346 0.0629015
104 3 O 1.56069 83.4457 3.5844 -1.2 1 0.0111924 0.0139362 0.0351091 0.0174921 0.0228935 0.020747 0.0412085 0.0401897 0.0384761 0.0480827 0.0579843 0.0406931 0.0501907 0.0675563 0.0797484 0.0782449 0.0766829 0.0485091 0.0712912 0.0663271
105 1 Mg 0.171325 84.913 0.474011 1.2 1 0.0140498 0.00716878 0.0134912 0.0194511 0.0151123 0.0370545 0.0193144 0.053722 0.0299204 0.078185 0.0264313 0.0550521 0.0288388 0.0627224 0.0319343 0.104702 0.0452872 0.105091 0.049249 0.0805219
106 3 O 1.7442 83.2765 6.13399 -1.2 1 0.0129341 0.021567 0.0112473 0.0203402 0.0197369 0.0298029 0.0317435 0.0408578 0.0366288 0.0651346 0.0558223 0.040005 0.0604367 0.0671155 0.0687167 0.0720451 0.0758882 0.0666682 0.0586474 0.0676854
107 1 Mg 0.263249 87.9998 1.80778 1.2 1 0.0144096 0.0170923 0.0190555 0.0330142 0.0216582 0.0240284 0.028025 0.0341233 0.0362529 0.0565252 0.0570833 0.0609915 0.0575461 0.0666349 0.0580833 0.0725406 0.0780294 0.095074 0.0790682 0.0695543
108 2 Si -1.82525 86.115 1.84789 2.4 1 0.0178886 0.0193867 0.020459 0.0309441 0.0332868 0.0331505 0.0380865 0.0498035 0.051604 0.0557153 0.0506465 0.0647038 0.0772296 0.0532505 0.0711589 0.0689419 0.0600399 0.100288 0.0630431 0.0534834
109 3 O 1.20192 86.0591 1.68788 -1.2 1 0.0254682 0.0327432 0.0143985 0.0189329 0.0167406 0.0291892 0.0213147 0.0684745 0.0414273 0.064315 0.0336163 0.0650586 0.0572795 0.0718643 0.0796944 0.0657002 0.0653464 0.0624453 0.0676882 0.0673639
110 3 O -0.978732 89.8909 1.98419 -1.2 1 0.00672655 0.0160895 0.0238299 0.0228925 0.0169514 0.0388477 0.0358413 0.0410339 0.0518381 0.0430671 0.0472498 0.0451534 0.0460931 0.0732546 0.103113 0.0721687 0.0728607 0.0521567 0.0751207 0.0595959
111 3 O -1.21611 86.6244 0.433594 -1.2 1 0.0145367 0.035233 0.0150109 0.0192583 0.0226372 0.0169186 0.0400067 0.0426213 0.0467628 0.0477524 0.0557051 0.0431574 0.0556423 0.0607348 0.0951821 0.0639788 0.077443 0.0652411 0.0600342 0.0745245
112 3 O -1.17174 86.8966 3.11359 -1.2 1 0.0110943 0.0123766 0.0297753 0.0182029 0.0206678 0.0288628 0.0439796 0.0477989 0.0395384 0.0505394 0.0526257 0.0376396 0.0595287 0.0573774 0.079338 0.0767268 0.0637962 0.0694321 0.0655158 0.0673101
113 1 Mg -2.19122 90.5293 0.438599 1.2 1 0.0150854 0.0136643 0.0149085 0.0326715 0.0201013 0.0393199 0.0215993 0.0537947 0.0375869 0.0680993 0.0328557 0.0446434 0.0318942 0.0717676 0.0318557 0.0942143 0.0474111 0.10788 0.0577545 0.0744067
114 1 Mg 2.33171 93.2542 1.93806 1.2 1 0.0204264 0.0155182 0.01821 0.0237356 0.0210019 0.0296364 0.0265072 0.0323293 0.0411594 0.0636024 0.0551029 0.0618466 0.0605303 0.0676585 0.0709945 0.074371 0.0723909 0.094163 0.0789657 0.0721846
115 2 Si -0.249298 91.3436 2.0328 2.4 1 0.00814681 0.00890014 0.0221245 0.0299133 0.0314906 0.0308151 0.0408958 0.0463667 0.0527165 0.0535529 0.0521335 0.066474 0.0677752 0.0529465 0.0674637 0.0661239 0.0667512 0.102635 0.0525332 0.0553112
116 3 O 1.38286 91.2581 1.93776 -1.2 1 0.0240735 0.0125849 0.0175996 0.0242089 0.0313941 0.0292103 0.0237772 0.0751352 0.0393959 0.0619245 0.0425874 0.0684302 0.0465023 0.0653826 0.075847 0.0682079 0.0612813 0.079501 0.0542787 0.0726799
117 3 O -1.34526 95.186 1.97542 -1.2 1 0.0144279 0.00679651 0.0288888 0.0252334 0.0177131 0.038997 0.0350315 0.0419939 0.0614481 0.0452446 0.0513499 0.0423138 0.059432 0.0762382 0.103138 0.0705071 0.0688863 0.0597503 0.0824343 0.0563489
118 3 O -0.778226 92.0169 0.707084 -1.2 1 0.0151908 0.0156206 0.023096 0.0210442 0.0346698 0.0228188 0.039025 0.0415561 0.042236 0.0515364 0.0479947 0.0410249 0.0558251 0.0741168 0.0685931 0.0724627 0.0755024 0.0668981 0.0670452 0.0716969
119 1 Mg -2.34499 100.97 3.38129 1.2 1 0.0082747 0.0149289 0.0122428 0.0396311 0.0124727 0.0409232 0.0151264 0.0583231 0.0237993 0.0768993 0.020731 0.0474277 0.0147722 0.068052 0.0240791 0.105984 0.0331882 0.106474 0.0453212 0.0903819
120 3 O -0.73178 92.0738 3.30283 -1.2 1 0.0147259 0.0161768 0.0257575 0.0232311 0.0235154 0.0229486 0.0547994 0.0469131 0.0385583 0.0530099 0.0543359 0.0433527 0.0521176 0.0735675 0.0678893 0.0846872 0.073113 0.056666 0.0690619 0.0719001
121 1 Mg -2.24726 97.9772 4.81082 1.2 1 0.0158255 0.0195968 0.0155904 0.0330037 0.0163513 0.0232173 0.0279423 0.0283458 0.0424599 0.0613594 0.0579786 0.0555121 0.0611197 0.0600318 0.0619439 0.0803214 0.0785278 0.0970012 0.059008 0.0878225
122 2 Si 0.481833 100.027 4.88073 2.4 1 0.0151806 0.0141543 0.0215607 0.0345494 0.0309971 0.0355137 0.0385951 0.0454673 0.0557549 0.0569289 0.0466566 0.0674012 0.0651199 0.0641885 0.0755498 0.060871 0.0569037 0.0899114 0.0533558 0.0602293
123 3 O -1.1194 100.033 4.73976 -1.2 1 0.0226017 0.0114711 0.0222941 0.0258663 0.0270769 0.0261437 0.0260099 0.0738565 0.0439949 0.0501008 0.0374271 0.0734751 0.0522765 0.0654096 0.0754057 0.0644998 0.0567538 0.0770491 0.0547128 0.0850903
124 3 O 1.58858 96.024 4.89756 -1.2 1 0.0166509 0.0194369 0.0239803 0.0247472 0.0197391 0.0350028 0.0369642 0.045641 0.0640823 0.0383275 0.0506212 0.0448139 0.0567972 0.0749654 0.0970118 0.0790363 0.0630982 0.0510089 0.0713302 0.0610675
125 3 O 1.07027 99.2331 3.58633 -1.2 1 0.01805 0.0134881 0.0329247 0.0211475 0.0289941 0.0185278 0.053128 0.0451054 0.0444232 0.0475797 0.0538178 0.0441768 0.0548329 0.0658331 0.0810323 0.0670007 0.0770344 0.0558115 0.0704493 0.0733605