ITEM: TIMESTEP
68200
ITEM: NUMBER OF ATOMS
5600
ITEM: BOX BOUNDS xy xz yz pp pp pp
0	7.1235	0
0	201.985	2.3745
0	119.584	0
ITEM: ATOMS id type element xu yu zu q Q_1 Q_2 Q_3 Q_4 Q_5 Q_6 Q_7 Q_8 Q_9 Q_10 Q_11 Q_12 Q_13 Q_14 Q_15 Q_16 Q_17 Q_18 Q_19 Q_20 Q_21
1 1 Mg -1.67209 48.3026 -1.35675 1.2 1 0.428489 0.0735311 0.111787 0.053151 0.0742763 0.052877 0.0412694 0.0555681 0.0794677 0.077598 0.0899567 0.0862956 0.0904029 0.0909462 0.109044 0.0708805 0.0887896 0.107688 0.10173 0.0782442
2 1 Mg 2.89851 49.2822 2.03049 1.2 1 0.312952 0.120044 0.0385603 0.0682955 0.0463657 0.0578086 0.0730022 0.0782605 0.06912 0.0769019 0.0720749 0.0739871 0.0790554 0.0828097 0.0755233 0.0801472 0.0848066 0.0770619 0.0827912 0.0843397
3 2 Si 0.902691 49.5954 0.0697413 2.4 1 0.284099 0.12243 0.0285989 0.0790424 0.056214 0.0462233 0.0683032 0.0554234 0.078161 0.0733876 0.0619366 0.0686108 0.0571686 0.0830553 0.0998564 0.0777933 0.0853647 0.0642353 0.0788811 0.0884203
4 3 O 2.11677 48.5538 0.201659 -1.2 1 0.402046 0.0778525 0.0762973 0.0764462 0.0409314 0.0655796 0.062871 0.0731083 0.0719518 0.0855743 0.0822869 0.0941845 0.0825376 0.0856776 0.0909952 0.0887542 0.0898466 0.0670284 0.0885657 0.0815295
5 3 O -1.38505 52.8174 1.5417 -1.2 1 0.0964514 0.0404608 0.0339252 0.031289 0.0368578 0.0347163 0.0450968 0.0597579 0.0736015 0.0545818 0.0553168 0.0569631 0.0736713 0.0725267 0.0939427 0.0639511 0.0705989 0.0662395 0.0662556 0.0787395
6 3 O -0.0588751 49.1586 -1.10334 -1.2 1 0.339715 0.112087 0.0430459 0.0722722 0.0342883 0.0705237 0.041456 0.0692216 0.0740501 0.079724 0.0639096 0.10223 0.0838188 0.0663685 0.0859664 0.0804785 0.0779055 0.0749652 0.0913727 0.079017
7 1 Mg -2.22269 58.2618 2.99173 1.2 1 0.0181198 0.0228467 0.00951529 0.0306248 0.0174981 0.0374103 0.0263034 0.067532 0.0279673 0.0682806 0.0318475 0.0530315 0.0322977 0.0731704 0.0402913 0.102157 0.0461703 0.0975773 0.0534318 0.0975099
8 3 O -0.0745792 49.5235 1.42148 -1.2 1 0.298671 0.136318 0.0393567 0.057657 0.0519341 0.0485003 0.0662111 0.065573 0.0661342 0.0933218 0.0709866 0.0675131 0.0478987 0.0914455 0.0860639 0.0896499 0.0875775 0.084258 0.0782663 0.0884155
9 1 Mg -2.19155 55.4818 4.66869 1.2 1 0.00579095 0.00714017 0.024336 0.0207078 0.023236 0.0390353 0.0382941 0.0265775 0.0553477 0.052623 0.0695641 0.058154 0.0627533 0.0714555 0.0654843 0.0751656 0.0789016 0.0751824 0.0739187 0.067945
10 2 Si 0.482678 57.3576 4.57622 2.4 1 0.0275815 0.0268133 0.0202049 0.0294379 0.0361439 0.0419634 0.036932 0.0480859 0.0614781 0.0611383 0.0585581 0.0661435 0.0704369 0.0507957 0.0790699 0.0606006 0.061124 0.0906554 0.0678778 0.0564903
11 3 O -1.08276 57.4751 4.75691 -1.2 1 0.015306 0.0220062 0.0280279 0.020119 0.0267175 0.0345553 0.0355406 0.0766775 0.0553221 0.0666204 0.0421194 0.0706732 0.060174 0.0714795 0.080507 0.0662358 0.0601733 0.0650482 0.0651649 0.0640208
12 3 O 1.514 52.984 4.33142 -1.2 1 0.0778562 0.0307548 0.0383797 0.0255553 0.0357678 0.0292288 0.0383782 0.0425209 0.0741154 0.0544303 0.0615693 0.050289 0.0633945 0.0625907 0.0888003 0.0755957 0.0722514 0.0611064 0.0696188 0.0557714
13 3 O 1.22492 56.7473 3.31292 -1.2 1 0.0330316 0.0101318 0.0274945 0.0256011 0.0163695 0.0377753 0.0491849 0.048492 0.0533928 0.0516519 0.0592712 0.0497011 0.0593556 0.0653389 0.097247 0.0671392 0.0814272 0.0604423 0.0583936 0.0566076
14 3 O 0.9684 56.415 5.69457 -1.2 1 0.0244439 0.0333232 0.0301887 0.0294347 0.0270921 0.043531 0.0425545 0.0532777 0.0407394 0.0546111 0.0677841 0.0496072 0.0515413 0.0631244 0.0776332 0.0883 0.0691928 0.0663295 0.0664898 0.0711812
15 1 Mg -0.0378617 53.0708 2.93434 1.2 1 0.0640819 0.0491551 0.0406268 0.0311005 0.0369864 0.0385318 0.0375347 0.0650922 0.0427529 0.0712418 0.0392203 0.0679418 0.0518196 0.0654963 0.0624107 0.0673387 0.0647269 0.0848779 0.0644227 0.0641377
16 1 Mg 0.498478 48.4498 3.19904 1.2 1 0.394216 0.0796935 0.0697834 0.0660802 0.047549 0.0912535 0.0654065 0.0708695 0.0845465 0.0696707 0.0726055 0.0649791 0.0821733 0.0808952 0.0883057 0.093954 0.0781302 0.0829442 0.0780613 0.0691107
17 2 Si 2.21661 51.5864 4.25247 2.4 1 0.11531 0.0850075 0.048632 0.0300353 0.0253178 0.0569651 0.0384278 0.0634103 0.0496555 0.0726103 0.0821372 0.0673025 0.0705262 0.0756618 0.0701356 0.0850069 0.0678397 0.0914269 0.0573626 0.0892724
18 3 O -1.0804 51.87 4.53755 -1.2 1 0.115578 0.0834532 0.0284078 0.0269049 0.0263715 0.0407912 0.0496925 0.0680378 0.050671 0.0802099 0.0503803 0.079168 0.0608031 0.075387 0.071384 0.0743496 0.0800917 0.0581755 0.0858557 0.0822836
19 3 O 2.42433 47.7699 3.53923 -1.2 1 0.458922 0.0422209 0.112703 0.0650182 0.0870997 0.0341725 0.0556356 0.0597905 0.0688445 0.0953508 0.0987891 0.0747427 0.0915941 0.0946268 0.0930605 0.112157 0.11173 0.108986 0.100941 0.0914562
20 3 O 1.90317 50.6605 3.07316 -1.2 1 0.213022 0.0932438 0.0244534 0.0347896 0.0290609 0.0583127 0.0394478 0.0677327 0.0616996 0.0698993 0.0707042 0.0846908 0.067438 0.0784559 0.076082 0.0886712 0.0715655 0.0804618 0.0813433 0.0896098
21 1 Mg -0.21927 53.5546 -0.156216 1.2 1 0.05849 0.0482052 0.0290458 0.0324964 0.0301943 0.0331352 0.0380602 0.0552044 0.0617616 0.0536394 0.0580657 0.0541353 0.0711508 0.0561799 0.0619166 0.0791638 0.0992374 0.0820248 0.0728106 0.0745824
22 3 O 1.34531 50.7833 5.78478 -1.2 1 0.176203 0.0944208 0.0223629 0.0275911 0.0328331 0.0306602 0.0493144 0.0662907 0.0494538 0.0596686 0.0626106 0.0649475 0.0697018 0.0717356 0.0811938 0.079518 0.0830067 0.0662979 0.0707046 0.0632942
23 1 Mg -0.0662681 55.9431 1.67374 1.2 1 0.0255218 0.00870787 0.0201869 0.0250734 0.01696 0.028101 0.0324552 0.0358998 0.052091 0.0521876 0.0700667 0.0658715 0.0612768 0.0688164 0.0682893 0.0753124 0.0702692 0.0735994 0.0796972 0.0718715
24 2 Si -2.09773 54.227 1.62778 2.4 1 0.0270605 0.0224574 0.0321138 0.0320304 0.0204255 0.0379259 0.0593247 0.051055 0.0543192 0.0666994 0.0576145 0.0651584 0.0648231 0.0628426 0.0653792 0.0720723 0.0621215 0.06585 0.0758912 0.0671029
25 3 O 1.11705 54.15 1.59572 -1.2 1 0.023947 0.0363175 0.0293745 0.0288191 0.020088 0.038191 0.0300932 0.0700301 0.0420584 0.0617389 0.0428846 0.0551632 0.059116 0.0701436 0.0841021 0.0566877 0.0705881 0.0571797 0.0644463 0.0601714
26 3 O -0.741211 57.9378 1.79421 -1.2 1 0.0273973 0.0245381 0.014445 0.0213998 0.0200365 0.0298551 0.0325802 0.0475693 0.0559604 0.0520821 0.055013 0.0469999 0.0707726 0.0697399 0.0886403 0.0814521 0.0675039 0.0674726 0.0638116 0.0473504
27 3 O -1.46793 55.011 0.305194 -1.2 1 0.0237969 0.011342 0.0247674 0.0259156 0.0205155 0.0336411 0.0578134 0.0488503 0.0460226 0.0523542 0.0677579 0.0444358 0.0684539 0.0729416 0.0669494 0.0767891 0.0575268 0.0684043 0.0680541 0.0608907
28 3 O -1.44986 54.8954 2.80883 -1.2 1 0.0197625 0.0222116 0.0245557 0.0296816 0.0202945 0.0345941 0.0549197 0.053012 0.0453891 0.059104 0.0597558 0.0433943 0.0637136 0.0586757 0.0618757 0.0796619 0.0606406 0.0673103 0.0642029 0.0677652
29 1 Mg -2.18697 58.5328 -0.0776055 1.2 1 0.0195322 0.0242762 0.0129557 0.0286327 0.0183585 0.0372578 0.0220347 0.0626272 0.022424 0.0830606 0.0314851 0.0541153 0.0334429 0.0654411 0.0346769 0.106903 0.0480646 0.100808 0.0360779 0.0891921
30 1 Mg 2.44318 61.3953 1.45276 1.2 1 0.0200692 0.0226906 0.0145744 0.0308428 0.0149785 0.0258329 0.0280449 0.0403713 0.0447335 0.0593198 0.0614475 0.0484157 0.0654893 0.0612505 0.0666917 0.0763426 0.0777242 0.0911151 0.0564944 0.0845949
31 2 Si -0.229817 59.4967 1.48965 2.4 1 0.00393457 0.0173979 0.0273286 0.0362929 0.029297 0.0302553 0.04017 0.0475403 0.0580111 0.0687871 0.0579534 0.0573019 0.0779794 0.0557161 0.079172 0.0596676 0.0576948 0.0909108 0.0693828 0.0688338
32 3 O 1.41619 59.478 1.6078 -1.2 1 0.0285725 0.0249477 0.0159855 0.0195186 0.0231154 0.0312687 0.0250636 0.0797227 0.043311 0.0693086 0.0307523 0.0680371 0.0556933 0.0760371 0.0769662 0.0603965 0.0532856 0.0629588 0.061162 0.0847494
33 3 O -1.11074 63.2676 1.52543 -1.2 1 0.0149265 0.0186051 0.0252765 0.019665 0.0178128 0.0344766 0.042837 0.0414927 0.0544443 0.0466857 0.0463252 0.0556582 0.0420406 0.0686175 0.102949 0.065774 0.0682001 0.0544434 0.0688003 0.0562427
34 3 O -0.968041 60.0831 0.172231 -1.2 1 0.0118399 0.00966545 0.0231393 0.0236762 0.0321122 0.0276733 0.05156 0.0492585 0.0510102 0.0437781 0.0573306 0.0491896 0.056359 0.0617581 0.07882 0.0695514 0.0781632 0.0648456 0.0697834 0.0630859
35 1 Mg -1.89519 69.1356 3.11895 1.2 1 0.0247791 0.0179059 0.0186105 0.0333998 0.0144558 0.0386557 0.015647 0.0585922 0.0335759 0.0752334 0.0424693 0.0476041 0.0498354 0.0675004 0.0492475 0.0875092 0.0573093 0.0920372 0.0531901 0.0630962
36 3 O -0.910839 60.1852 2.69746 -1.2 1 0.0242972 0.0220614 0.0271739 0.0266954 0.0333862 0.0247535 0.0529662 0.0470552 0.0363121 0.0471242 0.0560561 0.0386171 0.0609107 0.0637157 0.0912571 0.0682422 0.0757942 0.0601358 0.0606913 0.0630968
37 1 Mg -1.77558 66.1693 4.6291 1.2 1 0.0197271 0.018707 0.0208866 0.0342569 0.0270042 0.0310597 0.0357624 0.0343788 0.0492386 0.0493326 0.0709403 0.0645612 0.0548477 0.0609499 0.0691986 0.0759639 0.0784161 0.0766871 0.0865089 0.0569123
38 2 Si 0.638793 68.0336 4.39388 2.4 1 0.00681332 0.0235982 0.0222564 0.0249842 0.0331343 0.0424632 0.0489008 0.0499948 0.0574551 0.0484748 0.049556 0.0675196 0.0700917 0.0506028 0.0747574 0.0703477 0.0634402 0.0898633 0.0596436 0.0569518
39 3 O -0.869187 68.1696 4.51611 -1.2 1 0.020148 0.0392002 0.021366 0.0203287 0.0273411 0.0388999 0.030208 0.0756723 0.043046 0.0562443 0.0473084 0.0772834 0.0560438 0.0702523 0.0881902 0.0615476 0.0666244 0.0760855 0.0532652 0.0718783
40 3 O 1.45502 64.22 4.50186 -1.2 1 0.0195574 0.0114983 0.0231135 0.0265511 0.0229592 0.0298127 0.0505806 0.047001 0.0529585 0.0430538 0.05188 0.0447882 0.0544635 0.081307 0.106395 0.0668924 0.0775706 0.0469744 0.0800919 0.0508481
41 3 O 1.10617 67.3346 3.04205 -1.2 1 0.0170869 0.013097 0.0287708 0.0266691 0.0212836 0.0257786 0.0464312 0.0537447 0.042703 0.0523573 0.0572212 0.043943 0.0479303 0.0669136 0.0808936 0.0770476 0.0647197 0.0704296 0.0632661 0.0726201
42 3 O 1.30991 67.322 5.67458 -1.2 1 0.0207856 0.0241899 0.0259155 0.0216585 0.0288424 0.0304632 0.0391465 0.0484032 0.0431438 0.045801 0.0558263 0.0475916 0.0593826 0.0669736 0.0860633 0.0677675 0.0807409 0.0605597 0.0670417 0.0620679
43 1 Mg -0.0166961 63.8176 3.18353 1.2 1 0.0220576 0.0134721 0.0150921 0.0347706 0.0198421 0.0404411 0.019589 0.0537256 0.0265971 0.0755826 0.0292464 0.0480345 0.0433151 0.0667819 0.0364727 0.0967682 0.0549507 0.104014 0.0526453 0.0843101
44 1 Mg 0.177599 60.6753 4.38132 1.2 1 0.00955548 0.0148571 0.0182325 0.0292285 0.0178177 0.0309131 0.0322497 0.0340244 0.0494684 0.0564756 0.0609555 0.0573275 0.0633031 0.067221 0.0721063 0.0631027 0.0812298 0.0858347 0.0731104 0.077867
45 2 Si 2.11592 62.8294 4.57756 2.4 1 0.00832149 0.0132868 0.0255145 0.0261704 0.034181 0.0375601 0.0392116 0.0433068 0.0555529 0.0496509 0.0488879 0.0678805 0.0724745 0.0612581 0.0745673 0.0732732 0.0599499 0.0954056 0.0583627 0.0630024
46 3 O -1.05472 62.9771 4.55645 -1.2 1 0.0142826 0.0176925 0.0176721 0.0213781 0.019026 0.0322507 0.0353961 0.0738005 0.0430893 0.0460717 0.0504558 0.0817427 0.0525871 0.0633043 0.082207 0.0702787 0.0602051 0.069492 0.0537104 0.0771834
47 3 O 1.08836 58.8801 4.74489 -1.2 1 0.0100333 0.0199598 0.0175757 0.0283626 0.0208829 0.0369731 0.0354696 0.0423311 0.0603478 0.0415055 0.0438932 0.0441131 0.0603341 0.0747584 0.0868275 0.0774405 0.0662194 0.0626047 0.0562477 0.0589232
48 3 O 1.33736 62.1073 3.25006 -1.2 1 0.0187295 0.0145932 0.0232265 0.0262426 0.0243289 0.02027 0.0504885 0.0397876 0.0409699 0.0430845 0.0575676 0.0437099 0.0622185 0.0544838 0.0979888 0.0649184 0.0773762 0.0719213 0.063036 0.0663847
49 1 Mg 0.31568 63.5889 0.163498 1.2 1 0.0171604 0.0211818 0.0226886 0.035235 0.0188326 0.0431135 0.0283685 0.0627333 0.027678 0.0738434 0.0411608 0.0486392 0.0439419 0.0658576 0.040738 0.0909921 0.0589893 0.093665 0.0671329 0.0636786
50 3 O 1.58226 61.9953 5.77205 -1.2 1 0.0186651 0.0125618 0.0179724 0.0269194 0.0246295 0.0299177 0.0431438 0.0456975 0.0460318 0.0524821 0.0629745 0.0437125 0.0688905 0.064998 0.0768103 0.0858377 0.0689736 0.0668282 0.0615767 0.0568325
51 1 Mg 0.172844 66.6875 1.47891 1.2 1 0.00613604 0.0112805 0.0195674 0.0350192 0.0244388 0.0297819 0.0315323 0.0322247 0.0472432 0.0569197 0.0582148 0.0641497 0.0557907 0.0667248 0.0623873 0.0794759 0.0677606 0.0950165 0.0654378 0.0774282
52 2 Si -1.90856 64.766 1.52312 2.4 1 0.0168928 0.0165893 0.020883 0.0262658 0.0334782 0.0329904 0.0382565 0.0485894 0.0556115 0.0553821 0.0509193 0.0692695 0.0664392 0.0541126 0.0835284 0.0688782 0.0688821 0.0920401 0.0581317 0.0591748
53 3 O 1.32147 64.6836 1.43729 -1.2 1 0.0161785 0.0306241 0.0299076 0.0193767 0.0272022 0.0221857 0.0326892 0.0740962 0.0445569 0.0536324 0.0443716 0.0720735 0.05177 0.0715817 0.0724906 0.0672194 0.06186 0.0695668 0.0548149 0.0701184
54 3 O -0.683356 68.744 1.36829 -1.2 1 0.0103752 0.0267029 0.0167903 0.0265725 0.0294833 0.0268838 0.0309933 0.0478828 0.064491 0.0403385 0.0548283 0.0485583 0.0667014 0.0724555 0.0969186 0.0785287 0.0723298 0.0588629 0.0793065 0.0589939
55 3 O -1.37704 65.6853 0.314349 -1.2 1 0.0152656 0.0223786 0.0207061 0.0245456 0.0274252 0.0267191 0.0345957 0.0477681 0.043445 0.0535642 0.0584137 0.0417774 0.0573624 0.0593988 0.0844026 0.0735403 0.0694739 0.0679508 0.0728345 0.0652357
56 3 O -1.32844 65.3866 2.91936 -1.2 1 0.020115 0.0112685 0.0289748 0.022479 0.0269072 0.0224609 0.0490555 0.0430981 0.0441144 0.0511539 0.050231 0.0420026 0.0646626 0.0734835 0.0749114 0.0868814 0.0875446 0.0667076 0.0600353 0.0789107
57 1 Mg -2.28037 69.3301 0.112931 1.2 1 0.0221605 0.0126221 0.0112094 0.0363116 0.0180776 0.042444 0.0224449 0.0634508 0.0373422 0.0794792 0.0348491 0.0472511 0.0295676 0.0719731 0.0522865 0.101478 0.0487546 0.102601 0.0599938 0.0787765
58 1 Mg 2.55191 72.0325 1.737 1.2 1 0.0294984 0.0111263 0.0216464 0.0323946 0.0172474 0.0276481 0.0233433 0.0303078 0.0531179 0.0550759 0.063976 0.0478946 0.0634291 0.0638758 0.0670837 0.0713191 0.0785122 0.0894142 0.0720621 0.0742567
59 2 Si -0.0786625 70.2157 1.30233 2.4 1 0.0152619 0.0140744 0.0147281 0.0313575 0.0333396 0.0285885 0.0407308 0.0402517 0.0639113 0.0585191 0.0494579 0.062317 0.0691745 0.0646563 0.0731827 0.0873455 0.058133 0.0719401 0.0728328 0.0505602
60 3 O 1.4881 70.0296 1.66893 -1.2 1 0.0139875 0.0247535 0.0282141 0.0225085 0.0261944 0.0307119 0.0353212 0.0804193 0.0482083 0.0578123 0.042459 0.0629294 0.0644985 0.0758427 0.071343 0.0675857 0.0557568 0.0783135 0.059106 0.0712718
61 3 O -1.53734 74.2129 1.58814 -1.2 1 0.0111153 0.0129412 0.0193698 0.0222849 0.0266242 0.0314176 0.0346851 0.0361845 0.0722258 0.0429022 0.0487238 0.0493544 0.0560256 0.0747398 0.0889989 0.0709815 0.0669821 0.0599449 0.0808693 0.0555293
62 3 O -0.891213 70.8515 0.175691 -1.2 1 0.0110497 0.0188884 0.0377787 0.0161435 0.0266627 0.0229914 0.0491515 0.0589785 0.0447818 0.0472093 0.0594543 0.0393798 0.052594 0.0694863 0.0779155 0.0743316 0.0704053 0.0645717 0.0629621 0.064558
63 1 Mg -2.09074 79.8339 3.22798 1.2 1 0.0162599 0.0140887 0.0136634 0.0284402 0.015186 0.0425663 0.0206865 0.0605531 0.0216034 0.0737447 0.0273541 0.0505021 0.0356445 0.070465 0.0344276 0.103211 0.053669 0.102962 0.0520051 0.0837465
64 3 O -0.790301 70.8633 2.64312 -1.2 1 0.0138815 0.00881612 0.0208299 0.0256113 0.0377027 0.0309842 0.0467377 0.0406658 0.0411495 0.0481634 0.052631 0.0460652 0.0614761 0.0701714 0.0789355 0.08712 0.0634783 0.0613771 0.0636066 0.0677672
65 1 Mg -2.18848 76.874 4.43532 1.2 1 0.00568041 0.0216837 0.0193853 0.0300831 0.0168991 0.0261876 0.022668 0.0314082 0.0451873 0.0509084 0.0655896 0.0536983 0.0618443 0.0604676 0.0624823 0.0802445 0.0741725 0.0870807 0.0644768 0.0766206
66 2 Si 0.447907 78.8418 4.56758 2.4 1 0.00854605 0.0226192 0.0165192 0.0245677 0.0226254 0.0353489 0.0459404 0.0477553 0.0542909 0.0576063 0.0595909 0.0675807 0.0724169 0.0603403 0.0899103 0.0666271 0.062843 0.0857576 0.0527029 0.0721849
67 3 O -1.07385 78.8451 4.55475 -1.2 1 0.0189907 0.0290388 0.0175025 0.0230266 0.02209 0.0294733 0.0190486 0.0673078 0.0451368 0.0683308 0.0479487 0.0716389 0.0557639 0.0707708 0.0815508 0.0680401 0.0584192 0.072557 0.0560831 0.0693073
68 3 O 1.34021 74.9162 4.75704 -1.2 1 0.0173701 0.0231023 0.0237352 0.0217012 0.0186682 0.028052 0.0378442 0.0450692 0.0578604 0.0413382 0.0483346 0.0479533 0.0547225 0.0738676 0.0917408 0.0747544 0.0764508 0.0557237 0.0662365 0.0605998
69 3 O 1.19638 78.1361 3.30917 -1.2 1 0.0196372 0.0324498 0.0280144 0.0252023 0.0280189 0.0255164 0.0410515 0.0434466 0.0423239 0.0444881 0.0614762 0.0450705 0.0554565 0.0499156 0.0929116 0.0747576 0.0715154 0.063764 0.064711 0.067614
70 3 O 1.27772 78.0714 5.78737 -1.2 1 0.0187422 0.0255153 0.0249062 0.0191929 0.0251311 0.0205008 0.0511434 0.0424743 0.0490395 0.0439316 0.0570324 0.0356941 0.0625552 0.0585191 0.0888579 0.0626941 0.0754228 0.0685937 0.0654153 0.0589877
71 1 Mg 0.112328 74.6465 3.15764 1.2 1 0.0190104 0.016249 0.0175517 0.0244871 0.015796 0.0284303 0.0200053 0.0557152 0.0272786 0.0858498 0.0228606 0.0476424 0.0291395 0.0743542 0.0394418 0.105035 0.053102 0.09075 0.0380209 0.0853915
72 1 Mg 0.108748 71.5359 4.44099 1.2 1 0.0208445 0.0117963 0.0155524 0.0272513 0.0177782 0.0329121 0.0240821 0.0325932 0.0473199 0.0573641 0.0648348 0.0552666 0.0570849 0.0611754 0.0702444 0.0874307 0.0692991 0.084143 0.0710869 0.0799948
73 2 Si 2.22271 73.2611 4.61219 2.4 1 0.0177271 0.0126525 0.0246948 0.0218241 0.0267853 0.0406151 0.0367909 0.055239 0.0484772 0.0491887 0.0512572 0.0675535 0.0652541 0.0553248 0.0645492 0.0775775 0.0681569 0.0956681 0.0653493 0.0626741
74 3 O -0.967279 73.4032 4.43993 -1.2 1 0.0117814 0.0174562 0.0070204 0.0264287 0.0202827 0.0307197 0.0246684 0.0845838 0.0354993 0.0659736 0.0393311 0.0614063 0.0624407 0.0730136 0.079725 0.0619713 0.0607801 0.056632 0.0678784 0.0752209
75 3 O 1.33746 69.4557 4.65347 -1.2 1 0.0119732 0.0176853 0.0141742 0.0313962 0.0133089 0.028086 0.0375256 0.0493167 0.0506284 0.0402689 0.0504673 0.0478276 0.0591391 0.0749786 0.098204 0.0748776 0.0781925 0.0522796 0.0666553 0.0560193
76 3 O 1.52227 72.6563 3.48085 -1.2 1 0.0206965 0.0185882 0.0280815 0.0253791 0.026701 0.0187649 0.0456869 0.0487998 0.0424624 0.0434683 0.0517983 0.0384211 0.0494144 0.0672251 0.080655 0.0743003 0.0763614 0.074264 0.0610241 0.070464
77 1 Mg 0.157659 74.4298 0.32127 1.2 1 0.0228103 0.022692 0.0162384 0.0309082 0.0239019 0.034384 0.0195072 0.0603536 0.0264897 0.0704859 0.0279947 0.0506102 0.0335011 0.0627159 0.0329058 0.105048 0.0565803 0.099628 0.0497459 0.0838429
78 3 O 1.63713 72.7073 5.97982 -1.2 1 0.0178127 0.0158031 0.0217857 0.0243454 0.0265088 0.0218759 0.0471456 0.0486787 0.0406935 0.0551254 0.0600077 0.0353832 0.0621898 0.0620636 0.0801813 0.0819603 0.0675061 0.0685525 0.0662068 0.0672071
79 1 Mg 0.131579 77.4535 1.57122 1.2 1 0.0255206 0.0236343 0.0123918 0.0327509 0.0211848 0.0242966 0.0264514 0.037106 0.0453282 0.0557922 0.0588186 0.0596296 0.0586423 0.0729468 0.0696838 0.0687073 0.0682155 0.0945457 0.0673973 0.0784791
80 2 Si -1.94223 75.7188 1.51118 2.4 1 0.0391936 0.0183037 0.028361 0.0243323 0.0268998 0.0343445 0.0350757 0.0504524 0.052462 0.0615195 0.0567768 0.0714759 0.0656702 0.0588275 0.0574579 0.0695208 0.060346 0.0925783 0.0636945 0.0592294
81 3 O 1.09691 75.534 1.57393 -1.2 1 0.0415897 0.0213032 0.0136819 0.027832 0.0265677 0.0230984 0.0153887 0.0746904 0.0457977 0.0739155 0.0364401 0.0629911 0.0613916 0.0734648 0.0739877 0.0664836 0.0624137 0.058555 0.0648834 0.0766358
82 3 O -0.811044 79.2358 1.66476 -1.2 1 0.0170451 0.0141654 0.0157683 0.0280567 0.0202649 0.0365303 0.0362363 0.0434891 0.0569997 0.0442568 0.0533937 0.0507369 0.0517908 0.067105 0.100149 0.0655025 0.0734989 0.0471376 0.0664489 0.062908
83 3 O -1.22965 76.3682 0.375997 -1.2 1 0.0340164 0.0103591 0.0227427 0.0236314 0.0383711 0.0261844 0.0386897 0.0375623 0.0433148 0.0488911 0.0532159 0.0402382 0.0614022 0.0530574 0.0776225 0.0880569 0.0669178 0.060357 0.0661647 0.0673751
84 3 O -1.24907 76.297 2.86213 -1.2 1 0.0327527 0.0186996 0.022957 0.0151869 0.0239777 0.0253686 0.0401148 0.0403958 0.0358181 0.0571107 0.0571852 0.0389512 0.0537473 0.0692875 0.0773967 0.0789452 0.0659029 0.0658622 0.0575722 0.0676251
85 1 Mg -2.22241 79.7216 0.407513 1.2 1 0.0145273 0.015678 0.0120911 0.0281468 0.0129254 0.0334364 0.0249775 0.0570449 0.0257733 0.0684104 0.0344785 0.049911 0.0395951 0.0746514 0.0385952 0.0929349 0.0595257 0.106244 0.0574717 0.075931
86 1 Mg 2.39539 82.6374 1.57631 1.2 1 0.0172533 0.0138082 0.0274764 0.0271551 0.0104682 0.0343737 0.0269738 0.0313711 0.0402671 0.0612752 0.0641996 0.0629815 0.059663 0.0687328 0.0549957 0.0794351 0.0733285 0.0928671 0.0601449 0.0850703
87 2 Si -0.113305 80.8132 1.60075 2.4 1 0.00769342 0.0222234 0.0141952 0.0298285 0.0353526 0.0279188 0.0366058 0.0380964 0.0481222 0.0637412 0.0539331 0.0715858 0.0664774 0.0530387 0.0737266 0.0653531 0.0774525 0.0902536 0.0586957 0.0655588
88 3 O 1.43078 80.761 1.66931 -1.2 1 0.0171677 0.038727 0.0216439 0.0229431 0.0233638 0.0253305 0.023229 0.0712846 0.0386793 0.0702472 0.0340203 0.0743674 0.0627986 0.0786502 0.0717578 0.0558919 0.0660525 0.0701334 0.0632934 0.0816118
89 3 O -1.86746 84.6041 1.56297 -1.2 1 0.0213681 0.0277331 0.015368 0.0222621 0.023135 0.0270023 0.0365745 0.0434377 0.0587207 0.0505905 0.056762 0.0437058 0.058349 0.0775281 0.0770223 0.0941527 0.0681531 0.0605071 0.0534433 0.0605933
90 3 O -0.861074 81.6585 0.46962 -1.2 1 0.0217061 0.0239376 0.0253851 0.0170083 0.0285338 0.0248695 0.04075 0.0416605 0.0429503 0.0580679 0.0564828 0.0352652 0.0644287 0.0565124 0.076877 0.088347 0.0686229 0.0681999 0.0618037 0.0631235
91 1 Mg -2.12806 90.293 3.20625 1.2 1 0.0107377 0.00908515 0.0158127 0.0316307 0.0100203 0.0425768 0.0210437 0.0626696 0.0270221 0.0728808 0.0288577 0.0529101 0.0394771 0.0781644 0.0371622 0.104127 0.0369386 0.105525 0.0450898 0.0773721
92 3 O -0.810222 81.3097 3.00099 -1.2 1 0.0186862 0.0169403 0.0237649 0.0241282 0.0264713 0.0280495 0.0468332 0.0470208 0.0506053 0.0479101 0.0480965 0.0482173 0.06326 0.0719993 0.0875822 0.0742676 0.077623 0.0531906 0.0685832 0.0859225
93 1 Mg -1.90341 87.454 4.58032 1.2 1 0.0234914 0.0167741 0.0256271 0.0357116 0.0275465 0.0293941 0.0301491 0.0370752 0.0376089 0.0630357 0.0681708 0.0615854 0.0522628 0.0722782 0.0657892 0.0741032 0.077026 0.0734872 0.0846126 0.0537642
94 2 Si 0.566114 89.3878 4.45722 2.4 1 0.00881353 0.00998918 0.0263 0.0353036 0.0330835 0.0359349 0.0387414 0.0406575 0.0561747 0.0476514 0.0483484 0.0707963 0.0677352 0.0559321 0.0856058 0.0645212 0.0652317 0.0949268 0.0531414 0.05434
95 3 O -0.98856 89.4365 4.43959 -1.2 1 0.0214999 0.0274549 0.0141155 0.0258838 0.0255474 0.0374969 0.0354782 0.065515 0.0503142 0.0498717 0.0405493 0.075029 0.0621061 0.0738884 0.0735438 0.0707494 0.0649343 0.0732656 0.0622073 0.0692971
96 3 O 1.39223 85.4609 4.50555 -1.2 1 0.0166917 0.0193118 0.0245374 0.0269447 0.0168159 0.0315737 0.0432475 0.0403866 0.0517069 0.0398315 0.0489906 0.0417654 0.0536792 0.0716704 0.0997785 0.0634814 0.0795366 0.0563263 0.0759177 0.0633054
97 3 O 1.11503 88.7892 3.18163 -1.2 1 0.00746274 0.0138151 0.0292798 0.0195467 0.0301794 0.0209459 0.0473079 0.0522714 0.0474521 0.0474452 0.0486336 0.0489571 0.053715 0.0662358 0.0865971 0.0672175 0.0817005 0.0583247 0.0659669 0.0662881
98 3 O 1.22731 88.6813 5.73143 -1.2 1 0.0146306 0.0244728 0.0285374 0.0213577 0.0300642 0.0267118 0.0436748 0.051792 0.0387289 0.044365 0.0500223 0.0490137 0.0551546 0.06547 0.100848 0.0598462 0.0862616 0.0588337 0.0693387 0.0618248
99 1 Mg 0.184389 84.7826 2.94836 1.2 1 0.0123174 0.0213775 0.0148786 0.0272599 0.0282433 0.0276912 0.0223349 0.0494493 0.037896 0.0702177 0.037757 0.0426516 0.039504 0.0625942 0.0499558 0.0892731 0.0600613 0.100254 0.0703442 0.0765755
100 1 Mg 0.194867 82.0846 4.41842 1.2 1 0.0259611 0.019224 0.019144 0.02958 0.0120594 0.029757 0.0206979 0.0379174 0.0452208 0.0612564 0.0557242 0.0453791 0.0606027 0.0648606 0.0749094 0.0613259 0.06678 0.101401 0.0703309 0.073088
101 2 Si 2.14473 83.9226 4.61979 2.4 1 0.0243506 0.010988 0.020315 0.0332323 0.0279665 0.032998 0.0412091 0.044636 0.0451919 0.0500666 0.0492889 0.0569555 0.0711278 0.0594345 0.0590737 0.0824693 0.0615074 0.0873514 0.0588374 0.056742
102 3 O -1.09834 84.0982 4.62304 -1.2 1 0.0165898 0.0107009 0.018528 0.0199329 0.0289388 0.0267554 0.0270635 0.0707861 0.0387733 0.0567694 0.0454736 0.0679604 0.0520704 0.0634792 0.0812555 0.0636725 0.0753615 0.0679374 0.0571215 0.0722543
103 3 O 1.09611 80.367 4.67721 -1.2 1 0.0188998 0.0218354 0.0231297 0.0184315 0.0238057 0.0297666 0.0339773 0.0468409 0.0477243 0.0514332 0.043401 0.0492017 0.0580012 0.0725078 0.0964974 0.0738177 0.0659059 0.0601871 0.0700076 0.0570483
104 3 O 1.43857 83.0895 3.3241 -1.2 1 0.0271773 0.0243633 0.0174255 0.022683 0.0316138 0.0290731 0.0327372 0.0382579 0.0379742 0.0476525 0.0617187 0.0426029 0.0532645 0.0671435 0.0739235 0.0676548 0.065251 0.0704355 0.0746961 0.0632172
105 1 Mg -0.20661 85.4804 -0.144494 1.2 1 0.0112877 0.0155298 0.0130737 0.0180097 0.0270897 0.0317511 0.0306166 0.0496122 0.0489133 0.0628988 0.0468492 0.0447907 0.049883 0.0601803 0.0584915 0.0753079 0.0924739 0.0814169 0.0753323 0.0588514
106 3 O 1.61705 83.3248 5.93776 -1.2 1 0.0216005 0.0128151 0.0359241 0.0158514 0.0244979 0.0184394 0.050906 0.0432354 0.0323163 0.0537356 0.0575566 0.0486224 0.0527459 0.0706537 0.0679735 0.0872761 0.0687136 0.0648209 0.0610344 0.0716078
107 1 Mg 0.140465 88.0251 1.60829 1.2 1 0.0279781 0.0124932 0.0175321 0.0325678 0.01698 0.0331069 0.0251368 0.033714 0.0431581 0.0527991 0.0659568 0.0652767 0.0551504 0.0630935 0.0699955 0.0715899 0.0645105 0.0986436 0.0819153 0.0746392
108 2 Si -2.13849 86.1193 1.54562 2.4 1 0.0171837 0.0213832 0.0267873 0.024016 0.0272701 0.0272502 0.0373352 0.0406238 0.0512573 0.0681802 0.0492926 0.0711125 0.0583014 0.0524026 0.0798323 0.0530019 0.0727951 0.0831745 0.0673643 0.0631486
109 3 O 1.03227 86.1246 1.4442 -1.2 1 0.0114739 0.0117557 0.00914166 0.0209449 0.0228835 0.0238704 0.0232025 0.071305 0.0396278 0.0625751 0.0352679 0.0589999 0.0544469 0.0782982 0.0660975 0.0719271 0.0570587 0.0700489 0.0721628 0.0678891
110 3 O -0.761187 89.8387 1.62387 -1.2 1 0.00889962 0.0202008 0.0212645 0.0253499 0.0177822 0.0381869 0.0405865 0.0523367 0.0525387 0.038993 0.0539994 0.0503429 0.054652 0.0714153 0.0979349 0.0810733 0.0703932 0.0545357 0.0636949 0.0612327
111 3 O -1.50321 86.8156 0.290116 -1.2 1 0.0219245 0.0175863 0.0229489 0.0155618 0.0223583 0.0325553 0.0495557 0.0468616 0.0374195 0.0549308 0.0456553 0.0491908 0.0496941 0.0771005 0.0688146 0.0844129 0.0661674 0.06074 0.066438 0.0785282
112 3 O -1.39198 86.7375 2.79435 -1.2 1 0.00666907 0.0195964 0.0236924 0.0262727 0.0273988 0.0190633 0.0483192 0.03963 0.034454 0.0461946 0.0488497 0.0414534 0.0508548 0.0744254 0.0748854 0.0836099 0.0827005 0.0595693 0.0739884 0.0643814
113 1 Mg -2.16391 90.429 0.082699 1.2 1 0.0122821 0.0251485 0.0096919 0.0300526 0.0123844 0.0293948 0.0222481 0.0580129 0.0186871 0.0809234 0.0253157 0.0522476 0.0220516 0.0677442 0.0321588 0.10052 0.0463496 0.110552 0.0495701 0.0983716
114 1 Mg 2.47626 93.3078 1.97965 1.2 1 0.0210988 0.0149336 0.013468 0.028336 0.0196581 0.0319096 0.0236475 0.0384503 0.0432963 0.0499349 0.062787 0.051205 0.0674964 0.0705168 0.0729071 0.0699503 0.0804817 0.0868602 0.0811556 0.067039
115 2 Si -0.191445 91.3077 1.59474 2.4 1 0.00993613 0.0188744 0.0236357 0.0273769 0.0290607 0.0304738 0.0484996 0.0374557 0.0475804 0.0573565 0.0499641 0.0706188 0.075991 0.0610659 0.083077 0.0602384 0.0700876 0.0842244 0.062835 0.0654055
116 3 O 1.40507 91.1755 1.57355 -1.2 1 0.0195904 0.02772 0.0156565 0.0160013 0.022969 0.0302177 0.0297468 0.0664905 0.0384796 0.0486182 0.0400956 0.0738808 0.0578362 0.077213 0.0761847 0.0726606 0.0600153 0.0749992 0.0534548 0.0741587
117 3 O -1.29322 95.0876 1.80261 -1.2 1 0.0141171 0.0167479 0.0320042 0.0240756 0.0238934 0.0400481 0.0382278 0.045524 0.0562831 0.0407105 0.0487795 0.0493614 0.0521542 0.0663664 0.100046 0.0717823 0.0665418 0.0488293 0.0698435 0.0566656
118 3 O -0.922389 91.8118 0.27438 -1.2 1 0.020418 0.0131554 0.0323373 0.0234619 0.0248149 0.0259925 0.0444595 0.0480277 0.0377191 0.040197 0.0488366 0.0514627 0.0559816 0.0682398 0.09395 0.0650233 0.0878076 0.0683259 0.072426 0.0656498
119 1 Mg -2.24814 100.97 3.06666 1.2 1 0.0109419 0.0181302 0.00828009 0.0350196 0.0115308 0.0476812 0.0155913 0.0596198 0.0196882 0.082376 0.0169333 0.051827 0.0202108 0.0738172 0.0272838 0.0957115 0.03062 0.100018 0.0423756 0.0914434
120 3 O -0.884178 92.1206 2.96014 -1.2 1 0.0153314 0.0177885 0.0289431 0.0184485 0.0238949 0.0231987 0.0490016 0.0393509 0.0400545 0.0433463 0.0511497 0.0352836 0.0565066 0.0635054 0.0796678 0.084248 0.0741842 0.0646605 0.0645536 0.0708698
121 1 Mg -2.30153 97.8626 4.93784 1.2 1 0.0147924 0.00931001 0.01739 0.0268321 0.018642 0.0301399 0.0284649 0.0376666 0.0468482 0.0545123 0.054388 0.058692 0.0579712 0.059937 0.0687904 0.0725564 0.0737966 0.0916672 0.0661151 0.0780797
122 2 Si 0.448684 99.9983 4.57666 2.4 1 0.00901295 0.0110713 0.0223185 0.0324833 0.0381266 0.0331695 0.047291 0.0420936 0.0596193 0.0536204 0.0505184 0.0646691 0.0709201 0.0531962 0.0713113 0.0629595 0.0669859 0.0885457 0.061607 0.0520755
123 3 O -1.08943 99.8956 4.60921 -1.2 1 0.0268095 0.0264712 0.0211365 0.0288697 0.0296956 0.0282266 0.0285233 0.0617542 0.0421618 0.0595007 0.0386853 0.0720635 0.0580881 0.0643636 0.0682667 0.0504312 0.0634099 0.0750446 0.0566077 0.062214
124 3 O 1.34187 96.2074 5.03275 -1.2 1 0.016134 0.0219275 0.0272786 0.0183959 0.0280063 0.0362129 0.0402328 0.0454592 0.0489324 0.0479275 0.0421855 0.0515918 0.0510745 0.0805055 0.0887506 0.0811851 0.0626625 0.0759827 0.063157 0.05902
125 3 O 1.23005 99.4778 3.2908 -1.2 1 0.0245563 0.0119519 0.0322363 0.0170688 0.0324892 0.0248948 0.0462727 0.0426452 0.0446975 0.0345831 0.0573721 0.0521056 0.0633734 0.0584555 0.088829 0.0666771 0.0802742 0.083123 0.0631463 0.0647265