ITEM: TIMESTEP
6000
ITEM: NUMBER OF ATOMS
5600
ITEM: BOX BOUNDS xy xz yz pp pp pp
0	7.1235	0
0	201.985	2.3745
0	119.584	0
ITEM: ATOMS id type element xu yu zu q Q_1 Q_2 Q_3 Q_4 Q_5 Q_6 Q_7 Q_8 Q_9 Q_10 Q_11 Q_12 Q_13 Q_14 Q_15 Q_16 Q_17 Q_18 Q_19 Q_20 Q_21
1 1 Mg -1.52918 49.8373 -0.701992 1.2 1 0.433784 0.0768753 0.131161 0.0389907 0.0676051 0.0504256 0.0440754 0.0558267 0.0713086 0.0680474 0.0873887 0.087076 0.0996304 0.0961122 0.11023 0.0987429 0.102621 0.113959 0.0989282 0.0929607
2 1 Mg 3.06343 51.2807 2.44095 1.2 1 0.291142 0.122132 0.030478 0.0650028 0.0359789 0.0274744 0.0781663 0.061491 0.0667485 0.0769386 0.0705029 0.0731091 0.0797175 0.067802 0.0868253 0.0837784 0.084197 0.0787082 0.0859344 0.0886152
3 2 Si 0.923907 51.4381 0.50879 2.4 1 0.263481 0.143429 0.0387668 0.0595171 0.0416143 0.0331221 0.0567604 0.0353062 0.0700407 0.063051 0.0713876 0.0685102 0.0595854 0.0741317 0.0828576 0.0821036 0.0859143 0.0686481 0.0791282 0.0793776
4 3 O 2.30353 50.6838 0.676466 -1.2 1 0.345543 0.124225 0.0713332 0.0665576 0.0257186 0.0532039 0.0559935 0.0641942 0.0588554 0.078461 0.0628367 0.0892785 0.0797831 0.0733744 0.0864077 0.0746196 0.0730462 0.0665814 0.0864441 0.0824627
5 3 O -1.19993 53.9956 1.84984 -1.2 1 0.0999705 0.0605318 0.0526496 0.0188294 0.0290873 0.0289476 0.0409585 0.0478702 0.0587754 0.0588708 0.057255 0.0486213 0.0556416 0.0662882 0.0751006 0.0859584 0.0790312 0.0617866 0.0565727 0.0799097
6 3 O 0.214867 50.642 -0.680278 -1.2 1 0.360114 0.115184 0.0734658 0.0630208 0.0277151 0.063541 0.0353221 0.0678889 0.0751218 0.0783198 0.0755274 0.0865391 0.0730386 0.0871768 0.0972239 0.075068 0.0896335 0.0775484 0.0851756 0.0882946
7 1 Mg -2.29978 59.7609 3.15186 1.2 1 0.0138195 0.0213281 0.0096185 0.0345822 0.00687452 0.0340786 0.015462 0.0604125 0.017188 0.0714441 0.0159177 0.04984 0.0157275 0.0721203 0.0174356 0.103685 0.0205276 0.121145 0.0211997 0.0975682
8 3 O 0.138285 51.2662 1.84095 -1.2 1 0.297299 0.131809 0.0541586 0.0536337 0.0363937 0.0378292 0.0657891 0.0731679 0.0590893 0.0862858 0.0705671 0.0686892 0.0487962 0.0669883 0.087691 0.0798435 0.0772898 0.0819831 0.062916 0.0913357
9 1 Mg -2.19986 56.9237 4.64982 1.2 1 0.00886091 0.0105596 0.0250055 0.0271779 0.0168161 0.0282301 0.0211785 0.0247149 0.0490266 0.0616628 0.06317 0.0556406 0.0534823 0.0697499 0.0619398 0.0766466 0.0762743 0.0881328 0.0717734 0.0831721
10 2 Si 0.403682 58.747 4.6747 2.4 1 0.015145 0.0182501 0.029425 0.0265683 0.0382878 0.0322159 0.0379966 0.0422155 0.0492828 0.0572459 0.056641 0.0685505 0.0685356 0.0529457 0.0848827 0.0653378 0.0607355 0.0910483 0.0610163 0.0578991
11 3 O -1.13146 58.9047 4.6871 -1.2 1 0.0309814 0.010228 0.0130545 0.0292613 0.0205935 0.0252104 0.0218715 0.0632568 0.0348881 0.0466047 0.0453509 0.0657334 0.0524131 0.0612533 0.0684442 0.0667359 0.0636212 0.0720793 0.0653343 0.0886744
12 3 O 1.72248 54.6289 4.83482 -1.2 1 0.0702813 0.0483716 0.032597 0.0418724 0.0271962 0.0285607 0.0272526 0.0351218 0.0612938 0.06319 0.0719176 0.0396588 0.0573472 0.0749585 0.084364 0.076482 0.0700219 0.0718013 0.0676575 0.0670512
13 3 O 1.08852 58.0442 3.43 -1.2 1 0.0111749 0.0102703 0.0252041 0.012637 0.019766 0.022969 0.04459 0.047621 0.0345009 0.0532624 0.0506685 0.04062 0.0558009 0.0646118 0.0853639 0.0859892 0.0673972 0.0655904 0.0609255 0.0703188
14 3 O 1.12871 58.2111 5.9597 -1.2 1 0.0190723 0.0148456 0.0265523 0.0174787 0.0163293 0.0217311 0.0487767 0.0401507 0.0388207 0.0445228 0.0530933 0.0444102 0.0525907 0.065123 0.0816739 0.069621 0.0837192 0.0563679 0.0631327 0.0751444
15 1 Mg 0.398424 53.8694 3.09734 1.2 1 0.100155 0.0841674 0.0341064 0.0316573 0.0357818 0.0292773 0.0366813 0.0513002 0.0640991 0.03432 0.0678781 0.0502969 0.049907 0.0572925 0.0604176 0.0729309 0.0679577 0.0782292 0.0689669 0.0874401
16 1 Mg 0.900825 50.3539 3.37982 1.2 1 0.373746 0.103033 0.0775331 0.0749408 0.0360766 0.0661334 0.0489016 0.0689635 0.0694505 0.0768234 0.0821992 0.0734528 0.0755777 0.0648555 0.0941874 0.0939251 0.0826938 0.06373 0.0903571 0.0774067
17 2 Si 2.48925 53.2256 4.84626 2.4 1 0.113164 0.104673 0.0448604 0.0343202 0.0300894 0.0395496 0.0302584 0.0470532 0.0757761 0.063789 0.0784235 0.0626578 0.0749952 0.0625087 0.0754362 0.0881176 0.0842601 0.088844 0.0750555 0.062746
18 3 O -0.7395 53.452 4.73016 -1.2 1 0.124155 0.0915081 0.0310167 0.0209305 0.0193856 0.0457701 0.0383604 0.0579051 0.0625169 0.0758405 0.0581791 0.0792005 0.0702956 0.0697821 0.0730573 0.0776052 0.0844628 0.0603273 0.084858 0.0627306
19 3 O 2.64639 49.5893 3.50897 -1.2 1 0.452852 0.0572996 0.119264 0.0446267 0.0788815 0.0437632 0.0781062 0.0781261 0.081963 0.0673805 0.0826691 0.0684049 0.0858666 0.0928522 0.090202 0.100783 0.102787 0.0976006 0.0740286 0.0739938
20 3 O 1.88468 52.3887 3.60764 -1.2 1 0.204612 0.0978308 0.025381 0.0331004 0.0292517 0.060034 0.040851 0.0667618 0.0573456 0.0557714 0.0741957 0.0664726 0.0733744 0.0787761 0.0836485 0.069651 0.0940413 0.0729683 0.0653227 0.0740837
21 1 Mg 0.042701 54.6404 0.275257 1.2 1 0.0673834 0.055749 0.0387833 0.0336184 0.0219449 0.0190218 0.0231274 0.0595436 0.0524499 0.0617481 0.0392727 0.0532763 0.0458032 0.0633826 0.0656736 0.0851061 0.0808141 0.0887886 0.0656259 0.0801226
22 3 O 2.03293 52.2145 6.07227 -1.2 1 0.215406 0.110438 0.0262768 0.0473872 0.047785 0.0392919 0.0503754 0.0523011 0.0628321 0.0506553 0.0717105 0.0787282 0.0624891 0.0853563 0.0701048 0.0652791 0.0698041 0.074391 0.0608104 0.0744379
23 1 Mg 0.0975046 57.3584 1.79876 1.2 1 0.0155527 0.0137259 0.0171393 0.0264234 0.0146068 0.0292426 0.0290924 0.0328788 0.039272 0.0571209 0.0635571 0.0527254 0.0656183 0.0669474 0.0675813 0.0825574 0.067103 0.0856292 0.0696711 0.0887418
24 2 Si -1.93785 55.4057 1.84844 2.4 1 0.0241783 0.0282878 0.0349644 0.0353399 0.0173647 0.0329288 0.044464 0.0457182 0.0494982 0.0650853 0.055223 0.0564247 0.076863 0.0566177 0.0573339 0.0659503 0.0784246 0.0641312 0.0668237 0.0641071
25 3 O 1.24877 55.3033 1.88569 -1.2 1 0.0256954 0.0439774 0.0339758 0.0196519 0.0194137 0.0336801 0.0229007 0.052535 0.04589 0.0545738 0.0514518 0.057871 0.0558021 0.0743234 0.0707274 0.0652763 0.0700737 0.0691724 0.0537977 0.0687759
26 3 O -0.930713 59.1849 1.77378 -1.2 1 0.0143031 0.0238395 0.0173984 0.0186113 0.0160028 0.0300793 0.0338017 0.0453655 0.0490878 0.0484397 0.0385438 0.0519876 0.0486886 0.0701022 0.0977846 0.0673976 0.077277 0.0561112 0.0705005 0.0688697
27 3 O -1.29227 56.1289 0.510155 -1.2 1 0.0230838 0.0235047 0.0207604 0.0354709 0.0249142 0.0309249 0.0505666 0.0426939 0.0342635 0.0393766 0.0660781 0.0440977 0.0584102 0.0628247 0.0775688 0.0671079 0.069931 0.0656306 0.0805134 0.0670538
28 3 O -1.29036 56.1915 3.05874 -1.2 1 0.0193603 0.0220808 0.0209312 0.0233231 0.023199 0.0285065 0.0500468 0.0402301 0.037051 0.0447621 0.0685248 0.0547227 0.0449037 0.0738468 0.0781421 0.0686345 0.0643131 0.0670183 0.0709592 0.0722376
29 1 Mg -2.32303 59.6812 0.232404 1.2 1 0.00765918 0.0139633 0.00754822 0.0258937 0.0118254 0.0343135 0.00954145 0.0586257 0.00810276 0.0844261 0.0111479 0.0532912 0.012888 0.0718144 0.0182574 0.101758 0.0135793 0.116984 0.0178574 0.103267
30 1 Mg 2.38752 62.5887 1.66419 1.2 1 0.0117547 0.0176595 0.0173234 0.0274555 0.0156503 0.0220147 0.0189569 0.0281249 0.0395648 0.0621208 0.0503211 0.054496 0.0632249 0.0619297 0.0579591 0.0780345 0.0754133 0.097147 0.0674397 0.0845655
31 2 Si -0.251095 60.6943 1.71287 2.4 1 0.0140505 0.00814894 0.010271 0.0286852 0.0342946 0.0308333 0.0415697 0.0389094 0.0509619 0.0604962 0.0520614 0.0609863 0.0698843 0.0590648 0.0898489 0.0709065 0.0592585 0.0886152 0.0576584 0.0599195
32 3 O 1.29558 60.6061 1.65962 -1.2 1 0.0199149 0.0199689 0.0194714 0.0297992 0.0219022 0.0224339 0.0248083 0.075052 0.0383391 0.0467431 0.0464486 0.0692069 0.0512782 0.067626 0.0738794 0.0674593 0.0487057 0.07589 0.0594885 0.0837434
33 3 O -1.32163 64.4061 1.67855 -1.2 1 0.0210368 0.0179182 0.0214552 0.0132391 0.0192878 0.0377445 0.0312617 0.0429774 0.0517903 0.0435341 0.0402569 0.045405 0.0523886 0.0657485 0.102534 0.0668977 0.0703515 0.0538337 0.0739481 0.0668112
34 3 O -0.9391 61.3764 0.387227 -1.2 1 0.0127078 0.0079738 0.0294823 0.0183885 0.0199858 0.0182022 0.0421751 0.0394736 0.0345811 0.0492552 0.0534499 0.0412583 0.0528923 0.0623428 0.0807023 0.0693337 0.074482 0.0602933 0.0681774 0.0741928
35 1 Mg -2.29266 70.0351 3.13395 1.2 1 0.0025371 0.0152809 0.00707166 0.0321016 0.00495733 0.0338714 0.00659673 0.0591573 0.00664512 0.0820704 0.0067374 0.0509942 0.00985002 0.0691846 0.00960763 0.109382 0.012069 0.115261 0.0130478 0.0984345
36 3 O -0.970598 61.4427 2.91542 -1.2 1 0.0126707 0.012615 0.0321688 0.0193889 0.0212949 0.0231833 0.0446432 0.0355789 0.0383299 0.0456007 0.0543192 0.0380251 0.0532993 0.0554161 0.0869497 0.0654784 0.0739549 0.064272 0.0666843 0.068
37 1 Mg -2.28403 67.2087 4.63164 1.2 1 0.021834 0.016346 0.0184136 0.0268529 0.0111761 0.023256 0.0223055 0.0333399 0.0399459 0.0608855 0.0545441 0.056807 0.0592832 0.0643353 0.0607671 0.0696678 0.0705813 0.10787 0.0640559 0.0871293
38 2 Si 0.37528 69.0543 4.59048 2.4 1 0.0276378 0.0169558 0.0143486 0.0272385 0.0263293 0.0263584 0.0424446 0.0395248 0.0452037 0.0603499 0.05646 0.0642104 0.0678136 0.0554513 0.0776865 0.0685842 0.0572904 0.0915122 0.0563149 0.0606887
39 3 O -1.1858 69.1589 4.6412 -1.2 1 0.0155609 0.00958192 0.013258 0.0272042 0.0229846 0.0237006 0.017583 0.0743366 0.0378414 0.0549446 0.0401683 0.0703817 0.0542962 0.062884 0.072933 0.0666784 0.0520883 0.0741036 0.0577985 0.074989
40 3 O 1.46368 65.4454 4.60002 -1.2 1 0.00999332 0.020186 0.0262529 0.013424 0.0198363 0.0347307 0.03124 0.0466783 0.0512248 0.0455409 0.0394066 0.0477674 0.0471082 0.0672995 0.106926 0.0707474 0.0689781 0.0560866 0.0721272 0.0677645
41 3 O 1.10463 68.4286 3.32384 -1.2 1 0.00798885 0.00572361 0.0275084 0.0240282 0.0203391 0.0208976 0.0440368 0.0406843 0.0340556 0.0456843 0.0533738 0.0435011 0.0511671 0.0535337 0.0818118 0.0695435 0.0682666 0.0588848 0.069279 0.0694239
42 3 O 1.10371 68.3728 5.84841 -1.2 1 0.0192918 0.00924193 0.0247313 0.0157934 0.0230384 0.020455 0.0429022 0.0423487 0.033232 0.0514553 0.0525839 0.0415834 0.0534403 0.0611592 0.0833418 0.0714665 0.0774486 0.0604567 0.0632663 0.0668289
43 1 Mg 0.0547065 64.887 3.12139 1.2 1 0.00773745 0.0144549 0.00448077 0.0305852 0.00591499 0.0323691 0.00492462 0.0557917 0.00705479 0.0827787 0.00712985 0.0495402 0.00859983 0.0738871 0.00972553 0.101927 0.0112006 0.120087 0.0147801 0.100414
44 1 Mg 0.0831845 62.0146 4.60379 1.2 1 0.00289937 0.0219868 0.0131069 0.0312048 0.0138878 0.0179268 0.02162 0.0321667 0.0397334 0.061432 0.0546893 0.0576885 0.0601199 0.0628565 0.0583801 0.0713949 0.0767112 0.103123 0.0675827 0.083906
45 2 Si 2.12163 63.9317 4.62962 2.4 1 0.0232558 0.0132307 0.0177199 0.0268017 0.0315917 0.0306925 0.0429165 0.0403987 0.0492731 0.0519367 0.0499549 0.0647714 0.0717218 0.057273 0.0791189 0.0691497 0.059698 0.0945016 0.0565666 0.0577474
46 3 O -1.07073 64.0091 4.64397 -1.2 1 0.022486 0.0162791 0.00990406 0.0263864 0.018831 0.0273814 0.0223798 0.0649318 0.038428 0.0501579 0.042612 0.070946 0.0499325 0.0613166 0.0701132 0.0668686 0.056694 0.0734865 0.0584195 0.0795267
47 3 O 1.09695 60.2868 4.5801 -1.2 1 0.013167 0.0185167 0.0229602 0.0141438 0.0194886 0.040711 0.033289 0.0449241 0.0516298 0.043104 0.0445039 0.044684 0.0487421 0.0685797 0.105407 0.0688775 0.069271 0.0504762 0.0730487 0.0699415
48 3 O 1.42205 63.2087 3.4316 -1.2 1 0.00507585 0.00605391 0.0251397 0.0232192 0.0237827 0.0175279 0.0462838 0.03866 0.0323963 0.0431954 0.0534401 0.0405645 0.0527452 0.0585238 0.085439 0.0674496 0.0741909 0.0601187 0.0689955 0.0662625
49 1 Mg 0.0721587 64.8394 0.149222 1.2 1 0.0054569 0.0193616 0.00566432 0.0339981 0.00613543 0.0360498 0.00621944 0.0610975 0.00800896 0.0822247 0.010054 0.05272 0.00931823 0.071119 0.0111098 0.105061 0.0148787 0.115975 0.0171631 0.0961899
50 3 O 1.52471 63.3148 5.98214 -1.2 1 0.0105071 0.0112734 0.030786 0.0239403 0.0169508 0.0225139 0.0411255 0.0427677 0.0370407 0.0467913 0.0518192 0.0376093 0.0519202 0.0640108 0.0804685 0.0702538 0.0756808 0.059793 0.0634577 0.0742311
51 1 Mg 0.134089 67.7472 1.61385 1.2 1 0.0114293 0.0153183 0.0143377 0.0267891 0.0161883 0.0190867 0.022243 0.0288761 0.039328 0.0636119 0.0544008 0.0597098 0.062324 0.0665736 0.0617398 0.0768095 0.0715772 0.102892 0.0729727 0.0824085
52 2 Si -1.98635 65.9494 1.58728 2.4 1 0.0219643 0.0168157 0.0183299 0.0295926 0.0281246 0.0287868 0.0443243 0.0400241 0.0477673 0.0551312 0.0557645 0.0673633 0.0709154 0.0543123 0.0740958 0.0742602 0.0580373 0.094525 0.0563916 0.0570521
53 3 O 1.22407 65.8489 1.60853 -1.2 1 0.0196762 0.00778532 0.0138836 0.0259734 0.0165368 0.0261264 0.0237456 0.066981 0.0366461 0.0513813 0.0464963 0.0667842 0.0536303 0.0663173 0.0652238 0.064672 0.0562747 0.0714206 0.0638086 0.07532
54 3 O -0.969187 69.5306 1.6475 -1.2 1 0.0136551 0.0198542 0.0249509 0.0143812 0.0225154 0.0366277 0.0302579 0.045917 0.0520834 0.0470373 0.0394 0.0504812 0.0482226 0.063784 0.107059 0.0662102 0.0682539 0.0529532 0.0730538 0.0636037
55 3 O -1.30077 66.5089 0.307031 -1.2 1 0.00415322 0.0140534 0.0307101 0.0189601 0.0151017 0.0199228 0.0421216 0.0428091 0.0334733 0.0434482 0.0560453 0.039324 0.0511084 0.0566468 0.0855428 0.0692065 0.0772479 0.0571452 0.0647977 0.0735029
56 3 O -1.31183 66.6389 2.86052 -1.2 1 0.00667549 0.00481608 0.0262229 0.0161989 0.0182555 0.0194382 0.042225 0.0405588 0.034981 0.050476 0.0516321 0.0377025 0.0542601 0.0633895 0.0813166 0.0724689 0.0739788 0.0625558 0.067266 0.0650981
57 1 Mg -2.32781 69.9332 0.118946 1.2 1 0.0109172 0.0118504 0.00676206 0.0302927 0.00461892 0.0322285 0.00676393 0.0570415 0.010339 0.0859589 0.0137327 0.0507928 0.0121107 0.0711855 0.0167463 0.100102 0.0212222 0.115481 0.0278009 0.104382
58 1 Mg 2.39676 72.9218 1.61569 1.2 1 0.019965 0.0148434 0.0154082 0.0285115 0.0135279 0.0191585 0.0250192 0.0287526 0.0409385 0.0606103 0.0532954 0.0611933 0.0596245 0.0628327 0.0616968 0.0721001 0.0716554 0.103855 0.0682523 0.0899213
59 2 Si -0.29949 70.9931 1.63275 2.4 1 0.00577682 0.0199907 0.0227081 0.0275405 0.0303595 0.034559 0.0406349 0.0399084 0.0503848 0.052514 0.0512531 0.0691075 0.0718374 0.0580624 0.0846411 0.0665659 0.0615735 0.0938651 0.0511088 0.0553854
60 3 O 1.25797 70.8994 1.58669 -1.2 1 0.0409678 0.013438 0.0104378 0.0199258 0.0154046 0.0299317 0.022302 0.0634181 0.0388346 0.0530381 0.0419191 0.0678114 0.048817 0.0632819 0.073313 0.0665072 0.0580171 0.0738691 0.0524612 0.0815135
61 3 O -1.31013 74.7343 1.54967 -1.2 1 0.00460004 0.0193937 0.0244259 0.0138847 0.0176134 0.0363799 0.0348305 0.0470333 0.0567012 0.0423138 0.0384652 0.0455342 0.0472839 0.063962 0.108081 0.0699357 0.0700602 0.048219 0.0715955 0.0652036
62 3 O -1.00049 71.6402 0.375478 -1.2 1 0.00422589 0.0120555 0.0282234 0.0175087 0.0169734 0.0176062 0.0447033 0.0459255 0.0314615 0.0413619 0.0514488 0.0439802 0.0515866 0.0595543 0.0899344 0.0619067 0.081425 0.0600249 0.0724861 0.0672394
63 1 Mg -2.2989 80.2888 2.96737 1.2 1 0.012006 0.0160645 0.00913163 0.0336225 0.0112418 0.0354405 0.00964385 0.0581642 0.0155187 0.0821295 0.0146818 0.0527073 0.0110178 0.070264 0.0176457 0.107798 0.0244874 0.112521 0.0339471 0.0970424
64 3 O -0.94354 71.7215 2.93607 -1.2 1 0.0086935 0.00844795 0.0314433 0.0191612 0.0186084 0.0265131 0.0445594 0.0461903 0.0336143 0.0476784 0.056441 0.0354235 0.0538212 0.0592037 0.0845814 0.0717247 0.0738811 0.0575894 0.0640964 0.0762496
65 1 Mg -2.17275 77.5633 4.54702 1.2 1 0.00772228 0.0124806 0.0195496 0.0274991 0.0170042 0.0197289 0.0200587 0.0296499 0.0412209 0.0638301 0.0582004 0.0569071 0.0604165 0.063264 0.0590193 0.0796981 0.0732342 0.0973123 0.0738807 0.0805157
66 2 Si 0.397028 79.3556 4.58059 2.4 1 0.0219327 0.0159214 0.018277 0.0303542 0.024386 0.0297316 0.0394403 0.040558 0.0489565 0.0556753 0.051794 0.0622366 0.0681559 0.0555831 0.0743048 0.0723298 0.0609516 0.0897211 0.055865 0.0590969
67 3 O -1.17606 79.4902 4.51089 -1.2 1 0.0293357 0.0151605 0.00662599 0.0250411 0.0117545 0.0214912 0.0196647 0.0643725 0.0353061 0.0513232 0.0439967 0.0622328 0.0466128 0.0599295 0.0709904 0.0678485 0.0548748 0.0756615 0.0556674 0.0818531
68 3 O 1.41041 75.7563 4.55227 -1.2 1 0.0132153 0.0209918 0.0282502 0.0135713 0.0182936 0.0351422 0.0331294 0.0463297 0.053284 0.0435671 0.0385602 0.0473422 0.0477646 0.0644361 0.109132 0.0658478 0.0714349 0.0508865 0.0723186 0.0657794
69 3 O 1.03885 78.7228 3.28309 -1.2 1 0.012983 0.0126302 0.026044 0.0223777 0.0227993 0.0182308 0.0464879 0.0401799 0.0318053 0.0428041 0.0521438 0.0387104 0.05032 0.0631489 0.082516 0.0733526 0.0767189 0.0588386 0.0679973 0.0693643
70 3 O 1.07647 78.7271 5.84064 -1.2 1 0.00364485 0.00846112 0.0281865 0.01587 0.0185419 0.0208672 0.0436336 0.0414299 0.0350639 0.0468337 0.0517982 0.0365764 0.0524736 0.0627664 0.0792928 0.0734049 0.0732209 0.0599457 0.0654994 0.0711574
71 1 Mg 0.0823108 75.2445 3.02471 1.2 1 0.00416212 0.0180544 0.00807432 0.0314712 0.00639203 0.0329611 0.0069223 0.0564407 0.00895274 0.0822374 0.00825844 0.0492242 0.00892674 0.0708635 0.0105448 0.104481 0.0113882 0.114494 0.0149052 0.100136
72 1 Mg 0.0184121 72.3988 4.61516 1.2 1 0.00855844 0.0134559 0.0159133 0.0272239 0.0201161 0.0205873 0.0230045 0.0255116 0.0411707 0.0646548 0.0516747 0.0608526 0.0611765 0.0651453 0.0628701 0.0770221 0.0727918 0.10004 0.0719479 0.0852548
73 2 Si 2.10557 74.232 4.60532 2.4 1 0.012741 0.0084459 0.0188022 0.0341876 0.0282505 0.0294923 0.0440768 0.0366374 0.0488321 0.050375 0.0516174 0.0671339 0.0739674 0.0585534 0.0697067 0.0695584 0.0577352 0.0969569 0.0596236 0.053818
74 3 O -1.10351 74.3437 4.57981 -1.2 1 0.015534 0.0108972 0.0156452 0.0288937 0.0261428 0.0231807 0.0242369 0.065613 0.0389895 0.0513786 0.0457994 0.0693821 0.0504522 0.0616114 0.0673684 0.0637772 0.0562305 0.0734818 0.059606 0.078386
75 3 O 1.0156 70.5545 4.64414 -1.2 1 0.010072 0.0233541 0.0239402 0.0126801 0.0173381 0.0340709 0.0315168 0.0436662 0.0583756 0.0439215 0.0444558 0.0430671 0.0517609 0.0699801 0.101878 0.0738801 0.0663227 0.0508646 0.0734265 0.0646862
76 3 O 1.46323 73.5461 3.32846 -1.2 1 0.00730509 0.0122857 0.0308992 0.017098 0.021733 0.01727 0.0444586 0.0412261 0.0315227 0.0487732 0.0519611 0.0392632 0.0510715 0.0650722 0.0794273 0.072449 0.0743118 0.061835 0.066532 0.0674984
77 1 Mg 0.0649862 75.1909 0.0410526 1.2 1 0.00320443 0.0197753 0.00468894 0.0353545 0.00353576 0.0329594 0.00547185 0.0620911 0.00576267 0.0822286 0.00776031 0.050057 0.010421 0.0737741 0.00861689 0.105535 0.0114196 0.117675 0.0127638 0.0986372
78 3 O 1.4215 73.6023 5.91941 -1.2 1 0.0128114 0.0143121 0.0318468 0.0197271 0.0193454 0.0189278 0.0414436 0.0384078 0.0374859 0.045338 0.0550917 0.0371694 0.0528 0.0505822 0.0867153 0.0690786 0.0685381 0.0619271 0.0581084 0.0768102
79 1 Mg 0.13553 78.0765 1.5468 1.2 1 0.0202945 0.0122026 0.0172425 0.0270832 0.0127337 0.0153962 0.021403 0.028484 0.0404967 0.059892 0.0512697 0.0553707 0.0600664 0.0590369 0.0573088 0.0756989 0.0737119 0.102591 0.0705443 0.0799179
80 2 Si -1.95657 76.2275 1.52752 2.4 1 0.0285273 0.0109417 0.0213656 0.0305889 0.0271571 0.0291808 0.0415477 0.0431724 0.0475449 0.0545726 0.0520017 0.062126 0.0719767 0.0567307 0.0766086 0.0696264 0.0582766 0.0951621 0.0557772 0.0558403
81 3 O 1.23575 76.1468 1.49208 -1.2 1 0.0197843 0.00558371 0.0148586 0.0295882 0.0255058 0.0231786 0.020431 0.0728759 0.0389749 0.0526211 0.0442509 0.0705264 0.0503542 0.0624168 0.0700373 0.0661283 0.0549594 0.0723376 0.0627488 0.0754539
82 3 O -0.944998 79.8691 1.46021 -1.2 1 0.00946142 0.0236481 0.0247143 0.0135954 0.0148368 0.0360204 0.0322845 0.0456726 0.056182 0.0441445 0.0419113 0.0462357 0.051092 0.065881 0.107692 0.0681692 0.066572 0.0497451 0.0711282 0.0661667
83 3 O -1.27389 76.8679 0.245234 -1.2 1 0.0151647 0.0114814 0.0339703 0.0173803 0.0175664 0.0208489 0.04135 0.039635 0.0338433 0.0464946 0.0550556 0.0417713 0.0527282 0.0529992 0.0875246 0.0690167 0.0719277 0.0584206 0.0630033 0.0743005
84 3 O -1.2968 76.9058 2.79091 -1.2 1 0.00566069 0.00976332 0.0262198 0.0205784 0.017782 0.0197946 0.0437167 0.0400238 0.0349462 0.0453934 0.0521828 0.0408251 0.0499312 0.0633493 0.0810507 0.0683939 0.07568 0.0605097 0.0702316 0.0685793
85 1 Mg -2.2927 80.3482 0.00140705 1.2 1 0.00496602 0.0141412 0.00458363 0.0283944 0.0066362 0.0327463 0.00476543 0.0582375 0.0055415 0.0864976 0.00619194 0.05354 0.00749335 0.0732531 0.00928219 0.100576 0.0105071 0.118878 0.0121417 0.103083
86 1 Mg 2.40906 83.1936 1.57625 1.2 1 0.0071578 0.0140907 0.0182533 0.0275782 0.0164109 0.022117 0.0202285 0.0269717 0.0432409 0.0647642 0.052336 0.0540729 0.0628235 0.0654232 0.0583873 0.0768112 0.0723834 0.103965 0.0681249 0.0849397
87 2 Si -0.251529 81.4068 1.47762 2.4 1 0.0223613 0.0148194 0.0169473 0.0269282 0.0254609 0.0288364 0.0387185 0.0413797 0.0459652 0.0574526 0.0534863 0.0616783 0.0703855 0.0560882 0.0737447 0.0735078 0.0580827 0.0938623 0.0585567 0.0566045
88 3 O 1.30016 81.3174 1.46947 -1.2 1 0.017723 0.0166363 0.00989354 0.0252642 0.0214027 0.0159575 0.0158396 0.0657917 0.0340473 0.0540281 0.0406547 0.0673701 0.0530429 0.0624581 0.0683283 0.0626108 0.0549872 0.069231 0.0643548 0.0703301
89 3 O -1.30473 85.0363 1.44471 -1.2 1 0.0131959 0.02213 0.0252093 0.0118404 0.0185898 0.034146 0.0321116 0.0458682 0.0520212 0.0429704 0.0405853 0.0446036 0.0506569 0.0669788 0.104958 0.0694397 0.0663352 0.0519757 0.0736159 0.062142
90 3 O -0.966332 82.0467 0.188102 -1.2 1 0.0113259 0.00739979 0.0233784 0.0182538 0.021388 0.019331 0.0450489 0.042686 0.0327845 0.0487066 0.0556016 0.0368723 0.0543152 0.056228 0.0815587 0.0719728 0.0699153 0.0617769 0.0638017 0.0720142
91 1 Mg -2.37482 90.7092 3.00433 1.2 1 0.00611643 0.0175297 0.00471735 0.0312485 0.0080365 0.0327164 0.00933846 0.0568043 0.00986509 0.0834165 0.00818707 0.0508904 0.00820954 0.0721288 0.0116337 0.104419 0.0138684 0.116194 0.0174984 0.0984446
92 3 O -0.959613 82.0544 2.73789 -1.2 1 0.00277039 0.00895858 0.0253121 0.0176552 0.0152627 0.0198654 0.038293 0.0383783 0.0320147 0.0441051 0.0534853 0.0386463 0.0495863 0.0534397 0.0806317 0.0680481 0.072695 0.0598051 0.0708071 0.0679236
93 1 Mg -2.2853 87.7558 4.49163 1.2 1 0.0179574 0.0129478 0.0161107 0.0264689 0.0102952 0.0195207 0.022503 0.0334375 0.0389041 0.0573691 0.054792 0.060404 0.0570001 0.0622657 0.062497 0.0669583 0.0787215 0.102467 0.07254 0.0792634
94 2 Si 0.342998 89.6682 4.52265 2.4 1 0.0173555 0.010912 0.0139348 0.0313579 0.026744 0.0315806 0.0417628 0.0374203 0.0471137 0.0567428 0.0530154 0.0625846 0.0746298 0.0565109 0.0789937 0.0725057 0.0586512 0.0896777 0.054906 0.0571842
95 3 O -1.18945 89.75 4.50313 -1.2 1 0.0117649 0.00944082 0.0156093 0.0294891 0.0256248 0.0198635 0.0215718 0.06951 0.0362267 0.0524689 0.0445562 0.068414 0.0529434 0.062961 0.0701031 0.0645951 0.052696 0.0739188 0.0627498 0.0779639
96 3 O 1.4427 85.9903 4.52134 -1.2 1 0.016021 0.0191906 0.0248524 0.0132612 0.0193096 0.0349009 0.0312172 0.0449544 0.0568116 0.0430991 0.0416153 0.0431297 0.0497083 0.0667806 0.10625 0.0713509 0.0652765 0.0491678 0.074506 0.0619502
97 3 O 1.04189 89.0129 3.23115 -1.2 1 0.013551 0.00740424 0.0266117 0.0153906 0.0137995 0.0181116 0.0434333 0.0389256 0.0326018 0.044865 0.05295 0.0404371 0.0544277 0.0608229 0.0835468 0.0690288 0.0730887 0.0605196 0.0689688 0.0687889
98 3 O 1.03945 88.9973 5.8199 -1.2 1 0.00779495 0.0114782 0.0283428 0.0200017 0.0211409 0.0219272 0.0422623 0.0390022 0.0383882 0.0494774 0.0523949 0.0361308 0.0517102 0.0589784 0.0806054 0.0724744 0.0696232 0.0603761 0.0620818 0.074079
99 1 Mg 0.103813 85.5691 2.99391 1.2 1 0.0114167 0.019803 0.00574345 0.0353103 0.00528293 0.0346369 0.00854594 0.0590634 0.00866027 0.0823307 0.0090628 0.052128 0.0102386 0.0700492 0.0124585 0.106941 0.0152951 0.114678 0.0192914 0.0955261
100 1 Mg 0.0786624 82.6758 4.43174 1.2 1 0.0139542 0.0175673 0.0181981 0.0265478 0.0113199 0.0207926 0.0214471 0.0318243 0.0423714 0.0612207 0.0503774 0.0573446 0.0610305 0.0639964 0.0583878 0.0717319 0.0722221 0.106222 0.0690798 0.0847297
101 2 Si 2.12603 84.5113 4.46928 2.4 1 0.0255831 0.0166392 0.0150912 0.0284978 0.0272047 0.0293967 0.0439949 0.0403804 0.045962 0.056774 0.0556512 0.0652569 0.0702899 0.0549986 0.0794018 0.0712019 0.0568691 0.0925503 0.0557561 0.0570383
102 3 O -1.09499 84.585 4.44899 -1.2 1 0.010875 0.0130959 0.0133064 0.027913 0.0248123 0.0223676 0.0222543 0.064613 0.0388442 0.0530456 0.044184 0.0682529 0.0496827 0.0623556 0.0645259 0.0648396 0.0511012 0.0726135 0.0619633 0.0752698
103 3 O 1.05095 80.8528 4.53536 -1.2 1 0.0132245 0.0215439 0.0262443 0.0122271 0.016853 0.0346148 0.0310556 0.0470604 0.0566838 0.0418553 0.0420697 0.0460097 0.0497332 0.0662189 0.105231 0.0722456 0.066494 0.048008 0.0739243 0.0664718
104 3 O 1.41459 83.8539 3.19829 -1.2 1 0.00344894 0.0122758 0.0298045 0.0194979 0.0177277 0.0234028 0.0421208 0.0378685 0.0341959 0.044373 0.0568011 0.0363266 0.0503976 0.0552496 0.079714 0.067562 0.0747463 0.0594576 0.0627955 0.073632
105 1 Mg 0.00463879 85.4645 0.00778429 1.2 1 0.00648805 0.0172221 0.011553 0.0319024 0.00938595 0.0336114 0.00738158 0.0565933 0.00815057 0.082953 0.0105185 0.0502962 0.010452 0.0703646 0.0157824 0.102418 0.0169308 0.115917 0.0201033 0.0996528
106 3 O 1.45128 83.8554 5.76451 -1.2 1 0.00669734 0.0165576 0.024026 0.0177738 0.0186998 0.0176699 0.0421004 0.0376638 0.0343006 0.0461844 0.0534157 0.0377897 0.0514654 0.0588675 0.0851048 0.0666234 0.0740965 0.0634633 0.0691904 0.0676056
107 1 Mg 0.0762864 88.3896 1.51142 1.2 1 0.0150604 0.0131978 0.0200407 0.0270396 0.0156737 0.018782 0.0203757 0.0286165 0.0402865 0.0618659 0.0506271 0.0578867 0.057621 0.0635034 0.0578208 0.0726209 0.0727052 0.104281 0.0710953 0.0853612
108 2 Si -1.97657 86.5216 1.50606 2.4 1 0.0259653 0.0114507 0.0154948 0.029006 0.0270011 0.0311391 0.0425433 0.0413254 0.0483631 0.0522479 0.0524501 0.0648859 0.071606 0.0577483 0.075813 0.0703195 0.0565638 0.0950219 0.0577306 0.054178
109 3 O 1.22488 86.495 1.54689 -1.2 1 0.0106481 0.0113712 0.0138301 0.0264463 0.0268828 0.0213708 0.0234263 0.071501 0.0389753 0.0513563 0.0437997 0.0681242 0.0545184 0.062956 0.0683175 0.0669505 0.0529727 0.0675117 0.0648442 0.0686093
110 3 O -0.927444 90.2013 1.55561 -1.2 1 0.0131288 0.0228687 0.026 0.0145198 0.0170776 0.0361664 0.0313394 0.045809 0.0532097 0.0454468 0.0425211 0.0438763 0.0510268 0.06888 0.10592 0.0706099 0.0670856 0.0489991 0.0767256 0.0664298
111 3 O -1.29024 87.2229 0.269792 -1.2 1 0.0188179 0.00759824 0.0209576 0.020467 0.0205497 0.0211792 0.0456346 0.0423604 0.0314295 0.0489633 0.0531795 0.0398162 0.0556813 0.0544226 0.0859567 0.0716766 0.0716584 0.0617565 0.0631734 0.0709179
112 3 O -1.27224 87.184 2.76256 -1.2 1 0.00170779 0.0152304 0.0274497 0.0235246 0.0194981 0.0177824 0.0474504 0.0367106 0.0350488 0.0418705 0.0519921 0.036586 0.0526095 0.0554614 0.0837166 0.0653615 0.0742969 0.0616504 0.0644602 0.0687933
113 1 Mg -2.31158 90.6296 0.0916125 1.2 1 0.0142741 0.0140584 0.00923656 0.0305606 0.00815405 0.0340828 0.0117741 0.0568093 0.0157585 0.0844874 0.0138803 0.0512155 0.0167324 0.0714543 0.0170049 0.104197 0.0204264 0.114044 0.0280611 0.0964781
114 1 Mg 2.37663 93.5539 1.51048 1.2 1 0.0214692 0.0114926 0.0173995 0.0263737 0.0129467 0.018795 0.0226476 0.030597 0.0413112 0.0558534 0.0570242 0.0590322 0.056897 0.061019 0.0603891 0.0730776 0.07236 0.105538 0.0701201 0.0829508
115 2 Si -0.277429 91.7062 1.5252 2.4 1 0.0212948 0.00962848 0.0165091 0.0298746 0.0296145 0.0302268 0.0430233 0.0399095 0.0471693 0.0536122 0.0526954 0.0638331 0.0709855 0.0573833 0.0758289 0.0732582 0.0565453 0.0923518 0.0567008 0.0544982
116 3 O 1.2496 91.5933 1.52388 -1.2 1 0.0166647 0.00925538 0.0137659 0.0291373 0.0245473 0.0205116 0.0268901 0.071315 0.0405028 0.0506273 0.0459526 0.0686146 0.0539384 0.0638309 0.0706318 0.0670555 0.0545998 0.0753388 0.0604532 0.0775456
117 3 O -1.3186 95.3683 1.4872 -1.2 1 0.00652517 0.0191397 0.0235102 0.0122767 0.0163607 0.0326916 0.0321511 0.0467881 0.0556529 0.0435656 0.039967 0.044471 0.0479725 0.0655074 0.105474 0.0707885 0.0711125 0.045939 0.0719562 0.0649297
118 3 O -0.976867 92.406 0.291752 -1.2 1 0.0169378 0.00699512 0.0263741 0.0184713 0.0203844 0.0210985 0.0450329 0.0413187 0.0337074 0.050539 0.0517666 0.0412754 0.0551483 0.0590755 0.0840806 0.0758193 0.0704525 0.0609872 0.0666178 0.0656801
119 1 Mg -2.38355 100.987 2.94645 1.2 1 0.00185513 0.0213376 0.00192457 0.035216 0.00211957 0.035404 0.00246026 0.0566669 0.00441848 0.0817504 0.00385602 0.0518001 0.00518277 0.0728279 0.00742202 0.106733 0.00738914 0.116086 0.00896468 0.102107
120 3 O -1.00041 92.3711 2.78864 -1.2 1 0.0127436 0.00883897 0.0271775 0.018884 0.020339 0.019415 0.0436494 0.0437853 0.0335832 0.0469725 0.0557166 0.0398722 0.0511672 0.0561802 0.0847301 0.0702376 0.071837 0.0589417 0.0613319 0.0754672
121 1 Mg -2.35798 98.1331 4.44542 1.2 1 0.0112353 0.01582 0.0171423 0.0272408 0.0133739 0.0234932 0.0197567 0.0289255 0.0384867 0.063591 0.051392 0.0589325 0.0603909 0.0646657 0.0607174 0.0732919 0.0759965 0.104562 0.0655021 0.0867438
122 2 Si 0.349429 100.011 4.44091 2.4 1 0.0240222 0.0119051 0.0162124 0.0266294 0.028845 0.0317376 0.0425718 0.0407194 0.0470878 0.0515927 0.0494598 0.0646214 0.0695796 0.0589094 0.0785078 0.0711238 0.0568017 0.0961114 0.0551517 0.055395
123 3 O -1.20697 100.05 4.43674 -1.2 1 0.013896 0.00792425 0.0166078 0.0282273 0.0249403 0.021472 0.026457 0.0709678 0.0369332 0.0500272 0.0451985 0.0698211 0.055258 0.0622474 0.0704369 0.0713037 0.05315 0.0736593 0.0624051 0.073881
124 3 O 1.42434 96.3278 4.44783 -1.2 1 0.011917 0.0196126 0.0264897 0.0135839 0.0162204 0.0352983 0.0316419 0.045651 0.0573189 0.0424292 0.0424848 0.0426829 0.0491127 0.0685203 0.107852 0.0706528 0.0667442 0.0474971 0.0742878 0.0668305
125 3 O 1.05983 99.3593 3.16891 -1.2 1 0.0116928 0.0115162 0.0298061 0.0188415 0.0183151 0.0193295 0.043075 0.0388543 0.0359055 0.0442075 0.0542488 0.0417318 0.0480776 0.0572945 0.0827267 0.0665436 0.0743802 0.058496 0.0648794 0.0743337