ITEM: TIMESTEP
76100
ITEM: NUMBER OF ATOMS
5600
ITEM: BOX BOUNDS xy xz yz pp pp pp
0	7.1235	0
0	201.985	2.3745
0	119.584	0
ITEM: ATOMS id type element xu yu zu q Q_1 Q_2 Q_3 Q_4 Q_5 Q_6 Q_7 Q_8 Q_9 Q_10 Q_11 Q_12 Q_13 Q_14 Q_15 Q_16 Q_17 Q_18 Q_19 Q_20 Q_21
1 1 Mg -1.88277 47.7137 -0.904977 1.2 1 0.488808 0.0305033 0.139308 0.0565479 0.0995276 0.0403136 0.0529559 0.0537642 0.0667212 0.0657011 0.0853774 0.0847905 0.100769 0.0920697 0.0834308 0.111353 0.107879 0.0966921 0.0968571 0.104125
2 1 Mg 3.04924 50.1624 2.31312 1.2 1 0.250981 0.118337 0.0330842 0.0430245 0.0508609 0.0390161 0.0611236 0.0502173 0.0623848 0.0750624 0.061343 0.0752413 0.0776562 0.0699002 0.0813978 0.0718824 0.0741252 0.0878597 0.0940161 0.0731603
3 2 Si 0.868112 49.396 0.319766 2.4 1 0.313815 0.0989596 0.0280122 0.0726767 0.0453103 0.0609195 0.0654874 0.0648911 0.0762596 0.0878046 0.0609015 0.0709945 0.0655117 0.0740192 0.0942962 0.088239 0.0948534 0.0944522 0.0694772 0.0913404
4 3 O 1.8124 48.1671 0.71284 -1.2 1 0.448403 0.0512312 0.106322 0.0578179 0.0715457 0.0635316 0.0865683 0.0542261 0.0913457 0.0760022 0.0898975 0.0833352 0.076209 0.0779658 0.0809183 0.110508 0.100794 0.0816554 0.0903817 0.0869785
5 3 O -1.24501 52.7432 1.58133 -1.2 1 0.0883257 0.0430377 0.0478277 0.0269619 0.0387815 0.0295801 0.0496627 0.0528447 0.0704094 0.0583992 0.0621287 0.0551171 0.0711645 0.0720261 0.0880034 0.0787487 0.0825473 0.0483903 0.0569594 0.077579
6 3 O -0.107647 48.7937 -0.754986 -1.2 1 0.376419 0.0962822 0.0706595 0.0620417 0.0363904 0.071746 0.0470076 0.0619685 0.0684935 0.0783308 0.0713294 0.0822096 0.0951623 0.0902403 0.0756914 0.0727344 0.0933803 0.0756729 0.0650483 0.0759974
7 1 Mg -2.16781 58.5479 2.93593 1.2 1 0.0215728 0.0189226 0.012355 0.0313953 0.0157412 0.0371487 0.0187199 0.0670275 0.0211643 0.0711663 0.0290925 0.0576345 0.0291203 0.0746991 0.0296335 0.105816 0.0431719 0.104058 0.0428022 0.0788746
8 3 O 0.0832204 49.9002 1.60106 -1.2 1 0.276174 0.132355 0.0377441 0.0429119 0.0379811 0.0392127 0.0593125 0.056916 0.0779579 0.0880521 0.0729409 0.0586795 0.05527 0.0831142 0.100475 0.094174 0.0716259 0.0943247 0.0769433 0.0963379
9 1 Mg -2.19367 55.5366 4.62655 1.2 1 0.0156836 0.0221724 0.0169583 0.0251481 0.0240854 0.0368921 0.0310462 0.0332175 0.0555235 0.0556755 0.0619454 0.0602923 0.0515812 0.0636916 0.0706796 0.078477 0.0729327 0.0836604 0.0677556 0.0802549
10 2 Si 0.392288 57.4234 4.38982 2.4 1 0.0239836 0.0209059 0.0141715 0.0322199 0.0350969 0.0337101 0.0457537 0.0515811 0.053611 0.0615165 0.0616237 0.0703909 0.0733493 0.0530927 0.0844508 0.0618468 0.0632223 0.0919842 0.070194 0.0698244
11 3 O -1.13856 57.5257 4.38622 -1.2 1 0.0289477 0.0343165 0.0170626 0.0240278 0.0315665 0.0249322 0.0277492 0.0778018 0.0395554 0.0634099 0.0372734 0.071245 0.0614361 0.0732827 0.073024 0.06502 0.0651991 0.0731231 0.0586812 0.0727342
12 3 O 1.61709 53.6443 4.44993 -1.2 1 0.0527034 0.0361803 0.0334297 0.0260826 0.027364 0.0337834 0.0481536 0.0391579 0.064441 0.050297 0.0607868 0.0572266 0.0716301 0.0824145 0.0664517 0.0921702 0.0663215 0.067141 0.0605508 0.0516186
13 3 O 1.16156 56.7631 3.1138 -1.2 1 0.0228396 0.0214548 0.032178 0.0178749 0.0259157 0.030573 0.0387565 0.0576888 0.0425931 0.0474565 0.0616067 0.0329947 0.066148 0.0638769 0.090398 0.0770771 0.0764058 0.0595085 0.057305 0.0758576
14 3 O 0.91895 56.7772 5.80386 -1.2 1 0.0288107 0.0196699 0.0207779 0.017011 0.0221761 0.0378003 0.057966 0.0496819 0.0485559 0.0571618 0.0545113 0.0526664 0.0558412 0.075723 0.0717615 0.075958 0.0833789 0.0693122 0.0660265 0.0626722
15 1 Mg 0.16763 52.6194 2.80061 1.2 1 0.0941981 0.0658187 0.0489859 0.0278718 0.026505 0.0297569 0.0463476 0.051464 0.0538996 0.0552558 0.05493 0.0521401 0.0415782 0.071946 0.0696728 0.0705919 0.0764209 0.0786804 0.0875636 0.0803283
16 1 Mg 0.823105 48.6196 3.07302 1.2 1 0.405595 0.0772153 0.0842708 0.0581588 0.0291082 0.0747627 0.0563183 0.0685543 0.0683461 0.093483 0.0944951 0.068283 0.0547315 0.0794935 0.101112 0.0959267 0.0884152 0.0707465 0.089365 0.0877968
17 2 Si 2.197 52.1965 4.71865 2.4 1 0.0962333 0.0798294 0.0541497 0.0316269 0.0266048 0.0307632 0.0421452 0.0582602 0.0600617 0.0750848 0.0693644 0.0822304 0.0775483 0.0783752 0.064069 0.0692553 0.0778412 0.0865868 0.0737466 0.0754237
18 3 O -0.958856 52.3167 4.75611 -1.2 1 0.0920908 0.0973461 0.0356211 0.0229435 0.0298422 0.0270051 0.0514667 0.0622087 0.0511351 0.0877934 0.053667 0.0880014 0.0558458 0.084454 0.0751778 0.0795017 0.0775486 0.0843028 0.0681763 0.0757625
19 3 O 2.92568 48.6533 3.43322 -1.2 1 0.386226 0.0953327 0.0832273 0.0682057 0.0420119 0.0678728 0.0640065 0.0717472 0.0707945 0.0891827 0.0653476 0.0914989 0.0941592 0.0761502 0.0890975 0.104295 0.0850857 0.0855485 0.0763798 0.0924401
20 3 O 1.82866 51.415 3.39023 -1.2 1 0.173897 0.0936897 0.0290629 0.021268 0.0279508 0.0526938 0.0486557 0.067722 0.0645023 0.0640014 0.0816874 0.0532468 0.092449 0.0632662 0.0807456 0.0597113 0.0751739 0.0965629 0.077414 0.0736674
21 1 Mg 0.0877334 53.2024 0.10837 1.2 1 0.065011 0.0383892 0.0393025 0.033467 0.0298312 0.0244122 0.03459 0.0644043 0.0513871 0.0703466 0.0457297 0.05569 0.0498777 0.0732533 0.0621643 0.0811298 0.0696024 0.0767381 0.0639017 0.0705882
22 3 O 1.45771 51.4622 5.86602 -1.2 1 0.154832 0.0865517 0.0449694 0.0214996 0.0191604 0.0267489 0.05102 0.0688898 0.0553118 0.0607429 0.070275 0.0497586 0.0747326 0.0828946 0.0962883 0.0596406 0.0830085 0.0688743 0.0718668 0.0766671
23 1 Mg 0.0505769 56.1741 1.50537 1.2 1 0.00824715 0.0139155 0.0271857 0.0218137 0.0194444 0.0310444 0.0404866 0.0405263 0.0424884 0.0606562 0.0672406 0.0660265 0.0667306 0.0644216 0.0684979 0.0696694 0.0751058 0.0838321 0.0741323 0.073962
24 2 Si -1.98382 54.1773 1.48311 2.4 1 0.0218371 0.0141983 0.0318645 0.0298384 0.0281923 0.0404265 0.0561798 0.059092 0.0526609 0.0637998 0.0657426 0.0604716 0.0864776 0.0519817 0.0642102 0.0634139 0.0733881 0.0644469 0.0718335 0.0596507
25 3 O 1.23451 53.9659 1.45611 -1.2 1 0.0246862 0.0391032 0.0286583 0.0241216 0.0209836 0.0345129 0.0259344 0.0590273 0.0483163 0.0566089 0.0614833 0.0555144 0.0560682 0.0789665 0.0766177 0.0660494 0.0699593 0.078286 0.0491349 0.0675147
26 3 O -0.800731 58.0782 1.21501 -1.2 1 0.0167346 0.0194454 0.0207383 0.0240065 0.0195359 0.0360395 0.0363335 0.0479017 0.0655855 0.0416322 0.0500435 0.0302962 0.0665851 0.0724933 0.0861526 0.0757521 0.0677347 0.0681579 0.0658255 0.0606149
27 3 O -1.43234 54.7059 0.168349 -1.2 1 0.0172274 0.0233652 0.0239657 0.0309742 0.0289837 0.0369911 0.0599309 0.0477992 0.0400488 0.0525635 0.0680104 0.041093 0.0531914 0.0589794 0.0818655 0.0604731 0.0823014 0.060625 0.0762289 0.0617897
28 3 O -1.22204 55.045 2.57249 -1.2 1 0.0124009 0.0136972 0.0233748 0.0318154 0.022742 0.0226459 0.0502859 0.0480916 0.0391347 0.0440156 0.0705745 0.042575 0.0682077 0.076001 0.0786918 0.0877975 0.0618856 0.0594789 0.0714266 0.0509684
29 1 Mg -2.4325 58.2797 -0.101964 1.2 1 0.00629492 0.0187775 0.0217487 0.0313809 0.0182018 0.0429555 0.0185722 0.0611803 0.0189646 0.0689003 0.0344414 0.0463645 0.02934 0.0718702 0.0394258 0.097649 0.0619033 0.101383 0.0620766 0.0781192
30 1 Mg 2.25123 61.4927 1.72404 1.2 1 0.014982 0.0162833 0.0171256 0.0279914 0.0138992 0.0280623 0.028086 0.0383829 0.043436 0.0571825 0.0662843 0.0486865 0.0585003 0.0670717 0.0740359 0.0784852 0.0717797 0.0849884 0.0716678 0.0665808
31 2 Si -0.24893 59.5545 1.28656 2.4 1 0.0270791 0.00692502 0.0199273 0.0297698 0.0346316 0.0306342 0.0374524 0.0472781 0.0425471 0.0563875 0.0610532 0.0590687 0.0698927 0.0602026 0.0743413 0.0718066 0.0746226 0.0745433 0.0724907 0.0567591
32 3 O 1.24941 59.5099 1.37284 -1.2 1 0.00834965 0.0279207 0.0178968 0.0153826 0.0309331 0.0307381 0.0294424 0.0769508 0.0423782 0.060366 0.0341846 0.0689031 0.0597689 0.0738167 0.0706061 0.0610054 0.0601616 0.0723999 0.0703147 0.067315
33 3 O -1.39362 63.3602 1.50889 -1.2 1 0.0211875 0.0076146 0.0268529 0.0300068 0.0199571 0.0332917 0.0396935 0.047914 0.0603596 0.0358465 0.0450536 0.0441826 0.0567466 0.0759596 0.106485 0.0684457 0.0791927 0.0543851 0.0649402 0.0509172
34 3 O -1.12459 60.2174 0.0513911 -1.2 1 0.00983051 0.0150602 0.0238318 0.020646 0.0338841 0.0239457 0.0499831 0.0491159 0.0464067 0.0424221 0.0606414 0.0430725 0.0680173 0.0494107 0.087755 0.0681655 0.077273 0.0722981 0.062249 0.0713996
35 1 Mg -2.66702 69.2704 3.11911 1.2 1 0.0123774 0.0194898 0.0131269 0.0295163 0.0206289 0.0359812 0.0210373 0.0584339 0.0267045 0.0721573 0.0211629 0.0587889 0.0321962 0.0578386 0.0387577 0.0947402 0.0424277 0.102078 0.0464188 0.071522
36 3 O -1.04183 60.0637 2.68994 -1.2 1 0.0143475 0.0250903 0.0350709 0.025252 0.0325006 0.0244642 0.0497329 0.0439199 0.0425848 0.0404734 0.0573339 0.0438529 0.0531611 0.0623184 0.0932433 0.0675715 0.0831002 0.0585744 0.0742166 0.0623084
37 1 Mg -2.4209 66.1607 4.63657 1.2 1 0.0174986 0.0191254 0.0167849 0.0257353 0.0207002 0.0349419 0.0272716 0.0357212 0.0528651 0.0514523 0.0636567 0.0538629 0.0654678 0.0728419 0.0653165 0.0678812 0.0794789 0.0936785 0.0620175 0.0808226
38 2 Si 0.129804 68.1 4.55506 2.4 1 0.0287724 0.0108802 0.015525 0.0232485 0.0240863 0.0328172 0.0359699 0.0432697 0.05201 0.0618824 0.0588253 0.066117 0.0643377 0.0527544 0.0724231 0.077072 0.0694583 0.0856056 0.0566907 0.0629684
39 3 O -1.38936 68.0143 4.57527 -1.2 1 0.0230162 0.0174257 0.0151991 0.0195064 0.0317938 0.0343487 0.0238822 0.0739321 0.0396857 0.059309 0.0338393 0.066046 0.0637561 0.0776667 0.0632257 0.0669395 0.0601426 0.061568 0.0666873 0.0703033
40 3 O 1.42232 64.4645 4.31367 -1.2 1 0.00309035 0.0101844 0.0164467 0.028914 0.0268367 0.0333736 0.0349412 0.0452956 0.0536276 0.0480353 0.0468385 0.0501726 0.0510188 0.0737433 0.0903328 0.0745157 0.0686111 0.0653463 0.0604339 0.0462779
41 3 O 0.754023 67.6426 3.2088 -1.2 1 0.02679 0.00976514 0.0263355 0.0169423 0.0340443 0.0281997 0.0504142 0.0489271 0.038439 0.0464959 0.0529691 0.0479537 0.046025 0.0803418 0.0731665 0.0837901 0.0733839 0.0684362 0.063287 0.078067
42 3 O 1.06228 67.3905 5.75957 -1.2 1 0.0105023 0.0177121 0.0308853 0.0213359 0.0214395 0.0240271 0.0508625 0.0455191 0.0372349 0.0441653 0.053869 0.0413257 0.0659986 0.0673374 0.0828825 0.0729658 0.0857312 0.0617469 0.0641694 0.062851
43 1 Mg -0.0655373 64.028 3.08275 1.2 1 0.0168581 0.0232465 0.0116377 0.0309165 0.0228563 0.0298928 0.0196488 0.0542816 0.0267487 0.0840255 0.0308728 0.0457126 0.0284345 0.0752077 0.0348895 0.101365 0.0413115 0.104793 0.0558992 0.0852626
44 1 Mg 0.100112 60.7482 4.44864 1.2 1 0.0079227 0.0108756 0.0270471 0.0218013 0.0116548 0.0258713 0.0297441 0.0373801 0.0384864 0.0613242 0.0618814 0.069644 0.0638085 0.0592385 0.0802047 0.0611418 0.075247 0.0825176 0.0719892 0.0805067
45 2 Si 2.14579 62.9822 4.52685 2.4 1 0.0174568 0.0228872 0.0273301 0.0315795 0.0296096 0.0304755 0.0422724 0.0389387 0.0536221 0.0642799 0.0463489 0.0654108 0.077154 0.0617216 0.0878939 0.0546282 0.0746621 0.0919223 0.0558977 0.0665648
46 3 O -1.09814 63.0946 4.59258 -1.2 1 0.0316901 0.0240883 0.016361 0.0217407 0.0234413 0.0321119 0.0312273 0.064655 0.0419397 0.0492366 0.0467603 0.0712299 0.0464276 0.0741615 0.0798837 0.06835 0.0581692 0.0769706 0.0545323 0.0818678
47 3 O 1.08336 58.9426 4.54355 -1.2 1 0.0115035 0.0205584 0.0173807 0.0261266 0.0192965 0.0311409 0.0466576 0.044297 0.0617997 0.0338767 0.0499906 0.0446257 0.0598825 0.0708188 0.0946465 0.079136 0.0627671 0.0567053 0.0663824 0.0520369
48 3 O 1.46045 62.0746 3.41056 -1.2 1 0.0145721 0.0282057 0.0319416 0.0218042 0.0288336 0.0227351 0.0499432 0.0448502 0.0386548 0.0476942 0.0617921 0.0465654 0.0640898 0.068678 0.0905144 0.0775796 0.0766444 0.0714639 0.0651941 0.0675084
49 1 Mg -0.0231888 63.4478 0.229111 1.2 1 0.00994304 0.0187482 0.0198104 0.0277555 0.0251206 0.0269121 0.0314353 0.0495768 0.0483061 0.0686298 0.0415161 0.0401531 0.0352683 0.0719372 0.0520863 0.0786778 0.0839832 0.090934 0.0769907 0.0647561
50 3 O 1.58158 62.4823 5.8996 -1.2 1 0.0203067 0.00880949 0.0254306 0.0195494 0.040319 0.0236034 0.0445529 0.0454925 0.0449463 0.0409106 0.0584827 0.0552813 0.0590821 0.0708628 0.0800363 0.071562 0.0787862 0.0683095 0.0634401 0.0666892
51 1 Mg -0.28675 66.9098 1.55387 1.2 1 0.0246777 0.00894356 0.0166268 0.0246187 0.0217147 0.0296325 0.0298698 0.0317146 0.0460925 0.0513702 0.0537152 0.0636467 0.067939 0.0589512 0.0761583 0.0650008 0.0661954 0.104642 0.0653209 0.0780679
52 2 Si -2.12 64.8151 1.7466 2.4 1 0.0293928 0.0173482 0.0246908 0.0280482 0.0328545 0.0246371 0.0405053 0.0354443 0.0529809 0.0600732 0.0508006 0.0649389 0.0745433 0.0541508 0.0800729 0.0716097 0.0674106 0.0795825 0.0559473 0.0571285
53 3 O 1.17297 64.6156 1.65939 -1.2 1 0.0233884 0.00727114 0.00867402 0.0195431 0.0289651 0.0306614 0.0309195 0.0614068 0.0526735 0.0415116 0.0515221 0.0707637 0.052215 0.0684524 0.0744672 0.0701221 0.0592312 0.0724217 0.0522526 0.0732879
54 3 O -1.34064 68.8172 1.60071 -1.2 1 0.0203322 0.0232044 0.0194251 0.0286662 0.017402 0.0337702 0.0479862 0.0412974 0.0403317 0.0437145 0.0478537 0.0515698 0.0559278 0.0667829 0.0993145 0.066766 0.0895203 0.0528936 0.0778825 0.0571238
55 3 O -1.46496 65.6726 0.506008 -1.2 1 0.019876 0.0104104 0.0279224 0.0302597 0.0278264 0.0305325 0.0391298 0.0455156 0.0316794 0.0356558 0.0606208 0.0434061 0.0574792 0.0579694 0.0962769 0.0739988 0.06842 0.0775262 0.0677269 0.0673096
56 3 O -1.52959 65.4418 2.97498 -1.2 1 0.00828453 0.020094 0.0221875 0.0174989 0.0376012 0.025319 0.0514034 0.0444177 0.0420749 0.0495177 0.0556859 0.0511344 0.0604426 0.0804958 0.0762616 0.086992 0.07334 0.0635363 0.0628869 0.0746531
57 1 Mg -2.73221 69.4143 0.208629 1.2 1 0.0106107 0.0249625 0.0238315 0.0221109 0.0202297 0.0343298 0.0227039 0.0640349 0.0349706 0.0665014 0.0349999 0.0421501 0.03699 0.0612759 0.0471215 0.0866893 0.0708996 0.0930763 0.0669029 0.0705984
58 1 Mg 1.9595 72.2734 1.61411 1.2 1 0.0120478 0.0134165 0.0185562 0.032288 0.0218922 0.0327087 0.0351267 0.0438799 0.0380925 0.0585558 0.0557401 0.0610622 0.0588568 0.0653024 0.0850111 0.0657957 0.0825182 0.059411 0.0935229 0.0651716
59 2 Si -0.69889 70.2727 1.62521 2.4 1 0.0149254 0.0209776 0.0224513 0.0342768 0.045507 0.0353603 0.0405428 0.0478967 0.0576014 0.0384251 0.043577 0.0728167 0.0714454 0.0516733 0.0762352 0.0709301 0.0696541 0.085012 0.0591526 0.0548554
60 3 O 0.80147 70.1495 1.54137 -1.2 1 0.027063 0.0221767 0.0284257 0.0228132 0.028942 0.0413029 0.034781 0.0641723 0.0417205 0.0570935 0.0484621 0.0753011 0.063181 0.0713593 0.0640081 0.0702105 0.0745698 0.0703559 0.0606605 0.0704971
61 3 O -1.70159 73.815 1.41347 -1.2 1 0.0111199 0.0195384 0.0235177 0.0236691 0.0219896 0.0356868 0.0385693 0.0559815 0.0538474 0.0506653 0.0382429 0.0557467 0.0548775 0.0786211 0.104714 0.07362 0.0692594 0.0607421 0.0627202 0.0641905
62 3 O -1.41609 70.9617 0.36973 -1.2 1 0.0234914 0.0248151 0.023987 0.0250976 0.0307956 0.0269786 0.0524536 0.0511274 0.0396737 0.0428756 0.0512508 0.0443887 0.0557594 0.0615467 0.0909259 0.0725302 0.0743843 0.0802839 0.0619775 0.0638139
63 1 Mg -2.31588 79.6444 3.06116 1.2 1 0.0125888 0.0182368 0.0203147 0.0327772 0.0154315 0.0401049 0.018838 0.0619388 0.0322297 0.0794035 0.0220949 0.0555428 0.0298099 0.0728334 0.0401606 0.106942 0.0305125 0.106572 0.0466072 0.0749988
64 3 O -1.34101 70.9028 2.9915 -1.2 1 0.0275406 0.0239107 0.0266483 0.0275212 0.0198198 0.0268427 0.0431898 0.0455235 0.0514398 0.0503936 0.0553644 0.0380677 0.0645817 0.0488085 0.0932729 0.0726323 0.0651889 0.068772 0.0542864 0.076622
65 1 Mg -2.091 76.7085 4.39795 1.2 1 0.0161103 0.0177221 0.0257911 0.0275355 0.0215443 0.0334655 0.0284844 0.043137 0.0385227 0.0569087 0.0640598 0.064656 0.0611669 0.0667284 0.0654 0.0673474 0.0776565 0.0684146 0.0849557 0.0608955
66 2 Si 0.222866 78.57 4.51033 2.4 1 0.0172182 0.0203592 0.0154512 0.0275874 0.0327746 0.0278425 0.0406939 0.0444517 0.0526782 0.0638628 0.0560704 0.0715274 0.0642802 0.0592037 0.072484 0.0727921 0.0679496 0.076624 0.0700917 0.0642973
67 3 O -1.21638 78.6903 4.45336 -1.2 1 0.0252587 0.0256138 0.0210889 0.0214045 0.0328548 0.0327913 0.0287474 0.0724586 0.0375725 0.0654238 0.0417799 0.0585918 0.0653514 0.0731406 0.0775236 0.0645692 0.0686758 0.0753049 0.0607653 0.062619
68 3 O 1.28628 74.9442 4.53754 -1.2 1 0.0116584 0.0141037 0.021668 0.0266264 0.0288975 0.0424605 0.043531 0.0401966 0.0468565 0.0444314 0.0510769 0.0411772 0.0526488 0.070146 0.105817 0.0648005 0.0735079 0.0556309 0.0774846 0.063669
69 3 O 0.882204 78.0681 3.32732 -1.2 1 0.0138495 0.0195533 0.0187447 0.025722 0.0456822 0.0263257 0.0534304 0.043506 0.0417077 0.0502201 0.0550589 0.0452478 0.0554134 0.072096 0.0832373 0.0838923 0.0694133 0.0538081 0.0667558 0.0770195
70 3 O 0.912025 77.8655 5.79748 -1.2 1 0.0241334 0.0118841 0.0279397 0.0184614 0.0242875 0.0264251 0.0431804 0.0482655 0.0359203 0.0517993 0.0584559 0.0436576 0.0512057 0.0779839 0.0735106 0.0823129 0.0643363 0.0611953 0.0652542 0.060171
71 1 Mg -0.156953 74.4767 2.9989 1.2 1 0.0294027 0.0202872 0.0146056 0.0404027 0.011563 0.0431517 0.017427 0.055623 0.0220933 0.0801018 0.0197042 0.0507684 0.0214897 0.080707 0.0231177 0.102044 0.0274722 0.107157 0.0335955 0.102238
72 1 Mg -0.09634 71.4173 4.64047 1.2 1 0.0347203 0.0107252 0.0185943 0.0331418 0.0164595 0.0311544 0.0252161 0.0359017 0.0433881 0.0516553 0.0551527 0.0569325 0.0631957 0.0610239 0.0680573 0.0659806 0.0743021 0.0904277 0.0722453 0.0753867
73 2 Si 1.88674 73.5378 4.63857 2.4 1 0.00872635 0.0177642 0.024647 0.0308953 0.033037 0.0328988 0.0401882 0.0461421 0.0539575 0.0511526 0.0510839 0.0636685 0.0666987 0.0713338 0.073475 0.0650677 0.0569453 0.0879498 0.051854 0.0701336
74 3 O -1.20898 73.6248 4.51362 -1.2 1 0.0163257 0.030675 0.0204965 0.0239536 0.0249749 0.0295106 0.0345271 0.0652214 0.0420062 0.0534053 0.0410877 0.0808084 0.0512041 0.0783843 0.0807502 0.0808799 0.0638334 0.0773348 0.0437369 0.0820234
75 3 O 0.852894 69.5997 4.56004 -1.2 1 0.0160766 0.015095 0.0214722 0.0148473 0.0192939 0.0341764 0.0334854 0.0393647 0.052906 0.0472995 0.0482502 0.0432434 0.0558834 0.0743532 0.105636 0.0682081 0.0715385 0.0488632 0.0694364 0.0621419
76 3 O 1.25968 72.8611 3.37187 -1.2 1 0.00765568 0.0158166 0.0301319 0.028551 0.0280772 0.0227252 0.0468061 0.0478619 0.0383122 0.045891 0.055119 0.0438945 0.0599084 0.0737787 0.0834231 0.0709736 0.0968645 0.0575404 0.0706798 0.0634659
77 1 Mg -0.231309 74.5845 -0.00965163 1.2 1 0.0148662 0.0133887 0.0153753 0.0348375 0.0122834 0.0431058 0.0168896 0.0646616 0.0168621 0.0778929 0.0207777 0.0526235 0.0239481 0.0734022 0.0434993 0.107523 0.0467792 0.10468 0.0359192 0.0842672
78 3 O 1.40258 72.7136 5.88699 -1.2 1 0.00828362 0.0204783 0.021402 0.0264626 0.0228977 0.0291171 0.0513371 0.0447095 0.0374284 0.0486279 0.0529924 0.0444297 0.0595658 0.0587101 0.0863765 0.0803953 0.0750306 0.0609589 0.0734547 0.0702607
79 1 Mg 0.0668277 77.5442 1.48767 1.2 1 0.0158382 0.0118697 0.0177473 0.0329126 0.0137788 0.0301827 0.029523 0.0397319 0.039244 0.059483 0.064643 0.0663878 0.0563983 0.070103 0.079972 0.0711002 0.0764422 0.0815763 0.0770532 0.0613138
80 2 Si -2.30864 75.4296 1.40126 2.4 1 0.00825305 0.0245803 0.0126679 0.031694 0.0414788 0.0359028 0.0472361 0.0448828 0.0586151 0.0648582 0.0540417 0.0696408 0.07074 0.0579656 0.0867904 0.0678781 0.0668183 0.0898363 0.0631982 0.0691254
81 3 O 0.894045 75.4395 1.42326 -1.2 1 0.0184252 0.0303575 0.0109748 0.0215437 0.0338365 0.0295858 0.0314061 0.0823297 0.0399882 0.0616603 0.0362652 0.0758475 0.0655944 0.0663978 0.0842434 0.0677736 0.0608019 0.0665758 0.0689819 0.0665664
82 3 O -1.21046 79.4639 1.419 -1.2 1 0.00904001 0.0167415 0.0271982 0.0343968 0.0143854 0.034727 0.0438481 0.042236 0.0522615 0.0397152 0.0524857 0.0460261 0.0598822 0.0724726 0.094115 0.0737176 0.0818317 0.0545183 0.0765391 0.0562565
83 3 O -1.59868 76.0528 0.0466583 -1.2 1 0.0285892 0.00888649 0.0306998 0.0157571 0.0341935 0.0227517 0.0634604 0.0484866 0.0529873 0.0451893 0.0562907 0.0396737 0.0584044 0.0650597 0.0804357 0.0771653 0.0724098 0.0550131 0.0626151 0.0774057
84 3 O -1.48805 76.2047 2.57706 -1.2 1 0.0180018 0.0154625 0.0225255 0.0217776 0.0351639 0.0332978 0.0485159 0.0477876 0.039756 0.0389246 0.0575048 0.0406874 0.0609351 0.077707 0.0814992 0.0679277 0.0859366 0.0640511 0.0626593 0.0679604
85 1 Mg -2.67115 79.8756 0.0832352 1.2 1 0.0164068 0.018831 0.0104795 0.0342772 0.0125329 0.0399732 0.0174589 0.0563466 0.0188841 0.0764648 0.0227435 0.0484783 0.0262478 0.0702599 0.0334489 0.09786 0.038424 0.111838 0.0462892 0.0865171
86 1 Mg 2.50146 83.0596 1.62376 1.2 1 0.0159212 0.00918402 0.0173921 0.0262961 0.0238398 0.0270499 0.0313878 0.0379211 0.0452866 0.0478552 0.0509761 0.0735538 0.0570049 0.073062 0.0787109 0.0608311 0.085908 0.0978349 0.0612696 0.0790424
87 2 Si -0.311853 81.0303 1.62602 2.4 1 0.0173372 0.0157716 0.0240458 0.0276507 0.033493 0.0277828 0.0397789 0.0494613 0.0466136 0.0501456 0.0576967 0.0697275 0.0610895 0.0645638 0.0724043 0.0782607 0.0682161 0.0791492 0.0650203 0.0582741
88 3 O 1.06315 80.7985 1.70401 -1.2 1 0.00803257 0.0205621 0.0228045 0.0177126 0.0309156 0.0311501 0.0316072 0.0718935 0.0436092 0.0661748 0.045881 0.0714271 0.0580176 0.0692706 0.0775578 0.0662899 0.0614664 0.0654632 0.0613703 0.0666532
89 3 O -1.32311 84.8275 1.59948 -1.2 1 0.0110569 0.0112381 0.0201859 0.0315481 0.0206608 0.0378198 0.0404448 0.042249 0.0552975 0.0303188 0.0494604 0.0444671 0.0577368 0.0750504 0.10082 0.0705133 0.0801812 0.0464395 0.0826615 0.0572281
90 3 O -1.11092 81.794 0.476714 -1.2 1 0.018342 0.0136762 0.0315931 0.0188381 0.021243 0.031663 0.0378729 0.0524863 0.0284312 0.047061 0.0574284 0.0340588 0.0512874 0.0761274 0.0899248 0.0742032 0.0645911 0.0787145 0.0613392 0.0662764
91 1 Mg -2.36252 90.5273 2.91776 1.2 1 0.0168298 0.0108083 0.012053 0.0329616 0.0076193 0.0349297 0.0135251 0.0626066 0.0136085 0.0782441 0.0219827 0.047366 0.0266694 0.0715978 0.0332718 0.10356 0.0375333 0.114268 0.043307 0.0895052
92 3 O -0.998073 81.7048 3.0187 -1.2 1 0.0118084 0.0158166 0.0234365 0.0262829 0.0293265 0.0244829 0.0477342 0.0479101 0.0321141 0.0519632 0.0538427 0.0472079 0.051253 0.0649851 0.0861426 0.0835101 0.0753543 0.0612486 0.0547117 0.0747065
93 1 Mg -2.21254 87.8373 4.74514 1.2 1 0.00466488 0.0304331 0.0142762 0.0307798 0.0181582 0.0326544 0.0346921 0.0351165 0.0526322 0.0624769 0.0634936 0.0539453 0.0590809 0.0625832 0.0673802 0.0909519 0.0550111 0.0920365 0.0719994 0.0782326
94 2 Si 0.34 89.618 4.42592 2.4 1 0.00965041 0.0238835 0.024983 0.0397751 0.0311133 0.0277917 0.0472356 0.0444713 0.0567355 0.0575805 0.0525839 0.0777831 0.0703786 0.0695903 0.075425 0.0607373 0.0695485 0.0880527 0.0612476 0.0664559
95 3 O -1.28414 89.5581 4.53744 -1.2 1 0.0205775 0.0311217 0.0208905 0.0270455 0.0290568 0.029001 0.0241043 0.0829675 0.0333065 0.0648259 0.0423913 0.0726396 0.0514353 0.0681478 0.0820089 0.0646261 0.0568104 0.0766608 0.0513038 0.0719437
96 3 O 1.52097 85.808 4.60063 -1.2 1 0.0134922 0.0222971 0.023521 0.0232725 0.025596 0.0362994 0.0382617 0.0519185 0.0595893 0.0481708 0.0461585 0.0483932 0.0510405 0.0743868 0.103072 0.070138 0.0636038 0.0519035 0.0598928 0.0624045
97 3 O 1.00752 88.9781 3.21367 -1.2 1 0.00659795 0.00779088 0.0368858 0.0228485 0.0274354 0.0193324 0.0497871 0.0445984 0.0477916 0.0412938 0.0477673 0.0475058 0.0595406 0.072559 0.0819503 0.0728848 0.0838093 0.0635845 0.0710207 0.0765753
98 3 O 0.881497 88.8224 5.74189 -1.2 1 0.0183199 0.0143383 0.0248497 0.018321 0.0350634 0.0195925 0.047998 0.0454938 0.0405633 0.0521253 0.0586687 0.0362688 0.0554832 0.0789601 0.0698304 0.0710231 0.0816361 0.0551996 0.0633746 0.0757898
99 1 Mg -0.0539831 85.7866 3.34493 1.2 1 0.0135445 0.0158641 0.024017 0.0228166 0.0377841 0.0323572 0.0340854 0.0441144 0.0624669 0.0530342 0.0474227 0.0484412 0.044679 0.0523353 0.0654499 0.0798632 0.0984695 0.0639246 0.0713017 0.0658624
100 1 Mg 0.0483718 82.3836 4.75189 1.2 1 0.0172972 0.0122531 0.0133773 0.0323769 0.0191548 0.0390007 0.0298503 0.0304157 0.055022 0.0576227 0.0678205 0.058759 0.0595093 0.05759 0.0642859 0.0869002 0.0690506 0.0917381 0.0619827 0.0829115
101 2 Si 2.11279 84.3004 4.52103 2.4 1 0.00437115 0.0165932 0.0234389 0.0308294 0.0304489 0.0387642 0.0380102 0.0471756 0.0561416 0.0522047 0.0524158 0.0679392 0.0704408 0.0581391 0.0702265 0.0492174 0.0798811 0.0904484 0.0624064 0.0665399
102 3 O -0.931818 84.2945 4.73172 -1.2 1 0.0246345 0.0129755 0.0258687 0.0185502 0.0195295 0.0295311 0.0276845 0.0686326 0.037543 0.0606699 0.041057 0.0581007 0.0521983 0.0744345 0.0725997 0.061437 0.0684918 0.0686095 0.0618554 0.0781189
103 3 O 0.922252 80.055 4.6243 -1.2 1 0.0174279 0.0216531 0.0145432 0.0315646 0.0230288 0.0308632 0.0358194 0.0460639 0.0624286 0.0443447 0.0603297 0.0450208 0.0638538 0.0756829 0.0993171 0.0669827 0.0665322 0.0694253 0.0765503 0.0538676
104 3 O 1.42767 83.6424 3.33282 -1.2 1 0.020546 0.0134836 0.0204092 0.0193371 0.0236614 0.0236417 0.0557376 0.051724 0.03659 0.0381678 0.0563646 0.0446784 0.043263 0.0733371 0.0844156 0.0717238 0.0780753 0.0574719 0.0728539 0.0612326
105 1 Mg -0.0316003 85.0236 0.227826 1.2 1 0.011058 0.0209689 0.0121539 0.0347845 0.0116869 0.0341661 0.0242172 0.0557989 0.0361477 0.077434 0.0334542 0.0496786 0.0318896 0.0634416 0.0448616 0.102337 0.0527287 0.0949262 0.0542343 0.0753791
106 3 O 1.50282 83.6405 5.82557 -1.2 1 0.0202245 0.0122156 0.0194366 0.0323011 0.0325674 0.0291308 0.0486586 0.0466122 0.0470999 0.0479346 0.048179 0.052329 0.0580395 0.0712963 0.0778478 0.0706966 0.0812187 0.0566763 0.0769539 0.0725739
107 1 Mg 0.140086 88.2409 1.52047 1.2 1 0.0313484 0.0155584 0.0133575 0.0277993 0.0149234 0.0278582 0.0318685 0.0406893 0.0412483 0.0605417 0.055069 0.0633265 0.0621049 0.0688917 0.0765004 0.0634026 0.076352 0.0842674 0.0846522 0.0571576
108 2 Si -2.07984 86.4169 1.59723 2.4 1 0.0202014 0.0192335 0.022449 0.0274612 0.0409332 0.0374264 0.0383881 0.0446547 0.055746 0.0457118 0.055065 0.071958 0.0633513 0.0617632 0.0657489 0.0769172 0.0661624 0.0911088 0.0608586 0.0651695
109 3 O 1.131 86.0519 1.65964 -1.2 1 0.0248074 0.0256326 0.0230825 0.0122624 0.025744 0.0293159 0.038667 0.0728835 0.043433 0.0546129 0.0457562 0.076317 0.0556756 0.0658751 0.087245 0.0722578 0.0594852 0.0779413 0.0562629 0.0737212
110 3 O -1.04076 89.9347 1.36529 -1.2 1 0.0170322 0.010644 0.0245312 0.0288885 0.0164882 0.035849 0.0310485 0.0456763 0.0575058 0.0500987 0.0444837 0.0497204 0.0583386 0.0742677 0.101934 0.0721624 0.0712435 0.0610748 0.0683839 0.0530757
111 3 O -1.60075 86.8871 0.147646 -1.2 1 0.0162109 0.0234527 0.0276817 0.0286044 0.0349085 0.0223108 0.049561 0.0494143 0.0382154 0.0516202 0.0575815 0.0411469 0.0513455 0.0774683 0.0737142 0.0853905 0.0649829 0.0595487 0.0525651 0.0680765
112 3 O -1.44903 87.1149 2.84289 -1.2 1 0.0199804 0.0301227 0.0212866 0.0258245 0.0246037 0.036209 0.0441614 0.0501797 0.0397779 0.0551505 0.0594198 0.0426489 0.0619856 0.0708545 0.0691866 0.076255 0.0844519 0.0628107 0.0680419 0.0615617
113 1 Mg -2.56635 90.4261 -0.0801547 1.2 1 0.0197634 0.0135811 0.018072 0.0362987 0.0162965 0.044008 0.0145934 0.0602898 0.0200946 0.0765263 0.0218177 0.0600677 0.023901 0.0716595 0.0241461 0.10749 0.0325745 0.0979058 0.0338052 0.0927976
114 1 Mg 2.45817 93.3906 1.65424 1.2 1 0.0211157 0.0113873 0.0239677 0.0395952 0.0155695 0.0286958 0.0285215 0.0374584 0.0521603 0.0545249 0.0596015 0.0566061 0.0569184 0.0679968 0.0645885 0.0742099 0.075704 0.0909076 0.069361 0.0859053
115 2 Si -0.336447 91.3972 1.39779 2.4 1 0.00592361 0.0200548 0.0286621 0.0285858 0.0218159 0.0316112 0.0386547 0.0400716 0.0535096 0.0590374 0.0518219 0.066299 0.0654719 0.0666122 0.0862398 0.0681131 0.059866 0.0784977 0.0602099 0.0621808
116 3 O 1.18483 91.4819 1.37076 -1.2 1 0.0270923 0.038162 0.0140337 0.0174132 0.0328959 0.0324339 0.0238322 0.0677708 0.0436483 0.0668117 0.0331455 0.0726121 0.0692271 0.0693221 0.0748086 0.0697536 0.057721 0.0612465 0.0724482 0.0642031
117 3 O -1.44047 95.4635 1.51846 -1.2 1 0.0132904 0.0196124 0.0240717 0.0342022 0.0130091 0.0339884 0.0400348 0.0483412 0.0527143 0.0412496 0.0571146 0.0455024 0.0597366 0.0737163 0.104474 0.0789649 0.0708065 0.0625438 0.0787122 0.0587768
118 3 O -1.02031 92.1063 0.132614 -1.2 1 0.00380225 0.030246 0.0199162 0.0290917 0.0326239 0.025251 0.0516125 0.0527316 0.0452544 0.0514973 0.0540884 0.0487702 0.0557357 0.0712552 0.0753337 0.0794447 0.0771542 0.0580799 0.0698096 0.0692333
119 1 Mg -2.64558 100.92 3.03622 1.2 1 0.0198215 0.0224191 0.0151275 0.0206871 0.0175524 0.0278432 0.0216641 0.061668 0.0323861 0.0788929 0.0392073 0.0491806 0.0262557 0.0768378 0.0417932 0.0933382 0.0464998 0.103614 0.0510338 0.0819328
120 3 O -1.09072 92.088 2.73276 -1.2 1 0.00927579 0.0233018 0.0233034 0.0275655 0.031324 0.0258101 0.0506639 0.0481929 0.0386422 0.0423121 0.053124 0.0520645 0.0513668 0.0646906 0.0912617 0.0759193 0.07339 0.0625931 0.0692335 0.0690862
121 1 Mg -2.46369 98.1451 4.86881 1.2 1 0.0337831 0.0119937 0.0166443 0.026378 0.0213266 0.0331863 0.0265975 0.0365742 0.0520623 0.0474761 0.0649147 0.0449187 0.0581241 0.0712761 0.080762 0.0706184 0.0717478 0.0817187 0.0769387 0.0671838
122 2 Si 0.143574 100.116 4.49984 2.4 1 0.00656513 0.0129688 0.0201368 0.0286122 0.0247181 0.036637 0.0406795 0.0403665 0.0554359 0.0620597 0.0605137 0.0643288 0.0686366 0.0675883 0.0776425 0.0729541 0.0655805 0.0898228 0.0624274 0.0526109
123 3 O -1.425 100.062 4.68156 -1.2 1 0.0161036 0.024223 0.018698 0.0248905 0.0299642 0.0304078 0.0258612 0.0724035 0.0378571 0.0722252 0.0395911 0.0775515 0.0620012 0.0751033 0.0898602 0.0661047 0.0653056 0.0693956 0.0594885 0.0581846
124 3 O 1.36544 96.2861 4.35042 -1.2 1 0.0125897 0.0179272 0.0222449 0.0332598 0.013507 0.0339328 0.0411935 0.0544137 0.0649838 0.0397688 0.0480946 0.0410722 0.0628358 0.0691685 0.0926474 0.073749 0.0625341 0.0632121 0.0545187 0.055343
125 3 O 0.920446 99.4972 3.29975 -1.2 1 0.0184356 0.0150603 0.0255192 0.0287308 0.0272611 0.0292952 0.0533371 0.0472369 0.0393755 0.0366656 0.0535418 0.0409044 0.048583 0.0707426 0.0813711 0.0696769 0.0737461 0.054502 0.0660592 0.0698744