ITEM: TIMESTEP
48900
ITEM: NUMBER OF ATOMS
5600
ITEM: BOX BOUNDS xy xz yz pp pp pp
0	7.1235	0
0	201.985	2.3745
0	119.584	0
ITEM: ATOMS id type element xu yu zu q Q_1 Q_2 Q_3 Q_4 Q_5 Q_6 Q_7 Q_8 Q_9 Q_10 Q_11 Q_12 Q_13 Q_14 Q_15 Q_16 Q_17 Q_18 Q_19 Q_20 Q_21
1 1 Mg -1.67412 47.9787 -0.853878 1.2 1 0.472166 0.0409478 0.132754 0.0322331 0.0908968 0.0575937 0.053161 0.0447311 0.0768313 0.072738 0.0852797 0.0843098 0.0888592 0.108695 0.107486 0.108963 0.087015 0.0889613 0.0903337 0.110503
2 1 Mg 2.78904 50.2331 2.01012 1.2 1 0.257526 0.125543 0.0266217 0.0404753 0.0598501 0.0338381 0.0790879 0.0595258 0.055525 0.0812252 0.0685681 0.0985526 0.0718855 0.0786728 0.079034 0.0788639 0.0878611 0.0879408 0.0834731 0.0761388
3 2 Si 0.66985 49.7293 0.208172 2.4 1 0.284229 0.1275 0.0290709 0.0687005 0.0504298 0.0478905 0.0627208 0.0494175 0.0695674 0.0909064 0.0517481 0.0811952 0.0590978 0.0806332 0.113386 0.067256 0.0839729 0.078644 0.0763535 0.0912946
4 3 O 2.00844 48.9366 0.327585 -1.2 1 0.377907 0.100634 0.0864777 0.061744 0.0389439 0.0604878 0.0378449 0.0766014 0.0526351 0.0804566 0.0769964 0.0955688 0.0838599 0.0850526 0.0992996 0.0924303 0.0827537 0.0767753 0.0710351 0.0870189
5 3 O -1.17125 52.9343 1.72216 -1.2 1 0.0791965 0.0438689 0.0512836 0.0198705 0.0296592 0.0340547 0.0446595 0.0483837 0.0553667 0.0600488 0.0741862 0.0550651 0.0602984 0.0755698 0.0756368 0.0797521 0.0738451 0.0663962 0.0600686 0.0669206
6 3 O -0.0771969 49.1022 -1.00515 -1.2 1 0.363816 0.106859 0.0736193 0.0709069 0.0341216 0.0625462 0.0409902 0.0606345 0.0683697 0.0856483 0.0636974 0.0831487 0.0986637 0.0947739 0.0917496 0.0751531 0.091585 0.074252 0.0722924 0.0990982
7 1 Mg -2.42945 58.7882 2.92047 1.2 1 0.026731 0.0108559 0.0069155 0.0361219 0.0125716 0.0309563 0.0205389 0.0669133 0.0297222 0.0670939 0.0264064 0.0477635 0.0367223 0.0750806 0.0327963 0.103595 0.0446765 0.103729 0.0430352 0.0864808
8 3 O -0.15426 49.8362 1.61776 -1.2 1 0.28708 0.137947 0.0405858 0.0502334 0.0280594 0.0424079 0.0733752 0.0736812 0.0749945 0.0926736 0.0723604 0.073351 0.0594782 0.0849124 0.0992278 0.0986905 0.0812456 0.0815731 0.0727468 0.082879
9 1 Mg -2.00035 55.9394 4.61196 1.2 1 0.0206909 0.0150245 0.0219113 0.0312064 0.022407 0.0325588 0.0274787 0.0276879 0.0468984 0.062453 0.0673477 0.0561664 0.050711 0.0667467 0.0624251 0.0869541 0.0796816 0.0701327 0.0790454 0.0772392
10 2 Si 0.486281 57.8936 4.54203 2.4 1 0.0187995 0.0250805 0.028672 0.0273917 0.0375874 0.0395873 0.0428844 0.0438752 0.053417 0.0554187 0.0552051 0.0775736 0.0683737 0.0750181 0.0803761 0.0664268 0.0586933 0.0908765 0.0532764 0.0629931
11 3 O -1.04967 58.0079 4.55597 -1.2 1 0.0266749 0.020154 0.0198462 0.023968 0.0265051 0.0262357 0.0387219 0.0737794 0.0494165 0.0502154 0.048163 0.0791624 0.0518028 0.0723844 0.0745743 0.0714589 0.0623584 0.0721561 0.0524993 0.0884009
12 3 O 1.7166 53.4905 4.90571 -1.2 1 0.0683497 0.0343829 0.0447288 0.0205063 0.0277398 0.0307 0.0461251 0.0435599 0.0619891 0.0620982 0.0731181 0.0538744 0.0651092 0.0742606 0.088443 0.087276 0.0666176 0.0737354 0.0613575 0.0759682
13 3 O 1.18025 56.9533 3.33117 -1.2 1 0.0161839 0.014064 0.0248783 0.0179605 0.0249682 0.0232331 0.0391548 0.0547347 0.0406181 0.0437997 0.0607024 0.0418424 0.069014 0.0640275 0.0919836 0.0878257 0.0780535 0.0609374 0.0601656 0.0606914
14 3 O 1.21187 57.2038 5.93588 -1.2 1 0.0350601 0.0181146 0.0306412 0.0219748 0.0213455 0.0295012 0.0535587 0.040891 0.048706 0.0429745 0.0609818 0.0470051 0.0549539 0.0624774 0.090519 0.0664231 0.0872813 0.0652507 0.0655561 0.0699192
15 1 Mg 0.238754 52.813 3.02065 1.2 1 0.0885718 0.0607123 0.0367675 0.0264519 0.0267256 0.0301807 0.0468831 0.0550232 0.0665066 0.0472214 0.0669487 0.0501811 0.0543729 0.0659284 0.0658513 0.076118 0.073454 0.0789073 0.0674338 0.0810488
16 1 Mg 0.526473 49.2039 3.28375 1.2 1 0.359107 0.0976509 0.0618313 0.0712113 0.0350613 0.0641179 0.0501188 0.0728465 0.0648308 0.0800425 0.0805884 0.0695289 0.0830509 0.0701101 0.0864421 0.0964023 0.0792526 0.0828089 0.0978028 0.0787979
17 2 Si 2.35092 52.0386 4.70685 2.4 1 0.118736 0.0996249 0.0336462 0.0313916 0.0263573 0.0489516 0.0368307 0.0467898 0.0680313 0.0628252 0.0856015 0.0718674 0.0756076 0.0794666 0.089574 0.0979729 0.0851527 0.0828751 0.0744355 0.0711236
18 3 O -0.884196 52.3256 4.57287 -1.2 1 0.12198 0.0862868 0.031463 0.0300446 0.0316063 0.0467875 0.0466258 0.0527611 0.0644817 0.0722628 0.0592647 0.0816456 0.0676808 0.0812996 0.0750581 0.0654721 0.0871409 0.0679216 0.0801858 0.0596763
19 3 O 2.36448 48.2517 3.27609 -1.2 1 0.463307 0.0440479 0.109857 0.0471912 0.0795226 0.03639 0.0747637 0.0802434 0.0849193 0.0754822 0.0734132 0.0861059 0.0905749 0.081308 0.0845962 0.10373 0.0941552 0.084296 0.088759 0.0714891
20 3 O 1.67153 51.3128 3.24954 -1.2 1 0.180036 0.0976231 0.026025 0.0307097 0.0340637 0.0533441 0.0387971 0.0714807 0.0421697 0.0634511 0.0800136 0.081418 0.0737446 0.0684658 0.0784513 0.0866034 0.0912874 0.0747974 0.0694953 0.0840496
21 1 Mg -0.0169955 53.4375 0.0857025 1.2 1 0.0719926 0.0366442 0.0347108 0.0316263 0.0248134 0.0244965 0.0300595 0.0677963 0.0526566 0.0643184 0.0466677 0.0437108 0.0531085 0.0675089 0.0788812 0.0872715 0.0708061 0.0729847 0.0714693 0.071606
22 3 O 1.95298 50.9228 5.84153 -1.2 1 0.231625 0.0993385 0.0252636 0.0495411 0.0468766 0.0320975 0.0606847 0.0567765 0.0624389 0.0683748 0.0726348 0.0776831 0.067342 0.0775294 0.0848458 0.0681265 0.0777997 0.0782162 0.079412 0.0621699
23 1 Mg 0.344099 56.3127 1.63988 1.2 1 0.0209038 0.00904215 0.0189308 0.031287 0.0231001 0.0367254 0.0361058 0.0432984 0.0355529 0.0523187 0.0743353 0.0698517 0.0576075 0.0763121 0.0789643 0.0734001 0.0766287 0.066863 0.0816886 0.0721981
24 2 Si -1.94495 54.4078 1.79386 2.4 1 0.0184495 0.0173176 0.0243286 0.0301346 0.0233451 0.0353561 0.0459526 0.0544715 0.0512488 0.0602878 0.058871 0.0544566 0.080133 0.0556738 0.0514138 0.067687 0.0763026 0.0690553 0.057164 0.076858
25 3 O 1.16575 54.3128 1.82921 -1.2 1 0.013618 0.0282304 0.0228947 0.0259581 0.020609 0.0373028 0.0264233 0.0592392 0.0382645 0.0622095 0.0416497 0.0608931 0.0487157 0.0811371 0.0722965 0.0592253 0.0715597 0.0654182 0.0616077 0.0659701
26 3 O -0.993447 58.1105 1.57806 -1.2 1 0.0241904 0.013037 0.0148499 0.0319848 0.0178951 0.029673 0.0388093 0.0464695 0.0492624 0.0448507 0.0448561 0.0521302 0.0574281 0.0719204 0.0994475 0.0725919 0.0772557 0.0563033 0.0684336 0.064632
27 3 O -1.35135 55.0511 0.39333 -1.2 1 0.0116093 0.0214171 0.0241881 0.0247155 0.0251565 0.0344643 0.0509552 0.0479554 0.0374712 0.0452083 0.0703859 0.0375251 0.0618797 0.0742421 0.0885112 0.0724005 0.0688015 0.0627166 0.0625713 0.0688376
28 3 O -1.37221 55.2057 3.03128 -1.2 1 0.0115549 0.0208758 0.024309 0.0230081 0.0261203 0.0290726 0.0479993 0.0513842 0.0440117 0.0454755 0.0664494 0.0504029 0.0417023 0.0675756 0.0913913 0.0776464 0.0650745 0.0681574 0.0646343 0.064928
29 1 Mg -2.43401 58.6287 -0.041936 1.2 1 0.0241345 0.0221238 0.00922937 0.0375599 0.0166854 0.0464035 0.0194395 0.0627411 0.0243766 0.083839 0.0332013 0.0422366 0.0291729 0.0743248 0.039025 0.098373 0.050728 0.0956247 0.0498395 0.0889696
30 1 Mg 2.36875 61.6231 1.71288 1.2 1 0.0157687 0.0131353 0.0162203 0.0322934 0.0173278 0.0276086 0.0275394 0.0261636 0.0506995 0.0563165 0.0546522 0.0562308 0.0559095 0.0638431 0.0637316 0.0762585 0.0662289 0.100924 0.0571635 0.0877179
31 2 Si -0.336156 59.6163 1.54554 2.4 1 0.00931706 0.0161943 0.027359 0.0273325 0.0347136 0.0309779 0.0385807 0.0368154 0.0531299 0.0552493 0.0468622 0.0649256 0.0731685 0.0607359 0.0903031 0.0626144 0.0588751 0.079926 0.0624813 0.0573582
32 3 O 1.09102 59.5354 1.59002 -1.2 1 0.0314703 0.0373881 0.0168473 0.0215013 0.0251947 0.0277157 0.0291928 0.0717504 0.0507659 0.0513367 0.0446735 0.0775911 0.0534152 0.0661228 0.0766669 0.0710799 0.0565576 0.0824035 0.0399067 0.0794175
33 3 O -1.51644 63.5867 1.64851 -1.2 1 0.015326 0.02534 0.0224565 0.0246748 0.0182286 0.0335763 0.0301432 0.0440419 0.0581385 0.043388 0.0508039 0.0420493 0.0561906 0.07078 0.0955031 0.0727149 0.0713775 0.0557124 0.0788511 0.0674708
34 3 O -1.07937 60.2934 0.328464 -1.2 1 0.011152 0.0149152 0.0310629 0.0309456 0.0292141 0.0246829 0.0504961 0.0484521 0.0407977 0.0494709 0.0547412 0.0524225 0.0594845 0.0747345 0.087119 0.0774716 0.0915055 0.0567851 0.0728869 0.0772681
35 1 Mg -2.56952 69.3845 2.97283 1.2 1 0.013001 0.0202478 0.0163114 0.0243175 0.012966 0.0362479 0.016107 0.0620188 0.0163264 0.076114 0.0248102 0.0532991 0.0255709 0.0685433 0.0367247 0.10814 0.043711 0.102626 0.0429843 0.0874476
36 3 O -0.990877 60.3244 2.90147 -1.2 1 0.0202751 0.0232044 0.0289261 0.0261651 0.0320244 0.0208238 0.0544936 0.0521644 0.0504424 0.0470885 0.0534485 0.0462988 0.0495196 0.0708139 0.0840037 0.0783186 0.0773414 0.0551844 0.067761 0.0687426
37 1 Mg -2.29765 66.4513 4.65406 1.2 1 0.0169581 0.0149654 0.0162606 0.0258118 0.0150903 0.0295779 0.0254641 0.0325861 0.0451839 0.0658218 0.0616405 0.0515974 0.0609852 0.0647743 0.0567001 0.0793475 0.064183 0.0993018 0.0756057 0.0794274
38 2 Si 0.272357 68.3729 4.51693 2.4 1 0.0115402 0.0100167 0.0237567 0.039579 0.0288022 0.0350284 0.0346417 0.0382569 0.0517167 0.055728 0.0525936 0.0690705 0.0733456 0.0586702 0.0838609 0.056621 0.0664498 0.0914553 0.0501494 0.0637842
39 3 O -1.2824 68.3896 4.58942 -1.2 1 0.0260213 0.0345197 0.0113643 0.0184201 0.0232922 0.0280621 0.0226939 0.0735659 0.0415145 0.0594056 0.035523 0.0736242 0.0557789 0.0747757 0.0795636 0.0681401 0.0550558 0.078149 0.0491411 0.0773395
40 3 O 1.38345 64.6109 4.47206 -1.2 1 0.0109099 0.0213646 0.0242869 0.0273331 0.0180554 0.0335687 0.0423429 0.0495401 0.0500981 0.0461438 0.0448088 0.0515038 0.0597712 0.0693488 0.106774 0.0726772 0.0667275 0.0704184 0.0641604 0.0577426
41 3 O 0.912332 67.8176 3.18814 -1.2 1 0.0171311 0.0217963 0.0276259 0.0234837 0.023055 0.0250507 0.0498578 0.0468551 0.04416 0.0401571 0.0576863 0.0453319 0.050584 0.0689296 0.0880452 0.0803355 0.0763868 0.0582838 0.0704614 0.0735949
42 3 O 1.02706 67.6459 5.73278 -1.2 1 0.00954242 0.022162 0.0320559 0.0195256 0.0234538 0.0193746 0.0471353 0.0526627 0.0377163 0.0470745 0.0505795 0.0442924 0.0586675 0.0635253 0.0857396 0.0711884 0.0815934 0.0596128 0.0670995 0.0614565
43 1 Mg -0.0500141 64.0392 3.08446 1.2 1 0.00433521 0.0247223 0.00859885 0.0393807 0.0075581 0.0325958 0.0115996 0.0599241 0.0122585 0.0788454 0.0187867 0.0482068 0.0142446 0.0791303 0.0185819 0.103926 0.0281545 0.112678 0.0290679 0.0905138
44 1 Mg -0.114073 61.2346 4.56125 1.2 1 0.0200242 0.0136266 0.0138083 0.0359827 0.0158356 0.0257106 0.0244234 0.0308399 0.0506088 0.0572019 0.0644777 0.063001 0.0607755 0.0657274 0.0622605 0.0914682 0.0690033 0.0924575 0.069568 0.0840832
45 2 Si 2.03495 63.1045 4.61696 2.4 1 0.020177 0.0184094 0.0206072 0.0372307 0.0236828 0.0335698 0.0495909 0.044533 0.0546478 0.0571721 0.0473461 0.0690073 0.0710779 0.0597708 0.0806425 0.0604302 0.0661569 0.0982685 0.0519009 0.0569911
46 3 O -1.15191 63.0658 4.57404 -1.2 1 0.0175298 0.0161941 0.0199346 0.0177828 0.0271535 0.0296992 0.0318372 0.0751122 0.0399589 0.0649543 0.043006 0.064696 0.0583636 0.0771534 0.0747106 0.0657552 0.0568337 0.0707454 0.0606986 0.0746382
47 3 O 1.20676 59.3844 4.57083 -1.2 1 0.0109508 0.0140026 0.018885 0.0188456 0.022028 0.0435082 0.0493297 0.0464882 0.0407594 0.0504217 0.0396374 0.060632 0.0455125 0.0701677 0.105337 0.0723993 0.0753431 0.063765 0.0695394 0.060325
48 3 O 1.31535 62.2468 3.51642 -1.2 1 0.0325866 0.0137844 0.0287869 0.0172717 0.0307637 0.0210046 0.0474525 0.0444527 0.0361832 0.045522 0.0549942 0.0444202 0.0538972 0.0599337 0.0902132 0.0660066 0.085408 0.0750436 0.0626069 0.0608889
49 1 Mg -0.0603677 64.0522 0.0934879 1.2 1 0.0101229 0.0146346 0.0124992 0.0405479 0.0115899 0.037433 0.0130463 0.060677 0.0168555 0.081547 0.0213594 0.0502824 0.0248295 0.0664846 0.0234358 0.107424 0.0327205 0.113347 0.0295254 0.0981492
50 3 O 1.4115 62.5453 6.06644 -1.2 1 0.0153965 0.00900378 0.0271095 0.0161087 0.0245513 0.0308788 0.0448362 0.0480027 0.0437893 0.0420322 0.0533103 0.0471058 0.0542934 0.0645248 0.0836996 0.0680274 0.0769869 0.0688931 0.0681431 0.0655587
51 1 Mg -0.260604 66.9984 1.64889 1.2 1 0.0210807 0.01269 0.0245757 0.0317205 0.0175175 0.0311708 0.0259488 0.0328625 0.0533798 0.0520138 0.0559858 0.0524027 0.0607108 0.0664296 0.0646269 0.0628748 0.0760397 0.106963 0.0585503 0.0829193
52 2 Si -2.24915 65.1238 1.70499 2.4 1 0.0219975 0.0122688 0.0216993 0.0238001 0.0380071 0.029136 0.0409367 0.0447575 0.0468115 0.0586563 0.0548911 0.0601086 0.0701225 0.061892 0.081613 0.0713908 0.061946 0.0828954 0.0624548 0.0510621
53 3 O 0.999291 64.8979 1.66855 -1.2 1 0.0145455 0.020495 0.0256127 0.0207752 0.0233077 0.0302256 0.0270564 0.0703068 0.0379899 0.0481731 0.0504497 0.0636529 0.0520943 0.0682878 0.0730725 0.0727544 0.0661487 0.0780267 0.0511645 0.0790882
54 3 O -1.00902 68.9032 1.52115 -1.2 1 0.0251429 0.0137903 0.0186276 0.0229575 0.0142816 0.0281442 0.0326576 0.044111 0.0606793 0.0456646 0.0441261 0.0407382 0.0603407 0.0736614 0.100105 0.0611641 0.0753758 0.0519295 0.0690865 0.0531656
55 3 O -1.61284 65.7952 0.369245 -1.2 1 0.0177505 0.025705 0.0276353 0.0185241 0.0294127 0.0294166 0.0466823 0.0404951 0.0346441 0.0469063 0.0583287 0.0484555 0.0572964 0.0742343 0.0767909 0.0753792 0.0757333 0.0631452 0.06693 0.0707327
56 3 O -1.60825 65.9457 2.88002 -1.2 1 0.00865958 0.0205108 0.0285616 0.0182074 0.0203761 0.0275309 0.0474045 0.0519548 0.0334868 0.0468033 0.0537215 0.03712 0.0510685 0.077511 0.0687948 0.0771095 0.0741123 0.0706574 0.065021 0.0728504
57 1 Mg -2.39102 69.4903 0.081603 1.2 1 0.0158987 0.018386 0.0157423 0.0262497 0.010624 0.0381664 0.0169154 0.0631292 0.0262751 0.0813501 0.0242478 0.0584931 0.0209676 0.0748826 0.0331532 0.100446 0.042405 0.107728 0.0410408 0.0870281
58 1 Mg 2.35183 72.2857 1.52307 1.2 1 0.020327 0.0180958 0.016389 0.0315172 0.0123367 0.0248074 0.0302544 0.0350322 0.0428364 0.052951 0.0660191 0.0561314 0.0561051 0.0599071 0.0667389 0.0796423 0.0719202 0.096498 0.0676132 0.0813088
59 2 Si -0.342121 70.4151 1.36436 2.4 1 0.0221046 0.0170935 0.0250105 0.0277536 0.029053 0.0279072 0.0403594 0.0442623 0.0504088 0.0552826 0.0524969 0.0561621 0.0712924 0.0627216 0.0741515 0.078271 0.0644725 0.0789893 0.0680782 0.0559275
60 3 O 1.15472 70.5172 1.5021 -1.2 1 0.0288352 0.0246889 0.0193815 0.016151 0.0278381 0.0245709 0.0228805 0.0715604 0.0427908 0.0672335 0.0314379 0.0613837 0.0695026 0.0696799 0.0738756 0.0601729 0.0620877 0.0667529 0.0646806 0.0616958
61 3 O -1.5168 74.2937 1.49753 -1.2 1 0.0186821 0.0219999 0.0224728 0.0219112 0.0149623 0.0312578 0.0374782 0.0477541 0.0587095 0.0395478 0.0493966 0.03588 0.0610408 0.077998 0.0962999 0.0832085 0.0641028 0.0527795 0.0777275 0.0488617
62 3 O -1.19273 71.1203 0.188066 -1.2 1 0.00970546 0.018144 0.0297471 0.019395 0.0272293 0.0201846 0.0553569 0.0451433 0.0438093 0.0454096 0.0569636 0.0378471 0.0554997 0.0526946 0.089067 0.0768293 0.0634249 0.0614469 0.0648554 0.0758677
63 1 Mg -2.37062 80.1173 3.30972 1.2 1 0.00549439 0.0218567 0.0163462 0.0337839 0.014178 0.0315782 0.0230894 0.050195 0.0251386 0.0797144 0.0260384 0.0454348 0.0351633 0.0676469 0.0385371 0.103732 0.0534544 0.101211 0.0584108 0.0856475
64 3 O -1.17452 71.125 2.73715 -1.2 1 0.00827053 0.0168684 0.0210762 0.023204 0.029871 0.0269628 0.0482877 0.0473337 0.0369975 0.0469924 0.0584795 0.0458851 0.0577957 0.0596216 0.0975154 0.0767867 0.0621952 0.0610328 0.0648592 0.0604488
65 1 Mg -2.4889 77.1875 4.73214 1.2 1 0.0299945 0.0153582 0.025283 0.0355813 0.0131945 0.0287189 0.0304192 0.0319052 0.0572909 0.0566092 0.057307 0.0548323 0.0600946 0.0602972 0.0563584 0.0797529 0.0718577 0.101598 0.0590924 0.0882916
66 2 Si 0.130028 78.9441 4.78109 2.4 1 0.0245109 0.0230877 0.0187128 0.0338691 0.0324301 0.0246722 0.0367854 0.0441937 0.050132 0.0679663 0.0524738 0.0573538 0.0642974 0.0609203 0.0862491 0.0611253 0.0590177 0.0806976 0.0590473 0.060305
67 3 O -1.39144 79.1528 4.83232 -1.2 1 0.00975252 0.0238398 0.0149967 0.0211189 0.0168343 0.0295615 0.028208 0.0706827 0.0414033 0.0568989 0.0437461 0.0638705 0.0494814 0.0757845 0.0774082 0.0749811 0.0579425 0.0724836 0.0553972 0.0706575
68 3 O 1.50955 75.0657 4.64068 -1.2 1 0.0153535 0.0197408 0.0196438 0.0187681 0.0189739 0.0306686 0.0333271 0.048476 0.0626769 0.0442375 0.0470467 0.0435546 0.0577096 0.0667098 0.0982162 0.0784307 0.0669683 0.055674 0.072382 0.0570578
69 3 O 0.872613 78.1752 3.57422 -1.2 1 0.0234732 0.0209284 0.023955 0.0194652 0.0306026 0.027892 0.0456069 0.0521761 0.0400007 0.0493731 0.0551978 0.0446995 0.0499515 0.0726071 0.0762368 0.075929 0.0746762 0.0663637 0.0682411 0.0597833
70 3 O 0.982806 78.2679 6.08734 -1.2 1 0.0224011 0.0175849 0.0323501 0.0257883 0.0251638 0.0256384 0.0531042 0.0518703 0.0335201 0.0504764 0.0550427 0.0336428 0.0503185 0.0684216 0.0770746 0.0776851 0.0706871 0.0652775 0.0588426 0.0687553
71 1 Mg -0.161275 74.5245 2.97152 1.2 1 0.0152336 0.0190439 0.0190208 0.033995 0.0202497 0.0384831 0.0283448 0.0507127 0.0351954 0.0800615 0.0232741 0.0467849 0.0215743 0.0750676 0.029711 0.101877 0.0453251 0.101717 0.0546028 0.0809884
72 1 Mg -0.0706559 71.7232 4.56306 1.2 1 0.0290428 0.0133857 0.0172142 0.0310875 0.0162934 0.0264556 0.0281318 0.0321481 0.0467828 0.0552965 0.0584589 0.0583835 0.0587862 0.0652209 0.0700284 0.0783328 0.0705644 0.0961951 0.0632468 0.0839866
73 2 Si 2.04949 73.4831 4.66588 2.4 1 0.0138034 0.0168188 0.0177251 0.0285427 0.0259998 0.0323232 0.0427271 0.0413401 0.0584949 0.0597606 0.0485886 0.0703126 0.0657516 0.0560573 0.0712533 0.0661456 0.0573278 0.0942827 0.0645259 0.0686205
74 3 O -1.17112 73.4825 4.6932 -1.2 1 0.0273486 0.0136836 0.0178434 0.0209177 0.0271204 0.0295363 0.0196239 0.0699227 0.0401863 0.0648894 0.0411456 0.0682109 0.0641123 0.0735834 0.0661907 0.0675775 0.0648084 0.060239 0.0632769 0.0705569
75 3 O 0.872645 69.8801 4.38668 -1.2 1 0.0122089 0.0271941 0.0231492 0.0211146 0.0171281 0.0301561 0.0344751 0.0419302 0.0537924 0.047502 0.053679 0.0407522 0.0570759 0.0702989 0.102413 0.0775463 0.0707175 0.0564541 0.0707568 0.0597928
76 3 O 1.36833 73.0673 3.2809 -1.2 1 0.00686345 0.012872 0.0282629 0.0218147 0.0260742 0.0220084 0.0524237 0.0505472 0.0402077 0.0494155 0.0489839 0.0446014 0.0519853 0.0734591 0.0857787 0.0770867 0.0719251 0.049989 0.0620939 0.0741855
77 1 Mg -0.0774009 74.6415 0.0735864 1.2 1 0.00938856 0.0179953 0.0149884 0.0328654 0.0139944 0.0418443 0.0129688 0.0609336 0.0215354 0.079229 0.0156445 0.0533104 0.0152656 0.0668021 0.0236579 0.106746 0.0275781 0.109349 0.0337997 0.0873822
78 3 O 1.31302 72.8652 5.92222 -1.2 1 0.0126219 0.0169576 0.0215237 0.0213867 0.0249733 0.023395 0.0533737 0.0468504 0.0437815 0.048549 0.0581417 0.041748 0.0551926 0.0600732 0.0851446 0.0791223 0.0589954 0.0624992 0.0596339 0.0702476
79 1 Mg 0.138612 77.7111 1.79549 1.2 1 0.0199162 0.0143783 0.0200808 0.0256344 0.0235447 0.0296408 0.0329313 0.0395362 0.0439789 0.0628992 0.0517303 0.0638933 0.0600371 0.0733366 0.074897 0.0745549 0.0794485 0.0816293 0.0820412 0.0668117
80 2 Si -2.02367 75.8039 1.52428 2.4 1 0.0101475 0.0127745 0.0238152 0.0278657 0.029107 0.0389002 0.0407683 0.0504009 0.0519758 0.0486515 0.0511147 0.0694601 0.0747885 0.0508799 0.0649207 0.0728646 0.0599367 0.0912025 0.0696601 0.0539802
81 3 O 1.13345 75.7738 1.65012 -1.2 1 0.012349 0.0108923 0.0161078 0.0183648 0.0211523 0.0285455 0.0254436 0.0751605 0.0387436 0.0613748 0.0394262 0.072786 0.0660644 0.07208 0.0780538 0.0588775 0.0613876 0.0685399 0.0579093 0.0610072
82 3 O -0.959525 79.5019 1.91965 -1.2 1 0.0134758 0.0218152 0.0188975 0.0322814 0.0171474 0.0388401 0.0368916 0.0432315 0.0571099 0.0437409 0.0546293 0.0462684 0.0662696 0.0742608 0.0891496 0.0942168 0.0643654 0.0621942 0.0708459 0.0641155
83 3 O -1.44713 76.4728 0.253325 -1.2 1 0.0173786 0.0204935 0.025401 0.0171475 0.0176961 0.0203924 0.042179 0.0517601 0.0415348 0.0453635 0.0534788 0.0372945 0.0576837 0.0609294 0.0826656 0.0780012 0.070134 0.0703045 0.062783 0.0671948
84 3 O -1.32055 76.5193 2.84226 -1.2 1 0.0146889 0.0118534 0.0270523 0.0287295 0.0283185 0.0252309 0.0459635 0.0449005 0.0369266 0.0477666 0.0518896 0.0414516 0.0583016 0.0557385 0.0894222 0.0824337 0.0708145 0.0712803 0.0623396 0.0610736
85 1 Mg -2.40278 79.7976 0.248092 1.2 1 0.00920295 0.0175436 0.0121356 0.0384895 0.01589 0.0410221 0.0172018 0.0565432 0.02636 0.075501 0.020655 0.051982 0.0230347 0.069813 0.0293919 0.0971832 0.0442717 0.103291 0.0576159 0.0878458
86 1 Mg 2.29879 82.923 1.53706 1.2 1 0.026703 0.00971123 0.0188527 0.025787 0.0163687 0.032396 0.0278678 0.035065 0.0473331 0.056781 0.0572534 0.0595634 0.058133 0.0708213 0.0746305 0.0628046 0.0709115 0.098487 0.0752947 0.0871325
87 2 Si -0.301161 80.9815 1.7824 2.4 1 0.0307275 0.013416 0.0174424 0.0227073 0.0359885 0.0368709 0.0431456 0.0383069 0.0498673 0.0524076 0.0545292 0.0656923 0.0740733 0.062874 0.0797878 0.0642696 0.0655727 0.0796174 0.067637 0.0621745
88 3 O 1.25196 80.6697 1.72373 -1.2 1 0.0153792 0.017652 0.0229785 0.0278518 0.0252239 0.028178 0.0346291 0.0668393 0.0420618 0.0443801 0.0467536 0.0709334 0.0438845 0.075912 0.0732143 0.069466 0.0670242 0.0707406 0.0495901 0.0729383
89 3 O -1.41339 84.747 1.60397 -1.2 1 0.0224523 0.0120637 0.0290973 0.0214536 0.0182976 0.0315419 0.0339477 0.0457352 0.0557137 0.0421824 0.0452037 0.0544518 0.0457515 0.0700064 0.102665 0.0665146 0.0799225 0.0453752 0.0655959 0.0595175
90 3 O -1.02213 81.6095 0.537034 -1.2 1 0.0214317 0.0171754 0.0331052 0.0236649 0.0307567 0.017544 0.0491699 0.0472965 0.0375052 0.0401204 0.0496611 0.0353422 0.0534805 0.0735939 0.0811247 0.0788881 0.087124 0.0586114 0.0702546 0.0700591
91 1 Mg -2.55034 90.481 3.17923 1.2 1 0.0117532 0.0140425 0.0131852 0.0297454 0.00923854 0.0409994 0.0149656 0.0619087 0.0155588 0.0839585 0.0225468 0.0492778 0.024202 0.0679195 0.023489 0.104738 0.0366754 0.105349 0.0313239 0.087666
92 3 O -1.01921 81.7058 2.97845 -1.2 1 0.0087785 0.0120965 0.0306143 0.0217808 0.0256361 0.036779 0.0550362 0.040738 0.0356511 0.0476321 0.0527773 0.0414119 0.060031 0.0740965 0.0775799 0.0792934 0.0730603 0.0730082 0.0615259 0.0693395
93 1 Mg -2.37742 87.6363 4.5819 1.2 1 0.0156243 0.0184625 0.0180036 0.0311412 0.0165553 0.0295697 0.0269602 0.0357514 0.0429025 0.0579828 0.0673486 0.053717 0.0630749 0.0641723 0.0634199 0.0858222 0.0768932 0.0835176 0.063312 0.0848867
94 2 Si 0.187502 89.5329 4.60616 2.4 1 0.0143192 0.0227726 0.017758 0.0347442 0.0332158 0.0330885 0.0411672 0.0448556 0.0564326 0.0620833 0.0542456 0.0705159 0.0721633 0.0538673 0.0868055 0.0658413 0.0611601 0.0815724 0.0615795 0.0613341
95 3 O -1.40483 89.6251 4.49403 -1.2 1 0.0118705 0.0303433 0.0178482 0.0180201 0.0213604 0.0272042 0.029638 0.0736222 0.037355 0.0561545 0.0411913 0.0735176 0.0539583 0.0792132 0.0746909 0.0697235 0.052619 0.0752623 0.0541198 0.0773604
96 3 O 1.32125 85.7151 4.36796 -1.2 1 0.00243987 0.0202853 0.0229064 0.027977 0.015901 0.0350319 0.0373896 0.047786 0.0570452 0.0413382 0.0490125 0.0435505 0.0609826 0.0707579 0.0941677 0.0820369 0.0729386 0.0668081 0.0645806 0.0534802
97 3 O 1.00469 89.0309 3.18218 -1.2 1 0.0202751 0.0207073 0.02479 0.023343 0.0296525 0.024151 0.0552298 0.0410725 0.0487382 0.0380914 0.0557233 0.0464937 0.0498069 0.0475591 0.0950248 0.0638537 0.079368 0.0702845 0.0667434 0.0672578
98 3 O 0.751521 88.7805 5.77329 -1.2 1 0.0155662 0.0173558 0.0201409 0.0203281 0.0262628 0.0196502 0.0436689 0.0462256 0.0408339 0.052231 0.0577928 0.0349852 0.0612309 0.0747519 0.0717134 0.0797746 0.078801 0.0627041 0.0654989 0.0658695
99 1 Mg -0.0899501 85.3992 3.00549 1.2 1 0.0193149 0.00679326 0.0126201 0.0381856 0.0151882 0.0365563 0.0164695 0.060296 0.026183 0.0761619 0.0302111 0.049976 0.0256853 0.073636 0.0400641 0.0994742 0.0540748 0.100945 0.0486173 0.0822788
100 1 Mg -0.0669593 82.221 4.72951 1.2 1 0.0232046 0.00976869 0.0154702 0.030897 0.0191286 0.0271035 0.0272595 0.0367318 0.0417422 0.0589243 0.0506 0.0548233 0.0596893 0.0621482 0.0783371 0.0656021 0.0706267 0.092564 0.0739634 0.0746095
101 2 Si 2.05576 84.2663 4.50375 2.4 1 0.0164866 0.0139185 0.0181902 0.032432 0.0377161 0.0314859 0.0416704 0.0424054 0.0507498 0.0603625 0.0572342 0.0662709 0.0744773 0.0554708 0.0795837 0.0707213 0.068952 0.0841683 0.059083 0.0477101
102 3 O -1.08327 84.446 4.49097 -1.2 1 0.0281584 0.0198507 0.0170218 0.0176238 0.0158058 0.0288031 0.0263605 0.0717706 0.0410724 0.0565522 0.0444237 0.070584 0.0448765 0.0773142 0.0772873 0.0705844 0.0525878 0.0778656 0.0570562 0.0748994
103 3 O 0.832824 80.4852 4.65952 -1.2 1 0.00919356 0.0224075 0.0226404 0.0253615 0.0238361 0.0313503 0.0350674 0.0480931 0.0601179 0.0419456 0.0471639 0.054306 0.056929 0.0681399 0.110595 0.0759402 0.0670544 0.0564314 0.0647638 0.0646106
104 3 O 1.34194 83.3206 3.39202 -1.2 1 0.00543841 0.0198096 0.0242964 0.0183142 0.0181948 0.030707 0.0356069 0.054246 0.0360134 0.0509835 0.0534154 0.0414922 0.060413 0.0691484 0.0709106 0.0762923 0.0730602 0.0716858 0.0660717 0.0610616
105 1 Mg -0.312311 85.2902 0.00445837 1.2 1 0.0110995 0.0117435 0.00826621 0.0281234 0.0102389 0.0407521 0.0140905 0.0609756 0.0240235 0.0807411 0.0296512 0.0506039 0.0266123 0.0748176 0.0363299 0.104263 0.0360311 0.0987696 0.0450469 0.0858708
106 3 O 1.38791 83.7518 5.88697 -1.2 1 0.0130047 0.0143711 0.0338688 0.0220017 0.0290173 0.0217192 0.0486289 0.0400672 0.039199 0.0429444 0.0511325 0.0469808 0.0545966 0.0667788 0.0872873 0.0743608 0.0800106 0.0564175 0.0750914 0.0678729
107 1 Mg -0.239179 88.2123 1.62332 1.2 1 0.0266452 0.0155677 0.0167098 0.0338415 0.016833 0.0281178 0.0255987 0.0371186 0.0418054 0.0556307 0.0547505 0.0591197 0.0575463 0.0631767 0.0728025 0.0699563 0.0689705 0.100397 0.0587776 0.0785592
108 2 Si -2.19378 86.2796 1.57312 2.4 1 0.0162975 0.0102891 0.0281708 0.0269808 0.0395214 0.0278024 0.0404323 0.0378627 0.053535 0.0519073 0.0486878 0.0657413 0.0756706 0.0638842 0.0848009 0.0714984 0.0594887 0.0878665 0.061949 0.0543161
109 3 O 1.05991 86.226 1.49409 -1.2 1 0.0222449 0.0198688 0.0297579 0.0224029 0.0313969 0.0324468 0.0300938 0.0739467 0.0387825 0.0531844 0.046169 0.0683916 0.0634702 0.0703103 0.0724689 0.0671445 0.0595484 0.0697136 0.0658271 0.0630368
110 3 O -1.27986 90.066 1.6422 -1.2 1 0.010083 0.0197861 0.0222524 0.031613 0.0138968 0.0382428 0.0422758 0.0420211 0.051265 0.0425252 0.0541376 0.0500709 0.0531562 0.074624 0.106842 0.0676299 0.0770086 0.0563177 0.0740259 0.0541536
111 3 O -1.57494 86.7964 0.269119 -1.2 1 0.00410851 0.0142333 0.0249277 0.0267818 0.0345632 0.0220654 0.0565699 0.0444318 0.0462598 0.0492368 0.0573428 0.0487321 0.0577816 0.0711839 0.0868904 0.0705215 0.0743584 0.0516883 0.057493 0.0730172
112 3 O -1.44149 87.0317 2.80348 -1.2 1 0.021289 0.017276 0.0258395 0.0262129 0.032309 0.0209218 0.0488482 0.0394158 0.0376534 0.0436491 0.0604033 0.0425906 0.0653651 0.0614469 0.0850849 0.0712795 0.0661302 0.0672347 0.0639649 0.0599185
113 1 Mg -2.58969 90.5855 0.091734 1.2 1 0.00803852 0.0179008 0.0147071 0.0296401 0.0106388 0.0328772 0.0150227 0.0584827 0.0217771 0.0842331 0.0166323 0.0552099 0.0206284 0.0778835 0.024747 0.103387 0.0264752 0.109238 0.0347121 0.0941468
114 1 Mg 2.18135 93.3973 1.60618 1.2 1 0.0194009 0.00977637 0.0203227 0.0299976 0.0138455 0.0301082 0.0316501 0.0390395 0.0430805 0.0610268 0.0590592 0.0530026 0.0606041 0.0631465 0.0660809 0.0883266 0.0748154 0.0879585 0.0677365 0.0845244
115 2 Si -0.540183 91.5473 1.60621 2.4 1 0.0127424 0.012049 0.0184952 0.0397546 0.0337287 0.0316927 0.0423897 0.0413578 0.0543974 0.0551259 0.0561981 0.0691136 0.0754517 0.0581257 0.0730758 0.0771252 0.0613799 0.098676 0.0488393 0.054224
116 3 O 1.01078 91.5978 1.54304 -1.2 1 0.0169646 0.0176453 0.0161841 0.0160454 0.0281301 0.0293319 0.0230265 0.0685622 0.0394031 0.0699033 0.0424275 0.0666742 0.0605816 0.0663721 0.0773532 0.063899 0.0616499 0.0726773 0.0669671 0.0681352
117 3 O -1.60434 95.3788 1.48894 -1.2 1 0.0139 0.0190801 0.0227413 0.0235373 0.0218701 0.0345429 0.0359027 0.0430554 0.0564692 0.0446147 0.0483651 0.0446683 0.062545 0.0686783 0.0919623 0.0813909 0.0651066 0.0623007 0.0756271 0.0565426
118 3 O -1.26814 92.3582 0.431581 -1.2 1 0.0111362 0.0124298 0.0309188 0.0172157 0.0229851 0.0261842 0.0401057 0.0480743 0.0360371 0.0509477 0.0508868 0.0442487 0.0602313 0.0605688 0.0868087 0.070235 0.0715023 0.0768305 0.0675148 0.0622018
119 1 Mg -2.23042 101.085 3.08931 1.2 1 0.0107557 0.0146546 0.00718992 0.0285334 0.0139194 0.0338611 0.0180988 0.0584412 0.0181142 0.0852857 0.0212173 0.0503169 0.024839 0.0705866 0.0244299 0.105661 0.0329761 0.105194 0.0394126 0.0930639
120 3 O -1.08928 92.3254 2.92942 -1.2 1 0.0160403 0.0182573 0.0264999 0.016089 0.0225902 0.0246859 0.044048 0.0517242 0.0427969 0.0456073 0.0616873 0.0391655 0.0522552 0.0659721 0.0800083 0.0774455 0.0668112 0.0636586 0.0637392 0.068028
121 1 Mg -2.36501 98.1181 4.71537 1.2 1 0.0140642 0.0111537 0.0225048 0.0272792 0.0162781 0.0188246 0.0291542 0.0373585 0.0399196 0.0601531 0.0580274 0.0533138 0.0599834 0.0624741 0.0661028 0.0699473 0.0745466 0.096465 0.0732527 0.0677633
122 2 Si 0.274835 99.965 4.58723 2.4 1 0.0193506 0.0194448 0.0127907 0.0286911 0.0254799 0.029845 0.040661 0.0436971 0.0468603 0.0589112 0.0539882 0.0691825 0.0667042 0.0606905 0.0675824 0.0695985 0.0578373 0.0950046 0.0606602 0.0604448
123 3 O -1.25571 100.04 4.63838 -1.2 1 0.0279802 0.0111774 0.0286822 0.025639 0.0227589 0.0242259 0.0247034 0.0753557 0.0405162 0.0632881 0.0418332 0.0638551 0.0606537 0.0616507 0.0661917 0.0616938 0.0613598 0.0681396 0.0651973 0.0695107
124 3 O 1.38089 96.247 4.82845 -1.2 1 0.0130562 0.0192856 0.0252516 0.0208644 0.0175598 0.034239 0.0345419 0.0451365 0.0570918 0.0412636 0.047193 0.0388884 0.0613691 0.06715 0.0967637 0.0818526 0.0635259 0.059803 0.0710722 0.0658431
125 3 O 1.00958 99.3258 3.33808 -1.2 1 0.0136138 0.00987517 0.020603 0.0205917 0.0212507 0.0207039 0.0455465 0.0442369 0.0325522 0.0542259 0.0540364 0.0401134 0.0572268 0.0565454 0.0860256 0.073741 0.0712743 0.0664662 0.0651204 0.0685151