ITEM: TIMESTEP
61400
ITEM: NUMBER OF ATOMS
5600
ITEM: BOX BOUNDS xy xz yz pp pp pp
0	7.1235	0
0	201.985	2.3745
0	119.584	0
ITEM: ATOMS id type element xu yu zu q Q_1 Q_2 Q_3 Q_4 Q_5 Q_6 Q_7 Q_8 Q_9 Q_10 Q_11 Q_12 Q_13 Q_14 Q_15 Q_16 Q_17 Q_18 Q_19 Q_20 Q_21
1 1 Mg -1.6444 47.9914 -0.509633 1.2 1 0.450569 0.0641732 0.132368 0.0397276 0.079327 0.0448578 0.0541353 0.0439069 0.0797843 0.0723542 0.085328 0.0811389 0.101007 0.0986352 0.100426 0.0990122 0.120345 0.126539 0.104487 0.101445
2 1 Mg 2.94577 49.8352 2.68567 1.2 1 0.275796 0.123606 0.0252811 0.0607747 0.0512417 0.0439816 0.061271 0.0464266 0.0768647 0.0576867 0.0596534 0.0637838 0.095136 0.0791442 0.079051 0.0901182 0.0809202 0.0704534 0.0849492 0.0673282
3 2 Si 0.975403 49.9606 0.638909 2.4 1 0.251759 0.135294 0.0387487 0.0591993 0.0519227 0.0395786 0.0571748 0.0338221 0.0703664 0.0800914 0.0734871 0.0619052 0.0752138 0.075597 0.0907377 0.0780612 0.0794057 0.0746122 0.0782978 0.0853132
4 3 O 2.30483 49.261 1.01151 -1.2 1 0.325094 0.124522 0.0641678 0.0578967 0.039099 0.0606492 0.0512777 0.0763628 0.0747351 0.0715658 0.0656659 0.0823949 0.0831262 0.0813488 0.0788669 0.0767799 0.0760015 0.0697465 0.0903659 0.0858771
5 3 O -1.20952 52.6621 2.06418 -1.2 1 0.095691 0.0420999 0.0554412 0.0129173 0.0274891 0.0257884 0.0410708 0.054285 0.0568982 0.0547418 0.0604904 0.0641274 0.0564276 0.0714086 0.0599656 0.0861063 0.0776262 0.0733052 0.0660262 0.0691285
6 3 O 0.234248 48.8825 -0.486439 -1.2 1 0.358418 0.115656 0.0635046 0.0824043 0.0377706 0.0726783 0.0481103 0.074712 0.0729118 0.0660431 0.0827172 0.0573332 0.0930759 0.0695602 0.0903055 0.0920299 0.0912743 0.078161 0.0673924 0.0827776
7 1 Mg -2.2193 58.8257 3.08505 1.2 1 0.0217202 0.0184677 0.021279 0.0303395 0.0153328 0.0307338 0.0243549 0.0594492 0.0301213 0.0656129 0.0284611 0.0509215 0.038315 0.0630217 0.0481338 0.0831992 0.0593025 0.107027 0.0556736 0.0731742
8 3 O -0.0696048 49.7667 1.82291 -1.2 1 0.278324 0.140093 0.0423897 0.0526198 0.0425963 0.0430225 0.0630963 0.0604835 0.0648728 0.0911293 0.0594517 0.0692356 0.0612547 0.0682765 0.0894666 0.0773717 0.0731209 0.0942716 0.0863641 0.100509
9 1 Mg -2.44962 55.7343 4.62083 1.2 1 0.0142524 0.0183864 0.0273269 0.0307275 0.0155754 0.0290079 0.0265165 0.0336279 0.0523494 0.0508388 0.0625504 0.0552034 0.0560875 0.0584439 0.0504618 0.0710653 0.0812316 0.0829217 0.062122 0.0931003
10 2 Si 0.425396 57.8306 4.4819 2.4 1 0.025967 0.0239184 0.0317887 0.0327797 0.0367931 0.0317919 0.0413579 0.0519058 0.0529299 0.059605 0.0606028 0.069117 0.0678528 0.0707653 0.0724463 0.0657183 0.0758502 0.0885165 0.0557195 0.0617471
11 3 O -1.1421 57.8531 4.47257 -1.2 1 0.0306673 0.0205345 0.0273519 0.0236793 0.0265176 0.0273955 0.0288519 0.0699151 0.0443763 0.0565117 0.0444478 0.0789918 0.0464504 0.0679172 0.0751946 0.0679361 0.065692 0.0683806 0.0535207 0.0755244
12 3 O 1.71453 53.2969 4.61973 -1.2 1 0.0688587 0.0279814 0.035235 0.0369982 0.0290368 0.0340912 0.0344009 0.0398352 0.0767482 0.0504005 0.0729978 0.0403655 0.0691076 0.0706554 0.0800316 0.0750037 0.0682071 0.0775966 0.066267 0.0754794
13 3 O 1.12872 57.1663 3.02754 -1.2 1 0.0367369 0.0248628 0.0287874 0.0143991 0.0128837 0.0314885 0.0413534 0.0378038 0.0605408 0.0539851 0.0565819 0.047611 0.04203 0.0665526 0.0966613 0.068368 0.0718306 0.0715317 0.0678061 0.0750105
14 3 O 1.04388 57.0205 5.61183 -1.2 1 0.0247238 0.0224635 0.0271246 0.0232748 0.0288704 0.0388246 0.0516079 0.0370028 0.0471008 0.0471981 0.0577212 0.0576306 0.061733 0.0733492 0.0730197 0.0669284 0.0955467 0.0581683 0.0676664 0.073072
15 1 Mg 0.391711 52.7102 3.15699 1.2 1 0.0664352 0.0594744 0.0414279 0.0240594 0.0306023 0.0308683 0.0315445 0.061983 0.0601544 0.0520545 0.0664174 0.0526289 0.0545947 0.0618989 0.0614375 0.0795088 0.0644111 0.0705879 0.0779858 0.0694218
16 1 Mg 0.445628 48.6088 3.18596 1.2 1 0.397499 0.0847493 0.0759413 0.0656137 0.0398746 0.0678792 0.0386497 0.0657208 0.0708144 0.0783926 0.0772736 0.0762521 0.056565 0.0639424 0.0832633 0.0960171 0.0966527 0.0868813 0.081569 0.0928335
17 2 Si 2.33542 51.7386 4.64584 2.4 1 0.112073 0.0872748 0.0540652 0.0263315 0.0364723 0.0525875 0.0385408 0.0467643 0.0825851 0.071231 0.0749903 0.0536186 0.0727162 0.0803044 0.0752797 0.0921648 0.077861 0.0874804 0.0644744 0.0825746
18 3 O -0.824924 51.9157 4.72842 -1.2 1 0.115838 0.0824503 0.0422997 0.0248115 0.0206673 0.0573102 0.0384232 0.0625356 0.0752644 0.0828564 0.0595053 0.0892114 0.0716895 0.0715344 0.0761937 0.0701565 0.0724109 0.0777765 0.0806633 0.0619248
19 3 O 2.31228 47.97 3.48928 -1.2 1 0.462819 0.0436807 0.105577 0.0548455 0.0863293 0.0373563 0.0648773 0.0856031 0.0909897 0.0738888 0.0904272 0.0736342 0.091851 0.100138 0.0977151 0.102495 0.101783 0.105768 0.0916999 0.0820795
20 3 O 1.66163 51.0795 3.30452 -1.2 1 0.166928 0.101842 0.0421869 0.0275153 0.0278484 0.0517301 0.0396983 0.0691216 0.0418098 0.0591323 0.0675145 0.0676639 0.0618971 0.0734596 0.0879105 0.0729795 0.0869835 0.0722737 0.071875 0.096251
21 1 Mg -0.0546064 53.2435 0.0660037 1.2 1 0.0633662 0.0367244 0.0429555 0.0314671 0.0240116 0.0187751 0.0334395 0.0522271 0.0504213 0.0538867 0.0423963 0.0541089 0.051939 0.0621974 0.0720348 0.0941993 0.0720859 0.0599646 0.0764672 0.0844821
22 3 O 1.76319 50.6603 5.68705 -1.2 1 0.192953 0.125756 0.0281885 0.0397094 0.046014 0.0352786 0.0537221 0.0699475 0.0683758 0.0695743 0.0745429 0.0773028 0.0673744 0.0723729 0.0662786 0.0722336 0.0806756 0.0638243 0.0756568 0.0782684
23 1 Mg -0.0567532 56.3054 1.54916 1.2 1 0.010707 0.00898029 0.0158126 0.0287723 0.0133678 0.0342321 0.0287364 0.0375591 0.0464663 0.0561717 0.0525084 0.0524953 0.0569409 0.0638878 0.0746638 0.0668511 0.0796219 0.0829856 0.0728088 0.0791559
24 2 Si -1.88675 54.1626 1.95632 2.4 1 0.0321114 0.0112939 0.0229952 0.0353718 0.0275133 0.0403852 0.0406586 0.041773 0.0501208 0.0564237 0.0520388 0.0602956 0.0690772 0.0471801 0.0517645 0.0843076 0.0787047 0.0790314 0.0651024 0.0640503
25 3 O 1.26085 54.0729 1.81874 -1.2 1 0.0174488 0.0151021 0.0247229 0.0279094 0.0205372 0.0316656 0.0272429 0.056717 0.0534306 0.0612721 0.0472034 0.0658124 0.0453389 0.0704726 0.0714085 0.0592083 0.0810576 0.0610184 0.06421 0.066698
26 3 O -0.765594 58.2863 1.53919 -1.2 1 0.0112156 0.0222771 0.0148831 0.0248889 0.018534 0.0330333 0.0350387 0.0441011 0.0650593 0.0461063 0.051381 0.038894 0.0603148 0.0770863 0.0880821 0.0687726 0.0631717 0.0539245 0.0811893 0.0600035
27 3 O -1.28193 54.8756 0.653403 -1.2 1 0.0230618 0.0138525 0.0183078 0.0301544 0.0271341 0.0368073 0.0433784 0.0464225 0.0358134 0.0431622 0.0596882 0.0521382 0.0708565 0.0590751 0.0921148 0.0761391 0.0710261 0.0712475 0.0807361 0.0584762
28 3 O -1.36351 55.0427 3.19226 -1.2 1 0.0163074 0.0276615 0.0269953 0.0287113 0.0246282 0.0287893 0.044024 0.0506811 0.0547879 0.047946 0.066084 0.0478493 0.0502715 0.0590599 0.0952063 0.079905 0.0587621 0.0760945 0.060791 0.0791359
29 1 Mg -2.29243 58.543 0.0653846 1.2 1 0.0232617 0.0231053 0.0119796 0.0321182 0.0209643 0.0410557 0.0133714 0.0555552 0.0233893 0.0777319 0.0261784 0.0561246 0.0269449 0.0759968 0.0376996 0.101729 0.0440566 0.108909 0.0435689 0.0785882
30 1 Mg 2.43201 61.4473 1.13307 1.2 1 0.027572 0.0176511 0.0235651 0.0353481 0.020672 0.0385908 0.0286501 0.0380447 0.0481432 0.0498602 0.0559439 0.0506594 0.056458 0.0660996 0.0590873 0.0720782 0.0831232 0.0803219 0.071306 0.0640063
31 2 Si -0.167198 59.6257 1.38085 2.4 1 0.0304599 0.0226633 0.0274158 0.0289369 0.0346109 0.0277105 0.0357997 0.0335786 0.053108 0.0645239 0.0569536 0.0598296 0.072233 0.0581528 0.0784409 0.0686283 0.0634403 0.0687514 0.0652093 0.0578153
32 3 O 1.30363 59.7498 1.53134 -1.2 1 0.0233516 0.0347054 0.0109728 0.020102 0.0344438 0.0214164 0.0196908 0.0684907 0.0362697 0.0629123 0.0317357 0.0568392 0.0711322 0.070183 0.0632078 0.0659717 0.0639601 0.0666071 0.0691569 0.0534376
33 3 O -1.68777 63.5668 1.28189 -1.2 1 0.0151073 0.0315217 0.019452 0.0333781 0.0226453 0.0355894 0.0358236 0.0469371 0.0630468 0.0379125 0.0533933 0.0438506 0.0608301 0.0796979 0.0883087 0.0782045 0.0695236 0.0653877 0.0719719 0.0538102
34 3 O -0.943818 60.3143 0.129749 -1.2 1 0.01939 0.0289962 0.0224207 0.0175768 0.028783 0.0243039 0.0449554 0.0346848 0.0525883 0.0552124 0.0587265 0.0350367 0.0485826 0.0633477 0.0702178 0.0741476 0.0728321 0.0560807 0.0653752 0.0753329
35 1 Mg -2.59876 69.3749 3.08937 1.2 1 0.0249814 0.0296028 0.0185408 0.0392381 0.0164088 0.0303945 0.0185147 0.0588423 0.0329077 0.0751389 0.0292388 0.0497019 0.0299807 0.0679664 0.0288653 0.103662 0.0559151 0.0960362 0.0588336 0.0716699
36 3 O -0.846253 60.4117 2.72358 -1.2 1 0.019716 0.033617 0.0215373 0.0195863 0.0295609 0.0264818 0.0473883 0.0417494 0.050429 0.0546164 0.0541184 0.0403723 0.0655863 0.0681244 0.0729673 0.080812 0.0700947 0.0619771 0.0649744 0.0802743
37 1 Mg -2.44679 66.2605 4.28126 1.2 1 0.0253377 0.00759807 0.0181605 0.0269782 0.0169466 0.0290775 0.0231265 0.0315883 0.0456872 0.0512677 0.0565122 0.0548898 0.0657865 0.0611401 0.0688827 0.070019 0.0739438 0.0969723 0.0620214 0.0730475
38 2 Si 0.382933 68.3126 4.68145 2.4 1 0.0228511 0.0189313 0.0310671 0.0309843 0.0323412 0.0347329 0.0401059 0.0398902 0.0650234 0.0495995 0.0452746 0.0691391 0.0786405 0.055942 0.0739086 0.067928 0.0686316 0.0833378 0.0671437 0.0543241
39 3 O -1.15933 68.4274 4.46659 -1.2 1 0.0175308 0.0215859 0.016752 0.0192071 0.0226285 0.0281628 0.030163 0.0746218 0.0444488 0.0559559 0.0466273 0.0749746 0.0557921 0.0708068 0.0773872 0.0714084 0.060653 0.0812365 0.0447697 0.0802596
40 3 O 1.37469 64.4871 4.38136 -1.2 1 0.00688867 0.0205179 0.0282034 0.0241302 0.0180666 0.031988 0.0396432 0.0400583 0.0500529 0.0442479 0.0508574 0.0426909 0.0547276 0.073857 0.0938445 0.0752538 0.0775294 0.057743 0.0562699 0.0540665
41 3 O 0.887125 67.5755 3.35134 -1.2 1 0.0102622 0.0108732 0.0224407 0.0229904 0.0299076 0.022285 0.052144 0.0383581 0.039636 0.0468942 0.0540807 0.0439311 0.0575255 0.0713483 0.0790375 0.0742608 0.0722059 0.054071 0.0715942 0.0652061
42 3 O 1.051 67.7558 5.90858 -1.2 1 0.0336244 0.0294819 0.0241405 0.0156356 0.0263976 0.0234232 0.0533455 0.038414 0.053659 0.0413613 0.0597027 0.0552697 0.057853 0.0545189 0.0926773 0.0704168 0.0836768 0.0619587 0.0613798 0.0861906
43 1 Mg -0.141595 64.0661 2.94954 1.2 1 0.0319401 0.0149295 0.0116187 0.0324017 0.0135691 0.0265074 0.0142857 0.0532187 0.0205465 0.0788869 0.0301214 0.0502317 0.03446 0.0748342 0.0432121 0.0939197 0.0399948 0.107776 0.0466922 0.0740672
44 1 Mg 0.10582 60.8302 4.35997 1.2 1 0.0206828 0.0216451 0.0231595 0.0299036 0.0168839 0.0234535 0.0303072 0.0354978 0.041285 0.0589538 0.0525973 0.0648069 0.0676584 0.0634932 0.0673769 0.065682 0.0764692 0.096578 0.0527753 0.0745764
45 2 Si 2.17622 63.0162 4.47973 2.4 1 0.0132801 0.0137601 0.0148509 0.0302127 0.0339289 0.0289936 0.0468254 0.0365198 0.0492323 0.0657781 0.0532063 0.0606717 0.0795401 0.0559066 0.0763535 0.0585222 0.0685913 0.0853779 0.0630507 0.0658912
46 3 O -1.04526 63.0557 4.4137 -1.2 1 0.0172347 0.0249457 0.0160851 0.0204771 0.0192951 0.0271047 0.0280329 0.0720581 0.0295651 0.0663936 0.0417914 0.0721149 0.0468397 0.0706304 0.0795716 0.0663724 0.0555799 0.0770665 0.0531972 0.0802452
47 3 O 1.19027 59.3373 4.46274 -1.2 1 0.00980423 0.0195917 0.0246654 0.0227562 0.0208109 0.0384967 0.0366814 0.0485346 0.0464497 0.0485379 0.0410627 0.0552697 0.0466692 0.0778214 0.0986885 0.0556039 0.0781449 0.0670408 0.0592269 0.062456
48 3 O 1.36103 62.2702 3.36156 -1.2 1 0.0244415 0.0197289 0.023576 0.0210367 0.031938 0.0204376 0.0481316 0.0400352 0.0397068 0.0408975 0.0577231 0.0435218 0.0556852 0.073976 0.0783964 0.0719832 0.0958205 0.0603261 0.0694072 0.0597986
49 1 Mg -0.18384 63.67 -0.0310931 1.2 1 0.0224703 0.0190648 0.0224474 0.0324159 0.0151434 0.0424614 0.025063 0.0552874 0.0267239 0.0715325 0.0251744 0.0500872 0.0384246 0.0664264 0.0448631 0.104465 0.0500374 0.106268 0.0450294 0.0821214
50 3 O 1.63276 62.4327 5.86782 -1.2 1 0.021475 0.016019 0.0204926 0.024965 0.0278293 0.0344744 0.0489897 0.0427691 0.0395019 0.050602 0.0550132 0.0425449 0.0572446 0.0677915 0.0678885 0.0778222 0.0735106 0.0582802 0.0598733 0.0784225
51 1 Mg -0.211754 67.2084 1.73323 1.2 1 0.013143 0.0171809 0.0272007 0.0150003 0.0219643 0.0302006 0.0295242 0.0414882 0.0398287 0.0458293 0.0533696 0.0645395 0.0651365 0.0594078 0.0801817 0.0664047 0.0862747 0.0890222 0.0683054 0.06335
52 2 Si -2.31379 65.0386 1.36184 2.4 1 0.00861671 0.0187423 0.0188317 0.0192755 0.0359259 0.0246894 0.0433024 0.0400956 0.0463641 0.0610632 0.0550219 0.0515855 0.0709658 0.0668483 0.0770128 0.077316 0.0641491 0.0725115 0.0671236 0.0655995
53 3 O 0.939874 64.9001 1.35748 -1.2 1 0.0176673 0.019565 0.0148336 0.0258642 0.0293185 0.0276539 0.0234584 0.0712366 0.0380498 0.0554219 0.0385623 0.0606477 0.0602403 0.06317 0.0763541 0.0672429 0.0683165 0.0698941 0.0505327 0.0551443
54 3 O -1.29102 68.9096 1.68956 -1.2 1 0.00715854 0.027159 0.01841 0.0270676 0.0162964 0.0419203 0.0460161 0.0383747 0.0465572 0.0450313 0.0500582 0.047982 0.0550575 0.0649011 0.0972819 0.0795052 0.0802533 0.0597348 0.060996 0.0590219
55 3 O -1.60255 65.8341 0.181409 -1.2 1 0.0124929 0.0151127 0.0220139 0.0221936 0.0354545 0.0367958 0.0455737 0.0520627 0.0366864 0.049309 0.0535944 0.041955 0.0499924 0.0714153 0.0802205 0.0787199 0.0662542 0.0634399 0.0650842 0.0668165
56 3 O -1.55218 65.6579 2.62352 -1.2 1 0.014455 0.0167039 0.0251834 0.0223399 0.0289427 0.0218576 0.0531298 0.0387485 0.0334962 0.0421331 0.0521483 0.041388 0.0518 0.0758137 0.0696926 0.0738784 0.0748185 0.0660281 0.0672503 0.0634554
57 1 Mg -2.5311 69.1486 0.0835972 1.2 1 0.00954637 0.0198721 0.00899556 0.0314225 0.0203769 0.0475519 0.0165373 0.0594713 0.0188733 0.0743429 0.0260937 0.0594809 0.0326901 0.0677002 0.0301746 0.104019 0.0468897 0.101306 0.0343909 0.097683
58 1 Mg 2.08909 72.3008 1.45806 1.2 1 0.0177717 0.00683392 0.0111257 0.0335397 0.0196395 0.0355202 0.0368754 0.0449548 0.0412459 0.0606412 0.0625339 0.0620229 0.0548044 0.0694393 0.07289 0.0735421 0.0783421 0.085576 0.0811317 0.073913
59 2 Si -0.566179 70.2799 1.66124 2.4 1 0.0202876 0.0153207 0.0206089 0.0328094 0.0357579 0.0376719 0.0450246 0.0475068 0.0635027 0.0502672 0.0509585 0.0708851 0.0762312 0.0531523 0.0715579 0.0577803 0.0714161 0.0889207 0.0641252 0.0562004
60 3 O 0.997463 70.2865 1.54696 -1.2 1 0.0110914 0.0248634 0.0211559 0.0166927 0.0304797 0.0321283 0.0289976 0.0760785 0.0449704 0.0575791 0.0447549 0.0740812 0.0659759 0.0715478 0.0780859 0.0694835 0.0612958 0.0607631 0.0605576 0.0691109
61 3 O -1.40545 74.118 1.47497 -1.2 1 0.00870134 0.00956507 0.0244554 0.032372 0.0198355 0.0346507 0.0437303 0.0429479 0.0578146 0.0442637 0.0464413 0.0433165 0.0573873 0.077367 0.105308 0.0741687 0.0716289 0.0564715 0.063071 0.0515459
62 3 O -1.14459 70.8626 0.185076 -1.2 1 0.0108743 0.0163833 0.0290371 0.0241422 0.0273166 0.0173933 0.0479128 0.0460191 0.0393349 0.0444135 0.0479988 0.0513048 0.0633583 0.0652752 0.100996 0.0696429 0.0858742 0.0678914 0.0656267 0.0699174
63 1 Mg -2.5066 80.1718 2.92655 1.2 1 0.00632979 0.0237704 0.0222426 0.0297237 0.0189001 0.0302547 0.0226183 0.0512608 0.0325412 0.0666618 0.0274407 0.0486167 0.0303712 0.0661591 0.0427243 0.104585 0.0557563 0.0994863 0.0655192 0.0752849
64 3 O -1.29105 71.089 2.77788 -1.2 1 0.0150238 0.0144504 0.0274052 0.0301703 0.0232357 0.0216978 0.0527958 0.0404347 0.0343682 0.0456774 0.0544473 0.0433408 0.0601742 0.0522314 0.088446 0.0732121 0.0715668 0.0690986 0.0625827 0.0656333
65 1 Mg -2.13887 77.0098 4.2264 1.2 1 0.00884049 0.0122316 0.0185101 0.0317875 0.0166543 0.0320016 0.0308928 0.0391438 0.0362086 0.0572244 0.0700983 0.0512649 0.0635389 0.0689571 0.0748677 0.0786933 0.0634213 0.0843333 0.0739707 0.0662879
66 2 Si 0.37624 79.0921 4.45976 2.4 1 0.0152442 0.0177962 0.0289904 0.0303235 0.036511 0.029544 0.042935 0.0442909 0.0560055 0.0538277 0.0583479 0.0642503 0.0638361 0.0678032 0.081627 0.0680796 0.0655739 0.0886404 0.0507992 0.0598755
67 3 O -1.17829 79.1538 4.4663 -1.2 1 0.0264597 0.0186176 0.0229996 0.022078 0.0171753 0.032364 0.0285047 0.0538672 0.0419153 0.055447 0.0424413 0.0732314 0.0458705 0.0740367 0.0706869 0.0705916 0.0590461 0.0789007 0.0604413 0.0797428
68 3 O 1.38753 75.2039 4.29019 -1.2 1 0.0165129 0.0196011 0.0234425 0.0214542 0.027083 0.0370718 0.0399925 0.046859 0.046887 0.0403505 0.0538781 0.0478953 0.0488102 0.0679544 0.100833 0.0724492 0.0732978 0.050595 0.0724059 0.0654199
69 3 O 1.00387 78.3204 3.26188 -1.2 1 0.0195528 0.0166328 0.0235802 0.0184301 0.0266181 0.0192959 0.0468679 0.0436806 0.0373805 0.0400479 0.0553368 0.0459958 0.0548837 0.0596926 0.0931352 0.0728005 0.0812885 0.0529865 0.070702 0.0631636
70 3 O 0.979396 78.5329 5.78703 -1.2 1 0.0197011 0.0146984 0.0249493 0.026302 0.0314538 0.0229202 0.0432566 0.0481919 0.0467428 0.045726 0.0502235 0.048474 0.0553156 0.0676734 0.0865915 0.0812899 0.0852719 0.0653518 0.0665178 0.0600526
71 1 Mg 0.16772 74.4386 2.67063 1.2 1 0.0213994 0.0146176 0.0125297 0.037572 0.0184877 0.0298057 0.0250854 0.0513541 0.0318805 0.0720742 0.040867 0.0462277 0.0415889 0.0670068 0.0485427 0.0846382 0.0738749 0.101015 0.0672233 0.074212
72 1 Mg 0.0318715 71.6695 4.66329 1.2 1 0.0370684 0.0124758 0.0157082 0.0311287 0.0197842 0.0302784 0.0223908 0.0361171 0.0489048 0.0488663 0.0620478 0.0576399 0.0516427 0.0640554 0.0713003 0.0672292 0.0706428 0.0945887 0.0714096 0.0752926
73 2 Si 2.17047 73.785 4.40133 2.4 1 0.0160367 0.0140731 0.0209436 0.0368039 0.0369471 0.0296595 0.0447177 0.0399181 0.0593067 0.0595207 0.0517257 0.064129 0.0655548 0.0618838 0.0930345 0.0644779 0.0591288 0.0861291 0.0589894 0.0642494
74 3 O -1.0453 73.9401 4.32727 -1.2 1 0.014871 0.00863725 0.0238586 0.0229487 0.0230291 0.030434 0.0276904 0.0618245 0.0400113 0.0544576 0.0426238 0.0687014 0.0494485 0.0685155 0.0660315 0.0734384 0.0619894 0.0786669 0.039062 0.0772966
75 3 O 0.885841 69.8199 4.62506 -1.2 1 0.0127863 0.0197394 0.0213295 0.0265785 0.0226833 0.0331673 0.0350711 0.0412907 0.0529245 0.0474025 0.0543834 0.0439426 0.0569702 0.0702674 0.0900608 0.0829271 0.0698534 0.0598691 0.0722558 0.0602922
76 3 O 1.41026 72.8871 3.1881 -1.2 1 0.0116205 0.0224646 0.0277212 0.018 0.0339302 0.0247162 0.043526 0.043037 0.0332309 0.0437716 0.0609979 0.0415621 0.0606027 0.0719181 0.0684034 0.0793651 0.0742776 0.0645435 0.0603678 0.0604591
77 1 Mg -0.000891437 74.6252 -0.277729 1.2 1 0.0102053 0.0161815 0.0117563 0.029146 0.0102023 0.0397615 0.0279377 0.0537254 0.0308814 0.0747218 0.0324136 0.0486425 0.0291085 0.0631694 0.0437348 0.101362 0.0478457 0.101294 0.0591104 0.0794172
78 3 O 1.49942 73.0117 5.72214 -1.2 1 0.012948 0.0168155 0.0245187 0.0296195 0.035849 0.0226984 0.0512526 0.0401921 0.0414832 0.0503407 0.0580062 0.0442517 0.0461911 0.0700513 0.0808822 0.0703734 0.0697043 0.0532269 0.0697762 0.0696235
79 1 Mg -0.0565056 77.7396 1.6391 1.2 1 0.01533 0.0224565 0.0223163 0.0214606 0.0220069 0.0308502 0.030257 0.038654 0.0436908 0.0564773 0.051614 0.0606782 0.0611743 0.0662278 0.0714098 0.0516675 0.0788392 0.091637 0.0779696 0.0657773
80 2 Si -2.04665 75.5982 1.3196 2.4 1 0.0163438 0.0114527 0.0303293 0.0283137 0.0382405 0.0347731 0.0378198 0.04398 0.0541653 0.05464 0.0548105 0.0622314 0.0764368 0.0582153 0.0731471 0.0682144 0.0716355 0.0989173 0.0582103 0.0516146
81 3 O 1.14056 75.4623 1.30173 -1.2 1 0.026784 0.0141555 0.0224629 0.018109 0.0377739 0.0288166 0.0255135 0.0708714 0.0455072 0.0573419 0.0495031 0.073419 0.0561396 0.0653168 0.0812982 0.0661647 0.0583427 0.071018 0.0604534 0.0656708
82 3 O -1.22421 79.3927 1.25705 -1.2 1 0.0143371 0.0239753 0.0144412 0.0268311 0.0202074 0.0422467 0.0438162 0.0394303 0.048208 0.0390968 0.0456699 0.0536411 0.0542122 0.0701636 0.0910324 0.0701838 0.0761729 0.0585967 0.063861 0.0538105
83 3 O -1.44449 76.0001 -0.113882 -1.2 1 0.0115896 0.019499 0.025721 0.0212115 0.0302831 0.0310476 0.0466234 0.0415344 0.0507382 0.0454299 0.0491986 0.0451982 0.062227 0.0608766 0.0923288 0.0723378 0.0767633 0.0713552 0.0655244 0.0751943
84 3 O -1.41604 76.4714 2.48416 -1.2 1 0.0238454 0.0150016 0.0285973 0.0274293 0.0339851 0.0264804 0.0414382 0.0420743 0.0445344 0.0471222 0.0648524 0.0451472 0.0648352 0.056315 0.0865483 0.0787159 0.0794805 0.0748176 0.0583429 0.0605105
85 1 Mg -2.67873 79.517 -0.0498164 1.2 1 0.00509147 0.0119676 0.0188103 0.0279108 0.025118 0.0315408 0.0224616 0.0542495 0.0452887 0.0686085 0.0452508 0.0428566 0.0429637 0.0656911 0.0487068 0.0841978 0.073601 0.0884915 0.0575046 0.0732043
86 1 Mg 1.9621 82.8594 1.47088 1.2 1 0.00765352 0.0259105 0.0234652 0.0322764 0.019971 0.0383246 0.0258676 0.0376329 0.0378072 0.0562139 0.0643266 0.0611682 0.0546988 0.0636719 0.0714277 0.0719037 0.0726168 0.0717837 0.086836 0.0656092
87 2 Si -0.474669 80.8029 1.28742 2.4 1 0.0181494 0.0119516 0.0283153 0.0332458 0.0365864 0.026749 0.0420937 0.0417289 0.0568338 0.0514066 0.0553419 0.0708235 0.0651198 0.0657792 0.0725077 0.0703497 0.0686008 0.100153 0.0663429 0.0574957
88 3 O 1.04272 80.6489 1.5205 -1.2 1 0.0249214 0.0166772 0.0137892 0.0265006 0.0254598 0.0327029 0.0297347 0.0632662 0.04489 0.0433995 0.0493469 0.0756308 0.0426307 0.0675665 0.0708706 0.0702357 0.0650035 0.0673748 0.0467244 0.0883836
89 3 O -1.51482 84.744 1.39916 -1.2 1 0.0172121 0.0216968 0.0191226 0.0377455 0.0256385 0.0347684 0.0371977 0.042287 0.0629329 0.0377539 0.0528863 0.0418748 0.0539092 0.0729264 0.0981548 0.0700726 0.0762246 0.0535386 0.0657291 0.0615806
90 3 O -0.974891 81.4658 0.0151281 -1.2 1 0.0156362 0.0266849 0.027427 0.0243441 0.0232275 0.0234249 0.0481187 0.047145 0.0405074 0.0513191 0.0588206 0.0461987 0.0530243 0.0680877 0.0779277 0.0821296 0.0804765 0.0690807 0.0725198 0.0701847
91 1 Mg -2.25336 90.6169 3.26865 1.2 1 0.0112269 0.0203517 0.0120444 0.034674 0.0173037 0.0445071 0.0176232 0.0547462 0.0208468 0.0815335 0.0360626 0.0525499 0.0346347 0.0737669 0.0445744 0.0965008 0.0640371 0.0929213 0.0600078 0.0814076
92 3 O -0.922885 81.4509 2.6921 -1.2 1 0.0156442 0.019884 0.0271657 0.0172822 0.0346974 0.0229224 0.0490611 0.0428423 0.0484764 0.0461813 0.0432372 0.0522413 0.0560965 0.076076 0.0678168 0.0747204 0.0760406 0.0611707 0.0693365 0.0709784
93 1 Mg -2.30669 87.6968 4.33054 1.2 1 0.0248829 0.0128053 0.019226 0.0369759 0.0200436 0.0310939 0.0254677 0.0344529 0.049049 0.0604477 0.0550402 0.0470805 0.0683277 0.0601757 0.0677511 0.082612 0.0699098 0.0844353 0.0736757 0.0716048
94 2 Si 0.321099 89.5723 4.74017 2.4 1 0.00991715 0.0126595 0.0190242 0.03278 0.0267575 0.0350551 0.04461 0.0463934 0.0530631 0.0551953 0.057242 0.0602476 0.0744246 0.0601432 0.0807491 0.0598106 0.0614924 0.0888743 0.0662005 0.0563077
95 3 O -1.2465 89.6527 4.6173 -1.2 1 0.0241613 0.0235828 0.0189699 0.017463 0.0203055 0.0349186 0.0245549 0.0695421 0.0396077 0.060227 0.0421545 0.0731965 0.0468994 0.0796462 0.073221 0.0687835 0.0589608 0.080141 0.0486103 0.068943
96 3 O 1.34166 85.8066 4.34939 -1.2 1 0.0205851 0.0141362 0.0272981 0.0193991 0.0245762 0.0310667 0.0425984 0.0447221 0.0432734 0.046306 0.0484154 0.0572164 0.0487605 0.0716923 0.0969745 0.0836564 0.0704687 0.0616216 0.0625814 0.0655706
97 3 O 0.990088 88.9702 3.35876 -1.2 1 0.0160531 0.0105682 0.0229793 0.0267765 0.0282488 0.0203202 0.0466405 0.0415924 0.0423082 0.0452171 0.0549424 0.0525683 0.0532241 0.063615 0.0943092 0.0623265 0.086428 0.0605928 0.0731741 0.0576076
98 3 O 0.971484 88.7193 5.85942 -1.2 1 0.0198243 0.00785472 0.0319079 0.0228081 0.0223808 0.0245524 0.0505036 0.0554447 0.0340574 0.046858 0.0582144 0.0342722 0.0602453 0.0695386 0.0813724 0.0757154 0.0675007 0.0737761 0.0602785 0.0652375
99 1 Mg -0.0733748 85.1147 2.75131 1.2 1 0.0129957 0.0104411 0.018665 0.0360881 0.0191681 0.0326334 0.0310294 0.0518549 0.0310444 0.0724673 0.0318976 0.0469959 0.0339893 0.0752506 0.0522506 0.0981671 0.0535314 0.0925635 0.064677 0.0737729
100 1 Mg -0.072704 82.1739 4.45789 1.2 1 0.019764 0.00972199 0.0188133 0.0269228 0.0191516 0.0292924 0.0343542 0.0382801 0.0452677 0.0480821 0.0680445 0.061198 0.0672555 0.0515439 0.0725088 0.0635097 0.0748365 0.089005 0.06209 0.0820455
101 2 Si 2.02005 84.3542 4.45155 2.4 1 0.00614385 0.00736768 0.0239923 0.0364489 0.0306399 0.0357135 0.0399831 0.0406544 0.0526317 0.0580555 0.0539119 0.063518 0.0725433 0.0605604 0.0840143 0.0653026 0.0657366 0.0892839 0.0541316 0.0641646
102 3 O -1.14385 84.4977 4.46885 -1.2 1 0.012206 0.0256993 0.0216584 0.020346 0.0245354 0.0282717 0.0376126 0.0690778 0.0431526 0.0521842 0.046869 0.0732159 0.0469129 0.0784878 0.071757 0.0794126 0.0609876 0.076362 0.0448175 0.0814972
103 3 O 1.06142 80.5661 4.42382 -1.2 1 0.0100428 0.0212335 0.0219422 0.0156136 0.0256522 0.0377438 0.0402214 0.0455984 0.0451635 0.0456726 0.0435034 0.0589409 0.0461764 0.0718362 0.0981919 0.0726235 0.079509 0.0501208 0.0541745 0.0645862
104 3 O 1.36399 83.383 3.23951 -1.2 1 0.0228104 0.0147386 0.0248573 0.0205413 0.0309243 0.0277101 0.0433582 0.0422353 0.0335258 0.0495853 0.0615389 0.038928 0.064241 0.073129 0.0748376 0.0877961 0.0694775 0.0652869 0.0642821 0.055777
105 1 Mg -0.193988 85.142 -0.0883984 1.2 1 0.00704707 0.0197097 0.0150963 0.0339467 0.011438 0.0376051 0.0157828 0.0652301 0.0215842 0.0755227 0.0206302 0.0564879 0.0252447 0.0698326 0.024948 0.101082 0.038817 0.112457 0.0388255 0.0781846
106 3 O 1.33482 83.6328 5.7197 -1.2 1 0.024344 0.0141185 0.0229121 0.0268617 0.0290607 0.0276651 0.0454822 0.0399913 0.0389455 0.0416388 0.0554761 0.0523132 0.0587997 0.0669315 0.0964474 0.0614353 0.0799458 0.0565463 0.071685 0.0643736
107 1 Mg -0.0792123 88.3606 1.82426 1.2 1 0.0154997 0.0131867 0.0218703 0.0195182 0.0275896 0.0334823 0.0226369 0.0381998 0.0475917 0.0479839 0.0503906 0.0616696 0.05471 0.0725444 0.0822564 0.061814 0.0841586 0.0763301 0.0731285 0.0591698
108 2 Si -2.10505 86.4743 1.44745 2.4 1 0.0092822 0.0105137 0.0282653 0.0331985 0.0373332 0.0373945 0.0391584 0.040921 0.0566838 0.0389927 0.0532364 0.0698993 0.0745226 0.0589259 0.0651064 0.0844873 0.0550596 0.0861553 0.0630115 0.0566013
109 3 O 1.10669 86.1475 1.38443 -1.2 1 0.0248282 0.0178164 0.0192875 0.0164902 0.024651 0.0251901 0.02963 0.0689152 0.0416595 0.0570985 0.0417227 0.0727798 0.06357 0.0666463 0.0826562 0.0659394 0.0692059 0.0657918 0.0567686 0.0577919
110 3 O -1.10354 90.2808 1.70464 -1.2 1 0.0134643 0.0167057 0.0114641 0.0209228 0.0178101 0.0392369 0.0478246 0.0396762 0.0481389 0.0361259 0.056032 0.0450866 0.0554709 0.082179 0.0956163 0.0706785 0.0750125 0.0550919 0.0702808 0.054149
111 3 O -1.32315 86.9669 0.168853 -1.2 1 0.0214381 0.0146403 0.0296621 0.0178251 0.033211 0.0155283 0.0501403 0.0430269 0.0398939 0.0465536 0.0531588 0.0382411 0.0677785 0.0663457 0.092532 0.0764765 0.0787136 0.0697482 0.0573096 0.0626578
112 3 O -1.42111 87.1116 2.72728 -1.2 1 0.0136413 0.0147166 0.0285737 0.02337 0.0294526 0.0251601 0.0451126 0.0446533 0.0369342 0.0428366 0.0600523 0.0446516 0.0594533 0.0558409 0.0767788 0.0912868 0.0668926 0.064884 0.0596672 0.0585041
113 1 Mg -2.38225 90.5804 0.131699 1.2 1 0.0129773 0.0251109 0.0102829 0.0296471 0.0101543 0.0339732 0.0190532 0.0613255 0.014183 0.0869701 0.0242755 0.057758 0.0280898 0.0762001 0.0285333 0.0986342 0.0384812 0.103495 0.0405722 0.0882652
114 1 Mg 2.44001 93.4178 1.49339 1.2 1 0.0209465 0.0203568 0.02106 0.0321148 0.0188912 0.0277891 0.0304144 0.0320215 0.0472699 0.0552129 0.0513492 0.0591194 0.0612073 0.0700061 0.071616 0.078206 0.0752383 0.0956791 0.0696958 0.0805696
115 2 Si -0.242689 91.7962 1.5603 2.4 1 0.0313112 0.0126645 0.0169771 0.0218523 0.0273995 0.0331372 0.0361507 0.0463371 0.0484223 0.0611133 0.0578654 0.0748507 0.0632391 0.0629904 0.0627178 0.0779348 0.0754824 0.083099 0.0627754 0.0653688
116 3 O 1.25952 91.6558 1.56747 -1.2 1 0.0312571 0.0168653 0.0140042 0.0204215 0.0324144 0.0316502 0.0248363 0.0759991 0.0379813 0.0676453 0.0460955 0.0653597 0.0653599 0.074725 0.0711252 0.0635679 0.0643892 0.0638063 0.0720239 0.0702039
117 3 O -1.56754 95.3987 1.50607 -1.2 1 0.00199 0.016927 0.0237794 0.0306003 0.0252631 0.0323115 0.0383003 0.0479284 0.0635439 0.0353412 0.0429413 0.0516751 0.0651306 0.077879 0.0972091 0.0747136 0.0738152 0.0576384 0.0727415 0.0601869
118 3 O -1.03534 92.4246 0.283376 -1.2 1 0.0232031 0.0262899 0.028797 0.0207989 0.0260936 0.0239804 0.0440641 0.0379243 0.0366076 0.0515145 0.0615081 0.0356146 0.0614713 0.0639161 0.074531 0.0846105 0.0816039 0.0747807 0.0649839 0.0590294
119 1 Mg -2.43994 101.163 2.96571 1.2 1 0.0125363 0.0109833 0.0116496 0.0343827 0.0118713 0.0416257 0.0236891 0.058981 0.0186448 0.0754081 0.0229531 0.0496242 0.0282743 0.0743839 0.0307578 0.103758 0.0361384 0.113995 0.0405146 0.0841504
120 3 O -0.693707 92.5673 2.81851 -1.2 1 0.0204794 0.0219803 0.0241261 0.0151642 0.0247557 0.0474775 0.0432746 0.0518472 0.04405 0.0565883 0.0492626 0.0453641 0.0605523 0.0682271 0.0789832 0.0752088 0.0719345 0.0629999 0.0755173 0.0772885
121 1 Mg -2.58598 98.0262 4.53059 1.2 1 0.0142127 0.0120023 0.0218859 0.027383 0.0216252 0.0259222 0.0271522 0.0340267 0.0470647 0.0566683 0.0536124 0.0679093 0.0630472 0.0685358 0.0655599 0.0551189 0.0789825 0.0985542 0.0609089 0.0753939
122 2 Si 0.127418 100.032 4.43274 2.4 1 0.0215507 0.0106209 0.0217692 0.0226433 0.0374889 0.0286417 0.0386959 0.0429246 0.0452441 0.0587394 0.0557316 0.0710018 0.0764062 0.0507849 0.0755194 0.0642049 0.0679571 0.0794683 0.0632574 0.0540599
123 3 O -1.41993 100.219 4.32836 -1.2 1 0.027018 0.0301511 0.0122157 0.0224219 0.0241212 0.0286654 0.0282338 0.0714592 0.0345938 0.0600834 0.0374242 0.0630897 0.0463705 0.062354 0.0708459 0.0642637 0.0573656 0.0648899 0.0631353 0.0701635
124 3 O 1.41082 96.2888 4.52889 -1.2 1 0.013442 0.017115 0.0214718 0.0250307 0.0273542 0.0322865 0.039381 0.0485594 0.0499817 0.0405965 0.0577591 0.0494137 0.0536889 0.072343 0.0991513 0.082655 0.0642881 0.0601983 0.0735971 0.0544085
125 3 O 0.700352 99.3214 3.16863 -1.2 1 0.0219938 0.0257166 0.0208167 0.0217423 0.026575 0.0353998 0.0488408 0.0511353 0.0320306 0.0525322 0.0569427 0.0462431 0.0534688 0.0829834 0.0631499 0.0777316 0.0770132 0.0543768 0.0707359 0.0736454