ITEM: TIMESTEP
85900
ITEM: NUMBER OF ATOMS
5600
ITEM: BOX BOUNDS xy xz yz pp pp pp
0	7.1235	0
0	201.985	2.3745
0	119.584	0
ITEM: ATOMS id type element xu yu zu q Q_1 Q_2 Q_3 Q_4 Q_5 Q_6 Q_7 Q_8 Q_9 Q_10 Q_11 Q_12 Q_13 Q_14 Q_15 Q_16 Q_17 Q_18 Q_19 Q_20 Q_21
1 1 Mg -1.73426 47.7525 -1.5264 1.2 1 0.41977 0.0808653 0.107104 0.0661249 0.0632718 0.0624487 0.0461443 0.0770824 0.095535 0.0728619 0.0922275 0.0943477 0.0853295 0.103215 0.106075 0.105448 0.10576 0.106948 0.106895 0.0845265
2 1 Mg 3.06005 49.5664 1.82951 1.2 1 0.263784 0.121927 0.0150575 0.0558475 0.0394964 0.0407816 0.080707 0.0618594 0.068252 0.0799344 0.0578374 0.0725963 0.0688752 0.0702143 0.0955452 0.0772626 0.0889263 0.0670885 0.0797113 0.0809008
3 2 Si 0.961331 49.1217 -0.270469 2.4 1 0.293327 0.122447 0.0401393 0.0631983 0.0584745 0.0433796 0.0652663 0.0472515 0.0763709 0.0735678 0.0663798 0.0636522 0.0687418 0.0804245 0.0891457 0.0811971 0.0866272 0.080737 0.0818722 0.080501
4 3 O 2.46122 48.7303 0.00982778 -1.2 1 0.338954 0.115609 0.0733509 0.0560209 0.0433905 0.0581425 0.0696852 0.0720376 0.051405 0.076796 0.0616784 0.0968323 0.0827607 0.100712 0.0812635 0.0634568 0.0769293 0.0856161 0.0802378 0.0824248
5 3 O -1.46858 51.7622 1.35083 -1.2 1 0.112817 0.0730703 0.0477588 0.0304115 0.0314576 0.0317438 0.047094 0.0497854 0.0654598 0.0599993 0.0452551 0.0626487 0.0554347 0.0737734 0.0821064 0.0963217 0.0828458 0.0592636 0.0495338 0.0794749
6 3 O 0.334869 48.1871 -1.23155 -1.2 1 0.401728 0.0730367 0.07351 0.0669561 0.029839 0.0531394 0.0488596 0.0619133 0.0900793 0.0694595 0.0809599 0.0756669 0.0932148 0.0858989 0.0836659 0.0805486 0.0877406 0.100528 0.0656468 0.0829259
7 1 Mg -2.29085 58.2258 2.83976 1.2 1 0.00798207 0.013583 0.0206865 0.0222176 0.0298233 0.0379865 0.029399 0.0590088 0.0445833 0.0632361 0.0447898 0.0397934 0.0379095 0.0765182 0.0655478 0.0894881 0.0619036 0.0877293 0.0689006 0.0836874
8 3 O 0.184787 49.2043 1.16408 -1.2 1 0.289985 0.137985 0.04542 0.0558226 0.0527833 0.041775 0.0632333 0.0690783 0.0797439 0.0861376 0.0693917 0.0728627 0.0574979 0.0686922 0.0791623 0.099203 0.0701549 0.0733709 0.0869454 0.0818662
9 1 Mg -2.31968 54.7615 4.01904 1.2 1 0.0127396 0.0164519 0.0251246 0.028205 0.0170071 0.0405391 0.0337635 0.0388332 0.0539866 0.035232 0.0651676 0.0638334 0.0527142 0.0680991 0.0686984 0.0811308 0.0750399 0.0791544 0.0654522 0.0693313
10 2 Si 0.263133 56.6606 4.38217 2.4 1 0.0192124 0.0218992 0.014183 0.0311156 0.0378772 0.0314205 0.0379149 0.0546526 0.0570463 0.0599265 0.0745654 0.0679485 0.0692284 0.0583765 0.0654845 0.0633568 0.069955 0.0760222 0.079443 0.0792612
11 3 O -1.29866 56.7846 4.45962 -1.2 1 0.0201295 0.0232976 0.015658 0.0190195 0.0214468 0.0323106 0.0309517 0.0716592 0.0466686 0.0798393 0.0307264 0.0691011 0.0771674 0.0690264 0.0780642 0.0681764 0.0735253 0.0686908 0.0633078 0.068915
12 3 O 1.57555 52.7778 4.14822 -1.2 1 0.0476556 0.0372159 0.0408813 0.0165236 0.0297793 0.0382642 0.0342433 0.0458112 0.0697896 0.0561772 0.0589833 0.0589438 0.070029 0.0692096 0.0726522 0.0762115 0.0706234 0.0754906 0.0673812 0.0606492
13 3 O 0.957711 55.7936 3.18596 -1.2 1 0.0193458 0.0323119 0.0225697 0.0239359 0.0326581 0.0346767 0.0416938 0.0428864 0.0542854 0.0535981 0.0652954 0.0454013 0.0685028 0.0638679 0.0796409 0.0822698 0.0637894 0.0759587 0.0538678 0.069523
14 3 O 0.914928 56.1919 5.68676 -1.2 1 0.0162486 0.0153457 0.012107 0.0205288 0.0315011 0.0292959 0.0582317 0.0495902 0.0505906 0.0531714 0.0602623 0.0478704 0.0493758 0.0663431 0.0827548 0.08288 0.0703632 0.0837409 0.0659373 0.0812781
15 1 Mg 0.229106 51.5142 2.39044 1.2 1 0.12161 0.0911602 0.0374274 0.0262137 0.0358794 0.0361552 0.0492244 0.0463771 0.0577671 0.0465399 0.0659435 0.0521428 0.0515683 0.0740367 0.0761324 0.0787357 0.078691 0.0843439 0.0775906 0.0741295
16 1 Mg 0.981777 48.2995 2.83777 1.2 1 0.374634 0.0984692 0.0743331 0.0637412 0.0262292 0.0704477 0.0603847 0.0804751 0.0604712 0.0636035 0.0537657 0.0753105 0.0620108 0.0796241 0.0914812 0.0832472 0.10286 0.0663243 0.0903141 0.0837951
17 2 Si 2.37107 51.263 4.4084 2.4 1 0.0879365 0.104948 0.0521644 0.0411625 0.0264283 0.0392109 0.0554132 0.0451402 0.0673242 0.0714684 0.0778195 0.0689398 0.0772164 0.0687453 0.0788107 0.0696951 0.091881 0.0796295 0.0740572 0.0771369
18 3 O -0.803324 51.4138 4.18218 -1.2 1 0.104337 0.0994129 0.039211 0.0234714 0.020646 0.0396624 0.0556553 0.073765 0.0569835 0.0788468 0.0406314 0.0832725 0.067415 0.0813271 0.0776196 0.0666045 0.0883148 0.0782003 0.0802035 0.0488454
19 3 O 2.62655 47.6114 2.92713 -1.2 1 0.442786 0.061559 0.118872 0.0455064 0.0630798 0.0567591 0.0721555 0.0697696 0.0634115 0.0594956 0.0649572 0.0623344 0.0886149 0.0749497 0.0809209 0.102788 0.0856372 0.0881628 0.0950705 0.0906008
20 3 O 1.84796 50.2504 3.26635 -1.2 1 0.191064 0.120999 0.0229652 0.0326612 0.0409612 0.0506618 0.0557636 0.0706658 0.0662734 0.0718263 0.0924736 0.0676454 0.073103 0.0799957 0.0741742 0.0834906 0.0825632 0.0866464 0.0934665 0.0703338
21 1 Mg -0.248978 52.4473 -0.403821 1.2 1 0.0696289 0.0643143 0.0427162 0.030328 0.0330888 0.0241321 0.0306898 0.0676035 0.0517749 0.0536293 0.0567884 0.0512342 0.0605074 0.0636389 0.062312 0.0937443 0.0687466 0.0932205 0.0604791 0.0895175
22 3 O 1.55473 50.5255 5.68411 -1.2 1 0.158816 0.100455 0.0311856 0.0288924 0.0222528 0.0382849 0.0518082 0.0598665 0.0583027 0.0640068 0.0754845 0.0613444 0.0593506 0.0792103 0.0903936 0.0667269 0.0608388 0.0746731 0.0746373 0.0694716
23 1 Mg -0.204276 55.3288 1.35644 1.2 1 0.00964884 0.0140098 0.0274601 0.0305456 0.0136882 0.0384188 0.0380279 0.0372251 0.0458373 0.0540437 0.068542 0.0583184 0.0612221 0.0651384 0.0620847 0.0806777 0.0689828 0.08125 0.0643831 0.0724106
24 2 Si -2.04825 53.2561 1.37717 2.4 1 0.0215028 0.0302387 0.0476934 0.0280337 0.0238405 0.0387726 0.0479873 0.0538316 0.0609787 0.0578371 0.0446682 0.0532967 0.0797284 0.0578005 0.0711104 0.0646238 0.0725177 0.0719632 0.079022 0.0705296
25 3 O 1.13717 52.9653 1.16604 -1.2 1 0.0400167 0.0540744 0.0345161 0.0181463 0.0232247 0.0356745 0.0404065 0.0598939 0.0728368 0.0465372 0.0551327 0.0535483 0.0674212 0.0742254 0.0695487 0.0643678 0.0842911 0.0693853 0.0547952 0.0724706
26 3 O -1.11558 57.3305 1.3103 -1.2 1 0.0184476 0.0235787 0.0190947 0.0244714 0.022693 0.0306614 0.0482867 0.0463319 0.0381947 0.0512812 0.0536681 0.051639 0.0555262 0.0888874 0.0827963 0.0715393 0.0808042 0.0584601 0.0752406 0.0574632
27 3 O -1.67185 53.9997 -0.0644909 -1.2 1 0.0149377 0.0359268 0.027107 0.0382246 0.0201328 0.0377605 0.0579173 0.0572066 0.0380133 0.0555338 0.0708375 0.0399116 0.0534874 0.081343 0.0714719 0.0816047 0.0792814 0.0680639 0.0724587 0.0578708
28 3 O -1.31704 54.191 2.34683 -1.2 1 0.0174404 0.0232228 0.0371186 0.0292152 0.0211466 0.0305406 0.0501482 0.0495286 0.046879 0.0526771 0.0701654 0.0430225 0.0621416 0.0705631 0.0791101 0.0782484 0.0624237 0.0792612 0.0719695 0.0593062
29 1 Mg -2.53127 57.6823 -0.123034 1.2 1 0.00615395 0.0297315 0.0140511 0.0273504 0.0233953 0.0356715 0.024267 0.0684594 0.0371397 0.0680081 0.0304371 0.0545582 0.0400632 0.0798013 0.0429498 0.095407 0.0495019 0.0944125 0.0614867 0.085549
30 1 Mg 2.2612 60.8988 1.17178 1.2 1 0.024129 0.0229347 0.0238491 0.0305747 0.0170321 0.0352408 0.0433133 0.0260794 0.0527323 0.0557139 0.0788307 0.056944 0.0636309 0.0690942 0.0702815 0.075631 0.0801036 0.0830382 0.0676757 0.0750934
31 2 Si -0.474558 58.9806 1.18384 2.4 1 0.00606747 0.0267227 0.0203405 0.0365267 0.0406594 0.0321504 0.0437169 0.0487219 0.0581083 0.0609146 0.046356 0.0713298 0.0777158 0.0545009 0.0702505 0.0701861 0.0624412 0.0785726 0.0706032 0.0583429
32 3 O 1.14506 58.9165 1.29069 -1.2 1 0.0193276 0.0234967 0.0176491 0.0213297 0.0205343 0.0299322 0.0315723 0.0722584 0.0434056 0.0750313 0.0430321 0.0670456 0.0549629 0.0819042 0.0734928 0.0691601 0.0661436 0.0625916 0.0532258 0.071465
33 3 O -1.73711 63.1432 1.45582 -1.2 1 0.0217426 0.0247585 0.017034 0.0315338 0.0215563 0.0315699 0.0358669 0.0391627 0.0697035 0.0429275 0.0522403 0.0425546 0.0625136 0.0803085 0.0830814 0.0742124 0.0692802 0.0655958 0.0767131 0.0605065
34 3 O -1.0384 59.8615 0.0230749 -1.2 1 0.0151567 0.0159614 0.0245459 0.0297138 0.0246455 0.0254122 0.0448976 0.0449196 0.0387216 0.0534412 0.0644217 0.0443519 0.0560163 0.0640255 0.0908815 0.0796429 0.072719 0.0669243 0.0726845 0.0739644
35 1 Mg -2.48563 69.1486 3.08563 1.2 1 0.0153804 0.0113573 0.0138671 0.0339416 0.0154226 0.029699 0.0204084 0.0513524 0.0329146 0.0778284 0.0276477 0.0434523 0.0215801 0.0679218 0.0433111 0.0955769 0.0556406 0.0959552 0.0619865 0.0801104
36 3 O -1.02342 59.6494 2.52095 -1.2 1 0.035871 0.0163645 0.0307032 0.0211543 0.0279195 0.0422094 0.0566528 0.0451503 0.0591534 0.0585069 0.0595603 0.0551829 0.0549647 0.0800467 0.0775926 0.0727625 0.0796416 0.0598985 0.0619486 0.0704085
37 1 Mg -2.57785 65.5094 4.54368 1.2 1 0.0185002 0.0229515 0.0225614 0.0289831 0.02654 0.0346746 0.0218552 0.0420402 0.0443743 0.0516839 0.05429 0.0669242 0.0600226 0.0458579 0.0725673 0.0609538 0.0890351 0.086101 0.0600905 0.0661795
38 2 Si 0.242133 68.01 4.48105 2.4 1 0.00745709 0.0178667 0.0234083 0.0338265 0.0377723 0.0317162 0.0372575 0.0486664 0.0613519 0.0547707 0.0575474 0.0659227 0.0734648 0.0580603 0.0850832 0.0654121 0.0648802 0.0880936 0.0678013 0.0532151
39 3 O -1.32281 68.2297 4.4005 -1.2 1 0.0293465 0.0184316 0.0212881 0.024794 0.0270034 0.0338646 0.0376209 0.0726835 0.0454311 0.0494456 0.0471261 0.0760853 0.0529663 0.0641931 0.0765601 0.0714198 0.0614103 0.0783727 0.0516349 0.0804753
40 3 O 1.36365 63.7396 4.42419 -1.2 1 0.0224967 0.0244885 0.0186218 0.0385003 0.0215049 0.030034 0.0402676 0.0459645 0.0603976 0.0355606 0.0578049 0.04673 0.0660002 0.0792524 0.100139 0.0634215 0.0636839 0.0646003 0.075117 0.0607683
41 3 O 0.795133 67.1713 3.37986 -1.2 1 0.0312806 0.0171389 0.022803 0.0289798 0.0229911 0.0292017 0.049184 0.0512747 0.0318646 0.0515551 0.0575438 0.0501936 0.055512 0.0683544 0.0768008 0.0866793 0.0794618 0.0628898 0.0621668 0.0745311
42 3 O 0.953287 67.2813 5.78167 -1.2 1 0.0186279 0.0147684 0.0379228 0.0263815 0.0305942 0.0294249 0.0453481 0.0455881 0.0394946 0.0436932 0.0578474 0.0416181 0.0538092 0.0508271 0.0872192 0.0714279 0.0742475 0.0645162 0.059316 0.0678842
43 1 Mg 0.212992 63.0903 2.64407 1.2 1 0.0192694 0.02664 0.0222632 0.0303845 0.026853 0.0384374 0.0305332 0.0528826 0.0522483 0.0576623 0.052675 0.044387 0.0480701 0.0580427 0.062574 0.0757755 0.0800264 0.0757501 0.0634336 0.0660313
44 1 Mg 0.183552 60.2953 4.18018 1.2 1 0.0242003 0.0172538 0.0226892 0.0276335 0.0282481 0.0348347 0.0357468 0.0418215 0.0603252 0.047001 0.0713026 0.0620285 0.0621721 0.0708961 0.0780723 0.0712125 0.0782349 0.0852581 0.0652432 0.0862856
45 2 Si 2.14558 62.2061 4.37802 2.4 1 0.00988125 0.0158608 0.0200541 0.0251117 0.0439523 0.0401448 0.0414648 0.0435362 0.0572896 0.060044 0.0584738 0.0617992 0.0611799 0.0645831 0.0673022 0.0814368 0.0763248 0.0699437 0.0624869 0.0580636
46 3 O -1.07552 62.4331 4.25085 -1.2 1 0.00746283 0.0224304 0.0233554 0.0200605 0.0218937 0.0355014 0.0285093 0.0786913 0.037357 0.0759609 0.0362665 0.0644352 0.0626939 0.0656542 0.0806759 0.0689909 0.0672251 0.0580452 0.0646559 0.0698743
47 3 O 0.974759 58.1639 4.09828 -1.2 1 0.0202658 0.023946 0.00866617 0.03512 0.0235613 0.0371282 0.0498663 0.0441964 0.0533723 0.039004 0.0539161 0.0488091 0.069475 0.0761187 0.0870699 0.0684588 0.0749715 0.0645595 0.0733484 0.0636748
48 3 O 1.28178 61.3712 3.15206 -1.2 1 0.0233451 0.0192144 0.0314044 0.0206553 0.0300764 0.0353728 0.0444912 0.0445821 0.041688 0.0464775 0.0614466 0.0444175 0.0621936 0.0714582 0.0746386 0.0784985 0.0599361 0.0622029 0.0680238 0.0652579
49 1 Mg -0.452593 63.8095 -0.104898 1.2 1 0.0296483 0.0102018 0.0113682 0.0264443 0.0290663 0.0348922 0.0298267 0.0587087 0.046189 0.0670673 0.0447548 0.039002 0.043893 0.067349 0.0509853 0.0804231 0.0693901 0.0918227 0.0675586 0.0691404
50 3 O 1.6495 61.4688 5.57941 -1.2 1 0.00805902 0.0293092 0.0192323 0.0289414 0.0269677 0.0321731 0.0491906 0.051461 0.0461673 0.0552378 0.0624383 0.0469069 0.0600388 0.0729035 0.0817839 0.0699027 0.0716824 0.0625499 0.0665851 0.0749605
51 1 Mg -0.119183 66.7166 1.71456 1.2 1 0.0302296 0.0120354 0.0165873 0.0212914 0.0192559 0.0348736 0.0323206 0.0358407 0.0486029 0.0504698 0.0628532 0.0616899 0.0608449 0.0699598 0.0713602 0.0554403 0.0858044 0.0838187 0.080142 0.0599954
52 2 Si -2.34445 64.7677 1.49507 2.4 1 0.0224812 0.0213524 0.0186144 0.0210803 0.0366248 0.0426973 0.028553 0.0489363 0.0590329 0.0611287 0.0589273 0.0624139 0.0620828 0.0645457 0.0674528 0.063606 0.0708616 0.0726697 0.0697563 0.0642235
53 3 O 0.819375 64.6147 1.56516 -1.2 1 0.0152929 0.0251711 0.0183038 0.0222719 0.0247153 0.0259065 0.0273461 0.0765108 0.0527651 0.0671029 0.0285531 0.0631935 0.0581738 0.0788523 0.0712872 0.0700069 0.0668505 0.0542727 0.067036 0.0657498
54 3 O -1.1656 68.5569 1.42378 -1.2 1 0.0183855 0.022544 0.0194748 0.0243545 0.0161227 0.0284156 0.0398903 0.0544799 0.0544159 0.0452253 0.047954 0.0488569 0.0604228 0.0715204 0.0994277 0.0649802 0.0743738 0.0581982 0.0722483 0.0493384
55 3 O -1.70035 65.3743 0.19654 -1.2 1 0.0320518 0.02041 0.0193504 0.0217374 0.020279 0.0327517 0.0543692 0.044799 0.0324411 0.0544801 0.0576656 0.0495086 0.0538951 0.0808108 0.0786768 0.0781831 0.0779837 0.0583786 0.0724486 0.0781348
56 3 O -1.84975 65.4968 2.71493 -1.2 1 0.0311048 0.0218649 0.0274786 0.0239525 0.0364846 0.0364573 0.042563 0.0347633 0.0392934 0.0536778 0.0610689 0.0434536 0.0476618 0.0696012 0.0574289 0.0885548 0.0669344 0.0713999 0.0701505 0.0605462
57 1 Mg -2.53009 68.9137 0.0589402 1.2 1 0.00861592 0.0229129 0.017056 0.0256854 0.0188825 0.0399493 0.0174409 0.0633613 0.0195977 0.0807582 0.0238654 0.0598328 0.0264376 0.0671966 0.0271425 0.105701 0.0367656 0.110243 0.0350137 0.0851265
58 1 Mg 2.34855 72.0913 1.45693 1.2 1 0.0156646 0.0198021 0.0131447 0.0314079 0.0247728 0.0201351 0.0292389 0.0295795 0.0453392 0.0531377 0.0491646 0.0624465 0.0567052 0.0669876 0.0724024 0.0571528 0.0814917 0.086452 0.0720196 0.0748524
59 2 Si -0.441838 70.0911 1.26814 2.4 1 0.0214552 0.0185217 0.0242428 0.0225142 0.028969 0.0367782 0.0352175 0.0493225 0.0533305 0.053318 0.0522739 0.0618574 0.0711894 0.0586698 0.0744297 0.0722053 0.0620012 0.0843323 0.0770397 0.0603107
60 3 O 1.0738 70.0431 1.34465 -1.2 1 0.0320422 0.0265433 0.0239375 0.0269996 0.0336846 0.0302864 0.0233502 0.0695259 0.042447 0.0702717 0.0425723 0.0699654 0.0624401 0.0731901 0.0751848 0.0604178 0.0651487 0.0533985 0.081818 0.0554847
61 3 O -1.50077 73.9194 1.36904 -1.2 1 0.0150105 0.0199765 0.0149245 0.0324034 0.015895 0.0347697 0.0367126 0.0362552 0.0555455 0.0372727 0.0515858 0.0505367 0.0582387 0.0711524 0.0822933 0.0728629 0.0737972 0.0622397 0.06321 0.0654672
62 3 O -1.33244 70.7935 0.0889861 -1.2 1 0.0065125 0.0141802 0.0245541 0.0285616 0.0211614 0.0165491 0.0421687 0.0430435 0.0436827 0.0422405 0.0659416 0.0375264 0.0589568 0.0500099 0.0875725 0.0800508 0.0688128 0.0734281 0.0534064 0.0626789
63 1 Mg -2.15118 79.7651 3.10632 1.2 1 0.0142745 0.0209051 0.0140399 0.0302775 0.023236 0.0328268 0.0277438 0.0564269 0.0352381 0.0670037 0.0481195 0.0449906 0.0427681 0.0598686 0.0562737 0.0715696 0.0786286 0.0827976 0.0758755 0.0628725
64 3 O -1.07677 70.9113 2.60036 -1.2 1 0.017916 0.0129949 0.0255933 0.0162779 0.0243695 0.0290049 0.0398202 0.044663 0.0368955 0.0509257 0.0572038 0.0427788 0.0632822 0.0693719 0.0781672 0.0827174 0.0672769 0.0733728 0.0571803 0.0721962
65 1 Mg -2.34797 76.4676 4.36869 1.2 1 0.00434654 0.0130144 0.0151309 0.0316371 0.0156977 0.0261811 0.0343827 0.0378801 0.0416459 0.0587932 0.0615756 0.05608 0.0622034 0.0625694 0.0714554 0.0619117 0.0875894 0.0780602 0.0727644 0.0716082
66 2 Si 0.326987 78.3306 4.56132 2.4 1 0.0242597 0.0173168 0.0140626 0.0309882 0.023598 0.0374838 0.0361535 0.055547 0.05213 0.0464643 0.0488347 0.0681636 0.0697473 0.0459981 0.0501615 0.0749444 0.0572926 0.104025 0.0600669 0.0695205
67 3 O -1.27025 78.4039 4.44247 -1.2 1 0.0344617 0.0256031 0.016992 0.0231991 0.0286529 0.0300683 0.0184359 0.0740956 0.0348026 0.0815522 0.0450069 0.0690863 0.0695276 0.0724124 0.0661708 0.0595502 0.0601488 0.0675126 0.0629969 0.0763675
68 3 O 0.988904 74.6955 4.36221 -1.2 1 0.0200415 0.0225151 0.0123349 0.0216643 0.0163647 0.0259198 0.0463297 0.0431022 0.0460789 0.0456827 0.0443607 0.0556995 0.0479213 0.0753031 0.085213 0.0665574 0.084299 0.057998 0.0598187 0.0550655
69 3 O 0.954487 77.882 3.21464 -1.2 1 0.00713064 0.0145296 0.0335885 0.0224915 0.0256867 0.0223727 0.0479913 0.0452093 0.0425708 0.0430539 0.0545142 0.0427006 0.060935 0.0619604 0.0939996 0.0714023 0.0853419 0.0763867 0.0654939 0.0644977
70 3 O 0.712847 77.9231 6.0114 -1.2 1 0.0192798 0.0193663 0.0188712 0.0223938 0.0264094 0.0273481 0.0494578 0.0457632 0.051965 0.0598336 0.0505443 0.0373319 0.0566103 0.0690434 0.0770224 0.0838661 0.0711376 0.0745384 0.0551069 0.0733815
71 1 Mg -0.222346 73.9064 3.01164 1.2 1 0.0132046 0.0282808 0.019351 0.0241412 0.0159508 0.0303136 0.0351127 0.0493923 0.0479672 0.063967 0.0365091 0.0498966 0.0355151 0.0627195 0.056454 0.0927528 0.067291 0.0949317 0.0677863 0.0703904
72 1 Mg 0.0602815 71.2185 4.43964 1.2 1 0.0112682 0.016245 0.0189983 0.0286324 0.0184039 0.0246048 0.0271095 0.0363315 0.0506937 0.0576425 0.0581593 0.04923 0.0525033 0.0644299 0.0674467 0.0641537 0.0721528 0.0932039 0.0643536 0.0850166
73 2 Si 1.79499 73.2551 4.46885 2.4 1 0.00266863 0.0135252 0.0204072 0.0232443 0.0275625 0.0348001 0.0410954 0.0525373 0.0537807 0.0568503 0.0513571 0.0634701 0.0637816 0.053216 0.0689565 0.0669364 0.0628686 0.0926635 0.0653145 0.0565621
74 3 O -1.44124 73.3431 4.57667 -1.2 1 0.017526 0.0184802 0.0173676 0.0267432 0.0283312 0.0336778 0.0305597 0.0722405 0.0443885 0.0615632 0.0468962 0.0666271 0.0492991 0.059205 0.0741791 0.0544242 0.061089 0.0657975 0.0611708 0.0677526
75 3 O 0.993584 69.4799 4.56891 -1.2 1 0.0159021 0.017171 0.017964 0.02391 0.0257461 0.0358018 0.0422503 0.0429594 0.057222 0.042708 0.0454422 0.0510149 0.0501901 0.0761311 0.0946134 0.0761742 0.0749566 0.06476 0.0690533 0.0604002
76 3 O 1.2919 72.5018 3.25732 -1.2 1 0.0223795 0.0196314 0.0273263 0.0151794 0.0263131 0.0296237 0.0469438 0.0434999 0.0423982 0.0538787 0.0543503 0.0411409 0.0592114 0.0611544 0.0815902 0.0697778 0.0679557 0.0706371 0.058714 0.0763473
77 1 Mg 0.123371 74.3046 0.0904937 1.2 1 0.0162556 0.0216692 0.0158639 0.0310562 0.0193767 0.0356047 0.0233843 0.0554046 0.0286106 0.0727432 0.0304125 0.0585378 0.0289849 0.0765495 0.0359588 0.102039 0.0507962 0.0947126 0.0521814 0.0724705
78 3 O 1.09773 72.4914 5.72995 -1.2 1 0.0181316 0.0238884 0.0233546 0.0303607 0.0228691 0.0212957 0.0521114 0.0389041 0.0390249 0.0486469 0.0596978 0.0515796 0.0570165 0.0444916 0.0784685 0.0675041 0.0705568 0.0678821 0.0696936 0.070988
79 1 Mg 0.179475 77.2968 1.42235 1.2 1 0.013163 0.0206434 0.0215411 0.0300144 0.01575 0.024741 0.0273975 0.0426344 0.0404981 0.0581662 0.0682872 0.064097 0.0657694 0.0602186 0.0631538 0.0837758 0.0751777 0.0756527 0.0789723 0.0526533
80 2 Si -2.16449 75.4794 1.59506 2.4 1 0.00443337 0.0102612 0.0193129 0.0291992 0.031921 0.0303968 0.0345305 0.041372 0.0544257 0.0540426 0.0541844 0.0669471 0.0610747 0.0620484 0.0699709 0.0741924 0.0549273 0.0878679 0.0719673 0.0697679
81 3 O 1.07792 75.3605 1.53054 -1.2 1 0.0192637 0.0254226 0.0146466 0.0216932 0.0219751 0.0304599 0.0264027 0.0731751 0.0405339 0.0713129 0.0388976 0.0727283 0.0625749 0.0712053 0.0751311 0.0562514 0.0694026 0.0579509 0.0631409 0.0650803
82 3 O -1.07472 79.0651 1.33688 -1.2 1 0.0119749 0.0253133 0.0269991 0.0177266 0.0238147 0.0357798 0.0366101 0.0535305 0.0562732 0.0447576 0.0474606 0.0426592 0.0537707 0.0743864 0.103661 0.0732523 0.0714942 0.0701697 0.0675243 0.058204
83 3 O -1.44437 76.2008 0.346122 -1.2 1 0.0105185 0.0149242 0.0286115 0.0254486 0.031953 0.0326896 0.0407323 0.0493885 0.0447387 0.0558249 0.0577037 0.046293 0.0575877 0.0600636 0.0822176 0.0741665 0.0688442 0.0771293 0.0580654 0.0581816
84 3 O -1.31558 75.9017 2.83542 -1.2 1 0.0197977 0.0144909 0.0205005 0.0247989 0.0253467 0.0288412 0.0469249 0.0381955 0.0439301 0.0399566 0.0618711 0.0401229 0.0636785 0.057079 0.0870148 0.0694523 0.0785024 0.0584524 0.0634849 0.0664499
85 1 Mg -2.48033 79.6327 -0.107677 1.2 1 0.016219 0.0193097 0.0188558 0.0356266 0.0172292 0.0416109 0.0203742 0.0565722 0.0202116 0.08262 0.0214334 0.0511495 0.025963 0.0730458 0.0309407 0.0991847 0.0324644 0.103682 0.0519286 0.0791201
86 1 Mg 2.22664 82.1566 1.60097 1.2 1 0.00828626 0.0178947 0.0131206 0.0414909 0.0222149 0.0302028 0.0344382 0.0258705 0.0562405 0.0553754 0.0677293 0.0614603 0.0572606 0.0588376 0.0599859 0.0988652 0.0760969 0.0885908 0.0657584 0.0801745
87 2 Si -0.450805 80.5138 1.3644 2.4 1 0.0120421 0.0238757 0.0235272 0.029651 0.0318171 0.0380858 0.0463652 0.051289 0.063393 0.0538654 0.0498384 0.0736148 0.0705093 0.06432 0.0844306 0.0525173 0.0696869 0.0895752 0.0727518 0.0569131
88 3 O 1.15172 80.396 1.52103 -1.2 1 0.0195092 0.02202 0.0128163 0.0224681 0.0194231 0.0295351 0.0375903 0.075099 0.0561995 0.046347 0.0441682 0.0719313 0.0460037 0.0687304 0.0770519 0.0690587 0.0600582 0.0830992 0.0410627 0.077228
89 3 O -1.51321 84.708 1.53646 -1.2 1 0.0154614 0.013636 0.0161677 0.0308623 0.0237866 0.0308002 0.0382474 0.0514907 0.065883 0.0399442 0.0534666 0.0517262 0.0537713 0.0773929 0.101536 0.0659491 0.0608836 0.0646388 0.0712807 0.0525505
90 3 O -1.19052 81.4085 0.250631 -1.2 1 0.00499295 0.0251592 0.0244102 0.0286116 0.0226763 0.0240265 0.0541835 0.0445867 0.0411763 0.0470377 0.0627083 0.0438888 0.0665807 0.0613696 0.0784702 0.0767988 0.0741988 0.075052 0.064743 0.0723995
91 1 Mg -2.65517 90.2024 2.95992 1.2 1 0.0101985 0.0112956 0.00896376 0.0287272 0.0220303 0.0391613 0.0246483 0.053333 0.0335157 0.0758783 0.0371729 0.0392345 0.0331102 0.0675275 0.0508351 0.0925158 0.0534516 0.0914991 0.0635074 0.0857879
92 3 O -0.860193 81.0403 2.81683 -1.2 1 0.0286086 0.0303926 0.025617 0.0115913 0.0298444 0.0253341 0.0540214 0.0408152 0.0464014 0.0559973 0.0507687 0.0545707 0.0560449 0.0724696 0.058018 0.0773875 0.0842274 0.0652274 0.0643192 0.0707067
93 1 Mg -2.44238 87.5675 4.55766 1.2 1 0.0225341 0.0098888 0.0217602 0.033442 0.0197371 0.0347935 0.0379476 0.0316997 0.0569064 0.0575395 0.066491 0.0623865 0.060897 0.0599398 0.0658989 0.0866496 0.0631357 0.0923344 0.058042 0.0857757
94 2 Si 0.332575 89.5577 4.70548 2.4 1 0.018408 0.0256691 0.0266228 0.0414636 0.0318125 0.0409595 0.042986 0.0485783 0.070661 0.0631013 0.0445677 0.0701178 0.0789718 0.0676934 0.0714876 0.0526974 0.0585368 0.0931546 0.0584599 0.0619691
95 3 O -1.24773 89.5633 4.66004 -1.2 1 0.0401957 0.029671 0.0200127 0.0231573 0.0331243 0.027055 0.0341109 0.0720392 0.048688 0.062336 0.0527844 0.0716095 0.0488052 0.0718057 0.0745698 0.061793 0.0578588 0.0756295 0.0491249 0.0849486
96 3 O 1.05976 85.3379 4.62866 -1.2 1 0.0142407 0.0148106 0.0217896 0.0367425 0.0234255 0.0288464 0.0401773 0.0461161 0.0649706 0.0400459 0.0549371 0.0503224 0.0574877 0.0789469 0.0910206 0.0609662 0.0850812 0.0499627 0.0746227 0.0509552
97 3 O 0.788907 88.7339 3.30973 -1.2 1 0.0150311 0.0305334 0.0256439 0.0263614 0.0406613 0.0314857 0.0492652 0.0498932 0.0600358 0.0427999 0.0648228 0.0464816 0.0626052 0.0764086 0.0792509 0.0677486 0.077447 0.0630217 0.0659926 0.0718384
98 3 O 0.950798 88.6316 5.80398 -1.2 1 0.0054837 0.0227872 0.0254516 0.029548 0.0322454 0.0264622 0.054088 0.0422325 0.0368031 0.0446561 0.0697159 0.0519966 0.0720322 0.0514757 0.0948801 0.0644936 0.0885581 0.0668492 0.0721609 0.0686032
99 1 Mg -0.299822 85.4342 3.19863 1.2 1 0.00815029 0.0283432 0.0158213 0.0257938 0.0287389 0.0326581 0.0324305 0.0570199 0.0579992 0.0612642 0.0498042 0.0486655 0.0479608 0.0637036 0.0688754 0.0732848 0.0829585 0.0873336 0.0701868 0.0646845
100 1 Mg 0.122599 81.7804 4.43093 1.2 1 0.0162905 0.019555 0.0202525 0.0270572 0.0194096 0.0325552 0.0313483 0.0407748 0.0462046 0.0493997 0.0643945 0.0596256 0.0576698 0.0670885 0.0752039 0.0717518 0.0770778 0.0898038 0.054658 0.078578
101 2 Si 1.8477 83.9863 4.41412 2.4 1 0.00849554 0.0134942 0.0270646 0.0300456 0.0405597 0.0302476 0.0455348 0.0503639 0.0548058 0.0621467 0.0609703 0.0595024 0.0719577 0.0637101 0.069534 0.0644628 0.0609467 0.0992366 0.064425 0.0537275
102 3 O -1.43249 84.2008 4.48642 -1.2 1 0.0207975 0.0223994 0.0207973 0.0206557 0.0307569 0.0304131 0.0326443 0.07067 0.0467699 0.0581083 0.0616458 0.0725357 0.0520447 0.0658175 0.0759884 0.0746796 0.0571578 0.0756613 0.0442171 0.0789476
103 3 O 1.14812 79.7593 4.70072 -1.2 1 0.00352408 0.0186925 0.0186806 0.0275018 0.0214564 0.0276548 0.0435653 0.035236 0.0609495 0.0345269 0.0475799 0.0545693 0.0553547 0.0632973 0.0933815 0.0798264 0.0704229 0.0499309 0.0568074 0.0777133
104 3 O 1.35714 82.9646 3.25664 -1.2 1 0.0220865 0.0259528 0.0269501 0.0211924 0.0308221 0.0297514 0.0351744 0.0433832 0.0357864 0.0496283 0.0601913 0.052371 0.0548814 0.0682883 0.0708485 0.0854058 0.0612375 0.0712969 0.0660223 0.0714214
105 1 Mg -0.146721 84.7397 0.219776 1.2 1 0.00774288 0.0236853 0.016942 0.0269971 0.0164267 0.0380224 0.0254057 0.0590745 0.0426952 0.0735018 0.0375187 0.0494181 0.0369753 0.0750815 0.0434349 0.0868832 0.0530161 0.100536 0.0649315 0.0722283
106 3 O 1.34218 83.1218 5.68166 -1.2 1 0.00490567 0.0251641 0.0287129 0.0262865 0.0266884 0.0355455 0.0539319 0.0496162 0.0341288 0.0383123 0.0702206 0.045816 0.0564402 0.0813513 0.0682542 0.0746646 0.0804896 0.0536787 0.0710957 0.0663766
107 1 Mg -0.358196 87.8763 1.58017 1.2 1 0.0196339 0.026379 0.0187556 0.0335538 0.0176709 0.0405441 0.0324508 0.0364406 0.0513986 0.0458816 0.0624434 0.0640151 0.0595676 0.0660064 0.0738185 0.0877807 0.0735447 0.087151 0.068133 0.0934421
108 2 Si -2.38783 86.0591 1.56747 2.4 1 0.0269417 0.019143 0.0157007 0.0276353 0.0351359 0.0313741 0.045331 0.0484702 0.0624594 0.0724805 0.0446343 0.0686596 0.0616131 0.0481709 0.0859017 0.0636554 0.0721886 0.0760102 0.0686756 0.0672153
109 3 O 0.830126 86.0442 1.6594 -1.2 1 0.0109738 0.0242173 0.0157462 0.0194811 0.0301862 0.0374666 0.0318952 0.0798034 0.0400228 0.061924 0.0446498 0.063147 0.056538 0.0763943 0.0692451 0.0804978 0.0538784 0.0642463 0.0664039 0.0585899
110 3 O -1.2207 89.8263 1.53997 -1.2 1 0.0090514 0.00960933 0.0224486 0.0286368 0.0216313 0.0400438 0.0432904 0.0474819 0.052338 0.0515224 0.045751 0.0524104 0.0582983 0.0651588 0.112614 0.071997 0.071326 0.0545292 0.0667609 0.0529183
111 3 O -1.88751 86.9179 0.400268 -1.2 1 0.0162003 0.0225213 0.0251308 0.0243794 0.0356266 0.0342309 0.0482234 0.0520115 0.0422403 0.0564658 0.0651468 0.0519802 0.0501499 0.0648576 0.064113 0.0748559 0.0646916 0.0650609 0.0580119 0.0736275
112 3 O -1.83593 86.801 2.8766 -1.2 1 0.00772655 0.0234402 0.031202 0.0219982 0.0320445 0.0295149 0.0536594 0.0511635 0.038488 0.0597327 0.050323 0.0370215 0.0570885 0.0703652 0.0617955 0.0775703 0.0721558 0.0653071 0.0699704 0.0656544
113 1 Mg -2.56246 90.0956 0.0928587 1.2 1 0.0122677 0.0260929 0.00921324 0.0286123 0.0308603 0.0349391 0.0261697 0.0518702 0.0348572 0.0706097 0.037355 0.045689 0.0335184 0.0659539 0.0515191 0.0903295 0.068284 0.0862799 0.067715 0.0709161
114 1 Mg 2.1271 93.2584 1.22993 1.2 1 0.0140326 0.0147892 0.0238613 0.0397517 0.0203591 0.0369674 0.0371194 0.0374901 0.0479239 0.0616499 0.0615003 0.057456 0.0576896 0.0671801 0.0729807 0.0852635 0.0645518 0.0763299 0.0735948 0.0867713
115 2 Si -0.486205 91.3159 1.47134 2.4 1 0.0136572 0.00991907 0.0224413 0.0406568 0.0287862 0.0271052 0.041258 0.0515893 0.0567953 0.0550529 0.0459025 0.0708432 0.0695114 0.0561831 0.0758396 0.050467 0.0548691 0.102693 0.0651588 0.0612393
116 3 O 1.1426 91.3584 1.46322 -1.2 1 0.0290054 0.0320535 0.0178129 0.0217404 0.0315202 0.0306554 0.020814 0.0717512 0.047279 0.0677781 0.0298471 0.0747587 0.0575799 0.0742076 0.0715898 0.0622796 0.0636472 0.0776107 0.045051 0.0797229
117 3 O -1.09428 95.3903 1.54329 -1.2 1 0.0251104 0.0252037 0.0148629 0.028735 0.0191707 0.0325965 0.0440895 0.0396088 0.0525239 0.0447663 0.0497912 0.0525098 0.0501185 0.0729693 0.0979133 0.0704814 0.0839859 0.0487241 0.0782813 0.0548627
118 3 O -1.26012 91.8435 0.166833 -1.2 1 0.016641 0.0112667 0.0182903 0.0262985 0.0298394 0.0224218 0.0520898 0.0528703 0.0462061 0.0455298 0.0485309 0.0563512 0.0489136 0.0509122 0.101599 0.0640385 0.0770445 0.064602 0.0741016 0.0625112
119 1 Mg -2.02258 101.065 2.87245 1.2 1 0.0204923 0.0142961 0.0128351 0.0281152 0.0172211 0.0359803 0.0187004 0.0555561 0.0303401 0.0687229 0.0252803 0.0413905 0.03771 0.0765027 0.0323467 0.09714 0.0397696 0.0974165 0.0491458 0.092419
120 3 O -0.89192 91.9805 2.84686 -1.2 1 0.0262337 0.0142045 0.022005 0.0288168 0.0424498 0.0225802 0.0547758 0.0536629 0.0472417 0.0431838 0.0530225 0.043617 0.057926 0.0791691 0.0777555 0.0651809 0.0805492 0.0630435 0.0591664 0.0728571
121 1 Mg -2.02578 98.073 4.48165 1.2 1 0.0139234 0.0134782 0.0138919 0.036619 0.0185159 0.0295289 0.0355696 0.0423194 0.0422409 0.0536435 0.0586877 0.0639327 0.0576768 0.0675795 0.0785587 0.0816434 0.0776256 0.0771627 0.0732693 0.0720072
122 2 Si 0.640541 100.025 4.18476 2.4 1 0.0265415 0.0242308 0.0220562 0.0237523 0.0260076 0.0356555 0.0473785 0.0519153 0.0563429 0.0465214 0.0451734 0.0591405 0.0665311 0.0546638 0.0852076 0.0604225 0.067447 0.0929426 0.0636379 0.0554005
123 3 O -0.880723 100.126 4.41385 -1.2 1 0.0237233 0.0219776 0.0155327 0.0188373 0.0223707 0.0278282 0.0297681 0.0773871 0.0488902 0.0486534 0.0516955 0.0688321 0.0628494 0.0599873 0.0803596 0.0756945 0.0577784 0.0810348 0.0599 0.066187
124 3 O 1.43691 96.3593 4.50428 -1.2 1 0.0230079 0.0193862 0.0270204 0.0288554 0.0240236 0.0379636 0.0418591 0.0450024 0.0467824 0.0420422 0.0428556 0.0578947 0.0517558 0.0657165 0.110291 0.0703484 0.0706893 0.0649447 0.0659014 0.0767982
125 3 O 1.3322 99.2398 2.90877 -1.2 1 0.0251961 0.0194368 0.0244917 0.0276516 0.030502 0.0214652 0.0502863 0.0507784 0.0414388 0.0511418 0.0576585 0.0483023 0.0489569 0.0526683 0.0937833 0.0701645 0.069913 0.0677779 0.0571563 0.0764501