ITEM: TIMESTEP
84500
ITEM: NUMBER OF ATOMS
5600
ITEM: BOX BOUNDS xy xz yz pp pp pp
0	7.1235	0
0	201.985	2.3745
0	119.584	0
ITEM: ATOMS id type element xu yu zu q Q_1 Q_2 Q_3 Q_4 Q_5 Q_6 Q_7 Q_8 Q_9 Q_10 Q_11 Q_12 Q_13 Q_14 Q_15 Q_16 Q_17 Q_18 Q_19 Q_20 Q_21
1 1 Mg -1.78099 47.0409 -2.02792 1.2 1 0.479873 0.0289063 0.125507 0.0486868 0.0844664 0.0441202 0.0415262 0.0613915 0.0652062 0.0732763 0.0843473 0.0751231 0.0867598 0.0862418 0.120734 0.124011 0.0835983 0.0877218 0.0952721 0.108847
2 1 Mg 2.78895 49.6582 1.23991 1.2 1 0.254629 0.102781 0.0366957 0.0561692 0.031681 0.0359401 0.0430552 0.0534419 0.0618506 0.0696294 0.0803497 0.0727983 0.0774233 0.0668585 0.0752278 0.0704754 0.0717 0.0834365 0.0928636 0.0946047
3 2 Si 0.612983 48.3739 -0.454423 2.4 1 0.339209 0.115772 0.0604634 0.0765168 0.0355032 0.0652332 0.0540346 0.0828455 0.0716504 0.0834816 0.0681373 0.0783241 0.0680679 0.0876539 0.0867915 0.106716 0.0820551 0.0798738 0.0697404 0.0916916
4 3 O 1.95086 47.5601 -0.123032 -1.2 1 0.432428 0.0700417 0.108044 0.0597656 0.0706791 0.0557622 0.0682183 0.059697 0.0821964 0.070858 0.0730637 0.0943029 0.0871051 0.079244 0.106873 0.0894981 0.0783246 0.0864539 0.0790868 0.0876795
5 3 O -1.66465 51.652 1.09119 -1.2 1 0.12877 0.0437974 0.0506473 0.032194 0.0264201 0.025816 0.0530371 0.0400119 0.0538949 0.0663309 0.0496727 0.0488048 0.06877 0.0765151 0.0762057 0.081921 0.0709133 0.0576651 0.0635215 0.0920065
6 3 O 0.0327638 47.9636 -1.79505 -1.2 1 0.39636 0.0878365 0.0986193 0.0475978 0.0425238 0.0713941 0.0377255 0.0609154 0.0820448 0.0748579 0.0780191 0.0656001 0.106043 0.0978791 0.100017 0.0912146 0.0812586 0.0753476 0.0702071 0.0849703
7 1 Mg -2.43371 57.727 2.82735 1.2 1 0.00763886 0.0172551 0.0092356 0.0312151 0.0157256 0.0424053 0.0176014 0.0619054 0.0323368 0.0795054 0.0255119 0.0553324 0.0302484 0.0698022 0.0349373 0.100872 0.0438282 0.0980144 0.0434012 0.0911276
8 3 O -0.294196 48.6783 0.787218 -1.2 1 0.318206 0.135195 0.0561253 0.0549881 0.0436645 0.0474543 0.077904 0.0617188 0.0828094 0.082132 0.0742874 0.0724034 0.0472645 0.0793327 0.100894 0.0797881 0.0780571 0.090385 0.0995488 0.0784256
9 1 Mg -2.23429 54.5899 4.2517 1.2 1 0.00511115 0.013791 0.0185321 0.0428988 0.0258542 0.0300351 0.033932 0.0344596 0.0360682 0.0551954 0.0667998 0.0632475 0.0426529 0.0672995 0.063795 0.0779019 0.0789201 0.0695691 0.0815843 0.0722804
10 2 Si 0.189723 56.6044 4.06877 2.4 1 0.0140174 0.016559 0.0182689 0.0349868 0.0233703 0.0301553 0.0514201 0.0478225 0.0556783 0.0581769 0.0477778 0.0707369 0.073887 0.0565655 0.077677 0.0566579 0.0558883 0.0902091 0.0674943 0.0608762
11 3 O -1.34654 56.5316 4.18117 -1.2 1 0.0179591 0.0319069 0.0145305 0.0191434 0.0264443 0.0294993 0.0262701 0.0770146 0.0433968 0.0681027 0.037836 0.0730144 0.0658426 0.0690194 0.0787339 0.0682082 0.0664685 0.0632368 0.0631632 0.0810323
12 3 O 1.29521 52.7804 4.29036 -1.2 1 0.0586518 0.0380845 0.0326576 0.0180479 0.0317903 0.0380111 0.0373778 0.049513 0.0460159 0.0576504 0.0533739 0.0462368 0.0607308 0.0721247 0.0864609 0.0775925 0.0756271 0.0595881 0.0613694 0.0723533
13 3 O 1.00574 55.9754 2.65607 -1.2 1 0.0264947 0.0182844 0.0265085 0.022761 0.0225926 0.02789 0.0538527 0.049272 0.0539004 0.0414518 0.0570865 0.0423556 0.0449006 0.0544679 0.0972275 0.0773226 0.06167 0.0660307 0.0637871 0.0767195
14 3 O 0.960182 55.7416 5.2444 -1.2 1 0.0067239 0.00971469 0.0229415 0.0191234 0.0241485 0.0391022 0.0515663 0.0456113 0.0394199 0.049484 0.0571257 0.0390209 0.0661758 0.0583089 0.0847689 0.0881256 0.0676604 0.0598544 0.0590687 0.0626811
15 1 Mg -0.144233 52.4134 2.79839 1.2 1 0.0787668 0.0486287 0.0351339 0.0311525 0.0190287 0.0331618 0.0275735 0.0530619 0.0531318 0.0668952 0.0514831 0.051024 0.0472433 0.0611263 0.058171 0.0848629 0.073056 0.103174 0.0741077 0.0636936
16 1 Mg 0.0577135 48.7475 2.85705 1.2 1 0.31527 0.116304 0.037626 0.0690515 0.0477907 0.0367121 0.0706865 0.0438116 0.0723066 0.0731042 0.0735068 0.07179 0.0672905 0.0683725 0.0794022 0.0999466 0.0717545 0.0798499 0.0832211 0.084403
17 2 Si 1.72604 51.2906 4.19303 2.4 1 0.112911 0.0812594 0.0432693 0.017713 0.0242171 0.0442913 0.0374701 0.064984 0.0576391 0.070039 0.0669935 0.0760259 0.076213 0.0826617 0.06931 0.0786974 0.073637 0.0915032 0.0704193 0.0615704
18 3 O -1.39119 51.3596 4.30162 -1.2 1 0.122593 0.0803748 0.0491571 0.0400892 0.0230906 0.0277357 0.0551344 0.0559451 0.0511443 0.0760947 0.0489911 0.0942489 0.0597491 0.0724958 0.0717184 0.084355 0.0680239 0.0829073 0.0842217 0.0706796
19 3 O 2.73948 48.2703 2.87065 -1.2 1 0.353834 0.113236 0.0757741 0.060923 0.0401296 0.0680832 0.0609723 0.0806415 0.062273 0.0691865 0.0502214 0.0717601 0.0723385 0.091021 0.10867 0.0872367 0.0797209 0.0727864 0.0996098 0.117332
20 3 O 0.855492 50.6709 3.0054 -1.2 1 0.16351 0.0912368 0.0418076 0.0244947 0.024541 0.037365 0.049693 0.0590598 0.0566371 0.0544633 0.073896 0.0622951 0.0789367 0.074459 0.071409 0.0778083 0.0866808 0.0817181 0.0703783 0.0842257
21 1 Mg -0.208627 52.0515 -0.255583 1.2 1 0.0958525 0.0633284 0.0429193 0.0353374 0.0221684 0.0241463 0.0392513 0.0635582 0.0570612 0.0523222 0.0534263 0.0591395 0.0512555 0.0651061 0.0609235 0.0842644 0.0722193 0.0846022 0.073033 0.0648882
22 3 O 0.947879 50.4516 5.42267 -1.2 1 0.189804 0.0786243 0.035118 0.0276074 0.0304421 0.0326521 0.0412613 0.0513144 0.0600127 0.057671 0.055629 0.0558338 0.0556543 0.0633083 0.0749315 0.0921474 0.0673486 0.0773666 0.0671224 0.0734161
23 1 Mg -0.25307 55.344 1.26771 1.2 1 0.0277411 0.00877942 0.0195159 0.0378554 0.0193294 0.0340901 0.0265361 0.0415692 0.0507301 0.0475631 0.0626994 0.0597056 0.0544898 0.0699879 0.0625641 0.0749893 0.0738102 0.0886063 0.076447 0.0711271
24 2 Si -2.29319 53.2623 1.06919 2.4 1 0.0431038 0.0232932 0.0318849 0.0328249 0.0234366 0.0359908 0.0399496 0.0452917 0.0538364 0.0637027 0.0514904 0.0534046 0.0758234 0.0518465 0.0710437 0.0675936 0.0738513 0.0781405 0.0708552 0.0586303
25 3 O 0.990708 53.2365 1.115 -1.2 1 0.0304454 0.0243929 0.0341074 0.0323261 0.0209363 0.0340499 0.0204575 0.0622845 0.0449215 0.0576705 0.0502712 0.0554092 0.0588726 0.0636037 0.0752496 0.0483712 0.073303 0.0609013 0.0610081 0.0772044
26 3 O -1.21395 57.3923 1.12725 -1.2 1 0.00996908 0.0232124 0.0228314 0.0317346 0.0190385 0.0356048 0.0404317 0.0407341 0.0550431 0.0359631 0.0555441 0.0468687 0.0659262 0.071264 0.10045 0.0635399 0.0819176 0.0656979 0.0750213 0.0600478
27 3 O -1.50249 53.9848 -0.116484 -1.2 1 0.0252008 0.0200735 0.0282763 0.0302461 0.0326174 0.0234515 0.0641391 0.0485905 0.0434141 0.0450596 0.0631006 0.0507361 0.0587222 0.0694525 0.0803863 0.0635858 0.0579913 0.0680512 0.060188 0.0633629
28 3 O -1.58526 53.8217 2.36202 -1.2 1 0.0267064 0.0196714 0.0266466 0.0329449 0.0318604 0.0323921 0.0508122 0.0420847 0.0420506 0.0534096 0.0555867 0.0478497 0.0539151 0.0814936 0.0756898 0.0735566 0.0901991 0.0700563 0.0784663 0.0709694
29 1 Mg -2.48283 57.6873 -0.326371 1.2 1 0.0117928 0.0155726 0.0104675 0.0294351 0.0153791 0.0364508 0.0149732 0.0567773 0.0208571 0.0782525 0.0202379 0.0574234 0.0240806 0.0738141 0.0266809 0.104318 0.030791 0.107026 0.0333177 0.089679
30 1 Mg 2.08432 60.4268 1.01583 1.2 1 0.0154428 0.018113 0.0179227 0.0352917 0.0172722 0.0366772 0.0350875 0.0271479 0.0457524 0.0563973 0.0674323 0.0497821 0.0566897 0.0731869 0.0638067 0.0963057 0.069369 0.0882086 0.0714968 0.0696799
31 2 Si -0.491081 58.7762 1.11746 2.4 1 0.0165728 0.0209393 0.0212576 0.0349675 0.0316963 0.0368088 0.0406914 0.050092 0.0606376 0.049958 0.0560814 0.0683733 0.074462 0.0636721 0.0617292 0.0796128 0.0673886 0.0871736 0.0607573 0.0514341
32 3 O 1.08191 58.7148 1.0892 -1.2 1 0.0426553 0.0100227 0.0188481 0.0220327 0.0287347 0.0331581 0.025337 0.0610368 0.0438008 0.0729402 0.0425252 0.0639391 0.0672655 0.0685411 0.0711633 0.0718998 0.0610236 0.0619337 0.0601206 0.0709712
33 3 O -1.4361 62.7306 1.27045 -1.2 1 0.0214214 0.0132966 0.0140014 0.021273 0.0115791 0.0293145 0.0411593 0.0424055 0.0670561 0.0343812 0.061643 0.0424643 0.0550984 0.0763329 0.0977305 0.0725418 0.0679262 0.0529885 0.0790723 0.0576353
34 3 O -1.17097 59.5365 0.0241538 -1.2 1 0.0232951 0.0244827 0.0347916 0.0166329 0.0293596 0.0238116 0.0459698 0.0450351 0.0324161 0.0447783 0.0574018 0.0427591 0.0583804 0.0636258 0.0803762 0.0787668 0.0708192 0.0722884 0.0611906 0.0666708
35 1 Mg -2.15987 68.5414 2.93169 1.2 1 0.0319742 0.0153992 0.0175057 0.0408726 0.0221652 0.0361335 0.0216875 0.0554171 0.0311196 0.0679153 0.0388781 0.0445573 0.0367801 0.0673227 0.0375472 0.096022 0.0595681 0.0999539 0.060519 0.0635242
36 3 O -1.12498 59.3835 2.54254 -1.2 1 0.010575 0.0167772 0.0227912 0.0282824 0.0334851 0.0290449 0.0501964 0.0494573 0.0462636 0.0507305 0.0533528 0.0377977 0.0537502 0.0645722 0.0855887 0.0826973 0.0672028 0.0630734 0.0608784 0.0721617
37 1 Mg -2.16659 65.4178 4.19459 1.2 1 0.028611 0.0219703 0.020582 0.035578 0.0171933 0.0339727 0.0341336 0.0374441 0.0401475 0.0519463 0.0691115 0.0525279 0.0632229 0.0696887 0.0738375 0.0872301 0.054652 0.0867596 0.0727536 0.0820628
38 2 Si 0.515655 67.1689 4.53292 2.4 1 0.0229742 0.0127434 0.0263331 0.0269886 0.0355227 0.0370966 0.0380193 0.047263 0.0593021 0.033883 0.0606076 0.0620891 0.0743877 0.0600843 0.0645181 0.0762112 0.0619692 0.0856672 0.0615168 0.0523673
39 3 O -0.97357 67.4188 4.59852 -1.2 1 0.0231396 0.0310998 0.0166454 0.0169388 0.0207114 0.0360938 0.0347958 0.0729092 0.0480197 0.0599374 0.0519264 0.0721051 0.0640982 0.0749887 0.0876549 0.0653613 0.0581806 0.0695465 0.0621927 0.0701552
40 3 O 1.56923 63.2342 4.20545 -1.2 1 0.025461 0.0210372 0.0166804 0.0301857 0.0215771 0.0397635 0.0357985 0.0374539 0.0718254 0.0344019 0.0512253 0.0455375 0.0564875 0.0698275 0.0974075 0.0633656 0.0619782 0.0556456 0.0764668 0.0611104
41 3 O 1.00632 66.408 3.21769 -1.2 1 0.0283214 0.0378263 0.0297008 0.020369 0.0235408 0.0275758 0.0389714 0.0417225 0.0384372 0.0517399 0.0653418 0.0487594 0.0625083 0.0673576 0.0763904 0.0758531 0.0776838 0.0765474 0.0709959 0.0632886
42 3 O 1.29796 66.6604 5.81918 -1.2 1 0.00979606 0.0144317 0.0225399 0.026867 0.033791 0.0204283 0.0468789 0.0424251 0.0487092 0.0407528 0.0561511 0.0407663 0.0672956 0.0450625 0.100007 0.0677724 0.0679064 0.0876697 0.0525833 0.0797075
43 1 Mg 0.127674 62.7569 2.47842 1.2 1 0.0230213 0.00663801 0.0210112 0.0238902 0.026657 0.0333205 0.027055 0.0523202 0.0413211 0.0758626 0.040785 0.049699 0.0367336 0.0716898 0.0519826 0.0813659 0.0708936 0.0835871 0.0604241 0.0660045
44 1 Mg -0.240544 59.9888 4.13298 1.2 1 0.0161598 0.0207303 0.0169832 0.0349464 0.0135767 0.031695 0.0247203 0.0323544 0.0380112 0.0577577 0.0687004 0.0567362 0.05504 0.0687839 0.0750824 0.0879179 0.0710931 0.0773448 0.084729 0.077213
45 2 Si 2.20711 61.9112 3.97845 2.4 1 0.021629 0.0160433 0.0168334 0.0231947 0.0310826 0.0297627 0.0385412 0.0501255 0.0518717 0.0680767 0.0495285 0.0534969 0.0659892 0.0562075 0.0820693 0.0689947 0.0713638 0.085036 0.0673043 0.0610025
46 3 O -0.936898 61.9711 3.9 -1.2 1 0.0158518 0.0250894 0.020061 0.0199031 0.0287777 0.0232884 0.0286108 0.0666737 0.0428607 0.0597409 0.038865 0.0588307 0.0685438 0.0711231 0.0773116 0.0692276 0.0687576 0.0763427 0.0587078 0.0556037
47 3 O 0.772151 58.0772 4.22055 -1.2 1 0.015267 0.0197875 0.0223063 0.0282459 0.019792 0.0334061 0.0311595 0.0474449 0.0576144 0.0416541 0.0519375 0.044952 0.0568711 0.0648341 0.101464 0.0819829 0.0631694 0.0559616 0.0641918 0.0533248
48 3 O 1.41153 61.2358 2.79058 -1.2 1 0.0127149 0.0213589 0.0265094 0.0283517 0.0271888 0.0289352 0.0474737 0.0473521 0.0396026 0.0544109 0.055902 0.0494627 0.0598832 0.0707746 0.07279 0.080518 0.0680785 0.0617786 0.0582641 0.0721963
49 1 Mg -0.0468096 63.0668 -0.179091 1.2 1 0.0104506 0.0100778 0.0107699 0.0374751 0.0131905 0.041391 0.0156861 0.0637408 0.0223134 0.0696953 0.0233325 0.0553201 0.0310257 0.0660124 0.0328153 0.110189 0.0345391 0.101215 0.0370338 0.085935
50 3 O 1.31385 60.9985 5.27015 -1.2 1 0.0288872 0.0252447 0.0248111 0.0185305 0.0304437 0.0267742 0.0444325 0.0416248 0.0381482 0.0446067 0.0547925 0.0354927 0.0563931 0.06146 0.076924 0.0840789 0.0641016 0.0804141 0.0633039 0.0621424
51 1 Mg 0.165011 66.0216 1.42046 1.2 1 0.0104125 0.0182391 0.0239536 0.0345828 0.0189152 0.0354358 0.0293381 0.038316 0.0280476 0.0645422 0.0608024 0.0537376 0.0589798 0.0662117 0.0746394 0.0725273 0.0666486 0.0813472 0.0819141 0.064167
52 2 Si -2.11497 64.1123 1.37654 2.4 1 0.0208402 0.00546742 0.0242369 0.0200528 0.0246486 0.0331995 0.036954 0.0510417 0.0520521 0.0496031 0.0594668 0.0628107 0.0638018 0.0611065 0.0790429 0.0703139 0.0627283 0.08821 0.0613236 0.0602911
53 3 O 1.14828 64.0155 1.16413 -1.2 1 0.0191352 0.0176613 0.0211143 0.0167179 0.0222222 0.0292655 0.0229168 0.0745824 0.0394113 0.0585483 0.037305 0.0673938 0.058176 0.067161 0.0750432 0.0584772 0.0636029 0.0711323 0.0619978 0.0621896
54 3 O -0.893673 67.8476 1.45047 -1.2 1 0.00724894 0.0157739 0.0238342 0.0314674 0.0265085 0.0315787 0.0389293 0.0485212 0.0572885 0.0438701 0.0542381 0.040948 0.0536635 0.0770759 0.0977273 0.0709071 0.07648 0.0546611 0.0683375 0.0630582
55 3 O -1.39247 64.9032 0.00147845 -1.2 1 0.0116245 0.0117452 0.0231913 0.0252213 0.0240115 0.0216154 0.04875 0.0442425 0.0371146 0.0437203 0.0515834 0.0414243 0.0620568 0.058249 0.0735337 0.0816266 0.0687682 0.0632834 0.0712616 0.0720803
56 3 O -1.3454 64.8528 2.50249 -1.2 1 0.0292107 0.0219588 0.0314327 0.0227266 0.0256969 0.0253506 0.0362424 0.0433631 0.0487428 0.0518021 0.0689116 0.0425217 0.0562601 0.0618583 0.0860711 0.0866523 0.0645052 0.0641353 0.0655804 0.0544403
57 1 Mg -2.28576 68.3111 -0.00181757 1.2 1 0.0162287 0.0201093 0.0160356 0.0392867 0.0185124 0.0338043 0.0198253 0.0577905 0.0308427 0.0832984 0.0208196 0.053082 0.0199579 0.0770202 0.0318578 0.0948896 0.0323657 0.104783 0.0439174 0.095411
58 1 Mg 2.60613 71.802 1.80401 1.2 1 0.00872859 0.0159664 0.0269431 0.0244279 0.0264878 0.0392678 0.0303971 0.0431583 0.0485061 0.0435613 0.0569824 0.0579478 0.0613291 0.068546 0.0732094 0.0688226 0.0787144 0.0829758 0.0686023 0.0765639
59 2 Si -0.219571 69.3516 1.27455 2.4 1 0.0120583 0.0100204 0.0241798 0.0304289 0.0414604 0.0298382 0.0385348 0.0298985 0.0553809 0.0521047 0.0530049 0.0577304 0.073379 0.0597701 0.0796066 0.0702443 0.0618965 0.0699893 0.0775198 0.0618475
60 3 O 1.26408 69.1864 1.35283 -1.2 1 0.0274976 0.0135212 0.0199936 0.0208998 0.019452 0.0289166 0.0250093 0.0659521 0.0442834 0.0547999 0.040278 0.0669497 0.0545539 0.067014 0.0718505 0.0727701 0.0701244 0.0777516 0.0580983 0.0650892
61 3 O -1.31861 73.5385 1.76253 -1.2 1 0.0156191 0.0226062 0.0135681 0.0258549 0.0221734 0.0403449 0.0477169 0.0408379 0.0508913 0.0377712 0.0561149 0.0469695 0.0615515 0.0735655 0.0891092 0.0707481 0.0851638 0.0579454 0.0681542 0.0598374
62 3 O -0.876534 70.1328 0.0707684 -1.2 1 0.0261851 0.0146942 0.0241126 0.018628 0.0370968 0.0205339 0.0450361 0.0410863 0.0426361 0.0509553 0.0595706 0.0438938 0.0580582 0.0713275 0.0781692 0.0802884 0.0718877 0.0667799 0.0617443 0.0781025
63 1 Mg -2.48776 79.1944 3.19664 1.2 1 0.0205006 0.0166603 0.0201734 0.0371933 0.0163067 0.0307716 0.022885 0.0607065 0.0233019 0.0741958 0.0355466 0.0514418 0.0255154 0.0703201 0.0353461 0.107877 0.0388348 0.102582 0.041973 0.0812244
64 3 O -0.713879 70.1174 2.71606 -1.2 1 0.025829 0.00998028 0.0245305 0.0230908 0.0346188 0.031937 0.0620793 0.0426844 0.0420845 0.0506897 0.055055 0.0448286 0.0558266 0.0766215 0.0719072 0.084757 0.0684345 0.0632303 0.0629415 0.0649837
65 1 Mg -2.81162 76.1427 4.42771 1.2 1 0.0249086 0.0234953 0.0158185 0.0298348 0.0244844 0.0416123 0.0329988 0.0443196 0.0501497 0.0374488 0.0584561 0.0590437 0.0715076 0.0670238 0.0644434 0.0720837 0.0708087 0.0916626 0.062054 0.074084
66 2 Si 0.383402 78.263 4.93453 2.4 1 0.0140092 0.0162776 0.0294331 0.0292095 0.03876 0.0428803 0.0398809 0.0513601 0.0571594 0.0494908 0.066323 0.0578471 0.0793629 0.0580694 0.0725693 0.0646878 0.057471 0.0799246 0.0681722 0.0737082
67 3 O -1.28433 78.4367 4.9068 -1.2 1 0.0113709 0.0177588 0.014092 0.0167124 0.0297064 0.0340455 0.0254105 0.0686166 0.0561594 0.0741725 0.0436071 0.0768262 0.0490234 0.0783682 0.0766161 0.0743384 0.0641833 0.0697926 0.0679746 0.0638131
68 3 O 1.23364 74.2846 4.62945 -1.2 1 0.0178515 0.0229169 0.0234456 0.0394236 0.0180122 0.0326498 0.0385758 0.0503953 0.0560523 0.0410968 0.0531108 0.0470863 0.0553553 0.0820939 0.0951374 0.068413 0.080443 0.05516 0.0654159 0.0483656
69 3 O 0.843635 77.6006 3.54628 -1.2 1 0.0178073 0.0199926 0.0229185 0.0287472 0.037297 0.0275713 0.0615344 0.0380477 0.039112 0.0385703 0.0678935 0.0444725 0.0585251 0.0709468 0.0729805 0.0776618 0.0779338 0.0651481 0.0699537 0.0744419
70 3 O 1.06919 77.5312 6.02029 -1.2 1 0.0111533 0.0101543 0.031184 0.0208026 0.0349795 0.0232411 0.0562516 0.0443271 0.0541179 0.0416976 0.0712382 0.038843 0.0548631 0.0477758 0.0976345 0.0633742 0.0697616 0.068802 0.0591257 0.066406
71 1 Mg -0.18405 74.051 3.15615 1.2 1 0.0135786 0.028872 0.0101188 0.0395921 0.0220742 0.0459616 0.0292125 0.0642022 0.0352527 0.0779346 0.0290448 0.0540945 0.0373985 0.0691357 0.0440529 0.0869068 0.0511508 0.0933268 0.0549296 0.081314
72 1 Mg 0.15909 70.4737 4.41719 1.2 1 0.0182771 0.0153986 0.0292573 0.0240364 0.025854 0.0327738 0.0326701 0.0412041 0.0468539 0.0538804 0.0555637 0.0651548 0.0597999 0.0649273 0.0767026 0.0624587 0.076047 0.0890118 0.0646575 0.0721055
73 2 Si 1.9943 72.7492 4.67758 2.4 1 0.0172864 0.0110636 0.0232963 0.0401918 0.0445051 0.0287878 0.0493439 0.0444078 0.0574052 0.0566466 0.0602023 0.0630057 0.082423 0.0584414 0.0700609 0.0716656 0.0656391 0.0873448 0.0767947 0.0620615
74 3 O -1.22572 72.8483 4.5948 -1.2 1 0.0196898 0.0261456 0.0183579 0.0214532 0.0302438 0.0380553 0.0305202 0.0714305 0.0454777 0.071996 0.0449046 0.0776097 0.0488048 0.0710934 0.0724899 0.0621965 0.0555551 0.0710932 0.0589675 0.0743357
75 3 O 1.15913 68.7201 4.29078 -1.2 1 0.0162838 0.0271074 0.0213463 0.0366202 0.0199835 0.0343259 0.0460828 0.0387676 0.0478658 0.0466662 0.0557207 0.0541093 0.0556687 0.0780582 0.0897149 0.0624845 0.075731 0.0518479 0.0722071 0.0510229
76 3 O 1.46692 71.837 3.51155 -1.2 1 0.0188602 0.0156808 0.0271863 0.0283576 0.0341227 0.0333699 0.0446722 0.0415554 0.0455776 0.0446333 0.0623341 0.0428302 0.0587994 0.0652345 0.0689159 0.0789276 0.0662216 0.0659174 0.0689843 0.0700573
77 1 Mg -0.0756316 73.8114 0.186965 1.2 1 0.0153596 0.0224998 0.0129473 0.0384271 0.015037 0.0427887 0.0175207 0.071209 0.0168257 0.0729899 0.0285775 0.0610201 0.0380349 0.0621445 0.0298513 0.0987236 0.0422164 0.102763 0.044067 0.0897149
78 3 O 1.46516 72.0977 6.03156 -1.2 1 0.0287086 0.0161794 0.0305759 0.0174286 0.0384238 0.0292826 0.0518344 0.0473189 0.0407692 0.0465511 0.0587078 0.0391584 0.0628406 0.0753754 0.0747884 0.080177 0.0787985 0.0800058 0.0635927 0.0699422
79 1 Mg -0.0321661 77.0614 1.66054 1.2 1 0.0197763 0.0124752 0.0267385 0.0231452 0.0204471 0.0350474 0.0396485 0.0400223 0.037574 0.0575435 0.0621371 0.0707724 0.053538 0.0694531 0.0780014 0.0661003 0.0836715 0.0807016 0.0618556 0.0821406
80 2 Si -2.05431 74.9525 1.54003 2.4 1 0.0240157 0.0154413 0.0196622 0.0360814 0.0407954 0.0342377 0.0428373 0.04523 0.0618757 0.0503303 0.0453937 0.0702545 0.0736933 0.056513 0.0726148 0.0656283 0.0635744 0.0821258 0.0658063 0.0581575
81 3 O 1.11815 74.8307 1.70719 -1.2 1 0.00838975 0.0243907 0.0193619 0.0244582 0.0266106 0.0342095 0.0404213 0.083546 0.0359434 0.0519861 0.0413148 0.0703345 0.0582392 0.0740522 0.0755167 0.0671527 0.0544845 0.0737499 0.0505413 0.0709662
82 3 O -1.06617 79.0322 1.67728 -1.2 1 0.00990803 0.0317247 0.0179321 0.0305402 0.0231986 0.0317597 0.0458919 0.050121 0.0612041 0.0357336 0.0518473 0.0468696 0.06697 0.0756916 0.0941732 0.0697649 0.0828242 0.0578278 0.0682926 0.0554781
83 3 O -1.47026 75.6178 0.289803 -1.2 1 0.023311 0.00947205 0.0323215 0.0243329 0.0331334 0.0301984 0.0578838 0.0462971 0.0468327 0.0427216 0.0672494 0.0444295 0.0627959 0.0732508 0.09586 0.0790862 0.0754488 0.0627644 0.06847 0.0768821
84 3 O -1.55448 75.602 2.92651 -1.2 1 0.0141429 0.0178072 0.0288144 0.0161154 0.03983 0.0296409 0.0567693 0.0415373 0.0396083 0.0473962 0.0660227 0.0479535 0.0597356 0.079973 0.0673593 0.0784212 0.0733983 0.0715705 0.0648511 0.0688856
85 1 Mg -2.68124 79.0478 0.118356 1.2 1 0.0238971 0.0204618 0.0194906 0.0316502 0.0201398 0.0480982 0.0244594 0.0653574 0.0441025 0.0657119 0.0447456 0.0492902 0.0488441 0.0662411 0.0593004 0.096638 0.0757424 0.0792496 0.070416 0.0704527
86 1 Mg 2.40893 82.3041 1.83667 1.2 1 0.0176158 0.0149074 0.0170987 0.031919 0.0269451 0.0283939 0.0374707 0.0349146 0.0468516 0.0578846 0.057689 0.0554802 0.0617745 0.0730256 0.0698819 0.0766344 0.0631955 0.0998273 0.071737 0.0811475
87 2 Si -0.320521 80.5764 1.65587 2.4 1 0.0236237 0.011558 0.0265961 0.0209601 0.0361925 0.037276 0.0275016 0.0488438 0.0481082 0.051631 0.059179 0.0634696 0.0636421 0.0654642 0.0641937 0.0792955 0.0584504 0.0870669 0.0635067 0.0603282
88 3 O 1.14178 80.2706 1.62315 -1.2 1 0.0320539 0.0275786 0.016426 0.0258333 0.0215155 0.0265214 0.0302714 0.0729987 0.044024 0.0637345 0.0440423 0.0658888 0.0590542 0.0641117 0.0829648 0.059244 0.0647667 0.0789825 0.0641069 0.0726298
89 3 O -1.45697 84.296 2.04327 -1.2 1 0.0122028 0.0220891 0.021702 0.0285173 0.0223663 0.0380792 0.0357143 0.0434144 0.0611869 0.0458398 0.048936 0.0408325 0.0635485 0.0730779 0.0842597 0.0744081 0.0648617 0.0607489 0.0712681 0.0595289
90 3 O -0.907169 81.3301 0.397984 -1.2 1 0.00701071 0.024476 0.0249972 0.0235869 0.023318 0.030767 0.0401966 0.0509857 0.0369092 0.0457879 0.0600778 0.0483601 0.0533658 0.07734 0.0731232 0.0783998 0.0656774 0.0691356 0.0702401 0.0725422
91 1 Mg -2.19647 90.156 3.23094 1.2 1 0.0156569 0.0206473 0.013865 0.0345942 0.0149259 0.0363392 0.011112 0.0598202 0.0172534 0.0771361 0.0257546 0.0471092 0.0283733 0.0709043 0.0276451 0.11296 0.0353879 0.103599 0.0378245 0.0975397
92 3 O -0.975477 81.2774 2.94575 -1.2 1 0.0208464 0.0265848 0.0302533 0.0219179 0.0254128 0.035626 0.0361062 0.0468928 0.0310985 0.0460618 0.0646015 0.0464005 0.0562451 0.0726933 0.073766 0.0834483 0.0689043 0.0625755 0.063744 0.0648636
93 1 Mg -2.02346 87.214 4.86978 1.2 1 0.0145238 0.0150056 0.0185856 0.0337628 0.0162783 0.0297389 0.0329791 0.0385978 0.0437341 0.0639888 0.0627712 0.0564111 0.0528824 0.0632984 0.0665007 0.0862266 0.0610741 0.0875183 0.0701382 0.0747199
94 2 Si 0.595251 89.1738 4.89912 2.4 1 0.00902985 0.0230176 0.0202175 0.0341826 0.0336459 0.0306238 0.0387969 0.0574233 0.05858 0.058346 0.0521977 0.0611825 0.072942 0.0542947 0.0869985 0.0684614 0.0664773 0.085052 0.0591165 0.0515727
95 3 O -1.03028 89.3305 4.74324 -1.2 1 0.0233459 0.0210877 0.0147877 0.0159805 0.027646 0.0296339 0.0303702 0.0760603 0.0441831 0.0627646 0.0425741 0.0691197 0.0511749 0.0727041 0.0744445 0.0741545 0.0599544 0.0835753 0.0495292 0.0772576
96 3 O 1.51933 85.2891 4.54815 -1.2 1 0.0224409 0.0206405 0.0194474 0.0229296 0.0162131 0.0281791 0.0470472 0.0431083 0.0508999 0.0470867 0.0550885 0.0403942 0.0583273 0.0716802 0.0917084 0.0836231 0.07745 0.06258 0.0709039 0.0604891
97 3 O 1.30386 88.5371 3.57645 -1.2 1 0.00464753 0.0177998 0.0235232 0.025139 0.031629 0.0305949 0.0472364 0.0523837 0.0359979 0.04557 0.0613843 0.0464773 0.0534441 0.0709097 0.0982823 0.0701311 0.0819892 0.0598585 0.068236 0.0567736
98 3 O 1.34134 88.3844 6.08582 -1.2 1 0.00727935 0.0221009 0.0255541 0.0220998 0.0400527 0.0208402 0.0526582 0.0507615 0.0388157 0.052758 0.0611231 0.0416264 0.048721 0.0526674 0.0856152 0.0708161 0.0627222 0.0604867 0.0617842 0.0741548
99 1 Mg 0.151324 84.4904 3.26961 1.2 1 0.0128751 0.0261624 0.0129508 0.0260773 0.022282 0.0427563 0.0307103 0.0542637 0.0387592 0.0624032 0.0334509 0.0490475 0.0309866 0.0642891 0.0417903 0.101484 0.0584139 0.0982809 0.0587031 0.074597
100 1 Mg -0.0948941 81.9438 4.74337 1.2 1 0.00916118 0.0274306 0.0192769 0.0331861 0.0186553 0.0286875 0.0370991 0.030174 0.0446533 0.0673513 0.0684672 0.0530277 0.0553774 0.0606128 0.0659742 0.0884183 0.066528 0.0889885 0.0573369 0.0704545
101 2 Si 2.10183 83.7337 4.78707 2.4 1 0.0102854 0.0184257 0.0228343 0.0430476 0.0364878 0.0304249 0.0382031 0.0464933 0.0631556 0.0548675 0.046745 0.0669205 0.062003 0.0629763 0.0858971 0.0606254 0.0615613 0.0878643 0.0652395 0.0559366
102 3 O -1.05287 83.8495 4.90663 -1.2 1 0.0224414 0.0227158 0.0232512 0.0214829 0.0180656 0.0330686 0.0277781 0.0756196 0.0379215 0.0669874 0.0402215 0.0763707 0.0515762 0.0693242 0.0705679 0.0694702 0.0634472 0.0758426 0.0543341 0.0781084
103 3 O 0.920391 79.8383 4.68469 -1.2 1 0.0191685 0.018345 0.0233426 0.028615 0.0151339 0.0295534 0.0432198 0.0507222 0.0628753 0.0501892 0.0544979 0.0450004 0.0548223 0.0786645 0.0845558 0.0711778 0.0788461 0.0479539 0.0666726 0.0539933
104 3 O 1.44146 82.9534 3.54399 -1.2 1 0.0116333 0.021047 0.0224481 0.0217657 0.027846 0.0236984 0.0482125 0.0464652 0.0484804 0.0515609 0.0612027 0.0474096 0.0590469 0.0631438 0.0844036 0.0712283 0.0809268 0.0684849 0.0651931 0.0540598
105 1 Mg 0.494504 85.0771 0.246255 1.2 1 0.00801996 0.0265527 0.0332184 0.0256001 0.0242373 0.0285463 0.0383567 0.0563874 0.0543238 0.0617797 0.0444698 0.0512554 0.0452811 0.0566265 0.0625873 0.0846162 0.0785466 0.0802931 0.0867179 0.0608473
106 3 O 1.37779 83.1133 6.03871 -1.2 1 0.0406551 0.0188013 0.0308376 0.0241911 0.032117 0.0178999 0.0513275 0.0495375 0.040793 0.0440942 0.055043 0.0492098 0.0445093 0.0531242 0.0895266 0.0630055 0.0770466 0.0651195 0.0656879 0.0672385
107 1 Mg 0.507015 87.7453 1.7499 1.2 1 0.0252056 0.017044 0.0139541 0.023479 0.0189717 0.0287761 0.0317263 0.0381883 0.0445743 0.0568574 0.0540823 0.0647925 0.0532015 0.069706 0.0784319 0.0733943 0.0718925 0.0761111 0.0864619 0.062273
108 2 Si -1.84272 85.8143 1.94595 2.4 1 0.0184969 0.0229676 0.0231268 0.0277244 0.032326 0.0337521 0.0370542 0.0447216 0.0578213 0.0602715 0.0510556 0.0650683 0.0611681 0.0529792 0.0736831 0.0640358 0.0703032 0.094707 0.0745035 0.063986
109 3 O 1.19449 85.8544 1.83948 -1.2 1 0.0133714 0.0347916 0.0149161 0.0258917 0.0273357 0.0276021 0.0303257 0.0798233 0.0401746 0.0660782 0.025138 0.060098 0.0673676 0.0696303 0.074691 0.0653477 0.0667304 0.0710662 0.061601 0.0627217
110 3 O -0.61508 89.5152 1.59712 -1.2 1 0.0218249 0.0249944 0.0196272 0.0340988 0.0246035 0.0393344 0.0290028 0.0542323 0.0513775 0.0473697 0.047703 0.046888 0.0536542 0.0717721 0.0994583 0.0756455 0.0740956 0.0602634 0.0635471 0.0674432
111 3 O -1.1165 86.3939 0.613655 -1.2 1 0.0207582 0.0205544 0.0253784 0.0291762 0.0328372 0.0315129 0.0456932 0.0481448 0.0490632 0.0442047 0.0567596 0.0478948 0.0619527 0.0509843 0.100937 0.0595084 0.0833054 0.0630247 0.0590677 0.0566152
112 3 O -1.30229 86.6613 3.12924 -1.2 1 0.00763969 0.0239031 0.0281499 0.0199143 0.0204699 0.0280355 0.0351649 0.0481785 0.040688 0.0602478 0.0518556 0.0375573 0.0569407 0.0671947 0.0684597 0.0846814 0.0665843 0.0654123 0.0528895 0.0624857
113 1 Mg -2.09924 89.8959 0.118683 1.2 1 0.0109914 0.0225097 0.00960748 0.0377593 0.0112491 0.0419277 0.0215352 0.060856 0.0330994 0.0713665 0.0291144 0.0438722 0.0368855 0.0681968 0.037636 0.0966805 0.0481948 0.0995293 0.0595524 0.0796284
114 1 Mg 2.28695 93.1369 1.34275 1.2 1 0.0137003 0.0123926 0.0233052 0.0338495 0.0170781 0.0351208 0.0328639 0.04018 0.0526349 0.0588044 0.0706279 0.0536622 0.0535521 0.0714335 0.0718408 0.064508 0.0688427 0.0818656 0.0835633 0.0595676
115 2 Si -0.151028 91.0531 1.45007 2.4 1 0.0265461 0.00601329 0.0209787 0.0296373 0.0329023 0.0328561 0.0418683 0.0442526 0.0609227 0.0491569 0.0416407 0.069851 0.0711528 0.0656944 0.0754229 0.0514814 0.0649371 0.0893109 0.0704074 0.05895
116 3 O 1.51841 91.2404 1.64977 -1.2 1 0.0217788 0.0277634 0.0160616 0.0205818 0.0385213 0.0306848 0.0210416 0.0790568 0.0475223 0.0666448 0.0326461 0.0594161 0.0710605 0.0705428 0.0707004 0.0658378 0.0674119 0.0657476 0.0632255 0.0775867
117 3 O -0.881814 94.9669 1.57782 -1.2 1 0.0162649 0.0121783 0.0211343 0.0230099 0.0243006 0.0320299 0.048477 0.050138 0.0500136 0.0528529 0.0411627 0.0511248 0.058059 0.0707851 0.102311 0.069501 0.0828695 0.0560145 0.0674756 0.04758
118 3 O -0.689401 91.7106 0.2622 -1.2 1 0.0111522 0.017973 0.0265773 0.0282072 0.0225744 0.0255572 0.0571462 0.0476728 0.0428738 0.045293 0.0462713 0.0466255 0.0594721 0.0732426 0.0803605 0.0705611 0.0754849 0.0727699 0.0658785 0.0762654
119 1 Mg -2.2624 100.703 3.26563 1.2 1 0.0239057 0.0202005 0.0142719 0.0387772 0.0217028 0.0391299 0.0248786 0.0612167 0.0279315 0.0684032 0.0397427 0.0516835 0.032911 0.067462 0.0467824 0.0966044 0.055069 0.0962167 0.0579225 0.0704616
120 3 O -0.774748 91.8445 2.80416 -1.2 1 0.0205764 0.0193497 0.028029 0.0288305 0.0309176 0.0273296 0.046396 0.0516673 0.0462085 0.0457544 0.0521308 0.0506936 0.0555652 0.0737554 0.0892574 0.0601435 0.081641 0.0624752 0.0679076 0.0586809
121 1 Mg -1.96396 97.8258 4.71426 1.2 1 0.0211906 0.0143988 0.0155673 0.0239543 0.0170554 0.0298378 0.0313839 0.0341169 0.0446847 0.0635728 0.0570298 0.0604595 0.0646734 0.0659192 0.0713369 0.0659137 0.0775287 0.0979852 0.0729622 0.0768946
122 2 Si 0.636461 99.7667 4.63547 2.4 1 0.00368823 0.0213951 0.0228125 0.0367331 0.0253591 0.033481 0.040483 0.0415809 0.0620946 0.0488893 0.0488296 0.0701795 0.0673773 0.0590806 0.0760927 0.0595694 0.0638404 0.097951 0.0683275 0.0628072
123 3 O -0.953748 99.697 4.51909 -1.2 1 0.0327188 0.01547 0.0162771 0.0143728 0.0288667 0.0293743 0.0237042 0.0803155 0.0407816 0.0597708 0.0359064 0.067363 0.0617912 0.0683168 0.0706026 0.0642062 0.0591023 0.0558028 0.0630204 0.0648957
124 3 O 1.98719 95.9273 4.54497 -1.2 1 0.00812357 0.0123386 0.0190611 0.0332491 0.0148311 0.0311998 0.0376148 0.0419189 0.0610558 0.0456099 0.051452 0.0461042 0.0629052 0.0740194 0.0938599 0.0803333 0.0642068 0.04849 0.0750178 0.0642969
125 3 O 1.41863 99.1304 3.37684 -1.2 1 0.022541 0.020529 0.0253256 0.0266485 0.0288192 0.0267593 0.0531251 0.0493102 0.0392024 0.0430173 0.0488303 0.0400857 0.0629677 0.0636893 0.0886722 0.0714543 0.0685509 0.065768 0.0669836 0.0624788