ITEM: TIMESTEP
98500
ITEM: NUMBER OF ATOMS
5600
ITEM: BOX BOUNDS xy xz yz pp pp pp
0	7.1235	0
0	201.985	2.3745
0	119.584	0
ITEM: ATOMS id type element xu yu zu q Q_1 Q_2 Q_3 Q_4 Q_5 Q_6 Q_7 Q_8 Q_9 Q_10 Q_11 Q_12 Q_13 Q_14 Q_15 Q_16 Q_17 Q_18 Q_19 Q_20 Q_21
1 1 Mg -0.824407 46.2649 -2.0055 1.2 1 0.511273 0.0345737 0.132887 0.0495539 0.0914752 0.0536773 0.0721833 0.0933486 0.0727826 0.0820453 0.0856858 0.0600682 0.0701457 0.0914272 0.123969 0.113787 0.0961026 0.0881905 0.0880071 0.0967127
2 1 Mg 4.07238 49.4441 0.651196 1.2 1 0.2364 0.0963931 0.0435084 0.0381863 0.0504796 0.0422321 0.0620443 0.0629323 0.0816072 0.0629724 0.0819605 0.062002 0.0794315 0.0676991 0.0845997 0.0745331 0.0814993 0.103761 0.0878846 0.0914399
3 2 Si 1.88465 48.1229 -0.556882 2.4 1 0.33805 0.0988808 0.0545182 0.0751159 0.0351035 0.0864256 0.0322985 0.0853662 0.0772571 0.0625651 0.0800458 0.0875056 0.0575927 0.0690289 0.103164 0.0684336 0.0870657 0.0647781 0.0769824 0.0867621
4 3 O 2.89782 46.8532 -0.600852 -1.2 1 0.477855 0.0598692 0.0994087 0.0580574 0.0902018 0.0444155 0.0764112 0.0694591 0.0746053 0.0662118 0.0817076 0.0631415 0.0591178 0.0784983 0.09244 0.0967293 0.0940343 0.0928805 0.0803549 0.0848026
5 3 O -0.977556 51.5234 1.08774 -1.2 1 0.107975 0.0476283 0.047473 0.0270217 0.0398429 0.0348095 0.0536019 0.0453898 0.0560277 0.0543608 0.0605953 0.0512113 0.0719127 0.0822169 0.0845783 0.0852972 0.0712691 0.0739168 0.0697074 0.0662085
6 3 O 0.803187 47.8203 -1.67441 -1.2 1 0.362848 0.0962063 0.078856 0.0614114 0.0561537 0.0587838 0.0372248 0.0521454 0.0765278 0.0907248 0.0702872 0.0730093 0.0667134 0.0835172 0.100406 0.0887845 0.0814973 0.0886676 0.0886018 0.0892703
7 1 Mg -2.50515 57.2091 2.98366 1.2 1 0.00880785 0.0307889 0.0129225 0.02408 0.0272506 0.0337378 0.0244771 0.061502 0.0429444 0.0616003 0.0550204 0.0487802 0.0441781 0.0771358 0.0666661 0.0733008 0.0877235 0.0659378 0.0702022 0.0628072
8 3 O 1.06883 48.4564 0.776981 -1.2 1 0.304153 0.132288 0.0424747 0.0676462 0.0514307 0.0508329 0.0816571 0.0727428 0.0609438 0.067178 0.0774996 0.079924 0.0695762 0.0633179 0.0768313 0.0725266 0.0746846 0.0651965 0.0731207 0.0886896
9 1 Mg -2.46202 54.3354 4.44465 1.2 1 0.02621 0.0148429 0.0226007 0.0223843 0.0255132 0.0403949 0.0363846 0.0362686 0.0481506 0.051577 0.0656827 0.0656546 0.0536412 0.063378 0.0765597 0.0590765 0.0730541 0.0829027 0.0673641 0.0663163
10 2 Si 0.168606 56.2773 4.30841 2.4 1 0.0165728 0.0257252 0.0140598 0.0325202 0.0389433 0.0382491 0.0400519 0.0502696 0.0504928 0.0698221 0.071232 0.0693198 0.065975 0.0747979 0.0753202 0.0620036 0.0631773 0.0690271 0.0700861 0.0710956
11 3 O -1.40882 56.3858 4.21448 -1.2 1 0.019286 0.0199055 0.0160001 0.0224246 0.0283397 0.0335171 0.0257622 0.0693161 0.0439 0.0732229 0.0400165 0.0583592 0.0633926 0.0740912 0.0728162 0.0703721 0.0621483 0.0613904 0.0825806 0.0511387
12 3 O 1.71791 52.4563 4.39249 -1.2 1 0.0782045 0.0354815 0.0415832 0.0218101 0.0345569 0.0450521 0.0457637 0.047153 0.0667345 0.0604079 0.0638127 0.0535064 0.0812372 0.0706464 0.0659963 0.0835643 0.0782389 0.0763532 0.0888019 0.0679519
13 3 O 0.693354 55.8565 2.889 -1.2 1 0.0166324 0.0141048 0.0294646 0.0123117 0.0320941 0.0300146 0.0443813 0.0466792 0.0465712 0.0531191 0.0476972 0.0474651 0.0537684 0.06392 0.0621337 0.0728224 0.0814678 0.0772794 0.06482 0.0612059
14 3 O 0.753785 55.3757 5.41361 -1.2 1 0.0265948 0.0182048 0.0345814 0.0215554 0.0298031 0.0513872 0.0413137 0.052755 0.0486569 0.0533755 0.0573797 0.0619178 0.0536945 0.0555412 0.089812 0.0715008 0.0646009 0.0656961 0.0667342 0.0788122
15 1 Mg 0.0944674 51.7391 2.5972 1.2 1 0.086425 0.0742625 0.0428306 0.0295228 0.0312349 0.0327394 0.0417487 0.0470418 0.0482262 0.0508961 0.0577281 0.0712811 0.0480767 0.0671869 0.0617539 0.0769754 0.0759033 0.0680944 0.0960695 0.0795775
16 1 Mg 1.61486 48.6107 2.60318 1.2 1 0.308943 0.128569 0.0467006 0.0773978 0.0411735 0.0535141 0.0619095 0.0589989 0.0890928 0.082201 0.078959 0.0780349 0.0876656 0.103228 0.079614 0.0843752 0.0880967 0.0772409 0.0792589 0.082414
17 2 Si 2.23458 51.0324 4.10642 2.4 1 0.117095 0.0973082 0.0501717 0.0311627 0.0260187 0.0479721 0.0540757 0.0554715 0.0566402 0.0897393 0.0747524 0.0774078 0.0792764 0.0732691 0.0808517 0.0780572 0.0649294 0.11457 0.073932 0.0773779
18 3 O -0.983318 51.1972 4.20944 -1.2 1 0.112307 0.105426 0.0391826 0.0370903 0.0385617 0.0316713 0.0653961 0.0545416 0.0571432 0.0490131 0.0417869 0.0921286 0.0708331 0.0693367 0.0931887 0.0834633 0.0734061 0.0817579 0.0681161 0.0740425
19 3 O 3.49409 48.5915 2.21876 -1.2 1 0.314482 0.118076 0.0367262 0.0664036 0.0415381 0.0459029 0.0699487 0.0607033 0.0535427 0.0813449 0.0680925 0.0669826 0.077427 0.0858921 0.0720244 0.0801708 0.0856891 0.0893713 0.0991875 0.0787315
20 3 O 1.50885 50.3755 2.95786 -1.2 1 0.177805 0.0915962 0.0469529 0.0321324 0.0439846 0.0392891 0.0463073 0.0732161 0.062653 0.0607361 0.0483261 0.0615882 0.0651705 0.0648209 0.0866066 0.0736352 0.071621 0.0850756 0.0827919 0.0732935
21 1 Mg 0.204888 52.1363 -0.625744 1.2 1 0.0708943 0.036488 0.0289437 0.0346344 0.0211412 0.036454 0.0349552 0.0607377 0.044714 0.0620014 0.0593929 0.0651618 0.0633822 0.0496236 0.0682767 0.0843775 0.0698088 0.0909238 0.0825894 0.0816337
22 3 O 1.80583 49.9983 5.48066 -1.2 1 0.210429 0.11065 0.0286535 0.0477391 0.0475287 0.0461211 0.0523979 0.0752004 0.0539497 0.0687511 0.0719479 0.078016 0.0779594 0.0768664 0.0834125 0.0630894 0.0657059 0.0656119 0.0738383 0.0908866
23 1 Mg -0.472631 55.3428 1.44142 1.2 1 0.0126808 0.0185515 0.0257436 0.0327431 0.0392009 0.0253221 0.0280266 0.0457772 0.0473566 0.0486875 0.0650481 0.0564122 0.0579803 0.0754699 0.0774323 0.0791615 0.0706408 0.0795924 0.0750512 0.0666276
24 2 Si -1.88596 52.9437 1.12314 2.4 1 0.0253752 0.0246487 0.0370777 0.026105 0.0516522 0.0348803 0.0545406 0.0563182 0.0532515 0.0513519 0.0613671 0.0570185 0.0841932 0.0777247 0.0592666 0.0486535 0.0714859 0.0785703 0.0699759 0.0698345
25 3 O 1.34234 52.7103 0.940459 -1.2 1 0.0535547 0.0299619 0.0340311 0.0220154 0.0345967 0.0425073 0.0333184 0.0596848 0.0496192 0.0579944 0.0645843 0.0739636 0.0633574 0.0625011 0.0831678 0.088096 0.0812599 0.0744759 0.0554029 0.060271
26 3 O -0.923589 57.2132 1.48782 -1.2 1 0.0267957 0.0358675 0.029324 0.0269568 0.0206311 0.0228391 0.0453633 0.0457362 0.0674729 0.0448526 0.050334 0.0527716 0.0562143 0.0790842 0.0947146 0.064598 0.0648674 0.0652825 0.065881 0.0578
27 3 O -1.21196 53.6578 -0.222702 -1.2 1 0.0130509 0.0223563 0.02642 0.0338463 0.0254764 0.0370081 0.0432042 0.0452972 0.0543989 0.0494515 0.0658919 0.0393046 0.0567011 0.0758694 0.0976181 0.0612568 0.0804998 0.0747999 0.0701485 0.0660362
28 3 O -1.30657 53.6516 2.49519 -1.2 1 0.0182286 0.0156262 0.0240927 0.0376341 0.0294954 0.0369078 0.052143 0.0353985 0.0360826 0.0462158 0.0790869 0.0629593 0.0482139 0.0673747 0.0679478 0.0755593 0.0951374 0.0718773 0.0672971 0.0666778
29 1 Mg -2.27596 57.4858 0.112185 1.2 1 0.0073437 0.0146029 0.0221551 0.0342005 0.0190985 0.0431427 0.0276972 0.0684155 0.0263301 0.0715206 0.0351867 0.0624567 0.0302206 0.0674072 0.0481865 0.089439 0.0742406 0.0845079 0.0550833 0.0808702
30 1 Mg 1.98414 60.4559 1.6957 1.2 1 0.0181791 0.0146571 0.0219818 0.0239079 0.0191169 0.0340955 0.0443337 0.0414152 0.0532278 0.0429892 0.0777674 0.0586384 0.045342 0.0586977 0.0672358 0.0844457 0.0759741 0.0757318 0.0808905 0.0587927
31 2 Si -0.401841 58.6405 1.4507 2.4 1 0.0152603 0.0166653 0.0195566 0.0254489 0.0422595 0.031741 0.0401305 0.0513487 0.0645837 0.0583535 0.0540725 0.0650008 0.0712057 0.0578327 0.0685738 0.0681738 0.067836 0.0834004 0.0625879 0.0817357
32 3 O 1.15095 58.7662 1.46045 -1.2 1 0.0192411 0.0310821 0.0145472 0.0213784 0.0249648 0.0302739 0.0310093 0.0715203 0.0394735 0.086112 0.0391257 0.0640157 0.055556 0.0756828 0.0729911 0.0516444 0.065778 0.0627729 0.0639816 0.083795
33 3 O -0.784325 62.6147 1.73064 -1.2 1 0.0101937 0.0202262 0.0173762 0.0242295 0.0158262 0.0271913 0.0541017 0.0356817 0.0399545 0.0488827 0.0672657 0.0480593 0.0438921 0.0791147 0.0792117 0.0731912 0.0853735 0.0742924 0.0775513 0.0640427
34 3 O -1.0604 59.4451 0.170281 -1.2 1 0.0155105 0.0120483 0.0224744 0.0203308 0.0277649 0.0323017 0.0407515 0.0530637 0.0475027 0.046187 0.0648333 0.0388393 0.0520736 0.0504844 0.0960422 0.0673964 0.0675873 0.0614809 0.0553846 0.0671947
35 1 Mg -1.89748 68.8551 3.72151 1.2 1 0.022541 0.0201919 0.0210938 0.0308076 0.0293322 0.0286107 0.0345642 0.0527337 0.0600796 0.0583291 0.0486565 0.0445473 0.0469778 0.0572149 0.0577165 0.0734265 0.09257 0.0747195 0.0857819 0.0683248
36 3 O -1.04878 59.3921 2.76812 -1.2 1 0.0287403 0.0211073 0.0239118 0.0219252 0.0279543 0.0349838 0.0446338 0.03343 0.0390927 0.0502578 0.0673663 0.0495575 0.0622215 0.0460312 0.0904383 0.0789422 0.0709843 0.0690514 0.0715506 0.0681537
37 1 Mg -2.24623 65.3611 4.73582 1.2 1 0.00781877 0.0199867 0.0182654 0.0334905 0.015043 0.0369559 0.0245671 0.0430662 0.0466263 0.0455391 0.0632001 0.0585576 0.0517046 0.0649271 0.065835 0.0732154 0.0744659 0.0932907 0.0546812 0.0739051
38 2 Si 0.564632 67.3016 4.63488 2.4 1 0.0113839 0.0249618 0.0229822 0.031632 0.025333 0.0362721 0.0362254 0.0482213 0.0555132 0.0569326 0.0530716 0.0687049 0.0676698 0.0614606 0.0803232 0.0663196 0.0603742 0.0807921 0.0658055 0.0595129
39 3 O -0.967757 67.358 4.73174 -1.2 1 0.026905 0.0268335 0.0116124 0.020854 0.0285754 0.0300937 0.0240608 0.0689333 0.0402995 0.0673779 0.034616 0.0694734 0.0608292 0.0637232 0.0782272 0.0640506 0.0669705 0.0710747 0.063241 0.0647842
40 3 O 1.64944 63.4997 4.86123 -1.2 1 0.0254891 0.0255633 0.0204453 0.0301673 0.0188632 0.0416431 0.04141 0.0480723 0.0524554 0.0413833 0.0506426 0.047401 0.0592902 0.0670317 0.0931528 0.0777478 0.0729555 0.0498628 0.0712825 0.0656675
41 3 O 1.30307 66.743 3.26458 -1.2 1 0.0107176 0.0218481 0.0202819 0.0238439 0.0314106 0.0233988 0.0502645 0.046582 0.0526626 0.0542975 0.0583874 0.0424603 0.0601837 0.0534199 0.0908708 0.0651455 0.0670559 0.0710882 0.0610435 0.068415
42 3 O 1.12604 66.5849 5.87787 -1.2 1 0.0161351 0.0238913 0.0296095 0.0276917 0.0269615 0.0260871 0.0450554 0.0546089 0.0429513 0.0556897 0.0488649 0.0521115 0.0531594 0.0698761 0.0803466 0.0778119 0.0731615 0.0554952 0.0679605 0.0663776
43 1 Mg 0.359585 63.3081 3.32024 1.2 1 0.0123962 0.0154107 0.0118713 0.0403111 0.0199441 0.0300971 0.0366362 0.0538089 0.0435394 0.0698989 0.0354408 0.0401862 0.0384303 0.0655522 0.0459106 0.0877834 0.0691449 0.0956552 0.0581511 0.070985
44 1 Mg -0.146246 60.2497 4.23361 1.2 1 0.0135815 0.0227445 0.0193 0.0363058 0.0262758 0.042603 0.036894 0.0286322 0.0477571 0.0505213 0.069642 0.0469818 0.0591999 0.0691389 0.0833238 0.0785004 0.0604231 0.0763788 0.0857206 0.0625685
45 2 Si 2.23244 62.0703 4.82573 2.4 1 0.00442716 0.0174731 0.0269774 0.0263012 0.034612 0.0432052 0.0369207 0.0488913 0.0656124 0.0505231 0.0484825 0.0703789 0.0572718 0.0606307 0.0753226 0.07384 0.0690593 0.081652 0.0674413 0.0586459
46 3 O -0.926909 62.2211 4.69634 -1.2 1 0.00801655 0.0114367 0.0234696 0.0164722 0.0261775 0.0315139 0.0461141 0.0760674 0.0393866 0.0530664 0.0481256 0.073802 0.0557217 0.0663906 0.073552 0.0725373 0.0727967 0.0716981 0.0493903 0.0697076
47 3 O 0.872279 57.7248 4.55406 -1.2 1 0.0173218 0.0182019 0.0126557 0.0311739 0.0298471 0.0407545 0.0428361 0.0449471 0.0654817 0.0461407 0.061529 0.0426883 0.0601624 0.073389 0.0874936 0.0772273 0.0757594 0.0631025 0.0561122 0.0553921
48 3 O 1.43494 61.3114 3.52185 -1.2 1 0.0184625 0.0187338 0.0236447 0.0143422 0.0350152 0.0255395 0.0506331 0.0462982 0.0410755 0.0313173 0.0510878 0.0526513 0.0531612 0.0693599 0.078747 0.0666462 0.0928353 0.0716912 0.0588127 0.062642
49 1 Mg 0.587807 63.2104 0.258228 1.2 1 0.0206399 0.0223713 0.0206241 0.0345204 0.0185879 0.0329273 0.0292888 0.0600772 0.0464586 0.0687971 0.0445669 0.0501836 0.0530367 0.0631328 0.0476962 0.0797526 0.0660091 0.0929552 0.0701188 0.0632609
50 3 O 1.73138 61.3238 6.05521 -1.2 1 0.0178731 0.0163165 0.0148696 0.0174892 0.0244627 0.0284649 0.0455546 0.0525218 0.0333157 0.0511249 0.0595508 0.0377938 0.0604796 0.0672292 0.0739901 0.0795113 0.0786262 0.0711178 0.0574975 0.0774793
51 1 Mg -0.130427 66.3794 2.00308 1.2 1 0.0235749 0.0172236 0.023987 0.0278474 0.0217311 0.0293825 0.0325187 0.0419702 0.0386375 0.0502814 0.0616106 0.0533042 0.0577824 0.0673931 0.0720583 0.0706729 0.0760222 0.0903687 0.0706738 0.0711713
52 2 Si -1.55225 64.0068 1.65806 2.4 1 0.0149791 0.00906941 0.0292731 0.0248315 0.026676 0.0390926 0.0462378 0.0465703 0.0522677 0.0377108 0.0534155 0.0674245 0.0608965 0.079967 0.0704207 0.0701363 0.0721444 0.0921737 0.0478808 0.0685842
53 3 O 1.72897 63.8952 1.44948 -1.2 1 0.0245767 0.0308776 0.0166358 0.0224826 0.0329284 0.0330929 0.0337323 0.0534564 0.0546271 0.056578 0.0502867 0.0699412 0.0602023 0.0615864 0.0803483 0.0662336 0.0702597 0.0672195 0.0578294 0.0677744
54 3 O -0.924342 68.0471 2.20399 -1.2 1 0.0077075 0.018559 0.0259338 0.0233599 0.0147505 0.0368551 0.0292956 0.0421537 0.0454394 0.0473044 0.0422302 0.0374074 0.0602211 0.0726644 0.066382 0.0741279 0.0568014 0.0805751 0.0687061 0.0645335
55 3 O -1.01023 64.9238 0.413005 -1.2 1 0.010787 0.0212152 0.0281467 0.0301925 0.019576 0.0199912 0.0425494 0.0375516 0.0395793 0.0483199 0.0608907 0.0525577 0.0671406 0.0560414 0.0909457 0.0746592 0.0726015 0.0850094 0.0658486 0.0590094
56 3 O -0.947172 64.7099 3.13806 -1.2 1 0.0136233 0.0148128 0.0262611 0.0235269 0.0276484 0.0231661 0.0499862 0.0427641 0.043801 0.0405146 0.0549454 0.0354655 0.0595804 0.0613413 0.0918123 0.0669469 0.0886948 0.0662019 0.0620466 0.0747381
57 1 Mg -2.20113 68.2314 0.26996 1.2 1 0.0168363 0.0252722 0.0142776 0.0282866 0.0196687 0.0223894 0.0263103 0.0553681 0.0423484 0.0584382 0.0420411 0.0474384 0.0423544 0.0629642 0.0435946 0.0999363 0.06932 0.0948714 0.0489778 0.06874
58 1 Mg 2.52142 71.3743 1.37702 1.2 1 0.00572007 0.00797101 0.0208067 0.0333883 0.023049 0.0279842 0.0316801 0.0314043 0.0511255 0.0477885 0.063791 0.0466654 0.0719424 0.0606852 0.0646893 0.0869336 0.0687305 0.0864808 0.0764544 0.0631265
59 2 Si 0.0579992 69.5542 1.76639 2.4 1 0.0144401 0.00999873 0.0199939 0.0250109 0.0253541 0.0363876 0.03862 0.0434645 0.052056 0.0661044 0.0609471 0.051982 0.0606405 0.0611739 0.0744033 0.0768875 0.0768424 0.0734523 0.0669807 0.0586407
60 3 O 1.45475 69.5797 1.87038 -1.2 1 0.0225418 0.0307378 0.0156075 0.0192083 0.0250587 0.0355035 0.0290788 0.0753618 0.0409262 0.0640109 0.0291514 0.0718176 0.0594284 0.0731008 0.0667057 0.0632816 0.0697502 0.0583736 0.0554806 0.0585344
61 3 O -1.42268 73.4392 1.45508 -1.2 1 0.00876019 0.0257349 0.0171767 0.0259817 0.0252478 0.0399569 0.0329868 0.0496003 0.0552892 0.0404987 0.0543579 0.0451386 0.0671254 0.0762974 0.0812707 0.0770988 0.075307 0.059973 0.067345 0.0643265
62 3 O -0.745993 70.0676 0.439697 -1.2 1 0.0287826 0.0234409 0.0291202 0.017189 0.0234872 0.0274855 0.0550554 0.0392148 0.0484928 0.0528018 0.057985 0.0481205 0.0454964 0.0620527 0.0766464 0.0766188 0.0820837 0.062997 0.073128 0.0671145
63 1 Mg -2.24856 79.3691 3.56646 1.2 1 0.00866261 0.0157885 0.0161058 0.0309846 0.0225703 0.0486338 0.0339857 0.0592559 0.0465164 0.0732743 0.0412723 0.0509207 0.0329195 0.0684901 0.0539354 0.0938049 0.0742463 0.0772942 0.0662416 0.0692903
64 3 O -0.851974 70.3754 2.87508 -1.2 1 0.0072488 0.0246243 0.030029 0.0202847 0.0237435 0.0372518 0.0436945 0.0441475 0.0389338 0.0521112 0.059508 0.037047 0.0685384 0.0565959 0.0810701 0.0868683 0.0726929 0.0648652 0.0534236 0.0605891
65 1 Mg -2.1198 76.1438 4.55508 1.2 1 0.00609937 0.00811425 0.016974 0.0302028 0.0166062 0.0236646 0.0381257 0.0384551 0.0389932 0.0627499 0.060183 0.0582054 0.0555393 0.062652 0.0663857 0.0793071 0.0796286 0.0803013 0.0774278 0.060443
66 2 Si 0.619888 77.9176 4.66743 2.4 1 0.00382202 0.0231563 0.0204823 0.0318373 0.0305893 0.0405247 0.0297467 0.0514932 0.0544828 0.0434555 0.0534121 0.0715075 0.0669303 0.0544441 0.051371 0.0724481 0.0658777 0.0970381 0.051488 0.0631586
67 3 O -0.994485 77.9574 4.69061 -1.2 1 0.0227775 0.0143676 0.0167618 0.0212588 0.017133 0.0321062 0.0298578 0.0780037 0.0443896 0.0754652 0.0334853 0.0654144 0.0692569 0.0709899 0.0784004 0.0562001 0.0564455 0.0652917 0.0563266 0.0701158
68 3 O 1.38452 74.1351 4.58544 -1.2 1 0.00823702 0.0266673 0.0138401 0.028638 0.0140677 0.0321796 0.0426577 0.0436184 0.0562409 0.046597 0.0597879 0.0420441 0.0550065 0.0833067 0.0968963 0.0740778 0.0749973 0.0540352 0.074839 0.0572089
69 3 O 1.20809 77.4376 3.39275 -1.2 1 0.0206121 0.0181516 0.0287865 0.0273603 0.0233851 0.019883 0.0550098 0.0485192 0.0458893 0.0459499 0.0594684 0.0417521 0.0479547 0.0645991 0.0927649 0.089197 0.0637115 0.0691653 0.055484 0.0622406
70 3 O 1.25675 77.3345 5.90964 -1.2 1 0.0143455 0.0210029 0.0202507 0.0221781 0.0304273 0.0332486 0.0386236 0.0510179 0.0451074 0.0490905 0.0660738 0.0393999 0.064288 0.0594699 0.0913568 0.075754 0.0653009 0.0700511 0.0643733 0.0609188
71 1 Mg -0.100823 73.5022 2.9259 1.2 1 0.0229924 0.0242924 0.0169014 0.0272545 0.0215355 0.0276946 0.0358005 0.0490703 0.0602638 0.0621211 0.0428488 0.0483925 0.036763 0.0605881 0.0591041 0.0829539 0.0816397 0.0812232 0.0875498 0.0568021
72 1 Mg -0.137009 71.0611 4.86661 1.2 1 0.00641644 0.0141104 0.0164739 0.0306373 0.0289391 0.0333562 0.0438618 0.0387651 0.0469965 0.0561198 0.0692815 0.0594795 0.0567455 0.0678369 0.0720999 0.087178 0.055919 0.088591 0.0718458 0.0737961
73 2 Si 2.1507 72.7084 4.57206 2.4 1 0.0214604 0.0185661 0.0183089 0.0304072 0.0334451 0.0333169 0.0390567 0.0455321 0.0528076 0.0620537 0.0627288 0.0671679 0.0774504 0.0546628 0.0776078 0.0752374 0.063507 0.0841212 0.0734887 0.0620854
74 3 O -1.00151 72.9229 4.65842 -1.2 1 0.0235165 0.0238683 0.0123715 0.026644 0.0291152 0.0344808 0.0300428 0.0782767 0.045413 0.0619974 0.044439 0.0632393 0.0630438 0.0652888 0.0780757 0.0592244 0.0596529 0.0759439 0.0576007 0.0749937
75 3 O 1.18133 68.834 4.77243 -1.2 1 0.0143239 0.00782349 0.0218822 0.0265753 0.0200026 0.033417 0.0334119 0.0466816 0.0630754 0.0526826 0.0430329 0.0484445 0.0570905 0.0728668 0.0994665 0.0690335 0.075035 0.0597371 0.0714733 0.0582813
76 3 O 1.39859 72.0497 3.28372 -1.2 1 0.00503796 0.0176964 0.0220533 0.0259537 0.0281829 0.0273593 0.0513728 0.0499787 0.0492614 0.0475542 0.0638042 0.0444166 0.0678267 0.0643588 0.0881579 0.0752039 0.0697241 0.0755334 0.0561189 0.0701945
77 1 Mg -0.0396991 74.0335 0.207714 1.2 1 0.0140685 0.0200168 0.0109118 0.0322384 0.0165603 0.0316697 0.0191902 0.0615612 0.0230513 0.0752932 0.0357405 0.046604 0.0339444 0.0829166 0.0434093 0.0963458 0.0518893 0.102201 0.0397229 0.0829738
78 3 O 1.62317 71.8826 5.86853 -1.2 1 0.0355897 0.0259357 0.0216492 0.0220475 0.0355086 0.0287648 0.0349903 0.0382897 0.0417218 0.0546369 0.0699831 0.045453 0.061373 0.0616724 0.0713483 0.0783469 0.0681076 0.0745826 0.0724917 0.0601172
79 1 Mg 0.132689 76.8425 1.97836 1.2 1 0.024143 0.0197066 0.0178011 0.0376982 0.0192485 0.0284582 0.0291328 0.0367828 0.0472468 0.0609175 0.0634548 0.0560089 0.0581701 0.0645823 0.0743761 0.07879 0.073755 0.0848128 0.0717625 0.0664945
80 2 Si -2.00742 75.045 1.46133 2.4 1 0.0076712 0.011856 0.0228079 0.0298105 0.0330158 0.0358372 0.031964 0.0454357 0.0524957 0.0556418 0.0473826 0.0539585 0.0761518 0.0616706 0.0628488 0.0656598 0.0623636 0.0826245 0.0735723 0.0516581
81 3 O 1.11195 74.9059 1.62353 -1.2 1 0.0184841 0.0247831 0.0122409 0.0221165 0.025418 0.0320881 0.0199499 0.0753611 0.0444864 0.0630406 0.0379671 0.0642665 0.0501769 0.0827275 0.0761749 0.0680926 0.0584978 0.0686619 0.0563576 0.063697
82 3 O -0.855488 78.8764 1.88482 -1.2 1 0.0192129 0.0195628 0.0197431 0.0163491 0.0141787 0.0393289 0.0340145 0.0498235 0.0619676 0.0475492 0.0494749 0.0427593 0.0610947 0.0673748 0.0871671 0.0745981 0.0748348 0.059452 0.0687935 0.0604802
83 3 O -1.29689 75.7542 0.380293 -1.2 1 0.0220397 0.0120248 0.0266572 0.0249733 0.0212555 0.0225578 0.0438489 0.0575439 0.0391203 0.0475543 0.0551905 0.0363852 0.0516963 0.0695857 0.0837423 0.0794756 0.0652802 0.0681856 0.0567387 0.0561517
84 3 O -1.50563 75.5242 2.79539 -1.2 1 0.0169748 0.0280921 0.0290637 0.0241361 0.0333991 0.0288298 0.0491135 0.0463661 0.0408497 0.0456624 0.0530764 0.0451217 0.0477108 0.0769243 0.0731013 0.0731312 0.077438 0.057898 0.0620581 0.0612604
85 1 Mg -2.23757 79.4559 0.128721 1.2 1 0.00820703 0.0275174 0.0193768 0.0359328 0.0201747 0.0407022 0.0248559 0.0561884 0.0298141 0.0773665 0.0324963 0.0464707 0.0353237 0.069834 0.035087 0.0939823 0.0603735 0.10016 0.0567331 0.0840444
86 1 Mg 2.35121 81.9336 1.57392 1.2 1 0.0287541 0.0113344 0.0151984 0.0301648 0.0205862 0.0278806 0.0295893 0.0316851 0.0590926 0.0495236 0.0564812 0.0507707 0.0684489 0.0609593 0.0722716 0.085311 0.072532 0.0902909 0.0651265 0.085993
87 2 Si -0.282658 80.5021 1.84968 2.4 1 0.0304396 0.00880248 0.0168476 0.0240176 0.0260378 0.0424626 0.0390657 0.0468464 0.0553613 0.0636637 0.0493381 0.0607178 0.0711707 0.0533907 0.074478 0.0774756 0.0584865 0.0812961 0.063306 0.0601907
88 3 O 1.25525 80.424 1.909 -1.2 1 0.036079 0.0196001 0.0147099 0.0236067 0.0296752 0.026516 0.0367249 0.0777508 0.044606 0.06534 0.0332807 0.0665206 0.0611144 0.0765744 0.0696854 0.0584495 0.0689283 0.0637486 0.0651419 0.060361
89 3 O -1.42701 83.8123 1.76149 -1.2 1 0.00949417 0.013247 0.0234839 0.0152975 0.0226157 0.0408631 0.0262145 0.0570121 0.0487643 0.0511617 0.0316503 0.0619322 0.0432814 0.0786532 0.0946683 0.0529818 0.0785266 0.0681786 0.046915 0.0737137
90 3 O -1.05175 81.0697 0.573809 -1.2 1 0.0105457 0.0102602 0.0285383 0.0281262 0.029288 0.0199319 0.0441819 0.0334984 0.0507152 0.0400847 0.0515757 0.0393377 0.0636169 0.0542105 0.0808057 0.0694324 0.0674943 0.0682806 0.0679739 0.066731
91 1 Mg -2.7404 90.1164 3.32529 1.2 1 0.0281746 0.0116688 0.0187318 0.0303172 0.0206465 0.0374978 0.031987 0.0671459 0.0359017 0.0601233 0.0358694 0.0495428 0.0411563 0.0635962 0.0504564 0.0938797 0.0563449 0.102571 0.0641139 0.0646241
92 3 O -0.935165 81.0533 3.24364 -1.2 1 0.0105464 0.01331 0.0211528 0.0201322 0.0280082 0.0303821 0.0528069 0.055179 0.0538241 0.0538522 0.0546165 0.0441867 0.0587315 0.0622434 0.0797899 0.0781139 0.0616519 0.0585176 0.0650202 0.0721839
93 1 Mg -2.64198 86.952 4.41628 1.2 1 0.0304925 0.0138346 0.0211687 0.0324588 0.0175468 0.0387822 0.0235049 0.0345531 0.0513139 0.0441795 0.061703 0.0621811 0.0514627 0.0675246 0.0638997 0.0638548 0.0803899 0.0893694 0.0785949 0.0708802
94 2 Si -0.00923757 88.8825 4.66655 2.4 1 0.0282453 0.0284317 0.0176471 0.0249705 0.0323484 0.0317026 0.0333162 0.0346629 0.0608777 0.0641933 0.0483757 0.0693099 0.0600579 0.0564604 0.0745802 0.0654924 0.0668757 0.0690834 0.0695169 0.0657265
95 3 O -1.56242 88.9451 4.47551 -1.2 1 0.0307972 0.0281877 0.0168108 0.0272062 0.0315576 0.0327633 0.0239654 0.073917 0.0358632 0.0686228 0.0373185 0.0643174 0.0616227 0.0749449 0.0729713 0.0682558 0.0617506 0.0610598 0.0655947 0.0666503
96 3 O 1.49114 85.102 4.82124 -1.2 1 0.021756 0.022456 0.0228477 0.0222764 0.0252581 0.0250913 0.0306026 0.0484421 0.0630445 0.0423522 0.048738 0.0492799 0.0636984 0.0782135 0.0872591 0.0639493 0.0727841 0.0604907 0.0704884 0.0576575
97 3 O 0.821036 88.1884 3.31018 -1.2 1 0.0282444 0.0204647 0.0312716 0.0144507 0.0323389 0.0255479 0.0515764 0.0482693 0.038901 0.0513627 0.0635328 0.0489304 0.0621136 0.0556346 0.0763098 0.0836252 0.0707876 0.0560725 0.0645536 0.0701114
98 3 O 0.722009 88.2092 5.89928 -1.2 1 0.0148315 0.0249089 0.0247679 0.0218794 0.0291892 0.0313186 0.0553934 0.0354561 0.0362105 0.0541672 0.0516284 0.0408998 0.0518669 0.0807637 0.0756478 0.0855378 0.0689056 0.0632387 0.0677758 0.0647441
99 1 Mg -0.0117793 84.1548 3.20962 1.2 1 0.00686306 0.020651 0.0135108 0.0384217 0.0215754 0.0295974 0.0244151 0.0480255 0.0507393 0.0589969 0.0456429 0.044013 0.0447695 0.0568697 0.0636957 0.0837665 0.0872219 0.0759952 0.0788134 0.0567016
100 1 Mg 0.167086 81.7956 4.71736 1.2 1 0.0156525 0.0143696 0.0150096 0.0319139 0.0152326 0.0243265 0.0326328 0.0393132 0.0514484 0.0576706 0.0636582 0.0601533 0.053817 0.0692031 0.0575369 0.0815656 0.0716292 0.100147 0.0688745 0.0895107
101 2 Si 2.05025 83.5481 4.86446 2.4 1 0.0168625 0.0162827 0.0251695 0.026816 0.0318994 0.0295643 0.0425704 0.0457425 0.0555654 0.0526549 0.0556685 0.0663079 0.0750149 0.0584834 0.0615637 0.0743164 0.064777 0.0927365 0.0713421 0.056568
102 3 O -1.11508 83.6966 4.71212 -1.2 1 0.030609 0.0194204 0.0205464 0.0174763 0.0206606 0.0312322 0.0293524 0.0656483 0.0363243 0.0623321 0.0453862 0.064917 0.0554112 0.0674957 0.079708 0.0721821 0.0520188 0.0662381 0.0577876 0.0748657
103 3 O 1.16076 79.6014 4.93407 -1.2 1 0.0212123 0.0198887 0.0244414 0.0325032 0.0145616 0.0274975 0.0423342 0.040865 0.062937 0.0434031 0.0501279 0.0395273 0.0665939 0.0735563 0.0900371 0.0732288 0.0734804 0.062842 0.074011 0.0517222
104 3 O 1.31402 82.8284 3.57716 -1.2 1 0.00779506 0.0167929 0.0331371 0.018233 0.0281742 0.0276227 0.0462263 0.0487516 0.0359095 0.0478052 0.0547477 0.0526396 0.0640221 0.0650424 0.0861041 0.0685043 0.0771245 0.0654511 0.0631369 0.0617051
105 1 Mg -0.106406 84.6019 0.32753 1.2 1 0.0251786 0.0299871 0.0130247 0.031257 0.0162098 0.0349962 0.0219083 0.0556889 0.0346078 0.0827193 0.0259886 0.0430782 0.0305222 0.0842612 0.0324528 0.0999097 0.0523193 0.0954052 0.0503488 0.0885677
106 3 O 1.32983 83.1132 6.24759 -1.2 1 0.00661121 0.0153731 0.0247502 0.0248351 0.0287525 0.0251746 0.0484434 0.04858 0.0490455 0.0409327 0.0600404 0.0441912 0.0521878 0.0528804 0.0987752 0.0808343 0.0637614 0.0690209 0.0661767 0.0772308
107 1 Mg -0.0802498 87.4123 1.87672 1.2 1 0.022011 0.0238605 0.0125121 0.0342894 0.0254993 0.0298972 0.0320154 0.0271412 0.052495 0.0629186 0.0653708 0.0557411 0.0602171 0.0618866 0.0572161 0.0828238 0.068421 0.10006 0.0594416 0.0741582
108 2 Si -2.13157 85.3892 1.84843 2.4 1 0.0169388 0.0181945 0.0222812 0.0247594 0.0231146 0.0362877 0.047004 0.0377625 0.0439467 0.0703671 0.0471599 0.0654739 0.079473 0.0671251 0.0732145 0.0635148 0.0590647 0.0922488 0.0476769 0.0695369
109 3 O 1.11394 85.2891 1.81667 -1.2 1 0.0228807 0.0249134 0.0166691 0.0168116 0.0286754 0.0277431 0.0325216 0.0661233 0.048254 0.0482909 0.0549102 0.0780526 0.039271 0.0758321 0.0721268 0.0629871 0.0716316 0.070422 0.0557051 0.0746371
110 3 O -1.36195 89.5239 1.72603 -1.2 1 0.0194925 0.0229315 0.0236479 0.0228177 0.020187 0.0360175 0.0465095 0.0403244 0.046841 0.0473355 0.0571887 0.0457743 0.0501057 0.0803587 0.0863975 0.0674276 0.0857971 0.0576026 0.0595028 0.0489701
111 3 O -1.44344 86.1867 0.510755 -1.2 1 0.0237773 0.0252559 0.02829 0.0275905 0.0256865 0.0294657 0.0486782 0.0489403 0.0483503 0.0448979 0.0611515 0.0547216 0.0570127 0.0734556 0.0874482 0.0744914 0.0771347 0.0682396 0.0665896 0.0589449
112 3 O -1.55748 86.2651 2.92985 -1.2 1 0.020082 0.0181928 0.0245632 0.028578 0.0248596 0.0271929 0.0510508 0.0592371 0.0372963 0.0472095 0.0555702 0.0487575 0.0592999 0.0879245 0.0850433 0.0691777 0.0817548 0.0591587 0.0775629 0.0618912
113 1 Mg -2.81674 89.6866 0.385779 1.2 1 0.0405528 0.013087 0.0174359 0.032816 0.027536 0.0301612 0.027439 0.0618576 0.0518607 0.0544607 0.0504155 0.0407592 0.0505184 0.0611417 0.0575434 0.0795364 0.090958 0.0737184 0.0640213 0.0667297
114 1 Mg 2.34881 93.3599 1.37309 1.2 1 0.0252938 0.0171226 0.0271695 0.0202158 0.025053 0.0347502 0.0403222 0.0433447 0.0524649 0.0503785 0.0615722 0.0548703 0.0627983 0.0703206 0.0813115 0.0575292 0.0814116 0.0759664 0.0665974 0.0681108
115 2 Si -0.677762 90.9933 1.85825 2.4 1 0.0227956 0.0246054 0.033692 0.0247101 0.0467726 0.0310154 0.03625 0.0498583 0.0465089 0.0521321 0.0633622 0.0676896 0.073579 0.062938 0.0681409 0.0703286 0.0710837 0.0935333 0.0544962 0.0679012
116 3 O 0.748859 90.7187 1.8084 -1.2 1 0.0314873 0.00740114 0.0329521 0.0163393 0.0302417 0.0310704 0.0436046 0.057111 0.0601831 0.0479765 0.059595 0.067071 0.0505792 0.0526399 0.0796658 0.064514 0.0752954 0.0699373 0.0639825 0.0641154
117 3 O -1.42239 95.3805 1.74521 -1.2 1 0.0130842 0.0174182 0.0230553 0.027109 0.0181623 0.0329863 0.0434868 0.0492475 0.0608987 0.0315563 0.0592678 0.0493704 0.0559649 0.0749451 0.0850259 0.0570108 0.076788 0.0561053 0.0833231 0.0566704
118 3 O -1.10651 92.0379 0.599193 -1.2 1 0.0210871 0.015828 0.0324777 0.0291223 0.0282968 0.0345718 0.0403901 0.0431793 0.0372218 0.0442872 0.0636782 0.0398634 0.0603453 0.0620382 0.0777417 0.0864262 0.0684461 0.0739029 0.0612346 0.0712179
119 1 Mg -2.3643 100.67 3.491 1.2 1 0.0121517 0.00858753 0.0194203 0.0300743 0.0171034 0.035466 0.0238266 0.0568779 0.0350862 0.0686186 0.0396773 0.0507103 0.0441547 0.0577381 0.0541938 0.0892275 0.0640326 0.0879089 0.0646441 0.0739578
120 3 O -1.26637 91.5516 3.16541 -1.2 1 0.0189277 0.01701 0.0283614 0.0342952 0.038388 0.024463 0.041802 0.0439135 0.0513318 0.0519983 0.0544609 0.0549658 0.0546564 0.0629524 0.101724 0.0691267 0.0793945 0.075395 0.0608884 0.0609252
121 1 Mg -2.32675 97.8467 4.80631 1.2 1 0.0140123 0.0207153 0.0111459 0.0292049 0.0190303 0.0313105 0.0321299 0.0332513 0.0369281 0.058461 0.0694559 0.0577686 0.0608326 0.0598709 0.0707468 0.0823157 0.0776825 0.0820053 0.072883 0.0661954
122 2 Si 0.403077 99.7217 4.88569 2.4 1 0.0193883 0.0129438 0.0185364 0.0385666 0.0339968 0.0335415 0.0394065 0.0522876 0.0562615 0.0501197 0.0419818 0.0693746 0.0782868 0.057643 0.074916 0.0664856 0.0725426 0.0830321 0.0594191 0.0578362
123 3 O -1.18343 99.7059 4.80028 -1.2 1 0.0212039 0.0200482 0.0116125 0.0183325 0.0261559 0.039242 0.0258174 0.0713736 0.0459893 0.0624614 0.0457571 0.0709818 0.0712881 0.0757633 0.07657 0.065526 0.0743927 0.0614825 0.0614562 0.0625322
124 3 O 1.38169 95.8298 4.45426 -1.2 1 0.00857235 0.0190742 0.026051 0.0401584 0.0148463 0.042191 0.0375982 0.0444918 0.0634849 0.0463913 0.0484273 0.0431055 0.0677094 0.0786006 0.0908962 0.0825724 0.0654934 0.0731997 0.0670645 0.0584153
125 3 O 0.955404 99.1738 3.47615 -1.2 1 0.0139749 0.0190147 0.0288634 0.0221169 0.0314335 0.0284436 0.042956 0.046593 0.0410992 0.0489224 0.0624424 0.0493609 0.0558838 0.0570665 0.0847485 0.0641407 0.0823495 0.0660792 0.0633038 0.0682755