ITEM: TIMESTEP
15800
ITEM: NUMBER OF ATOMS
5600
ITEM: BOX BOUNDS xy xz yz pp pp pp
0	7.1235	0
0	201.985	2.3745
0	119.584	0
ITEM: ATOMS id type element xu yu zu q Q_1 Q_2 Q_3 Q_4 Q_5 Q_6 Q_7 Q_8 Q_9 Q_10 Q_11 Q_12 Q_13 Q_14 Q_15 Q_16 Q_17 Q_18 Q_19 Q_20 Q_21
1 1 Mg -1.51639 49.5272 -0.688919 1.2 1 0.437132 0.0820972 0.133329 0.0367765 0.0682431 0.049246 0.0506425 0.0495989 0.06977 0.0631909 0.0883446 0.0883989 0.0905208 0.0998597 0.107508 0.0978629 0.0899518 0.112438 0.100984 0.089729
2 1 Mg 2.99403 50.9766 2.44898 1.2 1 0.29446 0.126187 0.043873 0.0542005 0.0454035 0.0415228 0.0701817 0.063084 0.0592658 0.0774684 0.0681787 0.0695132 0.0784854 0.0733286 0.0903584 0.098547 0.0846674 0.0903395 0.0768541 0.0882919
3 2 Si 0.920913 51.1192 0.577524 2.4 1 0.273666 0.140698 0.0369291 0.062217 0.0423319 0.0395108 0.061473 0.0506391 0.0755777 0.0676729 0.071908 0.0677743 0.0618133 0.0809096 0.0881306 0.0688461 0.0670217 0.0752006 0.0752232 0.0765239
4 3 O 2.18151 50.2429 0.785073 -1.2 1 0.367355 0.105567 0.076486 0.0669791 0.0377219 0.055765 0.0538836 0.0739322 0.0558015 0.0856696 0.0719726 0.0780023 0.0762921 0.0805752 0.0875817 0.0777738 0.0727378 0.0796992 0.0672367 0.0871861
5 3 O -1.12113 53.9531 1.83668 -1.2 1 0.0957459 0.0580035 0.0443233 0.0190573 0.0249781 0.0330057 0.0367426 0.0494373 0.0650545 0.0474948 0.066195 0.0514963 0.0581161 0.0681399 0.074266 0.0732723 0.0831646 0.0596059 0.0571193 0.0768927
6 3 O 0.0422787 50.5633 -0.570349 -1.2 1 0.343423 0.122749 0.0605838 0.0723577 0.0154845 0.0570734 0.0430934 0.063908 0.0678715 0.0661973 0.0814405 0.0974944 0.0665098 0.0881196 0.0860171 0.0898175 0.0859006 0.0719305 0.078647 0.0834834
7 1 Mg -2.28668 59.6768 3.1806 1.2 1 0.0150958 0.0132777 0.00868648 0.032274 0.00737952 0.037415 0.0189268 0.0621368 0.0226554 0.0727355 0.0160148 0.049856 0.0175865 0.0713773 0.0214856 0.103735 0.0259589 0.114995 0.0307056 0.0943564
8 3 O 0.184965 50.9952 1.96408 -1.2 1 0.287639 0.147255 0.0550053 0.0473005 0.03762 0.0510659 0.0577713 0.0709995 0.0651143 0.0937369 0.0779458 0.0641207 0.0530735 0.0679475 0.0926292 0.0809266 0.0754276 0.0878591 0.0682985 0.0862904
9 1 Mg -2.09707 56.8096 4.6909 1.2 1 0.0173738 0.0169021 0.0266575 0.033514 0.0184341 0.0285444 0.0229656 0.0262754 0.049439 0.0602685 0.0619301 0.0514618 0.0490006 0.0643815 0.0580799 0.0810547 0.0791002 0.0775062 0.0668794 0.0804547
10 2 Si 0.479398 58.6645 4.70827 2.4 1 0.0120077 0.0118115 0.0259 0.0253646 0.0364157 0.0329778 0.0324219 0.0507124 0.0552932 0.0544905 0.0549142 0.0654002 0.0687123 0.0566886 0.0855147 0.065164 0.0614196 0.0896593 0.0593302 0.0572966
11 3 O -1.04845 58.7424 4.69978 -1.2 1 0.0249616 0.00835551 0.0194827 0.0308332 0.0286522 0.0245135 0.0230863 0.0722253 0.044988 0.0545169 0.0406588 0.0713216 0.0556388 0.0629673 0.0693424 0.0732437 0.0632037 0.0686255 0.0621281 0.0808471
12 3 O 1.90547 54.4385 4.77595 -1.2 1 0.0664604 0.0404458 0.0374614 0.0374633 0.0292328 0.0309726 0.03416 0.0357529 0.0650546 0.0621426 0.0722649 0.0429818 0.0546586 0.0801312 0.0746067 0.0759799 0.0727032 0.0697227 0.0643849 0.0687767
13 3 O 1.15085 57.9803 3.42596 -1.2 1 0.0150642 0.00486901 0.0294652 0.0261248 0.021542 0.0291846 0.0522118 0.0419569 0.0358444 0.0545397 0.049141 0.0430672 0.0552345 0.0609872 0.0853576 0.0872973 0.0721164 0.0576881 0.0665759 0.064876
14 3 O 1.27799 58.0065 5.91428 -1.2 1 0.0230174 0.0128046 0.0296768 0.0159917 0.0194954 0.0267611 0.0444745 0.0450367 0.0373693 0.047032 0.0531675 0.0497662 0.0513806 0.0544266 0.0857708 0.0675336 0.0819153 0.0655767 0.0552446 0.0660937
15 1 Mg 0.505457 53.572 2.91289 1.2 1 0.106575 0.082873 0.0281272 0.0201507 0.0268949 0.028024 0.0374792 0.0469813 0.0629597 0.0369893 0.0654689 0.0584907 0.0391777 0.0642716 0.0599477 0.0760937 0.0808875 0.0870534 0.0658413 0.0795851
16 1 Mg 0.960584 49.9987 3.4411 1.2 1 0.393141 0.0856121 0.0804997 0.0732875 0.0460998 0.0641838 0.0539832 0.0634091 0.0741787 0.0745135 0.0852106 0.0735181 0.0630288 0.0708877 0.0991382 0.0990443 0.0945858 0.0718943 0.0823736 0.0802779
17 2 Si 2.59717 53.0237 4.72403 2.4 1 0.109728 0.106546 0.0444272 0.0357353 0.0322778 0.0420514 0.0335015 0.0436042 0.0737617 0.0638332 0.0783492 0.0581508 0.0739148 0.0757018 0.0643185 0.0911369 0.080577 0.0923905 0.0698772 0.0640943
18 3 O -0.619343 53.3082 4.68621 -1.2 1 0.12414 0.0843956 0.0295911 0.0234253 0.01778 0.0434589 0.0434085 0.0544263 0.0582467 0.0752698 0.0507945 0.0804082 0.0739357 0.0725659 0.0779449 0.0740078 0.0774764 0.0668708 0.0907839 0.0528513
19 3 O 2.70329 49.2441 3.43394 -1.2 1 0.479833 0.0495111 0.117524 0.037244 0.0780472 0.0418909 0.0736484 0.0841192 0.0784536 0.0653086 0.0789771 0.0736336 0.0812803 0.0897892 0.0973633 0.0969932 0.0960838 0.106263 0.0924106 0.0779523
20 3 O 2.01958 52.2229 3.48275 -1.2 1 0.183197 0.115337 0.0195731 0.0281382 0.0266116 0.059664 0.0344598 0.0658897 0.0445867 0.0533354 0.0653285 0.0744424 0.0740727 0.0835041 0.0815066 0.081435 0.0834184 0.0704489 0.0654441 0.083683
21 1 Mg 0.115665 54.4408 0.245081 1.2 1 0.0703763 0.0507165 0.0370821 0.0332932 0.0158883 0.0159614 0.0240508 0.0548719 0.0523699 0.0672901 0.0410553 0.0486809 0.0453414 0.0607528 0.0664931 0.0800919 0.0816641 0.0805656 0.0688376 0.0746124
22 3 O 2.03214 52.0405 5.93162 -1.2 1 0.214683 0.108451 0.0206805 0.0435888 0.0392201 0.0374807 0.0506038 0.0592635 0.0607098 0.0583702 0.0700601 0.0786581 0.0621742 0.0862325 0.0671381 0.0687523 0.0802979 0.0700213 0.0581467 0.0708702
23 1 Mg 0.154925 57.2784 1.76911 1.2 1 0.0152263 0.00734208 0.0197811 0.0278914 0.0159215 0.0325004 0.0339049 0.0381732 0.0329807 0.0554608 0.0642486 0.0592857 0.0650749 0.0672614 0.0716861 0.0799004 0.0795283 0.0743808 0.0715419 0.079492
24 2 Si -1.87182 55.3555 1.92354 2.4 1 0.0245459 0.0233907 0.0266629 0.0280791 0.0166009 0.0324642 0.0500657 0.0544417 0.0522454 0.062309 0.0590548 0.0526443 0.0713965 0.0576219 0.0523913 0.0627575 0.0802321 0.0720978 0.0628214 0.0550133
25 3 O 1.34153 55.0744 1.80022 -1.2 1 0.0190416 0.0414288 0.0335834 0.0186542 0.0240476 0.0334942 0.0287123 0.0520759 0.0542825 0.0516247 0.0607701 0.0518743 0.0563981 0.0746863 0.0712142 0.0676991 0.0641319 0.0693684 0.0466157 0.0699917
26 3 O -0.994279 59.131 1.70469 -1.2 1 0.0172724 0.0206586 0.0172953 0.0199333 0.0180721 0.0367839 0.0362973 0.0401711 0.0566243 0.0433402 0.0378215 0.0484529 0.0563197 0.0743126 0.0966276 0.0685031 0.0719665 0.0567262 0.0823281 0.0611618
27 3 O -1.29585 56.0756 0.598166 -1.2 1 0.0318264 0.00995482 0.0184969 0.0280436 0.0222874 0.0311346 0.047956 0.0378373 0.0330446 0.0411093 0.0656907 0.045057 0.0606731 0.0576384 0.0741588 0.07205 0.0613503 0.0691535 0.076584 0.0668855
28 3 O -1.28397 56.1627 3.13637 -1.2 1 0.00936468 0.029692 0.0240983 0.0239278 0.0219717 0.0281692 0.046012 0.0445554 0.0446009 0.0474817 0.06541 0.0462717 0.0452961 0.0695437 0.0776404 0.0829471 0.0552511 0.0702083 0.0607875 0.081797
29 1 Mg -2.39136 59.5473 0.274972 1.2 1 0.00689206 0.0148033 0.0145223 0.0259097 0.0112189 0.0360367 0.0139518 0.06105 0.0158162 0.0858591 0.0206514 0.0511429 0.0183522 0.072026 0.0167758 0.100188 0.0208214 0.114466 0.02462 0.100357
30 1 Mg 2.35531 62.4967 1.59279 1.2 1 0.0150615 0.0111745 0.0145474 0.0297624 0.0155284 0.0210337 0.0219071 0.0325245 0.0387743 0.0609055 0.0532202 0.054329 0.0603941 0.0617321 0.0617622 0.0755521 0.0742094 0.0976471 0.0703721 0.0834794
31 2 Si -0.351621 60.6196 1.65695 2.4 1 0.0165263 0.0221063 0.0173557 0.0290215 0.029282 0.0331354 0.0374893 0.0485932 0.0506805 0.053967 0.0504485 0.0641976 0.0715889 0.0541014 0.0739853 0.0726852 0.0560589 0.0965931 0.0560194 0.0559776
32 3 O 1.17176 60.5494 1.6624 -1.2 1 0.018285 0.0196888 0.0207795 0.0291974 0.019271 0.0228292 0.0219066 0.0768169 0.0448574 0.0509225 0.0433081 0.0720876 0.0634019 0.0599783 0.0745335 0.0640662 0.0593638 0.0721446 0.0585985 0.0739654
33 3 O -1.26586 64.3386 1.57608 -1.2 1 0.0144338 0.0179245 0.0238851 0.0173246 0.0218154 0.0359079 0.0335123 0.0394349 0.0507439 0.0439859 0.0378425 0.0503011 0.0480353 0.0683522 0.100938 0.0736119 0.071668 0.0526809 0.0745389 0.0630811
34 3 O -1.11307 61.314 0.405931 -1.2 1 0.0163397 0.0129955 0.0290369 0.0189865 0.0228619 0.0206914 0.0387887 0.043214 0.0341934 0.0503458 0.0544687 0.0420404 0.0547788 0.0486862 0.0830045 0.068341 0.0740926 0.0667876 0.0621484 0.0713471
35 1 Mg -2.25499 69.9066 3.02607 1.2 1 0.00992565 0.0106899 0.00515866 0.0315272 0.0067524 0.035355 0.0077564 0.0593269 0.0116797 0.0814621 0.012773 0.0481032 0.011891 0.0719352 0.0188728 0.107626 0.0192952 0.11482 0.0237614 0.0926047
36 3 O -1.03329 61.3521 2.93473 -1.2 1 0.0183862 0.0134021 0.0275645 0.0219734 0.0224127 0.0219852 0.0441588 0.0405403 0.0388496 0.0481798 0.0522421 0.0433626 0.0533101 0.0512404 0.089275 0.0707505 0.0674312 0.0691285 0.0619009 0.0751421
37 1 Mg -2.10456 67.096 4.66625 1.2 1 0.0205995 0.00986893 0.0156536 0.0246676 0.00925966 0.0192931 0.024901 0.0345997 0.0405638 0.0590487 0.0564673 0.05807 0.0623182 0.0624765 0.0625225 0.075635 0.0759314 0.0965912 0.0806826 0.072966
38 2 Si 0.529726 69.0012 4.60534 2.4 1 0.0200099 0.0111918 0.0134862 0.0348724 0.0240606 0.0316177 0.0428197 0.0414601 0.0505703 0.0521532 0.0490446 0.0677306 0.0716128 0.0598991 0.0798061 0.0622505 0.0570749 0.0913411 0.0542061 0.0558739
39 3 O -1.02558 69.0276 4.53996 -1.2 1 0.0197654 0.00982448 0.0131839 0.0253407 0.021698 0.0278684 0.0247768 0.0645877 0.0374176 0.0519314 0.0439583 0.0690371 0.0543529 0.0653407 0.0657052 0.0649177 0.0533735 0.0744552 0.0616272 0.0723537
40 3 O 1.47578 65.3299 4.64733 -1.2 1 0.00735753 0.0205744 0.0258253 0.0156518 0.0169185 0.0337222 0.0352406 0.0470994 0.0525686 0.0421887 0.0398025 0.0460219 0.0441527 0.062883 0.10933 0.0707084 0.067726 0.0508013 0.0684149 0.069419
41 3 O 1.18764 68.3015 3.2585 -1.2 1 0.00775028 0.0200998 0.0312052 0.0194784 0.0243264 0.0213543 0.0434587 0.0398222 0.0385844 0.0479123 0.0576443 0.0378721 0.0517123 0.054726 0.0864158 0.0666304 0.0721034 0.0571336 0.0606829 0.071677
42 3 O 1.29486 68.3806 5.85478 -1.2 1 0.00864872 0.0172223 0.0307773 0.0186068 0.0207477 0.017623 0.0461548 0.0394003 0.0400169 0.0407186 0.0506675 0.0392774 0.0525343 0.0522968 0.0869962 0.0592567 0.0766463 0.0642583 0.0679546 0.0676686
43 1 Mg 0.0876128 64.7652 3.07722 1.2 1 0.0090106 0.0185045 0.00774843 0.0309802 0.00997195 0.0315474 0.0120433 0.054118 0.0150057 0.0849251 0.0141518 0.0526365 0.0155098 0.0721424 0.0188375 0.098467 0.0249777 0.112666 0.0287586 0.0951821
44 1 Mg -0.0493084 62.0144 4.60523 1.2 1 0.0165479 0.0151909 0.0168797 0.0297917 0.0128143 0.0191362 0.0203743 0.0315617 0.0428099 0.0642988 0.0623272 0.052191 0.056287 0.0671418 0.0601813 0.0839704 0.0697223 0.0927703 0.0776765 0.0804289
45 2 Si 2.11627 63.843 4.65844 2.4 1 0.0154219 0.0240337 0.0151115 0.0300543 0.0252276 0.02709 0.0374203 0.0406075 0.0477852 0.0520577 0.052132 0.057721 0.0669798 0.0562952 0.0763375 0.0715789 0.0634529 0.0944645 0.0554004 0.0518657
46 3 O -1.09028 64.0527 4.57976 -1.2 1 0.0214352 0.00596105 0.0198589 0.0256581 0.0171656 0.0238759 0.0300448 0.0653239 0.0471241 0.0433473 0.0430134 0.0670965 0.0500393 0.0618488 0.0763576 0.0681637 0.0626283 0.0783508 0.0516602 0.0781071
47 3 O 1.08237 60.1876 4.70704 -1.2 1 0.0168891 0.0190021 0.029369 0.012671 0.0122094 0.0384918 0.0375187 0.0496032 0.0573006 0.0465776 0.0385225 0.0507451 0.0500215 0.0679651 0.105896 0.0674961 0.0673967 0.0499634 0.070947 0.0737588
48 3 O 1.40786 63.138 3.40915 -1.2 1 0.0143327 0.0132594 0.0246508 0.0198713 0.0237901 0.0188494 0.0432521 0.0413439 0.0361935 0.0479704 0.0501779 0.0394819 0.0562701 0.0598851 0.0815482 0.0729082 0.0778837 0.0672607 0.063402 0.0704728
49 1 Mg 0.0560544 64.9891 0.161853 1.2 1 0.0118996 0.0179589 0.00747729 0.0349057 0.0133509 0.0397133 0.0153787 0.0587694 0.0262311 0.0723414 0.0291658 0.0485108 0.0220659 0.0648243 0.0336128 0.100543 0.0542677 0.104205 0.052385 0.0831501
50 3 O 1.40748 63.2424 5.9777 -1.2 1 0.0111389 0.00906547 0.0263201 0.0251426 0.022495 0.0189687 0.0516028 0.0420638 0.0361506 0.0428133 0.0581058 0.0369056 0.0525153 0.0625637 0.0940392 0.0710574 0.0733997 0.0602317 0.0640264 0.0748995
51 1 Mg 0.150101 67.6969 1.64481 1.2 1 0.020607 0.0134234 0.0163006 0.0290728 0.0116803 0.0208964 0.0222977 0.0350809 0.0383488 0.0574379 0.0508265 0.058278 0.0615149 0.0596938 0.0629321 0.0712239 0.0824251 0.0902778 0.0758193 0.0772647
52 2 Si -1.95955 65.8555 1.59741 2.4 1 0.0294407 0.0131933 0.0201525 0.030241 0.0250101 0.0260457 0.0416518 0.04254 0.0487791 0.0578387 0.0506597 0.0653487 0.0658063 0.0521633 0.0704234 0.0712125 0.0547084 0.0959372 0.057837 0.061283
53 3 O 1.20225 65.7753 1.61407 -1.2 1 0.0122239 0.0193769 0.0171533 0.0245051 0.016843 0.0261148 0.0262619 0.0821958 0.0344093 0.0526076 0.0441737 0.0687644 0.0604998 0.0636301 0.0737139 0.0712356 0.0558209 0.0716797 0.061411 0.0672382
54 3 O -0.895917 69.5102 1.53517 -1.2 1 0.0194838 0.0207377 0.0241532 0.0246979 0.0190268 0.0348288 0.0298801 0.043585 0.0576022 0.0410327 0.0449165 0.043525 0.0543238 0.0713224 0.102232 0.0744731 0.0669488 0.0513526 0.0771717 0.0612365
55 3 O -1.37201 66.5624 0.28072 -1.2 1 0.00931222 0.0159341 0.0283563 0.0153856 0.0193526 0.0196707 0.0450407 0.0419131 0.0386892 0.0552954 0.0508668 0.0366237 0.0568041 0.0535094 0.0837296 0.0774012 0.0677945 0.0631913 0.0645765 0.0722057
56 3 O -1.29561 66.5146 2.85867 -1.2 1 0.00887951 0.0141281 0.0317471 0.011217 0.0175352 0.0169056 0.0406273 0.0453075 0.0390393 0.0502639 0.0490701 0.0360568 0.0556508 0.060243 0.0800391 0.0721553 0.0754419 0.0626064 0.0650328 0.0665661
57 1 Mg -2.35535 69.8502 0.101655 1.2 1 0.00719073 0.0208769 0.00738671 0.0330419 0.00772535 0.037608 0.00799675 0.057067 0.015825 0.0873864 0.0161433 0.0532395 0.0154686 0.0697613 0.017454 0.101169 0.0228848 0.114076 0.0317949 0.102047
58 1 Mg 2.44267 72.9376 1.57787 1.2 1 0.022204 0.0149578 0.0131387 0.024996 0.011727 0.0194282 0.028169 0.0349783 0.0399381 0.0562837 0.0546411 0.0652376 0.0564054 0.0619566 0.0703823 0.0637902 0.0756358 0.103289 0.0725946 0.077265
59 2 Si -0.24633 70.9716 1.49955 2.4 1 0.0200126 0.0102252 0.0177588 0.0299854 0.0294734 0.0315206 0.0407105 0.0440453 0.0525282 0.0541893 0.0500017 0.0633391 0.0698247 0.0537298 0.079323 0.071977 0.0595658 0.0911361 0.0559013 0.0553438
60 3 O 1.31801 70.8655 1.51092 -1.2 1 0.0222253 0.0104388 0.0121588 0.0230774 0.0209029 0.0270197 0.0270823 0.0638446 0.0391779 0.0545466 0.0404386 0.0665688 0.0538309 0.0626322 0.0735283 0.0633789 0.0646641 0.0708714 0.0580318 0.0751097
61 3 O -1.25131 74.7081 1.66715 -1.2 1 0.0101758 0.0212163 0.0241031 0.0188465 0.0131474 0.0342837 0.0330245 0.0469874 0.0577399 0.0432493 0.0460892 0.043799 0.0519941 0.0696565 0.105031 0.0713774 0.070261 0.0503691 0.0739416 0.0592538
62 3 O -0.884105 71.6005 0.205561 -1.2 1 0.0164975 0.00933903 0.0279647 0.017033 0.0226698 0.0233364 0.0438503 0.0448928 0.034583 0.0485989 0.05156 0.0407311 0.0581286 0.0593278 0.0752829 0.0741983 0.0754777 0.0630807 0.0666489 0.0734404
63 1 Mg -2.21688 80.2616 3.16737 1.2 1 0.0127707 0.0117199 0.00866673 0.0266975 0.00688751 0.0371343 0.012018 0.060554 0.0115513 0.0803838 0.0162939 0.0537384 0.0145503 0.0646479 0.0212096 0.104347 0.0197947 0.113518 0.0234047 0.0937836
64 3 O -0.93083 71.6766 2.75689 -1.2 1 0.0125025 0.021042 0.0238636 0.0140484 0.0242418 0.0254332 0.0417093 0.0366308 0.0364767 0.0447626 0.0540165 0.0454634 0.0550261 0.0510426 0.0904461 0.0667099 0.070872 0.0617535 0.0693065 0.0623994
65 1 Mg -2.10268 77.497 4.6467 1.2 1 0.0139859 0.0133562 0.0222183 0.026403 0.0152315 0.0227143 0.0202218 0.0288507 0.041401 0.0640289 0.0523946 0.052321 0.0601743 0.0665749 0.0583635 0.0824208 0.0724639 0.0959099 0.071722 0.0848429
66 2 Si 0.551477 79.2587 4.67091 2.4 1 0.0257207 0.0161036 0.0197692 0.0336787 0.0270859 0.0312392 0.035445 0.0434149 0.0518339 0.0508183 0.0495952 0.066771 0.0715201 0.0558759 0.0690632 0.0754691 0.0604087 0.0919259 0.0588087 0.0536346
67 3 O -1.04059 79.4085 4.67884 -1.2 1 0.0185651 0.0106896 0.0169231 0.0237657 0.0164017 0.0272806 0.024615 0.0651338 0.0371985 0.0497767 0.0465006 0.0685509 0.0551075 0.0602725 0.0666059 0.067237 0.058054 0.0723255 0.0581498 0.078402
68 3 O 1.64016 75.6906 4.59722 -1.2 1 0.00575825 0.022113 0.0219215 0.0169402 0.0179907 0.0339562 0.0325855 0.0449018 0.0552991 0.046782 0.0423852 0.0470823 0.0515179 0.0714156 0.105217 0.0712226 0.0671005 0.0511384 0.0678518 0.0681904
69 3 O 1.13284 78.6501 3.31374 -1.2 1 0.00645903 0.00818204 0.0232931 0.0262853 0.0225031 0.0195527 0.0451624 0.0409763 0.0394382 0.0473843 0.0518184 0.0362756 0.0552897 0.0575845 0.0829234 0.0712672 0.0707784 0.0601752 0.0678337 0.0722201
70 3 O 1.24228 78.4977 5.8807 -1.2 1 0.0205273 0.0142234 0.0251705 0.0164425 0.0256116 0.0216439 0.0417525 0.0440865 0.0353657 0.0514439 0.0539191 0.0379751 0.0579724 0.0538337 0.0775601 0.0731608 0.0717354 0.0637624 0.0627031 0.0667062
71 1 Mg 0.0764227 75.2126 3.09658 1.2 1 0.00670755 0.0153557 0.00665877 0.0337228 0.00714142 0.0355679 0.00749665 0.0558867 0.010944 0.082823 0.0142261 0.0512293 0.0150861 0.0719398 0.0170086 0.102944 0.024216 0.113683 0.027893 0.096793
72 1 Mg 0.0842861 72.3499 4.44885 1.2 1 0.0132036 0.0145116 0.0215234 0.029805 0.0165018 0.0207825 0.0194915 0.0298677 0.0417729 0.0604783 0.0545066 0.0555475 0.0619842 0.0634663 0.0599204 0.0809668 0.0685509 0.0972135 0.0730669 0.0868264
73 2 Si 2.24498 74.1515 4.63256 2.4 1 0.0166273 0.0160116 0.0204754 0.0336987 0.0308014 0.0280049 0.0427389 0.0379931 0.0448851 0.055278 0.0543778 0.0598172 0.0771449 0.0570246 0.0860982 0.0702651 0.0558095 0.0878554 0.0590212 0.0632295
74 3 O -1.00672 74.1864 4.60917 -1.2 1 0.0149515 0.00870318 0.0161158 0.0220819 0.024205 0.0213164 0.0168612 0.0693773 0.0411748 0.0501523 0.0440288 0.069354 0.0565879 0.0612547 0.0690946 0.0642528 0.0542601 0.0729412 0.0554294 0.0705014
75 3 O 1.15915 70.4861 4.48412 -1.2 1 0.00849667 0.0178066 0.0220681 0.0180974 0.0192998 0.03195 0.0358645 0.0481484 0.0541719 0.0436947 0.043051 0.0457982 0.0505611 0.0650784 0.107388 0.0767317 0.0680789 0.0542702 0.0650189 0.0616218
76 3 O 1.51907 73.476 3.36378 -1.2 1 0.00911824 0.0142607 0.0280121 0.01136 0.0233162 0.0212678 0.0462961 0.0423488 0.034857 0.0458645 0.0521585 0.0375434 0.0512762 0.0649025 0.0819018 0.0750044 0.0749709 0.0603935 0.0722518 0.0622896
77 1 Mg 0.148891 75.0236 0.190045 1.2 1 0.0118409 0.0147826 0.00878319 0.0297857 0.00843848 0.0372825 0.0104975 0.0582822 0.0187668 0.0843603 0.0200417 0.0503678 0.0220566 0.0688165 0.0222446 0.102358 0.0292831 0.114242 0.0442252 0.0955063
78 3 O 1.55413 73.5041 5.90444 -1.2 1 0.0115491 0.00520273 0.026979 0.0217481 0.0215495 0.02302 0.0462912 0.0439034 0.0364825 0.0456973 0.053619 0.0372358 0.05431 0.0601406 0.0845229 0.072196 0.0694684 0.0607325 0.0644127 0.0693576
79 1 Mg 0.190764 78.0608 1.69585 1.2 1 0.0125379 0.0140646 0.018576 0.0300769 0.0159378 0.0225266 0.0276752 0.0345163 0.038059 0.0600321 0.0511406 0.0611497 0.0637159 0.0660622 0.0686816 0.0745419 0.0820357 0.0916526 0.0758426 0.0753394
80 2 Si -1.98632 76.1898 1.63433 2.4 1 0.017794 0.0126815 0.0191888 0.0328558 0.0285947 0.0240024 0.0390293 0.0425797 0.0430568 0.060457 0.0546568 0.0605615 0.0686389 0.0550344 0.074403 0.0757128 0.0610305 0.0928669 0.0592117 0.0642706
81 3 O 1.21775 76.0914 1.58044 -1.2 1 0.0173711 0.0117213 0.00916767 0.0249065 0.0233968 0.0240463 0.022277 0.0668171 0.0343964 0.0573733 0.0385086 0.0712468 0.0588991 0.0641915 0.0763471 0.0634437 0.0632009 0.0733834 0.0662305 0.0684397
82 3 O -0.918319 79.8584 1.69203 -1.2 1 0.00784626 0.0205412 0.0267752 0.0182792 0.0179809 0.0384854 0.0358561 0.0465066 0.056807 0.0426545 0.0409052 0.0449975 0.0525012 0.0662608 0.111418 0.0732117 0.0683707 0.0470087 0.0756081 0.0624095
83 3 O -1.34274 76.8288 0.234953 -1.2 1 0.00776633 0.0147002 0.0195409 0.0224676 0.0173725 0.0240171 0.04537 0.0465663 0.0346317 0.0505902 0.0530753 0.0352295 0.056359 0.0570928 0.0824975 0.0745192 0.0672132 0.0610152 0.059488 0.0787854
84 3 O -1.24494 76.8722 2.8498 -1.2 1 0.0179575 0.0111272 0.0242656 0.0151674 0.0265127 0.0178934 0.0486085 0.0432502 0.0324993 0.0459739 0.053082 0.035847 0.0539206 0.0633786 0.0753129 0.0748539 0.0705485 0.0634857 0.0660742 0.0659314
85 1 Mg -2.34033 80.3145 0.166331 1.2 1 0.00722383 0.0185242 0.00631101 0.0302708 0.00808081 0.0354084 0.0102356 0.0555461 0.00923332 0.0849097 0.0120188 0.0520478 0.0159736 0.0720999 0.0146043 0.102046 0.0154344 0.11509 0.0186527 0.100104
86 1 Mg 2.34898 83.1631 1.58076 1.2 1 0.0224249 0.0149092 0.0216699 0.0280811 0.0213911 0.025327 0.0283238 0.0333156 0.037039 0.0607129 0.0546708 0.0620372 0.0610103 0.0685367 0.0642027 0.0749392 0.0707878 0.10063 0.0706044 0.0839789
87 2 Si -0.287405 81.3322 1.66542 2.4 1 0.0159114 0.0122623 0.0189374 0.0272439 0.0256884 0.031407 0.0414284 0.0430648 0.0528098 0.0508383 0.0501495 0.0652716 0.07196 0.0562734 0.0738928 0.0708554 0.053131 0.10088 0.0560336 0.0589942
88 3 O 1.25864 81.2956 1.69531 -1.2 1 0.0212802 0.0120359 0.0140816 0.0231538 0.0225387 0.0240432 0.0191605 0.0739153 0.0418922 0.0548741 0.0399602 0.0742204 0.0620815 0.0651157 0.0734201 0.0653765 0.0588972 0.0673964 0.0665363 0.0661479
89 3 O -1.22616 85.0037 1.58661 -1.2 1 0.00443116 0.0161815 0.028539 0.0177177 0.0177864 0.0362487 0.0365965 0.0440662 0.0501175 0.0440125 0.0414683 0.0469201 0.0438516 0.0654658 0.110482 0.0681043 0.071779 0.0580899 0.0726136 0.0622307
90 3 O -0.974274 81.9698 0.37552 -1.2 1 0.00659549 0.0123722 0.02414 0.016586 0.0155091 0.0201019 0.0448018 0.0469329 0.0354239 0.0500629 0.0524368 0.0391368 0.0559182 0.0637745 0.0860595 0.0719282 0.0784212 0.0609837 0.0660884 0.067133
91 1 Mg -2.35388 90.6542 3.00985 1.2 1 0.00659999 0.0109469 0.00698915 0.0278977 0.00630597 0.0375909 0.00624752 0.0616853 0.0133334 0.0829031 0.0119768 0.0511235 0.0123803 0.0711857 0.0156036 0.100073 0.0174052 0.117277 0.0215799 0.0995021
92 3 O -1.01367 81.9956 2.9769 -1.2 1 0.0131763 0.0100102 0.0262905 0.0162194 0.0153014 0.0243808 0.0489671 0.0401725 0.0388944 0.0424448 0.055619 0.038161 0.0510004 0.0458143 0.0913111 0.072712 0.0651305 0.0607214 0.0587214 0.07862
93 1 Mg -2.22144 87.8777 4.60636 1.2 1 0.0184198 0.010478 0.0211032 0.0290521 0.0137469 0.0224817 0.0217036 0.0264404 0.0451911 0.0614031 0.0526753 0.0540463 0.0570981 0.0640177 0.0602945 0.0785673 0.0669863 0.101427 0.0656466 0.0884676
94 2 Si 0.390425 89.6696 4.46943 2.4 1 0.0197774 0.0115143 0.0170214 0.0292888 0.0298963 0.0316963 0.042784 0.0397284 0.0458402 0.054711 0.0546449 0.0647419 0.0714477 0.0525011 0.0754771 0.0701424 0.0578049 0.0951673 0.0623066 0.0527034
95 3 O -1.16867 89.7922 4.47988 -1.2 1 0.0200072 0.0145241 0.0133372 0.031353 0.0245228 0.0224068 0.0221745 0.0657735 0.0403189 0.0487994 0.0425609 0.0672431 0.0487154 0.0581863 0.0685849 0.0614954 0.0592903 0.0718449 0.0566355 0.0760596
96 3 O 1.61567 86.0213 4.6618 -1.2 1 0.0184615 0.0238595 0.0213441 0.0196954 0.0227179 0.0330146 0.0286452 0.0437172 0.0589971 0.0466888 0.0417306 0.0426827 0.0503551 0.0677935 0.10364 0.0703198 0.0690948 0.0513678 0.06883 0.0705358
97 3 O 1.0703 89.0881 3.13649 -1.2 1 0.0175882 0.0152498 0.0269492 0.0207668 0.0194762 0.0224728 0.0453679 0.0444354 0.0433782 0.0451674 0.0563623 0.0374826 0.0548678 0.0568731 0.084606 0.0720959 0.072941 0.0638307 0.0633833 0.0766558
98 3 O 1.06689 88.9813 5.67469 -1.2 1 0.00879677 0.0105804 0.0246148 0.0183372 0.0199915 0.0208821 0.0405748 0.0382592 0.0372892 0.045901 0.0527643 0.0384123 0.0500899 0.0620411 0.0798369 0.0707687 0.0788514 0.0635642 0.0715144 0.0617455
99 1 Mg 0.104526 85.4482 3.06333 1.2 1 0.00399372 0.0187625 0.00852903 0.0335576 0.00907527 0.0318131 0.00855541 0.0565943 0.0122686 0.084394 0.0100311 0.0493692 0.0109749 0.0709437 0.0110157 0.10191 0.0203949 0.11599 0.0225446 0.104757
100 1 Mg 0.177218 82.5892 4.64909 1.2 1 0.0174197 0.0165839 0.017139 0.0271192 0.0107089 0.0248116 0.0230695 0.0329505 0.0420233 0.0611378 0.0544656 0.0582395 0.0607965 0.0648955 0.0632193 0.0696761 0.073008 0.10763 0.0664812 0.0921561
101 2 Si 2.15931 84.5313 4.59737 2.4 1 0.00898182 0.012042 0.0164543 0.0367821 0.0276618 0.0321491 0.041835 0.0409253 0.0551522 0.053938 0.0461227 0.0657598 0.0722515 0.0563291 0.0772548 0.0626904 0.0592286 0.0918861 0.0524411 0.0568095
102 3 O -0.963458 84.605 4.62019 -1.2 1 0.0214672 0.00830285 0.0125756 0.0201852 0.0197098 0.0210628 0.0207717 0.0728182 0.0343904 0.0519211 0.0452268 0.0654433 0.0480538 0.0660602 0.0744851 0.0692359 0.052363 0.0727675 0.0576084 0.082406
103 3 O 1.21142 80.7234 4.69616 -1.2 1 0.0133322 0.0153687 0.0263462 0.0245025 0.0165765 0.0326691 0.0379811 0.0457038 0.0544913 0.0422847 0.0475147 0.0444414 0.0541926 0.0692687 0.106508 0.0778933 0.070867 0.0480745 0.0756943 0.0590195
104 3 O 1.44413 83.8466 3.35936 -1.2 1 0.00474243 0.0118333 0.0269208 0.0174123 0.0180673 0.0206409 0.0429105 0.0413417 0.0348205 0.0429073 0.0551246 0.0382618 0.0516545 0.0588284 0.0843191 0.0616104 0.0786342 0.0605835 0.0683253 0.0710418
105 1 Mg 0.00219742 85.4107 0.0185649 1.2 1 0.0074426 0.00979673 0.011018 0.0322368 0.00599335 0.0379559 0.00816322 0.0571292 0.0137135 0.0784522 0.017815 0.0519458 0.0165566 0.07051 0.0227231 0.105539 0.0321509 0.107386 0.0294105 0.0894254
106 3 O 1.55033 83.8451 5.89639 -1.2 1 0.0190596 0.00827177 0.0262256 0.0201764 0.028704 0.024005 0.0476624 0.0378274 0.0390998 0.0491546 0.0534281 0.0427206 0.0495584 0.0666113 0.0748533 0.0744772 0.0691653 0.0544219 0.0605304 0.075005
107 1 Mg 0.0898163 88.3555 1.48331 1.2 1 0.0147388 0.0172862 0.0174248 0.0320825 0.0169737 0.026904 0.0206885 0.0339016 0.0394786 0.0670289 0.0579778 0.0461358 0.0631307 0.0664173 0.058419 0.0804736 0.0678695 0.097666 0.0737969 0.0870487
108 2 Si -1.9573 86.5042 1.56408 2.4 1 0.010498 0.0158112 0.0185217 0.029049 0.0336043 0.0319606 0.0419728 0.0419999 0.0513815 0.0498784 0.0550429 0.0659117 0.0714935 0.0564932 0.0780481 0.0708846 0.0576294 0.0972164 0.0550762 0.0548335
109 3 O 1.25078 86.397 1.59709 -1.2 1 0.0169373 0.0164725 0.0186464 0.0207352 0.0322104 0.0272071 0.0256504 0.0662636 0.0400077 0.0538581 0.0426574 0.0717919 0.053113 0.0659577 0.0786334 0.065523 0.0600847 0.0737501 0.0579347 0.074392
110 3 O -0.997439 90.1631 1.49989 -1.2 1 0.0146801 0.0227811 0.0201802 0.0160334 0.0217705 0.0347197 0.0303004 0.0400971 0.0525948 0.0501803 0.0354929 0.0466614 0.0477384 0.0648655 0.102839 0.068093 0.066873 0.0549901 0.0732233 0.065896
111 3 O -1.23301 87.107 0.274894 -1.2 1 0.0118847 0.010709 0.0321883 0.0260825 0.0254131 0.0209126 0.0492212 0.0420104 0.0341221 0.0469893 0.0571325 0.0458817 0.0522443 0.055788 0.0944779 0.069241 0.071749 0.0561205 0.0655831 0.072076
112 3 O -1.24199 87.2441 2.841 -1.2 1 0.0118186 0.0166678 0.0260155 0.0226327 0.0156253 0.0167412 0.0397418 0.0474863 0.0313425 0.049175 0.0543737 0.0416044 0.0531843 0.0531676 0.0867095 0.0684981 0.0742185 0.0665423 0.0681019 0.0693986
113 1 Mg -2.38209 90.6818 -0.0534136 1.2 1 0.0163143 0.0158287 0.0167472 0.0286704 0.0122054 0.033322 0.0149766 0.0556063 0.0181847 0.0809055 0.0192148 0.0512542 0.0189933 0.0737474 0.0194184 0.098383 0.0322271 0.116676 0.0301411 0.0915069
114 1 Mg 2.33111 93.516 1.54463 1.2 1 0.0124751 0.0170785 0.0200398 0.0281357 0.0154852 0.0225637 0.0187439 0.0290793 0.0437593 0.0619859 0.0506064 0.052856 0.060503 0.0633711 0.0568735 0.0841979 0.070493 0.100222 0.0649902 0.0911711
115 2 Si -0.396091 91.623 1.52561 2.4 1 0.0090952 0.017851 0.0216411 0.0295389 0.0302708 0.0291321 0.0405327 0.0412519 0.0537323 0.0564602 0.0514054 0.0630254 0.0687275 0.0601421 0.0810601 0.0715028 0.0624948 0.0920678 0.0465011 0.0614561
116 3 O 1.13897 91.6151 1.53862 -1.2 1 0.0204715 0.0180219 0.0135762 0.0266423 0.0273417 0.0285514 0.025658 0.0733 0.0406244 0.0497831 0.0441404 0.0690106 0.0550012 0.0623781 0.0728785 0.0702447 0.0581206 0.074417 0.0591827 0.0763097
117 3 O -1.47629 95.3487 1.54784 -1.2 1 0.0087362 0.0204267 0.0291254 0.0162364 0.0195251 0.0327635 0.0298007 0.0463688 0.0546944 0.0449948 0.0425531 0.0463142 0.047186 0.0667908 0.10877 0.0702349 0.0668404 0.0503859 0.0708962 0.07175
118 3 O -1.06696 92.3819 0.254309 -1.2 1 0.00950673 0.013159 0.0245272 0.0229784 0.0207195 0.0206642 0.0462282 0.042514 0.0306495 0.0463406 0.0548407 0.0417675 0.0544368 0.0618231 0.0804447 0.0741345 0.0732479 0.0600305 0.0597825 0.0719881
119 1 Mg -2.41071 101.107 3.06084 1.2 1 0.00282512 0.0181452 0.00639085 0.0279078 0.00544513 0.0361247 0.0085001 0.0613131 0.0115058 0.0853437 0.00770831 0.0509908 0.0150971 0.0739361 0.00945744 0.104927 0.0158469 0.120532 0.0194971 0.0981256
120 3 O -1.08379 92.2973 2.85062 -1.2 1 0.0128054 0.011419 0.0298588 0.0257697 0.019748 0.0178029 0.0442633 0.0457827 0.0413347 0.0424136 0.0550407 0.0452209 0.0478442 0.0549963 0.0884968 0.0723072 0.0746493 0.0584474 0.0659331 0.0720444
121 1 Mg -2.43209 98.1852 4.47406 1.2 1 0.0204357 0.0154322 0.018449 0.0257611 0.0112703 0.0298674 0.0244421 0.0348254 0.044337 0.0619759 0.0580288 0.0545199 0.0598114 0.067538 0.063469 0.0732009 0.065583 0.106247 0.0649465 0.0873765
122 2 Si 0.242618 100.062 4.51597 2.4 1 0.0149331 0.0190035 0.0148455 0.0332649 0.028845 0.0322946 0.0453064 0.0383762 0.0477872 0.0603457 0.0558502 0.0717769 0.0707759 0.0594126 0.0804906 0.0668503 0.0601171 0.0946623 0.0523322 0.0611541
123 3 O -1.28445 100.124 4.50766 -1.2 1 0.0163205 0.0163634 0.0184476 0.0238857 0.0224977 0.0296188 0.0203025 0.0797402 0.0371234 0.0574341 0.0456442 0.0730606 0.0567208 0.0650414 0.0746908 0.0707495 0.0568513 0.0743097 0.0569406 0.0699158
124 3 O 1.43458 96.3737 4.64475 -1.2 1 0.013655 0.0206939 0.0236748 0.0224138 0.021475 0.0317538 0.0313776 0.0470081 0.0519931 0.0471042 0.0466486 0.0432241 0.0562379 0.0698413 0.104148 0.0751694 0.0677818 0.0543704 0.0722868 0.0651555
125 3 O 0.976096 99.4553 3.20498 -1.2 1 0.0107192 0.00586081 0.0342101 0.0272521 0.0317957 0.0166495 0.0510938 0.042798 0.041138 0.0474655 0.0524929 0.0402942 0.0538923 0.0646549 0.0880702 0.0693831 0.073843 0.0579192 0.0600509 0.0747969