ITEM: TIMESTEP
1000
ITEM: NUMBER OF ATOMS
756
ITEM: BOX BOUNDS pp pp pp
-4.8435403183999997e+00 9.6870806368999993e+00
-1.0186409263300000e+01 2.0372818526500001e+01
-6.0013959751000003e+00 1.2002791950200001e+01
ITEM: ATOMS id type x y z q2 q3 q4 q5 q6 q7 q8 q9 q10 q11 q12
1 1 0.0368423 -10.1237 -0.048675 0.0371705  0.0241478  0.347415  0.0217526  0.202265  0.0263624  0.346086  0.0270393  0.137086  0.0270469  0.182749  
2 1 -0.0371786 -7.33986 -4.47795 0.0446208  0.119796  0.103892  0.0563849  0.189868  0.0763426  0.329316  0.0888071  0.0874223  0.0700877  0.198953  
3 2 -2.74901 -9.16215 -4.50595 0.0126941  0.0834335  0.275579  0.0560601  0.161477  0.0554352  0.319578  0.0632703  0.103383  0.0605526  0.158195  
4 3 -1.18984 -9.20492 -4.50841 0.0197361  0.0490902  0.230713  0.0236245  0.171168  0.0333563  0.307238  0.0320312  0.095407  0.0314698  0.18344  
5 3 -3.82743 -5.54848 -4.47686 0.0449258  0.0789853  0.196454  0.034996  0.212262  0.0471729  0.323799  0.0507181  0.122146  0.0442654  0.205731  
6 3 -3.45286 -8.5064 -5.79977 0.0314379  0.0881268  0.167166  0.0474775  0.189717  0.0478243  0.322271  0.0500341  0.0775176  0.0499407  0.163796  
7 1 -0.019705 -10.1387 -3.03399 0.0520604  0.0189387  0.337406  0.0196192  0.204042  0.0280697  0.362213  0.0245017  0.123252  0.0305415  0.198854  
8 3 -3.4134 -8.54591 -3.2065 0.0297663  0.0964023  0.13956  0.0446836  0.191647  0.0446604  0.322752  0.0544665  0.0758113  0.0521013  0.174515  
9 1 -4.7154 -2.77707 -1.47591 0.0524184  0.106415  0.136451  0.047673  0.171845  0.0639542  0.339754  0.0728062  0.0778715  0.0572251  0.148605  
10 2 -2.04287 -0.976196 -1.47481 0.0184007  0.108179  0.279409  0.0645594  0.18377  0.0639801  0.32335  0.0675106  0.123577  0.0674309  0.172482  
11 3 -3.60272 -0.847744 -1.47916 0.0228466  0.0511862  0.228863  0.0262618  0.172853  0.0365973  0.310926  0.0351176  0.0993451  0.0334964  0.18234  
12 3 -0.98517 -4.54717 -1.45701 0.0471634  0.0768897  0.195349  0.0398436  0.21497  0.0406275  0.323076  0.0464258  0.118683  0.0462507  0.203654  
13 3 -1.38318 -1.62669 -2.73814 0.0316459  0.0880969  0.16799  0.0461399  0.196066  0.0423968  0.320471  0.0496936  0.0839635  0.0462182  0.176902  
14 3 -1.40838 -1.6589 -0.182239 0.0342871  0.0903178  0.148716  0.0500495  0.195559  0.0532869  0.322958  0.0530681  0.0886959  0.0512067  0.184149  
15 1 -2.43114 -4.95888 -2.93578 0.0520065  0.0210302  0.324341  0.0267076  0.201502  0.0264237  0.35492  0.0378282  0.113637  0.032884  0.187366  
16 1 -2.52692 -7.84886 -1.47904 0.0448263  0.12932  0.101862  0.0508136  0.184848  0.0810352  0.340637  0.0835102  0.0771443  0.0780726  0.196329  
17 2 -0.354367 -6.03523 -1.50822 0.0235385  0.107204  0.275432  0.0614744  0.181337  0.0718024  0.325415  0.0700258  0.111455  0.0727769  0.175087  
18 3 -3.6396 -5.89173 -1.48413 0.0212202  0.0488001  0.226598  0.0241315  0.16904  0.034979  0.313751  0.0367564  0.0924218  0.0299418  0.174392  
19 3 -1.35912 -9.6925 -1.56785 0.0441112  0.0783471  0.198671  0.0406601  0.219083  0.0441914  0.325769  0.0503398  0.123077  0.0515085  0.203596  
20 3 -1.09256 -6.66403 -2.78429 0.0308497  0.0883896  0.163348  0.0444117  0.195832  0.0405495  0.325606  0.0495117  0.0784095  0.0458103  0.172889  
21 1 -2.46343 -4.93496 -0.0173869 0.0338521  0.0165468  0.306212  0.025471  0.200042  0.0242467  0.342694  0.0260162  0.113445  0.0258323  0.187281  
22 3 -1.042 -6.72303 -0.243961 0.034274  0.0885091  0.166969  0.0437804  0.197686  0.0449081  0.334293  0.0503375  0.0779524  0.0556576  0.17749  
23 1 -2.32958 -2.24974 -4.52226 0.0427853  0.138954  0.10122  0.0669557  0.173828  0.0785378  0.331796  0.0953548  0.0784357  0.0887209  0.189578  
24 2 -4.49157 -4.06325 -4.51251 0.0205337  0.106842  0.276266  0.064858  0.180759  0.0715274  0.327814  0.0721792  0.117655  0.0708721  0.176266  
25 3 -1.24134 -4.13828 -4.47678 0.0196368  0.0494409  0.227146  0.0258268  0.173603  0.0341359  0.298917  0.03635  0.0956428  0.0304101  0.182493  
26 3 -3.49501 -0.488122 -4.46251 0.046119  0.0772167  0.199964  0.0368119  0.213236  0.0457179  0.325759  0.0471811  0.123115  0.048102  0.202812  
27 3 -3.80516 -3.36657 -5.79144 0.0314007  0.0881216  0.162773  0.045109  0.194553  0.0471695  0.325214  0.0483649  0.0754926  0.0525592  0.171828  
28 3 -3.80514 -3.43625 -3.21524 0.0308743  0.0878731  0.164828  0.0511679  0.190006  0.0469408  0.325532  0.0526189  0.0722723  0.0532647  0.167832  
30 1 -0.128218 -7.42674 1.49177 0.0478294  0.10421  0.145237  0.0592524  0.186756  0.0599012  0.348376  0.0725454  0.0754151  0.0659397  0.180083  
31 2 -2.74602 -9.25643 1.44729 0.0189785  0.109886  0.258632  0.0647636  0.178526  0.0745241  0.322236  0.0703521  0.133701  0.0706077  0.177174  
32 3 -1.15437 -9.28583 1.44994 0.0209722  0.0489179  0.229133  0.0298767  0.175317  0.0333786  0.316314  0.0278145  0.0943343  0.0370487  0.173983  
33 3 -3.8737 -5.52971 1.52317 0.0454164  0.0781472  0.20081  0.0371724  0.214794  0.0465368  0.329392  0.0538752  0.123384  0.0507403  0.20627  
34 3 -3.4589 -8.58338 0.154695 0.0274417  0.100844  0.157937  0.0352216  0.184233  0.0444801  0.329645  0.0567205  0.0667895  0.0496682  0.158861  
36 3 -3.49471 -8.56359 2.68233 0.0344298  0.096153  0.147022  0.0426814  0.196629  0.0440828  0.333084  0.0570935  0.0853526  0.0568155  0.186327  
51 1 -2.35081 -2.2686 1.58213 0.0519371  0.110614  0.14621  0.0484109  0.177101  0.0713821  0.338904  0.0759499  0.0879226  0.0589892  0.173219  
52 2 -4.50935 -4.02645 1.55591 0.0213099  0.108606  0.278564  0.0651336  0.183375  0.0698918  0.326482  0.0751461  0.11632  0.0714544  0.180331  
53 3 -1.22505 -4.18212 1.50786 0.0228382  0.0491984  0.230219  0.0282644  0.173663  0.0353398  0.315803  0.0354639  0.0976126  0.0363896  0.179064  
54 3 -3.48569 -0.456462 1.49981 0.0423877  0.0731264  0.174018  0.034403  0.212894  0.0609617  0.318901  0.0494642  0.115307  0.0428868  0.197331  
55 3 -3.7763 -3.36075 0.280825 0.0342641  0.0995743  0.145185  0.0423677  0.188457  0.0524847  0.319477  0.0545721  0.0884044  0.0574403  0.176711  
56 3 -3.80267 -3.39964 2.8194 0.0339236  0.0956604  0.148787  0.0488264  0.198779  0.0547643  0.32385  0.0524296  0.0958199  0.0577399  0.196697  
253 1 4.79851 -10.2944 -0.0302016 0.0427357  0.0564357  0.325457  0.0303832  0.172192  0.0565447  0.352185  0.0493103  0.108887  0.0427956  0.174057  
254 1 4.77193 -7.33893 -4.44111 0.0499738  0.11694  0.101626  0.0622755  0.176492  0.0762207  0.329259  0.0806036  0.0831186  0.0718383  0.186915  
255 2 2.13654 -9.22847 -4.57469 0.0190461  0.111943  0.255471  0.0679432  0.181433  0.0695086  0.31721  0.07953  0.121128  0.0801277  0.18868  
256 3 3.68399 -9.25413 -4.46563 0.0202184  0.0482098  0.227069  0.0291422  0.171426  0.0365143  0.300652  0.035515  0.0930445  0.0370733  0.185725  
257 3 1.00741 -5.55137 -4.53294 0.0422505  0.0567553  0.201909  0.0355028  0.207578  0.0316811  0.320829  0.0318784  0.113815  0.0392839  0.195773  
258 3 1.39841 -8.54261 -5.80928 0.0344026  0.0881829  0.167055  0.0441581  0.194193  0.0464678  0.325229  0.0502256  0.0727871  0.0468498  0.177179  
259 1 4.88865 -10.0279 -2.98315 0.0427611  0.0614322  0.320025  0.0276396  0.176988  0.0593221  0.341249  0.0499726  0.102291  0.0504525  0.172054  
260 3 1.41586 -8.53111 -3.24778 0.0316679  0.0899189  0.170873  0.045701  0.201774  0.0459228  0.327761  0.0536679  0.0798938  0.0508892  0.180662  
261 1 0.0712265 -2.84974 -1.36693 0.0467152  0.122825  0.103649  0.0519005  0.192099  0.0733867  0.324093  0.0800023  0.0918164  0.0696471  0.197775  
262 2 2.71704 -0.987634 -1.4336 0.0197568  0.114621  0.258619  0.0655623  0.186463  0.0831214  0.325071  0.0789048  0.122592  0.079787  0.193573  
263 3 1.15443 -0.955256 -1.41026 0.0210093  0.0459384  0.231357  0.0278108  0.179863  0.0348344  0.311981  0.0315985  0.0973351  0.0297618  0.187676  
264 3 3.77907 -4.58145 -1.44223 0.0429624  0.058001  0.203364  0.0321541  0.205177  0.0371733  0.325438  0.0312914  0.118897  0.0472404  0.196554  
265 3 3.41003 -1.61889 -2.73764 0.0329929  0.0923992  0.14626  0.0487843  0.193451  0.0455983  0.324168  0.0570074  0.082435  0.0545788  0.185527  
266 3 3.46171 -1.60986 -0.167571 0.0306858  0.0910492  0.167834  0.0440505  0.194933  0.0500425  0.339175  0.0511564  0.0843032  0.0536763  0.183522  
267 1 2.37164 -5.10851 -2.96548 0.0373802  0.0595907  0.347833  0.0236657  0.187753  0.0475849  0.358716  0.052903  0.125292  0.0530972  0.189702  
268 1 2.37697 -7.92049 -1.53194 0.0500659  0.112168  0.144082  0.0517587  0.185469  0.069789  0.332249  0.0739151  0.0799564  0.0624991  0.17592  
269 2 4.48935 -6.07427 -1.52496 0.0143493  0.0892925  0.252814  0.0620294  0.162694  0.0543421  0.320779  0.0630638  0.104475  0.0602989  0.174148  
270 3 1.19671 -6.05374 -1.53588 0.019284  0.0467107  0.227704  0.030543  0.175297  0.0362281  0.307324  0.0300561  0.09395  0.0323208  0.178259  
271 3 3.43472 -9.70503 -1.50644 0.0471177  0.0792442  0.198947  0.0390968  0.213331  0.0426761  0.318832  0.0450764  0.118988  0.0496913  0.201435  
272 3 3.80672 -6.71326 -2.77562 0.0339014  0.0857174  0.167163  0.0522173  0.192953  0.0400047  0.321537  0.0496677  0.0799403  0.0508408  0.170543  
273 1 2.42122 -5.16231 0.0850719 0.0390443  0.0276341  0.328562  0.0239804  0.1659  0.0405151  0.362853  0.0419402  0.120282  0.0369998  0.172639  
274 3 3.80953 -6.73566 -0.226655 0.0332798  0.0940867  0.144188  0.0457119  0.193699  0.0491293  0.319912  0.052399  0.0835474  0.057352  0.180676  
275 1 2.4696 -2.26217 -4.45568 0.0446286  0.124253  0.107059  0.0516751  0.187296  0.0800103  0.325018  0.0902847  0.0888483  0.0698045  0.185798  
276 2 0.331882 -4.06582 -4.50187 0.015117  0.0943325  0.222271  0.0651171  0.16403  0.0516805  0.301842  0.0716734  0.119149  0.0597933  0.183866  
277 3 3.58423 -4.284 -4.46367 0.0254005  0.0475455  0.232605  0.0254581  0.173852  0.0353937  0.307756  0.0328031  0.10958  0.0325145  0.188545  
278 3 1.37634 -0.537685 -4.42081 0.0432836  0.0701772  0.174315  0.0395375  0.22485  0.0531783  0.317111  0.0499087  0.120497  0.0417561  0.209027  
279 3 1.0599 -3.39611 -5.76407 0.033031  0.0943267  0.146144  0.0417009  0.198193  0.0531688  0.32042  0.04833  0.100255  0.0534313  0.190968  
280 3 1.04125 -3.41981 -3.234 0.0321613  0.0943487  0.146439  0.0441132  0.2047  0.0510163  0.320701  0.0535973  0.0937966  0.0541918  0.195498  
282 1 4.82788 -7.33248 1.42198 0.0403362  0.124654  0.0599579  0.0603325  0.188449  0.0845386  0.317159  0.0823776  0.0915251  0.0674377  0.206243  
283 2 2.07263 -9.19667 1.51839 0.0160891  0.0879305  0.256617  0.0630784  0.164519  0.0561196  0.319958  0.0612366  0.117793  0.0612112  0.172686  
284 3 3.6346 -9.31051 1.4715 0.0204862  0.0527025  0.232142  0.0205975  0.170318  0.036557  0.304065  0.0316025  0.102158  0.0372011  0.172696  
285 3 0.973921 -5.6302 1.53781 0.0478624  0.078261  0.198075  0.0382163  0.214298  0.0453104  0.335868  0.0447303  0.115959  0.0435934  0.202929  
286 3 1.37417 -8.54598 0.243056 0.0314404  0.089922  0.14557  0.0526395  0.199031  0.044973  0.323501  0.0539252  0.0960369  0.0580048  0.186625  
288 3 1.34054 -8.55061 2.7937 0.0326646  0.0899701  0.165706  0.0441292  0.192535  0.0430207  0.330224  0.0515961  0.0811256  0.0535908  0.173804  
303 1 2.49171 -2.33431 1.54179 0.0447029  0.115973  0.104419  0.0649008  0.18319  0.0678428  0.348088  0.0781068  0.0820969  0.0683336  0.199036  
304 2 0.327204 -4.0775 1.55674 0.0211695  0.120059  0.230079  0.0723046  0.180703  0.0784139  0.321798  0.0781267  0.131006  0.0815052  0.190542  
305 3 3.61468 -4.18869 1.52524 0.0200364  0.0458408  0.232067  0.0297525  0.16878  0.0351434  0.320891  0.030674  0.106048  0.0327613  0.183214  
306 3 1.40952 -0.554162 1.58321 0.0474439  0.0737498  0.200524  0.0399452  0.21551  0.0412534  0.335259  0.0450445  0.122368  0.0459055  0.207669  
307 3 1.09847 -3.50319 0.303784 0.0331516  0.0910867  0.168158  0.0425112  0.195461  0.0417806  0.333756  0.0481617  0.0804899  0.0504366  0.182296  
308 3 1.08511 -3.47541 2.76833 0.0328823  0.0896314  0.166823  0.0471095  0.191813  0.0474177  0.343927  0.0507606  0.0721189  0.0602503  0.17549  
505 1 9.66849 -10.1869 -0.0300331 0.0486909  0.00588036  0.359467  0.00836543  0.20843  0.013531  0.386394  0.0194168  0.12857  0.0173154  0.209127  
506 1 9.59457 -7.31412 -4.54223 0.0469208  0.120772  0.103728  0.0531277  0.179306  0.0708398  0.334229  0.0786871  0.0885762  0.0681896  0.190579  
507 2 6.97149 -9.19835 -4.54547 0.0188312  0.111649  0.253656  0.0747876  0.181911  0.0754243  0.318176  0.0812254  0.116301  0.0794092  0.18224  
508 3 8.51998 -9.23139 -4.47659 0.019199  0.0475997  0.225949  0.0291602  0.171837  0.0360889  0.309937  0.0389594  0.0931004  0.0351201  0.176052  
509 3 5.90243 -5.58496 -4.53981 0.0469091  0.0784033  0.201812  0.0377992  0.210994  0.0450645  0.327303  0.0464411  0.12238  0.0463972  0.202528  
510 3 6.24954 -8.61382 -5.88505 0.0324398  0.0927388  0.16309  0.0409525  0.196516  0.0497114  0.326901  0.048089  0.0751042  0.0541123  0.17978  
511 1 9.70012 -10.1572 -3.05419 0.0452267  0.028961  0.29801  0.0234802  0.180647  0.0290398  0.355584  0.0297291  0.10925  0.034112  0.172478  
512 3 6.29922 -8.44906 -3.27205 0.0287274  0.0996127  0.135947  0.0536331  0.191419  0.0538612  0.31559  0.0571051  0.0768788  0.0606699  0.183412  
513 1 4.87674 -2.78502 -1.53283 0.0485831  0.126602  0.104855  0.054547  0.175375  0.0827582  0.337704  0.0909715  0.0840308  0.0900016  0.19056  
514 2 7.56436 -0.974272 -1.51784 0.0184324  0.12219  0.232369  0.0676527  0.17816  0.0784814  0.318449  0.0827103  0.13186  0.0763755  0.198097  
515 3 6.0087 -0.896173 -1.4882 0.0191757  0.0488024  0.230214  0.0303246  0.171153  0.0310048  0.318474  0.0331864  0.0932802  0.0317613  0.183411  
516 3 8.61818 -4.51298 -1.43007 0.0457442  0.0785259  0.20176  0.0394719  0.211893  0.0422838  0.328207  0.0437253  0.11749  0.0471426  0.198511  
517 3 8.27629 -1.65564 -2.7781 0.0334576  0.0963639  0.143355  0.0464487  0.192855  0.0533931  0.328595  0.0529108  0.0834051  0.0570259  0.185293  
518 3 8.27484 -1.60306 -0.212994 0.0325446  0.0949424  0.146501  0.0482868  0.191192  0.0506954  0.328672  0.0518079  0.0882562  0.0525145  0.186929  
519 1 7.29151 -5.02911 -2.98276 0.0420909  0.0564631  0.328145  0.0408711  0.174039  0.0473726  0.364418  0.0414064  0.110092  0.0539546  0.17643  
520 1 7.25474 -7.86258 -1.51502 0.0398584  0.12903  0.0585765  0.0618484  0.186541  0.0845143  0.324535  0.0835331  0.0838436  0.0801013  0.207912  
521 2 9.3608 -5.9935 -1.44745 0.0219488  0.109248  0.257651  0.0713217  0.180113  0.0685937  0.321586  0.0732058  0.131644  0.0798265  0.177598  
522 3 6.03793 -6.02103 -1.5041 0.0190191  0.0494537  0.231205  0.0286935  0.172093  0.0334715  0.311557  0.034594  0.0922528  0.0362303  0.178602  
523 3 8.26285 -9.66079 -1.54838 0.0435004  0.0786527  0.197746  0.0359639  0.208893  0.0445587  0.329509  0.0525036  0.102924  0.0542321  0.190027  
524 3 8.66581 -6.74587 -2.72367 0.030401  0.102005  0.139771  0.047941  0.185872  0.0456583  0.325278  0.0584344  0.0776538  0.0503831  0.176436  
525 1 7.21265 -4.96295 0.026511 0.0391653  0.0579113  0.325282  0.0291641  0.178905  0.0598617  0.358159  0.0562526  0.108786  0.0420177  0.178481  
526 3 8.67599 -6.64679 -0.142214 0.0275357  0.0949401  0.158782  0.042459  0.184323  0.0401309  0.327212  0.0551627  0.059258  0.0486252  0.158072  
527 1 7.38585 -2.28245 -4.48453 0.0513634  0.110712  0.151733  0.0575457  0.205199  0.0771942  0.339833  0.0767999  0.0907826  0.0764093  0.185142  
528 2 5.13914 -4.08887 -4.4995 0.0189998  0.0945284  0.280421  0.075366  0.183377  0.0685791  0.327673  0.0706174  0.142083  0.0710782  0.197671  
529 3 8.46146 -4.12155 -4.46668 0.0210874  0.0474001  0.2309  0.0272472  0.170616  0.0349829  0.315877  0.0342007  0.0981319  0.031842  0.182133  
530 3 6.28633 -0.509467 -4.43043 0.0481539  0.0796729  0.198442  0.0363613  0.2105  0.0464537  0.329766  0.053665  0.121726  0.0492033  0.200575  
531 3 5.81193 -3.44747 -5.815 0.0343425  0.0905685  0.170013  0.0428089  0.191225  0.0441466  0.335035  0.0518539  0.0879082  0.056529  0.174104  
532 3 5.8155 -3.41789 -3.23272 0.0319009  0.0880179  0.168313  0.0456893  0.187545  0.0475194  0.333951  0.0535045  0.0811725  0.0538875  0.17313  
534 1 9.6249 -7.3785 1.51286 0.0452447  0.11287  0.147779  0.0477818  0.17667  0.0653024  0.342282  0.0786619  0.071281  0.0652911  0.157904  
535 2 6.9095 -9.22767 1.45766 0.0261292  0.0905413  0.232668  0.0531247  0.177222  0.0601442  0.320321  0.0596535  0.155284  0.0623247  0.187175  
536 3 8.47066 -9.40673 1.40237 0.0222308  0.0284793  0.226743  0.0265126  0.182622  0.0268537  0.318751  0.024416  0.0948902  0.0217717  0.175866  
537 3 5.88173 -5.52416 1.50275 0.039432  0.0588415  0.201255  0.0299454  0.204559  0.0305306  0.325115  0.0387896  0.100532  0.0368783  0.191293  
538 3 6.2146 -8.52774 0.190001 0.0329013  0.0894437  0.163273  0.0472388  0.189511  0.0475067  0.323054  0.0544314  0.0762467  0.0558838  0.164558  
540 3 6.26937 -8.49721 2.7127 0.0314468  0.0952448  0.16278  0.0476287  0.181204  0.0427586  0.31761  0.0591521  0.0832143  0.0551517  0.158669  
555 1 7.40092 -2.23147 1.50732 0.0411786  0.126782  0.136398  0.0620139  0.169989  0.0733382  0.337863  0.07988  0.0706003  0.0700279  0.172563  
556 2 5.16901 -4.03027 1.53812 0.0161925  0.0826872  0.277966  0.0605338  0.164189  0.0560807  0.33929  0.0656671  0.108148  0.0648036  0.17101  
557 3 8.46533 -4.09938 1.50216 0.0209311  0.0488934  0.230961  0.0276738  0.172718  0.0361431  0.307647  0.0325812  0.0987876  0.0344855  0.185947  
558 3 6.20519 -0.471355 1.53765 0.0463633  0.0781266  0.198718  0.0365747  0.211165  0.0410697  0.331892  0.0535536  0.117714  0.0460742  0.206971  
559 3 5.9 -3.37545 0.269084 0.033922  0.0956688  0.142348  0.0453414  0.19232  0.0524036  0.327508  0.0589025  0.0851478  0.0612169  0.187151  
560 3 5.83779 -3.41022 2.82453 0.032651  0.0897864  0.16522  0.0455024  0.194858  0.0478973  0.334338  0.0478833  0.0786387  0.0556895  0.178394  
85 1 0.00329851 -0.00482938 0.0681224 0.0277005  0.0148721  0.307373  0.0202108  0.198386  0.0249472  0.337854  0.028774  0.113977  0.0333464  0.184453  
86 1 -0.0469849 2.80632 -4.51551 0.046738  0.114112  0.148208  0.0445023  0.186094  0.0693037  0.342635  0.075748  0.0753805  0.0670587  0.180225  
87 2 -2.75518 0.958048 -4.50422 0.0222202  0.108082  0.278615  0.0585048  0.180675  0.070871  0.328487  0.0706814  0.122941  0.0709987  0.175695  
88 3 -1.18012 0.862407 -4.55519 0.0238223  0.046677  0.231344  0.0272099  0.176033  0.0340331  0.314327  0.0326811  0.100671  0.0272958  0.188958  
89 3 -3.76545 4.58608 -4.54889 0.0474109  0.0790872  0.199726  0.0362756  0.214225  0.0441945  0.330366  0.0514537  0.118726  0.0495921  0.201392  
90 3 -3.43644 1.62206 -5.76997 0.0307053  0.0891064  0.164742  0.0420549  0.192068  0.0494918  0.325527  0.0558313  0.0758238  0.0508338  0.171402  
91 1 -0.0126908 -0.020714 -2.95298 0.0537181  0.0186734  0.336929  0.0216871  0.214296  0.0274845  0.371437  0.031618  0.131885  0.0262926  0.19771  
92 3 -3.40085 1.68715 -3.23349 0.0333993  0.0912855  0.138932  0.0476684  0.194128  0.0497195  0.328069  0.0550874  0.0802151  0.0554777  0.184726  
93 1 -4.7656 7.32403 -1.44008 0.0448904  0.126384  0.107333  0.0503536  0.189055  0.0798546  0.346119  0.081313  0.0907104  0.0745277  0.207302  
94 2 -2.1428 9.17745 -1.48808 0.0227164  0.109947  0.260286  0.0717462  0.181808  0.0739052  0.335076  0.0807301  0.124734  0.0807252  0.19649  
95 3 -3.68687 9.26665 -1.54683 0.0218662  0.0476398  0.231841  0.0275148  0.176132  0.0371915  0.319503  0.031145  0.103175  0.0328083  0.188467  
96 3 -1.03981 5.60377 -1.49502 0.0484709  0.0807397  0.19908  0.035416  0.212662  0.0492006  0.34125  0.0521967  0.115046  0.0546887  0.210293  
97 3 -1.41853 8.50779 -2.77297 0.0315743  0.0961076  0.144202  0.0446056  0.193852  0.0455808  0.332915  0.0543287  0.0777543  0.0579856  0.18699  
98 3 -1.41355 8.55341 -0.217976 0.0367108  0.0984686  0.145238  0.0439002  0.192875  0.0523435  0.342258  0.0577678  0.0785306  0.0625977  0.190172  
99 1 -2.42578 5.0607 -2.99558 0.0454326  0.0505201  0.357234  0.0157187  0.196578  0.0426363  0.384474  0.0410439  0.123094  0.0409495  0.192303  
100 1 -2.50262 2.33568 -1.44698 0.0534131  0.111478  0.150327  0.0557879  0.20172  0.0809543  0.345507  0.0653693  0.0939982  0.0762641  0.186554  
101 2 -0.35395 4.13539 -1.55739 0.0203184  0.0808258  0.316839  0.0836478  0.195913  0.0613103  0.347206  0.0619826  0.120478  0.0795587  0.197492  
102 3 -3.62887 4.19916 -1.43119 0.0195382  0.047103  0.226419  0.0294455  0.171532  0.0316638  0.317783  0.0320765  0.0929587  0.0353914  0.178038  
103 3 -1.30992 0.488018 -1.40651 0.0402454  0.0739153  0.175614  0.041019  0.21796  0.0571787  0.325437  0.0508336  0.116573  0.0454622  0.201124  
104 3 -1.03154 3.49889 -2.8696 0.0314961  0.0871887  0.161978  0.0444731  0.196831  0.0513511  0.338097  0.0510425  0.0732925  0.0538549  0.177055  
105 1 -2.42509 5.10508 0.00427152 0.0375913  0.0263757  0.348186  0.0206888  0.199554  0.0210317  0.363177  0.0236571  0.123755  0.0330268  0.198753  
106 3 -1.03361 3.40082 -0.299601 0.0246554  0.0838548  0.175069  0.0498668  0.19003  0.0422862  0.327149  0.0462166  0.069714  0.0493959  0.169537  
107 1 -2.35215 7.89582 -4.46274 0.0442235  0.125824  0.103692  0.0500339  0.185823  0.070643  0.338385  0.0851878  0.0944595  0.0811513  0.193023  
108 2 -4.50433 6.07381 -4.48389 0.0183598  0.116805  0.230946  0.0766717  0.179895  0.0752803  0.323271  0.0819682  0.139148  0.0838365  0.201325  
109 3 -1.2337 5.98637 -4.52708 0.0203385  0.0463456  0.231234  0.0272404  0.174018  0.034468  0.327536  0.0286758  0.0973634  0.03075  0.187924  
110 3 -3.33141 9.65115 -4.48233 0.0461841  0.0765457  0.19718  0.0369171  0.210739  0.0435089  0.332911  0.0505888  0.120858  0.0480285  0.208572  
111 3 -3.82008 6.73389 -5.77977 0.0325177  0.0898596  0.144625  0.0517126  0.190824  0.0473592  0.338621  0.0542686  0.0870022  0.0579485  0.18818  
112 3 -3.79024 6.66428 -3.19209 0.032817  0.0870139  0.167564  0.0477192  0.193877  0.0418641  0.34317  0.0514653  0.0782654  0.0507892  0.183022  
114 1 -0.0352378 2.78571 1.42156 0.0475092  0.123369  0.103905  0.0504325  0.182832  0.0776282  0.337551  0.0777075  0.0783307  0.0716144  0.190024  
115 2 -2.7635 0.9565 1.50002 0.0181799  0.112245  0.255944  0.0653776  0.177219  0.0675227  0.316089  0.0757563  0.128059  0.0726585  0.178526  
116 3 -1.19262 0.893025 1.54427 0.0197373  0.0484609  0.229589  0.031269  0.169329  0.033315  0.314717  0.0324764  0.0895883  0.035683  0.174419  
117 3 -3.9108 4.5772 1.52533 0.0459866  0.0783424  0.195378  0.039865  0.212357  0.0487146  0.329512  0.0448541  0.112623  0.0543462  0.200058  
118 3 -3.43702 1.64568 0.225982 0.0327337  0.0926511  0.167778  0.0426823  0.189169  0.0483337  0.337138  0.052261  0.0802119  0.0601009  0.173772  
120 3 -3.46546 1.71618 2.76598 0.0317795  0.0919074  0.145686  0.0475773  0.190759  0.0439987  0.324714  0.054955  0.0942578  0.0513711  0.184313  
135 1 -2.37753 7.86968 1.49934 0.0473423  0.125637  0.106717  0.0544617  0.188388  0.0848626  0.353461  0.0817737  0.0762053  0.0783973  0.205109  
136 2 -4.53728 6.10149 1.47755 0.022829  0.112412  0.254955  0.0639472  0.18234  0.0760579  0.330546  0.0777994  0.120411  0.0678228  0.195747  
137 3 -1.24381 5.92589 1.49024 0.021184  0.0492225  0.230696  0.0247902  0.170072  0.0390068  0.320128  0.0293362  0.0976376  0.032382  0.183193  
138 3 -3.48988 9.6203 1.47573 0.0480123  0.0797194  0.202659  0.0364421  0.222121  0.0486133  0.341931  0.0466487  0.123526  0.0498127  0.22284  
139 3 -3.77587 6.68762 0.199702 0.0315954  0.0951847  0.146402  0.0441156  0.197957  0.0472554  0.337806  0.0548932  0.0848616  0.055045  0.197211  
140 3 -3.78788 6.74642 2.73606 0.0330255  0.0917132  0.170286  0.0407087  0.197229  0.0490952  0.336962  0.0514328  0.0804445  0.0542672  0.184497  
337 1 4.78023 0.0791547 -0.0317454 0.0428141  0.0225264  0.323983  0.0229394  0.193156  0.0293463  0.360641  0.0341761  0.122166  0.0276248  0.194097  
338 1 4.72309 2.84876 -4.50843 0.0425419  0.127062  0.117573  0.0673959  0.176084  0.0756131  0.335192  0.0880171  0.0771138  0.0846953  0.173383  
339 2 2.09545 0.998759 -4.45426 0.0220685  0.108708  0.2569  0.0688417  0.188159  0.0710771  0.316527  0.0733837  0.129115  0.0671463  0.193756  
340 3 3.64463 0.859339 -4.47733 0.0221521  0.0480374  0.230412  0.0274861  0.174512  0.0340448  0.304054  0.0327046  0.10356  0.0347836  0.181513  
341 3 1.04312 4.58205 -4.47843 0.042849  0.0733063  0.176045  0.038567  0.216613  0.0586801  0.321736  0.0515969  0.118258  0.0392771  0.207003  
342 3 1.39858 1.61674 -5.70414 0.0344077  0.0979859  0.148591  0.0378412  0.19836  0.04875  0.320797  0.0578555  0.103072  0.053269  0.185695  
343 1 4.82304 -0.0500495 -3.0222 0.0424605  0.0515349  0.324443  0.0211101  0.177939  0.0473821  0.355624  0.0485236  0.110668  0.0498338  0.170925  
344 3 1.37225 1.63698 -3.15995 0.0308448  0.100144  0.162701  0.0387409  0.192884  0.0463035  0.32984  0.0541586  0.0797598  0.054274  0.175866  
345 1 0.0881977 7.37296 -1.45693 0.0496751  0.114571  0.144395  0.0520596  0.175546  0.0718404  0.352845  0.0801908  0.0697533  0.0731903  0.17641  
346 2 2.80195 9.15182 -1.45845 0.0153944  0.0974148  0.276315  0.0721498  0.187534  0.0665561  0.320259  0.0681347  0.135261  0.0729928  0.196954  
347 3 1.22426 9.2427 -1.4236 0.0196169  0.0465746  0.231429  0.0303542  0.168849  0.0353074  0.314477  0.0311727  0.0952061  0.0330939  0.184568  
348 3 3.81961 5.55101 -1.55386 0.0464609  0.0783183  0.201231  0.0345469  0.220565  0.0433973  0.325497  0.0554027  0.12161  0.0493578  0.207192  
349 3 3.51959 8.50092 -2.75919 0.0313204  0.0894208  0.169744  0.0450805  0.198665  0.0458712  0.322673  0.0518026  0.0825919  0.0534177  0.175215  
350 3 3.48341 8.4622 -0.183143 0.0301383  0.0865772  0.166553  0.0471288  0.194114  0.0465635  0.323217  0.0486136  0.0770876  0.0496665  0.168872  
351 1 2.45666 5.0869 -3.03319 0.0375368  0.0666002  0.288869  0.0304507  0.185729  0.079129  0.340774  0.0729618  0.110069  0.0530533  0.180921  
352 1 2.26094 2.25168 -1.42919 0.0381448  0.147925  0.118357  0.0530598  0.173937  0.0795105  0.327367  0.0945509  0.0842968  0.0858741  0.174872  
353 2 4.49685 4.01375 -1.49115 0.0196453  0.121841  0.232792  0.0690729  0.184584  0.0810488  0.311598  0.0761551  0.142909  0.084285  0.198266  
354 3 1.21848 4.13461 -1.50576 0.0190398  0.0482245  0.228436  0.029252  0.173628  0.0350998  0.312842  0.0294405  0.0916333  0.0304095  0.183307  
355 3 3.40463 0.489787 -1.48948 0.0482178  0.079377  0.199767  0.0327088  0.214465  0.0476736  0.327066  0.0488359  0.125985  0.0460913  0.204324  
356 3 3.80285 3.37174 -2.76784 0.0331288  0.0921739  0.147123  0.0495855  0.193501  0.0579886  0.319091  0.054639  0.0968864  0.0603998  0.186655  
357 1 2.4703 5.10014 0.0452553 0.0276023  0.00330864  0.343834  0.00607885  0.16794  0.0128678  0.355842  0.0198607  0.114321  0.0169844  0.17461  
358 3 3.74474 3.42544 -0.219752 0.0314185  0.0880256  0.167869  0.0464543  0.194203  0.0478533  0.324201  0.0512816  0.085751  0.054098  0.172593  
359 1 2.54774 7.90007 -4.48801 0.0441404  0.119317  0.142465  0.0588532  0.175485  0.069029  0.332901  0.0824159  0.0761101  0.0714918  0.156651  
360 2 0.323674 6.06684 -4.44904 0.0206486  0.1057  0.28264  0.0649806  0.181879  0.0680873  0.340336  0.0710503  0.122446  0.0718917  0.182183  
361 3 3.61748 5.95129 -4.53247 0.0239178  0.0471739  0.234316  0.0292236  0.176129  0.0328065  0.306574  0.0310888  0.0997692  0.0348645  0.187112  
362 3 1.40492 9.61966 -4.47355 0.0461876  0.0760112  0.198467  0.0385881  0.212109  0.0417858  0.321598  0.0482948  0.12162  0.0451358  0.199638  
363 3 1.04812 6.75245 -5.73975 0.0321982  0.0919978  0.146098  0.0505424  0.196357  0.0516799  0.324111  0.0541362  0.0877085  0.0598347  0.187361  
364 3 1.05201 6.72546 -3.17726 0.0314995  0.0881588  0.166375  0.0474889  0.193141  0.0488879  0.334761  0.0503498  0.0692772  0.0548477  0.172888  
366 1 4.74159 2.83472 1.48089 0.0513438  0.10844  0.149157  0.0573406  0.208294  0.0800614  0.328455  0.0713795  0.0882806  0.0759566  0.179022  
367 2 2.07469 0.947208 1.58885 0.0217318  0.107294  0.279017  0.0598715  0.182065  0.0704401  0.337279  0.0706892  0.111719  0.0678414  0.179341  
368 3 3.6349 0.90643 1.50504 0.0213894  0.048696  0.22639  0.0294875  0.172422  0.0328491  0.315837  0.0289376  0.0922581  0.0353831  0.179126  
369 3 1.05335 4.56096 1.52323 0.0452564  0.0775685  0.200947  0.0359591  0.212322  0.0477395  0.327728  0.042838  0.119719  0.047456  0.200121  
370 3 1.39183 1.64555 0.32872 0.0289723  0.113623  0.17312  0.0417828  0.18338  0.0615599  0.332963  0.0675225  0.092457  0.0665848  0.185054  
372 3 1.35934 1.61936 2.86117 0.0326837  0.0896914  0.162785  0.0407739  0.186937  0.0513059  0.336924  0.0507824  0.0697562  0.0500681  0.168352  
387 1 2.4817 7.85217 1.49681 0.0463837  0.107838  0.140991  0.0536363  0.177919  0.0633607  0.337779  0.0704401  0.0713924  0.0584121  0.161381  
388 2 0.302114 6.01491 1.48003 0.020348  0.121142  0.233791  0.0683712  0.17695  0.0768092  0.318364  0.0823268  0.138294  0.0800513  0.195438  
389 3 3.59763 6.01202 1.51061 0.0210755  0.0563345  0.245583  0.0301391  0.171724  0.0383849  0.313607  0.0452636  0.100155  0.0371074  0.171035  
390 3 1.4241 9.68199 1.43411 0.0453155  0.0774186  0.198003  0.0369447  0.209558  0.042103  0.328062  0.0524276  0.117114  0.0527756  0.197801  
391 3 1.02538 6.69187 0.224552 0.0307172  0.0946296  0.141959  0.0459737  0.192923  0.0425848  0.33174  0.0538697  0.0778197  0.057489  0.185269  
392 3 0.95373 6.70726 2.7631 0.0313616  0.0898389  0.164388  0.0424737  0.19086  0.0413189  0.331527  0.0517573  0.0732971  0.0521643  0.170213  
589 1 9.63906 0.0232832 0.0291762 0.0350245  0.0546559  0.351281  0.0188091  0.187166  0.040735  0.36687  0.0457015  0.126581  0.0441687  0.192394  