ITEM: TIMESTEP
1500
ITEM: NUMBER OF ATOMS
38213
ITEM: BOX BOUNDS pp pp pp
0.0000000000000000e+00 7.1234999999999999e+01
0.0000000000000000e+00 7.1389499999999998e+01
0.0000000000000000e+00 7.7729600000000005e+01
ITEM: ATOMS id type element xu yu zu q c_pe c_s[1] c_s[2] c_s[3] c_s[4] c_s[5] c_s[6]
1 1 Mg 0.168585 -0.14431 0.0270927 1.2 -8.23677 84879.4 3.41734e+06 -163113 -830711 -1.31152e+06 -1.9637e+06
2 1 Mg 4.57961 2.66883 1.44617 1.2 -8.72419 2.13659e+06 570641 2.58097e+06 760446 18107.2 173333
3 2 Si 2.03125 0.939779 1.57124 2.4 -33.8106 8.06167e+06 1.10156e+07 8.37979e+06 -872029 416095 -222138
4 3 O 3.59861 0.882589 1.47557 -1.2 -9.18105 -2.41711e+06 -3.84868e+06 -3.84936e+06 -567425 -821158 -413369
5 3 O 0.985086 4.69994 1.46064 -1.2 -8.58951 -2.64126e+06 -4.06715e+06 -2.85103e+06 -816908 428895 561753
6 3 O 1.32619 1.5497 0.216383 -1.2 -8.5237 -3.79342e+06 -2.38123e+06 -1.6199e+06 -512527 953008 -494054
7 1 Mg 0.030605 -0.106439 3.08075 1.2 -8.13865 -575618 3.34282e+06 -929448 -580114 786792 1.52963e+06
8 3 O 1.36487 1.74825 2.74436 -1.2 -8.85751 -3.76997e+06 -2.70169e+06 -3.19065e+06 -612510 -770442 -130908
9 1 Mg 0.0460469 7.48888 4.41677 1.2 -8.64791 1.68669e+06 -271332 2.37175e+06 1.24184e+06 459725 -251823
10 2 Si 2.7294 9.2867 4.37096 2.4 -33.4851 7.56521e+06 9.80918e+06 6.89266e+06 -72085.9 -808490 554934
11 3 O 1.17589 9.31647 4.49495 -1.2 -9.27594 -3.25076e+06 -3.47473e+06 -3.36706e+06 -408186 -1.07939e+06 333915
12 3 O 3.74872 5.66314 4.48025 -1.2 -9.0726 -3.72213e+06 -3.13579e+06 -3.52925e+06 -746907 -117033 -462932
13 3 O 3.48116 8.6166 3.12792 -1.2 -8.96906 -3.80856e+06 -2.60234e+06 -3.74631e+06 -114824 -980750 -266815
14 3 O 3.37861 8.66722 5.63983 -1.2 -9.00138 -5.52743e+06 -3.88964e+06 -4.15529e+06 83533.4 388813 811646
15 1 Mg 2.39856 5.19689 2.99399 1.2 -7.93513 68409.7 3.54772e+06 -433269 1.18951e+06 -1.26866e+06 2.43968e+06
16 1 Mg 2.23433 2.3163 4.48916 1.2 -8.55948 2.47948e+06 -275093 2.71202e+06 -1.24628e+06 218634 -83086.6
17 2 Si 4.37247 4.10725 4.39953 2.4 -33.6213 4.92842e+06 1.0283e+07 8.14598e+06 1.03428e+06 -691744 105202
18 3 O 1.20532 4.18782 4.445 -1.2 -9.54879 -4.37124e+06 -3.82018e+06 -5.12355e+06 339217 -106840 -632772
19 3 O 3.46134 0.480502 4.38762 -1.2 -8.82389 -2.9461e+06 -4.02823e+06 -3.41331e+06 207729 -74483.7 697301
20 3 O 3.69306 3.49397 3.17985 -1.2 -8.85357 -4.71774e+06 -3.44086e+06 -4.0571e+06 -991312 -244900 -433308
21 1 Mg 2.32704 5.26086 0.0343321 1.2 -7.98335 -250708 3.62842e+06 171679 1.2282e+06 1.76161e+06 -1.7879e+06
22 3 O 3.73585 3.41804 5.71898 -1.2 -8.88485 -3.31868e+06 -3.3033e+06 -2.58167e+06 -466173 -270824 -42136.7
23 1 Mg 2.52814 8.04469 1.49268 1.2 -8.35005 2.42058e+06 317965 495391 -712552 167575 250730
24 2 Si 0.315891 6.23001 1.51539 2.4 -33.7571 6.69259e+06 1.01236e+07 6.81021e+06 -1.11877e+06 802515 568324
25 3 O 3.5982 6.02864 1.50809 -1.2 -9.3635 -3.65923e+06 -4.59663e+06 -3.28678e+06 23880.7 206477 271972
26 3 O 1.43641 9.82021 1.60529 -1.2 -9.17469 -2.81602e+06 -5.20978e+06 -3.20364e+06 642788 502946 514325
27 3 O 1.0061 6.84829 0.288367 -1.2 -9.09204 -4.14174e+06 -4.36434e+06 -3.71456e+06 -178735 -84434.4 1.53341e+06
28 3 O 1.01238 6.80211 2.81143 -1.2 -8.98315 -3.6452e+06 -3.72647e+06 -3.85912e+06 223997 988692 -1.38967e+06
29 1 Mg 4.83618 0.0950995 -0.143238 1.2 -8.1444 -262271 3.00585e+06 405468 -1.21672e+06 -1.57775e+06 -1.52722e+06
30 1 Mg 9.3674 2.86982 1.36861 1.2 -8.68262 1.92615e+06 427793 1.97572e+06 588714 -520490 950356
31 2 Si 6.82386 1.01752 1.4581 2.4 -33.7046 6.56017e+06 1.01776e+07 7.74335e+06 578326 232828 -561923
32 3 O 8.35615 1.03546 1.5043 -1.2 -9.29908 -4.22031e+06 -3.66766e+06 -4.69012e+06 -329293 980549 -269060
33 3 O 5.7785 4.60113 1.58851 -1.2 -8.58702 -4.01978e+06 -3.06635e+06 -3.06541e+06 -1.31424e+06 -404431 -372228
34 3 O 6.06808 1.66682 0.182007 -1.2 -8.8947 -3.74046e+06 -4.3559e+06 -3.47969e+06 -573163 1.42402e+06 581665
35 1 Mg 4.79213 -0.236078 2.87922 1.2 -8.21021 -280223 3.13235e+06 159178 -983485 1.60355e+06 1.61379e+06
36 3 O 6.10746 1.57828 2.72392 -1.2 -8.76006 -4.34595e+06 -4.37051e+06 -4.55562e+06 -352964 -830234 -1.12168e+06
37 1 Mg 4.82687 7.4086 4.47262 1.2 -8.72259 2.54329e+06 134690 2.89777e+06 740103 -65088.1 2935.83
38 2 Si 7.51222 9.2439 4.56263 2.4 -33.8601 6.65317e+06 9.46041e+06 8.56208e+06 936752 198221 843892
39 3 O 5.9526 9.27879 4.5029 -1.2 -9.2288 -2.48352e+06 -2.96263e+06 -5.31274e+06 -535301 -150221 -138849
40 3 O 8.5236 5.64517 4.4772 -1.2 -8.58512 -2.95317e+06 -5.13798e+06 -3.24739e+06 -1.0466e+06 -587046 -710444
41 3 O 8.2275 8.58176 3.2337 -1.2 -8.7786 -4.35276e+06 -3.44981e+06 -2.14663e+06 -984524 -1.00138e+06 245650
42 3 O 8.17199 8.60987 5.7943 -1.2 -8.58487 -4.64168e+06 -4.33581e+06 -4.20444e+06 195498 224521 1.03498e+06
43 1 Mg 7.13299 5.09233 3.00912 1.2 -8.34727 -474729 3.40371e+06 -210568 1.27326e+06 -1.50718e+06 2.13084e+06
44 1 Mg 6.96713 2.18641 4.32996 1.2 -8.4621 2.6175e+06 1.19889e+06 1.20803e+06 -374399 -507861 -925586
45 2 Si 9.21621 4.17073 4.48867 2.4 -34.0361 5.71928e+06 1.05137e+07 8.84655e+06 455136 563040 503580
46 3 O 5.90144 4.24435 4.44193 -1.2 -9.2565 -3.48854e+06 -3.28078e+06 -3.92379e+06 105705 522670 12688
47 3 O 8.17645 0.433093 4.43868 -1.2 -8.80389 -3.46897e+06 -4.17178e+06 -4.35755e+06 1.13026e+06 222171 -612330
48 3 O 8.48666 3.52619 3.19352 -1.2 -8.65472 -2.78894e+06 -4.13366e+06 -1.92524e+06 553622 705809 -800178
49 1 Mg 7.08827 5.07824 0.0117891 1.2 -8.09024 -760309 3.23182e+06 331810 1.59571e+06 1.05374e+06 -2.05712e+06
50 3 O 8.53819 3.55218 5.78192 -1.2 -8.89753 -3.12029e+06 -4.58822e+06 -3.38561e+06 -44956.3 -1.66275e+06 1.23434e+06
51 1 Mg 7.27234 7.91242 1.54318 1.2 -8.60552 2.46974e+06 889182 3.03763e+06 -1.0334e+06 -264856 300565
52 2 Si 5.12398 6.12975 1.51508 2.4 -33.7722 5.83635e+06 1.14202e+07 6.88399e+06 391620 1.46391e+06 129177
53 3 O 8.29639 5.92182 1.41894 -1.2 -9.17367 -3.57962e+06 -4.3778e+06 -4.12265e+06 -168061 240659 346085
54 3 O 6.13033 9.80979 1.56853 -1.2 -8.67422 -3.63723e+06 -3.86842e+06 -2.97469e+06 575236 -259672 364959
55 3 O 5.74188 6.76173 0.22865 -1.2 -9.02531 -4.35547e+06 -2.89845e+06 -3.98268e+06 124122 -494003 894370
56 3 O 5.89288 6.82634 2.75141 -1.2 -8.73391 -2.84686e+06 -4.34032e+06 -2.62964e+06 215540 333081 -613114
57 1 Mg 9.40331 -0.0426362 0.0161765 1.2 -8.2596 -1.49453e+06 3.24238e+06 -516180 -1.35084e+06 -2.07297e+06 -1.18662e+06
58 1 Mg 14.1015 2.84989 1.45882 1.2 -8.70379 2.10178e+06 33882.9 1.76659e+06 1.29987e+06 -748022 450581
59 2 Si 11.4874 1.00694 1.43402 2.4 -34.2661 6.71022e+06 1.04711e+07 7.17141e+06 201297 760809 1.95889e+06
60 3 O 13.0483 0.969268 1.42974 -1.2 -9.10952 -2.2152e+06 -4.65738e+06 -2.87402e+06 -98824.7 985771 -812274
61 3 O 10.5416 4.60811 1.46803 -1.2 -8.8655 -3.59409e+06 -4.99235e+06 -3.78544e+06 -579934 185377 -639110
62 3 O 10.7201 1.56621 0.166445 -1.2 -8.76228 -3.35086e+06 -6.02308e+06 -4.167e+06 -586479 967655 1.03294e+06
63 1 Mg 9.47783 -0.0639757 2.93436 1.2 -8.17595 -656023 4.20633e+06 -382942 -797238 1.03781e+06 1.71177e+06
64 3 O 10.9136 1.70383 2.72187 -1.2 -8.62075 -4.45e+06 -3.43755e+06 -3.21877e+06 -207669 -797047 -1.26196e+06
65 1 Mg 9.60105 7.40862 4.37688 1.2 -8.87538 2.27226e+06 150837 2.75121e+06 1.32034e+06 116049 131062
66 2 Si 12.2895 9.22516 4.53686 2.4 -34.0146 6.05218e+06 9.43682e+06 8.36848e+06 775493 383339 459871
67 3 O 10.7816 9.2804 4.46894 -1.2 -9.03012 -3.72099e+06 -3.27007e+06 -5.0693e+06 -115238 -102133 167792
68 3 O 13.285 5.71307 4.52602 -1.2 -8.79036 -2.37559e+06 -2.17995e+06 -2.823e+06 -1.63469e+06 -439578 -354553
69 3 O 12.9553 8.56489 3.25863 -1.2 -8.68055 -4.79972e+06 -3.68303e+06 -3.21862e+06 -688037 -41918.6 -879465
70 3 O 12.9394 8.53457 5.81927 -1.2 -8.50962 -3.59729e+06 -2.84229e+06 -3.12526e+06 192889 512780 -328944
71 1 Mg 11.9093 5.14207 2.9815 1.2 -8.26137 -640303 3.94302e+06 151184 1.30516e+06 -1.26535e+06 2.2118e+06
72 1 Mg 11.6797 2.32809 4.41859 1.2 -8.76367 1.50688e+06 540829 2.40684e+06 -472650 -108908 451499
73 2 Si 13.8978 4.13518 4.46391 2.4 -33.4962 8.36898e+06 1.14441e+07 9.78243e+06 921240 -1.8753e+06 790823
74 3 O 10.7515 4.26465 4.45248 -1.2 -9.24566 -3.54215e+06 -4.13998e+06 -4.23708e+06 680037 -273188 293381
75 3 O 12.8495 0.515157 4.51026 -1.2 -8.91015 -2.30896e+06 -4.88304e+06 -3.06988e+06 546919 -47630.5 -328014
76 3 O 13.2434 3.49831 3.18836 -1.2 -8.91435 -4.39313e+06 -3.10729e+06 -2.78998e+06 -384626 1.06476e+06 -534112
77 1 Mg 11.8612 5.18708 0.00118386 1.2 -8.10241 -716951 3.84906e+06 -143925 786237 2.02292e+06 -1.15278e+06
78 3 O 13.1484 3.44004 5.796 -1.2 -8.57485 -2.48797e+06 -2.34445e+06 -843596 -102642 -1.4719e+06 -1.20766e+06
79 1 Mg 11.8908 8.0122 1.58704 1.2 -8.71908 2.85206e+06 -531370 2.73856e+06 -402712 202888 31063.7
80 2 Si 9.83289 6.03936 1.42829 2.4 -34.0273 5.90627e+06 1.03689e+07 8.83432e+06 1.06911e+06 1.43623e+06 -302201
81 3 O 13.0086 6.10067 1.48415 -1.2 -9.19295 -1.38173e+06 -3.95591e+06 -3.67915e+06 262624 548855 -494069
82 3 O 10.7834 9.70006 1.64116 -1.2 -8.98477 -2.58034e+06 -7.12121e+06 -4.58388e+06 601869 361952 233944
83 3 O 10.4466 6.85411 0.23213 -1.2 -8.60983 -4.02437e+06 -3.14318e+06 -3.67883e+06 331400 -794479 412824
84 3 O 10.5607 6.72536 2.75514 -1.2 -8.48484 -3.26269e+06 -4.00945e+06 -3.27377e+06 589467 1.49789e+06 -301554
85 1 Mg 14.217 0.225816 -0.112116 1.2 -8.17494 -676775 3.88308e+06 -37127.1 -254424 -1.77729e+06 -1.97634e+06
86 1 Mg 18.9388 2.92223 1.40441 1.2 -8.79341 2.79907e+06 -338401 2.84777e+06 1.49809e+06 292900 591077
87 2 Si 16.2113 1.07547 1.53991 2.4 -34.0851 6.34463e+06 9.65031e+06 7.6131e+06 509742 205418 709550
88 3 O 17.7709 1.03171 1.44506 -1.2 -8.79499 -3.1407e+06 -4.43013e+06 -4.13977e+06 -191036 -506973 -276837
89 3 O 15.2305 4.60342 1.52623 -1.2 -8.75671 -2.89645e+06 -4.0469e+06 -4.01338e+06 -1.85776e+06 184252 -133675
90 3 O 15.6175 1.78932 0.21504 -1.2 -8.60238 -4.35001e+06 -4.73869e+06 -1.89876e+06 -447717 468028 840646
91 1 Mg 14.3749 0.0506473 3.08005 1.2 -7.94017 -467454 4.17931e+06 278441 -1.08876e+06 1.65564e+06 2.37896e+06
92 3 O 15.6048 1.71779 2.84142 -1.2 -8.99363 -4.43467e+06 -3.91763e+06 -2.72898e+06 50833.2 -248004 -1.43099e+06
93 1 Mg 14.4397 7.42061 4.48888 1.2 -8.79694 2.10297e+06 -272606 2.75495e+06 835610 -418139 254870
94 2 Si 17.0152 9.18474 4.50187 2.4 -33.6572 7.7405e+06 9.81675e+06 8.62063e+06 1.21714e+06 1.32463e+06 768403
95 3 O 15.445 9.28651 4.46078 -1.2 -9.39527 -2.4145e+06 -3.84808e+06 -4.28483e+06 -1.32595e+06 -326240 -49329.9
96 3 O 17.9956 5.63135 4.42681 -1.2 -8.87885 -3.04717e+06 -2.62173e+06 -3.11849e+06 -1.3131e+06 -81716.3 -651721
97 3 O 17.7547 8.58142 3.22275 -1.2 -8.97402 -4.74168e+06 -4.41289e+06 -2.25722e+06 -1.13142e+06 -1.1845e+06 -1.89411e+06
98 3 O 17.6887 8.55554 5.82848 -1.2 -8.65967 -2.61756e+06 -4.13393e+06 -1.61983e+06 -619650 993098 295523
99 1 Mg 16.6945 5.03524 2.95057 1.2 -8.09826 -271544 3.91859e+06 -619417 1.09301e+06 -1.05599e+06 2.31026e+06
100 1 Mg 16.5304 2.36196 4.50833 1.2 -8.54236 1.87927e+06 -181761 2.65826e+06 -937720 -207401 258160
101 2 Si 18.6814 4.08428 4.50756 2.4 -33.5134 6.94637e+06 1.1283e+07 8.27814e+06 229661 -51645.9 1.11362e+06
102 3 O 15.5066 4.19526 4.42315 -1.2 -9.39158 -326539 -3.85518e+06 -4.19471e+06 123138 -442524 -1.03696e+06
103 3 O 17.6522 0.56993 4.43023 -1.2 -8.79521 -2.19713e+06 -5.10937e+06 -4.51786e+06 1.13576e+06 688447 -465236
104 3 O 18.0832 3.412 3.20226 -1.2 -8.88286 -3.73524e+06 -4.14336e+06 -2.12033e+06 18003 689238 -1.25712e+06
105 1 Mg 16.5644 5.09936 0.0165691 1.2 -8.19751 -923606 3.98487e+06 -726870 1.28392e+06 1.32121e+06 -1.10505e+06
106 3 O 17.9921 3.44524 5.75915 -1.2 -9.02395 -3.18204e+06 -3.57444e+06 -2.6876e+06 1494.38 -352342 -378679
107 1 Mg 16.7949 7.95146 1.53465 1.2 -8.60166 2.24918e+06 118249 1.52352e+06 -479122 551182 570343
108 2 Si 14.5994 6.13381 1.49419 2.4 -33.85 8.1423e+06 1.12917e+07 8.31645e+06 531457 282159 1.14934e+06
109 3 O 17.7518 6.00912 1.47556 -1.2 -9.43588 -2.32075e+06 -3.55054e+06 -4.23826e+06 433479 -245058 -533250
110 3 O 15.5499 9.67515 1.54585 -1.2 -8.86481 -1.61015e+06 -4.92529e+06 -3.78143e+06 1.21662e+06 -132848 774764
111 3 O 15.3103 6.7135 0.17567 -1.2 -8.71749 -3.25743e+06 -4.35489e+06 -3.56804e+06 277478 -1.24006e+06 -81703.3
112 3 O 15.3669 6.85994 2.69997 -1.2 -8.6989 -3.22211e+06 -3.35271e+06 -2.81362e+06 619696 1.12451e+06 -599752
113 1 Mg 18.9057 0.120931 -0.0649879 1.2 -8.56946 -1.16387e+06 3.93965e+06 113682 -476811 -1.67876e+06 -1.43474e+06
114 1 Mg 23.5969 2.87545 1.45595 1.2 -8.95774 2.76103e+06 956886 2.17871e+06 987567 22832.3 238809
115 2 Si 20.9761 1.01873 1.38707 2.4 -34.4644 6.00125e+06 1.11176e+07 8.99741e+06 1.11778e+06 842736 1.07884e+06
116 3 O 22.5257 0.872021 1.46744 -1.2 -9.05491 -2.36882e+06 -4.65144e+06 -3.6444e+06 -239190 324448 -525941
117 3 O 20.0406 4.62793 1.38726 -1.2 -8.82775 -2.95598e+06 -4.42065e+06 -2.97622e+06 -1.66072e+06 442228 7207.14
118 3 O 20.3112 1.73358 0.17237 -1.2 -8.45249 -3.43797e+06 -4.70071e+06 -2.52718e+06 -1.19913e+06 -302691 734196
119 1 Mg 18.9514 0.175944 3.00952 1.2 -8.26933 -745995 4.15941e+06 -106479 -344323 1.82383e+06 1.65879e+06
120 3 O 20.3982 1.66625 2.79232 -1.2 -8.35582 -4.41135e+06 -3.50728e+06 -731358 -438459 -1.09057e+06 -472148
121 1 Mg 19.1287 7.40332 4.37181 1.2 -8.72005 2.11644e+06 621698 2.56797e+06 1.97855e+06 204093 -183342
122 2 Si 21.8187 9.33027 4.49612 2.4 -34.6093 6.19963e+06 1.03919e+07 9.21432e+06 1.36012e+06 1.09518e+06 1.18733e+06
123 3 O 20.2706 9.34716 4.39548 -1.2 -8.87907 -3.25625e+06 -3.88704e+06 -4.34951e+06 -92877.9 656040 -510585
124 3 O 22.8752 5.5857 4.52481 -1.2 -8.75407 -3.96643e+06 -5.95073e+06 -3.9684e+06 -1.17259e+06 430954 -221137
125 3 O 22.4343 8.64337 3.16646 -1.2 -8.20466 -4.26473e+06 -3.29829e+06 -2.59516e+06 -534677 -849652 -471065
126 3 O 22.4996 8.62883 5.72096 -1.2 -8.6068 -3.34612e+06 -4.16931e+06 -4.38156e+06 -748652 483749 751674
127 1 Mg 21.413 5.1727 3.07909 1.2 -8.24467 -470308 4.41641e+06 361388 985329 -941498 2.29548e+06
128 1 Mg 21.3214 2.33132 4.55864 1.2 -8.77387 1.27282e+06 517463 3.70326e+06 -552501 314996 982486
129 2 Si 23.4429 4.10296 4.51273 2.4 -34.1482 6.56218e+06 9.44572e+06 1.01429e+07 1.58479e+06 7517.96 1.42044e+06
130 3 O 20.271 4.28096 4.49327 -1.2 -9.22062 -1.68384e+06 -3.60123e+06 -4.14162e+06 629988 -190879 -706010
131 3 O 22.301 0.506384 4.43124 -1.2 -8.87188 -2.11172e+06 -6.14965e+06 -4.02432e+06 942605 -625326 512040
132 3 O 22.7036 3.47414 3.19882 -1.2 -8.56276 -3.44522e+06 -3.52634e+06 -1.66387e+06 -676258 830902 -915750
133 1 Mg 21.3174 5.24851 -0.0472483 1.2 -8.30613 -1.25128e+06 3.77974e+06 125083 2.04768e+06 2.47014e+06 -1.5143e+06
134 3 O 22.6676 3.50978 5.83057 -1.2 -8.58123 -3.64217e+06 -4.07703e+06 -2.31496e+06 -306168 -1.5979e+06 558059
135 1 Mg 21.4527 7.88219 1.46188 1.2 -8.98152 1.3305e+06 318226 2.86164e+06 -622378 137232 1.20701e+06
136 2 Si 19.3248 6.10737 1.40646 2.4 -33.2872 7.75889e+06 1.11849e+07 8.22875e+06 396944 1.20583e+06 1.74629e+06
137 3 O 22.4738 6.11176 1.52812 -1.2 -8.91221 -2.10948e+06 -5.59756e+06 -3.59098e+06 972211 806848 -601313
138 3 O 20.3556 9.73065 1.43151 -1.2 -8.39113 -3.37719e+06 -6.0761e+06 -5.17463e+06 157608 -847097 -274751
139 3 O 20.0077 6.75728 0.14041 -1.2 -9.06084 -4.2501e+06 -5.29774e+06 -4.29519e+06 508532 -1.90153e+06 442904
140 3 O 20.0449 6.85614 2.72164 -1.2 -8.66188 -3.44118e+06 -3.66382e+06 -1.51888e+06 282840 2.20114e+06 -691635
141 1 Mg 23.7259 0.0892418 -0.0116206 1.2 -8.15478 28837.7 4.48282e+06 343105 -388654 -967446 -1.34549e+06
142 1 Mg 28.4473 2.91387 1.43294 1.2 -8.93729 2.56802e+06 303064 2.18255e+06 191550 -81331 771244
143 2 Si 25.8281 1.05498 1.48551 2.4 -33.9578 5.94197e+06 1.12671e+07 8.40935e+06 31019.2 1.10617e+06 -680958
144 3 O 27.3533 1.00103 1.44721 -1.2 -9.15858 -3.74282e+06 -4.39509e+06 -3.51188e+06 -222831 435530 530758
145 3 O 24.6295 4.6804 1.3828 -1.2 -8.40829 -3.71395e+06 -4.0326e+06 -2.10537e+06 -1.15514e+06 -437018 147112
146 3 O 25.0735 1.80823 0.169188 -1.2 -8.57862 -2.89181e+06 -2.95011e+06 -1.34239e+06 -913300 1.15704e+06 -401647
147 1 Mg 23.753 0.119771 2.97453 1.2 -8.2131 363529 4.5163e+06 -76328.5 -819368 1.88403e+06 1.58665e+06
148 3 O 25.1555 1.7034 2.76812 -1.2 -8.683 -2.92865e+06 -4.62209e+06 -2.03078e+06 -532283 -680213 -1.18193e+06
149 1 Mg 23.8867 7.39238 4.489 1.2 -8.8315 2.01914e+06 1.09361e+06 2.16901e+06 571035 793509 -176181
150 2 Si 26.498 9.22159 4.45511 2.4 -34.5846 7.79761e+06 1.2197e+07 9.42632e+06 185005 260794 653654
151 3 O 24.9792 9.30364 4.43392 -1.2 -9.04127 -2.98307e+06 -3.86553e+06 -3.51206e+06 -756258 181109 -657501
152 3 O 27.5171 5.63906 4.5019 -1.2 -8.20466 -2.97694e+06 -5.53887e+06 -2.74098e+06 -856819 331179 -803160
153 3 O 27.292 8.60675 3.17385 -1.2 -8.18446 -3.22311e+06 -3.97549e+06 -2.41456e+06 -53723.2 -2.05611e+06 -752594
154 3 O 27.292 8.55596 5.74756 -1.2 -8.26912 -3.10123e+06 -4.46399e+06 -2.66773e+06 -1.29855e+06 1.97421e+06 -223912
155 1 Mg 26.0943 5.16274 2.97041 1.2 -8.46515 -318042 3.77326e+06 1.32219e+06 1.53414e+06 -909653 2.44917e+06
156 1 Mg 26.0612 2.31678 4.53819 1.2 -8.86984 2.03623e+06 788677 2.42115e+06 -679353 89224.5 231628
157 2 Si 28.19 4.1547 4.46864 2.4 -34.6734 5.90828e+06 1.20211e+07 6.77643e+06 -327892 433006 919817
158 3 O 24.9812 4.14675 4.50486 -1.2 -8.92208 -3.32082e+06 -4.62933e+06 -3.40597e+06 1.07389e+06 184873 -678292
159 3 O 27.2426 0.548444 4.50998 -1.2 -8.62029 -2.24903e+06 -6.99979e+06 -4.1722e+06 962891 -309245 -615369
160 3 O 27.4874 3.51577 3.21354 -1.2 -8.32894 -3.41005e+06 -4.49416e+06 -3.7638e+06 -230594 610497 -1.22815e+06
161 1 Mg 26.0432 5.08684 -0.114211 1.2 -8.42118 -161147 3.95356e+06 437537 754707 1.12494e+06 -1.06556e+06
162 3 O 27.4934 3.47547 5.71989 -1.2 -8.67621 -3.81401e+06 -5.64383e+06 -3.58932e+06 1.11627e+06 -384830 245835
163 1 Mg 26.2625 7.94191 1.53093 1.2 -9.00379 1.78858e+06 678680 2.61486e+06 -535998 631993 767805
164 2 Si 24.0647 6.22717 1.584 2.4 -34.3859 6.85255e+06 1.18682e+07 8.04701e+06 729957 510300 1.28291e+06
165 3 O 27.2819 5.95198 1.47678 -1.2 -8.83065 -1.37874e+06 -4.25372e+06 -3.6702e+06 492160 112001 -132208
166 3 O 25.2303 9.68103 1.5192 -1.2 -8.43758 -3.23651e+06 -5.24935e+06 -4.2527e+06 685625 -479954 -1.20394e+06
167 3 O 24.7382 6.94262 0.355213 -1.2 -8.38615 -3.98549e+06 -5.34099e+06 -2.35512e+06 -576911 -1.02576e+06 807615
168 3 O 24.7927 6.74325 2.88646 -1.2 -8.82371 -3.02723e+06 -4.36672e+06 -4.56223e+06 144267 973930 -723582
169 1 Mg 28.3991 -0.0719148 -0.04309 1.2 -8.23738 -1.06601e+06 3.37033e+06 279370 -1.12709e+06 -1.12734e+06 -1.57498e+06
170 1 Mg 33.0378 2.93279 1.4444 1.2 -9.12458 1.83763e+06 394013 1.35802e+06 452347 -397527 471677
171 2 Si 30.5258 0.960889 1.44669 2.4 -34.5222 6.62459e+06 1.05127e+07 8.20958e+06 550671 201357 865261
172 3 O 32.1021 0.910872 1.49256 -1.2 -8.93697 -2.61569e+06 -3.87402e+06 -3.8789e+06 -86901.9 613437 -222706
173 3 O 29.5126 4.61069 1.52258 -1.2 -8.56349 -4.15116e+06 -6.01083e+06 -3.28802e+06 -354952 139937 232400
174 3 O 29.8558 1.70712 0.242702 -1.2 -8.54464 -4.06058e+06 -4.2409e+06 -4.92194e+06 -501359 1.31688e+06 528473
175 1 Mg 28.5115 0.138263 2.98671 1.2 -8.4614 -414970 4.58245e+06 -115886 -1.03534e+06 1.90943e+06 1.37211e+06
176 3 O 29.922 1.63048 2.7724 -1.2 -8.39806 -3.8303e+06 -4.3994e+06 -3.22807e+06 -325495 -904278 -416946
177 1 Mg 28.658 7.45105 4.56237 1.2 -9.35337 1.87129e+06 1.63072e+06 2.42128e+06 1.15376e+06 59425.2 545210
178 2 Si 31.2491 9.30504 4.47324 2.4 -35.1384 7.2139e+06 1.0559e+07 7.76708e+06 -578426 -1.07655e+06 1.85152e+06
179 3 O 29.7036 9.35095 4.47121 -1.2 -8.40214 -4.59246e+06 -3.73209e+06 -4.04423e+06 146641 -381.531 -715873
180 3 O 32.2962 5.68498 4.51258 -1.2 -8.34472 -3.01826e+06 -3.52628e+06 -2.47144e+06 -904539 261800 -506523
181 3 O 31.9249 8.56784 3.20254 -1.2 -8.04723 -3.94387e+06 -2.91362e+06 -4.24108e+06 555125 -384270 76705.9
182 3 O 31.9356 8.59454 5.67456 -1.2 -8.07586 -4.35992e+06 -4.98817e+06 -4.60764e+06 410308 558821 471097
183 1 Mg 30.8773 5.26036 3.12257 1.2 -8.38155 -672552 4.08434e+06 -19844 1.3598e+06 -1.70596e+06 2.79709e+06
184 1 Mg 30.7864 2.2682 4.46388 1.2 -9.00442 1.90716e+06 1.83951e+06 2.03123e+06 -732083 -220662 18217.8
185 2 Si 32.9234 4.1258 4.43057 2.4 -34.5109 6.62358e+06 1.34832e+07 8.06186e+06 -324501 -1.25116e+06 995201
186 3 O 29.7244 4.26485 4.46625 -1.2 -8.94836 -3.57131e+06 -4.73893e+06 -3.40947e+06 665478 75745.9 -202004
187 3 O 31.8169 0.418454 4.52772 -1.2 -8.34519 -4.22881e+06 -4.72801e+06 -3.46257e+06 469378 -409625 278277
188 3 O 32.2695 3.45895 3.1853 -1.2 -8.42165 -4.7853e+06 -3.91168e+06 -3.71872e+06 216034 1.1186e+06 -672011
189 1 Mg 30.8723 5.13007 -0.0360131 1.2 -8.2716 -621289 3.36437e+06 66908.7 697248 578729 -1.29191e+06
190 3 O 32.1983 3.43987 5.72618 -1.2 -8.62208 -3.02629e+06 -3.82009e+06 -1.88292e+06 593408 -906125 181286
191 1 Mg 30.928 7.90665 1.53251 1.2 -8.87673 2.35455e+06 744680 2.75747e+06 -701402 -438664 569905
192 2 Si 28.8677 6.06844 1.56238 2.4 -34.2819 7.05105e+06 1.02744e+07 8.10461e+06 -66680.3 -35956.4 1.44649e+06
193 3 O 32.0168 6.02305 1.4922 -1.2 -9.10235 -2.03389e+06 -4.23869e+06 -3.43157e+06 452717 -494285 -809893
194 3 O 29.9969 9.77233 1.56311 -1.2 -8.48043 -5.00494e+06 -5.95323e+06 -4.05555e+06 1.04672e+06 1.06204e+06 100392
195 3 O 29.5068 6.71279 0.233218 -1.2 -8.90359 -4.01445e+06 -3.81582e+06 -2.4166e+06 487913 -869701 398487
196 3 O 29.5124 6.74659 2.82335 -1.2 -8.62768 -4.14691e+06 -5.23244e+06 -2.77671e+06 604857 863403 -1.4201e+06
197 1 Mg 33.2438 -0.042535 0.0222642 1.2 -8.33302 -409670 4.26226e+06 509003 -398313 -885693 -1.43704e+06
198 1 Mg 37.989 2.7774 1.42317 1.2 -8.50823 2.04727e+06 867830 3.01987e+06 947922 -346817 847132
199 2 Si 35.2695 1.06872 1.48659 2.4 -34.4067 6.06273e+06 1.16871e+07 9.25046e+06 -926810 -1.22324e+06 811999
200 3 O 36.8176 0.961656 1.43819 -1.2 -9.28183 -2.67779e+06 -3.99216e+06 -3.35271e+06 -92793.9 -239394 373878
201 3 O 34.184 4.57594 1.49171 -1.2 -8.47147 -2.7299e+06 -5.52532e+06 -3.89159e+06 -1.58106e+06 200084 -142585
202 3 O 34.6129 1.70422 0.220408 -1.2 -8.40518 -3.62481e+06 -3.81793e+06 -3.20475e+06 248364 549505 387465
203 1 Mg 33.2149 0.0959282 3.03811 1.2 -8.38187 -263865 4.51983e+06 -443990 -620140 1.03242e+06 1.82203e+06
204 3 O 34.5967 1.83611 2.82409 -1.2 -8.08142 -2.42427e+06 -3.98962e+06 -1.26895e+06 3831.93 -1.11627e+06 235290
205 1 Mg 33.3496 7.51351 4.51283 1.2 -9.49503 2.4261e+06 583909 3.36654e+06 831535 -779009 680044
206 2 Si 36.0164 9.27488 4.44159 2.4 -35.2964 4.83291e+06 1.10205e+07 7.88228e+06 -518874 -338182 904811
207 3 O 34.468 9.31689 4.49011 -1.2 -8.39667 -3.87645e+06 -5.06525e+06 -4.5987e+06 -587340 541668 -451945
208 3 O 37.0083 5.65823 4.47206 -1.2 -8.57737 -2.42801e+06 -5.60093e+06 -3.57836e+06 -300755 314305 -488114
209 3 O 36.6583 8.61118 3.20452 -1.2 -8.10489 -4.07064e+06 -4.63131e+06 -4.86643e+06 293602 469276 -1.18096e+06
210 3 O 36.6819 8.60667 5.70173 -1.2 -8.31375 -4.47539e+06 -3.91899e+06 -4.16449e+06 183665 23515.3 254690
211 1 Mg 35.5861 4.93217 2.94411 1.2 -8.60137 -473555 4.94198e+06 -270019 1.22985e+06 -1.46187e+06 1.89704e+06
212 1 Mg 35.5908 2.32623 4.55513 1.2 -8.85265 1.77068e+06 1.00855e+06 1.63011e+06 -1.12332e+06 648827 659619
213 2 Si 37.698 4.22477 4.53067 2.4 -33.8115 7.36911e+06 1.03213e+07 9.68623e+06 -1.12779e+06 -301148 -515393
214 3 O 34.494 4.22703 4.47058 -1.2 -8.86964 -1.85471e+06 -5.62331e+06 -4.41787e+06 285515 218185 -412768
215 3 O 36.6192 0.488154 4.44754 -1.2 -8.79638 -4.04289e+06 -5.42856e+06 -3.55267e+06 1.84126e+06 -587247 944467
216 3 O 37.0149 3.53564 3.203 -1.2 -8.50376 -4.03905e+06 -4.5064e+06 -152000 557450 807353 -486658
217 1 Mg 35.6232 5.0158 -0.0975018 1.2 -8.40954 -1.28312e+06 4.06296e+06 692350 1.87581e+06 1.49847e+06 -1.43494e+06
218 3 O 36.9862 3.56021 5.83988 -1.2 -8.81364 -3.50448e+06 -3.52035e+06 -2.6785e+06 1.14088e+06 -1.94678e+06 594329
219 1 Mg 35.7101 7.87678 1.48222 1.2 -9.47558 1.64642e+06 1.07108e+06 3.66311e+06 -1.10043e+06 -425124 476577
220 2 Si 33.5798 6.10112 1.41929 2.4 -34.4651 6.84765e+06 1.14425e+07 1.06384e+07 877521 -865618 1.46632e+06
221 3 O 36.7998 6.09082 1.42972 -1.2 -8.67157 -1.25885e+06 -3.42715e+06 -4.05579e+06 1.05942e+06 -173960 26571.8
222 3 O 34.6388 9.74938 1.50699 -1.2 -8.09849 -3.23721e+06 -3.46993e+06 -3.82377e+06 1.48675e+06 325284 -152649
223 3 O 34.3408 6.67712 0.0883012 -1.2 -8.42583 -2.8083e+06 -3.6875e+06 -3.31653e+06 20454.1 -1.72739e+06 -435144
224 3 O 34.3142 6.81426 2.68557 -1.2 -8.05951 -3.40165e+06 -3.3467e+06 -1.4064e+06 172509 1.61503e+06 -488854
225 1 Mg 38.0042 -0.00901949 -0.0572822 1.2 -8.01651 429719 3.77749e+06 577663 -1.5746e+06 -1.36303e+06 -1.59341e+06
226 1 Mg 42.7368 2.88455 1.42668 1.2 -8.36158 1.6995e+06 140116 2.91996e+06 283423 5414.63 -80014.6
227 2 Si 40.0622 1.04899 1.49121 2.4 -33.1973 6.11783e+06 9.79762e+06 8.50311e+06 114.649 607168 -5446.79
228 3 O 41.6109 0.992351 1.46132 -1.2 -9.51154 -2.77309e+06 -3.42545e+06 -3.73186e+06 482927 -164269 12529
229 3 O 39.0855 4.60682 1.38577 -1.2 -8.71511 -2.52119e+06 -3.55493e+06 -3.48885e+06 -1.58316e+06 537143 336954
230 3 O 39.3487 1.61796 0.149032 -1.2 -9.06859 -3.49736e+06 -3.47448e+06 -2.45052e+06 251315 1.62179e+06 296911
231 1 Mg 38.0074 0.0371752 2.93223 1.2 -7.92625 -150217 3.69832e+06 -96454.9 -1.60809e+06 1.77211e+06 1.44413e+06
232 3 O 39.3528 1.69099 2.7168 -1.2 -9.18411 -3.74058e+06 -4.40673e+06 -2.88511e+06 827929 -645579 -1.20673e+06
233 1 Mg 38.1589 7.40275 4.44557 1.2 -8.8806 3.11964e+06 157172 2.83289e+06 610863 -282025 751264
234 2 Si 40.758 9.27133 4.43332 2.4 -34.2146 7.23694e+06 9.09976e+06 8.1211e+06 94617.4 279621 1.24979e+06
235 3 O 39.2059 9.38507 4.46396 -1.2 -9.1334 -3.24259e+06 -3.59399e+06 -4.2413e+06 -456882 -60921 -490639
236 3 O 41.7883 5.57613 4.41926 -1.2 -9.10641 -2.74469e+06 -6.69309e+06 -2.86262e+06 -486794 -431607 -713874
237 3 O 41.3725 8.57411 3.16461 -1.2 -8.6687 -3.93285e+06 -2.92074e+06 -3.19732e+06 -472782 -375311 -1.33831e+06
238 3 O 41.4484 8.49765 5.70354 -1.2 -8.58079 -4.39778e+06 -4.19405e+06 -2.09152e+06 -894136 1.20959e+06 -116322
239 1 Mg 40.3941 5.05238 2.8346 1.2 -8.19939 -242091 3.95017e+06 -361843 378571 -1.381e+06 1.09016e+06
240 1 Mg 40.2331 2.38059 4.43854 1.2 -8.67817 2.39816e+06 751811 1.52958e+06 -1.20739e+06 612825 64131.5
241 2 Si 42.473 4.15454 4.44269 2.4 -33.9047 7.59823e+06 9.79559e+06 8.06856e+06 -659743 309541 -716424
242 3 O 39.2719 4.2143 4.37621 -1.2 -9.35574 -2.58226e+06 -4.18397e+06 -4.02382e+06 648267 -1.31456e+06 31279.2
243 3 O 41.3665 0.496516 4.45304 -1.2 -8.57614 -3.41874e+06 -4.66491e+06 -3.60545e+06 1.92368e+06 -301369 -661646
244 3 O 41.803 3.51472 3.13173 -1.2 -8.72125 -3.49331e+06 -4.47199e+06 -3.15129e+06 899588 1.02418e+06 -507977
245 1 Mg 40.4322 5.05154 -0.126859 1.2 -8.1976 -199801 3.75514e+06 -218371 847869 778734 -1.21949e+06
246 3 O 41.7864 3.39112 5.66897 -1.2 -8.48041 -3.37191e+06 -3.7593e+06 -2.17151e+06 710992 -827160 302819
247 1 Mg 40.4158 8.01537 1.32983 1.2 -8.91142 2.29141e+06 -131035 3.30751e+06 -945773 -340950 496452
248 2 Si 38.382 6.1564 1.39698 2.4 -34.4651 9.25963e+06 1.00939e+07 7.79073e+06 -963261 -1.36288e+06 261875
249 3 O 41.5535 6.06929 1.37315 -1.2 -9.16144 -4.26332e+06 -3.0841e+06 -4.01391e+06 882827 300604 300280
250 3 O 39.2976 9.70874 1.47421 -1.2 -8.65624 -3.03962e+06 -5.02913e+06 -3.86418e+06 766322 271137 205251
251 3 O 39.1353 6.75555 0.154282 -1.2 -8.48179 -4.89964e+06 -3.79098e+06 -3.65053e+06 223531 -408292 785457
252 3 O 39.0557 6.78857 2.66604 -1.2 -8.49717 -4.5991e+06 -3.24815e+06 -2.86574e+06 106157 964934 -860697
253 1 Mg 42.7 0.0472931 -0.0533662 1.2 -8.08827 -288880 3.66264e+06 635959 -1.38328e+06 -614770 -1.92674e+06
254 1 Mg 47.4584 2.83764 1.45048 1.2 -8.41011 2.2301e+06 -552700 2.15984e+06 -35269.6 413357 -667860
255 2 Si 44.8377 1.08291 1.46271 2.4 -33.286 6.55915e+06 1.05999e+07 6.74245e+06 1.34365e+06 723573 -1.23843e+06
256 3 O 46.3655 0.864852 1.46402 -1.2 -9.6206 -3.40458e+06 -3.16296e+06 -3.14266e+06 -655414 -5206.92 197334
257 3 O 43.7671 4.6199 1.46381 -1.2 -9.21395 -4.25412e+06 -4.8369e+06 -4.0384e+06 -1.53831e+06 61029.4 447679
258 3 O 44.1268 1.69163 0.171623 -1.2 -9.13966 -2.81959e+06 -3.44581e+06 -2.23409e+06 -358181 1.08869e+06 1.08135e+06
259 1 Mg 42.7638 0.100659 2.96355 1.2 -8.32419 -854930 3.66627e+06 -496961 -1.53486e+06 488403 1.75815e+06
260 3 O 44.1623 1.64013 2.71079 -1.2 -9.11488 -4.35734e+06 -5.85285e+06 -4.13686e+06 -312447 -315115 -1.96972e+06
261 1 Mg 42.7836 7.34845 4.39488 1.2 -8.50815 2.40758e+06 -5842.7 2.99367e+06 45994.9 216872 -73412.4
262 2 Si 45.376 9.11628 4.42443 2.4 -33.364 7.5052e+06 1.02117e+07 7.31038e+06 -1.23123e+06 -404177 720908
263 3 O 43.8609 9.26818 4.52844 -1.2 -9.27574 -4.58436e+06 -4.28187e+06 -2.91684e+06 -299596 297312 -335598
264 3 O 46.587 5.52008 4.33737 -1.2 -8.76742 -4.50899e+06 -5.1856e+06 -3.85285e+06 -1.61578e+06 212280 731894
265 3 O 46.1266 8.52964 3.13875 -1.2 -9.11576 -3.53689e+06 -4.6377e+06 -3.217e+06 -775265 -1.42674e+06 -1.41327e+06
266 3 O 46.1692 8.42092 5.66501 -1.2 -8.98787 -3.74517e+06 -3.97703e+06 -2.01818e+06 4821.06 1.48974e+06 845077
267 1 Mg 45.1195 5.0259 2.88151 1.2 -7.98689 -1.18271e+06 3.16081e+06 -1.39118e+06 606790 -1.01598e+06 1.47064e+06
268 1 Mg 45.0333 2.23075 4.3923 1.2 -8.46264 2.70157e+06 95143.1 1.44322e+06 -1.00114e+06 -412281 35452.1
269 2 Si 47.2066 4.00097 4.30802 2.4 -33.6612 7.65712e+06 1.02114e+07 6.65261e+06 -529959 214435 -305668
270 3 O 44.0676 4.15535 4.38349 -1.2 -9.32845 -3.12239e+06 -3.34537e+06 -4.49387e+06 225445 -57236 -57615.8
271 3 O 46.253 0.534071 4.47373 -1.2 -9.06418 -3.29416e+06 -5.30164e+06 -3.58829e+06 1.31209e+06 -638706 4589.64
272 3 O 46.4211 3.43374 3.04932 -1.2 -9.028 -4.27163e+06 -5.02193e+06 -3.3927e+06 891683 1.43002e+06 -780333
273 1 Mg 45.0883 5.14642 0.013783 1.2 -8.09572 -637978 3.46168e+06 -523962 722117 1.44397e+06 -1.4632e+06
274 3 O 46.5034 3.41273 5.61732 -1.2 -8.85792 -4.94072e+06 -3.82716e+06 -1.59964e+06 558237 -526145 1.10083e+06
275 1 Mg 45.1711 7.95717 1.45952 1.2 -8.57207 2.45379e+06 -114558 2.25681e+06 -1.52426e+06 -19649.1 -20544.4