ITEM: TIMESTEP
1100
ITEM: NUMBER OF ATOMS
38213
ITEM: BOX BOUNDS pp pp pp
0.0000000000000000e+00 7.1234999999999999e+01
0.0000000000000000e+00 7.1389499999999998e+01
0.0000000000000000e+00 7.7729600000000005e+01
ITEM: ATOMS id type element xu yu zu q c_pe c_s[1] c_s[2] c_s[3] c_s[4] c_s[5] c_s[6]
1 1 Mg 0.0111088 -0.014337 0.00123684 1.2 -8.23695 -704797 3.98426e+06 145043 -810499 -1.40323e+06 -1.82789e+06
2 1 Mg 4.63528 2.93441 1.5405 1.2 -8.5769 1.20834e+06 342944 2.03196e+06 538369 305143 117857
3 2 Si 2.0812 1.08644 1.50144 2.4 -33.6727 5.88797e+06 1.03073e+07 9.15843e+06 936852 158384 -310404
4 3 O 3.58378 0.84068 1.51723 -1.2 -9.34172 -4.67483e+06 -4.01989e+06 -4.50359e+06 -1.42738e+06 -279790 -108586
5 3 O 0.972051 4.6352 1.46919 -1.2 -8.97395 -4.6044e+06 -4.99891e+06 -2.88342e+06 -1.58142e+06 -222666 176992
6 3 O 1.44195 1.68954 0.160202 -1.2 -8.80743 -4.02997e+06 -3.59465e+06 -2.66671e+06 -425553 1.70209e+06 649454
7 1 Mg -0.0624319 0.0744051 2.92631 1.2 -8.15378 -817131 4.07286e+06 -587604 -768400 1.22729e+06 2.04474e+06
8 3 O 1.31407 1.7172 2.73378 -1.2 -8.93818 -3.94665e+06 -4.24176e+06 -2.70703e+06 168773 -1.66566e+06 -1.17677e+06
9 1 Mg 0.0417814 7.44375 4.43118 1.2 -8.57123 2.85913e+06 444002 2.84848e+06 735468 -44383.2 42045.5
10 2 Si 2.75168 9.29557 4.4773 2.4 -33.8612 6.70368e+06 1.0745e+07 8.619e+06 106681 382577 361410
11 3 O 1.20009 9.38751 4.41032 -1.2 -9.33615 -2.55699e+06 -3.75878e+06 -3.70549e+06 -162889 11641.3 -47742.2
12 3 O 3.80926 5.5729 4.42297 -1.2 -8.3022 -2.94555e+06 -5.68346e+06 -3.84397e+06 -1.27249e+06 483219 43754.9
13 3 O 3.43642 8.60821 3.1659 -1.2 -8.4828 -3.20336e+06 -3.34452e+06 -2.09682e+06 -534775 -1.06614e+06 -165948
14 3 O 3.44204 8.5499 5.73284 -1.2 -8.80177 -2.86339e+06 -3.23597e+06 -2.72464e+06 -1.05124e+06 827603 351656
15 1 Mg 2.31917 5.00723 2.96357 1.2 -8.21398 -147525 3.54667e+06 48929.5 1.32743e+06 -836034 1.58136e+06
16 1 Mg 2.29481 2.28391 4.45944 1.2 -8.58615 1.85576e+06 844465 1.89773e+06 -243879 180139 727035
17 2 Si 4.47793 4.1106 4.46085 2.4 -34.1752 5.62138e+06 1.05834e+07 8.34744e+06 190848 -1.08568e+06 -533910
18 3 O 1.18204 4.31235 4.45378 -1.2 -9.26064 -3.4768e+06 -3.80687e+06 -4.00243e+06 36895.8 -56991.4 374334
19 3 O 3.26294 0.536107 4.4238 -1.2 -8.86308 -2.19654e+06 -3.69622e+06 -2.94965e+06 512799 -30742.3 131446
20 3 O 3.71928 3.47775 3.22943 -1.2 -8.78522 -3.23324e+06 -5.91076e+06 -3.86509e+06 440104 1.29091e+06 -1.68295e+06
21 1 Mg 2.37998 5.09258 -0.0514805 1.2 -8.08857 -460212 3.66379e+06 162480 1.47783e+06 1.5105e+06 -1.01001e+06
22 3 O 3.66806 3.48552 5.75785 -1.2 -8.661 -2.48435e+06 -3.4365e+06 -3.59512e+06 619780 -1.54412e+06 449106
23 1 Mg 2.39865 7.95787 1.48898 1.2 -8.87388 2.15917e+06 349986 2.96647e+06 -1.29826e+06 146567 47305
24 2 Si 0.382931 6.16952 1.47303 2.4 -33.8708 7.15863e+06 9.60189e+06 6.93979e+06 686384 765603 582929
25 3 O 3.54681 6.02099 1.48706 -1.2 -9.01496 -2.32889e+06 -3.03478e+06 -4.62304e+06 697221 -534358 -214995
26 3 O 1.37283 9.77571 1.4506 -1.2 -8.88448 -3.43518e+06 -4.39079e+06 -3.45771e+06 1.07403e+06 -372380 131215
27 3 O 1.1063 6.77148 0.222408 -1.2 -8.93504 -4.20102e+06 -3.93186e+06 -3.81369e+06 -161331 -802888 764565
28 3 O 1.0539 6.86576 2.71141 -1.2 -8.74633 -4.29094e+06 -3.10678e+06 -3.57735e+06 -370593 216903 -572758
29 1 Mg 4.62472 -0.0260608 0.0204611 1.2 -8.14628 -309340 3.92282e+06 -26576.1 -913493 -1.09449e+06 -1.40099e+06
30 1 Mg 9.45828 2.77584 1.57705 1.2 -8.61623 1.57183e+06 434155 2.56266e+06 1.45336e+06 47727 65694.4
31 2 Si 6.71471 1.02452 1.43931 2.4 -33.7346 6.8848e+06 1.05955e+07 9.30924e+06 -701320 189454 546203
32 3 O 8.27052 0.823011 1.4523 -1.2 -9.3394 -2.16519e+06 -4.01465e+06 -3.42947e+06 -1.95314e+06 -22803.6 44233.4
33 3 O 5.79919 4.55961 1.46781 -1.2 -8.68897 -2.4102e+06 -4.04462e+06 -3.71906e+06 -1.65026e+06 23461.6 -36214.4
34 3 O 5.9937 1.69649 0.132889 -1.2 -8.85311 -2.73061e+06 -3.49005e+06 -1.20388e+06 -304963 1.29157e+06 -177028
35 1 Mg 4.74369 -0.0859097 2.92232 1.2 -8.07962 -252385 3.99508e+06 -293485 -581406 936418 2.09024e+06
36 3 O 5.99179 1.68226 2.73407 -1.2 -8.77037 -2.81543e+06 -3.5228e+06 -1.25332e+06 -103572 -1.14445e+06 -589142
37 1 Mg 4.88842 7.47204 4.42988 1.2 -8.84309 2.14409e+06 741117 2.84735e+06 826888 545555 -45100.5
38 2 Si 7.47108 9.15608 4.50883 2.4 -33.8861 6.04144e+06 1.09524e+07 8.45974e+06 -344737 73774.4 484634
39 3 O 5.91243 9.32098 4.50174 -1.2 -9.1856 -3.1253e+06 -4.24746e+06 -4.20066e+06 -1.42349e+06 -100802 -219548
40 3 O 8.49449 5.62037 4.49151 -1.2 -8.67411 -3.33437e+06 -4.56548e+06 -4.53189e+06 -831750 183124 -556588
41 3 O 8.15875 8.43265 3.25537 -1.2 -8.78036 -2.73333e+06 -3.99231e+06 -3.56065e+06 40939.7 -969903 -637794
42 3 O 8.22198 8.58343 5.75173 -1.2 -8.7026 -4.08613e+06 -4.6646e+06 -4.45371e+06 -48804.7 578227 121252
43 1 Mg 7.15716 5.05458 2.98185 1.2 -8.37386 -233519 3.55522e+06 -438518 1.25177e+06 -1.32434e+06 2.13715e+06
44 1 Mg 7.06402 2.23864 4.56255 1.2 -8.46039 1.88415e+06 -110228 3.02135e+06 -378082 428901 358645
45 2 Si 9.14291 4.13869 4.53301 2.4 -33.7897 5.34806e+06 1.05213e+07 8.92669e+06 385709 329783 -105915
46 3 O 5.99233 4.15322 4.44357 -1.2 -9.33557 -4.16379e+06 -4.22996e+06 -4.07306e+06 564494 -289455 -197167
47 3 O 7.98542 0.487521 4.44603 -1.2 -8.9712 -2.44153e+06 -4.1679e+06 -3.20436e+06 1.17714e+06 -362309 -508275
48 3 O 8.51322 3.51797 3.18218 -1.2 -8.74349 -3.87492e+06 -4.37924e+06 -2.46934e+06 405950 970032 -563085
49 1 Mg 7.16062 5.05634 0.014114 1.2 -8.17883 -504372 3.76001e+06 324214 1.07823e+06 1.86841e+06 -1.52783e+06
50 3 O 8.44351 3.41946 5.75972 -1.2 -8.9571 -3.40448e+06 -3.50867e+06 -3.06298e+06 266991 -520448 279034
51 1 Mg 7.23508 7.95666 1.55876 1.2 -8.66381 2.21548e+06 706542 2.00128e+06 -858060 -80125.7 -47242.8
52 2 Si 5.09718 6.12235 1.47529 2.4 -34.119 7.37153e+06 9.54585e+06 9.58487e+06 -939784 -372132 281626
53 3 O 8.32552 6.0186 1.58287 -1.2 -9.00721 -3.70929e+06 -3.83182e+06 -4.56365e+06 386621 173341 -116885
54 3 O 6.15672 9.78842 1.55558 -1.2 -8.94129 -3.03139e+06 -5.09968e+06 -2.88029e+06 850011 291534 -1.10992e+06
55 3 O 5.81318 6.71277 0.202635 -1.2 -8.75722 -3.57689e+06 -3.2081e+06 -2.93437e+06 5328.06 -465695 318538
56 3 O 5.75857 6.71107 2.79174 -1.2 -8.64611 -4.94689e+06 -3.18125e+06 -2.79247e+06 -120661 1.16724e+06 -562210
57 1 Mg 9.50696 0.00435195 -0.0222791 1.2 -7.96222 55382 3.80042e+06 197223 -1.06639e+06 -1.12171e+06 -1.5908e+06
58 1 Mg 14.229 2.8952 1.55394 1.2 -8.64326 2.06219e+06 287303 1.9071e+06 978512 447311 -256648
59 2 Si 11.5188 1.034 1.42013 2.4 -33.7288 5.43109e+06 1.11199e+07 7.83535e+06 363059 -1.34614e+06 -59421.8
60 3 O 13.0721 0.921736 1.47499 -1.2 -9.22673 -3.45455e+06 -4.49031e+06 -5.3143e+06 -772556 -173117 419064
61 3 O 10.5015 4.60811 1.44503 -1.2 -8.73318 -3.7463e+06 -5.71406e+06 -3.8632e+06 -686764 736510 160247
62 3 O 10.8305 1.69584 0.220907 -1.2 -8.86932 -4.44327e+06 -4.3541e+06 -3.82983e+06 815797 223807 752517
63 1 Mg 9.47313 -0.0327253 2.90022 1.2 -8.11426 418641 3.6517e+06 159476 -1.28896e+06 1.15714e+06 1.58827e+06
64 3 O 10.7757 1.64755 2.71891 -1.2 -8.96362 -2.77944e+06 -4.00743e+06 -3.01649e+06 502728 -635394 -80231.8
65 1 Mg 9.63166 7.41752 4.48952 1.2 -8.89906 2.35037e+06 -481840 2.48814e+06 1.18119e+06 207911 644742
66 2 Si 12.2488 9.18008 4.55765 2.4 -34.1161 5.30875e+06 1.03058e+07 7.9582e+06 480421 215080 56053.7
67 3 O 10.7183 9.2288 4.58417 -1.2 -9.38185 -4.36467e+06 -4.81905e+06 -4.17816e+06 -1.15181e+06 806713 99022.3
68 3 O 13.277 5.62033 4.45716 -1.2 -9.11216 -2.96436e+06 -4.28004e+06 -3.411e+06 -920641 -203693 -800850
69 3 O 12.938 8.46987 3.27157 -1.2 -8.66237 -2.78704e+06 -3.80641e+06 -2.75422e+06 -910050 -933179 -62381.6
70 3 O 12.9765 8.46163 5.79976 -1.2 -8.49791 -3.83673e+06 -4.59291e+06 -3.59147e+06 -1.10352e+06 799186 818490
71 1 Mg 11.9394 5.10625 2.98992 1.2 -8.03605 -679035 3.55831e+06 68512.9 1.39415e+06 -1.75415e+06 2.53144e+06
72 1 Mg 11.8298 2.28428 4.44451 1.2 -8.4328 2.33309e+06 294092 3.12022e+06 -647763 -31376.5 89887.2
73 2 Si 13.9821 4.15432 4.40132 2.4 -32.7654 6.94481e+06 1.15872e+07 8.50871e+06 460896 138491 148247
74 3 O 10.6968 4.20003 4.52792 -1.2 -9.39715 -2.12886e+06 -4.27663e+06 -3.84384e+06 67637 -693603 -64974
75 3 O 12.855 0.543253 4.40244 -1.2 -8.83924 -3.14833e+06 -4.35698e+06 -3.52358e+06 1.00768e+06 322412 -490268
76 3 O 13.2426 3.51462 3.13924 -1.2 -9.24108 -2.77107e+06 -4.48271e+06 -3.36574e+06 908898 1.32527e+06 -471278
77 1 Mg 11.8466 5.09525 -0.00836997 1.2 -8.16809 -522474 3.51103e+06 -618281 1.10633e+06 2.03199e+06 -1.68461e+06
78 3 O 13.268 3.38238 5.71748 -1.2 -9.11002 -3.26743e+06 -3.56013e+06 -1.63475e+06 681458 -2.11163e+06 -457457
79 1 Mg 11.9757 7.91179 1.49732 1.2 -8.59827 2.0568e+06 668711 3.13153e+06 -124309 261164 196643
80 2 Si 9.85563 6.05804 1.51692 2.4 -34.1793 5.83635e+06 9.52732e+06 9.61584e+06 438987 -245156 842117
81 3 O 12.9927 6.01303 1.47482 -1.2 -9.39893 -2.30621e+06 -4.01816e+06 -4.06779e+06 944593 207222 -593596
82 3 O 10.8328 9.67722 1.47052 -1.2 -8.6389 -3.58474e+06 -3.5221e+06 -2.44268e+06 737673 -369371 -407952
83 3 O 10.4952 6.70444 0.193232 -1.2 -8.71712 -3.47366e+06 -4.269e+06 -2.81774e+06 187944 -1.01674e+06 676079
84 3 O 10.5783 6.73242 2.81595 -1.2 -8.61085 -4.3528e+06 -2.878e+06 -2.20411e+06 -264746 735819 -663287
85 1 Mg 14.1992 -0.000560538 0.0661969 1.2 -8.26648 -2766.07 3.56423e+06 -490414 -388265 -1.09174e+06 -1.68862e+06
86 1 Mg 18.9077 2.90015 1.45196 1.2 -8.82934 1.93785e+06 163581 3.0115e+06 1.13031e+06 522753 939037
87 2 Si 16.2384 0.998208 1.54207 2.4 -34.0591 5.82187e+06 1.03028e+07 8.74227e+06 402821 -718729 106727
88 3 O 17.7776 0.94456 1.49434 -1.2 -8.99446 -3.65303e+06 -4.4055e+06 -4.14762e+06 -231316 -284664 -754766
89 3 O 15.2376 4.66739 1.44463 -1.2 -8.84145 -2.96479e+06 -4.87175e+06 -3.55593e+06 -1.88707e+06 -118740 -490745
90 3 O 15.5711 1.67373 0.247124 -1.2 -8.53349 -4.47839e+06 -2.91112e+06 -3.27345e+06 136001 1.00254e+06 -253070
91 1 Mg 14.1026 0.0403906 2.89458 1.2 -8.18186 -901341 3.47117e+06 -1.09257e+06 -476274 1.47063e+06 1.84317e+06
92 3 O 15.5445 1.72837 2.76024 -1.2 -8.87003 -3.18968e+06 -3.55857e+06 -3.36576e+06 -637434 -150085 -429221
93 1 Mg 14.4439 7.37445 4.42692 1.2 -8.69927 2.66275e+06 -280233 1.44462e+06 1.01095e+06 292033 21694
94 2 Si 17.0141 9.22331 4.56345 2.4 -33.8818 7.43937e+06 1.02821e+07 8.06371e+06 104725 -107525 -576676
95 3 O 15.4392 9.29824 4.5775 -1.2 -9.31974 -2.83563e+06 -4.38405e+06 -3.20217e+06 -721799 546685 476958
96 3 O 18.0255 5.67457 4.50583 -1.2 -8.92027 -3.24013e+06 -6.18382e+06 -3.14263e+06 -1.41397e+06 -189635 693902
97 3 O 17.6609 8.55863 3.2765 -1.2 -8.52747 -3.50319e+06 -4.64072e+06 -2.97808e+06 -178355 -816221 -551310
98 3 O 17.7668 8.50469 5.81597 -1.2 -8.70687 -3.32603e+06 -3.92757e+06 -2.55313e+06 -736105 932481 209185
99 1 Mg 16.6688 5.11583 2.93732 1.2 -8.01534 -821943 4.13141e+06 -5730.72 1.14323e+06 -682291 1.94301e+06
100 1 Mg 16.6387 2.31961 4.50617 1.2 -8.53219 2.24016e+06 344030 2.86005e+06 -145803 354692 545215
101 2 Si 18.6973 4.24044 4.48121 2.4 -33.7818 7.61195e+06 1.09556e+07 8.79479e+06 630764 785130 1.90616e+06
102 3 O 15.5654 4.26745 4.45565 -1.2 -9.56953 -1.38773e+06 -4.27232e+06 -3.75624e+06 278391 145804 -264722
103 3 O 17.6469 0.515369 4.54569 -1.2 -9.08641 -3.96412e+06 -5.46135e+06 -3.70504e+06 405518 -47262.9 271105
104 3 O 17.9659 3.45949 3.17467 -1.2 -8.75312 -3.30906e+06 -2.36722e+06 -1.52114e+06 868598 1.5462e+06 -448151
105 1 Mg 16.6496 5.05203 0.00660035 1.2 -8.10493 -1.27684e+06 4.3084e+06 -1.0544e+06 1.40747e+06 2.50811e+06 -1.0141e+06
106 3 O 18.06 3.54969 5.73898 -1.2 -8.72873 -3.80346e+06 -4.20705e+06 -3.14991e+06 -281468 -1.09278e+06 445681
107 1 Mg 16.7095 7.92541 1.54161 1.2 -8.77099 1.77707e+06 605094 3.0956e+06 -384983 453533 559165
108 2 Si 14.562 6.18288 1.46394 2.4 -33.5223 7.97008e+06 1.02519e+07 8.79501e+06 721007 -138045 1.03531e+06
109 3 O 17.7833 6.07144 1.44748 -1.2 -9.26724 -794243 -4.00371e+06 -4.2503e+06 162781 -886279 -100218
110 3 O 15.663 9.72447 1.47784 -1.2 -8.78478 -3.64597e+06 -4.70341e+06 -3.42609e+06 764280 -612845 -579574
111 3 O 15.3167 6.83312 0.218571 -1.2 -8.73461 -3.39e+06 -4.42157e+06 -2.19435e+06 120503 -1.29184e+06 523252
112 3 O 15.299 6.76199 2.78361 -1.2 -8.98006 -3.66263e+06 -3.70286e+06 -3.22014e+06 146020 1.87706e+06 -1.27842e+06
113 1 Mg 18.8805 0.0316836 0.0261138 1.2 -8.7216 -1.1958e+06 3.9805e+06 336625 -1.07672e+06 -1.4157e+06 -1.65672e+06
114 1 Mg 23.7126 2.89865 1.51459 1.2 -9.2252 1.66509e+06 -99195 2.5888e+06 1.39437e+06 -211196 -51581.5
115 2 Si 20.9874 1.00872 1.4562 2.4 -34.3042 5.92868e+06 1.0724e+07 8.60247e+06 1.62454e+06 775139 1.28772e+06
116 3 O 22.5088 0.988403 1.44857 -1.2 -8.99018 -3.09173e+06 -4.28925e+06 -3.58756e+06 -752440 -35115.9 -243533
117 3 O 20.016 4.60542 1.51896 -1.2 -9.14198 -2.38903e+06 -3.41322e+06 -3.63403e+06 -1.63531e+06 -119173 313284
118 3 O 20.2495 1.63673 0.208879 -1.2 -8.48162 -3.56414e+06 -3.75325e+06 -3.96088e+06 -680532 -174307 145075
119 1 Mg 19.0052 0.158109 3.00798 1.2 -8.2451 -1.30784e+06 3.91959e+06 521109 -482280 2.16344e+06 1.99264e+06
120 3 O 20.2993 1.75534 2.72791 -1.2 -8.46836 -3.05438e+06 -4.06725e+06 -2.89437e+06 -767944 -925092 -500578
121 1 Mg 19.1169 7.43099 4.51827 1.2 -9.05073 1.63122e+06 -48375.4 1.99113e+06 1.46705e+06 305850 93381.3
122 2 Si 21.7893 9.20332 4.49168 2.4 -34.8309 4.79058e+06 1.1252e+07 9.50787e+06 755005 91335.2 695779
123 3 O 20.2458 9.29695 4.51589 -1.2 -8.69317 -3.22274e+06 -5.27642e+06 -4.71025e+06 -1.4494e+06 -963165 248452
124 3 O 22.7637 5.62844 4.5044 -1.2 -8.65095 -2.29595e+06 -4.85057e+06 -3.87825e+06 -1.63488e+06 845098 -122887
125 3 O 22.4808 8.5337 3.19087 -1.2 -8.50874 -3.0399e+06 -4.82154e+06 -3.00182e+06 -174885 -1.33302e+06 -877068
126 3 O 22.4401 8.58057 5.78353 -1.2 -8.47164 -3.32852e+06 -4.56356e+06 -3.19326e+06 -252856 128346 495769
127 1 Mg 21.3514 5.15903 2.92574 1.2 -8.21921 -1.07618e+06 4.82857e+06 -348228 863476 -1.42856e+06 2.10975e+06
128 1 Mg 21.3493 2.29346 4.46273 1.2 -9.0574 1.95683e+06 1.51942e+06 3.58151e+06 -569820 -65.8398 208418
129 2 Si 23.4614 4.13261 4.47608 2.4 -34.3372 5.52532e+06 1.14666e+07 9.24305e+06 -141248 -22779.4 639293
130 3 O 20.3089 4.30228 4.43715 -1.2 -8.95051 -935563 -4.41608e+06 -4.87923e+06 -213845 10301.7 -795673
131 3 O 22.3786 0.468304 4.48954 -1.2 -8.31733 -3.55959e+06 -5.18202e+06 -2.76828e+06 304065 356355 -486197
132 3 O 22.8087 3.48159 3.18364 -1.2 -8.40105 -3.3719e+06 -3.94005e+06 -4.27621e+06 314787 1.44774e+06 -1.11749e+06
133 1 Mg 21.4055 5.00684 0.0688471 1.2 -8.15897 -742510 4.3763e+06 -585491 1.62614e+06 2.04559e+06 -1.57485e+06
134 3 O 22.737 3.41245 5.72273 -1.2 -8.26512 -3.84136e+06 -4.11285e+06 -2.97613e+06 99800.6 -715940 -333124
135 1 Mg 21.5334 8.00241 1.5554 1.2 -8.94628 1.5689e+06 721867 2.22606e+06 -674610 -569517 460255
136 2 Si 19.3849 6.1624 1.44907 2.4 -33.3858 7.10866e+06 1.22526e+07 9.0846e+06 430955 615534 1.35187e+06
137 3 O 22.576 6.02452 1.50269 -1.2 -9.04311 -504736 -4.43285e+06 -4.8866e+06 814808 482031 -208025
138 3 O 20.4117 9.70256 1.62127 -1.2 -8.16427 -3.79242e+06 -6.90411e+06 -4.88145e+06 1.23265e+06 434240 -747350
139 3 O 20.1133 6.79806 0.222866 -1.2 -8.8523 -3.64575e+06 -3.52622e+06 -1.81586e+06 249850 -277426 -366558
140 3 O 19.9965 6.89835 2.81479 -1.2 -8.59197 -2.98042e+06 -3.12492e+06 -1.47916e+06 341662 1.18068e+06 497846
141 1 Mg 23.6982 0.10645 -0.116196 1.2 -8.29307 -1.34887e+06 4.34781e+06 28034.7 -580980 -1.11925e+06 -1.69394e+06
142 1 Mg 28.3868 2.83781 1.57549 1.2 -8.66834 2.2626e+06 735058 2.9919e+06 1.34423e+06 600084 -36326.5
143 2 Si 25.7552 1.01237 1.42425 2.4 -34.2058 5.70362e+06 1.12598e+07 8.54385e+06 101881 647210 -585297
144 3 O 27.2956 0.951977 1.51685 -1.2 -9.31394 -2.63745e+06 -4.16023e+06 -3.2377e+06 -555891 458421 -35331.1
145 3 O 24.8067 4.57179 1.47797 -1.2 -8.50984 -3.13927e+06 -4.04627e+06 -4.02299e+06 -1.71873e+06 378555 -224165
146 3 O 25.0191 1.69678 0.136068 -1.2 -8.36617 -2.89818e+06 -4.42406e+06 -2.62091e+06 -901487 1.27891e+06 11971.8
147 1 Mg 23.7152 0.00944895 2.92907 1.2 -8.44891 -653068 4.61097e+06 680781 -628203 1.28243e+06 1.75383e+06
148 3 O 25.0686 1.69523 2.67657 -1.2 -8.49795 -3.47894e+06 -4.10335e+06 -3.23176e+06 157009 -174269 -658088
149 1 Mg 23.9362 7.41044 4.55733 1.2 -8.6435 2.06404e+06 510392 2.50263e+06 1.07707e+06 -161833 1.05645e+06
150 2 Si 26.5014 9.17317 4.45651 2.4 -34.384 5.51043e+06 1.15899e+07 9.73916e+06 -29893.9 -417766 1.30536e+06
151 3 O 24.9707 9.24264 4.50934 -1.2 -9.289 -3.88595e+06 -4.47449e+06 -4.42936e+06 -896310 -487339 -330787
152 3 O 27.535 5.63942 4.53171 -1.2 -8.65682 -2.42708e+06 -6.28794e+06 -3.45025e+06 -1.04433e+06 -125409 -365002
153 3 O 27.2032 8.46517 3.20325 -1.2 -8.38352 -3.4636e+06 -4.35539e+06 -2.87387e+06 -88975.4 -870407 -773273
154 3 O 27.244 8.58892 5.76337 -1.2 -8.28946 -3.96079e+06 -3.88265e+06 -2.67973e+06 250615 1.23207e+06 -17205.5
155 1 Mg 26.1298 5.06743 3.05943 1.2 -8.10555 -339511 4.04777e+06 207307 1.75745e+06 -1.09891e+06 2.38094e+06
156 1 Mg 26.1416 2.3064 4.43516 1.2 -8.73462 2.70861e+06 407082 3.53128e+06 -273000 100807 384329
157 2 Si 28.2147 4.17106 4.57401 2.4 -34.4104 4.63845e+06 1.03765e+07 7.74529e+06 307448 914676 1.20571e+06
158 3 O 25.0005 4.17422 4.53177 -1.2 -9.29142 -3.29181e+06 -4.17348e+06 -4.8318e+06 -500984 15964.8 -211376
159 3 O 27.1079 0.43675 4.47117 -1.2 -8.71849 -3.65932e+06 -8.01017e+06 -3.87099e+06 211710 114308 -980226
160 3 O 27.5088 3.48944 3.27535 -1.2 -8.66432 -3.47932e+06 -3.68418e+06 -3.57354e+06 -258391 659826 -885161
161 1 Mg 26.1788 5.18876 0.0494999 1.2 -8.54396 -840714 3.64374e+06 -606268 1.39205e+06 1.45418e+06 -1.69172e+06
162 3 O 27.5868 3.50841 5.77414 -1.2 -8.55493 -4.84664e+06 -4.85232e+06 -5.35609e+06 -811751 -81958.9 1.28789e+06
163 1 Mg 26.269 7.88311 1.46324 1.2 -8.6896 1.64574e+06 40074.6 3.0353e+06 -39504.7 422437 340994
164 2 Si 24.1619 6.12451 1.51379 2.4 -33.8789 6.29165e+06 1.16692e+07 9.09295e+06 -265076 284471 1.42663e+06
165 3 O 27.2917 6.07238 1.46012 -1.2 -9.19254 -4.33799e+06 -4.88759e+06 -4.69772e+06 -2169.3 -524689 -1.66199e+06
166 3 O 25.2545 9.64714 1.49078 -1.2 -8.87368 -3.69153e+06 -3.3213e+06 -3.17524e+06 952690 -75838.9 -1.15033e+06
167 3 O 24.7495 6.7337 0.180625 -1.2 -8.77919 -3.70635e+06 -4.73713e+06 -2.2015e+06 -31664.3 -431646 -194931
168 3 O 24.8548 6.74013 2.80915 -1.2 -8.99502 -3.97848e+06 -3.60957e+06 -1.33613e+06 -256481 643989 -1.11877e+06
169 1 Mg 28.5099 0.162892 -0.0311564 1.2 -8.06212 -403059 4.05973e+06 587569 -932376 -1.17249e+06 -1.34006e+06
170 1 Mg 33.1728 2.75111 1.59775 1.2 -9.08937 1.5252e+06 584230 3.81879e+06 859778 -177750 361490
171 2 Si 30.4977 1.03627 1.5266 2.4 -33.8145 5.7146e+06 1.07105e+07 8.57221e+06 1.15737e+06 189455 390786
172 3 O 32.0762 0.934529 1.52736 -1.2 -9.13741 -2.17107e+06 -3.8007e+06 -3.88868e+06 -1.11317e+06 261546 -325559
173 3 O 29.4879 4.66528 1.49894 -1.2 -8.43309 -2.792e+06 -4.70572e+06 -3.65092e+06 -1.3734e+06 12277.8 3044.65
174 3 O 29.8347 1.63897 0.19953 -1.2 -8.90132 -3.18539e+06 -4.64344e+06 -1.83163e+06 -535263 502349 396272
175 1 Mg 28.5035 0.030517 3.01255 1.2 -8.24226 -399791 3.92082e+06 92492.8 -801543 1.90289e+06 1.96373e+06
176 3 O 29.8324 1.64964 2.78469 -1.2 -8.86001 -3.46688e+06 -4.39803e+06 -2.8865e+06 -92709.8 -301618 -1.20671e+06
177 1 Mg 28.6055 7.39057 4.51547 1.2 -9.15751 1.58298e+06 698434 3.13849e+06 1.08821e+06 -224599 714693
178 2 Si 31.272 9.30873 4.5307 2.4 -34.8599 7.96299e+06 1.06131e+07 7.54181e+06 -578624 -735415 1.662e+06
179 3 O 29.7004 9.41715 4.51923 -1.2 -8.75354 -2.33757e+06 -4.21506e+06 -4.31176e+06 -367564 515284 -195885
180 3 O 32.2574 5.6495 4.48011 -1.2 -8.44036 -3.43971e+06 -4.72596e+06 -3.15031e+06 -1.38606e+06 743500 -1.59502e+06
181 3 O 31.9399 8.5603 3.22464 -1.2 -8.1447 -3.4263e+06 -3.44729e+06 -2.34286e+06 -710727 -907540 -699180
182 3 O 32.0014 8.65497 5.73882 -1.2 -8.23204 -3.94737e+06 -5.0765e+06 -4.45602e+06 -372281 966430 911069
183 1 Mg 30.9038 5.25848 2.95833 1.2 -8.51865 -196349 4.30287e+06 -305786 669764 -681618 1.9565e+06
184 1 Mg 30.8074 2.37466 4.56192 1.2 -8.99362 1.79059e+06 1.38606e+06 3.5817e+06 -732841 -156112 48364.9
185 2 Si 32.9058 4.14668 4.64568 2.4 -34.346 6.91201e+06 1.25027e+07 9.2056e+06 272614 -132222 -262376
186 3 O 29.7551 4.22872 4.53191 -1.2 -8.92978 -3.70761e+06 -4.07191e+06 -4.20269e+06 44932.4 385250 -386105
187 3 O 31.8002 0.487209 4.55729 -1.2 -8.41483 -3.4015e+06 -4.93205e+06 -3.40018e+06 209526 257383 405623
188 3 O 32.2421 3.44434 3.32721 -1.2 -8.26892 -3.49927e+06 -4.13961e+06 -1.20441e+06 354451 1.29539e+06 -643955
189 1 Mg 30.9098 5.07045 0.0687676 1.2 -8.33212 -71961.5 3.91121e+06 256805 1.14876e+06 1.3548e+06 -1.37586e+06
190 3 O 32.1966 3.4813 5.91816 -1.2 -8.64908 -3.38423e+06 -3.58872e+06 -3.41788e+06 673616 -930143 -169458
191 1 Mg 30.9337 7.9545 1.46069 1.2 -9.02311 2.38832e+06 343157 3.85948e+06 -982216 -28889.6 599910
192 2 Si 28.8071 6.16926 1.47454 2.4 -34.5854 4.3573e+06 1.12861e+07 8.50435e+06 440549 88867.7 1.71191e+06
193 3 O 32.0348 5.98389 1.52702 -1.2 -8.99881 -1.68383e+06 -4.26499e+06 -4.85363e+06 -120054 200970 -309515
194 3 O 29.8113 9.72407 1.45132 -1.2 -8.42041 -2.77798e+06 -5.49865e+06 -4.04837e+06 1.27183e+06 -2594 -60865.2
195 3 O 29.5783 6.78224 0.260513 -1.2 -8.4493 -3.17104e+06 -4.73733e+06 -5.26337e+06 -440625 -596997 669412
196 3 O 29.5144 6.84446 2.73229 -1.2 -8.29114 -3.60345e+06 -4.4651e+06 -3.88113e+06 445057 892393 -1.33616e+06
197 1 Mg 33.2307 0.0413478 -0.00761419 1.2 -8.27082 -525051 4.01276e+06 90049.2 -754363 -1.83523e+06 -1.00732e+06
198 1 Mg 37.8795 2.89612 1.50502 1.2 -8.64065 2.28841e+06 -154713 2.43605e+06 190472 134668 62535
199 2 Si 35.3342 1.01844 1.46551 2.4 -33.926 5.60725e+06 1.0114e+07 9.68969e+06 -327874 -762613 1.00676e+06
200 3 O 36.8559 1.00627 1.53136 -1.2 -9.52049 -3.43382e+06 -3.83745e+06 -3.65534e+06 -57096.2 197879 111700
201 3 O 34.3123 4.5297 1.48648 -1.2 -8.6553 -2.54196e+06 -2.45006e+06 -3.37007e+06 -1.61919e+06 387184 -324340
202 3 O 34.567 1.6265 0.240944 -1.2 -8.54514 -2.85541e+06 -5.741e+06 -3.41453e+06 -221900 943556 1.0139e+06
203 1 Mg 33.207 0.0464356 3.04394 1.2 -8.27125 -269071 4.10657e+06 203858 -272159 480086 2.15221e+06
204 3 O 34.5706 1.69358 2.81795 -1.2 -8.34752 -2.61509e+06 -3.51519e+06 -2.02895e+06 215105 -1.35982e+06 129590
205 1 Mg 33.392 7.40603 4.42786 1.2 -9.38031 2.29323e+06 1.01527e+06 1.93717e+06 1.06592e+06 735497 -64283.3
206 2 Si 36.0561 9.18425 4.48056 2.4 -35.549 6.27508e+06 1.02753e+07 8.17616e+06 515602 -27777.9 694251
207 3 O 34.5019 9.31619 4.4671 -1.2 -8.16581 -3.75876e+06 -3.60071e+06 -3.96561e+06 -1.05982e+06 -197388 -432174
208 3 O 37.0039 5.68153 4.45345 -1.2 -8.61907 -2.67832e+06 -3.29768e+06 -2.94779e+06 -1.16046e+06 -260970 -488655
209 3 O 36.6996 8.55542 3.20711 -1.2 -8.40737 -4.03475e+06 -4.50497e+06 -3.91285e+06 302603 210625 -1.64588e+06
210 3 O 36.6148 8.56666 5.79505 -1.2 -8.1041 -3.91669e+06 -5.05201e+06 -3.02071e+06 467510 -179467 791959
211 1 Mg 35.6694 5.11331 3.03427 1.2 -8.33094 -771896 3.95591e+06 148423 1.2542e+06 -1.94658e+06 2.33755e+06
212 1 Mg 35.6139 2.33227 4.49823 1.2 -8.8687 2.17713e+06 906840 2.70242e+06 -1.07405e+06 135539 216779
213 2 Si 37.7273 4.14074 4.42618 2.4 -33.4525 7.22937e+06 1.1895e+07 7.18195e+06 -786414 -373922 293536
214 3 O 34.4747 4.26272 4.52783 -1.2 -8.90752 -1.43104e+06 -5.18614e+06 -3.2141e+06 496403 -1.17951e+06 -285872
215 3 O 36.56 0.486059 4.46059 -1.2 -8.59205 -3.40163e+06 -4.89716e+06 -3.69847e+06 2.30611e+06 -81732.9 111344
216 3 O 37.0294 3.47127 3.20419 -1.2 -9.0074 -3.73196e+06 -3.98821e+06 -4.4619e+06 548365 1.02335e+06 -1.09019e+06
217 1 Mg 35.5589 5.12303 0.0212991 1.2 -8.32303 -1.20709e+06 4.70856e+06 353105 785928 1.47674e+06 -1.1396e+06
218 3 O 36.975 3.44277 5.69509 -1.2 -8.86826 -2.7796e+06 -3.28175e+06 -2.36014e+06 883995 -1.32619e+06 -137870
219 1 Mg 35.6969 8.00118 1.55102 1.2 -9.08002 2.21122e+06 286635 3.30428e+06 -470044 -389663 611836
220 2 Si 33.6275 6.06707 1.53644 2.4 -34.0104 6.6827e+06 1.27945e+07 1.04487e+07 215546 -815044 242799
221 3 O 36.717 6.02201 1.46277 -1.2 -9.12273 -3.09995e+06 -3.97557e+06 -4.04033e+06 724260 -408283 -434993
222 3 O 34.6119 9.72364 1.56007 -1.2 -8.29953 -3.8878e+06 -3.71191e+06 -3.92429e+06 945491 270218 -636258
223 3 O 34.2843 6.79146 0.204342 -1.2 -8.43208 -3.50126e+06 -2.70819e+06 -1.1339e+06 457588 -847084 -792885
224 3 O 34.2539 6.75001 2.84251 -1.2 -8.52041 -4.07663e+06 -3.85839e+06 -3.05798e+06 363704 1.68894e+06 -399687
225 1 Mg 37.9564 0.0426439 -0.0242364 1.2 -8.06392 142037 4.00203e+06 782164 -1.25676e+06 -1.0269e+06 -1.6586e+06
226 1 Mg 42.6851 2.85168 1.34529 1.2 -8.5058 2.39886e+06 353604 2.76038e+06 620925 -135265 -88184.4
227 2 Si 40.0808 1.0577 1.44875 2.4 -33.7863 6.39419e+06 1.08112e+07 8.53639e+06 -447951 387481 555461
228 3 O 41.622 0.987446 1.44124 -1.2 -9.31952 -3.90157e+06 -3.59511e+06 -3.47728e+06 -246926 -580190 -74596.3
229 3 O 38.9121 4.69474 1.3899 -1.2 -8.9226 -3.49e+06 -7.70829e+06 -3.59116e+06 -406773 255002 -1.27688e+06
230 3 O 39.3899 1.69476 0.169621 -1.2 -8.65595 -3.44885e+06 -3.54766e+06 -2.80344e+06 412091 480362 530372
231 1 Mg 38.0285 0.151754 3.0125 1.2 -8.13349 -157406 3.88078e+06 -225152 -925220 488862 1.70945e+06
232 3 O 39.3961 1.80683 2.7228 -1.2 -8.86518 -3.85384e+06 -2.69365e+06 -2.39018e+06 -262937 -1.38279e+06 -245353
233 1 Mg 38.207 7.41352 4.41304 1.2 -8.7814 2.33331e+06 312620 3.3251e+06 265214 87416.6 88214.1
234 2 Si 40.7779 9.09408 4.48005 2.4 -34.016 7.28104e+06 9.18538e+06 9.45538e+06 -320015 -395764 986994
235 3 O 39.2331 9.2428 4.46536 -1.2 -9.08614 -3.34455e+06 -3.97678e+06 -3.44608e+06 -915145 -576404 -201245
236 3 O 41.7104 5.62644 4.39532 -1.2 -9.01318 -4.68097e+06 -5.10521e+06 -2.74422e+06 -1.14046e+06 679650 212492
237 3 O 41.488 8.54864 3.1349 -1.2 -8.91977 -4.09416e+06 -3.32959e+06 -2.23175e+06 183685 -1.10774e+06 -963197
238 3 O 41.4602 8.49568 5.76625 -1.2 -8.61667 -4.52961e+06 -5.35845e+06 -1.60429e+06 -37375.8 694780 1.07671e+06
239 1 Mg 40.3397 5.10626 2.89261 1.2 -7.9348 -823586 3.61847e+06 81383.3 590133 -1.27191e+06 1.9282e+06
240 1 Mg 40.3572 2.32408 4.44233 1.2 -8.64805 1.59199e+06 -500066 2.66145e+06 -1.0906e+06 -113463 83826.7
241 2 Si 42.3773 4.15331 4.32989 2.4 -33.3249 7.33372e+06 1.05461e+07 5.38759e+06 -622703 -726438 -225888
242 3 O 39.2812 4.26012 4.46698 -1.2 -9.37354 -2.67921e+06 -4.49311e+06 -3.32187e+06 707384 -67909.3 -587706
243 3 O 41.3341 0.622775 4.48045 -1.2 -8.70538 -2.80665e+06 -3.72364e+06 -3.23293e+06 1.7659e+06 375890 1.34115e+06
244 3 O 41.6914 3.46385 3.16279 -1.2 -9.11567 -3.9479e+06 -4.41916e+06 -4.27377e+06 104054 -23218.7 -1.71559e+06
245 1 Mg 40.3041 5.15004 -0.0347198 1.2 -7.92686 -632119 4.21653e+06 -508597 869802 1.37348e+06 -1.26832e+06
246 3 O 41.7329 3.47903 5.66949 -1.2 -8.86993 -4.1386e+06 -4.09919e+06 -2.17577e+06 1.49638e+06 -730524 92028.2
247 1 Mg 40.556 7.87078 1.45607 1.2 -8.73562 2.83361e+06 -67260.4 2.82358e+06 -223371 -516256 117598
248 2 Si 38.2732 6.1319 1.38256 2.4 -34.0808 6.00693e+06 9.65036e+06 7.82437e+06 631585 80666 735351
249 3 O 41.4998 6.0205 1.37437 -1.2 -9.62459 -2.80154e+06 -3.52042e+06 -3.58383e+06 919589 710096 -335536
250 3 O 39.3791 9.62534 1.44385 -1.2 -8.56709 -3.3016e+06 -3.55844e+06 -2.96454e+06 292707 721121 -1.3366e+06
251 3 O 38.9501 6.81112 0.134572 -1.2 -8.72179 -3.01072e+06 -4.20927e+06 -3.53806e+06 291040 -289285 401719
252 3 O 39.0524 6.72718 2.66653 -1.2 -8.60819 -3.03425e+06 -4.82464e+06 -3.41512e+06 690803 1.32474e+06 -1.12171e+06
253 1 Mg 42.7079 -0.0277437 -0.0807631 1.2 -7.775 -558510 3.70022e+06 -123266 -1.706e+06 -1.86171e+06 -1.81549e+06
254 1 Mg 47.398 2.71251 1.30608 1.2 -8.54231 2.3701e+06 359023 2.62933e+06 353748 -266299 390183
255 2 Si 44.7828 0.967206 1.31702 2.4 -33.4415 7.5758e+06 1.12267e+07 8.70897e+06 -1.07629e+06 -157186 -426129
256 3 O 46.36 0.888674 1.34886 -1.2 -9.49528 -1.70178e+06 -4.67743e+06 -4.56708e+06 -197154 558117 -148059
257 3 O 43.7836 4.68996 1.37876 -1.2 -9.04517 -2.64189e+06 -5.05148e+06 -3.13254e+06 -809645 -436380 -624380
258 3 O 44.0624 1.72481 0.119759 -1.2 -9.09183 -3.54629e+06 -2.54641e+06 -3.32339e+06 110969 903297 195471
259 1 Mg 42.769 0.0851691 3.01575 1.2 -8.09919 -146328 3.82652e+06 126940 -1.54467e+06 1.10068e+06 1.99699e+06
260 3 O 44.0868 1.62321 2.65803 -1.2 -8.72415 -3.53118e+06 -2.88717e+06 -1.43016e+06 -89127 -1.58732e+06 187012
261 1 Mg 42.8464 7.38163 4.48339 1.2 -8.66734 2.11604e+06 -172989 2.32448e+06 862960 -348026 390418
262 2 Si 45.5178 9.17204 4.49316 2.4 -34.5137 7.28981e+06 9.54359e+06 9.15012e+06 242823 -344799 730992
263 3 O 43.9683 9.19606 4.48671 -1.2 -8.99441 -3.75583e+06 -3.56612e+06 -4.32182e+06 220198 -117694 -467669
264 3 O 46.4721 5.53355 4.4124 -1.2 -9.02941 -3.05053e+06 -5.14065e+06 -2.43274e+06 -740780 -86784 -201210
265 3 O 46.1837 8.52161 3.18054 -1.2 -8.79487 -4.2049e+06 -2.72592e+06 -2.21645e+06 26483 -863965 -1.08052e+06
266 3 O 46.1508 8.46905 5.77949 -1.2 -8.33659 -4.80633e+06 -3.46045e+06 -1.72589e+06 620608 926914 46742.5
267 1 Mg 45.0938 5.02263 2.92362 1.2 -8.03787 -583300 3.70602e+06 338614 187680 -1.48601e+06 1.92427e+06
268 1 Mg 45.1142 2.3172 4.46815 1.2 -8.48303 2.43391e+06 393915 3.13677e+06 -1.11816e+06 4271.84 647024
269 2 Si 47.1959 4.06486 4.42423 2.4 -33.6349 5.90435e+06 9.55648e+06 8.34607e+06 -1.51636e+06 -286427 502250
270 3 O 43.9562 4.25391 4.41239 -1.2 -9.4461 -2.05629e+06 -4.53772e+06 -2.35231e+06 -56656.3 706033 489758
271 3 O 46.0906 0.524698 4.37631 -1.2 -8.61158 -3.39842e+06 -5.2604e+06 -3.14598e+06 1.2202e+06 -159231 -613255
272 3 O 46.5616 3.39961 3.13677 -1.2 -8.79572 -3.52389e+06 -3.83868e+06 -2.25506e+06 75837.7 530160 -581867
273 1 Mg 45.1219 5.12247 -0.160648 1.2 -8.12108 -89529.8 3.79969e+06 -23168.8 923735 1.34376e+06 -1.25403e+06
274 3 O 46.5258 3.39076 5.69176 -1.2 -8.95147 -2.98343e+06 -3.63307e+06 -2.73657e+06 465469 -446804 454737
275 1 Mg 45.2548 7.88912 1.44498 1.2 -8.70648 2.37903e+06 314897 3.05048e+06 -1.37787e+06 115127 355835