ITEM: TIMESTEP
2800
ITEM: NUMBER OF ATOMS
38213
ITEM: BOX BOUNDS pp pp pp
0.0000000000000000e+00 7.1234999999999999e+01
0.0000000000000000e+00 7.1389499999999998e+01
0.0000000000000000e+00 7.7729600000000005e+01
ITEM: ATOMS id type element xu yu zu q c_pe c_s[1] c_s[2] c_s[3] c_s[4] c_s[5] c_s[6]
1 1 Mg -0.0595436 0.278672 -0.160444 1.2 -8.2627 -352701 3.99796e+06 279037 -516906 -999174 -1.27259e+06
2 1 Mg 4.6781 2.84233 1.45084 1.2 -8.68002 1.0746e+06 85934.9 2.70155e+06 1.14277e+06 -298070 524577
3 2 Si 2.15098 1.15329 1.26412 2.4 -34.617 4.24967e+06 1.08794e+07 9.7252e+06 789252 -564091 631057
4 3 O 3.63158 1.03299 1.3608 -1.2 -9.20716 -6.33836e+06 -3.69998e+06 -4.57103e+06 -2.13321e+06 474895 617799
5 3 O 1.03121 4.60368 1.39394 -1.2 -8.90564 -1.97363e+06 -5.74632e+06 -4.36909e+06 -778871 -65785.8 393916
6 3 O 1.35179 1.71839 0.0298347 -1.2 -8.41808 -2.9893e+06 -6.24603e+06 -4.06136e+06 759392 1.12937e+06 683993
7 1 Mg 0.0425534 0.0408131 2.80944 1.2 -8.44558 358230 3.69822e+06 332677 -215082 590012 1.62812e+06
8 3 O 1.36803 1.76383 2.57295 -1.2 -8.34106 -2.42041e+06 -4.34169e+06 -2.03992e+06 -1348.96 -1.4001e+06 -668795
9 1 Mg 0.0770091 7.34708 4.57997 1.2 -8.71619 2.3923e+06 -89839.7 2.15018e+06 662697 -765331 481360
10 2 Si 2.63653 9.23451 4.5194 2.4 -34.3669 6.50604e+06 8.86683e+06 8.27315e+06 -359682 1.17577e+06 -694581
11 3 O 1.08026 9.30203 4.46876 -1.2 -9.08976 -4.37985e+06 -3.81463e+06 -3.95335e+06 -74333.1 239934 -197340
12 3 O 3.77176 5.6633 4.50787 -1.2 -8.67562 -4.63823e+06 -6.10038e+06 -3.57322e+06 -1.52366e+06 127683 -336783
13 3 O 3.24324 8.54026 3.2901 -1.2 -8.69216 -4.34286e+06 -3.72594e+06 -5.28626e+06 -232090 -208454 -1.2801e+06
14 3 O 3.34876 8.56896 5.82431 -1.2 -8.32643 -3.40484e+06 -4.12923e+06 -3.60264e+06 -267094 1.27767e+06 526881
15 1 Mg 2.40269 5.1318 2.87463 1.2 -8.03366 -324270 3.68208e+06 -114502 1.09394e+06 -1.07768e+06 1.87128e+06
16 1 Mg 2.34219 2.418 4.3607 1.2 -8.61592 1.48667e+06 1.05739e+06 3.43136e+06 -557250 539967 459525
17 2 Si 4.39088 4.17987 4.5194 2.4 -33.9015 6.92291e+06 1.04537e+07 8.08403e+06 695225 134591 -186379
18 3 O 1.295 4.34411 4.41888 -1.2 -9.27525 -960213 -4.68701e+06 -4.01328e+06 547575 -842286 -177311
19 3 O 3.35175 0.54027 4.25385 -1.2 -8.95673 -3.29264e+06 -3.64993e+06 -3.30526e+06 567569 -254360 -343134
20 3 O 3.73117 3.55205 3.2036 -1.2 -8.94978 -3.79097e+06 -4.27269e+06 -2.32806e+06 -449133 959624 -860826
21 1 Mg 2.51662 5.00848 0.0418037 1.2 -8.2201 -362240 4.27956e+06 -936708 1.20453e+06 1.55613e+06 -1.92442e+06
22 3 O 3.66265 3.51274 5.76934 -1.2 -8.74403 -3.56485e+06 -4.57522e+06 -2.26074e+06 371525 -960896 779459
23 1 Mg 2.44474 7.88323 1.60869 1.2 -8.83881 2.43262e+06 4423.57 2.92226e+06 -799554 -650154 -357606
24 2 Si 0.358323 6.07016 1.40522 2.4 -33.7986 5.14218e+06 1.07611e+07 9.32888e+06 -157214 -573092 603205
25 3 O 3.50906 6.10276 1.37474 -1.2 -9.14809 -2.64042e+06 -4.37465e+06 -4.6488e+06 682485 -723473 555090
26 3 O 1.32255 9.70783 1.335 -1.2 -8.45276 -3.01452e+06 -3.75553e+06 -2.87173e+06 1.08666e+06 -38764.2 -449946
27 3 O 1.05595 6.76909 0.150395 -1.2 -8.50417 -4.00159e+06 -4.1611e+06 -1.93534e+06 372964 -802377 -273167
28 3 O 0.991106 6.73303 2.76222 -1.2 -8.74 -3.17992e+06 -3.63829e+06 -1.46114e+06 369491 494385 180755
29 1 Mg 4.70305 -0.237596 0.0172152 1.2 -7.91986 -354178 3.95246e+06 -723760 -455270 -992920 -1.38853e+06
30 1 Mg 9.35496 2.95082 1.44172 1.2 -8.69631 2.69865e+06 17873.5 2.29269e+06 632473 -471051 -245271
31 2 Si 6.78534 1.08407 1.42207 2.4 -33.3753 6.74544e+06 1.07722e+07 7.91166e+06 1.56685e+06 798332 -487160
32 3 O 8.33867 1.00378 1.49401 -1.2 -9.50878 -3.24304e+06 -3.67258e+06 -3.66198e+06 -780263 635860 -183898
33 3 O 5.66712 4.66145 1.4206 -1.2 -8.9003 -3.3761e+06 -6.46234e+06 -4.28929e+06 -568448 -194068 -625275
34 3 O 6.09817 1.80773 0.193418 -1.2 -8.73774 -4.74032e+06 -3.34165e+06 -2.53468e+06 -907426 993842 205273
35 1 Mg 4.77762 0.12189 2.93354 1.2 -8.04274 -522052 3.97208e+06 -529255 -911215 2.61068e+06 1.57598e+06
36 3 O 6.13687 1.69325 2.73319 -1.2 -8.95204 -3.90377e+06 -3.63136e+06 -3.07798e+06 -736279 -675757 -244904
37 1 Mg 4.78312 7.33951 4.37704 1.2 -8.82566 2.66193e+06 -189575 2.63051e+06 10738.6 505584 -274890
38 2 Si 7.45849 9.22466 4.46386 2.4 -33.755 8.07077e+06 1.03766e+07 8.20195e+06 1.31494e+06 870151 -455309
39 3 O 5.87064 9.27515 4.46608 -1.2 -9.25527 -1.07033e+06 -3.00865e+06 -3.49484e+06 -259457 -157193 563596
40 3 O 8.40985 5.6449 4.37783 -1.2 -8.46816 -3.41583e+06 -4.17216e+06 -3.59113e+06 -1.36096e+06 -233726 203018
41 3 O 8.15845 8.58948 3.2124 -1.2 -9.10973 -3.39328e+06 -3.5445e+06 -2.94134e+06 -590118 -766693 -778854
42 3 O 8.13748 8.5615 5.79139 -1.2 -8.57016 -3.19209e+06 -4.6923e+06 -1.26981e+06 -1.27679e+06 882543 330104
43 1 Mg 7.07137 5.07497 2.87918 1.2 -8.11334 -177815 3.33647e+06 276099 1.18719e+06 -1.4847e+06 1.96004e+06
44 1 Mg 7.02891 2.45927 4.44794 1.2 -8.58373 2.02205e+06 550563 2.40665e+06 -523165 112804 419031
45 2 Si 9.20175 4.1472 4.39221 2.4 -33.8397 7.1363e+06 1.01555e+07 7.8461e+06 -909633 381651 -219138
46 3 O 5.96334 4.2783 4.47217 -1.2 -9.13847 -2.79333e+06 -5.0479e+06 -3.12242e+06 129179 -583363 18872.4
47 3 O 8.20376 0.617176 4.50618 -1.2 -9.17095 -3.13572e+06 -4.79865e+06 -2.36901e+06 60390 -523601 806791
48 3 O 8.45874 3.48848 3.1802 -1.2 -9.05222 -3.14282e+06 -5.06295e+06 -3.54854e+06 328154 977755 -1.44113e+06
49 1 Mg 7.12614 5.23223 -0.0463443 1.2 -8.11663 -42541 3.38654e+06 -545291 1.04965e+06 1.08693e+06 -1.94596e+06
50 3 O 8.53071 3.56594 5.73825 -1.2 -8.73847 -4.38462e+06 -3.54366e+06 -2.40324e+06 205065 -1.29247e+06 864804
51 1 Mg 7.22581 7.95914 1.47574 1.2 -8.55568 2.26187e+06 -270714 2.81831e+06 -965360 436111 -171922
52 2 Si 5.11112 6.13324 1.40858 2.4 -33.9552 5.51486e+06 9.67115e+06 8.574e+06 288184 764617 -908274
53 3 O 8.3305 6.06706 1.49422 -1.2 -9.39708 -2.14757e+06 -3.22675e+06 -4.32238e+06 1.38361e+06 569710 -293454
54 3 O 6.09635 9.69416 1.45095 -1.2 -8.63623 -3.20383e+06 -4.38725e+06 -3.48239e+06 1.12796e+06 4697.8 -269710
55 3 O 5.78886 6.76178 0.118778 -1.2 -8.52008 -4.19123e+06 -5.08042e+06 -2.5593e+06 -39021.1 -307750 607493
56 3 O 5.7419 6.77389 2.68945 -1.2 -8.86731 -3.22254e+06 -4.13945e+06 -3.95099e+06 -68231.8 -185320 -745746
57 1 Mg 9.47052 0.102262 -0.0914411 1.2 -7.71183 -359162 3.66382e+06 -22800.7 38497.5 -2.31212e+06 -1.56482e+06
58 1 Mg 14.3058 2.74264 1.3768 1.2 -8.6885 1.98187e+06 288355 2.80987e+06 1.03418e+06 191121 722702
59 2 Si 11.5444 1.00877 1.44277 2.4 -33.0486 8.24159e+06 9.55954e+06 8.45665e+06 -751127 -132888 -231165
60 3 O 13.1124 0.930531 1.43571 -1.2 -9.55907 -2.01729e+06 -3.64675e+06 -3.74853e+06 174013 -238956 -456576
61 3 O 10.4898 4.68294 1.40712 -1.2 -8.93239 -3.04481e+06 -4.68407e+06 -3.34937e+06 -247745 -58589.8 -236224
62 3 O 10.787 1.74157 0.169227 -1.2 -8.46598 -2.27114e+06 -3.17911e+06 -3.16954e+06 -959327 1.38217e+06 275389
63 1 Mg 9.46045 0.0476012 2.88882 1.2 -7.6834 -991109 4.36491e+06 -195825 -316765 1.59094e+06 1.1311e+06
64 3 O 10.8576 1.74728 2.68997 -1.2 -9.06078 -2.97227e+06 -1.67712e+06 -3.31519e+06 -707269 -891994 231931
65 1 Mg 9.6259 7.38822 4.4425 1.2 -8.55416 3.13524e+06 256103 1.01661e+06 1.1146e+06 -204850 89835
66 2 Si 12.2135 9.20832 4.5263 2.4 -33.7525 6.34145e+06 1.0904e+07 7.45931e+06 922951 391142 107421
67 3 O 10.6811 9.28233 4.53965 -1.2 -9.46014 -4.22986e+06 -4.05319e+06 -2.83395e+06 -335215 630351 -525260
68 3 O 13.3575 5.60332 4.47026 -1.2 -8.46807 -3.2753e+06 -5.20475e+06 -2.36805e+06 -889703 -494489 -716278
69 3 O 12.8657 8.61866 3.19415 -1.2 -8.75011 -4.16238e+06 -3.18919e+06 -2.94353e+06 -958184 -1.21836e+06 -619194
70 3 O 12.8657 8.36626 5.74044 -1.2 -8.81016 -3.7237e+06 -4.20528e+06 -2.5205e+06 -390646 509702 379115
71 1 Mg 11.9763 5.23419 2.8401 1.2 -7.85009 -773274 3.07168e+06 330961 979185 -490702 2.43052e+06
72 1 Mg 11.9073 2.28638 4.36612 1.2 -8.30112 2.36247e+06 779149 3.31207e+06 -673251 -191851 -515455
73 2 Si 13.9997 4.0744 4.38347 2.4 -34.2406 5.74426e+06 8.7488e+06 7.9431e+06 -1.00863e+06 -257722 626880
74 3 O 10.7186 4.26971 4.49605 -1.2 -9.18957 -3.36196e+06 -3.2622e+06 -3.03217e+06 -218717 417427 -43813.4
75 3 O 12.7937 0.405225 4.4481 -1.2 -9.25653 -3.61858e+06 -4.63911e+06 -3.38885e+06 1.1215e+06 90570.9 706572
76 3 O 13.2972 3.5578 3.11873 -1.2 -8.87794 -3.70693e+06 -3.09091e+06 -4.88089e+06 -480443 322228 -2.0399e+06
77 1 Mg 12.0035 5.18263 0.0417415 1.2 -7.88147 -302731 4.16417e+06 -1.25391e+06 1.4683e+06 1.3211e+06 -1.93229e+06
78 3 O 13.3079 3.4215 5.65084 -1.2 -8.67749 -3.80113e+06 -4.00867e+06 -1.84297e+06 -510405 -341052 1.48265e+06
79 1 Mg 11.9457 8.01049 1.38323 1.2 -8.40581 1.63458e+06 -210541 2.04332e+06 -616389 440559 863494
80 2 Si 9.88665 6.18699 1.51545 2.4 -33.4057 6.16989e+06 8.96569e+06 8.3917e+06 547476 -487057 860266
81 3 O 13.0386 6.08739 1.45824 -1.2 -9.70435 -3.3764e+06 -4.45646e+06 -5.43509e+06 -204127 670318 319258
82 3 O 10.9031 9.83133 1.49594 -1.2 -9.16986 -3.81081e+06 -5.10457e+06 -3.68146e+06 691057 -191469 27976.5
83 3 O 10.5586 6.88679 0.244095 -1.2 -9.08978 -3.45075e+06 -3.42749e+06 -2.70897e+06 -551971 -903353 494137
84 3 O 10.6021 6.78539 2.78079 -1.2 -9.16504 -3.98403e+06 -3.58179e+06 -3.63577e+06 -490670 434456 -830761
85 1 Mg 14.272 -0.0367726 -0.0145854 1.2 -8.16544 -1.61218e+06 3.33809e+06 66659.7 -1.80326e+06 -1.32669e+06 -1.70307e+06
86 1 Mg 18.8391 2.77773 1.50795 1.2 -8.60089 1.42348e+06 1.74647e+06 2.432e+06 910594 245213 428714
87 2 Si 16.3149 0.886761 1.49498 2.4 -33.6091 6.38057e+06 1.17832e+07 8.63884e+06 205097 1.15632e+06 -1.01913e+06
88 3 O 17.8864 0.878505 1.49767 -1.2 -9.34665 -1.47754e+06 -4.53999e+06 -4.77508e+06 -260731 -438638 733635
89 3 O 15.2546 4.62123 1.4906 -1.2 -8.88046 -3.38865e+06 -3.99487e+06 -3.7695e+06 -1.94417e+06 51257.9 981178
90 3 O 15.5998 1.55077 0.159326 -1.2 -8.71799 -3.46337e+06 -3.30951e+06 -3.3257e+06 -1.02684e+06 1.51244e+06 -127911
91 1 Mg 14.1426 -0.0705436 2.97823 1.2 -7.84113 -966418 4.11875e+06 76210.1 -1.32696e+06 1.32514e+06 1.38118e+06
92 3 O 15.558 1.61891 2.66158 -1.2 -8.90317 -3.29674e+06 -4.41071e+06 -4.56049e+06 -307285 -1.94191e+06 -804906
93 1 Mg 14.3122 7.40753 4.34089 1.2 -8.59341 2.0317e+06 278735 2.16367e+06 920820 571432 -1.22046e+06
94 2 Si 16.8264 9.19908 4.49426 2.4 -33.8858 5.03149e+06 1.07909e+07 8.06592e+06 886063 401232 441662
95 3 O 15.3168 9.26558 4.42361 -1.2 -9.3723 -5.26915e+06 -4.42503e+06 -3.42143e+06 -211285 -418109 242398
96 3 O 17.9807 5.59227 4.47946 -1.2 -8.74825 -2.97878e+06 -6.07694e+06 -3.96372e+06 -2.17e+06 221325 -1.0147e+06
97 3 O 17.5965 8.52139 3.21032 -1.2 -8.69966 -2.62603e+06 -3.69203e+06 -3.04269e+06 -909336 -1.40567e+06 -1.20199e+06
98 3 O 17.5228 8.55067 5.73879 -1.2 -8.50472 -4.38075e+06 -5.8748e+06 -3.57652e+06 -1.35068e+06 1.09979e+06 843424
99 1 Mg 16.6109 5.22747 2.94379 1.2 -8.18031 -1.09982e+06 3.46172e+06 231291 1.64157e+06 -1.43991e+06 1.63302e+06
100 1 Mg 16.6115 2.29258 4.25508 1.2 -8.81591 1.14185e+06 829386 1.87992e+06 -1.20812e+06 149405 195870
101 2 Si 18.6498 4.13394 4.49349 2.4 -34.2182 6.56436e+06 1.05364e+07 9.67433e+06 86169 213608 -480373
102 3 O 15.511 4.2169 4.4619 -1.2 -9.01348 -6.38969e+06 -3.80263e+06 -4.23022e+06 863458 789726 -189007
103 3 O 17.6598 0.461509 4.28415 -1.2 -8.52977 -3.30921e+06 -4.94912e+06 -3.91664e+06 1.23634e+06 900842 -1.30012e+06
104 3 O 17.8093 3.48574 3.20835 -1.2 -8.52346 -4.0092e+06 -4.28076e+06 -2.37105e+06 -191864 1.71418e+06 -123563
105 1 Mg 16.5724 5.05225 0.0126499 1.2 -8.16594 -1.29604e+06 4.02172e+06 52101.4 1.76886e+06 2.3377e+06 -1.48574e+06
106 3 O 18.0287 3.42141 5.79335 -1.2 -8.46294 -3.93798e+06 -3.38144e+06 -2.22244e+06 105571 -1.04446e+06 59575.4
107 1 Mg 16.5627 7.96183 1.50856 1.2 -8.63552 1.52279e+06 -201119 3.49952e+06 -1.25463e+06 290907 204396
108 2 Si 14.5941 6.14639 1.52818 2.4 -33.1679 5.28487e+06 1.01535e+07 7.7331e+06 -309227 -875310 -1.15618e+06
109 3 O 17.7553 6.16206 1.49209 -1.2 -8.91917 -3.13214e+06 -3.89269e+06 -4.96424e+06 1.12781e+06 -658526 132000
110 3 O 15.5814 9.74719 1.41682 -1.2 -8.96058 -1.91519e+06 -4.38514e+06 -4.60714e+06 703169 -277929 -494420
111 3 O 15.3032 6.75077 0.18962 -1.2 -8.64729 -4.24189e+06 -3.65533e+06 -2.85319e+06 24977.1 -1.85234e+06 372407
112 3 O 15.3111 6.8076 2.69469 -1.2 -9.3091 -4.77904e+06 -4.82665e+06 -5.91935e+06 -356837 735551 -1.32393e+06
113 1 Mg 19.0023 0.00714194 -0.037725 1.2 -7.98291 -804666 4.33479e+06 176444 -1.12888e+06 -812892 -1.69323e+06
114 1 Mg 23.6237 2.71375 1.45807 1.2 -8.66068 987297 485156 2.67798e+06 951828 -443624 607003
115 2 Si 21.0706 1.06531 1.4618 2.4 -33.6406 4.95916e+06 1.26881e+07 8.7953e+06 606425 -628778 934690
116 3 O 22.607 0.966931 1.52294 -1.2 -9.4729 -2.87506e+06 -5.3295e+06 -4.02631e+06 -1.83486e+06 631473 -752115
117 3 O 19.8841 4.70075 1.51014 -1.2 -8.39767 -2.64874e+06 -5.40828e+06 -4.27565e+06 -986156 -47056.7 229988
118 3 O 20.3061 1.67984 0.234032 -1.2 -9.23662 -2.73225e+06 -3.63183e+06 -2.98969e+06 -233720 1.047e+06 235008
119 1 Mg 19.0536 -0.0287696 2.93947 1.2 -8.53655 -1.12475e+06 4.30802e+06 -1.09335e+06 -440611 1.5332e+06 2.25175e+06
120 3 O 20.34 1.66131 2.77966 -1.2 -8.56467 -2.40608e+06 -4.7582e+06 -1.85835e+06 -618733 -1.1407e+06 -1.13124e+06
121 1 Mg 18.9953 7.38195 4.41001 1.2 -8.88343 1.59825e+06 548505 2.45917e+06 1.59489e+06 534112 -25343.6
122 2 Si 21.6742 9.24211 4.55813 2.4 -34.37 5.47058e+06 1.14875e+07 9.26708e+06 1.07057e+06 -114545 700277
123 3 O 20.1523 9.21927 4.52268 -1.2 -8.911 -2.75804e+06 -3.95477e+06 -4.60155e+06 -164176 64094.5 -337188
124 3 O 22.7778 5.60606 4.51063 -1.2 -8.57889 -2.73774e+06 -6.06729e+06 -4.60814e+06 -1.43589e+06 512602 -50346.8
125 3 O 22.3639 8.48192 3.27368 -1.2 -8.62991 -4.33139e+06 -3.68881e+06 -2.21174e+06 -361199 -1.22183e+06 -492695
126 3 O 22.3269 8.57959 5.84391 -1.2 -8.48127 -4.15914e+06 -2.76095e+06 -3.00435e+06 378435 562910 -334827
127 1 Mg 21.3121 5.22705 3.0424 1.2 -8.27928 156492 3.58525e+06 -398516 1.48578e+06 -635263 1.44612e+06
128 1 Mg 21.2719 2.33497 4.54214 1.2 -8.99302 1.88649e+06 753023 2.04785e+06 -408520 970431 772640
129 2 Si 23.4609 4.08273 4.429 2.4 -34.945 4.58089e+06 1.01077e+07 8.15268e+06 361099 -514480 -129962
130 3 O 20.1827 4.09032 4.36478 -1.2 -9.09386 -2.47958e+06 -3.94384e+06 -4.56439e+06 668707 155975 351894
131 3 O 22.361 0.493585 4.55776 -1.2 -8.68975 -2.60052e+06 -4.02193e+06 -3.81166e+06 1.32853e+06 -379183 -1.00121e+06
132 3 O 22.8037 3.52711 3.17339 -1.2 -8.43807 -4.15826e+06 -4.33304e+06 -4.57243e+06 -894435 -88506.5 -1.31096e+06
133 1 Mg 21.3604 4.96766 0.0488782 1.2 -8.16937 -1.19473e+06 3.54318e+06 285358 846923 1.29376e+06 -1.87932e+06
134 3 O 22.8109 3.42284 5.69967 -1.2 -8.19594 -3.59136e+06 -4.84458e+06 -4.31736e+06 -577217 -447345 1.0419e+06
135 1 Mg 21.5345 7.89224 1.49902 1.2 -8.66436 1.3935e+06 908232 3.5056e+06 -673731 -43809.2 648866
136 2 Si 19.3126 6.22894 1.50103 2.4 -34.4448 6.12049e+06 9.693e+06 8.5797e+06 -67001.2 -173105 -667557
137 3 O 22.4829 6.01001 1.51265 -1.2 -9.14388 -2.45746e+06 -3.60148e+06 -5.14116e+06 305207 -1.25026e+06 298377
138 3 O 20.3651 9.74079 1.60369 -1.2 -8.71876 -2.00927e+06 -4.33256e+06 -3.47735e+06 403487 -613643 -149004
139 3 O 20.0888 6.80435 0.260878 -1.2 -8.61381 -3.89494e+06 -3.80133e+06 -3.25035e+06 -78977.3 -363747 1.40016e+06
140 3 O 19.9646 6.68934 2.84603 -1.2 -8.61081 -4.13452e+06 -6.79391e+06 -4.50866e+06 -460840 853808 -2.77902e+06
141 1 Mg 23.6938 0.0875703 -0.026329 1.2 -8.22208 -1.51453e+06 3.99461e+06 -420976 -728683 -1.51944e+06 -1.85436e+06
142 1 Mg 28.3755 2.92243 1.46071 1.2 -8.77251 2.11439e+06 723536 3.18097e+06 793383 -345332 -32728.3
143 2 Si 25.7958 0.984122 1.47214 2.4 -34.2559 3.79919e+06 1.20042e+07 8.38839e+06 718583 516521 609220
144 3 O 27.3398 0.924629 1.47886 -1.2 -9.27694 -3.43431e+06 -5.13689e+06 -4.14962e+06 -751634 498979 -839220
145 3 O 24.7667 4.633 1.39379 -1.2 -8.58122 -2.35755e+06 -5.25613e+06 -4.32736e+06 -812760 806085 -344317
146 3 O 25.0655 1.61904 0.171775 -1.2 -8.77885 -2.10489e+06 -5.23234e+06 -2.87185e+06 -760181 659990 258788
147 1 Mg 23.7157 -0.0323578 3.00813 1.2 -8.26172 -162952 4.05741e+06 -301895 -496487 676564 2.48466e+06
148 3 O 25.1373 1.63508 2.73915 -1.2 -8.5838 -2.95032e+06 -5.26649e+06 -3.12785e+06 -225665 -581057 -1.15012e+06
149 1 Mg 23.7535 7.38477 4.37737 1.2 -9.00456 1.07585e+06 611285 2.40421e+06 883267 13685.4 579753
150 2 Si 26.3942 9.15667 4.51968 2.4 -34.6484 5.12387e+06 1.23005e+07 8.99431e+06 374478 795693 525113
151 3 O 24.8416 9.26993 4.4173 -1.2 -8.74695 -2.68022e+06 -5.76322e+06 -4.65096e+06 -542056 445104 -118165
152 3 O 27.4838 5.71053 4.40991 -1.2 -8.77682 -2.89041e+06 -5.54059e+06 -4.01402e+06 -1.12755e+06 337462 -1.41801e+06
153 3 O 27.0434 8.55579 3.21361 -1.2 -8.60745 -3.16658e+06 -4.09671e+06 -3.47442e+06 199749 267971 -657432
154 3 O 27.104 8.48051 5.77818 -1.2 -8.43811 -2.94533e+06 -5.08869e+06 -2.49519e+06 -662531 926781 276922
155 1 Mg 26.123 5.29083 2.93565 1.2 -8.42154 -853144 4.3759e+06 604686 1.13521e+06 -1.68884e+06 1.69569e+06
156 1 Mg 26.0443 2.31011 4.44889 1.2 -9.04849 1.94068e+06 1.09251e+06 2.70937e+06 -241681 355107 219069
157 2 Si 28.2074 4.28304 4.50776 2.4 -34.2606 5.69148e+06 1.18222e+07 1.05219e+07 1.25391e+06 86178.4 -374123
158 3 O 24.971 4.20073 4.41374 -1.2 -8.6804 -4.60132e+06 -3.84738e+06 -4.725e+06 584621 186576 -221119
159 3 O 27.2197 0.577879 4.44338 -1.2 -8.79461 -3.06999e+06 -3.68265e+06 -3.9773e+06 1.1967e+06 -151506 -635303
160 3 O 27.5144 3.52526 3.23076 -1.2 -8.29134 -3.04068e+06 -3.40926e+06 -1.85767e+06 360243 1.15236e+06 -56605.3
161 1 Mg 26.1084 5.20853 -0.109137 1.2 -8.48934 -1.53442e+06 3.51847e+06 -340836 453608 987771 -1.74767e+06
162 3 O 27.5208 3.52322 5.81856 -1.2 -8.2131 -2.75485e+06 -3.4585e+06 -2.61474e+06 315779 -1.30371e+06 -1.10849e+06
163 1 Mg 26.122 7.99908 1.43266 1.2 -8.88949 2.23631e+06 411838 3.00975e+06 -417481 -249776 808520
164 2 Si 24.0505 6.04126 1.4227 2.4 -34.1344 5.98655e+06 1.07509e+07 9.70139e+06 540023 -254923 -375022
165 3 O 27.2401 6.07442 1.34631 -1.2 -8.98349 -4.90491e+06 -4.37705e+06 -4.91423e+06 180613 -180459 -52219.4
166 3 O 25.0545 9.73541 1.5032 -1.2 -8.63025 -1.44207e+06 -5.01433e+06 -3.95245e+06 1.00439e+06 166735 -723617
167 3 O 24.7604 6.8371 0.177232 -1.2 -8.5773 -3.10911e+06 -3.8443e+06 -3.89548e+06 1.15546e+06 -1.97398e+06 -326730
168 3 O 24.7232 6.7302 2.71289 -1.2 -8.48208 -3.24903e+06 -5.09157e+06 -4.21635e+06 267134 1.05628e+06 -844917
169 1 Mg 28.4815 0.208736 0.00632294 1.2 -8.24908 -978172 4.1914e+06 -217610 -848799 -1.32615e+06 -1.84767e+06
170 1 Mg 33.2222 2.90159 1.50775 1.2 -8.9095 1.86029e+06 17550.9 2.40384e+06 64534.4 216918 157855
171 2 Si 30.5338 1.08211 1.44628 2.4 -34.0814 6.15185e+06 1.24722e+07 8.74441e+06 -237973 74218.2 502518
172 3 O 32.1242 0.998403 1.43967 -1.2 -8.86094 -830574 -4.87002e+06 -4.2353e+06 -561670 -673145 307281
173 3 O 29.451 4.69668 1.31263 -1.2 -8.20508 -3.15408e+06 -5.4106e+06 -4.48182e+06 -1.57781e+06 45417 -598363
174 3 O 29.8577 1.71872 0.150298 -1.2 -8.683 -2.79413e+06 -5.24095e+06 -2.13652e+06 -170498 301920 394717
175 1 Mg 28.4963 0.145357 2.95876 1.2 -8.11391 -986144 4.37115e+06 -438043 -947820 1.26523e+06 2.56929e+06
176 3 O 29.8315 1.73201 2.71921 -1.2 -8.85506 -3.7396e+06 -3.56628e+06 -2.58239e+06 -85845.8 -555488 -487133
177 1 Mg 28.6191 7.47968 4.32855 1.2 -8.69752 1.45992e+06 390739 2.94103e+06 541841 -147522 171606
178 2 Si 31.1397 9.16089 4.47181 2.4 -34.2604 5.51487e+06 1.12727e+07 9.42889e+06 -236753 -242181 1.01413e+06
179 3 O 29.5883 9.35685 4.52661 -1.2 -9.31819 -2.61027e+06 -4.49029e+06 -5.23525e+06 -904932 234786 -135187
180 3 O 32.3319 5.6534 4.34252 -1.2 -8.40342 -3.90034e+06 -7.528e+06 -5.07688e+06 -2.51328e+06 -470297 -738517
181 3 O 31.785 8.55707 3.15112 -1.2 -8.41544 -3.16784e+06 -4.93346e+06 -3.94595e+06 -105159 -1.94156e+06 -887439
182 3 O 31.9038 8.46669 5.65805 -1.2 -8.52084 -2.87843e+06 -4.82057e+06 -3.94075e+06 204501 991639 446875
183 1 Mg 30.8094 5.05245 2.84191 1.2 -8.6561 -701945 3.8287e+06 -25448.6 652004 -225226 1.75736e+06
184 1 Mg 30.7884 2.33649 4.41677 1.2 -8.89609 2.06677e+06 993246 2.76644e+06 -735695 -272945 190974
185 2 Si 32.9759 4.19281 4.46142 2.4 -34.1212 6.16371e+06 1.12402e+07 9.13161e+06 473779 1.40605e+06 197784
186 3 O 29.7498 4.33194 4.41353 -1.2 -9.09943 -3.83978e+06 -4.89644e+06 -5.10278e+06 -234534 -703066 -632893
187 3 O 31.8213 0.529688 4.39468 -1.2 -8.56602 -2.19188e+06 -5.11264e+06 -3.6578e+06 1.55113e+06 53074.9 -1.32927e+06
188 3 O 32.1495 3.53169 3.13223 -1.2 -8.29904 -1.82858e+06 -5.14754e+06 -2.41731e+06 1.02692e+06 1.8224e+06 -726375
189 1 Mg 30.7429 5.27674 -0.101436 1.2 -8.5951 -1.33684e+06 4.1679e+06 338868 970832 1.85082e+06 -1.3338e+06
190 3 O 32.1881 3.52198 5.69615 -1.2 -8.60763 -3.36131e+06 -3.64915e+06 -3.21898e+06 759987 -1.33913e+06 290597
191 1 Mg 31.0051 7.95119 1.39087 1.2 -9.0677 1.54474e+06 535055 2.80603e+06 -68197.6 363774 251005
192 2 Si 28.7415 6.21815 1.3871 2.4 -34.8563 4.73435e+06 1.15607e+07 8.77782e+06 47722.3 31249.4 -268996
193 3 O 31.9354 6.02647 1.46347 -1.2 -8.9225 -1.86801e+06 -4.315e+06 -4.48328e+06 161578 -392141 -137202
194 3 O 29.844 9.62842 1.53882 -1.2 -8.48539 -3.16816e+06 -6.39832e+06 -3.67298e+06 879791 -946898 -903162
195 3 O 29.5475 6.88221 0.159571 -1.2 -8.05274 -3.41573e+06 -5.97659e+06 -4.00605e+06 501878 -1.20382e+06 322154
196 3 O 29.4331 6.74423 2.66622 -1.2 -8.37536 -3.74625e+06 -5.03651e+06 -5.42095e+06 -271103 1.17039e+06 -1.13739e+06
197 1 Mg 33.301 0.204131 -0.16521 1.2 -8.32553 -348567 3.90745e+06 178461 -1.19938e+06 -1.39361e+06 -1.20879e+06
198 1 Mg 37.8855 2.84506 1.45793 1.2 -8.84808 1.95094e+06 386685 2.84881e+06 443946 205030 144700
199 2 Si 35.3129 1.02976 1.46912 2.4 -34.4648 5.70509e+06 9.95785e+06 8.24122e+06 943418 -795816 1.10871e+06
200 3 O 36.8511 0.984492 1.52144 -1.2 -9.02459 -3.70082e+06 -3.55948e+06 -4.67866e+06 -908680 -723315 -293872
201 3 O 34.2251 4.61508 1.4501 -1.2 -8.98842 -3.04642e+06 -4.69207e+06 -2.24715e+06 -1.51776e+06 405049 -473725
202 3 O 34.6918 1.62855 0.173151 -1.2 -8.63383 -5.54585e+06 -5.41562e+06 -3.93331e+06 -71097 1.1251e+06 1.2105e+06
203 1 Mg 33.2376 0.0756826 2.90403 1.2 -8.57449 -542048 3.82272e+06 437636 -858101 1.10001e+06 1.97064e+06
204 3 O 34.5644 1.69453 2.72762 -1.2 -8.59023 -3.76627e+06 -3.70204e+06 -2.44672e+06 -271795 -822116 -818117
205 1 Mg 33.2706 7.34325 4.32742 1.2 -9.05731 750495 -314210 2.1717e+06 314660 1.15045e+06 -373576
206 2 Si 35.9399 9.14414 4.39467 2.4 -33.9316 6.06302e+06 1.20671e+07 9.47477e+06 -301432 364055 -450296
207 3 O 34.4102 9.21681 4.44734 -1.2 -9.02461 -2.19015e+06 -4.39299e+06 -3.68276e+06 -1.04735e+06 -151607 200424
208 3 O 37.0236 5.51387 4.39885 -1.2 -8.50328 -4.19483e+06 -5.82562e+06 -3.44385e+06 -362814 305430 -1.14406e+06
209 3 O 36.6684 8.45751 3.09402 -1.2 -9.03663 -3.12279e+06 -4.08268e+06 -1.98334e+06 -448561 -1.31454e+06 -111755
210 3 O 36.6689 8.53131 5.72163 -1.2 -8.63451 -2.8163e+06 -4.01003e+06 -1.33139e+06 177150 799122 227311
211 1 Mg 35.734 5.16754 2.94571 1.2 -8.01589 29034.5 3.8443e+06 58962.4 -25592.9 -1.25042e+06 1.95308e+06
212 1 Mg 35.6385 2.30145 4.49056 1.2 -8.70834 1.96279e+06 269203 3.68946e+06 -896958 -241083 319348
213 2 Si 37.7 4.04575 4.50191 2.4 -34.5215 4.22686e+06 9.69776e+06 8.25237e+06 -327268 -205179 753089
214 3 O 34.4894 4.21113 4.54864 -1.2 -9.23973 -3.93847e+06 -4.67215e+06 -3.41878e+06 642729 -423908 -391053
215 3 O 36.5787 0.478621 4.39256 -1.2 -8.87115 -2.30525e+06 -4.30347e+06 -3.42172e+06 859035 100556 87559.9
216 3 O 37.0385 3.35579 3.21514 -1.2 -8.32779 -3.71436e+06 -4.8709e+06 -3.74274e+06 -205561 1.11569e+06 -1.53882e+06
217 1 Mg 35.6062 5.14865 -0.0142171 1.2 -8.05125 -849815 4.03362e+06 -631193 294139 505691 -1.80519e+06
218 3 O 36.9555 3.42235 5.70667 -1.2 -8.67674 -3.98523e+06 -4.70416e+06 -5.59687e+06 348320 152525 1.28326e+06
219 1 Mg 35.6507 7.9231 1.4648 1.2 -8.67227 1.67265e+06 375192 2.04719e+06 -1.12259e+06 -269017 52954.4
220 2 Si 33.5366 6.10802 1.46908 2.4 -33.9236 6.82634e+06 1.15421e+07 8.17521e+06 330147 -752952 -499724
221 3 O 36.7352 5.95386 1.39838 -1.2 -9.40308 -4.441e+06 -4.70078e+06 -4.62019e+06 1.59752e+06 60574 -28002.1
222 3 O 34.5232 9.68078 1.45537 -1.2 -8.29944 -3.10136e+06 -6.1366e+06 -4.33338e+06 1.04881e+06 442795 -1.38799e+06
223 3 O 34.2319 6.83584 0.208272 -1.2 -8.69265 -2.18185e+06 -3.41434e+06 -2.29323e+06 215088 -526226 -29718.3
224 3 O 34.1691 6.79402 2.71887 -1.2 -8.68931 -3.46127e+06 -4.46649e+06 -5.67348e+06 -195727 1.58269e+06 -689038
225 1 Mg 38.0789 -0.0834696 -0.0928032 1.2 -8.06538 38001.7 3.66169e+06 -447600 -782008 -1.03193e+06 -1.10576e+06
226 1 Mg 42.7456 2.7781 1.43617 1.2 -8.78166 2.10644e+06 -292631 2.11371e+06 853948 -481196 554767
227 2 Si 40.0482 0.943263 1.46292 2.4 -33.7865 6.68966e+06 1.03791e+07 8.61712e+06 -689415 -352201 557139
228 3 O 41.6038 0.791125 1.46108 -1.2 -9.31654 -3.06078e+06 -3.58406e+06 -3.66705e+06 -672426 -361487 254859
229 3 O 38.8638 4.62628 1.36421 -1.2 -8.47669 -4.04139e+06 -3.60386e+06 -4.50073e+06 -958965 469678 -280546
230 3 O 39.4554 1.6011 0.121977 -1.2 -8.69084 -3.68774e+06 -3.6976e+06 -2.58968e+06 240063 956336 185750
231 1 Mg 37.9838 -0.0267929 2.89657 1.2 -8.08961 -296592 4.33851e+06 -564863 -1.1449e+06 1.32683e+06 1.53996e+06
232 3 O 39.396 1.70415 2.71442 -1.2 -8.74448 -4.07923e+06 -2.93774e+06 -1.8756e+06 174121 -719948 -597736
233 1 Mg 38.1554 7.34803 4.37283 1.2 -8.67405 1.6891e+06 1.1848e+06 1.65086e+06 283996 -537799 113907
234 2 Si 40.7312 9.18515 4.44302 2.4 -33.5816 6.54491e+06 1.19175e+07 8.78779e+06 -863269 -26315.9 -152555
235 3 O 39.1492 9.23562 4.39885 -1.2 -9.25197 -1.58941e+06 -4.8704e+06 -3.971e+06 104874 1.31797e+06 -315521
236 3 O 41.6967 5.5948 4.45248 -1.2 -8.73536 -2.88002e+06 -5.35236e+06 -3.04518e+06 -448797 295253 -562067
237 3 O 41.3803 8.41476 3.16064 -1.2 -8.9269 -3.42829e+06 -4.29663e+06 -1.98402e+06 146270 -861793 165856
238 3 O 41.459 8.58092 5.73488 -1.2 -9.08001 -2.61292e+06 -3.00251e+06 -2.27995e+06 502768 957261 135085
239 1 Mg 40.3203 5.07999 2.84695 1.2 -8.33938 -118119 3.33284e+06 -538083 269597 -701048 2.03572e+06
240 1 Mg 40.3369 2.24335 4.43547 1.2 -8.6604 2.24821e+06 780959 2.54473e+06 -1.10289e+06 -485355 52853.2
241 2 Si 42.4056 4.15423 4.47392 2.4 -33.7843 7.64847e+06 8.70404e+06 7.9747e+06 -1.46077e+06 -424398 620032
242 3 O 39.2015 4.19359 4.45066 -1.2 -8.84702 -5.79034e+06 -4.2617e+06 -3.52106e+06 848559 -454470 -284077
243 3 O 41.3077 0.356485 4.40841 -1.2 -9.18796 -3.1806e+06 -4.503e+06 -3.27483e+06 690885 149479 -530203
244 3 O 41.7183 3.46728 3.1852 -1.2 -8.42939 -4.31615e+06 -3.412e+06 -2.80954e+06 517906 1.68002e+06 -590677
245 1 Mg 40.3543 4.92222 0.116851 1.2 -7.93994 50434.9 3.50185e+06 -759177 672254 1.33891e+06 -1.9596e+06
246 3 O 41.6519 3.44226 5.69611 -1.2 -8.97094 -3.95959e+06 -3.14974e+06 -4.12973e+06 973402 -1.0903e+06 715551
247 1 Mg 40.4681 7.84004 1.47208 1.2 -8.6808 1.54342e+06 710679 2.52432e+06 -1.56233e+06 -325603 -346811
248 2 Si 38.2485 6.22951 1.38972 2.4 -33.8209 4.1262e+06 1.1656e+07 9.48392e+06 -207930 573334 -440240
249 3 O 41.4847 5.8417 1.49891 -1.2 -9.34539 -3.68435e+06 -4.99648e+06 -5.2068e+06 691322 1.4574e+06 319483
250 3 O 39.3505 9.61528 1.44566 -1.2 -8.59093 -1.7592e+06 -3.10472e+06 -4.38516e+06 1.47664e+06 457641 322149
251 3 O 38.9277 6.8605 0.147168 -1.2 -8.70293 -2.83343e+06 -5.20791e+06 -3.04368e+06 -701214 -533845 806430
252 3 O 39.0287 6.70704 2.70849 -1.2 -8.83333 -3.05954e+06 -5.50612e+06 -3.1709e+06 100307 1.43625e+06 -753178
253 1 Mg 42.7507 -0.200925 0.0107841 1.2 -7.68428 803383 3.71186e+06 41973.4 -1.27572e+06 -979906 -1.35075e+06
254 1 Mg 47.4699 2.79615 1.48683 1.2 -8.84654 1.69041e+06 -175961 2.62818e+06 692352 -117045 210751
255 2 Si 44.8012 0.989503 1.45462 2.4 -33.6766 8.47836e+06 1.0736e+07 7.0873e+06 -1.07191e+06 -98301.2 -400964
256 3 O 46.3831 0.91885 1.45657 -1.2 -9.15405 -1.53735e+06 -4.74275e+06 -3.42484e+06 -519492 -253870 485307
257 3 O 43.7441 4.53345 1.58577 -1.2 -8.54588 -4.95795e+06 -6.05732e+06 -4.04416e+06 -821317 -154214 422276
258 3 O 44.0487 1.63011 0.205646 -1.2 -8.94762 -4.32203e+06 -3.43221e+06 -2.80293e+06 145957 1.10131e+06 682694
259 1 Mg 42.6601 -0.12375 2.95441 1.2 -7.80763 566569 3.387e+06 -1.00906e+06 -1.45663e+06 1.27585e+06 1.68539e+06
260 3 O 44.0737 1.60318 2.73306 -1.2 -8.9466 -3.58329e+06 -3.13712e+06 -2.28347e+06 445464 -1.03371e+06 -312680
261 1 Mg 42.836 7.39891 4.38169 1.2 -8.38688 2.4527e+06 -172379 2.50155e+06 627026 -76452.3 38102.6
262 2 Si 45.4308 9.2879 4.44799 2.4 -33.4484 5.1489e+06 9.36749e+06 7.27008e+06 -406979 -217233 -916701
263 3 O 43.8758 9.29827 4.36787 -1.2 -9.64291 -4.09211e+06 -4.375e+06 -4.51585e+06 1.07697e+06 411436 962775
264 3 O 46.3708 5.63576 4.53323 -1.2 -8.77438 -2.49244e+06 -1.57739e+06 -4.06893e+06 -1.09685e+06 -329849 57473.9
265 3 O 46.0975 8.62718 3.18637 -1.2 -8.82592 -4.05009e+06 -5.40221e+06 -4.02546e+06 242848 -318804 -1.02008e+06
266 3 O 46.0725 8.64787 5.72591 -1.2 -9.09866 -3.46343e+06 -5.08412e+06 -4.04307e+06 -230855 894611 1.24349e+06
267 1 Mg 45.1383 5.05074 2.9896 1.2 -8.19214 -427483 3.41498e+06 -467890 319137 -1.45695e+06 1.83359e+06
268 1 Mg 44.9717 2.22249 4.47725 1.2 -8.45704 2.2869e+06 403686 1.71422e+06 -1.71813e+06 797393 8977.41
269 2 Si 47.0904 4.06911 4.56087 2.4 -33.6192 6.80928e+06 1.04906e+07 9.39341e+06 -1.51532e+06 -249773 852485
270 3 O 43.9422 4.20593 4.45133 -1.2 -9.49417 -4.48791e+06 -3.28477e+06 -4.62468e+06 338766 -617579 -333060
271 3 O 46.1607 0.399336 4.50314 -1.2 -8.7613 -2.96842e+06 -5.91008e+06 -3.66528e+06 2.11027e+06 275258 411837
272 3 O 46.4422 3.35488 3.26273 -1.2 -8.73032 -3.94647e+06 -2.54405e+06 -1.95603e+06 944374 830142 188180
273 1 Mg 45.13 5.12313 0.0161786 1.2 -8.35074 -160421 3.46441e+06 -137150 316367 835252 -2.0077e+06
274 3 O 46.4183 3.47204 5.83941 -1.2 -8.85555 -2.7765e+06 -4.26281e+06 -3.24862e+06 472703 -549056 465718
275 1 Mg 45.1027 7.9413 1.56033 1.2 -8.59052 2.47527e+06 309306 2.0251e+06 -552902 -98089.2 -185540