ITEM: TIMESTEP
2000
ITEM: NUMBER OF ATOMS
38213
ITEM: BOX BOUNDS pp pp pp
0.0000000000000000e+00 7.1234999999999999e+01
0.0000000000000000e+00 7.1389499999999998e+01
0.0000000000000000e+00 7.7729600000000005e+01
ITEM: ATOMS id type element xu yu zu q c_pe c_s[1] c_s[2] c_s[3] c_s[4] c_s[5] c_s[6]
1 1 Mg -0.0300674 -0.162492 -0.0804781 1.2 -8.20712 -769069 3.1713e+06 -1.08153e+06 -697295 -2.04828e+06 -865410
2 1 Mg 4.73535 2.91118 1.48341 1.2 -8.89381 2.72897e+06 -833204 2.0622e+06 328915 -61537.9 68607.8
3 2 Si 2.04031 0.844832 1.45411 2.4 -34.1478 6.85458e+06 1.06941e+07 7.6869e+06 575785 -619378 -193049
4 3 O 3.5642 0.854005 1.41364 -1.2 -8.95321 -3.81903e+06 -4.65636e+06 -4.5771e+06 1.18413e+06 416704 351038
5 3 O 1.06015 4.6615 1.48664 -1.2 -8.55169 -2.90912e+06 -3.43349e+06 -4.04371e+06 -1.36488e+06 96692.5 -11018.1
6 3 O 1.41457 1.64992 0.202136 -1.2 -8.51305 -5.37042e+06 -2.35026e+06 -3.97433e+06 -989590 1.34303e+06 -1565.7
7 1 Mg -0.106467 -0.0731802 2.78532 1.2 -8.29478 -70718.5 3.53116e+06 -357855 -1.23955e+06 1.77734e+06 2.0928e+06
8 3 O 1.32396 1.49238 2.7007 -1.2 -8.49114 -4.24448e+06 -2.76869e+06 -4.24391e+06 -68491.3 191547 -464731
9 1 Mg 0.166268 7.512 4.46335 1.2 -9.03433 2.30493e+06 1.32174e+06 2.67461e+06 747487 -36682.2 -224826
10 2 Si 2.75117 9.28361 4.51001 2.4 -34.4146 6.20092e+06 9.483e+06 7.94545e+06 761959 973434 -350999
11 3 O 1.18511 9.41537 4.47776 -1.2 -8.91128 -4.02413e+06 -3.98827e+06 -4.76302e+06 -840957 46037.4 -248128
12 3 O 3.78316 5.6269 4.38777 -1.2 -8.6176 -3.53636e+06 -3.84533e+06 -2.72549e+06 -1.38465e+06 160344 91859.6
13 3 O 3.38162 8.61212 3.26489 -1.2 -8.79327 -4.24158e+06 -4.00761e+06 -4.26944e+06 -37210.9 -592677 -569743
14 3 O 3.42347 8.62881 5.75975 -1.2 -8.27824 -4.09177e+06 -4.11502e+06 -4.0123e+06 -367324 394723 422155
15 1 Mg 2.35747 5.19836 2.95828 1.2 -8.42362 -741810 3.62564e+06 86454.2 787279 -1.65378e+06 2.12397e+06
16 1 Mg 2.40234 2.26881 4.35827 1.2 -9.14039 2.5773e+06 122692 2.99323e+06 -818890 -37058.3 237046
17 2 Si 4.45862 4.11845 4.36488 2.4 -34.2855 7.7183e+06 1.0458e+07 7.68959e+06 -268943 -875749 306697
18 3 O 1.24072 4.20316 4.38358 -1.2 -8.71875 -2.49282e+06 -3.8585e+06 -3.52304e+06 230186 371010 146711
19 3 O 3.38212 0.48785 4.38903 -1.2 -8.4848 -3.31514e+06 -5.23503e+06 -4.36893e+06 2.0375e+06 802885 -869239
20 3 O 3.77748 3.39903 3.17348 -1.2 -8.60783 -4.37996e+06 -3.15476e+06 -5.154e+06 -43976.7 1.02682e+06 -859019
21 1 Mg 2.36011 5.15902 -0.00511844 1.2 -8.50264 -651329 3.75207e+06 -339504 539570 1.12571e+06 -2.27427e+06
22 3 O 3.73977 3.47197 5.6787 -1.2 -8.45828 -4.09498e+06 -3.72081e+06 -2.91583e+06 315683 -1.14159e+06 181301
23 1 Mg 2.39738 7.97036 1.50721 1.2 -8.79428 1.79541e+06 452857 3.48738e+06 -752100 -430097 321185
24 2 Si 0.309492 6.16132 1.47792 2.4 -34.1857 6.03557e+06 1.08168e+07 9.23426e+06 -1.08334e+06 -355039 438475
25 3 O 3.49896 6.06358 1.44682 -1.2 -9.14802 -3.4261e+06 -4.00524e+06 -4.31503e+06 183199 454719 -23761.5
26 3 O 1.47313 9.8187 1.56337 -1.2 -8.67799 -4.5652e+06 -5.98593e+06 -3.99933e+06 -48726.1 -106407 1.34699e+06
27 3 O 0.933101 6.83271 0.204385 -1.2 -8.50467 -3.95702e+06 -3.8333e+06 -3.8874e+06 420759 -414145 291109
28 3 O 1.06566 6.86428 2.743 -1.2 -8.54017 -3.74714e+06 -3.67425e+06 -2.72807e+06 451889 1.15588e+06 -132441
29 1 Mg 4.76186 0.0656052 -0.0724408 1.2 -8.4282 -1.22147e+06 3.65991e+06 -37693.8 -1.25281e+06 -2.46331e+06 -1.91993e+06
30 1 Mg 9.48567 2.83167 1.55368 1.2 -8.74261 2.04803e+06 794960 2.86956e+06 1.41772e+06 213284 445523
31 2 Si 6.76442 0.967333 1.43457 2.4 -34.4293 6.24973e+06 1.05931e+07 8.70111e+06 557177 -639408 -75612
32 3 O 8.31709 0.840205 1.46755 -1.2 -9.00302 -2.9361e+06 -3.82084e+06 -4.30542e+06 -402522 1.19733e+06 -299662
33 3 O 5.65765 4.60696 1.49533 -1.2 -8.71851 -4.17338e+06 -4.80395e+06 -3.19644e+06 -1.83373e+06 -205413 -403378
34 3 O 6.10081 1.68693 0.144067 -1.2 -8.48652 -4.0226e+06 -3.10652e+06 -2.51069e+06 -130505 1.07476e+06 -668354
35 1 Mg 4.71015 -0.00447123 2.9215 1.2 -8.51854 -704725 3.81574e+06 -540517 -956228 971673 2.04775e+06
36 3 O 6.15985 1.59594 2.71386 -1.2 -8.51485 -4.24705e+06 -4.37576e+06 -3.66693e+06 189531 223353 -1.04129e+06
37 1 Mg 4.7979 7.45877 4.51227 1.2 -8.78644 3.02227e+06 292631 2.28637e+06 1.32767e+06 -292529 854338
38 2 Si 7.46084 9.32899 4.47511 2.4 -34.3307 6.54366e+06 9.73122e+06 7.50229e+06 1.53377e+06 -1.1567e+06 734604
39 3 O 5.904 9.37958 4.52552 -1.2 -9.14104 -3.7897e+06 -3.67178e+06 -3.92114e+06 -186123 33860.2 295187
40 3 O 8.46073 5.60877 4.44247 -1.2 -8.76306 -4.59472e+06 -4.20372e+06 -4.37385e+06 -792673 554060 -103299
41 3 O 8.10924 8.69634 3.19888 -1.2 -8.6617 -3.59718e+06 -3.80201e+06 -4.20506e+06 -374449 4436.9 -1.54283e+06
42 3 O 8.09706 8.6772 5.73014 -1.2 -8.45466 -4.79696e+06 -3.99979e+06 -4.00339e+06 -357138 406880 637226
43 1 Mg 7.08892 5.21495 2.93632 1.2 -8.2597 -675807 3.25937e+06 -446949 1.52418e+06 -1.61219e+06 2.31495e+06
44 1 Mg 7.17829 2.34451 4.39189 1.2 -8.7781 1.68829e+06 30353.9 2.58897e+06 -1.27529e+06 135398 875082
45 2 Si 9.09244 4.12908 4.41926 2.4 -34.0553 7.56241e+06 8.66264e+06 8.74586e+06 737484 -279020 -514653
46 3 O 6.0086 4.18123 4.38212 -1.2 -9.00532 -3.73961e+06 -4.40534e+06 -4.36703e+06 129656 195007 111378
47 3 O 8.09379 0.42102 4.36015 -1.2 -8.91492 -4.65806e+06 -5.87279e+06 -4.18033e+06 660982 -264765 781721
48 3 O 8.44239 3.4592 3.16903 -1.2 -8.75798 -4.92301e+06 -3.95998e+06 -4.43061e+06 -974180 1.09292e+06 -979365
49 1 Mg 7.05582 5.18225 -0.0354144 1.2 -8.24071 677617 4.36777e+06 -77505.4 1.30745e+06 1.52412e+06 -1.69273e+06
50 3 O 8.41475 3.42003 5.69639 -1.2 -8.65102 -4.50563e+06 -2.9775e+06 -2.8297e+06 -83263.5 -1.08503e+06 -97302.8
51 1 Mg 7.14396 8.03046 1.53747 1.2 -8.75303 2.29619e+06 -192855 2.00958e+06 -381666 161002 429054
52 2 Si 5.05167 6.14568 1.52398 2.4 -33.8385 7.46948e+06 9.58891e+06 8.26338e+06 487056 -407382 -245382
53 3 O 8.21478 6.11784 1.53572 -1.2 -8.96971 -2.93101e+06 -4.16117e+06 -4.6446e+06 684602 153201 302419
54 3 O 6.10169 9.78151 1.46537 -1.2 -9.09432 -3.71565e+06 -5.45141e+06 -3.35101e+06 2.06014e+06 -602748 60042.5
55 3 O 5.77632 6.84167 0.255893 -1.2 -8.69838 -4.64938e+06 -2.71531e+06 -2.6745e+06 157066 -1.19258e+06 478057
56 3 O 5.77552 6.74793 2.7719 -1.2 -8.85942 -4.57706e+06 -3.40584e+06 -4.28929e+06 -98515.1 1.27438e+06 -685005
57 1 Mg 9.53434 -0.0458402 0.0394914 1.2 -8.47186 -106902 4.29738e+06 -1.05893e+06 -750508 -1.18168e+06 -1.4224e+06
58 1 Mg 14.0297 2.87183 1.61206 1.2 -8.75041 2.18224e+06 -256160 2.82595e+06 446591 296678 -352010
59 2 Si 11.5554 1.03296 1.5707 2.4 -33.226 6.82387e+06 9.97264e+06 9.28372e+06 313106 1.71933e+06 204676
60 3 O 13.126 1.00109 1.56225 -1.2 -9.64178 -2.32358e+06 -3.96306e+06 -4.39571e+06 -1.09813e+06 -903319 254792
61 3 O 10.4301 4.66362 1.57465 -1.2 -8.46969 -3.27174e+06 -3.67911e+06 -4.31422e+06 -2.0999e+06 -596081 -475931
62 3 O 10.8012 1.66826 0.202599 -1.2 -8.43805 -3.07607e+06 -3.7114e+06 389001 -439480 1.4314e+06 -148667
63 1 Mg 9.47904 0.0611612 3.00321 1.2 -7.83861 -819893 3.45884e+06 -66810 -1.16962e+06 2.03834e+06 2.07058e+06
64 3 O 10.8363 1.6527 2.80407 -1.2 -9.29968 -3.92004e+06 -3.62064e+06 -3.7397e+06 -89109.7 -1.12655e+06 -1.0647e+06
65 1 Mg 9.5252 7.46842 4.55879 1.2 -8.72655 2.38656e+06 837950 3.09365e+06 954008 -614159 724562
66 2 Si 12.155 9.26336 4.4986 2.4 -33.7929 5.60218e+06 1.08351e+07 8.56802e+06 1.24825e+06 1.22244e+06 -369643
67 3 O 10.6495 9.38819 4.53462 -1.2 -9.20653 -4.20883e+06 -4.12347e+06 -4.35177e+06 66963 738655 -621803
68 3 O 13.1562 5.59542 4.45077 -1.2 -8.30887 -3.63273e+06 -5.79771e+06 -4.80847e+06 -1.57301e+06 309181 -485595
69 3 O 12.8168 8.58927 3.27219 -1.2 -8.98091 -3.55461e+06 -3.51313e+06 -3.86568e+06 -383134 -261122 -818231
70 3 O 12.9263 8.62149 5.80788 -1.2 -8.55446 -3.52491e+06 -4.04854e+06 -2.45919e+06 -1.01161e+06 1.20275e+06 388198
71 1 Mg 11.7921 5.12822 2.93246 1.2 -8.40622 -113751 2.98077e+06 -257061 661898 -1.24308e+06 1.53295e+06
72 1 Mg 11.8367 2.33448 4.45983 1.2 -8.66136 2.19648e+06 -64701.3 1.67057e+06 -978281 69796.2 423172
73 2 Si 13.8843 4.12447 4.53468 2.4 -34.5071 5.47213e+06 9.71871e+06 6.94129e+06 -1.41873e+06 -746792 -241989
74 3 O 10.6632 4.27779 4.4337 -1.2 -8.9163 -3.18942e+06 -3.7313e+06 -4.11784e+06 381501 -5479.21 123939
75 3 O 12.8629 0.601082 4.40628 -1.2 -9.0387 -4.3009e+06 -4.92548e+06 -2.60557e+06 1.41665e+06 70757.6 -936977
76 3 O 13.1818 3.47459 3.32291 -1.2 -8.67101 -4.99662e+06 -5.67195e+06 -5.04627e+06 403166 1.03684e+06 -1.98929e+06
77 1 Mg 11.9369 5.13511 -0.0413517 1.2 -8.28108 827524 3.17891e+06 -85259.1 1.53984e+06 1.24979e+06 -1.48953e+06
78 3 O 13.2111 3.54625 5.81824 -1.2 -8.42224 -4.11962e+06 -4.62329e+06 -5.06505e+06 450442 19056.9 1.4428e+06
79 1 Mg 11.9899 7.84015 1.57812 1.2 -8.77646 2.15e+06 251719 2.58002e+06 -1.09712e+06 -407119 178853
80 2 Si 9.76686 6.19486 1.4417 2.4 -34.4462 6.99714e+06 1.10169e+07 9.95745e+06 79986.1 185912 602016
81 3 O 13.0447 6.02079 1.5295 -1.2 -9.10418 -4.04291e+06 -3.92973e+06 -4.46192e+06 105405 751164 235704
82 3 O 10.8428 9.77133 1.5179 -1.2 -8.7425 -2.80805e+06 -5.66239e+06 -3.64293e+06 765206 -78978 398603
83 3 O 10.5005 6.65459 0.113548 -1.2 -8.46438 -4.32045e+06 -5.05954e+06 -2.80919e+06 -488814 -1.38975e+06 770734
84 3 O 10.5144 6.88702 2.71037 -1.2 -8.51898 -3.28255e+06 -4.21926e+06 -1.32853e+06 -269043 723940 -305764
85 1 Mg 14.2391 0.134382 -0.0571673 1.2 -8.05045 874907 4.09708e+06 193562 -599793 -921326 -1.28256e+06
86 1 Mg 19.0164 2.82079 1.54164 1.2 -8.76882 1.94802e+06 625473 3.44335e+06 1.36017e+06 -194619 -202670
87 2 Si 16.2934 1.15373 1.4285 2.4 -34.7535 4.07112e+06 1.21592e+07 9.83222e+06 -985918 -61109.6 613829
88 3 O 17.8258 0.980213 1.41888 -1.2 -8.86152 -3.77485e+06 -4.92687e+06 -3.66694e+06 -1.83517e+06 -89660.6 -14693.7
89 3 O 15.2344 4.57672 1.56064 -1.2 -8.46038 -3.10008e+06 -5.90973e+06 -3.59389e+06 -282271 -609970 -405648
90 3 O 15.6033 1.82388 0.143936 -1.2 -8.30191 -2.67555e+06 -5.42492e+06 -2.12036e+06 594643 612512 373579
91 1 Mg 14.2184 0.0482257 2.91981 1.2 -8.05534 -630577 3.92826e+06 -397868 -408956 803979 2.04795e+06
92 3 O 15.6362 1.79763 2.75297 -1.2 -8.43572 -3.02913e+06 -4.24376e+06 -2.34513e+06 -431159 -715829 -204997
93 1 Mg 14.2568 7.43003 4.48361 1.2 -8.722 2.84475e+06 626263 2.74951e+06 1.50113e+06 -142142 479689
94 2 Si 17.0586 9.23261 4.47935 2.4 -34.6189 5.90415e+06 9.43105e+06 9.2134e+06 240912 -424986 -142413
95 3 O 15.5198 9.33112 4.60091 -1.2 -9.05864 -3.31183e+06 -3.46526e+06 -4.59683e+06 -609874 -3797.66 209220
96 3 O 18.019 5.60069 4.52803 -1.2 -8.34818 -1.85174e+06 -4.75741e+06 -4.06203e+06 -1.3527e+06 -271242 624874
97 3 O 17.7039 8.53161 3.25692 -1.2 -8.4842 -3.57223e+06 -4.03352e+06 -4.47967e+06 103922 -450799 -1.0748e+06
98 3 O 17.7006 8.58621 5.81135 -1.2 -8.23191 -3.88139e+06 -3.17556e+06 -3.66113e+06 409656 278184 -276176
99 1 Mg 16.5332 5.07823 3.05224 1.2 -8.39194 -696569 3.92387e+06 491546 1.77687e+06 -1.61515e+06 2.01605e+06
100 1 Mg 16.4634 2.27239 4.54059 1.2 -8.86177 2.0316e+06 870831 2.95476e+06 -330872 -200439 -285548
101 2 Si 18.681 4.05064 4.47531 2.4 -34.4531 3.51669e+06 1.15086e+07 7.74677e+06 -67171.8 1.77488e+06 625580
102 3 O 15.4035 4.11884 4.54641 -1.2 -9.08056 -4.58709e+06 -4.2517e+06 -4.74054e+06 104082 908394 -844474
103 3 O 17.5263 0.508615 4.6085 -1.2 -8.50775 -3.81855e+06 -4.98369e+06 -3.51765e+06 330235 -923482 -394630
104 3 O 17.8712 3.46753 3.24732 -1.2 -8.54575 -3.11431e+06 -4.56543e+06 -2.97689e+06 -360956 -523645 -1.06543e+06
105 1 Mg 16.7214 5.19282 -0.0630521 1.2 -8.60767 584174 4.88541e+06 -246641 1.12859e+06 769260 -1.69162e+06
106 3 O 18.0625 3.49197 5.79276 -1.2 -8.54265 -4.30427e+06 -5.53806e+06 -4.8853e+06 -287642 -708776 1.37279e+06
107 1 Mg 16.7262 7.81462 1.63661 1.2 -9.01797 2.55939e+06 825241 3.53529e+06 -580926 -277371 -327505
108 2 Si 14.5911 6.03352 1.56019 2.4 -34.4532 5.93793e+06 1.00717e+07 8.23082e+06 60223.3 -817227 -4434.42
109 3 O 17.768 5.94002 1.48503 -1.2 -8.76343 -2.5872e+06 -4.29375e+06 -3.88948e+06 -1.06556e+06 491342 411511
110 3 O 15.6373 9.69365 1.61032 -1.2 -8.61197 -3.15706e+06 -4.18095e+06 -2.89784e+06 1.45987e+06 -33202.5 -1.23815e+06
111 3 O 15.2261 6.77807 0.305796 -1.2 -8.2708 -4.2493e+06 -3.78935e+06 -2.10513e+06 -582423 -145746 423388
112 3 O 15.2607 6.70456 2.84011 -1.2 -8.77516 -3.47959e+06 -3.38804e+06 -3.9987e+06 -292190 638331 -427973
113 1 Mg 19.0433 0.141783 -0.0992424 1.2 -8.33342 -169985 4.23502e+06 334548 -938791 -1.24985e+06 -1.43199e+06
114 1 Mg 23.6221 2.92802 1.48998 1.2 -8.82728 1.66056e+06 597121 2.87751e+06 247522 316444 -346199
115 2 Si 21.1108 1.03588 1.47688 2.4 -33.4918 6.5122e+06 1.04582e+07 8.03272e+06 31488.6 -396543 528584
116 3 O 22.6596 1.02455 1.51116 -1.2 -9.46588 -2.77858e+06 -4.51775e+06 -4.02091e+06 -497064 -688351 616311
117 3 O 20.0812 4.63133 1.48317 -1.2 -8.60532 -3.56086e+06 -8.13815e+06 -3.72077e+06 -330964 -852240 319683
118 3 O 20.3732 1.63692 0.224875 -1.2 -8.70565 -4.07259e+06 -6.30769e+06 -4.36963e+06 -443853 1.36323e+06 1.34941e+06
119 1 Mg 18.9039 -0.0602325 2.85004 1.2 -8.17415 -373740 3.73483e+06 899017 -1.18251e+06 1.63199e+06 1.65016e+06
120 3 O 20.3127 1.79003 2.74133 -1.2 -8.75269 -2.35942e+06 -3.41596e+06 -4.0393e+06 -1.02344e+06 -2.14805e+06 -158673
121 1 Mg 19.1271 7.33254 4.54553 1.2 -9.01866 1.70061e+06 768165 2.72649e+06 954582 70269.4 401559
122 2 Si 21.7092 9.22165 4.44682 2.4 -34.4757 5.883e+06 1.04154e+07 1.04108e+07 351408 -279731 894388
123 3 O 20.1833 9.30524 4.44766 -1.2 -8.94278 -3.90973e+06 -3.8576e+06 -4.72358e+06 -808200 -575449 110352
124 3 O 22.7667 5.60545 4.49441 -1.2 -8.59349 -2.87371e+06 -6.55681e+06 -4.03018e+06 750987 -927635 -149349
125 3 O 22.402 8.68802 3.09944 -1.2 -8.13684 -3.78436e+06 -4.02609e+06 -3.77358e+06 171095 -1.44322e+06 -1.09203e+06
126 3 O 22.45 8.56169 5.6861 -1.2 -8.6191 -3.48087e+06 -4.41948e+06 -3.16025e+06 -374864 520084 190243
127 1 Mg 21.3893 5.08475 2.92152 1.2 -8.21184 -1.12696e+06 3.50096e+06 777935 1.40647e+06 -1.98228e+06 1.50619e+06
128 1 Mg 21.2533 2.28887 4.36169 1.2 -8.6255 1.92895e+06 -214818 1.34305e+06 -119322 -177686 -609511
129 2 Si 23.3732 4.19748 4.4721 2.4 -34.2276 4.96391e+06 9.70954e+06 9.23962e+06 139516 667394 -423647
130 3 O 20.1655 4.07366 4.53266 -1.2 -9.03638 -4.95526e+06 -4.71148e+06 -3.63961e+06 369968 1.05031e+06 300406
131 3 O 22.3907 0.597646 4.4609 -1.2 -9.03621 -3.6778e+06 -6.49403e+06 -3.87398e+06 1.1282e+06 752615 -1.36494e+06
132 3 O 22.6989 3.52593 3.19798 -1.2 -8.89497 -3.63158e+06 -4.75943e+06 -2.88052e+06 346028 547883 -645554
133 1 Mg 21.4471 5.2283 -0.108591 1.2 -8.76061 230712 3.89674e+06 -2354.62 831496 977959 -957493
134 3 O 22.8188 3.54128 5.8447 -1.2 -8.57125 -3.9879e+06 -5.2442e+06 -1.73779e+06 420399 -695852 813316
135 1 Mg 21.3179 8.00452 1.61132 1.2 -9.2225 2.80624e+06 54160 2.54335e+06 -550894 -20871.4 -116638
136 2 Si 19.3557 6.00074 1.52358 2.4 -35.0125 6.38207e+06 8.89079e+06 7.84917e+06 600422 412426 1.13991e+06
137 3 O 22.5125 6.04926 1.45909 -1.2 -8.65388 -2.43154e+06 -4.30912e+06 -3.70765e+06 152662 -389367 -227832
138 3 O 20.3961 9.75962 1.51058 -1.2 -8.15438 -3.72541e+06 -5.48595e+06 -4.47961e+06 1.91188e+06 -379750 -487321
139 3 O 19.9146 6.69904 0.295436 -1.2 -7.84925 -4.99759e+06 -5.6432e+06 -4.09045e+06 -105481 -120326 2.02694e+06
140 3 O 20.0017 6.72046 2.81715 -1.2 -8.42237 -3.57803e+06 -3.04962e+06 -4.26011e+06 698159 963312 -603318
141 1 Mg 23.7722 -0.0833551 0.0550457 1.2 -7.95493 -1.05581e+06 4.59577e+06 214724 -513029 -1.11159e+06 -1.47024e+06
142 1 Mg 28.4647 2.78299 1.40909 1.2 -9.05036 1.78362e+06 728128 2.06478e+06 471847 -399740 244856
143 2 Si 25.7517 1.09932 1.55783 2.4 -33.9274 6.43731e+06 1.16045e+07 7.41759e+06 -380110 627910 114625
144 3 O 27.2969 0.905524 1.55648 -1.2 -9.13912 -2.83856e+06 -4.55742e+06 -3.58317e+06 -666691 -945375 -715441
145 3 O 24.7549 4.64813 1.5685 -1.2 -8.38597 -2.96549e+06 -5.43495e+06 -4.49057e+06 -652585 -173923 550512
146 3 O 25.1247 1.82205 0.283516 -1.2 -8.66464 -3.0474e+06 -4.15156e+06 -2.36862e+06 -343672 237300 803450
147 1 Mg 23.7256 0.152752 3.03652 1.2 -8.18591 -2.45927e+06 4.122e+06 -1.12709e+06 -582216 1.59395e+06 2.06174e+06
148 3 O 25.0913 1.76905 2.84321 -1.2 -8.75046 -3.69245e+06 -4.27551e+06 -3.51131e+06 -431708 -1.11484e+06 -317105
149 1 Mg 23.9062 7.47211 4.56076 1.2 -8.87632 1.34284e+06 800117 3.74343e+06 1.01125e+06 45194.3 171511
150 2 Si 26.4394 9.31971 4.47115 2.4 -34.6636 6.22856e+06 1.0881e+07 1.0168e+07 726261 850203 598206
151 3 O 24.8844 9.39708 4.48708 -1.2 -9.08265 -3.49914e+06 -3.50589e+06 -5.66845e+06 -440619 -438677 -955036
152 3 O 27.4612 5.60282 4.47711 -1.2 -8.55102 -2.05143e+06 -3.94796e+06 -4.33683e+06 -1.85259e+06 -338014 149153
153 3 O 27.1391 8.67433 3.17406 -1.2 -8.3092 -2.71307e+06 -4.82159e+06 -4.27737e+06 -756863 -2.31548e+06 -1.02224e+06
154 3 O 27.1548 8.6159 5.69982 -1.2 -8.39277 -2.50882e+06 -3.45968e+06 -3.74731e+06 314588 656545 322623
155 1 Mg 26.1022 5.08875 3.02824 1.2 -8.30812 -707304 4.06545e+06 256857 513382 -1.1733e+06 1.76524e+06
156 1 Mg 25.994 2.30279 4.52203 1.2 -8.75584 1.8206e+06 29499.5 2.05771e+06 -1.34988e+06 -91287.2 45733.9
157 2 Si 28.1774 4.07125 4.39835 2.4 -34.0155 6.75062e+06 1.18764e+07 9.90365e+06 -872356 -34055.3 1.3757e+06
158 3 O 24.9541 4.2632 4.5435 -1.2 -8.94542 -3.58362e+06 -4.75216e+06 -5.28392e+06 276733 -572348 -320014
159 3 O 27.1185 0.578686 4.53906 -1.2 -8.74541 -2.47686e+06 -4.15903e+06 -3.83277e+06 1.88092e+06 -143975 1.09596e+06
160 3 O 27.5154 3.47429 3.09087 -1.2 -8.56042 -3.20949e+06 -4.3306e+06 -3.09849e+06 698673 939128 -215790
161 1 Mg 26.1567 5.12072 0.118304 1.2 -8.73527 -764663 3.38344e+06 310336 1.20672e+06 2.22791e+06 -1.972e+06
162 3 O 27.3986 3.44921 5.68577 -1.2 -8.67347 -2.70435e+06 -4.94238e+06 -2.11615e+06 608467 -1.31654e+06 566399
163 1 Mg 26.2021 7.95343 1.55872 1.2 -9.08 1.76674e+06 1.37388e+06 2.35864e+06 -1.0606e+06 80123.6 554826
164 2 Si 24.0947 6.1548 1.45292 2.4 -34.9528 6.6855e+06 1.07687e+07 8.89553e+06 -1.17421e+06 617144 1.40807e+06
165 3 O 27.2719 6.02801 1.53129 -1.2 -8.87033 -1.2501e+06 -4.63712e+06 -4.39354e+06 681164 -720906 -247295
166 3 O 25.1057 9.79671 1.50665 -1.2 -8.23136 -4.78911e+06 -5.02567e+06 -3.44488e+06 215862 -336957 715868
167 3 O 24.7971 6.6539 0.168808 -1.2 -8.16345 -3.59905e+06 -5.07635e+06 -4.6416e+06 191768 -441555 360592
168 3 O 24.7415 6.90258 2.69014 -1.2 -8.427 -3.33109e+06 -3.97747e+06 -2.66139e+06 482133 280639 -954654
169 1 Mg 28.4932 -0.0402258 0.0732144 1.2 -8.33476 142021 4.26974e+06 357271 -987192 -1.516e+06 -1.16883e+06
170 1 Mg 33.2022 2.80783 1.35746 1.2 -8.99117 1.62434e+06 1.08246e+06 3.27655e+06 987533 272265 333108
171 2 Si 30.5582 0.991726 1.51035 2.4 -34.5395 5.17141e+06 1.15744e+07 1.02957e+07 -131820 -733112 11621.3
172 3 O 32.1089 1.0129 1.39079 -1.2 -9.00458 -2.64427e+06 -4.39904e+06 -5.10621e+06 -524068 -1.43079e+06 -574638
173 3 O 29.5347 4.60321 1.49238 -1.2 -8.60284 -3.60751e+06 -4.98181e+06 -4.45823e+06 -710961 -291462 -141455
174 3 O 29.8777 1.616 0.161523 -1.2 -8.22247 -3.06535e+06 -3.67915e+06 -2.55938e+06 342662 902555 -704684
175 1 Mg 28.4313 -0.0312923 2.99076 1.2 -8.36411 -1.10268e+06 4.00146e+06 -152970 -1.22692e+06 1.08366e+06 2.14563e+06
176 3 O 29.763 1.68855 2.69572 -1.2 -8.44279 -2.80945e+06 -4.78778e+06 -3.83832e+06 174349 -837294 -143844
177 1 Mg 28.5418 7.38885 4.43897 1.2 -9.02645 2.02757e+06 1.28482e+06 3.12861e+06 146024 533881 56587.8
178 2 Si 31.1769 9.28353 4.49212 2.4 -34.1229 5.74139e+06 1.17273e+07 8.4646e+06 -773813 -313402 -123980
179 3 O 29.646 9.30098 4.44156 -1.2 -9.00715 -3.79023e+06 -4.46137e+06 -3.94467e+06 586866 -227988 248127
180 3 O 32.202 5.6085 4.47889 -1.2 -8.64524 -2.69352e+06 -5.04796e+06 -3.74852e+06 -644625 673772 89009.5
181 3 O 31.9008 8.52368 3.20096 -1.2 -8.7421 -2.25851e+06 -3.43454e+06 -2.45432e+06 -511406 -933456 -43029.7
182 3 O 31.8331 8.64975 5.76949 -1.2 -8.46128 -3.82015e+06 -3.56496e+06 -2.96292e+06 -295265 512502 179891
183 1 Mg 30.8895 5.12727 2.94452 1.2 -8.28681 -855751 3.90882e+06 90879.3 1.0097e+06 -2.00065e+06 2.38723e+06
184 1 Mg 30.8221 2.35006 4.4245 1.2 -9.02692 1.64122e+06 -71703.5 2.82473e+06 -545300 272025 134176
185 2 Si 32.9479 4.1276 4.35806 2.4 -34.2382 3.58872e+06 1.09477e+07 8.55237e+06 -626928 -1.34618e+06 5692.97
186 3 O 29.7493 4.16421 4.51294 -1.2 -9.07287 -1.28104e+06 -4.71924e+06 -4.34903e+06 913743 -341416 -363832
187 3 O 31.9002 0.627674 4.34594 -1.2 -8.70537 -3.31466e+06 -5.51983e+06 -3.34124e+06 261160 607369 -311472
188 3 O 32.2826 3.46567 3.12555 -1.2 -8.34719 -4.07592e+06 -4.46374e+06 -4.63269e+06 -228179 316530 -536946
189 1 Mg 30.8817 5.15042 0.0550954 1.2 -8.35747 252563 3.90753e+06 138867 709962 2.07806e+06 -1.61124e+06
190 3 O 32.2339 3.42342 5.64132 -1.2 -8.57169 -3.2046e+06 -4.85608e+06 -2.87667e+06 794851 -1.12412e+06 385071
191 1 Mg 30.9386 8.01777 1.54657 1.2 -8.44085 1.8646e+06 1.30229e+06 2.23079e+06 -1.32327e+06 -246209 -215948
192 2 Si 28.8767 6.08361 1.51904 2.4 -33.9426 6.59396e+06 1.04241e+07 9.3099e+06 -843323 345957 168018
193 3 O 32.0553 6.07067 1.49935 -1.2 -8.97063 -3.09875e+06 -4.78674e+06 -4.07727e+06 1.35576e+06 -129628 -271924
194 3 O 29.8663 9.85674 1.48134 -1.2 -8.77671 -3.52107e+06 -5.56985e+06 -3.96441e+06 320473 444899 -251452
195 3 O 29.4783 6.70718 0.145843 -1.2 -8.73246 -3.07734e+06 -4.24965e+06 -1.32452e+06 810990 -951446 273631
196 3 O 29.5446 6.69072 2.7917 -1.2 -8.94285 -3.73947e+06 -4.22128e+06 -3.24379e+06 425145 -110701 -1.76802e+06
197 1 Mg 33.2513 0.00671484 0.0149606 1.2 -8.20559 -869192 4.12957e+06 -810872 -1.37267e+06 -2.02299e+06 -1.5335e+06
198 1 Mg 37.9598 2.89849 1.52185 1.2 -8.66637 2.30677e+06 -274327 2.30506e+06 626442 756536 -224379
199 2 Si 35.2945 1.01519 1.35591 2.4 -33.4723 7.22593e+06 9.71877e+06 7.85699e+06 -406008 -844780 854774
200 3 O 36.8427 0.913569 1.4227 -1.2 -9.2158 -3.01217e+06 -3.94693e+06 -4.64246e+06 -485154 -29638.7 -343878
201 3 O 34.1955 4.69008 1.41266 -1.2 -8.19789 -3.79953e+06 -4.41297e+06 -4.28688e+06 -793857 -344048 -828901
202 3 O 34.6286 1.64575 0.106257 -1.2 -8.96146 -4.54859e+06 -4.21616e+06 -4.12598e+06 238426 1.11176e+06 577112
203 1 Mg 33.3049 0.041849 2.90018 1.2 -8.08165 -1.07148e+06 4.3614e+06 -160789 -1.44073e+06 1.70584e+06 1.84762e+06
204 3 O 34.5056 1.61486 2.66354 -1.2 -8.82427 -4.04313e+06 -4.54578e+06 -1.96263e+06 -20004.8 -1.1526e+06 -940341
205 1 Mg 33.3641 7.38122 4.42889 1.2 -8.7726 2.78721e+06 992945 2.77823e+06 684090 -51648.8 903038
206 2 Si 35.9682 9.32426 4.44612 2.4 -33.8869 6.8456e+06 1.10292e+07 9.45581e+06 -1.14039e+06 -705089 -657872
207 3 O 34.4146 9.3357 4.54535 -1.2 -8.9345 -1.65071e+06 -3.95735e+06 -4.27158e+06 199428 432369 591079
208 3 O 36.9611 5.59286 4.26113 -1.2 -8.69923 -4.64873e+06 -6.9624e+06 -4.41878e+06 319868 -951642 -618487
209 3 O 36.5868 8.5836 3.16312 -1.2 -8.74144 -4.49172e+06 -2.84981e+06 -3.26775e+06 77737 -1.16917e+06 379093
210 3 O 36.7031 8.53709 5.69154 -1.2 -8.65509 -5.55629e+06 -1.75061e+06 -2.67509e+06 578476 1.43251e+06 -917128
211 1 Mg 35.6389 5.181 2.8331 1.2 -8.40371 -1.08413e+06 2.75061e+06 -2.00245e+06 861282 -741925 2.12592e+06
212 1 Mg 35.5174 2.37988 4.31685 1.2 -8.59069 2.52867e+06 433758 3.47917e+06 -1.12748e+06 321989 -487781
213 2 Si 37.6003 4.17028 4.41076 2.4 -34.3259 5.32386e+06 9.08456e+06 7.78927e+06 -280896 632498 -439688
214 3 O 34.4337 4.21315 4.2784 -1.2 -9.18537 -5.7763e+06 -3.69819e+06 -4.46033e+06 125182 -730644 172915
215 3 O 36.6458 0.547868 4.42744 -1.2 -8.85222 -2.71784e+06 -4.7257e+06 -3.95473e+06 452748 279377 -159899
216 3 O 36.9644 3.51362 3.06911 -1.2 -8.60657 -3.84383e+06 -5.39414e+06 -3.16479e+06 1.2901e+06 881527 -1.2215e+06
217 1 Mg 35.7228 5.17609 -0.0327686 1.2 -8.11026 577574 3.8223e+06 -192410 572905 290658 -1.55568e+06
218 3 O 36.9082 3.47944 5.64556 -1.2 -8.7122 -3.99252e+06 -3.50009e+06 -2.60071e+06 -318347 351258 566067
219 1 Mg 35.7564 7.96467 1.46262 1.2 -8.72343 2.21122e+06 148497 2.18318e+06 -1.11356e+06 -114943 -135076
220 2 Si 33.5988 6.22424 1.40783 2.4 -34.5789 4.99868e+06 1.13508e+07 7.84734e+06 -363632 591116 -45162.7
221 3 O 36.8151 5.89077 1.45871 -1.2 -9.32562 -3.62421e+06 -4.60199e+06 -5.68934e+06 -1.11934e+06 721201 700671
222 3 O 34.7189 9.72224 1.43392 -1.2 -8.75462 -2.58759e+06 -5.37572e+06 -3.33181e+06 1.70789e+06 -643787 -671975
223 3 O 34.2951 6.88813 0.216178 -1.2 -8.64648 -3.66893e+06 -5.08965e+06 -3.57885e+06 -225384 -132128 1.52941e+06
224 3 O 34.337 6.72955 2.72999 -1.2 -8.54064 -3.73134e+06 -5.68107e+06 -3.08387e+06 66206.4 230341 -1.40095e+06
225 1 Mg 37.981 0.0120772 0.0167033 1.2 -8.39217 -1.54798e+06 3.44866e+06 -292067 -1.00851e+06 -1.86533e+06 -1.58582e+06
226 1 Mg 42.6456 2.77459 1.43439 1.2 -8.62826 2.8031e+06 378737 2.85835e+06 720303 31860.6 -225986
227 2 Si 39.9914 1.0052 1.38696 2.4 -34.3248 5.85769e+06 1.0376e+07 7.97291e+06 -204851 36228.1 798739
228 3 O 41.5298 0.855583 1.3973 -1.2 -9.03423 -3.60182e+06 -4.46785e+06 -4.20004e+06 83962.7 -618336 -325978
229 3 O 39.2087 4.50773 1.52791 -1.2 -8.71997 -2.2205e+06 -4.57602e+06 -3.18949e+06 -1.6571e+06 63840.9 -271535
230 3 O 39.3443 1.65687 0.160433 -1.2 -8.60281 -4.40557e+06 -4.71724e+06 -4.21481e+06 -14811.6 -228967 837122
231 1 Mg 37.9819 -0.0334738 2.921 1.2 -8.2814 -585831 3.53411e+06 108330 -1.09935e+06 1.54182e+06 2.06074e+06
232 3 O 39.3073 1.62013 2.70167 -1.2 -8.6278 -4.02819e+06 -3.67865e+06 -3.3843e+06 -421267 -1.19023e+06 -636694
233 1 Mg 37.9306 7.46989 4.43329 1.2 -8.75767 1.85232e+06 -118096 3.76325e+06 486187 -1421.23 202242
234 2 Si 40.5601 9.21296 4.4356 2.4 -33.6278 6.06325e+06 1.06699e+07 9.43525e+06 669514 92230.3 505791
235 3 O 39.0354 9.30206 4.35874 -1.2 -9.56811 -4.29375e+06 -3.59798e+06 -4.65064e+06 -188206 356451 504331
236 3 O 41.7788 5.48927 4.37596 -1.2 -9.01441 -4.53185e+06 -6.58434e+06 -3.87938e+06 -126608 -437679 7333.9
237 3 O 41.2634 8.56733 3.09296 -1.2 -8.56418 -3.68655e+06 -3.27445e+06 -3.19249e+06 -743356 -1.7071e+06 -235761
238 3 O 41.3165 8.50064 5.63734 -1.2 -8.85878 -2.96856e+06 -3.56404e+06 -3.00101e+06 -674356 1.19093e+06 1.0528e+06
239 1 Mg 40.4778 5.13288 2.97613 1.2 -8.20606 -1.28847e+06 4.22858e+06 -908058 562269 -2.56036e+06 1.13711e+06
240 1 Mg 40.2708 2.23107 4.36393 1.2 -9.07112 2.31425e+06 -464341 2.59221e+06 -1.23275e+06 65324 -237703
241 2 Si 42.377 4.04404 4.47614 2.4 -34.2979 6.97081e+06 9.75907e+06 6.78691e+06 1.05058e+06 4435.32 176373
242 3 O 39.1062 4.26102 4.49927 -1.2 -8.91497 -4.3643e+06 -3.87464e+06 -3.80399e+06 1.21721e+06 84356.6 573592
243 3 O 41.4001 0.593912 4.45699 -1.2 -8.15707 -2.80519e+06 -5.72404e+06 -4.79768e+06 1.57943e+06 543151 408769
244 3 O 41.6756 3.31274 3.23452 -1.2 -8.49283 -3.59528e+06 -4.38903e+06 -2.81381e+06 565560 24898.7 -165973
245 1 Mg 40.4573 5.16819 -0.0680702 1.2 -8.41442 -814689 4.11421e+06 230148 480356 992367 -1.47408e+06
246 3 O 41.7054 3.42354 5.74364 -1.2 -8.45082 -3.88302e+06 -5.24738e+06 -4.12042e+06 -162486 -183473 1.01245e+06
247 1 Mg 40.4281 7.89641 1.4771 1.2 -9.03361 2.65476e+06 456727 1.27642e+06 -964878 -569342 -154608
248 2 Si 38.3616 5.96405 1.48482 2.4 -33.9293 7.12898e+06 1.12504e+07 7.74905e+06 -1.29749e+06 -83909.3 -153896
249 3 O 41.5278 6.01463 1.4182 -1.2 -9.04899 -5.00484e+06 -4.58545e+06 -3.85061e+06 -515638 -286437 3084.75
250 3 O 39.382 9.73125 1.35486 -1.2 -8.53778 -4.50061e+06 -4.81374e+06 -2.76834e+06 1.22938e+06 -877488 625252
251 3 O 39.0058 6.69836 0.230129 -1.2 -8.57518 -4.26915e+06 -3.33593e+06 -4.54393e+06 1.2602e+06 -1.30508e+06 11445.1
252 3 O 39.0535 6.74199 2.68397 -1.2 -8.44113 -3.52767e+06 -3.56286e+06 -3.91567e+06 225590 1.08481e+06 156641
253 1 Mg 42.7875 0.175996 -0.0826037 1.2 -8.19605 -273904 2.94758e+06 402736 -1.35619e+06 -1.11646e+06 -1.64875e+06
254 1 Mg 47.447 2.7041 1.41552 1.2 -8.82328 1.89698e+06 543643 2.79089e+06 882572 -75207 -287347
255 2 Si 44.8193 1.00056 1.51973 2.4 -34.1217 6.74473e+06 1.054e+07 8.57925e+06 296631 15039.1 158039
256 3 O 46.3518 0.910978 1.52819 -1.2 -9.16072 -3.48269e+06 -3.9075e+06 -4.19335e+06 -438819 292514 -476960
257 3 O 43.7583 4.59004 1.33675 -1.2 -8.97913 -3.03017e+06 -5.33562e+06 -3.03469e+06 -539683 177346 137200
258 3 O 44.1443 1.59397 0.163768 -1.2 -8.9357 -4.01643e+06 -3.67742e+06 -2.59655e+06 -687807 1.06053e+06 59078.4
259 1 Mg 42.7111 -0.03302 2.87727 1.2 -8.44484 -1.1912e+06 3.45225e+06 -405146 -1.21421e+06 2.41494e+06 1.99711e+06
260 3 O 44.0788 1.71919 2.7023 -1.2 -8.43998 -4.10789e+06 -4.29753e+06 -2.48639e+06 268148 -60193.6 -1.10338e+06
261 1 Mg 42.7889 7.33193 4.37302 1.2 -8.54025 2.7956e+06 805153 3.12438e+06 172493 383356 36333.3
262 2 Si 45.4458 9.09065 4.3803 2.4 -33.8876 6.77711e+06 1.08515e+07 9.18999e+06 -858732 -24535.4 387847
263 3 O 43.9086 9.23039 4.38322 -1.2 -9.22313 -3.13313e+06 -3.66029e+06 -4.05028e+06 -866116 -439391 355017
264 3 O 46.5058 5.5581 4.41461 -1.2 -8.9765 -2.86988e+06 -5.47535e+06 -3.74291e+06 -596886 389670 -107449
265 3 O 46.156 8.40099 3.11001 -1.2 -8.61028 -3.77449e+06 -3.15514e+06 -818849 424828 -632361 -672409
266 3 O 46.1477 8.56873 5.73028 -1.2 -8.70851 -4.41186e+06 -4.12398e+06 -1.74202e+06 -729509 819654 950985
267 1 Mg 45.0952 5.14181 2.9593 1.2 -8.21107 557076 4.25749e+06 21707.4 999972 -1.70374e+06 1.26165e+06
268 1 Mg 45.0978 2.32941 4.50687 1.2 -8.88318 2.83546e+06 294381 2.37356e+06 -1.2198e+06 -35010.4 433403
269 2 Si 47.197 4.12625 4.42287 2.4 -33.77 7.13778e+06 1.01021e+07 8.61879e+06 -62517 -559758 183522
270 3 O 43.9462 4.15703 4.47336 -1.2 -9.00439 -2.97206e+06 -4.30802e+06 -3.11431e+06 814939 -137988 -227937
271 3 O 46.0721 0.48749 4.39053 -1.2 -8.51159 -2.82081e+06 -3.54065e+06 -3.56545e+06 1.18467e+06 -239493 169266
272 3 O 46.541 3.39456 3.1654 -1.2 -8.46692 -3.57959e+06 -4.09519e+06 -2.02123e+06 -65537 1.23748e+06 -1109.07
273 1 Mg 45.1098 4.90196 -0.0571957 1.2 -8.18528 -152807 3.45044e+06 -36438.5 512577 1.72523e+06 -1.78175e+06
274 3 O 46.4425 3.41768 5.71809 -1.2 -8.87677 -3.34666e+06 -3.5206e+06 -2.95055e+06 945109 -1.5654e+06 35015.1
275 1 Mg 45.1391 7.87627 1.31682 1.2 -8.77956 2.87778e+06 -4068.39 2.36154e+06 -1.44835e+06 657704 512237