ITEM: TIMESTEP
2400
ITEM: NUMBER OF ATOMS
38213
ITEM: BOX BOUNDS pp pp pp
0.0000000000000000e+00 7.1234999999999999e+01
0.0000000000000000e+00 7.1389499999999998e+01
0.0000000000000000e+00 7.7729600000000005e+01
ITEM: ATOMS id type element xu yu zu q c_pe c_s[1] c_s[2] c_s[3] c_s[4] c_s[5] c_s[6]
1 1 Mg -0.0619376 0.232907 -0.192828 1.2 -8.44964 -860664 3.57279e+06 224175 -495298 -1.70191e+06 -1.73007e+06
2 1 Mg 4.75992 2.91245 1.41655 1.2 -8.69904 2.43977e+06 1.2614e+06 2.7256e+06 1.25034e+06 -303516 753214
3 2 Si 2.04298 0.976533 1.36131 2.4 -34.664 4.01345e+06 1.16534e+07 7.85197e+06 1.88351e+06 -561642 334136
4 3 O 3.52607 0.872735 1.43264 -1.2 -9.1205 -5.32705e+06 -5.03321e+06 -3.49717e+06 -1.01498e+06 354924 114799
5 3 O 1.01883 4.6034 1.50299 -1.2 -8.65984 -3.44796e+06 -6.10152e+06 -3.14166e+06 -2.81957e+06 -138239 101309
6 3 O 1.29799 1.6929 0.145032 -1.2 -8.46432 -2.97424e+06 -5.99234e+06 -4.00473e+06 -904285 1.39562e+06 1.08871e+06
7 1 Mg 0.0314542 0.0568284 2.87304 1.2 -8.69596 -2.03256e+06 3.4401e+06 -916674 -394688 1.03951e+06 2.85189e+06
8 3 O 1.3337 1.60771 2.65985 -1.2 -8.36601 -4.19764e+06 -5.94829e+06 -4.52464e+06 -1.05164e+06 -667622 -1.19661e+06
9 1 Mg -0.0158615 7.38022 4.31385 1.2 -8.82081 2.75e+06 -578911 2.72834e+06 850178 346527 -242405
10 2 Si 2.73801 9.21874 4.60649 2.4 -34.9617 6.94997e+06 1.08747e+07 7.65808e+06 1.26856e+06 922674 -728403
11 3 O 1.14769 9.32074 4.58504 -1.2 -8.77704 -1.90677e+06 -4.31129e+06 -3.97913e+06 -713679 977849 175091
12 3 O 3.68023 5.58781 4.50484 -1.2 -8.33861 -3.09063e+06 -4.48665e+06 -4.05531e+06 -1.50675e+06 -483518 49309.2
13 3 O 3.35585 8.58087 3.36256 -1.2 -8.40928 -4.59657e+06 -6.49866e+06 -3.36605e+06 -291093 -56202.4 -2.24967e+06
14 3 O 3.42921 8.64549 5.92629 -1.2 -8.31701 -4.70918e+06 -4.33712e+06 -3.05374e+06 154381 766988 854512
15 1 Mg 2.36987 5.03283 3.06095 1.2 -8.58058 -1.04796e+06 4.25925e+06 495884 1.05941e+06 -1.41295e+06 1.37878e+06
16 1 Mg 2.30251 2.22505 4.32442 1.2 -8.99937 1.70925e+06 403360 1.81407e+06 293825 300497 743461
17 2 Si 4.43287 4.09624 4.47545 2.4 -34.5565 7.35783e+06 1.07749e+07 8.81738e+06 478185 951867 -217145
18 3 O 1.30737 4.05844 4.57252 -1.2 -8.69598 -2.27402e+06 -5.07238e+06 -4.11616e+06 209361 368916 895528
19 3 O 3.33512 0.478429 4.51422 -1.2 -8.64065 -3.77403e+06 -6.25463e+06 -3.52487e+06 1.32812e+06 -1.12204e+06 206067
20 3 O 3.73222 3.46148 3.17286 -1.2 -8.59941 -2.65562e+06 -4.24021e+06 -2.97506e+06 334692 771143 -622239
21 1 Mg 2.33541 5.05198 -0.0393192 1.2 -8.58457 -1.06847e+06 4.2989e+06 385617 1.14926e+06 1.7873e+06 -1.13688e+06
22 3 O 3.8009 3.40386 5.71646 -1.2 -8.18634 -5.20002e+06 -4.5184e+06 -3.17551e+06 37821.5 -1.6846e+06 1.18135e+06
23 1 Mg 2.36083 8.00108 1.4751 1.2 -9.01106 1.35085e+06 1.09705e+06 3.4538e+06 -565640 501632 476726
24 2 Si 0.320075 6.09144 1.44152 2.4 -33.9905 6.86277e+06 1.01979e+07 8.45631e+06 -82425.2 745579 625133
25 3 O 3.46403 5.99402 1.54773 -1.2 -8.62841 -3.07617e+06 -3.49814e+06 -4.06843e+06 618348 -464070 -416834
26 3 O 1.30846 9.7539 1.53205 -1.2 -8.56958 -3.50564e+06 -5.23491e+06 -4.29553e+06 1.41599e+06 -163249 -1.23858e+06
27 3 O 1.0517 6.67268 0.160197 -1.2 -8.39853 -3.77452e+06 -4.20073e+06 -3.73528e+06 1657.24 -1.14593e+06 804878
28 3 O 1.04335 6.8177 2.71273 -1.2 -8.41774 -3.9061e+06 -3.17129e+06 -2.91564e+06 464772 1.72946e+06 -885405
29 1 Mg 4.6927 -0.0515205 0.0121974 1.2 -8.05324 420882 4.40253e+06 -220998 -266765 -976351 -1.32305e+06
30 1 Mg 9.43747 2.83568 1.41507 1.2 -8.47786 1.99307e+06 -416260 2.42246e+06 1.33273e+06 -369955 905713
31 2 Si 6.8365 1.01678 1.49221 2.4 -33.2475 6.57658e+06 1.08773e+07 7.55767e+06 514238 151958 -515430
32 3 O 8.37241 0.94904 1.43488 -1.2 -9.6817 -3.0367e+06 -4.12104e+06 -3.00722e+06 -751184 -294541 477195
33 3 O 5.80022 4.77597 1.40239 -1.2 -8.79724 -2.76214e+06 -3.45489e+06 -3.35439e+06 -993142 416947 -174093
34 3 O 6.09787 1.65138 0.184097 -1.2 -8.77133 -3.59686e+06 -2.89168e+06 -2.67244e+06 -471980 1.67906e+06 260210
35 1 Mg 4.7624 0.131194 2.93759 1.2 -8.05596 -431197 4.1693e+06 -194351 -965731 1.53722e+06 1.86419e+06
36 3 O 6.05067 1.74614 2.67563 -1.2 -9.18338 -2.61953e+06 -4.0388e+06 -3.24157e+06 -628319 -907814 -1.05338e+06
37 1 Mg 4.80729 7.45366 4.43947 1.2 -8.88976 1.58389e+06 922326 1.94795e+06 1.69846e+06 275787 455202
38 2 Si 7.391 9.33118 4.47331 2.4 -33.8162 7.37369e+06 1.06642e+07 6.46051e+06 865220 63004 385103
39 3 O 5.85807 9.43784 4.4986 -1.2 -9.09877 -4.45595e+06 -4.74378e+06 -3.57399e+06 -536474 -684922 254246
40 3 O 8.5717 5.67865 4.39379 -1.2 -8.88173 -3.60831e+06 -5.21145e+06 -2.89446e+06 -2.0552e+06 283278 520148
41 3 O 8.11926 8.63975 3.22341 -1.2 -9.06925 -3.60078e+06 -3.40714e+06 -3.67181e+06 -557887 -1.23198e+06 -502697
42 3 O 8.10298 8.58618 5.70822 -1.2 -8.76936 -4.48784e+06 -4.69089e+06 -3.56827e+06 -803147 1.47226e+06 772410
43 1 Mg 7.16244 5.14357 2.91002 1.2 -7.96873 592209 3.2235e+06 194391 891341 -1.03946e+06 1.64011e+06
44 1 Mg 7.02691 2.23768 4.43016 1.2 -8.43823 2.21623e+06 762350 1.73608e+06 -321060 422436 499904
45 2 Si 9.18022 4.1746 4.42143 2.4 -33.7504 7.08255e+06 8.7893e+06 7.80521e+06 481389 -101834 771540
46 3 O 5.98414 4.32386 4.41731 -1.2 -9.02646 -3.06736e+06 -3.01764e+06 -4.46058e+06 913284 -623622 12703.2
47 3 O 8.05527 0.462671 4.5016 -1.2 -9.23004 -2.65123e+06 -6.47847e+06 -3.00129e+06 129757 -173679 -1.52365e+06
48 3 O 8.47696 3.5009 3.16428 -1.2 -8.93817 -4.02022e+06 -2.39963e+06 -3.31326e+06 227985 908425 -1.14539e+06
49 1 Mg 7.15561 5.27438 -0.03214 1.2 -7.89725 159059 3.98242e+06 -1.28555e+06 825319 1.45384e+06 -1.06873e+06
50 3 O 8.43201 3.58037 5.68905 -1.2 -8.64611 -4.59248e+06 -3.54049e+06 -3.56895e+06 -53157 -873911 1.04225e+06
51 1 Mg 7.15484 7.95582 1.52806 1.2 -8.5027 2.73405e+06 -675663 2.38162e+06 -797554 183360 171740
52 2 Si 5.00542 6.25045 1.42223 2.4 -34.3405 7.03127e+06 1.08128e+07 9.1073e+06 160763 -734194 -143776
53 3 O 8.27709 6.14862 1.43076 -1.2 -9.45425 -3.27403e+06 -4.01339e+06 -4.02371e+06 -160764 -99414.6 261069
54 3 O 6.04543 9.7184 1.50769 -1.2 -8.9679 -2.00692e+06 -5.57915e+06 -3.34149e+06 888401 88310.6 123998
55 3 O 5.66379 6.91438 0.121505 -1.2 -8.55858 -3.38906e+06 -4.94744e+06 -2.82317e+06 -251298 -1.32898e+06 582653
56 3 O 5.6403 6.95743 2.6731 -1.2 -8.73553 -3.6556e+06 -4.00681e+06 -3.27377e+06 -329276 590079 -653320
57 1 Mg 9.48651 -0.00456951 -0.0449855 1.2 -7.6986 -674404 3.94811e+06 51314.8 -837787 -1.60961e+06 -1.85607e+06
58 1 Mg 14.2842 2.86468 1.42152 1.2 -8.74451 1.75631e+06 -140884 3.06567e+06 881953 75015.3 704506
59 2 Si 11.5526 1.06986 1.42228 2.4 -32.6752 8.46237e+06 1.00827e+07 7.52426e+06 1.04121e+06 -1.00295e+06 203494
60 3 O 13.1554 0.99196 1.29818 -1.2 -9.51438 -700414 -3.8542e+06 -4.19961e+06 -424744 -306264 109644
61 3 O 10.4432 4.68832 1.46677 -1.2 -9.17932 -4.46638e+06 -4.47917e+06 -3.17343e+06 -1.34531e+06 488899 168909
62 3 O 10.9143 1.81282 0.153103 -1.2 -9.01155 -5.20165e+06 -2.35332e+06 -3.70254e+06 -410775 1.03453e+06 -2215.54
63 1 Mg 9.58604 0.0677706 2.99725 1.2 -7.63859 -548307 3.86988e+06 -727878 -399639 919761 1.82818e+06
64 3 O 10.8264 1.73983 2.71249 -1.2 -9.39599 -2.63531e+06 -3.84501e+06 -1.87162e+06 -1.23152e+06 -1.25974e+06 -1.29392e+06
65 1 Mg 9.48785 7.51518 4.36706 1.2 -8.64501 2.37059e+06 -344991 1.49554e+06 1.07409e+06 786691 -245534
66 2 Si 12.1282 9.32235 4.41008 2.4 -33.7536 5.39022e+06 1.17661e+07 7.34245e+06 -733149 -631424 -215121
67 3 O 10.6132 9.34941 4.4473 -1.2 -9.41306 -5.11896e+06 -5.25747e+06 -3.35366e+06 -879259 -916296 664322
68 3 O 13.1677 5.66463 4.53158 -1.2 -8.54031 -3.65402e+06 -5.31353e+06 -4.55911e+06 -1.42642e+06 1.15808e+06 863987
69 3 O 12.9484 8.58532 3.2365 -1.2 -8.85169 -3.206e+06 -4.14812e+06 -2.65648e+06 46973.1 -694663 -720228
70 3 O 12.8664 8.66394 5.77659 -1.2 -8.68202 -4.20639e+06 -3.64403e+06 -1.31724e+06 -1.24007e+06 2.08511e+06 -716837
71 1 Mg 11.7947 5.12722 3.08217 1.2 -7.9389 -192193 3.36201e+06 -62907 980560 -1.44357e+06 2.20073e+06
72 1 Mg 11.7671 2.25927 4.43352 1.2 -8.32819 2.7715e+06 175944 2.10258e+06 -747514 -155949 24439.2
73 2 Si 13.888 4.16921 4.45938 2.4 -34.4057 5.00525e+06 1.00955e+07 7.3237e+06 197489 -1.13955e+06 -174492
74 3 O 10.7196 4.15296 4.45252 -1.2 -9.39455 -5.05412e+06 -3.39356e+06 -4.69984e+06 105848 170722 -7516.88
75 3 O 13.0177 0.463565 4.43731 -1.2 -9.31383 -1.12445e+06 -4.19197e+06 -2.31573e+06 1.43829e+06 -41938.2 515680
76 3 O 13.2286 3.50908 3.246 -1.2 -8.72378 -3.82994e+06 -3.07808e+06 -4.97326e+06 -331601 -128431 -1.02432e+06
77 1 Mg 11.7621 5.07861 0.0115671 1.2 -7.99293 69524.2 3.40154e+06 -62266.1 1.05622e+06 1.50329e+06 -1.52879e+06
78 3 O 13.1795 3.52982 5.73123 -1.2 -8.53467 -4.47631e+06 -4.20775e+06 -3.66023e+06 12275.9 10102 597380
79 1 Mg 11.9952 8.02225 1.53981 1.2 -8.22002 2.71646e+06 704122 2.48924e+06 -673518 -300797 169700
80 2 Si 9.84275 6.17267 1.49873 2.4 -33.3526 7.3748e+06 8.55712e+06 7.85797e+06 274310 -184198 475085
81 3 O 13.0035 5.9414 1.48711 -1.2 -9.16978 -2.2057e+06 -3.16901e+06 -3.58582e+06 -154966 -817539 -189328
82 3 O 10.9189 9.81799 1.52936 -1.2 -9.24145 -3.22926e+06 -3.76942e+06 -2.23691e+06 601649 175462 143853
83 3 O 10.5306 6.84661 0.218654 -1.2 -9.03227 -4.73782e+06 -2.95206e+06 -2.37383e+06 297298 -484362 355359
84 3 O 10.4572 6.83444 2.80201 -1.2 -9.07364 -4.5299e+06 -2.64573e+06 -3.56412e+06 -98058.3 1.17958e+06 -976492
85 1 Mg 14.2507 0.0190155 -0.0328961 1.2 -8.04849 -2.15394e+06 4.15585e+06 -1.49719e+06 -901301 -1.07273e+06 -1.8511e+06
86 1 Mg 18.8198 2.84469 1.45956 1.2 -8.61698 1.61698e+06 1.4022e+06 2.71416e+06 886706 -31253.9 -222421
87 2 Si 16.294 0.955146 1.38195 2.4 -33.7064 4.71778e+06 1.11558e+07 9.23262e+06 -2399.74 1.16563e+06 389656
88 3 O 17.8358 0.905568 1.46703 -1.2 -9.10696 -2.18793e+06 -4.36903e+06 -5.69769e+06 495254 217943 -516775
89 3 O 15.3226 4.56911 1.4472 -1.2 -8.31077 -3.02191e+06 -4.57476e+06 -4.1617e+06 -2.32075e+06 327054 -478422
90 3 O 15.637 1.62431 0.134921 -1.2 -8.78509 -4.67411e+06 -4.35732e+06 -3.23361e+06 -306785 316068 69033.3
91 1 Mg 14.2731 -0.00432419 2.88371 1.2 -7.7554 -1.21844e+06 4.455e+06 -277511 -421187 1.50832e+06 1.45386e+06
92 3 O 15.6455 1.61807 2.70666 -1.2 -8.75828 -3.97985e+06 -3.46085e+06 -2.24922e+06 397964 -1.16169e+06 -27530.5
93 1 Mg 14.294 7.39976 4.64466 1.2 -8.89767 2.42404e+06 575907 2.32901e+06 511686 -736777 851864
94 2 Si 16.8842 9.19888 4.49143 2.4 -34.4722 4.64742e+06 1.13595e+07 9.03049e+06 999391 151387 1.96701e+06
95 3 O 15.3771 9.24736 4.5347 -1.2 -9.25522 -4.6742e+06 -3.95064e+06 -3.61853e+06 -1.03493e+06 -240699 -1.30272e+06
96 3 O 17.9398 5.62835 4.50512 -1.2 -8.51504 -3.29411e+06 -4.58367e+06 -3.07481e+06 -720332 -6269.13 -469117
97 3 O 17.5641 8.54521 3.19867 -1.2 -8.40189 -2.70353e+06 -4.00552e+06 -3.57205e+06 -478694 -907379 -608359
98 3 O 17.6795 8.54662 5.73565 -1.2 -8.42891 -2.79578e+06 -5.32981e+06 -3.3165e+06 -837633 1.09694e+06 707620
99 1 Mg 16.6286 5.08187 3.0267 1.2 -8.53571 -560012 4.08504e+06 474551 846937 -1.31001e+06 1.74737e+06
100 1 Mg 16.5132 2.21636 4.44692 1.2 -8.84233 1.97033e+06 1.38912e+06 1.86738e+06 -944911 -148506 550425
101 2 Si 18.6704 4.14077 4.51147 2.4 -34.3187 3.52073e+06 1.21928e+07 7.589e+06 443153 -313238 -346337
102 3 O 15.3954 4.23385 4.47657 -1.2 -8.87868 -4.60767e+06 -4.30285e+06 -3.8039e+06 -66279.4 -99500.5 416533
103 3 O 17.6004 0.400298 4.208 -1.2 -8.64341 -2.47555e+06 -6.50423e+06 -4.10792e+06 1.51937e+06 583770 1.13657e+06
104 3 O 18.0591 3.4477 3.24575 -1.2 -8.40253 -3.32258e+06 -4.87892e+06 -4.14417e+06 -49787.3 484357 -481636
105 1 Mg 16.6443 5.11604 0.0187118 1.2 -8.63888 -1.18821e+06 3.30422e+06 493538 1.28073e+06 1.11596e+06 -1.55862e+06
106 3 O 17.8595 3.39409 5.71088 -1.2 -8.59425 -2.9788e+06 -2.72558e+06 -3.09357e+06 288965 -880833 470228
107 1 Mg 16.7443 7.94614 1.41694 1.2 -8.86786 1.49247e+06 920271 1.96857e+06 -129778 522947 636969
108 2 Si 14.5558 6.10191 1.5176 2.4 -34.4108 6.90454e+06 1.03709e+07 8.22134e+06 -120667 -1.11547e+06 -161055
109 3 O 17.7587 5.96935 1.53992 -1.2 -8.86939 -3.79635e+06 -4.37407e+06 -4.26975e+06 -161212 72389.6 -429655
110 3 O 15.6051 9.71444 1.51281 -1.2 -8.99404 -3.78673e+06 -4.15112e+06 -2.37638e+06 727776 -29297 591534
111 3 O 15.3129 6.74256 0.224602 -1.2 -8.52574 -3.0081e+06 -4.16685e+06 -3.18846e+06 830177 -1.49848e+06 759955
112 3 O 15.1547 6.65247 2.77143 -1.2 -8.35931 -4.24445e+06 -4.67467e+06 -4.72022e+06 -361398 176501 -1.72238e+06
113 1 Mg 19.0088 0.0174688 -0.00221878 1.2 -8.09247 -1.94331e+06 4.13715e+06 -961576 -989812 -1.70611e+06 -1.86134e+06
114 1 Mg 23.7928 2.90827 1.52171 1.2 -8.76292 1.77503e+06 536022 3.16817e+06 999429 -71534.9 -36466.7
115 2 Si 20.9727 0.999179 1.46533 2.4 -33.7156 5.65863e+06 1.0821e+07 8.72319e+06 298866 -704821 709631
116 3 O 22.5141 0.899387 1.47073 -1.2 -9.08214 -2.84317e+06 -4.43179e+06 -3.63081e+06 -714693 -99010.5 15462.3
117 3 O 19.9867 4.67115 1.51543 -1.2 -8.57525 -3.87073e+06 -8.01594e+06 -4.62539e+06 -570472 213868 925302
118 3 O 20.3725 1.71607 0.195799 -1.2 -9.04858 -3.12048e+06 -4.15704e+06 -1.65934e+06 -83184.1 113520 649061
119 1 Mg 19.0578 -0.0652101 2.94738 1.2 -8.31147 -2.12308e+06 4.4337e+06 -1.3915e+06 -1.37051e+06 2.03559e+06 1.98792e+06
120 3 O 20.3059 1.60268 2.8626 -1.2 -8.64735 -4.02105e+06 -3.61749e+06 -438718 -371968 -935209 166258
121 1 Mg 19.0638 7.41644 4.54716 1.2 -8.88139 2.08367e+06 828420 3.19654e+06 650929 -30667.3 426907
122 2 Si 21.6396 9.16137 4.54772 2.4 -34.2423 6.033e+06 1.1273e+07 1.01812e+07 899775 424939 805036
123 3 O 20.1013 9.27328 4.5562 -1.2 -9.22171 -4.06782e+06 -4.36945e+06 -4.3199e+06 -1.30391e+06 707321 -686682
124 3 O 22.7199 5.5953 4.39488 -1.2 -8.71236 -4.15284e+06 -7.05634e+06 -3.60907e+06 184043 -555869 -118721
125 3 O 22.3823 8.53391 3.23196 -1.2 -8.55509 -2.93625e+06 -4.46966e+06 -1.06581e+06 -613641 -1.7531e+06 -760738
126 3 O 22.4086 8.60582 5.85082 -1.2 -8.61881 -2.78856e+06 -4.74084e+06 -2.83343e+06 -484516 1.6185e+06 925791
127 1 Mg 21.38 5.07623 2.9838 1.2 -8.25085 -834370 3.94618e+06 -132044 890793 -1.79595e+06 1.58874e+06
128 1 Mg 21.2729 2.37809 4.46019 1.2 -8.71642 1.9877e+06 516594 2.58231e+06 -758872 186743 210297
129 2 Si 23.3773 4.19249 4.47704 2.4 -34.3614 4.511e+06 1.01446e+07 8.4873e+06 1.19115e+06 624505 98681.7
130 3 O 20.1365 4.31836 4.51793 -1.2 -9.18918 -5.87843e+06 -5.36673e+06 -4.5083e+06 -211324 -1.40363e+06 -159486
131 3 O 22.4059 0.55504 4.49295 -1.2 -8.8586 -2.48664e+06 -6.40414e+06 -3.89304e+06 979790 -607583 778522
132 3 O 22.7064 3.44102 3.2344 -1.2 -8.64796 -2.36836e+06 -5.05324e+06 -3.50597e+06 110298 164752 -749198
133 1 Mg 21.3303 5.09698 0.0309987 1.2 -8.35695 -210646 3.46748e+06 18621.4 496741 1.19792e+06 -1.90909e+06
134 3 O 22.6857 3.47048 5.73147 -1.2 -8.58094 -3.65964e+06 -4.23893e+06 -3.7056e+06 -759301 -931970 405465
135 1 Mg 21.4286 7.91816 1.42409 1.2 -8.86659 1.8887e+06 1.14213e+06 2.91492e+06 -507051 484248 649460
136 2 Si 19.3163 6.06431 1.52899 2.4 -34.6902 5.77123e+06 8.55232e+06 8.71864e+06 1.3867e+06 78797.9 886016
137 3 O 22.5008 5.97039 1.43836 -1.2 -8.99451 -2.4066e+06 -3.87518e+06 -4.33914e+06 460137 -77924.1 -321078
138 3 O 20.3715 9.74815 1.51126 -1.2 -8.57966 -3.37954e+06 -3.57889e+06 -3.39148e+06 811027 -1.00081e+06 267305
139 3 O 19.9858 6.69206 0.247171 -1.2 -8.34081 -3.22378e+06 -5.07389e+06 -5.82028e+06 -15095.6 -1.21324e+06 1.15478e+06
140 3 O 20.0229 6.79688 2.75175 -1.2 -8.34502 -3.08474e+06 -4.1121e+06 -3.46368e+06 -210436 386155 -972481
141 1 Mg 23.715 -0.0183443 0.0618456 1.2 -8.14503 -1.14502e+06 4.24366e+06 285684 -807851 -1.30681e+06 -1.56778e+06
142 1 Mg 28.4068 2.84468 1.6298 1.2 -8.71544 1.51484e+06 1.00503e+06 2.58414e+06 962678 814756 -647303
143 2 Si 25.8114 0.994915 1.49786 2.4 -33.8535 5.69045e+06 1.12681e+07 8.81453e+06 879977 -385888 -336444
144 3 O 27.3401 0.996698 1.48944 -1.2 -9.28992 -2.26578e+06 -4.58323e+06 -4.70106e+06 513168 409492 284619
145 3 O 24.8097 4.65927 1.46901 -1.2 -8.64995 -3.453e+06 -6.04665e+06 -4.87093e+06 -1.51197e+06 -364361 -215699
146 3 O 25.0403 1.58969 0.229488 -1.2 -8.77724 -3.3818e+06 -3.5397e+06 -3.55283e+06 -377088 1.12486e+06 419795
147 1 Mg 23.7586 0.137548 3.00249 1.2 -8.19883 -1.25744e+06 4.34423e+06 -334892 -965862 2.07414e+06 1.224e+06
148 3 O 25.04 1.69939 2.72144 -1.2 -8.59286 -3.68319e+06 -4.93884e+06 -3.27733e+06 -451619 -1.39615e+06 -626498
149 1 Mg 23.7837 7.38653 4.40454 1.2 -8.8403 1.59829e+06 1.3403e+06 2.59958e+06 944407 375025 107072
150 2 Si 26.4228 9.19702 4.49483 2.4 -34.4108 5.43184e+06 1.19725e+07 8.32144e+06 958504 1.19671e+06 217941
151 3 O 24.8869 9.31117 4.45129 -1.2 -8.88193 -2.65384e+06 -4.29486e+06 -3.97268e+06 -438527 103854 -21527.8
152 3 O 27.4775 5.62523 4.4405 -1.2 -8.84329 -3.21597e+06 -4.62648e+06 -4.16051e+06 -1.25983e+06 116702 -301568
153 3 O 27.0906 8.5297 3.27471 -1.2 -8.69635 -3.8935e+06 -4.51487e+06 -3.98666e+06 166155 -309190 -1.57526e+06
154 3 O 27.1372 8.58956 5.79759 -1.2 -8.50509 -3.15748e+06 -5.02155e+06 -3.21778e+06 -775416 697820 -177804
155 1 Mg 26.1335 5.13177 2.96646 1.2 -8.35384 -1.00505e+06 3.85448e+06 295551 920682 -1.93948e+06 1.74604e+06
156 1 Mg 26.0331 2.42793 4.50993 1.2 -8.76003 931146 819089 4.1613e+06 -1.21726e+06 219528 587107
157 2 Si 28.143 4.13314 4.46429 2.4 -33.7309 6.97429e+06 1.08421e+07 1.00893e+07 15217.7 -871834 -508570
158 3 O 24.9151 4.29032 4.46185 -1.2 -8.90221 -2.82469e+06 -4.43974e+06 -4.87083e+06 545040 21513.5 -252576
159 3 O 27.0238 0.633746 4.40588 -1.2 -8.68671 -2.12968e+06 -1.97338e+06 -2.57347e+06 1.59798e+06 -92672.6 13005.2
160 3 O 27.3869 3.44139 3.21622 -1.2 -8.90878 -3.28882e+06 -4.72066e+06 -2.83906e+06 32309.2 1.1329e+06 -520587
161 1 Mg 26.1757 5.08205 0.024556 1.2 -8.54886 -923507 3.90893e+06 -368093 589059 1.28004e+06 -1.32737e+06
162 3 O 27.493 3.51154 5.82958 -1.2 -8.5628 -3.17859e+06 -3.71771e+06 -1.87667e+06 -82703.4 -1.46435e+06 -127855
163 1 Mg 26.1195 8.00795 1.50455 1.2 -8.84316 1.66845e+06 1.17422e+06 3.26355e+06 -956184 -127865 579690
164 2 Si 24.0805 6.11083 1.43976 2.4 -34.3068 7.08592e+06 9.75711e+06 9.72124e+06 -320399 -13548.9 326935
165 3 O 27.2365 6.05065 1.4413 -1.2 -8.82914 -3.45164e+06 -4.52113e+06 -4.79051e+06 871724 -97532.3 -670843
166 3 O 25.0748 9.78999 1.53108 -1.2 -8.51903 -1.99574e+06 -3.73653e+06 -4.01347e+06 1.62494e+06 253413 -1.23688e+06
167 3 O 24.7187 6.70702 0.10471 -1.2 -8.37492 -4.08654e+06 -4.22028e+06 -2.20403e+06 282664 -1.36729e+06 611958
168 3 O 24.7418 6.78778 2.72131 -1.2 -8.64369 -3.29045e+06 -4.69138e+06 -2.79127e+06 323577 996312 -1.32062e+06
169 1 Mg 28.5028 0.0662391 -0.105696 1.2 -8.4656 -1.80853e+06 4.53106e+06 -176542 -1.28518e+06 -1.60585e+06 -1.82323e+06
170 1 Mg 33.2783 2.90579 1.39164 1.2 -8.84235 2.41244e+06 369272 1.68904e+06 958122 -98704.6 -20564.4
171 2 Si 30.5128 1.07755 1.38787 2.4 -34.4155 6.39574e+06 1.22395e+07 8.98868e+06 314165 1.09654e+06 364029
172 3 O 32.0859 0.843522 1.43606 -1.2 -8.65927 -1.77816e+06 -5.56377e+06 -4.14218e+06 -661395 326752 -1.02415e+06
173 3 O 29.3888 4.68367 1.35907 -1.2 -8.40152 -3.21281e+06 -5.59555e+06 -4.14356e+06 -446405 -518413 -61645.2
174 3 O 29.8581 1.64347 0.0747556 -1.2 -8.69287 -3.49528e+06 -5.45977e+06 -2.83519e+06 -115589 758616 934924
175 1 Mg 28.4543 0.035615 2.93904 1.2 -8.2501 -314167 3.81591e+06 493918 -740958 793250 2.03459e+06
176 3 O 29.9431 1.75456 2.72137 -1.2 -8.67967 -3.34536e+06 -4.72552e+06 -1.79134e+06 -310704 -804243 -1.02331e+06
177 1 Mg 28.4932 7.41321 4.42005 1.2 -8.83213 1.27909e+06 695304 3.06378e+06 732371 -244342 750066
178 2 Si 31.1684 9.18759 4.52795 2.4 -34.0195 5.31254e+06 1.22863e+07 9.4366e+06 6034.66 -1.23094e+06 1.21405e+06
179 3 O 29.6254 9.28933 4.46722 -1.2 -9.06802 -1.98436e+06 -4.83404e+06 -4.21253e+06 -596588 391652 -425106
180 3 O 32.2054 5.62489 4.2709 -1.2 -8.43656 -1.62057e+06 -4.54201e+06 -3.18879e+06 -1.38701e+06 -78781.3 -524207
181 3 O 31.9245 8.51621 3.22421 -1.2 -8.51299 -3.01511e+06 -5.35896e+06 -1.60589e+06 -341513 -765233 -1.29301e+06
182 3 O 31.893 8.54065 5.79637 -1.2 -9.06057 -2.58629e+06 -4.142e+06 -3.32783e+06 -46712.3 1.19397e+06 -278852
183 1 Mg 30.8611 5.09398 2.8079 1.2 -8.54238 -364341 4.22301e+06 430318 595482 -1.12136e+06 1.62008e+06
184 1 Mg 30.8359 2.37687 4.4157 1.2 -8.92552 1.46153e+06 505873 3.28121e+06 -943831 -417098 44048.6
185 2 Si 32.9813 4.10649 4.36713 2.4 -34.1903 4.39416e+06 1.14151e+07 8.65458e+06 -1.36001e+06 37840.6 -119434
186 3 O 29.7152 4.20986 4.29019 -1.2 -9.068 -863178 -4.42681e+06 -3.54731e+06 757791 61760.3 -408522
187 3 O 31.9719 0.633503 4.41633 -1.2 -8.62969 -2.01223e+06 -5.75034e+06 -4.84056e+06 1.06558e+06 -422154 324221
188 3 O 32.2845 3.48865 3.0849 -1.2 -8.33722 -3.41894e+06 -5.75528e+06 -3.11531e+06 197194 607632 -1.16719e+06
189 1 Mg 30.915 5.1674 -0.106826 1.2 -8.64633 -1.32606e+06 4.13798e+06 -329085 788584 1.47501e+06 -1.71795e+06
190 3 O 32.301 3.44813 5.64702 -1.2 -8.63654 -2.36671e+06 -3.4481e+06 -3.17131e+06 -106464 -13026.8 -22521.2
191 1 Mg 30.8222 7.9259 1.53864 1.2 -8.82773 1.73232e+06 900538 3.68136e+06 -1.59691e+06 167438 386029
192 2 Si 28.7886 6.17449 1.3913 2.4 -34.6459 5.48825e+06 1.02542e+07 9.68513e+06 -238204 -324336 598766
193 3 O 32.0329 6.03261 1.34395 -1.2 -8.85178 -1.28151e+06 -4.51262e+06 -5.23369e+06 -86863.1 -798262 -118663
194 3 O 29.7498 9.78677 1.48555 -1.2 -8.56279 -1.82708e+06 -6.16202e+06 -5.13364e+06 1.46443e+06 -187922 -338961
195 3 O 29.5302 6.78368 0.110184 -1.2 -8.18614 -3.5522e+06 -5.46965e+06 -3.7827e+06 -210993 -1.31021e+06 851080
196 3 O 29.504 6.83735 2.63504 -1.2 -8.66467 -3.09339e+06 -4.30919e+06 -3.81565e+06 -104202 543323 -928001
197 1 Mg 33.2109 0.199742 -0.131284 1.2 -8.28765 -269680 3.61258e+06 252088 -903816 -1.54674e+06 -1.44169e+06
198 1 Mg 37.937 2.71357 1.40854 1.2 -8.84702 2.56786e+06 430882 2.63398e+06 241528 147539 738621
199 2 Si 35.3245 1.05963 1.40557 2.4 -34.2021 6.43288e+06 1.15658e+07 7.07465e+06 468683 -992905 917765
200 3 O 36.875 0.912658 1.3463 -1.2 -9.24659 -3.20853e+06 -5.17661e+06 -3.66779e+06 -441745 456449 -953002
201 3 O 34.3632 4.65386 1.43457 -1.2 -8.77417 -3.82173e+06 -5.13e+06 -3.23488e+06 -840629 -173589 382436
202 3 O 34.6095 1.74854 0.195631 -1.2 -8.82633 -3.38414e+06 -4.43375e+06 -3.95254e+06 -281636 698350 406985
203 1 Mg 33.2533 -0.100631 2.85068 1.2 -8.43333 -723635 3.5032e+06 187952 -1.17968e+06 1.94249e+06 1.66827e+06
204 3 O 34.7055 1.74661 2.687 -1.2 -8.51493 -3.71196e+06 -4.15245e+06 -3.5061e+06 -787882 -745276 -841897
205 1 Mg 33.2946 7.49323 4.42508 1.2 -8.59845 850951 796777 3.18928e+06 986387 27102.7 313710
206 2 Si 35.8905 9.19585 4.43239 2.4 -33.4134 4.95111e+06 1.06955e+07 1.00752e+07 -785614 281223 21547.7
207 3 O 34.3634 9.35312 4.3383 -1.2 -9.37714 -3.88115e+06 -4.79306e+06 -4.61613e+06 -116090 -464940 -963969
208 3 O 37.0002 5.58315 4.47072 -1.2 -8.64695 -3.03733e+06 -6.35077e+06 -4.79795e+06 -728598 360805 247767
209 3 O 36.622 8.59396 3.1684 -1.2 -8.92491 -3.61657e+06 -4.80815e+06 -2.11116e+06 556748 -595016 -1.3697e+06
210 3 O 36.5153 8.60422 5.79632 -1.2 -8.97801 -2.23995e+06 -3.36693e+06 -2.7704e+06 242166 1.41563e+06 -94497.4
211 1 Mg 35.5398 5.16986 2.9657 1.2 -8.21897 -319192 4.00967e+06 -513966 385352 -1.59151e+06 1.82468e+06
212 1 Mg 35.5441 2.21764 4.40925 1.2 -8.55284 2.01117e+06 486078 1.40346e+06 -185956 176112 -139715
213 2 Si 37.677 4.13387 4.38746 2.4 -34.5034 4.27688e+06 8.21867e+06 9.67813e+06 -376654 -243837 491292
214 3 O 34.4697 4.20224 4.36877 -1.2 -9.29119 -6.18109e+06 -3.46674e+06 -4.29966e+06 148935 522346 -581625
215 3 O 36.6698 0.499776 4.44357 -1.2 -9.24838 -3.90365e+06 -4.32769e+06 -2.95488e+06 1.16629e+06 -349714 -396494
216 3 O 36.9497 3.51836 3.13048 -1.2 -8.30131 -5.15339e+06 -3.11258e+06 -3.2683e+06 -778492 519852 -964708
217 1 Mg 35.5623 5.23319 -0.155108 1.2 -8.09664 -1.59427e+06 3.37458e+06 182430 951544 2.28453e+06 -1.8695e+06
218 3 O 37.0311 3.5296 5.71561 -1.2 -8.5871 -3.30055e+06 -4.54132e+06 -3.9064e+06 248662 -937038 1.32322e+06
219 1 Mg 35.7049 7.95199 1.45006 1.2 -8.68293 2.65206e+06 600778 1.69583e+06 -1.34368e+06 -142151 -53501.9
220 2 Si 33.6215 6.1338 1.39528 2.4 -33.9672 7.25893e+06 1.11215e+07 6.29832e+06 -1.29738e+06 190436 388385
221 3 O 36.8299 6.15057 1.44206 -1.2 -9.05881 -3.77978e+06 -4.92715e+06 -3.16203e+06 421944 -266907 107914
222 3 O 34.5368 9.70639 1.43363 -1.2 -8.61338 -3.28623e+06 -5.28873e+06 -4.62344e+06 467093 84833.8 920510
223 3 O 34.2545 6.73299 0.113709 -1.2 -8.97231 -5.09055e+06 -5.05478e+06 -4.88647e+06 874225 -797946 1.0523e+06
224 3 O 34.2352 6.85138 2.64387 -1.2 -8.7783 -4.31709e+06 -4.45796e+06 -2.48625e+06 592764 864169 -673925
225 1 Mg 37.9868 0.0767102 -0.097052 1.2 -8.43735 -482496 3.33809e+06 -585916 -996984 -1.11912e+06 -1.88246e+06
226 1 Mg 42.6167 2.76829 1.5427 1.2 -8.83251 2.8699e+06 432818 2.38925e+06 367703 -69454.1 -294731
227 2 Si 40.0968 0.939919 1.39973 2.4 -34.1935 5.99368e+06 1.06289e+07 8.7101e+06 919547 500572 760495
228 3 O 41.6458 0.913432 1.44561 -1.2 -9.21482 -3.37051e+06 -3.79507e+06 -3.99795e+06 -637325 501380 523468
229 3 O 38.937 4.52172 1.51552 -1.2 -8.35177 -4.01851e+06 -3.20371e+06 -3.03901e+06 -1.36524e+06 210091 428811
230 3 O 39.3615 1.5842 0.142436 -1.2 -8.7256 -3.75376e+06 -4.94972e+06 -3.28091e+06 -1.16648e+06 837924 357541
231 1 Mg 37.9975 0.0232255 2.94677 1.2 -8.09368 109763 3.83453e+06 467131 -124550 1.58588e+06 1.92136e+06
232 3 O 39.4128 1.63634 2.69294 -1.2 -8.51462 -3.31941e+06 -4.59147e+06 -2.91312e+06 -308502 -1.55436e+06 -426524
233 1 Mg 38.039 7.39169 4.43833 1.2 -8.54402 1.53859e+06 385093 3.14384e+06 174560 -86604.6 12364.2
234 2 Si 40.7148 9.1232 4.4536 2.4 -32.8225 7.21563e+06 9.92121e+06 9.28457e+06 124855 -1.91361e+06 -609745
235 3 O 39.1336 9.16902 4.48352 -1.2 -9.50657 -461574 -3.39443e+06 -4.82491e+06 31800 -58959 -138395
236 3 O 41.6537 5.5589 4.4656 -1.2 -8.64295 -3.30661e+06 -5.53851e+06 -4.69059e+06 -1.0218e+06 -295309 -408710
237 3 O 41.4542 8.47423 3.16674 -1.2 -8.9341 -4.21804e+06 -3.84561e+06 -1.57668e+06 -47666.8 -1.21127e+06 -333448
238 3 O 41.3616 8.55802 5.76722 -1.2 -9.29721 -4.8096e+06 -3.04246e+06 -3.21727e+06 -84581.2 1.16506e+06 142651
239 1 Mg 40.3079 5.10616 3.05048 1.2 -8.52835 -599404 2.87983e+06 -461998 1.02711e+06 -1.71738e+06 2.01503e+06
240 1 Mg 40.2098 2.30552 4.41412 1.2 -8.92023 1.88295e+06 598162 2.587e+06 -751709 194.493 -337648
241 2 Si 42.3926 4.11125 4.43831 2.4 -34.187 7.03697e+06 8.80463e+06 8.74695e+06 -342338 488936 -908182
242 3 O 39.1697 4.14336 4.36749 -1.2 -9.03214 -7.2528e+06 -4.06041e+06 -5.67258e+06 499824 813030 75959.1
243 3 O 41.379 0.50473 4.36919 -1.2 -8.50651 -3.17292e+06 -2.59146e+06 -3.43305e+06 1.34317e+06 334717 653323
244 3 O 41.6607 3.51807 3.1627 -1.2 -8.41396 -4.00921e+06 -4.95013e+06 -4.05428e+06 -57602.6 962526 -475352
245 1 Mg 40.3536 4.97764 -0.084481 1.2 -8.42711 -323008 3.50027e+06 429153 1.13696e+06 1.12241e+06 -1.98564e+06
246 3 O 41.6515 3.45559 5.71084 -1.2 -8.66746 -3.41402e+06 -3.82056e+06 -2.83607e+06 391165 -929122 1.02866e+06
247 1 Mg 40.4582 7.81689 1.49957 1.2 -8.87919 1.98836e+06 708854 1.74059e+06 -1.42991e+06 -283983 101286
248 2 Si 38.3432 6.08076 1.45709 2.4 -34.1306 6.46906e+06 1.15777e+07 6.9379e+06 -668020 -697294 -344578
249 3 O 41.5457 5.91329 1.46474 -1.2 -8.65737 -2.37147e+06 -4.34211e+06 -3.58231e+06 1.22281e+06 -178974 908398
250 3 O 39.4101 9.59867 1.52671 -1.2 -8.91723 -3.33769e+06 -2.76526e+06 -2.09609e+06 1.38414e+06 752373 187383
251 3 O 39.1073 6.6691 0.196403 -1.2 -8.87299 -4.48109e+06 -3.76661e+06 -2.56666e+06 458096 -123319 870711
252 3 O 39.0096 6.70271 2.78056 -1.2 -8.73613 -4.0165e+06 -4.54519e+06 -2.39329e+06 534085 817348 -346000
253 1 Mg 42.7984 -0.0984323 -0.0888355 1.2 -7.83052 -646756 4.01347e+06 -858850 -1.16891e+06 -1.65953e+06 -1.36055e+06
254 1 Mg 47.3444 2.93253 1.57989 1.2 -8.77197 2.96458e+06 706686 811100 -347609 314391 -380439
255 2 Si 44.7552 0.911309 1.46761 2.4 -33.5312 7.70655e+06 1.06074e+07 6.05555e+06 -407949 732314 -943005
256 3 O 46.3426 0.89793 1.55085 -1.2 -9.30084 -2.62925e+06 -3.89337e+06 -4.10175e+06 898671 417035 1.01713e+06
257 3 O 43.7192 4.5418 1.49511 -1.2 -8.3761 -4.63578e+06 -5.01457e+06 -3.5419e+06 -162815 234024 700147
258 3 O 44.13 1.68219 0.259244 -1.2 -8.84096 -4.90471e+06 -3.57612e+06 -3.07979e+06 -97097.4 523456 932807
259 1 Mg 42.8199 -0.0170483 2.97898 1.2 -7.98942 -326733 2.72388e+06 -902529 -1.76089e+06 1.37378e+06 2.38073e+06
260 3 O 44.1193 1.48121 2.79623 -1.2 -8.93199 -5.01463e+06 -4.28114e+06 -3.86503e+06 -492843 -697663 223869
261 1 Mg 42.7643 7.40237 4.48757 1.2 -8.44948 1.90318e+06 216179 2.89784e+06 1.34089e+06 -556010 344955
262 2 Si 45.3782 9.16235 4.48246 2.4 -34.2492 6.78404e+06 9.89369e+06 9.64733e+06 -1.24459e+06 122079 -110416
263 3 O 43.8469 9.31792 4.41305 -1.2 -9.21491 -2.99899e+06 -3.68828e+06 -4.33935e+06 -268299 -75397.7 -257047
264 3 O 46.4183 5.6001 4.43352 -1.2 -8.64855 -3.23665e+06 -4.96966e+06 -3.48083e+06 -1.3664e+06 81512.5 -1.46147e+06
265 3 O 46.1161 8.53534 3.16099 -1.2 -8.39343 -3.73792e+06 -3.61386e+06 -3.34357e+06 36057.2 -1.79656e+06 -18941.6
266 3 O 46.0734 8.35433 5.66948 -1.2 -8.54619 -3.40427e+06 -3.48158e+06 -3.96558e+06 316983 796604 92656.6
267 1 Mg 45.052 5.10823 3.02659 1.2 -8.36886 -597458 2.8751e+06 -6706.6 1.04482e+06 -1.55466e+06 1.60722e+06
268 1 Mg 45.0648 2.24437 4.36826 1.2 -8.78041 2.25735e+06 439216 2.55044e+06 -1.54277e+06 -246237 -701191
269 2 Si 47.153 4.11931 4.4982 2.4 -33.7285 8.12378e+06 1.07304e+07 8.70388e+06 -801070 279558 -1.43115e+06
270 3 O 43.9215 4.18179 4.45154 -1.2 -9.18671 -4.49746e+06 -3.55671e+06 -4.41893e+06 581810 359847 663242
271 3 O 46.1374 0.426942 4.52739 -1.2 -8.68874 -4.15019e+06 -5.01038e+06 -3.80667e+06 1.82377e+06 -535478 35951.5
272 3 O 46.353 3.51395 3.15779 -1.2 -8.68554 -3.27662e+06 -4.06806e+06 -2.6903e+06 1.06979e+06 1.74968e+06 -677242
273 1 Mg 45.1018 4.95356 -0.0346475 1.2 -8.61429 -10105.2 3.2766e+06 208723 1.03373e+06 1.16672e+06 -2.12732e+06
274 3 O 46.4462 3.40796 5.7348 -1.2 -8.75366 -3.65436e+06 -3.30434e+06 -1.7842e+06 340034 -1.14456e+06 683962