ITEM: TIMESTEP
3400
ITEM: NUMBER OF ATOMS
38213
ITEM: BOX BOUNDS pp pp pp
0.0000000000000000e+00 7.1234999999999999e+01
0.0000000000000000e+00 7.1389499999999998e+01
0.0000000000000000e+00 7.7729600000000005e+01
ITEM: ATOMS id type element xu yu zu q c_pe c_s[1] c_s[2] c_s[3] c_s[4] c_s[5] c_s[6]
1 1 Mg 0.0457491 -0.0657107 -0.132981 1.2 -8.22445 -1.57086e+06 3.5646e+06 708469 -1.26886e+06 -1.64521e+06 -1.78651e+06
2 1 Mg 4.73715 2.94258 1.39209 1.2 -8.97385 2.09207e+06 -487651 2.60787e+06 422661 -67333.3 298345
3 2 Si 1.99968 1.07792 1.40703 2.4 -34.3432 8.78063e+06 9.47077e+06 8.4118e+06 358365 43427.1 -786578
4 3 O 3.5743 0.998768 1.42203 -1.2 -9.02848 -1.95509e+06 -3.89248e+06 -3.8585e+06 -620746 201070 366596
5 3 O 0.953797 4.67228 1.54405 -1.2 -8.28512 -3.81476e+06 -5.13133e+06 -3.9008e+06 -2.18495e+06 21137.5 834028
6 3 O 1.32102 1.7381 0.118595 -1.2 -8.39455 -4.19114e+06 -2.73503e+06 -3.74671e+06 -518136 1.39108e+06 887903
7 1 Mg 0.0204281 0.0309754 2.87535 1.2 -8.65264 -1.03205e+06 3.64818e+06 -1.29486e+06 -869566 1.83278e+06 1.64138e+06
8 3 O 1.26343 1.71009 2.65223 -1.2 -8.39155 -4.42561e+06 -4.88368e+06 -3.50355e+06 -714042 -835095 -908352
9 1 Mg 0.0547198 7.44275 4.35511 1.2 -8.35193 1.95962e+06 82634.1 2.39566e+06 1.24648e+06 68427.7 -283762
10 2 Si 2.79666 9.20811 4.3788 2.4 -33.925 5.03138e+06 1.04437e+07 8.56633e+06 141463 -790131 550289
11 3 O 1.24137 9.2649 4.40663 -1.2 -9.23761 -2.38662e+06 -4.1938e+06 -4.30996e+06 -496747 280205 -72168.3
12 3 O 3.7898 5.67874 4.38802 -1.2 -8.67692 -2.27277e+06 -4.50872e+06 -3.4686e+06 -1.16237e+06 391469 100291
13 3 O 3.47734 8.64064 3.04233 -1.2 -8.81044 -3.40333e+06 -4.96886e+06 -1.9038e+06 -94297.9 -128029 -524449
14 3 O 3.43318 8.52106 5.64955 -1.2 -8.93191 -3.63959e+06 -3.83284e+06 -1.86933e+06 636220 269409 950114
15 1 Mg 2.38379 5.16763 2.93701 1.2 -8.4756 -771724 3.7824e+06 634192 1.68648e+06 -1.7436e+06 1.77003e+06
16 1 Mg 2.23827 2.23338 4.4175 1.2 -8.89954 2.73662e+06 970820 2.96696e+06 -270303 -43657.1 206722
17 2 Si 4.45716 4.17589 4.40116 2.4 -34.1968 5.94098e+06 1.04584e+07 8.67193e+06 538550 -1.08126e+06 1.08549e+06
18 3 O 1.18439 4.20822 4.40577 -1.2 -8.99339 -3.07986e+06 -2.74706e+06 -4.82064e+06 317169 -95593.8 -361259
19 3 O 3.41878 0.569849 4.4913 -1.2 -8.54921 -3.43464e+06 -4.35917e+06 -3.87974e+06 1.26562e+06 -214181 -218218
20 3 O 3.74435 3.48847 3.11247 -1.2 -8.31669 -3.33737e+06 -3.19022e+06 -2.5858e+06 400342 1.034e+06 -531766
21 1 Mg 2.28019 5.31514 -0.183283 1.2 -8.21483 -875405 2.71557e+06 692243 1.78369e+06 1.65852e+06 -1.58764e+06
22 3 O 3.75716 3.55694 5.66667 -1.2 -8.69113 -2.53075e+06 -3.32279e+06 -3.78922e+06 -65327.1 -639768 144755
23 1 Mg 2.48719 7.96254 1.37808 1.2 -8.54944 1.5208e+06 1.45547e+06 2.5122e+06 -1.1879e+06 152974 209983
24 2 Si 0.315259 6.20883 1.55384 2.4 -33.5504 6.83913e+06 1.03744e+07 7.24304e+06 -210355 937465 353150
25 3 O 3.59157 6.01385 1.41459 -1.2 -8.94941 -1.2078e+06 -3.89413e+06 -3.39848e+06 -485950 305568 -52840.1
26 3 O 1.39808 9.77788 1.49793 -1.2 -8.95806 -2.49847e+06 -3.93244e+06 -3.29528e+06 1.33639e+06 -290990 896960
27 3 O 1.07756 6.73573 0.270036 -1.2 -8.985 -4.4327e+06 -5.91351e+06 -3.06697e+06 383857 -950323 1.34177e+06
28 3 O 1.11824 6.80782 2.80649 -1.2 -9.05156 -2.42985e+06 -4.77469e+06 -3.4338e+06 196990 1.34145e+06 -1.66051e+06
29 1 Mg 4.72287 0.0873865 -0.0765765 1.2 -8.12683 -635214 3.23314e+06 877234 -1.8529e+06 -1.66653e+06 -1.66299e+06
30 1 Mg 9.52819 2.83891 1.5165 1.2 -8.53519 1.86377e+06 -317741 2.18923e+06 970666 325844 -522885
31 2 Si 6.83646 1.10759 1.34441 2.4 -33.9849 6.05587e+06 1.00369e+07 8.66567e+06 -547185 132990 73077.8
32 3 O 8.34796 0.971117 1.46408 -1.2 -9.27745 -4.34789e+06 -4.03762e+06 -4.20761e+06 -1.03847e+06 982997 -25254.7
33 3 O 5.8545 4.57634 1.46841 -1.2 -8.9172 -3.47956e+06 -4.41178e+06 -3.70501e+06 -1.94991e+06 175915 205373
34 3 O 6.05806 1.65956 0.0949651 -1.2 -8.87892 -3.29112e+06 -3.61107e+06 -4.18699e+06 926055 818872 806339
35 1 Mg 4.73252 0.0301567 2.85244 1.2 -8.30917 -61078.5 3.89726e+06 360110 -1.31993e+06 928709 1.23588e+06
36 3 O 6.14199 1.72211 2.64494 -1.2 -8.45662 -4.41362e+06 -4.34611e+06 -1.96604e+06 907477 -906373 -1.06905e+06
37 1 Mg 4.93883 7.4647 4.41818 1.2 -8.44443 1.62202e+06 222975 3.05265e+06 1.29041e+06 -38651 201863
38 2 Si 7.50163 9.13187 4.5599 2.4 -34.037 7.09397e+06 1.02132e+07 7.448e+06 -481394 -198184 928356
39 3 O 5.9506 9.35572 4.53064 -1.2 -9.37193 -2.96447e+06 -4.17729e+06 -4.28214e+06 -1.21969e+06 593790 -313868
40 3 O 8.50896 5.59821 4.52892 -1.2 -9.18974 -2.74007e+06 -5.18307e+06 -3.19161e+06 -1.57014e+06 -1.03701e+06 -171070
41 3 O 8.1584 8.51114 3.26191 -1.2 -8.48778 -4.14232e+06 -3.67141e+06 -3.75822e+06 111972 -1.49058e+06 -1.14552e+06
42 3 O 8.2279 8.4949 5.73825 -1.2 -8.80532 -4.25317e+06 -3.76905e+06 -5.20507e+06 577207 277536 1.05362e+06
43 1 Mg 7.28204 5.12726 3.02755 1.2 -8.0187 -1.00356e+06 3.61097e+06 -1.02476e+06 1.56361e+06 -1.37081e+06 2.07103e+06
44 1 Mg 7.07514 2.25068 4.45657 1.2 -8.49137 2.11805e+06 -807827 2.60414e+06 -183426 560998 -160557
45 2 Si 9.21687 4.14068 4.4094 2.4 -33.1601 6.29954e+06 1.0646e+07 6.85504e+06 678568 449448 533264
46 3 O 5.98038 4.27479 4.33239 -1.2 -9.414 -4.23195e+06 -3.75549e+06 -3.78082e+06 135243 105473 -278483
47 3 O 8.04384 0.562282 4.32182 -1.2 -9.0598 -3.52835e+06 -6.94961e+06 -4.67476e+06 1.46056e+06 465346 382599
48 3 O 8.54222 3.51985 3.14933 -1.2 -9.06221 -4.21175e+06 -4.32516e+06 -4.03366e+06 363479 378491 -694224
49 1 Mg 7.16145 4.9668 -0.0471072 1.2 -7.95504 -936275 3.94048e+06 -57305.8 1.44215e+06 1.47063e+06 -1.48147e+06
50 3 O 8.50977 3.38296 5.6747 -1.2 -9.05973 -3.25566e+06 -3.52321e+06 -2.13053e+06 146940 -1.48361e+06 223278
51 1 Mg 7.22459 7.93651 1.51717 1.2 -8.79268 2.38125e+06 774914 2.85122e+06 -796534 -38335.2 682469
52 2 Si 5.1827 6.06762 1.4496 2.4 -33.9222 8.12413e+06 1.04228e+07 7.54524e+06 825492 205655 300898
53 3 O 8.32776 6.00916 1.45789 -1.2 -9.20551 -3.09061e+06 -4.35189e+06 -3.45891e+06 -36032.3 -168015 56606.8
54 3 O 6.14611 9.84021 1.60312 -1.2 -8.71818 -4.13994e+06 -5.14624e+06 -4.09907e+06 1.05007e+06 474526 -1.02252e+06
55 3 O 5.80819 6.81225 0.238 -1.2 -8.8985 -4.38412e+06 -2.66744e+06 -3.72832e+06 -403239 179151 1.01634e+06
56 3 O 5.82457 6.77951 2.76268 -1.2 -8.75741 -3.98755e+06 -3.35791e+06 -2.41597e+06 -297448 1.4091e+06 232821
57 1 Mg 9.53835 0.0799041 -0.0400885 1.2 -7.99789 -695942 3.79361e+06 970498 -1.10726e+06 -1.16403e+06 -1.79088e+06
58 1 Mg 14.0856 2.83978 1.44412 1.2 -8.99672 1.85024e+06 1.69997e+06 2.1373e+06 1.03184e+06 -253695 -115222
59 2 Si 11.5548 0.987638 1.4368 2.4 -33.5761 5.92992e+06 1.09849e+07 6.61848e+06 1.41568e+06 -1.15524e+06 1.46945e+06
60 3 O 13.1074 0.877363 1.44374 -1.2 -9.10558 -3.10911e+06 -3.86537e+06 -4.1882e+06 -1.27105e+06 215760 -599305
61 3 O 10.538 4.64048 1.4881 -1.2 -9.3183 -5.00096e+06 -6.29539e+06 -3.38148e+06 -1.04947e+06 -554240 -1.05135e+06
62 3 O 10.85 1.69071 0.319938 -1.2 -9.20801 -4.91424e+06 -4.18144e+06 -5.91955e+06 434386 -236522 1.00099e+06
63 1 Mg 9.52103 0.0737994 2.92718 1.2 -8.1759 -385346 3.70145e+06 -586438 -1.02914e+06 1.5046e+06 2.0956e+06
64 3 O 10.8461 1.67865 2.74566 -1.2 -8.70146 -4.48953e+06 -3.24839e+06 -4.14481e+06 -1.09854e+06 -2.01332e+06 323521
65 1 Mg 9.65668 7.41172 4.4869 1.2 -8.91399 1.99203e+06 -281249 3.22911e+06 504588 474777 110313
66 2 Si 12.196 9.25267 4.38971 2.4 -34.4333 7.48324e+06 8.75523e+06 9.27111e+06 -914311 -436755 218167
67 3 O 10.6262 9.22419 4.38589 -1.2 -8.95814 -3.52434e+06 -3.69338e+06 -4.62799e+06 -150051 -488539 204969
68 3 O 13.1993 5.60375 4.40754 -1.2 -8.17566 -1.93013e+06 -3.84054e+06 -3.83127e+06 -1.4808e+06 561694 952093
69 3 O 12.8998 8.51742 3.10617 -1.2 -8.27325 -3.38969e+06 -4.03379e+06 -3.75594e+06 -477246 -1.07491e+06 -613716
70 3 O 12.9546 8.61328 5.64427 -1.2 -8.13874 -3.40824e+06 -4.01247e+06 -3.72664e+06 -130223 1.18375e+06 619650
71 1 Mg 11.8457 5.03435 2.97827 1.2 -8.11129 -1.04506e+06 4.17456e+06 -261971 957356 -1.78757e+06 1.91638e+06
72 1 Mg 11.7596 2.31357 4.43364 1.2 -8.81042 1.06105e+06 -373807 1.73751e+06 -210958 -140097 641824
73 2 Si 13.9643 4.01443 4.39144 2.4 -34.0643 4.84657e+06 1.24872e+07 8.32261e+06 -840009 -845281 1.01161e+06
74 3 O 10.7685 4.18967 4.50695 -1.2 -9.43641 -3.92978e+06 -4.94088e+06 -4.16512e+06 -464138 211606 27300.4
75 3 O 12.853 0.654602 4.45487 -1.2 -8.58808 -2.93779e+06 -3.83154e+06 -3.6001e+06 505795 -7107.76 1.43604e+06
76 3 O 13.1534 3.32692 3.20788 -1.2 -8.73445 -3.10754e+06 -4.97634e+06 -3.0605e+06 -158426 1.55419e+06 -598121
77 1 Mg 11.7845 5.16458 -0.0165632 1.2 -7.80511 -587798 3.15094e+06 223224 916453 1.88876e+06 -1.42777e+06
78 3 O 13.2934 3.56618 5.72989 -1.2 -8.5876 -4.24655e+06 -6.91047e+06 -4.73097e+06 659350 -1.00101e+06 1.01067e+06
79 1 Mg 11.8992 7.98159 1.50595 1.2 -8.68752 2.28694e+06 -766575 3.05883e+06 -766045 -368671 -780253
80 2 Si 9.87612 6.06731 1.44603 2.4 -33.4141 6.35739e+06 9.20111e+06 8.58387e+06 674631 1.09754e+06 63167.7
81 3 O 13.0211 6.05287 1.41554 -1.2 -9.05962 -3.11128e+06 -3.8376e+06 -3.9099e+06 1.23074e+06 159574 -725520
82 3 O 10.847 9.67663 1.44202 -1.2 -8.81765 -3.4346e+06 -4.86065e+06 -4.35004e+06 1.01605e+06 402982 126355
83 3 O 10.5051 6.75774 0.075552 -1.2 -8.9634 -4.32685e+06 -2.72301e+06 -1.30307e+06 749747 -1.22055e+06 -411928
84 3 O 10.5192 6.75285 2.72967 -1.2 -8.79026 -4.55013e+06 -3.66815e+06 -1.99655e+06 545293 17203.6 -1.41057e+06
85 1 Mg 14.1737 -0.0853568 -0.0594649 1.2 -8.39828 -1.27313e+06 3.91694e+06 -293535 -170874 -1.60468e+06 -1.14488e+06
86 1 Mg 19.0495 2.84885 1.40266 1.2 -9.11793 2.07638e+06 725369 3.34361e+06 1.04204e+06 -946611 595963
87 2 Si 16.2945 0.975476 1.36761 2.4 -34.7553 5.57844e+06 1.04014e+07 9.40445e+06 641199 -922965 1.57743e+06
88 3 O 17.8131 0.790478 1.39425 -1.2 -8.92303 -3.1378e+06 -3.91257e+06 -3.99968e+06 -871869 794472 -347158
89 3 O 15.1928 4.65766 1.44108 -1.2 -8.0542 -2.10405e+06 -3.35239e+06 -3.74716e+06 -596456 -232562 -571905
90 3 O 15.5696 1.70976 0.231888 -1.2 -8.46568 -3.07646e+06 -4.95876e+06 -5.40822e+06 -408028 788224 985469
91 1 Mg 14.2833 -0.0266496 2.94675 1.2 -8.24286 -434255 4.13155e+06 548840 -11914.7 803701 1.93286e+06
92 3 O 15.5863 1.61276 2.73993 -1.2 -8.00109 -2.6708e+06 -3.12684e+06 -2.84387e+06 -698863 -1.47811e+06 411021
93 1 Mg 14.3511 7.3413 4.47485 1.2 -9.15353 2.85216e+06 610354 2.84009e+06 1.16322e+06 -445132 801484
94 2 Si 17.0086 9.33148 4.47941 2.4 -35.1026 5.22127e+06 1.01581e+07 8.5782e+06 263500 342095 410141
95 3 O 15.4772 9.29156 4.47131 -1.2 -8.70483 -4.428e+06 -3.818e+06 -4.56767e+06 -278614 -197854 97630.8
96 3 O 18.0018 5.65526 4.48538 -1.2 -8.3049 -2.1604e+06 -5.46269e+06 -4.54785e+06 -1.0037e+06 256325 -313639
97 3 O 17.6918 8.63809 3.21675 -1.2 -8.26058 -4.43759e+06 -3.95519e+06 -4.45069e+06 -357687 -829255 -923945
98 3 O 17.654 8.62782 5.73702 -1.2 -7.90421 -4.42268e+06 -3.92559e+06 -4.68948e+06 -210518 222582 297643
99 1 Mg 16.5558 5.12989 2.95152 1.2 -8.61134 -287741 4.41074e+06 353993 406063 -609265 2.12019e+06
100 1 Mg 16.6124 2.31781 4.48077 1.2 -9.097 1.55601e+06 223287 3.77733e+06 26677.6 150715 12178.1
101 2 Si 18.6988 4.16727 4.46437 2.4 -34.7755 4.63479e+06 1.16889e+07 9.33673e+06 32553.6 757224 1.01424e+06
102 3 O 15.4647 4.2053 4.32466 -1.2 -9.17178 -3.72652e+06 -4.01857e+06 -4.61611e+06 547356 1.05411e+06 -212644
103 3 O 17.537 0.555121 4.45859 -1.2 -8.37475 -2.39055e+06 -6.75219e+06 -4.48879e+06 288111 -481907 627956
104 3 O 18.021 3.46348 3.21321 -1.2 -8.18072 -2.37299e+06 -3.53882e+06 -3.82247e+06 -85881.8 570181 -300868
105 1 Mg 16.6683 5.1868 -0.00239782 1.2 -8.68542 -538284 4.08194e+06 424770 766068 1.1727e+06 -1.64839e+06
106 3 O 17.9772 3.49485 5.68903 -1.2 -8.50523 -2.43141e+06 -5.40686e+06 -5.3056e+06 -179489 -1.0541e+06 565059
107 1 Mg 16.7622 8.06121 1.50925 1.2 -8.95286 1.81932e+06 789195 3.27521e+06 -589480 -133977 161130
108 2 Si 14.5465 6.25482 1.38742 2.4 -34.7242 5.08263e+06 1.18143e+07 9.16008e+06 -595502 -303855 1.23366e+06
109 3 O 17.8045 6.04258 1.46126 -1.2 -8.86758 -2.19699e+06 -3.81491e+06 -4.89529e+06 432961 -506.876 -570765
110 3 O 15.5896 9.76186 1.5208 -1.2 -8.57835 -2.81248e+06 -3.92537e+06 -4.32297e+06 1.03536e+06 105060 -648303
111 3 O 15.2494 6.81013 0.139085 -1.2 -8.47659 -2.44113e+06 -4.69726e+06 -4.56843e+06 43582.4 -144165 808632
112 3 O 15.2714 6.87213 2.67278 -1.2 -8.32719 -2.96092e+06 -4.13992e+06 -2.89034e+06 290392 911532 -1.42763e+06
113 1 Mg 19.0297 -0.0228347 -0.0250599 1.2 -8.42495 -558242 3.92505e+06 519363 -644720 -1.14279e+06 -1.68784e+06
114 1 Mg 23.7913 2.94684 1.42691 1.2 -9.05775 1.87105e+06 971608 2.21905e+06 955448 492361 -52988.6
115 2 Si 21.0949 0.950969 1.52193 2.4 -34.4574 6.48133e+06 9.82802e+06 1.00893e+07 -967750 -316755 7670.77
116 3 O 22.63 0.828253 1.3265 -1.2 -8.60223 -3.08602e+06 -4.24823e+06 -4.18441e+06 -437605 -687564 -307136
117 3 O 20.0878 4.67591 1.50656 -1.2 -8.3282 -3.72402e+06 -4.36775e+06 -5.61301e+06 -1.58799e+06 -483125 -356849
118 3 O 20.3877 1.69892 0.206195 -1.2 -8.11717 -3.23289e+06 -3.75188e+06 -2.45973e+06 363751 853269 -228941
119 1 Mg 19.0385 -0.0885767 2.96764 1.2 -8.16189 -500275 4.07019e+06 639867 -1.40396e+06 1.31587e+06 1.24034e+06
120 3 O 20.4076 1.64442 2.77649 -1.2 -8.63094 -2.5743e+06 -3.44944e+06 -3.6065e+06 43589.8 -598797 -200031
121 1 Mg 19.0681 7.41691 4.43485 1.2 -9.2819 1.48561e+06 844444 3.03974e+06 905322 267257 504616
122 2 Si 21.6909 9.23116 4.46515 2.4 -34.1719 6.42186e+06 9.22172e+06 9.06047e+06 1.14326e+06 -710940 1.32076e+06
123 3 O 20.0799 9.37013 4.47716 -1.2 -8.65897 -1.61176e+06 -3.65984e+06 -4.22568e+06 -1.31423e+06 -256104 -423612
124 3 O 22.7654 5.59399 4.36132 -1.2 -9.02045 -4.03754e+06 -4.64188e+06 -4.13409e+06 -555683 -63941 -135951
125 3 O 22.373 8.60284 3.16375 -1.2 -8.68437 -2.86198e+06 -4.28091e+06 -3.27417e+06 -1.27563e+06 -162716 -912775
126 3 O 22.3313 8.61046 5.71156 -1.2 -8.61415 -3.6403e+06 -5.42607e+06 -4.7574e+06 -702095 -2.22918 1.68428e+06
127 1 Mg 21.3472 5.12639 2.89055 1.2 -8.36085 -1.49208e+06 3.94991e+06 -587881 813368 -2.34846e+06 2.27532e+06
128 1 Mg 21.4704 2.30131 4.36829 1.2 -8.6037 1.98534e+06 396074 3.62132e+06 -1.80639e+06 -406183 -180973
129 2 Si 23.3895 4.14511 4.39339 2.4 -33.546 5.83021e+06 9.90832e+06 9.96283e+06 36878.2 1.10244e+06 690119
130 3 O 20.2387 4.32917 4.4629 -1.2 -8.97498 -2.80316e+06 -4.65616e+06 -5.87871e+06 -69460.3 -806618 -680785
131 3 O 22.4641 0.406077 4.28139 -1.2 -8.71004 -3.71426e+06 -5.5761e+06 -4.15463e+06 554208 544761 150279
132 3 O 22.6944 3.44902 3.04799 -1.2 -8.76243 -2.91687e+06 -3.30535e+06 -1.59975e+06 567353 581271 -267510
133 1 Mg 21.4067 5.13052 -0.0217221 1.2 -8.75127 -1.30651e+06 3.60583e+06 -1.28039e+06 850648 2.68767e+06 -1.40109e+06
134 3 O 22.7263 3.46274 5.69088 -1.2 -9.01076 -4.20482e+06 -3.57999e+06 -1.51943e+06 196483 -642919 74806.1
135 1 Mg 21.352 7.9475 1.37374 1.2 -8.86041 1.32015e+06 -575730 2.60602e+06 -766548 591791 937723
136 2 Si 19.3443 6.15985 1.41976 2.4 -34.4146 5.21588e+06 1.08179e+07 1.12084e+07 -318310 47840.3 1.71448e+06
137 3 O 22.5054 6.07627 1.45008 -1.2 -8.96676 -1.75636e+06 -4.72515e+06 -4.64609e+06 -427708 519015 -605222
138 3 O 20.2966 9.65687 1.38314 -1.2 -8.66449 -3.11944e+06 -4.5371e+06 -4.96929e+06 1.32795e+06 -438684 455656
139 3 O 19.9913 6.70062 0.102695 -1.2 -8.52068 -4.01706e+06 -5.39593e+06 -3.65871e+06 176947 -887338 381947
140 3 O 20.0078 6.87114 2.7608 -1.2 -8.4098 -3.36977e+06 -4.05021e+06 -1.35664e+06 246518 1.49916e+06 -715657
141 1 Mg 23.8448 0.0930645 -0.132134 1.2 -8.50105 -1.10679e+06 4.58926e+06 158866 -1.23215e+06 -1.05811e+06 -953533
142 1 Mg 28.4129 2.85105 1.28875 1.2 -8.85287 1.28177e+06 966121 2.84032e+06 670500 316165 748604
143 2 Si 25.8787 1.02838 1.47859 2.4 -33.9047 8.41453e+06 1.06323e+07 8.20263e+06 -369381 538347 301840
144 3 O 27.4374 1.02492 1.43738 -1.2 -9.21825 -2.41605e+06 -4.21129e+06 -3.75796e+06 -960519 -57955.2 -417610
145 3 O 24.8264 4.72585 1.46215 -1.2 -8.65563 -3.97418e+06 -5.98332e+06 -4.22921e+06 -1.93188e+06 -1.59539e+06 14812.5
146 3 O 25.0606 1.73078 0.217917 -1.2 -8.54828 -3.07932e+06 -3.69063e+06 -2.40916e+06 -592899 1.63706e+06 717144
147 1 Mg 23.7886 -0.109083 2.93435 1.2 -8.32761 -1.90635e+06 4.40964e+06 841907 -680565 1.93354e+06 1.38731e+06
148 3 O 25.1144 1.6383 2.74133 -1.2 -8.59154 -2.47534e+06 -3.25041e+06 -4.25226e+06 -720464 -1.2884e+06 -1.18075e+06
149 1 Mg 23.7947 7.48345 4.47636 1.2 -8.54042 1.91169e+06 416220 3.67184e+06 869817 96155.7 235973
150 2 Si 26.4213 9.23437 4.47682 2.4 -34.076 5.49933e+06 1.12872e+07 9.06476e+06 107809 590409 587123
151 3 O 24.8836 9.34376 4.52262 -1.2 -9.41161 -2.99316e+06 -3.92051e+06 -4.72384e+06 -294195 -74736.9 97307
152 3 O 27.4729 5.6207 4.35752 -1.2 -8.58671 -2.8454e+06 -5.34988e+06 -4.24556e+06 -1.08495e+06 -499382 -256970
153 3 O 27.1392 8.56764 3.18447 -1.2 -8.53984 -3.40762e+06 -4.06014e+06 -3.22599e+06 -342547 -2.12376e+06 -591507
154 3 O 27.1356 8.57509 5.71504 -1.2 -8.5994 -3.54048e+06 -4.64439e+06 -4.12956e+06 211186 218505 194078
155 1 Mg 26.1212 5.13965 2.87403 1.2 -8.38059 -1.64519e+06 3.36287e+06 -360250 1.19034e+06 -1.95266e+06 2.26139e+06
156 1 Mg 26.1867 2.35442 4.32879 1.2 -8.76518 1.66016e+06 -434740 1.66314e+06 -1.41722e+06 -378892 -269572
157 2 Si 28.1276 4.16455 4.30591 2.4 -34.176 7.59596e+06 1.02642e+07 8.60678e+06 37016.6 752486 1.39166e+06
158 3 O 24.9521 4.21092 4.39963 -1.2 -9.09442 -2.38661e+06 -4.56295e+06 -3.73002e+06 486896 -238988 -66063.7
159 3 O 27.2469 0.578969 4.44307 -1.2 -8.85197 -2.73855e+06 -5.80647e+06 -3.97495e+06 1.40821e+06 -341042 -612428
160 3 O 27.4543 3.52224 3.00327 -1.2 -8.56124 -3.03871e+06 -4.64408e+06 -4.18193e+06 554030 822230 -214221
161 1 Mg 26.1277 5.23208 -0.103665 1.2 -8.28273 74751.5 4.15022e+06 579507 635994 1.82639e+06 -1.28245e+06
162 3 O 27.3973 3.38734 5.47072 -1.2 -8.78835 -4.00113e+06 -4.88272e+06 -4.42774e+06 -156731 -2.06473e+06 -338064
163 1 Mg 26.185 7.91809 1.56768 1.2 -8.88051 1.50101e+06 458222 3.12352e+06 -1.1428e+06 391213 -619126
164 2 Si 24.0778 6.16845 1.51008 2.4 -34.1549 6.75925e+06 1.09906e+07 8.71467e+06 68334.4 761932 1.09833e+06
165 3 O 27.3101 6.00507 1.47492 -1.2 -9.00491 -2.51048e+06 -4.96323e+06 -4.24868e+06 269479 -122222 -226723
166 3 O 25.0849 9.64068 1.47902 -1.2 -8.02816 -2.06311e+06 -5.58289e+06 -3.65299e+06 1.64214e+06 46552.4 -970954
167 3 O 24.7288 6.79379 0.201569 -1.2 -8.55712 -2.92042e+06 -5.71526e+06 -2.71166e+06 -312365 -827788 1.04107e+06
168 3 O 24.8084 6.84188 2.77972 -1.2 -8.73588 -3.0555e+06 -4.2087e+06 -2.78155e+06 232101 539523 -15359.4
169 1 Mg 28.6127 -0.0951398 -0.0263716 1.2 -8.1273 -1.14374e+06 3.90236e+06 -683093 -904755 -1.44479e+06 -1.52338e+06
170 1 Mg 33.1812 2.78148 1.3612 1.2 -8.55325 1.8883e+06 115328 3.28622e+06 465318 -136362 668264
171 2 Si 30.5236 1.07987 1.49855 2.4 -33.6903 6.66661e+06 1.05387e+07 8.67142e+06 -1.2263e+06 962449 1.26777e+06
172 3 O 32.0881 0.814907 1.42487 -1.2 -9.26403 -1.63977e+06 -3.84407e+06 -4.08272e+06 -995935 -106532 -44075.4
173 3 O 29.5829 4.72333 1.42035 -1.2 -8.7048 -4.04785e+06 -3.96327e+06 -3.42696e+06 -902538 -440050 -411328
174 3 O 29.8116 1.70011 0.205563 -1.2 -8.80957 -3.67612e+06 -4.05912e+06 -3.36891e+06 -186094 1.41469e+06 316093
175 1 Mg 28.6134 0.0196014 2.95404 1.2 -8.1324 -1.298e+06 3.931e+06 -329032 -1.02466e+06 2.06606e+06 1.95659e+06
176 3 O 29.8496 1.70836 2.75636 -1.2 -8.82608 -3.82322e+06 -4.50682e+06 -3.25699e+06 -329885 -1.73093e+06 -1.06973e+06
177 1 Mg 28.5347 7.43304 4.51686 1.2 -9.23805 1.60903e+06 726528 3.13669e+06 1.14415e+06 -10284.2 583371
178 2 Si 31.2576 9.22301 4.34318 2.4 -34.51 7.21359e+06 1.01172e+07 1.00506e+07 -335023 -739246 197282
179 3 O 29.7072 9.24291 4.4076 -1.2 -8.65912 -1.13088e+06 -4.698e+06 -4.62077e+06 -482642 -186869 -238206
180 3 O 32.272 5.54521 4.40677 -1.2 -8.59256 -4.18481e+06 -5.7469e+06 -2.88697e+06 -575877 -323816 6028.47
181 3 O 31.9651 8.59538 3.03269 -1.2 -8.30997 -4.19205e+06 -4.83297e+06 -2.32744e+06 254429 -1.15977e+06 -630874
182 3 O 32.0019 8.59315 5.63767 -1.2 -8.63256 -4.00819e+06 -3.58504e+06 -2.6998e+06 -218799 945340 555283
183 1 Mg 30.8615 5.19943 2.91458 1.2 -8.44452 -814908 3.92015e+06 29741.1 792442 -1.59596e+06 2.07009e+06
184 1 Mg 30.7577 2.28605 4.48443 1.2 -8.8429 1.80986e+06 941926 2.95296e+06 -1.30328e+06 490108 -57372.7
185 2 Si 32.8356 4.08313 4.3811 2.4 -34.4515 6.54317e+06 9.75393e+06 7.75092e+06 -174383 56273.4 -990826
186 3 O 29.745 4.26297 4.37814 -1.2 -8.85736 -802370 -3.67535e+06 -3.692e+06 1.01494e+06 451180 -342234
187 3 O 31.8719 0.497156 4.43717 -1.2 -8.672 -2.73301e+06 -4.74884e+06 -3.75261e+06 475271 -675763 -1.29297e+06
188 3 O 32.1771 3.40731 3.17165 -1.2 -8.62345 -3.90032e+06 -3.86296e+06 -4.03386e+06 -36447.4 -124231 -866066
189 1 Mg 30.8892 5.16169 -0.0822974 1.2 -8.11801 -813533 3.79787e+06 286541 781910 1.4829e+06 -1.18072e+06
190 3 O 32.1521 3.3812 5.71879 -1.2 -8.37302 -3.28988e+06 -3.28883e+06 -1.74836e+06 623463 -861666 674267
191 1 Mg 30.9477 7.97671 1.41889 1.2 -8.86781 1.9851e+06 84121.4 3.2512e+06 -1.32052e+06 -253183 -211620
192 2 Si 28.8637 6.19026 1.42581 2.4 -34.025 5.89354e+06 1.12869e+07 8.75681e+06 385196 963709 1.2582e+06
193 3 O 32.0694 5.99045 1.40711 -1.2 -9.00537 -5.16795e+06 -4.72835e+06 -4.41163e+06 -182825 -488008 -668404
194 3 O 29.9315 9.72786 1.39681 -1.2 -8.33044 -2.58688e+06 -5.90666e+06 -4.14016e+06 1.39942e+06 -217311 -246595
195 3 O 29.4661 6.90273 0.182095 -1.2 -8.95742 -3.13393e+06 -4.28196e+06 -2.92889e+06 -261476 -143407 1.1159e+06
196 3 O 29.5557 6.85507 2.76825 -1.2 -8.39474 -2.75793e+06 -4.46286e+06 -1.7225e+06 622189 718694 -334702
197 1 Mg 33.1957 -0.238991 0.0506131 1.2 -8.09363 -1.85798e+06 2.7785e+06 -506411 -1.69131e+06 -1.89736e+06 -2.31271e+06
198 1 Mg 37.9156 2.72433 1.47711 1.2 -8.72608 2.5652e+06 543475 2.37574e+06 758211 111728 366210
199 2 Si 35.2161 0.913676 1.45498 2.4 -33.3187 6.37842e+06 1.00246e+07 7.2499e+06 53399.6 295348 421688
200 3 O 36.8007 0.854582 1.42112 -1.2 -9.35315 -1.71099e+06 -4.55495e+06 -3.97378e+06 701825 179578 79993.9
201 3 O 34.1892 4.53163 1.37403 -1.2 -8.75657 -4.1502e+06 -4.15908e+06 -3.99119e+06 -257510 694312 -521853
202 3 O 34.6197 1.69359 0.254777 -1.2 -8.82366 -4.36137e+06 -3.42183e+06 -4.12383e+06 -157256 -282243 27076.1
203 1 Mg 33.2891 0.108891 2.99779 1.2 -7.95645 -1.38167e+06 3.41179e+06 -430649 -1.13854e+06 2.34483e+06 1.97065e+06
204 3 O 34.6234 1.60613 2.77449 -1.2 -9.03991 -3.88171e+06 -4.17846e+06 -4.3831e+06 -739320 -962506 -522616
205 1 Mg 33.3208 7.40589 4.55458 1.2 -8.85585 1.39371e+06 530272 2.76393e+06 655144 -316701 597947
206 2 Si 35.9616 9.13081 4.45173 2.4 -33.937 5.99793e+06 9.22242e+06 8.6468e+06 -777944 -310177 487317
207 3 O 34.3982 9.26433 4.37237 -1.2 -8.96087 -4.12366e+06 -4.11349e+06 -5.42206e+06 -618335 -430448 -28131.7
208 3 O 36.9888 5.55581 4.5725 -1.2 -8.79543 -2.42954e+06 -3.73577e+06 -4.07144e+06 -899386 143604 -732161
209 3 O 36.6744 8.51457 3.15553 -1.2 -8.86258 -4.0088e+06 -2.81015e+06 -2.76368e+06 883767 -578913 -346992
210 3 O 36.5959 8.49426 5.6897 -1.2 -8.79465 -4.26455e+06 -4.70519e+06 -3.95702e+06 749540 408154 1.30971e+06
211 1 Mg 35.583 5.0439 3.004 1.2 -8.07202 258411 3.2732e+06 1.09308e+06 765052 -1.49612e+06 1.7651e+06
212 1 Mg 35.4779 2.23956 4.40066 1.2 -8.65754 2.12993e+06 133406 2.38847e+06 -1.1076e+06 -594864 -500837
213 2 Si 37.687 4.0651 4.44075 2.4 -33.6825 7.38363e+06 9.82846e+06 9.93682e+06 -785695 -556989 -222760
214 3 O 34.4114 4.09356 4.48188 -1.2 -9.05131 -3.00989e+06 -4.27536e+06 -3.6892e+06 981130 7652.68 113917
215 3 O 36.6111 0.450919 4.52003 -1.2 -8.93232 -3.68001e+06 -6.67215e+06 -3.10078e+06 754877 -497271 507014
216 3 O 36.915 3.53503 3.13972 -1.2 -8.89251 -3.1032e+06 -3.46202e+06 -3.1992e+06 311208 1.05729e+06 -470190
217 1 Mg 35.5661 4.97333 0.0308266 1.2 -8.26435 -697287 3.69809e+06 -371022 483608 1.3195e+06 -1.59708e+06
218 3 O 36.915 3.33229 5.75271 -1.2 -8.62505 -3.06218e+06 -3.40743e+06 -984317 683503 -1.77196e+06 476682
219 1 Mg 35.6526 7.92827 1.38303 1.2 -8.78339 1.96073e+06 672709 3.06669e+06 -1.32046e+06 -172930 209602
220 2 Si 33.5725 6.06021 1.43506 2.4 -34.2794 4.08457e+06 1.06567e+07 8.24393e+06 -616119 -1.15238e+06 500686
221 3 O 36.7909 5.94699 1.42863 -1.2 -9.12391 -2.79637e+06 -4.03158e+06 -3.34905e+06 1.34936e+06 -732830 -78195.4
222 3 O 34.6838 9.75618 1.47562 -1.2 -8.5975 -3.33553e+06 -3.91979e+06 -4.08304e+06 1.63175e+06 726730 -327778
223 3 O 34.3031 6.78702 0.190702 -1.2 -8.67654 -3.72894e+06 -3.28118e+06 -3.0341e+06 454262 -359771 252363
224 3 O 34.1712 6.69401 2.70695 -1.2 -8.51985 -4.17329e+06 -3.23585e+06 -4.01704e+06 9564.16 184583 -665002
225 1 Mg 37.8891 0.0842453 -0.0482288 1.2 -8.20251 -906334 3.97789e+06 -240221 -852888 -1.06437e+06 -1.86342e+06
226 1 Mg 42.6166 2.7369 1.53943 1.2 -8.467 2.68145e+06 590727 3.11235e+06 500297 108802 -944697
227 2 Si 40.0048 0.870401 1.50099 2.4 -33.8059 4.6323e+06 8.59645e+06 8.37474e+06 -31965.2 857087 513188
228 3 O 41.5776 0.860972 1.48386 -1.2 -9.43248 -2.61899e+06 -3.30516e+06 -4.3516e+06 -262525 -512685 26041.6
229 3 O 39.0438 4.58993 1.49671 -1.2 -8.40521 -3.79434e+06 -4.46185e+06 -3.3493e+06 -1.01344e+06 -421439 -671044
230 3 O 39.3378 1.58863 0.286006 -1.2 -8.74672 -3.7384e+06 -4.32077e+06 -4.44834e+06 -69463.1 85435 661307
231 1 Mg 38.0407 -0.0103486 3.00148 1.2 -7.95481 -1.0816e+06 3.29585e+06 1.00595e+06 -1.3853e+06 2.5841e+06 1.95855e+06
232 3 O 39.3243 1.54733 2.78939 -1.2 -8.77812 -2.73227e+06 -4.10439e+06 -4.44463e+06 -549485 -1.19242e+06 -277661
233 1 Mg 37.9541 7.33945 4.43678 1.2 -8.62204 2.62282e+06 -282399 3.83077e+06 749504 -8618.21 -279836
234 2 Si 40.6866 9.23688 4.33393 2.4 -33.8734 6.98243e+06 1.08466e+07 8.66479e+06 -719333 -645518 -589309
235 3 O 39.1381 9.27226 4.43197 -1.2 -9.36996 -2.25857e+06 -3.49038e+06 -3.19738e+06 -354917 -386424 371381
236 3 O 41.694 5.52087 4.44216 -1.2 -8.65238 -3.3583e+06 -4.62188e+06 -5.02472e+06 -1.73949e+06 705817 501953
237 3 O 41.4371 8.60197 3.03416 -1.2 -8.63576 -2.10922e+06 -3.84223e+06 -2.51357e+06 -193103 -1.03147e+06 -328930
238 3 O 41.4273 8.52895 5.59326 -1.2 -8.75553 -3.53743e+06 -2.82558e+06 -1.91024e+06 -396177 889132 535837
239 1 Mg 40.358 5.08587 2.99665 1.2 -8.38682 -560208 3.84727e+06 76241.4 639864 -1.15767e+06 1.21409e+06
240 1 Mg 40.3237 2.20783 4.44174 1.2 -9.18857 2.07789e+06 733091 2.66938e+06 -816807 452964 -144222
241 2 Si 42.4775 4.05914 4.41121 2.4 -34.116 7.15563e+06 1.10687e+07 8.0769e+06 558123 -797686 -1.63703e+06
242 3 O 39.2195 4.1088 4.45346 -1.2 -9.25381 -3.47685e+06 -3.24982e+06 -4.12197e+06 1.1488e+06 -338887 -28070.9
243 3 O 41.4712 0.445002 4.45194 -1.2 -8.2592 -4.67192e+06 -4.80272e+06 -4.06346e+06 961333 361123 -741137
244 3 O 41.7383 3.33735 3.25912 -1.2 -8.73038 -3.34161e+06 -4.09637e+06 -5.09768e+06 364096 453210 -719369
245 1 Mg 40.2986 5.15416 -0.0916689 1.2 -8.20806 -928405 2.36367e+06 1.32552e+06 1.43823e+06 1.53851e+06 -1.59986e+06
246 3 O 41.7036 3.37422 5.75229 -1.2 -7.90789 -2.39463e+06 -3.74428e+06 -1.7604e+06 959155 -1.4018e+06 -262604
247 1 Mg 40.4077 7.95664 1.36366 1.2 -8.6295 2.26934e+06 -199021 2.45164e+06 -465122 212711 -152508
248 2 Si 38.3259 6.0767 1.40961 2.4 -34.102 7.00419e+06 9.83631e+06 7.60948e+06 -973772 1.15602e+06 188738
249 3 O 41.5275 6.04124 1.50671 -1.2 -9.05913 -2.85266e+06 -2.89036e+06 -3.78933e+06 853686 249201 -875670
250 3 O 39.3477 9.62222 1.31224 -1.2 -8.86359 -3.78898e+06 -3.27297e+06 -2.38648e+06 1.97919e+06 -494526 -51909.9
251 3 O 39.0266 6.62667 0.096481 -1.2 -8.99916 -3.99012e+06 -4.02474e+06 -4.04531e+06 1.24782e+06 -1.12369e+06 904522
252 3 O 39.0171 6.73268 2.66916 -1.2 -8.63256 -3.72126e+06 -4.16094e+06 -2.15613e+06 833692 331381 -1.60784e+06
253 1 Mg 42.682 -0.0150164 -0.0280776 1.2 -7.65963 -192458 3.71484e+06 133252 -1.39261e+06 -1.73468e+06 -1.7659e+06
254 1 Mg 47.3551 2.75701 1.53647 1.2 -8.53533 2.13884e+06 88947.4 2.5462e+06 538596 273339 -595416
255 2 Si 44.7911 0.873942 1.39969 2.4 -33.7974 6.12083e+06 1.01318e+07 9.21145e+06 -1.1027e+06 -779416 -98869.6
256 3 O 46.386 0.756121 1.41097 -1.2 -9.26888 -2.69536e+06 -3.7115e+06 -4.76364e+06 -11684.5 2221.56 -523984
257 3 O 43.7118 4.64759 1.33805 -1.2 -8.81696 -2.81888e+06 -4.24971e+06 -4.04645e+06 -349819 31540.6 64839.1
258 3 O 44.1245 1.57414 0.154506 -1.2 -8.93478 -2.29841e+06 -2.42024e+06 -3.68651e+06 679124 668563 -101978
259 1 Mg 42.7168 -0.128862 2.95333 1.2 -8.26412 -241394 3.41122e+06 -26429.4 -1.09412e+06 1.32622e+06 2.16139e+06
260 3 O 44.1664 1.60399 2.65264 -1.2 -8.78281 -3.15497e+06 -2.82856e+06 -4.13251e+06 277246 -410953 -88557.6
261 1 Mg 42.8551 7.35264 4.51054 1.2 -8.74261 3.0113e+06 725976 2.86432e+06 633283 41442.5 78682.5
262 2 Si 45.5297 9.17335 4.41638 2.4 -33.4252 6.9994e+06 9.77576e+06 8.95654e+06 583333 399173 751300
263 3 O 43.9756 9.36429 4.49861 -1.2 -9.36826 -2.50717e+06 -2.74091e+06 -2.77813e+06 -1.12336e+06 -635530 61875.4
264 3 O 46.4892 5.59064 4.39576 -1.2 -8.39784 -2.41951e+06 -3.85528e+06 -4.0098e+06 -1.66199e+06 580338 328537
265 3 O 46.1892 8.49041 3.12237 -1.2 -9.15359 -3.14985e+06 -3.41248e+06 -1.88827e+06 -663693 -1.13506e+06 -298572
266 3 O 46.1536 8.57174 5.7645 -1.2 -8.65595 -4.13795e+06 -4.37865e+06 -2.28883e+06 -887544 796877 574418
267 1 Mg 45.0955 4.99927 2.87805 1.2 -8.31097 -7696.55 3.0036e+06 223783 627105 -499969 1.90705e+06
268 1 Mg 45.0266 2.28375 4.37667 1.2 -8.88256 2.95328e+06 1.00018e+06 2.25452e+06 -272834 -264879 391595
269 2 Si 47.2439 4.0978 4.43973 2.4 -34.3394 8.49042e+06 1.11008e+07 7.73724e+06 -1.5006e+06 -810235 -1.27499e+06
270 3 O 44.0078 4.16119 4.37931 -1.2 -9.27687 -3.6521e+06 -4.06294e+06 -2.89026e+06 -161519 1527.54 686371
271 3 O 46.1518 0.467358 4.4247 -1.2 -8.31336 -4.33509e+06 -4.0219e+06 -3.07069e+06 1.2138e+06 244771 548997
272 3 O 46.588 3.45115 3.19762 -1.2 -8.81526 -3.88321e+06 -4.96211e+06 -4.4206e+06 703043 1.30653e+06 -1.0048e+06
273 1 Mg 45.2019 5.10378 -0.0615267 1.2 -8.15219 -157502 3.3079e+06 -123728 710656 1.89194e+06 -1.33631e+06