ITEM: TIMESTEP
4000
ITEM: NUMBER OF ATOMS
38213
ITEM: BOX BOUNDS pp pp pp
0.0000000000000000e+00 7.1234999999999999e+01
0.0000000000000000e+00 7.1389499999999998e+01
0.0000000000000000e+00 7.7729600000000005e+01
ITEM: ATOMS id type element xu yu zu q c_pe c_s[1] c_s[2] c_s[3] c_s[4] c_s[5] c_s[6]
1 1 Mg -0.0533063 0.0772342 0.0385737 1.2 -7.42268 38351.5 4.15816e+06 -848316 -1.37584e+06 -824195 -1.42901e+06
2 1 Mg 4.64958 2.79861 1.54239 1.2 -8.0324 2.20917e+06 260176 1.90307e+06 920957 352955 -510103
3 2 Si 2.06813 0.944553 1.57134 2.4 -32.3812 6.69455e+06 1.11497e+07 7.81461e+06 -557855 -431739 -265963
4 3 O 3.68284 0.916722 1.40023 -1.2 -9.84985 -833194 -4.19636e+06 -2.95741e+06 684033 9473.26 114278
5 3 O 1.04694 4.73904 1.35576 -1.2 -9.26296 -2.74096e+06 -4.0565e+06 -4.40309e+06 -538722 828140 -951565
6 3 O 1.34472 1.68126 0.296482 -1.2 -9.4801 -2.93115e+06 -2.9564e+06 -820112 -385466 958331 9686.5
7 1 Mg -0.0155361 0.0800819 3.07538 1.2 -7.23978 -463151 3.76172e+06 -400366 -1.37206e+06 1.29958e+06 1.31292e+06
8 3 O 1.40402 1.62596 2.83175 -1.2 -9.49833 -2.3156e+06 -4.09608e+06 -3.08744e+06 91902.1 -926251 -562389
9 1 Mg 0.0671284 7.40299 4.48115 1.2 -8.40588 2.57138e+06 342412 2.06836e+06 1.30887e+06 47264.6 682445
10 2 Si 2.7464 9.19663 4.42993 2.4 -32.9833 8.43391e+06 9.15144e+06 8.06169e+06 -748100 -1.23258e+06 -1.03292e+06
11 3 O 1.10798 9.38091 4.48734 -1.2 -9.39758 -336312 -3.59381e+06 -2.85083e+06 -1.14081e+06 44397.8 435182
12 3 O 3.73422 5.55233 4.46035 -1.2 -9.12322 -2.89998e+06 -3.43047e+06 -3.88746e+06 -1.16855e+06 514527 607484
13 3 O 3.40343 8.5375 3.17226 -1.2 -9.08368 -3.29238e+06 -3.84407e+06 -3.72897e+06 72059.3 -1.00309e+06 -1.24944e+06
14 3 O 3.39883 8.55091 5.74765 -1.2 -9.25661 -4.60848e+06 -3.86762e+06 -2.38067e+06 -853235 1.1185e+06 1.0041e+06
15 1 Mg 2.32922 5.11192 2.87181 1.2 -7.70651 101549 3.12988e+06 -167167 801481 -1.18176e+06 1.57662e+06
16 1 Mg 2.36926 2.3914 4.54441 1.2 -8.05263 721882 -694299 2.21219e+06 -1.41016e+06 441187 -111683
17 2 Si 4.44086 4.05622 4.41917 2.4 -32.5357 6.06662e+06 9.12955e+06 8.8765e+06 -1.01804e+06 -407575 -306976
18 3 O 1.18774 4.15223 4.31007 -1.2 -9.73091 -4.33296e+06 -4.04824e+06 -3.48797e+06 147257 -888895 -433241
19 3 O 3.38947 0.581589 4.43496 -1.2 -9.43035 -2.78694e+06 -5.04614e+06 -3.46618e+06 1.60399e+06 -69245.3 3885.9
20 3 O 3.71772 3.42129 3.18291 -1.2 -9.63212 -3.81327e+06 -3.78687e+06 -3.2189e+06 -3676.62 1.33221e+06 -1.15241e+06
21 1 Mg 2.43681 5.21009 -0.00179663 1.2 -7.76447 -760188 3.63402e+06 -394285 675146 1.29469e+06 -1.70831e+06
22 3 O 3.67921 3.43561 5.74861 -1.2 -9.21095 -3.46585e+06 -4.7281e+06 -2.36714e+06 335485 -1.52343e+06 -44973.6
23 1 Mg 2.46649 8.0046 1.51021 1.2 -8.53773 1.87617e+06 -1.85959e+06 2.25875e+06 96073.7 -328745 -429630
24 2 Si 0.312279 6.19712 1.41366 2.4 -33.3987 7.96611e+06 7.58966e+06 9.75016e+06 387586 -1.54634e+06 -971890
25 3 O 3.50316 6.20387 1.46564 -1.2 -9.59098 -4.77241e+06 -3.32842e+06 -4.49694e+06 70966.5 145391 -81159.7
26 3 O 1.5011 9.67577 1.3671 -1.2 -9.11582 -3.69444e+06 -5.53895e+06 -3.85027e+06 2.22583e+06 -415836 -617282
27 3 O 0.988087 6.92821 0.129488 -1.2 -8.92841 -3.39945e+06 -3.0335e+06 -2.41295e+06 100567 -951329 511484
28 3 O 0.965833 6.75303 2.73833 -1.2 -8.97562 -4.67835e+06 -3.16203e+06 -2.67446e+06 -426275 1.08278e+06 -681334
29 1 Mg 4.74558 0.237704 -0.143173 1.2 -7.94045 -352701 3.72833e+06 -740256 -773814 -818012 -1.94522e+06
30 1 Mg 9.43822 2.78197 1.31888 1.2 -8.94092 1.64144e+06 1.1158e+06 3.62699e+06 907244 -577373 1.04428e+06
31 2 Si 6.76205 1.04929 1.49136 2.4 -34.0581 5.73494e+06 1.05864e+07 7.67416e+06 932837 649236 612754
32 3 O 8.34202 0.868804 1.50669 -1.2 -8.77538 -2.02737e+06 -4.27954e+06 -3.83922e+06 -1.4431e+06 -997636 -299638
33 3 O 5.70066 4.67444 1.4469 -1.2 -8.98387 -1.91044e+06 -5.04615e+06 -3.17829e+06 -541339 -281486 -649829
34 3 O 6.16418 1.75279 0.234922 -1.2 -8.94509 -3.861e+06 -5.70676e+06 -1.73492e+06 -465080 -29925.2 1.30825e+06
35 1 Mg 4.77855 0.0936931 3.03559 1.2 -7.63958 -607862 2.74903e+06 128446 -785210 935547 2.07639e+06
36 3 O 6.12182 1.64502 2.81621 -1.2 -9.29275 -3.81089e+06 -4.68089e+06 -3.29192e+06 -1.18108e+06 -733665 -1.23046e+06
37 1 Mg 4.77915 7.33181 4.56393 1.2 -8.39898 2.3883e+06 -466312 2.91492e+06 1.02403e+06 -372930 24090.1
38 2 Si 7.38944 9.26659 4.44945 2.4 -33.7634 6.1254e+06 1.02476e+07 9.77391e+06 -264775 616066 -1.23007e+06
39 3 O 5.84764 9.28757 4.51561 -1.2 -9.50521 -3.21464e+06 -3.69336e+06 -4.72284e+06 396400 -482516 31969.9
40 3 O 8.47596 5.58012 4.46136 -1.2 -8.82312 -2.69513e+06 -4.72302e+06 -4.7244e+06 -386737 118173 -133965
41 3 O 8.13234 8.53846 3.24065 -1.2 -8.83739 -2.93449e+06 -4.52585e+06 -3.09031e+06 -591276 -1.39992e+06 -734704
42 3 O 8.12598 8.64802 5.80307 -1.2 -8.35915 -3.30292e+06 -3.31041e+06 -2.80761e+06 -95143.7 1.51585e+06 310785
43 1 Mg 7.06131 5.17352 3.02856 1.2 -8.08402 -838300 3.66709e+06 390419 180717 -904040 2.01227e+06
44 1 Mg 6.94825 2.31216 4.46597 1.2 -8.3054 1.07227e+06 79121.7 2.05932e+06 -746685 -736617 155810
45 2 Si 9.11644 4.09878 4.48541 2.4 -34.2568 4.43783e+06 1.05358e+07 1.19391e+07 -248480 44255.2 231566
46 3 O 5.98239 4.12714 4.46065 -1.2 -9.81383 -3.0233e+06 -3.87209e+06 -4.21937e+06 1.23409e+06 854056 -183134
47 3 O 8.21867 0.401978 4.57225 -1.2 -8.63072 -1.97019e+06 -6.28274e+06 -4.5909e+06 724131 -681741 62606.2
48 3 O 8.39052 3.37776 3.24352 -1.2 -8.52517 -2.78355e+06 -3.36143e+06 -1.45083e+06 172451 231809 -706827
49 1 Mg 7.10714 5.21042 0.00720526 1.2 -8.2523 -1.04839e+06 3.98977e+06 -266859 51118.1 1.9858e+06 -1.58056e+06
50 3 O 8.49859 3.50044 5.87335 -1.2 -8.55191 -2.76323e+06 -3.81996e+06 -2.69418e+06 584808 -990329 -200426
51 1 Mg 7.22728 7.97012 1.47103 1.2 -8.67572 2.08698e+06 687231 3.19057e+06 -784425 573916 -396234
52 2 Si 5.02697 6.15613 1.48564 2.4 -33.793 5.18392e+06 9.5381e+06 8.3255e+06 -1.84396e+06 356854 302395
53 3 O 8.26707 6.00982 1.46216 -1.2 -9.2233 -2.74142e+06 -3.65445e+06 -4.35978e+06 977098 -1.15107e+06 -504259
54 3 O 6.15666 9.76829 1.48222 -1.2 -8.90662 -3.15167e+06 -5.55077e+06 -3.38674e+06 462094 330590 -1.12005e+06
55 3 O 5.74713 6.85432 0.267668 -1.2 -8.54854 -3.79619e+06 -4.44388e+06 -4.06648e+06 832844 -734683 961755
56 3 O 5.75956 6.74509 2.77664 -1.2 -8.72824 -3.57251e+06 -3.48836e+06 -3.83615e+06 947516 256381 -837672
57 1 Mg 9.51267 -0.132003 -0.0607629 1.2 -8.3636 -1.15277e+06 3.41175e+06 1.42065e+06 -967165 -1.92005e+06 -1.73601e+06
58 1 Mg 14.2693 2.89018 1.44214 1.2 -8.69716 1.59218e+06 -60145.2 3.45263e+06 1.05199e+06 230384 696488
59 2 Si 11.562 0.956193 1.39984 2.4 -34.6479 5.48345e+06 1.03024e+07 1.10262e+07 650576 -179569 -557985
60 3 O 13.1131 1.01918 1.44832 -1.2 -8.97999 -1.79583e+06 -3.3815e+06 -4.46375e+06 529480 430794 458628
61 3 O 10.5012 4.6287 1.41551 -1.2 -8.52945 -2.0193e+06 -4.90437e+06 -4.33118e+06 -696554 -76975.2 -627914
62 3 O 10.8758 1.59418 0.0748694 -1.2 -8.20342 -2.92291e+06 -2.69579e+06 -3.29185e+06 -131302 621638 -177708
63 1 Mg 9.46031 -0.0100045 2.98026 1.2 -8.60273 -1.00196e+06 4.06206e+06 458232 -203000 1.22699e+06 1.45488e+06
64 3 O 10.8981 1.64601 2.66069 -1.2 -8.30791 -2.75106e+06 -4.28659e+06 -3.06082e+06 -328138 -93817.5 -811951
65 1 Mg 9.51691 7.35405 4.46185 1.2 -8.8854 1.66489e+06 791302 3.71951e+06 490345 -131311 216600
66 2 Si 12.1785 9.19539 4.49188 2.4 -34.0291 5.42248e+06 1.14486e+07 9.51769e+06 1.57442e+06 153278 276311
67 3 O 10.6454 9.30962 4.45242 -1.2 -9.05156 -2.76025e+06 -4.03529e+06 -4.73707e+06 -427198 194670 233918
68 3 O 13.0936 5.64781 4.49928 -1.2 -8.62735 -2.59059e+06 -4.44117e+06 -5.46036e+06 -1.94361e+06 -23483.3 167667
69 3 O 12.8457 8.59513 3.13534 -1.2 -8.73334 -3.3769e+06 -3.60215e+06 -1.94002e+06 -377646 -1.16261e+06 312717
70 3 O 12.8795 8.56985 5.71442 -1.2 -8.88643 -3.75645e+06 -3.96832e+06 -3.32452e+06 -100484 501206 1.19733e+06
71 1 Mg 11.923 5.11454 2.9456 1.2 -8.44665 -1.31853e+06 3.64805e+06 134539 1.57218e+06 -1.68676e+06 1.90391e+06
72 1 Mg 11.8032 2.30146 4.47542 1.2 -8.87459 1.2046e+06 330284 4.53481e+06 -659371 539956 265967
73 2 Si 13.8547 4.1718 4.45194 2.4 -33.798 7.30645e+06 9.75794e+06 9.80315e+06 -103335 306777 48372.1
74 3 O 10.6756 4.16356 4.40182 -1.2 -8.89058 -1.89768e+06 -3.67733e+06 -4.77177e+06 344762 -632285 97240
75 3 O 12.8754 0.591004 4.55087 -1.2 -8.52934 -2.27507e+06 -5.16909e+06 -4.653e+06 2.20727e+06 -475205 -596081
76 3 O 13.2545 3.62892 3.08736 -1.2 -8.76404 -3.46308e+06 -4.40074e+06 -3.31008e+06 393183 286312 -1.22137e+06
77 1 Mg 11.8368 5.07364 -0.0684815 1.2 -8.27535 -950990 4.64174e+06 901936 1.14338e+06 1.30513e+06 -1.36741e+06
78 3 O 13.1297 3.49849 5.69174 -1.2 -8.62616 -3.04053e+06 -4.00785e+06 -2.63881e+06 163250 -1.21661e+06 625946
79 1 Mg 11.9389 7.89501 1.38879 1.2 -8.81063 1.28414e+06 989174 2.95213e+06 -867452 -30045.7 323167
80 2 Si 9.81792 6.10481 1.43889 2.4 -34.0961 5.26224e+06 1.09064e+07 9.43527e+06 -181005 370572 26356.3
81 3 O 13.0297 6.04166 1.44905 -1.2 -9.13002 -2.21754e+06 -4.40114e+06 -4.30626e+06 43415.8 322554 354792
82 3 O 10.8352 9.70993 1.55212 -1.2 -8.59042 -3.4132e+06 -3.82514e+06 -4.06686e+06 1.73096e+06 -182808 657494
83 3 O 10.5438 6.80312 0.176106 -1.2 -8.92298 -2.62734e+06 -3.68932e+06 -2.98736e+06 294733 -1.33333e+06 444580
84 3 O 10.4825 6.71199 2.7492 -1.2 -8.51011 -2.82693e+06 -4.90998e+06 -2.71512e+06 -63495.4 726700 -827817
85 1 Mg 14.3921 0.0318064 -0.0228081 1.2 -8.29643 -126834 3.14989e+06 986578 -987468 -318224 -2.05343e+06
86 1 Mg 18.9062 2.85117 1.39183 1.2 -8.39374 1.6609e+06 -1.16615e+06 2.15309e+06 -77438.2 729405 -476372
87 2 Si 16.394 1.17216 1.46552 2.4 -33.3966 5.45036e+06 9.49994e+06 9.19278e+06 352177 994341 -420649
88 3 O 17.9349 1.09839 1.5083 -1.2 -9.59479 -4.41702e+06 -4.94216e+06 -4.64638e+06 -1.28422e+06 -657034 -218784
89 3 O 15.2972 4.64004 1.33998 -1.2 -9.0391 -3.65025e+06 -5.39685e+06 -3.59189e+06 -2.03807e+06 -27707.5 -658849
90 3 O 15.6399 1.65589 0.150131 -1.2 -8.81612 -3.66824e+06 -3.81248e+06 -3.33507e+06 306213 752833 879580
91 1 Mg 14.3332 0.242682 2.98975 1.2 -8.27055 -259079 2.94069e+06 1.03919e+06 -1.33641e+06 1.20741e+06 1.42156e+06
92 3 O 15.6471 1.77801 2.70369 -1.2 -9.13286 -3.19398e+06 -5.44638e+06 -3.6621e+06 -195244 -1.03959e+06 -1.50632e+06
93 1 Mg 14.2851 7.50256 4.41313 1.2 -8.59414 2.02034e+06 1.0105e+06 3.48809e+06 1.19378e+06 189344 -311041
94 2 Si 16.9452 9.32054 4.45602 2.4 -33.6807 6.01055e+06 1.02448e+07 8.69752e+06 945168 1.42245e+06 -502559
95 3 O 15.3624 9.34863 4.43822 -1.2 -9.29455 -1.89969e+06 -3.75851e+06 -4.18244e+06 98883.2 330523 834285
96 3 O 18.0079 5.62007 4.29968 -1.2 -9.03552 -3.42737e+06 -5.31918e+06 -3.13869e+06 -996171 -111643 1.1705e+06
97 3 O 17.5854 8.50652 3.23398 -1.2 -8.90479 -2.22242e+06 -3.31243e+06 -2.69217e+06 -445782 -649912 529438
98 3 O 17.5988 8.68343 5.77545 -1.2 -8.85196 -2.68549e+06 -4.19821e+06 -3.88707e+06 -1.051e+06 762059 456517
99 1 Mg 16.6817 5.05239 2.8704 1.2 -7.8917 -1.24165e+06 3.30132e+06 390963 1.2798e+06 -1.78371e+06 1.74479e+06
100 1 Mg 16.5295 2.33798 4.49491 1.2 -8.61186 2.0988e+06 554903 3.07371e+06 -792508 145720 371332
101 2 Si 18.7024 4.19357 4.26637 2.4 -33.4316 7.11096e+06 1.03963e+07 7.92686e+06 764767 -1.35212e+06 -275258
102 3 O 15.4584 4.19808 4.47439 -1.2 -9.26032 -471536 -3.83191e+06 -4.13102e+06 -14795.9 -1.16873e+06 161415
103 3 O 17.6583 0.551039 4.52939 -1.2 -8.76769 -4.42802e+06 -5.1482e+06 -3.11239e+06 457916 328819 -661251
104 3 O 18.0436 3.47633 3.04026 -1.2 -9.15195 -3.70359e+06 -4.27396e+06 -4.58694e+06 646729 1.28339e+06 -1.07242e+06
105 1 Mg 16.5458 5.18097 -0.232592 1.2 -7.6879 -592479 3.51955e+06 56149.1 985549 1.21224e+06 -1.48476e+06
106 3 O 17.9826 3.4983 5.59791 -1.2 -8.57478 -3.56489e+06 -2.93665e+06 -1.17853e+06 97920 -525464 22172.3
107 1 Mg 16.6578 7.8734 1.49363 1.2 -8.57728 1.47157e+06 1.0698e+06 3.41575e+06 -588694 -89974 -328605
108 2 Si 14.5942 6.08572 1.44488 2.4 -33.6991 6.0305e+06 9.53974e+06 9.04688e+06 300884 523961 -263566
109 3 O 17.6856 5.98956 1.34188 -1.2 -9.50217 -2.31776e+06 -3.71324e+06 -3.9631e+06 -343084 1.07888e+06 445321
110 3 O 15.5473 9.73669 1.51626 -1.2 -8.41619 -4.36455e+06 -3.37124e+06 -4.63361e+06 1.67262e+06 312922 -932236
111 3 O 15.1922 6.82972 0.143664 -1.2 -8.97599 -4.13347e+06 -3.59734e+06 -2.50094e+06 -224452 -1.19574e+06 802267
112 3 O 15.254 6.65714 2.75904 -1.2 -8.93406 -3.30713e+06 -3.82456e+06 -2.86117e+06 -359141 -166783 -766432
113 1 Mg 19.0339 0.103078 -0.0517778 1.2 -7.90236 -1.48019e+06 3.04094e+06 536596 -756906 -1.96151e+06 -1.57437e+06
114 1 Mg 23.6593 2.85715 1.45209 1.2 -8.57799 2.07245e+06 582775 3.10271e+06 953197 68499 433455
115 2 Si 21.0704 0.902872 1.32772 2.4 -33.8177 4.8144e+06 1.01037e+07 1.00756e+07 233211 -1.01406e+06 729329
116 3 O 22.61 0.931409 1.39929 -1.2 -9.25648 -2.99714e+06 -4.13967e+06 -5.63371e+06 182772 922689 226516
117 3 O 19.9607 4.58201 1.29918 -1.2 -9.0249 -2.26775e+06 -4.36364e+06 -3.51628e+06 -1.07152e+06 -158650 -140655
118 3 O 20.3953 1.5622 0.0653181 -1.2 -8.94234 -4.2013e+06 -4.50624e+06 -4.87447e+06 -962442 1.25044e+06 199064
119 1 Mg 18.9368 0.215195 2.95818 1.2 -8.18475 -663659 3.64033e+06 23848.7 -88964.5 757276 2.03043e+06
120 3 O 20.4036 1.71937 2.67834 -1.2 -8.43193 -3.93763e+06 -3.21437e+06 -1.47587e+06 -1.05648e+06 -1.71728e+06 6642.55
121 1 Mg 19.1218 7.49965 4.398 1.2 -8.40064 2.6812e+06 544516 2.49979e+06 562336 597133 490906
122 2 Si 21.7138 9.2831 4.38187 2.4 -33.6432 4.94281e+06 1.19762e+07 8.28366e+06 196426 115867 -617578
123 3 O 20.1934 9.36972 4.47088 -1.2 -9.71622 -4.03605e+06 -4.31088e+06 -3.29244e+06 -772364 -846444 354520
124 3 O 22.7707 5.60602 4.52762 -1.2 -8.62875 -3.21348e+06 -5.2498e+06 -2.51673e+06 -1.08214e+06 -108099 -397430
125 3 O 22.404 8.56115 3.15235 -1.2 -8.9975 -3.00781e+06 -4.14735e+06 -3.09727e+06 -515289 -1.44833e+06 -939512
126 3 O 22.4018 8.60852 5.75859 -1.2 -8.44995 -3.76171e+06 -4.08558e+06 -1.01152e+06 -927525 1.36856e+06 -669002
127 1 Mg 21.4476 5.09739 2.9283 1.2 -8.15103 -850566 3.93714e+06 899517 1.05265e+06 -788446 2.05182e+06
128 1 Mg 21.1834 2.20572 4.44058 1.2 -8.80464 1.80799e+06 257956 2.42577e+06 -96501.9 -216055 155564
129 2 Si 23.4101 4.11377 4.45685 2.4 -34.2433 6.1498e+06 1.1124e+07 7.76418e+06 1.38961e+06 -181871 734926
130 3 O 20.2863 4.17495 4.42922 -1.2 -9.32359 -1.75713e+06 -4.25963e+06 -3.03253e+06 -248333 841519 -284390
131 3 O 22.3511 0.516309 4.35041 -1.2 -8.70735 -2.05403e+06 -5.87969e+06 -4.57799e+06 965990 -206160 -912832
132 3 O 22.7764 3.47239 3.15046 -1.2 -8.72622 -3.61738e+06 -3.82876e+06 -3.13403e+06 -469412 785223 -931029
133 1 Mg 21.3296 5.21526 -0.112784 1.2 -8.02392 -748377 3.83488e+06 822622 785198 1.51569e+06 -1.4615e+06
134 3 O 22.7698 3.41228 5.71852 -1.2 -8.51002 -3.51956e+06 -4.77094e+06 -3.30613e+06 -64443.1 -947809 1.19161e+06
135 1 Mg 21.4564 8.05405 1.56631 1.2 -8.18513 1.76887e+06 453084 1.63503e+06 -525396 99569.5 -527084
136 2 Si 19.2743 6.06494 1.35763 2.4 -33.2557 6.83936e+06 9.7973e+06 9.35102e+06 -613565 1.80951e+06 359739
137 3 O 22.4972 6.03168 1.42103 -1.2 -9.40007 -1.97588e+06 -3.55898e+06 -4.13801e+06 -47572.7 -518000 -387491
138 3 O 20.3709 9.72553 1.42698 -1.2 -9.11177 -2.93892e+06 -3.24473e+06 -2.2064e+06 263689 -932985 -249784
139 3 O 19.8003 6.77791 0.0810791 -1.2 -8.93666 -3.79204e+06 -4.29495e+06 -3.43924e+06 -206350 -870554 549387
140 3 O 20.0372 6.63163 2.71825 -1.2 -9.01464 -2.65725e+06 -2.24064e+06 -1.47889e+06 611842 1.46973e+06 -91783.1
141 1 Mg 23.6924 -0.0274515 -0.0628842 1.2 -8.40797 -1.06849e+06 3.55399e+06 129626 -621156 -1.33913e+06 -1.69862e+06
142 1 Mg 28.5073 2.83375 1.45812 1.2 -9.01742 1.82336e+06 135979 3.32898e+06 541893 -231590 285939
143 2 Si 25.7931 1.01981 1.35466 2.4 -34.3609 4.93946e+06 1.02264e+07 9.12703e+06 321282 1.04112e+06 1.26553e+06
144 3 O 27.3353 0.872929 1.33228 -1.2 -8.84546 -3.8014e+06 -4.05918e+06 -4.37999e+06 -1.2307e+06 643164 -716053
145 3 O 24.7491 4.67681 1.38538 -1.2 -8.99473 -2.61662e+06 -5.38828e+06 -4.01406e+06 -769519 788156 -1.34889e+06
146 3 O 25.0732 1.63704 0.0849015 -1.2 -8.4492 -2.66559e+06 -4.70138e+06 -3.64028e+06 -125969 95769.5 495386
147 1 Mg 23.793 0.108459 2.83901 1.2 -8.09511 -284249 3.69994e+06 229050 -1.13178e+06 843960 1.94417e+06
148 3 O 25.1312 1.69465 2.63534 -1.2 -8.94709 -3.93777e+06 -3.63889e+06 -3.43316e+06 -437341 -1.14304e+06 -1.06035e+06
149 1 Mg 23.8477 7.34847 4.43987 1.2 -8.95263 1.54861e+06 1.48933e+06 2.77458e+06 1.21588e+06 -199071 493459
150 2 Si 26.4937 9.21564 4.39766 2.4 -34.7679 6.35362e+06 1.14501e+07 8.52065e+06 1.17356e+06 -437487 1.35467e+06
151 3 O 24.9408 9.3384 4.4256 -1.2 -8.68124 -1.25798e+06 -4.49464e+06 -3.96886e+06 -1.17715e+06 -572685 -442386
152 3 O 27.511 5.60552 4.42676 -1.2 -8.89108 -2.14129e+06 -6.05874e+06 -3.59285e+06 -1.62735e+06 -719841 -474686
153 3 O 27.1923 8.63326 3.06688 -1.2 -8.48356 -3.34041e+06 -4.89783e+06 -3.04168e+06 -783063 -1.20891e+06 -1.57856e+06
154 3 O 27.1809 8.56426 5.62299 -1.2 -8.49884 -2.9693e+06 -4.99162e+06 -3.42592e+06 -391338 -138136 1.11441e+06
155 1 Mg 26.124 5.14257 2.90173 1.2 -8.2339 -1.03225e+06 4.98518e+06 556513 530967 -1.30306e+06 1.8039e+06
156 1 Mg 25.8467 2.24182 4.40319 1.2 -8.67039 2.1587e+06 1.73063e+06 2.67845e+06 -640413 -462004 -14038.6
157 2 Si 28.1754 4.14111 4.40397 2.4 -34.2175 3.95917e+06 1.24812e+07 9.51233e+06 -359890 -24292.8 965451
158 3 O 24.973 4.22309 4.46471 -1.2 -9.04427 -2.82364e+06 -3.78128e+06 -3.76528e+06 775415 85069.9 -360603
159 3 O 27.0243 0.392922 4.4046 -1.2 -8.32953 -2.05865e+06 -4.20223e+06 -3.02654e+06 -60936.5 -401082 2.10608e+06
160 3 O 27.439 3.44055 3.14216 -1.2 -8.49076 -2.52791e+06 -3.02429e+06 -2.85863e+06 581585 648521 -605881
161 1 Mg 26.0567 5.21902 -0.0159248 1.2 -8.08395 -1.94172e+06 3.81008e+06 64622.7 1.01776e+06 1.95172e+06 -1.22369e+06
162 3 O 27.5042 3.48222 5.75956 -1.2 -8.27351 -2.83659e+06 -3.60175e+06 -1.74183e+06 1.03449e+06 -724361 -308133
163 1 Mg 26.2842 8.04128 1.31867 1.2 -8.7359 1.54829e+06 673648 1.96798e+06 21576.3 -66268.3 1.02196e+06
164 2 Si 24.0498 6.13463 1.34263 2.4 -33.7855 5.36136e+06 1.06235e+07 9.94816e+06 1.08653e+06 960005 602778
165 3 O 27.2573 6.07941 1.42558 -1.2 -9.35508 -1.4064e+06 -4.4321e+06 -4.42508e+06 -137041 357173 -925996
166 3 O 25.115 9.69104 1.46674 -1.2 -8.74629 -1.99423e+06 -4.64955e+06 -4.31872e+06 1.46186e+06 -290424 458940
167 3 O 24.7904 6.86837 0.0964197 -1.2 -8.96113 -2.69132e+06 -2.79711e+06 -3.1387e+06 720387 -1.54423e+06 -919800
168 3 O 24.7218 6.78002 2.64926 -1.2 -8.41107 -2.73681e+06 -4.92132e+06 -2.46353e+06 -113624 1.21537e+06 -1.11917e+06
169 1 Mg 28.4344 -0.068023 -0.070738 1.2 -8.51967 -1.3664e+06 4.01529e+06 -451985 -325892 -1.10641e+06 -951923
170 1 Mg 33.1204 2.8409 1.55121 1.2 -8.52614 2.21879e+06 460990 2.29003e+06 1.08066e+06 448347 -959177
171 2 Si 30.5862 0.926149 1.50157 2.4 -34.1778 4.61683e+06 1.06836e+07 9.3523e+06 -61376.7 1.17572e+06 898165
172 3 O 32.0869 0.853046 1.48945 -1.2 -9.58771 -4.20774e+06 -3.71221e+06 -3.84335e+06 -29834.5 -100995 -298870
173 3 O 29.5035 4.58728 1.51404 -1.2 -9.04185 -1.89304e+06 -5.63835e+06 -3.54653e+06 -1.28391e+06 -10665.9 -880043
174 3 O 29.827 1.67359 0.252621 -1.2 -8.23019 -2.46537e+06 -4.20819e+06 -3.3449e+06 -646446 1.3252e+06 369574
175 1 Mg 28.4659 -0.0818977 2.87384 1.2 -8.19781 -605609 4.20749e+06 1.80851e+06 -822419 1.05116e+06 2.06371e+06
176 3 O 29.8824 1.60749 2.73404 -1.2 -8.42502 -2.89209e+06 -3.00124e+06 -5.81371e+06 19963.8 -656050 -536112
177 1 Mg 28.5722 7.3686 4.40246 1.2 -8.65482 1.13017e+06 1.2055e+06 2.90077e+06 1.03447e+06 -132053 -37273
178 2 Si 31.2076 9.19762 4.32403 2.4 -33.9889 4.7769e+06 1.06928e+07 8.43209e+06 414958 353069 1.18918e+06
179 3 O 29.6911 9.29626 4.29027 -1.2 -8.95122 -4.54694e+06 -3.87287e+06 -4.09066e+06 -265730 -492008 -1.06453e+06
180 3 O 32.3505 5.62381 4.58794 -1.2 -9.2296 -2.84684e+06 -4.2072e+06 -2.7639e+06 -201213 349819 -809281
181 3 O 31.9056 8.56603 3.08347 -1.2 -9.09938 -3.73989e+06 -4.30733e+06 -3.48438e+06 118500 282053 -1.66217e+06
182 3 O 31.8027 8.52022 5.66926 -1.2 -8.73732 -3.33815e+06 -4.60422e+06 -1.96167e+06 630568 813379 471037
183 1 Mg 30.8823 5.13452 2.97161 1.2 -7.69419 -398244 4.84604e+06 -147776 1.29821e+06 -1.60328e+06 1.97203e+06
184 1 Mg 30.8426 2.26522 4.43327 1.2 -8.92335 2.58857e+06 -428359 2.32939e+06 -563803 -409206 583.836
185 2 Si 32.9528 4.12023 4.50213 2.4 -33.1601 3.75806e+06 1.20304e+07 7.27942e+06 1.52849e+06 1.05921e+06 2.14669e+06
186 3 O 29.6923 4.03361 4.44539 -1.2 -9.38095 -2.52443e+06 -4.71144e+06 -4.55447e+06 256778 908083 -936732
187 3 O 31.8359 0.465299 4.43548 -1.2 -8.79883 -4.3797e+06 -4.03759e+06 -3.11099e+06 1.65755e+06 -151803 -223100
188 3 O 32.2309 3.39542 3.16729 -1.2 -8.90797 -3.07767e+06 -2.1098e+06 -3.0548e+06 -267292 1.63422e+06 682400
189 1 Mg 30.9221 5.05417 -0.0872956 1.2 -7.99034 -509649 3.60477e+06 298126 1.13183e+06 1.2701e+06 -1.43644e+06
190 3 O 32.2957 3.35142 5.65802 -1.2 -9.30037 -3.67865e+06 -4.43916e+06 -4.89187e+06 -485182 -663342 37388.1
191 1 Mg 30.9408 7.90406 1.35486 1.2 -8.48858 2.19109e+06 713878 1.41877e+06 -1.04429e+06 590024 1.15646e+06
192 2 Si 28.8227 6.05134 1.44038 2.4 -33.4191 5.13498e+06 1.19942e+07 9.28848e+06 -173065 -646549 1.02327e+06
193 3 O 32.1031 6.00663 1.54302 -1.2 -9.48145 -1.49715e+06 -4.49537e+06 -2.02913e+06 551422 -34776.6 -1.26771e+06
194 3 O 29.8659 9.70917 1.34532 -1.2 -8.83614 -3.39123e+06 -3.9069e+06 -4.21125e+06 512367 -51459.7 -754481
195 3 O 29.5196 6.70933 0.0817797 -1.2 -8.9278 -1.97737e+06 -3.78887e+06 -1.71133e+06 534505 -1.29442e+06 -705739
196 3 O 29.5155 6.75032 2.69891 -1.2 -9.07516 -2.79743e+06 -4.60217e+06 -1.96805e+06 216418 1.03908e+06 -1.67608e+06
197 1 Mg 33.3026 0.0794721 -0.0221373 1.2 -7.81134 -828608 3.97386e+06 336172 -1.00258e+06 -881259 -1.30938e+06
198 1 Mg 37.9753 2.84631 1.40987 1.2 -8.76131 2.94046e+06 -283573 2.61873e+06 497107 -164944 -103340
199 2 Si 35.3061 1.03727 1.38632 2.4 -33.7611 5.91779e+06 1.12905e+07 8.50577e+06 826650 -620241 -937380
200 3 O 36.8944 0.928653 1.37568 -1.2 -9.20748 -2.68397e+06 -3.55803e+06 -4.07275e+06 -631441 419680 95119.5
201 3 O 34.3084 4.59565 1.41393 -1.2 -8.65758 -3.01844e+06 -5.40955e+06 -3.62419e+06 -1.41635e+06 -342389 -427823
202 3 O 34.6146 1.66792 0.154896 -1.2 -8.98397 -3.23534e+06 -4.27485e+06 -2.81671e+06 -59804.6 -229589 1.0588e+06
203 1 Mg 33.228 -0.0501977 2.95832 1.2 -8.12479 260785 3.85332e+06 48665.3 -881339 1.1132e+06 2.07878e+06
204 3 O 34.6865 1.63331 2.73268 -1.2 -8.68731 -3.47098e+06 -3.81624e+06 -2.1763e+06 -167707 -763554 -46376.1
205 1 Mg 33.2936 7.41561 4.3614 1.2 -8.57927 1.75621e+06 263095 3.48717e+06 747701 -485595 122355
206 2 Si 35.9686 9.2524 4.44456 2.4 -34.5903 5.96523e+06 1.23557e+07 8.27719e+06 -418397 -1.82947e+06 937542
207 3 O 34.4463 9.32901 4.45155 -1.2 -9.03497 -2.58562e+06 -5.18814e+06 -3.24517e+06 477738 543005 -262472
208 3 O 36.9399 5.60745 4.43177 -1.2 -8.81177 -2.78672e+06 -4.3268e+06 -3.44682e+06 -1.422e+06 253359 -152993
209 3 O 36.7361 8.58776 3.13591 -1.2 -8.40286 -2.1203e+06 -3.99454e+06 -2.72594e+06 -1.20735e+06 -1.38784e+06 -303067
210 3 O 36.6362 8.48357 5.65957 -1.2 -8.60071 -3.38434e+06 -4.10115e+06 -3.77301e+06 -217721 1.13405e+06 776228
211 1 Mg 35.5557 5.09019 2.96426 1.2 -8.18696 -1.74832e+06 4.20728e+06 -678064 706957 -1.27097e+06 2.52478e+06
212 1 Mg 35.5456 2.30779 4.46232 1.2 -8.70609 1.67441e+06 1.08685e+06 2.31708e+06 -754569 -147779 593710
213 2 Si 37.6779 4.0922 4.44862 2.4 -33.3708 6.74686e+06 1.20949e+07 6.92896e+06 -679073 -805567 539639
214 3 O 34.4742 4.28676 4.42365 -1.2 -9.39969 -3.84003e+06 -5.10008e+06 -4.12187e+06 523290 976195 -210553
215 3 O 36.6416 0.497347 4.44859 -1.2 -8.64583 -3.55456e+06 -3.99849e+06 -3.04939e+06 1.01206e+06 257310 258933
216 3 O 36.9868 3.37984 3.22506 -1.2 -8.88216 -2.88404e+06 -4.21055e+06 -2.25061e+06 698944 640274 -765158
217 1 Mg 35.6895 5.16485 -0.0715461 1.2 -8.23757 -1.25984e+06 4.23325e+06 90843.6 2.08706e+06 1.49712e+06 -1.26369e+06
218 3 O 37.0415 3.46096 5.76601 -1.2 -8.92399 -2.76408e+06 -3.40363e+06 -2.28155e+06 794488 -368642 -14214.4
219 1 Mg 35.9118 7.85613 1.44194 1.2 -8.82837 1.13829e+06 968046 3.53382e+06 -513830 -408967 145270
220 2 Si 33.6582 6.09549 1.39697 2.4 -33.7073 5.9835e+06 1.19087e+07 7.05166e+06 650471 15833.9 2.25379e+06
221 3 O 36.8265 5.96261 1.54133 -1.2 -9.40563 -1.39571e+06 -3.55887e+06 -4.01276e+06 537522 1.05631e+06 -473693
222 3 O 34.6793 9.60124 1.26757 -1.2 -8.59219 -2.37954e+06 -4.85029e+06 -3.48803e+06 450350 240695 -460841
223 3 O 34.3851 6.65827 0.160701 -1.2 -8.88909 -2.60184e+06 -6.15727e+06 -3.88468e+06 -37549.4 153611 765654
224 3 O 34.3799 6.77524 2.71802 -1.2 -8.64388 -2.93468e+06 -3.82725e+06 -2.04689e+06 441778 985061 -440493
225 1 Mg 38.0287 -0.0525753 0.0123549 1.2 -7.95309 -413049 4.14168e+06 -427211 -1.13541e+06 -703510 -1.44743e+06
226 1 Mg 42.6891 2.85009 1.47062 1.2 -9.25284 1.93468e+06 692166 1.85582e+06 684965 114259 261134
227 2 Si 40.1024 1.01118 1.50645 2.4 -34.1499 8.37018e+06 1.22332e+07 7.86253e+06 61390.6 -61582.2 -886822
228 3 O 41.6497 0.94954 1.45598 -1.2 -8.93742 -2.79902e+06 -4.46886e+06 -2.73216e+06 -554691 107867 156034
229 3 O 39.0938 4.52198 1.45231 -1.2 -9.05161 -2.45941e+06 -4.33384e+06 -1.86385e+06 -752760 -100875 183379
230 3 O 39.3682 1.75094 0.207059 -1.2 -8.64717 -3.89057e+06 -2.49487e+06 -1.52714e+06 -859564 1.57652e+06 -356744
231 1 Mg 37.9177 -0.0227091 2.89916 1.2 -8.21939 444501 4.42495e+06 -970332 -887762 657482 1.56971e+06
232 3 O 39.3474 1.6762 2.74041 -1.2 -8.56595 -4.00662e+06 -3.52246e+06 -2.2406e+06 -126365 -746625 78465.3
233 1 Mg 38.2062 7.37855 4.50052 1.2 -8.57937 2.62619e+06 861847 1.04926e+06 47830.8 -125860 313453
234 2 Si 40.703 9.11248 4.43698 2.4 -34.2226 6.97102e+06 9.31357e+06 6.57914e+06 -1.16419e+06 -1.6708e+06 1.78622e+06
235 3 O 39.161 9.31238 4.46277 -1.2 -9.23367 -5.60916e+06 -3.58493e+06 -3.8134e+06 -456752 -1.08979e+06 -413980
236 3 O 41.7808 5.61667 4.48601 -1.2 -8.85249 -3.58575e+06 -4.84741e+06 -3.77296e+06 -1.22619e+06 23121.8 -528059
237 3 O 41.4887 8.49431 3.20453 -1.2 -8.57841 -3.17879e+06 -4.57008e+06 -3.70442e+06 56469.8 -885752 -1.67179e+06
238 3 O 41.3163 8.48364 5.69354 -1.2 -8.4721 -4.62908e+06 -6.26325e+06 -4.55005e+06 700288 1.42699e+06 1.63317e+06
239 1 Mg 40.5169 5.07976 3.02553 1.2 -8.09262 -853836 3.68011e+06 -551791 1.16613e+06 -2.33341e+06 2.55817e+06
240 1 Mg 40.2403 2.36946 4.52036 1.2 -8.54145 2.31161e+06 61893.7 2.58038e+06 -742850 -313830 440080
241 2 Si 42.4464 4.08994 4.52263 2.4 -33.8018 5.43269e+06 1.13747e+07 7.7922e+06 -861755 -218087 1.75635e+06
242 3 O 39.2518 4.2239 4.49409 -1.2 -9.60255 -2.35604e+06 -5.12044e+06 -3.41428e+06 253081 404878 42684.9
243 3 O 41.3649 0.523638 4.45966 -1.2 -8.71229 -2.08013e+06 -4.02885e+06 -3.34152e+06 1.68883e+06 139842 -41847.2
244 3 O 41.7968 3.40742 3.19305 -1.2 -8.44872 -4.59923e+06 -3.87995e+06 -2.04422e+06 334973 1.2826e+06 -86304.5
245 1 Mg 40.4532 5.09763 -0.0808563 1.2 -8.19205 749749 4.31365e+06 103840 810036 1.13641e+06 -1.49637e+06
246 3 O 41.7061 3.48011 5.73622 -1.2 -9.27678 -4.26223e+06 -4.80761e+06 -3.53763e+06 152064 461448 433783
247 1 Mg 40.3937 7.91964 1.40614 1.2 -8.43695 2.35688e+06 576902 2.53979e+06 -1.62474e+06 313999 569094
248 2 Si 38.4125 6.00605 1.64548 2.4 -33.0012 8.49236e+06 1.00181e+07 8.54292e+06 -1.14658e+06 -909106 374317
249 3 O 41.6226 6.02894 1.53117 -1.2 -8.91011 -1.33997e+06 -4.08283e+06 -3.44176e+06 1.09899e+06 220502 -277705
250 3 O 39.4063 9.72433 1.49001 -1.2 -9.04807 -4.34498e+06 -4.28872e+06 -2.79159e+06 1.1969e+06 151519 -633933
251 3 O 39.0792 6.78963 0.29069 -1.2 -8.94365 -3.81509e+06 -2.2214e+06 733662 502304 -1.60002e+06 -439097
252 3 O 39.1211 6.59968 2.90472 -1.2 -9.33602 -4.33984e+06 -3.46123e+06 -2.85993e+06 980802 1.3907e+06 -567199
253 1 Mg 42.7238 0.00298117 -0.115984 1.2 -8.31752 -336398 3.92959e+06 412377 -1.08459e+06 -1.21775e+06 -1.50641e+06
254 1 Mg 47.5664 2.78245 1.3627 1.2 -8.64848 2.98658e+06 544592 1.86351e+06 923409 -641236 631276
255 2 Si 44.8468 1.04106 1.464 2.4 -34.523 7.80526e+06 1.16184e+07 7.45681e+06 -100031 146633 655649
256 3 O 46.3662 0.814106 1.45983 -1.2 -9.19128 -4.44861e+06 -4.08929e+06 -2.65797e+06 -1.11439e+06 458493 -506513
257 3 O 43.7812 4.5755 1.59723 -1.2 -8.47753 -3.9177e+06 -4.79903e+06 -3.35528e+06 -722997 -81804.6 -286589
258 3 O 44.1213 1.68845 0.168632 -1.2 -8.48227 -3.34545e+06 -3.94529e+06 -2.2477e+06 -280027 1.61146e+06 480160
259 1 Mg 42.8171 -0.00306979 3.07701 1.2 -8.37277 -274870 4.51956e+06 -99908.8 -460853 720683 1.35063e+06
260 3 O 44.1342 1.71912 2.73877 -1.2 -8.31696 -4.01542e+06 -4.84929e+06 -1.79109e+06 -201721 -1.33163e+06 -1.14183e+06
261 1 Mg 42.7975 7.33689 4.39786 1.2 -8.88757 1.60899e+06 42492 1.66057e+06 397159 23104.4 273836
262 2 Si 45.4341 9.08824 4.39484 2.4 -34.144 8.28085e+06 1.10222e+07 8.00846e+06 99131.5 407953 2.15927e+06
263 3 O 43.8541 9.17671 4.4505 -1.2 -8.86455 -2.93113e+06 -4.3429e+06 -4.16633e+06 -774979 -657125 -1.12778e+06
264 3 O 46.5324 5.55655 4.49461 -1.2 -9.0449 -3.29905e+06 -3.84942e+06 -3.33418e+06 -348605 -616195 412647
265 3 O 46.1541 8.51397 3.13632 -1.2 -8.82754 -3.81233e+06 -3.68152e+06 -2.58541e+06 262412 -551243 -1.90405e+06
266 3 O 46.1846 8.60706 5.70525 -1.2 -8.71429 -4.16116e+06 -4.846e+06 -2.01067e+06 515143 723826 917158
267 1 Mg 45.1959 5.11809 3.04587 1.2 -8.263 -409189 4.29948e+06 -952914 1.64955e+06 -2.1552e+06 2.0776e+06
268 1 Mg 45.1643 2.15828 4.4639 1.2 -8.69872 2.04259e+06 -975423 3.02102e+06 -530186 31355.6 -629695
269 2 Si 47.1755 4.05731 4.38996 2.4 -33.6691 6.12779e+06 9.49331e+06 8.39838e+06 -91261.2 456686 1.23316e+06
270 3 O 43.981 4.11004 4.53326 -1.2 -9.04832 -2.92404e+06 -3.88042e+06 -4.85994e+06 336502 -743685 -677015
271 3 O 46.1091 0.483352 4.44756 -1.2 -9.12927 -2.49826e+06 -3.82105e+06 -3.20309e+06 1.89695e+06 -221605 960458
272 3 O 46.4924 3.3907 3.07502 -1.2 -8.5783 -4.69083e+06 -2.34248e+06 -1.57938e+06 -374444 484075 311679
273 1 Mg 45.0986 5.00942 0.0546283 1.2 -8.16833 488857 3.86017e+06 80012.4 1.482e+06 1.37222e+06 -2.06151e+06