ITEM: TIMESTEP
500
ITEM: NUMBER OF ATOMS
38213
ITEM: BOX BOUNDS pp pp pp
0.0000000000000000e+00 7.1234999999999999e+01
0.0000000000000000e+00 7.1389499999999998e+01
0.0000000000000000e+00 7.7729600000000005e+01
ITEM: ATOMS id type element xu yu zu q c_pe c_s[1] c_s[2] c_s[3] c_s[4] c_s[5] c_s[6]
1 1 Mg -0.0542708 0.107475 0.00657271 1.2 -7.97184 52824.5 3.46763e+06 -457926 -1.16165e+06 -1.46647e+06 -1.60591e+06
2 1 Mg 4.76621 2.7037 1.44334 1.2 -8.59772 1.97408e+06 850270 2.86758e+06 675951 22306.8 529609
3 2 Si 2.04992 1.07542 1.4283 2.4 -33.6149 7.00957e+06 1.07901e+07 7.67189e+06 262181 -606564 306231
4 3 O 3.59796 0.926838 1.46633 -1.2 -9.29294 -3.03217e+06 -4.26803e+06 -4.03747e+06 -240443 161393 429353
5 3 O 1.00205 4.54687 1.46022 -1.2 -9.11643 -2.8969e+06 -3.62033e+06 -3.18328e+06 -1.30932e+06 639235 -34597
6 3 O 1.30539 1.67216 0.206729 -1.2 -9.03515 -3.7278e+06 -5.21574e+06 -3.09168e+06 39706.4 968258 1.21512e+06
7 1 Mg 0.0945286 0.0309049 3.06858 1.2 -7.90347 -160847 3.01705e+06 474374 -1.11869e+06 811515 2.05798e+06
8 3 O 1.39527 1.62517 2.791 -1.2 -9.00103 -3.73824e+06 -3.71366e+06 -2.37535e+06 -22240.5 -1.17168e+06 -713832
9 1 Mg 0.0887154 7.40727 4.37695 1.2 -8.5597 2.06748e+06 -439169 2.55955e+06 842058 -177938 256073
10 2 Si 2.69545 9.22359 4.52522 2.4 -33.9133 6.37579e+06 1.01046e+07 6.95416e+06 -624138 -208291 -192418
11 3 O 1.14407 9.22677 4.49071 -1.2 -9.11972 -3.83937e+06 -4.35334e+06 -4.02791e+06 -48629.8 831353 407011
12 3 O 3.65896 5.61841 4.46574 -1.2 -9.07091 -3.11777e+06 -4.10625e+06 -3.31812e+06 -970137 -124430 -96789
13 3 O 3.36895 8.52437 3.28261 -1.2 -8.89007 -4.4049e+06 -4.24488e+06 -4.1679e+06 185685 -249857 -1.12464e+06
14 3 O 3.43584 8.55673 5.77319 -1.2 -8.88235 -4.17745e+06 -4.28891e+06 -3.61015e+06 136082 967931 876343
15 1 Mg 2.41667 5.16472 2.95122 1.2 -7.75583 -504670 4.27758e+06 -452260 618632 -1.61387e+06 1.57748e+06
16 1 Mg 2.30824 2.26158 4.46393 1.2 -8.54933 2.31303e+06 490087 1.89117e+06 -729049 -401110 24910.4
17 2 Si 4.41607 4.14553 4.50634 2.4 -33.5829 7.37606e+06 1.04139e+07 8.69619e+06 26767.3 -117487 1.10541e+06
18 3 O 1.2576 4.16711 4.50396 -1.2 -9.57241 -5.67408e+06 -3.41904e+06 -4.02368e+06 1342.36 -60821 -490914
19 3 O 3.36734 0.46176 4.47796 -1.2 -8.7693 -4.84981e+06 -4.60477e+06 -3.51237e+06 2.01323e+06 1.06922e+06 -164788
20 3 O 3.82596 3.42708 3.16987 -1.2 -8.81694 -3.07637e+06 -2.41679e+06 -1.53443e+06 95754.7 1.35917e+06 -24718.5
21 1 Mg 2.37154 5.10363 0.0560214 1.2 -8.06304 -233885 4.21392e+06 -493664 833022 1.55977e+06 -1.26359e+06
22 3 O 3.74284 3.44882 5.74075 -1.2 -8.92641 -3.35504e+06 -3.53429e+06 -2.00293e+06 207649 -482168 210452
23 1 Mg 2.42788 7.97274 1.52665 1.2 -8.66531 2.14846e+06 454029 2.42259e+06 -1.13565e+06 -37768.8 167708
24 2 Si 0.316912 6.06065 1.45105 2.4 -33.1435 7.27571e+06 1.08108e+07 7.03606e+06 61937.2 -908738 217456
25 3 O 3.55753 6.10336 1.47612 -1.2 -9.36509 -3.86258e+06 -3.69927e+06 -4.3397e+06 766580 438206 -326364
26 3 O 1.42676 9.81368 1.49844 -1.2 -8.7596 -3.49022e+06 -5.22341e+06 -3.99078e+06 1.49316e+06 1.13556e+06 -706645
27 3 O 0.990609 6.71518 0.163063 -1.2 -8.93862 -3.34125e+06 -3.22506e+06 -3.41547e+06 529036 -919737 -135644
28 3 O 1.0909 6.78526 2.64645 -1.2 -9.12015 -4.32527e+06 -2.90046e+06 -3.43551e+06 302927 1.13248e+06 -919887
29 1 Mg 4.7715 -0.105249 0.0352868 1.2 -8.12331 -499492 3.8198e+06 315641 -1.07115e+06 -1.55176e+06 -1.86821e+06
30 1 Mg 9.34592 2.81626 1.45433 1.2 -8.94648 1.77557e+06 521026 1.92947e+06 875175 -358873 152290
31 2 Si 6.84581 0.883246 1.51348 2.4 -33.8967 6.23222e+06 1.02651e+07 8.38777e+06 218693 -293445 -419980
32 3 O 8.39108 0.890747 1.49625 -1.2 -9.19161 -3.83619e+06 -5.26298e+06 -4.20512e+06 122621 42197.8 -305806
33 3 O 5.76645 4.61241 1.48579 -1.2 -8.85671 -3.05373e+06 -3.21962e+06 -3.01169e+06 -1.33387e+06 402825 700835
34 3 O 6.15536 1.51514 0.18075 -1.2 -8.77382 -3.48037e+06 -3.36404e+06 -2.42076e+06 -588150 1.30458e+06 777551
35 1 Mg 4.70424 0.200776 3.06303 1.2 -8.33031 -1.32822e+06 3.42537e+06 -444086 -1.48681e+06 1.90584e+06 1.7061e+06
36 3 O 6.10228 1.60856 2.75698 -1.2 -8.82344 -3.75248e+06 -5.85304e+06 -2.64388e+06 -1.02991e+06 -1.13973e+06 -923986
37 1 Mg 4.77169 7.4079 4.42367 1.2 -8.5591 2.4652e+06 10251.2 2.44086e+06 686104 -105971 -74252.5
38 2 Si 7.46725 9.18673 4.42039 2.4 -33.9657 7.0416e+06 9.93471e+06 8.36855e+06 -20202.2 1.0549e+06 376796
39 3 O 5.92271 9.33944 4.44254 -1.2 -9.38158 -3.39931e+06 -4.26228e+06 -3.87922e+06 -205520 -167713 -25738.4
40 3 O 8.55804 5.51726 4.38627 -1.2 -8.75222 -3.43349e+06 -5.09576e+06 -4.21168e+06 -1.77953e+06 -201156 -278375
41 3 O 8.11971 8.58755 3.1026 -1.2 -8.80364 -4.18202e+06 -3.77963e+06 -3.00194e+06 -336652 -1.35536e+06 -871113
42 3 O 8.19753 8.48715 5.66637 -1.2 -8.6477 -3.15264e+06 -4.08296e+06 -1.8025e+06 -333308 661887 1.19465e+06
43 1 Mg 7.13577 5.11932 3.02117 1.2 -8.18483 -459569 3.73648e+06 -420965 176303 -1.07854e+06 1.77397e+06
44 1 Mg 7.00486 2.2738 4.43281 1.2 -8.64435 2.21446e+06 650340 2.29393e+06 -626380 -148444 -88307.7
45 2 Si 9.23899 4.01265 4.45242 2.4 -34.2404 6.68233e+06 1.06511e+07 9.27743e+06 -428220 188169 650102
46 3 O 5.98708 4.33229 4.50325 -1.2 -9.32002 -2.3116e+06 -3.52591e+06 -4.03217e+06 252793 -92730.3 -502949
47 3 O 8.17678 0.548702 4.51582 -1.2 -8.65136 -3.6297e+06 -5.68204e+06 -3.6479e+06 908914 361960 -292572
48 3 O 8.49012 3.35216 3.19004 -1.2 -8.5547 -3.02726e+06 -4.64705e+06 -2.90869e+06 591693 1.24792e+06 -768547
49 1 Mg 7.11994 5.08002 0.0466375 1.2 -8.10383 -421587 3.70465e+06 -425421 363732 1.50831e+06 -1.64341e+06
50 3 O 8.51168 3.46035 5.75845 -1.2 -8.56641 -3.529e+06 -4.47688e+06 -2.53373e+06 217737 -762414 399521
51 1 Mg 7.16988 7.91133 1.3904 1.2 -8.74015 1.8085e+06 12049.1 1.92337e+06 -1.16215e+06 459758 596847
52 2 Si 5.08534 6.13199 1.48545 2.4 -33.8524 5.65139e+06 1.11555e+07 7.84938e+06 -1.04779e+06 213745 95399.4
53 3 O 8.22504 6.01183 1.53904 -1.2 -9.21463 -2.83894e+06 -4.26931e+06 -3.89696e+06 1.39061e+06 292832 -74758.7
54 3 O 6.05128 9.64026 1.50783 -1.2 -8.8276 -3.11409e+06 -3.70886e+06 -3.31097e+06 1.66815e+06 -327687 239056
55 3 O 5.76221 6.76225 0.167032 -1.2 -8.645 -3.99785e+06 -3.82582e+06 -2.97257e+06 50333.1 -782413 -258575
56 3 O 5.76849 6.85136 2.70443 -1.2 -8.8218 -4.00584e+06 -3.7813e+06 -3.14695e+06 420203 376196 -502713
57 1 Mg 9.41132 0.137964 -0.06806 1.2 -8.5053 -717789 4.01914e+06 306094 -246467 -1.37727e+06 -1.9167e+06
58 1 Mg 14.1118 2.76593 1.31365 1.2 -8.8171 2.52767e+06 568178 3.30982e+06 1.76777e+06 -265979 708497
59 2 Si 11.4819 0.959391 1.53746 2.4 -34.3981 6.38576e+06 9.48118e+06 9.21056e+06 -134745 459443 1.15105e+06
60 3 O 13.0488 0.841351 1.50408 -1.2 -9.17205 -1.53267e+06 -3.44453e+06 -3.95833e+06 -1.01934e+06 -613628 -404434
61 3 O 10.4174 4.6468 1.48375 -1.2 -8.46987 -3.34298e+06 -5.53925e+06 -3.68043e+06 -1.28653e+06 110299 234314
62 3 O 10.8445 1.69419 0.261846 -1.2 -8.40141 -3.17202e+06 -4.98855e+06 -3.35127e+06 -344232 936721 755001
63 1 Mg 9.4658 0.0147079 3.02615 1.2 -8.35114 -1.60136e+06 4.46171e+06 -23803 -61009.8 1.4797e+06 2.0247e+06
64 3 O 10.8357 1.68732 2.83616 -1.2 -8.35989 -3.86645e+06 -3.67746e+06 -3.37611e+06 -604374 -1.32423e+06 -749863
65 1 Mg 9.51271 7.31832 4.43769 1.2 -8.67938 2.19965e+06 529562 2.57174e+06 839738 408379 -139413
66 2 Si 12.1949 9.19482 4.45556 2.4 -34.3864 6.68447e+06 1.06679e+07 8.85025e+06 -2809.22 -488433 504407
67 3 O 10.634 9.29215 4.44938 -1.2 -8.92014 -3.4186e+06 -4.30167e+06 -4.01327e+06 -5531.39 90222.1 -225057
68 3 O 13.1986 5.5632 4.49657 -1.2 -8.51957 -3.30604e+06 -5.13833e+06 -4.3394e+06 -896849 336035 209102
69 3 O 12.8804 8.52797 3.1766 -1.2 -8.63028 -3.87821e+06 -3.33756e+06 -3.0143e+06 2666.94 -356222 -444666
70 3 O 12.8066 8.50012 5.76191 -1.2 -8.51891 -4.12278e+06 -4.21918e+06 -1.7033e+06 -194597 767384 671115
71 1 Mg 11.8332 5.11071 3.0324 1.2 -8.31287 -425517 4.01373e+06 142817 956166 -942679 1.83352e+06
72 1 Mg 11.7968 2.26828 4.48252 1.2 -8.94732 1.76226e+06 -30745.6 2.17698e+06 -30972.8 -180444 140392
73 2 Si 13.9379 4.08889 4.46209 2.4 -34.7007 5.84187e+06 9.75933e+06 9.50448e+06 125106 -218860 579419
74 3 O 10.786 4.07393 4.47371 -1.2 -9.07496 -3.26827e+06 -4.46397e+06 -4.24688e+06 357936 456986 -398431
75 3 O 12.8416 0.50125 4.44895 -1.2 -8.84648 -2.29603e+06 -4.89353e+06 -3.57914e+06 1.75063e+06 -9570.58 454548
76 3 O 13.2775 3.41745 3.1822 -1.2 -8.35926 -3.97392e+06 -3.69461e+06 -1.87878e+06 -399675 724901 -563327
77 1 Mg 11.8732 5.03573 0.0576713 1.2 -8.38101 -418424 4.11521e+06 11943.9 1.0497e+06 871969 -1.59499e+06
78 3 O 13.3279 3.4528 5.77274 -1.2 -8.42595 -3.92254e+06 -3.87869e+06 -2.99932e+06 -162582 -572756 907271
79 1 Mg 11.9794 7.89246 1.49838 1.2 -8.86572 2.104e+06 658786 2.68614e+06 -698672 -148873 113937
80 2 Si 9.80241 6.14548 1.56182 2.4 -34.0421 7.3131e+06 1.03945e+07 7.7187e+06 173653 -986147 349899
81 3 O 12.9872 5.92893 1.5171 -1.2 -9.14887 -3.24678e+06 -4.019e+06 -3.85329e+06 127343 -564110 70815.5
82 3 O 10.8979 9.69587 1.50435 -1.2 -8.68627 -2.69383e+06 -3.9574e+06 -4.46605e+06 1.85574e+06 -277345 -55472.3
83 3 O 10.5396 6.7806 0.27316 -1.2 -8.60023 -2.97039e+06 -4.67546e+06 -2.98465e+06 341202 -1.27804e+06 886644
84 3 O 10.5172 6.7616 2.79844 -1.2 -8.85138 -3.8226e+06 -4.37361e+06 -4.59872e+06 -271637 1.08648e+06 -1.46095e+06
85 1 Mg 14.2239 -0.135081 0.0618943 1.2 -7.91002 -86884.6 3.99069e+06 268450 -642717 -1.35784e+06 -1.4816e+06
86 1 Mg 18.851 2.87297 1.47298 1.2 -8.85757 2.90563e+06 359432 2.25542e+06 777380 -308628 325410
87 2 Si 16.2754 0.992139 1.48005 2.4 -34.1078 5.84242e+06 1.09174e+07 8.24313e+06 -70906 -782101 256661
88 3 O 17.842 0.929335 1.43742 -1.2 -8.99325 -2.47374e+06 -3.94002e+06 -4.82305e+06 -571313 362251 -150731
89 3 O 15.2973 4.61331 1.50438 -1.2 -8.23926 -2.32668e+06 -5.10825e+06 -3.82498e+06 -474078 117071 203348
90 3 O 15.6206 1.68803 0.258486 -1.2 -8.75742 -4.25641e+06 -3.79133e+06 -3.07105e+06 130047 -310263 120228
91 1 Mg 14.3023 -0.0160423 3.04683 1.2 -8.12933 -161962 4.59073e+06 -576052 -639390 1.39939e+06 1.33133e+06
92 3 O 15.6409 1.61772 2.82707 -1.2 -8.55718 -3.56169e+06 -4.14608e+06 -2.29286e+06 -104744 -999297 -101448
93 1 Mg 14.3066 7.38809 4.52572 1.2 -8.86383 2.39932e+06 602573 3.07904e+06 1.18034e+06 -271260 375651
94 2 Si 16.9644 9.24198 4.52337 2.4 -34.3561 6.16225e+06 1.13393e+07 8.19469e+06 293261 591834 157775
95 3 O 15.404 9.25632 4.56558 -1.2 -9.10224 -2.57481e+06 -4.30152e+06 -4.23688e+06 -272114 -269602 -217653
96 3 O 18.0642 5.66483 4.45335 -1.2 -8.414 -3.46161e+06 -5.58814e+06 -3.42682e+06 -1.41754e+06 -590362 -381901
97 3 O 17.6702 8.55538 3.30345 -1.2 -8.54405 -3.67206e+06 -4.14781e+06 -4.51606e+06 -15793.9 -955604 -625003
98 3 O 17.6714 8.58693 5.80395 -1.2 -8.44326 -3.76442e+06 -3.91566e+06 -3.65869e+06 -374433 350667 7042.68
99 1 Mg 16.6089 5.27307 3.00382 1.2 -8.5239 -407354 3.81516e+06 222342 1.46364e+06 -1.01933e+06 1.90186e+06
100 1 Mg 16.5316 2.421 4.41279 1.2 -9.00785 1.77608e+06 510898 2.71655e+06 -964307 262123 -455814
101 2 Si 18.6871 4.16295 4.42533 2.4 -34.5942 5.97478e+06 1.11679e+07 8.09419e+06 708493 685873 -269495
102 3 O 15.4549 4.25246 4.45541 -1.2 -8.9178 -4.69806e+06 -3.65579e+06 -4.61892e+06 714270 345925 37967.5
103 3 O 17.645 0.561791 4.53212 -1.2 -8.65218 -2.85541e+06 -5.53145e+06 -3.36407e+06 562868 -655915 -252956
104 3 O 17.9211 3.57507 3.1901 -1.2 -8.51189 -3.58317e+06 -4.21746e+06 -4.4136e+06 -72914.4 180846 -883011
105 1 Mg 16.6337 5.24962 -0.0515504 1.2 -8.42945 -507689 3.94986e+06 738204 1.56665e+06 1.46227e+06 -1.72372e+06
106 3 O 17.9619 3.47543 5.69983 -1.2 -8.38351 -3.82456e+06 -3.99371e+06 -3.46709e+06 -384309 -1.24236e+06 428457
107 1 Mg 16.7236 7.95725 1.59006 1.2 -9.04697 2.80784e+06 -388644 2.52211e+06 -55450.3 178506 58200.8
108 2 Si 14.5396 6.04776 1.47409 2.4 -34.5642 6.11718e+06 1.1901e+07 8.40684e+06 -70285.4 66385.8 -109509
109 3 O 17.8069 6.13346 1.50402 -1.2 -8.98411 -5.38116e+06 -4.39093e+06 -3.91204e+06 -555526 -176754 119246
110 3 O 15.6257 9.61873 1.58444 -1.2 -8.29895 -3.66484e+06 -5.12439e+06 -3.03984e+06 1.42026e+06 -51416.2 -473528
111 3 O 15.2306 6.70971 0.21039 -1.2 -8.3849 -2.96898e+06 -4.94122e+06 -3.70426e+06 637830 -1.28133e+06 429912
112 3 O 15.2395 6.767 2.73966 -1.2 -8.43423 -3.00604e+06 -4.86398e+06 -2.86235e+06 660649 821967 -322444
113 1 Mg 19.0381 0.000845537 0.101605 1.2 -8.25901 -665216 3.88518e+06 -734190 -659237 -1.322e+06 -1.02068e+06
114 1 Mg 23.7499 2.82348 1.50584 1.2 -8.76 2.69915e+06 533775 2.87769e+06 993798 754141 177602
115 2 Si 21.0304 1.0932 1.57018 2.4 -34.3278 6.16119e+06 1.10365e+07 1.00601e+07 -398076 -264429 -201415
116 3 O 22.6054 0.953537 1.48176 -1.2 -8.99336 -1.912e+06 -4.09269e+06 -4.70016e+06 -962802 -409463 180779
117 3 O 20.002 4.63205 1.52422 -1.2 -8.58252 -2.90201e+06 -6.5676e+06 -3.63702e+06 -565034 154444 -916528
118 3 O 20.3255 1.78975 0.320747 -1.2 -8.45342 -3.82714e+06 -4.01634e+06 -1.64983e+06 -559015 917011 390833
119 1 Mg 19.047 -0.0744786 2.99358 1.2 -8.12378 -122582 4.27443e+06 -51994.3 -814168 1.45944e+06 1.86013e+06
120 3 O 20.3608 1.66616 2.89565 -1.2 -8.57196 -2.97404e+06 -3.33834e+06 -3.31465e+06 218066 -910283 86035.6
121 1 Mg 19.1346 7.46029 4.50287 1.2 -9.0279 1.77591e+06 231446 2.74568e+06 492908 88062 441079
122 2 Si 21.7059 9.14769 4.57692 2.4 -34.2807 7.20303e+06 1.05516e+07 8.92774e+06 647235 659608 131408
123 3 O 20.1505 9.28305 4.52057 -1.2 -9.22368 -3.14573e+06 -4.58429e+06 -4.68239e+06 -1.57661e+06 205477 -38822.3
124 3 O 22.7831 5.58168 4.47509 -1.2 -8.53052 -3.59685e+06 -5.43321e+06 -3.99042e+06 -1.15501e+06 -237450 -470968
125 3 O 22.4079 8.47678 3.30171 -1.2 -8.59017 -3.90892e+06 -4.75333e+06 -2.30964e+06 -644547 -1.5066e+06 -1.30299e+06
126 3 O 22.4274 8.587 5.8838 -1.2 -8.41857 -3.78508e+06 -3.98478e+06 -2.95016e+06 -423258 1.13169e+06 -27324.5
127 1 Mg 21.3919 5.12852 2.99269 1.2 -8.40379 -239923 3.60779e+06 686211 1.13861e+06 -1.56984e+06 2.09596e+06
128 1 Mg 21.3311 2.36152 4.5306 1.2 -8.85711 2.15414e+06 704910 1.86947e+06 -795211 -42434.8 221916
129 2 Si 23.4693 4.12849 4.45051 2.4 -34.2936 6.49661e+06 1.03718e+07 8.81475e+06 490584 78001 212094
130 3 O 20.2169 4.21614 4.52005 -1.2 -9.02547 -3.46512e+06 -4.97201e+06 -4.08105e+06 258229 360068 -152840
131 3 O 22.366 0.489768 4.40813 -1.2 -8.59284 -3.56587e+06 -5.27136e+06 -4.26551e+06 1.14086e+06 -437807 341898
132 3 O 22.7928 3.47185 3.17666 -1.2 -8.60258 -3.11272e+06 -4.50374e+06 -3.04671e+06 -247180 355529 -824131
133 1 Mg 21.3165 5.14693 -0.0527477 1.2 -8.57467 -351707 4.0677e+06 353220 992307 1.54213e+06 -1.19793e+06
134 3 O 22.7593 3.4374 5.73614 -1.2 -8.8262 -3.09875e+06 -4.44249e+06 -2.70258e+06 297237 -1.24316e+06 405546
135 1 Mg 21.5687 7.84043 1.52524 1.2 -8.84334 2.73759e+06 897175 3.08894e+06 -379531 118307 131829
136 2 Si 19.3159 6.07181 1.54502 2.4 -34.6142 4.88788e+06 9.96145e+06 7.96709e+06 40968.7 -411155 84772.6
137 3 O 22.604 5.98462 1.48559 -1.2 -8.93946 -2.3963e+06 -4.0375e+06 -4.03391e+06 63702.8 -645555 -330369
138 3 O 20.4389 9.69724 1.54811 -1.2 -8.64725 -3.02307e+06 -5.17399e+06 -4.32613e+06 498455 -503325 -45830.5
139 3 O 20.0039 6.76789 0.249645 -1.2 -8.44627 -3.43808e+06 -3.73975e+06 -3.63638e+06 362175 -530543 334569
140 3 O 20.0203 6.70834 2.77307 -1.2 -8.36446 -4.22662e+06 -4.72903e+06 -5.08024e+06 -224033 292686 -1.09763e+06
141 1 Mg 23.7104 0.0913374 -0.0448742 1.2 -8.32229 -442613 3.84347e+06 -386987 -935883 -1.38522e+06 -1.0722e+06
142 1 Mg 28.432 2.87369 1.49777 1.2 -8.88943 1.98804e+06 274592 3.0657e+06 449109 -263943 309217
143 2 Si 25.7595 0.952058 1.49434 2.4 -34.1353 6.08814e+06 1.0954e+07 9.31603e+06 615031 568829 819921
144 3 O 27.3373 0.917453 1.48618 -1.2 -9.00287 -1.76674e+06 -4.30823e+06 -4.45114e+06 227510 -87990 -244427
145 3 O 24.8373 4.62643 1.4979 -1.2 -8.64562 -3.41623e+06 -7.0065e+06 -4.53485e+06 66653 97316.3 -395829
146 3 O 25.102 1.64978 0.203023 -1.2 -8.67172 -3.75899e+06 -4.36385e+06 -2.27231e+06 -808827 774199 -40743.1
147 1 Mg 23.7212 -0.0597903 2.92194 1.2 -8.18967 -353397 3.78161e+06 -195409 -890944 1.57713e+06 1.97874e+06
148 3 O 25.1224 1.6149 2.78165 -1.2 -8.68765 -4.26255e+06 -3.51993e+06 -3.30376e+06 -214987 -1.16273e+06 -439396
149 1 Mg 23.8374 7.33653 4.43501 1.2 -9.08006 1.92074e+06 908607 2.89491e+06 1.16342e+06 26643.6 479469
150 2 Si 26.4648 9.29673 4.51573 2.4 -35.0088 6.652e+06 1.17314e+07 8.57942e+06 605584 136413 517870
151 3 O 24.8925 9.30627 4.43855 -1.2 -8.74022 -2.14082e+06 -3.98566e+06 -3.97341e+06 258591 -104043 -174605
152 3 O 27.5012 5.64621 4.46524 -1.2 -8.56822 -2.46837e+06 -4.83057e+06 -3.55553e+06 -1.53183e+06 -468620 -907595
153 3 O 27.1827 8.59471 3.24147 -1.2 -8.25361 -2.85426e+06 -4.81782e+06 -3.58266e+06 -1.13757e+06 -802777 -697864
154 3 O 27.1054 8.53612 5.75416 -1.2 -8.04777 -2.37392e+06 -4.06128e+06 -3.64289e+06 -366425 406427 1081.71
155 1 Mg 26.2799 5.1924 2.92757 1.2 -8.63463 -1.33477e+06 4.056e+06 -673771 1.0015e+06 -1.51195e+06 1.97154e+06
156 1 Mg 26.0142 2.32707 4.42828 1.2 -9.15529 1.2045e+06 1.22396e+06 3.01858e+06 -1.04215e+06 68709.7 11325
157 2 Si 28.1185 4.10771 4.55905 2.4 -34.5113 6.48584e+06 1.15571e+07 8.46429e+06 -622963 774153 117663
158 3 O 25.0237 4.23766 4.44028 -1.2 -8.81574 -3.0608e+06 -4.18673e+06 -4.37545e+06 1.11256e+06 -264116 -24829.4
159 3 O 27.0591 0.445721 4.46501 -1.2 -8.3285 -3.25332e+06 -4.28478e+06 -3.29409e+06 1.25157e+06 -326258 18759.5
160 3 O 27.4196 3.47534 3.25908 -1.2 -8.3537 -3.66779e+06 -4.52924e+06 -3.21514e+06 764542 839740 -632849
161 1 Mg 26.1915 5.0327 -0.0161779 1.2 -8.30896 -1.03297e+06 3.71467e+06 402030 1.67523e+06 2.01565e+06 -1.30348e+06
162 3 O 27.4617 3.41812 5.78518 -1.2 -8.18516 -4.50357e+06 -3.4121e+06 -4.40635e+06 -210343 -300866 291384
163 1 Mg 26.2187 7.9862 1.51647 1.2 -8.99541 2.26766e+06 901018 3.1922e+06 -727632 118186 400599
164 2 Si 24.1683 6.02298 1.44374 2.4 -34.5659 6.40227e+06 9.05524e+06 9.34494e+06 1.34832e+06 627635 92938
165 3 O 27.3853 6.04491 1.53664 -1.2 -8.80126 -1.74255e+06 -4.21215e+06 -5.03136e+06 302169 830313 68880.8
166 3 O 25.0542 9.69532 1.46755 -1.2 -8.40449 -3.63798e+06 -4.53199e+06 -3.02138e+06 799074 84177.2 -38654.7
167 3 O 24.8436 6.69757 0.149765 -1.2 -8.49851 -3.5995e+06 -3.87661e+06 -3.34549e+06 13637.6 -1.13544e+06 597846
168 3 O 24.8243 6.71331 2.74086 -1.2 -8.28656 -3.43352e+06 -5.29589e+06 -2.74191e+06 208807 439885 -1.19486e+06
169 1 Mg 28.5124 0.0486227 -0.00108943 1.2 -8.30387 -540901 3.89183e+06 312338 -824480 -1.17791e+06 -1.35357e+06
170 1 Mg 33.2037 2.93496 1.57772 1.2 -8.69154 2.50473e+06 792445 1.96151e+06 1.21908e+06 11207.5 137315
171 2 Si 30.5628 1.07736 1.51603 2.4 -34.2604 6.18877e+06 1.00602e+07 8.77013e+06 -116424 -505104 425678
172 3 O 32.0929 0.988602 1.47609 -1.2 -9.08318 -4.12336e+06 -4.45036e+06 -4.06949e+06 -750115 272459 -196375
173 3 O 29.5235 4.55319 1.51879 -1.2 -8.96738 -3.85655e+06 -4.00707e+06 -3.11503e+06 -788790 397374 333943
174 3 O 29.8433 1.72184 0.200035 -1.2 -8.65524 -3.53155e+06 -4.34673e+06 -2.77527e+06 -608457 1.24451e+06 691643
175 1 Mg 28.4426 -0.0483825 2.89675 1.2 -8.377 -480547 4.16001e+06 215732 -727855 1.11401e+06 2.0639e+06
176 3 O 29.8931 1.74071 2.79023 -1.2 -8.4576 -3.36852e+06 -4.25608e+06 -3.21184e+06 -69417.5 -359769 -1.14428e+06
177 1 Mg 28.6438 7.43698 4.51038 1.2 -9.06403 2.3735e+06 758843 2.56692e+06 725605 -40143.4 516123
178 2 Si 31.2347 9.23504 4.46017 2.4 -34.4062 5.0814e+06 1.15469e+07 8.97695e+06 -45396.9 -618230 -156975
179 3 O 29.721 9.2672 4.42039 -1.2 -8.86071 -4.38917e+06 -5.30895e+06 -4.22809e+06 -209608 -393463 105867
180 3 O 32.2054 5.60436 4.51011 -1.2 -8.60175 -2.69985e+06 -4.81248e+06 -3.84189e+06 -816866 494411 -405034
181 3 O 32.004 8.64535 3.16599 -1.2 -8.67412 -3.58048e+06 -4.69321e+06 -2.70822e+06 433118 -420107 -532984
182 3 O 31.864 8.46571 5.7158 -1.2 -8.51736 -4.28948e+06 -3.26836e+06 -2.36281e+06 124114 981298 44263.5
183 1 Mg 30.8713 4.98483 3.06588 1.2 -8.02435 -477167 3.86581e+06 30658.8 1.58146e+06 -1.97528e+06 1.9312e+06
184 1 Mg 30.781 2.33685 4.51314 1.2 -8.9168 2.4558e+06 -466025 2.48289e+06 -371078 -438041 656487
185 2 Si 32.929 4.11727 4.53002 2.4 -34.0481 6.23678e+06 1.04469e+07 7.79006e+06 249230 -748282 294447
186 3 O 29.6911 4.0897 4.58363 -1.2 -9.03338 -2.38647e+06 -4.29937e+06 -4.25532e+06 157601 198458 -174022
187 3 O 31.9179 0.621273 4.49156 -1.2 -8.98855 -3.35126e+06 -4.70233e+06 -2.08056e+06 1.33065e+06 134733 -613457
188 3 O 32.2384 3.48992 3.25916 -1.2 -8.82993 -3.73398e+06 -5.31158e+06 -3.91721e+06 -112766 865928 -1.39442e+06
189 1 Mg 30.8255 5.04179 0.026391 1.2 -8.28914 -899410 3.4416e+06 -136111 1.19526e+06 2.09398e+06 -1.85154e+06
190 3 O 32.2338 3.45742 5.78295 -1.2 -8.65233 -3.74469e+06 -3.63827e+06 -3.23142e+06 -203300 -979301 -76874.6
191 1 Mg 31.0971 7.87658 1.49431 1.2 -8.64575 1.55128e+06 669453 3.60531e+06 -697117 -95952 264601
192 2 Si 28.9668 6.10683 1.54106 2.4 -33.9076 6.67184e+06 1.05433e+07 9.50285e+06 290724 -716660 517582
193 3 O 32.0284 6.02649 1.52066 -1.2 -9.26785 -4.5005e+06 -3.46384e+06 -4.82424e+06 653135 -385769 -645483
194 3 O 29.9367 9.7288 1.44213 -1.2 -8.45554 -2.56329e+06 -4.91464e+06 -4.54507e+06 508471 554148 -1.00563e+06
195 3 O 29.6032 6.71123 0.176474 -1.2 -8.64759 -3.97396e+06 -3.38446e+06 -1.33557e+06 -46308.9 -80057.4 -447047
196 3 O 29.5978 6.77303 2.81594 -1.2 -8.87978 -4.08975e+06 -2.92062e+06 -2.14484e+06 -73852.4 576521 -974843
197 1 Mg 33.2058 0.069528 -0.0232234 1.2 -8.27288 -1.22428e+06 4.31722e+06 -162453 -1.53685e+06 -1.63368e+06 -1.73748e+06
198 1 Mg 37.8857 2.8207 1.41933 1.2 -9.10822 2.78455e+06 814361 2.02114e+06 895481 -28399.1 139277
199 2 Si 35.2324 0.967325 1.44197 2.4 -33.9033 6.94259e+06 1.18268e+07 6.91933e+06 369312 1.00707e+06 -530712
200 3 O 36.7915 0.913579 1.453 -1.2 -9.11262 -2.8959e+06 -4.83679e+06 -3.35604e+06 -438978 506829 -213516
201 3 O 34.3442 4.69871 1.57798 -1.2 -8.33291 -3.14865e+06 -5.81229e+06 -4.18934e+06 -976112 -115249 54563.4
202 3 O 34.5114 1.63683 0.13164 -1.2 -8.73758 -3.89025e+06 -3.56977e+06 -1.92239e+06 -662352 857723 425419
203 1 Mg 33.203 0.00130267 2.94516 1.2 -8.19096 -366780 3.92367e+06 -53236.1 -1.36055e+06 1.49651e+06 1.99001e+06
204 3 O 34.5711 1.60093 2.70426 -1.2 -8.90774 -4.53496e+06 -4.19911e+06 -2.72945e+06 -377817 -471494 -781262
205 1 Mg 33.2782 7.49838 4.54806 1.2 -8.84287 1.72107e+06 510476 3.02618e+06 907428 -294468 490385
206 2 Si 35.9496 9.20066 4.54725 2.4 -33.5704 5.65663e+06 1.08068e+07 8.90874e+06 238904 -1.17334e+06 121787
207 3 O 34.4142 9.32761 4.64486 -1.2 -9.27261 -3.10776e+06 -4.78881e+06 -4.00102e+06 -36625.3 477026 33732.5
208 3 O 36.9981 5.49287 4.50617 -1.2 -8.61708 -3.99586e+06 -4.91433e+06 -4.10643e+06 -358935 171434 -246968
209 3 O 36.5323 8.4903 3.20508 -1.2 -8.82926 -2.95352e+06 -3.59797e+06 -1.29183e+06 -562158 -709915 -374383
210 3 O 36.6958 8.52742 5.79133 -1.2 -9.01439 -4.08463e+06 -3.81404e+06 -2.48406e+06 -472770 1.00913e+06 638877
211 1 Mg 35.6049 5.21581 3.06394 1.2 -8.49967 -133253 3.43523e+06 229003 41395.8 -1.97902e+06 1.69881e+06
212 1 Mg 35.4215 2.27833 4.46115 1.2 -8.62456 2.06176e+06 837671 2.7427e+06 -591248 105210 226564
213 2 Si 37.6489 4.00878 4.44359 2.4 -34.5834 7.03884e+06 8.91125e+06 1.04483e+07 -224568 -135512 136812
214 3 O 34.4713 4.22031 4.50755 -1.2 -9.19649 -3.67469e+06 -3.37512e+06 -4.24453e+06 592365 239099 14957.3
215 3 O 36.6637 0.544682 4.46196 -1.2 -8.86113 -2.85791e+06 -5.58565e+06 -3.74933e+06 439364 485958 -728803
216 3 O 36.969 3.47686 3.09497 -1.2 -8.37062 -3.50255e+06 -4.07977e+06 -2.31856e+06 228595 1.02979e+06 -1.03437e+06
217 1 Mg 35.6533 5.14227 0.0140175 1.2 -8.50898 -67744.5 3.44063e+06 518745 635268 1.06393e+06 -1.88493e+06
218 3 O 36.9686 3.38303 5.74763 -1.2 -8.46288 -3.78274e+06 -4.78014e+06 -1.57697e+06 -178596 -673734 1.12779e+06
219 1 Mg 35.6802 7.87059 1.40986 1.2 -8.85315 1.4747e+06 420925 2.79118e+06 -794969 -209586 -2370.09
220 2 Si 33.5391 6.15039 1.53075 2.4 -34.3472 5.52503e+06 9.32393e+06 8.18237e+06 -1.24358e+06 -480440 777742
221 3 O 36.766 6.0701 1.43669 -1.2 -9.01933 -3.75803e+06 -4.96977e+06 -3.01175e+06 758147 -432177 332215
222 3 O 34.6497 9.67677 1.35287 -1.2 -8.75741 -3.65528e+06 -5.30274e+06 -2.89711e+06 920271 215744 369015
223 3 O 34.2658 6.71781 0.257134 -1.2 -8.58507 -3.63668e+06 -5.22243e+06 -4.22502e+06 425929 -947350 1.40432e+06
224 3 O 34.1946 6.8176 2.77485 -1.2 -8.42075 -3.9813e+06 -5.2047e+06 -3.86598e+06 254840 864112 -1.69938e+06
225 1 Mg 37.9629 0.0341499 -0.0588075 1.2 -8.10205 -1.04022e+06 4.31711e+06 -1.08909e+06 -747061 -2.25207e+06 -1.35123e+06
226 1 Mg 42.6225 2.8636 1.40995 1.2 -9.13713 2.87933e+06 727342 2.36744e+06 229509 36033.2 161341
227 2 Si 40.0005 0.993914 1.44339 2.4 -34.3839 7.46266e+06 1.18537e+07 6.64361e+06 -184470 84157.6 267639
228 3 O 41.5664 0.960248 1.43367 -1.2 -8.85544 -2.42075e+06 -3.81546e+06 -3.90613e+06 -160383 -69102.9 -538247
229 3 O 38.9706 4.67934 1.46157 -1.2 -8.33849 -3.78064e+06 -4.53705e+06 -2.99779e+06 -518357 399515 -262211
230 3 O 39.2914 1.74095 0.233232 -1.2 -8.49095 -3.45207e+06 -3.96515e+06 -3.52326e+06 -69874.6 391858 289373
231 1 Mg 37.9395 0.0204419 2.94864 1.2 -8.22572 -572015 4.10379e+06 -437774 -1.19927e+06 1.6959e+06 1.71371e+06
232 3 O 39.3608 1.68631 2.70236 -1.2 -8.54763 -3.6864e+06 -3.62223e+06 -3.50504e+06 -28097.2 -250548 -361951
233 1 Mg 37.9982 7.35056 4.55858 1.2 -8.48199 2.52661e+06 789161 2.90375e+06 928968 -172038 376662
234 2 Si 40.7322 9.14865 4.5209 2.4 -33.9857 7.37148e+06 1.07402e+07 8.06773e+06 463588 577106 -653411
235 3 O 39.163 9.29919 4.49408 -1.2 -9.35431 -2.1344e+06 -3.8206e+06 -3.84827e+06 123755 688383 115345
236 3 O 41.8482 5.61494 4.50173 -1.2 -8.61939 -3.39537e+06 -3.83569e+06 -3.4444e+06 -436895 -380034 -586481
237 3 O 41.3879 8.54252 3.22993 -1.2 -8.6996 -3.87401e+06 -5.82551e+06 -2.48172e+06 -469410 -1.20224e+06 -1.33098e+06
238 3 O 41.4326 8.61083 5.83386 -1.2 -8.73045 -3.63236e+06 -4.28542e+06 -2.93778e+06 -209713 1.29027e+06 1.18457e+06
239 1 Mg 40.3937 5.16683 2.96278 1.2 -8.44685 656412 3.88618e+06 537692 1.02256e+06 -1.0412e+06 1.88637e+06
240 1 Mg 40.3041 2.25833 4.45595 1.2 -8.74662 2.50311e+06 202487 3.27556e+06 -1.08333e+06 49254.6 -68959.5
241 2 Si 42.4578 4.08927 4.434 2.4 -34.1952 6.78554e+06 1.0178e+07 9.36033e+06 621250 653294 485967
242 3 O 39.2024 4.14819 4.47419 -1.2 -9.00991 -2.69069e+06 -2.90039e+06 -4.28379e+06 1.55313e+06 119197 -264670
243 3 O 41.4598 0.526027 4.44578 -1.2 -8.71333 -2.05254e+06 -6.11912e+06 -3.22218e+06 823711 -291809 -579277
244 3 O 41.7509 3.5344 3.1196 -1.2 -8.51968 -3.57604e+06 -4.12041e+06 -2.78901e+06 140044 792000 -882517
245 1 Mg 40.3045 5.19245 -0.116964 1.2 -8.57932 -882998 4.11647e+06 -318098 889636 2.08842e+06 -1.5803e+06
246 3 O 41.7633 3.37527 5.69694 -1.2 -8.80044 -3.27916e+06 -3.31399e+06 -2.13737e+06 41743.1 -1.41682e+06 422757
247 1 Mg 40.367 8.01882 1.54339 1.2 -8.8037 1.67476e+06 460388 2.62164e+06 -791780 68589 -66562.6
248 2 Si 38.3213 6.15682 1.42534 2.4 -34.2319 7.15604e+06 1.10553e+07 8.56162e+06 -224766 367165 -537270
249 3 O 41.5487 5.99081 1.44638 -1.2 -8.86344 -4.03307e+06 -4.62536e+06 -3.67615e+06 68998.4 -95530.2 189439
250 3 O 39.3756 9.72079 1.51946 -1.2 -8.57957 -4.20172e+06 -5.70747e+06 -3.31609e+06 1.9818e+06 -258582 59896.2
251 3 O 39.0167 6.83226 0.169287 -1.2 -8.66733 -3.99858e+06 -4.36707e+06 -1.86165e+06 517254 -675278 1.14466e+06
252 3 O 39.0454 6.81065 2.76391 -1.2 -8.65756 -2.58167e+06 -3.85404e+06 -720733 17082.6 940792 -469008
253 1 Mg 42.7745 -0.0783275 -0.0126062 1.2 -8.36992 -148461 4.45351e+06 -516681 -1.14144e+06 -1.74878e+06 -1.12825e+06
254 1 Mg 47.429 2.95031 1.53092 1.2 -8.62484 2.27735e+06 -314492 2.15706e+06 578870 505413 55838.7
255 2 Si 44.8449 1.06396 1.4348 2.4 -34.0388 7.01115e+06 1.10332e+07 6.29982e+06 173970 -572081 839117
256 3 O 46.3601 0.974188 1.44362 -1.2 -9.32299 -4.31146e+06 -3.46749e+06 -3.37536e+06 -356007 -310720 -83099.5
257 3 O 43.7722 4.58175 1.43428 -1.2 -8.59421 -3.66093e+06 -4.96795e+06 -3.50064e+06 -661145 103902 -603845
258 3 O 44.126 1.6679 0.208518 -1.2 -8.46935 -4.01584e+06 -3.88522e+06 -4.84084e+06 -153485 762927 786299
259 1 Mg 42.8004 -0.075705 2.84412 1.2 -8.31445 -803459 4.04618e+06 -104690 -975933 1.41454e+06 1.47716e+06
260 3 O 44.04 1.67821 2.64974 -1.2 -8.65916 -3.62235e+06 -3.52812e+06 -4.28404e+06 -411783 -924255 -730274
261 1 Mg 42.9631 7.29726 4.45547 1.2 -8.69609 2.04712e+06 839752 2.81424e+06 -92071.3 253237 -14867.1
262 2 Si 45.4655 9.18405 4.48965 2.4 -33.6946 7.6474e+06 1.07828e+07 7.54219e+06 -657014 -7392.58 -599105
263 3 O 43.9192 9.22656 4.45342 -1.2 -9.24773 -3.326e+06 -3.62268e+06 -3.3257e+06 -33050.6 339937 203921
264 3 O 46.5244 5.5685 4.48581 -1.2 -8.6163 -3.42858e+06 -4.63868e+06 -3.2386e+06 -910559 24196 -156533
265 3 O 46.1777 8.55495 3.20049 -1.2 -8.68945 -3.7966e+06 -4.1015e+06 -2.01234e+06 -163867 -687353 -224062
266 3 O 46.2028 8.51843 5.77473 -1.2 -8.98544 -3.35658e+06 -3.25236e+06 -1.87247e+06 -786319 1.37449e+06 548062
267 1 Mg 45.211 5.09893 2.90757 1.2 -8.34533 407686 3.45963e+06 316769 1.08837e+06 -1.03814e+06 1.8554e+06
268 1 Mg 44.9458 2.14417 4.41895 1.2 -8.54548 2.53583e+06 364393 2.53219e+06 -229777 422741 -141655
269 2 Si 47.1817 4.08757 4.51683 2.4 -34.1722 7.92566e+06 1.00814e+07 7.9734e+06 -112850 495906 237969
270 3 O 44.0043 4.26607 4.46475 -1.2 -9.02413 -3.74286e+06 -3.3864e+06 -3.61538e+06 1.05096e+06 -435482 -245041
271 3 O 46.142 0.495506 4.42757 -1.2 -8.87995 -2.53893e+06 -3.70432e+06 -3.2852e+06 1.60602e+06 407409 254791
272 3 O 46.4954 3.45081 3.17663 -1.2 -8.70581 -3.68838e+06 -3.74347e+06 -2.25513e+06 1.23685e+06 1.2205e+06 -1.18057e+06
273 1 Mg 45.0579 5.21465 -0.0881277 1.2 -8.03947 -303700 3.76766e+06 -542916 1.13507e+06 1.36833e+06 -1.6415e+06
274 3 O 46.523 3.46289 5.78897 -1.2 -8.50308 -4.28142e+06 -4.68803e+06 -2.72308e+06 207046 -362896 1.01318e+06
275 1 Mg 45.1777 7.9573 1.47566 1.2 -8.5506 2.91489e+06 334769 2.25304e+06 -438285 104229 -121357
276 2 Si 43.0695 6.05017 1.41892 2.4 -34.1428 6.17949e+06 1.06854e+07 7.32126e+06 -426424 1.28723e+06 -127696