ITEM: TIMESTEP
3800
ITEM: NUMBER OF ATOMS
5600
ITEM: BOX BOUNDS xy xz yz pp pp pp
0	7.1235	0
0	201.985	2.3745
0	119.584	0
ITEM: ATOMS id type xu yu zu q pCrystal pDisloC pDisloB pDisloA
1 1 -1.55308 48.6111 -1.05458 1.2 0.0 1.7738567186717997e-39 0.0 1.0
2 1 3.10403 51.4674 1.73707 1.2 0.0 1.706036757351335e-98 0.0 1.0
3 2 0.839482 50.3607 -0.0579326 2.4 8.437678882820857e-223 0.0 0.0 1.0
4 3 1.62832 48.957 -0.244658 -1.2 0.0 0.0 0.0 1.0
5 3 -0.99325 53.7154 1.4017 -1.2 0.0 0.0 0.0 1.0
6 3 -0.176059 50.0274 -1.31536 -1.2 0.0 0.0 0.0 1.0
7 1 -2.04751 59.2823 3.1149 1.2 1.0760350349291056e-07 0.0008087749291663339 2.504808160796622e-31 0.9991911174673322
8 3 0.128061 50.7087 1.19998 -1.2 0.0 0.0 0.0 1.0
9 1 -1.82179 56.444 4.56139 1.2 2.1968592004603726e-118 5.5166162813919795e-27 0.0 0.9999999999999497
10 2 0.640979 58.3274 4.66899 2.4 0.9977610936586181 2.754476134877973e-41 1.744575005416132e-70 0.0022389063413825205
11 3 -0.899993 58.3723 4.58552 -1.2 4.247258968424978e-18 2.87641492967745e-36 3.578963222097835e-71 0.9999999999999999
12 3 1.74264 54.5968 4.34052 -1.2 2.5339866954789744e-237 0.0 0.0 1.0
13 3 1.26804 57.6201 3.34899 -1.2 1.8066757407584241e-34 4.8433815363064347e-73 2.1119128084096583e-120 1.0000000000000069
14 3 1.32255 57.6897 5.94482 -1.2 5.086059455870279e-42 6.301660320054412e-94 2.2403218816150264e-155 1.0000000000000036
15 1 0.385042 54.0081 2.75246 1.2 0.0 1.2647125504710563e-80 0.0 1.0
16 1 0.973975 50.3555 2.89452 1.2 0.0 6.324579655633817e-107 0.0 1.0
17 2 2.41018 53.1508 4.30249 2.4 1.5019023744801357e-177 0.0 0.0 1.0
18 3 -0.779679 53.1553 4.32663 -1.2 0.0 0.0 0.0 1.0
19 3 2.86546 49.9102 2.82066 -1.2 0.0 0.0 0.0 1.0
20 3 1.86362 52.4593 3.03805 -1.2 0.0 0.0 0.0 1.0
21 1 0.0957272 54.2746 -0.175743 1.2 0.0 6.848753764500622e-88 0.0 1.0
22 3 1.78099 52.2864 5.59294 -1.2 0.0 0.0 0.0 1.0
23 1 0.40709 57.04 1.62536 1.2 3.436411300123861e-57 6.956631062837578e-20 2.1049318795176765e-169 0.9999999999999971
24 2 -1.70519 55.1636 1.58146 2.4 1.935137506818073e-106 0.0 0.0 1.0
25 3 1.51331 55.1433 1.49918 -1.2 6.085303254543226e-210 0.0 0.0 1.0
26 3 -0.695549 58.8359 1.57211 -1.2 1.3246991854446557e-07 3.846366160779764e-16 3.965255723743886e-37 0.9999998675300822
27 3 -1.02349 55.8708 0.34392 -1.2 1.7859078847662166e-156 0.0 0.0 1.0
28 3 -0.957568 55.7866 2.79159 -1.2 9.554142463827165e-150 0.0 0.0 1.0
29 1 -2.20506 59.3854 0.212327 1.2 3.897695423537288e-06 0.015732915329960507 1.619269211887865e-24 0.9842631869746195
30 1 2.52006 62.405 1.52207 1.2 0.37885071719838076 0.6211406467863692 2.5771113657764996e-25 8.636015245261247e-06
31 2 -0.0826059 60.3775 1.62105 2.4 0.9999999991769357 8.230644132099928e-10 5.288868851534253e-25 4.2808062307263354e-21
32 3 1.49613 60.2639 1.67642 -1.2 0.9661699328101423 0.019467505062792094 1.9273451674716616e-19 0.014362562127071562
33 3 -1.38309 64.3278 1.51433 -1.2 0.9998780611661822 6.131599695719993e-05 1.2122252492873195e-23 6.062283685896885e-05
34 3 -0.720901 61.1209 0.466564 -1.2 0.9629172285583742 0.03679644883418706 4.066985957518672e-18 0.0002863226074384276
35 1 -2.18222 69.9063 3.12008 1.2 0.585931972155775 0.4140671417854227 1.1458856819377229e-37 8.860588082323242e-07
36 3 -0.791031 60.8352 3.03224 -1.2 0.9858964205229455 0.007456540354133585 2.3492607831933654e-19 0.006647039122914425
37 1 -2.24558 67.0969 4.57155 1.2 0.4943051422075383 0.5056936805075769 3.7945036175062826e-31 1.177284880183937e-06
38 2 0.488997 68.8782 4.60092 2.4 1.0 1.007672348324049e-18 5.187091745875679e-38 3.487197368475726e-33
39 3 -1.03652 69.0646 4.59521 -1.2 0.999996332267945 9.82592286221635e-07 4.3240277910424927e-32 2.685139775297087e-06
40 3 1.48782 65.2256 4.6816 -1.2 0.9999528876102187 4.3888636169032564e-05 1.1736478294745526e-25 3.2237536155903417e-06
41 3 1.15847 68.2245 3.4006 -1.2 0.9999885957901992 6.9527798860571635e-06 3.489757640210697e-31 4.4514299135151195e-06
42 3 1.10009 68.2365 5.85759 -1.2 0.9999875486630697 3.058513240881691e-06 1.8613367663891892e-31 9.392823689196766e-06
43 1 0.00248331 64.8494 3.16476 1.2 0.3786928988886564 0.621306553210106 4.254650440106138e-30 5.47901239378649e-07
44 1 0.378322 61.6916 4.63636 1.2 0.191368486032174 0.8085994189778619 1.49641887431482e-22 3.209498996442901e-05
45 2 2.17644 63.786 4.58261 2.4 0.9999999999994316 5.661874220375477e-13 5.37183826557476e-29 2.865579323105691e-33
46 3 -1.03572 63.9204 4.63046 -1.2 0.9998438167223095 0.00015124917199361645 6.273903460030545e-25 4.934105693053514e-06
47 3 1.34619 59.8689 4.57023 -1.2 0.015169441802033369 1.592379592275461e-07 5.495181358847496e-28 0.9848303989600077
48 3 1.5654 62.9935 3.31548 -1.2 0.9994455744089328 0.0005182800739814396 1.2919543507813673e-22 3.614551708360585e-05
49 1 -0.0111348 64.7006 0.0242907 1.2 0.49530243886764963 0.5046969025169693 7.148534126437113e-33 6.586153854316622e-07
50 3 1.55843 63.0433 5.89191 -1.2 0.9990603155283118 0.0009320908763065902 3.8825435084122523e-22 7.593595374697692e-06
51 1 0.0973335 67.6775 1.63661 1.2 0.44339108474750283 0.556606891116457 6.263141400351797e-32 2.0241360386778405e-06
52 2 -2.08433 65.8323 1.49839 2.4 1.0 5.610963795731039e-16 4.80616866489998e-33 1.6249567286331366e-32
53 3 1.17423 65.6757 1.60906 -1.2 0.999870681782313 0.000120582124604799 1.0455310414244796e-24 8.736093076800615e-06
54 3 -0.758909 69.5822 1.60106 -1.2 0.9998736826605437 5.789409204061791e-07 1.8935696139032844e-29 0.00012573839853647609
55 3 -1.38535 66.6206 0.314292 -1.2 0.999892467817518 3.3462373332214e-05 4.3550204709555266e-27 7.406980914802746e-05
56 3 -1.36866 66.4778 2.78642 -1.2 0.9998608923608665 0.00010685982505329885 1.1233091564741659e-24 3.224781407765739e-05
57 1 -2.3175 69.9901 0.218702 1.2 0.5180349228149443 0.48196158285228957 8.143834884410396e-38 3.4943327605447214e-06
58 1 2.40061 73.12 1.53372 1.2 0.6828376808105943 0.3171521518559443 6.063465642444181e-33 1.0167333457725677e-05
59 2 -0.243258 71.0469 1.6274 2.4 1.0 9.188713760212497e-21 8.109332097984432e-42 9.576204828231544e-34
60 3 1.33698 70.9793 1.60401 -1.2 0.9999941618604599 1.3121048664349768e-06 1.3189469003298414e-32 4.526034668455454e-06
61 3 -1.23043 74.862 1.57668 -1.2 0.9999918946368 6.84011601299166e-07 2.835650897450487e-33 7.421351601256954e-06
62 3 -1.00642 71.8547 0.479404 -1.2 0.9999530072710267 1.7775337384410578e-06 1.5874786958221334e-31 4.521519522772739e-05
63 1 -2.27563 80.3056 2.94306 1.2 0.7845031598005121 0.21549676361841094 2.498895948802489e-31 7.65810777991264e-08
64 3 -0.900719 71.7465 2.97169 -1.2 0.9999943791730546 3.570908095669304e-07 2.560618379785901e-34 5.263736135162231e-06
65 1 -2.10113 77.6878 4.41541 1.2 0.9214682658688289 0.07853165827083243 1.427145416939056e-33 7.586033731520195e-08
66 2 0.472904 79.432 4.55477 2.4 1.0 1.2597989258165781e-20 6.78116641277884e-41 2.7290019582891038e-36
67 3 -1.03276 79.505 4.46411 -1.2 0.999992284294146 7.711054704596023e-06 5.179280110738613e-32 4.651149258291187e-09
68 3 1.53987 75.766 4.46168 -1.2 0.9999989115505299 8.059994997306776e-07 3.132952330342821e-33 2.824499651892452e-07
69 3 1.16181 78.5625 3.34428 -1.2 0.9999858841124172 1.4063281501689215e-05 4.797188315128988e-32 5.2606086393222475e-08
70 3 1.19334 78.7908 5.9042 -1.2 0.999984783781847 1.5200414442398982e-05 1.844247688064707e-30 1.5803709268083076e-08
71 1 0.0882208 75.2979 3.02176 1.2 0.7364461926845992 0.2635535745725913 7.768624089769446e-38 2.3274281120916117e-07
72 1 0.0553901 72.4061 4.58999 1.2 0.29928125248193427 0.7007181635989949 8.53839778022879e-41 5.839190739686373e-07
73 2 2.2591 74.2836 4.44878 2.4 1.0 3.9467995651046805e-24 1.9321359454799881e-44 2.018439973831954e-37
74 3 -0.951533 74.4094 4.48152 -1.2 0.9999994585414003 4.008535130409408e-07 1.0235121665751935e-36 1.4060508316133846e-07
75 3 1.14758 70.458 4.61799 -1.2 0.999991540062214 1.2646084263388525e-07 1.0907114692718303e-33 8.333476939880449e-06
76 3 1.5645 73.6078 3.28599 -1.2 0.9999994461849694 2.4232307734009543e-07 2.5169616840120604e-36 3.114919466777166e-07
77 1 -0.0520167 75.3254 0.0492678 1.2 0.73966396898219 0.260335569833713 7.79588704509628e-37 4.611840903612021e-07
78 3 1.59642 73.6073 5.81192 -1.2 0.9999997782296749 7.772715999963176e-08 2.112011823327263e-38 1.4404316951277677e-07
79 1 0.175161 77.9997 1.55503 1.2 0.8366191762261557 0.16337987713462032 1.088168863024784e-28 9.466392185875778e-07
80 2 -1.93084 76.3976 1.46419 2.4 1.0 2.7316529125394274e-20 2.762700303002064e-40 4.901457892564964e-35
81 3 1.29131 76.2499 1.55624 -1.2 0.9999936623001735 5.636049689165515e-06 2.9120171444217744e-30 7.016501389200299e-07
82 3 -0.942626 79.8371 1.59875 -1.2 0.9998831569926042 0.00010802212034884205 1.2201489041787e-24 8.820887042077985e-06
83 3 -1.32939 77.012 0.159778 -1.2 0.9999360546455069 5.945445845243688e-05 5.0051300614257465e-28 4.490896046818797e-06
84 3 -1.18886 76.9618 2.7782 -1.2 0.9999905221005272 9.29261865970853e-06 1.4065188987247063e-30 1.8528081167476752e-07
85 1 -2.29078 80.5766 -0.0352706 1.2 0.7087518349909668 0.2912476248669866 7.180630430942335e-31 5.401420433393841e-07
86 1 2.34311 83.4061 1.78365 1.2 0.5281172422145542 0.4718823493876579 2.102214500942493e-24 4.083977868640119e-07
87 2 -0.264065 81.4067 1.51465 2.4 0.9999999999999858 1.9196542586474895e-14 8.688917699900092e-32 4.7578393421130496e-32
88 3 1.25319 81.3326 1.61586 -1.2 0.9996885330529072 0.00031100425356408133 3.5373537229884513e-26 4.62693525282424e-07
89 3 -1.47354 85.2001 1.87108 -1.2 0.998734480675034 0.0012647631026662962 2.98661598557297e-24 7.562222997595244e-07
90 3 -0.90115 82.1496 0.306914 -1.2 0.9990815325739248 0.0009174996080406475 1.2469109671426051e-23 9.678180375543597e-07
91 1 -2.41671 90.6536 3.05167 1.2 0.7388879815717749 0.26111200406094853 5.19819971220753e-25 1.4367274614074517e-08
92 3 -0.951945 82.1563 2.75569 -1.2 0.9986210972093696 0.0013786492983433693 1.0447079450984704e-23 2.534922901416447e-07
93 1 -2.1048 87.9946 4.71697 1.2 0.7268100793229633 0.27318989055020065 9.127432681035393e-26 3.0126831767283516e-08
94 2 0.357202 89.7904 4.44292 2.4 1.0 4.989899781281089e-15 8.040998319531126e-31 1.3548148509999677e-33
95 3 -1.18976 89.8927 4.45408 -1.2 0.9996347534911056 0.0003652415937831409 2.128171127481704e-26 4.9151060683629865e-09
96 3 1.38571 86.1628 4.75066 -1.2 0.9995316547856904 0.0004682198161993764 1.1728586569567698e-24 1.2539810976068516e-07
97 3 1.1167 89.0286 3.24801 -1.2 0.9981620234520534 0.0018378549631974021 1.4448533179171408e-21 1.2158475183606565e-07
98 3 1.00431 89.165 5.77301 -1.2 0.9997074536760648 0.0002925170618160284 7.148307437777435e-25 2.9262117272736994e-08
99 1 -0.00110542 85.6283 3.42479 1.2 0.737344090689862 0.262655905566254 4.387701547553896e-28 3.743880989135888e-09
100 1 0.0536001 82.7108 4.41472 1.2 0.7786809903216396 0.22131880641376098 1.3283008187763462e-25 2.0326460154038507e-07
101 2 1.9805 84.72 4.81059 2.4 0.9999999999996589 3.408650334109327e-13 6.980329594803057e-29 2.6901670216849848e-30
102 3 -1.19222 84.751 4.78624 -1.2 0.9981193891018588 0.001880601792266195 6.211613474355003e-24 9.105869118461992e-09
103 3 1.09668 80.8419 4.51566 -1.2 0.999916276509608 8.356713191957817e-05 1.0963427602359357e-26 1.5635847621188562e-07
104 3 1.32169 83.9998 3.4755 -1.2 0.9970989328873331 0.0029009747569341427 2.0012024697816524e-23 9.235573313906704e-08
105 1 0.0919695 85.6175 0.307916 1.2 0.6875937434873937 0.31240620203312547 1.3034764490405464e-29 5.447947849080361e-08
106 3 1.35745 84.0884 6.02775 -1.2 0.9984349037695861 0.0015650015764176772 2.2629320914165754e-21 9.46539927999784e-08
107 1 -0.0383613 88.4367 1.55155 1.2 0.5760559785240441 0.4239439676744071 3.3243357619986216e-24 5.380154982007865e-08
108 2 -2.12865 86.7014 1.83818 2.4 0.9999999999999858 8.712339568221575e-15 1.2266724445827362e-32 6.928682853936672e-33
109 3 1.08292 86.5239 1.73566 -1.2 0.9988159764251048 0.0011839719062610645 6.973470957654754e-26 5.1668627760733883e-08
110 3 -0.99123 90.1901 1.5367 -1.2 0.9988013225453217 0.0011986417279136598 4.185598116617055e-24 3.572676851869833e-08
111 3 -1.65723 87.2815 0.454489 -1.2 0.9990513732812738 0.0009484551185176969 1.4301815688008157e-25 1.7160020168351497e-07
112 3 -1.35821 87.3498 3.05331 -1.2 0.9992427489502071 0.0007572267949925803 1.679947214702733e-24 2.425479328157803e-08
113 1 -2.39415 90.5143 0.11153 1.2 0.5770512671638378 0.42294870878478247 4.490281776663625e-24 2.4051383280724306e-08
114 1 2.29016 93.58 1.81549 1.2 0.8855844018041612 0.1144155956694214 5.228347924269827e-23 2.5264114088210323e-09
115 2 -0.388913 91.7369 1.47159 2.4 1.0 1.050265947898723e-15 2.9532757843993017e-33 1.0156369593920081e-32
116 3 1.13836 91.5766 1.42664 -1.2 0.9994107736491823 0.000589224026117639 5.708280977803858e-25 2.3246959832755276e-09
117 3 -1.4807 95.4987 1.60998 -1.2 0.9998808798375802 0.00011911990440455233 1.5429005612381315e-24 2.5801090474731775e-10
118 3 -1.14814 92.3718 0.260976 -1.2 0.999785451461025 0.0002145464253428291 6.551511500388034e-26 2.1136292011603806e-09
119 1 -2.30331 101.184 3.21363 1.2 0.9735006977162062 0.026499301164054682 3.0580463335475358e-31 1.1197402109516554e-09
120 3 -1.09256 92.4604 2.71924 -1.2 0.999784550142058 0.0002154487355574547 3.0768255764238043e-25 1.1223885434643066e-09
121 1 -2.30001 98.1989 4.63458 1.2 0.9943330673286721 0.005666932640291339 5.840131411720917e-30 3.103897354054637e-11
122 2 0.348239 99.953 4.6643 2.4 1.0 3.478735483739933e-20 7.027816064874859e-39 9.19563570565945e-41
123 3 -1.15637 100.118 4.51007 -1.2 0.9999957521401496 4.2478412688688885e-06 3.046236587957347e-32 1.8575395978517457e-11
124 3 1.32683 96.3303 4.60447 -1.2 0.9999887624839258 1.1237403929979796e-05 2.0942206246455717e-27 1.1214400443074787e-10
125 3 1.06259 99.3006 3.45056 -1.2 0.9999816108550322 1.8389110796363796e-05 7.467118839575228e-28 3.416725153123883e-11
126 3 1.0411 99.2012 5.90074 -1.2 0.9999950751488224 4.92483897763771e-06 3.510371258835283e-31 1.2196358785906746e-11
127 1 -0.00134401 96.0287 3.25074 1.2 0.9715130641306697 0.02848693582257411 1.3750856892801502e-29 4.6754122828433896e-11
128 1 -0.0889675 93.012 4.40162 1.2 0.9650619456701708 0.034938053604033285 1.7359622726130924e-27 7.258016843875841e-10
129 2 2.09246 94.8994 4.6892 2.4 1.0 4.6507703144779315e-18 1.0910069766008814e-34 3.4164866084990785e-38
130 3 -1.16722 94.9829 4.683 -1.2 0.9999931606539549 6.839281900110468e-06 6.886774676668866e-29 6.415172531067261e-11
131 3 0.972294 91.304 4.44137 -1.2 0.9998014612341644 0.00019850388211737211 3.368384675523494e-24 3.488372224335287e-08
132 3 1.38152 94.149 3.50919 -1.2 0.9999605854587169 3.941451551304507e-05 4.809757569443217e-27 2.5770145350510422e-11
133 1 -0.0433428 96.0344 0.186483 1.2 0.956299446939389 0.0437005529314101 1.1042768493476712e-29 1.29204934715052e-10
134 3 1.29231 94.3682 5.99481 -1.2 0.9999644252107798 3.5574106510431485e-05 6.499029406216728e-26 6.827064684130362e-10
135 1 0.23706 98.8546 1.72503 1.2 0.9872888853880282 0.012711114388766598 4.525024311402371e-27 2.2320145985077396e-10
136 2 -2.03865 97.0323 1.61655 2.4 1.0 1.158146680084834e-18 2.0019065165357677e-36 1.1054507710296666e-40
137 3 1.25494 96.9829 1.75989 -1.2 0.9999935050181996 6.494976354043647e-06 1.1118665024930468e-29 5.446881055951977e-12
138 3 -0.730208 100.541 1.72603 -1.2 0.999988902861089 1.1097063574719937e-05 1.695032397814152e-28 7.533559141397216e-11
139 3 -1.18156 97.6866 0.469881 -1.2 0.9999936080357449 6.391961571895118e-06 4.5299555233755495e-30 2.6797624850343387e-12
140 3 -1.29318 97.5759 2.91852 -1.2 0.9999870241448028 1.2975825784385435e-05 2.481715263183038e-28 2.940709226900315e-11
141 1 -2.19856 100.866 0.21067 1.2 0.9868954774833752 0.01310452222495973 7.106015218867023e-31 2.916696269352113e-10
142 1 7.26435 103.86 1.71739 1.2 0.9894872369589153 0.010512758133839178 7.916638608287247e-31 4.907250591242601e-09
143 2 -0.0753893 102.127 1.60578 2.4 1.0 7.405384335105297e-22 6.157895464974968e-41 2.203822087177559e-39
144 3 1.44637 101.879 1.52934 -1.2 0.9999947748925081 5.225065715270413e-06 4.381509595943204e-31 4.17748998964952e-11
145 3 3.41662 105.704 1.73607 -1.2 0.9999916266525573 8.370510659505153e-06 2.602051228078877e-29 2.8367762883484806e-09
146 3 -0.782674 102.702 0.290867 -1.2 0.9999982229680187 1.7768812631771406e-06 1.945270577746551e-32 1.5071836343339228e-10
147 1 2.38563 111.252 3.19422 1.2 0.998132732666085 0.0018672673173663413 1.1100495481404701e-37 1.6543805145839937e-11
148 3 -0.836985 102.767 2.9701 -1.2 0.9999881562544815 1.184360603840195e-05 4.8262964056207165e-32 1.3948229270675873e-10
149 1 2.37108 108.377 4.80238 1.2 0.9966427137327835 0.003357283850096768 1.8256444615405573e-27 2.417114439049939e-09
150 2 5.04304 110.411 4.70113 2.4 1.0 5.735763832630985e-25 3.9061396377404364e-44 2.7997447457140385e-43
151 3 3.50155 110.357 4.71338 -1.2 0.9999989574546966 1.0425223280629503e-06 2.6616365006220775e-33 2.2972630060611387e-11
152 3 6.06007 106.63 4.79296 -1.2 0.9999937348057711 6.264742098431558e-06 7.723711325637091e-29 4.5213391419368847e-10
153 3 5.71445 109.582 3.41542 -1.2 0.9999986551389048 1.3448429054819104e-06 5.581755642893807e-31 1.8195430626107977e-11
154 3 5.71105 109.719 5.97291 -1.2 0.999993839380087 6.160026317199005e-06 2.7573323103870937e-28 5.935965783583262e-10
155 1 4.71889 106.13 3.2088 1.2 0.9903106691667667 0.009689330537834596 1.7946388139624405e-33 2.9539896605280945e-10
156 1 0.0568271 103.168 4.66187 1.2 0.9847709136416096 0.01522908306734134 2.2828787378123075e-32 3.2910469753500244e-09
157 2 6.80803 105.161 4.70291 2.4 1.0 7.636601944189913e-21 1.590879594444547e-40 2.421031084934396e-38
158 3 3.6627 105.345 4.81562 -1.2 0.9999950980640256 4.901836202915301e-06 1.1758618418503076e-31 9.97730585233388e-11
159 3 1.07493 101.417 4.70504 -1.2 0.9999745396329581 2.5457714724900378e-05 4.5533690172304e-28 2.652312144582948e-09
160 3 6.19203 104.437 3.4089 -1.2 0.9999870784913956 1.2921311373742698e-05 8.537065502030552e-31 1.9722693557326697e-10
161 1 4.65414 106.23 0.24971 1.2 0.9951482927927916 0.004851707035584249 1.4658957756501068e-34 1.7162699716425814e-10
162 3 6.08059 104.391 5.98615 -1.2 0.9999926685844849 7.330961084712235e-06 4.750578333136392e-32 4.544322436403271e-10
163 1 5.02863 108.939 1.69436 1.2 0.9964370869644577 0.0035629125490765656 2.531545171736184e-32 4.864615470566183e-10
164 2 2.74247 107.186 1.73571 2.4 1.0 1.5990067248761925e-24 6.481085050888942e-44 2.6055571378932094e-42
165 3 5.91681 106.998 1.68 -1.2 0.9999986761825236 1.3237934966192682e-06 3.0593297845030056e-33 2.3976519837777463e-11
166 3 3.77684 110.675 1.66116 -1.2 0.9999996717432035 3.281681024377068e-07 7.831832289238047e-33 8.869102433813482e-11
167 3 3.45817 107.813 0.486418 -1.2 0.9999984585073133 1.5412832503319992e-06 3.642473136007127e-33 2.0943326069690408e-10
168 3 3.29809 107.814 3.05496 -1.2 0.9999983899843585 1.609986190722129e-06 1.9612630316249651e-31 2.9451194882951724e-11
169 1 2.38698 111.169 0.0781981 1.2 0.9974631704822464 0.0025368295124929244 1.0166140672324133e-39 5.253560982122456e-12
170 1 7.15535 114.101 1.60944 1.2 0.9965820273471901 0.0034179725560075608 2.825797586320974e-34 9.68022193677681e-11
171 2 4.4179 112.262 1.57251 2.4 0.999999999999993 6.241499186324356e-27 8.78140436560968e-48 2.4335197548705316e-45
172 3 5.98417 112.175 1.57856 -1.2 0.99999953415522 4.6577150005668954e-07 1.461768134662968e-34 7.328141664374847e-11
173 3 3.32193 115.965 1.5381 -1.2 0.9999984171400791 1.5823636829601775e-06 4.908689170762393e-31 4.962387538782593e-10
174 3 3.72074 112.882 0.317687 -1.2 0.9999979491405997 2.0507723913044836e-06 5.968495713135475e-32 8.700858137161219e-11
175 1 2.35444 121.75 3.06439 1.2 0.9500150790275738 0.049984871007826434 7.846224867523573e-30 4.996460078140745e-08
176 3 3.71602 112.961 2.83442 -1.2 0.9999994794938515 5.204506151023837e-07 5.0986322152269185e-34 5.552864082986161e-11
177 1 2.2057 118.656 4.5425 1.2 0.9781708667019818 0.021829070211283982 4.1339088784722114e-26 6.308673623006614e-08
178 2 4.98392 120.787 4.67152 2.4 1.0 1.0524706035266561e-19 2.241468449076594e-40 4.267187982485221e-34
179 3 3.47094 120.827 4.62582 -1.2 0.999992183820986 7.788533748759518e-06 2.239339689689612e-29 2.764526319221079e-08
180 3 5.9839 116.951 4.50945 -1.2 0.999997564912798 2.4340970423010768e-06 2.3430193682059815e-30 9.901554285509538e-10
181 3 5.81666 120.109 3.34014 -1.2 0.9999853257315503 1.4662793671332033e-05 4.162270098438897e-28 1.1474783944594854e-08
182 3 5.67027 120.058 5.98513 -1.2 0.9999462978786577 5.354078550941399e-05 1.6390490340358447e-25 1.613358303119854e-07
183 1 4.70369 116.637 3.08336 1.2 0.9958412771179581 0.004158722853140864 2.1534761586943922e-36 2.8907213325071015e-11
184 1 4.64495 113.577 4.63641 1.2 0.9960448045375935 0.003955195245682661 1.5452219395342374e-35 2.1672729348812783e-10
185 2 6.73535 115.522 4.51053 2.4 1.0 2.719500171413991e-25 3.0979320137976583e-46 1.1104351254763514e-42
186 3 3.51542 115.592 4.52484 -1.2 0.9999992799195957 7.199879526283447e-07 3.228648170334335e-33 9.244762614594687e-11
187 3 5.69082 111.851 4.56449 -1.2 0.9999952715495617 4.726505596632987e-06 2.1822077460184413e-27 1.9448396902007664e-09
188 3 6.12947 114.942 3.19219 -1.2 0.9999988785251233 1.1213830788346364e-06 3.6347544579689354e-32 9.179250075050884e-11
189 1 4.77691 116.313 0.0673305 1.2 0.9933327529111072 0.006667247065409359 7.870493224841364e-37 2.34873430020824e-11
190 3 5.95929 114.795 5.78086 -1.2 0.9999982102217431 1.7895382312858495e-06 6.780808193435811e-32 2.4002590768865913e-10
191 1 4.86938 119.334 1.72994 1.2 0.978721973726028 0.02127802216434437 6.47459158891854e-32 4.109624074395947e-09
192 2 2.68934 117.47 1.55952 2.4 1.0 1.817024609080676e-24 2.842259219277934e-45 6.611635176664424e-43
193 3 5.8188 117.375 1.64112 -1.2 0.9999994293373712 5.706210406703409e-07 5.80438964363142e-34 4.158889597188772e-11
194 3 3.70669 121.183 1.74711 -1.2 0.9999943969074053 5.595938938513934e-06 8.51888642292607e-30 7.153649085715006e-09
195 3 3.32009 118.219 0.30439 -1.2 0.9999940686319608 5.930185380201717e-06 2.522657579525934e-30 1.1826561144598778e-09
196 3 3.34493 118.194 2.87361 -1.2 0.9999930552116745 6.9444636308033554e-06 1.7147232829940303e-30 3.2469577005117777e-10
197 1 2.39639 121.391 0.130414 1.2 0.9765836476884769 0.02341635117215651 1.674753917948313e-33 1.1393731445023404e-09
198 1 6.98031 124.436 1.51726 1.2 0.907484714415497 0.09251435071919353 1.3874177689132567e-28 9.348653046587822e-07
199 2 4.34093 122.626 1.63163 2.4 1.0 4.719371466040422e-21 1.317749319260211e-40 2.3053966373311244e-37
200 3 5.88635 122.582 1.65466 -1.2 0.999963219252598 3.673716450040508e-05 2.6600376632595982e-27 4.358290702873345e-08
201 3 3.32852 126.419 1.49609 -1.2 0.9999979437210665 9.601379115956367e-07 4.1134526315000305e-31 1.0961410253414701e-06
202 3 3.64651 123.277 0.336388 -1.2 0.9999809751726039 1.90090125282396e-05 1.2442991086149966e-29 1.5814865599241144e-08
203 1 2.36078 131.856 2.92852 1.2 0.8650171940205251 0.13498220933813806 4.8566278622374105e-27 5.966413318980775e-07
204 3 3.74673 123.299 2.90798 -1.2 0.9999788291688958 2.1026835957335034e-05 5.963480683435726e-28 1.4399514755942843e-07
205 1 2.30658 129.016 4.62964 1.2 0.8472977629409393 0.15270058883188978 8.857358612216081e-29 1.6482271769237386e-06
206 2 4.95862 131.055 4.55514 2.4 1.0 3.9040090506802737e-19 5.895651862218123e-34 3.1279794227845932e-34
207 3 3.38634 131.001 4.44534 -1.2 0.9999961407704919 3.3887954003597394e-06 1.4316504938486858e-30 4.7043410344679063e-07
208 3 6.0299 127.312 4.55731 -1.2 0.9999811364005922 2.8315962501869362e-06 2.7961971569940904e-28 1.6032003160910673e-05
209 3 5.61113 130.368 3.20764 -1.2 0.999994114188324 3.953187144717399e-06 1.8217783786178504e-28 1.9326245325629876e-06
210 3 5.81095 130.292 5.85346 -1.2 0.9999882652555254 9.171662886936204e-06 9.736256007553588e-27 2.5630815872372076e-06
211 1 4.65836 126.831 2.87643 1.2 0.902516538478106 0.09748335930224727 6.549583961330382e-35 1.0221964799699383e-07
212 1 4.57796 124.001 4.59582 1.2 0.8903049947479623 0.10969315335232363 1.400031766319523e-26 1.8518997121882743e-06
213 2 6.70558 125.723 4.38404 2.4 1.0 8.236881194133072e-20 2.2194323864947897e-38 1.2013551015392533e-31
214 3 3.473 125.838 4.42726 -1.2 0.9999973451767656 2.000290843388469e-06 1.3170258204130563e-30 6.545323843975544e-07
215 3 5.61695 122.258 4.66889 -1.2 0.9999898646235347 9.301899202765119e-06 9.851555226933267e-28 8.334772642666336e-07
216 3 6.11469 125.153 3.05278 -1.2 0.9999938234517498 5.47769662673072e-06 1.0546662029770912e-28 6.98851625468654e-07
217 1 4.66156 126.661 0.0016299 1.2 0.9286944190692236 0.0713055542388448 1.2171475919703236e-35 2.6691937523768975e-08
218 3 6.04108 125.15 5.64866 -1.2 0.9999754911882656 2.362030646901293e-05 2.7864768882242135e-27 8.885052613649248e-07
219 1 4.75235 129.696 1.5904 1.2 0.896248430528443 0.10375121189010439 4.045299244380139e-31 3.575814583972972e-07
220 2 2.53005 127.884 1.40071 2.4 1.0 2.1984416096101823e-23 2.1488496023428258e-45 2.196364284724554e-34
221 3 5.79274 127.684 1.44848 -1.2 0.9999991193956146 7.317505859762951e-07 1.0117426488161587e-34 1.4885379951504514e-07
222 3 3.76303 131.53 1.39978 -1.2 0.9999955722366252 2.6008407802509524e-06 2.21398876087663e-28 1.8269226013798186e-06
223 3 3.26544 128.489 0.0617959 -1.2 0.9999977741992483 1.6837882188745487e-06 9.681845504256337e-33 5.42012531181297e-07
224 3 3.26025 128.563 2.59435 -1.2 0.9999991750557192 5.03060064629879e-07 7.670404248777964e-35 3.218842162321028e-07
225 1 2.37946 131.829 0.0315049 1.2 0.9467600424795095 0.05323994900480687 7.190241531599173e-34 8.515679964566692e-09
226 1 7.11639 134.859 1.5653 1.2 0.8617148262366392 0.13828504587658713 8.516433769572308e-27 1.2788677766589768e-07
227 2 4.40054 133.038 1.52167 2.4 1.0 4.6172799115944064e-20 8.10722788329837e-38 7.260323429960738e-37
228 3 5.95452 132.978 1.49708 -1.2 0.999991858359426 8.074156931557197e-06 2.1479541976697425e-27 6.748363989352412e-08
229 3 3.38473 136.711 1.39758 -1.2 0.9999973373644117 2.155512076277365e-06 6.941725840425381e-29 5.071235144627006e-07
230 3 3.7122 133.695 0.338675 -1.2 0.9999971487274456 2.8213900307777442e-06 5.612214391377552e-29 2.988251983233716e-08
231 1 2.31372 142.378 2.83754 1.2 2.9716022008069504e-08 0.1848177433469625 2.3086639439774164e-51 0.8151822269370139
232 3 3.64206 133.52 2.93617 -1.2 0.9999565764529837 4.262663280972333e-05 1.4126087593937261e-23 7.96914201779745e-07
233 1 2.24859 139.441 4.36745 1.2 0.5287899756239469 0.4712082065113661 1.6278385928222942e-31 1.817864689034402e-06
234 2 4.96504 141.412 4.34341 2.4 1.0 1.9522013719994203e-26 9.079841183885019e-51 4.4852332188840354e-24
235 3 3.43564 141.438 4.30103 -1.2 0.5915080662162545 2.4537729870197913e-09 9.95862630529319e-39 0.40849193132996636
236 3 6.05873 137.807 4.42785 -1.2 0.999997089644822 8.688477612146991e-07 1.1210956492120088e-29 2.041507418940819e-06
237 3 5.68542 140.689 3.11898 -1.2 0.9991611520225105 1.768540108888085e-06 2.4408145012775626e-33 0.0008370794373863676
238 3 5.68854 140.821 5.69572 -1.2 0.9649714859756969 1.8801023561610244e-06 8.74112353804317e-31 0.03502663392195227
239 1 4.69637 137.289 2.95358 1.2 0.8019338271199834 0.1980661650009784 1.1147453976449496e-35 7.879044898797572e-09
240 1 4.60508 134.328 4.44604 1.2 0.8214195623629666 0.17857974702163748 9.774753317590565e-27 6.906154000410168e-07
241 2 6.73417 136.268 4.53615 2.4 1.0 5.233231966431432e-20 4.784535882904262e-37 2.2169006246626926e-38
242 3 3.51635 136.467 4.53128 -1.2 0.9999974876552369 1.3515602265739769e-06 4.129568624768967e-31 1.160784539572961e-06
243 3 5.57278 132.548 4.59553 -1.2 0.9999880476690836 6.5076145554096104e-06 4.757656949237273e-26 5.444716359680129e-06
244 3 5.95504 135.532 3.29772 -1.2 0.9999717444442369 2.5050525975267808e-05 8.60556646210432e-27 3.2050297908559756e-06
245 1 4.8015 137.14 0.0048824 1.2 0.8627877950058915 0.1372122008523825 1.0155926292505196e-35 4.141731801190919e-09
246 3 6.01946 135.684 5.81877 -1.2 0.9999406806184123 3.844836875152618e-05 3.473458874537513e-24 2.0871012833732433e-05
247 1 4.66927 139.986 1.17227 1.2 0.34066503967877343 0.6591765401654356 1.144026413781186e-31 0.00015842015579601096
248 2 2.69973 138.218 1.35701 2.4 1.0 8.119896732507626e-20 9.515534858394937e-40 8.85144748023545e-39
249 3 5.8696 138.16 1.31459 -1.2 0.9999945711093827 5.3399013074933155e-06 1.043445554477091e-29 8.898931485842425e-08
250 3 3.75356 141.831 1.23825 -1.2 0.0006913510286366336 8.014853775173722e-14 8.153274201798089e-44 0.9993086489712819
251 3 3.44209 138.811 0.0194703 -1.2 0.9999833778736953 1.5503556565786877e-05 2.5543885896589493e-27 1.1185697442844488e-06
252 3 3.33258 139.051 2.57838 -1.2 0.9999966990943444 2.687513696534402e-06 1.229176384751708e-32 6.133919619915559e-07
253 1 2.24404 142.235 -0.223613 1.2 3.782117263802639e-10 0.00039176291396519696 8.232867744743729e-49 0.9996082367078242
254 1 7.17198 145.485 1.36599 1.2 3.0376540316174124e-179 6.710107065832821e-49 0.0 1.0
255 2 4.32122 143.386 1.24617 2.4 0.005078753038043827 1.7518037118347392e-72 1.021333984610362e-110 0.9949212469619599
256 3 5.88302 143.271 1.26176 -1.2 5.732577503962396e-16 1.805844572390021e-38 1.7063380604408405e-77 0.9999999999999997
257 3 3.45238 147.079 1.36982 -1.2 2.4712605107426467e-259 0.0 0.0 1.0
258 3 3.56308 144.057 -0.00788514 -1.2 3.2244191934819586e-50 1.4754388927271878e-117 2.0914095721499857e-184 0.9999999999999876
259 1 1.77461 152.333 1.15086 1.2 0.0 2.1236609577668177e-147 0.0 1.0
260 3 3.71786 143.994 2.55225 -1.2 5.234973690540666e-48 3.3521516791499234e-114 1.1273107278907432e-181 0.9999999999999897
261 1 1.90886 150.173 4.70788 1.2 0.0 4.5133685319684317e-135 0.0 1.0
262 2 4.0723 150.963 2.8216 2.4 5.312322715431117e-270 0.0 0.0 1.0
263 3 2.68273 151.738 2.92222 -1.2 0.0 0.0 0.0 1.0
264 3 6.1847 148.187 4.38644 -1.2 0.0 0.0 0.0 1.000000000000161
265 3 4.81564 151.623 1.58558 -1.2 0.0 0.0 0.0 1.0