ITEM: TIMESTEP
2600
ITEM: NUMBER OF ATOMS
5600
ITEM: BOX BOUNDS xy xz yz pp pp pp
0	7.1235	0
0	201.985	2.3745
0	119.584	0
ITEM: ATOMS id type xu yu zu q pCrystal pDisloC pDisloB pDisloA
1 1 -1.45609 48.7207 -0.619073 1.2 0.0 2.5474516331556244e-138 0.0 1.0
2 1 2.93082 51.8014 1.77019 1.2 0.0 5.277855813593164e-149 0.0 1.0
3 2 0.843316 50.7432 0.0931028 2.4 3.223556997205954e-209 0.0 0.0 1.0
4 3 1.97913 49.5662 0.340705 -1.2 0.0 0.0 0.0 1.0
5 3 -1.23293 53.8913 1.48714 -1.2 0.0 0.0 0.0 1.0
6 3 0.0315284 50.1866 -1.1527 -1.2 0.0 0.0 0.0 1.0
7 1 -2.15925 59.6191 3.17038 1.2 1.057233382972542e-12 0.00176022182413975 1.2022211725775721e-64 0.9982397781748025
8 3 0.0507201 50.9605 1.41131 -1.2 0.0 0.0 0.0 1.0
9 1 -1.91859 56.5697 4.37355 1.2 9.205234075302056e-141 3.754452627189518e-36 0.0 1.0
10 2 0.524764 58.4824 4.67399 2.4 0.8080313977510112 1.4655352630998656e-66 7.649703582885668e-100 0.19196860224898404
11 3 -0.985669 58.6204 4.59344 -1.2 4.489288303582635e-22 5.984808190790054e-53 4.6342835991247193e-97 1.0000000000000016
12 3 1.71189 54.5872 4.55221 -1.2 1.6611241809803152e-287 0.0 0.0 0.9999999999998923
13 3 1.21743 57.7925 3.429 -1.2 5.198386307353969e-47 3.552127433796018e-110 1.580663626417333e-175 0.9999999999999906
14 3 1.25196 57.9249 5.90331 -1.2 3.290395490478291e-38 2.828396487020968e-92 7.0295997264892e-152 0.9999999999999959
15 1 0.218435 54.3611 3.07123 1.2 0.0 3.002483935362688e-97 0.0 1.0
16 1 0.702924 50.5866 3.19977 1.2 0.0 2.6510380495845594e-171 0.0 1.0
17 2 2.39777 53.1616 4.54076 2.4 1.718928360026032e-189 0.0 0.0 1.0
18 3 -0.830074 53.5383 4.47984 -1.2 0.0 0.0 0.0 1.000000000000224
19 3 2.47893 49.645 3.30472 -1.2 0.0 0.0 0.0 1.0
20 3 1.80582 52.4699 3.24391 -1.2 0.0 0.0 0.0 1.0
21 1 0.120648 54.4748 -0.233099 1.2 0.0 3.993405427062582e-96 0.0 1.0
22 3 1.83209 52.2672 5.78533 -1.2 0.0 0.0 0.0 0.9999999999999771
23 1 0.183175 57.2787 1.59256 1.2 5.826844684361094e-75 6.8747001846028585e-22 1.4489836463099372e-249 0.9999999999999966
24 2 -1.86207 55.3251 1.47729 2.4 1.1949887425076263e-103 0.0 0.0 1.0
25 3 1.36396 55.2189 1.49302 -1.2 3.026444783586219e-233 0.0 0.0 1.0000000000000104
26 3 -0.839864 59.0987 1.65708 -1.2 1.978483343597098e-17 5.4965758768785594e-42 1.0906672336348467e-77 0.999999999999999
27 3 -1.20674 56.1582 0.313046 -1.2 1.7470688114387654e-128 4.12174e-319 0.0 1.000000000000054
28 3 -1.06294 55.9957 2.77263 -1.2 1.2041618313890338e-156 0.0 0.0 0.9999999999999987
29 1 -2.27386 59.6844 0.226338 1.2 2.033448908979944e-13 0.0003382210439477811 2.8071263015701847e-62 0.9996617789558521
30 1 2.5488 62.504 1.81176 1.2 0.47579681796587825 0.5241465488908618 1.3158950079444444e-31 5.6633143264762756e-05
31 2 -0.158916 60.5968 1.72054 2.4 1.0 1.6510423743318696e-25 1.1022758540185979e-45 6.271962218889184e-19
32 3 1.42789 60.4491 1.77945 -1.2 0.0005921499954190384 7.90324238518071e-13 6.467197208184976e-40 0.9994078500037858
33 3 -1.13279 64.2696 1.74582 -1.2 0.9998613295169397 0.0001381590979563722 1.9416358005283272e-27 5.113851106962857e-07
34 3 -0.801489 61.4064 0.604266 -1.2 0.9107489368556839 1.8235079907307613e-06 5.799278546651663e-33 0.08924923963632733
35 1 -2.13324 69.9865 2.93297 1.2 0.6789740887334864 0.3210258215311199 6.1319910040713945e-30 8.97353984823415e-08
36 3 -0.747587 61.3549 3.00164 -1.2 0.470122867259344 2.6148881194765985e-07 1.7762457651787084e-32 0.5298768712518388
37 1 -2.03022 67.3097 4.47377 1.2 0.849601199490024 0.1503987901671398 4.219670378001155e-27 1.0342840491874839e-08
38 2 0.511263 69.03 4.36435 2.4 1.0 9.065061759922774e-18 2.772410564567112e-34 4.8901720399075364e-33
39 3 -1.06508 69.1148 4.40135 -1.2 0.9996575946162034 0.00034238166354789344 7.546887388156441e-24 2.3720243538117624e-08
40 3 1.70491 65.3489 4.59457 -1.2 0.9998429306154181 0.0001570470168421884 1.110344373607849e-25 2.2367745828088477e-08
41 3 1.09468 68.5953 3.01282 -1.2 0.9999215694496222 7.841454788713273e-05 4.006473926961527e-26 1.600249782700534e-08
42 3 1.22458 68.2544 5.51139 -1.2 0.9996926006163416 0.0003073963619206553 2.3603977588029697e-26 3.021742654144666e-09
43 1 0.43696 64.6282 3.15504 1.2 0.7098224177326612 0.290177161292773 2.443288268125188e-30 4.209745636578346e-07
44 1 0.255179 61.9758 4.56965 1.2 0.08731779971033383 0.9023436490240964 7.012858897899633e-32 0.01033855126556726
45 2 2.41988 63.9236 4.73356 2.4 1.0 1.0124203335139815e-21 7.621440587862802e-42 7.658113858827419e-35
46 3 -0.831532 63.9781 4.79642 -1.2 0.9999290459885672 7.09181507744443e-05 1.9783666516635884e-29 3.586065652599101e-08
47 3 1.19806 60.0805 4.59316 -1.2 3.365448800381589e-06 3.197584671289495e-17 3.273600826032929e-49 0.9999966345512022
48 3 1.7024 63.1404 3.46622 -1.2 0.9998063155282259 0.00019215224284105468 1.2166224089885972e-29 1.5322289270606926e-06
49 1 0.134504 64.7711 0.287914 1.2 0.653968098034486 0.3460303571972633 2.643876390143628e-29 1.5447682567927227e-06
50 3 1.67963 63.2951 6.02236 -1.2 0.9999656189457494 3.4083720028814125e-05 1.1169776193016102e-30 2.973342271501266e-07
51 1 0.10139 67.7647 1.46404 1.2 0.6144191762074731 0.3855805730617976 5.976253650653074e-30 2.5073073247437665e-07
52 2 -1.81057 65.8556 1.90489 2.4 1.0 3.298382918714478e-17 7.0269351865436316e-34 9.253836726350743e-33
53 3 1.47143 65.7411 1.86023 -1.2 0.9998168310154754 0.0001831623566527556 6.068073865110432e-27 6.627869408952113e-09
54 3 -0.8992 69.6432 1.4683 -1.2 0.9996434497010884 0.00035489572277130216 8.981989188346997e-25 1.6545761402016867e-06
55 3 -1.20695 66.4169 0.471786 -1.2 0.9996955431482406 0.00030440823018195725 5.212541123190467e-26 4.8621571516322495e-08
56 3 -1.06881 66.5479 2.9958 -1.2 0.999690184448446 0.0003098088899676685 2.899127079560869e-24 6.661587760139172e-09
57 1 -2.33134 69.9525 0.0368875 1.2 0.45009332363190596 0.5499047868283757 1.3919114965564045e-27 1.8895397155244375e-06
58 1 2.26563 73.0523 1.5173 1.2 0.8174985497829679 0.18250011783515674 1.2537098933031346e-23 1.3323818724148747e-06
59 2 -0.246639 71.1379 1.46398 2.4 1.0 3.637816464142069e-17 2.070691896074484e-33 1.4533581683254465e-29
60 3 1.33907 71.1258 1.54702 -1.2 0.9996224618524953 0.0003773485466085704 3.6766732376983264e-25 1.8960089499974308e-07
61 3 -1.48714 74.8385 1.59013 -1.2 0.999496652848962 0.0005033443295930714 2.965859598021657e-21 2.8214491487955797e-09
62 3 -1.00821 71.7637 0.238095 -1.2 0.9995157100893884 0.0004836785183838357 1.5040869934929998e-24 6.113922307536195e-07
63 1 -2.42762 80.6421 3.03979 1.2 0.9536512913641443 0.04634842895455632 3.1657811571940326e-26 2.796813007963748e-07
64 3 -0.960619 71.7408 2.81536 -1.2 0.9999722300405076 2.7751989524036063e-05 1.4586015828749037e-27 1.7969966620534812e-08
65 1 -2.33751 77.7598 4.43559 1.2 0.9847535495258578 0.015246449848543132 1.5864611194150557e-31 6.255967570403017e-10
66 2 0.337743 79.6161 4.48189 2.4 1.0 1.3051644560031562e-23 1.1091747446427055e-40 3.1293819808532823e-40
67 3 -1.13526 79.7455 4.4799 -1.2 0.9999926520128173 7.346881596872074e-06 1.0463344060319847e-28 1.1055881566814982e-09
68 3 1.50627 75.7298 4.59472 -1.2 0.9999938145394105 6.184103006916529e-06 1.631137656640694e-28 1.3575822167547264e-09
69 3 1.11445 78.9335 3.18587 -1.2 0.9998771789637994 0.00012280310236040812 1.9504177340851512e-23 1.793384247217903e-08
70 3 1.01661 78.8278 5.65991 -1.2 0.9999968285772508 3.171330070187535e-06 3.236636765669313e-31 9.267194682560788e-11
71 1 -0.0248404 75.4629 3.23392 1.2 0.9653648126588724 0.034635185878262656 4.3922119697259945e-31 1.462858866389494e-09
72 1 0.0636949 72.4492 4.57939 1.2 0.8481364575270828 0.1518633225917776 2.1543027523218197e-27 2.198811333789546e-07
73 2 2.1291 74.2829 4.5223 2.4 1.0 9.477552653618426e-20 7.485363418902089e-36 1.8943917847745325e-34
74 3 -1.06312 74.213 4.50438 -1.2 0.9999753298933323 2.4668826908175104e-05 1.3394448643327226e-28 1.279762144766921e-09
75 3 1.0818 70.5794 4.45836 -1.2 0.9998813897738538 0.00011819365475188429 8.967239299355071e-26 4.165713948587313e-07
76 3 1.33983 73.5704 3.2064 -1.2 0.9999782048293449 2.1792503673577276e-05 2.6600361963277605e-27 2.6669823138212878e-09
77 1 -0.0640904 75.3356 0.239234 1.2 0.8275087036751185 0.17249098372597896 1.2533530455894494e-22 3.125988993536648e-07
78 3 1.53348 73.5922 5.7854 -1.2 0.9999389713935785 6.10264037578416e-05 6.381931896905911e-26 2.2026669417746075e-09
79 1 -0.00720828 78.1765 1.51171 1.2 0.9558256667248527 0.04417348056145649 2.708330107575831e-21 8.527136954984316e-07
80 2 -2.10351 76.3328 1.69176 2.4 1.0 4.7276168272935e-20 5.222078222870719e-35 3.4760460045921716e-38
81 3 1.11058 76.3484 1.72605 -1.2 0.99696646470649 0.0030335320349459734 4.073838130048684e-19 3.258559641156912e-09
82 3 -0.980303 80.1044 1.64332 -1.2 0.9990482722556813 0.0009515011809387358 1.5650764540266248e-21 2.2656338500591195e-07
83 3 -1.43113 77.076 0.481482 -1.2 0.9996531673040139 0.00034683035502122635 1.4642225251229589e-21 2.340961359640785e-09
84 3 -1.29967 76.9703 2.93471 -1.2 0.9999861916845226 1.3808155836730905e-05 3.4992657467437296e-27 1.5963378793429434e-10
85 1 -2.30274 80.4603 0.0798596 1.2 0.8649299148909769 0.13504574166704061 5.236117461953819e-24 2.4343441980561803e-05
86 1 2.32346 83.479 1.51756 1.2 0.9659520500958257 0.034047216853571205 2.852590603530733e-25 7.330506041335804e-07
87 2 -0.339749 81.5776 1.53765 2.4 1.0 4.049497906229924e-21 2.306117252624643e-37 7.652736246852924e-32
88 3 1.20609 81.6676 1.54631 -1.2 0.9997443681759992 0.0002556014855969715 2.0518801734212666e-23 3.033840102870917e-08
89 3 -1.3429 85.1523 1.676 -1.2 0.9999387156033217 6.119438269721114e-05 4.877268341786706e-25 9.001398264893696e-08
90 3 -1.07373 82.1972 0.236734 -1.2 0.9993411217832592 0.0006584175874060462 9.364614731623932e-23 4.6062933138181077e-07
91 1 -2.28086 90.9257 3.12875 1.2 0.9563813779686628 0.04361858178977099 2.903875614581843e-29 4.024156756239127e-08
92 3 -1.04464 82.3426 2.82102 -1.2 0.9999643168575554 3.5674666781647004e-05 4.347573897103639e-26 8.475666374267793e-09
93 1 -2.00059 88.0454 4.45427 1.2 0.9791026697102947 0.02089731871369377 2.5165968314943827e-30 1.1576015124355975e-08
94 2 0.484704 89.8125 4.68212 2.4 1.0 2.000257987304539e-22 1.786099637384254e-39 1.3641623530115438e-41
95 3 -1.05446 89.8602 4.69676 -1.2 0.9999928153827423 7.18415325206889e-06 3.192716713563854e-29 4.640080175648704e-10
96 3 1.46256 86.2212 4.68075 -1.2 0.9999846099261256 1.5361730340906517e-05 1.9788411934603686e-25 2.8343535043877898e-08
97 3 1.09945 89.2262 3.31795 -1.2 0.9999737303452033 2.6254992768726828e-05 1.293169633532852e-27 1.4662027992803658e-08
98 3 1.17376 89.2832 5.95871 -1.2 0.9999534600495473 4.652143940704524e-05 2.4988180763291898e-25 1.8511042729508773e-08
99 1 -0.0327709 85.5777 3.12665 1.2 0.956724549676401 0.04327520321271819 4.850186358694414e-27 2.471108772804258e-07
100 1 -0.042459 82.9436 4.6389 1.2 0.9841323963550741 0.015867576686050565 1.44656507001283e-28 2.6958872568613382e-08
101 2 2.14335 84.7013 4.61012 2.4 1.0 8.475185415374554e-22 1.194950780748211e-37 6.453870450539156e-37
102 3 -1.05085 84.7618 4.63467 -1.2 0.9999961221960387 3.8767717909920546e-06 5.211653663111325e-30 1.0321716762509253e-09
103 3 1.04362 81.1067 4.48502 -1.2 0.9999973260000641 2.6718910504396268e-06 1.2468934325216983e-29 2.1088911400713946e-09
104 3 1.38892 84.0891 3.41233 -1.2 0.9999712525446752 2.8723244191299935e-05 5.029746282626559e-25 2.4211134256365864e-08
105 1 0.00698189 85.4329 0.135474 1.2 0.950721664830602 0.04927784358876469 1.410925798001427e-25 4.915806352288618e-07
106 3 1.4487 83.9685 5.85255 -1.2 0.9999676450217886 3.235232204163374e-05 5.541067658021e-26 2.656165685859611e-09
107 1 0.207827 88.4849 1.63442 1.2 0.9573496714383529 0.04265022105544198 3.5851682476011317e-26 1.0750620527023362e-07
108 2 -1.92927 86.7462 1.61695 2.4 1.0 1.4623635884657307e-20 4.142467854244987e-39 4.231673859700221e-38
109 3 1.30384 86.6944 1.81318 -1.2 0.9999115262882491 8.846837947971566e-05 4.5993936314148685e-25 5.332274864372706e-09
110 3 -0.952562 90.4489 1.68553 -1.2 0.9998810312331853 0.00011877650454239432 1.745820141344656e-24 1.9226227017784966e-07
111 3 -1.2852 87.3075 0.256967 -1.2 0.9999483463881873 5.160911246391383e-05 1.635816716301257e-27 4.4499344446074044e-08
112 3 -1.17121 87.3161 2.88913 -1.2 0.9999713353486643 2.866257653179176e-05 2.0767837537281043e-26 2.0748037985584242e-09
113 1 -2.22147 91.0884 0.172389 1.2 0.7975465809900365 0.2024532216074022 2.8397085198156054e-25 1.9740256602111542e-07
114 1 2.50474 93.7612 1.72524 1.2 0.9220942030283694 0.07790460315758146 1.7017043432013627e-19 1.1938140527093165e-06
115 2 -0.170986 91.9315 1.70299 2.4 1.0 1.0382523902476674e-17 9.995976892569026e-34 8.09154652382071e-37
116 3 1.35738 91.8716 1.72645 -1.2 0.9973796432059562 0.0026202967260982183 1.614654526202735e-21 6.006795093811756e-08
117 3 -1.20617 95.547 1.68253 -1.2 0.9987028833515164 0.00127433969606861 6.275843724355318e-20 2.2776952419978343e-05
118 3 -0.826312 92.5893 0.340316 -1.2 0.9992178441241997 0.0007815108003151461 1.9212168517801254e-22 6.450754866164191e-07
119 1 -2.29877 101.155 2.98865 1.2 0.9648235094972746 0.03517568433718553 3.047977650787303e-26 8.061655418925394e-07
120 3 -0.844064 92.6387 2.97102 -1.2 0.9997072515456101 0.0002926659324282003 3.669065213506515e-23 8.252196406806852e-08
121 1 -2.15002 98.3159 4.6881 1.2 0.9752692549255327 0.02473032399408147 1.3415968496275895e-24 4.210803832611996e-07
122 2 0.500237 100.124 4.69591 2.4 1.0 6.542903108563643e-21 6.498353220434732e-37 5.066702014188142e-34
123 3 -1.04936 100.361 4.63031 -1.2 0.99998208652054 1.7890114954885488e-05 2.0137592013896355e-28 2.3364510163114875e-08
124 3 1.58889 96.5178 4.78723 -1.2 0.9999240533166212 7.418356379588989e-05 6.726519803810938e-24 1.7631195794525541e-06
125 3 1.03844 99.3869 3.34642 -1.2 0.9991524255501153 0.0008436943221289511 1.029739932189922e-22 3.880127748911008e-06
126 3 1.26746 99.5086 5.92224 -1.2 0.9998444828557035 0.00015538927808305186 6.765667938660921e-25 1.2786620784389096e-07
127 1 0.0977107 96.0389 3.23435 1.2 0.8727999316489438 0.12718587546298155 5.009539932554672e-22 1.4192888076048158e-05
128 1 0.103269 93.2375 4.79416 1.2 0.9865152423334043 0.013484611394245831 2.5383625288444366e-26 1.4627234502430527e-07
129 2 2.18625 94.9896 4.73069 2.4 1.0 2.466113533091157e-20 1.7388737598138705e-34 4.745700740038094e-36
130 3 -1.01546 95.1292 4.76667 -1.2 0.9999351726281391 6.47102107099953e-05 1.3728243215974758e-26 1.1716114723018593e-07
131 3 1.14209 91.3606 4.57182 -1.2 0.9999890788543059 1.0910706636106851e-05 9.371107009204123e-28 1.0439055645237207e-08
132 3 1.63965 94.4213 3.42762 -1.2 0.9991456813146667 0.0008518770264129829 4.144798612993123e-20 2.4416589244905175e-06
133 1 0.213767 95.8626 0.223478 1.2 0.8187133518856166 0.18127780432491444 3.571350271841528e-24 8.843789471100169e-06
134 3 1.5883 94.3021 5.99208 -1.2 0.9999527352013047 4.722300576895792e-05 1.752708205903944e-26 4.179292057018753e-08
135 1 0.294794 98.7294 1.66807 1.2 0.924746706109698 0.07524322470679658 8.295242166191833e-21 1.0069183502430839e-05
136 2 -1.9588 96.9501 1.79527 2.4 1.0 1.5903459735412674e-18 2.5971814951361713e-32 2.9271868348155938e-30
137 3 1.27701 96.9495 1.8648 -1.2 0.9986281685059366 0.0013150385425890739 9.278637862698263e-20 5.679295146737992e-05
138 3 -0.897863 100.584 1.54899 -1.2 0.9987279995579362 0.0011990839366602952 3.6817286284609555e-21 7.291650540687415e-05
139 3 -1.30526 97.8448 0.628342 -1.2 0.9997169510699238 0.000276564130855649 2.2805215966332497e-23 6.4847992212465965e-06
140 3 -1.22526 97.7121 3.01075 -1.2 0.9987339017815619 0.0012631644405041661 1.0641426401260743e-21 2.9337779380245826e-06
141 1 -2.2827 101.119 0.11496 1.2 0.9406826680154421 0.059315834094821454 3.059655254780981e-26 1.4978897362949525e-06
142 1 7.07139 103.919 1.63163 1.2 0.9925163741152109 0.007483543278368004 2.267441231718762e-24 8.260641652421913e-08
143 2 -0.244922 102.109 1.59116 2.4 1.0 3.616879863989724e-23 7.137352683401134e-41 1.253232642583419e-33
144 3 1.22731 101.985 1.56762 -1.2 0.9999508182485118 4.886371909267744e-05 2.8733920106051767e-27 3.180324027223679e-07
145 3 3.60989 105.704 1.67897 -1.2 0.9996725309559102 0.00032740724745830254 3.2323216730182222e-24 6.17966294689901e-08
146 3 -0.915909 102.774 0.347348 -1.2 0.9999654162052685 3.447749303030963e-05 4.694598753557123e-27 1.0630170234876877e-07
147 1 2.50827 111.445 3.22275 1.2 0.9904696778398285 0.009530320737355328 1.330119013321735e-29 1.4228150970935336e-09
148 3 -0.914749 102.76 2.82174 -1.2 0.9996928833627085 0.00030637852531841436 6.81950244286254e-24 7.38111978619002e-07
149 1 2.66437 108.409 4.6359 1.2 0.9952404911828937 0.0047594985328570085 1.0379893252970127e-24 1.0284244412891788e-08
150 2 5.29379 110.539 4.63159 2.4 1.0 1.7485555019590315e-21 3.6798940537633214e-42 1.0260961452297137e-33
151 3 3.75895 110.396 4.73034 -1.2 0.999996708818175 3.291168961963105e-06 5.428316172335947e-29 1.2867114431938534e-11
152 3 6.27412 106.824 4.68481 -1.2 0.9999731447052606 2.6853600488240595e-05 1.0091102048041798e-26 1.6942458433552655e-09
153 3 5.89307 109.886 3.33143 -1.2 0.999943984868863 5.6014812922349325e-05 4.33399826649453e-25 3.1821021328345346e-10
154 3 6.0167 109.729 5.84258 -1.2 0.9998376161470918 0.00016238256942513647 5.437402018869183e-25 1.2834830679922935e-09
155 1 4.8536 106.345 3.22784 1.2 0.9903112505304302 0.009688725683153524 7.477736823973683e-27 2.3786414902939496e-08
156 1 0.0201765 103.387 4.54534 1.2 0.9906670607709622 0.009332853546314804 7.208036782401219e-27 8.568271591299794e-08
157 2 6.89707 105.333 4.66466 2.4 1.0 4.0851649814812656e-23 3.812906935039759e-42 6.518024713102474e-36
158 3 3.74786 105.455 4.63125 -1.2 0.9999749211298133 2.507402747069428e-05 8.495080637350038e-28 4.842720614653924e-09
159 3 1.1244 101.609 4.74335 -1.2 0.9999907774157842 9.129739264503238e-06 1.386859426390325e-28 9.284495059996406e-08
160 3 6.26998 104.682 3.38166 -1.2 0.9988708502524324 0.0011288415366436445 3.0512304246225806e-22 3.082109308060277e-07
161 1 5.01034 106.197 0.083408 1.2 0.9956876511514898 0.004312347784679612 4.220074628278614e-31 1.0638280033468441e-09
162 3 6.34608 104.642 5.9576 -1.2 0.9999185845094536 8.140561105220314e-05 7.076219514683505e-26 9.879497823414668e-09
163 1 5.15505 109.196 1.63064 1.2 0.9968125043225381 0.0031874950670943516 9.578610086074737e-27 6.103695372246339e-10
164 2 2.91837 107.255 1.62838 2.4 1.0 2.8973251290752194e-23 8.575170717993833e-43 4.376089272459767e-37
165 3 6.17143 107.168 1.68509 -1.2 0.9999383417369129 6.165763373969108e-05 3.803814619996338e-26 6.29351711247226e-10
166 3 3.77595 110.829 1.50609 -1.2 0.9999799547894759 2.0045160126351227e-05 3.482374938514925e-26 5.0402217160567165e-11
167 3 3.63913 107.827 0.291497 -1.2 0.9999929395836337 7.0603250853274e-06 1.1247228695895952e-29 9.127700376684149e-11
168 3 3.62739 107.964 2.79698 -1.2 0.9999727262584716 2.727368479164909e-05 3.542213818894916e-27 5.674155750335616e-11
169 1 2.48209 111.351 0.134116 1.2 0.9962771270161142 0.0037228727746299478 2.1799347309860926e-28 2.092628991311799e-10
170 1 7.13697 114.112 1.40465 1.2 0.9882709491869878 0.011728990741094118 4.0911805274008163e-25 6.007192052088552e-08
171 2 4.4974 112.331 1.52083 2.4 1.0 2.44445725983751e-23 5.392091938104236e-43 4.75335039517045e-37
172 3 6.01625 112.339 1.45469 -1.2 0.9999916380047184 8.361971556227064e-06 2.781665531730505e-28 2.3725680307386053e-11
173 3 3.36834 115.866 1.31807 -1.2 0.9999540182268649 4.59806715757043e-05 8.692247883238648e-27 1.1015603762249107e-09
174 3 3.73893 112.943 0.228874 -1.2 0.9999722457843049 2.7754102872289018e-05 4.311704445895789e-26 1.1281570304062518e-10
175 1 2.13318 121.636 2.9347 1.2 0.9880571733697581 0.011942824772398442 5.675537384782179e-31 1.8578363249804963e-09
176 3 3.76176 112.992 2.78908 -1.2 0.9999766540404091 2.334434895214956e-05 7.309351896935863e-28 1.6106416092476785e-09
177 1 2.35353 118.631 4.23924 1.2 0.9771489812411488 0.02285097961086534 2.7830708204850907e-27 3.914798234131388e-08
178 2 5.02664 120.562 4.43381 2.4 1.0 6.509308331478933e-19 1.0912476920972375e-34 6.766837800134067e-32
179 3 3.51713 120.69 4.32864 -1.2 0.9998928604912839 0.00010713842658330993 8.973444109240053e-27 1.0821283430304294e-09
180 3 6.13187 116.944 4.47363 -1.2 0.9996404330646304 0.0003593410039816091 5.039754237612316e-24 2.2593139149089316e-07
181 3 5.71768 119.871 3.26481 -1.2 0.9997934923080176 0.0002065069194051745 1.4402004790297984e-24 7.72575073122406e-10
182 3 5.61512 119.871 5.66079 -1.2 0.999871034515368 0.00012894360761983245 9.060487446842627e-26 2.18770181369471e-08
183 1 4.74457 116.287 2.86415 1.2 0.9554896830190535 0.04451025711895298 1.885508731079823e-27 5.986199401668339e-08
184 1 4.77732 113.649 4.64991 1.2 0.9692659611275083 0.030733953447584332 2.9200968582502387e-27 8.542490214770714e-08
185 2 6.73824 115.478 4.52424 2.4 1.0 3.348547940707095e-18 2.6888808437165513e-34 1.011464410316991e-27
186 3 3.5689 115.454 4.46699 -1.2 0.9998682639439933 0.00013171015660943196 1.1677655879535736e-26 2.589939429527855e-08
187 3 5.94305 111.973 4.61202 -1.2 0.9999743290354224 2.5645252155931117e-05 1.017760547968886e-27 2.571242262998568e-08
188 3 6.16068 114.798 3.16899 -1.2 0.9999140373671683 8.595444720270431e-05 9.193570744129996e-26 8.185634748431454e-09
189 1 4.83417 116.422 -0.0475625 1.2 0.9775394733043995 0.022460480212242295 6.387359213667795e-27 4.648336349909353e-08
190 3 6.00815 114.851 5.78032 -1.2 0.999535874065827 0.00046220340358883787 2.2566540774865423e-24 1.9225305850647405e-06
191 1 4.75444 119.351 1.4212 1.2 0.9865803750724642 0.013419606453434312 6.081466903800591e-25 1.8474096840512502e-08
192 2 2.75607 117.306 1.28524 2.4 1.0 2.896880362268333e-20 4.845942442413786e-37 2.8529451700095873e-33
193 3 5.92953 117.387 1.35075 -1.2 0.9993715591618729 0.0006284389635562968 1.9229141896158513e-22 1.8745706111583987e-09
194 3 3.53386 121.207 1.45039 -1.2 0.9999735323299803 2.6467594692708448e-05 3.9188450923636323e-28 7.532326012919682e-11
195 3 3.41295 117.951 0.0148911 -1.2 0.9999764274135017 2.357257580322426e-05 6.38845234331063e-27 1.0699087540556603e-11
196 3 3.42029 117.986 2.58472 -1.2 0.9999513101088054 4.868932580506981e-05 2.9838575778391382e-27 5.653864963502117e-10
197 1 2.32533 121.728 -0.11216 1.2 0.9965492145527614 0.0034507853540475344 5.95268088493439e-34 9.318841352951137e-11
198 1 6.94395 124.552 1.54029 1.2 0.9957734702694504 0.004226528936073544 3.1992568757477346e-32 7.944694644729818e-10
199 2 4.21497 122.73 1.44087 2.4 1.0 1.974605481493285e-25 1.105723758260372e-45 2.4551043449701433e-39
200 3 5.78661 122.622 1.41996 -1.2 0.9999958779042806 4.1220841602916165e-06 1.3409324677047384e-32 1.1553763338681186e-11
201 3 3.3515 126.19 1.38448 -1.2 0.9999948160413301 5.183815558771631e-06 1.5171090846774386e-30 1.431118066052343e-10
202 3 3.77939 123.259 0.0197588 -1.2 0.9999968138730704 3.1861074208145875e-06 1.9533903939798607e-31 1.951577450145717e-11
203 1 2.2784 131.897 3.04754 1.2 0.9882408589931833 0.011759140795360834 1.7595353018639918e-33 2.1145899533206745e-10
204 3 3.56203 123.413 2.71596 -1.2 0.9999970353461584 2.9645826047060134e-06 1.5539333269948102e-33 7.123821601604678e-11
205 1 2.35383 129.17 4.39618 1.2 0.991000679885595 0.008999319738219947 1.8912393590787577e-31 3.761818484419564e-10
206 2 4.93399 130.882 4.50231 2.4 1.0 1.8195630191531563e-21 1.2683336248835733e-39 6.458738720567867e-39
207 3 3.43564 131.055 4.38497 -1.2 0.9999963389353126 3.6608896461710743e-06 4.9523935851829766e-30 1.750353391645791e-10
208 3 6.1135 127.25 4.51618 -1.2 0.9999965639180518 3.435667214370188e-06 7.085729941949821e-31 4.1473435932756685e-10
209 3 5.63635 130.274 3.20735 -1.2 0.999996942057294 3.0579229983220544e-06 4.340306811915211e-31 1.971406556244578e-11
210 3 5.70071 130.247 5.83225 -1.2 0.9999911807619898 8.818539859246661e-06 8.425863510494902e-30 6.981523918677509e-10
211 1 4.73025 126.763 2.94409 1.2 0.9935855207128371 0.006414479058996577 7.686422080133398e-34 2.2815937362014887e-10
212 1 4.50558 123.945 4.54158 1.2 0.9716128811448239 0.028387114818492855 5.857744207138865e-32 4.036677605017719e-09
213 2 6.7719 125.712 4.35186 2.4 1.0 1.7967320574742602e-23 3.301838800247814e-43 9.388108646659153e-39
214 3 3.5023 125.874 4.40235 -1.2 0.9999986226618596 1.3772879006547652e-06 1.4535570926319857e-33 5.023810874076464e-11
215 3 5.66447 122.098 4.51506 -1.2 0.9999166097789104 8.336694386207993e-05 2.749500497351239e-25 2.3277223226314212e-08
216 3 5.97611 125.206 3.08959 -1.2 0.9999933912000604 6.6085332088828104e-06 2.3319269916147745e-29 2.6673524157742505e-10
217 1 4.73999 126.762 0.043779 1.2 0.9973126340781318 0.002687365598731524 1.6113645662567782e-32 3.231326354328198e-10
218 3 6.01479 124.952 5.4998 -1.2 0.999984255673407 1.574411422990024e-05 7.232771906236877e-32 2.123580437142156e-10
219 1 4.83349 129.509 1.58448 1.2 0.9983596966106649 0.001640303378803098 2.5823242966110276e-33 1.0537481165895637e-11
220 2 2.74118 127.764 1.41695 2.4 1.0 1.1879315178365274e-24 9.612714943415705e-44 7.224222137892903e-44
221 3 5.95115 127.739 1.51972 -1.2 0.9999946886247895 5.311368017574709e-06 3.1040297444955255e-30 7.1966339661002286e-12
222 3 3.64297 131.409 1.54956 -1.2 0.9999953209137874 4.6782121794825095e-06 3.7264636042929635e-29 8.740351482285245e-10
223 3 3.45804 128.363 0.226674 -1.2 0.9999978114920867 2.1884928401642657e-06 1.1786658951658347e-29 1.507824194967703e-11
224 3 3.39254 128.335 2.79608 -1.2 0.999994952572953 5.047396727403918e-06 1.0227263606302002e-30 3.0319961646542295e-11
225 1 2.35485 131.833 0.0885257 1.2 0.9911259835080348 0.00887400824915583 1.949632531076322e-33 8.242816199864093e-09
226 1 7.00702 134.697 1.28958 1.2 0.9142253100879896 0.08576580155144287 7.672897807873468e-30 8.888360560421821e-06
227 2 4.42578 132.923 1.48929 2.4 1.0 1.9466303078172677e-24 4.960331042732329e-45 5.258793978222691e-35
228 3 5.94383 132.701 1.4135 -1.2 0.9999980655701345 1.934147364622678e-06 2.0744266804874916e-34 2.8249779971692176e-10
229 3 3.325 136.507 1.45805 -1.2 0.999996609819311 9.601154865642745e-07 7.885943991658838e-33 2.430065197195199e-06
230 3 3.72707 133.517 0.221944 -1.2 0.9999915246408956 8.305971773333256e-06 1.5522009671989677e-29 1.69387330011052e-07
231 1 2.47287 142.13 2.81832 1.2 2.325561205500077e-11 0.00019312423940641914 2.3050444969239647e-54 0.9998068757373396
232 3 3.82397 133.538 2.75528 -1.2 0.9999888533926449 1.1139756781088767e-05 1.3794357987692166e-29 6.850580926796859e-09
233 1 2.39559 139.333 4.36822 1.2 0.6617089099186196 0.33824700621772336 4.89775498840128e-31 4.408386365425986e-05
234 2 5.23432 141.278 4.50503 2.4 1.0 1.6710165096609679e-25 7.117979522805314e-49 9.168067028553069e-16
235 3 3.65554 141.384 4.43724 -1.2 8.513928374345608e-06 8.094443509464587e-17 5.428268601576434e-44 0.9999914860716277
236 3 6.19831 137.6 4.37034 -1.2 0.9999623060825701 6.421556211557045e-06 1.2320773555273778e-26 3.127236121175721e-05
237 3 5.86266 140.464 3.23872 -1.2 0.771626347832396 4.557334301967015e-07 8.189530268543318e-32 0.22837319643417525
238 3 5.87226 140.725 5.8346 -1.2 0.7991141019188176 8.54356325698419e-07 2.8048526686068805e-30 0.2008850437248514
239 1 4.74672 136.915 2.9448 1.2 0.7313940109341214 0.26859556597298323 1.638758089219168e-32 1.0423092900458944e-05
240 1 4.63015 134.17 4.42882 1.2 0.971908643802675 0.028091317681339947 6.3444547782747276e-27 3.851598677982713e-08
241 2 6.81695 136.018 4.50854 2.4 1.0 2.487181139465028e-21 2.8710779663002445e-40 7.212810943166108e-34
242 3 3.65737 136.167 4.43141 -1.2 0.9999963593486476 3.5974700060102746e-06 6.7588273489028265e-31 4.3181345661958884e-08
243 3 5.65362 132.451 4.5471 -1.2 0.9999933841936295 6.614380147421412e-06 1.0595712032513222e-29 1.4262183686032493e-09
244 3 6.14333 135.442 3.16493 -1.2 0.9999926421478565 7.286957252204901e-06 1.8739518418405853e-29 7.089489358443473e-08
245 1 4.58658 137.034 -0.0292449 1.2 0.5755748814584886 0.4243000537373094 3.9187335185883195e-32 0.00012506480420398678
246 3 6.13269 135.515 5.77997 -1.2 0.9999676557884506 3.2278296686067076e-05 6.318393956803587e-26 6.591487029802698e-08
247 1 4.64549 139.789 1.50292 1.2 0.14178581818255312 0.8071051692189284 5.235631657585527e-32 0.05110901259851922
248 2 2.68767 137.965 1.57297 2.4 1.0 6.742673436645739e-21 1.4256254695375583e-42 2.1361045218261902e-25
249 3 5.90191 138.004 1.58424 -1.2 0.999983811614252 2.2972377222201896e-06 2.661729370493509e-31 1.3891148032876453e-05
250 3 3.79175 141.697 1.18705 -1.2 1.2509044187692247e-07 3.517997452216821e-21 3.192918811340781e-50 0.9999998749095564
251 3 3.37079 138.612 0.258435 -1.2 0.9990111180806778 8.562904510716466e-06 6.75839046771473e-29 0.0009803190148106801
252 3 3.44007 138.614 2.77255 -1.2 0.9998353321483596 3.4776605834174395e-06 3.807869959855571e-29 0.0001611901910501903
253 1 2.35554 142.264 -0.191634 1.2 1.631821612251044e-13 1.2664454328412325e-05 4.7564046814802125e-61 0.9999873355455092
254 1 7.30186 145.345 1.37955 1.2 8.098377343466397e-184 1.0647922510749464e-43 0.0 1.0
255 2 4.45587 143.136 1.23853 2.4 0.0006857733588398527 1.2709410053113457e-74 2.5249573969983985e-106 0.9993142266411564
256 3 6.00156 142.968 1.23094 -1.2 6.651560241694977e-17 5.242911449614745e-40 3.4986522363220207e-73 1.0
257 3 3.44525 146.972 1.37624 -1.2 1.578222868057621e-297 0.0 0.0 1.0
258 3 3.9283 143.938 -0.011105 -1.2 8.026844351333455e-52 1.517535148683749e-125 1.6813108919985285e-186 0.9999999999999872
259 1 1.95166 152.028 1.58146 1.2 0.0 1.1143805484955137e-91 0.0 1.0
260 3 3.69936 143.808 2.58276 -1.2 1.8526992664867009e-50 7.105422939623628e-116 1.0853651955989268e-174 1.0000000000000095
261 1 2.23643 150.262 4.795 1.2 0.0 2.0129441423265064e-108 0.0 1.0
262 2 4.21623 150.777 2.9366 2.4 1.8796302166754178e-303 0.0 0.0 1.0
263 3 2.81329 151.473 3.1435 -1.2 0.0 0.0 0.0 1.0
264 3 6.04596 147.925 4.26874 -1.2 0.0 0.0 0.0 1.0
265 3 4.7711 151.411 1.61911 -1.2 0.0 0.0 0.0 1.0