ITEM: TIMESTEP
1200
ITEM: NUMBER OF ATOMS
5600
ITEM: BOX BOUNDS xy xz yz pp pp pp
0	7.1235	0
0	201.985	2.3745
0	119.584	0
ITEM: ATOMS id type xu yu zu q pCrystal pDisloC pDisloB pDisloA
1 1 -1.82227 49.5526 -0.791381 1.2 0.0 2.940054438947473e-90 0.0 1.0
2 1 2.75071 51.672 2.0745 1.2 0.0 1.1844318700614695e-115 0.0 1.0
3 2 0.717984 51.3037 0.199051 2.4 4.973567113259926e-217 0.0 0.0 1.0
4 3 1.96278 50.4596 0.508444 -1.2 0.0 0.0 0.0 1.0
5 3 -1.30806 54.1993 1.48672 -1.2 0.0 0.0 0.0 1.0
6 3 -0.103997 50.737 -1.0351 -1.2 0.0 0.0 0.0 1.0
7 1 -2.25672 59.8234 3.30798 1.2 4.6204225233253455e-08 0.0006539393723184193 5.450294831913322e-35 0.999346014423455
8 3 -0.145825 51.4874 1.52748 -1.2 0.0 0.0 0.0 1.0
9 1 -2.19402 56.9805 4.41938 1.2 6.79418815753854e-137 4.6904847283555276e-38 0.0 1.0
10 2 0.48642 58.762 4.76705 2.4 1.1762740792324493e-08 5.649724828551342e-78 7.502761586692725e-110 0.9999999882372635
11 3 -1.05289 58.7481 4.66659 -1.2 2.3395797151675346e-27 4.414409941565124e-62 8.481422752893836e-102 0.9999999999999977
12 3 1.54966 55.1087 4.34281 -1.2 4.8516540138805537e-296 0.0 0.0 1.0
13 3 1.2579 58.2314 3.47532 -1.2 2.6250137502660466e-45 1.4151122879923738e-103 7.550254772516517e-155 1.0000000000000027
14 3 1.22564 58.1239 5.98145 -1.2 1.9443480433562687e-48 1.5180614328140054e-113 8.936052367752016e-168 0.9999999999999921
15 1 0.190132 54.2972 2.88384 1.2 0.0 9.709956245708803e-97 0.0 1.0
16 1 0.681504 50.826 3.16724 1.2 0.0 7.363547412607134e-127 0.0 1.0
17 2 2.14347 53.6648 4.57287 2.4 4.211434470147509e-199 0.0 0.0 1.0
18 3 -1.05835 53.7161 4.52973 -1.2 0.0 0.0 0.0 1.0
19 3 2.51178 49.9389 3.30927 -1.2 0.0 0.0 0.0 1.0
20 3 1.58135 52.7 3.30385 -1.2 0.0 0.0 0.0 1.0
21 1 0.179503 54.6602 0.0775969 1.2 0.0 1.60787576881593e-83 0.0 1.0
22 3 1.37655 53.0929 5.84732 -1.2 0.0 0.0 0.0 1.0
23 1 0.155811 57.5157 1.89985 1.2 4.229611764662595e-69 7.964123091963864e-18 8.50077235295502e-223 0.9999999999999815
24 2 -1.8712 55.5842 1.5928 2.4 2.2666386888205447e-108 0.0 0.0 1.0
25 3 1.28466 55.5576 1.56323 -1.2 3.091128893148677e-245 0.0 0.0 1.0000000000001084
26 3 -0.881552 59.272 1.69025 -1.2 6.418210132544995e-16 2.696160838839046e-33 1.8708421806056074e-61 1.0
27 3 -1.20793 56.3145 0.294242 -1.2 1.6465546118695926e-145 0.0 0.0 1.0000000000000355
28 3 -1.02625 56.2977 2.85455 -1.2 8.491477702166907e-151 0.0 0.0 1.0000000000000113
29 1 -2.35564 59.6834 0.289006 1.2 6.8220932080742594e-09 0.00018171892227941032 1.3168271190964374e-37 0.9998182742556261
30 1 2.37676 62.6618 1.59492 1.2 0.7882523115378806 0.21173563238339013 2.2123611439316684e-28 1.2056078733408583e-05
31 2 -0.268682 60.7569 1.74821 2.4 1.0 2.870459770449183e-17 1.4341887774702057e-34 6.230629760326187e-20
32 3 1.29052 60.719 1.81617 -1.2 0.8990611236458435 0.0005947670224487515 2.4085600022400263e-24 0.10034410933170483
33 3 -1.28443 64.4622 1.61947 -1.2 0.9999000388644066 9.993496845452143e-05 9.976173649654202e-27 2.6167135137802148e-08
34 3 -0.943436 61.5002 0.505833 -1.2 0.9990792859875541 0.0007241063162376675 2.213427593343811e-25 0.00019660769620442387
35 1 -2.35865 70.0032 3.16115 1.2 0.998926508358933 0.001073491629251467 1.7264151484997903e-36 1.181152843222791e-11
36 3 -0.891424 61.4183 3.02191 -1.2 0.9952995237490133 0.0042253650932828355 3.448251433467269e-22 0.0004751111576981294
37 1 -2.14241 67.1139 4.7737 1.2 0.995255134697867 0.004744865068022513 5.447766120031322e-36 2.3411043962263553e-10
38 2 0.540699 69.0125 4.74643 2.4 1.0000000000000004 6.05549894783502e-26 7.822300246470349e-46 7.816926001085416e-47
39 3 -1.00602 69.1309 4.71384 -1.2 0.999999105452811 8.945465941901164e-07 9.504732084073347e-34 5.98219130726663e-13
40 3 1.53319 65.448 4.60885 -1.2 0.999992513806388 7.478551943446849e-06 4.827189694698862e-31 7.641672449684059e-09
41 3 0.940929 68.4992 3.30582 -1.2 0.9999988321662303 1.16783209198776e-06 1.287929288855823e-33 1.6712890483396194e-12
42 3 1.34877 68.3175 5.88636 -1.2 0.9999972085370553 2.791454994653288e-06 9.032746041414881e-32 7.950750894115252e-12
43 1 0.144415 64.8184 3.04907 1.2 0.9586334177979076 0.04136657237321352 5.753558562689595e-36 9.828878766187088e-09
44 1 0.136573 62.0344 4.65103 1.2 0.5797691663400685 0.4201391767073439 2.5092023365690468e-23 9.165695258809307e-05
45 2 2.19675 63.9744 4.56577 2.4 1.0 3.1867028836365433e-22 9.850539382866666e-42 1.5379593669336212e-33
46 3 -0.947118 63.8141 4.655 -1.2 0.9999018020184793 9.808596960990665e-05 1.0961716527117288e-27 1.1201190993980022e-07
47 3 1.1383 60.2887 4.82534 -1.2 0.0058311018130534475 4.8302522745483893e-08 9.638117615580507e-32 0.9941688498844211
48 3 1.48391 63.3228 3.33503 -1.2 0.999971211258953 2.869506512618478e-05 1.458894591821121e-30 9.367591668985207e-08
49 1 -0.0330093 64.9925 0.146245 1.2 0.9806224323360094 0.01937756657851183 3.1144420091086688e-34 1.0854763674833493e-09
50 3 1.59462 63.326 5.89292 -1.2 0.9999237983740137 7.607208698126792e-05 3.277815236900064e-28 1.2953900453858875e-07
51 1 0.0411112 67.8514 1.6135 1.2 0.9981676014201509 0.00183239849820954 7.206256036677963e-33 8.16359913494441e-11
52 2 -1.98351 65.9596 1.62342 2.4 1.0 5.863800573528827e-25 6.514361966975904e-45 2.332599252965576e-43
53 3 1.18398 65.8297 1.66068 -1.2 0.9999937085078401 6.2913990067763315e-06 3.514498315747988e-32 9.314972944879643e-11
54 3 -1.05628 69.7179 1.61287 -1.2 0.9999964122629208 3.5877025130200447e-06 3.694788432376337e-32 3.45622338225026e-11
55 3 -1.4781 66.6684 0.338582 -1.2 0.9999985350199486 1.4649771572364043e-06 2.7854125095357974e-32 2.8869324682478187e-12
56 3 -1.27493 66.6017 2.90078 -1.2 0.9999981491685861 1.8507821971713364e-06 3.1543573746691924e-34 4.921836477303082e-11
57 1 -2.43741 70.0382 0.131615 1.2 0.9956932259018296 0.004306773361057065 2.8215910717362993e-35 7.371200594308865e-10
58 1 2.23433 72.9097 1.66611 1.2 0.9992410684275208 0.000758931495687496 2.1338554475037313e-36 7.678514167117588e-11
59 2 -0.377904 71.2155 1.6333 2.4 0.9999999999999971 4.579822178621551e-27 8.959193446781986e-49 2.9943162064898527e-48
60 3 1.1619 71.0691 1.70394 -1.2 0.9999990583231934 9.41675129623892e-07 1.0325369780746107e-35 1.6793551018869616e-12
61 3 -1.27557 74.8042 1.6321 -1.2 0.9999988036808113 1.1962925183273116e-06 5.200711380304803e-35 2.6664820873943018e-11
62 3 -0.952867 71.8531 0.320428 -1.2 0.9999971924127652 2.807477225553057e-06 2.163598198321569e-33 1.1000559402497309e-10
63 1 -2.46498 80.4682 3.1477 1.2 0.9817524703995385 0.018247527239256392 4.862396066299346e-31 2.361201699914955e-09
64 3 -1.00695 71.8537 2.97548 -1.2 0.9999994947187573 5.052796966631854e-07 2.3507897402734138e-36 1.5528725638381037e-12
65 1 -2.20052 77.6112 4.6388 1.2 0.9991458556036888 0.0008541443021258258 5.202481593122863e-34 9.41869173467319e-11
66 2 0.302021 79.4358 4.56032 2.4 0.9999999999999941 2.106637553705783e-26 5.184993972470818e-46 4.25182355505062e-46
67 3 -1.26147 79.5452 4.54267 -1.2 0.9999984486277026 1.5512438514910267e-06 1.1255365978214532e-31 1.2845196310205962e-10
68 3 1.42278 75.8596 4.72389 -1.2 0.9999978749081426 2.1250328678500423e-06 1.090785607526791e-31 5.898948016491182e-11
69 3 1.02515 78.7404 3.37751 -1.2 0.999998032662762 1.9672596928035637e-06 2.8276472812438305e-30 7.754915370167788e-11
70 3 0.990975 78.8395 5.89084 -1.2 0.9999955053510923 4.4935612607713625e-06 1.4360992525516654e-28 1.0876469376115572e-09
71 1 0.0569543 75.1925 3.1028 1.2 0.9989342064549344 0.0010657935170620405 9.237747207485883e-38 2.800489260263851e-11
72 1 -0.00476256 72.383 4.56697 1.2 0.9993462630474268 0.0006537369330931308 9.214311271118034e-37 1.9486185832322005e-11
73 2 2.12177 74.3828 4.74032 2.4 0.9999999999999943 1.7927611358317397e-28 5.005809443514201e-50 2.4031346662341757e-48
74 3 -1.0735 74.4503 4.72449 -1.2 0.9999991211350365 8.788643791792759e-07 5.056360821636076e-36 5.838352428533159e-13
75 3 1.17324 70.5473 4.76987 -1.2 0.9999994241902044 5.758057491213513e-07 1.9628808066103328e-32 4.045258568493268e-12
76 3 1.43887 73.6488 3.54085 -1.2 0.9999983403206439 1.65967001379646e-06 1.3310863475559431e-34 9.349038253352089e-12
77 1 0.0117107 75.4448 0.0179752 1.2 0.9993850028203622 0.0006149971710068191 2.182291721293425e-40 8.63088419776139e-12
78 3 1.49207 73.7502 5.98829 -1.2 0.9999982774192897 1.7225774671418544e-06 1.5200866687789432e-31 3.2409180086657747e-12
79 1 0.103488 78.1436 1.67026 1.2 0.9976628015493285 0.0023371958775420896 4.367167336398126e-29 2.573134563301871e-09
80 2 -2.04609 76.1703 1.54905 2.4 0.9999999999999982 2.298268720923218e-25 2.0491744930119876e-46 2.1813476252741078e-46
81 3 1.135 76.0783 1.67088 -1.2 0.9999987949457256 1.2050505839241095e-06 1.0719778300324325e-34 3.6905957196634875e-12
82 3 -1.1215 79.9259 1.74908 -1.2 0.9999906342070706 9.365071852172444e-06 2.6909390656473405e-28 7.210822434233885e-10
83 3 -1.45453 76.8631 0.241438 -1.2 0.9999965691273137 3.430862572894444e-06 2.3120013343572307e-33 1.0115799270380664e-11
84 3 -1.38652 76.9539 2.76872 -1.2 0.9999984173526614 1.5826458136068233e-06 3.718790749748948e-32 1.51891235692185e-12
85 1 -2.51131 80.3804 0.323609 1.2 0.9815816870146232 0.01841831200285845 1.1096227814633899e-30 9.825168729112299e-10
86 1 2.41402 83.5014 1.36366 1.2 0.30501154971656563 0.6949884243382684 2.8658011300371436e-24 2.5945165100843793e-08
87 2 -0.308216 81.4176 1.67749 2.4 1.0 2.832359432689892e-16 3.5460921767447784e-35 6.221699095991321e-35
88 3 1.18626 81.2648 1.64431 -1.2 0.9998935698490631 0.00010642542811160729 4.627193282419664e-27 4.722831864709178e-09
89 3 -1.44772 85.3334 1.43068 -1.2 0.826378427112475 0.17361906384699352 7.589861725914098e-17 2.509040538528717e-06
90 3 -0.978532 82.1096 0.39673 -1.2 0.9978655928122568 0.0021343923598549463 1.089375151979617e-23 1.4827888699546377e-08
91 1 -2.35885 91.0856 3.50576 1.2 0.0023487582026234474 0.997629325434146 7.126405654058551e-17 2.1916363226902377e-05
92 3 -1.08995 82.087 2.93991 -1.2 0.9993155458640438 0.0006844106260361413 2.0616814031728345e-24 4.350992621541083e-08
93 1 -2.17231 87.976 4.40908 1.2 0.0035536477137656976 0.9964456195853648 6.678110811695255e-21 7.327008733573802e-07
94 2 0.425083 89.8669 4.91823 2.4 0.9999405231167862 5.9476883214246996e-05 1.3342164501583145e-18 8.793904651409752e-18
95 3 -1.16807 90.038 4.80064 -1.2 0.15416378596085029 0.8458218861774289 1.6175802456296758e-16 1.4327861718648447e-05
96 3 1.41531 86.151 4.3512 -1.2 0.7823704120737739 0.21761754511572762 1.186493714494208e-17 1.2042810499409087e-05
97 3 1.04696 89.2798 3.64185 -1.2 0.06896428871056962 0.9310218611141362 1.0158615179490671e-14 1.385017529061803e-05
98 3 1.00434 89.2044 6.18667 -1.2 0.6950265680443898 0.3049425966625854 2.8580804791891033e-18 3.0835293021050165e-05
99 1 0.0569191 85.6049 2.70665 1.2 0.02667874545590483 0.973321222415869 1.5388690324576302e-21 3.2128232862244345e-08
100 1 -0.130303 82.7172 4.57356 1.2 0.7907950794769578 0.20920472670049337 5.066223001001911e-23 1.9382254708704823e-07
101 2 2.0773 84.6398 4.4119 2.4 0.9999999997136086 2.863875357477697e-10 5.794579536181483e-25 6.606072380627733e-29
102 3 -1.16574 84.8188 4.45941 -1.2 0.9295902904625765 0.07040950922520965 2.093039040446471e-18 2.0031220849100966e-07
103 3 0.929733 80.9705 4.52064 -1.2 0.9999590547733365 4.0929437347393646e-05 1.3592335100158457e-25 1.5789318342451035e-08
104 3 1.40926 84.0832 3.09669 -1.2 0.9833460132931688 0.016651424915663057 8.196246304434262e-19 2.561791171695423e-06
105 1 0.09556 85.5507 0.0479712 1.2 0.017500551376367846 0.9824994403737615 4.404295125794283e-23 8.249877155887856e-09
106 3 1.33497 83.951 5.69643 -1.2 0.9884273821005397 0.01157255856076122 3.6496401132152396e-20 5.9338697791367496e-08
107 1 0.280043 88.6796 1.9385 1.2 0.0017968891172703693 0.9981955908811152 5.412913535295195e-16 7.520001616293118e-06
108 2 -2.00275 86.8465 1.36077 2.4 0.9998462976353928 0.00015370236460078451 1.3525071568386168e-19 5.083455934135165e-23
109 3 1.17121 86.6476 1.42133 -1.2 0.2220984680841234 0.7778995358264297 5.322815942873221e-16 1.9960894518303394e-06
110 3 -1.07985 90.39 1.88525 -1.2 0.383233771907521 0.6163999148540482 2.668451849241726e-15 0.0003663132384277352
111 3 -1.39737 87.5137 0.0679144 -1.2 0.44214541345138714 0.5578423302229383 1.3861336848739032e-15 1.225632567900925e-05
112 3 -1.3546 87.5447 2.56147 -1.2 0.052896605946476515 0.9470964981360139 6.4301366955164205e-15 6.895917504663403e-06
113 1 -2.22235 90.7788 0.255548 1.2 0.01677842070182701 0.9832158227044752 1.9432468188762754e-18 5.756593701053157e-06
114 1 2.42851 93.6992 1.81952 1.2 0.14931523859247983 0.850609507331373 7.998682147275716e-16 7.525407614274168e-05
115 2 -0.302024 91.8337 1.91572 2.4 0.9999982189262313 1.7810737626536827e-06 8.046289570170092e-21 1.936630592034102e-20
116 3 1.25711 91.8633 1.86719 -1.2 0.3011063983828659 0.6988845206206993 6.701625507096878e-16 9.080996427780176e-06
117 3 -1.28992 95.4963 1.66703 -1.2 0.9929116290791857 0.007084553432013311 1.2265332908005902e-19 3.817488805845304e-06
118 3 -0.923039 92.5072 0.618133 -1.2 0.6759682667253653 0.3240032260506096 1.1944686791438626e-16 2.8507224018552894e-05
119 1 -2.22471 101.16 3.28633 1.2 0.9814223805275711 0.018577613779432872 2.4259601001277776e-31 5.69299855444945e-09
120 3 -0.932164 92.6005 3.16699 -1.2 0.6005128139874786 0.3994245436167723 1.2003681257064419e-13 6.26423956311727e-05
121 1 -2.13592 98.3237 4.56377 1.2 0.9837882132605618 0.016211710190280143 4.241500559621621e-24 7.654916361533223e-08
122 2 0.50492 99.9906 4.76124 2.4 1.0 1.780621415718778e-24 5.950659520789068e-41 6.644441628611676e-41
123 3 -1.06259 100.111 4.76109 -1.2 0.9999864769620261 1.3522941842090091e-05 4.76990094519964e-27 9.613621036798122e-11
124 3 1.59735 96.5034 4.73694 -1.2 0.9921441097267598 0.007855675278234983 3.352332626216323e-18 2.1499500875329915e-07
125 3 1.14331 99.4097 3.43303 -1.2 0.9999451088361411 5.4889482906341186e-05 4.944466497258167e-26 1.6809552073458577e-09
126 3 1.11843 99.4013 6.0064 -1.2 0.9970211735538532 0.0029788254345418795 1.4621728819212691e-19 1.011605647308266e-09
127 1 0.0938474 96.0054 3.20592 1.2 0.664245177890188 0.3357057030152584 1.163683874823774e-19 4.911909454777938e-05
128 1 0.0228991 93.2902 4.86956 1.2 0.06106955328402364 0.9387898051782901 2.8087192630446234e-18 0.00014064153768850515
129 2 2.24616 95.0349 4.6434 2.4 0.9999999999998153 1.8695148403605393e-13 9.56513479548546e-26 2.450786608067035e-25
130 3 -0.938227 95.0366 4.75567 -1.2 0.9695851357056406 0.030414019821510742 1.50909343780765e-17 8.444728553047634e-07
131 3 1.13367 91.4774 4.96635 -1.2 0.7705674527692447 0.22940555335676793 5.439195646972563e-17 2.6993873987679196e-05
132 3 1.48615 94.4562 3.40003 -1.2 0.8678403493001943 0.13214441669359098 1.0334726814776103e-14 1.5234006203041067e-05
133 1 0.138094 95.9395 0.136289 1.2 0.7887800708707976 0.21121969703452448 3.7604383285560883e-26 2.32094672625444e-07
134 3 1.61044 94.3563 5.85894 -1.2 0.9095475118743859 0.09045146824166031 4.111221739651656e-16 1.0198839556450638e-06
135 1 0.175466 98.7252 1.79201 1.2 0.9761857538136175 0.023814228651337515 1.598454350037949e-28 1.753503880768168e-08
136 2 -1.94088 96.9667 1.59652 2.4 1.0 1.716027358937338e-18 2.3219662764289186e-38 3.589401859023026e-34
137 3 1.3187 96.8595 1.77275 -1.2 0.9996529320556556 0.00034705788945003116 2.402412508481989e-25 1.0054898671180133e-08
138 3 -0.958121 100.433 1.72863 -1.2 0.9999951277218493 4.866483130116026e-06 1.455432545398441e-29 5.795027110691203e-09
139 3 -1.18486 97.4982 0.391089 -1.2 0.9998910069770429 0.00010891827095694593 5.072280274588684e-29 7.475199692880017e-08
140 3 -1.24225 97.5512 2.83747 -1.2 0.9998093905040032 0.00019060350594179328 1.9804257822725498e-25 5.990058912728773e-09
141 1 -2.23341 100.836 0.237336 1.2 0.981250135772382 0.018749862812836148 4.446486622290398e-36 1.4147749320660284e-09
142 1 7.18207 103.91 1.60252 1.2 0.9956604084955067 0.0043395906674480065 1.0719390248262341e-32 8.370426373854673e-10
143 2 -0.211942 102.008 1.68784 2.4 1.0 3.9367717965387984e-25 8.065746124101042e-47 1.4997889857098687e-40
144 3 1.39057 101.917 1.69247 -1.2 0.9999992356468191 7.642479985102611e-07 5.618695356545876e-35 1.0518892878267017e-10
145 3 3.38269 105.631 1.61623 -1.2 0.99999985501591 1.449802058972411e-07 2.1641901189071716e-37 3.881960184780792e-12
146 3 -0.892626 102.633 0.40143 -1.2 0.9999972034954845 2.7960255008683584e-06 4.0017970754571766e-32 4.790120694916217e-10
147 1 2.52077 111.292 2.99719 1.2 0.9990508047850487 0.0009491952064538426 2.7153517739214528e-37 8.495005365334682e-12
148 3 -0.873969 102.745 2.92094 -1.2 0.9999982606823954 1.739277477949226e-06 1.9351970187252922e-30 4.013094603403136e-11
149 1 2.52228 108.489 4.53158 1.2 0.9994124470795125 0.0005875527182352875 1.5603522970544487e-29 2.022520483962149e-10
150 2 5.16733 110.266 4.38953 2.4 1.000000000000004 1.3640130075858922e-26 2.984426909828449e-46 1.5086691959512856e-47
151 3 3.64559 110.482 4.3653 -1.2 0.9999995914312936 4.0856840806952717e-07 2.6496977176764066e-32 2.932568752676186e-13
152 3 6.28121 106.72 4.42043 -1.2 0.9999993246700445 6.753065815416265e-07 2.1275451233156108e-29 2.336925159409491e-11
153 3 5.8708 109.658 3.12459 -1.2 0.9999992077484914 7.922512759265091e-07 2.3720625418274643e-34 2.279591560872184e-13
154 3 5.6713 109.438 5.59842 -1.2 0.9999989098390616 1.090160343410614e-06 3.0422578118541078e-30 5.998511974175099e-13
155 1 4.93921 106.299 3.16508 1.2 0.9967874512466411 0.0032125487380418585 3.096163744292528e-38 1.5315487567888934e-11
156 1 0.178076 103.403 4.60006 1.2 0.9973658208291797 0.0026341785518142987 5.982321779997665e-32 6.19002408111865e-10
157 2 6.93538 105.16 4.62863 2.4 1.0 1.0964310546923613e-26 1.227215294020181e-44 2.6642377538234118e-45
158 3 3.74622 105.141 4.57899 -1.2 0.9999997826829295 2.1731458352021546e-07 6.595253200225617e-34 2.487671076077767e-12
159 3 1.19234 101.568 4.75478 -1.2 0.9999929707878644 7.0290574410913875e-06 6.971942890755298e-28 1.546993176191292e-10
160 3 6.24426 104.513 3.31311 -1.2 0.9999996741841917 3.257852811628686e-07 2.392453116983304e-31 3.0529907249826964e-11
161 1 4.8242 106.037 0.151376 1.2 0.998183035961342 0.0018169640310388782 9.809503361774017e-42 7.612882745328485e-12
162 3 6.16154 104.689 5.96239 -1.2 0.9999901142787664 9.885690253392392e-06 5.442220556234065e-25 3.098690418105354e-11
163 1 4.8124 108.927 1.55226 1.2 0.9995072816384114 0.0004927183522937665 9.125495008815845e-38 9.294370431841581e-12
164 2 2.70235 107.171 1.59337 2.4 1.0000000000000027 2.0529760817825956e-30 8.249872669711001e-53 9.553394693628296e-51
165 3 5.87286 107.088 1.59456 -1.2 0.9999998769336762 1.2306462680204834e-07 1.10693838885471e-35 1.694676382033269e-12
166 3 3.81888 110.789 1.49595 -1.2 0.9999995182506478 4.817468762245804e-07 1.8481759339471503e-32 2.4790943389342498e-12
167 3 3.44494 107.762 0.325169 -1.2 0.9999996829630978 3.1703657546796797e-07 9.492809629936285e-40 3.264281522258455e-13
168 3 3.49369 107.855 2.84343 -1.2 0.9999996913923411 3.086068425982579e-07 9.177579907451841e-35 8.19784152028045e-13
169 1 2.38954 111.4 -0.028268 1.2 0.9995297868685383 0.00047021312900964474 2.561859421554135e-42 2.4554432496650663e-12
170 1 7.2413 114.219 1.60742 1.2 0.9997408888066515 0.00025911118825265545 8.437903322973818e-37 5.093759820686425e-12
171 2 4.59765 112.272 1.49909 2.4 0.9999999999999987 4.5222315704494185e-30 1.4583284483718727e-50 2.513895497228975e-52
172 3 6.10565 112.249 1.57832 -1.2 0.9999999664271436 3.3572837091892933e-08 1.699924188773399e-39 2.079749800611193e-14
173 3 3.56951 115.919 1.48515 -1.2 0.9999995386489072 4.6135053379225645e-07 8.497370984460712e-32 5.635372514605215e-13
174 3 3.9075 113.002 0.268062 -1.2 0.9999999643527694 3.564695784157951e-08 1.0570373735797086e-36 2.7077248514869235e-13
175 1 2.41931 121.392 2.7654 1.2 0.9655652513560415 0.034434712169537786 6.412934523697411e-30 3.647441944319782e-08
176 3 3.8611 112.994 2.74696 -1.2 0.9999998617296864 1.382701372605199e-07 1.0705076913731622e-33 1.8115041166129917e-13
177 1 2.57284 118.681 4.57914 1.2 0.9919985813185529 0.008001410693759954 8.272467553899524e-25 7.987683198135608e-09
178 2 5.14794 120.525 4.47875 2.4 1.0 7.772948158343348e-21 5.717650352450586e-40 1.0807888131401453e-35
179 3 3.56897 120.596 4.37585 -1.2 0.9999749739286371 2.502469292001876e-05 1.34809958401819e-27 1.378449320504672e-09
180 3 6.26965 116.911 4.52688 -1.2 0.9999973065728973 2.693405973581373e-06 4.716549465010217e-28 2.1130064103280844e-11
181 3 5.93832 119.88 3.19251 -1.2 0.9999693903921895 3.060939631037669e-05 1.1101818461165662e-27 2.1149472945764684e-10
182 3 5.82306 119.822 5.76374 -1.2 0.9999753093937992 2.46901596077839e-05 2.405730872341511e-28 4.465972225187527e-10
183 1 4.92597 116.547 3.06607 1.2 0.9981663934185606 0.001833606413507048 5.586739850071039e-30 1.679351223856377e-10
184 1 5.01828 113.65 4.36395 1.2 0.9996508241489022 0.00034917583774802976 4.077790470144633e-33 1.334532756275901e-11
185 2 6.99349 115.468 4.49092 2.4 0.9999999999999954 3.481548751702325e-27 1.5907929213922725e-46 2.751455327058266e-49
186 3 3.79932 115.641 4.51248 -1.2 0.9999996537372939 3.462619315568276e-07 2.3179048041388777e-32 7.688060393655705e-13
187 3 5.95177 111.725 4.54621 -1.2 0.9999998111891645 1.8880916651176582e-07 1.3800419965365814e-33 1.6725789339762343e-12
188 3 6.39171 114.801 3.21254 -1.2 0.9999999430146072 5.6985281218421955e-08 1.252896855489485e-33 1.070164265989391e-13
189 1 4.91382 116.403 -0.0122671 1.2 0.9995974219736601 0.0004025780151038685 5.525200224380265e-36 1.1234263467717298e-11
190 3 6.31612 114.788 5.72096 -1.2 0.9999996205418016 3.7945678337628895e-07 4.218607724016997e-31 1.4111656100982034e-12
191 1 4.85482 119.375 1.49711 1.2 0.9930362156884892 0.006963717166648446 2.8650508665429926e-25 6.714486505692785e-08
192 2 2.89509 117.376 1.53735 2.4 1.0 6.72393790246156e-24 8.413851976158945e-44 2.4556415149969728e-42
193 3 6.05228 117.302 1.48473 -1.2 0.9999994760738347 5.23925645999426e-07 1.277776979936713e-31 5.227983177869754e-13
194 3 4.01774 121.078 1.38914 -1.2 0.9999916538909143 8.343889660837643e-06 3.956020466577031e-28 2.2194219192631016e-09
195 3 3.55639 118.039 0.228341 -1.2 0.999999077528826 9.224693491167875e-07 8.017823716528484e-33 1.820250294305423e-12
196 3 3.53001 118.073 2.82613 -1.2 0.999989392095248 1.0607896102231327e-05 7.682168837982892e-28 8.649104203565522e-12
197 1 2.46619 121.444 -0.150865 1.2 0.9843028319425242 0.015697157677136933 1.3774890803156452e-30 1.0380340460663517e-08
198 1 6.98151 124.313 1.45226 1.2 0.8977654953267151 0.10223350420308966 6.512814906680615e-29 1.000470202120432e-06
199 2 4.48616 122.608 1.23161 2.4 1.0 8.024213008392638e-21 1.3427257618279981e-40 1.1765298972484035e-33
200 3 6.09132 122.661 1.34218 -1.2 0.9999808511558329 1.9148074657813487e-05 5.996666609443448e-31 7.695125218623912e-10
201 3 3.31301 126.218 1.27899 -1.2 0.9999325231998288 6.744369679788037e-05 2.151045743227387e-27 3.3103373756349605e-08
202 3 3.7882 123.084 -0.043199 -1.2 0.9999014301291923 9.856875909219165e-05 3.399937940526071e-26 1.1117128313887327e-09
203 1 2.18862 131.981 2.86029 1.2 0.978613527415239 0.021386281430288905 3.0916317043774497e-31 1.9115447197781638e-07
204 3 3.89028 123.435 2.45897 -1.2 0.9999609027122198 3.9069260631160115e-05 2.3148867005063273e-29 2.802714609028116e-08
205 1 2.32757 128.959 4.39171 1.2 0.9734674409089968 0.026532457358746035 1.1328389086556153e-27 1.017322554435542e-07
206 2 4.98102 130.808 4.48501 2.4 1.0 7.750275879487582e-22 5.42380741585275e-40 2.8524363068984116e-37
207 3 3.37057 130.785 4.41619 -1.2 0.999899736878438 0.00010023247099041647 3.2126255768562896e-26 3.0650567581429864e-08
208 3 6.00384 127.246 4.49058 -1.2 0.9998946395413247 0.00010429225676103017 1.098546691465432e-24 1.0682019104970935e-06
209 3 5.61144 130.208 3.09105 -1.2 0.9999858352775908 1.412775400814567e-05 8.577900268929455e-28 3.696839790860476e-08
210 3 5.65919 130.112 5.73819 -1.2 0.9999736822327776 2.6236181889900352e-05 8.963764168097903e-28 8.15853320625594e-08
211 1 4.68364 126.616 2.87087 1.2 0.9002697268439652 0.09973012219269663 4.044422547637833e-30 1.5096333865466396e-07
212 1 4.70331 123.853 4.21001 1.2 0.8833916654789565 0.11660744726184964 6.1228892282344244e-27 8.87259198451662e-07
213 2 6.75644 125.769 4.46071 2.4 1.0 1.739771766704587e-18 1.6301690263988268e-36 7.594230176966765e-31
214 3 3.57521 125.788 4.48469 -1.2 0.999943898129617 5.603985675018418e-05 2.940188512743733e-29 6.20136298430236e-08
215 3 5.76592 122.06 4.35758 -1.2 0.999974808772582 2.4887833057092707e-05 8.065612280986599e-28 3.0339436619486107e-07
216 3 6.10242 125.08 3.25774 -1.2 0.9999385731632499 6.136873971611177e-05 1.878283720669512e-27 5.809704081164179e-08
217 1 4.61358 126.684 -0.181179 1.2 0.9635464776560622 0.036453480395073665 4.556929642017662e-30 4.194886000816019e-08
218 3 6.14261 125.129 5.7351 -1.2 0.9999241160829349 7.562091695745561e-05 2.2671697918307494e-27 2.6300010814859873e-07
219 1 4.53439 129.482 1.19924 1.2 0.989460508792876 0.010539463594032456 9.157955536996492e-32 2.76130984503299e-08
220 2 2.52436 127.589 1.33487 2.4 1.0 2.3905831496478555e-22 2.5511083382568234e-39 1.2105452997511323e-35
221 3 5.75905 127.5 1.37042 -1.2 0.9999630519380311 3.693791625244339e-05 8.28720359086931e-29 1.0145709645567566e-08
222 3 3.54839 131.438 1.34126 -1.2 0.9999986368083056 1.3606871337665171e-06 5.0110706716450685e-33 2.5045607505429404e-09
223 3 3.12987 128.35 0.103778 -1.2 0.9999965345067715 3.4652865533806345e-06 4.010971025150402e-30 2.066725043610092e-10
224 3 3.10926 128.311 2.58776 -1.2 0.9999802539710567 1.972178537811146e-05 1.774152415920159e-27 2.4243559395505478e-08
225 1 2.1849 131.873 -0.166253 1.2 0.9917342325568959 0.008265762409312387 1.2366239370901067e-37 5.033786395527852e-09
226 1 6.91918 134.713 1.32098 1.2 0.9728289927703571 0.027170793743137193 5.345527748186499e-35 2.1348651268151883e-07
227 2 4.25857 132.882 1.40167 2.4 1.0 1.1005089970777994e-26 2.032340429650424e-45 4.6291717887580696e-39
228 3 5.81083 132.795 1.36291 -1.2 0.9999996903061312 3.0939846521644333e-07 5.825869054373095e-35 2.9540890128083756e-10
229 3 3.22839 136.478 1.50487 -1.2 0.9999997281110865 8.579962515410553e-08 1.2640509356033974e-34 1.8608929021286408e-07
230 3 3.56745 133.577 0.0114749 -1.2 0.9999999136319427 8.59368540042292e-08 1.3772998594570343e-35 4.3120705234943726e-10
231 1 2.30725 142.362 2.91496 1.2 7.802929138318496e-09 0.047461356863510405 5.890528005898026e-45 0.9525386353335602
232 3 3.52713 133.537 2.66445 -1.2 0.9999940640118546 5.8966911232587185e-06 5.7774776013253295e-30 3.929702621362384e-08
233 1 2.46001 139.421 4.44564 1.2 0.9455845581287763 0.054414710248110024 5.438371827850558e-32 7.316231186565213e-07
234 2 5.02937 141.262 4.31624 2.4 1.0 3.7017139285732454e-25 2.136942789566761e-44 3.942082222832027e-25
235 3 3.4536 141.298 4.42473 -1.2 0.029041376022550747 3.6140913349757445e-07 3.2019444063117414e-33 0.970958262568312
236 3 5.9203 137.377 4.33174 -1.2 0.9999981453906204 8.184104346596067e-07 1.3586846589675614e-32 1.0361989474533996e-06
237 3 5.56765 140.747 3.00036 -1.2 0.999439429051084 4.2159143152657264e-05 2.5472721650417554e-30 0.0005184118057687988
238 3 5.68176 140.45 5.5623 -1.2 0.9995163393521032 0.00042474534098652854 6.169409377098428e-28 5.89153069053621e-05
239 1 4.5565 136.915 2.78928 1.2 0.9321032275160798 0.06789661522710654 6.724131845840949e-38 1.57256808774389e-07
240 1 4.43184 134.104 4.41239 1.2 0.9674175441494277 0.03258131241668668 1.092789509275365e-27 1.143433880917062e-06
241 2 6.61977 135.889 4.34763 2.4 1.0 1.170124142258395e-23 2.262893049017743e-42 1.8429149785404838e-37
242 3 3.42182 136.04 4.34131 -1.2 0.9999905809876495 9.335324470715868e-06 3.88090129811208e-29 8.368788246230042e-08
243 3 5.65232 132.332 4.43918 -1.2 0.9999766444486047 2.1799630044268116e-05 1.81209039121184e-26 1.5559213517805566e-06
244 3 5.90665 135.145 3.07208 -1.2 0.999995122481679 4.816166383232244e-06 3.0860829726096256e-31 6.135193410403107e-08
245 1 4.70564 136.993 -0.0720445 1.2 0.9147990476000674 0.0852008180969895 2.9612077213521475e-40 1.3430294885165627e-07
246 3 5.97178 135.256 5.63536 -1.2 0.9999887889664377 1.1160762400668959e-05 2.95163978473636e-31 5.027116677982301e-08
247 1 4.72828 140.015 1.39818 1.2 0.7859090308272343 0.21407125208473404 3.886473012207503e-33 1.971708803379344e-05
248 2 2.6113 138.072 1.35227 2.4 1.0 2.891455983045754e-28 9.957604321812498e-49 6.28528082464796e-38
249 3 5.75702 137.905 1.3402 -1.2 0.9999996894615235 9.174127202121466e-08 5.081886324893314e-36 2.187971984062534e-07
250 3 3.70545 141.741 1.22031 -1.2 0.29896248853462853 2.0244733848319465e-07 5.36858684985874e-35 0.7010373090180299
251 3 3.31924 138.681 0.0119905 -1.2 0.9999998889742647 8.932034650458124e-08 1.7373485390952176e-36 2.1705383041162983e-08
252 3 3.1479 138.887 2.59643 -1.2 0.9999983229324408 3.681562478623512e-07 3.986808104439542e-34 1.3089113067927104e-06
253 1 2.46631 142.272 -0.202463 1.2 4.264140583060439e-06 0.8334454281813152 1.9129734904660138e-41 0.1665503076781033
254 1 7.1591 145.197 1.18475 1.2 7.695550853478065e-185 2.4893676394635326e-50 0.0 1.0
255 2 4.49007 143.164 1.45287 2.4 0.9999847779005326 2.612508774904645e-60 5.897980126313821e-91 1.5222099460666241e-05
256 3 6.03139 143.043 1.37442 -1.2 1.0916603006193984e-15 1.3861236885715802e-33 2.090948359986554e-69 0.9999999999999993
257 3 3.61006 146.703 1.23133 -1.2 8.983674297924145e-290 0.0 0.0 1.0000000000000528
258 3 3.89842 143.925 0.197079 -1.2 2.253321051600577e-56 1.1250855872985678e-127 1.3803962293420205e-193 0.9999999999999968
259 1 1.58171 152.067 1.93853 1.2 0.0 2.2967338548328634e-97 0.0 1.0
260 3 3.7107 143.751 2.74916 -1.2 1.8486594600066534e-48 8.679165014254131e-104 1.840482708335325e-158 1.0000000000000118
261 1 1.67966 149.941 4.76482 1.2 0.0 5.6007287738509115e-123 0.0 1.0
262 2 3.9661 150.567 2.98029 2.4 2.25789e-318 0.0 0.0 1.0
263 3 2.46929 150.912 3.28368 -1.2 0.0 0.0 0.0 1.0