ITEM: TIMESTEP
800
ITEM: NUMBER OF ATOMS
5600
ITEM: BOX BOUNDS xy xz yz pp pp pp
0	7.1235	0
0	201.985	2.3745
0	119.584	0
ITEM: ATOMS id type xu yu zu q pCrystal pDisloC pSF pDisloB pDisloA
1 1 -1.62698 49.8677 -0.895166 1.2 1.0 0.0 0.0 0.0 0.0
2 1 2.94944 52.0308 2.10476 1.2 1.0 0.0 0.0 0.0 0.0
3 2 0.862951 51.4172 0.305526 2.4 0.0 0.0 0.0 0.0 1.0
4 3 2.20757 50.6823 0.615696 -1.2 1.0 0.0 0.0 0.0 0.0
5 3 -1.30162 54.1271 1.62069 -1.2 1.0 0.0 0.0 0.0 0.0
6 3 0.156315 50.6212 -0.846408 -1.2 1.0 0.0 0.0 0.0 0.0
7 1 -2.34694 59.7729 3.06765 1.2 1.0 4.098738295120802e-41 1.1646572661774744e-58 4.361477337171291e-55 8.5005081765148025e-19
8 3 0.00872295 51.5213 1.59012 -1.2 1.0 0.0 0.0 0.0 0.0
9 1 -2.24522 56.9776 4.61571 1.2 1.0 0.0 0.0 0.0 2.125897753812151e-142
10 2 0.377886 58.8017 4.57572 2.4 6.598243004120136e-118 3.0890108951491407e-83 2.0903103649336312e-138 7.242110349011983e-114 0.9999999999999994
11 3 -1.17458 58.8832 4.58333 -1.2 1.0 1.3428586031131952e-92 6.974757382807013e-130 4.856555262992499e-117 3.411923387285478e-38
12 3 1.4452 55.1815 4.63285 -1.2 1.0 0.0 0.0 0.0 0.0
13 3 1.05324 58.1458 3.29239 -1.2 1.0 1.3748130034914751e-223 2.978782997164032e-308 2.939090209445324e-251 3.07569533880192e-78
14 3 1.09184 58.1382 5.84994 -1.2 1.0 2.3880703234364115e-236 0.0 1.2050329471220954e-264 1.0927825734581423e-82
15 1 0.0670544 54.6328 3.0734 1.2 1.0 0.0 0.0 0.0 0.0
16 1 0.726132 51.0835 3.30932 1.2 1.0 0.0 0.0 0.0 0.0
17 2 2.1359 53.7368 4.58557 2.4 0.0 0.0 0.0 0.0 1.0
18 3 -1.06681 53.7894 4.61413 -1.2 1.0 0.0 0.0 0.0 0.0
19 3 2.60327 50.5658 3.48829 -1.2 1.0 0.0 0.0 0.0 0.0
20 3 1.51924 53.0659 3.30265 -1.2 1.0 0.0 0.0 0.0 0.0
21 1 -0.0108747 54.7058 0.0737035 1.2 1.0 0.0 0.0 0.0 0.0
22 3 1.43947 52.9523 5.85156 -1.2 1.0 0.0 0.0 0.0 0.0
23 1 0.073415 57.5035 1.60439 1.2 1.0 0.0 0.0 0.0 9.777343286890401e-105
24 2 -2.02558 55.6075 1.60566 2.4 0.0 0.0 0.0 0.0 1.0
25 3 1.16766 55.5708 1.59896 -1.2 1.0 0.0 0.0 0.0 0.0
26 3 -0.986379 59.3027 1.59621 -1.2 1.0 5.547080682582053e-87 4.309041464117143e-119 2.530892311531203e-104 2.0936166633035209e-35
27 3 -1.35446 56.2921 0.320386 -1.2 1.0 0.0 0.0 0.0 2.7832568922485543e-231
28 3 -1.33093 56.2883 2.86459 -1.2 1.0 0.0 0.0 0.0 2.8110286778617615e-246
29 1 -2.35634 59.808 0.0988217 1.2 1.0 1.6159082705864682e-33 1.899711623002731e-48 7.040913578766564e-46 1.9448495624352623e-17
30 1 2.33308 62.653 1.58968 1.2 0.99999958482198 2.9618489844343925e-10 2.253032214292266e-09 6.355005954424035e-17 4.1262880656414233e-07
31 2 -0.306944 60.7995 1.57782 2.4 0.0013201540854861716 3.3700633758120445e-05 2.782585098482252e-12 4.992796359221664e-15 0.9986461452779658
32 3 1.24793 60.7204 1.57237 -1.2 0.9999999976945304 3.104016935259778e-16 1.296883378615619e-24 3.536514203699749e-28 2.305475278800251e-09
33 3 -1.35583 64.4486 1.59185 -1.2 0.9999999000195117 2.834346153056446e-10 2.4905354508692192e-08 2.0453213945689318e-19 7.479169754382128e-08
34 3 -1.01256 61.4391 0.302999 -1.2 0.9997916529222803 3.7165976103686854e-08 5.451886900336095e-12 4.427236576402449e-18 0.00020830990629412514
35 1 -2.34019 70.0653 3.09618 1.2 0.9999999723926349 4.988536390473276e-14 1.1488960203672652e-11 4.7125433386749765e-22 2.7595831820998794e-08
36 3 -0.979966 61.4687 2.86078 -1.2 0.9997189215310299 4.4263257458503073e-08 5.3871646836350775e-12 1.5698957847549584e-17 0.00028103420032731647
37 1 -2.2236 67.2222 4.57777 1.2 0.9999998153555049 6.59052821772437e-11 1.8976683186880875e-09 2.0155085420120634e-17 1.8268092163824168e-07
38 2 0.399778 69.0716 4.60169 2.4 0.9999999940673518 2.1561314912173576e-11 1.6840353698424803e-11 4.930547134021527e-22 5.894249832411457e-09
39 3 -1.16659 69.149 4.5769 -1.2 0.9999999839108058 2.817748891646986e-12 3.0254035221384746e-10 1.7174436295544157e-22 1.5783838553421164e-08
40 3 1.42948 65.4324 4.57228 -1.2 0.9999999588753634 2.225777277218833e-11 1.3348237255353094e-09 7.35484441714094e-21 3.976755162575554e-08
41 3 1.07502 68.3969 3.30577 -1.2 0.9999999382787345 3.00542436389153e-11 2.410672281698313e-10 2.091880066548657e-20 6.145015022872278e-08
42 3 1.09226 68.4042 5.87735 -1.2 0.999999972255039 3.0534163062875998e-12 1.108018881084142e-10 7.678307748828642e-22 2.763110747781645e-08
43 1 0.04776 64.9465 3.08722 1.2 0.9999999855272995 7.416251698340112e-14 3.6972086145169485e-11 1.3535432385393968e-21 1.4435660504207368e-08
44 1 -0.000907921 62.0932 4.57058 1.2 0.9992125823828951 2.2078601821663563e-07 2.1358184836875647e-08 6.9136118336991e-14 0.0007871754728337902
45 2 2.10121 63.9328 4.60042 2.4 0.9999999933770738 1.1134884599630281e-11 4.96912115120822e-12 2.425151975270621e-22 6.6068269398002e-09
46 3 -1.09461 64.0327 4.59353 -1.2 0.9999999797134258 7.1851732073787116e-12 6.254138293569921e-10 1.0258269195735041e-21 1.9653971512698735e-08
47 3 1.05228 60.292 4.5726 -1.2 0.9999999999843112 3.3604007616327416e-21 1.2001260401002938e-32 2.8845120835214327e-34 1.5694271619327065e-11
48 3 1.40496 63.2587 3.32825 -1.2 0.9999999375571085 1.3659156632616214e-11 2.749277112521395e-11 3.181602347881802e-21 6.240174055393966e-08
49 1 0.0197308 64.9193 0.0945391 1.2 0.9999999699486577 2.6317862338308214e-13 9.510941194258439e-11 7.808147785720767e-21 2.995597596219157e-08
50 3 1.43722 63.2945 5.88964 -1.2 0.9999998888478846 4.5814749530836065e-11 1.1067880271986014e-10 1.8469189787028002e-20 1.109956242806354e-07
51 1 0.0683912 67.7573 1.615 1.2 0.9999995704095054 1.7216150495576498e-10 1.1343890569109802e-09 4.831937771058843e-17 4.2828393959380855e-07
52 2 -2.03191 65.9402 1.5812 2.4 0.9999999954662542 1.9639399115011598e-11 9.653718440712624e-12 3.3518219674339845e-22 4.504450503169638e-09
53 3 1.17053 65.8443 1.5792 -1.2 0.9999999889612001 2.5707171004971074e-12 2.910209563423427e-10 1.0876896070100799e-22 1.0745205901186454e-08
54 3 -0.985522 69.5445 1.58296 -1.2 0.9999998877815484 8.65104145872007e-11 1.3221455215365295e-09 1.7720283528868355e-20 1.1080979138534956e-07
55 3 -1.33837 66.5836 0.289054 -1.2 0.9999999426026271 2.351606699682326e-11 1.9000139909160116e-10 8.877584936671648e-21 5.718385471474708e-08
56 3 -1.31106 66.6095 2.84188 -1.2 0.9999999731011586 3.5391164336807293e-12 4.4366338810873655e-11 6.289650860849156e-22 2.6850935734012715e-08
57 1 -2.37009 70.0529 0.105606 1.2 0.9999999513634757 8.15337538691058e-14 1.4995169089408534e-11 8.559231344213198e-22 4.86214457002938e-08
58 1 2.3375 72.8985 1.63468 1.2 0.9999995161665961 2.0128449325810215e-10 2.2286974076828425e-10 3.1150071407198614e-18 4.834092465438479e-07
59 2 -0.297254 71.0459 1.59628 2.4 0.9999999924602463 2.939350486950611e-11 2.795913073392412e-12 9.022271455313892e-23 7.507559713658685e-09
60 3 1.26046 70.9619 1.5985 -1.2 0.9999999685570193 3.092765097307383e-12 2.747189362732485e-10 1.3401800199561272e-22 3.116516928035587e-08
61 3 -1.35451 74.7232 1.64813 -1.2 0.9999999123338863 6.164148510498526e-11 2.2869452998933617e-10 5.86315640540566e-22 8.737577884308117e-08
62 3 -0.989572 71.7335 0.340335 -1.2 0.9999999520954844 3.5967159735681824e-12 2.067464645340232e-11 1.630886515037279e-22 4.788025001317161e-08
63 1 -2.32225 80.3567 3.1375 1.2 0.9999999550866099 2.7072263267072257e-13 6.522963622662127e-12 6.687660032833345e-23 4.490659331969424e-08
64 3 -0.982931 71.7171 2.867 -1.2 0.9999999246040868 1.8253779309835852e-11 1.1110125799708128e-10 4.253901642558631e-21 7.52665541249576e-08
65 1 -2.22919 77.5143 4.61898 1.2 0.9999998208036998 8.142338022067161e-11 2.2049219186177862e-10 9.4695922612717e-19 1.7889438453150638e-07
66 2 0.406046 79.3742 4.65136 2.4 0.9999999915720963 2.3622728265888978e-11 4.332042930195227e-12 3.895316465529189e-23 8.399946965264756e-09
67 3 -1.14344 79.4423 4.6333 -1.2 0.9999999768229808 5.054471854742664e-12 7.173281597758703e-11 1.168874841872284e-23 2.3100234637064e-08
68 3 1.42973 75.7184 4.61628 -1.2 0.9999999110654614 9.660589583102817e-11 7.576128630438725e-10 2.2355551831065793e-21 8.80803186457849e-08
69 3 1.07187 78.7153 3.36008 -1.2 0.9999999113351841 2.4940202498502338e-11 5.81622484080764e-11 1.019213921448638e-21 8.858171703157623e-08
70 3 1.10138 78.6926 5.90891 -1.2 0.9999999634651694 4.378461119637035e-12 1.1049836993063554e-11 3.342230697600912e-23 3.651939560150881e-08
71 1 0.0411338 75.2348 3.15111 1.2 0.9999999445543897 5.718492815446967e-13 1.7972849950697135e-11 1.0582965313885967e-21 5.5427062056524484e-08
72 1 -0.0137805 72.3612 4.5746 1.2 0.9999996427503841 1.8998447390059224e-10 1.2906500601486282e-09 8.488703611543027e-18 3.557689796443658e-07
73 2 2.09792 74.2229 4.63199 2.4 0.9999999912966473 3.934948829611004e-11 1.2611318660959558e-11 2.185521249581406e-22 8.651389311982842e-09
74 3 -1.09759 74.3138 4.62801 -1.2 0.9999999688539981 6.489199642222679e-12 1.9654945874484375e-10 7.004943911680765e-23 3.0942963156381134e-08
75 3 1.06195 70.5537 4.59461 -1.2 0.9999998603150583 2.348372544482082e-10 8.54027439375626e-09 7.328107746116374e-20 1.3090982871342275e-07
76 3 1.39371 73.5358 3.3752 -1.2 0.9999999292729498 7.685664301044911e-12 2.3955441053532052e-11 3.3950163185596386e-22 7.069540500058998e-08
77 1 0.0159319 75.1584 0.157551 1.2 0.9999998582709957 1.452398666492753e-12 3.988452272101443e-11 2.8968701069578546e-21 1.4168766100667624e-07
78 3 1.42852 73.5729 5.92233 -1.2 0.9999999310367403 2.110685905032494e-11 2.7684762727509994e-10 3.8859250092518536e-21 6.866530058692475e-08
79 1 0.117172 78.043 1.66012 1.2 0.9999995267560611 3.9730679832728427e-10 3.5372271010024004e-10 1.2499016720284081e-18 4.724929060028061e-07
80 2 -2.00266 76.2093 1.6361 2.4 0.9999999772679049 1.936048945133518e-10 8.061848338257376e-12 3.471211447132949e-22 2.2530428558681542e-08
81 3 1.18843 76.1255 1.6386 -1.2 0.9999999474774596 1.958267243893534e-11 1.2504069684829055e-10 1.0524939889498755e-22 5.237792409795395e-08
82 3 -0.969121 79.8781 1.62558 -1.2 0.9999998534998937 1.2962848869998107e-10 4.016804608509967e-10 6.249309675623234e-22 1.459687999291523e-07
83 3 -1.32875 76.8679 0.341084 -1.2 0.9999998746286115 4.224859931556904e-11 6.719825948443165e-11 1.0317981918240937e-21 1.2526193833014355e-07
84 3 -1.31029 76.9036 2.89768 -1.2 0.9999999376161152 1.8933954508185473e-11 7.147628968566247e-12 1.0406456299308086e-22 6.235780196777023e-08
85 1 -2.33567 80.3428 0.149146 1.2 0.9999999412821952 6.327676820235701e-13 4.432276187615529e-12 1.095932275237027e-22 5.871273441512468e-08
86 1 2.34504 83.2253 1.64515 1.2 0.9999998823426539 3.113038928303676e-11 2.2862021867208163e-10 2.26664924577532e-19 1.1739759541615164e-07
87 2 -0.30184 81.3633 1.65109 2.4 0.9999999884985301 2.430107372036833e-11 4.034634994316341e-12 3.818239763495134e-23 1.1473133374947484e-08
88 3 1.25863 81.2742 1.64644 -1.2 0.9999999639059246 7.149385340104407e-12 1.570473952303358e-10 1.9693214846982103e-23 3.592988449276127e-08
89 3 -1.32805 85.0445 1.64849 -1.2 0.9999999733900103 1.8327260702437926e-11 1.0855977991650757e-09 2.343357156155966e-22 2.5506068278934645e-08
90 3 -0.998463 82.0416 0.376 -1.2 0.9999999711551247 1.864661425885945e-12 4.595459541703214e-12 9.283809014074006e-24 2.8838410595017896e-08
91 1 -2.36658 90.6544 3.08727 1.2 0.9999999747640571 1.1906742362928097e-13 5.5977194453787315e-11 3.8012376096811166e-22 2.5179839546854734e-08
92 3 -0.980162 82.0329 2.91891 -1.2 0.9999999685365762 4.271630343645861e-12 1.6842902449933037e-11 5.624872158246872e-23 3.144230277545969e-08
93 1 -2.27917 87.8294 4.60294 1.2 0.9999996671567063 1.7174722104540828e-10 8.39873485254245e-10 5.7099126441500616e-18 3.3183167071929953e-07
94 2 0.352594 89.6832 4.58576 2.4 0.9999999920358391 3.920245513213191e-11 3.363510161804075e-11 1.3953846473295655e-22 7.891318261099509e-09
95 3 -1.20232 89.7541 4.6023 -1.2 0.9999999781525317 6.6119254910043e-12 4.3193745086908483e-10 1.0301166689951732e-22 2.140892091615811e-08
96 3 1.38625 86.0325 4.58736 -1.2 0.9999999453891045 3.17735257442517e-11 3.9418222824822315e-10 3.153843861660854e-22 5.4184937924725994e-08
97 3 1.03164 89.0179 3.30284 -1.2 0.9999999563700207 2.967368203110478e-11 1.0038701907305206e-10 1.5937030477235274e-21 4.349991776028636e-08
98 3 1.04771 89.0129 5.86876 -1.2 0.9999999725404428 2.7166078987795763e-12 4.63799179811569e-11 6.805584509888695e-23 2.741046092522007e-08
99 1 0.0436036 85.5345 3.11947 1.2 0.9999999940913584 8.081558667731356e-15 6.618289692637858e-12 4.2505327038843704e-24 5.902018737173387e-09
100 1 -0.0255218 82.69 4.5998 1.2 0.9999999113953594 1.843585429719294e-11 1.700784951356269e-10 1.1500099680604147e-19 8.841612772834506e-08
101 2 2.07267 84.5323 4.61392 2.4 0.9999999959762675 5.060348891203685e-12 2.432970164986234e-12 1.5458605017239195e-23 4.016234804601373e-09
102 3 -1.12299 84.6153 4.60365 -1.2 0.9999999860351018 1.8237551686379378e-12 2.425859079026586e-10 1.6301020726724852e-23 1.3720485902630748e-08
103 3 1.08267 80.8805 4.63365 -1.2 0.9999999287058233 5.4977532422761514e-11 7.207429930446019e-10 6.808226030228297e-22 7.05184526603804e-08
104 3 1.38704 83.8449 3.33554 -1.2 0.9999999853220757 6.833646582983164e-13 1.5663026193122775e-11 9.645151071181587e-24 1.4661578403700274e-08
105 1 0.0284877 85.5152 0.132571 1.2 0.999999986877167 1.80253664646089e-14 1.1047177365544962e-11 1.481926451489626e-23 1.311176300659883e-08
106 3 1.39676 83.8836 5.89715 -1.2 0.9999999667519942 2.388457567349939e-12 4.1648245440004356e-11 1.1263990321340823e-22 3.3203965113325024e-08
107 1 0.10058 88.3841 1.58408 1.2 0.999999890442155 3.404548304267954e-11 7.338362371794432e-10 4.648936726651134e-19 1.0878996671662657e-07
108 2 -2.01271 86.5363 1.62598 2.4 0.9999999960963066 9.238336719897613e-12 6.5946240776097285e-12 2.762856086871208e-23 3.887866842242647e-09
109 3 1.18493 86.4588 1.61836 -1.2 0.9999999925980946 1.510384539212377e-12 1.8020114341275506e-10 3.863113499441682e-24 7.220187896509287e-09
110 3 -1.00764 90.1704 1.58802 -1.2 0.9999999468565725 4.573167634212975e-11 2.363043873224303e-09 1.696060514383713e-21 5.073464557697325e-08
111 3 -1.34407 87.1834 0.337409 -1.2 0.9999999762688715 3.66914074803112e-12 5.4113801606374485e-11 8.607869111726311e-23 2.367334195828301e-08
112 3 -1.31084 87.2173 2.88878 -1.2 0.999999966669157 7.118811426363829e-12 3.9176168577982965e-11 3.0823253581314714e-22 3.328454722275787e-08
113 1 -2.38037 90.6724 0.120084 1.2 0.9999999877483738 4.4315709726995514e-14 2.6800238118052062e-11 5.235975667222108e-23 1.2224780869867068e-08
114 1 2.30821 93.5321 1.62081 1.2 0.9999997837925888 1.2115373879105413e-10 1.3429230761316764e-09 4.578970633922134e-18 2.1474333729073385e-07
115 2 -0.334471 91.6658 1.60784 2.4 0.9999999950134537 2.449800411866722e-11 5.0253845045695464e-11 1.540638220077892e-22 4.911799971477041e-09
116 3 1.22035 91.5707 1.60925 -1.2 0.9999999838565184 2.4027059964797072e-12 5.744619794628287e-10 4.0192145955417675e-23 1.5566616380710955e-08
117 3 -1.37397 95.3227 1.63826 -1.2 0.9999999734183641 2.8523208159674473e-11 1.876031721508009e-09 7.032661717023563e-22 2.467708780211132e-08
118 3 -1.02166 92.3435 0.33374 -1.2 0.9999999768208196 4.659387963319567e-12 2.357930293685447e-10 4.313933738669668e-22 2.2938721141211187e-08
119 1 -2.36079 100.976 3.10072 1.2 0.9999999700157078 1.0325509110086063e-13 5.215042809188077e-11 1.5410940287606937e-22 2.993203341516961e-08
120 3 -1.01222 92.336 2.89939 -1.2 0.9999999792727228 3.958967365811344e-12 1.345814227515613e-10 2.9328260656492865e-22 2.0588729892840217e-08
121 1 -2.30184 98.1188 4.60644 1.2 0.9999996414026833 3.138344425603808e-10 3.313193416202505e-09 1.4154995142721972e-17 3.5497029330971597e-07
122 2 0.331461 99.9619 4.60672 2.4 0.9999999939440443 6.04862469106544e-11 7.276939820792343e-11 1.483500927103607e-22 5.922693278813855e-09
123 3 -1.22316 100.06 4.62077 -1.2 0.9999999714581727 1.8673409953562723e-11 1.9047957770711752e-09 2.3620857409638904e-22 2.661835794217768e-08
124 3 1.3627 96.3316 4.62328 -1.2 0.9999999483231673 8.215959833526793e-11 3.5648142671989084e-09 3.335694348720795e-21 4.80298627981574e-08
125 3 1.01297 99.3113 3.32821 -1.2 0.9999999549521328 2.140402010209457e-11 2.4834040773813335e-10 8.72828499544285e-22 4.4778125465547025e-08
126 3 1.01939 99.3247 5.90008 -1.2 0.9999999498141995 4.425529911098905e-11 1.9401059646177272e-10 1.3849723622659724e-21 4.9947538733386156e-08
127 1 -0.00386688 95.8089 3.13297 1.2 0.9999999820815084 7.60024989009631e-14 5.268682686243232e-11 2.163128493481717e-22 1.786572583047828e-08
128 1 -0.0334796 92.964 4.5848 1.2 0.9999997827156674 1.0193011391528323e-10 2.5922091979689865e-09 4.681524949687099e-18 2.145901890269018e-07
129 2 2.03401 94.8378 4.61962 2.4 0.9999999958883166 1.4967810974774973e-11 2.6527908902398296e-11 1.2914574809096347e-22 4.0701835499868e-09
130 3 -1.15817 94.9093 4.62283 -1.2 0.999999988584635 5.037445512271745e-12 9.609368214877167e-10 6.751355690774939e-23 1.044938605270484e-08
131 3 1.03493 91.1659 4.58668 -1.2 0.9999999250391056 1.023340390558624e-10 5.658577098296331e-09 6.1267342483584504e-21 6.919998967684636e-08
132 3 1.34933 94.1679 3.33848 -1.2 0.9999999849627768 1.2484784335741134e-12 6.304501773255137e-11 5.924761974277975e-23 1.497293503656491e-08
133 1 -0.00833292 95.8259 0.141824 1.2 0.9999999881111684 4.5081996898468675e-14 2.4931980912607368e-11 5.735094225399043e-23 1.1863857928567507e-08
134 3 1.34504 94.1541 5.89276 -1.2 0.9999999682490486 5.0989790217829855e-12 1.1963248923904378e-10 5.215787211227859e-22 3.162621852565437e-08
135 1 0.0627288 98.6618 1.61454 1.2 0.9999998764409911 4.7868497661230006e-11 6.818995221193502e-10 7.78032916859497e-19 1.2282924356462994e-07
136 2 -2.04044 96.8246 1.63565 2.4 0.9999999968395201 2.3905878376143168e-11 2.677900576610886e-11 1.282977666236963e-22 3.1097994980670543e-09
137 3 1.14401 96.7329 1.63006 -1.2 0.9999999912943752 1.9373663087638887e-12 4.498219527786711e-10 1.956185300148667e-23 8.253859063412654e-09
138 3 -1.01529 100.467 1.60412 -1.2 0.9999999074249794 1.323328934884163e-10 3.4507278053197576e-09 3.8420427898938095e-21 8.89919657007729e-08
139 3 -1.36505 97.4865 0.344856 -1.2 0.9999999856453682 1.7781291720007517e-12 6.927497925499146e-11 4.313557220478508e-23 1.428357349177826e-08
140 3 -1.35072 97.4945 2.90738 -1.2 0.9999999641437017 8.175534185508447e-12 1.7378156402882512e-10 6.008362370165598e-22 3.567434006583852e-08
141 1 -2.38935 100.985 0.0949899 1.2 0.9999999771672492 1.0483101134214762e-13 5.539590808795077e-11 2.5449824229229546e-22 2.2777244090166946e-08
142 1 7.02343 103.83 1.58652 1.2 0.9999995909092895 2.5415894844173944e-10 9.122425428802322e-10 6.2147134348797e-18 4.079243135047248e-07
143 2 -0.351489 101.964 1.58917 2.4 0.9999999923594345 6.892912448917868e-11 3.9765080032877165e-11 1.5804754041711055e-22 7.531866393371303e-09
144 3 1.20316 101.894 1.5945 -1.2 0.9999999793035016 4.584251680515343e-12 6.442700697688922e-10 3.180828914097742e-23 2.004764069922251e-08
145 3 3.34089 105.648 1.57174 -1.2 0.9999999364463797 1.1411503920912297e-10 2.014799997127032e-09 2.1624568784922065e-21 6.142470743440079e-08
146 3 -1.05136 102.63 0.303673 -1.2 0.9999999563590221 2.6392725554191874e-11 1.3998492822066578e-10 9.043620835427615e-22 4.347460415559717e-08
147 1 2.34663 111.264 3.05153 1.2 0.9999999623283733 2.638315539391661e-13 2.267272275718123e-11 6.171664511531504e-22 3.764868965475928e-08
148 3 -1.02784 102.626 2.86842 -1.2 0.9999999698969191 4.087559425902741e-12 5.49252159226965e-11 5.471410229550653e-23 3.004407533536307e-08
149 1 2.40619 108.425 4.56502 1.2 0.9999995958410445 3.8382349861784045e-10 9.492323833415666e-10 7.171877336522361e-18 4.028258938718212e-07
150 2 5.04017 110.282 4.55102 2.4 0.9999999898926433 5.755754068825535e-11 9.253409086657487e-12 1.5827316269108084e-22 1.004055261940773e-08
151 3 3.47034 110.354 4.54573 -1.2 0.9999999695928561 1.2691707785320013e-11 3.230591057148249e-10 8.952259435788123e-23 3.007139799055912e-08
152 3 6.10527 106.629 4.58641 -1.2 0.9999999166571466 1.4564619562573824e-10 2.232809366532224e-09 2.5060816519612926e-21 8.096439981920785e-08
153 3 5.72523 109.6 3.29251 -1.2 0.9999999596946535 9.437133079888308e-12 2.7501978208348728e-11 2.6619261896629855e-22 4.0268403326318285e-08
154 3 5.71438 109.633 5.84102 -1.2 0.9999999400661764 1.215340737400314e-11 1.1389793148126379e-10 5.848401434808437e-22 5.980777894095608e-08
155 1 4.73288 106.101 3.07936 1.2 0.9999999572338019 1.9980295011667814e-13 4.242038125727915e-11 2.6548001302761765e-22 4.272357150677991e-08
156 1 -0.0968015 103.273 4.57028 1.2 0.9999996734079293 1.9763249903770325e-10 1.7113954434088515e-09 3.17587642908243e-18 3.2468304971949447e-07
157 2 6.76662 105.15 4.5875 2.4 0.9999999934989887 3.545736269569876e-11 2.7708505096613284e-11 8.290846917886461e-23 6.437847686593665e-09
158 3 3.57132 105.201 4.57619 -1.2 0.9999999824427153 1.036419643438928e-11 5.553858370964417e-10 4.468675128844382e-23 1.6991529400574503e-08
159 3 0.995747 101.467 4.59845 -1.2 0.9999999098496135 1.8736663770502135e-10 8.52515641187712e-09 6.0842521606821604e-21 8.143785792469986e-08
160 3 6.08363 104.476 3.30027 -1.2 0.9999999557553968 1.1893692682470651e-11 7.32464390820767e-11 2.7646260959437774e-22 4.4159468481013436e-08
161 1 4.72642 106.151 0.102409 1.2 0.9999999690108745 8.718824803752015e-14 1.4392072460565857e-11 1.212671704935529e-22 3.0974647839146946e-08
162 3 6.07122 104.487 5.85531 -1.2 0.9999999325664248 1.5718716447382848e-11 1.0700224292380273e-10 7.678075009207338e-22 6.731085663577162e-08
163 1 4.78442 108.982 1.60827 1.2 0.9999997547538355 1.2276592665536077e-10 4.89797222433312e-10 2.5766561625460378e-18 2.446336069961256e-07
164 2 2.66592 107.144 1.57387 2.4 0.9999999918260158 3.952247626761964e-11 9.068185869819085e-12 9.083421468264441e-23 8.125397970922584e-09
165 3 5.86142 107.064 1.58072 -1.2 0.9999999820392238 6.932816371912255e-12 1.6972382052225298e-10 2.0480645864515975e-23 1.77841195748812e-08
166 3 3.72417 110.79 1.59713 -1.2 0.9999999147398166 8.080116994536866e-11 5.790910509988469e-10 1.3449820284347944e-21 8.460028397297253e-08
167 3 3.34804 107.816 0.302231 -1.2 0.9999999658843394 6.65877372041572e-12 8.801159816438388e-12 7.562065598285886e-23 3.4100206431442856e-08
168 3 3.34458 107.795 2.86081 -1.2 0.9999999572526526 1.031697817181324e-11 4.1782353257296576e-11 2.4585074194967464e-22 4.2695251001122375e-08
169 1 2.36009 111.248 0.100435 1.2 0.999999979549418 5.0854816189524e-14 8.031096750672236e-12 1.0392247909334194e-22 2.0442493741720607e-08
170 1 7.0468 114.112 1.53593 1.2 0.9999998366614596 6.471042565834979e-11 5.64175241704295e-10 2.4483774783628668e-18 1.627096535442077e-07
171 2 4.38742 112.286 1.57882 2.4 0.9999999933646251 2.2915959437448234e-11 3.1180832576408457e-12 7.60293489457019e-23 6.609343120375046e-09
172 3 5.94083 112.195 1.57197 -1.2 0.9999999752012685 4.8432875930516504e-12 1.8232660515029743e-10 6.863283984077888e-23 2.461155991532708e-08
173 3 3.33108 115.929 1.56405 -1.2 0.9999999411633612 5.432497854876616e-11 2.207359916316449e-09 7.014713256553684e-21 5.657495117894582e-08
174 3 3.7288 112.938 0.288269 -1.2 0.9999999671530384 5.959223031186692e-12 4.7302792318025894e-11 4.496994856863295e-22 3.2793706627494813e-08
175 1 2.33661 121.586 3.05604 1.2 0.9999999700761545 1.990572311819812e-13 8.679676239613106e-11 3.993202611280686e-21 2.983684486683671e-08
176 3 3.68402 112.955 2.83321 -1.2 0.9999999555354472 5.384350556994867e-12 2.6327913658003063e-11 2.073378043424807e-22 4.4432845280056236e-08
177 1 2.40496 118.74 4.516 1.2 0.9999996895698239 1.484418839477024e-10 1.1592929773354013e-09 2.5251009454407402e-17 3.091224395344543e-07
178 2 5.04496 120.596 4.53034 2.4 0.9999999964965269 2.0299520736073484e-11 2.3658941317768135e-11 4.262237166781854e-22 3.4595191297229703e-09
179 3 3.49751 120.683 4.54814 -1.2 0.9999999827622525 3.5348245701976898e-12 5.470827147904346e-10 2.1278793311857247e-22 1.66871262099026e-08
180 3 6.07769 116.952 4.51374 -1.2 0.9999999310761197 7.746364073129411e-11 2.9363404656019324e-09 1.194600734757018e-20 6.591007862075102e-08
181 3 5.72488 119.92 3.26589 -1.2 0.9999999826100607 1.4037976748779121e-12 8.743729882913825e-11 2.942585084833175e-22 1.7301102699922667e-08
182 3 5.73388 119.934 5.81512 -1.2 0.9999999467855306 1.3538105346860624e-11 6.987653421686831e-10 1.5231553267938495e-20 5.2502163340298794e-08
183 1 4.71875 116.424 2.9974 1.2 0.9999999743630715 1.0637013499506167e-13 3.0792231833270355e-11 8.563242543035967e-22 2.5606029160650718e-08
184 1 4.62271 113.589 4.55951 1.2 0.9999995677463656 2.7661356899248876e-10 8.419718707943725e-10 1.0977445598974244e-17 4.3113505449185566e-07
185 2 6.74129 115.449 4.50028 2.4 0.9999999949307607 2.6488342059228022e-11 1.3032586279946854e-11 3.6663889753988094e-22 5.029714905512813e-09
186 3 3.54964 115.528 4.52106 -1.2 0.9999999773980222 5.032502479398331e-12 7.245015180846693e-10 2.881381088880874e-22 2.1872440243435307e-08
187 3 5.70385 111.774 4.53786 -1.2 0.9999998870501204 1.4277219378138144e-10 1.718704045972221e-09 5.529138282451263e-21 1.1108840173018893e-07
188 3 6.07461 114.789 3.227 -1.2 0.9999999193736532 5.160973363709698e-11 1.0778456255709614e-10 9.262118415778032e-21 8.04669512395724e-08
189 1 4.74568 116.426 0.0547138 1.2 0.9999999826345425 5.961001830366289e-14 1.9733474925318162e-11 4.543019429530741e-22 1.734567050985596e-08
190 3 6.04568 114.776 5.77065 -1.2 0.9999999618621718 5.8278809105533986e-12 7.602228595235846e-11 5.989072956351467e-22 3.805597890209411e-08
191 1 4.81465 119.294 1.55345 1.2 0.9999997872201865 9.196353704503557e-11 1.8314089941659732e-09 2.4340268213485202e-17 2.1085644293641613e-07
192 2 2.68206 117.44 1.53118 2.4 0.999999996041609 1.1936215899286658e-11 1.0674587526839071e-11 2.501015331068349e-22 3.935774550233148e-09
193 3 5.86998 117.371 1.52742 -1.2 0.9999999882478999 3.917819320105308e-12 5.331094261376782e-10 1.6504513587213145e-22 1.1215066402377323e-08
194 3 3.72287 121.075 1.55466 -1.2 0.9999999158365404 1.5779058926827985e-10 7.173862723781739e-09 7.014127095964566e-20 7.683181346364523e-08
195 3 3.37769 118.078 0.259981 -1.2 0.9999999812270806 1.726691994585863e-12 5.216272624782832e-11 3.4106834240141957e-22 1.8719030057807825e-08
196 3 3.35786 118.121 2.81009 -1.2 0.9999999769735296 5.793480470043959e-12 1.0770154605541155e-10 1.4431699713787793e-21 2.2912972285830913e-08
197 1 2.34609 121.591 0.0507285 1.2 0.9999999710314545 1.6302709716378812e-13 4.6573747389967946e-11 3.2791640253766267e-21 2.892180887534093e-08
198 1 7.02574 124.422 1.54036 1.2 0.9999998414634901 7.614910949247963e-11 1.6386246593554604e-09 1.4879295075027653e-17 1.5682174240199494e-07
199 2 4.38514 122.582 1.54946 2.4 0.9999999936149493 4.16307594493295e-11 3.9021633186114485e-11 1.5728452729638393e-21 6.304400461556878e-09
200 3 5.93761 122.483 1.53143 -1.2 0.999999986492396 3.762676889225348e-12 5.265085671303686e-10 3.0562795440456277e-22 1.2977339956662155e-08
201 3 3.34806 126.216 1.50678 -1.2 0.9999999536413912 6.465156843673576e-11 3.113402986815377e-09 1.4598281627690224e-20 4.318055871963124e-08
202 3 3.71377 123.216 0.254405 -1.2 0.9999999488704976 2.8748044691247146e-11 8.846063860218685e-10 2.864618018528474e-20 5.021615509363175e-08
203 1 2.34047 131.85 2.96957 1.2 0.999999979343602 1.0567786613111361e-13 9.154043712931846e-12 7.695763816497188e-22 2.0647137453737084e-08
204 3 3.69869 123.242 2.82294 -1.2 0.9999999790635177 3.478801048121483e-12 8.52744639484297e-11 6.31150545184404e-22 2.0847727364847466e-08
205 1 2.41945 129.014 4.47694 1.2 0.9999997944961433 1.1406099415789166e-10 1.7924916588341818e-09 7.686995996448237e-18 2.0359729902238183e-07
206 2 5.03543 130.876 4.46829 2.4 0.9999999938287374 2.1060229973585515e-11 1.3553413040923493e-11 2.8749520314504883e-22 6.136654485912766e-09
207 3 3.48829 130.95 4.46832 -1.2 0.999999984641155 4.96703957816128e-12 5.090450870973235e-10 2.0423015869843985e-22 1.484483521048487e-08
208 3 6.08489 127.223 4.48934 -1.2 0.9999999589221151 4.335153649402427e-11 4.09733352838937e-09 1.015160384607908e-20 3.693720447508915e-08
209 3 5.74783 130.209 3.20598 -1.2 0.9999999575675576 6.789064608211134e-12 1.1805853931233815e-10 1.779983616241621e-21 4.2307601354930945e-08
210 3 5.73232 130.244 5.75027 -1.2 0.9999999575187093 1.0446388414457507e-11 4.968923972161844e-10 6.047632656010104e-21 4.197395729107397e-08
211 1 4.70725 126.711 2.9888 1.2 0.999999987837464 3.903748366930096e-14 4.6075229743362805e-11 6.216881760020469e-22 1.2116419497586637e-08
212 1 4.65591 123.879 4.53154 1.2 0.9999997372139429 1.3815516387309805e-10 2.4291560401646677e-09 3.7354740046416054e-17 2.602187487957952e-07
213 2 6.74573 125.73 4.50558 2.4 0.9999999979332586 8.214294094997957e-12 1.842743916707423e-11 2.552963458327844e-22 2.040096824729011e-09
214 3 3.548 125.828 4.50014 -1.2 0.999999986878342 2.6409174338245495e-12 1.6887799304181226e-09 5.039658484020915e-22 1.1430240918839387e-08
215 3 5.71196 122.088 4.52932 -1.2 0.9999999502076431 4.042665205611704e-11 3.73493931398729e-09 1.2417336933665225e-20 4.6016988163138576e-08
216 3 6.05541 125.056 3.21534 -1.2 0.9999999744647267 1.3794129666716924e-11 2.4132272117558466e-10 7.268897926140027e-21 2.5280152947617664e-08
217 1 4.73196 126.701 0.0158993 1.2 0.9999999734500143 1.3352123782283667e-13 4.6948588485225345e-11 3.5057812615220714e-21 2.6502906810287985e-08
218 3 6.03157 125.077 5.77953 -1.2 0.99999998598774 9.99221814047406e-13 2.4380732688363655e-10 2.3372004536061742e-22 1.3767455515228191e-08
219 1 4.81946 129.568 1.50398 1.2 0.9999997728881718 1.1261768481781432e-10 1.034925209141405e-09 1.3207823917164763e-17 2.259642847481741e-07
220 2 2.67277 127.715 1.4921 2.4 0.9999999967879916 1.718554679065833e-11 1.5311922291394376e-11 2.447115519837954e-22 3.179504400764053e-09
221 3 5.87668 127.632 1.50808 -1.2 0.9999999927764022 1.7027739983551046e-12 2.8583684121641955e-10 6.41691134434963e-23 6.936063000772991e-09
222 3 3.72494 131.352 1.50108 -1.2 0.9999999173866043 9.995277415214871e-11 1.2956579604357485e-09 1.1514906657494401e-20 8.121779114692572e-08