ITEM: TIMESTEP
700
ITEM: NUMBER OF ATOMS
5600
ITEM: BOX BOUNDS xy xz yz pp pp pp
0	7.1235	0
0	201.985	2.3745
0	119.584	0
ITEM: ATOMS id type xu yu zu q pCrystal pDisloC pSF pDisloB pDisloA
1 1 -1.62602 49.8418 -0.839709 1.2 1.0 0.0 0.0 0.0 0.0
2 1 2.95828 52.0037 2.12991 1.2 1.0 0.0 0.0 0.0 0.0
3 2 0.850456 51.4234 0.346815 2.4 0.0 0.0 0.0 0.0 1.0
4 3 2.23739 50.7206 0.628756 -1.2 1.0 0.0 0.0 0.0 0.0
5 3 -1.31692 54.123 1.61901 -1.2 1.0 0.0 0.0 0.0 0.0
6 3 0.142339 50.6346 -0.815854 -1.2 1.0 0.0 0.0 0.0 0.0
7 1 -2.31747 59.8139 3.11101 1.2 1.0 9.182063399164459e-37 4.559347905061117e-53 2.9083245438233347e-50 8.995755272214858e-18
8 3 0.0238775 51.482 1.63319 -1.2 1.0 0.0 0.0 0.0 0.0
9 1 -2.19454 56.9947 4.61953 1.2 1.0 0.0 0.0 0.0 1.7780469375492736e-140
10 2 0.41207 58.8174 4.5982 2.4 5.716047024164005e-113 2.9635738248536983e-79 8.478316415736153e-133 5.391865541002074e-109 0.9999999999999996
11 3 -1.14249 58.8733 4.60639 -1.2 1.0 4.01189361355688e-91 9.877089042508291e-128 3.6589294159391943e-115 1.3106861645543791e-37
12 3 1.44995 55.2111 4.6037 -1.2 1.0 0.0 0.0 0.0 0.0
13 3 1.09335 58.1626 3.31548 -1.2 1.0 9.166388523664135e-227 1.2103958389057e-311 5.242269744601187e-252 4.584936934864279e-77
14 3 1.11979 58.1555 5.87605 -1.2 1.0 1.399926979462603e-225 3.314089912927e-311 3.9838086293510724e-254 3.649481898473222e-80
15 1 0.0806398 54.6519 3.10175 1.2 1.0 0.0 0.0 0.0 0.0
16 1 0.786043 51.0441 3.3347 1.2 1.0 0.0 0.0 0.0 0.0
17 2 2.15072 53.7459 4.60571 2.4 0.0 0.0 0.0 0.0 1.0
18 3 -1.0555 53.8067 4.62484 -1.2 1.0 0.0 0.0 0.0 0.0
19 3 2.6366 50.4888 3.48619 -1.2 1.0 0.0 0.0 0.0 0.0
20 3 1.56084 53.0463 3.32637 -1.2 1.0 0.0 0.0 0.0 0.0
21 1 -0.0209283 54.6938 0.0986425 1.2 1.0 0.0 0.0 0.0 0.0
22 3 1.42249 53.0089 5.85723 -1.2 1.0 0.0 0.0 0.0 0.0
23 1 0.121231 57.4929 1.63443 1.2 1.0 0.0 0.0 0.0 2.695121041797536e-99
24 2 -2.00603 55.6107 1.63694 2.4 0.0 0.0 0.0 0.0 1.0
25 3 1.18787 55.5655 1.62701 -1.2 1.0 0.0 0.0 0.0 0.0
26 3 -0.955807 59.2875 1.61643 -1.2 1.0 4.515283260493739e-89 2.840996945790667e-122 1.6580619065974086e-106 4.4110554413187974e-35
27 3 -1.33557 56.2902 0.33649 -1.2 1.0 0.0 0.0 0.0 1.1848869558896621e-242
28 3 -1.2972 56.3019 2.88737 -1.2 1.0 0.0 0.0 0.0 1.680842001697354e-241
29 1 -2.34409 59.7727 0.128516 1.2 1.0 1.1556957713154093e-33 1.4728556057735244e-48 2.0684759467463174e-46 1.4702703211661085e-16
30 1 2.35191 62.6367 1.57919 1.2 0.9999997607514651 1.7827847869056105e-10 2.161311361319562e-09 1.839417746294792e-17 2.3690894120287878e-07
31 2 -0.281875 60.7838 1.59539 2.4 0.0011003549561930265 2.0530571756788912e-05 3.1753388004038748e-12 1.5450300687206029e-15 0.9988791144688779
32 3 1.2673 60.7065 1.59775 -1.2 0.9999999997011884 4.098278998152731e-18 1.757574469063429e-27 6.561038880756495e-31 2.9881739294160254e-10
33 3 -1.29907 64.4286 1.60973 -1.2 0.999999761246111 1.1467974961115969e-09 7.28156774777623e-08 1.061073307720037e-18 1.6479141376769227e-07
34 3 -1.00414 61.4414 0.333032 -1.2 0.9997570469393168 5.485997192729363e-08 1.6103496897685258e-11 6.8176364800837494e-18 0.0002428981846080425
35 1 -2.31618 70.0904 3.06684 1.2 0.9999999244245446 2.53712775148784e-13 2.9123964541625004e-11 3.833669786917615e-21 7.554607070722904e-08
36 3 -0.957217 61.4465 2.88831 -1.2 0.999809765201631 6.199543224554886e-08 3.9987747413478534e-11 1.5612632902235063e-17 0.00019017276294294627
37 1 -2.21748 67.2425 4.57468 1.2 0.9999996049824177 3.028453198658641e-10 1.1137295666708381e-09 1.8486662273446297e-17 3.9360100131619736e-07
38 2 0.406563 69.0891 4.5859 2.4 0.9999999869758655 5.096329511953048e-11 7.23999673819145e-12 7.143818566468069e-22 1.2965933230181764e-08
39 3 -1.14529 69.1697 4.57019 -1.2 0.9999999624457749 1.7187635746753065e-11 4.378347329847149e-10 7.215095565630259e-22 3.709920742111251e-08
40 3 1.45189 65.439 4.57129 -1.2 0.999999919443042 1.0492908747011016e-10 1.2838725913388388e-09 7.345201574025856e-21 7.916815077140267e-08
41 3 1.08155 68.4112 3.31332 -1.2 0.9999998758684381 9.184525281763206e-11 3.5692705348673194e-10 4.3814397501803413e-20 1.2368278469327417e-07
42 3 1.09992 68.4424 5.87863 -1.2 0.9999999409347021 6.12236279265474e-12 5.073787496421118e-11 6.525738965330332e-22 5.900844028480656e-08
43 1 0.0785138 64.9567 3.08273 1.2 0.9999999465000218 1.6221242217209946e-12 1.836753181102192e-10 2.42066110710434e-20 5.331467710138052e-08
44 1 0.0139712 62.101 4.57504 1.2 0.9999602766728972 3.428845289359085e-08 1.3181264698514308e-08 2.542212330646128e-15 3.9675857378885094e-05
45 2 2.11097 63.9316 4.58888 2.4 0.9999999958817511 1.3791386868712435e-11 6.0205715981545804e-12 1.620707254193574e-22 4.0984411307525326e-09
46 3 -1.0778 64.0224 4.59431 -1.2 0.999999977905443 1.4188611986507917e-11 6.183765265041864e-10 1.069197212729181e-21 2.1461994086126653e-08
47 3 1.07145 60.3065 4.60824 -1.2 0.9999999998712497 5.1290610629719645e-19 8.981478451523065e-30 4.106065930326383e-32 1.287501736603369e-10
48 3 1.42771 63.2619 3.31492 -1.2 0.9999999725779738 6.664374883307536e-12 4.499674488551824e-11 9.412702935155635e-22 2.737035917971053e-08
49 1 0.0194145 64.934 0.0895 1.2 0.9999999699246086 3.569047972179837e-13 1.5425415657145476e-10 4.6687746039671085e-21 2.9920780538184746e-08
50 3 1.42512 63.2875 5.8684 -1.2 0.9999999380531044 2.975896444964225e-11 1.5861772392813e-10 6.729753698154318e-21 6.175852465970642e-08
51 1 0.122653 67.7644 1.60457 1.2 0.999999172591317 3.582623971041656e-10 2.2892555305353787e-09 6.218800548755174e-17 8.247611691288586e-07
52 2 -1.98951 65.9135 1.59982 2.4 0.9999999951059522 7.145552685004261e-11 3.65958256925246e-11 1.2867264801359668e-21 4.785999328061787e-09
53 3 1.20295 65.8509 1.59545 -1.2 0.999999981759866 7.203373868130536e-12 8.916220870800332e-10 3.4574126005251775e-22 1.734130308509423e-08
54 3 -0.953928 69.5795 1.5962 -1.2 0.9999998010404659 2.781770189656109e-10 3.922460526635424e-09 6.338848114141862e-20 1.9475889556478288e-07
55 3 -1.3131 66.5732 0.317148 -1.2 0.9999999356108236 3.809962872795597e-11 5.429133114844311e-10 1.6338054201794056e-20 6.380816474270968e-08
56 3 -1.29726 66.5924 2.87059 -1.2 0.999999947473895 1.3651209499465371e-11 1.4428677911949785e-10 2.508349468871728e-21 5.2368164420421384e-08
57 1 -2.35584 70.0805 0.099969 1.2 0.9999998830827516 4.613382866642991e-13 9.018268233344797e-11 9.880304148081152e-21 1.1682660329073984e-07
58 1 2.33487 72.9352 1.62708 1.2 0.9999992981921348 2.1998285078933628e-10 1.0844745219801707e-09 4.218927111836235e-17 7.00503413459351e-07
59 2 -0.289007 71.0756 1.58942 2.4 0.9999999885936576 9.953721792361779e-11 3.409660543289292e-11 5.209396628954179e-21 1.1272710477013195e-08
60 3 1.26146 70.9944 1.59967 -1.2 0.9999999371245684 1.0785203562367828e-11 3.639593706975486e-10 7.537925244571143e-22 6.25006909983717e-08
61 3 -1.32257 74.7444 1.63653 -1.2 0.9999999258861573 4.287711551909758e-11 8.587178741010255e-10 3.0712267251911162e-21 7.32122485517041e-08
62 3 -0.985501 71.7304 0.32612 -1.2 0.9999999530359694 6.340172624908249e-12 9.385858567185966e-11 9.207134202728129e-22 4.6863829573672185e-08
63 1 -2.32971 80.38 3.13529 1.2 0.9999999864485827 1.85943673969846e-14 3.2600690841507357e-12 1.417482997200431e-23 1.3548135165686785e-08
64 3 -0.9654 71.7524 2.8625 -1.2 0.9999999063957771 2.700098469730871e-11 1.5934301210620456e-10 1.2728536059490709e-20 9.341787459187167e-08
65 1 -2.2721 77.51 4.61612 1.2 0.9999997499298411 8.955930310887371e-11 4.161470633698659e-10 1.748470010624941e-18 2.4956444710630973e-07
66 2 0.380341 79.3539 4.61382 2.4 0.9999999924977487 5.210197721981544e-12 1.7315931922113472e-12 2.4546728362077498e-23 7.495311331060551e-09
67 3 -1.17106 79.4494 4.62075 -1.2 0.9999999836612512 2.527353549924838e-12 1.1245556636112829e-10 2.555880952937365e-23 1.6223772370210153e-08
68 3 1.41668 75.7008 4.62035 -1.2 0.9999999039613353 1.3645630871740214e-10 2.138451099135128e-09 9.174684340755368e-21 9.37637630249886e-08
69 3 1.05673 78.6881 3.34675 -1.2 0.9999999709768421 1.5144481788151361e-12 1.5197905672900823e-11 6.056828888218193e-23 2.90064499633647e-08
70 3 1.08462 78.6821 5.88156 -1.2 0.9999999661483999 6.019727268260957e-12 9.950439090111628e-12 1.2751478162244513e-22 3.3835628355111125e-08
71 1 0.0434079 75.2071 3.13713 1.2 0.9999999658641222 1.8888400445004205e-13 1.1384099098741039e-11 4.458795780630243e-22 3.412430563159208e-08
72 1 0.00220966 72.377 4.57787 1.2 0.9999996137610128 2.2583795009656774e-10 1.0867600108795342e-09 1.3113104585554699e-17 3.849263887485557e-07
73 2 2.10618 74.2148 4.62812 2.4 0.9999999892269643 3.3270920329462005e-11 4.726481027663601e-12 2.180647688762241e-22 1.0735041203526206e-08
74 3 -1.09095 74.2908 4.61052 -1.2 0.9999999616526216 1.1257937950335131e-11 1.8627537040994133e-10 2.141316248346785e-22 3.8149843907068724e-08
75 3 1.06866 70.5827 4.58453 -1.2 0.9999997846314609 3.449757530713968e-10 3.0621338276505204e-09 6.169039021546946e-20 2.119614364875473e-07
76 3 1.41636 73.5465 3.3616 -1.2 0.9999999481550678 2.9514733845717306e-12 2.3511539933571973e-11 2.5972102666597974e-22 5.1818470784676644e-08
77 1 0.0144355 75.251 0.136499 1.2 0.9999999506285818 1.4918113657394796e-13 3.95678945335304e-11 8.27721784658024e-22 4.933170583097934e-08
78 3 1.41943 73.5689 5.91655 -1.2 0.99999992491625 2.0203456568397533e-11 2.4371591250192376e-11 2.4101380914157186e-21 7.503917398499686e-08
79 1 0.102562 78.0597 1.63038 1.2 0.9999998548423998 3.860534214037787e-11 1.250012601798229e-10 6.333320464553151e-19 1.4499399974826756e-07
80 2 -2.00306 76.2237 1.63313 2.4 0.9999999907169439 2.919653378315913e-11 1.005865592663907e-11 3.028418979249961e-22 9.243804363917146e-09
81 3 1.18675 76.1555 1.64408 -1.2 0.9999999647949871 6.585606401384495e-12 2.044276675378028e-10 1.143823755366266e-22 3.49940009502667e-08
82 3 -0.992995 79.9125 1.61954 -1.2 0.9999999646494813 1.9480307388910607e-11 4.443622046034555e-10 3.3533507672618683e-22 3.488668055504555e-08
83 3 -1.33202 76.8912 0.364054 -1.2 0.9999999758391611 1.833468702538763e-12 4.291151317938022e-11 8.155023036264865e-23 2.411609755046625e-08
84 3 -1.32784 76.8934 2.92108 -1.2 0.9999999527653198 4.533592755422277e-12 1.9811665367339984e-11 2.3078162667544195e-22 4.72103305072398e-08
85 1 -2.34257 80.3973 0.14399 1.2 0.999999986484055 1.6433487340048353e-14 3.577757667925563e-12 1.123878481114297e-23 1.3512352467236556e-08
86 1 2.3341 83.2294 1.59499 1.2 0.9999999042855366 1.3435698010427805e-11 9.268438456520391e-11 1.5675668132053065e-19 9.560834929489006e-08
87 2 -0.296896 81.3886 1.62075 2.4 0.9999999955313257 4.915366232643841e-12 1.280939902269028e-12 2.098519913454599e-23 4.462475796888905e-09
88 3 1.24771 81.2991 1.622 -1.2 0.9999999886227436 5.272161002857028e-13 2.3734133996379922e-11 1.8804977795628664e-24 1.1352995663513994e-08
89 3 -1.3304 85.0328 1.59027 -1.2 0.999999958394621 2.2175299551103815e-11 5.784918137879781e-10 2.3432309052433935e-22 4.10047068249768e-08
90 3 -0.992709 82.0623 0.345567 -1.2 0.9999999863171084 7.996626077855853e-13 3.2694936137956137e-12 6.225954331949995e-24 1.367882408758781e-08
91 1 -2.36298 90.6963 3.12606 1.2 0.9999999923484963 5.985638017965779e-15 6.336622272375985e-12 2.9624303082615244e-24 7.645167398054293e-09
92 3 -0.984664 82.0519 2.91771 -1.2 0.9999999770800246 3.72832240791597e-12 1.3588154522863818e-11 2.035254346244036e-22 2.2902653831627597e-08
93 1 -2.2709 87.8112 4.6019 1.2 0.9999998699848603 3.7823201534947594e-11 4.860850141785892e-10 4.079850238924359e-19 1.2949122884056594e-07
94 2 0.361667 89.6804 4.61724 2.4 0.9999999957178858 6.353639722177628e-12 5.543559124028418e-12 9.833750851634657e-24 4.270213316759265e-09
95 3 -1.1915 89.7608 4.62488 -1.2 0.9999999870798872 1.1732731556911334e-12 1.4944789294337535e-10 3.866554361435549e-24 1.2769486981248803e-08
96 3 1.42245 86.0075 4.59625 -1.2 0.9999999429796881 4.227569388192835e-11 8.63160176850968e-10 5.317283045139505e-22 5.611487423663962e-08
97 3 1.04334 89.0114 3.34894 -1.2 0.9999999834783216 7.230897289642081e-13 9.289033954099078e-12 7.041664193500907e-24 1.651167075184873e-08
98 3 1.05894 89.0243 5.89621 -1.2 0.9999999784887779 1.68517763208649e-12 1.636202433231382e-11 2.0024725714150574e-23 2.1493174863623443e-08
99 1 0.0619906 85.4987 3.08373 1.2 0.9999999763206884 5.80884039505326e-14 1.1439310444351409e-11 5.615327603406212e-23 2.3667818488268647e-08
100 1 -0.0292423 82.6871 4.59957 1.2 0.9999998915454857 2.5891842133570386e-11 3.494020944911303e-10 6.376672102674708e-19 1.0807921460042966e-07
101 2 2.0981 84.516 4.58766 2.4 0.9999999943705689 7.062008548503601e-12 3.1980734395602014e-12 3.5871833348025084e-23 5.61916472317808e-09
102 3 -1.09827 84.599 4.59112 -1.2 0.9999999845298558 2.797240133128426e-12 2.961810636635933e-10 2.5016623708508477e-23 1.5171162034684142e-08
103 3 1.05417 80.8613 4.63196 -1.2 0.9999999397829299 4.188775243529488e-11 6.360020907768418e-10 1.4718861127103353e-21 5.953918064031608e-08
104 3 1.41744 83.8623 3.30749 -1.2 0.9999999763085042 2.6955557233811537e-12 1.3996016483528916e-11 7.045713907661254e-23 2.3674801971673638e-08
105 1 0.0197582 85.5328 0.0953506 1.2 0.9999999791973759 4.877520627498637e-14 3.722827170804415e-12 1.4570212171032566e-23 2.079885130523593e-08
106 3 1.4212 83.8428 5.85222 -1.2 0.9999999839719891 8.172146569334516e-13 2.0825656700057445e-11 2.4012863253243057e-23 1.6006372462876755e-08
107 1 0.0906468 88.3768 1.63516 1.2 0.999999852849477 2.93210488966085e-11 2.2705771399525387e-10 2.692324768235009e-19 1.4689413920237657e-07
108 2 -2.01925 86.5306 1.60879 2.4 0.9999999932050798 9.170380364585534e-12 4.768911329261613e-12 2.028636905331979e-23 6.780974569446328e-09
109 3 1.17742 86.4338 1.6095 -1.2 0.9999999804903249 1.064056324020823e-12 8.14064923609496e-11 4.1657300996353244e-24 1.9427205099756528e-08
110 3 -0.986842 90.2 1.64161 -1.2 0.9999999520030093 1.729365438322503e-11 8.87342003897873e-10 2.0568733373245975e-22 4.709235506962361e-08
111 3 -1.32252 87.2008 0.333133 -1.2 0.9999999572481313 8.482405322754018e-12 2.0846469524031198e-11 1.9838452282246256e-22 4.272253547039264e-08
112 3 -1.32258 87.1797 2.87562 -1.2 0.9999999651947311 1.3205352406389168e-12 2.4706116848079604e-11 3.809476065122756e-23 3.4779244079615686e-08
113 1 -2.33596 90.685 0.14285 1.2 0.9999999822657052 2.2657196592138497e-14 7.586662887884624e-12 7.965821012922624e-24 1.77266811332131e-08
114 1 2.31073 93.5568 1.61874 1.2 0.9999998628662868 6.597117355136955e-11 3.6248328483721455e-10 2.704973580977449e-19 1.3670525998137731e-07
115 2 -0.31173 91.698 1.62485 2.4 0.9999999931509791 8.959588139912638e-12 1.4674140233142408e-11 2.7566988422652616e-23 6.825380184739203e-09
116 3 1.24716 91.5854 1.62143 -1.2 0.9999999804755059 1.057781008782505e-12 9.80840302251648e-11 2.56382840551118e-24 1.942535874170409e-08
117 3 -1.34891 95.3555 1.60979 -1.2 0.9999999093784531 1.0202361501643812e-10 2.442534333596825e-09 1.6546193547283741e-21 8.807699483173535e-08
118 3 -0.977165 92.3548 0.343103 -1.2 0.9999999762562903 1.485248422478557e-12 9.366713780800901e-12 9.88494774852712e-24 2.373286235139146e-08
119 1 -2.3828 100.966 3.09916 1.2 0.9999999655927134 9.019156926801492e-14 7.975828960752219e-11 2.420113997523765e-22 3.4327432627961956e-08
120 3 -1.00104 92.3666 2.89655 -1.2 0.999999979336781 3.4013329228457136e-12 3.700508685426274e-11 6.559389371044366e-23 2.0622808314590184e-08
121 1 -2.32507 98.1242 4.60847 1.2 0.9999996790618153 1.317255034422464e-10 2.3643717680966293e-09 6.7333964331778754e-18 3.1844208380366404e-07
122 2 0.313834 99.9939 4.57329 2.4 0.999999995824254 1.970468088967374e-11 3.650237063660836e-11 8.611673816382183e-23 4.119540235618835e-09
123 3 -1.24013 100.057 4.58811 -1.2 0.9999999831917822 4.5958214752751415e-12 3.8447219574256683e-10 3.142742359645133e-23 1.641914370497911e-08
124 3 1.38169 96.3269 4.61635 -1.2 0.9999999461833514 6.25009684120524e-11 1.9206085974825846e-09 8.004736223128279e-22 5.183353654746282e-08
125 3 1.01203 99.3424 3.29238 -1.2 0.9999999747664728 3.3992340731375578e-12 6.420826768784226e-11 1.2620597919755008e-22 2.5165925462338155e-08
126 3 1.01391 99.3385 5.86207 -1.2 0.9999999794738638 2.5697259282721608e-12 1.045280848976861e-10 1.672203945805483e-22 2.041903951665385e-08
127 1 0.0152713 95.8442 3.13463 1.2 0.9999999688806536 1.5428642169630894e-13 2.3832306963224804e-11 1.1803655606577113e-22 3.1095363721208335e-08
128 1 -0.0429826 92.9957 4.60289 1.2 0.999999792959338 5.7550656334067484e-11 7.793178342328567e-10 1.2816275560563017e-18 2.0620379146111406e-07
129 2 2.05435 94.8376 4.60971 2.4 0.9999999961237052 1.4539615786634854e-11 1.035073135013216e-11 4.601486884412607e-23 3.851409860575648e-09
130 3 -1.14217 94.9072 4.61091 -1.2 0.9999999856784235 4.86398644901227e-12 4.039352153288859e-10 2.3262431856459664e-23 1.3912773303128343e-08
131 3 1.02788 91.1773 4.61307 -1.2 0.9999999685548555 2.2599334480057042e-11 1.6194082256968655e-09 1.8633840554952164e-22 2.980313404063785e-08
132 3 1.37385 94.1711 3.34144 -1.2 0.9999999735204861 2.937590851242272e-12 3.8022727373713375e-11 5.623317532723948e-23 2.6438556603341545e-08
133 1 0.0157917 95.8367 0.132926 1.2 0.9999999685393505 1.0076368905550954e-13 9.701275303158381e-12 5.746936559916967e-23 3.145084787868153e-08
134 3 1.36199 94.1857 5.89807 -1.2 0.9999999557276554 1.1031403354435595e-11 1.9362949426208705e-10 7.18311626126917e-22 4.406768256918545e-08
135 1 0.0483275 98.6873 1.59054 1.2 0.9999997149659507 1.343139552739615e-10 1.3276600930585776e-09 2.4492688649043008e-18 2.8357207765336586e-07
136 2 -2.03155 96.8534 1.61162 2.4 0.9999999904124479 2.8993980076506004e-11 5.098583282073011e-11 2.1420076674469203e-22 9.507573876410663e-09
137 3 1.16482 96.7655 1.61526 -1.2 0.9999999801128708 5.792309398452206e-12 3.0365992629065037e-10 2.521439333940526e-23 1.9577673367332044e-08
138 3 -1.01121 100.499 1.6017 -1.2 0.9999999185634483 9.81756157063674e-11 2.8156416346285297e-09 2.3391191084998927e-21 7.852273224533218e-08
139 3 -1.35978 97.5101 0.331726 -1.2 0.9999999536269882 1.1795880292682008e-11 3.1597733171379314e-11 2.323213880596467e-22 4.632961396536256e-08
140 3 -1.36663 97.5123 2.89446 -1.2 0.999999966616129 6.754270271165011e-12 8.145688791976419e-11 2.7034877226156946e-22 3.329565796140743e-08
141 1 -2.40086 100.993 0.104449 1.2 0.9999999767872554 7.553172514557548e-14 8.800584863019515e-12 3.3354166524183164e-23 2.3203862766865004e-08
142 1 7.02984 103.84 1.57926 1.2 0.999999493117942 2.7767054596950477e-10 1.3127468299403598e-09 1.0116176246537715e-17 5.052916409936997e-07
143 2 -0.350702 102.008 1.60517 2.4 0.9999999927765089 4.8745271101481655e-11 3.6122627473456054e-11 9.273504505889743e-23 7.138623738168868e-09
144 3 1.2044 101.918 1.59716 -1.2 0.9999999831566142 5.937226733111241e-12 2.3767971633480876e-10 2.2438415241251906e-23 1.659976803759527e-08
145 3 3.3513 105.641 1.59269 -1.2 0.9999998750815444 1.22192700793926e-10 1.1962553888591416e-09 3.25879107171664e-21 1.2360000642194016e-07
146 3 -1.03348 102.671 0.334927 -1.2 0.9999999611446464 1.03127159804404e-11 1.908920734396387e-11 9.695336982088025e-23 3.882594712268851e-08
147 1 2.33673 111.298 3.04422 1.2 0.9999999231954342 5.855658597899747e-13 2.995648423832742e-11 1.5939447986159097e-21 7.677401787853582e-08
148 3 -1.04069 102.644 2.89696 -1.2 0.9999999418388523 2.5568014007815867e-11 2.0441666014614453e-10 1.760979710346314e-21 5.793116621071915e-08
149 1 2.39718 108.425 4.56742 1.2 0.9999992462813972 5.104633687073567e-10 2.110642524487204e-09 2.079495571638578e-17 7.510974921023494e-07
150 2 5.03254 110.29 4.53158 2.4 0.9999999868906856 1.0141151653000874e-10 2.987340173451107e-11 4.600599406805216e-22 1.2978031517197494e-08
151 3 3.48546 110.366 4.53949 -1.2 0.9999999518736356 1.7032748010967247e-11 6.792624442380336e-10 3.572136403217567e-22 4.743006718373592e-08
152 3 6.1171 106.625 4.57507 -1.2 0.9999998496002702 2.4966952192025596e-10 6.223270037913743e-09 1.2536182182034545e-20 1.4392679533042158e-07
153 3 5.73366 109.629 3.25044 -1.2 0.999999928166729 1.3471631067291331e-11 2.003109432657628e-11 3.0402878565552428e-22 7.179976572375077e-08
154 3 5.71661 109.614 5.81853 -1.2 0.9999999453072173 6.652423161884764e-12 1.0229411783914647e-10 4.61134611993021e-22 5.458383355534717e-08
155 1 4.73084 106.15 3.09287 1.2 0.9999999243222015 2.8230716375968057e-13 4.284031098358952e-11 9.017570620795572e-22 7.563467763066994e-08
156 1 -0.0879375 103.294 4.58422 1.2 0.9999995703593563 2.624388487027558e-10 5.068596181901077e-09 1.8525477675980715e-17 4.2430961351892853e-07
157 2 6.78438 105.122 4.57492 2.4 0.9999999936753028 4.728361996050127e-11 7.925187416322484e-11 3.1766401640525614e-22 6.198167772478334e-09
158 3 3.59435 105.199 4.58904 -1.2 0.99999996960615 1.3791468950682041e-11 1.0802288992941564e-09 2.3514768399397377e-22 2.929983387575713e-08
159 3 0.980948 101.494 4.56801 -1.2 0.9999998858468848 1.5494610729289067e-10 8.305324481600611e-09 1.094383980248034e-20 1.0569284045036801e-07
160 3 6.09456 104.481 3.29073 -1.2 0.9999999619200711 4.238167469525046e-12 9.91593165889151e-11 1.3523883051371667e-22 3.797653081007784e-08
161 1 4.73166 106.114 0.119626 1.2 0.999999946070649 2.316989321626295e-13 1.192628726912365e-11 3.4537758544925637e-22 5.391718981164984e-08
162 3 6.09651 104.465 5.8484 -1.2 0.9999999659396838 1.0091339650572666e-11 1.5269457155516545e-10 4.5225468501677575e-22 3.3897528346479395e-08
163 1 4.7843 108.993 1.5569 1.2 0.9999991058689955 5.24953988599474e-10 6.431679672964157e-10 2.006384762082271e-17 8.929628813507603e-07
164 2 2.68759 107.131 1.58102 2.4 0.9999999888171943 7.180414825312987e-11 3.451565047238991e-11 5.734718170868615e-22 1.1076490383162004e-08
165 3 5.87699 107.035 1.58539 -1.2 0.9999999590408554 1.0567555117110235e-11 3.06002439282799e-10 9.887823110041934e-23 4.064258104179793e-08
166 3 3.70599 110.803 1.54571 -1.2 0.9999998719622908 1.9265201226270377e-10 2.5347085883256987e-09 1.2181908934934823e-20 1.2531035220677576e-07
167 3 3.36802 107.786 0.309308 -1.2 0.9999999171791412 1.178184646377961e-11 6.343175748535568e-11 7.330561831768167e-22 8.274564946309212e-08
168 3 3.37599 107.804 2.86056 -1.2 0.9999999306819278 1.3790454017050915e-11 7.96627507410604e-11 9.911256157594287e-22 6.922461190250947e-08
169 1 2.34705 111.322 0.0504398 1.2 0.9999999625971087 1.0782345446403787e-13 1.4140840634452749e-11 2.666983942063584e-22 3.7388644019683044e-08
170 1 7.04239 114.125 1.55794 1.2 0.9999997214469412 1.5325060027846777e-10 8.18978834688517e-10 8.315108860196617e-18 2.7758083426553025e-07
171 2 4.38103 112.29 1.55387 2.4 0.9999999883492309 6.141300955896793e-11 3.477062701784915e-11 6.28132046703748e-22 1.1554590115958521e-08
172 3 5.93923 112.199 1.56176 -1.2 0.9999999708912444 5.4032625157056144e-12 1.724094672896358e-10 8.707248550265064e-23 2.8930946495770242e-08
173 3 3.35575 115.936 1.55136 -1.2 0.9999998442763182 2.1722589240042998e-10 1.631410758947683e-09 3.9242572923241595e-20 1.5387504968519315e-07
174 3 3.70629 112.971 0.281483 -1.2 0.9999999543929848 1.1808686424154963e-11 2.342633482279167e-11 6.542144213907663e-22 4.5571777000193743e-08
175 1 2.34472 121.601 3.0156 1.2 0.9999999860325286 4.857476026804191e-14 1.823264914395576e-11 2.6650782150899663e-22 1.3949188293953555e-08
176 3 3.71212 112.956 2.84267 -1.2 0.9999999365620278 8.495948483953769e-12 9.002274259497305e-11 8.3389414114171945e-22 6.333944780449e-08
177 1 2.40223 118.74 4.52116 1.2 0.9999997385383569 1.9727085569467568e-10 3.0931027532747587e-10 9.97585361591496e-18 2.609550548065259e-07
178 2 5.03942 120.581 4.507 2.4 0.9999999966703683 1.4482771657487125e-11 5.0788322778161136e-12 4.6081632171062806e-23 3.3100669532468396e-09
179 3 3.4764 120.689 4.50674 -1.2 0.999999986837648 2.1804712700412572e-12 1.6980092232722e-10 3.424781642339525e-23 1.2990374760778412e-08
180 3 6.08673 116.939 4.5463 -1.2 0.999999919779483 7.372444870111497e-11 7.752083612351013e-10 5.256409650559921e-21 7.937158961553963e-08
181 3 5.74526 119.904 3.25524 -1.2 0.9999999834852029 2.5280547282265483e-12 1.5939517002422613e-11 1.077292906537471e-22 1.6496325530602133e-08
182 3 5.70275 119.946 5.79485 -1.2 0.9999999769824902 4.034688025837252e-12 6.71572722280725e-11 2.4987799967840236e-22 2.294632141504454e-08
183 1 4.73361 116.41 3.04147 1.2 0.9999999691578858 7.659787119605667e-14 9.614861885454993e-12 5.119595904688615e-22 3.0832417421022304e-08
184 1 4.62386 113.588 4.55294 1.2 0.9999995309625056 2.713111208190207e-10 1.3161368063957675e-09 2.7423660921415558e-17 4.6745004713435566e-07
185 2 6.75537 115.439 4.57028 2.4 0.9999999944535602 3.049744404494854e-11 4.709561583376192e-12 2.27701059839903e-22 5.511233521429708e-09
186 3 3.56465 115.505 4.55936 -1.2 0.9999999737862957 8.19759771158717e-12 3.0615723856026574e-10 2.5635015989450676e-22 2.589935484063312e-08
187 3 5.70515 111.786 4.5579 -1.2 0.999999835026247 2.0889947632373805e-10 2.151550407863373e-09 1.1668059700239418e-20 1.6261330843148958e-07
188 3 6.0843 114.776 3.29262 -1.2 0.9999999593661715 4.934433611769244e-12 8.660421647782327e-11 6.984353809392477e-22 4.054229604347889e-08
189 1 4.74804 116.423 0.0548846 1.2 0.9999999806652667 4.830984127705643e-14 3.0305149604105363e-12 2.54829253905973e-22 1.9331660176632543e-08
190 3 6.06946 114.78 5.84808 -1.2 0.9999999660276954 2.6503635884372296e-12 2.973868848288244e-11 9.151664205193735e-23 3.393991606132726e-08
191 1 4.8178 119.283 1.54206 1.2 0.9999998382852691 8.621316057120723e-11 5.972677618673704e-10 5.772213316942347e-18 1.61031246975343e-07
192 2 2.69111 117.444 1.55892 2.4 0.9999999934010759 2.3096967572014845e-11 6.987673323001444e-12 2.0694160107708603e-22 6.568833068827432e-09
193 3 5.88403 117.348 1.54889 -1.2 0.9999999817352624 5.264784110180474e-12 1.205319128746789e-10 1.5230721809993248e-22 1.813893424492414e-08
194 3 3.74715 121.077 1.53384 -1.2 0.9999999578400552 5.251026785952445e-11 1.8253197923032505e-09 7.67396669531645e-21 4.028212180045655e-08
195 3 3.37381 118.095 0.281099 -1.2 0.999999977424349 2.4028024883406583e-12 1.914884267166542e-11 2.6240582240534613e-22 2.2554095625745112e-08
196 3 3.36608 118.11 2.83162 -1.2 0.9999999600415842 2.0558574820480222e-11 3.275106825049049e-11 1.3498167918986875e-21 3.9905105802987204e-08
197 1 2.39395 121.572 0.0502437 1.2 0.9999999891302774 3.965245418698891e-14 8.80490173021531e-12 2.824338128108401e-22 1.0860884326957409e-08
198 1 7.06003 124.424 1.53314 1.2 0.9999998588902799 7.312553757541422e-11 3.4668419105882007e-10 2.781683129754367e-18 1.406899153172448e-07
199 2 4.4125 122.566 1.51474 2.4 0.9999999972286844 1.1472146635234443e-11 6.949949291064597e-12 9.96870865753214e-23 2.752892696763045e-09
200 3 5.97173 122.49 1.52116 -1.2 0.9999999903418525 1.759018357065879e-12 2.5198522106817884e-10 5.748016552706208e-23 9.404409916324048e-09
201 3 3.37585 126.237 1.51321 -1.2 0.9999999485745791 4.938307399180565e-11 4.4319627357303944e-10 1.5006839760298842e-21 5.093284574732409e-08
202 3 3.73546 123.211 0.228976 -1.2 0.9999999854063726 1.87728679491292e-12 3.4510055707810985e-11 1.964927306166229e-22 1.455724396594984e-08
203 1 2.32186 131.881 2.98811 1.2 0.9999999878306145 2.355410659858974e-14 1.0141744957107723e-12 3.08725215342356e-23 1.2168343731340643e-08
204 3 3.69935 123.269 2.77018 -1.2 0.9999999905834449 7.11066673195861e-13 1.7644115056003873e-11 2.4500258303325494e-23 9.398197937629493e-09
205 1 2.39166 129.032 4.47904 1.2 0.999999807791886 1.3340868267554425e-10 4.517593030348859e-10 2.4276483071103086e-18 1.9162294790173795e-07
206 2 5.00807 130.864 4.48653 2.4 0.9999999927346295 1.482714407774903e-11 2.1773093849020533e-12 3.97093774696033e-23 7.248362475606945e-09
207 3 3.45896 130.962 4.47982 -1.2 0.9999999818115414 2.7837064481472172e-12 7.979148513810071e-11 2.17395218844336e-23 1.81058865860305e-08
208 3 6.064 127.228 4.50629 -1.2 0.9999999525905866 5.006402460551617e-11 5.012659791000694e-10 1.1399938125553258e-21 4.685807706582432e-08
209 3 5.72069 130.214 3.20859 -1.2 0.999999974404911 1.8189577585006404e-12 4.071389942658174e-12 2.30490028034102e-23 2.558920333139108e-08
210 3 5.71113 130.216 5.77339 -1.2 0.9999999570340404 1.8426988040613205e-11 3.5263882476750155e-11 7.754084928610464e-22 4.291227175142566e-08
211 1 4.7258 126.754 3.00448 1.2 0.9999999893282092 1.9358620465590958e-14 3.5982896122334937e-12 3.912051845927255e-23 1.0668173144098483e-08
212 1 4.62319 123.887 4.49346 1.2 0.9999998907535261 5.313691453141834e-11 5.243588589399779e-10 1.3533582038566953e-18 1.0866898332691412e-07
213 2 6.73703 125.737 4.49333 2.4 0.9999999961318338 7.954055152812174e-12 4.216957116710796e-12 2.7668781267837673e-23 3.856001151737387e-09
214 3 3.54171 125.821 4.49582 -1.2 0.9999999925364619 1.5005254412960462e-12 7.753479771717142e-11 8.606235613830584e-24 7.384498952084367e-09
215 3 5.7007 122.093 4.48846 -1.2 0.9999999679189582 2.062510185867233e-11 4.1737377180237177e-10 5.138343638813368e-22 3.16430434886752e-08
216 3 6.05925 125.081 3.20628 -1.2 0.9999999782662066 3.874327371129716e-12 3.8351656773447834e-11 3.092111970496281e-22 2.1691571449163002e-08
217 1 4.74782 126.706 0.0144866 1.2 0.9999999771713214 1.3708417438784878e-13 4.0593748816527466e-12 2.196083968988515e-22 2.2824482078352074e-08
218 3 6.04261 125.089 5.77579 -1.2 0.9999999805123563 1.2067280368843881e-12 1.032713893762185e-11 2.305312110233417e-23 1.9476106619925966e-08
219 1 4.80967 129.584 1.50507 1.2 0.9999997666927737 7.394107130675869e-11 1.1936898925908682e-10 1.4750505964476132e-18 2.3311390979101844e-07
220 2 2.69906 127.717 1.50717 2.4 0.9999999913781465 2.8688782729517887e-11 4.981195091665833e-12 1.2672773195085504e-22 8.588177392337342e-09
221 3 5.8912 127.625 1.50704 -1.2 0.9999999859621607 2.9153816282148897e-12 9.226034905671224e-11 3.008123907036388e-23 1.3942666242238035e-08
222 3 3.71588 131.371 1.49908 -1.2 0.9999999427262056 4.567381080200825e-11 2.5255738173104166e-10 1.6872170488845349e-21 5.697556571018344e-08