ITEM: TIMESTEP
2100
ITEM: NUMBER OF ATOMS
5600
ITEM: BOX BOUNDS xy xz yz pp pp pp
0	7.1235	0
0	201.985	2.3745
0	119.584	0
ITEM: ATOMS id type xu yu zu q pCrystal pDisloC pSF pDisloB pDisloA
1 1 -1.50276 49.8012 -0.697897 1.2 1.0 0.0 0.0 0.0 0.0
2 1 3.03539 51.9182 2.24069 1.2 1.0 0.0 0.0 0.0 0.0
3 2 0.91315 51.3959 0.411859 2.4 0.0 0.0 0.0 0.0 1.0
4 3 2.27514 50.6757 0.693703 -1.2 1.0 0.0 0.0 0.0 0.0
5 3 -1.26926 54.0547 1.7057 -1.2 1.0 0.0 0.0 0.0 0.0
6 3 0.224657 50.631 -0.772025 -1.2 1.0 0.0 0.0 0.0 0.0
7 1 -2.25177 59.756 3.17378 1.2 1.0 4.6375692744243305e-36 3.819215923805241e-51 3.59203814507166e-49 7.92867530741103e-19
8 3 0.0709024 51.4032 1.7152 -1.2 1.0 0.0 0.0 0.0 0.0
9 1 -2.18546 56.9585 4.67202 1.2 1.0 0.0 0.0 0.0 1.7931067036233476e-142
10 2 0.460798 58.7542 4.6598 2.4 1.9712741140792618e-102 1.0872564729823687e-75 4.370700070071781e-124 7.379459328226592e-103 0.9999999999999994
11 3 -1.10329 58.8094 4.68276 -1.2 1.0 3.0226076417264038e-87 1.7864113563209523e-121 1.109643247236596e-109 2.480975054053655e-38
12 3 1.46471 55.1161 4.67764 -1.2 1.0 0.0 0.0 0.0 0.0
13 3 1.11082 58.0813 3.38724 -1.2 1.0 7.939618360911272e-221 1.1237953288327826e-301 3.11500556335212e-245 1.5595950884918762e-79
14 3 1.1656 58.103 5.92412 -1.2 1.0 1.988966166944766e-226 3.750927852767691e-308 3.5173956016938384e-251 1.2608839467839696e-82
15 1 0.129225 54.5613 3.20037 1.2 1.0 0.0 0.0 0.0 0.0
16 1 0.859288 50.9291 3.41597 1.2 1.0 0.0 0.0 0.0 0.0
17 2 2.17495 53.6621 4.69381 2.4 0.0 0.0 0.0 0.0 1.0
18 3 -1.00498 53.7423 4.68977 -1.2 1.0 0.0 0.0 0.0 0.0
19 3 2.68113 50.3089 3.53622 -1.2 1.0 0.0 0.0 0.0 0.0
20 3 1.62741 52.9148 3.4277 -1.2 1.0 0.0 0.0 0.0 0.0
21 1 0.0232953 54.6537 0.166992 1.2 1.0 0.0 0.0 0.0 0.0
22 3 1.48017 52.9681 5.98161 -1.2 1.0 0.0 0.0 0.0 0.0
23 1 0.110566 57.403 1.73263 1.2 1.0 0.0 0.0 0.0 1.2672528583899677e-107
24 2 -1.97164 55.5167 1.67733 2.4 0.0 0.0 0.0 0.0 1.0
25 3 1.21782 55.5044 1.67958 -1.2 1.0 0.0 0.0 0.0 0.0
26 3 -0.953157 59.2415 1.66232 -1.2 1.0 1.1239522810712692e-80 6.727281590145866e-110 5.1850414523282445e-98 4.960723763874866e-36
27 3 -1.31692 56.2203 0.402956 -1.2 1.0 0.0 0.0 0.0 1.2457380260757425e-246
28 3 -1.29678 56.2293 2.9523 -1.2 1.0 0.0 0.0 0.0 1.0031479546498576e-253
29 1 -2.37078 59.6785 0.229502 1.2 1.0 5.398386637787551e-32 6.794345373965642e-45 1.6407371036610827e-43 6.57816045317588e-19
30 1 2.36035 62.5753 1.7117 1.2 0.9999990934830068 6.914438829398118e-10 4.291567257569595e-10 6.418074068482167e-18 9.053963922570641e-07
31 2 -0.257043 60.7395 1.65768 2.4 0.08004783385898469 0.000672170445381418 5.949009356725144e-11 5.182570021513404e-14 0.9192799956360886
32 3 1.29789 60.6413 1.68668 -1.2 0.9999999999640323 9.242429100211753e-19 1.8865033473163094e-28 1.3336499812220883e-30 3.59634438419585e-11
33 3 -1.29888 64.394 1.71002 -1.2 0.9999994665980216 1.1380479296035335e-09 2.250907929590243e-09 9.117652493949566e-20 5.300130195874008e-07
34 3 -0.963475 61.3875 0.396215 -1.2 0.9997847578046694 2.8441769411587024e-07 7.29496217267546e-11 7.2280632440879e-17 0.00021495770469107125
35 1 -2.29454 70.0565 3.15898 1.2 0.9999999489888631 8.294438595679967e-14 1.2480135919093409e-12 5.985350690148636e-23 5.1009806710474695e-08
36 3 -0.924777 61.4131 2.96533 -1.2 0.999640261386708 7.784376478252971e-07 9.365645275382891e-11 1.3500890999870967e-16 0.00035896008198206623
37 1 -2.18886 67.201 4.68217 1.2 0.9999995616527312 1.212159144390504e-10 1.182298961827182e-10 1.604892347908729e-18 4.381078190474951e-07
38 2 0.432897 69.0745 4.67608 2.4 0.9999999709830978 5.689917737707018e-11 6.24893829035216e-13 1.1594235731693825e-22 2.895937441485393e-08
39 3 -1.11751 69.1585 4.64798 -1.2 0.9999999459484793 3.179999543253414e-12 1.156143850272622e-11 1.1914813432862184e-23 5.403678269316629e-08
40 3 1.48628 65.4269 4.71532 -1.2 0.9999998651608066 4.510476537881139e-11 1.279036852470088e-10 5.0220267878945e-22 1.3466618006909027e-07
41 3 1.1395 68.3956 3.41593 -1.2 0.9999998475238076 4.962604929148498e-11 1.910953179867696e-11 2.0693768060414875e-21 1.5240746016237852e-07
42 3 1.14301 68.4434 5.94413 -1.2 0.9999999107036739 4.71666594437773e-12 2.470544601042092e-12 5.645343041116303e-23 8.928913637783178e-08
43 1 0.0999111 64.9495 3.20853 1.2 0.9999998758236459 9.109514173288767e-13 8.706881768945859e-12 9.355400278246421e-22 1.2416673950169818e-07
44 1 -0.00615266 62.0942 4.65113 1.2 0.9997730881262358 1.8113266747995348e-07 4.7711635528946145e-09 8.239672971795629e-15 0.00022672596992579026
45 2 2.13805 63.9181 4.70099 2.4 0.9999999544566275 1.5129440202153802e-10 4.2442065716515185e-12 6.830583931993167e-22 4.5387837422333136e-08
46 3 -1.05396 64.0261 4.7 -1.2 0.999999885767291 2.276140993191629e-11 7.983763589115794e-11 1.3316377791529477e-22 1.1413011163470505e-07
47 3 1.12005 60.2495 4.66335 -1.2 0.999999999936108 2.4827306129108185e-19 9.744246664572378e-30 9.509484995280879e-32 6.389069648243745e-11
48 3 1.44935 63.2456 3.44033 -1.2 0.9999995466917148 1.8752205937124773e-10 4.851682001580366e-11 1.5091751731011802e-20 4.5307224161744133e-07
49 1 0.0509919 64.853 0.19447 1.2 0.9999997581671545 5.058340403425026e-12 6.336044607179429e-11 1.9436696828441595e-20 2.41764423462013e-07
50 3 1.44983 63.2553 5.97123 -1.2 0.9999994739963155 2.3833705795367636e-10 1.1074168228799317e-10 3.162081197642634e-20 5.256546084946569e-07
51 1 0.15594 67.7827 1.72179 1.2 0.9999994066921727 2.3247893395159755e-10 1.544852943724345e-10 2.6455199618181948e-18 5.929208701028455e-07
52 2 -1.97208 65.8895 1.67067 2.4 0.9999999393957087 3.315447476324806e-10 5.564462850914735e-12 4.935699707017376e-21 6.026718444429312e-08
53 3 1.22145 65.8113 1.67297 -1.2 0.9999999203439738 2.343521120950086e-11 9.470132655260504e-11 1.336890827006966e-22 7.95378869799753e-08
54 3 -0.938936 69.5655 1.6807 -1.2 0.9999997528555553 1.2067628261984164e-10 1.3796686626515034e-10 2.74711147358607e-21 2.468857975807767e-07
55 3 -1.32058 66.5284 0.398962 -1.2 0.9999995552867474 4.279366467039058e-10 9.693545524361457e-10 2.0736219996128739e-19 4.433159669185695e-07
56 3 -1.28062 66.5793 2.94627 -1.2 0.9999999011053753 6.8700274476321245e-12 3.1819864335959573e-12 7.357126593915978e-23 9.888457776702682e-08
57 1 -2.35343 70.0597 0.144523 1.2 0.9999999022182385 4.553327700216667e-13 6.960237852441737e-12 1.3699168682910715e-21 9.777435224985602e-08
58 1 2.361 72.8923 1.67305 1.2 0.9999995538413761 9.1902896212825e-11 1.450230060880397e-10 3.757449449006757e-18 4.4592169531985316e-07
59 2 -0.281811 71.0627 1.65843 2.4 0.9999999672812129 8.26322152492761e-11 3.3007898188984097e-12 7.456169811822412e-22 3.263284748454618e-08
60 3 1.28025 70.9698 1.64441 -1.2 0.9999999612652257 5.605515542606385e-12 2.763092698947788e-11 3.133926596730223e-23 3.8701541221328036e-08
61 3 -1.36966 74.7033 1.6949 -1.2 0.9999998597085819 4.835023858139198e-11 2.648035117708793e-10 1.5965460748719407e-21 1.3997826702580414e-07
62 3 -0.994097 71.6984 0.39112 -1.2 0.9999999159159887 1.0373921144843517e-11 2.3875922561239332e-11 5.421624871190768e-22 8.404975517203808e-08
63 1 -2.35082 80.3753 3.11627 1.2 0.999999945203718 2.932869803884455e-13 9.86881958904179e-12 2.5238792507729264e-21 5.478611460365458e-08
64 3 -0.970382 71.7379 2.94752 -1.2 0.999999853994606 1.007979332493419e-10 7.94660603382394e-11 1.74950848851795e-20 1.458251350718261e-07
65 1 -2.252 77.5371 4.6488 1.2 0.9999995049899658 1.140214958114547e-10 4.1770450455929965e-10 1.0164859423216291e-17 4.944783134720678e-07
66 2 0.420928 79.4095 4.68361 2.4 0.9999999530033972 1.4231029562469566e-10 4.8453584666503264e-12 7.818662177914267e-21 4.6849442785865105e-08
67 3 -1.14155 79.4602 4.66629 -1.2 0.9999999293097717 1.2760122349719062e-11 1.512353394468137e-10 8.681998841614116e-22 7.052623095850162e-08
68 3 1.45241 75.7309 4.63077 -1.2 0.9999997212427162 1.800889645600258e-10 2.928437008074436e-10 8.878375471614556e-21 2.7828435164976144e-07
69 3 1.0649 78.7549 3.37584 -1.2 0.9999998614680171 3.512479820222269e-11 3.795663337352251e-10 1.2153893198277278e-20 1.381172931447152e-07
70 3 1.1301 78.7525 5.93087 -1.2 0.9999998821405861 4.5990224247150614e-11 1.302316334873516e-10 9.768445281446529e-21 1.1768319513578394e-07
71 1 0.0385402 75.2105 3.13524 1.2 0.9999999339879556 1.630391721247894e-13 2.084677548333041e-12 3.006904299733567e-22 6.600980099778161e-08
72 1 0.010541 72.3748 4.67211 1.2 0.999999710805924 7.227153657349773e-11 5.848780778668414e-11 8.955376944861175e-19 2.8906331994541693e-07
73 2 2.13377 74.2409 4.61195 2.4 0.9999999636729064 1.0553399227370515e-10 1.4654870683785573e-12 6.481113698619778e-22 3.6220099609816756e-08
74 3 -1.05907 74.313 4.63474 -1.2 0.9999999541638764 1.1274494063850365e-11 5.714926428574664e-11 1.3610591040146831e-22 4.576769689176086e-08
75 3 1.1245 70.5836 4.64817 -1.2 0.9999998382404229 7.752934417376363e-11 7.814171915358481e-11 9.644391863875788e-22 1.616039071349274e-07
76 3 1.41 73.5295 3.40516 -1.2 0.9999999148567588 7.61773091480003e-12 6.967257958374492e-12 2.150433770096376e-22 8.51286624712988e-08
77 1 0.0167958 75.2244 0.163126 1.2 0.9999999230592643 1.8350117347627974e-13 2.4435209582770816e-11 1.6053843210472325e-21 7.691611006509503e-08
78 3 1.52338 73.61 5.96036 -1.2 0.999999943922429 1.09446089844028e-11 1.1283954941165107e-11 3.1240668912030374e-22 5.6055341984608205e-08
79 1 0.0645859 78.1094 1.70695 1.2 0.9999996192102455 1.0763703202735043e-10 3.300395274839249e-10 9.008801178611934e-18 3.803520741672147e-07
80 2 -2.0249 76.2006 1.66218 2.4 0.9999999696888868 3.972723384738053e-11 6.973855374369582e-12 1.0661999711703354e-21 3.026440597836158e-08
81 3 1.17227 76.123 1.67295 -1.2 0.9999999457997207 6.2922608609019e-12 5.287322293313971e-11 1.3359041256947977e-22 5.4141112418211596e-08
82 3 -0.991295 79.9006 1.65178 -1.2 0.999999800115733 1.160009167658194e-10 5.352471211064064e-10 1.3741701704741493e-20 1.992330215655049e-07
83 3 -1.35684 76.806 0.350237 -1.2 0.9999999129455653 1.2933541519050367e-11 1.839572106076345e-10 4.216233442255228e-21 8.685754539577695e-08
84 3 -1.32893 76.8834 2.91705 -1.2 0.999999907354142 1.385797357057728e-11 1.5754698748897414e-11 7.040061653733555e-22 9.26162465204914e-08
85 1 -2.36004 80.4071 0.145465 1.2 0.9999999170218853 8.23433026771319e-13 7.109770088621179e-12 3.2901805858381195e-21 8.297018363923686e-08
86 1 2.3238 83.235 1.60283 1.2 0.99999970359414 1.9318240233336015e-10 8.701929995548221e-10 6.748677577852608e-18 2.953424867042175e-07
87 2 -0.314612 81.3921 1.66243 2.4 0.9999999732467021 3.099180193802359e-11 2.645687059110232e-12 6.075302817659997e-22 2.6719663877969203e-08
88 3 1.23278 81.2769 1.6786 -1.2 0.9999999488720549 2.2075361918858798e-11 1.5094481690043372e-10 3.167309458634545e-22 5.0954929132164075e-08
89 3 -1.36458 85.022 1.63219 -1.2 0.9999998575224203 8.983577916518029e-11 9.119201815211717e-10 7.604804727303767e-21 1.4147582121215534e-07
90 3 -1.03419 82.0401 0.383267 -1.2 0.99999994319732 5.6899674528229105e-12 7.079889115762846e-12 2.1479697501496113e-22 5.67899043323676e-08
91 1 -2.3506 90.668 3.06308 1.2 0.99999996864514 1.3883435020194343e-13 1.761541168508242e-11 5.193878559449222e-22 3.133709993673566e-08
92 3 -0.98667 82.0461 2.94377 -1.2 0.9999998995299417 3.620581231711167e-11 5.1571574435913565e-11 8.428867361898366e-21 1.0038227537241574e-07
93 1 -2.26661 87.7979 4.59379 1.2 0.9999997023989211 1.185187744736426e-10 9.831971186410778e-10 4.73798424842951e-18 2.964993598557159e-07
94 2 0.376429 89.6511 4.56527 2.4 0.9999999890662822 2.1807321975464297e-11 8.720965957543832e-12 1.2613728015892646e-22 1.090319450564523e-08
95 3 -1.17382 89.7596 4.57625 -1.2 0.9999999759155996 4.618699743247842e-12 2.0463160443805445e-10 1.0834811319118852e-22 2.387514802590053e-08
96 3 1.47102 86.0316 4.57111 -1.2 0.9999999252899292 2.4639832065154417e-11 4.672081106087552e-10 2.3538338882282075e-21 7.42182290043537e-08
97 3 1.0523 89.0164 3.25334 -1.2 0.9999999495146854 1.493119022227631e-11 1.7397727612797185e-10 1.899043380340002e-21 5.029640424899522e-08
98 3 1.07352 88.9762 5.81949 -1.2 0.9999999721455886 2.147994819327671e-12 2.24642597324054e-11 1.437729721094833e-22 2.7829804813636243e-08
99 1 0.0475752 85.5065 3.08681 1.2 0.9999999564084872 1.541797832840867e-13 8.669538770172077e-12 7.270112105732617e-22 4.358268293317375e-08
100 1 0.0288434 82.7128 4.62436 1.2 0.999999791271985 3.3239458568512456e-11 1.6378408088327812e-10 3.4518981881883105e-18 2.0853099279227465e-07
101 2 2.13752 84.5225 4.58086 2.4 0.9999999904491546 8.237261806113336e-12 2.3371217176404786e-12 9.195983487278925e-23 9.540271436279217e-09
102 3 -1.06031 84.6112 4.604 -1.2 0.9999999776522749 4.000771488892892e-12 1.1298392810270724e-10 6.578535162017759e-23 2.2230743318209847e-08
103 3 1.07736 80.9213 4.68317 -1.2 0.9999998260539282 6.436848343472134e-11 3.5326656664915134e-10 7.800907842157212e-21 1.735284328499212e-07
104 3 1.43114 83.8644 3.31737 -1.2 0.9999999575365613 6.01698313916836e-12 7.704130928329194e-11 5.313401343081277e-22 4.238038494609832e-08
105 1 -0.0342764 85.5084 0.0865866 1.2 0.9999999630867654 1.952427194441721e-13 1.1784230819372095e-11 8.441405605370347e-22 3.690125642679008e-08
106 3 1.46136 83.8883 5.86809 -1.2 0.9999999413693437 1.7891109549763467e-11 3.2657720257345847e-10 8.745250505627086e-21 5.8286181348441625e-08
107 1 0.0986508 88.3671 1.56234 1.2 0.9999997916292971 7.329304506490378e-11 6.416595328360114e-10 3.3796994413509127e-18 2.0765574468575312e-07
108 2 -2.02128 86.5417 1.62563 2.4 0.9999999885806973 2.7969656946745683e-11 3.651849909121752e-12 2.560025412589085e-22 1.1387677712192264e-08
109 3 1.17843 86.436 1.59183 -1.2 0.9999999817071071 4.893385158748685e-12 1.1255830018841339e-10 4.643364054178463e-23 1.8175435170741936e-08
110 3 -1.00753 90.1611 1.54764 -1.2 0.9999999513797503 2.8019526697690746e-11 3.7365941544569645e-10 4.66947904697873e-22 4.8218577048734395e-08
111 3 -1.34912 87.1693 0.310945 -1.2 0.9999999672934166 8.561918004591442e-12 8.568786894657065e-11 9.971648425652738e-22 3.261233441584585e-08
112 3 -1.32969 87.1844 2.86804 -1.2 0.9999999791477193 2.589112916091386e-12 2.1880765907616526e-11 1.2559198475267258e-22 2.0827808311310457e-08
113 1 -2.35677 90.6041 0.0486298 1.2 0.9999999667503744 4.2440504217480474e-13 2.9238413175039246e-11 1.424700697270947e-21 3.3219965399419995e-08
114 1 2.32771 93.4986 1.53119 1.2 0.9999996372420937 1.1196427101857182e-10 8.670185509024614e-10 3.4522153868004428e-18 3.6177891970547103e-07
115 2 -0.318597 91.6349 1.57168 2.4 0.9999999938263073 2.4332800351175854e-11 8.040434105395259e-12 9.739321355061729e-23 6.141317029257386e-09
116 3 1.21961 91.5424 1.5767 -1.2 0.999999984383032 3.394243995085864e-12 1.690264543440449e-10 3.518470643031384e-23 1.5444544933253808e-08
117 3 -1.34855 95.3007 1.57136 -1.2 0.9999998533022149 6.079446749341404e-11 3.0792669246234937e-10 6.598446594386895e-22 1.463290684107392e-07
118 3 -0.992287 92.2963 0.28972 -1.2 0.9999999643393678 4.564913503049198e-12 2.4564419854747213e-11 7.926748668841463e-23 3.5631504202798705e-08
119 1 -2.34322 101.018 2.98865 1.2 0.9999999635162734 1.2273735507669005e-13 1.7986444825742956e-11 8.068443367647709e-23 3.6465614407649535e-08
120 3 -1.02116 92.2916 2.84212 -1.2 0.9999999170113154 5.0725053458353724e-11 5.361734921449055e-10 6.5129759216887264e-21 8.240178101371625e-08
121 1 -2.2448 98.1055 4.54516 1.2 0.9999997627760424 7.219067650891645e-11 9.387188472419074e-10 7.657556411222997e-19 2.3621305156272165e-07
122 2 0.377555 99.991 4.49011 2.4 0.9999999842701898 1.6210382386184574e-11 7.972852742986151e-12 8.35131198526892e-23 1.570562237302719e-08
123 3 -1.17025 100.04 4.50915 -1.2 0.9999999758986509 1.180581876937848e-11 3.0717851979416013e-10 3.770775317218301e-23 2.37823668786287e-08
124 3 1.39773 96.2947 4.54416 -1.2 0.9999997395519278 3.5531702253367756e-10 2.8006999497343998e-09 6.775803732610789e-21 2.572920531069663e-07
125 3 1.03329 99.3018 3.19682 -1.2 0.9999999293188767 1.8504216374507633e-11 4.420801669027817e-11 4.769411328173803e-22 7.061841180264253e-08
126 3 1.09073 99.3036 5.76884 -1.2 0.9999999665258007 2.798485331488584e-12 2.1312693537043105e-11 6.232197288628994e-23 3.345009020916286e-08
127 1 0.0238916 95.824 3.0454 1.2 0.9999998395853602 1.881702018607819e-12 3.054540135109505e-11 2.109816888523727e-21 1.6038221021015261e-07
128 1 -0.0583502 92.9278 4.56632 1.2 0.9999995787158295 2.718779634109285e-10 9.248820223380289e-10 4.1460759592897745e-18 4.2008740720307124e-07
129 2 2.06969 94.7699 4.5431 2.4 0.9999999829234697 4.3176289653232456e-11 1.0225911063569374e-11 2.765701116152033e-22 1.7023129981621114e-08
130 3 -1.13173 94.8529 4.54779 -1.2 0.9999998439940505 4.6494817901533344e-10 1.2857665535127883e-08 1.7723593081678303e-20 1.4268333994033653e-07
131 3 1.04589 91.1514 4.58608 -1.2 0.9999998104814806 2.8378823876947684e-10 1.8284665591634743e-09 1.962596584619207e-20 1.8740627089207475e-07
132 3 1.3606 94.1327 3.28201 -1.2 0.9999999302882111 7.747726374120858e-12 2.609943738868818e-11 1.5500664948841034e-22 6.96779459308543e-08
133 1 0.0167184 95.7629 0.069784 1.2 0.9999999473519016 4.1135796004208245e-13 3.165558447955527e-11 4.058385411311118e-22 5.261603367465981e-08
134 3 1.41853 94.1347 5.83756 -1.2 0.9999999170102298 2.4941885138471375e-11 4.0046735129647206e-11 1.168504882124391e-21 8.292478334852529e-08
135 1 0.0513433 98.6711 1.51829 1.2 0.9999991903877674 1.1069257150671492e-10 5.414938831969374e-10 4.530118388858266e-18 8.089600462040566e-07
136 2 -2.02717 96.8206 1.54814 2.4 0.999999980764912 1.2653555880113675e-10 1.3166579946755112e-11 7.212461515328445e-22 1.9095384764276362e-08
137 3 1.1713 96.6937 1.54718 -1.2 0.9999999631321379 4.806745440163513e-12 1.409030048405742e-10 1.792146635449438e-23 3.672215859098843e-08
138 3 -0.974132 100.473 1.47447 -1.2 0.9999999428807365 1.6644607649571032e-11 2.4539442214119073e-10 7.323620144146954e-23 5.68572287188414e-08
139 3 -1.35225 97.443 0.249506 -1.2 0.9999999195456484 2.1891587573942887e-11 6.551783348427763e-11 4.1467831608290695e-22 8.036694792113328e-08
140 3 -1.34433 97.471 2.79334 -1.2 0.9999999564721056 6.738904321652569e-12 3.192813232128482e-11 8.016140806788352e-23 4.3489227686972244e-08
141 1 -2.34898 100.953 0.0182695 1.2 0.9999999529983583 1.371926392886534e-13 8.519297215926666e-12 1.5706618039602094e-23 4.69929807089931e-08
142 1 7.13167 103.82 1.52293 1.2 0.9999998510011291 3.192150193657907e-11 3.007694273967741e-10 2.35333635385745e-19 1.4866617524554698e-07
143 2 -0.315643 101.965 1.48649 2.4 0.9999999927680108 1.6883847899334335e-11 1.0010449766484507e-11 5.355321195535102e-23 7.205100170949157e-09
144 3 1.25691 101.89 1.50577 -1.2 0.9999999670751408 7.74878254221894e-12 3.1553107968092945e-10 5.0854459838023696e-23 3.260157397024379e-08
145 3 3.3963 105.62 1.50686 -1.2 0.9999999255299516 3.847700626783464e-11 6.686839469666234e-10 2.1849322952311903e-22 7.376288242167447e-08
146 3 -1.03785 102.648 0.22498 -1.2 0.9999999429189829 1.3903989044281528e-11 6.363119385451288e-11 1.9634088805945405e-22 5.7003482649849414e-08
147 1 2.40194 111.273 2.97154 1.2 0.9999999525972352 3.1188611022315323e-13 5.954170788284395e-11 1.0606600887437353e-21 4.734291805809571e-08
148 3 -0.984966 102.605 2.79295 -1.2 0.999999959828173 2.9708427511435803e-12 2.266889876661664e-11 5.0344488052806705e-23 4.014618351089516e-08
149 1 2.44773 108.459 4.42197 1.2 0.9999998090642885 4.3248752503755445e-11 3.599645541920682e-10 4.373928413660902e-19 1.905325039846937e-07
150 2 5.10953 110.298 4.4737 2.4 0.9999999935965604 6.038732892243099e-12 6.17084917741745e-12 2.73701115278566e-23 6.39123524315221e-09
151 3 3.54934 110.399 4.47814 -1.2 0.9999999738916631 2.2206255757976904e-12 3.849361072650772e-10 4.1570358747042865e-23 2.5721185209263052e-08
152 3 6.16129 106.621 4.46067 -1.2 0.9999999535327944 1.737917671184157e-11 8.274491673480565e-10 2.0417638477877726e-22 4.562238222463457e-08
153 3 5.7977 109.573 3.21108 -1.2 0.9999999769820747 3.221960920164275e-12 1.989251963834425e-11 6.063797419399696e-23 2.299481782594603e-08
154 3 5.77639 109.634 5.75872 -1.2 0.999999975009797 1.1989957354040027e-12 2.98493997360951e-11 3.368131045705149e-23 2.4959147584675665e-08
155 1 4.79347 106.109 2.97076 1.2 0.9999999617768199 2.1396974429468208e-13 3.822819055698537e-11 1.8369285505794364e-22 3.8184737278480054e-08
156 1 -0.0061417 103.271 4.4928 1.2 0.9999998880080025 2.647573740952388e-11 3.493877798507244e-10 3.8183044358668567e-19 1.1161612857649528e-07
157 2 6.84163 105.149 4.49364 2.4 0.9999999924893928 1.2379378874186947e-11 8.56082236406424e-12 7.396331201683041e-23 7.489672912462554e-09
158 3 3.63388 105.234 4.45602 -1.2 0.9999999729450245 2.559087260484525e-12 2.1461382379880396e-10 1.4174150927121387e-23 2.683779741088113e-08
159 3 1.0408 101.472 4.49653 -1.2 0.9999999377842087 2.6794923935258093e-11 5.04831344973101e-10 2.378360849332054e-22 6.168416344544921e-08
160 3 6.163 104.431 3.23402 -1.2 0.9999999830316753 2.6438852864220246e-12 1.824600086762349e-11 1.7061527371023238e-23 1.6947431876401278e-08
161 1 4.76348 106.151 -0.00608569 1.2 0.9999999305932052 5.106639169649337e-13 2.8084155676916998e-11 3.3663893020280346e-22 6.93782069069684e-08
162 3 6.15632 104.484 5.77667 -1.2 0.9999999821877422 1.4863062538343755e-12 2.767141311637471e-11 2.993057970844269e-23 1.7783099985686705e-08
163 1 4.84184 108.989 1.49189 1.2 0.9999998282047327 4.1689534627811735e-11 7.015346345784553e-10 8.308360325259231e-19 1.710520500431125e-07
164 2 2.73091 107.129 1.50227 2.4 0.99999998409794 5.075717851810395e-11 7.74271866186732e-11 8.047633266795835e-22 1.5773869369606414e-08
165 3 5.92206 107.082 1.46928 -1.2 0.9999999754323868 1.2360810299780733e-11 1.0349733107323529e-09 7.725426156729098e-23 2.3520281656289123e-08
166 3 3.74905 110.804 1.45961 -1.2 0.9999998985736976 7.64674149123506e-11 5.377666196532583e-09 7.614678812043e-21 9.597217347629932e-08
167 3 3.38807 107.796 0.214119 -1.2 0.9999999355832518 1.3099146174101394e-11 1.635103219282149e-10 6.577910233469087e-22 6.424013699777369e-08
168 3 3.4266 107.792 2.75595 -1.2 0.9999999616248172 2.852732802335693e-12 7.871672058255069e-11 1.0181447541465468e-22 3.8293606353704235e-08
169 1 2.40294 111.287 -0.0278627 1.2 0.999999948334466 5.127652262223781e-13 3.3970074328046645e-11 8.692696225229713e-22 5.163105192434347e-08
170 1 7.02886 114.089 1.47988 1.2 0.999999834193883 1.482928345176057e-11 1.387815747618745e-10 9.703560757681039e-19 1.656525090014398e-07
171 2 4.41574 112.299 1.46145 2.4 0.9999999801654555 6.40840009974889e-11 6.656517270069322e-11 5.470067644792292e-21 1.9703893854168374e-08
172 3 5.98316 112.211 1.444 -1.2 0.9999999824892973 1.3618806957718918e-12 1.65357240088627e-10 2.4283190304597888e-23 1.7343977338502062e-08
173 3 3.39598 115.909 1.48317 -1.2 0.9999997774941101 7.774112572447191e-11 1.30262360101884e-09 1.1659973973627186e-20 2.211255315082187e-07
174 3 3.7335 112.962 0.183409 -1.2 0.9999999643184467 6.705081300669736e-12 6.723502877074909e-11 7.526619265002702e-22 3.5607609405060236e-08
175 1 2.36465 121.565 2.97737 1.2 0.9999998890421099 5.313593542640063e-13 5.695688257182428e-12 3.2091498443892613e-22 1.1095167022901465e-07
176 3 3.74566 112.95 2.74548 -1.2 0.9999999319554763 7.672832352707727e-12 2.741452190975901e-10 2.4931403355188e-21 6.776270589879416e-08
177 1 2.43816 118.724 4.50145 1.2 0.9999990375700202 3.361722059792567e-10 7.474971303363521e-10 5.3934193885377226e-18 9.613463074794168e-07
178 2 5.07979 120.557 4.49935 2.4 0.9999999247368294 5.871476114481826e-11 2.015954054080685e-12 2.2330017278386755e-22 7.52024412976764e-08
179 3 3.52507 120.648 4.49016 -1.2 0.9999998290847739 1.5513533182951235e-10 1.27551634683771e-09 1.8910649575120385e-21 1.6948458129507777e-07
180 3 6.14552 116.93 4.51118 -1.2 0.9999996681671158 2.1216181909074525e-10 2.638903383643278e-09 1.4983737177696615e-20 3.2898181206589803e-07
181 3 5.76699 119.905 3.21978 -1.2 0.9999998503664832 1.8790656107227114e-11 4.692594753687925e-12 3.8094346076230116e-22 1.4961004006462098e-07
182 3 5.77612 119.912 5.77753 -1.2 0.9999997228544738 7.53700232618497e-11 3.195708459655197e-11 7.829438553610815e-21 2.7703819570669114e-07
183 1 4.75651 116.408 2.9893 1.2 0.9999998609091443 5.287246924480582e-13 2.395225423782253e-11 2.6906611105624832e-21 1.39066376704392e-07
184 1 4.70163 113.597 4.45892 1.2 0.9999997247566274 6.333487701439723e-11 1.946407509593349e-09 8.323794080339213e-18 2.732336334695418e-07
185 2 6.84503 115.445 4.52279 2.4 0.9999999850848696 1.821557020174677e-11 1.990663895193534e-11 6.486319894114435e-22 1.4877006474529685e-08
186 3 3.64018 115.514 4.51742 -1.2 0.9999999591824112 5.8926416377006555e-12 3.2078991588204613e-10 1.0183963853371631e-22 4.0490906718318064e-08
187 3 5.78867 111.806 4.47431 -1.2 0.9999999353822632 2.393963924207794e-11 1.600068381944723e-09 1.025567926048845e-21 6.299373109678065e-08
188 3 6.14453 114.758 3.23186 -1.2 0.9999999493374868 5.273892860914662e-12 4.3294899560225205e-11 4.607648034412869e-22 5.061394649499874e-08
189 1 4.7528 116.451 -0.030392 1.2 0.9999998630446916 8.029066228398179e-13 2.2384388932699023e-11 3.2268027225676576e-21 1.3693212591867126e-07
190 3 6.1474 114.8 5.80315 -1.2 0.9999999322638015 3.324868700921965e-12 1.2077254616111084e-10 5.753204244892741e-22 6.761210214622407e-08
191 1 4.82213 119.251 1.50194 1.2 0.9999991686396001 7.952916281857326e-11 1.229799054358987e-10 1.9348881035947268e-18 8.311578963242937e-07
192 2 2.70949 117.413 1.48645 2.4 0.9999999615072149 1.0947528225547999e-10 1.4679286629346914e-11 3.398057731686752e-21 3.836863492441797e-08
193 3 5.90976 117.332 1.48589 -1.2 0.9999999463527802 5.581021317503721e-12 1.4095462483737796e-10 7.535585190449378e-23 5.3500684850814555e-08
194 3 3.7432 121.095 1.47948 -1.2 0.9999997266243752 6.972875698298917e-11 2.401952386064735e-10 1.4234720677729466e-21 2.730656984618339e-07
195 3 3.41188 118.091 0.217117 -1.2 0.9999998441195517 2.2092433127047026e-11 4.4317397287643087e-11 2.2958697070670908e-21 1.558140443108315e-07
196 3 3.3872 118.08 2.76143 -1.2 0.999999827124876 1.9890677509408913e-11 7.841694292807381e-11 2.5462744940455533e-21 1.7277681759177558e-07
197 1 2.35341 121.56 0.000528593 1.2 0.9999998927355893 2.239286357337995e-13 2.337693094640988e-12 1.4613526521805357e-22 1.072618472675525e-07
198 1 7.04065 124.431 1.52023 1.2 0.9999993950408275 7.541933177875808e-11 1.0330577468878424e-10 1.11776406156477e-18 6.047804465453706e-07
199 2 4.40827 122.595 1.46584 2.4 0.9999999571322897 4.030482437124901e-11 3.382545107150712e-12 2.3812613272402825e-22 4.2824021775053884e-08
200 3 5.96535 122.507 1.49869 -1.2 0.9999999627534784 1.6485150754251732e-12 4.681789657544405e-12 1.5497159483032581e-24 3.72401887170198e-08
201 3 3.34905 126.257 1.47835 -1.2 0.9999998847865896 1.8732783075473985e-11 9.689219408830604e-11 1.1962563839598305e-22 1.1509778949362432e-07
202 3 3.73194 123.259 0.202782 -1.2 0.9999999039401375 8.654936760813537e-12 1.4414062833470847e-12 6.497889074954518e-23 9.604976509852007e-08
203 1 2.36652 131.905 2.97804 1.2 0.9999999513782811 1.4317799066638266e-13 1.4743487536902126e-11 1.2842954868790447e-21 4.860682958245228e-08
204 3 3.71328 123.249 2.75115 -1.2 0.9999998493626016 1.4910262024406212e-11 1.9199456844704985e-11 4.615268184151843e-22 1.5060328263356157e-07
205 1 2.45033 129.059 4.4388 1.2 0.9999994330231415 8.898025002976823e-11 3.0326276017579624e-10 3.7655613959924226e-18 5.665846168417154e-07
206 2 5.06285 130.934 4.46662 2.4 0.9999999751923528 1.41155744155399e-11 4.6154238688727646e-12 1.7819835077166305e-22 2.478891503909464e-08
207 3 3.49116 131.011 4.46518 -1.2 0.9999999670391223 2.7619823235863443e-12 6.332058010656784e-11 9.199063694864953e-23 3.2894789945876716e-08
208 3 6.07186 127.235 4.5067 -1.2 0.999999875477085 2.467677996546116e-11 2.905097904410055e-10 5.503853573299226e-22 1.2420773532679803e-07
209 3 5.75049 130.25 3.20962 -1.2 0.9999999237119115 3.4173782280454265e-12 4.103289192932887e-12 1.7531851334294704e-22 7.628057322425666e-08
210 3 5.72752 130.267 5.75545 -1.2 0.9999999054500107 3.1753545149493856e-11 4.634410518138865e-11 6.4270401643095255e-21 9.447189247335493e-08
211 1 4.70917 126.776 2.9864 1.2 0.9999999684538178 3.2263458406496284e-14 1.5577579132734064e-12 1.715392041542017e-23 3.154459034440289e-08
212 1 4.62528 123.881 4.5062 1.2 0.9999995695801784 6.481585504310743e-11 3.1213195564388805e-10 7.479671003829716e-19 4.3004286922797054e-07
213 2 6.74041 125.731 4.50386 2.4 0.9999999620941515 2.226397718712498e-11 2.343445948753219e-12 1.2489093037384522e-22 3.7881235622351045e-08
214 3 3.5506 125.819 4.49459 -1.2 0.999999955387131 2.9380541759568537e-12 4.5078630586712e-11 1.9429884492717686e-23 4.456485012309531e-08
215 3 5.75718 122.077 4.49182 -1.2 0.9999997356556546 1.3533304728212992e-10 5.537961384567625e-10 1.590110135496566e-21 2.636552105504272e-07
216 3 6.06959 125.097 3.21469 -1.2 0.9999998728419799 4.824807687943e-12 8.888154425099056e-12 1.740280066518317e-22 1.271443063964796e-07
217 1 4.76956 126.683 0.0114007 1.2 0.9999999200951006 1.6201750407495478e-13 2.5911321175285417e-12 1.3282051389533442e-22 7.990214733214462e-08
218 3 6.04772 125.097 5.79286 -1.2 0.9999998788910021 7.656310214632586e-12 8.334439824971372e-12 1.4385057207669006e-22 1.2109301367478393e-07
219 1 4.80015 129.603 1.46432 1.2 0.9999994403932788 7.103575124424921e-11 1.8295728961174841e-10 4.2136605058615464e-18 5.593527212537864e-07
220 2 2.71008 127.757 1.48499 2.4 0.9999999535136379 1.1232069817241508e-11 4.0855885426215644e-12 1.4343265283421682e-22 4.647103757102603e-08
221 3 5.89369 127.69 1.48376 -1.2 0.9999999541062135 4.372911655746611e-12 2.089455258838366e-11 1.866465728295794e-23 4.5868519549281776e-08
222 3 3.73436 131.373 1.47007 -1.2 0.9999998687287339 2.855647749790574e-11 2.6995021178808406e-10 1.780408212356005e-21 1.3097275228015984e-07