ITEM: TIMESTEP
3400
ITEM: NUMBER OF ATOMS
5600
ITEM: BOX BOUNDS xy xz yz pp pp pp
0	7.1235	0
0	201.985	2.3745
0	119.584	0
ITEM: ATOMS id type xu yu zu q pCrystal pDisloC pDisloB pDisloA
1 1 -1.43969 48.4192 -0.977282 1.2 0.0 1.8129518027219574e-66 0.0 1.0
2 1 3.11253 51.8808 1.50414 1.2 0.0 3.588494650617686e-115 0.0 1.0
3 2 0.876214 50.4596 -0.0046676 2.4 2.6611946257710354e-231 0.0 0.0 1.0
4 3 1.71049 49.0587 0.0516607 -1.2 0.0 0.0 0.0 1.0
5 3 -1.04054 53.783 1.41235 -1.2 0.0 0.0 0.0 1.0
6 3 -0.150406 49.9519 -1.21709 -1.2 0.0 0.0 0.0 1.0
7 1 -2.1351 59.3813 3.20652 1.2 3.824745460880573e-06 0.007246654210296063 1.315382413629666e-29 0.9927495210442416
8 3 0.0499744 50.8408 1.20299 -1.2 0.0 0.0 0.0 1.0
9 1 -2.04318 56.3421 4.57333 1.2 1.6412859737634036e-114 2.4419108633616436e-26 0.0 0.9999999999999777
10 2 0.64156 58.4213 4.74601 2.4 0.9952843216435329 2.147690931551364e-46 2.6034837682927664e-79 0.004715678356472347
11 3 -0.897024 58.4057 4.65274 -1.2 3.041664205677354e-18 1.1766900433251859e-36 1.899717045766136e-71 1.0000000000000009
12 3 1.78116 54.578 4.57835 -1.2 4.270732709240636e-256 0.0 0.0 1.0
13 3 1.38682 57.734 3.37103 -1.2 3.44729043978003e-31 3.382883818663608e-68 9.921767781374337e-116 0.9999999999999931
14 3 1.28233 57.635 5.9252 -1.2 1.8783201363316617e-44 5.070998577582352e-100 3.2058026514679614e-163 1.000000000000014
15 1 0.455385 54.0871 2.95877 1.2 0.0 3.7590101051281087e-82 0.0 1.0
16 1 0.851953 50.5487 2.93913 1.2 0.0 6.124128843394563e-124 0.0 1.0
17 2 2.47845 53.1285 4.33872 2.4 1.3191631845475024e-182 0.0 0.0 1.0
18 3 -0.720755 53.2991 4.3975 -1.2 0.0 0.0 0.0 1.0
19 3 2.50129 49.5724 3.00106 -1.2 0.0 0.0 0.0 1.0
20 3 1.92775 52.4678 3.08999 -1.2 0.0 0.0 0.0 1.0
21 1 0.415409 54.5053 -0.294085 1.2 0.0 3.724564986476728e-92 0.0 1.0
22 3 1.89571 52.2699 5.56306 -1.2 0.0 0.0 0.0 1.0
23 1 0.258809 57.1545 1.76348 1.2 2.627877364662282e-53 1.1897221363482332e-19 3.7773696311942215e-158 0.9999999999999979
24 2 -1.71056 55.2253 1.46029 2.4 1.3833340816088905e-103 0.0 0.0 1.0
25 3 1.48728 55.1701 1.48688 -1.2 7.622953090983703e-220 0.0 0.0 1.0
26 3 -0.797959 58.9865 1.74124 -1.2 6.790968254095135e-09 4.870955339956385e-19 1.580040050741354e-41 0.9999999932090312
27 3 -1.15335 56.0406 0.339397 -1.2 3.168028652860964e-127 7.148836548934083e-296 0.0 1.0
28 3 -1.05901 55.8277 2.7674 -1.2 8.485542927728901e-137 0.0 0.0 1.000000000000046
29 1 -2.20712 59.3216 0.23651 1.2 7.734452189001449e-08 0.002703496289911653 7.543314770836044e-29 0.9972964263655602
30 1 2.39872 62.417 1.58901 1.2 0.3588434312498357 0.6411523021591635 3.210683445507463e-22 4.266590995460138e-06
31 2 -0.174438 60.4775 1.78227 2.4 0.9999999999691198 3.0885150250749244e-11 5.635349912473647e-27 4.354207969514961e-23
32 3 1.41601 60.2544 1.75471 -1.2 0.9424425489226459 0.002606542991640968 1.8173727705607423e-22 0.05495090808570745
33 3 -1.28218 64.3107 1.61828 -1.2 0.9999071336490802 9.200163099711316e-05 1.4168020305873453e-23 8.64719920003155e-07
34 3 -0.875798 61.2302 0.597948 -1.2 0.9879253159644548 0.01165995575422881 4.0932654500299044e-18 0.0004147282813142427
35 1 -2.23979 70.2089 3.18801 1.2 0.6501250699920825 0.34987146215487414 5.09949466235238e-35 3.4678530493874885e-06
36 3 -0.767092 61.0484 3.14306 -1.2 0.9874334001710035 0.008366463409058708 8.250079736479338e-19 0.00420013641994304
37 1 -2.31479 67.0252 4.62225 1.2 0.7933685664193298 0.2066311699849496 2.4287616424825672e-33 2.6359571766734807e-07
38 2 0.449124 69.0909 4.74298 2.4 1.0 4.5378725691773796e-23 3.075023679152567e-44 1.0212021283452444e-33
39 3 -1.07552 69.1951 4.69491 -1.2 0.999998955309627 8.524375962960663e-07 7.76398426793817e-33 1.922527695178576e-07
40 3 1.5698 65.1347 4.60455 -1.2 0.9999856599401126 1.3588277288741906e-05 2.906814448514592e-27 7.517826033807362e-07
41 3 1.02277 68.4185 3.52003 -1.2 0.999998861719868 1.003618225743385e-06 6.573275758980687e-33 1.3466190170249025e-07
42 3 1.36024 68.5013 5.95309 -1.2 0.9999985777182612 1.0633724475822667e-06 4.286327369294666e-31 3.589092846926101e-07
43 1 0.152316 65.0462 3.20339 1.2 0.7085179890619495 0.2914817647028061 8.977265619071389e-28 2.4623525119836907e-07
44 1 0.256399 61.7438 4.53181 1.2 0.16130405046389565 0.8385354628263896 1.4230876151995595e-20 0.00016048670971859972
45 2 2.28219 63.6751 4.61175 2.4 0.9999999999999574 4.336045972342124e-14 1.5630168224834184e-32 2.1028141009092915e-31
46 3 -0.944427 63.7852 4.60239 -1.2 0.9996059626310055 0.0003933446629949441 4.988911269708411e-24 6.927060051347019e-07
47 3 1.27778 59.8654 4.63166 -1.2 0.0023032792794728646 2.43739633024464e-07 6.961644470583178e-26 0.9976964769808901
48 3 1.5494 63.0209 3.29634 -1.2 0.9985238572673163 0.001474330026026434 6.840909649767763e-23 1.8127066545330563e-06
49 1 0.123695 64.6401 0.10648 1.2 0.7299426415943392 0.27005734446060414 5.461738646324016e-32 1.394505933410919e-08
50 3 1.67006 63.0056 5.94195 -1.2 0.9997850904138638 0.00021442397417200727 1.543502728089848e-26 4.856119648166654e-07
51 1 0.228083 67.7397 1.58817 1.2 0.7224638301832409 0.2775360536740676 3.189860582149649e-35 1.161426977563911e-07
52 2 -1.98602 65.7573 1.57283 2.4 1.0 3.5659150029488613e-16 4.0874150496701595e-33 1.4842642750443072e-34
53 3 1.28087 65.8244 1.63493 -1.2 0.9999805584659771 1.940240623490302e-05 1.7373864315999192e-27 3.912779181619349e-08
54 3 -1.11831 69.6343 1.58827 -1.2 0.9999898253828748 1.6020152811396799e-06 1.2106195334070603e-30 8.572601844115272e-06
55 3 -1.31777 66.4761 0.282148 -1.2 0.9999960641174261 3.824922217129276e-06 3.2580133341886494e-31 1.1096035653308072e-07
56 3 -1.33821 66.4418 2.92546 -1.2 0.9999712604469054 2.831278843700343e-05 3.904464433206132e-25 4.267646552389698e-07
57 1 -2.40011 70.224 0.0445377 1.2 0.45316078367318224 0.5468358664338557 2.3941598934804837e-36 3.349892957810714e-06
58 1 2.58663 73.0116 1.58747 1.2 0.786171064286408 0.2138212124266192 4.397909947372831e-29 7.723286975829012e-06
59 2 -0.330468 71.0889 1.4682 2.4 1.0 3.8591413427934985e-21 4.988705883800737e-40 3.775199514575031e-31
60 3 1.22801 71.0535 1.63578 -1.2 0.9999918491551445 4.547650350313356e-06 2.941913492938273e-30 3.6031945033719992e-06
61 3 -1.35699 74.8282 1.6474 -1.2 0.9999515526843851 4.7074291512644383e-05 2.057775202296572e-26 1.3730241075675209e-06
62 3 -1.00302 71.7586 0.272386 -1.2 0.999988032765969 7.2126149688511e-06 6.834371251041234e-29 4.7546190587255105e-06
63 1 -2.32153 80.4007 3.14748 1.2 0.7745050428771725 0.2254949509047043 2.099310932188287e-28 6.2181198609692644e-09
64 3 -0.94085 71.834 2.77696 -1.2 0.9999947782760664 3.2972058342624067e-06 1.520251441442439e-29 1.924518093356406e-06
65 1 -2.24516 77.5692 4.58366 1.2 0.9453995904853233 0.05460007962489668 6.529753683348443e-26 3.2988977389409015e-07
66 2 0.372583 79.3965 4.53666 2.4 1.0 1.4749571451011703e-20 3.75465536341568e-39 1.823505950687677e-35
67 3 -1.10642 79.5173 4.59184 -1.2 0.9999438760217519 5.611130411745802e-05 7.666246284158087e-27 1.2674133397904159e-08
68 3 1.50363 75.825 4.33723 -1.2 0.9999891174172566 1.0731404648687599e-05 1.3490283439424075e-29 1.511780931384395e-07
69 3 1.02325 78.918 3.14439 -1.2 0.9998407947216214 0.0001590665689582042 3.746947745597604e-23 1.3870942385035112e-07
70 3 1.08809 78.7723 5.81414 -1.2 0.9999409236206979 5.905311798383959e-05 9.021862525655444e-28 2.326132255928958e-08
71 1 0.190845 75.2219 2.87908 1.2 0.867466863470445 0.1325328228564205 6.692230682686398e-31 3.1367313857922064e-07
72 1 0.118426 72.4494 4.37519 1.2 0.7866278698553943 0.21337093214593394 9.439066086800541e-36 1.1979986712659543e-06
73 2 2.11898 74.3495 4.5317 2.4 1.0 2.6171170907706893e-22 3.3602808586896054e-42 9.024802274041987e-36
74 3 -1.09109 74.3679 4.44025 -1.2 0.9999956392377538 4.239636512062746e-06 4.2834522139551434e-32 1.2112573415983375e-07
75 3 1.11316 70.6282 4.62263 -1.2 0.9999996568661251 5.6482808444758765e-08 4.868602284162486e-37 2.866510644898948e-07
76 3 1.38539 73.6152 3.28694 -1.2 0.9999885030791756 1.053437450457362e-05 3.268111142204274e-28 9.625463199825443e-07
77 1 0.0827479 75.331 0.092802 1.2 0.7940958831759108 0.205903781811831 4.791559890591362e-28 3.3501226465819705e-07
78 3 1.4067 73.7439 5.85445 -1.2 0.999996360231579 3.3442383903703713e-06 8.803803622354237e-30 2.955300270844279e-07
79 1 0.143309 78.3215 1.39503 1.2 0.8070819660871582 0.1929179689014023 2.7135945738925885e-25 6.501143487748005e-08
80 2 -1.96139 76.438 1.5478 2.4 1.0 2.5206286836825447e-17 3.569944271612617e-35 4.690610034146643e-31
81 3 1.24304 76.3073 1.48727 -1.2 0.9998514122827433 0.00014853155057762405 1.8133492899936272e-25 5.616667974296025e-08
82 3 -0.957482 79.8973 1.40152 -1.2 0.9996326478765678 0.00036616203745289973 1.2735284914734603e-21 1.1900859828247895e-06
83 3 -1.25629 76.8772 0.226772 -1.2 0.9998839571806308 0.0001158102361984734 3.326488361414144e-25 2.3258317450313792e-07
84 3 -1.33837 77.1736 2.77661 -1.2 0.9999514252994468 4.855953357796936e-05 2.185647399883429e-27 1.5166972837241637e-08
85 1 -2.39215 80.6248 0.0734115 1.2 0.39496051484761435 0.605039241680918 5.983228497614784e-25 2.434714690810173e-07
86 1 2.35072 83.3015 1.77803 1.2 0.3976581604745528 0.6023384135521844 2.2742266328104506e-21 3.4259732653293563e-06
87 2 -0.351399 81.4478 1.51965 2.4 0.9999999999978115 2.18587383079273e-12 1.0622450518319351e-28 1.5206974621910894e-27
88 3 1.18028 81.3801 1.5361 -1.2 0.9988556921754717 0.0011422071137131328 2.1322676850015377e-22 2.1007108155196064e-06
89 3 -1.345 85.1754 1.62713 -1.2 0.9965209976414843 0.0034590577385881145 1.8677855299217957e-21 1.9944619924060037e-05
90 3 -0.994113 82.1155 0.244876 -1.2 0.9963273570347283 0.0036621978986761143 3.6723000847981315e-21 1.0445066600542604e-05
91 1 -2.27185 90.7328 2.94139 1.2 0.3986444321454296 0.6013554389219561 3.484663875390376e-26 1.2893261086407252e-07
92 3 -1.02127 82.0303 2.85976 -1.2 0.9980412665259365 0.0019564061670677532 8.171207414251064e-21 2.327306992504177e-06
93 1 -2.45664 87.9811 4.83369 1.2 0.40127269745365757 0.5987262732865444 1.2460324155421745e-24 1.029259795903303e-06
94 2 0.337915 89.8548 4.57486 2.4 0.999999999999801 1.9554088422639685e-13 3.3110347641818416e-32 9.35553292044073e-27
95 3 -1.17175 89.8567 4.62098 -1.2 0.9973053735908133 0.0026946049460565623 3.134703713920213e-26 2.1463135853575008e-08
96 3 1.4207 86.1621 4.69826 -1.2 0.996004569891271 0.003992786467964777 1.945272491672442e-23 2.6436407627438273e-06
97 3 0.967796 89.1695 3.20785 -1.2 0.9922135982625351 0.007784537002455204 3.772878505723592e-21 1.864735015377625e-06
98 3 1.11375 89.218 5.8181 -1.2 0.98763317059434 0.012366359767381863 1.5491000833206634e-22 4.696382842730405e-07
99 1 -0.0502168 85.8658 3.17161 1.2 0.3766231040510324 0.6233767521161706 6.552390585474036e-27 1.438327987270784e-07
100 1 0.00720116 82.7512 4.43168 1.2 0.6234169702725727 0.3765827109654456 5.4242767490403776e-24 3.187619872923647e-07
101 2 2.12896 84.7468 4.83361 2.4 0.9999999999990905 9.163097186225566e-13 1.1599729205043983e-31 3.9950643953833435e-27
102 3 -1.02862 84.8753 4.66962 -1.2 0.9945088495562453 0.005490802865343142 9.652746535487314e-22 3.4757841055859133e-07
103 3 1.10256 80.9464 4.59873 -1.2 0.999925753962224 7.358591758674271e-05 1.4126049801870328e-23 6.601201881709478e-07
104 3 1.51721 83.9531 3.53589 -1.2 0.9954004637891211 0.00459888888241615 2.3867340712295238e-22 6.473284671731293e-07
105 1 0.0582332 85.7658 0.163165 1.2 0.5228569062007706 0.47714271658552737 2.9375740892372513e-28 3.772137088375341e-07
106 3 1.58327 84.2032 6.08582 -1.2 0.9988334091627087 0.0011663756446292533 7.875473479419042e-23 2.1519266810961043e-07
107 1 0.15376 88.5287 1.57176 1.2 0.19545179503502136 0.8045411471627391 1.8818883098558924e-23 7.057802235884194e-06
108 2 -2.05318 86.723 1.7352 2.4 0.9999999999996874 3.119938053196338e-13 1.138530875545836e-31 3.0287113129427932e-27
109 3 1.18807 86.6215 1.71424 -1.2 0.9974398067019445 0.0025585506506154115 1.1989445308424699e-24 1.642647439727238e-06
110 3 -1.06495 90.3439 1.39505 -1.2 0.9935295667742119 0.0064689034451371474 8.692550004479012e-24 1.5297806514777424e-06
111 3 -1.27164 87.3424 0.524122 -1.2 0.9959636441035735 0.004032220355798633 1.961525694370673e-24 4.135540621899418e-06
112 3 -1.46541 87.3063 3.11937 -1.2 0.9972388393402247 0.0027602961258359838 2.0021669448046025e-23 8.645339375516286e-07
113 1 -2.35822 90.8036 0.0172366 1.2 0.26586016339944596 0.734137345740037 1.7771726134493146e-25 2.490860523303054e-06
114 1 2.27021 93.564 1.67938 1.2 0.6416361971425638 0.35836370417984825 1.2468837544833765e-22 9.867758469040368e-08
115 2 -0.231237 91.7607 1.43371 2.4 0.9999999999999716 3.560401013398028e-14 2.4546547403576402e-32 7.270626985877131e-29
116 3 1.27062 91.6934 1.49691 -1.2 0.9938333918696918 0.006166549450830002 8.864804745374745e-23 5.867948035683579e-08
117 3 -1.28031 95.6156 1.80128 -1.2 0.9998009505483609 0.00019904940255526757 1.311377732414979e-24 4.908532950064326e-11
118 3 -0.959042 92.2888 0.129724 -1.2 0.9968266041295548 0.003173262391496898 1.3233200549899994e-22 1.3347894194355214e-07
119 1 -2.15101 101.055 3.13536 1.2 0.9881864848109162 0.011813514648111794 7.059542649433823e-31 5.409688676083327e-10
120 3 -0.950397 92.4349 2.73043 -1.2 0.9986580250305644 0.001341972608022752 2.2203918009508513e-25 2.361408284729454e-09
121 1 -2.18747 98.2235 4.68159 1.2 0.9924413468208224 0.0075586526878902455 2.968739263299965e-32 4.912841366627905e-10
122 2 0.457525 100.095 4.64723 2.4 1.0 8.40461387378861e-24 8.790888871174028e-44 9.407651913872258e-40
123 3 -1.06829 100.07 4.69429 -1.2 0.9999994471135346 5.528598201996067e-07 3.326417590889338e-33 2.6643362424290388e-11
124 3 1.44204 96.4231 4.75261 -1.2 0.999992015476822 7.984394945396523e-06 8.77264228867526e-29 1.2822796939208073e-10
125 3 1.15791 99.475 3.29715 -1.2 0.9999803821752693 1.9617582139977023e-05 1.0043201200943669e-25 2.425894688704828e-10
126 3 1.18614 99.4121 5.87731 -1.2 0.9999994144073421 5.855771635205074e-07 5.105182548579035e-34 1.5496095931000432e-11
127 1 0.03926 96.1216 3.23553 1.2 0.9775737158791562 0.022426283705067336 5.215095612902842e-30 4.157816756926848e-10
128 1 -0.0982685 93.1783 4.40733 1.2 0.9069671927380104 0.09303279896593888 1.3074381231656427e-27 8.296043882137866e-09
129 2 2.14581 94.9313 4.69348 2.4 1.0 3.1161775658639744e-19 7.720031945696704e-38 2.7709415733246893e-37
130 3 -1.11564 95.0241 4.60701 -1.2 0.9999812992563301 1.8700722054754784e-05 2.089514663884884e-31 2.1610034490829036e-11
131 3 1.12544 91.2954 4.4967 -1.2 0.9990570654275155 0.0009428943927357465 7.558008151237693e-24 4.017974968903722e-08
132 3 1.33578 94.452 3.39294 -1.2 0.9996249036359868 0.0003750956458737495 4.180994928941038e-24 7.181409013478336e-10
133 1 0.179668 96.0032 0.396755 1.2 0.956249367178337 0.04375063168357947 4.675835893073238e-27 1.138082627275357e-09
134 3 1.51794 94.1615 5.85915 -1.2 0.9999647106365118 3.528872784726169e-05 4.108304105707728e-28 6.35634450658994e-10
135 1 0.0429856 98.8033 1.5382 1.2 0.9849757653587362 0.015024231678488738 1.456503003629357e-26 2.962775461273646e-09
136 2 -1.99155 96.9963 1.74022 2.4 1.0 1.3519371737022543e-19 2.5489273960157406e-38 7.878557444362183e-38
137 3 1.28906 96.9195 1.73701 -1.2 0.9999743342523064 2.5665737689067295e-05 9.719751077508525e-27 1.0009885519327853e-11
138 3 -0.916498 100.599 1.59099 -1.2 0.99983197015551 0.00016802910998306504 1.728357919387249e-23 7.345050616698268e-10
139 3 -1.43476 97.6046 0.434636 -1.2 0.999959512046351 4.048794055614387e-05 3.7378729948914965e-26 1.3094644998376346e-11
140 3 -1.19624 97.7462 2.96692 -1.2 0.9999831952097681 1.6804775210797007e-05 3.0709240350853524e-28 1.5015496558315162e-11
141 1 -2.2992 101.246 0.15893 1.2 0.9564585408198734 0.04354144673913287 6.432660197176253e-26 1.2440986957893772e-08
142 1 7.36121 103.978 1.67836 1.2 0.9673786576182043 0.03262126737312183 2.6636738441490236e-25 7.500867341605579e-08
143 2 -0.206449 102.077 1.69077 2.4 1.0 3.998467323212087e-20 2.9218844856466664e-39 4.2178814298425075e-36
144 3 1.30685 102.058 1.70303 -1.2 0.9999736410207786 2.6358881092472227e-05 1.3293418930051875e-27 9.812921353708944e-11
145 3 3.45419 105.838 1.71916 -1.2 0.9999802450069556 1.9753818110227812e-05 8.776926283676275e-26 1.1749344162113565e-09
146 3 -0.898095 102.835 0.378204 -1.2 0.9998893906561559 0.00011060804055686908 9.452246185532629e-26 1.3032882973982995e-09
147 1 2.36711 111.316 3.21452 1.2 0.9872437426032866 0.01275625702346817 4.6654368606962395e-32 3.732438972240505e-10
148 3 -0.817515 102.765 3.02371 -1.2 0.999997077767069 2.9222059672870322e-06 1.6571016264015985e-30 2.6960834065917638e-11
149 1 2.3321 108.449 4.63917 1.2 0.9882056787355755 0.011794308698863137 1.794930729242732e-25 1.2565556408579741e-08
150 2 4.91248 110.224 4.70172 2.4 1.0 4.537908605962889e-24 7.678413708551912e-44 1.2446543200118244e-41
151 3 3.42922 110.427 4.73521 -1.2 0.9999982544630257 1.7454859138964712e-06 2.0038000549905606e-31 5.106516016887334e-11
152 3 6.19085 106.658 4.56418 -1.2 0.9999935985284881 6.401416176485759e-06 8.160678753576632e-27 5.53365399444665e-11
153 3 5.72942 109.612 3.43353 -1.2 0.9999961539924902 3.845970949860494e-06 6.107704348989292e-30 3.6555433112753236e-11
154 3 5.69724 109.702 6.00262 -1.2 0.9999992874812003 7.125114443648595e-07 3.6398603994454206e-31 7.35170424339527e-12
155 1 4.76578 106.319 3.29753 1.2 0.9860502575777008 0.01394974209477272 1.6687049158926534e-29 3.2752821628234607e-10
156 1 0.0860502 103.35 4.66912 1.2 0.9924399229194663 0.007560077011438306 9.682427675396544e-35 6.90914963853197e-11
157 2 6.93811 105.18 4.62935 2.4 1.0 1.2398782112103358e-24 1.637564615836413e-44 1.220736633149472e-43
158 3 3.74906 105.274 4.67544 -1.2 0.9999993012453555 6.987515820670787e-07 1.6052617908642966e-31 3.0688905712987373e-12
159 3 1.15227 101.539 4.62069 -1.2 0.999998956652722 1.0432892585382634e-06 8.489043214401693e-32 5.801509185542035e-11
160 3 6.19958 104.527 3.38709 -1.2 0.9999975236681956 2.4763096805636927e-06 1.5091107595747732e-29 2.212841896068077e-11
161 1 4.93917 106.046 0.265337 1.2 0.9496678667505102 0.05033212521268259 1.183623782949556e-28 8.036800122975192e-09
162 3 6.13304 104.515 5.97778 -1.2 0.9999995629454861 4.3705273985363255e-07 3.459018665391277e-32 1.7723293851646496e-12
163 1 4.82689 109.153 1.65202 1.2 0.9785663953254644 0.021433597411569853 6.099768227666223e-27 7.262963604300979e-09
164 2 2.76117 107.245 1.76251 2.4 1.0 1.304379580218744e-19 1.6880705891711343e-38 8.841530167358968e-37
165 3 5.94726 107.242 1.77136 -1.2 0.999981169757586 1.8829881015074207e-05 1.5743568167501197e-26 3.613936413644612e-10
166 3 3.87493 110.874 1.68998 -1.2 0.9999946268037522 5.372268735740148e-06 2.2191936651849944e-28 9.275143601941015e-10
167 3 3.42647 107.843 0.442168 -1.2 0.9999888847352882 1.111357295887544e-05 2.9585527380836843e-28 1.6917513478994405e-09
168 3 3.43839 108.022 3.02772 -1.2 0.9999759817564686 2.4017981260388744e-05 9.928151907734633e-26 2.6226775586635536e-10
169 1 2.64878 111.389 0.151979 1.2 0.977788100587381 0.022211899369297714 1.2216233826263694e-33 4.331691962714842e-11
170 1 7.1388 114.16 1.43286 1.2 0.9912375678829365 0.008762432010357316 3.3481317661648883e-32 1.0670261610185962e-10
171 2 4.50654 112.358 1.67711 2.4 1.0 8.773190830708009e-23 1.6012443621891484e-42 2.188378575984248e-40
172 3 6.07477 112.268 1.66778 -1.2 0.9999983386467635 1.6612852440724047e-06 3.0547306919343845e-31 6.799486223532064e-11
173 3 3.40491 115.887 1.56496 -1.2 0.999998123483094 1.8762243797565948e-06 2.005307736273944e-29 2.9252495054213533e-10
174 3 3.88788 112.997 0.33461 -1.2 0.9999909787278716 9.021116657864269e-06 9.099918458036531e-28 1.5547470443263853e-10
175 1 2.23194 121.609 3.06217 1.2 0.9921869708731069 0.007813028911177312 3.393525205886591e-32 2.157209399477076e-10
176 3 3.73073 113.03 2.899 -1.2 0.9999963146897224 3.6852604332266847e-06 3.1288481862260974e-30 4.983732838180863e-11
177 1 2.15469 118.908 4.61701 1.2 0.9955509236332687 0.004449076193447284 1.1308050646090433e-33 1.7328404002301049e-10
178 2 4.96509 120.683 4.51013 2.4 1.0 2.181294479660581e-25 1.251191664445168e-43 2.3901261421864417e-45
179 3 3.4644 120.885 4.49651 -1.2 0.9999986445280292 1.355332311445212e-06 2.9074829868774765e-33 1.3966249568968858e-10
180 3 6.141 116.973 4.54202 -1.2 0.9999989369918546 1.0629437414403436e-06 1.2454137512083423e-31 6.440826901757795e-11
181 3 5.60812 119.986 3.24142 -1.2 0.9999991607745753 8.391921999381647e-07 3.6153515398146575e-33 3.323111655636464e-11
182 3 5.55783 120.033 5.88555 -1.2 0.9999879985522271 1.2000616684740847e-05 2.158408311031604e-27 8.310953005138262e-10
183 1 4.6703 116.446 2.98291 1.2 0.9948032630044973 0.0051967369893278275 1.144022696099963e-37 6.1726037953567e-12
184 1 4.64757 113.691 4.54393 1.2 0.9942956007786643 0.005704398980254999 2.804832510716326e-32 2.4108011553300877e-10
185 2 6.7312 115.441 4.42367 2.4 1.0 4.782552557105098e-26 1.421255673860628e-45 6.154137293911181e-45
186 3 3.54242 115.591 4.47615 -1.2 0.9999997776375514 2.223584394706973e-07 1.0149376794187904e-35 4.013790774669674e-12
187 3 5.67812 111.736 4.64032 -1.2 0.9999993914254053 6.084945275089092e-07 1.3770866294268958e-30 8.006501087196345e-11
188 3 6.01564 114.876 3.14567 -1.2 0.9999972185102765 2.781306832692502e-06 1.0881666574621625e-30 1.8289590797619917e-10
189 1 4.70633 116.398 0.0019838 1.2 0.9860656126216012 0.013934387309813225 1.04140225838294e-34 6.858586061164952e-11
190 3 6.10324 114.725 5.7242 -1.2 0.9999978274740053 2.172483690964112e-06 6.297139602163751e-31 4.230780213064614e-11
191 1 4.71178 119.371 1.59868 1.2 0.992985274161483 0.0070147256148485335 1.1461313313967722e-33 2.236623841342123e-10
192 2 2.62707 117.545 1.47918 2.4 1.0 5.975465027943157e-25 1.3320255561335774e-44 3.3318249943666314e-45
193 3 5.79876 117.498 1.59222 -1.2 0.9999982456354003 1.754345679069723e-06 2.012922959737296e-33 1.891461735767757e-11
194 3 3.69356 121.077 1.4878 -1.2 0.9999930710369573 6.9284376382962125e-06 1.3574680508706748e-30 5.254084077923135e-10
195 3 3.40401 118.002 0.203231 -1.2 0.9999972495836597 2.750336508583383e-06 1.8234873940269598e-33 7.983643543765442e-11
196 3 3.23246 118.183 2.71737 -1.2 0.9999995612091762 4.3877545628985303e-07 1.2521634060561786e-34 1.5372069450677398e-11
197 1 2.24695 121.316 0.077334 1.2 0.9912847079496601 0.008715291918125721 1.3134205146927526e-37 1.322080403028566e-10
198 1 6.9802 124.531 1.34067 1.2 0.9888159768973407 0.011184016948430655 1.8444730199476443e-29 6.154229145979216e-09
199 2 4.30041 122.66 1.50618 2.4 1.0 2.9562101946736433e-25 2.451341649399338e-45 2.3145659044496045e-43
200 3 5.83593 122.434 1.51116 -1.2 0.9999972815134733 2.718370827986567e-06 3.980266996739842e-31 1.1570396562100872e-10
201 3 3.21086 126.353 1.38197 -1.2 0.9999940682627224 5.929284126643416e-06 1.201137868698571e-29 2.453151538341025e-09
202 3 3.67607 123.339 0.255871 -1.2 0.9999965003849939 3.499497153255848e-06 2.537016692192158e-32 1.1784581965177615e-10
203 1 2.34992 131.991 3.09696 1.2 0.9362167740194919 0.06378314703171518 9.94904101318276e-31 7.894879226639021e-08
204 3 3.50312 123.249 2.75905 -1.2 0.9999944879045164 5.511958987722783e-06 2.851802127620874e-30 1.3649156736106012e-10
205 1 2.37245 129.165 4.51145 1.2 0.9855207249136526 0.014479273047909077 1.0123766834967418e-31 2.0384386898512465e-09
206 2 5.09978 131.184 4.57097 2.4 1.0 5.430157997727042e-22 1.0781449552346267e-40 6.950453117452971e-38
207 3 3.52546 131.229 4.63833 -1.2 0.9999982364581176 1.7460446734681609e-06 5.330267413901878e-30 1.7497210012066995e-08
208 3 6.13153 127.247 4.36897 -1.2 0.9999966692742579 3.2767050989225425e-06 6.645470893390973e-27 5.402064017647896e-08
209 3 5.72474 130.448 3.19816 -1.2 0.9999966659262769 3.2939290209674045e-06 4.269680984143433e-29 4.0144705806518476e-08
210 3 5.69164 130.27 5.85776 -1.2 0.9999927221917432 7.27131324382642e-06 1.0917169575965147e-27 6.495014985612194e-09
211 1 4.72138 126.867 2.95319 1.2 0.9889126620620207 0.011087335351386007 1.7737386725547065e-30 2.586596247170488e-09
212 1 4.49996 124.031 4.42977 1.2 0.9958597061607474 0.004140292864932871 4.32053701886897e-27 9.743155233935766e-10
213 2 6.63498 125.801 4.4051 2.4 1.0 6.446120894871242e-23 7.458274535070564e-40 9.205450818258024e-42
214 3 3.42871 125.923 4.47019 -1.2 0.9999980725136182 1.9272184710684027e-06 3.099940645410123e-30 2.6791361435101925e-10
215 3 5.7586 122.129 4.59879 -1.2 0.9999974403594581 2.5588401069276035e-06 9.066148163905601e-29 8.004412098019812e-10
216 3 5.91128 125.019 3.18086 -1.2 0.9999709920921556 2.900567996615415e-05 1.2032055541107258e-26 2.227884896846722e-09
217 1 4.69504 126.873 -0.0926949 1.2 0.9827518493646914 0.01724814891695009 6.188018460354737e-34 1.718362851698776e-09
218 3 6.02025 125.119 5.66803 -1.2 0.9999953245903316 4.672605763753847e-06 3.6376281352529267e-28 2.8039062378712014e-09
219 1 4.67673 129.765 1.5329 1.2 0.9722405353134885 0.0277594464305424 4.194728447123538e-31 1.825597606278816e-08
220 2 2.60597 127.89 1.42752 2.4 1.0 2.6490597342326584e-23 1.2491404340093195e-42 5.530369042075612e-40
221 3 5.85269 127.793 1.43478 -1.2 0.9999976478014598 2.3512866649212984e-06 4.055798114675567e-31 9.118728416319653e-10
222 3 3.65867 131.543 1.61896 -1.2 0.9999973291329524 2.639784752284272e-06 9.620557909164652e-31 3.108229709194322e-08
223 3 3.5051 128.434 0.13861 -1.2 0.9999963076470477 3.681487382021654e-06 3.666972131822085e-30 1.0865576862822887e-08
224 3 3.22303 128.576 2.66172 -1.2 0.9999974129417593 2.585441161421074e-06 7.581092975332241e-31 1.6170794863620909e-09
225 1 2.37106 131.968 0.0212486 1.2 0.9371450631479237 0.06285493230381305 1.3166113419734079e-37 4.548258326449162e-09
226 1 6.94483 134.821 1.59076 1.2 0.8692550411855543 0.13074323323262407 1.338659418923069e-28 1.7255818234260373e-06
227 2 4.4001 133.001 1.543 2.4 1.0 3.4592694090480877e-22 6.002663778187442e-42 2.8718427714612687e-37
228 3 5.94253 132.868 1.64171 -1.2 0.9999981631084398 1.8105197783790843e-06 3.5538200351217866e-33 2.637178233743335e-08
229 3 3.38577 136.666 1.44856 -1.2 0.9999966733607034 3.865297502496908e-07 1.315773689573714e-35 2.9401095497158176e-06
230 3 3.85396 133.56 0.164484 -1.2 0.9999984285365555 1.154611120106418e-06 8.376140699051346e-32 4.168523216799217e-07
231 1 2.29637 142.39 2.77685 1.2 2.6734174137683332e-08 0.3512853253978512 4.922756247264463e-44 0.6487146478679726
232 3 3.77709 133.768 2.74336 -1.2 0.9999946203968512 5.2583402567391096e-06 1.4274062548062288e-30 1.2126289282920534e-07
233 1 2.53509 139.539 4.34684 1.2 0.6421937194657447 0.3578039379534199 1.3503272054839381e-30 2.342580837144598e-06
234 2 4.99989 141.35 4.23791 2.4 1.0 5.343408902323386e-23 1.6920149570547735e-43 7.652460429541683e-24
235 3 3.45478 141.496 4.36534 -1.2 0.06571102748324101 2.754150088726456e-09 6.99031943079162e-37 0.9342889697626143
236 3 6.02225 137.612 4.53138 -1.2 0.9999593817384105 1.5644312473418864e-06 6.812633106168244e-29 3.905383034067921e-05
237 3 5.71368 140.742 2.92599 -1.2 0.9854722693128141 6.309781533755563e-06 2.6639555189442517e-31 0.014521420905649113
238 3 5.62397 140.664 5.46273 -1.2 0.9986451958510344 8.121607745599273e-05 1.4528594983233017e-29 0.0012735880715028063
239 1 4.67933 137.253 2.91461 1.2 0.7805152508005346 0.2194845470351865 6.124203547228956e-34 2.0216428110965752e-07
240 1 4.65694 134.296 4.62304 1.2 0.9202017097846312 0.07979798605418088 3.2110943586613493e-27 3.0416119003888534e-07
241 2 6.65577 136.137 4.45636 2.4 1.0 5.764593454291695e-20 1.223723842297895e-35 1.0070792958102741e-36
242 3 3.50029 136.101 4.50402 -1.2 0.9999957168337869 3.916235578948994e-06 5.973496679815862e-31 3.669306295766413e-07
243 3 5.79975 132.557 4.61278 -1.2 0.9999979633283252 1.805744456631524e-06 1.2066178096288352e-28 2.3092721904951814e-07
244 3 6.03053 135.444 3.21819 -1.2 0.9999939156214952 4.651982131911063e-06 1.0114373024242806e-29 1.4323963663327582e-06
245 1 4.7815 136.748 0.00697184 1.2 0.6510359954966217 0.3489600288672003 8.686795615257774e-34 3.975636183028873e-06
246 3 6.0367 135.405 5.81154 -1.2 0.9999842513284497 1.3770306265329795e-05 4.556599464100085e-26 1.978365290231389e-06
247 1 4.91165 139.98 1.37281 1.2 0.16815673798899522 0.8316822092178532 5.913773684122224e-32 0.00016105279315617538
248 2 2.68924 138.125 1.2887 2.4 1.0 5.2011366612918607e-20 8.130168152291661e-41 2.9722107454376948e-34
249 3 5.87969 138.076 1.40718 -1.2 0.9999914497625643 6.622754109254825e-06 2.853189912440787e-31 1.927483324490095e-06
250 3 3.65085 141.779 1.4332 -1.2 0.0001515082738817397 6.37912149566101e-15 5.63626832114219e-38 0.9998484917261166
251 3 3.39679 138.733 -0.0381372 -1.2 0.9998292345733311 9.420867013839771e-06 1.829857661547016e-27 0.00016134455966201146
252 3 3.38327 138.855 2.62568 -1.2 0.9999788712453946 6.0579737883539595e-06 1.2731302645802081e-31 1.50707808193392e-05
253 1 2.37854 142.165 -0.143626 1.2 6.101064518455887e-09 0.026790929822750727 2.152580741721269e-46 0.9732090640761879
254 1 6.87318 145.127 1.38145 1.2 2.987457337194546e-128 1.4827450803843345e-29 0.0 1.0
255 2 4.38563 143.264 1.3173 2.4 0.9999970382661038 2.116162657224905e-55 2.536763785162343e-80 2.961733894346849e-06
256 3 5.95163 143.158 1.33322 -1.2 4.110897145234555e-15 1.88983148490845e-38 6.047697310518188e-75 0.9999999999999953
257 3 3.50169 146.99 1.36658 -1.2 8.95307028961076e-252 0.0 0.0 1.0000000000000115
258 3 3.81308 143.902 -0.0229345 -1.2 5.331878087674579e-39 2.254950699928014e-101 2.4852265894668947e-158 0.9999999999999983
259 1 1.93926 152.516 1.3445 1.2 0.0 2.2805181499189656e-136 0.0 1.0
260 3 3.74094 143.997 2.52537 -1.2 3.280461002440295e-39 8.586502444732076e-96 1.7236896613010118e-152 1.0000000000000062
261 1 1.8765 150.169 4.68502 1.2 0.0 5.431929264366259e-120 0.0 1.0
262 2 4.0103 150.835 2.75798 2.4 1.074910588969687e-264 0.0 0.0 1.0
263 3 2.77863 151.77 2.91434 -1.2 0.0 0.0 0.0 1.0
264 3 6.23624 148.146 4.3729 -1.2 0.0 0.0 0.0 1.0
265 3 4.97524 151.397 1.65657 -1.2 0.0 0.0 0.0 1.0