ITEM: TIMESTEP
1900
ITEM: NUMBER OF ATOMS
5600
ITEM: BOX BOUNDS xy xz yz pp pp pp
0	7.1235	0
0	201.985	2.3745
0	119.584	0
ITEM: ATOMS id type xu yu zu q pCrystal pDisloC pSF pDisloB pDisloA
1 1 -1.57201 49.7943 -0.777786 1.2 1.0 0.0 0.0 0.0 0.0
2 1 2.94832 52.0497 2.17932 1.2 1.0 0.0 0.0 0.0 0.0
3 2 0.86599 51.3761 0.38527 2.4 0.0 0.0 0.0 0.0 1.0
4 3 2.21678 50.6063 0.649991 -1.2 1.0 0.0 0.0 0.0 0.0
5 3 -1.29761 54.1176 1.6824 -1.2 1.0 0.0 0.0 0.0 0.0
6 3 0.132461 50.647 -0.810853 -1.2 1.0 0.0 0.0 0.0 0.0
7 1 -2.28415 59.7743 3.1704 1.2 1.0 2.8306108613586275e-36 1.3659083641640297e-51 5.325261338245501e-49 4.050397684715923e-18
8 3 0.0264461 51.4527 1.6617 -1.2 1.0 0.0 0.0 0.0 0.0
9 1 -2.19774 56.9395 4.68788 1.2 1.0 0.0 0.0 0.0 6.713423873852262e-144
10 2 0.479819 58.7489 4.67447 2.4 5.294689096713246e-100 2.3465483576370863e-72 3.711419337620248e-120 2.8786130241802164e-99 0.9999999999999998
11 3 -1.07428 58.8199 4.66996 -1.2 1.0 2.2502594998161935e-87 2.5108233845157064e-121 1.2001097218430137e-110 1.9419040726537128e-38
12 3 1.45299 55.1195 4.68148 -1.2 1.0 0.0 0.0 0.0 0.0
13 3 1.15715 58.0696 3.40211 -1.2 1.0 6.4652427114436055e-214 3.6382798570079967e-292 3.5150241681598064e-239 3.8104179774600654e-77
14 3 1.16024 58.0754 5.96024 -1.2 1.0 4.427205123361659e-230 2.99141322e-315 2.9276259904739153e-258 7.905849099856342e-84
15 1 0.0686545 54.6038 3.17287 1.2 1.0 0.0 0.0 0.0 0.0
16 1 0.739559 51.0169 3.38743 1.2 1.0 0.0 0.0 0.0 0.0
17 2 2.1433 53.6864 4.67485 2.4 0.0 0.0 0.0 0.0 1.0
18 3 -1.05913 53.7075 4.70104 -1.2 1.0 0.0 0.0 0.0 0.0
19 3 2.64666 50.5416 3.56825 -1.2 1.0 0.0 0.0 0.0 0.0
20 3 1.53853 53.0023 3.37316 -1.2 1.0 0.0 0.0 0.0 0.0
21 1 0.0293724 54.6594 0.153109 1.2 1.0 0.0 0.0 0.0 0.0
22 3 1.41892 52.8755 5.89183 -1.2 1.0 0.0 0.0 0.0 0.0
23 1 0.152222 57.4272 1.71329 1.2 1.0 0.0 0.0 0.0 7.762702053302283e-107
24 2 -1.97247 55.6044 1.70362 2.4 0.0 0.0 0.0 0.0 1.0
25 3 1.21133 55.5226 1.69048 -1.2 1.0 0.0 0.0 0.0 0.0
26 3 -0.908801 59.2352 1.6756 -1.2 1.0 2.0368142947273228e-79 1.5337715414486218e-107 1.5324571994585227e-95 3.5806653798697144e-33
27 3 -1.33615 56.2419 0.380658 -1.2 1.0 0.0 0.0 0.0 3.724834817670163e-250
28 3 -1.26606 56.2832 2.94507 -1.2 1.0 0.0 0.0 0.0 3.801768971279202e-236
29 1 -2.34684 59.7275 0.175593 1.2 1.0 2.1298405335369115e-39 2.1314556978911075e-55 1.77944527347025e-52 2.0595646927466985e-18
30 1 2.39709 62.6221 1.62374 1.2 0.9999982120520834 6.091306858378267e-10 5.014529242278494e-10 2.5391494482267232e-17 1.786837328578546e-06
31 2 -0.258423 60.7636 1.6714 2.4 0.008240750890305359 3.41173766754397e-05 1.2645510474643613e-11 1.3637090058455236e-14 0.9917251317203557
32 3 1.29149 60.6671 1.68603 -1.2 0.9999999998646274 4.2661083208708913e-19 1.8210110031731425e-28 3.7590232604188863e-31 1.3537513567891885e-10
33 3 -1.29269 64.4179 1.6428 -1.2 0.9999992106177702 2.145502120512504e-09 1.21787468806426e-08 8.49059107405365e-19 7.750579828947961e-07
34 3 -0.976233 61.4055 0.409741 -1.2 0.9996591175260857 2.193256612231896e-08 1.08479597769559e-12 2.6826778525068595e-18 0.00034086054025903034
35 1 -2.23556 70.0591 3.16152 1.2 0.9999999761086203 2.200860442800812e-14 1.3076075249425074e-12 1.7649381379275853e-22 2.3890055155052546e-08
36 3 -0.920746 61.4046 2.95243 -1.2 0.9996725559205645 1.0392255043962188e-07 1.3009456433119078e-11 3.002220655492268e-17 0.00032734014387671763
37 1 -2.18 67.1914 4.64239 1.2 0.9999996392267265 1.1514837665101787e-10 2.2743180431258415e-10 7.426518314622712e-18 3.604306932801668e-07
38 2 0.466502 69.0362 4.64047 2.4 0.999999983107614 1.0376346803793851e-11 4.657616936698199e-13 7.563713524081988e-23 1.688155012595171e-08
39 3 -1.09144 69.1302 4.64929 -1.2 0.9999999737505846 4.922230745259009e-12 5.4701074913696365e-11 1.2385136972191284e-22 2.6189789615940923e-08
40 3 1.50047 65.4002 4.59474 -1.2 0.9999998934796217 3.9464504561701074e-11 1.8211225653200715e-10 2.7796522380322582e-21 1.0629880130961394e-07
41 3 1.13124 68.3827 3.33935 -1.2 0.9999999105673788 2.4066885881540353e-11 2.4947668037052638e-11 5.5969407775196966e-21 8.938360685002525e-08
42 3 1.16471 68.361 5.89212 -1.2 0.9999999549147595 3.959977626754573e-12 5.386880290086095e-12 1.8257124117148327e-22 4.507589895979887e-08
43 1 0.091276 64.9093 3.13406 1.2 0.999999899080083 5.602854394046596e-13 8.742419030169084e-12 2.9726740655602212e-21 1.0091062085825107e-07
44 1 0.101684 62.0418 4.68367 1.2 0.9998681722488484 4.601545712965699e-08 2.1635399700718777e-09 5.9773135609978e-15 0.00013177957215216974
45 2 2.15892 63.8862 4.63168 2.4 0.9999999729104875 4.1585643787695134e-11 1.7262836825779255e-12 2.508703968175978e-22 2.7046198992976856e-08
46 3 -1.02966 63.9858 4.63207 -1.2 0.9999998979083565 2.340007326643249e-11 7.252513603694202e-11 7.641016973236176e-22 1.0199571874153263e-07
47 3 1.16563 60.2246 4.70136 -1.2 0.9999999999494662 9.427433463229247e-20 3.209939281559026e-30 5.697230204325669e-32 5.0527958680476773e-11
48 3 1.4692 63.2007 3.36908 -1.2 0.9999998245451817 3.411015561898158e-11 1.0692190262702436e-11 3.263699517193245e-21 1.754100141964984e-07
49 1 0.0444084 64.8842 0.144348 1.2 0.9999997826921345 1.821962337714497e-12 3.891266477627345e-11 3.12648016710758e-20 2.1726713693854347e-07
50 3 1.47438 63.2638 5.92335 -1.2 0.9999996531780908 2.0516551371654416e-10 9.70329693440185e-11 5.458052055774835e-20 3.4651970754564873e-07
51 1 0.151786 67.7574 1.65036 1.2 0.9999995813625321 1.3313099185777556e-10 6.050858763908714e-10 2.1383997423303818e-17 4.178992562149151e-07
52 2 -1.96397 65.9048 1.63071 2.4 0.9999999692565926 3.547215532413232e-11 2.7305559824455207e-12 2.1933925309796352e-21 3.070519938104969e-08
53 3 1.22046 65.8149 1.62057 -1.2 0.9999999545444154 1.127299045865872e-11 2.7018861483737873e-10 5.623643393919114e-22 4.5174121607828454e-08
54 3 -0.934186 69.56 1.6299 -1.2 0.9999998794454045 5.4236797669045823e-11 4.704838233231047e-10 7.031315506442609e-21 1.2002986906792188e-07
55 3 -1.28939 66.5519 0.335297 -1.2 0.999999881524587 3.9865995120473236e-11 4.14725032182199e-11 1.3139664966821115e-20 1.1839407826442266e-07
56 3 -1.26012 66.5822 2.90505 -1.2 0.999999925164364 3.529749633545927e-12 1.1048999703194548e-11 4.721763774007126e-22 7.482106259086397e-08
57 1 -2.28695 70.0944 0.14446 1.2 0.9999999333469691 1.9338524761978168e-13 9.119161193752168e-12 1.7774138484980785e-21 6.664372210599496e-08
58 1 2.39503 72.9114 1.65813 1.2 0.999999394110118 9.206529953659865e-11 4.292139632305297e-10 1.9772891845320272e-17 6.053686047790729e-07
59 2 -0.238618 71.0397 1.64611 2.4 0.9999999866881241 1.1907056566786029e-11 9.458546315074124e-13 3.1712088984738678e-22 1.3299020673622528e-08
60 3 1.32239 70.967 1.63472 -1.2 0.9999999747391954 1.7570101198610876e-12 1.792194199170628e-11 4.857818146565011e-23 2.5241129835911102e-08
61 3 -1.27763 74.6812 1.60159 -1.2 0.999999797747318 9.170544635859593e-11 7.44148179570899e-10 1.3501865802980377e-20 2.0141682313988381e-07
62 3 -0.925663 71.7289 0.366626 -1.2 0.9999999641887468 1.6627725649235466e-12 2.023809335551313e-11 3.9407863974963164e-22 3.5789348654872415e-08
63 1 -2.29882 80.3132 3.132 1.2 0.9999999621752665 9.758182982964397e-14 5.991424367988634e-12 9.054356510745398e-23 3.781864684971683e-08
64 3 -0.898881 71.7016 2.92061 -1.2 0.9999998542175375 1.8233155176846475e-11 4.895429606804109e-11 1.400682726521603e-20 1.4571527069894536e-07
65 1 -2.18443 77.4591 4.64886 1.2 0.9999986496122878 3.060954065990299e-10 1.2358063425176087e-09 1.7707860094770645e-17 1.348845816614024e-06
66 2 0.427084 79.3105 4.61902 2.4 0.9999999691935959 3.302403381145279e-11 3.2243573197519904e-12 1.2883847359750442e-22 3.07701582515378e-08
67 3 -1.1245 79.3985 4.61942 -1.2 0.9999999081526468 4.84453604679502e-11 6.22571119205946e-10 9.331735211800257e-22 9.117633163537399e-08
68 3 1.48214 75.6786 4.63706 -1.2 0.9999990327537721 3.888456124257037e-10 1.6566023104756545e-09 4.173273785684783e-20 9.65200776016888e-07
69 3 1.10962 78.655 3.32697 -1.2 0.9999997669523529 4.771437564092704e-11 3.2916797347892546e-11 3.6742280809034104e-21 2.3296702201174993e-07
70 3 1.13097 78.6536 5.9031 -1.2 0.9999998846718741 6.294495214036693e-12 1.02366464492623e-11 6.798020718211661e-23 1.1531159874647947e-07
71 1 0.0909671 75.1541 3.12259 1.2 0.9999998273014452 8.841665348748686e-13 1.8089968272420916e-11 8.513478147688526e-21 1.7267958691401201e-07
72 1 0.0761043 72.3037 4.60402 1.2 0.9999990039778158 3.39413944610263e-10 5.45365755437131e-10 3.118471280459274e-17 9.951374037227339e-07
73 2 2.16465 74.1867 4.63701 2.4 0.9999999091045636 6.309118055715047e-11 6.213328947361911e-12 2.149140035310597e-21 9.082613158235606e-08
74 3 -1.03692 74.241 4.63766 -1.2 0.9999997714386492 1.2876208637423916e-10 4.440838798418083e-10 5.645269573855203e-21 2.2798850529643379e-07
75 3 1.14267 70.544 4.64364 -1.2 0.9999998457250185 6.71396620706736e-11 3.178706533370242e-10 6.151249652796695e-21 1.5388997053867776e-07
76 3 1.48545 73.5484 3.35167 -1.2 0.9999998341790853 5.501396027872291e-12 8.001805805158279e-12 5.354749801259691e-22 1.6580740984109763e-07
77 1 0.0718109 75.1357 0.11849 1.2 0.9999999126334759 2.584403106354764e-13 3.237894911638429e-11 4.104518608620693e-21 8.733388172233972e-08
78 3 1.50755 73.5386 5.91704 -1.2 0.99999967797478 2.9839576682380686e-11 3.475374939434259e-11 5.633527314662494e-21 3.219606292266307e-07
79 1 0.170536 78.0401 1.59926 1.2 0.9999991867082471 9.558824735660036e-11 4.0853986784509546e-10 7.05802151536978e-18 8.127876318238308e-07
80 2 -1.95513 76.1745 1.63935 2.4 0.9999999704523366 3.991496930550795e-11 3.5087932863833816e-12 7.695312842601227e-22 2.9504241080905147e-08
81 3 1.23785 76.115 1.58823 -1.2 0.9999999579514911 4.923227821005021e-12 1.4435702292922276e-10 1.39764734134032e-22 4.189922552312401e-08
82 3 -0.920382 79.8353 1.62524 -1.2 0.9999999094036368 1.458966764118985e-11 1.7471014535031594e-10 2.1104649871834445e-22 9.040707054599793e-08
83 3 -1.26027 76.8784 0.356769 -1.2 0.9999998786509705 2.096398115624855e-11 2.7097350156831988e-11 2.4543881753309956e-21 1.2130097197315802e-07
84 3 -1.27125 76.7922 2.9305 -1.2 0.9999996632001552 3.156309614155645e-11 7.213860790300458e-11 6.027611347990936e-21 3.366961389902474e-07
85 1 -2.31329 80.3721 0.0941069 1.2 0.9999999190450904 2.8896899881092975e-13 1.7462846740826332e-11 4.22291653493018e-22 8.093716391904885e-08
86 1 2.39192 83.1922 1.64486 1.2 0.9999996940523053 4.020369564615403e-11 1.760469293056017e-10 5.7120244635652805e-19 3.057314476021342e-07
87 2 -0.264983 81.3341 1.6153 2.4 0.9999999785701876 2.6036112861479885e-11 6.522122050045317e-12 3.1270607624257175e-22 2.139725372618736e-08
88 3 1.29845 81.276 1.64145 -1.2 0.9999999603056007 5.1059037784034545e-12 6.536443634865408e-11 1.8513614363905206e-23 3.9623931555133634e-08
89 3 -1.27882 84.9886 1.66679 -1.2 0.9999999432283564 8.851608035329008e-12 6.801577882446921e-11 1.412239169323923e-23 5.6694781645835304e-08
90 3 -0.942279 81.9893 0.340658 -1.2 0.9999999638514688 1.3127254214365804e-12 1.404912879976092e-11 1.376516754996327e-23 3.6133163136594186e-08
91 1 -2.33386 90.6712 3.14709 1.2 0.999999943418379 2.0927088292709597e-13 5.159862174774052e-12 4.002341038918736e-23 5.657624891169972e-08
92 3 -0.926804 81.9772 2.91537 -1.2 0.9999999358411852 6.808627219128322e-12 3.4099023991750744e-11 1.9861600466877572e-22 6.411790657706905e-08
93 1 -2.2294 87.7938 4.62465 1.2 0.9999998209433146 3.437659495551386e-11 4.173534474244322e-10 3.3112599432357165e-19 1.7860495984551426e-07
94 2 0.380504 89.6343 4.5961 2.4 0.999999974831994 2.274033511785872e-11 1.8044326384941997e-12 5.07334276586862e-23 2.514346637624039e-08
95 3 -1.17179 89.736 4.60754 -1.2 0.9999999382752367 1.3641059250281251e-11 3.5472282333933076e-10 5.5505295039912e-23 6.1356396212769e-08
96 3 1.48269 85.9854 4.64608 -1.2 0.9999999087206938 3.721706205001013e-11 5.75545681310782e-10 2.794185092935821e-22 9.066654360776775e-08
97 3 1.05447 88.9797 3.32129 -1.2 0.9999999441226904 1.1750831245205427e-11 1.3901658556819346e-11 7.722558514784565e-23 5.585165063210737e-08
98 3 1.08306 88.9798 5.88392 -1.2 0.9999999661035788 2.0960878167999685e-12 8.432720294602042e-12 1.1050109286909547e-23 3.388589759254823e-08
99 1 0.101962 85.4711 3.13724 1.2 0.9999999605109164 1.30848539790299e-13 9.595275096573597e-12 2.7727065034342083e-23 3.947936371387745e-08
100 1 0.0617274 82.6298 4.59835 1.2 0.9999997268660916 7.340338918280751e-11 3.7057349064832817e-10 4.5280206213632565e-19 2.7268993278559405e-07
101 2 2.15202 84.4955 4.61701 2.4 0.9999999854224911 1.429462496210858e-11 4.183123208419714e-12 2.825253573994245e-23 1.4559036582268824e-08
102 3 -1.02969 84.5498 4.61459 -1.2 0.9999999634091815 7.672252989996646e-12 3.2199501070888833e-10 3.375559038049272e-23 3.626115438758205e-08
103 3 1.10592 80.8241 4.62534 -1.2 0.9999997981389409 1.5022393256523065e-10 1.3310654062621795e-09 3.6735296786361705e-21 2.0037976538699487e-07
104 3 1.46908 83.8161 3.35329 -1.2 0.9999999512613543 1.3647675493389886e-12 9.390262936485175e-12 5.9159527009523845e-24 4.87278895077561e-08
105 1 0.032253 85.4849 0.129505 1.2 0.9999999648783339 4.322625484299339e-14 6.969434211831454e-12 7.071938433504592e-24 3.5114651140740485e-08
106 3 1.49041 83.8278 5.90407 -1.2 0.9999999466815573 7.108027554653059e-12 6.06288389572026e-11 2.6603937276516197e-22 5.3250708227787526e-08
107 1 0.106832 88.333 1.63058 1.2 0.999999832924325 1.1356227871126045e-11 3.662042036050661e-11 3.824500804465696e-20 1.670277000011863e-07
108 2 -1.97178 86.4557 1.64934 2.4 0.9999999768675567 3.119075218009559e-11 4.741682875283437e-12 1.7063347757322286e-22 2.3096514402852442e-08
109 3 1.21991 86.3964 1.61642 -1.2 0.9999999763900608 1.3252798848101425e-12 2.5728590684298463e-11 1.2463080226975344e-24 2.3582882730142062e-08
110 3 -0.945218 90.1798 1.6592 -1.2 0.9999998600250555 3.999687633641972e-11 1.441602082828057e-10 1.6713028614914007e-22 1.3979078475839822e-07
111 3 -1.30265 87.1472 0.370531 -1.2 0.9999999647184009 3.0004128469261687e-12 7.614059403041549e-12 1.8355300123055942e-23 3.5270981845674143e-08
112 3 -1.29892 87.1592 2.91322 -1.2 0.9999999687805491 2.7000770298885633e-12 3.8328117702562685e-12 1.1599290291637106e-23 3.1212916332580687e-08
113 1 -2.33093 90.6316 0.135081 1.2 0.9999999024454016 2.960809970060427e-13 3.7134455139981694e-12 3.894972800697753e-23 9.755059326675475e-08
114 1 2.35239 93.4906 1.63945 1.2 0.9999995554699116 4.7021893150274345e-11 1.1689449074342262e-10 4.100979142526468e-19 4.4436617644748364e-07
115 2 -0.278295 91.6654 1.64698 2.4 0.9999999717286703 3.410240124201802e-11 3.493518253336752e-12 1.4463899522254184e-22 2.8233733585458685e-08
116 3 1.28562 91.5617 1.60357 -1.2 0.9999999535642546 4.428657329644215e-12 6.587105457007958e-11 6.811272499890919e-24 4.636545158918125e-08
117 3 -1.35805 95.3333 1.62344 -1.2 0.9999998774382169 2.913109192300961e-11 5.454885139074169e-10 1.936244720248636e-22 1.2198716121074e-07
118 3 -0.988651 92.3511 0.38346 -1.2 0.9999999661612483 1.6773387765585895e-12 2.7767910105834133e-12 5.2041817834564276e-24 3.383429362459368e-08
119 1 -2.3247 101.004 3.0811 1.2 0.9999999358146342 1.5106867099168023e-13 1.2624480639429951e-11 5.9660999995418e-23 6.417258773648218e-08
120 3 -0.944773 92.3243 2.96745 -1.2 0.9999999260844936 1.9725550800748162e-11 5.4008660276379646e-11 3.2746159538260106e-22 7.38417686928849e-08
121 1 -2.29314 98.1115 4.61939 1.2 0.9999989931588985 1.4837686316269207e-10 7.682124590271893e-10 4.5647017238871105e-18 1.0059245161331e-06
122 2 0.345467 99.9646 4.53344 2.4 0.9999999791720031 3.394949695570673e-11 8.449323627896971e-12 8.822274613550116e-23 2.0785594482306044e-08
123 3 -1.19801 100.047 4.56028 -1.2 0.99999995284347 6.639389772548412e-12 2.2344801186014253e-10 2.560863090573517e-23 4.692644169079671e-08
124 3 1.40151 96.3056 4.59895 -1.2 0.9999997717759946 7.378655762825511e-11 6.123879526934014e-10 3.7462005260856097e-22 2.2753783807529912e-07
125 3 1.03083 99.3089 3.27141 -1.2 0.9999999514536746 1.4827745981983033e-12 6.774313279611732e-12 7.944705985869068e-24 4.8538073270014424e-08
126 3 1.04322 99.3279 5.83843 -1.2 0.9999999100870024 6.67513293507131e-12 6.825211264271077e-11 1.7733985782011272e-22 8.983807187514665e-08
127 1 0.0274721 95.8221 3.10653 1.2 0.9999998639037198 4.001287800665966e-13 1.6819294873584042e-11 1.1902442500182063e-22 1.360790670756597e-07
128 1 0.0139422 92.9566 4.62988 1.2 0.9999992218384259 1.965803178365857e-10 7.542013058552622e-10 1.5804954510062834e-18 7.772107859051613e-07
129 2 2.11854 94.8107 4.61213 2.4 0.9999999703643572 1.641573863120555e-11 4.1485833771184326e-12 5.924161175688128e-23 2.961507766526186e-08
130 3 -1.08196 94.9005 4.6209 -1.2 0.9999998917092241 2.0457894290898434e-11 6.91581367236849e-10 1.4579398483778167e-22 1.0757873536238005e-07
131 3 1.04783 91.148 4.62085 -1.2 0.9999997980739953 1.0367585369477124e-10 7.13962397388617e-10 5.90063040105287e-22 2.0110836509643095e-07
132 3 1.42849 94.1171 3.33111 -1.2 0.9999999444733222 4.041933142434836e-12 3.675874267839655e-12 2.541860676898507e-23 5.551896034362665e-08
133 1 0.0317678 95.7996 0.114125 1.2 0.9999999577280907 3.268946410509229e-14 6.476020559493309e-12 6.967384466950552e-24 4.2265403563024965e-08
134 3 1.4282 94.1393 5.87628 -1.2 0.999999929743711 5.764471377933825e-12 9.51935177031159e-12 9.189142196017344e-23 7.024099917000213e-08
135 1 0.0776576 98.6868 1.5114 1.2 0.9999994435417915 7.68861944569716e-11 4.369305936249658e-10 3.863368030565187e-19 5.559443935344052e-07
136 2 -2.03629 96.8378 1.62699 2.4 0.9999999694682917 2.7925440876422466e-11 9.781891111026938e-12 2.0458204955526917e-22 3.0493998401793805e-08
137 3 1.14282 96.7513 1.612 -1.2 0.9999999574268762 6.04308266410076e-12 2.0704441332103854e-10 1.034139193114063e-23 4.236004055503046e-08
138 3 -0.963334 100.489 1.56197 -1.2 0.9999998657874622 4.1747305367627395e-11 2.6622384145241385e-10 1.0523648957393358e-22 1.3390456134269892e-07
139 3 -1.35374 97.5075 0.326913 -1.2 0.999999928130916 5.682327666237893e-12 9.686834031401502e-12 4.973565416450555e-23 7.185371051222933e-08
140 3 -1.34727 97.4756 2.91624 -1.2 0.9999998790542031 1.032165288013701e-11 2.4277341065788856e-11 1.8140018437375934e-22 1.209111965943628e-07
141 1 -2.37737 100.935 0.0665012 1.2 0.9999999667375903 3.808058937165242e-14 1.6925381061849299e-12 2.8801524497676988e-24 3.3260672304700195e-08
142 1 7.06981 103.826 1.51966 1.2 0.9999998515345383 2.740471378667243e-11 1.1480369960770424e-10 4.8344481790388786e-20 1.4832325982521376e-07
143 2 -0.303355 101.983 1.54688 2.4 0.9999999781935005 2.3370434787854302e-11 5.587297574438406e-12 3.2389353120466345e-23 2.1777544907233864e-08
144 3 1.26032 101.919 1.57026 -1.2 0.9999999237699657 5.755652599295646e-11 6.927957063080289e-10 2.044577577475991e-22 7.547968461483411e-08
145 3 3.39593 105.626 1.54381 -1.2 0.9999999405026597 1.3083376079453379e-11 7.831689866375171e-11 2.4483713258487155e-23 5.940594326770359e-08
146 3 -0.995603 102.633 0.28257 -1.2 0.9999999748978464 2.0095425685071284e-12 1.0678375362092572e-12 1.6754466665959502e-24 2.5099082857644736e-08
147 1 2.38211 111.318 3.01339 1.2 0.9999999900434989 9.891334057798358e-15 1.2970087859900313e-12 3.646543998863549e-24 9.955198404957716e-09
148 3 -0.99052 102.625 2.83988 -1.2 0.9999999401044278 2.883198863104154e-12 1.5058683510171213e-11 2.068536734576859e-23 5.987762346143335e-08
149 1 2.43579 108.458 4.45804 1.2 0.9999999000814992 1.1114007299654546e-11 1.6068876192623466e-10 8.569627877938483e-20 9.974670317321408e-08
150 2 5.10248 110.295 4.52455 2.4 0.9999999917907871 6.682846135670377e-12 1.1268981369879566e-11 3.1132077030567417e-23 8.19126112393437e-09
151 3 3.54882 110.387 4.48606 -1.2 0.9999999867179693 4.647802550525961e-13 1.6655072249112142e-11 5.924611945701685e-25 1.3264910966105725e-08
152 3 6.11974 106.644 4.4953 -1.2 0.9999999688923262 3.79713806625681e-12 6.9019084369313e-11 8.021653315437474e-24 3.103485055999517e-08
153 3 5.78927 109.642 3.27085 -1.2 0.9999999820062918 5.342158918330264e-13 6.145728122887364e-12 3.3207169645350746e-24 1.798702159017767e-08
154 3 5.7433 109.642 5.80626 -1.2 0.9999999822552341 1.4295489745784611e-12 1.616165859866617e-11 2.453986260155374e-23 1.772717945206489e-08
155 1 4.79588 106.126 3.00956 1.2 0.999999985166603 1.703944630493386e-14 2.729134407094905e-12 2.6187275352085232e-24 1.4830646589268154e-08
156 1 -0.0417552 103.27 4.54021 1.2 0.999999703042431 4.3442418953316176e-11 6.263315155059076e-10 1.1651825981782161e-18 2.962877982043964e-07
157 2 6.80994 105.135 4.51878 2.4 0.9999999940713025 5.7522434359564165e-12 4.166309772449072e-12 2.3857678087619588e-23 5.918779376934274e-09
158 3 3.60536 105.203 4.51114 -1.2 0.9999999887522117 1.483262216396197e-12 8.027474121098269e-11 1.9004585076539936e-24 1.1166036359137531e-08
159 3 1.02787 101.453 4.54426 -1.2 0.9999999085326743 2.735970123193465e-11 6.525352187603198e-10 2.8930697618163748e-22 9.078742767845579e-08
160 3 6.12274 104.455 3.24939 -1.2 0.9999999747396381 1.5588998294745605e-12 1.026511089121793e-11 1.4600577865026933e-23 2.524853978044498e-08
161 1 4.74255 106.139 0.0287511 1.2 0.9999999895691909 6.8741799350785706e-15 7.676923786928601e-13 3.3309099515312574e-25 1.0430029315111017e-08
162 3 6.11715 104.482 5.78572 -1.2 0.9999999756003123 1.5287616288941395e-12 3.3297012418722365e-11 3.259601304417227e-23 2.4364865267024146e-08
163 1 4.83758 108.986 1.54269 1.2 0.9999999493164575 4.057682399991964e-12 2.747165221962356e-11 6.874925108872464e-21 5.065201516139643e-08
164 2 2.73216 107.137 1.51824 2.4 0.9999999937611648 3.5882023308370393e-12 7.433777377593065e-13 2.9063670642944785e-24 6.23450349219906e-09
165 3 5.91898 107.077 1.51375 -1.2 0.9999999887149891 2.7945743967984657e-12 4.662104142559987e-11 1.7627601605628996e-24 1.1235595242442323e-08
166 3 3.73811 110.804 1.50223 -1.2 0.9999999710241324 9.057198364534449e-12 8.710440027760224e-11 1.45579100660245e-23 2.887971058055332e-08
167 3 3.42024 107.758 0.2211 -1.2 0.9999999731204192 2.0885582620295377e-12 2.777130317783733e-12 8.704680350682076e-24 2.6874721667240934e-08
168 3 3.4107 107.834 2.78309 -1.2 0.9999999835398926 9.685542020514343e-13 1.1437532307421453e-12 2.0113538919208495e-24 1.64579888775778e-08
169 1 2.37609 111.265 -0.00432472 1.2 0.9999999932078594 5.16132616739988e-15 4.367573387753462e-13 8.59711535534257e-25 6.791702417813542e-09
170 1 7.10092 114.153 1.51648 1.2 0.9999998715940323 3.326215285708869e-11 1.2794500190486785e-10 1.9754203380076922e-19 1.2824475398281063e-07
171 2 4.39809 112.282 1.50847 2.4 0.9999999914674333 4.8571978724177145e-12 8.897690539553118e-13 5.392230973097818e-24 8.526816195734278e-09
172 3 5.94847 112.211 1.50394 -1.2 0.9999999837330893 3.588003243085208e-12 3.869368493920401e-11 5.1137479223135694e-24 1.6224623444611816e-08
173 3 3.33176 115.97 1.50212 -1.2 0.9999999308365346 4.6150117189734036e-11 3.6871707810767387e-10 5.569199185699255e-22 6.874859693376997e-08
174 3 3.72797 112.94 0.240578 -1.2 0.9999999865355715 2.660940438132562e-13 6.717590595477186e-13 5.109661716772023e-25 1.3463492440734528e-08
175 1 2.33761 121.611 2.93018 1.2 0.9999999639981503 2.5681570904445436e-13 1.5016597040553525e-11 1.3838091304089254e-21 3.598658295268367e-08
176 3 3.742 112.967 2.77906 -1.2 0.9999999863122118 1.001738212051777e-12 1.488567949114726e-12 4.133679222985298e-24 1.3685304235799203e-08
177 1 2.41634 118.773 4.49334 1.2 0.9999998808893982 2.4905878091126174e-11 1.9881119144739046e-10 8.576447158958755e-19 1.1888688018090588e-07
178 2 5.05503 120.593 4.46456 2.4 0.9999999930198555 2.21888990334841e-11 2.4258319179483013e-12 2.0431241406677994e-22 6.955530852568696e-09
179 3 3.504 120.69 4.46947 -1.2 0.9999999747588795 3.451226146407276e-12 1.027877090587641e-10 1.0242907568895313e-22 2.5134880471194623e-08
180 3 6.10584 116.941 4.48398 -1.2 0.9999999523322268 2.775552858798848e-11 3.959459599010038e-10 6.007505239832726e-22 4.7244066640241716e-08
181 3 5.74274 119.903 3.20158 -1.2 0.9999999696884384 5.038551270386924e-12 2.998500960191327e-11 3.5569718345606876e-22 3.027653998267796e-08
182 3 5.74389 119.955 5.77113 -1.2 0.9999999753903407 2.7540630648571184e-12 4.3716443032373504e-11 2.610496606011371e-22 2.4563194166876157e-08
183 1 4.75513 116.423 2.97622 1.2 0.9999999852717847 3.5292824756150747e-14 2.9437595858448905e-12 2.5262226469798623e-23 1.4725240001576408e-08
184 1 4.66527 113.572 4.51875 1.2 0.9999999115932456 9.346270023834898e-12 1.0925504079470073e-10 6.868864628749215e-20 8.828814900427887e-08
185 2 6.77179 115.466 4.48856 2.4 0.9999999918846072 1.2886555195212857e-11 4.209581415258608e-12 1.8851774797388694e-22 8.098303167086369e-09
186 3 3.57836 115.528 4.47889 -1.2 0.9999999919297611 3.9899494543776033e-13 2.1871934824497775e-11 1.2584935852952496e-24 8.047964409595943e-09
187 3 5.7585 111.785 4.5446 -1.2 0.9999999631536917 6.449349694280109e-12 2.1830043260220667e-10 6.297911188154e-23 3.662155371322043e-08
188 3 6.08923 114.776 3.21289 -1.2 0.9999999699081897 2.866047093726508e-12 1.80859337772828e-11 1.0638539897138113e-22 3.0070859011269505e-08
189 1 4.74508 116.465 -0.0201265 1.2 0.9999999758625413 1.4249349707310221e-13 3.91484589230164e-12 1.4034889048103446e-22 2.4133399906285896e-08
190 3 6.08065 114.767 5.7637 -1.2 0.9999999786776803 2.6193657110658897e-12 9.026230973279655e-12 3.8769019678895093e-23 2.1310668609982884e-08
191 1 4.76092 119.306 1.49106 1.2 0.9999998371459019 1.0584257652606616e-10 3.8856288165271034e-10 2.2631065056391512e-18 1.6235969955651025e-07
192 2 2.67783 117.459 1.48628 2.4 0.9999999918891973 7.89580986673478e-12 7.066807061567803e-13 3.11813285883165e-23 8.10220102623311e-09
193 3 5.8738 117.369 1.49816 -1.2 0.9999999688340365 1.196946697260259e-11 1.1392092439467536e-10 1.6856311628573484e-22 3.10400692816141e-08
194 3 3.76393 121.125 1.46383 -1.2 0.9999999521703987 5.136200546191548e-11 6.544824744049329e-10 2.0720860032137755e-21 4.7123763016862745e-08
195 3 3.37879 118.107 0.212522 -1.2 0.9999999636025095 5.989022403194943e-12 4.065851057370522e-12 8.610589168059466e-23 3.6387429389769445e-08
196 3 3.35387 118.149 2.75751 -1.2 0.9999999740882696 5.914036521468051e-12 7.461949928056048e-12 1.7004211901574694e-22 2.589836095299729e-08
197 1 2.40875 121.641 -0.0242297 1.2 0.9999999846305646 7.466790134819558e-14 5.092327905609539e-12 1.2715655915451629e-22 1.536427134207829e-08
198 1 7.08114 124.429 1.49085 1.2 0.9999998455922839 6.091736191701366e-11 2.3986760358534786e-10 3.185617788577044e-18 1.5410692434312493e-07
199 2 4.43651 122.617 1.47943 2.4 0.9999999945153064 8.807856310331397e-12 1.6075898068555084e-12 7.402151831022174e-23 5.474273627971653e-09
200 3 5.98948 122.525 1.48086 -1.2 0.9999999862970751 1.596147489392739e-12 7.250365886016286e-11 2.5861363041818512e-23 1.3628829969350523e-08
201 3 3.36937 126.245 1.44391 -1.2 0.9999999289504966 6.086405740335932e-11 6.739737027589251e-10 4.771751043598023e-21 7.03146703911027e-08
202 3 3.75085 123.288 0.211952 -1.2 0.9999999822223321 3.2710575005802153e-12 6.413538341509142e-12 1.177870180196993e-22 1.7767984933080982e-08
203 1 2.35613 131.883 2.94819 1.2 0.9999999419396408 2.848291926887969e-13 1.5699808799862595e-11 9.968071932754687e-22 5.804437045532671e-08
204 3 3.70999 123.287 2.74546 -1.2 0.9999999647759126 3.0355353833801797e-12 1.882489314005663e-11 3.7811706076894885e-22 3.520223395049286e-08
205 1 2.41732 128.996 4.42281 1.2 0.9999996699519765 1.2215213966827393e-10 5.596835908200978e-10 6.466675803250648e-18 3.2936618667279374e-07
206 2 5.04565 130.837 4.42537 2.4 0.9999999811680313 3.113047978288739e-11 4.908667420668546e-12 2.3723766583496325e-22 1.879592764849138e-08
207 3 3.48293 130.92 4.40638 -1.2 0.9999999394566441 5.110880210976059e-11 6.827154041286686e-10 1.6171289272964593e-21 5.980952836334803e-08
208 3 6.08375 127.24 4.42881 -1.2 0.9999998692821804 8.14464691487245e-11 5.475583941397766e-10 1.1776134695718792e-20 1.3008881262598392e-07
209 3 5.73231 130.201 3.15037 -1.2 0.999999946368598 5.426586051178473e-12 8.446140740455007e-12 1.7464063448866868e-22 5.361752737225865e-08
210 3 5.7494 130.182 5.6923 -1.2 0.9999999294732294 1.0337175611651569e-11 2.0160063174463838e-11 1.0256593012796138e-21 7.04962738433569e-08
211 1 4.7343 126.753 2.93458 1.2 0.9999999753771064 5.160597081643187e-14 5.376069714690691e-12 3.7946926848198476e-22 2.461746278498401e-08
212 1 4.6393 123.914 4.48382 1.2 0.9999998046575261 7.841597647657178e-11 1.356473409949536e-10 2.509360852326239e-18 1.951284093063749e-07
213 2 6.75324 125.749 4.43667 2.4 0.9999999928556775 1.4228503715158803e-11 2.9812940064978167e-12 2.0228328517751025e-22 7.12711203467251e-09
214 3 3.55385 125.824 4.45159 -1.2 0.9999999851439363 1.5503316785839002e-12 3.4538753662073025e-11 3.416171599862352e-23 1.4819981090388818e-08
215 3 5.72416 122.1 4.44572 -1.2 0.99999993086854 3.9616238304507156e-11 4.171992564433607e-10 2.893137263796756e-21 6.867464189024104e-08
216 3 6.06755 125.077 3.16436 -1.2 0.9999999601450229 6.7671104303988104e-12 2.4444655896028898e-11 1.0265895434602352e-21 3.982377085452829e-08
217 1 4.7772 126.71 -0.0547226 1.2 0.9999999765852479 6.443672973649132e-14 8.47938247335917e-12 1.955493834531749e-22 2.340621444394216e-08
218 3 6.0609 125.074 5.69647 -1.2 0.9999999624348329 2.475017418429425e-12 1.0958621576720819e-11 3.114107799696004e-22 3.7551726643777356e-08
219 1 4.8247 129.566 1.41999 1.2 0.999999686878272 5.733051135814522e-11 2.374418302420168e-10 2.591151452661718e-18 3.1282695393813334e-07
220 2 2.70558 127.749 1.42544 2.4 0.9999999903868115 1.7978115457669077e-11 1.8493733091471414e-12 9.380085595257456e-23 9.593354399316116e-09
221 3 5.90289 127.665 1.41626 -1.2 0.9999999826406523 3.3075073630247524e-12 1.0037978614004566e-10 6.189560397150197e-23 1.7255653485314642e-08
222 3 3.71285 131.382 1.42388 -1.2 0.9999999155101299 4.0495312590819863e-11 7.357773656580621e-10 2.351099870852118e-21 8.371359875425983e-08