ITEM: TIMESTEP
4600
ITEM: NUMBER OF ATOMS
5600
ITEM: BOX BOUNDS xy xz yz pp pp pp
0	7.1235	0
0	201.985	2.3745
0	119.584	0
ITEM: ATOMS id type xu yu zu q pCrystal pDisloC pDisloB pDisloA
1 1 -1.33106 48.488 -0.828775 1.2 0.0 2.3477600014377037e-40 0.0 1.0
2 1 3.01439 51.5487 1.78029 1.2 0.0 2.7801404472508135e-111 0.0 1.0
3 2 1.04263 50.2468 -0.00530817 2.4 3.229007624320776e-272 0.0 0.0 1.0
4 3 1.90074 48.9244 0.247841 -1.2 0.0 0.0 0.0 1.0
5 3 -0.89162 53.5826 1.51482 -1.2 0.0 0.0 0.0 1.0
6 3 0.022377 49.9846 -1.26614 -1.2 0.0 0.0 0.0 1.0
7 1 -2.10121 59.4102 3.19725 1.2 5.719110498775979e-05 0.1985234361540114 3.1468431700239955e-38 0.8014193727409942
8 3 0.106911 50.533 1.25339 -1.2 0.0 0.0 0.0 1.0
9 1 -2.10097 56.2405 4.43685 1.2 2.171861885573553e-121 3.156186971525784e-30 0.0 1.0
10 2 0.606684 58.2644 4.61458 2.4 0.9999999684931145 7.771636584215254e-48 1.4788520909832433e-78 3.150688631558602e-08
11 3 -0.940498 58.3965 4.57662 -1.2 1.3610283931618863e-12 9.53078016678566e-30 2.350180170446691e-63 0.9999999999986375
12 3 1.5409 54.4841 4.43611 -1.2 2.0073842620422447e-259 0.0 0.0 1.0
13 3 1.2781 57.5178 3.25065 -1.2 3.83084370486038e-41 2.6268964039383394e-92 3.374848370167242e-151 0.9999999999999899
14 3 1.3336 57.6124 5.87152 -1.2 7.085698952431616e-38 2.8419410212317616e-88 6.30003802520402e-148 0.9999999999999909
15 1 0.267567 54.1231 2.99564 1.2 0.0 1.5530008449796832e-84 0.0 1.0
16 1 0.842444 50.396 3.01216 1.2 0.0 5.265818622837496e-113 0.0 1.0
17 2 2.29455 53.0148 4.39507 2.4 1.7709844856865393e-193 0.0 0.0 1.0
18 3 -0.935832 53.1087 4.48552 -1.2 0.0 0.0 0.0 1.0
19 3 2.68297 49.6743 2.94074 -1.2 0.0 0.0 0.0 1.0
20 3 1.69792 52.2771 3.12753 -1.2 0.0 0.0 0.0 1.0
21 1 0.376136 54.1794 -0.103283 1.2 0.0 6.399720390811533e-89 0.0 1.0
22 3 1.42897 52.3752 5.70693 -1.2 0.0 0.0 0.0 1.0
23 1 0.254416 57.076 1.66812 1.2 1.015426285580774e-56 5.889565425128161e-16 1.1873300166055934e-184 0.9999999999999862
24 2 -1.68197 54.9999 1.52518 2.4 1.0367433147341292e-127 0.0 0.0 1.0
25 3 1.49292 54.9487 1.63408 -1.2 7.225609207353471e-242 0.0 0.0 1.0
26 3 -0.82023 58.9496 1.57154 -1.2 7.67618505033377e-09 5.990774741627959e-20 3.4599207004104426e-46 0.9999999923238151
27 3 -1.19536 55.7975 0.333756 -1.2 2.405567078801899e-171 0.0 0.0 1.0
28 3 -1.00787 55.6628 2.86988 -1.2 3.322555317826747e-142 0.0 0.0 0.9999999999999817
29 1 -2.21581 59.3543 0.0846593 1.2 8.145230043017848e-07 0.004046638878395109 2.5774923127893003e-34 0.995952546598602
30 1 2.46793 62.1624 1.63054 1.2 0.41787644935458607 0.5821209355937459 1.1044619974182394e-27 2.6150516706320894e-06
31 2 -0.125576 60.4702 1.66381 2.4 1.0 2.7794256291259626e-16 9.35655796355458e-34 9.181344710517421e-27
32 3 1.43803 60.3359 1.63144 -1.2 0.9963939083989971 0.0003764435461783936 1.0132517937664441e-22 0.0032296480548214186
33 3 -1.32994 64.1745 1.61513 -1.2 0.9999891506563688 6.80289927258084e-06 1.11080902427933e-26 4.046444356167428e-06
34 3 -0.713105 61.0266 0.336156 -1.2 0.9992506818135081 0.0004396190948008752 3.457828382223821e-21 0.00030969909168528467
35 1 -2.15642 69.9578 3.22221 1.2 0.7090703980116468 0.2909294642583061 1.4552938742234036e-33 1.3773004575854072e-07
36 3 -0.909796 61.1778 2.8093 -1.2 0.999800940037718 0.00016680883123728254 1.1821144159390704e-27 3.225113104805144e-05
37 1 -2.20578 66.8924 4.60458 1.2 0.519050243131072 0.4809492815308819 1.0053611086705759e-28 4.753380471373196e-07
38 2 0.465305 68.97 4.6173 2.4 1.0 8.845248135234719e-17 3.044106571630098e-35 8.267755724707144e-35
39 3 -1.07812 69.0544 4.75305 -1.2 0.9999680756217441 2.995389388580901e-05 8.86562411030121e-26 1.970484374297338e-06
40 3 1.58155 65.1494 4.49418 -1.2 0.9999889203586351 5.824833220584731e-06 8.927796871442423e-29 5.254808137793626e-06
41 3 1.10756 68.238 3.39891 -1.2 0.9999936751616688 5.660336103345385e-06 1.291347749024354e-29 6.645022341116319e-07
42 3 1.12471 68.1541 5.92023 -1.2 0.9999757635304272 2.3450557928066632e-05 4.182896318257283e-27 7.859116458622189e-07
43 1 0.224452 64.472 3.01396 1.2 0.5596552676183122 0.4403447026531853 1.3166601427776326e-35 2.9728501141012703e-08
44 1 0.149162 61.7281 4.56472 1.2 0.25916739148528 0.7408092467724353 5.90829199605462e-29 2.336174228157796e-05
45 2 2.21351 63.5626 4.52583 2.4 1.0 1.584393367360637e-16 8.648119092866753e-37 4.0770845178622654e-36
46 3 -0.982206 63.73 4.54876 -1.2 0.999960395290249 3.655044755539318e-05 6.781103246648945e-30 3.0542621937972135e-06
47 3 1.23808 59.7905 4.55034 -1.2 0.03666503337085179 1.955838254535992e-09 9.004398180031583e-35 0.9633349646733141
48 3 1.45453 62.9092 3.29697 -1.2 0.9999645203164024 3.339859899677951e-05 2.2232910303966105e-30 2.0810845951670057e-06
49 1 -0.0560901 64.8415 0.00938199 1.2 0.34530137596479377 0.6546983837868662 1.3184036204590014e-31 2.4024834193281543e-07
50 3 1.52439 62.868 5.762 -1.2 0.9999656480895339 2.9330784871790816e-05 2.608412208632483e-28 5.021125594422594e-06
51 1 0.110344 67.5295 1.56432 1.2 0.4453480595647698 0.5546501398310886 8.455566165008052e-28 1.8006041396169e-06
52 2 -2.01662 65.6261 1.67957 2.4 1.0 1.0420494212157835e-15 1.0163316104884944e-33 2.823403395738782e-37
53 3 1.24134 65.5336 1.68534 -1.2 0.999985167572812 1.2410077665117928e-05 7.2188004088553515e-28 2.422349528670757e-06
54 3 -1.01076 69.4182 1.63162 -1.2 0.9999816984239384 3.505726228345558e-06 1.7502560713503933e-26 1.4795849837125353e-05
55 3 -1.45064 66.3144 0.344521 -1.2 0.9999680583770957 2.9187473013082513e-05 1.7657528660664053e-26 2.7541498927391398e-06
56 3 -1.26675 66.3572 2.93363 -1.2 0.9999815749339355 1.7244550311556866e-05 7.120316615634116e-27 1.1805157588568415e-06
57 1 -2.35788 69.9501 0.0649214 1.2 0.5961663149816668 0.40383341845614035 5.588401773887112e-33 2.6656218914111815e-07
58 1 2.43337 72.985 1.45252 1.2 0.6831075615768955 0.31688947089725433 2.343538779288055e-28 2.9675258446357267e-06
59 2 -0.239023 70.9137 1.62067 2.4 1.0 1.1846288983343415e-17 2.4650508938761472e-34 1.2796700553590213e-34
60 3 1.26984 70.7762 1.63596 -1.2 0.9999832045177358 1.3149255178838237e-05 1.3710075486436881e-27 3.646227090218358e-06
61 3 -1.21661 74.6282 1.4489 -1.2 0.9999730210042653 7.985419158821463e-06 3.63435115658957e-27 1.8993576574855472e-05
62 3 -0.965211 71.6223 0.444825 -1.2 0.9999805259860665 1.2421994635483486e-05 1.3945733059152698e-25 7.052019302688441e-06
63 1 -2.133 80.5099 3.1111 1.2 0.7625277411840787 0.2374683920053101 3.509103869039249e-33 3.866810609607325e-06
64 3 -0.926744 71.5488 3.00799 -1.2 0.9999687032172689 1.616369660298673e-05 9.051431674568569e-25 1.5133086132387508e-05
65 1 -2.25472 77.5297 4.5057 1.2 0.8047021976115573 0.1952730222293525 1.2022677853159661e-29 2.4780159092223685e-05
66 2 0.469924 79.4999 4.49095 2.4 1.0 5.274001313379134e-22 3.963126232400107e-43 1.3802315720557686e-34
67 3 -1.03587 79.5545 4.55787 -1.2 0.9999923065598116 6.953951116251977e-06 4.246330782820134e-32 7.39489075735857e-07
68 3 1.54102 75.6284 4.5737 -1.2 0.9999832919930198 5.679841962061474e-06 4.186035004089982e-28 1.1028165018804514e-05
69 3 1.16706 78.7556 3.18889 -1.2 0.9999729707729647 2.5322187952923393e-05 1.770605383850835e-29 1.707039082988739e-06
70 3 1.15253 78.7398 5.73477 -1.2 0.9999885100955481 1.1023888512603604e-05 6.572990683715159e-32 4.6601594239773966e-07
71 1 0.120307 75.1965 3.08567 1.2 0.842455371648713 0.15754422475145832 7.150364751470151e-33 4.035998233922511e-07
72 1 0.235951 72.2854 4.65157 1.2 0.7656925846650172 0.2343070769466378 4.984525527235567e-34 3.383883518697249e-07
73 2 2.22039 74.14 4.47738 2.4 1.0 2.8086692228325954e-21 8.055267474029116e-41 5.129878044562873e-35
74 3 -0.981986 74.288 4.50563 -1.2 0.9999938382012044 4.28916444039914e-06 1.2842379394588786e-32 1.872634353641646e-06
75 3 1.11056 70.3972 4.79077 -1.2 0.9999955844610894 1.6167632671993585e-06 1.3332254188637295e-29 2.798775638633019e-06
76 3 1.52055 73.4489 3.25799 -1.2 0.9999906965053271 6.012725394549148e-06 8.090609192729484e-31 3.2907692761023417e-06
77 1 0.0251485 75.1918 0.0876095 1.2 0.7373787623193925 0.2626083341903719 2.6361078628952423e-27 1.2903490239547789e-05
78 3 1.59287 73.49 5.8029 -1.2 0.9999915012117151 6.521356829876077e-06 1.7450144835624052e-30 1.9774314538942122e-06
79 1 0.0752565 78.1116 1.36969 1.2 0.8184445755558537 0.1815473820574532 2.9415566826898997e-27 8.042386696360017e-06
80 2 -1.95119 76.103 1.45433 2.4 1.0 2.244888223675677e-19 2.027168372180519e-36 8.397350728815263e-33
81 3 1.24148 76.0888 1.50698 -1.2 0.9998729327398496 0.00012282080291912192 1.1060405108774082e-25 4.246457232428615e-06
82 3 -0.882189 80.0629 1.46893 -1.2 0.9999678603485865 2.455246420063028e-05 3.081946315245142e-28 7.587187206490585e-06
83 3 -1.27978 76.7069 0.13372 -1.2 0.9998169150530538 5.9299748772934195e-05 4.021691185528237e-24 0.00012378519817575755
84 3 -1.2364 76.7218 2.77674 -1.2 0.9999753346570911 2.1454421876919112e-05 3.449048707523857e-28 3.2109210342503756e-06
85 1 -2.30485 80.4722 0.0796992 1.2 0.8203129762510757 0.17968215951563096 4.097199772626374e-31 4.864233299833437e-06
86 1 2.3711 83.206 1.77431 1.2 0.8425991387242652 0.15739336150250136 8.552877624458881e-28 7.4997732266415765e-06
87 2 -0.196697 81.5354 1.42837 2.4 1.0 6.192852420128843e-21 1.8324265831809865e-41 8.537166185705772e-35
88 3 1.29823 81.2927 1.60776 -1.2 0.9999931147200697 6.4378307880657635e-06 7.899165613041844e-32 4.4744914745451076e-07
89 3 -1.39576 85.0589 1.59597 -1.2 0.9999512382734936 4.849829694288162e-05 2.8381336102909363e-28 2.63429560954614e-07
90 3 -1.07236 82.1119 0.169187 -1.2 0.999980238260173 1.8764862430769054e-05 6.4608034036596e-29 9.96877390953578e-07
91 1 -2.46813 90.716 3.1854 1.2 0.994420997149934 0.005579002653210947 4.647991015355612e-31 1.9685634628680823e-10
92 3 -0.905032 82.1631 2.80219 -1.2 0.9999512225602379 4.833960308759209e-05 1.0314559905568736e-30 4.3783667979625166e-07
93 1 -2.45617 87.7158 4.72917 1.2 0.979371200241526 0.020628763380519933 4.3951257346246404e-30 3.637795687581977e-08
94 2 0.225166 89.7513 4.55691 2.4 1.0 1.4970391475811033e-25 4.907200252641141e-46 2.785902667451135e-42
95 3 -1.28944 89.8631 4.57555 -1.2 0.9999990977490489 9.022344078866879e-07 4.608578944077768e-33 1.6545179764649864e-11
96 3 1.43538 85.9486 4.63159 -1.2 0.9999346175836313 6.523004437901008e-05 4.084170400702758e-28 1.523719834135334e-07
97 3 1.00501 89.1533 3.33039 -1.2 0.9999984284521574 1.5714252950741531e-06 4.1420130110653525e-32 1.2255316013895543e-10
98 3 0.96346 89.0388 5.88454 -1.2 0.9999967172411909 3.2827134204620123e-06 4.492862575310021e-31 4.538199678005762e-11
99 1 0.085825 85.6822 3.27906 1.2 0.9127695824837174 0.08722998068621374 4.156258572185154e-30 4.368300708108075e-07
100 1 0.0361308 82.7428 4.50264 1.2 0.6834885065886123 0.316487975133777 7.020353123311506e-32 2.351827761268067e-05
101 2 2.17884 84.4474 4.659 2.4 1.0 1.8922925267939572e-21 1.6648355601025815e-40 7.386438983418522e-35
102 3 -1.02364 84.6113 4.64278 -1.2 0.9999777309236976 2.2180911613685602e-05 9.98293430313225e-32 8.816469413237544e-08
103 3 1.24617 80.992 4.55979 -1.2 0.9999936954478342 5.1715275788995255e-06 8.873317443771658e-34 1.1330245837020414e-06
104 3 1.43846 83.8239 3.38662 -1.2 0.9999592669374646 4.046721612334729e-05 4.8897820943086135e-31 2.658464093702143e-07
105 1 0.0664091 85.4795 0.191533 1.2 0.9470809822883818 0.052918985238867115 4.195208054202214e-33 3.2472747835379525e-08
106 3 1.52727 83.891 5.94917 -1.2 0.9999168544149011 8.275168424266854e-05 4.8799344905165944e-29 3.939008558097795e-07
107 1 0.00274743 88.4351 1.59105 1.2 0.9927479766811524 0.007252022550015332 2.12580105411808e-31 7.688285424795618e-10
108 2 -2.08518 86.5958 1.70155 2.4 1.0 1.0172031753393637e-21 8.116061249834534e-42 1.0878826392297365e-35
109 3 1.13601 86.5988 1.6468 -1.2 0.9999826737478577 1.7322659273920535e-05 1.2270067816845553e-30 3.5928623062148634e-09
110 3 -1.05966 90.1465 1.66768 -1.2 0.9999916984618091 8.301366875790585e-06 4.835173930310366e-28 1.7131595798355282e-10
111 3 -1.42062 87.2896 0.424539 -1.2 0.9999984807306278 1.519192088336887e-06 2.679377297777058e-31 7.728410440562414e-11
112 3 -1.34648 87.0972 3.0095 -1.2 0.9999851612142309 1.4835480262962906e-05 1.4193178351653005e-30 3.3055030949167497e-09
113 1 -2.44623 90.8959 0.0145665 1.2 0.9966473597823469 0.0033526401431652375 1.0725477136239416e-29 7.449384134176657e-11
114 1 2.26955 93.4424 1.58245 1.2 0.9976510451245634 0.0023489546206973857 5.904868755856224e-28 2.5474552806519417e-10
115 2 -0.434031 91.587 1.57248 2.4 1.0 1.5459042385060178e-22 3.06266601363634e-40 2.3668420158702203e-38
116 3 1.13872 91.6881 1.56223 -1.2 0.9999885466860898 1.1453298245554613e-05 2.1048776628868586e-27 1.566382411683697e-11
117 3 -1.37244 95.1056 1.64624 -1.2 0.9999984284183497 1.5715622789862188e-06 1.9230941880911475e-30 1.936588521609981e-11
118 3 -1.05658 92.3342 0.255001 -1.2 0.999982955652236 1.7044343805634303e-05 1.9055871443607806e-27 3.961349545893015e-12
119 1 -2.4188 100.919 3.20043 1.2 0.9956809241988779 0.004319073956939954 1.3125952057083477e-29 1.8441891221878595e-09
120 3 -1.03656 92.2913 2.82643 -1.2 0.999996052770416 3.947223854431335e-06 3.6710028315943916e-29 5.72736961054884e-12
121 1 -2.30196 98.1121 4.48932 1.2 0.9994317154767753 0.0005682844883503152 3.3296497776552626e-32 3.487426802314853e-11
122 2 0.404055 100.014 4.74801 2.4 1.0000000000000004 4.710883966979937e-27 5.3838465115738105e-49 8.263555570895255e-46
123 3 -1.13634 100.152 4.63922 -1.2 0.9999983211022262 1.6788958591707496e-06 5.412211637897282e-34 1.919478980539167e-12
124 3 1.33007 96.2733 4.71563 -1.2 0.9999944768631561 5.523126010686251e-06 4.371346668384705e-32 1.0833117755581603e-11
125 3 0.956762 99.2437 3.44489 -1.2 0.9999961197563302 3.880235375580104e-06 3.720588546947882e-33 8.29938346566553e-12
126 3 1.0476 99.4241 6.04931 -1.2 0.9999965039987049 3.495955245947363e-06 6.305223207547936e-30 4.605001996589252e-11
127 1 -0.0366859 95.5895 3.18713 1.2 0.9982312037806026 0.001768796164865224 1.367411843079348e-32 5.452740052530474e-11
128 1 -0.149929 93.0381 4.54959 1.2 0.9979835402713776 0.0020164593834750277 7.115110460868044e-28 3.451513463412173e-10
129 2 1.94331 94.776 4.62931 2.4 1.0 3.9058879079063625e-25 2.399679812870917e-45 1.1555177444301871e-40
130 3 -1.2501 94.8655 4.54806 -1.2 0.9999982820154947 1.7179834112238244e-06 7.113021417563257e-32 1.0970340460199968e-12
131 3 0.846975 91.2669 4.74261 -1.2 0.9999980430479488 1.9569058492312538e-06 4.828244956178474e-30 4.6204582355990826e-11
132 3 1.39048 94.1402 3.28668 -1.2 0.9999987472530765 1.252744806061425e-06 1.7425311917331564e-32 2.1156911361320837e-12
133 1 -0.00422495 95.6708 0.222838 1.2 0.9972292697128469 0.002770730200140572 5.144818156740019e-32 8.701504461173116e-11
134 3 1.16531 94.0876 5.84741 -1.2 0.9999688546803134 3.1145295340836023e-05 2.9268273962866453e-28 2.4351847584430007e-11
135 1 0.0435624 98.6337 1.57703 1.2 0.9989743950053321 0.0010256048449561839 1.5293976510199723e-32 1.4970748315436149e-10
136 2 -1.98275 96.7062 1.68233 2.4 1.0 7.601571510445161e-27 7.031551877641713e-48 9.090888527829828e-43
137 3 1.27729 96.6739 1.61487 -1.2 0.9999995581230204 4.418757195856627e-07 1.6766430761478041e-34 1.253201556516351e-12
138 3 -0.980069 100.363 1.82116 -1.2 0.9999809926389185 1.900698177352187e-05 2.64769898267983e-28 3.793139351348619e-10
139 3 -1.29527 97.374 0.406527 -1.2 0.9999921571320018 7.842815308701656e-06 7.790259379281183e-30 5.2695957682603505e-11
140 3 -1.33886 97.3306 2.91185 -1.2 0.9999979273294336 2.0726637823332327e-06 1.6400456423528456e-31 6.783534398903512e-12
141 1 -2.27438 100.928 0.184 1.2 0.9957824529219498 0.00421754313224218 4.850602656328531e-29 3.945806888978366e-09
142 1 7.03937 103.901 1.86034 1.2 0.9972204013410554 0.0027795980902339977 1.6259879913097187e-31 5.687053919634008e-10
143 2 -0.280799 101.882 1.82192 2.4 1.0 3.8891587863137303e-25 1.442892726694498e-42 6.489235086650297e-41
144 3 1.25968 101.846 1.6728 -1.2 0.9999974159136108 2.5840690016977667e-06 5.323399320012738e-32 1.7382212358429996e-11
145 3 3.52511 105.462 1.77755 -1.2 0.9999981871923129 1.812673275060775e-06 6.321899161187163e-31 1.3440938108314342e-10
146 3 -0.894503 102.573 0.320702 -1.2 0.999958851979349 4.114775160982542e-05 3.360800064417204e-27 2.690437691048251e-10
147 1 2.37768 111.283 3.17693 1.2 0.9828218267223343 0.01717817042914331 1.1586298379765075e-35 2.8485271717491064e-09
148 3 -0.995412 102.621 3.03866 -1.2 0.999988634223615 1.1365654863092983e-05 1.749928081942218e-29 1.2151823798216003e-10
149 1 2.46788 108.371 4.55016 1.2 0.9933554746918452 0.0066445225557780355 3.059268621836617e-30 2.752370503369973e-09
150 2 5.06576 110.271 4.62117 2.4 1.0 1.054214042333782e-25 4.892030147813164e-46 3.498975421625473e-39
151 3 3.51658 110.281 4.59998 -1.2 0.9999986559335321 1.3438994944494503e-06 5.029565674451864e-32 1.6696912933684795e-10
152 3 6.18145 106.743 4.77551 -1.2 0.9999981467528705 1.8530608997584473e-06 2.7612062738564057e-32 1.8623311582160765e-10
153 3 5.72212 109.543 3.31675 -1.2 0.9999986008628223 1.399088651871283e-06 1.4018182206422696e-32 4.8530858535134394e-11
154 3 5.66908 109.774 5.91036 -1.2 0.9999957422686213 4.255912743188466e-06 3.4803697745533185e-29 1.8186331804352945e-09
155 1 4.74076 105.991 3.22361 1.2 0.9974335271031342 0.002566472886196999 3.06821516895572e-36 1.0670434746353672e-11
156 1 -0.198774 103.356 4.59913 1.2 0.9974853708955187 0.002514628733734386 8.534389575438279e-31 3.7074854135709014e-10
157 2 6.74034 105.198 4.83135 2.4 1.0 7.020735231103364e-25 1.0006288888010439e-44 2.224067512787774e-42
158 3 3.63972 105.243 4.74757 -1.2 0.999997918580738 2.0813797664365673e-06 2.5735308178294526e-31 3.949820606284682e-11
159 3 1.10762 101.485 4.63538 -1.2 0.9999962567626712 3.7432184790719468e-06 1.7791954246852962e-31 1.8852748913800244e-11
160 3 6.08323 104.503 3.40553 -1.2 0.999997890801318 2.109194884251762e-06 1.694829335070275e-31 3.7991113755450506e-12
161 1 4.94517 106.148 0.269576 1.2 0.9950641840000451 0.004935815902986066 1.93562755838749e-34 9.697554342225503e-11
162 3 6.10379 104.475 6.04224 -1.2 0.9999889786255082 1.1021281656458297e-05 8.616030424772412e-30 9.283116201074121e-11
163 1 4.7735 108.951 1.72765 1.2 0.9959578921277155 0.0040421077697828664 4.585950128081903e-33 1.0250375400428148e-10
164 2 2.81205 106.961 1.73574 2.4 1.0 4.745152880830092e-26 4.688145969375275e-47 1.3714652124443535e-40
165 3 6.01054 106.873 1.77 -1.2 0.9999987941298253 1.2058217596809181e-06 4.6299570117726914e-33 4.8419227257630693e-11
166 3 3.74901 110.753 1.63816 -1.2 0.9999987713231081 1.2283538376990708e-06 5.97177071200725e-30 3.2306064380773655e-10
167 3 3.52273 107.683 0.554129 -1.2 0.9999987003467145 1.2995898631484982e-06 5.747472174032882e-31 6.342176972143908e-11
168 3 3.48694 107.729 2.95663 -1.2 0.9999955815370342 4.418315079959072e-06 1.845458008161064e-29 1.4788796380178246e-10
169 1 2.27159 111.152 0.201624 1.2 0.9979147096237457 0.0020852903732899767 2.584242021927169e-37 2.9581975691117026e-12
170 1 6.98766 114.074 1.661 1.2 0.9902975706584283 0.009702428170256149 1.711215082247495e-34 1.1713197187623695e-09
171 2 4.32285 112.293 1.62216 2.4 1.0 1.0900525498042932e-25 1.530159020718928e-45 9.296159983270784e-42
172 3 5.89794 112.264 1.57926 -1.2 0.9999998244599778 1.7552244952724724e-07 1.1254820612625954e-35 1.7574349687900736e-11
173 3 3.40809 115.885 1.60647 -1.2 0.9999986816933294 1.3168334066191952e-06 2.62417569782209e-32 1.4732568953307054e-09
174 3 3.58091 112.849 0.295863 -1.2 0.999995948350667 4.05088062037919e-06 1.7419376095370933e-28 7.687127478078562e-10
175 1 2.42154 121.757 3.05983 1.2 0.9438044878097243 0.056195472881276826 9.396553909410048e-34 3.930900358645418e-08
176 3 3.65231 112.957 2.95679 -1.2 0.9999989601189021 1.0394446130772406e-06 2.10997270428477e-32 4.3647999423385896e-10
177 1 2.43213 118.899 4.40228 1.2 0.9924048886488999 0.007595111133964072 1.1925817207304638e-32 2.171348054137564e-10
178 2 5.01368 120.65 4.68436 2.4 1.0 6.26636571981999e-21 1.3657668549718812e-36 3.0514066512522597e-38
179 3 3.49912 120.803 4.64517 -1.2 0.9999977844249729 2.2147830775721566e-06 3.614338341880406e-32 7.919520638687559e-10
180 3 6.10021 117.01 4.69208 -1.2 0.9999978301800305 2.167772219508246e-06 3.395037107523249e-30 2.047745794302252e-09
181 3 5.722 119.885 3.44173 -1.2 0.9999931952527448 6.80190208783459e-06 3.5816599932545043e-28 2.8451655335376155e-09
182 3 5.62291 119.992 6.00152 -1.2 0.9999819314863149 1.8068248177058813e-05 2.138981427468364e-25 2.655043026041729e-10
183 1 4.72838 116.33 3.05827 1.2 0.9886745997721845 0.011325399647536765 2.962049253921597e-35 5.802773933151354e-10
184 1 4.52772 113.631 4.5174 1.2 0.9851083161390551 0.014891681483562288 1.4239870781159873e-34 2.3773761558693505e-09
185 2 6.69141 115.496 4.7582 2.4 1.0 5.710085966274659e-24 1.802338024031008e-42 5.944526814674442e-39
186 3 3.45816 115.557 4.72896 -1.2 0.999996101473311 3.897531260408446e-06 4.603965088334577e-31 9.954240094343573e-10
187 3 5.68312 111.828 4.51453 -1.2 0.9999962871062144 3.708037818639007e-06 1.9069280355486036e-31 4.855964657350007e-09
188 3 5.96156 114.795 3.4628 -1.2 0.9999950158015745 4.983368864741587e-06 1.8822862003621614e-30 8.2956145792454e-10
189 1 4.79288 116.463 0.0646042 1.2 0.9848445248475091 0.015155470563951225 6.22348992139683e-36 4.588541271315706e-09
190 3 5.83843 114.836 5.95704 -1.2 0.9999732960250398 2.668736229209007e-05 1.428596818101903e-27 1.661266685655769e-08
191 1 4.84401 119.186 1.68568 1.2 0.9651794703415569 0.03482051565339379 3.2682113288216573e-34 1.4005047616176341e-08
192 2 2.66408 117.373 1.51365 2.4 1.0 3.996384452546306e-25 3.338224323520796e-44 2.144499363391337e-40
193 3 5.82017 117.367 1.55777 -1.2 0.9999974264638642 2.5720113682364055e-06 7.969644802152439e-32 1.5247647590740848e-09
194 3 3.74987 121.252 1.74762 -1.2 0.9999992067872674 7.688321591748129e-07 3.7362674201638975e-32 2.438057590656155e-08
195 3 3.36847 117.885 0.232964 -1.2 0.9999979000542134 2.06083734056193e-06 4.831464735428255e-31 3.910844595761372e-08
196 3 3.36754 118.182 2.74869 -1.2 0.9999977358370468 2.263885637343363e-06 3.960997360934039e-33 2.7731389053662107e-10
197 1 2.40456 121.636 0.106431 1.2 0.8635781924119624 0.1364203825284336 3.150548966581097e-33 1.425059610950944e-06
198 1 7.11303 124.493 1.75735 1.2 0.7201795723533959 0.2798173421835025 2.3864087788628733e-33 3.08546310448444e-06
199 2 4.4774 122.687 1.65831 2.4 1.0 4.405078883713322e-24 5.247174828598114e-44 8.693535081535538e-35
200 3 5.99656 122.617 1.63324 -1.2 0.9999998612129798 1.2410972117821108e-07 7.291912109982322e-37 1.4677301507545475e-08
201 3 3.38244 126.262 1.61404 -1.2 0.9999987227098671 5.3206418867494895e-08 2.6428277138895327e-35 1.2240837097124902e-06
202 3 3.7732 123.225 0.358003 -1.2 0.999997696135221 3.887380349080121e-07 3.7823131891314543e-32 1.915126739733759e-06
203 1 2.25563 131.849 3.06959 1.2 0.744480755879651 0.25551888942692574 1.2272604527520938e-33 3.5469342914361963e-07
204 3 3.79179 123.381 2.9398 -1.2 0.9999996569951739 2.955625637142173e-07 9.073214727958364e-34 4.744226662912607e-08
205 1 2.40881 129.098 4.5228 1.2 0.7420920538307176 0.2579077297500412 9.235632633046389e-34 2.16419246906304e-07
206 2 5.00693 130.93 4.52506 2.4 1.0 4.0359905094535435e-20 9.236997690037592e-39 1.2525028117641743e-30
207 3 3.40103 130.982 4.51734 -1.2 0.9999991437684599 2.4294382620196663e-07 4.024662346446086e-33 6.132877080851447e-07
208 3 5.91251 127.462 4.55919 -1.2 0.9999990238844777 5.954815025134615e-08 1.236183583795327e-32 9.165673702233671e-07
209 3 5.65871 130.266 3.21513 -1.2 0.99999844115559 1.0229301007001566e-07 8.349633100980809e-33 1.4565514052501684e-06
210 3 5.83307 130.279 5.80015 -1.2 0.9999987410699129 3.1155686601368676e-07 1.6920162792906806e-32 9.473732153163364e-07
211 1 4.68466 126.872 3.05111 1.2 0.7085934850391865 0.29140621107223524 2.170827031322085e-35 3.0388858132628714e-07
212 1 4.5083 124.023 4.60573 1.2 0.9234805492281865 0.07651941646529456 4.139165766901327e-33 3.430651311663251e-08
213 2 6.74099 125.96 4.73768 2.4 1.0 4.731265064589629e-23 1.5834162922747237e-42 6.209109914776491e-34
214 3 3.46698 126.03 4.75149 -1.2 0.9999997900780009 1.8017414530701673e-07 1.918094051455388e-33 2.974785672007864e-08
215 3 5.8113 122.257 4.63288 -1.2 0.9999978071768706 2.1739748854696367e-06 4.883114858701691e-29 1.884824484092912e-08
216 3 6.03418 125.208 3.43399 -1.2 0.9999995535156503 3.173788122504316e-07 2.62437709856867e-32 1.2910553746668562e-07
217 1 4.76507 126.846 -0.05673 1.2 0.7146531329937166 0.28534558069624216 7.709224268696383e-36 1.2863100402977802e-06
218 3 5.99054 125.367 6.02353 -1.2 0.9999993624898778 6.076654530739891e-07 5.282649667486422e-30 2.984466612643762e-08
219 1 4.68414 129.687 1.39661 1.2 0.7240040372707236 0.2759950535997079 3.860551868483456e-33 9.091295727098258e-07
220 2 2.72323 127.675 1.61357 2.4 1.0 1.044462451877632e-23 2.834997105877113e-44 5.8504740674168434e-33
221 3 5.93649 127.483 1.57603 -1.2 0.9999989725045729 1.1774157879126886e-07 3.625627700207548e-34 9.097538550707579e-07
222 3 3.76385 131.533 1.67933 -1.2 0.9999968593565149 7.125519577182633e-08 1.7600415329927621e-31 3.0693882858119454e-06
223 3 3.39995 128.402 0.28789 -1.2 0.9999917766742114 4.787063559959951e-07 3.5538391991228805e-31 7.744619433688364e-06
224 3 3.22711 128.451 2.79488 -1.2 0.9999996528783334 1.5741546693397157e-07 5.83342971877955e-34 1.8970619818980811e-07
225 1 2.31409 132.01 -0.0753458 1.2 0.8046870875681186 0.19531284599170765 1.5721267862424254e-36 6.644017309606563e-08
226 1 6.93433 135.007 1.49673 1.2 0.7507546459113982 0.2492447633653343 1.7258023459990122e-29 5.907232675443279e-07
227 2 4.39995 132.967 1.56586 2.4 1.0 2.7052970230289687e-21 2.8125102296835012e-39 1.0284257393225028e-33
228 3 5.98617 132.961 1.5962 -1.2 0.9999938642276279 3.7352719978702815e-06 2.650486120309743e-27 2.400500373086391e-06
229 3 3.32334 136.837 1.36775 -1.2 0.9999047810898009 5.184968782527931e-06 1.6690605195604335e-24 9.003394142029805e-05
230 3 3.76205 133.486 0.132637 -1.2 0.9999855205531053 1.7294331739218167e-06 6.588624935951324e-27 1.2750013719273559e-05
231 1 2.32052 142.481 2.9424 1.2 1.7220589506493083e-06 0.009019142762057328 5.884116558046433e-41 0.990979135178991
232 3 3.76948 133.97 2.6772 -1.2 0.9999946012531851 2.0421890008407247e-06 4.6422326673728816e-30 3.3565578124999367e-06
233 1 2.47346 139.633 4.52925 1.2 0.7012397543175688 0.29875862361324573 8.389200294774155e-29 1.6220691841559798e-06
234 2 5.03626 141.614 4.42473 2.4 1.0 6.328634924887723e-25 9.143917413934012e-46 3.855818136936424e-21
235 3 3.46618 141.596 4.4092 -1.2 0.8217976818709761 1.9010141082936487e-07 8.071380355082571e-35 0.17820212802761803
236 3 6.05613 137.873 4.42608 -1.2 0.9999335853224799 7.19518053213251e-07 2.0982644399023325e-26 6.569515947382836e-05
237 3 5.77756 140.886 3.21508 -1.2 0.9910290242600724 3.38541114580327e-05 8.734141314833782e-26 0.008937121628469607
238 3 5.67549 140.795 5.69057 -1.2 0.9979160512637599 1.2172042328105542e-05 1.6870324086802322e-27 0.0020717766939173585
239 1 4.65658 137.259 2.92017 1.2 0.8414252087282986 0.15857474372224037 2.3279626943064193e-33 4.7549457234332923e-08
240 1 4.60826 134.49 4.45971 1.2 0.7203842705566823 0.2796135677178904 2.36210985314241e-28 2.161725433233272e-06
241 2 6.69831 136.404 4.45596 2.4 1.0 3.6921684401677995e-18 4.370691311272431e-35 2.8256493157998176e-33
242 3 3.49719 136.429 4.36339 -1.2 0.9999846856854306 6.544833863550136e-06 4.571145517603113e-25 8.76948070677791e-06
243 3 5.46674 132.494 4.53642 -1.2 0.9999286279104616 3.3992792861049037e-07 5.8487735917478e-28 7.103216161090132e-05
244 3 6.0014 135.683 3.13777 -1.2 0.9999779992178858 1.0740324123079003e-05 3.994832444850334e-24 1.1260457998119631e-05
245 1 4.65104 137.482 0.0229024 1.2 0.8627943132531031 0.13719839376098783 8.49387139460078e-31 7.292985911249059e-06
246 3 6.05377 135.688 5.70066 -1.2 0.999942564470417 6.430128351177971e-06 2.1339668426217134e-27 5.100540123843767e-05
247 1 4.74752 140.129 1.50562 1.2 0.8334808862073312 0.1665051740695362 3.6845523743355305e-23 1.393972312989117e-05
248 2 2.6306 138.329 1.53114 2.4 1.0 3.0156278153567864e-21 3.492427246544442e-38 2.692908935201327e-31
249 3 5.78723 138.332 1.47287 -1.2 0.9999481075362942 2.9010601412178943e-06 2.949874789973137e-27 4.899140356117886e-05
250 3 3.84341 141.961 1.5138 -1.2 0.34043687886445245 6.026879769400492e-08 3.562428452750177e-30 0.6595630608667524
251 3 3.3267 139.091 0.207539 -1.2 0.9997579065102942 2.306189034894716e-05 2.858316862598049e-24 0.00021903159935447554
252 3 3.42937 138.892 2.87127 -1.2 0.999621502568717 1.3100570271116008e-05 2.723319984400304e-24 0.00036539686101100493
253 1 2.40904 142.613 -0.179522 1.2 7.468895142104855e-06 0.012866361588448713 9.649888192256364e-36 0.9871261695164065
254 1 6.925 145.355 1.42579 1.2 3.468176269183569e-146 3.2440813593630065e-36 0.0 1.0
255 2 4.4084 143.447 1.35761 2.4 0.999968296843693 8.22485283895111e-58 3.297960209367426e-84 3.170315630446776e-05
256 3 6.00287 143.458 1.35301 -1.2 9.359240994150499e-16 4.869750524800843e-42 1.55365391988064e-75 0.9999999999999981
257 3 3.3756 147.011 1.25157 -1.2 3.814763773637624e-237 0.0 0.0 1.0000000000000484
258 3 3.81492 144.051 0.0141534 -1.2 1.0430499523975028e-31 1.0731159460993703e-85 4.630345795639701e-133 1.0000000000000044
259 1 1.67709 152.336 1.48274 1.2 0.0 9.077782482436737e-91 0.0 1.0
260 3 3.66804 144.151 2.54793 -1.2 5.76966158769086e-49 3.5987698934849344e-119 5.543228771004319e-175 1.0000000000000129
261 1 1.83468 150.565 4.59724 1.2 0.0 2.1052654655906825e-107 0.0 1.0
262 2 3.90552 151.008 2.79072 2.4 2.5460447130001203e-282 0.0 0.0 1.0
263 3 2.49521 151.706 3.05342 -1.2 0.0 0.0 0.0 1.0
264 3 6.14676 148.28 4.2192 -1.2 0.0 0.0 0.0 1.0
265 3 4.5451 151.887 1.61516 -1.2 0.0 0.0 0.0 1.0
266 3 4.78918 150.864 4.01255 -1.2 0.0 0.0 0.0 1.0
267 1 4.73741 147.854 2.79213 1.2 0.0 1.2298363992000326e-92 0.0 1.0