ITEM: TIMESTEP
0
ITEM: NUMBER OF ATOMS
1798
ITEM: BOX BOUNDS pp pp pp
0.0 4.84728
0.0 204.08
0.0 120.022
ITEM: ATOMS id type x y z coord pCrystal pDislocation
2977 1 -1.41642 68.6689 34.4922 28 0.9999990130628958 9.869371044461127e-07
2978 2 1.24511 70.4937 34.4875 25 0.9999985150744355 1.4849255647199428e-06
2979 3 -0.319244 70.5759 34.4882 22 0.9999637862684077 3.621373159294675e-05
2980 3 2.35109 66.8831 34.4829 24 0.9970266471690444 0.0029733528309552706
2981 3 1.94417 69.8436 33.2047 22 0.35127878729701223 0.6487212127029878
2982 3 1.95723 69.8311 35.7574 24 0.9999795436350042 2.045636499722158e-05
2983 1 0.951678 66.3905 32.9853 26 0.9055848472385882 0.09441515276141148
2984 1 0.907916 63.5674 34.4843 27 0.9997864454097762 0.00021355459022087277
2985 2 3.05669 65.4011 34.4815 25 0.9999993505083871 6.494916142999634e-07
2986 3 -0.226531 65.4813 34.4832 22 0.9860142180982375 0.013985781901763167
2988 3 2.35864 64.7383 33.2055 22 0.01915138455860248 0.9808486154413976
2990 3 2.36876 64.7368 35.7624 24 0.9999869382176295 1.3061782371733047e-05
3003 1 -1.52948 71.4863 32.9883 26 0.9990362990766283 0.000963700923371597
3005 1 -1.57041 78.8716 34.5014 29 0.9999989336778957 1.066322103872305e-06
3006 2 1.07545 80.6949 34.4998 25 0.9999988351565195 1.1648434800242931e-06
3007 3 -0.489094 80.7779 34.4997 22 0.9998477140458318 0.00015228595416814762
3008 3 2.21654 77.0793 34.4895 24 0.9968554036189493 0.0031445963810516077
3010 3 1.79419 80.0345 35.7674 24 0.9999802895678599 1.971043213862962e-05
3011 1 0.81573 76.5893 32.9927 26 0.5550483399967084 0.4449516600032916
3012 1 0.796034 73.7597 34.4898 27 0.9999999581362724 4.186372757150583e-08
3013 2 2.92937 75.6004 34.4879 25 0.9999993194434189 6.805565795329628e-07
3014 3 -0.353952 75.6803 34.4898 22 0.9837926407989956 0.01620735920100443
3015 3 1.92946 71.9855 34.4923 25 0.9874139545849989 0.012586045415000528
3016 3 2.23444 74.9339 33.2124 22 0.28942456103259184 0.7105754389674082
3018 3 2.24774 74.933 35.77 24 0.9999958868205284 4.113179472030388e-06
3033 1 -1.82215 89.0823 34.5195 29 0.9999999737864179 2.621358281479105e-08
3034 2 0.802667 90.9019 34.5297 25 0.999999068231946 9.317680543898707e-07
3035 3 -0.762222 90.9857 34.5268 22 0.999877034704751 0.0001229652952494704
3036 3 1.98785 87.2846 34.508 24 0.9998403995146855 0.00015960048531528726
3038 3 1.52572 90.2501 35.7995 24 0.9999796024105595 2.039758944056667e-05
3040 1 0.597657 83.9607 34.5012 27 0.9999999813632601 1.863673904546574e-08
3041 2 2.71078 85.8102 34.5075 25 0.9995341441778351 0.000465855822164997
3042 3 -0.572628 85.8901 34.5079 22 0.9914647338457598 0.00853526615424077
3043 3 1.75134 82.1908 34.5054 26 0.9964325830073689 0.0035674169926306716
3046 3 2.03761 85.1411 35.7922 24 0.9999940539574895 5.94604251196861e-06
3061 1 -2.17832 99.2827 34.5483 29 0.9999999507136289 4.928637180780732e-08
3062 2 0.427231 101.097 34.5517 25 0.999999154170381 8.458296186912205e-07
3063 3 -1.13827 101.182 34.5517 22 0.9998440585459857 0.00015594145401307203
3064 3 1.64852 97.4867 34.5445 24 0.999666134878224 0.0003338651217751016
3066 3 1.14622 100.452 35.8284 24 0.9999719686697166 2.803133028180377e-05
3068 1 0.289358 94.1609 34.5266 27 0.9999999703233375 2.9676660763261858e-08
3069 2 2.3824 96.0172 34.5475 25 0.9992131010597546 0.0007868989402456273
3070 3 -0.900944 96.0983 34.5446 22 0.6361475531351518 0.3638524468648478
3071 3 1.46941 92.402 34.5327 26 0.9947887229976985 0.005211277002300841
3074 3 1.71621 95.3497 35.8358 24 0.999989403720961 1.0596279038559037e-05
3089 1 2.24766 109.497 34.4832 29 0.9999999828264984 1.7173500777521676e-08
3090 2 4.86297 111.314 34.4904 25 0.9999997003392349 2.996607658883657e-07
3091 3 3.29885 111.396 34.4892 22 0.9998873583915182 0.00011264160848080319
3092 3 6.08779 107.683 34.4941 24 0.9999068185782238 9.318142177691995e-05
3094 3 5.57459 110.673 35.7725 24 0.9999825164123115 1.7483587687996973e-05
3096 1 4.73738 104.349 34.5465 27 0.9999999656745301 3.432546978537448e-08
3097 2 6.82099 106.213 34.4918 25 0.998943729121329 0.0010562708786700052
3098 3 3.53722 106.291 34.4998 22 0.44884664108668915 0.5511533589133105
3099 3 5.93505 102.6 34.549 25 0.993555300711315 0.006444699288684901
3102 3 6.14465 105.533 35.7695 24 0.9999878876560458 1.2112343954756993e-05
3117 1 1.90748 119.716 34.4872 29 0.999999985303962 1.4696037937314993e-08
3118 2 4.5409 121.535 34.5034 25 0.9999994004166538 5.99583346270076e-07
3119 3 2.97673 121.617 34.5013 22 0.9998540815552922 0.00014591844470794626
3120 3 5.72199 117.912 34.5004 24 0.9999256496109656 7.43503890344191e-05
3122 3 5.24285 120.891 35.788 24 0.999977210259634 2.278974036457491e-05
3124 1 4.35522 114.583 34.4879 27 0.9999999845705078 1.5429493206254753e-08
3125 2 6.44756 116.438 34.5005 25 0.9995703759807829 0.0004296240192173413
3126 3 3.16303 116.521 34.4968 22 0.8094382293347157 0.1905617706652842
3127 3 5.5266 112.815 34.484 26 0.997099688655665 0.002900311344335887
3130 3 5.75771 115.765 35.7742 24 0.9999958236460555 4.1763539447511236e-06
3145 1 1.68214 129.914 34.5053 29 0.9999999863928758 1.3607124324278714e-08
3146 2 4.33424 131.734 34.514 25 0.9999988789628502 1.121037149115493e-06
3147 3 2.77001 131.816 34.5137 22 0.9998130568057197 0.00018694319427979366
3148 3 5.46829 128.121 34.5142 24 0.9999257784139147 7.422158608557118e-05
3150 3 5.03249 131.083 35.7969 24 0.9999751100575289 2.488994247080288e-05
3152 1 4.06357 124.8 34.5064 27 0.9999999859297298 1.4070270342306877e-08
3153 2 6.18325 126.642 34.5129 25 0.9996270002683163 0.00037299973168303946
3154 3 2.89934 126.725 34.5107 22 0.9953231046256256 0.004676895374374443
3155 3 5.21513 123.031 34.4985 26 0.9970377521150986 0.0029622478849012012
3158 3 5.48665 125.973 35.7861 24 0.9999965963796434 3.4036203578467093e-06
3180 1 3.88533 134.997 34.5199 27 0.9999999889801537 1.1019846674253866e-08
3183 3 5.01786 133.226 34.5123 26 0.9969422268022532 0.00305777319774658
3186 3 5.32595 136.166 35.7936 24 7.581839310938442e-07 0.9999992418160698
3530 1 3.34559 64.0981 37.4754 28 0.9999999801580197 1.9841980174922154e-08
3533 3 -0.416782 65.8834 37.4867 24 0.9999547480153527 4.525198464719994e-05
3537 1 -1.36883 68.6498 40.4973 28 0.9999999789086031 2.1091396280955476e-08
3538 2 1.29442 70.4744 40.4859 25 0.9999974097404226 2.5902595776619497e-06
3539 3 -0.269906 70.5565 40.4877 22 0.9998759280073568 0.00012407199264355347
3540 3 2.39455 66.8663 40.4806 24 0.9999467718366115 5.3228163389262114e-05
3541 3 1.98659 69.8298 39.1973 24 0.9999761580609239 2.3841939075113533e-05
3542 3 2.01131 69.8063 41.7507 24 0.9999803783134564 1.9621686544166997e-05
3543 1 0.988292 66.3757 38.9845 28 0.9999999983795611 1.62043946906666e-09
3544 1 0.947814 63.5518 40.4854 27 0.9999999996180318 3.8196915021964045e-10
3545 2 3.09907 65.3839 40.4783 25 0.9999900323363081 9.967663691900128e-06
3546 3 -0.184155 65.4643 40.4819 22 0.9952398909138059 0.004760109086194083
3548 3 2.39581 64.7223 39.2046 24 0.9999879455004854 1.2054499516182846e-05
3549 1 0.966797 66.3843 35.9849 28 0.9999999991978683 8.021322020547343e-10
3550 3 2.41497 64.7199 41.7617 24 0.9999869781471769 1.3021852824194603e-05
3551 1 1.02153 69.2014 37.486 27 0.9999999765850378 2.3414963253684706e-08
3552 2 -1.12201 67.3661 37.4893 25 0.9999932142271019 6.785772897424883e-06
3553 3 2.16141 67.2842 37.4862 22 0.9948089150447658 0.005191084955235009
3554 3 -0.105853 70.9755 37.481 25 0.9982572891235095 0.001742710876489575
3555 3 -0.436843 68.03 36.2064 24 0.9999964036669882 3.596333010222465e-06
3556 3 -0.420069 68.0277 38.7637 24 0.999997308111481 2.6918885185247205e-06
3557 1 -1.51212 71.4788 35.9886 28 0.9999998833772047 1.166227960239643e-07
3558 1 3.23634 74.2903 37.4782 28 0.9999999796393306 2.0360668544487015e-08
3559 2 0.579778 72.4666 37.4885 25 0.9999980052941576 1.9947058423740688e-06
3560 3 2.14411 72.3853 37.4861 22 0.9998724981164027 0.00012750188359856584
3561 3 -0.544167 76.0834 37.4941 24 0.9999544026899133 4.559731008714294e-05
3562 3 -0.135719 73.1316 36.2206 24 0.9999785942925656 2.1405707435006004e-05
3563 1 -1.48708 71.47 38.987 28 0.9999999847962188 1.5203781396074656e-08
3564 3 -0.114529 73.1128 38.7754 24 0.9999742182499518 2.578175004855757e-05
3565 1 -1.5071 78.8487 40.5073 28 0.9999999758719941 2.4128007153888243e-08
3566 2 1.14098 80.673 40.4969 25 0.9999981221812756 1.877818724955024e-06
3567 3 -0.423518 80.7559 40.4982 22 0.9998948531550337 0.00010514684496565403
3568 3 2.27539 77.0579 40.4841 24 0.999939171920078 6.0828079921718225e-05
3569 3 1.8332 80.0344 39.205 24 0.9999760927326905 2.3907267308285214e-05
3570 3 1.8675 80.0034 41.7558 24 0.9999823102281667 1.7689771834023824e-05
3571 1 0.864698 76.5713 38.9901 28 0.9999999998572315 1.427689306986761e-10
3572 1 0.84969 73.7395 40.4891 27 0.9999999754107701 2.4589231001420822e-08
3573 2 2.9865 75.5783 40.4811 25 0.9998456782362881 0.00015432176371136096
3574 3 -0.29683 75.6584 40.4857 22 0.9940394604612597 0.005960539538740166
3575 3 1.98025 71.9655 40.4946 25 0.9983169374932411 0.0016830625067594538
3576 3 2.28421 74.9133 39.2091 24 0.9999972906938484 2.7093061518302024e-06
3577 1 0.835767 76.5829 35.9918 28 0.9999999985655972 1.4344026229855432e-09
3578 3 2.30995 74.9109 41.7664 24 0.9999958822259081 4.117774092806246e-06
3579 1 0.869249 79.4064 37.4974 27 0.9999999742648104 2.5735190805683343e-08
3580 2 -1.2564 77.5631 37.4969 25 0.9998251595216646 0.00017484047833447492
3581 3 2.02718 77.4811 37.4937 22 0.9930688867935602 0.006931113206439636
3582 3 -0.275839 81.1785 37.491 25 0.998027226427491 0.0019727735725095998
3583 3 -0.578611 78.2299 36.2119 24 0.9999952324658419 4.7675341598038965e-06
3584 3 -0.556257 78.2289 38.7699 24 0.9999966796120519 3.320387947039654e-06
3585 1 -1.68661 81.6828 36.0008 28 0.999999908624196 9.137580335760894e-08
3586 1 3.03954 84.4954 37.497 29 0.9999999746560103 2.534398930944996e-08
3587 2 0.401169 82.6734 37.4999 25 0.9999985976889407 1.4023110600620579e-06
3588 3 1.96577 82.5926 37.499 22 0.9998858858215252 0.00011411417847382193
3589 3 -0.765694 86.2977 37.5165 24 0.9999389418187228 6.105818127657982e-05
3590 3 -0.321741 83.3366 36.2347 24 0.999978668579216 2.1331420783594915e-05
3591 1 -1.65332 81.6721 38.9984 28 0.9999999909086128 9.091386537579805e-09
3592 3 -0.294626 83.3161 38.7886 24 0.9999733883741551 2.6611625845600272e-05
3593 1 -1.75306 89.0676 40.532 29 0.9999999633839323 3.661606831035632e-08
3594 2 0.871204 90.8908 40.5374 25 0.9999985036345831 1.4963654163754216e-06
3595 3 -0.693696 90.9753 40.5351 22 0.9999158442570584 8.415574294107308e-05
3596 3 2.05915 87.2666 40.5044 24 0.9999095244403681 9.047555963159092e-05
3597 3 1.56728 90.2538 39.2454 24 0.9999735194722044 2.6480527794614143e-05
3598 3 1.60695 90.2286 41.7947 24 0.9999829252875753 1.7074712425140087e-05
3599 1 0.645571 86.782 39.0112 28 0.9999999996458415 3.541583314732557e-10
3600 1 0.66721 83.9406 40.5011 27 0.9999999712284446 2.877155556682799e-08
3601 2 2.78101 85.7916 40.5014 25 0.9997920570722894 0.000207942927710507
3602 3 -0.502447 85.8713 40.5052 22 0.9897033361320334 0.010296663867967416
3603 3 1.81771 82.1685 40.5088 26 0.998109436393692 0.0018905636063071458
3604 3 2.08241 85.1195 39.2312 24 0.9999962631717887 3.736828211448907e-06
3605 1 0.61047 86.7935 36.0117 28 0.9999999965121464 3.487853481423875e-09
3606 3 2.11573 85.1205 41.7894 24 0.9999933383606731 6.661639325681993e-06
3607 1 0.614097 89.6263 37.5332 27 0.9999999668966281 3.31033734006317e-08
3608 2 -1.48823 87.7727 37.5173 25 0.9997327894726842 0.00026721052731595846
3609 3 1.79533 87.6912 37.5168 22 0.9862166818978332 0.013783318102167399
3610 3 -0.559111 91.3903 37.5257 26 0.9971468327094396 0.0028531672905597544
3611 3 -0.819617 88.4402 36.229 24 0.9999930081642144 6.991835784859381e-06
3612 3 -0.794419 88.4469 38.7895 24 0.9999946780860792 5.321913919425439e-06
3613 1 -1.9699 91.8953 36.0315 28 0.9999999150929977 8.49070025086164e-08
3614 1 2.71979 94.707 37.5528 29 0.9999999518000362 4.8199963218528716e-08
3615 2 0.106954 92.8892 37.5308 25 0.9999987505522377 1.2494477624715965e-06
3616 3 1.67223 92.8101 37.536 22 0.9998927258766802 0.00010727412332055092
3617 3 -1.10865 96.5099 37.564 24 0.999832569626925 0.0001674303730757747
3618 3 -0.618379 93.5428 36.2628 24 0.9999757710971758 2.42289028225202e-05
3619 1 -1.93553 91.888 39.0347 28 0.9999999940901318 5.909868100166449e-09
3620 3 -0.595061 93.5339 38.8175 24 0.9999688310158635 3.116898413592801e-05
3621 1 -2.14371 99.2876 40.579 29 0.9999998784302807 1.215697191570562e-07
3622 2 0.448967 101.104 40.5932 25 0.9999977795010346 2.220498965750259e-06
3623 3 -1.11717 101.191 40.5921 22 0.9998709486509124 0.0001290513490864724
3624 3 1.69644 97.4872 40.5651 24 0.9996929315256046 0.0003070684743962546
3625 3 1.15852 100.461 39.3094 24 0.9999657909084244 3.420909157675461e-05
3626 3 1.17516 100.46 41.8669 24 0.9999659667288647 3.403327113563788e-05
3627 1 0.293924 97.0008 39.0653 28 0.9999999977948386 2.2051617123309555e-09
3628 1 0.351044 94.1547 40.5377 27 0.9999998322483598 1.6775164130439505e-07
3629 2 2.43489 96.0197 40.5683 25 0.9995027653779595 0.0004972346220408431
3630 3 -0.848427 96.1007 40.5655 22 0.9671350281489385 0.032864971851061096
3631 3 1.53518 92.3926 40.5488 26 0.9977091177333416 0.002290882266658897
3632 3 1.75023 95.3368 39.2952 24 0.9999920277548954 7.972245105295881e-06
3633 1 0.26912 96.9981 36.0532 28 0.9999999852705966 1.4729403646798023e-08
3634 3 1.78158 95.3515 41.8615 24 0.9999836155909038 1.6384409096503944e-05
3635 1 0.239218 99.8395 37.5718 27 0.9999998366828704 1.6331713129184335e-07
3636 2 -1.84363 97.9783 37.5603 25 0.9990519462600468 0.000948053739953543
3637 3 1.43941 97.8984 37.5623 22 0.95576694243606 0.04423305756394021
3638 3 -0.964601 101.586 37.5624 26 0.9970454546953655 0.0029545453046345774
3639 3 -1.1793 98.6463 36.2708 24 0.9999880068234444 1.1993176556638467e-05
3640 3 -1.16653 98.6599 38.837 24 0.9999856772753944 1.4322724605418232e-05
3641 1 2.48676 102.086 36.0579 28 0.9999999151650449 8.483495546326389e-08
3642 1 7.14283 104.903 37.4831 28 0.9999999720040837 2.7995915353781522e-08
3643 2 4.54218 103.089 37.5692 25 0.9999988842058735 1.115794126575098e-06
3644 3 6.10738 103.002 37.5549 22 0.9999159812119688 8.401878803078256e-05
3645 3 3.29564 106.719 37.4788 24 0.9999345546956574 6.544530434262656e-05
3646 3 3.8204 103.742 36.2944 24 0.9999199252443285 8.007475567235628e-05
3647 1 2.49069 102.098 39.0745 28 0.9999999944097571 5.590242772436874e-09
3648 3 3.82791 103.723 38.8525 24 0.9999779808597627 2.2019140237011206e-05
3649 1 2.19646 109.521 40.4442 29 0.999999966246144 3.3753855322817996e-08
3650 2 4.80118 111.338 40.4683 25 0.9999996108899911 3.8911000896903306e-07
3651 3 3.23736 111.42 40.4638 22 0.999931313304847 6.86866951527524e-05
3652 3 6.05657 107.697 40.468 24 0.9999268267347974 7.317326520188113e-05
3653 3 5.54069 110.672 39.2131 24 0.9999848978672856 1.5102132715992735e-05
3654 3 5.50454 110.71 41.7604 24 0.9999829990548332 1.7000945168284072e-05
3655 1 4.67896 107.187 38.9659 28 0.9999999642369495 3.5763050401281796e-08
3656 1 4.72636 104.348 40.5854 27 0.9999999124048461 8.759515549979751e-08
3657 2 6.79562 106.229 40.4594 25 0.9972565209234042 0.002743479076596563
3658 3 3.51189 106.307 40.4769 22 0.7981707957133305 0.20182920428666914
3659 3 5.95005 102.61 40.5893 25 0.9922092803911402 0.007790719608860974
3660 3 6.13427 105.56 39.175 24 0.9999525092443748 4.749075562496606e-05
3661 1 4.6905 107.207 35.9836 28 0.9999999988184181 1.1815820584234618e-09
3662 3 6.12281 105.539 41.732 24 0.9999004527638289 9.954723617256181e-05
3663 1 4.63323 110.05 37.4825 27 0.999999971817076 2.8182925310267117e-08
3664 2 2.5581 108.187 37.4753 25 0.9998145575569694 0.00018544244303136695
3665 3 5.84265 108.107 37.477 22 0.9904300306892343 0.009569969310765038
3666 3 3.45044 111.818 37.4884 26 0.9985979456516421 0.001402054348358811
3667 3 3.23968 108.865 36.2003 24 0.9999959831464047 4.016853594473596e-06
3668 3 3.22365 108.866 38.7573 24 0.9999910553758615 8.944624139923326e-06
3669 1 2.06512 112.319 35.9831 28 0.9999999958773529 4.12264761614118e-09
3670 1 6.7301 115.139 37.5013 29 0.9999999777267556 2.2273244715245922e-08
3671 2 4.11134 113.32 37.4773 25 0.9999993965831697 6.034168293478253e-07
3672 3 5.67549 113.237 37.4818 22 0.9999349126460262 6.508735397401854e-05
3673 3 2.90766 116.942 37.4829 24 0.9999465411592845 5.3458840715098526e-05
3674 3 3.40608 113.956 36.1918 24 0.9999821874375234 1.781256247758041e-05
3675 1 2.03359 112.331 38.9736 28 0.9999999290463045 7.095369557089189e-08
3676 3 3.37642 113.983 38.7366 24 0.9999861711930766 1.3828806924593703e-05
3677 1 1.8334 119.733 40.466 28 0.9999999766976198 2.330238125999616e-08
3678 2 4.4656 121.55 40.494 25 0.9999988603147394 1.139685260033896e-06
3679 3 2.90143 121.632 40.4907 22 0.9999064469682545 9.355303174531438e-05
3680 3 5.64493 117.932 40.4907 24 0.9999526143519062 4.7385648093012987e-05
3681 3 5.19775 120.884 39.2349 24 0.9999838268182385 1.6173181762879795e-05
3682 3 5.15536 120.912 41.7869 24 0.9999736931352716 2.630686472860227e-05
3683 1 4.27757 117.436 38.9851 28 0.9999999963209074 3.679091951818894e-09
3684 1 4.28294 114.604 40.4667 27 0.9999999719005044 2.8099493946086827e-08
3685 2 6.37107 116.459 40.4896 25 0.9998309540247359 0.00016904597526474528
3686 3 3.08626 116.544 40.4826 22 0.9910145039758277 0.008985496024172977
3687 3 5.46135 112.84 40.4539 25 0.9983723761114365 0.0016276238885628506
3688 3 5.70801 115.788 39.1997 24 0.9999933571763484 6.642823651451126e-06
3689 1 4.31567 117.425 35.9923 28 0.999999999734487 2.6551287939693354e-10
3690 3 5.67074 115.785 41.7564 24 0.9999952057720798 4.794227921469345e-06
3691 1 4.28813 120.264 37.4961 27 0.9999999745025615 2.549743933448007e-08
3692 2 2.1818 118.415 37.4826 25 0.9998492278764975 0.00015077212350202005
3693 3 5.46576 118.335 37.4883 22 0.9930417919643884 0.006958208035611907
3694 3 3.12986 122.031 37.5081 26 0.9984877678499335 0.001512232150065615
3695 3 2.87605 119.089 36.2126 24 0.9999970488600266 2.9511399748215453e-06
3696 3 2.84933 119.086 38.7704 24 0.9999944052435704 5.59475642950197e-06
3697 1 1.75008 122.532 36.0011 28 0.9999999925928478 7.407153126118038e-09
3698 1 6.44545 125.347 37.5155 29 0.999999978841718 2.115828259116853e-08
3699 2 3.8038 123.528 37.5019 25 0.9999987466231562 1.2533768446000053e-06
3700 3 5.36799 123.444 37.5034 22 0.9999156477339406 8.43522660591583e-05
3701 3 2.65576 127.137 37.5021 24 0.999947004407294 5.299559270548867e-05
3702 3 3.10606 124.171 36.2153 24 0.9999797276941434 2.0272305856619195e-05
3703 1 1.71194 122.542 38.9985 28 0.9999999077926247 9.220737511703433e-08
3704 3 3.07723 124.189 38.7657 24 0.9999835667319946 1.6433268007090072e-05
3705 1 1.62127 129.916 40.4985 28 0.9999999805667346 1.9433264739412744e-08
3706 2 4.27524 131.736 40.5106 25 0.999998057205519 1.94279448188576e-06
3707 3 2.71099 131.817 40.5108 22 0.9998855568977909 0.0001144431022100239
3708 3 5.40086 128.128 40.5139 24 0.9999543143398307 4.5685660168653136e-05
3709 3 4.99607 131.074 39.2444 24 0.9999813692701741 1.8630729825953113e-05
3710 3 4.96485 131.087 41.7986 24 0.9999734720174711 2.6527982528870203e-05
3711 1 4.02893 127.631 39.0067 28 0.999999998567711 1.432288735851406e-09
3712 1 3.98925 124.81 40.5039 27 0.9999999742899387 2.571006001269357e-08
3713 2 6.11419 126.649 40.5106 25 0.999858020754938 0.00014197924506134923
3714 3 2.83039 126.731 40.5074 22 0.9940001372630599 0.005999862736940003
3715 3 5.14106 123.045 40.4862 26 0.9982808201035998 0.001719179896402053
3716 3 5.44238 125.988 39.2204 24 0.999995366771995 4.63322800639666e-06
3717 1 4.06274 127.627 36.009 28 0.9999999998620108 1.3798890082544084e-10
3718 3 5.40832 125.979 41.7779 24 0.999996669192837 3.330807164672242e-06
3719 1 4.07321 130.452 37.5086 27 0.9999999762726407 2.372736093565488e-08
3720 2 1.94111 128.615 37.5044 25 0.9998743362598868 0.00012566374011318258
3721 3 5.22467 128.535 37.5071 22 0.9952468188020235 0.004753181197976192
3722 3 2.93663 132.223 37.5202 26 0.9984804675815222 0.0015195324184781797
3723 3 2.64052 129.285 36.234 24 0.9999974737481956 2.5262518029253476e-06
3724 3 2.61741 129.277 38.7926 24 0.9999963237672916 3.676232707092233e-06
3725 1 1.55458 132.725 36.0149 28 0.9999999868719397 1.3128060705142328e-08
3726 1 6.28026 135.537 37.5218 29 2.2834381616059067e-06 0.999997716561839
3727 2 3.6206 133.715 37.518 25 0.9999979319820561 2.0680179433459565e-06
3728 3 5.18478 133.632 37.5174 22 0.9998919774459695 0.00010802255403035466
3730 3 2.92486 134.366 36.234 24 0.9999802801637422 1.971983625788904e-05
3731 1 1.52497 132.727 39.0147 28 0.9999998977871768 1.0221282395014952e-07
3732 3 2.90377 134.374 38.7875 24 0.9999830573372772 1.6942662722257305e-05
3740 1 3.82951 134.996 40.5232 27 0.9999999802348898 1.9765111895557815e-08
3743 3 4.96051 133.227 40.5082 26 0.9983507899996807 0.0016492100003197303
3744 3 5.29358 136.173 39.2322 24 4.821225350041563e-05 0.9999517877464994
3746 3 5.26799 136.16 41.7893 24 4.264389713005951e-07 0.9999995735610291
4090 1 3.39707 64.0785 43.4713 28 0.9999999783235689 2.1676431494925153e-08
4093 3 -0.360419 65.8606 43.4885 24 0.9999509266349251 4.907336507420425e-05
4097 1 -1.29386 68.6215 46.5027 28 0.9999999775946711 2.240532920877317e-08
4098 2 1.37257 70.4454 46.4868 25 0.9999967932572025 3.2067427973385416e-06
4099 3 -0.191707 70.5272 46.4893 22 0.9998636591556841 0.00013634084431532166
4100 3 2.46271 66.8417 46.4805 24 0.9999438216027108 5.617839729010301e-05
4101 3 2.05796 69.8048 45.1931 24 0.9999744366537952 2.5563346205679805e-05
4102 3 2.09249 69.7735 47.7481 24 0.999969682623922 3.0317376077620253e-05
4103 1 1.05061 66.3518 44.9855 28 0.9999999999161222 8.387761267876114e-11
4104 1 1.01024 63.529 46.4878 27 0.999999999608832 3.9116851216514663e-10
4105 2 3.16549 65.3585 46.4778 25 0.9997756853475216 0.00022431465247900426
4106 3 -0.117734 65.4393 46.4828 22 0.9950598661889221 0.004940133811077381
4108 3 2.45728 64.6982 45.2062 24 0.9999877891198242 1.2210880174091944e-05
4109 1 1.01685 66.3645 41.9848 28 0.9999999992690451 7.309541590595441e-10
4110 3 2.48412 64.6959 47.7636 24 0.9999919102397374 8.089760264227053e-06
4111 1 1.08372 69.1769 43.4856 27 0.9999999759700774 2.4029922467911064e-08
4112 2 -1.06416 67.3439 43.4921 25 0.9998508500033261 0.00014914999667421872
4113 3 2.21922 67.2619 43.4872 22 0.9946358823797042 0.005364117620294947
4114 3 -0.0406533 70.9499 43.477 25 0.9981500387380211 0.0018499612619798458
4115 3 -0.382958 68.0074 42.2067 24 0.9999963139553507 3.6860446503712866e-06
4116 3 -0.356482 68.004 44.7641 24 0.9999974115652568 2.5884347441242317e-06
4117 1 -1.45383 71.4556 41.9876 28 0.9999998819067616 1.1809323815849014e-07
4118 1 3.3063 74.2639 43.4686 28 0.9999999779089139 2.209108629893285e-08
4119 2 0.646957 72.44 43.4883 25 0.999997559470196 2.4405298037426645e-06
4120 3 2.21123 72.3587 43.484 22 0.9998630092874451 0.00013699071255540566
4121 3 -0.467079 76.053 43.4933 24 0.9999501990254499 4.980097454974887e-05
4122 3 -0.0735052 73.1108 42.2255 24 0.999979943423084 2.0056576915674608e-05
4123 1 -1.41417 71.4427 44.9872 28 0.9999999844641058 1.553589335245238e-08
4124 3 -0.0394801 73.0808 44.781 24 0.9999719368848448 2.8063115154080325e-05
4125 1 -1.40024 78.8075 46.5128 28 0.9999999730253964 2.6974603448921636e-08
4126 2 1.25203 80.631 46.4931 25 0.9999950133732037 4.986626797110399e-06
4127 3 -0.312368 80.7135 46.4958 22 0.9998784087022733 0.00012159129772505732
4128 3 2.37137 77.0226 46.4798 24 0.9999313271830209 6.867281697896172e-05
4129 3 1.93337 80.0007 45.1924 24 0.9999742509671256 2.5749032875111535e-05
4130 3 1.98443 79.9534 47.745 24 0.9999827409836629 1.7259016336679563e-05
4131 1 0.951238 76.5387 44.988 28 0.9999999998849187 1.1508183188685123e-10
4132 1 0.935521 73.7078 46.4892 28 0.9999999746293188 2.537068153288697e-08
4133 2 3.0795 75.5417 46.4762 25 0.9998542238526804 0.00014577614731976183
4134 3 -0.203831 75.6225 46.4828 22 0.9934691601801465 0.006530839819854126
4135 3 2.06125 71.935 46.4981 25 0.9981838368360559 0.0018161631639447672
4136 3 2.36931 74.879 45.2076 24 0.9999973737038904 2.6262961102488585e-06
4137 1 0.903885 76.5572 41.9891 28 0.9999999986981774 1.3018221465511929e-09
4138 3 2.4069 74.8766 47.7652 24 0.9999958512641327 4.148735868453771e-06
4139 1 0.953784 79.3746 43.4931 27 0.9999999736406199 2.6359380348698338e-08
4140 2 -1.17696 77.5338 43.4981 25 0.9998305400214834 0.00016945997851725253
4141 3 2.10667 77.4512 43.4919 22 0.9925084003660253 0.007491599633975166
4142 3 -0.186409 81.1474 43.4814 25 0.9978604141497013 0.0021395858502983025
4143 3 -0.504925 78.2006 42.2097 24 0.9999949830222703 5.01697772827842e-06
4144 3 -0.467668 78.1968 44.7673 24 0.9999967205705594 3.2794294389077446e-06
4145 1 -1.60834 81.655 41.9984 28 0.9999998845981408 1.1540185896260337e-07
4146 1 3.13385 84.4655 43.4792 28 0.9999999710205043 2.8979497092575878e-08
4147 2 0.492578 82.6415 43.4978 25 0.999998322640545 1.677359455165919e-06
4148 3 2.05696 82.56 43.4932 22 0.999871343385456 0.00012865661454418718
4149 3 -0.668701 86.2696 43.5159 24 0.9999353175260153 6.468247398501812e-05
4150 3 -0.239398 83.3153 42.2421 24 0.9999808653162097 1.9134683789406255e-05
4151 1 -1.55201 81.6359 44.9951 28 0.9999999913231239 8.676875967680969e-09
4152 3 -0.19158 83.2739 44.7961 24 0.9999699512432846 3.0048756715849606e-05
4153 1 -1.6158 89.0191 46.5437 28 0.9999999548294564 4.517054231225501e-08
4154 2 1.0089 90.8467 46.5322 25 0.9999962589300776 3.7410699220941723e-06
4155 3 -0.555929 90.932 46.5329 23 0.9998957260401701 0.0001042739598299234
4156 3 2.19034 87.2196 46.4931 24 0.9998853410956537 0.00011465890434703232
4157 3 1.68826 90.2293 45.2238 24 0.9999717671497134 2.823285028542873e-05
4158 3 1.76164 90.1634 47.7692 24 0.9999843344771036 1.5665522894945398e-05
4159 1 0.759159 86.7447 45.0059 28 0.9999999879672973 1.2032703229360992e-08
4160 1 0.787976 83.8966 46.4989 27 0.999999980985564 1.9014435857909992e-08
4161 2 2.90884 85.7429 46.4867 25 0.9997871291369597 0.00021287086304059283
4162 3 -0.374738 85.8233 46.4952 22 0.985859926120984 0.01414007387901591
4163 3 1.93212 82.1247 46.5104 25 0.9979706928059964 0.0020293071940031705
4164 3 2.19755 85.0747 45.2224 24 0.9999962750275372 3.7249724629504635e-06
4165 1 0.69461 86.7712 42.0102 28 0.9999999963641262 3.6358741543455506e-09
4166 3 2.25127 85.0706 47.7791 24 0.9999926424758442 7.357524156172385e-06
4167 1 0.7098 89.6025 43.532 27 0.9999999658006941 3.419930561360527e-08
4168 2 -1.38968 87.7458 43.5206 25 0.9997087233147441 0.00029127668525600996
4169 3 1.89426 87.6622 43.5157 22 0.9801653691136364 0.019834630886364096
4170 3 -0.460151 91.3734 43.5199 25 0.9965118136061825 0.003488186393817774
4171 3 -0.730833 88.4157 42.2277 24 0.9999911994745541 8.800525444883874e-06
4172 3 -0.683083 88.4178 44.7866 24 0.999993932418659 6.0675813395147024e-06
4173 1 -1.88839 91.8813 42.0394 28 0.9999998930435017 1.0695649782267807e-07
4174 1 2.81136 94.6954 43.5578 29 0.9999999284103173 7.158968406440926e-08
4175 2 0.203681 92.8736 43.5371 25 0.9999988323538314 1.1676461679032598e-06
4176 3 1.7689 92.7953 43.5406 23 0.9998595245660549 0.00014047543394484058
4177 3 -1.03412 96.512 43.5922 24 0.9997291229763746 0.0002708770236259939
4178 3 -0.536836 93.5397 42.2829 24 0.9999770262540807 2.2973745917944966e-05
4179 1 -1.81885 91.8579 45.0359 30 0.9999999957876451 4.212354858959019e-09
4180 3 -0.485123 93.5044 44.8374 24 0.9999620781399945 3.792186000373104e-05
4181 1 -2.05786 99.2767 46.6253 29 0.999999214895797 7.851042021068387e-07
4182 2 0.510893 101.099 46.6629 25 0.9999994349353611 5.650646375553479e-07
4183 3 -1.05656 101.193 46.6615 23 0.9994334418701958 0.0005665581298047084
4184 3 1.80876 97.4634 46.5785 24 0.9989748536295876 0.0010251463704120175
4185 3 1.20867 100.473 45.3631 24 0.9996797267784174 0.00032027322158149376
4186 3 1.25854 100.449 47.921 23 0.9997977121291571 0.00020228787084304402
4187 1 0.38689 96.9883 45.0855 28 0.9999999895009424 1.0499057651038204e-08
4188 1 0.484536 94.1186 46.546 27 0.9999998735524409 1.264475588031607e-07
4189 2 2.55334 95.9988 46.5754 25 0.9988386499950822 0.001161350004917961
4190 3 -0.730025 96.0789 46.5781 22 0.8688190746249461 0.13118092537505344
4191 3 1.67034 92.3498 46.5595 26 0.9968760125428633 0.0031239874571359623
4192 3 1.85894 95.3118 45.3102 24 0.999988993888505 1.1006111495151867e-05
4193 1 0.329407 97.0029 42.0768 28 0.9999999626621843 3.733781569035053e-08
4194 3 1.92113 95.3198 47.8726 24 0.9999458287572636 5.417124273701555e-05
4195 1 0.288556 99.8542 43.6225 27 0.9999998629345962 1.3706540237600872e-07
4196 2 -1.77502 97.9783 43.5888 25 0.9964176764420034 0.003582323557996217
4197 3 1.50784 97.8982 43.5913 22 0.727646343085791 0.27235365691420826
4198 3 -0.940978 101.592 43.6056 26 0.9920420787743481 0.007957921225652717
4199 3 -1.12603 98.6454 42.2916 24 0.9999769453161517 2.3054683846610103e-05
4200 3 -1.09566 98.6685 44.8596 24 0.9999498491176242 5.015088237560752e-05
4201 1 2.50756 102.087 42.1049 28 0.9999471397137147 5.28602862853272e-05
4202 1 7.12464 104.923 43.4367 26 0.9999995641727136 4.358272875886378e-07
4203 2 4.55675 103.1 43.6289 25 0.9999981624215398 1.8375784603843099e-06
4204 3 6.12308 103.012 43.5972 22 0.9997830768655275 0.00021692313447102809
4205 3 3.25041 106.754 43.4299 24 0.9997136594594213 0.00028634054058033185
4206 3 3.82601 103.763 42.3587 24 0.9998055979371556 0.00019440206284478416
4207 1 2.52214 102.101 45.1305 28 0.9998141501661285 0.0001858498338718097
4208 3 3.85078 103.708 44.9287 25 0.9999568953941944 4.310460580594667e-05
4209 1 2.078 109.567 46.3796 27 0.9999997709829684 2.2901703041789405e-07
4210 2 4.66138 111.385 46.4411 25 0.9999989196632475 1.0803367527106964e-06
4211 3 3.09809 111.47 46.4312 23 0.9999145533070798 8.54466929212053e-05
4212 3 5.97517 107.724 46.4331 24 0.9965554668194614 0.003444533180537811
4213 3 5.42541 110.704 45.2061 24 0.9999874719792143 1.2528020786254333e-05