ITEM: TIMESTEP
0
ITEM: NUMBER OF ATOMS
2061
ITEM: BOX BOUNDS pp pp pp
0.0 148.41
0.0 154.076
0.0 6.02273
ITEM: ATOMS id type x y z Coordination
1524 2 40.9678 40.0897 2.31168 9
1552 2 45.7552 40.0897 2.38579 16
1556 3 44.1238 40.1488 2.35444 13
1558 3 44.4798 40.5973 5.3652 16
1580 2 50.5425 40.0897 2.46905 16
1584 3 48.9112 40.1488 2.43401 13
1586 3 49.2672 40.5973 5.44574 16
1608 2 55.3299 40.0897 2.56259 16
1612 3 53.6986 40.1488 2.5238 13
1614 3 54.0546 40.5973 5.53677 16
1636 2 60.1173 40.0895 2.66633 16
1640 3 58.486 40.1488 2.62404 13
1642 3 58.842 40.5973 5.63849 16
1664 2 64.9047 40.0895 2.77922 16
1668 3 63.2734 40.1488 2.73407 13
1670 3 63.6295 40.5973 5.75021 16
1692 2 69.6921 40.0895 2.89905 16
1696 3 68.0608 40.1488 2.85214 13
1698 3 68.4169 40.5973 5.87006 16
1718 3 72.8482 40.1488 2.97526 13
1720 3 73.2043 40.5973 5.9949 16
1948 1 40.693 46.2228 3.72408 16
1949 1 40.693 46.2228 0.712718 16
1951 1 43.0705 43.9959 5.29554 25
1952 1 40.7093 49.1319 5.18257 16
1953 1 40.6767 43.3138 2.26126 16
1955 2 40.4183 42.0842 5.28322 12
1957 2 42.812 45.2255 2.26361 24
1958 2 40.9677 50.3614 2.1574 15
1959 3 42.0496 42.025 5.31184 16
1960 3 41.7299 47.1608 5.23044 18
1965 3 41.6936 41.5765 2.30176 14
1966 3 42.0861 46.7123 2.23115 21
1969 3 42.1161 44.5278 0.970099 21
1970 3 41.6655 49.6615 0.87753 18
1971 3 41.6612 49.6666 3.46784 18
1972 3 42.1165 44.5284 3.56031 21
1975 1 43.0867 41.087 3.83318 18
1976 1 45.4804 46.2228 3.7979 28
1977 1 45.4804 46.2228 0.78652 28
1978 1 43.0867 41.0868 0.82182 18
1979 1 47.8579 43.9958 5.37446 27
1980 1 45.4967 49.1319 5.25622 27
1981 1 45.4641 43.3138 2.33458 27
1982 1 43.1029 48.4497 2.22118 27
1983 2 45.2057 42.0842 5.35545 22
1984 2 43.3614 47.2201 5.25496 25
1985 2 47.5994 45.2255 2.34207 25
1986 2 45.7551 50.3614 2.23157 25
1987 3 46.837 42.025 5.38802 19
1988 3 46.5173 47.1608 5.30672 22
1989 3 44.4435 45.2848 2.28915 22
1990 3 44.1238 50.4206 2.19854 22
1991 3 44.0874 45.7333 5.28838 24
1992 3 44.4798 50.869 5.20702 24
1993 3 46.481 41.5766 2.37706 21
1994 3 46.8735 46.7123 2.30826 24
1995 3 44.512 42.7794 4.04623 23
1996 3 44.0568 47.917 3.95779 24
1997 3 46.9036 44.528 1.04743 24
1998 3 46.4532 49.6613 0.953019 24
1999 3 46.4485 49.6667 3.54334 24
2000 3 46.9036 44.5283 3.63763 24
2001 3 44.0574 47.9178 0.525266 24
2002 3 44.508 42.7838 0.613801 23
2003 1 47.8741 41.087 3.91114 20
2004 1 50.2678 46.2228 3.88405 28
2005 1 50.2678 46.2228 0.872669 28
2006 1 47.8741 41.087 0.899778 20
2007 1 52.6453 43.9958 5.46537 27
2008 1 50.2841 49.1318 5.34368 27
2009 1 50.2515 43.3138 2.41884 27
2010 1 47.8904 48.4498 2.30145 27
2011 2 49.9931 42.0842 5.43831 22
2012 2 48.1488 47.2201 5.33603 25
2013 2 52.3868 45.2255 2.43298 25
2014 2 50.5425 50.3614 2.32024 25
2015 3 51.6244 42.025 5.47493 19
2016 3 51.3049 47.1608 5.39616 22
2017 3 49.2309 45.2848 2.37224 22
2018 3 48.9112 50.4206 2.28136 22
2019 3 48.8747 45.7333 5.37077 24
2020 3 49.2672 50.869 5.29082 24
2021 3 51.2684 41.5766 2.46285 21
2022 3 51.6609 46.7123 2.39841 24
2023 3 49.2996 42.7792 4.12842 23
2024 3 48.8444 47.9173 4.04012 24
2025 3 51.6914 44.5283 1.13683 24
2026 3 51.2408 49.661 1.04296 24
2027 3 51.2357 49.6669 3.63328 24
2028 3 51.6909 44.5281 3.72701 24
2029 3 48.8447 47.9176 0.607573 24
2030 3 49.2953 42.784 0.695999 23
2031 1 52.6615 41.087 3.9996 20
2032 1 55.0552 46.2228 3.98412 28
2033 1 55.0552 46.2228 0.972743 28
2034 1 52.6614 41.087 0.98824 20
2035 1 57.4327 43.9958 5.56919 27
2036 1 55.0715 49.1318 5.44728 27
2037 1 55.0389 43.3138 2.5151 27
2038 1 52.6777 48.4498 2.39619 27
2039 2 54.7805 42.0843 5.53251 22
2040 2 52.9362 47.2201 5.43104 25
2041 2 57.1744 45.2255 2.53751 25
2042 2 55.3299 50.3614 2.42605 25
2043 3 56.4118 42.025 5.57328 19
2044 3 56.0923 47.1608 5.50045 22
2045 3 54.0183 45.2848 2.46841 22
2046 3 53.6986 50.4206 2.38045 22
2047 3 53.6621 45.7333 5.46642 24
2048 3 54.0546 50.869 5.39142 24
2049 3 56.0558 41.5766 2.55979 21
2050 3 56.4483 46.7123 2.50317 24
2051 3 54.087 42.7792 4.22219 23
2052 3 53.6321 47.9176 4.13689 24
2053 3 56.4789 44.5286 1.23939 24
2054 3 56.0285 49.6609 1.14981 24
2055 3 56.023 49.6672 3.74012 24
2056 3 56.478 44.5278 3.82956 24
2057 3 53.6318 47.9173 0.704328 24
2058 3 54.0825 42.784 0.789767 23
2059 1 57.4491 41.087 4.09902 20
2060 1 59.8426 46.2228 4.09904 28
2061 1 59.8425 46.2228 1.08766 28
2062 1 57.4488 41.087 1.08765 20
2063 1 62.2202 43.9958 5.68588 27
2064 1 59.8589 49.1318 5.56877 27
2065 1 59.8263 43.3138 2.62373 27
2066 1 57.4651 48.4498 2.50728 27
2067 2 59.5679 42.0843 5.63835 22
2068 2 57.7235 47.2203 5.54156 25
2069 2 61.9618 45.2253 2.65589 25
2070 2 60.1173 50.3614 2.55108 25
2071 3 61.1992 42.025 5.68299 19
2072 3 60.8797 47.1608 5.62051 22
2073 3 58.8057 45.2848 2.57858 22
2074 3 58.4862 50.4206 2.49831 22
2075 3 58.4495 45.7333 5.57642 24
2076 3 58.842 50.869 5.51142 24
2077 3 60.8432 41.5766 2.66782 21
2078 3 61.2357 46.7123 2.62323 24
2079 3 58.8744 42.779 4.32796 23
2080 3 58.42 47.9179 4.24975 24
2081 3 61.2668 44.529 1.35537 24
2082 3 60.8159 49.6609 1.27533 24
2083 3 60.8104 49.6672 3.86564 24
2084 3 61.265 44.5273 3.94554 24
2085 3 58.4189 47.9169 0.81717 24
2086 3 58.8699 42.784 0.895526 23
2087 1 62.2365 41.0868 4.20903 20
2088 1 64.6302 46.2228 4.22832 28
2089 1 64.6299 46.2228 1.21693 28
2090 1 62.2362 41.0868 1.19766 20
2091 1 67.0076 43.9958 5.81395 27
2092 1 64.6464 49.1318 5.70829 27
2093 1 64.6137 43.3138 2.74397 27
2094 1 62.2525 48.4498 2.63555 27
2095 2 64.3553 42.0843 5.75506 22
2096 2 62.5109 47.2203 5.66799 25
2097 2 66.7492 45.2253 2.78676 25
2098 2 64.9046 50.3613 2.69561 25
2099 3 65.9866 42.025 5.8028 19
2100 3 65.6671 47.1608 5.75557 22
2101 3 63.5929 45.2848 2.70251 22
2102 3 63.2736 50.4206 2.63614 22
2103 3 63.2369 45.7333 5.70066 24
2104 3 63.6295 50.869 5.65209 24
2105 3 65.6306 41.5765 2.78575 21
2106 3 66.0232 46.7123 2.75764 24
2107 3 63.6617 42.7792 4.44514 23
2108 3 63.2077 47.9184 4.37908 24
2109 3 66.0545 44.5294 1.48353 24
2110 3 65.6033 49.661 1.41944 24
2111 3 65.5978 49.6672 4.00972 24
2112 3 66.0521 44.5269 4.07371 24
2113 3 63.2059 47.9164 0.946502 24
2114 3 63.6575 42.784 1.01269 23
2115 1 67.024 41.0868 4.32809 20
2116 1 69.4177 46.2228 4.36934 28
2117 1 69.4173 46.2228 1.35796 28
2118 1 67.0236 41.0868 1.31673 20
2119 1 71.795 43.9958 5.95001 27
2120 1 69.4336 49.1318 5.86301 27
2121 1 69.4011 43.3138 2.87348 27
2122 1 67.0399 48.4498 2.77965 27
2123 2 69.1429 42.0843 5.88048 22
2124 2 67.2983 47.2203 5.80873 25
2125 2 71.5366 45.2253 2.92669 25
2126 2 69.692 50.3613 2.85659 25
2127 3 70.7741 42.025 5.93 19
2128 3 70.4545 47.1608 5.90238 22
2129 3 68.3804 45.2848 2.83805 22
2130 3 68.061 50.4206 2.79238 22
2131 3 68.0243 45.7333 5.83719 24
2132 3 68.417 50.869 5.81166 24
2133 3 70.418 41.5765 2.91103 21
2134 3 70.8107 46.7123 2.90302 24
2135 3 68.4489 42.7794 4.57166 23
2136 3 67.9957 47.919 4.52309 24
2137 3 70.8423 44.5298 1.62072 24
2138 3 70.3904 49.6613 1.57876 24
2139 3 70.3854 49.6669 4.169 24
2140 3 70.8391 44.5264 4.21092 24
2141 3 67.9929 47.9159 1.09054 24
2142 3 68.4451 42.7838 1.13919 23
2143 1 71.8114 41.0868 4.45333 20
2144 1 74.2051 46.2228 4.51705 28
2145 1 74.2047 46.2228 1.50566 28
2146 1 71.811 41.0868 1.44196 20
2147 1 74.1887 43.3138 3.00823 27
2148 1 71.8273 48.4498 2.9352 27
2149 2 73.9303 42.0843 6.01098 22
2150 2 72.0857 47.2203 5.95946 25
2151 3 73.1678 45.2848 2.98094 22
2152 3 72.8484 50.4206 2.96132 22
2153 3 72.8117 45.7333 5.98173 24
2154 3 73.2044 50.8691 5.98396 24
2155 3 73.2362 42.7797 4.70388 23
2156 3 72.7835 47.9195 4.67705 24
2157 3 72.7798 47.9153 1.24452 24
2158 3 73.2326 42.7835 1.27139 23
2382 1 40.6928 56.4944 3.53855 16
2383 1 40.6931 56.4944 0.527186 16
2385 1 43.0705 54.2676 5.11903 25
2386 1 40.7093 59.4035 4.98051 16
2387 1 40.6768 53.5855 2.09128 16
2389 2 40.4183 52.3559 5.11845 15
2391 2 42.812 55.4973 2.08143 24
2392 2 40.9677 60.6331 1.94856 15
2393 3 42.0496 52.2968 5.14717 19
2394 3 41.7299 57.4326 5.0385 18
2399 3 41.6936 51.8483 2.13947 17
2400 3 42.0861 56.9841 2.04126 21
2403 3 42.1156 54.799 0.79129 21
2404 3 41.6658 59.9328 0.670739 18
2405 3 41.6609 59.9385 3.26104 18
2406 3 42.1168 54.8007 3.38147 21
2409 1 43.0867 51.3586 3.67274 26
2410 1 45.4802 56.4946 3.60654 28
2411 1 45.4805 56.4946 0.595169 28
2412 1 43.0867 51.3588 0.661374 26
2413 1 47.8579 54.2676 5.19651 27
2414 1 45.4967 59.4035 5.04411 27
2415 1 45.4642 53.5855 2.16206 27
2416 1 43.1029 58.7214 2.01926 27
2417 2 45.2057 52.3559 5.18913 25
2418 2 43.3614 57.4919 5.05912 25
2419 2 47.5995 55.4971 2.15692 25
2420 2 45.7551 60.6332 2.01109 25
2421 3 46.837 52.2968 5.22321 22
2422 3 46.5173 57.4326 5.10845 22
2423 3 44.4435 55.5566 2.10418 22
2424 3 44.1238 60.6922 1.98101 22
2425 3 44.0873 56.0051 5.10095 24
2426 3 44.4798 61.1409 4.98556 24
2427 3 46.481 51.8483 2.21477 24
2428 3 46.8735 56.9839 2.11292 24
2429 3 44.5125 53.0505 3.8769 24
2430 3 44.0563 58.1882 3.75795 24
2431 3 46.9032 54.7991 0.865918 24
2432 3 46.4537 59.9325 0.735682 24
2433 3 46.448 59.939 3.32601 24
2434 3 46.9042 54.8007 3.45607 24
2435 3 44.0579 58.1902 0.325394 24
2436 3 44.5076 53.0561 0.444491 24
2437 1 47.8741 51.3586 3.75225 28
2438 1 50.2677 56.4944 3.6913 28
2439 1 50.2678 56.4944 0.679924 28
2440 1 47.8741 51.3588 0.740892 28
2441 1 52.6453 54.2676 5.29195 27
2442 1 50.2841 59.4035 5.12526 27
2443 1 50.2515 53.5855 2.24841 27
2444 1 47.8903 58.7214 2.09244 27
2445 2 49.9931 52.3559 5.27473 25
2446 2 48.1488 57.4919 5.13508 25
2447 2 52.3869 55.4971 2.25063 25
2448 2 50.5425 60.6332 2.09163 25
2449 3 51.6244 52.2968 5.31532 22
2450 3 51.3047 57.4326 5.19648 22
2451 3 49.2309 55.5566 2.18587 22
2452 3 48.9112 60.6922 2.0536 22
2453 3 48.8747 56.0051 5.18099 24
2454 3 49.2672 61.1407 5.05845 24
2455 3 51.2684 51.8483 2.30569 24
2456 3 51.6609 56.9839 2.20286 24
2457 3 49.3 53.0504 3.96085 24
2458 3 48.8438 58.1882 3.83473 24
2459 3 51.6908 54.7994 0.95812 24
2460 3 51.2415 59.932 0.819127 24
2461 3 51.2351 59.9394 3.40947 24
2462 3 51.6914 54.8004 3.54824 24
2463 3 48.8453 58.19 0.402132 24
2464 3 49.2947 53.0564 0.528439 24
2465 1 52.6615 51.3586 3.84801 28
2466 1 55.0552 56.4944 3.79796 28
2467 1 55.0552 56.4944 0.786569 28
2468 1 52.6614 51.3588 0.836648 28
2469 1 57.4329 54.2676 5.40968 27
2470 1 55.0715 59.4035 5.23055 27
2471 1 55.0389 53.5855 2.35415 27
2472 1 52.6777 58.7214 2.1859 27
2473 2 54.7805 52.3559 5.37863 25
2474 2 52.9361 57.4919 5.23123 25
2475 2 57.1744 55.4971 2.36747 25
2476 2 55.3299 60.6332 2.19748 25
2477 3 56.4117 52.2968 5.42686 22
2478 3 56.0923 57.4324 5.3084 22
2479 3 54.0183 55.5566 2.28771 22
2480 3 53.6987 60.6922 2.14845 22
2481 3 53.6621 56.0051 5.28113 24
2482 3 54.0546 61.1407 5.1543 24
2483 3 56.0558 51.8483 2.4154 24
2484 3 56.4483 56.9839 2.31669 24
2485 3 54.0877 53.0501 4.06318 24
2486 3 53.6315 58.1885 3.93251 24
2487 3 56.4786 54.7997 1.07249 24
2488 3 56.0294 59.9314 0.928289 24
2489 3 56.0221 59.9399 3.51865 24
2490 3 56.4783 54.8001 3.66257 24
2491 3 53.6326 58.1897 0.499869 24
2492 3 54.0818 53.0567 0.630785 24
2493 1 57.4491 51.3588 3.96295 28
2494 1 59.8426 56.4944 3.93234 28
2495 1 59.8425 56.4944 0.920936 28
2496 1 57.4488 51.3588 0.951585 28
2497 1 62.2203 54.2674 5.55353 27
2498 1 59.8589 59.4035 5.3686 27
2499 1 59.8263 53.5856 2.48304 27
2500 1 57.4649 58.7214 2.30668 27
2501 2 59.5681 52.3559 5.50406 25
2502 2 57.7233 57.4919 5.35397 25
2503 2 61.9619 55.4971 2.51218 25
2504 2 60.1172 60.6332 2.33855 25
2505 3 61.1991 52.2968 5.56056 22
2506 3 60.8797 57.4326 5.45084 22
2507 3 58.8055 55.5566 2.41485 22
2508 3 58.4863 60.6921 2.27466 22
2509 3 58.4493 56.0051 5.40681 24
2510 3 58.8422 61.1407 5.28278 24
2511 3 60.8431 51.8483 2.5465 24
2512 3 61.2359 56.9839 2.46062 24
2513 3 58.8753 53.0499 4.18746 24
2514 3 58.4194 58.189 4.05818 24
2515 3 61.2665 54.8004 1.21342 24
2516 3 60.8174 59.9308 1.07262 24
2517 3 60.8091 59.9405 3.663 24
2518 3 61.2651 54.7994 3.80347 24
2519 3 58.4195 58.1893 0.625479 24
2520 3 58.8691 53.0568 0.755058 24
2521 1 62.2365 51.3586 4.09905 28
2522 1 64.6302 56.4944 4.09913 28
2523 1 64.6297 56.4944 1.0877 28
2524 1 62.236 51.3586 1.0877 28
2525 1 67.0077 54.2674 5.72447 27
2526 1 64.6464 59.4035 5.54836 26
2527 1 64.6137 53.5856 2.63725 27
2528 1 62.2524 58.7216 2.46278 27
2529 2 64.3555 52.3559 5.65272 25
2530 2 62.5106 57.4921 5.50995 25
2531 2 66.7495 55.4971 2.68684 25
2532 2 64.9044 60.6331 2.52576 25
2533 3 65.9865 52.2968 5.71693 22
2534 3 65.6673 57.4326 5.6289 22
2535 3 63.5929 55.5566 2.57162 22
2536 3 63.2739 60.6921 2.44352 22
2537 3 63.2368 56.0051 5.56289 24
2538 3 63.6297 61.1407 5.45611 24
2539 3 65.6305 51.8483 2.69948 24
2540 3 66.0233 56.9839 2.63887 24
2541 3 63.6627 53.0499 4.3359 24
2542 3 63.2075 58.1897 4.21897 24
2543 3 66.0546 54.8013 1.38293 24
2544 3 65.6051 59.9305 1.26176 24
2545 3 65.5962 59.9408 3.85213 24
2546 3 66.0518 54.7985 3.97298 24
2547 3 63.2063 58.1883 0.786237 24
2548 3 63.6565 53.0568 0.903482 24
2549 1 67.024 51.3586 4.25572 28
2550 1 69.4179 56.4944 4.29769 28
2551 1 69.417 56.4944 1.28626 28
2552 1 67.0234 51.3586 1.24437 28
2553 1 71.795 54.2674 5.91728 27
2554 1 69.4336 59.4034 5.77292 26
2555 1 69.4013 53.5856 2.81473 27
2556 1 67.0398 58.7216 2.65978 26
2557 2 69.143 52.3561 5.82259 25
2558 2 67.298 57.4921 5.70271 25
2559 2 71.5369 55.4971 2.88683 25
2560 2 69.6916 60.6329 2.76366 25
2561 3 70.7739 52.2968 5.89198 22
2562 3 70.4548 57.4326 5.84079 22
2563 3 68.3802 55.5564 2.7582 22
2564 3 68.0616 60.6921 2.66397 22
2565 3 68.0242 56.0051 5.75041 24
2566 3 68.4173 61.1407 5.68393 24
2567 3 70.4179 51.8483 2.87072 24
2568 3 70.8109 56.9841 2.8486 24
2569 3 68.45 53.0501 4.5071 24
2570 3 67.9958 58.1908 4.41859 24
2571 3 70.8428 54.8022 1.57701 24
2572 3 70.3923 59.9309 1.49801 24
2573 3 70.3837 59.9405 4.08827 24
2574 3 70.8383 54.7976 4.16711 24
2575 3 67.9927 58.1873 0.985867 24
2576 3 68.444 53.0567 1.07464 24
2577 1 71.8116 51.3586 4.42798 28
2578 1 74.2053 56.4944 4.51706 28
2579 1 74.2043 56.4944 1.50565 28
2580 1 71.8108 51.3586 1.41661 28
2581 1 74.1887 53.5858 3.00685 27
2582 1 71.8272 58.7218 2.89305 25
2583 2 73.9304 52.3561 6.0061 25
2584 2 72.0853 57.4921 5.92621 25
2585 3 73.1675 55.5564 2.96639 22
2586 3 72.849 60.6921 2.92982 22
2587 3 72.8114 56.0049 5.96171 24
2588 3 73.2049 61.1409 5.95886 24
2589 3 73.2368 53.0505 4.69375 24
2590 3 72.7844 58.1922 4.64981 24
2591 3 72.7791 58.186 1.21719 24
2592 3 73.2319 53.0561 1.26123 24
2818 1 40.6928 66.7662 3.29648 16
2819 1 40.6931 66.7662 0.285132 16
2821 1 43.0705 64.5394 4.87944 25
2822 1 40.7092 69.6753 4.7224 16
2823 1 40.6768 63.8573 1.86612 16
2825 2 40.4183 62.6277 4.90024 15
2827 2 42.812 65.769 1.83647 24
2828 2 40.9677 70.9049 1.68331 15
2829 3 42.0496 62.5686 4.92412 19
2830 3 41.7299 67.7044 4.78659 18
2835 3 41.6936 62.1199 1.92017 17
2836 3 42.0861 67.2557 1.79026 21
2839 3 42.1149 65.07 0.551426 21
2840 3 41.6658 70.2046 0.405549 18
2841 3 41.6609 70.2103 2.99582 18
2842 3 42.1177 65.0734 3.14161 21
2845 1 43.0865 61.6304 3.45211 26
2846 1 45.4802 66.7662 3.3406 28
2847 1 45.4805 66.7662 0.329248 28
2848 1 43.0868 61.6304 0.440733 26
2849 1 47.8581 64.5394 4.93746 27
2850 1 45.4966 69.6753 4.75544 27
2851 1 45.4642 63.8573 1.91923 27
2852 1 43.1029 68.9932 1.75173 27
2853 2 45.2057 62.6276 4.95524 25
2854 2 43.3614 67.7635 4.79641 25
2855 2 47.5995 65.769 1.88993 25
2856 2 45.7551 70.905 1.7125 25
2857 3 46.837 62.5686 4.98523 22
2858 3 46.5173 67.7044 4.83012 22
2859 3 44.4435 65.8282 1.84962 22
2860 3 44.1238 70.964 1.69478 22
2861 3 44.0873 66.2769 4.84485 24
2862 3 44.4798 71.4125 4.69414 24
2863 3 46.481 62.1199 1.98133 24
2864 3 46.8735 67.2557 1.83642 24
2865 3 44.5128 63.322 3.6406 24
2866 3 44.0555 68.4589 3.48935 24
2867 3 46.9023 65.0698 0.605339 24
2868 3 46.4537 70.204 0.437885 24
2869 3 46.448 70.2107 3.02817 24
2870 3 46.9051 65.0734 3.19548 24
2871 3 44.0588 68.4629 0.0567976 24
2872 3 44.5071 63.3283 0.208187 24
2873 1 47.8739 61.6304 3.51892 28
2874 1 50.2675 66.7662 3.39999 28
2875 1 50.2681 66.7662 0.38864 28
2876 1 47.8741 61.6304 0.507555 28
2877 1 52.6455 64.5394 5.01563 27
2878 1 50.2841 69.6753 4.80078 27
2879 1 50.2516 63.8573 1.98915 27
2880 1 47.8903 68.9932 1.79418 27
2881 2 49.9931 62.6276 5.02696 25
2882 2 48.1488 67.7635 4.84441 25
2883 2 52.3869 65.769 1.96244 25
2884 2 50.5425 70.905 1.7529 25
2885 3 51.6244 62.5686 5.06559 22
2886 3 51.3047 67.7044 4.88957 22
2887 3 49.2309 65.8282 1.90863 22
2888 3 48.9112 70.964 1.72935 22
2889 3 48.8747 66.2769 4.90095 24
2890 3 49.2672 71.4127 4.72708 24
2891 3 51.2684 62.1201 2.06133 24
2892 3 51.6609 67.2556 1.89944 24
2893 3 49.3006 63.3214 3.70907 24
2894 3 48.8428 68.4587 3.53633 24
2895 3 51.6896 65.0698 0.677912 24
2896 3 51.2418 70.2032 0.482733 24
2897 3 51.2348 70.2115 3.07303 24
2898 3 51.6924 65.0735 3.26799 24
2899 3 48.8463 68.4631 0.103731 24
2900 3 49.2941 63.3288 0.276678 24
2901 1 52.6614 61.6304 3.60658 28
2902 1 55.0549 66.7662 3.48342 28
2903 1 55.0555 66.7662 0.472074 28
2904 1 52.6615 61.6304 0.595214 28
2905 1 57.433 64.5394 5.1248 27
2906 1 55.0715 69.6753 4.86649 27
2907 1 55.039 63.8571 2.08409 27
2908 1 52.6775 68.9932 1.85354 27
2909 2 54.7805 62.6276 5.12305 25
2910 2 52.9361 67.7635 4.91119 25
2911 2 57.1745 65.769 2.06491 25
2912 2 55.3299 70.9052 1.81228 25
2913 3 56.4117 62.5687 5.1741 22
2914 3 56.0922 67.7044 4.97479 22
2915 3 54.0183 65.8282 1.99002 22
2916 3 53.6986 70.9639 1.77896 22
2917 3 53.6621 66.2769 4.97845 24
2918 3 54.0548 71.4127 4.77471 24
2919 3 56.0556 62.1201 2.16857 24
2920 3 56.4485 67.2556 1.98965 24
2921 3 54.0886 63.3208 3.80108 24
2922 3 53.63 68.4586 3.6023 24
2923 3 56.4771 65.07 0.779401 24
2924 3 56.0301 70.2021 0.548708 24
2925 3 56.0214 70.2126 3.13904 24
2926 3 56.4797 65.0734 3.36936 24
2927 3 53.6339 68.4632 0.169613 24
2928 3 54.0809 63.3294 0.368723 24
2929 1 57.4489 61.6304 3.72419 28
2930 1 59.8422 66.7662 3.60672 26
2931 1 59.8429 66.7662 0.595343 28
2932 1 57.4488 61.6304 0.712832 28
2933 1 62.2206 64.5392 5.28251 26
2934 1 59.8589 69.6755 4.9689 27
2935 1 59.8264 63.8571 2.21708 27
2936 1 57.4648 68.9932 1.94155 27
2937 2 59.5681 62.6276 5.25511 25
2938 2 57.7232 67.7635 5.00922 25
2939 2 61.9622 65.7689 2.21606 25
2940 2 60.1172 70.9053 1.90705 25
2941 3 61.1989 62.5687 5.3238 22
2942 3 60.8797 67.7044 5.10438 22
2943 3 58.8057 65.8282 2.1073 22
2944 3 58.4862 70.9637 1.85561 22
2945 3 58.4493 66.277 5.09055 24
2946 3 58.8423 71.4127 4.84917 24
2947 3 60.8429 62.1201 2.31521 24
2948 3 61.236 67.2553 2.12613 25
2949 3 58.8766 63.3202 3.92833 24
2950 3 58.4176 68.4586 3.70043 24
2951 3 61.2651 65.0706 0.92697 23
2952 3 60.819 70.2003 0.653888 24
2953 3 60.8074 70.2143 3.24434 24
2954 3 61.2663 65.0729 3.51673 24
2955 3 58.4214 68.4632 0.267577 23
2956 3 58.8676 63.3302 0.496007 24
2957 1 62.2365 61.6304 3.88417 28
2958 1 64.6297 66.7661 3.79834 26
2959 1 64.6299 66.7662 0.786797 28
2960 1 62.236 61.6304 0.87285 28
2961 1 67.0082 64.539 5.51323 26
2962 1 64.6464 69.6756 5.14444 27
2963 1 64.6139 63.8573 2.40701 27
2964 1 62.2519 68.9934 2.08209 26
2965 2 64.3556 62.6276 5.43894 25
2966 2 62.5101 67.7637 5.16245 25
2967 2 66.7501 65.7687 2.44511 25
2968 2 64.9041 70.9056 2.07699 25
2969 3 65.9861 62.5687 5.53053 22
2970 3 65.6674 67.7042 5.31378 22
2971 3 63.5929 65.8282 2.28361 22
2972 3 63.2742 70.9634 1.98701 23
2973 3 63.2365 66.2773 5.2606 25
2974 3 63.63 71.4125 4.97953 24
2975 3 65.6303 62.1202 2.51576 24
2976 3 66.0238 67.2551 2.34369 25
2977 3 63.6646 63.3194 4.10757 24
2978 3 63.2056 68.459 3.85705 24
2979 3 66.0539 65.0721 1.14667 23
2980 3 65.6089 70.1972 0.840683 24
2981 3 65.5926 70.2169 3.4314 24
2982 3 66.0522 65.0715 3.73619 24
2983 3 63.2086 68.4624 0.423885 23
2984 3 63.6542 63.3309 0.675287 24
2985 1 67.0243 61.6304 4.09917 28
2986 1 69.418 66.7658 4.09971 26
2987 1 69.4163 66.7661 1.08786 28
2988 1 67.0231 61.6304 1.08786 28
2989 1 71.7956 64.5389 5.83167 25
2990 1 69.4335 69.6756 5.47441 26
2991 1 69.4013 63.8574 2.67232 26
2992 1 67.0387 68.9938 2.32531 25
2993 2 69.1435 62.6277 5.68843 25
2994 2 67.2967 67.764 5.41555 25
2995 2 71.5379 65.7684 2.7776 25
2996 2 69.6895 70.9059 2.42514 25
2997 3 70.7732 62.5687 5.80198 22
2998 3 70.456 67.7044 5.65628 22
2999 3 68.3798 65.8282 2.55208 22
3000 3 68.0635 70.9625 2.24615 23
3001 3 68.0234 66.2775 5.52459 25
3002 3 68.4183 71.4119 5.24707 24
3003 3 70.4176 62.1202 2.77735 24
3004 3 70.8116 67.2554 2.68856 25
3005 3 68.4522 63.3191 4.35583 24
3006 3 67.9949 68.4611 4.12367 24
3007 3 70.8437 65.0751 1.46126 23
3008 3 70.3996 70.1936 1.20868 24
3009 3 70.3777 70.2201 3.79952 24
3010 3 70.837 65.0686 4.05082 24
3011 3 67.9943 68.4601 0.690018 23
3012 3 68.4413 63.3311 0.923501 24
3013 1 71.8122 61.6302 4.36941 28
3014 1 74.2065 66.7659 4.51712 26
3015 1 74.2025 66.7658 1.50559 28
3016 1 71.8104 61.6302 1.35805 28
3017 1 74.189 63.8577 3.00332 25
3018 1 71.8261 68.9946 2.74873 25
3019 2 73.9312 62.628 5.9943 25
3020 2 72.0832 67.7646 5.82018 25
3021 3 73.1661 65.8279 2.92525 23
3022 3 72.8554 70.9619 2.79368 24
3023 3 72.8102 66.277 5.90368 24
3024 3 73.2095 71.4124 5.84306 23
3025 3 73.2386 63.32 4.66854 24
3026 3 72.7869 68.4663 4.55954 25
3027 3 72.7774 68.4549 1.12618 23
3028 3 73.2298 63.33 1.23594 24
3254 1 40.6928 77.038 3.01135 16
3255 1 40.6931 77.038 6.02273 16
3257 1 43.0705 74.8111 4.58238 25
3258 1 40.7092 79.9471 4.43107 16
3259 1 40.6768 74.1289 1.59109 16
3261 2 40.4183 72.8994 4.63139 15
3263 2 42.812 76.0408 1.53813 24
3264 2 40.9677 81.1766 1.38832 15
3265 3 42.0497 72.8402 4.6433 19
3266 3 41.7299 77.976 4.49102 18
3271 3 41.6936 72.3917 1.64375 17
3272 3 42.0861 77.5275 1.49289 21
3275 3 42.1142 75.3409 0.258482 21
3276 3 41.6654 80.477 0.107266 18
3277 3 41.6615 80.4816 2.69748 18
3278 3 42.1185 75.3459 2.84871 21
3281 1 43.0865 71.9022 3.16819 26
3282 1 45.4801 77.038 3.01135 28
3283 1 45.4807 77.038 6.02273 28
3284 1 43.0868 71.9022 0.156799 26
3285 1 47.8579 74.8111 4.59414 27
3286 1 45.4966 79.9471 4.41678 27
3287 1 45.4642 74.1289 1.60518 27
3288 1 43.1029 79.2649 1.43988 27
3289 2 45.2057 72.8994 4.64995 25
3290 2 43.3614 78.0352 4.48378 25
3291 2 47.5994 76.0408 1.54393 25
3292 2 45.7551 81.1766 1.36871 25
3293 3 46.837 72.8402 4.66509 22
3294 3 46.5173 77.9762 4.48651 22
3295 3 44.4435 76.0998 1.53403 22
3296 3 44.1236 81.2358 1.37118 22
3297 3 44.0873 76.5485 4.5307 24
3298 3 44.4798 81.6843 4.36678 24
3299 3 46.481 72.3917 1.66723 24
3300 3 46.8735 77.5275 1.49065 24
3301 3 44.5126 73.5938 3.33601 24
3302 3 44.0548 78.7298 3.17123 24
3303 3 46.9011 75.3404 0.266908 24
3304 3 46.4531 80.4765 0.0897164 24
3305 3 46.4486 80.4819 2.67991 24
3306 3 46.9062 75.3462 2.85711 24
3307 3 44.0595 78.7356 5.76148 24
3308 3 44.5073 73.5998 5.92627 24
3309 1 47.8738 71.9022 3.19607 28
3310 1 50.2674 77.038 3.01134 28
3311 1 50.2681 77.038 6.02273 28
3312 1 47.8744 71.9022 0.184668 28
3313 1 52.6455 74.8111 4.61108 27
3314 1 50.284 79.9471 4.39683 27
3315 1 50.2516 74.1289 1.62481 27
3316 1 47.8904 79.2649 1.42794 27
3317 2 49.9931 72.8992 4.67563 25
3318 2 48.1488 78.0352 4.47766 25
3319 2 52.3868 76.0408 1.55225 25
3320 2 50.5425 81.1766 1.34129 25
3321 3 51.6244 72.8404 4.69587 22
3322 3 51.3049 77.9762 4.48013 22
3323 3 49.2309 76.0998 1.53945 22
3324 3 48.911 81.2358 1.34619 22
3325 3 48.8747 76.5485 4.53328 24
3326 3 49.2672 81.6845 4.3386 24
3327 3 51.2684 72.3917 1.7002 24
3328 3 51.6611 77.5273 1.48746 24
3329 3 49.3006 73.5932 3.35779 24
3330 3 48.8417 78.7293 3.16172 24
3331 3 51.6879 75.3398 0.278916 24
3332 3 51.2409 80.4762 0.0650437 24
3333 3 51.2357 80.4824 2.65519 24
3334 3 51.694 75.3469 2.86908 24
3335 3 48.8475 78.7361 5.75196 24
3336 3 49.2941 73.6004 5.94805 24
3337 1 52.6611 71.9022 3.23579 28
3338 1 55.0545 77.038 3.01132 28
3339 1 55.0557 77.038 6.02279 28
3340 1 52.6618 71.9022 0.224367 28
3341 1 57.433 74.8113 4.63749 27
3342 1 55.0712 79.9471 4.36705 27
3343 1 55.039 74.1289 1.654 27
3344 1 52.6777 79.2647 1.41069 27
3345 2 54.7805 72.8992 4.71346 25
3346 2 52.9362 78.035 4.46879 25
3347 2 57.1744 76.041 1.56519 25
3348 2 55.3298 81.1768 1.30034 25
3349 3 56.4118 72.8405 4.7425 22
3350 3 56.0923 77.9762 4.47037 22
3351 3 54.0183 76.0998 1.54743 22
3352 3 53.6984 81.2358 1.30997 22
3353 3 53.6621 76.5487 4.53707 24
3354 3 54.0548 81.6846 4.29764 24
3355 3 56.0556 72.3917 1.74972 24
3356 3 56.4485 77.5273 1.48257 24
3357 3 54.0888 73.5922 3.38972 24
3358 3 53.6284 78.7284 3.14783 24
3359 3 56.4745 75.3388 0.297413 24
3360 3 56.0289 80.4756 0.0278601 24
3361 3 56.0227 80.483 2.61791 24
3362 3 56.4822 75.3478 2.8875 24
3363 3 53.6357 78.737 5.73806 24
3364 3 54.0806 73.6015 5.97999 24
3365 1 57.4482 71.9022 3.29664 28
3366 1 59.8413 77.038 3.01124 27
3367 1 59.8435 77.0378 6.02285 28
3368 1 57.4492 71.9022 0.285178 28
3369 1 62.2207 74.8113 4.6843 27
3370 1 59.8584 79.9471 4.31792 28
3371 1 59.8266 74.1287 1.70188 28
3372 1 57.4651 79.2647 1.38367 28
3373 2 59.5681 72.8989 4.77444 25
3374 2 57.7235 78.0349 4.45476 25
3375 2 61.9621 76.0411 1.58803 25
3376 2 60.1169 81.1769 1.233 25
3377 3 61.1989 72.8408 4.82092 23
3378 3 60.8797 77.9765 4.45361 22
3379 3 58.8055 76.0997 1.56036 22
3380 3 58.4859 81.2358 1.25293 22
3381 3 58.4493 76.5488 4.54316 25
3382 3 58.8423 81.6848 4.23297 25
3383 3 60.8428 72.3917 1.83175 25
3384 3 61.2362 77.527 1.47407 25
3385 3 58.8775 73.5907 3.44095 24
3386 3 58.4148 78.7271 3.12563 24
3387 3 61.2605 75.3375 0.329567 23
3388 3 60.8171 80.4748 5.98842 23
3389 3 60.8095 80.4839 2.55552 24
3390 3 61.2708 75.3493 2.91945 24
3391 3 58.4243 78.7384 5.71584 24
3392 3 58.8665 73.603 0.00851421 24
3393 1 62.2351 71.9023 3.40028 28
3394 1 64.6265 77.0378 3.01092 26
3395 1 64.6317 77.0377 6.02315 28
3396 1 62.2366 71.9022 0.388803 28
3397 1 67.0093 74.811 4.78912 28
3398 1 64.645 79.947 4.22247 28
3399 1 64.6142 74.1281 1.79409 27
3400 1 62.2522 79.2646 1.33544 27
3401 2 64.3558 72.8984 4.88767 25
3402 2 62.5106 78.0344 4.42931 25
3403 2 66.7501 76.0411 1.63901 25
3404 2 64.9033 81.1771 1.10389 25
3405 3 65.9853 72.8416 4.97656 23
3406 3 65.6674 77.9769 4.41814 23
3407 3 63.5928 76.0992 1.58486 23
3408 3 63.2733 81.2356 1.15109 22
3409 3 63.2365 76.5491 4.55457 25
3410 3 63.63 81.6854 4.1173 25
3411 3 65.6294 72.3921 1.98993 25
3412 3 66.0246 77.5261 1.45572 26
3413 3 63.6674 73.5881 3.53553 24
3414 3 63.2003 78.7245 3.08454 24
3415 3 66.0448 75.3345 0.399053 23
3416 3 65.6055 80.4742 5.86527 23
3417 3 65.5963 80.485 2.43161 24
3418 3 66.0603 75.3523 2.98825 25
3419 3 63.2139 78.741 5.67476 23
3420 3 63.651 73.6061 0.103237 24
3421 1 67.0225 71.9028 3.6073 28
3422 1 69.3962 77.0362 3.0071 27
3423 1 69.4238 77.0358 6.02616 28
3424 1 67.023 71.9023 0.596098 28
3425 1 71.8024 74.8105 5.18465 28
3426 1 69.4296 79.9468 3.96915 27
3427 1 69.4026 74.1258 2.03435 27
3428 1 67.0395 79.2644 1.22596 28
3429 2 69.1447 72.8967 5.15281 25
3430 2 67.2964 78.033 4.36927 25
3431 2 71.5425 76.0313 1.85581 22
3432 2 69.6865 81.1759 0.788484 25
3433 3 70.7681 72.8441 5.37502 23
3434 3 70.4574 77.9814 4.29428 23
3435 3 68.3795 76.0975 1.64866 23
3436 3 68.0613 81.2358 0.927621 23
3437 3 68.0227 76.5503 4.58368 26
3438 3 68.4185 81.6865 3.86626 26
3439 3 70.4136 72.3937 2.3696 26
3440 3 70.8207 77.5167 1.38877 25
3441 3 68.4603 73.5827 3.75868 25
3442 3 67.9826 78.718 2.98346 25
3443 3 70.8259 75.3301 0.652936 22
3444 3 70.3925 80.4781 5.53486 24
3445 3 70.3867 80.4833 2.09757 26
3446 3 70.8466 75.3603 3.23383 25
3447 3 68.0072 78.7479 5.57401 23
3448 3 68.4314 73.613 0.327057 24
3449 1 71.8165 71.8991 4.10099 28
3450 1 74.2049 77.038 3.05885 26
3451 1 74.2049 77.038 6.03321 26
3452 1 71.8058 71.9023 1.0899 27
3453 1 74.1946 74.129 2.97452 24
3454 1 71.8215 79.261 0.796633 27
3455 2 73.9435 72.9017 5.92451 25
3456 2 72.0634 78.0021 4.0725 24
3457 3 73.1379 76.0761 2.16091 26
3458 3 72.857 81.2346 0.299231 24
3459 3 72.7945 76.5676 4.80027 25
3460 3 73.2089 81.6848 3.22143 24
3461 3 73.2486 73.5745 4.49991 25
3462 3 72.7549 78.6923 2.44679 24
3463 3 72.8301 78.7925 5.03447 23
3464 3 73.2138 73.6181 1.06569 26
3688 1 40.6928 87.3098 2.72623 16
3689 1 40.6931 87.3096 5.73761 16
3691 1 43.0705 85.0829 4.27265 25
3692 1 40.7092 90.2187 4.15444 16
3693 1 40.6768 84.4007 1.30163 16
3695 2 40.4183 83.1711 4.34373 15
3697 2 42.812 86.3125 1.23356 24
3698 2 40.9677 91.4483 1.11358 15
3699 3 42.0497 83.112 4.33961 19
3700 3 41.7301 88.2478 4.20019 18
3705 3 41.6936 82.6633 1.34291 17
3706 3 42.0861 87.7993 1.19788 21
3709 3 42.1137 85.612 5.97934 21
3710 3 41.6646 90.7495 5.84999 18
3711 3 41.6622 90.7525 2.41745 18
3712 3 42.1189 85.618 2.54689 21
3715 1 43.0864 82.1738 2.85455 26
3716 1 45.4802 87.3096 2.68212 28
3717 1 45.4805 87.3096 5.69349 28
3718 1 43.0868 82.174 5.8659 26
3719 1 47.8579 85.0829 4.23081 27
3720 1 45.4966 90.2187 4.10069 27
3721 1 45.4642 84.4007 1.26903 27
3722 1 43.103 89.5365 1.14096 27
3723 2 45.2057 83.1711 4.31604 25
3724 2 43.3614 88.307 4.17782 25
3725 2 47.5994 86.3126 1.18812 25
3726 2 45.7551 91.4483 1.056 25
3727 3 46.8372 83.112 4.30944 22
3728 3 46.5175 88.2478 4.15031 22
3729 3 44.4433 86.3716 1.2124 22
3730 3 44.1236 91.5076 1.07485 22
3731 3 44.0873 86.8201 4.21371 24
3732 3 44.4798 91.9563 4.07032 24
3733 3 46.481 82.6633 1.31543 24
3734 3 46.8735 87.7993 1.14859 24
3735 3 44.5119 83.8663 3.00732 24
3736 3 44.0545 89.0012 2.86356 24
3737 3 46.9005 85.6116 5.9372 24
3738 3 46.452 90.7495 5.79254 24
3739 3 46.4497 90.7525 2.35996 24
3740 3 46.9068 85.6185 2.50477 24
3741 3 44.0598 89.0075 5.45387 24
3742 3 44.508 83.8708 5.59748 24
3743 1 47.8738 82.1738 2.82668 28
3744 1 50.2675 87.3096 2.62272 28
3745 1 50.268 87.3096 5.63411 28
3746 1 47.8744 82.174 5.83801 28
3747 1 52.6453 85.0829 4.17241 27
3748 1 50.284 90.2187 4.02983 27
3749 1 50.2518 84.4007 1.22438 27
3750 1 47.8904 89.5365 1.08218 27
3751 2 49.9932 83.1711 4.27802 25
3752 2 48.1488 88.307 4.12153 25
3753 2 52.3868 86.3126 1.1254 25
3754 2 50.5424 91.4483 0.980585 25
3755 3 51.6246 83.112 4.26719 22
3756 3 51.3049 88.248 4.08307 22
3757 3 49.2307 86.3716 1.16051 22
3758 3 48.911 91.5076 1.00649 22
3759 3 48.8747 86.8201 4.16103 24