ITEM: TIMESTEP
6500
ITEM: NUMBER OF ATOMS
13888
ITEM: BOX BOUNDS pp pp pp
45.0 100.0
50.0 105.0
-18.06819 30.11365
ITEM: ATOMS id type x y z Coordination
3 3 50.3508 50.1282 -14.6239 20
4 3 48.8062 50.9881 -11.6294 22
6 3 52.9194 51.0606 -15.385 24
7 3 54.0384 51.0668 -12.9646 24
19 1 45.2805 57.6344 -14.908 27
21 1 45.9457 54.884 -13.7161 25
23 1 45.6413 52.6998 -15.6372 21
25 2 47.1894 55.3547 -16.5399 21
27 3 46.106 51.6825 -12.0692 25
28 3 46.4354 57.5838 -13.234 22
29 3 47.5862 51.3748 -14.6181 23
30 3 46.4158 56.7593 -16.242 26
31 3 46.4948 54.8555 -17.8829 22
34 3 46.811 54.2986 -15.3627 23
35 1 47.8636 52.2688 -12.8071 24
36 1 50.442 58.0157 -14.9331 23
37 1 49.9187 56.5707 -17.7479 29
38 1 49.1913 51.2601 -15.7401 26
39 1 52.5654 54.6159 -13.0418 28
41 1 49.3441 54.7112 -14.512 28
43 2 50.469 53.3018 -11.6797 23
44 2 48.013 57.6485 -13.3249 24
45 2 51.9778 55.5367 -16.0524 27
47 3 51.3838 52.2814 -12.5434 22
48 3 51.1831 57.6327 -13.1088 24
49 3 48.7482 55.5091 -16.4339 22
51 3 48.6326 56.1913 -13.423 25
54 3 51.271 56.9375 -16.2457 25
55 3 49.2964 53.574 -12.7087 23
56 3 48.5658 58.371 -14.6154 24
57 3 51.3904 54.686 -17.4275 26
60 3 51.3933 54.8315 -14.7204 25
62 3 50.3155 52.7786 -16.1657 23
63 1 51.7453 52.4248 -14.591 29
66 1 52.7113 51.0854 -17.4276 26
72 2 52.7592 57.7823 -13.0013 25
77 3 53.5295 55.6757 -15.9863 23
79 3 53.4295 56.2838 -12.898 23
83 3 53.6977 53.3913 -14.0294 23
84 3 53.3194 58.2742 -14.4015 25
89 3 53.406 58.4555 -17.7593 23
90 3 53.7478 53.0273 -17.4716 25
1767 3 46.4888 54.8242 -11.8646 22
1773 1 49.9456 56.5906 -11.7732 29
1793 3 51.3444 54.7344 -11.4307 25
1797 3 48.6528 58.2693 -11.9898 23
1802 1 52.657 51.088 -11.4393 27
1825 3 53.4133 58.4566 -11.7574 23
1826 3 53.7382 53.149 -11.4907 25
1761 2 47.1825 55.3669 -10.5368 22
42 1 47.7993 59.0392 -16.3462 26
1785 3 48.739 55.5339 -10.4304 22
1790 3 51.2722 56.9895 -10.2552 26
1778 1 47.7914 59.0103 -10.3218 26
12195 2 50.5051 53.2569 -17.6734 24
1733 3 45.3616 50.6968 -15.4976 24
1766 3 46.4043 56.7691 -10.2393 26
12156 3 48.9183 50.9356 -17.6503 21
13059 1 60.874 50.0169 23.3845 26
20 1 45.1223 56.6598 -17.9268 25
1756 1 45.1001 56.6782 -11.8984 24
70 1 52.7179 59.2108 -16.0775 28
1798 3 50.3097 52.8018 -10.1714 23
1781 2 51.9499 55.5724 -10.0631 27
1806 1 52.7008 59.1805 -10.0696 28
5 2 54.4157 50.5181 -15.3251 25
8 2 59.3558 50.4159 -15.5649 25
9 3 57.8466 50.6568 -15.6567 23
10 3 58.2164 51.1069 -12.7397 24
12 3 62.4715 50.8656 -14.7923 27
64 1 54.772 56.7653 -14.413 30
65 1 54.7393 56.8416 -17.3421 27
67 1 56.9913 54.5527 -12.8399 27
69 1 54.6573 53.8488 -15.8397 26
71 2 54.4062 52.6234 -12.8378 24
73 2 56.7866 55.7393 -15.8545 24
75 3 55.9647 52.6145 -12.7078 23
76 3 55.9094 57.6311 -12.8654 23
81 3 55.4354 51.7668 -15.4856 26
82 3 56.0962 57.1875 -15.8617 25
85 3 56.096 55.0263 -17.1129 25
88 3 56.0841 54.9926 -14.6089 25
91 1 57.0537 51.8348 -14.2484 24
92 1 59.4581 56.9557 -14.3705 28
93 1 59.5075 56.7355 -17.3067 27
94 1 56.8381 51.6836 -17.0794 26
95 1 61.6938 54.6431 -12.7228 26
97 1 59.2513 53.9133 -15.559 27
99 2 58.9827 52.5039 -12.4917 25
100 2 57.4682 57.7694 -12.7812 25
101 2 61.5774 55.6058 -15.8366 24
103 3 60.5501 52.2762 -12.4747 25
104 3 60.6798 57.5014 -12.7921 23
105 3 58.3457 55.7815 -15.7654 23
107 3 58.1243 56.2325 -12.8162 26
109 3 60.0525 51.8633 -15.3352 25
110 3 60.8959 57.0347 -15.7342 25
111 3 58.4688 53.3833 -13.7325 24
112 3 58.1459 58.4122 -14.058 23
113 3 60.7959 54.9596 -17.0918 27
116 3 61.0788 54.6073 -14.6265 24
117 3 58.1595 58.3161 -17.4865 24
118 3 58.3515 53.0988 -17.1846 24
119 1 61.5341 52.5839 -14.2587 24
122 1 61.4086 51.5621 -16.7161 30
126 1 61.9677 59.0363 -15.8081 26
128 2 62.2409 57.6977 -12.7863 25
135 3 62.8757 56.1763 -12.7742 26
140 3 62.8573 58.4056 -14.0386 22
145 3 62.959 58.2884 -17.4763 24
1801 1 54.7553 56.829 -11.3532 27
1821 3 56.1009 55.0338 -11.1096 25
1829 1 59.4956 56.7444 -11.2776 27
1830 1 56.8591 51.6625 -11.0683 26
1849 3 60.7959 54.9718 -11.0631 27
1853 3 58.1426 58.3003 -11.4615 24
1854 3 58.3709 53.0868 -11.1515 25
1858 1 61.4699 51.5567 -10.6641 30
1881 3 62.9424 58.2967 -11.4693 24
13 3 62.8828 50.8714 -11.8564 22
133 3 63.1327 55.6618 -15.8296 25
139 3 63.1122 53.2135 -13.1618 25
146 3 62.9899 52.9565 -16.5548 26
1882 3 63.0179 53.0021 -10.5607 25
12165 3 62.8362 50.8678 -17.9014 22
98 1 57.2715 59.0889 -15.8083 28
11 2 63.9453 50.5662 -14.8828 26
14 2 68.8564 50.6232 -14.9043 26
15 3 67.3444 50.6456 -14.9422 24
16 3 67.5583 50.7986 -11.9023 22
120 1 64.6323 57.9867 -14.5798 23
121 1 64.2853 56.617 -17.3555 27
123 1 66.5039 54.5822 -12.8681 26
125 1 63.8786 54.0257 -14.8788 25
127 2 63.5921 52.3408 -11.9177 27
129 2 66.3447 55.6523 -15.8637 23
131 3 65.1494 52.1641 -11.8883 24
132 3 65.4835 57.6051 -12.7855 23
137 3 64.8587 51.844 -14.8639 25
138 3 65.6873 57.0702 -15.8788 25
141 3 65.6853 54.8755 -17.1335 24
144 3 65.8121 54.6276 -14.7011 23
147 1 66.1729 51.2069 -13.3567 28
148 1 69.4319 57.925 -14.4756 21
149 1 69.0565 56.5863 -17.3273 28
150 1 65.9113 52.928 -16.1601 25
151 1 71.2532 54.7242 -12.8222 26
153 1 68.563 53.9699 -14.8345 25
155 2 68.2733 52.2306 -11.8532 24
156 2 67.0512 57.7017 -12.798 26
157 2 71.0975 55.6532 -15.8145 23
159 3 69.8584 51.9526 -11.8414 23
160 3 70.3081 57.4927 -12.7201 23
161 3 67.9047 55.6851 -15.7941 24
163 3 67.6488 56.1713 -12.7556 25
165 3 69.6511 51.9489 -14.9017 25
166 3 70.4645 57.0826 -15.8526 25
167 3 67.7897 53.049 -13.1307 24
168 3 67.5853 58.3329 -14.137 23
169 3 70.4789 54.8644 -17.1044 24
172 3 70.5232 54.6722 -14.6369 23
173 3 67.7882 58.3197 -17.5774 24
174 3 67.8339 52.9963 -16.5596 25
175 1 71.0502 51.6273 -13.5024 27
178 1 70.6688 52.9754 -16.258 25
182 2 71.8776 57.6762 -12.6708 26
1857 1 64.276 56.6492 -11.3609 27
1877 3 65.6806 54.8882 -11.1367 24
1885 1 69.0348 56.6246 -11.3002 28
1886 1 65.9029 52.9869 -10.1929 24
1905 3 70.4439 54.8443 -11.059 24
1909 3 67.8063 58.3686 -11.5529 24
1910 3 67.8564 52.999 -10.5346 26
1914 1 70.5464 52.9883 -10.2099 24
12279 2 63.5787 52.3263 -17.9172 27
12283 3 65.1324 52.1288 -17.8663 25
12307 2 68.2655 52.2626 -17.8839 25
12311 3 69.8453 52.0375 -17.8835 24
17 3 72.1137 50.709 -14.8835 26
188 3 72.3971 58.2736 -14.0326 23
154 1 66.8534 59.1193 -15.9178 26
12168 3 67.5713 50.8165 -17.9462 22
18 3 72.3644 50.7488 -11.9069 23
12170 3 72.3076 50.8855 -17.9549 21
907 1 60.9105 50.037 29.3862 25
180 1 71.6613 59.1548 -15.7463 26
10417 2 46.691 50.0641 21.2373 25
22 1 45.4599 59.4264 -13.0804 25
26 2 45.622 60.7 -16.2283 24
32 3 46.2878 60.0346 -17.4918 23
33 3 46.0696 59.7055 -15.0365 22
40 1 50.1383 59.6412 -12.9169 27
46 2 50.398 60.8472 -16.0522 25
50 3 48.8156 60.8597 -16.1449 23
52 3 49.0135 61.2484 -13.1366 27
58 3 51.0634 60.0817 -17.2907 24
59 3 50.9441 59.9371 -14.824 23
78 3 53.6344 60.9696 -15.9647 22
80 3 53.852 61.3267 -12.9901 26
191 1 45.5359 66.7762 -14.7799 26
192 1 45.4171 67.0911 -17.592 24
193 1 47.7383 64.6998 -13.2352 26
195 1 45.357 64.0302 -16.2351 23
197 2 47.5056 65.742 -16.2634 25
199 3 46.3708 62.3051 -13.1845 22
200 3 46.5854 67.4999 -13.1903 23
201 3 46.2993 62.0991 -16.102 22
202 3 46.8468 67.1881 -16.2398 27
203 3 46.7885 64.9633 -17.4979 24
206 3 46.7922 65.0207 -14.968 23
207 1 47.741 61.9701 -14.6861 28
208 1 50.2013 66.8952 -14.693 30
209 1 50.2214 66.9452 -17.6719 29
210 1 47.6802 61.9007 -17.6618 27
211 1 52.5263 64.7644 -13.1745 27
213 1 50.1563 64.1134 -16.108 29
215 2 49.7869 62.7746 -13.0645 25
216 2 48.1343 67.8067 -13.1646 25
217 2 52.2683 65.8902 -16.1802 25
219 3 51.3055 62.5505 -13.0425 24
220 3 51.3592 67.716 -13.2022 23
221 3 49.0482 65.8295 -16.2058 23
223 3 48.8721 66.284 -13.176 27
225 3 51.1138 62.237 -15.9929 24
226 3 51.5401 67.3152 -16.176 25
227 3 49.0866 63.4171 -14.3282 25
229 3 51.5784 65.1526 -17.4518 24
232 3 51.5664 65.1267 -14.9172 24
234 3 49.1105 63.3324 -17.7917 24
235 1 52.5686 62.0514 -14.5451 28
238 1 52.5402 61.9695 -17.5106 28
244 2 52.9164 67.9224 -13.1397 25
249 3 53.8092 65.9667 -16.1207 23
251 3 53.6127 66.3977 -13.1434 26
255 3 53.9116 63.4964 -14.2285 24
262 3 53.9166 63.4273 -17.6836 24
1768 3 46.2694 60.0113 -11.4401 23
1794 3 51.0535 60.0854 -11.258 24
1928 1 45.3951 67.094 -11.5689 24
1939 3 46.7757 64.9464 -11.4937 23
1945 1 50.2212 66.9121 -11.6685 29
1946 1 47.6618 61.8829 -11.6237 27
1965 3 51.5623 65.1401 -11.4329 24
1970 3 49.1027 63.2989 -11.748 25
1974 1 52.5232 61.9528 -11.4671 28
1998 3 53.907 63.4153 -11.6521 24
1931 1 45.3364 64.0259 -10.2251 23
1933 2 47.4856 65.7249 -10.2552 25
1938 3 46.8421 67.18 -10.2354 28
1953 2 52.2481 65.8739 -10.1544 25
1957 3 49.0273 65.7992 -10.1833 23
1962 3 51.5125 67.2971 -10.1509 26
1762 2 45.6052 60.6896 -10.1829 24
1937 3 46.2849 62.0927 -10.0759 22
1949 1 50.1428 64.1023 -10.0768 28
1985 3 53.7883 65.9716 -10.1008 23
1786 3 48.7947 60.8368 -10.1091 23
68 1 54.9927 59.6761 -12.9062 28
74 2 55.2213 60.9103 -15.9418 25
86 3 55.8367 60.1525 -17.2057 23
87 3 55.8094 60.1298 -14.6802 23
96 1 59.6707 59.6601 -12.8996 27
102 2 59.9335 60.8394 -15.9044 25
106 3 58.3697 60.9015 -15.9033 22
108 3 58.6109 61.3418 -12.8973 26
114 3 60.5991 60.0893 -17.1733 23
115 3 60.5522 60.0582 -14.6486 23
134 3 63.1367 60.9026 -15.8497 23
236 1 54.9836 66.998 -14.6539 30
237 1 54.9978 66.9992 -17.6253 28
239 1 57.237 64.7708 -13.1036 28
241 1 54.9209 64.1941 -16.013 27
243 2 54.6029 62.8527 -12.951 25
245 2 57.0392 65.9467 -16.1209 25
247 3 56.1293 62.681 -12.9582 24
248 3 56.1336 67.8038 -13.1518 23
253 3 55.9224 62.33 -15.9446 25
254 3 56.3513 67.3972 -16.1447 25
257 3 56.3284 65.2346 -17.3856 24
260 3 56.3258 65.2384 -14.8486 24
263 1 57.3136 61.9621 -14.4532 28
264 1 59.7539 66.981 -14.5826 30
265 1 59.7508 66.9813 -17.5504 28
266 1 57.2902 61.9573 -17.4353 28
267 1 62.0051 64.7688 -13.0256 27
269 1 59.6382 64.1699 -15.945 27
271 2 59.3319 62.8742 -12.8889 25
272 2 57.6946 67.9378 -13.089 25
273 2 61.8038 65.9122 -16.04 25
275 3 60.8754 62.6837 -12.9103 24
276 3 60.9151 67.7359 -13.0628 23
277 3 58.5879 65.9925 -16.0511 23
279 3 58.3607 66.4082 -13.0591 26
281 3 60.6488 62.2663 -15.8985 24
282 3 61.1307 67.368 -16.0695 25
283 3 58.6664 63.4945 -14.1815 24
285 3 61.1068 65.19 -17.2969 24
288 3 61.1036 65.202 -14.7669 24
290 3 58.6777 63.4564 -17.6209 24
291 1 62.051 62.0197 -14.4322 27
294 1 62.0124 61.9379 -17.3766 28
300 2 62.4609 67.9132 -12.9797 25
307 3 63.1708 66.3894 -12.9396 26
1822 3 55.8305 60.1572 -11.1749 23
1850 3 60.5824 60.0823 -11.1433 23
1973 1 54.9777 66.9997 -11.6155 28
1993 3 56.3031 65.2396 -11.369 24
2001 1 59.7397 66.979 -11.5362 28
2002 1 57.2868 61.9515 -11.3945 28
2021 3 61.1061 65.1896 -11.2807 24
2026 3 58.6603 63.4486 -11.5865 24
2030 1 62.0002 61.9329 -11.3587 28
305 3 63.3626 65.9761 -15.9609 23
1990 3 56.3267 67.3996 -10.1196 25
1981 2 57.019 65.953 -10.1042 25
2013 3 58.5677 65.9917 -10.0441 23
2018 3 61.1138 67.3659 -10.0491 25
136 3 63.3902 61.3531 -12.8426 25
311 3 63.4441 63.513 -14.07 23
318 3 63.4656 63.4134 -17.4736 24
2054 3 63.4662 63.4094 -11.4519 24
124 1 64.3694 59.6812 -12.6447 26
130 2 64.6909 60.868 -15.787 26
142 3 65.4044 60.1213 -17.0507 24
143 3 65.2143 59.9121 -14.5769 22
152 1 69.1973 59.7275 -12.4587 27
158 2 69.4734 60.8693 -15.5486 26
162 3 67.9191 60.8972 -15.7086 24
164 3 68.1741 61.3703 -12.7204 24
170 3 70.1946 60.1808 -16.8424 24
171 3 69.9612 59.8596 -14.3807 24
292 1 64.529 67.0077 -14.4535 29
293 1 64.517 66.9981 -17.4321 28
295 1 66.7779 64.853 -12.8825 28
297 1 64.4241 64.1846 -15.8085 27
299 2 64.1043 62.8777 -12.7828 25
301 2 66.5831 65.9434 -15.8842 25
303 3 65.653 62.6707 -12.7669 23
304 3 65.7062 67.7715 -12.9126 23
309 3 65.4501 62.2472 -15.6984 24
310 3 65.8962 67.3828 -15.9436 26
313 3 65.9277 65.1767 -17.1358 24
316 3 65.8796 65.2294 -14.614 24
319 1 66.8674 62.1125 -14.271 27
320 1 69.3438 67.0711 -14.2135 29
321 1 69.2787 67.083 -17.178 28
322 1 66.8125 61.9992 -17.227 28
323 1 71.5321 64.9274 -12.6458 28
325 1 69.2046 64.2342 -15.593 27
327 2 68.8836 62.9013 -12.5725 25
328 2 67.2504 67.9714 -12.845 25
329 2 71.3735 65.978 -15.6532 25
331 3 70.429 62.7045 -12.5206 23
332 3 70.5102 67.7901 -12.6314 23
333 3 68.1406 66.009 -15.7752 23
335 3 67.9592 66.4403 -12.7644 26
337 3 70.2105 62.2546 -15.4067 24
338 3 70.6891 67.4101 -15.6989 25
339 3 68.2231 63.5779 -13.8337 24
341 3 70.7186 65.2058 -16.9046 24
344 3 70.6667 65.2407 -14.3925 25
346 3 68.2908 63.3918 -17.2527 25
347 1 71.6738 62.2389 -14.0142 26
350 1 71.5357 62.0671 -16.9524 28
354 2 72.0545 68.022 -12.5338 25
1878 3 65.4054 60.1422 -11.0256 24
1906 3 70.1749 60.2024 -10.8125 24
2029 1 64.5042 67.016 -11.4008 28
2049 3 65.913 65.1763 -11.1267 23
2057 1 69.2752 67.0995 -11.1598 28
2058 1 66.7627 61.9706 -11.2058 27
2077 3 70.7041 65.1875 -10.8818 24
2082 3 68.2518 63.3618 -11.2106 26
2086 1 71.521 62.0272 -10.9234 27
228 3 48.7898 68.4328 -14.4538 24
233 3 48.7788 68.4082 -17.8872 25
1969 3 48.7833 68.404 -11.8741 23
194 1 45.3522 69.3922 -13.4893 24
198 2 45.7263 70.8236 -16.461 23
204 3 46.2657 70.1446 -17.762 22
205 3 46.3998 70.1303 -15.1744 23
212 1 50.274 69.709 -13.4044 26
214 1 47.9578 69.1213 -16.1811 26
218 2 50.5053 70.9439 -16.4429 25
222 3 48.9283 70.9847 -16.4184 22
224 3 49.0613 71.365 -13.4004 25
230 3 51.1715 70.2493 -17.7161 24
231 3 51.1507 70.2322 -15.1534 24
242 1 52.6835 69.1884 -16.1579 26
250 3 53.7564 71.0216 -16.3606 22
252 3 53.9586 71.413 -13.3841 25
256 3 53.5878 68.541 -14.4275 24
261 3 53.5695 68.4817 -17.8361 24
363 1 45.5347 76.7612 -14.9587 29
364 1 45.4341 76.9395 -17.9982 26
365 1 47.8963 74.6933 -13.5122 26
367 1 45.4733 74.1057 -16.4743 27
368 2 45.1072 73.8351 -13.4015 23
369 2 47.5719 75.9027 -16.5467 25
371 3 46.48 73.0513 -13.4592 24
373 3 46.3915 72.3065 -16.4546 21
375 3 46.8539 75.2008 -17.8044 24
378 3 46.9061 75.1655 -15.2755 23
379 1 47.7071 71.9529 -14.8861 28
380 1 50.3132 76.9169 -15.0432 29
383 1 52.5812 74.7246 -13.4884 28
385 1 50.189 74.1476 -16.4532 29
387 2 49.8687 72.8272 -13.4216 25
389 2 52.3587 75.9326 -16.5117 25
391 3 51.4072 72.7207 -13.4326 22
393 3 49.119 75.9955 -16.5301 23
395 3 48.9567 76.3702 -13.5152 27
397 3 51.222 72.3863 -16.4408 24
399 3 49.1921 73.4697 -14.7134 24
401 3 51.6481 75.2778 -17.7895 24
404 3 51.6351 75.2724 -15.2369 24
406 3 49.1726 73.4931 -12.1521 24
407 1 52.6194 72.0187 -14.949 28
410 1 52.6198 71.9279 -17.9151 28
421 3 53.9045 76.0502 -16.4969 24
423 3 53.7296 76.4336 -13.5213 26
427 3 53.9839 73.5616 -14.6637 24
434 3 53.9798 73.5325 -12.0894 24
1940 3 46.2617 70.1452 -11.7438 22
1966 3 51.1628 70.2615 -11.6973 24
1997 3 53.5574 68.488 -11.8256 24
2100 1 45.4173 76.9588 -11.9737 26
2105 2 47.5637 75.9048 -10.5285 25
2111 3 46.8419 75.2047 -11.7862 24
2117 1 50.3463 76.9179 -12.0144 29
2118 1 47.7225 71.9592 -11.9379 27
2125 2 52.3561 75.9352 -10.4902 25
2129 3 49.1132 76.0042 -10.5091 23
2133 3 51.2093 72.3923 -10.4174 24
2137 3 51.6468 75.2813 -11.7705 24
2146 1 52.6048 71.9235 -11.9019 28
2157 3 53.9022 76.0495 -10.4759 24
2134 3 51.6702 77.4264 -10.5075 26
398 3 51.6695 77.4242 -16.5323 26
374 3 46.8704 77.3605 -16.5235 26
1954 2 50.4959 70.9484 -10.4205 25
2121 1 50.1763 74.1562 -10.425 29
2110 3 46.8601 77.3617 -10.5045 26
1934 2 45.7172 70.8231 -10.4411 23
1950 1 47.9635 69.118 -10.175 27
1958 3 48.9184 70.9822 -10.3927 22
1978 1 52.6762 69.1794 -10.1339 26
1986 3 53.7538 71.0244 -10.341 22
2103 1 45.4586 74.106 -10.4531 27
2109 3 46.3805 72.3075 -10.4389 21
381 1 50.3465 76.9164 -18.0376 29
382 1 47.7303 71.9679 -17.9657 27
12586 3 53.9844 73.5446 30.0752 24
240 1 55.1194 69.744 -13.3643 26
246 2 55.329 70.9701 -16.3843 25
258 3 56.006 70.2997 -17.6625 24
259 3 55.9933 70.2661 -15.1075 24
268 1 59.8672 69.7592 -13.236 27
270 1 57.4927 69.215 -16.1331 27
274 2 60.1214 70.973 -16.2608 25
278 3 58.5572 71.0464 -16.2785 22
280 3 58.7659 71.4584 -13.3108 25
284 3 58.3884 68.5402 -14.3794 24
286 3 60.8008 70.298 -17.5381 24
287 3 60.7813 70.2615 -14.9792 24
289 3 58.3889 68.525 -17.8193 24
298 1 62.2502 69.1931 -16.0158 27
312 3 63.1529 68.5171 -14.269 24
317 3 63.1605 68.5245 -17.726 24
408 1 55.1199 76.9591 -15.029 29
411 1 57.3617 74.779 -13.5253 28
413 1 54.9972 74.2115 -16.417 28
415 2 54.6735 72.9061 -13.3779 25
417 2 57.1595 76.0107 -16.5676 25
419 3 56.2209 72.8114 -13.3919 22
425 3 56.0228 72.4315 -16.3768 25
429 3 56.4394 75.3675 -17.8414 24
432 3 56.4544 75.3268 -15.2901 25
435 1 57.4181 72.0337 -14.8632 28
436 1 59.8959 77.0249 -15.086 29
438 1 57.4161 71.983 -17.8486 29
439 1 62.131 74.8651 -13.6032 27
441 1 59.7546 74.2201 -16.3136 26
443 2 59.4759 72.9596 -13.2778 25
445 2 61.9341 76.0612 -16.6361 25
447 3 61.0233 72.8496 -13.2776 23
449 3 58.7082 76.1051 -16.5364 24
451 3 58.5205 76.4905 -13.5637 26
453 3 60.809 72.4365 -16.2434 25
455 3 58.8023 73.6205 -14.5636 24
460 3 61.2548 75.3524 -15.3624 25
463 1 62.1847 72.0022 -14.7049 28
466 1 62.1712 72.0045 -17.7004 29
1982 2 55.327 70.9764 -10.3653 25
1994 3 55.9953 70.314 -11.648 24
2022 3 60.7935 70.301 -11.5249 24
2025 3 58.3701 68.5298 -11.7974 24
2053 3 63.1437 68.5281 -11.6982 24
2145 1 55.1071 76.9722 -12.0211 28
2149 1 54.9764 74.2065 -10.3888 28
2153 2 57.1518 76.0039 -10.5354 25
2161 3 56.0258 72.4352 -10.3487 25
2165 3 56.4411 75.3669 -11.817 24
2173 1 59.8894 77.036 -12.0696 30
2174 1 57.4136 71.9662 -11.8256 29
2181 2 61.9316 76.0444 -10.6216 25
2185 3 58.7027 76.0902 -10.5046 23
2193 3 61.2385 75.4323 -11.9119 25
2198 3 58.7831 73.5539 -11.9825 24
2202 1 62.1743 72.001 -11.6791 29
306 3 63.3244 71.0412 -16.1315 23
2177 1 59.7501 74.2027 -10.2915 26
2010 2 60.1162 70.961 -10.2365 25
2014 3 58.5533 71.0311 -10.2545 22
2189 3 60.8095 72.4249 -10.213 25
479 3 63.3004 76.5704 -13.6798 26
2006 1 57.492 69.2028 -10.1026 27
2042 3 63.3264 71.0386 -10.0983 23
6115 1 60.8961 50.0174 -0.717117 25
4379 1 60.8601 50.028 -6.73602 25
2162 3 56.4601 77.4876 -10.5245 26
426 3 56.4592 77.4923 -16.5487 26
462 3 58.7889 73.5648 -17.9988 25
457 3 61.2511 75.4469 -17.9313 25
409 1 55.1052 76.9659 -18.0442 29
437 1 59.8954 77.0367 30.0918 30
296 1 64.6121 69.7606 -13.0654 27
302 2 64.8836 70.9813 -16.0958 25
308 3 63.5217 71.4616 -13.1698 25
314 3 65.5659 70.3077 -17.3797 24
315 3 65.5354 70.2488 -14.8214 23
324 1 69.4249 69.8415 -12.725 25
326 1 67.015 69.2222 -15.8886 26
330 2 69.6725 70.9924 -15.7494 25
334 3 68.1182 71.0273 -15.8896 23
336 3 68.2737 71.4832 -12.9624 24
340 3 67.9315 68.5269 -14.153 24
342 3 70.3813 70.3291 -17.0337 24
343 3 70.329 70.2477 -14.4877 23
345 3 67.9458 68.5887 -17.5947 24
352 1 71.8261 69.2699 -15.5739 26
464 1 64.6479 77.1369 -15.2613 28
467 1 66.8675 74.9567 -13.8197 26
469 1 64.4798 74.2244 -16.1671 26
471 2 64.243 72.9581 -13.1092 25
473 2 66.6972 76.0949 -16.8663 25
475 3 65.787 72.8101 -13.1182 23
477 3 63.4876 76.1551 -16.6154 24
481 3 65.5888 72.4303 -16.0587 25
483 3 63.6034 73.6539 -14.3986 26
488 3 66.0627 75.3634 -15.5868 25
490 3 63.5781 73.5311 -17.8175 25
491 1 66.9621 71.9743 -14.5062 28
492 1 69.3943 77.2548 -15.5625 28
494 1 66.925 71.9937 -17.5271 30
495 1 71.6068 75.0316 -14.0897 24
497 1 69.1986 74.2439 -15.9459 25
499 2 68.99 73.0018 -12.8486 26
501 2 71.4196 76.1146 -17.1749 26
503 3 70.5207 72.7452 -12.767 25
505 3 68.2453 76.2434 -16.8652 24
507 3 68.0499 76.6601 -13.988 25
509 3 70.3567 72.4534 -15.6816 22
511 3 68.3957 73.7124 -14.1501 26
516 3 70.8148 75.4177 -15.8605 25
518 3 68.3282 73.5073 -17.549 25
519 1 71.7574 71.991 -14.1167 28
522 1 71.6667 72.071 -17.183 28
2050 3 65.5663 70.3137 -11.3497 24
2078 3 70.382 70.3354 -11.0144 24
2081 3 67.9407 68.605 -11.5732 23
2201 1 64.6605 77.0933 -12.2289 29
2209 2 66.702 76.1013 -10.8478 24
2213 3 63.4869 76.1415 -10.5959 23
2221 3 66.0324 75.5398 -12.1626 26
2226 3 63.5879 73.529 -11.7936 25
2229 1 69.3684 77.1327 -12.4862 30
2230 1 66.9276 72.0024 -11.5001 29
2237 2 71.42 76.1165 -11.1467 26
2241 3 68.2494 76.2547 -10.8469 24
2249 3 70.7208 75.571 -12.4581 25
2254 3 68.3294 73.5122 -11.5142 24
2258 1 71.6761 72.077 -11.1516 28
2205 1 64.49 74.2233 -10.1424 26
2217 3 65.5921 72.4314 -10.0264 25
2038 2 64.8842 70.9815 -10.0644 25
2643 1 60.873 50.0222 -12.7614 25
485 3 66.0249 75.5257 30.0038 26
12495 3 70.3215 70.2323 27.6757 23
1813 3 53.5026 55.6992 -9.97152 23
1774 1 49.2027 51.2884 -9.74225 26
1739 3 50.3436 50.1516 -8.58524 19
1740 3 48.8634 50.9452 -5.59322 22
1742 3 52.8935 51.0713 -9.40925 22
1743 3 54.0207 51.0109 -7.03936 26
1755 1 45.2646 57.6241 -8.88529 27
1757 1 45.9561 54.8973 -7.69073 25
1759 1 45.6262 52.7184 -9.60913 23
1763 3 46.1622 51.7167 -6.08109 25
1764 3 46.4188 57.5552 -7.20524 22
1765 3 47.6116 51.3933 -8.61219 23
1770 3 46.8003 54.3155 -9.35334 23
1771 1 47.9329 52.2222 -6.7994 23
1772 1 50.4371 58.008 -8.89607 25
1775 1 52.4959 54.6718 -7.09279 25
1777 1 49.3293 54.7113 -8.49524 28
1779 2 50.4971 53.2263 -5.62996 24
1780 2 47.995 57.6261 -7.29251 24
1783 3 51.3861 52.1765 -6.47945 23
1784 3 51.166 57.6196 -7.06529 24
1787 3 48.6082 56.1654 -7.38857 25
1791 3 49.3531 53.5419 -6.68855 23
1792 3 48.5494 58.3462 -8.58235 24
1796 3 51.3536 54.885 -8.73017 25
1799 1 51.7076 52.3642 -8.54956 27
1808 2 52.7426 57.7864 -6.95691 25
1815 3 53.4225 56.2901 -6.86779 25
1819 3 53.6386 53.3851 -7.98158 23
1820 3 53.2944 58.2833 -8.35901 25
3475 3 50.3656 50.0929 -2.55104 20
3478 3 52.9122 51.0356 -3.32862 24
3491 1 45.2889 57.6446 -2.86673 27
3495 1 45.6106 52.7342 -3.58198 21
3497 2 47.1827 55.3363 -4.5 22
3501 3 47.6603 51.3705 -2.53317 22
3502 3 46.4011 56.7377 -4.20897 26
3503 3 46.4869 54.8003 -5.82996 22
3506 3 46.8027 54.3 -3.30048 24
3508 1 50.4598 57.9961 -2.90361 25
3509 1 49.9161 56.5695 -5.72 29
3510 1 49.2232 51.2198 -3.69223 27
3513 1 49.3368 54.6695 -2.46297 28
3517 2 51.9691 55.5103 -4.02553 27
3521 3 48.7415 55.4846 -4.40419 22
3526 3 51.2693 56.9131 -4.22738 25
3528 3 48.5765 58.3558 -2.58282 24
3529 3 51.3951 54.651 -5.39513 26
3532 3 51.3806 54.8124 -2.68856 25
3533 3 48.6342 58.243 -5.95218 23
3534 3 50.3123 52.7558 -4.11814 23
3535 1 51.745 52.3988 -2.53244 29
3538 1 52.7197 51.0511 -5.37808 25
3549 3 53.5219 55.6516 -3.94725 24
3561 3 53.4053 58.4556 -5.71506 22
3562 3 53.7603 53.0002 -5.42911 26
3514 1 47.7929 59.0402 -4.29886 26
3556 3 53.2999 58.2543 -2.36159 25
3469 3 45.3663 50.7092 -9.41579 26
5205 3 45.4136 50.7437 -3.40094 23
1737 2 46.7166 50.0899 -8.84614 25
3492 1 45.0939 56.6364 -5.87609 25
3542 1 52.7224 59.2095 -4.03349 28
3555 3 53.6711 53.3758 -1.96706 23
1741 2 54.3757 50.4603 -9.31188 25
1744 2 59.3787 50.4384 -9.53553 25
1745 3 57.8662 50.6508 -9.64197 25
1746 3 58.1991 51.1072 -6.73674 23
1748 3 62.5259 50.9002 -8.80114 27
1800 1 54.7737 56.815 -8.3845 30
1803 1 56.966 54.5571 -6.82297 27
1805 1 54.6116 53.8776 -9.81129 28
1807 2 54.3694 52.575 -6.83797 24
1809 2 56.7785 55.7195 -9.8395 24
1811 3 55.933 52.5821 -6.72296 23
1812 3 55.9022 57.6358 -6.82679 23
1817 3 55.4045 51.7127 -9.51568 25
1818 3 56.0908 57.1751 -9.83657 25
1824 3 56.0559 54.9766 -8.60099 24
1827 1 57.0299 51.8275 -8.25891 24
1828 1 59.4432 56.9447 -8.32822 28
1831 1 61.7086 54.6483 -6.69743 25
1833 1 59.2813 53.9102 -9.5364 27
1835 2 58.9533 52.5045 -6.48593 25
1836 2 57.46 57.7767 -6.74342 25
1837 2 61.5764 55.6245 -9.81745 24
1839 3 60.5278 52.2755 -6.45754 24
1840 3 60.6887 57.4819 -6.75668 23
1841 3 58.3388 55.7601 -9.73385 23
1843 3 58.1078 56.2359 -6.78164 26
1845 3 60.0757 51.8818 -9.29999 25
1846 3 60.8758 57.0414 -9.69978 25
1847 3 58.4493 53.3912 -7.7207 24
1848 3 58.1417 58.41 -8.02402 23
1852 3 61.1105 54.6153 -8.59899 24
1855 1 61.548 52.57 -8.20952 25
1862 1 61.9366 59.0241 -9.79724 26
1864 2 62.2488 57.6926 -6.75015 25
1871 3 62.8898 56.1711 -6.73093 26
1876 3 62.8448 58.3972 -8.01609 22
3477 2 54.4109 50.4983 -3.27032 25
3480 2 59.3479 50.4243 -3.4999 25
3481 3 57.8419 50.6759 -3.60277 23
3484 3 62.4787 50.8823 -2.74662 27
3536 1 54.7736 56.7651 -2.3577 29
3537 1 54.737 56.8207 -5.30378 27
3541 1 54.6444 53.8261 -3.7836 26
3545 2 56.7785 55.723 -3.8105 24
3553 3 55.4206 51.7537 -3.43553 26
3554 3 56.0877 57.1744 -3.81352 25
3557 3 56.0977 55.0155 -5.07498 25
3560 3 56.0713 54.98 -2.56511 25
3563 1 57.0315 51.8668 -2.2111 24
3564 1 59.4485 56.9911 -2.32664 28
3565 1 59.4991 56.718 -5.26564 27
3566 1 56.8357 51.6668 -5.04067 25
3569 1 59.2626 53.9101 -3.52358 27
3573 2 61.5737 55.6133 -3.78972 24
3577 3 58.3385 55.7719 -3.71676 23
3581 3 60.0531 51.8669 -3.2718 24
3582 3 60.887 57.037 -3.68239 25
3585 3 60.7945 54.967 -5.0455 27
3588 3 61.0901 54.6039 -2.58429 24
3589 3 58.1561 58.3159 -5.43711 24
3590 3 58.3482 53.0879 -5.14247 24
3594 1 61.4166 51.5473 -4.64655 30
3598 1 61.9686 59.038 -3.7715 26
3617 3 62.9631 58.3016 -5.44725 25
1749 3 62.8283 50.8695 -5.85539 22
1869 3 63.1341 55.712 -9.81432 25
1875 3 63.1377 53.2204 -7.12929 25
3605 3 63.1308 55.6856 -3.77779 25
3618 3 62.991 52.967 -4.51653 26
1834 1 57.2632 59.0845 -9.78693 28
3570 1 57.2648 59.0933 -3.75427 28
3591 1 61.5413 52.5834 -2.20413 24
3584 3 58.1316 58.4274 -1.994 23
3612 3 62.8495 58.4082 -1.99401 22
1747 2 63.9996 50.5805 -8.88179 26
1750 2 68.8658 50.5934 -8.81034 25
1751 3 67.3565 50.5919 -8.8964 23
1752 3 67.5592 50.8152 -5.89637 22
1856 1 64.6127 57.9466 -8.55779 23
1859 1 66.4202 54.5927 -6.83991 25
1861 1 63.852 54.0692 -8.87783 26
1863 2 63.5691 52.3267 -5.87943 27
1865 2 66.3303 55.6821 -9.87464 23
1867 3 65.1225 52.1305 -5.82706 25
1868 3 65.488 57.5348 -6.78167 23
1873 3 64.9103 51.8615 -8.88976 25
1874 3 65.698 57.1085 -9.897 25
1880 3 65.7906 54.6772 -8.70024 23
1883 1 66.1971 51.3053 -7.36303 29
1884 1 69.4416 57.9266 -8.4466 21
1887 1 71.3112 54.7446 -6.8062 25
1889 1 68.497 54.0128 -8.76202 25
1891 2 68.2468 52.2616 -5.83078 24
1892 2 67.057 57.6482 -6.77243 26
1893 2 71.0608 55.6267 -9.75575 24
1895 3 69.8269 52.0438 -5.83182 23
1896 3 70.2977 57.5113 -6.69138 23
1897 3 67.8858 55.7067 -9.79589 24
1899 3 67.6534 56.1223 -6.71957 25
1901 3 69.6237 51.9329 -8.82081 25
1902 3 70.452 57.0674 -9.82847 26
1903 3 67.6915 53.0452 -7.11351 23
1904 3 67.5958 58.299 -8.09762 23
1908 3 70.4513 54.6832 -8.56856 23
1911 1 71.0482 51.7226 -7.43597 28
1918 2 71.8666 57.7116 -6.66601 26
3483 2 63.95 50.5619 -2.82528 26
3486 2 68.8562 50.6209 -2.86044 26
3487 3 67.3449 50.6421 -2.90321 24
3593 1 64.2797 56.6235 -5.31217 27
3597 1 63.8589 54.0423 -2.83163 26
3601 2 66.3401 55.6564 -3.81868 23
3609 3 64.8635 51.844 -2.80733 25
3610 3 65.6908 57.0792 -3.85022 24
3613 3 65.6708 54.8751 -5.08259 24
3616 3 65.7994 54.6435 -2.65192 23
3621 1 69.0426 56.5971 -5.27253 28
3622 1 65.8839 52.938 -4.12582 25
3625 1 68.5618 53.9738 -2.78344 25
3629 2 71.0938 55.6523 -3.76648 23
3633 3 67.8998 55.6915 -3.73385 24
3637 3 69.6493 51.9489 -2.85704 24
3638 3 70.4609 57.0841 -3.80398 25
3641 3 70.4658 54.8703 -5.05832 25
3645 3 67.7906 58.3272 -5.51878 24
3646 3 67.8161 52.9992 -4.50521 26
3650 1 70.6544 52.9806 -4.21514 24
3592 1 64.6185 57.9571 -2.53905 23
1753 3 72.0963 50.6774 -8.72036 25
3489 3 72.1211 50.7153 -2.83279 25
1924 3 72.3753 58.2825 -8.04075 23
1890 1 66.8378 59.1057 -9.86872 26
3626 1 66.8411 59.1156 -3.84761 26
3620 1 69.4327 57.9245 -2.42791 21
3644 3 70.5198 54.6784 -2.58487 23
1754 3 72.3016 50.913 -5.88728 21
3640 3 67.5885 58.3173 -2.0893 23
1916 1 71.6376 59.1627 -9.72835 26
3660 3 72.394 58.2815 -1.99823 23
1782 2 50.3751 60.8421 -10.0193 26
1814 3 53.6209 60.947 -9.92897 22
1961 3 51.0981 62.2294 -9.95542 24
1758 1 45.4361 59.4015 -7.04072 24
1769 3 46.0471 59.7103 -8.97884 22
1776 1 50.1283 59.6388 -6.8869 27
1788 3 49.0162 61.2555 -7.08458 26
1795 3 50.9175 59.9308 -8.78592 23
1816 3 53.8474 61.3308 -6.96148 26
1927 1 45.5255 66.7873 -8.76564 26
1929 1 47.7352 64.7109 -7.21826 27
1935 3 46.3603 62.3357 -7.15518 22
1936 3 46.5788 67.5079 -7.1792 23
1942 3 46.7769 65.0186 -8.95357 22
1943 1 47.7276 61.9646 -8.64606 28
1944 1 50.1845 66.8867 -8.66533 30
1947 1 52.5216 64.7638 -7.13988 27
1951 2 49.7913 62.7819 -7.02942 25
1952 2 48.1312 67.8147 -7.14608 25
1955 3 51.3114 62.5649 -7.01182 24
1956 3 51.3509 67.7153 -7.1755 23
1959 3 48.862 66.2973 -7.1515 26
1963 3 49.0816 63.408 -8.29714 25
1968 3 51.5566 65.1121 -8.88848 23
1971 1 52.5613 62.027 -8.51989 28
1980 2 52.9086 67.9162 -7.10913 25
1987 3 53.6079 66.3937 -7.11775 26
1991 3 53.901 63.495 -8.20858 24
3498 2 45.6126 60.6936 -4.17158 24
3504 3 46.274 60.0293 -5.4384 23
3505 3 46.0653 59.6929 -2.98599 22
3518 2 50.3887 60.8454 -3.98393 25
3522 3 48.8057 60.8653 -4.08758 23
3530 3 51.0531 60.0772 -5.22564 24
3531 3 50.9433 59.9243 -2.76511 25
3550 3 53.6314 60.9708 -3.90941 22
3663 1 45.5351 66.7736 -2.74389 26
3664 1 45.408 67.1266 -5.5467 25
3667 1 45.3511 64.0271 -4.20466 23
3669 2 47.504 65.7312 -4.23649 25
3673 3 46.2864 62.0948 -4.0551 22
3674 3 46.8428 67.1794 -4.2116 28
3675 3 46.7938 64.9462 -5.46616 23
3678 3 46.7907 65.0141 -2.93397 24
3679 1 47.7382 61.9998 -2.64462 28
3680 1 50.2039 66.8883 -2.6462 30
3681 1 50.2176 66.9521 -5.62608 29
3682 1 47.6616 61.9056 -5.59781 27
3685 1 50.1669 64.116 -4.05343 27
3689 2 52.268 65.8948 -4.13123 25
3693 3 49.0461 65.828 -4.16394 23
3697 3 51.1135 62.2333 -3.92267 24
3698 3 51.5356 67.3167 -4.13432 25
3701 3 51.5786 65.1437 -5.39842 24
3704 3 51.5677 65.1382 -2.86548 24
3706 3 49.111 63.3223 -5.71698 26
3707 1 52.5768 62.032 -2.48245 28
3710 1 52.5312 61.9859 -5.44569 28
3721 3 53.8091 65.9739 -4.07831 23
3734 3 53.9166 63.4302 -5.63154 24
3699 3 49.0913 63.4315 -2.26889 25
3727 3 53.9137 63.5 -2.17942 24
2009 2 61.7913 65.9119 -10.019 25
1810 2 55.2078 60.9044 -9.90612 25
1977 1 54.914 64.1933 -9.9907 27
1989 3 55.9082 62.3249 -9.9067 25
2005 1 59.6236 64.1618 -9.91103 27
2041 3 63.3486 65.9689 -9.93387 23
1804 1 54.9881 59.6743 -6.86378 28
1823 3 55.8014 60.1227 -8.64456 23
1832 1 59.6615 59.6475 -6.86039 27
1838 2 59.9208 60.8421 -9.87872 25
1842 3 58.3575 60.8978 -9.88067 22
1844 3 58.602 61.3371 -6.87288 26
1851 3 60.5391 60.0646 -8.619 23
1870 3 63.1253 60.8866 -9.83049 23
1972 1 54.9667 66.9852 -8.626 30
1975 1 57.233 64.7659 -7.09154 28
1979 2 54.5993 62.8589 -6.93359 25
1983 3 56.1243 62.685 -6.94011 24
1984 3 56.1312 67.7849 -7.12891 23
1996 3 56.3142 65.2364 -8.82964 24
1999 1 57.3127 61.958 -8.42827 28
2000 1 59.7416 66.9661 -8.54727 30