ITEM: TIMESTEP
2500
ITEM: NUMBER OF ATOMS
13888
ITEM: BOX BOUNDS pp pp pp
45.0 100.0
50.0 105.0
-18.06819 30.11365
ITEM: ATOMS id type x y z Coordination
3 3 50.3715 50.1453 -14.685 20
4 3 48.7909 51.0152 -11.76 21
6 3 52.8847 51.0247 -15.4707 24
7 3 54.0017 51.0167 -13.1046 27
19 1 45.2467 57.6389 -14.7923 27
20 1 45.0853 56.6073 -17.7454 24
21 1 46.2287 55.2165 -13.6117 25
23 1 45.5449 52.6637 -15.5434 21
25 2 47.1417 55.2603 -16.4307 21
27 3 46.0811 51.5588 -12.2528 24
28 3 46.3985 57.5494 -13.114 22
29 3 47.5304 51.2977 -14.7557 22
30 3 46.3892 56.6675 -16.0769 26
31 3 46.442 54.7743 -17.7611 22
34 3 46.7873 54.2251 -15.2304 24
35 1 47.8265 52.2448 -12.9987 23
36 1 50.4907 58.1009 -14.9127 24
37 1 49.8363 56.4813 -17.7283 29
38 1 49.137 51.1732 -15.864 27
39 1 52.4571 54.5729 -13.0712 27
41 1 49.2917 54.6715 -14.4938 28
43 2 50.4046 53.2106 -11.6978 23
44 2 47.9821 57.6253 -13.2842 25
45 2 51.8694 55.4913 -16.0549 27
47 3 51.3447 52.2401 -12.5903 23
48 3 51.0744 57.5357 -13.0476 24
49 3 48.6993 55.3901 -16.398 22
51 3 48.4284 56.0964 -13.398 25
54 3 51.163 56.8892 -16.2182 25
55 3 49.2593 53.5441 -12.7416 23
56 3 48.564 58.2905 -14.5774 27
57 3 51.2894 54.6566 -17.4435 26
60 3 51.3049 54.7791 -14.7243 25
61 3 48.6067 58.1965 -17.9505 24
62 3 50.2848 52.698 -16.2192 23
63 1 51.6728 52.3383 -14.6322 29
66 1 52.6735 51.1107 -17.516 27
72 2 52.6485 57.713 -13.0166 25
77 3 53.4253 55.6344 -16.0229 24
79 3 53.3502 56.236 -12.9109 25
83 3 53.6359 53.3675 -14.0538 22
84 3 53.1366 58.1974 -14.4462 26
89 3 53.3171 58.4402 -17.8316 24
90 3 53.7035 53.0176 -17.5342 25
1756 1 45.0853 56.6073 -11.7227 24
1767 3 46.442 54.7743 -11.7384 22
1773 1 49.8363 56.4813 -11.7056 29
1774 1 49.137 51.1732 -9.84123 27
1793 3 51.2894 54.6566 -11.4208 26
1797 3 48.6066 58.1965 -11.9278 24
1798 3 50.2848 52.698 -10.1964 23
1802 1 52.6735 51.1107 -11.4932 27
1825 3 53.3171 58.4402 -11.8089 24
1826 3 53.7035 53.0176 -11.5114 25
1761 2 47.1417 55.2603 -10.408 21
42 1 47.7926 58.991 -16.2695 27
1781 2 51.8694 55.4913 -10.0322 27
1785 3 48.6993 55.3901 -10.3753 22
1790 3 51.163 56.8892 -10.1955 25
1813 3 53.4253 55.6344 -10.0001 24
1778 1 47.7926 58.991 -10.2468 27
12195 2 50.4046 53.2106 -17.7205 23
1 2 46.644 49.9993 -15.0584 24
1733 3 45.2784 50.6218 -15.5805 26
12644 1 69.3983 77.1907 26.5728 27
10601 3 72.5041 56.3043 23.7694 24
5 2 54.388 50.4894 -15.4147 25
8 2 59.3775 50.5067 -15.6338 25
9 3 57.8637 50.7062 -15.7261 23
10 3 58.2169 51.1284 -12.8195 24
12 3 62.5012 50.9874 -14.9216 26
64 1 54.692 56.7783 -14.4099 29
65 1 54.6555 56.7534 -17.3931 28
67 1 56.9137 54.5414 -12.8269 28
69 1 54.579 53.8438 -15.8553 29
71 2 54.3548 52.5744 -12.8972 24
73 2 56.7023 55.7433 -15.851 24
75 3 55.9119 52.5716 -12.7544 22
76 3 55.8105 57.6062 -12.8411 23
81 3 55.3993 51.7529 -15.5718 26
82 3 55.9918 57.1839 -15.8851 26
85 3 56.0171 55.005 -17.1031 25
88 3 55.9912 55.0229 -14.5931 25
91 1 56.9847 51.7867 -14.3027 24
92 1 59.3882 56.8769 -14.2393 28
93 1 59.4132 56.829 -17.181 27
94 1 56.8349 51.7087 -17.1309 26
95 1 61.6945 54.6386 -12.6098 29
97 1 59.2054 53.939 -15.6417 28
99 2 58.9301 52.56 -12.6044 25
100 2 57.3688 57.7502 -12.7801 25
101 2 61.511 55.652 -15.7061 26
103 3 60.5105 52.3722 -12.5595 24
104 3 60.5968 57.5115 -12.6759 24
105 3 58.2607 55.7843 -15.7544 23
107 3 58.0391 56.2189 -12.742 26
109 3 60.0582 51.9605 -15.3999 26
110 3 60.7995 57.0546 -15.6245 26
111 3 58.3599 53.3937 -13.8435 24
112 3 58.0297 58.3227 -14.089 24
113 3 60.7945 54.9591 -16.9616 26
116 3 60.9977 54.6844 -14.4936 24
117 3 58.0634 58.3598 -17.5222 24
118 3 58.3212 53.1492 -17.2892 24
119 1 61.5209 52.669 -14.2947 25
122 1 61.4452 51.6533 -16.7783 30
126 1 61.9405 59.0705 -15.6358 29
128 2 62.1355 57.7735 -12.6469 25
135 3 62.8479 56.216 -12.6228 26
140 3 62.8307 58.3343 -13.931 23
145 3 62.8089 58.3317 -17.3584 24
1801 1 54.6555 56.7534 -11.3704 28
1821 3 56.0171 55.005 -11.0803 25
1829 1 59.4132 56.829 -11.1583 27
1830 1 56.8349 51.7087 -11.1081 26
1849 3 60.7945 54.9591 -10.9388 26
1853 3 58.0634 58.3598 -11.4994 24
1854 3 58.3212 53.1492 -11.2664 24
1858 1 61.4452 51.6533 -10.7556 30
1881 3 62.8089 58.3317 -11.3357 24
13 3 62.8617 50.9524 -11.9728 23
133 3 63.0776 55.7445 -15.6122 23
139 3 63.129 53.277 -13.2314 25
146 3 63.0126 53.0594 -16.6652 25
1882 3 63.0126 53.0594 -10.6425 25
12165 3 62.8617 50.9524 -17.9955 23
98 1 57.173 59.0753 -15.7917 28
2643 1 60.862 50.1027 -12.8335 26
911 3 60.0186 50.0719 -17.034 23
2647 3 60.0186 50.0719 -11.0113 23
11 2 63.9637 50.6285 -14.9827 26
14 2 68.8968 50.6534 -14.9184 26
15 3 67.3777 50.707 -14.9971 24
16 3 67.5822 50.8546 -11.9472 22
120 1 64.2342 56.9368 -14.1416 28
121 1 64.1463 56.8408 -17.0844 28
123 1 66.4134 54.5511 -12.5773 26
125 1 63.942 53.9736 -15.006 26
127 2 63.6061 52.4105 -11.9917 27
129 2 66.2859 55.6911 -15.6005 24
131 3 65.1607 52.2085 -11.9454 25
132 3 65.3839 57.4862 -12.5433 23
137 3 64.8922 51.9104 -14.9315 25
138 3 65.5763 57.0813 -15.6735 24
141 3 65.6616 54.7398 -16.7739 25
144 3 65.6187 54.9077 -14.3253 25
147 1 66.1892 51.238 -13.4085 28
148 1 69.3558 57.9188 -14.2377 21
149 1 68.9731 56.6884 -17.0514 28
150 1 66.0435 52.7812 -16.2448 24
151 1 71.3407 54.8002 -12.6186 25
153 1 68.6199 53.9832 -14.7912 25
155 2 68.3003 52.2872 -11.9415 25
156 2 66.945 57.6446 -12.539 25
157 2 71.075 55.6603 -15.5702 26
159 3 69.8771 52.0772 -11.9723 23
160 3 70.2333 57.5405 -12.4678 24
161 3 67.8389 55.6721 -15.5317 24
163 3 67.575 56.1159 -12.4098 26
165 3 69.678 51.9851 -14.9109 27
166 3 70.4021 57.0614 -15.5966 27
167 3 67.7219 53.075 -13.1942 23
168 3 67.5212 58.2271 -13.8721 24
169 3 70.5048 54.8747 -16.8788 23
172 3 70.5261 54.6735 -14.3951 23
173 3 67.6881 58.3274 -17.3107 24
174 3 67.9373 53.0366 -16.6249 25
175 1 71.1305 51.9125 -13.544 25
178 1 70.6232 52.9605 -16.3272 23
180 1 71.6282 59.2236 -15.4839 26
182 2 71.7695 57.8334 -12.4317 26
1857 1 64.1463 56.8409 -11.0617 28
1877 3 65.6616 54.7398 -10.7512 25
1885 1 68.973 56.6883 -11.0286 28
1886 1 66.0437 52.7811 -10.2221 24
1905 3 70.5048 54.8747 -10.8561 23
1909 3 67.688 58.3274 -11.288 24
1910 3 67.9375 53.0365 -10.6022 25
1914 1 70.623 52.9606 -10.3044 23
12279 2 63.606 52.4105 -18.0144 27
12283 3 65.1607 52.2085 -17.9681 25
12307 2 68.3002 52.2873 -17.9642 25
12311 3 69.8769 52.0773 -17.995 23
17 3 72.1337 50.7426 -14.7457 24
188 3 72.3444 58.3167 -13.8093 25
154 1 66.6514 59.0365 -15.5684 27
12168 3 67.5822 50.8546 -17.9699 22
18 3 72.3178 50.9258 -11.8951 22
189 3 72.4561 58.476 -17.1942 24
1925 3 72.4561 58.476 -11.1714 24
12170 3 72.3175 50.9262 -17.9178 22
70 1 52.7142 59.1851 -16.1331 26
22 1 45.3858 59.3403 -12.8642 24
26 2 45.5898 60.6547 -16.0091 24
32 3 46.2394 59.9722 -17.2791 24
33 3 46.0376 59.6537 -14.8268 22
40 1 50.0973 59.5997 -12.639 26
46 2 50.3088 60.8327 -15.7517 25
50 3 48.7351 60.8401 -15.8738 23
52 3 48.9724 61.2279 -12.8325 25
58 3 50.9267 59.9241 -16.9273 26
59 3 50.8741 60.0114 -14.4727 26
78 3 53.5517 60.9502 -15.8018 22
80 3 53.7811 61.3274 -12.7629 25
191 1 45.5112 66.7269 -14.5273 26
192 1 45.3681 67.0 -17.3214 24
193 1 47.6981 64.6799 -12.969 27
195 1 45.3043 63.9814 -16.0179 23
197 2 47.474 65.6884 -16.0097 25
199 3 46.3189 62.2912 -12.9732 22
200 3 46.5516 67.4223 -12.9207 23
201 3 46.2518 62.0584 -15.8922 22
202 3 46.8137 67.1336 -15.9871 28
203 3 46.752 64.9083 -17.2457 23
206 3 46.7741 64.9608 -14.7166 24
207 1 47.6873 61.981 -14.4483 28
208 1 50.1676 66.8904 -14.438 30
209 1 50.1848 66.9221 -17.4268 29
210 1 47.5979 61.8954 -17.433 27
211 1 52.4667 64.74 -12.9007 28
213 1 50.1123 64.0917 -15.8263 28
215 2 49.7479 62.759 -12.7799 25
216 2 48.0941 67.7569 -12.9054 25
217 2 52.2166 65.8666 -15.9155 25
219 3 51.2665 62.5465 -12.7718 24
220 3 51.3254 67.6929 -12.9391 23
221 3 49.0125 65.7912 -15.9409 23
223 3 48.8484 66.2436 -12.8986 27
225 3 51.0504 62.207 -15.7786 24
226 3 51.4966 67.2918 -15.9314 25
227 3 49.0632 63.378 -14.0585 25
229 3 51.5257 65.1021 -17.1734 24
232 3 51.5165 65.1212 -14.6422 24
234 3 49.0544 63.2985 -17.5032 25
235 1 52.485 61.9544 -14.2945 28
238 1 52.4879 62.0903 -17.2315 28
244 2 52.8839 67.8901 -12.894 25
249 3 53.7572 65.9443 -15.8779 23
251 3 53.5684 66.3629 -12.8879 26
255 3 53.8362 63.4465 -14.063 24
262 3 53.873 63.4679 -17.5125 24
1768 3 46.2394 59.9722 -11.2564 24
1794 3 50.9267 59.9241 -10.9046 26
1928 1 45.3681 67.0 -11.2987 24
1939 3 46.752 64.9083 -11.223 23
1945 1 50.1848 66.9221 -11.4041 29
1946 1 47.5979 61.8954 -11.4103 27
1965 3 51.5257 65.1021 -11.1507 24
1970 3 49.0544 63.2985 -11.4804 25
1974 1 52.4879 62.0903 -11.2088 28
1998 3 53.873 63.4679 -11.4898 24
1806 1 52.7142 59.1851 -10.1103 26
68 1 54.9147 59.665 -12.7159 28
74 2 55.1401 60.8972 -15.7479 25
86 3 55.749 60.1254 -17.0118 23
87 3 55.6912 60.0971 -14.4916 24
96 1 59.5644 59.6259 -12.6517 27
102 2 59.8488 60.7952 -15.6683 25
106 3 58.2827 60.866 -15.7221 22
108 3 58.5358 61.3148 -12.7282 26
114 3 60.4977 60.0462 -16.9406 23
115 3 60.4695 60.0152 -14.4086 23
134 3 63.0536 60.8486 -15.6045 22
236 1 54.9395 66.9607 -14.4005 30
237 1 54.9472 66.9792 -17.3842 28
239 1 57.207 64.7297 -12.8576 28
241 1 54.8697 64.1833 -15.808 28
243 2 54.5452 62.8521 -12.776 25
245 2 56.983 65.9153 -15.873 25
247 3 56.0674 62.6585 -12.7724 24
248 3 56.0922 67.7536 -12.8966 23
253 3 55.8478 62.3049 -15.7487 24
254 3 56.2892 67.3608 -15.8892 25
257 3 56.2814 65.1979 -17.1385 24
260 3 56.2701 65.1986 -14.5987 24
263 1 57.2563 61.9692 -14.2762 28
264 1 59.6939 66.9455 -14.332 30
265 1 59.6924 66.952 -17.3177 28
266 1 57.2243 61.9399 -17.237 28
267 1 61.9327 64.7025 -12.7845 27
269 1 59.5911 64.1385 -15.7251 28
271 2 59.2783 62.8407 -12.6914 25
272 2 57.6522 67.9 -12.8349 25
273 2 61.7261 65.8817 -15.7998 25
275 3 60.8114 62.646 -12.6676 24
276 3 60.851 67.7275 -12.8158 23
277 3 58.528 65.952 -15.8222 23
279 3 58.3229 66.3681 -12.8265 26
281 3 60.5675 62.2183 -15.6506 24
282 3 61.0514 67.3353 -15.8257 25
283 3 58.6107 63.4666 -13.9813 24
285 3 61.0345 65.1606 -17.0622 24
288 3 61.0274 65.1691 -14.5256 24
290 3 58.6035 63.4153 -17.4137 24
291 1 61.9737 61.9408 -14.1735 27
294 1 61.9433 61.889 -17.1316 28
300 2 62.4022 67.8692 -12.7472 25
307 3 63.0776 66.3379 -12.7133 26
1822 3 55.749 60.1254 -10.989 23
1850 3 60.4977 60.0463 -10.9178 23
1973 1 54.9472 66.9792 -11.3615 28
1993 3 56.2814 65.1979 -11.1157 24
2001 1 59.6924 66.952 -11.295 28
2002 1 57.2243 61.9399 -11.2143 28
2021 3 61.0345 65.1606 -11.0395 24
2026 3 58.6035 63.4153 -11.391 24
2030 1 61.9433 61.889 -11.1089 28
136 3 63.2823 61.2744 -12.6133 26
305 3 63.2788 65.9258 -15.7285 23
124 1 64.3565 59.6202 -12.5302 27
130 2 64.6132 60.8031 -15.5362 25
142 3 65.2838 60.0697 -16.8238 23
143 3 65.2342 59.9836 -14.3016 23
152 1 69.0723 59.697 -12.2035 27
158 2 69.377 60.8339 -15.3045 26
162 3 67.8284 60.8196 -15.4412 23
164 3 68.0723 61.3285 -12.4463 25
170 3 70.1031 60.1225 -16.5862 25
171 3 69.8967 59.852 -14.1068 23
292 1 64.4519 66.9417 -14.2187 29
293 1 64.4283 66.9369 -17.1961 28
295 1 66.6573 64.759 -12.6558 27
297 1 64.3276 64.1228 -15.5807 27
299 2 64.0172 62.7995 -12.5546 25
301 2 66.4872 65.8698 -15.6613 25
303 3 65.5601 62.6177 -12.5299 23
304 3 65.6168 67.7003 -12.6656 23
309 3 65.3504 62.2154 -15.4839 24
310 3 65.8094 67.3166 -15.7194 24
311 3 63.3573 63.439 -13.8393 24
313 3 65.8134 65.1155 -16.9113 25
316 3 65.777 65.1742 -14.3844 25
318 3 63.3698 63.3501 -17.2567 24
319 1 66.7556 61.9706 -14.0204 27
320 1 69.2423 66.9798 -13.9703 29
321 1 69.1863 66.9735 -16.949 28
322 1 66.6857 61.9347 -16.9787 28
323 1 71.4666 64.8296 -12.384 28
325 1 69.0989 64.1731 -15.3376 27
327 2 68.7852 62.8684 -12.3323 26
328 2 67.1617 67.8895 -12.5775 25
329 2 71.2806 65.8895 -15.3926 25
331 3 70.3331 62.6738 -12.2944 23
332 3 70.406 67.707 -12.3914 23
333 3 68.0428 65.9347 -15.5364 23
335 3 67.8576 66.3529 -12.4967 26
337 3 70.1185 62.211 -15.1858 24
338 3 70.5886 67.3253 -15.4666 25
339 3 68.1178 63.5019 -13.6106 24
341 3 70.6094 65.1026 -16.63 24
344 3 70.5649 65.1866 -14.1168 25
346 3 68.1581 63.3434 -16.9997 26
347 1 71.5838 62.1408 -13.7719 27
350 1 71.4562 62.0826 -16.7127 28
354 2 71.9482 67.9327 -12.2947 25
1878 3 65.2838 60.0697 -10.801 23
1906 3 70.1031 60.1225 -10.5634 25
2029 1 64.4283 66.9369 -11.1734 28
2049 3 65.8134 65.1155 -10.8886 25
2054 3 63.3698 63.3501 -11.2339 24
2057 1 69.1863 66.9735 -10.9262 28
2058 1 66.6857 61.9347 -10.956 28
2077 3 70.6094 65.1026 -10.6073 24
2082 3 68.1581 63.3434 -10.977 26
2086 1 71.4562 62.0825 -10.69 28
194 1 45.3057 69.2812 -13.1076 24
198 2 45.6706 70.7045 -16.0807 23
204 3 46.2348 70.0152 -17.3768 22
205 3 46.3616 70.0285 -14.7944 22
212 1 50.234 69.6456 -13.0938 26
214 1 47.8806 69.0521 -15.9328 26
218 2 50.4547 70.879 -16.1192 25
222 3 48.8812 70.9071 -16.0897 22
224 3 49.0363 71.2949 -13.0867 25
228 3 48.7492 68.3692 -14.2002 24
230 3 51.1262 70.1907 -17.3952 24
231 3 51.1199 70.1731 -14.8358 24
233 3 48.7434 68.3743 -17.6469 23
242 1 52.6442 69.1525 -15.9255 26
250 3 53.7207 70.9768 -16.0709 22
252 3 53.9329 71.3755 -13.0857 25
256 3 53.5494 68.4996 -14.1875 24
261 3 53.5354 68.469 -17.6144 24
363 1 45.4243 76.6089 -14.6304 28
364 1 45.4122 76.7033 -17.7481 26
365 1 47.85 74.6187 -13.2018 26
367 1 45.4368 73.96 -16.1188 27
368 2 45.0494 73.6432 -13.0367 23
369 2 47.527 75.7611 -16.2348 25
371 3 46.437 72.8846 -13.1049 24
373 3 46.3378 72.1807 -16.1036 22
375 3 46.8161 75.0645 -17.4926 24
378 3 46.8887 75.0028 -14.9766 24
379 1 47.6743 71.8726 -14.566 28
380 1 50.2642 76.7988 -14.8181 29
381 1 50.2887 76.8793 -17.8484 30
382 1 47.6585 71.8596 -17.6458 27
383 1 52.5354 74.6858 -13.3407 27
385 1 50.1286 74.0706 -16.1336 27
387 2 49.8337 72.7558 -13.093 25
389 2 52.3122 75.8845 -16.3792 25
391 3 51.3748 72.6559 -13.1251 22
393 3 49.0777 75.9065 -16.2581 22
395 3 48.9159 76.3165 -13.2923 26
397 3 51.1735 72.3224 -16.1257 25
399 3 49.1654 73.4122 -14.381 24
401 3 51.6055 75.2643 -17.6691 24
404 3 51.6157 75.192 -15.1031 24
406 3 49.1398 73.41 -11.8208 25
407 1 52.579 71.9143 -14.6194 28
410 1 52.5779 71.9007 -17.6062 28
421 3 53.8603 76.0084 -16.3573 24
423 3 53.6833 76.4013 -13.4149 26
427 3 53.9521 73.5179 -14.3779 24
434 3 53.95 73.4916 -11.8006 25
1940 3 46.2348 70.0152 -11.3541 22
1966 3 51.1262 70.1907 -11.3724 24
1969 3 48.7434 68.3743 -11.6242 23
1997 3 53.5354 68.469 -11.5917 24
2100 1 45.4122 76.7033 -11.7253 26
2105 2 47.527 75.7611 -10.2121 25
2111 3 46.8161 75.0645 -11.4698 24
2117 1 50.2887 76.8793 -11.8257 30
2118 1 47.6585 71.8596 -11.623 27
2125 2 52.3122 75.8845 -10.3565 25
2129 3 49.0777 75.9065 -10.2354 22
2133 3 51.1735 72.3224 -10.103 25
2137 3 51.6055 75.2643 -11.6463 24
2146 1 52.5779 71.9007 -11.5834 28
2157 3 53.8603 76.0084 -10.3346 24
2134 3 51.6094 77.371 -10.3325 26
398 3 51.6094 77.371 -16.3553 26
12558 3 49.1398 73.41 -17.8435 25
12586 3 53.95 73.4916 -17.8233 25
374 3 46.8248 77.2069 -16.2076 26
1954 2 50.4547 70.879 -10.0965 25
2121 1 50.1286 74.0706 -10.1108 27
2110 3 46.8248 77.2069 -10.1849 26
426 3 56.4114 77.4585 -16.4657 26
240 1 55.082 69.7134 -13.0746 26
246 2 55.2935 70.9318 -16.0961 25
258 3 55.9648 70.2588 -17.374 24
259 3 55.9604 70.2371 -14.8138 24
268 1 59.8288 69.7209 -12.9894 28
270 1 57.4472 69.1763 -15.8686 27
274 2 60.0723 70.9401 -16.0121 25
278 3 58.5068 71.0073 -16.0157 22
280 3 58.7112 71.414 -13.0434 25
284 3 58.3337 68.5094 -14.1241 24
286 3 60.7393 70.2717 -17.2968 24
287 3 60.7232 70.2233 -14.734 24
289 3 58.3217 68.4797 -17.5604 24
298 1 62.1945 69.1478 -15.7798 27
312 3 63.0861 68.4649 -14.0407 24
317 3 63.0879 68.4795 -17.4884 24
408 1 55.068 76.9034 -14.9322 29
409 1 55.0707 76.9455 -17.9588 29
411 1 57.3151 74.769 -13.4506 27
413 1 54.9125 74.1499 -16.1314 26
415 2 54.6447 72.8738 -13.0856 25
417 2 57.1136 75.9717 -16.4938 25
419 3 56.1903 72.7777 -13.1285 22
425 3 55.9784 72.3937 -16.1022 25
429 3 56.4138 75.3635 -17.7862 25
432 3 56.4181 75.2767 -15.2144 25
435 1 57.3799 71.9585 -14.5805 29
436 1 59.8698 76.9919 -15.0615 29
437 1 59.8731 77.0054 -18.0741 29
438 1 57.3661 71.9551 -17.5785 29
439 1 62.089 74.8493 -13.5928 26
441 1 59.6804 74.1688 -16.0673 26
443 2 59.4324 72.9112 -13.0174 25
445 2 61.9119 76.0167 -16.6379 25
447 3 60.975 72.7869 -13.0531 24
449 3 58.6634 76.0791 -16.4496 24
451 3 58.4931 76.4713 -13.5218 26
453 3 60.7658 72.3979 -15.9974 25
455 3 58.7634 73.577 -14.313 26
457 3 61.2285 75.4435 -17.946 25
460 3 61.2323 75.3111 -15.3568 25
462 3 58.7591 73.5088 -17.7415 25
463 1 62.1464 71.9298 -14.4561 28
466 1 62.1204 71.953 -17.4693 29
479 3 63.2845 76.5448 -13.7063 26
1982 2 55.2935 70.9318 -10.0733 25
1994 3 55.9648 70.2588 -11.3513 24
2022 3 60.7393 70.2717 -11.274 24
2025 3 58.3217 68.4797 -11.5376 24
2053 3 63.0879 68.4795 -11.4657 24
2145 1 55.0707 76.9455 -11.9361 29
2149 1 54.9125 74.1499 -10.1086 26
2153 2 57.1136 75.9717 -10.471 25
2161 3 55.9784 72.3937 -10.0795 25
2165 3 56.4138 75.3635 -11.7635 25
2173 1 59.8731 77.0054 -12.0513 29
2174 1 57.3661 71.9551 -11.5557 29
2181 2 61.9119 76.0167 -10.6152 25
2185 3 58.6634 76.0791 -10.4268 24
2193 3 61.2285 75.4435 -11.9232 25
2198 3 58.7591 73.5088 -11.7188 25
2202 1 62.1204 71.953 -11.4465 29
2162 3 56.4114 77.4585 -10.443 26
306 3 63.2662 70.9756 -15.8661 23
296 1 64.5495 69.7062 -12.769 26
302 2 64.8231 70.9074 -15.796 25
308 3 63.4548 71.403 -12.9161 26
314 3 65.5059 70.2416 -17.0807 24
315 3 65.4679 70.1671 -14.5262 23
324 1 69.3227 69.7493 -12.3964 26
326 1 66.9369 69.138 -15.6187 26
330 2 69.5937 70.8991 -15.4247 25
334 3 68.0449 70.955 -15.5785 23
336 3 68.1981 71.4048 -12.651 24
340 3 67.838 68.4432 -13.8871 24
342 3 70.2996 70.2312 -16.7029 24
343 3 70.2411 70.1488 -14.1611 23
345 3 67.8603 68.5223 -17.332 24
352 1 71.7089 69.1621 -15.3242 27
464 1 64.6467 77.0971 -15.2671 28
467 1 66.8789 74.9462 -13.8018 27
469 1 64.4411 74.1512 -15.9171 25
471 2 64.1866 72.9039 -12.8439 24
473 2 66.6748 76.0475 -16.8675 24
475 3 65.7196 72.7068 -12.8188 24
477 3 63.461 76.1334 -16.5953 24
481 3 65.527 72.3587 -15.7424 23
483 3 63.5677 73.602 -14.1455 26
488 3 66.0497 75.3231 -15.5733 24
490 3 63.5319 73.4649 -17.5474 25
491 1 66.8883 71.8462 -14.1796 28
492 1 69.3983 77.1907 -15.5863 27
494 1 66.8537 71.9507 -17.2265 29
495 1 71.6264 74.9477 -14.0451 25
497 1 69.2057 74.1062 -15.6349 25
499 2 68.9278 72.9244 -12.5303 25
501 2 71.395 76.007 -17.1321 26
503 3 70.447 72.6189 -12.393 24
505 3 68.2107 76.2554 -16.9044 24
507 3 68.0634 76.6052 -14.0147 24
509 3 70.3005 72.3574 -15.3333 22
511 3 68.3568 73.6321 -13.8456 24
516 3 70.7609 75.3479 -15.8032 25
518 3 68.2629 73.447 -17.2203 24
519 1 71.6578 71.8233 -13.7512 28
522 1 71.6294 71.9604 -16.8242 28
2050 3 65.5059 70.2416 -11.058 24
2078 3 70.2996 70.2312 -10.6802 24
2081 3 67.8603 68.5223 -11.3093 24
2201 1 64.6425 77.0505 -12.2349 29
2209 2 66.6748 76.0475 -10.8448 24
2213 3 63.461 76.1334 -10.5726 24
2221 3 66.0007 75.5032 -12.1666 25
2226 3 63.5319 73.4649 -11.5246 25
2229 1 69.3912 77.0595 -12.5048 29
2230 1 66.8537 71.9507 -11.2037 29
2237 2 71.395 76.007 -11.1094 26
2241 3 68.2107 76.2554 -10.8817 24
2249 3 70.7038 75.4686 -12.4302 27
2254 3 68.2629 73.447 -11.1975 24
2258 1 71.6294 71.9604 -10.8014 28
1739 3 50.3715 50.1453 -8.66228 20
1740 3 48.7909 51.0152 -5.73724 21
1742 3 52.8847 51.0247 -9.448 24
1743 3 54.0017 51.0167 -7.08184 27
1755 1 45.2467 57.6389 -8.7696 27
1757 1 46.2287 55.2165 -7.58893 25
1759 1 45.5449 52.6637 -9.52068 21
1763 3 46.0811 51.5588 -6.23006 24
1764 3 46.3985 57.5494 -7.0913 22
1765 3 47.5304 51.2977 -8.73301 22
1766 3 46.3892 56.6675 -10.0542 26
1770 3 46.7873 54.2251 -9.20771 24
1771 1 47.8265 52.2448 -6.97602 23
1772 1 50.4907 58.1009 -8.88996 24
1775 1 52.4571 54.5729 -7.04846 27
1777 1 49.2917 54.6715 -8.47111 28
1779 2 50.4046 53.2106 -5.67507 23
1780 2 47.9821 57.6253 -7.26147 25
1783 3 51.3447 52.2401 -6.56753 23
1784 3 51.0744 57.5357 -7.02488 24
1787 3 48.4284 56.0964 -7.37525 25
1791 3 49.2593 53.5441 -6.71887 23
1792 3 48.564 58.2905 -8.55472 27
1796 3 51.3049 54.7791 -8.70158 25
1799 1 51.6728 52.3383 -8.60943 29
1808 2 52.6485 57.713 -6.99392 25
1815 3 53.3502 56.236 -6.88814 25
1819 3 53.6359 53.3675 -8.03106 22
1820 3 53.1366 58.1974 -8.42346 26
3475 3 50.3715 50.1453 -2.63955 20
3478 3 52.8847 51.0247 -3.42526 24
3491 1 45.2467 57.6389 -2.74687 27
3492 1 45.0853 56.6073 -5.69994 24
3495 1 45.5449 52.6637 -3.49795 21
3497 2 47.1417 55.2603 -4.38524 21
3501 3 47.5304 51.2977 -2.71028 22
3502 3 46.3892 56.6675 -4.03146 26
3503 3 46.442 54.7743 -5.71562 22
3506 3 46.7873 54.2251 -3.18498 24
3508 1 50.4907 58.1009 -2.86723 24
3509 1 49.8363 56.4813 -5.68283 29
3510 1 49.137 51.1732 -3.8185 27
3513 1 49.2917 54.6715 -2.44838 28
3517 2 51.8694 55.4914 -4.00944 27
3521 3 48.6993 55.3901 -4.35255 22
3526 3 51.163 56.8892 -4.17272 25
3528 3 48.564 58.2905 -2.53198 27
3529 3 51.2894 54.6566 -5.39808 26
3532 3 51.3049 54.7791 -2.67885 25
3533 3 48.6066 58.1965 -5.90507 24
3534 3 50.2848 52.698 -4.1737 23
3535 1 51.6728 52.3383 -2.5867 29
3538 1 52.6735 51.1107 -5.47051 27
3549 3 53.4253 55.6344 -3.97741 24
3561 3 53.3171 58.4402 -5.78619 24
3562 3 53.7035 53.0176 -5.48869 25
3514 1 47.7926 58.991 -4.22403 27
3556 3 53.1366 58.1974 -2.40073 26
3555 3 53.6359 53.3675 -2.00833 22
3469 3 45.2784 50.6218 -9.5578 26
5205 3 45.2784 50.6218 -3.53507 26
1737 2 46.644 49.9993 -9.03564 24
3473 2 46.644 49.9993 -3.01291 24
12643 1 66.8883 71.8462 27.9795 28
12337 3 72.5041 56.3043 29.7922 24
1741 2 54.388 50.4894 -9.39197 25
1744 2 59.3775 50.5067 -9.61104 25
1745 3 57.8637 50.7062 -9.70337 23
1746 3 58.2169 51.1284 -6.79681 24
1748 3 62.5013 50.9875 -8.89884 26
1800 1 54.692 56.7783 -8.38718 29
1803 1 56.9137 54.5413 -6.80421 28
1805 1 54.579 53.8438 -9.83254 29
1807 2 54.3548 52.5744 -6.87446 24
1809 2 56.7023 55.7433 -9.82827 24
1811 3 55.9119 52.5716 -6.73164 22
1812 3 55.8105 57.6062 -6.81834 23
1817 3 55.3993 51.7529 -9.54912 26
1818 3 55.9918 57.1839 -9.86239 26
1824 3 55.9912 55.0229 -8.57036 25
1827 1 56.9847 51.7867 -8.28001 24
1828 1 59.3882 56.8769 -8.21659 28
1831 1 61.6945 54.6386 -6.58712 29
1833 1 59.2054 53.939 -9.61896 28
1835 2 58.9301 52.56 -6.58171 25
1836 2 57.3688 57.7502 -6.75733 25
1837 2 61.511 55.652 -9.68341 26
1839 3 60.5105 52.3722 -6.5368 24
1840 3 60.5968 57.5115 -6.65312 24
1841 3 58.2607 55.7843 -9.73171 23
1843 3 58.0392 56.2189 -6.71928 26
1845 3 60.0582 51.9605 -9.37722 26
1846 3 60.7995 57.0546 -9.60176 26
1847 3 58.3599 53.3937 -7.82078 24
1848 3 58.0297 58.3227 -8.06626 24
1852 3 60.9977 54.6844 -8.47091 24
1855 1 61.5209 52.669 -8.27194 25
1862 1 61.9405 59.0705 -9.61305 29
1864 2 62.1355 57.7735 -6.62421 25
1871 3 62.8479 56.216 -6.60009 26
1876 3 62.8307 58.3343 -7.90829 23
3477 2 54.388 50.4894 -3.36924 25
3480 2 59.3775 50.5067 -3.58831 25
3481 3 57.8637 50.7062 -3.68064 23
3484 3 62.5012 50.9874 -2.8761 26
3536 1 54.692 56.7783 -2.36445 29
3537 1 54.6555 56.7534 -5.34762 28
3541 1 54.579 53.8438 -3.80981 29
3545 2 56.7023 55.7433 -3.80554 24
3553 3 55.3993 51.7529 -3.52639 26
3554 3 55.9918 57.1839 -3.83966 26
3557 3 56.0171 55.005 -5.05762 25
3560 3 55.9912 55.0229 -2.54763 25
3563 1 56.9847 51.7867 -2.25728 24
3564 1 59.3882 56.8769 -2.19386 28
3565 1 59.4132 56.829 -5.13554 27
3566 1 56.8349 51.7087 -5.0854 26
3569 1 59.2054 53.939 -3.59623 28
3573 2 61.511 55.652 -3.66068 26
3577 3 58.2607 55.7843 -3.70898 23
3581 3 60.0582 51.9605 -3.35449 26
3582 3 60.7995 57.0546 -3.57903 26
3585 3 60.7945 54.9591 -4.91612 26
3588 3 60.9977 54.6844 -2.44818 24
3589 3 58.0634 58.3598 -5.47671 24
3590 3 58.3212 53.1492 -5.24371 24
3594 1 61.4452 51.6533 -4.73284 30
3598 1 61.9405 59.0705 -3.59032 29
3617 3 62.8089 58.3317 -5.31298 24
1749 3 62.8617 50.9524 -5.95006 23
1869 3 63.0776 55.7445 -9.58949 23
1875 3 63.129 53.277 -7.20867 25
3605 3 63.0776 55.7445 -3.56674 23
3618 3 63.0126 53.0594 -4.61975 25
1834 1 57.173 59.0753 -9.76893 28
3570 1 57.173 59.0753 -3.7462 28
3584 3 58.0297 58.3227 -2.04353 24
3591 1 61.5209 52.669 -2.2492 25
4379 1 60.862 50.1027 -6.81075 26
4383 3 60.0186 50.0719 -4.98855 23
1747 2 63.9638 50.6285 -8.96003 26
1750 2 68.8968 50.6534 -8.89561 26
1751 3 67.3777 50.7071 -8.97438 24
1752 3 67.5822 50.8546 -5.92444 22
1856 1 64.2342 56.9367 -8.11885 28
1859 1 66.4133 54.5511 -6.55456 26
1861 1 63.942 53.9736 -8.98332 26
1863 2 63.606 52.4105 -5.96896 27
1865 2 66.2859 55.6911 -9.57775 24
1867 3 65.1607 52.2085 -5.92268 25
1868 3 65.3839 57.4862 -6.52053 23
1873 3 64.8922 51.9104 -8.90878 25
1874 3 65.5763 57.0813 -9.65082 24
1880 3 65.6187 54.9078 -8.30258 25
1883 1 66.1892 51.238 -7.38578 28
1884 1 69.3557 57.9188 -8.21493 21
1887 1 71.3408 54.8002 -6.59592 25
1889 1 68.6198 53.9832 -8.76839 25
1891 2 68.3002 52.2872 -5.91875 25
1892 2 66.945 57.6446 -6.51625 25
1893 2 71.075 55.6603 -9.54741 26
1895 3 69.877 52.0773 -5.94951 23
1896 3 70.2333 57.5404 -6.44507 24
1897 3 67.8389 55.6721 -9.50894 24
1899 3 67.575 56.1159 -6.38703 26
1901 3 69.678 51.9851 -8.88811 27
1902 3 70.4021 57.0614 -9.57384 27
1903 3 67.7218 53.0751 -7.17145 23
1904 3 67.5212 58.2271 -7.84943 24
1908 3 70.5261 54.6734 -8.37242 23
1911 1 71.1305 51.9127 -7.52117 25
1916 1 71.6282 59.2236 -9.46115 26
1918 2 71.7695 57.8334 -6.40897 26
3483 2 63.9638 50.6285 -2.93728 26
3486 2 68.8968 50.6534 -2.87294 26
3487 3 67.3777 50.707 -2.95163 24
3593 1 64.1463 56.8408 -5.03898 28
3597 1 63.942 53.9736 -2.96057 26
3601 2 66.2859 55.6911 -3.55502 24
3609 3 64.8922 51.9104 -2.88603 25
3610 3 65.5763 57.0813 -3.62806 24
3613 3 65.6616 54.7398 -4.72847 25
3616 3 65.6187 54.9077 -2.27986 25
3621 1 68.973 56.6884 -5.00592 28
3622 1 66.0435 52.7812 -4.19934 24
3625 1 68.6199 53.9832 -2.74572 25
3629 2 71.075 55.6603 -3.52469 26
3633 3 67.8389 55.6721 -3.48622 24
3637 3 69.678 51.9851 -2.86544 27
3638 3 70.4021 57.0614 -3.55114 27
3641 3 70.5048 54.8747 -4.83334 23
3645 3 67.6881 58.3274 -5.26527 24
3646 3 67.9373 53.0366 -4.57942 25
3650 1 70.6232 52.9605 -4.28176 23
3652 1 71.6282 59.2236 -3.43842 26
3592 1 64.2342 56.9367 -2.09613 28
1753 3 72.1337 50.7425 -8.72258 24
3489 3 72.1337 50.7426 -2.70016 24
1924 3 72.3445 58.3166 -7.78662 25
1890 1 66.6514 59.0365 -9.5457 27
3626 1 66.6514 59.0365 -3.52297 27
3620 1 69.3557 57.9188 -2.1922 21
3644 3 70.5261 54.6734 -2.34969 23
1754 3 72.3176 50.9261 -5.87234 22
3661 3 72.4561 58.476 -5.14873 24
1931 1 45.3043 63.9814 -9.99522 23
1933 2 47.474 65.6884 -9.98698 25
1937 3 46.2518 62.0584 -9.86949 22
1938 3 46.8137 67.1336 -9.9644 28
1949 1 50.1123 64.0917 -9.80361 28
1953 2 52.2166 65.8666 -9.89281 25
1957 3 49.0125 65.7912 -9.91815 23
1962 3 51.4966 67.2918 -9.90871 25
1985 3 53.7572 65.9443 -9.85514 23
3542 1 52.7142 59.1851 -4.08761 26
1758 1 45.3858 59.3403 -6.84151 24
1762 2 45.5898 60.6547 -9.98633 24
1769 3 46.0376 59.6537 -8.80404 22
1776 1 50.0973 59.5997 -6.61629 26
1782 2 50.3088 60.8327 -9.72899 25
1786 3 48.7351 60.8401 -9.85111 23
1788 3 48.9724 61.2279 -6.80974 25
1795 3 50.8741 60.0114 -8.44996 26
1814 3 53.5517 60.9502 -9.7791 22
1816 3 53.7811 61.3274 -6.74015 25
1927 1 45.5112 66.7269 -8.50452 26
1929 1 47.6981 64.6799 -6.94624 27
1935 3 46.3189 62.2912 -6.95049 22
1936 3 46.5516 67.4223 -6.89797 23
1942 3 46.7741 64.9608 -8.69387 24
1943 1 47.6873 61.981 -8.42552 28
1944 1 50.1676 66.8904 -8.41523 30
1947 1 52.4667 64.74 -6.878 28
1951 2 49.7479 62.759 -6.75717 25
1952 2 48.0941 67.7569 -6.88263 25
1955 3 51.2665 62.5465 -6.74903 24
1956 3 51.3254 67.6929 -6.91635 23
1959 3 48.8484 66.2436 -6.87585 27
1961 3 51.0504 62.207 -9.75587 24
1963 3 49.0632 63.378 -8.03575 25
1968 3 51.5165 65.1212 -8.61945 24
1971 1 52.485 61.9544 -8.27175 28
1980 2 52.8839 67.8901 -6.87131 25
1987 3 53.5684 66.3629 -6.86522 26
1991 3 53.8362 63.4465 -8.04031 24
3498 2 45.5898 60.6547 -3.9636 24
3504 3 46.2394 59.9722 -5.23367 24
3505 3 46.0376 59.6537 -2.78131 22
3518 2 50.3088 60.8327 -3.70626 25
3522 3 48.7351 60.8401 -3.82838 23
3530 3 50.9267 59.9241 -4.88186 26
3531 3 50.8741 60.0114 -2.42724 26
3550 3 53.5517 60.9502 -3.75637 22
3663 1 45.5112 66.7269 -2.48179 26
3664 1 45.3682 67.0 -5.27593 24
3667 1 45.3043 63.9814 -3.97249 23
3669 2 47.474 65.6884 -3.96425 25
3673 3 46.2518 62.0584 -3.84676 22
3674 3 46.8137 67.1336 -3.94167 28
3675 3 46.752 64.9083 -5.20023 23
3678 3 46.7741 64.9608 -2.67114 24
3679 1 47.6874 61.981 -2.40279 28
3680 1 50.1676 66.8904 -2.3925 30
3681 1 50.1848 66.9221 -5.38134 29
3682 1 47.5979 61.8954 -5.38756 27
3685 1 50.1123 64.0917 -3.78088 28
3689 2 52.2166 65.8666 -3.87008 25
3693 3 49.0125 65.7912 -3.89542 23
3697 3 51.0504 62.207 -3.73314 24
3698 3 51.4966 67.2918 -3.88598 25
3701 3 51.5257 65.1021 -5.12799 24
3704 3 51.5165 65.1212 -2.59672 24
3706 3 49.0544 63.2985 -5.45771 25
3707 1 52.485 61.9544 -2.24902 28
3710 1 52.4879 62.0903 -5.18607 28
3721 3 53.7572 65.9443 -3.83241 23
3734 3 53.873 63.4679 -5.46706 24
1990 3 56.2892 67.3608 -9.86651 25
1804 1 54.9147 59.665 -6.69315 28
1810 2 55.1401 60.8972 -9.72514 25
1823 3 55.6912 60.0971 -8.46887 24
1832 1 59.5644 59.6259 -6.62899 27
1838 2 59.8488 60.7952 -9.64552 25
1842 3 58.2827 60.866 -9.69933 22
1844 3 58.5358 61.3148 -6.7055 26
1851 3 60.4695 60.0152 -8.38583 23
1870 3 63.0536 60.8486 -9.58177 22
1972 1 54.9395 66.9607 -8.37781 30
1975 1 57.207 64.7297 -6.83489 28
1977 1 54.8697 64.1833 -9.78525 28
1979 2 54.5452 62.8521 -6.75323 25
1981 2 56.983 65.9153 -9.85029 25
1983 3 56.0674 62.6585 -6.74962 24
1984 3 56.0922 67.7536 -6.87389 23
1989 3 55.8478 62.3049 -9.72597 24
1996 3 56.2701 65.1986 -8.57598 24
1999 1 57.2563 61.9692 -8.25351 28
2000 1 59.6939 66.9455 -8.30928 30
2003 1 61.9327 64.7025 -6.76173 27
2005 1 59.5911 64.1385 -9.7024 28
2007 2 59.2783 62.8407 -6.66866 25
2008 2 57.6522 67.9 -6.81219 25
2009 2 61.7261 65.8817 -9.77708 25
2011 3 60.8114 62.646 -6.64485 24
2012 3 60.851 67.7275 -6.79304 23
2013 3 58.528 65.952 -9.79942 23
2015 3 58.3229 66.3681 -6.80381 26
2017 3 60.5675 62.2183 -9.62789 24
2018 3 61.0514 67.3353 -9.80301 25
2019 3 58.6107 63.4666 -7.95856 24
2024 3 61.0274 65.1691 -8.50288 24
2027 1 61.9737 61.9408 -8.15076 27
2036 2 62.4022 67.8692 -6.72447 25
2043 3 63.0776 66.3379 -6.69053 26
3546 2 55.1401 60.8972 -3.70241 25
3558 3 55.749 60.1254 -4.9663 23