ITEM: TIMESTEP
2000
ITEM: NUMBER OF ATOMS
13888
ITEM: BOX BOUNDS pp pp pp
45.0 100.0
50.0 105.0
-18.06819 30.11365
ITEM: ATOMS id type x y z Coordination
3 3 50.1325 50.3088 -14.8357 23
4 3 48.9138 51.4893 -12.1821 22
6 3 52.8069 51.2236 -15.4963 24
7 3 53.8706 51.0928 -13.1078 26
19 1 45.2926 57.6168 -14.6099 27
20 1 45.0859 56.6289 -17.6682 21
21 1 46.923 55.2623 -13.0686 26
23 1 45.689 53.0821 -15.828 21
12674 1 71.6362 71.9031 25.3348 28
25 2 47.2047 55.417 -16.1028 25
27 3 46.204 51.6262 -12.5779 25
28 3 46.5126 57.6049 -12.965 23
29 3 47.2283 51.7164 -15.2114 22
30 3 46.3533 56.7566 -16.0069 28
31 3 46.5813 54.5947 -17.3225 23
34 3 46.9893 54.4715 -14.8168 22
35 1 47.7275 52.6134 -13.4908 24
36 1 50.5856 58.3398 -14.899 24
37 1 49.9151 56.6538 -17.6301 30
38 1 48.9881 51.2531 -16.1865 26
39 1 52.4388 54.5989 -13.0563 26
41 1 49.5128 55.1095 -14.4638 24
43 2 50.1154 53.1368 -11.9164 22
44 2 48.0874 57.8766 -13.1438 25
45 2 51.9086 55.5645 -16.1442 27
47 3 51.2671 52.4559 -12.7907 22
48 3 51.121 57.7266 -12.9977 24
49 3 48.7251 55.6924 -16.2243 24
51 3 48.6077 56.3544 -13.1908 26
54 3 51.2113 56.9938 -16.097 26
55 3 49.1313 53.8442 -12.9052 23
56 3 48.6366 58.4751 -14.4768 27
57 3 51.2583 54.8914 -17.5116 24
60 3 51.4036 54.7579 -14.8331 25
61 3 48.6893 58.4585 -17.8278 24
62 3 50.1397 52.8241 -16.3968 26
63 1 51.6209 52.6397 -14.8316 28
66 1 52.57 51.2951 -17.527 27
72 2 52.6972 57.8069 -13.0083 25
77 3 53.4662 55.7122 -16.0952 24
79 3 53.3333 56.3043 -12.936 26
83 3 53.7185 53.4826 -14.0733 22
84 3 53.2113 58.3046 -14.4208 24
89 3 53.3598 58.4998 -17.7983 24
90 3 53.6434 53.1194 -17.5664 27
1756 1 45.0859 56.6289 -11.6454 21
1767 3 46.5813 54.5947 -11.2997 23
1773 1 49.9151 56.6538 -11.6074 30
1774 1 48.9881 51.2531 -10.1637 26
1793 3 51.2583 54.8914 -11.4888 24
1797 3 48.6893 58.4585 -11.8051 24
1798 3 50.1397 52.8241 -10.3741 26
1802 1 52.57 51.2951 -11.5043 27
1825 3 53.3598 58.4998 -11.7756 24
1826 3 53.6434 53.1194 -11.5437 27
1761 2 47.2047 55.417 -10.0801 25
13047 1 50.3064 50.2126 23.2508 26
13032 1 47.5602 50.0367 29.7308 24
5 2 54.2615 50.5731 -15.3906 25
8 2 59.3668 50.5526 -15.543 25
9 3 57.8508 50.7398 -15.6636 25
10 3 58.2189 51.1334 -12.7797 21
12 3 62.4771 51.0363 -14.8687 26
64 1 54.6861 56.799 -14.4156 28
65 1 54.6747 56.7683 -17.3954 28
67 1 56.9357 54.5859 -12.7894 28
69 1 54.578 53.9096 -15.8879 28
71 2 54.3208 52.6403 -12.9106 23
73 2 56.7133 55.7754 -15.8112 24
75 3 55.8712 52.5198 -12.7063 23
76 3 55.824 57.6273 -12.8226 23
81 3 55.3599 51.767 -15.5654 25
82 3 55.9998 57.2124 -15.8843 26
85 3 56.0415 54.9965 -17.0529 24
88 3 56.0116 55.089 -14.538 25
91 1 56.9447 51.7757 -14.2491 24
92 1 59.4165 56.9087 -14.1505 28
93 1 59.4194 56.8875 -17.0979 27
94 1 56.8223 51.7317 -17.0717 28
95 1 61.7072 54.6913 -12.5508 28
97 1 59.2 53.9696 -15.5854 27
99 2 58.9111 52.5709 -12.5546 25
100 2 57.3779 57.7832 -12.7313 25
101 2 61.5255 55.6944 -15.6447 26
103 3 60.4918 52.4052 -12.4874 24
104 3 60.6071 57.5563 -12.5844 24
105 3 58.2719 55.8209 -15.6928 23
107 3 58.0628 56.2557 -12.664 26
109 3 60.0393 52.0076 -15.3077 24
110 3 60.8209 57.0987 -15.5392 26
111 3 58.3287 53.4143 -13.7817 24
112 3 58.0509 58.3501 -14.0399 24
113 3 60.8048 55.0203 -16.9069 26
116 3 61.0068 54.7165 -14.4403 24
117 3 58.0541 58.4152 -17.4776 24
118 3 58.309 53.1569 -17.2345 24
119 1 61.503 52.6973 -14.2019 25
122 1 61.4221 51.7118 -16.6994 30
126 1 61.9365 59.1022 -15.572 28
128 2 62.1449 57.8152 -12.5498 25
135 3 62.8553 56.2638 -12.6063 26
140 3 62.804 58.4423 -13.8195 23
145 3 62.8506 58.3218 -17.2561 24
1801 1 54.6747 56.7683 -11.3727 28
1821 3 56.0415 54.9964 -11.0302 24
1829 1 59.4194 56.8875 -11.0752 27
1830 1 56.8223 51.7317 -11.049 28
1849 3 60.8048 55.0203 -10.8842 26
1853 3 58.0541 58.4152 -11.4549 24
1854 3 58.309 53.1569 -11.2118 24
1858 1 61.4221 51.7118 -10.6766 30
1881 3 62.8506 58.3218 -11.2333 24
13 3 62.8337 50.9863 -11.8904 23
133 3 63.0981 55.785 -15.5662 23
139 3 63.1176 53.3038 -13.1682 25
146 3 63.0114 53.1166 -16.6119 25
1882 3 63.0114 53.1166 -10.5892 25
12165 3 62.8337 50.9863 -17.9131 23
11 2 63.9379 50.6628 -14.9314 26
14 2 68.8713 50.7022 -14.9099 26
15 3 67.3568 50.7456 -14.9784 24
16 3 67.5588 50.8746 -11.927 22
120 1 64.2276 57.1744 -14.2103 27
121 1 64.2039 56.7899 -17.1169 28
123 1 66.4877 54.6132 -12.6591 28
125 1 63.9003 54.0046 -14.9112 26
127 2 63.5896 52.4305 -11.9285 26
129 2 66.3155 55.712 -15.6417 25
131 3 65.1431 52.2429 -11.8964 25
132 3 65.4154 57.4814 -12.5798 24
137 3 64.8665 51.9443 -14.9114 25
138 3 65.6005 57.0943 -15.6385 25
141 3 65.707 54.8835 -16.9 26
144 3 65.7119 54.7788 -14.4507 23
147 1 66.1872 51.3452 -13.3983 27
148 1 69.0941 57.1059 -14.0985 27
149 1 68.9961 56.7722 -17.0272 28
150 1 65.9771 52.9202 -16.2078 24
151 1 71.3846 54.7569 -12.5265 28
153 1 68.6412 53.9505 -14.8218 26
155 2 68.2946 52.2986 -11.8892 26
156 2 66.9527 57.7341 -12.5653 25
157 2 71.1081 55.6217 -15.4992 26
159 3 69.8754 52.0448 -11.9089 24
160 3 70.2539 57.4388 -12.4624 24
161 3 67.8825 55.7456 -15.5175 23
163 3 67.682 56.1795 -12.5539 26
165 3 69.6639 52.0358 -14.8981 26
166 3 70.4156 57.0181 -15.5721 25
167 3 67.7502 53.0866 -13.1621 23
168 3 67.5699 58.2907 -13.8831 23
169 3 70.5579 54.7495 -16.7555 24
172 3 70.4446 54.7914 -14.2491 24
173 3 67.6685 58.3162 -17.3066 25
174 3 67.8824 53.0709 -16.6 25
175 1 71.111 51.875 -13.5085 24
178 1 70.7968 52.8015 -16.3034 23
180 1 71.5332 59.0991 -15.4091 27
182 2 71.7785 57.7939 -12.4201 26
1857 1 64.2039 56.7899 -11.0942 28
1877 3 65.707 54.8835 -10.8773 26
1885 1 68.9961 56.7722 -11.0045 28
1886 1 65.9771 52.9202 -10.1851 24
1905 3 70.5579 54.7495 -10.7328 24
1909 3 67.6685 58.3162 -11.2838 25
1910 3 67.8824 53.0709 -10.5772 25
1914 1 70.7968 52.8015 -10.2807 23
12279 2 63.5896 52.4305 -17.9513 26
12283 3 65.1431 52.2429 -17.9191 25
12307 2 68.2946 52.2986 -17.9119 26
12311 3 69.8754 52.0448 -17.9316 24
17 3 72.0974 50.8458 -14.8626 25
188 3 72.4146 58.2076 -13.787 26
42 1 47.8833 59.2043 -16.1514 26
70 1 52.8106 59.2744 -16.1094 26
22 1 45.4306 59.3939 -12.7337 26
26 2 45.615 60.6868 -15.8984 24
32 3 46.2903 60.0193 -17.1604 24
33 3 46.0652 59.7 -14.699 22
40 1 50.1937 59.7526 -12.4809 30
46 2 50.3841 61.0001 -15.6033 25
50 3 48.811 61.0097 -15.7362 23
52 3 49.029 61.348 -12.6876 25
58 3 50.9791 59.9984 -16.7311 26
59 3 50.9608 60.2301 -14.3018 26
78 3 53.599 61.0367 -15.717 22
80 3 53.8046 61.4041 -12.6825 26
191 1 45.5054 66.7389 -14.4761 26
192 1 45.3681 66.9799 -17.2689 24
193 1 47.711 64.7687 -12.9267 28
195 1 45.3012 63.9837 -15.9395 23
12657 3 68.2357 76.2322 25.3854 25
197 2 47.4887 65.7139 -15.9566 27
199 3 46.3281 62.305 -12.8773 22
200 3 46.5576 67.4216 -12.8669 23
201 3 46.2744 62.097 -15.7957 22
202 3 46.8027 67.1471 -15.931 28
203 3 46.7638 64.9237 -17.1912 23
206 3 46.8053 64.9642 -14.669 23
207 1 47.7138 62.098 -14.3551 27
208 1 50.1839 66.9477 -14.3697 30
209 1 50.2048 67.0033 -17.3633 28
210 1 47.6434 62.0573 -17.3144 28
211 1 52.4973 64.8069 -12.8388 28
213 1 50.1663 64.205 -15.76 28
215 2 49.7997 62.8753 -12.6763 26
216 2 48.0931 67.8018 -12.8436 25
217 2 52.251 65.9672 -15.8488 26
219 3 51.3212 62.6747 -12.6649 23
220 3 51.3402 67.7611 -12.8892 23
221 3 49.0233 65.8656 -15.8585 23
223 3 48.8733 66.2991 -12.8275 27
225 3 51.1345 62.3532 -15.7037 25
226 3 51.5144 67.381 -15.8682 25
227 3 49.1201 63.4542 -13.9744 25
229 3 51.553 65.2073 -17.1063 24
232 3 51.5503 65.224 -14.5704 24
234 3 49.0994 63.4334 -17.4129 26
235 1 52.5294 62.0161 -14.1763 28
238 1 52.5551 62.1992 -17.1277 29
244 2 52.8992 67.9512 -12.8462 25
249 3 53.7896 66.0233 -15.8171 23
251 3 53.5957 66.4291 -12.8429 26
255 3 53.8842 63.5114 -14.021 24
262 3 53.9154 63.5646 -17.4726 24
1768 3 46.2903 60.0193 -11.1377 24
1794 3 50.9791 59.9984 -10.7084 26
1928 1 45.3681 66.9799 -11.2461 24
1939 3 46.7638 64.9237 -11.1685 23
1945 1 50.2048 67.0033 -11.3406 28
1946 1 47.6434 62.0573 -11.2916 28
1965 3 51.553 65.2073 -11.0835 24
1970 3 49.0994 63.4334 -11.3901 26
1974 1 52.5551 62.1992 -11.105 29
1998 3 53.9154 63.5646 -11.4499 24
98 1 57.1831 59.1206 -15.7403 28
68 1 54.942 59.7386 -12.6648 28
74 2 55.1858 60.9712 -15.6807 25
86 3 55.7578 60.1795 -16.9481 23
87 3 55.7528 60.1823 -14.4222 24
96 1 59.5777 59.6744 -12.626 27
102 2 59.8673 60.8398 -15.6517 25
106 3 58.3021 60.9179 -15.6954 22
108 3 58.5759 61.3778 -12.6826 26
114 3 60.5172 60.0695 -16.9126 23
115 3 60.472 60.0658 -14.384 23
134 3 63.0577 60.8756 -15.603 22
236 1 54.9638 67.0276 -14.36 30
237 1 54.9764 67.0497 -17.3433 28
239 1 57.2248 64.7822 -12.8129 29
241 1 54.9013 64.2553 -15.7567 28
243 2 54.586 62.9375 -12.7264 25
245 2 57.0076 65.9769 -15.8236 25
247 3 56.1017 62.7172 -12.7267 24
248 3 56.1184 67.8058 -12.8604 23
253 3 55.8894 62.3759 -15.7122 25
254 3 56.313 67.4215 -15.8467 25
257 3 56.3032 65.2593 -17.0883 24
260 3 56.2992 65.2625 -14.5475 24
263 1 57.2985 62.0173 -14.2352 28
264 1 59.722 66.9832 -14.2905 30
265 1 59.7215 66.9967 -17.2762 28
266 1 57.2618 62.0024 -17.1945 28
267 1 61.9521 64.7337 -12.7448 27
269 1 59.604 64.1908 -15.6909 28
271 2 59.3086 62.9118 -12.6579 25
272 2 57.6801 67.9402 -12.7956 25
273 2 61.7505 65.9118 -15.7563 25
275 3 60.8407 62.7118 -12.6485 24
276 3 60.8816 67.7506 -12.7787 23
277 3 58.5516 66.0095 -15.7764 23
279 3 58.3483 66.4102 -12.783 26
281 3 60.5834 62.2614 -15.6393 24
282 3 61.0804 67.3673 -15.7842 25
283 3 58.6307 63.5205 -13.9508 24
285 3 61.0524 65.1919 -17.018 24
288 3 61.0439 65.2039 -14.4842 24
290 3 58.6285 63.4851 -17.3833 24
291 1 61.9925 61.9758 -14.1578 28
294 1 61.965 61.9607 -17.1066 28
300 2 62.435 67.8878 -12.7051 25
307 3 63.1048 66.3544 -12.6732 26
1822 3 55.7578 60.1795 -10.9254 23
1850 3 60.5172 60.0695 -10.8899 23
1973 1 54.9764 67.0497 -11.3206 28
1993 3 56.3032 65.2593 -11.0656 24
2001 1 59.7215 66.9967 -11.2535 28
2002 1 57.2618 62.0024 -11.1718 28
2021 3 61.0524 65.1919 -10.9953 24
2026 3 58.6285 63.4851 -11.3606 24
2030 1 61.965 61.9607 -11.0838 28
154 1 66.7237 59.0789 -15.584 27
124 1 64.3502 59.672 -12.531 27
130 2 64.6175 60.7922 -15.5478 26
136 3 63.2971 61.3193 -12.5938 25
142 3 65.2985 60.0666 -16.8387 23
143 3 65.2014 59.9233 -14.3262 22
152 1 69.1403 59.6611 -12.295 28
158 2 69.395 60.7549 -15.3072 26
162 3 67.8373 60.8257 -15.4329 22
164 3 68.0746 61.2845 -12.4613 25
170 3 70.0755 60.0539 -16.6121 24
171 3 69.9834 59.8449 -14.1081 23
292 1 64.4806 66.9354 -14.1695 29
293 1 64.4641 66.947 -17.148 28
295 1 66.7041 64.7193 -12.6038 27
297 1 64.3512 64.1368 -15.5719 27
299 2 64.04 62.8444 -12.5503 25
301 2 66.5151 65.8531 -15.6144 25
303 3 65.5791 62.625 -12.5307 24
304 3 65.6453 67.6897 -12.629 23
305 3 63.3022 65.9448 -15.6865 23
309 3 65.3569 62.1962 -15.4825 24
310 3 65.8426 67.3038 -15.6634 25
311 3 63.3776 63.4693 -13.8386 23
313 3 65.8307 65.1106 -16.8691 24
316 3 65.8037 65.1507 -14.3407 24
318 3 63.3923 63.4012 -17.255 24
319 1 66.7813 62.0123 -14.0429 27
320 1 69.2655 66.9217 -13.9425 29
321 1 69.218 66.9382 -16.9236 28
322 1 66.7073 61.9052 -16.9856 28
323 1 71.4815 64.7502 -12.3649 28
325 1 69.1265 64.1112 -15.368 27
327 2 68.8127 62.8129 -12.3513 25
328 2 67.1934 67.8551 -12.5465 25
329 2 71.2934 65.8344 -15.3767 25
331 3 70.3526 62.5944 -12.3019 23
332 3 70.4271 67.6653 -12.3701 23
333 3 68.0684 65.8981 -15.5116 23
335 3 67.8772 66.3219 -12.4739 26
337 3 70.1322 62.158 -15.2188 25
338 3 70.6129 67.2782 -15.4395 25
339 3 68.1512 63.4677 -13.6252 24
341 3 70.6168 65.0654 -16.6214 23
344 3 70.5797 65.1349 -14.1002 25
346 3 68.1636 63.3224 -17.0393 25
347 1 71.5892 62.0667 -13.8069 27
350 1 71.4813 61.9205 -16.7437 27
354 2 71.9713 67.8659 -12.2772 25
1878 3 65.2985 60.0666 -10.816 23
1906 3 70.0755 60.0539 -10.5894 24
2029 1 64.4641 66.947 -11.1253 28
2049 3 65.8307 65.1106 -10.8464 24
2054 3 63.3923 63.4012 -11.2323 24
2057 1 69.218 66.9382 -10.9009 28
2058 1 66.7073 61.9052 -10.9629 28
2077 3 70.6168 65.0654 -10.5986 23
2082 3 68.1636 63.3224 -11.0166 25
2086 1 71.4813 61.9205 -10.721 27
194 1 45.2905 69.2832 -13.0362 24
198 2 45.6521 70.7051 -16.006 23
204 3 46.21 70.0132 -17.3027 21
205 3 46.3487 70.0326 -14.7196 22
212 1 50.2372 69.6902 -13.0442 26
214 1 47.8764 69.0793 -15.8703 26
218 2 50.4505 70.9155 -16.0647 25
222 3 48.8758 70.9356 -16.0256 22
224 3 49.027 71.3241 -13.0203 25
228 3 48.7464 68.4163 -14.1358 25
230 3 51.1199 70.2247 -17.3385 24
231 3 51.1257 70.2255 -14.7781 24
233 3 48.7328 68.4181 -17.5823 23
242 1 52.6578 69.2095 -15.8695 26
250 3 53.7325 71.0197 -16.0365 22
252 3 53.938 71.407 -13.0497 25
256 3 53.5653 68.5606 -14.1393 24
261 3 53.547 68.5191 -17.5602 24
363 1 45.3972 76.5765 -14.5046 28
364 1 45.3707 76.734 -17.6214 26
365 1 47.8295 74.6373 -13.1017 26
367 1 45.4174 73.9621 -16.0322 27
368 2 45.0222 73.6326 -12.9407 23
369 2 47.504 75.773 -16.1334 25
371 3 46.418 72.891 -13.0138 24
373 3 46.321 72.1825 -16.0277 22
375 3 46.7936 75.0754 -17.3889 24
378 3 46.8645 75.0093 -14.8767 23
379 1 47.6615 71.8981 -14.4966 27
380 1 50.2481 76.7996 -14.7402 28
381 1 50.2773 76.9001 -17.7796 29
382 1 47.6527 71.8864 -17.5697 27
383 1 52.542 74.7027 -13.2718 27
385 1 50.1211 74.0999 -16.085 27
387 2 49.8261 72.7846 -13.0389 25
389 2 52.3062 75.9034 -16.3118 25
391 3 51.3684 72.687 -13.0761 22
393 3 49.0541 75.9228 -16.1746 22
395 3 48.897 76.3343 -13.2159 26
397 3 51.1692 72.359 -16.085 25
399 3 49.1527 73.4319 -14.3282 24
401 3 51.5952 75.2821 -17.6012 24
404 3 51.6092 75.2085 -15.0364 25
406 3 49.1287 73.4425 -11.7684 24
407 1 52.5778 71.9561 -14.5798 28
410 1 52.5805 71.9361 -17.5648 28
421 3 53.8546 76.0267 -16.3002 23
423 3 53.681 76.4159 -13.3595 25
427 3 53.9567 73.5412 -14.3504 24
434 3 53.9523 73.526 -11.7774 25
1940 3 46.21 70.0132 -11.2799 21
1966 3 51.1199 70.2247 -11.3158 24
1969 3 48.7328 68.4181 -11.5596 23
1997 3 53.547 68.5191 -11.5375 24
2100 1 45.3707 76.734 -11.5987 26
2105 2 47.504 75.773 -10.1107 25
2111 3 46.7936 75.0754 -11.3662 24
2117 1 50.2773 76.9001 -11.7569 29
2118 1 47.6527 71.8864 -11.5469 27
2125 2 52.3062 75.9034 -10.289 25
2129 3 49.0541 75.9228 -10.1519 22
2133 3 51.1692 72.359 -10.0623 25
2137 3 51.5952 75.2821 -11.5785 24
2146 1 52.5805 71.9361 -11.542 28
2157 3 53.8546 76.0267 -10.2774 23
2134 3 51.5955 77.385 -10.2641 26
398 3 51.5955 77.385 -16.2868 26
12558 3 49.1287 73.4425 -17.7911 24
12586 3 53.9523 73.526 -17.8001 25
374 3 46.7911 77.2157 -16.0938 26
426 3 56.4143 77.473 -16.4097 26
240 1 55.1047 69.7585 -13.0449 27
246 2 55.3066 70.9706 -16.0665 25
258 3 55.9769 70.2946 -17.3424 24
259 3 55.9766 70.2802 -14.7841 24
268 1 59.859 69.7528 -12.9737 27
270 1 57.4701 69.2181 -15.8312 26
274 2 60.0952 70.9624 -15.9982 25
278 3 58.5285 71.0387 -15.9959 22
280 3 58.729 71.4376 -13.023 26
284 3 58.3592 68.5484 -14.0858 24
286 3 60.7632 70.2958 -17.2828 24
287 3 60.746 70.2455 -14.7199 24
289 3 58.3477 68.5198 -17.5216 24
298 1 62.2259 69.1674 -15.7406 27
312 3 63.119 68.4822 -13.9987 24
317 3 63.1161 68.4903 -17.4435 24
408 1 55.0693 76.9056 -14.8727 29
409 1 55.0749 76.9659 -17.9047 29
411 1 57.3352 74.7849 -13.3886 26
413 1 54.9235 74.1769 -16.1056 26
415 2 54.6543 72.9023 -13.0581 25
417 2 57.1213 75.9889 -16.4342 25
419 3 56.2001 72.8046 -13.0998 22
425 3 55.9952 72.4306 -16.0796 25
429 3 56.4163 75.3765 -17.7242 25
432 3 56.4233 75.2952 -15.1548 25
435 1 57.3963 71.9953 -14.5602 29
436 1 59.8824 76.986 -14.9943 29
437 1 59.8902 77.0237 -18.0136 29
438 1 57.3846 71.9826 -17.5544 29
439 1 62.1138 74.8547 -13.5236 26
441 1 59.7049 74.1884 -16.0535 26
443 2 59.4538 72.9316 -13.0036 25
445 2 61.928 76.0298 -16.5675 25
447 3 60.997 72.8061 -13.0371 24
449 3 58.6713 76.0917 -16.394 24
451 3 58.5048 76.4832 -13.4637 26
453 3 60.7914 72.4194 -15.9847 25
455 3 58.7787 73.5955 -14.2973 26
457 3 61.2427 75.4503 -17.874 26
460 3 61.243 75.325 -15.2875 25
462 3 58.7762 73.5365 -17.7314 25
463 1 62.1772 71.9587 -14.4473 28
466 1 62.1516 71.9602 -17.4559 29
479 3 63.3034 76.5515 -13.6287 26
1982 2 55.3066 70.9706 -10.0437 25
1994 3 55.9769 70.2946 -11.3197 24
2022 3 60.7632 70.2958 -11.2601 24
2025 3 58.3477 68.5198 -11.4989 24
2053 3 63.1161 68.4903 -11.4208 24
2145 1 55.0749 76.9659 -11.882 29
2149 1 54.9235 74.1769 -10.0829 26
2153 2 57.1213 75.9889 -10.4114 25
2161 3 55.9952 72.4306 -10.0569 25
2165 3 56.4163 75.3765 -11.7015 25
2173 1 59.8902 77.0237 -11.9909 29
2174 1 57.3846 71.9826 -11.5317 29
2177 1 59.7049 74.1884 -10.0308 26
2181 2 61.928 76.0298 -10.5447 25
2185 3 58.6713 76.0917 -10.3713 24
2193 3 61.2427 75.4503 -11.8513 26
2198 3 58.7762 73.5365 -11.7087 25
2202 1 62.1516 71.9602 -11.4331 29
2162 3 56.4143 77.473 -10.3869 26
306 3 63.295 70.9847 -15.8502 23
296 1 64.5904 69.7129 -12.7687 28
302 2 64.8538 70.9034 -15.7909 25
308 3 63.4881 71.4127 -12.905 26
314 3 65.5317 70.2408 -17.0781 24
315 3 65.4997 70.1644 -14.5219 23
324 1 69.3431 69.7112 -12.3972 26
326 1 66.974 69.1159 -15.5785 26
330 2 69.6159 70.856 -15.4202 25
334 3 68.0668 70.9274 -15.5703 23
336 3 68.2222 71.3813 -12.6477 25
340 3 67.8737 68.416 -13.8518 24
342 3 70.3169 70.1916 -16.7013 24
343 3 70.2626 70.108 -14.1572 23
345 3 67.8864 68.4848 -17.2965 24
352 1 71.7293 69.1021 -15.3021 27
464 1 64.6689 77.0764 -15.1762 29
465 1 64.6669 77.0572 30.0031 30
467 1 66.9082 74.9382 -13.7091 26
469 1 64.4698 74.1531 -15.9017 26
471 2 64.2202 72.9125 -12.8351 24
473 2 66.6974 76.0489 -16.7702 24
475 3 65.7538 72.72 -12.8212 23
477 3 63.4773 76.1332 -16.5209 24
481 3 65.5551 72.3569 -15.7422 25
483 3 63.5903 73.6122 -14.1317 26
485 3 66.027 75.4998 30.0894 26
488 3 66.063 75.3255 -15.4777 25
490 3 63.5628 73.4756 -17.5403 25
491 1 66.9224 71.8575 -14.1858 28
492 1 69.4208 77.149 -15.4314 28
494 1 66.8807 71.9266 -17.2241 29
495 1 71.6538 74.9551 -13.8975 26
497 1 69.2331 74.0706 -15.6205 25
499 2 68.9534 72.8968 -12.5223 25
501 2 71.4088 75.9985 -16.9784 26
503 3 70.4716 72.5967 -12.3963 24
505 3 68.2357 76.2322 -16.7738 25
507 3 68.0847 76.6101 -13.8863 24
509 3 70.3171 72.314 -15.3323 22
511 3 68.3834 73.6169 -13.8318 24
513 3 70.7304 75.4666 29.8764 26
516 3 70.7793 75.3254 -15.6566 24
518 3 68.2914 73.4213 -17.2126 24
519 1 71.6709 71.7853 -13.7505 27
522 1 71.6362 71.9031 -16.8243 28
2050 3 65.5317 70.2408 -11.0554 24
2078 3 70.3169 70.1916 -10.6786 24
2081 3 67.8864 68.4848 -11.2738 24
2201 1 64.6669 77.0572 -12.156 30
2209 2 66.6974 76.0489 -10.7474 24
2213 3 63.4773 76.1332 -10.4982 24
2221 3 66.027 75.4998 -12.0697 26
2226 3 63.5628 73.4756 -11.5176 25
2229 1 69.4176 77.0698 -12.3755 30
2230 1 66.8807 71.9266 -11.2014 29
2237 2 71.4088 75.9985 -10.9557 26
2241 3 68.2357 76.2322 -10.751 25
2249 3 70.7304 75.4666 -12.2827 26
2254 3 68.2914 73.4213 -11.1898 24
2258 1 71.6362 71.9031 -10.8016 28
1739 3 50.1325 50.3088 -8.813 23
1740 3 48.9138 51.4893 -6.15939 22
1742 3 52.8069 51.2236 -9.47358 24
1743 3 53.8706 51.0928 -7.08503 26
1755 1 45.2926 57.6168 -8.58721 27
1757 1 46.923 55.2623 -7.04586 26
1759 1 45.689 53.0821 -9.80532 21
12671 1 71.6709 71.7853 28.4086 27
1763 3 46.204 51.6262 -6.55512 25
1764 3 46.5126 57.6049 -6.94224 23
1765 3 47.2283 51.7164 -9.18865 22
1766 3 46.3533 56.7566 -9.9842 28
1770 3 46.9893 54.4715 -8.79411 22
1771 1 47.7275 52.6135 -7.46806 24
1772 1 50.5856 58.3398 -8.8763 24
1775 1 52.4388 54.5989 -7.03358 26
1777 1 49.5128 55.1095 -8.44108 24
1779 2 50.1154 53.1368 -5.89363 22
1780 2 48.0874 57.8766 -7.12106 25
1781 2 51.9086 55.5645 -10.1215 27
1783 3 51.2672 52.4559 -6.768 22
1784 3 51.121 57.7266 -6.97494 24
1785 3 48.7251 55.6924 -10.2016 24
1787 3 48.6077 56.3544 -7.16803 26
1790 3 51.2113 56.9938 -10.0743 26
1791 3 49.1313 53.8442 -6.88249 23
1792 3 48.6366 58.4751 -8.4541 27
1796 3 51.4036 54.7579 -8.81037 25
1799 1 51.6209 52.6397 -8.80892 28
1808 2 52.6972 57.8069 -6.98554 25
1813 3 53.4662 55.7122 -10.0725 24
1815 3 53.3333 56.3043 -6.91325 26
1819 3 53.7185 53.4826 -8.05062 22
1820 3 53.2113 58.3046 -8.39809 24
3475 3 50.1325 50.3088 -2.79028 23
3478 3 52.8069 51.2236 -3.45085 24
3491 1 45.2926 57.6168 -2.56448 27
3492 1 45.0859 56.6289 -5.62271 21
3495 1 45.689 53.0821 -3.78259 21
3497 2 47.2047 55.417 -4.05738 25
3501 3 47.2283 51.7164 -3.16592 22
3502 3 46.3533 56.7566 -3.96147 28
3503 3 46.5813 54.5947 -5.277 23
3506 3 46.9893 54.4715 -2.77137 22
3508 1 50.5856 58.3398 -2.85357 24
3509 1 49.9151 56.6538 -5.58469 30
3510 1 48.9881 51.2531 -4.14099 26
3513 1 49.5128 55.1095 -2.41835 24
3517 2 51.9086 55.5645 -4.09877 27
3521 3 48.7251 55.6925 -4.17886 24
3526 3 51.2113 56.9938 -4.05155 26
3528 3 48.6366 58.4751 -2.43137 27
3529 3 51.2583 54.8914 -5.4661 24
3532 3 51.4036 54.7579 -2.78764 25
3533 3 48.6893 58.4585 -5.78237 24
3534 3 50.1397 52.8241 -4.35132 26
3535 1 51.6209 52.6397 -2.78619 28
3538 1 52.57 51.2951 -5.48155 27
3549 3 53.4662 55.7122 -4.04977 24
3561 3 53.3598 58.4998 -5.75285 24
3562 3 53.6434 53.1194 -5.52096 27
11296 1 47.5602 50.0367 23.7081 24
1741 2 54.2615 50.5731 -9.3679 25
1744 2 59.3668 50.5526 -9.52031 25
1745 3 57.8508 50.7398 -9.64089 25
1746 3 58.2189 51.1334 -6.75699 21
1748 3 62.4771 51.0363 -8.84593 26
1800 1 54.6861 56.799 -8.39283 28
1803 1 56.9357 54.5859 -6.76668 28
1805 1 54.578 53.9096 -9.86522 28
1807 2 54.3208 52.6403 -6.88789 23
1809 2 56.7133 55.7754 -9.78844 24
1811 3 55.8712 52.5198 -6.68353 23
1812 3 55.824 57.6273 -6.7999 23
1817 3 55.3599 51.767 -9.54265 25
1818 3 55.9998 57.2124 -9.86161 26
1824 3 56.0116 55.089 -8.51526 25
1827 1 56.9447 51.7757 -8.2264 24
1828 1 59.4165 56.9087 -8.12773 28
1831 1 61.7072 54.6913 -6.52804 28
1833 1 59.2 53.9696 -9.56262 27
1835 2 58.9111 52.5709 -6.53187 25
1836 2 57.3779 57.7832 -6.7086 25
1837 2 61.5255 55.6944 -9.62197 26
1839 3 60.4918 52.4052 -6.46471 24
1840 3 60.6071 57.5563 -6.56165 24
1841 3 58.2719 55.8209 -9.67004 23
1843 3 58.0628 56.2557 -6.64131 26
1845 3 60.0393 52.0076 -9.28494 24
1846 3 60.8209 57.0987 -9.51642 26
1847 3 58.3287 53.4143 -7.75894 24
1848 3 58.0509 58.3501 -8.01712 24
1852 3 61.0068 54.7165 -8.41755 24
1855 1 61.503 52.6973 -8.17921 25
1862 1 61.9365 59.1022 -9.54931 28
1864 2 62.1449 57.8152 -6.52707 25
1871 3 62.8553 56.2638 -6.58354 26
1876 3 62.804 58.4423 -7.79675 23
3477 2 54.2615 50.5731 -3.34517 25
3480 2 59.3668 50.5526 -3.49757 25
3481 3 57.8508 50.7398 -3.61816 25
3484 3 62.4771 51.0363 -2.8232 26
3536 1 54.6861 56.799 -2.3701 28
3537 1 54.6747 56.7683 -5.34995 28
3541 1 54.578 53.9096 -3.84248 28
3545 2 56.7133 55.7754 -3.76571 24
3553 3 55.3599 51.767 -3.51991 25
3554 3 55.9998 57.2124 -3.83888 26
3557 3 56.0415 54.9965 -5.00745 24
3560 3 56.0116 55.089 -2.49253 25
3563 1 56.9447 51.7757 -2.20367 24
3564 1 59.4165 56.9087 -2.105 28
3565 1 59.4194 56.8875 -5.05246 27
3566 1 56.8223 51.7317 -5.02628 28
3569 1 59.2 53.9696 -3.53989 27
3573 2 61.5255 55.6944 -3.59924 26
3577 3 58.2719 55.8209 -3.64731 23
3581 3 60.0393 52.0076 -3.26221 24
3582 3 60.8209 57.0987 -3.49369 26
3585 3 60.8048 55.0203 -4.86144 26
3588 3 61.0068 54.7165 -2.39482 24
3589 3 58.0541 58.4152 -5.43214 24
3590 3 58.309 53.1569 -5.18902 24
3594 1 61.4221 51.7118 -4.65389 30
3598 1 61.9365 59.1022 -3.52658 28
3617 3 62.8506 58.3218 -5.21062 24
1749 3 62.8337 50.9863 -5.86767 23
1869 3 63.0981 55.785 -9.5435 23
1875 3 63.1176 53.3038 -7.14551 25
3605 3 63.0981 55.785 -3.52076 23
3618 3 63.0114 53.1166 -4.56644 25
1747 2 63.9379 50.6628 -8.90871 26
1750 2 68.8713 50.7022 -8.88714 26
1751 3 67.3568 50.7456 -8.95571 24
1752 3 67.5588 50.8746 -5.90426 22
1856 1 64.2276 57.1743 -8.18754 27
1859 1 66.4877 54.6132 -6.63636 28
1861 1 63.9003 54.0046 -8.88846 26
1863 2 63.5896 52.4305 -5.9058 26
1865 2 66.3155 55.712 -9.619 25
1867 3 65.1431 52.2429 -5.87368 25
1868 3 65.4154 57.4814 -6.55709 24
1873 3 64.8665 51.9443 -8.88868 25
1874 3 65.6005 57.0943 -9.61578 25
1880 3 65.7119 54.7788 -8.42796 23
1883 1 66.1872 51.3452 -7.3756 27
1884 1 69.0941 57.1059 -8.07573 27
1887 1 71.3846 54.7569 -6.50372 28
1889 1 68.6412 53.9505 -8.79904 26
1891 2 68.2946 52.2986 -5.86648 26
1892 2 66.9527 57.7341 -6.54256 25
1893 2 71.1081 55.6217 -9.47651 26
1895 3 69.8754 52.0448 -5.88617 24
1896 3 70.2539 57.4388 -6.43971 24
1897 3 67.8825 55.7456 -9.49481 23
1899 3 67.682 56.1795 -6.53121 26
1901 3 69.6639 52.0358 -8.87535 26
1902 3 70.4156 57.0181 -9.54942 25
1903 3 67.7502 53.0866 -7.13935 23
1904 3 67.5699 58.2907 -7.86035 23
1908 3 70.4446 54.7914 -8.22634 24
1911 1 71.111 51.875 -7.48575 24
1916 1 71.5332 59.0991 -9.38642 27
1918 2 71.7785 57.7939 -6.39737 26
3483 2 63.9379 50.6628 -2.88598 26
3486 2 68.8713 50.7022 -2.86441 26
3487 3 67.3568 50.7456 -2.93298 24
3593 1 64.2039 56.7899 -5.07147 28
3597 1 63.9003 54.0046 -2.86573 26
3601 2 66.3155 55.712 -3.59627 25
3609 3 64.8665 51.9443 -2.86595 25
3610 3 65.6005 57.0943 -3.59304 25
3613 3 65.707 54.8835 -4.85455 26
3616 3 65.7119 54.7788 -2.40522 23
3621 1 68.9961 56.7722 -4.98178 28
3622 1 65.9771 52.9202 -4.16237 24
3625 1 68.6412 53.9505 -2.77631 26
3629 2 71.1081 55.6217 -3.45378 26
3633 3 67.8825 55.7456 -3.47208 23
3637 3 69.6639 52.0358 -2.85262 26
3638 3 70.4156 57.0181 -3.52669 25
3641 3 70.5579 54.7495 -4.71008 24
3645 3 67.6685 58.3162 -5.26112 25
3646 3 67.8824 53.0709 -4.55451 25
3650 1 70.7968 52.8015 -4.25797 23
3652 1 71.5332 59.0991 -3.36369 27
3592 1 64.2276 57.1743 -2.16481 27
1753 3 72.0974 50.8458 -8.83982 25
3489 3 72.0974 50.8458 -2.8171 25
1924 3 72.4146 58.2076 -7.76422 26
1931 1 45.3012 63.9837 -9.91674 23
1933 2 47.4887 65.7139 -9.93389 27
1937 3 46.2744 62.097 -9.77293 22
1938 3 46.8027 67.1471 -9.90829 28
1949 1 50.1663 64.205 -9.73729 28
1953 2 52.251 65.9672 -9.82611 26
1957 3 49.0233 65.8656 -9.83579 23
1962 3 51.5144 67.381 -9.84543 25
1985 3 53.7896 66.0233 -9.79433 23
1778 1 47.8833 59.2043 -10.1287 26
1806 1 52.8106 59.2744 -10.0867 26
3514 1 47.8833 59.2043 -4.10597 26
3542 1 52.8106 59.2744 -4.06395 26
1758 1 45.4306 59.3939 -6.71096 26
1762 2 45.615 60.6868 -9.87564 24
1769 3 46.0652 59.7 -8.67627 22
1776 1 50.1937 59.7526 -6.45815 30
1782 2 50.3841 61.0001 -9.58058 25
1786 3 48.811 61.0097 -9.71351 23
1788 3 49.029 61.348 -6.66485 25
1795 3 50.9608 60.2301 -8.27909 26
1814 3 53.599 61.0367 -9.69425 22
1816 3 53.8046 61.4041 -6.65979 26
1927 1 45.5054 66.7389 -8.45333 26
1929 1 47.711 64.7687 -6.90401 28
12655 3 70.4716 72.5967 29.7628 24
1935 3 46.3281 62.305 -6.85461 22
1936 3 46.5576 67.4216 -6.84415 23
1942 3 46.8053 64.9642 -8.64632 23
1943 1 47.7138 62.098 -8.33237 27
1944 1 50.1839 66.9477 -8.34692 30
1947 1 52.4973 64.8069 -6.81611 28
1951 2 49.7997 62.8753 -6.65356 26
1952 2 48.0931 67.8018 -6.82088 25
1955 3 51.3212 62.6747 -6.64219 23
1956 3 51.3402 67.7611 -6.86649 23
1959 3 48.8733 66.2991 -6.80472 27
1961 3 51.1345 62.3532 -9.68097 25
1963 3 49.1201 63.4542 -7.95171 25
1968 3 51.5503 65.224 -8.54772 24
1971 1 52.5294 62.016 -8.15352 28
1980 2 52.8992 67.9512 -6.82347 25
1987 3 53.5957 66.4291 -6.8202 26
1991 3 53.8842 63.5114 -7.99829 24
3498 2 45.615 60.6868 -3.85291 24
3504 3 46.2903 60.0193 -5.11497 24
3505 3 46.0652 59.7 -2.65354 22
3518 2 50.3841 61.0001 -3.55785 25
3522 3 48.811 61.0097 -3.69078 23
3530 3 50.9791 59.9984 -4.68563 26
3531 3 50.9608 60.2301 -2.25636 26
3550 3 53.599 61.0367 -3.67152 22
3663 1 45.5054 66.7389 -2.4306 26
3664 1 45.3681 66.9799 -5.22341 24
3667 1 45.3012 63.9837 -3.89401 23
3669 2 47.4887 65.7139 -3.91116 27
3673 3 46.2744 62.097 -3.7502 22
3674 3 46.8027 67.1471 -3.88556 28
3675 3 46.7638 64.9237 -5.14578 23
3678 3 46.8053 64.9642 -2.62359 23
3679 1 47.7138 62.098 -2.30964 27
3680 1 50.1839 66.9478 -2.32419 30
3681 1 50.2048 67.0033 -5.31783 28
3682 1 47.6434 62.0573 -5.2689 28
3685 1 50.1663 64.205 -3.71456 28
3689 2 52.251 65.9672 -3.80338 26
3693 3 49.0233 65.8656 -3.81306 23
3697 3 51.1345 62.3532 -3.65824 25
3698 3 51.5144 67.381 -3.8227 25
3701 3 51.553 65.2073 -5.0608 24
3704 3 51.5503 65.224 -2.52499 24
3706 3 49.0994 63.4334 -5.36741 26
3707 1 52.5294 62.016 -2.13079 28
3710 1 52.5551 62.1992 -5.08222 29
3721 3 53.7896 66.0233 -3.7716 23
3734 3 53.9154 63.5646 -5.42715 24
1990 3 56.313 67.4215 -9.82395 25
1834 1 57.1831 59.1206 -9.71755 28
3570 1 57.1831 59.1206 -3.69483 28
1804 1 54.942 59.7386 -6.64212 28
1810 2 55.1858 60.9712 -9.658 25
1823 3 55.7528 60.1823 -8.39948 24
1832 1 59.5777 59.6744 -6.60331 27
1838 2 59.8673 60.8398 -9.62892 25
1842 3 58.3021 60.9179 -9.67271 22
1844 3 58.5759 61.3778 -6.65987 26
1851 3 60.472 60.0658 -8.36126 23
1870 3 63.0577 60.8756 -9.58029 22
1972 1 54.9638 67.0276 -8.33729 30
1975 1 57.2248 64.7822 -6.79016 29
1977 1 54.9013 64.2553 -9.73399 28
1979 2 54.586 62.9375 -6.70367 25
1981 2 57.0076 65.9769 -9.80089 25
1983 3 56.1017 62.7172 -6.70397 24
1984 3 56.1184 67.8058 -6.83765 23
1989 3 55.8894 62.3759 -9.68945 25
1996 3 56.2992 65.2625 -8.52477 24
1999 1 57.2985 62.0173 -8.21245 28
2000 1 59.722 66.9832 -8.26775 30
2003 1 61.9521 64.7337 -6.72205 27
2005 1 59.604 64.1908 -9.66815 28
2007 2 59.3086 62.9118 -6.63521 25
2008 2 57.6801 67.9402 -6.77291 25
2009 2 61.7505 65.9118 -9.73361 25
2011 3 60.8407 62.7118 -6.62572 24
2012 3 60.8816 67.7506 -6.75601 23
2013 3 58.5516 66.0095 -9.75368 23
2015 3 58.3483 66.4102 -6.76027 26
2017 3 60.5834 62.2614 -9.61662 24
2018 3 61.0804 67.3673 -9.76148 25
2019 3 58.6307 63.5205 -7.92809 24
2024 3 61.0439 65.2039 -8.46151 24
2027 1 61.9925 61.9758 -8.13508 28
2036 2 62.435 67.8878 -6.68237 25
2043 3 63.1048 66.3544 -6.65049 26
3546 2 55.1858 60.9712 -3.63527 25
3558 3 55.7578 60.1795 -4.90267 23
3559 3 55.7528 60.1823 -2.37675 24
3574 2 59.8673 60.8398 -3.60619 25
3578 3 58.3021 60.9179 -3.64998 22
3586 3 60.5172 60.0695 -4.86718 23
3587 3 60.472 60.0658 -2.33853 23
3606 3 63.0577 60.8756 -3.55756 22
3708 1 54.9638 67.0276 -2.31456 30
3709 1 54.9764 67.0497 -5.29784 28
3713 1 54.9013 64.2553 -3.71127 28
3717 2 57.0076 65.9769 -3.77816 25
3725 3 55.8894 62.3759 -3.66673 25
3726 3 56.313 67.4215 -3.80123 25
3729 3 56.3032 65.2593 -5.04282 24
3732 3 56.2992 65.2625 -2.50204 24
3735 1 57.2985 62.0173 -2.18972 28
3736 1 59.722 66.9832 -2.24502 30
3737 1 59.7215 66.9967 -5.23076 28
3738 1 57.2618 62.0024 -5.14905 28
3741 1 59.604 64.1908 -3.64542 28
3745 2 61.7505 65.9118 -3.71088 25
3749 3 58.5516 66.0095 -3.73095 23
3753 3 60.5834 62.2614 -3.59389 24