ITEM: TIMESTEP
500
ITEM: NUMBER OF ATOMS
13888
ITEM: BOX BOUNDS pp pp pp
45.0 100.0
50.0 105.0
-18.06819 30.11365
ITEM: ATOMS id type x y z Coordination
12662 3 70.7632 77.4919 25.597 25
13244 3 45.0607 53.7864 28.6302 25
3 3 49.2711 50.4804 -15.2 25
4 3 49.404 51.1704 -12.4246 21
6 3 52.8935 51.3306 -15.0027 22
7 3 54.009 51.302 -12.2885 23
19 1 45.9438 56.2787 -14.3499 25
20 1 45.4347 56.5847 -17.3229 24
21 1 47.9306 54.6193 -13.0753 28
23 1 45.9496 53.5331 -16.0404 26
24 2 45.202 52.4125 -12.8644 25
25 2 47.7781 55.5524 -16.1318 23
27 3 46.6719 51.878 -12.6376 24
28 3 46.7087 57.184 -12.7883 25
29 3 46.7218 51.4039 -15.475 21
30 3 46.8952 56.8387 -15.981 28
31 3 47.2455 54.6346 -17.3195 26
34 3 47.2561 54.6426 -14.8761 23
35 1 48.1696 51.6607 -14.0111 23
36 1 50.2954 57.2337 -14.3496 27
37 1 50.3808 56.9141 -17.2708 27
38 1 48.1134 51.26 -16.9562 24
39 1 52.6545 54.8461 -12.7146 28
41 1 50.0411 54.1389 -15.2561 24
42 1 47.9252 58.9747 -15.8097 29
43 2 50.0223 52.6677 -12.2108 21
44 2 48.206 57.6788 -12.7471 24
45 2 52.3941 55.7923 -15.8059 25
47 3 51.5573 52.6397 -12.4328 21
48 3 51.4463 57.6612 -12.7518 23
49 3 49.2773 55.8336 -15.8622 23
51 3 49.0594 56.2006 -12.8441 27
53 3 51.2302 50.2354 -16.6953 21
54 3 51.6857 57.1804 -15.6642 28
55 3 49.3781 53.3388 -13.5198 21
56 3 48.7377 58.3417 -14.0487 24
57 3 51.7111 55.1899 -17.1143 27
60 3 51.8562 54.7262 -14.6339 24
61 3 48.8347 58.243 -17.4703 25
62 3 49.5375 52.9979 -16.7806 26
63 1 52.4445 52.9105 -14.1445 27
66 1 52.554 51.7004 -16.9684 27
70 1 52.6988 59.1549 -15.715 27
72 2 52.9916 57.9351 -12.664 25
77 3 53.9393 55.9094 -15.6911 23
79 3 53.7162 56.415 -12.7843 28
83 3 54.1493 53.6007 -13.4485 23
84 3 53.5905 58.6019 -13.9344 24
89 3 53.6443 58.3686 -17.3336 26
90 3 53.9136 53.3342 -16.8901 24
1756 1 45.4347 56.5847 -11.3002 24
1767 3 47.2455 54.6346 -11.2967 26
1773 1 50.3808 56.9141 -11.248 27
1774 1 48.1134 51.26 -10.9335 24
1793 3 51.7111 55.1899 -11.0915 27
1797 3 48.8347 58.243 -11.4475 25
1798 3 49.5375 52.9979 -10.7579 26
1802 1 52.554 51.7004 -10.9457 27
1825 3 53.6443 58.3686 -11.3109 26
1826 3 53.9136 53.3342 -10.8674 24
5 2 54.2127 50.4673 -14.9733 27
8 2 59.2745 50.4086 -14.9006 26
9 3 57.8267 50.8646 -14.8825 24
10 3 58.3127 50.9294 -11.9673 24
12 3 62.723 50.972 -14.8821 25
64 1 55.0371 57.3642 -14.3437 28
65 1 55.0916 56.8945 -17.2183 27
67 1 57.2778 54.6916 -12.7557 26
69 1 54.7978 54.1438 -15.3243 26
71 2 54.6302 52.8028 -12.1682 26
73 2 57.1224 55.6042 -15.799 25
75 3 56.152 52.5211 -12.196 21
76 3 56.1883 57.6621 -12.6996 23
81 3 55.365 51.532 -15.2297 24
82 3 56.4593 57.0264 -15.5958 26
85 3 56.3558 55.1011 -17.1164 25
88 3 56.6166 54.4965 -14.6649 24
91 1 56.8894 52.4096 -14.086 23
92 1 59.7355 57.0911 -14.2622 26
93 1 59.7743 56.7539 -17.1701 27
94 1 56.9615 51.5493 -16.5755 28
95 1 61.9953 54.7681 -12.6945 28
97 1 59.4164 53.8644 -15.0522 26
98 1 57.5368 59.1044 -15.6765 28
99 2 58.9946 52.4081 -11.9595 26
100 2 57.737 57.8291 -12.6401 24
101 2 61.7755 55.5278 -15.7076 25
103 3 60.5384 51.9798 -11.958 26
104 3 60.9241 57.4961 -12.6513 24
105 3 58.6707 55.704 -15.6745 22
107 3 58.3942 56.2659 -12.7583 26
109 3 60.2339 51.6423 -14.9247 26
110 3 61.1162 56.9703 -15.6314 26
111 3 58.6331 53.2448 -13.2378 22
112 3 58.3918 58.4788 -13.898 24
113 3 61.1154 54.8683 -17.0113 26
116 3 61.2123 54.5696 -14.4895 25
117 3 58.3987 58.2681 -17.3137 25
118 3 58.4806 53.0349 -16.634 26
119 1 61.6937 52.0889 -13.6029 24
122 1 61.6988 51.8805 -16.3529 26
126 1 62.257 59.0776 -15.5848 29
128 2 62.4542 57.8061 -12.5759 25
135 3 63.178 56.2526 -12.5089 26
140 3 63.1206 58.3267 -13.8846 24
145 3 63.0943 58.3889 -17.2987 24
1801 1 55.0916 56.8945 -11.1956 27
1821 3 56.3558 55.1011 -11.0936 25
1829 1 59.7743 56.7539 -11.1474 27
1830 1 56.9615 51.5493 -10.5527 28
1849 3 61.1154 54.8683 -10.9886 26
1853 3 58.3987 58.2681 -11.291 25
1854 3 58.4806 53.0349 -10.6113 26
1858 1 61.6988 51.8805 -10.3302 26
1881 3 63.0943 58.3889 -11.276 24
11 2 64.2028 50.7721 -14.9269 25
13 3 63.0619 51.0392 -11.9567 21
14 2 68.9052 50.7011 -15.1065 24
15 3 67.4157 50.9735 -15.1258 25
16 3 68.0164 51.0328 -12.2185 21
120 1 64.5341 56.9166 -14.0134 28
121 1 64.4124 56.9342 -16.9408 28
123 1 66.7397 54.7079 -12.3722 28
125 1 64.1957 53.9745 -14.9072 26
127 2 63.8403 52.4497 -11.8797 26
129 2 66.5134 55.6241 -15.3977 26
131 3 65.3813 52.0365 -11.8899 24
132 3 65.6571 57.536 -12.4257 24
133 3 63.3321 55.6969 -15.5225 22
137 3 65.0786 52.0531 -14.829 27
138 3 65.837 57.0238 -15.5691 24
139 3 63.2925 53.2701 -13.1112 26
141 3 65.9589 54.6067 -16.5496 25
144 3 65.7897 54.9756 -14.0772 26
146 3 63.3139 53.0743 -16.5633 24
147 1 66.5848 51.7852 -13.4997 27
148 1 69.2859 56.8441 -13.7714 29
149 1 69.1659 56.9711 -16.7135 28
150 1 66.4258 52.5535 -16.2284 24
151 1 71.5338 54.6454 -12.181 28
153 1 69.0556 53.9635 -14.9873 26
154 1 66.9961 59.0754 -15.4112 28
155 2 68.7065 52.5097 -12.0539 26
156 2 67.1938 57.798 -12.3729 25
157 2 71.2947 55.6301 -15.1836 26
159 3 70.25 52.2278 -12.0081 25
160 3 70.4189 57.5095 -12.2124 24
161 3 68.0672 55.6869 -15.2748 24
163 3 67.8871 56.2311 -12.2035 25
165 3 69.7982 51.9709 -14.895 25
166 3 70.592 57.0166 -15.3506 25
167 3 67.9826 53.2877 -13.2462 24
168 3 67.8326 58.2124 -13.7379 25
169 3 70.7407 54.6044 -16.3284 25
172 3 70.5501 54.9696 -13.875 24
173 3 67.887 58.441 -17.1492 24
174 3 68.2186 53.1201 -16.7315 24
175 1 71.3827 51.7525 -13.5359 26
178 1 71.2039 52.5172 -16.2488 24
180 1 71.7542 59.0641 -15.2076 27
182 2 71.9572 57.7714 -12.1907 25
1857 1 64.4124 56.9342 -10.9181 28
1877 3 65.9589 54.6067 -10.5269 25
1882 3 63.3139 53.0743 -10.5406 24
1885 1 69.1659 56.9711 -10.6908 28
1886 1 66.4258 52.5535 -10.2057 24
1905 3 70.7407 54.6044 -10.3056 25
1909 3 67.887 58.441 -11.1265 24
1910 3 68.2186 53.1201 -10.7087 24
1914 1 71.2039 52.5172 -10.2261 24
22 1 45.5074 59.0893 -12.8985 25
26 2 45.7458 60.5066 -15.9339 21
32 3 46.3118 59.8146 -17.2407 21
33 3 46.309 59.661 -14.6883 22
40 1 50.3304 59.6652 -12.8551 30
46 2 50.5085 60.7727 -15.9026 26
50 3 48.9324 60.79 -15.9166 22
52 3 49.108 61.1928 -12.8917 26
58 3 51.1986 60.011 -17.1496 24
59 3 51.0917 59.9451 -14.6506 24
78 3 53.7869 60.8888 -15.8613 22
80 3 54.0213 61.3091 -12.8511 25
191 1 45.5992 66.4614 -14.4065 26
192 1 45.4788 66.6015 -17.4566 25
193 1 47.9592 64.5914 -13.0089 27
195 1 45.6147 63.8326 -16.0127 26
196 2 45.1861 63.3749 -12.8975 23
197 2 47.6567 65.6291 -16.0452 25
199 3 46.5709 62.6254 -12.9261 24
200 3 46.7371 67.3313 -12.9368 24
201 3 46.4152 61.9458 -15.886 22
202 3 46.8986 66.9971 -15.9672 28
203 3 46.9518 64.8251 -17.2847 23
206 3 47.0404 64.7562 -14.8034 25
207 1 47.8248 61.9345 -14.429 27
208 1 50.3286 66.8861 -14.5915 29
209 1 50.3467 66.8787 -17.5642 29
210 1 47.7788 61.8542 -17.4343 27
211 1 52.6318 64.7275 -13.0644 27
213 1 50.2913 64.0372 -15.9346 28
215 2 49.9461 62.6879 -12.8769 25
216 2 48.2506 67.702 -13.0133 25
217 2 52.3917 65.8237 -16.0814 25
219 3 51.4639 62.4464 -12.8926 23
220 3 51.4812 67.6736 -13.0819 23
221 3 49.195 65.7722 -16.051 22
223 3 49.0374 66.1968 -13.039 26
225 3 51.2634 62.164 -15.8817 24
226 3 51.6761 67.2541 -16.0785 25
227 3 49.3076 63.3014 -14.171 25
229 3 51.7075 65.0783 -17.3455 25
232 3 51.7169 65.0692 -14.8089 25
234 3 49.2724 63.2682 -17.6073 26
235 1 52.7063 61.98 -14.4289 28
238 1 52.673 61.9101 -17.3599 28
244 2 53.0329 67.8764 -13.0482 25
249 3 53.9393 65.9098 -16.0303 22
251 3 53.7371 66.3501 -13.0348 26
255 3 54.0447 63.4609 -14.1001 24
262 3 54.0622 63.3802 -17.5318 25
1768 3 46.3118 59.8146 -11.2179 21
1794 3 51.1986 60.011 -11.1269 24
1928 1 45.4788 66.6015 -11.4338 25
1931 1 45.6147 63.8326 -9.98998 26
1933 2 47.6567 65.6291 -10.0225 25
1937 3 46.4152 61.9458 -9.86324 22
1938 3 46.8986 66.9971 -9.94448 28
1939 3 46.9518 64.8251 -11.262 23
1945 1 50.3467 66.8787 -11.5414 29
1946 1 47.7788 61.8542 -11.4116 27
1949 1 50.2913 64.0372 -9.91185 28
1953 2 52.3917 65.8237 -10.0587 25
1957 3 49.195 65.7722 -10.0283 22
1962 3 51.6761 67.2541 -10.0557 25
1965 3 51.7075 65.0783 -11.3228 25
1970 3 49.2724 63.2682 -11.5846 26
1974 1 52.673 61.9101 -11.3372 28
1985 3 53.9393 65.9098 -10.0075 22
1998 3 54.0622 63.3802 -11.5091 25
68 1 55.1976 59.753 -12.8318 28
74 2 55.3579 60.8109 -15.858 26
86 3 56.058 60.1021 -17.1273 24
87 3 55.9532 59.9364 -14.6421 24
96 1 59.8981 59.7056 -12.7135 29
102 2 60.1298 60.8035 -15.716 25
106 3 58.5631 60.8706 -15.751 22
108 3 58.7652 61.303 -12.7743 26
114 3 60.7783 60.0719 -16.9998 23
115 3 60.7459 59.9623 -14.4841 23
134 3 63.3193 60.8427 -15.5763 22
236 1 55.0939 66.9552 -14.5577 28
237 1 55.0944 66.9667 -17.5303 28
239 1 57.3804 64.7268 -13.0009 28
241 1 55.0302 64.1318 -15.8712 27
243 2 54.7397 62.849 -12.8205 25
245 2 57.1545 65.874 -16.0209 25
247 3 56.2702 62.6171 -12.8446 24
248 3 56.2551 67.7206 -13.042 23
253 3 56.0622 62.2261 -15.7899 26
254 3 56.454 67.3142 -16.0412 25
257 3 56.4674 65.1344 -17.2799 24
260 3 56.4643 65.1439 -14.7421 25
263 1 57.4943 62.016 -14.3571 28
264 1 59.8689 66.9352 -14.4427 29
265 1 59.86 66.9607 -17.4185 28
266 1 57.4334 61.9207 -17.2961 28
267 1 62.1397 64.7084 -12.8711 28
269 1 59.7974 64.1308 -15.7653 27
271 2 59.5078 62.8422 -12.7114 25
272 2 57.8106 67.8815 -12.9662 25
273 2 61.9266 65.8575 -15.8907 25
275 3 61.0368 62.604 -12.7101 24
276 3 61.0254 67.7012 -12.9191 23
277 3 58.7049 65.9251 -15.9409 22
279 3 58.4966 66.3538 -12.9378 26
281 3 60.8356 62.217 -15.6653 26
282 3 61.2321 67.3022 -15.9284 25
283 3 58.8354 63.4762 -13.9938 24
285 3 61.2414 65.116 -17.1462 24
288 3 61.2296 65.1433 -14.61 25
290 3 58.8364 63.3652 -17.4176 25
291 1 62.2533 61.9861 -14.2064 28
294 1 62.1916 61.8833 -17.1595 28
300 2 62.576 67.8594 -12.8187 25
307 3 63.2648 66.334 -12.7695 26
1822 3 56.058 60.1021 -11.1046 24
1850 3 60.7783 60.0719 -10.9771 23
1973 1 55.0944 66.9667 -11.5076 28
1990 3 56.454 67.3142 -10.0185 25
1993 3 56.4674 65.1344 -11.2572 24
2001 1 59.86 66.9607 -11.3958 28
2002 1 57.4334 61.9207 -11.2734 28
2021 3 61.2414 65.116 -11.1235 24
2026 3 58.8364 63.3652 -11.3948 25
2030 1 62.1916 61.8833 -11.1368 28
124 1 64.6444 59.6624 -12.4853 28
130 2 64.881 60.7831 -15.4928 25
136 3 63.531 61.2725 -12.6217 27
142 3 65.5441 60.0561 -16.7776 23
143 3 65.4964 59.9441 -14.2612 22
152 1 69.416 59.6596 -12.2075 28
158 2 69.6463 60.763 -15.2228 25
162 3 68.0875 60.8176 -15.333 22
164 3 68.3023 61.2618 -12.3962 27
170 3 70.329 60.0524 -16.513 23
171 3 70.2448 59.9003 -14.0015 23
292 1 64.6441 66.9107 -14.2605 29
293 1 64.6217 66.9417 -17.2352 28
295 1 66.899 64.6975 -12.6657 28
297 1 64.5612 64.1053 -15.5843 27
299 2 64.2685 62.8107 -12.535 25
301 2 66.7006 65.8275 -15.685 25
303 3 65.8012 62.5866 -12.5069 24
304 3 65.797 67.6716 -12.7185 23
305 3 63.4772 65.9065 -15.7838 23
309 3 65.5969 62.195 -15.4437 25
310 3 66.0094 67.2745 -15.7495 25
311 3 63.5983 63.4577 -13.8133 24
313 3 66.0214 65.0732 -16.9324 24
316 3 65.9939 65.131 -14.4011 25
318 3 63.6036 63.323 -17.2334 25
319 1 67.0243 61.9801 -13.9898 27
320 1 69.4391 66.8986 -13.9763 29
321 1 69.385 66.9359 -16.954 28
322 1 66.941 61.8679 -16.9456 27
323 1 71.6766 64.7024 -12.3629 29
325 1 69.3337 64.0889 -15.3232 27
327 2 69.0373 62.7961 -12.2843 25
328 2 67.3441 67.8365 -12.6025 25
329 2 71.4831 65.7993 -15.3817 25
331 3 70.5733 62.5699 -12.2392 23
332 3 70.5857 67.654 -12.4027 23
333 3 68.251 65.8839 -15.5466 23
335 3 68.0392 66.3155 -12.5116 26
337 3 70.3696 62.1723 -15.1555 26
338 3 70.795 67.2459 -15.4745 24
339 3 68.3685 63.4539 -13.5588 23
341 3 70.813 65.0194 -16.6165 24
344 3 70.7635 65.1266 -14.0911 25
346 3 68.3796 63.2884 -16.9714 26
347 1 71.808 61.9878 -13.7181 27
350 1 71.7063 61.8737 -16.6727 27
354 2 72.1327 67.8335 -12.2777 25
1878 3 65.5441 60.0561 -10.7549 23
1906 3 70.329 60.0524 -10.4902 23
2029 1 64.6217 66.9417 -11.2125 28
2049 3 66.0214 65.0732 -10.9096 24
2054 3 63.6036 63.323 -11.2107 25
2057 1 69.385 66.9359 -10.9313 28
2058 1 66.941 61.8679 -10.9228 27
2077 3 70.813 65.0194 -10.5938 24
2082 3 68.3796 63.2884 -10.9487 26
2086 1 71.7063 61.8737 -10.65 27
194 1 45.4721 69.1179 -12.9604 26
198 2 45.8124 70.6536 -15.9266 22
204 3 46.3758 69.9555 -17.2179 21
205 3 46.5399 70.0127 -14.6461 22
212 1 50.3486 69.6389 -13.1724 27
214 1 47.9422 68.9749 -16.0323 27
218 2 50.5661 70.862 -16.1933 25
222 3 48.999 70.8882 -16.1247 22
224 3 49.1845 71.3095 -13.0809 25
228 3 48.8967 68.3362 -14.304 23
230 3 51.2519 70.1609 -17.4597 24
231 3 51.2581 70.1756 -14.9086 24
233 3 48.8844 68.3158 -17.7372 23
242 1 52.7595 69.1438 -16.0811 27
250 3 53.8355 70.983 -16.2064 22
252 3 54.0446 71.3944 -13.2198 25
256 3 53.704 68.4855 -14.3414 24
261 3 53.6869 68.4627 -17.7701 24
363 1 45.5107 76.4803 -14.4408 23
364 1 45.4988 77.0012 -17.7516 25
365 1 47.9661 74.6708 -13.2149 25
367 1 45.5256 73.9531 -15.9218 26
368 2 45.1591 73.5835 -12.8237 23
369 2 47.6006 75.8368 -16.2683 25
371 3 46.559 72.8709 -12.9954 24
373 3 46.4444 72.1572 -15.9895 22
375 3 46.9182 75.113 -17.4976 24
378 3 46.9965 75.0858 -14.9768 22
379 1 47.7994 71.8041 -14.5015 26
380 1 50.3626 76.8916 -14.9184 29
381 1 50.3705 76.9454 -17.9267 30
382 1 47.7793 71.8827 -17.5808 27
383 1 52.6355 74.7368 -13.4482 27
385 1 50.2033 74.096 -16.1659 27
387 2 49.9433 72.782 -13.1281 25
389 2 52.393 75.9494 -16.4814 25
391 3 51.4873 72.6896 -13.2104 22
393 3 49.1587 75.9911 -16.3299 22
395 3 49.0356 76.4045 -13.3776 26
397 3 51.2672 72.3226 -16.2223 25
399 3 49.2541 73.4204 -14.4188 24
401 3 51.702 75.3418 -17.7798 24
404 3 51.6964 75.2534 -15.2069 23
406 3 49.2599 73.4607 -11.8642 23
407 1 52.6764 71.9198 -14.7292 29
410 1 52.6844 71.9211 -17.7116 28
421 3 53.9405 76.0711 -16.4544 24
423 3 53.7328 76.4994 -13.5003 25
427 3 54.0407 73.5485 -14.5107 24
434 3 54.0491 73.5238 -11.9375 24
1934 2 45.8124 70.6536 -9.90386 22
1940 3 46.3758 69.9555 -11.1952 21
1950 1 47.9422 68.9749 -10.0095 27
1954 2 50.5661 70.862 -10.1705 25
1958 3 48.999 70.8882 -10.102 22
1966 3 51.2519 70.1609 -11.437 24
1969 3 48.8844 68.3158 -11.7145 23
1978 1 52.7595 69.1438 -10.0584 27
1986 3 53.8355 70.983 -10.1837 22
1997 3 53.6869 68.4627 -11.7474 24
2100 1 45.4988 77.0012 -11.7289 25
2103 1 45.5256 73.9531 -9.89904 26
2105 2 47.6006 75.8368 -10.2455 25
2109 3 46.4444 72.1572 -9.96675 22
2111 3 46.9182 75.113 -11.4749 24
2117 1 50.3705 76.9454 -11.9039 30
2118 1 47.7793 71.8827 -11.558 27
2121 1 50.2033 74.096 -10.1432 27
2125 2 52.393 75.9494 -10.4587 25
2129 3 49.1587 75.9911 -10.3071 22
2133 3 51.2672 72.3226 -10.1996 25
2137 3 51.702 75.3418 -11.757 24
2146 1 52.6844 71.9211 -11.6888 28
2157 3 53.9405 76.0711 -10.4316 24
240 1 55.1939 69.7232 -13.2265 26
246 2 55.4064 70.9328 -16.2446 25
258 3 56.082 70.2601 -17.5241 24
259 3 56.0842 70.2301 -14.9674 24
268 1 59.9534 69.7366 -13.1517 26
270 1 57.5777 69.1673 -16.0036 26
274 2 60.1909 70.942 -16.1737 25
278 3 58.6242 71.0087 -16.1711 22
280 3 58.8227 71.4274 -13.2059 25
284 3 58.4916 68.4865 -14.2597 24
286 3 60.8618 70.2828 -17.4631 24
287 3 60.8478 70.2169 -14.8984 25
289 3 58.4718 68.4745 -17.6936 24
298 1 62.3511 69.1413 -15.855 27
306 3 63.3934 70.9779 -16.0094 23
312 3 63.2601 68.4554 -14.1148 24
317 3 63.2452 68.4704 -17.5557 25
408 1 55.1231 76.9853 -15.0024 29
409 1 55.1212 77.0119 -18.0229 28
411 1 57.3981 74.7932 -13.4991 26
413 1 55.012 74.1839 -16.2677 26
415 2 54.7389 72.8997 -13.224 25
417 2 57.1652 76.0234 -16.535 25
419 3 56.2882 72.8023 -13.2672 23
425 3 56.0827 72.4021 -16.2471 25
429 3 56.4725 75.3946 -17.8247 25
432 3 56.4716 75.3321 -15.2548 25
435 1 57.4821 71.9924 -14.742 29
436 1 59.9005 77.0157 -15.0274 29
437 1 59.9042 77.046 -18.0442 28
438 1 57.4695 71.9585 -17.7327 29
439 1 62.1547 74.8274 -13.5174 26
441 1 59.7836 74.2023 -16.2265 26
443 2 59.5253 72.9327 -13.1773 25
445 2 61.9487 76.04 -16.5529 25
447 3 61.0739 72.8157 -13.1944 24
449 3 58.716 76.1154 -16.4833 23
451 3 58.5193 76.5325 -13.5218 25
453 3 60.8731 72.4074 -16.15 25
455 3 58.8443 73.6012 -14.4631 25
457 3 61.2637 75.4204 -17.8463 25
460 3 61.2579 75.3447 -15.2728 25
462 3 58.8427 73.5313 -17.9028 25
463 1 62.2612 71.9852 -14.6257 28
466 1 62.235 71.9462 -17.626 29
479 3 63.3076 76.551 -13.5338 26
1982 2 55.4064 70.9328 -10.2218 25
1994 3 56.082 70.2601 -11.5014 24
2006 1 57.5777 69.1673 -9.98089 26
2010 2 60.1909 70.942 -10.151 25
2014 3 58.6242 71.0087 -10.1484 22
2022 3 60.8618 70.2828 -11.4404 24
2025 3 58.4718 68.4745 -11.6708 24
2042 3 63.3934 70.9779 -9.98668 23
2053 3 63.2452 68.4704 -11.5329 25
2145 1 55.1212 77.0119 -12.0002 28
2149 1 55.012 74.1839 -10.245 26
2153 2 57.1652 76.0234 -10.5123 25
2161 3 56.0827 72.4021 -10.2244 25
2165 3 56.4725 75.3946 -11.8019 25
2173 1 59.9042 77.046 -12.0215 28
2174 1 57.4695 71.9585 -11.71 29
2177 1 59.7836 74.2023 -10.2038 26
2181 2 61.9487 76.04 -10.5302 25
2185 3 58.716 76.1154 -10.4605 23
2189 3 60.8731 72.4074 -10.1273 25
2193 3 61.2637 75.4204 -11.8236 25
2198 3 58.8427 73.5313 -11.8801 25
2202 1 62.235 71.9462 -11.6033 29
296 1 64.7012 69.7115 -12.9387 28
302 2 64.9547 70.9022 -15.9606 25
308 3 63.5905 71.413 -13.0708 25
314 3 65.6343 70.2587 -17.2569 24
315 3 65.6039 70.1616 -14.692 24
324 1 69.4635 69.6903 -12.5222 26
326 1 67.1144 69.0996 -15.6339 27
330 2 69.728 70.8373 -15.5434 25
334 3 68.1765 70.9134 -15.6879 23
336 3 68.3356 71.3713 -12.7863 25
340 3 68.0274 68.4024 -13.908 24
342 3 70.4351 70.2018 -16.8351 24
343 3 70.3818 70.0886 -14.2817 22
345 3 68.025 68.4787 -17.3535 25
352 1 71.8826 69.0709 -15.3066 26
464 1 64.6791 77.0202 -15.0361 29
465 1 64.6853 77.0546 -18.0545 28
467 1 66.9166 74.8554 -13.5219 26
469 1 64.5375 74.1659 -16.0581 26
471 2 64.2953 72.9189 -13.0038 25
473 2 66.7258 76.0274 -16.5641 25
475 3 65.8428 72.7787 -12.9935 23
477 3 63.5014 76.1191 -16.4755 23
481 3 65.6446 72.3634 -15.9107 25
483 3 63.6371 73.6124 -14.2884 26
485 3 66.058 75.4371 -17.8712 25
488 3 66.0518 75.3193 -15.2817 25
490 3 63.6281 73.4817 -17.7112 25
491 1 67.0282 71.9139 -14.3583 28
492 1 69.4501 77.0172 -15.0573 30
493 1 69.4502 77.0321 30.091 29
494 1 66.9726 71.9129 -17.3851 28
495 1 71.7352 74.913 -13.5373 25
497 1 69.2928 74.0803 -15.7271 25
499 2 69.0556 72.8793 -12.6563 26
501 2 71.4745 75.9822 -16.6032 24
503 3 70.5881 72.6445 -12.5563 25
505 3 68.2759 76.1232 -16.473 24
507 3 68.0893 76.5696 -13.5734 25
509 3 70.4162 72.2972 -15.4577 22
511 3 68.4486 73.6093 -13.9428 24
513 3 70.8245 75.4211 -17.924 25
516 3 70.8538 75.2775 -15.3003 26
518 3 68.3902 73.3955 -17.3453 25
519 1 71.7972 71.782 -13.8504 28
522 1 71.711 71.92 -16.9462 27
2050 3 65.6343 70.2587 -11.2342 24
2078 3 70.4351 70.2018 -10.8124 24
2081 3 68.025 68.4787 -11.3308 25
2201 1 64.6853 77.0546 -12.0318 28
2205 1 64.5375 74.1659 -10.0353 26
2209 2 66.7258 76.0274 -10.5414 25
2213 3 63.5014 76.1191 -10.4527 23
2217 3 65.6446 72.3634 -9.88798 25
2221 3 66.058 75.4371 -11.8484 25
2226 3 63.6281 73.4817 -11.6885 25
2229 1 69.4502 77.0321 -12.0681 29
2230 1 66.9726 71.9129 -11.3623 28
2237 2 71.4745 75.9822 -10.5804 24
2241 3 68.2759 76.1232 -10.4503 24
2249 3 70.8245 75.4211 -11.9012 25
2254 3 68.3902 73.3955 -11.3226 25
2258 1 71.711 71.92 -10.9235 27
12526 3 46.8987 77.2865 25.91 26
11508 3 45.0607 53.7864 22.6075 25
1739 3 49.2711 50.4804 -9.17725 25
1740 3 49.404 51.1704 -6.40186 21
1742 3 52.8935 51.3306 -8.97995 22
1743 3 54.009 51.3021 -6.26575 23
1755 1 45.9438 56.2787 -8.32716 25
1757 1 47.9306 54.6193 -7.05258 28
1759 1 45.9496 53.5331 -10.0177 26
1760 2 45.202 52.4125 -6.8417 25
1761 2 47.7781 55.5524 -10.1091 23
1763 3 46.6719 51.878 -6.61491 24
1764 3 46.7087 57.184 -6.76557 25
1765 3 46.7218 51.4039 -9.45224 21
1766 3 46.8952 56.8387 -9.95825 28
1770 3 47.2561 54.6426 -8.85332 23
1771 1 48.1696 51.6607 -7.98833 23
1772 1 50.2954 57.2337 -8.32692 27
1775 1 52.6545 54.8461 -6.69186 28
1777 1 50.0411 54.1389 -9.23341 24
1778 1 47.9252 58.9747 -9.78695 29
1779 2 50.0223 52.6677 -6.18808 21
1780 2 48.206 57.6788 -6.72439 24
1781 2 52.3941 55.7923 -9.78321 25
1783 3 51.5573 52.6397 -6.41009 21
1784 3 51.4463 57.6612 -6.72905 23
1785 3 49.2773 55.8336 -9.83947 23
1787 3 49.0594 56.2006 -6.82136 27
1789 3 51.2302 50.2354 -10.6726 21
1790 3 51.6857 57.1804 -9.64143 28
1791 3 49.3781 53.3388 -7.49707 21
1792 3 48.7377 58.3417 -8.02601 24
1796 3 51.8562 54.7262 -8.61119 24
1799 1 52.4445 52.9105 -8.12176 27
1806 1 52.6988 59.1549 -9.6923 27
1808 2 52.9916 57.9351 -6.64125 25
1813 3 53.9393 55.9094 -9.66837 23
1815 3 53.7162 56.415 -6.76159 28
1819 3 54.1493 53.6007 -7.42574 23
1820 3 53.5905 58.6019 -7.91164 24
10926 3 70.7632 77.4919 19.5742 25
12169 3 72.1953 50.9868 26.9981 24
3475 3 49.2711 50.4804 -3.15452 25
3478 3 52.8935 51.3306 -2.95722 22
3491 1 45.9438 56.2787 -2.30443 25
3492 1 45.4347 56.5847 -5.27748 24
3495 1 45.9496 53.5331 -3.99499 26
3497 2 47.7781 55.5524 -4.08637 23
3501 3 46.7218 51.4039 -3.42951 21
3502 3 46.8952 56.8387 -3.93552 28
3503 3 47.2455 54.6346 -5.274 26
3506 3 47.2561 54.6426 -2.83059 23
3507 1 48.1696 51.6607 -1.9656 23
3508 1 50.2954 57.2337 -2.30419 27
3509 1 50.3808 56.9141 -5.22532 27
3510 1 48.1134 51.26 -4.91076 24
3513 1 50.0411 54.1389 -3.21068 24
3514 1 47.9252 58.9747 -3.76422 29
3517 2 52.3941 55.7923 -3.76048 25
3521 3 49.2773 55.8336 -3.81674 23
3525 3 51.2302 50.2354 -4.64985 21
3526 3 51.6857 57.1804 -3.6187 28
3527 3 49.3781 53.3388 -1.47434 21
3528 3 48.7377 58.3417 -2.00328 24
3529 3 51.7111 55.1899 -5.06881 27
3532 3 51.8562 54.7262 -2.58846 24
3533 3 48.8347 58.243 -5.42481 25
3534 3 49.5375 52.9979 -4.73517 26
3535 1 52.4445 52.9105 -2.09903 27
3538 1 52.554 51.7004 -4.92298 27
3542 1 52.6988 59.1549 -3.66957 27
3549 3 53.9393 55.9094 -3.64564 23
3556 3 53.5905 58.6019 -1.88891 24
3561 3 53.6443 58.3686 -5.28819 26
3562 3 53.9136 53.3342 -4.84464 24
1741 2 54.2127 50.4673 -8.95061 27
1744 2 59.2745 50.4086 -8.87789 26
1745 3 57.8267 50.8646 -8.85975 24
1746 3 58.3127 50.9294 -5.94455 24
1748 3 62.723 50.972 -8.85932 25
1800 1 55.0371 57.3642 -8.32099 28
1803 1 57.2778 54.6916 -6.73301 26
1805 1 54.7978 54.1438 -9.30157 26
1807 2 54.6302 52.8028 -6.14546 26
1809 2 57.1224 55.6042 -9.77632 25
1811 3 56.152 52.5211 -6.17326 21
1812 3 56.1883 57.6621 -6.67686 23
1817 3 55.365 51.532 -9.20696 24
1818 3 56.4593 57.0264 -9.57305 26
1824 3 56.6166 54.4965 -8.64215 24
1827 1 56.8894 52.4096 -8.06327 23
1828 1 59.7355 57.0911 -8.23945 26
1831 1 61.9953 54.7681 -6.67177 28
1833 1 59.4164 53.8644 -9.02942 26
1834 1 57.5368 59.1044 -9.65374 28
1835 2 58.9946 52.4081 -5.93676 26
1836 2 57.737 57.8291 -6.61733 24
1837 2 61.7755 55.5278 -9.68485 25
1839 3 60.5384 51.9798 -5.93526 26
1840 3 60.9241 57.4961 -6.62857 24
1841 3 58.6707 55.704 -9.65172 22
1843 3 58.3942 56.2659 -6.73561 26
1845 3 60.2339 51.6423 -8.90197 26
1846 3 61.1162 56.9703 -9.60866 26
1847 3 58.6331 53.2448 -7.2151 22
1848 3 58.3918 58.4788 -7.87526 24
1852 3 61.2123 54.5696 -8.46682 25
1855 1 61.6937 52.0889 -7.58013 24
1862 1 62.257 59.0776 -9.56203 29
1864 2 62.4542 57.8061 -6.55319 25
1871 3 63.178 56.2526 -6.48622 26
1876 3 63.1206 58.3267 -7.86184 24
3477 2 54.2127 50.4673 -2.92788 27
3480 2 59.2745 50.4086 -2.85516 26
3481 3 57.8267 50.8646 -2.83702 24
3484 3 62.723 50.972 -2.83659 25
3536 1 55.0371 57.3642 -2.29826 28
3537 1 55.0916 56.8945 -5.17285 27
3541 1 54.7978 54.1438 -3.27884 26
3545 2 57.1224 55.6042 -3.75359 25
3553 3 55.365 51.532 -3.18423 24
3554 3 56.4593 57.0264 -3.55032 26
3557 3 56.3558 55.1011 -5.07091 25
3560 3 56.6166 54.4965 -2.61942 24
3563 1 56.8894 52.4096 -2.04054 23
3564 1 59.7355 57.0911 -2.21672 26
3565 1 59.7743 56.7539 -5.12466 27
3566 1 56.9615 51.5493 -4.53 28
3569 1 59.4164 53.8644 -3.00669 26
3570 1 57.5368 59.1044 -3.63101 28
3573 2 61.7755 55.5278 -3.66212 25
3577 3 58.6707 55.704 -3.62899 22
3581 3 60.2339 51.6423 -2.87924 26
3582 3 61.1162 56.9703 -3.58594 26
3585 3 61.1154 54.8683 -4.96582 26
3588 3 61.2123 54.5696 -2.44408 25
3589 3 58.3987 58.2681 -5.26825 25
3590 3 58.4806 53.0349 -4.58859 26
3594 1 61.6988 51.8805 -4.30747 26
3598 1 62.257 59.0776 -3.5393 29
3617 3 63.0943 58.3889 -5.25329 24
1747 2 64.2028 50.7721 -8.90414 25
1749 3 63.0619 51.0392 -5.93395 21
1750 2 68.9052 50.7011 -9.08372 24
1751 3 67.4157 50.9735 -9.10309 25
1752 3 68.0164 51.0328 -6.19574 21
1856 1 64.5341 56.9166 -7.99072 28
1859 1 66.7397 54.7079 -6.34945 28
1861 1 64.1957 53.9745 -8.88448 26
1863 2 63.8403 52.4497 -5.85701 26
1865 2 66.5134 55.6241 -9.37495 26
1867 3 65.3813 52.0365 -5.86719 24
1868 3 65.6571 57.536 -6.40296 24
1869 3 63.3321 55.6969 -9.49978 22
1873 3 65.0786 52.0531 -8.8063 27
1874 3 65.837 57.0238 -9.5464 24
1875 3 63.2925 53.2701 -7.08847 26
1880 3 65.7897 54.9756 -8.05442 26
1883 1 66.5848 51.7852 -7.47698 27
1884 1 69.2859 56.8441 -7.74872 29
1887 1 71.5338 54.6454 -6.15831 28
1889 1 69.0556 53.9635 -8.96458 26
1890 1 66.9961 59.0754 -9.38844 28
1891 2 68.7065 52.5097 -6.03119 26
1892 2 67.1938 57.798 -6.35021 25
1893 2 71.2947 55.6301 -9.1609 26
1895 3 70.25 52.2278 -5.98534 25
1896 3 70.4189 57.5095 -6.18965 24
1897 3 68.0672 55.6869 -9.25207 24
1899 3 67.8871 56.2311 -6.18074 25
1901 3 69.7982 51.9709 -8.87223 25
1902 3 70.592 57.0166 -9.32788 25
1903 3 67.9826 53.2877 -7.22345 24
1904 3 67.8326 58.2124 -7.71515 25
1908 3 70.5501 54.9696 -7.85228 24
1911 1 71.3827 51.7525 -7.51313 26
1916 1 71.7542 59.0641 -9.18483 27
1918 2 71.9572 57.7714 -6.16798 25
3483 2 64.2028 50.7721 -2.88141 25
3486 2 68.9052 50.7011 -3.06099 24
3487 3 67.4157 50.9735 -3.08036 25
3593 1 64.4124 56.9342 -4.89536 28
3597 1 64.1957 53.9745 -2.86175 26
3601 2 66.5134 55.6241 -3.35222 26
3605 3 63.3321 55.6969 -3.47705 22
3609 3 65.0786 52.0531 -2.78357 27
3610 3 65.837 57.0238 -3.52367 24
3613 3 65.9589 54.6067 -4.50412 25
3616 3 65.7897 54.9756 -2.03169 26
3618 3 63.3139 53.0743 -4.51784 24
3621 1 69.1659 56.9711 -4.66805 28
3622 1 66.4258 52.5535 -4.18293 24
3625 1 69.0556 53.9635 -2.94185 26
3626 1 66.9961 59.0754 -3.36571 28
3629 2 71.2947 55.6301 -3.13817 26
3633 3 68.0672 55.6869 -3.22934 24
3637 3 69.7982 51.9709 -2.8495 25
3638 3 70.592 57.0166 -3.30515 25
3641 3 70.7407 54.6044 -4.2829 25
3645 3 67.887 58.441 -5.10375 24
3646 3 68.2186 53.1201 -4.68602 24
3650 1 71.2039 52.5172 -4.20335 24
3652 1 71.7542 59.0641 -3.1621 27
1758 1 45.5074 59.0893 -6.87572 25
1762 2 45.7458 60.5066 -9.91113 21
1769 3 46.309 59.661 -8.66557 22
1776 1 50.3304 59.6652 -6.83242 30
1782 2 50.5085 60.7727 -9.87987 26
1786 3 48.9324 60.79 -9.89387 22
1788 3 49.108 61.1928 -6.869 26
1795 3 51.0917 59.9451 -8.62789 24
1814 3 53.7869 60.8888 -9.83856 22
1816 3 54.0213 61.3091 -6.82833 25
1927 1 45.5992 66.4614 -8.3838 26
1929 1 47.9592 64.5914 -6.98618 27
1932 2 45.1861 63.3749 -6.87474 23
1935 3 46.5709 62.6254 -6.90338 24
1936 3 46.7371 67.3313 -6.91406 24
1942 3 47.0404 64.7562 -8.78072 25
1943 1 47.8248 61.9345 -8.40627 27
1944 1 50.3286 66.8861 -8.56872 29
1947 1 52.6318 64.7275 -7.04168 27
1951 2 49.9461 62.6879 -6.85421 25
1952 2 48.2506 67.702 -6.99056 25
1955 3 51.4639 62.4464 -6.86983 23
1956 3 51.4812 67.6736 -7.05918 23
1959 3 49.0374 66.1968 -7.01623 26
1961 3 51.2634 62.164 -9.85895 24
1963 3 49.3076 63.3014 -8.14824 25
1968 3 51.7169 65.0692 -8.78612 25
1971 1 52.7063 61.98 -8.40613 28
1980 2 53.0329 67.8764 -7.02545 25
1987 3 53.7371 66.3501 -7.0121 26
1991 3 54.0447 63.4609 -8.0774 24
3498 2 45.7458 60.5066 -3.8884 21
3504 3 46.3118 59.8146 -5.19519 21
3505 3 46.309 59.661 -2.64284 22
3518 2 50.5085 60.7727 -3.85714 26
3522 3 48.9324 60.79 -3.87114 22
3530 3 51.1986 60.011 -5.10415 24
3531 3 51.0917 59.9451 -2.60516 24
3550 3 53.7869 60.8888 -3.81583 22
3663 1 45.5992 66.4614 -2.36107 26
3664 1 45.4788 66.6015 -5.41109 25
3667 1 45.6147 63.8326 -3.96725 26
3669 2 47.6567 65.6291 -3.99976 25
3673 3 46.4152 61.9458 -3.84051 22
3674 3 46.8986 66.9971 -3.92175 28
3675 3 46.9518 64.8251 -5.23923 23
3678 3 47.0404 64.7562 -2.75799 25
3679 1 47.8248 61.9345 -2.38354 27
3680 1 50.3286 66.8861 -2.54599 29
3681 1 50.3467 66.8787 -5.51871 29
3682 1 47.7788 61.8542 -5.38888 27
3685 1 50.2913 64.0372 -3.88912 28
3689 2 52.3917 65.8237 -4.03599 25
3693 3 49.195 65.7722 -4.00558 22
3697 3 51.2634 62.164 -3.83622 24
3698 3 51.6761 67.2541 -4.03301 25
3699 3 49.3076 63.3014 -2.12551 25
3701 3 51.7075 65.0783 -5.30007 25
3704 3 51.7169 65.0692 -2.76339 25
3706 3 49.2724 63.2682 -5.56182 26
3707 1 52.7063 61.98 -2.3834 28
3710 1 52.673 61.9101 -5.31446 28
3721 3 53.9393 65.9098 -3.98481 22
3727 3 54.0447 63.4609 -2.05467 24
3734 3 54.0622 63.3802 -5.48634 25
1804 1 55.1976 59.753 -6.80905 28
1810 2 55.3579 60.8109 -9.8353 26
1823 3 55.9532 59.9364 -8.61935 24
1832 1 59.8981 59.7056 -6.69079 29
1838 2 60.1298 60.8035 -9.69324 25
1842 3 58.5631 60.8706 -9.72825 22
1844 3 58.7652 61.303 -6.75157 26
1851 3 60.7459 59.9623 -8.46132 23
1870 3 63.3193 60.8427 -9.55361 22
1972 1 55.0939 66.9552 -8.53493 28
1975 1 57.3804 64.7268 -6.97813 28
1977 1 55.0302 64.1318 -9.84843 27
1979 2 54.7397 62.849 -6.79777 25
1981 2 57.1545 65.874 -9.99813 25
1983 3 56.2702 62.6171 -6.82187 24
1984 3 56.2551 67.7206 -7.01932 23
1989 3 56.0622 62.2261 -9.76721 26
1996 3 56.4643 65.1439 -8.71939 25
1999 1 57.4943 62.016 -8.33439 28
2000 1 59.8689 66.9352 -8.41997 29
2003 1 62.1397 64.7084 -6.84838 28
2005 1 59.7974 64.1308 -9.74262 27
2007 2 59.5078 62.8422 -6.68871 25
2008 2 57.8106 67.8815 -6.94345 25
2009 2 61.9266 65.8575 -9.86796 25
2011 3 61.0368 62.604 -6.68741 24
2012 3 61.0254 67.7012 -6.89635 23
2013 3 58.7049 65.9251 -9.91819 22
2015 3 58.4966 66.3538 -6.91504 26
2017 3 60.8356 62.217 -9.64255 26
2018 3 61.2321 67.3022 -9.90562 25
2019 3 58.8354 63.4762 -7.97108 24
2024 3 61.2296 65.1433 -8.58727 25
2027 1 62.2533 61.9861 -8.18366 28
2036 2 62.576 67.8594 -6.79601 25
2043 3 63.2648 66.334 -6.74679 26
3546 2 55.3579 60.8109 -3.81257 26
3558 3 56.058 60.1021 -5.08184 24
3559 3 55.9532 59.9364 -2.59662 24
3574 2 60.1298 60.8035 -3.67051 25
3578 3 58.5631 60.8706 -3.70552 22
3586 3 60.7783 60.0719 -4.95434 23
3587 3 60.7459 59.9623 -2.43859 23
3606 3 63.3193 60.8427 -3.53088 22
3708 1 55.0939 66.9552 -2.5122 28
3709 1 55.0944 66.9667 -5.48483 28
3713 1 55.0302 64.1318 -3.8257 27
3717 2 57.1545 65.874 -3.9754 25
3725 3 56.0622 62.2261 -3.74448 26