ITEM: TIMESTEP
2000
ITEM: NUMBER OF ATOMS
10500
ITEM: BOX BOUNDS xy xz yz pp pp pp
0.0 8.9688 2.9896
0.0 118.725 0.0
0.0 252.977 0.0
ITEM: ATOMS id type x y z
1 1 -3.52124 7.14911 57.2774
2 1 -1.85424 6.95866 49.9853
3 2 -0.129879 3.84633 47.9902
4 3 -0.147575 5.32573 47.4529
5 3 -2.03977 3.46913 51.8207
6 3 -1.43154 3.48561 48.8688
7 1 1.96665 2.51539 47.0483
8 3 1.38433 3.56697 48.6987
9 1 1.08771 2.28515 54.4694
10 2 0.93501 5.01689 56.4154
11 3 0.992567 3.47176 56.5261
12 3 1.10333 6.1286 52.7363
13 3 -0.35339 5.69365 55.7863
14 3 2.21895 5.68366 55.6616
15 1 -0.458092 4.6882 52.1206
16 1 2.92083 4.09537 49.8989
17 2 1.1014 6.70683 51.1628
18 3 1.26193 8.26629 51.2322
19 3 0.976603 5.68742 57.8699
20 3 -0.238892 6.15798 50.5423
21 1 -3.52698 4.73337 52.566
22 3 2.39842 6.04659 50.5018
23 1 -2.04713 4.75582 55.1292
24 2 -1.93388 2.64205 53.2267
25 3 -2.05266 1.099 53.1275
26 3 0.0201036 2.78378 46.8103
27 3 -3.16122 3.28215 54.0643
28 3 -0.606612 3.27141 53.9253
29 1 -3.40973 11.7626 57.5148
30 1 -1.69327 11.501 49.5404
31 2 -1.12215 8.97745 47.6913
32 3 -1.02381 10.5563 47.7095
33 3 -1.82948 8.05138 51.7515
34 3 -2.27568 8.44262 48.6776
35 1 0.252816 6.99846 46.7296
36 3 0.374815 8.4071 48.2532
37 1 1.09839 7.13223 54.4876
38 2 0.992406 9.78513 56.3711
39 3 1.01684 8.25384 56.4392
40 3 1.28755 10.7879 52.5448
41 3 -0.242518 10.5051 55.7136
42 3 2.31447 10.4735 55.7511
43 1 -0.257644 9.46653 52.2348
44 1 1.86575 8.96269 49.3691
45 2 1.27287 11.3917 50.9995
46 3 1.38599 12.9912 51.1459
47 3 0.998148 10.4581 57.8685
48 3 -0.0404856 10.7417 50.4587
49 1 -3.3508 9.37005 52.324
50 3 2.45715 10.8009 50.2207
51 1 -1.95201 9.58474 55.165
52 2 -1.85929 7.41253 53.2755
53 3 -1.86636 5.88379 53.2364
54 3 -1.18156 8.34865 46.2857
55 3 -3.12433 8.09305 53.989
56 3 -0.528166 8.18202 53.8899
57 1 -3.19564 16.5772 57.3413
58 1 -1.59756 16.2714 49.6311
59 2 -1.0958 13.853 47.7732
60 3 -0.982793 15.4174 47.8407
61 3 -1.72303 12.7899 51.6681
62 3 -2.32487 13.2894 48.6325
63 1 0.0461634 11.7829 46.6934
64 3 0.336602 13.1653 48.2912
65 1 1.28384 11.9021 54.5395
66 2 1.24657 14.5117 56.4296
67 3 1.16099 12.9272 56.4472
68 3 1.40128 15.5363 52.6715
69 3 -0.0642089 15.1421 55.7762
70 3 2.50104 15.1282 55.6683
71 1 -0.117507 14.0964 52.2088
72 1 1.9011 13.8387 49.3567
73 2 1.4068 16.2148 51.2027
74 3 1.48519 17.801 51.3057
75 3 1.27293 15.213 57.9202
76 3 0.0580132 15.5935 50.5769
77 1 -3.07867 14.1866 52.265
78 3 2.61547 15.5339 50.3947
79 1 -1.772 14.2601 55.0655
80 2 -1.70541 12.0929 53.1519
81 3 -1.80721 10.5767 53.1369
82 3 -1.03115 13.3577 46.2692
83 3 -2.99598 12.8815 53.8941
84 3 -0.408 12.8127 53.82
85 1 -3.00391 21.2716 57.4335
86 1 -1.40886 21.2023 49.8705
87 2 -1.0152 18.6685 47.9106
88 3 -0.963818 20.2521 47.8651
89 3 -1.63954 17.5104 51.837
90 3 -2.1982 18.0763 48.8065
91 1 0.101439 16.6433 46.8123
92 3 0.462164 18.079 48.3997
93 1 1.39285 16.6097 54.5413
94 2 1.35171 19.2028 56.4369
95 3 1.26368 17.6944 56.4911
96 3 1.61166 20.3402 52.7222
97 3 0.115781 19.9422 55.7721
98 3 2.65382 19.8476 55.7259
99 1 -0.0924073 18.8886 52.1161
100 1 2.03471 18.7262 49.4452
101 2 1.52732 21.0109 51.2436
102 3 1.54486 22.577 51.3071
103 3 1.3553 19.9864 57.9112
104 3 0.208981 20.3058 50.6452
105 1 -3.0537 18.8979 52.4051
106 3 2.73655 20.4124 50.4026
107 1 -1.59 18.9583 55.0441
108 2 -1.61498 16.817 53.2952
109 3 -1.63687 15.2769 53.1901
110 3 -1.05048 18.1131 46.4195
111 3 -2.87299 17.5335 54.0555
112 3 -0.331663 17.5014 53.9212
113 1 -2.71292 26.0453 57.3707
114 1 -1.35388 26.0618 49.8226
115 2 -1.03506 23.4579 48.0335
116 3 -0.976586 25.0386 47.9991
117 3 -1.35349 22.292 51.805
118 3 -2.22871 22.8551 48.9067
119 1 0.0488708 21.4392 46.7575
120 3 0.391036 22.7805 48.4359
121 1 1.54884 21.3924 54.5521
122 2 1.63606 24.0334 56.4452
123 3 1.62748 22.4845 56.53
124 3 1.62547 25.0481 52.7311
125 3 0.307786 24.6691 55.8432
126 3 2.88924 24.6671 55.6595
127 1 0.126818 23.6917 52.2326
128 1 1.9369 23.4748 49.4901
129 2 1.64994 25.7702 51.2582
130 3 1.76101 27.3312 51.3561
131 3 1.69883 24.7538 57.91
132 3 0.416973 25.1398 50.5008
133 1 -2.80559 23.684 52.2492
134 3 2.96945 25.1827 50.5511
135 1 -1.40027 23.7198 55.1217
136 2 -1.425 21.6116 53.2801
137 3 -1.47956 20.0488 53.1467
138 3 -1.0442 22.9644 46.4796
139 3 -2.70437 22.3278 53.9313
140 3 -0.173076 22.2367 53.9834
141 1 -2.72199 30.8974 57.4607
142 1 -1.2599 30.696 49.9194
143 2 -0.953041 28.1431 47.9398
144 3 -0.724456 29.7176 48.0617
145 3 -1.23652 27.0765 51.7618
146 3 -2.20356 27.6815 48.8002
147 1 -0.0389188 26.1209 46.6738
148 3 0.466648 27.5077 48.4001
149 1 1.77238 26.099 54.5411
150 2 1.79455 28.7809 56.4347
151 3 1.72384 27.1754 56.4841
152 3 1.73727 29.8078 52.7974
153 3 0.526109 29.4574 55.695
154 3 3.07195 29.4638 55.8362
155 1 0.247339 28.4975 52.2669
156 1 1.9134 28.2379 49.4517
157 2 1.63239 30.482 51.2812
158 3 1.75274 32.0557 51.2787
159 3 1.77826 29.4811 57.951
160 3 0.388776 29.7662 50.6834
161 1 -2.73364 28.4609 52.221
162 3 2.90862 29.8492 50.5923
163 1 -1.12932 28.5044 55.0717
164 2 -1.27706 26.3978 53.2667
165 3 -1.3227 24.8402 53.1142
166 3 -1.05099 27.7013 46.4254
167 3 -2.54542 27.1274 53.9183
168 3 0.0187613 27.0274 53.9446
169 1 -2.68793 35.5358 57.4542
170 1 -1.27934 35.4263 49.8106
171 2 -0.781895 32.9782 47.9571
172 3 -0.82655 34.5732 47.9622
173 3 -1.20108 31.796 51.7734
174 3 -2.03799 32.2906 48.7874
175 1 0.22487 30.9149 46.9201
176 3 0.597382 32.3322 48.5139
177 1 1.74953 30.9482 54.6266
178 2 1.78232 33.5504 56.3721
179 3 1.76133 32.0168 56.4451
180 3 1.88479 34.5554 52.7133
181 3 0.496761 34.2151 55.6508
182 3 3.05655 34.2246 55.7013
183 1 0.359747 33.1573 52.2709
184 1 2.23216 32.8774 49.4587
185 2 1.74569 35.2298 51.2378
186 3 1.75225 36.7665 51.2597
187 3 1.7732 34.2423 57.8703
188 3 0.288658 34.619 50.6975
189 1 -2.64036 33.1646 52.1036
190 3 2.92965 34.5354 50.4351
191 1 -1.21669 33.2659 55.0168
192 2 -1.20879 31.141 53.2666
193 3 -1.27968 29.574 53.2089
194 3 -0.674213 32.5394 46.4439
195 3 -2.51709 31.8158 53.8899
196 3 0.0201213 31.8463 53.9382
197 1 -2.67042 40.3173 57.264
198 1 -1.23956 40.2662 49.658
199 2 -1.01899 37.5665 47.842
200 3 -0.894254 39.1439 47.9303
201 3 -1.20772 36.5463 51.6554
202 3 -2.10643 36.9917 48.8203
203 1 0.0905467 35.6285 46.645
204 3 0.571732 37.0913 48.1518
205 1 1.88864 35.7186 54.5178
206 2 1.85865 38.2811 56.3306
207 3 1.8396 36.7163 56.4406
208 3 1.79982 39.2238 52.5753
209 3 0.518761 38.9089 55.6558
210 3 3.0578 38.9258 55.5395
211 1 0.285476 37.8486 52.1396
212 1 2.07006 37.7152 49.3275
213 2 1.79116 39.9391 51.1017
214 3 1.883 41.5097 51.2452
215 3 1.86406 38.9477 57.7639
216 3 0.523041 39.3275 50.4154
217 1 -2.71745 37.9006 52.1736
218 3 3.03948 39.3828 50.3217
219 1 -1.24601 37.9875 55.0861
220 2 -1.17662 35.8711 53.1379
221 3 -1.20108 34.2733 53.1146
222 3 -1.21247 37.0892 46.3142
223 3 -2.41603 36.6019 53.8193
224 3 0.099693 36.5403 53.7757
225 1 -2.61937 45.0442 57.2567
226 1 -0.941692 44.8686 49.5285
227 2 -0.871277 42.313 47.6785
228 3 -0.68935 43.8829 47.7318
229 3 -1.13422 41.273 51.58
230 3 -2.08037 41.8321 48.6124
231 1 0.0998748 40.1679 46.6858
232 3 0.529851 41.6717 48.2201
233 1 1.86709 40.3772 54.3427
234 2 1.78136 42.9426 56.2843
235 3 1.83312 41.385 56.3646
236 3 1.92451 44.1229 52.4889
237 3 0.597932 43.6376 55.5435
238 3 3.10835 43.5809 55.5535
239 1 0.350644 42.623 52.0345
240 1 2.10531 42.3195 49.2204
241 2 1.96465 44.7007 50.9678
242 3 2.02518 46.2217 50.9592
243 3 1.87184 43.6818 57.7422
244 3 0.703856 43.9487 50.3484
245 1 -2.53426 42.7053 52.0121
246 3 3.28047 43.9976 50.3027
247 1 -1.11758 42.6592 54.9424
248 2 -1.17635 40.6177 53.0222
249 3 -1.20295 39.0581 53.0136
250 3 -0.965603 41.791 46.2388
251 3 -2.41704 41.3358 53.7565
252 3 0.122374 41.2429 53.6978
253 1 -2.45808 49.674 57.2972
254 1 -0.807289 49.6275 49.5895
255 2 -0.428695 47.1383 47.5704
256 3 -0.332609 48.6765 47.6179
257 3 -0.866824 45.9879 51.5906
258 3 -1.59722 46.579 48.527
259 1 0.409148 45.0092 46.5178
260 3 0.987714 46.4664 48.0171
261 1 2.02543 45.0616 54.3182
262 2 1.90321 47.7138 56.2658
263 3 1.97627 46.1818 56.3362
264 3 2.19728 48.7294 52.535
265 3 0.632596 48.3592 55.5966
266 3 3.17849 48.3747 55.5765
267 1 0.570112 47.3772 51.9555
268 1 2.55245 47.0308 49.164
269 2 2.13157 49.358 51.0526
270 3 2.25712 50.9245 51.0787
271 3 1.92071 48.3918 57.7961
272 3 0.846875 48.7671 50.444
273 1 -2.38729 47.3371 52.0764
274 3 3.40613 48.6716 50.3458
275 1 -1.11494 47.3833 54.9704
276 2 -0.887449 45.3377 53.0578
277 3 -1.04251 43.784 53.0384
278 3 -0.648535 46.5951 46.0954
279 3 -2.24784 46.0131 53.7646
280 3 0.310096 46.0739 53.7264
281 1 -2.29267 54.4914 57.2537
282 1 -0.665126 54.4323 49.7439
283 2 -0.163553 51.945 47.7901
284 3 -0.0512509 53.5009 47.8984
285 3 -0.798079 50.7874 51.591
286 3 -1.39331 51.3281 48.5825
287 1 0.620177 49.8307 46.3554
288 3 1.2679 51.3181 48.2582
289 1 2.17081 49.773 54.4293
290 2 2.03945 52.3734 56.2682
291 3 1.97096 50.8297 56.3916
292 3 2.37671 53.4753 52.6186
293 3 0.789595 53.1113 55.6856
294 3 3.32241 53.0376 55.5803
295 1 0.72543 52.1408 52.1241
296 1 2.84926 51.8704 49.2706
297 2 2.36945 54.1866 51.2002
298 3 2.41826 55.7365 51.324
299 3 2.14697 53.0638 57.785
300 3 1.00147 53.6224 50.5997
301 1 -2.2212 52.1008 52.1382
302 3 3.54153 53.5503 50.3422
303 1 -0.909747 52.1864 55.0996
304 2 -0.764238 50.0725 53.081
305 3 -0.880113 48.537 52.9478
306 3 -0.215465 51.5241 46.2388
307 3 -2.07651 50.7068 53.8144
308 3 0.511092 50.7311 53.7235
309 1 -2.20808 59.1455 57.4186
310 1 -0.601712 59.2737 49.8749
311 2 -0.100505 56.802 47.9585
312 3 -0.243352 58.3332 48.0962
313 3 -0.675044 55.5256 51.6736
314 3 -1.33466 56.0897 48.672
315 1 0.999085 54.7214 46.8118
316 3 1.32299 56.0901 48.4817
317 1 2.3463 54.5406 54.4294
318 2 2.21649 57.2261 56.3025
319 3 2.24369 55.6486 56.3817
320 3 2.3634 58.3312 52.6831
321 3 0.924082 57.9219 55.7385
322 3 3.47796 57.8769 55.6067
323 1 0.873075 56.8477 52.1942
324 1 2.95527 56.649 49.5374
325 2 2.37669 59.0178 51.1845
326 3 2.49913 60.5553 51.2951
327 3 2.3031 57.8137 57.8321
328 3 1.05252 58.3992 50.5604
329 1 -2.11016 56.9326 52.3103
330 3 3.6356 58.2559 50.5341
331 1 -0.766791 56.9639 55.05
332 2 -0.61666 54.8201 53.1071
333 3 -0.67476 53.224 53.0416
334 3 0.176667 56.5057 46.398
335 3 -1.87999 55.4537 53.8756
336 3 0.687335 55.4959 53.8017
337 1 -2.08541 63.9986 57.4725
338 1 -0.596227 63.9386 49.908
339 2 -0.183156 61.4846 47.8627
340 3 -0.183894 63.0523 47.9276
341 3 -0.587523 60.3445 51.7666
342 3 -1.34986 60.8716 48.801
343 1 0.782275 59.2616 46.7138
344 3 1.29252 60.9607 48.3819
345 1 2.46691 59.2796 54.5058
346 2 2.43162 61.9606 56.3799
347 3 2.40347 60.4052 56.5345
348 3 2.50254 63.0347 52.7413
349 3 1.13268 62.6413 55.7379
350 3 3.70897 62.6237 55.7356
351 1 0.930347 61.6747 52.221
352 1 2.85549 61.4799 49.3289
353 2 2.45257 63.6883 51.2636
354 3 2.47372 65.268 51.4157
355 3 2.41402 62.6315 57.8866
356 3 1.12318 63.1184 50.6883
357 1 -2.01627 61.7327 52.3016
358 3 3.6999 63.0722 50.5044
359 1 -0.606529 61.6059 55.2158
360 2 -0.507559 59.6427 53.215
361 3 -0.614991 58.0461 53.1322
362 3 -0.187184 60.8621 46.4132
363 3 -1.78598 60.234 53.9937
364 3 0.778815 60.3132 53.9124
365 1 -1.90978 68.747 57.4323
366 1 -0.365752 68.7495 49.9262
367 2 -0.299448 66.2183 48.0125
368 3 -0.143643 67.7747 48.1084
369 3 -0.55815 65.1251 51.8243
370 3 -1.50419 65.5747 48.8705
371 1 0.912073 64.2679 46.9407
372 3 1.07882 65.5352 48.5874
373 1 2.46552 64.1474 54.564
374 2 2.5767 66.6863 56.3711
375 3 2.47819 65.1453 56.4639
376 3 2.53999 67.8588 52.8205
377 3 1.30506 67.4559 55.7812
378 3 3.85297 67.3558 55.7598
379 1 1.01078 66.356 52.2538
380 1 2.67004 66.2109 49.5869
381 2 2.54064 68.4838 51.3243
382 3 2.61646 70.0692 51.3272
383 3 2.56345 67.4057 57.9356
384 3 1.27418 67.7748 50.6589
385 1 -1.98275 66.4838 52.325
386 3 3.8201 67.846 50.6374
387 1 -0.415911 66.3886 55.1301
388 2 -0.589219 64.375 53.2738
389 3 -0.594262 62.8505 53.1973
390 3 -0.292588 65.7527 46.503
391 3 -1.80238 65.1015 54.0295
392 3 0.755724 65.017 53.9244
393 1 -1.84092 73.5549 57.4849
394 1 -0.380526 73.4588 49.8996
395 2 0.0712715 70.9839 48.022
396 3 0.213666 72.5757 47.9715
397 3 -0.341136 69.8082 51.8159
398 3 -1.1212 70.4029 48.8816
399 1 0.837054 68.7741 46.8215
400 3 1.42567 70.3022 48.5986
401 1 2.69799 68.8654 54.635
402 2 2.5803 71.5532 56.4738
403 3 2.59878 69.9914 56.4822
404 3 2.70573 72.5621 52.7672
405 3 1.30502 72.2067 55.8595
406 3 3.86096 72.2927 55.7556
407 1 1.12534 71.2048 52.2618
408 1 3.0275 70.9381 49.56
409 2 2.63068 73.267 51.3059
410 3 2.76968 74.7846 51.2763
411 3 2.67113 72.2378 57.9508
412 3 1.28293 72.63 50.6783
413 1 -1.85922 71.2044 52.3618
414 3 3.86264 72.5725 50.528
415 1 -0.378143 71.3203 55.1235
416 2 -0.349817 69.1549 53.3252
417 3 -0.413333 67.5943 53.2478
418 3 0.0647334 70.4459 46.5154
419 3 -1.62944 69.8163 53.957
420 3 0.904711 69.8278 53.983
421 1 -1.74848 78.394 57.5025
422 1 -0.313183 78.0496 49.8788
423 2 0.310589 75.6989 47.8934
424 3 0.455893 77.278 47.8869
425 3 -0.289888 74.5376 51.7482
426 3 -0.841099 75.2327 48.866
427 1 1.37562 73.6661 46.8367
428 3 1.7882 75.0799 48.2466
429 1 2.67935 73.6287 54.5649
430 2 2.68416 76.2593 56.5327
431 3 2.61056 74.7032 56.6151
432 3 2.78984 77.3071 52.7949
433 3 1.35871 76.9328 55.9485
434 3 3.9359 76.998 55.7417
435 1 1.25967 75.9657 52.3524
436 1 3.24794 75.692 49.3401
437 2 2.64398 77.9526 51.2879
438 3 2.74577 79.4892 51.2915
439 3 2.76203 76.9241 58.0294
440 3 1.30409 77.2831 50.7909
441 1 -1.73418 76.0103 52.1844
442 3 3.83996 77.308 50.4626
443 1 -0.360785 75.9574 55.1348
444 2 -0.362738 73.8635 53.2485
445 3 -0.395936 72.3407 53.2491
446 3 0.146546 75.0755 46.43
447 3 -1.60071 74.6199 53.9231
448 3 0.964957 74.4668 53.9089
449 1 -1.6606 83.0057 57.3434
450 1 -0.216211 83.0274 49.7927
451 2 0.286139 80.4096 47.9831
452 3 0.193294 81.9594 48.0081
453 3 -0.283209 79.2768 51.7599
454 3 -0.887392 79.7706 48.8036
455 1 1.61118 78.5221 46.9192
456 3 1.76233 79.9096 48.4727
457 1 2.79828 78.3977 54.5555
458 2 2.76776 80.9816 56.4688
459 3 2.74265 79.4259 56.4599
460 3 2.78018 82.0067 52.7591
461 3 1.56057 81.7627 55.7663
462 3 4.0652 81.634 55.7762
463 1 1.22003 80.6492 52.1312
464 1 3.34658 80.423 49.5135
465 2 2.78014 82.6907 51.2837
466 3 2.888 84.2641 51.2868
467 3 2.79303 81.6399 57.8975
468 3 1.4498 82.0701 50.6623
469 1 -1.70448 80.7348 52.3584
470 3 4.05462 82.0348 50.5966
471 1 -0.135313 80.7462 55.2187
472 2 -0.224747 78.6384 53.2551
473 3 -0.250931 77.0547 53.2655
474 3 0.453076 80.1027 46.3988
475 3 -1.45984 79.3069 53.9814
476 3 1.12231 79.3018 53.8776
477 1 -1.50626 87.8075 57.2188
478 1 -0.101045 87.8082 49.722
479 2 0.281905 85.0844 47.7692
480 3 0.334787 86.6795 47.7948
481 3 -0.0746625 84.1045 51.7059
482 3 -0.890568 84.5759 48.6809
483 1 1.16081 82.9223 46.6662
484 3 1.67354 84.4525 48.3024
485 1 2.83919 83.0703 54.5559
486 2 2.8763 85.7974 56.3114
487 3 2.84061 84.245 56.4131
488 3 2.98014 86.8535 52.6734
489 3 1.60941 86.4921 55.6104
490 3 4.18358 86.4268 55.7307
491 1 1.35924 85.5531 52.1295
492 1 3.25196 85.1877 49.2767
493 2 2.90246 87.5012 51.1606
494 3 2.91694 89.0982 51.1455
495 3 2.90589 86.5167 57.8216
496 3 1.53505 86.9263 50.5812
497 1 -1.55456 85.4096 52.3241
498 3 4.08118 86.8293 50.3792
499 1 -0.138433 85.5159 54.9411
500 2 -0.0199865 83.3373 53.1707
501 3 -0.162534 81.8106 53.1291
502 3 0.233682 84.5699 46.2536
503 3 -1.30153 84.0851 53.879
504 3 1.22028 84.0486 53.8117
505 1 -1.52627 92.5677 57.4871
506 1 0.0494989 92.4816 49.7509
507 2 -0.252504 90.0031 47.6932
508 3 -0.0801676 91.5449 47.7401
509 3 -0.105452 88.8554 51.6037
510 3 -1.65133 89.4823 48.2038
511 1 1.14828 87.9655 46.6823
512 3 0.902521 89.34 48.6603
513 1 2.91252 87.9174 54.4238
514 2 3.05195 90.5087 56.2635
515 3 2.9699 88.9324 56.2978
516 3 2.95378 91.5822 52.5621
517 3 1.75153 91.2146 55.5679
518 3 4.34109 91.1932 55.6713
519 1 1.35941 90.3903 51.9185
520 1 2.76979 90.0022 49.2591
521 2 3.0982 92.2467 51.1267
522 3 3.11457 93.8303 51.1584
523 3 3.01074 91.1626 57.7743
524 3 1.85602 91.7109 50.317
525 1 -1.5999 90.1333 52.1695
526 3 4.36168 91.5697 50.4481
527 1 0.0979643 90.2801 54.999
528 2 -0.00309816 88.2189 53.1199
529 3 -0.040058 86.6323 53.049
530 3 0.172652 89.4909 46.2288
531 3 -1.27123 88.9073 53.8621
532 3 1.27147 88.9153 53.6867
533 1 -1.23893 97.2559 57.3352
534 1 0.107573 97.3306 49.7828
535 2 -0.404699 94.8552 47.9148
536 3 -0.23841 96.3761 48.0221
537 3 0.00750407 93.5686 51.6597
538 3 -1.79664 94.2729 48.229
539 1 0.666317 92.8538 46.6451
540 3 0.772937 94.0235 48.6349
541 1 2.98573 92.621 54.4891
542 2 3.10165 95.2534 56.3133
543 3 3.0203 93.7139 56.4075
544 3 3.00337 96.2878 52.6815
545 3 1.84449 95.9238 55.6775
546 3 4.37388 95.9452 55.6179
547 1 1.54737 94.8616 52.1552
548 1 2.61447 94.6385 49.3214
549 2 3.07025 96.9787 51.1819
550 3 3.11623 98.5463 51.3188
551 3 3.16942 95.8995 57.8677
552 3 1.81086 96.3114 50.439
553 1 -1.44027 95.0052 52.2839
554 3 4.43049 96.3851 50.6163
555 1 0.146864 95.011 55.0573
556 2 -0.0160389 92.9303 53.1507
557 3 -0.0496128 91.3663 53.0228
558 3 0.0249147 94.7005 46.263
559 3 -1.31498 93.5945 53.8555
560 3 1.27522 93.5756 53.8396
561 1 -1.18542 102.063 57.4409
562 1 0.448726 101.701 49.7146
563 2 -0.054455 99.4023 47.7178
564 3 0.260456 100.984 47.62
565 3 0.19733 98.3948 51.6732
566 3 -1.47546 99.135 48.3771
567 1 0.186026 96.8109 46.1169
568 3 1.09127 98.8241 48.797
569 1 3.2364 97.3648 54.5051
570 2 3.27131 100.043 56.4162
571 3 3.19159 98.4333 56.4968
572 3 3.24216 101.089 52.5761
573 3 2.05161 100.685 55.7121
574 3 4.59895 100.655 55.6717
575 1 1.82402 99.6098 52.3548
576 1 2.85478 99.3867 49.3153
577 2 3.42146 101.762 51.0911
578 3 3.36698 103.294 51.0782
579 3 3.29553 100.662 57.8858
580 3 2.26508 101.159 50.2299
581 1 -1.16061 99.775 52.1642
582 3 4.8159 101.178 50.6125
583 1 0.321476 99.6283 55.069
584 2 0.16589 97.6141 53.1336
585 3 0.142645 96.0679 53.1078
586 3 0.245073 98.6854 46.31
587 3 -1.10481 98.2955 53.763
588 3 1.38629 98.2888 53.9062
589 1 -0.91726 106.812 57.469
590 1 0.61799 106.772 49.7793
591 2 -0.381207 104.416 48.0033
592 3 -0.0199331 105.966 48.069
593 3 0.565271 103.089 51.6854
594 3 -1.82474 103.935 48.17
595 1 1.05251 102.464 46.7525
596 3 0.817736 103.538 48.6841
597 1 3.46233 102.132 54.4473
598 2 3.46265 104.728 56.3846
599 3 3.36781 103.155 56.4572
600 3 3.55303 105.733 52.7047
601 3 2.20193 105.417 55.7541
602 3 4.7496 105.381 55.641
603 1 1.99101 104.478 52.1904
604 1 2.60421 104.191 49.3308
605 2 3.58342 106.458 51.1903
606 3 3.66316 108.044 51.2311
607 3 3.59669 105.355 57.8982
608 3 2.33034 105.801 50.4299
609 1 -0.895587 104.46 52.0391
610 3 4.97462 105.868 50.6403
611 1 0.462567 104.428 55.0837
612 2 0.505324 102.402 53.1634
613 3 0.401778 100.843 53.0849
614 3 0.197693 104.19 46.3815
615 3 -0.830917 102.986 53.7571
616 3 1.74135 103.063 53.8664
617 1 -0.830934 111.562 57.3169
618 1 0.85376 111.241 49.673
619 2 0.335055 108.885 47.6563
620 3 0.888122 110.457 47.5582
621 3 0.714266 107.819 51.7305
622 3 -1.12574 108.859 48.2956
623 1 0.299416 106.258 46.1287
624 3 1.4205 108.256 48.6879
625 1 3.67142 106.759 54.4907
626 2 3.69721 109.449 56.3651
627 3 3.691 107.921 56.5129
628 3 3.68772 110.53 52.5963
629 3 2.35317 110.101 55.6706
630 3 4.95024 110.159 55.6581
631 1 2.18223 109.143 52.2852
632 1 3.18746 108.946 49.174
633 2 3.87335 111.239 51.065
634 3 3.80417 112.759 51.1702
635 3 3.65316 110.188 57.8451
636 3 2.63526 110.589 50.2934
637 1 -0.758437 109.191 52.0938
638 3 5.21031 110.632 50.5194
639 1 0.654358 109.199 55.009
640 2 0.680405 107.118 53.1814
641 3 0.590172 105.581 53.114
642 3 0.524892 108.144 46.2543
643 3 -0.614431 107.796 53.8436
644 3 1.96813 107.726 53.9032
645 1 -0.710425 116.26 57.2775
646 1 0.774868 116.36 49.8165
647 2 0.255852 113.79 48.0096
648 3 0.622917 115.324 48.0962
649 3 0.881152 112.522 51.6917
650 3 -1.17913 113.331 48.2759
651 1 1.65618 111.938 46.6436
652 3 1.43709 112.931 48.6609
653 1 3.66128 111.584 54.4434
654 2 3.66693 114.204 56.3647
655 3 3.60764 112.625 56.3634
656 3 3.69427 115.302 52.6502
657 3 2.38037 114.982 55.7327
658 3 4.92062 114.915 55.5522
659 1 2.31224 113.858 52.1861
660 1 3.18288 113.626 49.3778
661 2 3.81607 115.909 51.115
662 3 3.80357 117.508 51.242
663 3 3.80813 114.876 57.8257
664 3 2.58919 115.244 50.3526
665 1 -0.640775 113.93 52.1679
666 3 5.1663 115.317 50.5804
667 1 0.756183 113.998 55.0145
668 2 0.747699 111.835 53.1821
669 3 0.692619 110.282 53.0571
670 3 0.706398 113.614 46.3135
671 3 -0.556112 112.534 53.7918
672 3 1.98547 112.475 53.8537
673 1 -0.528458 121.068 57.3846
674 1 1.09781 120.3 49.3588
675 2 0.192788 118.272 47.689
676 3 0.164862 119.848 47.5781
677 3 0.92103 117.234 51.6823
678 3 -1.13456 117.733 48.4673
679 1 0.743805 115.674 46.1201
680 3 1.43518 118.038 48.8027
681 1 3.82976 116.344 54.4091
682 2 3.83554 118.987 56.4489
683 3 3.7339 117.395 56.5104
684 3 3.95842 119.985 52.6779
685 3 2.55647 119.685 55.7299
686 3 5.14312 119.596 55.7423
687 1 2.43119 118.69 52.3372
688 1 3.32721 118.284 49.4413
689 2 4.02032 120.708 51.1975
690 3 4.07767 122.222 51.5131
691 3 3.84892 119.646 57.9109
692 3 2.80375 120.038 50.447
693 1 -0.517956 118.666 52.1165
694 3 5.38455 120.057 50.5744
695 1 0.839067 118.741 55.0505
696 2 0.811555 116.607 53.1737
697 3 0.792348 115.066 53.1444
698 3 0.535109 117.543 46.3335
699 3 -0.467421 117.395 53.7599
700 3 2.07508 117.269 53.9084
701 1 -3.53571 7.11989 67.6793
702 1 -2.01665 7.0094 60.22
703 2 -2.01725 4.42473 58.4522
704 3 -2.00942 5.95057 58.3259
705 3 -2.13111 3.34453 62.0169
706 3 -3.29981 3.65377 59.1338
707 1 -0.68152 2.30276 57.333
708 3 -0.771577 3.6847 58.9996
709 1 0.837593 2.32995 64.661
710 2 0.911058 5.01836 66.6219
711 3 0.878985 3.51241 66.7018
712 3 1.00961 6.05133 63.0499
713 3 -0.347947 5.72806 65.9852
714 3 2.23427 5.73416 66.0072
715 1 -0.627957 4.7335 62.5077
716 1 1.00698 4.64521 59.6439
717 2 0.961376 6.74622 61.5235
718 3 0.93979 8.30937 61.594
719 3 0.96896 5.67517 68.1545
720 3 -0.333129 6.09103 60.8761
721 1 -3.59244 4.70617 62.5879
722 3 2.26582 6.09018 60.8206
723 1 -2.05898 4.696 65.3586
724 2 -2.15325 2.63604 63.4916
725 3 -2.12288 1.03142 63.3826
726 3 -2.07395 3.68193 56.901
727 3 -3.42651 3.30534 64.1674
728 3 -0.878887 3.26652 64.1396
729 1 -3.36771 11.6918 67.7936
730 1 -2.0154 11.8008 60.2554
731 2 -2.01514 9.10227 58.3417
732 3 -2.03323 10.6352 58.238
733 3 -2.06423 8.08448 62.0432
734 3 -3.31993 8.45206 59.0457
735 1 -0.52485 7.00931 57.4792
736 3 -0.767986 8.46203 59.0091
737 1 0.993602 7.09413 64.8232
738 2 1.01227 9.76267 66.7121
739 3 0.997879 8.23837 66.7705
740 3 0.928312 10.8872 63.0351
741 3 -0.262233 10.4719 66.029
742 3 2.28673 10.4658 66.0422
743 1 -0.504495 9.46559 62.6083
744 1 0.927125 9.39111 59.7219
745 2 0.988608 11.4762 61.5378
746 3 1.14436 13.0234 61.564
747 3 0.994254 10.4238 68.1966
748 3 -0.256216 10.7964 60.8242
749 1 -3.51535 9.47753 62.5819
750 3 2.31275 10.7588 60.9527
751 1 -1.96335 9.55103 65.3473
752 2 -2.08339 7.40662 63.5359
753 3 -2.02815 5.86589 63.4583
754 3 -2.02999 8.42635 56.8394
755 3 -3.38205 8.12931 64.1294
756 3 -0.811799 8.07525 64.233
757 1 -3.19137 16.3571 67.7388
758 1 -1.79801 16.5742 60.2493
759 2 -1.73042 13.8132 58.348
760 3 -1.75854 15.3856 58.2536
761 3 -1.83975 12.7866 62.0392
762 3 -3.01051 13.1812 59.1215
763 1 -0.407009 11.8002 57.3434
764 3 -0.4871 13.1657 58.9571
765 1 1.0202 11.8599 64.8394
766 2 1.1503 14.474 66.7761
767 3 1.06429 12.9657 66.8581
768 3 1.19279 15.5446 63.0076
769 3 -0.099203 15.2311 66.1103
770 3 2.41836 15.1584 66.0702
771 1 -0.358638 14.277 62.5812
772 1 1.2427 14.1382 59.7093
773 2 1.25281 16.2496 61.4934
774 3 1.21962 17.7585 61.6575
775 3 1.17921 15.1337 68.2732
776 3 -0.089775 15.6064 60.8397
777 1 -3.3484 14.171 62.4463
778 3 2.49901 15.5265 60.8186
779 1 -1.73738 14.2555 65.5495
780 2 -1.92026 12.1735 63.5859
781 3 -1.95764 10.5898 63.4875
782 3 -1.88592 13.1463 56.8799
783 3 -3.2278 12.7773 64.1509
784 3 -0.691915 12.9097 64.3096
785 1 -3.10986 21.2173 67.8074
786 1 -1.57093 21.2665 60.2606
787 2 -1.65105 18.6264 58.4257
788 3 -1.6613 20.1444 58.3863
789 3 -1.75341 17.5544 62.0441
790 3 -2.97597 17.9335 59.153
791 1 -0.248906 16.4855 57.4658
792 3 -0.409343 17.8785 59.0352
793 1 1.26363 16.6772 64.8393
794 2 1.34583 19.1772 66.7909
795 3 1.27887 17.6113 66.8283
796 3 1.37385 20.2681 63.0755
797 3 0.0436035 19.8516 66.1644
798 3 2.63036 19.9106 66.2011
799 1 -0.168081 18.8385 62.6216
800 1 1.32556 18.9356 59.7188
801 2 1.35197 21.0275 61.6306
802 3 1.46878 22.5815 61.6967
803 3 1.2739 19.8211 68.2974
804 3 0.0626041 20.3514 60.9498
805 1 -3.14076 18.9603 62.5646
806 3 2.55816 20.3641 60.9158
807 1 -1.64922 18.9876 65.5092
808 2 -1.75823 16.8563 63.5766
809 3 -1.83204 15.3116 63.4857
810 3 -1.68131 17.94 56.935
811 3 -3.05489 17.5789 64.211
812 3 -0.489821 17.5422 64.193
813 1 -3.00727 25.9808 67.7672
814 1 -1.44169 25.9181 60.2704
815 2 -1.41527 23.3263 58.4419
816 3 -1.33878 24.9234 58.3512
817 3 -1.5342 22.243 62.1386
818 3 -2.63662 22.6782 59.1961
819 1 -0.00328148 21.3261 57.3956
820 3 -0.0953433 22.6686 59.0095
821 1 1.49401 21.3932 64.8853
822 2 1.44399 23.945 66.7758
823 3 1.40445 22.4235 66.8533
824 3 1.55523 25.0439 63.1288
825 3 0.184505 24.6957 66.0498
826 3 2.7325 24.6035 66.1069
827 1 0.00401533 23.7225 62.6282
828 1 1.58349 23.6512 59.7547
829 2 1.60142 25.7091 61.6305
830 3 1.53339 27.2662 61.6921
831 3 1.44953 24.6207 68.2566
832 3 0.34892 24.9711 60.9037
833 1 -2.98115 23.6744 62.5676
834 3 2.87961 25.0103 61.0085
835 1 -1.48876 23.7461 65.4927
836 2 -1.56058 21.6489 63.6275
837 3 -1.60888 20.0599 63.5638
838 3 -1.46332 22.6853 56.9175
839 3 -2.83244 22.3344 64.3126
840 3 -0.248345 22.2801 64.2641
841 1 -2.84373 30.803 67.7434
842 1 -1.31321 30.7088 60.3569
843 2 -1.2908 28.1295 58.5098
844 3 -1.2484 29.6806 58.4334
845 3 -1.37782 27.0971 62.0837
846 3 -2.55063 27.4478 59.1569
847 1 0.258602 26.0859 57.4243
848 3 9.91653e-04 27.3903 59.0706
849 1 1.59363 26.1858 64.9312
850 2 1.59731 28.7809 66.7905
851 3 1.59879 27.2095 66.8264
852 3 1.66049 29.7685 63.0946
853 3 0.311598 29.4331 66.1226
854 3 2.86992 29.4137 66.0941
855 1 0.127069 28.4112 62.5284
856 1 1.72492 28.3962 59.6856
857 2 1.72831 30.5055 61.6216
858 3 1.75017 32.0406 61.7065
859 3 1.64271 29.4718 68.2462
860 3 0.427882 29.8727 60.9255
861 1 -2.93241 28.4124 62.6512
862 3 2.97562 29.7506 60.9783
863 1 -1.40839 28.4469 65.4441
864 2 -1.35308 26.3557 63.5674
865 3 -1.42014 24.8242 63.4846
866 3 -1.24677 27.4947 56.9663
867 3 -2.69777 27.0264 64.2522
868 3 -0.128662 27.0938 64.2475
869 1 -2.6998 35.5235 67.6471
870 1 -1.21695 35.4668 60.2132
871 2 -1.16539 32.8361 58.4111
872 3 -1.23138 34.4409 58.3425
873 3 -1.33059 31.7881 62.0524
874 3 -2.48972 32.1812 59.0258
875 1 0.255033 30.8208 57.4441
876 3 0.125272 32.2402 59.0826
877 1 1.67815 30.8956 64.8943
878 2 1.63333 33.5254 66.7407
879 3 1.60257 31.9617 66.7756
880 3 1.77983 34.576 63.0522
881 3 0.405505 34.2703 66.005
882 3 2.94529 34.146 66.095
883 1 0.261102 33.1491 62.6142
884 1 1.82682 33.1305 59.6755
885 2 1.76863 35.2691 61.6097
886 3 1.72685 36.8294 61.6349
887 3 1.69618 34.1669 68.2681
888 3 0.499142 34.5605 60.9785
889 1 -2.78522 33.2047 62.5276
890 3 3.00988 34.5984 60.8955
891 1 -1.31427 33.2119 65.4673
892 2 -1.32545 31.1475 63.5431
893 3 -1.33189 29.5804 63.5736
894 3 -1.18035 32.2416 56.9551
895 3 -2.61631 31.8509 64.1975
896 3 -0.0519796 31.8863 64.2368
897 1 -2.74523 40.3075 67.8732
898 1 -1.21358 40.2747 60.1319
899 2 -1.13627 37.5743 58.3071
900 3 -1.15925 39.1521 58.2177
901 3 -1.22656 36.5839 62.0915
902 3 -2.38114 36.9201 59.0636
903 1 0.370937 35.5687 57.3636
904 3 0.142988 36.9354 58.9739
905 1 1.82437 35.635 64.8178
906 2 1.86918 38.2854 66.7172
907 3 1.85722 36.7574 66.8001
908 3 1.74455 39.3666 63.0028
909 3 0.642352 38.9953 66.0122
910 3 3.17459 38.9856 66.1972
911 1 0.228628 37.9302 62.5098
912 1 1.78623 37.9226 59.6536
913 2 1.81609 40.0323 61.5162
914 3 1.87809 41.6134 61.5395
915 3 1.66474 38.9279 68.227
916 3 0.518488 39.3853 60.7863
917 1 -2.71179 37.9765 62.4831
918 3 3.03607 39.2572 60.872
919 1 -1.17353 37.9404 65.3762
920 2 -1.21842 35.8996 63.5825
921 3 -1.26136 34.3654 63.4717
922 3 -1.17675 36.9717 56.8401
923 3 -2.52392 36.6236 64.2399
924 3 0.0376953 36.6097 64.2593
925 1 -2.5842 44.9923 67.5788
926 1 -1.1602 44.9993 60.1836
927 2 -1.12865 42.3397 58.3497
928 3 -1.20229 43.9115 58.2244
929 3 -1.30866 41.333 62.0477
930 3 -2.38332 41.656 59.0188
931 1 0.36804 40.2962 57.2671
932 3 0.151795 41.7372 58.9716
933 1 1.83135 40.4465 64.8246
934 2 1.81753 42.9849 66.667
935 3 1.82298 41.4517 66.8696
936 3 1.80119 44.0122 62.9669
937 3 0.611769 43.6732 65.9672
938 3 3.08697 43.6288 65.9622
939 1 0.266974 42.5667 62.5222
940 1 1.90739 42.6346 59.5676
941 2 1.81092 44.679 61.5032
942 3 1.87172 46.2236 61.5955
943 3 1.90353 43.7044 68.1573
944 3 0.553994 43.9721 60.7799
945 1 -2.70233 42.7358 62.5272
946 3 3.09288 44.1111 60.7816
947 1 -1.17554 42.6465 65.3855
948 2 -1.26638 40.6461 63.5468
949 3 -1.26764 39.0955 63.4374
950 3 -1.10273 41.7123 56.8005
951 3 -2.48778 41.3368 64.245
952 3 0.0728224 41.3466 64.169
953 1 -2.55023 49.8546 67.5682
954 1 -1.05254 49.6229 60.215
955 2 -1.06098 47.0402 58.3659
956 3 -0.983223 48.6005 58.297
957 3 -1.17344 46.0226 62.0093
958 3 -2.35095 46.4029 59.0207
959 1 0.365719 45.0789 57.2902
960 3 0.193609 46.3741 58.9915
961 1 1.81743 45.1031 64.828
962 2 1.88455 47.7209 66.6778
963 3 1.90321 46.1779 66.7805
964 3 1.8912 48.7317 63.0072
965 3 0.619197 48.3815 66.0119
966 3 3.20972 48.4661 65.9637
967 1 0.333588 47.4146 62.523
968 1 1.89699 47.3021 59.6082
969 2 1.87061 49.4111 61.5182
970 3 1.91348 50.9419 61.6547
971 3 1.84809 48.4111 68.1305
972 3 0.624961 48.6999 60.8896
973 1 -2.65917 47.4165 62.516
974 3 3.14439 48.7153 60.8061
975 1 -1.15726 47.4703 65.3983
976 2 -1.12618 45.3776 63.5054
977 3 -1.20903 43.8263 63.5313
978 3 -1.10323 46.4323 56.8249
979 3 -2.39654 46.0665 64.1884
980 3 0.185902 46.0433 64.1761
981 1 -2.43515 54.5568 67.665
982 1 -1.05767 54.4002 60.2702