ITEM: TIMESTEP
2000
ITEM: NUMBER OF ATOMS
30660
ITEM: BOX BOUNDS xy xz yz pp pp pp
0.0 8.9688 2.9896
0.0 168.75 0.0
0.0 414.274 0.0
ITEM: ATOMS id type x y z
1 3 0.715617 -1.42674 47.6013
2 3 2.36124 0.443448 49.3527
3 3 3.76948 -1.27207 47.7921
4 2 3.59246 5.68034 48.1583
5 1 0.801699 0.658054 48.2365
6 3 0.935881 2.75637 48.4171
7 3 4.02729 -1.17964 50.39
8 1 2.227 -2.68853 47.6683
9 1 -0.783662 -2.60797 47.5517
10 3 2.63651 2.84796 53.6106
11 1 3.96814 2.69758 49.4708
12 3 0.91545 5.15907 49.7691
13 2 3.8277 7.15373 52.8728
14 1 2.44045 5.40862 51.1347
15 3 0.912787 5.15935 52.6951
16 3 3.96098 1.07404 52.0536
17 1 -0.443231 0.197299 51.0528
18 2 1.06845 9.15452 49.238
19 1 0.907102 2.98613 52.4826
20 1 3.86942 4.4201 54.4851
21 1 2.38451 -0.117388 51.3527
22 3 0.934983 7.08279 57.2514
23 2 6.02568 -1.04453 57.0788
24 2 0.953104 0.0343811 53.6978
25 1 0.846357 4.91924 57.011
26 3 2.52684 4.60474 58.2981
27 1 -0.497544 2.25119 55.5503
28 1 4.08637 6.38961 59.0425
29 3 0.69758 -2.12119 61.6997
30 3 2.34125 3.31241 50.5832
31 1 -0.609591 5.36807 51.2157
32 1 2.38028 7.43084 55.7798
33 3 -0.340419 3.23575 50.6275
34 2 3.74117 -0.10242 61.7529
35 1 2.41303 1.86514 55.8064
36 2 0.905028 1.72056 58.0934
37 3 0.855292 7.30676 54.3133
38 1 0.931748 6.9988 61.4737
39 1 3.35207 -2.83549 60.3921
40 3 3.86783 3.25173 56.4458
41 3 0.890109 -0.0127863 66.1512
42 1 4.05651 8.52554 63.3932
43 3 2.63247 6.81081 62.5453
44 1 -0.547649 3.88682 60.1781
45 3 2.93103 -1.35604 59.1123
46 3 3.92282 0.97946 54.7696
47 3 0.924526 0.994403 52.3837
48 3 -0.34619 5.26612 55.1207
49 3 2.15821 5.33152 55.1448
50 2 3.85975 2.07582 66.1255
51 1 3.86717 -0.859396 67.9537
52 1 2.38536 3.73471 60.165
53 2 0.870503 3.9264 62.4961
54 1 0.939624 9.01547 65.8326
55 1 2.34407 0.28 64.6273
56 1 -0.569464 7.42805 55.7964
57 3 3.96249 5.11901 60.8637
58 3 0.775416 2.25371 70.3987
59 3 2.6185 8.9565 66.9629
60 1 -0.536651 5.89295 64.529
61 3 0.762869 0.10769 63.1721
62 1 3.13168 -1.18129 71.1246
63 3 3.97173 2.71704 59.1005
64 1 1.23548 -1.04336 60.0978
65 3 0.76822 2.82958 56.9366
66 3 -0.182855 7.42802 59.6684
67 3 2.33637 7.4153 59.5264
68 2 3.80879 4.1772 70.5155
69 1 3.90656 1.32677 72.3347
70 1 2.37987 5.87837 64.5826
71 3 4.91108 -0.214145 71.1882
72 2 0.84798 5.96446 66.876
73 1 2.37603 2.31462 69.0848
74 3 3.88219 7.27803 65.2321
75 3 0.876116 4.16431 74.8509
76 3 -0.485546 -1.8245 64.1419
77 3 2.06959 -1.8198 64.1032
78 1 -0.632933 7.95359 68.8871
79 1 0.905948 1.98899 74.7143
80 3 0.746202 2.12591 67.5876
81 3 3.91582 4.88557 63.5361
82 1 -0.60964 0.27257 64.6822
83 3 0.915274 4.87392 61.2256
84 3 3.38563 -2.20503 69.5001
85 2 3.93415 6.26419 74.8447
86 1 3.93906 3.54974 76.6422
87 1 0.148178 -0.428091 72.8683
88 1 2.40636 8.05317 68.9871
89 2 0.980121 8.03556 71.2173
90 3 2.56995 1.8875 75.7392
91 1 2.40521 4.51949 73.2572
92 3 0.90014 6.20697 79.2528
93 3 -0.0671539 -0.0493969 68.7185
94 3 2.37238 0.360417 68.4313
95 1 0.832216 4.06221 79.0294
96 3 0.830868 4.35516 71.8686
97 3 3.79801 6.98069 67.9043
98 1 -0.602169 2.51451 68.9608
99 2 0.788064 -1.1769 75.6896
100 1 3.68233 -1.81496 74.2872
101 3 0.984432 7.00408 65.6288
102 3 3.98132 0.195508 74.0906
103 2 3.9384 8.37547 79.2641
104 1 3.90068 5.53858 80.9439
105 1 -0.757867 0.885916 77.7983
106 3 2.50448 3.90417 80.243
107 1 2.37916 6.53784 77.8215
108 3 0.823512 8.2074 83.7319
109 3 -0.283503 2.20838 72.7945
110 3 2.20478 2.4145 72.7555
111 3 0.977363 6.40198 76.2755
112 1 0.842611 6.01602 83.5301
113 3 4.00833 9.00247 72.3664
114 2 6.25083 0.0555357 83.4703
115 1 -0.531716 4.54227 73.3444
116 1 2.23901 1.01883 77.6861
117 2 0.857007 0.956947 80.079
118 3 0.924264 9.038 69.964
119 3 3.73365 2.25935 78.4205
120 3 0.554713 -0.908895 88.0912
121 1 3.86362 7.64684 85.4889
122 1 -0.593473 3.05288 82.0397
123 3 2.55756 5.81847 84.5837
124 1 2.41539 8.47739 82.2108
125 3 3.77633 -0.0947292 76.7256
126 3 -0.382768 4.53116 77.1912
127 3 0.883027 -0.0595164 74.5468
128 3 2.21584 4.46347 77.2392
129 3 0.862695 8.44011 80.7599
130 1 0.837225 8.11167 87.9341
131 2 3.64369 1.16525 88.1538
132 1 3.60796 -1.63927 89.9034
133 1 -0.585713 6.54141 77.6873
134 1 2.37498 2.92418 82.1769
135 2 0.991945 2.87218 84.4769
136 1 4.94858 -0.756591 86.6677
137 3 3.83525 4.30461 82.7909
138 3 0.649252 1.15185 92.4948
139 1 -0.530634 5.11515 86.4692
140 3 2.59193 8.06191 89.0018
141 3 3.5207 -0.127575 85.4229
142 3 3.83401 1.97967 81.1098
143 1 0.686836 -1.01702 92.2987
144 3 -0.368646 6.46646 81.6343
145 3 0.778022 2.00666 78.7644
146 3 2.16625 6.50302 81.6625
147 2 3.66938 3.26399 92.4742
148 1 3.73814 0.450543 94.2046
149 1 -0.632403 8.49023 82.1941
150 2 0.735618 4.93079 88.8939
151 1 2.442 4.84449 86.6645
152 3 4.906 -1.25222 93.4086
153 1 2.19485 1.48652 90.9944
154 3 3.84222 6.35671 87.225
155 3 0.684257 3.25631 96.9167
156 1 -0.795989 6.99169 91.0016
157 3 0.595202 1.3508 89.5264
158 3 3.92321 3.92386 85.5294
159 1 0.61568 1.07049 96.7875
160 3 -0.416054 8.56234 86.0626
161 3 0.732864 3.94902 83.3176
162 1 2.11861 -0.671451 86.7742
163 3 2.15129 8.46815 86.0601
164 2 3.73365 5.32186 96.8672
165 1 3.70355 2.45323 98.5801
166 2 0.792936 7.06893 93.281
167 3 2.34153 0.790787 97.8036
168 3 3.76162 8.3339 91.6884
169 1 2.23164 7.21017 90.8971
170 1 2.19697 3.53498 95.4347
171 3 0.772854 5.15937 101.285
172 1 -0.613164 9.1512 95.292
173 3 -0.625117 -0.612237 90.5102
174 3 1.86832 -0.610196 90.395
175 3 0.718292 3.40241 93.9646
176 3 3.70943 6.04148 89.8703
177 1 0.663176 3.03604 101.11
178 3 0.866163 5.98426 87.6323
179 1 -0.818395 1.56154 91.0233
180 3 3.67375 -0.777099 96.1081
181 2 3.74223 7.48402 101.181
182 1 3.78679 4.54972 102.971
183 2 0.898265 9.18077 97.6345
184 3 2.41944 2.81114 102.142
185 1 -0.849168 -0.090311 99.7969
186 1 2.3795 9.17458 95.3418
187 1 2.27473 5.54243 99.7839
188 3 0.793789 7.26132 105.544
189 3 -0.55932 1.41721 94.8883
190 3 1.98394 1.47046 94.8317
191 3 0.689977 5.41386 98.3443
192 3 3.87619 8.12574 94.3241
193 1 0.664904 5.03183 105.443
194 3 0.76188 8.11275 92.0347
195 1 -0.706183 3.57386 95.4856
196 2 0.686309 -0.188732 102.096
197 3 3.71114 1.22479 100.449
198 1 2.15991 -0.106477 99.7865
199 2 3.83462 9.48044 105.531
200 1 3.7865 6.56805 107.346
201 1 -0.891854 1.94652 104.195
202 3 2.47507 4.95802 106.428
203 1 2.33645 7.57646 104.131
204 3 0.796187 9.41267 109.869
205 3 3.65781 -1.07652 98.7477
206 3 -0.471638 3.42874 99.319
207 3 0.667157 -1.04787 96.4797
208 3 2.07061 3.48582 99.2142
209 3 0.774053 7.43839 102.61
210 1 0.682545 7.24437 109.673
211 2 3.56009 0.189425 109.947
212 1 -0.669716 5.62421 99.8046
213 2 0.771701 1.90883 106.452
214 3 3.74126 3.25053 104.811
215 1 2.21697 1.94561 104.152
216 3 0.529303 0.177322 114.312
217 1 3.83238 8.70984 111.7
218 1 -0.799855 4.07174 108.473
219 3 2.41936 6.97785 110.78
220 1 2.32956 9.66945 108.518
221 3 3.61506 0.856189 103.114
222 3 -0.454351 5.50273 103.625
223 3 0.688123 0.910667 100.849
224 3 2.11594 5.59283 103.504
225 3 0.837443 9.50676 106.963
226 1 0.804838 9.18136 114.109
227 2 3.61477 2.31216 114.231
228 1 -0.665667 7.58753 104.122
229 1 3.56656 -0.495682 116.066
230 2 0.738113 4.08 110.765
231 3 3.76761 5.34238 109.199
232 1 2.2083 4.10679 108.504
233 1 2.10139 0.451034 112.85
234 3 0.63351 2.28242 118.668
235 3 2.47769 9.03718 115.265
236 1 -0.68418 6.13683 112.802
237 3 0.584542 0.29422 111.409
238 3 3.65383 3.0504 107.463
239 1 0.490397 7.34378e-04 118.446
240 3 -0.437107 7.55012 107.9
241 3 0.755365 2.97143 105.191
242 3 2.10215 7.51314 107.886
243 2 3.63988 4.30199 118.629
244 1 -0.707024 9.62965 108.382
245 1 3.61605 1.54661 120.484
246 2 0.734895 6.03231 115.112
247 3 2.27026 0.0246988 119.591
248 1 2.26024 6.13126 112.783
249 3 3.73192 7.39972 113.506
250 1 2.18644 2.50918 117.193
251 3 0.636378 4.37895 123.083
252 1 -0.751725 8.16824 117.15
253 3 0.676308 2.39421 115.686
254 3 3.76887 5.0726 111.787
255 1 0.587326 2.20465 122.827
256 3 -0.393001 9.68163 112.329
257 3 0.735471 5.1938 109.569
258 3 2.12221 9.71839 112.202
259 1 -0.907458 0.464133 112.864
260 2 3.68631 6.36922 123.09
261 1 3.65648 3.73669 124.851
262 2 0.692926 8.14763 119.544
263 3 2.323 1.97217 123.994
264 1 -0.95495 -0.917396 121.549
265 1 2.26694 8.15189 117.254
266 3 3.70726 9.53539 117.884
267 1 2.14804 4.6256 121.539
268 3 0.795802 6.50647 127.423
269 3 -0.629186 0.537944 116.71
270 3 1.86592 0.441472 116.65
271 3 0.638984 4.44667 120.137
272 3 3.76755 7.08122 116.156
273 1 0.617179 4.31893 127.282
274 3 0.781376 7.10128 113.886
275 1 -0.868812 2.52997 117.245
276 2 0.533286 -0.890345 123.939
277 2 3.73292 8.52514 127.427
278 1 2.0246 -0.961837 121.647
279 3 3.61402 0.372914 122.28
280 1 3.80247 5.79189 129.272
281 3 2.38121 4.18392 128.38
282 1 -0.856707 1.24135 125.98
283 1 2.26912 6.72885 125.979
284 3 0.740435 8.51184 131.848
285 3 -0.591905 2.54607 121.024
286 3 1.92912 2.51565 121.056
287 3 0.737016 6.61688 124.457
288 3 3.76235 9.29344 120.575
289 1 0.805751 6.35751 131.699
290 3 0.711899 9.1898 118.204
291 1 -0.776035 4.66511 121.632
292 2 3.40744 -0.679887 131.916
293 2 0.583197 1.17745 128.269
294 1 2.10329 1.15846 125.941
295 3 3.64394 2.53481 126.636
296 3 0.438057 -0.662699 136.263
297 1 3.76195 7.88254 133.588
298 3 2.37404 6.17661 132.79
299 1 -0.877668 3.28954 130.404
300 1 2.36245 8.80723 130.355
301 3 3.64205 0.116075 124.915
302 3 -0.565389 4.72857 125.401
303 3 0.481465 0.186967 122.684
304 3 1.97575 4.60958 125.425
305 3 0.760223 8.65632 128.909
306 1 0.680272 8.47461 135.976
307 1 -0.706134 6.79571 125.974
308 2 3.4775 1.42531 136.284
309 2 0.741015 3.21226 132.654
310 1 2.1435 3.20012 130.321
311 3 3.65099 4.55981 131.053
312 1 1.95985 -0.358913 134.748
313 3 0.388689 1.41964 140.704
314 1 3.93643 10.0212 137.926
315 3 2.29953 8.17872 137.175
316 1 -0.797132 5.21642 134.768
317 3 0.464478 -0.439123 133.268
318 1 0.316867 -0.713757 140.493
319 3 3.64061 2.20674 129.278
320 3 0.614097 2.22403 127.041
321 3 -0.500184 6.70203 129.81
322 3 2.07946 6.73631 129.774
323 1 -0.723257 8.77864 130.369
324 2 3.47481 3.56113 140.609
325 2 0.661839 5.30654 137.076
326 1 3.50007 0.818944 142.428
327 3 1.98926 -0.981279 141.605
328 1 2.13002 5.45259 134.749
329 3 3.63088 6.65761 135.427
330 1 1.88567 1.83262 139.173
331 3 0.516048 3.55838 145.023
332 1 -0.814439 7.4796 139.054
333 3 0.487443 1.6288 137.731
334 1 0.366302 1.40492 144.885
335 3 3.72471 4.27452 133.708
336 3 -0.447558 8.86642 134.189
337 3 0.694441 4.27859 131.4
338 3 2.05402 8.83211 134.212
339 1 -1.09275 -0.326086 134.819
340 2 3.4733 5.66712 145.035
341 2 0.651674 7.40244 141.44
342 1 3.48379 2.83001 146.809
343 3 2.13171 1.20659 145.969
344 1 2.19409 7.31962 139.195
345 3 3.65613 8.64792 139.865
346 1 2.00279 3.83991 143.543
347 3 0.413102 5.57296 149.482
348 1 -0.83793 9.44544 143.533
349 3 -0.756686 -0.370437 138.629
350 3 1.77452 -0.327797 138.607
351 1 0.419765 3.41 149.3
352 3 0.553027 3.75904 142.072
353 3 3.73722 6.35991 138.095
354 3 0.568364 6.34807 135.854
355 1 -1.03025 1.71923 139.191
356 2 3.47319 7.60833 149.495
357 3 3.37087 -0.516958 144.252
358 2 0.632738 9.39088 145.915
359 3 2.13439 3.18952 150.377
360 1 -1.06354 0.306256 147.904
361 1 3.54029 4.86164 151.231
362 1 2.17468 9.3543 143.666
363 1 1.93529 5.94071 148.053
364 3 0.523298 7.76818 153.743
365 3 -0.782861 1.85586 143.075
366 3 1.73085 1.79508 142.983
367 1 0.608563 5.42816 153.511
368 3 0.587574 5.72297 146.498
369 3 3.5927 8.38127 142.491
370 3 0.592364 8.46643 140.197
371 1 -0.961796 3.92468 143.551
372 2 3.55174 9.71709 153.862
373 2 0.479115 0.273442 150.259
374 1 1.92054 0.180755 147.997
375 3 3.42498 1.60392 148.636
376 1 -0.92917 2.27373 152.36
377 3 2.23766 5.24198 154.729
378 1 3.58786 6.98794 155.643
379 1 2.04063 7.95446 152.348
380 3 0.517603 9.71544 158.224
381 3 3.35417 -0.763679 146.906
382 3 0.366251 -0.745837 144.652
383 3 -0.739973 3.79004 147.366
384 3 1.79965 3.83856 147.476
385 3 0.543935 7.81414 150.948
386 1 0.554126 7.57855 158.025
387 1 -1.01066 5.7873 147.983
388 2 3.51626 0.503822 158.294
389 2 0.523599 2.39042 154.658
390 1 2.02895 2.23639 152.386
391 3 3.55634 3.63004 153.023
392 3 0.446325 0.481192 162.601
393 1 -0.962679 4.48227 156.699
394 3 2.21001 7.28654 159.115
395 1 3.55084 8.98454 159.955
396 1 2.15029 10.0331 156.839
397 3 3.46364 1.24843 151.297
398 3 0.453829 1.29547 149.029
399 3 -0.81803 5.92298 151.833
400 3 1.73495 5.82065 151.815
401 1 0.523415 9.55912 162.469
402 3 0.620505 9.94026 155.22
403 1 -0.977492 7.98218 152.391
404 2 3.4565 2.59163 162.626
405 2 0.518037 4.36456 159.015
406 1 2.05006 4.42621 156.682
407 1 3.52129 -0.204388 164.409
408 3 3.55895 5.75566 157.342
409 1 1.95673 0.768473 161.144
410 3 0.462814 2.5852 167.053
411 3 2.29497 9.37084 163.484
412 1 -0.945129 6.39863 161.091
413 3 0.482132 0.660769 159.638
414 1 0.405904 0.300761 166.802
415 3 3.59247 3.39776 155.681
416 3 -0.641846 7.99787 156.171
417 3 0.545239 3.37141 153.396
418 3 1.85595 8.01875 156.172
419 1 -0.898649 10.054 156.748
420 2 3.52955 4.64759 167.008
421 2 0.519547 6.38252 163.487
422 3 2.06976 0.137861 167.923
423 1 1.99296 6.46658 161.093
424 1 3.55814 1.87824 168.717
425 3 3.54337 7.71524 161.806
426 1 1.99376 2.93736 165.498
427 3 0.488946 4.64706 171.4
428 1 -1.06268 8.45677 165.513
429 1 0.495443 2.38451 171.181
430 3 0.477255 2.69559 164.041
431 3 3.54764 5.36858 160.091
432 3 -0.727183 9.90912 160.552
433 3 0.572349 5.44976 157.723
434 3 1.80729 10.0325 160.539
435 1 -1.01021 0.756202 161.13
436 2 3.45654 6.67301 171.383
437 2 0.572966 8.47844 167.818
438 3 2.18271 2.24755 172.358
439 1 2.01213 8.48011 165.433
440 1 3.37621 3.86495 173.169
441 3 3.44927 9.76915 166.174
442 1 1.94939 4.93317 169.986
443 3 0.529813 6.6586 175.728
444 1 -1.01588 10.5254 169.8
445 3 -0.800832 0.683882 165.016
446 3 1.78049 0.776762 164.944
447 1 0.473968 4.45964 175.586
448 3 0.512134 4.77981 168.509
449 3 3.53925 7.37027 164.437
450 3 0.569521 7.39564 162.161
451 1 -0.934449 2.82062 165.551
452 2 3.62268 8.70807 175.731
453 3 3.45356 0.581399 170.618
454 2 0.395346 10.4927 172.197
455 3 2.19589 4.27802 176.59
456 1 -1.00143 1.30241 174.209
457 1 1.94844 10.5069 169.924
458 1 3.50536 5.95043 177.626
459 1 2.0633 6.88051 174.246
460 3 0.522671 8.70787 180.172
461 3 -0.774859 2.88858 169.433
462 3 1.77007 2.81774 169.438
463 1 0.433547 6.45614 179.928
464 3 0.502431 6.83605 172.772
465 3 3.43567 9.45984 168.883
466 3 0.583503 9.5204 166.533
467 1 -0.991272 4.87708 169.981
468 2 3.4124 10.8475 180.19
469 2 0.400644 1.26487 176.642
470 1 2.00954 1.29441 174.407
471 3 3.45274 2.59649 175.005
472 3 2.17205 6.38859 181.027
473 1 -1.09635 3.31022 178.674
474 1 3.35792 8.08217 181.937
475 1 2.10031 8.92077 178.706
476 3 0.472288 10.7717 184.609
477 3 3.39193 0.26263 173.227
478 3 -0.787644 4.82879 173.818
479 3 0.4879 0.332961 170.932
480 3 1.75596 4.91613 173.733
481 3 0.479929 8.9136 177.194
482 1 0.314346 8.68802 184.335
483 1 -1.02021 6.94367 174.216
484 2 3.29286 1.63846 184.561
485 2 0.420322 3.3728 180.992
486 1 1.87214 3.37958 178.736
487 3 3.42454 4.73213 179.332
488 1 1.71001 -0.0924023 183.066
489 3 0.234266 1.59646 188.911
490 3 2.08243 8.57999 185.512
491 1 -1.07172 5.603 183.073
492 1 3.30755 10.1014 186.346
493 3 0.248201 -0.313518 181.654
494 3 3.34306 2.29577 177.696
495 3 -0.69882 6.9466 178.039
496 3 0.524457 2.31132 175.368
497 3 1.8393 6.98132 178.038
498 1 0.287332 10.7135 188.831
499 1 -0.974332 9.07239 178.688
500 2 3.15036 3.74674 188.842
501 2 0.377789 5.60434 185.408
502 1 1.86485 5.53232 182.994
503 1 3.2014 0.92063 190.704
504 3 3.34405 6.90474 183.778
505 1 1.70451 1.96018 187.366
506 1 -1.24123 7.61518 187.438
507 3 0.206762 3.7382 193.241
508 3 1.98108 10.5542 189.826
509 1 0.227968 1.51715 193.115
510 3 0.226926 1.78416 185.986
511 3 3.38407 4.46203 182.029
512 3 -0.771955 9.06668 182.514
513 3 0.407389 4.40545 179.717
514 3 1.70086 9.0623 182.528
515 1 -1.32319 -0.24609 183.124
516 2 3.19817 5.85762 193.248
517 2 0.295815 7.5668 189.794
518 3 1.91291 1.31106 194.233
519 1 1.84293 7.61723 187.529
520 1 3.19039 3.09218 195.119
521 3 3.34107 8.88879 188.137
522 1 1.68357 4.09771 191.86
523 1 -1.20034 9.61278 191.803
524 3 0.283792 5.79729 197.615
525 3 -1.00805 -0.13025 186.974
526 3 1.49228 -0.151639 186.904
527 3 0.177405 3.8738 190.313
528 1 0.309159 3.56349 197.448
529 3 3.19046 6.54199 186.402
530 3 0.419695 6.63701 184.147
531 1 -1.20446 1.98998 187.464
532 2 3.27649 7.86508 197.702
533 2 0.275981 9.74144 194.158
534 1 -1.33121 0.410633 196.195
535 3 1.97764 3.43946 198.639
536 1 1.84384 9.67294 191.873
537 1 3.31312 5.12106 199.415
538 3 3.25534 10.9846 192.539
539 1 1.72763 6.19176 196.121
540 3 0.375136 7.74672 201.995
541 3 -1.1086 1.9838 191.217
542 3 1.4907 1.93999 191.251
543 3 0.171612 5.9421 194.698
544 1 0.312081 5.62833 201.894
545 3 3.19367 8.62985 190.723
546 3 0.299908 8.65893 188.53
547 1 -1.27758 4.01195 191.794
548 2 3.27237 9.9128 202.05
549 2 0.282334 0.462897 198.49
550 1 1.69611 0.491788 196.129
551 3 3.23087 1.88189 196.836
552 1 -1.17779 2.54092 200.494
553 3 2.04285 5.38615 203.039
554 1 3.34871 7.1169 203.823
555 1 1.82894 8.11065 200.567
556 3 6.20032 9.90568 206.359
557 3 -1.10326 4.02179 195.629
558 3 1.47302 3.99871 195.588
559 3 0.321178 7.98949 199.084
560 1 6.25714 7.81432 206.214
561 3 3.35204 10.7975 195.133
562 3 0.285723 10.7365 192.825
563 1 -1.28145 5.98522 196.18
564 2 9.21012 0.75639 206.354
565 2 0.299814 2.46813 202.855
566 1 1.79118 2.56603 200.57
567 3 3.3078 3.77797 201.287
568 3 7.97908 7.59938 207.272
569 1 -1.21456 4.64639 205.019
570 3 6.20909 0.842494 210.782
571 1 9.28109 9.33459 208.102
572 1 1.84173 10.086 204.964
573 3 -1.00731 6.12532 199.98
574 3 3.27085 1.47776 199.507
575 3 0.255707 1.50266 197.163
576 3 1.54248 5.96153 200.049
577 1 6.24571 9.83657 210.532
578 3 0.412625 10.0419 203.387
579 1 -1.22057 8.19547 200.602
580 2 9.21421 2.90999 210.769
581 2 6.2741 4.61527 207.308
582 1 1.77239 4.61629 204.971
583 1 9.24081 0.0482631 212.505
584 3 9.33806 5.99118 205.664
585 3 7.98394 9.60511 211.681
586 1 4.80123 6.75234 209.275
587 1 7.71916 1.15015 209.217
588 3 6.22318 2.8991 215.177
589 1 6.18137 0.65586 214.951
590 3 6.17399 0.946069 207.856
591 3 -0.982957 8.18461 204.336
592 3 3.3627 3.49743 203.884
593 3 0.264181 3.5845 201.611
594 3 1.56072 8.05012 204.358
595 1 -1.10156 10.3202 204.881
596 2 9.19172 4.93804 215.166
597 2 6.23477 6.68263 211.685
598 3 7.89861 0.39375 216.126
599 1 7.78006 6.78717 209.357
600 1 9.28597 2.19166 216.933
601 3 9.28308 8.09261 209.952
602 1 4.77091 8.83974 213.718
603 1 7.74008 3.152 213.801
604 3 6.27794 4.91588 219.557
605 1 6.17388 2.79028 219.359
606 3 6.29615 3.10405 212.23
607 3 4.95585 10.2247 208.749
608 3 9.25559 5.66265 208.329
609 3 6.28531 5.63531 205.971
610 3 7.55471 10.2175 208.706
611 1 4.69149 1.16031 209.292
612 2 9.14019 6.98372 219.562
613 2 6.25849 8.73673 216.052
614 3 7.9301 2.5875 220.506
615 1 7.66815 8.76322 213.7
616 1 9.18 4.22322 221.389
617 1 4.63707 10.8627 218.154
618 3 9.276 10.0494 214.411
619 1 7.75419 5.27383 218.075
620 3 6.18756 6.99327 223.969
621 3 4.86703 1.16427 213.16
622 3 7.45373 1.04913 213.191
623 1 6.24932 4.80445 223.711
624 3 6.2303 5.06497 216.606
625 3 9.27515 7.75826 212.678
626 3 6.23058 7.76455 210.424
627 1 4.73053 3.17826 213.686
628 2 9.13104 9.03107 223.953
629 2 6.16226 10.8836 220.389
630 3 7.91227 4.702 224.884
631 1 4.72159 1.77357 222.452
632 3 9.24416 1.00308 218.728
633 1 7.70382 10.8558 218.074
634 1 9.10734 6.27438 225.729
635 1 7.65875 7.33634 222.4
636 3 6.08896 9.12511 228.39
637 3 4.9696 3.13983 217.566
638 3 7.5348 3.15929 217.487
639 3 6.17397 7.15885 220.959
640 1 6.09905 6.96695 228.064
641 3 9.16753 9.78219 217.031
642 3 6.29198 9.83354 214.768
643 1 4.73493 5.24917 218.115
644 2 9.07955 11.0858 228.361
645 2 6.14375 1.66824 224.729
646 1 7.80311 1.69553 222.456
647 3 7.90972 6.75175 229.219
648 1 4.59528 3.67749 226.807
649 3 9.20788 3.02153 223.16
650 1 8.98005 8.43093 230.132
651 1 7.55118 9.35793 226.878
652 3 6.02923 11.1226 232.803
653 3 4.9105 5.20785 221.894
654 3 7.46414 5.23007 221.95
655 3 9.21368 0.63317 221.366
656 3 6.16539 0.694529 219.11
657 3 6.09588 9.22576 225.385
658 1 6.00016 8.93787 232.596
659 1 4.65808 7.24441 222.424
660 2 9.14483 1.96918 232.576
661 2 6.16971 3.77125 229.139
662 1 7.58655 3.82136 226.807
663 1 4.64619 5.85455 231.152
664 3 7.78794 8.74296 233.709
665 3 9.08897 5.04266 227.484
666 3 6.06493 1.99656 237.028
667 1 9.05895 10.4665 234.585
668 1 7.55577 11.436 231.26
669 3 4.85414 7.24725 226.316
670 3 7.45654 7.32356 226.322
671 3 9.12416 2.78203 225.801
672 3 6.18784 2.73795 223.496
673 1 6.18541 11.0938 236.976
674 3 6.11491 11.3849 229.811
675 1 4.64501 9.35932 226.892
676 2 9.03164 4.06528 237.009
677 2 6.04481 5.86948 233.498
678 1 7.6096 5.83836 231.153
679 3 7.80961 10.8168 238.064
680 1 4.44366 7.84171 235.679
681 1 9.05434 1.34926 238.851
682 3 9.07888 7.18842 231.866
683 1 7.59565 2.3052 235.48
684 3 6.23346 3.99011 241.426
685 3 6.04951 2.09522 234.053
686 1 6.31059 1.86907 241.247
687 3 4.81338 9.43867 230.682
688 3 7.3915 9.42988 230.73
689 3 9.16207 4.7573 230.169
690 3 6.04297 4.7819 227.84
691 1 4.52923 11.5034 231.253
692 2 9.24958 6.09427 241.435
693 2 6.09339 7.90615 237.917
694 3 8.07435 1.76083 242.328
695 1 7.6174 7.89911 235.659
696 1 4.68494 9.97206 240.026
697 1 9.2292 3.30807 243.318
698 3 9.11241 9.17174 236.386
699 1 7.62808 4.44095 239.945
700 3 6.16035 6.07746 245.859
701 1 6.33162 3.84994 245.624
702 3 6.20029 4.22636 238.442
703 3 4.75116 11.4382 235.088
704 3 7.2937 11.3752 235.166
705 3 9.10672 6.78971 234.508
706 3 6.05744 6.90792 232.238
707 1 4.59011 2.20159 235.582
708 2 9.1021 8.12 245.875
709 2 6.08656 10.018 242.311
710 3 7.99426 3.67229 246.81
711 1 4.73343 0.711898 244.454
712 1 7.63624 9.98642 240.055
713 1 9.12578 5.37305 247.672
714 3 9.09131 11.3546 240.714
715 1 7.55659 6.42971 244.344
716 3 6.10059 8.16231 250.265
717 3 4.85846 2.28926 239.341
718 3 7.38895 2.22387 239.399
719 1 6.19178 5.94676 250.1
720 3 6.20159 6.21327 242.869
721 3 9.21008 8.93568 238.976
722 3 6.03546 8.93724 236.672
723 1 4.69865 4.38878 239.949
724 2 9.06341 10.2215 250.247
725 2 6.32419 0.723465 246.663
726 3 7.93455 5.77157 251.214
727 1 4.77627 2.77075 248.758
728 1 7.69801 0.779373 244.317
729 3 9.22856 2.11515 245.086
730 1 9.01348 7.48189 251.984
731 1 7.65717 8.34624 248.795
732 3 5.97428 10.146 254.676
733 3 4.90314 4.34321 243.805
734 3 7.45465 4.2507 243.845
735 1 6.05381 7.97126 254.486
736 3 6.11671 8.23041 247.302
737 3 9.11198 10.982 243.346
738 3 6.1062 11.0259 241.058
739 1 4.71558 6.40317 244.437
740 2 9.2256 1.00181 254.676
741 2 6.22736 2.83039 251.102
742 1 4.69895 4.87197 253.141
743 3 7.81178 7.82325 255.624
744 1 7.78 2.76349 248.847
745 3 9.20642 4.0887 249.478
746 3 6.25064 0.937541 259.068
747 1 8.96345 9.52192 256.391
748 1 7.48405 10.5377 253.16
749 3 4.84829 6.3074 248.219
750 3 7.41813 6.30912 248.26
751 3 9.27657 1.72934 247.699
752 1 6.21846 10.0362 258.854
753 3 6.02613 10.3915 251.728
754 3 6.21968 1.79101 245.442
755 1 4.54579 8.38992 248.727
756 2 9.1931 3.06382 259.064
757 2 6.02089 4.92736 255.571
758 1 4.66071 7.03276 257.505
759 3 7.83659 9.90379 259.959
760 1 7.60493 4.90287 253.163
761 3 9.11022 6.24728 253.889
762 1 7.69976 1.33064 257.608
763 3 6.1506 3.07672 263.5
764 1 8.9545 11.4807 260.799
765 1 6.35547 0.941619 263.314
766 3 6.28969 1.21254 256.114
767 3 4.7724 8.46009 252.613
768 3 7.34704 8.46304 252.585
769 3 9.17812 3.86172 252.173
770 3 6.2285 3.85226 249.839
771 1 4.39262 10.5014 253.161
772 2 9.22548 5.14877 263.417
773 2 6.09373 6.92344 259.928
774 3 7.80626 12.0489 264.362
775 1 4.51922 8.95998 261.963
776 1 7.56574 6.87906 257.632
777 1 9.23245 2.42996 265.285
778 3 9.15389 8.24651 258.218
779 1 7.61892 3.41155 261.988
780 3 6.27621 5.30655 267.792
781 1 6.28498 2.91222 267.623
782 3 6.16576 3.24544 260.55
783 3 4.66463 10.4979 257.021
784 3 7.20455 10.4706 257.092
785 3 9.09717 5.95039 256.579
786 1 4.72629 1.2516 257.59
787 3 6.04532 5.9469 254.279
788 2 9.22632 7.32434 267.831
789 2 6.14021 9.02868 264.246
790 3 7.96688 2.80497 268.761
791 1 4.70954 11.16 266.345
792 1 7.47981 9.11321 261.945
793 1 9.24982 4.5426 269.68
794 3 9.08627 10.3772 262.634
795 1 7.75532 5.49278 266.348
796 3 6.20985 7.27533 272.215
797 3 4.90692 1.27227 261.473
798 3 7.47873 1.3427 261.447
799 3 6.19538 5.31438 264.842
800 1 6.31848 5.10238 272.054
801 3 9.08396 7.90952 260.909
802 1 4.68252 3.406 261.992
803 3 6.13618 7.97375 258.692
804 2 9.17727 9.33646 272.186
805 2 6.26161 11.1711 268.642
806 3 8.01702 4.95968 273.117
807 1 4.7949 1.96212 270.77
808 1 7.76591 11.1048 266.381
809 3 9.20919 1.16743 267.104
810 1 9.18789 6.64862 274.027
811 1 7.70561 7.60667 270.746
812 3 6.21895 9.28145 276.604
813 3 4.86267 3.50179 265.822
814 3 7.44586 3.40629 265.838
815 3 6.21809 7.42241 269.257
816 1 6.1626 7.16385 276.35
817 3 9.10584 10.0783 265.282
818 3 6.07561 10.0973 262.978
819 1 4.74435 5.5454 266.347
820 2 9.26992 11.4675 276.576
821 2 6.32505 1.97451 273.066
822 3 7.93467 7.04723 277.51
823 1 4.72149 3.99147 275.092
824 1 7.6932 1.97174 270.749
825 3 9.21096 3.36843 271.401
826 1 9.23724 8.68281 278.335
827 1 7.72298 9.64114 275.115
828 3 6.18403 11.398 280.958
829 3 5.0467 5.42648 270.179
830 3 7.58016 5.55677 270.2
831 3 6.23182 9.47681 273.672
832 1 6.12024 9.25811 280.8
833 3 6.20106 0.925295 267.339
834 3 9.17474 12.1936 269.708
835 1 4.71615 7.51917 270.715
836 2 9.29269 2.30571 280.976
837 2 6.24796 4.0526 277.449
838 3 7.91758 9.01316 281.914
839 1 4.68683 6.09868 279.582
840 1 7.7555 4.07047 275.148
841 3 9.24614 5.45147 275.804
842 3 6.32106 2.2435 285.273
843 1 9.06588 10.6836 282.854
844 1 7.76977 11.6975 279.508
845 3 4.92949 7.55591 274.552
846 3 7.46629 7.55372 274.578
847 3 6.18435 11.5523 278.028
848 1 6.24567 11.2943 285.157
849 3 9.20106 2.95881 274.069
850 3 6.31399 3.00457 271.774
851 1 4.77031 9.64094 275.159
852 2 9.29945 4.30854 285.411
853 2 6.24029 6.05826 281.811
854 3 7.99904 11.1568 286.231
855 1 4.77683 8.1196 283.931
856 1 7.6902 6.15728 279.481
857 3 9.19936 7.42208 280.174
858 1 9.28028 1.55722 287.097
859 1 7.90125 2.42931 283.904
860 3 6.25105 4.3514 289.681
861 1 6.34568 2.11955 289.445
862 3 6.29243 2.36098 282.361
863 3 4.96128 9.58945 278.924
864 3 7.49069 9.6399 278.96
865 3 9.26598 5.05415 278.422
866 3 6.23227 5.10312 276.165
867 1 4.74296 11.8024 279.452
868 2 9.18376 6.41617 289.715
869 2 6.21642 8.12061 286.234
870 3 8.05428 1.99156 290.615
871 1 4.69516 10.2773 288.275
872 1 7.78591 8.03875 283.963
873 3 9.24209 9.38643 284.639
874 1 9.10326 3.65561 291.418
875 1 7.73473 4.65774 288.246
876 3 6.16926 6.31191 294.174
877 1 6.21076 4.23317 293.872
878 3 6.14955 4.48331 286.769
879 3 4.86579 11.6722 283.335
880 3 7.40701 11.7118 283.429
881 3 9.21074 7.09996 282.848
882 3 6.24 7.1071 280.59
883 1 4.8961 2.52191 283.899
884 2 9.05663 8.38383 294.107
885 2 6.11145 10.2516 290.609
886 3 7.92463 3.98807 295.068
887 1 4.58804 12.3204 292.584
888 1 7.60617 10.2091 288.322
889 3 9.10756 11.553 288.926
890 1 9.1339 5.6827 295.919
891 1 7.65501 6.69268 292.64
892 3 6.00243 8.5319 298.478
893 3 5.00988 2.41453 287.717
894 3 7.57481 2.56632 287.6
895 3 6.15943 6.54441 291.185
896 1 6.15916 6.28748 298.41
897 3 6.29421 9.16768 284.936
898 1 4.72382 4.61572 288.258
899 3 9.14118 9.20869 287.251
900 2 8.98971 10.5061 298.43
901 2 6.01906 12.2619 294.923
902 3 7.9269 6.12949 299.462
903 1 4.68664 3.0754 297.106
904 1 7.63732 12.2389 292.661
905 3 9.21691 2.3594 293.321
906 1 7.50458 8.73525 297.044
907 3 6.02112 10.6096 302.941
908 1 8.96072 7.87763 300.347
909 3 4.84004 4.65227 292.061
910 3 7.41531 4.61816 292.068
911 1 6.1881 8.44295 302.7
912 3 6.09136 8.57256 295.514
913 3 6.11998 11.2981 289.272
914 1 4.63073 6.64437 292.645
915 3 9.03435 11.2627 291.579
916 2 9.03872 12.6586 302.917
917 2 6.16259 3.18977 299.298
918 3 7.87383 8.17574 303.906
919 1 4.65398 5.33625 301.429
920 1 7.68769 3.18381 297.011
921 3 9.15074 4.52019 297.713
922 1 7.5375 10.977 301.352
923 3 6.0392 12.612 307.256
924 1 9.04872 9.8508 304.646
925 3 4.8368 6.71038 296.496
926 3 7.37418 6.69508 296.541
927 1 6.07013 10.3832 307.03
928 3 6.01477 10.726 299.924
929 3 6.15175 2.1714 293.677
930 3 9.1872 2.09119 295.982
931 1 4.59038 8.81731 296.954
932 2 9.21991 3.41653 307.232
933 2 6.16866 5.23902 303.696
934 3 7.76455 10.3572 308.263
935 1 4.56316 7.36724 305.828
936 1 7.64484 5.21513 301.343
937 3 9.14364 6.59038 302.117
938 1 7.70776 1.65686 305.781
939 3 6.19272 3.47231 311.624
940 1 9.15534 11.9063 309.012
941 3 6.24883 1.50177 304.286
942 3 4.70984 8.79239 300.883
943 3 7.27886 8.84266 300.863
944 1 6.09283 12.5656 311.446
945 3 6.1073 4.24027 298.025
946 3 9.17821 4.23983 300.36
947 1 4.49195 10.8426 301.404
948 2 9.11884 5.49974 311.644
949 2 6.05577 7.30524 308.093
950 3 7.79728 12.3732 312.603
951 1 4.5053 9.30142 310.159
952 1 7.65722 7.29064 305.835
953 3 9.05771 8.58087 306.515
954 1 7.62255 3.7534 310.193
955 3 6.02029 5.5497 315.977
956 1 9.08183 2.82051 313.48
957 1 6.26757 3.30775 315.811
958 3 6.15328 3.61764 308.677
959 3 4.70121 10.8843 305.298
960 3 7.29095 10.8865 305.305
961 3 6.16004 6.32901 302.453
962 1 4.70716 1.63786 305.818
963 3 9.13206 6.22062 304.767
964 2 9.07529 7.66514 316.011
965 3 7.94337 3.1981 316.983
966 2 6.04692 9.36006 312.46
967 1 4.52026 11.4785 314.598
968 1 7.52776 9.43915 310.139
969 3 9.01246 10.6922 310.834
970 1 7.54049 5.89028 314.483
971 3 5.98773 7.50052 320.404
972 1 8.94609 4.94603 317.748
973 3 4.90329 1.72437 309.623
974 3 7.44731 1.62972 309.658
975 1 6.10579 5.34607 320.284
976 3 6.0926 5.71132 313.088
977 3 6.10627 8.35595 306.797
978 1 4.62697 3.75655 310.156
979 3 8.90756 8.28528 309.072
980 2 8.95562 9.67708 320.414
981 3 7.84194 5.12628 321.263
982 1 4.66254 2.24834 318.968
983 2 6.04797 11.4503 316.873
984 1 7.53155 11.4368 314.52
985 3 9.05164 12.8133 315.203
986 1 7.47665 7.90979 318.985
987 3 6.00914 9.55861 324.796
988 1 9.02268 6.8942 322.125
989 3 4.82222 3.69083 313.963
990 3 7.33953 3.76557 313.971