ITEM: TIMESTEP
7500
ITEM: NUMBER OF ATOMS
208
ITEM: BOX BOUNDS pp pp pp
45.0 100.0
50.0 105.0
-18.06819 30.11365
ITEM: ATOMS id type x y z coord q2 q3 q4 q5 q6 q7 q8 q2_mono q3_mono q4_mono q5_mono q6_mono q7_mono q8_mono
467 1 66.9554 74.7527 -13.8149 24.0 0.0264544 0.129816 0.121316 0.0579525 0.160906 0.073675 0.223357 0.0489138 0.0229126 0.117802 0.0328521 0.312057 0.0480423 0.324435
475 3 65.811 72.8143 -13.0851 23.0 0.027098 0.0464906 0.231027 0.028757 0.171209 0.0330523 0.240426 0.0190103 0.0226496 0.0961958 0.0478727 0.377749 0.0543689 0.248108
488 3 66.1044 75.2287 -15.4952 26.0 0.0211264 0.100354 0.173002 0.0501736 0.161132 0.0499462 0.241847 0.013518 0.0147763 0.113761 0.0279066 0.368562 0.0414505 0.233298
492 1 69.4707 77.3116 -15.6715 27.0 0.0234797 0.049268 0.242498 0.0377236 0.158817 0.0450468 0.223186 0.031702 0.0363976 0.0990504 0.0467575 0.262515 0.0581462 0.313931
495 1 71.7261 74.9252 -14.0973 25.0 0.0180838 0.125421 0.160312 0.0409092 0.155968 0.0647416 0.169574 0.0307075 0.0208931 0.132537 0.0386572 0.285618 0.0550734 0.303328
497 1 69.3454 74.126 -15.9806 26.0 0.0302161 0.0999227 0.169391 0.0428118 0.161844 0.0537834 0.188377 0.0485518 0.02672 0.11832 0.038505 0.309626 0.056418 0.309923
499 2 69.1386 72.8774 -12.8608 24.0 0.037314 0.0666752 0.275716 0.0702543 0.175358 0.0383275 0.230739 0.0475134 0.0157024 0.281377 0.0271798 0.319334 0.0381055 0.159441
501 2 71.4672 75.9359 -17.3201 27.0 0.0275118 0.106662 0.23916 0.0755058 0.146592 0.0541366 0.230018 0.0406063 0.0168116 0.271299 0.0244296 0.285776 0.0339505 0.137295
503 3 70.6744 72.5742 -12.7665 25.0 0.0297816 0.0497346 0.248279 0.027705 0.180608 0.0316444 0.215358 0.0184819 0.024686 0.0757673 0.0515114 0.361117 0.0570099 0.240671
505 3 68.2898 76.0963 -16.7233 25.0 0.0276217 0.0421334 0.21866 0.0269744 0.169142 0.0460799 0.216351 0.0166594 0.0251289 0.089023 0.0542749 0.355926 0.0692328 0.239746
507 3 68.0371 76.5228 -13.9159 25.0 0.0348749 0.0310033 0.217915 0.0318481 0.18421 0.0463732 0.230928 0.00612502 0.0340563 0.0970581 0.0541284 0.368171 0.0717118 0.233599
509 3 70.4972 72.2985 -15.5713 23.0 0.0378628 0.0383051 0.243286 0.0406962 0.165652 0.0512866 0.229679 0.0118965 0.0421932 0.09536 0.064866 0.360591 0.0850688 0.234609
511 3 68.535 73.6348 -14.0898 24.0 0.0308301 0.0852749 0.201976 0.0510819 0.172759 0.0469503 0.231482 0.0117521 0.0140819 0.0946678 0.0270019 0.355828 0.0469937 0.223946
516 3 71.0249 75.1619 -16.0265 25.0 0.0378418 0.0592094 0.183724 0.0576786 0.182212 0.0337418 0.199057 0.0103564 0.0180862 0.0789327 0.0242644 0.344531 0.0263816 0.220308
518 3 68.4014 73.4156 -17.5367 26.0 0.0397823 0.091311 0.16547 0.048092 0.186653 0.0502869 0.236589 0.00940354 0.0200518 0.0825491 0.0331897 0.349798 0.0443956 0.23002
519 1 71.8501 71.7597 -14.1698 28.0 0.0288537 0.0454986 0.280583 0.0334268 0.180191 0.0527402 0.248674 0.0226875 0.0186772 0.126472 0.0274387 0.252177 0.0440762 0.316413
522 1 71.7089 71.9307 -17.1523 26.0 0.0473942 0.0367494 0.255516 0.0496428 0.198094 0.0488276 0.248765 0.0251923 0.0198619 0.0842243 0.0401124 0.265571 0.0503305 0.300688
2241 3 68.2775 76.2395 -10.8469 24.0 0.0305602 0.0373139 0.223001 0.0283944 0.16826 0.0511998 0.249245 0.0199255 0.0259865 0.0941202 0.060126 0.369446 0.0699755 0.245037
2249 3 70.8714 75.4504 -12.5075 25.0 0.0298332 0.0982299 0.167504 0.0418222 0.18178 0.054598 0.214776 0.00750787 0.0241196 0.0764033 0.067678 0.345807 0.0664376 0.224381
2254 3 68.4542 73.4839 -11.5869 26.0 0.0315173 0.10445 0.163251 0.0471438 0.181684 0.0462613 0.231821 0.00683568 0.0138597 0.0960155 0.0367129 0.358006 0.0465913 0.222342
2205 1 64.61 74.1073 -10.1229 25.0 0.0354605 0.109638 0.153841 0.0577201 0.163836 0.0403059 0.240982 0.0533369 0.0193485 0.105364 0.0282524 0.311467 0.0410737 0.328779
2252 3 70.9217 75.314 -9.97013 24.0 0.0366115 0.0556502 0.18213 0.0618483 0.179617 0.0380262 0.215157 0.0088634 0.0169466 0.0900587 0.0267673 0.356587 0.0333437 0.219116
12619 1 66.8471 74.7209 28.4604 26.0 0.0242857 0.123147 0.148301 0.0574659 0.16984 0.0650166 0.235895 0.0477798 0.0214371 0.117589 0.0327297 0.304256 0.0509623 0.315302
2233 1 69.3298 74.082 -9.9508 25.0 0.033697 0.104773 0.177325 0.0384451 0.169601 0.0521169 0.203657 0.0372628 0.0236044 0.153774 0.0414912 0.298348 0.0617363 0.31979
2070 3 68.2041 70.9166 -9.94557 23.0 0.0194137 0.0659661 0.250998 0.0347726 0.174663 0.0492907 0.238526 0.0178251 0.0118864 0.0948117 0.0622392 0.383249 0.0536205 0.246245
2203 1 66.9104 74.8422 -7.83315 24.0 0.0218042 0.113707 0.15179 0.0698435 0.173277 0.0525135 0.217833 0.0457622 0.0238989 0.121282 0.0298374 0.305371 0.0458777 0.322771
2211 3 65.9365 72.8261 -7.14532 24.0 0.0259101 0.0440632 0.226005 0.0250107 0.17876 0.032892 0.233001 0.0179559 0.0187831 0.102971 0.0434703 0.376741 0.0532927 0.245208
2219 3 63.697 73.5917 -8.36743 26.0 0.0174848 0.101042 0.191941 0.0585301 0.177649 0.0433665 0.240878 0.0109049 0.0129186 0.120178 0.0229156 0.383161 0.0411165 0.242067
2224 3 66.0885 75.2626 -9.64327 27.0 0.0234559 0.0895549 0.19725 0.0546321 0.175221 0.0446819 0.240964 0.0110583 0.0149883 0.11594 0.0207813 0.375589 0.0403699 0.233955
2231 1 71.7087 74.9706 -8.1266 26.0 0.0214281 0.122557 0.178419 0.0430398 0.152574 0.0634778 0.189428 0.0354654 0.0254054 0.170427 0.0362277 0.295352 0.0518253 0.310379
2235 2 69.1302 72.9562 -6.77103 26.0 0.0406205 0.0913184 0.268465 0.0639628 0.19606 0.0609533 0.241746 0.0477138 0.0182407 0.283459 0.0267312 0.31959 0.0396375 0.160529
2239 3 70.6402 72.6467 -6.7136 25.0 0.029465 0.0549185 0.241616 0.0271023 0.168828 0.0519701 0.20741 0.0178388 0.0226314 0.0712343 0.0548314 0.364449 0.0506848 0.24365
2243 3 68.0761 76.588 -7.96298 25.0 0.0396605 0.0515688 0.218687 0.0458846 0.18886 0.0540252 0.242566 0.00717114 0.0359796 0.0916538 0.045674 0.378431 0.0685403 0.238479
2245 3 70.5254 72.3354 -9.60559 21.0 0.0399342 0.0416509 0.255692 0.0413806 0.190019 0.0588337 0.238094 0.0108431 0.045055 0.0897307 0.0652282 0.366714 0.0887553 0.233846
2247 3 68.4859 73.5997 -8.13441 23.0 0.0273554 0.0801465 0.200679 0.0597803 0.182957 0.0463513 0.211012 0.0114934 0.0128414 0.0950851 0.0292119 0.361625 0.0440076 0.222542
3806 3 68.2899 70.8787 -3.85793 23.0 0.0232652 0.0553476 0.233562 0.0403685 0.181141 0.0377653 0.248384 0.0150803 0.0197803 0.0906309 0.0499178 0.376803 0.0519248 0.253326
3941 1 64.497 74.0945 -4.09477 27.0 0.0243777 0.138393 0.129616 0.0625602 0.160792 0.0665917 0.249185 0.0443166 0.0209304 0.101275 0.029699 0.306888 0.0467319 0.326201
3957 3 66.0514 75.3948 -6.19841 26.0 0.0312751 0.100326 0.135214 0.0637306 0.192573 0.0434704 0.245039 0.00720682 0.0126598 0.106399 0.0275648 0.372026 0.0433369 0.228049
3960 3 66.1144 75.2592 -3.61052 26.0 0.0206529 0.098914 0.206188 0.0389835 0.184134 0.0550281 0.228697 0.0109663 0.0111159 0.100605 0.0222833 0.368659 0.0425688 0.231803
3969 1 69.2958 74.1865 -3.83033 26.0 0.0237497 0.139972 0.160916 0.0506091 0.157685 0.0598437 0.188694 0.0369802 0.0164489 0.144947 0.0298509 0.303585 0.0535015 0.318815
3977 3 68.2239 76.1947 -4.92213 24.0 0.0314512 0.0347786 0.23834 0.0386585 0.181606 0.0350679 0.246051 0.0200341 0.0253252 0.0759089 0.0652094 0.373457 0.0638623 0.244365
3981 3 70.422 72.3279 -3.60424 24.0 0.0419638 0.0377958 0.25452 0.0414909 0.190553 0.0520418 0.247449 0.0111058 0.0436296 0.0853743 0.0658618 0.362838 0.0901417 0.232351
3985 3 70.772 75.5198 -6.4559 25.0 0.0343786 0.0969424 0.174924 0.0406845 0.170209 0.0486312 0.224262 0.00650525 0.0235674 0.0829232 0.0600099 0.369535 0.0542778 0.232917
3988 3 70.8293 75.4311 -3.94579 23.0 0.0373135 0.0811839 0.194602 0.0632501 0.167492 0.0366551 0.211865 0.00932708 0.0159449 0.0915903 0.0213814 0.365596 0.0234109 0.226606
3990 3 68.4667 73.4592 -5.44701 24.0 0.0319151 0.103492 0.15798 0.0511827 0.18094 0.0473675 0.228489 0.00814422 0.0140136 0.084491 0.0406734 0.357963 0.0498573 0.225432
3815 3 70.4728 70.1514 -2.40692 22.0 0.0312871 0.0897855 0.164094 0.0474975 0.184795 0.0521321 0.249259 0.010877 0.0252859 0.106036 0.0407761 0.385918 0.0527914 0.249501
3967 1 71.8421 75.1219 -2.09853 27.0 0.0158585 0.129259 0.175481 0.0594373 0.147448 0.062449 0.169688 0.0247422 0.0444911 0.145388 0.0535991 0.268132 0.0710954 0.300878
3979 3 68.1116 76.5938 -2.03912 24.0 0.038998 0.0383752 0.24494 0.0418034 0.190132 0.0526359 0.24239 0.00532048 0.0259781 0.0835845 0.0636316 0.370759 0.062651 0.233379
3939 1 66.8363 74.7359 -1.89094 26.0 0.0214556 0.11432 0.168331 0.0538759 0.17168 0.0585618 0.225088 0.0460132 0.0228622 0.114872 0.0300564 0.305293 0.0542306 0.317756
3983 3 68.5158 73.6898 -2.02418 23.0 0.0310981 0.0806418 0.202823 0.0611586 0.166766 0.0458361 0.212686 0.0117092 0.0123503 0.0931867 0.0222649 0.356269 0.0371493 0.219822
3796 1 69.5071 69.7939 -0.621593 26.0 0.0526494 0.0837179 0.13872 0.0701873 0.179391 0.0708391 0.245915 0.0534588 0.0162236 0.0631846 0.0292324 0.324431 0.040835 0.320649
3975 3 70.6361 72.7546 -0.604287 24.0 0.0280615 0.044236 0.245736 0.0373348 0.186036 0.0365456 0.206464 0.0169408 0.0240348 0.0770068 0.0557874 0.366771 0.0511588 0.244313
5550 3 70.6137 70.3281 1.12667 25.0 0.034981 0.0847452 0.192805 0.0462596 0.190684 0.0496003 0.243582 0.0113207 0.0223913 0.107506 0.0390453 0.385862 0.0472099 0.238911
5675 1 66.9678 74.8248 4.19784 25.0 0.0243738 0.126369 0.163181 0.0614707 0.161504 0.0498389 0.232546 0.0504172 0.0171032 0.100454 0.03233 0.313597 0.046375 0.313047
5696 3 66.1681 75.2471 2.38022 26.0 0.0225598 0.0955991 0.17228 0.0511508 0.177095 0.0452871 0.235613 0.0122927 0.0133102 0.106694 0.0173343 0.367313 0.0369604 0.240079
5701 1 69.3533 76.888 -0.478413 28.0 0.0352016 0.059856 0.215824 0.0385238 0.172745 0.0599357 0.237811 0.0299431 0.0350629 0.0797676 0.057387 0.271923 0.046005 0.301824
5703 1 71.7332 74.8562 3.85487 25.0 0.0231248 0.112091 0.151269 0.0513637 0.144129 0.0718838 0.186816 0.0364868 0.0189654 0.164174 0.0287627 0.295782 0.0434171 0.302382
5705 1 69.3235 74.1397 2.12747 26.0 0.0250786 0.12751 0.164406 0.0485984 0.157932 0.0575383 0.185998 0.0376692 0.0157929 0.14253 0.0303945 0.300417 0.0465257 0.303393
5707 2 69.1406 72.8811 5.20086 25.0 0.0444939 0.0643431 0.262192 0.0789445 0.176055 0.0499043 0.227835 0.048625 0.0182061 0.285966 0.0299776 0.31608 0.0374289 0.165199
5709 2 71.4909 76.0031 0.796837 27.0 0.0446615 0.127668 0.267028 0.0831294 0.16772 0.0722213 0.247865 0.0392399 0.019397 0.273553 0.0213841 0.2817 0.0344554 0.138691
5713 3 68.2828 76.2322 1.12075 26.0 0.0335718 0.0472994 0.240457 0.0416929 0.172761 0.0553481 0.226094 0.0196833 0.028623 0.075289 0.0599462 0.363988 0.0577897 0.246939
5717 3 70.5447 72.4732 2.45993 22.0 0.0432348 0.0661326 0.246396 0.0402669 0.172261 0.0586208 0.245309 0.00896237 0.0331552 0.0912079 0.0473289 0.37059 0.0634794 0.235274
5719 3 68.4841 73.572 3.92314 25.0 0.0297468 0.0866846 0.181038 0.0622255 0.164061 0.0415209 0.2212 0.0112577 0.013829 0.102421 0.0216001 0.356138 0.0383976 0.224272
5721 3 70.7797 75.4882 -0.530232 27.0 0.0345451 0.0885979 0.188401 0.0414624 0.174103 0.0476199 0.202012 0.0077872 0.0283554 0.0847146 0.0664574 0.370122 0.0665275 0.236118
5724 3 70.8889 75.3383 2.0335 24.0 0.0344846 0.0814367 0.184102 0.0622294 0.164385 0.0293916 0.198551 0.010326 0.0177095 0.0944238 0.0213848 0.360226 0.0208241 0.223847
5726 3 68.414 73.5276 0.565418 25.0 0.0419814 0.0854812 0.172372 0.0585448 0.183843 0.0487561 0.234688 0.0111734 0.0176009 0.0893349 0.0448344 0.360097 0.0514285 0.232927
7457 3 70.8278 75.481 5.45681 26.0 0.0357263 0.0857332 0.178311 0.0405755 0.164104 0.0505368 0.212438 0.00800694 0.0169138 0.0851772 0.042235 0.361367 0.0443696 0.232857
5711 3 70.6505 72.612 5.31696 25.0 0.0324651 0.0524752 0.239985 0.0300285 0.167912 0.0371084 0.215168 0.0176002 0.0234322 0.0788713 0.0569647 0.366651 0.0535993 0.24467
10919 3 70.6416 72.6322 23.4095 26.0 0.0270445 0.0481674 0.214149 0.0245287 0.1871 0.024185 0.22351 0.0214901 0.0292704 0.0921555 0.0541925 0.370258 0.0630107 0.243143
12655 3 70.5714 72.476 29.4675 25.0 0.0285109 0.0469412 0.229947 0.030989 0.170281 0.0374674 0.203903 0.017862 0.0248616 0.0791301 0.048773 0.354477 0.0432006 0.238549
7411 1 66.9703 74.9111 10.241 27.0 0.0318632 0.134653 0.177071 0.0517231 0.174407 0.0587698 0.230725 0.0420185 0.0232935 0.104182 0.0414843 0.318273 0.0589423 0.321853
7419 3 65.9658 72.8497 10.8811 24.0 0.0272906 0.0450783 0.23171 0.0296914 0.184662 0.034372 0.246599 0.0158311 0.0227121 0.0959093 0.0495116 0.376658 0.0575121 0.253569
7432 3 66.1496 75.2937 8.47868 26.0 0.0273376 0.110405 0.185498 0.0317194 0.176211 0.0415978 0.235126 0.0114444 0.0133831 0.109774 0.0273142 0.371567 0.0445032 0.232456
7439 1 71.6978 74.9104 10.0497 26.0 0.0201273 0.111956 0.192063 0.0591627 0.152368 0.0569635 0.192804 0.0364884 0.0225175 0.165817 0.0350106 0.297206 0.0488952 0.30748
7441 1 69.381 73.9755 8.19518 26.0 0.0324843 0.11005 0.176552 0.044513 0.162994 0.0487829 0.198975 0.0405467 0.0271882 0.141654 0.038232 0.308833 0.056486 0.312704
7443 2 69.113 72.8911 11.2641 25.0 0.0431438 0.0686625 0.270025 0.0761124 0.187961 0.0488108 0.245637 0.047282 0.0197656 0.284148 0.0327925 0.318936 0.0334079 0.15661
7445 2 71.5258 75.9455 6.83595 27.0 0.0392223 0.115307 0.28083 0.0770948 0.18199 0.0718177 0.248113 0.0387415 0.0202116 0.279301 0.0230104 0.279753 0.0372924 0.143649
7447 3 70.6281 72.5876 11.3279 24.0 0.0265858 0.0513285 0.248016 0.0325912 0.183848 0.0382703 0.232886 0.0182821 0.0218425 0.0745733 0.0519322 0.36789 0.0491604 0.251243
7449 3 68.2627 76.1296 7.1007 24.0 0.031885 0.0515514 0.243373 0.0382831 0.166177 0.0382676 0.234268 0.0158408 0.0237037 0.076655 0.0613773 0.36484 0.0651647 0.241057
7451 3 68.1129 76.5122 9.94787 24.0 0.0435286 0.0486163 0.240932 0.0366369 0.199128 0.0659016 0.24842 0.00845976 0.0306037 0.0859981 0.0581339 0.372547 0.0675911 0.236121
7453 3 70.491 72.3203 8.42308 23.0 0.0374397 0.0317042 0.244916 0.0384194 0.172108 0.0612531 0.231981 0.0110331 0.0423482 0.0913747 0.0662981 0.367668 0.0898694 0.238225
7455 3 68.4876 73.5662 9.88552 24.0 0.0217939 0.0998469 0.219296 0.0491717 0.180159 0.0477676 0.207613 0.0132298 0.0144615 0.0895736 0.0364797 0.358268 0.0416966 0.224666
7460 3 70.9645 75.2602 8.14271 25.0 0.0354884 0.0581654 0.20316 0.0652921 0.16795 0.0406455 0.214088 0.0113058 0.0147157 0.0859386 0.0188222 0.359743 0.0286463 0.228135
7462 3 68.5442 73.2932 6.59735 26.0 0.0381606 0.0822755 0.164441 0.0416093 0.180507 0.0501577 0.227774 0.00554867 0.0181866 0.090006 0.066876 0.358218 0.0619158 0.225334
9153 2 66.6544 75.9793 13.1341 26.0 0.0378083 0.0362561 0.262074 0.0717911 0.180452 0.0478403 0.235105 0.0488269 0.0133724 0.285332 0.0171949 0.336324 0.0157147 0.167743
9165 3 65.951 75.4394 11.796 25.0 0.0314634 0.0851818 0.161486 0.0453135 0.186911 0.0435312 0.240068 0.00869246 0.0148817 0.100789 0.0430263 0.362575 0.0502559 0.235395
9185 3 68.1753 76.234 13.0788 25.0 0.034578 0.0445415 0.251296 0.046669 0.183928 0.0492707 0.232418 0.0222064 0.0254856 0.0752836 0.0675859 0.359224 0.0641464 0.25198
9193 3 70.6685 75.4023 11.6012 28.0 0.0342998 0.0771517 0.174667 0.0493618 0.182246 0.0497994 0.222492 0.0086151 0.0234248 0.0793713 0.0656079 0.366674 0.0598088 0.237907
9198 3 68.4618 73.4929 12.549 25.0 0.0388633 0.0763588 0.172918 0.0467557 0.202868 0.0432789 0.241403 0.0107113 0.0174579 0.0812785 0.0369051 0.357633 0.0431491 0.23673
9149 1 64.4601 74.149 14.0625 27.0 0.0244088 0.142652 0.127951 0.0555692 0.161829 0.072055 0.249087 0.0492818 0.0236544 0.0848363 0.0303863 0.316175 0.0436321 0.32157
9196 3 70.7891 75.3768 14.2704 24.0 0.0284396 0.0923602 0.18742 0.0629467 0.165839 0.0375406 0.212219 0.0116309 0.0165028 0.0886613 0.0190821 0.357284 0.0223847 0.230822
9177 1 69.3178 74.1042 14.2063 27.0 0.0244369 0.117919 0.18395 0.0459793 0.172683 0.0583593 0.202131 0.0348406 0.0260884 0.149491 0.0374193 0.300966 0.0590606 0.313714
9016 3 68.4116 71.4684 17.2474 25.0 0.0412353 0.0485264 0.202297 0.0373574 0.196219 0.033592 0.248491 0.013374 0.0166409 0.105388 0.0824621 0.380301 0.0744663 0.243273
9147 1 66.8593 74.8255 16.3372 26.0 0.0189701 0.113542 0.172285 0.0493022 0.169842 0.0520426 0.213147 0.0512337 0.0257219 0.099635 0.0268609 0.313873 0.0544684 0.310399
9155 3 65.9333 72.6645 17.0381 24.0 0.0356451 0.0431229 0.23477 0.0334836 0.183838 0.0397147 0.245443 0.0164614 0.0232037 0.0962678 0.0515218 0.369625 0.0611382 0.258762
9168 3 66.09 75.2922 14.4801 26.0 0.0270589 0.0861737 0.195412 0.0449218 0.188072 0.0502308 0.224807 0.0121947 0.0113735 0.100468 0.0212372 0.355335 0.0413995 0.240377
9175 1 71.6726 74.9004 15.931 23.0 0.0191465 0.111571 0.153596 0.0507625 0.14898 0.0684223 0.187832 0.0302245 0.0208061 0.121525 0.0350598 0.28045 0.0521444 0.29168
9179 2 69.0762 73.0069 17.318 28.0 0.0463219 0.0798552 0.299101 0.07289 0.190579 0.0554091 0.247215 0.0470425 0.014374 0.275769 0.0317149 0.320865 0.0246346 0.150615
9183 3 70.6173 72.6796 17.5229 25.0 0.0324545 0.0405983 0.239539 0.0302886 0.165198 0.0385286 0.202633 0.0200742 0.0232292 0.0795462 0.0444501 0.36712 0.0435644 0.249407
9189 3 70.4411 72.4982 14.4958 24.0 0.0401828 0.0435816 0.263503 0.0383531 0.18867 0.0592082 0.247951 0.00993708 0.0407887 0.0888057 0.0751822 0.366135 0.0813744 0.244241
9191 3 68.5294 73.6791 16.0353 25.0 0.0305755 0.0949442 0.184367 0.0530012 0.174296 0.0562496 0.207911 0.0134099 0.0163905 0.0894013 0.0231335 0.345899 0.0328017 0.226277
9199 1 71.8938 71.9026 16.2239 27.0 0.0333955 0.0543496 0.270938 0.0438795 0.167447 0.0610238 0.240679 0.023948 0.0179275 0.106094 0.0323246 0.251594 0.0561167 0.301092
10750 3 68.2653 70.9473 20.3464 23.0 0.0244205 0.0675427 0.252451 0.0343785 0.164672 0.0402851 0.249884 0.0235141 0.0201097 0.0907082 0.0484437 0.386427 0.0637883 0.255974
10904 3 66.0314 75.264 20.6205 25.0 0.0253135 0.0976432 0.177744 0.0511409 0.16822 0.0553011 0.234063 0.0137939 0.0116122 0.105834 0.0246627 0.374526 0.0327308 0.238824
10913 1 69.1003 74.1191 20.2982 26.0 0.0265331 0.142632 0.149424 0.0613507 0.143588 0.0581774 0.182017 0.0523124 0.0302335 0.111702 0.0537308 0.316211 0.0673131 0.294793
10921 3 68.2486 76.0895 19.2271 26.0 0.0246797 0.0625158 0.228195 0.0373847 0.172257 0.0451299 0.229363 0.0185102 0.0217006 0.0780178 0.0531853 0.360078 0.0478012 0.242843
10925 3 70.4435 72.4502 20.5677 22.0 0.0409095 0.0507214 0.24799 0.0481648 0.163805 0.0640211 0.24048 0.010401 0.0354375 0.0975037 0.049698 0.371877 0.0600986 0.23373
10929 3 70.7393 75.5468 17.444 26.0 0.0333773 0.110601 0.159316 0.0474074 0.167256 0.0525057 0.220619 0.00864886 0.0235704 0.0864898 0.0602914 0.364232 0.055224 0.230797
10932 3 70.7444 75.2647 20.1115 23.0 0.0366685 0.0905606 0.175202 0.0744714 0.16262 0.0406694 0.215473 0.0125451 0.0132377 0.0965851 0.0297965 0.367223 0.0249775 0.226659
10934 3 68.3589 73.494 18.6933 26.0 0.0379691 0.0907552 0.157815 0.0514263 0.181046 0.046799 0.222748 0.00924702 0.0241704 0.0859812 0.064865 0.358619 0.0624887 0.227753
10911 1 71.6507 74.7465 21.7966 24.0 0.0211906 0.106147 0.143102 0.0429961 0.143902 0.0626598 0.183721 0.0336459 0.0247391 0.138343 0.0319889 0.284072 0.0469133 0.282872
10927 3 68.4347 73.6755 22.1343 25.0 0.0336296 0.0777105 0.17561 0.0545454 0.159662 0.0530485 0.208185 0.0153376 0.0141114 0.109595 0.0177305 0.358668 0.0369838 0.213108
12635 3 63.6708 73.538 27.8166 26.0 0.0186701 0.088592 0.173585 0.0545503 0.188929 0.0540011 0.245302 0.00861012 0.0130312 0.107638 0.0228039 0.387132 0.0375429 0.250004
10883 1 66.7771 74.7713 22.4739 27.0 0.0225417 0.142063 0.145885 0.0664187 0.148294 0.0762219 0.216398 0.0511876 0.0202741 0.0878701 0.0418803 0.312409 0.0596526 0.297816
12644 1 69.4731 77.0146 26.5092 28.0 0.0226168 0.0383558 0.259974 0.0352353 0.162982 0.0394409 0.243632 0.0273286 0.0295501 0.102277 0.0365965 0.255716 0.0526536 0.304274
12647 1 71.6104 74.8653 27.9988 25.0 0.0145702 0.126209 0.169753 0.0374964 0.147661 0.0689528 0.186691 0.0342667 0.0175242 0.141254 0.0313282 0.27932 0.0439268 0.293762
12649 1 69.3095 74.0572 26.2577 27.0 0.0210058 0.119839 0.139305 0.0447831 0.156039 0.0635348 0.195395 0.0417404 0.0184946 0.118899 0.0365248 0.29485 0.0572513 0.293076
12663 3 68.4869 73.5207 28.0195 26.0 0.0272437 0.0847854 0.199492 0.0503263 0.177317 0.052305 0.222569 0.0120819 0.0128961 0.0963521 0.0270166 0.357747 0.0371212 0.225709
12665 3 70.8456 75.3536 23.5178 27.0 0.033217 0.070905 0.172098 0.0514494 0.17088 0.0517923 0.212945 0.0135162 0.0182074 0.0975614 0.040023 0.358059 0.0450161 0.22452
12651 2 69.062 72.8059 29.3375 26.0 0.0434216 0.0709735 0.270171 0.0514297 0.199231 0.0440674 0.248001 0.0483501 0.0182378 0.276908 0.0250955 0.317327 0.0367595 0.153737
12653 2 71.5725 75.8264 24.8402 29.0 0.0309881 0.14054 0.207901 0.080138 0.151648 0.0675627 0.243738 0.0410697 0.0193799 0.271301 0.0236653 0.285141 0.034957 0.137748
12661 3 70.521 72.3765 26.53 23.0 0.0447423 0.067394 0.246501 0.041091 0.182026 0.0693491 0.248914 0.00851834 0.0374306 0.0926357 0.0492337 0.363723 0.0641622 0.23345
513 3 70.6879 75.3879 29.6341 26.0 0.0313012 0.0926544 0.170342 0.0453072 0.17091 0.0459142 0.209143 0.00885083 0.0208306 0.0741383 0.0458385 0.349748 0.0447279 0.228773
12670 3 68.4288 73.4114 24.6902 26.0 0.0396499 0.0919048 0.165309 0.0512251 0.182424 0.0461993 0.2449 0.0113199 0.0169331 0.100013 0.0389301 0.360698 0.0482723 0.226579
12657 3 68.2138 76.0232 25.2945 27.0 0.0284099 0.040323 0.219416 0.026431 0.173986 0.0453494 0.234535 0.0205447 0.0241778 0.0900931 0.0529023 0.357001 0.0474831 0.239839
493 1 69.2836 76.8226 29.7044 28.0 0.0513661 0.0379317 0.230596 0.0310377 0.203744 0.0498636 0.243117 0.0356592 0.0196784 0.0813126 0.0394493 0.261217 0.0448163 0.302659
12668 3 70.8962 75.2669 26.1515 24.0 0.0332823 0.0564732 0.185065 0.0568464 0.169257 0.0432322 0.206699 0.0106304 0.0182084 0.0944566 0.0248044 0.344872 0.0318387 0.219179
12659 3 68.0224 76.465 28.139 26.0 0.0307786 0.0379639 0.2258 0.0326324 0.18844 0.0576557 0.2335 0.00788504 0.0329927 0.093888 0.0493752 0.36052 0.0658837 0.226938
12640 3 65.918 75.3725 26.6622 26.0 0.0181359 0.1116 0.211022 0.0343847 0.177958 0.0467917 0.236441 0.0131579 0.0137597 0.104288 0.0211238 0.367736 0.0421094 0.234889
504 3 70.5922 77.9148 -14.1817 24.0 0.0239867 0.0717597 0.240506 0.0305407 0.163693 0.0511139 0.243973 0.0138241 0.0210391 0.0897325 0.0547902 0.375338 0.0578107 0.252673
526 2 72.1392 77.9287 -14.2977 25.0 0.0224866 0.0996516 0.216953 0.0413133 0.169952 0.0646543 0.24794 0.0361556 0.0338565 0.246226 0.0432064 0.288251 0.0194184 0.138214
3976 3 70.6182 78.0013 -2.19536 25.0 0.0156494 0.0691885 0.248658 0.0277602 0.168097 0.051347 0.248464 0.0158471 0.0243503 0.0949987 0.0644586 0.391401 0.070205 0.253338
5712 3 70.6126 77.9496 3.87493 26.0 0.0203096 0.056325 0.227155 0.0318704 0.166547 0.0413217 0.247464 0.0132614 0.0224087 0.0909609 0.0608827 0.384264 0.0672703 0.254407
12656 3 70.5515 77.9377 27.8908 25.0 0.0222362 0.0596069 0.215143 0.0349938 0.162615 0.040769 0.221813 0.0164225 0.0157858 0.0958755 0.071773 0.369432 0.0614915 0.243653
12669 3 68.1058 78.5061 29.6409 25.0 0.0241329 0.0800283 0.145713 0.0443961 0.177414 0.0486734 0.242319 0.0104683 0.0275009 0.113706 0.0395822 0.387036 0.0348012 0.247144
12676 1 71.7203 79.127 24.7675 28.0 0.0400784 0.0894947 0.122922 0.0639565 0.166582 0.0750164 0.236166 0.0500248 0.04543 0.0685482 0.0520049 0.309825 0.05684 0.312269
510 3 70.7202 77.4222 -17.2309 24.0 0.0403564 0.0496674 0.180282 0.0413167 0.199467 0.0315769 0.233372 0.00963257 0.0181686 0.0884749 0.0868645 0.367939 0.0700368 0.23985
356 3 73.0223 70.9517 -15.5379 25.0 0.024219 0.0640648 0.247799 0.0260695 0.167771 0.0491645 0.243978 0.018439 0.0218149 0.100538 0.0664517 0.384274 0.0757752 0.249895
523 1 74.0361 74.1118 -15.5443 26.0 0.0257537 0.151543 0.165935 0.0494615 0.139337 0.0623529 0.192707 0.0285325 0.0320473 0.0915999 0.026246 0.293351 0.0309468 0.297425
525 2 73.808 72.9748 -12.3998 28.0 0.0400602 0.0804798 0.236753 0.0779475 0.173525 0.0518504 0.228773 0.0405843 0.0330401 0.269677 0.0329738 0.296962 0.035776 0.1379
527 3 72.9848 76.2471 -17.5025 25.0 0.0276416 0.0556566 0.18986 0.0432952 0.165795 0.0444228 0.225414 0.0113481 0.0171935 0.0850294 0.0395798 0.374946 0.046102 0.24429
529 3 72.7906 76.5114 -14.3806 24.0 0.0338778 0.0362365 0.257866 0.0470593 0.189725 0.0611595 0.238258 0.00728936 0.02765 0.0713307 0.0590884 0.36545 0.0643996 0.241882
531 3 73.2336 73.5938 -13.7575 24.0 0.0279449 0.112375 0.175187 0.0397685 0.165891 0.0599949 0.206155 0.00849121 0.0184879 0.0903866 0.0282817 0.356301 0.0393377 0.221198
534 3 73.077 73.4522 -17.0796 26.0 0.0303385 0.0871782 0.198775 0.0449703 0.185605 0.0394684 0.215934 0.00736817 0.0155613 0.0911262 0.0310239 0.357062 0.0316158 0.227425
1256 3 75.579 75.5568 -13.3524 27.0 0.034819 0.0730258 0.136753 0.055414 0.176395 0.0443072 0.215429 0.00851385 0.0206517 0.0937329 0.0456967 0.38967 0.0489866 0.248992
2257 1 74.2356 76.9176 -12.8506 28.0 0.028976 0.0511359 0.213974 0.068175 0.131697 0.0622171 0.236252 0.0181787 0.0171436 0.069623 0.0475722 0.270579 0.0668084 0.302488
2270 3 73.1163 73.4498 -11.0855 26.0 0.0280045 0.0657289 0.205645 0.0533185 0.189352 0.0419462 0.217322 0.00764855 0.0160083 0.0915413 0.0330921 0.364716 0.0345423 0.231583
2981 1 76.3638 75.0975 -11.5629 26.0 0.0330343 0.110341 0.139721 0.0682696 0.143616 0.0662702 0.226887 0.0344446 0.0272268 0.087661 0.0242973 0.296978 0.0530541 0.304528
2985 3 75.4019 72.8567 -12.2015 23.0 0.0298373 0.0373288 0.254635 0.0273949 0.183741 0.0454299 0.236457 0.0141618 0.0147773 0.0965946 0.04309 0.390459 0.0498057 0.255999
2263 3 73.0888 76.163 -11.3752 24.0 0.0280613 0.0616854 0.192134 0.0372267 0.173744 0.0367727 0.212725 0.0158403 0.0261329 0.0775772 0.0570364 0.367296 0.0662042 0.250004
2989 3 75.5014 75.4825 -9.79359 26.0 0.0237264 0.0837996 0.211222 0.0512261 0.158381 0.0506775 0.233545 0.0102283 0.0168575 0.102026 0.0283198 0.389587 0.0405793 0.247064
2259 1 74.1484 74.1379 -9.4468 26.0 0.0200678 0.136789 0.157022 0.0558376 0.140547 0.0678544 0.197702 0.0348379 0.0280595 0.0947423 0.0264517 0.303167 0.044973 0.305647
2261 2 73.7742 73.111 -6.39073 27.0 0.0366126 0.0783249 0.272455 0.0638423 0.16092 0.0466562 0.248088 0.0384421 0.0336808 0.272003 0.032536 0.29416 0.0364025 0.140179
2265 3 72.9369 76.6024 -8.32638 22.0 0.0345388 0.0354638 0.245145 0.0468788 0.178578 0.0628507 0.227729 0.00840658 0.0296272 0.0842572 0.0517411 0.376031 0.0634781 0.239045
2267 3 73.2228 73.7254 -7.73405 25.0 0.0298484 0.104411 0.187299 0.0507171 0.157402 0.0560844 0.206285 0.00797573 0.0141248 0.0983681 0.0252359 0.369833 0.0252162 0.231168
2992 3 75.4788 75.6537 -7.20853 26.0 0.0266959 0.111581 0.141668 0.0388258 0.168707 0.0500348 0.225215 0.0086367 0.0160388 0.101089 0.0249971 0.386558 0.0255134 0.241734
3828 3 73.0651 71.1046 -3.43688 23.0 0.0218621 0.0539674 0.240647 0.0324557 0.181301 0.0422562 0.246879 0.0173359 0.0187852 0.0935184 0.0636184 0.37768 0.0771968 0.250451
3995 1 74.1315 74.2209 -3.4637 25.0 0.0162299 0.137243 0.178879 0.0599462 0.136792 0.0678831 0.200624 0.0330196 0.0263745 0.11663 0.0274872 0.296913 0.0381931 0.302423
3999 3 72.9136 76.5411 -5.30537 25.0 0.0241621 0.0611346 0.192346 0.0373706 0.168022 0.0371067 0.225699 0.0147451 0.0234142 0.085332 0.0573255 0.390526 0.057079 0.256521
4006 3 73.0803 73.6413 -5.05431 26.0 0.0299055 0.095377 0.200916 0.0439559 0.178492 0.0438694 0.214111 0.002552 0.0118178 0.0905702 0.0380441 0.377244 0.0405446 0.238861
4717 1 76.3635 74.957 -5.5766 26.0 0.0341201 0.123584 0.132634 0.0556187 0.144835 0.0599887 0.245822 0.0372736 0.0328283 0.0846374 0.0217143 0.298096 0.0530847 0.309603
4721 3 75.3358 73.0287 -6.16785 23.0 0.0233202 0.0211198 0.25158 0.0175074 0.183499 0.0440439 0.244874 0.0176981 0.0185141 0.0906173 0.0407207 0.389791 0.0476 0.256792
4725 3 75.4934 75.6477 -3.88435 26.0 0.0137329 0.106346 0.222555 0.0319594 0.170026 0.0532946 0.249282 0.00851122 0.0153434 0.105701 0.0297397 0.402247 0.031445 0.251956
4001 3 72.8859 76.7569 -2.45576 22.0 0.0316829 0.0227905 0.265534 0.0389903 0.168926 0.0467361 0.238482 0.00827605 0.0307189 0.0947671 0.0547893 0.398031 0.0538956 0.253042
3830 3 73.2063 71.7006 -0.447697 22.0 0.0406318 0.0400133 0.206387 0.0368023 0.199615 0.0333532 0.246951 0.010614 0.0244878 0.104733 0.0798572 0.385198 0.0741404 0.237055
3997 2 73.8359 73.2101 -0.415032 27.0 0.0450908 0.0707155 0.235245 0.078321 0.147919 0.063069 0.244497 0.0377264 0.0359877 0.272278 0.030282 0.292639 0.040625 0.140271
4003 3 73.1993 73.7862 -1.7881 25.0 0.0281302 0.106902 0.184493 0.0529854 0.160041 0.0460769 0.208886 0.00576409 0.0140015 0.101718 0.0249914 0.378198 0.0283773 0.228709
4728 3 75.5611 75.5766 -1.23684 27.0 0.0279019 0.109847 0.143969 0.0491135 0.167578 0.0638786 0.233751 0.00969029 0.0161515 0.112673 0.0283296 0.407757 0.0346599 0.25074
5564 3 73.124 71.075 2.68713 24.0 0.0206953 0.0547908 0.229533 0.0395461 0.173337 0.0367255 0.243586 0.016546 0.0266428 0.0957709 0.0528888 0.387848 0.0603776 0.252078
5731 1 74.1348 74.2479 2.66294 25.0 0.0198602 0.144242 0.166596 0.0496446 0.123935 0.0731479 0.216554 0.0256756 0.0382224 0.101277 0.0226763 0.288606 0.0463592 0.295161
5735 3 72.9941 76.3315 0.511061 25.0 0.0252652 0.0585622 0.209683 0.0453004 0.171975 0.0374888 0.215957 0.0161823 0.0265719 0.104175 0.0410861 0.400614 0.0557956 0.259715
5737 3 72.8194 76.4874 3.53034 24.0 0.030471 0.0180618 0.254716 0.0439729 0.166905 0.0535863 0.237539 0.008919 0.0279473 0.100024 0.0523834 0.390135 0.0574111 0.251722
5739 3 73.2212 73.6601 4.38238 24.0 0.0321266 0.117307 0.171395 0.0424714 0.160057 0.0559742 0.214588 0.00643434 0.0199904 0.0999864 0.0340964 0.376647 0.0335776 0.238766
5742 3 73.2226 73.5779 0.997762 28.0 0.0280342 0.080661 0.196161 0.0481464 0.172059 0.0447413 0.222952 0.00712348 0.0158471 0.104144 0.0329914 0.383666 0.039245 0.237101
6457 3 75.4144 73.0529 -0.174362 23.0 0.0263383 0.0601109 0.252839 0.0371187 0.171765 0.0427969 0.242446 0.0166347 0.0168202 0.0987671 0.0380139 0.400131 0.0419164 0.260574