ITEM: TIMESTEP
4500
ITEM: NUMBER OF ATOMS
326
ITEM: BOX BOUNDS pp pp pp
-14.54184 24.2364
80.0 135.0
35.0 90.0
ITEM: ATOMS id type x y z coord q2 q3 q4 q5 q6 q7 q8 q2_mono q3_mono q4_mono q5_mono q6_mono q7_mono q8_mono
8792 3 15.8416 103.165 55.5282 24.0 0.02481 0.0410527 0.223407 0.0324419 0.142919 0.0453597 0.207853 0.0172209 0.0288571 0.127958 0.0517151 0.31289 0.0636443 0.193301
1924 1 -5.69206 107.445 53.681 27.0 0.0174736 0.0399957 0.209454 0.0463237 0.157674 0.035692 0.213339 0.0349964 0.0341221 0.0848451 0.0551737 0.271722 0.0802104 0.275431
8791 2 19.2058 103.186 55.8302 26.0 0.0151523 0.0743094 0.194149 0.0430963 0.134332 0.0505472 0.153722 0.0454349 0.0181089 0.325128 0.0238167 0.324851 0.032167 0.234109
8790 1 16.5459 104.979 55.128 25.0 0.0224807 0.135284 0.151236 0.0797451 0.127221 0.0767718 0.208665 0.0462357 0.0395626 0.0881362 0.0416834 0.31147 0.0507364 0.233789
4672 1 3.78383 107.433 56.6223 25.0 0.0279509 0.0339462 0.248755 0.032558 0.179306 0.0515962 0.231174 0.0378817 0.0445798 0.0950288 0.0637174 0.304616 0.0616946 0.241563
8809 1 18.6717 107.114 53.865 28.0 0.0173237 0.0418242 0.267994 0.0427282 0.148939 0.0541536 0.243156 0.0405167 0.025987 0.0811965 0.0629685 0.295384 0.0541528 0.291593
1918 1 -6.0138 107.35 56.5482 24.0 0.0312829 0.0322256 0.266397 0.0351242 0.173557 0.0506842 0.22476 0.0419619 0.0293711 0.0889585 0.0629917 0.308752 0.0683517 0.223755
8789 1 17.061 102.122 54.142 27.0 0.0102907 0.0508715 0.209651 0.0361097 0.151221 0.0443241 0.215809 0.0417489 0.0415228 0.139164 0.037379 0.279684 0.0780977 0.292722
8788 3 18.7822 98.7373 56.8152 24.0 0.0427664 0.0661178 0.155561 0.0500305 0.182411 0.0390117 0.233049 0.00733106 0.0146803 0.147848 0.0653805 0.374479 0.0584022 0.230141
390 1 -10.2507 106.852 50.6774 27.0 0.0388237 0.0627658 0.233017 0.0280243 0.160513 0.0478734 0.213801 0.0385339 0.0357998 0.0757948 0.0546383 0.283489 0.0538149 0.292517
391 1 -9.74241 104.027 52.607 25.0 0.0396808 0.132737 0.108165 0.090679 0.154121 0.0771033 0.215986 0.0452029 0.0259296 0.0812078 0.0434879 0.287965 0.0645392 0.288762
392 2 -12.9532 106.147 52.2273 24.0 0.0336917 0.0752343 0.256465 0.0611284 0.160191 0.0516627 0.238536 0.046759 0.0210131 0.312174 0.03401 0.335582 0.0463434 0.215702
393 3 -11.3601 106.268 52.3126 23.0 0.0272708 0.0576388 0.19344 0.0308044 0.148147 0.0492404 0.173919 0.0286151 0.01903 0.112331 0.0492077 0.329173 0.0439042 0.224878
1769 2 -8.12239 106.205 52.1297 25.0 0.036061 0.0707404 0.251948 0.0781415 0.170111 0.0637929 0.215337 0.04483 0.0164 0.307147 0.0285371 0.336419 0.0383145 0.210545
1770 3 -6.55434 106.456 52.2331 23.0 0.0283462 0.0511949 0.207297 0.0234399 0.148243 0.050916 0.203407 0.022268 0.0247658 0.111524 0.0587014 0.339395 0.0459546 0.233933
1771 3 -8.48056 102.431 52.6744 25.0 0.0299237 0.035247 0.206181 0.0594695 0.170674 0.0516653 0.223738 0.0113657 0.0185672 0.117425 0.0549235 0.339734 0.0798467 0.206279
1772 3 -8.63588 105.599 50.7777 24.0 0.0337362 0.0917729 0.13973 0.0408108 0.178583 0.0542532 0.235311 0.0137606 0.021847 0.11626 0.0515931 0.366722 0.0572751 0.231254
3145 1 -0.183803 104.095 52.5872 26.0 0.0268231 0.129382 0.108139 0.0663531 0.141625 0.0752352 0.243398 0.0435673 0.0255053 0.0870909 0.0437877 0.293915 0.0460541 0.295944
3147 3 -1.71487 106.343 52.2274 24.0 0.029119 0.048312 0.209376 0.0241147 0.149721 0.0488924 0.205401 0.0243318 0.0249501 0.114277 0.06043 0.356521 0.0462699 0.249383
3148 3 -3.63567 102.57 52.559 25.0 0.032358 0.0481837 0.180616 0.058933 0.174716 0.0361661 0.243137 0.0118689 0.0209945 0.119714 0.0411736 0.370031 0.0731838 0.231571
4522 1 4.40629 104.103 52.6252 26.0 0.0368905 0.139848 0.112248 0.0634923 0.17302 0.0754879 0.248818 0.0437197 0.0265757 0.0861452 0.0418984 0.293004 0.0526644 0.298118
4523 2 1.55286 106.144 52.1731 25.0 0.0328486 0.064051 0.255916 0.0825436 0.170101 0.0523644 0.243569 0.0456082 0.0163957 0.300006 0.031907 0.342644 0.0377726 0.199372
4524 3 3.13582 106.306 52.2284 23.0 0.0311122 0.0488595 0.206493 0.0346439 0.154961 0.0444718 0.228201 0.0229151 0.0211408 0.114596 0.0518693 0.361587 0.0396346 0.250733
4525 3 1.30678 102.527 52.6605 25.0 0.0286659 0.0462071 0.188031 0.048802 0.170889 0.0351137 0.230674 0.0132046 0.0149286 0.114276 0.0557707 0.366442 0.0831786 0.223718
4526 3 0.963461 105.394 50.9304 24.0 0.0367045 0.101286 0.131389 0.038608 0.186784 0.0525135 0.249225 0.0164786 0.0202411 0.119362 0.0604997 0.390704 0.0563706 0.256067
3151 3 -3.75961 105.321 53.4186 24.0 0.0255083 0.0968562 0.18827 0.0541796 0.152209 0.0451295 0.205382 0.0120366 0.0228166 0.105292 0.0433011 0.310338 0.0595964 0.20578
4528 3 1.0159 105.381 53.4352 24.0 0.0264205 0.0897039 0.188011 0.056559 0.156686 0.0419357 0.202106 0.0143078 0.0211694 0.112121 0.0438145 0.323495 0.0659786 0.2159
5901 3 7.88952 106.213 52.2754 22.0 0.0206926 0.0600823 0.20036 0.0385541 0.14842 0.041825 0.232171 0.0248846 0.0205693 0.110369 0.0450962 0.362454 0.0374357 0.252515
5902 3 6.01604 102.596 52.5119 26.0 0.0342067 0.0336754 0.164692 0.0559371 0.179669 0.0404594 0.2452 0.0178466 0.010697 0.110614 0.0472783 0.351637 0.0719071 0.216519
7282 3 10.6039 105.445 53.4547 24.0 0.0245767 0.0917499 0.198994 0.0619632 0.156864 0.0497834 0.23252 0.0129693 0.0231488 0.112488 0.0438982 0.3367 0.0621051 0.213593
8786 3 18.7065 101.582 55.5734 24.0 0.0357002 0.0516421 0.146841 0.0393425 0.169218 0.0465155 0.192908 0.0149986 0.030252 0.145837 0.0547317 0.344461 0.0956209 0.208199
8655 3 17.6203 106.247 52.4171 24.0 0.0267995 0.0520474 0.212504 0.034179 0.149374 0.0375422 0.24359 0.0263524 0.0200257 0.107342 0.0433919 0.359906 0.0342948 0.247776
10032 3 22.4698 106.295 52.4211 23.0 0.026525 0.0499047 0.214944 0.033105 0.148734 0.039166 0.237039 0.0261407 0.0175955 0.109331 0.0485677 0.351926 0.040315 0.239477
510 3 -11.7894 97.3412 58.4174 23.0 0.0452475 0.0381196 0.188543 0.0298476 0.160388 0.0437534 0.23759 0.0150587 0.0199146 0.148271 0.0533378 0.36625 0.060497 0.204775
522 2 -11.0633 98.011 55.5857 27.0 0.0226466 0.0580932 0.277515 0.0607497 0.149794 0.0517163 0.245168 0.0422686 0.0311155 0.308364 0.0565386 0.326704 0.0688589 0.213832
523 3 -12.6244 97.8964 55.5468 24.0 0.0296574 0.047882 0.244107 0.0295251 0.159983 0.0426063 0.234546 0.0194785 0.0101812 0.125447 0.046229 0.377192 0.0437094 0.240358
674 3 -11.6612 97.7785 61.5933 23.0 0.0200543 0.0510091 0.210894 0.0326296 0.135003 0.0505129 0.249341 0.0157159 0.0266285 0.114865 0.0335346 0.369149 0.0530133 0.22715
1887 3 -7.15282 97.3057 58.4283 23.0 0.0418446 0.0533826 0.167085 0.0403093 0.165946 0.0524559 0.22425 0.00969286 0.0240383 0.147784 0.0459922 0.364896 0.0585721 0.203121
1890 1 -8.73757 96.9743 57.0511 28.0 0.0215737 0.0353204 0.200221 0.021109 0.158921 0.032653 0.227296 0.0372921 0.0425333 0.0939234 0.0298657 0.311272 0.0482211 0.316971
1892 2 -6.29885 95.9035 58.559 25.0 0.0110348 0.0520673 0.204948 0.0815592 0.150492 0.0686561 0.244192 0.0451354 0.0214229 0.300513 0.0525314 0.33962 0.0416798 0.20368
1893 3 -9.66161 95.8698 58.43 24.0 0.0243227 0.0615309 0.233878 0.0411142 0.16281 0.05448 0.240496 0.0202037 0.0143279 0.123657 0.0286897 0.368912 0.0396299 0.219903
1900 3 -7.75958 97.9026 55.6067 23.0 0.0292063 0.0522286 0.232824 0.0371224 0.156729 0.0464896 0.227384 0.0190022 0.00933369 0.130255 0.0441345 0.372876 0.0413549 0.231928
3270 3 -4.73062 95.9937 58.5015 24.0 0.026252 0.0454366 0.221542 0.0340617 0.162755 0.0455651 0.225426 0.0156298 0.015534 0.13557 0.0333232 0.376565 0.0480346 0.223378
3430 3 -4.89907 98.3709 60.1307 25.0 0.0167907 0.0550069 0.174364 0.0464777 0.148394 0.0299425 0.228144 0.00861503 0.0216536 0.14338 0.0377452 0.336387 0.0558557 0.186677
3264 3 -2.22817 97.3335 58.4595 22.0 0.0453013 0.0388024 0.18504 0.0330979 0.157093 0.0466361 0.243849 0.0119104 0.0229529 0.149426 0.0469578 0.3784 0.0573958 0.21814
4647 3 0.161665 96.0109 58.5992 24.0 0.026887 0.0524258 0.249192 0.034325 0.164146 0.0521438 0.242262 0.0176398 0.011654 0.119216 0.0418439 0.387569 0.0570783 0.23312
4805 3 2.92235 97.9461 61.7228 24.0 0.0221284 0.0408191 0.20597 0.0376629 0.145283 0.0494708 0.242068 0.0141629 0.0217766 0.10977 0.0272698 0.339824 0.0529366 0.20285
6024 3 4.94957 95.9223 58.5446 24.0 0.0252163 0.0584219 0.237725 0.0325356 0.157215 0.0476896 0.244029 0.0172502 0.0143416 0.112818 0.0337793 0.378295 0.0344501 0.229954
6184 3 4.85215 98.2822 60.1553 24.0 0.0130425 0.0512564 0.170078 0.0399784 0.157796 0.0375069 0.240398 0.0121384 0.0249607 0.132185 0.0379029 0.323492 0.0556144 0.179983
4807 3 0.144066 98.408 60.1432 26.0 0.0137506 0.0583228 0.162372 0.0418957 0.140014 0.0380291 0.233094 0.0103472 0.0244111 0.143548 0.0410234 0.344602 0.0562417 0.18739
6031 3 6.70126 97.9152 55.577 23.0 0.0312691 0.0529262 0.247172 0.033178 0.160021 0.0415981 0.249061 0.0198857 0.00889602 0.111308 0.0370759 0.384477 0.0427632 0.254269
7395 3 12.2629 97.324 58.3935 22.0 0.0454234 0.0380317 0.201918 0.0360773 0.162308 0.0400699 0.232569 0.014955 0.0164827 0.145114 0.0501823 0.378582 0.0523477 0.224045
7401 3 9.69853 95.9907 58.496 24.0 0.0247495 0.0614834 0.23413 0.0276001 0.149507 0.0449523 0.243883 0.0183606 0.011708 0.115443 0.0293411 0.390249 0.0363029 0.247829
7408 3 11.5951 97.8675 55.5987 23.0 0.0288876 0.0579136 0.238018 0.0337985 0.163855 0.0474611 0.24408 0.021574 0.00721528 0.120112 0.0413395 0.385863 0.0381881 0.259983
7559 3 12.602 97.8712 61.6642 23.0 0.0238416 0.0403589 0.232781 0.038932 0.137152 0.0423597 0.24715 0.0136183 0.0235865 0.118624 0.0322237 0.380346 0.0497318 0.224829
8778 3 14.4767 96.03 58.6123 24.0 0.0254705 0.053571 0.254388 0.0254497 0.14856 0.0510658 0.230955 0.01736 0.0143642 0.122586 0.02488 0.39328 0.0386624 0.244924
516 3 -14.4325 96.1222 58.5436 24.0 0.0267535 0.061212 0.239941 0.0269522 0.147449 0.0523284 0.24577 0.0209018 0.0179421 0.121252 0.0282644 0.384328 0.0471045 0.233919
8775 1 15.4394 97.0253 57.208 28.0 0.0310208 0.0470538 0.209612 0.0262868 0.160251 0.0588843 0.242598 0.0353032 0.0384691 0.090376 0.0395195 0.305127 0.0524245 0.313532
10149 3 22.0116 97.311 58.3568 23.0 0.0393159 0.0437661 0.211113 0.0322754 0.133929 0.0401488 0.245188 0.0136473 0.0177696 0.149062 0.0562066 0.371819 0.0577175 0.211946
10152 1 20.317 97.188 57.1458 30.0 0.0303683 0.0271179 0.200895 0.0312701 0.152072 0.0518842 0.244256 0.0349433 0.031877 0.0930613 0.0371419 0.307072 0.0497637 0.31639
10155 3 19.4022 95.9873 58.5811 23.0 0.023232 0.0418077 0.228144 0.0278786 0.148171 0.0461652 0.245275 0.0189224 0.015165 0.127789 0.0365521 0.391053 0.0465962 0.238
10315 3 19.4615 98.3175 60.0997 25.0 0.0240269 0.0410719 0.147164 0.0516615 0.13553 0.0355097 0.235712 0.0097382 0.0235785 0.140358 0.0491686 0.339895 0.0573129 0.188485
2053 3 -9.64848 98.2767 60.0627 25.0 0.0169721 0.0596492 0.14045 0.0336472 0.150383 0.0345932 0.226633 0.0132431 0.0135758 0.137997 0.0399424 0.328169 0.0515228 0.181054
397 3 -13.5743 105.356 53.4489 21.0 0.0243759 0.0731412 0.161622 0.061653 0.15093 0.046856 0.202716 0.00817023 0.0150293 0.113784 0.0495671 0.303031 0.0649199 0.189892
507 1 -10.8624 99.0288 58.6827 25.0 0.0382985 0.0984496 0.0819528 0.049797 0.157353 0.0594535 0.189789 0.029731 0.0421702 0.117902 0.0381416 0.258619 0.0549777 0.250928
508 2 -13.1208 100.689 58.6519 24.0 0.0193236 0.0896649 0.198628 0.0360648 0.123452 0.0745593 0.200811 0.0417431 0.0210175 0.320089 0.0358459 0.317064 0.0378636 0.222969
509 3 -9.8252 100.831 58.7369 23.0 0.0213691 0.0499431 0.167686 0.0570579 0.120755 0.0414998 0.192799 0.0244793 0.0478869 0.163448 0.0486981 0.319427 0.0821275 0.172961
511 3 -12.7735 100.124 57.1705 25.0 0.0134969 0.0792073 0.130729 0.0596549 0.146319 0.0554139 0.183456 0.0176852 0.0119388 0.154687 0.0806994 0.321807 0.0784719 0.175056
512 3 -12.2794 99.9141 59.7204 23.0 0.0237464 0.0782188 0.0969172 0.0592882 0.149348 0.0549832 0.211884 0.013195 0.030342 0.143621 0.0353746 0.314306 0.0508026 0.172093
521 1 -13.7542 99.7509 55.4848 29.0 0.0361413 0.123694 0.180881 0.048148 0.188233 0.072728 0.22146 0.053444 0.0312282 0.0995247 0.042754 0.304101 0.0764172 0.297415
524 3 -10.2134 101.645 55.5066 25.0 0.0316112 0.038874 0.144821 0.0483748 0.158018 0.0415637 0.182722 0.0160739 0.0342911 0.147472 0.063513 0.319106 0.0868948 0.167571
526 3 -10.3375 98.9285 56.6901 25.0 0.0357788 0.061875 0.145155 0.0548322 0.168751 0.0439218 0.192956 0.00855438 0.0130381 0.14578 0.0592288 0.346696 0.0527995 0.203193
527 1 -11.8297 102.069 54.1156 26.0 0.0138782 0.0639052 0.201778 0.0450489 0.152814 0.0704585 0.196534 0.037861 0.0460558 0.120618 0.03719 0.281875 0.0791534 0.277659
528 1 -12.2512 104.973 54.9367 24.0 0.0227303 0.139127 0.148075 0.0525402 0.106496 0.0675677 0.152534 0.0525478 0.0309605 0.0644469 0.0388343 0.290033 0.0432877 0.234111
529 2 -9.78729 103.204 55.8121 24.0 0.0235257 0.042456 0.186081 0.0849723 0.128308 0.0536316 0.128491 0.045488 0.0213852 0.330563 0.0287497 0.316381 0.043263 0.23295
530 3 -13.132 103.379 55.6618 26.0 0.00831799 0.0679943 0.172966 0.0445233 0.133815 0.0561586 0.166399 0.0226141 0.0262274 0.128426 0.0392805 0.282694 0.0646017 0.153637
531 3 -12.1606 106.922 55.2424 22.0 0.0370359 0.0443152 0.269295 0.0340293 0.165472 0.0424914 0.204159 0.0208783 0.0302971 0.107808 0.0544281 0.308744 0.0539466 0.165882
532 3 -10.6114 103.845 54.5543 21.0 0.0141744 0.084936 0.140007 0.0480826 0.126849 0.0459866 0.164646 0.0194516 0.025307 0.116213 0.0470683 0.291458 0.0517079 0.146381
533 1 -11.0714 101.265 57.2155 23.0 0.0318256 0.0552852 0.172524 0.0334593 0.11187 0.0322012 0.152731 0.0269746 0.0457402 0.0897411 0.0637105 0.265619 0.065268 0.241133
534 3 -10.3368 103.298 57.3494 22.0 0.0353551 0.0461423 0.14838 0.0816379 0.0974703 0.0650754 0.146814 0.0191171 0.0239932 0.169322 0.0513603 0.308367 0.0536466 0.156687
542 1 -11.8185 104.126 58.406 25.0 0.0163782 0.0846605 0.123395 0.0786614 0.0973377 0.0616613 0.160695 0.0418894 0.0327239 0.10234 0.0506557 0.298787 0.0669454 0.198948
543 2 -14.098 106.223 58.1802 27.0 0.0203599 0.073887 0.22087 0.0694253 0.11124 0.0554965 0.184126 0.0458639 0.0340637 0.34087 0.0530705 0.319913 0.0521563 0.245419
544 3 -12.53 106.142 58.2679 27.0 0.012409 0.0447725 0.224173 0.0426154 0.12249 0.0508146 0.174226 0.0163833 0.0185527 0.14617 0.0387203 0.328361 0.0542567 0.180109
545 3 -12.5962 102.207 58.4059 24.0 0.0261452 0.0333672 0.219511 0.0510769 0.117799 0.038128 0.16039 0.015606 0.0400269 0.176429 0.0570837 0.301581 0.0690132 0.155767
548 3 -10.0972 105.378 59.3779 23.0 0.0174599 0.0781829 0.150225 0.0889264 0.124141 0.0400863 0.202442 0.0147409 0.033669 0.163657 0.0734462 0.348075 0.0738106 0.183566
675 3 -13.0189 101.781 61.5029 21.0 0.0317699 0.0506375 0.197999 0.0285035 0.161784 0.0464344 0.218273 0.0172186 0.0351566 0.137513 0.0516489 0.330003 0.068642 0.20202
678 1 -14.4197 102.908 59.4 25.0 0.0385237 0.081401 0.190648 0.0612254 0.118965 0.0652355 0.204311 0.0188418 0.033007 0.0922473 0.0582132 0.224919 0.0627463 0.221906
679 1 -14.2418 105.17 61.3769 28.0 0.0301009 0.127445 0.111224 0.0603926 0.155218 0.067954 0.230374 0.0269236 0.0210369 0.0738607 0.029925 0.281204 0.0666058 0.25767
681 3 -10.735 103.16 61.3312 22.0 0.0191867 0.0585558 0.170081 0.0372478 0.123691 0.0475662 0.206035 0.028036 0.0126981 0.17975 0.0461281 0.339645 0.0507205 0.204915
683 3 -12.894 103.941 60.2397 22.0 0.0188776 0.0527643 0.119849 0.0790273 0.149608 0.0674708 0.200871 0.00878684 0.0305127 0.174295 0.0547264 0.335487 0.0710184 0.196637
698 1 -11.3867 107.105 59.7679 28.0 0.0263275 0.0187766 0.231187 0.0264807 0.13886 0.0409261 0.248052 0.032455 0.0342516 0.0747656 0.0354655 0.304764 0.0552724 0.251325
1774 3 -8.47817 105.247 53.3495 23.0 0.0297642 0.0904586 0.160284 0.055693 0.153864 0.0416443 0.175235 0.0120509 0.0198262 0.104815 0.0465023 0.289463 0.0601465 0.185703
1884 1 -6.05236 99.0134 58.7022 27.0 0.0430275 0.0936711 0.106444 0.0608603 0.176699 0.077201 0.197203 0.0277726 0.0388971 0.116381 0.033925 0.263417 0.0495338 0.25327
1885 2 -8.28247 100.744 58.7114 24.0 0.014814 0.0810177 0.207862 0.0319091 0.130651 0.0740533 0.196008 0.0418554 0.0205755 0.319946 0.0353105 0.316872 0.0383966 0.223446
1886 3 -5.06833 101.021 58.9252 24.0 0.0224034 0.0616074 0.179744 0.0558753 0.129587 0.0644953 0.199424 0.0204867 0.0354084 0.170823 0.0565065 0.327896 0.0764581 0.192559
1888 3 -7.81454 100.227 57.2269 25.0 0.0230492 0.0613345 0.148713 0.0596602 0.155351 0.0435158 0.189441 0.0210204 0.0252096 0.14414 0.0862124 0.329552 0.0740556 0.179266
1889 3 -7.48361 99.8868 59.7328 23.0 0.0230193 0.0725042 0.134066 0.0702048 0.140988 0.0580987 0.204392 0.0119977 0.0286413 0.134839 0.0284087 0.317097 0.062603 0.175292
1898 1 -8.93048 99.905 55.5614 27.0 0.0336501 0.113354 0.127251 0.0644281 0.173967 0.0619867 0.230611 0.0481115 0.0219944 0.0947895 0.026333 0.302301 0.0694398 0.2946
1901 3 -5.48598 101.574 55.5781 25.0 0.0440692 0.0537285 0.146544 0.035023 0.167249 0.0476802 0.190929 0.0135898 0.0320622 0.131989 0.0691836 0.342432 0.0890667 0.197458
1903 3 -5.42781 98.8007 56.8061 25.0 0.0365494 0.0683589 0.149435 0.0400548 0.185959 0.0382484 0.212439 0.00720393 0.0166623 0.145553 0.0594934 0.36636 0.0625053 0.221228
1904 1 -7.037 102.07 54.0164 28.0 0.0246555 0.048564 0.218075 0.0301697 0.152342 0.0595247 0.197593 0.0396582 0.0416316 0.130727 0.0345926 0.287407 0.0872687 0.299318
1905 1 -7.41961 104.906 54.9277 25.0 0.0158835 0.151554 0.150994 0.0608548 0.117641 0.0642995 0.163901 0.0474795 0.0284465 0.0520295 0.0386587 0.294968 0.0396014 0.231611
1906 2 -4.98246 103.199 55.8221 25.0 0.0295213 0.0478172 0.206096 0.0745285 0.128606 0.0532624 0.145792 0.047689 0.0204018 0.326637 0.0246854 0.32046 0.0344516 0.228179
1907 3 -8.23354 103.265 55.613 25.0 0.0178655 0.0345928 0.186949 0.0366738 0.132906 0.0465828 0.180564 0.0253061 0.0247215 0.12845 0.0477288 0.294657 0.0610342 0.168764
1908 3 -7.23787 106.804 55.1222 21.0 0.0327474 0.0324256 0.254778 0.0242218 0.1519 0.0404689 0.21284 0.0198433 0.0289246 0.108917 0.0516419 0.307089 0.0566734 0.165423
1909 3 -5.8246 103.773 54.5349 22.0 0.0123738 0.0859871 0.154974 0.0466201 0.143301 0.0456934 0.192819 0.0195956 0.0254516 0.114847 0.0599934 0.29864 0.0628728 0.164953
1910 1 -6.34569 101.459 57.2707 23.0 0.0336215 0.057553 0.197129 0.036334 0.117792 0.0460913 0.152826 0.0290084 0.0642163 0.0954083 0.0546567 0.261267 0.0757406 0.248826
1911 3 -5.52209 103.332 57.2842 23.0 0.0324266 0.0348458 0.175334 0.0771323 0.100707 0.0540277 0.144782 0.0176524 0.0337716 0.161937 0.0497395 0.312342 0.0614909 0.176845
1919 1 -6.92895 104.174 58.5377 28.0 0.0210896 0.0803844 0.127902 0.0692033 0.101378 0.0562714 0.153191 0.0416565 0.0283511 0.0729947 0.0526651 0.282995 0.092556 0.200903
1920 2 -9.24776 106.168 58.2249 26.0 0.0149028 0.0534455 0.196353 0.0654454 0.110693 0.045608 0.202355 0.0460876 0.0358845 0.335854 0.0516215 0.321542 0.0546469 0.237924
1921 3 -7.68329 106.151 58.2888 26.0 0.0103334 0.0329519 0.21886 0.0363571 0.139392 0.0414884 0.170453 0.0186558 0.0183303 0.152962 0.0403306 0.336815 0.0529815 0.183474
1922 3 -7.80831 102.29 58.598 25.0 0.0281132 0.0360385 0.223304 0.043107 0.118488 0.0439693 0.150421 0.0146541 0.0350919 0.178684 0.03011 0.315481 0.0524375 0.174181
1923 3 -9.7554 105.722 56.8269 23.0 0.0196436 0.0538434 0.187901 0.0574577 0.121608 0.0531305 0.150453 0.0209401 0.0324144 0.110094 0.0433588 0.2958 0.0577825 0.140024
1925 3 -5.24711 105.187 59.2814 24.0 0.0131831 0.0779457 0.141905 0.0845238 0.124426 0.0403811 0.189302 0.0108821 0.0230106 0.183433 0.0567735 0.335145 0.0562513 0.189484
2052 3 -8.23006 101.812 61.4589 21.0 0.0361235 0.0530775 0.188743 0.0296784 0.163195 0.040592 0.213341 0.0158883 0.0316532 0.140752 0.0394062 0.32033 0.063402 0.192899
2055 1 -9.70261 103.05 59.4272 23.0 0.0421709 0.0815266 0.175604 0.0660874 0.124795 0.0621578 0.195902 0.0258432 0.0126481 0.0822763 0.0519066 0.246615 0.0592864 0.21512
2056 1 -9.37614 105.188 61.4135 26.0 0.0283059 0.120991 0.11003 0.0673202 0.147943 0.082367 0.231133 0.0246095 0.018285 0.0779238 0.0292442 0.286348 0.0662549 0.252064
2057 2 -7.42043 103.19 61.4152 24.0 0.0235943 0.105799 0.204464 0.0416451 0.176597 0.103881 0.236033 0.0446496 0.0211283 0.31996 0.0335799 0.324861 0.046675 0.212867
2058 3 -5.84914 103.033 61.2914 23.0 0.0235431 0.0614544 0.183554 0.0429639 0.118199 0.0478864 0.198331 0.0283445 0.0160656 0.195049 0.0606803 0.339841 0.0579192 0.215812
2060 3 -7.96616 104.1 60.2767 21.0 0.022748 0.0556799 0.108244 0.0676361 0.149404 0.0674021 0.198017 0.00701967 0.0346908 0.189142 0.0608967 0.340485 0.0765296 0.207146
2075 1 -6.57931 107.216 59.7009 28.0 0.0156176 0.0209483 0.221584 0.0315949 0.13674 0.0372555 0.231496 0.0336689 0.0317377 0.0817025 0.0385335 0.305967 0.05812 0.247065
3300 3 -4.88591 105.75 56.6902 23.0 0.0182049 0.0502986 0.177765 0.0610374 0.125592 0.0552602 0.154664 0.0179333 0.0299303 0.114897 0.0436204 0.30516 0.0504421 0.146513
3295 1 -1.0916 107.32 56.546 24.0 0.0191659 0.0291759 0.234009 0.0414225 0.154402 0.0541597 0.212408 0.0393824 0.0344414 0.0918407 0.066215 0.301318 0.0686151 0.233337
3261 1 -1.13901 99.0365 58.7981 25.0 0.0428324 0.0835647 0.128873 0.0524425 0.154128 0.0657926 0.219434 0.0338526 0.044627 0.114564 0.0381158 0.273049 0.0482259 0.252358
3262 2 -3.51487 100.765 58.7514 22.0 0.0258476 0.0897189 0.205745 0.0427711 0.117098 0.0769653 0.184167 0.04353 0.0218415 0.316065 0.0355097 0.322126 0.0394294 0.218174
3263 3 -0.240636 100.942 58.7835 22.0 0.0241054 0.0551586 0.161168 0.0613646 0.104389 0.05244 0.216381 0.0237728 0.0436462 0.170642 0.0581508 0.332488 0.0781027 0.189717
3265 3 -3.08019 100.325 57.2496 26.0 0.028237 0.0710718 0.14806 0.0569698 0.149728 0.0379244 0.191744 0.0225736 0.0239561 0.147573 0.0962926 0.339562 0.0772435 0.194492
3266 3 -2.66838 99.9018 59.7537 23.0 0.0234548 0.0748004 0.137158 0.069984 0.136288 0.0629995 0.213093 0.0124022 0.0310597 0.143291 0.0375263 0.327094 0.0548224 0.181186
3275 1 -4.15289 99.9092 55.5954 25.0 0.037027 0.119835 0.180489 0.0448567 0.157114 0.0723317 0.230976 0.0472937 0.0313911 0.118118 0.0526253 0.297109 0.0866565 0.302449
3278 3 -0.681136 101.569 55.548 26.0 0.0363353 0.0474099 0.136208 0.0317083 0.167013 0.0475865 0.20583 0.0148849 0.0164053 0.124152 0.0562006 0.350298 0.0879639 0.209368
3280 3 -0.537975 98.708 56.8979 23.0 0.0442228 0.06978 0.160982 0.0425125 0.17988 0.0277628 0.240709 0.00786346 0.017031 0.143725 0.0581817 0.373696 0.0569405 0.223963
3281 1 -2.20644 102.156 54.1294 27.0 0.0178352 0.0324777 0.23381 0.0369522 0.143832 0.0442799 0.216307 0.0371417 0.0353848 0.134967 0.038475 0.280202 0.0847119 0.293468
3282 1 -2.57508 104.862 54.8924 25.0 0.0173718 0.123524 0.155031 0.0716567 0.11876 0.0608883 0.17351 0.0525982 0.0345093 0.0614619 0.0332932 0.305745 0.0495997 0.232456
3283 2 -0.158418 103.132 55.766 25.0 0.0376174 0.0476352 0.237153 0.0667004 0.119816 0.0489509 0.169274 0.0459729 0.0216708 0.318683 0.0270396 0.323522 0.0426677 0.221208
3284 3 -3.42819 103.217 55.5983 26.0 0.0167176 0.0348296 0.191839 0.0375275 0.137344 0.0428348 0.184233 0.0230734 0.0297435 0.129535 0.0600317 0.306903 0.0665189 0.186233
3285 3 -2.34338 106.756 55.1694 22.0 0.0339484 0.030882 0.242286 0.034367 0.148005 0.0448027 0.220322 0.0178004 0.0248127 0.111372 0.0437111 0.31475 0.0490301 0.175846
3286 3 -0.955 103.808 54.5761 21.0 0.0123551 0.0835874 0.161253 0.0458795 0.126297 0.0414753 0.18949 0.0169429 0.0250872 0.112388 0.0625663 0.324266 0.0600045 0.184509
3287 1 -1.51564 101.511 57.3302 23.0 0.0386583 0.0567004 0.1985 0.0418173 0.113713 0.0424778 0.181974 0.0254416 0.0485231 0.0979737 0.0506458 0.26083 0.063626 0.244273
3288 3 -0.732743 103.366 57.3076 24.0 0.0395017 0.0397949 0.178662 0.0723604 0.100425 0.0617244 0.167127 0.0166669 0.0281884 0.146859 0.037108 0.300449 0.052907 0.175
3296 1 -2.07867 104.228 58.6222 27.0 0.0261391 0.0800759 0.113584 0.0657453 0.117761 0.0570884 0.140167 0.0355369 0.0385631 0.0714375 0.0459171 0.281108 0.0933013 0.207522
3297 2 -4.4335 106.068 58.0982 27.0 0.0118824 0.0389366 0.208091 0.0831445 0.121124 0.0813548 0.16782 0.0470314 0.0360991 0.33108 0.0465738 0.324578 0.0535475 0.232475
3298 3 -2.83199 106.089 58.2829 27.0 0.0162145 0.0423036 0.192735 0.0424322 0.115497 0.0528299 0.152131 0.020385 0.0182532 0.152293 0.0311956 0.321664 0.0485491 0.183107
3299 3 -2.93366 102.314 58.6687 25.0 0.0385693 0.0281357 0.235957 0.0426265 0.11714 0.0570458 0.165173 0.0199892 0.0284223 0.198803 0.0526168 0.310564 0.0548381 0.194192
3302 3 -0.298265 105.229 59.2566 24.0 0.0231778 0.0718212 0.129874 0.0812901 0.118637 0.0337733 0.18574 0.0101118 0.0218816 0.174685 0.0643367 0.319547 0.0650203 0.182122
3429 3 -3.35904 101.749 61.5335 21.0 0.0352438 0.0479633 0.176704 0.033404 0.152629 0.046192 0.209386 0.015225 0.0332481 0.141637 0.0597837 0.32412 0.0678912 0.206768
3432 1 -4.8397 103.061 59.4699 24.0 0.0424027 0.0809528 0.196931 0.0527162 0.124863 0.0673597 0.216397 0.0335322 0.0296716 0.0895971 0.0611498 0.233419 0.0711733 0.225848
3433 1 -4.44581 105.078 61.3726 27.0 0.0293501 0.116979 0.103461 0.0690249 0.172574 0.0720109 0.211482 0.0309849 0.0335536 0.0738818 0.0364117 0.290565 0.0661644 0.266758
3434 2 -2.55716 103.155 61.5033 24.0 0.0375549 0.0765195 0.267807 0.0587585 0.182412 0.0994962 0.242127 0.0451179 0.022834 0.315075 0.03298 0.329632 0.0485501 0.210045
3435 3 -1.00054 103.051 61.3724 23.0 0.0226864 0.0542575 0.168873 0.0356994 0.115144 0.0450187 0.214528 0.0246858 0.0154843 0.187334 0.0649224 0.327348 0.0602079 0.214756
3437 3 -3.05599 104.115 60.3863 23.0 0.0208514 0.0815426 0.123406 0.0635949 0.122205 0.0614492 0.192406 0.00533752 0.0264976 0.189447 0.0611533 0.323637 0.0825578 0.203175
3452 1 -1.75856 107.31 59.6294 27.0 0.0177632 0.0392182 0.18516 0.043301 0.123552 0.0428063 0.206715 0.0359532 0.0317552 0.0821235 0.0411979 0.303365 0.0594989 0.252225
4638 1 3.70804 99.0166 58.7667 27.0 0.0409591 0.0741081 0.120118 0.0529216 0.159287 0.0523138 0.205118 0.0329929 0.0267646 0.132189 0.0435824 0.268251 0.0576499 0.262633
4639 2 1.29809 100.784 58.6577 24.0 0.0222627 0.0735213 0.198062 0.0468375 0.114946 0.0699112 0.187996 0.0413982 0.0273633 0.315092 0.0431497 0.331089 0.0489823 0.225624
4640 3 4.68101 101.004 58.7666 23.0 0.0264556 0.0644457 0.161171 0.0563611 0.114994 0.0533117 0.193602 0.0187667 0.0287279 0.178212 0.0441541 0.317647 0.0605974 0.182546
4642 3 1.73235 100.318 57.1673 26.0 0.0248547 0.0741211 0.139357 0.0616851 0.153546 0.0411308 0.196552 0.0217123 0.0249583 0.145992 0.0907921 0.334901 0.0759648 0.191615
4643 3 2.21413 99.9337 59.6301 22.0 0.0255136 0.0725035 0.125002 0.0675641 0.131995 0.0544885 0.20766 0.0142877 0.0276338 0.139198 0.0344587 0.314647 0.0512476 0.16801
4652 1 0.680353 99.7764 55.6048 26.0 0.0483188 0.0818553 0.118952 0.0688634 0.18541 0.054002 0.248352 0.0518391 0.0301385 0.0956854 0.0466322 0.302752 0.0813556 0.292763
4655 3 4.20839 101.62 55.5358 25.0 0.0391761 0.0562381 0.151548 0.0436613 0.181547 0.0395761 0.190295 0.0133752 0.0276197 0.120152 0.0603498 0.340868 0.0886875 0.203903
4657 3 4.22764 98.8268 56.8424 24.0 0.0351323 0.0786718 0.160225 0.046563 0.165706 0.043723 0.212148 0.0100837 0.0204027 0.144354 0.0702181 0.352246 0.071459 0.209812
4658 1 2.61677 101.994 54.3188 27.0 0.0121352 0.0558004 0.207312 0.0393535 0.168299 0.0522108 0.208288 0.039567 0.0389767 0.136406 0.0409674 0.276139 0.0787771 0.292923
4659 1 1.9106 104.993 55.191 24.0 0.0210776 0.13364 0.14653 0.0550723 0.12383 0.0702933 0.191505 0.0443479 0.036661 0.0912507 0.0384855 0.304653 0.0518478 0.235206
4660 2 4.67169 103.189 55.799 25.0 0.0235623 0.0322919 0.237703 0.058675 0.133358 0.0559614 0.17955 0.0444791 0.0154592 0.321019 0.0251101 0.329022 0.0308064 0.231284
4661 3 1.35564 103.112 55.6023 25.0 0.0238026 0.0258946 0.211444 0.0264265 0.139179 0.0437392 0.192176 0.0201404 0.0316897 0.122916 0.0556061 0.300386 0.070435 0.180483
4662 3 2.60366 106.803 55.1334 22.0 0.0296325 0.0400072 0.234486 0.0327831 0.156827 0.0538643 0.229446 0.0178617 0.021038 0.115318 0.0453634 0.316504 0.0529677 0.176474
4663 3 3.78466 103.84 54.586 21.0 0.00884964 0.0844613 0.16502 0.048339 0.141717 0.0432695 0.194506 0.0153168 0.0211355 0.115502 0.0548903 0.311183 0.0659367 0.176499
4664 1 3.35203 101.291 57.3049 25.0 0.0355645 0.0666482 0.168203 0.0621777 0.134347 0.0544749 0.184372 0.0249257 0.0454681 0.106676 0.052737 0.261833 0.0606399 0.243663
4665 3 4.12114 103.304 57.3567 24.0 0.0374547 0.0290152 0.181167 0.0672701 0.102008 0.0618085 0.180816 0.0145192 0.0304724 0.159148 0.0471004 0.302155 0.0480214 0.167886
4673 1 2.79259 104.167 58.5554 28.0 0.0292422 0.0756953 0.128769 0.0776879 0.108604 0.0663226 0.178803 0.0369181 0.038367 0.083461 0.0503109 0.270192 0.092233 0.208705
4674 2 0.458763 106.065 58.1688 26.0 0.0176647 0.0384983 0.209907 0.0925077 0.125197 0.0917655 0.188245 0.046389 0.0344344 0.326713 0.047179 0.328168 0.0518216 0.23035
4675 3 2.04602 106.03 58.3403 26.0 0.0169867 0.0531667 0.214699 0.0371991 0.130001 0.0551278 0.178428 0.0185521 0.0159128 0.143466 0.0320713 0.317019 0.0394128 0.176214
4676 3 1.82427 102.316 58.5943 23.0 0.0365519 0.0301441 0.232953 0.0476319 0.112337 0.0589119 0.171173 0.0154444 0.0186388 0.179484 0.0377995 0.299571 0.0433746 0.182791
4677 3 0.239578 105.727 56.607 24.0 0.0216969 0.0516525 0.161128 0.0579608 0.123028 0.063368 0.162922 0.0139875 0.0174555 0.122308 0.0453899 0.304692 0.0560161 0.167857
4679 3 4.50106 105.252 59.3478 22.0 0.01913 0.0657223 0.122727 0.0884881 0.124237 0.0442211 0.189902 0.00977906 0.0193516 0.168728 0.063471 0.321493 0.0573097 0.167583
4803 1 2.12031 99.9291 61.646 26.0 0.0490376 0.118861 0.0945682 0.0625507 0.157396 0.0889723 0.248101 0.0334565 0.034011 0.0782296 0.0442412 0.267204 0.0585075 0.234497
4806 3 1.57873 101.829 61.5419 22.0 0.0364004 0.0536807 0.191433 0.0303805 0.142891 0.0415083 0.216711 0.0160194 0.0287815 0.139508 0.0636239 0.320905 0.0682275 0.193735
4809 1 0.215781 103.046 59.6573 23.0 0.048443 0.0770367 0.237129 0.054306 0.106284 0.0575554 0.237157 0.0332774 0.0326966 0.0896268 0.0498763 0.252221 0.0715284 0.226117