ITEM: TIMESTEP
8500
ITEM: NUMBER OF ATOMS
371
ITEM: BOX BOUNDS pp pp pp
-14.54184 24.2364
80.0 135.0
35.0 90.0
ITEM: ATOMS id type x y z coord q2 q3 q4 q5 q6 q7 q8 q2_mono q3_mono q4_mono q5_mono q6_mono q7_mono q8_mono
10148 3 24.0193 100.856 58.7301 22.0 0.0256739 0.0476743 0.154846 0.0617085 0.119047 0.0329438 0.192271 0.0236627 0.043692 0.161608 0.053383 0.333747 0.0786583 0.181804
8809 1 18.5811 107.245 53.6714 28.0 0.0230007 0.0387219 0.274299 0.0289251 0.159987 0.0452944 0.240244 0.0379896 0.0256448 0.091355 0.0577141 0.28477 0.0623611 0.269176
4678 1 3.96457 107.211 53.7354 28.0 0.0218037 0.0193902 0.247186 0.0276781 0.160527 0.0389404 0.235057 0.044003 0.0298087 0.0765415 0.0493812 0.277343 0.0545021 0.274636
10166 1 21.9954 102.134 54.2944 27.0 0.0245994 0.0549344 0.186171 0.0426201 0.149428 0.049014 0.220232 0.0342939 0.0425252 0.13478 0.040396 0.265899 0.0890834 0.2797
10164 3 23.3729 98.6426 54.2444 25.0 0.030251 0.0690701 0.180492 0.0362182 0.171541 0.0445089 0.239919 0.00615406 0.0129413 0.126561 0.0580764 0.389379 0.0602693 0.248574
10165 3 23.6951 98.7263 56.7973 24.0 0.0315679 0.0603417 0.145861 0.0717607 0.169854 0.0454211 0.205947 0.0102036 0.0152164 0.144694 0.0661724 0.362788 0.0661906 0.219365
393 3 -11.4458 106.163 52.399 24.0 0.0223466 0.05485 0.216308 0.0293094 0.14997 0.0411803 0.227428 0.0272487 0.0179861 0.101073 0.0486294 0.352323 0.0480167 0.245476
1768 1 -5.16908 104.2 52.5387 26.0 0.0360453 0.118033 0.10449 0.074223 0.172155 0.065827 0.240046 0.0399196 0.0211863 0.0812046 0.0406703 0.268513 0.0573442 0.282302
1770 3 -6.559 106.276 52.3255 23.0 0.0270459 0.049569 0.184871 0.0294037 0.141409 0.0464998 0.216738 0.0302399 0.0200664 0.120692 0.044851 0.342481 0.0380663 0.249247
397 3 -13.7676 105.393 53.5128 24.0 0.0261924 0.0742503 0.220148 0.0613298 0.163082 0.0543136 0.219734 0.0103307 0.017289 0.10699 0.0434843 0.306148 0.0569988 0.195995
3144 1 -0.657611 106.885 50.5747 27.0 0.0441695 0.0785447 0.21381 0.0259537 0.162805 0.0534243 0.226612 0.0389648 0.0226317 0.0743449 0.0492846 0.281574 0.0474723 0.298773
3145 1 -0.360891 104.135 52.829 26.0 0.0301473 0.131678 0.114853 0.0544107 0.182084 0.064619 0.222947 0.0403003 0.0350316 0.104852 0.0403098 0.269015 0.0599707 0.298789
3146 2 -3.3898 106.215 52.1566 25.0 0.0335821 0.0600202 0.257419 0.0645225 0.171935 0.0561752 0.223048 0.0451705 0.0221257 0.297661 0.0330172 0.336054 0.0430232 0.197898
3147 3 -1.79522 106.339 52.1516 23.0 0.0382573 0.0470775 0.196005 0.020201 0.160782 0.0555054 0.19628 0.0227666 0.0168044 0.106895 0.0484944 0.345337 0.0446042 0.242093
3148 3 -3.78287 102.628 52.7181 26.0 0.0276388 0.0443403 0.16847 0.045415 0.179113 0.0464503 0.228408 0.0185852 0.0159125 0.112935 0.0425772 0.33208 0.0749374 0.203281
3149 3 -3.91174 105.431 50.9133 24.0 0.0341686 0.103549 0.137252 0.0203469 0.185183 0.0465546 0.246808 0.0141027 0.0111974 0.125804 0.0377784 0.36712 0.0579647 0.239529
4523 2 1.41719 106.239 52.0611 25.0 0.0295208 0.083214 0.232399 0.0674496 0.166586 0.0626609 0.231614 0.0458214 0.0183434 0.292334 0.0383749 0.33883 0.0409508 0.19222
4524 3 3.00166 106.285 52.2144 22.0 0.0236261 0.0582207 0.209519 0.0252625 0.161747 0.0519658 0.230427 0.0217167 0.0210258 0.110265 0.0473707 0.348071 0.0458581 0.245588
4525 3 1.13022 102.597 52.7957 25.0 0.031384 0.037489 0.162157 0.0535899 0.17916 0.0339206 0.238506 0.0161994 0.0130565 0.113628 0.0433602 0.335764 0.0764754 0.203308
4526 3 0.9595 105.545 50.7603 24.0 0.0336441 0.101034 0.130303 0.0395499 0.181607 0.0549244 0.229227 0.0112977 0.0193116 0.110142 0.04089 0.3667 0.0467374 0.238589
5901 3 7.92876 106.191 52.3353 22.0 0.0204752 0.063529 0.199609 0.0392344 0.160254 0.0438465 0.242326 0.0215462 0.0166022 0.119183 0.0485428 0.356696 0.0397634 0.246132
5902 3 6.03214 102.486 52.6946 25.0 0.0328409 0.0381824 0.175618 0.0457058 0.175435 0.0352822 0.242655 0.0141391 0.0127992 0.125017 0.0436802 0.36405 0.070894 0.222298
5903 3 5.7669 105.586 50.9493 24.0 0.0341955 0.0693474 0.125286 0.0310492 0.184841 0.0466329 0.248914 0.014129 0.0186425 0.122155 0.0533871 0.375766 0.0523136 0.247135
7278 3 12.679 106.411 52.2147 24.0 0.0288064 0.0531783 0.205916 0.0299312 0.157848 0.0364962 0.217246 0.0259206 0.0285687 0.122072 0.0592796 0.347924 0.0455285 0.248052
8654 2 16.0089 106.207 52.1453 25.0 0.0360864 0.0451699 0.252775 0.0716818 0.158964 0.0534558 0.249358 0.0453093 0.0194771 0.298508 0.0318076 0.338946 0.0460298 0.20062
8655 3 17.5488 106.42 52.1438 24.0 0.027196 0.0529526 0.214884 0.0274305 0.145093 0.0420331 0.221721 0.0241162 0.0229645 0.118534 0.0545088 0.34271 0.0427145 0.253695
8656 3 15.814 102.572 52.638 25.0 0.0294436 0.0435026 0.160788 0.0625595 0.148996 0.0502363 0.240605 0.0149172 0.0168744 0.114267 0.0541464 0.337932 0.090274 0.214046
9997 3 23.2695 101.19 52.7683 24.0 0.0282072 0.0416361 0.237566 0.0371305 0.158542 0.0342189 0.245068 0.0229497 0.0172609 0.106422 0.0396121 0.374589 0.0502834 0.256535
10032 3 22.5457 106.173 52.4328 23.0 0.0292978 0.0507613 0.213425 0.0324581 0.151899 0.0365135 0.24203 0.0267461 0.0198754 0.110895 0.0509593 0.34484 0.0390958 0.241643
10033 3 20.5122 102.468 52.587 26.0 0.0330675 0.050149 0.185796 0.0600653 0.161815 0.0343963 0.235699 0.0178514 0.0124986 0.118524 0.0488024 0.335125 0.0847351 0.212761
510 3 -11.954 97.1861 58.5107 23.0 0.0484832 0.0367479 0.213231 0.0391973 0.152503 0.0447664 0.228091 0.0125566 0.0254229 0.143042 0.0504821 0.367801 0.0589075 0.218326
513 1 -13.5874 97.214 57.2052 30.0 0.0226057 0.0306118 0.173633 0.0326189 0.154165 0.051097 0.214666 0.0340669 0.035326 0.091061 0.0387136 0.299641 0.0462612 0.31226
523 3 -12.5636 97.8093 55.5726 24.0 0.0315915 0.0396733 0.234699 0.0344337 0.168436 0.0422238 0.230289 0.0232229 0.0125931 0.121061 0.0466792 0.383602 0.0413094 0.252216
1887 3 -7.08772 97.1545 58.4497 22.0 0.0479871 0.039601 0.177759 0.0409343 0.154576 0.0404249 0.228081 0.0154633 0.0166313 0.148372 0.050071 0.376631 0.0591247 0.224142
1890 1 -8.64512 96.6981 57.0877 28.0 0.0309912 0.0418602 0.224153 0.0365309 0.171766 0.0341146 0.247545 0.0352297 0.0350175 0.0908789 0.0364804 0.298627 0.0570732 0.314001
1893 3 -9.62815 95.8521 58.6268 22.0 0.0282395 0.0604751 0.243993 0.029656 0.166748 0.053923 0.235739 0.0200563 0.014578 0.128966 0.0319745 0.384845 0.0475199 0.239628
1900 3 -7.76669 97.7482 55.5684 23.0 0.0270067 0.0530009 0.242533 0.031733 0.165126 0.0454486 0.239519 0.0214804 0.00819892 0.124145 0.0470057 0.384281 0.0435084 0.250991
2051 3 -6.75006 97.6234 61.7288 24.0 0.0265239 0.0253452 0.204334 0.0421268 0.123343 0.046106 0.248381 0.0145134 0.0241714 0.121207 0.0336586 0.373984 0.0502884 0.225874
3270 3 -4.74278 95.9741 58.5785 24.0 0.0245975 0.0659386 0.222122 0.0319567 0.141554 0.0527007 0.232419 0.0170349 0.0159697 0.123696 0.028406 0.386089 0.0427979 0.236481
3264 3 -2.20745 97.2424 58.4332 24.0 0.0405567 0.0403108 0.183524 0.0383933 0.130119 0.0451176 0.227914 0.0162234 0.0156273 0.145589 0.0473726 0.381182 0.0521531 0.219994
3267 1 -3.93289 97.283 57.258 28.0 0.0284169 0.0490949 0.18008 0.0446672 0.134967 0.0478893 0.208345 0.0377843 0.0330275 0.0911469 0.0310383 0.300037 0.0505861 0.312465
3272 3 -2.29992 94.9215 57.4706 24.0 0.0272257 0.0844818 0.139913 0.0546289 0.159593 0.0497953 0.249462 0.00648192 0.0273313 0.126559 0.0375878 0.395063 0.0453583 0.239987
3277 3 -2.91244 97.7072 55.6509 24.0 0.0292348 0.0392622 0.230879 0.0313433 0.163523 0.0375446 0.236032 0.0198063 0.0103032 0.120868 0.0348517 0.395871 0.0348245 0.256686
3424 1 -3.50285 96.9301 60.1352 28.0 0.0437708 0.0486934 0.190071 0.0564904 0.130824 0.0375956 0.245333 0.0381793 0.0201775 0.107101 0.0287913 0.280825 0.03649 0.292645
3428 3 -1.97615 97.7228 61.57 24.0 0.0241314 0.041726 0.202941 0.0376664 0.13496 0.0399827 0.239312 0.0185996 0.0268706 0.108471 0.0277045 0.366353 0.043531 0.226215
4647 3 -0.00185873 95.8612 58.6465 24.0 0.021668 0.041155 0.221664 0.0356327 0.146 0.0481435 0.245463 0.0184661 0.0113025 0.12402 0.0296161 0.39888 0.041166 0.241013
4807 3 -0.00316046 98.411 60.1873 25.0 0.0144068 0.0688332 0.150215 0.0409314 0.133512 0.0468696 0.233139 0.0109656 0.0185796 0.145339 0.0392135 0.349141 0.0549041 0.194775
6184 3 4.88222 98.3303 60.2226 26.0 0.0147933 0.0521033 0.169617 0.0489042 0.144597 0.0328852 0.232473 0.00912715 0.0192707 0.146422 0.0366196 0.349861 0.0493154 0.188128
6024 3 4.90486 95.9545 58.7442 24.0 0.0243713 0.0594529 0.256119 0.0306663 0.150352 0.0443999 0.240466 0.0202031 0.0141751 0.130623 0.0310133 0.399457 0.040026 0.240196
6182 3 7.72566 97.807 61.7126 23.0 0.024064 0.046276 0.202689 0.0416021 0.147095 0.0471019 0.245169 0.0135916 0.0248199 0.11738 0.0342355 0.3803 0.0505547 0.220929
7395 3 12.4042 97.2687 58.584 25.0 0.0455396 0.0398766 0.244405 0.0344586 0.149531 0.0401718 0.248977 0.01462 0.02335 0.137556 0.0462676 0.364449 0.0497708 0.215077
7408 3 11.5878 97.9239 55.6722 24.0 0.0279587 0.0506566 0.252818 0.0365577 0.168789 0.0346324 0.246152 0.02057 0.00936066 0.104729 0.0279873 0.373572 0.0338118 0.246247
7559 3 12.4786 97.734 61.6363 23.0 0.0199836 0.0520081 0.224537 0.0341105 0.144992 0.0537435 0.249673 0.0148229 0.0249757 0.113391 0.0380198 0.362458 0.0605645 0.208244
7561 3 9.66297 98.3569 60.2574 24.0 0.0149543 0.0536289 0.166964 0.045475 0.154117 0.0433382 0.235122 0.0112568 0.0211726 0.140319 0.0392601 0.342604 0.0537846 0.188104
8938 3 14.5811 98.204 60.2397 24.0 0.0144579 0.0515711 0.166681 0.0500876 0.141603 0.036745 0.221508 0.0090001 0.0270249 0.142603 0.0384304 0.327158 0.0558577 0.179596
8778 3 14.6215 95.9204 58.6862 23.0 0.0249641 0.0639118 0.24759 0.0389467 0.15576 0.051337 0.243456 0.0200259 0.0144735 0.118766 0.034393 0.371474 0.0421187 0.230142
8765 3 18.7632 96.5348 55.6456 26.0 0.0433731 0.0543814 0.210565 0.0272967 0.197836 0.0379693 0.245293 0.0144281 0.0213405 0.14094 0.0425769 0.381231 0.0571653 0.241231
8772 3 17.1745 97.2106 58.4292 22.0 0.0460443 0.0441234 0.234293 0.028339 0.14927 0.0396852 0.234775 0.0133198 0.0214161 0.149922 0.0603605 0.353864 0.0620705 0.205002
8775 1 15.4454 97.0759 57.1931 30.0 0.0290709 0.0298044 0.190328 0.0261206 0.161602 0.0497426 0.212213 0.0374897 0.0253208 0.0902946 0.0315051 0.310479 0.0331182 0.307267
8784 2 17.9667 98.0212 55.5615 27.0 0.0309974 0.0656494 0.268973 0.0716004 0.162888 0.0580238 0.235577 0.0402964 0.0361065 0.293376 0.0567132 0.333652 0.0730512 0.198922
8785 3 16.3762 97.8101 55.6024 22.0 0.0329776 0.0480369 0.240535 0.0368318 0.162945 0.0455801 0.222226 0.022227 0.00972359 0.117407 0.0436645 0.367855 0.0474575 0.243615
8932 1 16.0509 96.9148 60.1252 26.0 0.0374359 0.0627728 0.240527 0.0568286 0.12732 0.0752288 0.245959 0.0410098 0.0364603 0.104105 0.0399524 0.295425 0.0544499 0.298677
8936 3 17.4389 97.7052 61.6715 23.0 0.019247 0.0551958 0.220198 0.039222 0.1296 0.0556923 0.235642 0.0181991 0.0271898 0.113219 0.0359513 0.340718 0.0595373 0.20317
10152 1 20.4486 96.7315 57.0212 29.0 0.0296952 0.0321601 0.203855 0.0328435 0.157916 0.0516184 0.218329 0.0354053 0.0357909 0.0880923 0.0337168 0.312533 0.0387681 0.311107
10161 2 22.9016 97.9753 55.5993 26.0 0.0249605 0.102859 0.270083 0.0534017 0.153783 0.0704688 0.24105 0.0410356 0.0340781 0.293794 0.0559843 0.331986 0.0706688 0.199718
10162 3 21.3784 97.7699 55.6145 24.0 0.03918 0.0536075 0.231455 0.0268346 0.153842 0.0392375 0.215081 0.0230415 0.00905065 0.126774 0.0420127 0.37826 0.0420264 0.256602
10170 3 21.8572 106.702 55.1864 22.0 0.0336818 0.0369056 0.249113 0.0322688 0.163993 0.0466674 0.243517 0.018183 0.0183888 0.118679 0.0480753 0.320176 0.049303 0.178977
1924 1 -5.56921 106.585 54.0891 25.0 0.029592 0.0720317 0.226534 0.0550155 0.135256 0.0734812 0.20993 0.0391234 0.026147 0.0767258 0.0585318 0.250285 0.0701708 0.274214
2053 3 -9.6412 98.4319 60.3422 26.0 0.0230864 0.0513573 0.146036 0.0425592 0.128625 0.0377464 0.228269 0.0128305 0.0185964 0.150749 0.0323502 0.341733 0.0497238 0.194426
3430 3 -4.91458 98.2756 60.2056 26.0 0.021237 0.0446225 0.143069 0.0573663 0.124293 0.0339523 0.233344 0.0102664 0.0219477 0.145141 0.0475408 0.351797 0.0531107 0.193024
1774 3 -8.79317 105.401 53.4108 24.0 0.0209261 0.101164 0.191237 0.0607481 0.150707 0.035724 0.214506 0.0128484 0.017139 0.112429 0.0435137 0.304389 0.074519 0.205212
361 3 -13.1618 100.432 53.9631 22.0 0.0253099 0.0941828 0.130986 0.0448355 0.164446 0.0543922 0.237156 0.00801336 0.0187073 0.114458 0.0380217 0.360297 0.0730674 0.220784
507 1 -10.8538 98.9025 58.8944 25.0 0.0413887 0.112953 0.101796 0.0508828 0.158697 0.0701289 0.176469 0.0398507 0.0337263 0.144287 0.0466774 0.264437 0.0637043 0.261438
508 2 -13.211 100.721 58.5985 25.0 0.0157679 0.0983663 0.167075 0.0493051 0.136896 0.0620296 0.159968 0.0402475 0.0306556 0.312214 0.045499 0.326352 0.0567117 0.218569
509 3 -9.88972 100.879 58.8569 23.0 0.0169954 0.0449407 0.170245 0.055734 0.131763 0.0334902 0.194368 0.0217625 0.0344257 0.182219 0.0326007 0.33084 0.070023 0.187862
511 3 -12.7674 100.339 57.1428 26.0 0.0197865 0.0808426 0.123587 0.0600304 0.152775 0.0671837 0.177241 0.0200382 0.0265431 0.141959 0.0851316 0.325743 0.084607 0.186971
512 3 -12.4333 99.7775 59.6067 24.0 0.0321636 0.0598408 0.129753 0.0805418 0.137876 0.0556547 0.195714 0.0152881 0.0278963 0.141029 0.0406838 0.31958 0.0578117 0.178983
521 1 -13.9744 99.9848 55.6386 27.0 0.0475967 0.0742105 0.120416 0.062348 0.16626 0.0587583 0.199534 0.0310415 0.0204807 0.0972809 0.0349426 0.26945 0.0623856 0.253989
524 3 -10.4029 101.581 55.5435 25.0 0.0394191 0.061403 0.133736 0.0426389 0.177207 0.0558868 0.190173 0.0123107 0.0326872 0.124195 0.0686272 0.327598 0.0895997 0.190668
526 3 -10.4092 98.7969 56.8328 23.0 0.0445923 0.0655907 0.152587 0.0506897 0.187482 0.0415947 0.206827 0.0104925 0.0139674 0.149395 0.0638215 0.35819 0.0588976 0.227012
527 1 -11.9469 101.983 54.1722 27.0 0.029416 0.043329 0.200677 0.0321545 0.154946 0.0404842 0.22569 0.0373701 0.0253675 0.116133 0.0442495 0.267937 0.0885484 0.272397
528 1 -12.4449 104.791 54.9034 26.0 0.023966 0.130881 0.150544 0.0771648 0.117325 0.0574196 0.191934 0.0445487 0.0267608 0.0722808 0.0325373 0.291349 0.0348214 0.225212
529 2 -9.92223 103.125 55.8966 25.0 0.0271079 0.0562329 0.208991 0.0830174 0.115863 0.0525757 0.154186 0.0434085 0.0202794 0.322352 0.0261328 0.320331 0.0349824 0.226506
530 3 -13.3007 103.315 55.8257 28.0 0.0133358 0.0475645 0.183942 0.0323101 0.150853 0.0472284 0.18483 0.020432 0.0332343 0.115205 0.0507109 0.289536 0.0684939 0.167357
531 3 -12.051 106.78 55.1754 22.0 0.034209 0.0487503 0.26733 0.0407628 0.164833 0.045604 0.233099 0.0167454 0.0221975 0.109621 0.0400055 0.318067 0.0533744 0.169582
532 3 -10.8036 103.742 54.6554 21.0 0.014404 0.0801161 0.15047 0.049715 0.131395 0.0418401 0.190128 0.0142822 0.0209018 0.10426 0.0530394 0.306555 0.0550257 0.171538
533 1 -11.0959 101.333 57.4065 23.0 0.0321234 0.0524754 0.166636 0.0312294 0.134803 0.038871 0.16155 0.024406 0.065462 0.101505 0.0498745 0.263765 0.0729251 0.240576
534 3 -10.3788 103.231 57.4766 26.0 0.0312734 0.0429547 0.154784 0.0746789 0.101724 0.07312 0.160049 0.0136612 0.0290883 0.146817 0.0535739 0.300977 0.0435565 0.165357
542 1 -11.9091 104.165 58.5087 27.0 0.0277155 0.080614 0.119391 0.0704571 0.10501 0.0569828 0.153199 0.0334321 0.0509867 0.0721591 0.0468736 0.280445 0.0869491 0.203035
543 2 -14.137 106.122 58.271 26.0 0.0151922 0.0325587 0.221049 0.0670347 0.107046 0.0555108 0.191157 0.0475256 0.0207794 0.321186 0.0327258 0.329701 0.0387675 0.215219
544 3 -12.5845 106.087 58.3407 27.0 0.0147475 0.0444849 0.213615 0.0413186 0.115194 0.0541764 0.178732 0.0204896 0.0138329 0.139461 0.0450148 0.331966 0.0532172 0.186569
545 3 -12.6634 102.262 58.6094 26.0 0.0254321 0.0410292 0.215079 0.0558836 0.13374 0.0410048 0.160809 0.0159116 0.0353285 0.167158 0.0423095 0.308891 0.0585227 0.16794
548 3 -10.0916 105.519 59.3924 22.0 0.021411 0.0831276 0.15169 0.0636961 0.129315 0.052215 0.218996 0.0129647 0.0307876 0.154418 0.068109 0.343512 0.0721887 0.193539
675 3 -13.123 101.677 61.4695 21.0 0.0337203 0.0480437 0.182244 0.0380068 0.163644 0.046809 0.204347 0.0166769 0.032038 0.138136 0.0550125 0.318871 0.0735164 0.195105
678 1 24.3194 102.909 59.4698 25.0 0.0450879 0.0755356 0.185366 0.067758 0.120101 0.0599477 0.209824 0.0266011 0.0671323 0.0869647 0.0545265 0.23561 0.0938204 0.208931
679 1 -14.1287 105.054 61.5088 28.0 0.0289837 0.122503 0.115933 0.0672062 0.139968 0.0821548 0.218595 0.0341178 0.0266298 0.0711551 0.0384167 0.281096 0.0687556 0.265166
680 2 -12.2897 103.041 61.4379 24.0 0.029258 0.0703304 0.247705 0.069254 0.179838 0.098222 0.215015 0.045809 0.0199437 0.32206 0.0326918 0.324125 0.0421512 0.212161
681 3 -10.7386 102.97 61.2902 24.0 0.0260906 0.061243 0.163637 0.0415088 0.122756 0.0481135 0.179117 0.0241636 0.0225863 0.166013 0.057937 0.330494 0.0684717 0.203614
683 3 -12.7797 103.984 60.3048 21.0 0.0238784 0.0491833 0.110667 0.0736213 0.139606 0.0676161 0.191477 0.0105874 0.0272554 0.170568 0.0642157 0.335653 0.0881031 0.201801
698 1 -11.4235 107.115 59.7116 28.0 0.0193894 0.0421817 0.23314 0.0404561 0.131603 0.0374456 0.244027 0.0349561 0.0300848 0.0732237 0.0302852 0.30224 0.0516925 0.245607
1738 3 -8.25988 100.489 53.7843 22.0 0.0236008 0.0994448 0.133951 0.0460407 0.177728 0.0588374 0.249833 0.0126469 0.0175233 0.113763 0.0477802 0.357808 0.0757135 0.221873
1884 1 -6.03137 98.9608 58.7767 25.0 0.0422889 0.0926956 0.10556 0.0669641 0.1447 0.0662436 0.189299 0.0268418 0.0411746 0.125653 0.0384903 0.261127 0.0549569 0.246882
1885 2 -8.34068 100.652 58.7431 24.0 0.0119048 0.0900005 0.195197 0.0353685 0.137473 0.0800955 0.190357 0.0400796 0.0219869 0.314858 0.0354946 0.316544 0.0378886 0.213825
1886 3 -5.05647 100.903 58.6979 22.0 0.0258863 0.0497989 0.172086 0.0610907 0.104229 0.0337331 0.185015 0.0243099 0.0445555 0.172852 0.0518293 0.339481 0.0821554 0.185841
1888 3 -8.03055 100.158 57.1825 25.0 0.022859 0.073695 0.141925 0.0634922 0.159709 0.0443343 0.187537 0.0215974 0.0180566 0.152437 0.0777839 0.341552 0.0767979 0.195889
1889 3 -7.45639 99.784 59.7005 22.0 0.0245269 0.0779041 0.126892 0.0719653 0.12171 0.0617645 0.207247 0.0136219 0.0238269 0.154537 0.0400151 0.33427 0.0539413 0.187998
1898 1 -9.16779 99.8157 55.5441 26.0 0.0422753 0.0965434 0.106967 0.0587867 0.209183 0.0670769 0.220728 0.0463153 0.0325328 0.103858 0.0547611 0.296766 0.0734281 0.292149
1901 3 -5.49553 101.65 55.5948 23.0 0.028866 0.0471407 0.172018 0.0416757 0.155456 0.0405603 0.176345 0.0194096 0.0384888 0.139231 0.0617898 0.330496 0.085764 0.180315
1902 3 -5.63927 98.6215 54.3018 25.0 0.0335077 0.100565 0.166925 0.0395228 0.172863 0.0451847 0.245362 0.0106668 0.0154727 0.123096 0.0629764 0.391917 0.0704152 0.248754
1903 3 -5.46349 98.7332 56.7937 24.0 0.0326774 0.0643839 0.146401 0.0658452 0.160039 0.049023 0.198665 0.009292 0.00968639 0.145234 0.0620341 0.368235 0.056408 0.223488
1904 1 -7.14424 102.146 54.2518 25.0 0.0172584 0.0686667 0.214108 0.0452266 0.156291 0.0413186 0.208003 0.0397668 0.0396712 0.130161 0.0416221 0.270688 0.0817146 0.275012
1905 1 -7.84404 105.011 55.1814 25.0 0.0180431 0.131014 0.153603 0.0728765 0.112232 0.0612597 0.166043 0.0469668 0.0409722 0.0739762 0.0315803 0.280668 0.0463143 0.222811
1906 2 -5.06133 103.318 55.8741 25.0 0.0315382 0.0706732 0.234234 0.0658355 0.141901 0.0482392 0.180787 0.0429266 0.0252051 0.325412 0.038548 0.316904 0.0478053 0.230336
1907 3 -8.35124 103.201 55.7024 25.0 0.0222675 0.0432624 0.213954 0.0441078 0.135347 0.0457608 0.17876 0.0206262 0.0326671 0.120818 0.0363044 0.285695 0.0632216 0.172682
1908 3 -7.3557 106.924 55.2058 22.0 0.0306579 0.0376902 0.229386 0.0393481 0.148195 0.0569125 0.208309 0.018303 0.0291685 0.117562 0.0554879 0.322786 0.0647294 0.196619
1909 3 -5.96465 104.056 54.7675 24.0 0.0187334 0.0737413 0.163994 0.0528491 0.126493 0.0375159 0.163956 0.0149156 0.0232974 0.105863 0.0525831 0.297259 0.0559519 0.158627
1910 1 -6.39795 101.445 57.3004 23.0 0.0251916 0.033849 0.203784 0.0360589 0.131807 0.041838 0.162833 0.0271709 0.0686665 0.102746 0.0497785 0.267698 0.0766483 0.242657
1911 3 -5.60238 103.35 57.494 22.0 0.0430369 0.0487925 0.169768 0.073834 0.118313 0.0644523 0.172822 0.022223 0.027828 0.161352 0.0487081 0.310398 0.0500006 0.170663
1919 1 -6.93017 104.301 58.6171 28.0 0.0394331 0.0680798 0.13319 0.0745815 0.125442 0.0544525 0.1661 0.032246 0.0364989 0.0821255 0.042019 0.289988 0.0857662 0.209411
1920 2 -9.24506 106.208 58.2587 26.0 0.0170304 0.0579763 0.206569 0.0690684 0.132623 0.0609685 0.212137 0.0474872 0.0349587 0.328976 0.0496041 0.327858 0.0504605 0.228096
1921 3 -7.65109 106.235 58.3895 24.0 0.0141492 0.0605985 0.228543 0.0385538 0.141767 0.0530515 0.210251 0.01603 0.0107278 0.138717 0.0391534 0.326227 0.0439816 0.199398
1922 3 -7.76385 102.165 58.5937 21.0 0.032459 0.0274427 0.236607 0.0449285 0.114029 0.0480091 0.155639 0.0130509 0.023534 0.164515 0.0310742 0.308115 0.0477697 0.173582
1923 3 -9.48753 105.707 56.7819 24.0 0.0181295 0.049883 0.179065 0.0537091 0.129397 0.068439 0.176217 0.0125357 0.0138704 0.131453 0.0358339 0.308429 0.0503879 0.170841
1925 3 -5.24627 105.491 59.425 22.0 0.022744 0.0717782 0.159607 0.0793748 0.130269 0.0369638 0.214288 0.0129212 0.0300921 0.156381 0.0702071 0.351545 0.0673265 0.202077
2052 3 -8.04761 101.675 61.4977 21.0 0.0381164 0.0376741 0.210885 0.0273646 0.143321 0.0556127 0.205139 0.0174131 0.0326329 0.146802 0.0447536 0.330477 0.0605673 0.204978
2055 1 -9.54501 102.907 59.3616 25.0 0.0379704 0.0834064 0.187159 0.0647831 0.127171 0.0679001 0.196281 0.0204244 0.0359062 0.0931935 0.0589899 0.241286 0.0547359 0.208612
2056 1 -9.43123 105.129 61.3688 29.0 0.038991 0.115174 0.12534 0.0594121 0.162084 0.0751795 0.231511 0.0351339 0.0303899 0.0727571 0.0264008 0.292363 0.0603036 0.263633
2057 2 -7.42562 103.154 61.4711 24.0 0.0311337 0.0823703 0.257877 0.0496274 0.172002 0.0912349 0.23202 0.0436599 0.0177515 0.322047 0.031958 0.322268 0.0406465 0.21399
2058 3 -5.91307 103.232 61.2458 23.0 0.0207493 0.0698986 0.165779 0.0343395 0.110524 0.0479155 0.192862 0.0311998 0.0101472 0.179433 0.0503696 0.344636 0.0592612 0.2097
2060 3 -8.095 104.001 60.248 23.0 0.0223839 0.0565314 0.120498 0.0813319 0.143859 0.0774124 0.198897 0.00869716 0.0200653 0.165076 0.0468234 0.322826 0.0745635 0.196346
3300 3 -4.84132 105.735 56.7749 23.0 0.0219076 0.0461186 0.15756 0.0717096 0.128089 0.0518798 0.156853 0.0148932 0.0245354 0.117776 0.0607988 0.305746 0.0645709 0.178391
3151 3 -3.96705 105.489 53.4778 23.0 0.0181919 0.0875724 0.170223 0.0648841 0.161933 0.041533 0.173586 0.0164434 0.0217421 0.114375 0.0409444 0.296618 0.0528271 0.199428
4528 3 0.870361 105.495 53.366 25.0 0.025259 0.088415 0.191841 0.0596811 0.161207 0.0472259 0.190978 0.0125609 0.019809 0.10364 0.0425356 0.303844 0.0632909 0.200272
3261 1 -1.25435 99.0132 58.8337 25.0 0.0487076 0.0888315 0.101394 0.0563647 0.158358 0.0874877 0.211915 0.027987 0.0343142 0.12742 0.036516 0.256867 0.0468732 0.244451
3262 2 -3.50459 100.628 58.671 24.0 0.0148199 0.0470451 0.21059 0.0597315 0.120062 0.0733546 0.193926 0.0404883 0.0203048 0.31887 0.0356227 0.315746 0.0361077 0.218201
3263 3 -0.210742 100.817 58.7083 22.0 0.020473 0.0566164 0.164526 0.0608237 0.117056 0.0600102 0.204898 0.023238 0.0529728 0.167922 0.0482938 0.335818 0.0852446 0.190046
3265 3 -3.05948 100.127 57.1963 25.0 0.0152967 0.0863335 0.136033 0.0569565 0.128165 0.0575041 0.177088 0.0192824 0.0210963 0.137505 0.0848523 0.337814 0.0764084 0.191384
3266 3 -2.7915 99.8163 59.7356 23.0 0.0354422 0.0646573 0.125362 0.0811597 0.113531 0.0592908 0.197332 0.0145133 0.02496 0.142096 0.0338871 0.330417 0.0534005 0.181232
3275 1 -4.31896 99.9308 55.5628 26.0 0.0482516 0.0734504 0.15237 0.0543719 0.154931 0.0520315 0.203149 0.0469414 0.0330382 0.121339 0.0544013 0.281934 0.0813285 0.298484
3278 3 -0.759805 101.577 55.555 26.0 0.0439293 0.0539484 0.141863 0.0364646 0.17982 0.0383283 0.199114 0.0168722 0.0302776 0.128164 0.0559907 0.333283 0.0765742 0.190316
3280 3 -0.620375 98.6825 56.8059 24.0 0.03916 0.0865252 0.154117 0.0347362 0.153599 0.0535959 0.229267 0.00871174 0.0161898 0.145522 0.0537032 0.379419 0.0540709 0.231076
3281 1 -2.28884 102.101 54.2452 26.0 0.0102318 0.0470509 0.246872 0.0362006 0.165794 0.0505263 0.213275 0.0429549 0.0388965 0.128855 0.0359551 0.271956 0.0754123 0.289387
3282 1 -2.64658 104.964 55.0443 26.0 0.0160099 0.124289 0.139243 0.0625205 0.135792 0.0528986 0.161174 0.0419314 0.0338701 0.0826501 0.0375775 0.289481 0.0442476 0.223731
3283 2 -0.200874 103.141 55.8146 23.0 0.0275165 0.0595996 0.172407 0.0656476 0.145246 0.06608 0.161667 0.0456042 0.0252803 0.319139 0.0392583 0.31498 0.0417742 0.220867
3284 3 -3.50909 103.384 55.7555 26.0 0.0060028 0.0672234 0.191222 0.0385847 0.14629 0.053435 0.174073 0.0249343 0.0289719 0.108093 0.043347 0.283565 0.0649361 0.166619
3285 3 -2.31414 106.827 55.2183 22.0 0.0278945 0.0541907 0.222417 0.0353722 0.146334 0.0501769 0.186509 0.0167226 0.0285504 0.109079 0.0552232 0.326156 0.065605 0.189749
3286 3 -1.0906 103.731 54.6485 21.0 0.0116197 0.0846949 0.167899 0.0372558 0.159195 0.0563885 0.195314 0.014656 0.0204519 0.104745 0.0554369 0.298622 0.0534847 0.165361
3287 1 -1.50253 101.446 57.3262 23.0 0.0221942 0.0504688 0.194036 0.0375671 0.109553 0.0516799 0.174964 0.0265964 0.0667931 0.085428 0.0552137 0.253816 0.0800988 0.240919
3288 3 -0.682593 103.228 57.368 24.0 0.0375594 0.0359534 0.170312 0.0760966 0.108769 0.0640713 0.171036 0.0115366 0.0312402 0.166423 0.068615 0.311297 0.0705174 0.180415
3296 1 -2.09898 104.282 58.5591 27.0 0.0217331 0.0760675 0.11695 0.0675695 0.115396 0.0641722 0.144256 0.0367705 0.0568692 0.0748409 0.054484 0.256484 0.0938692 0.204169
3297 2 -4.40051 106.204 58.1983 27.0 0.0216159 0.0393203 0.182964 0.0652228 0.112291 0.0617407 0.184612 0.0470781 0.0332851 0.330272 0.0506201 0.321018 0.0458454 0.230768
3298 3 -2.86256 106.239 58.2972 25.0 0.014656 0.0438793 0.201484 0.0310309 0.126564 0.0585386 0.173239 0.0189768 0.0114974 0.139199 0.0402009 0.334848 0.0499559 0.192994
3299 3 -2.93908 102.235 58.6393 21.0 0.0212439 0.0314189 0.223504 0.0553195 0.12187 0.0404761 0.157662 0.0161052 0.0411849 0.161667 0.0481687 0.314717 0.0607932 0.170747
3302 3 -0.290587 105.389 59.2969 23.0 0.0211083 0.0746671 0.151775 0.0783998 0.139853 0.0443987 0.210407 0.00982452 0.0217769 0.173768 0.0642378 0.346389 0.054675 0.207355
3429 3 -3.25547 101.777 61.5468 20.0 0.0337713 0.0308404 0.225597 0.0263424 0.148456 0.0416832 0.215567 0.0199999 0.0314015 0.140751 0.0468353 0.327031 0.0693395 0.199755
3432 1 -4.75308 102.942 59.4962 24.0 0.0408625 0.0619142 0.191431 0.0556899 0.135969 0.0556365 0.190794 0.0268395 0.0274666 0.117671 0.042987 0.243796 0.0508755 0.222611
3433 1 -4.54934 105.204 61.3157 28.0 0.0364359 0.108071 0.15656 0.0546645 0.151647 0.0818002 0.236101 0.0343151 0.0278864 0.0727262 0.033644 0.28639 0.0649335 0.275595
3434 2 -2.6039 103.232 61.4105 24.0 0.0371823 0.0751068 0.264904 0.0583667 0.183174 0.0698161 0.20361 0.0443001 0.0192458 0.319248 0.035699 0.321861 0.0414645 0.210748
3435 3 -1.02171 103.318 61.2659 22.0 0.0219412 0.0714253 0.160339 0.0384223 0.127381 0.0487183 0.203843 0.031095 0.0175057 0.187677 0.0494246 0.34022 0.0525698 0.210301
3436 3 -3.17385 106.799 61.2174 24.0 0.0349598 0.0336569 0.172683 0.0372734 0.170869 0.0476154 0.246715 0.014131 0.0194751 0.150112 0.0535734 0.385968 0.0495722 0.23575
3437 3 -3.18103 104.119 60.2419 22.0 0.0223894 0.0551016 0.116745 0.0717535 0.141447 0.0640196 0.195382 0.00725655 0.0289497 0.181242 0.0621143 0.339348 0.0753629 0.205567
3452 1 -1.71351 107.206 59.6086 28.0 0.0188842 0.0534095 0.202582 0.0292679 0.147341 0.0484721 0.23038 0.0293697 0.026951 0.0666128 0.0289157 0.285105 0.0581763 0.252729
4638 1 3.74297 99.0185 58.8774 25.0 0.0381619 0.0800232 0.127683 0.0604088 0.153068 0.0525629 0.207838 0.041247 0.0347164 0.139898 0.0442562 0.274847 0.0577918 0.262304
4639 2 1.26357 100.678 58.6116 24.0 0.0198894 0.0984061 0.176476 0.0505331 0.124337 0.0628106 0.190506 0.040549 0.0228438 0.313338 0.029838 0.313652 0.0434293 0.21786
4640 3 4.81406 100.959 58.8649 23.0 0.0303429 0.0426986 0.153641 0.0570921 0.14488 0.0569107 0.175244 0.0248631 0.0418961 0.176351 0.035429 0.333172 0.0729736 0.183572
4642 3 1.85322 100.176 57.2204 26.0 0.022251 0.0852229 0.122744 0.0658499 0.146293 0.0551048 0.200755 0.023939 0.026333 0.154902 0.0821478 0.341863 0.0772479 0.198178
4643 3 2.21319 99.982 59.6644 23.0 0.0281078 0.0612643 0.114709 0.0860249 0.143638 0.050298 0.204349 0.010284 0.031828 0.148623 0.0353541 0.334639 0.0500607 0.180584
4652 1 0.704665 99.6087 55.5937 27.0 0.038784 0.104088 0.162183 0.0618494 0.158557 0.056666 0.244552 0.057806 0.0347539 0.0814291 0.0515504 0.30462 0.0707652 0.294396
4655 3 4.14083 101.398 55.6667 24.0 0.0322175 0.0443781 0.134374 0.0390236 0.153431 0.0452891 0.186418 0.0168228 0.0210661 0.145555 0.054183 0.342419 0.0782177 0.203121
4657 3 4.27039 98.7532 57.0314 24.0 0.0328595 0.0800386 0.157898 0.0519296 0.154088 0.0565361 0.211427 0.00996352 0.0141657 0.156012 0.0529873 0.380983 0.045381 0.233813
4658 1 2.57884 102.04 54.3412 27.0 0.0171784 0.072479 0.168451 0.0485177 0.162294 0.0608069 0.202377 0.0293682 0.0276767 0.114294 0.0343916 0.257244 0.0751065 0.273721
4659 1 2.09484 104.933 54.784 23.0 0.0174819 0.12204 0.164562 0.0798122 0.136139 0.0456908 0.185701 0.0446033 0.0292214 0.0786685 0.0308712 0.28657 0.0389014 0.244113
4660 2 4.57457 102.979 55.8573 25.0 0.0304099 0.0478334 0.232579 0.0587099 0.135447 0.0448728 0.166066 0.0461248 0.020043 0.310743 0.0288329 0.319293 0.0431199 0.210642
4661 3 1.3181 103.291 55.6159 25.0 0.0201121 0.0419655 0.191815 0.0286868 0.151521 0.0564714 0.187772 0.0254061 0.0243866 0.118421 0.0423254 0.288716 0.0674127 0.176921
4662 3 2.42465 106.834 55.0573 22.0 0.0331781 0.0330906 0.247979 0.0262195 0.161889 0.0465602 0.248962 0.017964 0.0294006 0.109708 0.0552639 0.325552 0.0665613 0.191703
4663 3 3.72291 103.741 54.6598 21.0 0.0227264 0.0793287 0.182981 0.0489355 0.160615 0.0387315 0.187329 0.0147356 0.0250613 0.112255 0.057206 0.306955 0.0486009 0.177194