ITEM: TIMESTEP
3500
ITEM: NUMBER OF ATOMS
13888
ITEM: BOX BOUNDS pp pp pp
45.0 100.0
50.0 105.0
-18.06819 30.11365
ITEM: ATOMS id type x y z Coordination
3 3 49.0699 50.4372 -14.0378 24
6 3 52.4665 51.6057 -15.0385 23
19 1 45.9449 54.3493 -13.8067 25
21 1 49.3535 55.1112 -15.7095 27
23 1 46.2709 52.7702 -16.0447 24
24 2 46.4616 51.8079 -12.8972 26
25 2 46.0852 55.292 -16.9519 24
28 3 46.6692 57.3144 -14.0033 23
29 3 46.3409 50.9944 -16.9477 22
31 3 45.8477 53.9789 -17.9288 23
34 3 47.0188 52.4804 -14.2069 23
35 1 48.7108 51.9255 -15.4612 25
36 1 50.6061 57.5251 -14.7327 20
37 1 48.6167 57.3652 -17.7263 24
39 1 53.0877 53.7934 -12.2508 24
41 1 51.6421 52.1305 -16.8414 26
43 2 51.6316 52.6634 -14.2388 23
44 2 48.1418 57.4828 -14.2216 23
45 2 52.5986 54.9966 -15.6581 26
47 3 51.6231 52.182 -12.7668 22
48 3 51.7606 57.2604 -13.0348 24
49 3 47.0434 54.8229 -15.772 23
51 3 49.0323 56.0034 -13.8672 18
54 3 51.3251 55.9122 -15.6005 25
55 3 50.3138 53.0646 -15.0834 23
56 3 48.6579 57.6183 -15.6979 21
57 3 52.5703 53.9591 -16.7486 24
60 3 52.5752 53.9758 -14.1782 22
62 3 48.5362 52.7046 -17.2352 23
63 1 52.5428 50.3346 -12.4549 22
72 2 53.33 57.3067 -12.8663 25
79 3 54.1192 55.8374 -12.8288 24
84 3 53.7751 58.1601 -14.1808 23
89 3 53.2108 58.2349 -17.3787 25
1756 1 45.8809 56.6182 -12.1902 26
1767 3 47.6275 51.5153 -11.9237 22
1773 1 50.619 57.3564 -11.3571 26
1774 1 49.5236 51.7653 -12.3657 23
1793 3 52.0513 54.7338 -10.9614 24
1797 3 48.8431 58.4117 -13.1581 22
1798 3 49.5344 53.7296 -12.5311 26
1825 3 53.8872 58.0541 -11.6188 23
53 3 50.27 50.4849 -16.264 22
1759 1 46.4085 53.9054 -10.7103 25
1761 2 48.7966 55.0854 -12.4934 25
1766 3 47.227 55.0348 -12.3578 23
1777 1 50.2749 53.8764 -10.5947 25
1778 1 47.8455 59.0379 -10.5251 28
1785 3 49.3747 55.9442 -11.2682 23
20 1 45.4288 57.7512 -15.8124 25
2825 3 46.8771 57.1996 -10.4614 26
12159 3 52.882 50.689 -17.7601 23
12203 3 46.789 56.411 -17.8358 24
12212 3 49.4234 55.1518 -17.7736 23
2815 3 45.5244 52.853 -12.1924 25
27 3 45.8258 50.4076 -13.2287 24
2634 3 52.5 50.28 -10.4983 20
10870 3 61.3383 77.4281 19.4774 25
5690 3 66.0306 77.4563 1.31683 24
4 3 49.4899 50.2056 -10.8722 29
77 3 54.0095 55.7079 -15.6416 24
7 3 54.3717 50.608 -13.1508 22
66 1 54.3784 51.0812 -15.1931 24
83 3 56.0878 53.1603 -12.8024 23
90 3 55.1395 52.8277 -15.7799 23
1826 3 54.3997 53.083 -10.8061 26
8 2 59.8154 51.5018 -15.1982 25
9 3 58.859 52.1309 -14.096 24
10 3 59.4226 50.7683 -10.9469 23
64 1 55.5078 57.6568 -14.7663 24
65 1 54.8384 56.7378 -17.5034 25
67 1 57.6655 54.6065 -12.78 23
69 1 54.9584 54.4717 -14.2527 27
71 2 55.8436 53.3017 -11.2519 26
73 2 57.2114 55.5648 -16.1587 27
76 3 56.357 57.5973 -12.8855 24
81 3 56.4506 50.71 -14.4835 23
82 3 56.4097 56.8817 -16.1423 23
85 3 56.4176 54.5497 -17.1352 24
88 3 57.0076 54.7126 -14.7068 24
91 1 58.1843 51.9239 -12.2042 26
92 1 60.2743 57.9957 -14.7993 22
93 1 59.7299 56.8806 -17.4244 27
94 1 57.035 52.6134 -14.9553 24
95 1 62.5474 54.7778 -12.9948 26
97 1 59.4368 54.6567 -14.5946 28
99 2 60.513 53.5713 -11.356 26
100 2 57.8984 57.7248 -12.9873 27
101 2 61.8403 55.6375 -15.9443 27
103 3 61.4686 52.5616 -12.2675 23
104 3 61.102 57.6606 -12.9531 23
105 3 58.7245 55.9144 -16.1004 26
107 3 58.5402 56.2466 -13.0356 25
109 3 61.2114 52.2618 -15.7558 25
110 3 61.2705 57.0864 -16.0228 22
111 3 59.1845 53.702 -12.1091 24
112 3 58.3714 58.355 -14.3746 25
113 3 61.1579 54.7815 -17.1339 23
116 3 61.3367 54.9513 -14.5201 27
117 3 58.3764 58.4217 -17.7188 24
118 3 59.116 53.2837 -16.3425 23
119 1 62.2984 51.9781 -14.0166 24
122 1 62.3962 51.5214 -17.276 26
128 2 62.707 57.8372 -12.8768 26
1801 1 55.3733 56.6608 -11.4146 30
1821 3 56.4556 54.881 -11.1274 23
1829 1 59.964 56.8176 -11.3655 29
1849 3 61.4887 54.841 -11.1572 22
1853 3 58.6468 58.4145 -11.7219 24
1858 1 62.8294 51.1987 -10.9149 25
903 3 56.7185 50.4024 -11.856 19
12162 3 59.0087 50.552 -16.142 20
12223 2 55.426 53.1217 -17.3255 26
12227 3 56.4053 51.9324 -17.7887 22
12251 2 60.0936 53.5132 -17.5575 23
909 3 60.8499 50.528 -14.2367 24
126 1 62.4235 59.0867 -16.062 26
901 1 56.951 50.3526 -16.5253 20
140 3 63.221 58.3044 -14.2908 26
145 3 63.2151 58.3767 -17.6805 23
1881 3 63.3003 58.5932 -11.606 23
75 3 57.0704 52.5708 -10.4428 20
5 2 55.8556 50.0936 -13.1269 22
12 3 63.58 50.506 -15.9618 23
135 3 63.4555 56.429 -12.7256 22
11 2 64.8107 50.7361 -14.9977 23
13 3 64.0877 51.1508 -13.3544 23
14 2 69.2723 50.4427 -15.4687 23
15 3 68.0218 51.2694 -16.069 21
16 3 68.839 51.6536 -11.6307 15
120 1 64.8721 57.0076 -14.1657 25
121 1 64.523 56.8548 -17.1312 25
123 1 67.2634 54.6016 -12.4912 25
125 1 64.6875 54.0152 -15.5635 28
127 2 64.6849 52.5763 -12.6339 20
129 2 66.8747 55.7615 -15.4922 26
131 3 66.2243 52.5181 -12.7741 22
132 3 65.932 57.8529 -12.5491 23
133 3 63.4307 55.5593 -15.9257 23
137 3 65.5475 52.047 -15.3916 21
138 3 66.0488 57.0931 -15.6948 26
139 3 63.8111 53.4768 -13.6414 22
141 3 66.3444 54.7447 -16.6485 23
144 3 66.2082 55.126 -14.1557 27
146 3 63.8531 52.8946 -17.6878 21
147 1 67.3048 51.5818 -14.1072 21
148 1 69.5631 56.8736 -13.8261 28
149 1 69.5575 57.0779 -16.8217 26
150 1 66.9242 52.6838 -16.8374 23
151 1 72.3254 54.5903 -12.175 27
153 1 69.5229 53.9926 -15.611 27
155 2 69.5628 52.8593 -12.6101 20
156 2 67.48 57.9894 -12.3733 25
157 2 71.8223 55.5514 -15.2093 25
159 3 71.0707 52.3447 -12.6066 23
160 3 70.8122 57.6056 -12.3964 23
161 3 68.4309 55.7405 -15.4659 24
163 3 68.0906 56.4383 -12.4214 23
165 3 70.6508 51.181 -15.6265 23
166 3 71.0329 56.8829 -15.5174 22
167 3 68.873 52.9819 -14.0234 24
168 3 68.1374 58.4324 -13.766 24
169 3 71.3805 54.3559 -16.2745 22
172 3 71.2204 54.9331 -13.8679 25
173 3 68.1524 58.4465 -17.183 23
174 3 68.7544 53.3187 -17.4676 21
175 1 72.1305 51.3323 -14.0366 23
178 1 72.0061 52.3166 -16.8366 23
182 2 72.3488 57.8336 -12.3051 25
1857 1 64.6869 57.0145 -11.0945 28
1877 3 66.2794 54.7314 -10.7883 24
1882 3 64.2743 52.5974 -11.0819 21
1885 1 69.5585 56.5558 -11.0153 25
1905 3 71.6187 54.5859 -10.3082 23
1909 3 68.2634 58.505 -11.1268 24
1910 3 69.1462 54.0663 -11.75 24
1914 1 71.4112 52.7044 -10.6461 22
1750 2 68.6066 51.4751 -9.99011 21
70 1 52.8443 59.16 -15.6227 24
42 1 47.8063 61.402 -18.0576 24
22 1 45.3425 59.2931 -13.3252 24
26 2 45.9671 60.8535 -16.2063 22
32 3 46.2996 60.1733 -17.5947 24
33 3 46.5202 60.0393 -14.9001 22
40 1 50.2862 59.6971 -13.1186 25
46 2 50.4361 60.6886 -16.2706 24
50 3 48.9276 60.9655 -16.3685 24
52 3 49.3027 61.3446 -13.1693 24
58 3 51.1002 60.2279 -17.6119 24
59 3 50.9048 59.5692 -15.0748 22
78 3 53.7655 60.8931 -16.0091 23
193 1 48.1534 64.78 -13.4528 24
195 1 45.6553 64.1952 -16.3171 25
196 2 45.2902 63.667 -13.2324 22
197 2 47.6831 65.953 -16.3863 26
199 3 46.6673 63.0068 -13.1599 25
200 3 46.81 67.6837 -13.3237 25
201 3 46.6432 62.3029 -16.3201 21
202 3 47.148 67.403 -16.3195 26
203 3 47.0056 65.2031 -17.6976 25
206 3 47.1683 64.9549 -15.2535 24
207 1 47.3993 61.0408 -13.3523 26
208 1 50.3825 66.9725 -14.901 28
209 1 50.4475 67.0781 -17.8016 28
210 1 48.393 63.0741 -15.9744 25
211 1 52.5853 64.7378 -13.2181 27
213 1 50.4897 64.1504 -16.2597 29
215 2 50.0067 62.8228 -13.141 26
216 2 48.3108 67.889 -13.3322 24
217 2 52.4811 65.9624 -16.3473 24
219 3 51.5542 62.6081 -13.1092 22
220 3 51.6015 67.7024 -13.3447 23
221 3 49.3149 65.9184 -16.3419 23
223 3 49.0684 66.4359 -13.3029 25
225 3 51.2054 62.0876 -15.9757 23
226 3 51.7655 67.4237 -16.3236 26
227 3 49.4838 63.5505 -14.4413 23
229 3 51.8404 65.2018 -17.5724 25
232 3 51.8544 65.1975 -15.0845 24
234 3 49.388 63.3063 -17.7447 25
235 1 52.695 62.1011 -14.6419 26
238 1 52.6124 61.7582 -17.6121 27
244 2 53.1452 67.8053 -13.2693 25
249 3 54.0213 65.9626 -16.2747 23
251 3 53.8038 66.289 -13.1462 25
1768 3 46.4972 60.1967 -11.7444 23
1794 3 51.0799 59.5335 -11.2619 24
1928 1 45.4963 66.5424 -12.3224 27
1939 3 47.0284 65.2933 -11.6798 23
1945 1 50.3432 67.0742 -11.7215 28
1946 1 47.3766 63.4479 -11.204 24
1965 3 51.8362 65.1464 -11.4756 24
1970 3 49.3342 63.5643 -11.8861 24
1974 1 52.8373 61.9964 -11.5474 27
262 3 54.0281 63.2596 -17.6503 25
80 3 53.9642 61.2812 -13.0538 24
191 1 45.4754 68.4145 -16.5161 23
1938 3 46.9123 67.415 -10.2919 25
1933 2 47.663 66.0437 -10.381 26
1953 2 52.5395 65.8999 -10.2765 24
1957 3 49.2747 66.0278 -10.4097 23
1962 3 51.8369 67.3496 -10.2273 25
1762 2 45.8234 60.9051 -10.3982 24
98 1 57.5826 59.2352 -15.982 26
255 3 54.0543 63.4988 -14.2866 23
1998 3 54.1875 63.3766 -11.621 26
68 1 55.1877 59.6561 -12.8834 27
74 2 55.3381 60.7583 -16.0522 25
86 3 56.0024 60.0768 -17.3067 25
87 3 55.9298 59.7384 -14.8569 22
96 1 59.9875 59.6253 -12.7378 27
102 2 60.2173 60.8266 -15.8859 26
106 3 58.6462 60.9753 -15.9419 23
108 3 58.8657 61.261 -12.9334 26
114 3 60.8455 59.9866 -17.0955 25
115 3 60.7017 59.881 -14.6097 25
236 1 55.2475 66.7862 -14.6542 30
237 1 55.2809 66.9494 -17.701 29
239 1 57.4985 64.6231 -13.0459 27
241 1 54.9916 64.1047 -16.0925 26
243 2 54.7661 62.8753 -12.9983 25
245 2 57.2484 65.7199 -16.1889 26
247 3 56.2738 62.5713 -13.0145 24
248 3 56.338 67.5674 -13.1205 24
253 3 56.0725 62.1413 -15.9187 24
254 3 56.6009 67.1912 -16.1638 25
257 3 56.5188 65.0146 -17.4281 24
260 3 56.5781 64.9242 -14.945 24
263 1 57.5662 62.0236 -14.5438 28
264 1 59.9035 66.9467 -14.6515 28
265 1 59.9091 66.8458 -17.5724 28
266 1 57.4616 62.0022 -17.515 30
267 1 62.1991 64.7556 -13.0194 29
269 1 59.923 64.1245 -15.8738 27
271 2 59.5985 62.7253 -12.93 25
272 2 57.8661 67.7812 -13.1813 25
273 2 62.0144 65.8577 -16.0315 25
275 3 61.1414 62.4802 -12.9303 25
276 3 60.9948 67.7452 -13.124 23
277 3 58.8045 65.9004 -16.145 24
279 3 58.586 66.3016 -13.1679 26
281 3 60.9649 62.2245 -15.7986 26
282 3 61.3408 67.3164 -16.1122 25
283 3 58.9339 63.4327 -14.1859 24
285 3 61.2935 65.1502 -17.2672 23
288 3 61.3175 65.1578 -14.7634 25
290 3 58.9234 63.3828 -17.5022 25
291 1 62.4232 62.0543 -14.4079 27
294 1 62.3016 62.0566 -17.2541 28
300 2 62.5429 67.9412 -12.9626 25
1822 3 56.1787 60.1148 -11.2935 24
1850 3 60.8779 60.0578 -11.0968 24
1973 1 55.1779 66.9961 -11.6166 27
1993 3 56.5109 65.2094 -11.3875 24
2001 1 59.8616 66.8767 -11.5954 29
2002 1 57.4841 61.885 -11.4674 28
2021 3 61.2644 65.0163 -11.2974 23
2026 3 58.8972 63.2903 -11.6294 25
2030 1 62.3 61.8765 -11.3423 28
180 1 72.1271 59.199 -15.2813 29
154 1 67.2874 59.2183 -15.4642 26
134 3 63.3889 60.8773 -15.7121 23
307 3 63.2193 66.4013 -12.861 25
124 1 64.7929 59.7704 -12.585 26
130 2 64.9986 60.7794 -15.6258 25
136 3 63.7177 61.3533 -12.8133 25
142 3 65.6641 59.9875 -16.8803 23
143 3 65.6348 59.9836 -14.3978 24
152 1 69.8044 59.7147 -12.3732 28
158 2 69.8573 60.9227 -15.2538 24
162 3 68.3203 61.031 -15.4924 23
164 3 68.5606 61.394 -12.5845 24
170 3 70.5829 60.0976 -16.5213 23
171 3 70.5984 60.1154 -14.0579 23
292 1 64.6527 66.9225 -14.4069 29
293 1 64.7904 66.9208 -17.3837 28
295 1 67.0326 64.7841 -12.7879 27
297 1 64.6991 64.201 -15.7117 27
299 2 64.4184 62.8883 -12.6749 25
301 2 66.8048 65.9327 -15.7458 25
303 3 65.9637 62.7319 -12.6607 23
304 3 65.8002 67.6689 -12.854 22
305 3 63.5964 65.9322 -15.8589 22
309 3 65.6586 62.2344 -15.6508 24
310 3 66.0695 67.3737 -15.8147 25
311 3 63.6932 63.5335 -13.8999 24
313 3 66.1283 65.1994 -17.0154 24
316 3 66.0486 65.194 -14.4688 22
318 3 63.663 63.4567 -17.4072 24
319 1 67.2011 62.1994 -14.0918 28
320 1 69.5978 67.0173 -13.979 27
321 1 69.4425 67.0624 -17.03 28
322 1 67.0746 61.9019 -17.0068 26
323 1 71.8571 64.8608 -12.5593 28
325 1 69.5967 64.2262 -15.447 28
327 2 69.2489 62.9732 -12.3994 26
328 2 67.3634 67.8259 -12.7298 25
329 2 71.6225 66.0624 -15.5017 25
331 3 70.7445 62.7784 -12.4137 24
332 3 70.6649 67.7677 -12.4698 22
333 3 68.3452 66.0114 -15.6175 23
335 3 68.1548 66.3839 -12.5626 25
337 3 70.6067 62.3256 -15.2858 26
338 3 70.8374 67.4609 -15.5465 24
339 3 68.5824 63.6222 -13.7141 23
341 3 70.9478 65.278 -16.7565 25
344 3 70.9905 65.3836 -14.2034 25
346 3 68.5127 63.4334 -17.0845 24
347 1 72.0026 62.0724 -13.788 28
350 1 71.9515 61.855 -16.7876 28
354 2 72.2231 67.983 -12.3899 25
1878 3 65.7711 60.1458 -10.9447 23
1906 3 70.6456 60.2623 -10.712 25
2029 1 64.5685 67.0986 -11.2334 27
2049 3 66.1849 65.0519 -10.9768 25
2054 3 63.7355 63.3253 -11.3 26
2057 1 69.4359 67.0459 -11.0372 28
2058 1 67.1362 61.7981 -11.1301 27
2077 3 70.8758 65.1567 -10.7907 24
2082 3 68.5756 63.3225 -11.0391 24
2086 1 71.8394 61.9916 -10.8375 27
194 1 45.5548 69.3298 -13.8162 25
198 2 45.9808 71.0208 -16.681 23
204 3 46.4279 70.2368 -17.938 22
205 3 46.5426 70.1487 -15.4513 23
212 1 50.4081 69.7061 -13.4725 28
214 1 48.2487 69.1595 -16.277 27
218 2 50.7106 70.8902 -16.4802 25
222 3 49.0817 70.9696 -16.4048 22
224 3 49.3487 71.3759 -13.5624 25
228 3 49.0397 68.5739 -14.5636 22
230 3 51.347 70.2132 -17.74 24
231 3 51.3873 70.1883 -15.2072 24
233 3 49.0324 68.4452 -18.0341 25
242 1 52.9658 69.1107 -16.2955 26
250 3 53.9501 70.918 -16.4717 22
256 3 53.9058 68.3418 -14.5468 24
261 3 53.8176 68.3084 -17.9789 24
363 1 45.5948 76.9541 -15.0866 28
365 1 48.279 74.66 -13.3588 28
367 1 45.5312 74.1254 -16.8889 26
369 2 47.6696 75.748 -16.5132 27
371 3 46.657 73.0156 -13.5665 24
373 3 46.6781 72.4328 -16.6619 23
375 3 47.0293 75.1565 -17.8653 24
378 3 46.8429 74.948 -15.2304 23
379 1 47.9614 71.8429 -14.9743 28
380 1 50.441 76.8803 -15.1278 29
381 1 50.3945 76.767 -18.0385 29
382 1 47.9926 71.8427 30.0043 27
383 1 52.7996 74.624 -13.659 27
385 1 50.3675 74.0383 -16.5557 27
387 2 50.0985 72.834 -13.5554 25
389 2 52.4863 75.9378 -16.5954 25
391 3 51.6302 72.7076 -13.5355 23
393 3 49.2126 75.8723 -16.5121 22
395 3 49.0761 76.4407 -13.5532 24
397 3 51.3879 72.3243 -16.4302 25
399 3 49.3368 73.5574 -14.7451 24
401 3 51.7716 75.2635 -17.9144 24
404 3 51.7433 75.2141 -15.3606 24
406 3 49.4445 73.4123 -12.2029 24
407 1 52.7329 71.8958 -14.9501 29
410 1 52.8339 71.9448 -17.9021 28
421 3 54.06 75.9534 -16.5293 23
423 3 53.8263 76.3646 -13.6042 27
434 3 54.0954 73.4011 -12.2273 24
1934 2 45.4615 71.7352 -11.6645 24
1940 3 46.2361 70.4642 -12.2061 23
1966 3 51.32 70.1823 -11.6938 24
1969 3 48.9215 68.6035 -12.0342 25
1997 3 53.7526 68.4648 -11.9458 24
2111 3 47.1018 75.2526 -11.8456 25
2117 1 50.3858 76.8964 -12.1283 29
2118 1 48.0678 71.7847 -11.9495 26
2125 2 52.4879 75.8561 -10.7205 25
2129 3 49.2621 75.9964 -10.6306 22
2137 3 51.7773 75.2226 -11.9619 25
2146 1 52.7899 71.7913 -11.9729 29
2157 3 54.0546 75.9397 -10.6161 23
2100 1 45.615 76.7229 -12.1261 26
368 2 45.6633 74.151 -14.1368 24
374 3 47.0171 77.2208 -16.4354 27
12558 3 49.3816 73.4019 29.9432 24
12586 3 54.1833 73.4889 30.0487 25
398 3 51.7617 77.3632 -16.5749 26
2134 3 51.7677 77.3436 -10.6951 25
364 1 45.6699 76.8357 29.969 26
252 3 54.0647 71.2681 -13.5011 26
2103 1 45.6406 74.233 -10.6238 27
2105 2 47.7249 75.9194 -10.5289 25
2121 1 50.3354 74.1112 -10.5047 27
2133 3 51.4623 72.283 -10.4245 25
2110 3 47.0152 77.3327 -10.514 27
427 3 54.1452 73.4715 -14.7646 24
1950 1 48.1859 69.2106 -10.2175 27
1954 2 50.7147 70.8925 -10.4204 25
1958 3 49.1438 70.9603 -10.4172 22
1986 3 53.9081 70.9762 -10.3841 22
2109 3 46.5846 72.502 -10.831 24
1927 1 45.5929 69.0677 -10.5429 26
289 3 58.5292 68.4981 -17.9417 24
240 1 55.2729 69.6375 -13.4179 28
246 2 55.525 70.8615 -16.4534 25
258 3 56.1871 70.1958 -17.6843 24
259 3 56.1871 70.1573 -15.167 25
268 1 60.0377 69.6434 -13.2692 28
270 1 57.6385 69.1268 -16.2134 27
274 2 60.2637 70.8483 -16.2589 25
278 3 58.7121 70.904 -16.298 23
280 3 58.8726 71.3325 -13.3138 26
284 3 58.5055 68.46 -14.4753 23
286 3 60.9492 70.1899 -17.5651 25
287 3 60.9356 70.1514 -14.992 24
298 1 62.4229 69.1309 -16.051 28
408 1 55.2014 76.8389 -15.0759 29
411 1 57.4359 74.6682 -13.68 28
413 1 55.0771 74.1324 -16.4969 28
415 2 54.785 72.7668 -13.4801 25
417 2 57.2445 75.9134 -16.6601 25
419 3 56.3132 72.6857 -13.427 24
425 3 56.2098 72.3409 -16.3944 26
429 3 56.5589 75.3381 -17.9533 24
432 3 56.5901 75.1807 -15.4238 25
435 1 57.5345 71.8767 -14.845 29
436 1 59.9617 76.9812 -15.2351 29
438 1 57.6724 71.8462 -17.7945 28
439 1 62.1955 74.6676 -13.7828 26
441 1 59.8143 74.0629 -16.3747 27
443 2 59.5824 72.8387 -13.3514 25
445 2 61.9449 75.9185 -16.8093 25
447 3 61.1233 72.6789 -13.3623 24
449 3 58.8083 75.9989 -16.6559 23
451 3 58.5154 76.3829 -13.679 25
453 3 60.8486 72.3427 -16.2577 25
455 3 58.8705 73.447 -14.6561 25
460 3 61.3293 75.2354 -15.4897 26
462 3 58.8454 73.4759 -18.0661 26
463 1 62.3141 71.825 -14.7643 29
466 1 62.2674 71.9454 -17.6897 30
1994 3 56.0826 70.224 -11.6808 24
2022 3 60.882 70.2016 -11.5088 24
2025 3 58.4994 68.4223 -11.8512 24
2145 1 55.2335 76.9382 -12.059 28
2153 2 57.2313 75.8735 -10.6174 25
2165 3 56.516 75.2647 -11.8887 24
2173 1 59.9712 76.8331 -12.1679 29
2174 1 57.5291 71.8874 -11.8814 29
2181 2 61.962 75.8137 -10.7408 25
2185 3 58.7832 75.9328 -10.5843 23
2193 3 61.2919 75.2084 -12.04 27
2198 3 58.8714 73.4602 -12.0861 25
2202 1 62.2115 71.8183 -11.7117 28
2162 3 56.5218 77.3611 -10.5238 25
2149 1 55.1278 74.1003 -10.6471 29
7426 3 66.0063 77.4601 7.31153 25
2053 3 63.2521 68.5975 -11.7383 23
312 3 63.2878 68.465 -14.2778 24
479 3 63.2656 76.4311 -13.7179 25
1982 2 55.441 70.9158 -10.4111 25
2010 2 60.1948 70.8468 -10.2263 25
2014 3 58.6572 70.9568 -10.2463 23
2161 3 56.1481 72.3365 -10.3973 25
2177 1 59.7958 74.0976 -10.3856 26
2189 3 60.8635 72.3348 -10.2234 25
6945 2 45.0498 50.4519 7.89849 21
426 3 56.5333 77.4158 -16.593 25
306 3 63.4348 70.967 -16.1906 23
317 3 63.3549 68.45 -17.6947 24
296 1 64.6705 69.7353 -13.0562 28
302 2 65.0089 70.8954 -16.1151 25
308 3 63.5704 71.3995 -13.217 26
314 3 65.7336 70.2909 -17.3891 24
315 3 65.6451 70.1658 -14.8071 24
324 1 69.3966 69.7631 -12.5935 27
326 1 67.2095 69.1532 -15.6747 27
330 2 69.8107 70.8807 -15.6132 25
334 3 68.2292 70.9569 -15.7613 24
336 3 68.3604 71.3998 -12.9143 24
340 3 68.0936 68.4377 -13.9623 25
342 3 70.5275 70.245 -16.8821 24
343 3 70.4328 70.1544 -14.3343 24
345 3 68.1029 68.5566 -17.409 24
352 1 71.9878 69.1931 -15.4152 28
464 1 64.6014 76.9572 -15.3048 29
467 1 66.9126 74.6806 -13.8595 25
469 1 64.5315 74.1041 -16.2047 26
471 2 64.3043 72.8588 -13.1577 26
473 2 66.6536 75.8953 -16.9181 25
475 3 65.8694 72.7555 -13.2184 25
477 3 63.4831 76.0298 -16.6899 24
481 3 65.6779 72.3612 -16.1016 26
483 3 63.7016 73.5314 -14.4716 26
488 3 66.0602 75.2394 -15.6154 27
490 3 63.6041 73.4566 -17.8086 25
491 1 67.0481 71.8604 -14.4846 28
492 1 69.3885 77.0671 -15.7662 28
494 1 67.0467 71.9016 -17.5744 28
495 1 71.6048 74.7518 -14.2548 25
497 1 69.2056 74.072 -15.8827 25
499 2 69.1031 72.8591 -12.774 26
501 2 71.4189 75.9178 -17.3591 28
503 3 70.6354 72.5784 -12.6355 24
505 3 68.2121 76.0897 -17.0053 26
507 3 68.0546 76.4089 -14.0366 26
509 3 70.4987 72.3505 -15.5689 21
511 3 68.5128 73.5811 -14.1031 25
516 3 70.8075 75.2574 -16.0182 24
518 3 68.394 73.3781 -17.5094 26
519 1 71.8988 71.7663 -13.9428 27
522 1 71.8363 71.9622 -17.0581 32
2050 3 65.6118 70.3657 -11.4078 24
2078 3 70.4291 70.1539 -10.8396 24
2081 3 67.9628 68.4841 -11.3573 25
2201 1 64.714 76.9387 -12.3317 29
2209 2 66.7103 75.8879 -10.9006 26
2213 3 63.5085 75.944 -10.6772 24
2221 3 66.0357 75.3242 -12.2102 26
2226 3 63.6304 73.393 -11.8341 26
2229 1 69.3644 76.8543 -12.6025 27
2230 1 66.9925 71.9893 -11.4577 29
2237 2 71.3724 75.8676 -11.2495 28
2241 3 68.2719 76.1053 -10.9802 25
2249 3 70.7387 75.3056 -12.5661 27
2254 3 68.3976 73.3452 -11.4494 26
2258 1 71.7898 71.946 -11.0379 31
2205 1 64.5046 74.0806 -10.1848 26
510 3 70.6715 77.463 -17.2332 25
2627 1 47.7909 51.4716 -9.94835 27
1739 3 48.2704 53.5119 -10.1054 27
1802 1 52.9696 52.2122 -9.4946 23
1740 3 48.6608 50.2472 -5.72222 21
1742 3 52.972 54.3175 -8.67712 24
1743 3 53.4817 51.1 -7.78092 23
1757 1 48.0721 55.5333 -9.65836 24
1760 2 45.3931 53.8784 -7.95787 30
1764 3 46.5881 57.6529 -7.46061 23
1765 3 46.0485 50.4574 -9.6648 29
1770 3 46.1942 54.8315 -8.90137 25
1771 1 45.2863 50.9366 -7.83476 23
1772 1 50.4926 56.8567 -8.47479 28
1775 1 52.9053 54.4104 -6.66152 26
1779 2 50.3711 53.4024 -8.00786 25
1780 2 48.1686 57.8416 -7.74445 25
1781 2 52.7529 55.5353 -9.74067 27
1783 3 51.3222 53.1495 -6.74504 22
1784 3 51.4983 57.5503 -6.88408 25
1787 3 48.5848 56.2132 -7.81436 23
1790 3 51.9329 56.9972 -9.77584 26
1791 3 50.752 52.3848 -9.11498 23
1792 3 48.9924 58.3221 -8.95976 24
1796 3 50.5041 54.7838 -8.73635 23
1799 1 52.0832 51.2411 -6.37066 23
1808 2 53.1193 57.7119 -6.8206 25
1815 3 53.7266 56.2338 -6.87479 24
1820 3 53.6942 58.4538 -8.10166 23
3475 3 47.1618 52.7563 -4.55929 26
3495 1 45.4749 51.9562 -5.31572 26
3497 2 48.5359 55.169 -6.48975 25
3502 3 47.0744 55.3005 -5.99516 22
3503 3 45.8827 52.7423 -7.06772 27
3507 1 48.5707 52.1516 -3.38901 21
3509 1 50.1512 57.4821 -5.07583 25
3510 1 47.6711 52.094 -6.39895 23
3513 1 51.0662 53.4213 -4.78946 20
3517 2 52.5621 55.8653 -3.58387 25
3521 3 49.6591 55.6197 -5.57508 24
3525 3 49.3325 50.4044 -2.65602 22
3526 3 51.7105 57.2098 -3.81108 24
3527 3 49.8008 53.7722 -3.3312 21
3528 3 48.8142 58.1302 -3.3978 19
3529 3 52.5285 54.831 -4.77766 26
3532 3 51.6885 55.1747 -2.3765 23
3533 3 48.7013 58.3701 -6.38587 23
3534 3 48.9249 53.6635 -7.06861 26
3538 1 53.6064 51.9249 -3.38857 23
3542 1 52.7323 59.0524 -3.92259 28
3549 3 54.1317 56.0647 -3.30172 23
3561 3 53.731 58.3224 -5.52544 25
3492 1 45.6057 56.486 -5.75474 27
3493 1 46.9091 54.623 -4.01835 24
3516 2 47.9099 57.4457 -2.19793 22
3523 3 47.7187 55.9972 -2.85671 25
2631 1 50.7784 50.5182 -9.52959 24
4370 3 52.1819 51.7202 -4.5632 24
1789 3 48.2291 51.1545 -8.06072 24
2633 3 50.5692 50.2425 -7.31811 25
1755 1 45.7066 56.72 -8.94448 24
1806 1 52.7623 58.8778 -9.99187 27
3508 1 50.4847 58.1108 -2.21555 24
1854 3 60.2893 52.8781 -9.9651 20
1841 3 58.8645 55.6093 -10.0579 27
4373 1 56.1338 50.5296 -4.06165 22
1834 1 57.606 59.1485 -10.0163 28
1830 1 57.3656 52.5854 -8.36274 25
1813 3 54.2563 56.0429 -9.74354 23
1819 3 54.8017 53.6676 -6.53418 22
3562 3 55.5691 53.0171 -4.04189 22
1741 2 54.8992 50.538 -7.30894 20
1744 2 60.1135 51.2773 -9.58984 23
1745 3 58.9668 51.3723 -8.48757 23
1746 3 59.5327 50.4625 -5.1852 21
1800 1 55.3468 57.7543 -8.72907 25
1803 1 58.0112 54.6058 -6.77218 24
1805 1 54.7986 54.9075 -8.02752 26
1807 2 55.8212 52.9547 -5.58611 26
1809 2 57.3512 55.5979 -9.82977 26
1811 3 57.1873 52.6768 -6.38942 22
1812 3 56.3247 57.6159 -6.96823 24
1817 3 55.9878 50.9575 -8.3542 23
1818 3 56.7667 57.0591 -9.97377 25
1824 3 56.8001 54.7257 -8.6265 25
1827 1 58.3445 50.8306 -6.69822 29
1828 1 60.2949 57.8089 -8.54153 24
1831 1 62.5925 54.283 -6.56827 24
1833 1 60.6311 53.347 -7.98876 21
1835 2 60.1522 53.6318 -4.92688 28
1836 2 57.8981 57.8361 -6.90658 26
1837 2 62.1357 55.6752 -9.75717 25
1839 3 61.7366 52.1323 -6.85963 23
1840 3 61.1406 57.6631 -6.83755 24
1843 3 58.6516 56.3994 -6.90661 24
1845 3 61.6083 50.7987 -9.43284 23
1846 3 61.3981 57.0988 -9.94807 25
1847 3 59.6687 53.7228 -6.42575 23
1848 3 58.4532 58.4625 -8.25047 23
1852 3 61.7549 54.8222 -8.46745 22
1855 1 62.2207 50.3952 -7.53502 23
1864 2 62.7079 57.7173 -6.86042 26
3480 2 59.4928 51.0513 -3.67637 25
3481 3 57.9231 51.2603 -3.49224 22
3484 3 63.193 50.7865 -3.39938 26
3536 1 55.2617 57.7883 -2.72099 26
3537 1 55.2069 56.5289 -5.35067 29
3541 1 54.9871 54.3081 -2.3381 25
3545 2 57.359 55.8633 -3.96227 28
3553 3 54.8053 50.5512 -2.62076 25
3554 3 56.6278 57.2964 -4.08657 23
3557 3 56.7187 55.1697 -5.2447 26
3560 3 56.989 55.0645 -2.68014 22
3564 1 60.2426 57.9287 -2.72078 25
3565 1 60.0157 57.0369 -5.39912 29
3566 1 57.2422 52.9362 -2.68998 26
3569 1 59.3843 54.8299 -2.28956 27
3573 2 62.0549 55.6529 -3.69169 28
3577 3 58.923 56.2602 -3.86765 24
3581 3 60.8299 52.3196 -4.09651 23
3582 3 61.5036 57.1426 -3.96095 25
3585 3 61.3558 54.7188 -4.87286 25
3588 3 61.282 54.9779 -2.3981 26
3589 3 58.6248 58.564 -5.69632 26
3590 3 58.9554 53.8133 -3.98816 26
3594 1 62.187 51.0544 -5.10014 22
3591 1 62.0085 52.1296 -2.37843 25
2639 3 55.1876 51.2581 -5.81495 21
4381 3 60.2189 50.5383 -2.45727 23
2637 1 57.0109 50.5604 -9.92102 21
3598 1 62.5098 59.1224 -3.91065 27
3570 1 57.6619 59.0759 -3.9454 27
3650 1 72.3167 50.7707 -5.12577 24
7398 3 61.3113 77.3784 7.46966 26
1886 1 65.4506 51.6741 -9.59642 21
1871 3 63.3208 56.1716 -6.79037 23
1876 3 63.2229 58.1862 -8.27822 24
3617 3 63.4069 58.3637 -5.63761 24
1749 3 64.0302 50.78 -6.06536 24
1751 3 67.3353 51.8854 -9.28094 26
1752 3 68.9506 51.0649 -6.32836 21
1856 1 64.7835 56.9303 -8.21585 26
1859 1 67.2108 54.2998 -6.58139 26
1861 1 64.7428 54.0899 -9.43212 24
1863 2 64.6516 52.1808 -6.50759 21
1865 2 66.9049 55.6094 -9.59751 25
1867 3 66.2059 52.1237 -6.27552 21
1868 3 65.8742 57.4177 -6.60099 22
1869 3 63.6473 55.746 -9.90373 22
1874 3 66.1796 57.024 -9.68746 24
1875 3 64.3786 52.6361 -8.08107 24
1880 3 66.1844 54.9279 -8.28848 24
1883 1 67.3078 50.8972 -7.45197 22
1884 1 69.8648 57.895 -8.30987 23
1889 1 69.5149 54.284 -8.65449 22
1891 2 69.6292 52.467 -5.89341 20
1892 2 67.4487 57.5865 -6.48109 25
1893 2 71.9196 55.6117 -9.13242 27
1895 3 71.251 52.2495 -6.11626 20
1896 3 70.7425 57.6559 -6.3379 23
1897 3 68.4138 55.6584 -9.43348 25
1899 3 68.0759 56.2012 -6.27041 23
1901 3 69.9017 52.1774 -9.38939 23
1902 3 71.01 56.8394 -9.47518 22
1903 3 68.9843 53.5071 -6.92483 22
1904 3 68.0412 58.3209 -7.7488 23
1908 3 71.4363 54.7922 -7.88137 25
1911 1 71.8494 52.356 -7.96421 23
3483 2 64.563 50.5837 -2.58917 22
3487 3 67.8935 50.9383 -2.3299 23
3593 1 64.6727 56.7574 -5.11341 28
3597 1 64.7363 53.7145 -3.6625 28
3601 2 66.9754 55.5344 -3.56369 25
3605 3 63.6158 55.5666 -3.74436 22
3609 3 65.4778 51.7442 -3.22645 23
3610 3 66.1927 56.8699 -3.67179 24
3613 3 66.4622 54.4941 -4.65777 24
3616 3 66.3207 54.7597 -2.21681 21
3618 3 64.0137 53.3207 -5.52199 24
3621 1 69.5545 56.9125 -4.91751 27
3622 1 66.96 51.5531 -4.53093 23
3625 1 69.6992 53.9173 -2.97404 25
3626 1 67.2193 59.0627 -3.588 27
3629 2 71.7487 55.7809 -3.22536 24
3633 3 68.5215 55.6146 -3.32331 23
3637 3 70.0114 50.0545 -3.42838 24
3638 3 70.9572 57.1265 -3.48708 24
3641 3 71.1999 54.7244 -4.34422 22
3645 3 68.1828 58.4253 -5.17783 24
3646 3 68.9871 52.6927 -4.41242 23
3592 1 64.7996 56.8639 -2.21004 27
1890 1 67.2159 59.0091 -9.43807 25
4561 3 45.0402 55.523 -4.07317 24
3647 1 71.1906 50.9883 -2.12099 23
1918 2 72.2771 57.834 -6.22767 25
3652 1 72.0926 59.1981 -3.20574 28
3619 1 66.9806 52.6542 -2.05728 24
1931 1 45.7088 66.636 -8.62927 24
1937 3 46.5318 62.2023 -10.1537 22
1949 1 50.4141 64.1238 -10.1474 27
1985 3 54.0969 65.945 -10.1779 22
3514 1 47.9246 59.2835 -4.73922 24
1758 1 45.5665 59.3488 -7.17294 25
1769 3 46.3451 59.9118 -9.15468 23
1776 1 50.4113 59.7322 -6.98275 28
1782 2 50.55 60.6135 -10.1348 24
1786 3 48.99 60.7897 -10.1137 25
1788 3 49.1975 61.2444 -7.04985 25
1795 3 51.2906 60.0411 -8.78216 27
1814 3 53.864 60.7596 -10.1016 23
1929 1 48.1057 64.6784 -7.42509 24
1932 2 45.3086 63.4489 -7.45439 22
1935 3 46.7804 62.8395 -7.36646 22
1936 3 46.8964 67.7158 -7.36772 24
1942 3 47.2025 65.1963 -9.14421 24
1943 1 47.9619 61.9108 -8.76147 26
1944 1 50.4719 66.9839 -8.8367 29
1947 1 52.6711 64.5785 -7.24015 27
1951 2 50.0462 62.7339 -7.08142 26
1952 2 48.4448 67.8311 -7.30148 25
1955 3 51.5593 62.4857 -7.06332 23
1956 3 51.5745 67.8386 -7.26744 24
1959 3 49.2711 66.336 -7.29456 26
1961 3 51.3013 62.0449 -10.2299 24
1963 3 49.4498 63.3224 -8.44495 26
1968 3 51.8402 65.1392 -8.99202 24
1971 1 52.6276 61.7544 -8.59594 27
1980 2 53.107 67.9019 -7.21715 25
1987 3 53.7346 66.3857 -7.21324 26
3498 2 45.8589 61.1006 -4.26797 23
3504 3 46.306 60.3516 -5.60211 24
3505 3 46.5504 60.1739 -3.10148 23
3518 2 50.5632 60.7513 -4.00525 27
3522 3 49.0354 60.8671 -4.17167 23
3530 3 51.2253 59.8896 -5.2185 23
3531 3 51.1778 60.0081 -2.77408 26
3550 3 53.8161 60.8867 -4.04611 25
3663 1 45.6909 66.7816 -2.80158 27
3664 1 45.616 68.4328 -5.02381 23
3667 1 45.7797 64.3117 -4.58008 28
3669 2 47.7203 65.9404 -4.42406 26
3673 3 46.6145 62.4513 -4.23189 25
3674 3 47.086 67.3988 -4.27695 27
3675 3 47.2056 65.1273 -5.69823 26
3678 3 47.0617 65.0964 -3.2251 24
3679 1 47.8614 61.9436 -2.6123 28
3680 1 50.4483 67.1008 -2.77226 28
3681 1 50.4843 67.0613 -5.69851 27
3682 1 47.8474 62.1832 -5.65671 28
3685 1 50.2137 64.2048 -4.21296 29
3689 2 52.4537 65.8874 -4.32569 26
3693 3 49.2692 66.0126 -4.25491 24
3697 3 51.2742 62.1785 -4.23218 26
3698 3 51.7802 67.2856 -4.13696 26
3701 3 51.7219 65.2865 -5.52719 25
3704 3 51.9149 64.9072 -3.07142 22
3706 3 49.354 63.4854 -5.89081 25
3707 1 52.5861 62.9208 -2.99836 26
3710 1 52.7654 61.7211 -5.49351 28
3721 3 54.0427 65.9186 -4.23009 23
3733 3 53.7701 68.4967 -5.9112 24
1991 3 54.1251 63.3736 -8.22348 23
3699 3 49.4103 63.332 -2.40301 25
1816 3 54.0307 61.1589 -7.04388 27
1990 3 56.5447 67.3878 -10.0901 25
1862 1 62.3613 59.1235 -9.92259 27
3734 3 54.1262 63.2551 -5.5907 25
1804 1 55.2876 59.6061 -6.84235 28
1810 2 55.4128 60.7616 -9.99504 26
1823 3 55.9591 59.7971 -8.8103 23
1832 1 60.0669 59.7432 -6.74613 28
1838 2 60.1895 60.832 -9.86559 26
1842 3 58.6111 60.9099 -9.88404 23
1844 3 58.8602 61.2508 -7.03992 26
1851 3 60.8133 59.8767 -8.64635 24
1972 1 55.1858 66.939 -8.69592 28
1975 1 57.2456 64.6622 -7.12376 28
1977 1 55.0921 64.1035 -9.94562 27
1979 2 54.7831 62.7291 -6.90853 25
1981 2 57.2306 65.8862 -10.1009 25
1983 3 56.3112 62.5137 -6.89828 23
1984 3 56.2973 67.6311 -7.14521 22
1989 3 56.0868 62.1536 -9.85542 25
1996 3 56.4914 65.1348 -8.86871 25
1999 1 57.5558 61.9399 -8.45971 29
2000 1 59.9444 66.865 -8.66656 28
2003 1 62.2368 64.7034 -7.03606 27
2005 1 59.813 64.0884 -9.90483 28
2007 2 59.581 62.7865 -6.88836 25
2008 2 57.8656 67.7368 -7.11363 25
2009 2 61.9692 65.7494 -10.0646 25
2011 3 61.1293 62.5366 -6.90291 24
2012 3 61.0267 67.6655 -7.09272 23
2013 3 58.8005 65.8416 -10.1334 22
2015 3 58.5773 66.2147 -7.14631 26
2017 3 60.9148 62.2125 -9.848 26
2018 3 61.2968 67.2209 -10.1335 25
2019 3 58.8447 63.4646 -8.13918 24
2024 3 61.2625 65.022 -8.78245 25
2027 1 62.4024 61.9943 -8.36996 27
2036 2 62.5961 67.8873 -6.92086 25
3546 2 55.3809 60.8258 -4.00245 26
3558 3 56.1872 60.1771 -5.20539 25
3559 3 55.9347 59.8757 -2.78137 22
3574 2 60.2131 60.8836 -3.82564 26
3578 3 58.6795 60.9131 -3.88263 23
3586 3 60.9859 60.165 -5.0752 24
3587 3 60.8377 59.9016 -2.69522 23
3708 1 55.2297 67.1411 -2.68502 27