ITEM: TIMESTEP
7500
ITEM: NUMBER OF ATOMS
11016
ITEM: BOX BOUNDS pp pp pp
-14.54184 24.2364
80.0 135.0
35.0 90.0
ITEM: ATOMS id type x y z coord q2 q3 q4 q5 q6 q7 q8 q2_mono q3_mono q4_mono q5_mono q6_mono q7_mono q8_mono
3 3 -12.8239 83.736 35.2819 24 0.0441464  0.0644025  0.102487  0.0569358  0.0970504  0.0535742  0.0940378  0.0107255  0.0223564  0.09941  0.0504347  0.197093  0.072022  0.114892  
13 3 -9.68008 81.9527 42.6998 21 0.026134  0.0502258  0.0977331  0.041542  0.123707  0.0424415  0.088197  0.0151218  0.0285278  0.072753  0.0675661  0.203252  0.0725594  0.0819555  
17 1 -11.6431 80.6236 37.4381 23 0.0320866  0.0640172  0.170362  0.0486857  0.103713  0.0495094  0.124397  0.0304448  0.0373537  0.083446  0.0350994  0.0757203  0.0336354  0.122262  
15 3 -12.6791 80.8754 40.7055 23 0.0196514  0.073134  0.0857034  0.0423662  0.103061  0.0286761  0.0672755  0.011161  0.0210154  0.0810456  0.0587273  0.135902  0.0479022  0.0701005  
16 3 -9.6385 80.472 38.41 21 0.00869019  0.0709017  0.138455  0.0686644  0.0927161  0.0467888  0.113183  0.0161178  0.0242925  0.0611912  0.0904828  0.171  0.076784  0.0980225  
18 1 -11.0447 83.196 35.6682 22 0.0190649  0.0663251  0.124823  0.0428212  0.113337  0.0713074  0.103355  0.0276898  0.0235737  0.0821305  0.0414614  0.116123  0.0782155  0.162086  
19 2 24.2303 82.3803 37.9002 23 0.0355273  0.080173  0.191693  0.060034  0.130974  0.082075  0.156201  0.03602  0.0327228  0.123835  0.0581948  0.223052  0.0493403  0.164709  
20 3 -13.5226 81.2635 37.5641 24 0.0467848  0.071074  0.120589  0.0576204  0.0973315  0.0502918  0.0885854  0.0173531  0.033483  0.0461777  0.0500696  0.128277  0.0638703  0.0802779  
21 3 -10.7628 85.3809 38.3177 23 0.0331169  0.0616816  0.0917265  0.044265  0.144487  0.0329164  0.156913  0.0157655  0.0141533  0.107028  0.065126  0.254388  0.0594373  0.160327  
22 3 -10.5948 82.5355 37.4645 22 0.0480061  0.0558349  0.122145  0.0652693  0.103755  0.0603179  0.124294  0.0171831  0.03911  0.0819058  0.0709146  0.16552  0.0505538  0.136554  
23 1 -11.6507 83.6223 38.7949 25 0.0410094  0.0650559  0.108175  0.0661106  0.112133  0.043615  0.141377  0.0286157  0.029479  0.0959603  0.0922688  0.132549  0.0485925  0.16721  
24 3 -10.1324 82.4863 39.953 24 0.0146695  0.0863564  0.126044  0.0481619  0.0983758  0.0505683  0.12235  0.0199843  0.021268  0.0830422  0.0624186  0.20852  0.0527271  0.1091  
25 1 -11.6845 88.6149 40.6875 26 0.0399146  0.112346  0.151457  0.0374111  0.190173  0.0713673  0.247949  0.0484468  0.0327136  0.066156  0.0386765  0.261704  0.061822  0.283043  
28 3 -12.7901 86.503 40.7542 25 0.032238  0.0627217  0.175242  0.0535771  0.183765  0.0298831  0.192306  0.00959626  0.0213218  0.0741292  0.0401734  0.30991  0.0581666  0.156986  
31 1 -14.246 86.0222 39.22 28 0.0310652  0.0404102  0.161554  0.0610449  0.144442  0.0739581  0.15058  0.0210327  0.0139471  0.0224026  0.0398084  0.127162  0.0539358  0.164063  
32 1 -14.3896 83.2202 40.6226 25 0.0169462  0.0472167  0.17937  0.0620853  0.16479  0.0803865  0.123289  0.0172709  0.0399138  0.0786884  0.0457762  0.0910145  0.0710954  0.114013  
33 2 -12.0673 85.2413 41.3602 25 0.0288828  0.0880077  0.197897  0.0987388  0.202487  0.105335  0.166451  0.029646  0.0467082  0.19214  0.0694815  0.274996  0.0910007  0.172318  
34 3 -10.4787 85.349 41.4075 25 0.0169926  0.0407038  0.184245  0.0215227  0.137235  0.0553492  0.143475  0.016326  0.0205845  0.0936353  0.0592838  0.270732  0.0651192  0.146667  
35 3 -12.426 83.8605 40.6665 23 0.0250207  0.0612955  0.193006  0.0576709  0.155335  0.0513844  0.131184  0.0141982  0.0306846  0.0949305  0.0429898  0.209843  0.072215  0.0922462  
36 3 -13.6432 83.6481 38.4021 22 0.034455  0.0348796  0.106731  0.0594257  0.119549  0.0585942  0.123073  0.0154299  0.0156849  0.0793691  0.0500169  0.216071  0.0705473  0.107939  
37 1 -11.4563 88.5775 35.4268 20 0.0432359  0.0716062  0.149646  0.0475224  0.146372  0.089109  0.20393  0.0220336  0.0473531  0.0963552  0.0483984  0.132851  0.0494947  0.155812  
38 3 -12.9011 85.1232 42.7284 25 0.0314378  0.0442758  0.163474  0.0397059  0.172597  0.0546064  0.145433  0.00813589  0.0245841  0.0952624  0.08526  0.239059  0.0662266  0.123099  
40 2 -11.4468 86.8106 38.0133 22 0.0267838  0.0602964  0.215664  0.0551995  0.154062  0.0723107  0.205949  0.0288158  0.03675  0.178958  0.0507752  0.289717  0.071799  0.202568  
41 3 -12.9585 86.6322 37.8294 21 0.0186566  0.0616116  0.104809  0.0565636  0.122699  0.0604242  0.147144  0.0110126  0.0199025  0.0885239  0.050582  0.284504  0.070755  0.152849  
43 3 -10.6047 87.251 36.6796 19 0.0423869  0.0355359  0.210121  0.0325963  0.137349  0.0603356  0.220351  0.0309136  0.0199485  0.106096  0.0461356  0.29741  0.0704167  0.189507  
44 3 -10.8884 87.7098 39.2446 24 0.0229266  0.0703091  0.148224  0.0544103  0.171927  0.0559766  0.247792  0.00991492  0.0312075  0.100908  0.0433632  0.363715  0.0676307  0.208379  
169 1 -11.4124 82.1969 41.404 23 0.0279082  0.0597779  0.105747  0.0364908  0.126535  0.0375167  0.0810631  0.0511802  0.0392557  0.101709  0.0647603  0.0746783  0.0823115  0.148314  
171 2 -14.0962 82.1882 43.6017 22 0.0259266  0.0827938  0.120638  0.083153  0.093325  0.0812623  0.127836  0.0181487  0.0187241  0.193683  0.0603528  0.147927  0.0453189  0.13794  
172 3 -12.5666 82.2909 43.3555 20 0.0246005  0.0278009  0.0917006  0.0520352  0.103059  0.0550518  0.0862212  0.0199929  0.0201255  0.0491217  0.0602965  0.178307  0.0475732  0.113244  
189 1 -14.0495 86.6369 42.45 26 0.0335434  0.065631  0.244312  0.0347591  0.190228  0.0545072  0.23503  0.0292127  0.0343715  0.0644561  0.0634485  0.192704  0.0565208  0.238682  
192 2 -11.4497 87.8084 43.9742 24 0.0214122  0.0757251  0.227979  0.0728937  0.167427  0.0804494  0.211422  0.0434735  0.0252851  0.26359  0.0417042  0.301097  0.0514838  0.16618  
193 3 -12.9884 87.6881 43.9393 23 0.026049  0.0634226  0.218665  0.0513905  0.17208  0.0731191  0.2182  0.0202247  0.0268153  0.0930724  0.106069  0.32998  0.0808317  0.198316  
195 3 -10.7349 88.1743 42.6441 24 0.0292137  0.0636326  0.157522  0.0312722  0.181467  0.054489  0.232161  0.00776109  0.017421  0.111882  0.0786967  0.348103  0.0640387  0.200072  
1380 3 -7.88191 84.4372 36.4793 23 0.0277261  0.0626536  0.0903914  0.0705516  0.134898  0.0487676  0.116037  0.0171432  0.0213754  0.138824  0.0689331  0.235762  0.0792344  0.127785  
1395 1 -7.11785 84.0942 38.3386 27 0.0370268  0.0912284  0.12701  0.0876772  0.147161  0.0591008  0.15572  0.0367997  0.057174  0.0643433  0.0439303  0.12648  0.0674676  0.152404  
1396 2 -9.49379 82.0453 38.5219 22 0.0228668  0.0568225  0.195087  0.0960235  0.0792038  0.0862521  0.161715  0.0365665  0.0298823  0.135287  0.0682411  0.218241  0.0683709  0.138705  
1397 3 -7.97651 82.3927 38.5014 22 0.0245578  0.0564507  0.143973  0.0622091  0.0773542  0.0403972  0.128113  0.0122477  0.027108  0.0965774  0.0951678  0.230932  0.0823509  0.122724  
1398 3 -5.89928 85.6679 38.4822 25 0.0203412  0.0842201  0.176251  0.0525584  0.140347  0.0675262  0.169666  0.0135592  0.0210067  0.1239  0.0608999  0.289217  0.0779442  0.144208  
1399 3 -5.21314 83.4168 37.0922 24 0.0149029  0.0493923  0.101455  0.0432139  0.0881433  0.0381452  0.117218  0.0159499  0.0375778  0.1103  0.0759497  0.189239  0.0926921  0.0932774  
1400 1 -6.67547 81.223 39.4955 26 0.0156165  0.0419281  0.175591  0.0759625  0.129541  0.0576925  0.108257  0.0404563  0.0285423  0.0903106  0.0639159  0.106012  0.0587345  0.142325  
1401 3 -5.11168 82.7827 39.5765 24 0.0103732  0.035001  0.153792  0.0485901  0.123512  0.0601317  0.116427  0.0114942  0.0237327  0.0728982  0.0824498  0.220307  0.072608  0.106898  
1402 1 -6.90811 88.7384 40.993 28 0.0584997  0.101419  0.100151  0.0556859  0.190403  0.0952308  0.295275  0.052478  0.0327716  0.0480787  0.0454002  0.253121  0.0598626  0.273059  
1405 3 -8.0684 86.8728 41.2735 26 0.0402396  0.0575112  0.16174  0.0426867  0.195248  0.0607839  0.266995  0.00637458  0.0288289  0.114176  0.0753553  0.364552  0.083173  0.232343  
1408 1 -9.46364 86.2896 39.8076 27 0.0342191  0.0273756  0.261993  0.0331409  0.178098  0.0584364  0.25201  0.0488593  0.034488  0.0591298  0.069018  0.188459  0.0523243  0.234685  
1409 1 -8.53898 83.074 41.2687 25 0.0129877  0.0523973  0.16781  0.044824  0.124763  0.0632764  0.111825  0.0245074  0.031592  0.066391  0.0929151  0.0789449  0.0694553  0.173096  
1410 2 -7.32983 85.4996 41.2306 24 0.0266453  0.0367013  0.297006  0.055278  0.168613  0.054818  0.24237  0.0422184  0.057141  0.207215  0.077785  0.268606  0.0861282  0.162775  
1411 3 -5.7623 85.5408 41.2592 23 0.0147832  0.059883  0.198053  0.0313566  0.129935  0.0710447  0.221216  0.0292233  0.0341059  0.0969838  0.0626463  0.338908  0.0715371  0.224978  
1412 3 -7.40446 81.4545 41.3352 27 0.0274503  0.046965  0.153763  0.0672496  0.116704  0.0605761  0.0988792  0.0170094  0.0216172  0.0498464  0.0750505  0.203183  0.087071  0.103877  
1413 3 -7.95782 84.7722 39.9879 24 0.0301212  0.0529263  0.189988  0.0432624  0.158267  0.0423091  0.190957  0.017912  0.0207915  0.109548  0.0540999  0.325577  0.0654518  0.191117  
1415 3 -7.80372 84.644 42.4783 22 0.0268397  0.0537685  0.199869  0.0327465  0.149885  0.0584141  0.147113  0.0148118  0.0149244  0.0919114  0.0608422  0.267157  0.0880086  0.156754  
1417 2 -6.69255 86.9886 38.1709 23 0.0305161  0.106629  0.197018  0.0585971  0.166859  0.0860223  0.20727  0.0356853  0.041158  0.167866  0.0634373  0.294447  0.0841612  0.20075  
1418 3 -8.26995 86.9556 38.1397 22 0.0304803  0.028013  0.201597  0.0336224  0.152784  0.0441736  0.234284  0.0159112  0.0347101  0.0957426  0.0461706  0.339515  0.0597444  0.225331  
1420 3 -6.09552 87.4716 36.7022 26 0.0357139  0.0343267  0.191061  0.0300728  0.144913  0.0503001  0.160779  0.0235434  0.0233412  0.111378  0.0522904  0.263835  0.0609519  0.161402  
1421 3 -6.10192 87.9325 39.278 25 0.0259897  0.0621  0.153534  0.0636494  0.203924  0.0620983  0.267463  0.0111599  0.0278315  0.104518  0.0654238  0.371979  0.0609835  0.236115  
1546 1 -8.65121 80.2642 42.1962 26 0.028214  0.0562767  0.133467  0.047108  0.132374  0.032271  0.115528  0.0295213  0.0401871  0.0791329  0.0686514  0.100995  0.0616946  0.133322  
1551 3 -5.16262 82.894 42.8667 25 0.0195714  0.0739333  0.175319  0.0444842  0.0918146  0.0701726  0.129973  0.00937184  0.0265759  0.0615887  0.0698378  0.221966  0.0985604  0.127012  
1566 1 -9.44607 86.5261 42.6637 27 0.0273096  0.0670482  0.294057  0.050273  0.167761  0.0734952  0.249314  0.0267859  0.0434594  0.0455259  0.0787207  0.179999  0.0562899  0.260094  
1572 3 -5.87819 87.9723 42.6533 24 0.0314794  0.0813572  0.145777  0.0434402  0.158246  0.0570717  0.294121  0.0131923  0.0275076  0.1092  0.0563717  0.393269  0.0699214  0.251288  
1394 1 -6.50106 83.0345 35.7401 22 0.0126383  0.032519  0.162102  0.089975  0.0964335  0.0795969  0.12438  0.0515883  0.0241206  0.0930408  0.0356954  0.0798583  0.0765538  0.148472  
39 1 -14.1665 88.9097 37.5197 24 0.0371007  0.10429  0.085531  0.0707428  0.139873  0.0688051  0.202961  0.0182768  0.020419  0.0873552  0.0399102  0.157497  0.083106  0.169256  
1416 1 -9.47742 88.7046 37.8685 23 0.0444993  0.0671022  0.247018  0.0632205  0.189998  0.0752804  0.287308  0.0211251  0.0360042  0.0895352  0.062706  0.188782  0.0684551  0.202085  
1536 3 -7.67358 81.2452 36.0116 25 0.0325514  0.0301774  0.162199  0.0512932  0.0981261  0.0633377  0.0940762  0.0156628  0.0366192  0.0993752  0.0687793  0.182021  0.0793928  0.0902826  
1374 1 -9.41921 85.6257 36.6751 24 0.0534626  0.0931426  0.0987836  0.0590864  0.120364  0.0501362  0.173745  0.0307885  0.028494  0.0842038  0.0556185  0.152113  0.0520957  0.168152  
2751 1 -4.96372 85.4245 36.6637 28 0.0239293  0.0603093  0.145038  0.0586338  0.124763  0.0522751  0.1247  0.0348153  0.0328824  0.0937302  0.0505927  0.126846  0.0608101  0.155684  
11013 1 -14.2966 84.6923 36.376 21 0.0449771  0.0738619  0.135483  0.0689649  0.0989362  0.0731332  0.158913  0.0200804  0.0176551  0.0668397  0.0480743  0.134716  0.0559094  0.136772  
1414 1 -6.77301 88.8064 35.2573 22 0.0484017  0.0747509  0.224902  0.0347609  0.146712  0.0547161  0.194508  0.0164327  0.0622421  0.0709605  0.0571484  0.158294  0.0535508  0.155715  
1545 3 -5.33657 80.5135 43.9753 26 0.0176688  0.0622895  0.144212  0.0402208  0.0928781  0.0714756  0.106405  0.012481  0.0271268  0.0648463  0.0763821  0.194957  0.0658244  0.122026  
1570 3 -8.08295 87.3801 44.0188 23 0.00550776  0.042339  0.178949  0.0379201  0.151051  0.0453394  0.204822  0.0121458  0.0169266  0.100662  0.0563284  0.304941  0.0651919  0.189573  
1569 2 -6.49627 87.412 44.0519 25 0.0172199  0.0953119  0.22828  0.0757287  0.144448  0.0758436  0.260317  0.0451125  0.0247202  0.274139  0.029318  0.287702  0.0495227  0.17917  
1539 3 -4.6862 80.9448 37.8051 24 0.0317922  0.0615133  0.107404  0.0316782  0.103449  0.0440721  0.122358  0.0202618  0.0245896  0.108511  0.0577403  0.229297  0.0502241  0.102256  
1390 3 -3.97634 80.8909 42.0091 23 0.01754  0.0439398  0.12138  0.031899  0.117446  0.0483422  0.0857427  0.00353576  0.0234094  0.0668664  0.0725434  0.225512  0.0907824  0.104946  
1393 3 -3.27434 80.7857 35.8467 20 0.0250482  0.053448  0.0707389  0.0334396  0.0879492  0.052198  0.0874888  0.00943714  0.0304774  0.072715  0.0789074  0.188258  0.0909492  0.115173  
2757 3 -3.14774 85.6006 35.8776 25 0.0229183  0.0363964  0.210838  0.0459365  0.119597  0.0568332  0.115935  0.0189575  0.00698327  0.115507  0.059674  0.194571  0.0696064  0.106027  
2767 3 0.57956 81.4234 42.7566 23 0.0153243  0.0411996  0.156186  0.0479937  0.120514  0.0394248  0.0940154  0.0136527  0.0259591  0.0556423  0.0757675  0.155805  0.0715748  0.128728  
2769 3 -2.84206 81.0332 39.8573 25 0.0352765  0.0546493  0.0676157  0.0407373  0.105478  0.0673491  0.113379  0.012549  0.0236753  0.0741652  0.0741358  0.208387  0.0752529  0.111202  
2770 3 -0.694752 80.9447 37.3955 22 0.0337305  0.0307855  0.090827  0.0160637  0.0956334  0.0372522  0.115645  0.0176991  0.032014  0.0549345  0.0557139  0.169586  0.0844854  0.0884828  
2772 1 -2.10787 84.2374 36.7082 23 0.028002  0.0481391  0.157115  0.0483818  0.078379  0.0589634  0.102828  0.0329244  0.0464375  0.0740871  0.038655  0.145679  0.0746242  0.144434  
2773 2 -4.33343 82.5429 38.149 24 0.0277062  0.101628  0.106392  0.0538399  0.091245  0.0861171  0.165024  0.0306894  0.0433057  0.162324  0.063079  0.226465  0.0717539  0.154942  
2774 3 -2.82858 82.9839 37.971 23 0.0321856  0.0747224  0.0624463  0.0283306  0.100559  0.0708984  0.112022  0.015318  0.0301558  0.0806167  0.0630375  0.203472  0.0695888  0.0861557  
2775 3 -1.17833 85.694 37.9259 26 0.0240797  0.0589208  0.208908  0.0458363  0.132883  0.0612578  0.156763  0.0243797  0.0237972  0.100293  0.0759237  0.200787  0.0772951  0.114959  
2776 3 0.163249 83.1979 36.8131 22 0.0315948  0.0423471  0.109696  0.0322542  0.0947017  0.0496374  0.110098  0.0181403  0.0429968  0.0796687  0.0617025  0.147565  0.0747497  0.0989829  
2777 1 -2.21162 82.8597 39.9182 23 0.049483  0.081021  0.129813  0.063017  0.131212  0.0524102  0.0979513  0.0457468  0.0475942  0.0600031  0.0696436  0.100396  0.0769384  0.147178  
2778 3 -0.279273 82.6229 39.4561 22 0.0260883  0.0453706  0.0938602  0.0626114  0.0978582  0.0499254  0.0812251  0.0135006  0.0215412  0.0462085  0.0747764  0.130728  0.0876899  0.102255  
2779 1 -2.00329 88.6516 41.0021 28 0.0507519  0.0840089  0.147324  0.0711377  0.200207  0.0626068  0.304771  0.0525447  0.0273471  0.0532743  0.0319887  0.257902  0.0452214  0.282155  
2782 3 -3.04105 86.9389 41.1083 25 0.0315124  0.0769123  0.188452  0.0395706  0.187734  0.0504001  0.28701  0.00985217  0.0240709  0.112562  0.0757771  0.363507  0.0770709  0.216311  
2785 1 -4.48285 86.2264 39.734 27 0.0308446  0.0679075  0.273989  0.0445168  0.132554  0.0882221  0.235105  0.036847  0.0489783  0.052573  0.0498329  0.178669  0.0516005  0.205209  
2786 1 -4.62733 83.7225 41.2547 29 0.0156192  0.0941837  0.207449  0.0614256  0.114401  0.0922952  0.153084  0.0326382  0.0553522  0.0628286  0.0960912  0.0823507  0.105464  0.156186  
2787 2 -2.3939 85.4549 41.252 24 0.0363282  0.0495376  0.249402  0.0446039  0.173984  0.073988  0.264331  0.0443383  0.041265  0.233804  0.0663558  0.255269  0.0738726  0.17509  
2788 3 -0.819404 85.3989 41.114 23 0.0204875  0.0550027  0.202693  0.0386268  0.155673  0.0338914  0.21619  0.0222816  0.0199188  0.0480581  0.0722161  0.260486  0.0762365  0.186364  
2789 3 -1.6492 82.8215 41.9526 23 0.0193771  0.0596375  0.130881  0.0610535  0.15116  0.0463276  0.121847  0.009244  0.0108726  0.0605898  0.0603615  0.188439  0.0833092  0.115801  
2790 3 -3.06811 84.6476 40.1169 26 0.0215262  0.0491021  0.198307  0.048494  0.140986  0.0686449  0.166173  0.0110896  0.0213287  0.0735264  0.0854622  0.245591  0.0863071  0.119156  
2791 1 -2.99094 87.6388 35.2616 25 0.0136425  0.046332  0.188231  0.0492344  0.126705  0.0566468  0.114748  0.0320582  0.0560047  0.0903628  0.066488  0.201153  0.0568936  0.160357  
2792 3 -3.22805 84.9092 42.5626 24 0.0206159  0.0635526  0.194293  0.0625119  0.122743  0.0563011  0.200667  0.00877546  0.0254511  0.0806702  0.0577674  0.27408  0.0692753  0.171667  
2794 2 -1.96868 87.1471 38.1545 23 0.0269254  0.0734418  0.276008  0.0973953  0.165322  0.0916251  0.19687  0.0342567  0.0407712  0.177618  0.0678979  0.30672  0.0838827  0.206153  
2795 3 -3.47678 87.0678 38.2215 21 0.0185021  0.02309  0.219697  0.0509034  0.136313  0.0636633  0.14054  0.015284  0.0203552  0.102708  0.0637033  0.269985  0.0681323  0.139417  
2797 3 -1.54485 88.043 36.9278 23 0.0145527  0.0457246  0.193052  0.0530775  0.109326  0.0640754  0.136834  0.00706189  0.0303693  0.119502  0.0835123  0.27247  0.0788795  0.159333  
2798 3 -1.04173 87.7002 39.37 24 0.0297457  0.0803906  0.15767  0.0753681  0.180509  0.0606975  0.269795  0.017194  0.0339606  0.103583  0.0963065  0.336692  0.0812781  0.199382  
2923 1 -1.20774 80.8754 41.8835 24 0.0210383  0.0378684  0.16847  0.0419012  0.105868  0.0552297  0.0966009  0.0311596  0.0558247  0.0874763  0.0435819  0.111232  0.0869392  0.0931259  
2924 1 -2.03702 83.8191 43.7031 30 0.0407681  0.0664514  0.152929  0.0839654  0.13637  0.0581497  0.165077  0.0118433  0.0264722  0.074553  0.033446  0.121982  0.079311  0.0921811  
2925 2 -4.49822 81.8584 43.8452 23 0.0289922  0.0683542  0.25955  0.0584304  0.124048  0.090694  0.169521  0.0286733  0.0360464  0.155198  0.0527563  0.174416  0.0594013  0.104815  
2927 3 -0.977573 86.0162 43.9166 24 0.0330934  0.0546436  0.155835  0.0634773  0.141602  0.050051  0.190418  0.011071  0.0380687  0.0785214  0.0657196  0.299647  0.0806716  0.206099  
2943 1 -4.4334 86.5656 42.48 27 0.0383777  0.0648682  0.293134  0.0355643  0.174646  0.0597755  0.307625  0.0388571  0.0320085  0.0702678  0.0567392  0.18801  0.0896225  0.244186  
2946 2 -1.65311 87.524 44.058 26 0.019015  0.0604855  0.201499  0.06297  0.14282  0.0596293  0.26091  0.0495146  0.0292474  0.280749  0.0319361  0.281309  0.0435387  0.166664  
2949 3 -0.997569 88.255 42.721 21 0.0250036  0.0906276  0.126569  0.053147  0.176277  0.0488111  0.289209  0.00431643  0.0210849  0.113758  0.0389273  0.40158  0.0416327  0.250227  
4134 3 1.99298 85.0785 35.6695 21 0.0233933  0.0416539  0.122039  0.0453834  0.0763277  0.0591264  0.132525  0.016881  0.0272715  0.0747997  0.0637666  0.157092  0.0619128  0.0957463  
4148 1 3.05942 81.1637 36.7894 17 0.0307429  0.0536448  0.104757  0.0534678  0.0472507  0.0580856  0.143361  0.031555  0.057145  0.0770939  0.0288054  0.0571931  0.0548221  0.115218  
4149 1 2.32284 83.92 37.8163 22 0.0316537  0.058202  0.108137  0.0618463  0.0908393  0.0620806  0.164289  0.0271939  0.0283289  0.095649  0.0443501  0.119627  0.0930191  0.151382  
4150 2 0.207327 82.1064 37.9926 20 0.0615657  0.100591  0.147151  0.0869131  0.111135  0.0895525  0.10288  0.0380324  0.0441591  0.165268  0.0525539  0.239218  0.081161  0.164028  
4151 3 1.78404 81.8832 38.1945 18 0.030524  0.0402079  0.126052  0.0531973  0.080803  0.0489962  0.113402  0.0152617  0.0221831  0.0667387  0.0563596  0.117314  0.0856012  0.119236  
4152 3 3.64512 85.6043 37.9372 23 0.0365471  0.0528502  0.132756  0.0497603  0.0999391  0.0570144  0.166998  0.0204197  0.0329497  0.079611  0.0883253  0.195536  0.065911  0.128176  
4154 1 3.22839 81.1787 39.7344 23 0.0548179  0.0681488  0.155231  0.066578  0.0856024  0.0463407  0.140311  0.0245101  0.0299213  0.0840698  0.0391497  0.101291  0.0857415  0.131022  
4155 3 3.96183 83.1234 36.8183 20 0.0252658  0.0373812  0.108724  0.0678741  0.0698762  0.052857  0.137111  0.0231777  0.0307003  0.0555473  0.0654933  0.138517  0.0507367  0.124759  
4156 1 2.83029 88.5582 40.8909 26 0.0308088  0.140433  0.177575  0.0529791  0.173068  0.0878991  0.294479  0.0634383  0.0203894  0.0522495  0.0428505  0.252505  0.0372827  0.3131  
4159 3 1.72384 86.8062 40.9925 25 0.0411371  0.0759985  0.173329  0.0348636  0.210197  0.0536177  0.273761  0.0205266  0.0173114  0.102842  0.0460075  0.358291  0.0728254  0.232238  
4162 1 0.271978 86.1015 39.4633 26 0.0633832  0.0800132  0.25493  0.064402  0.143562  0.0558669  0.239799  0.0303476  0.042675  0.077852  0.0505233  0.176503  0.0723751  0.194997  
4163 1 0.19619 83.3903 41.2506 27 0.0187948  0.0533683  0.128959  0.072376  0.128148  0.0640719  0.117919  0.0337782  0.0359823  0.0733516  0.0647388  0.138878  0.105891  0.12745  
4164 2 2.45304 85.3273 40.9358 23 0.0223988  0.0748179  0.254057  0.0644377  0.187398  0.101679  0.236847  0.0243367  0.0513257  0.232814  0.0508102  0.265842  0.0881916  0.168457  
4165 3 3.99223 85.2608 40.9941 24 0.0113361  0.0513153  0.199624  0.0414658  0.146207  0.0511731  0.197896  0.0186768  0.0211681  0.0643852  0.0738733  0.226044  0.0668616  0.172462  
4166 3 3.33467 82.3785 41.5206 21 0.0377447  0.0520639  0.145519  0.0425323  0.11301  0.058073  0.109973  0.0196831  0.0327223  0.0500641  0.089607  0.0939694  0.0690439  0.108532  
4167 3 1.72431 84.6815 39.666 25 0.0303301  0.0575758  0.171205  0.0631322  0.122124  0.0567447  0.155738  0.0100401  0.0201112  0.0590127  0.0508102  0.187575  0.0928096  0.139548  
4169 3 1.70364 84.6848 42.2336 26 0.0294754  0.0387233  0.190797  0.0467783  0.159306  0.0793505  0.188147  0.0100759  0.0305088  0.0579702  0.0641231  0.203574  0.0634358  0.14677  
4171 2 2.97285 87.1004 37.9825 23 0.0267015  0.0815693  0.201798  0.0861444  0.149055  0.0722141  0.243771  0.0230751  0.0387698  0.185063  0.0637065  0.321973  0.0863884  0.201457  
4172 3 1.39654 87.0408 37.8578 21 0.0304893  0.0402747  0.183023  0.0454418  0.103443  0.0569251  0.200183  0.0203811  0.0121789  0.0986262  0.0780837  0.259189  0.0593477  0.149496  
4174 3 3.58675 87.8457 36.7223 20 0.0134237  0.039458  0.10171  0.0352381  0.0698234  0.0603548  0.132665  0.0147205  0.0370436  0.110736  0.0611569  0.247869  0.0759526  0.127934  
4175 3 3.68017 87.7124 39.2385 23 0.0226259  0.0931887  0.173387  0.0533203  0.161237  0.0578607  0.272567  0.0114036  0.0340045  0.101272  0.0673763  0.35659  0.0748087  0.211011  
4300 1 2.57685 80.8324 42.7043 26 0.0290563  0.0551588  0.159697  0.0559443  0.0824691  0.0697523  0.119089  0.0292911  0.0295186  0.0886081  0.0603694  0.125814  0.0753951  0.113814  
4301 1 2.86505 83.5021 43.2464 25 0.0208362  0.0594803  0.167546  0.0693075  0.136651  0.094  0.123287  0.012955  0.0294655  0.06267  0.0560337  0.130577  0.0550607  0.120715  
4305 3 4.69317 83.3364 43.8085 22 0.0228102  0.0613728  0.082409  0.045407  0.123547  0.0768744  0.0925911  0.0144068  0.0318949  0.0747923  0.0909451  0.195776  0.0851055  0.117355  
4320 1 0.353683 86.6141 42.3597 27 0.0197617  0.059204  0.234529  0.0272998  0.161284  0.0711078  0.260427  0.050635  0.0341413  0.0712918  0.0490501  0.174377  0.0632608  0.207059  
4324 3 1.56596 87.247 43.927 24 0.0122686  0.0744269  0.138243  0.0194554  0.156668  0.0654429  0.236126  0.0138295  0.0184866  0.0891655  0.0419553  0.328007  0.0516478  0.2397  
4326 3 3.80117 87.8891 42.6036 23 0.0243703  0.101839  0.127427  0.0349043  0.191627  0.0456628  0.285752  0.0133004  0.0177981  0.0985995  0.0469963  0.37284  0.0550209  0.248023  
5505 1 3.99274 84.9302 36.0094 23 0.0286296  0.0597499  0.127514  0.060958  0.0810668  0.0748976  0.163752  0.0337265  0.0293617  0.0910741  0.0440799  0.123264  0.0464185  0.152194  
2793 1 -4.63104 88.9314 37.9201 23 0.0252757  0.0777242  0.150277  0.0707399  0.169637  0.0746166  0.146722  0.0229701  0.027484  0.0623694  0.0521668  0.203255  0.0590091  0.189355  
4170 1 0.291533 88.8658 37.7904 24 0.0246263  0.0980443  0.157861  0.0696784  0.140595  0.0930491  0.207292  0.0312219  0.0156366  0.109359  0.0541202  0.246049  0.0618733  0.211775  
4128 1 0.322831 85.6869 36.5673 26 0.032114  0.0798787  0.161561  0.0592591  0.0669499  0.0627953  0.125217  0.0270439  0.0245295  0.0806196  0.042764  0.163373  0.0606274  0.176727  
4323 2 3.08062 87.3501 43.975 26 0.0310984  0.0885974  0.246339  0.0460962  0.176063  0.0726961  0.260647  0.0490261  0.0318431  0.304214  0.0392725  0.292499  0.0353011  0.165596  
2947 3 -3.22105 87.3705 43.9532 23 0.0141121  0.0274817  0.228766  0.0313428  0.149117  0.0503753  0.269598  0.0178459  0.017842  0.101347  0.0624114  0.382544  0.0537486  0.238139  
4299 3 4.73795 80.8594 43.6825 24 0.0203043  0.0330338  0.0949183  0.0531974  0.113099  0.051567  0.0868739  0.0232043  0.0225302  0.0774486  0.0609348  0.143933  0.0558659  0.119213  
5530 3 9.7406 82.633 35.2606 23 0.038938  0.0487194  0.0957941  0.0475825  0.110001  0.0515539  0.114396  0.0155163  0.0300829  0.0518771  0.0505834  0.1857  0.0901284  0.0974286  
6884 1 8.08905 99.0443 35.2829 23 0.0261877  0.0775779  0.0718947  0.0781602  0.122512  0.0769447  0.134027  0.0130368  0.0479985  0.107489  0.0568175  0.211046  0.0637432  0.191717  
7432 1 13.6514 107.406 53.5949 27 0.0188006  0.0359085  0.209767  0.0376336  0.150844  0.0373723  0.200749  0.0388719  0.0276781  0.0875672  0.0502071  0.285371  0.0559483  0.28076  
2766 2 -3.77279 80.0925 40.5982 25 0.0230653  0.108941  0.106527  0.0598099  0.0921043  0.0825004  0.133991  0.0105942  0.048662  0.156843  0.0751489  0.200377  0.0785078  0.0944025  
4147 3 4.80987 82.1453 38.9244 23 0.0297885  0.0395749  0.168233  0.0287518  0.091175  0.0457957  0.145392  0.0257334  0.0297032  0.083594  0.0552911  0.166315  0.0616543  0.125828  
5667 3 8.28025 80.2871 36.3188 21 0.026762  0.0592678  0.103065  0.0314263  0.0944512  0.0330473  0.0950852  0.0170381  0.0420826  0.0336696  0.0539071  0.164344  0.0735147  0.104667  
4144 3 6.09507 81.9863 41.864 24 0.0305978  0.0589099  0.119154  0.0532386  0.106584  0.0695392  0.107347  0.0256155  0.0312297  0.0643587  0.0803288  0.113866  0.0722329  0.101498  
6882 1 7.41695 84.958 36.3594 23 0.0282221  0.0691443  0.176223  0.0548289  0.118628  0.0445115  0.135977  0.0336186  0.0373128  0.128552  0.0820724  0.126064  0.0839578  0.156232  
4153 3 5.10025 81.0101 36.5388 23 0.0223423  0.0289492  0.120089  0.0505103  0.0854829  0.0396984  0.0918786  0.0129849  0.0125783  0.0852069  0.067793  0.130501  0.0676943  0.113279  
5511 3 5.8243 85.6627 35.5649 23 0.0172523  0.0495197  0.135372  0.0643518  0.0879901  0.0656902  0.125723  0.0055096  0.04172  0.0625956  0.0751898  0.1664  0.0574924  0.131656  
5521 3 9.22244 83.1025 43.4608 25 0.0139314  0.0256811  0.169254  0.0456131  0.106612  0.0675707  0.146144  0.0155955  0.0271106  0.11631  0.0508266  0.24094  0.0671132  0.131899  
5526 1 7.8542 83.8016 38.6815 22 0.0442211  0.117215  0.154224  0.0606901  0.127324  0.0772921  0.148154  0.0442461  0.0311227  0.0649514  0.0459185  0.12431  0.0712344  0.17363  
5527 2 5.25313 82.3158 37.3843 21 0.0613625  0.0949024  0.184407  0.0758855  0.0980364  0.108377  0.185223  0.0252931  0.048256  0.125937  0.0613463  0.224288  0.0677099  0.123678  
5528 3 6.73616 82.901 37.045 21 0.0191468  0.0574503  0.135902  0.0521343  0.083467  0.0723342  0.146738  0.0192234  0.0179697  0.0710873  0.0582451  0.129624  0.0586594  0.134081  
5529 3 8.23703 85.8155 37.9602 22 0.0477954  0.0250381  0.218125  0.045306  0.124711  0.0407435  0.198301  0.0142986  0.0222327  0.0886852  0.0923909  0.220235  0.0801012  0.147256  
5525 1 7.94221 82.115 35.5061 19 0.0301746  0.0541135  0.149461  0.0491546  0.0924683  0.0615195  0.121371  0.0343608  0.0375019  0.0736424  0.0474614  0.076153  0.0477287  0.0940175  
5531 1 8.41106 81.0768 38.2412 21 0.0465629  0.0606261  0.135925  0.0450528  0.122456  0.0814912  0.132749  0.0356466  0.0403132  0.0649438  0.0433472  0.0821503  0.035296  0.0821635  
5532 3 9.44786 83.1106 37.7373 21 0.0161536  0.0551002  0.126927  0.0515432  0.128547  0.0610815  0.124355  0.0204529  0.0306958  0.0635863  0.0876082  0.168676  0.074336  0.0944349  
5533 1 7.53947 88.5461 41.0156 27 0.0478925  0.12406  0.121784  0.0376489  0.184522  0.0734427  0.276047  0.0452876  0.0187362  0.08602  0.0562635  0.266399  0.0397651  0.290702  
5536 3 6.57283 86.71 40.9371 26 0.0295948  0.0607643  0.20546  0.0413753  0.180727  0.0359483  0.252028  0.00807944  0.0286519  0.0886486  0.0625533  0.333845  0.0769831  0.211621  
5539 1 5.15492 86.0135 39.3155 28 0.0290117  0.0855894  0.214731  0.0558896  0.134449  0.0629751  0.185658  0.028376  0.0225871  0.0587229  0.0488408  0.135624  0.0411991  0.213127  
5540 1 5.05058 83.1929 40.611 26 0.0353556  0.107742  0.180676  0.0454376  0.126983  0.0753188  0.135539  0.0396092  0.0389509  0.0734857  0.0581277  0.113772  0.0769999  0.142945  
5541 2 7.24159 85.2826 41.0703 25 0.0274831  0.0584676  0.233968  0.0792186  0.14514  0.0491429  0.217204  0.0380963  0.0568513  0.221363  0.06871  0.275691  0.0783726  0.143463  
5542 3 8.76504 85.2518 40.8813 25 0.0130789  0.0643286  0.172269  0.0455829  0.134243  0.0311201  0.189471  0.0206826  0.0253621  0.0877193  0.0445923  0.26001  0.0782031  0.180229  
5543 3 8.37854 82.2931 39.9361 21 0.0484317  0.060172  0.119393  0.0317605  0.105043  0.0546859  0.13549  0.0217565  0.0116844  0.0510756  0.0676778  0.130731  0.0686726  0.10074  