ITEM: TIMESTEP
41800
ITEM: NUMBER OF ATOMS
5600
ITEM: BOX BOUNDS xy xz yz pp pp pp
0.0000000000000000e+00 7.1234999999999999e+00 0.0000000000000000e+00
0.0000000000000000e+00 2.0198500000000001e+02 2.3744999999999998e+00
0.0000000000000000e+00 1.1958400000000000e+02 0.0000000000000000e+00
ITEM: ATOMS id type element xu yu zu q c_pe c_s[1] c_s[2] c_s[3] c_s[4] c_s[5] c_s[6]
1 1 Mg -1.56671 48.954 -0.773325 1.2 -7.08002 -3.17854e+06 -2.20007e+06 1.4587e+06 185674 12790.8 -77529.4
2 1 Mg 2.99905 50.4152 2.42448 1.2 -7.00882 -1.67986e+06 2.7602e+06 1.59401e+06 285002 -230142 650479
3 2 Si 0.877237 50.5486 0.484784 2.4 -32.0464 5.43035e+06 8.22123e+06 8.85716e+06 -1.65002e+06 615118 3.07069e+06
4 3 O 2.14439 49.5197 0.687435 -1.2 -9.4073 -2.93267e+06 -346236 -5.52594e+06 -141308 62418.7 107423
5 3 O -0.956194 53.083 1.61861 -1.2 -9.18753 -2.84912e+06 -1.63181e+06 -3.6651e+06 -2.97404e+06 -117087 -475600
6 3 O 0.0669147 49.8271 -0.669209 -1.2 -9.34209 -5.60691e+06 -1.40641e+06 -4.06397e+06 244950 -2.39295e+06 -254764
7 1 Mg -2.21152 59.2549 3.36759 1.2 -7.60471 -504119 3.09741e+06 2.17768e+06 -290996 1.05935e+06 1.42195e+06
8 3 O 0.18681 50.5094 1.85645 -1.2 -10.0045 -1.94554e+06 -2.83279e+06 -4.27782e+06 781043 -451766 -3.22233e+06
9 1 Mg -2.10345 56.0088 4.74662 1.2 -8.18138 1.22378e+06 422814 5.42279e+06 748447 14786.6 437739
10 2 Si 0.478353 58.0549 4.87107 2.4 -32.9204 6.04007e+06 7.75073e+06 1.29253e+07 -794472 -453306 578677
11 3 O -1.04889 58.1071 4.91552 -1.2 -9.6857 -3.0345e+06 -1.50472e+06 -4.77104e+06 -1.0885e+06 5925.92 101490
12 3 O 1.82229 54.0563 4.99003 -1.2 -9.13073 -2.26971e+06 1.83084e+06 -3.80607e+06 -2.04126e+06 -145130 -947717
13 3 O 1.26465 57.3558 3.57762 -1.2 -9.16993 -428351 852160 -1.617e+06 -610939 -952302 -488598
14 3 O 1.1766 57.428 6.22853 -1.2 -8.62819 -4.11165e+06 -2.60707e+06 -3.84044e+06 -349993 1.94732e+06 1.16532e+06
15 1 Mg 0.374753 53.0914 3.06449 1.2 -7.50786 -1.45159e+06 2.37984e+06 1.57225e+06 609573 -642073 1.90581e+06
16 1 Mg 0.793034 49.0076 3.13917 1.2 -6.29659 -234761 566520 1.67236e+06 -1.14076e+06 -691874 1.20756e+06
17 2 Si 2.54176 52.5164 4.82997 2.4 -32.0858 7.94809e+06 9.07144e+06 1.11783e+07 -994771 360013 929314
18 3 O -0.622459 52.8092 4.87933 -1.2 -9.76868 -481427 -2.84205e+06 -2.35716e+06 390934 -351757 -225156
19 3 O 2.67499 48.6528 3.37947 -1.2 -8.50851 2.50147e+06 897232 -6.13072e+06 -341824 -1.02035e+06 -1.07348e+06
20 3 O 2.03974 51.9006 3.41305 -1.2 -9.77034 -1.98008e+06 -661728 -2.81429e+06 -1.62601e+06 1.24423e+06 762692
21 1 Mg 0.340298 53.8366 0.259102 1.2 -7.50088 -1.93474e+06 2.01627e+06 1.1127e+06 867254 2.17688e+06 236600
22 3 O 2.07847 51.4795 6.02204 -1.2 -10.7201 -1.71207e+06 -1.66848e+06 -2.27925e+06 2.61654e+06 -433575 -1.22319e+06
23 1 Mg 0.0417931 56.6652 1.81928 1.2 -8.14208 2.54997e+06 -433412 3.32538e+06 -1.03738e+06 922627 124770
24 2 Si -1.76247 54.5598 1.79307 2.4 -32.5298 6.79136e+06 1.00845e+07 1.0518e+07 -693071 -561998 1.50494e+06
25 3 O 1.37612 54.3811 1.85855 -1.2 -9.71003 -456693 -2.76456e+06 -3.60487e+06 -541707 -88237.6 -1.20323e+06
26 3 O -0.826337 58.6611 1.69305 -1.2 -9.331 -1.9976e+06 -2.98102e+06 -3.62137e+06 1.05971e+06 176470 -715303
27 3 O -1.21397 55.4788 0.557125 -1.2 -9.34049 -789448 -553948 -4.02703e+06 541609 -410332 -1.67541e+06
28 3 O -1.11918 55.3692 3.01031 -1.2 -9.18443 -2.81878e+06 47353.5 -3.95204e+06 1.15924e+06 534822 666658
29 1 Mg -2.21878 59.1119 0.235096 1.2 -7.66513 -965319 2.69675e+06 1.99678e+06 -359714 -1.30876e+06 -1.76664e+06
30 1 Mg 2.34887 61.9334 1.60091 1.2 -8.35387 1.80419e+06 -977772 5.07463e+06 46590.9 -39319.1 551279
31 2 Si -0.116406 60.0985 1.75279 2.4 -32.7377 4.19654e+06 8.4138e+06 1.27279e+07 -1.11108e+06 800755 111380
32 3 O 1.41743 60.1002 1.79049 -1.2 -10.0802 -2.94672e+06 -1.90553e+06 -4.16337e+06 -431745 606074 -597806
33 3 O -1.23894 63.6513 1.7715 -1.2 -8.30674 -2.54164e+06 -1.34546e+06 -4.39168e+06 -891476 934797 -47807.8
34 3 O -0.869534 60.8153 0.378035 -1.2 -8.95945 -677026 -2.14105e+06 -2.36845e+06 -304092 1.88931e+06 -135943
35 1 Mg -2.22958 69.3377 3.07407 1.2 -7.35349 -2.94743e+06 3.282e+06 299505 -1.01317e+06 1.1313e+06 840133
36 3 O -0.767136 60.7263 3.08781 -1.2 -8.97142 -1.91643e+06 -2.41872e+06 -2.17586e+06 649295 -905389 -67644.6
37 1 Mg -2.11022 66.7269 4.78879 1.2 -8.50764 934470 -821864 4.78194e+06 584109 -480207 -354056
38 2 Si 0.515851 68.449 4.66447 2.4 -32.666 5.82146e+06 8.59493e+06 8.48778e+06 186359 -130585 -805447
39 3 O -1.05991 68.4442 4.68741 -1.2 -9.73913 -1.4777e+06 -3.1072e+06 -3.85454e+06 248146 -15894.4 700302
40 3 O 1.65832 64.8551 4.84472 -1.2 -8.23599 -2.9284e+06 -1.79732e+06 -6.1774e+06 -1.69202e+06 827749 1.43901e+06
41 3 O 1.16242 67.7339 3.37833 -1.2 -9.31302 -2.86178e+06 -2.47352e+06 -3.11848e+06 -495276 -962860 181265
42 3 O 1.17464 67.7822 5.92939 -1.2 -9.16615 -2.71373e+06 -2.60972e+06 -4.32256e+06 -236991 259829 2.18901e+06
43 1 Mg 0.280037 64.3772 3.41766 1.2 -8.3135 435935 1.42676e+06 2.27673e+06 721605 -475353 585014
44 1 Mg 0.246279 61.5604 4.83828 1.2 -8.54186 1.23448e+06 -422467 5.54361e+06 -673896 425039 -462956
45 2 Si 2.36689 63.2496 4.83275 2.4 -34.3838 6.84432e+06 5.26301e+06 1.18562e+07 -1.6981e+06 -1.20078e+06 -1.71234e+06
46 3 O -0.796736 63.341 4.82391 -1.2 -9.03021 -3.03737e+06 -1.14005e+06 -6.87345e+06 649806 -810507 1.19858e+06
47 3 O 1.15522 59.5721 4.90761 -1.2 -9.10597 -2.50386e+06 -1.60135e+06 -4.88862e+06 1.77324e+06 -284706 515795
48 3 O 1.75628 62.7364 3.54955 -1.2 -8.63413 -5.22763e+06 -1.56163e+06 -5.82549e+06 -449714 993013 -623437
49 1 Mg 0.0764182 64.3935 0.0690514 1.2 -7.96925 -9794.68 2.09261e+06 3.01258e+06 1.06413e+06 342967 -2.24344e+06
50 3 O 1.66088 62.739 6.08873 -1.2 -8.43529 -4.55592e+06 -2.77372e+06 -6.08353e+06 -372775 -519933 2.28086e+06
51 1 Mg 0.454576 67.2317 1.50675 1.2 -8.18379 2.6856e+06 -863290 3.56621e+06 -415342 50596.4 -975615
52 2 Si -1.87267 65.1759 1.79044 2.4 -34.3295 7.04574e+06 7.5346e+06 1.04028e+07 347999 403130 -4.00834e+06
53 3 O 1.3326 65.1717 1.63684 -1.2 -9.14455 -3.5702e+06 -923163 -3.98183e+06 300874 -30833.6 1.24186e+06
54 3 O -0.878255 68.8262 1.63663 -1.2 -9.43469 -688912 -3.04032e+06 -5.29722e+06 1.82999e+06 -824406 550569
55 3 O -1.1441 65.9809 0.543206 -1.2 -8.89969 -3.21645e+06 -607069 -3.29621e+06 1.29425e+06 -1.32617e+06 1.71631e+06
56 3 O -1.23762 65.7346 3.07363 -1.2 -8.454 -3.56263e+06 -3.13485e+06 -5.86631e+06 -820075 1.20498e+06 551029
57 1 Mg -2.17555 69.3728 0.302279 1.2 -7.55874 -2.68093e+06 3.06387e+06 152374 -929018 -1.49871e+06 -2.49259e+06
58 1 Mg 2.34174 72.1565 1.43842 1.2 -7.80798 677944 760917 4.35207e+06 403265 -85275.8 -387498
59 2 Si -0.117181 70.3914 1.71813 2.4 -31.2999 2.56572e+06 1.03007e+07 8.98643e+06 220154 1.21304e+06 -2.53524e+06
60 3 O 1.403 70.2317 1.65164 -1.2 -10.6713 -2.80093e+06 -3.26704e+06 -5.2449e+06 -161012 -178931 324737
61 3 O -1.28897 74.2432 1.53518 -1.2 -9.29626 -909937 -1.22262e+06 -3.91224e+06 -652968 -303734 271968
62 3 O -0.874446 71.1228 0.389936 -1.2 -9.48275 -714538 -2.48952e+06 -3.4734e+06 -1.12115e+06 1.83276e+06 260166
63 1 Mg -2.47243 80.1684 2.86166 1.2 -7.43918 -1.16293e+06 3.69393e+06 488226 -541513 1.71782e+06 2.17096e+06
64 3 O -0.871844 70.9523 2.89108 -1.2 -9.79094 -2.11089e+06 -4.94504e+06 -6.74686e+06 -209005 -331515 -1.02887e+06
65 1 Mg -2.23407 77.0418 4.53861 1.2 -7.36802 -300308 2.12893e+06 2.75379e+06 855646 410177 -191619
66 2 Si 0.363546 78.9807 4.51135 2.4 -31.7054 6.00933e+06 9.25475e+06 1.00884e+07 -718883 -69213 -703605
67 3 O -1.2269 79.1445 4.49682 -1.2 -10.015 432771 -2.58109e+06 -4.08838e+06 -1.04145e+06 557642 -130247
68 3 O 1.4272 75.0738 4.47045 -1.2 -9.95422 -588657 -4.91381e+06 -2.8754e+06 -937910 337176 1.3763e+06
69 3 O 1.01283 78.3369 3.21113 -1.2 -9.80669 -1.85161e+06 -2.21107e+06 -3.05177e+06 168985 -787955 -859210
70 3 O 1.05107 78.3512 5.81206 -1.2 -9.8912 -2.07339e+06 -1.18462e+06 -1.53895e+06 443965 940075 -429895
71 1 Mg 0.0562807 74.7341 2.94956 1.2 -7.23913 -1.23679e+06 3.53323e+06 163743 1.0122e+06 -1.7103e+06 579564
72 1 Mg 0.0403567 71.7197 4.42117 1.2 -7.84011 1.75494e+06 537096 1.02807e+06 -1.28073e+06 -300956 -2.04335e+06
73 2 Si 2.11911 73.6263 4.49109 2.4 -32.8264 4.11867e+06 7.32258e+06 8.97899e+06 -699159 -281279 -1.69326e+06
74 3 O -1.10889 73.6207 4.33763 -1.2 -9.54189 -2.74474e+06 -2.09553e+06 -4.54848e+06 -41334.8 -486482 998251
75 3 O 1.26626 69.8892 4.62185 -1.2 -9.69855 -1.85078e+06 -4.60945e+06 -3.01939e+06 1.06869e+06 399197 1.11602e+06
76 3 O 1.47066 72.8685 3.23274 -1.2 -9.3187 -4.00457e+06 -1.23443e+06 -1.99259e+06 172175 224776 769363
77 1 Mg 0.0519775 74.8949 -0.0807916 1.2 -7.41785 -423408 3.96707e+06 -26927.5 987932 1.31747e+06 -2.1054e+06
78 3 O 1.50239 73.0527 5.83461 -1.2 -9.59873 -2.64744e+06 -3.33321e+06 -3.6904e+06 153303 -993313 1.7377e+06
79 1 Mg 0.00897316 77.7755 1.61667 1.2 -7.88688 2.20653e+06 315238 1.48949e+06 -670318 -339741 -51277.9
80 2 Si -2.01721 75.7499 1.57669 2.4 -32.3196 2.00106e+06 1.22448e+07 8.33158e+06 -952304 -767923 -1.92668e+06
81 3 O 1.22334 75.6498 1.4429 -1.2 -10.0599 -2.55092e+06 -3.42039e+06 -2.8626e+06 -333964 -414996 661070
82 3 O -1.07014 79.5408 1.43569 -1.2 -9.30824 -3.1726e+06 -3.16666e+06 -2.49463e+06 1.34818e+06 306026 -1.42675e+06
83 3 O -1.35045 76.5528 0.245373 -1.2 -9.27412 -1.51883e+06 -1.6516e+06 205053 159470 -316919 -802170
84 3 O -1.4451 76.3975 2.85923 -1.2 -9.98969 -1.65598e+06 -3.83497e+06 -3.2197e+06 83772 426020 -203249
85 1 Mg -2.3049 80.1132 -0.153252 1.2 -7.56051 -1.94837e+06 3.64563e+06 -1.17861e+06 -144343 -555488 -2.5662e+06
86 1 Mg 2.17807 82.9307 1.50692 1.2 -8.31019 1.16275e+06 -75060.4 2.08243e+06 628558 -508393 1.26664e+06
87 2 Si -0.36795 81.0768 1.4337 2.4 -32.7915 4.31896e+06 1.07062e+07 7.07603e+06 -69625.4 -709246 289930
88 3 O 1.185 81.0002 1.37457 -1.2 -9.71878 -2.06422e+06 -4.6859e+06 -4.06445e+06 97884.9 149458 -230233
89 3 O -1.5742 84.7445 1.56906 -1.2 -9.10235 -3.42879e+06 -2.7965e+06 -3.54883e+06 -1.41847e+06 -730899 -109816
90 3 O -1.05121 81.8037 0.223859 -1.2 -9.26003 -3.61889e+06 -2.78686e+06 -4.44446e+06 270735 532957 488100
91 1 Mg -2.387 90.6548 2.96369 1.2 -6.9707 -2.18183e+06 3.06929e+06 804045 -609604 955626 3.02148e+06
92 3 O -0.965018 81.7331 2.70884 -1.2 -9.29441 -1.9383e+06 -3.13021e+06 -4.81663e+06 637625 -311162 -488698
93 1 Mg -2.45471 87.7478 4.5563 1.2 -7.96084 1.86082e+06 -586433 3.96332e+06 1.29693e+06 -223637 700076
94 2 Si 0.342161 89.633 4.47324 2.4 -32.1184 4.29365e+06 1.04674e+07 9.71008e+06 -243784 -220468 1.6093e+06
95 3 O -1.222 89.7687 4.49908 -1.2 -9.99223 -562190 -3.42567e+06 -3.6808e+06 -237546 -564547 -742820
96 3 O 1.30777 85.794 4.57098 -1.2 -9.65048 -2.94374e+06 -3.07024e+06 -3.53259e+06 632618 676145 -1.87415e+06
97 3 O 1.04235 88.7945 3.27971 -1.2 -9.77026 -2.5555e+06 -482291 -4.70612e+06 -46031.2 -966324 10620.9
98 3 O 0.986032 88.9057 5.77585 -1.2 -9.29561 -2.64069e+06 -2.65794e+06 -2.70887e+06 -417246 1.26929e+06 -1.01155e+06
99 1 Mg -0.091901 85.1757 3.01313 1.2 -7.42756 -1.59929e+06 3.22825e+06 328770 496657 -602309 3.2667e+06
100 1 Mg 0.13869 82.3329 4.38413 1.2 -7.98762 1.58257e+06 -1.73629e+06 2.60063e+06 -693449 183591 447336
101 2 Si 2.00414 84.3594 4.57312 2.4 -32.393 976876 1.05027e+07 7.99173e+06 -324889 159914 1.77405e+06
102 3 O -1.27033 84.4899 4.44468 -1.2 -9.82897 -4.27085e+06 -4.97749e+06 -4.3637e+06 -586133 -112676 -990673
103 3 O 1.0004 80.5816 4.38087 -1.2 -9.62821 -2.74521e+06 -2.67129e+06 -2.99481e+06 1.93334e+06 -162162 -956754
104 3 O 1.34461 83.5553 3.35042 -1.2 -9.24571 -3.6933e+06 -2.63903e+06 -5.42538e+06 -713502 603627 493536
105 1 Mg -0.250319 85.3985 0.0133637 1.2 -7.48374 -82552.2 3.40808e+06 387765 1.03834e+06 1.50383e+06 -966699
106 3 O 1.36723 83.4835 5.76326 -1.2 -9.68967 -2.47187e+06 -2.4636e+06 -5.51632e+06 621237 -426859 -1.52035e+06
107 1 Mg -0.0716733 88.248 1.71247 1.2 -7.94454 1.44831e+06 15268 3.30323e+06 -324784 -398219 -559399
108 2 Si -2.20373 86.288 1.69599 2.4 -32.739 4.3288e+06 1.05342e+07 9.56193e+06 710270 -19881.7 1.40897e+06
109 3 O 1.01135 86.1318 1.62499 -1.2 -9.79688 -2.38951e+06 -2.98843e+06 -3.92286e+06 1.23522e+06 1.26916e+06 -1.08276e+06
110 3 O -0.92492 90.0709 1.60615 -1.2 -9.60625 -1.82696e+06 -2.21057e+06 -4.14719e+06 1.16968e+06 905134 -1.26313e+06
111 3 O -1.51572 86.9749 0.341356 -1.2 -9.13318 -1.77531e+06 -2.49283e+06 -3.12839e+06 -117527 -1.91352e+06 -750246
112 3 O -1.44569 87.0366 2.82285 -1.2 -9.50242 -2.36391e+06 -1.47387e+06 -5.3699e+06 613284 389399 -703032
113 1 Mg -2.41614 90.7111 0.0657748 1.2 -7.37983 -1.69583e+06 3.47171e+06 -95570.1 -1.07056e+06 -1.00542e+06 -2.20818e+06
114 1 Mg 2.41067 93.4735 1.64925 1.2 -7.41268 730868 -1.15228e+06 3.01329e+06 654022 1.02206e+06 206147
115 2 Si -0.262017 91.6093 1.56137 2.4 -31.7444 1.52663e+06 1.00747e+07 1.07331e+07 1.00365e+06 506798 552696
116 3 O 1.28183 91.5032 1.58079 -1.2 -10.425 -1.62594e+06 -4.28914e+06 -6.45057e+06 212008 78416.4 -1.29138e+06
117 3 O -1.49256 95.2875 1.59145 -1.2 -10.0313 -1.81612e+06 -3.35511e+06 -2.76793e+06 -966608 346356 -1.04576e+06
118 3 O -0.952298 92.2723 0.224965 -1.2 -9.71891 -1.98474e+06 -1.69141e+06 -2.46672e+06 -1.07284e+06 1.07213e+06 -361291
119 1 Mg -2.39668 101.244 2.99266 1.2 -8.33326 -1.28342e+06 2.66179e+06 -36207.3 -1.70045e+06 1.67408e+06 753019
120 3 O -0.89197 92.2947 2.80767 -1.2 -9.94029 -2.13309e+06 -3.25691e+06 -4.3301e+06 -270590 -431639 -944098
121 1 Mg -2.23149 98.0717 4.41767 1.2 -8.59625 2.20011e+06 586598 1.56031e+06 815091 317616 -1.11629e+06
122 2 Si 0.375666 100.096 4.6153 2.4 -34.0924 1.11847e+07 6.92345e+06 7.68557e+06 639530 85276 -1.2533e+06
123 3 O -1.29665 100.1 4.53684 -1.2 -8.70918 -1.341e+06 -1.32113e+06 -3.93598e+06 445426 1.53119e+06 169459
124 3 O 1.2527 96.3767 4.44765 -1.2 -9.37516 -2.61635e+06 -2.20677e+06 -4.18502e+06 -1.38665e+06 -1.25872e+06 1.71661e+06
125 3 O 0.944865 99.4279 3.33473 -1.2 -8.41334 -4.76785e+06 -3.15865e+06 -3.58552e+06 -888816 -1.04048e+06 -1.19225e+06
126 3 O 1.09611 99.5247 5.86956 -1.2 -8.82766 -4.07515e+06 -2.82044e+06 -5.27278e+06 -1.17902e+06 1.25414e+06 1.39833e+06
127 1 Mg -0.133431 95.9418 3.11936 1.2 -7.25526 -2.9497e+06 3.18768e+06 831856 1.04641e+06 -2.00007e+06 1.81716e+06
128 1 Mg -0.0738483 92.9895 4.54472 1.2 -7.89523 1.36525e+06 918760 3.55312e+06 -1.0317e+06 -369088 557836
129 2 Si 1.98045 94.8487 4.3292 2.4 -32.286 5.54045e+06 9.2325e+06 1.09401e+07 -878221 162318 -114561
130 3 O -1.1885 94.8761 4.48655 -1.2 -9.64798 -29307.5 -3.05837e+06 -4.67654e+06 -423243 1.63672e+06 -65328.9
131 3 O 0.997711 91.136 4.56131 -1.2 -9.74997 -2.25951e+06 -1.73508e+06 -2.50947e+06 679353 -338291 549267
132 3 O 1.35239 94.14 3.12674 -1.2 -10.017 -3.00057e+06 -2.69046e+06 -4.49554e+06 -921123 636603 -1.00091e+06
133 1 Mg 0.074435 95.7144 0.0838764 1.2 -7.33403 -2.51535e+06 4.0955e+06 1.2504e+06 804708 1.33544e+06 -777882
134 3 O 1.39662 94.2603 5.81226 -1.2 -8.78776 -3.96555e+06 -2.39787e+06 1.72619e+06 148721 -944019 -104714
135 1 Mg 0.198552 98.7114 1.52483 1.2 -8.50306 1.97582e+06 -340691 4.08366e+06 -311086 227460 1.22731e+06
136 2 Si -2.07466 96.7972 1.41771 2.4 -32.1259 4.75414e+06 9.50541e+06 1.10589e+07 1.26367e+06 -525773 577642
137 3 O 1.14874 96.7889 1.43028 -1.2 -10.021 -2.04483e+06 -2.84471e+06 -5.03392e+06 1.25786e+06 -1.15815e+06 -5058.12
138 3 O -0.985785 100.458 1.4034 -1.2 -8.84969 -2.91245e+06 -5.38327e+06 -4.37278e+06 -87465 -67014.2 32271.3
139 3 O -1.28857 97.4607 0.093668 -1.2 -8.98674 -3.1412e+06 -1.60169e+06 -1.57263e+06 81553.2 -1.43823e+06 -1.92002e+06
140 3 O -1.36323 97.5024 2.74738 -1.2 -9.2727 -2.25386e+06 -3.26796e+06 -2.42384e+06 646612 1.26773e+06 -460345
141 1 Mg -2.3088 100.913 -0.129626 1.2 -8.01744 -1.36526e+06 3.27069e+06 -638857 -417115 -1.29401e+06 -1.66531e+06
142 1 Mg 7.15258 103.959 1.49145 1.2 -8.36274 2.82799e+06 217720 1.92739e+06 842497 -170516 55392.6
143 2 Si -0.346863 101.869 1.43244 2.4 -34.3569 7.34562e+06 7.67419e+06 8.34268e+06 616033 -426541 -1.2632e+06
144 3 O 1.2479 101.873 1.45937 -1.2 -8.72496 -2.42536e+06 -2.8854e+06 -5.27315e+06 565473 -1.17959e+06 1.05653e+06
145 3 O 3.42203 105.7 1.37912 -1.2 -9.48959 -2.94347e+06 -4.53095e+06 -1.77017e+06 -1.06526e+06 410326 673847
146 3 O -0.829076 102.629 0.147475 -1.2 -8.36918 -5.53502e+06 -2.64682e+06 -3.14756e+06 474772 -88126.1 1.03509e+06
147 1 Mg 2.37854 111.43 3.10318 1.2 -7.81691 -1.63708e+06 4.43921e+06 397680 -1.29909e+06 1.78094e+06 1.08183e+06
148 3 O -1.02008 102.579 2.68859 -1.2 -8.95401 -5.26197e+06 -3.61528e+06 -3.41387e+06 -1.23578e+06 10130.8 -562444
149 1 Mg 2.52122 108.419 4.53631 1.2 -7.91364 1.18398e+06 1.32244e+06 2.02076e+06 1.12857e+06 143254 -547098
150 2 Si 5.07627 110.423 4.60522 2.4 -32.9407 5.82235e+06 1.03446e+07 8.53261e+06 -164316 -667737 -663314
151 3 O 3.49406 110.436 4.68387 -1.2 -9.69246 -1.68486e+06 -3.33656e+06 -3.74195e+06 -231772 -563513 39557.1
152 3 O 6.08993 106.585 4.47628 -1.2 -9.4515 -293107 -4.65804e+06 -3.51015e+06 -2.2338e+06 -45349.7 1.52304e+06
153 3 O 5.78751 109.672 3.37802 -1.2 -9.19516 -2.30638e+06 -2.65061e+06 -1.00817e+06 185487 -166405 -160829
154 3 O 5.70512 109.886 5.97804 -1.2 -9.17584 -3.11709e+06 -3.99497e+06 -1.68343e+06 -628231 374315 499366
155 1 Mg 4.57976 106.469 3.16962 1.2 -7.15449 -1.96275e+06 3.30039e+06 43884.2 1.10097e+06 -705645 1.45239e+06
156 1 Mg -0.085103 103.347 4.37624 1.2 -8.45501 1.09868e+06 -216053 3.92409e+06 -601999 -123490 423005
157 2 Si 6.80432 105.09 4.40014 2.4 -32.6382 7.10522e+06 1.02162e+07 8.33983e+06 -532235 -243997 594790
158 3 O 3.7097 105.209 4.42715 -1.2 -9.97701 -1.10957e+06 -3.1525e+06 -3.80922e+06 175644 -78384.2 -452910
159 3 O 1.11206 101.531 4.47692 -1.2 -8.6973 -3.55857e+06 -7.08378e+06 -4.64526e+06 1.78638e+06 201400 -840985
160 3 O 6.17065 104.289 3.24123 -1.2 -9.07834 -2.34731e+06 -3.3097e+06 -5.0396e+06 843222 697796 -960928
161 1 Mg 4.80894 106.001 0.0539067 1.2 -7.5386 -1.5662e+06 4.96867e+06 -245780 711600 1.55631e+06 -1.11493e+06
162 3 O 6.07532 104.479 5.69324 -1.2 -8.76845 -2.50559e+06 -4.72993e+06 -3.90412e+06 63548.6 -1.48356e+06 37115.5
163 1 Mg 4.75694 109.055 1.47406 1.2 -7.99751 2.47889e+06 674727 2.62454e+06 -885454 225638 473894
164 2 Si 2.68274 107.205 1.33405 2.4 -32.5526 2.73868e+06 1.26168e+07 6.55476e+06 -826085 -495384 1.16524e+06
165 3 O 5.95355 107.03 1.45153 -1.2 -9.83035 -3.64912e+06 -4.23368e+06 -2.49662e+06 -337990 -1.30418e+06 -98362.3
166 3 O 3.64846 110.788 1.59935 -1.2 -9.23318 -1.50267e+06 -4.18274e+06 -1.7264e+06 1.37881e+06 335115 260526
167 3 O 3.45649 107.853 0.159412 -1.2 -9.40199 -2.93392e+06 -5.08949e+06 -3.16677e+06 166943 -588569 898292
168 3 O 3.28588 107.963 2.6965 -1.2 -9.44095 -2.78488e+06 -3.7645e+06 -1.05961e+06 725916 897174 302735
169 1 Mg 2.42661 111.378 -0.0700948 1.2 -7.72925 -1.40444e+06 4.23967e+06 -897393 -1.56869e+06 -2.19254e+06 -1.56878e+06
170 1 Mg 7.02963 114.395 1.43654 1.2 -7.93369 1.60846e+06 1.5931e+06 2.09513e+06 511035 -325735 203973
171 2 Si 4.36622 112.312 1.48171 2.4 -32.9053 8.07992e+06 9.91501e+06 6.80747e+06 617888 -1.23482e+06 -752822
172 3 O 5.94331 112.291 1.39783 -1.2 -9.37957 -1.40693e+06 -2.32842e+06 -3.14428e+06 15407.8 -949164 549736
173 3 O 3.52574 116.241 1.47974 -1.2 -10.1078 -590726 -4.12575e+06 -2.26615e+06 -904075 -51119.7 1.04349e+06
174 3 O 3.7097 112.934 0.196254 -1.2 -9.18605 -4.17033e+06 -2.32311e+06 -2.79527e+06 -1203 763747 740900
175 1 Mg 2.32658 122.091 2.97491 1.2 -7.37602 -1.09819e+06 3.55655e+06 -203540 -893562 1.14523e+06 2.30789e+06
176 3 O 3.59499 113.007 2.70809 -1.2 -9.29198 -2.26649e+06 -3.35575e+06 -2.21567e+06 -958191 -1.01388e+06 -612653
177 1 Mg 2.28141 118.981 4.5594 1.2 -7.96497 1.15116e+06 695841 1.90613e+06 1.22302e+06 -555796 -7210.49
178 2 Si 4.99461 120.795 4.45486 2.4 -32.7174 5.98538e+06 1.1598e+07 7.99191e+06 418228 -422604 -763287
179 3 O 3.42846 121.072 4.5179 -1.2 -9.61646 -839773 -4.14822e+06 -3.31144e+06 -597842 -160517 -717876
180 3 O 5.99133 117.182 4.58231 -1.2 -9.91573 -942084 -4.45726e+06 -2.41133e+06 -1.72252e+06 -8197.32 -1.15026e+06
181 3 O 5.69467 120.211 3.22034 -1.2 -9.2873 -2.67057e+06 -4.10284e+06 -3.30044e+06 -70783.8 -390974 -912647
182 3 O 5.57742 120.013 5.76958 -1.2 -9.32946 -3.2466e+06 -2.73549e+06 -52037.3 -397858 722823 -582768
183 1 Mg 4.73164 116.881 3.04532 1.2 -7.08063 -2.90323e+06 5.21564e+06 -1.07793e+06 1.42581e+06 -2.39288e+06 1.76194e+06
184 1 Mg 4.54117 113.71 4.52536 1.2 -8.03658 2.16501e+06 1.58599e+06 2.22234e+06 -428204 405766 -160988
185 2 Si 6.72037 115.666 4.48679 2.4 -31.9974 4.90172e+06 1.30524e+07 6.82908e+06 40409.7 -1.4438e+06 159487
186 3 O 3.54992 115.751 4.44733 -1.2 -10.2335 -974335 -3.88851e+06 -3.05819e+06 -377629 -904441 -737738
187 3 O 5.69867 111.922 4.48858 -1.2 -9.27225 -1.61575e+06 -4.17035e+06 -2.20532e+06 575723 780204 -37734.5
188 3 O 6.10567 115.037 3.20532 -1.2 -9.49252 -2.33531e+06 -2.7908e+06 -2.07308e+06 453286 -12501 -439769
189 1 Mg 4.76068 116.634 -0.0759843 1.2 -7.12014 -2.40927e+06 4.55221e+06 579306 778126 1.3826e+06 -1.78461e+06
190 3 O 6.02695 114.828 5.74063 -1.2 -9.31805 -687461 -2.85915e+06 -578047 595497 -923897 -1.61331e+06
191 1 Mg 4.79738 119.591 1.37413 1.2 -7.93777 606585 489542 1.39717e+06 -1.55352e+06 738240 1.03103e+06
192 2 Si 2.7895 117.686 1.52153 2.4 -31.2903 3.71856e+06 1.22341e+07 7.20911e+06 -441728 -156911 850861
193 3 O 5.99938 117.717 1.45405 -1.2 -10.294 -853914 -4.01996e+06 -1.84237e+06 -368174 -63875.7 -33936.4
194 3 O 3.74689 121.383 1.48682 -1.2 -9.35463 -2.04154e+06 -1.67096e+06 -3.31012e+06 627502 311530 1.02193e+06
195 3 O 3.49227 118.414 0.242019 -1.2 -10.0088 -2.30772e+06 -3.18137e+06 -730594 176127 -522747 -85529.9
196 3 O 3.42442 118.395 2.90311 -1.2 -9.73353 -1.67913e+06 -3.50545e+06 494139 833847 499514 509683
197 1 Mg 2.24719 121.867 0.000489131 1.2 -7.43845 55747.4 2.86687e+06 1.12871e+06 -1.25028e+06 -1.31501e+06 -2.15098e+06
198 1 Mg 7.07333 124.824 1.67058 1.2 -7.57636 978236 342782 2.20708e+06 1.21473e+06 174167 808793
199 2 Si 4.38064 122.943 1.48438 2.4 -32.2041 1.53374e+06 1.09631e+07 1.16719e+07 975329 1.09317e+06 501345
200 3 O 5.89246 122.851 1.56608 -1.2 -10.0886 -2.00976e+06 -4.20474e+06 -4.69561e+06 -441320 -311980 131539
201 3 O 3.2363 126.805 1.56966 -1.2 -9.6128 -4.06446e+06 -4.06297e+06 -4.5842e+06 -2.21505e+06 -1.14561e+06 -1.9714e+06
202 3 O 3.74834 123.461 0.0506623 -1.2 -9.23124 -1.94931e+06 -2.6226e+06 -62783 587540 1.02886e+06 -850818
203 1 Mg 2.14281 132.291 3.03088 1.2 -6.46684 -2.60761e+06 4.88682e+06 -255267 -1.22278e+06 1.74302e+06 1.12227e+06
204 3 O 3.69921 123.678 2.74153 -1.2 -10.0884 -2.36555e+06 -2.97744e+06 -1.31227e+06 -627985 -533806 -794970
205 1 Mg 2.2833 129.582 4.58682 1.2 -7.91126 949553 -553468 2.66011e+06 705752 -10163.4 923299
206 2 Si 4.84028 131.33 4.73806 2.4 -30.2348 1.39851e+06 1.18822e+07 1.04913e+07 280684 -282814 1.03284e+06
207 3 O 3.28137 131.355 4.71047 -1.2 -11.0661 757048 -4.48888e+06 -3.57967e+06 195637 631053 -403252
208 3 O 5.95454 127.604 4.50468 -1.2 -8.66657 -2.18748e+06 -4.66326e+06 -3.8045e+06 -2.58629e+06 -297286 134318
209 3 O 5.48147 130.655 3.29916 -1.2 -9.85458 -912538 -3.04599e+06 1.02626e+06 -516269 -1.15439e+06 682375
210 3 O 5.48565 130.548 5.99003 -1.2 -10.0874 -1.6124e+06 -2.49413e+06 -2.95042e+06 -513016 1.18551e+06 -1.23132e+06
211 1 Mg 4.45346 127.158 2.96099 1.2 -7.83394 -1.7503e+06 2.70188e+06 -169890 237225 -1.77499e+06 1.73188e+06
212 1 Mg 4.6195 124.23 4.51771 1.2 -8.12006 810224 2.29759e+06 1.69236e+06 -801639 65492.6 1.17696e+06
213 2 Si 6.6911 126.174 4.4492 2.4 -32.9099 1.02921e+07 9.41291e+06 8.33678e+06 -695825 1.86714e+06 407643
214 3 O 3.626 126.167 4.60748 -1.2 -9.31162 -653426 -3.34617e+06 -3.01875e+06 -343381 1.13903e+06 -146110
215 3 O 5.69868 122.349 4.46619 -1.2 -9.40652 -2.95298e+06 -2.77364e+06 -3.24617e+06 1.40658e+06 -503587 -2.08981e+06
216 3 O 5.94591 125.542 3.16695 -1.2 -9.31419 -878398 -3.64787e+06 -3.87846e+06 318004 2.23327e+06 -1.81226e+06
217 1 Mg 4.62762 127.126 0.0972731 1.2 -7.11056 -1.23461e+06 3.59375e+06 927940 191571 1.25861e+06 -946746
218 3 O 6.00027 125.502 5.73835 -1.2 -9.0684 -4.24687e+06 -4.2576e+06 -3.41329e+06 1.55141e+06 -2.51235e+06 1.13106e+06
219 1 Mg 4.57945 130.05 1.56739 1.2 -7.74657 117616 -208178 2.95872e+06 -937846 267077 -833846
220 2 Si 2.4764 128.258 1.43705 2.4 -32.3456 4.6398e+06 8.24679e+06 1.12226e+07 96110.9 54808.1 369623
221 3 O 5.68136 128.14 1.55723 -1.2 -9.90802 -1.82224e+06 -3.30932e+06 -4.85154e+06 303818 -642989 122366
222 3 O 3.44472 131.761 1.51707 -1.2 -10.3452 -456078 -5.8468e+06 -3.32111e+06 1.17097e+06 -292277 -22617.5
223 3 O 3.19812 128.9 0.228599 -1.2 -9.74129 -1.92013e+06 -3.91328e+06 -3.31409e+06 -409074 -852744 1.41239e+06
224 3 O 3.14055 128.89 2.86269 -1.2 -9.01676 -3.33592e+06 -2.56928e+06 -917008 -13538.7 1.30123e+06 -218286
225 1 Mg 2.07786 132.157 0.080975 1.2 -6.77456 -3.51084e+06 3.87006e+06 -1.26391e+06 -963878 -2.8787e+06 -1.74593e+06
226 1 Mg 6.67418 135.365 1.27372 1.2 -6.92392 550297 1.41687e+06 2.17592e+06 779690 -669768 154358
227 2 Si 4.0848 133.256 1.51259 2.4 -30.9025 1.85343e+06 1.0675e+07 6.94934e+06 -705183 651579 -153681
228 3 O 5.63303 133.288 1.50877 -1.2 -10.6222 -728503 -2.59183e+06 -2.78899e+06 -518705 39889.6 -808520
229 3 O 3.27163 137.067 1.38276 -1.2 -9.98517 1.18891e+06 -4.37931e+06 -2.733e+06 -1.44484e+06 -825433 -1.50424e+06
230 3 O 3.44154 133.951 0.211209 -1.2 -10.1819 128702 -2.18908e+06 -1.95521e+06 139294 -227752 625384
231 1 Mg 2.287 142.72 2.94067 1.2 -6.79698 -2.25369e+06 3.4471e+06 533189 -1.1546e+06 2.20875e+06 1.63837e+06
232 3 O 3.42132 133.844 2.81814 -1.2 -10.3333 -1.34105e+06 -4.04568e+06 -1.90297e+06 -7819.15 148491 -1.35871e+06
233 1 Mg 2.46863 139.799 4.48415 1.2 -7.36821 -267864 -672215 1.76237e+06 416678 -979868 1.67587e+06
234 2 Si 4.98179 141.588 4.27013 2.4 -31.2962 3.69373e+06 8.39285e+06 7.76765e+06 494017 -750829 705854
235 3 O 3.34383 141.577 4.43601 -1.2 -10.2136 589011 -3.0322e+06 -4.60681e+06 -193463 -210434 327102
236 3 O 5.94515 138.087 4.30395 -1.2 -10.2673 -846932 -2.90317e+06 -1.08763e+06 -159377 -425341 -2856.27
237 3 O 5.51856 141.014 2.95925 -1.2 -9.92731 -1.90343e+06 -3.13265e+06 -5.08732e+06 -127145 -930166 -152593
238 3 O 5.59554 141.016 5.51196 -1.2 -9.88507 -4.24687e+06 -3.13476e+06 -4.76937e+06 385521 -637308 1.54705e+06
239 1 Mg 4.64609 137.445 2.75435 1.2 -6.67674 -3.19546e+06 3.922e+06 904055 1.30659e+06 -1.72344e+06 1.52333e+06
240 1 Mg 4.52922 134.496 4.50977 1.2 -6.76064 -36283.7 28899.1 3.71432e+06 -553514 13636.8 465692
241 2 Si 6.54033 136.526 4.38239 2.4 -30.7642 2.61784e+06 1.0357e+07 6.10545e+06 -4679.35 421826 119556
242 3 O 3.34629 136.639 4.45277 -1.2 -10.4039 393110 -3.00567e+06 -2.71444e+06 810878 830286 476646
243 3 O 5.56906 132.822 4.70324 -1.2 -11.0891 360142 -3.28794e+06 -2.79e+06 1.64338e+06 -584658 -870704
244 3 O 5.84034 135.798 3.16544 -1.2 -10.6729 -882465 -3.25053e+06 -1.68946e+06 870607 91413.8 -1.55616e+06
245 1 Mg 4.61837 137.924 -0.372335 1.2 -6.59206 -3.4959e+06 3.50506e+06 222859 1.29826e+06 608337 -887836
246 3 O 5.94172 135.954 5.70157 -1.2 -10.4595 -2.2445e+06 -2.66726e+06 -3.94035e+06 -594136 -165774 1.32569e+06
247 1 Mg 4.63559 140.361 1.31978 1.2 -7.6525 -336491 133451 2.41108e+06 -745548 -520362 -945328
248 2 Si 2.5198 138.578 1.36527 2.4 -31.1311 2.63409e+06 1.00477e+07 5.71006e+06 -1.85265e+06 561406 1.09951e+06
249 3 O 5.70994 138.479 1.21319 -1.2 -10.7493 -1.83217e+06 -3.45009e+06 -3.2279e+06 -224742 631775 -886868
250 3 O 3.66355 142.194 1.24762 -1.2 -9.77338 -1.22146e+06 -1.92227e+06 -3.89489e+06 1.27431e+06 -494216 -72653.2
251 3 O 3.21292 139.234 0.132702 -1.2 -10.302 -2.73009e+06 -5.29915e+06 -7.02653e+06 678084 -1.51942e+06 1.3198e+06
252 3 O 3.25842 139.21 2.53727 -1.2 -9.80231 -1.15283e+06 -4.77797e+06 -6.16148e+06 -133483 578586 -1.31547e+06
253 1 Mg 2.32819 142.85 -0.179353 1.2 -6.78527 -1.70758e+06 3.53484e+06 -223414 -1.00543e+06 -1.26456e+06 -1.86657e+06
254 1 Mg 7.00697 145.654 1.38119 1.2 -6.85057 -4386.45 1.05958e+06 1.88197e+06 1.19829e+06 -26972.8 -232667
255 2 Si 4.31684 143.754 1.38531 2.4 -31.285 703615 1.02478e+07 1.09208e+07 1.10749e+06 -257003 -588740
256 3 O 5.80485 143.719 1.46125 -1.2 -10.2375 -1.69753e+06 -3.87619e+06 -4.88488e+06 -594318 -91844.6 93110.9
257 3 O 3.33513 148.264 1.50784 -1.2 -9.78223 -3.5857e+06 -445288 -412525 -1.44612e+06 287969 -312924
258 3 O 3.62892 144.49 0.115129 -1.2 -10.1446 -2.37184e+06 -2.91798e+06 173203 -1.07473e+06 733643 606729
259 1 Mg 1.72043 153.59 1.95497 1.2 -7.24882 -875953 -1.50777e+06 1.90097e+06 681771 193804 -417501
260 3 O 3.66309 144.231 2.80947 -1.2 -10.0495 -3.36938e+06 -1.97123e+06 -1.59235e+06 604140 -408210 -1.0043e+06
261 1 Mg 1.85375 150.456 4.59965 1.2 -7.49421 -169176 3.91669e+06 379015 -591621 553825 -62396.2
262 2 Si 3.99643 151.891 2.93171 2.4 -32.5956 5.91041e+06 1.1042e+07 5.26633e+06 -2.36377e+06 -2.20898e+06 -1.25361e+06
263 3 O 3.12273 153.239 3.23715 -1.2 -8.31008 -1.09227e+06 -563429 -4.45285e+06 -1.29079e+06 1.71407e+06 506711
264 3 O 6.10286 148.433 4.23886 -1.2 -9.57487 -719307 -297348 -2.41274e+06 -1.09626e+06 -863212 777554
265 3 O 4.91974 152.448 1.7278 -1.2 -9.54392 -3.82278e+06 -2.11091e+06 -3.30334e+06 1.94006e+06 884197 74579
266 3 O 4.76712 151.29 4.0972 -1.2 -9.52492 -4.52467e+06 -4.83141e+06 -4.78642e+06 -1.39985e+06 -906594 130040
267 1 Mg 4.85033 147.752 2.80642 1.2 -6.91212 -870703 2.17558e+06 1.95459e+06 837908 -1.09242e+06 -109004
268 1 Mg 4.77524 144.888 4.38139 1.2 -7.34865 330744 -434554 2.70497e+06 -375912 -632330 466792
269 2 Si 6.84692 146.781 4.41291 2.4 -31.6031 15432.1 1.12423e+07 9.51399e+06 -1.35546e+06 192158 -1.56937e+06
270 3 O 3.54435 146.885 4.37956 -1.2 -10.1811 -3.80423e+06 -3.6528e+06 -4.45397e+06 56154.6 -503981 649448
271 3 O 5.71166 143.17 4.31354 -1.2 -10.0712 -2.43124e+06 -3.74104e+06 -6.33402e+06 2.81541e+06 -1.20632e+06 1.70375e+06
272 3 O 6.17289 146.075 3.12296 -1.2 -10.3287 -671573 -3.6289e+06 -1.5321e+06 298794 -55817.7 -914552
273 1 Mg 4.54798 148.708 -0.261987 1.2 -6.93626 -1.40028e+06 3.20747e+06 922496 665623 1.1527e+06 -486507