ITEM: TIMESTEP
51600
ITEM: NUMBER OF ATOMS
5600
ITEM: BOX BOUNDS xy xz yz pp pp pp
0.0000000000000000e+00 7.1234999999999999e+00 0.0000000000000000e+00
0.0000000000000000e+00 2.0198500000000001e+02 2.3744999999999998e+00
0.0000000000000000e+00 1.1958400000000000e+02 0.0000000000000000e+00
ITEM: ATOMS id type element xu yu zu q c_pe c_s[1] c_s[2] c_s[3] c_s[4] c_s[5] c_s[6]
1 1 Mg -1.81923 48.6136 -0.435022 1.2 -7.22569 828184 741998 1.34308e+06 2.44501e+06 768005 871440
2 1 Mg 3.11815 50.3824 2.4595 1.2 -7.07471 -7.20773e+06 4.55085e+06 -1.84485e+06 -810743 -184956 -444398
3 2 Si 0.909792 50.5819 0.55711 2.4 -31.4277 1.03377e+07 9.6702e+06 2.94728e+06 87513.6 2.11081e+06 3.62861e+06
4 3 O 2.1693 49.5797 1.03458 -1.2 -9.61676 -1.64105e+06 -5.45557e+06 -3.28692e+06 -1.26608e+06 279.518 -1.02922e+06
5 3 O -0.933444 53.3097 2.01871 -1.2 -8.7942 -3.18412e+06 -7.7943e+06 -2.79208e+06 -1.60433e+06 -737603 -95645.9
6 3 O -0.124148 50.0503 -0.517755 -1.2 -9.47032 389373 -3.74435e+06 -3.442e+06 2.97978e+06 2.03281e+06 -2.2008e+06
7 1 Mg -2.17223 59.0844 3.51438 1.2 -8.66989 -701258 5.75549e+06 -2.50365e+06 -914529 2.04417e+06 865374
8 3 O 0.078641 50.6753 1.88378 -1.2 -10.1314 -6.39521e+06 -4.32204e+06 -2.98328e+06 247222 -557795 -2.83162e+06
9 1 Mg -2.22832 55.9997 4.79469 1.2 -8.65757 1.91065e+06 4.10019e+06 -949160 545918 -445738 -319262
10 2 Si 0.503076 58.2226 4.99215 2.4 -33.586 1.1848e+07 1.34714e+07 5.52997e+06 -1.49907e+06 -820757 -1.72358e+06
11 3 O -1.10082 58.4244 5.05922 -1.2 -8.77337 -1.24778e+06 -6.2735e+06 -1.95475e+06 -1.4426e+06 -342496 1.72263e+06
12 3 O 2.01834 53.7664 5.06766 -1.2 -8.38004 -4.13021e+06 -3.38153e+06 -1.43251e+06 -1.24246e+06 -998013 749875
13 3 O 1.29565 57.4062 3.6567 -1.2 -8.40388 -3.28367e+06 -3.31075e+06 481073 -1.5598e+06 -2.312e+06 660039
14 3 O 1.23902 57.3948 6.22276 -1.2 -8.79458 -4.03915e+06 -1.60922e+06 -638492 -764820 1.87863e+06 906977
15 1 Mg 0.474043 52.4213 3.08222 1.2 -7.7269 187518 2.93653e+06 38443.5 615868 -219593 751151
16 1 Mg 1.02833 49.2361 3.15014 1.2 -6.7401 909750 2.94083e+06 586860 -1.2268e+06 -201139 2.02457e+06
17 2 Si 2.73673 52.3627 5.0556 2.4 -33.926 7.57607e+06 9.859e+06 6.25968e+06 -1.37292e+06 1.75837e+06 649013
18 3 O -0.528371 52.5717 4.94724 -1.2 -8.91006 -5.9649e+06 -4.91815e+06 -1.33429e+06 1.2264e+06 -380939 1.4798e+06
19 3 O 2.84157 48.5427 3.54112 -1.2 -7.67037 2.83222e+06 -402726 -153006 118365 319770 -1.60325e+06
20 3 O 2.12063 51.5379 3.67849 -1.2 -9.24115 -2.53009e+06 -4.8638e+06 -646581 -428098 2.38785e+06 823451
21 1 Mg 0.383537 53.8196 0.46898 1.2 -7.56599 -1.04117e+06 2.50056e+06 -263066 1.36153e+06 1.40317e+06 376371
22 3 O 2.12372 51.5232 6.23466 -1.2 -10.3799 -7.20193e+06 -9.23141e+06 -6.04128e+06 441457 -1.48111e+06 1.41833e+06
23 1 Mg 0.405978 56.4661 2.14803 1.2 -8.67716 1.77692e+06 2.58164e+06 434464 -1.80187e+06 -201431 -126977
24 2 Si -1.59876 54.7006 1.95981 2.4 -34.0239 8.48311e+06 1.10159e+07 6.99303e+06 369642 1.29615e+06 797333
25 3 O 1.49659 54.5719 1.88826 -1.2 -8.9324 -1.56207e+06 -2.76337e+06 -2.21711e+06 370707 505058 403017
26 3 O -0.90806 58.4969 2.01995 -1.2 -8.75187 -2.82366e+06 -6.28758e+06 -676572 -82011.6 322002 671539
27 3 O -1.03515 55.2581 0.590427 -1.2 -8.87134 -3.22035e+06 -6.47021e+06 -1.00906e+06 -224825 78283.1 -481808
28 3 O -1.04013 55.6303 3.20616 -1.2 -8.44174 -2.93583e+06 -4.84503e+06 915998 1.21179e+06 878657 1.1532e+06
29 1 Mg -2.29139 58.9242 0.38755 1.2 -7.82166 -1.27175e+06 5.18713e+06 -1.19397e+06 -1.14522e+06 -1.36436e+06 -2.51168e+06
30 1 Mg 2.15263 61.9813 1.91036 1.2 -8.77966 2.58719e+06 2.71745e+06 -909491 899373 -158410 -1.01314e+06
31 2 Si -0.282505 59.93 1.82493 2.4 -34.3437 8.06435e+06 1.28684e+07 5.71065e+06 -929526 -652580 -1.15596e+06
32 3 O 1.29453 59.9908 1.8519 -1.2 -8.83916 -2.293e+06 -3.78069e+06 -2.25681e+06 -126463 -174168 1.58648e+06
33 3 O -1.38717 63.897 2.05207 -1.2 -8.90876 -1.49539e+06 -5.89697e+06 -740083 -1.66902e+06 -412039 2.60902e+06
34 3 O -0.880145 60.5596 0.534837 -1.2 -8.66744 -4.44683e+06 -3.42947e+06 -1.34157e+06 661771 152859 497112
35 1 Mg -2.24432 69.581 3.54612 1.2 -7.92184 -969403 4.57445e+06 -1.48241e+06 -1.5082e+06 952006 1.26719e+06
36 3 O -0.941165 60.7883 3.1661 -1.2 -8.07204 -3.28235e+06 -2.91736e+06 1.35035e+06 -864180 -526259 1.96304e+06
37 1 Mg -2.20185 66.5725 5.13258 1.2 -8.08229 1.59297e+06 556560 907639 832012 -727103 -928001
38 2 Si 0.438824 68.5918 4.87341 2.4 -32.8278 4.09224e+06 1.24054e+07 7.31133e+06 400319 -435997 -1.27564e+06
39 3 O -1.13753 68.573 4.88831 -1.2 -9.7064 -1.43102e+06 -4.15719e+06 -3.65445e+06 604847 -714494 86205.3
40 3 O 1.60107 64.8562 4.85553 -1.2 -9.4477 -2.13465e+06 -8.39121e+06 -2.49134e+06 -1.07597e+06 -24578.1 1.21089e+06
41 3 O 1.05172 68.138 3.5271 -1.2 -8.85282 -3.94194e+06 -5.14848e+06 -1.94536e+06 165735 369246 694611
42 3 O 1.05314 67.6636 6.08404 -1.2 -9.51675 -2.51416e+06 -3.28972e+06 -550167 -528335 732836 -69174.4
43 1 Mg 0.0927169 64.3211 3.34177 1.2 -7.65618 -1.60306e+06 6.4046e+06 -1.72931e+06 1.04924e+06 -1.03798e+06 164295
44 1 Mg -0.000612644 61.5773 4.97838 1.2 -8.76348 2.74577e+06 999393 2.97041e+06 -154427 214068 378566
45 2 Si 2.24567 63.4019 4.81202 2.4 -33.2953 3.84796e+06 1.25981e+07 6.51157e+06 801466 823585 -1.31938e+06
46 3 O -0.99666 63.3627 4.91439 -1.2 -9.62157 -4.53156e+06 -4.95857e+06 -3.6985e+06 847983 768397 253652
47 3 O 1.19334 59.6409 4.86548 -1.2 -8.78873 -4.75061e+06 -4.70026e+06 -745593 1.24156e+06 234761 -10437.7
48 3 O 1.40665 62.7423 3.57099 -1.2 -8.71366 -3.53113e+06 -5.22841e+06 -1.89382e+06 118158 1.99438e+06 469735
49 1 Mg 0.0507921 64.3487 0.27863 1.2 -7.75395 -784199 5.7113e+06 -1.81559e+06 604009 1.50922e+06 -2.87899e+06
50 3 O 1.54817 62.7036 6.09861 -1.2 -8.78747 -3.92141e+06 -4.64897e+06 -2.11882e+06 594952 -284513 968623
51 1 Mg 0.0201195 67.236 1.86231 1.2 -8.5977 1.47343e+06 2.48563e+06 1.9742e+06 -1.12163e+06 334070 -890433
52 2 Si -1.99855 65.4248 1.9532 2.4 -33.3055 7.03024e+06 1.39716e+07 5.2593e+06 -1.21671e+06 -1.09645e+06 -1.51539e+06
53 3 O 1.13679 65.4975 1.94326 -1.2 -9.3722 -924681 -4.47121e+06 -1.67303e+06 637434 -398468 1.07348e+06
54 3 O -1.00199 69.222 1.70975 -1.2 -8.35367 -3.46944e+06 -4.5156e+06 -3.50504e+06 2.59268e+06 -889260 2.6058e+06
55 3 O -1.27139 65.8382 0.556969 -1.2 -8.87503 -2.71221e+06 -4.91355e+06 -5552.04 -146658 -960603 2.46989e+06
56 3 O -1.33063 66.2152 3.13469 -1.2 -9.042 -3.80345e+06 -4.36195e+06 -160387 71932.3 937934 -84840.7
57 1 Mg -2.46236 69.4753 0.562616 1.2 -8.29326 -183020 3.80939e+06 -670176 -477943 -2.46136e+06 -2.05696e+06
58 1 Mg 2.26247 72.3956 1.79513 1.2 -8.52266 900603 1.4324e+06 2.09502e+06 552560 36874.7 -930512
59 2 Si -0.310189 70.7542 1.9323 2.4 -33.5038 9.10056e+06 1.17795e+07 7.87627e+06 491278 1.91034e+06 717063
60 3 O 1.33018 70.6457 2.06586 -1.2 -9.15393 -895397 -5.08834e+06 -2.24417e+06 -1.28128e+06 504551 -389151
61 3 O -1.36955 74.3964 1.87799 -1.2 -8.6245 -2.92938e+06 -5.29647e+06 -3.2157e+06 -1.31155e+06 -233443 1.44564e+06
62 3 O -1.02095 71.3167 0.60397 -1.2 -8.76539 -2.00091e+06 -6.70302e+06 -632977 -172531 1.67651e+06 2.23988e+06
63 1 Mg -2.39875 80.1166 3.3811 1.2 -7.16355 -1.76106e+06 4.13587e+06 515059 -1.26019e+06 1.59848e+06 1.74424e+06
64 3 O -1.00433 71.2135 3.27729 -1.2 -9.10119 -4.08204e+06 -4.09071e+06 -211699 -590301 -1.06984e+06 -1.21452e+06
65 1 Mg -2.39751 77.2827 4.76156 1.2 -7.55607 426315 1.24004e+06 3.31176e+06 545043 -108688 -518364
66 2 Si 0.212714 79.0161 4.87251 2.4 -31.9171 2.76937e+06 1.04671e+07 8.37862e+06 914255 201944 122690
67 3 O -1.32318 79.1009 4.95837 -1.2 -10.3926 -3.57399e+06 -4.97954e+06 -4.27648e+06 1.12708e+06 1.17566e+06 -465728
68 3 O 1.31904 75.3619 4.84104 -1.2 -9.75457 -1.70604e+06 -3.66297e+06 -2.50414e+06 -1.68881e+06 -847833 310837
69 3 O 0.848564 78.3921 3.53456 -1.2 -9.65732 -1.02201e+06 -3.79017e+06 -2.36551e+06 -856032 -1.40582e+06 -565534
70 3 O 0.929114 78.3157 6.14312 -1.2 -9.38758 -2.78735e+06 -6.80489e+06 -1.66196e+06 -204809 1.40654e+06 1.65453e+06
71 1 Mg 0.025453 75.1394 3.35764 1.2 -7.65185 -2.95249e+06 4.56267e+06 -742633 1.17693e+06 -1.12062e+06 830905
72 1 Mg 0.00906353 71.8105 5.02118 1.2 -8.40442 2.26087e+06 646955 2.47185e+06 -942030 261411 -719891
73 2 Si 2.02865 73.8681 4.65137 2.4 -33.0179 8.49023e+06 1.03552e+07 8.62482e+06 633361 -806280 722842
74 3 O -1.13987 73.9674 4.71335 -1.2 -9.4591 -932293 -2.68749e+06 -3.07123e+06 463332 420621 -141199
75 3 O 1.09747 70.0683 5.10488 -1.2 -9.49541 -1.8196e+06 -4.54342e+06 -5.48313e+06 729824 -886641 -326609
76 3 O 1.35345 73.1571 3.38638 -1.2 -8.70831 -4.35211e+06 -2.00088e+06 -2.55549e+06 668003 1.66564e+06 1.07217e+06
77 1 Mg -0.0116538 74.7912 0.348196 1.2 -8.04684 -885911 4.29555e+06 -1.93498e+06 86038.9 -239423 -3.05924e+06
78 3 O 1.32094 73.0881 5.94192 -1.2 -9.00548 -2.3044e+06 -3.02119e+06 -1.61624e+06 652396 -1.70202e+06 98387
79 1 Mg -0.0509437 77.851 1.75931 1.2 -8.23198 909716 1.01435e+06 116254 -304108 702360 149665
80 2 Si -2.12827 75.8228 1.84274 2.4 -33.092 5.58085e+06 1.3343e+07 4.59189e+06 54698.3 413531 -1.92754e+06
81 3 O 1.09027 75.7075 1.75899 -1.2 -9.74183 -4.22372e+06 -5.69258e+06 -1.28456e+06 -85325.4 615292 1.49553e+06
82 3 O -1.06299 79.572 1.84813 -1.2 -9.52313 -1.99399e+06 -5.61566e+06 -2.98326e+06 1.27938e+06 208480 -425781
83 3 O -1.43147 76.5459 0.57402 -1.2 -8.96741 -2.59141e+06 -4.82219e+06 -1.57534e+06 -63944.1 -1.16593e+06 1.40805e+06
84 3 O -1.37565 76.5542 3.05806 -1.2 -9.51076 -913913 -5.47979e+06 -3.07961e+06 689087 971903 180567
85 1 Mg -2.45864 80.2045 0.225992 1.2 -7.44477 -1.97381e+06 4.34939e+06 -1.27436e+06 -1.06426e+06 -1.68645e+06 -1.86831e+06
86 1 Mg 2.22928 82.9717 1.65614 1.2 -8.0708 1.14017e+06 379049 2.26003e+06 1.38316e+06 383160 -1.01443e+06
87 2 Si -0.477956 81.0795 1.90214 2.4 -32.4063 4.94686e+06 1.07998e+07 6.2755e+06 875137 1.32496e+06 -178616
88 3 O 1.11267 81.1451 1.88343 -1.2 -9.54322 16659.1 -4.87219e+06 -3.26654e+06 -619579 -216560 -1.59003e+06
89 3 O -1.36787 84.7764 1.51756 -1.2 -9.34829 -3.45454e+06 -3.93646e+06 -4.89829e+06 -782355 -640772 -1.1535e+06
90 3 O -1.10786 81.7154 0.498586 -1.2 -9.50988 -2.92921e+06 -4.11969e+06 228719 -15583.5 283902 541328
91 1 Mg -2.38373 90.4087 2.71283 1.2 -8.03668 -47677.1 1.95101e+06 1.24316e+06 -185527 487057 2.14774e+06
92 3 O -1.07285 81.6654 3.15381 -1.2 -9.70237 -4.99443e+06 -4.84272e+06 -3.75521e+06 -199489 770541 -2.60105e+06
93 1 Mg -2.28999 87.4669 4.46777 1.2 -8.65037 3.03899e+06 7154.02 2.79284e+06 177622 73265.6 -298518
94 2 Si 0.123199 89.3819 4.39158 2.4 -33.9485 6.31084e+06 1.05072e+07 1.18805e+07 -375322 -1.98607e+06 -55052.8
95 3 O -1.39508 89.5789 4.33987 -1.2 -9.46349 -4.30149e+06 -2.88809e+06 -3.10463e+06 -278906 -719546 159153
96 3 O 1.41502 85.6674 4.5982 -1.2 -8.95571 -3.23816e+06 -3.87362e+06 -3.4104e+06 -347388 400622 -337319
97 3 O 0.876897 88.9131 2.85931 -1.2 -8.33748 -717636 -1.92931e+06 -1.28973e+06 -93280 -2.21762e+06 529253
98 3 O 0.757222 88.4387 5.47668 -1.2 -8.29813 -3.82537e+06 -3.01947e+06 -1.53164e+06 -884439 1.57585e+06 269234
99 1 Mg -0.120719 85.2032 3.0305 1.2 -7.54429 -584628 3.29584e+06 1.2105e+06 1.43485e+06 -1.95095e+06 1.67894e+06
100 1 Mg -0.104949 82.3016 4.81944 1.2 -7.93677 651272 32463.4 1.39156e+06 -1.72804e+06 241951 86315.4
101 2 Si 1.95103 84.1025 4.51133 2.4 -32.9356 4.21701e+06 1.02694e+07 7.10105e+06 134540 138358 1.26384e+06
102 3 O -1.2396 84.1727 4.53505 -1.2 -9.53657 -1.93695e+06 -4.19536e+06 -3.71393e+06 1.62973e+06 141463 -1.26864e+06
103 3 O 1.05228 80.3853 4.95711 -1.2 -9.51873 -1.29884e+06 -7.29146e+06 -3.73986e+06 1.40024e+06 -25084 60999.7
104 3 O 1.30569 83.3952 3.30313 -1.2 -9.27973 -3.19668e+06 -3.83294e+06 -5.90001e+06 -399568 -58011.8 -2.42121e+06
105 1 Mg -0.0615123 85.2623 0.0614278 1.2 -8.03138 -1.85782e+06 1.78409e+06 -1.36118e+06 904504 3.32755e+06 -2.05332e+06
106 3 O 1.26419 83.4682 5.7794 -1.2 -9.42608 -3.39017e+06 -3.78807e+06 -4.30168e+06 -910561 -273374 408058
107 1 Mg -0.14759 88.1952 1.23248 1.2 -8.1812 1.98758e+06 -466929 4.55647e+06 -1.20238e+06 221317 509471
108 2 Si -2.03164 86.2462 1.45444 2.4 -33.092 6.62144e+06 6.26263e+06 1.07369e+07 -567130 1.35584e+06 1.4448e+06
109 3 O 1.13659 86.0978 1.48675 -1.2 -9.17402 -778998 -2.60498e+06 -5.76499e+06 669778 109451 -1.54105e+06
110 3 O -0.922297 90.1259 1.18696 -1.2 -8.92644 -4.00876e+06 -5.91807e+06 -7.01693e+06 652711 -970561 -478219
111 3 O -1.4382 86.8881 0.163221 -1.2 -9.31952 -5.38221e+06 -2.6337e+06 -4.53906e+06 787178 -588726 905325
112 3 O -1.36583 86.8839 2.78929 -1.2 -9.22275 -3.41203e+06 -1.67922e+06 -2.37813e+06 -69915.1 1.0607e+06 -1.45609e+06
113 1 Mg -2.29502 90.7487 -0.18595 1.2 -7.38646 -792693 1.68516e+06 2.09369e+06 -1.31286e+06 -2.12961e+06 -1.38497e+06
114 1 Mg 2.47587 93.3883 1.23923 1.2 -7.58213 318579 -594785 4.79744e+06 751828 -399802 -161838
115 2 Si -0.295962 91.5411 1.35206 2.4 -32.7552 2.19528e+06 5.66867e+06 1.09515e+07 -324398 -574573 113820
116 3 O 1.21034 91.4508 1.40146 -1.2 -9.74958 -4.63158e+06 -3.28558e+06 -4.26475e+06 -1.28539e+06 -1.86275e+06 -45692.2
117 3 O -1.40923 95.189 1.28919 -1.2 -10.0963 -1.48498e+06 -2.89823e+06 -4.92202e+06 -1.13887e+06 -876335 -1.57273e+06
118 3 O -0.908285 92.1964 0.0240002 -1.2 -9.61545 -2.01697e+06 -5.21416e+06 -4.39317e+06 -13243.3 379581 1.89319e+06
119 1 Mg -2.21916 101.113 2.71441 1.2 -7.24877 -2.53378e+06 3.85602e+06 -360547 -121850 1.43881e+06 1.07331e+06
120 3 O -1.14538 92.0238 2.62001 -1.2 -9.31134 -2.73406e+06 -3.8893e+06 -3.69869e+06 121045 -727274 -2.42461e+06
121 1 Mg -2.31411 98.0175 4.1323 1.2 -7.85788 865364 1.40264e+06 2.00642e+06 768900 397805 -1.00673e+06
122 2 Si 0.341939 99.9027 3.93427 2.4 -32.4341 5.29199e+06 1.06938e+07 8.50412e+06 -14845.8 -391744 -1.02723e+06
123 3 O -1.22875 99.9929 4.01396 -1.2 -9.81344 -1.05313e+06 -3.12282e+06 -3.1987e+06 -320535 -1.79082e+06 343874
124 3 O 1.3787 96.2499 4.29475 -1.2 -9.62189 -3.34126e+06 -7.25388e+06 -3.11012e+06 335263 461097 288539
125 3 O 1.08889 99.1528 2.80339 -1.2 -9.65708 -2.27255e+06 -4.15703e+06 -2.89162e+06 137727 -615443 88400.7
126 3 O 0.903121 99.2865 5.38134 -1.2 -9.35765 -1.43917e+06 -3.07519e+06 -544664 -2393.76 903872 300445
127 1 Mg -0.0345376 95.7097 2.57052 1.2 -6.87478 -2.27677e+06 3.57356e+06 -969217 1.1912e+06 -2.24953e+06 1.62181e+06
128 1 Mg -0.108513 92.7793 4.23932 1.2 -8.38514 2.3752e+06 1.27939e+06 3.21581e+06 -1.03376e+06 -326093 198913
129 2 Si 1.90246 94.8202 4.22135 2.4 -32.8795 3.65938e+06 9.38584e+06 7.81096e+06 1.43118e+06 -115727 975571
130 3 O -1.34063 94.7136 4.27865 -1.2 -9.44265 -3.53836e+06 -3.81336e+06 -3.43351e+06 1.25473e+06 -1.01849e+06 -124034
131 3 O 0.832973 90.8892 4.51892 -1.2 -8.78409 -3.83821e+06 -1.76102e+06 -3.65007e+06 1.00025e+06 -549200 -1.95505e+06
132 3 O 1.22528 94.1076 2.8667 -1.2 -9.41024 -1.52203e+06 -1.55006e+06 -2.27315e+06 222392 761599 250098
133 1 Mg 0.089526 95.6624 -0.245105 1.2 -6.55185 -578190 3.79006e+06 434209 685490 1.20046e+06 -1.36329e+06
134 3 O 1.09259 94.0583 5.42684 -1.2 -8.84069 -3.54828e+06 -2.89861e+06 -1.04472e+06 67146.4 149119 271701
135 1 Mg 0.173115 98.5536 1.02913 1.2 -7.26213 -210663 107060 1.19967e+06 -995742 1.24875e+06 1.21823e+06
136 2 Si -2.04048 96.7291 1.22605 2.4 -31.346 -246285 1.0556e+07 1.0684e+07 -237064 142760 112616
137 3 O 1.15878 96.6507 1.22875 -1.2 -10.6385 -802866 -4.37476e+06 -4.79244e+06 403597 360063 20134.1
138 3 O -0.811798 100.429 1.19691 -1.2 -9.95599 -2.43516e+06 -4.43344e+06 -3.16241e+06 913138 39829.7 1.99984e+06
139 3 O -1.43426 97.439 -0.0804082 -1.2 -10.0459 -1.58441e+06 -2.20283e+06 -2.1654e+06 -671187 -819791 -522130
140 3 O -1.40583 97.2845 2.56343 -1.2 -9.83747 -2.43672e+06 -5.04155e+06 -2.39563e+06 182668 740618 -1.00269e+06
141 1 Mg -2.31503 100.584 -0.268383 1.2 -6.87012 -2.58433e+06 3.98211e+06 708821 -678048 -509268 -1.54723e+06
142 1 Mg 7.02412 103.819 1.32454 1.2 -7.70964 553369 1.84278e+06 393032 972640 796281 -627952
143 2 Si -0.190379 101.892 1.0534 2.4 -31.643 4.46207e+06 1.0213e+07 8.64523e+06 -1.27897e+06 -299664 -82100.3
144 3 O 1.36961 101.708 1.043 -1.2 -10.2761 -1.21532e+06 -3.5637e+06 -3.32396e+06 -1.54719e+06 685856 1.59155e+06
145 3 O 3.37294 105.901 1.30939 -1.2 -9.23313 -672199 -2.2958e+06 -3.06122e+06 -1.64985e+06 603304 746208
146 3 O -0.913936 102.422 -0.200011 -1.2 -9.67898 -1.99853e+06 -4.5486e+06 -2.84185e+06 21834.6 905093 1.56633e+06
147 1 Mg 2.13221 111.159 2.6978 1.2 -6.91424 -2.76053e+06 2.28023e+06 587988 -2.03864e+06 1.74946e+06 1.22556e+06
148 3 O -0.907205 102.754 2.43546 -1.2 -9.41094 -971803 -2.29317e+06 -535344 -156452 -2.01528e+06 1.5429e+06
149 1 Mg 2.34975 108.54 4.28591 1.2 -7.52124 -245539 1.22869e+06 1.34852e+06 1.13621e+06 270022 73018.6
150 2 Si 5.00683 110.424 4.29374 2.4 -31.5378 2.88427e+06 1.26818e+07 6.50837e+06 190642 1.12322e+06 -1.37922e+06
151 3 O 3.48377 110.673 4.28995 -1.2 -10.3513 -1.43329e+06 -3.95743e+06 -2.29494e+06 -256203 611463 974947
152 3 O 6.10055 106.717 4.17076 -1.2 -9.87079 -2.82769e+06 -6.23515e+06 -2.53902e+06 -784197 573481 1.23689e+06
153 3 O 5.66062 109.747 2.99556 -1.2 -10.2477 -2.20141e+06 -5.96339e+06 -3.20864e+06 -1.18105e+06 -786891 8450.49
154 3 O 5.66583 109.597 5.47849 -1.2 -9.65605 -1.40725e+06 -3.39665e+06 -2.87322e+06 -213616 625620 237951
155 1 Mg 4.75767 106.297 2.77576 1.2 -7.06957 -995392 4.00901e+06 -79775.8 688292 -1.84561e+06 466673
156 1 Mg 0.0521567 103.275 4.09278 1.2 -8.05626 1.08171e+06 1.08994e+06 1.56101e+06 -1.51772e+06 -174459 -862817
157 2 Si 6.74113 105.262 4.22339 2.4 -32.3372 4.72224e+06 1.02779e+07 7.17858e+06 -158131 -1.81748e+06 -960079
158 3 O 3.51913 105.355 4.24188 -1.2 -9.63159 -1.9707e+06 -4.74958e+06 -2.78553e+06 1.05793e+06 -1.71331e+06 1.2889e+06
159 3 O 0.999495 101.426 3.93864 -1.2 -9.5861 -2.51501e+06 -3.36238e+06 -2.28784e+06 1.53857e+06 618605 1.09249e+06
160 3 O 6.21976 104.449 2.9186 -1.2 -9.57933 -4.27242e+06 -2.05824e+06 -2.22478e+06 -619261 844013 807041
161 1 Mg 4.78985 106.146 -0.146105 1.2 -7.64367 -634173 4.25421e+06 -398993 541218 236900 -2.49194e+06
162 3 O 5.92983 104.702 5.51646 -1.2 -9.61937 -2.83654e+06 -4.76466e+06 -1.84377e+06 405050 -1.27678e+06 2.32324e+06
163 1 Mg 4.82477 109.175 1.29947 1.2 -7.39346 -377943 2.5014e+06 2.29991e+06 -967407 -664485 -1.03857e+06
164 2 Si 2.64242 107.479 1.22222 2.4 -31.9722 3.39541e+06 1.15335e+07 9.31359e+06 -500531 104315 -2.17097e+06
165 3 O 5.87237 107.284 1.11628 -1.2 -10.2446 -2.40117e+06 -2.93601e+06 -3.59055e+06 1.01225e+06 -1.25643e+06 607045
166 3 O 3.65917 111.231 1.24386 -1.2 -9.79501 -1.52603e+06 -3.06006e+06 -1.99368e+06 1.73688e+06 148292 -934794
167 3 O 3.45126 108.138 -0.00634476 -1.2 -9.60452 -2.01558e+06 -3.04349e+06 -54667.6 412845 -494743 783427
168 3 O 3.23531 108.044 2.59583 -1.2 -9.87908 -1.22223e+06 -4.68099e+06 -1.72118e+06 -133462 1.41643e+06 -269800
169 1 Mg 2.39136 111.745 -0.251089 1.2 -7.96403 -1.15997e+06 4.18782e+06 -1.50733e+06 -1.00095e+06 -1.72749e+06 -792921
170 1 Mg 7.2152 114.482 1.43976 1.2 -8.73144 1.94078e+06 797670 3.10746e+06 1.77724e+06 -131229 778620
171 2 Si 4.41193 112.66 1.33742 2.4 -32.9479 7.31764e+06 1.124e+07 8.63292e+06 811625 -1.54842e+06 1.12987e+06
172 3 O 6.02942 112.595 1.18192 -1.2 -9.45263 -511018 -3.39916e+06 -2.83418e+06 1.2439e+06 -1.06107e+06 -1.21352e+06
173 3 O 3.5121 116.405 1.63332 -1.2 -8.0545 -4.2731e+06 -5.72028e+06 -5.14896e+06 -1.23132e+06 -733514 104838
174 3 O 3.90559 113.524 0.0291279 -1.2 -8.82762 -3.70922e+06 -2.36276e+06 -390488 296360 82196.9 -1.46948e+06
175 1 Mg 2.1343 122.03 2.91508 1.2 -7.89908 -646923 3.34163e+06 922105 -915698 538460 2.09284e+06
176 3 O 3.83015 113.485 2.58352 -1.2 -8.99032 -3.08782e+06 -3.1502e+06 -2.87772e+06 -476083 -724054 533151
177 1 Mg 2.64155 118.959 4.51758 1.2 -8.33043 2.41758e+06 304574 2.40068e+06 249977 -30163.2 324296
178 2 Si 5.0962 120.91 4.5717 2.4 -34.0244 6.70239e+06 8.15963e+06 9.18843e+06 -1.41101e+06 387145 1.41581e+06
179 3 O 3.52393 121.106 4.5426 -1.2 -9.0487 -3.34962e+06 -2.17884e+06 -4.62295e+06 -1.48093e+06 877388 -1.18848e+06
180 3 O 6.22912 117.226 4.62778 -1.2 -9.05514 -3.308e+06 -6.18614e+06 -5.77947e+06 -248128 207870 -1.83745e+06
181 3 O 5.6693 120.325 3.19822 -1.2 -8.64411 -4.06861e+06 -3.36431e+06 -4.21934e+06 -221201 -698166 -2.3528e+06
182 3 O 5.76676 120.212 5.78459 -1.2 -8.76944 -3.31327e+06 -3.11566e+06 -3.77661e+06 397112 864617 429679
183 1 Mg 4.91315 116.779 3.05719 1.2 -8.44968 -577073 2.60078e+06 -1.08548e+06 439376 -333832 2.00494e+06
184 1 Mg 4.83073 113.946 4.19614 1.2 -8.31445 1.80612e+06 712122 2.21359e+06 -1.34887e+06 -474105 -986166
185 2 Si 6.9414 115.853 4.55061 2.4 -33.7 6.68092e+06 7.87194e+06 1.01664e+07 -137570 -872155 -1.41419e+06
186 3 O 3.77933 115.9 4.38816 -1.2 -9.13435 -2.38778e+06 -3.24716e+06 -5.20122e+06 -728139 91432.5 503644
187 3 O 5.75011 111.951 4.17532 -1.2 -9.66221 -2.02686e+06 -2.39271e+06 -1.06868e+06 1.44661e+06 264649 75051.6
188 3 O 6.24358 115.179 3.31615 -1.2 -8.62964 -5.59282e+06 -3.9222e+06 -3.34177e+06 430352 795828 -302366
189 1 Mg 4.84281 116.701 0.0598 1.2 -8.30558 623028 4.195e+06 95545 1.08989e+06 1.35211e+06 -1.74247e+06
190 3 O 6.36604 115.03 5.88318 -1.2 -8.76747 -4.07075e+06 -2.74136e+06 -2.6011e+06 242884 -1.79807e+06 -169105
191 1 Mg 4.75341 119.545 1.6891 1.2 -8.93574 1.56582e+06 -129774 2.70628e+06 -2.17775e+06 39820 -837562
192 2 Si 2.72653 117.837 1.53481 2.4 -34.6627 3.82549e+06 1.08478e+07 8.21717e+06 -836019 -122349 -1.35699e+06
193 3 O 6.05289 117.73 1.74667 -1.2 -8.85702 -8.86706e+06 -5.10242e+06 -3.46004e+06 186065 401648 -244695
194 3 O 3.62128 121.531 1.37068 -1.2 -8.31585 -2.75801e+06 -4.36167e+06 -1.91785e+06 715547 220144 115910
195 3 O 3.44933 118.423 0.162634 -1.2 -8.14789 -3.34726e+06 -3.72502e+06 -1.47368e+06 -281182 -1.28252e+06 450986
196 3 O 3.46553 118.572 2.74133 -1.2 -8.55761 -5.78185e+06 -5.63536e+06 -3.37828e+06 -820879 867541 -1.14319e+06
197 1 Mg 2.31923 122.352 -0.121605 1.2 -8.75995 45352.2 4.28633e+06 -1.03354e+06 -1.24105e+06 -831150 -1.26876e+06
198 1 Mg 6.88167 124.881 1.35429 1.2 -8.79794 3.48685e+06 1.68084e+06 1.56103e+06 458470 -30729.1 747300
199 2 Si 4.37689 122.935 1.54166 2.4 -34.3619 5.84778e+06 1.33846e+07 6.3104e+06 -390882 -520797 2.13598e+06
200 3 O 5.90681 122.924 1.42956 -1.2 -9.25987 -5.50767e+06 -5.15637e+06 -3.08297e+06 824469 -756854 -512492
201 3 O 3.22367 126.872 1.35045 -1.2 -8.39394 -5.92384e+06 -5.80532e+06 -2.77394e+06 576461 -817745 -873835
202 3 O 3.7315 123.742 0.290129 -1.2 -7.94174 -4.9498e+06 -5.60851e+06 -3.61472e+06 -250861 171299 69112.8
203 1 Mg 2.32088 132.834 3.01062 1.2 -8.61384 -633684 3.26792e+06 -1.98149e+06 -192728 3.98147e+06 1.16122e+06
204 3 O 3.65109 123.809 2.68788 -1.2 -8.57318 -1.89608e+06 -1.87156e+06 -5.32426e+06 -1.16785e+06 -623299 -447159
205 1 Mg 2.22565 129.551 4.65621 1.2 -8.9394 4.13679e+06 764795 2.5315e+06 774622 -550481 902051
206 2 Si 5.01124 131.585 4.50824 2.4 -35.1318 1.02329e+07 9.59115e+06 7.02532e+06 -657347 -1.12089e+06 710775
207 3 O 3.46425 131.767 4.44897 -1.2 -8.20765 -3.8105e+06 -3.41828e+06 -2.3502e+06 422844 -163893 -965854
208 3 O 5.95418 127.695 4.26479 -1.2 -8.49467 -4.13219e+06 -2.83079e+06 -3.33063e+06 -78819.6 34828.3 34009.6
209 3 O 5.6122 130.861 3.21235 -1.2 -7.78837 -5.03564e+06 -2.92443e+06 -3.01114e+06 -1.15154e+06 -730232 -1.60251e+06
210 3 O 5.59084 130.739 5.75772 -1.2 -8.60546 -3.16984e+06 -1.32417e+06 -3.89253e+06 -1.16841e+06 550260 -462641
211 1 Mg 4.52411 127.111 2.79187 1.2 -8.57599 -717192 4.30075e+06 -1.0836e+06 1.10499e+06 -1.87043e+06 2.51866e+06
212 1 Mg 4.54995 124.36 4.41883 1.2 -8.27055 1.6682e+06 754047 3.47861e+06 -1.54764e+06 92141.9 -618585
213 2 Si 6.60518 126.166 4.26816 2.4 -33.5553 7.20031e+06 1.01331e+07 6.75486e+06 -788578 1.22483e+06 -1.60722e+06
214 3 O 3.49282 126.281 4.33209 -1.2 -9.1138 -774579 -4.6061e+06 -3.36325e+06 -582528 1.60518e+06 -138645
215 3 O 5.64493 122.42 4.51478 -1.2 -8.95284 -3.42617e+06 -3.80151e+06 -2.9255e+06 -422168 296486 -1.68747e+06
216 3 O 5.93054 125.508 3.06544 -1.2 -9.02743 -4.36903e+06 -5.00917e+06 -2.86071e+06 -20062.2 -214356 -1.32128e+06
217 1 Mg 4.6529 127.436 -0.0798039 1.2 -8.26519 893386 4.1485e+06 -652821 723310 579984 -455453
218 3 O 6.12532 125.535 5.62229 -1.2 -9.1619 -3.7413e+06 -3.24202e+06 -2.38856e+06 38000.8 478052 1.59352e+06
219 1 Mg 4.41542 130.54 1.71199 1.2 -9.09242 3.54488e+06 21993.3 1.74581e+06 -518581 -466950 239343
220 2 Si 2.55182 128.307 1.46375 2.4 -35.1402 8.71921e+06 9.18905e+06 9.43073e+06 905798 -70985.1 1.10889e+06
221 3 O 5.8199 127.972 1.41148 -1.2 -8.39263 -6.51333e+06 -4.14196e+06 -3.9101e+06 2.16388e+06 756529 -94388.6
222 3 O 3.47773 132.45 1.64777 -1.2 -8.40857 -4.59421e+06 -5.61263e+06 -5.90572e+06 917545 1.13098e+06 -347999
223 3 O 3.19345 129.08 0.119564 -1.2 -7.77881 -3.61799e+06 -2.76941e+06 -1.50641e+06 -133965 -1.67461e+06 458065
224 3 O 3.36998 129.004 2.69373 -1.2 -8.03784 -3.87766e+06 -1.07293e+06 -2.34454e+06 452439 710929 -904036
225 1 Mg 2.12551 132.565 0.0195755 1.2 -8.37009 -1.06403e+06 4.75414e+06 -1.23785e+06 -679693 -2.17245e+06 -612869
226 1 Mg 6.93078 135.6 1.61552 1.2 -8.42072 2.08577e+06 1.00254e+06 3.97591e+06 1.82016e+06 164667 -62438
227 2 Si 4.22122 133.909 1.51764 2.4 -34.3658 7.40455e+06 8.75639e+06 7.39901e+06 1.21457e+06 44971.3 96214.3
228 3 O 5.80537 133.792 1.51013 -1.2 -8.80287 -2.94937e+06 -3.11696e+06 -3.44931e+06 222536 607744 964108
229 3 O 3.53681 137.444 1.63756 -1.2 -8.6946 -977454 -4.63304e+06 -4.4568e+06 -976713 -815820 1.62932e+06
230 3 O 3.61248 134.404 0.245461 -1.2 -8.42597 -4.994e+06 -6.8491e+06 -3.72787e+06 357971 -927428 4.17239e+06
231 1 Mg 2.36392 143.318 3.0138 1.2 -7.62555 -413565 4.5151e+06 -1.95423e+06 -372925 620154 893660
232 3 O 3.7025 134.573 2.889 -1.2 -8.52544 -3.46159e+06 -4.73844e+06 -1.33023e+06 -209578 152880 -1.09964e+06
233 1 Mg 2.4873 140.312 4.582 1.2 -8.50254 3.11917e+06 1.47442e+06 1.43707e+06 751862 -515209 1.24138e+06
234 2 Si 5.04705 142.302 4.48993 2.4 -33.7252 6.05895e+06 1.19416e+07 8.84402e+06 -1.43729e+06 1.53766e+06 -634350
235 3 O 3.52017 142.38 4.47661 -1.2 -9.26357 -3.21376e+06 -2.90966e+06 -3.3201e+06 -1.31799e+06 444819 718224
236 3 O 5.93116 138.372 4.69175 -1.2 -8.89617 -4.172e+06 -6.70874e+06 -4.04544e+06 183233 -290216 265406
237 3 O 5.78212 141.302 3.45764 -1.2 -8.96153 -3.68252e+06 -2.05169e+06 -2.74742e+06 -1.49668e+06 -1.51812e+06 -212828
238 3 O 5.74984 141.791 5.92838 -1.2 -8.31027 -2.76606e+06 -1.72887e+06 -919094 480454 1.28145e+06 -883416
239 1 Mg 4.88487 137.788 3.06992 1.2 -7.67566 -1.95343e+06 3.35862e+06 -494763 2.1096e+06 -2.88197e+06 2.57281e+06
240 1 Mg 4.66501 135.159 4.58453 1.2 -8.5566 1.71623e+06 1.61915e+06 1.78956e+06 -1.70513e+06 379813 1.676e+06
241 2 Si 6.62871 136.939 4.7005 2.4 -33.6006 6.03532e+06 9.67444e+06 5.16516e+06 -788071 -1.27537e+06 3.00237e+06
242 3 O 3.43471 137.078 4.70997 -1.2 -9.02502 -2.48945e+06 -4.03894e+06 -2.70441e+06 -4319.12 30406.6 -932848
243 3 O 5.7952 132.983 4.49123 -1.2 -8.48231 -6.3384e+06 -4.39968e+06 -3.10995e+06 1.59524e+06 -167418 -1.63802e+06
244 3 O 6.01607 136.215 3.44726 -1.2 -9.33823 -4.86626e+06 -4.70473e+06 -2.4901e+06 363839 -433276 -2.03372e+06
245 1 Mg 4.9269 137.952 0.138695 1.2 -8.19052 845555 3.57789e+06 -197341 1.14058e+06 870187 -1.10593e+06
246 3 O 6.03215 136.346 6.00513 -1.2 -8.6666 -3.93446e+06 -5.26555e+06 -3.21529e+06 -392269 -188198 1.14875e+06
247 1 Mg 5.07002 140.81 1.60935 1.2 -7.87071 -14005.5 2.01549e+06 2.33682e+06 -1.10639e+06 158416 722818
248 2 Si 2.91923 138.98 1.7226 2.4 -32.6886 7.52786e+06 9.11211e+06 7.77386e+06 -329771 620218 3.23333e+06
249 3 O 5.98043 138.853 1.57574 -1.2 -9.56005 -688303 -2.01859e+06 -2.9977e+06 890735 1.43106e+06 -1.50981e+06
250 3 O 3.99082 142.865 1.77366 -1.2 -9.23332 -846654 -4.07424e+06 -3.51044e+06 515308 891953 -521596
251 3 O 3.50894 139.392 0.345439 -1.2 -9.07913 -2.64566e+06 -5.65369e+06 -2.98123e+06 -154812 -923340 2.1171e+06
252 3 O 3.62277 139.617 2.94451 -1.2 -9.37216 -2.45309e+06 -3.44384e+06 -2.22217e+06 -210629 -119421 -2.4175e+06
253 1 Mg 2.5593 143.412 0.156284 1.2 -7.04588 -1.04714e+06 3.95446e+06 279467 -1.16466e+06 -1.12934e+06 -1.52403e+06
254 1 Mg 7.13923 146.267 1.64422 1.2 -8.57713 1.99527e+06 -623839 1.59661e+06 770514 767633 -840020
255 2 Si 4.57136 144.359 1.50591 2.4 -33.0689 3.41333e+06 1.11073e+07 7.96172e+06 -158294 -1.83611e+06 42006
256 3 O 6.14399 144.285 1.62706 -1.2 -9.72728 -2.81926e+06 -3.70979e+06 -4.66956e+06 -1.22779e+06 -1.29313e+06 533168
257 3 O 3.53345 148.037 1.61442 -1.2 -8.88101 -3.49523e+06 -4.60646e+06 -2.88279e+06 -424542 203352 1.13623e+06
258 3 O 4.0514 144.835 0.187256 -1.2 -9.44646 -2.78473e+06 -4.49172e+06 -5.89443e+06 552168 -17794.4 601410
259 1 Mg 1.71305 153.43 2.22329 1.2 -7.31969 -55766 -803499 4.34299e+06 669122 198987 -49123.4
260 3 O 3.7524 145.174 2.73339 -1.2 -8.47141 -3.24175e+06 -4.49638e+06 -478794 385810 -1.58421e+06 807639
261 1 Mg 1.94763 150.982 5.19763 1.2 -8.69927 297314 3.71411e+06 9792.72 142645 1.14093e+06 181363
262 2 Si 3.88984 151.832 3.36693 2.4 -33.9613 7.02342e+06 6.21309e+06 9.86234e+06 357031 -568301 1.37366e+06
263 3 O 2.64785 152.547 3.82528 -1.2 -8.26014 -7.24731e+06 -71574.2 -5.78924e+06 418217 1.63002e+06 -1.2897e+06
264 3 O 6.27027 149.062 4.6703 -1.2 -8.61706 -3.18475e+06 -4.37575e+06 -3.7592e+06 -1.18043e+06 -506935 492730
265 3 O 4.58534 152.703 2.22606 -1.2 -8.95794 -2.46997e+06 -409480 -4.00554e+06 836224 2.10403e+06 -323126
266 3 O 4.78435 151.616 4.6311 -1.2 -8.41715 -6.13957e+06 -3.83185e+06 -1.72692e+06 -240036 843932 1.3323e+06
267 1 Mg 4.78447 148.79 3.19151 1.2 -8.05672 18385 2.6223e+06 1.04421e+06 1.35188e+06 -1.26477e+06 1.0403e+06
268 1 Mg 4.7095 145.785 4.53389 1.2 -8.66051 1.39383e+06 1.11374e+06 3.67934e+06 -481369 217294 -147502
269 2 Si 6.91729 147.532 4.52404 2.4 -34.236 6.09665e+06 9.09923e+06 9.6453e+06 -57134.3 -2.00558e+06 -317199
270 3 O 3.67958 147.658 4.4279 -1.2 -9.08397 -5.16536e+06 -3.11828e+06 -5.11731e+06 1.14187e+06 -871865 -480660
271 3 O 5.69318 143.806 4.36802 -1.2 -9.31885 -2.88568e+06 -3.0977e+06 -2.72639e+06 936243 141790 1.8698e+06