ITEM: TIMESTEP
71200
ITEM: NUMBER OF ATOMS
5600
ITEM: BOX BOUNDS xy xz yz pp pp pp
0.0000000000000000e+00 7.1234999999999999e+00 0.0000000000000000e+00
0.0000000000000000e+00 2.0198500000000001e+02 2.3744999999999998e+00
0.0000000000000000e+00 1.1958400000000000e+02 0.0000000000000000e+00
ITEM: ATOMS id type element xu yu zu q c_pe c_s[1] c_s[2] c_s[3] c_s[4] c_s[5] c_s[6]
1 1 Mg -1.79329 48.3378 -0.986963 1.2 -8.50358 -1.94168e+06 -999084 -1.98103e+06 1.28262e+06 2.16535e+06 -457203
2 1 Mg 2.73474 49.9195 1.85484 1.2 -9.02283 885408 5.50631e+06 -152023 619488 -241455 700654
3 2 Si 0.54003 49.696 0.0335029 2.4 -36.0471 6.99556e+06 8.47647e+06 4.87762e+06 -2.45184e+06 361506 3.69245e+06
4 3 O 1.90795 48.9726 0.21941 -1.2 -7.33619 -1.01457e+07 -4.09851e+06 -8.817e+06 1.94816e+06 645271 -2.29974e+06
5 3 O -1.63635 52.3266 1.7451 -1.2 -7.26737 -5.06212e+06 -565448 -2.63231e+06 -637123 -203818 -1.71717e+06
6 3 O 0.0179589 48.9875 -1.16465 -1.2 -7.57528 -9.78607e+06 -4.41324e+06 -6.97816e+06 23261.8 -3.15481e+06 -2.12367e+06
7 1 Mg -2.67648 58.3138 2.98408 1.2 -8.40159 -598585 5.81294e+06 -308562 -485336 1.46562e+06 2.3201e+06
8 3 O -0.181683 49.6662 1.32884 -1.2 -7.89458 -7.90272e+06 -5.53891e+06 -5.23869e+06 -491706 1.65259e+06 -3.44714e+06
9 1 Mg -2.65238 55.0831 4.54923 1.2 -9.43578 3.51319e+06 1.95351e+06 2.2214e+06 751940 962489 -34894.2
10 2 Si -0.0101333 57.1413 4.34966 2.4 -34.1623 8.27622e+06 1.13491e+07 8.3974e+06 -1.0451e+06 -1.23427e+06 4.02254e+06
11 3 O -1.52456 57.0198 4.47548 -1.2 -8.84143 -3.40717e+06 -3.74971e+06 -2.40254e+06 -326250 -1.05938e+06 -3.13767e+06
12 3 O 1.13094 53.0745 4.48425 -1.2 -7.33153 -5.23502e+06 -1.27238e+06 -3.10431e+06 -1.01323e+06 -34249.2 -3.46933e+06
13 3 O 0.775316 56.4872 3.05155 -1.2 -7.86644 -3.90205e+06 -2.95605e+06 -758586 -462838 -879798 -1.33943e+06
14 3 O 0.757627 56.3209 5.71547 -1.2 -8.26536 -3.94964e+06 -4.84144e+06 474216 -2.71071e+06 1.24919e+06 -2.39674e+06
15 1 Mg -0.373833 52.8016 3.17883 1.2 -9.47312 2.58968e+06 3.45302e+06 -1.00014e+06 439090 -1.94271e+06 2.49407e+06
16 1 Mg 0.317529 48.8442 3.0827 1.2 -8.46356 4.49782e+06 2.54252e+06 -895947 -243398 -974068 1.23721e+06
17 2 Si 1.79734 51.4557 4.44504 2.4 -35.8538 1.04872e+07 7.75865e+06 4.88014e+06 -1.10161e+06 1.69514e+06 734762
18 3 O -1.41176 51.7049 4.48488 -1.2 -7.85349 -5.56347e+06 -3.27162e+06 -4.2133e+06 1.83623e+06 762056 -526262
19 3 O 2.34667 48.3086 3.1477 -1.2 -6.5814 696172 857535 3058.92 99041.3 -1.67364e+06 -2.49486e+06
20 3 O 1.13114 51.0257 3.2143 -1.2 -7.00004 -6.50997e+06 -4.49609e+06 -8.64181e+06 -2.05926e+06 -1.45849e+06 -2.75401e+06
21 1 Mg -0.216012 52.9633 0.153232 1.2 -9.11968 2.32574e+06 3.48776e+06 598436 2.26181e+06 1.23194e+06 -173016
22 3 O 1.15237 50.6457 5.57353 -1.2 -9.60743 -6.66802e+06 -5.50031e+06 -9.52752e+06 -347387 -1.87236e+06 2.17019e+06
23 1 Mg -0.286417 55.9246 1.36442 1.2 -9.58137 4.67854e+06 689639 723827 -1.44213e+06 420256 675791
24 2 Si -2.25808 53.9239 1.62636 2.4 -36.6487 1.06799e+07 1.18285e+07 6.49965e+06 -852558 586138 1.27816e+06
25 3 O 0.941891 53.9234 1.48095 -1.2 -7.5271 -4.67402e+06 -4.0419e+06 -3.65824e+06 391250 -58682.8 -448736
26 3 O -1.36247 57.7847 1.44767 -1.2 -8.64587 -4.71368e+06 -6.77346e+06 -3.30895e+06 853952 -1.05225e+06 -837318
27 3 O -1.56981 54.5808 0.394143 -1.2 -7.87635 -7.97346e+06 -2.17389e+06 -2.49921e+06 -205825 -272740 -251059
28 3 O -1.67374 54.5926 2.91785 -1.2 -7.5066 -5.98106e+06 -3.76796e+06 -2.99388e+06 -136984 257171 -1.62336e+06
29 1 Mg -2.54934 58.2385 0.0359712 1.2 -8.65284 615462 5.79545e+06 -1.69461e+06 -635016 -2.27987e+06 -403460
30 1 Mg 2.00005 61.2808 1.49901 1.2 -9.25891 3.49445e+06 33247.9 394976 1371.31 -251555 1.62394e+06
31 2 Si -0.570378 59.1598 1.45786 2.4 -34.8402 7.37445e+06 1.2381e+07 7.02734e+06 -562141 24045.4 881396
32 3 O 0.951705 59.2134 1.51725 -1.2 -8.74808 -4.7954e+06 -4.19347e+06 -2.26401e+06 1.14872e+06 60154.9 -634611
33 3 O -1.54681 62.8013 1.46091 -1.2 -8.15133 -5.29801e+06 -3.40346e+06 -4.08774e+06 -1.69645e+06 905236 -1.17655e+06
34 3 O -1.21512 59.9618 0.105101 -1.2 -7.68977 -3.90668e+06 -2.773e+06 632534 -1.00803e+06 446363 -1.61163e+06
35 1 Mg -2.44406 69.163 2.87145 1.2 -8.24353 1.09934e+06 5.21047e+06 -826151 -1.01024e+06 657151 977832
36 3 O -1.22217 59.8792 2.73187 -1.2 -8.20367 -4.17149e+06 -4.00568e+06 -2.02193e+06 -251146 -375775 -1.83504e+06
37 1 Mg -2.78769 65.7601 4.45848 1.2 -9.43165 3.21336e+06 1.64953e+06 2.07765e+06 1.00545e+06 -42050.1 190616
38 2 Si 0.110426 67.7257 4.33279 2.4 -35.0364 8.47711e+06 8.25989e+06 7.35647e+06 1.17701e+06 -269297 -69631.7
39 3 O -1.431 67.7434 4.29163 -1.2 -8.42249 -3.96968e+06 -2.39223e+06 -2.90508e+06 -615699 285957 -663186
40 3 O 1.10528 63.7944 4.7616 -1.2 -7.67795 -6.69154e+06 -2.49272e+06 -3.4124e+06 -2.36482e+06 296308 168661
41 3 O 0.730744 66.9072 3.19457 -1.2 -8.00668 -6.43974e+06 -3.9973e+06 -2.46878e+06 167250 234783 -1.27751e+06
42 3 O 0.76081 67.1822 5.70846 -1.2 -8.40467 -4.54665e+06 -3.77943e+06 -3.64682e+06 -15457.4 487378 -1.76172e+06
43 1 Mg -0.203295 63.082 2.9296 1.2 -8.61613 138983 2.96707e+06 -173230 2.04174e+06 -1.92753e+06 3.3475e+06
44 1 Mg -0.191456 60.4226 4.47463 1.2 -8.88667 2.41464e+06 639104 3.75876e+06 -1.46841e+06 -79130.5 580625
45 2 Si 1.69936 62.2208 4.60655 2.4 -34.7253 1.13326e+07 1.10277e+07 7.0618e+06 -451123 -2.01167e+06 2.08667e+06
46 3 O -1.37883 62.4227 4.47486 -1.2 -8.26833 -540432 -3.63561e+06 -2.24549e+06 1.39439e+06 -920505 -1.02684e+06
47 3 O 0.670849 58.5509 4.47441 -1.2 -8.99928 -3.32644e+06 -5.31927e+06 -3.59011e+06 1.30259e+06 128659 -1.89304e+06
48 3 O 1.09473 61.6927 3.25772 -1.2 -8.79086 -6.25531e+06 -4.45494e+06 -2.7313e+06 569153 636731 -2.56189e+06
49 1 Mg -0.271635 63.3486 0.0904619 1.2 -8.82811 -2.1694e+06 4.34097e+06 -2.07323e+06 1.2899e+06 1.97988e+06 -727389
50 3 O 1.01091 61.6051 5.85395 -1.2 -8.09783 -3.56764e+06 -5.37875e+06 -603764 167893 -217331 1.0308e+06
51 1 Mg -0.192168 66.3113 1.48487 1.2 -8.90967 3.0063e+06 2.40629e+06 3.65702e+06 -1.18599e+06 -307286 147192
52 2 Si -2.2164 64.4441 1.61425 2.4 -34.4605 8.23134e+06 1.05306e+07 8.12941e+06 -670511 -697542 946104
53 3 O 0.987218 64.2357 1.60526 -1.2 -8.68008 -2.73719e+06 -3.64064e+06 -3.38803e+06 449775 -382221 -1.7927e+06
54 3 O -1.04737 68.4271 1.38026 -1.2 -8.25092 -2.15951e+06 -3.34734e+06 -1.49217e+06 1.10266e+06 -407773 -1.63643e+06
55 3 O -1.53301 65.0956 0.298343 -1.2 -8.36972 -3.50373e+06 -2.80836e+06 -301332 606674 -208345 -562034
56 3 O -1.63647 65.003 2.896 -1.2 -8.22912 -4.77161e+06 -3.18141e+06 -2.83102e+06 -724227 -550860 -1.28861e+06
57 1 Mg -2.43041 68.8305 -0.285412 1.2 -8.37326 -1.00893e+06 4.86572e+06 -2.15622e+06 121823 -376151 -1.89798e+06
58 1 Mg 2.28154 71.5836 1.34701 1.2 -9.07016 2.44827e+06 1.87534e+06 725859 528233 -421445 947007
59 2 Si -0.280852 69.8781 1.15791 2.4 -34.4289 5.10469e+06 1.54386e+07 6.80001e+06 768164 -1.1032e+06 -404890
60 3 O 1.21904 69.8441 1.14582 -1.2 -9.12591 -5.16143e+06 -6.66471e+06 -2.68089e+06 67457.6 202096 -32293.9
61 3 O -1.5791 73.8253 1.5082 -1.2 -7.92901 -5.31352e+06 -4.34174e+06 -2.69242e+06 -2.82848e+06 -1.27186e+06 893130
62 3 O -1.00168 70.6315 -0.0398358 -1.2 -8.35426 -4.09583e+06 -4.31405e+06 -700521 -140958 663260 -656405
63 1 Mg -2.52057 79.4981 3.19806 1.2 -8.7345 512712 3.39689e+06 -2.00876e+06 -703541 2.7782e+06 1.23885e+06
64 3 O -1.01216 70.628 2.54367 -1.2 -8.26943 -3.91209e+06 -5.99993e+06 180910 196622 -2.07694e+06 -431562
65 1 Mg -2.71318 76.3683 4.56115 1.2 -9.27057 4.21261e+06 1.8606e+06 1.88229e+06 364187 155639 -186973
66 2 Si 0.130073 78.4584 4.7517 2.4 -34.8772 9.96617e+06 9.03406e+06 1.13461e+07 393491 -353611 -380558
67 3 O -1.32354 78.7192 4.50562 -1.2 -8.21842 -6.87931e+06 -3.9567e+06 -5.72037e+06 -911731 1.11163e+06 -1.07083e+06
68 3 O 1.36573 74.485 4.35132 -1.2 -7.49278 -5.38938e+06 -1.65913e+06 -572141 -910855 91284.1 1.70893e+06
69 3 O 0.762829 77.9062 3.36995 -1.2 -7.68993 -6.66923e+06 -4.56849e+06 -1.68792e+06 -564579 -1.02973e+06 -1.67704e+06
70 3 O 1.04552 77.7821 5.96407 -1.2 -8.54874 -2.82967e+06 -1.01334e+06 -1.39108e+06 -238107 1.88419e+06 -660063
71 1 Mg -0.243934 73.7893 2.86374 1.2 -8.76404 925604 4.37246e+06 -491939 458699 -1.05421e+06 1.61264e+06
72 1 Mg -0.175097 70.9563 4.32871 1.2 -8.64503 1.49626e+06 953528 1.63221e+06 -155260 -497087 376761
73 2 Si 2.03715 72.8169 4.39842 2.4 -35.4972 5.50652e+06 1.13142e+07 5.39074e+06 -1.49587e+06 -391021 -1.48218e+06
74 3 O -1.27319 73.0241 4.34391 -1.2 -8.12453 -8.78775e+06 -5.43029e+06 -3.51214e+06 -4348.34 -502660 828313
75 3 O 0.755046 69.2245 4.13566 -1.2 -8.95436 -2.50794e+06 -6.26633e+06 -1.55099e+06 1.46803e+06 -374052 -196465
76 3 O 1.44887 72.0902 3.22886 -1.2 -8.22621 -5.87553e+06 -4.31382e+06 -3.47913e+06 -1.63237e+06 -792108 -2.02138e+06
77 1 Mg -0.326498 74.5134 0.0774523 1.2 -9.02538 76855.3 3.49595e+06 -1.44209e+06 1.3902e+06 983538 -807474
78 3 O 1.2956 72.4211 5.74337 -1.2 -8.33825 -4.96206e+06 -4.6259e+06 -1.36298e+06 360460 -244184 2.94879e+06
79 1 Mg -0.186927 77.3935 1.78509 1.2 -9.67417 4.42936e+06 2.28078e+06 293444 -418742 -1.13819e+06 -1.02837e+06
80 2 Si -2.35673 75.2967 1.60884 2.4 -35.6653 1.22882e+07 1.23195e+07 9.04041e+06 721469 1.40678e+06 31846.7
81 3 O 0.849577 75.1926 1.50265 -1.2 -8.11603 -4.44317e+06 -3.25076e+06 -3.51094e+06 741314 522110 -367363
82 3 O -1.38225 79.2153 1.58302 -1.2 -8.39977 -6.40322e+06 -2.0688e+06 -1.02671e+06 205688 -251674 1.38382e+06
83 3 O -1.62481 75.9068 0.204635 -1.2 -7.63627 -6.41726e+06 -5.03838e+06 -145083 1.93025e+06 -2.62018e+06 830950
84 3 O -1.5573 76.0994 2.85163 -1.2 -7.46907 -3.49041e+06 -2.28679e+06 -1.06821e+06 910571 1.32534e+06 594181
85 1 Mg -2.70333 79.7066 0.0971131 1.2 -8.75887 466943 5.71901e+06 -798434 -1.53526e+06 -2.17952e+06 -2.17767e+06
86 1 Mg 2.02308 82.9091 1.79391 1.2 -8.23936 2.47736e+06 1.38259e+06 1.04487e+06 1.06338e+06 1.04459e+06 -901441
87 2 Si -0.754876 80.726 1.76042 2.4 -34.493 1.19629e+07 1.16402e+07 5.94656e+06 -1.4436e+06 1.34204e+06 -3.26286e+06
88 3 O 0.838703 80.552 1.5722 -1.2 -7.95714 -893049 -5.03171e+06 -2.2281e+06 -1.16203e+06 1.17915e+06 2.03302e+06
89 3 O -1.61904 84.6465 1.67572 -1.2 -9.20323 -476453 -7.43005e+06 -3.66973e+06 -2.70276e+06 1.0433e+06 1.83217e+06
90 3 O -1.53033 81.583 0.44846 -1.2 -8.10703 -6.25974e+06 -2.19232e+06 1.95803e+06 -478747 1.18594e+06 2.02293e+06
91 1 Mg -2.62871 90.3649 3.14335 1.2 -7.51876 -431015 3.93572e+06 -644097 -1.16683e+06 1.89751e+06 2.63116e+06
92 3 O -1.13797 81.4327 3.05707 -1.2 -8.84752 -3.36292e+06 -2.02987e+06 -3.43806e+06 1.01659e+06 673379 927855
93 1 Mg -2.29606 87.5437 4.54445 1.2 -7.60848 1.20315e+06 146671 1.40143e+06 504470 621015 -897011
94 2 Si 0.167305 89.4316 4.7874 2.4 -31.8954 1.96263e+06 1.17382e+07 5.56004e+06 -358404 -993940 129003
95 3 O -1.44525 89.4298 4.68178 -1.2 -10.0031 -351292 -4.13472e+06 -4.33886e+06 581881 1.92584e+06 -1.08022e+06
96 3 O 1.3145 85.7465 4.46926 -1.2 -9.73398 -2.84973e+06 -3.50749e+06 -3.03018e+06 -1.25969e+06 -499986 -403868
97 3 O 0.658796 88.9106 3.39498 -1.2 -9.06963 -3.53207e+06 -5.33229e+06 -4.39868e+06 188335 -268542 -305058
98 3 O 0.796944 88.6223 5.87774 -1.2 -10.0581 -2.76785e+06 -4.01062e+06 -4.0373e+06 -106407 -1.23856e+06 997229
99 1 Mg -0.0322485 85.1142 3.23918 1.2 -7.41042 -3.63063e+06 4.49499e+06 -1.67549e+06 -87197.4 -125780 1.32553e+06
100 1 Mg 0.0586195 82.0718 4.58274 1.2 -8.04422 2.32907e+06 2.0079e+06 759778 -557638 -411677 1.20827e+06
101 2 Si 1.9605 84.2688 4.64728 2.4 -31.6601 4.70543e+06 1.25748e+07 6.42688e+06 -390528 -1.00016e+06 265525
102 3 O -1.1862 84.3673 4.63212 -1.2 -10.1677 -172478 -5.07388e+06 -3.25079e+06 -9656.98 598509 353518
103 3 O 0.955966 80.0316 4.54989 -1.2 -8.27252 -5.64452e+06 -2.45185e+06 -3.9224e+06 1.96677e+06 -1.05954e+06 -1.38801e+06
104 3 O 1.22486 83.4132 3.46417 -1.2 -9.76158 -2.80294e+06 -3.0402e+06 -2.82451e+06 1.1375e+06 1.45697e+06 -563909
105 1 Mg -0.595044 84.7975 0.105283 1.2 -8.27748 -1.89912e+06 5.4123e+06 -2.2572e+06 265810 2.13497e+06 -1.87548e+06
106 3 O 1.37012 83.5654 5.95867 -1.2 -9.88283 -1.0099e+06 -1.06241e+06 -2.90873e+06 980706 -939009 -2.26043e+06
107 1 Mg -0.219275 88.039 1.72537 1.2 -8.22503 1.06605e+06 2.7703e+06 2.49483e+06 54781.1 -251897 1.00325e+06
108 2 Si -2.45927 86.0873 1.67696 2.4 -32.6073 7.5024e+06 9.61914e+06 9.04677e+06 -427253 631923 551352
109 3 O 0.811062 86.0971 1.72108 -1.2 -9.72886 -5.36871e+06 -2.08549e+06 -4.09767e+06 -230647 339022 147640
110 3 O -1.19632 89.9083 1.69062 -1.2 -9.36951 -4.67273e+06 -8.44957e+06 -2.54312e+06 -575293 -693214 873589
111 3 O -1.67902 86.5959 0.283382 -1.2 -8.50296 -1.96072e+06 -3.84587e+06 -244028 1.63971e+06 -1.40388e+06 1.17962e+06
112 3 O -1.57376 86.8738 2.93809 -1.2 -9.0302 -2.15657e+06 -4.06719e+06 -2.15451e+06 659542 3.73438e+06 -479955
113 1 Mg -2.66419 90.3531 -0.0415889 1.2 -7.45312 -675142 4.1236e+06 264017 -609397 -2.02361e+06 -1.72942e+06
114 1 Mg 2.31886 93.2142 1.6227 1.2 -7.85724 928703 164604 1.82177e+06 1.57369e+06 -1.13616e+06 1.26981e+06
115 2 Si -0.600864 91.2726 1.59763 2.4 -32.9096 5.52628e+06 7.42787e+06 8.71542e+06 -610653 274845 547381
116 3 O 1.0528 91.1435 1.5961 -1.2 -9.34612 107860 -4.68197e+06 -2.43377e+06 -298479 -392864 469463
117 3 O -1.63081 95.1787 1.94836 -1.2 -9.80891 -3.59245e+06 -446583 -2.97589e+06 -1.68673e+06 -1.8227e+06 -1.02399e+06
118 3 O -1.07298 91.905 0.205757 -1.2 -9.43341 -2.02649e+06 -2.65543e+06 -2.3154e+06 568526 82627.2 873020
119 1 Mg -2.49407 101.248 3.19541 1.2 -7.12863 -2.11762e+06 1.336e+06 -509434 -1.16025e+06 2.51354e+06 1.25203e+06
120 3 O -1.18005 92.1344 2.82298 -1.2 -9.36784 -3.32086e+06 -2.76826e+06 -517827 419029 -176412 -872162
121 1 Mg -2.46656 97.957 4.65365 1.2 -7.47561 653333 405993 2.31306e+06 1.0601e+06 613936 392093
122 2 Si 0.260901 100.054 4.51097 2.4 -31.6699 5.0512e+06 9.04895e+06 1.08889e+07 -684188 1.31147e+06 31334.8
123 3 O -1.26596 100.334 4.64399 -1.2 -9.90863 -433000 -3.6262e+06 -4.72707e+06 -648873 591062 225910
124 3 O 1.43321 96.0413 4.37327 -1.2 -9.36982 -1.57154e+06 -4.09726e+06 -3.88537e+06 -1.55432e+06 -491085 -266882
125 3 O 0.794528 99.486 3.16956 -1.2 -9.99216 -2.79601e+06 -1.99446e+06 -5.56059e+06 -119673 -1.9774e+06 -1.53293e+06
126 3 O 0.942116 99.1366 5.78451 -1.2 -9.519 -1.61334e+06 -7499.24 752517 -938544 771553 -668867
127 1 Mg -0.143146 95.3975 3.12522 1.2 -7.29069 -2.24947e+06 3.08627e+06 -426794 204985 -1.14371e+06 1.57214e+06
128 1 Mg -0.14215 92.8321 4.75648 1.2 -7.82111 1.31535e+06 484650 3.98215e+06 34548.4 -123410 1.83035e+06
129 2 Si 2.11901 94.5826 4.68103 2.4 -32.7776 3.56295e+06 8.30453e+06 1.22715e+07 306325 1.267e+06 1.8487e+06
130 3 O -1.1129 94.7467 4.74079 -1.2 -10.1513 -4.95829e+06 -1.5385e+06 -5.15137e+06 1.03386e+06 1.52387e+06 -36875.5
131 3 O 0.815128 90.9471 4.78903 -1.2 -9.72586 -2.17103e+06 -3.67564e+06 -4.01038e+06 566803 -1.49088e+06 -1.75998e+06
132 3 O 1.23209 93.7477 3.53087 -1.2 -8.9682 -495822 -4.50224e+06 -1.92174e+06 268437 1.81563e+06 -1.01546e+06
133 1 Mg -0.305588 95.7263 0.264414 1.2 -7.10408 1.07652e+06 3.61611e+06 302548 858898 942996 -1.18477e+06
134 3 O 1.49603 94.1666 6.07973 -1.2 -9.11029 -2.08531e+06 -1.56299e+06 -3.18498e+06 85560.4 -967229 -816735
135 1 Mg -0.00478839 98.654 1.75696 1.2 -7.92736 119102 -27883.1 545585 -1.50847e+06 -617195 -1.08522e+06
136 2 Si -2.25772 96.7629 1.91868 2.4 -32.0645 5.09506e+06 1.08433e+07 9.84117e+06 2.29088e+06 604083 -1.84815e+06
137 3 O 0.93143 96.6202 1.72685 -1.2 -9.86106 382709 -2.663e+06 -5.80854e+06 1.71223e+06 844171 609001
138 3 O -1.14679 100.665 1.52572 -1.2 -9.01436 -1.39732e+06 -2.87132e+06 -6.88898e+06 1.33554e+06 -1.14241e+06 -1.0502e+06
139 3 O -1.6353 97.6246 0.550101 -1.2 -9.08493 -4.03501e+06 -378064 -3.10132e+06 -749568 -2.44049e+06 -755259
140 3 O -1.53385 97.5202 3.04207 -1.2 -9.70754 -2.08345e+06 -2.54642e+06 -6.1103e+06 -802202 1.35656e+06 519714
141 1 Mg -2.69255 100.823 0.425194 1.2 -7.61452 -297322 2.14411e+06 515014 -672839 -1.87675e+06 -866614
142 1 Mg 6.93377 104.285 1.47474 1.2 -7.37626 330369 1.57226e+06 178669 546802 37586.6 1.71798e+06
143 2 Si -0.474391 102.185 1.63045 2.4 -32.8517 2.34532e+06 6.70205e+06 1.21167e+07 995209 393721 1.47263e+06
144 3 O 1.02336 102.149 1.7005 -1.2 -9.86471 -4.5213e+06 -1.02275e+06 -5.80662e+06 -905773 200961 -1.11457e+06
145 3 O 3.24517 106.096 1.64618 -1.2 -10.0364 -2.8522e+06 -4.95386e+06 -2.8444e+06 -730350 1.01285e+06 -501953
146 3 O -1.1094 102.964 0.366121 -1.2 -9.20044 -2.23941e+06 -2.13317e+06 -2.00802e+06 -511658 675045 -2.08286e+06
147 1 Mg 2.05654 112.233 3.20309 1.2 -7.319 -1.06331e+06 4.00667e+06 -559850 -576248 1.02176e+06 786183
148 3 O -1.1191 102.659 2.98323 -1.2 -9.6064 -2.84839e+06 -2.93884e+06 -4.97869e+06 662168 26858.2 -1.625e+06
149 1 Mg 2.29908 108.96 4.53644 1.2 -8.63827 1.04932e+06 316178 3.01584e+06 -49210.9 -236543 -25113.8
150 2 Si 4.7705 110.754 4.70192 2.4 -32.2419 8.28767e+06 9.89213e+06 1.23264e+07 98106.6 1.10387e+06 540253
151 3 O 3.227 110.99 4.61656 -1.2 -9.97454 -2.0516e+06 -2.43148e+06 -5.08533e+06 -987880 974460 -1.03817e+06
152 3 O 6.46442 106.924 4.35491 -1.2 -8.80945 -3.44031e+06 -2.19218e+06 -3.70712e+06 -1.77718e+06 -267916 355316
153 3 O 5.54952 110.09 3.38363 -1.2 -8.8299 -3.13494e+06 -1.0719e+06 -357277 -345794 -2.0179e+06 43853.8
154 3 O 5.64473 110.133 5.96959 -1.2 -9.1679 -550260 -2.5332e+06 -2.99314e+06 -1.63863e+06 3.04871e+06 -248836
155 1 Mg 4.74934 106.462 3.06867 1.2 -7.26408 -697248 2.30849e+06 1.08367e+06 -30992.6 40397.8 2.53885e+06
156 1 Mg 0.262066 103.554 4.34106 1.2 -7.31746 588798 258201 3.78872e+06 -1.08711e+06 -180210 1.06562e+06
157 2 Si 6.97608 105.389 4.49741 2.4 -32.1331 5.28429e+06 1.13188e+07 1.00721e+07 -118032 1.70644e+06 -1.32281e+06
158 3 O 3.83988 105.489 4.70934 -1.2 -9.90187 612229 -3.82849e+06 -3.13014e+06 1.20208e+06 512360 651734
159 3 O 1.03616 101.57 4.67546 -1.2 -9.94729 -4.74384e+06 -146561 -5.33e+06 1.83375e+06 -578844 -1.22249e+06
160 3 O 6.25076 104.675 3.23159 -1.2 -10.0319 -138201 -4.30516e+06 -4.52254e+06 376162 2.27471e+06 -772423
161 1 Mg 4.50624 106.574 -0.00223447 1.2 -7.32991 -2.12262e+06 2.57203e+06 1.35765e+06 1.26604e+06 1.25553e+06 -1.36337e+06
162 3 O 6.27281 104.632 5.77883 -1.2 -9.6603 -3.84444e+06 -517456 -2.01988e+06 646434 -1.9337e+06 207967
163 1 Mg 4.72237 109.362 1.62244 1.2 -8.11773 2.16149e+06 159010 4.21212e+06 -1.30991e+06 120144 827795
164 2 Si 2.56756 107.504 1.55506 2.4 -32.891 4.99189e+06 6.71911e+06 1.2834e+07 975079 -828475 1.46112e+06
165 3 O 5.72438 107.398 1.71546 -1.2 -9.60766 -1.3107e+06 -2.59698e+06 -6.08186e+06 -370157 -1.15942e+06 -590287
166 3 O 3.54219 111.362 1.54034 -1.2 -8.93735 -1.19572e+06 -1.06758e+06 -2.85917e+06 1.04105e+06 -1.35065e+06 1.15229e+06
167 3 O 3.22074 108.071 0.163301 -1.2 -9.20402 -3.18577e+06 -2.27345e+06 -3.43953e+06 570904 -1.2644e+06 -547933
168 3 O 3.12929 108.421 2.75047 -1.2 -8.55991 -4.40672e+06 -2.4039e+06 -3.20076e+06 -851049 1.57206e+06 1.04583e+06
169 1 Mg 2.12416 111.469 0.303389 1.2 -7.45478 -2.15908e+06 3.8252e+06 896937 -847922 -1.57141e+06 -1.13759e+06
170 1 Mg 7.06131 114.964 1.5846 1.2 -7.7056 -140211 345728 1.93739e+06 -109280 -126201 1.70785e+06
171 2 Si 4.28377 112.969 1.49655 2.4 -32.1346 3.16189e+06 1.12062e+07 8.21787e+06 1.32463e+06 -67357.6 -498331
172 3 O 5.74611 112.762 1.49777 -1.2 -10.1484 -4.78619e+06 -2.70873e+06 -2.62838e+06 -805371 1.06677e+06 1.08757e+06
173 3 O 3.23236 116.686 1.64809 -1.2 -9.62996 -4.84901e+06 -7.66274e+06 -4.35353e+06 -1.20036e+06 1.29737e+06 -323446
174 3 O 3.50061 113.61 0.266538 -1.2 -9.52211 -2.00021e+06 -3.56447e+06 -1.50964e+06 -216470 664462 909062
175 1 Mg 2.53017 122.528 3.28602 1.2 -6.56099 -2.87291e+06 4.85928e+06 216533 -813348 1.39181e+06 -177462
176 3 O 3.59677 113.607 2.83263 -1.2 -9.94551 -164399 -4.20734e+06 -753443 -83834 -1.29808e+06 -631768
177 1 Mg 2.36113 119.553 4.76334 1.2 -8.24366 560014 -1.10505e+06 4.24342e+06 1.1874e+06 -972394 721606
178 2 Si 5.02716 121.425 4.85951 2.4 -32.1684 2.196e+06 9.95573e+06 8.06837e+06 -236482 -1.29138e+06 -1.16024e+06
179 3 O 3.54595 121.472 4.85017 -1.2 -10.2259 -5.05001e+06 -2.97587e+06 -3.97764e+06 -1.02489e+06 -1.53269e+06 787231
180 3 O 5.99863 117.688 4.82813 -1.2 -9.2101 -254976 -1.6249e+06 -4.41565e+06 -1.07075e+06 455688 -1.10273e+06
181 3 O 5.93127 120.685 3.68943 -1.2 -9.60545 -847253 -2.03336e+06 -4.84639e+06 -58833 -1.09136e+06 479826
182 3 O 5.60643 120.722 6.13694 -1.2 -8.61232 -3.97081e+06 -3.64476e+06 -4.18803e+06 386334 -36283 334938
183 1 Mg 4.66802 117.195 3.22794 1.2 -7.48443 151880 3.09747e+06 -58416.4 1.22829e+06 -1.3216e+06 1.38088e+06
184 1 Mg 4.50201 114.219 4.64997 1.2 -7.54341 -410826 1.98953e+06 2.35123e+06 -1.16936e+06 360654 215107
185 2 Si 6.61284 116.079 4.71988 2.4 -32.2957 3.94386e+06 9.8093e+06 8.90028e+06 -855711 -1.06597e+06 176185
186 3 O 3.4575 116.113 4.69545 -1.2 -9.87402 -1.27824e+06 -1.72756e+06 -4.12333e+06 1.3964e+06 -2.00707e+06 -239900
187 3 O 5.55958 112.392 4.62581 -1.2 -9.48438 -969916 -1.28587e+06 -3.74315e+06 3.08594e+06 146112 -1.40245e+06
188 3 O 6.0927 115.695 3.29178 -1.2 -9.40122 -3.04807e+06 -3.94532e+06 -3.60178e+06 -667586 945590 86773.9
189 1 Mg 4.65311 117.157 0.342221 1.2 -7.25534 -2.15982e+06 3.91487e+06 195475 1.00867e+06 1.86914e+06 -1.03544e+06
190 3 O 5.7656 115.333 5.79582 -1.2 -9.77315 -2.06e+06 -3.73592e+06 -2.17007e+06 296459 -1.01236e+06 833300
191 1 Mg 4.88306 120.22 1.94768 1.2 -7.77895 1.48243e+06 264124 2.53626e+06 107442 229072 -1.59506e+06
192 2 Si 2.6421 118.105 1.57172 2.4 -32.7394 4.2363e+06 8.65057e+06 9.0027e+06 2.67655e+06 -286325 -1.41771e+06
193 3 O 5.86016 118.037 1.77777 -1.2 -9.60395 -3.04076e+06 -4.16961e+06 -3.96653e+06 1.62991e+06 -925492 918465
194 3 O 3.8278 121.941 1.79947 -1.2 -10.3039 -2.32201e+06 -4.59455e+06 -3.02287e+06 728005 1.23712e+06 820123
195 3 O 3.35967 118.791 0.280652 -1.2 -9.4202 -2.36928e+06 -2.96561e+06 -3.99768e+06 449292 -1.70239e+06 614289
196 3 O 3.38405 118.865 2.81668 -1.2 -9.13446 -2.47006e+06 -1.75195e+06 -2.09771e+06 597272 1.16666e+06 -243368
197 1 Mg 2.4377 122.133 0.356762 1.2 -7.54665 -653937 3.93383e+06 -479441 -432763 -1.01422e+06 -2.13459e+06
198 1 Mg 7.12206 125.452 1.52336 1.2 -7.65848 2.54294e+06 1.34388e+06 1.85118e+06 713726 -332821 1.00298e+06
199 2 Si 4.4697 123.409 1.82546 2.4 -31.7333 2.70985e+06 1.06509e+07 9.12363e+06 -590419 776444 -71364.7
200 3 O 5.99795 123.357 1.80707 -1.2 -10.1424 -1.18365e+06 -3.94371e+06 -2.28377e+06 -794908 -829330 -407027
201 3 O 3.50011 127.293 1.71514 -1.2 -9.70067 -3.40521e+06 -8.95282e+06 -3.64552e+06 1.02184e+06 486642 663933
202 3 O 3.85354 124.153 0.404022 -1.2 -8.94911 -906609 -1.69727e+06 1.05203e+06 -1.13758e+06 621200 -1.33058e+06
203 1 Mg 2.67301 132.945 3.03997 1.2 -7.41014 285449 3.63278e+06 1.65639e+06 -38477.2 3870.44 435282
204 3 O 3.75847 124.167 3.0414 -1.2 -10.027 -2.67047e+06 -3.65891e+06 -3.60938e+06 -878841 -1.5081e+06 -823522
205 1 Mg 2.65171 129.931 4.64017 1.2 -8.67738 2.51555e+06 904922 152499 676266 1.23414e+06 -1.03017e+06
206 2 Si 5.18945 131.901 4.63134 2.4 -34.5938 6.02619e+06 8.25863e+06 7.42107e+06 -1.3739e+06 -335497 -207116
207 3 O 3.60762 131.918 4.82184 -1.2 -9.0304 -4.73671e+06 -2.7575e+06 -1.79773e+06 -1.72684e+06 540575 150900
208 3 O 6.18383 128.132 4.65167 -1.2 -9.18751 -3.03103e+06 -2.85227e+06 -4.44239e+06 -995620 893759 1.29053e+06
209 3 O 5.7656 131.001 3.46391 -1.2 -8.49663 -2.46654e+06 -2.8126e+06 -5.39319e+06 -496148 -873656 465562
210 3 O 5.95397 131.354 5.90565 -1.2 -8.21687 -4.34392e+06 -4.9519e+06 -4.98659e+06 134124 991155 1.57955e+06
211 1 Mg 4.71529 127.795 3.27525 1.2 -7.62621 -1.43514e+06 3.61925e+06 -1.22421e+06 1.80451e+06 -2.1137e+06 1.36935e+06
212 1 Mg 4.80196 124.722 4.51238 1.2 -7.70419 -529924 -137268 2.41189e+06 -1.67967e+06 -1.25731e+06 -2.50105e+06
213 2 Si 6.80143 126.551 4.63013 2.4 -32.2232 5.07792e+06 1.11222e+07 8.03688e+06 -334943 1.64167e+06 -1.59104e+06
214 3 O 3.60229 126.585 4.63937 -1.2 -9.63293 -425526 -4.25697e+06 -4.34103e+06 851399 320035 731589
215 3 O 5.6863 122.953 4.84955 -1.2 -9.93401 -1.60249e+06 -5.30776e+06 -4.75596e+06 2.40653e+06 131405 238025
216 3 O 6.09063 125.947 3.23582 -1.2 -9.49128 -2.33501e+06 -2.58296e+06 162221 180677 677372 421078
217 1 Mg 4.93872 127.596 0.281802 1.2 -7.70657 -3.92606e+06 4.35431e+06 -395020 1.09913e+06 862213 -1.4658e+06
218 3 O 6.13649 125.893 5.85229 -1.2 -9.71172 -4.22989e+06 -4.16198e+06 -1.42396e+06 -103141 525090 2.38972e+06
219 1 Mg 4.84881 130.393 1.82786 1.2 -8.59602 1.4043e+06 360922 3.43891e+06 -1.21705e+06 -546384 -2.03968e+06
220 2 Si 2.81372 128.628 1.61093 2.4 -32.7974 4.71215e+06 6.4086e+06 6.52156e+06 -825420 1.30862e+06 -148335
221 3 O 5.9912 128.609 1.60244 -1.2 -9.52087 -2.5393e+06 -4.72028e+06 -3.77609e+06 -306049 -473275 1.16547e+06
222 3 O 4.19906 132.589 1.61106 -1.2 -8.64476 -3.77823e+06 -4.77178e+06 -820141 1.03196e+06 -236857 991694
223 3 O 3.46495 129.432 0.584744 -1.2 -8.92198 -5.91056e+06 -5.91273e+06 -4.23795e+06 -142657 971605 3.50333e+06
224 3 O 3.52342 129.325 3.11181 -1.2 -8.56413 -4.50081e+06 -3.77418e+06 -3.93524e+06 851444 2.34147e+06 255052
225 1 Mg 2.81258 133.212 -0.266029 1.2 -7.62705 -456986 2.96962e+06 -268384 -752475 -1.62484e+06 -2.62553e+06
226 1 Mg 7.35146 136.033 1.69594 1.2 -7.95199 718926 1.49924e+06 -1.96848e+06 394701 512922 -970946
227 2 Si 4.82611 134.051 1.62384 2.4 -33.5905 6.72939e+06 1.23918e+07 6.61058e+06 -1.1351e+06 544056 250244
228 3 O 6.41026 133.845 1.62688 -1.2 -9.39337 -2.59354e+06 -4.03847e+06 -713807 -1.43377e+06 -575116 535831
229 3 O 3.61902 137.795 1.62319 -1.2 -10.0843 -2.10853e+06 -6.73503e+06 -379970 -2.99014e+06 379134 2.16004e+06
230 3 O 4.18137 134.615 0.24088 -1.2 -9.17676 -2.21931e+06 -5.54525e+06 -2.98361e+06 -708403 2.10479e+06 1.71495e+06
231 1 Mg 2.48649 143.546 3.00066 1.2 -8.18149 -228083 2.72699e+06 262296 -2.52202e+06 1.80585e+06 394284
232 3 O 4.13405 134.925 2.76982 -1.2 -9.20392 -1.94148e+06 -3.03256e+06 -1.71608e+06 -85758.6 -1.14368e+06 676935
233 1 Mg 2.39901 140.541 5.02482 1.2 -7.6181 954388 -221770 1.15025e+06 1.59865e+06 -893556 -900156
234 2 Si 5.19336 142.645 4.55411 2.4 -33.8532 2.35151e+06 7.15575e+06 1.00934e+07 1.23207e+06 -2.39475e+06 -347133
235 3 O 3.72911 142.6 4.68436 -1.2 -9.12317 -7.15117e+06 -3.21846e+06 -4.79027e+06 -174963 -616045 -399021
236 3 O 6.1957 138.783 4.69019 -1.2 -10.1263 44558.2 -8.71975e+06 -3.93422e+06 -987775 627005 2.70211e+06
237 3 O 5.94226 142.203 3.0133 -1.2 -7.91253 -3.84427e+06 -5.66987e+06 -1.54465e+06 -953256 -2.02714e+06 521276
238 3 O 5.86761 141.905 5.69444 -1.2 -9.26332 -5.66097e+06 -4.75576e+06 -3.9324e+06 1.19462e+06 -257517 2.30658e+06
239 1 Mg 4.64384 138.264 3.26001 1.2 -6.81563 -2.19724e+06 7.27097e+06 -3.15763e+06 403974 -1.30662e+06 558093
240 1 Mg 4.85353 135.478 4.64025 1.2 -7.97401 771284 1.97993e+06 2.15889e+06 -903618 -543381 -1.6861e+06
241 2 Si 6.9666 137.397 4.61094 2.4 -31.6608 -1.40626e+06 1.27121e+07 5.55099e+06 -753690 1.65197e+06 -1.15196e+06
242 3 O 3.69076 137.277 4.68157 -1.2 -10.4958 -5.89987e+06 -4.90015e+06 -3.48508e+06 -849655 -880069 559273
243 3 O 5.69299 133.321 4.57434 -1.2 -8.66191 -2.27139e+06 -7.58756e+06 -3.21663e+06 195003 428056 2.58067e+06
244 3 O 6.46342 136.672 3.242 -1.2 -9.07641 -3.17266e+06 -4.59131e+06 -3.52684e+06 -199722 816120 1.0324e+06
245 1 Mg 4.99346 138.266 0.214502 1.2 -6.99503 -3.75665e+06 6.1271e+06 -2.17732e+06 -3298.01 1.46303e+06 -1.37171e+06
246 3 O 6.13523 136.632 5.70181 -1.2 -9.67462 -3.66529e+06 -7.20338e+06 -3.66389e+06 143124 -587343 1.37534e+06
247 1 Mg 5.10674 141.116 1.61881 1.2 -8.87925 1.6912e+06 1.12093e+06 -492974 52509.3 -35406.9 -2.64933e+06
248 2 Si 2.84825 139.297 1.58682 2.4 -31.8156 5.66053e+06 1.62732e+07 3.01116e+06 875557 132752 1.14436e+06
249 3 O 6.05537 139.36 1.77571 -1.2 -9.9366 -1.95736e+06 -6.33493e+06 -1.32788e+06 700086 -382688 99824.8
250 3 O 3.7538 143.356 1.44047 -1.2 -7.9364 -8.1382e+06 -8.41172e+06 -2.80232e+06 -53824.6 529471 1.91218e+06
251 3 O 3.59857 139.988 0.45074 -1.2 -9.66901 -2.01269e+06 -5.27085e+06 -3.67326e+06 -612168 -996618 602656
252 3 O 3.59213 140.149 2.94016 -1.2 -8.61912 -2.10828e+06 -1.05358e+06 748368 1.21819e+06 1.27645e+06 1.85393e+06
253 1 Mg 2.45956 143.674 0.0224548 1.2 -8.77029 1.3125e+06 2.47795e+06 -933146 -581104 -2.06861e+06 -2.42399e+06
254 1 Mg 7.30679 146.601 1.50762 1.2 -8.87886 3.93552e+06 1.8514e+06 2.61148e+06 1.33437e+06 -702741 -711102
255 2 Si 4.46922 144.692 1.48004 2.4 -35.6561 7.09629e+06 9.25362e+06 4.74837e+06 -788645 747629 -1.22561e+06
256 3 O 6.033 144.621 1.34006 -1.2 -8.06634 -5.03831e+06 -5.55916e+06 -2.47936e+06 857683 -675431 539905
257 3 O 3.69466 148.612 1.34113 -1.2 -8.67663 -4.16523e+06 -2.0376e+06 491761 -794259 -315498 373364
258 3 O 3.9857 145.385 0.146495 -1.2 -7.62516 -4.98771e+06 -5.08379e+06 -3.32565e+06 914055 -588663 1.96011e+06
259 1 Mg 1.67242 154.244 1.97932 1.2 -7.15072 -1.36207e+06 -635639 3.42192e+06 -1.95051e+06 -814581 203423
260 3 O 3.90154 145.486 2.67306 -1.2 -8.68837 -4.52713e+06 -3.03313e+06 -3.52556e+06 6682.52 170596 -1.31825e+06
261 1 Mg 1.94361 152.061 5.08574 1.2 -8.02356 -181114 5.40925e+06 -1.15678e+06 -485757 301999 693929
262 2 Si 4.09423 152.425 3.12028 2.4 -33.7511 9.83815e+06 9.21995e+06 6.75797e+06 -2.3135e+06 -527133 1.09652e+06
263 3 O 2.76842 153.313 3.54381 -1.2 -8.27071 -2.79753e+06 -1.88777e+06 -1.90897e+06 -659793 -814465 -2.25119e+06
264 3 O 6.29276 149.494 4.37826 -1.2 -8.84916 -495829 -3.38918e+06 -1.94949e+06 -2.45605e+06 -910094 -411494
265 3 O 4.97428 153.161 2.00533 -1.2 -9.29078 -6.21543e+06 -3.66957e+06 -2.44882e+06 -156938 -1.47642e+06 -1.1231e+06
266 3 O 4.78216 152.341 4.58946 -1.2 -8.81016 -5.48744e+06 -4.80276e+06 1.97908e+06 -476707 395596 88747.1
267 1 Mg 5.03267 148.881 2.90966 1.2 -8.0598 -244402 4.25576e+06 -337220 1.68757e+06 -1.46096e+06 817377
268 1 Mg 4.71688 145.969 4.49872 1.2 -8.76206 2.5501e+06 1.40068e+06 3.16951e+06 -336199 -104504 -481270
269 2 Si 6.93896 147.959 4.60707 2.4 -33.7868 8.26986e+06 1.23481e+07 7.03501e+06 1.29637e+06 978435 -2.10256e+06